/*--------------------------------*- C++ -*----------------------------------*\
  =========                 |
  \\      /  F ield         | OpenFOAM: The Open Source CFD Toolbox
   \\    /   O peration     | Website:  https://openfoam.org
    \\  /    A nd           | Version:  7
     \\/     M anipulation  |
\*---------------------------------------------------------------------------*/
FoamFile
{
    version     2.0;
    format      ascii;
    class       volScalarField;
    location    "5.7";
    object      rho;
}
// * * * * * * * * * * * * * * * * * * * * * * * * * * * * * * * * * * * * * //

dimensions      [1 -3 0 0 0 0 0];

internalField   nonuniform List<scalar> 
3328
(
37.8348
9.76809
7.046
7.06065
7.0599
7.05941
7.05977
7.06091
7.06226
7.06426
7.06765
7.07227
7.07832
7.08685
7.09976
7.11672
7.13684
7.15829
7.17292
7.17577
7.12948
7.0294
6.91341
6.86197
37.8222
9.76865
7.043
7.05758
7.05724
7.05708
7.05782
7.05943
7.06109
7.06331
7.06687
7.07172
7.07802
7.08644
7.09851
7.11411
7.13276
7.15275
7.16641
7.16834
7.12212
7.0226
6.90757
6.85686
37.7987
9.76141
7.03803
7.05263
7.05316
7.05372
7.05503
7.05703
7.05885
7.06096
7.06432
7.06909
7.07547
7.0835
7.09425
7.10785
7.12446
7.14224
7.15438
7.15552
7.11079
7.01419
6.90136
6.85231
37.7598
9.75001
7.03061
7.04534
7.04698
7.04856
7.0507
7.05334
7.05547
7.05735
7.06014
7.06437
7.07039
7.07774
7.08683
7.09803
7.11243
7.12831
7.13997
7.1407
7.09734
7.00126
6.88675
6.83621
37.7089
9.73339
7.02143
7.03635
7.03928
7.04192
7.04486
7.04809
7.05046
7.05197
7.05378
7.05685
7.06187
7.06811
7.07534
7.08377
7.09561
7.10859
7.11849
7.11536
7.0718
6.97706
6.8617
6.81394
37.6503
9.71422
7.01108
7.02598
7.03006
7.03354
7.03706
7.04063
7.04312
7.04399
7.04455
7.04594
7.04934
7.05393
7.05907
7.06415
7.07303
7.08272
7.09209
7.08897
7.05217
6.95769
6.83322
6.76289
37.5868
9.69415
7.0002
7.01454
7.01908
7.0228
7.02635
7.02991
7.03221
7.0325
7.03181
7.03137
7.0329
7.03544
7.03848
7.03996
7.04565
7.05153
7.05898
7.05217
7.01259
6.90013
6.76017
6.69344
37.5185
9.67366
6.98918
7.00224
7.00634
7.00938
7.01203
7.01478
7.0165
7.01642
7.01482
7.01295
7.01285
7.01316
7.01421
7.01238
7.01391
7.01495
7.01697
7.00747
6.97096
6.86898
6.70251
6.69018
37.4439
9.65172
6.97803
6.98923
6.99199
6.99343
6.99417
6.99515
6.9958
6.99522
6.99305
6.99026
6.98896
6.9876
6.98688
6.98269
6.97922
6.97568
6.97133
6.96012
6.92077
6.82256
6.53228
6.19223
37.3615
9.62632
6.96655
6.9755
6.97639
6.97585
6.97418
6.97279
6.97145
6.96968
6.96689
6.96371
6.96151
6.95909
6.95653
6.95093
6.94311
6.93593
6.92658
6.90929
6.86838
6.77015
6.59218
6.28964
37.272
9.59568
6.95431
6.96097
6.95982
6.95744
6.95369
6.94995
6.94617
6.94253
6.93854
6.93476
6.93142
6.92787
6.92336
6.91654
6.90666
6.89647
6.88336
6.85936
6.81968
6.72716
6.6058
6.3749
37.1777
9.5603
6.94098
6.9449
6.9419
6.93841
6.93374
6.92866
6.92274
6.91702
6.91126
6.90614
6.9011
6.8955
6.88848
6.87926
6.86848
6.85604
6.84067
6.8136
6.77492
6.70249
6.61317
6.4627
37.0818
9.52119
6.92738
6.92723
6.92269
6.91839
6.91402
6.90904
6.90216
6.89463
6.88722
6.88046
6.87353
6.86513
6.85459
6.84154
6.82844
6.8134
6.7961
6.77
6.73222
6.68026
6.60385
6.51694
36.986
9.47761
6.91316
6.90623
6.90122
6.89659
6.89344
6.88965
6.88349
6.87512
6.86624
6.85808
6.84992
6.83936
6.82532
6.80793
6.78972
6.77018
6.74973
6.72417
6.68949
6.64842
6.5927
6.52782
36.8885
9.43408
6.8952
6.88259
6.87942
6.87461
6.87168
6.86914
6.86478
6.85684
6.84703
6.83733
6.82832
6.81708
6.80176
6.78132
6.75726
6.73201
6.70647
6.67859
6.6451
6.60864
6.56783
6.51883
36.7879
9.39852
6.86349
6.86176
6.86006
6.85419
6.84969
6.84769
6.84515
6.83821
6.82775
6.81624
6.8059
6.79469
6.78042
6.76017
6.73331
6.70359
6.67272
6.64002
6.60385
6.56655
6.52886
6.49291
36.6858
9.35423
6.83137
6.84451
6.84284
6.83513
6.82822
6.82651
6.8253
6.81925
6.80769
6.79392
6.78141
6.76964
6.75687
6.7393
6.71404
6.68384
6.65053
6.61388
6.57326
6.53112
6.4896
6.45219
36.5704
9.31439
6.80958
6.82304
6.82014
6.81197
6.80622
6.80603
6.80611
6.80074
6.78764
6.7712
6.75569
6.742
6.72909
6.71413
6.69326
6.6665
6.63509
6.59795
6.55463
6.50711
6.4586
6.41243
36.4374
9.29642
6.79508
6.79859
6.79387
6.78657
6.78233
6.78426
6.78672
6.78249
6.76842
6.74967
6.73108
6.71411
6.69859
6.68378
6.66663
6.64458
6.61797
6.58439
6.54219
6.49235
6.43862
6.38252
36.3038
9.29384
6.77609
6.76935
6.76219
6.75722
6.75436
6.75854
6.76433
6.76147
6.74765
6.72872
6.70893
6.68887
6.66925
6.65112
6.63383
6.61443
6.59192
6.56374
6.52675
6.47877
6.4235
6.36235
36.1889
9.29717
6.74899
6.73796
6.72797
6.72396
6.72239
6.72874
6.73743
6.73497
6.72109
6.704
6.6866
6.66654
6.64383
6.62053
6.5986
6.57742
6.55547
6.53027
6.49842
6.45577
6.40383
6.34321
36.0938
9.2958
6.72216
6.70614
6.6931
6.69
6.69042
6.69779
6.70564
6.70169
6.687
6.67228
6.65967
6.64366
6.62153
6.59453
6.56625
6.53929
6.51371
6.48752
6.45704
6.41799
6.37021
6.31407
36.0053
9.28424
6.70206
6.67865
6.6625
6.66024
6.66256
6.66782
6.67064
6.66362
6.6481
6.63433
6.6254
6.61548
6.59822
6.57193
6.53991
6.50683
6.47514
6.44485
6.41209
6.37232
6.3242
6.26994
35.9156
9.26114
6.68508
6.65646
6.6416
6.64115
6.64256
6.64108
6.63534
6.62439
6.60868
6.59483
6.5868
6.58127
6.57071
6.54927
6.51808
6.48223
6.44567
6.41056
6.3741
6.33148
6.27909
6.22018
35.825
9.23063
6.65999
6.638
6.63302
6.63481
6.63168
6.62049
6.60557
6.59036
6.5739
6.55914
6.54996
6.5459
6.54014
6.52465
6.49783
6.46342
6.42541
6.38718
6.34798
6.30333
6.24728
6.18131
35.739
9.18666
6.62029
6.62794
6.63431
6.6361
6.62601
6.60744
6.58649
6.56643
6.54754
6.53222
6.52292
6.51854
6.51273
6.49942
6.47703
6.44733
6.41189
6.37305
6.33189
6.28666
6.23057
6.16124
35.6536
9.13222
6.59189
6.62173
6.63493
6.63332
6.61967
6.59919
6.57577
6.55193
6.53204
6.51915
6.51138
6.50345
6.49233
6.4756
6.45432
6.43032
6.40238
6.3683
6.32659
6.2792
6.22344
6.15598
35.5631
9.07581
6.57911
6.61493
6.62644
6.6242
6.61012
6.58998
6.56829
6.54781
6.53297
6.52357
6.51393
6.49943
6.47925
6.45589
6.4323
6.41085
6.38954
6.36328
6.32675
6.27976
6.22273
6.15685
35.4685
9.0448
6.57691
6.60212
6.60858
6.60352
6.5896
6.57347
6.55942
6.55221
6.54786
6.54191
6.52689
6.50278
6.47197
6.43975
6.41116
6.3893
6.37236
6.35369
6.32388
6.28008
6.22376
6.15875
35.3794
9.04578
6.57476
6.58127
6.57718
6.56685
6.55591
6.54773
6.55049
6.56265
6.56833
6.56267
6.54225
6.50963
6.47004
6.42963
6.39481
6.37004
6.35431
6.34033
6.3164
6.276
6.22072
6.15719
35.3052
9.08143
6.56921
6.55379
6.53315
6.52022
6.51352
6.52127
6.54742
6.57193
6.57939
6.57245
6.5497
6.51413
6.47104
6.42653
6.38695
6.35781
6.33868
6.32341
6.30079
6.26418
6.21113
6.14887
35.2471
9.12967
6.55386
6.52069
6.48835
6.4761
6.48111
6.50676
6.54121
6.56425
6.56926
6.56076
6.53893
6.50688
6.46849
6.42789
6.38959
6.35733
6.33057
6.30578
6.2777
6.24167
6.1938
6.13557
35.1991
9.15407
6.52916
6.49013
6.46191
6.45839
6.47098
6.4965
6.52237
6.53633
6.53563
6.52449
6.50507
6.48191
6.45772
6.43258
6.40307
6.36846
6.33178
6.29302
6.25357
6.21192
6.16674
6.11565
35.1586
9.14284
6.5035
6.47339
6.45734
6.4622
6.47323
6.48623
6.49543
6.49633
6.48824
6.47306
6.45618
6.44341
6.43756
6.43407
6.4212
6.38891
6.34156
6.28801
6.23354
6.18178
6.13402
6.08794
35.1302
9.10761
6.47568
6.4726
6.46992
6.47739
6.48046
6.47847
6.46973
6.45422
6.4355
6.41665
6.40383
6.40334
6.41432
6.42686
6.4284
6.40441
6.35367
6.28999
6.22326
6.16012
6.1054
6.05969
35.1121
9.06456
6.45962
6.4849
6.49025
6.49196
6.4876
6.47634
6.45216
6.42188
6.39296
6.37083
6.36412
6.37362
6.39074
6.40548
6.4123
6.4008
6.35845
6.29232
6.21835
6.14709
6.08755
6.04081
35.1044
9.03042
6.47169
6.5012
6.50227
6.49925
6.48914
6.47123
6.44371
6.41028
6.37862
6.35971
6.35545
6.35908
6.36624
6.37149
6.37273
6.36626
6.33896
6.28626
6.21991
6.15193
6.09193
6.03986
35.0987
9.02632
6.49905
6.5102
6.50492
6.49575
6.4785
6.4547
6.43017
6.4091
6.39095
6.37638
6.36692
6.35828
6.34738
6.33571
6.32365
6.31019
6.29315
6.2671
6.22712
6.17392
6.11624
6.05666
35.0874
9.03669
6.51931
6.51477
6.50253
6.48293
6.45761
6.43202
6.41212
6.40143
6.39916
6.39907
6.38944
6.36782
6.33852
6.30453
6.27402
6.25245
6.23858
6.2311
6.2214
6.19633
6.15002
6.08629
35.0899
9.06395
6.53305
6.51782
6.49577
6.47127
6.44526
6.42522
6.41518
6.41423
6.4198
6.42519
6.41504
6.37797
6.32806
6.27688
6.23645
6.21845
6.2198
6.22656
6.23061
6.21968
6.17912
6.10907
5.2908
5.64245
5.68354
5.63422
5.53933
5.4854
5.46982
5.466
6.03291
6.0181
5.83187
5.69528
5.56708
5.50263
5.47657
5.46491
6.16212
6.02876
5.84866
5.72343
5.59561
5.52145
5.47617
5.4717
6.31596
6.16832
5.99507
5.85875
5.70048
5.59112
5.51852
5.49678
6.41448
6.30316
6.14105
5.98523
5.80249
5.6517
5.54364
5.5278
6.45806
6.37547
6.26351
6.137
5.96467
5.77566
5.62668
5.56642
6.47179
6.40847
6.32707
6.22584
6.07182
5.85763
5.63588
5.54424
6.45426
6.41212
6.34944
6.26645
6.14608
5.95458
5.6451
5.50683
6.41632
6.38036
6.33502
6.26489
6.15158
5.9535
5.48031
4.39124
6.37017
6.32957
6.28551
6.21739
6.10385
5.87426
5.39189
4.40434
6.32607
6.26932
6.21239
6.13314
6.01474
5.77871
5.37069
4.53739
6.29486
6.22102
6.14103
6.04324
5.90833
5.68768
5.3234
4.69059
6.27238
6.18874
6.08923
5.97089
5.81788
5.60752
5.294
4.81709
6.24746
6.16486
6.05871
5.92795
5.76229
5.55751
5.28412
4.91633
6.20898
6.13529
6.03651
5.90823
5.74272
5.54228
5.29992
4.99752
6.15763
6.09046
6.0059
5.89484
5.74401
5.55511
5.33616
5.07793
6.11004
6.03898
5.96134
5.86912
5.7438
5.58103
5.38962
5.16563
6.08113
5.99964
5.91828
5.83354
5.731
5.59767
5.43933
5.25125
6.07423
5.98468
5.89391
5.80462
5.71172
5.60039
5.47023
5.31455
6.07894
5.98906
5.89278
5.79534
5.69998
5.59777
5.48535
5.35462
6.08508
5.99999
5.90494
5.80401
5.7034
5.59964
5.49364
5.37763
6.08704
6.00788
5.91915
5.8191
5.71612
5.60964
5.50331
5.39254
6.08091
6.00684
5.92523
5.83176
5.73095
5.62376
5.51569
5.40573
6.06981
5.99939
5.92229
5.83526
5.74002
5.63568
5.52809
5.41802
6.05617
5.98932
5.91659
5.83452
5.74386
5.64362
5.53817
5.42945
6.03909
5.98222
5.91563
5.83852
5.75032
5.65221
5.54826
5.44168
6.01929
5.97368
5.91727
5.84607
5.76237
5.66687
5.56463
5.45981
6.00211
5.96156
5.91283
5.85012
5.77405
5.68565
5.58713
5.48378
5.99387
5.94892
5.90009
5.84337
5.77657
5.69899
5.61051
5.51286
5.99621
5.93583
5.87855
5.82215
5.76432
5.70174
5.62947
5.54251
6.01098
5.93158
5.85783
5.79504
5.74028
5.6873
5.63034
5.55979
6.02068
5.92606
5.83893
5.77145
5.72539
5.68775
5.64404
5.58018
1.67608
0.852533
0.586501
0.604252
0.714409
0.966972
1.34566
1.70429
1.89537
2.05914
2.34441
2.62903
3.03692
3.2966
3.30831
3.3256
3.38357
3.46256
3.5036
3.48755
3.44348
3.39536
3.35805
3.33389
3.30682
3.27187
3.2399
3.21823
3.19834
3.15759
3.10831
3.05524
3.00594
2.95998
2.91549
2.87107
2.82549
2.7802
2.7381
2.69941
2.66341
2.62994
2.5993
2.56934
2.53881
2.50243
2.45754
2.40451
2.34703
2.28583
2.24077
2.24749
2.31953
2.54289
2.88977
3.12793
3.09906
3.05415
3.01975
2.99778
2.98106
2.96611
2.94625
2.91905
2.8943
2.87866
2.86562
2.85539
2.84725
2.83523
2.82017
2.80294
2.77558
2.73649
2.70724
2.68849
2.6721
2.65687
2.64435
2.6297
2.61387
2.59727
2.57933
2.55997
2.53943
2.51927
2.48654
2.44535
2.5379
1.79042
1.45221
1.24734
1.1989
1.2359
1.33905
1.49174
1.72433
1.99141
2.28846
2.58614
2.98709
3.31197
3.40335
3.43849
3.48355
3.53075
3.57502
3.56994
3.53635
3.47912
3.428
3.38759
3.35096
3.3084
3.26701
3.23052
3.19801
3.16791
3.13191
3.09072
3.04863
3.0049
2.959
2.91136
2.86399
2.81846
2.77331
2.72783
2.68315
2.64084
2.60249
2.56642
2.53087
2.49409
2.45396
2.40641
2.35038
2.29594
2.27132
2.30213
2.41277
2.59378
2.84756
3.06985
3.07656
3.0509
3.02471
3.00357
2.98527
2.96758
2.95
2.92988
2.91248
2.89701
2.88251
2.86849
2.85255
2.836
2.8182
2.79737
2.77069
2.73898
2.71381
2.6949
2.67809
2.66301
2.65053
2.63694
2.6211
2.60408
2.58543
2.56473
2.54124
2.51665
2.48783
2.46653
3.35958
2.60065
2.19455
1.89721
1.66649
1.57178
1.55465
1.61356
1.74441
1.97144
2.23214
2.55789
2.99029
3.44075
3.6333
3.71644
3.70447
3.70551
3.72098
3.73045
3.70998
3.67015
3.60686
3.54741
3.49731
3.44956
3.40152
3.34699
3.28897
3.24059
3.19908
3.16172
3.12529
3.0838
3.03899
2.98731
2.93602
2.89363
2.85436
2.81232
2.76348
2.70625
2.64692
2.5942
2.5498
2.50867
2.4654
2.41779
2.37321
2.33909
2.35006
2.42705
2.56006
2.65582
2.79344
2.99411
3.09804
3.09825
3.07711
3.05228
3.02692
2.9976
2.96864
2.95096
2.93895
2.92894
2.92082
2.9071
2.88677
2.86068
2.82991
2.79764
2.76852
2.74669
2.7274
2.70748
2.68911
2.6734
2.65963
2.64839
2.63508
2.61955
2.60265
2.58206
2.55475
2.52044
2.4901
2.49508
3.95317
3.32768
2.85506
2.56487
2.31498
2.09533
1.99394
1.94462
1.9472
1.98615
2.04978
2.25728
2.64198
3.17978
3.69419
3.9533
3.96975
3.91036
3.89852
3.91139
3.89847
3.85732
3.79124
3.72544
3.67241
3.62303
3.56841
3.50394
3.43262
3.36972
3.32171
3.27894
3.23549
3.1907
3.14059
3.08213
3.0259
2.9801
2.93867
2.89629
2.84695
2.78831
2.72662
2.66999
2.61846
2.56914
2.51724
2.4733
2.44447
2.44689
2.50919
2.63655
2.73838
2.75083
2.78581
2.9107
3.08772
3.14514
3.13508
3.10683
3.07657
3.04536
3.01736
2.99881
2.9848
2.97408
2.96224
2.94714
2.92669
2.89607
2.85733
2.82229
2.79844
2.78064
2.7631
2.74527
2.72659
2.70614
2.68582
2.66914
2.65336
2.63704
2.62093
2.60189
2.57578
2.54142
2.52549
2.54706
4.3098
3.85701
3.42642
3.09176
2.85155
2.63799
2.42163
2.3038
2.24439
2.17314
2.16978
2.18983
2.28104
2.63014
3.32535
3.89839
4.08246
4.07012
4.03662
4.0168
3.99381
3.95988
3.91884
3.87643
3.82796
3.77259
3.70585
3.6275
3.55284
3.49439
3.44366
3.39242
3.33897
3.28419
3.22719
3.17102
3.12183
3.07718
3.03119
2.97928
2.91709
2.85065
2.78974
2.73503
2.68145
2.62657
2.57569
2.54175
2.5425
2.59386
2.72154
2.85403
2.88256
2.85371
2.8277
2.87312
3.01213
3.1516
3.18661
3.17193
3.13738
3.10403
3.08189
3.0662
3.05195
3.03557
3.01605
2.99281
2.96198
2.92063
2.88061
2.85454
2.83515
2.81593
2.79795
2.78193
2.76556
2.74731
2.72587
2.70236
2.68037
2.66135
2.6422
2.61874
2.59021
2.57566
2.58236
2.62346
4.53782
4.17687
3.84283
3.52361
3.25342
3.05754
2.87137
2.69779
2.57736
2.4787
2.40947
2.34726
2.33758
2.37169
2.67373
3.37948
3.98718
4.1126
4.10283
4.07147
4.03852
4.01052
3.97857
3.93677
3.88838
3.83232
3.76719
3.70081
3.64217
3.58739
3.53123
3.47124
3.40573
3.33465
3.26902
3.21557
3.16989
3.12578
3.07793
3.02071
2.95826
2.89925
2.84715
2.79581
2.74163
2.68542
2.64399
2.6302
2.66941
2.78894
2.93713
3.00471
2.98949
2.94765
2.88902
2.87508
2.92786
3.0706
3.17463
3.21521
3.19875
3.16845
3.14425
3.12805
3.11065
3.08784
3.06038
3.02766
2.98791
2.94668
2.91745
2.89651
2.87657
2.85703
2.83838
2.82021
2.8014
2.78048
2.75572
2.72685
2.69904
2.6776
2.65571
2.62879
2.61433
2.62118
2.64689
2.69985
4.69084
4.39065
4.11656
3.84402
3.58449
3.36332
3.19994
3.0513
2.90747
2.76257
2.64414
2.55996
2.50157
2.46536
2.47037
2.69547
3.39746
3.99809
4.11966
4.07897
4.02502
3.98262
3.95718
3.92878
3.88393
3.83024
3.77544
3.72338
3.66883
3.61058
3.5493
3.48559
3.41741
3.34561
3.27882
3.22361
3.17617
3.12989
3.0814
3.02892
2.97972
2.93841
2.89653
2.84703
2.79681
2.75153
2.71681
2.73297
2.84478
2.99803
3.08608
3.08818
3.05961
3.0032
2.93017
2.87436
2.87868
2.95723
3.09217
3.19782
3.24038
3.22939
3.20452
3.17398
3.14261
3.11101
3.07818
3.04196
3.00183
2.96906
2.9466
2.92602
2.90673
2.88868
2.87012
2.85009
2.82843
2.80379
2.77414
2.74068
2.71058
2.68053
2.65328
2.63774
2.64485
2.67179
2.7238
2.76855
4.8104
4.54756
4.29344
4.07263
3.84146
3.62738
3.4401
3.3058
3.18323
3.05004
2.90482
2.78809
2.71479
2.645
2.56365
2.53493
2.73604
3.42378
4.01186
4.07975
4.0287
3.96948
3.92097
3.88512
3.84638
3.80388
3.76176
3.71443
3.66115
3.60309
3.54136
3.4766
3.41097
3.34687
3.28247
3.21866
3.15975
3.1091
3.06504
3.0297
3.00421
2.9772
2.93726
2.88587
2.83486
2.7853
2.78098
2.87547
3.04382
3.14674
3.15384
3.13006
3.08214
3.02206
2.95356
2.89372
2.88109
2.90008
2.98957
3.12243
3.23109
3.24802
3.23204
3.1968
3.15738
3.12267
3.08946
3.05197
3.01293
2.98714
2.96658
2.94654
2.92874
2.91128
2.89262
2.87215
2.84797
2.81913
2.78621
2.75131
2.71352
2.6758
2.65523
2.65813
2.68263
2.73233
2.8007
2.81752
4.92716
4.68448
4.45116
4.2296
4.03004
3.83973
3.66087
3.49992
3.37592
3.26704
3.15031
3.02784
2.90251
2.80993
2.7216
2.62797
2.61289
2.81305
3.44607
3.97424
4.04363
3.96943
3.89872
3.84629
3.80402
3.76951
3.73267
3.69032
3.64022
3.58098
3.51977
3.461
3.40366
3.34592
3.28176
3.21289
3.1501
3.09978
3.06288
3.03501
3.0053
2.96683
2.91889
2.87063
2.83327
2.81915
2.89361
3.06979
3.198
3.21289
3.18876
3.14138
3.08154
3.02569
2.97897
2.93466
2.90479
2.90688
2.9385
3.0287
3.17128
3.2403
3.23194
3.19982
3.16545
3.133
3.1011
3.06368
3.02602
3.00287
2.98315
2.96354
2.94614
2.92838
2.90914
2.8884
2.86198
2.82651
2.78808
2.7506
2.71082
2.67683
2.67243
2.69133
2.73653
2.79636
2.84704
2.84354
5.04412
4.82703
4.6071
4.38582
4.1915
4.01263
3.84402
3.6883
3.5449
3.42168
3.32588
3.22997
3.11756
2.98589
2.88808
2.79049
2.69428
2.67657
2.86726
3.46396
3.9332
3.96081
3.88629
3.82433
3.77612
3.74031
3.70236
3.65974
3.61089
3.55312
3.49421
3.44348
3.39635
3.34365
3.27893
3.20725
3.14767
3.10275
3.06508
3.02843
2.98392
2.93664
2.88777
2.85511
2.83351
2.90402
3.08517
3.24742
3.27222
3.24844
3.19769
3.13861
3.08261
3.0413
3.01595
2.99033
2.95666
2.93628
2.93275
2.9603
3.05998
3.17923
3.21306
3.19588
3.17309
3.14598
3.11499
3.07741
3.04066
3.01936
3.00162
2.9807
2.95943
2.94046
2.92048
2.89441
2.86036
2.82186
2.78494
2.75047
2.71492
2.69784
2.7081
2.74569
2.79635
2.84168
2.86324
2.8508
5.14046
4.95337
4.75723
4.55368
4.35387
4.17651
4.0079
3.84883
3.71002
3.57719
3.45464
3.36482
3.28115
3.17493
3.05136
2.93687
2.81979
2.72719
2.72292
2.91508
3.47418
3.86667
3.8525
3.80578
3.75999
3.71956
3.67337
3.6256
3.57618
3.52635
3.47927
3.43409
3.3869
3.33383
3.27149
3.20591
3.14952
3.10188
3.05879
3.00696
2.94877
2.89259
2.85464
2.83905
2.89995
3.09233
3.28874
3.33541
3.31318
3.26214
3.20039
3.14243
3.10289
3.07877
3.06312
3.04276
3.00977
2.97544
2.93801
2.9132
2.94328
3.04357
3.14046
3.18124
3.1779
3.16092
3.13086
3.09114
3.0573
3.0389
3.02272
3.00017
2.97184
2.94094
2.91041
2.87835
2.84328
2.8077
2.77837
2.75368
2.73825
2.74479
2.77832
2.82436
2.85383
2.86492
2.86502
2.84278
5.20857
5.0484
4.87667
4.69385
4.51096
4.33419
4.16458
3.99676
3.84595
3.72034
3.59774
3.479
3.38586
3.30626
3.20528
3.0877
2.9629
2.83439
2.75432
2.75598
2.93948
3.45576
3.75153
3.77623
3.75463
3.70443
3.65085
3.59415
3.54426
3.5042
3.46783
3.42623
3.37739
3.3207
3.25827
3.19771
3.14391
3.09647
3.0416
2.97469
2.90803
2.85105
2.83819
2.88247
3.06881
3.30124
3.40076
3.38829
3.34026
3.27084
3.20608
3.16677
3.14166
3.12306
3.10372
3.07846
3.04223
2.98933
2.93075
2.87765
2.87238
2.91706
3.02267
3.12956
3.18132
3.17505
3.14697
3.1024
3.07269
3.0552
3.03847
3.01453
2.98379
2.94905
2.90849
2.86044
2.81625
2.78546
2.76875
2.76166
2.77569
2.81054
2.86921
2.90252
2.90099
2.87828
2.85522
2.8241
5.25112
5.11357
4.96349
4.79919
4.63281
4.46843
4.30285
4.13723
3.97527
3.83691
3.72161
3.60526
3.49095
3.38842
3.30469
3.20952
3.0998
2.97714
2.84332
2.76305
2.76895
2.94657
3.39509
3.67471
3.73244
3.68872
3.62767
3.56791
3.52059
3.47937
3.43653
3.39078
3.34306
3.29228
3.23788
3.18305
3.13068
3.07413
3.0056
2.93277
2.87283
2.84447
2.87062
3.03648
3.28295
3.43758
3.45007
3.41804
3.35043
3.279
3.23286
3.2025
3.17623
3.15158
3.12482
3.09136
3.04528
2.9839
2.92009
2.87037
2.8559
2.86681
2.92213
3.0391
3.15529
3.17967
3.15908
3.11536
3.08559
3.0667
3.04837
3.02436
2.99393
2.95525
2.90454
2.84892
2.80049
2.77513
2.76628
2.7783
2.81801
2.87888
2.93389
2.94351
2.92924
2.88539
2.8466
2.81535
5.27682
5.15447
5.02153
4.87621
4.72577
4.57125
4.41351
4.25356
4.09626
3.95195
3.82522
3.70996
3.5968
3.48531
3.37515
3.28237
3.19467
3.09686
2.98081
2.84378
2.75429
2.75792
2.92877
3.32304
3.60992
3.65471
3.60755
3.54322
3.49032
3.44496
3.40086
3.35486
3.30762
3.26016
3.21223
3.16201
3.10593
3.03759
2.96218
2.89632
2.86029
2.87629
3.02193
3.27151
3.4513
3.4918
3.46908
3.4117
3.34515
3.29786
3.26261
3.22747
3.19335
3.15867
3.12177
3.08055
3.02847
2.9737
2.92182
2.88057
2.8567
2.85564
2.88404
2.95622
3.08495
3.16135
3.16073
3.1306
3.10014
3.07793
3.05551
3.03037
2.99783
2.95444
2.90075
2.8479
2.80266
2.78415
2.78441
2.81463
2.86828
2.93
2.95958
2.95617
2.93369
2.89255
2.8506
2.81686
5.294
5.18042
5.06003
4.93039
4.79604
4.65268
4.50038
4.34847
4.19669
4.05512
3.92791
3.8026
3.68026
3.56711
3.45922
3.35515
3.25967
3.17188
3.08
2.96421
2.82589
2.73723
2.73713
2.88727
3.24648
3.55091
3.56284
3.51334
3.45311
3.40392
3.3585
3.31518
3.27209
3.22702
3.18046
3.1279
3.0629
2.98856
2.91948
2.87856
2.88716
3.00778
3.27212
3.47468
3.51622
3.49305
3.44739
3.38747
3.34404
3.31264
3.27828
3.24073
3.19751
3.15033
3.10177
3.0533
3.01123
2.97171
2.93841
2.91213
2.88566
2.87141
2.87829
2.90224
2.9812
3.08029
3.13869
3.1354
3.11817
3.09543
3.06415
3.02767
2.98901
2.94389
2.89605
2.85606
2.8239
2.81552
2.82852
2.87187
2.9237
2.95465
2.96037
2.95418
2.93094
2.89971
2.86424
2.82244
5.30801
5.19848
5.08567
4.96758
4.84729
4.71611
4.57168
4.42613
4.28369
4.14206
4.01291
3.89044
3.76099
3.63313
3.52504
3.42731
3.33052
3.2332
3.13438
3.03621
2.92055
2.79553
2.71557
2.71189
2.83984
3.19072
3.45143
3.45299
3.41664
3.36485
3.31676
3.27528
3.2341
3.19135
3.14331
3.08037
3.00651
2.93564
2.89458
2.8975
2.99393
3.25057
3.49783
3.55428
3.52493
3.46917
3.41123
3.37331
3.34372
3.31426
3.28211
3.24582
3.1964
3.13684
3.08263
3.03941
3.00508
2.98328
2.97092
2.95943
2.93448
2.90882
2.88393
2.85664
2.87713
2.95249
3.05322
3.1184
3.12501
3.11267
3.07571
3.02137
2.96701
2.92696
2.89454
2.87481
2.86365
2.87544
2.90806
2.95124
2.97332
2.95937
2.94396
2.93972
2.92522
2.9033
2.87893
2.83374
5.32075
5.21304
5.10413
4.99318
4.88211
4.76154
4.62645
4.49129
4.35728
4.22026
4.08465
3.95791
3.83166
3.70333
3.58308
3.47925
3.38347
3.28752
3.1905
3.08838
2.9798
2.86507
2.75787
2.69298
2.67862
2.79341
3.1158
3.30351
3.34862
3.32745
3.28151
3.23655
3.19216
3.14695
3.08925
3.01755
2.94409
2.90308
2.90359
2.97803
3.21607
3.4871
3.58122
3.56994
3.51166
3.43956
3.39627
3.36585
3.34174
3.3167
3.28567
3.24617
3.19494
3.13574
3.08078
3.04198
3.0205
3.01149
3.01277
3.00046
2.97227
2.92846
2.86955
2.81486
2.80734
2.84236
2.93179
3.05452
3.1072
3.10651
3.07773
3.0095
2.94949
2.91866
2.90007
2.89905
2.91708
2.96206
3.0172
3.03843
3.01427
2.96923
2.94634
2.92937
2.91806
2.90113
2.88457
2.84516
5.33461
5.22772
5.12003
5.0124
4.9053
4.78991
4.6643
4.54101
4.41945
4.28591
4.14788
4.01574
3.88858
3.76268
3.6418
3.53008
3.42268
3.32017
3.22355
3.13002
3.03493
2.93137
2.81666
2.71313
2.65547
2.63472
2.73933
2.99964
3.19282
3.27122
3.25049
3.20198
3.14737
3.0905
3.02106
2.94759
2.90317
2.90422
2.96185
3.18332
3.46612
3.58991
3.59106
3.54979
3.48181
3.42917
3.39474
3.36609
3.34077
3.31265
3.27914
3.23825
3.19161
3.14342
3.10513
3.07895
3.06156
3.0503
3.0342
3.0063
2.96731
2.91566
2.85472
2.80448
2.78018
2.78182
2.82663
2.93301
3.04438
3.07212
3.05337
2.99331
2.94299
2.92159
2.91593
2.9324
2.97846
3.05771
3.10241
3.10019
3.06611
3.00259
2.95734
2.93488
2.91448
2.89595
2.88061
2.84912
5.3542
5.24763
5.13888
5.03007
4.92111
4.80645
4.68931
4.57616
4.46488
4.33911
4.20137
4.06696
3.93987
3.81544
3.69291
3.57429
3.46044
3.35141
3.24749
3.15191
3.06579
2.97991
2.88321
2.76914
2.66186
2.60175
2.57885
2.6743
2.89755
3.12815
3.19928
3.16784
3.09996
3.02712
2.94799
2.89898
2.89943
2.94234
3.14294
3.45363
3.6049
3.60221
3.56111
3.51231
3.47145
3.4388
3.40937
3.37862
3.3463
3.30859
3.26816
3.22746
3.1927
3.16881
3.1535
3.13423
3.10601
3.06686
3.0238
2.98421
2.94048
2.89407
2.84819
2.80564
2.77626
2.76132
2.76653
2.81195
2.91156
2.98744
2.99707
2.97648
2.95721
2.93854
2.94208
2.97017
3.04096
3.12009
3.13453
3.12066
3.09026
3.04776
2.99376
2.94514
2.91747
2.89359
2.87629
2.84818
5.37922
5.27336
5.16342
5.05017
4.93403
4.81716
4.70507
4.59666
4.49117
4.37524
4.2453
4.11373
3.9865
3.86226
3.73813
3.61299
3.49
3.37548
3.27162
3.17651
3.08768
3.00402
2.92019
2.82347
2.7101
2.60806
2.54488
2.52845
2.61171
2.82579
3.06489
3.09449
3.04468
2.96288
2.89396
2.89055
2.92407
3.09799
3.4202
3.62326
3.6343
3.58675
3.53646
3.50062
3.47511
3.4569
3.43113
3.39713
3.34924
3.29889
3.25899
3.2308
3.21407
3.20869
3.19031
3.16193
3.12162
3.06625
3.00241
2.94743
2.90921
2.87943
2.84851
2.8201
2.79233
2.76567
2.73504
2.73011
2.77573
2.85964
2.93261
2.9646
2.97081
2.96614
2.98039
3.02688
3.10077
3.14439
3.14055
3.12821
3.10538
3.07483
3.03238
2.97379
2.92192
2.89343
2.87574
2.84818
5.40963
5.30142
5.18754
5.06895
4.94608
4.82743
4.71679
4.60931
4.50413
4.39721
4.2756
4.15096
4.02685
3.90248
3.77613
3.64668
3.51746
3.39735
3.29131
3.19644
3.10805
3.0229
2.9373
2.84717
2.74874
2.64312
2.55464
2.49936
2.47875
2.54461
2.75715
2.91989
2.95713
2.90329
2.88348
2.90887
3.06117
3.376
3.61937
3.64681
3.6179
3.57208
3.53731
3.51463
3.50264
3.48281
3.45229
3.40435
3.34661
3.29864
3.26712
3.24393
3.23119
3.21679
3.19186
3.16158
3.11935
3.05445
2.98541
2.93802
2.90412
2.87803
2.85645
2.83442
2.80871
2.77701
2.73223
2.69921
2.70567
2.75761
2.84618
2.93818
2.96736
2.98868
3.03319
3.10273
3.14499
3.14804
3.14097
3.12568
3.10179
3.07242
3.0351
2.99119
2.94412
2.90253
2.87775
2.85013
5.44212
5.33078
5.21096
5.08502
4.95793
4.83851
4.72704
4.61853
4.51232
4.41336
4.30259
4.18328
4.06095
3.93584
3.80653
3.67354
3.54138
3.41884
3.31009
3.21202
3.12002
3.0315
2.94593
2.86207
2.7755
2.68044
2.58421
2.49916
2.44062
2.41134
2.45577
2.61892
2.79796
2.83086
2.88855
3.04365
3.3253
3.58677
3.67137
3.64746
3.61249
3.5863
3.56873
3.55186
3.52709
3.495
3.44755
3.39323
3.34576
3.31402
3.28573
3.255
3.22092
3.19279
3.16707
3.13616
3.09271
3.03882
2.98849
2.94496
2.91185
2.88939
2.87275
2.85492
2.82723
2.78749
2.74098
2.69999
2.68429
2.70021
2.76168
2.86399
2.947
3.0091
3.09354
3.1667
3.17957
3.1581
3.13274
3.10821
3.08332
3.05712
3.02651
2.99412
2.96367
2.92957
2.89392
2.85132
5.46709
5.3543
5.22886
5.09757
4.9681
4.84432
4.72434
4.61199
4.51195
4.42355
4.32013
4.20127
4.08095
3.95686
3.82699
3.69393
3.56258
3.4389
3.3258
3.22247
3.12623
3.03523
2.94863
2.8672
2.78898
2.71016
2.62178
2.52575
2.43163
2.35944
2.308
2.36692
2.54488
2.74528
2.98261
3.29563
3.57003
3.63905
3.64915
3.63324
3.61745
3.61482
3.60688
3.58254
3.54197
3.4858
3.42792
3.38502
3.35465
3.32939
3.30146
3.26862
3.22789
3.17975
3.13158
3.08739
3.05123
3.02259
2.99545
2.96993
2.94451
2.9173
2.88793
2.85569
2.82377
2.78685
2.75282
2.72425
2.69915
2.68186
2.70381
2.78189
2.89704
3.01465
3.13809
3.19679
3.19092
3.16771
3.13112
3.08948
3.05995
3.03433
3.00973
2.98778
2.96721
2.94522
2.91726
2.85965
5.48738
5.37061
5.24099
5.10818
4.97779
4.85252
4.73742
4.63013
4.53136
4.44211
4.33651
4.21775
4.09723
3.971
3.84061
3.70949
3.58033
3.45477
3.33595
3.22705
3.12735
3.0348
2.94783
2.86794
2.79384
2.7236
2.64625
2.55217
2.4447
2.33589
2.25278
2.25322
2.33548
2.6404
3.07009
3.47549
3.76022
3.71564
3.64525
3.62455
3.62725
3.63594
3.61915
3.59191
3.54372
3.46855
3.41521
3.38529
3.36168
3.33649
3.30563
3.27051
3.22296
3.15474
3.09048
3.05166
3.02674
3.00959
3.00625
2.99502
2.9724
2.93804
2.88771
2.84528
2.8182
2.79697
2.77352
2.74735
2.70954
2.67403
2.65288
2.69668
2.82569
2.99602
3.15344
3.22232
3.21223
3.18197
3.13012
3.06917
3.03494
3.0146
2.99692
2.984
2.97591
2.95669
2.93178
2.86475
)
;

boundaryField
{
    inlet
    {
        type            calculated;
        value           uniform 1.40001;
    }
    outlet
    {
        type            calculated;
        value           nonuniform List<scalar> 
24
(
2.4471
2.46748
2.49501
2.54658
2.6229
2.6993
2.76821
2.81733
2.84342
2.85077
2.84272
2.82378
2.81482
2.81629
2.82221
2.83383
2.84497
2.84833
2.847
2.84703
2.84916
2.85103
2.8609
2.86689
)
;
    }
    bottom
    {
        type            calculated;
        value           nonuniform List<scalar> 
24
(
37.8348
9.76809
7.046
7.06065
7.0599
7.05941
7.05977
7.06091
7.06226
7.06426
7.06765
7.07227
7.07832
7.08685
7.09976
7.11672
7.13684
7.15829
7.17292
7.17577
7.12948
7.0294
6.91341
6.86197
)
;
    }
    top
    {
        type            calculated;
        value           nonuniform List<scalar> 
120
(
35.0899
9.06395
6.53305
6.51782
6.49577
6.47127
6.44526
6.42522
6.41518
6.41423
6.4198
6.42519
6.41504
6.37797
6.32806
6.27688
6.23645
6.21845
6.2198
6.22656
6.23061
6.21968
6.17912
6.10907
6.02068
5.92606
5.83893
5.77145
5.72539
5.68775
5.64404
5.58018
5.48738
5.37061
5.24099
5.10818
4.97779
4.85252
4.73742
4.63013
4.53136
4.44211
4.33651
4.21775
4.09723
3.971
3.84061
3.70949
3.58033
3.45477
3.33595
3.22705
3.12735
3.0348
2.94783
2.86794
2.79384
2.7236
2.64625
2.55217
2.4447
2.33589
2.25278
2.25322
2.33548
2.6404
3.07009
3.47549
3.76022
3.71564
3.64525
3.62455
3.62725
3.63594
3.61915
3.59191
3.54372
3.46855
3.41521
3.38529
3.36168
3.33649
3.30563
3.27051
3.22296
3.15474
3.09048
3.05166
3.02674
3.00959
3.00625
2.99502
2.9724
2.93804
2.88771
2.84528
2.8182
2.79697
2.77352
2.74735
2.70954
2.67403
2.65288
2.69668
2.82569
2.99602
3.15344
3.22232
3.21223
3.18197
3.13012
3.06917
3.03494
3.0146
2.99692
2.984
2.97591
2.95669
2.93178
2.86475
)
;
    }
    obstacle
    {
        type            calculated;
        value           nonuniform List<scalar> 
112
(
6.86197
6.85686
6.85231
6.83621
6.81394
6.76289
6.69344
6.69018
5.2908
5.64245
5.68354
5.63422
5.53933
5.4854
5.46982
5.466
5.466
5.46491
5.4717
5.49678
5.5278
5.56642
5.54424
5.50683
1.67608
0.852533
0.586501
0.604252
0.714409
0.966972
1.34566
1.70429
1.89537
2.05914
2.34441
2.62903
3.03692
3.2966
3.30831
3.3256
3.38357
3.46256
3.5036
3.48755
3.44348
3.39536
3.35805
3.33389
3.30682
3.27187
3.2399
3.21823
3.19834
3.15759
3.10831
3.05524
3.00594
2.95998
2.91549
2.87107
2.82549
2.7802
2.7381
2.69941
2.66341
2.62994
2.5993
2.56934
2.53881
2.50243
2.45754
2.40451
2.34703
2.28583
2.24077
2.24749
2.31953
2.54289
2.88977
3.12793
3.09906
3.05415
3.01975
2.99778
2.98106
2.96611
2.94625
2.91905
2.8943
2.87866
2.86562
2.85539
2.84725
2.83523
2.82017
2.80294
2.77558
2.73649
2.70724
2.68849
2.6721
2.65687
2.64435
2.6297
2.61387
2.59727
2.57933
2.55997
2.53943
2.51927
2.48654
2.44535
)
;
    }
    defaultFaces
    {
        type            empty;
    }
}


// ************************************************************************* //
