/*--------------------------------*- C++ -*----------------------------------*\
  =========                 |
  \\      /  F ield         | OpenFOAM: The Open Source CFD Toolbox
   \\    /   O peration     | Website:  https://openfoam.org
    \\  /    A nd           | Version:  7
     \\/     M anipulation  |
\*---------------------------------------------------------------------------*/
FoamFile
{
    version     2.0;
    format      ascii;
    class       volScalarField;
    location    "2.1";
    object      rho;
}
// * * * * * * * * * * * * * * * * * * * * * * * * * * * * * * * * * * * * * //

dimensions      [1 -3 0 0 0 0 0];

internalField   nonuniform List<scalar> 
16192
(
2.40583
2.37372
2.32204
2.25153
2.16991
2.07844
1.97745
1.86708
1.77045
1.7611
1.78624
1.76813
1.77843
1.83281
1.9194
2.04142
2.15787
2.28601
2.39226
2.47485
2.52416
2.40446
2.3712
2.31857
2.24711
2.16468
2.07311
1.97311
1.86538
1.77074
1.75657
1.77788
1.75959
1.76707
1.81781
1.89824
2.01514
2.13831
2.26617
2.372
2.45393
2.50385
2.40302
2.36855
2.31455
2.24127
2.15678
2.06375
1.96379
1.85883
1.76826
1.7476
1.76332
1.74685
1.75597
1.80519
1.88273
1.99469
2.11142
2.2346
2.33869
2.41996
2.47086
2.39814
2.36183
2.30652
2.23123
2.14381
2.04853
1.94909
1.84711
1.76052
1.7305
1.73519
1.71774
1.72553
1.77344
1.84808
1.9584
2.07367
2.19426
2.29697
2.37799
2.42928
2.39458
2.35541
2.2981
2.21957
2.12842
2.03011
1.93121
1.83288
1.75161
1.7128
1.70803
1.6919
1.69976
1.74391
1.81495
1.91823
2.03113
2.15127
2.2544
2.3356
2.38662
2.38759
2.3441
2.28408
2.20351
2.1097
2.00912
1.91055
1.81478
1.73832
1.69164
1.67684
1.66053
1.66797
1.70871
1.77648
1.87407
1.98585
2.10638
2.21055
2.2915
2.34243
2.38163
2.33262
2.26896
2.18707
2.09208
1.99031
1.89378
1.80157
1.72975
1.67859
1.65608
1.63797
1.64319
1.6777
1.73881
1.8311
1.93888
2.05687
2.1623
2.24316
2.29316
2.37377
2.31811
2.25156
2.1677
2.07233
1.97136
1.87771
1.78892
1.72029
1.66493
1.63687
1.61602
1.61854
1.64747
1.70271
1.78856
1.89206
2.00609
2.11097
2.19205
2.24061
2.36823
2.30534
2.23524
2.15028
2.05516
1.95648
1.86587
1.77953
1.71354
1.6561
1.62527
1.60225
1.60237
1.62473
1.67223
1.7482
1.84577
1.95474
2.05924
2.1404
2.18716
2.36303
2.29293
2.21755
2.1313
2.03806
1.94169
1.85396
1.77009
1.70567
1.64773
1.61539
1.59027
1.58929
1.60786
1.64877
1.71571
1.80649
1.90821
2.00998
2.09005
2.13452
2.36131
2.28456
2.2031
2.11578
2.0245
1.93073
1.84545
1.76549
1.70333
1.64589
1.61287
1.58689
1.58409
1.59845
1.63189
1.68821
1.77168
1.86656
1.96673
2.04494
2.08732
2.35856
2.27769
2.19082
2.10024
2.00978
1.91956
1.83748
1.76047
1.70004
1.64434
1.61115
1.5841
1.57956
1.5921
1.62272
1.67367
1.75167
1.83791
1.93309
2.00587
2.04618
2.36022
2.2756
2.18403
2.09158
2.00015
1.91199
1.83209
1.75764
1.69799
1.64387
1.61088
1.58422
1.57883
1.59026
1.61907
1.6638
1.73635
1.8177
1.91092
1.97891
2.01993
2.36483
2.27472
2.17894
2.08588
1.99301
1.90517
1.82645
1.75527
1.69637
1.64435
1.61139
1.58588
1.5812
1.59331
1.62348
1.66722
1.73706
1.81251
1.90036
1.96055
2.00348
2.37404
2.2822
2.18091
2.0855
1.99209
1.90357
1.82406
1.75458
1.69656
1.64794
1.61473
1.59121
1.58842
1.60351
1.63654
1.6806
1.74924
1.82226
1.9061
1.96178
2.01063
2.4053
2.29574
2.1881
2.08708
1.99344
1.90608
1.82571
1.75615
1.69795
1.65204
1.61951
1.5996
1.59864
1.6172
1.65315
1.69901
1.76756
1.84057
1.92368
1.97531
2.02671
2.4393
2.31275
2.20437
2.09506
2.00019
1.91214
1.83195
1.76218
1.70257
1.65896
1.62722
1.6113
1.61289
1.63795
1.67877
1.72795
1.79757
1.86977
1.94923
1.99655
2.04944
2.52731
2.36984
2.23531
2.11288
2.0107
1.91764
1.83893
1.76998
1.71051
1.66767
1.63657
1.62389
1.62901
1.66077
1.70611
1.75938
1.83036
1.90279
1.98338
2.02831
2.08115
2.62455
2.43028
2.26843
2.13861
2.03113
1.9312
1.85216
1.78124
1.72201
1.67928
1.64946
1.63975
1.64876
1.68787
1.73941
1.79856
1.87214
1.94478
2.02422
2.0654
2.11991
2.7326
2.535
2.35187
2.19535
2.06852
1.95572
1.86962
1.79357
1.73395
1.69026
1.66224
1.65534
1.66939
1.71504
1.77373
1.83773
1.91355
1.98566
2.06712
2.10876
2.16671
2.83174
2.64514
2.44289
2.25761
2.1109
1.98942
1.8958
1.81414
1.75305
1.70613
1.67735
1.67123
1.6909
1.74354
1.80885
1.8793
1.95957
2.03204
2.11482
2.1556
2.21903
2.90646
2.74432
2.55141
2.36058
2.19536
2.05383
1.94138
1.84884
1.77972
1.72672
1.69423
1.68684
1.71111
1.77003
1.84309
1.92095
2.00449
2.07559
2.16144
2.20495
2.27833
2.96293
2.82368
2.6534
2.46815
2.28793
2.12631
1.99413
1.8915
1.8142
1.75532
1.71906
1.70775
1.73394
1.7955
1.87531
1.96099
2.04997
2.12093
2.21046
2.2583
2.34205
3.00462
2.8866
2.73526
2.56905
2.39625
2.22875
2.08263
1.96435
1.87185
1.80036
1.75591
1.73592
1.76044
1.82237
1.9049
1.99797
2.0939
2.1649
2.26013
2.31244
2.41441
3.02963
2.92896
2.80336
2.65503
2.49453
2.33599
2.18202
2.04631
1.93643
1.85416
1.80122
1.77082
1.79391
1.85454
1.93786
2.03559
2.13671
2.21165
2.31241
2.37008
2.49213
3.04522
2.95451
2.84544
2.72145
2.57753
2.43333
2.28493
2.14724
2.02765
1.9351
1.86873
1.82377
1.84067
1.89624
1.97598
2.07736
2.1801
2.2589
2.36611
2.43134
2.58037
3.05881
2.97387
2.87402
2.76542
2.63822
2.5113
2.37789
2.24723
2.12019
2.02169
1.94369
1.88279
1.89369
1.94239
2.02127
2.12638
2.2303
2.3125
2.42675
2.49714
2.67579
3.06991
2.98879
2.89801
2.79849
2.68313
2.56928
2.45436
2.33813
2.20983
2.11173
2.02902
1.96022
1.96054
2.00094
2.07658
2.18909
2.28938
2.37613
2.49063
2.56847
2.78217
3.07971
3.00144
2.9155
2.82745
2.72086
2.61061
2.50695
2.41184
2.29221
2.19219
2.10741
2.03975
2.02283
2.05825
2.13572
2.25386
2.35841
2.45859
2.56657
2.64965
2.88726
3.08973
3.01312
2.92953
2.84787
2.75097
2.6461
2.54347
2.45951
2.35594
2.25781
2.17742
2.11103
2.08049
2.10947
2.18883
2.32846
2.43853
2.55321
2.65652
2.74949
2.99804
3.10021
3.02455
2.94243
2.86329
2.77512
2.67446
2.578
2.49611
2.40674
2.30623
2.22715
2.17091
2.13001
2.14609
2.22903
2.37949
2.52461
2.6634
2.76084
2.88136
3.06561
3.111
3.03617
2.95493
2.87617
2.79438
2.70041
2.60049
2.52458
2.4465
2.35017
2.26315
2.2129
2.16396
2.17343
2.23898
2.42369
2.58073
2.75929
2.87954
2.99253
3.11513
3.12204
3.04801
2.9676
2.88897
2.81008
2.72234
2.62372
2.5452
2.47676
2.38939
2.29728
2.2435
2.1875
2.19456
2.23863
2.40851
2.63147
2.83935
3.00873
3.06236
2.80325
3.1323
3.05962
2.98081
2.90186
2.82501
2.7425
2.6484
2.56393
2.50119
2.42504
2.33025
2.26916
2.21599
2.20574
2.23275
2.3726
2.62006
2.87991
3.11459
3.14102
2.91127
3.14219
3.07076
2.99421
2.91524
2.83958
2.76096
2.67173
2.58404
2.51862
2.45278
2.36356
2.29142
2.24087
2.21471
2.2281
2.33361
2.57638
2.90969
3.19251
3.22259
3.01745
3.15239
3.08152
3.00727
2.92913
2.85344
2.77836
2.69442
2.60572
2.53486
2.47556
2.39643
2.31348
2.26294
2.22578
2.2281
2.29532
2.50736
2.89335
3.23411
3.29806
3.13023
3.16357
3.09306
3.02043
2.94369
2.86731
2.7939
2.71524
2.6277
2.55127
2.4912
2.42325
2.33812
2.27756
2.23689
2.22879
2.26626
2.43968
2.84117
3.26004
3.36733
3.2202
3.17565
3.10545
3.03385
2.95867
2.88189
2.8081
2.73359
2.64977
2.56856
2.50432
2.44435
2.36498
2.29285
2.2512
2.23206
2.25029
2.37623
2.75415
3.27626
3.40983
3.27944
3.18803
3.11826
3.04765
2.97416
2.89746
2.82228
2.74989
2.67092
2.58777
2.51722
2.45995
2.39076
2.31311
2.25797
2.23564
2.24153
2.32132
2.65561
3.27353
3.43366
3.31154
3.20069
3.13135
3.06141
2.98953
2.91384
2.8376
2.76508
2.69059
2.60957
2.53306
2.47321
2.41453
2.33836
2.27211
2.24118
2.23758
2.28219
2.5542
3.23918
3.44548
3.33493
3.21314
3.14418
3.0748
3.00442
2.93018
2.8541
2.78077
2.7086
2.63148
2.55323
2.48701
2.43342
2.36515
2.29228
2.24504
2.23512
2.25842
2.45572
3.17261
3.44973
3.34662
3.22525
3.15677
3.08784
3.01851
2.9462
2.87117
2.79677
2.72618
2.65371
2.57602
2.5037
2.45018
2.39131
2.31611
2.25592
2.23683
2.24577
2.37199
3.07448
3.44706
3.34674
3.23713
3.16895
3.10058
3.03186
2.96107
2.88796
2.81426
2.74271
2.67332
2.59917
2.52489
2.46436
2.41125
2.34246
2.27225
2.23849
2.24088
2.31168
2.95291
3.43804
3.34304
3.24896
3.181
3.11314
3.04495
2.97536
2.90408
2.83107
2.75909
2.69164
2.62099
2.54597
2.48055
2.42786
2.36748
2.2936
2.24485
2.23887
2.27465
2.81411
3.42308
3.3386
3.26096
3.19318
3.12581
3.05808
2.98899
2.91927
2.84796
2.77597
2.7079
2.64015
2.56809
2.49947
2.44243
2.38823
2.32007
2.25635
2.23803
2.25389
2.6689
3.3981
3.33607
3.27339
3.20582
3.13868
3.07153
3.00293
2.93401
2.86384
2.7925
2.72439
2.6573
2.58817
2.51894
2.45878
2.40472
2.34394
2.27639
2.24017
2.24565
2.53249
3.35234
3.33314
3.28606
3.21891
3.15197
3.0853
3.01707
2.94866
2.87947
2.80921
2.74085
2.67388
2.60712
2.54028
2.47674
2.42106
2.3662
2.3002
2.24746
2.24302
2.41933
3.27725
3.32668
3.29885
3.23231
3.16552
3.09926
3.03162
2.96375
2.89474
2.82586
2.75816
2.69151
2.62435
2.56011
2.49778
2.43836
2.38405
2.3241
2.26102
2.2414
2.33845
3.1628
3.32085
3.31162
3.24581
3.17926
3.11344
3.04612
2.97907
2.91052
2.84249
2.77524
2.70957
2.64286
2.57955
2.51748
2.45785
2.40176
2.34431
2.28028
2.24423
2.29069
3.02105
3.31114
3.32453
3.25932
3.19311
3.12749
3.06079
2.9944
2.92651
2.85907
2.7928
2.72829
2.66121
2.59846
2.53764
2.4775
2.41963
2.36297
2.30082
2.2506
2.26756
2.86591
3.29075
3.33765
3.27286
3.20703
3.14159
3.07515
3.0095
2.94286
2.87589
2.80946
2.74633
2.68106
2.61661
2.55552
2.49732
2.43833
2.38177
2.32132
2.26034
2.26185
2.7092
3.25904
3.35122
3.28666
3.2212
3.15579
3.08982
3.02442
2.95872
2.89269
2.82672
2.76318
2.69946
2.63547
2.57311
2.51509
2.45674
2.4012
2.34208
2.2765
2.26272
2.56339
3.20995
3.36503
3.30063
3.23559
3.17016
3.10444
3.03932
2.97467
2.90893
2.84341
2.77966
2.71739
2.65304
2.59036
2.53217
2.47544
2.42021
2.36317
2.29655
2.26554
2.44447
3.15525
3.379
3.31495
3.2502
3.18501
3.1197
3.05449
2.99034
2.92525
2.86063
2.79561
2.73404
2.67107
2.60869
2.54805
2.49367
2.43896
2.38467
2.31832
2.27101
2.36343
3.06393
3.3928
3.32929
3.26488
3.20015
3.1352
3.07016
3.00654
2.94127
2.8773
2.81265
2.75032
2.68781
2.62695
2.56563
2.51117
2.45708
2.40465
2.34108
2.28054
2.32045
2.92753
3.40644
3.34366
3.2797
3.21563
3.15125
3.08643
3.02307
2.95784
2.89447
2.8301
2.76668
2.70512
2.64626
2.58355
2.52841
2.47524
2.42476
2.36296
2.2936
2.30286
2.76233
3.4198
3.35771
3.29442
3.23118
3.16728
3.10289
3.04022
2.97483
2.911
2.84855
2.78454
2.72184
2.66462
2.60393
2.54565
2.49189
2.44322
2.38501
2.31053
2.30281
2.6072
3.43314
3.37175
3.30911
3.24673
3.18338
3.1194
3.05722
2.9924
2.92817
2.86678
2.80274
2.74015
2.68247
2.62427
2.56334
2.50927
2.46084
2.40732
2.33076
2.30486
2.4887
3.44638
3.38546
3.32352
3.26192
3.19901
3.13552
3.07397
3.00998
2.94507
2.8849
2.82192
2.75899
2.69945
2.64418
2.58351
2.52627
2.47687
2.42877
2.35539
2.31015
2.40926
3.4599
3.39928
3.33787
3.27682
3.21453
3.15153
3.09013
3.02747
2.9627
2.9024
2.8403
2.77887
2.71738
2.6618
2.60351
2.54529
2.49214
2.44823
2.38101
2.32026
2.36544
3.47332
3.41286
3.35191
3.29117
3.2295
3.16721
3.10593
3.04431
2.98012
2.91971
2.85826
2.79813
2.73571
2.67866
2.62293
2.56636
2.50746
2.46575
2.40559
2.33483
2.34565
3.48714
3.42678
3.3661
3.30555
3.24445
3.18299
3.12164
3.06093
2.99785
2.93717
2.87549
2.8167
2.75582
2.69561
2.64013
2.58733
2.52659
2.48056
2.428
2.35317
2.34448
3.50073
3.44065
3.38017
3.31978
3.25924
3.19851
3.13732
3.07711
3.0151
2.95443
2.89336
2.83405
2.77512
2.71424
2.65742
2.60552
2.5475
2.49516
2.44795
2.37504
2.34527
3.51463
3.455
3.39484
3.33455
3.27441
3.21431
3.15311
3.0934
3.03246
2.97199
2.91107
2.85198
2.79401
2.73398
2.67526
2.62301
2.56849
2.51306
2.46438
2.39967
2.35021
3.52818
3.4693
3.40962
3.34956
3.28969
3.22988
3.16896
3.10937
3.04945
2.98928
2.92921
2.86998
2.81242
2.75321
2.69511
2.6402
2.58735
2.53283
2.48332
2.42078
2.36572
3.5418
3.4838
3.42482
3.36516
3.30538
3.24578
3.18506
3.12553
3.06652
3.00688
2.94689
2.88819
2.83129
2.77227
2.71427
2.6595
2.60569
2.55197
2.50489
2.4409
2.39037
3.5549
3.49795
3.43974
3.38074
3.32106
3.26167
3.20123
3.14173
3.08318
3.02421
2.96474
2.90589
2.84939
2.79163
2.73277
2.67879
2.62495
2.5711
2.52469
2.46822
2.41092
3.56776
3.51177
3.45443
3.39622
3.33689
3.27767
3.21783
3.15815
3.10005
3.04128
2.98229
2.92342
2.86693
2.81037
2.75187
2.69694
2.64446
2.59229
2.54393
2.49434
2.43867
3.5801
3.52496
3.46843
3.41115
3.35242
3.29363
3.23447
3.1749
3.11672
3.05821
2.99962
2.9409
2.88384
2.82785
2.77118
2.71555
2.66324
2.61309
2.5672
2.51833
2.46447
3.59211
3.5376
3.48189
3.42551
3.36765
3.30944
3.25104
3.1919
3.13364
3.07499
3.01682
2.95822
2.90092
2.84508
2.78969
2.73533
2.68353
2.63398
2.58992
2.54453
2.49194
3.60388
3.54987
3.49487
3.43931
3.38244
3.32502
3.26732
3.20884
3.15061
3.09174
3.03385
2.97583
2.91821
2.8629
2.80871
2.75576
2.70557
2.65669
2.61252
2.56785
2.51619
3.61532
3.56179
3.5075
3.45268
3.3968
3.34017
3.28319
3.22535
3.16751
3.1086
3.05083
2.99351
2.93641
2.88178
2.82933
2.77791
2.72881
2.67991
2.6356
2.58833
2.53805
3.62674
3.57375
3.52012
3.46596
3.41088
3.35502
3.29863
3.24147
3.18404
3.1256
3.06827
3.01203
2.95597
2.90281
2.85149
2.80212
2.75283
2.70313
2.65564
2.60711
2.55612
3.63779
3.58548
3.53259
3.47907
3.42473
3.3694
3.31353
3.25697
3.20019
3.14259
3.08654
3.03166
2.97731
2.92606
2.87564
2.82627
2.77572
2.72485
2.67326
2.62404
2.56972
3.64877
3.59728
3.54516
3.49224
3.43843
3.38355
3.32803
3.27213
3.21609
3.16013
3.1061
3.05323
3.00088
2.95062
2.90001
2.84914
2.79727
2.74348
2.68945
2.63829
2.58351
3.6594
3.60873
3.55742
3.5051
3.45174
3.3972
3.34207
3.28708
3.2325
3.17858
3.12713
3.07645
3.02547
2.97486
2.92325
2.8691
2.81593
2.75981
2.70407
2.65064
2.59813
3.66997
3.62003
3.56946
3.5176
3.46461
3.41049
3.35626
3.30263
3.25023
3.19897
3.15
3.1003
3.04933
2.99701
2.94303
2.88695
2.83079
2.77368
2.7164
2.66264
2.6127
3.68049
3.63093
3.58087
3.52944
3.47689
3.42367
3.37096
3.31984
3.27009
3.22122
3.17323
3.12283
3.07033
3.01572
2.95913
2.90061
2.84305
2.78649
2.72975
2.67542
2.62627
3.69105
3.64157
3.5917
3.54067
3.48904
3.43762
3.38775
3.3396
3.29219
3.24458
3.19514
3.14261
3.08733
3.02978
2.97158
2.91291
2.85518
2.79896
2.74356
2.69024
2.64128
3.70166
3.65183
3.60199
3.55171
3.50195
3.45356
3.40712
3.36156
3.31493
3.26607
3.21344
3.15738
3.09975
3.04102
2.98232
2.92415
2.8671
2.81286
2.75914
2.70748
2.65894
3.71214
3.662
3.61255
3.56385
3.51714
3.47257
3.42913
3.38414
3.33545
3.28289
3.22671
3.16825
3.10949
3.05042
2.99225
2.93569
2.88089
2.82819
2.77638
2.72601
2.67936
3.72244
3.67251
3.62444
3.57861
3.53574
3.49426
3.45092
3.40338
3.35096
3.29447
3.2357
3.17641
3.11795
3.05982
3.00311
2.9484
2.89587
2.84516
2.79599
2.74602
2.69987
3.73309
3.68479
3.63972
3.59764
3.55739
3.5156
3.46935
3.41748
3.36118
3.30242
3.24276
3.18378
3.12659
3.07034
3.01563
2.96351
2.913
2.86344
2.81523
2.76664
2.72024
3.74534
3.70035
3.65894
3.61912
3.57835
3.53266
3.48122
3.42568
3.36761
3.30827
3.24906
3.19158
3.13674
3.08302
3.03106
2.98081
2.93166
2.88245
2.83463
2.78629
2.73961
3.76149
3.72043
3.68111
3.64013
3.5945
3.54314
3.48771
3.4302
3.37205
3.3138
3.25647
3.20156
3.14938
3.09842
3.04885
3.00012
2.95142
2.90124
2.85298
2.80499
2.75869
3.78204
3.74289
3.70114
3.65466
3.6033
3.54784
3.4906
3.43311
3.37636
3.32038
3.26609
3.21458
3.16513
3.11606
3.0681
3.01969
2.97071
2.91981
2.87092
2.82319
2.77714
3.80499
3.76318
3.71546
3.66258
3.60687
3.54998
3.49291
3.43662
3.38196
3.32925
3.27916
3.23115
3.18326
3.13461
3.08668
3.03821
2.98882
2.93812
2.8887
2.84141
2.79536
3.82415
3.77514
3.72133
3.66503
3.60832
3.5518
3.49612
3.44235
3.39104
3.34189
3.29526
3.24947
3.20183
3.15254
3.10399
3.05534
3.00586
2.95622
2.90733
2.86053
2.81366
3.83519
3.77954
3.72261
3.6655
3.60917
3.55456
3.50232
3.45255
3.40456
3.35766
3.3127
3.26726
3.21921
3.16925
3.12026
3.07151
3.02258
2.97405
2.92616
2.87931
2.83261
3.83802
3.77962
3.72239
3.66596
3.61187
3.56085
3.51282
3.46682
3.42088
3.3744
3.32897
3.28299
3.23477
3.18512
3.13631
3.08764
3.03895
2.99132
2.94472
2.8978
2.85054
3.83788
3.77924
3.72269
3.66865
3.61829
3.5713
3.52683
3.48268
3.43679
3.38965
3.34346
3.29703
3.24929
3.20068
3.15236
3.1036
3.05491
3.00792
2.96187
2.91525
2.86809
3.83838
3.78142
3.72751
3.67738
3.63057
3.58563
3.54152
3.49687
3.4505
3.40328
3.35702
3.3108
3.26374
3.21629
3.16837
3.11939
3.07033
3.02348
2.97802
2.93191
2.8852
3.8414
3.7889
3.73937
3.69206
3.64568
3.59953
3.55401
3.50881
3.46273
3.41639
3.37073
3.32473
3.27808
3.23143
3.18358
3.13435
3.08521
3.03859
2.9933
2.94784
2.90216
3.85139
3.80332
3.75588
3.7084
3.66034
3.61216
3.56559
3.52057
3.47557
3.43056
3.3854
3.33908
3.29216
3.24554
3.19784
3.14893
3.10018
3.05379
3.00878
2.96398
2.91924
1.49555
1.09466
0.907837
0.905632
0.951539
0.995802
1.04305
1.09166
1.11045
1.11335
1.11157
1.10193
1.08892
1.07587
1.06928
1.065
1.06362
1.06052
1.05719
1.05569
1.05394
1.04935
1.04516
1.04351
1.04332
1.04477
1.05039
1.05897
1.06191
1.06214
1.0613
1.05867
1.05954
1.06281
1.06771
1.07463
1.08283
1.09312
1.09932
1.10055
1.10056
1.09864
1.09427
1.08998
1.08692
1.08447
1.08204
1.07927
1.0775
1.07724
1.07681
1.07576
1.07395
1.07107
1.06692
1.06149
1.05582
1.05219
1.05085
1.05029
1.05024
1.05007
1.04945
1.04825
1.04533
1.04049
1.03514
1.03111
1.02942
1.02939
1.03045
1.03368
1.03753
1.03925
1.03956
1.03947
1.03794
1.03205
1.02374
1.01897
1.0173
1.01698
1.01746
1.01884
1.02008
1.02069
1.02091
1.02064
1.02075
1.02175
1.02345
1.02581
1.02861
1.03189
1.03596
1.04092
1.0462
1.05098
1.05513
1.05925
1.06424
1.07064
1.07784
1.08462
1.09054
1.09609
1.10193
1.10879
1.11624
1.12209
1.12451
1.12416
1.12267
1.12036
1.11789
1.11681
1.1167
1.11893
1.12785
1.14329
1.15303
1.15332
1.15209
1.14994
1.14702
1.14483
1.14338
1.14212
1.14164
1.14428
1.1467
1.14532
1.14283
1.13842
1.13177
1.1274
1.12602
1.12541
1.12557
1.12842
1.13203
1.13352
1.13361
1.13266
1.1303
1.12459
1.11462
1.1046
1.09844
1.09414
1.09057
1.08775
1.08597
1.08496
1.08436
1.08397
1.08372
1.08297
1.07912
1.07145
1.06083
1.05035
1.04148
1.0336
1.02801
1.02633
1.02639
1.02733
1.02764
1.02597
1.02048
1.01273
1.0062
1.00135
0.997984
0.996935
0.997258
0.998761
0.999792
0.999282
0.99433
0.984983
0.979696
0.979817
0.98104
0.983056
0.987028
0.993856
1.0014
1.00538
1.00697
1.0072
1.00447
1.00325
1.00394
1.00523
1.00812
1.01233
1.01549
1.01782
1.02027
1.02353
1.02806
1.03495
1.04135
1.04191
1.04069
1.03789
1.03257
1.02696
1.02462
1.02417
1.02517
1.03265
1.04865
1.06014
1.06112
1.05955
1.05523
1.04939
1.04572
1.04415
1.04343
1.04332
1.04601
1.05434
1.0646
1.06866
1.06878
1.0672
1.97659
1.58255
1.32946
1.18771
1.13881
1.09044
1.08007
1.0869
1.093
1.10001
1.10446
1.10217
1.0928
1.08377
1.07991
1.07758
1.07642
1.07282
1.07018
1.0696
1.0687
1.06472
1.06166
1.05991
1.05799
1.05722
1.05921
1.06331
1.06536
1.06678
1.06775
1.06937
1.07274
1.0774
1.08283
1.08914
1.09362
1.097
1.09948
1.10053
1.10078
1.1006
1.0998
1.09939
1.09871
1.09716
1.09488
1.09131
1.08638
1.08252
1.08064
1.07947
1.07808
1.07625
1.07399
1.07134
1.06792
1.06346
1.05831
1.05341
1.05066
1.05011
1.05049
1.05032
1.04916
1.04763
1.0462
1.04461
1.04263
1.0408
1.03979
1.0394
1.03907
1.03879
1.03835
1.0374
1.03496
1.03114
1.02876
1.02793
1.02654
1.02445
1.02231
1.02074
1.02034
1.02118
1.02285
1.02461
1.02662
1.02923
1.03149
1.03281
1.03394
1.03564
1.0382
1.04228
1.04779
1.05342
1.05901
1.0652
1.07181
1.07778
1.08256
1.08651
1.09041
1.09479
1.09943
1.10371
1.10819
1.11449
1.12342
1.12958
1.1307
1.13015
1.12815
1.12552
1.1241
1.12414
1.12851
1.1399
1.15088
1.15391
1.15334
1.15202
1.14947
1.14604
1.14398
1.14295
1.14241
1.14411
1.14809
1.14826
1.14685
1.14459
1.1407
1.13628
1.13326
1.13142
1.13059
1.13113
1.13288
1.13264
1.13131
1.12934
1.12589
1.12078
1.11486
1.1104
1.10712
1.10376
1.09977
1.09542
1.09149
1.08848
1.08636
1.08473
1.08237
1.0781
1.07375
1.06917
1.06354
1.05803
1.05167
1.04371
1.03528
1.0294
1.02724
1.02672
1.02628
1.02502
1.02187
1.0178
1.01327
1.00797
1.00257
0.998981
0.997523
0.996534
0.99578
0.99571
0.99452
0.991408
0.987747
0.985226
0.985232
0.986652
0.989626
0.994817
0.999556
1.00211
1.00422
1.00609
1.00771
1.00912
1.01012
1.011
1.01237
1.01426
1.01591
1.01725
1.01876
1.02069
1.02429
1.03072
1.03776
1.04082
1.04058
1.03955
1.03788
1.03511
1.0316
1.02967
1.02949
1.03383
1.04516
1.05557
1.05803
1.05736
1.05568
1.0532
1.05092
1.04922
1.04795
1.04743
1.04848
1.05372
1.06094
1.06527
1.06617
1.06626
2.28837
1.87635
1.60087
1.36976
1.24682
1.18622
1.11881
1.09959
1.11063
1.12472
1.13956
1.13907
1.13273
1.13059
1.13226
1.13306
1.12974
1.12347
1.11453
1.10459
1.09647
1.08985
1.08723
1.08696
1.0879
1.09121
1.09499
1.09605
1.09656
1.09514
1.09304
1.09421
1.09711
1.10208
1.11042
1.11803
1.12156
1.12347
1.12407
1.12306
1.12152
1.12128
1.12189
1.12287
1.12367
1.12361
1.1227
1.12004
1.11471
1.10726
1.09971
1.09444
1.0917
1.09012
1.08932
1.0892
1.08871
1.08729
1.08502
1.08116
1.07553
1.06929
1.06404
1.0608
1.05955
1.05952
1.06017
1.06099
1.06193
1.06298
1.06384
1.06366
1.06204
1.05879
1.05338
1.04565
1.03854
1.03623
1.03651
1.03879
1.04173
1.04243
1.04175
1.03969
1.03588
1.03118
1.02947
1.03045
1.03351
1.03884
1.04455
1.04809
1.05024
1.05193
1.05319
1.05518
1.05768
1.06051
1.06515
1.07349
1.08419
1.0929
1.09837
1.10198
1.10495
1.10752
1.10861
1.10858
1.10893
1.11315
1.12401
1.13482
1.13953
1.14106
1.14145
1.14125
1.14088
1.14098
1.14298
1.14859
1.15659
1.16061
1.16086
1.16042
1.15883
1.15575
1.153
1.15151
1.15039
1.15024
1.15294
1.15371
1.15274
1.15142
1.14939
1.14792
1.14728
1.14695
1.14659
1.14555
1.14371
1.14069
1.13643
1.13129
1.12517
1.11876
1.11562
1.11506
1.1145
1.11378
1.1127
1.11101
1.10866
1.10534
1.10042
1.0934
1.08506
1.07771
1.07192
1.06773
1.06602
1.06477
1.06317
1.06004
1.05415
1.04591
1.03757
1.03093
1.02659
1.02502
1.02511
1.02465
1.02391
1.02241
1.018
1.01001
1.0018
0.997211
0.995056
0.993072
0.992702
0.993978
0.994859
0.995318
0.995636
0.996908
0.998245
0.9991
0.99994
1.00095
1.00172
1.00305
1.00652
1.01174
1.01697
1.02139
1.02405
1.0247
1.02412
1.02249
1.02162
1.02144
1.02277
1.02772
1.03526
1.04022
1.0414
1.04173
1.04224
1.04267
1.04263
1.04251
1.04302
1.04534
1.05035
1.05711
1.06084
1.06067
1.05988
1.05891
1.05856
1.05832
1.05826
1.05868
1.06028
1.06337
1.06656
1.06749
1.06746
1.06805
2.53826
2.14928
1.87149
1.62567
1.44593
1.36036
1.26828
1.18269
1.16914
1.15134
1.1429
1.14117
1.14556
1.15528
1.16703
1.17705
1.17517
1.1684
1.15588
1.14401
1.13621
1.13012
1.12761
1.12751
1.12871
1.1316
1.13414
1.1357
1.13677
1.1358
1.13414
1.13478
1.13613
1.13942
1.14694
1.15297
1.15601
1.15846
1.15975
1.15959
1.15927
1.15994
1.1602
1.15983
1.15898
1.15799
1.15658
1.15437
1.15062
1.14498
1.13901
1.13473
1.13189
1.12956
1.12707
1.12409
1.12104
1.11858
1.11635
1.11354
1.10946
1.10479
1.10117
1.0988
1.09683
1.09495
1.09322
1.09153
1.09008
1.0894
1.08905
1.08851
1.08739
1.08534
1.08187
1.07689
1.07237
1.06986
1.06844
1.06775
1.06719
1.06662
1.06617
1.06535
1.06347
1.06077
1.05882
1.05841
1.05929
1.06159
1.06507
1.06882
1.0714
1.07406
1.0776
1.08136
1.08436
1.08668
1.08977
1.09566
1.10386
1.11039
1.11475
1.11837
1.12186
1.12491
1.1269
1.12823
1.13007
1.13487
1.14417
1.15325
1.15769
1.15943
1.16032
1.16091
1.16139
1.16196
1.1635
1.16778
1.17366
1.17601
1.17612
1.1756
1.17366
1.17147
1.17057
1.16992
1.16957
1.1714
1.17484
1.17486
1.17329
1.1703
1.16627
1.16384
1.16316
1.16283
1.16245
1.16152
1.15994
1.15762
1.15419
1.14923
1.14334
1.13888
1.13669
1.13479
1.13261
1.13048
1.12875
1.12741
1.12607
1.12403
1.12005
1.11283
1.1035
1.09546
1.09013
1.08689
1.08463
1.08241
1.08011
1.07713
1.07219
1.06496
1.05738
1.05105
1.04638
1.04339
1.0414
1.04026
1.03963
1.03848
1.03478
1.02697
1.01787
1.01109
1.00655
1.00369
1.00267
1.00283
1.00362
1.00466
1.00626
1.00847
1.0108
1.01196
1.01213
1.01041
1.00875
1.00935
1.01152
1.01596
1.02213
1.02803
1.03187
1.03387
1.03493
1.03544
1.03561
1.03595
1.03753
1.0413
1.04645
1.05022
1.05181
1.05208
1.05199
1.05219
1.05321
1.055
1.05723
1.05987
1.06376
1.07002
1.07506
1.07558
1.07476
1.07313
1.07201
1.07147
1.07116
1.07143
1.07331
1.07779
1.08313
1.08482
1.08468
1.08436
2.73659
2.38696
2.09963
1.85517
1.65311
1.52261
1.40722
1.28918
1.23241
1.19644
1.15684
1.15343
1.16131
1.16884
1.17974
1.19822
1.20267
1.20061
1.19328
1.19097
1.18744
1.17853
1.17118
1.16756
1.16677
1.16842
1.16985
1.17065
1.16976
1.16952
1.17113
1.17343
1.17701
1.18272
1.18663
1.18872
1.19122
1.19237
1.19156
1.19229
1.19492
1.19786
1.20118
1.20268
1.20278
1.20257
1.20112
1.19685
1.19016
1.18299
1.17775
1.17537
1.17392
1.17275
1.1714
1.16936
1.16656
1.16303
1.15786
1.15054
1.14421
1.14162
1.14075
1.14033
1.14001
1.13936
1.13858
1.13735
1.13507
1.1313
1.12628
1.12138
1.11728
1.11384
1.11123
1.11008
1.10985
1.1104
1.11137
1.11093
1.10951
1.10744
1.10432
1.10029
1.09712
1.09615
1.09628
1.09727
1.09971
1.10207
1.10338
1.10418
1.10433
1.10479
1.10709
1.11009
1.11361
1.11797
1.12416
1.13271
1.13954
1.14242
1.14388
1.14484
1.14563
1.14661
1.14813
1.15067
1.15534
1.16363
1.17407
1.18153
1.1851
1.18721
1.18885
1.18973
1.18988
1.18999
1.19153
1.19613
1.19936
1.19943
1.19877
1.19633
1.1928
1.191
1.19058
1.19036
1.19135
1.19627
1.20145
1.20207
1.20144
1.19935
1.19508
1.19035
1.1872
1.18481
1.18235
1.1797
1.17704
1.17455
1.17201
1.16928
1.16774
1.16751
1.16731
1.16644
1.16476
1.16233
1.15918
1.15534
1.15085
1.1455
1.13878
1.13129
1.12574
1.12325
1.12217
1.12125
1.11996
1.1177
1.11364
1.10695
1.09704
1.08549
1.07704
1.07382
1.07331
1.07335
1.0733
1.07263
1.07061
1.06555
1.05571
1.04387
1.03586
1.03288
1.0321
1.03235
1.03281
1.03214
1.02946
1.02459
1.02163
1.02174
1.02307
1.02495
1.02659
1.02789
1.02929
1.03134
1.03402
1.03704
1.03973
1.04128
1.04221
1.04339
1.04509
1.04726
1.04982
1.05305
1.05714
1.06143
1.06489
1.06782
1.07078
1.07316
1.07404
1.07394
1.07386
1.07425
1.07527
1.07722
1.08121
1.08823
1.09487
1.0968
1.09677
1.09622
1.09504
1.09355
1.09243
1.0919
1.09211
1.09552
1.10197
1.10598
1.10758
1.10871
2.88544
2.57747
2.31011
2.0606
1.85198
1.70138
1.57013
1.44001
1.35964
1.30612
1.24818
1.20649
1.20124
1.19109
1.18536
1.19099
1.1969
1.19623
1.19577
1.20035
1.20908
1.2104
1.2117
1.21275
1.20931
1.20594
1.20196
1.19536
1.18989
1.18953
1.19058
1.19393
1.20109
1.21059
1.2161
1.21812
1.22017
1.22176
1.22087
1.21931
1.22098
1.2241
1.22835
1.23204
1.23383
1.23434
1.23389
1.23026
1.22465
1.21992
1.2157
1.21337
1.21226
1.21116
1.20981
1.20811
1.20576
1.20171
1.1948
1.18703
1.18277
1.18124
1.18023
1.17947
1.17907
1.1789
1.17812
1.17658
1.17341
1.16762
1.16122
1.15652
1.15323
1.15071
1.14906
1.14841
1.14883
1.15011
1.15024
1.14929
1.14762
1.14497
1.14132
1.13749
1.13526
1.13491
1.13521
1.13688
1.13917
1.1405
1.14116
1.14142
1.14137
1.1427
1.14471
1.14697
1.14988
1.15425
1.16122
1.1697
1.17466
1.17622
1.17729
1.17823
1.17882
1.17945
1.18036
1.1821
1.18645
1.19474
1.20323
1.20774
1.21006
1.21207
1.21404
1.21533
1.21589
1.21665
1.21959
1.22419
1.22526
1.22478
1.22267
1.21888
1.21616
1.2154
1.21513
1.21507
1.21686
1.22224
1.22646
1.22704
1.22683
1.22515
1.22052
1.21507
1.21199
1.21011
1.2082
1.20605
1.20367
1.20104
1.19849
1.19676
1.19616
1.19594
1.19577
1.19555
1.19509
1.19428
1.19273
1.18946
1.18355
1.17498
1.16572
1.15966
1.15769
1.157
1.15642
1.15589
1.15531
1.15409
1.15074
1.14373
1.13353
1.1228
1.11491
1.11108
1.10992
1.10998
1.11063
1.11097
1.10964
1.10232
1.08823
1.07522
1.06884
1.06664
1.06597
1.06656
1.06785
1.06787
1.06571
1.05946
1.05377
1.05084
1.04911
1.04843
1.0486
1.05044
1.05375
1.05773
1.06195
1.06574
1.06802
1.06865
1.06857
1.06857
1.06943
1.07182
1.0755
1.07939
1.08242
1.08402
1.08509
1.08698
1.09035
1.09434
1.09724
1.09862
1.09929
1.10006
1.10153
1.10407
1.10813
1.11378
1.11833
1.1195
1.1195
1.11896
1.11793
1.11734
1.11719
1.11715
1.11825
1.12281
1.12857
1.13117
1.13217
1.13323
2.99615
2.72374
2.4749
2.24078
2.0323
1.87249
1.73426
1.58667
1.49593
1.42289
1.34918
1.2736
1.25276
1.22754
1.2018
1.19
1.19197
1.19182
1.19264
1.19974
1.2131
1.22156
1.22819
1.23838
1.24011
1.23813
1.23115
1.2184
1.20676
1.2048
1.20495
1.20694
1.21339
1.22334
1.22872
1.2304
1.2319
1.236
1.23912
1.24022
1.2416
1.24524
1.24864
1.25138
1.25331
1.25432
1.25404
1.25056
1.24774
1.24619
1.24437
1.2431
1.24229
1.24125
1.23984
1.23777
1.23408
1.22706
1.21903
1.21539
1.21419
1.21316
1.21228
1.21172
1.21165
1.21096
1.2091
1.20495
1.1977
1.18995
1.18506
1.18269
1.18134
1.18057
1.18067
1.18202
1.18349
1.18335
1.18181
1.17891
1.1753
1.17202
1.16952
1.16847
1.16843
1.16973
1.17282
1.17522
1.17615
1.1767
1.1769
1.17637
1.17691
1.17801
1.17932
1.18153
1.1847
1.18935
1.1958
1.20163
1.20485
1.20615
1.20672
1.20772
1.2091
1.21052
1.21201
1.21435
1.21886
1.22473
1.22848
1.23008
1.23119
1.23232
1.23362
1.2351
1.23695
1.24021
1.24528
1.24823
1.24837
1.24728
1.24296
1.23714
1.23418
1.23331
1.23305
1.23377
1.2381
1.24502
1.2491
1.25002
1.24981
1.24684
1.23965
1.2335
1.23073
1.22908
1.22761
1.2263
1.22512
1.22388
1.22274
1.22236
1.22259
1.22307
1.22328
1.22293
1.22208
1.22096
1.21872
1.21403
1.2066
1.19795
1.19196
1.19021
1.19019
1.19149
1.19256
1.19272
1.1915
1.18806
1.18179
1.17352
1.16568
1.15981
1.15629
1.15437
1.15304
1.15199
1.15101
1.14918
1.14377
1.13308
1.12244
1.1177
1.11578
1.11381
1.11157
1.10949
1.10775
1.10545
1.10016
1.09332
1.09035
1.08925
1.08841
1.08776
1.0874
1.08752
1.08847
1.09002
1.09176
1.09358
1.09541
1.097
1.09841
1.10006
1.10273
1.10652
1.10983
1.1112
1.11113
1.11067
1.11067
1.11196
1.11521
1.11942
1.12249
1.12402
1.12494
1.12618
1.12857
1.13225
1.13668
1.14076
1.14253
1.14269
1.1427
1.14225
1.14112
1.14019
1.13993
1.14001
1.14213
1.14814
1.15362
1.15602
1.15742
1.15844
3.07696
2.84193
2.60699
2.3947
2.19252
2.0296
1.88587
1.73883
1.62994
1.54994
1.46459
1.37916
1.33953
1.29838
1.25265
1.22223
1.21788
1.20298
1.19644
1.19903
1.20988
1.22177
1.23151
1.24083
1.24528
1.2445
1.2421
1.23762
1.23164
1.22853
1.22786
1.22775
1.22874
1.23068
1.23158
1.2307
1.23015
1.23422
1.24114
1.24891
1.25837
1.26796
1.27062
1.27104
1.27045
1.26789
1.26348
1.25924
1.25865
1.25891
1.2595
1.2612
1.26305
1.26307
1.26199
1.25927
1.25306
1.24388
1.23932
1.23823
1.23732
1.23619
1.23479
1.23356
1.23245
1.23055
1.22609
1.21861
1.21171
1.20772
1.20568
1.20437
1.20369
1.20393
1.20522
1.20595
1.2051
1.20263
1.19834
1.19391
1.19143
1.19028
1.19
1.19069
1.19371
1.19844
1.20219
1.20401
1.20469
1.20495
1.20415
1.20338
1.20364
1.20393
1.20489
1.2072
1.21079
1.21617
1.22299
1.22897
1.23276
1.23468
1.23504
1.23464
1.23543
1.2367
1.238
1.24006
1.24335
1.24542
1.2458
1.24588
1.24645
1.24743
1.24867
1.25078
1.25483
1.26029
1.26395
1.26464
1.26441
1.26242
1.25664
1.24976
1.24712