/*--------------------------------*- C++ -*----------------------------------*\
  =========                 |
  \\      /  F ield         | OpenFOAM: The Open Source CFD Toolbox
   \\    /   O peration     | Website:  https://openfoam.org
    \\  /    A nd           | Version:  7
     \\/     M anipulation  |
\*---------------------------------------------------------------------------*/
FoamFile
{
    version     2.0;
    format      ascii;
    class       volScalarField;
    location    "3.4";
    object      T;
}
// * * * * * * * * * * * * * * * * * * * * * * * * * * * * * * * * * * * * * //

dimensions      [0 0 0 1 0 0 0];

internalField   nonuniform List<scalar> 
16512
(
1.135
1.24049
1.33232
1.35326
1.34518
1.33337
1.34085
1.36927
1.41523
1.45112
1.46054
1.44744
1.42081
1.41982
1.44332
1.49579
1.52258
1.52083
1.51094
1.50711
1.506
1.50611
1.51357
1.54034
1.57394
1.58919
1.58756
1.57612
1.56265
1.56038
1.56824
1.58357
1.59723
1.60724
1.61068
1.6082
1.60482
1.60325
1.60386
1.60595
1.60614
1.60838
1.61493
1.617
1.61725
1.61697
1.61546
1.61237
1.61231
1.61848
1.62482
1.62646
1.62699
1.6256
1.62515
1.62622
1.62834
1.63389
1.64187
1.6443
1.64428
1.64297
1.63889
1.63642
1.63655
1.63695
1.63897
1.64259
1.64399
1.64312
1.6417
1.64023
1.63917
1.63904
1.63914
1.63948
1.64033
1.64113
1.64103
1.6387
1.63471
1.63173
1.63026
1.63002
1.63081
1.6337
1.63606
1.63665
1.63692
1.63707
1.63732
1.63784
1.63833
1.63868
1.63865
1.63811
1.63755
1.63752
1.63798
1.63966
1.64238
1.64496
1.64584
1.64563
1.64273
2.38261
2.68587
2.6916
2.70121
2.7121
2.72467
2.73906
2.7531
2.7633
2.7672
2.76699
2.76564
2.76434
2.7649
2.76828
2.77484
2.78174
2.78615
2.78773
2.78807
2.78797
2.78804
2.78922
2.79201
2.7953
2.79788
2.79942
2.80021
2.80069
2.80115
2.80185
2.80317
2.8053
2.80786
2.80995
2.81092
2.8108
2.80999
2.80912
2.80865
2.80879
2.80972
2.81114
2.81251
2.81365
2.8145
2.81504
2.81558
2.81629
2.81668
2.81673
2.81657
2.81605
2.81601
2.81693
2.81855
2.82021
2.82123
2.82185
2.82331
2.82701
2.83481
2.84765
2.86468
2.88373
2.90204
2.91718
2.92792
2.93453
2.93776
2.93842
1.00221
1.05178
1.09812
1.12846
1.14088
1.15207
1.17073
1.2054
1.24558
1.28151
1.31373
1.33853
1.35453
1.36711
1.38735
1.41999
1.4526
1.45593
1.45661
1.46252
1.46602
1.4652
1.46925
1.49039
1.52047
1.53665
1.53762
1.53433
1.52814
1.52831
1.53542
1.55005
1.56186
1.56881
1.57256
1.57161
1.57144
1.57329
1.57862
1.5838
1.58614
1.58857
1.59313
1.59437
1.59427
1.59355
1.59103
1.58879
1.58902
1.59358
1.60118
1.6062
1.60885
1.61062
1.61223
1.61318
1.61409
1.61691
1.62188
1.6244
1.62581
1.62647
1.6257
1.62585
1.62591
1.62582
1.62643
1.6276
1.62775
1.62663
1.62611
1.62637
1.62717
1.62871
1.62995
1.6307
1.63086
1.63048
1.6287
1.62577
1.6232
1.62164
1.6212
1.62133
1.62256
1.62511
1.62655
1.62694
1.62687
1.62681
1.62752
1.62867
1.62985
1.63096
1.6314
1.63129
1.631
1.63105
1.63137
1.63226
1.6342
1.6362
1.63679
1.63669
1.63486
2.34879
2.67822
2.69025
2.70101
2.71145
2.72319
2.73695
2.751
2.7616
2.7658
2.76544
2.76399
2.76287
2.76368
2.76718
2.77359
2.78034
2.78508
2.78727
2.78793
2.78804
2.78839
2.78978
2.79254
2.79568
2.79811
2.79958
2.80035
2.80082
2.80134
2.80214
2.80348
2.80555
2.80804
2.81007
2.81104
2.811
2.81031
2.80953
2.80906
2.80905
2.8097
2.81097
2.81242
2.81372
2.8147
2.8153
2.81574
2.81623
2.81653
2.81668
2.81675
2.8165
2.81643
2.81702
2.8182
2.81971
2.82091
2.82187
2.82369
2.82758
2.8351
2.84735
2.86392
2.88289
2.90154
2.91722
2.92831
2.93476
2.93768
2.93834
0.903567
0.922369
0.935264
0.953216
0.961558
0.961054
0.968113
0.997727
1.04349
1.08984
1.13553
1.17446
1.21654
1.25627
1.28172
1.30255
1.32595
1.34794
1.36604
1.38803
1.40291
1.40416
1.40731
1.42191
1.44321
1.46243
1.47317
1.47421
1.47118
1.46897
1.47145
1.4812
1.49107
1.4988
1.50531
1.50617
1.50772
1.51203
1.52034
1.52824
1.53327
1.53864
1.54372
1.54465
1.54462
1.54399
1.54494
1.547
1.55084
1.55766
1.56285
1.56522
1.56678
1.5672
1.56821
1.57046
1.57297
1.57744
1.58327
1.58725
1.59016
1.59239
1.59374
1.59359
1.59301
1.59179
1.59172
1.59222
1.59148
1.59025
1.59031
1.59121
1.59323
1.59606
1.599
1.60146
1.60236
1.60192
1.59989
1.59688
1.59493
1.59389
1.59372
1.59444
1.59742
1.60075
1.6022
1.60284
1.60286
1.60259
1.60329
1.60497
1.60691
1.60849
1.60872
1.60856
1.60846
1.60863
1.60946
1.61125
1.6138
1.61585
1.6161
1.61542
1.61288
2.2642
2.65792
2.6798
2.6925
2.70311
2.71395
2.72675
2.74093
2.75313
2.75947
2.75984
2.7582
2.75646
2.75674
2.75978
2.76626
2.77402
2.77992
2.7829
2.78379
2.78413
2.78491
2.78689
2.79011
2.79367
2.79653
2.79824
2.79906
2.79954
2.80013
2.80113
2.80278
2.80498
2.8073
2.80913
2.81006
2.81015
2.8098
2.80942
2.80925
2.8093
2.80963
2.81031
2.8114
2.81276
2.81411
2.81522
2.81593
2.81619
2.81619
2.81618
2.8163
2.81653
2.81684
2.81728
2.81799
2.81905
2.82023
2.82157
2.82384
2.82803
2.83531
2.84675
2.86252
2.88127
2.90046
2.91709
2.92881
2.93507
2.93721
2.93761
0.911421
0.911908
0.909436
0.908326
0.910086
0.918628
0.935678
0.946271
0.95616
0.972693
1.00247
1.03556
1.07244
1.11867
1.15898
1.18669
1.21281
1.24211
1.26754
1.29008
1.31111
1.32282
1.33288
1.34901
1.3657
1.38088
1.39583
1.40934
1.40955
1.40812
1.41046
1.41859
1.42862
1.43984
1.45
1.45274
1.45476
1.45767
1.4629
1.46928
1.4741
1.47902
1.48493
1.48735
1.48833
1.4895
1.49247
1.49693
1.50316
1.51081
1.51599
1.51857
1.51915
1.51815
1.51787
1.52019
1.5249
1.52999
1.53416
1.53794
1.54076
1.54312
1.54498
1.54546
1.54575
1.54606
1.54684
1.54803
1.54852
1.54863
1.54902
1.54953
1.55041
1.55284
1.55601
1.55947
1.56095
1.5609
1.56053
1.55947
1.55887
1.55858
1.55855
1.55966
1.5631
1.56625
1.56779
1.56892
1.56912
1.56883
1.56908
1.57059
1.57262
1.57453
1.57482
1.57471
1.57465
1.57482
1.57559
1.57722
1.57957
1.5821
1.58377
1.5839
1.58241
2.13525
2.61729
2.65679
2.67085
2.68244
2.69302
2.70485
2.71843
2.73187
2.74158
2.74545
2.7451
2.74344
2.74287
2.74464
2.75031
2.7591
2.76774
2.77351
2.77624
2.77743
2.7786
2.78061
2.78373
2.78754
2.79124
2.79406
2.79582
2.79691
2.79787
2.79919
2.80111
2.80345
2.80573
2.80757
2.80869
2.8091
2.80914
2.80916
2.80924
2.80934
2.80947
2.80976
2.81049
2.81177
2.81337
2.81496
2.81589
2.81609
2.816
2.81586
2.81599
2.81643
2.81695
2.81745
2.81797
2.81866
2.81969
2.82119
2.82376
2.82806
2.83512
2.84601
2.86116
2.87964
2.89911
2.91645
2.9287
2.93492
2.93671
2.93721
0.994168
0.990847
0.97674
0.961804
0.959524
0.962841
0.969135
0.972567
0.978187
0.985062
0.983864
0.978064
0.975821
0.981007
0.997225
1.02074
1.05156
1.0976
1.14916
1.18981
1.2235
1.25556
1.27884
1.29824
1.31613
1.32696
1.33715
1.35277
1.36192
1.36407
1.36913
1.37857
1.3903
1.40394
1.41703
1.42475
1.42734
1.42956
1.42988
1.43148
1.43498
1.43863
1.44539
1.45364
1.45812
1.46232
1.46697
1.47089
1.47387
1.47625
1.47839
1.48068
1.48297
1.48437
1.48767
1.4936
1.49952
1.50322
1.50424
1.50425
1.50367
1.50329
1.50393
1.50623
1.51007
1.51413
1.51627
1.51712
1.51701
1.51676
1.51601
1.51529
1.51576
1.51829
1.5226
1.5271
1.52895
1.5295
1.52984
1.52972
1.52899
1.52891
1.52928
1.53043
1.53313
1.53555
1.53692
1.53765
1.53747
1.53697
1.53737
1.53897
1.54145
1.54462
1.5467
1.54739
1.54754
1.54746
1.54723
1.54725
1.54756
1.54834
1.54941
1.55024
1.55016
1.97567
2.55679
2.63025
2.64142
2.65097
2.65957
2.67026
2.68321
2.6973
2.70989
2.71835
2.72195
2.72207
2.72148
2.72185
2.72518
2.73263
2.74249
2.75196
2.75927
2.76379
2.76644
2.76854
2.77102
2.7744
2.7787
2.78332
2.78733
2.79028
2.79243
2.79442
2.79671
2.79937
2.80216
2.80462
2.80638
2.80735
2.80779
2.80803
2.80834
2.80873
2.80909
2.80944
2.80998
2.81096
2.81238
2.81402
2.81533
2.81593
2.81604
2.81588
2.81579
2.81605
2.81661
2.81735
2.81808
2.81871
2.81947
2.82076
2.82319
2.82739
2.83429
2.84499
2.85998
2.87833
2.89783
2.91537
2.92792
2.93436
2.93631
2.93705
1.07408
1.06879
1.05155
1.02969
1.02059
1.02021
1.02196
1.02187
1.01463
1.00982
1.01006
1.00598
1.00011
0.999139
1.00209
1.01097
1.0167
1.02324
1.036
1.05589
1.08162
1.12074
1.16131
1.19149
1.22891
1.25978
1.28109
1.3014
1.3239
1.33754
1.34705
1.35776
1.37098
1.38553
1.39996
1.40999
1.41424
1.41579
1.41404
1.41179
1.41456
1.42071
1.42913
1.43752
1.44409
1.44986
1.45347
1.45529
1.45615
1.45658
1.45773
1.46007
1.46369
1.46947
1.47623
1.48156
1.48491
1.48696
1.48692
1.48608
1.48499
1.48492
1.48617
1.4902
1.4949
1.49789
1.49884
1.49897
1.49892
1.49866
1.49862
1.49865
1.49984
1.50358
1.50862
1.51169
1.51276
1.51314
1.51303
1.51218
1.51125
1.51143
1.51224
1.5141
1.51718
1.51915
1.52012
1.52059
1.52053
1.52054
1.52144
1.52302
1.52511
1.52742
1.5285
1.52856
1.52818
1.52716
1.52619
1.52589
1.52601
1.52663
1.5278
1.52935
1.53012
1.80537
2.48667
2.61023
2.61345
2.62119
2.62878
2.63784
2.64777
2.65921
2.67136
2.68182
2.68896
2.69267
2.69426
2.69545
2.69802
2.70358
2.71247
2.72309
2.7336
2.74218
2.74776
2.75111
2.75364
2.75669
2.76118
2.76709
2.7733
2.77867
2.78277
2.78601
2.78899
2.79215
2.79557
2.79896
2.80188
2.80402
2.80529
2.80591
2.80636
2.80702
2.80789
2.80879
2.80963
2.81047
2.8115
2.81275
2.81416
2.81527
2.81584
2.81597
2.81577
2.81568
2.81606
2.81691
2.81791
2.81879
2.81944
2.82036
2.8222
2.82594
2.83272
2.84351
2.85863
2.87705
2.8965
2.91388
2.92646
2.93339
2.9359
2.93676
1.13151
1.12537
1.11486
1.09603
1.07925
1.07292
1.07273
1.07541
1.0729
1.0651
1.06273
1.05763
1.04531
1.03832
1.03689
1.03561
1.03792
1.04376
1.04621
1.04591
1.0442
1.04521
1.05065
1.06291
1.08857
1.12825
1.16792
1.20689
1.24538
1.28341
1.31071
1.3319
1.35445
1.37215
1.38231
1.39301
1.40115
1.40533
1.4062
1.40316
1.4063
1.41527
1.42473
1.43232
1.44024
1.44677
1.44822
1.44763
1.44569
1.44518
1.4465
1.44998
1.4564
1.46646
1.47353
1.47728
1.47875
1.47937
1.47877
1.47804
1.47818
1.47935
1.48242
1.48712
1.49015
1.49146
1.49173
1.4913
1.4916
1.4916
1.49178
1.49298
1.49571
1.49971
1.50288
1.50461
1.50553
1.5057
1.50542
1.50444
1.50437
1.505
1.50664
1.50977
1.51288
1.51402
1.51461
1.51491
1.51472
1.51427
1.51432
1.51477
1.51553
1.51658
1.51747
1.51772
1.51769
1.51758
1.51755
1.51786
1.51882
1.52024
1.52131
1.52178
1.52156
1.66197
2.42199
2.60598
2.6011
2.60362
2.6082
2.61564
2.62368
2.6322
2.64137
2.65026
2.65774
2.66321
2.66682
2.66938
2.67205
2.67625
2.68321
2.69256
2.70318
2.71321
2.72122
2.72665
2.73015
2.73339
2.73794
2.74459
2.75264
2.76042
2.76686
2.77188
2.77611
2.78018
2.78452
2.78908
2.79348
2.7973
2.80012
2.80186
2.80298
2.80394
2.80522
2.8068
2.80841
2.80977
2.81078
2.81167
2.81276
2.81403
2.8151
2.81569
2.81573
2.81551
2.81569
2.81654
2.81772
2.81871
2.81934
2.81996
2.8212
2.82434
2.8308
2.84157
2.85678
2.87522
2.89455
2.9118
2.92453
2.932
2.93514
2.93596
1.19597
1.17489
1.16637
1.15652
1.14024
1.12361
1.11639
1.11781
1.12038
1.11432
1.10317
1.09733
1.09283
1.08388
1.0756
1.07422
1.07528
1.07832
1.07724
1.07233
1.06659
1.06546
1.06661
1.06782
1.0693
1.07376
1.08055
1.09198
1.11024
1.14003
1.17726
1.21596
1.26118
1.30355
1.32649
1.34553
1.36234
1.37567
1.39451
1.40534
1.41253
1.42273
1.43281
1.43718
1.44197
1.44362
1.44211
1.43973
1.43974
1.44218
1.44426
1.44842
1.45732
1.46738
1.47306
1.47306
1.47278
1.47211
1.4721
1.47302
1.47519
1.48004
1.486
1.48966
1.49022
1.48994
1.48862
1.4872
1.48737
1.48818
1.48963
1.49232
1.49649
1.50007
1.5016
1.50265
1.50286
1.50263
1.5022
1.50237
1.50272
1.50359
1.50574
1.50902
1.51102
1.51149
1.51166
1.51167
1.51134
1.51085
1.51086
1.51133
1.51195
1.51245
1.51349
1.51465
1.51543
1.51606
1.51662
1.51713
1.51754
1.51772
1.51768
1.51746
1.51678
1.55569
2.37633
2.609
2.60432
2.60558
2.60815
2.61026
2.61423
2.61961
2.62554
2.63161
2.63729
2.64212
2.64613
2.64956
2.6527
2.65623
2.66093
2.66763
2.67653
2.68628
2.69526
2.70221
2.70693
2.71057
2.71478
2.72085
2.72895
2.73783
2.7462
2.75325
2.75902
2.76419
2.76947
2.77517
2.78113
2.78676
2.79142
2.79482
2.79724
2.79913
2.80104
2.80327
2.80561
2.80773
2.80935
2.81047
2.81145
2.81267
2.81384
2.81473
2.81523
2.81528
2.8155
2.81632
2.8175
2.81839
2.81883
2.81926
2.82021
2.82295
2.82895
2.83928
2.85414
2.87238
2.89164
2.90906
2.92227
2.93035
2.93399
2.93469
1.27029
1.23862
1.21309
1.20716
1.19705
1.17695
1.16024
1.15732
1.16067
1.16052
1.1496
1.13643
1.13511
1.13167
1.12001
1.11534
1.11502
1.11581
1.1147
1.10914
1.10127
1.09759
1.09736
1.09536
1.0908
1.09135
1.09362
1.09322
1.08999
1.09063
1.09446
1.10436
1.12442
1.15619
1.19585
1.2353
1.2771
1.30919
1.34255
1.37655
1.39838
1.41472
1.4288
1.437
1.43926
1.43997
1.43817
1.43458
1.43613
1.44166
1.4481
1.45524
1.46521
1.46945
1.46878
1.46653
1.46431
1.46531
1.46785
1.47084
1.47633
1.48556
1.49043
1.49051
1.49005
1.4882
1.48558
1.48494
1.4858
1.48749
1.49052
1.49452
1.49803
1.50027
1.50138
1.50161
1.50159
1.50121
1.50168
1.5023
1.50272
1.50354
1.50622
1.50952
1.51051
1.51062
1.51059
1.51034
1.50987
1.50936
1.50936
1.51013
1.51095
1.512
1.51347
1.51487
1.51554
1.51592
1.5162
1.51637
1.51651
1.5165
1.51622
1.51582
1.51502
1.51675
2.32604
2.61417
2.61229
2.61088
2.61114
2.61331
2.61638
2.61989
2.62291
2.6255
2.62793
2.63055
2.63368
2.63746
2.64157
2.64541
2.64906
2.65336
2.65884
2.66554
2.67287
2.67976
2.68519
2.68937
2.69349
2.69879
2.70582
2.71427
2.72282
2.73086
2.73796
2.74431
2.75056
2.75717
2.7643
2.77154
2.77814
2.78354
2.78774
2.79121
2.79445
2.7977
2.80088
2.80381
2.80627
2.80821
2.80975
2.81115
2.81232
2.81324
2.81403
2.8146
2.81522
2.81619
2.81724
2.81788
2.81799
2.81807
2.8189
2.82154
2.82718
2.83677
2.85077
2.86843
2.88764
2.90557
2.91962
2.92847
2.9325
2.93311
1.32998
1.30814
1.26973
1.24957
1.24294
1.23357
1.21686
1.20114
1.19873
1.20133
1.19683
1.17935
1.17053
1.16997
1.16232
1.14974
1.14731
1.1486
1.14928
1.14572
1.13874
1.13198
1.13081
1.12991
1.1244
1.12044
1.11894
1.11386
1.10671
1.10583
1.10627
1.10967
1.11409
1.11716
1.12104
1.12658
1.13994
1.16784
1.20596
1.25624
1.30586
1.34921
1.38581
1.40465
1.4155
1.42446
1.43018
1.4346
1.43884
1.44333
1.45029
1.45905
1.46534
1.4663
1.46421
1.45979
1.45814
1.46108
1.46528
1.47003
1.47819
1.48859
1.49031
1.4899
1.48793
1.48477
1.48342
1.48403
1.48553
1.48867
1.493
1.49676
1.49831
1.49881
1.49905
1.4995
1.49985
1.50078
1.5025
1.50325
1.50343
1.50425
1.50678
1.50924
1.50982
1.51016
1.51041
1.51015
1.50912
1.50833
1.50851
1.50933
1.51064
1.51248
1.51461
1.51556
1.51567
1.51571
1.51577
1.5158
1.51576
1.51556
1.51505
1.51448
1.51436
1.51452
2.25885
2.61936
2.61907
2.61764
2.61756
2.61832
2.6194
2.62106
2.62277
2.62384
2.62482
2.62637
2.62898
2.63261
2.63651
2.63992
2.64258
2.64516
2.64862
2.65339
2.65899
2.66464
2.66963
2.67378
2.67753
2.68164
2.68681
2.6934
2.70108
2.70904
2.71668
2.72375
2.73047
2.73742
2.74494
2.75303
2.7611
2.7684
2.77456
2.77979
2.78458
2.78923
2.79371
2.79777
2.8012
2.80405
2.8065
2.8086
2.81027
2.81147
2.81245
2.81339
2.81433
2.81554
2.81676
2.81739
2.81727
2.81706
2.81759
2.82001
2.82522
2.83397
2.84686
2.86365
2.88273
2.90133
2.91645
2.92619
2.93069
2.93136
1.37777
1.36277
1.33501
1.29478
1.28065
1.2795
1.2724
1.25699
1.24149
1.23908
1.23629
1.22356
1.20711
1.20525
1.2021
1.18926
1.17946
1.17899
1.18079
1.17844
1.1717
1.16454
1.16127
1.16084
1.15846
1.15203
1.1489
1.14526
1.13664
1.13241
1.13236
1.13185
1.13076
1.13068
1.13148
1.13024
1.12641
1.1266
1.12999
1.14215
1.17038
1.21125
1.26278
1.3101
1.3434
1.37042
1.391
1.41044
1.42165
1.4309
1.44535
1.45428
1.45622
1.45685
1.45589
1.45241
1.45323
1.4569
1.46131
1.46839
1.4789
1.48583
1.48586
1.48504
1.48327
1.48224
1.48312
1.48477
1.48697
1.4904
1.49459
1.49562
1.49561
1.49517
1.49532
1.49647
1.49798
1.50018
1.50243
1.50321
1.50371
1.50478
1.50667
1.50786
1.50835
1.50902
1.50934
1.50867
1.5075
1.50727
1.50766
1.50872
1.51056
1.5134
1.51556
1.51586
1.51583
1.51571
1.51527
1.51475
1.5143
1.51374
1.51319
1.5131
1.51362
1.51476
2.1866
2.61575
2.62443
2.62339
2.6231
2.62312
2.62357
2.62415
2.62478
2.62519
2.62581
2.62713
2.62946
2.63224
2.63483
2.63683
2.63838
2.64002
2.64261
2.64631
2.65062
2.65497
2.65905
2.66277
2.66617
2.6696
2.67352
2.67819
2.6838
2.69026
2.69729
2.7044
2.71119
2.71793
2.72509
2.73295
2.74139
2.74981
2.75759
2.76454
2.77086
2.77695
2.78295
2.78868
2.79374
2.79786
2.80122
2.80419
2.8068
2.80887
2.81052
2.81183
2.81288
2.81414
2.81563
2.81667
2.81685
2.81655
2.81666
2.81843
2.82291
2.8307
2.84247
2.85833
2.87717
2.89638
2.91261
2.92332
2.9284
2.92934
1.42124
1.40603
1.38962
1.35807
1.32514
1.31613
1.31526
1.30835
1.29011
1.27772
1.27372
1.26532
1.24779
1.23876
1.23695
1.22894
1.21391
1.21013
1.21131
1.21056
1.20432
1.19619
1.18789
1.18532
1.18502
1.1803
1.17561
1.17338
1.16819
1.16276
1.16183
1.16036
1.15809
1.15517
1.15075
1.14625
1.14148
1.1391
1.13923
1.14189
1.14506
1.14853
1.15513
1.16866
1.19015
1.22467
1.27085
1.31532
1.35674
1.38584
1.41404
1.43201
1.43767
1.44337
1.44902
1.44978
1.45198
1.45354
1.45726
1.46572
1.4743
1.47651
1.47736
1.4784
1.47882
1.47972
1.48081
1.48222
1.48507
1.49029
1.49313
1.49327
1.49293
1.49202
1.49272
1.49407
1.49578
1.49791
1.50028
1.50227
1.50351
1.50468
1.50567
1.50609
1.50659
1.5072
1.50706
1.50617
1.50566
1.50569
1.50608
1.50739
1.51027
1.51365
1.51502
1.51512
1.51501
1.51474
1.51425
1.5134
1.51241
1.51173
1.51159
1.512
1.51333
1.51495
2.10573
2.60357
2.62712
2.62681
2.62666
2.6264
2.62642
2.62662
2.62678
2.62704
2.62768
2.62887
2.63051
2.63224
2.63381
2.63516
2.63636
2.63787
2.64014
2.64299
2.64606
2.64913
2.65213
2.655
2.65779
2.66067
2.66382
2.66743
2.67176
2.67692
2.68266
2.6886
2.6945
2.70064
2.70706
2.714
2.72168
2.73011
2.73873
2.74694
2.75453
2.76175
2.76892
2.77614
2.78305
2.78911
2.79394
2.79788
2.80145
2.80465
2.8074
2.80962
2.81111
2.81221
2.81374
2.81535
2.81616
2.81607
2.81607
2.81707
2.82047
2.82709
2.83769
2.85263
2.87117
2.89083
2.90804
2.91978
2.92553
2.9269
1.47424
1.44536
1.43158
1.41197
1.38292
1.35811
1.35254
1.35163
1.34169
1.32091
1.30912
1.30043
1.28404
1.26937
1.26788
1.26579
1.25466
1.24141
1.23955
1.2403
1.23663
1.2291
1.21992
1.21019
1.20835
1.20592
1.20015
1.19839
1.19653
1.19141
1.18848
1.18666
1.18325
1.1791
1.17299
1.16808
1.16592
1.16307
1.16007
1.15938
1.15908
1.15776
1.15631
1.15341
1.15286
1.15525
1.16571
1.18875
1.23287
1.28885
1.33801
1.38015
1.40416
1.42564
1.43656
1.43853
1.4417
1.44529
1.44935
1.45623
1.46198
1.46618
1.46969
1.47175
1.47363
1.47384
1.47372
1.47476
1.48024
1.48782
1.49037
1.4913
1.49185
1.49112
1.49098
1.49128
1.49199
1.4933
1.49656
1.50047
1.50275
1.50419
1.50497
1.50512
1.50534
1.50508
1.50418
1.50359
1.50348
1.50348
1.50399
1.50598
1.50969
1.51258
1.51295
1.51286
1.51269
1.51237
1.51166
1.51069
1.51033
1.51047
1.51109
1.51194
1.5133
1.51417
2.02129
2.5834
2.62772
2.62803
2.62728
2.62638
2.62585
2.62585
2.62622
2.62723
2.62835
2.62957
2.63073
2.63172
2.63248
2.63337
2.6347
2.63677
2.63938
2.642
2.64424
2.64608
2.64785
2.64982
2.65211
2.65461
2.6572
2.6601
2.66353
2.66766
2.67221
2.67706
2.68214
2.68722
2.69236
2.69786
2.70424
2.71162
2.71983
2.7283
2.73652
2.7444
2.75219
2.76022
2.76852
2.7766
2.78371
2.78938
2.79404
2.79828
2.80219
2.80574
2.80852
2.81013
2.81143
2.8132
2.8148
2.81541
2.81549
2.81602
2.81827
2.82357
2.83284
2.84671
2.86478
2.88473
2.90283
2.91563
2.92213
2.92402
1.52912
1.49205
1.4658
1.45196
1.43643
1.41057
1.39036
1.38726
1.38327
1.36803
1.34818
1.33638
1.3202
1.30083
1.2964
1.29722
1.29403
1.28337
1.27064
1.26488
1.26204
1.25685
1.24939
1.23792
1.2313
1.23021
1.22604
1.22218
1.22083
1.21817
1.214
1.21083
1.20633
1.19904
1.19167
1.18837
1.18795
1.1878
1.18697
1.18468
1.18168
1.17772
1.17015
1.16299
1.16195
1.16239
1.16498
1.16767
1.1724
1.18364
1.20341
1.23349
1.26742
1.30259
1.34181
1.37184
1.39948
1.41737
1.43335
1.44755
1.45807
1.46691
1.47034
1.46954
1.46796
1.46476
1.46362
1.46661
1.47528
1.48403
1.48822
1.48948
1.48947
1.48874
1.48704
1.48607
1.4863
1.48798
1.49248
1.49801
1.50122
1.50299
1.50302
1.50266
1.50229
1.50171
1.50111
1.50086
1.50127
1.50198
1.50294
1.50539
1.50894
1.50979
1.50978
1.50972
1.50923
1.50824
1.50753
1.50765
1.50852
1.50998
1.51147
1.51299
1.51359
1.51315
1.93616
2.55835
2.62747
2.6277
2.62744
2.6262
2.62486
2.62409
2.62449
2.62568
2.62719
2.62857
2.62953
2.63
2.63033
2.6312
2.6331
2.63593
2.63904
2.64169
2.64335
2.64424
2.64491
2.64597
2.64786
2.65033
2.65306
2.65589
2.6587
2.66148
2.66458
2.66829
2.67258
2.67684
2.68096
2.68524
2.69001
2.6957
2.70262
2.71055
2.71888
2.72704
2.73492
2.743
2.75166
2.76091
2.77003
2.77807
2.78454
2.78991
2.79485
2.79957
2.80379
2.80693
2.80892
2.81065
2.81262
2.81394
2.81446
2.81504
2.81657
2.8206
2.82838
2.84087
2.85808
2.87807
2.89699
2.9109
2.91828
2.92068
1.57275
1.54424
1.50806
1.48602
1.47853
1.46355
1.43852
1.42067
1.41622
1.40718
1.38545
1.36688
1.35468
1.3381
1.32581
1.32388
1.32489
1.3208
1.30994
1.29523
1.28355
1.27793
1.27363
1.26764
1.25906
1.25475
1.25135
1.24523
1.24328
1.24252
1.23984
1.23584
1.22955
1.21937
1.21203
1.20862
1.20732
1.20719
1.20883
1.20897
1.20696
1.20172
1.19073
1.18047
1.1784
1.17801
1.17772
1.1783
1.17903
1.17957
1.17934
1.17752
1.17844
1.18591
1.21032
1.253
1.30253
1.35624
1.40167
1.43156
1.44686
1.45732
1.45938
1.45789
1.4556
1.45375
1.45569
1.46286
1.47423
1.48122
1.48459
1.48532
1.48427
1.48128
1.47888
1.47901
1.48116
1.48575
1.49112
1.496
1.49926
1.50012
1.49971
1.49858
1.49739
1.49668
1.49674
1.49756
1.49899
1.50011
1.50135
1.5044
1.50689
1.50725
1.50735
1.50706
1.50586
1.50445
1.5043
1.50486
1.50627
1.50875
1.51165
1.5129
1.51291
1.51177
1.84875
2.52852
2.62567
2.62499
2.62496
2.62366
2.62209
2.6211
2.62124
2.62253
2.62428
2.62573
2.62667
2.62709
2.62751
2.62886
2.63145
2.63483
2.63827
2.64085
2.64194
2.64203
2.64203
2.64282
2.64484
2.64748
2.65028
2.65296
2.65533
2.65734
2.65948
2.66231
2.66563
2.669
2.67218
2.67528
2.67867
2.68291
2.68839
2.69514
2.70282
2.71075
2.71846
2.726
2.73404
2.74312
2.75309
2.76306
2.77188
2.77916
2.78532
2.79103
2.79647
2.80133
2.80512
2.80777
2.80985
2.81158
2.81274
2.81363
2.81502
2.81818
2.82453
2.83535
2.85125
2.87088
2.8905
2.9056
2.91398
2.91681
1.60721
1.58414
1.55818
1.52636
1.51287
1.50441
1.48677
1.45976
1.44762
1.43906
1.42101
1.39507
1.38481
1.37628
1.36176
1.35289
1.35223
1.35119
1.34426
1.33159
1.31209
1.29697
1.2936
1.29218
1.28907
1.28406
1.27856
1.27075
1.26327
1.26135
1.25946
1.25615
1.24993
1.24027
1.2354
1.23212
1.22724
1.22552
1.22567
1.22749
1.22658
1.22134
1.21042
1.20042
1.19807
1.19752
1.19803
1.1975
1.19621
1.19442
1.19124
1.18389
1.17669
1.17563
1.17693
1.18344
1.19875
1.23115
1.27321
1.31511
1.34943
1.38219
1.40212
1.41621
1.42887
1.4386
1.45097
1.46788
1.47992
1.48289
1.48238
1.47991
1.47427
1.46977
1.47024
1.47369
1.48042
1.48748
1.49216
1.49461
1.49582
1.49529
1.49395
1.49245
1.49198
1.49198
1.49284
1.49437
1.49596
1.49733
1.4993
1.50224
1.50372
1.50407
1.50443
1.50411
1.50257
1.50201
1.50218
1.50281
1.5046
1.50818
1.51069
1.511
1.51094
1.50962
1.75778
2.49355
2.62295
2.6215
2.62134
2.61987
2.61826
2.61732
2.61743
2.61882
2.62055
2.62199
2.62301
2.62358
2.6244
2.62632
2.62922
2.63264
2.63594
2.63822
2.63892
2.63868
2.63874
2.64004
2.64252
2.6454
2.64821
2.65066
2.65256
2.65406
2.65576
2.65823
2.66114
2.66392
2.66627
2.66812
2.66995
2.67264
2.67685
2.68255
2.68926
2.69651
2.70378
2.71075
2.7178
2.72571
2.73511
2.74568
2.75634
2.76576
2.77366
2.78052
2.78703
2.79333
2.79903
2.80348
2.8065
2.80854
2.81018
2.8116
2.81324
2.81602
2.82122
2.83033
2.84461
2.86346
2.88351
2.89977
2.90921
2.91236
1.64464
1.61736
1.59928
1.5747
1.54733
1.53533
1.52514
1.50392
1.47956
1.46508
1.4494
1.42567
1.4146
1.41047
1.40136
1.38681
1.37783
1.37411
1.36889
1.35942
1.34498
1.3265
1.31433
1.31222
1.31293
1.31108
1.30676
1.30066
1.29087
1.27794
1.27365
1.27204
1.26842
1.26184
1.25802
1.25616
1.25149
1.24415
1.24241
1.24298
1.24219
1.23745
1.22931
1.22082
1.21616
1.21472
1.21452
1.216
1.21561
1.21349
1.20969
1.20273
1.19182
1.1859
1.18517
1.18567
1.18871
1.19356
1.19967
1.2088
1.22557
1.25061
1.29087
1.33255
1.37444
1.41404
1.44193
1.46156
1.47145
1.47331
1.4724
1.4669
1.46097
1.46079
1.46419
1.47345
1.48249
1.48667
1.48962
1.49017
1.48965
1.48914
1.48807
1.48832
1.48928
1.49048
1.49121
1.49185
1.49285
1.4952
1.49789
1.49943
1.49962
1.4999
1.5006
1.50039
1.50005
1.50083
1.50133
1.50183
1.50401
1.50694
1.50795
1.5083
1.50836
1.50688
1.6667
2.45176
2.62215
2.62026
2.62017
2.61828
2.61608
2.61456
2.6142
2.6152
2.61681
2.61824
2.61928
2.62006
2.62129
2.62343
2.62613
2.62904
2.63174
2.63359
2.63413
2.63416
2.63513
2.63744
2.64042
2.64345
2.64616
2.64827
2.64973
2.65093
2.65255
2.65489
2.65755
2.65997
2.66187
2.66316
2.66418
2.66532
2.6676
2.67182
2.67778
2.68453
2.69131
2.69774
2.7039
2.71038
2.7181
2.72769
2.73857
2.74955
2.75937
2.76782
2.77546
2.78293
2.79016
2.79656
2.80149
2.80473
2.80687
2.80878
2.81088
2.81365
2.8181
2.82574
2.83829
2.85601
2.87617
2.89346
2.9039
2.90731
1.68065
1.65286
1.63281
1.61314
1.58874
1.56409
1.5535
1.53976
1.51487
1.49266
1.47807
1.4589
1.44296
1.43902
1.4351
1.42593
1.41305
1.39852
1.38513
1.37579
1.36737
1.35771
1.34663
1.33678
1.33283
1.33264
1.33104
1.32635
1.3185
1.30452
1.28979
1.28584
1.28474
1.28198
1.27865
1.27736
1.27509
1.26851
1.25848
1.25471
1.25329
1.24993
1.24537
1.24124
1.23756
1.23418
1.23184
1.23059
1.22909
1.22654
1.22258
1.21689
1.21048
1.20586
1.20344
1.20167
1.20079
1.19993
1.20014
1.20036
1.19822
1.19712
1.2017
1.21748
1.24929
1.30133
1.35096
1.39683
1.41716
1.43357
1.44144
1.44556
1.45242
1.45852
1.46587
1.47662
1.48161
1.48196
1.48102
1.4801
1.48145
1.48295
1.48463
1.48719
1.4876
1.48745
1.48728
1.48793
1.4905
1.49477
1.49716
1.49727
1.49734
1.49719
1.49651
1.49607
1.49691
1.49807
1.49895
1.50089
1.50411
1.50538
1.50581
1.5059
1.50516
1.50294
1.58174
2.40651
2.62378
2.62143
2.62043
2.61797
2.61534
2.61317
2.61211
2.61259
2.61374
2.61482
2.61567
2.61655
2.61798
2.62002
2.62229
2.62452
2.62648
2.62785
2.62846
2.62945
2.63172
2.63479
2.63792
2.64078
2.64317
2.64498
2.64638
2.6479
2.64992
2.65224
2.65448
2.65652
2.65822
2.65949
2.66034
2.66099
2.66204
2.66421
2.66832
2.6741
2.68058
2.6868
2.69236
2.69773
2.70367
2.7113
2.72105
2.73206
2.7431
2.75314
2.76212
2.77066
2.77914
2.78729
2.79425
2.79936
2.80273
2.80525
2.80786
2.81087
2.81492
2.82142
2.83235
2.8488
2.86877
2.88683
2.89811
2.90175
1.7105
1.68801
1.66431
1.64159
1.62338
1.60009
1.57887
1.56535
1.54582
1.51937
1.50564
1.4941
1.47752
1.46418
1.46048
1.45599
1.44632
1.43127
1.40899
1.38957
1.38419
1.38166
1.37699
1.36969
1.36048
1.35257
1.3489
1.34539
1.33944
1.32967
1.31531
1.3031
1.30045
1.30061
1.29845
1.29686
1.29614
1.29355
1.28599
1.27194
1.26104
1.25838
1.25831
1.25784
1.25617
1.25422
1.25192
1.24842
1.24394
1.23935
1.23323
1.22744
1.22497
1.22262
1.22072
1.21974
1.21884
1.21748
1.21438
1.21045
1.20491
1.19849
1.19788
1.19841
1.20126
1.21045
1.23151
1.26733
1.31026
1.3491
1.38516
1.41404
1.439
1.44991
1.45663
1.46888
1.4723
1.47175
1.47013
1.47051
1.47322
1.47721
1.48131
1.48386
1.48277
1.48098
1.48036
1.48247
1.48883
1.49471
1.49705
1.49758
1.49736
1.49538
1.49284
1.49216
1.49252
1.49417
1.49698
1.50129
1.50403
1.5044
1.50429
1.50321
1.50081
1.49925
1.5112
2.35905
2.62594
2.62503
2.62221
2.61866
2.61517
2.61237
2.61107
2.61129
2.61167
2.612
2.61227
2.61288
2.61429
2.61628
2.61827
2.61996
2.62125
2.62221
2.62328
2.62554
2.62878
2.63205
2.63478
2.63694
2.63871
2.64036
2.64234
2.6449
2.64771
2.65013
2.65176
2.65296
2.65429
2.65582
2.65716
2.65809
2.65868
2.65951
2.66148
2.66525
2.67061
2.67663
2.68224
2.68715
2.69202
2.69771
2.70524
2.71506
2.726
2.73686
2.74695
2.7565
2.766
2.77547
2.78428
2.79153
2.7968
2.8006
2.80394
2.80737
2.81132
2.81704
2.82662
2.84177
2.86127
2.87983
2.8918
2.89571
1.7392
1.71627
1.69348
1.66903
1.6512
1.63185
1.60776
1.59003
1.57261
1.54721
1.53116
1.52447
1.51361
1.49728
1.48323
1.47611
1.4689
1.45712
1.43723
1.41326
1.40339
1.40161
1.4016
1.39747
1.38988
1.37948
1.36637
1.35833
1.35389
1.34817
1.33984
1.32936
1.32104
1.31926
1.31865
1.31554
1.31222
1.30929
1.30412
1.29262
1.27849
1.27325
1.27227
1.27285
1.2726
1.27078
1.26836
1.26488
1.25956
1.25216
1.24424
1.2407
1.24014
1.23896
1.23692
1.23522
1.23378
1.23241
1.22995
1.2245
1.21745
1.21163
1.20665
1.20529
1.20563
1.20788
1.21034
1.214
1.22118
1.23349
1.2593
1.29765
1.34089
1.38413
1.40858
1.4371
1.44945
1.45689
1.46538
1.47061
1.47472
1.47876
1.47874
1.47774
1.4744
1.4738
1.4753
1.47956
1.48733
1.49271
1.49471
1.49546
1.49448
1.49003
1.48758
1.4872
1.48792
1.49166
1.49752
1.50197
1.50274
1.50245
1.50141
1.49877
1.49619
1.49605
1.49635
2.30003
2.6258
2.6281
2.6234
2.61901
2.61517
2.61237
2.61078
2.61034
2.60991
2.60919
2.60866
2.609
2.61052
2.6127
2.61466
2.61601
2.61675
2.61743
2.61917
2.62247
2.62625
2.62938
2.63144
2.63257
2.63329
2.63473
2.63775
2.64171
2.64547
2.64813
2.64933
2.64968
2.65042
2.65201
2.65391
2.65549
2.6563
2.65665
2.65736
2.65957
2.66328
2.66789
2.67281
2.67751
2.68191
2.68656
2.69245
2.70014
2.70981
2.72043
2.73092
2.74111
2.75135
2.76186
2.77218
2.78143
2.78885
2.79443
2.7989
2.803
2.80722
2.81256
2.82109
2.83497
2.85385
2.87272
2.88528
2.88951
1.76509
1.74126
1.71778
1.69597
1.67714
1.65679
1.63309
1.61524
1.5989
1.57756
1.55927
1.5502
1.54229
1.53082
1.51397
1.49571
1.48373
1.47471
1.46191
1.444
1.42871
1.42333
1.4215
1.41988
1.41532
1.40763
1.39332
1.37318
1.36421
1.36134
1.35809
1.35305
1.34596
1.33863
1.33656
1.33437
1.32912
1.32167
1.31498
1.30717
1.29732
1.2916
1.2897
1.28869
1.28812
1.28684
1.28484
1.28164
1.27507
1.26329
1.25452
1.25307
1.25316
1.25303
1.25159
1.25027
1.24882
1.24689
1.24318
1.23511
1.22831
1.2265
1.22415
1.22085
1.21917
1.21835
1.21745
1.21678
1.21474
1.21079
1.21106
1.21573
1.23096
1.26603
1.311
1.35573
1.39947
1.43158
1.45615
1.46269
1.46599
1.46957
1.46919
1.46653
1.46731
1.4702
1.47564
1.48234
1.4884
1.49141
1.49071
1.48917
1.48558
1.48175
1.48165
1.48167
1.48471
1.49267
1.49944
1.50047
1.5004
1.49948
1.49668
1.49332
1.49223
1.49325
1.49465
2.23266
2.62576
2.63014
2.6236
2.61871
2.61404
2.61064
2.60965
2.60957
2.60833
2.6065
2.60535
2.60559
2.60722
2.60967
2.6118
2.61296
2.61328
2.61367
2.61555
2.61918
2.62315
2.6262
2.62793
2.62844
2.62851
2.62978
2.63333
2.63807
2.64249
2.64551
2.6467
2.6467
2.647
2.6483
2.65023
2.65215
2.65351
2.65416
2.6547
2.65604
2.65841
2.66151
2.66507
2.66879
2.67255
2.67672
2.68179
2.688
2.69583
2.70492
2.71493
2.72519
2.73567
2.74662
2.75796
2.76888
2.7784
2.78604
2.7921
2.79725
2.8021
2.8075
2.81537
2.82821
2.84641
2.86542
2.87852
2.88312
1.78747
1.76502
1.74005
1.72085
1.70075
1.67994
1.65738
1.6407
1.62393
1.6059
1.59223
1.57704
1.56204
1.55331
1.54223
1.52425
1.50054