/*--------------------------------*- C++ -*----------------------------------*\
  =========                 |
  \\      /  F ield         | OpenFOAM: The Open Source CFD Toolbox
   \\    /   O peration     | Website:  https://openfoam.org
    \\  /    A nd           | Version:  7
     \\/     M anipulation  |
\*---------------------------------------------------------------------------*/
FoamFile
{
    version     2.0;
    format      ascii;
    class       volScalarField;
    location    "2";
    object      rho;
}
// * * * * * * * * * * * * * * * * * * * * * * * * * * * * * * * * * * * * * //

dimensions      [1 -3 0 0 0 0 0];

internalField   nonuniform List<scalar> 
16192
(
2.35498
2.30109
2.23633
2.16151
2.0777
1.9887
1.8991
1.8053
1.69676
1.6771
1.7206
1.77154
1.78915
1.81159
1.87534
1.96658
2.09295
2.21138
2.33303
2.40738
2.46803
2.35417
2.29921
2.23353
2.15808
2.07391
1.98476
1.89558
1.8044
1.69856
1.67589
1.71657
1.76016
1.77636
1.79821
1.85979
1.95429
2.08047
2.20164
2.32198
2.39874
2.45807
2.35289
2.29688
2.22963
2.15265
2.06751
1.97777
1.88825
1.79989
1.69944
1.67315
1.70799
1.74687
1.76596
1.79476
1.8571
1.95139
2.0729
2.19312
2.31509
2.39575
2.45503
2.34944
2.29157
2.22209
2.14324
2.05722
1.96758
1.87848
1.79393
1.70165
1.67197
1.69651
1.72565
1.74536
1.78059
1.84424
1.94138
2.06178
2.18287
2.30458
2.38917
2.4484
2.3472
2.28692
2.21438
2.13266
2.04492
1.95535
1.86745
1.78744
1.7048
1.67219
1.68796
1.7116
1.73183
1.77031
1.83051
1.92535
2.04124
2.16161
2.28106
2.36801
2.42715
2.34315
2.2802
2.20441
2.11964
2.02998
1.9404
1.85393
1.77859
1.70535
1.67137
1.67535
1.69096
1.71058
1.74935
1.80567
1.89477
2.00653
2.12472
2.24128
2.32899
2.38703
2.33989
2.2745
2.19591
2.10822
2.01644
1.9269
1.84245
1.7707
1.70518
1.67415
1.66717
1.67446
1.69031
1.72478
1.77484
1.85459
1.95878
2.07376
2.18812
2.27476
2.33061
2.33535
2.26763
2.18651
2.09635
2.00266
1.91266
1.82913
1.75979
1.69914
1.66811
1.65162
1.65191
1.66384
1.69361
1.73884
1.81001
1.90789
2.01685
2.1293
2.21452
2.26711
2.33252
2.26283
2.17976
2.0877
1.99225
1.90159
1.819
1.75199
1.69502
1.66253
1.63926
1.63477
1.64157
1.66504
1.70439
1.76684
1.85909
1.9611
2.07094
2.15465
2.20344
2.32894
2.25806
2.17379
2.08064
1.98403
1.89267
1.80985
1.7427
1.68696
1.65249
1.62536
1.61649
1.61895
1.63867
1.6752
1.73059
1.81775
1.91117
2.0168
2.09738
2.1422
2.32741
2.25565
2.17072
2.07739
1.98051
1.88868
1.80577
1.73822
1.6826
1.64504
1.61671
1.60502
1.60369
1.61875
1.65174
1.69934
1.78119
1.86627
1.96787
2.04425
2.08608
2.32455
2.25331
2.16862
2.07594
1.97938
1.88725
1.8036
1.73392
1.67758
1.63722
1.60872
1.5947
1.59171
1.60369
1.63591
1.67783
1.75599
1.83531
1.93325
2.00348
2.04547
2.32648
2.25195
2.16906
2.07764
1.98253
1.8902
1.8056
1.73387
1.67648
1.63319
1.60539
1.5904
1.5875
1.59676
1.62803
1.66577
1.74126
1.81561
1.90875
1.96984
2.0106
2.32869
2.25167
2.16974
2.07865
1.98613
1.89491
1.81035
1.73652
1.6771
1.63101
1.60331
1.58633
1.58447
1.59306
1.62564
1.66201
1.73709
1.81072
1.90206
1.95808
2.0086
2.33797
2.25922
2.1742
2.08435
1.99334
1.90311
1.81861
1.7429
1.6819
1.63333
1.60383
1.58605
1.58591
1.59603
1.63086
1.66692
1.74237
1.81808
1.90999
1.96432
2.01959
2.37023
2.27464
2.18271
2.0909
2.00029
1.91099
1.82804
1.75227
1.68961
1.63932
1.6079
1.58934
1.58913
1.60195
1.64052
1.68082
1.75942
1.83693
1.9298
1.98337
2.04468
2.4018
2.29371
2.20271
2.10384
2.01333
1.9231
1.84127
1.76519
1.7016
1.64979
1.61607
1.59594
1.59596
1.61422
1.65899
1.70598
1.78825
1.8687
1.96386
2.01631
2.08183
2.50073
2.36167
2.24122
2.13043
2.03297
1.93615
1.85499
1.77807
1.71496
1.66226
1.62725
1.60744
1.60738
1.63034
1.6806
1.7369
1.82482
1.90795
2.00488
2.05719
2.12805
2.60952
2.4327
2.2862
2.16455
2.06266
1.9582
1.87614
1.79541
1.73267
1.67866
1.64287
1.62165
1.62211
1.65111
1.70873
1.77599
1.86964
1.95618
2.05633
2.10851
2.184
2.73044
2.55069
2.38675
2.24199
2.11644
1.99953
1.90752
1.81796
1.75319
1.69581
1.65943
1.63731
1.63815
1.67435
1.73895
1.8166
1.91685
2.00769
2.11006
2.16138
2.24364
2.84189
2.67196
2.49537
2.32604
2.17727
2.05066
1.94861
1.85204
1.78206
1.71987
1.68101
1.65773
1.65763
1.69892
1.77238
1.86094
1.96891
2.06389
2.16999
2.22209
2.31022
2.93487
2.78327
2.61504
2.44251
2.28188
2.13964
2.01789
1.90849
1.82507
1.75388
1.70891
1.6818
1.67972
1.72313
1.80414
1.905
2.02059
2.11958
2.22892
2.2824
2.37579
2.99259
2.86856
2.71871
2.55785
2.39254
2.23549
2.09581
1.97488
1.87903
1.79936
1.74609
1.71461
1.70757
1.75267
1.83671
1.94827
2.07317
2.17565
2.28863
2.34621
2.44615
3.02528
2.92013
2.79924
2.65746
2.50071
2.34613
2.20126
2.07102
1.96034
1.86842
1.80061
1.76086
1.74445
1.78788
1.8726
1.99045
2.12474
2.22971
2.34643
2.40834
2.51713
3.05259
2.95595
2.84891
2.73282
2.5968
2.45305
2.30649
2.17235
2.05013
1.94578
1.86476
1.81711
1.78979
1.83084
1.91406
2.03775
2.17672
2.28411
2.40256
2.46886
2.58915
3.07593
2.9885
2.88676
2.78166
2.66425
2.53991
2.40326
2.27391
2.14967
2.04178
1.94906
1.89188
1.85088
1.8856
1.96407
2.09227
2.23096
2.33767
2.4564
2.52896
2.66277
3.0962
3.01402
2.92013
2.81991
2.7105
2.60023
2.47695
2.36078
2.24112
2.13393
2.03445
1.9699
1.91696
1.94457
2.01823
2.15265
2.29357
2.39721
2.51336
2.58581
2.73246
3.11116
3.03401
2.94622
2.8514
2.74801
2.64497
2.5315
2.42346
2.31718
2.22038
2.11812
2.04991
1.98967
2.01063
2.07847
2.22155
2.3664
2.47102
2.57421
2.64202
2.807
3.12312
3.04793
2.96576
2.87764
2.77968
2.68394
2.57798
2.47378
2.37299
2.28862
2.19553
2.12264
2.05614
2.07076
2.13405
2.28358
2.44381
2.56048
2.64478
2.71091
2.87014
3.13362
3.05972
2.98014
2.89772
2.80493
2.71613
2.62068
2.52137
2.41746
2.33668
2.25564
2.18241
2.11132
2.12097
2.17514
2.3382
2.52433
2.66162
2.72895
2.79016
2.93762
3.14393
3.0709
2.99309
2.9137
2.82609
2.73886
2.65194
2.56297
2.45807
2.37464
2.29939
2.22965
2.15602
2.15529
2.20064
2.36971
2.59068
2.76854
2.82587
2.88209
2.96471
3.15386
3.08265
3.00548
2.92864
2.84503
2.75866
2.67395
2.59572
2.49511
2.40681
2.33391
2.27083
2.1965
2.18196
2.21765
2.38781
2.622
2.86015
2.93565
2.95846
2.97482
3.1645
3.09494
3.01912
2.94319
2.86314
2.77825
2.69203
2.61843
2.52835
2.43695
2.3587
2.30529
2.22965
2.20554
2.23129
2.36815
2.64536
2.92206
3.04949
3.01469
2.64139
3.1763
3.10858
3.03416
2.959
2.88125
2.79796
2.70992
2.63518
2.55422
2.46513
2.38158
2.33196
2.26085
2.2243
2.24023
2.34405
2.61949
2.93755
3.13318
3.07047
2.72064
3.18753
3.12303
3.05114
2.97626
2.89958
2.81888
2.72984
2.65189
2.57698
2.4936
2.40509
2.35231
2.29159
2.24302
2.24767
2.3235
2.56726
2.94175
3.18705
3.12746
2.81312
3.19762
3.13514
3.0672
2.99336
2.91768
2.8397
2.75203
2.67077
2.5979
2.52159
2.43376
2.3711
2.3152
2.26208
2.25656
2.30713
2.50489
2.91115
3.21504
3.17443
2.92858
3.20659
3.14475
3.07877
3.0072
2.93316
2.85879
2.77546
2.69121
2.61922
2.54767
2.46372
2.39193
2.33509
2.28089
2.26548
2.29645
2.4556
2.84859
3.21867
3.22463
3.03627
3.21512
3.15339
3.08842
3.01807
2.94563
2.87409
2.79717
2.71231
2.63834
2.57005
2.49312
2.41434
2.35362
2.29909
2.275
2.29195
2.41413
2.76503
3.18766
3.25784
3.12184
3.22389
3.16218
3.09801
3.02868
2.95685
2.88618
2.81419
2.73239
2.6556
2.58772
2.51754
2.43868
2.37359
2.31436
2.28438
2.29299
2.37975
2.68089
3.13995
3.27427
3.17953
3.23281
3.17129
3.10793
3.03978
2.96812
2.89746
2.82819
2.75068
2.67117
2.60303
2.53715
2.46413
2.39307
2.33309
2.29537
2.29601
2.35197
2.60158
3.07407
3.28502
3.22267
3.242
3.18084
3.11811
3.05167
2.98075
2.90938
2.8411
2.76801
2.68838
2.61765
2.55377
2.48886
2.41454
2.35201
2.30808
2.2986
2.33268
2.528
2.99591
3.28395
3.25187
3.25098
3.19055
3.12855
3.06403
2.99464
2.92285
2.8545
2.78496
2.7071
2.63445
2.57052
2.51115
2.4385
2.37162
2.3192
2.30235
2.32144
2.46449
2.91789
3.27366
3.26046
3.25949
3.20016
3.13889
3.07604
3.00926
2.93821
2.8692
2.80246
2.7283
2.65347
2.58892
2.53133
2.46321
2.39281
2.33195
2.30755
2.31926
2.41477
2.84063
3.24732
3.26427
3.26688
3.20858
3.14816
3.08652
3.02256
2.95353
2.88475
2.81942
2.75027
2.67456
2.60854
2.55074
2.48726
2.41448
2.34885
2.31636
2.32011
2.37947
2.75609
3.21369
3.2664
3.27395
3.21635
3.15673
3.09566
3.03378
2.96734
2.89953
2.83516
2.77023
2.69597
2.62816
2.56811
2.51
2.43801
2.37019
2.32701
2.3231
2.35791
2.66631
3.17859
3.26989
3.28123
3.22395
3.16478
3.10392
3.0431
2.97905
2.91238
2.84818
2.78648
2.71501
2.64553
2.58475
2.52858
2.46072
2.39301
2.3398
2.32545
2.34478
2.57711
3.1403
3.26777
3.28908
3.23189
3.17308
3.11242
3.05187
2.9897
2.92426
2.85961
2.79927
2.73223
2.66132
2.5996
2.54446
2.48245
2.41441
2.35458
2.32994
2.33781
2.49681
3.09817
3.26564
3.29762
3.24025
3.18178
3.12152
3.06098
3.00007
2.93616
2.87093
2.81032
2.74731
2.67687
2.61362
2.55826
2.50184
2.43479
2.37145
2.33643
2.33325
2.43264
3.02926
3.26319
3.30665
3.24892
3.19074
3.13133
3.07088
3.01082
2.94865
2.88333
2.82115
2.76136
2.69299
2.62809
2.5717
2.51983
2.45454
2.3902
2.34483
2.33292
2.39021
2.94409
3.26177
3.31575
3.25764
3.19973
3.14157
3.08162
3.02212
2.96176
2.89717
2.83327
2.7749
2.71052
2.64435
2.58606
2.53641
2.4751
2.41007
2.354
2.33547
2.36653
2.8489
3.25272
3.32467
3.26635
3.20859
3.15185
3.09291
3.03367
2.97484
2.91198
2.84724
2.78878
2.72861
2.6629
2.60247
2.55212
2.4965
2.43075
2.36904
2.34109
2.35412
2.74726
3.22964
3.33343
3.27528
3.21766
3.16191
3.10416
3.04476
2.98669
2.92626
2.86212
2.80268
2.74617
2.68305
2.62048
2.56766
2.51586
2.45328
2.38858
2.34992
2.34864
2.64201
3.18776
3.34205
3.28444
3.22709
3.17172
3.11506
3.0556
2.99717
2.93874
2.87685
2.81642
2.76145
2.70184
2.63883
2.58261
2.53295
2.47492
2.41018
2.36168
2.34683
2.54442
3.14768
3.35115
3.29436
3.23736
3.18172
3.12562
3.06649
3.00697
2.94931
2.89038
2.82917
2.77372
2.71775
2.65657
2.59627
2.54706
2.49356
2.43279
2.37044
2.34574
2.46577
3.10261
3.36066
3.30476
3.24828
3.19199
3.13577
3.07729
3.01721
2.95887
2.90232
2.84231
2.78464
2.72973
2.67183
2.61055
2.55866
2.50875
2.45159
2.38484
2.34787
2.41425
3.02401
3.37103
3.31569
3.25964
3.2028
3.14594
3.08816
3.02841
2.96945
2.91356
2.85559
2.79597
2.74042
2.68551
2.62487
2.56988
2.52225
2.46939
2.40308
2.3535
2.38591
2.91675
3.38171
3.32667
3.27071
3.21369
3.15615
3.09896
3.04038
2.98139
2.92491
2.86886
2.80934
2.75105
2.69747
2.64006
2.58337
2.53363
2.48563
2.42384
2.36457
2.37538
2.78907
3.39251
3.33741
3.28134
3.22446
3.16682
3.11
3.0529
2.99497
2.93766
2.88193
2.82374
2.76434
2.70937
2.65469
2.59857
2.54747
2.50152
2.44691
2.38061
2.3768
2.66548
3.40286
3.34755
3.29122
3.23469
3.17751
3.1213
3.06526
3.00881
2.95136
2.89531
2.83831
2.77958
2.72248
2.66948
2.61597
2.56384
2.51656
2.46929
2.40245
2.37803
2.5626
3.41329
3.35761
3.30107
3.24498
3.18847
3.133
3.07758
3.02223
2.96542
2.90882
2.85213
2.79585
2.73826
2.68376
2.63264
2.58212
2.53337
2.48771
2.42534
2.3804
2.48582
3.42357
3.36746
3.31078
3.25518
3.19936
3.14456
3.08964
3.03445
2.97846
2.9223
2.86522
2.81063
2.75432
2.69898
2.64806
2.59993
2.54915
2.50371
2.44464
2.38482
2.43674
3.43462
3.37808
3.32131
3.26616
3.21074
3.15618
3.10162
3.04646
2.99072
2.9353
2.87795
2.82399
2.77001
2.71452
2.66156
2.61618
2.56466
2.51781
2.46011
2.39133
2.40871
3.4459
3.38912
3.33228
3.27737
3.2223
3.1677
3.11324
3.05808
3.00235
2.94772
2.89082
2.83639
2.78347
2.73029
2.67556
2.62899
2.57856
2.53098
2.47446
2.40132
2.40225
3.45792
3.40103
3.34427
3.28942
3.2344
3.17958
3.12505
3.07016
3.01451
2.95992
2.90387
2.84978
2.79661
2.74465
2.69019
2.6412
2.59209
2.54368
2.48903
2.41703
2.40224
3.47004
3.41324
3.35657
3.30163
3.24656
3.19162
3.13701
3.08218
3.02702
2.9727
2.91719
2.86341
2.81019
2.75877
2.70602
2.65394
2.60406
2.55676
2.50577
2.4335
2.40788
3.48244
3.42576
3.36923
3.31422
3.25903
3.20383
3.14938
3.09486
3.04012
2.98591
2.93105
2.87799
2.82534
2.77267
2.72144
2.66879
2.6164
2.56918
2.5235
2.45749
2.41748
3.49485
3.43829
3.38181
3.32665
3.27141
3.2162
3.16193
3.10755
3.05325
2.99969
2.9455
2.89238
2.84049
2.78762
2.73631
2.6837
2.63036
2.58178
2.54229
2.48466
2.43543
3.50732
3.4507
3.39427
3.33903
3.28382
3.22854
3.17451
3.1206
3.06662
3.0132
2.95992
2.90725
2.85527
2.80223
2.75034
2.69834
2.64676
2.59657
2.56014
2.51154
2.46056
3.52003
3.46324
3.4068
3.35135
3.29619
3.24117
3.18732
3.1334
3.07981
3.02687
2.97421
2.92124
2.86905
2.81619
2.76459
2.71247
2.66261
2.61596
2.57775
2.53548
2.4858
3.53281
3.47573
3.41927
3.36375
3.30864
3.25371
3.20007
3.14635
3.09296
3.03999
2.98774
2.93506
2.88237
2.82938
2.77832
2.72812
2.67984
2.63564
2.59755
2.55636
2.50671
3.54608
3.48876
3.43223
3.37643
3.32136
3.26671
3.2132
3.15926
3.106
3.05322
3.00095
2.94797
2.89538
2.843
2.79333
2.74476
2.69878
2.65659
2.61671
2.57547
2.52493
3.55945
3.5019
3.44533
3.38937
3.33433
3.27975
3.22613
3.17229
3.11907
3.0659
3.01362
2.96118
2.90895
2.85745
2.81
2.76404
2.7196
2.67689
2.63467
2.59104
2.54104
3.57334
3.51571
3.45907
3.40282
3.34765
3.29319
3.2394
3.18516
3.13194
3.07883
3.02667
2.9747
2.92393
2.87472
2.82931
2.7845
2.74042
2.69604
2.65137
2.60397
2.5556
3.58738
3.52976
3.47297
3.41658
3.36128
3.30646
3.25218
3.19794
3.14465
3.09162
3.04037
2.98976
2.94109
2.89433
2.84987
2.8055
2.76026
2.71327
2.66534
2.61563
2.56643
3.60167
3.54426
3.48739
3.43079
3.37513
3.31987
3.26506
3.21055
3.15749
3.10553
3.05555
3.00697
2.96066
2.91573
2.87101
2.82476
2.77722
2.72801
2.67702
2.62593
2.57433
3.61602
3.55888
3.50196
3.44527
3.3892
3.33308
3.27783
3.22349
3.17138
3.12076
3.0728
3.02667
2.98146
2.93626
2.88958
2.84154
2.79091
2.7383
2.68654
2.63439
2.58261
3.63021
3.57339
3.5166
3.45982
3.40316
3.34658
3.29138
3.23771
3.18723
3.13881
3.09245
3.0472
3.00158
2.9547
2.90551
2.85365
2.80073
2.74698
2.69442
2.64378
2.59352
3.64428
3.58767
3.53098
3.47419
3.41722
3.36072
3.30648
3.25482
3.20613
3.15923
3.1136
3.06743
3.01983
2.96919
2.91663
2.86306
2.80867
2.75427
2.70223
2.65336
2.60514
3.65802
3.60137
3.54479
3.4881
3.43149
3.37627
3.32421
3.27498
3.22803
3.18152
3.13441
3.0854
3.03379
2.98037
2.92536
2.8698
2.81523
2.76122
2.71124
2.66482
2.61882
3.67172
3.61469
3.55821
3.50209
3.44695
3.39438
3.34548
3.29838
3.25142
3.20293
3.1523
3.09951
3.04438
2.98798
2.93169
2.87641
2.82265
2.77031
2.72171
2.6783
2.63574
3.68518
3.62769
3.57168
3.51687
3.46457
3.41554
3.36926
3.3221
3.27299
3.22098
3.16604
3.10968
3.05225
2.99457
2.93801
2.88346
2.83171
2.78214
2.73562
2.69442
2.65478
3.69884
3.64138
3.58675
3.53468
3.4855
3.43915
3.39296
3.34384
3.29055
3.23407
3.1761
3.11771
3.05916
3.00098
2.94509
2.89295
2.84412
2.79793
2.75381
2.71286
2.67298
3.71303
3.65706
3.60497
3.55601
3.50894
3.46303
3.41359
3.35973
3.3025
3.24294
3.18319
3.12441
3.06586
3.00849
2.95464
2.90593
2.86023
2.81675
2.77454
2.73294
2.69172
3.72929
3.67669
3.62782
3.58043
3.5332
3.48299
3.42876
3.3707
3.31033
3.24921
3.18917
3.13123
3.07409
3.01861
2.96786
2.92246
2.87947
2.83746
2.79549
2.75224
2.70897
3.74937
3.70086
3.65345
3.60425
3.55275
3.4969
3.43767
3.37692
3.31578
3.25488
3.19557
3.1391
3.08473
3.03314
2.98581
2.94248
2.89994
2.85717
2.81415
2.7701
2.72549
3.77482
3.72787
3.67833
3.62438
3.56625
3.50534
3.44327
3.38165
3.32033
3.26
3.20306
3.15014
3.09967
3.05179
3.00723
2.96371
2.91929
2.87507
2.83081
2.78595
2.74103
3.80268
3.75244
3.69711
3.63712
3.57442
3.51072
3.44736
3.38596
3.32566
3.26755
3.21419
3.16497
3.11785
3.07268
3.02929
2.98441
2.93748
2.89068
2.84535
2.80089
2.75648
3.82701
3.77053
3.70937
3.6451
3.57968
3.51517
3.45258
3.39253
3.33436
3.27891
3.22936
3.18336
3.13793
3.09382
3.05001
3.00294
2.95411
2.90646
2.86055
2.8159
2.77195
3.84163
3.77987
3.71525
3.64998
3.58469
3.52063
3.46012
3.40245
3.34712
3.29475
3.24854
3.20355
3.15785
3.11298
3.06797
3.01996
2.97055
2.92272
2.87663
2.83184
2.78773
3.84841
3.78397
3.71917
3.6545
3.59088
3.5288
3.47122
3.41669
3.36427
3.31453
3.26968
3.22377
3.17647
3.13076
3.0845
3.03581
2.98681
2.94006
2.8941
2.84845
2.8032
3.85157
3.78675
3.72352
3.66127
3.60021
3.54127
3.48688
3.43486
3.38376
3.33565
3.29018
3.24275
3.19385
3.14702
3.09976
3.05142
3.0035
2.95749
2.91123
2.8647
2.8188
3.8546
3.7917
3.73138
3.67249
3.61406
3.55819
3.50549
3.4545
3.40379
3.35659
3.30956
3.26036
3.21064
3.16327
3.11494
3.06628
3.01919
2.97396
2.92765
2.88039
2.83415
3.86042
3.80181
3.7456
3.6895
3.63245
3.57806
3.52558
3.47443
3.42355
3.37619
3.32818
3.27771
3.22752
3.17894
3.12963
3.08074
3.03442
2.9892
2.94264
2.89561
2.85023
3.87124
3.81825
3.76485
3.70903
3.65214
3.59787
3.54514
3.49337
3.44335
3.3955
3.34599
3.29394
3.24379
3.19426
3.14416
3.09476
3.0485
3.00343
2.95758
2.9115
2.86716
1.29858
0.891537
0.7144
0.731082
0.784434
0.858716
0.961025
1.0422
1.08902
1.10549
1.10571
1.09534
1.07691
1.06475
1.0573
1.05153
1.04838
1.04706
1.04808
1.04989
1.04766
1.04309
1.03713
1.03171
1.02743
1.0254
1.02984
1.0402
1.04028
1.03707
1.03488
1.03384
1.03319
1.03215
1.03102
1.03253
1.04078
1.05119
1.05699
1.05986
1.06272
1.06293
1.06125
1.06084
1.06189
1.06489
1.06897
1.07328
1.07736
1.08216
1.08833
1.09642
1.10686
1.11747
1.12226
1.12421
1.12674
1.13081
1.13755
1.14401
1.1466
1.14805
1.14896
1.14824
1.14535
1.14387
1.14366
1.14343
1.14316
1.14344
1.14358
1.14337
1.1423
1.13959
1.13425
1.12591
1.11678
1.1096
1.1044
1.10023
1.09679
1.09395
1.09112
1.08702
1.07917
1.06849
1.05838
1.05048
1.04441
1.03923
1.03443
1.02996
1.02595
1.02246
1.01938
1.01648
1.01307
1.00902
1.0062
1.00667
1.00885
1.01143
1.01183
1.0093
1.00285
0.996567
0.994601
0.995563
0.997295
1.00044
1.00574
1.01107
1.01338
1.01405
1.01171
1.01009
1.01155
1.01432
1.01988
1.02831
1.03412
1.03542
1.03543
1.03521
1.03565
1.03711
1.04051
1.04545
1.05
1.05372
1.0576
1.06075
1.06154
1.06008
1.05865
1.05824
1.06074
1.06665
1.07306
1.07773
1.08078
1.08262
1.08239
1.07984
1.07483
1.07205
1.07054
1.07121
1.07459
1.07703
1.07822
1.07969
1.08183
1.08252
1.08226
1.08347
1.0855
1.08495
1.08367
1.08264
1.08288
1.08311
1.08161
1.0794
1.07753
1.07608
1.0743
1.07217
1.07018
1.06914
1.06867
1.06936
1.07404
1.08131
1.08443
1.08384
1.08279
1.0814
1.07912
1.07678
1.07573
1.0753
1.07519
1.0764
1.08109
1.08753
1.08987
1.09049
1.09106
1.09076
1.09008
1.09066
1.09168
1.09322
1.09611
1.10044
1.10397
1.1064
1.10852
1.11034
1.11205
1.11388
1.11627
1.11974
1.12169
1.1221
1.12227
1.12205
1.12063
1.11812
1.11602
1.11545
1.11547
1.11587
1.11723
1.11742
1.11661
1.11534
1.11329
1.10995
1.10542
1.10075
1.09697
1.09405
1.09142
1.08879
1.08628
1.08424
1.08212
1.07921
1.75057
1.3777
1.11995
1.01824
0.978324
0.961303
0.981093
1.01771
1.05844
1.09115
1.10397
1.09907
1.08863
1.08163
1.07478
1.06912
1.06499
1.06231
1.05943
1.05815
1.05553
1.05098
1.0468
1.04283
1.0394
1.03755
1.03899
1.04138
1.04044
1.03979
1.04016
1.04094
1.04147
1.04218
1.0433
1.04547
1.04978
1.05379
1.05658
1.05864
1.06052
1.06213
1.06358
1.06558
1.06897
1.07374
1.07822
1.08144
1.08405
1.08742
1.09269
1.10034
1.10989
1.12143
1.1304
1.13398
1.13596
1.13871
1.14226
1.14567
1.1497
1.1529
1.15421
1.15443
1.15439
1.15459
1.15418
1.15276
1.15046
1.14773
1.1455
1.14396
1.14271
1.14083
1.13727
1.13199
1.12582
1.11942
1.11284
1.10608
1.09972
1.09444
1.0898
1.08474
1.07855
1.07086
1.06285
1.05619
1.05107
1.04693
1.04327
1.03971
1.03607
1.03231
1.02839
1.02396
1.0184
1.0113
1.00606
1.00493
1.00537
1.00747
1.01009
1.01056
1.01001
1.00756
1.00359
1.00059
1.00065
1.00233
1.00502
1.00773
1.0098
1.01148
1.01303
1.01433
1.01578
1.01803
1.02189
1.02742
1.03234
1.03632
1.03952
1.04192
1.04362
1.04521
1.04709
1.04897
1.05063
1.05223
1.0537
1.05538
1.05755
1.06082
1.06383
1.06678
1.07043
1.07414
1.0769
1.07827
1.07807
1.07745
1.07713
1.07787
1.07934
1.08029
1.08121
1.08192
1.08118
1.07967
1.07847
1.07787
1.07811
1.0804
1.08421
1.08642
1.08565
1.08433
1.08306
1.08193
1.08048
1.07944
1.07885
1.07967
1.08232
1.08342
1.08229
1.08047
1.07819
1.07601
1.07457
1.07401
1.07518
1.07914
1.08267
1.08387
1.08338
1.08251
1.08135
1.07926
1.07649
1.07518
1.07502
1.0759
1.07981
1.08554
1.08865
1.0896
1.09036
1.09144
1.09293
1.09463
1.09655
1.09849
1.10061
1.10282
1.10456
1.10618
1.10805
1.11031
1.11266
1.11503
1.11813
1.12253
1.12547
1.12626
1.12649
1.12622
1.12466
1.12131
1.1173
1.11539
1.11504
1.11505
1.11564
1.11679
1.11665
1.1158
1.11438
1.11214
1.10916
1.10572
1.1021
1.09832
1.09433
1.09034
1.08661
1.08322
1.08074
1.07901
2.058
1.6844
1.40299
1.1994
1.1183
1.05375
1.00557
1.01939
1.0571
1.1106
1.14519
1.14837
1.13979
1.13632
1.13244
1.12561
1.11646
1.10516
1.09221
1.08108
1.07344
1.06784
1.06491
1.06429
1.06625
1.07169
1.07504
1.07212
1.0678
1.06387
1.0612
1.05907
1.05747
1.05777
1.06297
1.06973
1.0733
1.07465
1.07648
1.07749
1.07712
1.07734
1.07884
1.08179
1.0881
1.09726
1.10323
1.10559
1.10655
1.10799
1.1113
1.11669
1.12389
1.13384
1.14572
1.15546
1.1605
1.1639
1.16666
1.16859
1.16948
1.16946
1.16859
1.16851
1.16991
1.17194
1.17329
1.1738
1.17365
1.17173
1.16802
1.16317
1.15727
1.15113
1.1465
1.14356
1.14119
1.13881
1.13577
1.13104
1.12405
1.11493
1.1044
1.0939
1.08486
1.07736
1.07104
1.06563
1.061
1.05731
1.05473
1.05308
1.05191
1.05095
1.04991
1.04773
1.0421
1.03065
1.01677
1.00856
1.00636
1.00625
1.00739
1.01118
1.01579
1.01803
1.01926
1.01968
1.01831
1.01521
1.01142
1.00859
1.0076
1.00853
1.0117
1.01724
1.02246
1.02604
1.02828
1.02963
1.03116
1.03474
1.04062
1.04708
1.05303
1.05826
1.06212
1.06381
1.0638
1.06231
1.05944
1.05767
1.05769
1.06163
1.06902
1.07693
1.08472
1.09053
1.09171
1.09043
1.08729
1.0827
1.07967
1.07901
1.08252
1.08974
1.09646
1.09892
1.09806
1.0957
1.09173
1.08789
1.08583
1.08546
1.09108
1.0961
1.09534
1.0938
1.09172
1.08852
1.08505
1.08287
1.08167
1.08224
1.08739
1.09126
1.09114
1.09033
1.08955
1.08902
1.08862
1.08813
1.0877
1.0876
1.08875
1.08991
1.0898
1.08959
1.08946
1.0891
1.08836
1.08741
1.08665
1.08636
1.08722
1.08937
1.09012
1.09045
1.09089
1.09241
1.09498
1.09826
1.10241
1.10772
1.11203
1.1137
1.11456
1.11486
1.11469
1.11501
1.11632
1.11802
1.1207
1.12537
1.12954
1.13179
1.1332
1.13394
1.13404
1.13257
1.12806
1.12281
1.11979
1.1181
1.11713
1.11683
1.11672
1.11602
1.11498
1.11399
1.113
1.112
1.11095
1.10924
1.10568
1.09957
1.09215
1.08579
1.08143
1.07853
2.31574
1.96316
1.6849
1.44482
1.32462
1.23768
1.13328
1.09032
1.09958
1.1119
1.13454
1.1555
1.16806
1.1807
1.1821
1.17689
1.16697
1.15087
1.13481
1.1254
1.11803
1.11064
1.10572
1.10314
1.10277
1.10541
1.10456
1.10174
1.09908
1.09656
1.09468
1.09269
1.09099
1.09127
1.09666
1.10175
1.10205
1.10156
1.10222
1.10399
1.10451
1.10467
1.10574
1.10919
1.1161
1.12387
1.12806
1.13089
1.13337
1.13588
1.14008
1.14641
1.15388
1.16251
1.17385
1.18404
1.1885
1.19181
1.19524
1.19925
1.20215
1.20381
1.20435
1.2042
1.20401
1.20411
1.20402
1.20354
1.20246
1.20068
1.19805
1.19435
1.1895
1.18387
1.17832
1.1733
1.16896
1.16533
1.1621
1.15851
1.15362
1.14656
1.13742
1.12768
1.11915
1.11236
1.10652
1.10069
1.0946
1.08852
1.08271
1.07777
1.07453
1.07288
1.07189
1.07022
1.06627
1.05831
1.04728
1.03859
1.03395
1.03184
1.03127
1.03188
1.03253
1.03352
1.03507
1.03645
1.03641
1.03474
1.03254
1.03118
1.03111
1.03149
1.03352
1.03751
1.04169
1.04505
1.0472
1.04858
1.04993
1.05173
1.05534
1.06078
1.06653
1.07118
1.07444
1.07655
1.07776
1.07823
1.07827
1.07837
1.07976
1.08394
1.09019
1.09653
1.10216
1.10608
1.10694
1.1059
1.10361
1.10151
1.10003
1.09929
1.10216
1.10924
1.11418
1.11467
1.11365
1.11167
1.10923
1.10746
1.10606
1.10614
1.11065
1.1133
1.11247
1.11128
1.10955
1.1069
1.10451
1.10317
1.10223
1.10277
1.10697
1.10896
1.10824
1.10711
1.10606
1.10542
1.10515
1.10508
1.10454
1.10392
1.10395
1.10367
1.10312
1.1025
1.10188
1.10166
1.10176
1.10198
1.10243
1.10366
1.10632
1.10838
1.10877
1.10889
1.10846
1.10857
1.10964
1.11121
1.11371
1.11812
1.1234
1.12617
1.12785
1.1294
1.13074
1.13138
1.13199
1.13339
1.13545
1.1382
1.14052
1.14181
1.14264
1.14325
1.14348
1.1426
1.14024
1.13775
1.13646
1.13585
1.1353
1.1344
1.13311
1.13127
1.12874
1.12579
1.1232
1.12156
1.12039
1.11874
1.11572
1.11126
1.10673
1.10308
1.09978
1.0962
2.53857
2.21103
1.92958
1.68624
1.52748
1.40733
1.27794
1.18621
1.15862
1.12891
1.13031
1.15253
1.18023
1.20242
1.22596
1.22933
1.22326
1.20717
1.18675
1.17434
1.16588
1.15609
1.14905
1.14617
1.14624
1.14528
1.14163
1.13688
1.13333
1.13107
1.12953
1.12903
1.13059
1.13538
1.13853
1.13716
1.13486
1.13211
1.1308
1.13057
1.13066
1.13122
1.13408
1.1416
1.15118
1.1564
1.15847
1.16049
1.16326
1.16567
1.16888
1.17458
1.18312
1.19376
1.20818
1.22011
1.22475
1.22781
1.22988
1.23186
1.23457
1.23751
1.2406
1.24225
1.24309
1.24371
1.24382
1.24247
1.23896
1.2343
1.22959
1.22532
1.22162
1.21836
1.2153
1.21238
1.2096
1.20661
1.20271
1.19716
1.18965
1.18057
1.17107
1.16286
1.15697
1.15289
1.14943
1.14578
1.14158
1.13681
1.13157
1.12603
1.12021
1.11395
1.10734
1.10061
1.09345
1.08544
1.07667
1.07113
1.07
1.06994
1.07178
1.07308
1.07289
1.07105
1.06638
1.06001
1.05578
1.05455
1.05496
1.05685
1.06017
1.06493
1.06987
1.0726
1.07322
1.07314
1.07307
1.07391
1.07606
1.07988
1.08553
1.09126
1.0945
1.09537
1.09544
1.09527
1.09545
1.09634
1.09831
1.10213
1.10869
1.11705
1.12452
1.12908
1.13029
1.12976
1.12811
1.12582
1.12463
1.12449
1.12623
1.13064
1.13654
1.13988
1.13944
1.13782
1.13521
1.13301
1.13188
1.13127
1.13216
1.13639
1.13967
1.13905
1.13735
1.13431
1.1306
1.12852
1.12763
1.12703
1.12727
1.13117
1.13641
1.13712
1.13632
1.13518
1.13306
1.13041
1.12918
1.12837
1.1277
1.12732
1.12691
1.12613
1.12526
1.12409
1.12249
1.12144
1.12114
1.12106
1.12135
1.12313
1.12677
1.12918
1.13025
1.1312
1.13201
1.13261
1.13374
1.13523
1.13685
1.13904
1.14234
1.14457
1.14594
1.14725
1.14843
1.15012
1.15231
1.15558
1.15981
1.16254
1.16369
1.16423
1.1641
1.1621
1.15853
1.15549
1.15424
1.15398
1.15395
1.15455
1.15595
1.15625
1.15584
1.1548
1.15308
1.15069
1.14764
1.14383
1.13897
1.13304
1.12735
1.1237
1.12215
1.12137
1.12061
1.11951
2.7227
2.42989
2.15617
1.90825
1.73563
1.59269
1.45148
1.33809
1.28252
1.22551
1.18244
1.18455
1.1959
1.20728
1.2206
1.23075
1.23452
1.23277
1.22927
1.22225
1.2123
1.20184
1.19017
1.18452
1.18215
1.17758
1.17092
1.16537
1.163
1.16085
1.15939
1.15946
1.16352
1.16903
1.16867
1.16625
1.16324
1.15909
1.15543
1.15463
1.15447
1.15483
1.15828
1.16624
1.17384
1.17728
1.17901
1.18119
1.18474
1.18857
1.19227
1.1982
1.20757
1.21871
1.23046
1.24183
1.24779
1.25204
1.25607
1.26008
1.26373
1.26772
1.27263
1.27506
1.27596
1.27666
1.27665
1.27404
1.26853
1.26281
1.25837
1.25488
1.25174
1.24875
1.24659
1.24539
1.24438
1.24289
1.2401
1.23506
1.22795
1.21998
1.2124
1.2059
1.20062
1.19643
1.193
1.18975
1.18588
1.18091
1.17552
1.17053
1.16557
1.16001
1.15362
1.14642
1.13843
1.13067
1.12359
1.11801
1.11561
1.11513
1.11592
1.11668
1.11618
1.113
1.10546
1.09756
1.09403
1.09323
1.09327
1.09538
1.10011
1.10533
1.10856
1.10919
1.10857
1.10648
1.10534
1.10538
1.10693
1.11145
1.11736
1.12141
1.12321
1.1241
1.12468
1.12527
1.12603
1.12733
1.13029
1.13614
1.14425
1.1517
1.15634
1.15787
1.15768
1.15629
1.15452
1.15351
1.15311
1.15388
1.15828
1.16472
1.16817
1.16795
1.16655
1.16443
1.1625
1.16131
1.16058
1.16091
1.16459
1.16834
1.16824
1.16684
1.16384
1.15901
1.15554
1.15444
1.15372
1.15327
1.15495
1.16064
1.16362
1.16318
1.16243
1.16146
1.15956
1.15668
1.15509
1.15436
1.15386
1.15358
1.15303
1.15223
1.1512
1.14966
1.14808
1.14741
1.14712
1.14705
1.14771
1.15054
1.15426
1.15557
1.15607
1.15647
1.15619
1.15532
1.15603
1.15731
1.15881
1.16094
1.16459
1.16884
1.17082
1.17227
1.17346
1.175
1.17738
1.1807
1.18372
1.18521
1.18618
1.18673
1.18649
1.18441
1.18142
1.17993
1.17976
1.17991
1.1804
1.18129
1.1815
1.18104
1.18001
1.17844
1.17661
1.17447
1.17167
1.16786
1.16287
1.1575
1.15374
1.15217
1.15111
1.14952
1.14732
1.14547
2.87078
2.60996
2.35289
2.11297
1.93169
1.77715
1.61541
1.49615
1.41941
1.34621
1.26445
1.22969
1.22569
1.21611
1.21952
1.22929
1.23936
1.24367
1.24757
1.25484
1.25315
1.24838
1.23852
1.22986
1.2212
1.21074
1.19797
1.18777
1.18488
1.18347
1.1828
1.18426
1.18999
1.1938
1.19272
1.1903
1.18608
1.18031
1.17604
1.1746
1.17397
1.1742
1.17772
1.18318
1.1871
1.18969
1.19116
1.19261
1.19569
1.20074
1.20597
1.21243
1.22327
1.2354
1.24653
1.259
1.26544
1.26878
1.27267
1.27722
1.28225
1.28891
1.29633
1.29827
1.2984
1.29806
1.2961
1.29138
1.28515
1.28101
1.27913
1.27758
1.27566
1.27372
1.27273
1.27207
1.27074
1.26823
1.26392
1.25835
1.25304
1.24851
1.24495
1.24224
1.23973
1.2372
1.23476
1.23193
1.22749
1.22057
1.21292
1.20669
1.20165
1.19678
1.19145
1.18557
1.17989
1.17527
1.17178
1.16887
1.1663
1.16418
1.16217
1.15948
1.15415
1.14557
1.13835
1.13572
1.13501
1.13495
1.13659
1.14046
1.14479
1.1472
1.14737
1.14628
1.14357
1.14167
1.14134
1.14168
1.1442
1.14847
1.15069
1.15088
1.15032
1.15026
1.15113
1.15275
1.15534
1.15963
1.16633
1.17451
1.18134
1.18439
1.18463
1.18312
1.18038
1.17883
1.17863
1.17937
1.18168
1.18648
1.19232
1.19461
1.19389
1.19124
1.18769
1.18532
1.18421
1.18386
1.18562
1.19056
1.1951
1.19587
1.19509
1.1922
1.18697
1.18234
1.18038
1.17937
1.17861
1.17864
1.18228
1.18694
1.18712
1.18641
1.18585
1.18508
1.18312
1.17976
1.17754
1.17642
1.17559
1.17489
1.17422
1.1735
1.17234
1.17057
1.16935
1.16899
1.16887
1.16911
1.17094
1.17528
1.17883
1.17994
1.1805
1.18056
1.17841
1.17672
1.17751
1.17871
1.18007
1.18208
1.18569
1.19082
1.19381
1.19584
1.19823
1.20083
1.20292
1.20456
1.20596
1.20681
1.20717
1.20714
1.20593
1.20382
1.20262
1.20243
1.20248
1.20281
1.20396
1.20557
1.20634
1.20662
1.2062
1.20448
1.20133
1.19719
1.19269
1.1881
1.18386
1.18133
1.1806
1.1803
1.18012
1.17932
1.17776
1.17607
2.98526
2.75613
2.51964
2.29219
2.10603
1.9466
1.78236
1.65795
1.56576
1.4814
1.38558
1.33403
1.30239
1.26565
1.24669
1.24593
1.24849
1.24687
1.24603
1.25385
1.26373
1.26917
1.26898
1.26439
1.25578
1.24453
1.22958
1.21735
1.2113
1.20787
1.20523
1.20494
1.20732
1.20884
1.20713
1.20283
1.1972
1.19307
1.19153
1.19098
1.19085
1.19294
1.19751
1.19943
1.19956
1.19989
1.19859
1.19747
1.19925
1.20343
1.20945
1.21722
1.22929
1.24333
1.25504
1.26766
1.28045
1.28505
1.28706
1.2894
1.29302
1.29968
1.30682
1.30885
1.30934
1.30901
1.3067
1.30209
1.29752
1.29562
1.29432
1.29271
1.2907
1.28869
1.28684
1.28486
1.28199
1.27795
1.27364
1.27003
1.2677
1.26693
1.26736
1.26949
1.27081
1.27051
1.26888
1.26479
1.25708
1.24769
1.23985
1.23436
1.22998
1.22578
1.22146
1.2175
1.21524
1.21446
1.21395
1.21261
1.21004
1.20621
1.20074
1.19299
1.1834
1.17527
1.17177
1.17065
1.17045
1.17278
1.17804
1.1826
1.18386
1.18308
1.1803
1.17631
1.17388
1.17325
1.17334
1.17482
1.17774
1.17944
1.17945
1.178
1.17611
1.17599
1.17699
1.17955
1.18488