/*--------------------------------*- C++ -*----------------------------------*\
  =========                 |
  \\      /  F ield         | OpenFOAM: The Open Source CFD Toolbox
   \\    /   O peration     | Website:  https://openfoam.org
    \\  /    A nd           | Version:  7
     \\/     M anipulation  |
\*---------------------------------------------------------------------------*/
FoamFile
{
    version     2.0;
    format      ascii;
    class       volScalarField;
    location    "14";
    object      p;
}
// * * * * * * * * * * * * * * * * * * * * * * * * * * * * * * * * * * * * * //

dimensions      [1 -1 -2 0 0 0 0];

internalField   nonuniform List<scalar> 
3328
(
440.904
29.3675
13.4299
13.5052
13.509
13.497
13.4861
13.4965
13.5703
13.6973
13.8048
13.8576
13.873
13.87
13.8677
13.8927
13.9725
14.0965
14.2089
14.2776
14.3049
14.2993
14.2838
14.2809
440.718
29.3388
13.4277
13.5021
13.5101
13.501
13.4904
13.4967
13.5617
13.6782
13.7797
13.8314
13.851
13.8566
13.8623
13.8926
13.9724
14.0923
14.1998
14.2634
14.2839
14.27
14.2447
14.233
440.512
29.3054
13.4241
13.4984
13.5138
13.509
13.5001
13.5026
13.5534
13.6568
13.7509
13.7994
13.8185
13.8298
13.8451
13.8805
13.9582
14.0704
14.171
14.2315
14.2511
14.237
14.209
14.1925
440.312
29.237
13.4175
13.4923
13.5163
13.5163
13.5092
13.5056
13.5402
13.6258
13.7112
13.7567
13.7744
13.7883
13.81
13.8524
13.9313
14.0385
14.1357
14.1959
14.216
14.1957
14.1534
14.1227
440.164
29.1365
13.408
13.4834
13.516
13.521
13.5148
13.5053
13.5238
13.5859
13.6628
13.7081
13.7249
13.7364
13.7589
13.8031
13.8801
13.9794
14.0696
14.1254
14.1428
14.1237
14.0829
14.0643
440.141
28.9968
13.3964
13.4715
13.5125
13.5234
13.517
13.501
13.5031
13.5403
13.6082
13.6546
13.6715
13.677
13.693
13.7319
13.8017
13.893
13.9836
14.0513
14.0851
14.0769
14.0296
13.9668
440.244
28.8012
13.3854
13.4566
13.5055
13.5232
13.5172
13.493
13.4814
13.4982
13.5494
13.5964
13.6157
13.6143
13.6183
13.6441
13.7016
13.7837
13.87
13.9361
13.9596
13.9131
13.8622
13.8542
440.493
28.5465
13.3752
13.4356
13.4929
13.5171
13.5136
13.4842
13.4621
13.4614
13.4936
13.5395
13.5605
13.5525
13.5418
13.5486
13.5862
13.6541
13.7317
13.7927
13.8125
13.7922
13.7396
13.9561
440.826
28.2786
13.3687
13.3946
13.4663
13.5002
13.5023
13.476
13.4466
13.4344
13.4516
13.4865
13.5083
13.4973
13.471
13.4558
13.4662
13.5152
13.5819
13.6354
13.6307
13.5687
13.1728
12.6294
441.099
28.1412
13.3089
13.3387
13.419
13.4656
13.4801
13.4655
13.4341
13.4156
13.4251
13.4505
13.4669
13.4535
13.4134
13.3732
13.3532
13.3764
13.4266
13.4711
13.4543
13.3442
13.1469
12.621
441.22
28.1934
13.2223
13.2717
13.3463
13.4043
13.4361
13.4399
13.4185
13.3989
13.4047
13.4271
13.443
13.4282
13.3779
13.3084
13.2561
13.2453
13.2724
13.305
13.2885
13.1582
13.0212
12.5988
441.126
28.3859
13.1496
13.2002
13.2591
13.3231
13.3701
13.3952
13.3931
13.3769
13.381
13.4035
13.4241
13.417
13.3673
13.2743
13.1829
13.1283
13.1266
13.1479
13.1412
13.0492
12.9145
12.6233
440.855
28.6804
13.0957
13.1529
13.1856
13.2358
13.2889
13.3276
13.3507
13.3481
13.3483
13.3695
13.3952
13.401
13.3662
13.2678
13.1438
13.0396
12.9958
13.0026
12.9997
12.9464
12.8044
12.6207
440.479
28.9467
13.0687
13.1105
13.1258
13.1555
13.2004
13.2463
13.2856
13.3017
13.3063
13.3243
13.3513
13.3646
13.3476
13.266
13.1275
12.9823
12.8888
12.8641
12.8568
12.833
12.7245
12.5508
440.052
29.1792
13.0912
13.0812
13.0718
13.0841
13.1183
13.1563
13.1883
13.2243
13.2464
13.2675
13.2937
13.3089
13.3019
13.241
13.1102
12.9401
12.8008
12.7341
12.7131
12.6999
12.6276
12.4862
439.582
29.404
13.1163
13.0691
13.039
13.0326
13.0416
13.0585
13.0782
13.1171
13.1598
13.1941
13.223
13.2429
13.2398
13.1915
13.076
12.8985
12.7271
12.6167
12.5681
12.5532
12.5077
12.403
439.148
29.513
13.1432
13.0848
13.029
12.9934
12.9708
12.9645
12.9682
12.9934
13.0412
13.0974
13.1391
13.1695
13.1732
13.1328
13.033
12.8605
12.6688
12.5211
12.4375
12.4037
12.3717
12.2966
438.802
29.5047
13.1728
13.1103
13.0355
12.9752
12.9173
12.8847
12.8683
12.8686
12.9025
12.972
13.0393
13.0881
13.108
13.0798
12.9972
12.8378
12.6375
12.4596
12.3368
12.2671
12.2238
12.1647
438.546
29.3725
13.1925
13.1282
13.0466
12.9783
12.894
12.8238
12.7799
12.7527
12.7624
12.827
12.9215
12.9975
13.0443
13.038
12.9722
12.8321
12.6326
12.4331
12.276
12.1642
12.0861
12.0157
438.385
29.1076
13.2007
13.1387
13.0578
12.9931
12.8984
12.7899
12.7096
12.655
12.6379
12.6837
12.7935
12.8996
12.9757
12.9949
12.9441
12.8268
12.6384
12.4272
12.2437
12.098
11.9815
11.8781
438.321
28.7702
13.1959
13.1375
13.0595
13.0021
12.9098
12.7836
12.6745
12.5965
12.5535
12.5736
12.6763
12.8004
12.8908
12.9293
12.8998
12.802
12.6303
12.4173
12.2168
12.05
11.908
11.7779
438.34
28.4267
13.1757
13.1214
13.0461
12.9948
12.913
12.7917
12.6754
12.5882
12.5255
12.515
12.5865
12.7004
12.788
12.8349
12.8278
12.7488
12.5973
12.3888
12.1778
11.9988
11.8496
11.7133
438.442
28.1175
13.1437
13.0934
13.0226
12.9763
12.9072
12.8036
12.6978
12.6162
12.5422
12.5046
12.5281
12.6041
12.676
12.7234
12.7316
12.6757
12.5474
12.3506
12.1334
11.9428
11.7901
11.6601
438.613
27.8317
13.1062
13.0656
13.0026
12.9611
12.9001
12.8122
12.7172
12.6471
12.5745
12.5166
12.4903
12.5204
12.5689
12.6147
12.634
12.6012
12.4941
12.3126
12.0954
11.8927
11.7304
11.6012
438.818
27.5642
13.0632
13.0484
12.9971
12.9564
12.895
12.8067
12.7131
12.6524
12.5894
12.5206
12.4678
12.4531
12.4807
12.5264
12.5582
12.5444
12.4546
12.287
12.074
11.8587
11.678
11.5363
438.999
27.3557
13.0168
13.0356
12.997
12.9513
12.8804
12.7806
12.679
12.6182
12.5692
12.5057
12.4519
12.4112
12.4237
12.4604
12.4997
12.4997
12.4272
12.2761
12.0706
11.8453
11.6395
11.4745
439.093
27.2504
12.9709
13.012
12.9829
12.9305
12.8461
12.7327
12.6173
12.5503
12.5199
12.4783
12.4406
12.4039
12.3962
12.4118
12.4439
12.447
12.3861
12.2577
12.0732
11.8528
11.6269
11.4312
439.07
27.2493
12.924
12.9729
12.9482
12.8895
12.7927
12.6659
12.5427
12.4744
12.4577
12.448
12.431
12.4099
12.3865
12.3775
12.378
12.3706
12.3149
12.2076
12.0552
11.8617
11.6392
11.4212
438.945
27.3123
12.875
12.919
12.8936
12.8321
12.7314
12.5971
12.4772
12.4089
12.3949
12.4136
12.4157
12.4069
12.3865
12.3466
12.3106
12.2754
12.2155
12.1208
11.997
11.844
11.6553
11.443
438.767
27.3931
12.8246
12.8572
12.8299
12.7719
12.6793
12.5497
12.4333
12.3608
12.3399
12.368
12.3855
12.3828
12.3666
12.3095
12.2507
12.1883
12.1143
12.0221
11.9117
11.7891
11.6426
11.4633
438.606
27.4463
12.7792
12.796
12.7689
12.7233
12.6489
12.5332
12.4162
12.3342
12.2959
12.3061
12.3254
12.3313
12.3249
12.2827
12.205
12.1274
12.0409
11.9409
11.8279
11.7136
11.5925
11.4526
438.498
27.4819
12.7307
12.741
12.7218
12.6964
12.6446
12.5444
12.427
12.3278
12.2609
12.2349
12.2474
12.2651
12.2721
12.2582
12.1851
12.1024
12.0067
11.8972
11.7733
11.6485
11.5276
11.4087
438.453
27.5397
12.681
12.6914
12.6874
12.6849
12.6541
12.5691
12.4539
12.3372
12.2433
12.1869
12.1766
12.2002
12.227
12.239
12.1904
12.1111
12.0081
11.8879
11.7531
11.6145
11.4823
11.3632
438.435
27.6486
12.6295
12.6423
12.655
12.6694
12.6516
12.5819
12.4765
12.3581
12.2509
12.1782
12.1487
12.1618
12.1963
12.2217
12.2016
12.1311
12.0249
11.8952
11.7524
11.6056
11.4652
11.3379
438.383
27.9005
12.5861
12.5895
12.6132
12.6277
12.6107
12.56
12.4711
12.3747
12.2771
12.205
12.1703
12.1686
12.1894
12.2089
12.1975
12.1346
12.0271
11.8921
11.7478
11.6016
11.462
11.3334
438.269
28.3349
12.5464
12.5326
12.5433
12.5424
12.5216
12.4861
12.4283
12.3723
12.312
12.2634
12.2376
12.2291
12.2269
12.2172
12.1826
12.1107
12.0005
11.8652
11.7235
11.5835
11.4512
11.3275
438.128
28.8311
12.5237
12.4886
12.4602
12.4213
12.3999
12.3764
12.3555
12.3454
12.3419
12.3344
12.3299
12.3247
12.3054
12.2555
12.1793
12.0774
11.954
11.8146
11.6732
11.5375
11.4148
11.3032
438.018
29.2576
12.5063
12.4484
12.377
12.3157
12.2783
12.2584
12.2661
12.296
12.347
12.4016
12.4338
12.4266
12.3917
12.3147
12.1975
12.0569
11.9074
11.7523
11.6002
11.46
11.3415
11.2445
437.82
29.5022
12.5164
12.4373
12.3377
12.2558
12.1968
12.166
12.1814
12.2391
12.3353
12.4357
12.5
12.4989
12.4553
12.3642
12.2211
12.0538
11.8809
11.7065
11.5344
11.3774
11.2546
11.17
437.859
29.5876
12.5313
12.4415
12.3189
12.2153
12.1339
12.0884
12.1091
12.1918
12.3251
12.4751
12.5714
12.5781
12.5255
12.4178
12.2477
12.0592
11.8638
11.6689
11.4739
11.297
11.1647
11.0896
10.3207
11.3525
11.7873
12.06
12.2195
12.3634
12.4664
12.5072
12.148
12.3188
12.1216
12.1739
12.2311
12.3132
12.3828
12.4128
12.248
12.1982
12.0904
12.1637
12.1925
12.2705
12.2751
12.3624
12.3657
12.2917
12.2541
12.3049
12.2695
12.2439
12.187
12.2498
12.3875
12.3208
12.3058
12.3199
12.259
12.1729
12.0729
12.1117
12.4171
12.2878
12.2984
12.3278
12.2838
12.1704
12.0638
11.9924
12.349
12.281
12.2485
12.2776
12.2059
12.0389
11.8639
11.8197
12.2713
12.198
12.1546
12.1423
12.0466
11.8737
11.683
11.8546
12.177
12.0734
12.0295
11.989
11.8362
11.5075
10.7184
8.55863
12.0574
11.9449
11.8714
11.782
11.5698
11.0509
10.0511
7.92078
11.907
11.7721
11.6678
11.5374
11.2907
10.6979
9.69224
7.80985
11.7504
11.5847
11.4332
11.2645
10.999
10.4574
9.49613
8.00211
11.629
11.4315
11.2237
11.0059
10.7195
10.2473
9.43271
8.26697
11.5604
11.3547
11.1067
10.8355
10.5113
10.0833
9.41424
8.51884
11.5257
11.3437
11.0907
10.791
10.434
10.0169
9.44307
8.72664
11.4836
11.3407
11.1246
10.8349
10.471
10.0495
9.5323
8.91538
11.4182
11.3005
11.1317
10.8881
10.5575
10.1507
9.68177
9.12379
11.3398
11.2208
11.0753
10.8778
10.6131
10.2514
9.8437
9.34747
11.2669
11.1274
10.9819
10.8052
10.5911
10.2898
9.94992
9.52796
11.2238
11.0491
10.8845
10.7105
10.5209
10.2705
9.99263
9.64745
11.2293
11.0199
10.8243
10.6345
10.4514
10.2345
10.0012
9.71858
11.2625
11.0476
10.8373
10.6271
10.4308
10.2252
10.0116
9.76699
11.2865
11.0911
10.8878
10.6777
10.4755
10.2667
10.0509
9.81507
11.2793
11.1255
10.9525
10.7586
10.5574
10.3427
10.1152
9.86888
11.2513
11.1335
10.9975
10.8291
10.6389
10.4209
10.1799
9.91812
11.2251
11.1178
11.0025
10.8572
10.6818
10.4692
10.2235
9.95123
11.2168
11.1075
10.9944
10.8577
10.686
10.4764
10.2348
9.96563
11.2132
11.1016
10.9847
10.8507
10.6862
10.4817
10.2443
9.98209
11.2012
11.0964
10.9871
10.8598
10.7058
10.5137
10.2866
10.0328
11.1659
11.0872
11.0017
10.8951
10.7603
10.5865
10.3704
10.1183
11.1151
11.0695
11.0157
10.9376
10.8253
10.668
10.4605
10.2078
11.0604
11.0485
11.0284
10.9792
10.8892
10.746
10.5445
10.2882
2.39398
0.989285
0.708044
0.732585
0.899401
1.26999
1.85603
2.37839
2.92227
3.7268
4.49959
4.70621
5.06147
5.94182
6.39504
6.69983
6.80954
6.81583
6.78844
6.7845
6.84661
6.86933
6.7835
6.65563
6.52904
6.42206
6.32602
6.18612
6.02477
5.83443
5.653
5.50064
5.36487
5.23782
5.12516
5.02704
4.94869
4.91096
4.90002
4.85641
4.77537
4.68526
4.57841
4.44702
4.31182
4.20471
4.11429
4.02008
3.92694
3.83454
3.79174
3.85699
4.0988
4.68573
5.66302
6.30699
6.0258
5.73374
5.56115
5.49537
5.46317
5.46333
5.48918
5.52867
5.57424
5.61707
5.63274
5.59461
5.52552
5.41746
5.23372
5.03987
4.93711
4.89124
4.86156
4.85407
4.86737
4.88089
4.86574
4.82491
4.77997
4.72382
4.63895
4.52315
4.39172
4.30622
4.24915
4.21251
3.97736
2.44169
1.97851
1.65745
1.5563
1.58804
1.74046
2.00747
2.40675
3.01098
3.84515
4.31818
4.93141
5.98526
6.44723
6.65266
6.81094
6.86394
6.83496
6.78753
6.74417
6.68898
6.60893
6.5178
6.42702
6.34986
6.2738
6.16239
6.03598
5.90816
5.76726
5.61667
5.46592
5.31797
5.17616
5.05372
4.96217
4.88984
4.82341
4.76546
4.72669
4.6687
4.58637
4.4938
4.38493
4.266
4.14857
4.03517
3.93801
3.85798
3.83945
3.9341
4.19931
4.62212
5.34586
6.09689
5.97343
5.78617
5.67394
5.60429
5.55349
5.52645
5.52337
5.53504
5.5443
5.5376
5.51755
5.48131
5.41917
5.32963
5.22557
5.1343
5.03304
4.94264
4.89202
4.86786
4.86396
4.86071
4.82961
4.78418
4.7322
4.66939
4.59027
4.50047
4.41267
4.32484
4.25771
4.23913
5.32003
3.74982
3.05619
2.55875
2.11422
2.03508
1.99075
2.07691
2.32612
2.59988
3.0506
3.79584
4.65736
6.08978
6.60678
6.84809
6.8786
6.97164
7.00298
6.96571
6.83197
6.64588
6.5161
6.41819
6.3348
6.24706
6.15582
6.06985
5.98449
5.89877
5.80267
5.68254
5.5458
5.41447
5.29492
5.17226
5.03057
4.87727
4.76
4.68025
4.60988
4.55431
4.51919
4.47189
4.40522
4.32965
4.22102
4.08925
3.97618
3.92257
3.96193
4.14848
4.3996
4.58125
4.94195
5.71798
5.90193
5.82975
5.75126
5.6966
5.67497
5.64681
5.59596
5.5446
5.49838
5.45197
5.40235
5.35122
5.29308
5.2331
5.19318
5.15429
5.10817
5.04565
4.96868
4.90529
4.8645
4.82652
4.78623
4.73926
4.68218
4.6117
4.53284
4.46478
4.40754
4.34249
4.27489
4.28085
6.36298
4.98141
4.12897
3.59975
2.99344
2.71844
2.6424
2.54555
2.43454
2.45471
2.59755
3.07202
3.83476
5.10507
6.27854
6.90194
6.99312
7.02096
7.02252
6.97475
6.8326
6.63268
6.4831
6.37657
6.27543
6.16844
6.07378
5.99931
5.94701
5.88482
5.80233
5.69544
5.57549
5.46852
5.36725
5.25344
5.1122
4.94298
4.77597
4.64229
4.55402
4.4952
4.45805
4.4288
4.38023
4.3135
4.22394
4.13315
4.07002
4.09087
4.20667
4.486
4.62288
4.61307
4.72663
5.2243
5.76312
5.86954
5.84746
5.80221
5.76258
5.71439
5.64678
5.54885
5.44511
5.36058
5.28945
5.23407
5.19792
5.17968
5.17114
5.157
5.13604
5.10184
5.04839
4.95979
4.8543
4.78357
4.73278
4.6815
4.62468
4.56332
4.50966
4.46509
4.41689
4.36763
4.32991
4.38328
7.11331
6.01595
5.11114
4.53653
3.98584
3.46346
3.22415
3.07684
2.89564
2.7437
2.7232
2.79547
3.06632
3.78795
5.17267
6.48438
7.04115
7.10886
7.00657
6.86479
6.72954
6.62184
6.51388
6.3916
6.25686
6.13467
6.03724
5.95419
5.89067
5.82017
5.73558
5.65254
5.57516
5.49575
5.40166
5.28691
5.14183
4.9726
4.80768
4.66815
4.56304
4.49281
4.44832
4.39921
4.33377
4.24877
4.16394
4.14222
4.18338
4.32266
4.57811
4.80114
4.78613
4.68795
4.67029
4.88013
5.41647
5.84948
5.92321
5.87614
5.79392
5.70696
5.60726
5.49061
5.37568
5.28077
5.20803
5.15987
5.13633
5.1494
5.18111
5.19349
5.17633
5.14499
5.09892
5.00716
4.86037
4.73174
4.66009
4.60768
4.56489
4.52749
4.49189
4.45535
4.41746
4.38644
4.38115
4.496
7.6399
6.76961
5.9554
5.32598
4.84461
4.33283
3.90252
3.6534
3.4782
3.30792
3.16216
3.02642
2.99627
3.09047
3.63576
5.17504
6.7044
7.09487
7.00574
6.84193
6.72965
6.64219
6.54694
6.42579
6.27104
6.12343
6.00244
5.89357
5.78917
5.69841
5.63794
5.60683
5.56167
5.48484
5.39271
5.2837
5.1517
5.00509
4.86999
4.74692
4.62034
4.48487
4.34587
4.23761
4.15665
4.09259
4.09012
4.14551
4.33094
4.65013
4.9312
4.99656
4.93637
4.82752
4.7354
4.78394
5.0759
5.57224
5.83154
5.83717
5.75359
5.63508
5.51163
5.39379
5.30826
5.24179
5.19052
5.15534
5.14221
5.16556
5.21376
5.22041
5.18191
5.13701
5.07761
4.98839
4.86513
4.72202
4.61665
4.56558
4.53328
4.50681
4.48428
4.45563
4.43993
4.43553
4.47681
4.66585
8.02089
7.28387
6.59197
5.99995
5.51679
5.06233
4.62596
4.27544
4.00828
3.80555
3.64886
3.47082
3.25067
3.16434
3.20257
3.67817
5.35083
6.73506
6.89359
6.78874
6.67611
6.61689
6.52874
6.41502
6.27047
6.14178
6.02604
5.90329
5.78683
5.69357
5.62008
5.57447
5.52361
5.44487
5.36601
5.28017
5.1678
5.03726
4.91514
4.78525
4.6311
4.45479
4.27525
4.12825
4.04136
3.99945
4.03719
4.22453
4.58846
4.89881
5.09235
5.11115
5.06195
4.99137
4.89281
4.8228
4.87227
5.1842
5.5835
5.73892
5.69652
5.57917
5.45012
5.35737
5.30367
5.26284
5.23631
5.22425
5.22156
5.21646
5.18952
5.15528
5.12421
5.07569
5.01704
4.95007
4.87228
4.76712
4.64232
4.56914
4.53405
4.50852
4.4859
4.45856
4.44852
4.49911
4.62378
4.85005
8.30356
7.6748
7.05461
6.54476
6.07865
5.62206
5.198
4.86531
4.57496
4.31477
4.10526
3.93561
3.7251
3.49321
3.31043
3.35172
3.81536
5.45883
6.59919
6.74076
6.61953
6.51436
6.41563
6.33042
6.25889
6.16799
6.0733
5.96984
5.85733
5.75662
5.66475
5.56343
5.45846
5.36168
5.26857
5.17688
5.09047
5.00953
4.9084
4.77365
4.60685
4.42146
4.23812
4.08003
4.01503
4.02197
4.14547
4.51805
4.85667
5.05284
5.17354
5.21525
5.17368
5.11692
5.02804
4.90153
4.7879
4.84955
5.14997
5.51255
5.61956
5.54897
5.44299
5.38911
5.34921
5.32772
5.31397
5.29102
5.2516
5.19803
5.13744
5.08532
5.04962
5.02096
4.97706
4.93554
4.8941
4.83604
4.73689
4.61372
4.53062
4.47813
4.44002
4.43339
4.46512
4.60248
4.79283
4.99194
8.55626
7.97668
7.41524
6.91912
6.51763
6.08717
5.6417
5.29665
5.05244
4.81271
4.55984
4.32286
4.12548
3.93273
3.70924
3.51362
3.52395
3.97085
5.49265
6.54397
6.63976
6.49883
6.33995
6.22945
6.16692
6.15006
6.10588
6.01115
5.91602
5.81875
5.70286
5.57449
5.44816
5.32835
5.21485
5.1076
5.00835
4.91691
4.8252
4.71313
4.56868
4.40284
4.2338
4.08563
4.06025
4.14927
4.4909
4.88452
5.05562
5.11892
5.20014
5.25774
5.21102
5.14859
5.06553
4.9303
4.79421
4.71369
4.80318
5.13816
5.46878
5.52512
5.4706
5.44043
5.41028
5.38367
5.34264
5.29382
5.2356
5.15926
5.08674
5.03907
5.00457
4.99024
4.99626
4.98213
4.95018
4.90049
4.80758
4.65614
4.51769
4.45048
4.4226
4.43756
4.54867
4.73468
4.90262
5.07411
8.82032
8.26346
7.72126
7.24395
6.81551
6.42132
6.01807
5.63833
5.38494
5.19757
4.97845
4.72184
4.47804
4.30163
4.12785
3.88775
3.67744
3.65513
4.13822
5.56831
6.55334
6.53349
6.35642
6.20044
6.09136
6.02104
5.99245
5.97891
5.92302
5.82457
5.70655
5.57157
5.42538
5.286
5.16638
5.05686
4.95115
4.84237
4.72429
4.59598
4.46754
4.35766
4.26321
4.18329
4.22948
4.50187
4.92152
5.12106
5.15147
5.14899
5.16432
5.18806
5.16646
5.11415
5.04388
4.93499
4.81579
4.7356
4.72703
4.8588
5.21289
5.43135
5.50104
5.48536
5.43924
5.38288
5.3247
5.26727
5.19584
5.1213
5.07161
5.03066
5.00023
4.99457
4.9985
4.97932
4.9444
4.89622
4.80622
4.66151
4.50696
4.43162
4.43328
4.5112
4.69074
4.8546
4.98947
5.13375
9.064
8.55998
8.04365
7.55579
7.10998
6.69729
6.32319
5.98187
5.66454
5.42308
5.25743
5.07138
4.83394
4.60744
4.43662
4.2451
4.00484
3.80538
3.7845
4.30472
5.61324
6.41439
6.40504
6.22713
6.06125
5.95547
5.88381
5.85562
5.83126
5.75701
5.65959
5.53696
5.38576
5.25159
5.13913
5.03271
4.91784
4.78348
4.62989
4.48109
4.37052
4.3153
4.30172
4.36253
4.6079
5.01062
5.198
5.21248
5.1881
5.17062
5.15846
5.1379
5.1055
5.05775
5.00362
4.93494
4.85125
4.78067
4.75208
4.77404
4.95118
5.23861
5.4359
5.48484
5.45335
5.38756
5.31072
5.22797
5.15078
5.1019
5.06509
5.03976
5.03526
5.02838
4.99996
4.96303
4.91762
4.86074
4.77492
4.65249
4.5237
4.46904
4.52081
4.67452
4.84834
4.97334
5.06237
5.15137
9.25008
8.81248
8.35783
7.89842
7.42861
6.98506
6.61154
6.27193
5.96831
5.6933
5.44563
5.27131
5.11515
4.91319
4.70589
4.52247
4.32919
4.08867
3.89859
3.8825
4.40357
5.5859
6.29768
6.25349
6.06639
5.91856
5.81029
5.73088
5.68247
5.61986
5.53559
5.44447
5.33937
5.22829
5.11821
5.00427
4.87426
4.71871
4.55684
4.41052
4.32783
4.31375
4.38761
4.67473
5.13663
5.34436
5.31362
5.25987
5.22235
5.21437
5.16991
5.11271
5.05551
5.01063
4.98253
4.96666
4.93879
4.87967
4.80993
4.74135
4.767
4.96183
5.21806
5.39452
5.40889
5.36246
5.27576
5.1826
5.12708
5.08856
5.06521
5.06832
5.06052
5.0267
4.98696
4.94086
4.87842
4.80116
4.71749
4.64492
4.58331
4.59694
4.71976
4.88946
5.00557
5.06796
5.10327
5.11294
9.38578
9.00314
8.59848
8.19222
7.77104
7.33366
6.92304
6.58548
6.2676
5.96558
5.70047
5.46673
5.27579
5.1166
4.95007
4.76006
4.56953
4.36073
4.10978
3.93273
3.93559
4.46622
5.55398
6.11734
6.07257
5.91632
5.76355
5.64371
5.55206
5.46877
5.38894
5.31426
5.23957
5.16038
5.07215
4.96417
4.82683
4.66435
4.50803
4.38295
4.33447
4.37184
4.64724
5.17496
5.4811
5.49027
5.3935
5.32257
5.27742
5.24231
5.1843
5.11697
5.06329
5.02158
4.9931
4.97532
4.94463
4.89151
4.81199
4.72715
4.65431
4.71198
4.90259
5.17059
5.3057
5.28901
5.21257
5.14965
5.11239
5.08705
5.09523
5.10455
5.06623
5.02281
4.97051
4.90126
4.81648
4.73135
4.67556
4.66193
4.69137
4.80781
4.98316
5.10327
5.13988
5.13754
5.12712
5.08405
9.4799
9.14411
8.77915
8.40506
8.02122
7.63469
7.26457
6.90815
6.57407
6.25305
5.955
5.70279
5.48516
5.29005
5.11618
4.96003
4.77193
4.57405
4.33927
4.07701
3.93575
3.96198
4.48219
5.40018
5.95452
5.91489
5.74628
5.56878
5.43892
5.3478
5.26568
5.19482
5.12953
5.05753
4.98186
4.8922
4.7705
4.6156
4.47926
4.39121
4.40222
4.62786
5.15429
5.56566
5.62721
5.5726
5.4799
5.40869
5.34855
5.27657
5.19422
5.12814
5.08318
5.04868
5.0198
4.98279
4.94019
4.88365
4.80023
4.69868
4.6255
4.60005
4.65951
4.8515
5.10386
5.171
5.13602
5.11126
5.09321
5.1136
5.12671
5.09138
5.04971
5.00273
4.93001
4.83197
4.74612
4.69451
4.68436
4.73446
4.87625
5.09115
5.23451
5.27433
5.24781
5.2047
5.15738
5.07293
9.54882
9.24153
8.9073
8.56267
8.20908
7.85375
7.51425
7.19341
6.86603
6.5354
6.21272
5.93773
5.70566
5.49311
5.29562
5.09508
4.91119
4.7232
4.5325
4.29442
4.03579
3.91667
3.95659
4.40857
5.32319
5.77019
5.68424
5.52716
5.37486
5.25459
5.17377
5.10634
5.03115
4.95334
4.87448
4.78359
4.67376
4.55377
4.47939
4.47558
4.66055
5.16264
5.63581
5.7475
5.71559
5.65173
5.5773
5.49769
5.39672
5.28559
5.19918
5.14284
5.10127
5.06552
5.01918
4.9679
4.91473
4.85276
4.77186
4.68317
4.60978
4.57994
4.58894
4.642
4.83835
5.01404
5.06848
5.07468
5.0865
5.10834
5.09649
5.05678
5.01205
4.9489
4.8514
4.76284
4.71747
4.70466
4.75004
4.91199
5.17365
5.36467
5.42131
5.40646
5.33863
5.25079
5.17387
5.04086
9.59916
9.30605
8.99379
8.67372
8.34684
8.01868
7.70412
7.40338
7.10031
6.7779
6.45708
6.17329
5.92171
5.67986
5.45693
5.25382
5.04864
4.8376
4.63826
4.45006
4.22383
4.0004
3.87599
3.89335
4.34511
5.17651
5.52
5.48647
5.34964
5.19972
5.10334
5.02156
4.9348
4.84508
4.75143
4.64943
4.5499
4.50038
4.52619
4.69985
5.20102
5.73153
5.87282
5.84281
5.78972
5.71848
5.63701
5.54173
5.41527
5.28413
5.20767
5.15024
5.10224
5.05271
4.99652
4.93399
4.8709
4.81702
4.76278
4.69646
4.63247
4.58054
4.55803
4.58183
4.63841
4.81837
4.96431
5.04463
5.07187
5.0606
5.03016
4.98614
4.93156
4.85207
4.77041
4.72384
4.71258
4.75839
4.93163
5.22028
5.49005
5.57536
5.57519
5.51239
5.38989
5.27204
5.16148
4.96922
9.63514
9.33918
9.04298
8.74533
8.44224
8.13729
7.84515
7.56197
7.26963
6.96854
6.65709
6.37257
6.11479
5.8625
5.61432
5.37916
5.16073
4.95181
4.75145
4.56108
4.37086
4.15276
3.94702
3.81076
3.82286
4.26093
4.9436
5.34554
5.33309
5.18243
5.0449
4.93854
4.83772
4.73236
4.62329
4.52231
4.46146
4.49359
4.65562
5.18333
5.7922
5.99456
5.96759
5.89719
5.81514
5.73468
5.65703
5.55385
5.40084
5.27958
5.21043
5.14845
5.08746
5.02479
4.96149
4.9058
4.86116
4.82207
4.77929
4.7394
4.6975
4.64353
4.59164
4.56099
4.55433
4.60807
4.79129
4.96085
5.00837
4.99161
4.93948
4.86763
4.79956
4.74251
4.70429
4.69601
4.73719
4.9139
5.21817
5.55313
5.7104
5.72646
5.67902
5.56113
5.40252
5.25463
5.10502
4.90969
9.65999
9.36086
9.06761
8.78122
8.50241
8.2208
7.9484
7.68144
7.39348
7.10446
6.81588
6.53595
6.27498
6.01922
5.76094
5.50388
5.25971
5.0419
4.84796
4.67002
4.4856
4.26892
4.02489
3.82378
3.7275
3.76462
4.16569
4.81673
5.20772
5.1594
5.0014
4.86946
4.75089
4.64167
4.5178
4.43975
4.44258
4.54738
5.04485
5.73307
6.06234
6.07663
6.01516
5.92563
5.83242
5.73639
5.64437
5.52165
5.38538
5.2964
5.22756
5.15515
5.07977
5.0085
4.94834
4.89873
4.86527
4.84821
4.83617
4.82541
4.79037
4.7311
4.66039
4.57307
4.48082
4.4656
4.53989
4.76091
4.88175
4.88907
4.83234
4.73621
4.67701
4.63776
4.63917
4.695
4.86698
5.18016
5.5165
5.77207
5.82485
5.79881
5.71678
5.56367
5.35843
5.17032
5.02826
4.92177
9.67893
9.38621
9.09515
8.81231
8.54007
8.27734
8.02339
7.77206
7.49047
7.20928
6.94588
6.67452
6.40986
6.14886
5.88582
5.62151
5.36649
5.13126
4.91907
4.72752
4.54478
4.35726
4.13937
3.90038
3.72132
3.65399
3.71182
4.07884
4.71777
5.0081
4.92329
4.79917
4.68506
4.56758
4.45274
4.43269
4.48654
4.87525
5.60038
6.01777
6.13323
6.09744
6.02397
5.94375
5.84841
5.73047
5.59776
5.46587
5.37317
5.30727
5.24234
5.16971
5.08706
5.01162
4.95381
4.9061
4.88093
4.89766
4.92344
4.90243
4.85385
4.79072
4.69849
4.57369
4.45269
4.35244
4.33937
4.43576
4.63762
4.73931
4.72628
4.65892
4.6094
4.5865
4.6222
4.78012
5.11625
5.44466
5.70902
5.85001
5.86258
5.82018
5.71811
5.51979
5.25231
5.07869
5.01438
4.95813
9.7043
9.41803
9.12967
8.84951
8.57822
8.31865
8.07395
7.82871
7.55801
7.29497
7.05282
6.79244
6.52585
6.25954
5.99134
5.72357
5.46176
5.21473
4.98814
4.7812
4.58677
4.39933
4.21281
4.00875
3.80142
3.64632
3.58484
3.63596
3.96847
4.53677
4.73722
4.70735
4.60093
4.48589
4.41997
4.4546
4.75737
5.49715
5.96102
6.10871
6.13821
6.09545
6.03158
5.96203
5.86226
5.71754
5.55077
5.43217
5.36268
5.30674
5.24859
5.18537
5.10829
5.0317
4.97582
4.93087
4.9243
4.97102
4.9704
4.92271
4.86797
4.80105
4.70486
4.57455
4.45022
4.35736
4.27265
4.22617
4.34577
4.52686
4.63897
4.62809
4.59424
4.60048
4.7033
5.0001
5.35114
5.61311
5.78596
5.85725
5.83244
5.76727
5.64039
5.42081
5.18348
5.06934
5.03375
4.9945
9.76043
9.47372
9.18008
8.89115
8.61434
8.35231
8.10649
7.86081
7.60179
7.35381
7.13375
6.88217
6.61787
6.35169
6.0808
5.80993
5.54554
5.29239
5.05249
4.82866
4.62142
4.42973
4.25247
4.08011
3.89768
3.71106
3.56987
3.49608
3.53287
3.83959
4.30079
4.50095
4.49028
4.43278
4.4304
4.66474
5.38868
5.94154
6.09093
6.13198
6.14159
6.09819
6.03712
5.96056
5.8551
5.70936
5.54445
5.4275
5.3684
5.32286
5.27201
5.20811
5.13359
5.06451
5.00745
4.95917
4.92502
4.91398
4.91487
4.88967
4.84054
4.77645
4.68443
4.57343
4.46564
4.3721
4.28145
4.19524
4.18562
4.31661
4.52189
4.60697
4.6283
4.7116
4.92841
5.26399
5.53542
5.69841
5.77009
5.75782
5.7122
5.62713
5.493
5.34234
5.21027
5.11134
5.07249
5.04315
9.84127
9.54682
9.24436
8.94302
8.65279
8.38034
8.12797
7.87935
7.63285
7.40416
7.19687
6.95297
6.69177
6.42839
6.1584
5.88599
5.61833
5.35774
5.10388
4.86403
4.64656
4.45279
4.28038
4.12075
3.96199
3.78839
3.61607
3.46959
3.3789
3.41084
3.67328
4.10108
4.31263
4.39145
4.60157
5.22565
5.92605
6.1664
6.1827
6.18986
6.15765
6.09341
6.02493
5.93905
5.82932
5.70266
5.57808
5.48137
5.39545
5.31874
5.24996
5.18455
5.12717
5.07097
5.01743
4.96713
4.91358
4.86499
4.83118
4.79977
4.75888
4.70625
4.64137
4.56936
4.48988
4.4006
4.2999
4.19483
4.16633
4.22071
4.3952
4.56604
4.69976
4.90768
5.19886
5.49548
5.66589
5.70176
5.6674
5.60217
5.52589
5.44837
5.37428
5.3092
5.25368
5.19403
5.14546
5.10786
9.9208
9.61253
9.29606
8.98051
8.67644
8.38653
8.11204
7.869
7.64198
7.43317
7.23648
6.99931
6.73983
6.47981
6.213
5.94212
5.67212
5.40359
5.1383
4.88899
4.66824
4.47615
4.30522
4.14952
4.00027
3.84391
3.67114
3.49267
3.33772
3.24141
3.28008
3.53926
3.98294
4.44884
5.07178
5.82498
6.09615
6.17696
6.19812
6.20387
6.15366
6.08797
6.00513
5.90713
5.80836
5.71678
5.64545
5.56465
5.45055
5.31943
5.22293
5.16281
5.10869
5.06115
5.02243
4.97309
4.91468
4.85613
4.78992
4.71923
4.65969
4.61801
4.58318
4.53904
4.49255
4.43435
4.33962
4.21827
4.15797
4.1869
4.30364
4.52715
4.80341
5.14126
5.46061
5.66861
5.71129
5.65859
5.54407
5.4216
5.34194
5.30576
5.30416
5.30449
5.29861
5.27743
5.22825
5.13849
9.99065
9.67021
9.34331
9.01958
8.70613
8.41537
8.15549
7.9128
7.68524
7.4697
7.27
7.03467
6.77515
6.51404
6.24738
5.97606
5.70346
5.43062
5.15985
4.90565
4.68425
4.4944
4.32382
4.16721
4.01925
3.87231
3.7069
3.52495
3.34351
3.17526
3.11347
3.19315
3.61343
4.49267
5.47975
6.34217
6.2929
6.24253
6.24389
6.21484
6.15304
6.08248
5.98069
5.88326
5.81435
5.75562
5.68891
5.59854
5.45875
5.28544
5.18497
5.13005
5.07901
5.04195
5.01259
4.95522
4.89053
4.81697
4.72747
4.6462
4.59271
4.55056
4.52733
4.51788
4.48794
4.44911
4.39044
4.28492
4.19018
4.19564
4.27081
4.50422
4.90191
5.34879
5.66736
5.78295
5.73009
5.58179
5.40483
5.30175
5.26291
5.24354
5.2627
5.32191
5.34294
5.32462
5.27231
5.1474
)
;

boundaryField
{
    inlet
    {
        type            fixedValue;
        value           uniform 1;
    }
    outlet
    {
        type            zeroGradient;
    }
    bottom
    {
        type            zeroGradient;
    }
    top
    {
        type            zeroGradient;
    }
    obstacle
    {
        type            zeroGradient;
    }
    defaultFaces
    {
        type            empty;
    }
}


// ************************************************************************* //
