/*--------------------------------*- C++ -*----------------------------------*\
  =========                 |
  \\      /  F ield         | OpenFOAM: The Open Source CFD Toolbox
   \\    /   O peration     | Website:  https://openfoam.org
    \\  /    A nd           | Version:  7
     \\/     M anipulation  |
\*---------------------------------------------------------------------------*/
FoamFile
{
    version     2.0;
    format      ascii;
    class       volScalarField;
    location    "14";
    object      T;
}
// * * * * * * * * * * * * * * * * * * * * * * * * * * * * * * * * * * * * * //

dimensions      [0 0 0 1 0 0 0];

internalField   nonuniform List<scalar> 
3328
(
3.65591
2.70714
2.4741
2.47798
2.4782
2.47764
2.47714
2.47775
2.48174
2.48852
2.4942
2.49708
2.49807
2.49811
2.49825
2.49977
2.50415
2.51071
2.51666
2.52055
2.52273
2.52354
2.52373
2.52403
3.65577
2.70669
2.47419
2.47804
2.47846
2.47803
2.47753
2.47791
2.48141
2.48763
2.493
2.49578
2.49699
2.49751
2.49799
2.49981
2.50418
2.51052
2.5162
2.51984
2.52168
2.52202
2.52168
2.52152
3.65611
2.70644
2.47463
2.4785
2.47924
2.47897
2.4785
2.47865
2.48135
2.48682
2.49179
2.49437
2.49548
2.49626
2.49724
2.49931
2.50356
2.50947
2.51476
2.51822
2.52002
2.52029
2.51971
2.51925
3.65706
2.70595
2.47524
2.47918
2.48026
2.48013
2.4797
2.47947
2.48125
2.48569
2.49016
2.49256
2.49353
2.49437
2.49568
2.49807
2.50234
2.50797
2.51304
2.51649
2.51821
2.51803
2.51666
2.51532
3.65851
2.70526
2.47581
2.47981
2.48125
2.48126
2.48087
2.48027
2.48113
2.48425
2.48818
2.49053
2.49143
2.49209
2.49337
2.4958
2.49991
2.5051
2.50978
2.51298
2.51442
2.51417
2.51295
2.51227
3.66039
2.7041
2.47622
2.48022
2.48207
2.48236
2.48193
2.48092
2.48086
2.48264
2.48598
2.48832
2.4892
2.48951
2.4904
2.49248
2.49615
2.50088
2.50556
2.50928
2.51139
2.51158
2.51071
2.50978
3.66259
2.7021
2.4766
2.48043
2.48276
2.48341
2.48298
2.48146
2.48063
2.48132
2.48376
2.48602
2.48692
2.48684
2.48706
2.48841
2.49138
2.49558
2.49993
2.50342
2.50491
2.50383
2.50481
2.50997
3.66536
2.6994
2.47717
2.48046
2.48336
2.48439
2.48406
2.48225
2.48076
2.48051
2.48205
2.4841
2.48494
2.48438
2.48375
2.48406
2.48594
2.48933
2.49306
2.49603
2.49752
2.49956
2.50533
2.5264
3.66904
2.69739
2.47819
2.47987
2.48379
2.48532
2.48518
2.48358
2.48165
2.48064
2.48136
2.48291
2.48368
2.48272
2.481
2.48004
2.48041
2.48271
2.48579
2.48818
2.48808
2.48694
2.47606
2.47293
3.67401
2.69856
2.47758
2.47949
2.48398
2.48616
2.4865
2.48551
2.48347
2.48193
2.48192
2.48296
2.48345
2.48234
2.47962
2.47688
2.47546
2.47634
2.47841
2.4802
2.47894
2.47356
2.4692
2.46311
3.68025
2.70402
2.47724
2.47989
2.48401
2.48675
2.48774
2.48742
2.4859
2.48424
2.48373
2.48422
2.48449
2.48331
2.48
2.47543
2.47174
2.47061
2.47142
2.47242
2.47072
2.46298
2.45829
2.44894
3.68727
2.71272
2.47881
2.48113
2.48428
2.48738
2.48893
2.48925
2.48861
2.48702
2.48637
2.48656
2.48665
2.48552
2.48199
2.4762
2.47007
2.46601
2.46516
2.4655
2.4641
2.45773
2.45033
2.44073
3.69433
2.72305
2.48186
2.48417
2.48576
2.48819
2.49009
2.49072
2.49085
2.49012
2.48922
2.48922
2.48926
2.48838
2.48527
2.4788
2.47094
2.46373
2.46007
2.45955
2.45811
2.45363
2.44454
2.43621
3.70083
2.73223
2.48619
2.48744
2.48792
2.48926
2.49087
2.49188
2.49249
2.49245
2.49193
2.49171
2.49171
2.49094
2.48851
2.48246
2.4735
2.46414
2.45714
2.45417
2.45243
2.44955
2.44181
2.43134
3.7068
2.74025
2.49349
2.49072
2.48993
2.4905
2.49182
2.4926
2.49268
2.49336
2.49377
2.49384
2.49375
2.49295
2.49091
2.48561
2.47679
2.46587
2.45623
2.45021
2.4472
2.44482
2.439
2.42918
3.71263
2.74808
2.50117
2.49529
2.49306
2.49261
2.4928
2.49278
2.49235
2.49299
2.49431
2.49513
2.49522
2.49461
2.49276
2.48804
2.47974
2.46827
2.45696
2.44819
2.44276
2.44004
2.43554
2.4272
3.71854
2.75424
2.5091
2.502
2.49783
2.49557
2.49396
2.49289
2.49186
2.49188
2.49331
2.49531
2.49609
2.49597
2.49455
2.49036
2.48272
2.47129
2.4588
2.44832
2.44062
2.43587
2.43171
2.42495
3.72453
2.75874
2.51709
2.50963
2.50391
2.50002
2.49635
2.4938
2.49186
2.49063
2.49136
2.49407
2.49634
2.49712
2.49648
2.49331
2.48649
2.47552
2.46236
2.45029
2.44081
2.4336
2.42809
2.42202
3.73036
2.76101
2.52413
2.51685
2.51048
2.50587
2.50066
2.49608
2.49259
2.48993
2.48942
2.49175
2.49569
2.498
2.49873
2.4971
2.49121
2.4811
2.46774
2.45424
2.44291
2.43383
2.42605
2.41878
3.73597
2.76108
2.52995
2.5234
2.51697
2.51236
2.50654
2.49991
2.49446
2.49025
2.48814
2.48973
2.49452
2.49877
2.50113
2.50059
2.49612
2.48728
2.47436
2.45994
2.44688
2.43583
2.42632
2.41704
3.74151
2.75983
2.53448
2.5289
2.52268
2.51838
2.5127
2.50514
2.49813
2.49248
2.48897
2.48932
2.49388
2.4995
2.5027
2.50302
2.50023
2.4926
2.48063
2.46612
2.45188
2.43935
2.42822
2.41781
3.74712
2.75817
2.53784
2.53329
2.52739
2.5234
2.51831
2.5111
2.50381
2.49774
2.49297
2.49151
2.49479
2.50017
2.50342
2.50424
2.50257
2.49608
2.48532
2.47129
2.45666
2.44334
2.43153
2.42049
3.75289
2.75707
2.54057
2.53694
2.53153
2.5278
2.52341
2.51733
2.51093
2.50549
2.50014
2.49697
2.49774
2.50114
2.5038
2.50479
2.5036
2.49854
2.48893
2.47561
2.46099
2.44733
2.43533
2.42445
3.75882
2.75652
2.54308
2.54062
2.53585
2.5324
2.52852
2.52348
2.51794
2.51354
2.50858
2.50423
2.50192
2.50287
2.50436
2.50551
2.50499
2.50136
2.49275
2.48007
2.46549
2.45151
2.43932
2.42857
3.76495
2.75656
2.54538
2.54498
2.54115
2.53775
2.53388
2.5289
2.52348
2.5198
2.51572
2.51101
2.5071
2.50531
2.5058
2.50708
2.50758
2.50545
2.49806
2.48596
2.47124
2.45648
2.44355
2.43244
3.7713
2.75797
2.54784
2.5498
2.54699
2.54333
2.53885
2.53325
2.52738
2.52365
2.5205
2.51625
2.51238
2.50921
2.50886
2.50975
2.5108
2.50976
2.50393
2.49306
2.47856
2.46285
2.44837
2.43614
3.77781
2.76145
2.55078
2.55426
2.5522
2.54817
2.54283
2.53647
2.52986
2.52571
2.52359
2.52061
2.51768
2.51496
2.51372
2.51337
2.51381
2.51276
2.50795
2.49907
2.48626
2.47082
2.45486
2.44066
3.78418
2.76661
2.55386
2.55792
2.55625
2.5519
2.54574
2.53857
2.53153
2.5273
2.52601
2.5249
2.52312
2.52125
2.5194
2.51787
2.51636
2.51429
2.50965
2.50225
2.49197
2.47873
2.46319
2.44751
3.79007
2.77253
2.55662
2.5605
2.5589
2.55443
2.54798
2.54029
2.53341
2.52917
2.52814
2.52889
2.52819
2.52681
2.52512
2.52212
2.51893
2.51536
2.51022
2.50317
2.49458
2.48424
2.47146
2.45665
3.79531
2.77816
2.55877
2.56207
2.56043
2.55622
2.55027
2.54282
2.53616
2.53167
2.53015
2.53162
2.532
2.5308
2.52904
2.52524
2.5212
2.5165
2.51077
2.50372
2.49555
2.48683
2.47688
2.46484
3.79996
2.78251
2.56055
2.56305
2.56146
2.55802
2.55325
2.54669
2.54005
2.53493
2.53222
2.53267
2.53334
2.53279
2.53145
2.52841
2.52317
2.51782
2.51184
2.50477
2.49656
2.4881
2.47935
2.46969
3.80424
2.78626
2.56175
2.56397
2.56285
2.56069
2.55742
2.55181
2.54505
2.53892
2.53445
2.53258
2.53318
2.53371
2.53321
2.53153
2.52625
2.52054
2.51412
2.50695
2.49867
2.48992
2.48108
2.47232
3.80837
2.79039
2.56282
2.565
2.56479
2.56418
2.56223
2.55745
2.5507
2.54347
2.53736
2.53357
2.53292
2.53419
2.53516
2.53481
2.53129
2.52553
2.51841
2.51064
2.50211
2.49311
2.48405
2.47543
3.81251
2.79552
2.56383
2.56591
2.56663
2.5671
2.56596
2.56201
2.5558
2.54841
2.54151
2.53665
2.53454
2.53536
2.53729
2.53821
2.53651
2.53135
2.52402
2.51552
2.50648
2.49725
2.48823
2.47964
3.81683
2.80355
2.56537
2.56648
2.56775
2.56814
2.56693
2.56385
2.55862
2.55277
2.54659
2.54193
2.53938
2.5389
2.54002
2.54112
2.54019
2.53587
2.52879
2.51998
2.51062
2.50126
2.49239
2.48418
3.82143
2.81488
2.56736
2.56662
2.56697
2.56663
2.56511
2.56269
2.55908
2.5558
2.55208
2.5491
2.54735
2.54625
2.54554
2.54476
2.54277
2.53837
2.53143
2.52269
2.5134
2.50418
2.49557
2.48774
3.826
2.82709
2.57037
2.56723
2.56507
2.56269
2.56141
2.55983
2.55821
2.55745
2.5573
2.55682
2.55646
2.55585
2.5542
2.55066
2.546
2.53999
2.53242
2.52366
2.51455
2.50562
2.49743
2.49
3.82981
2.83755
2.57281
2.56712
2.56238
2.55902
2.55709
2.55594
2.55624
2.55772
2.56068
2.56386
2.56568
2.56512
2.56273
2.55773
2.55033
2.54181
2.53269
2.52317
2.5137
2.50476
2.49698
2.49037
3.83171
2.84369
2.57568
2.56805
2.56152
2.55705
2.55405
2.55241
2.5533
2.55656
2.56207
2.56792
2.57158
2.57141
2.5686
2.56289
2.55401
2.54365
2.53302
2.5223
2.51165
2.50185
2.49404
2.48853
3.83257
2.84592
2.57763
2.56926
2.56104
2.55519
2.55088
2.5484
2.54962
2.55446
2.56224
2.57099
2.57648
2.57675
2.57343
2.56678
2.55637
2.54472
2.53269
2.52063
2.50848
2.49735
2.48894
2.4841
2.37805
2.44557
2.47251
2.49084
2.50499
2.51967
2.53069
2.53509
2.47497
2.49815
2.49006
2.49563
2.50443
2.51592
2.52518
2.52901
2.4572
2.47799
2.48227
2.49104
2.49942
2.51106
2.51717
2.52466
2.44366
2.46154
2.47785
2.49158
2.49874
2.50588
2.50924
2.51513
2.43089
2.44182
2.45928
2.47647
2.48706
2.49485
2.49821
2.50299
2.42653
2.42654
2.43845
2.4559
2.47116
2.48317
2.49136
2.49329
2.42083
2.41962
2.42404
2.43619
2.44817
2.4601
2.4731
2.48805
2.4175
2.41272
2.41273
2.41773
2.42331
2.43302
2.45859
2.51649
2.41539
2.40682
2.40332
2.4028
2.39908
2.39191
2.37542
2.31215
2.41292
2.40329
2.39601
2.3891
2.37702
2.35091
2.30492
2.18981
2.40936
2.39817
2.38843
2.37744
2.36042
2.32432
2.26472
2.13941
2.4062
2.39279
2.38
2.36626
2.34681
2.31087
2.24754
2.14411
2.40581
2.39044
2.37415
2.35698
2.33547
2.30245
2.24702
2.16185
2.40848
2.39306
2.37472
2.35419
2.33005
2.29911
2.25108
2.18443
2.41331
2.39915
2.3804
2.35876
2.33312
2.30261
2.2601
2.20609
2.41829
2.40639
2.38981
2.36835
2.34181
2.31119
2.27338
2.22712
2.42229
2.41195
2.39833
2.37988
2.35545
2.32556
2.29143
2.2501
2.42535
2.41515
2.40303
2.38765
2.36781
2.34108
2.31104
2.27452
2.42823
2.41711
2.40536
2.39144
2.37514
2.35303
2.32761
2.29627
2.43293
2.41976
2.40716
2.39381
2.37931
2.36069
2.34011
2.31416
2.44122
2.42582
2.41126
2.39708
2.38323
2.36708
2.34966
2.32854
2.45095
2.43555
2.41998
2.40438
2.38977
2.37455
2.35878
2.34075
2.45841
2.44494
2.43048
2.41529
2.40048
2.38518
2.36941
2.35226
2.46309
2.45251
2.44077
2.42747
2.4134
2.3981
2.38163
2.36375
2.46718
2.45872
2.44933
2.43797
2.42515
2.41024
2.39332
2.37451
2.47162
2.46378
2.45551
2.44551
2.4336
2.41926
2.40248
2.38345
2.47648
2.46892
2.46092
2.45138
2.43962
2.42536
2.40889
2.39032
2.48052
2.47337
2.46569
2.45668
2.44545
2.43143
2.41507
2.39683
2.48344
2.47693
2.47015
2.46201
2.4518
2.4388
2.42319
2.4055
2.48503
2.47988
2.47444
2.46771
2.45909
2.44766
2.43308
2.41575
2.48471
2.48144
2.47774
2.47262
2.46538
2.45518
2.44152
2.42454
2.48211
2.48109
2.47954
2.47616
2.47028
2.46103
2.4479
2.43087
1.67228
1.30932
1.30587
1.32727
1.40763
1.53506
1.6709
1.76034
1.84718
1.96071
2.05837
2.0811
2.1186
2.21663
2.24787
2.25775
2.25649
2.25128
2.24702
2.24688
2.25175
2.2508
2.23566
2.21591
2.19822
2.18474
2.17399
2.15992
2.14348
2.1232
2.10311
2.08549
2.06913
2.05333
2.03865
2.02505
2.01329
2.00635
2.00312
1.99642
1.9868
1.97646
1.96369
1.94707
1.92891
1.91306
1.89891
1.88437
1.87079
1.85678
1.85244
1.8622
1.89622
1.97148
2.08177
2.14349
2.11412
2.08247
2.06577
2.06032
2.05759
2.0581
2.06138
2.06557
2.06997
2.07313
2.07317
2.06633
2.05619
2.04269
2.02208
2.00143
1.99088
1.98661
1.98389
1.98304
1.9837
1.98348
1.97899
1.97165
1.966
1.96078
1.95322
1.94176
1.9274
1.91708
1.90982
1.90154
1.84987
1.63638
1.57258
1.5073
1.48065
1.48472
1.52171
1.58348
1.66543
1.76891
1.88827
1.96076
2.04424
2.16905
2.20896
2.21797
2.22414
2.22472
2.22275
2.22037
2.21731
2.21005
2.19739
2.18286
2.16928
2.15888
2.15038
2.13977
2.12801
2.11567
2.10132
2.0852
2.06842
2.05139
2.03434
2.01856
2.00539
1.99425
1.98467
1.97731
1.97291
1.96643
1.95697
1.94551
1.93091
1.91417
1.89743
1.88106
1.86692
1.85374
1.85366
1.86731
1.90396
1.95698
2.04025
2.11602
2.10232
2.08136
2.07011
2.06427
2.06016
2.05838
2.05854
2.05998
2.06054
2.05896
2.055
2.04867
2.03952
2.02792
2.01605
2.00643
1.9963
1.9878
1.98332
1.98067
1.9793
1.97715
1.97072
1.96328
1.95668
1.95045
1.94338
1.93528
1.92673
1.91653
1.90871
1.90194
1.93787
1.77603
1.68942
1.61528
1.53687
1.50893
1.49099
1.50806
1.55852
1.60299
1.6719
1.78379
1.90369
2.074
2.13832
2.16076
2.16038
2.16672
2.17252
2.1726
2.1661
2.15079
2.13746
2.1258
2.1151
2.10474
2.09571
2.08859
2.08225
2.07602
2.06833
2.05758
2.04444
2.03134
2.01891
2.00518
1.98815
1.96891
1.95394
1.94445
1.93658
1.93107
1.92818
1.92331
1.91486
1.90454
1.89003
1.87227
1.85611
1.84883
1.85492
1.88097
1.91347
1.93423
1.97537
2.0584
2.07763
2.06949
2.06043
2.05518
2.05404
2.05235
2.04825
2.04355
2.03854
2.03292
2.02629
2.01892
2.01069
2.00298
1.99836
1.99439
1.99074
1.98586
1.97893
1.97243
1.96727
1.96123
1.95443
1.94707
1.9396
1.93206
1.92475
1.91932
1.91491
1.90873
1.90098
1.89888
2.01233
1.88458
1.79398
1.73078
1.64772
1.59728
1.57691
1.55667
1.53433
1.53798
1.56287
1.63791
1.74607
1.90386
2.03095
2.09756
2.10646
2.10949
2.11112
2.11126
2.10595
2.09295
2.08122
2.0717
2.06172
2.0512
2.04284
2.03744
2.03458
2.03073
2.02463
2.01602
2.00595
1.99692
1.98813
1.97737
1.96283
1.94424
1.9249
1.90922
1.89971
1.89453
1.89247
1.89116
1.88692
1.87915
1.86698
1.85373
1.84606
1.85003
1.86598
1.90148
1.91707
1.9139
1.92466
1.98004
2.03668
2.04949
2.04654
2.04127
2.03725
2.03332
2.0281
2.01936
2.00884
1.99939
1.99093
1.98403
1.9793
1.97676
1.97544
1.97425
1.97309
1.97076
1.96651
1.95824
1.94667
1.93792
1.93095
1.92356
1.91596
1.90879
1.90359
1.90017
1.89669
1.8939
1.89034
1.8965
2.0704
1.97482
1.88771
1.82736
1.7633
1.6934
1.65642
1.6327
1.60271
1.57878
1.57461
1.5864
1.62921
1.73354
1.89591
2.03322
2.07868
2.09137
2.08375
2.07472
2.06759
2.06204
2.05491
2.04491
2.03273
2.0214
2.01262
2.00566
2.00092
1.99578
1.98932
1.98285
1.97679
1.97032
1.96205
1.95136
1.93699
1.91926
1.90109
1.88532
1.87397
1.86768
1.86476
1.86152
1.85599
1.84721
1.8364
1.83223
1.83885
1.858
1.88871
1.91412
1.91227
1.90072
1.89694
1.92012
1.97665
2.02151
2.0299
2.02482
2.0162
2.00811
1.99973
1.98955
1.97854
1.96857
1.96035
1.95486
1.95216
1.95325
1.95615
1.95756
1.95611
1.9539
1.95055
1.94215
1.92675
1.91211
1.9036
1.89705
1.89139
1.88655
1.88248
1.87884
1.87597
1.87622
1.87716
1.8923
2.11517
2.04202
1.96837
1.90693
1.85612
1.79787
1.74474
1.71195
1.68767
1.66355
1.64191
1.6228
1.61884
1.63364
1.71475
1.90525
2.05314
2.08966
2.08248
2.07007
2.06265
2.05726
2.05057
2.0405
2.02644
2.01266
2.00127
1.99098
1.98145
1.97363
1.96899
1.96715
1.96393
1.95726
1.94866
1.93781
1.92417
1.90866
1.89392
1.88001
1.86549
1.85032
1.83504
1.82373
1.81551
1.80924
1.81022
1.81818
1.84174
1.87926
1.90972
1.91751
1.91106
1.89939
1.89015
1.89517
1.92615
1.97618
2.0026
2.00335
1.99512
1.98371
1.97282
1.96308
1.95594
1.94976
1.94436
1.94006
1.9381
1.94017
1.94482
1.94536
1.94144
1.93758
1.93259
1.9243
1.912
1.89656
1.88412
1.87793
1.87395
1.87067
1.86801
1.86421
1.86409
1.86631
1.87312
1.89687
2.15066
2.09002
2.02971
1.97492
1.92751
1.88032
1.83262
1.7922
1.75985
1.73441
1.71437
1.69098
1.66099
1.64892
1.65484
1.72683
1.93447
2.07153
2.08133
2.0723
2.06273
2.05834
2.05164
2.04241
2.02934
2.0167
2.00521
1.99318
1.982
1.97309
1.96625
1.96227
1.95759
1.95007
1.94261
1.93438
1.92304
1.9091
1.89559
1.88094
1.86332
1.84273
1.82151
1.80397
1.7941
1.79089
1.79637
1.82079
1.86336
1.89684
1.91831
1.92093
1.91592
1.90884
1.89953
1.89275
1.89772
1.93004
1.96981
1.98511
1.9812
1.97037
1.95927
1.95148
1.9469
1.94322
1.94097
1.93988
1.93918
1.93773
1.93427
1.93045
1.92752
1.92313
1.9179
1.91172
1.90404
1.89284
1.87867
1.86996
1.86559
1.86229
1.85956
1.85644
1.85729
1.86449
1.87994
1.90605
2.17951
2.12858
2.07599
2.03062
1.98731
1.94295
1.89976
1.86439
1.83239
1.8026
1.77786
1.75732
1.7311
1.70093
1.67676
1.68317
1.75274
1.95577
2.07138
2.07857
2.06732
2.05756
2.0494
2.04221
2.03577
2.02711
2.01713
2.00584
1.99409
1.98393
1.97479
1.96465
1.95393
1.94406
1.93454
1.92523
1.91636
1.90781
1.89665
1.8814
1.86232
1.84053
1.81844
1.79814
1.79146
1.793
1.8095
1.85408
1.89154
1.91309
1.92819
1.93296
1.92872
1.92307
1.9138
1.90021
1.88734
1.89417
1.92591
1.96269
1.97355
1.9672
1.95773
1.95275
1.94882
1.94737
1.94671
1.94475
1.94037
1.93393
1.92723
1.92181
1.91843
1.91586
1.91142
1.90717
1.90284
1.89666
1.88608
1.87214
1.86199
1.85536
1.85098
1.85111
1.85544
1.8718
1.89337
1.91506
2.20656
2.16044
2.11389
2.07107
2.03505
1.99507
1.95191
1.91705
1.89162
1.86597
1.83811
1.81113
1.78811
1.76508
1.73743
1.7126
1.71462
1.78018
1.96714
2.07342
2.07798
2.06578
2.05103
2.04067
2.03439
2.03265
2.02809
2.01866
2.00903
1.999
1.98685
1.97334
1.96034
1.94794
1.93588
1.92405
1.91286
1.90247
1.89205
1.87919
1.8622
1.84206
1.82136
1.80241
1.79964
1.81105
1.85306
1.89744
1.91668
1.92543
1.93543
1.94151
1.93661
1.93012
1.92122
1.90631
1.89109
1.88153
1.89222
1.92863
1.96346
1.96809
1.96349
1.96099
1.9584
1.9565
1.9529
1.94758
1.94076
1.93213
1.92423
1.91917
1.91546
1.91395
1.91467
1.91325
1.91017
1.90549
1.8956
1.87829
1.86221
1.85426
1.85044
1.85217
1.86487
1.88613
1.90456
1.92368
2.23471
2.19129
2.14738
2.10713
2.06974
2.03409
1.99627
1.95932
1.9341
1.91508
1.89206
1.86434
1.83723
1.81736
1.79721
1.76836
1.74219
1.74015
1.80885
1.98064
2.08006
2.07735
2.05981
2.04434
2.03355
2.026
2.02314
2.02222
2.01694
2.00722
1.99535
1.98131
1.96576
1.95084
1.9379
1.92592
1.91403
1.9013
1.88739
1.87205
1.85635
1.84272
1.83044
1.82002
1.82562
1.85882
1.90689
1.92815
1.93359
1.93498
1.93718
1.93967
1.93747
1.93211
1.92497
1.91314
1.89976
1.88952
1.88888
1.90401
1.94341
1.96506
1.97227
1.97154
1.96782
1.96251
1.95656
1.94998
1.94139
1.9325
1.92663
1.92202
1.91878
1.91831
1.91898
1.91718
1.91365
1.90862
1.8987
1.88222
1.86429
1.85459
1.85438
1.86329
1.88388
1.90262
1.91796
1.93529
2.2615
2.22285
2.18196
2.14185
2.10382
2.0674
2.03319
2.00099
1.97033
1.94652
1.92989
1.91059
1.88517
1.86043
1.84156
1.81964
1.79118
1.76651
1.7652
1.83674
1.99233
2.07276
2.07099
2.05339
2.03706
2.02662
2.01923
2.01626
2.01386
2.00674
1.99705
1.98434
1.9685
1.95418
1.94199
1.93035
1.91746
1.90186
1.88336
1.86507
1.85138
1.84411
1.84111
1.84829
1.87738
1.92344
1.94308
1.94617
1.94433
1.94355
1.94298
1.9415
1.93845
1.93345
1.92786
1.92061
1.91109
1.90255
1.89809
1.90113
1.9216
1.95331
1.97261
1.97873
1.9761
1.97011
1.96239
1.95284
1.94316
1.93699
1.93258
1.92969
1.92929
1.92872
1.9258
1.92167
1.91627
1.90946
1.89943
1.88524
1.86975
1.86272
1.86909
1.8873
1.90729
1.92204
1.93291
1.94256
2.28428
2.251
2.21558
2.1787
2.13971
2.10154
2.06823
2.03703
2.00846
1.982
1.95752
1.9399
1.92382
1.90244
1.88004
1.85982
1.83783
1.80952
1.7862
1.78563
1.85599
1.99493
2.06669
2.06221
2.04421
2.02922
2.01814
2.01007
2.00534
1.99911
1.99034
1.98073
1.96965
1.95783
1.94602
1.9335
1.91875
1.90052
1.88088
1.86291
1.85221
1.84896
1.85777
1.89193
1.94382
1.96634
1.96334
1.95853
1.95514
1.9546
1.94993
1.94399
1.93824
1.93392
1.93136
1.93012
1.9272
1.92056
1.91223
1.90395
1.90721
1.92995
1.95852
1.97677
1.97859
1.97411
1.96556
1.95531
1.94841
1.94361
1.94082
1.94111
1.94015
1.93651
1.93218
1.92658
1.91894
1.90966
1.89942
1.89018
1.88279
1.88449
1.89909
1.91894
1.93249
1.94016
1.94424
1.94358
2.30342
2.27442
2.24329
2.21127
2.17716
2.14059
2.10502
2.07481
2.0456
2.01713
1.99144
1.9682
1.94882
1.93241
1.91497
1.89446
1.87339
1.84952
1.81979
1.79837
1.79943
1.8699
1.99744
2.05578
2.05117
2.03538
2.01962
2.00712
1.99758
1.98904
1.98081
1.97293
1.96473
1.95604
1.9464
1.9343
1.9185
1.89923
1.88051
1.86497
1.85725
1.86155
1.8948
1.95472
1.98739
1.98864
1.97903
1.97211
1.96742
1.96351
1.95686
1.94943
1.94406
1.94037
1.93794
1.93637
1.93331
1.92767
1.91887
1.90861
1.90022
1.90754
1.93001
1.95982
1.9742
1.97251
1.96481
1.95835
1.95417
1.95112
1.95166
1.95234
1.94807
1.94344
1.9375
1.92943
1.91948
1.90922
1.9016
1.8996
1.90319
1.91694
1.93718
1.95096
1.95587
1.95503
1.95322
1.94808
2.31924
2.29387
2.26604
2.23706
2.20659
2.17498
2.14369
2.11262
2.08265
2.053
2.02467
2.00012
1.97844
1.95866
1.94076
1.92441
1.90397
1.88179
1.85444
1.82302
1.80589
1.81071
1.8796
1.98832
2.04639
2.04202
2.02428
2.00584
1.99235
1.98258
1.97375
1.96594
1.9586
1.95052
1.94192
1.93155
1.91717
1.89862
1.882
1.86988
1.87086
1.89799
1.9584
2.00206
2.00899
2.00355
1.99434
1.9872
1.98087
1.97293
1.96394
1.95703
1.95273
1.94958
1.94692
1.94326
1.93876
1.93257
1.92354
1.91223
1.9031
1.89993
1.90732
1.92958
1.95744
1.96552
1.96205
1.95983
1.95805
1.9601
1.96113
1.95671
1.95215
1.94716
1.93918
1.92817
1.9181
1.91123
1.90952
1.91566
1.93219
1.95654
1.97305
1.97774
1.97494
1.96967
1.96367
1.9553
2.33275
2.30978
2.2844
2.2579
2.23023
2.20169
2.17353
2.14608
2.11729
2.08743
2.05744
2.0312
2.00858
1.98746
1.96744
1.94657
1.92689
1.90616
1.88447
1.85629
1.82475
1.81057
1.81719
1.87756
1.98728
2.03429
2.02505
2.00849
1.99229
1.97924
1.97003
1.96215
1.95344
1.94457
1.93559
1.92494
1.91156
1.89689
1.88693
1.88507
1.90732
1.96473
2.01555
2.02703
2.02393
2.01777
2.01052
2.00258
1.99211
1.9803
1.97114
1.96524
1.96101
1.9574
1.95263
1.9474
1.94191
1.93521
1.92631
1.91637
1.90797
1.90308
1.90431
1.91081
1.93346
1.95367
1.9606
1.96153
1.96263
1.96462
1.96315
1.95863
1.95357
1.94675
1.93611
1.92599
1.92037
1.91848
1.92407
1.94289
1.97192
1.99308
2.00022
1.99885
1.99164
1.98134
1.97223
1.95972
2.34419
2.32267
2.29927
2.27463
2.2491
2.22299
2.19731
2.17203
2.14584
2.11726
2.08808
2.06158
2.03754
2.01388
1.99158
1.97079
1.94913
1.92609
1.90365
1.88179
1.85466
1.82665
1.81162
1.81531
1.87686
1.97684
2.01521
2.01117
1.9959
1.97952
1.96831
1.95849
1.94831
1.93802
1.92713
1.9148
1.90239
1.89598
1.89812
1.91795
1.97486
2.03106
2.04604
2.04321
2.0381
2.03112
2.02301
2.01333
2.00043
1.98688
1.97874
1.97244
1.96708
1.96163
1.95548
1.94862
1.94195
1.93649
1.93088
1.92383
1.91668
1.91015
1.90584
1.90929
1.9167
1.93796
1.95554
1.96497
1.96719
1.96581
1.96221
1.95692
1.95061
1.94164
1.93247
1.92706
1.9253
1.93085
1.95088
1.9828
2.01137
2.02154
2.02196
2.01608
2.00293
1.9891
1.97707
1.95774
2.35396
2.33242
2.31048
2.28786
2.26415
2.2399
2.21626
2.19282
2.168
2.14174
2.11388
2.08779
2.06359
2.03931
2.01479
1.9909
1.96807
1.94554
1.92327
1.90153
1.87917
1.85274
1.82621
1.80911
1.81193
1.87186
1.95645
2.00212
2.00052
1.98381
1.96771
1.95473
1.9427
1.93042
1.91734
1.90477
1.89723
1.90051
1.91924
1.97947
2.04381
2.06445
2.06205
2.05543
2.04741
2.03923
2.03133
2.02082
2.0053
1.99266
1.98521
1.97831
1.9714
1.96436
1.95732
1.95118
1.94654
1.94293
1.93888
1.93481
1.93009
1.92357
1.9164
1.9122
1.91273
1.91976
1.94199
1.9627
1.96698
1.96482
1.95839
1.9496
1.94156
1.93495
1.93066
1.92896
1.93379
1.95425
1.98783
2.02339
2.04034
2.04261
2.03808
2.02597
2.00887
1.99273
1.97682
1.95472
2.36263
2.34082
2.31906
2.29753
2.27597
2.25364
2.23167
2.20979
2.18567
2.16082
2.13534
2.11003
2.08589
2.06162
2.03639
2.01049
1.98511
1.9618
1.9405
1.92049
1.89915
1.87305
1.84244
1.81575
1.8035
1.80937
1.86455
1.947
1.99254
1.9871
1.96852
1.95218
1.93789
1.92493
1.9099
1.90032
1.90018
1.91206
1.97005
2.04422
2.07787
2.08
2.07393
2.06504
2.05557
2.04583
2.03657
2.02429
2.01028
2.00086
1.99333
1.98524
1.97679
1.96883
1.9623
1.95707
1.95373
1.95235
1.95132
1.95021
1.94627
1.93927
1.93059
1.91951
1.90821
1.90831
1.91763
1.94469
1.9589
1.95817
1.95124
1.93974
1.93306
1.92849
1.92819
1.93409
1.95406
1.989
2.02519
2.0519
2.05838
2.05579
2.04701
2.03078
2.00961
1.98954
1.97337
1.96072
2.37009
2.34893
2.32745
2.30616
2.28538
2.26478
2.24441
2.22393
2.20053
2.1766
2.15362
2.12939
2.1052
2.08068
2.05521
2.02876
2.00242
1.97736
1.95415
1.93266
1.91156
1.88918
1.86218
1.83144
1.80692
1.79845
1.80695
1.85815
1.94008
1.97489
1.96485
1.94914
1.93505
1.92077
1.9075
1.90403
1.91013
1.95634
2.03654
2.07912
2.092
2.08872
2.08151
2.07334
2.06349
2.05157
2.03825
2.02483
2.01519
2.0082
2.00117
1.99319
1.98387
1.97526
1.96881
1.96369
1.96119
1.96326
1.96635
1.96415
1.95872
1.95126
1.94004
1.92467
1.90942
1.89679
1.89717
1.90924
1.934
1.94533
1.9435
1.93555
1.9298
1.92655
1.93042
1.94901
1.98721
2.02278
2.05141
2.06594
2.06676
2.06216
2.05164
2.03186
2.00402
1.98422
1.97687
1.97009
2.37725
2.35673
2.33568
2.31483
2.29421
2.27408
2.25463
2.23471
2.2123
2.19007
2.16917
2.14613
2.12195
2.09712
2.0713
2.04465
2.01774
1.99154
1.9668
1.94357
1.9211
1.89877
1.87575
1.84968
1.82225
1.80066
1.79282
1.80039
1.84761
1.92178
1.94718
1.94287
1.92944
1.91551
1.90691
1.91068
1.94736
2.03081
2.0788
2.09433
2.09797
2.09374
2.08728
2.08009
2.06989
2.05508
2.03789
2.02566
2.01867
2.01301
2.00687
1.99999
1.99118
1.98203
1.9752
1.96987
1.96908
1.97442
1.97461
1.96973
1.96383
1.95617
1.94477
1.92899
1.91325
1.90116
1.891
1.88608
1.90117
1.92358
1.93706
1.93595
1.93176
1.932
1.9442
1.97888
2.01783
2.04606
2.06363
2.07053
2.06766
2.06084
2.04849
2.0263
2.00075
1.98787
1.98386
1.97792
2.3863
2.36582
2.34453
2.32318
2.3022
2.28194
2.26255
2.24255
2.22109
2.2003
2.18142
2.15926
2.13537
2.11064
2.08469
2.05788
2.03085
2.00413
1.97799
1.95283
1.9288
1.90586
1.88398
1.86199
1.83802
1.81257
1.79274
1.78261
1.7883
1.83267
1.89508
1.92102
1.91954
1.91299
1.9106
1.93948
2.02278
2.08058
2.09595
2.10058
2.10149
2.09705
2.09074
2.08297
2.07237
2.05723
2.03991
2.02777
2.02181
2.01728
2.01199
2.00496
1.99654
1.9884
1.9813
1.97526
1.97117
1.9702
1.97085
1.96878
1.96373
1.95649
1.94562
1.93221
1.91876
1.907
1.89516
1.8844
1.88339
1.90037
1.92625
1.93644
1.93904
1.94923
1.97461
2.01234
2.04166
2.05862
2.06484
2.06354
2.05928
2.05092
2.03721
2.02135
2.00736
1.99652
1.99159
1.98643
2.39637
2.37543
2.35352
2.33121
2.30914
2.28794
2.26798
2.24779
2.22747
2.2084
2.19065
2.16919
2.1456
2.1212
2.09547
2.06871
2.04154
2.01418
1.98657
1.95957
1.93425
1.91095
1.88959
1.86923
1.84841
1.82502
1.80085
1.77984
1.76684
1.77185
1.81113
1.87109
1.89927
1.90891
1.9343
2.00672
2.08112
2.10484
2.10699
2.10784
2.10457
2.09822
2.09153
2.08304
2.07182
2.05857
2.04554
2.03549
2.02652
2.01838
2.01114
2.00385
1.99726
1.99075
1.98453
1.97858
1.97253
1.96742
1.96429
1.96137
1.95699
1.95076
1.94272
1.93376
1.92392
1.9129
1.90032
1.88651
1.88307
1.89026
1.91272
1.93375
1.94999
1.97462
2.00759
2.0398
2.0577
2.06057
2.05715
2.05049
2.04263
2.03451
2.02673
2.02004
2.01436
2.00759
2.00163
1.99604
2.40477
2.38297
2.36
2.33655
2.3135
2.29101
2.2692
2.24965
2.23097
2.21327
2.19625
2.17531
2.15187
2.1278
2.10248
2.07605
2.04884
2.02079
1.99199
1.9639
1.93813
1.91499
1.89379
1.87396
1.85445
1.83348
1.80961
1.78403
1.76117
1.74667
1.75297
1.79277
1.85621
1.91602
1.98967
2.07146
2.09879
2.10686
2.10903
2.10962
2.10495
2.09891
2.09095
2.08103
2.07074
2.06129
2.05398
2.04581
2.03411
2.02027
2.0097
2.00285
1.99649
1.99088
1.98644
1.98091
1.97452
1.96829
1.96109
1.95318
1.94625
1.94116
1.9367
1.931
1.92527
1.91818
1.90658
1.89144
1.88344
1.88723
1.90225
1.9302
1.96345
2.00223
2.03695
2.05882
2.06308
2.05769
2.04593
2.03286
2.02411
2.0202
2.02014
2.02035
2.01988
2.01742
2.01173
2.00087
2.41056
2.38803
2.36435
2.34032
2.3167
2.29438
2.27393
2.25452
2.23571
2.21726
2.19988
2.17909
2.15568
2.13156
2.10633
2.07996
2.05262
2.02421
1.99488
1.96625
1.94041
1.91755
1.89643
1.87653
1.85726
1.83762
1.81489
1.78905
1.76228
1.73646
1.72707
1.73998
1.80423
1.92173
2.03421
2.12265
2.1183
2.11366
2.11367
2.11083
2.10514
2.09871
2.08878
2.07878
2.07162
2.06562
2.05896
2.05003
2.03574
2.01726
2.00592
1.99955
1.9936
1.98924
1.98577
1.97942
1.97246
1.96442
1.95424
1.94475
1.93832
1.93312
1.93013
1.92881
1.92505
1.92034
1.91327
1.90032
1.88838
1.88889
1.89837
1.92762
1.97508
2.02518
2.05869
2.07073
2.06538
2.05026
2.03155
2.02013
2.01576
2.01366
2.01587
2.02253
2.02482
2.02273
2.01693
2.00244
)
;

boundaryField
{
    inlet
    {
        type            fixedValue;
        value           uniform 1;
    }
    outlet
    {
        type            inletOutlet;
        inletValue      uniform 1;
        value           nonuniform List<scalar> 
24
(
1.90144
1.9018
1.89855
1.89632
1.89233
1.89686
1.90623
1.916
1.92582
1.93832
1.94522
1.94527
1.94868
1.95488
1.95802
1.95478
1.95247
1.96008
1.97015
1.97848
1.98741
1.99694
2.00056
2.00147
)
;
    }
    bottom
    {
        type            zeroGradient;
    }
    top
    {
        type            zeroGradient;
    }
    obstacle
    {
        type            zeroGradient;
    }
    defaultFaces
    {
        type            empty;
    }
}


// ************************************************************************* //
