/*--------------------------------*- C++ -*----------------------------------*\
  =========                 |
  \\      /  F ield         | OpenFOAM: The Open Source CFD Toolbox
   \\    /   O peration     | Website:  https://openfoam.org
    \\  /    A nd           | Version:  7
     \\/     M anipulation  |
\*---------------------------------------------------------------------------*/
FoamFile
{
    version     2.0;
    format      ascii;
    class       volVectorField;
    location    "14";
    object      U;
}
// * * * * * * * * * * * * * * * * * * * * * * * * * * * * * * * * * * * * * //

dimensions      [0 1 -1 0 0 0 0];

internalField   nonuniform List<vector> 
3328
(
(-3.00353 3.33759e-05 0)
(-0.671199 -0.000934889 0)
(0.482543 0.00264526 0)
(0.474329 0.00293424 0)
(0.4692 0.00386854 0)
(0.464747 0.00463313 0)
(0.459616 0.00528638 0)
(0.452843 0.00595709 0)
(0.440009 0.00647944 0)
(0.422381 0.00699146 0)
(0.405586 0.00747143 0)
(0.39159 0.00788384 0)
(0.378661 0.00837002 0)
(0.364828 0.00895975 0)
(0.348668 0.00963713 0)
(0.327839 0.0105429 0)
(0.299105 0.0115872 0)
(0.262737 0.0130013 0)
(0.223032 0.0148491 0)
(0.182428 0.0170745 0)
(0.141743 0.0193983 0)
(0.100744 0.0220287 0)
(0.0599845 0.0235877 0)
(0.0209113 0.0257525 0)
(-3.00375 0.000551417 0)
(-0.671242 -0.00170995 0)
(0.482665 0.00804202 0)
(0.474381 0.0089988 0)
(0.469414 0.0115333 0)
(0.464735 0.0136119 0)
(0.459398 0.0154301 0)
(0.452781 0.0176103 0)
(0.439943 0.0197859 0)
(0.422151 0.0221039 0)
(0.404942 0.024122 0)
(0.390503 0.0255688 0)
(0.377545 0.0267335 0)
(0.363752 0.0279932 0)
(0.347946 0.0293901 0)
(0.327305 0.031915 0)
(0.298887 0.0351288 0)
(0.263065 0.0396121 0)
(0.22393 0.0455261 0)
(0.183785 0.0527975 0)
(0.143069 0.0603293 0)
(0.101946 0.0686176 0)
(0.0604628 0.0737335 0)
(0.0207373 0.0799573 0)
(-3.00424 0.00108761 0)
(-0.671191 -0.00158785 0)
(0.483951 0.0129945 0)
(0.475567 0.0144082 0)
(0.470878 0.0180004 0)
(0.466137 0.021164 0)
(0.461023 0.0239724 0)
(0.454461 0.0272526 0)
(0.442352 0.0307886 0)
(0.424735 0.0349085 0)
(0.406945 0.038681 0)
(0.391902 0.0418727 0)
(0.37857 0.0444006 0)
(0.36536 0.0470138 0)
(0.350091 0.0497241 0)
(0.330618 0.0537265 0)
(0.303785 0.0590818 0)
(0.269881 0.066548 0)
(0.232474 0.0761719 0)
(0.193547 0.0877987 0)
(0.152862 0.0999913 0)
(0.110641 0.113568 0)
(0.0661765 0.122197 0)
(0.0225746 0.131487 0)
(-3.00471 0.00146391 0)
(-0.671279 -8.88564e-05 0)
(0.485365 0.0176894 0)
(0.476996 0.0194084 0)
(0.47232 0.0235317 0)
(0.467723 0.0275789 0)
(0.462886 0.0311856 0)
(0.456342 0.0354831 0)
(0.445349 0.0400854 0)
(0.428442 0.0462618 0)
(0.410068 0.0520187 0)
(0.394312 0.0573264 0)
(0.380551 0.0618259 0)
(0.367457 0.066108 0)
(0.353106 0.0705086 0)
(0.335072 0.0758198 0)
(0.310583 0.0830626 0)
(0.279254 0.0934249 0)
(0.243619 0.107058 0)
(0.205639 0.123751 0)
(0.164778 0.141166 0)
(0.121644 0.160306 0)
(0.0742874 0.172958 0)
(0.0250939 0.184429 0)
(-3.00495 0.00191385 0)
(-0.671454 0.00228949 0)
(0.487052 0.0219748 0)
(0.478873 0.0239169 0)
(0.473891 0.0281798 0)
(0.469896 0.0329958 0)
(0.465231 0.0371029 0)
(0.459232 0.0424949 0)
(0.449205 0.0478694 0)
(0.433782 0.0557809 0)
(0.415326 0.0637654 0)
(0.398806 0.0713842 0)
(0.384479 0.0783659 0)
(0.371131 0.0848113 0)
(0.357222 0.09119 0)
(0.340645 0.0985715 0)
(0.318866 0.107952 0)
(0.291479 0.121026 0)
(0.25989 0.137888 0)
(0.225825 0.15826 0)
(0.187147 0.179316 0)
(0.144261 0.204126 0)
(0.0910964 0.224295 0)
(0.0318041 0.24062 0)
(-3.00478 0.0023281 0)
(-0.671773 0.005372 0)
(0.488886 0.025847 0)
(0.481171 0.0280475 0)
(0.475703 0.032276 0)
(0.472605 0.0377541 0)
(0.468077 0.0422573 0)
(0.463291 0.048648 0)
(0.45399 0.0547822 0)
(0.440545 0.0635429 0)
(0.422877 0.0740226 0)
(0.405613 0.0841431 0)
(0.390586 0.093672 0)
(0.376935 0.102761 0)
(0.363181 0.111489 0)
(0.348178 0.121328 0)
(0.329536 0.132955 0)
(0.306598 0.148246 0)
(0.279053 0.167719 0)
(0.247437 0.192803 0)
(0.208236 0.221077 0)
(0.161619 0.255558 0)
(0.104194 0.286237 0)
(0.0330005 0.303952 0)
(-3.00414 0.00265182 0)
(-0.672216 0.00876953 0)
(0.491077 0.0292369 0)
(0.484326 0.0318379 0)
(0.478482 0.0359959 0)
(0.476317 0.0419502 0)
(0.471999 0.0470044 0)
(0.468478 0.0539709 0)
(0.460304 0.0612614 0)
(0.448583 0.0703643 0)
(0.432575 0.0825683 0)
(0.415381 0.0953151 0)
(0.399553 0.107283 0)
(0.385565 0.119329 0)
(0.371874 0.130718 0)
(0.358248 0.143201 0)
(0.342532 0.157252 0)
(0.323883 0.174997 0)
(0.30067 0.19734 0)
(0.275185 0.227163 0)
(0.241709 0.260619 0)
(0.203919 0.300947 0)
(0.146863 0.342432 0)
(0.0620602 0.375854 0)
(-3.00329 0.00311836 0)
(-0.672876 0.0117936 0)
(0.493887 0.0316765 0)
(0.488768 0.0352599 0)
(0.482565 0.0393504 0)
(0.481074 0.0456119 0)
(0.476962 0.0515294 0)
(0.474256 0.0588145 0)
(0.468118 0.067192 0)
(0.457847 0.0768177 0)
(0.443729 0.0892508 0)
(0.427774 0.104782 0)
(0.411319 0.119056 0)
(0.397097 0.133887 0)
(0.383601 0.148134 0)
(0.371188 0.163458 0)
(0.357889 0.180172 0)
(0.343865 0.200253 0)
(0.326058 0.223956 0)
(0.308516 0.255007 0)
(0.280314 0.293069 0)
(0.245913 0.353317 0)
(0.167969 0.426149 0)
(0.108301 0.510953 0)
(-3.00252 0.0033726 0)
(-0.673812 0.0120407 0)
(0.495924 0.0337616 0)
(0.494506 0.0383466 0)
(0.487192 0.0426733 0)
(0.485589 0.0493711 0)
(0.481978 0.0562854 0)
(0.479826 0.0638648 0)
(0.475468 0.0726439 0)
(0.467541 0.0834235 0)
(0.455246 0.0956811 0)
(0.441456 0.111922 0)
(0.425582 0.128508 0)
(0.411244 0.14579 0)
(0.398184 0.16307 0)
(0.386886 0.181319 0)
(0.37566 0.200661 0)
(0.365993 0.222357 0)
(0.353276 0.246702 0)
(0.342104 0.279245 0)
(0.319507 0.326788 0)
(0.302433 0.4033 0)
(0.27928 0.48211 0)
(0.33211 0.547426 0)
(-3.00266 0.00375928 0)
(-0.674712 0.00870826 0)
(0.496874 0.034106 0)
(0.498649 0.044465 0)
(0.491377 0.0478956 0)
(0.488487 0.0542824 0)
(0.486133 0.0616684 0)
(0.484095 0.0696666 0)
(0.48116 0.0782874 0)
(0.47669 0.089348 0)
(0.466898 0.10151 0)
(0.455072 0.117665 0)
(0.441209 0.135833 0)
(0.427174 0.154814 0)
(0.415486 0.174819 0)
(0.404459 0.195888 0)
(0.395754 0.217669 0)
(0.388855 0.240699 0)
(0.381113 0.266123 0)
(0.374221 0.29954 0)
(0.364015 0.350436 0)
(0.362651 0.419312 0)
(0.376375 0.461407 0)
(0.428733 0.455808 0)
(-3.00418 0.00401945 0)
(-0.675385 0.00255561 0)
(0.49806 0.0356719 0)
(0.500682 0.0508293 0)
(0.493927 0.0546679 0)
(0.489833 0.0606748 0)
(0.487877 0.0681158 0)
(0.486973 0.0761826 0)
(0.485657 0.084165 0)
(0.484283 0.094459 0)
(0.478129 0.106764 0)
(0.468292 0.121835 0)
(0.457125 0.14049 0)
(0.444501 0.160803 0)
(0.434598 0.183105 0)
(0.423977 0.206089 0)
(0.417105 0.230469 0)
(0.41181 0.255108 0)
(0.408871 0.281355 0)
(0.40534 0.313522 0)
(0.407533 0.359606 0)
(0.417251 0.418891 0)
(0.447712 0.455379 0)
(0.490728 0.44784 0)
(-3.00709 0.00442103 0)
(-0.67563 -0.00414829 0)
(0.499238 0.0377531 0)
(0.501724 0.0564257 0)
(0.495378 0.0611163 0)
(0.490623 0.0674399 0)
(0.487491 0.0746747 0)
(0.48966 0.0826381 0)
(0.488562 0.090772 0)
(0.489924 0.099933 0)
(0.487605 0.111785 0)
(0.480651 0.125801 0)
(0.472499 0.143324 0)
(0.46204 0.163523 0)
(0.454795 0.187104 0)
(0.444964 0.211511 0)
(0.440422 0.238074 0)
(0.434365 0.264938 0)
(0.43584 0.291527 0)
(0.434368 0.321508 0)
(0.442758 0.359726 0)
(0.458826 0.407555 0)
(0.492351 0.442138 0)
(0.529211 0.435725 0)
(-3.01073 0.00459865 0)
(-0.675333 -0.00860129 0)
(0.500387 0.0383206 0)
(0.502788 0.0598226 0)
(0.498805 0.0665356 0)
(0.491952 0.0731464 0)
(0.488926 0.0808475 0)
(0.489741 0.0889335 0)
(0.492867 0.0967814 0)
(0.494141 0.105698 0)
(0.495334 0.116755 0)
(0.49139 0.129994 0)
(0.486438 0.146191 0)
(0.47849 0.164768 0)
(0.474575 0.187747 0)
(0.467265 0.212052 0)
(0.464415 0.240371 0)
(0.458602 0.268937 0)
(0.460966 0.296568 0)
(0.460713 0.32492 0)
(0.47073 0.355935 0)
(0.487281 0.39411 0)
(0.519545 0.42924 0)
(0.555024 0.434978 0)
(-3.01434 0.00468623 0)
(-0.674175 -0.0117283 0)
(0.504899 0.0419121 0)
(0.504845 0.0604554 0)
(0.502545 0.0695517 0)
(0.494962 0.0769819 0)
(0.49134 0.0854764 0)
(0.490975 0.0944352 0)
(0.496226 0.102293 0)
(0.498623 0.111288 0)
(0.502081 0.121351 0)
(0.500467 0.134253 0)
(0.498427 0.149524 0)
(0.493552 0.166567 0)
(0.492366 0.187367 0)
(0.489335 0.210232 0)
(0.488254 0.237868 0)
(0.48425 0.267492 0)
(0.484783 0.296232 0)
(0.486238 0.324578 0)
(0.494644 0.352539 0)
(0.507601 0.383159 0)
(0.536289 0.411989 0)
(0.569792 0.430922 0)
(-3.01782 0.00473778 0)
(-0.672551 -0.0146138 0)
(0.511292 0.0494812 0)
(0.50912 0.0582655 0)
(0.507127 0.0700402 0)
(0.500481 0.0793899 0)
(0.495147 0.0884893 0)
(0.494206 0.0980075 0)
(0.49824 0.106902 0)
(0.503322 0.115642 0)
(0.508076 0.125325 0)
(0.508793 0.13787 0)
(0.508883 0.152617 0)
(0.507342 0.168914 0)
(0.507939 0.187614 0)
(0.509508 0.20849 0)
(0.510859 0.233561 0)
(0.509494 0.262285 0)
(0.509196 0.291426 0)
(0.510326 0.32026 0)
(0.516982 0.347766 0)
(0.528005 0.375257 0)
(0.549575 0.399614 0)
(0.5789 0.419957 0)
(-3.02134 0.00469338 0)
(-0.670959 -0.0144726 0)
(0.518032 0.0510613 0)
(0.514403 0.0579529 0)
(0.511599 0.0702701 0)
(0.506647 0.081109 0)
(0.500198 0.0902202 0)
(0.498427 0.0998767 0)
(0.500832 0.109852 0)
(0.506815 0.118727 0)
(0.513478 0.128356 0)
(0.517028 0.1404 0)
(0.518499 0.154776 0)
(0.520086 0.170652 0)
(0.521965 0.188194 0)
(0.527277 0.20737 0)
(0.531484 0.229584 0)
(0.533339 0.25578 0)
(0.533696 0.284147 0)
(0.533492 0.312456 0)
(0.53929 0.340139 0)
(0.54852 0.367017 0)
(0.564941 0.391123 0)
(0.589931 0.411206 0)
(-3.02479 0.00455136 0)
(-0.670026 -0.0110452 0)
(0.523956 0.0502047 0)
(0.519908 0.0565747 0)
(0.517245 0.0693083 0)
(0.511983 0.0813962 0)
(0.505746 0.0910951 0)
(0.503207 0.100861 0)
(0.504511 0.111158 0)
(0.51051 0.120667 0)
(0.518011 0.130479 0)
(0.524836 0.141582 0)
(0.527814 0.155572 0)
(0.531917 0.170888 0)
(0.535054 0.187787 0)
(0.542778 0.205516 0)
(0.549669 0.225332 0)
(0.554848 0.248499 0)
(0.556995 0.274884 0)
(0.55748 0.302515 0)
(0.560893 0.329434 0)
(0.568777 0.356384 0)
(0.582168 0.381711 0)
(0.602312 0.403954 0)
(-3.02798 0.00442209 0)
(-0.669719 -0.00643447 0)
(0.52916 0.048018 0)
(0.524833 0.0535593 0)
(0.523213 0.0661804 0)
(0.517745 0.0795021 0)
(0.511342 0.0911296 0)
(0.508035 0.101623 0)
(0.508932 0.112094 0)
(0.514826 0.121582 0)
(0.52246 0.131796 0)
(0.531545 0.141619 0)
(0.53684 0.154655 0)
(0.542784 0.16953 0)
(0.547831 0.185949 0)
(0.556087 0.202589 0)
(0.565531 0.220143 0)
(0.57343 0.240228 0)
(0.578221 0.263861 0)
(0.580897 0.290069 0)
(0.583404 0.316832 0)
(0.590018 0.343565 0)
(0.600795 0.370436 0)
(0.618051 0.395353 0)
(-3.03069 0.00430326 0)
(-0.670025 -0.000230765 0)
(0.534231 0.0457379 0)
(0.530395 0.0506171 0)
(0.530333 0.0630402 0)
(0.525109 0.0771976 0)
(0.518227 0.0902939 0)
(0.513435 0.102088 0)
(0.513671 0.112521 0)
(0.519277 0.121453 0)
(0.527007 0.131664 0)
(0.53704 0.140557 0)
(0.545406 0.152288 0)
(0.552708 0.166779 0)
(0.560402 0.182393 0)
(0.567281 0.19836 0)
(0.578967 0.213943 0)
(0.589147 0.231462 0)
(0.596892 0.252096 0)
(0.602106 0.276044 0)
(0.606388 0.302083 0)
(0.611925 0.329177 0)
(0.621616 0.356741 0)
(0.637403 0.384193 0)
(-3.03283 0.00441357 0)
(-0.670974 0.00516667 0)
(0.539271 0.0442105 0)
(0.536619 0.0486104 0)
(0.538198 0.0604799 0)
(0.534118 0.0751992 0)
(0.52701 0.0885186 0)
(0.51998 0.100653 0)
(0.51878 0.11141 0)
(0.523153 0.120183 0)
(0.531593 0.129379 0)
(0.542414 0.138009 0)
(0.553525 0.148902 0)
(0.562668 0.163001 0)
(0.571665 0.178142 0)
(0.578379 0.193564 0)
(0.589904 0.207936 0)
(0.602013 0.223415 0)
(0.612777 0.241581 0)
(0.621165 0.262907 0)
(0.627891 0.287168 0)
(0.634568 0.313651 0)
(0.644238 0.341529 0)
(0.659242 0.36991 0)
(-3.03456 0.00474564 0)
(-0.672273 0.00846073 0)
(0.54391 0.0434251 0)
(0.542801 0.0475317 0)
(0.545974 0.0583917 0)
(0.543371 0.0728266 0)
(0.536363 0.0856295 0)
(0.527514 0.0970434 0)
(0.524 0.10779 0)
(0.527354 0.116704 0)
(0.535901 0.125525 0)
(0.548289 0.134515 0)
(0.561306 0.14487 0)
(0.573062 0.158221 0)
(0.582142 0.173658 0)
(0.590251 0.189104 0)
(0.5994 0.203617 0)
(0.612588 0.217575 0)
(0.625233 0.233613 0)
(0.637035 0.252371 0)
(0.646724 0.274189 0)
(0.656028 0.298629 0)
(0.667247 0.325142 0)
(0.682676 0.353572 0)
(-3.03604 0.00515872 0)
(-0.673642 0.0102625 0)
(0.548111 0.0432276 0)
(0.548543 0.046776 0)
(0.552895 0.0559524 0)
(0.551749 0.069401 0)
(0.545032 0.0812149 0)
(0.535333 0.0919758 0)
(0.529473 0.102434 0)
(0.531915 0.111824 0)
(0.540288 0.120489 0)
(0.554176 0.129884 0)
(0.569266 0.140066 0)
(0.583576 0.152769 0)
(0.593254 0.168373 0)
(0.602304 0.184513 0)
(0.609284 0.200427 0)
(0.622242 0.214656 0)
(0.635484 0.229585 0)
(0.649133 0.245833 0)
(0.661811 0.264506 0)
(0.674522 0.285639 0)
(0.688115 0.309189 0)
(0.705405 0.334903 0)
(-3.03733 0.00543282 0)
(-0.674975 0.0118324 0)
(0.551858 0.0416486 0)
(0.553625 0.0448706 0)
(0.558548 0.0520434 0)
(0.558966 0.0644019 0)
(0.553024 0.0754822 0)
(0.543187 0.0861782 0)
(0.535913 0.0969859 0)
(0.537324 0.107191 0)
(0.545529 0.116217 0)
(0.559635 0.125239 0)
(0.577397 0.134725 0)
(0.593663 0.146582 0)
(0.605738 0.161809 0)
(0.614251 0.178849 0)
(0.621714 0.196631 0)
(0.632275 0.212874 0)
(0.644915 0.227962 0)
(0.658424 0.242779 0)
(0.673318 0.258073 0)
(0.6889 0.275136 0)
(0.705026 0.294816 0)
(0.724913 0.316197 0)
(-3.03851 0.0053682 0)
(-0.676322 0.0130248 0)
(0.555026 0.0382405 0)
(0.558326 0.041478 0)
(0.563435 0.046997 0)
(0.565204 0.0582706 0)
(0.561065 0.0696159 0)
(0.551364 0.0804533 0)
(0.543588 0.0921055 0)
(0.54364 0.103083 0)
(0.551059 0.11313 0)
(0.565455 0.121268 0)
(0.584061 0.129959 0)
(0.602825 0.139958 0)
(0.617473 0.153781 0)
(0.627499 0.170987 0)
(0.635564 0.190093 0)
(0.643844 0.208403 0)
(0.654343 0.224635 0)
(0.66589 0.239376 0)
(0.681425 0.25244 0)
(0.698872 0.266161 0)
(0.717556 0.282054 0)
(0.739997 0.299196 0)
(-3.03978 0.00507015 0)
(-0.677791 0.0126748 0)
(0.556978 0.0335972 0)
(0.562423 0.0368342 0)
(0.567783 0.041619 0)
(0.570477 0.0521349 0)
(0.569092 0.0645005 0)
(0.560037 0.0750838 0)
(0.552298 0.0879935 0)
(0.55064 0.100022 0)
(0.556731 0.11096 0)
(0.570621 0.118375 0)
(0.588566 0.126583 0)
(0.609707 0.13366 0)
(0.627041 0.144933 0)
(0.640323 0.160244 0)
(0.649366 0.179014 0)
(0.656722 0.198362 0)
(0.664244 0.216143 0)
(0.673131 0.232093 0)
(0.68733 0.245304 0)
(0.705446 0.257438 0)
(0.726228 0.270406 0)
(0.750765 0.284348 0)
(-3.04145 0.00466391 0)
(-0.679386 0.0099411 0)
(0.557397 0.028631 0)
(0.564982 0.0319243 0)
(0.570746 0.0366353 0)
(0.574433 0.0467626 0)
(0.575922 0.05961 0)
(0.569329 0.070479 0)
(0.561158 0.0836192 0)
(0.558297 0.0968295 0)
(0.562389 0.10834 0)
(0.574236 0.116006 0)
(0.591202 0.123855 0)
(0.613623 0.128058 0)
(0.633751 0.136335 0)
(0.65035 0.148255 0)
(0.661957 0.164412 0)
(0.669743 0.182856 0)
(0.675851 0.201329 0)
(0.682473 0.218803 0)
(0.693718 0.234289 0)
(0.710903 0.247336 0)
(0.732644 0.259188 0)
(0.758396 0.271451 0)
(-3.04372 0.00431726 0)
(-0.680824 0.00577053 0)
(0.557526 0.0238781 0)
(0.566178 0.0279378 0)
(0.571993 0.0329268 0)
(0.576928 0.0427062 0)
(0.580753 0.0550512 0)
(0.5775 0.0661435 0)
(0.569603 0.0782021 0)
(0.566425 0.0918337 0)
(0.568095 0.103914 0)
(0.576795 0.112859 0)
(0.592484 0.11992 0)
(0.614074 0.123667 0)
(0.636955 0.128584 0)
(0.656491 0.137008 0)
(0.671454 0.148965 0)
(0.680978 0.164117 0)
(0.687597 0.18133 0)
(0.693871 0.199661 0)
(0.702993 0.21774 0)
(0.718293 0.23376 0)
(0.739446 0.246987 0)
(0.764916 0.259395 0)
(-3.04653 0.0040088 0)
(-0.681822 0.00203196 0)
(0.558197 0.0199067 0)
(0.566979 0.0251392 0)
(0.572502 0.0306251 0)
(0.578183 0.0400519 0)
(0.583869 0.0514157 0)
(0.58321 0.0616084 0)
(0.577882 0.0721359 0)
(0.573841 0.0844598 0)
(0.573981 0.0967163 0)
(0.579445 0.106932 0)
(0.592534 0.114403 0)
(0.612341 0.11952 0)
(0.636742 0.121775 0)
(0.658817 0.127381 0)
(0.677198 0.135509 0)
(0.690489 0.146775 0)
(0.698572 0.160866 0)
(0.705577 0.17767 0)
(0.714225 0.196437 0)
(0.728014 0.214941 0)
(0.747667 0.231295 0)
(0.772171 0.245258 0)
(-3.04952 0.00378603 0)
(-0.682442 0.00045094 0)
(0.560057 0.0170931 0)
(0.568249 0.0232026 0)
(0.573579 0.0289643 0)
(0.578994 0.0382527 0)
(0.585709 0.0485364 0)
(0.58666 0.0569893 0)
(0.584725 0.0657834 0)
(0.579805 0.075611 0)
(0.581233 0.0867356 0)
(0.583153 0.0978401 0)
(0.592979 0.106846 0)
(0.611267 0.113013 0)
(0.633247 0.117298 0)
(0.658022 0.119899 0)
(0.679214 0.125395 0)
(0.696327 0.133654 0)
(0.708394 0.144635 0)
(0.717368 0.158008 0)
(0.726691 0.174296 0)
(0.739919 0.192226 0)
(0.757807 0.210287 0)
(0.781088 0.226028 0)
(-3.05232 0.00359161 0)
(-0.682668 3.10777e-05 0)
(0.563226 0.0154432 0)
(0.570532 0.0215335 0)
(0.575556 0.0271178 0)
(0.579933 0.0361708 0)
(0.58628 0.0456243 0)
(0.588141 0.0522729 0)
(0.58825 0.0588309 0)
(0.585867 0.0665317 0)
(0.58777 0.0754391 0)
(0.587965 0.0864671 0)
(0.595884 0.0965169 0)
(0.610577 0.105316 0)
(0.630489 0.112184 0)
(0.655598 0.114388 0)
(0.678553 0.118894 0)
(0.698479 0.12515 0)
(0.714668 0.13336 0)
(0.727412 0.143273 0)
(0.738711 0.155306 0)
(0.75186 0.169144 0)
(0.768166 0.185027 0)
(0.789983 0.200337 0)
(-3.05467 0.0034572 0)
(-0.682652 0.0010643 0)
(0.567424 0.0151814 0)
(0.573646 0.0200533 0)
(0.577853 0.0248452 0)
(0.580941 0.0329779 0)
(0.585873 0.0415156 0)
(0.587942 0.0468836 0)
(0.589389 0.0515849 0)
(0.590735 0.0574437 0)
(0.592107 0.0645725 0)
(0.594482 0.0743164 0)
(0.600802 0.084924 0)
(0.612235 0.0959992 0)
(0.630784 0.104538 0)
(0.652056 0.112025 0)
(0.676219 0.115274 0)
(0.697554 0.119763 0)
(0.715968 0.125571 0)
(0.732038 0.132 0)
(0.746469 0.139848 0)
(0.761316 0.148619 0)
(0.777639 0.159603 0)
(0.797858 0.171029 0)
(-3.05652 0.00332638 0)
(-0.682654 0.00228418 0)
(0.57163 0.01604 0)
(0.576966 0.0189201 0)
(0.579697 0.0222388 0)
(0.581152 0.0285654 0)
(0.584108 0.0358438 0)
(0.585861 0.0403149 0)
(0.588624 0.0440248 0)
(0.592678 0.048543 0)
(0.596166 0.0546142 0)
(0.60158 0.062774 0)
(0.607825 0.0734549 0)
(0.617811 0.0854742 0)
(0.633434 0.0961092 0)
(0.650873 0.106882 0)
(0.673955 0.111715 0)
(0.694677 0.116219 0)
(0.71369 0.119664 0)
(0.731209 0.122761 0)
(0.748096 0.1267 0)
(0.765448 0.130844 0)
(0.783882 0.136893 0)
(0.804848 0.14342 0)
(-3.05797 0.00317857 0)
(-0.682623 0.0028708 0)
(0.575486 0.0168841 0)
(0.579894 0.0178703 0)
(0.580799 0.0192749 0)
(0.580685 0.0230795 0)
(0.581869 0.0285238 0)
(0.583211 0.0323888 0)
(0.586929 0.036221 0)
(0.593129 0.0400682 0)
(0.60055 0.0451465 0)
(0.607211 0.0525836 0)
(0.616467 0.0627294 0)
(0.625609 0.0750366 0)
(0.638859 0.0867245 0)
(0.653618 0.0986047 0)
(0.672932 0.105398 0)
(0.692307 0.109778 0)
(0.710713 0.112299 0)
(0.727966 0.113609 0)
(0.74541 0.115064 0)
(0.764225 0.115803 0)
(0.784883 0.117842 0)
(0.807995 0.119936 0)
(-3.05924 0.0028949 0)
(-0.682443 0.00196679 0)
(0.579038 0.0165645 0)
(0.582171 0.0163961 0)
(0.581457 0.0160086 0)
(0.579813 0.0175258 0)
(0.579123 0.0209572 0)
(0.579942 0.0241794 0)
(0.584956 0.0278693 0)
(0.593283 0.0317722 0)
(0.603641 0.0369593 0)
(0.613687 0.0441907 0)
(0.623555 0.0528191 0)
(0.634271 0.0639128 0)
(0.645708 0.0756955 0)
(0.658557 0.0870621 0)
(0.673403 0.095411 0)
(0.691029 0.100109 0)
(0.708339 0.102514 0)
(0.724713 0.103195 0)
(0.741447 0.10379 0)
(0.760221 0.103074 0)
(0.782249 0.102921 0)
(0.807587 0.102047 0)
(-3.06076 0.0026331 0)
(-0.681868 -0.00212913 0)
(0.581626 0.0148841 0)
(0.583352 0.0140878 0)
(0.581176 0.0129158 0)
(0.577976 0.0131355 0)
(0.575669 0.0149412 0)
(0.576346 0.0179657 0)
(0.582492 0.0211015 0)
(0.592227 0.0245465 0)
(0.604834 0.0291 0)
(0.617814 0.0357394 0)
(0.629811 0.0437577 0)
(0.641415 0.0522039 0)
(0.652047 0.0619071 0)
(0.663453 0.0724879 0)
(0.675416 0.0818866 0)
(0.690437 0.0876095 0)
(0.706135 0.0907435 0)
(0.721666 0.0918271 0)
(0.737645 0.092633 0)
(0.755844 0.0918204 0)
(0.778015 0.0909304 0)
(0.804622 0.0891023 0)
(-3.06301 0.00228411 0)
(-0.680764 -0.0081774 0)
(0.582358 0.0109446 0)
(0.582142 0.0110484 0)
(0.579183 0.0101218 0)
(0.575292 0.00996903 0)
(0.572983 0.0112121 0)
(0.574673 0.0136408 0)
(0.581131 0.0166785 0)
(0.591844 0.0189329 0)
(0.60566 0.0225956 0)
(0.620782 0.0267721 0)
(0.634948 0.0321009 0)
(0.647569 0.0388944 0)
(0.658412 0.0475499 0)
(0.668658 0.0563681 0)
(0.679175 0.0657409 0)
(0.69124 0.0726522 0)
(0.704764 0.0770385 0)
(0.719207 0.0792783 0)
(0.734555 0.0809444 0)
(0.752164 0.0808943 0)
(0.773798 0.0805193 0)
(0.800725 0.078498 0)
(-3.0659 0.00174368 0)
(-0.679714 -0.0109233 0)
(0.579508 0.00654598 0)
(0.577977 0.00730098 0)
(0.574916 0.00763471 0)
(0.572099 0.007662 0)
(0.571364 0.00928227 0)
(0.573935 0.0117099 0)
(0.580083 0.0137775 0)
(0.590296 0.0149359 0)
(0.603819 0.016907 0)
(0.6206 0.01767 0)
(0.636552 0.0205497 0)
(0.651205 0.0249344 0)
(0.664059 0.0314987 0)
(0.674427 0.0402674 0)
(0.684006 0.0486251 0)
(0.693922 0.0561259 0)
(0.70509 0.06158 0)
(0.717801 0.0649574 0)
(0.732115 0.0675814 0)
(0.749042 0.0686702 0)
(0.770139 0.0692831 0)
(0.796419 0.0684068 0)
(-3.06884 0.00113177 0)
(-0.678911 -0.0088734 0)
(0.575946 0.000322807 0)
(0.573228 0.00112206 0)
(0.570886 0.00214616 0)
(0.569892 0.00460203 0)
(0.57076 0.00784812 0)
(0.573831 0.0104565 0)
(0.579157 0.0114321 0)
(0.587935 0.011327 0)
(0.601563 0.0114728 0)
(0.619589 0.0103543 0)
(0.636951 0.0113279 0)
(0.653234 0.0138865 0)
(0.668057 0.0185096 0)
(0.680043 0.025322 0)
(0.688999 0.0326209 0)
(0.697269 0.0391893 0)
(0.706226 0.0447252 0)
(0.717066 0.0489036 0)
(0.730267 0.0520727 0)
(0.74672 0.0536502 0)
(0.767619 0.0546036 0)
(0.793933 0.054304 0)
(-3.07068 0.000285962 0)
(-0.678618 -0.00575722 0)
(0.572327 -0.000229389 0)
(0.568948 0.000140242 0)
(0.568355 0.00129144 0)
(0.569505 0.00333259 0)
(0.571162 0.0056806 0)
(0.573609 0.00761474 0)
(0.577345 0.00804663 0)
(0.584495 0.0075548 0)
(0.597171 0.00661026 0)
(0.615319 0.00448541 0)
(0.634694 0.00420364 0)
(0.651905 0.00535562 0)
(0.668447 0.00821941 0)
(0.682523 0.012998 0)
(0.69232 0.0183314 0)
(0.699747 0.022889 0)
(0.7075 0.0272452 0)
(0.717104 0.030941 0)
(0.729227 0.0338222 0)
(0.744868 0.03532 0)
(0.76514 0.0360089 0)
(0.790658 0.036037 0)
(-3.07132 0.000323302 0)
(-0.678531 -0.00131733 0)
(0.570776 0.000108971 0)
(0.567418 0.000255632 0)
(0.568357 -0.000376641 0)
(0.570384 -0.000187029 0)
(0.572441 -7.56283e-05 0)
(0.573859 0.000181628 0)
(0.575783 0.000973152 0)
(0.581745 0.00201357 0)
(0.595427 0.00246887 0)
(0.615216 0.00340256 0)
(0.636177 0.00482343 0)
(0.654214 0.00546912 0)
(0.672071 0.0057653 0)
(0.686037 0.00611501 0)
(0.69512 0.00684611 0)
(0.70205 0.00758793 0)
(0.709148 0.00853129 0)
(0.718091 0.00923045 0)
(0.729646 0.00974356 0)
(0.745139 0.00984953 0)
(0.765654 0.0098322 0)
(0.791695 0.00999732 0)
(0.403379 0.346519 0)
(0.130509 0.175575 0)
(0.0517492 0.0469007 0)
(0.000834811 0.0136771 0)
(-0.026358 0.00703756 0)
(-0.0343213 0.00313274 0)
(-0.0268051 0.00114517 0)
(-0.00829648 4.79951e-05 0)
(0.426843 0.290611 0)
(0.270982 0.169828 0)
(0.171255 0.0694786 0)
(0.0695692 0.0403986 0)
(0.00679948 0.0260463 0)
(-0.0186913 0.0154064 0)
(-0.0217627 0.0134054 0)
(-0.00834966 0.00835784 0)
(0.472646 0.376097 0)
(0.370014 0.308548 0)
(0.259796 0.205258 0)
(0.139846 0.136996 0)
(0.0573278 0.082983 0)
(0.0176927 0.0396296 0)
(-0.00437337 0.0263735 0)
(-0.00219921 0.0174308 0)
(0.532731 0.409304 0)
(0.484552 0.361531 0)
(0.399077 0.27622 0)
(0.280548 0.19909 0)
(0.172865 0.134877 0)
(0.0919358 0.0865559 0)
(0.0314294 0.0611526 0)
(0.00885884 0.039405 0)
(0.57119 0.423183 0)
(0.551845 0.412185 0)
(0.496664 0.369996 0)
(0.400622 0.312471 0)
(0.288215 0.246383 0)
(0.181628 0.180071 0)
(0.0857841 0.127975 0)
(0.0302338 0.0822759 0)
(0.592566 0.43405 0)
(0.596141 0.431625 0)
(0.569486 0.418289 0)
(0.508324 0.388542 0)
(0.418418 0.340064 0)
(0.304335 0.284828 0)
(0.178109 0.230854 0)
(0.0648963 0.171331 0)
(0.604884 0.437058 0)
(0.618148 0.445997 0)
(0.611741 0.449988 0)
(0.578278 0.451606 0)
(0.521477 0.434379 0)
(0.429131 0.405192 0)
(0.31536 0.342097 0)
(0.142844 0.327433 0)
(0.613764 0.431949 0)
(0.634598 0.448405 0)
(0.643355 0.464788 0)
(0.632559 0.481677 0)
(0.604462 0.495079 0)
(0.547094 0.495002 0)
(0.405895 0.506439 0)
(0.198179 0.632888 0)
(0.627241 0.425088 0)
(0.650983 0.446715 0)
(0.667599 0.471456 0)
(0.673472 0.502129 0)
(0.668701 0.537385 0)
(0.647248 0.591491 0)
(0.609124 0.686691 0)
(0.679382 0.895479 0)
(0.642615 0.417927 0)
(0.668396 0.440763 0)
(0.691122 0.46891 0)
(0.710493 0.507689 0)
(0.73061 0.561241 0)
(0.755182 0.64008 0)
(0.817556 0.729865 0)
(1.03465 0.824488 0)
(0.66051 0.410257 0)
(0.688865 0.435178 0)
(0.7174 0.464226 0)
(0.745742 0.503456 0)
(0.785209 0.555587 0)
(0.842108 0.631099 0)
(0.964212 0.710951 0)
(1.20157 0.755215 0)
(0.68112 0.399257 0)
(0.711548 0.426956 0)
(0.74515 0.457188 0)
(0.781186 0.494855 0)
(0.830899 0.539461 0)
(0.904759 0.598853 0)
(1.04181 0.659188 0)
(1.25587 0.678742 0)
(0.704363 0.383661 0)
(0.73531 0.413108 0)
(0.772431 0.443978 0)
(0.814778 0.480047 0)
(0.870209 0.518216 0)
(0.947863 0.562172 0)
(1.07688 0.601724 0)
(1.25639 0.604645 0)
(0.728272 0.363242 0)
(0.759653 0.392857 0)
(0.798954 0.423414 0)
(0.844966 0.455994 0)
(0.902152 0.489126 0)
(0.977119 0.522562 0)
(1.09055 0.546719 0)
(1.23579 0.541723 0)
(0.749881 0.340371 0)
(0.782308 0.366847 0)
(0.823084 0.394131 0)
(0.871264 0.422405 0)
(0.928095 0.452378 0)
(0.997959 0.478106 0)
(1.09415 0.495303 0)
(1.21183 0.488824 0)
(0.767161 0.318733 0)
(0.80119 0.339993 0)
(0.84342 0.362871 0)
(0.893037 0.385826 0)
(0.948889 0.411973 0)
(1.01354 0.430436 0)
(1.09505 0.444921 0)
(1.19121 0.440673 0)
(0.779783 0.300546 0)
(0.815167 0.317053 0)
(0.858521 0.334105 0)
(0.90949 0.349737 0)
(0.964782 0.370352 0)
(1.02584 0.382148 0)
(1.09595 0.394056 0)
(1.17632 0.392042 0)
(0.788685 0.285561 0)
(0.825009 0.298763 0)
(0.86834 0.312194 0)
(0.919007 0.32099 0)
(0.974129 0.335491 0)
(1.03341 0.340656 0)
(1.09642 0.347029 0)
(1.16672 0.344354 0)
(0.795246 0.272612 0)
(0.831598 0.283314 0)
(0.874053 0.29435 0)
(0.92247 0.300235 0)
(0.976388 0.308642 0)
(1.03493 0.307646 0)
(1.09412 0.30927 0)
(1.1578 0.303477 0)
(0.80109 0.258986 0)
(0.83599 0.268636 0)
(0.876654 0.278133 0)
(0.922726 0.28246 0)
(0.974117 0.287227 0)
(1.03073 0.283303 0)
(1.08866 0.279106 0)
(1.14779 0.270855 0)
(0.808221 0.240631 0)
(0.840577 0.250155 0)
(0.877909 0.259646 0)
(0.921105 0.263735 0)
(0.969905 0.266143 0)
(1.02401 0.261602 0)
(1.07978 0.255211 0)
(1.13629 0.245148 0)
(0.815913 0.215408 0)
(0.846808 0.22532 0)
(0.880934 0.235037 0)
(0.920225 0.239787 0)
(0.965025 0.242224 0)
(1.01561 0.239063 0)
(1.06888 0.232989 0)
(1.123 0.223382 0)
(0.821566 0.183951 0)
(0.850539 0.193911 0)
(0.882982 0.205165 0)
(0.920844 0.211774 0)
(0.962964 0.215421 0)
(1.00939 0.214601 0)
(1.05847 0.210611 0)
(1.10909 0.202829 0)
(0.82837 0.152342 0)
(0.85591 0.160851 0)
(0.886644 0.171842 0)
(0.92286 0.179771 0)
(0.962939 0.186007 0)
(1.00624 0.18854 0)
(1.05125 0.187432 0)
(1.09746 0.182151 0)
(0.833695 0.124806 0)
(0.862187 0.130975 0)
(0.892737 0.140549 0)
(0.927329 0.148625 0)
(0.964633 0.156137 0)
(1.00471 0.161487 0)
(1.04616 0.163464 0)
(1.08817 0.160993 0)
(0.835571 0.103631 0)
(0.865961 0.107143 0)
(0.89841 0.113973 0)
(0.933173 0.12065 0)
(0.968515 0.127838 0)
(1.00502 0.134075 0)
(1.04256 0.13827 0)
(1.08087 0.138478 0)
(0.835111 0.0888743 0)
(0.868139 0.0897791 0)
(0.902396 0.0932989 0)
(0.937398 0.0977869 0)
(0.972022 0.103488 0)
(1.00634 0.108849 0)
(1.04079 0.112987 0)
(1.07602 0.114073 0)
(0.832455 0.0774022 0)
(0.867512 0.076739 0)
(0.904007 0.0775021 0)
(0.940254 0.0788483 0)
(0.974964 0.0816719 0)
(1.00814 0.0850025 0)
(1.04036 0.0882031 0)
(1.07299 0.0896312 0)
(0.827634 0.067472 0)
(0.863152 0.0654536 0)
(0.90069 0.0637952 0)
(0.938336 0.0626363 0)
(0.974288 0.0630589 0)
(1.00818 0.0641629 0)
(1.0404 0.0656003 0)
(1.07201 0.0663141 0)
(0.825354 0.0536509 0)
(0.86066 0.0515991 0)
(0.897724 0.0489708 0)
(0.935492 0.0463196 0)
(0.972333 0.0444926 0)
(1.00714 0.043831 0)
(1.03975 0.0441827 0)
(1.07095 0.0446053 0)
(0.82089 0.0357613 0)
(0.854742 0.0342271 0)
(0.890786 0.031724 0)
(0.928182 0.0289431 0)
(0.9656 0.0266277 0)
(1.0017 0.0251968 0)
(1.03558 0.0247604 0)
(1.06739 0.024914 0)
(0.822658 0.0104428 0)
(0.856526 0.0106887 0)
(0.892078 0.0107747 0)
(0.929271 0.0108901 0)
(0.967045 0.011243 0)
(1.00401 0.0116206 0)
(1.03861 0.0118185 0)
(1.07044 0.0116467 0)
(1.51595 0.96601 0)
(2.04244 0.888931 0)
(2.35983 0.683456 0)
(2.31073 0.300502 0)
(2.2665 0.0588693 0)
(2.1226 -0.155731 0)
(1.9551 -0.228669 0)
(1.88159 -0.201634 0)
(1.84652 -0.176318 0)
(1.80784 -0.118186 0)
(1.67953 -0.0610431 0)
(1.59798 -0.0530795 0)
(1.47944 -0.0289338 0)
(1.31043 0.00592388 0)
(1.28194 0.014979 0)
(1.2763 0.0119442 0)
(1.25831 0.0095695 0)
(1.24594 0.00805576 0)
(1.24641 0.00831945 0)
(1.25951 0.00841973 0)
(1.28844 0.0058256 0)
(1.31485 -0.000613209 0)
(1.32875 -0.00654409 0)
(1.3409 -0.0110447 0)
(1.35728 -0.0135735 0)
(1.38007 -0.0153209 0)
(1.40854 -0.0161248 0)
(1.43349 -0.0161425 0)
(1.45663 -0.0153876 0)
(1.47552 -0.0112056 0)
(1.49269 -0.00430455 0)
(1.5101 0.00145198 0)
(1.52653 0.00561985 0)
(1.54235 0.00850557 0)
(1.55937 0.0100623 0)
(1.57884 0.0105763 0)
(1.6009 0.0110518 0)
(1.6293 0.0110697 0)
(1.66034 0.00821815 0)
(1.68482 0.00297285 0)
(1.70748 0.000923017 0)
(1.73057 0.000494494 0)
(1.75008 0.00137073 0)
(1.76287 0.00365543 0)
(1.77286 0.00702329 0)
(1.78698 0.00923879 0)
(1.80525 0.00997724 0)
(1.82748 0.0103685 0)
(1.85154 0.0113425 0)
(1.87337 0.013366 0)
(1.88988 0.0109606 0)
(1.87765 0.0043885 0)
(1.83194 -0.0115823 0)
(1.73181 -0.0386341 0)
(1.55636 -0.0338504 0)
(1.42995 -0.0317204 0)
(1.45807 -0.0238865 0)
(1.47741 -0.00966281 0)
(1.48789 0.00304521 0)
(1.49992 0.00910377 0)
(1.5123 0.0124413 0)
(1.52894 0.0135529 0)
(1.54925 0.0130851 0)
(1.5698 0.0121067 0)
(1.58904 0.0101187 0)
(1.6063 0.00548642 0)
(1.62223 -0.00210656 0)
(1.63406 -0.0084771 0)
(1.64479 -0.0113956 0)
(1.65176 -0.0125205 0)
(1.64682 -0.0094212 0)
(1.63837 -0.00263279 0)
(1.64162 0.00427559 0)
(1.65137 0.00653489 0)
(1.66222 0.00700838 0)
(1.67707 0.00688015 0)
(1.69577 0.00642994 0)
(1.71392 0.00520196 0)
(1.72606 0.00276657 0)
(1.73493 0.000538093 0)
(1.74439 -0.00233385 0)
(1.75281 -0.00525742 0)
(1.75773 -0.00636515 0)
(1.75701 -0.00468838 0)
(1.75491 0.000330967 0)
(1.75773 0.00404775 0)
(1.77164 0.0049265 0)
(1.78249 0.00348709 0)