/*--------------------------------*- C++ -*----------------------------------*\
  =========                 |
  \\      /  F ield         | OpenFOAM: The Open Source CFD Toolbox
   \\    /   O peration     | Website:  https://openfoam.org
    \\  /    A nd           | Version:  7
     \\/     M anipulation  |
\*---------------------------------------------------------------------------*/
FoamFile
{
    version     2.0;
    format      ascii;
    class       volScalarField;
    location    "3.1";
    object      p;
}
// * * * * * * * * * * * * * * * * * * * * * * * * * * * * * * * * * * * * * //

dimensions      [1 -1 -2 0 0 0 0];

internalField   nonuniform List<scalar> 
4048
(
1
1
1
1
1
1
1
1
1
1
1
1
1
1
1
1.16424
7.11599
10.6844
10.8831
11.1616
11.4094
11.6287
11.8031
11.9522
1
1
1
1
1
1
1
1
1
1
1
1
1
1
1
1.11195
6.88642
10.6235
10.8372
11.1016
11.3424
11.5487
11.6919
11.7667
1
1
1
1
1
1
1
1
1
1
1
1
1
1
1
1.00985
6.38037
10.5085
10.7246
10.9547
11.1559
11.2991
11.4036
11.5354
1
1
1
1
1
1
1
1
1
1
1
1
1
1
1
1.00013
5.64784
10.2958
10.5581
10.7624
10.9397
11.0807
11.1394
11.4852
1
1
1
1
1
1
1
1
1
1
1
1
1
1
1
1
4.70426
9.95899
10.3634
10.5273
10.6417
10.6875
10.3034
9.7106
1
1
1
1
1
1
1
1
1
1
1
1
1
1
1
1
3.63856
9.44699
10.1934
10.3362
10.3833
10.3108
9.99017
9.58141
1
1
1
1
1
1
1
1
1
1
1
1
1
1
1
1
2.4603
8.64109
10.0444
10.1461
10.1589
10.0217
9.72124
9.35236
1
1
1
1
1
1
1
1
1
1
1
1
1
1
1
1
1.351
7.55717
10.072
10.0074
9.89766
9.71067
9.48061
9.20383
1
1
1
1
1
1
1
1
1
1
1
1
1
1
1
1
1.01555
6.01375
9.5252
9.58322
9.53482
9.41058
9.26711
9.06802
1
1
1
1
1
1
1
1
1
1
1
1
1
1
1
1
0.999915
3.94974
8.96865
9.40938
9.38038
9.26032
9.10565
8.91606
1
1
1
1
1
1
1
1
1
1
1
1
1
1
1
1
0.999978
2.01119
7.99809
9.34015
9.22198
9.08555
8.92027
8.71652
1
1
1
1
1
1
1
1
1
1
1
1
1
1
1
1
0.999996
1.0997
6.17801
9.018
8.98633
8.88492
8.73184
8.52688
1
1
1
1
1
1
1
1
1
1
1
1
1
1
1
1
1
1.00052
3.56421
8.35302
8.86797
8.78323
8.62349
8.36486
1
1
1
1
1
1
1
1
1
1
1
1
1
1
1
1
1
0.999995
1.43662
7.21167
8.90382
8.69846
8.49002
8.19472
1
1
1
1
1
1
1
1
1
1
1
1
1
1
1
1
1
0.999999
1.0166
4.92545
8.39034
8.50075
8.31163
8.01775
1
1
1
1
1
1
1
1
1
1
1
1
1
1
1
1
1
1
0.999955
2.09278
7.5775
8.51764
8.18645
7.88911
1
1
1
1
1
1
1
1
1
1
1
1
1
1
1
1
1
1
0.999988
1.09242
5.59188
8.25885
7.98153
7.74265
1
1
1
1
1
1
1
1
1
1
1
1
1
1
1
1
1
1
0.999998
1.00055
2.53915
7.39041
7.93369
7.68758
1
1
1
1
1
1
1
1
1
1
1
1
1
1
1
1
1
1
1
1
1.16754
5.43561
7.86563
7.6211
1
1
1
1
1
1
1
1
1
1
1
1
1
1
1
1
1
1
1
1
1.00225
2.35111
6.86465
7.56263
1
1
1
1
1
1
1
1
1
1
1
1
1
1
1
1
1
1
1
1
1
1.13241
4.78031
7.48702
1
1
1
1
1
1
1
1
1
1
1
1
1
1
1
1
1
1
1
1
1
1.00167
1.98409
6.22658
1
1
1
1
1
1
1
1
1
1
1
1
1
1
1
1
1
1
1
1
1
1
1.07122
3.64316
1
1
1
1
1
1
1
1
1
1
1
1
1
1
1
1
1
1
1
1
1
1
1.00081
1.48635
1
1
1
1
1
1
1
1
1
1
1
1
1
1
1
1
1
1
1
1
1
1
1
1.01974
1
1
1
1
1
1
1
1
1
1
1
1
1
1
1
1
1
1
1
1
1
1
1
1.00017
1
1
1
1
1
1
1
1
1
1
1
1
1
1
1
1
1
1
1
1
1
1
1
1
1
1
1
1
1
1
1
1
1
1
1
1
1
1
1
1
1
1
1
1
1
1
1
1
1
1
1
1
1
1
1
1
1
1
1
1
1
1
1
1
1
1
1
1
1
1
1
1
1
1
1
1
1
1
1
1
1
1
1
1
1
1
1
1
1
1
1
1
1
1
1
1
1
1
1
1
1
1
1
1
1
1
1
1
1
1
1
1
1
1
1
1
1
1
1
1
1
1
1
1
1
1
1
1
1
1
1
1
1
1
1
1
1
1
1
1
1
1
1
1
1
1
1
1
1
1
1
1
1
1
1
1
1
1
1
1
1
1
1
1
1
1
1
1
1
1
1
1
1
1
1
1
1
1
1
1
1
1
1
1
1
1
1
1
1
1
1
1
1
1
1
1
1
1
1
1
1
1
1
1
1
1
1
1
1
1
1
1
1
1
1
1
1
1
1
1
1
1
1
1
1
1
1
1
1
1
1
1
1
1
1
1
1
1
1
1
1
1
1
1
1
1
1
1
1
1
1
1
1
1
1
1
1
1
1
1
1
1
1
1
1
1
1
1
1
1
1
1
1
1
1
1
1
1
1
1
1
1
1
1
1
1
1
1
1
1
1
1
1
1
1
1
1
1
1
1
1
1
1
1
1
1
1
1
1
1
1
1
1
1
1
1
1
1
1
1
1
1
1
1
1
1
1
1
1
1
1
1
1
1
1
1
7.34443
8.51739
8.9149
9.18785
9.03874
9.5172
9.34301
9.37448
9.07647
9.18949
9.05062
9.14732
9.0521
9.07709
8.9957
9.31764
8.90465
8.77296
8.26121
6.6777
8.68072
8.33937
7.57759
6.0771
8.41937
8.00771
7.16962
5.87077
8.19524
7.73287
6.89528
5.82376
8.00384
7.49628
6.75131
5.86575
7.80196
7.31576
6.66751
5.90359
7.64766
7.17934
6.60462
5.94279
7.54233
7.0977
6.5688
5.97903
7.42899
7.02218
6.54209
6.00512
7.37155
6.98682
6.55119
6.05972
7.31079
6.94533
6.54342
6.09497
7.25879
6.92238
6.54866
6.1343
7.24132
6.91239
6.54824
6.16252
7.20947
6.86587
6.53615
6.18471
6.86322
6.87755
6.57386
6.24625
5.19753
6.90447
6.61455
6.29126
2.41939
5.96976
6.62611
6.32306
1.14475
3.67379
6.26537
6.37726
1.00284
1.52301
4.6565
6.28905
1.00001
1.02384
2.12583
5.24988
1
1.00025
1.09771
2.83496
1
1
1.00178
1.25522
1
1
1.00001
1.00786
1
1
1
1.00006
1
1
1
1
1
1
1
1
1
1
1
1
1
1
1
1
1
1
1
1
1
1
1
1
1
1
1
1
1
1
1
1
1.94714
0.774901
0.549863
0.511416
0.533422
0.640266
0.783771
0.949211
1.04989
1.12087
1.18342
1.2231
1.26668
1.31804
1.32669
1.32434
1.32935
1.33181
1.31828
1.31071
1.32215
1.33093
1.32926
1.32755
1.32696
1.32385
1.31792
1.31848
1.3209
1.32608
1.34006
1.35746
1.36202
1.35993
1.35228
1.33018
1.73113
4.8431
6.21018
6.2135
6.16607
6.11927
6.05081
5.98295
5.89699
5.81534
5.71993
5.60161
5.46851
5.33439
5.21016
5.11259
5.05508
5.04614
5.01499
4.9049
4.7678
4.60168
4.44696
4.34758
4.27752
4.2475
4.26014
4.25984
4.19126
4.10102
3.97237
3.80685
3.68472
3.62193
3.57664
3.55416
3.55706
3.54941
3.50401
3.43987
3.33408
3.17529
3.07895
3.03641
3.00369
2.98994
2.99303
2.98219
2.954
2.91751
2.86213
2.75577
2.64277
2.59068
2.56539
2.53059
3.11598
1.7842
1.31876
1.11363
0.941409
0.911363
0.875682
0.856615
0.89259
0.951312
1.02029
1.09304
1.16051
1.23214
1.26086
1.26577
1.27692
1.28478
1.28214
1.28805
1.30536
1.31841
1.32799
1.33437
1.3358
1.33481
1.3315
1.32833
1.32748
1.32677
1.33158
1.34022
1.34281
1.34082
1.33272
1.33611
1.58605
4.7699
6.37919
6.27861
6.12079
6.0461
5.95473
5.86219
5.75412
5.6908
5.65608
5.60543
5.51293
5.38065
5.22452
5.08048
4.97063
4.90909
4.88221
4.84501
4.76949
4.67355
4.55574
4.41674
4.30371
4.23106
4.19241
4.16563
4.12239
4.05765
3.97571
3.88458
3.77236
3.66525
3.59937
3.55957
3.53644
3.50727
3.46209
3.40542
3.32676
3.21849
3.11384
3.05232
3.01614
2.99602
2.98775
2.96727
2.93535
2.89605
2.84409
2.76574
2.67436
2.6058
2.57315
2.53333
3.86187
2.68947
1.95309
1.54313
1.25694
1.07447
0.996122
0.886118
0.88433
0.934667
0.996748
1.05331
1.10347
1.16012
1.1955
1.21943
1.24896
1.2889
1.30811
1.31793
1.33597
1.34698
1.34523
1.33769
1.3338
1.32822
1.32424
1.32384
1.32428
1.32673
1.33524
1.3408
1.33855
1.33111
1.336
1.42431
1.93174
4.10263
6.19672
6.38757
6.17359
6.04982
5.97485
5.87784
5.75043
5.66345
5.60253
5.56741
5.5232
5.44349
5.34005
5.19923
5.01329
4.85565
4.75346
4.69438
4.67551
4.65645
4.59857
4.5231
4.42341
4.28016
4.14657
4.07056
4.00743
3.95513
3.92949
3.89275
3.83816
3.77191
3.67932
3.57631
3.50885
3.46009
3.40743
3.34438
3.27799
3.22046
3.16009
3.09436
3.04451
3.00986
2.97711
2.94343
2.90568
2.85946
2.80148
2.74399
2.69679
2.6496
2.60132
2.53572
4.37225
3.31918
2.60855
2.07527
1.6925
1.43714
1.29774
1.1524
1.04444
1.02197
0.98924
0.976396
0.993847
1.03297
1.08029
1.12874
1.17199
1.22036
1.2647
1.2886
1.31425
1.34524
1.35141
1.34944
1.34362
1.33158
1.32295
1.31798
1.31763
1.32084
1.32813
1.33191
1.33133
1.34043
1.41055
1.8915
2.69136
3.31499
4.77207
5.95308
6.15584
6.11359
6.00686
5.83773
5.70582
5.61983
5.54959
5.49737
5.43741
5.36273
5.28019
5.18594
5.05442
4.88468
4.7431
4.66222
4.61105
4.59044
4.56637
4.51264
4.4472
4.34885
4.19699
4.05473
3.97637
3.92435
3.89487
3.87565
3.84405
3.79671
3.73139
3.62098
3.49527
3.41151
3.34746
3.29233
3.25265
3.22386
3.19099
3.14854
3.09142
3.02224
2.96502
2.92037
2.87178
2.8129
2.75955
2.72866
2.70239
2.67131
2.63286
2.55309
4.75576
3.8163
3.12775
2.58045
2.11121
1.83226
1.61161
1.4229
1.25453
1.1536
1.06777
0.987092
0.976683
0.987777
1.00666
1.04064
1.08423
1.13605
1.18462
1.21999
1.24689
1.28036
1.30978
1.32101
1.33409
1.34652
1.34856
1.34359
1.3403
1.33683
1.32767
1.31764
1.32553
1.41118
1.83114
2.69146
3.28707
3.27459
3.53451
4.61446
5.47719
5.94972
6.04029
5.87616
5.75696
5.63478
5.52698
5.43123
5.35984
5.28953
5.21746
5.14356
5.05743
4.93917
4.79002
4.66731
4.59634
4.54602
4.51346
4.46832
4.41061
4.33785
4.2253
4.07359
3.96717
3.91867
3.88225
3.85872
3.83204
3.78737
3.7319
3.6384
3.48342
3.35355
3.29715
3.26279
3.23704
3.22617
3.21315
3.18009
3.13412
3.0552
2.95206
2.87438
2.81688
2.77235
2.7454
2.72689
2.70817
2.68084
2.64837
2.56533
5.00196
4.20093
3.53562
2.99852
2.52804
2.19348
1.93345
1.69857
1.51906
1.38082
1.26878
1.15357
1.09168
1.06413
1.03134
1.02969
1.0434
1.05982
1.08314
1.12116
1.162
1.20632
1.25348
1.27385
1.29187
1.31771
1.33358
1.33535
1.34327
1.34413
1.33512
1.32998
1.38721
1.85581
2.70958
3.2231
3.35562
3.30826
3.27459
3.46913
4.16936
5.13633
5.65082
5.8142
5.7933
5.67823
5.52263
5.35907
5.25524
5.19648
5.14584
5.10678
5.045
4.96635
4.85515
4.69835
4.56063
4.48782
4.43479
4.40305
4.36806
4.31705
4.24987
4.14828
4.00513
3.9004
3.85189
3.81349
3.78527
3.74973
3.69984
3.62717
3.50782
3.36095
3.28266
3.25002
3.22596
3.21812
3.21455
3.18845
3.14993
3.07965
2.94859
2.83015
2.7789
2.75371
2.73466
2.72635
2.71629
2.69289
2.66567
2.57756
5.17734
4.49484
3.89295
3.34618
2.89139
2.53662
2.24603
1.97891
1.77483
1.61573
1.4677
1.34003
1.24317
1.17069
1.107
1.05633
1.05083
1.04858
1.04416
1.0525
1.07711
1.1098
1.15254
1.19714
1.23085
1.27343
1.30608
1.31206
1.32339
1.32447
1.3294
1.3796
1.81261
2.77882
3.21383
3.32875
3.3687
3.33553
3.26622
3.18952
3.27626
3.76336
4.67322
5.37543
5.6536
5.67332
5.54304
5.36862
5.20198
5.12173
5.06943
5.05211
5.02448
4.96193
4.88049
4.75885
4.58521
4.44789
4.38178
4.33984
4.32352
4.28385
4.23317
4.17009
4.06674
3.91926
3.81971
3.77539
3.73877
3.69952
3.65167
3.59355
3.52095
3.42324
3.31729
3.25966
3.23145
3.21913
3.20862
3.17442
3.12731
3.05343
2.9395
2.82323
2.77152
2.74826
2.73091
2.72322
2.71576
2.69495
2.66961
2.57511
5.31059
4.71716
4.16017
3.62863
3.21451
2.8508
2.52805
2.23973
2.03486
1.84872
1.68636
1.53725
1.43479
1.33695
1.25318
1.17745
1.14157
1.10387
1.06732
1.06007
1.05655
1.05587
1.06327
1.09359
1.14181
1.19341
1.24604
1.27345
1.29017
1.29898
1.36292
1.74381
2.74099
3.25086
3.36783
3.4193
3.39576
3.32352
3.23844
3.13764
3.09911
3.12431
3.43909
4.23688
5.0772
5.4426
5.47925
5.39361
5.23323
5.09675
5.02218
4.97336
4.95585
4.92117
4.8548
4.77058
4.64916
4.4836
4.35268
4.28409
4.22946
4.20834
4.19538
4.14952
4.08984
3.99099
3.84457
3.72804
3.66305
3.61886
3.5872
3.55524
3.51752
3.4749
3.40765
3.30534
3.22114
3.17463
3.134
3.09454
3.05094
3.00089
2.93475
2.85786
2.78914
2.75293
2.73495
2.72912
2.72171
2.69582
2.66062
2.55422
5.42115
4.89184
4.36996
3.88517
3.48858
3.12415
2.7767
2.49807
2.28133
2.07341
1.88698
1.73309
1.62919
1.51483
1.4102
1.31695
1.24603
1.17771
1.11866
1.07739
1.06572
1.05332
1.05329
1.06224
1.08162
1.11
1.14417
1.17985
1.21714
1.28039
1.72552
2.5732
3.24592
3.43504
3.44995
3.42326
3.36612
3.28682
3.19221
3.10767
3.06439
3.04398
3.04589
3.22138
3.82229
4.63909
5.12244
5.2678
5.2519
5.13957
5.02871
4.9388
4.87745
4.81904
4.77645
4.72663
4.65671
4.55012
4.38948
4.25524
4.19007
4.14427
4.11677
4.10593
4.06793
4.00897
3.90085
3.73668
3.6293
3.58149
3.54495
3.52266
3.51053
3.47939
3.43583
3.35831
3.23332
3.13363
3.075
3.03263
2.99118
2.95339
2.92512
2.89665
2.85554
2.79194
2.73585
2.70524
2.67534
2.63934
2.59827
2.51289
5.53721
5.04656
4.54734
4.10509
3.72336
3.36128
3.00286
2.74093
2.50406
2.29159
2.08321
1.93638
1.81005
1.68492
1.5691
1.473
1.39228
1.30865
1.23133
1.17047
1.14147
1.11019
1.08119
1.07812
1.07931
1.06834
1.06879
1.07994
1.12801
1.53993
2.45072
3.1003
3.24674
3.33642
3.36641
3.35168
3.31158
3.25293
3.17851
3.10776
3.0655
3.02951
3.00169
2.97598
3.03904
3.39574
4.09243
4.73509
5.02115
5.11363
5.07177
4.96783
4.83093
4.7444
4.6895
4.64684
4.60602
4.54619
4.45033
4.30958
4.17911
4.10859
4.06459
4.03327
4.01082
3.97267
3.9108
3.80284
3.65998
3.56425
3.52121
3.49151
3.48281
3.46397
3.42193
3.3591
3.25443
3.12014
3.0333
2.98672
2.95571
2.93378
2.92487
2.91076
2.882
2.83482
2.75502
2.67714
2.62776
2.58829
2.54726
2.48242
5.62544
5.16281
4.694
4.29029
3.92447
3.55668
3.21695
2.96596
2.72041
2.49114
2.271
2.13187
1.9859
1.8535
1.72184
1.62522
1.53356
1.44231
1.35449
1.28754
1.2354
1.18453
1.13269
1.1089
1.08738
1.06635
1.06361
1.10025
1.40509
2.32335
2.87163
3.0518
3.08952
3.13461
3.18706
3.2054
3.20779
3.19012
3.157
3.10193
3.04945
3.01136
2.98513
2.94773
2.89804
2.88206
3.05135
3.58584
4.28058
4.75745
4.97144
4.98368
4.86594
4.73222
4.61154
4.55364
4.51362
4.47966
4.43012
4.35817
4.24948
4.12082
4.03309
3.98462
3.94229
3.90392
3.86337
3.81113
3.7244
3.59791
3.50456
3.4636
3.42751
3.38658
3.34729
3.30632
3.24543
3.14922
3.03342
2.96756
2.93913
2.92053
2.9173
2.90312
2.8749
2.84002
2.77011
2.66163
2.58168
2.53672
2.50763
2.47196
5.70375
5.27063
4.83289
4.45535
4.1062
3.73765
3.42822
3.17234
2.92536
2.66992
2.47028
2.3198
2.15747
2.00951
1.87121
1.78004
1.67593
1.57971
1.48359
1.41313
1.35358
1.28912
1.23081
1.18827
1.14241
1.11043
1.13465
1.3801
2.2147
2.88155
2.94474
2.91943
2.90305
2.9387
2.97707
3.00846
3.02787
3.03917
3.03815
3.01712
2.98949
2.96712
2.95504
2.91698
2.86279
2.80994
2.75397
2.81329
3.15856
3.78739
4.44338
4.7415
4.82091
4.76763
4.60671
4.48276
4.42782
4.38935
4.36725
4.33074
4.27554
4.18415
4.0481
3.93786
3.8804
3.83961
3.80508
3.76878
3.72265
3.64803
3.53253
3.42775
3.36692
3.32274
3.28148
3.2406
3.20238
3.15696
3.08748
2.99558
2.93845
2.91293
2.89021
2.87672
2.86172
2.82966
2.76845
2.65846
2.55346
2.50274
2.48591
2.46288
5.75888
5.35872
4.96235
4.60403
4.26697
3.90451
3.61608
3.36199
3.11461
2.84162
2.66293
2.49098
2.325
2.15237
2.02585
1.92615
1.81212
1.70862
1.60935
1.54388
1.47285
1.40042
1.33219
1.26086
1.20835
1.21128
1.43406
2.19442
2.97853
3.02557
2.96341
2.89995
2.87119
2.84261
2.8215
2.8024
2.79641
2.80246
2.81529
2.84533
2.86712
2.87102
2.86367
2.86056
2.83377
2.77803
2.70357
2.64381
2.6562
2.83118
3.32323
3.97146
4.44409
4.636
4.62109
4.48817
4.37302
4.31635
4.28853
4.27588
4.23985
4.18788
4.09048
3.94064
3.8334
3.78372
3.74629
3.71396
3.6798
3.63636
3.55947
3.42894
3.31995
3.26743
3.22984
3.19703
3.16942
3.1432
3.10981
3.04936
2.96307
2.89908
2.86421
2.83512
2.80191
2.76581
2.72227
2.65584
2.57363
2.50529
2.48316
2.45257
5.81403
5.44975
5.08164
4.73304
4.40841
4.07853
3.78054
3.53637
3.27376
3.01187
2.83691
2.66236
2.48785
2.29245
2.18224
2.06648
1.94932
1.831
1.73651
1.67126
1.58871
1.51522
1.43392
1.35228
1.35864
1.60466
2.37127
3.15952
3.228
3.12147
3.00183
2.93318
2.87963
2.83233
2.78894
2.74865
2.71539
2.67957
2.64526
2.64176
2.65246
2.67211
2.69441
2.72422
2.73411
2.71109
2.6679
2.59292
2.54696
2.53495
2.60148
2.90502
3.4541
4.0642
4.36534
4.4375
4.36623
4.27058
4.22722
4.20225
4.16789
4.128
4.07136
3.96537
3.83262
3.73931
3.69249
3.65766
3.62588
3.58919
3.53619
3.43872
3.3102
3.23398
3.19646
3.16932
3.14646
3.12433
3.09978
3.06334
2.99407
2.9003
2.83255
2.7902
2.75312
2.71465
2.67284
2.63606
2.59628
2.54248
2.48887
2.43616
5.89904
5.54551
5.19036
4.85697
4.542
4.22698
3.93124
3.68645
3.43006
3.18177
2.99081
2.82391
2.62871
2.44299
2.33113
2.20548
2.0833
1.94342
1.866
1.78805
1.7062
1.6146
1.52663
1.51651
1.78454
2.63854
3.45424
3.52524
3.38307
3.23129
3.11626
3.03826
2.96192
2.88849
2.82187
2.75798
2.69691
2.64617
2.59528
2.53837
2.50213
2.49494
2.49869
2.51155
2.54171
2.57167
2.57039
2.52803
2.46534
2.42698
2.41139
2.43389
2.59077
3.00481
3.57785
4.00797
4.22207
4.22942
4.18703
4.15072
4.09069
4.04168
3.99501
3.93571
3.84545
3.73934
3.65306
3.60762
3.57348
3.53681
3.49143
3.42477
3.32607
3.22702
3.1711
3.14064
3.11748
3.0963
3.07396
3.04531
2.99548
2.90742
2.80956
2.74776
2.70794
2.67263
2.64536
2.62391
2.59871
2.56278
2.50688
2.42215
5.95769
5.61238
5.27422
4.95925
4.65046
4.34686
4.07894
3.83084
3.57444
3.33183
3.14458
2.97351
2.76937
2.59139
2.46713
2.34396
2.20658
2.07034
1.99021
1.90498
1.80791
1.70626
1.70695
2.00324
2.93133
3.77897
3.86334
3.71849
3.54631
3.39551
3.27007
3.1575
3.06091
2.9759
2.9003
2.82474
2.75061
2.67658
2.59239
2.50854
2.4533
2.42051
2.39756
2.38674
2.38867
2.38114
2.3892
2.38926
2.35862
2.31764
2.28501
2.27698
2.28992
2.37103
2.63874
3.07343
3.57596
3.96426
4.01762
4.05818
4.0477
3.98777
3.92886
3.87608
3.80947
3.73523
3.64991
3.57618
3.52915
3.4897
3.44713
3.39938
3.33829
3.25248
3.16606
3.11366
3.08194
3.05842
3.03667
3.01013
2.97027
2.90191
2.79775
2.70907
2.66936
2.647
2.62886
2.60951
2.58738
2.55825
2.51018
2.40888
5.98997
5.66908
5.35809
5.05485
4.75382
4.47013
4.21863
3.9681
3.71356
3.4838
3.29455
3.106
2.90466
2.7338
2.60591
2.47588
2.32344
2.19759
2.11053
2.00738
1.89848
1.89222
2.23329
3.24259
4.09467
4.17861
4.04002
3.87793
3.73605
3.5832
3.41778
3.27933
3.17467
3.08604
3.00491
2.92536
2.84325
2.75305
2.65217
2.55047
2.45473
2.38067
2.34356
2.32224
2.30458
2.29926
2.28263
2.25157
2.2105
2.16807
2.14253
2.14292
2.1416
2.15136
2.19936
2.33824
2.60218
3.06137
3.45829
3.76798
3.90013
3.88946
3.88029
3.83513
3.78198
3.7241
3.64548
3.54646
3.48128
3.44125
3.40309
3.36608
3.32548
3.26742
3.18168
3.09794
3.04603
3.01354
2.98855
2.96308
2.92978
2.87809
2.79457
2.69953
2.64879
2.62669
2.60753
2.58765
2.56569
2.53867
2.49732
2.39256
6.08206
5.76007
5.45898
5.16528
4.87168
4.59942
4.34458
4.09891
3.84628
3.63235
3.43128
3.23743
3.03713
2.87776
2.73845
2.59806
2.4462
2.32889
2.21606
2.09612
2.11594
2.53717
3.64462
4.45154
4.50463
4.3525
4.18852
4.06182
3.9279
3.76862
3.58435
3.41306
3.29053
3.19314
3.10236
3.01548
2.93045
2.84419
2.75116
2.63701
2.50896
2.40203
2.33843
2.29666
2.26225
2.23994
2.22088
2.20235
2.17904
2.11902
2.03501
2.00787
2.0065
2.00301
2.00667
2.0304
2.083
2.20726
2.4997
2.92139
3.42518
3.63852
3.73498
3.79675
3.77668
3.72793
3.64314
3.51536
3.4137
3.37914
3.35191
3.32187
3.29041
3.25384
3.19785
3.115
3.0365
2.98255
2.94388
2.91014
2.87437
2.83196
2.77759
2.70972
2.65167
2.6157
2.5888
2.56363
2.53823
2.50888
2.46926
2.36979
6.16429
5.85796
5.55023
5.25288
4.97959
4.71378
4.45674
4.20224
3.97108
3.76268
3.55828
3.35825
3.16357
3.01772
2.862
2.7173
2.5682
2.43765
2.30626
2.3364
2.89035
4.27536
4.94815
4.83999
4.63673
4.44676
4.32635
4.22521
4.09481
3.94831
3.76925
3.56135
3.40008
3.28934
3.19484
3.10684
3.02381
2.94301
2.85887
2.75897
2.62986
2.48635
2.37846
2.30857
2.25844
2.22038
2.18461
2.15035
2.1252
2.09564
2.03894
1.96831
1.92271
1.8916
1.88329
1.87846
1.87559
1.88694
1.93819
2.08669
2.44496
2.91736
3.29711
3.59363
3.68226
3.68305
3.63743
3.51471
3.38398
3.3267
3.29543
3.26897
3.2476
3.22323
3.18633
3.1216
3.03973
2.96723
2.91215
2.86674
2.82848
2.79655
2.76052
2.70527
2.64681
2.60461
2.57219
2.54119
2.51078
2.47716
2.4346
2.34165
6.135
5.94681
5.63187
5.33946
5.0773
4.81533
4.55574
4.31695
4.10047
3.88298
3.68043
3.46935
3.3017
3.1439
2.98607
2.83332
2.67835
2.53002
2.56883
3.21916
4.71026
5.61701
5.46264
5.08111
4.76666
4.58228
4.47217
4.37469
4.2458
4.10285
3.94071
3.73864
3.52608
3.37742
3.27216
3.18068
3.09553
3.0136
2.93177
2.84482
2.74114
2.61274
2.47929
2.37495
2.30042
2.23971
2.18488
2.13603
2.09475
2.06021
2.02445
1.97487
1.90957
1.85755
1.82998
1.80299
1.78042
1.77148
1.76327
1.76974
1.81839
2.01783
2.3767
2.87993
3.24371
3.48689
3.52348
3.49265
3.40581
3.32589
3.28561
3.24988
3.21205
3.16972
3.13409
3.09348
3.02403
2.94921
2.89722
2.85463
2.81255
2.76103
2.70526
2.6572
2.61606
2.58488
2.55549
2.52098
2.48317
2.44068
2.39564
2.31742
5.53508
5.98999
5.74661
5.43873
5.17814
4.92051
4.66305
4.4386
4.21602
4.00484
3.79669
3.59666
3.43089
3.25517
3.10654
2.94049
2.774
2.83002
3.6303
5.1472
5.95226
5.85542
5.56583
5.29111
4.99414
4.76719
4.62207
4.4976
4.36168
4.21633
4.06625
3.89966
3.70195
3.50243
3.35335
3.24309
3.14897
3.06293
2.98159
2.90109
2.81547
2.7154
2.59725
2.47851
2.37869
2.29582
2.22268
2.16055
2.10453
2.05188
2.00625
1.96427
1.91006
1.85318
1.80651
1.77028
1.74282
1.7206
1.69897
1.67396
1.64186
1.64702
1.70306
1.93253
2.34416
2.79356
3.21717
3.31286
3.29303
3.29501
3.28214
3.24891
3.20215
3.14738
3.0764
2.99196
2.94884
2.93253
2.90628
2.87007
2.81507
2.74123
2.66573
2.62408
2.60817
2.58759
2.54958
2.50647
2.46449
2.41033
2.35928
2.29907
3.53394
5.59714
5.82219
5.57732
5.29002
5.01324
4.77571
4.5551
4.3308
4.11489
3.90227
3.72604
3.54179
3.37678
3.20985
3.03298
3.14485
4.1623
5.75427
6.42508
6.36197
6.04396
5.75722
5.52516
5.25667
4.96617
4.76287
4.60159
4.44847
4.30204
4.16179
4.01937
3.85955
3.6732
3.48845
3.33863
3.21874
3.11397
3.01811
2.92961
2.84711
2.76503
2.67197
2.56408
2.45564
2.36138
2.28229
2.21228
2.14482
2.0815
2.02425
1.96714
1.90795
1.85347
1.80391
1.75951
1.72248
1.69414
1.66712
1.63272
1.60299
1.57035
1.5394
1.55014
1.63563
1.86266
2.31346
2.75953
3.00465
3.15837
3.20359
3.1982
3.17577
3.11827
3.03966
2.96204
2.88497
2.83108
2.81885
2.80052
2.76827
2.71484
2.6614
2.61498
2.55455
2.517
2.50481
2.48444
2.44931
2.40107
2.35244
2.27737
1.51121
4.05138
5.58702
5.67057
5.42903
5.11477
4.88567
4.66244
4.43904
4.21645
4.02896
3.83908
3.6448
3.48204
3.31183
3.49909
4.77543
6.6415
6.86689
6.69069
6.44086
6.18403
5.95073
5.71264
5.4559
5.17384
4.9174
4.7174
4.54475
4.38474
4.23586
4.09433
3.9514
3.79623
3.62599
3.45695
3.30965
3.186
3.07813
2.98047
2.88961
2.80404
2.71915
2.62447
2.51795
2.41366
2.32545
2.25136
2.18504
2.12546
2.07021
2.01274
1.94926
1.88067
1.81157
1.75321
1.712
1.6825
1.64951
1.61164
1.57618
1.53625
1.50806
1.48169
1.46241
1.47748
1.5699
1.85032
2.24288
2.64732
2.91011
3.05118
3.08204
3.07706
3.04798
2.97549
2.8813
2.80514
2.75546
2.7331
2.71228
2.69544
2.66895
2.62073
2.5427
2.47571
2.43924
2.41179
2.38529
2.36099
2.33648
2.27488
1.02511
1.8252
4.3923
5.52621
5.52607
5.25318
4.99572
4.76437
4.53603
4.32799
4.14616
3.93386
3.75921
3.60936
3.92619
5.4252
7.30296
7.86895
7.43949
6.88997
6.49991
6.27334
6.07154
5.84083
5.60656
5.36866
5.1223
4.8807
4.66731
4.48229
4.31264
4.15402
4.00765
3.8671
3.71952
3.56076
3.40369
3.26427
3.1442
3.03869
2.94215
2.84938
2.75877
2.66737
2.56776
2.46045
2.36115
2.28079
2.21527
2.15639
2.09782
2.03797
1.97884
1.91668
1.84902
1.78745
1.73992
1.70041
1.65885
1.61764
1.57221
1.52585
1.48591
1.4501
1.42698
1.41355
1.39822
1.41927
1.51952
1.77144
2.21175
2.57112
2.74906
2.92481
2.96094
2.95367
2.91255
2.82192
2.73481
2.67667
2.65378
2.63568
2.6134
2.58066
2.52705
2.44386
2.38219
2.36387
2.3543
2.34582
2.33288
2.27676
1.00029
1.05927
2.14545
4.60192
5.4436
5.37679
5.14085
4.87431
4.62464
4.45652
4.24297
4.04073
3.95124
4.46768
6.31607
7.94925
8.21269
8.02342
7.63883
7.16992
6.70512
6.40923
6.18843
5.96628
5.74667
5.52703
5.29238
5.0389
4.79014
4.57614
4.39267
4.22518
4.07034
3.92808
3.78868
3.64015
3.48373
3.33358
3.19932
3.08173
2.98039
2.89225
2.80545
2.71389
2.62009
2.52266
2.41671
2.31907
2.24425
2.18362
2.12694
2.06757
2.00334
1.93681
1.875
1.82218
1.7748
1.72855
1.68105
1.6372
1.59071
1.54001
1.48402
1.43656
1.40457
1.38449
1.37028
1.35724
1.33577
1.35279
1.4516
1.73321
2.09311
2.48046
2.72139
2.80735
2.81164
2.7958
2.72361
2.63109
2.60468
2.59709
2.58512
2.56159
2.51585
2.43425
2.36862
2.32435
2.29294
2.27326
2.26739
2.25145
1
1.00096
1.11146
2.43896
4.72724
5.31777
5.25358
5.00755
4.75373
4.53936
4.32998
4.35162
5.20174
7.40677
8.7424
8.94921
8.49518
8.081
7.76736
7.39181
6.94518
6.59677
6.34219
6.11269
5.88632
5.65485
5.41421
5.1585
4.8956
4.65812
4.4638
4.29465
4.13168
3.97714
3.84186
3.70976
3.56155
3.4056
3.26248
3.13585
3.01996
2.91208
2.82602
2.75431
2.67982
2.59232
2.48902
2.38388
2.29271
2.21645
2.1501
2.08943
2.03008
1.96673
1.89616
1.82642
1.77007
1.72719
1.68885
1.64713
1.59415
1.53647
1.48424
1.44357
1.40851
1.38432
1.36744
1.34723
1.32251
1.30113
1.26749
1.27832
1.38621
1.66235
2.09349
2.4494
2.66494
2.70585
2.67593
2.62817
2.57914
2.52926
2.498
2.47764
2.4601
2.43066
2.36772
2.30912
2.27793
2.25433
2.22881
2.18373
1
1
1.00246
1.1763
2.69694
4.73668
5.23545
5.13915
4.90271
4.62418
4.8073
6.12176
8.59034
9.68965
9.35052
9.08712
8.68581
8.25893
7.91213
7.56867
7.17394
6.78925
6.49595
6.24987
6.0042
5.74579
5.48839
5.24435
4.99454
4.7504
4.53717
4.36721
4.2169
4.05125
3.88144
3.73563
3.60278
3.45978
3.31977
3.19601
3.08678
2.97812
2.87277
2.77779
2.6824
2.58375
2.50066
2.42503
2.35071
2.28231
2.21879
2.15659
2.09326
2.01889
1.93653
1.86197
1.79893
1.74604
1.7015
1.66372
1.62297
1.56543
1.49081
1.44899
1.43014
1.41039
1.38953
1.36689
1.34226
1.30851
1.25908
1.20437
1.19324
1.22404
1.38353
1.70588
2.08277
2.36747
2.58354
2.61379
2.58923
2.52324
2.45419
2.3894
2.3477
2.33616
2.33327
2.31304
2.28407
2.25197
2.21783
2.17058
1
1
1.00001
1.00496
1.24843
2.84648
4.80768
5.08714
5.0156
5.50272
7.35493
9.5855
10.5749
10.3189
9.57486
9.16842
8.87459
8.53014
8.16995
7.80399
7.39575
6.98602
6.6247
6.30614
6.0486
5.83674
5.6229
5.37056
5.09659
4.84199
4.63201
4.43851
4.26942
4.13848
3.99479
3.82543
3.66451
3.50998
3.35557
3.21303
3.10081
3.03313
2.95417
2.84737
2.73937
2.63342
2.53144
2.43986
2.36062
2.28549
2.2063
2.13446
2.07054
2.00964
1.94439
1.88061
1.82043
1.76872
1.72477
1.68386
1.63751
1.58124
1.51964
1.46964
1.42469
1.3901
1.36439
1.34183
1.31902
1.29121
1.2504
1.19426
1.15752
1.14574
1.15078
1.20295
1.38359
1.68975
2.05508
2.32066
2.48265
2.50314
2.48104
2.41138
2.32989
2.26557
2.23474
2.23219
2.25958
2.25561
2.23677
2.19481
1
1
1
1.00004
1.00795
1.31638
3.12987
4.30668
5.76943
8.99751
10.5841
11.0487
11.0426
10.4756
9.87698
9.44555
9.08567
8.66627
8.23314
7.84491
7.50572
7.17015
6.82697
6.51208
6.21801
5.92163
5.6198
5.36011
5.16438
4.98115
4.77915
4.5757
4.37574
4.17865
3.98512
3.79784
3.64203
3.53594
3.43059
3.30844
3.1907
3.06465
2.9355
2.81253
2.72056
2.66117
2.58779
2.4951
2.40133
2.31338
2.22947
2.14922
2.07868
2.02665
1.98444
1.92704
1.86757
1.81681
1.77339
1.73249
1.68913
1.63761
1.57108
1.49484
1.4335
1.39386
1.36413
1.33863
1.31414
1.28733
1.24843
1.19481
1.15593
1.13336
1.11795
1.11049
1.1159
1.17377
1.379
1.70187
2.00837
2.24643
2.38084
2.39255
2.35598
2.27462
2.21555
2.20247
2.20514
2.22424
2.24308
2.3833
1
1
1
1
1.00006
1.01425
1.39097
3.0826
9.07193
12.3314
11.8664
11.35
11.1102
10.6227
10.0622
9.63647
9.24334
8.8353
8.40459
7.98374
7.57872
7.20288
6.86501
6.5584
6.26597
5.96974
5.68425
5.42162
5.1686
4.93269
4.72239
4.532
4.35536
4.17508
3.99884
3.83833
3.68068
3.51412
3.36837
3.25799
3.15925
3.05347
2.94102
2.837
2.73824
2.63106
2.52902
2.43547
2.35291
2.30049
2.26058
2.21322
2.145
2.0542
1.95665
1.88374
1.83206
1.78862
1.74759
1.70689
1.66366
1.6133
1.55083
1.48646
1.43715
1.40153
1.37209
1.34438
1.31644
1.28499
1.24642
1.20463
1.16894
1.13942
1.11809
1.10064
1.092
1.08652
1.09891
1.16717
1.36888
1.69348
1.97928
2.16465
2.27275
2.27762
2.24054
2.22377
2.25353
2.3687
2.58608
3.15293
1
1
1
1
1
1.00016
1.01849
3.74252
11.62
12.61
11.9446
11.3841
11.001
10.5902
10.1076
9.65773
9.24096
8.84987
8.43243
8.02454
7.63437
7.26693
6.92654
6.60868
6.30313
6.00528
5.72086
5.4488
5.18871
4.949
4.73628
4.54898
4.37685
4.21122
4.04752
3.8762
3.68985
3.50877
3.36402
3.25433
3.15953
3.06752
2.97512
2.87538
2.75904
2.6297
2.50797
2.41509
2.35816
2.314
2.26252
2.20062
2.12812
2.03716
1.94041
1.86965
1.82232
1.78457
1.74804
1.70868
1.66397
1.61013
1.55317
1.50281
1.46462
1.43486
1.40666
1.37812
1.34732
1.3128
1.27677
1.24117
1.20635
1.17155
1.14097
1.11523
1.09818
1.08317
1.0682
1.0564
1.07611
1.16881
1.41394
1.71053
1.95445
2.14128
2.32121
2.59624
2.85745
3.16534
3.48735
3.84161
1
1
1
1
1
1
1.0004
4.74957
11.6614
12.139
12.0223
11.8153
11.3979
10.927
10.3969
9.88322
9.41163
8.96281
8.53852
8.12171
7.71019
7.32056
6.96341
6.63301
6.32171
6.02434
5.73594
5.45526
5.189
4.94853
4.73982
4.55857
4.39644
4.24418
4.08597
3.90066
3.68973
3.49627
3.35137
3.24321
3.15495
3.07868
3.0059
2.91839
2.78336
2.60193
2.47037
2.40849
2.36309
2.31545
2.26369
2.20574
2.13353
2.03868
1.93634
1.86148
1.81351
1.77774
1.74801
1.71898
1.68183
1.62397
1.54157
1.47023
1.43026
1.40109
1.37228
1.34309
1.31225
1.27896
1.24504
1.21205
1.18162
1.1491
1.11659
1.08895
1.07038
1.05624
1.039
1.02022
0.993442
0.988793
1.02523
1.18363
1.5317
2.05397
2.6951
3.266
3.83503
4.33536
4.64901
4.75329
)
;

boundaryField
{
    inlet
    {
        type            fixedValue;
        value           uniform 1;
    }
    outlet
    {
        type            zeroGradient;
    }
    bottom
    {
        type            zeroGradient;
    }
    top
    {
        type            zeroGradient;
    }
    obstacle
    {
        type            zeroGradient;
    }
    defaultFaces
    {
        type            empty;
    }
}


// ************************************************************************* //
