/*--------------------------------*- C++ -*----------------------------------*\
  =========                 |
  \\      /  F ield         | OpenFOAM: The Open Source CFD Toolbox
   \\    /   O peration     | Website:  https://openfoam.org
    \\  /    A nd           | Version:  7
     \\/     M anipulation  |
\*---------------------------------------------------------------------------*/
FoamFile
{
    version     2.0;
    format      ascii;
    class       volScalarField;
    location    "1.5";
    object      T;
}
// * * * * * * * * * * * * * * * * * * * * * * * * * * * * * * * * * * * * * //

dimensions      [0 0 0 1 0 0 0];

internalField   nonuniform List<scalar> 
4048
(
1
1
1
1
1
1
1
1
1
1
1
1
1
1
1
1
1.8842
2.67915
2.77054
2.79954
2.82003
2.82742
2.83123
2.83743
1
1
1
1
1
1
1
1
1
1
1
1
1
1
1
1
1.85268
2.66727
2.76681
2.79463
2.81386
2.82017
2.82173
2.8241
1
1
1
1
1
1
1
1
1
1
1
1
1
1
1
1
1.76735
2.63966
2.75381
2.78165
2.79852
2.80199
2.80246
2.81153
1
1
1
1
1
1
1
1
1
1
1
1
1
1
1
1
1.62283
2.58146
2.72942
2.76294
2.78084
2.78812
2.79719
2.83286
1
1
1
1
1
1
1
1
1
1
1
1
1
1
1
1
1.39321
2.47741
2.69498
2.73385
2.75648
2.76057
2.74085
2.73482
1
1
1
1
1
1
1
1
1
1
1
1
1
1
1
1
1.08779
2.34688
2.67526
2.69951
2.72183
2.72192
2.70055
2.70304
1
1
1
1
1
1
1
1
1
1
1
1
1
1
1
1
1.00212
2.19672
2.61954
2.65331
2.67663
2.67965
2.66392
2.66592
1
1
1
1
1
1
1
1
1
1
1
1
1
1
1
1
0.999998
1.92889
2.55517
2.62838
2.64423
2.64689
2.63963
2.63765
1
1
1
1
1
1
1
1
1
1
1
1
1
1
1
1
0.999999
1.506
2.42496
2.59624
2.61262
2.61794
2.61517
2.61077
1
1
1
1
1
1
1
1
1
1
1
1
1
1
1
1
1
1.0711
2.23079
2.55913
2.5782
2.58671
2.58568
2.58242
1
1
1
1
1
1
1
1
1
1
1
1
1
1
1
1
1
1.00109
1.95049
2.4821
2.54379
2.55109
2.55161
2.54828
1
1
1
1
1
1
1
1
1
1
1
1
1
1
1
1
1
0.999994
1.4091
2.33995
2.51782
2.51231
2.51426
2.51081
1
1
1
1
1
1
1
1
1
1
1
1
1
1
1
1
1
0.999999
1.03917
2.16336
2.47617
2.46461
2.4699
2.46659
1
1
1
1
1
1
1
1
1
1
1
1
1
1
1
1
1
1
1.00025
1.73208
2.37743
2.44653
2.44326
2.43607
1
1
1
1
1
1
1
1
1
1
1
1
1
1
1
1
1
1
1
1.14523
2.18656
2.43007
2.42037
2.41009
1
1
1
1
1
1
1
1
1
1
1
1
1
1
1
1
1
1
1
1.00428
1.8345
2.34222
2.39678
2.38425
1
1
1
1
1
1
1
1
1
1
1
1
1
1
1
1
1
1
1
1
1.2183
2.15427
2.3738
2.35798
1
1
1
1
1
1
1
1
1
1
1
1
1
1
1
1
1
1
1
1
1.01006
1.81059
2.28925
2.32936
1
1
1
1
1
1
1
1
1
1
1
1
1
1
1
1
1
1
1
1
1.00003
1.21729
2.08661
2.30595
1
1
1
1
1
1
1
1
1
1
1
1
1
1
1
1
1
1
1
1
1
1.00984
1.65185
2.1859
1
1
1
1
1
1
1
1
1
1
1
1
1
1
1
1
1
1
1
1
1
1.00005
1.13195
1.95601
1
1
1
1
1
1
1
1
1
1
1
1
1
1
1
1
1
1
1
1
1
1
1.00364
1.43216
1
1
1
1
1
1
1
1
1
1
1
1
1
1
1
1
1
1
1
1
1
1
1.00002
1.04843
1
1
1
1
1
1
1
1
1
1
1
1
1
1
1
1
1
1
1
1
1
1
1
1.00069
1
1
1
1
1
1
1
1
1
1
1
1
1
1
1
1
1
1
1
1
1
1
1
1
1
1
1
1
1
1
1
1
1
1
1
1
1
1
1
1
1
1
1
1
1
1
1
1
1
1
1
1
1
1
1
1
1
1
1
1
1
1
1
1
1
1
1
1
1
1
1
1
1
1
1
1
1
1
1
1
1
1
1
1
1
1
1
1
1
1
1
1
1
1
1
1
1
1
1
1
1
1
1
1
1
1
1
1
1
1
1
1
1
1
1
1
1
1
1
1
1
1
1
1
1
1
1
1
1
1
1
1
1
1
1
1
1
1
1
1
1
1
1
1
1
1
1
1
1
1
1
1
1
1
1
1
1
1
1
1
1
1
1
1
1
1
1
1
1
1
1
1
1
1
1
1
1
1
1
1
1
1
1
1
1
1
1
1
1
1
1
1
1
1
1
1
1
1
1
1
1
1
1
1
1
1
1
1
1
1
1
1
1
1
1
1
1
1
1
1
1
1
1
1
1
1
1
1
1
1
1
1
1
1
1
1
1
1
1
1
1
1
1
1
1
1
1
1
1
1
1
1
1
1
1
1
1
1
1
1
1
1
1
1
1
1
1
1
1
1
1
1
1
1
1
1
1
1
1
1
1
1
1
1
1
1
1
1
1
1
1
1
1
1
1
1
1
1
1
1
1
1
1
1
1
1
1
1
1
1
1
1
1
1
1
1
1
1
1
1
1
1
1
1
1
1
1
1
1
1
1
1
1
1
1
1
1
1
1
1
1
1
1
1
1
1
1
1
1
1
1
1
1
1
1
1
1
1
1
1
1
1
1
1
1
1
1
1
1
1
1
1
1
1
1
1
1
1
1
1
1
1
1
1
2.60687
2.73937
2.81265
2.85286
2.72674
2.81262
2.84404
2.86739
2.68789
2.75312
2.80107
2.84717
2.65066
2.69949
2.76836
2.88194
2.61525
2.63408
2.64273
2.60948
2.57595
2.56585
2.52832
2.43654
2.536
2.51183
2.45313
2.34188
2.49555
2.46816
2.40483
2.30532
2.45312
2.42675
2.37048
2.28702
2.4198
2.39152
2.34253
2.27247
2.39013
2.36052
2.31709
2.25781
2.36454
2.33498
2.29494
2.24365
2.3398
2.31189
2.27501
2.22947
2.31152
2.28672
2.25458
2.21474
2.28377
2.26486
2.23767
2.20244
2.26192
2.2401
2.21608
2.18596
2.24006
2.21822
2.197
2.17002
2.07142
2.1981
2.17044
2.14757
1.73879
2.13043
2.14982
2.13254
1.20699
1.90293
2.12632
2.11493
1.00953
1.41621
1.96999
2.09501
1.00007
1.04721
1.6002
1.99011
1
1.00077
1.12979
1.72443
1
1
1.0043
1.24418
1
1
1.00003
1.01517
1
1
1
1.00016
1
1
1
1
1
1
1
1
1
1
1
1
1
1
1
1
1
1
1
1
1
1
1
1
1
1
1
1
1
1
1
1
1
1
1
1
1
1
1
1
1.91886
1.53057
1.34105
1.36814
1.47022
1.53061
1.59906
1.72639
1.77088
1.76753
1.7621
1.75534
1.75188
1.75192
1.75454
1.76433
1.7776
1.77896
1.77489
1.75785
1.73168
1.72387
1.72449
1.73377
1.74541
1.74531
1.73554
1.71692
1.70399
1.70256
1.70489
1.71426
1.71931
1.71732
1.70972
1.69684
1.68902
1.68704
1.68845
1.69085
1.68773
1.68143
1.67417
1.67026
1.66854
1.6683
1.66876
1.66624
1.6619
1.65704
1.65306
1.64928
1.65119
1.67379
1.75138
1.90116
2.07575
2.23775
2.35372
2.43529
2.49268
2.51064
2.51141
2.49373
2.47087
2.4374
2.40187
2.37086
2.35086
2.33473
2.32018
2.30398
2.28656
2.27018
2.25178
2.22869
2.20663
2.19473
2.18915
2.18673
2.18639
2.18308
2.17708
2.16964
2.15578
2.13085
2.10588
2.08963
2.0804
2.07149
2.06557
2.06021
2.07376
1.88623
1.68472
1.58246
1.56631
1.53092
1.5359
1.55594
1.57422
1.58369
1.60153
1.63041
1.65543
1.67194
1.68178
1.69461
1.70958
1.71463
1.71428
1.70864
1.69732
1.69294
1.69376
1.69932
1.70941
1.71233
1.70873
1.69957
1.68963
1.68346
1.68282
1.68463
1.68991
1.69125
1.68917
1.68457
1.67741
1.67166
1.66829
1.66721
1.66631
1.66258
1.66056
1.65863
1.65602
1.65326
1.65013
1.64668
1.64241
1.63765
1.63799
1.64652
1.69144
1.79372
1.90081
1.96886
2.01876
2.05029
2.1003
2.16435
2.20351
2.24751
2.2882
2.31724
2.33217
2.33386
2.32484
2.314
2.30404
2.29095
2.27572
2.26091
2.24745
2.23469
2.22033
2.20217
2.18279
2.16603
2.1564
2.15159
2.14645
2.14118
2.13761
2.13359
2.12569
2.10919
2.08609
2.06677
2.05576
2.04786
2.04197
2.0326
2.09846
1.94154
1.80408
1.67807
1.60427
1.5418
1.48534
1.45824
1.45576
1.46017
1.48043
1.51342
1.54576
1.56238
1.57528
1.59033
1.60281
1.61474
1.6265
1.63248
1.6325
1.63381
1.63743
1.63879
1.63831
1.63695
1.63484
1.63367
1.63277
1.63292
1.63307
1.6313
1.6289
1.62865
1.63015
1.6335
1.63445
1.63294
1.62826
1.61918
1.61292
1.61183
1.61242
1.61536
1.6152
1.6135
1.60767
1.59886
1.59371
1.59952
1.62486
1.69693
1.82122
1.89813
1.96286
1.95364
1.92857
1.89977
1.88971
1.90037
1.93248
1.98277
2.04461
2.09725
2.13156
2.16196
2.18186
2.19405
2.20719
2.20354
2.19146
2.17725
2.164
2.15209
2.13858
2.12334
2.10703
2.09052
2.07661
2.06695
2.06067
2.05544
2.05182
2.04821
2.04348
2.03702
2.02908
2.01902
2.00587
1.99207
1.98286
1.96864
2.13248
1.9976
1.87729
1.75833
1.6769
1.61436
1.54465
1.50727
1.48054
1.44248
1.42851
1.43456
1.4456
1.4546
1.47189
1.49318
1.50754
1.51693
1.52922
1.54347
1.55447
1.56737
1.57671
1.57634
1.57209
1.56451
1.56146
1.56091
1.5614
1.56245
1.56483
1.56586
1.56536
1.56547
1.56696
1.57031
1.57171
1.57067
1.56661
1.55868
1.55377
1.55286
1.55272
1.55481
1.55473
1.55366
1.547
1.54621
1.55581
1.59934
1.70147
1.80394
1.90362
1.90279
1.89022
1.87214
1.85349
1.84572
1.83565
1.81674
1.79663
1.7894
1.80422
1.84199
1.89289
1.95282
2.00177
2.0305
2.05247
2.06022
2.05727
2.05332
2.05466
2.06099
2.06425
2.05774
2.0453
2.02946
2.01061
1.99147
1.97951
1.97249
1.96649
1.96152
1.95542
1.94878
1.94357
1.93749
1.92758
1.91249
1.89443
1.87681
2.15825
2.04312
1.93934
1.8379
1.75092
1.67441
1.60092
1.55818
1.52526
1.48225
1.42894
1.41563
1.40936
1.41115
1.41901
1.43723
1.45039
1.45461
1.46127
1.47356
1.48775
1.5028
1.51636
1.52493
1.52529
1.52307
1.52298
1.5236
1.52289
1.52065
1.51816
1.51528
1.51454
1.51466
1.51535
1.5163
1.51593
1.51422
1.51084
1.50777
1.50711
1.50712
1.5077
1.50623
1.50331
1.49922
1.50203
1.52468
1.59768
1.71176
1.82493
1.86549
1.8561
1.84684
1.83811
1.83885
1.83408
1.81679
1.79583
1.77668
1.76108
1.75009
1.74056
1.73189
1.73569
1.75372
1.79414
1.83828
1.88286
1.91514
1.93504
1.94678
1.95586
1.9652
1.97539
1.97811
1.9766
1.97209
1.96075
1.94135
1.92098
1.91007
1.90373
1.89748
1.89105
1.88397
1.87595
1.86676
1.85603
1.8434
1.82576
1.79931
2.17509
2.08126
1.98392
1.89409
1.82015
1.74539
1.66045
1.61343
1.58178
1.54084
1.48722
1.45896
1.43569
1.41143
1.40826
1.41048
1.40811
1.40836
1.41259
1.42512
1.44278
1.45686
1.47011
1.48188
1.48621
1.48684
1.49205
1.49736
1.49748
1.49599
1.49333
1.49071
1.48861
1.48668
1.48479
1.48255
1.47889
1.47575
1.4751
1.47564
1.4783
1.48057
1.47896
1.47458
1.47196
1.47844
1.52103
1.62952
1.75778
1.83651
1.84799
1.84514
1.83793
1.83262
1.8257
1.81267
1.79937
1.78596
1.76968
1.75702
1.75043
1.742
1.72894
1.71262
1.69682
1.68618
1.67858
1.68282
1.6978
1.73217
1.76809
1.80801
1.84027
1.86548
1.88447
1.90297
1.91818
1.91682
1.90993
1.89766
1.88367
1.87037
1.86297
1.85828
1.85653
1.85289
1.84652
1.83597
1.82189
1.80569
1.78847
1.75974
2.17935
2.1033
2.01923
1.93644
1.87111
1.80545
1.72351
1.67189
1.63281
1.58831
1.54291
1.51097
1.47829
1.43572
1.40494
1.40198
1.3927
1.39164
1.40054
1.40679
1.41104
1.41405
1.42057
1.43415
1.44809
1.45703
1.46758
1.47488
1.47488
1.47248
1.47026
1.47017
1.47124
1.47204
1.47042
1.46701
1.46125
1.45767
1.45709
1.45768
1.46025
1.46017
1.45829
1.45993
1.47731
1.5547
1.68768
1.79907
1.84191
1.85527
1.85354
1.84672
1.8291
1.80988
1.79787
1.7871
1.77546
1.76697
1.7613
1.75417
1.74385
1.73028
1.71336
1.69675
1.68139
1.66877
1.65792
1.64766
1.63794
1.63115
1.62909
1.64105
1.66557
1.70014
1.74247
1.77829
1.81581
1.84035
1.85313
1.85438
1.8493
1.83883
1.82083
1.81358
1.81245
1.81544
1.81926
1.8136
1.80203
1.78603
1.77017
1.7427
2.17803
2.1147
2.04441
1.97057
1.90882
1.84808
1.78165
1.72841
1.68254
1.63129
1.58716
1.56092
1.53216
1.4893
1.44525
1.43134
1.4147
1.4012
1.40322
1.40436
1.39596
1.38593
1.38606
1.39222
1.40722
1.42354
1.44116
1.45407
1.4556
1.45346
1.45114
1.45196
1.45449
1.45777
1.45798
1.457
1.45353
1.45005
1.44864
1.44775
1.44733
1.44733
1.45456
1.49623
1.61133
1.74516
1.81543
1.85523
1.86399
1.86018
1.84672
1.82664
1.80537
1.7899
1.77911
1.77002
1.76399
1.75869
1.75112
1.74116
1.72855
1.714
1.69682
1.6819
1.6724
1.66209
1.64678
1.62968
1.61755
1.60744
1.59971
1.5925
1.58291
1.57525
1.5812
1.60054
1.63322
1.67769
1.71752
1.75164
1.76876
1.77671
1.77877
1.77569
1.77375
1.77383
1.77476
1.77556
1.77121
1.76163
1.75168
1.73161
2.17348
2.11821
2.05666
1.99404
1.93982
1.87993
1.81815
1.77435
1.73233
1.68002
1.62788
1.59996
1.57096
1.53471
1.50045
1.47703
1.45176
1.41691
1.40359
1.39995
1.38837
1.37904
1.37878
1.38076
1.38309
1.38958
1.402
1.41606
1.42587
1.43096
1.43286
1.43467
1.43858
1.44299
1.44401
1.44476
1.44479
1.44328
1.44141
1.43987
1.44059
1.45485
1.53522
1.67387
1.78364
1.84046
1.86398
1.86221
1.85315
1.83923
1.82234
1.80626
1.79353
1.78243
1.77054
1.75829
1.74781
1.73988
1.73213
1.72173
1.70886
1.69527
1.68379
1.67279
1.66047
1.64543
1.62753
1.61056
1.59748
1.58905
1.58282
1.5757
1.56702
1.55458
1.53723
1.52565
1.52247
1.5277
1.54251
1.56972
1.59989
1.6265
1.652
1.67282
1.68816
1.69864
1.70946
1.72499
1.73262
1.72996
1.72277
1.70982
2.16679
2.11784
2.06383
2.0098
1.96086
1.90831
1.85265
1.80786
1.76535
1.71776
1.67417
1.64302
1.60818
1.56547
1.53691
1.51829
1.49431
1.45857
1.43056
1.41765
1.40095
1.38478
1.38485
1.3843
1.37962
1.37593
1.37739
1.38153
1.38691
1.39386
1.40332
1.41182
1.42031
1.42602
1.42773
1.42984
1.43214
1.43212
1.43299
1.43819
1.47384
1.58099
1.73837
1.82448
1.86564
1.86641
1.85721
1.8395
1.82456
1.81325
1.80647
1.80302
1.79224
1.77351
1.75327
1.73806
1.728
1.71988
1.71193
1.70187
1.69073
1.68034
1.66894
1.65636
1.64317
1.62774
1.60884
1.59288
1.58087
1.57082
1.56332
1.55705
1.55008
1.5398
1.52438
1.50709
1.49462
1.48711
1.48201
1.47825
1.47849
1.48098
1.48845
1.50269
1.52132
1.54877
1.57688
1.6014
1.62289
1.64339
1.65924
1.66746
2.15962
2.11513
2.06804
2.02125
1.97636
1.92545
1.87732
1.83817
1.79814
1.74531
1.70636
1.67714
1.64492
1.60336
1.57257
1.54977
1.52303
1.49169
1.46932
1.45087
1.42912
1.39899
1.39117
1.38787
1.37868
1.37183
1.37198
1.3709
1.36725
1.36613
1.36948
1.37842
1.38891
1.39972
1.40695
1.41063
1.41445
1.42031
1.43402
1.51011
1.65494
1.77446
1.86364
1.87843
1.87248
1.85548
1.83136
1.81272
1.80249
1.79814
1.79776
1.78812
1.77282
1.75353
1.73307
1.71738
1.70779
1.70072
1.69146
1.67972
1.66888
1.65807
1.6456
1.63281
1.62084
1.60823
1.59369
1.57754
1.56189
1.54843
1.53905
1.53286
1.52818
1.52224
1.51132
1.49428
1.47623
1.46322
1.45582
1.45029
1.44496
1.43908
1.43257
1.4255
1.41611
1.40985
1.41477
1.43068
1.45655
1.48637
1.51439
1.56088
2.14975
2.10989
2.06729
2.02583
1.98426
1.93946
1.8954
1.85742
1.81889
1.77279
1.73486
1.7051
1.67233
1.63159
1.6056
1.58211
1.55478
1.51901
1.49896
1.48217
1.46139
1.43104
1.41523
1.40574
1.39165
1.37823
1.37603
1.37249
1.36382
1.35664
1.35522
1.35649
1.35885
1.3647
1.37407
1.38399
1.396
1.42193
1.52587
1.72123
1.81536
1.86139
1.88387
1.88121
1.87143
1.8474
1.8148
1.79693
1.78775
1.78165
1.77219
1.76041
1.74681
1.73062
1.7161
1.70394
1.69122
1.67608
1.66031
1.64974
1.64122
1.63268
1.62163
1.60937
1.59841
1.58743
1.57416
1.55898
1.54399
1.53017
1.51887
1.51043
1.50365
1.49779
1.49176
1.48078
1.46338
1.44526
1.43416
1.42809
1.42249
1.41568
1.40815
1.40076
1.39415
1.38437
1.37053
1.35836
1.35477
1.35707
1.36316
1.39353
2.13895
2.10321
2.06421
2.02834
1.99077
1.94721
1.90774
1.87375
1.83584
1.79339
1.75985
1.72926
1.69581
1.65851
1.63305
1.60958
1.58134
1.54738
1.52842
1.5106
1.48866
1.46028
1.44532
1.43149
1.41404
1.39059
1.38064
1.37314
1.36165
1.3524
1.34993
1.35032
1.34681
1.34554
1.34801
1.35693
1.41156
1.54287
1.73716
1.82435
1.85154
1.86102
1.86409
1.85877
1.84535
1.8226
1.7957
1.77859
1.76713
1.75715
1.74498
1.7321
1.72026
1.70971
1.6988
1.68613
1.67064
1.65097
1.63204
1.62039
1.6123
1.60652
1.59772
1.5868
1.57472
1.56195
1.54978
1.53866
1.52822
1.51686
1.5035
1.49021
1.47967
1.47259
1.46657
1.46002
1.45008
1.43504
1.41746
1.40776
1.40153
1.39477
1.38697
1.37961
1.37255
1.36605
1.35808
1.34434
1.32918
1.32031
1.31484
1.30802
2.12218
2.09205
2.05824
2.02587
1.99139
1.95175
1.91727
1.88485
1.84826
1.80953
1.78076
1.74978
1.71491
1.68012
1.65863
1.63381
1.60451
1.57247
1.55485
1.53568
1.51273
1.48634
1.47234
1.45768
1.43904
1.41284
1.39802
1.38765
1.37445
1.35966
1.3551
1.35292
1.34441
1.34267
1.35006
1.4139
1.58846
1.74949
1.82074
1.82024
1.82018
1.81908
1.81808
1.81359
1.79962
1.78185
1.76646
1.75244
1.74064
1.73037
1.71557
1.703
1.69455
1.68533
1.67326
1.6606
1.64662
1.62916
1.61055
1.59627
1.58726
1.57939
1.56968
1.55852
1.54688
1.53503
1.52498
1.51745
1.5107
1.50136
1.48768
1.47008
1.45699
1.44978
1.44432
1.43916
1.43271
1.42214
1.40519
1.38839
1.37986
1.37374
1.36699
1.36058
1.35407
1.34707
1.3399
1.32975
1.31243
1.29936
1.2934
1.28462
2.11027
2.08337
2.05311
2.02365
1.99226
1.95727
1.92458
1.89388
1.85758
1.82367
1.79626
1.76754
1.73043
1.69911
1.67775
1.65308
1.62232
1.59421
1.57799
1.55908
1.53424
1.50774
1.49514
1.48008
1.4608
1.43572
1.42142
1.40813
1.39294
1.37117
1.35869
1.35331
1.34427
1.35679
1.43436
1.63874
1.76513
1.80703
1.81204
1.80292
1.78215
1.76704
1.75933
1.75353
1.75006
1.74217
1.73165
1.72107
1.70688
1.69425
1.68155
1.67305
1.66487
1.6524
1.64099
1.63219
1.62296
1.61229
1.59926
1.58232
1.56435
1.55176
1.54279
1.53262
1.52166
1.51257
1.50396
1.49473
1.48522
1.47734
1.46682
1.45202
1.43834
1.42958
1.42399
1.41929
1.41328
1.40473
1.39141
1.37377
1.36007
1.35283
1.34784
1.34353
1.33715
1.33023
1.32292
1.31213
1.29397
1.27855
1.27319
1.26496
2.09432
2.07091
2.04479
2.01784
1.98847
1.95666
1.92784
1.89831
1.86419
1.83177
1.80698
1.78032
1.7443
1.71423
1.69264
1.66929
1.6393
1.61453
1.5977
1.57766
1.55268
1.52943
1.51671
1.50072
1.47947
1.45562
1.44275
1.42999
1.41476
1.39086
1.37237
1.36763
1.39226
1.50732
1.67448
1.82288
1.8208
1.80698
1.78815
1.76927
1.7459
1.72819
1.71764
1.71023
1.70731
1.69981
1.69198
1.68178
1.6681
1.65605
1.64424
1.63647
1.63005
1.61817
1.6078
1.60175
1.59518
1.58889
1.57945
1.56567
1.5459
1.52609
1.5158
1.50848
1.50151
1.49327
1.48358
1.47236
1.45923
1.44693
1.44003
1.43355
1.42445
1.41465
1.40538
1.39752
1.39002
1.38246
1.37372
1.36032
1.34485
1.33483
1.32806
1.32073
1.3127
1.30529
1.29832
1.2897
1.27576
1.25969
1.25438
1.2468
2.07707
2.05317
2.03167
2.00811
1.98061
1.95304
1.92632
1.89753
1.86621
1.83891
1.81391
1.78612
1.75433
1.72897
1.70771
1.68295
1.65054
1.62967
1.61469
1.59628
1.56887
1.54721
1.53434
1.51797
1.49656
1.47395
1.46203
1.44825
1.43005
1.4101
1.3996
1.43095
1.58583
1.744
1.84958
1.84768
1.82632
1.79478
1.7639
1.74295
1.72852
1.71466
1.70141
1.68766
1.67441
1.6657
1.6569
1.64294
1.62757
1.61391
1.60107
1.59195
1.58728
1.58006
1.56932
1.56383
1.56475
1.56122
1.55327
1.54331
1.5264
1.50502
1.4934
1.48629
1.48042
1.47241
1.4623
1.45178
1.43859
1.42449
1.41401
1.40797
1.40341
1.39624
1.38706
1.37652
1.36739
1.36065
1.35455
1.34606
1.33277
1.31884
1.30923
1.30074
1.2918
1.28365
1.27659
1.26889
1.25797
1.24427
1.23647
1.22704
2.06501
2.04109
2.01706
1.99526
1.9711
1.94775
1.92346
1.89659
1.86587
1.84266
1.81949
1.79301
1.76174
1.74031
1.71872
1.69444
1.66505
1.64427
1.62772
1.60813
1.5836
1.56533
1.55187
1.53498
1.51039
1.48868
1.47761
1.46487
1.44515
1.44816
1.5032
1.67255
1.83133
1.87342
1.86848
1.84795
1.81775
1.78729
1.75923
1.7375
1.72402
1.70945
1.69211
1.67198
1.65026
1.63282
1.62089
1.61342
1.60449
1.59013
1.56862
1.54929
1.54107
1.53586
1.52993
1.52778
1.52508
1.51678
1.51244
1.50805
1.5
1.48666
1.47508
1.46684
1.45943
1.44943
1.4389
1.43101
1.42175
1.40889
1.39382
1.38069
1.3723
1.368
1.36302
1.35567
1.34729
1.33991
1.33384
1.32755
1.31813
1.30388
1.29038
1.27911
1.26958
1.26143
1.25411
1.24707
1.23975
1.2305
1.22162
1.20903
1.99439
2.02976
2.00989
1.98395
1.96176
1.93969
1.91596
1.89144
1.8667
1.84348
1.81997
1.79387
1.76796
1.74962
1.72917
1.70329
1.67259
1.6567
1.64112
1.62155
1.59455
1.57875
1.56524
1.54809
1.52519
1.50338
1.49086
1.47845
1.49443
1.59705
1.77545
1.91591
1.92075
1.9034
1.86952
1.83694
1.81112
1.78666
1.76218
1.74059
1.7212
1.70189
1.68141
1.65933
1.63717
1.61544
1.59978
1.58891
1.57882
1.56799
1.55421
1.5331
1.51468
1.50426
1.49711
1.49228
1.48586
1.47456
1.46586
1.46196
1.46112
1.45672
1.445
1.43396
1.42447
1.41674
1.41405
1.4082
1.4002
1.3903
1.37789
1.36212
1.34755
1.33902
1.3342
1.33125
1.32678
1.31973
1.31279
1.30636
1.29822
1.28632
1.27186
1.25761
1.24696
1.23935
1.23221
1.2256
1.21954
1.21379
1.20698
1.19259
1.7823
1.98425
1.99828
1.97617
1.95059
1.93098
1.91057
1.88545
1.86207
1.84186
1.82065
1.79617
1.77212
1.75365
1.73362
1.71072
1.6846
1.66704
1.6502
1.6299
1.60547
1.59103
1.57745
1.55964
1.53247
1.51609
1.50971
1.53971
1.6895
1.86659
1.97631
1.97019
1.93643
1.88861
1.8507
1.82518
1.80514
1.7845
1.76324
1.74193
1.72111
1.69968
1.67738
1.65499
1.63298
1.61097
1.59029
1.57317
1.55909
1.54626
1.53324
1.51763
1.49999
1.48163
1.4695
1.46334
1.45556
1.44395
1.43039
1.42211
1.4188
1.41467
1.40702
1.39643
1.38762
1.37964
1.37339
1.37101
1.36952
1.36379
1.35543
1.34436
1.32915
1.31545
1.30896
1.30509
1.30064
1.29567
1.29067
1.28495
1.27717
1.26648
1.25227
1.23707
1.22644
1.21904
1.21145
1.2045
1.1995
1.195
1.18773
1.17127
1.34312
1.81241
1.96721
1.96403
1.94212
1.91964
1.89956
1.87854
1.85889
1.83963
1.81945
1.79379
1.77432
1.75735
1.73929
1.71366
1.68996
1.6763
1.65911
1.63847
1.61457
1.59925
1.58519
1.56748
1.54293
1.54176
1.5982
1.77137
1.95665
1.99808
1.98785
1.95947
1.92138
1.88045
1.84649
1.8226
1.80552
1.78698
1.76634
1.74356
1.71858
1.69376
1.67188
1.65306
1.63408
1.61286
1.58896
1.5645
1.54333
1.52629
1.5126
1.50146
1.4884
1.46895
1.44779
1.437
1.42957
1.42053
1.41045
1.39993
1.39032
1.38177
1.37224
1.35939
1.34854
1.34157
1.33569
1.33207
1.32992
1.328
1.32341
1.31647
1.30664
1.29184
1.28188
1.27783
1.27446
1.27114
1.26855
1.2648
1.25901
1.2479
1.23333
1.21895
1.20893
1.20133
1.194
1.18644
1.18073
1.17651
1.17073
1.15614
1.03456
1.4214
1.82791
1.93855
1.9326
1.91114
1.88965
1.86936
1.85018
1.83396
1.81646
1.79551
1.77503
1.75572
1.73707
1.71571
1.69681
1.68184
1.66421
1.64225
1.62012
1.60646
1.59264
1.57342
1.58651
1.68265
1.87566
2.01035
2.04048
2.02319
1.98784
1.9477
1.91124
1.88043
1.85391
1.82602
1.80023
1.77843
1.75643
1.73404
1.71129
1.68744
1.66375
1.64408
1.62741
1.61003
1.58984
1.56575
1.53875
1.51548
1.499
1.48635
1.47484
1.45998
1.43689
1.41619
1.40648
1.3997
1.39133
1.38122
1.37104
1.36156
1.3501
1.33442
1.31837
1.30858
1.30174
1.29573
1.29188
1.2883
1.28521
1.28191
1.2763
1.26627
1.25396
1.24876
1.24627
1.24561
1.24273
1.23852
1.23434
1.22724
1.21534
1.20566
1.19732
1.18728
1.17724
1.1687
1.16247
1.15724
1.15306
1.14355
1.00055
1.06072
1.4794
1.82357
1.9113
1.90435
1.882
1.85865
1.84178
1.82798
1.81052
1.79
1.7737
1.75851
1.73955
1.7139
1.69698
1.6844
1.66743
1.64799
1.62322
1.60965
1.60337
1.63578
1.80016
1.97659
2.07561
2.06639
2.03877
1.99736
1.95613
1.922
1.89651
1.87436
1.85126
1.82508
1.79645
1.7689
1.744
1.7214
1.70034
1.67977
1.65859
1.63732
1.61821
1.60143
1.58468
1.56431
1.53843
1.51236
1.49116
1.47456
1.46281
1.45087
1.43327
1.41047
1.39182
1.37887
1.36717
1.35667
1.34895
1.34245
1.33261
1.31665
1.29996
1.28613
1.2761
1.26937
1.26433
1.25876
1.25322
1.24806
1.243
1.23715
1.22573
1.21837
1.21666
1.21711
1.21701
1.21488
1.21238
1.20792
1.19753
1.18657
1.17871
1.17164
1.1654
1.15892
1.15117
1.14341
1.13795
1.12916
1
1.00136
1.08933
1.51183
1.81093
1.88809
1.87967
1.85569
1.83352
1.81914
1.80386
1.78627
1.76974
1.75453
1.73727
1.71576
1.70132
1.68531
1.66838
1.64592
1.62659
1.63014
1.70585
1.90009
2.08449
2.1126
2.09245
2.05804
2.01693
1.97408
1.9342
1.90774
1.88681
1.86675
1.84586
1.82122
1.79213
1.76223
1.73522
1.71085
1.68857
1.66864
1.64969
1.63002
1.6097
1.58935
1.56918
1.54917
1.52847
1.50759
1.48715
1.46618
1.44777
1.43428
1.42282
1.4085
1.38995
1.37184
1.35621
1.34202
1.32903
1.31836
1.30995
1.30032
1.28657
1.2702
1.25795
1.25094
1.2456
1.23938
1.23295
1.22629
1.21901
1.21149
1.20224
1.19215
1.18872
1.18905
1.18922
1.18779
1.18644
1.1838
1.17881
1.16973
1.16232
1.15828
1.15347
1.14524
1.13486
1.12688
1.12282
1.11593
1
1.00001
1.00256
1.11421
1.52502
1.79951
1.86516
1.85526
1.83209
1.81243
1.794
1.77764
1.76478
1.75001
1.73303
1.71311
1.70045
1.68458
1.66911
1.64951
1.66601
1.79429
1.99887
2.14321
2.14083
2.11464
2.0736
2.03386
1.99568
1.96117
1.92984
1.90251
1.87754
1.85366
1.82997
1.80564
1.78029
1.7544
1.72845
1.70243
1.67662
1.65248
1.63122
1.61247
1.59523
1.57766
1.55768
1.53654
1.5174
1.50007
1.4834
1.46546
1.44506
1.42418
1.40493
1.39099
1.37929
1.36481
1.34968
1.33495
1.3213
1.31044
1.30106
1.28866
1.27104
1.25599
1.24777
1.24106
1.23329
1.22515
1.2184
1.21287
1.20625
1.19631
1.18495
1.1725
1.16622
1.16541
1.16636
1.16418
1.16179
1.15959
1.1567
1.15149
1.14461
1.14181
1.13869
1.13086
1.11925
1.11164
1.10786
1.10247
1
1
1.00002
1.00408
1.13091
1.53805
1.78145
1.83837
1.83059
1.81147
1.78594
1.76898
1.75662
1.74272
1.72633
1.71126
1.6967
1.68342
1.6749
1.72183
1.91465
2.09755
2.17648
2.17178
2.14369
2.1018
2.05388
2.01379
1.98017
1.94858
1.91872
1.89014
1.86319
1.83742
1.81191
1.78652
1.7618
1.73771
1.71342
1.68874
1.66429
1.64059
1.61777
1.59601
1.57627
1.55938
1.54343
1.52583
1.50698
1.48859
1.47191
1.45603
1.43962
1.42157
1.40057
1.37883
1.36419
1.35284
1.34041
1.32886
1.31785
1.30809
1.29863
1.28684
1.27087
1.25161
1.23781
1.23088
1.22416
1.21614
1.20816
1.20208
1.19668
1.18831
1.17524
1.16104
1.15442
1.15296
1.15242
1.14767
1.1431
1.14012
1.13612
1.13027
1.1232
1.12038
1.11937
1.11326
1.10202
1.09604
1.09304
1.0877
1
1
1
1.00003
1.00547
1.14454
1.53787
1.75078
1.81465
1.81006
1.78743
1.76499
1.7502
1.73694
1.72062
1.70656
1.69061
1.69784
1.80037
2.03426
2.19981
2.18916
2.16711
2.13418
2.10595
2.07286
2.03475
1.998
1.9642
1.93176
1.90048
1.87021
1.8418
1.81557
1.79055
1.76588
1.74138
1.71717
1.69359
1.67103
1.6495
1.62839
1.60691
1.58502
1.56348
1.54429
1.52864
1.51435
1.49822
1.4802
1.46188
1.44373
1.42647
1.41133
1.39506
1.37422
1.35891
1.3536
1.34793
1.33763
1.32365
1.30886
1.29512
1.28056
1.26345
1.24493
1.23305
1.22635
1.22024
1.21343
1.20531
1.19785
1.19135
1.18349
1.17145
1.15393
1.14755
1.14614
1.14566
1.14099
1.13367
1.12897
1.12243
1.11079
1.10232
1.10022
1.09754
1.09044
1.08164
1.07643
1.07436
1.06884
1
1
1
1
1.00005
1.00654
1.15287
1.50496
1.73179
1.7981
1.78997
1.76838
1.75001
1.73128
1.71594
1.70144
1.72326
1.90196
2.13279
2.25881
2.25081
2.20539
2.14913
2.10186
2.06932
2.04107
2.01136
1.97915
1.94608
1.91407
1.88278
1.85161
1.8223
1.79567
1.77052
1.74533
1.72015
1.69637
1.67461
1.65472
1.63591
1.61707
1.5973
1.57689
1.55661
1.53694
1.5189
1.50305
1.48773
1.47179
1.45628
1.44161
1.42667
1.4099
1.38897
1.37098
1.36098
1.3513
1.33993
1.33109
1.32381
1.31528
1.30266
1.28503
1.26499
1.24886
1.23602
1.22667
1.21969
1.21325
1.20943
1.204
1.19745
1.18813
1.17132
1.14961
1.14104
1.14005
1.14119
1.13909
1.12956
1.12115
1.11382
1.10092
1.09005
1.08816
1.08439
1.07693
1.069
1.06341
1.05946
1.05189
1
1
1
1
1
1.00006
1.0073
1.14093
1.48196
1.72206
1.77603
1.76903
1.7535
1.73085
1.71394
1.76425
2.00382
2.25325
2.26172
2.2395
2.20075
2.16212
2.12299
2.08285
2.04553
2.0132
1.9831
1.95337
1.92444
1.89636
1.8677
1.83669
1.8056
1.77806
1.75407
1.73191
1.70817
1.68406
1.66224
1.64256
1.62384
1.60527
1.58642
1.56879
1.55378
1.53813
1.51889
1.49872
1.48036
1.46434
1.45062
1.43732
1.4223
1.40619
1.39303
1.38086
1.36592
1.34989
1.33749
1.32908
1.32005
1.30888
1.29618
1.27927
1.25991
1.24621
1.23683
1.22923
1.22298
1.21652
1.20837
1.19886
1.18905
1.1765
1.16045
1.14782
1.1384
1.13482
1.13321
1.12867
1.11951
1.11134
1.10448
1.09373
1.08294
1.07983
1.07549
1.06816
1.06031
1.0531
1.04626
1.03953
1
1
1
1
1
1
1.00006
1.00682
1.12355
1.4721
1.69991
1.75214
1.7485
1.74047
1.8132
2.08979
2.3063
2.32979
2.2917
2.21937
2.15725
2.12007
2.09065
2.05829
2.0221
1.98769
1.957
1.92938
1.90394
1.87879
1.85266
1.82497
1.79513
1.76738
1.74228
1.71878
1.69474
1.6719
1.65203
1.63377
1.61645
1.59973
1.58344
1.56742
1.55067
1.5323
1.51306
1.49448
1.47747
1.46233
1.44838
1.43497
1.42208
1.40906
1.39396
1.37674
1.36035
1.34597
1.33499
1.32603
1.31681
1.30719
1.29597
1.28136
1.26372
1.24618
1.23455
1.22854
1.22325
1.21649
1.20795
1.19814
1.18702
1.17382
1.1594
1.14673
1.13698
1.13295
1.13043
1.12525
1.11594
1.10723
1.09941
1.08816
1.08012
1.07698
1.07199
1.0646
1.05613
1.04744
1.04012
1.03277
1
1
1
1
1
1
1
1.00006
1.00542
1.12064
1.45126
1.65216
1.73627
1.88511
2.15334
2.29631
2.28775
2.27175
2.23981
2.19374
2.14424
2.10372
2.07033
2.03846
2.00635
1.97547
1.94685
1.92045
1.89553
1.87057
1.84433
1.81967
1.7991
1.77584
1.74853
1.71816
1.69422
1.67826
1.66184
1.64532
1.62939
1.61375
1.5977
1.58018
1.56068
1.54031
1.52074
1.50294
1.4871
1.47265
1.45916
1.44658
1.43453
1.42109
1.40341
1.38316
1.36575
1.35322
1.34415
1.33648
1.32897
1.32075
1.31015
1.29495
1.27395
1.25305
1.24249
1.23706
1.23157
1.22486
1.21662
1.20664
1.19521
1.18256
1.16823
1.15373
1.14429
1.14032
1.13656
1.13001
1.11988
1.10972
1.10075
1.09203
1.086
1.0809
1.07437
1.06616
1.05685
1.04742
1.03964
1.03016
1
1
1
1
1
1
1
1
1.00005
1.00599
1.11623
1.45991
1.80924
2.23567
2.49931
2.47367
2.34443
2.25437
2.19759
2.16869
2.13378
2.09459
2.05757
2.02505
1.99653
1.97022
1.94442
1.91851
1.8926
1.86722
1.84291
1.81888
1.79239
1.76384
1.73607
1.71104
1.68912
1.66852
1.65042
1.63385
1.61779
1.60161
1.58465
1.56625
1.54638
1.52618
1.50719
1.49008
1.47464
1.46059
1.44786
1.43586
1.42332
1.40831
1.38884
1.36843
1.35361
1.34272
1.33344
1.32528
1.31809
1.31109
1.30153
1.28535
1.26148
1.24003
1.22998
1.22493
1.22042
1.2147
1.20699
1.19743
1.18589
1.17216
1.15602
1.1404
1.13207
1.12953
1.12682
1.12141
1.11144
1.09826
1.08589
1.07859
1.07582
1.07262
1.06684
1.05806
1.04756
1.03685
1.02875
1.02145
)
;

boundaryField
{
    inlet
    {
        type            fixedValue;
        value           uniform 1;
    }
    outlet
    {
        type            inletOutlet;
        inletValue      uniform 1;
        value           nonuniform List<scalar> 
32
(
2.0635
2.03434
1.96861
1.87648
1.79681
1.75659
1.74113
1.73059
1.70797
1.6656
1.5573
1.38972
1.30778
1.28488
1.26547
1.24737
1.22747
1.20893
1.19193
1.17002
1.15482
1.14293
1.12909
1.11589
1.10269
1.08765
1.06829
1.05139
1.03942
1.03285
1.03028
1.02177
)
;
    }
    bottom
    {
        type            zeroGradient;
    }
    top
    {
        type            zeroGradient;
    }
    obstacle
    {
        type            zeroGradient;
    }
    defaultFaces
    {
        type            empty;
    }
}


// ************************************************************************* //
