/*--------------------------------*- C++ -*----------------------------------*\
  =========                 |
  \\      /  F ield         | OpenFOAM: The Open Source CFD Toolbox
   \\    /   O peration     | Website:  https://openfoam.org
    \\  /    A nd           | Version:  7
     \\/     M anipulation  |
\*---------------------------------------------------------------------------*/
FoamFile
{
    version     2.0;
    format      ascii;
    class       volVectorField;
    location    "1.1";
    object      U;
}
// * * * * * * * * * * * * * * * * * * * * * * * * * * * * * * * * * * * * * //

dimensions      [0 1 -1 0 0 0 0];

internalField   nonuniform List<vector> 
16192
(
(3 5.8172e-16 0)
(3 -2.60793e-16 0)
(3 -1.53361e-15 0)
(3 -2.85142e-15 0)
(3 -3.58233e-15 0)
(3 -1.27434e-15 0)
(3 -7.65011e-16 0)
(3 -6.98332e-16 0)
(3 -4.46057e-16 0)
(3 1.17896e-16 0)
(3 9.14582e-16 0)
(3 1.34996e-15 0)
(3 1.50988e-15 0)
(3 1.76589e-15 0)
(3 1.37668e-15 0)
(3 1.34934e-15 0)
(3 1.47622e-15 0)
(3 1.53025e-15 0)
(3 1.17002e-15 0)
(3 2.0995e-16 0)
(3 -9.19067e-16 0)
(3 -1.09308e-15 0)
(3 -1.08702e-15 0)
(3 5.23334e-16 0)
(3 1.22535e-15 0)
(3 1.25397e-15 0)
(3 2.0578e-15 0)
(3 3.4933e-15 0)
(3 4.36771e-15 0)
(3 4.27071e-15 0)
(3 2.39043e-15 0)
(3 1.01055e-15 0)
(3 8.74261e-16 0)
(3 9.79117e-16 0)
(3 9.01923e-16 0)
(3 4.75377e-16 0)
(3 1.87697e-16 0)
(3 7.50924e-16 0)
(3 1.88023e-15 0)
(3 2.49464e-15 0)
(3 1.24655e-15 0)
(3 4.12929e-16 0)
(3 6.12693e-16 0)
(3 1.10631e-15 0)
(3 1.79428e-15 0)
(3 2.46567e-15 0)
(3 2.44162e-15 0)
(3 1.72796e-15 0)
(3 1.03389e-15 0)
(3 3.73363e-16 0)
(3 -1.57478e-16 0)
(3 -1.09903e-16 0)
(3 -7.40761e-16 0)
(3 -2.46962e-15 0)
(3 -2.82376e-15 0)
(3 -2.41508e-15 0)
(3 -1.99228e-15 0)
(3 -1.69641e-15 0)
(3 -2.08511e-15 0)
(3 -2.40676e-15 0)
(3 -1.8377e-15 0)
(3 -1.55312e-15 0)
(3 -1.55681e-15 0)
(3 -2.10012e-15 0)
(3 4.61077e-17 0)
(3 -1.18493e-16 0)
(3 -4.07283e-16 0)
(3 -7.03553e-17 0)
(3 1.53256e-16 0)
(3 1.13998e-16 0)
(3 -2.13365e-16 0)
(3 6.78091e-16 0)
(3 1.90761e-15 0)
(3 1.89401e-15 0)
(3 1.13613e-15 0)
(3 6.65184e-16 0)
(3 9.71179e-16 0)
(3 1.13173e-15 0)
(3 1.40591e-15 0)
(3 7.32058e-16 0)
(3 -3.22052e-16 0)
(3 -6.20953e-16 0)
(3 -8.40859e-16 0)
(3 -6.75158e-16 0)
(3 -5.46592e-16 0)
(3 -6.10646e-16 0)
(3 -3.43353e-16 0)
(3 8.88118e-16 0)
(3 1.96024e-15 0)
(3 2.22986e-15 0)
(3 1.80722e-15 0)
(3 8.82368e-16 0)
(3 2.13577e-16 0)
(3 3.43639e-16 0)
(3 -8.29952e-17 0)
(3 -2.99428e-16 0)
(3 -4.47321e-16 0)
(3 -4.66555e-16 0)
(3 -1.5101e-15 0)
(3 -7.58855e-16 0)
(3 -1.36436e-15 0)
(3 -1.84774e-15 0)
(3 -1.49603e-15 0)
(3 -7.25871e-16 0)
(3 -4.17015e-16 0)
(3 -5.96694e-16 0)
(3 -7.04844e-16 0)
(3 -6.35134e-16 0)
(3 -8.71612e-16 0)
(3 -1.3275e-15 0)
(3 -1.34762e-15 0)
(3 -6.61006e-16 0)
(3 -3.68596e-16 0)
(3 4.28463e-16 0)
(3 1.40828e-15 0)
(3 4.45887e-16 0)
(3 1.52672e-16 0)
(3 3.07968e-16 0)
(3 4.40853e-16 0)
(3 1.02726e-16 0)
(3 1.69708e-16 0)
(3 8.6836e-16 0)
(3 1.10228e-15 0)
(3 1.24738e-15 0)
(3 1.52742e-15 0)
(3 1.09699e-15 0)
(3 -9.86498e-17 0)
(3 -6.75109e-16 0)
(3 -1.6374e-15 0)
(3 -2.33888e-15 0)
(3 -1.64613e-15 0)
(3 -8.97895e-16 0)
(3 -2.95303e-16 0)
(3 -8.25792e-16 0)
(3 -2.10482e-15 0)
(3 -1.83109e-15 0)
(3 -1.14454e-15 0)
(3 -4.90381e-16 0)
(3 -7.82037e-16 0)
(3 -3.98268e-16 0)
(3 -5.03593e-16 0)
(3 -4.50515e-17 0)
(3 -1.14511e-16 0)
(3 2.61026e-16 0)
(3 2.47064e-16 0)
(3 2.7754e-17 0)
(3 -2.04611e-16 0)
(3 2.7901e-16 0)
(3 1.67611e-15 0)
(3 3.11421e-15 0)
(3 3.01743e-15 0)
(3 2.65264e-15 0)
(3 1.82811e-15 0)
(3 6.11762e-16 0)
(3 8.0634e-16 0)
(3 1.06108e-15 0)
(3 1.15361e-15 0)
(3 9.74908e-16 0)
(3 8.26102e-16 0)
(3 -1.83114e-16 0)
(3 -8.88197e-16 0)
(3 2.82005e-17 0)
(3 1.70243e-15 0)
(3 1.69868e-15 0)
(3 1.22569e-15 0)
(3 -5.43462e-16 0)
(3 -2.00944e-15 0)
(3 -2.62871e-15 0)
(3 -1.7013e-15 0)
(3 -3.84295e-16 0)
(3 -4.40556e-17 0)
(3 -3.64142e-17 0)
(3 -5.30156e-17 0)
(3 6.65734e-16 0)
(3 1.00737e-16 0)
(3 7.22393e-18 0)
(3 2.58793e-16 0)
(3 2.84606e-16 0)
(3 1.39472e-15 0)
(3 1.6062e-15 0)
(3 8.21788e-16 0)
(3 3.30464e-16 0)
(3 -7.81208e-16 0)
(3 -9.22558e-16 0)
(3 -5.96612e-16 0)
(3 -1.36647e-15 0)
(3 -2.22984e-15 0)
(3 -2.42744e-15 0)
(3 -2.5634e-15 0)
(3 -2.31001e-15 0)
(3 -4.99467e-16 0)
(3 7.52836e-16 0)
(3 9.42029e-16 0)
(3 4.48182e-17 0)
(3 -4.62009e-16 0)
(3 -2.00467e-15 0)
(3 -3.298e-15 0)
(3 -3.39389e-15 0)
(3 -2.81956e-15 0)
(3 -1.0953e-15 0)
(3 1.23539e-15 0)
(3 2.11255e-15 0)
(3 2.50857e-15 0)
(3 1.72168e-15 0)
(3 1.45589e-15 0)
(3 1.85977e-15 0)
(3 1.8079e-15 0)
(3 1.88364e-15 0)
(3 1.14063e-15 0)
(3 8.08048e-16 0)
(3 8.30556e-16 0)
(3 1.58186e-16 0)
(3 -4.34977e-16 0)
(3 -5.4057e-16 0)
(3 -4.15098e-16 0)
(3 -1.27746e-17 0)
(3 2.87708e-16 0)
(3 1.03393e-15 0)
(3 2.21987e-15 0)
(3 1.71596e-15 0)
(3 1.03856e-15 0)
(3 1.32628e-15 0)
(3 5.66002e-16 0)
(3 -1.45853e-16 0)
(3 -1.15889e-16 0)
(3 -9.75776e-17 0)
(3 5.47702e-16 0)
(3 1.55469e-15 0)
(3 2.43415e-15 0)
(3 2.67857e-15 0)
(3 1.69372e-15 0)
(3 1.21559e-15 0)
(3 1.19009e-15 0)
(3 1.32305e-15 0)
(3 1.70346e-15 0)
(3 2.19593e-15 0)
(3 1.56937e-15 0)
(3 1.46645e-15 0)
(3 1.43373e-15 0)
(3 1.17706e-15 0)
(3 7.43563e-16 0)
(3 2.76524e-17 0)
(3 2.80522e-16 0)
(3 1.18979e-16 0)
(3 5.18548e-19 0)
(3 -5.26132e-16 0)
(3 -1.16014e-15 0)
(3 -4.6631e-16 0)
(3 -3.16284e-16 0)
(3 -4.94224e-16 0)
(3 -8.28007e-16 0)
(3 -9.47031e-16 0)
(3 -4.24039e-16 0)
(3 -1.3414e-16 0)
(3 -6.13611e-17 0)
(3 -1.97801e-16 0)
(3 -1.34361e-16 0)
(3 -2.65247e-16 0)
(3 -1.21379e-17 0)
(3 -2.87873e-16 0)
(3 -9.62272e-16 0)
(3 -1.78147e-15 0)
(3 -1.73214e-15 0)
(3 -8.94386e-16 0)
(3 -4.73818e-16 0)
(3 3.34168e-16 0)
(3 7.3511e-16 0)
(3 4.53376e-16 0)
(3 6.64855e-16 0)
(3 4.75865e-16 0)
(3 1.03125e-15 0)
(3 -1.17489e-15 0)
(3 -1.53612e-15 0)
(3 -1.30887e-15 0)
(3 -7.49588e-16 0)
(3 -8.16439e-16 0)
(3 -6.94475e-16 0)
(3 -3.68039e-16 0)
(3 3.37988e-16 0)
(3 6.0574e-16 0)
(3 4.21259e-16 0)
(3 1.29388e-16 0)
(3 5.50588e-16 0)
(3 6.19331e-16 0)
(3 7.76249e-16 0)
(3 1.07807e-15 0)
(3 1.63623e-15 0)
(3 1.15092e-15 0)
(3 5.55896e-16 0)
(3 -3.56444e-16 0)
(3 -1.01775e-15 0)
(3 -1.54664e-15 0)
(3 -1.89019e-15 0)
(3 -1.78736e-15 0)
(3 -1.15695e-15 0)
(3 -4.27224e-16 0)
(3 -2.43302e-16 0)
(3 -1.33816e-16 0)
(3 -2.39508e-16 0)
(3 -1.27255e-16 0)
(3 -8.85728e-16 0)
(3 -1.81279e-15 0)
(3 -1.97513e-15 0)
(3 -8.09301e-16 0)
(3 -6.94081e-16 0)
(3 -2.00801e-16 0)
(3 1.89143e-16 0)
(3 1.3772e-16 0)
(3 -3.2367e-16 0)
(3 -3.21686e-16 0)
(3 -2.60652e-17 0)
(3 2.45561e-17 0)
(3 1.0568e-16 0)
(3 -4.07999e-16 0)
(3 -7.57659e-16 0)
(3 4.72605e-16 0)
(3 9.77684e-16 0)
(3 -3.89829e-17 0)
(3 -1.47947e-15 0)
(3 -2.94151e-15 0)
(3 -3.67848e-15 0)
(3 -3.30707e-15 0)
(3 -1.47205e-15 0)
(3 -1.00648e-15 0)
(3 -2.72149e-16 0)
(3 2.14688e-16 0)
(3 4.66562e-16 0)
(3 1.08431e-15 0)
(3 2.85623e-16 0)
(3 -8.78656e-16 0)
(3 -1.4237e-15 0)
(3 -2.10004e-15 0)
(3 -1.18978e-15 0)
(3 -3.37799e-16 0)
(3 1.9906e-16 0)
(3 5.35399e-16 0)
(3 3.84205e-16 0)
(3 -6.70777e-17 0)
(3 -3.78837e-16 0)
(3 -4.74424e-16 0)
(3 -1.5246e-16 0)
(3 2.77455e-16 0)
(3 1.45647e-15 0)
(3 1.51742e-15 0)
(3 1.5971e-15 0)
(3 1.61141e-15 0)
(3 -4.25391e-16 0)
(3 -1.3383e-15 0)
(3 -3.60034e-16 0)
(3 -6.07211e-16 0)
(3 -8.25482e-16 0)
(3 -9.99702e-16 0)
(3 -6.50963e-16 0)
(3 5.64097e-16 0)
(3 6.3338e-16 0)
(3 8.77679e-17 0)
(3 -6.8512e-16 0)
(3 -8.24688e-16 0)
(3 -2.0134e-15 0)
(3 -2.41046e-15 0)
(3 -1.92444e-15 0)
(3 -1.885e-15 0)
(3 -1.75067e-15 0)
(3 -1.29205e-15 0)
(3 -1.39788e-15 0)
(3 -1.45179e-15 0)
(3 -1.70145e-15 0)
(3 -1.74664e-15 0)
(3 -1.37608e-15 0)
(3 -6.1569e-16 0)
(3 3.02086e-16 0)
(3 2.28231e-16 0)
(3 -6.33715e-17 0)
(3 -8.03085e-16 0)
(3 -5.82713e-16 0)
(3 -7.74525e-16 0)
(3 -9.92944e-16 0)
(3 -1.69135e-15 0)
(3 -2.86906e-15 0)
(3 -2.45931e-15 0)
(3 -2.10782e-15 0)
(3 -1.4034e-15 0)
(3 -1.34917e-15 0)
(3 -5.01976e-16 0)
(3 -3.11042e-16 0)
(3 -5.82244e-16 0)
(3 -5.43098e-16 0)
(3 -7.76134e-16 0)
(3 -1.28447e-15 0)
(3 -1.86088e-15 0)
(3 -1.66016e-15 0)
(3 -9.4759e-16 0)
(3 -6.77679e-17 0)
(3 1.34613e-15 0)
(3 1.43208e-15 0)
(3 1.37961e-15 0)
(3 1.84386e-15 0)
(3 1.87594e-15 0)
(3 2.40558e-15 0)
(3 2.32606e-15 0)
(3 1.14815e-15 0)
(3 -8.97332e-17 0)
(3 -6.03276e-16 0)
(3 -2.41604e-16 0)
(3 -5.18503e-16 0)
(3 -1.58534e-15 0)
(3 -1.38783e-15 0)
(3 5.391e-16 0)
(3 1.70465e-15 0)
(3 1.63284e-15 0)
(3 1.17792e-15 0)
(3 1.86832e-15 0)
(3 2.31935e-15 0)
(3 2.19579e-15 0)
(3 6.82522e-16 0)
(3 -4.92648e-16 0)
(3 5.28108e-16 0)
(3 6.63526e-16 0)
(3 1.01715e-15 0)
(3 2.21796e-15 0)
(3 2.79711e-15 0)
(3 2.20566e-15 0)
(3 -1.48101e-16 0)
(3 -7.64709e-16 0)
(3 -1.35896e-17 0)
(3 1.19097e-15 0)
(3 2.16437e-15 0)
(3 2.75422e-15 0)
(3 2.00115e-15 0)
(3 1.05643e-15 0)
(3 1.10279e-15 0)
(3 -7.03531e-17 0)
(3 -1.0411e-15 0)
(3 -1.70794e-15 0)
(3 -1.8413e-15 0)
(3 -1.18033e-15 0)
(3 -1.02488e-15 0)
(3 -1.05871e-15 0)
(3 -1.37588e-15 0)
(3 -1.75613e-15 0)
(3 -1.65479e-15 0)
(3 -1.5376e-15 0)
(3 -7.27025e-16 0)
(3 9.6286e-17 0)
(3 8.52462e-17 0)
(3 3.96828e-16 0)
(3 2.78663e-16 0)
(3 -2.07638e-16 0)
(3 -5.20617e-17 0)
(3 2.0579e-16 0)
(3 5.66923e-16 0)
(3 3.32362e-16 0)
(3 1.27672e-16 0)
(3 -4.9813e-16 0)
(3 -4.05028e-16 0)
(3 -1.22266e-15 0)
(3 -2.07612e-15 0)
(3 -1.47795e-15 0)
(3 -1.1291e-15 0)
(3 -8.71959e-16 0)
(3 -1.28136e-15 0)
(3 -6.72765e-16 0)
(3 -5.01442e-16 0)
(3 -1.69409e-15 0)
(3 -1.37807e-15 0)
(3 -1.49485e-15 0)
(3 -9.32777e-16 0)
(3 -7.64502e-16 0)
(3 -5.20784e-16 0)
(3 -2.98236e-17 0)
(3 4.12604e-16 0)
(3 -9.45092e-17 0)
(3 -6.46283e-16 0)
(3 -4.71424e-16 0)
(3 5.09913e-17 0)
(3 3.32974e-16 0)
(3 1.33448e-15 0)
(3 1.89024e-15 0)
(3 2.28187e-15 0)
(3 1.58028e-15 0)
(3 6.76659e-16 0)
(3 4.26609e-16 0)
(3 6.39773e-16 0)
(3 1.98849e-16 0)
(3 2.95221e-16 0)
(3 1.99133e-16 0)
(3 4.93077e-16 0)
(3 7.50619e-16 0)
(3 7.83167e-16 0)
(3 6.73646e-16 0)
(3 -2.35496e-16 0)
(3 -7.58658e-16 0)
(3 -1.63645e-15 0)
(3 -1.88898e-15 0)
(3 -1.41688e-15 0)
(3 -1.49003e-15 0)
(3 -1.3404e-15 0)
(3 -6.02727e-16 0)
(3 -5.18635e-16 0)
(3 -6.04309e-16 0)
(3 -4.93645e-16 0)
(3 -6.46242e-16 0)
(3 -7.94048e-16 0)
(3 -7.27389e-16 0)
(3 -6.04228e-16 0)
(3 -1.45533e-15 0)
(3 -1.48963e-15 0)
(3 -1.00514e-15 0)
(3 -3.30446e-16 0)
(3 -1.69271e-15 0)
(3 -2.92211e-15 0)
(3 -3.99234e-15 0)
(3 -4.39135e-15 0)
(3 -2.9273e-15 0)
(3 -1.63291e-15 0)
(3 -8.38789e-16 0)
(3 -5.03579e-16 0)
(3 -6.00951e-17 0)
(3 8.26168e-16 0)
(3 7.08685e-16 0)
(3 -8.76936e-17 0)
(3 -9.90747e-16 0)
(3 -3.246e-15 0)
(3 -3.66054e-15 0)
(3 -2.28072e-15 0)
(3 -1.32877e-15 0)
(3 1.15247e-16 0)
(3 1.14519e-15 0)
(3 1.64608e-15 0)
(3 -1.61028e-16 0)
(3 -1.36442e-15 0)
(3 -1.89568e-15 0)
(3 -1.8347e-15 0)
(3 -8.11664e-16 0)
(3 -6.91342e-16 0)
(3 -4.33989e-16 0)
(3 1.12135e-16 0)
(3 2.99742e-16 0)
(3 -2.33686e-16 0)
(3 -7.59114e-16 0)
(3 -1.49205e-15 0)
(3 -1.06592e-15 0)
(3 -1.0621e-15 0)
(3 -3.91408e-16 0)
(3 2.68436e-16 0)
(3 1.6559e-16 0)
(3 -7.24062e-16 0)
(3 -1.6604e-15 0)
(3 -2.25975e-15 0)
(3 -2.2947e-15 0)
(3 -2.39227e-15 0)
(3 -2.37378e-15 0)
(3 -2.35969e-15 0)
(3 -2.76363e-15 0)
(3 -2.47048e-15 0)
(3 -2.30063e-15 0)
(3 -2.14834e-15 0)
(3 -2.30092e-15 0)
(3 -1.87505e-15 0)
(3 -8.56622e-16 0)
(3 -4.50181e-16 0)
(3 -5.56143e-16 0)
(3 -1.10448e-15 0)
(3 -1.56135e-15 0)
(3 -1.44867e-15 0)
(3 -1.0786e-15 0)
(3 -1.58943e-15 0)
(3 -1.51555e-15 0)
(3 -1.72102e-15 0)
(3 -2.16613e-15 0)
(3 -2.17768e-15 0)
(3 -1.70074e-15 0)
(3 -1.07263e-15 0)
(3 -7.90205e-16 0)
(3 -1.64095e-15 0)
(3 -3.07995e-15 0)
(3 -2.73196e-15 0)
(3 -1.49642e-15 0)
(3 -2.21373e-16 0)
(3 3.4807e-16 0)
(3 -4.27333e-16 0)
(3 -1.34535e-15 0)
(3 -1.3991e-15 0)
(3 -1.17563e-15 0)
(3 -1.28463e-15 0)
(3 -1.22903e-15 0)
(3 -4.59672e-16 0)
(3 2.25992e-15 0)
(3 3.32461e-15 0)
(3 2.89828e-15 0)
(3 2.25981e-15 0)
(3 1.79517e-15 0)
(3 9.24854e-16 0)
(3 -7.58322e-16 0)
(3 -1.15409e-15 0)
(3 -1.03503e-15 0)
(3 -6.85579e-16 0)
(3 -1.06937e-15 0)
(3 -1.14191e-15 0)
(3 -3.17122e-16 0)
(3 1.14457e-15 0)
(3 1.54263e-15 0)
(3 -2.22327e-16 0)
(3 -4.49168e-16 0)
(3 -7.59175e-17 0)
(3 -7.69787e-17 0)
(3 5.83217e-16 0)
(3 9.22414e-16 0)
(3 2.32368e-15 0)
(3 2.53009e-15 0)
(3 1.79765e-15 0)
(3 1.67369e-15 0)
(3 1.66693e-15 0)
(3 4.42211e-16 0)
(3 1.9438e-16 0)
(3 -2.34625e-16 0)
(3 -4.12593e-18 0)
(3 1.35464e-15 0)
(3 2.34334e-15 0)
(3 2.0676e-15 0)
(3 1.12029e-15 0)
(3 2.7069e-16 0)
(3 1.19728e-16 0)
(3 -8.4579e-16 0)
(3 -1.46186e-15 0)
(3 -1.89921e-15 0)
(3 -2.20212e-15 0)
(3 -1.74946e-15 0)
(3 -1.74832e-15 0)
(3 -2.36238e-15 0)
(3 -3.27027e-15 0)
(3 -4.57972e-15 0)
(3 -3.93322e-15 0)
(3 -2.28335e-15 0)
(3 -8.475e-16 0)
(3 5.20641e-16 0)
(3 6.14062e-16 0)
(3 -2.56128e-16 0)
(3 -1.0478e-15 0)
(3 -2.08808e-15 0)
(3 -1.0674e-16 0)
(3 -6.736e-17 0)
(3 7.57921e-17 0)
(3 2.05893e-16 0)
(3 4.13724e-16 0)
(3 4.57797e-16 0)
(3 3.47162e-16 0)
(3 -1.00145e-15 0)
(3 -1.54079e-15 0)
(3 -1.599e-15 0)
(3 -1.00369e-15 0)
(3 -5.21383e-16 0)
(3 -9.77553e-16 0)
(3 -1.71571e-15 0)
(3 -2.52453e-15 0)
(3 -1.03209e-15 0)
(3 -4.13136e-16 0)
(3 -3.55566e-16 0)
(3 5.87384e-17 0)
(3 4.47533e-16 0)
(3 3.40405e-16 0)
(3 9.90316e-18 0)
(3 -6.29291e-16 0)
(3 -1.38289e-15 0)
(3 -1.4726e-15 0)
(3 -4.87324e-16 0)
(3 -4.78463e-16 0)
(3 8.58997e-18 0)
(3 2.52285e-16 0)
(3 5.59111e-16 0)
(3 1.66983e-15 0)
(3 1.2611e-15 0)
(3 6.85637e-16 0)
(3 4.42555e-16 0)
(3 3.58806e-16 0)
(3 1.43169e-15 0)
(3 1.82199e-15 0)
(3 1.80579e-15 0)
(3 1.54335e-15 0)
(3 2.47928e-15 0)
(3 1.77077e-15 0)
(3 1.17733e-15 0)
(3 3.14936e-16 0)
(3 -9.89264e-16 0)
(3 -1.63962e-15 0)
(3 -9.56429e-16 0)
(3 -1.07198e-16 0)
(3 -3.31413e-16 0)
(3 -4.68122e-16 0)
(3 -7.31291e-16 0)
(3 -6.88526e-16 0)
(3 -1.75093e-16 0)
(3 7.03402e-16 0)
(3 4.40534e-16 0)
(3 -5.31985e-17 0)
(3 -5.76521e-16 0)
(3 -1.24335e-15 0)
(3 -2.04739e-15 0)
(3 -2.01286e-15 0)
(3 -2.34453e-15 0)
(3 -1.2675e-15 0)
(3 -1.65158e-15 0)
(3 -2.32199e-15 0)
(3 -2.43645e-15 0)
(3 -1.89684e-15 0)
(3 -1.55284e-15 0)
(3 -1.92931e-15 0)
(3 -1.89333e-15 0)
(3 -9.58067e-16 0)
(3 5.49771e-16 0)
(3 1.19682e-15 0)
(3 1.49234e-15 0)
(3 6.65663e-16 0)
(3 -1.04785e-15 0)
(3 -2.44217e-15 0)
(3 -2.18963e-15 0)
(3 -2.06854e-15 0)
(3 -9.74951e-16 0)
(3 2.81958e-16 0)
(3 5.79333e-16 0)
(3 4.48627e-16 0)
(3 -2.11436e-16 0)
(3 -5.8441e-16 0)
(3 -1.06373e-15 0)
(3 -1.27015e-15 0)
(3 -1.31901e-15 0)
(3 -1.47573e-15 0)
(3 -1.07374e-15 0)
(3 -7.54564e-16 0)
(3 -1.29813e-15 0)
(3 -1.41052e-15 0)
(3 -1.41639e-15 0)
(3 -2.09683e-15 0)
(3 -1.53662e-15 0)
(3 -4.30792e-16 0)
(3 -1.00483e-16 0)
(3 -1.43846e-16 0)
(3 -6.74891e-16 0)
(3 -8.51712e-16 0)
(3 -5.17657e-16 0)
(3 -6.4632e-16 0)
(3 -1.08768e-15 0)
(3 -8.36229e-16 0)
(3 -8.57169e-16 0)
(3 -1.36458e-15 0)
(3 -1.52019e-15 0)
(3 -1.23886e-15 0)
(3 -9.92788e-16 0)
(3 -7.64015e-16 0)
(3 -2.1516e-16 0)
(3 -1.82561e-16 0)
(3 4.94336e-16 0)
(3 6.44835e-16 0)
(3 4.40247e-16 0)
(3 -3.91272e-16 0)
(3 -1.42919e-15 0)
(3 -1.68685e-15 0)
(3 -5.61782e-16 0)
(3 -1.06504e-15 0)
(3 -1.02741e-15 0)
(3 -9.03134e-16 0)
(3 -6.26912e-16 0)
(3 4.73725e-16 0)
(3 1.00247e-15 0)
(3 1.1353e-16 0)
(3 -6.44018e-16 0)
(3 -1.59901e-15 0)
(3 -2.47781e-15 0)
(3 -1.43085e-15 0)
(3 3.2156e-16 0)
(3 2.52215e-16 0)
(3 -1.1162e-16 0)
(3 -7.92472e-16 0)
(3 -1.28023e-15 0)
(3 -1.26658e-15 0)
(3 -3.74673e-16 0)
(3 3.35555e-16 0)
(3 9.19834e-16 0)
(3 1.22098e-15 0)
(3 2.45595e-15 0)
(3 2.94155e-15 0)
(3 2.35643e-15 0)
(3 1.9144e-15 0)
(3 2.89024e-16 0)
(3 -1.37289e-16 0)
(3 -1.26194e-16 0)
(3 1.44952e-16 0)
(3 -2.47661e-16 0)
(3 7.67452e-16 0)
(3 1.34365e-15 0)
(3 9.22295e-16 0)
(3 2.47015e-16 0)
(3 -9.70237e-17 0)
(3 -6.67724e-17 0)
(3 -1.32162e-15 0)
(3 -2.95353e-15 0)
(3 -3.26658e-15 0)
(3 -2.47386e-15 0)
(3 -1.10168e-15 0)
(3 5.81878e-16 0)
(3 5.51032e-16 0)
(3 7.96204e-16 0)
(3 -1.84233e-16 0)
(3 -1.13293e-15 0)
(3 -1.23015e-15 0)
(3 -7.88563e-16 0)
(3 3.51488e-16 0)
(3 7.74051e-16 0)
(3 7.2238e-16 0)
(3 4.72719e-16 0)
(3 3.37755e-16 0)
(3 4.42072e-16 0)
(3 -3.11379e-16 0)
(3 -1.45566e-15 0)
(3 -1.37823e-15 0)
(3 -1.63877e-15 0)
(3 -2.04923e-15 0)
(3 -1.66721e-15 0)
(3 -1.3491e-15 0)
(3 -1.14833e-15 0)
(3 -1.74159e-15 0)
(3 -1.75902e-15 0)
(3 -2.39206e-15 0)
(3 -3.43776e-15 0)
(3 -3.52593e-15 0)
(3 -1.20471e-15 0)
(3 -1.03643e-15 0)
(3 -1.35299e-15 0)
(3 -1.14222e-15 0)
(3 -2.14645e-15 0)
(3 -2.17936e-15 0)
(3 -1.10855e-15 0)
(3 -1.36723e-16 0)
(3 -5.9438e-17 0)
(3 -2.02701e-16 0)
(3 -2.78588e-16 0)
(3 -5.69695e-16 0)
(3 -8.35483e-16 0)
(3 -6.74742e-16 0)
(3 -1.02846e-15 0)
(3 -1.35383e-15 0)
(3 -1.53059e-15 0)
(3 -1.39814e-15 0)
(3 -4.32006e-16 0)
(3 -8.69044e-16 0)
(3 -1.90279e-15 0)
(3 -1.27475e-15 0)
(3 1.02309e-15 0)
(3 1.64756e-15 0)
(3 1.53786e-15 0)
(3 1.17901e-15 0)
(3 8.91393e-16 0)
(3 2.58016e-16 0)
(3 2.01768e-17 0)
(3 -2.20963e-16 0)
(3 -1.70118e-15 0)
(3 -1.48725e-15 0)
(3 -1.45469e-15 0)
(3 -1.44817e-15 0)
(3 -1.09567e-15 0)
(3 -1.01324e-15 0)
(3 -6.68083e-16 0)
(3 1.21718e-15 0)
(3 1.27907e-15 0)
(3 3.807e-16 0)
(3 -6.47669e-16 0)
(3 -1.04284e-15 0)
(3 -6.84311e-16 0)
(3 -2.4539e-16 0)
(3 1.03466e-15 0)
(3 2.31642e-15 0)
(3 3.4552e-15 0)
(3 2.83477e-15 0)
(3 2.07559e-15 0)
(3 -7.90787e-17 0)
(3 -1.1471e-15 0)
(3 -1.17842e-15 0)
(3 -8.66034e-16 0)
(3 -9.92814e-16 0)
(3 -1.34616e-15 0)
(3 -1.48501e-15 0)
(3 -1.25811e-15 0)
(3 -2.85267e-16 0)
(3 5.96505e-17 0)
(3 -2.31182e-16 0)
(3 2.3706e-16 0)
(3 1.45798e-15 0)
(3 1.15176e-15 0)
(3 -5.85201e-16 0)
(3 -1.13383e-15 0)
(3 -1.80386e-15 0)
(3 -2.04733e-15 0)
(3 -1.93908e-15 0)
(3 -2.11419e-15 0)
(3 -7.10815e-16 0)
(3 -4.35043e-16 0)
(3 2.08387e-17 0)
(3 -1.92755e-16 0)
(3 -6.71597e-17 0)
(3 -2.05802e-16 0)
(3 -2.23956e-16 0)
(3 6.77941e-16 0)
(3 9.9394e-16 0)
(3 2.79366e-17 0)
(3 -1.23014e-15 0)
(3 -2.82368e-15 0)
(3 -2.6079e-15 0)
(3 -1.71504e-15 0)
(3 -7.91415e-16 0)
(3 -6.13846e-16 0)
(3 -1.8181e-15 0)
(3 -2.67622e-15 0)
(3 -1.6922e-15 0)
(3 -4.57293e-16 0)
(3 1.74636e-16 0)
(3 1.42888e-16 0)
(3 -1.31608e-16 0)
(3 -7.89881e-16 0)
(3 -2.18161e-15 0)
(3 -2.56939e-15 0)
(3 -3.0557e-15 0)
(3 -3.52644e-15 0)
(3 -4.14072e-15 0)
(3 -4.55937e-15 0)
(3 -4.16052e-15 0)
(3 -3.45397e-15 0)
(3 -2.34896e-15 0)
(3 -1.71215e-15 0)
(3 -1.73405e-15 0)
(3 -8.77878e-17 0)
(3 1.28052e-16 0)
(3 -4.19272e-16 0)
(3 1.68532e-17 0)
(3 3.7322e-16 0)
(3 2.72487e-16 0)
(3 -9.12001e-17 0)
(3 -6.67288e-16 0)
(3 -5.57654e-16 0)
(3 -1.05392e-15 0)
(3 -9.03174e-16 0)
(3 -3.77027e-16 0)
(3 -1.11088e-15 0)
(3 -9.81341e-16 0)
(3 -8.53868e-16 0)
(3 -1.01367e-15 0)
(3 -8.98215e-16 0)
(3 -6.6941e-16 0)
(3 -2.03193e-16 0)
(3 7.22329e-16 0)
(3 1.05013e-15 0)
(3 1.27787e-15 0)
(3 7.10719e-16 0)
(3 3.96972e-16 0)
(3 4.592e-16 0)
(3 4.84939e-16 0)
(3 8.14655e-16 0)
(3 8.74604e-16 0)
(3 4.40265e-16 0)
(3 -6.13305e-16 0)
(3 -1.01757e-15 0)
(3 -4.50367e-16 0)
(3 1.65481e-17 0)
(3 3.76368e-16 0)
(3 -5.59121e-16 0)
(3 -7.33313e-16 0)
(3 -9.31535e-16 0)
(3 -1.11313e-15 0)
(3 -3.78496e-16 0)
(3 9.02587e-16 0)
(3 1.36958e-15 0)
(3 1.46314e-15 0)
(3 9.47976e-16 0)
(3 3.21195e-16 0)
(3 -1.28071e-16 0)
(3 4.82471e-16 0)
(3 1.18791e-15 0)
(3 1.61181e-15 0)
(3 2.22655e-15 0)
(3 3.02933e-15 0)
(3 2.60093e-15 0)
(3 9.3454e-16 0)
(3 9.02272e-16 0)
(3 7.83096e-16 0)
(3 -4.2475e-16 0)
(3 -7.86055e-16 0)
(3 -1.70167e-15 0)
(3 -1.98431e-15 0)
(3 -2.90199e-15 0)
(3 -3.10602e-15 0)
(3 -2.20887e-15 0)
(3 -1.18581e-15 0)
(3 -3.69089e-16 0)
(3 8.30332e-16 0)
(3 7.41364e-16 0)
(3 1.22493e-16 0)
(3 -8.00041e-16 0)
(3 -6.5551e-16 0)
(3 6.03457e-16 0)
(3 1.27647e-15 0)
(3 9.29336e-16 0)
(3 1.06316e-15 0)
(3 5.05042e-16 0)
(3 2.80526e-16 0)
(3 4.71259e-16 0)
(3 -3.01355e-16 0)
(3 -1.12193e-15 0)
(3 -1.68865e-15 0)
(3 -2.2329e-15 0)
(3 -2.01571e-15 0)
(3 -1.51505e-15 0)
(3 -8.32877e-16 0)
(3 -1.08083e-15 0)
(3 -1.28277e-15 0)
(3 -1.58585e-15 0)
(3 -1.42458e-15 0)
(3 -1.42388e-15 0)
(3 -1.66793e-15 0)
(3 -1.92435e-15 0)
(3 -2.33097e-15 0)
(3 -2.16876e-15 0)
(3 -2.18691e-15 0)
(3 -1.7432e-15 0)
(3 -9.51046e-16 0)
(3 3.52745e-16 0)
(3 9.71124e-17 0)
(3 3.45165e-16 0)
(3 9.03359e-17 0)
(3 -8.54117e-17 0)
(3 -3.29019e-16 0)
(3 -4.77613e-17 0)
(3 7.88613e-17 0)
(3 -1.77153e-16 0)
(3 -2.97412e-16 0)
(3 -9.97848e-16 0)
(3 -8.93564e-16 0)
(3 -5.44761e-16 0)
(3 -4.25441e-16 0)
(3 -7.9061e-17 0)
(3 8.20909e-16 0)
(3 1.27893e-15 0)
(3 1.93885e-15 0)
(3 2.26786e-15 0)
(3 1.81193e-15 0)
(3 1.85208e-15 0)
(3 2.09943e-15 0)
(3 1.77832e-15 0)
(3 1.46748e-15 0)
(3 9.50925e-16 0)
(3 2.52092e-17 0)
(3 -1.14578e-15 0)
(3 -1.11373e-15 0)
(3 -5.93662e-16 0)
(3 1.53745e-16 0)
(3 6.80942e-16 0)
(3 4.73311e-16 0)
(3 5.32895e-16 0)
(3 1.02609e-17 0)
(3 -1.03392e-15 0)
(3 -1.33362e-15 0)
(3 -9.49373e-16 0)
(3 -6.1341e-16 0)
(3 1.63465e-17 0)
(3 9.49725e-16 0)
(3 1.45158e-15 0)
(3 1.93412e-15 0)
(3 1.0183e-15 0)
(3 -7.5106e-17 0)
(3 6.30649e-16 0)
(3 1.06408e-15 0)
(3 2.84166e-16 0)
(3 -7.68276e-16 0)
(3 -1.02026e-15 0)
(3 -1.06262e-15 0)
(3 -7.36111e-16 0)
(3 -1.52617e-16 0)
(3 -5.65694e-16 0)
(3 -9.86498e-16 0)
(3 -4.91511e-16 0)
(3 -9.54244e-16 0)
(3 -1.16946e-15 0)
(3 -1.1113e-15 0)
(3 -8.21873e-17 0)
(3 -9.46808e-16 0)
(3 -1.11996e-15 0)
(3 -1.34694e-15 0)
(3 -1.23896e-15 0)
(3 6.63411e-17 0)
(3 9.09243e-16 0)
(3 3.52357e-16 0)
(3 3.24079e-16 0)
(3 4.99954e-16 0)
(3 5.41312e-16 0)
(3 -9.59035e-16 0)
(3 -2.24091e-15 0)
(3 -1.72107e-15 0)
(3 -1.54862e-15 0)
(3 -1.52541e-15 0)
(3 -1.76017e-15 0)
(3 -1.42197e-15 0)
(3 -5.31933e-16 0)
(3 7.985e-18 0)
(3 -7.48586e-17 0)
(3 -9.25373e-16 0)
(3 -1.72341e-15 0)
(3 -1.75076e-15 0)
(3 -1.67723e-15 0)
(3 -1.11164e-15 0)
(3 -8.70169e-16 0)
(3 -1.29887e-15 0)
(3 -2.29202e-15 0)
(3 -2.92485e-15 0)
(3 -3.3113e-15 0)
(3 -4.26376e-15 0)
(3 -4.14357e-15 0)
(3 -4.43187e-15 0)
(3 -4.56281e-15 0)
(3 -4.15138e-15 0)
(3 -3.73967e-15 0)
(3 -3.19295e-15 0)
(3 -2.09309e-15 0)
(3 -6.29819e-16 0)
(3 5.88883e-16 0)
(3 5.9842e-16 0)
(3 3.23127e-16 0)
(3 1.15049e-16 0)
(3 -3.39445e-16 0)
(3 -7.37459e-16 0)
(3 -9.75714e-16 0)
(3 -9.10403e-16 0)
(3 -3.68395e-16 0)
(3 -3.42053e-16 0)
(3 -7.04917e-16 0)
(3 -1.77257e-15 0)
(3 -2.12818e-15 0)
(3 -1.08442e-15 0)
(3 -6.01637e-16 0)
(3 -1.17944e-15 0)
(3 -1.36522e-15 0)
(3 -1.41868e-15 0)
(3 4.18427e-17 0)
(3 1.2085e-15 0)
(3 1.39076e-15 0)
(3 1.198e-15 0)
(3 2.56181e-16 0)
(3 -4.74781e-16 0)
(3 -8.62875e-16 0)
(3 -3.30856e-16 0)
(3 -1.05048e-16 0)
(3 3.29706e-16 0)
(3 8.36394e-16 0)
(3 9.78415e-16 0)
(3 1.34187e-15 0)
(3 1.41559e-15 0)
(3 1.20041e-15 0)
(3 9.24991e-16 0)
(3 1.15048e-15 0)
(3 5.04375e-16 0)
(3 1.91292e-16 0)
(3 3.76577e-16 0)
(3 9.64145e-16 0)
(3 1.49798e-15 0)
(3 1.96157e-15 0)
(3 1.87407e-15 0)
(3 1.40104e-15 0)
(3 -6.6714e-16 0)
(3 -1.5378e-15 0)
(3 -1.84025e-15 0)
(3 8.61256e-17 0)
(3 1.19143e-15 0)
(3 2.72532e-15 0)
(3 2.70807e-15 0)
(3 2.57722e-15 0)
(3 1.52483e-15 0)
(3 -1.03079e-16 0)
(3 -2.14167e-15 0)
(3 -2.31589e-15 0)
(3 -1.99318e-15 0)
(3 -1.54753e-15 0)
(3 -1.9339e-15 0)
(3 -2.55633e-15 0)
(3 -2.9334e-15 0)
(3 -2.08493e-15 0)
(3 1.59449e-17 0)
(3 7.09835e-16 0)
(3 8.13924e-16 0)
(3 8.40157e-16 0)
(3 9.18711e-16 0)
(3 1.5794e-15 0)
(3 2.00381e-15 0)
(3 2.15566e-15 0)
(3 1.79009e-15 0)
(3 2.66944e-16 0)
(3 9.22059e-16 0)
(3 1.51336e-15 0)
(3 1.0281e-15 0)
(3 6.44072e-16 0)
(3 1.63669e-16 0)
(3 -2.41805e-16 0)
(3 -3.0629e-16 0)
(3 -2.41655e-16 0)
(3 6.13696e-17 0)
(3 -3.16709e-16 0)
(3 -4.94081e-16 0)
(3 -1.11807e-15 0)
(3 -1.43509e-15 0)
(3 -1.06371e-15 0)
(3 -8.36214e-16 0)
(3 -6.95266e-16 0)
(3 -1.09995e-15 0)
(3 -2.15091e-15 0)
(3 -2.01356e-15 0)
(3 -1.62964e-15 0)
(3 -2.12707e-15 0)
(3 -2.24013e-15 0)
(3 -1.02416e-15 0)
(3 2.01353e-15 0)
(3 -4.60613e-17 0)
(3 3.54171e-16 0)
(3 -2.08731e-16 0)
(3 -3.17659e-16 0)
(3 -1.75098e-16 0)
(3 5.87784e-16 0)
(3 4.96657e-16 0)
(3 3.04538e-17 0)
(3 -2.81944e-16 0)
(3 -4.76402e-16 0)
(3 -2.38204e-17 0)
(3 1.25969e-16 0)
(3 4.89439e-16 0)
(3 1.92504e-15 0)
(3 1.90774e-15 0)
(3 1.24707e-15 0)
(3 6.61827e-16 0)
(3 2.08844e-15 0)
(3 3.49124e-15 0)
(3 3.20821e-15 0)
(3 3.33106e-15 0)
(3 2.76639e-15 0)
(3 1.85941e-15 0)
(3 1.45715e-15 0)
(3 8.1684e-16 0)
(3 2.17928e-16 0)
(3 -1.638e-17 0)
(3 -1.05613e-16 0)
(3 5.1412e-16 0)
(3 7.40828e-16 0)
(3 -4.68748e-17 0)
(3 -3.83133e-16 0)
(3 -2.43296e-16 0)
(3 -6.48092e-16 0)
(3 -1.15696e-15 0)
(3 -1.03038e-15 0)
(3 -9.43336e-16 0)
(3 -7.66748e-16 0)
(3 -4.33383e-16 0)
(3 -3.92999e-16 0)
(3 -4.12215e-16 0)
(3 -2.46227e-17 0)
(3 1.04293e-15 0)
(3 9.57639e-16 0)
(3 1.09446e-15 0)
(3 2.70215e-16 0)
(3 -3.81933e-17 0)
(3 -7.74744e-17 0)
(3 2.6061e-16 0)
(3 -2.57677e-16 0)
(3 -1.48513e-15 0)
(3 -1.95608e-15 0)
(3 -2.61775e-15 0)
(3 -2.88799e-15 0)
(3 -3.10298e-15 0)
(3 -2.31822e-15 0)
(3 -1.46487e-15 0)
(3 -9.94066e-16 0)
(3 -5.93235e-16 0)
(3 -7.67044e-17 0)
(3 -2.78999e-17 0)
(3 5.50271e-16 0)
(3 1.21502e-15 0)
(3 1.78133e-15 0)
(3 1.38115e-15 0)
(3 -4.19377e-17 0)
(3 -5.16815e-16 0)
(3 -9.89904e-16 0)
(3 -2.13667e-15 0)
(3 -4.03965e-15 0)
(3 -3.59406e-15 0)
(3 -3.05132e-15 0)
(3 -1.43339e-15 0)
(3 -9.07944e-16 0)
(3 1.48455e-16 0)
(3 2.3849e-16 0)
(3 1.28723e-17 0)
(3 -2.41297e-16 0)
(3 4.43723e-16 0)
(3 5.56329e-16 0)
(3 -3.00937e-16 0)
(3 -2.56398e-16 0)
(3 -2.99864e-17 0)
(3 -9.25198e-16 0)
(3 -1.56368e-15 0)
(3 -2.05039e-15 0)
(3 -2.42218e-15 0)
(3 -2.78932e-15 0)
(3 -2.74522e-15 0)
(3 -2.53819e-15 0)
(3 -2.38024e-15 0)
(3 -2.23667e-15 0)
(3 -2.39363e-15 0)
(3 -1.18961e-15 0)
(3 -4.29462e-16 0)
(3 -2.81667e-16 0)
(3 4.52884e-16 0)
(3 -2.32475e-16 0)
(3 -1.35735e-15 0)
(3 -1.23695e-15 0)
(3 -1.31242e-15 0)
(3 -1.22872e-15 0)
(3 -1.38753e-15 0)
(3 -6.99888e-16 0)
(3 -5.34652e-16 0)
(3 -6.29033e-16 0)
(3 6.78375e-16 0)
(3 1.50186e-15 0)
(3 6.1572e-16 0)
(3 2.82783e-16 0)
(3 -8.54843e-17 0)
(3 -6.28774e-16 0)
(3 -1.70156e-16 0)
(3 -2.75231e-17 0)
(3 4.68863e-16 0)
(3 1.27481e-15 0)
(3 9.53938e-17 0)
(3 -3.3972e-16 0)
(3 -5.30494e-16 0)
(3 -3.1745e-16 0)
(3 -7.08062e-16 0)
(3 -7.63676e-16 0)
(3 3.03215e-16 0)
(3 6.35136e-16 0)
(3 3.09299e-16 0)
(3 4.38266e-16 0)
(3 1.54857e-15 0)
(3 1.59543e-15 0)
(3 1.37238e-15 0)
(3 1.40817e-15 0)
(3 9.47381e-16 0)
(3 -2.44046e-16 0)
(3 -6.31412e-16 0)
(3 -2.91347e-16 0)
(3 2.54388e-16 0)
(3 9.92929e-16 0)
(3 1.12215e-15 0)
(3 1.40323e-15 0)
(3 1.75387e-15 0)
(3 1.33929e-15 0)
(3 -2.98195e-16 0)
(3 -1.16278e-15 0)
(3 -1.53489e-15 0)
(3 -1.07975e-15 0)
(3 1.30674e-15 0)
(3 2.54042e-15 0)
(3 2.04176e-15 0)
(3 2.63956e-15 0)
(3 3.22845e-15 0)
(3 2.25688e-15 0)
(3 -7.53141e-16 0)
(3 -2.44545e-15 0)
(3 -2.78448e-15 0)
(3 -1.88924e-15 0)
(3 -1.84556e-15 0)
(3 -2.09569e-15 0)
(3 -2.97973e-15 0)
(3 -2.2176e-15 0)
(3 -7.84204e-16 0)
(3 -3.94464e-17 0)
(3 1.11009e-15 0)
(3 7.77037e-16 0)
(3 1.13778e-15 0)
(3 2.17558e-15 0)
(3 3.01625e-15 0)
(3 1.94235e-15 0)
(3 1.51917e-15 0)
(3 1.39505e-15 0)
(3 1.97315e-15 0)
(3 2.85118e-15 0)
(3 1.72455e-15 0)
(3 7.85824e-16 0)
(3 -2.64726e-16 0)
(3 -6.41352e-16 0)
(3 1.33433e-17 0)
(3 7.94109e-16 0)
(3 7.91444e-16 0)
(3 9.77635e-16 0)
(3 2.73491e-16 0)
(3 -4.06747e-16 0)
(3 -6.71942e-16 0)
(3 -1.74731e-16 0)
(3 6.0663e-17 0)
(3 -7.50245e-17 0)
(3 -6.04449e-16 0)
(3 -1.59054e-15 0)
(3 -1.34725e-15 0)
(3 -1.80854e-15 0)
(3 -2.19104e-15 0)
(3 -2.55653e-15 0)
(3 -4.50157e-16 0)
(3 1.86825e-15 0)
(3 2.57645e-17 0)
(3 2.61554e-16 0)
(3 6.06023e-16 0)
(3 9.34098e-16 0)
(3 9.3889e-16 0)
(3 8.81165e-16 0)
(3 4.19004e-16 0)
(3 -5.80698e-16 0)
(3 -4.65787e-16 0)
(3 -4.61955e-17 0)
(3 -1.35208e-17 0)
(3 -3.06965e-16 0)
(3 6.71348e-16 0)
(3 1.09556e-15 0)
(3 8.98546e-16 0)
(3 4.66475e-16 0)
(3 2.98193e-16 0)
(3 7.07954e-16 0)
(3 1.1397e-15 0)
(3 1.11018e-15 0)
(3 8.89299e-16 0)
(3 9.71747e-16 0)
(3 5.95022e-16 0)
(3 -6.63411e-16 0)
(3 -4.85082e-16 0)
(3 -2.88366e-17 0)
(3 -1.16617e-16 0)
(3 -2.46361e-16 0)
(3 -4.07978e-16 0)
(3 -9.92643e-16 0)
(3 -1.30448e-15 0)
(3 -1.58979e-15 0)
(3 -1.32683e-15 0)
(3 -1.03525e-15 0)
(3 -8.20621e-16 0)
(3 -1.3921e-15 0)
(3 -1.64784e-15 0)
(3 -1.21039e-15 0)
(3 -1.45887e-15 0)
(3 -7.1246e-16 0)
(3 -1.08499e-16 0)
(3 5.27678e-16 0)
(3 1.41383e-15 0)
(3 1.33784e-15 0)
(3 4.65923e-16 0)
(3 -1.42349e-16 0)
(3 -2.75562e-16 0)
(3 4.62447e-16 0)
(3 4.53148e-16 0)
(3 1.45288e-16 0)
(3 -2.14704e-16 0)
(3 -8.21967e-16 0)
(3 -2.02087e-15 0)
(3 -2.53817e-15 0)
(3 -1.97616e-15 0)
(3 -1.71322e-15 0)
(3 -1.56827e-15 0)
(3 -2.2513e-15 0)
(3 -2.2145e-15 0)
(3 -1.8421e-15 0)
(3 -1.18445e-15 0)
(3 4.38359e-16 0)
(3 1.22847e-15 0)
(3 2.53548e-15 0)
(3 3.04713e-15 0)
(3 6.48309e-16 0)
(3 -1.39257e-15 0)
(3 -2.50695e-15 0)
(3 -2.43984e-15 0)
(3 -2.46344e-15 0)
(3 -2.67369e-15 0)
(3 -2.23619e-15 0)
(3 -1.01183e-15 0)
(3 -3.86869e-16 0)
(3 6.589e-16 0)
(3 5.32329e-16 0)
(3 -5.0519e-16 0)
(3 -6.58192e-16 0)
(3 -4.32173e-16 0)
(3 1.02563e-15 0)
(3 1.04096e-15 0)
(3 1.67678e-15 0)
(3 7.18674e-16 0)
(3 -3.96144e-16 0)
(3 -1.25881e-15 0)
(3 -1.99747e-15 0)
(3 -2.7462e-15 0)
(3 -2.6602e-15 0)
(3 -2.0395e-15 0)
(3 -1.26691e-15 0)
(3 -5.89704e-16 0)
(3 3.77533e-16 0)
(3 3.70567e-16 0)
(3 6.00555e-16 0)
(3 1.45091e-15 0)
(3 1.44042e-15 0)
(3 8.46585e-16 0)
(3 -5.11864e-16 0)
(3 -5.59269e-16 0)
(3 -4.1219e-16 0)
(3 -1.6012e-17 0)
(3 4.67948e-16 0)
(3 5.51946e-16 0)
(3 7.62026e-16 0)
(3 8.69325e-16 0)
(3 1.43943e-15 0)
(3 2.30984e-15 0)
(3 2.46517e-15 0)
(3 1.53552e-15 0)
(3 1.45748e-15 0)
(3 6.55182e-16 0)
(3 1.24555e-16 0)
(3 3.61049e-16 0)
(3 3.64327e-16 0)
(3 6.94549e-16 0)
(3 1.07881e-15 0)
(3 8.70095e-16 0)
(3 1.76308e-16 0)
(3 -9.30337e-17 0)
(3 9.52281e-17 0)
(3 1.65995e-16 0)
(3 3.07305e-16 0)
(3 -1.23835e-16 0)
(3 3.30008e-16 0)
(3 6.73628e-16 0)
(3 1.21044e-15 0)
(3 1.99431e-15 0)
(3 -4.49162e-16 0)
(3 -1.11109e-15 0)
(3 -1.44814e-15 0)
(3 -1.7555e-15 0)
(3 -2.05516e-15 0)
(3 -1.94474e-15 0)
(3 -1.22371e-15 0)
(3 -5.55734e-16 0)
(3 -5.49524e-16 0)
(3 -3.86457e-16 0)
(3 -1.37027e-16 0)
(3 1.78003e-16 0)
(3 -2.46772e-16 0)
(3 -7.21248e-16 0)
(3 -6.17467e-16 0)
(3 -2.38725e-16 0)
(3 9.24894e-16 0)
(3 1.75697e-15 0)
(3 2.30122e-15 0)
(3 1.66501e-15 0)
(3 1.79375e-15 0)
(3 3.39857e-15 0)
(3 2.64972e-15 0)
(3 9.74897e-16 0)
(3 -9.91651e-16 0)
(3 -2.30453e-15 0)
(3 -3.08704e-15 0)
(3 -2.96548e-15 0)
(3 -1.86137e-15 0)
(3 -1.77774e-15 0)
(3 -2.52493e-15 0)
(3 -1.39242e-15 0)
(3 -7.49221e-16 0)
(3 -3.10763e-16 0)
(3 2.73418e-16 0)
(3 9.54705e-16 0)
(3 1.2916e-15 0)
(3 1.73671e-15 0)
(3 1.37401e-15 0)
(3 1.33368e-15 0)
(3 2.58851e-15 0)
(3 2.5408e-15 0)
(3 2.10418e-15 0)
(3 1.56745e-15 0)
(3 1.04885e-15 0)
(3 2.04076e-17 0)
(3 -2.70749e-16 0)
(3 -4.71156e-16 0)
(3 -3.98589e-16 0)
(3 -6.72385e-16 0)