/*--------------------------------*- C++ -*----------------------------------*\
  =========                 |
  \\      /  F ield         | OpenFOAM: The Open Source CFD Toolbox
   \\    /   O peration     | Website:  https://openfoam.org
    \\  /    A nd           | Version:  7
     \\/     M anipulation  |
\*---------------------------------------------------------------------------*/
FoamFile
{
    version     2.0;
    format      ascii;
    class       volScalarField;
    location    "1.9";
    object      p;
}
// * * * * * * * * * * * * * * * * * * * * * * * * * * * * * * * * * * * * * //

dimensions      [1 -1 -2 0 0 0 0];

internalField   nonuniform List<scalar> 
16192
(
1.42227
1.41831
1.40474
1.3726
1.32522
1.30191
1.29724
1.29705
1.30086
1.31141
1.32431
1.33074
1.3303
1.32813
1.32601
1.3242
1.32155
1.31321
1.29495
1.2753
1.26897
1.26871
1.27093
1.28095
1.29621
1.30078
1.29981
1.29835
1.29618
1.29036
1.27692
1.26246
1.25923
1.25872
1.26115
1.27042
1.27424
1.27243
1.26747
1.25418
1.22874
1.21285
1.21039
1.21004
1.21464
1.22929
1.24089
1.24321
1.24333
1.24014
1.23557
1.23734
1.24475
1.25886
1.2767
1.29184
1.2953
1.29546
1.29189
1.28686
1.28619
1.28682
1.289
1.28847
1.28659
1.28398
1.27996
1.27454
1.26799
1.2626
1.26056
1.25912
1.25803
1.25717
1.25569
1.25206
1.24555
1.23916
1.23672
1.23577
1.23517
1.23691
1.26595
1.42758
2.02278
2.89047
3.23586
3.36799
3.39104
3.3868
3.37273
3.36762
3.36398
3.3509
3.34578
3.33813
3.32169
3.31037
3.29551
3.28388
3.27649
3.27125
3.26341
3.24716
3.23598
3.22749
3.2153
3.20136
3.18777
3.17498
3.16457
3.15646
3.1498
3.14369
3.13813
3.13089
3.12141
3.1121
3.10436
3.09902
3.09335
3.09471
3.10661
3.13064
3.17184
3.2105
3.21637
3.21242
3.20001
3.18971
3.18362
3.17303
3.161
3.14974
3.13821
3.12492
3.10517
3.07789
3.05673
3.04525
3.03561
3.02585
3.01603
3.00652
2.998
2.99051
2.98105
2.96567
2.94885
2.93839
2.93164
2.92603
2.92118
2.91539
2.90747
2.89922
2.8926
2.8871
2.87964
2.87063
2.86797
2.87562
2.90292
2.93458
2.97042
2.99333
2.9984
2.99435
2.985
2.96763
2.94592
2.92329
2.9027
2.89035
2.88187
2.87429
2.86724
2.85975
2.85145
2.84246
2.83217
2.81965
2.80176
2.78027
2.76543
2.75755
2.75157
2.74722
2.74531
2.74315
2.73736
2.73
2.72058
2.7032
2.67775
2.66238
2.65449
2.64787
2.642
2.63551
2.62679
2.61663
2.60914
2.6029
2.59785
2.59462
2.5946
2.59378
2.58827
2.5816
2.5738
2.56078
2.53902
2.51497
2.49814
2.48926
2.4836
2.47761
2.47138
2.46493
2.45755
2.44857
2.4409
2.4364
2.43243
2.43104
2.43196
2.42596
2.41781
2.40715
2.39286
2.38483
2.38119
2.37855
2.37691
2.37657
2.37694
2.37488
2.3695
2.35952
2.34212
2.32428
2.31149
2.30285
2.29718
2.2934
2.29217
2.29315
2.29395
2.29418
2.29427
2.29417
2.29407
1.43574
1.42241
1.38975
1.34004
1.31505
1.30996
1.30952
1.31398
1.32571
1.33841
1.34383
1.34319
1.34103
1.33889
1.3369
1.33369
1.32381
1.30376
1.28242
1.27497
1.27444
1.27633
1.28558
1.30073
1.30628
1.30546
1.30402
1.30219
1.29815
1.28762
1.27271
1.26706
1.2666
1.26818
1.27679
1.2824
1.28105
1.27665
1.26489
1.24042
1.22152
1.2178
1.21734
1.22082
1.23442
1.24541
1.24673
1.24604
1.24206
1.2329
1.23024
1.23225
1.23699
1.24836
1.26454
1.27804
1.28657
1.2894
1.28838
1.28797
1.29016
1.29458
1.29523
1.29329
1.29009
1.28567
1.27933
1.27255
1.2683
1.26669
1.26552
1.26406
1.26263
1.2601
1.25565
1.24876
1.24223
1.24001
1.23934
1.23916
1.24273
1.30603
1.61789
2.18818
3.05929
3.34472
3.40319
3.40911
3.38222
3.37172
3.37684
3.37215
3.37158
3.36101
3.34645
3.34117
3.32503
3.30651
3.29484
3.28321
3.27738
3.27288
3.26716
3.25342
3.23672
3.22124
3.20542
3.19563
3.18821
3.17892
3.17037
3.16072
3.15104
3.14224
3.13379
3.12549
3.11705
3.10874
3.10215
3.09868
3.09641
3.09243
3.09211
3.10222
3.12632
3.16515
3.19184
3.19848
3.196
3.19394
3.19145
3.18056
3.16505
3.14918
3.13167
3.11292
3.09434
3.07561
3.06092
3.0494
3.03828
3.02718
3.01618
3.00531
2.99468
2.98483
2.97552
2.96561
2.95268
2.94078
2.93306
2.92671
2.9198
2.91157
2.90234
2.8924
2.88202
2.87189
2.86451
2.8624
2.86096
2.86058
2.87191
2.89852
2.93082
2.96897
2.98698
2.98708
2.9816
2.97048
2.95199
2.93333
2.9147
2.89935
2.88955
2.88175
2.8735
2.86405
2.85371
2.84275
2.82922
2.81129
2.79349
2.77937
2.77
2.76246
2.756
2.75075
2.74741
2.74242
2.73465
2.72659
2.71578
2.69753
2.67679
2.66427
2.65519
2.64688
2.63926
2.63168
2.62297
2.61372
2.60683
2.60152
2.59675
2.59323
2.59309
2.58916
2.58166
2.57448
2.56649
2.55452
2.53999
2.52679
2.51311
2.49725
2.48283
2.47321
2.46658
2.45992
2.45068
2.4406
2.43504
2.43082
2.42746
2.42706
2.42444
2.4177
2.41071
2.40194
2.38977
2.38148
2.37758
2.37527
2.37497
2.37667
2.37571
2.37148
2.36466
2.35363
2.33903
2.32684
2.31683
2.30588
2.295
2.28642
2.28004
2.2774
2.27525
2.27319
2.27193
2.27157
2.2736
1.44085
1.40775
1.35608
1.32958
1.3241
1.3233
1.32773
1.34102
1.35269
1.35792
1.35769
1.35594
1.35407
1.35193
1.34757
1.33531
1.31289
1.29036
1.28214
1.2813
1.28276
1.29118
1.30574
1.31175
1.31107
1.30968
1.3081
1.30526
1.29732
1.2833
1.27496
1.27426
1.27518
1.28272
1.29018
1.28956
1.28596
1.27564
1.2524
1.23067
1.22543
1.22491
1.22779
1.24109
1.25302
1.2539
1.25247
1.24723
1.23585
1.22793
1.22793
1.23029
1.23482
1.24131
1.25108
1.26068
1.27088
1.27985
1.28504
1.28963
1.29564
1.29841
1.29782
1.29541
1.29126
1.28591
1.27955
1.27516
1.27312
1.2719
1.27049
1.26852
1.2647
1.25923
1.25197
1.24566
1.24332
1.24306
1.24362
1.25133
1.33623
1.82354
2.55834
3.0896
3.42852
3.44343
3.4227
3.41433
3.39117
3.37037
3.37826
3.37477
3.36579
3.36089
3.34576
3.33211
3.3213
3.31174
3.2983
3.2885
3.28188
3.27433
3.26384
3.25078
3.23477
3.21826
3.20415
3.194
3.18678
3.18013
3.1742
3.16462
3.15191
3.14034
3.12998
3.12021
3.112
3.10487
3.10006
3.09728
3.09569
3.09377
3.08882
3.08426
3.09319
3.11875
3.14929
3.17447
3.18805
3.19515
3.19619
3.18796
3.17222
3.15258
3.13054
3.10676
3.08577
3.07161
3.06117
3.05027
3.03975
3.02982
3.01968
3.00863
2.99657
2.98444
2.97276
2.96087
2.94999
2.9413
2.93433
2.92748
2.91952
2.91053
2.90065
2.88897
2.87483
2.86014
2.85216
2.84965
2.85155
2.85081
2.8538
2.86631
2.89055
2.92568
2.96492
2.97486
2.9742
2.96902
2.95652
2.94198
2.92668
2.91188
2.90181
2.89264
2.88175
2.86988
2.85674
2.84095
2.82073
2.79786
2.7827
2.77493
2.7689
2.76411
2.76029
2.7565
2.75083
2.74305
2.73303
2.71974
2.70452
2.68918
2.68032
2.67242
2.66283
2.65148
2.63868
2.62595
2.61611
2.60989
2.60409
2.59898
2.5957
2.59345
2.58936
2.58269
2.5753
2.56711
2.55659
2.54551
2.53809
2.53282
2.52598
2.51457
2.49596
2.47423
2.46034
2.45182
2.44418
2.43787
2.43222
2.42735
2.42346
2.41985
2.4152
2.40899
2.40222
2.39529
2.38803
2.38148
2.37677
2.37307
2.36985
2.36643
2.36294
2.35888
2.35324
2.34432
2.33695
2.33092
2.32374
2.31457
2.30179
2.28667
2.27365
2.26231
2.25426
2.25099
2.24944
2.24894
2.25212
1.42721
1.37347
1.34483
1.339
1.33796
1.34228
1.35716
1.36857
1.3723
1.37334
1.37246
1.37095
1.36877
1.36318
1.34821
1.32263
1.29928
1.29085
1.28974
1.29072
1.29819
1.31168
1.3177
1.31703
1.31566
1.31424
1.31207
1.30633
1.29391
1.28325
1.28187
1.28221
1.28837
1.29715
1.29759
1.29486
1.28606
1.26483
1.24059
1.23323
1.23255
1.23473
1.24752
1.26164
1.26319
1.26152
1.25609
1.24292
1.23003
1.22749
1.22785
1.23087
1.23469
1.23719
1.24122
1.24752
1.25606
1.26795
1.28018
1.29101
1.29664
1.29774
1.29739
1.29524
1.29135
1.2871
1.28437
1.28194
1.27904
1.27646
1.27381
1.26928
1.26318
1.25545
1.24925
1.24697
1.24695
1.24889
1.27017
1.40217
1.94098
2.86112
3.25669
3.40446
3.4393
3.43371
3.42457
3.4196
3.41404
3.39618
3.38984
3.38388
3.36254
3.35323
3.34316
3.32969
3.32092
3.31315
3.30443
3.29049
3.28069
3.27165
3.25813
3.24163
3.23121
3.21924
3.20678
3.19639
3.18729
3.17961
3.17326
3.16564
3.15415
3.13914
3.12573
3.11593
3.10816
3.10152
3.09687
3.09437
3.09183
3.08853
3.08464
3.07584
3.07208
3.08425
3.11141
3.14079
3.17064
3.18964
3.19351
3.18811
3.17559
3.15656
3.13189
3.10576
3.08493
3.07108
3.05841
3.04725
3.03883
3.03075
3.02171
3.01167
3.00093
2.98813
2.97286
2.95584
2.9447
2.9377
2.93167
2.92589
2.9184
2.90984
2.90059
2.88877
2.87068
2.85195
2.84264
2.83721
2.83611
2.83919
2.84094
2.84853
2.85992
2.88229
2.92236
2.95189
2.96094
2.96165
2.95654
2.94838
2.93877
2.92622
2.91444
2.9024
2.88907
2.87474
2.85771
2.83461
2.81093
2.79456
2.78199
2.77289
2.76717
2.76394
2.76206
2.75774
2.75038
2.74172
2.72949
2.70881
2.6919
2.68538
2.68015
2.67423
2.66682
2.6575
2.64364
2.6258
2.61234
2.60439
2.59849
2.59377
2.59216
2.59035
2.58335
2.5764
2.56993
2.55883
2.54587
2.53942
2.53516
2.5323
2.52839
2.52197
2.51108
2.48971
2.45966
2.44447
2.4395
2.43572
2.43164
2.42617
2.41928
2.41285
2.40714
2.40157
2.39583
2.39023
2.38617
2.38275
2.37892
2.37391
2.36712
2.35895
2.35048
2.34291
2.33781
2.33477
2.3342
2.33104
2.32535
2.31932
2.31108
2.29541
2.27141
2.24908
2.23617
2.23114
2.22898
2.22795
2.23122
1.39274
1.36082
1.35424
1.35314
1.35729
1.37383
1.38645
1.38871
1.38936
1.3898
1.38873
1.38644
1.37936
1.36172
1.3335
1.30991
1.30143
1.30017
1.30085
1.3071
1.31874
1.32441
1.32373
1.32238
1.32101
1.31919
1.3151
1.30438
1.29225
1.28955
1.28954
1.29407
1.30329
1.30501
1.303
1.29596
1.27706
1.25104
1.24114
1.24018
1.2417
1.25343
1.26986
1.27298
1.2715
1.26673
1.25386
1.23705
1.23095
1.2305
1.23093
1.2332
1.23418
1.23466
1.23672
1.24095
1.24731
1.25777
1.27332
1.28813
1.29371
1.29527
1.29556
1.29426
1.29278
1.2919
1.29052
1.28801
1.28436
1.27949
1.27382
1.26727
1.25961
1.25374
1.25126
1.25122
1.25465
1.30344
1.57509
2.11495
3.01755
3.41215
3.45338
3.4548
3.42285
3.40781
3.42191
3.42469
3.42448
3.40735
3.38631
3.38195
3.36965
3.35443
3.34516
3.33255
3.32167
3.31535
3.30878
3.29476
3.27828
3.26308
3.24758
3.23404
3.22666
3.22014
3.21037
3.19899
3.1876
3.17709
3.16953
3.16248
3.15343
3.1408
3.12514
3.11327
3.10548
3.09922
3.09452
3.09036
3.08695
3.08236
3.07756
3.06964
3.06029
3.06151
3.0788
3.10861
3.14307
3.17745
3.18529
3.18294
3.17385
3.15798
3.13403
3.10837
3.09085
3.07666
3.06209
3.04802
3.03831
3.03044
3.02185
3.01166
3.00128
2.9886
2.97106
2.95458
2.94403
2.93579
2.92928
2.92326
2.91533
2.90639
2.8968
2.88477
2.86752
2.85131
2.84119
2.83295
2.8274
2.82806
2.82953
2.83342
2.84005
2.85039
2.87501
2.9124
2.93568
2.94667
2.94993
2.94925
2.94798
2.9401
2.92694
2.91163
2.89585
2.8783
2.85502
2.82663
2.80815
2.79878
2.78891
2.77945
2.77327
2.76932
2.76393
2.7565
2.74829
2.73734
2.71893
2.69887
2.68886
2.68377
2.67997
2.67447
2.66698
2.65822
2.64666
2.63263
2.61916
2.60761
2.59899
2.59285
2.58804
2.58271
2.57754
2.57049
2.56022
2.54764
2.53971
2.53523
2.53219
2.5304
2.52656
2.52124
2.51371
2.50003
2.47515
2.44925
2.43749
2.43288
2.42927
2.42425
2.41672
2.40721
2.40023
2.39507
2.39096
2.38697
2.38288
2.37989
2.37691
2.37291
2.36502
2.35155
2.33781
2.33068
2.32664
2.32361
2.32563
2.32928
2.3257
2.32081
2.3141
2.29928
2.26969
2.24106
2.22717
2.21967
2.21592
2.21473
2.21708
1.37753
1.3698
1.3687
1.3725
1.39062
1.40588
1.40709
1.40677
1.40748
1.40667
1.40409
1.39528
1.37525
1.3449
1.32187
1.31395
1.3127
1.31331
1.3185
1.32741
1.33198
1.33136
1.3301
1.32876
1.32708
1.32383
1.31486
1.30219
1.29762
1.29737
1.30036
1.30905
1.31187
1.31034
1.30478
1.28851
1.26176
1.24917
1.24776
1.24868
1.25913
1.27735
1.28263
1.28148
1.27752
1.26581
1.24759
1.23842
1.23692
1.23594
1.23568
1.23537
1.2341
1.23302
1.23409
1.23748
1.24336
1.25196
1.26602
1.28226
1.28904
1.29149
1.29304
1.29435
1.29628
1.29665
1.295
1.29159
1.28682
1.27998
1.27191
1.26425
1.25836
1.25636
1.25655
1.26269
1.3309
1.76092
2.50457
3.07182
3.47369
3.52007
3.50046
3.46544
3.43511
3.40916
3.40866
3.41793
3.41193
3.40669
3.38942
3.37493
3.36703
3.35978
3.3484
3.33815
3.32764
3.31965
3.30987
3.29313
3.27371
3.25545
3.23947
3.229
3.22267
3.21848
3.21208
3.20174
3.189
3.17529
3.16398
3.1559
3.14821
3.13865
3.12732
3.11647
3.10908
3.10349
3.09479
3.08393
3.07556
3.06881
3.06358
3.06022
3.05712
3.05485
3.06054
3.0807
3.11134
3.14671
3.16741
3.16819
3.16389
3.15357
3.13548
3.11506
3.09986
3.08469
3.06979
3.05535
3.04279
3.03227
3.02139
3.00939
2.9959
2.98307
2.9694
2.95793
2.94919
2.94191
2.9344
2.92515
2.91455
2.90295
2.88989
2.87557
2.86099
2.85073
2.84273
2.83566
2.82992
2.8286
2.82643
2.82312
2.8235
2.82516
2.83528
2.86369
2.89515
2.91817
2.93383
2.9443
2.95088
2.94761
2.93633
2.91879
2.89827
2.87563
2.84767
2.82283
2.81077
2.80241
2.79603
2.79084
2.78378
2.77522
2.76584
2.75541
2.74198
2.72367
2.70463
2.69519
2.69002
2.68561
2.67944
2.67151
2.66264
2.65311
2.64338
2.63424
2.62688
2.62026
2.61215
2.60116
2.58804
2.57545
2.56409
2.55407
2.54393
2.53814
2.53389
2.53115
2.53057
2.52643
2.52114
2.51612
2.50999
2.5004
2.4864
2.46759
2.4463
2.43128
2.42421
2.41905
2.41283
2.40451
2.39743
2.39216
2.38867
2.38622
2.38101
2.37564
2.371
2.36529
2.35535
2.33949
2.32764
2.32237
2.31839
2.31604
2.31851
2.32528
2.3225
2.31656
2.30906
2.29505
2.27136
2.24486
2.22656
2.2161
2.21033
2.20823
2.21003
1.38574
1.38469
1.38807
1.40656
1.42586
1.42698
1.42549
1.42551
1.42459
1.42126
1.41025
1.38835
1.35771
1.33587
1.32817
1.32697
1.32779
1.33236
1.33794
1.34058
1.34004
1.33898
1.33774
1.33607
1.33324
1.32573
1.31285
1.30635
1.30585
1.30766
1.31516
1.31865
1.31735
1.31283
1.29893
1.27259
1.25725
1.25501
1.25553
1.26457
1.28409
1.2922
1.29134
1.28801
1.27783
1.2593
1.24755
1.24571
1.24433
1.24248
1.24081
1.23853
1.23481
1.23314
1.23366
1.23616
1.24129
1.24847
1.25864
1.27125
1.27979
1.28523
1.29125
1.29668
1.29838
1.29826
1.29652
1.29199
1.28589
1.27871
1.27012
1.26346
1.26143
1.2628
1.28027
1.3947
1.87743
2.81302
3.25907
3.46085
3.5185
3.50863
3.49554
3.47587
3.45485
3.43614
3.41902
3.42012
3.4131
3.40205
3.3933
3.37672
3.3652
3.35487
3.34865
3.33944
3.33079
3.32204
3.30796
3.28646
3.26758
3.25288
3.23972
3.22854
3.22147
3.21691
3.21113
3.20246
3.19041
3.17448
3.1593
3.14937
3.14138
3.13353
3.12684
3.12203
3.11624
3.10755
3.09599
3.08214
3.06755
3.05611
3.04941
3.04541
3.04609
3.0502
3.05442
3.06649
3.08528
3.11013
3.13861
3.15316
3.15253
3.14627
3.13305
3.11857
3.10633
3.09192
3.07654
3.06284
3.05058
3.03794
3.02272
3.00445
2.98665
2.97358
2.96532
2.95792
2.95131
2.94577
2.9393
2.92994
2.91751
2.9009
2.88015
2.86264
2.85351
2.84527
2.83819
2.83435
2.83381
2.83095
2.82475
2.81736
2.81282
2.80976
2.80873
2.8199
2.8492
2.87758
2.90698
2.93171
2.94512
2.94441
2.93602
2.92119
2.89889
2.87167
2.8443
2.8291
2.82036
2.8129
2.80847
2.80344
2.79436
2.7837
2.77047
2.7518
2.7284
2.70722
2.69784
2.69257
2.68886
2.68372
2.67697
2.66776
2.65573
2.64688
2.63995
2.63421
2.63108
2.62885
2.6236
2.61455
2.59911
2.57589
2.55247
2.53693
2.52986
2.5255
2.52296
2.52566
2.52627
2.52103
2.51524
2.5097
2.50416
2.49621
2.48681
2.47659
2.46289
2.44219
2.4222
2.41218
2.40579
2.40084
2.39646
2.39285
2.3904
2.38623
2.3807
2.37396
2.36579
2.35606
2.34327
2.32946
2.32069
2.3164
2.31226
2.30951
2.31111
2.31316
2.30933
2.30418
2.29804
2.28726
2.27107
2.25643
2.24325
2.22797
2.21432
2.20836
2.20755
1.40121
1.40429
1.42243
1.44511
1.44768
1.44482
1.44381
1.44214
1.4375
1.42458
1.40104
1.37075
1.35082
1.34422
1.34308
1.34393
1.34779
1.35044
1.35047
1.3498
1.349
1.34785
1.34626
1.34363
1.33717
1.32435
1.31602
1.3151
1.31608
1.3223
1.32597
1.32464
1.3206
1.30852
1.28311
1.26505
1.2619
1.26218
1.26975
1.28985
1.30151
1.30124
1.29835
1.28923
1.27111
1.25727
1.25485
1.25356
1.25161
1.24926
1.24632
1.24225
1.23712
1.236
1.23623
1.23786
1.24152
1.24704
1.25303
1.26032
1.26908
1.27987
1.29189
1.29682
1.29728
1.29722
1.29521
1.28992
1.28355
1.2769
1.26967
1.2669
1.26907
1.3094
1.55874
2.08127
2.9808
3.45069
3.51673
3.52678
3.49674
3.4718
3.47428
3.47613
3.47296
3.45605
3.44044
3.43283
3.41822
3.40195
3.39061
3.37509
3.36293
3.35528
3.35178
3.34242
3.33136
3.31835
3.29837
3.27539
3.26234
3.25238
3.24275
3.23307
3.22444
3.21714
3.20945
3.20106
3.18815
3.17078
3.15495
3.14361
3.13496
3.1286
3.1252
3.12331
3.118
3.10982
3.09829
3.08111
3.06066
3.04726
3.04016
3.03563
3.03452
3.04104
3.05107
3.05611
3.06242
3.07387
3.09723
3.12701
3.13929
3.13738
3.12958
3.11938
3.11022
3.09786
3.08229
3.06768
3.05496
3.04114
3.02403
3.00159
2.98421
2.97407
2.96524
2.9576
2.95166
2.94673
2.93994
2.93018
2.91636
2.8961
2.87468
2.8618
2.85316
2.84522
2.83885
2.83689
2.83645
2.82863
2.81976
2.80954
2.80031
2.79727
2.79394
2.79456
2.808
2.83363
2.86539
2.90725
2.93215
2.9327
2.92709
2.91496
2.89459
2.87221
2.85507
2.84149
2.83227
2.82607
2.8213
2.81288
2.80172
2.7885
2.7687
2.74094
2.71555
2.70344
2.69713
2.69244
2.68736
2.68062
2.67247
2.66097
2.65063
2.64394
2.63834
2.63479
2.63517
2.63538
2.63038
2.62232
2.60773
2.57828
2.54561
2.52903
2.52067
2.51541
2.51199
2.5134
2.51733
2.51391
2.50947
2.50429
2.49731
2.48881
2.48186
2.47617
2.46919
2.45764
2.43644
2.41236
2.4001
2.39436
2.39132
2.39179
2.38992
2.38523
2.38035
2.37389
2.36207
2.34654
2.33389
2.323
2.31656
2.31255
2.30963
2.3069
2.30318
2.29989
2.29562
2.28975
2.28295
2.2739
2.26487
2.2596
2.25441
2.24719
2.23471
2.21711
2.20608
1.42115
1.43861
1.46377
1.46822
1.46462
1.46218
1.45947
1.45328
1.4386
1.41331
1.38436
1.36677
1.36145
1.36068
1.36181
1.36416
1.36401
1.36238
1.36108
1.36009
1.359
1.35747
1.35503
1.34946
1.3368
1.32667
1.32526
1.32563
1.33062
1.33427
1.33282
1.32894
1.31797
1.29338
1.27287
1.26849
1.26865
1.27486
1.29471
1.31027
1.31094
1.30878
1.30082
1.28302
1.26674
1.2634
1.26267
1.26103
1.25875
1.25601
1.25137
1.24634
1.24267
1.24069
1.24058
1.2414
1.24343
1.24639
1.25042
1.2561
1.26416
1.27632
1.29018
1.29348
1.2941
1.29402
1.29235
1.28718
1.28067
1.27505
1.27247
1.27652
1.33409
1.72956
2.47704
3.06523
3.52927
3.58956
3.57783
3.53323
3.48544
3.46016
3.4581
3.46938
3.47197
3.46875
3.45457
3.44039
3.42107
3.4002
3.38628
3.37487
3.36621
3.35912
3.35322
3.34208
3.32616
3.30551
3.28394
3.26949
3.26128
3.25603
3.25077
3.24135
3.23017
3.21892
3.20849
3.19495
3.17959
3.16388
3.15027
3.14016
3.13243
3.12737
3.1263
3.1238
3.11692
3.10884
3.09611
3.07582
3.05556
3.0432
3.03581
3.03099
3.03088
3.03554
3.04051
3.043
3.04367
3.04667
3.05765
3.08463
3.11668
3.12513
3.12312
3.11845
3.11229
3.10416
3.09105
3.07386
3.05759
3.04085
3.02163
3.00263
2.99011
2.98063
2.97193
2.96378
2.95627
2.94821
2.93833
2.92525
2.90825
2.88957
2.87618
2.86726
2.85976
2.85392
2.85051
2.84728
2.83786
2.82565
2.81263
2.79799
2.78706
2.78347
2.78199
2.78
2.78617
2.80704
2.83055
2.86278
2.90137
2.91209
2.91178
2.90355
2.88659
2.87299
2.86596
2.8577
2.84915
2.84287
2.83383
2.82088
2.80478
2.78447
2.75848
2.73244
2.71791
2.70943
2.70154
2.69374
2.68558
2.67681
2.66512
2.65284
2.64615
2.64119
2.63743
2.63657
2.63986
2.63842
2.63125
2.62229
2.60703
2.58056
2.55037
2.53042
2.51839
2.51067
2.50568
2.50283
2.50142
2.49678
2.4925
2.4881
2.48257
2.47923
2.47612
2.47283
2.46856
2.46217
2.45135
2.43245
2.4092
2.39508
2.38844
2.38348
2.38203
2.38041
2.3758
2.36889
2.35476
2.33701
2.32733
2.32299
2.31856
2.31324
2.30779
2.3015
2.29276
2.28638
2.28112
2.27296
2.26445
2.26124
2.26009
2.25936
2.25858
2.25521
2.24834
2.23338
2.20885
1.45505
1.48178
1.48831
1.4845
1.48077
1.47701
1.46947
1.45305
1.42585
1.39861
1.38382
1.37997
1.3793
1.38046
1.38109
1.37878
1.37612
1.37402
1.37243
1.37108
1.36956
1.36727
1.3624
1.35039
1.33841
1.33626
1.33622
1.34014
1.34365
1.34218
1.33839
1.32803
1.30442
1.28106
1.27498
1.275
1.27999
1.29887
1.31833
1.32066
1.31885
1.31222
1.2954
1.27639
1.27128
1.27083
1.26984
1.26817
1.26574
1.26188
1.25553
1.25188
1.25004
1.24736
1.24565
1.24559
1.24643
1.24757
1.24977
1.25411
1.26177
1.27464
1.28539
1.2883
1.28947
1.28974
1.2878
1.28215
1.27714
1.27666
1.28955
1.39172
1.84607
2.79134
3.27042
3.50517
3.59687
3.59269
3.57853
3.54517
3.50379
3.47891
3.46173
3.46874
3.47918
3.47437
3.46567
3.44737
3.41544
3.39572
3.38414
3.37746
3.37178
3.3632
3.35302
3.33847
3.31558
3.28852
3.27412
3.26736
3.26328
3.26449
3.26141
3.25141
3.23825
3.22209
3.20246
3.18336
3.16918
3.15781
3.1479
3.13918
3.13262
3.12919
3.12817
3.12205
3.11444
3.10455
3.08934
3.06863
3.05313
3.04375
3.037
3.03275
3.03173
3.02918
3.02588
3.02389
3.02402
3.02461
3.02852
3.04266
3.07576
3.10339
3.11082
3.1126
3.11015
3.10707
3.09886
3.08309
3.0646
3.04343
3.01886
3.00311
2.99264
2.98368
2.97623
2.96828
2.95836
2.94792
2.93534
2.91628
2.89561
2.88363
2.87496
2.86758
2.86283
2.86144
2.86052
2.85302
2.84194
2.82731
2.80662
2.7879
2.77848
2.77184
2.76948
2.76994
2.77244
2.78451
2.80242
2.81927
2.85029
2.87606
2.88437
2.88598
2.88181
2.87584
2.87464
2.87459
2.86513
2.85501
2.84314
2.82518
2.7998
2.77268
2.7493
2.7352
2.72578
2.71632
2.70647
2.69607
2.68366
2.66845
2.65533
2.64809
2.64291
2.63904
2.63701
2.63942
2.64077
2.63425
2.62682
2.6159
2.59833
2.57798
2.56124
2.54784
2.53422
2.51945
2.5065
2.4967
2.48912
2.48333
2.47639
2.47053
2.46682
2.46581
2.46817
2.46822
2.46473
2.46037
2.4552
2.44804
2.43626
2.41697
2.39398
2.378
2.36918
2.36601
2.36156
2.35451
2.34292
2.33295
2.32949
2.32615
2.32202
2.31705
2.31042
2.30118
2.28929
2.27457
2.26239
2.25451
2.25063
2.24914
2.25312
2.26072
2.2604
2.25609
2.25013
2.24135
2.22355
1.49909
1.5078
1.50407
1.49943
1.49485
1.48642
1.46858
1.43993
1.41398
1.40154
1.3991
1.39908
1.39972
1.39816
1.3952
1.39104
1.38791
1.38601
1.38429
1.3825
1.38019
1.37584
1.36476
1.35132
1.34818
1.34787
1.35072
1.35399
1.3526
1.34895
1.33926
1.31632
1.29006
1.28183
1.28154
1.2854
1.30263
1.32541
1.33035
1.32889
1.3233
1.30794
1.28663
1.27895
1.27844
1.27772
1.27657
1.27485
1.27179
1.26606
1.2606
1.25915
1.25783
1.25508
1.25194
1.25051
1.25064
1.25119
1.25226
1.2554
1.26286
1.27331
1.27839
1.28029
1.2813
1.28117
1.27897
1.27578
1.27665
1.30932
1.53979
2.05416
2.97386
3.48621
3.56617
3.58414
3.58692
3.56612
3.54239
3.53315
3.51665
3.50323
3.49438
3.48831
3.48731
3.47555
3.46317
3.44425
3.41574
3.39616
3.38548
3.38058
3.37428
3.36399
3.35161
3.33034
3.30301
3.28345
3.27302
3.26682
3.26799
3.27375
3.26976
3.25962
3.24381
3.21861
3.1923
3.17351
3.16184
3.15426
3.14651
3.14004
3.13714
3.13404
3.12574
3.11565
3.105
3.09223
3.07712
3.06353
3.05472
3.04725
3.04294
3.04026
3.03296
3.02394
3.01664
3.00984
3.00566
3.005
3.00621
3.01017
3.02645
3.06278
3.08826
3.09948
3.10355
3.10543
3.10248
3.08991
3.07145
3.04993
3.02655
3.01005
2.9981
2.98837
2.98024
2.97103
2.95991
2.94784
2.931
2.90805
2.89155
2.88201
2.87462
2.86944
2.86707
2.86658
2.8634
2.85532
2.84407
2.82799
2.80624
2.78845
2.77746
2.76858
2.76284
2.76296
2.76334
2.76622
2.77522
2.78174
2.7961
2.82849
2.84716
2.86175
2.87066
2.8748
2.88238
2.88555
2.87606
2.86275
2.8474
2.82407
2.79254
2.76679
2.75372
2.74441
2.73457
2.72403
2.71194
2.69672
2.67721
2.66016
2.65187
2.64549
2.64074
2.63792
2.63741
2.63938
2.63542
2.62783
2.61781
2.60269
2.5851
2.57287
2.56639
2.56047
2.55277
2.54073
2.52132
2.49857
2.47975
2.46776
2.46105
2.45586
2.4517
2.44892
2.44924
2.45472
2.45705
2.45583
2.45526
2.45317
2.44793
2.4384
2.41935
2.38879
2.36495
2.35222
2.3438
2.33588
2.33218
2.33077
2.32993
2.32856
2.32534
2.32171
2.31641
2.3062
2.2866
2.26263
2.24822
2.24309
2.24034
2.23803
2.23821
2.24644
2.25406
2.25198
2.24642
2.23963
2.23022
1.5267
1.52355
1.51842
1.51327
1.50436
1.48552
1.4555
1.43034
1.42008
1.41846
1.41887
1.41891
1.41634
1.41234
1.40684
1.40275
1.40043
1.3985
1.39651
1.39402
1.38982
1.37968
1.36544
1.36107
1.36061
1.36255
1.36527
1.3639
1.3606
1.35181
1.32975
1.3007
1.28953
1.28866
1.29132
1.30653
1.33153
1.33988
1.33894
1.33429
1.32048
1.29756
1.28658
1.28576
1.28527
1.2843
1.28289
1.28052
1.27592
1.27014
1.26789
1.26712
1.26581
1.26333
1.25954
1.25671
1.25623
1.25656
1.2573
1.25982
1.2656
1.26941
1.27089
1.271
1.26853
1.26904
1.27018
1.2742
1.32333
1.68963
2.45305
3.06451
3.5796
3.65641
3.64286
3.60583
3.5728
3.54772
3.53127
3.52768
3.52666
3.5206
3.51614
3.50801
3.48878
3.46728
3.45228
3.43723
3.4157
3.40269
3.39497
3.38932
3.37837
3.36546
3.34689
3.31899
3.29609
3.28601
3.27857
3.27636
3.28204
3.28113
3.2722
3.26132
3.24138
3.21042
3.18343
3.16923
3.16022
3.15303
3.14826
3.14669
3.14468
3.13713
3.12728
3.11463
3.09701
3.07768
3.06446
3.05669
3.05124
3.04859
3.04807
3.04282
3.03381
3.024
3.01282
2.99979
2.99164
2.98766
2.98622
2.9886
2.99435
3.01475
3.05121
3.07577
3.09106
3.0991
3.10009
3.09084
3.07339
3.05338
3.03454
3.02008
3.00745
2.99668
2.98651
2.97467
2.96171
2.94596
2.92469
2.90529
2.8943
2.88542
2.8789
2.87527
2.87273
2.86881
2.86204
2.85282
2.83982
2.82222
2.80454
2.79207
2.78409
2.77742
2.77051
2.76408
2.75617
2.74994
2.75003
2.75168
2.75518
2.77558
2.80476
2.82609
2.85183
2.86885
2.8807
2.88219
2.87409
2.86048
2.84367
2.81805
2.79202
2.77803
2.76751
2.75677
2.74529
2.73265
2.71687
2.69379
2.67027
2.65984
2.65328
2.64666
2.64225
2.64027
2.63719
2.6312
2.62484
2.61597
2.60402
2.58864
2.57762
2.57294
2.57064
2.56847
2.56423
2.55657
2.53993
2.50746
2.47403
2.45663
2.4493
2.44471
2.44006
2.43618
2.43392
2.43602
2.44567
2.45298
2.45487
2.4542
2.45052
2.4456
2.43723
2.41504
2.37347
2.34164
2.32788
2.32152
2.31871
2.31781
2.3232
2.32897
2.32772
2.32327
2.31676
2.30474
2.2821
2.25689
2.24298
2.23627
2.23237
2.22973
2.22779
2.22855
2.23397
2.2398
2.23878
2.23383
2.2281
1.54269
1.53788
1.53252
1.52334
1.50382
1.47281
1.44799
1.43914
1.43799
1.43837
1.43758
1.43467
1.43014
1.42298
1.41821
1.41588
1.41373
1.41145
1.40878
1.40463
1.39512
1.38061
1.37491
1.3744
1.37571
1.37769
1.37619
1.37312
1.36543
1.3446
1.31293
1.29851
1.2969
1.29813
1.31099
1.33721
1.3493
1.34891
1.34526
1.33295
1.30931
1.29459
1.29289
1.29253
1.29177
1.29054
1.28831
1.28438
1.27965
1.27695
1.27597
1.27528
1.27397
1.27175
1.26799
1.26395
1.26292
1.26291
1.26338
1.26482
1.2666
1.26721
1.26585
1.25933
1.25654
1.25936
1.27348
1.36383
1.78752
2.74651
3.2837
3.55876
3.67005
3.66996
3.65642
3.62068
3.57229
3.54121
3.52508
3.52991
3.54055
3.53865
3.53188
3.51832
3.49011
3.45954
3.43691
3.42477
3.41767
3.41084
3.40561
3.3966
3.38146
3.36019
3.33614
3.31395
3.29992
3.29261
3.2904
3.29452
3.29067
3.28024
3.26998
3.25449
3.23034
3.20057
3.18199
3.17214
3.16358
3.15658
3.1533
3.15409
3.14853
3.13911
3.12799
3.10966
3.08577
3.0676
3.0575
3.05035
3.04638
3.04973
3.04802
3.03945
3.03088
3.02152
3.01025
2.99471
2.9814
2.97449
2.96952
2.96833
2.97233
2.98113
3.0053
3.03838
3.06755
3.08747
3.08988
3.08379
3.07023
3.05411
3.04056
3.02923
3.01726
3.00518
2.99274
2.97945
2.96321
2.94086
2.91817
2.90652
2.89758
2.88927
2.88389
2.88116
2.87535
2.86781
2.8595
2.8484
2.83179
2.81404
2.80301
2.7949
2.78898
2.78448
2.77768
2.76857
2.75618
2.73876
2.73085
2.72922
2.7288
2.73463
2.76052
2.78637
2.81645
2.85214
2.87008
2.87057
2.86538
2.85158
2.83409
2.81316
2.80015
2.79041
2.78025
2.76973
2.75731
2.74023
2.71617
2.68791
2.67028
2.66326
2.65849
2.65366
2.64611
2.63902
2.63346
2.62697
2.61603
2.60122
2.58704
2.57995
2.57569
2.57479
2.57672
2.57481
2.57004
2.56295
2.548
2.51714
2.47829
2.454
2.44225
2.43546
2.43081
2.42654
2.42316
2.42144
2.42559
2.44098
2.45621
2.45765
2.45369
2.44825
2.44075
2.42587
2.39098
2.34712
2.32486
2.31486
2.30977
2.30807
2.31195
2.3208
2.32092
2.31668
2.31086
2.29941
2.27873
2.25775
2.24382
2.23414
2.22723
2.22279
2.22011
2.21795
2.21701
2.21936
2.22497
2.22629
2.22273
1.55741
1.5525
1.54354
1.52309
1.49076
1.46611
1.45835
1.45728
1.45722
1.45583
1.45278
1.44786
1.44003
1.43423
1.43179
1.42976
1.42734
1.42442
1.42019
1.41125
1.39673
1.38982
1.38911
1.38991
1.39117
1.38949
1.38651
1.37974
1.36087
1.32781
1.30895
1.30621
1.30646
1.31662
1.343
1.35881
1.35903
1.35634
1.34541
1.3218
1.30325
1.30012
1.2997
1.29895
1.29792
1.29606
1.29235
1.28814
1.28629
1.2851
1.28413
1.28338
1.28208
1.27977
1.27571
1.27145
1.27008
1.26965
1.26937
1.26906
1.26839
1.26603
1.25799
1.24909
1.25023
1.28007
1.49014
1.97606
2.90821
3.4906
3.60223
3.64817
3.66929
3.64845
3.62117
3.6102
3.58197
3.56091
3.54878
3.54259
3.55493
3.55531
3.54451
3.52488
3.48462
3.44705
3.43229
3.42295
3.41843
3.41899
3.41133
3.40005
3.37989
3.34929
3.32656
3.31735
3.31145
3.31106
3.31661
3.31221
3.29916
3.28229
3.26082
3.23705
3.21422
3.19637
3.1849
3.17591
3.16836
3.16292
3.16165
3.15751
3.148
3.13738
3.12302
3.10069
3.07704
3.06452
3.05632
3.05002
3.04817
3.0497
3.04304
3.03375
3.02473
3.01485
3.00273
2.98783
2.97559
2.96828
2.96206
2.95795
2.95861
2.96363
2.97439
3.00022
3.02721
3.05498
3.07131
3.07025
3.06081
3.05168
3.04316
3.0359
3.0278
3.01443
3.00016
2.98573
2.96524
2.9377
2.91979
2.90962
2.90159
2.89605
2.89082
2.88348
2.87567
2.86741
2.85719
2.84181
2.82254
2.81065
2.80258
2.79631
2.79259
2.78864
2.78182
2.77233
2.75894
2.73833
2.71999
2.7157
2.7138
2.71329
2.72416
2.75023
2.77571
2.81377
2.84386
2.84696
2.84406
2.83362
2.82453
2.81985
2.81295
2.80288
2.79147
2.77967
2.76537
2.74309
2.71142
2.68676
2.6761
2.66927
2.66488
2.66024
2.65292
2.64319
2.63137
2.61616
2.5989
2.58519
2.57776
2.57373
2.57214
2.57872
2.57985
2.57484
2.56993
2.56143
2.54515
2.52244
2.49579
2.46594
2.44247
2.43108
2.42398
2.41901
2.4155
2.41313
2.41294
2.42225
2.43924
2.44823
2.44738
2.44257
2.43552
2.42331
2.40214
2.3701
2.33699
2.31575
2.30619
2.30184
2.3
2.30134
2.30278
2.30095
2.29616
2.28739
2.27384
2.26261
2.25355
2.2426
2.22915
2.21885
2.21264
2.20913
2.20599
2.20353
2.20452
2.21393
2.21893
1.57274
1.56452
1.5441
1.50952
1.4839
1.47716
1.47637
1.47553
1.47345
1.47032
1.46552
1.45744
1.45116
1.44853
1.44629
1.44381
1.44084
1.43652
1.42794
1.41356
1.4056
1.40469
1.40522
1.40559
1.4036
1.40076
1.39493
1.37801
1.34477
1.32117
1.31675
1.31636
1.32363
1.34906
1.36893
1.36986
1.36718
1.35777
1.33514
1.31261
1.30752
1.30706
1.30616
1.30504
1.30352
1.30061
1.29664
1.29482
1.29424
1.29358
1.29231
1.29124
1.28945
1.28612
1.28181
1.27864
1.27719
1.27621
1.27514
1.27352
1.27025
1.26161
1.24876
1.24868
1.28661
1.61028
2.36539
2.99525
3.56364
3.67866
3.6687
3.66267
3.65653
3.64589
3.59952
3.57911
3.56065
3.56078
3.56262
3.5645
3.57227
3.55928
3.5448
3.52095
3.48036
3.44703
3.43416
3.42653
3.42621
3.42378
3.41353
3.39666
3.3688
3.34091
3.32652
3.31947
3.31931
3.32985
3.33123
3.32045
3.30378
3.27816
3.24599
3.21999
3.20431
3.19562
3.18758
3.18064
3.17575
3.17293
3.16613
3.15548
3.14431
3.13114
3.11253
3.09195
3.0784
3.06869
3.06072
3.05664
3.05632
3.05081
3.04132
3.03112
3.01907
3.00557
2.99065
2.9774
2.96821
2.96068
2.95458
2.94924
2.94827
2.9541
2.959
2.9681
2.9855
3.00515
3.03318
3.0479
3.04574
3.04251
3.04029
3.03933
3.03657
3.0238
3.00664
2.98965
2.96694
2.93997
2.92634
2.91687
2.91002
2.90483
2.89566
2.88599
2.87671
2.86572
2.85043
2.83189
2.81753
2.80915
2.80217
2.79702
2.79415
2.79007
2.78287
2.77297
2.75851
2.73817
2.718
2.71126
2.70909