/*--------------------------------*- C++ -*----------------------------------*\
  =========                 |
  \\      /  F ield         | OpenFOAM: The Open Source CFD Toolbox
   \\    /   O peration     | Website:  https://openfoam.org
    \\  /    A nd           | Version:  7
     \\/     M anipulation  |
\*---------------------------------------------------------------------------*/
FoamFile
{
    version     2.0;
    format      ascii;
    class       volScalarField;
    location    "1.1";
    object      rho;
}
// * * * * * * * * * * * * * * * * * * * * * * * * * * * * * * * * * * * * * //

dimensions      [1 -3 0 0 0 0 0];

internalField   nonuniform List<scalar> 
4128
(
1.40001
1.40001
1.40001
1.40001
1.40001
1.40001
1.40001
1.40001
1.40001
1.40001
1.40001
1.40001
1.40001
1.40001
1.40001
1.40001
1.40001
1.40001
1.40001
1.40001
1.40001
1.40001
1.40001
1.40001
1.40001
1.40001
1.40001
1.40001
1.40001
1.40001
1.40001
1.40001
1.40001
1.40001
1.40001
1.40001
3.64021
5.44836
5.50365
5.55513
5.61313
5.67006
5.72916
5.78684
5.83626
5.8685
5.88605
5.90079
1.40001
1.40001
1.40001
1.40001
1.40001
1.40001
1.40001
1.40001
1.40001
1.40001
1.40001
1.40001
1.40001
1.40001
1.40001
1.40001
1.40001
1.40001
1.40001
1.40001
1.40001
1.40001
1.40001
1.40001
1.40001
1.40001
1.40001
1.40001
1.40001
1.40001
1.40001
1.40001
1.40001
1.40001
1.40001
1.40001
3.56573
5.42017
5.49344
5.54569
5.60348
5.65897
5.71614
5.77129
5.81798
5.84766
5.86308
5.877
1.40001
1.40001
1.40001
1.40001
1.40001
1.40001
1.40001
1.40001
1.40001
1.40001
1.40001
1.40001
1.40001
1.40001
1.40001
1.40001
1.40001
1.40001
1.40001
1.40001
1.40001
1.40001
1.40001
1.40001
1.40001
1.40001
1.40001
1.40001
1.40001
1.40001
1.40001
1.40001
1.40001
1.40001
1.40001
1.40001
3.41582
5.38582
5.47586
5.52805
5.58586
5.64033
5.69603
5.74884
5.79226
5.81835
5.8298
5.8424
1.40001
1.40001
1.40001
1.40001
1.40001
1.40001
1.40001
1.40001
1.40001
1.40001
1.40001
1.40001
1.40001
1.40001
1.40001
1.40001
1.40001
1.40001
1.40001
1.40001
1.40001
1.40001
1.40001
1.40001
1.40001
1.40001
1.40001
1.40001
1.40001
1.40001
1.40001
1.40001
1.40001
1.40001
1.40001
1.40001
3.1976
5.33229
5.45442
5.50468
5.56122
5.61342
5.66667
5.71679
5.75689
5.77817
5.78234
5.78815
1.40001
1.40001
1.40001
1.40001
1.40001
1.40001
1.40001
1.40001
1.40001
1.40001
1.40001
1.40001
1.40001
1.40001
1.40001
1.40001
1.40001
1.40001
1.40001
1.40001
1.40001
1.40001
1.40001
1.40001
1.40001
1.40001
1.40001
1.40001
1.40001
1.40001
1.40001
1.40001
1.40001
1.40001
1.40001
1.40001
2.9101
5.24336
5.43222
5.47611
5.52694
5.57284
5.61924
5.66168
5.69392
5.71094
5.7118
5.72431
1.40001
1.40001
1.40001
1.40001
1.40001
1.40001
1.40001
1.40001
1.40001
1.40001
1.40001
1.40001
1.40001
1.40001
1.40001
1.40001
1.40001
1.40001
1.40001
1.40001
1.40001
1.40001
1.40001
1.40001
1.40001
1.40001
1.40001
1.40001
1.40001
1.40001
1.40001
1.40001
1.40001
1.40001
1.40001
1.40001
2.57131
5.1125
5.43262
5.46103
5.49877
5.53202
5.56612
5.59827
5.6224
5.63398
5.62635
5.60935
1.40001
1.40001
1.40001
1.40001
1.40001
1.40001
1.40001
1.40001
1.40001
1.40001
1.40001
1.40001
1.40001
1.40001
1.40001
1.40001
1.40001
1.40001
1.40001
1.40001
1.40001
1.40001
1.40001
1.40001
1.40001
1.40001
1.40001
1.40001
1.40001
1.40001
1.40001
1.40001
1.40001
1.40001
1.40001
1.40001
2.17139
4.91471
5.45754
5.45763
5.47764
5.49444
5.51045
5.52305
5.52334
5.49742
5.45875
5.43707
1.40001
1.40001
1.40001
1.40001
1.40001
1.40001
1.40001
1.40001
1.40001
1.40001
1.40001
1.40001
1.40001
1.40001
1.40001
1.40001
1.40001
1.40001
1.40001
1.40001
1.40001
1.40001
1.40001
1.40001
1.40001
1.40001
1.40001
1.40001
1.40001
1.40001
1.40001
1.40001
1.40001
1.40001
1.40001
1.40001
1.75656
4.65494
5.4867
5.44261
5.45519
5.45518
5.44775
5.4375
5.41021
5.3615
5.28193
5.23666
1.40001
1.40001
1.40001
1.40001
1.40001
1.40001
1.40001
1.40001
1.40001
1.40001
1.40001
1.40001
1.40001
1.40001
1.40001
1.40001
1.40001
1.40001
1.40001
1.40001
1.40001
1.40001
1.40001
1.40001
1.40001
1.40001
1.40001
1.40001
1.40001
1.40001
1.40001
1.40001
1.40001
1.40001
1.40001
1.40001
1.43802
4.16376
5.4313
5.39566
5.40848
5.39452
5.36626
5.33308
5.26836
5.1522
4.82909
3.97454
1.40001
1.40001
1.40001
1.40001
1.40001
1.40001
1.40001
1.40001
1.40001
1.40001
1.40001
1.40001
1.40001
1.40001
1.40001
1.40001
1.40001
1.40001
1.40001
1.40001
1.40001
1.40001
1.40001
1.40001
1.40001
1.40001
1.40001
1.40001
1.40001
1.40001
1.40001
1.40001
1.40001
1.40001
1.40001
1.40001
1.40017
3.46086
5.2004
5.29801
5.32794
5.31275
5.27304
5.21575
5.10936
4.91515
4.57508
3.68246
1.40001
1.40001
1.40001
1.40001
1.40001
1.40001
1.40001
1.40001
1.40001
1.40001
1.40001
1.40001
1.40001
1.40001
1.40001
1.40001
1.40001
1.40001
1.40001
1.40001
1.40001
1.40001
1.40001
1.40001
1.40001
1.40001
1.40001
1.40001
1.40001
1.40001
1.40001
1.40001
1.40001
1.40001
1.40001
1.40001
1.4
2.72017
4.99647
5.26528
5.27194
5.24684
5.19357
5.10502
4.96579
4.72491
4.36847
3.55701
1.40001
1.40001
1.40001
1.40001
1.40001
1.40001
1.40001
1.40001
1.40001
1.40001
1.40001
1.40001
1.40001
1.40001
1.40001
1.40001
1.40001
1.40001
1.40001
1.40001
1.40001
1.40001
1.40001
1.40001
1.40001
1.40001
1.40001
1.40001
1.40001
1.40001
1.40001
1.40001
1.40001
1.40001
1.40001
1.40001
1.4
1.9801
4.74478
5.27024
5.2264
5.17649
5.10581
4.99376
4.83055
4.58684
4.19605
3.54283
1.40001
1.40001
1.40001
1.40001
1.40001
1.40001
1.40001
1.40001
1.40001
1.40001
1.40001
1.40001
1.40001
1.40001
1.40001
1.40001
1.40001
1.40001
1.40001
1.40001
1.40001
1.40001
1.40001
1.40001
1.40001
1.40001
1.40001
1.40001
1.40001
1.40001
1.40001
1.40001
1.40001
1.40001
1.40001
1.40001
1.4
1.47685
4.05443
5.17962
5.1493
5.09712
5.01636
4.89289
4.71796
4.47655
4.08798
3.57598
1.40001
1.40001
1.40001
1.40001
1.40001
1.40001
1.40001
1.40001
1.40001
1.40001
1.40001
1.40001
1.40001
1.40001
1.40001
1.40001
1.40001
1.40001
1.40001
1.40001
1.40001
1.40001
1.40001
1.40001
1.40001
1.40001
1.40001
1.40001
1.40001
1.40001
1.40001
1.40001
1.40001
1.40001
1.40001
1.40001
1.40001
1.40045
3.07327
5.02235
5.09955
5.05412
4.95494
4.81758
4.63331
4.38804
4.02814
3.61685
1.40001
1.40001
1.40001
1.40001
1.40001
1.40001
1.40001
1.40001
1.40001
1.40001
1.40001
1.40001
1.40001
1.40001
1.40001
1.40001
1.40001
1.40001
1.40001
1.40001
1.40001
1.40001
1.40001
1.40001
1.40001
1.40001
1.40001
1.40001
1.40001
1.40001
1.40001
1.40001
1.40001
1.40001
1.40001
1.40001
1.40001
1.4
2.01101
4.80178
5.12675
5.01111
4.89299
4.74676
4.56497
4.31994
4.00596
3.66357
1.40001
1.40001
1.40001
1.40001
1.40001
1.40001
1.40001
1.40001
1.40001
1.40001
1.40001
1.40001
1.40001
1.40001
1.40001
1.40001
1.40001
1.40001
1.40001
1.40001
1.40001
1.40001
1.40001
1.40001
1.40001
1.40001
1.40001
1.40001
1.40001
1.40001
1.40001
1.40001
1.40001
1.40001
1.40001
1.40001
1.40001
1.4
1.46277
3.97982
5.01938
4.90267
4.8178
4.68496
4.51059
4.28148
4.00515
3.70362
1.40001
1.40001
1.40001
1.40001
1.40001
1.40001
1.40001
1.40001
1.40001
1.40001
1.40001
1.40001
1.40001
1.40001
1.40001
1.40001
1.40001
1.40001
1.40001
1.40001
1.40001
1.40001
1.40001
1.40001
1.40001
1.40001
1.40001
1.40001
1.40001
1.40001
1.40001
1.40001
1.40001
1.40001
1.40001
1.40001
1.40001
1.4
1.40024
2.73644
4.80318
4.85845
4.79933
4.67732
4.49961
4.2755
4.01768
3.74811
1.40001
1.40001
1.40001
1.40001
1.40001
1.40001
1.40001
1.40001
1.40001
1.40001
1.40001
1.40001
1.40001
1.40001
1.40001
1.40001
1.40001
1.40001
1.40001
1.40001
1.40001
1.40001
1.40001
1.40001
1.40001
1.40001
1.40001
1.40001
1.40001
1.40001
1.40001
1.40001
1.40001
1.40001
1.40001
1.40001
1.40001
1.40001
1.4
1.6717
4.25268
4.91125
4.80189
4.65912
4.48253
4.27237
4.03563
3.79046
1.40001
1.40001
1.40001
1.40001
1.40001
1.40001
1.40001
1.40001
1.40001
1.40001
1.40001
1.40001
1.40001
1.40001
1.40001
1.40001
1.40001
1.40001
1.40001
1.40001
1.40001
1.40001
1.40001
1.40001
1.40001
1.40001
1.40001
1.40001
1.40001
1.40001
1.40001
1.40001
1.40001
1.40001
1.40001
1.40001
1.40001
1.40001
1.4
1.40925
3.0714
4.75078
4.74828
4.62123
4.46237
4.26991
4.05536
3.83004
1.40001
1.40001
1.40001
1.40001
1.40001
1.40001
1.40001
1.40001
1.40001
1.40001
1.40001
1.40001
1.40001
1.40001
1.40001
1.40001
1.40001
1.40001
1.40001
1.40001
1.40001
1.40001
1.40001
1.40001
1.40001
1.40001
1.40001
1.40001
1.40001
1.40001
1.40001
1.40001
1.40001
1.40001
1.40001
1.40001
1.40001
1.40001
1.40001
1.4
1.81022
4.29024
4.79821
4.63244
4.4662
4.27709
4.07741
3.86826
1.40001
1.40001
1.40001
1.40001
1.40001
1.40001
1.40001
1.40001
1.40001
1.40001
1.40001
1.40001
1.40001
1.40001
1.40001
1.40001
1.40001
1.40001
1.40001
1.40001
1.40001
1.40001
1.40001
1.40001
1.40001
1.40001
1.40001
1.40001
1.40001
1.40001
1.40001
1.40001
1.40001
1.40001
1.40001
1.40001
1.40001
1.40001
1.40001
1.4
1.42195
3.10312
4.66551
4.61468
4.45714
4.2804
4.09445
3.90407
1.40001
1.40001
1.40001
1.40001
1.40001
1.40001
1.40001
1.40001
1.40001
1.40001
1.40001
1.40001
1.40001
1.40001
1.40001
1.40001
1.40001
1.40001
1.40001
1.40001
1.40001
1.40001
1.40001
1.40001
1.40001
1.40001
1.40001
1.40001
1.40001
1.40001
1.40001
1.40001
1.40001
1.40001
1.40001
1.40001
1.40001
1.40001
1.40001
1.4
1.40009
1.81994
4.10747
4.66153
4.48877
4.32152
4.14102
3.957
1.40001
1.40001
1.40001
1.40001
1.40001
1.40001
1.40001
1.40001
1.40001
1.40001
1.40001
1.40001
1.40001
1.40001
1.40001
1.40001
1.40001
1.40001
1.40001
1.40001
1.40001
1.40001
1.40001
1.40001
1.40001
1.40001
1.40001
1.40001
1.40001
1.40001
1.40001
1.40001
1.40001
1.40001
1.40001
1.40001
1.40001
1.40001
1.40001
1.40001
1.40001
1.42229
2.7623
4.52194
4.50973
4.35294
4.18138
4.00065
1.40001
1.40001
1.40001
1.40001
1.40001
1.40001
1.40001
1.40001
1.40001
1.40001
1.40001
1.40001
1.40001
1.40001
1.40001
1.40001
1.40001
1.40001
1.40001
1.40001
1.40001
1.40001
1.40001
1.40001
1.40001
1.40001
1.40001
1.40001
1.40001
1.40001
1.40001
1.40001
1.40001
1.40001
1.40001
1.40001
1.40001
1.40001
1.40001
1.40001
1.40001
1.40016
1.66518
3.75653
4.59475
4.41751
4.24295
4.05997
1.40001
1.40001
1.40001
1.40001
1.40001
1.40001
1.40001
1.40001
1.40001
1.40001
1.40001
1.40001
1.40001
1.40001
1.40001
1.40001
1.40001
1.40001
1.40001
1.40001
1.40001
1.40001
1.40001
1.40001
1.40001
1.40001
1.40001
1.40001
1.40001
1.40001
1.40001
1.40001
1.40001
1.40001
1.40001
1.40001
1.40001
1.40001
1.40001
1.40001
1.40001
1.40001
1.40891
2.29689
4.23745
4.46056
4.28513
4.1097
1.40001
1.40001
1.40001
1.40001
1.40001
1.40001
1.40001
1.40001
1.40001
1.40001
1.40001
1.40001
1.40001
1.40001
1.40001
1.40001
1.40001
1.40001
1.40001
1.40001
1.40001
1.40001
1.40001
1.40001
1.40001
1.40001
1.40001
1.40001
1.40001
1.40001
1.40001
1.40001
1.40001
1.40001
1.40001
1.40001
1.40001
1.40001
1.40001
1.40001
1.40001
1.40001
1.40006
1.50459
3.11295
4.39334
4.34524
4.1844
1.40001
1.40001
1.40001
1.40001
1.40001
1.40001
1.40001
1.40001
1.40001
1.40001
1.40001
1.40001
1.40001
1.40001
1.40001
1.40001
1.40001
1.40001
1.40001
1.40001
1.40001
1.40001
1.40001
1.40001
1.40001
1.40001
1.40001
1.40001
1.40001
1.40001
1.40001
1.40001
1.40001
1.40001
1.40001
1.40001
1.40001
1.40001
1.40001
1.40001
1.40001
1.40001
1.40001
1.40192
1.8268
3.73188
4.3864
4.26523
1.40001
1.40001
1.40001
1.40001
1.40001
1.40001
1.40001
1.40001
1.40001
1.40001
1.40001
1.40001
1.40001
1.40001
1.40001
1.40001
1.40001
1.40001
1.40001
1.40001
1.40001
1.40001
1.40001
1.40001
1.40001
1.40001
1.40001
1.40001
1.40001
1.40001
1.40001
1.40001
1.40001
1.40001
1.40001
1.40001
1.40001
1.40001
1.40001
1.40001
1.40001
1.40001
1.40001
1.40001
1.42361
2.32669
4.06027
4.30712
1.40001
1.40001
1.40001
1.40001
1.40001
1.40001
1.40001
1.40001
1.40001
1.40001
1.40001
1.40001
1.40001
1.40001
1.40001
1.40001
1.40001
1.40001
1.40001
1.40001
1.40001
1.40001
1.40001
1.40001
1.40001
1.40001
1.40001
1.40001
1.40001
1.40001
1.40001
1.40001
1.40001
1.40001
1.40001
1.40001
1.40001
1.40001
1.40001
1.40001
1.40001
1.40001
1.40001
1.40001
1.40026
1.51245
2.87901
4.16002
1.40001
1.40001
1.40001
1.40001
1.40001
1.40001
1.40001
1.40001
1.40001
1.40001
1.40001
1.40001
1.40001
1.40001
1.40001
1.40001
1.40001
1.40001
1.40001
1.40001
1.40001
1.40001
1.40001
1.40001
1.40001
1.40001
1.40001
1.40001
1.40001
1.40001
1.40001
1.40001
1.40001
1.40001
1.40001
1.40001
1.40001
1.40001
1.40001
1.40001
1.40001
1.40001
1.40001
1.40001
1.40001
1.40253
1.7059
3.33368
1.40001
1.40001
1.40001
1.40001
1.40001
1.40001
1.40001
1.40001
1.40001
1.40001
1.40001
1.40001
1.40001
1.40001
1.40001
1.40001
1.40001
1.40001
1.40001
1.40001
1.40001
1.40001
1.40001
1.40001
1.40001
1.40001
1.40001
1.40001
1.40001
1.40001
1.40001
1.40001
1.40001
1.40001
1.40001
1.40001
1.40001
1.40001
1.40001
1.40001
1.40001
1.40001
1.40001
1.40001
1.40001
1.40002
1.4135
1.99276
1.40001
1.40001
1.40001
1.40001
1.40001
1.40001
1.40001
1.40001
1.40001
1.40001
1.40001
1.40001
1.40001
1.40001
1.40001
1.40001
1.40001
1.40001
1.40001
1.40001
1.40001
1.40001
1.40001
1.40001
1.40001
1.40001
1.40001
1.40001
1.40001
1.40001
1.40001
1.40001
1.40001
1.40001
1.40001
1.40001
1.40001
1.40001
1.40001
1.40001
1.40001
1.40001
1.40001
1.40001
1.40001
1.40001
1.40014
1.44681
1.40001
1.40001
1.40001
1.40001
1.40001
1.40001
1.40001
1.40001
1.40001
1.40001
1.40001
1.40001
1.40001
1.40001
1.40001
1.40001
1.40001
1.40001
1.40001
1.40001
1.40001
1.40001
1.40001
1.40001
1.40001
1.40001
1.40001
1.40001
1.40001
1.40001
1.40001
1.40001
1.40001
1.40001
1.40001
1.40001
1.40001
1.40001
1.40001
1.40001
1.40001
1.40001
1.40001
1.40001
1.40001
1.40001
1.40001
1.40076
1.40001
1.40001
1.40001
1.40001
1.40001
1.40001
1.40001
1.40001
1.40001
1.40001
1.40001
1.40001
1.40001
1.40001
1.40001
1.40001
1.40001
1.40001
1.40001
1.40001
1.40001
1.40001
1.40001
1.40001
1.40001
1.40001
1.40001
1.40001
1.40001
1.40001
1.40001
1.40001
1.40001
1.40001
1.40001
1.40001
1.40001
1.40001
1.40001
1.40001
1.40001
1.40001
1.40001
1.40001
1.40001
1.40001
1.40001
1.40001
1.40001
1.40001
1.40001
1.40001
1.40001
1.40001
1.40001
1.40001
1.40001
1.40001
1.40001
1.40001
1.40001
1.40001
1.40001
1.40001
1.40001
1.40001
1.40001
1.40001
1.40001
1.40001
1.40001
1.40001
1.40001
1.40001
1.40001
1.40001
1.40001
1.40001
1.40001
1.40001
1.40001
1.40001
1.40001
1.40001
1.40001
1.40001
1.40001
1.40001
1.40001
1.40001
1.40001
1.40001
1.40001
1.40001
1.40001
1.40001
1.40001
1.40001
1.40001
1.40001
1.40001
1.40001
1.40001
1.40001
1.40001
1.40001
1.40001
1.40001
1.40001
1.40001
1.40001
1.40001
1.40001
1.40001
1.40001
1.40001
1.40001
1.40001
1.40001
1.40001
1.40001
1.40001
1.40001
1.40001
1.40001
1.40001
1.40001
1.40001
1.40001
1.40001
1.40001
1.40001
1.40001
1.40001
1.40001
1.40001
1.40001
1.40001
1.40001
1.40001
1.40001
1.40001
1.40001
1.40001
1.40001
1.40001
1.40001
1.40001
1.40001
1.40001
1.40001
1.40001
1.40001
1.40001
1.40001
1.40001
1.40001
1.40001
1.40001
1.40001
1.40001
1.40001
1.40001
1.40001
1.40001
1.40001
1.40001
1.40001
1.40001
1.40001
1.40001
1.40001
1.40001
1.40001
1.40001
1.40001
1.40001
1.40001
1.40001
1.40001
1.40001
1.40001
1.40001
1.40001
1.40001
1.40001
1.40001
1.40001
1.40001
1.40001
1.40001
1.40001
1.40001
1.40001
1.40001
1.40001
1.40001
1.40001
1.40001
1.40001
1.40001
1.40001
1.40001
1.40001
1.40001
1.40001
1.40001
1.40001
1.40001
1.40001
1.40001
1.40001
1.40001
1.40001
1.40001
1.40001
1.40001
1.40001
1.40001
1.40001
1.40001
1.40001
1.40001
1.40001
1.40001
1.40001
1.40001
1.40001
1.40001
1.40001
1.40001
1.40001
1.40001
1.40001
1.40001
1.40001
1.40001
1.40001
1.40001
1.40001
1.40001
1.40001
1.40001
1.40001
1.40001
1.40001
1.40001
1.40001
1.40001
1.40001
1.40001
1.40001
1.40001
1.40001
1.40001
1.40001
1.40001
1.40001
1.40001
1.40001
1.40001
1.40001
1.40001
1.40001
1.40001
1.40001
1.40001
1.40001
1.40001
1.40001
1.40001
1.40001
1.40001
1.40001
1.40001
1.40001
1.40001
1.40001
1.40001
1.40001
1.40001
1.40001
1.40001
1.40001
1.40001
1.40001
1.40001
1.40001
1.40001
1.40001
1.40001
1.40001
1.40001
1.40001
1.40001
1.40001
1.40001
1.40001
1.40001
1.40001
1.40001
1.40001
1.40001
1.40001
1.40001
1.40001
1.40001
1.40001
1.40001
1.40001
1.40001
1.40001
1.40001
1.40001
1.40001
1.40001
1.40001
1.40001
1.40001
1.40001
1.40001
1.40001
1.40001
1.40001
1.40001
1.40001
1.40001
1.40001
1.40001
1.40001
1.40001
1.40001
1.40001
1.40001
1.40001
1.40001
1.40001
1.40001
1.40001
1.40001
1.40001
1.40001
1.40001
1.40001
1.40001
1.40001
1.40001
1.40001
1.40001
1.40001
1.40001
1.40001
1.40001
1.40001
1.40001
1.40001
1.40001
1.40001
1.40001
1.40001
1.40001
1.40001
1.40001
1.40001
1.40001
1.40001
1.40001
1.40001
1.40001
1.40001
1.40001
1.40001
1.40001
1.40001
1.40001
1.40001
1.40001
1.40001
1.40001
1.40001
1.40001
1.40001
1.40001
1.40001
1.40001
1.40001
1.40001
1.40001
1.40001
1.40001
1.40001
1.40001
1.40001
1.40001
1.40001
1.40001
1.40001
1.40001
1.40001
1.40001
1.40001
1.40001
1.40001
1.40001
1.40001
1.40001
1.40001
1.40001
1.40001
1.40001
1.40001
1.40001
1.40001
1.40001
1.40001
1.40001
1.40001
1.40001
1.40001
1.40001
1.40001
1.40001
1.40001
1.40001
1.40001
1.40001
1.40001
1.40001
1.40001
1.40001
1.40001
1.40001
1.40001
1.40001
1.40001
1.40001
1.40001
1.40001
1.40001
1.40001
1.40001
1.40001
1.40001
1.40001
1.40001
1.40001
1.40001
1.40001
1.40001
1.40001
1.40001
1.40001
1.40001
1.40001
1.40001
1.40001
1.40001
1.40001
1.40001
1.40001
1.40001
1.40001
1.40001
1.40001
1.40001
1.40001
1.40001
1.40001
1.40001
1.40001
1.40001
1.40001
1.40001
1.40001
1.40001
1.40001
1.40001
1.40001
1.40001
1.40001
1.31808
0.453474
0.255226
0.254632
0.283363
0.302549
0.364409
0.470194
0.582926
0.707893
0.846213
0.88143
0.880113
0.883952
0.903691
0.936713
0.985615
1.03424
1.04935
1.04002
1.01058
1.00325
1.01437
1.04072
1.06991
1.07406
1.06769
1.05157
1.0467
1.05149
1.06191
1.13948
2.30709
2.8272
2.91271
2.97945
3.0152
3.02395
3.02331
3.02165
3.01144
2.99137
2.96442
2.93624
2.91229
2.89894
2.89625
2.89829
1.99244
1.19933
0.816737
0.708575
0.651168
0.597856
0.555994
0.540212
0.552735
0.598988
0.682157
0.746611
0.799095
0.837052
0.867511
0.907923
0.95194
0.997057
1.03676
1.04528
1.04293
1.04223
1.04539
1.05297
1.07097
1.08121
1.08229
1.08115
1.07656
1.07667
1.07783
1.10357
2.21076
2.83419
2.93244
2.99361
3.02109
3.0284
3.03075
3.03094
3.01966
2.99678
2.9668
2.93639
2.9125
2.90005
2.89811
2.89937
2.49918
1.84946
1.38449
1.09233
0.9604
0.880557
0.781731
0.680886
0.63046
0.641124
0.682356
0.738833
0.8014
0.853174
0.8767
0.902726
0.941762
0.986088
1.03888
1.08095
1.10044
1.12119
1.1301
1.12697
1.11869
1.1168
1.11891
1.12541
1.1303
1.13004
1.12271
1.12139
1.99749
2.86107
2.98899
3.03899
3.05242
3.05089
3.05079
3.05201
3.04078
3.01372
2.97679
2.93949
2.91154
2.89975
2.90072
2.9036
2.80978
2.27164
1.88008
1.53326
1.26402
1.15404
1.07287
0.983437
0.865712
0.800472
0.786499
0.785345
0.790538
0.803178
0.815344
0.830273
0.869771
0.918324
0.973871
1.03355
1.07281
1.1082
1.14933
1.15995
1.15664
1.16078
1.16654
1.17669
1.18408
1.18085
1.16941
1.15062
1.68619
2.85945
3.1091
3.13954
3.13166
3.10909
3.09338
3.08459
3.07029
3.04209
3.00121
2.95704
2.92014
2.90124
2.89852
2.90135
3.04259
2.57157
2.20674
1.91353
1.64038
1.39535
1.27977
1.2103
1.12497
1.01383
0.899272
0.86731
0.851242
0.845921
0.842992
0.84685
0.840656
0.837045
0.852799
0.900315
0.970749
1.04304
1.10765
1.13987
1.14531
1.15388
1.16287
1.17704
1.1877
1.19222
1.19257
1.18447
1.36082
2.80459
3.26116
3.24837
3.22545
3.18908
3.15911
3.13876
3.115
3.08044
3.03772
2.99145
2.94536
2.90974
2.89355
2.89213
3.18856
2.79684
2.45328
2.16865
1.92813
1.69598
1.49815
1.37937
1.31812
1.24264
1.12924
1.00914
0.965669
0.960378
0.942972
0.916978
0.893543
0.865868
0.849327
0.850129
0.868341
0.910947
0.968532
1.03454
1.08327
1.11571
1.13775
1.16033
1.17737
1.18809
1.18923
1.18719
1.20978
2.48944
3.3126
3.32571
3.2945
3.26144
3.2348
3.20889
3.17793
3.1368
3.08606
3.03377
2.98066
2.93209
2.89661
2.87351
3.30712
2.96891
2.65398
2.37496
2.14349
1.94703
1.74861
1.56085
1.46169
1.40351
1.32584
1.22777
1.11822
1.04795
1.01571
0.987221
0.96082
0.937185
0.906744
0.875947
0.8763
0.878706
0.888784
0.912129
0.955754
1.00203
1.04834
1.08746
1.11758
1.1452
1.16487
1.178
1.18458
2.04554
3.28524
3.35961
3.32831
3.30739
3.28956
3.27918
3.25195
3.2054
3.14815
3.08928
3.0245
2.94862
2.86913
2.83476
3.39318
3.09213
2.81664
2.55375
2.30735
2.12175
1.95992
1.79122
1.63356
1.51221
1.44391
1.38454
1.30996
1.22372
1.12562
1.06956
1.05264
1.03537
1.00339
0.963542
0.931463
0.907094
0.890954
0.89114
0.895674
0.908629
0.928054
0.955911
1.00094
1.04865
1.08934
1.13669
1.15471
1.61475
3.18319
3.3579
3.31565
3.31809
3.31932
3.30703
3.29401
3.2613
3.20538
3.13696
3.06731
2.9796
2.84538
2.78859
3.4675
3.19382
2.94027
2.70283
2.47611
2.27203
2.10118
1.96006
1.8244
1.69193
1.56154
1.46919
1.42352
1.37057
1.29041
1.19582
1.13945
1.10528
1.07228
1.0426
1.00995
0.975092
0.939054
0.908504
0.904593
0.905884
0.907427
0.910978
0.924318
0.948534
0.986489
1.0349
1.07135
1.26
2.91287
3.30195
3.2369
3.25158
3.27189
3.27823
3.27949
3.26416
3.2324
3.18214
3.10433
2.98021
2.74477
2.23646
3.53054
3.28261
3.04665
2.81577
2.6077
2.4224
2.24661
2.08003
1.9518
1.83783
1.71939
1.60901
1.51851
1.44993
1.39297
1.33142
1.26993
1.21021
1.1489
1.11279
1.09135
1.06286
1.02786
0.98476
0.9562
0.937845
0.923261
0.915913
0.917305
0.915658
0.918294
0.930033
0.960272
0.995698
2.45303
3.12381
3.11435
3.168
3.20158
3.21316
3.22685
3.245
3.23347
3.18939
3.10171
2.9586
2.67694
2.22814
3.59212
3.3641
3.14117
2.92352
2.72794
2.54431
2.37026
2.21208
2.07808
1.94669
1.83429
1.7395
1.64682
1.55537
1.46781
1.41474
1.37125
1.31957
1.26011
1.20348
1.16187
1.12497
1.09292
1.06259
1.03167
0.99883
0.968406
0.93984
0.928833
0.923194
0.917874
0.918101
0.920994
0.920731
1.90266
2.90085
2.99594
3.0681
3.1119
3.13728
3.15852
3.18586
3.19713
3.16384
3.07648
2.91777
2.65839
2.2572
3.65269
3.43957
3.22467
3.0243
2.83992
2.65692
2.47836
2.33409
2.19823
2.06817
1.94231
1.8446
1.75264
1.66673
1.57947
1.50959
1.44956
1.39695
1.34788
1.30139
1.25547
1.20671
1.16089
1.12951
1.10512
1.0743
1.04152
1.00495
0.982024
0.967189
0.949629
0.936761
0.931609
0.920196
1.37776
2.71964
2.9324
2.96496
3.01388
3.04636
3.07473
3.10764
3.11833
3.09161
3.00758
2.87315
2.65637
2.32361
3.70881
3.5079
3.30546
3.11963
2.93958
2.75851
2.59252
2.44685
2.30633
2.17276
2.05764
1.95585
1.85286
1.76004
1.68133
1.61724
1.54667
1.4829
1.42376
1.37957
1.33505
1.28943
1.2427
1.20324
1.17084
1.13689
1.10397
1.0708
1.04361
1.01596
0.988739
0.967338
0.952481
0.933165
1.00573
2.32438
2.88204
2.91735
2.94681
2.97039
3.00049
3.02031
3.02896
3.00276
2.93145
2.81448
2.63403
2.37753
3.76983
3.57494
3.38335
3.20599
3.02965
2.85212
2.70022
2.55339
2.41172
2.2725
2.16679
2.06052
1.96041
1.8584
1.78049
1.70972
1.63836
1.57294
1.51049
1.46096
1.40697
1.36049
1.31568
1.27905
1.24034
1.20242
1.16891
1.13915
1.11357
1.0837
1.05529
1.02602
1.00827
0.981923
0.970554
1.7222
2.7927
2.89264
2.91348
2.93262
2.94289
2.94967
2.94457
2.91057
2.8508
2.75023
2.59883
2.40175
3.81486
3.62986
3.45345
3.28013
3.10454
2.94306
2.79934
2.65488
2.50632
2.37917
2.27157
2.16046
2.05582
1.95829
1.88451
1.8017
1.7261
1.65201
1.59772
1.54268
1.48585
1.43304
1.38593
1.35021
1.30945
1.27084
1.23066
1.20215
1.17492
1.14578
1.11911
1.08942
1.06566
1.03595
0.993852
1.1622
2.55071
2.92488
2.90651
2.90612
2.90857
2.89131
2.86974
2.82837
2.77229
2.68855
2.56412
2.4095
3.87371
3.69337
3.52509
3.35773
3.18392
3.03301
2.89485
2.75296
2.60172
2.48526
2.37134
2.26296
2.14785
2.06165
1.97934
1.89298
1.81424
1.73679
1.68225
1.61892
1.56291
1.50639
1.46055
1.4203
1.37509
1.33744
1.29859
1.26967
1.23721
1.20404
1.17552
1.14933
1.12474
1.09789
1.05255
1.05546
1.91328
2.89368
2.93292
2.90963
2.88823
2.8583
2.81697
2.76443
2.71031
2.63658
2.52937
2.40226
3.93239
3.75747
3.59082
3.42975
3.26941
3.11842
2.97948
2.83666
2.69932
2.58354
2.4695
2.34975
2.23562
2.1565
2.0682
1.98383
1.88997
1.82313
1.76333
1.6962
1.63598
1.57506
1.53737
1.49144
1.44557
1.39899
1.36288
1.33625
1.30087
1.26775
1.23156
1.20429
1.17661
1.14841
1.11845
1.08458
1.28621
2.62953
3.00415
2.95491
2.91113
2.85814
2.79523
2.74165
2.67841
2.60186
2.50482
2.39352
4.01326
3.84383
3.67842
3.51574
3.3585
3.21077
3.0683
2.92321
2.79192
2.67543
2.56135
2.4379
2.33147
2.24457
2.15426
2.06503
1.97272
1.91118
1.84366
1.77857
1.70756
1.65215
1.61219
1.56179
1.51649
1.46531
1.43241
1.39938
1.36046
1.32519
1.28842
1.26177
1.23194
1.20279
1.1745
1.13854
1.14702
1.91642
2.98624
3.0148
2.95133
2.88679
2.82239
2.74252
2.66602
2.58206
2.48293
2.37994
4.0908
3.92472
3.75987
3.59421
3.43878
3.29424
3.14849
3.001
2.87847
2.76481
2.64682
2.51897
2.42157
2.33129
2.24018
2.14234
2.05774
1.99514
1.92274
1.85612
1.78031
1.73202
1.68533
1.63263
1.5815
1.52996
1.49957
1.46145
1.42233
1.38061
1.34285
1.31711
1.28606
1.25827
1.22948
1.2049
1.17205
1.3241
2.57562
3.0553
2.99994
2.93959
2.85513
2.76614
2.67852
2.58648
2.48888
2.38662
4.17098
4.00085
3.83766
3.67482
3.52087
3.37625
3.23069
3.08818
2.96669
2.85169
2.72978
2.60755
2.51385
2.41916
2.32427
2.21807
2.14624
2.07832
2.00519
1.92972
1.85598
1.8122
1.75709
1.7037
1.64582
1.60022
1.56677
1.52197
1.48122
1.43447
1.40262
1.37565
1.34277
1.31212
1.27867
1.2627
1.22292
1.22064
1.77008
2.97895
3.07703
3.01134
2.92463
2.82533
2.72765
2.62888
2.52264
2.41143
4.23732
4.09274
3.92033
3.76007
3.61052
3.46608
3.31912
3.18036
3.05912
2.93947
2.81263
2.6968
2.60157
2.50582
2.40407
2.30058
2.23035
2.15769
2.08482
1.99859
1.93502
1.88757
1.82919
1.77321
1.7082
1.67057
1.6316
1.5845
1.53975
1.48949
1.46349
1.43371
1.40009
1.36783
1.33239
1.31474
1.28534
1.24071
1.31216
2.40871
3.10324
3.06418
2.98157
2.8819
2.77777
2.67365
2.56043
2.44454
4.19348
4.16927
4.01349
3.84419
3.69854
3.55462
3.40617
3.27243
3.14995
3.02527
2.89388
2.78498
2.68976
2.59055
2.48245
2.38441
2.31344
2.23739
2.16033
2.07298
2.01452
1.96072
1.90128
1.8387
1.776
1.73979
1.69504
1.64829
1.59582
1.5509
1.52679
1.49303
1.45884
1.41898
1.38578
1.36548
1.33921
1.2852
1.28534
1.64707
2.85244
3.10765
3.03296
2.95069
2.84845
2.74229
2.62658
2.51107
3.64119
4.16147
4.10814
3.94394
3.78701
3.639
3.4943
3.36713
3.24084
3.11097
2.97878
2.87678
2.77615
2.67397
2.56193
2.47418
2.39938
2.31785
2.23386
2.14875
2.09544
2.03505
1.97289
1.90345
1.84596
1.80844
1.75875
1.71073
1.65374
1.61585
1.5894
1.55186
1.51539
1.47065
1.4401
1.41665
1.38951
1.34892
1.3095
1.34384
2.12693
3.04178
3.06867
3.0036
2.91624
2.81605
2.70313
2.58773
2.30677
3.81293
4.12366
4.0452
3.88926
3.72696
3.58517
3.45891
3.33166
3.19599
3.07102
2.97023
2.86433
2.75537
2.64181
2.56378
2.48323
2.39978
2.30682
2.22788
2.17339
2.10787
2.04368
1.96851
1.91926
1.8772
1.82438
1.77264
1.71306
1.68233
1.65152
1.61115
1.5706
1.52066
1.49447
1.46984
1.43915
1.40701
1.36036
1.35103
1.52234
2.58944
3.10678
3.05402
2.9666
2.8751
2.76855
2.65774
1.50989
2.6
3.90897
4.08216
3.99445
3.82754
3.67963
3.5523
3.42359
3.28333
3.16703
3.06147
2.95367
2.8385
2.73177
2.654
2.56605
2.47974
2.3813
2.31148
2.25173
2.18258
2.1141
2.03873
1.99417
1.94621
1.89207
1.8348
1.77786
1.74919
1.71265
1.66995
1.62404
1.57429
1.55083
1.52462
1.49211
1.4572
1.41847
1.3863
1.39576
1.83514
2.88391
3.10309
3.02233
2.92845
2.82867
2.7239
1.40267
1.60077
2.85281
3.94218
4.04315
3.94094
3.78345
3.64863
3.51342
3.37538
3.26571
3.15496
3.04421
2.91849
2.82495
2.7427
2.65153
2.55891
2.45841
2.39745
2.32965
2.25853
2.18315
2.11176
2.06979
2.01509
1.95947
1.89684
1.84535
1.81603
1.77298
1.72795
1.6773
1.63119
1.60939
1.58004
1.54528
1.50828
1.46772
1.44456
1.41943
1.46438
2.21146
3.01317
3.06647
2.98888
2.89495
2.79632
1.40002
1.40698
1.71024
3.04729
3.94253
4.00009
3.89315
3.75073
3.6012
3.47191
3.36063
3.2486
3.13025
3.00726
2.92193
2.83083
2.73865
2.63316
2.54262
2.48358
2.41028
2.33784
2.25069
2.18968
2.14577
2.08671
2.02983
1.9601
1.91554
1.8819
1.83403
1.78731
1.73104
1.69242
1.66998
1.63729
1.60135
1.55959
1.51687
1.50195
1.47056
1.45764
1.62866
2.5584
3.07269
3.05193
2.96897
2.86975
1.40001
1.40006
1.41474
1.82557
3.18773
3.93292
3.95316
3.85876
3.69873
3.56273
3.45266
3.34343
3.21767
3.10488
3.01616
2.91912
2.82606
2.7146
2.63249
2.56718
2.49105
2.41565
2.32618
2.27225
2.221
2.15874
2.09856
2.02882
1.98912
1.94876
1.89665
1.84706
1.79001
1.75662
1.73152
1.69441
1.65714
1.61431
1.56916
1.55586
1.53395
1.48431
1.48796
1.85431
2.79754
3.0978
3.04585
2.94286
1.40001
1.40001
1.40016
1.4266
1.93109
3.29341
3.90793
3.90811
3.81048
3.66283
3.54445
3.42933
3.30376
3.20506
3.10946
3.01146
2.91018
2.79799
2.72855
2.65351
2.57403
2.48972
2.4021
2.35566
2.29742
2.23373
2.16529
2.09671
2.06254
2.01574
1.96142
1.9087
1.85228
1.82181
1.79088
1.75169
1.71595
1.66905
1.62503
1.60967
1.59107
1.54938
1.50179
1.53925
2.10331
2.94035
3.1038
3.02975
1.40001
1.40001
1.40001
1.40036
1.44064
2.03204
3.35059
3.87039
3.87221
3.77186
3.64498
3.51234
3.39102
3.29784
3.19902
3.10464
2.99077
2.89455
2.82192
2.73522
2.65803
2.56391
2.4867
2.43942
2.37401
2.31002
2.2313
2.17282
2.13868
2.08443
2.0311
1.97127
1.9218
1.893
1.85337
1.80944
1.77296
1.7271
1.68501
1.66751
1.64509
1.60995
1.54731
1.54242
1.64581
2.34368
3.0104
3.08904
1.40001
1.40001
1.40001
1.40001
1.40067
1.45688
2.1119
3.3476
3.85566
3.85279
3.75821
3.60573
3.47623
3.38149
3.28893
3.19189
3.08014
2.99468
2.9057
2.82027
2.74428
2.64147
2.57523
2.51944
2.45373
2.38952
2.30193
2.2535
2.21351
2.15339
2.10044
2.03553
1.99345
1.96447
1.9147
1.86834
1.83427
1.78406
1.74239
1.72373
1.69691
1.66585
1.61532
1.57022
1.57812
1.769
2.54405
3.03804
1.40001
1.40001
1.40001
1.40001
1.40001
1.40106
1.47394
2.12814
3.38377
3.82849
3.80506
3.70899
3.57752
3.46952
3.3718
3.2668
3.17243
3.08282
2.98945
2.91248
2.81966
2.72763
2.66345
2.59943
2.53783
2.46207
2.37359
2.33345
2.28823
2.23007
2.16858
2.09503
2.06464
2.03284
1.97846
1.92966
1.89351
1.84687
1.80512
1.78031
1.74967
1.71684
1.67666
1.62563
1.60528
1.61904
1.90519
2.69621
1.40001
1.40001
1.40001
1.40001
1.40001
1.40001
1.40158
1.47947
2.16651
3.3993
3.75193
3.7719
3.6942
3.57405
3.44829
3.34557
3.25808
3.16322
3.07611
2.98858
2.90169
2.81723
2.74192
2.67906
2.62057
2.53996
2.45149
2.40558
2.36082
2.30787
2.23918
2.16858
2.13869
2.09945
2.04301
1.99303
1.9574
1.91059
1.86606
1.8383
1.80513
1.77119
1.73011
1.68275
1.66142
1.64
1.66247
2.04634
1.40001
1.40001
1.40001
1.40001
1.40001
1.40001
1.40001
1.40187
1.48706
2.21549
3.30956
3.73247
3.76202
3.68454
3.54642
3.43558
3.33971
3.24953
3.15414
3.0703
2.98937
2.90254
2.82443
2.75992
2.69451
2.6146
2.53273
2.48267
2.4367
2.38136
2.30577