/*--------------------------------*- C++ -*----------------------------------*\
  =========                 |
  \\      /  F ield         | OpenFOAM: The Open Source CFD Toolbox
   \\    /   O peration     | Website:  https://openfoam.org
    \\  /    A nd           | Version:  7
     \\/     M anipulation  |
\*---------------------------------------------------------------------------*/
FoamFile
{
    version     2.0;
    format      ascii;
    class       volScalarField;
    location    "1.6";
    object      rho;
}
// * * * * * * * * * * * * * * * * * * * * * * * * * * * * * * * * * * * * * //

dimensions      [1 -3 0 0 0 0 0];

internalField   nonuniform List<scalar> 
16192
(
2.09136
2.09055
2.08886
2.08569
2.07669
2.05118
2.01406
1.99642
1.99213
1.99091
1.99099
1.99253
1.99774
2.01182
2.04062
2.07005
2.07887
2.07914
2.07826
2.07632
2.07185
2.05812
2.01976
1.96829
1.948
1.9425
1.93996
1.93802
1.93743
1.94485
1.97332
2.00479
2.01037
2.00954
2.00827
2.00568
1.99683
1.96821
1.92678
1.91017
1.90563
1.90369
1.90226
1.90128
1.90325
1.91894
1.95323
1.9759
1.97829
1.97823
1.97706
1.9701
1.94162
1.89514
1.87481
1.8704
1.86819
1.86576
1.86269
1.86009
1.8582
1.85673
1.85686
1.86448
1.88799
1.92089
1.93187
1.92924
1.92382
1.91349
1.88638
1.83646
1.80766
1.80344
1.80204
1.80125
1.80219
1.80696
1.81415
1.82557
1.84585
1.86219
1.86274
1.85703
1.84252
1.81443
1.79214
1.7878
1.78704
1.79131
1.8068
1.81593
1.8147
1.81168
1.80731
1.7961
1.77492
1.76077
1.7558
1.75398
1.75346
1.75633
1.77089
1.79965
1.82092
1.82309
1.82053
1.81497
1.79892
1.76207
1.73233
1.72395
1.72143
1.72158
1.72898
1.73794
1.73656
1.73253
1.72648
1.71445
1.70201
1.69795
1.697
1.69652
1.69896
1.71005
1.72001
1.7221
1.72081
1.71082
1.68
1.64697
1.63351
1.62534
1.61682
1.61066
1.60828
1.60712
1.61137
1.6415
1.68298
1.69493
1.69644
1.69597
1.68968
1.65751
1.60795
1.5907
1.58752
1.58622
1.58684
1.60272
1.63674
1.64753
1.64691
1.64378
1.63534
1.60854
1.5612
1.5383
1.53435
1.53319
1.53263
1.53292
1.53827
1.5623
1.6113
1.63952
1.64064
1.63942
1.63514
1.61864
1.57251
1.52634
1.51301
1.50889
1.50658
1.50492
1.50401
1.50898
1.53392
1.56484
1.5763
1.57791
1.57764
1.57676
1.5734
1.55644
1.51278
1.4826
1.47809
1.47743
1.4797
1.48605
1.49587
1.50914
1.52914
1.56319
1.60523
1.61971
1.61988
1.61901
1.61371
1.60139
1.57867
1.54627
1.52587
1.52042
1.51846
1.51816
1.52026
1.52382
1.5322
1.55536
1.57869
1.58185
1.58074
1.5794
1.57481
1.55704
1.52443
1.51062
1.5081
1.50695
1.50624
1.51141
1.52799
1.532
1.52868
1.5241
1.51664
1.49665
1.46391
1.45064
1.44844
1.44731
1.44682
1.44989
1.46579
1.49275
1.50721
1.51007
1.51134
1.51091
1.4957
1.45923
1.4402
1.43676
1.43485
1.43301
1.43184
1.43695
1.46182
2.08435
2.09198
2.09042
2.08702
2.08205
2.07307
2.05037
2.01411
1.99327
1.98877
1.98758
1.98797
1.98987
1.99446
2.00579
2.03211
2.06745
2.08049
2.07971
2.07835
2.07611
2.07136
2.05683
2.01587
1.96085
1.93928
1.93362
1.93127
1.92968
1.92927
1.93707
1.96672
2.00273
2.01088
2.00962
2.00794
2.00509
1.99609
1.9672
1.92382
1.9046
1.89959
1.89757
1.89632
1.89545
1.89764
1.91329
1.94811
1.97427
1.9776
1.97658
1.97465
1.96718
1.93789
1.88886
1.86708
1.86248
1.86045
1.85903
1.85752
1.85639
1.85563
1.85594
1.85862
1.86437
1.88008
1.90745
1.92026
1.9186
1.91356
1.90388
1.88177
1.84056
1.81106
1.80547
1.80414
1.80423
1.80717
1.80959
1.81104
1.81574
1.83073
1.84799
1.84991
1.84622
1.83651
1.81668
1.79763
1.79326
1.79401
1.80029
1.80887
1.81232
1.81061
1.80629
1.79922
1.78531
1.76717
1.75727
1.75459
1.75414
1.75687
1.76466
1.7766
1.79303
1.81066
1.81645
1.81419
1.80727
1.79092
1.757
1.72763
1.71886
1.71604
1.71591
1.72116
1.72928
1.7303
1.72752
1.72049
1.70772
1.69885
1.69676
1.6961
1.69669
1.70582
1.72214
1.72683
1.72578
1.721
1.70376
1.66334
1.63032
1.61858
1.61292
1.60887
1.60658
1.60573
1.60742
1.62101
1.65728
1.69075
1.69693
1.69638
1.6942
1.67941
1.6324
1.59293
1.58599
1.58457
1.58394
1.58939
1.6177
1.64682
1.64795
1.6436
1.63613
1.62025
1.58246
1.54312
1.53387
1.53244
1.53197
1.5325
1.53764
1.55228
1.58631
1.629
1.64133
1.6398
1.6358
1.6271
1.60246
1.55076
1.51473
1.5073
1.50524
1.50349
1.50247
1.5042
1.51562
1.53993
1.56324
1.57246
1.57365
1.57322
1.57188
1.56628
1.5447
1.50233
1.47899
1.47533
1.47417
1.47632
1.4822
1.4912
1.50381
1.523
1.55726
1.60196
1.61701
1.61809
1.61779
1.61456
1.60492
1.58387
1.5548
1.53491
1.52701
1.524
1.52259
1.52088
1.51981
1.52564
1.55204
1.57336
1.57466
1.57371
1.57295
1.56912
1.54968
1.51867
1.50849
1.50675
1.50569
1.50536
1.51408
1.5278
1.52789
1.52452
1.51917
1.50834
1.48237
1.45416
1.44778
1.44636
1.4454
1.44527
1.4511
1.47308
1.50128
1.5109
1.51231
1.51301
1.50924
1.4832
1.44496
1.43191
1.4292
1.42707
1.4252
1.42428
1.43748
2.06159
2.07398
2.08284
2.08233
2.08014
2.07678
2.06981
2.0522
2.01798
1.99164
1.98599
1.98486
1.98551
1.98736
1.99084
1.99982
2.0243
2.06275
2.07955
2.07856
2.07661
2.0737
2.06773
2.05132
2.00873
1.95355
1.93261
1.92742
1.92535
1.92409
1.9241
1.93229
1.96008
1.99768
2.00991
2.0084
2.00562
2.00185
1.99265
1.96454
1.92025
1.89945
1.8948
1.89298
1.89194
1.89145
1.89497
1.90992
1.94031
1.9676
1.97328
1.97188
1.96875
1.96016
1.93135
1.88406
1.86151
1.85732
1.85584
1.85497
1.85452
1.85603
1.85762
1.85705
1.85607
1.8572
1.86792
1.89363
1.90873
1.90783
1.90463
1.89819
1.882
1.84634
1.81444
1.80771
1.80641
1.80612
1.80545
1.80393
1.80288
1.80482
1.81873
1.83862
1.84318
1.84306
1.83926
1.82654
1.80821
1.79984
1.79731
1.79654
1.79888
1.80259
1.80233
1.79926
1.79454
1.78692
1.77543
1.76457
1.76087
1.7611
1.76483
1.76892
1.77313
1.78236
1.79935
1.80752
1.80553
1.7995
1.78696
1.75888
1.72621
1.71384
1.71031
1.70939
1.71146
1.7182
1.72208
1.7207
1.71559
1.70615
1.69888
1.69738
1.69764
1.70316
1.71896
1.72758
1.72612
1.72156
1.71189
1.68577
1.64117
1.61764
1.6117
1.60923
1.6075
1.60687
1.60875
1.61691
1.63449
1.66585
1.69162
1.69529
1.69352
1.68734
1.66338
1.61332
1.58766
1.58527
1.58472
1.5875
1.59904
1.62232
1.63541
1.63421
1.62954
1.62047
1.60192
1.56678
1.53887
1.53433
1.53402
1.53538
1.54097
1.5511
1.56816
1.60014
1.63035
1.6342
1.63155
1.62631
1.61551
1.58709
1.53553
1.50843
1.5049
1.50385
1.50283
1.50267
1.50537
1.51571
1.53779
1.5602
1.56844
1.56901
1.56916
1.56805
1.56104
1.538
1.50004
1.47854
1.47252
1.4705
1.47152
1.47493
1.48155
1.49331
1.515
1.55593
1.60445
1.61995
1.62172
1.62203
1.62037
1.61207
1.59369
1.56786
1.54251
1.52377
1.51639
1.51441
1.51222
1.51123
1.52024
1.55076
1.56762
1.56802
1.56807
1.56849
1.56504
1.54335
1.51451
1.50742
1.50629
1.5056
1.50683
1.51568
1.51973
1.51688
1.51357
1.50916
1.49673
1.46858
1.44855
1.44536
1.44419
1.4435
1.44482
1.45636
1.4834
1.50737
1.51249
1.51303
1.51242
1.50113
1.46345
1.43146
1.42438
1.42224
1.42014
1.41857
1.42373
2.05102
2.05377
2.06503
2.07495
2.07524
2.07412
2.07267
2.06877
2.05591
2.02337
1.99141
1.98359
1.98212
1.98257
1.98387
1.98665
1.99463
2.01692
2.0553
2.07675
2.0767
2.07355
2.06874
2.06092
2.04403
2.00351
1.94936
1.9278
1.92321
1.92132
1.92041
1.92101
1.92832
1.95114
1.98737
2.00421
2.00368
2.00104
1.99715
1.98864
1.9633
1.9192
1.89566
1.89103
1.88931
1.88868
1.88912
1.89301
1.90392
1.9282
1.95691
1.96593
1.96485
1.96117
1.95303
1.92806
1.88357
1.85796
1.85371
1.85282
1.85544
1.85767
1.85574
1.8533
1.85037
1.84778
1.84703
1.85573
1.88329
1.90143
1.90203
1.90103
1.89794
1.88623
1.85349
1.8166
1.80594
1.80278
1.80056
1.79784
1.79545
1.79421
1.79639
1.81512
1.84208
1.84776
1.84759
1.84458
1.83396
1.81131
1.79493
1.7893
1.78738
1.78689
1.79092
1.79658
1.79675
1.79589
1.79322
1.78636
1.77584
1.76814
1.76531
1.76443
1.76366
1.76417
1.77126
1.79024
1.80053
1.79884
1.79514
1.78698
1.76333
1.72527
1.70662
1.70207
1.70076
1.70078
1.70663
1.71632
1.71771
1.71603
1.71027
1.70433
1.70309
1.70447
1.7114
1.72056
1.7214
1.71858
1.71155
1.69725
1.66602
1.62597
1.61325
1.61137
1.61032
1.60998
1.61192
1.61701
1.62406
1.63866
1.66741
1.68945
1.69149
1.68963
1.68151
1.65501
1.61091
1.59247
1.59031
1.58974
1.59094
1.59776
1.61269
1.62017
1.61823
1.61387
1.60723
1.5942
1.56842
1.54586
1.54207
1.54267
1.54667
1.55227
1.55792
1.57113
1.60233
1.626
1.62634
1.62353
1.6188
1.60781
1.5765
1.52451
1.50158
1.49859
1.49752
1.49708
1.49681
1.49869
1.51031
1.53666
1.56102
1.56736
1.56795
1.56829
1.56786
1.56076
1.53479
1.49697
1.47462
1.46394
1.46096
1.46135
1.46341
1.46985
1.48493
1.51444
1.5636
1.61456
1.62925
1.63093
1.63142
1.6308
1.62351
1.60234
1.569
1.53444
1.51262
1.50611
1.50338
1.50137
1.50168
1.51761
1.54981
1.56197
1.56363
1.5651
1.56597
1.5626
1.54012
1.51416
1.50863
1.50733
1.50661
1.50748
1.51125
1.50936
1.50565
1.5026
1.49795
1.48447
1.45844
1.44537
1.44375
1.44317
1.44368
1.44902
1.46441
1.49027
1.5084
1.51128
1.51137
1.50744
1.48537
1.44337
1.42307
1.41867
1.41654
1.41476
1.41699
2.04416
2.04242
2.04417
2.05843
2.0711
2.07251
2.07208
2.07105
2.06864
2.05824
2.02561
1.98978
1.98027
1.97853
1.97892
1.98024
1.98335
1.99094
2.01005
2.0451
2.06953
2.07066
2.06711
2.06166
2.0531
2.03779
2.00192
1.94853
1.92421
1.92004
1.91844
1.91759
1.91755
1.92205
1.94062
1.97736
1.99842
1.99845
1.99614
1.99323
1.98619
1.96436
1.92124
1.89317
1.88745
1.88581
1.88533
1.88538
1.88691
1.89317
1.9129
1.94417
1.9577
1.95739
1.95453
1.94816
1.92834
1.88708
1.85684
1.85198
1.85119
1.85194
1.85114
1.84877
1.84475
1.84028
1.83761
1.83674
1.84659
1.88029
1.90333
1.90497
1.90404
1.90111
1.89023
1.85566
1.8137
1.80017
1.79591
1.79302
1.79073
1.78936
1.78881
1.795
1.82245
1.84956
1.85109
1.84923
1.84466
1.83073
1.80361
1.78587
1.77974
1.77792
1.77779
1.78453
1.79725
1.80235
1.80364
1.80247
1.79664
1.78159
1.7658
1.75953
1.75726
1.75566
1.75524
1.76255
1.78569
1.79742
1.79603
1.79311
1.78597
1.76168
1.71839
1.69725
1.69288
1.69167
1.6916
1.69887
1.7153
1.72069
1.72014
1.71659
1.71253
1.71082
1.71037
1.71226
1.71343
1.71094
1.70603
1.69796
1.68312
1.65457
1.62234
1.61363
1.61253
1.61237
1.61355
1.61614
1.61909
1.62443
1.64053
1.67167
1.6884
1.6888
1.68673
1.67824
1.65196
1.61062
1.59331
1.5897
1.58711
1.58503
1.58675
1.60069
1.60861
1.60726
1.60554
1.60315
1.59512
1.57298
1.55237
1.5498
1.55072
1.55215
1.5524
1.55428
1.56927
1.6054
1.62314
1.62238
1.61977
1.61513
1.60197
1.56259
1.5102
1.49385
1.49141
1.48969
1.4882
1.48732
1.49052
1.50933
1.54398
1.56659
1.57145
1.57271
1.57302
1.57074
1.55739
1.52349
1.48485
1.46166
1.45249
1.45134
1.45134
1.45337
1.46269
1.48442
1.52279
1.58037
1.62902
1.64219
1.64388
1.64397
1.64102
1.62715
1.59703
1.55497
1.51631
1.4993
1.49552
1.4931
1.4916
1.49476
1.51734
1.54785
1.55947
1.56286
1.56508
1.56632
1.56243
1.53633
1.51203
1.50754
1.50559
1.50368
1.50247
1.50125
1.49767
1.49495
1.49262
1.48868
1.47611
1.45392
1.44492
1.44398
1.44399
1.44626
1.45339
1.46884
1.49279
1.50639
1.50776
1.50684
1.49791
1.46746
1.42971
1.41725
1.41352
1.4116
1.41275
2.03828
2.03573
2.03427
2.03915
2.05957
2.07172
2.07232
2.07155
2.07031
2.06763
2.05696
2.02379
1.98685
1.97654
1.97496
1.97574
1.97778
1.98138
1.98804
2.0032
2.0339
2.05983
2.06162
2.05788
2.05322
2.04588
2.0333
2.00244
1.9498
1.92126
1.91596
1.91413
1.9129
1.91213
1.9144
1.93031
1.96751
1.99362
1.99456
1.99267
1.99027
1.98457
1.96605
1.924
1.89049
1.88253
1.88033
1.87934
1.87843
1.8779
1.88115
1.89858
1.93261
1.95096
1.95164
1.94987
1.94583
1.93158
1.89528
1.85832
1.84828
1.84607
1.84487
1.84271
1.83872
1.83354
1.83027
1.82848
1.82878
1.84479
1.88625
1.9092
1.90878
1.90668
1.90245
1.88748
1.84489
1.8044
1.79466
1.79155
1.78954
1.788
1.78726
1.78881
1.79994
1.82737
1.8493
1.84954
1.8457
1.83864
1.82198
1.79422
1.77792
1.77228
1.77127
1.7726
1.78652
1.807
1.81233
1.81201
1.8093
1.79978
1.77661
1.75775
1.752
1.74974
1.74837
1.74837
1.75857
1.78547
1.79663
1.79437
1.78969
1.78043
1.75192
1.70723
1.68952
1.68635
1.68545
1.68604
1.6966
1.71781
1.72583
1.72586
1.72308
1.71751
1.71197
1.7084
1.70726
1.70446
1.69958
1.69433
1.68689
1.6731
1.64793
1.6205
1.61345
1.61258
1.61266
1.61395
1.61566
1.61784
1.6245
1.64716
1.68104
1.69103
1.69093
1.6886
1.67915
1.6489
1.60263
1.58257
1.57747
1.57469
1.57311
1.57673
1.59373
1.60369
1.60527
1.60624
1.6063
1.6013
1.57931
1.55678
1.55157
1.54974
1.54822
1.54732
1.55029
1.57449
1.6143
1.62313
1.62171
1.61854
1.61192
1.59055
1.53704
1.49317
1.48431
1.48168
1.47941
1.4777
1.47766
1.48702
1.51887
1.55954
1.57668
1.57938
1.57958
1.57769
1.56849
1.54326
1.50069
1.46295
1.44651
1.44324
1.4424
1.44267
1.44751
1.46349
1.49415
1.54109
1.60546
1.64226
1.64728
1.64832
1.64756
1.64062
1.61958
1.57985
1.52965
1.49711
1.48949
1.48686
1.4848
1.48419
1.49223
1.52021
1.55068
1.56295
1.56715
1.56911
1.56981
1.5606
1.52648
1.50543
1.50139
1.49903
1.49637
1.49408
1.49129
1.48896
1.48776
1.48598
1.4822
1.4702
1.4513
1.44502
1.44455
1.44474
1.44758
1.45515
1.47121
1.49353
1.50252
1.50286
1.50016
1.48618
1.45122
1.42068
1.41077
1.40847
1.40925
2.03422
2.0318
2.03006
2.03042
2.04179
2.06306
2.07088
2.07026
2.06884
2.06706
2.06333
2.0526
2.02264
1.98553
1.97396
1.97293
1.97377
1.97646
1.97987
1.9844
1.99581
2.02457
2.05153
2.05297
2.04902
2.0453
2.03969
2.02944
2.00097
1.94741
1.9167
1.91127
1.9094
1.90792
1.90682
1.90816
1.92202
1.95836
1.98974
1.99244
1.99032
1.98784
1.98252
1.96511
1.92286
1.88556
1.87578
1.87277
1.87127
1.86995
1.86894
1.87072
1.88688
1.9228
1.94625
1.94822
1.94746
1.94471
1.93317
1.89727
1.85442
1.841
1.8371
1.83469
1.83188
1.82856
1.82627
1.82496
1.82456
1.82932
1.84955
1.8881
1.91017
1.90939
1.90522
1.8979
1.87787
1.83159
1.79736
1.79172
1.78999
1.7887
1.78789
1.78827
1.79192
1.80287
1.82537
1.8422
1.84238
1.83872
1.83128
1.81389
1.78709
1.77322
1.76949
1.76902
1.77392
1.79588
1.81499
1.81616
1.81364
1.80828
1.79291
1.76557
1.75172
1.74769
1.74515
1.7437
1.74397
1.75493
1.78009
1.79043
1.78856
1.78288
1.77081
1.73962
1.69897
1.686
1.68388
1.68323
1.68525
1.70113
1.72536
1.73126
1.73006
1.7264
1.71852
1.70909
1.70235
1.69891
1.69457
1.68939
1.68404
1.67672
1.66432
1.64262
1.61883
1.61204
1.61126
1.61105
1.61173
1.61399
1.61835
1.63052
1.66239
1.69262
1.69456
1.69249
1.6873
1.67266
1.63296
1.58559
1.56997
1.56607
1.56406
1.56349
1.57288
1.59632
1.60761
1.61123
1.6129
1.61308
1.60549
1.57652
1.55252
1.54731
1.54569
1.54455
1.54401
1.55287
1.58858
1.6222
1.62414
1.6204
1.61377
1.60042
1.56328
1.50324
1.47863
1.47498
1.4733
1.47203
1.47171
1.47666
1.49986
1.54602
1.57868
1.5831
1.58287
1.57996
1.5711
1.55322
1.51707
1.47015
1.44656
1.44184
1.44035
1.44012
1.44264
1.45396
1.47841
1.51434
1.56677
1.62592
1.64276
1.64514
1.64564
1.64301
1.63143
1.60318
1.55244
1.50363
1.48798
1.4845
1.48228
1.48103
1.48235
1.49647
1.52827
1.55893
1.56975
1.57139
1.57193
1.56973
1.54879
1.51181
1.49779
1.49448
1.49175
1.48852
1.48561
1.48342
1.4838
1.48349
1.48143
1.47734
1.46501
1.44758
1.44239
1.44225
1.44321
1.44728
1.45598
1.47393
1.49343
1.49794
1.49749
1.49211
1.47331
1.43747
1.41189
1.40532
1.40616
2.03239
2.03036
2.02886
2.02881
2.03302
2.04378
2.05764
2.06394
2.06359
2.06201
2.06063
2.05831
2.05053
2.02559
1.98707
1.97272
1.972
1.97303
1.9747
1.97548
1.97724
1.98687
2.01685
2.04453
2.04546
2.04184
2.03885
2.03419
2.02488
1.99695
1.94262
1.91243
1.90761
1.9057
1.90419
1.90316
1.90466
1.917
1.94919
1.9839
1.99057
1.98773
1.98368
1.97736
1.9602
1.91738
1.87862
1.86889
1.8659
1.86432
1.86291
1.86181
1.86371
1.87963
1.91594
1.9438
1.94678
1.94468
1.94056
1.92837
1.89133
1.84643
1.83184
1.82797
1.82652
1.82565
1.82472
1.82383
1.82431
1.82796
1.83423
1.84931
1.88103
1.90344
1.90362
1.89936
1.89077
1.87055
1.82797
1.79669
1.79164
1.7903
1.78939
1.78901
1.78983
1.793
1.80224
1.82198
1.83559
1.83508
1.8319
1.82588
1.81139
1.787
1.77253
1.77026
1.77085
1.77755
1.79383
1.80956
1.81273
1.80958
1.80073
1.78345
1.76074
1.7486
1.7444
1.74141
1.73982
1.73995
1.74913
1.76902
1.77856
1.77788
1.77333
1.7617
1.73221
1.69516
1.68505
1.68406
1.68392
1.69036
1.71508
1.73367
1.73445
1.73239
1.72774
1.7166
1.70243
1.69329
1.68794
1.68291
1.67774
1.67222
1.66546
1.65587
1.6383
1.6179
1.61207
1.61183
1.61238
1.61443
1.61878
1.62709
1.64473
1.6768
1.69491
1.69324
1.68738
1.67683
1.65408
1.6074
1.57064
1.56277
1.56061
1.55952
1.56257
1.58193
1.60743
1.61602
1.61695
1.6167
1.61389
1.59872
1.56509
1.54792
1.54552
1.54447
1.54391
1.54663
1.56447
1.59928
1.61467
1.61302
1.60819
1.59888
1.57749
1.52776
1.48301
1.47459
1.47271
1.47162
1.4715
1.47648
1.49274
1.52493
1.56232
1.57682
1.57737
1.57572
1.56931
1.55644
1.531
1.48579
1.45041
1.44256
1.44061
1.43974
1.4411
1.45061
1.47022
1.4972
1.53239
1.58501
1.62874
1.63708
1.63932
1.63878
1.63282
1.61715
1.58189
1.52575
1.49104
1.4846
1.48237
1.48116
1.4809
1.48531
1.50406
1.53764
1.5628
1.56884
1.56955
1.56943
1.56185
1.53074
1.49956
1.49133
1.48846
1.48545
1.48252
1.48012
1.48044
1.4828
1.4813
1.47871
1.47264
1.45736
1.44247
1.43937
1.43944
1.44108
1.44587
1.45663
1.47728
1.49182
1.49305
1.49175
1.48383
1.46158
1.42494
1.40317
1.40237
2.03101
2.02969
2.0289
2.02954
2.03161
2.034
2.03963
2.04983
2.05714
2.05829
2.05786
2.05769
2.05699
2.05236
2.03148
1.99161
1.97289
1.97041
1.97021
1.96928
1.96816
1.96861
1.97841
2.0109
2.03828
2.0387
2.03537
2.03294
2.02915
2.02049
1.9928
1.938
1.90879
1.90509
1.90337
1.90206
1.9016
1.90358
1.91268
1.93767
1.97137
1.98213
1.98039
1.9768
1.97069
1.95309
1.90947
1.87265
1.86446
1.86176
1.86002
1.85854
1.85787
1.86106
1.87528
1.90546
1.93334
1.93889
1.93658
1.93128
1.91853
1.88411
1.84141
1.82645
1.82387
1.82327
1.82341
1.82434
1.82658
1.82972
1.8312
1.83288
1.84291
1.87233
1.89471
1.89481
1.89175
1.8855
1.8685
1.82863
1.79663
1.79141
1.79012
1.78938
1.78904
1.78931
1.79116
1.79889
1.81731
1.83006
1.83081
1.82969
1.82727
1.81927
1.80035
1.78072
1.77397
1.77247
1.77496
1.78358
1.79621
1.80166
1.79958
1.79265
1.78143
1.76527
1.74962
1.74134
1.73729
1.73546
1.73503
1.74063
1.75427
1.76533
1.76749
1.76529
1.7569
1.73124
1.69585
1.68621
1.68565
1.68882
1.70694
1.73374
1.73809
1.73595
1.73244
1.72479
1.7076
1.6893
1.67893
1.67247
1.6677
1.66434
1.66167
1.65856
1.6528
1.63814
1.62056
1.61626
1.61618
1.61778
1.62238
1.62984
1.63963
1.65621
1.67898
1.68395
1.67973
1.67202
1.65897
1.63253
1.5878
1.56386
1.56077
1.55997
1.56158
1.57155
1.58937
1.60497
1.61223
1.61367
1.61365
1.60904
1.58984
1.55937
1.54773
1.54636
1.54579
1.54669
1.55272
1.57145
1.59706
1.60168
1.59775
1.59151
1.57996
1.55352
1.50523
1.47803
1.47499
1.47424
1.47458
1.47996
1.49193
1.50956
1.53743
1.56423
1.56987
1.56868
1.56407
1.55429
1.53762
1.50641
1.46444
1.4467
1.44393
1.44277
1.44339
1.45051
1.46567
1.48429
1.50707
1.54158
1.59353
1.62166
1.6268
1.62868
1.62755
1.62092
1.60302
1.5616
1.50735
1.48736
1.48422
1.48245
1.48198
1.48234
1.48849
1.51085
1.54544
1.56337
1.56559
1.56608
1.56424
1.54982
1.51454
1.49224
1.48679
1.48391
1.48122
1.47862
1.47766
1.47977
1.47836
1.47597
1.47332
1.46594
1.44899
1.43692
1.43502
1.43532
1.43779
1.44435
1.45941
1.48109
1.48934
1.48928
1.48639
1.47518
1.44777
1.40875
1.39846
2.03054
2.0298
2.03078
2.03163
2.03002
2.02834
2.02736
2.02982
2.04098
2.05307
2.05646
2.05793
2.05918
2.05965
2.05659
2.03616
1.99273
1.97003
1.9655
1.96386
1.96191
1.96023
1.96016
1.9709
2.00561
2.03223
2.03295
2.03058
2.02892
2.02593
2.01817
1.99174
1.93761
1.90758
1.90364
1.90183
1.90061
1.89989
1.90026
1.90539
1.92507
1.95901
1.97369
1.97283
1.96991
1.96451
1.9474
1.90412
1.86831
1.8614
1.85935
1.85776
1.85685
1.8575
1.86048
1.86887
1.89063
1.91766
1.92618
1.92521
1.92109
1.91136
1.88354
1.84185
1.82413
1.82249
1.82271
1.82659
1.83163
1.83082
1.82848
1.82648
1.82579
1.83512
1.86719
1.8897
1.89
1.88825
1.8841
1.86897
1.82965
1.79642
1.79054
1.78895
1.78778
1.78686
1.78622
1.78669
1.79416
1.8144
1.82954
1.83274
1.83404
1.83388
1.83046
1.81674
1.78994
1.7717
1.7669
1.76672
1.77004
1.78209
1.79259
1.79155
1.7882
1.78239
1.77113
1.75257
1.73717
1.73076
1.72871
1.72779
1.73011
1.74021
1.75474
1.76121
1.76082
1.75556
1.73245
1.69904
1.69073
1.69218
1.70404
1.73036
1.74244
1.73977
1.73584
1.72899
1.71237
1.68643
1.66769
1.66025
1.65818
1.65741
1.65741
1.65824
1.65783
1.65353
1.6401
1.62814
1.62663
1.62808
1.63296
1.63715
1.63887
1.64208
1.65563
1.67185
1.6708
1.66465
1.6576
1.64613
1.62172
1.5837
1.56593
1.56428
1.56477
1.56969
1.57883
1.5908
1.60335
1.60928
1.60957
1.60863
1.60248
1.58405
1.55861
1.55004
1.54871
1.5482
1.54828
1.5517
1.56551
1.58407
1.58507
1.58047
1.57412
1.56305
1.53753
1.49876
1.48286
1.48157
1.48182
1.48596
1.4937
1.50153
1.514
1.53881
1.55819
1.55898
1.55585
1.54932
1.53965
1.52334
1.49132
1.45647
1.4475
1.44616
1.44623
1.45133
1.46156
1.47291
1.4867
1.50839
1.54575
1.59259
1.6123
1.61718
1.61912
1.61817
1.61236
1.59209
1.54463
1.49744
1.48503
1.48254
1.48095
1.48031
1.48102
1.49002
1.51758
1.55029
1.5607
1.5615
1.56177
1.55737
1.53707
1.50264
1.48743
1.48214
1.47893
1.47623
1.47464
1.47607
1.47629
1.4735
1.47099
1.46745
1.45723
1.43986
1.43181
1.43098
1.43215
1.43623
1.44536
1.46422
1.48283
1.4861
1.48506
1.47944
1.46469
1.42967
1.39877
2.03137
2.02808
2.02684
2.02672
2.02537
2.02308
2.02091
2.01949
2.02211
2.03791
2.05516
2.05907
2.06098
2.06278
2.06331
2.05961
2.03492
1.98715
1.96388
1.95838
1.95629
1.9543
1.95251
1.95255
1.96468
1.99889
2.02645
2.03005
2.02903
2.02738
2.02478
2.01793
1.99261
1.93804
1.90594
1.90081
1.89862
1.89676
1.89508
1.89388
1.89583
1.9117
1.94556
1.96575
1.96669
1.96496
1.96083
1.94532
1.90451
1.86818
1.86063
1.85892
1.85777
1.85652
1.85528
1.85462
1.85808
1.8746
1.90271
1.91613
1.917
1.91562
1.90979
1.88888
1.84891
1.82665
1.82485
1.82617
1.82807
1.82688
1.8244
1.82144
1.81936
1.81889
1.8305
1.86772
1.89043
1.89049
1.88895
1.88492
1.86965
1.82941
1.79486
1.78794
1.7859
1.78423
1.78234
1.78068
1.78057
1.79062
1.81612
1.83295
1.83932
1.84362
1.84555
1.84333
1.82536
1.78534
1.75982
1.75483
1.75377
1.75615
1.77264
1.79021
1.78983
1.787
1.78261
1.77322
1.7526
1.73075
1.72216
1.7199
1.71887
1.71983
1.72937
1.74888
1.76005
1.76108
1.75797
1.73882
1.71259
1.70661
1.70878
1.71897
1.73606
1.74032
1.7358
1.72781
1.71155
1.68239
1.66031
1.65422
1.6524
1.65212
1.65318
1.65654
1.65978
1.66059
1.65813
1.64747
1.6392
1.63855
1.63935
1.63798
1.63549
1.63397
1.63597
1.65033
1.66118
1.65818
1.65293
1.64795
1.63964
1.61949
1.58633
1.57169
1.5704
1.57032
1.57191
1.57601
1.58549
1.59978
1.60579
1.6058
1.60513
1.59987
1.58162
1.55699
1.54929
1.54739
1.54541
1.54352
1.54325
1.55403
1.57051
1.57034
1.5667
1.56288
1.55461
1.5307
1.49772
1.48879
1.48844
1.49037
1.49453
1.49686
1.49983
1.51164
1.5374
1.54948
1.5482
1.54459
1.53954
1.53099
1.51504
1.48401
1.45708
1.45238
1.45177
1.45298
1.45743
1.46399
1.47222
1.485
1.50896
1.54782
1.58702
1.60528
1.61104
1.61359
1.61358
1.60733
1.58062
1.52442
1.48875
1.48269
1.48018
1.47808
1.47724
1.47865
1.49215
1.5254
1.5525
1.55729
1.55776
1.5574
1.54987
1.52498
1.49538
1.48265
1.47595
1.47327
1.47125
1.47051
1.47234
1.47113
1.46812
1.46526
1.46024
1.44825
1.43352
1.42884
1.42879
1.43086
1.43591
1.44679
1.46722
1.48107
1.48157
1.47926
1.47158
1.45181
1.41081
2.04908
2.02999
2.02398
2.02171
2.01982
2.01767
2.0155
2.01362
2.01284
2.0182
2.03805
2.05829
2.06375
2.06464
2.0647
2.0638
2.05773
2.02821
1.97892
1.95701
1.95116
1.94891
1.94704
1.94535
1.94584
1.95864
1.99359
2.02625
2.03091
2.02947
2.02747
2.0247
2.01764
1.99129
1.93418
1.89942
1.89314
1.89111
1.88929
1.88743
1.88598
1.88695
1.90083
1.93542
1.96042
1.96282
1.96198
1.959
1.94569
1.90803
1.86995
1.8591
1.85538
1.85268
1.85008
1.84797
1.84668
1.84821
1.86235
1.89233
1.91064
1.91328
1.91396
1.91159
1.89611
1.85773
1.82951
1.82479
1.82343
1.82197
1.81981
1.81688
1.81448
1.81295
1.81347
1.82991
1.87202
1.89373
1.89352
1.89182
1.88674
1.86872
1.82517
1.79242
1.78427
1.78029
1.77729
1.77511
1.77379
1.776
1.79505
1.82749
1.84458
1.85288
1.85693
1.85729
1.85089
1.81721
1.76527
1.74514
1.74227
1.74152
1.74603
1.76945
1.79016
1.78948
1.78634
1.78193
1.77203
1.74724
1.72058
1.71264
1.71116
1.71064
1.71263
1.72599
1.75022
1.7628
1.76572
1.76515
1.75221
1.72863
1.72085
1.71983
1.72117
1.72475
1.7227
1.71587
1.70383
1.68403
1.66414
1.6536
1.6497
1.64837
1.64945
1.65578
1.66347
1.66879
1.6709
1.67016
1.66125
1.64789
1.63959
1.63456
1.6311
1.62875
1.62738
1.63074
1.64635
1.65438
1.65163
1.64941
1.64762
1.64204
1.62159
1.58528
1.57029
1.56861
1.56772
1.5673
1.56959
1.58184
1.6001
1.60599
1.60626
1.60508
1.59804
1.57636
1.55089
1.54184
1.53846
1.53555
1.53335
1.53299
1.5457
1.56368
1.56446
1.56309
1.56124
1.55357
1.52746
1.49767
1.49231
1.49206
1.49246
1.49191
1.49135
1.49405
1.51062
1.53623
1.54238
1.54079
1.53699
1.53175
1.52443
1.50952
1.48037
1.45977
1.45681
1.45597
1.45583
1.45756
1.46196
1.46922
1.48398
1.51263
1.5508
1.58255
1.59962
1.60654
1.60883
1.60868
1.59895
1.55971
1.50303
1.48333
1.47915
1.47619
1.47399
1.47316
1.47659
1.49696
1.53299
1.55202
1.55395
1.55424
1.55249
1.54143
1.51593
1.48972
1.47474
1.46909
1.46698
1.46513
1.4648
1.46689
1.46558
1.46259
1.45955
1.45382
1.44194
1.42993
1.42711
1.4276
1.42999
1.43505
1.44713
1.46805
1.47735
1.4764
1.47277
1.46365
1.42952
2.08308
2.04895
2.02406
2.01589
2.01323
2.01167
2.01041
2.0096
2.00904
2.01016
2.01796
2.03643
2.05579
2.06193
2.06222
2.0619
2.06045
2.05244
2.02063
1.97184
1.94986
1.94378
1.942
1.94037
1.93925
1.94159
1.95537
1.98996
2.02627
2.0319
2.02917
2.02602
2.02199
2.01362
1.98523
1.92631
1.89129
1.8845
1.88248
1.88108
1.87961
1.87853
1.88007
1.89457
1.93088
1.96079
1.96343
1.96209
1.95868
1.94518
1.90666
1.8659
1.85334
1.84859
1.8448
1.84166
1.83944
1.83805
1.83885
1.85277
1.88841
1.91272
1.91606
1.91664
1.91441
1.89988
1.85972
1.82578
1.81827
1.81622
1.81489
1.81317
1.81111
1.80968
1.80874
1.81219
1.83491
1.87952
1.89731
1.89618
1.89351
1.88647
1.86317
1.81487
1.78574
1.77777
1.77362
1.77102
1.7693
1.76904
1.77848
1.81012
1.84653
1.86121
1.86476
1.8651
1.86263
1.84367
1.78901
1.74481
1.73492
1.73294
1.73259
1.73983
1.76853
1.78955
1.78833
1.78442
1.77877
1.7646
1.7339
1.7112
1.70652
1.70543
1.70533
1.71018
1.73135
1.7608
1.77417
1.77748
1.77672
1.76254
1.73573
1.7229
1.71608
1.7084
1.70027
1.69201
1.68447
1.67854
1.67298
1.66373
1.65265
1.64846
1.64876
1.65356
1.66606
1.67708
1.68034
1.68044
1.67487
1.65929
1.64174
1.63062
1.62517
1.62234
1.62029
1.62026
1.63055
1.648
1.65535
1.65614
1.65512
1.65257
1.64429
1.61517
1.57588
1.5637
1.56186
1.56105
1.56105
1.56627
1.58524
1.60456
1.6074
1.6063
1.60254
1.59101
1.56328
1.53966
1.53232
1.52897
1.52647
1.5247
1.52653
1.54757
1.56485
1.56514
1.56369
1.56081
1.5501
1.51862
1.49323
1.48964
1.48848
1.48703
1.48589
1.48551
1.49105
1.51426
1.53701
1.53894
1.5368
1.53309
1.52885
1.52257
1.50622
1.47466
1.45689
1.45435
1.45333
1.45296
1.45451
1.45984
1.47015
1.49035
1.52197
1.55432
1.57709
1.59096
1.59774
1.60015
1.59857
1.58238
1.53367
1.48925
1.47876
1.47529
1.47251
1.47066
1.47017
1.47739
1.50403
1.53827
1.55057
1.5513
1.55129
1.54743
1.53425
1.50801
1.47941
1.46588
1.46233
1.46003
1.45823
1.45828
1.46153
1.46067
1.4579
1.4549
1.44931
1.43796
1.42765
1.4255
1.42616
1.42826
1.43327
1.44727
1.46858
1.47426
1.47257
1.46801
1.44326
2.09879
2.08042
2.0432
2.01665
2.00835
2.00601
2.00526
2.00563
2.00692
2.00781
2.00939
2.01529
2.03197
2.05205
2.05766
2.05753
2.05735
2.05589
2.04722
2.01513
1.96555
1.94378
1.93858
1.93735
1.93683
1.93704
1.93932
1.95079
1.98483
2.0222
2.02766
2.02446
2.0208
2.01606
2.00628
1.97575
1.9167
1.88292
1.87614
1.87463
1.87372
1.87301
1.87311
1.87703
1.89214
1.92781
1.95983
1.96295
1.96001
1.95427
1.93956
1.90107
1.85948
1.84565
1.84017
1.83635
1.83383
1.83241
1.83169
1.83476
1.85384
1.8929
1.91613
1.91752
1.916
1.91122
1.89427
1.85138
1.81762
1.81158
1.81063
1.80995
1.80879
1.80809
1.80777
1.80911
1.81695
1.84353
1.88718
1.89967
1.89725
1.89272
1.88195
1.84963
1.79976
1.77818
1.77228
1.76944
1.7676
1.76714
1.77389
1.79571
1.82732
1.85358
1.86489
1.86607
1.86465
1.85529
1.82043
1.76237
1.73506
1.72857
1.72619
1.72601
1.73437
1.76346
1.7855
1.7851
1.77966
1.76975
1.75026
1.72059
1.70582
1.70334
1.70302
1.70515
1.71866
1.75458
1.78253
1.78907
1.78958
1.78487
1.76173
1.72827
1.70749
1.69179
1.67696
1.66909
1.66667
1.66993
1.6773
1.67685
1.67159
1.66087
1.65608
1.65818
1.66769
1.68018
1.68352
1.68259
1.67551
1.66147
1.64198
1.62446
1.61728
1.61502
1.61378
1.61441
1.62678
1.64698
1.65872
1.66035
1.65901
1.65658
1.65186
1.63575
1.59487
1.56334
1.55761
1.55672
1.55633
1.55753
1.56775
1.59019
1.60348
1.60392
1.60171
1.59492
1.57633
1.54572
1.53008
1.52571
1.5232
1.5213
1.52007
1.5291
1.55774
1.56787
1.5664
1.56354
1.55743
1.53957
1.50365
1.48575
1.483
1.48164
1.48007
1.47904
1.47991
1.49323
1.52509
1.53987
1.53878
1.53616
1.53277
1.52832
1.51938
1.49604
1.46439
1.45364
1.45211
1.45174
1.45288
1.45846
1.46821
1.4811
1.50037
1.52689
1.55067
1.56693
1.57785
1.5833
1.58569
1.58303
1.56195
1.51165
1.48111
1.47516
1.4724
1.47007
1.46873
1.46965
1.48212
1.51241
1.54211
1.54954
1.54952
1.54817
1.54229
1.52597
1.4952
1.4684
1.45837
1.45531
1.45306
1.45168
1.45291
1.45733
1.45636
1.45389
1.4511
1.44546
1.43385
1.42544
1.42415
1.42469
1.42625
1.43171
1.44927
1.46957
1.47188
1.46874
1.44942
2.10276
2.09562
2.07665
2.03756
2.00992
2.00274
2.00148
2.00173
2.00303
2.00335
2.00284
2.0029
2.00773
2.02526
2.04695
2.05291
2.05313
2.05355
2.05266
2.04439
2.0139
1.96342
1.94024
1.93551
1.93422
1.93274
1.93149
1.93218
1.9438
1.98068
2.0187
2.02241
2.01852
2.01413
2.00838
1.99747
1.96611
1.90792
1.87649
1.87058
1.86958
1.86942
1.87064
1.87222
1.87537
1.88813
1.92222
1.95324
1.95626
1.95303
1.9466
1.93132
1.89312
1.85175
1.83851
1.83429
1.83202
1.83065
1.83008
1.83137
1.83853
1.85748
1.88951
1.90922
1.91107
1.909
1.90227
1.88331
1.8414
1.81192
1.80797
1.80762
1.80737
1.80725
1.80801
1.81006
1.81478
1.82493
1.85213
1.89137
1.90071
1.89636
1.88752
1.87074
1.83274
1.78721
1.77244
1.76951
1.76792
1.76775
1.77514
1.79334
1.81092
1.82685
1.84587
1.85914
1.86019
1.8551
1.83868
1.80218
1.7543
1.73035
1.72318
1.72028
1.71997
1.7269
1.74973
1.77048
1.77323
1.76835
1.75661
1.73873
1.71637
1.70478
1.70353
1.70575
1.7167
1.74521
1.78792
1.8017
1.80167
1.7961
1.77373
1.73153
1.69494
1.67354
1.66121
1.65584
1.65364
1.656
1.67165
1.68518
1.68832
1.68809
1.68322
1.67451
1.66969
1.66934
1.67167
1.67206
1.66797
1.6577
1.64407
1.6282
1.61714
1.61397
1.61277
1.61339
1.62711
1.65473
1.66135
1.65988
1.65844
1.65633
1.65239
1.6415
1.61548
1.57567
1.55762
1.55494
1.5543
1.5542
1.55725
1.57094
1.59171
1.59849
1.5975
1.5934
1.58343
1.55956
1.53329
1.52522
1.52249
1.52054
1.51922