/*--------------------------------*- C++ -*----------------------------------*\
  =========                 |
  \\      /  F ield         | OpenFOAM: The Open Source CFD Toolbox
   \\    /   O peration     | Website:  https://openfoam.org
    \\  /    A nd           | Version:  7
     \\/     M anipulation  |
\*---------------------------------------------------------------------------*/
FoamFile
{
    version     2.0;
    format      ascii;
    class       volVectorField;
    location    "1.6";
    object      U;
}
// * * * * * * * * * * * * * * * * * * * * * * * * * * * * * * * * * * * * * //

dimensions      [0 1 -1 0 0 0 0];

internalField   nonuniform List<vector> 
16192
(
(2.58816 -0.520351 0)
(2.58993 -0.519739 0)
(2.59206 -0.519306 0)
(2.59371 -0.51834 0)
(2.59245 -0.515114 0)
(2.58426 -0.505305 0)
(2.57058 -0.490037 0)
(2.56482 -0.482146 0)
(2.56521 -0.479595 0)
(2.5661 -0.478507 0)
(2.5669 -0.477751 0)
(2.56863 -0.477054 0)
(2.57172 -0.478091 0)
(2.57826 -0.483836 0)
(2.59068 -0.496534 0)
(2.60384 -0.509043 0)
(2.61006 -0.512266 0)
(2.61208 -0.512167 0)
(2.61316 -0.511884 0)
(2.61526 -0.511031 0)
(2.61724 -0.509095 0)
(2.61628 -0.503476 0)
(2.60537 -0.487912 0)
(2.58742 -0.468605 0)
(2.58317 -0.463072 0)
(2.58566 -0.463381 0)
(2.58862 -0.464836 0)
(2.59152 -0.466915 0)
(2.59461 -0.469221 0)
(2.60143 -0.475196 0)
(2.61591 -0.489194 0)
(2.6323 -0.502168 0)
(2.6386 -0.503843 0)
(2.64088 -0.503199 0)
(2.64288 -0.502628 0)
(2.64463 -0.501262 0)
(2.6439 -0.497138 0)
(2.63495 -0.484613 0)
(2.61941 -0.467473 0)
(2.61472 -0.462512 0)
(2.61629 -0.462773 0)
(2.61834 -0.464137 0)
(2.62054 -0.46589 0)
(2.62295 -0.467204 0)
(2.62693 -0.469568 0)
(2.63618 -0.477225 0)
(2.65309 -0.491184 0)
(2.66545 -0.498397 0)
(2.66902 -0.497261 0)
(2.67015 -0.495198 0)
(2.67036 -0.492294 0)
(2.66783 -0.486747 0)
(2.65732 -0.471871 0)
(2.63927 -0.45032 0)
(2.63193 -0.442142 0)
(2.63196 -0.441615 0)
(2.63273 -0.442522 0)
(2.63405 -0.443565 0)
(2.63533 -0.444693 0)
(2.6371 -0.445894 0)
(2.63959 -0.446892 0)
(2.64235 -0.447808 0)
(2.64665 -0.448866 0)
(2.65472 -0.451928 0)
(2.66823 -0.462039 0)
(2.68564 -0.477837 0)
(2.69428 -0.485035 0)
(2.69729 -0.486134 0)
(2.69989 -0.487456 0)
(2.6987 -0.487307 0)
(2.68916 -0.479839 0)
(2.66931 -0.460125 0)
(2.65908 -0.447487 0)
(2.66054 -0.445211 0)
(2.66284 -0.444332 0)
(2.66522 -0.443414 0)
(2.66931 -0.442373 0)
(2.67555 -0.441322 0)
(2.68288 -0.442131 0)
(2.69147 -0.447761 0)
(2.70302 -0.459893 0)
(2.71257 -0.471997 0)
(2.71498 -0.475317 0)
(2.717 -0.476313 0)
(2.71371 -0.473905 0)
(2.70255 -0.463232 0)
(2.69371 -0.452258 0)
(2.69414 -0.448819 0)
(2.69546 -0.447992 0)
(2.69979 -0.446619 0)
(2.70912 -0.444481 0)
(2.71741 -0.443932 0)
(2.71988 -0.444034 0)
(2.72338 -0.444617 0)
(2.72637 -0.44545 0)
(2.7255 -0.445047 0)
(2.71856 -0.44178 0)
(2.71494 -0.438956 0)
(2.71586 -0.437086 0)
(2.71761 -0.435768 0)
(2.71939 -0.434473 0)
(2.72413 -0.43285 0)
(2.73398 -0.433329 0)
(2.74876 -0.440502 0)
(2.76002 -0.448023 0)
(2.76369 -0.449727 0)
(2.76602 -0.449734 0)
(2.76719 -0.44912 0)
(2.76246 -0.445252 0)
(2.74825 -0.43334 0)
(2.73769 -0.424599 0)
(2.73795 -0.423169 0)
(2.73992 -0.423494 0)
(2.74212 -0.425066 0)
(2.74927 -0.429723 0)
(2.75804 -0.435636 0)
(2.76167 -0.436734 0)
(2.76613 -0.436611 0)
(2.7679 -0.434974 0)
(2.76516 -0.430339 0)
(2.7614 -0.425418 0)
(2.76218 -0.424202 0)
(2.76377 -0.424294 0)
(2.76546 -0.424404 0)
(2.76921 -0.425577 0)
(2.77643 -0.427957 0)
(2.78342 -0.42794 0)
(2.78563 -0.426684 0)
(2.78626 -0.425064 0)
(2.78491 -0.419209 0)
(2.77464 -0.406553 0)
(2.76202 -0.397664 0)
(2.76007 -0.398022 0)
(2.76132 -0.400951 0)
(2.76274 -0.404469 0)
(2.76479 -0.40639 0)
(2.76796 -0.40688 0)
(2.77033 -0.407245 0)
(2.77669 -0.40937 0)
(2.79469 -0.418932 0)
(2.81765 -0.427303 0)
(2.82652 -0.425241 0)
(2.8291 -0.422239 0)
(2.82987 -0.42025 0)
(2.82819 -0.416149 0)
(2.81347 -0.404906 0)
(2.78825 -0.393333 0)
(2.78114 -0.393523 0)
(2.7827 -0.395945 0)
(2.78454 -0.397849 0)
(2.78752 -0.400123 0)
(2.79897 -0.407787 0)
(2.82206 -0.417876 0)
(2.83438 -0.417467 0)
(2.83679 -0.415491 0)
(2.84029 -0.412728 0)
(2.84191 -0.409296 0)
(2.83308 -0.400476 0)
(2.80966 -0.386224 0)
(2.79937 -0.381907 0)
(2.80039 -0.382545 0)
(2.80181 -0.38343 0)
(2.80266 -0.384017 0)
(2.8036 -0.384782 0)
(2.80795 -0.38677 0)
(2.82126 -0.393249 0)
(2.84996 -0.406128 0)
(2.86974 -0.411014 0)
(2.8726 -0.410385 0)
(2.87385 -0.409761 0)
(2.8745 -0.408163 0)
(2.86934 -0.402394 0)
(2.84784 -0.385274 0)
(2.82437 -0.369154 0)
(2.82081 -0.366185 0)
(2.82227 -0.366182 0)
(2.82518 -0.366366 0)
(2.82847 -0.366475 0)
(2.83191 -0.365977 0)
(2.84056 -0.366661 0)
(2.8582 -0.375045 0)
(2.87746 -0.389089 0)
(2.88618 -0.396877 0)
(2.88939 -0.399995 0)
(2.89061 -0.40148 0)
(2.89148 -0.402503 0)
(2.89055 -0.403502 0)
(2.88179 -0.40054 0)
(2.85884 -0.385861 0)
(2.84401 -0.373813 0)
(2.84351 -0.370034 0)
(2.84326 -0.367709 0)
(2.84136 -0.366022 0)
(2.83764 -0.361506 0)
(2.83425 -0.351696 0)
(2.83397 -0.336919 0)
(2.83723 -0.327451 0)
(2.84563 -0.3333 0)
(2.85925 -0.347784 0)
(2.86197 -0.351759 0)
(2.8621 -0.351725 0)
(2.86227 -0.352403 0)
(2.8623 -0.353608 0)
(2.86045 -0.352842 0)
(2.85191 -0.345225 0)
(2.83794 -0.330093 0)
(2.83347 -0.318002 0)
(2.8368 -0.312364 0)
(2.84007 -0.308065 0)
(2.84332 -0.304182 0)
(2.84879 -0.301264 0)
(2.85699 -0.300466 0)
(2.86882 -0.304885 0)
(2.88769 -0.318062 0)
(2.90453 -0.330413 0)
(2.90828 -0.332949 0)
(2.90947 -0.333687 0)
(2.91067 -0.334724 0)
(2.90904 -0.333804 0)
(2.89652 -0.326699 0)
(2.87534 -0.313662 0)
(2.86686 -0.31013 0)
(2.86677 -0.311312 0)
(2.86842 -0.312534 0)
(2.87051 -0.313514 0)
(2.87746 -0.317498 0)
(2.89006 -0.326762 0)
(2.8966 -0.330549 0)
(2.90037 -0.330544 0)
(2.90504 -0.329569 0)
(2.90696 -0.327095 0)
(2.90069 -0.318794 0)
(2.88609 -0.304446 0)
(2.88285 -0.298785 0)
(2.8859 -0.298391 0)
(2.88886 -0.298464 0)
(2.89196 -0.298633 0)
(2.8977 -0.30042 0)
(2.90835 -0.307435 0)
(2.92364 -0.317993 0)
(2.93168 -0.322809 0)
(2.93082 -0.323157 0)
(2.92829 -0.322837 0)
(2.92478 -0.321718 0)
(2.91287 -0.314743 0)
(2.89233 -0.300863 0)
(2.88309 -0.296234 0)
(2.88438 -0.297417 0)
(2.88678 -0.299027 0)
(2.89004 -0.300987 0)
(2.89362 -0.303099 0)
(2.90272 -0.309598 0)
(2.92533 -0.327083 0)
(2.58594 -0.5122 0)
(2.59148 -0.515964 0)
(2.59378 -0.516243 0)
(2.59638 -0.515973 0)
(2.5976 -0.515466 0)
(2.59603 -0.513026 0)
(2.58873 -0.504263 0)
(2.57571 -0.488352 0)
(2.5686 -0.478128 0)
(2.56874 -0.474713 0)
(2.56972 -0.473195 0)
(2.57049 -0.472426 0)
(2.57209 -0.471859 0)
(2.57478 -0.472892 0)
(2.58015 -0.477815 0)
(2.59163 -0.489638 0)
(2.60752 -0.504348 0)
(2.61534 -0.509773 0)
(2.61717 -0.509795 0)
(2.61913 -0.509715 0)
(2.62136 -0.509326 0)
(2.62332 -0.508032 0)
(2.6221 -0.503352 0)
(2.61024 -0.488539 0)
(2.59077 -0.468991 0)
(2.58597 -0.462903 0)
(2.58841 -0.462498 0)
(2.59123 -0.463339 0)
(2.59392 -0.464422 0)
(2.59704 -0.465548 0)
(2.60397 -0.469969 0)
(2.61859 -0.483173 0)
(2.6365 -0.497846 0)
(2.64354 -0.500688 0)
(2.64589 -0.500006 0)
(2.6482 -0.499525 0)
(2.64992 -0.498661 0)
(2.64882 -0.495457 0)
(2.63979 -0.484208 0)
(2.62379 -0.467562 0)
(2.61839 -0.462177 0)
(2.62005 -0.462298 0)
(2.62219 -0.463191 0)
(2.62424 -0.464146 0)
(2.6265 -0.464562 0)
(2.63062 -0.465795 0)
(2.63975 -0.471816 0)
(2.65627 -0.485009 0)
(2.66931 -0.493847 0)
(2.67255 -0.494169 0)
(2.67398 -0.492508 0)
(2.67485 -0.489887 0)
(2.67287 -0.485536 0)
(2.66188 -0.472371 0)
(2.64273 -0.451016 0)
(2.63476 -0.442324 0)
(2.63491 -0.441184 0)
(2.63586 -0.441442 0)
(2.63757 -0.441746 0)
(2.63964 -0.441927 0)
(2.64161 -0.442134 0)
(2.64426 -0.442067 0)
(2.64862 -0.441842 0)
(2.65437 -0.442251 0)
(2.66129 -0.44533 0)
(2.67177 -0.455304 0)
(2.68671 -0.472075 0)
(2.6958 -0.483082 0)
(2.69847 -0.48535 0)
(2.70043 -0.487357 0)
(2.69901 -0.486862 0)
(2.69169 -0.479298 0)
(2.67652 -0.460711 0)
(2.66656 -0.446046 0)
(2.66773 -0.442328 0)
(2.67014 -0.44073 0)
(2.67308 -0.439274 0)
(2.67802 -0.437683 0)
(2.68262 -0.438031 0)
(2.68665 -0.440311 0)
(2.69198 -0.445386 0)
(2.70086 -0.456562 0)
(2.71071 -0.469053 0)
(2.71389 -0.472602 0)
(2.71545 -0.473046 0)
(2.71373 -0.469675 0)
(2.70707 -0.458324 0)
(2.7008 -0.444961 0)
(2.70093 -0.439121 0)
(2.70342 -0.43642 0)
(2.70977 -0.435354 0)
(2.71702 -0.438813 0)
(2.72194 -0.443537 0)
(2.72453 -0.445456 0)
(2.72746 -0.447785 0)
(2.72832 -0.449062 0)
(2.72546 -0.446346 0)
(2.72052 -0.438567 0)
(2.71919 -0.431818 0)
(2.72064 -0.428396 0)
(2.72239 -0.426324 0)
(2.72649 -0.423741 0)
(2.73342 -0.421479 0)
(2.74204 -0.423045 0)
(2.75152 -0.430532 0)
(2.76088 -0.441626 0)
(2.76587 -0.447944 0)
(2.76785 -0.449355 0)
(2.76848 -0.450053 0)
(2.76403 -0.446828 0)
(2.75191 -0.434168 0)
(2.74176 -0.4221 0)
(2.74185 -0.418831 0)
(2.74429 -0.418465 0)
(2.74714 -0.419927 0)
(2.75455 -0.424533 0)
(2.76246 -0.431151 0)
(2.76565 -0.43366 0)
(2.76831 -0.433679 0)
(2.76886 -0.431586 0)
(2.76498 -0.425919 0)
(2.76265 -0.420915 0)
(2.76397 -0.419913 0)
(2.76522 -0.41992 0)
(2.76788 -0.420169 0)
(2.77512 -0.421672 0)
(2.78537 -0.423783 0)
(2.79079 -0.423561 0)
(2.79226 -0.423144 0)
(2.79401 -0.42187 0)
(2.79093 -0.417058 0)
(2.77534 -0.406141 0)
(2.76226 -0.401531 0)
(2.7611 -0.402465 0)
(2.76216 -0.402954 0)
(2.76463 -0.401752 0)
(2.76788 -0.400079 0)
(2.77032 -0.398852 0)
(2.77464 -0.39847 0)
(2.7848 -0.400297 0)
(2.8047 -0.410086 0)
(2.82363 -0.420097 0)
(2.82913 -0.422119 0)
(2.83017 -0.422265 0)
(2.8308 -0.422066 0)
(2.82522 -0.418512 0)
(2.80226 -0.404995 0)
(2.78201 -0.393815 0)
(2.7813 -0.392215 0)
(2.78339 -0.39219 0)
(2.78559 -0.392176 0)
(2.79335 -0.393414 0)
(2.81273 -0.401692 0)
(2.83375 -0.411183 0)
(2.8387 -0.412409 0)
(2.84321 -0.412648 0)
(2.84582 -0.412183 0)
(2.84225 -0.409513 0)
(2.82472 -0.398318 0)
(2.80342 -0.383708 0)
(2.80027 -0.379453 0)
(2.80171 -0.378331 0)
(2.80283 -0.377592 0)
(2.80426 -0.376822 0)
(2.80792 -0.376483 0)
(2.81702 -0.378229 0)
(2.83659 -0.387323 0)
(2.86294 -0.40204 0)
(2.87268 -0.406951 0)
(2.87442 -0.407185 0)
(2.87636 -0.407187 0)
(2.87596 -0.405656 0)
(2.86707 -0.397871 0)
(2.84188 -0.377871 0)
(2.82402 -0.364296 0)
(2.82389 -0.361746 0)
(2.82651 -0.361277 0)
(2.83006 -0.361025 0)
(2.83369 -0.360205 0)
(2.83984 -0.359763 0)
(2.8506 -0.363438 0)
(2.86613 -0.376201 0)
(2.8814 -0.39058 0)
(2.88936 -0.39819 0)
(2.89221 -0.401229 0)
(2.89261 -0.4025 0)
(2.89214 -0.404325 0)
(2.88911 -0.405093 0)
(2.87881 -0.398491 0)
(2.85869 -0.380372 0)
(2.84818 -0.368815 0)
(2.84756 -0.364578 0)
(2.84703 -0.360646 0)
(2.84546 -0.358216 0)
(2.84309 -0.352525 0)
(2.84136 -0.343281 0)
(2.84099 -0.333595 0)
(2.84226 -0.330261 0)
(2.85129 -0.336899 0)
(2.86744 -0.347447 0)
(2.86959 -0.34891 0)
(2.86805 -0.348839 0)
(2.86758 -0.349507 0)
(2.86666 -0.349763 0)
(2.8638 -0.34723 0)
(2.85651 -0.337741 0)
(2.84711 -0.321315 0)
(2.84327 -0.307536 0)
(2.84458 -0.300038 0)
(2.84739 -0.296751 0)
(2.85075 -0.296582 0)
(2.85496 -0.296869 0)
(2.86013 -0.298156 0)
(2.87195 -0.303569 0)
(2.89249 -0.318106 0)
(2.90691 -0.328984 0)
(2.90923 -0.330512 0)
(2.91038 -0.331573 0)
(2.91073 -0.332592 0)
(2.90719 -0.331605 0)
(2.89193 -0.323965 0)
(2.87167 -0.312664 0)
(2.86601 -0.30992 0)
(2.86722 -0.310289 0)
(2.86932 -0.310911 0)
(2.87275 -0.312002 0)
(2.88255 -0.316661 0)
(2.89557 -0.323736 0)
(2.89995 -0.325289 0)
(2.90514 -0.325596 0)
(2.90959 -0.324758 0)
(2.9093 -0.321432 0)
(2.89885 -0.311391 0)
(2.88663 -0.299174 0)
(2.88776 -0.296493 0)
(2.89056 -0.296511 0)
(2.89317 -0.296466 0)
(2.89596 -0.296658 0)
(2.90223 -0.299188 0)
(2.91474 -0.307644 0)
(2.92992 -0.318044 0)
(2.9348 -0.321349 0)
(2.93343 -0.321451 0)
(2.93167 -0.321231 0)
(2.9261 -0.319301 0)
(2.91 -0.309462 0)
(2.88897 -0.297663 0)
(2.88473 -0.296094 0)
(2.88656 -0.297603 0)
(2.88897 -0.299206 0)
(2.89237 -0.300969 0)
(2.89563 -0.30309 0)
(2.90779 -0.313533 0)
(2.58055 -0.497894 0)
(2.58837 -0.504541 0)
(2.59472 -0.510615 0)
(2.59699 -0.512119 0)
(2.59936 -0.512956 0)
(2.60074 -0.513251 0)
(2.6001 -0.511188 0)
(2.59528 -0.503501 0)
(2.58344 -0.487016 0)
(2.5738 -0.473585 0)
(2.573 -0.469312 0)
(2.5738 -0.467734 0)
(2.57435 -0.467058 0)
(2.57559 -0.466739 0)
(2.57764 -0.467909 0)
(2.58218 -0.472062 0)
(2.59302 -0.483143 0)
(2.61016 -0.499867 0)
(2.61953 -0.507607 0)
(2.62178 -0.508036 0)
(2.62436 -0.50822 0)
(2.6269 -0.508338 0)
(2.62864 -0.507749 0)
(2.62657 -0.503681 0)
(2.61381 -0.488882 0)
(2.59411 -0.46805 0)
(2.58949 -0.460762 0)
(2.59215 -0.459605 0)
(2.59482 -0.459904 0)
(2.5974 -0.460011 0)
(2.60098 -0.460246 0)
(2.60805 -0.463712 0)
(2.62169 -0.475833 0)
(2.6395 -0.492267 0)
(2.64736 -0.498163 0)
(2.64965 -0.49828 0)
(2.65242 -0.497883 0)
(2.6543 -0.497508 0)
(2.65334 -0.495223 0)
(2.64487 -0.485067 0)
(2.62868 -0.467948 0)
(2.62266 -0.460756 0)
(2.62443 -0.459723 0)
(2.62655 -0.45995 0)
(2.62842 -0.460253 0)
(2.63099 -0.460133 0)
(2.63612 -0.460708 0)
(2.64495 -0.465623 0)
(2.65963 -0.478021 0)
(2.67286 -0.489633 0)
(2.67679 -0.492317 0)
(2.67804 -0.491846 0)
(2.67845 -0.490069 0)
(2.67589 -0.486036 0)
(2.66517 -0.473229 0)
(2.6468 -0.451669 0)
(2.63835 -0.441326 0)
(2.63871 -0.439207 0)
(2.64006 -0.43898 0)
(2.64171 -0.438815 0)
(2.64472 -0.438089 0)
(2.64855 -0.437757 0)
(2.65259 -0.437224 0)
(2.65592 -0.437503 0)
(2.6591 -0.439257 0)
(2.6639 -0.443405 0)
(2.67247 -0.452967 0)
(2.68634 -0.470122 0)
(2.69663 -0.481773 0)
(2.69927 -0.483762 0)
(2.70151 -0.485118 0)
(2.70174 -0.484013 0)
(2.69774 -0.476703 0)
(2.68514 -0.458527 0)
(2.67383 -0.441311 0)
(2.67445 -0.436508 0)
(2.67663 -0.435248 0)
(2.67912 -0.435015 0)
(2.68192 -0.435708 0)
(2.68458 -0.437094 0)
(2.68701 -0.439426 0)
(2.69113 -0.443986 0)
(2.69979 -0.454305 0)
(2.71149 -0.4651 0)
(2.717 -0.466634 0)
(2.71817 -0.466264 0)
(2.71875 -0.461816 0)
(2.716 -0.450618 0)
(2.7109 -0.43676 0)
(2.71045 -0.430746 0)
(2.71256 -0.430132 0)
(2.7146 -0.431852 0)
(2.71932 -0.436813 0)
(2.72399 -0.443657 0)
(2.72627 -0.447612 0)
(2.72925 -0.4492 0)
(2.73069 -0.449145 0)
(2.73067 -0.445297 0)
(2.72946 -0.436948 0)
(2.72807 -0.426979 0)
(2.72873 -0.420977 0)
(2.73063 -0.417994 0)
(2.73463 -0.415392 0)
(2.73919 -0.415572 0)
(2.74364 -0.418899 0)
(2.74985 -0.426589 0)
(2.75913 -0.439366 0)
(2.76572 -0.447748 0)
(2.76798 -0.449555 0)
(2.76948 -0.450349 0)
(2.76754 -0.447007 0)
(2.75902 -0.434051 0)
(2.74805 -0.418815 0)
(2.74675 -0.414166 0)
(2.74931 -0.414231 0)
(2.75153 -0.41623 0)
(2.75653 -0.420348 0)
(2.76264 -0.426307 0)
(2.76678 -0.430211 0)
(2.76871 -0.430391 0)
(2.7702 -0.427783 0)
(2.76857 -0.421687 0)
(2.76714 -0.416255 0)
(2.76776 -0.414742 0)
(2.76922 -0.414294 0)
(2.77506 -0.414539 0)
(2.78528 -0.418033 0)
(2.79253 -0.421678 0)
(2.79462 -0.422566 0)
(2.79734 -0.423655 0)
(2.79809 -0.423759 0)
(2.79058 -0.418425 0)
(2.77106 -0.406203 0)
(2.76219 -0.40073 0)
(2.76415 -0.398863 0)
(2.76739 -0.397214 0)
(2.77069 -0.394561 0)
(2.77371 -0.391856 0)
(2.77786 -0.389996 0)
(2.78385 -0.389318 0)
(2.79392 -0.393632 0)
(2.81048 -0.407274 0)
(2.82526 -0.42045 0)
(2.82931 -0.42396 0)
(2.83001 -0.425139 0)
(2.82878 -0.42544 0)
(2.81923 -0.418208 0)
(2.79577 -0.398374 0)
(2.78469 -0.386898 0)
(2.78659 -0.38543 0)
(2.78878 -0.384356 0)
(2.79543 -0.383262 0)
(2.8084 -0.385451 0)
(2.82656 -0.396417 0)
(2.83819 -0.406395 0)
(2.84097 -0.408744 0)
(2.84397 -0.411962 0)
(2.84415 -0.412971 0)
(2.83737 -0.408352 0)
(2.8203 -0.392838 0)
(2.80615 -0.377578 0)
(2.80512 -0.373764 0)
(2.80595 -0.372872 0)
(2.80811 -0.371111 0)
(2.8117 -0.368824 0)
(2.81811 -0.368253 0)
(2.82895 -0.372767 0)
(2.84804 -0.386478 0)
(2.86811 -0.401626 0)
(2.87303 -0.405331 0)
(2.875 -0.406375 0)
(2.87666 -0.407211 0)
(2.87511 -0.404462 0)
(2.8645 -0.392622 0)
(2.83964 -0.368981 0)
(2.82731 -0.356927 0)
(2.82873 -0.355911 0)
(2.83157 -0.356395 0)
(2.83614 -0.355634 0)
(2.8413 -0.354077 0)
(2.84756 -0.355665 0)
(2.85629 -0.363964 0)
(2.87051 -0.380039 0)
(2.88582 -0.395183 0)
(2.89362 -0.401791 0)
(2.89497 -0.403358 0)
(2.89422 -0.404022 0)
(2.89207 -0.404819 0)
(2.88778 -0.402757 0)
(2.8776 -0.392225 0)
(2.86021 -0.374422 0)
(2.85192 -0.363621 0)
(2.85188 -0.357689 0)
(2.85089 -0.35246 0)
(2.84969 -0.350964 0)
(2.84805 -0.347571 0)
(2.84661 -0.34126 0)
(2.84542 -0.336259 0)
(2.84656 -0.335881 0)
(2.85685 -0.340161 0)
(2.87433 -0.34571 0)
(2.87898 -0.345693 0)
(2.87632 -0.345417 0)
(2.87479 -0.34518 0)
(2.87169 -0.344136 0)
(2.86807 -0.338711 0)
(2.86381 -0.325586 0)
(2.85735 -0.309096 0)
(2.85043 -0.297007 0)
(2.84661 -0.291497 0)
(2.84895 -0.290424 0)
(2.85269 -0.292038 0)
(2.85734 -0.294738 0)
(2.86281 -0.296924 0)
(2.87643 -0.30399 0)
(2.89754 -0.319286 0)
(2.90915 -0.327155 0)
(2.91075 -0.328618 0)
(2.9116 -0.329813 0)
(2.91096 -0.330579 0)
(2.90542 -0.329607 0)
(2.88858 -0.320893 0)
(2.87066 -0.309564 0)
(2.868 -0.307112 0)
(2.86983 -0.307312 0)
(2.87237 -0.307778 0)
(2.87877 -0.309067 0)
(2.88975 -0.313684 0)
(2.89755 -0.317807 0)
(2.90182 -0.31897 0)
(2.9075 -0.320495 0)
(2.91158 -0.32059 0)
(2.90936 -0.316939 0)
(2.89696 -0.305862 0)
(2.88926 -0.296948 0)
(2.89171 -0.295688 0)
(2.89416 -0.295719 0)
(2.89636 -0.295472 0)
(2.89974 -0.29545 0)
(2.90716 -0.298453 0)
(2.92101 -0.308246 0)
(2.93356 -0.318164 0)
(2.93595 -0.32065 0)
(2.93499 -0.320758 0)
(2.93289 -0.320436 0)
(2.9245 -0.316842 0)
(2.9037 -0.305092 0)
(2.88757 -0.296838 0)
(2.88728 -0.296533 0)
(2.88891 -0.297621 0)
(2.8915 -0.298736 0)
(2.89466 -0.299873 0)
(2.89878 -0.304479 0)
(2.57732 -0.490459 0)
(2.58206 -0.494119 0)
(2.58969 -0.501697 0)
(2.59712 -0.508229 0)
(2.60057 -0.509636 0)
(2.60329 -0.510089 0)
(2.60502 -0.510239 0)
(2.60567 -0.508432 0)
(2.6026 -0.501887 0)
(2.59142 -0.485485 0)
(2.57912 -0.46941 0)
(2.57681 -0.464458 0)
(2.57715 -0.463054 0)
(2.57733 -0.462772 0)
(2.57818 -0.462804 0)
(2.57988 -0.463852 0)
(2.58405 -0.467363 0)
(2.59437 -0.477562 0)
(2.61167 -0.495044 0)
(2.62294 -0.505824 0)
(2.62556 -0.507185 0)
(2.62856 -0.507582 0)
(2.63109 -0.507787 0)
(2.63236 -0.507272 0)
(2.6299 -0.503086 0)
(2.61799 -0.488008 0)
(2.59913 -0.465782 0)
(2.59411 -0.456993 0)
(2.59672 -0.45541 0)
(2.59921 -0.455379 0)
(2.60186 -0.455099 0)
(2.60624 -0.455008 0)
(2.613 -0.457862 0)
(2.62471 -0.468665 0)
(2.64192 -0.486246 0)
(2.65168 -0.495437 0)
(2.65384 -0.496544 0)
(2.65662 -0.497048 0)
(2.65856 -0.497236 0)
(2.65816 -0.495368 0)
(2.65109 -0.485806 0)
(2.63514 -0.467192 0)
(2.62772 -0.457525 0)
(2.62935 -0.455905 0)
(2.63145 -0.455741 0)
(2.63343 -0.455606 0)
(2.63713 -0.455187 0)
(2.64215 -0.45611 0)
(2.64906 -0.46096 0)
(2.66067 -0.472874 0)
(2.67402 -0.486799 0)
(2.67936 -0.491628 0)
(2.68064 -0.491584 0)
(2.68119 -0.489901 0)
(2.6789 -0.485657 0)
(2.66986 -0.473673 0)
(2.6527 -0.451837 0)
(2.64291 -0.438603 0)
(2.6431 -0.435641 0)
(2.64422 -0.434997 0)
(2.6472 -0.434508 0)
(2.65141 -0.433162 0)
(2.65354 -0.432966 0)
(2.65623 -0.433693 0)
(2.65849 -0.435413 0)
(2.6611 -0.438437 0)
(2.66425 -0.442267 0)
(2.67228 -0.451458 0)
(2.68671 -0.46882 0)
(2.69883 -0.479588 0)
(2.70266 -0.480641 0)
(2.70468 -0.480728 0)
(2.70633 -0.478536 0)
(2.7045 -0.470879 0)
(2.69345 -0.453497 0)
(2.67945 -0.435868 0)
(2.67793 -0.431615 0)
(2.68004 -0.43157 0)
(2.68215 -0.432674 0)
(2.684 -0.43452 0)
(2.68596 -0.436811 0)
(2.68784 -0.43871 0)
(2.69147 -0.442063 0)
(2.70259 -0.451161 0)
(2.71835 -0.458899 0)
(2.72478 -0.457374 0)
(2.72622 -0.455515 0)
(2.72781 -0.451504 0)
(2.72657 -0.443932 0)
(2.71942 -0.433229 0)
(2.71502 -0.428302 0)
(2.71636 -0.42879 0)
(2.7184 -0.431424 0)
(2.72096 -0.435359 0)
(2.726 -0.440961 0)
(2.73125 -0.445797 0)
(2.73446 -0.446475 0)
(2.73634 -0.446014 0)
(2.7379 -0.441801 0)
(2.73811 -0.432661 0)
(2.73651 -0.420897 0)
(2.73509 -0.41318 0)
(2.73592 -0.411284 0)
(2.73744 -0.412043 0)
(2.73947 -0.414284 0)
(2.74276 -0.417936 0)
(2.74868 -0.42567 0)
(2.75934 -0.439057 0)
(2.76742 -0.447689 0)
(2.77008 -0.448722 0)
(2.77281 -0.448589 0)
(2.77316 -0.445378 0)
(2.76705 -0.434109 0)
(2.75356 -0.417518 0)
(2.74877 -0.411781 0)
(2.75087 -0.411997 0)
(2.75299 -0.413799 0)
(2.75587 -0.416514 0)
(2.76161 -0.421484 0)
(2.76846 -0.426737 0)
(2.77192 -0.427155 0)
(2.77392 -0.425351 0)
(2.7743 -0.419362 0)
(2.77414 -0.412829 0)
(2.7753 -0.410435 0)
(2.7781 -0.409603 0)
(2.78535 -0.411207 0)
(2.79279 -0.416876 0)
(2.79541 -0.420315 0)
(2.79765 -0.423029 0)
(2.79959 -0.425717 0)
(2.79778 -0.425447 0)
(2.78709 -0.417044 0)
(2.77035 -0.402159 0)
(2.76821 -0.396565 0)
(2.77085 -0.394696 0)
(2.77355 -0.392084 0)
(2.77699 -0.388982 0)
(2.78172 -0.386262 0)
(2.7859 -0.384555 0)
(2.79024 -0.386163 0)
(2.79836 -0.393234 0)
(2.81343 -0.408287 0)
(2.82653 -0.420972 0)
(2.82952 -0.424086 0)
(2.83006 -0.42518 0)
(2.8284 -0.424206 0)
(2.818 -0.414524 0)
(2.79882 -0.394112 0)
(2.79384 -0.383625 0)
(2.79691 -0.381347 0)
(2.80009 -0.379885 0)
(2.80728 -0.380235 0)
(2.81817 -0.384985 0)
(2.83104 -0.396578 0)
(2.83858 -0.405086 0)
(2.84079 -0.407244 0)
(2.84216 -0.409808 0)
(2.84145 -0.410011 0)
(2.83669 -0.404682 0)
(2.82416 -0.390174 0)
(2.81256 -0.375543 0)
(2.81117 -0.371076 0)
(2.81227 -0.369016 0)
(2.81561 -0.365743 0)
(2.81992 -0.364244 0)
(2.82514 -0.366103 0)
(2.8347 -0.373458 0)
(2.85388 -0.390073 0)
(2.87096 -0.403033 0)
(2.87378 -0.404561 0)
(2.87646 -0.404721 0)
(2.8781 -0.403692 0)
(2.87658 -0.398945 0)
(2.86455 -0.384115 0)
(2.83892 -0.359771 0)
(2.82975 -0.350286 0)
(2.83224 -0.349927 0)
(2.83518 -0.351049 0)
(2.83933 -0.352885 0)
(2.84365 -0.355197 0)
(2.84959 -0.359886 0)
(2.85921 -0.371276 0)
(2.87621 -0.387583 0)
(2.89224 -0.398697 0)
(2.89662 -0.401159 0)
(2.89586 -0.400972 0)
(2.89421 -0.400032 0)
(2.89236 -0.399036 0)
(2.88891 -0.394991 0)
(2.87916 -0.383147 0)
(2.86333 -0.367111 0)
(2.85488 -0.358212 0)
(2.853 -0.353131 0)
(2.8524 -0.349884 0)
(2.85197 -0.34908 0)
(2.85149 -0.346974 0)
(2.8505 -0.343147 0)
(2.84904 -0.338754 0)
(2.8512 -0.338139 0)
(2.8654 -0.343174 0)
(2.88446 -0.343266 0)
(2.88601 -0.339035 0)
(2.88257 -0.33703 0)
(2.88004 -0.334171 0)
(2.87731 -0.332041 0)
(2.87519 -0.32626 0)
(2.87182 -0.314264 0)
(2.86263 -0.300429 0)
(2.85073 -0.290358 0)
(2.84585 -0.287806 0)
(2.84974 -0.290155 0)
(2.85444 -0.29242 0)
(2.85935 -0.294329 0)
(2.86582 -0.296694 0)
(2.88162 -0.305646 0)
(2.90195 -0.3201 0)
(2.91103 -0.325722 0)
(2.91359 -0.327306 0)
(2.91367 -0.32882 0)
(2.91192 -0.329396 0)
(2.905 -0.327764 0)
(2.88754 -0.317635 0)
(2.87314 -0.306552 0)
(2.87308 -0.304674 0)
(2.87537 -0.304773 0)
(2.87801 -0.305246 0)
(2.8843 -0.306995 0)
(2.89284 -0.311504 0)
(2.89715 -0.313146 0)
(2.90409 -0.315621 0)
(2.90944 -0.317112 0)
(2.91258 -0.317036 0)
(2.90907 -0.312306 0)
(2.89755 -0.300627 0)
(2.89342 -0.294168 0)
(2.89562 -0.293414 0)
(2.89739 -0.292838 0)
(2.90023 -0.291963 0)
(2.90501 -0.292004 0)
(2.91299 -0.297096 0)
(2.9262 -0.309002 0)
(2.93591 -0.318618 0)
(2.93704 -0.32071 0)
(2.93607 -0.321025 0)
(2.93212 -0.320405 0)
(2.91986 -0.314095 0)
(2.8979 -0.300401 0)
(2.88929 -0.295074 0)
(2.89009 -0.294988 0)
(2.89167 -0.295707 0)
(2.89502 -0.296382 0)
(2.89652 -0.29855 0)
(2.57575 -0.487148 0)
(2.57843 -0.488906 0)
(2.58321 -0.492278 0)
(2.5932 -0.499713 0)
(2.60253 -0.505136 0)
(2.60649 -0.506107 0)
(2.60865 -0.506304 0)
(2.61028 -0.506325 0)
(2.61143 -0.504844 0)
(2.60887 -0.499062 0)
(2.59724 -0.483024 0)
(2.58311 -0.465905 0)
(2.57987 -0.460609 0)
(2.57994 -0.459317 0)
(2.57989 -0.459295 0)
(2.58034 -0.459402 0)
(2.58204 -0.460289 0)
(2.5864 -0.463561 0)
(2.59606 -0.472871 0)
(2.6126 -0.489787 0)
(2.62571 -0.502574 0)
(2.62902 -0.504983 0)
(2.632 -0.505719 0)
(2.63444 -0.506238 0)
(2.63554 -0.50548 0)
(2.63355 -0.501276 0)
(2.62388 -0.486863 0)
(2.606 -0.463251 0)
(2.59982 -0.452396 0)
(2.60236 -0.450784 0)
(2.60462 -0.450775 0)
(2.60728 -0.450801 0)
(2.61078 -0.451391 0)
(2.61624 -0.454359 0)
(2.62633 -0.4643 0)
(2.64376 -0.482482 0)
(2.65552 -0.493782 0)
(2.65795 -0.495286 0)
(2.66095 -0.495808 0)
(2.66336 -0.496083 0)
(2.6637 -0.494365 0)
(2.65801 -0.485595 0)
(2.6428 -0.466415 0)
(2.63343 -0.454001 0)
(2.63443 -0.451591 0)
(2.63628 -0.451485 0)
(2.63845 -0.451762 0)
(2.64166 -0.451986 0)
(2.64525 -0.453222 0)
(2.64991 -0.457226 0)
(2.65928 -0.467897 0)
(2.67374 -0.483334 0)
(2.68134 -0.489949 0)
(2.68281 -0.490046 0)
(2.68399 -0.488187 0)
(2.68258 -0.484143 0)
(2.6757 -0.473623 0)
(2.66032 -0.451714 0)
(2.64875 -0.434343 0)
(2.64815 -0.429911 0)
(2.64924 -0.428904 0)
(2.6514 -0.429294 0)
(2.6531 -0.429961 0)
(2.65535 -0.430983 0)
(2.65682 -0.432507 0)
(2.65841 -0.435065 0)
(2.66104 -0.437832 0)
(2.6638 -0.441087 0)
(2.67218 -0.450007 0)
(2.69005 -0.466679 0)
(2.70476 -0.474804 0)
(2.70855 -0.474209 0)
(2.71008 -0.473491 0)
(2.71224 -0.471407 0)
(2.71135 -0.465443 0)
(2.69958 -0.449878 0)
(2.68281 -0.434168 0)
(2.67999 -0.431299 0)
(2.68162 -0.431825 0)
(2.68353 -0.432599 0)
(2.68549 -0.433117 0)
(2.6874 -0.433498 0)
(2.68902 -0.434014 0)
(2.69481 -0.436345 0)
(2.71018 -0.444615 0)
(2.72706 -0.451233 0)
(2.73161 -0.450409 0)
(2.73423 -0.44873 0)
(2.73607 -0.446297 0)
(2.73298 -0.441154 0)
(2.72326 -0.432054 0)
(2.7183 -0.42792 0)
(2.71962 -0.428157 0)
(2.72157 -0.42992 0)
(2.72357 -0.43268 0)
(2.72865 -0.437191 0)
(2.73653 -0.440421 0)
(2.74218 -0.438391 0)
(2.74426 -0.435436 0)
(2.74533 -0.431272 0)
(2.74582 -0.424347 0)
(2.74207 -0.414752 0)
(2.73683 -0.408967 0)
(2.73705 -0.409416 0)
(2.73881 -0.41175 0)
(2.74062 -0.414602 0)
(2.7431 -0.417769 0)
(2.75006 -0.425057 0)
(2.76353 -0.438612 0)
(2.77284 -0.44567 0)
(2.77529 -0.446113 0)
(2.77839 -0.445702 0)
(2.77954 -0.443026 0)
(2.77281 -0.433125 0)
(2.75578 -0.416792 0)
(2.7491 -0.410688 0)
(2.75104 -0.410649 0)
(2.75309 -0.411543 0)
(2.75546 -0.413024 0)
(2.76157 -0.417137 0)
(2.77158 -0.422824 0)
(2.77811 -0.423012 0)
(2.77985 -0.421569 0)
(2.78129 -0.415813 0)
(2.78274 -0.409918 0)
(2.78476 -0.407822 0)
(2.7873 -0.407947 0)
(2.79205 -0.411576 0)
(2.79408 -0.416351 0)
(2.7953 -0.41979 0)
(2.79735 -0.423919 0)
(2.7985 -0.426028 0)
(2.79621 -0.424179 0)
(2.78687 -0.413208 0)
(2.77434 -0.396738 0)
(2.7731 -0.390668 0)
(2.77521 -0.388775 0)
(2.77786 -0.38663 0)
(2.78248 -0.384198 0)
(2.78596 -0.382856 0)
(2.78815 -0.38349 0)
(2.79177 -0.386671 0)
(2.80137 -0.395586 0)
(2.81905 -0.410922 0)
(2.83054 -0.420118 0)
(2.83225 -0.421506 0)
(2.83297 -0.421924 0)
(2.83154 -0.418279 0)
(2.82217 -0.404972 0)
(2.80503 -0.3845 0)
(2.80119 -0.377142 0)
(2.80491 -0.376916 0)
(2.80937 -0.377789 0)
(2.81382 -0.380324 0)
(2.82103 -0.385924 0)
(2.83277 -0.397351 0)
(2.83944 -0.404344 0)
(2.84124 -0.405232 0)
(2.84313 -0.405225 0)
(2.84378 -0.403517 0)
(2.8405 -0.396936 0)
(2.82883 -0.381874 0)
(2.81735 -0.367526 0)
(2.81611 -0.363848 0)
(2.81746 -0.362587 0)
(2.82017 -0.362396 0)
(2.82257 -0.363763 0)
(2.82703 -0.36668 0)
(2.83837 -0.375562 0)
(2.86149 -0.392066 0)
(2.87565 -0.399567 0)
(2.87764 -0.399695 0)
(2.88053 -0.398769 0)
(2.88261 -0.396689 0)
(2.88001 -0.390509 0)
(2.86311 -0.37333 0)
(2.83615 -0.35282 0)
(2.83101 -0.34854 0)
(2.83427 -0.349212 0)
(2.83768 -0.35053 0)
(2.84104 -0.353349 0)
(2.84436 -0.357194 0)
(2.85075 -0.364162 0)
(2.86334 -0.378182 0)
(2.88376 -0.393875 0)
(2.89753 -0.398811 0)
(2.89978 -0.396836 0)
(2.89836 -0.394835 0)
(2.89745 -0.393678 0)
(2.89632 -0.392022 0)
(2.89256 -0.386462 0)
(2.8794 -0.373512 0)
(2.86184 -0.360319 0)
(2.85304 -0.353254 0)
(2.85274 -0.349996 0)
(2.85415 -0.349216 0)
(2.85468 -0.348027 0)
(2.85542 -0.345958 0)
(2.85459 -0.3424 0)
(2.85443 -0.338334 0)
(2.86111 -0.338278 0)
(2.87802 -0.342638 0)
(2.89234 -0.338455 0)
(2.8911 -0.330337 0)
(2.88833 -0.326847 0)
(2.88645 -0.325011 0)
(2.88358 -0.323198 0)
(2.88134 -0.316831 0)
(2.87506 -0.305216 0)
(2.86052 -0.293912 0)
(2.84637 -0.287559 0)
(2.84624 -0.287683 0)
(2.852 -0.289247 0)
(2.85702 -0.290755 0)
(2.86202 -0.292344 0)
(2.87067 -0.295636 0)
(2.88754 -0.306537 0)
(2.90616 -0.319604 0)
(2.91455 -0.324043 0)
(2.91721 -0.325164 0)
(2.9163 -0.325689 0)
(2.91377 -0.325486 0)
(2.90621 -0.322164 0)
(2.88805 -0.31013 0)
(2.87603 -0.301627 0)
(2.87723 -0.301628 0)
(2.87963 -0.302506 0)
(2.88288 -0.303544 0)
(2.88724 -0.305886 0)
(2.89191 -0.30923 0)
(2.89894 -0.311494 0)
(2.90629 -0.312857 0)
(2.91114 -0.313468 0)
(2.91425 -0.31276 0)
(2.91096 -0.307485 0)
(2.90131 -0.296854 0)
(2.89891 -0.291896 0)
(2.90041 -0.290918 0)
(2.90181 -0.290038 0)
(2.90485 -0.289271 0)
(2.90912 -0.291043 0)
(2.91716 -0.298496 0)
(2.92963 -0.311195 0)
(2.93666 -0.319253 0)
(2.93674 -0.320619 0)
(2.9353 -0.321073 0)
(2.93005 -0.319533 0)
(2.91495 -0.309481 0)
(2.89598 -0.295915 0)
(2.89198 -0.292401 0)
(2.89268 -0.292094 0)
(2.89614 -0.292612 0)
(2.89691 -0.293698 0)
(2.57499 -0.484834 0)
(2.57767 -0.486065 0)
(2.5802 -0.48711 0)
(2.58659 -0.490273 0)
(2.59954 -0.497398 0)
(2.60886 -0.502094 0)
(2.61202 -0.502744 0)
(2.61376 -0.502676 0)
(2.61544 -0.502521 0)
(2.61652 -0.501122 0)
(2.61337 -0.496003 0)
(2.60103 -0.480659 0)
(2.58624 -0.463364 0)
(2.5824 -0.457477 0)
(2.58241 -0.45594 0)
(2.58235 -0.455692 0)
(2.58284 -0.455829 0)
(2.58488 -0.457237 0)
(2.58935 -0.46067 0)
(2.59803 -0.468848 0)
(2.61333 -0.484765 0)
(2.62754 -0.49888 0)
(2.63148 -0.501951 0)
(2.63467 -0.502727 0)
(2.63764 -0.503179 0)
(2.63959 -0.502115 0)
(2.63868 -0.49812 0)
(2.63083 -0.485197 0)
(2.61285 -0.461882 0)
(2.60425 -0.449589 0)
(2.60623 -0.447866 0)
(2.60859 -0.448153 0)
(2.6111 -0.44858 0)
(2.61378 -0.449219 0)
(2.61832 -0.451603 0)
(2.62769 -0.460399 0)
(2.64571 -0.478545 0)
(2.66031 -0.491507 0)
(2.66321 -0.493227 0)
(2.66604 -0.493683 0)
(2.6685 -0.493775 0)
(2.66927 -0.492001 0)
(2.66478 -0.484186 0)
(2.6501 -0.465574 0)
(2.63811 -0.451246 0)
(2.63791 -0.448238 0)
(2.63973 -0.448203 0)
(2.64172 -0.448863 0)
(2.64381 -0.449627 0)
(2.64572 -0.450563 0)
(2.64949 -0.453703 0)
(2.65827 -0.463433 0)
(2.67431 -0.479371 0)
(2.68437 -0.487412 0)
(2.68627 -0.487299 0)
(2.68777 -0.485183 0)
(2.68729 -0.481011 0)
(2.68245 -0.47165 0)
(2.66895 -0.45131 0)
(2.6539 -0.432071 0)
(2.65073 -0.427016 0)
(2.65138 -0.42686 0)
(2.65248 -0.427798 0)
(2.65378 -0.429049 0)
(2.65465 -0.430771 0)
(2.65531 -0.433064 0)
(2.65732 -0.435027 0)
(2.65975 -0.436231 0)
(2.66343 -0.438126 0)
(2.67441 -0.44556 0)
(2.69593 -0.461124 0)
(2.71082 -0.468673 0)
(2.71377 -0.468569 0)
(2.71672 -0.468098 0)
(2.71906 -0.466838 0)
(2.71621 -0.461839 0)
(2.69967 -0.446512 0)
(2.68267 -0.432711 0)
(2.68137 -0.430116 0)