/*--------------------------------*- C++ -*----------------------------------*\
  =========                 |
  \\      /  F ield         | OpenFOAM: The Open Source CFD Toolbox
   \\    /   O peration     | Website:  https://openfoam.org
    \\  /    A nd           | Version:  7
     \\/     M anipulation  |
\*---------------------------------------------------------------------------*/
FoamFile
{
    version     2.0;
    format      ascii;
    class       volScalarField;
    location    "0.4";
    object      rho;
}
// * * * * * * * * * * * * * * * * * * * * * * * * * * * * * * * * * * * * * //

dimensions      [1 -3 0 0 0 0 0];

internalField   nonuniform List<scalar> 
16192
(
4.17637
4.12751
4.04653
3.96567
3.88266
3.80062
3.72364
3.65558
3.59473
3.53705
3.48595
3.43527
3.38561
3.33673
3.29042
3.24531
3.19763
3.14609
3.09622
3.05766
3.01817
4.10979
4.12213
4.0722
3.99409
3.90978
3.83261
3.76275
3.6976
3.63299
3.56966
3.5111
3.45244
3.39681
3.34339
3.2984
3.25672
3.21181
3.16231
3.11967
3.08326
3.0393
4.02921
4.15331
4.10846
4.02682
3.94085
3.86739
3.80259
3.73759
3.67155
3.60361
3.53746
3.47223
3.41418
3.36021
3.31508
3.27166
3.22779
3.18278
3.14438
3.1018
3.04932
3.54524
4.0587
4.09971
4.05648
3.97724
3.90777
3.84271
3.77511
3.70472
3.63492
3.5659
3.49938
3.43946
3.38107
3.33452
3.29369
3.25232
3.20929
3.16719
3.11624
3.05699
2.62409
3.96089
4.1328
4.09264
4.01102
3.93643
3.87011
3.80249
3.73351
3.66736
3.59766
3.52901
3.46399
3.404
3.35862
3.31902
3.2775
3.23269
3.18582
3.12961
3.06731
1.76878
3.42
4.07059
4.0979
4.04468
3.96784
3.89688
3.82931
3.76085
3.69634
3.62833
3.5623
3.49544
3.43389
3.38839
3.34908
3.30602
3.25723
3.20405
3.14332
3.08043
1.43467
2.50041
3.9387
4.10374
4.05738
3.98441
3.91566
3.84869
3.78667
3.72621
3.66084
3.59728
3.52985
3.47093
3.42596
3.38269
3.33415
3.27981
3.22185
3.15971
3.09911
1.40093
1.69801
3.30861
4.03767
4.06961
4.0258
3.94757
3.87148
3.81116
3.75191
3.69128
3.63276
3.56964
3.51306
3.46419
3.41638
3.36346
3.30543
3.24442
3.18279
3.12546
1.40001
1.42396
2.34903
3.8562
4.05202
4.0154
3.95613
3.88983
3.83823
3.78167
3.7232
3.66584
3.60597
3.54863
3.49461
3.44135
3.38291
3.32427
3.26623
3.2114
3.1603
1.40001
1.40057
1.61429
3.14436
4.01235
4.03173
3.98495
3.92251
3.86654
3.80825
3.75129
3.69192
3.63284
3.57564
3.51959
3.45955
3.39841
3.3437
3.29151
3.24517
3.19933
1.40001
1.40001
1.41406
2.17209
3.70637
4.01358
4.00934
3.96022
3.89606
3.8357
3.77739
3.71616
3.65516
3.59618
3.5378
3.4735
3.41617
3.36793
3.32306
3.28457
3.23929
1.40001
1.40001
1.40029
1.53869
2.92385
3.96529
4.02031
3.98667
3.9205
3.85401
3.79343
3.73448
3.67529
3.61578
3.55163
3.48657
3.43999
3.39927
3.36302
3.32783
3.27758
1.40001
1.40001
1.40001
1.40711
1.98545
3.52524
3.97313
4.00524
3.95799
3.88434
3.81561
3.75327
3.69247
3.63172
3.56647
3.5107
3.46967
3.43203
3.40068
3.36378
3.30398
1.40001
1.40001
1.40001
1.40012
1.48091
2.67492
3.86774
4.01519
3.97926
3.90633
3.83032
3.76686
3.71049
3.65103
3.59209
3.54713
3.50319
3.46117
3.42375
3.37955
3.31688
1.40001
1.40001
1.40001
1.40001
1.40309
1.7946
3.25653
3.96989
3.99502
3.95572
3.87936
3.79578
3.72885
3.6725
3.62699
3.58043
3.52955
3.48351
3.43877
3.38611
3.32637
1.40001
1.40001
1.40001
1.40001
1.40004
1.43726
2.31839
3.71267
3.99235
3.95268
3.87719
3.81018
3.74772
3.70246
3.66463
3.60944
3.54981
3.49548
3.43547
3.38484
3.33704
1.40001
1.40001
1.40001
1.40001
1.40001
1.40095
1.59608
2.90424
3.93246
3.96962
3.90709
3.83825
3.77776
3.73892
3.69055
3.62584
3.56879
3.51059
3.44334
3.39766
3.36027
1.40001
1.40001
1.40001
1.40001
1.40001
1.40001
1.4116
1.97813
3.55852
3.88851
3.90111
3.87345
3.81573
3.76715
3.7063
3.63643
3.57493
3.51051
3.45001
3.41962
3.39096
1.40001
1.40001
1.40001
1.40001
1.40001
1.40001
1.4002
1.48517
2.65377
3.82229
3.88769
3.86817
3.82799
3.78125
3.71634
3.64953
3.59261
3.52494
3.47622
3.45397
3.42351
1.40001
1.40001
1.40001
1.40001
1.40001
1.40001
1.40001
1.40379
1.79042
3.35413
3.8144
3.90594
3.86773
3.80056
3.72998
3.66662
3.60459
3.53933
3.51142
3.48877
3.45103
1.40001
1.40001
1.40001
1.40001
1.40001
1.40001
1.40001
1.40006
1.44215
2.39274
3.56176
3.86937
3.88413
3.8298
3.75676
3.69654
3.62771
3.57045
3.55415
3.52419
3.47159
1.40001
1.40001
1.40001
1.40001
1.40001
1.40001
1.40001
1.40001
1.40128
1.61078
2.87578
3.73965
3.91375
3.87027
3.79256
3.72932
3.65284
3.60474
3.58473
3.54505
3.48195
1.40001
1.40001
1.40001
1.40001
1.40001
1.40001
1.40001
1.40001
1.40001
1.41226
1.92591
3.18148
3.89609
3.8958
3.85217
3.78215
3.69701
3.6433
3.61333
3.56105
3.4894
1.40001
1.40001
1.40001
1.40001
1.40001
1.40001
1.40001
1.40001
1.40001
1.40017
1.45787
2.27
3.57015
3.89155
3.8311
3.7808
3.72329
3.66821
3.63819
3.57618
3.50065
1.40001
1.40001
1.40001
1.40001
1.40001
1.40001
1.40001
1.40001
1.40001
1.40001
1.40151
1.56959
2.7059
3.80299
3.84684
3.80249
3.74711
3.6997
3.66557
3.59511
3.52481
1.40001
1.40001
1.40001
1.40001
1.40001
1.40001
1.40001
1.40001
1.40001
1.40001
1.40001
1.40868
1.84072
3.31223
3.73985
3.79201
3.77835
3.75007
3.68926
3.6078
3.54778
1.40001
1.40001
1.40001
1.40001
1.40001
1.40001
1.40001
1.40001
1.40001
1.40001
1.40001
1.40013
1.45416
2.38292
3.49723
3.80514
3.85503
3.80854
3.7179
3.62886
3.58255
1.40001
1.40001
1.40001
1.40001
1.40001
1.40001
1.40001
1.40001
1.40001
1.40001
1.40001
1.40001
1.40203
1.63618
2.87134
3.69242
3.85276
3.80535
3.72042
3.64707
3.61129
1.40001
1.40001
1.40001
1.40001
1.40001
1.40001
1.40001
1.40001
1.40001
1.40001
1.40001
1.40001
1.40003
1.41714
1.9826
3.19413
3.7703
3.83232
3.77518
3.71184
3.65631
1.40001
1.40001
1.40001
1.40001
1.40001
1.40001
1.40001
1.40001
1.40001
1.40001
1.40001
1.40001
1.40001
1.40032
1.4802
2.28335
3.37437
3.80659
3.7887
3.71216
3.64507
1.40001
1.40001
1.40001
1.40001
1.40001
1.40001
1.40001
1.40001
1.40001
1.40001
1.40001
1.40001
1.40001
1.40001
1.40262
1.55628
2.5094
3.64603
3.69376
3.64916
3.65795
1.40001
1.40001
1.40001
1.40001
1.40001
1.40001
1.40001
1.40001
1.40001
1.40001
1.40001
1.40001
1.40001
1.40001
1.40002
1.40619
1.66347
2.8733
3.64334
3.67648
3.67872
1.40001
1.40001
1.40001
1.40001
1.40001
1.40001
1.40001
1.40001
1.40001
1.40001
1.40001
1.40001
1.40001
1.40001
1.40001
1.40005
1.416
1.9242
3.16023
3.60298
3.73541
1.40001
1.40001
1.40001
1.40001
1.40001
1.40001
1.40001
1.40001
1.40001
1.40001
1.40001
1.40001
1.40001
1.40001
1.40001
1.40001
1.40023
1.46158
2.31485
3.37425
3.57479
1.40001
1.40001
1.40001
1.40001
1.40001
1.40001
1.40001
1.40001
1.40001
1.40001
1.40001
1.40001
1.40001
1.40001
1.40001
1.40001
1.40212
1.60501
2.61216
3.51703
1.40001
1.40001
1.40001
1.40001
1.40001
1.40001
1.40001
1.40001
1.40001
1.40001
1.40001
1.40001
1.40001
1.40001
1.40001
1.40001
1.40002
1.41272
1.76453
2.86949
1.40001
1.40001
1.40001
1.40001
1.40001
1.40001
1.40001
1.40001
1.40001
1.40001
1.40001
1.40001
1.40001
1.40001
1.40001
1.40001
1.40001
1.40017
1.43336
1.92674
1.40001
1.40001
1.40001
1.40001
1.40001
1.40001
1.40001
1.40001
1.40001
1.40001
1.40001
1.40001
1.40001
1.40001
1.40001
1.40001
1.40001
1.40001
1.40065
1.46307
1.40001
1.40001
1.40001
1.40001
1.40001
1.40001
1.40001
1.40001
1.40001
1.40001
1.40001
1.40001
1.40001
1.40001
1.40001
1.40001
1.40001
1.40001
1.40001
1.40172
1.40001
1.40001
1.40001
1.40001
1.40001
1.40001
1.40001
1.40001
1.40001
1.40001
1.40001
1.40001
1.40001
1.40001
1.40001
1.40001
1.40001
1.40001
1.40001
1.40001
1.40001
1.40001
1.40001
1.40001
1.40001
1.40001
1.40001
1.40001
1.40001
1.40001
1.40001
1.40001
1.40001
1.40001
1.40001
1.40001
1.40001
1.40001
1.40001
1.40001
1.40001
1.40001
1.40001
1.40001
1.40001
1.40001
1.40001
1.40001
1.40001
1.40001
1.40001
1.40001
1.40001
1.40001
1.40001
1.40001
1.40001
1.40001
1.40001
1.40001
1.40001
1.40001
1.40001
1.40001
1.40001
1.40001
1.40001
1.40001
1.40001
1.40001
1.40001
1.40001
1.40001
1.40001
1.40001
1.40001
1.40001
1.40001
1.40001
1.40001
1.40001
1.40001
1.40001
1.40001
1.40001
1.40001
1.40001
1.40001
1.40001
1.40001
1.40001
1.40001
1.40001
1.40001
1.40001
1.40001
1.40001
1.40001
1.40001
1.40001
1.40001
1.40001
1.40001
1.40001
1.40001
1.40001
1.40001
1.40001
1.40001
1.40001
1.40001
1.40001
1.40001
1.40001
1.40001
1.40001
1.40001
1.40001
1.40001
1.40001
1.40001
1.40001
1.40001
1.40001
1.40001
1.40001
1.40001
1.40001
1.40001
1.40001
1.40001
1.40001
1.40001
1.40001
1.40001
1.40001
1.40001
1.40001
1.40001
1.40001
1.40001
1.40001
1.40001
1.40001
1.40001
1.40001
1.40001
1.40001
1.40001
1.40001
1.40001
1.40001
1.40001
1.40001
1.40001
1.40001
1.40001
1.40001
1.40001
1.40001
1.40001
1.40001
1.40001
1.40001
1.40001
1.40001
1.40001
1.40001
1.40001
1.40001
1.40001
1.40001
1.40001
1.40001
1.40001
1.40001
1.40001
1.40001
1.40001
1.40001
1.40001
1.40001
1.40001
1.40001
1.40001
1.40001
1.40001
1.40001
1.40001
1.40001
1.40001
1.40001
1.40001
1.40001
1.40001
1.40001
1.40001
1.40001
1.40001
1.40001
1.40001
1.40001
1.40001
1.40001
1.40001
1.40001
1.40001
1.40001
1.40001
1.40001
1.40001
1.40001
1.40001
1.40001
1.40001
1.40001
1.40001
1.40001
1.40001
1.40001
1.40001
1.40001
1.40001
1.40001
1.40001
1.40001
1.40001
1.40001
1.40001
1.40001
1.40001
1.40001
1.40001
1.40001
1.40001
1.40001
1.40001
1.40001
1.40001
1.40001
1.40001
1.40001
1.40001
1.40001
1.40001
1.40001
1.40001
1.40001
1.40001
1.40001
1.40001
1.40001
1.40001
1.40001
1.40001
1.40001
1.40001
1.40001
1.40001
1.40001
1.40001
1.40001
1.40001
1.40001
1.40001
1.40001
1.40001
1.40001
1.40001
1.40001
1.40001
1.40001
1.40001
1.40001
1.40001
1.40001
1.40001
1.40001
1.40001
1.40001
1.40001
1.40001
1.40001
1.40001
1.40001
1.40001
1.40001
1.40001
1.40001
1.40001
1.40001
1.40001
1.40001
1.40001
1.40001
1.40001
1.40001
1.40001
1.40001
1.40001
1.40001
1.40001
1.40001
1.40001
1.40001
1.40001
1.40001
1.40001
1.40001
1.40001
1.40001
1.40001
1.40001
1.40001
1.40001
1.40001
1.40001
1.40001
1.40001
1.40001
1.40001
1.40001
1.40001
1.40001
1.40001
1.40001
1.40001
1.40001
1.40001
1.40001
1.40001
1.40001
1.40001
1.40001
1.40001
1.40001
1.40001
1.40001
1.40001
1.40001
1.40001
1.40001
1.40001
1.40001
1.40001
1.40001
1.40001
1.40001
1.40001
1.40001
1.40001
1.40001
1.40001
1.40001
1.40001
1.40001
1.40001
1.40001
1.40001
1.40001
1.40001
1.40001
1.40001
1.40001
1.40001
1.40001
1.40001
1.40001
1.40001
1.40001
1.40001
1.40001
1.40001
1.40001
1.40001
1.40001
1.40001
1.40001
1.40001
1.40001
1.40001
1.40001
1.40001
1.40001
1.40001
1.40001
1.40001
1.40001
1.40001
1.40001
1.40001
1.40001
1.40001
1.40001
1.40001
1.40001
1.40001
1.40001
1.40001
1.40001
1.40001
1.40001
1.40001
1.40001
1.40001
1.40001
1.40001
1.40001
1.40001
1.40001
1.40001
1.40001
1.40001
1.40001
1.40001
1.40001
1.40001
1.40001
1.40001
1.40001
1.40001
1.40001
1.40001
1.40001
1.40001
1.40001
1.40001
1.40001
1.40001
1.40001
1.40001
1.40001
1.40001
1.40001
1.40001
1.40001
1.40001
1.40001
1.40001
1.40001
1.40001
1.40001
1.40001
1.40001
1.40001
1.40001
1.40001
1.40001
1.40001
1.40001
1.40001
1.40001
1.40001
1.40001
1.40001
1.40001
1.40001
1.40001
1.40001
1.40001
1.40001
1.40001
1.40001
1.40001
1.40001
1.40001
1.40001
1.40001
1.40001
1.40001
1.40001
1.40001
1.40001
1.40001
1.40001
1.40001
1.40001
1.40001
1.40001
1.40001
1.40001
1.40001
1.40001
1.40001
1.40001
1.40001
1.40001
1.40001
1.40001
1.40001
1.40001
1.40001
1.40001
1.40001
1.40001
1.40001
1.40001
1.40001
1.40001
1.40001
1.40001
1.40001
1.40001
1.40001
1.40001
1.40001
1.40001
1.40001
1.40001
1.40001
1.40001
1.40001
1.40001
1.40001
1.40001
1.40001
1.40001
1.40001
1.40001
1.40001
0.939223
0.942157
0.955293
0.975608
0.98712
0.988602
0.987498
0.983283
0.973264
0.965624
0.963697
0.964588
0.972636
0.9917
1.00961
1.01471
1.01448
1.01077
1.00096
0.981754
0.964039
0.959792
0.95925
0.958663
0.958269
0.958721
0.963632
0.975185
0.982114
0.981677
0.979261
0.975079
0.968443
0.962869
0.960927
0.960015
0.959022
0.957632
0.954984
0.948034
0.935821
0.930294
2.98589
2.96164
2.93759
2.91442
2.88581
2.85736
2.83612
2.81596
2.79678
2.78411
2.77264
2.76664
2.7711
2.77719
2.79381
2.8399
2.89906
2.92891
2.93692
2.93476
2.93421
2.93155
2.92192
2.90464
2.88699
2.86782
2.84442
2.81852
2.79344
2.77859
2.76222
2.74238
2.72085
2.68715
2.64622
2.60752
2.56719
2.52892
2.49099
2.44056
2.39025
2.3485
2.3089
2.28095
2.25618
2.22134
2.20087
2.17989
2.14514
2.11634
2.09517
2.06566
2.04988
2.0369
2.01204
1.99157
1.9732
1.94575
1.93023
1.91614
1.8965
1.87562
1.85528
1.83647
1.81548
1.78947
1.75972
1.72655
1.70385
1.69629
1.68978
1.68134
1.67159
1.66141
1.64907
1.62673
1.58654
1.54301
1.51891
1.51697
1.52761
1.56204
1.59526
1.6071
1.60347
1.59084
1.5752
1.55334
1.52739
1.4983
1.46792
1.43844
1.41178
1.3962
1.38426
1.37067
1.35868
1.34455
1.32697
1.31078
1.2984
1.28591
1.26952
1.24589
1.21394
1.18522
1.17673
1.17303
1.16932
1.16462
1.15908
1.1513
1.13676
1.10562
1.07137
1.06312
1.06213
1.06242
1.0694
1.08471
1.09935
1.11226
1.12431
1.13083
1.13433
1.13901
1.14781
1.15125
1.14881
1.13964
1.12209
1.10924
1.1032
1.09822
1.09535
1.09311
1.09049
1.08786
1.08293
1.07045
1.05073
1.04058
1.03881
1.03742
1.03627
1.03568
1.03548
1.03489
1.0339
1.03294
1.03277
1.03283
1.03075
1.02853
1.02612
1.02308
1.01905
1.01317
1.00781
1.00663
1.00639
1.00528
1.00275
0.999396
0.995297
0.990169
0.985402
0.984056
0.984817
0.98879
0.993125
0.992387
0.988937
0.984227
0.978831
0.975111
0.973383
0.973443
0.978175
0.989995
1.00354
1.00914
1.00871
1.00255
0.986977
0.964786
0.954993
0.954118
0.957322
0.970728
0.988781
0.996348
0.996499
0.994347
0.987893
0.977406
0.972672
0.971954
0.974048
0.98497
1.00631
1.02277
1.02616
1.02528
1.02095
1.01093
0.994914
0.980637
0.971176
0.968001
0.967097
0.966424
0.966131
0.968171
0.977568
0.988478
0.990057
0.988524
0.984725
0.978023
0.970125
0.967429
0.966987
0.966339
0.965194
0.963244
0.958824
0.948501
0.938596
0.936398
3.00228
2.9758
2.94926
2.92389
2.89423
2.86797
2.84924
2.83184
2.81443
2.80196
2.7926
2.78719
2.78985
2.79429
2.80756
2.85039
2.90704
2.93704
2.94433
2.94253
2.94148
2.93687
2.92588
2.91232
2.90361
2.89204
2.87555
2.86079
2.8518
2.84649
2.83162
2.81174
2.77861
2.7334
2.68914
2.64607
2.60423
2.56556
2.51879
2.46371
2.41891
2.37886
2.34659
2.32345
2.29032
2.26261
2.24715
2.21908
2.18765
2.16831
2.13993
2.1166
2.10431
2.08134
2.05684
2.03934
2.0111
1.98881
1.97442
1.95379
1.93197
1.91151
1.89006
1.86891
1.84249
1.80908
1.77574
1.754
1.74615
1.73997
1.73271
1.7237
1.71359
1.70094
1.67664
1.63108
1.58234
1.55755
1.5551
1.56241
1.59101
1.62386
1.63854
1.63472
1.62391
1.61557
1.59956
1.57596
1.55031
1.52082
1.49001
1.4593
1.43753
1.4246
1.40872
1.39255
1.37909
1.36333
1.34725
1.33517
1.32375
1.30841
1.28224
1.25091
1.22473
1.21326
1.20822
1.20418
1.19937
1.19357
1.18638
1.1714
1.14255
1.10743
1.08934
1.08476
1.08226
1.08206
1.08518
1.09239
1.09583
1.09755
1.10219
1.11109
1.12345
1.14187
1.15625
1.15826
1.15738
1.15116
1.13639
1.12619
1.12157
1.11724
1.11343
1.11038
1.10665
1.10211
1.09273
1.07337
1.05717
1.05419
1.05295
1.05199
1.05119
1.05079
1.0502
1.04896
1.04778
1.04689
1.04705
1.0463
1.04385
1.04144
1.03877
1.03557
1.03236
1.02911
1.02262
1.01526
1.013
1.01118
1.00831
1.00486
1.00159
0.999358
0.998987
1.00068
1.00452
1.00581
1.00328
0.996528
0.989292
0.984882
0.98227
0.981274
0.983148
0.991726
1.00518
1.01716
1.0215
1.02103
1.01553
1.00066
0.979445
0.970283
0.969701
0.973471
0.986837
1.00167
1.00574
1.00458
1.00111
0.992266
0.982317
0.979603
0.979664
0.983768
0.997819
1.02061
1.03518
1.03724
1.03542
1.03042
1.01955
1.00442
0.994201
0.986969
0.979792
0.97607
0.975115
0.974543
0.974978
0.981315
0.993349
0.997904
0.997331
0.994159
0.98757
0.978876
0.974121
0.973237
0.972881
0.972237
0.971057
0.968371
0.961041
0.949786
0.944952
0.943657
3.0079
2.98161
2.95499
2.92918
2.90146
2.87743
2.86091
2.84598
2.83188
2.82071
2.81304
2.80854
2.80951
2.81204
2.82237
2.8612
2.9157
2.94588
2.95396
2.95391
2.95197
2.94552
2.93672
2.93151
2.92938
2.92154
2.91119
2.90424
2.89949
2.88628
2.8649
2.83225
2.79082
2.75099
2.71117
2.67027
2.63184
2.59245
2.53853
2.48939
2.44984
2.41515
2.39176
2.36453
2.33127
2.31575
2.29555
2.26453
2.24422
2.22013
2.18893
2.17269
2.1512
2.12387
2.10457
2.07914
2.04852
2.03305
2.01417
1.99071
1.96991
1.94992
1.92494
1.89427
1.86122
1.82766
1.80456
1.79597
1.78942
1.78271
1.7747
1.76467
1.75213
1.7279
1.68112
1.62596
1.59904
1.5961
1.60108
1.62367
1.65303
1.6685
1.66722
1.65395
1.65052
1.64244
1.62289
1.59956
1.57258
1.5426
1.51104
1.48241
1.46797
1.45549
1.43679
1.41809
1.40054
1.38322
1.36937
1.35742
1.34253
1.31726
1.2852
1.26331
1.2523
1.24531
1.23997
1.23581
1.23022
1.22238
1.20647
1.17714
1.14348
1.12575
1.12045
1.11498
1.11114
1.10884
1.10607
1.10255
1.09643
1.09274
1.09525
1.10469
1.11992
1.14244
1.15761
1.15954
1.15954
1.15648
1.1475
1.14181
1.13974
1.13832
1.13507
1.13093
1.12526
1.11319
1.09562
1.07768
1.06956
1.06723
1.06606
1.06553
1.06521
1.06501
1.0644
1.06351
1.06259
1.06211
1.0628
1.06149
1.05881
1.05616
1.05344
1.05045
1.04631
1.03823
1.0269
1.02032
1.01808
1.01681
1.0162
1.01531
1.01467
1.01524
1.01731
1.01905
1.01897
1.01527
1.00596
0.996922
0.992852
0.990931
0.990378
0.994751
1.00628
1.01973
1.02879
1.03161
1.03093
1.02646
1.01344
0.994223
0.986072
0.985947
0.990279
1.00266
1.01361
1.01506
1.01276
1.008
0.997458
0.988657
0.986891
0.987851
0.994174
1.01147
1.03483
1.04672
1.04765
1.04521
1.03922
1.02675
1.01221
1.00487
1.00059
0.994719
0.98725
0.984561
0.983719
0.983498
0.987639
0.999458
1.00587
1.00555
1.00303
0.996471
0.987308
0.981162
0.979716
0.979066
0.978569
0.977844
0.976518
0.972562
0.962692
0.9546
0.952727
0.951672
3.01229
2.98521
2.95974
2.93408
2.90847
2.88636
2.8726
2.85972
2.84841
2.84009
2.83501
2.83185
2.83115
2.83151
2.83938
2.8722
2.92742
2.95881
2.96779
2.96796
2.96633
2.96365
2.96136
2.96069
2.96019
2.95256
2.94124
2.92944
2.91479
2.89397
2.86788
2.83408
2.79878
2.76429
2.72694
2.68965
2.65481
2.60851
2.55813
2.52041
2.48628
2.46127
2.43755
2.405
2.3858
2.37235
2.34493
2.32121
2.30071
2.26747
2.24306
2.22091
2.19215
2.16951
2.1475
2.11416
2.09326
2.07587
2.05365
2.03241
2.01343
1.98688
1.94709
1.91109
1.88153
1.85958
1.84695
1.83858
1.83109
1.82363
1.81371
1.80056
1.77635
1.73207
1.67472
1.64328
1.63937
1.64277
1.66084
1.68485
1.6999
1.70101
1.68602
1.68521
1.6821
1.66874
1.64758
1.62275
1.59202
1.56148
1.53002
1.50909
1.49892
1.4851
1.46581
1.44487
1.42404
1.40626
1.39165
1.37495
1.34959
1.31769
1.29769
1.29064
1.28309
1.27635
1.27139
1.2662
1.25869
1.24178
1.21255
1.17894
1.16113
1.15688
1.15231
1.14642
1.14156
1.13695
1.12947
1.11437
1.09861
1.0958
1.0971
1.10456
1.12112
1.14204
1.15343
1.15698
1.15817
1.15659
1.15414
1.15383
1.15776
1.16033
1.15715
1.15025
1.13817
1.11569
1.09786
1.09093
1.08478
1.08042
1.07901
1.07877
1.07885
1.07894
1.07868
1.07822
1.07791
1.0792
1.07949
1.07718
1.07445
1.07167
1.06846
1.06365
1.05406
1.04016
1.03068
1.02758
1.02624
1.02606
1.02885
1.03191
1.03276
1.03357
1.03368
1.0323
1.02732
1.01715
1.00693
1.00267
1.00165
1.00238
1.00955
1.0224
1.03356
1.03901
1.04006
1.03889
1.03486
1.02439
1.00887
1.00192
1.00242
1.0074
1.01807
1.0248
1.02423
1.0207
1.0145
1.0033
0.996078
0.994941
0.996785
1.00583
1.02631
1.0492
1.05829
1.05833
1.05483
1.04698
1.03259
1.01924
1.01411
1.01178
1.00816
1.00017
0.994677
0.993504
0.993001
0.995835
1.00751
1.01565
1.01537
1.01223
1.00454
0.99483
0.988144
0.986405
0.985512
0.984896
0.984286
0.98326
0.981145
0.974892
0.965608
0.96208
0.960918
0.960412
3.02113
2.99352
2.96877
2.94446
2.92096
2.90003
2.8873
2.87655
2.8667
2.8607
2.85694
2.85447
2.85244
2.85036
2.8576
2.88625
2.93926
2.9763
2.99045
2.99283
2.99312
2.99361
2.99311
2.99218
2.98751
2.97543
2.95348
2.93383
2.91612
2.89281
2.86559
2.83376
2.80379
2.77166
2.73739
2.70582
2.66897
2.62133
2.58688
2.55684
2.5308
2.50984
2.48051
2.45801
2.44722
2.42505
2.39875
2.3783
2.3461
2.31419
2.29046
2.26137
2.2355
2.21409
2.18288
2.15821
2.14157
2.12045
2.09935
2.07926
2.04805
1.99928
1.95878
1.93249
1.91485
1.90247
1.8905
1.88051
1.87195
1.86158
1.8478
1.8232
1.78007
1.72541
1.68913
1.68358
1.6853
1.69967
1.71835
1.73108
1.73249
1.71982
1.72115
1.72369
1.71613
1.69827
1.675
1.64375
1.61053
1.57891
1.55094
1.53904
1.5281
1.51132
1.49132
1.46875
1.44739
1.42971
1.41178
1.38581
1.3518
1.33045
1.32553
1.32009
1.31266
1.30681
1.30116
1.29383
1.27781
1.24586
1.21363
1.19715
1.19103
1.1862
1.18203
1.1773
1.17192
1.16563
1.1527
1.12535
1.10786
1.10629
1.10674
1.11285
1.1283
1.13976
1.14419
1.14766
1.15121
1.15325
1.15621
1.16315
1.17266
1.17392
1.17072
1.1613
1.14254
1.1187
1.10894
1.10687
1.1023
1.09615
1.09361
1.09314
1.09314
1.09309
1.09285
1.09271
1.09434
1.09679
1.09521
1.09224
1.08938
1.08607
1.08092
1.07076
1.05512
1.04298
1.03931
1.03791
1.0375
1.04085
1.0472
1.04931
1.04875
1.04779
1.04613
1.0406
1.02975
1.01949
1.01547
1.01509
1.0171
1.02544
1.03874
1.04744
1.04885
1.04782
1.04596
1.04225
1.03383
1.02205
1.01702
1.01833
1.02392
1.03259
1.03564
1.03336
1.02864
1.02077
1.01003
1.00428
1.0035
1.00615
1.01827
1.04194
1.06365
1.07005
1.06946
1.06493
1.05501
1.03799
1.02586
1.02242
1.02145
1.01939
1.01237
1.00478
1.00304
1.0025
1.00511
1.0172
1.02695
1.02673
1.02337
1.01498
1.00218
0.994436
0.993203
0.992664
0.991709
0.991108
0.990265
0.988702
0.984885
0.977018
0.971561
0.969965
0.969337
0.970548
3.03557
3.00917
2.98477
2.96053
2.93841
2.92116
2.90807
2.89653
2.88598
2.87934
2.87497
2.87221
2.86873
2.86633
2.87526
2.90138
2.9482
2.99497
3.01951
3.02451
3.02638
3.02672
3.02151
3.01214
2.99859
2.97782
2.95312
2.93446
2.91462
2.89174
2.86333
2.83659
2.81051
2.7799
2.74867
2.71559
2.67358
2.64419
2.62179
2.5967
2.57766
2.55266
2.52794
2.51653
2.49815
2.4703
2.44779
2.41817
2.38182
2.35699
2.32922
2.30152
2.28058
2.25254
2.22536
2.20962
2.19024
2.16978
2.1462
2.10757
2.0534
2.00536
1.98089
1.96629
1.95489
1.94406
1.93237
1.92149
1.90981
1.89516
1.87035
1.82765
1.77568
1.73825
1.72831
1.72832
1.73783
1.75103
1.76058
1.75941
1.74901
1.75467
1.76434
1.76318
1.75138
1.72948
1.70035
1.66453
1.63035
1.59764
1.57897
1.56843
1.55228
1.53355
1.5126
1.49013
1.46998
1.45052
1.42514
1.39032
1.36527
1.35966
1.35544
1.34872
1.34221
1.33587
1.3283
1.31305
1.28186
1.24659
1.23108
1.22585
1.2198
1.21467
1.2104
1.20567
1.2004
1.19156
1.17275
1.14182
1.12874
1.12599
1.12601
1.13078
1.13806
1.14065
1.14003
1.13785
1.14146
1.14798
1.1575
1.17043
1.17699
1.1771
1.17436
1.16472
1.14545
1.1293
1.12522
1.12289
1.1208
1.1158
1.11183
1.10948
1.10835
1.10764
1.10716
1.10738
1.11089
1.11167
1.10892
1.10571
1.10252
1.09784
1.08807
1.07189
1.05688
1.05199
1.0508
1.05033
1.05314
1.06025
1.06333
1.0629
1.06156
1.05919
1.05438
1.04523
1.03539
1.03192
1.0316
1.03384
1.04266
1.05433
1.05989
1.05971
1.05794
1.05474
1.04983
1.04275
1.03444
1.03132
1.03329
1.03914
1.04551
1.04602
1.04257
1.03665
1.02728
1.01751
1.01303
1.0126
1.01628
1.03125
1.05713
1.07673
1.08127
1.08034
1.07522
1.06349
1.04468
1.03346
1.03095
1.03079
1.02967
1.02344
1.01448
1.01185
1.01141
1.01413
1.0272
1.03948
1.03951
1.03582
1.0271
1.01266
1.00167
0.999714
0.999465
0.999831
0.999222
0.99814
0.996804
0.994065
0.9877
0.980982
0.978514
0.977686
0.978243
0.984616
3.05669
3.0321
3.00912
2.98504
2.96321
2.94713
2.93334
2.92051
2.90761
2.89711
2.89137
2.88748
2.88317
2.88409
2.8952
2.91903
2.96148
3.01787
3.04922
3.05439
3.05564
3.0516
3.03818
3.0226
3.00429
2.9792
2.95185
2.93242
2.91236
2.88817
2.86001
2.839
2.81678
2.78855
2.75919
2.72178
2.69069
2.67494
2.65325
2.63508
2.61673
2.59046
2.57513
2.55977
2.53364
2.50995
2.48249
2.44368
2.41825
2.39404
2.36548
2.34341
2.31858
2.29269
2.27502
2.25621
2.2344
2.20601
2.16345
2.11096
2.05519
2.0262
2.01489
2.0039
1.99257
1.98279
1.97156
1.95834
1.9429
1.91847
1.87609
1.82584
1.79061
1.77804
1.77364
1.77746
1.78393
1.78804
1.78101
1.77213
1.78165
1.79728
1.80657
1.80136
1.78326
1.75565
1.72123
1.68591
1.65095
1.62379
1.61145
1.59621
1.57488
1.55279
1.52989
1.5083
1.48873
1.46543
1.43215
1.40364
1.39599
1.39167
1.385
1.37836
1.37143
1.36293
1.34737
1.31653
1.27975
1.26319
1.25857
1.25331
1.24778
1.24303
1.23817
1.23272
1.22517
1.21069
1.18953
1.16711
1.15779
1.15385
1.15241
1.15182
1.15054
1.14787
1.14
1.13752
1.14083
1.14769
1.15953
1.1729
1.17666
1.1767
1.17448
1.16412
1.14829
1.14207
1.14001
1.13925
1.14127
1.13819
1.1326
1.127
1.1237
1.12246
1.12171
1.12231
1.12547
1.12444
1.12111
1.1178
1.11375
1.10546
1.09013
1.07238
1.06567
1.0644
1.0637
1.06483
1.07171
1.07674
1.0763
1.07499
1.07267
1.06785
1.06038
1.05375
1.0518
1.05124
1.05196
1.05882
1.06966
1.07312
1.07162
1.06923
1.0657
1.0606
1.05385
1.04712
1.04559
1.04783
1.05328
1.05685
1.05575
1.05138
1.04447
1.03457
1.02631
1.02289
1.02263
1.02726
1.04473
1.07109
1.0875
1.0907
1.0897
1.08503
1.07227
1.05285
1.04278
1.04079
1.04083
1.04
1.03428
1.02416
1.02004
1.01971
1.02243
1.03596
1.05151
1.0529
1.04938
1.04048
1.02502
1.0108
1.00741
1.00698
1.00704
1.00831
1.00767
1.00613
1.00394
0.998951
0.990901
0.986727
0.985601
0.985578
0.989969
1.00336
3.08485
3.06103
3.03852
3.01409
2.9917
2.97429
2.95817
2.9421
2.92451
2.91131
2.9059
2.90211
2.89941
2.90321
2.91551
2.93752
2.97577
3.03502
3.06511
3.0696
3.06931
3.0615
3.04617
3.02921
3.00917
2.98238
2.9552
2.93614
2.91536
2.88887
2.86407
2.84663
2.82302
2.79569
2.76324
2.73113
2.71874
2.70239
2.68244
2.66731
2.64345
2.62232
2.60902
2.5859
2.56131
2.5375
2.50234
2.47576
2.45562
2.42715
2.40324
2.37944
2.35409
2.33587
2.31445
2.28885
2.25621
2.21284
2.16684
2.11687
2.07536
2.06115
2.05186
2.04
2.03009
2.02022
2.00644
1.98996
1.96606
1.92465
1.87602
1.84412
1.83148
1.82306
1.82127
1.82164
1.81892
1.80528
1.7958
1.80824
1.82783
1.84251
1.84599
1.8339
1.80773
1.77398
1.73926
1.70586
1.67403
1.6575
1.64287
1.62155
1.59698
1.5708
1.54587
1.52443
1.50229
1.4732
1.44486
1.43547
1.43016
1.42278
1.41533
1.40809
1.39901
1.38279
1.35143
1.31311
1.29456
1.29051
1.28559
1.27983
1.27506
1.26983
1.26436
1.25663
1.24301
1.22553
1.21097
1.19785
1.19017
1.18564
1.1811
1.17567
1.16834
1.15523
1.14408
1.14319
1.14529
1.15197
1.16333
1.17206
1.17335
1.17335
1.16932
1.15697
1.14937
1.14818
1.14924
1.15742
1.16099
1.15726
1.15043
1.14283
1.1389
1.13727
1.13628
1.13771
1.13901
1.13659
1.13299
1.12901
1.12201
1.10827
1.08986
1.08087
1.07898
1.07779
1.07763
1.08173
1.08912
1.08994
1.08854
1.08638
1.08207
1.07544
1.07123
1.07045
1.07054
1.07201
1.07581
1.08219
1.08637
1.08541
1.08216
1.07796
1.07291
1.06679
1.06169
1.06098
1.06303
1.06687
1.06743
1.06476
1.05941
1.05175
1.04318
1.03675
1.03429
1.03417
1.03985
1.0588
1.08357
1.09634
1.09843
1.0975
1.09315
1.08008
1.06209
1.05352
1.05198
1.05191
1.05093
1.04544
1.03442
1.02829
1.02784
1.03011
1.04307
1.0619
1.06559
1.06273
1.0549
1.03946
1.02186
1.01643
1.01583
1.01555
1.01646
1.01714
1.01609
1.01437
1.01105
1.00303
0.995647
0.993754
0.993385
0.995594
1.0072
1.02277
3.12179
3.09773
3.07487
3.04892
3.02313
3.00137
2.98094
2.95928
2.93966
2.92853
2.92423
2.92189
2.92211
2.92699
2.94003
2.96163
2.99342
3.04472
3.07612
3.07964
3.07715
3.06625
3.0501
3.03327
3.01354
2.98689
2.96077
2.94138
2.9205
2.89233
2.8728
2.85629
2.83262
2.80511
2.77261
2.75716
2.74721
2.72701
2.71138
2.69288
2.66685
2.65189
2.63265
2.60687
2.58475
2.55618
2.53115
2.5151
2.48885
2.45985
2.43455
2.40706
2.38703
2.36336
2.33171
2.29748
2.26014
2.21271
2.17002
2.13291
2.11284
2.10154
2.08936
2.07936
2.07104
2.05739
2.03891
2.01434
1.97209
1.92341
1.89413
1.88312
1.8728
1.86548
1.86161
1.85415
1.83652
1.82444
1.83903
1.86342
1.88237
1.8903
1.88317
1.86054
1.82691
1.78978
1.75704
1.72587
1.70304
1.68878
1.66942
1.64461
1.61613
1.58651
1.56129
1.53909
1.51261
1.48582
1.47556
1.46995
1.46222
1.45364
1.44555
1.4362
1.41979
1.38803
1.34847
1.32735
1.32309
1.31841
1.31235
1.30664
1.30098
1.29481
1.2873
1.27355
1.25615
1.24591
1.23755
1.22843
1.22216
1.21648
1.20975
1.20027
1.18237
1.16265
1.15759
1.15709
1.15825
1.16367
1.16918
1.17003
1.16929
1.16536
1.15464
1.14971
1.14957
1.15136
1.16003
1.17037
1.17097
1.16803
1.16234
1.15662
1.15408
1.1526
1.15276
1.1558
1.1544
1.15085
1.14621
1.13888
1.12574
1.10741
1.09695
1.09493
1.09341
1.0923
1.09338
1.10006
1.10377
1.10273
1.10023
1.0963
1.09079
1.08789
1.08728
1.08713
1.08799
1.09286
1.09721
1.09802
1.09795
1.09642
1.09263
1.08719
1.08134
1.07773
1.07734
1.07871
1.08
1.07838
1.07331
1.06632
1.05916
1.05301
1.04866
1.04723
1.04737
1.0546
1.07415
1.09563
1.10441
1.10535
1.10412
1.09949
1.0866
1.07133
1.06477
1.06392
1.06376
1.06248
1.0569
1.0452
1.03695
1.03616
1.03768
1.04888
1.06995
1.07755
1.07546
1.06872
1.05532
1.03595
1.02717
1.02606
1.02553
1.02569
1.02658
1.02596
1.02465
1.02238
1.01594
1.00606
1.00212
1.00154
1.00226
1.01046
1.02849
1.03754
3.16168
3.13647
3.11265
3.08396
3.052
3.0254
3.00182
2.97643
2.95949
2.95031
2.9473
2.94725
2.94834
2.9529
2.96507
2.98598
3.00866
3.04814
3.08181
3.08684
3.08389
3.07399
3.05919
3.0427
3.02286
2.99698
2.97349
2.95398
2.93184
2.90369
2.88603
2.86754
2.84421
2.8148
2.79388
2.78817
2.77319
2.75403
2.73791
2.71303
2.69389
2.67859
2.65288
2.62945
2.60564
2.58115
2.56677
2.54572
2.51446
2.48724
2.45619
2.43241
2.40923
2.37771
2.34142
2.30485
2.25799
2.21411
2.1843
2.16381
2.15054
2.13782
2.12818
2.12238
2.11176
2.09281
2.06767
2.02494
1.97273
1.94243
1.93245
1.91983
1.90715
1.89805
1.88669
1.86797
1.85462
1.87069
1.90124
1.9293
1.94129
1.93595
1.91724
1.88512
1.84662
1.8089
1.77658
1.74978
1.73333
1.71682
1.69323
1.66258
1.63023
1.60134
1.57766
1.55314
1.52668
1.5149
1.50942
1.50206
1.49333
1.4844
1.47471
1.45874
1.42661
1.38527
1.36183
1.35704
1.35243
1.34625
1.33976
1.33311
1.32602
1.31799
1.30494
1.28563
1.27625
1.2721
1.26452
1.25743
1.25174
1.24501
1.23546
1.21671
1.19251
1.18313
1.18119
1.17968
1.1795
1.1794
1.17711
1.17384
1.1663
1.15315
1.14887
1.14899
1.15062
1.15841
1.1695
1.17417
1.17405
1.17269
1.17042
1.16882
1.16818
1.17065
1.17705
1.17686
1.17267
1.1665
1.15742
1.14441
1.12672
1.11366
1.11105
1.10963
1.10846
1.10837
1.1122
1.11719
1.11727
1.11517
1.11081
1.10598
1.10371
1.10307
1.10265
1.10249
1.10429
1.11041
1.11294
1.11151
1.1099
1.10776
1.10385
1.09791
1.094
1.09348
1.09368
1.09334
1.08933
1.0819
1.07347
1.06741
1.06335
1.06135
1.06066
1.06216
1.07155
1.09073
1.10818
1.11319
1.11291
1.11054
1.10498
1.09225
1.08048
1.07619
1.07592
1.07595
1.07459
1.06879
1.05631
1.04573
1.04418
1.04511
1.05399
1.07547
1.08818
1.08744
1.0822
1.0705
1.05147
1.0398
1.0381
1.03696
1.0364
1.03681
1.03688
1.03575
1.03385
1.02847
1.01778
1.01074
1.00978
1.00981
1.0144
1.03094