/*--------------------------------*- C++ -*----------------------------------*\
  =========                 |
  \\      /  F ield         | OpenFOAM: The Open Source CFD Toolbox
   \\    /   O peration     | Website:  https://openfoam.org
    \\  /    A nd           | Version:  7
     \\/     M anipulation  |
\*---------------------------------------------------------------------------*/
FoamFile
{
    version     2.0;
    format      ascii;
    class       volScalarField;
    location    "1.6";
    object      p;
}
// * * * * * * * * * * * * * * * * * * * * * * * * * * * * * * * * * * * * * //

dimensions      [1 -1 -2 0 0 0 0];

internalField   nonuniform List<scalar> 
16512
(
3.28364
3.25227
3.17765
3.08101
3.04563
3.03644
3.02858
3.02582
3.02565
3.01946
3.00987
2.99705
2.97399
2.91725
2.83285
2.78838
2.77815
2.77296
2.77217
2.76595
2.7569
2.74645
2.73099
2.69628
2.62803
2.57616
2.56286
2.55529
2.55156
2.55035
2.54273
2.53082
2.51677
2.49433
2.44495
2.38481
2.36125
2.35076
2.34382
2.34064
2.33611
2.32953
2.32258
2.31292
2.29828
2.2703
2.21559
2.17081
2.1641
2.16237
2.16143
2.15635
2.15004
2.14302
2.13397
2.11938
2.08933
2.038
1.98855
1.97116
1.96913
1.97314
1.98941
2.00131
1.99846
1.99095
1.98047
1.95908
1.91759
1.85252
1.80559
1.78812
1.78313
1.78213
1.79071
1.81063
1.8292
1.83358
1.82999
1.82365
1.80668
1.77398
1.73131
1.69443
1.67267
1.65828
1.65208
1.65037
1.65575
1.6704
1.6814
1.67974
1.67473
1.66419
1.6373
1.58775
1.53659
1.51614
1.5125
1.51236
1.52249
1.54753
1.5665
1.56629
1.56067
1.55255
1.53426
1.49737
1.44435
1.41347
1.40719
1.40654
1.41467
1.44019
1.46123
1.46155
1.45762
1.45072
1.4323
1.39297
1.34269
1.31907
1.31559
1.31611
1.32765
1.35655
1.37972
1.38016
1.37518
1.36568
1.34314
1.29567
1.24552
1.22949
1.22839
1.22967
1.24262
1.27396
1.29833
1.30003
1.29554
1.28738
1.26806
1.22701
1.18229
1.16764
1.16654
1.16868
1.18468
1.21403
1.22682
1.22511
1.22045
1.20855
1.17852
1.13431
1.11346
1.11126
1.11126
1.11985
1.14312
1.1597
1.1596
1.1562
1.14827
1.1271
1.089
1.06437
1.06116
1.06047
1.06386
1.08023
1.0989
1.10123
1.09856
1.09384
1.08155
1.05495
1.02698
1.01858
1.01745
1.0188
1.0293
1.04367
1.04591
1.04398
1.03958
1.0264
1.00078
0.981892
0.97914
0.977744
0.979734
1.00084
1.09803
1.35495
1.70365
2.02541
2.1928
2.17681
2.15797
2.15797
2.1688
2.19168
2.20316
2.20061
2.18835
2.15765
2.11756
2.10195
2.09524
2.09069
2.09542
2.10532
2.10255
2.09409
2.07832
2.05011
2.02431
2.01462
2.0081
2.00371
2.00667
2.01232
2.00603
1.99545
1.983
1.96315
1.9382
1.92649
1.92071
1.9159
1.9147
1.92207
1.92814
1.92292
1.91228
1.89379
1.86399
1.84071
1.83369
1.82969
1.8282
1.83324
1.83639
1.82987
1.81892
1.80332
1.78539
1.77739
1.7769
1.78825
1.82803
1.91358
2.028
2.15185
2.24004
2.27093
3.30632
3.24877
3.14873
3.08544
3.07441
3.06626
3.06225
3.06247
3.0596
3.05111
3.03957
3.02126
2.97703
2.89423
2.82774
2.81152
2.80429
2.80278
2.80195
2.79369
2.78383
2.77085
2.74626
2.68788
2.61881
2.59526
2.58702
2.58181
2.57999
2.57689
2.568
2.55576
2.5389
2.50712
2.4437
2.39748
2.38352
2.374
2.36807
2.36539
2.35949
2.35171
2.34351
2.33199
2.31222
2.2696
2.21252
2.19509
2.19085
2.18811
2.18279
2.17623
2.16899
2.16013
2.14735
2.12296
2.07846
2.0291
2.00906
2.00702
2.00983
2.02131
2.02747
2.0233
2.01638
2.00658
1.98643
1.94647
1.88133
1.83182
1.81429
1.80996
1.81017
1.82284
1.84784
1.86542
1.866
1.86155
1.85378
1.83332
1.7951
1.74391
1.70541
1.68705
1.67703
1.67282
1.67296
1.68161
1.69787
1.70793
1.70575
1.70047
1.68945
1.66161
1.60995
1.55718
1.53654
1.53298
1.53297
1.54362
1.56955
1.58942
1.58968
1.5843
1.57639
1.55831
1.52115
1.46682
1.4337
1.42597
1.42506
1.43206
1.45672
1.47907
1.48015
1.47635
1.46965
1.45265
1.41604
1.36539
1.33881
1.33424
1.33418
1.3435
1.36986
1.3951
1.3976
1.39269
1.38414
1.36435
1.32195
1.26893
1.24729
1.24552
1.24621
1.25646
1.28506
1.31128
1.31454
1.31065
1.30367
1.28736
1.25143
1.20377
1.18276
1.18058
1.18131
1.19325
1.22159
1.24028
1.23998
1.23615
1.22694
1.20231
1.15828
1.12909
1.12443
1.12375
1.12893
1.14919
1.17037
1.17285
1.16996
1.16383
1.1469
1.11152
1.07973
1.07275
1.072
1.07364
1.0869
1.10831
1.11441
1.11216
1.10804
1.09826
1.07482
1.04349
1.02945
1.02774
1.02797
1.03549
1.05162
1.05803
1.05663
1.05313
1.04324
1.0198
0.994577
0.98762
0.987003
0.990638
1.03168
1.17302
1.51647
1.90028
2.1649
2.24253
2.20023
2.17695
2.18323
2.19664
2.21663
2.23236
2.22913
2.21824
2.19846
2.1571
2.12074
2.10979
2.10415
2.10663
2.12171
2.12419
2.11575
2.103
2.07823
2.04703
2.03362
2.02698
2.02114
2.02007
2.02753
2.02773
2.01791
2.00535
1.98702
1.96215
1.94399
1.93714
1.93225
1.93084
1.93952
1.95008
1.94703
1.93681
1.918
1.88595
1.85692
1.84738
1.8431
1.84106
1.84575
1.85232
1.84852
1.83923
1.82503
1.80559
1.79544
1.79464
1.80815
1.85294
1.95181
2.08693
2.19242
2.26162
2.31518
2.32345
3.31321
3.22379
3.13549
3.11282
3.10453
3.09963
3.09914
3.09742
3.09099
3.08066
3.06532
3.03212
2.9594
2.8758
2.8468
2.83832
2.83466
2.83645
2.83129
2.82171
2.81004
2.7914
2.74669
2.67248
2.62839
2.61873
2.61235
2.60992
2.60856
2.60264
2.59287
2.57996
2.55865
2.51102
2.44345
2.41548
2.40605
2.39861
2.39361
2.38992
2.38301
2.37438
2.36454
2.35007
2.32185
2.26603
2.22595
2.21839
2.21355
2.2089
2.2022
2.19472
2.18615
2.17486
2.1559
2.11845
2.07005
2.04665
2.04434
2.04566
2.05225
2.05317
2.04826
2.04175
2.03275
2.01475
1.97758
1.91433
1.86151
1.84278
1.83893
1.84006
1.85616
1.88451
1.89966
1.89764
1.89243
1.88356
1.861
1.81825
1.75926
1.71941
1.70299
1.69607
1.69339
1.6961
1.70884
1.72683
1.73491
1.73173
1.72607
1.71435
1.68552
1.63187
1.57734
1.55639
1.55286
1.55299
1.56447
1.59186
1.61297
1.6137
1.60868
1.60107
1.58304
1.54517
1.48906
1.45396
1.44504
1.44384
1.45004
1.47401
1.49772
1.49941
1.49557
1.48908
1.47296
1.43792
1.3875
1.35868
1.35282
1.35244
1.35995
1.38387
1.41041
1.41513
1.41051
1.4024
1.38476
1.34701
1.29317
1.26618
1.26316
1.26345
1.27147
1.29723
1.32441
1.32919
1.32578
1.31979
1.306
1.27464
1.22631
1.19912
1.19507
1.19485
1.2033
1.22914
1.25263
1.25466
1.25134
1.24422
1.22425
1.18345
1.14672
1.13781
1.13689
1.13948
1.15574
1.17961
1.18599
1.18365
1.17873
1.16557
1.13459
1.09732
1.08476
1.08378
1.08432
1.09426
1.11635
1.12718
1.12567
1.12195
1.11409
1.09403
1.06147
1.04156
1.03853
1.0379
1.0427
1.0581
1.06933
1.06886
1.06611
1.05889
1.03882
1.00979
0.996834
0.996822
1.00576
1.08056
1.3111
1.68485
2.09128
2.19606
2.24395
2.26609
2.24329
2.22065
2.22348
2.23283
2.24174
2.23932
2.22955
2.21738
2.19619
2.15932
2.13137
2.12141
2.11733
2.12684
2.1413
2.13762
2.12733
2.10753
2.07596
2.05705
2.05063
2.04495
2.04072
2.04267
2.04568
2.03786
2.02709
2.01282
1.98666
1.96136
1.95265
1.94742
1.94501
1.9528
1.96828
1.97022
1.9617
1.94553
1.91359
1.8765
1.86112
1.8567
1.85431
1.85869
1.86749
1.8659
1.85752
1.84443
1.82524
1.81199
1.81199
1.82714
1.88109
1.98194
2.13452
2.23462
2.30984
2.3452
2.33437
2.33303
3.29824
3.19653
3.1528
3.14395
3.13769
3.13684
3.13542
3.12952
3.12063
3.10762
3.08319
3.02329
2.93133
2.88336
2.87376
2.86851
2.86984
2.86929
2.86064
2.84968
2.83453
2.80268
2.73373
2.66869
2.6519
2.64356
2.63925
2.63953
2.63623
2.62775
2.61695
2.60161
2.56982
2.50574
2.45055
2.43647
2.43006
2.42538
2.42017
2.41431
2.40707
2.39788
2.38609
2.36673
2.32527
2.26731
2.24539
2.23851
2.23301
2.22719
2.22088
2.21321
2.2028
2.187
2.15755
2.11206
2.08343
2.07994
2.08031
2.08225
2.07932
2.0736
2.06696
2.05833
2.04299
2.01018
1.951
1.89459
1.87326
1.86983
1.87167
1.88977
1.91971
1.93164
1.92757
1.92184
1.91242
1.88931
1.84412
1.77895
1.73706
1.72183
1.71669
1.71497
1.72046
1.73751
1.75682
1.76243
1.75807
1.75185
1.73927
1.70959
1.65412
1.59765
1.57605
1.57243
1.57269
1.58504
1.61425
1.63681
1.63789
1.6332
1.62593
1.608
1.56944
1.51142
1.47432
1.46442
1.46291
1.46857
1.49216
1.51738
1.51976
1.51572
1.50922
1.49316
1.45883
1.40835
1.37791
1.37114
1.37069
1.37699
1.39887
1.42585
1.4328
1.42865
1.42102
1.40491
1.37076
1.31795
1.2864
1.28128
1.28125
1.28743
1.31049
1.33799
1.34413
1.34113
1.33599
1.32427
1.29667
1.2493
1.21678
1.20997
1.20923
1.21487
1.23745
1.2641
1.26924
1.26632
1.26047
1.24451
1.2086
1.16643
1.15168
1.15035
1.15129
1.16327
1.18756
1.1988
1.19724
1.1931
1.18301
1.15725
1.11742
1.09774
1.09594
1.09574
1.1027
1.12355
1.13919
1.13893
1.13569
1.12939
1.11255
1.08094
1.05518
1.04954
1.04855
1.05108
1.06426
1.07947
1.08113
1.07859
1.07327
1.05692
1.02703
1.00755
1.00813
1.03123
1.14567
1.4902
1.87197
2.19997
2.29764
2.27026
2.27657
2.28169
2.2682
2.24834
2.24206
2.24085
2.24786
2.25003
2.24035
2.22497
2.19922
2.16961
2.15421
2.14666
2.14639
2.15583
2.15577
2.14614
2.12941
2.10261
2.07817
2.06998
2.06506
2.06101
2.0611
2.06481
2.05867
2.04781
2.03428
2.01152
1.98394
1.96994
1.96465
1.96148
1.96643
1.98315
1.98911
1.98191
1.96792
1.94094
1.90335
1.87898
1.8725
1.86884
1.87083
1.88127
1.88293
1.87548
1.86444
1.8453
1.82806
1.82722
1.84358
1.90711
2.02097
2.15629
2.28598
2.34832
2.35171
2.35997
2.3589
2.35806
3.26512
3.19844
3.18537
3.17741
3.17481
3.17446
3.16888
3.1605
3.14901
3.12997
3.08331
2.99484
2.92442
2.90947
2.90305
2.90312
2.90669
2.9001
2.88974
2.87673
2.8541
2.79851
2.72018
2.68772
2.67767
2.6704
2.66814
2.66944
2.66308
2.6526
2.63983
2.61819
2.56737
2.49883
2.46667
2.45902
2.45494
2.45351
2.4469
2.43913
2.43168
2.42192
2.40766
2.38014
2.32369
2.27673
2.26319
2.25699
2.25168
2.24435
2.23781
2.23065
2.21897
2.19651
2.15538
2.11959
2.11368
2.11182
2.1112
2.10604
2.09913
2.09189
2.08318
2.07001
2.04201
1.99007
1.93148
1.90506
1.90178
1.90416
1.92261
1.95242
1.96158
1.95595
1.94944
1.93981
1.91775
1.87285
1.80368
1.75853
1.74392
1.73978
1.73868
1.74659
1.76726
1.7867
1.78981
1.78466
1.77784
1.76451
1.73433
1.67747
1.61878
1.59615
1.59242
1.59274
1.60582
1.63685
1.66083
1.662
1.65742
1.65044
1.63272
1.59385
1.53383
1.49455
1.48387
1.48219
1.48757
1.51085
1.53796
1.54163
1.53718
1.53039
1.5138
1.4792
1.42796
1.39656
1.38921
1.38873
1.39422
1.41473
1.4419
1.45071
1.44709
1.4397
1.4247
1.39333
1.34178
1.30683
1.2997
1.29934
1.30412
1.32487
1.35224
1.35953
1.35687
1.35253
1.34248
1.31777
1.27226
1.23536
1.22549
1.22429
1.22785
1.24703
1.27513
1.28374
1.28126
1.27619
1.26351
1.23299
1.18822
1.16636
1.16404
1.16392
1.17215
1.19487
1.21094
1.2107
1.2071
1.19928
1.17853
1.13998
1.11262
1.10838
1.10783
1.11222
1.13059
1.15011
1.15212
1.14921
1.14397
1.13019
1.10126
1.07059
1.06098
1.0597
1.06068
1.0709
1.08814
1.0932
1.09117
1.08658
1.07386
1.04616
1.02086
1.02415
1.07335
1.26734
1.63846
2.06851
2.25317
2.35552
2.35259
2.32529
2.27513
2.26454
2.26332
2.2603
2.26936
2.28248
2.27942
2.27029
2.25052
2.21527
2.18468
2.17202
2.1643
2.16649
2.17823
2.17885
2.16935
2.15478
2.12783
2.09902
2.09051
2.08601
2.08241
2.08158
2.08527
2.08191
2.07018
2.05577
2.03497
2.00696
1.98971
1.98348
1.9795
1.98234
1.9979
2.00823
2.00293
1.99005
1.96499
1.92848
1.90098
1.89344
1.8892
1.88894
1.89715
1.90144
1.89559
1.88523
1.86793
1.84821
1.84684
1.86785
1.93426
2.05936
2.19995
2.33286
2.36237
2.37329
2.38942
2.39079
2.38359
2.36762
3.25181
3.22798
3.21873
3.21389
3.214
3.20941
3.20122
3.19066
3.17507
3.14036
3.06355
2.9748
2.9458
2.9385
2.93614
2.9422
2.93994
2.93
2.91825
2.90102
2.86033
2.78138
2.72492
2.71471
2.70493
2.6993
2.69895
2.69814
2.68943
2.67719
2.66025
2.62273
2.5549
2.50154
2.48838
2.48236
2.4804
2.48173
2.47332
2.46439
2.45642
2.44552
2.4269
2.38357
2.32041
2.28937
2.28001
2.27544
2.27014
2.26176
2.25392
2.24574
2.23278
2.20467
2.15938
2.14466
2.14112
2.1376
2.13253
2.1248
2.11622
2.10707
2.09526
2.07275
2.02883
1.97109
1.93893
1.93468
1.93634
1.9533
1.98194
1.98972
1.98299
1.97563
1.9658
1.94536
1.90361
1.83397
1.78365
1.76845
1.7652
1.76498
1.77517
1.79778
1.81549
1.81615
1.81088
1.80393
1.79041
1.76
1.70218
1.64117
1.61711
1.61326
1.61374
1.62769
1.66031
1.68513
1.68605
1.68131
1.67435
1.65694
1.61831
1.55664
1.5148
1.50321
1.50152
1.50687
1.53019
1.55924
1.56448
1.55989
1.55257
1.5352
1.49965
1.44723
1.4151
1.40723
1.40669
1.41165
1.43143
1.45869
1.46893
1.46593
1.45902
1.44465
1.41475
1.36476
1.32762
1.31843
1.31767
1.32136
1.34029
1.36741
1.37567
1.37317
1.36929
1.36061
1.33817
1.29477
1.25452
1.24169
1.24002
1.24212
1.25805
1.28624
1.29822
1.29624
1.29168
1.28144
1.25589
1.21164
1.18258
1.17788
1.17719
1.18228
1.2022
1.22218
1.22417
1.22098
1.21488
1.19837
1.16347
1.12968
1.12114
1.12051
1.12289
1.13796
1.15985
1.16514
1.16265
1.15819
1.14724
1.12163
1.08794
1.07327
1.07135
1.07129
1.07856
1.09604
1.10491
1.10353
1.09969
1.08935
1.06637
1.03734
1.04729
1.15202
1.43239
1.81546
2.17912
2.39833
2.41745
2.39719
2.34023
2.28402
2.26068
2.25655
2.26521
2.3017
2.32739
2.32444
2.30912
2.27809
2.23627
2.20047
2.18394
2.17811
2.18566
2.20374
2.20732
2.19745
2.18029
2.15169
2.12128
2.10845
2.1034
2.09942
2.09808
2.1014
2.10194
2.093
2.08077
2.06244
2.03053
2.00712
2.00015
1.99608
1.99765
2.01263
2.02744
2.02477
2.01393
1.99127
1.95184
1.91731
1.90713
1.90336
1.90324
1.91297
1.92038
1.91567
1.90566
1.89033
1.86847
1.86441
1.88864
1.96044
2.09509
2.25196
2.34735
2.40563
2.42009
2.41594
2.40387
2.39104
2.3813
2.37696
3.27111
3.2612
3.25439
3.2533
3.25104
3.24335
3.23322
3.21927
3.19286
3.12998
3.03413
2.98504
2.97619
2.97114
2.97508
2.97918
2.97058
2.95935
2.94477
2.91655
2.8495
2.77079
2.74974
2.74194
2.73397
2.73014
2.73012
2.72559
2.71515
2.70042
2.67353
2.61366
2.5444
2.51931
2.51178
2.50678
2.50726
2.50868
2.49936
2.48993
2.48063
2.46714
2.43869
2.37684
2.32142
2.30418
2.29776
2.29517
2.28921
2.28
2.27106
2.26118
2.24657
2.21834
2.18045
2.1674
2.1625
2.157
2.14973
2.14064
2.13048
2.11906
2.1018
2.06603
2.01255
1.9747
1.96869
1.96873
1.98161
2.00758
2.01572
2.00883
2.00093
1.99108
1.97237
1.93469
1.86811
1.81278
1.79534
1.79257
1.79308
1.80519
1.82901
1.84308
1.84143
1.83641
1.82978
1.81669
1.78668
1.72851
1.66505
1.63914
1.63502
1.63584
1.65075
1.68471
1.70975
1.71002
1.70491
1.6978
1.68083
1.64308
1.58039
1.53552
1.52275
1.52108
1.52642
1.54979
1.5806
1.58793
1.58337
1.57552
1.55748
1.52078
1.46662
1.4335
1.42534
1.42469
1.42938
1.44889
1.47659
1.48772
1.48516
1.47869
1.4646
1.43517
1.38581
1.3475
1.33687
1.33578
1.33884
1.3567
1.38361
1.39276
1.39049
1.38684
1.37914
1.35837
1.3168
1.2739
1.25823
1.25609
1.25728
1.27046
1.29785
1.31296
1.31155
1.30717
1.29867
1.27733
1.23585
1.20037
1.19192
1.19107
1.19375
1.21012
1.23252
1.23757
1.23485
1.22976
1.21693
1.18693
1.14902
1.13462
1.13356
1.1346
1.1461
1.16857
1.17785
1.17602
1.17214
1.16341
1.14147
1.10668
1.08659
1.0836
1.08279
1.08747
1.10366
1.11642
1.11593
1.11282
1.10485
1.08353
1.05949
1.09153
1.24699
1.62225
2.00115
2.29895
2.43868
2.44222
2.42588
2.38375
2.31831
2.2793
2.27207
2.2783
2.31404
2.3501
2.35064
2.33822
2.31133
2.26487
2.22203
2.20498
2.19886
2.20419
2.22385
2.23169
2.22242
2.20676
2.18072
2.14574
2.12756
2.1223
2.11842
2.11655
2.11773
2.11886
2.11203
2.10141
2.08494
2.05885
2.02949
2.01572
2.00949
2.00815
2.02166
2.04211
2.0426
2.03311
2.01538
1.98227
1.94342
1.92464
1.91924
1.91743
1.92581
1.93824
1.93605
1.92782
1.91505
1.89366
1.8878
1.91411
1.99512
2.13634
2.2822
2.38683
2.44429
2.45477
2.44654
2.41945
2.39995
2.39449
2.39961
2.40398
3.30314
3.29538
3.29273
3.29216
3.2862
3.27672
3.26385
3.24301
3.19296
3.10044
3.02943
3.01539
3.00882
3.00792
3.01598
3.01143
3.0004
2.9873
2.9665
2.91531
2.8296
2.78353
2.77708
2.77029
2.76486
2.76218
2.75968
2.75207
2.73974
2.71951
2.67257
2.59578
2.5511
2.54277
2.53644
2.53324
2.53585
2.53423
2.52521
2.51533
2.50374
2.48453
2.43673
2.36754
2.33151
2.3221
2.31768
2.31687
2.31023
2.30067
2.29097
2.27993
2.26452
2.23795
2.20128
2.18524
2.17986
2.17348
2.16506
2.15482
2.14283
2.12755
2.10013
2.05404
2.01205
2.00304
2.00182
2.00909
2.02977
2.0391
2.03316
2.02533
2.01578
1.99916
1.9658
1.90407
1.84525
1.82433
1.82169
1.82258
1.83542
1.85914
1.86974
1.86623
1.86149
1.85531
1.8431
1.81429
1.75702
1.69096
1.66255
1.65796
1.65893
1.67487
1.70973
1.73409
1.73358
1.72798
1.72061
1.70424
1.66822
1.60586
1.55784
1.54321
1.54144
1.54653
1.56977
1.60207
1.61129
1.60691
1.59873
1.58035
1.54282
1.4868
1.4523
1.44387
1.44307
1.44754
1.46728
1.49562
1.50718
1.50495
1.49885
1.48461
1.45475
1.40543
1.36668
1.35487
1.35339
1.35613
1.37356
1.40098
1.41085
1.40877
1.40525
1.39809
1.37831
1.33821
1.29327
1.27517
1.27254
1.27299
1.28391
1.3099
1.32775
1.32733
1.32304
1.31574
1.29768
1.26016
1.21984
1.20667
1.20551
1.20663
1.21925
1.24229
1.25092
1.24875
1.24431
1.23428
1.20936
1.1703
1.14918
1.14701
1.14706
1.15532
1.17667
1.19012
1.18924
1.1859
1.17897
1.16056
1.12672
1.1013
1.0961
1.095
1.09763
1.11146
1.12741
1.1286
1.12569
1.12113
1.10008
1.09938
1.16162
1.40883
1.82669
2.14921
2.32847
2.46096
2.48615
2.47641
2.44276
2.37901
2.31997
2.30098
2.29733
2.31531
2.35376
2.365
2.35704
2.3403
2.30532
2.25632
2.22973
2.22012
2.21758
2.23316
2.24989
2.2446
2.23133
2.21023
2.17469
2.14934
2.14285
2.13816
2.13547
2.13788
2.13839
2.13152
2.12196
2.10882
2.0842
2.05372
2.04108
2.03519
2.03228
2.0404
2.05944
2.06298
2.05452
2.03775
2.00504
1.96602
1.9466
1.94164
1.93879
1.94304
1.95479
1.95512
1.94802
1.93639
1.91877
1.91236
1.94228
2.03479
2.17167
2.31896
2.42215
2.48238
2.48664
2.46572
2.44166
2.42863
2.42096
2.42135
2.41904
2.4106
3.33552
3.33163
3.33181
3.3285
3.32023
3.3083
3.29056
3.25119
3.16924
3.08153
3.05551
3.04844
3.04455
3.049
3.05138
3.04196
3.02956
3.01258
2.97541
2.89715
2.82491
2.81127
2.80518
2.80062
2.79678
2.79317
2.78745
2.77747
2.76171
2.72807
2.65754
2.58901
2.57347
2.56735
2.563
2.56244
2.56437
2.55936
2.55069
2.53983
2.52455
2.49068
2.42402
2.36671
2.35001
2.3437
2.34093
2.34066
2.33387
2.32502
2.31553
2.30419
2.28725
2.25383
2.214
2.20102
2.19532
2.18924
2.18051
2.16909
2.15447
2.13242
2.09437
2.05052
2.03706
2.03529
2.03726
2.05017
2.05957
2.05567
2.04878
2.03962
2.02533
1.99647
1.94135
1.88061
1.85531
1.85221
1.85292
1.86533
1.88781
1.89553
1.89088
1.88615
1.88035
1.86934
1.84253
1.7881
1.72009
1.68796
1.68269
1.68359
1.69975
1.73467
1.75753
1.75616
1.75027
1.74267
1.72713
1.69355
1.63299
1.58183
1.56518
1.56322
1.5679
1.59067
1.6235
1.63416
1.63002
1.62176
1.60346
1.56581
1.50816
1.47179
1.46283
1.46192
1.46633
1.48669
1.51591
1.52755
1.52538
1.51945
1.50476
1.47366
1.42339
1.38464
1.37242
1.37053
1.373
1.39035
1.41912
1.43019
1.42803
1.42448
1.41757
1.39829
1.35884
1.31216
1.29219
1.28928
1.28926
1.29834
1.3227
1.34253
1.3433
1.33906
1.33258
1.31725
1.28406
1.24087
1.22229
1.22046
1.22064
1.23008
1.25227
1.26422
1.26273
1.25878
1.25081
1.23022
1.19293
1.1656
1.16073
1.16027
1.16568
1.18468
1.20176
1.20242
1.19952
1.1939
1.17869
1.14739
1.11729
1.10891
1.10762
1.10876
1.11997
1.13749
1.14192
1.13798
1.13592
1.12169
1.14216
1.28726
1.61014
1.9722
2.27829
2.46206
2.51281
2.51396
2.49758
2.45739
2.4025
2.34845
2.33071
2.32878
2.34004
2.3714
2.38743
2.38013
2.36524
2.3365
2.29257
2.26091
2.24999
2.24322
2.2467
2.26274
2.26576
2.25377
2.23662
2.20911
2.17424
2.16053
2.15569
2.1518
2.15122
2.15668
2.15472
2.14632
2.1347
2.11084
2.07505
2.05315
2.04679
2.04384
2.05193
2.07425
2.08303
2.07626
2.06119
2.03139
1.9906
1.96294
1.95596
1.95267
1.95683
1.97073
1.97375
1.96683
1.95894
1.94443
1.93857
1.97312
2.07347
2.21693
2.3555
2.47353
2.51124
2.49895
2.48845
2.47572
2.46054
2.45014
2.43934
2.4324
2.42661
2.41829
3.3698
3.36868
3.36846
3.36246
3.3516
3.33607
3.30538
3.23729
3.14114
3.09627
3.08885
3.08324
3.08328
3.08786
3.08258
3.07182
3.05655
3.029
2.96533
2.87925
2.84655
2.83988
2.83495
2.83228
2.82799
2.82229
2.81403
2.80121
2.77764
2.72168
2.63991
2.60458
2.5985
2.59356
2.59222
2.5934
2.59112
2.58451
2.57534
2.5624
2.53829
2.4825
2.41225
2.38207
2.37343
2.36891
2.3683
2.36711
2.36073
2.35277
2.3437
2.33141
2.30504
2.25481
2.22496
2.21717
2.21085
2.20479
2.19621
2.18385
2.1658
2.13454
2.09088
2.07044
2.06776
2.06686
2.07081
2.07815
2.07608
2.07069
2.06285
2.05019
2.02599
1.97909
1.91821
1.88765
1.8835
1.88374
1.89504
1.91494
1.92028
1.91531
1.91063
1.90489
1.89496
1.87095
1.82089
1.75224
1.71561
1.70937
1.71041
1.72609
1.75952
1.77967
1.77743
1.77164
1.76414
1.7496
1.71878
1.66148
1.60792
1.5888
1.58656
1.59087
1.61289
1.64522
1.65633
1.65237
1.64422
1.62643
1.58964
1.53106
1.49222
1.48237
1.48132
1.48578
1.50701
1.53743
1.54882
1.54651
1.54051
1.52497
1.49206
1.44001
1.40162
1.38948
1.38737
1.38974
1.40688
1.43732
1.45081
1.4486
1.44464
1.43754
1.41817
1.37888
1.33072
1.30929
1.30609
1.30587
1.3136
1.33629
1.35749
1.35955
1.35541
1.34951
1.33645
1.30715
1.26294
1.23888
1.23584
1.23541
1.24246
1.26323
1.27785
1.27711
1.27349
1.26697
1.24982
1.21562
1.18341
1.17468
1.17395
1.17715
1.19311
1.21263
1.21571
1.21308
1.2084
1.19605
1.16815
1.13454
1.12204
1.12047
1.12062
1.12924
1.14676
1.15462
1.1534
1.14766
1.15317
1.22101
1.43658
1.83919
2.16335
2.38806
2.53182
2.54556
2.5338
2.5044
2.46864
2.42278
2.37913
2.3592
2.35597
2.36326
2.39162
2.40807
2.40115
2.38713
2.36212
2.32301
2.28896
2.27715
2.26937
2.26729
2.27801
2.28771
2.27987
2.26557
2.24375
2.20846
2.1836
2.17645
2.17179
2.16962
2.17235
2.17413
2.16723
2.15602
2.13807
2.10747
2.07667
2.06447
2.05855
2.062
2.08323
2.09946
2.09482
2.08252
2.05752
2.0175
1.98557
1.97756
1.97386
1.97554
1.98798
1.99427
1.98924
1.98024
1.9654
1.96488
2.00684
2.11092
2.25307
2.40739
2.51748
2.52304
2.52714
2.52217
2.50983
2.49033
2.47003
2.45809
2.45297
2.45178
2.44459
2.43399
3.40635
3.40493
3.40188
3.39244
3.37845
3.35443
3.29959
3.20588
3.14119
3.13008
3.12312
3.12
3.12214
3.12041
3.11213
3.09917
3.07786
3.02829
2.94193
2.88553
2.87606
2.86956
2.86665
2.86386
2.85781
2.85025
2.83944
2.8217
2.78085
2.70188
2.64074
2.63055
2.62488
2.62217
2.62364
2.62271
2.61699
2.60934
2.59875
2.58101
2.53769
2.4645
2.41774
2.40615
2.3996
2.3975
2.39957
2.39573
2.38941
2.38137
2.37085
2.35055
2.30281
2.25432
2.24104
2.23381
2.22712
2.22043
2.21142
2.19798
2.17582
2.13573
2.10482
2.10115
2.0965
2.0938
2.09604
2.09627
2.09128
2.08467
2.07413
2.05495
2.01599
1.95829
1.92048
1.91485
1.91392
1.92332
1.94166
1.94435
1.93912
1.93457
1.92908
1.92024
1.89909
1.85433
1.78696
1.74562
1.7377
1.73868
1.75335
1.78432
1.80121
1.79815
1.79254
1.78521
1.77179
1.74371
1.6907
1.6357
1.61393
1.61138
1.61526
1.63653
1.6674
1.67773
1.67375
1.6659
1.64919
1.61425
1.55583
1.51384
1.5026
1.50141
1.50595
1.52803
1.55977
1.57092
1.56825
1.56182
1.54519
1.51028
1.4559
1.41793
1.40613
1.40396
1.40638
1.42361
1.45542
1.47192
1.47019
1.4658
1.45802
1.43813
1.39823
1.34853
1.32612
1.32271
1.32245
1.32936
1.35095
1.37289
1.37597
1.37213
1.3666
1.3552
1.32917
1.28561
1.25656
1.25132
1.2507
1.2558
1.27491
1.292
1.29228
1.2889
1.28328
1.26882
1.23802
1.20244
1.18915
1.18789
1.18957
1.20225
1.2229
1.22902
1.22676
1.22265
1.21267
1.18842
1.15318
1.13559
1.13354
1.13299
1.13894
1.15678
1.16601
1.16751
1.16604
1.19966
1.33682
1.65244
2.04542
2.35097
2.45242
2.51694
2.55025
2.55313
2.53799
2.51361
2.46949
2.42228
2.39984
2.39167
2.39102
2.40687
2.42836
2.4268
2.41596
2.39342
2.35063
2.31082
2.29684
2.28922
2.28592
2.29571
2.31024
2.30756
2.29433
2.2733
2.23865
2.20525
2.19384
2.18903
2.18691
2.19158
2.19423
2.18833
2.1789
2.16172
2.13009
2.10258
2.09258
2.08696
2.08754
2.1025
2.11716
2.11296
2.1009
2.07842
2.04292
2.00951
1.9974
1.99276
1.99233
2.00269
2.01264
2.0085
2.00289
1.99462
1.99575
2.03894
2.15011
2.29482
2.44331
2.52696
2.56033
2.56377
2.55806
2.54132
2.50996
2.48563
2.47611
2.47264
2.47743
2.47436
2.4631
2.44763
3.4442
3.43964
3.43087
3.41726
3.39728
3.35431
3.27263
3.19317
3.17232
3.16461
3.15889
3.15747
3.1559
3.14946
3.13896
3.12208
3.08542
3.00944
2.93239
2.91292
2.90574
2.90124
2.89941
2.89445
2.88704
2.87739
2.86302
2.83453
2.76891
2.68846
2.66313
2.65732
2.65345
2.65356
2.65465
2.65012
2.64276
2.63335
2.61934
2.58785
2.52148
2.45745
2.44076
2.43269
2.4282
2.42955
2.4312
2.42503
2.4178
2.40828
2.39174
2.35153
2.29316
2.26734
2.25999
2.25127
2.24412
2.23683
2.22673
2.21192
2.18744
2.14733
2.13187
2.12739
2.1199
2.11578
2.1157
2.1127
2.10605
2.09653
2.08169
2.051
1.99942
1.9545
1.94552
1.94408
1.94865
1.96507
1.96911
1.96287
1.95763
1.9523
1.94477
1.92738
1.88779
1.82372
1.77872
1.76786
1.76814
1.78062
1.80824
1.82228
1.81874
1.81344
1.8065
1.79424
1.76863
1.72014
1.66492
1.6404
1.63739
1.64076
1.66091
1.68967
1.69836
1.69419
1.68689
1.67164
1.63933
1.58241
1.53713
1.52388
1.52249
1.52691
1.54951
1.58224
1.59339
1.59037
1.58325
1.56557
1.52874
1.47192
1.43405
1.42267
1.42061
1.42311
1.44058
1.47374
1.49306
1.492
1.48736
1.47894
1.45837
1.41731
1.36576
1.34258
1.33899
1.33878
1.34528
1.3664
1.38909
1.393
1.38947
1.38435
1.37423
1.35047
1.30811
1.27469
1.26677
1.26605
1.26983
1.28741
1.3064
1.30802
1.30484
1.29987
1.28752
1.25986
1.22246
1.20439
1.20217
1.20271
1.21236
1.23277
1.24232
1.24061
1.23682
1.22871
1.20797
1.17284
1.14998
1.1465
1.14582
1.14931
1.16495
1.17924
1.18155
1.19298
1.25979
1.50102
1.86648
2.25968
2.42103
2.46047
2.51181
2.57664
2.59879
2.59
2.56096
2.50788
2.4392
2.40958
2.40374
2.4052
2.42803
2.4541
2.45302
2.44258
2.42204
2.3846
2.3392
2.31472
2.30537
2.2993
2.30802
2.32795
2.33255
2.32099
2.30262
2.27101
2.23278
2.21552
2.20978
2.20677
2.21038
2.21688
2.21274
2.20399
2.18598
2.15243
2.11829
2.10367
2.09816
2.09865
2.11506
2.13466
2.13393
2.12323
2.10273
2.06635
2.03012
2.01692
2.01237
2.0117
2.02097
2.0323
2.03021
2.02476
2.01722
2.02623
2.08073
2.1945
2.34966
2.4732
2.54448
2.58761
2.5967
2.59284
2.57162
2.53266
2.50514
2.49316
2.49138
2.50176
2.50545
2.49475
2.47413
2.4459
3.47914
3.46936
3.45456
3.43512
3.40167
3.33589
3.25076
3.21481
3.20713
3.19969
3.19575
3.19169
3.18526
3.17627
3.16209
3.13541
3.07384
2.98663
2.94889
2.94172
2.93649
2.93466
2.93115
2.92449
2.91571
2.90337
2.88262
2.83318
2.74848
2.69849
2.6908
2.68594
2.68498
2.6857
2.68299
2.67642
2.66755
2.65517
2.63195
2.57776
2.50353
2.47325
2.46631
2.46167
2.45928
2.46171
2.4613
2.45406
2.44476
2.43095
2.39885
2.33896
2.29519
2.28742
2.28019
2.26992
2.26232
2.25505
2.24446
2.22879
2.20573
2.17465
2.15498
2.14619
2.13959
2.13567
2.13305
2.12818
2.11931
2.10596
2.08309
2.04046
1.99197
1.97578
1.97404
1.97448
1.98331
1.99225
1.98743
1.98084
1.97455
1.96743
1.95425
1.92146
1.8627
1.81342
1.7997
1.79905
1.80805
1.83131
1.84248
1.83885
1.83424
1.82799
1.81697
1.79365
1.74976
1.69545
1.66783
1.66425
1.66702
1.68552
1.71139
1.71804
1.71374
1.70704
1.6934
1.66439
1.6108
1.56262
1.54654
1.54488
1.54902
1.57151
1.60458
1.61563
1.61234
1.60466
1.5861
1.54762
1.48862
1.45051
1.43945
1.43763
1.44035
1.45821
1.49229
1.51404
1.51384
1.50892
1.49996
1.47872
1.43628
1.38273
1.35879
1.35492
1.3547
1.36097
1.38229
1.40618
1.41082
1.40767
1.40305
1.39386
1.37146
1.3301
1.29296
1.28215
1.2812
1.28411
1.30026
1.32108
1.32448
1.32139
1.31685
1.30613
1.28113
1.24299
1.22046
1.21679
1.21651
1.22353
1.24267
1.25562
1.25472
1.25116
1.2444
1.22676
1.1933
1.16553
1.15942
1.15862
1.16084
1.17313
1.19136
1.19922
1.23942
1.3859
1.6846
2.148
2.38163
2.42489
2.48194
2.5466
2.6149
2.64476
2.63909
2.60476
2.54358
2.4725
2.42662
2.41081
2.40952
2.43674
2.48044
2.48801
2.47672
2.45371
2.41301
2.36573
2.34153
2.33322
2.32769
2.33281
2.35042
2.35796
2.34747
2.32879
2.29697
2.25804
2.23627
2.23067
2.22771
2.23174
2.23912
2.23448
2.22574
2.21116
2.18272
2.14607
2.12649
2.11949
2.11735
2.12877
2.14984
2.15261
2.143
2.12589
2.09296
2.05274
2.03214
2.02683
2.02477
2.03399
2.05101
2.05168
2.04847
2.04879
2.0613
2.11715
2.24922
2.39007
2.4951
2.57309
2.6226
2.62684
2.6181
2.59013
2.55391
2.52633
2.51599
2.51541
2.5262
2.52743
2.51643
2.50253
2.47856
2.44892
3.50734
3.49219
3.4722
3.44394
3.39314
3.31255
3.25924
3.24968
3.24113
3.23524
3.22924
3.22138
3.21255
3.20023
3.17977
3.13205
3.04676
2.98662
2.97634
2.97041
2.96841
2.96681
2.96149
2.95369
2.94303
2.92683
2.89165
2.81678
2.74263
2.72581
2.71984
2.71743
2.71864
2.71497
2.70965
2.70188
2.69107
2.67278
2.62907
2.5545
2.50558
2.49726
2.49322
2.49278
2.49053
2.4918
2.49014
2.48197
2.46931
2.44374
2.38937
2.33062
2.31365
2.30942
2.30165
2.29073
2.28314
2.27589
2.2661
2.25029
2.22865
2.20051
2.17346
2.16254
2.15861
2.15503
2.14994
2.14293
2.13155
2.11317
2.07959
2.03256
2.00666
2.00363
2.00224
2.00363
2.00925
2.01089
2.00511
1.99774
1.98944
1.97821
1.95271
1.90248
1.8503
1.8324
1.83097
1.83583
1.85326
1.86233
1.85859
1.85432
1.84903
1.83979
1.81939
1.77994
1.72652
1.69567
1.69129
1.69351
1.71005
1.73242
1.73657
1.73228
1.72638
1.71455
1.68893
1.64023
1.59019
1.57081
1.56873
1.57254
1.59428
1.62657
1.63726
1.63375
1.62575
1.60693
1.56752
1.50665
1.46768
1.45693
1.45533
1.45825
1.47671
1.51169
1.53484
1.53532
1.53023
1.52086
1.49905
1.45531
1.39968
1.37479
1.37051
1.37014
1.37626
1.39819
1.42394
1.4297
1.42681
1.42271
1.41415
1.3924
1.35139
1.31111
1.29766
1.2962
1.2984
1.31327
1.33572
1.3414
1.33856
1.33432
1.32493
1.30205
1.2639
1.23737
1.23164
1.23083
1.23572
1.25301
1.26886
1.26934
1.26592
1.25994
1.24483
1.21409
1.18201
1.17255
1.17134
1.17215
1.18313
1.20251
1.22509
1.30228
1.57622
1.97049
2.31971
2.47286
2.54494
2.57814
2.61063
2.65609
2.66687
2.65489
2.62986
2.57672
2.50075
2.45815
2.44846
2.44883
2.47142
2.50838
2.51589
2.50519
2.48437
2.4456
2.39293
2.36031
2.35064
2.34507
2.3501
2.36921
2.38065
2.37176
2.35455
2.32769
2.28914
2.25844
2.24994
2.2456
2.2471
2.25779
2.25773
2.24952
2.23647
2.2085
2.17123
2.1509
2.14401
2.14025
2.14735
2.1661
2.17104
2.16221
2.14658
2.11823
2.08139
2.0565
2.04945
2.04556
2.04884
2.06453
2.07361
2.07185
2.07638
2.09731
2.1656
2.29591
2.43505
2.5321
2.61263
2.65537
2.65558
2.64015
2.60965
2.57488
2.55021
2.54071
2.53844
2.54525
2.54911
2.53788
2.52363
2.50683
2.48224
2.46023
3.52616
3.50792
3.48419
3.44669
3.37995
3.30977
3.29262
3.28346
3.27517
3.26777
3.25872
3.24916
3.23763
3.22057
3.18559
3.11132
3.03215
3.01028
3.00381
3.00006
2.99962
2.99717
2.99052
2.98107
2.96804
2.94359
2.88464
2.79901
2.76195
2.75498
2.75071
2.7524
2.74992
2.74257
2.73579
2.72653
2.71189
2.67802
2.60951
2.54333
2.52666
2.52162
2.52326
2.52417
2.52008
2.52031
2.5175
2.50766
2.48728
2.44014
2.3733
2.34134
2.3364
2.3333
2.3238
2.31429
2.30727
2.29988
2.29106
2.27531
2.2496
2.21789
2.1893
2.17968
2.17697
2.1729
2.16649
2.15788
2.14392
2.1187
2.07533
2.04006
2.03398
2.0303
2.02808
2.02704
2.02842
2.02775
2.02165
2.01267
2.00079
1.98049
1.9408
1.88931
1.86544
1.86321
1.86436
1.8744
1.8815
1.87845
1.87434
1.86929
1.86146
1.84491
1.81028
1.75885
1.72423
1.71796
1.71928
1.73338
1.75275
1.75453
1.75003