/*--------------------------------*- C++ -*----------------------------------*\
  =========                 |
  \\      /  F ield         | OpenFOAM: The Open Source CFD Toolbox
   \\    /   O peration     | Website:  https://openfoam.org
    \\  /    A nd           | Version:  7
     \\/     M anipulation  |
\*---------------------------------------------------------------------------*/
FoamFile
{
    version     2.0;
    format      ascii;
    class       volScalarField;
    location    "3.2";
    object      rho;
}
// * * * * * * * * * * * * * * * * * * * * * * * * * * * * * * * * * * * * * //

dimensions      [1 -3 0 0 0 0 0];

internalField   nonuniform List<scalar> 
16192
(
1.25542
1.25612
1.25652
1.25659
1.25618
1.25487
1.25298
1.25218
1.25209
1.25228
1.2533
1.25557
1.2575
1.2579
1.25799
1.25806
1.25757
1.25588
1.25411
1.25385
1.25407
1.2546
1.25591
1.25766
1.25819
1.25818
1.25791
1.25706
1.25584
1.25533
1.25539
1.25575
1.25698
1.25811
1.25791
1.25726
1.25617
1.2541
1.25022
1.24682
1.2459
1.24565
1.24553
1.24622
1.24798
1.24827
1.24782
1.24725
1.24606
1.24365
1.24136
1.24086
1.24084
1.24148
1.24288
1.24342
1.24312
1.24262
1.2416
1.23935
1.23581
1.23419
1.23385
1.23366
1.23369
1.2349
1.23671
1.23709
1.23697
1.23648
1.23498
1.23295
1.23233
1.2327
1.23392
1.23616
1.23799
1.23844
1.23859
1.23866
1.23825
1.23661
1.23511
1.23502
1.23541
1.23636
1.23817
1.23956
1.2397
1.23958
1.23911
1.23795
1.23562
1.23264
1.23104
1.23092
1.23162
1.23414
1.23757
1.23879
1.23846
1.23749
1.23588
1.23277
1.22813
1.22526
1.22448
1.22443
1.22552
1.22895
1.23258
1.23326
1.23282
1.2317
1.22904
1.22388
1.21956
1.21836
1.21805
1.21812
1.21946
1.22251
1.22467
1.22474
1.22405
1.22227
1.21886
1.21407
1.21127
1.21047
1.21059
1.21208
1.21623
1.22164
1.22308
1.22297
1.22618
1.28665
1.57382
1.99614
2.32909
2.37463
2.37995
2.37484
2.36914
2.37429
2.37121
2.36475
2.36068
2.36023
2.36059
2.36336
2.36211
2.35629
2.34916
2.33957
2.32938
2.32322
2.31952
2.31741
2.31888
2.32027
2.31766
2.31442
2.30983
2.30433
2.30118
2.29983
2.29996
2.30196
2.30396
2.30431
2.30324
2.3003
2.29532
2.29145
2.28971
2.28831
2.28721
2.28583
2.28362
2.2791
2.27376
2.27049
2.26987
2.27216
2.2736
2.27338
2.27252
2.27051
2.26701
2.25888
2.24558
2.23758
2.23481
2.23344
2.2337
2.2377
2.24084
2.23929
2.23595
2.22901
2.2215
2.21805
2.21621
2.21417
2.21129
2.20778
2.20469
2.20265
2.20186
2.20188
2.20137
2.19994
2.19753
2.19463
2.19088
2.18343
2.17314
2.16706
2.16405
2.16177
2.15985
2.15928
2.16225
2.16843
2.17336
2.17453
2.17361
2.17147
2.169
2.16554
2.15672
2.14024
2.12998
2.12652
2.12424
2.12273
2.12307
2.12924
2.13748
2.14012
2.14034
2.13843
2.13357
2.12665
2.12222
2.11922
2.11631
2.11617
2.13153
2.20768
2.40726
1.25712
1.25733
1.25739
1.257
1.25567
1.25366
1.25278
1.25267
1.25281
1.25376
1.25604
1.25794
1.25827
1.25829
1.25827
1.25788
1.25658
1.25474
1.25426
1.25453
1.25514
1.25643
1.25828
1.25907
1.2591
1.25893
1.25827
1.25725
1.25676
1.25679
1.25706
1.25809
1.25945
1.25951
1.25901
1.25808
1.25626
1.25275
1.24889
1.24762
1.24737
1.24723
1.2478
1.24972
1.25051
1.25012
1.24946
1.24823
1.24583
1.24353
1.24302
1.24301
1.24349
1.2445
1.24473
1.24437
1.24391
1.24307
1.24123
1.23774
1.23565
1.23521
1.235
1.23503
1.23629
1.23845
1.23899
1.2388
1.23816
1.23652
1.23435
1.23358
1.2338
1.23476
1.23661
1.23816
1.23858
1.23873
1.23883
1.23863
1.2374
1.23573
1.23547
1.23581
1.23666
1.23847
1.24023
1.24058
1.24057
1.24034
1.23936
1.23737
1.23491
1.23368
1.23372
1.23471
1.2374
1.24015
1.24059
1.24005
1.239
1.23733
1.23406
1.22946
1.22685
1.22622
1.2263
1.22764
1.23115
1.23442
1.23483
1.23418
1.23274
1.22954
1.22413
1.2206
1.2198
1.21955
1.21972
1.22153
1.22518
1.22726
1.22717
1.22617
1.22405
1.22029
1.21598
1.21399
1.21346
1.21357
1.21529
1.21968
1.22368
1.22463
1.22407
1.2286
1.27956
1.61716
2.05859
2.28716
2.38176
2.40016
2.39653
2.39056
2.38252
2.3738
2.36966
2.36595
2.36551
2.36751
2.36925
2.36756
2.36263
2.35562
2.34577
2.33442
2.3284
2.32511
2.32255
2.32203
2.32303
2.32122
2.31828
2.31573
2.31326
2.31015
2.30624
2.30338
2.30183
2.30091
2.30066
2.30278
2.30471
2.30427
2.30148
2.29463
2.28797
2.28507
2.28326
2.28234
2.28355
2.28435
2.28551
2.28496
2.28021
2.2752
2.27197
2.26937
2.26795
2.26887
2.26839
2.26541
2.25883
2.2464
2.2367
2.23321
2.2311
2.23006
2.23315
2.23894
2.23913
2.23725
2.23282
2.22611
2.221
2.21822
2.21592
2.21329
2.21006
2.20651
2.20342
2.20081
2.1982
2.19601
2.19446
2.19247
2.18956
2.18605
2.17952
2.17159
2.16612
2.16355
2.16268
2.16468
2.16918
2.17156
2.17079
2.16962
2.16928
2.1691
2.16725
2.16471
2.1612
2.15242
2.1367
2.12607
2.12261
2.12053
2.11948
2.12195
2.13037
2.14181
2.147
2.14774
2.14618
2.14181
2.13285
2.12172
2.11431
2.10982
2.10689
2.11003
2.13721
1.25829
1.25825
1.25782
1.25657
1.25447
1.25344
1.2533
1.2534
1.25418
1.25635
1.25835
1.25863
1.25857
1.25843
1.25806
1.25707
1.25539
1.25468
1.25496
1.25563
1.25695
1.25883
1.25972
1.25981
1.25974
1.25929
1.25844
1.25793
1.25795
1.25815
1.25891
1.26036
1.26085
1.26057
1.25986
1.25838
1.25537
1.25132
1.24958
1.24929
1.24917
1.24968
1.25156
1.2527
1.25242
1.25176
1.25048
1.24804
1.24563
1.24502
1.24497
1.24522
1.24595
1.24602
1.24564
1.24519
1.24454
1.24307
1.23998
1.2375
1.2369
1.23671
1.23676
1.23806
1.24036
1.24097
1.24069
1.2399
1.23815
1.23583
1.23487
1.23496
1.23562
1.23704
1.23836
1.23874
1.23889
1.23901
1.23897
1.2382
1.23652
1.23598
1.23625
1.237
1.23873
1.24096
1.24163
1.24169
1.24162
1.24086
1.23905
1.23691
1.23607
1.23628
1.2375
1.24016
1.24219
1.2422
1.24155
1.24039
1.23859
1.23528
1.23104
1.22884
1.22831
1.22841
1.22982
1.23331
1.23614
1.23634
1.2357
1.23431
1.23093
1.22517
1.22148
1.22065
1.22054
1.22112
1.22369
1.22774
1.22948
1.22929
1.22827
1.22607
1.22193
1.21757
1.21581
1.21555
1.21601
1.21848
1.22326
1.22651
1.22656
1.22498
1.23194
1.30706
1.59014
2.1294
2.31616
2.36885
2.3785
2.38774
2.39466
2.39377
2.38694
2.37978
2.37675
2.37456
2.37596
2.37454
2.3705
2.36635
2.36012
2.34988
2.33943
2.33373
2.33026
2.32901
2.32961
2.32879
2.32555
2.32213
2.31936
2.3179
2.31703
2.31492
2.31169
2.30631
2.30208
2.30007
2.29898
2.30032
2.30469
2.30524
2.30352
2.29853
2.28889
2.28307
2.28116
2.27988
2.28179
2.2901
2.29555
2.2946
2.28974
2.27858
2.27021
2.26682
2.26435
2.26325
2.26657
2.26723
2.26453
2.25848
2.24609
2.2348
2.23074
2.22866
2.22798
2.23194
2.23971
2.24132
2.24013
2.23654
2.22968
2.22309
2.21974
2.21758
2.21504
2.2113
2.20588
2.20008
2.19602
2.19292
2.19028
2.18848
2.18775
2.18611
2.18391
2.1811
2.17753
2.17433
2.17319
2.17362
2.17204
2.16963
2.16742
2.16554
2.16401
2.16318
2.16338
2.16274
2.16056
2.15744
2.14931
2.13476
2.12381
2.12052
2.11981
2.12288
2.12955
2.13725
2.14582
2.14932
2.14785
2.14557
2.14156
2.13301
2.11943
2.10919
2.10282
2.09899
2.09802
1.25927
1.25883
1.25762
1.25547
1.25423
1.25402
1.25407
1.25459
1.25634
1.25856
1.25901
1.25888
1.25866
1.25834
1.2576
1.25608
1.25509
1.25533
1.25606
1.25737
1.25927
1.26018
1.2603
1.26031
1.26006
1.25942
1.25892
1.25891
1.25911
1.25972
1.26106
1.26195
1.26188
1.26143
1.26031
1.25782
1.25392
1.2517
1.25136
1.25125
1.25176
1.25357
1.25481
1.25461
1.25405
1.25282
1.25036
1.24771
1.24695
1.24684
1.24687
1.24728
1.24733
1.24698
1.24657
1.24602
1.24484
1.24231
1.23965
1.23888
1.23872
1.23883
1.2402
1.24247
1.24303
1.24266
1.2417
1.23979
1.23736
1.23625
1.23622
1.23653
1.23749
1.23864
1.23904
1.23917
1.23929
1.23936
1.23892
1.23746
1.23666
1.23684
1.23749
1.23908
1.24163
1.24278
1.24292
1.24294
1.24235
1.24068
1.23883
1.23826
1.2386
1.23995
1.24242
1.24383
1.24367
1.243
1.24181
1.24
1.23671
1.23266
1.23062
1.23021
1.23035
1.23189
1.23537
1.23789
1.23797
1.23724
1.23571
1.23224
1.22656
1.22315
1.22242
1.22231
1.22302
1.226
1.2302
1.23162
1.23126
1.23003
1.22754
1.22319
1.21942
1.2182
1.21802
1.2187
1.22168
1.22639
1.22848
1.22843
1.22717
1.23281
1.33598
1.67002
2.09715
2.36018
2.38507
2.38882
2.38385
2.37936
2.38535
2.38771
2.38625
2.38345
2.38275
2.3831
2.38217
2.37516
2.36729
2.36065
2.35353
2.34606
2.34118
2.33754
2.33591
2.33688
2.33719
2.33398
2.32931
2.3252
2.32242
2.32085
2.31913
2.31649
2.31357
2.30902
2.30339
2.30032
2.29894
2.29978
2.30345
2.30376
2.30227
2.2993
2.2917
2.28344
2.2812
2.28108
2.28633
2.29581
2.29824
2.29601
2.29259
2.28516
2.27273
2.26565
2.26271
2.26059
2.26077
2.2656
2.26581
2.26324
2.25769
2.24634
2.23484
2.23032
2.22888
2.23025
2.23448
2.24093
2.24207
2.24039
2.23748
2.23236
2.22621
2.22141
2.21788
2.21421
2.20929
2.20224
2.19538
2.19107
2.18782
2.1852
2.18322
2.18319
2.18467
2.18641
2.18827
2.18843
2.18616
2.18113
2.17351
2.16762
2.16443
2.16223
2.16026
2.15848
2.15726
2.15789
2.15943
2.15835
2.15601
2.15052
2.14081
2.13154
2.12789
2.12801
2.1311
2.13372
2.13584
2.14066
2.14581
2.14481
2.14191
2.13807
2.13048
2.11699
2.10399
2.09702
2.09343
1.26007
1.25895
1.25679
1.2552
1.25493
1.25493
1.25517
1.25618
1.25828
1.25935
1.2593
1.25909
1.2588
1.25823
1.257
1.25577
1.25581
1.25642
1.25758
1.25941
1.26051
1.26066
1.2607
1.26061
1.26017
1.25976
1.25975
1.25995
1.26052
1.26176
1.26288
1.26299
1.26276
1.26197
1.26002
1.25652
1.25392
1.25346
1.25335
1.25382
1.25555
1.25683
1.25666
1.25616
1.25516
1.25287
1.24991
1.24883
1.24866
1.24858
1.24872
1.24874
1.24844
1.24809
1.24763
1.2467
1.2446
1.24195
1.24102
1.2409
1.2411
1.24255
1.24469
1.24513
1.2447
1.24363
1.24156
1.23885
1.23763
1.23753
1.23761
1.23812
1.23901
1.23952
1.23967
1.23981
1.23992
1.23972
1.23854
1.2375
1.23761
1.2382
1.23964
1.24229
1.24389
1.24412
1.24418
1.2437
1.24217
1.24055
1.24024
1.24067
1.242
1.24419
1.24524
1.24509
1.24447
1.24329
1.24149
1.23832
1.23452
1.23262
1.23224
1.23236
1.23389
1.23727
1.23949
1.23947
1.23875
1.23733
1.23401
1.22841
1.22485
1.22408
1.22408
1.22511
1.22845
1.2325
1.23354
1.23311
1.23181
1.22911
1.22452
1.22098
1.21995
1.21991
1.22091
1.22447
1.22924
1.23073
1.23046
1.22845
1.23628
1.32764
1.74463
2.12919
2.33154
2.40111
2.40774
2.40496
2.39937
2.39142
2.38407
2.38248
2.38464
2.38971
2.39119
2.39
2.38532
2.3746
2.36113
2.35257
2.34851
2.34588
2.34557
2.34445
2.3432
2.34299
2.34137
2.33814
2.33448
2.33096
2.32732
2.32362
2.31992
2.3164
2.31307
2.30966
2.30603
2.30325
2.30165
2.30135
2.30203
2.30154
2.30051
2.29915
2.29601
2.29023
2.28704
2.28757
2.29192
2.29579
2.29581
2.29393
2.2914
2.28819
2.28106
2.2698
2.26307
2.26033
2.25887
2.25943
2.2637
2.26448
2.26259
2.25894
2.2512
2.24093
2.23493
2.23292
2.23255
2.23354
2.23832
2.24072
2.2393
2.237
2.23326
2.22702
2.22057
2.21606
2.21177
2.20613
2.19832
2.19098
2.18679
2.18406
2.18208
2.18171
2.18516
2.19078
2.19453
2.19415
2.19187
2.18834
2.18126
2.17037
2.16293
2.15954
2.15715
2.15521
2.15351
2.15242
2.15377
2.15729
2.15837
2.15787
2.15598
2.15085
2.14202
2.13517
2.13297
2.13201
2.13164
2.13181
2.13473
2.14002
2.14033
2.13728
2.13288
2.1255
2.11275
2.10019
2.0934
1.26063
1.25862
1.25646
1.25596
1.25596
1.25605
1.25644
1.25768
1.25938
1.25976
1.25968
1.25954
1.2592
1.25816
1.25671
1.25656
1.25705
1.25783
1.25912
1.26053
1.2609
1.26098
1.261
1.26081
1.26051
1.26056
1.26078
1.26132
1.26249
1.26373
1.26398
1.26387
1.26335
1.26188
1.25896
1.25618
1.25554
1.25541
1.25576
1.25735
1.25864
1.25856
1.25812
1.25728
1.2554
1.25242
1.25084
1.25055
1.25036
1.2503
1.25034
1.25011
1.2498
1.24943
1.24868
1.24685
1.24428
1.24324
1.24314
1.2434
1.24488
1.24684
1.24717
1.24672
1.24568
1.24362
1.24054
1.239
1.23878
1.23874
1.23894
1.23958
1.24015
1.24038
1.24054
1.24069
1.24067
1.23976
1.23855
1.23857
1.23911
1.24044
1.243
1.24486
1.24519
1.24527
1.24486
1.24343
1.24202
1.24185
1.24232
1.24361
1.24557
1.24648
1.24643
1.24599
1.24499
1.24326
1.24024
1.23658
1.23471
1.23436
1.23443
1.23586
1.23905
1.24099
1.2409
1.24018
1.23877
1.23569
1.23054
1.22715
1.22637
1.22642
1.22761
1.23104
1.23473
1.23547
1.23493
1.23347
1.23051
1.22583
1.22275
1.22194
1.22192
1.22307
1.22696
1.23142
1.23242
1.23217
1.23033
1.24483
1.35806
1.73825
2.20525
2.33773
2.3753
2.39607
2.41175
2.41154
2.40646
2.39564
2.38848
2.38589
2.38583
2.39225
2.39394
2.39053
2.38416
2.36924
2.35574
2.35074
2.34777
2.34932
2.35389
2.35312
2.34965
2.34578
2.34299
2.34082
2.33918
2.33631
2.33169
2.3252
2.31907
2.31469
2.31162
2.30921
2.30774
2.30691
2.30534
2.30278
2.30058
2.29895
2.29804
2.29839
2.2993
2.29904
2.29764
2.29632
2.29422
2.29188
2.2898
2.2888
2.28913
2.2882
2.28589
2.28011
2.26978
2.26256
2.25955
2.2575
2.25697
2.261
2.26456
2.26449
2.26245
2.25714
2.24651
2.23706
2.23365
2.23194
2.23174
2.23649
2.23893
2.23683
2.23409
2.23029
2.22388
2.21762
2.21332
2.209
2.20331
2.19589
2.18934
2.18582
2.18426
2.18545
2.19002
2.19325
2.194
2.19324
2.19118
2.18867
2.1854
2.17878
2.16767
2.15909
2.15514
2.15243
2.15046
2.14908
2.1494
2.15355
2.15921
2.16273
2.16347
2.16216
2.1579
2.1475
2.13553
2.13116
2.1294
2.12832
2.12771
2.12881
2.13273
2.13377
2.13124
2.12676
2.12004
2.11094
2.1022
1.2609
1.25818
1.25705
1.25701
1.257
1.2571
1.25755
1.25887
1.26024
1.26044
1.26043
1.26033
1.25973
1.25811
1.25729
1.25762
1.25823
1.259
1.26005
1.26099
1.26121
1.26129
1.26131
1.26123
1.26134
1.26163
1.26221
1.26333
1.26456
1.2649
1.26485
1.26447
1.26336
1.2611
1.25842
1.25756
1.2574
1.25763
1.25903
1.26029
1.26029
1.25995
1.25929
1.25765
1.25497
1.25312
1.25263
1.25233
1.25212
1.25208
1.25198
1.25172
1.25142
1.25081
1.24913
1.24659
1.24545
1.24536
1.24566
1.24711
1.24881
1.24903
1.24863
1.24776
1.2458
1.2425
1.24057
1.24014
1.23995
1.2399
1.24027
1.24095
1.2413
1.24147
1.24163
1.24168
1.24106
1.23982
1.23971
1.24022
1.24145
1.2438
1.24569
1.24607
1.24616
1.24584
1.24451
1.24316
1.24302
1.24343
1.24458
1.24657
1.24759
1.24765
1.24751
1.24685
1.2453
1.24251
1.23896
1.23708
1.23671
1.23672
1.23799
1.24088
1.24244
1.24226
1.24154
1.24021
1.23735
1.23266
1.22942
1.22868
1.22882
1.23021
1.23368
1.23688
1.23734
1.23675
1.23527
1.23209
1.2273
1.22449
1.22379
1.22381
1.22512
1.22922
1.23338
1.23412
1.2338
1.23179
1.2457
1.41187
1.78004
2.21353
2.37836
2.39352
2.40274
2.40085
2.40717
2.40503
2.39917
2.39323
2.38918
2.38957
2.39034
2.39318
2.39255
2.38829
2.3821
2.36996
2.35904
2.35496
2.3535
2.35793
2.36134
2.35856
2.35438
2.34822
2.34402
2.34178
2.3408
2.33834
2.33418
2.32761
2.31841
2.31299
2.31001
2.30849
2.30918
2.30949
2.30728
2.30391
2.29952
2.29704
2.29575
2.29662
2.30318
2.30913
2.30942
2.30534
2.29596
2.28876
2.28562
2.28382
2.28325
2.28652
2.28785
2.28606
2.28025
2.26906
2.26096
2.25789
2.25603
2.25619
2.26162
2.26674
2.26681
2.26489
2.25982
2.24826
2.23657
2.2324
2.23079
2.23112
2.23465
2.23574
2.23338
2.23022
2.22565
2.2192
2.21433
2.21094
2.20772
2.20417
2.19989
2.19551
2.19273
2.19195
2.19148
2.19016
2.1888
2.18827
2.18837
2.18711
2.18464
2.18171
2.17595
2.1651
2.15557
2.15144
2.14902
2.14737
2.14781
2.1536
2.16158
2.1658
2.16603
2.1649
2.16294
2.15889
2.14869
2.13455
2.12827
2.12624
2.12488
2.12375
2.12338
2.12494
2.12595
2.12443
2.12165
2.11827
2.1155
1.26053
1.25823
1.25798
1.25791
1.25787
1.25794
1.25861
1.26025
1.2614
1.26154
1.26154
1.26127
1.25998
1.25821
1.25803
1.2584
1.25891
1.25956
1.2605
1.26147
1.26171
1.26178
1.26192
1.26214
1.26248
1.26309
1.26415
1.26523
1.26559
1.26563
1.26546
1.26465
1.26288
1.26052
1.2595
1.25935
1.25947
1.26066
1.26184
1.26188
1.26164
1.26116
1.25981
1.2573
1.25542
1.25486
1.25446
1.25418
1.25405
1.25402
1.25382
1.25356
1.25299
1.25138
1.24884
1.24759
1.2475
1.24779
1.24913
1.25062
1.25076
1.25039
1.2497
1.24805
1.24475
1.24219
1.24164
1.24136
1.24114
1.24124
1.24188
1.24239
1.2426
1.24274
1.24283
1.2424
1.24122
1.24102
1.2415
1.24261
1.24469
1.24642
1.24681
1.24692
1.2467
1.24547
1.24396
1.24376
1.24407
1.2449
1.24687
1.2486
1.24886
1.24888
1.24866
1.24756
1.24512
1.24168
1.23971
1.23933
1.23928
1.24037
1.24281
1.2439
1.24363
1.24291
1.24161
1.23895
1.23478
1.23184
1.23115
1.23134
1.23283
1.23619
1.23887
1.23916
1.23858
1.2371
1.23378
1.22896
1.22646
1.22588
1.22591
1.22731
1.23146
1.23515
1.23559
1.23536
1.23401
1.25032
1.40738
1.8752
2.20341
2.38456
2.41044
2.40764
2.40217
2.40234
2.40087
2.40301
2.40249
2.39789
2.39617
2.39568
2.39399
2.39162
2.38841
2.38444
2.37952
2.37242
2.36525
2.36222
2.36194
2.36448
2.36351
2.35997
2.35639
2.35116
2.34562
2.34249
2.34027
2.33751
2.33364
2.32874
2.32138
2.31465
2.31134
2.30975
2.31016
2.30926
2.30673
2.30361
2.29967
2.29743
2.29673
2.29981
2.30843
2.31379
2.31308
2.31019
2.30177
2.28908
2.28331
2.28118
2.27978
2.28077
2.28699
2.28871
2.2868
2.28037
2.26858
2.26037
2.25755
2.25662
2.25797
2.26138
2.26579
2.26648
2.26462
2.26032
2.25005
2.23768
2.23237
2.2303
2.22965
2.23013
2.22987
2.22759
2.22426
2.21934
2.21521
2.21297
2.21186
2.21204
2.2115
2.20904
2.20404
2.19644
2.19091
2.18807
2.18582
2.18385
2.18253
2.18256
2.18253
2.18061
2.17816
2.17292
2.16315
2.15434
2.15048
2.14919
2.15079
2.1564
2.16036
2.16209
2.16397
2.16432
2.16273
2.1607
2.15728
2.14854
2.13402
2.1258
2.12333
2.12166
2.12009
2.11856
2.11834
2.11989
2.1205
2.12097
2.12448
1.2599
1.25891
1.25879
1.25868
1.25862
1.25889
1.26027
1.26227
1.26292
1.26293
1.26281
1.26192
1.25972
1.25832
1.25843
1.2588
1.25925
1.25987
1.26095
1.26229
1.26263
1.2627
1.26296
1.26337
1.26394
1.26485
1.26573
1.26603
1.26614
1.26615
1.26578
1.26452
1.26249
1.26134
1.26123
1.26132
1.2623
1.26333
1.2633
1.2631
1.26279
1.26181
1.25961
1.25767
1.25709
1.25668
1.25635
1.25622
1.25619
1.25602
1.25575
1.25515
1.25351
1.25103
1.24971
1.24955
1.24972
1.25088
1.25227
1.25242
1.2521
1.25155
1.2502
1.24725
1.24407
1.24316
1.24285
1.24265
1.24271
1.24328
1.24376
1.24393
1.24401
1.24407
1.24371
1.24264
1.24235
1.24282
1.24383
1.24562
1.24712
1.24749
1.24763
1.24751
1.2464
1.24459
1.24416
1.24437
1.24492
1.24645
1.24905
1.25009
1.25022
1.25025
1.24975
1.24781
1.24463
1.2426
1.24221
1.24214
1.24303
1.24491
1.24549
1.24511
1.24437
1.24306
1.24058
1.23687
1.23425
1.23364
1.23383
1.23534
1.23847
1.24065
1.24082
1.24029
1.23892
1.23563
1.23086
1.22854
1.22806
1.22813
1.22966
1.23379
1.237
1.23709
1.23682
1.23596
1.26234
1.43188
1.89613
2.24745
2.36316
2.39904
2.41635
2.41408
2.40903
2.40165
2.40132
2.40197
2.40455
2.40602
2.40255
2.39709
2.39098
2.38567
2.38263
2.38086
2.37997
2.37899
2.37666
2.37348
2.36975
2.36611
2.36273
2.35957
2.35648
2.35295
2.34811
2.34324
2.33963
2.33628
2.33298
2.32959
2.32594
2.32164
2.31756
2.31416
2.31106
2.30808
2.3053
2.30262
2.30029
2.29932
2.30047
2.30521
2.31076
2.31268
2.31213
2.3103
2.30617
2.2963
2.28478
2.28046
2.27882
2.27832
2.28108
2.28783
2.28908
2.28733
2.28202
2.27173
2.26306
2.25963
2.25774
2.25692
2.25763
2.2625
2.26554
2.26431
2.2609
2.25234
2.23894
2.23145
2.22833
2.22587
2.22431
2.22388
2.22231
2.22009
2.21811
2.217
2.21723
2.21845
2.21776
2.21524
2.21158
2.20504
2.19474
2.18719
2.18406
2.18169
2.17965
2.17821
2.17808
2.17882
2.17754
2.17524
2.17173
2.16664
2.16151
2.15839
2.15789
2.15881
2.15901
2.15821
2.15765
2.15896
2.16091
2.15968
2.15765
2.15452
2.14679
2.13299
2.1239
2.12074
2.11833
2.11618
2.11502
2.11659
2.12076
2.1265
2.13289
1.26011
1.25985
1.25967
1.25954
1.25961
1.26067
1.26306
1.26448
1.26454
1.26442
1.26378
1.26158
1.25887
1.25843
1.25865
1.25903
1.25954
1.2604
1.26195
1.26355
1.26393
1.26397
1.26415
1.26463
1.26533
1.26597
1.26625
1.26641
1.2665
1.2665
1.26596
1.26448
1.26342
1.26322
1.26318
1.26364
1.26463
1.26466
1.26437
1.26409
1.26352
1.26191
1.25994
1.25934
1.25894
1.25854
1.25838
1.25837
1.25822
1.25793
1.25723
1.25549
1.25312
1.25186
1.25165
1.25168
1.25248
1.25371
1.254
1.25379
1.25338
1.25231
1.24975
1.24622
1.2449
1.24458
1.24431
1.24437
1.2453
1.2457
1.24558
1.24549
1.2454
1.24491
1.2439
1.24358
1.244
1.24494
1.24649
1.24775
1.24811
1.24828
1.24829
1.24742
1.24529
1.24441
1.24453
1.24491
1.24595
1.24858
1.25102
1.25149
1.25163
1.25154
1.25027
1.24752
1.2455
1.24515
1.24511
1.24585
1.24714
1.24724
1.24675
1.246
1.24465
1.24228
1.23896
1.23673
1.23622
1.23638
1.23781
1.24058
1.24225
1.24231
1.24183
1.24057
1.2375
1.23294
1.23073
1.23032
1.23046
1.23215
1.23619
1.23892
1.23857
1.23826
1.23832
1.26946
1.4993
1.91059
2.28809
2.41402
2.42504
2.42338
2.42032
2.40866
2.40067
2.39646
2.39654
2.40161
2.40889
2.41018
2.40561
2.39681
2.38731
2.38303
2.38047
2.37917
2.38232
2.38574
2.38461
2.38085
2.37482
2.36699
2.36163
2.35823
2.35559
2.35278
2.34909
2.34412
2.33894
2.33514
2.3321
2.3303
2.32945
2.32788
2.32506
2.32076
2.31471
2.30889
2.30489
2.30246
2.30131
2.30174
2.30465
2.30759
2.30796
2.30813
2.30904
2.30918
2.3078
2.30401
2.2953
2.28491
2.2806
2.27903
2.27852
2.28074
2.28798
2.29015
2.28864
2.2841
2.27358
2.26237
2.25789
2.2552
2.25331
2.25361
2.26083
2.26545
2.26423
2.26083
2.25199
2.23671
2.22776
2.2244
2.22173
2.22027
2.22178
2.22284
2.22249
2.22223
2.222
2.22067
2.21842
2.21576
2.21282
2.20916
2.20321
2.19346
2.18474
2.181
2.17855
2.1765
2.17453
2.17314
2.17398
2.17527
2.17603
2.17687
2.17591
2.17196
2.16483
2.15947
2.1571
2.15539
2.15395
2.15301
2.15391
2.15702
2.1564
2.15431
2.15131
2.14425
2.13095
2.12094
2.11769
2.11565
2.11435
2.11742
2.127
2.13556
2.13697
1.26135
1.26111
1.2609
1.26083
1.26156
1.26401
1.2662
1.26639
1.26621
1.26568
1.26365
1.26007
1.25858
1.25862
1.25891
1.25938
1.2602
1.26173
1.2638
1.26493
1.26514
1.26518
1.26515
1.26537
1.26586
1.26633
1.26657
1.26676
1.26687
1.26691
1.26644
1.26543
1.26523
1.26515
1.26514
1.26527
1.26563
1.26558
1.26534
1.26495
1.26404
1.26238
1.26164
1.26135
1.26091
1.26057
1.26045
1.26027
1.25998
1.25923
1.25745
1.25514
1.25398
1.25373
1.25368
1.25425
1.25516
1.25548
1.25541
1.2552
1.25449
1.25232
1.24862
1.2468
1.24646
1.24624
1.24633
1.24738
1.24805
1.24775
1.24731
1.24683
1.24601
1.245
1.24469
1.24501
1.24585
1.24725
1.2483
1.24863
1.24883
1.24895
1.24846
1.24634
1.24469
1.24468
1.245
1.24573
1.24787
1.25127
1.25257
1.25279
1.25289
1.25227
1.2501
1.24818
1.2479
1.24793
1.24862
1.2494
1.24919
1.24863
1.24782
1.24639
1.24409
1.24111
1.23923
1.23884
1.23897
1.2403
1.24264
1.24377
1.24371
1.24326
1.24209
1.2393
1.23502
1.23287
1.23255
1.23278
1.23464
1.23848
1.24085
1.24048
1.23879
1.2407
1.27629
1.53154
1.9944
2.27881
2.41821
2.4351
2.43285
2.4254
2.41405
2.40715
2.40206
2.39905
2.40312
2.41167
2.41423
2.41236
2.40503
2.39342
2.38669
2.38388
2.38291
2.38591
2.39001
2.38836
2.38469
2.38061
2.37644
2.37084
2.36345
2.35779
2.35459
2.35179
2.34834
2.34424
2.33944
2.33554
2.33315
2.33241
2.33281
2.33161
2.32881
2.32548
2.32113
2.31613
2.31177
2.3083
2.30615
2.30564
2.30532
2.30383
2.30248
2.30168
2.30231
2.30584
2.30804
2.3077
2.30493
2.29713
2.28612
2.28102
2.27941
2.2789
2.28189
2.28998
2.29101
2.28841
2.28328
2.27127
2.25856
2.25402
2.25159
2.25035
2.25282
2.2621
2.26453
2.26223
2.25813
2.24807
2.23234
2.22422
2.22147
2.22018
2.22241
2.22674
2.22723
2.22528
2.22262
2.21986
2.21726
2.21471
2.21201
2.20916
2.20598
2.20118
2.19245
2.18281
2.17793
2.1751
2.17291
2.17144
2.17177
2.17573
2.18076
2.18338
2.18238
2.17957
2.17397
2.16297
2.15537
2.15276
2.15099
2.14951
2.14849
2.14921
2.1526
2.15261
2.15092
2.14807
2.14102
2.12877
2.12133
2.11954
2.1196
2.12613
2.13548
2.13676
2.13427
1.26313
1.26289
1.26274
1.26317
1.2654
1.26812
1.26855
1.26826
1.26771
1.26586
1.26194
1.25917
1.25891
1.25907
1.25949
1.2603
1.26186
1.26414
1.26561
1.26591
1.26595
1.26583
1.26554
1.26561
1.26594
1.26652
1.26704
1.26736
1.26758
1.26768
1.26754
1.26685
1.2665
1.26634
1.26622
1.26613
1.26631
1.26654
1.26646
1.26609
1.26503
1.26417
1.26392
1.26354
1.26306
1.26265
1.26226
1.26184
1.26101
1.25928
1.25714
1.25608
1.25579
1.25565
1.2561
1.25685
1.25703
1.25703
1.25695
1.25661
1.255
1.2514
1.24887
1.24844
1.24824
1.24838
1.24952
1.25031
1.24997
1.24927
1.24831
1.24713
1.24615
1.24582
1.24597
1.24663
1.2479
1.24888
1.24916
1.24934
1.24952
1.24938
1.24765
1.24523
1.24488
1.24519
1.2458
1.24747
1.25104
1.25341
1.25378
1.25395
1.25374
1.25221
1.25048
1.25026
1.25039
1.25106
1.25163
1.25132
1.25068
1.24981
1.24835
1.24605
1.24333
1.24177
1.24148
1.24159
1.24278
1.24467
1.24531
1.24514
1.24467
1.24355
1.24101
1.23708
1.23499
1.23472
1.23503
1.23699
1.24064
1.24255
1.24232
1.24043
1.24389
1.28851
1.55088
2.07043
2.29302
2.36797
2.40383
2.43077
2.43472
2.43245
2.41802
2.40671
2.40351
2.40348
2.41251
2.41798
2.41671
2.41036
2.39782
2.39037
2.38793
2.38879
2.3963
2.39972
2.39626
2.38877
2.38225
2.37853
2.37559
2.37283
2.36855
2.36175
2.35494
2.3508
2.34745
2.3442
2.3414
2.33902
2.33764
2.33678
2.33488
2.33216
2.32941
2.3267
2.32436
2.32281
2.32179
2.31984
2.31529
2.3084
2.30291
2.29945
2.29737
2.29606
2.2955
2.29828
2.30559
2.30982
2.31045
2.30822
2.29992
2.28746
2.2819
2.28027
2.28033
2.28306
2.2883
2.28806
2.28518
2.28008
2.26841
2.25595
2.25158
2.24977
2.24998
2.25374
2.26065
2.26115
2.25868
2.25438
2.24525
2.23301
2.22686
2.22517
2.2268
2.22928
2.22772
2.22519
2.22217
2.21841
2.21514
2.21239
2.21005
2.2081
2.20574
2.20285
2.19842
2.18964
2.17984
2.17484
2.17228
2.17132
2.17466
2.1818
2.18545
2.18455
2.18226
2.17952
2.17615
2.17019
2.15908
2.15132
2.14869
2.14682
2.14529
2.14443
2.14594
2.14935
2.14938
2.14809
2.14585
2.14069
2.13356
2.1302
2.1307
2.13563
2.13761
2.13514
2.13202
1.26541
1.26528
1.26557
1.26752
1.27045
1.27109
1.27071
1.27007
1.26833
1.2644
1.26046
1.25964
1.25971
1.26003
1.2608
1.26235
1.26467
1.26623
1.2665
1.26647
1.26622
1.26576
1.26557
1.26568
1.2661
1.26699
1.2678
1.26822
1.2685
1.26858
1.26809
1.26735
1.26703
1.26685
1.2667
1.26675
1.26751
1.26808
1.2681
1.26789
1.26721
1.26659
1.26608
1.26549
1.26487
1.26426
1.26355
1.26259
1.26107
1.25916
1.25816
1.25785
1.25764
1.25795
1.25874
1.25878
1.2587
1.25869
1.25855
1.25761
1.25457
1.25125
1.25053
1.25038
1.25049
1.25156
1.25236
1.25205
1.25128
1.24997
1.24836
1.2474
1.24714
1.24713
1.2474
1.24851
1.24962
1.24987
1.25002
1.25019
1.25021
1.24891
1.24611
1.24515
1.24542
1.24606
1.24749
1.25082
1.25399
1.25467
1.25488
1.25489
1.25386
1.25237
1.25217
1.25234
1.25296
1.2536
1.25339
1.25279
1.25194
1.2505
1.24819
1.24561
1.2443
1.24406
1.24416
1.24519
1.24664
1.24691
1.24665
1.2462
1.24513
1.24276
1.2391
1.23707
1.23684
1.23722
1.23915
1.24251
1.24412
1.24389
1.24253
1.24765
1.30676
1.58049
2.11879
2.32717
2.3767
2.41099
2.44035
2.44839
2.44445
2.43055
2.40846
2.39988
2.39891
2.40822
2.41989
2.41944
2.41476
2.40338
2.39191
2.3888
2.38956
2.39907
2.40885
2.40744
2.40101
2.38787
2.37928
2.37568
2.37355
2.37358
2.3717
2.36744
2.35974
2.3516
2.34745
2.34481
2.34412
2.34514
2.34314
2.33929
2.33495
2.33132
2.32845
2.3262
2.3253
2.32647
2.32821
2.32688
2.32341
2.31609
2.30428
2.29668
2.29358
2.29179
2.29092
2.29235
2.29922
2.30875
2.31298
2.31381
2.31186
2.30339
2.2901
2.28362
2.28131
2.28009
2.28017
2.28354
2.28465
2.28229
2.27802
2.26849
2.25717
2.25254
2.2506
2.25026
2.25205
2.25703
2.25753
2.25545
2.25257
2.24719
2.23878
2.23313
2.23129
2.23003
2.22778
2.2252
2.22221
2.21859
2.21472
2.21123
2.20822
2.20565
2.20382
2.20188
2.19934
2.19565
2.18907
2.18381
2.18078
2.17983
2.18255
2.18392
2.18203
2.17999
2.17833
2.17662
2.17405
2.17076
2.16525
2.15536
2.14783
2.14513
2.14332
2.14197
2.1416
2.14418
2.1471
2.14784
2.14819
2.14786
2.14591
2.14246
2.14039
2.13859
2.13613
2.1332
2.13002
1.26805
1.26836
1.27022
1.27326
1.2741
1.27363
1.27287
1.2712
1.26741
1.26264
1.26102
1.26099
1.2612
1.26187
1.26326
1.26535
1.2668
1.26703
1.26692
1.26655
1.26597
1.26563
1.26563
1.26587
1.26669
1.26802
1.26876
1.2691
1.26929
1.26869
1.26771
1.2674
1.2673
1.26719
1.26717
1.26788
1.26964
1.27051
1.27056
1.27043
1.26979
1.26867
1.26763
1.26676
1.26598
1.26521
1.26427
1.26289
1.26121
1.26031
1.26004
1.25978
1.25987
1.26075
1.26077
1.26049
1.26043
1.26033
1.25986
1.25773
1.25407
1.25271
1.25263
1.25277
1.25366
1.25433
1.25401
1.25328
1.25189
1.24994
1.24887
1.24857
1.24848
1.24851
1.24915
1.25046
1.25095
1.25104
1.25115
1.25115
1.2501
1.24724
1.24551
1.24567
1.24636
1.24775
1.25086
1.25444
1.25547
1.25573
1.25583
1.25517
1.25387
1.25366
1.2538
1.25423
1.25508
1.25515
1.25474
1.25401
1.25273
1.25049
1.24792
1.24676
1.24655
1.2466
1.2474
1.24848
1.24857
1.24829
1.24789
1.2469
1.2447
1.24125
1.23925
1.239
1.23938
1.24122
1.24413
1.24547
1.2453
1.24428
1.24942
1.33568
1.64779
2.10738
2.36643
2.42346
2.43988
2.45196
2.45288
2.44473
2.43316
2.41295
2.39965
2.39882
2.40516
2.41832
2.42077
2.41721
2.40951
2.39715
2.39188
2.39135
2.397
2.40828
2.41058
2.40705
2.40099
2.3891
2.37822
2.37415
2.37171
2.37206
2.37339
2.37104
2.3667
2.35966
2.35402
2.35144
2.35115
2.35092
2.34739
2.34233
2.33555
2.33063
2.32768
2.32557
2.32495
2.32754
2.32927
2.32731
2.32452
2.32059
2.31219
2.30007
2.29265
2.29007
2.28909
2.29023
2.29482
2.30206
2.31116
2.31575
2.31634
2.31434
2.30568
2.29076
2.28236
2.27925
2.27696
2.27582
2.27905
2.28263
2.28135
2.27801
2.27008
2.25865
2.253
2.25034
2.24864
2.24916
2.25444
2.25687
2.25658
2.25493
2.25103
2.24167
2.2332
2.23013
2.22779
2.22573
2.22356
2.22085
2.21745
2.21298
2.20814
2.20467
2.20188
2.19952
2.19804
2.19689
2.19519
2.19472
2.19514
2.19277
2.18779
2.18306
2.17909
2.17602
2.17349
2.17141
2.17012
2.16827
2.16556
2.16116
2.15252
2.14499
2.14229
2.14081
2.14012
2.14169
2.14595
2.14984
2.15229
2.15374
2.15376
2.15183
2.1467
2.13893
2.13403
2.13094
2.12786
1.27106
1.27295
1.27626
1.27741
1.27693
1.27608
1.27451
1.27097
1.26572
1.26317
1.26298
1.26304
1.26353
1.26466
1.26631
1.26746
1.2676
1.26745
1.267
1.26632
1.2659
1.26583
1.26595
1.26661
1.26808
1.26924
1.26961
1.26981
1.26933
1.26786
1.26734
1.26743
1.26752
1.26766
1.26842
1.27054
1.27259
1.27308
1.27312
1.27276
1.27134
1.26966
1.26853
1.26766
1.26683
1.26597
1.26492
1.26355
1.26266
1.26239
1.26217
1.26206
1.26274
1.26298
1.26249
1.26221
1.26202
1.26168
1.2604
1.25721
1.25504
1.25495
1.25511
1.25582
1.25638
1.25605
1.25529
1.25392
1.25183
1.25059
1.25018
1.24998
1.24992
1.25022
1.25132
1.25225
1.25242
1.25246
1.25237
1.25137
1.24862
1.24613
1.24602
1.24669
1.24812
1.25111
1.25485
1.25617
1.25648
1.25665
1.2562
1.25496
1.25465
1.25481
1.25506
1.25583
1.25658
1.25647
1.25596
1.25495
1.25293
1.2503
1.24914
1.24893
1.2489
1.24944
1.25023
1.25023
1.24998
1.24968
1.24888
1.24688
1.24361
1.2416
1.24135
1.24165
1.24322
1.24568
1.2466
1.24646
1.24608
1.25302
1.33651
1.73378
2.15296
2.36756
2.44523
2.45046
2.45247
2.45211
2.44198
2.42728
2.41471
2.4092
2.408
2.41374
2.42294
2.42348
2.41979
2.41341
2.40458
2.39942
2.39824
2.40034
2.40664
2.4102
2.40833
2.40425
2.39852
2.39153
2.38277
2.37588
2.37266
2.37105
2.3717
2.37265
2.37112
2.36807
2.36409
2.36069
2.35741
2.35386
2.34998
2.34539
2.33906
2.33238
2.32823
2.32581
2.32474