/*--------------------------------*- C++ -*----------------------------------*\
  =========                 |
  \\      /  F ield         | OpenFOAM: The Open Source CFD Toolbox
   \\    /   O peration     | Website:  https://openfoam.org
    \\  /    A nd           | Version:  7
     \\/     M anipulation  |
\*---------------------------------------------------------------------------*/
FoamFile
{
    version     2.0;
    format      ascii;
    class       volScalarField;
    location    "3.1";
    object      T;
}
// * * * * * * * * * * * * * * * * * * * * * * * * * * * * * * * * * * * * * //

dimensions      [0 0 0 1 0 0 0];

internalField   nonuniform List<scalar> 
16512
(
1
1
1
1
1
1
1
1
1
1
1
1
1
1
1
1
1
1
1
1
1
1
1
1
1
1
1
1
1
1
1
1
1
1
1
1.17393
2.41365
2.71659
2.72734
2.74268
2.75576
2.76805
2.77937
2.78965
2.79883
2.80621
2.81172
2.81566
1
1
1
1
1
1
1
1
1
1
1
1
1
1
1
1
1
1
1
1
1
1
1
1
1
1
1
1
1
1
1
1
1
1
1
1.15646
2.39977
2.71552
2.72675
2.74133
2.75416
2.76619
2.7772
2.78701
2.79564
2.80245
2.80735
2.81107
1
1
1
1
1
1
1
1
1
1
1
1
1
1
1
1
1
1
1
1
1
1
1
1
1
1
1
1
1
1
1
1
1
1
1
1.10309
2.36225
2.71271
2.72361
2.73833
2.75129
2.7633
2.77415
2.7836
2.79165
2.7978
2.80173
2.80489
1
1
1
1
1
1
1
1
1
1
1
1
1
1
1
1
1
1
1
1
1
1
1
1
1
1
1
1
1
1
1
1
1
1
1
1.00754
2.29426
2.70474
2.71869
2.73368
2.74626
2.75748
2.76767
2.77668
2.78444
2.79025
2.7935
2.7959
1
1
1
1
1
1
1
1
1
1
1
1
1
1
1
1
1
1
1
1
1
1
1
1
1
1
1
1
1
1
1
1
1
1
1
1.00006
2.2124
2.68864
2.70788
2.72354
2.73686
2.7482
2.75809
2.76626
2.77256
2.77686
2.77864
2.78144
1
1
1
1
1
1
1
1
1
1
1
1
1
1
1
1
1
1
1
1
1
1
1
1
1
1
1
1
1
1
1
1
1
1
1
1
2.09826
2.6699
2.6987
2.71313
2.72631
2.73693
2.74583
2.75319
2.7589
2.76225
2.7607
2.75513
1
1
1
1
1
1
1
1
1
1
1
1
1
1
1
1
1
1
1
1
1
1
1
1
1
1
1
1
1
1
1
1
1
1
1
1
1.94016
2.63465
2.68293
2.69868
2.71212
2.72203
2.72948
2.73466
2.73645
2.73306
2.72491
2.71762
1
1
1
1
1
1
1
1
1
1
1
1
1
1
1
1
1
1
1
1
1
1
1
1
1
1
1
1
1
1
1
1
1
1
1
1
1.72343
2.56492
2.65629
2.67974
2.69542
2.70544
2.71106
2.71308
2.71038
2.70521
2.69983
2.71087
1
1
1
1
1
1
1
1
1
1
1
1
1
1
1
1
1
1
1
1
1
1
1
1
1
1
1
1
1
1
1
1
1
1
1
1
1.41207
2.44107
2.6297
2.65544
2.67369
2.68496
2.6888
2.68769
2.67952
2.66093
2.60933
2.50867
1
1
1
1
1
1
1
1
1
1
1
1
1
1
1
1
1
1
1
1
1
1
1
1
1
1
1
1
1
1
1
1
1
1
1
1
1.05189
2.30843
2.62989
2.63228
2.64291
2.65359
2.65785
2.65456
2.64144
2.60819
2.55033
2.38808
1
1
1
1
1
1
1
1
1
1
1
1
1
1
1
1
1
1
1
1
1
1
1
1
1
1
1
1
1
1
1
1
1
1
1
1
1.00063
2.14074
2.5887
2.59738
2.60865
2.6161
2.62021
2.61559
2.60037
2.56154
2.49715
2.31425
1
1
1
1
1
1
1
1
1
1
1
1
1
1
1
1
1
1
1
1
1
1
1
1
1
1
1
1
1
1
1
1
1
1
1
1
0.999993
1.83422
2.52413
2.58179
2.59021
2.58932
2.5877
2.57933
2.56021
2.52127
2.44913
2.2889
1
1
1
1
1
1
1
1
1
1
1
1
1
1
1
1
1
1
1
1
1
1
1
1
1
1
1
1
1
1
1
1
1
1
1
1
0.999998
1.37563
2.38024
2.56313
2.56364
2.56213
2.55679
2.54408
2.52095
2.48252
2.40888
2.28691
1
1
1
1
1
1
1
1
1
1
1
1
1
1
1
1
1
1
1
1
1
1
1
1
1
1
1
1
1
1
1
1
1
1
1
1
1
1.03878
2.19515
2.52239
2.53343
2.53257
2.52667
2.51232
2.48798
2.44788
2.379
2.28709
1
1
1
1
1
1
1
1
1
1
1
1
1
1
1
1
1
1
1
1
1
1
1
1
1
1
1
1
1
1
1
1
1
1
1
1
1
1.00023
1.82931
2.43918
2.51121
2.50828
2.50087
2.4837
2.45898
2.41666
2.356
2.28309
1
1
1
1
1
1
1
1
1
1
1
1
1
1
1
1
1
1
1
1
1
1
1
1
1
1
1
1
1
1
1
1
1
1
1
1
1
0.999998
1.2419
2.28003
2.49124
2.4781
2.47024
2.45499
2.42882
2.39142
2.33943
2.27838
1
1
1
1
1
1
1
1
1
1
1
1
1
1
1
1
1
1
1
1
1
1
1
1
1
1
1
1
1
1
1
1
1
1
1
1
1
1
1.01356
2.08331
2.44112
2.43195
2.43074
2.42101
2.40044
2.3687
2.32425
2.27176
1
1
1
1
1
1
1
1
1
1
1
1
1
1
1
1
1
1
1
1
1
1
1
1
1
1
1
1
1
1
1
1
1
1
1
1
1
1
1.00001
1.58579
2.32447
2.41249
2.40606
2.39383
2.37449
2.34567
2.30763
2.26301
1
1
1
1
1
1
1
1
1
1
1
1
1
1
1
1
1
1
1
1
1
1
1
1
1
1
1
1
1
1
1
1
1
1
1
1
1
1
0.999998
1.08929
2.11592
2.39071
2.38281
2.36826
2.34777
2.32102
2.28819
2.25051
1
1
1
1
1
1
1
1
1
1
1
1
1
1
1
1
1
1
1
1
1
1
1
1
1
1
1
1
1
1
1
1
1
1
1
1
1
1
0.999999
1.00157
1.66626
2.2772
2.36057
2.34191
2.32241
2.2977
2.26905
2.236
1
1
1
1
1
1
1
1
1
1
1
1
1
1
1
1
1
1
1
1
1
1
1
1
1
1
1
1
1
1
1
1
1
1
1
1
1
1
1
1
1.13042
2.07734
2.33518
2.31611
2.29976
2.27698
2.2511
2.22106
1
1
1
1
1
1
1
1
1
1
1
1
1
1
1
1
1
1
1
1
1
1
1
1
1
1
1
1
1
1
1
1
1
1
1
1
1
1
1
1
1.00357
1.62645
2.20824
2.293
2.27351
2.25303
2.23117
2.20578
1
1
1
1
1
1
1
1
1
1
1
1
1
1
1
1
1
1
1
1
1
1
1
1
1
1
1
1
1
1
1
1
1
1
1
1
1
1
1
1
1.00001
1.11875
1.9913
2.26809
2.24901
2.23397
2.21553
2.19339
1
1
1
1
1
1
1
1
1
1
1
1
1
1
1
1
1
1
1
1
1
1
1
1
1
1
1
1
1
1
1
1
1
1
1
1
1
1
1
1
1
1.00304
1.4755
2.10197
2.22639
2.20967
2.19409
2.17554
1
1
1
1
1
1
1
1
1
1
1
1
1
1
1
1
1
1
1
1
1
1
1
1
1
1
1
1
1
1
1
1
1
1
1
1
1
1
1
1
1
1.00001
1.064
1.82988
2.1953
2.1864
2.17307
2.15658
1
1
1
1
1
1
1
1
1
1
1
1
1
1
1
1
1
1
1
1
1
1
1
1
1
1
1
1
1
1
1
1
1
1
1
1
1
1
1
1
1
1
1.00104
1.29082
2.00259
2.16564
2.14679
2.13137
1
1
1
1
1
1
1
1
1
1
1
1
1
1
1
1
1
1
1
1
1
1
1
1
1
1
1
1
1
1
1
1
1
1
1
1
1
1
1
1
1
1
1
1.02048
1.59235
2.05719
2.13375
2.11631
1
1
1
1
1
1
1
1
1
1
1
1
1
1
1
1
1
1
1
1
1
1
1
1
1
1
1
1
1
1
1
1
1
1
1
1
1
1
1
1
1
1
1
1.00021
1.11687
1.80344
2.10143
2.10041
1
1
1
1
1
1
1
1
1
1
1
1
1
1
1
1
1
1
1
1
1
1
1
1
1
1
1
1
1
1
1
1
1
1
1
1
1
1
1
1
1
1
1
1
1.00338
1.30262
1.91514
2.07728
1
1
1
1
1
1
1
1
1
1
1
1
1
1
1
1
1
1
1
1
1
1
1
1
1
1
1
1
1
1
1
1
1
1
1
1
1
1
1
1
1
1
1
1
1.00002
1.02379
1.49865
1.96063
1
1
1
1
1
1
1
1
1
1
1
1
1
1
1
1
1
1
1
1
1
1
1
1
1
1
1
1
1
1
1
1
1
1
1
1
1
1
1
1
1
1
1
1
1
1.0003
1.08191
1.66365
1
1
1
1
1
1
1
1
1
1
1
1
1
1
1
1
1
1
1
1
1
1
1
1
1
1
1
1
1
1
1
1
1
1
1
1
1
1
1
1
1
1
1
1
1
1
1.00207
1.18877
1
1
1
1
1
1
1
1
1
1
1
1
1
1
1
1
1
1
1
1
1
1
1
1
1
1
1
1
1
1
1
1
1
1
1
1
1
1
1
1
1
1
1
1
1
1
1.00001
1.0094
1
1
1
1
1
1
1
1
1
1
1
1
1
1
1
1
1
1
1
1
1
1
1
1
1
1
1
1
1
1
1
1
1
1
1
1
1
1
1
1
1
1
1
1
1
1
1
1.00009
1
1
1
1
1
1
1
1
1
1
1
1
1
1
1
1
1
1
1
1
1
1
1
1
1
1
1
1
1
1
1
1
1
1
1
1
1
1
1
1
1
1
1
1
1
1
1
1
1
1
1
1
1
1
1
1
1
1
1
1
1
1
1
1
1
1
1
1
1
1
1
1
1
1
1
1
1
1
1
1
1
1
1
1
1
1
1
1
1
1
1
1
1
1
1
1
1
1
1
1
1
1
1
1
1
1
1
1
1
1
1
1
1
1
1
1
1
1
1
1
1
1
1
1
1
1
1
1
1
1
1
1
1
1
1
1
1
1
1
1
1
1
1
1
1
1
1
1
1
1
1
1
1
1
1
1
1
1
1
1
1
1
1
1
1
1
1
1
1
1
1
1
1
1
1
1
1
1
1
1
1
1
1
1
1
1
1
1
1
1
1
1
1
1
1
1
1
1
1
1
1
1
1
1
1
1
1
1
1
1
1
1
1
1
1
1
1
1
1
1
1
1
1
1
1
1
1
1
1
1
1
1
1
1
1
1
1
1
1
1
1
1
1
1
1
1
1
1
1
1
1
1
1
1
1
1
1
1
1
1
1
1
1
1
1
1
1
1
1
1
1
1
1
1
1
1
1
1
1
1
1
1
1
1
1
1
1
1
1
1
1
1
1
1
1
1
1
1
1
1
1
1
1
1
1
1
1
1
1
1
1
1
1
1
1
1
1
1
1
1
1
1
1
1
1
1
1
1
1
1
1
1
1
1
1
1
1
1
1
1
1
1
1
1
1
1
1
1
1
1
1
1
1
1
1
1
1
1
1
1
1
1
1
1
1
1
1
1
1
1
1
1
1
1
1
1
1
1
1
1
1
1
1
1
1
1
1
1
1
1
1
1
1
1
1
1
1
1
1
1
1
1
1
1
1
1
1
1
1
1
1
1
1
1
1
1
1
1
1
1
1
1
1
1
1
1
1
1
1
1
1
1
1
1
1
1
1
1
1
1
1
1
1
1
1
1
1
1
1
1
1
1
1
1
1
1
1
1
1
1
1
1
1
1
1
1
1
1
1
1
1
1
1
1
1
1
1
1
1
1
1
1
1
1
1
1
1
1
1
1
1
1
1
1
1
1
1
1
1
1
1
1
1
1
1
1
1
1
1
1
1
1
1
1
1
1
1
1
1
1
1
1
1
1
1
1
1
1
1
1
1
1
1
1
1
1
1
1
1
1
1
1
1
1
1
1
1
1
1
1
1
1
1
1
1
1
1
1
1
1
1
1
1
1
1
1
1
1
1
1
1
1
1
1
1
1
1
1
1
1
1
1
1
1
1
1
1
1
1
1
1
1
1
1
1
1
1
1
1
1
1
1
1
1
1
1
1
1
1
1
1
1
1
1
1
1
1
1
1
1
1
1
1
1
1
1
1
1
1
1
1
1
1
1
1
1
1
1
1
1
1
1
1
1
1
1
1
1
1
1
1
1
1
1
1
1
1
1
1
1
1
1
1
1
1
1
1
1
1
1
1
1
1
1
1
1
1
1
1
1
1
1
1
1
1
1
1
1
1
1
1
1
1
1
1
1
1
1
1
1
1
1
1
1
1
1
1
1
1
1
1
1
1
1
1
1
1
1
1
1
1
1
1
1
1
1
1
1
1
1
1
1
1
1
1
1
1
1
1
1
1
1
1
1
1
1
1
1
1
1
1
1
1
1
1
1
1
1
1
1
1
1
1
1
1
1
1
1
1
1
1
1
1
1
1
1
1
1
1
1
1
1
1
1
1
1
1
1
1
1
1
1
1
1
1
1
1
1
1
1
1
1
1
1
1
1
1
1
1
1
1
1
1
1
1
1
1
1
1
1
1
1
1
1
1
1
1
1
1
1
1
1
1
1
1
1
1
1
1
1
1
1
1
1
1
1
1
1
1
1
1
1
1
1
1
1
1
1
1
1
1
1
1
1
1
1
1
1
1
1
1
1
1
1
1
1
1
1
1
1
1
1
1
1
1
1
1
1
1
1
1
1
1
1
1
1
1
1
1
1
1
1
1
1
1
1
1
1
1
1
1
1
1
1
1
1
1
1
1
1
1
1
1
1
1
1
1
1
1
1
1
1
1
1
1
1
1
1
1
1
1
1
1
1
1
1
1
1
1
1
1
1
1
1
1
1
1
1
1
1
1
1
1
1
1
1
1
1
1
1
1
1
1
1
1
1
1
1
1
1
1
1
1
1
1
1
1
1
1
1
1
1
1
1
1
1
1
1
1
1
1
1
1
1
1
1
1
1
1
1
1
1
1
1
1
1
1
1
1
1
1
1
1
1
1
1
1
1
1
1
1
1
1
1
1
1
1
1
1
1
1
1
1
1
1
1
1
1
1
1
1
1
1
1
1
1
1
1
1
1
1
1
1
1
1
1
1
1
1
1
1
1
1
1
1
1
1
1
1
1
1
1
1
1
1
1
1
1
1
1
1
1
1
1
1
1
1
1
1
1
1
1
1
1
1
1
1
1
1
1
1
1
1
1
1
1
1
1
1
1
1
1
1
1
1
1
1
1
1
1
1
1
1
1
1
1
1
1
1
1
1
1
1
1
1
1
1
1
1
1
1
1
1
1
1
1
1
1
1
1
1
1
1
1
1
1
1
1
1
1
1
1
1
1
1
1
1
1
1
1
1
1
1
1
1
1
1
1
1
1
1
1
1
1
1
1
1
1
1
1
1
1
1
1
1
1
1
1
1
1
1
1
1
1
1
1
1
1
1
1
1
1
1
1
1
1
1
1
1
1
1
1
1
1
1
1
1
1
1
1
1
1
1
1
1
1
1
1
1
1
1
1
1
1
1
1
1
1
1
1
1
1
1
1
1
1
1
1
1
1
1
1
1
1
1
1
1
1
1
1
1
1
1
1
1
1
1
1
1
1
1
1
1
1
1
1
1
1
1
1
1
1
1
1
1
1
1
1
1
1
1
1
1
1
1
1
1
1
1
1
1
1
1
1
1
1
1
1
1
1
1
1
1
1
1
1
1
1
1
1
1
1
1
1
1
1
1
1
1
1
1
1
1
1
1
1
1
1
1
1
1
1
1
1
1
1
1
1
1
1
1
1
1
1
1
1
1
1
1
1
1
1
1
1
1
1
1
1
1
1
1
1
1
1
1
1
1
1
1
1
1
1
1
1
1
1
1
1
1
1
1
1
1
1
1
1
1
1
1
1
1
1
1
1
1
1
1
1
1
1
1
1
1
1
1
1
1
1
1
1
1
1
1
1
1
1
1
1
1
1
1
1
1
1
1
1
1
1
1
1
1
1
1
1
1
1
1
1
1
1
1
1
1
1
1
1
1
1
1
1
1
1
1
1
1
1
1
1
1
1
1
1
1
1
1
1
1
1
1
1
1
1
1
1
1
1
1
1
1
1
1
1
1
1
1
1
1
1
1
1
1
1
1
1
1
1
1
1
1
1
1
1
1
1
1
1
1
1
1
1
1
1
1
1
1
1
1
1
1
1
1
1
1
1
1
1
1
1
1
1
1
1
1
1
1
1
1
1
1
1
1
1
1
1
1
1
1
1
1
1
1
1
1
1
1
1
1
1
1
1
1
1
1
1
1
1
1
1
1
1
1
1
1
1
1
1
1
1
1
1
1
1
1
1
1
1
1
1
1
1
1
1
1
1
1
1
1
1
1
1
1
1
1
1
1
1
1
1
1
1
1
1
1
1
1
1
1
1
1
1
1
1
1
1
1
1
1
1
1
1
1
1
1
1
1
1
1
1
1
1
1
1
1
1
1
1
1
1
1
1
1
1
1
1
1
1
1
1
1
1
1
1
1
1
1
1
1
1
1
1
1
1
1
1
1
1
1
1
1
1
1
1
1
1
1
1
1
1
1
1
1
1
1
1
1
1
1
1
1
1
1
1
1
1
1
1
1
1
1
1
1
1
1
1
1
1
1
1
1
1
1
1
1
1
1
1
1
1
1
1
1
1
1
1
1
1
1
1
1
1
1
1
1
1
1
1
1
1
1
1
1
1
1
1
1
1
1
1
1
1
1
1
1
1
1
1
1
1
1
1
1
1
1
1
1
1
1
1
1
1
1
1
1
1
1
1
1
1
1
1
1
1
1
1
1
1
1
1
1
1
1
1
1
1
1
1
1
1
1
1
1
1
1
1
1
1
1
1
1
1
1
1
1
1
1
1
1
1
1
1
1
1
1
1
1
1
1
1
1
1
1
1
1
1
1
1
1
1
1
1
1
1
1
1
1
1
1
1
1
1
1
1
1
1
1
1
1
1
1
1
1
1
1
1
1
1
1
1
1
1
1
1
1
1
1
1
1
1
1
1
1
1
1
1
1
1
1
1
1
1
1
1
1
1
1
1
1
1
1
1
1
1
1
1
1
1
1
1
1
1
1
1
1
1
1
1
1
1
1
1
1
1
1
1
1
1
1
1
1
1
1
1
1
1
1
1
1
1
1
1
1
1
1
1
1
1
1
1
1
1
1
1
1
1
1
1
1
1
1
1
1
1
1
1
1
1
1
1
1
1
1
1
1
1
1
1
1
1
1
1
1
1
1
1
1
1
1
1
1
1
1
1
1
1
1
1
1
1
1
1
1
1
1
1
1
1
1
1
1
1
1
1
1
1
1
1
1
1
1
1
1
1
1
1
1
1
1
1
1
1
1
1
1
1
1
1
1
1
1
1
1
1
1
1
1
1
1
1
1
1
1
1
1
1
1
1
1
1
1
1
1
1
1
1
1
1
1
1
1
1
1
1
1
1
1
1
1
1
1
1
1
1
1
1
1
1
1
1
1
1
1
1
1
1
1
1
1
1
1
1
1
1
1
1
1
1
1
1
1
1
1
1
1
1
1
1
1
1
1
1
1
1
1
1
1
1
1
1
1
1
1
1
1
1
1
1
1
1
1
1
1
1
1
1
1
1
1
1
1
1
1
1
1
1
1
1
1
1
1
1
1
1
1
1
1
1
1
1
1.68367
1.1245
0.923239
1.03691
1.16064
1.255
1.36724
1.45855
1.51103
1.54467
1.60112
1.68764
1.71465
1.71251
1.71046
1.71226
1.73209
1.74256
1.7352
1.70562
1.69453
1.70002
1.71516
1.72351
1.72262
1.71656
1.7049
1.69302
1.69087
1.96785
2.63681
2.74783
2.77304
2.79123
2.80352
2.81217
2.81732
2.81838
2.81654
2.81602
2.82093
2.82766
2.8307
2.83051
2.83248
2.83904
2.84675
2.85018
1.93276
1.66557
1.40801
1.32395
1.31564
1.30801
1.30295
1.28596
1.28266
1.31072
1.36447
1.41573
1.47271
1.51381
1.54375
1.57334
1.60963
1.64034
1.64271
1.63902
1.63935
1.64905
1.66434
1.67583
1.67777
1.67639
1.67049
1.66401
1.66114
1.86851
2.56555
2.7239
2.75991
2.78323
2.79777
2.80834
2.81552
2.81836
2.81742
2.81697
2.8215
2.82799
2.83104
2.83089
2.83279
2.83898
2.84649
2.85006
2.02761
1.83998
1.67518
1.54547
1.47155
1.38754
1.3248
1.28701
1.24366
1.2452
1.27066
1.2964
1.32137
1.35221
1.38387
1.41655
1.45112
1.48701
1.51704
1.54579
1.56665
1.58065
1.59196
1.60137
1.60556
1.60483
1.60394
1.60168
1.59999
1.65805
2.39148
2.65902
2.71791
2.7508
2.77157
2.78763
2.79978
2.80757
2.81072
2.81277
2.81767
2.82397
2.82773
2.82857
2.83102
2.83737
2.84505
2.84886
2.10067
1.94151
1.80371
1.69879
1.60543
1.5246
1.45029
1.40505
1.3552
1.31627
1.30626
1.28818
1.27693
1.28166
1.29278
1.30682
1.33283
1.36962
1.4054
1.44284
1.47589
1.49075
1.50457
1.51999
1.53394
1.54308
1.55157
1.55247
1.55207
1.55814
2.16831
2.56953
2.64619
2.68626
2.71517
2.73993
2.76103
2.77836
2.79075
2.79976
2.80808
2.81602
2.82177
2.82469
2.82833
2.83501
2.84304
2.84693
2.15098
2.02191
1.89781
1.80505
1.71675
1.62386
1.56199
1.51127
1.46485
1.41819
1.38035
1.34506
1.30482
1.29
1.28774
1.29064
1.29501
1.30563
1.32403
1.35308
1.391
1.41993
1.44251
1.46386
1.48006
1.49141
1.5024
1.50905
1.51765
1.52086
1.879
2.46261
2.58093
2.60573
2.63576
2.66872
2.69857
2.72347
2.74431
2.76291
2.77967
2.79442
2.80572
2.81345
2.82034
2.82857
2.83715
2.8415
2.18595
2.08103
1.97787
1.88264
1.80152
1.72102
1.65366
1.59847
1.54445
1.50105
1.4642
1.43062
1.39359
1.36398
1.342
1.32164
1.3122
1.31226
1.30604
1.30712
1.31475
1.33339
1.35435
1.38707
1.41959
1.44648
1.46839
1.48098
1.49379
1.49803
1.60133
2.35035
2.55508
2.55126
2.56674
2.59297
2.62355
2.65347
2.68069
2.70752
2.73411
2.7593
2.77941
2.79411
2.80628
2.81861
2.83065
2.83427
2.2024
2.11353
2.03105
1.94888
1.86605
1.79446
1.73073
1.67249
1.62115
1.57389
1.53329
1.49248
1.45699
1.42901
1.40287
1.37729
1.35508
1.34035
1.32331
1.30854
1.3101
1.31154
1.3128
1.32124
1.34179
1.37454
1.40891
1.43834
1.4652
1.47743
1.49458
2.26722
2.55088
2.53786
2.54238
2.55539
2.57174
2.59028
2.61379
2.64135
2.67121
2.70124
2.73017
2.75471
2.77425
2.79244
2.80748
2.82289
2.20965
2.13644
2.0662
1.99206
1.91518
1.85484
1.79429
1.73465
1.68191
1.6412
1.59614
1.5569
1.51872
1.49054
1.46159
1.43406
1.41259
1.39438
1.37464
1.34847
1.33546
1.32729
1.31602
1.31365
1.31549
1.32341
1.33656
1.36129
1.39069
1.42512
1.43759
2.15261
2.56098
2.54398
2.53523
2.53743
2.54514
2.5555
2.56884
2.58518
2.60949
2.64003
2.67165
2.7018
2.7272
2.75361
2.78641
2.84785
2.21185
2.14948
2.08748
2.01989
1.95526
1.89944
1.8438
1.78275
1.73567
1.69346
1.65138
1.60766
1.57543
1.54478
1.51602
1.48566
1.46141
1.43811
1.41237
1.38851
1.37004
1.35449
1.33899
1.32283
1.31914
1.32138
1.32133
1.32329
1.33011
1.34946
1.3607
1.98995
2.57206
2.56614
2.55655
2.55473
2.55158
2.5471
2.5472
2.555
2.56846
2.58825
2.61153
2.63952
2.66665
2.68311
2.67831
2.63161
2.2106
2.15662
2.10179
2.04255
1.98551
1.93286
1.88047
1.82663
1.78227
1.73878
1.69574
1.65419
1.62309
1.59169
1.56016
1.53007
1.50697
1.48403
1.45998
1.43282
1.41415
1.39666
1.37995
1.35953
1.34943
1.34185
1.33001
1.3236
1.32167
1.31924
1.31925
1.68675
2.53909
2.60264
2.59145
2.58488
2.57327
2.56201
2.55464
2.551
2.55223
2.55815
2.56772
2.57849
2.59157
2.59764
2.56783
2.4808
2.2058
2.15931
2.11022
2.0569
2.00805
1.96036
1.9088
1.8599
1.8192
1.77737
1.7346
1.6945
1.66357
1.63089
1.59995
1.56944
1.54543
1.52055
1.49686
1.47285
1.45381
1.43506
1.41611
1.3963
1.38027
1.3642
1.34779
1.33054
1.32477
1.32004
1.31671
1.35456
2.3822
2.62404
2.61565
2.60934
2.59834
2.58721
2.57546
2.56446
2.55679
2.54846
2.53862
2.53153
2.52943
2.51447
2.47579
2.37225
2.19802
2.15811
2.11429
2.0681
2.02528
1.98015
1.93055
1.88977
1.84995
1.80837
1.76355
1.7315
1.69944
1.66639
1.63129
1.60582
1.58241
1.55643
1.53052
1.50689
1.48914
1.46886
1.44995
1.43272
1.41912
1.40229
1.38372
1.3613
1.35053
1.34156
1.33078
1.32678
2.05778
2.59697
2.62052
2.61716
2.61263
2.60834
2.6017
2.58987
2.57359
2.55643
2.53641
2.51348
2.48702
2.4564
2.40852
2.31955
2.18808
2.15382
2.11383
2.07377
2.03574
1.9932
1.94776
1.91086
1.873
1.83219
1.79138
1.76119
1.72792
1.69511
1.66112
1.6384
1.61307
1.58746
1.55919
1.53897
1.52074
1.50101
1.47885
1.45945
1.44638
1.43066
1.41474
1.39531
1.38023
1.36644
1.35017
1.33316
1.58678
2.43129
2.59785
2.60631
2.61134
2.61521
2.61444
2.60872
2.59366
2.57104
2.54361
2.51356
2.47836
2.43376
2.37369
2.29349
2.17721
2.14686
2.11162
2.07593
2.04125
2.00112
1.96125
1.92718
1.8919
1.85037
1.81575
1.78613
1.75443
1.71995
1.68941
1.66714
1.6406
1.61487
1.58688
1.56802
1.54799
1.52783
1.50724
1.49017
1.47483
1.45688
1.43936
1.42245
1.40987
1.39673
1.38074
1.35895
1.37434
2.13044
2.52959
2.57772
2.59433
2.60515
2.61169
2.60837
2.5966
2.57999
2.55534
2.52144
2.48305
2.43636
2.37479
2.29873
2.16733
2.1388
2.10709
2.07465
2.04232
2.00564
1.96992
1.93818
1.90459
1.8654
1.8356
1.80622
1.77576
1.74
1.7153
1.69155
1.66503
1.63656
1.61162
1.59456
1.57313
1.55213
1.52894
1.51498
1.49947
1.48168
1.46282
1.4454
1.43295
1.41925
1.40479
1.38764
1.3726
1.65384
2.36325
2.51635
2.55862
2.58152
2.59435
2.59723
2.59141
2.57781
2.56016
2.53223
2.49586
2.44959
2.38789
2.31652
2.15322
2.12755
2.09915
2.07037
2.04061
2.00742
1.97524
1.9461
1.91336
1.87781
1.85031
1.82322
1.79269
1.75904
1.73654
1.71134
1.68585
1.65585
1.63564
1.61689
1.59524
1.57299
1.55184
1.53806
1.52068
1.50335
1.48314
1.4683
1.45567
1.44163
1.42663
1.41462
1.39535
1.41697
2.10192
2.43147
2.50289
2.53286
2.55668
2.56895
2.57169
2.56712
2.55585
2.53657
2.5084
2.46859
2.4111
2.34384
2.13725
2.11505
2.0902
2.06429
2.03714
2.00776
1.97916
1.95113
1.92017
1.88869
1.86259
1.83667
1.80522
1.77556
1.75346
1.72915
1.70288
1.67385
1.65637
1.63602
1.61514
1.5913
1.57305
1.55846
1.5398
1.52206
1.50218
1.48932
1.47566
1.46158
1.44432
1.43344
1.4217
1.40894
1.64333
2.2854
2.43656
2.47076
2.50251
2.52514
2.54038
2.5418
2.53692
2.52696
2.50658
2.47587
2.4292
2.37026
2.11519
2.09688
2.07724
2.05497
2.02996
2.00453
1.97966
1.95316
1.92371
1.89584
1.87127
1.8454
1.81512
1.78872
1.76646
1.74322
1.71587
1.69106
1.67367
1.65284
1.63172
1.60712
1.59225
1.57604
1.55781
1.53794
1.51923
1.50822
1.49399
1.48049
1.46372
1.45208
1.44223
1.42071
1.43723
2.04288
2.35435
2.4177
2.44213
2.46532
2.48489
2.49808
2.50388
2.49912
2.48992
2.46769
2.428
2.3808
2.0984
2.08158
2.06416
2.04468
2.02264
2.00075
1.97754
1.95238
1.92555
1.90202
1.87736
1.85136
1.82276
1.80033
1.77839
1.75526
1.7278
1.70649
1.6883
1.66805
1.64594
1.62354
1.60915
1.59127
1.57369
1.55286
1.53773
1.52573
1.51044
1.49593
1.4801
1.47001
1.45957
1.44125
1.42739
1.62757
2.21321
2.36215
2.38656
2.41043
2.43014
2.44794
2.45959
2.46381
2.4594
2.4435
2.41419
2.37562
2.08391
2.06731
2.05036
2.03147
2.01195
1.99259
1.97153
1.94799
1.92452
1.90249
1.87876
1.85392
1.82892
1.80912
1.78674
1.76376
1.73791
1.71961
1.70032
1.68033
1.65693
1.638
1.62316
1.60504
1.58725
1.56611
1.55394
1.54079
1.52605
1.51035
1.49479
1.48432
1.47266
1.45874
1.43722
1.45152
1.94781
2.28814
2.34827
2.3621
2.37788
2.39222
2.40383
2.41232
2.41138
2.40426
2.387
2.3622
2.06681
2.0501
2.03379
2.01648
1.99992
1.98192
1.96226
1.94059
1.92222
1.9013
1.87929
1.85432
1.83459
1.81478
1.79303
1.76954
1.74702
1.73034
1.7103
1.69066
1.66747
1.65145
1.63509
1.6174
1.5989
1.58062
1.56909
1.55418
1.53965
1.52284
1.50981
1.4986
1.485
1.47193
1.45408
1.44485
1.58452
2.13404
2.29585
2.32362
2.33693
2.34479
2.35175
2.35875
2.36117
2.35834
2.35017
2.33614
2.05243
2.0375
2.01843
2.00258
1.98774
1.97159
1.95258
1.93402
1.91671
1.89743
1.87688
1.85481
1.83747
1.8164
1.7961
1.77229
1.75502
1.73772
1.71818
1.69787
1.67685
1.66275
1.6451
1.62834
1.60851
1.59373
1.58139
1.56567
1.55116
1.53389
1.52261
1.51015
1.49663
1.48211
1.46913
1.45294
1.46085
1.82711
2.20538
2.29962
2.29964
2.30198
2.30577
2.31031
2.31268
2.31055
2.30462
2.29546
1.97676
2.02941
2.01056
1.99093
1.97581
1.95994
1.94163
1.92606
1.90881
1.89144
1.87038
1.85345
1.83623
1.81661
1.79639
1.7752
1.76069
1.74177
1.72369
1.70214
1.68577
1.67137
1.6537
1.63717
1.61758
1.60547
1.59118
1.57593
1.56028
1.54485
1.53435
1.52044
1.5076
1.49181
1.48167
1.4696
1.45712
1.53475
2.03414
2.25941
2.26337
2.2641
2.26633
2.26894
2.2685
2.26573
2.26019
2.25258
1.7594
1.98217
2.0004
1.98365
1.96605
1.94853
1.93276
1.91764
1.90118
1.88331
1.86461
1.85076
1.83281
1.8157
1.79438
1.77866
1.76311
1.74434
1.72644
1.70555
1.69309
1.6771
1.66083
1.64295
1.62623
1.61466
1.59884
1.58462
1.56751
1.55493
1.54359
1.52929
1.51681
1.50094
1.49288
1.48325
1.46311
1.46535
1.7164
2.13517
2.2373
2.23547
2.23879
2.23837
2.23529
2.22989
2.22276
2.2145
1.31142
1.80976
1.97274
1.97151
1.95717
1.93829
1.92434
1.90963
1.89434
1.8754
1.86085
1.84558
1.82875
1.81181
1.79237
1.77958
1.76225
1.74566
1.72593
1.7098
1.6977
1.68074
1.66556
1.6461
1.63372
1.62098
1.60545
1.59117
1.57401
1.56386
1.55094
1.53753
1.52423
1.51071
1.50249
1.49254
1.47641
1.4631
1.50034
1.91819
2.17478
2.22104
2.2164
2.21202
2.20638
2.19957
2.19137
2.18197
1.02819
1.41814
1.84268
1.95194
1.94689
1.92874
1.9147
1.90147
1.88568
1.86905
1.85639
1.84001
1.82499
1.80555
1.79157
1.77806
1.76071
1.74531
1.72526
1.71364
1.69927
1.68335
1.66709
1.64938
1.63941
1.62504
1.61119
1.59498
1.5808
1.57104
1.55697
1.5449
1.52996
1.51978
1.5105
1.49939
1.48652
1.46882
1.46922
1.61467
2.02819
2.18705
2.1862
2.18349
2.17963
2.17405
2.16597
2.15579
1.00043
1.0605
1.50931
1.856
1.93349
1.92293
1.90641
1.89196
1.87502
1.86255
1.84971
1.83516
1.81919
1.80178
1.79059
1.77417
1.75928
1.7419
1.72607
1.71546
1.69923
1.68515
1.66681
1.65353
1.64296
1.62804
1.61495
1.5974
1.58709
1.57617
1.56272
1.55045
1.53544
1.52736
1.51646
1.50512
1.49285
1.4791
1.46886
1.4811
1.769
2.08279
2.16183
2.1591
2.15779
2.15426
2.14661
2.13567
1
1.0014
1.10566
1.57715
1.85756
1.91403
1.90285
1.88442
1.86519
1.85436
1.84197
1.82912
1.81145
1.79953
1.78703
1.77095
1.75692
1.7378
1.72771
1.71461
1.69901
1.68528
1.66717
1.65771
1.64478
1.63073
1.61611
1.60017
1.5921
1.57992
1.56805
1.55395
1.54136
1.53336
1.52123
1.51007
1.49651
1.48746
1.47585
1.46741
1.53192
1.90342
2.09823
2.14136
2.13705
2.13233
2.12468
2.11445
1
1.00001
1.00359
1.15726
1.62646
1.85082
1.89484
1.88246
1.85989
1.8464
1.8345
1.82028
1.80464
1.79566
1.78204
1.76893
1.75173
1.73716
1.72762
1.71188
1.69913
1.68306
1.66985
1.66041
1.64523
1.63267
1.61598
1.60424
1.59582
1.58302
1.57177
1.55624
1.54683
1.53755
1.52555
1.51422
1.49986
1.4937
1.48414
1.46688
1.46949
1.63386
1.96998
2.10534
2.11008
2.1053
2.09881
2.09134
1
1
1.00003
1.00756
1.20877
1.65898
1.83741
1.87479
1.85971
1.8435
1.82965
1.81237
1.80046
1.79059
1.77747
1.76452
1.74642
1.73714
1.72511
1.71052
1.6977
1.68046
1.67236
1.6601
1.6458
1.63354
1.61656
1.60878
1.59808
1.58552
1.57341
1.55874
1.55123
1.54054
1.52953
1.51696
1.50447
1.49818
1.4894
1.47304
1.46242
1.48367
1.74239
2.00876
2.08577
2.08079
2.07464
2.06987
1
1
1
1.00008
1.01342
1.26009
1.67132
1.82481
1.85656
1.84526
1.82828
1.808
1.79771
1.78542
1.77294
1.7574
1.74355
1.73558
1.72176
1.70969
1.69298
1.68064
1.67272
1.65843
1.64702
1.63205
1.61968
1.61215
1.59879
1.58767
1.5735
1.56224
1.55479
1.54297
1.53271
1.51874
1.50935
1.50189
1.49233
1.48021
1.46464
1.46646
1.52887
1.8378
2.01346
2.06341
2.05738
2.05139
1
1
1
1
1.00017
1.02206
1.29215
1.6779
1.81411
1.84013
1.82809
1.80651
1.79431
1.78162
1.76902
1.75163
1.7427
1.73242
1.71901
1.70673
1.68914
1.68165
1.67134
1.65801
1.64676
1.63034
1.62294
1.61259
1.59943
1.58884
1.57358
1.56624
1.55702
1.54519
1.53463
1.52065
1.51362
1.50473
1.49512
1.48418
1.47167
1.46298
1.46648
1.59819
1.88959
2.01452
2.03816
2.0324
1
1
1
1
1
1.00034
1.0292
1.3194
1.68117
1.80474
1.82203
1.80736
1.7915
1.7794
1.76423
1.75032
1.74203
1.72885
1.71712
1.70157
1.68864
1.68195
1.66923
1.65824
1.64371
1.63111
1.62433
1.61149
1.60079
1.58791
1.57572
1.56947
1.55776
1.54731
1.53511
1.52363
1.51734
1.50712
1.49785
1.48617
1.47741
1.46828
1.4586
1.47393
1.67408
1.91638
2.01133
2.01011
1
1
1
1
1
1
1.00051
1.03829
1.3405
1.68393
1.78626
1.80256
1.79249
1.77904
1.75925
1.74887
1.73903
1.72658
1.71519
1.69845
1.69077
1.68115
1.66792
1.65711
1.64052
1.63302
1.62407
1.61138
1.60144
1.58623
1.57903
1.57071
1.55827
1.54889
1.53489
1.52745
1.51999
1.50937
1.50032
1.48779
1.48194
1.47396
1.45906
1.45673
1.50094
1.73705
1.92972
1.98974
1
1
1
1
1
1
1
1.00081
1.04577
1.35444
1.66788
1.77054
1.79026
1.77993
1.75878
1.74618
1.73516
1.72561
1.71176
1.69956
1.69224
1.67896
1.66772
1.65412
1.64043
1.63451
1.62294
1.61226
1.59994
1.58697
1.58147
1.57041
1.55985
1.54886
1.53635
1.53112
1.52141
1.51173
1.5015
1.49053
1.48509
1.47751
1.46349
1.45187
1.45527
1.5386
1.7907
1.92702
1
1
1
1
1
1
1
1
1.00106
1.05116
1.3529
1.65759
1.76718
1.77398
1.76023
1.74433
1.73432
1.72389
1.70937
1.70153
1.69085
1.67735
1.66703
1.65055
1.64326
1.63545
1.62265
1.61276
1.59748
1.58937
1.58245
1.57056
1.56161
1.54781
1.54004
1.53364
1.52241
1.51374
1.50138
1.49412
1.48767
1.47891
1.46922
1.45445
1.45079
1.45879
1.58514
1.82046
1
1
1
1
1
1
1
1
1.00001
1.00125
1.05384
1.34343
1.66401
1.74463
1.75403
1.74594
1.73682
1.72117
1.70909
1.70078
1.68738
1.67679
1.66314
1.65056
1.64609
1.6348
1.62343
1.61208
1.59729
1.59204
1.5827
1.57214
1.56187
1.54839
1.54359
1.53486
1.52447
1.51452
1.50214
1.49765
1.48965
1.48056
1.47155
1.46027
1.45286
1.44727
1.46566
1.63194
1
1
1
1
1
1
1
1
1
1.00001
1.0014
1.052
1.34641
1.6474
1.71972
1.74294
1.73887
1.72178
1.7089
1.69764
1.68591
1.6755
1.65891
1.65363
1.64685
1.63379
1.62428
1.60944
1.60026
1.59468
1.58317
1.57403
1.56105
1.55102
1.54594
1.53559
1.52653
1.51397
1.50528
1.50098
1.49166
1.48302
1.47129
1.46394
1.45803
1.44541
1.44477
1.48368
1
1
1
1
1
1
1
1
1
1
1.00001
1.00143
1.0518
1.34794
1.61582
1.70873
1.73659
1.72646
1.7098
1.69566
1.68621
1.67218
1.66009
1.65665
1.64592
1.63429
1.62278
1.60803
1.6041
1.59597
1.58469
1.5757
1.56074
1.55411
1.54737
1.53681
1.52773
1.5143
1.50924
1.50383
1.49434
1.48486
1.47135
1.46657
1.46236
1.45087
1.43759
1.44062
1
1
1
1
1
1
1
1
1
1
1
1.00001
1.00146
1.05266
1.33017
1.58316
1.70846
1.725
1.71364
1.69991
1.68822
1.66914
1.66362
1.6575
1.64494
1.63441
1.61813
1.60987
1.6067
1.59655
1.5874
1.57561
1.56215
1.55739
1.54801
1.53794
1.5281
1.51653
1.51305
1.5065
1.49747
1.48588
1.47273
1.46961
1.46493
1.45629
1.43865
1.4359
1
1
1
1
1
1
1
1
1
1
1
1
1.00001
1.00137
1.04865
1.28108
1.57126
1.69938
1.71324
1.70663
1.69201
1.67121
1.66469
1.65524
1.64423
1.63254
1.61585
1.6129
1.60863
1.59864
1.58897
1.57311
1.56519
1.55932
1.54786
1.53971
1.52929
1.52042
1.51665
1.5085
1.49867
1.48572
1.47506
1.47245
1.46756
1.4602
1.4466
1.43424
1
1
1
1
1
1
1
1
1
1
1
1
1
1.00001
1.00117
1.03558
1.24494
1.57587
1.6798
1.69738
1.69194
1.67592
1.66329
1.65196
1.64328
1.63135
1.61819
1.61614
1.6106
1.60111
1.58708
1.57167
1.56736
1.55948
1.54919
1.54254
1.53091
1.52524
1.51997
1.50937
1.499
1.48601
1.47784
1.4756
1.47049
1.46317
1.45142
1.43964
1
1
1
1
1
1
1
1
1
1
1
1
1
1
1.00001
1.00082
1.02667
1.25321
1.56133
1.65266
1.68113
1.67729
1.6643
1.65284
1.64454
1.63282
1.62279
1.61917
1.61238
1.6016
1.58311
1.57183
1.56839
1.56013
1.5532
1.54486
1.53415
1.5302
1.52155
1.50943
1.49974
1.48681
1.48163
1.47969
1.47367
1.46552
1.45351
1.44348
1
1
1
1
1
1
1
1
1
1
1
1
1
1
1
1
1.00063
1.02797
1.25661
1.50676
1.62404
1.6717
1.66973
1.66224
1.65304
1.63696
1.62672
1.62159
1.61225
1.59974
1.58295
1.57374
1.57011
1.56378
1.55718
1.54488
1.53765
1.5318
1.52006
1.50998
1.50173
1.48903
1.48649
1.48374
1.47573
1.46641
1.45371
1.44513
1
1
1
1
1
1
1
1
1
1
1
1
1
1
1
1
1
1.00066
1.02722
1.20026
1.42853
1.61808
1.67648
1.67383
1.66043
1.64117
1.63041
1.6231
1.61014
1.59777
1.58515
1.57621
1.57335
1.56922
1.55949
1.54665
1.54047
1.53118
1.51934
1.51258
1.50238
1.49331
1.49221
1.48659
1.47662
1.46771
1.4544
1.44789
1
1
1
1
1
1
1
1
1
1
1
1
1
1
1
1
1
1
1.00049
1.01543
1.12859
1.40482
1.63682
1.66147
1.65694
1.64661
1.63477
1.62152
1.6066
1.59786
1.59073
1.58159
1.57807
1.57334
1.55972
1.54812
1.5398
1.52927
1.52238
1.51715
1.50409
1.50036
1.49668
1.48623
1.47676
1.46814
1.45497
1.45224
1
1
1
1
1
1
1
1
1
1
1
1
1
1
1
1
1
1
1
1.0002
1.00769
1.10698
1.42392
1.60877
1.63348
1.64049
1.63543
1.62081
1.60717
1.60227
1.59783
1.58809
1.5832
1.57574
1.56028
1.54795
1.53813
1.53078
1.52764
1.51813
1.50968
1.5068
1.49696
1.48436
1.47818
1.46862
1.45798
1.45731
1
1
1
1
1
1
1
1
1
1
1
1
1
1
1
1
1
1
1
1
1.0001
1.00631
1.10617
1.40384
1.55319
1.60605
1.63255
1.62666
1.61952
1.61452
1.6033
1.59019
1.58538
1.57534
1.55884
1.54664
1.53971
1.53819
1.53277
1.52153
1.51746
1.50842
1.49264
1.48443
1.48066
1.46907
1.4651
1.46358
1
1
1
1
1
1
1
1
1
1
1
1
1
1
1
1
1
1
1
1
1
1.00009
1.00564
1.0999
1.33206
1.48819
1.60108
1.63902
1.63605
1.62297
1.60346
1.59048
1.58593
1.57338
1.55747
1.54836
1.54731
1.54537
1.53555
1.52872
1.52098
1.50364
1.4904
1.48876
1.48372
1.47387
1.47318
1.46796
1
1
1
1
1
1
1
1
1
1
1
1
1
1
1
1
1
1
1
1
1
1
1.00007
1.00451
1.06069
1.22353
1.46576
1.62049
1.62549
1.62121
1.60774
1.59425
1.58546
1.5712
1.55837
1.55695
1.55672
1.54998
1.54132
1.53453
1.5174
1.49781
1.49502
1.49456
1.48662
1.48366
1.48062
1.46896
1
1
1
1
1
1
1
1
1
1
1
1
1
1
1
1
1
1
1
1
1
1
1
1.00004
1.00165
1.02591
1.18389
1.47246
1.60386
1.61015
1.60436
1.59712
1.58611
1.57092
1.56534
1.5662
1.56328
1.55501
1.54808
1.53372
1.50949
1.50095
1.50196
1.49891
1.49373
1.49254
1.48315
1.46769
1
1
1
1
1
1
1
1
1
1
1
1
1
1
1
1
1
1
1
1
1
1
1
1
1.00001
1.00058
1.01851
1.16895
1.46076
1.56689
1.57978
1.59161
1.58776
1.57745
1.57624
1.57447
1.56725
1.55812
1.54943
1.52638
1.50811
1.50866
1.50883
1.50493
1.50315
1.498
1.48067
1.46768
1
1
1
1
1
1
1
1
1
1
1
1
1
1
1
1
1
1
1
1
1
1
1
1
1
1
1.00042
1.0154
1.15635
1.40864
1.50831
1.56209
1.59503
1.59557
1.59207
1.58174
1.56711
1.55807
1.5461
1.52015
1.51462
1.51681
1.51628
1.51366
1.51118
1.49805
1.47749
1.46836
1
1
1
1
1
1
1
1
1
1
1
1
1
1
1
1
1
1
1
1
1
1
1
1
1
1
1
1.00033
1.01147
1.1159
1.30739
1.45615
1.57636
1.60458
1.5975
1.58137
1.56674
1.56052
1.54275
1.52223
1.52298
1.52563
1.52481
1.52203
1.51486
1.49353
1.47748
1.46932
1
1
1
1
1
1
1
1
1
1
1
1
1
1
1
1
1
1
1
1
1
1
1
1
1
1
1
1
1.00016
1.00549
1.05815
1.21097
1.45473
1.58925
1.58497
1.57828
1.56904
1.56183
1.54018
1.53011
1.53247
1.53508
1.53325
1.52719
1.51336
1.48884
1.47894
1.47319
1
1
1
1
1
1
1
1
1
1
1
1
1
1
1
1
1
1
1
1
1
1
1
1
1
1
1
1
1
1.00005
1.00174
1.02672
1.17803
1.45124
1.55491
1.55993
1.56261
1.55917
1.54284
1.54011
1.54265
1.54403
1.53856
1.528
1.5098
1.48704
1.48329
1.48196
1
1
1
1
1
1
1
1
1
1
1
1
1
1
1
1
1
1
1
1
1
1
1
1
1
1
1
1
1
1
1.00001
1.00072
1.01792
1.16042
1.41965
1.50621
1.5343
1.55384
1.55754
1.5576
1.5557
1.54771
1.5359
1.5265
1.50681
1.48956
1.4904
1.49308
1
1
1
1
1
1
1
1
1
1
1
1
1
1
1
1
1
1
1
1
1
1
1
1
1
1
1
1
1
1
1
1.00001
1.00045
1.01452
1.14113
1.33748
1.44166
1.52748
1.57019
1.56993
1.5599
1.54607
1.53541
1.52805
1.50589
1.49704
1.4994
1.50268
1
1
1
1
1
1
1
1
1
1
1
1
1
1
1
1
1
1
1
1
1
1
1
1
1
1
1
1
1
1
1
1
1
1.00032
1.00947
1.0789
1.21986
1.40845
1.55617
1.56259
1.55522
1.54558
1.53855
1.52701
1.50703
1.50594
1.5092
1.51075
1
1
1
1
1
1
1
1
1
1
1
1
1
1
1
1
1
1
1
1
1
1
1
1
1
1
1
1
1
1
1
1
1
1
1.00011
1.00287
1.03041
1.16095
1.40963
1.53575
1.53874
1.5367
1.5354
1.52478
1.51264
1.51401
1.51766
1.51698
1
1
1
1
1
1
1
1
1
1
1
1
1
1
1
1
1
1
1
1
1
1
1
1
1
1
1
1
1
1
1
1
1
1
1
1.00002
1.0008
1.01645
1.13239
1.38043
1.49047
1.51013
1.52137
1.52593
1.52546
1.5274
1.52651
1.51784
1
1
1
1
1
1
1
1
1
1
1
1
1
1
1
1
1
1
1
1
1
1
1
1
1
1
1
1
1
1
1
1
1
1
1
1
1.00001