/*--------------------------------*- C++ -*----------------------------------*\
  =========                 |
  \\      /  F ield         | OpenFOAM: The Open Source CFD Toolbox
   \\    /   O peration     | Website:  https://openfoam.org
    \\  /    A nd           | Version:  7
     \\/     M anipulation  |
\*---------------------------------------------------------------------------*/
FoamFile
{
    version     2.0;
    format      ascii;
    class       volVectorField;
    location    "3.1";
    object      U;
}
// * * * * * * * * * * * * * * * * * * * * * * * * * * * * * * * * * * * * * //

dimensions      [0 1 -1 0 0 0 0];

internalField   nonuniform List<vector> 
16512
(
(3 2.22808e-17 0)
(3 -3.20213e-17 0)
(3 7.80143e-17 0)
(3 -6.18574e-17 0)
(3 -4.49347e-17 0)
(3 -1.58852e-16 0)
(3 -7.50783e-17 0)
(3 2.21342e-17 0)
(3 2.10819e-16 0)
(3 1.17541e-16 0)
(3 -4.08003e-16 0)
(3 -1.10666e-15 0)
(3 -7.44913e-16 0)
(3 1.73946e-16 0)
(3 7.13097e-17 0)
(3 3.48994e-17 0)
(3 5.6615e-16 0)
(3 1.33178e-15 0)
(3 1.46014e-15 0)
(3 1.52278e-15 0)
(3 1.78776e-15 0)
(3 1.55531e-15 0)
(3 1.50862e-15 0)
(3 1.74654e-15 0)
(3 6.77361e-16 0)
(3 2.77145e-16 0)
(3 -3.94929e-16 0)
(3 -3.96134e-16 0)
(3 -1.70733e-16 0)
(3 3.13825e-17 0)
(3 -6.94478e-16 0)
(3 -8.48695e-16 0)
(3 -5.75467e-16 0)
(3 -3.07927e-16 0)
(3 -4.48703e-16 0)
(2.8995 0.00320335 0)
(0.987936 0.0160135 0)
(0.709721 0.019407 0)
(0.657803 0.0242557 0)
(0.597774 0.025678 0)
(0.538731 0.0268149 0)
(0.477997 0.0280871 0)
(0.415585 0.029561 0)
(0.350783 0.03136 0)
(0.283012 0.0333824 0)
(0.210655 0.036445 0)
(0.132002 0.0390987 0)
(0.0494158 0.0445437 0)
(3 1.04735e-16 0)
(3 1.89991e-16 0)
(3 1.5785e-16 0)
(3 2.25123e-17 0)
(3 5.44901e-17 0)
(3 -7.15991e-18 0)
(3 1.33312e-17 0)
(3 2.68037e-16 0)
(3 4.56602e-16 0)
(3 -2.26357e-16 0)
(3 -1.19811e-15 0)
(3 -1.8443e-15 0)
(3 -1.12193e-15 0)
(3 5.83485e-16 0)
(3 4.44047e-16 0)
(3 1.08596e-15 0)
(3 2.12856e-15 0)
(3 2.58468e-15 0)
(3 2.53608e-15 0)
(3 2.63365e-15 0)
(3 3.46726e-15 0)
(3 2.95056e-15 0)
(3 2.36711e-15 0)
(3 2.08265e-15 0)
(3 1.42504e-15 0)
(3 2.39341e-16 0)
(3 -3.05181e-16 0)
(3 -5.01145e-16 0)
(3 -3.53673e-16 0)
(3 -5.15632e-16 0)
(3 -8.06632e-16 0)
(3 -1.1391e-15 0)
(3 -4.8393e-16 0)
(3 -3.86151e-16 0)
(3 -9.63187e-16 0)
(2.90943 0.020251 0)
(0.993765 0.074197 0)
(0.695399 0.0667518 0)
(0.641189 0.0709176 0)
(0.5824 0.0754109 0)
(0.523708 0.0797203 0)
(0.462778 0.0842766 0)
(0.399845 0.0889934 0)
(0.334753 0.0945233 0)
(0.267506 0.100535 0)
(0.197475 0.110237 0)
(0.122257 0.118899 0)
(0.0459618 0.134573 0)
(3 -9.28077e-17 0)
(3 -1.52891e-16 0)
(3 -2.76167e-16 0)
(3 -1.736e-16 0)
(3 6.97796e-17 0)
(3 3.78124e-16 0)
(3 3.02902e-17 0)
(3 1.69195e-16 0)
(3 -6.69077e-17 0)
(3 6.96741e-17 0)
(3 -4.2567e-16 0)
(3 -1.46269e-15 0)
(3 -1.85325e-15 0)
(3 -1.8942e-15 0)
(3 -1.34014e-15 0)
(3 -4.8744e-16 0)
(3 1.99142e-15 0)
(3 2.66686e-15 0)
(3 2.81054e-15 0)
(3 3.0558e-15 0)
(3 2.64051e-15 0)
(3 2.41544e-15 0)
(3 2.59978e-15 0)
(3 2.201e-15 0)
(3 2.11358e-15 0)
(3 1.90258e-15 0)
(3 1.15958e-15 0)
(3 3.17608e-16 0)
(3 1.33043e-16 0)
(3 -5.35055e-16 0)
(3 -6.05569e-16 0)
(3 -2.14289e-16 0)
(3 -9.74311e-16 0)
(3 -1.05011e-15 0)
(3 -1.65576e-15 0)
(2.95351 0.0410159 0)
(1.03127 0.137847 0)
(0.710759 0.116064 0)
(0.656255 0.12258 0)
(0.59552 0.12989 0)
(0.534759 0.137301 0)
(0.471691 0.145255 0)
(0.406139 0.153186 0)
(0.337881 0.161885 0)
(0.266994 0.170073 0)
(0.194452 0.183598 0)
(0.117731 0.195185 0)
(0.0437858 0.217446 0)
(3 2.97557e-17 0)
(3 3.05354e-17 0)
(3 -3.23602e-16 0)
(3 1.08121e-16 0)
(3 9.64641e-17 0)
(3 -3.42074e-16 0)
(3 -5.73965e-16 0)
(3 -1.86957e-16 0)
(3 -2.47931e-16 0)
(3 4.3395e-16 0)
(3 4.11824e-16 0)
(3 -5.33257e-16 0)
(3 -1.51202e-15 0)
(3 -2.12651e-15 0)
(3 -1.94835e-15 0)
(3 -6.30325e-16 0)
(3 1.60137e-15 0)
(3 2.2657e-15 0)
(3 1.66087e-15 0)
(3 8.96442e-16 0)
(3 3.57734e-17 0)
(3 3.02684e-16 0)
(3 5.83125e-16 0)
(3 9.14325e-16 0)
(3 7.91917e-16 0)
(3 6.28895e-16 0)
(3 8.20166e-16 0)
(3 5.50556e-16 0)
(3 3.74068e-16 0)
(3 3.43711e-16 0)
(3 2.18271e-16 0)
(3 6.56431e-16 0)
(3 -1.507e-15 0)
(3 -2.3423e-15 0)
(3 -2.59605e-15 0)
(3.00858 0.0064857 0)
(1.10649 0.182372 0)
(0.743854 0.15281 0)
(0.692389 0.166678 0)
(0.63288 0.178472 0)
(0.571898 0.189871 0)
(0.508185 0.202601 0)
(0.440624 0.215924 0)
(0.368391 0.231008 0)
(0.290901 0.244333 0)
(0.211178 0.262884 0)
(0.126835 0.277085 0)
(0.0458544 0.302372 0)
(3 5.69276e-17 0)
(3 1.79203e-16 0)
(3 -7.13453e-18 0)
(3 1.01e-16 0)
(3 5.83245e-17 0)
(3 1.14342e-17 0)
(3 3.12957e-17 0)
(3 1.72037e-16 0)
(3 3.83453e-16 0)
(3 2.17015e-16 0)
(3 -7.76431e-17 0)
(3 -4.35121e-16 0)
(3 -1.38769e-15 0)
(3 -1.45348e-15 0)
(3 -9.71396e-16 0)
(3 -1.66639e-16 0)
(3 1.07145e-15 0)
(3 1.01765e-15 0)
(3 3.92301e-16 0)
(3 2.26176e-16 0)
(3 2.15604e-16 0)
(3 1.04777e-16 0)
(3 -4.64134e-17 0)
(3 -1.46791e-16 0)
(3 1.29571e-18 0)
(3 2.62631e-16 0)
(3 6.95744e-16 0)
(3 6.77022e-16 0)
(3 1.65368e-16 0)
(3 4.67011e-16 0)
(3 1.05369e-15 0)
(3 1.10443e-15 0)
(3 6.02025e-16 0)
(3 -1.3443e-15 0)
(3 -1.71031e-15 0)
(3.00062 3.1614e-05 0)
(1.2145 0.224428 0)
(0.750346 0.197259 0)
(0.695959 0.218027 0)
(0.639731 0.234324 0)
(0.581272 0.249143 0)
(0.520957 0.266632 0)
(0.457127 0.285562 0)
(0.389275 0.307307 0)
(0.314665 0.325451 0)
(0.235635 0.348593 0)
(0.145568 0.367754 0)
(0.0549397 0.399151 0)
(3 -6.80675e-17 0)
(3 -3.45702e-16 0)
(3 8.13745e-18 0)
(3 -1.10181e-16 0)
(3 7.14554e-17 0)
(3 9.37612e-16 0)
(3 9.76065e-16 0)
(3 3.8531e-16 0)
(3 4.13443e-16 0)
(3 7.33928e-17 0)
(3 -8.14362e-17 0)
(3 -8.13942e-16 0)
(3 -8.97345e-16 0)
(3 -7.04141e-16 0)
(3 -9.63241e-16 0)
(3 -3.89333e-16 0)
(3 3.53803e-16 0)
(3 6.59601e-16 0)
(3 6.89806e-16 0)
(3 5.20652e-16 0)
(3 5.34953e-16 0)
(3 4.55527e-16 0)
(3 -4.52482e-16 0)
(3 -7.15581e-16 0)
(3 -4.61876e-16 0)
(3 1.28072e-16 0)
(3 -1.48558e-16 0)
(3 -4.27965e-16 0)
(3 -6.54541e-16 0)
(3 -7.32015e-16 0)
(3 -7.73619e-17 0)
(3 5.65915e-16 0)
(3 3.68169e-16 0)
(3 -1.71015e-17 0)
(3 -4.83105e-16 0)
(3 -1.25986e-07 0)
(1.39354 0.274626 0)
(0.765546 0.245393 0)
(0.69728 0.262213 0)
(0.648221 0.281279 0)
(0.597977 0.29878 0)
(0.547511 0.320142 0)
(0.492182 0.344458 0)
(0.430455 0.374965 0)
(0.355214 0.405346 0)
(0.268303 0.443068 0)
(0.166148 0.478171 0)
(0.0561192 0.516883 0)
(3 -1.71625e-18 0)
(3 -8.12487e-17 0)
(3 3.86632e-16 0)
(3 -1.15999e-16 0)
(3 -1.22426e-16 0)
(3 1.59063e-16 0)
(3 4.25188e-17 0)
(3 -2.38624e-16 0)
(3 -4.79216e-16 0)
(3 -6.99317e-16 0)
(3 -4.71686e-16 0)
(3 -1.78131e-16 0)
(3 3.473e-16 0)
(3 8.34584e-16 0)
(3 4.61953e-16 0)
(3 3.79086e-17 0)
(3 9.30766e-17 0)
(3 5.08482e-16 0)
(3 1.24269e-15 0)
(3 1.37378e-15 0)
(3 1.42386e-15 0)
(3 1.12615e-15 0)
(3 -1.27352e-18 0)
(3 -5.84201e-16 0)
(3 -7.55322e-16 0)
(3 -1.3711e-15 0)
(3 -1.67853e-15 0)
(3 -1.49212e-15 0)
(3 -1.18015e-15 0)
(3 -1.23071e-15 0)
(3 -1.0885e-15 0)
(3 -6.88385e-16 0)
(3 -7.20813e-16 0)
(3 -4.78165e-16 0)
(3 -3.21601e-16 0)
(3 -1.28917e-07 0)
(1.66697 0.325888 0)
(0.795809 0.309137 0)
(0.696824 0.308865 0)
(0.646022 0.325402 0)
(0.597969 0.343567 0)
(0.554601 0.369728 0)
(0.50834 0.402205 0)
(0.459069 0.444844 0)
(0.397796 0.491949 0)
(0.326439 0.543564 0)
(0.233322 0.594439 0)
(0.101374 0.659987 0)
(3 3.57999e-17 0)
(3 3.96833e-17 0)
(3 -1.19518e-16 0)
(3 -2.01565e-16 0)
(3 -3.45971e-16 0)
(3 -2.82351e-16 0)
(3 -4.05961e-16 0)
(3 -2.45085e-16 0)
(3 -7.70418e-16 0)
(3 -8.69445e-16 0)
(3 -5.72072e-16 0)
(3 -1.48143e-16 0)
(3 -3.01022e-16 0)
(3 -1.45409e-16 0)
(3 5.61354e-16 0)
(3 5.43012e-16 0)
(3 6.99678e-16 0)
(3 5.07755e-16 0)
(3 6.10651e-16 0)
(3 1.02366e-15 0)
(3 5.80483e-16 0)
(3 5.42568e-16 0)
(3 -3.89025e-16 0)
(3 -1.42392e-15 0)
(3 -3.30644e-15 0)
(3 -3.86254e-15 0)
(3 -3.42577e-15 0)
(3 -1.99449e-15 0)
(3 -1.46828e-15 0)
(3 -1.25222e-15 0)
(3 -8.94312e-16 0)
(3 -8.7968e-16 0)
(3 -8.31159e-16 0)
(3 -7.89751e-16 0)
(3 -2.69839e-16 0)
(3 -2.70279e-08 0)
(2.06942 0.367658 0)
(0.851847 0.394235 0)
(0.716713 0.370325 0)
(0.667064 0.379225 0)
(0.620162 0.392376 0)
(0.579491 0.416617 0)
(0.540505 0.45212 0)
(0.502043 0.501089 0)
(0.457634 0.560416 0)
(0.395502 0.641399 0)
(0.275267 0.757367 0)
(0.151383 0.923963 0)
(3 8.06769e-17 0)
(3 1.84712e-16 0)
(3 2.84968e-17 0)
(3 -1.35475e-16 0)
(3 -4.56941e-16 0)
(3 -6.21842e-16 0)
(3 -6.40103e-16 0)
(3 -5.45578e-16 0)
(3 -4.28619e-16 0)
(3 -3.91995e-16 0)
(3 -5.58133e-16 0)
(3 -8.84282e-16 0)
(3 -1.69156e-15 0)
(3 -2.11189e-15 0)
(3 -1.35972e-15 0)
(3 7.85624e-17 0)
(3 3.52723e-16 0)
(3 1.13576e-16 0)
(3 -2.37085e-16 0)
(3 -6.07176e-16 0)
(3 -8.14594e-16 0)
(3 -9.06656e-16 0)
(3 -1.44401e-15 0)
(3 -2.10786e-15 0)
(3 -3.32685e-15 0)
(3 -3.23528e-15 0)
(3 -1.35615e-15 0)
(3 -5.0962e-16 0)
(3 -1.61165e-16 0)
(3 -2.49747e-16 0)
(3 -7.89077e-16 0)
(3 -8.96214e-16 0)
(3 -8.28443e-16 0)
(3 -8.61415e-16 0)
(3 -5.67775e-16 0)
(3 -2.80769e-09 0)
(2.65309 0.304116 0)
(0.983592 0.477979 0)
(0.803072 0.40651 0)
(0.751371 0.414961 0)
(0.693927 0.433348 0)
(0.642618 0.459448 0)
(0.599828 0.496604 0)
(0.563708 0.549939 0)
(0.52972 0.626758 0)
(0.496801 0.751104 0)
(0.465277 0.923389 0)
(0.575772 1.19972 0)
(3 -8.91681e-17 0)
(3 2.70273e-17 0)
(3 -2.37539e-16 0)
(3 -4.86782e-16 0)
(3 -5.56213e-16 0)
(3 -5.28946e-16 0)
(3 -1.39814e-16 0)
(3 -7.96513e-17 0)
(3 2.60803e-16 0)
(3 -2.71663e-16 0)
(3 -1.27239e-15 0)
(3 -1.69314e-15 0)
(3 -1.79994e-15 0)
(3 -2.09933e-15 0)
(3 -2.6234e-15 0)
(3 -1.9959e-15 0)
(3 -1.77059e-15 0)
(3 -1.75411e-15 0)
(3 -1.2559e-15 0)
(3 -1.5224e-15 0)
(3 -1.36189e-15 0)
(3 -1.2939e-15 0)
(3 -1.03516e-15 0)
(3 -2.02379e-15 0)
(3 -1.52895e-15 0)
(3 -1.62173e-15 0)
(3 -3.52261e-16 0)
(3 6.29623e-17 0)
(3 -1.96954e-16 0)
(3 -2.39686e-16 0)
(3 -2.41485e-16 0)
(3 -5.3033e-16 0)
(3 -5.92242e-16 0)
(3 -1.50215e-16 0)
(3 -1.43271e-16 0)
(3 -1.13129e-10 0)
(3.07693 0.0431777 0)
(1.21829 0.469647 0)
(0.88212 0.447756 0)
(0.838522 0.473901 0)
(0.785143 0.489704 0)
(0.731001 0.511188 0)
(0.682631 0.544681 0)
(0.643879 0.596951 0)
(0.624293 0.681622 0)
(0.623511 0.81669 0)
(0.686609 0.966212 0)
(0.967866 1.13864 0)
(3 -1.18479e-16 0)
(3 -4.59801e-16 0)
(3 -2.83552e-16 0)
(3 -8.87804e-17 0)
(3 -1.25121e-16 0)
(3 4.2657e-17 0)
(3 2.51758e-16 0)
(3 4.79913e-16 0)
(3 4.27833e-16 0)
(3 3.09932e-16 0)
(3 -3.44963e-16 0)
(3 -6.8567e-16 0)
(3 -1.22688e-15 0)
(3 -1.48329e-15 0)
(3 -1.84169e-15 0)
(3 -1.99952e-15 0)
(3 -2.3335e-15 0)
(3 -2.43281e-15 0)
(3 -1.1836e-15 0)
(3 -9.28264e-16 0)
(3 -1.00181e-15 0)
(3 -1.10956e-15 0)
(3 -1.11815e-15 0)
(3 -7.06431e-16 0)
(3 -5.06504e-16 0)
(3 -2.17308e-16 0)
(3 -4.85931e-16 0)
(3 -5.20955e-16 0)
(3 -7.98713e-16 0)
(3 -4.94169e-16 0)
(3 -1.13332e-16 0)
(3 -6.23492e-17 0)
(3 4.95284e-16 0)
(3 1.66881e-15 0)
(3 1.24409e-15 0)
(3 -2.3408e-12 0)
(3.00876 8.39545e-05 0)
(1.4347 0.462233 0)
(0.884314 0.512478 0)
(0.836539 0.531501 0)
(0.800843 0.550843 0)
(0.772584 0.575565 0)
(0.745046 0.60761 0)
(0.720555 0.651677 0)
(0.723218 0.72559 0)
(0.751302 0.840224 0)
(0.873309 0.963306 0)
(1.18098 1.06975 0)
(3 2.50779e-17 0)
(3 7.29061e-17 0)
(3 5.35289e-16 0)
(3 8.65945e-16 0)
(3 9.59888e-16 0)
(3 2.18607e-16 0)
(3 2.43152e-16 0)
(3 3.2363e-16 0)
(3 4.61769e-16 0)
(3 1.47231e-15 0)
(3 6.19321e-16 0)
(3 -6.64833e-16 0)
(3 -1.33925e-15 0)
(3 -1.23396e-15 0)
(3 -1.2889e-15 0)
(3 -1.68181e-15 0)
(3 -1.77356e-15 0)
(3 -1.11482e-15 0)
(3 -8.70898e-16 0)
(3 -3.33212e-16 0)
(3 -2.04617e-16 0)
(3 -2.94778e-16 0)
(3 -7.80512e-17 0)
(3 3.26545e-16 0)
(3 7.63251e-16 0)
(3 1.16357e-15 0)
(3 3.28372e-16 0)
(3 -5.89596e-16 0)
(3 -2.95355e-16 0)
(3 3.0851e-16 0)
(3 1.00095e-15 0)
(3 1.7333e-15 0)
(3 2.16991e-15 0)
(3 2.05624e-15 0)
(3 1.21238e-15 0)
(3 -1.88638e-14 0)
(3.00006 -2.55677e-06 0)
(1.9404 0.494341 0)
(0.928856 0.576842 0)
(0.853257 0.560443 0)
(0.833778 0.581971 0)
(0.819537 0.607625 0)
(0.80958 0.642249 0)
(0.801923 0.682752 0)
(0.817575 0.746088 0)
(0.867238 0.837398 0)
(1.01076 0.939752 0)
(1.27192 1.00908 0)
(3 7.76221e-18 0)
(3 -1.93818e-16 0)
(3 -4.3014e-16 0)
(3 -4.52538e-16 0)
(3 -1.66045e-16 0)
(3 -2.55046e-16 0)
(3 2.81297e-16 0)
(3 6.90766e-16 0)
(3 1.20896e-15 0)
(3 2.00477e-16 0)
(3 4.18307e-16 0)
(3 4.76071e-16 0)
(3 9.11057e-16 0)
(3 9.43055e-17 0)
(3 -8.78068e-16 0)
(3 -1.91043e-15 0)
(3 -1.91826e-15 0)
(3 -4.84101e-16 0)
(3 3.09335e-16 0)
(3 1.02242e-15 0)
(3 5.62699e-16 0)
(3 9.07734e-17 0)
(3 1.03635e-16 0)
(3 3.66634e-16 0)
(3 1.37283e-15 0)
(3 1.84812e-15 0)
(3 1.29442e-15 0)
(3 1.86341e-16 0)
(3 -2.79902e-17 0)
(3 3.70368e-16 0)
(3 8.25315e-16 0)
(3 1.99026e-15 0)
(3 2.06489e-15 0)
(3 1.00296e-15 0)
(3 9.48947e-16 0)
(3 2.10821e-15 0)
(3.00001 -3.25905e-06 0)
(2.74453 0.32057 0)
(1.09565 0.635314 0)
(0.920122 0.581357 0)
(0.890917 0.601782 0)
(0.873496 0.630704 0)
(0.870013 0.668894 0)
(0.876531 0.711092 0)
(0.901394 0.765792 0)
(0.966401 0.834577 0)
(1.10625 0.907269 0)
(1.31583 0.949206 0)
(3 1.05996e-16 0)
(3 -8.11491e-16 0)
(3 -1.64284e-15 0)
(3 -1.56176e-15 0)
(3 -6.82959e-16 0)
(3 1.87474e-16 0)
(3 1.13146e-16 0)
(3 1.46779e-16 0)
(3 -7.38873e-16 0)
(3 -1.31156e-15 0)
(3 -6.60407e-17 0)
(3 8.02797e-16 0)
(3 9.8539e-16 0)
(3 7.38337e-16 0)
(3 8.07128e-16 0)
(3 5.67319e-16 0)
(3 1.26814e-16 0)
(3 -8.08119e-16 0)
(3 -5.29083e-16 0)
(3 -3.98714e-16 0)
(3 -7.63964e-16 0)
(3 -1.02521e-15 0)
(3 -7.67258e-16 0)
(3 5.13487e-16 0)
(3 1.69546e-15 0)
(3 1.49276e-15 0)
(3 1.06872e-15 0)
(3 4.06518e-16 0)
(3 -8.14215e-17 0)
(3 -1.33171e-16 0)
(3 -6.52386e-16 0)
(3 -5.61879e-16 0)
(3 -3.08789e-16 0)
(3 -2.50444e-16 0)
(3 2.39929e-16 0)
(3 1.98548e-15 0)
(3 -6.88314e-07 0)
(3.07475 0.0263511 0)
(1.43527 0.632326 0)
(1.00174 0.652659 0)
(0.950491 0.652054 0)
(0.924793 0.666437 0)
(0.923201 0.693954 0)
(0.939657 0.730269 0)
(0.974461 0.773921 0)
(1.04796 0.828056 0)
(1.17536 0.879464 0)
(1.34762 0.905599 0)
(3 -1.34883e-16 0)
(3 6.78931e-17 0)
(3 1.74601e-16 0)
(3 -2.75935e-16 0)
(3 -1.27763e-16 0)
(3 2.94623e-16 0)
(3 -4.73888e-16 0)
(3 -9.8535e-16 0)
(3 -1.21963e-15 0)
(3 -6.301e-16 0)
(3 -4.54178e-16 0)
(3 -6.37364e-16 0)
(3 -7.63403e-16 0)
(3 -3.89997e-16 0)
(3 1.1008e-15 0)
(3 2.25551e-15 0)
(3 1.20679e-15 0)
(3 -7.19726e-16 0)
(3 -2.3103e-15 0)
(3 -2.94572e-15 0)
(3 -2.74318e-15 0)
(3 -2.00733e-15 0)
(3 -2.71896e-16 0)
(3 6.94912e-16 0)
(3 8.36956e-16 0)
(3 4.79911e-16 0)
(3 5.6803e-16 0)
(3 3.22145e-16 0)
(3 -4.90389e-16 0)
(3 -1.911e-15 0)
(3 -2.93551e-15 0)
(3 -3.10347e-15 0)
(3 -2.34459e-15 0)
(3 -2.86153e-16 0)
(3 1.46288e-15 0)
(3 1.62727e-15 0)
(3 -6.99067e-08 0)
(3.00419 7.48958e-05 0)
(1.98785 0.600659 0)
(1.06305 0.724451 0)
(1.01096 0.702117 0)
(0.994803 0.699147 0)
(0.991301 0.715259 0)
(1.00633 0.741966 0)
(1.0445 0.777873 0)
(1.11539 0.816914 0)
(1.22236 0.849668 0)
(1.36244 0.864222 0)
(3 -1.14121e-17 0)
(3 3.05086e-16 0)
(3 4.5856e-16 0)
(3 2.43607e-16 0)
(3 -4.85175e-16 0)
(3 -9.41971e-16 0)
(3 -1.10358e-15 0)
(3 -1.41519e-15 0)
(3 -8.38003e-16 0)
(3 -2.00947e-16 0)
(3 -5.49592e-16 0)
(3 -9.63631e-16 0)
(3 -3.34822e-16 0)
(3 5.61674e-16 0)
(3 7.14816e-16 0)
(3 5.6753e-16 0)
(3 1.71428e-17 0)
(3 -1.78769e-16 0)
(3 -9.26734e-16 0)
(3 -1.18856e-15 0)
(3 -1.0112e-15 0)
(3 -6.52106e-16 0)
(3 6.05988e-18 0)
(3 5.07472e-16 0)
(3 9.54738e-17 0)
(3 -2.32308e-16 0)
(3 -2.50242e-17 0)
(3 -1.69796e-16 0)
(3 -9.70942e-16 0)
(3 -2.40437e-15 0)
(3 -2.58879e-15 0)
(3 -1.47436e-15 0)
(3 -9.30457e-16 0)
(3 -9.20924e-17 0)
(3 6.52184e-16 0)
(3 1.02057e-15 0)
(3 -2.2137e-09 0)
(3.00001 -3.30834e-07 0)
(2.93151 0.222953 0)
(1.28108 0.698298 0)
(1.08245 0.719382 0)
(1.0871 0.720628 0)
(1.08164 0.740705 0)
(1.08697 0.762138 0)
(1.11501 0.788404 0)
(1.176 0.817879 0)
(1.26409 0.839282 0)
(1.37996 0.847692 0)
(3 6.69757e-17 0)
(3 2.78803e-16 0)
(3 7.98202e-17 0)
(3 3.32805e-16 0)
(3 -5.53278e-17 0)
(3 -5.12158e-16 0)
(3 -3.15994e-16 0)
(3 -7.45329e-16 0)
(3 -3.56582e-17 0)
(3 2.85513e-16 0)
(3 1.05526e-16 0)
(3 2.91607e-16 0)
(3 1.03501e-15 0)
(3 1.33493e-15 0)
(3 4.54759e-16 0)
(3 -2.66148e-16 0)
(3 -2.73615e-17 0)
(3 4.45358e-16 0)
(3 6.7652e-16 0)
(3 5.80055e-16 0)
(3 3.30733e-16 0)
(3 -2.83143e-16 0)
(3 -6.96781e-16 0)
(3 -5.58107e-16 0)
(3 1.65908e-16 0)
(3 2.31167e-17 0)
(3 8.51973e-17 0)
(3 -1.83103e-16 0)
(3 -3.44689e-16 0)
(3 -5.42507e-16 0)
(3 -2.62916e-16 0)
(3 -5.29386e-16 0)
(3 -3.46392e-16 0)
(3 -2.31576e-16 0)
(3 2.59742e-16 0)
(3 4.41877e-16 0)
(3 -4.90667e-12 0)
(3 -7.96428e-07 0)
(3.04141 0.00654273 0)
(1.57207 0.660086 0)
(1.10011 0.756593 0)
(1.11132 0.765558 0)
(1.11718 0.783376 0)
(1.1397 0.795421 0)
(1.17408 0.806325 0)
(1.22821 0.817929 0)
(1.30294 0.828426 0)
(1.39907 0.8319 0)
(3 2.19681e-18 0)
(3 1.24054e-16 0)
(3 2.25169e-16 0)
(3 2.10766e-16 0)
(3 1.04951e-16 0)
(3 -3.05069e-16 0)
(3 -9.71733e-17 0)
(3 4.04526e-16 0)
(3 1.18812e-15 0)
(3 9.66695e-16 0)
(3 1.55393e-15 0)
(3 1.27216e-15 0)
(3 6.12143e-16 0)
(3 -4.26528e-17 0)
(3 1.17767e-17 0)
(3 2.75846e-16 0)
(3 2.34599e-16 0)
(3 2.78564e-16 0)
(3 5.8959e-16 0)
(3 6.14786e-16 0)
(3 7.58053e-16 0)
(3 5.51473e-18 0)
(3 -4.92742e-16 0)
(3 -2.31262e-16 0)
(3 4.33178e-16 0)
(3 5.61044e-16 0)
(3 6.96445e-16 0)
(3 2.63246e-16 0)
(3 5.18248e-16 0)
(3 1.19349e-15 0)
(3 7.00574e-16 0)
(3 -4.68266e-16 0)
(3 6.56145e-16 0)
(3 5.65195e-16 0)
(3 9.53825e-16 0)
(3 1.21264e-15 0)
(3 -4.72957e-15 0)
(3 -1.5243e-07 0)
(3.0008 3.68416e-05 0)
(2.38844 0.511167 0)
(1.20565 0.789048 0)
(1.13544 0.792154 0)
(1.14886 0.795845 0)
(1.177 0.805647 0)
(1.21744 0.817239 0)
(1.26963 0.828042 0)
(1.3387 0.834585 0)
(1.4196 0.834443 0)
(3 6.39585e-17 0)
(3 -2.56893e-16 0)
(3 -2.68036e-16 0)
(3 -5.95375e-16 0)
(3 -2.77509e-16 0)
(3 3.61893e-16 0)
(3 4.26207e-16 0)
(3 2.33781e-16 0)
(3 2.14553e-16 0)
(3 7.78627e-16 0)
(3 1.26186e-15 0)
(3 5.91685e-16 0)
(3 4.07898e-16 0)
(3 4.71212e-16 0)
(3 8.28364e-16 0)
(3 8.03113e-16 0)
(3 2.93252e-16 0)
(3 -2.65297e-17 0)
(3 -2.34721e-16 0)
(3 1.1507e-16 0)
(3 4.42281e-16 0)
(3 6.27731e-16 0)
(3 9.01459e-16 0)
(3 4.30509e-16 0)
(3 2.91448e-16 0)
(3 3.03113e-16 0)
(3 4.06529e-16 0)
(3 7.73063e-16 0)
(3 1.18352e-15 0)
(3 1.3011e-15 0)
(3 1.04682e-15 0)
(3 4.51191e-16 0)
(3 4.4222e-16 0)
(3 4.29689e-16 0)
(3 -2.41336e-17 0)
(3 2.29662e-16 0)
(3 1.17537e-16 0)
(3 -4.79053e-09 0)
(3.00002 -5.33867e-06 0)
(3.05762 0.0725677 0)
(1.56642 0.776645 0)
(1.1848 0.786247 0)
(1.19847 0.794278 0)
(1.22166 0.806627 0)
(1.25966 0.818267 0)
(1.30873 0.827869 0)
(1.372 0.832225 0)
(1.44296 0.831007 0)
(3 -2.08534e-17 0)
(3 -3.0121e-16 0)
(3 -5.38396e-16 0)
(3 -5.61143e-16 0)
(3 6.97209e-16 0)
(3 1.33233e-15 0)
(3 1.0091e-15 0)
(3 3.00714e-16 0)
(3 -1.09236e-15 0)
(3 -9.52357e-16 0)
(3 -7.92718e-16 0)
(3 4.0781e-16 0)
(3 6.32231e-16 0)
(3 5.3813e-16 0)
(3 1.09674e-16 0)
(3 2.56889e-17 0)
(3 -1.38289e-17 0)
(3 -1.02214e-16 0)
(3 9.04984e-17 0)
(3 4.18163e-16 0)
(3 4.09626e-16 0)
(3 3.98303e-16 0)
(3 8.65057e-17 0)
(3 -7.0615e-17 0)
(3 -4.78443e-16 0)
(3 -1.99202e-16 0)
(3 8.37418e-17 0)
(3 3.46247e-16 0)
(3 8.84547e-16 0)
(3 1.43341e-15 0)
(3 2.42521e-15 0)
(3 1.9024e-15 0)
(3 -2.49561e-17 0)
(3 3.21351e-16 0)
(3 2.75978e-16 0)
(3 -1.22983e-15 0)
(3 -4.54814e-16 0)
(3 -1.72969e-11 0)
(3 -1.35542e-06 0)
(3.00817 0.00138351 0)
(2.29406 0.63129 0)
(1.2634 0.848493 0)
(1.22288 0.833667 0)
(1.2567 0.833737 0)
(1.29071 0.838937 0)
(1.33766 0.843665 0)
(1.39557 0.844852 0)
(1.45833 0.84261 0)
(3 -1.63618e-16 0)
(3 1.6536e-16 0)
(3 5.9327e-16 0)
(3 4.12064e-16 0)
(3 2.06688e-16 0)
(3 5.82112e-16 0)
(3 2.29301e-16 0)
(3 5.02643e-16 0)
(3 -1.30903e-16 0)
(3 -1.06918e-15 0)
(3 -9.55528e-16 0)
(3 -4.14769e-16 0)
(3 2.87114e-16 0)
(3 2.08763e-16 0)
(3 -6.15041e-16 0)
(3 -1.18251e-15 0)
(3 -3.04179e-16 0)
(3 8.73499e-16 0)
(3 1.01779e-15 0)
(3 4.44136e-16 0)
(3 2.9461e-16 0)
(3 5.80467e-17 0)
(3 -3.09341e-16 0)
(3 -3.93117e-16 0)
(3 -5.61979e-16 0)
(3 -7.19987e-16 0)
(3 -7.88198e-16 0)
(3 -4.81321e-16 0)
(3 6.09557e-16 0)
(3 1.92302e-15 0)
(3 2.7244e-15 0)
(3 2.2876e-15 0)
(3 2.16527e-15 0)
(3 1.94109e-15 0)
(3 9.20647e-16 0)
(3 -7.80761e-16 0)
(3 4.16266e-17 0)
(3 -6.85978e-15 0)
(3 -1.16383e-07 0)
(3.00003 9.52839e-06 0)
(3.03913 0.11779 0)
(1.6268 0.827169 0)
(1.26855 0.830874 0)
(1.30519 0.83359 0)
(1.33091 0.839702 0)
(1.37328 0.842124 0)
(1.42405 0.842187 0)
(1.47929 0.839518 0)
(3 -1.47045e-16 0)
(3 -5.71303e-17 0)
(3 8.53501e-16 0)
(3 1.18864e-15 0)
(3 -4.96223e-17 0)
(3 -3.49443e-16 0)
(3 1.81861e-16 0)
(3 4.86973e-16 0)
(3 4.68882e-16 0)
(3 -1.01511e-15 0)
(3 -1.83871e-15 0)
(3 -1.66881e-15 0)
(3 -1.08503e-15 0)
(3 -1.31371e-16 0)
(3 -3.4758e-16 0)
(3 -5.76469e-16 0)
(3 3.14383e-16 0)
(3 8.70262e-16 0)
(3 6.84273e-16 0)
(3 9.27112e-17 0)
(3 -4.12917e-16 0)
(3 -7.34695e-16 0)
(3 -6.69048e-16 0)
(3 -1.22612e-15 0)
(3 -1.24957e-15 0)
(3 -1.43332e-15 0)
(3 -2.43353e-16 0)
(3 4.86099e-16 0)
(3 1.18855e-15 0)
(3 2.04186e-15 0)
(3 2.28754e-15 0)
(3 2.34791e-15 0)
(3 2.64194e-15 0)
(3 1.53598e-15 0)
(3 6.85737e-16 0)
(3 3.217e-16 0)
(3 2.44319e-16 0)
(3 -7.51135e-16 0)
(3 -1.43216e-09 0)
(3 -1.04895e-07 0)
(3.0106 0.00344595 0)
(2.36943 0.637203 0)
(1.35566 0.885906 0)
(1.32686 0.876498 0)
(1.35899 0.869029 0)
(1.39452 0.86621 0)
(1.43905 0.861634 0)
(1.48915 0.854294 0)
(3 5.51489e-17 0)
(3 2.57452e-17 0)
(3 1.21355e-17 0)
(3 4.33918e-16 0)
(3 4.81482e-16 0)
(3 -7.0203e-16 0)
(3 -7.37495e-16 0)
(3 -5.38425e-16 0)
(3 -6.99232e-16 0)
(3 -1.16677e-15 0)
(3 -1.11916e-15 0)
(3 -8.81244e-16 0)
(3 -8.99525e-16 0)
(3 -3.16146e-16 0)
(3 6.20955e-16 0)
(3 -2.53964e-16 0)
(3 -2.83591e-16 0)
(3 -4.85785e-16 0)
(3 -8.38368e-16 0)
(3 -1.11976e-15 0)
(3 -8.7426e-16 0)
(3 -6.98901e-16 0)
(3 -6.14067e-16 0)
(3 -1.47249e-15 0)
(3 -1.99893e-15 0)
(3 -1.1396e-15 0)
(3 -1.10403e-16 0)
(3 6.61714e-16 0)
(3 1.1548e-15 0)
(3 8.43011e-16 0)
(3 6.41249e-16 0)
(3 1.18782e-15 0)
(3 1.55399e-15 0)
(3 1.72687e-15 0)
(3 7.42065e-16 0)
(3 2.1119e-17 0)
(3 1.41159e-16 0)
(3 3.27891e-17 0)
(3 -3.23584e-12 0)
(3 -2.63263e-08 0)
(3.00005 4.19969e-05 0)
(3.03165 0.105648 0)
(1.76115 0.836393 0)
(1.3631 0.881954 0)
(1.40177 0.874946 0)
(1.42893 0.86861 0)
(1.466 0.85974 0)
(1.50915 0.849909 0)
(3 1.75084e-16 0)
(3 3.64718e-16 0)
(3 -2.11119e-16 0)
(3 -6.67309e-16 0)
(3 -1.07405e-15 0)
(3 -1.03873e-15 0)
(3 -7.57642e-16 0)
(3 -2.96385e-16 0)
(3 -3.17208e-16 0)
(3 -4.73535e-16 0)
(3 -1.21498e-16 0)
(3 8.88224e-17 0)
(3 -8.59674e-17 0)
(3 5.21221e-17 0)
(3 1.25352e-15 0)
(3 1.16422e-15 0)
(3 2.35822e-16 0)
(3 -1.24235e-15 0)
(3 -1.58654e-15 0)
(3 -1.37496e-15 0)
(3 -9.37971e-16 0)
(3 -5.25128e-16 0)
(3 -6.12438e-16 0)
(3 -1.02166e-15 0)
(3 -1.01758e-15 0)
(3 -7.46578e-16 0)
(3 -7.34435e-16 0)
(3 -4.79123e-16 0)
(3 -3.67282e-16 0)
(3 -1.9372e-16 0)
(3 -3.75003e-17 0)
(3 5.95343e-16 0)
(3 5.84746e-16 0)
(3 -1.5366e-16 0)
(3 -7.33306e-16 0)
(3 -5.86903e-16 0)
(3 -4.98943e-17 0)
(3 1.35377e-16 0)
(3 -2.24088e-15 0)
(3 -2.50262e-09 0)
(3 2.40984e-08 0)
(3.00614 0.00434722 0)
(2.6169 0.53041 0)
(1.50539 0.934353 0)
(1.42292 0.902622 0)
(1.45498 0.892207 0)
(1.48561 0.882157 0)
(1.52315 0.869722 0)
(3 1.02816e-17 0)
(3 3.54375e-16 0)
(3 4.61358e-16 0)
(3 -4.62227e-17 0)
(3 -9.6296e-16 0)
(3 -5.57789e-16 0)
(3 -1.48542e-16 0)
(3 -1.59303e-16 0)
(3 -7.55269e-17 0)
(3 4.82371e-17 0)
(3 7.0473e-17 0)
(3 -1.65216e-16 0)
(3 -3.95814e-16 0)
(3 -2.01006e-16 0)
(3 2.30361e-16 0)
(3 3.2768e-16 0)
(3 -3.39528e-16 0)
(3 -4.19263e-16 0)
(3 -1.80182e-16 0)
(3 -1.49215e-16 0)
(3 -5.7698e-16 0)
(3 -1.23323e-15 0)
(3 -1.89087e-15 0)
(3 -1.46304e-15 0)
(3 -7.93623e-16 0)
(3 -1.11955e-15 0)
(3 -8.90087e-16 0)
(3 -7.73055e-16 0)
(3 -7.48454e-16 0)
(3 -5.53419e-16 0)
(3 -7.1489e-16 0)
(3 -9.50697e-16 0)
(3 -9.56128e-16 0)
(3 -1.68086e-15 0)
(3 -1.295e-15 0)
(3 -4.82906e-16 0)
(3 -3.14216e-16 0)
(3 -4.45748e-16 0)
(3 -5.67404e-16 0)
(3 -1.01354e-10 0)
(3 -9.94226e-11 0)
(3.00002 4.6553e-05 0)
(3.03542 0.0534626 0)
(2.02051 0.797469 0)
(1.47669 0.914603 0)
(1.49595 0.903976 0)
(1.52062 0.891563 0)
(1.55257 0.877707 0)
(3 -9.49914e-18 0)
(3 1.60934e-16 0)
(3 1.33135e-16 0)
(3 1.01924e-16 0)
(3 6.38752e-16 0)
(3 9.36873e-16 0)
(3 1.05205e-15 0)
(3 5.26216e-16 0)
(3 3.46211e-16 0)
(3 3.73345e-16 0)
(3 -8.0527e-17 0)
(3 -1.61611e-17 0)
(3 2.34356e-17 0)
(3 -4.63063e-16 0)
(3 -5.5079e-16 0)
(3 -7.62782e-16 0)
(3 -5.50489e-16 0)
(3 2.54964e-16 0)
(3 5.09759e-16 0)
(3 1.42333e-16 0)
(3 -6.71129e-16 0)
(3 -1.68998e-15 0)
(3 -1.65952e-15 0)
(3 -1.11986e-15 0)
(3 -1.01149e-15 0)
(3 -8.02155e-16 0)
(3 -8.25242e-16 0)
(3 -1.9962e-16 0)
(3 9.44648e-18 0)
(3 -4.92205e-17 0)
(3 -6.12055e-16 0)
(3 -1.54366e-15 0)
(3 -1.84477e-15 0)
(3 -1.64527e-15 0)
(3 -7.92513e-16 0)
(3 -6.74269e-16 0)
(3 -5.96302e-16 0)
(3 -6.58022e-16 0)
(3 4.36298e-17 0)
(3 -9.05761e-13 0)
(3 -3.15018e-11 0)
(3 3.61539e-08 0)
(3.00166 0.00235306 0)
(2.83821 0.31399 0)
(1.7402 0.903517 0)
(1.51237 0.928301 0)
(1.54858 0.916692 0)
(1.57946 0.902163 0)
(3 -5.02836e-17 0)
(3 -4.6829e-16 0)
(3 -6.34243e-16 0)
(3 -7.25453e-17 0)
(3 1.51002e-15 0)
(3 2.09478e-15 0)
(3 1.67446e-15 0)
(3 1.20917e-15 0)
(3 8.06996e-16 0)
(3 3.35445e-16 0)
(3 1.3362e-16 0)
(3 3.95786e-16 0)
(3 3.43962e-16 0)
(3 -9.93556e-17 0)
(3 -9.31371e-16 0)
(3 -4.44938e-16 0)
(3 2.9414e-16 0)
(3 4.27177e-16 0)
(3 2.70337e-16 0)
(3 -9.28099e-16 0)
(3 -8.93015e-16 0)
(3 -7.10304e-16 0)
(3 -3.09447e-17 0)
(3 5.78001e-16 0)
(3 8.5472e-16 0)
(3 3.21058e-16 0)
(3 -2.65689e-16 0)
(3 -3.32547e-16 0)
(3 -1.99874e-16 0)
(3 -1.02419e-15 0)
(3 -1.29397e-15 0)
(3 -1.91635e-15 0)
(3 -2.46364e-15 0)
(3 -2.02858e-15 0)
(3 -1.5651e-15 0)
(3 -1.26742e-15 0)
(3 -9.68868e-16 0)
(3 -8.46587e-16 0)
(3 -3.41864e-16 0)
(3 -1.71748e-15 0)
(3 -4.14693e-12 0)
(3 3.46638e-12 0)
(3 1.24064e-05 0)
(3.00976 0.021323 0)
(2.4162 0.644947 0)
(1.60677 0.950789 0)
(1.565 0.941552 0)
(1.59636 0.924637 0)
(3 2.07589e-16 0)
(3 -1.27785e-16 0)
(3 1.59132e-16 0)
(3 3.24596e-16 0)
(3 2.26727e-16 0)
(3 3.00893e-16 0)
(3 -8.80258e-17 0)
(3 -1.49825e-16 0)
(3 5.97434e-17 0)
(3 6.90054e-18 0)
(3 -4.49775e-16 0)
(3 -1.14426e-15 0)
(3 -1.16591e-15 0)
(3 -8.59309e-16 0)
(3 -6.85162e-16 0)
(3 -3.99974e-17 0)
(3 4.75196e-16 0)
(3 3.63566e-16 0)
(3 1.07185e-16 0)
(3 -3.35801e-16 0)
(3 -6.48663e-16 0)
(3 -4.57067e-16 0)
(3 -1.52653e-16 0)
(3 7.58859e-16 0)
(3 8.83669e-16 0)
(3 5.26603e-16 0)
(3 -2.2905e-16 0)
(3 -1.16288e-15 0)
(3 -1.31975e-15 0)
(3 -1.57306e-15 0)
(3 -2.03939e-15 0)
(3 -2.49828e-15 0)
(3 -2.3309e-15 0)
(3 -2.09014e-15 0)
(3 -1.57254e-15 0)
(3 -1.21324e-15 0)
(3 -9.93869e-16 0)
(3 -8.91237e-16 0)
(3 -9.69112e-16 0)
(3 -8.8964e-16 0)
(3 -2.62565e-13 0)
(3 -2.62815e-13 0)
(3 6.78976e-09 0)
(3.00007 0.000624271 0)
(2.98743 0.11397 0)
(2.04328 0.811548 0)
(1.62251 0.943189 0)
(1.62154 0.938042 0)
(3 4.16273e-17 0)
(3 2.24163e-16 0)
(3 3.96055e-16 0)
(3 1.04469e-16 0)
(3 -4.33235e-16 0)
(3 -1.12608e-15 0)
(3 -1.20603e-15 0)
(3 -1.00635e-15 0)
(3 -8.35995e-16 0)
(3 -5.50973e-16 0)
(3 -2.75725e-16 0)
(3 -8.40301e-16 0)
(3 -1.00214e-15 0)
(3 -5.38082e-16 0)
(3 9.49425e-17 0)
(3 3.57729e-16 0)
(3 5.08484e-16 0)
(3 1.8076e-16 0)
(3 2.52517e-16 0)
(3 1.22615e-16 0)
(3 2.08466e-16 0)
(3 4.68291e-16 0)
(3 1.28721e-15 0)
(3 1.27148e-15 0)
(3 1.13693e-15 0)
(3 1.0419e-15 0)
(3 7.57752e-17 0)
(3 -2.33119e-16 0)
(3 -7.90066e-16 0)
(3 -7.52699e-16 0)
(3 -1.25747e-15 0)
(3 -1.54395e-15 0)
(3 -1.22212e-15 0)
(3 -1.23001e-15 0)
(3 -5.37484e-16 0)
(3 -3.38786e-16 0)
(3 -5.28016e-16 0)
(3 -5.70187e-16 0)
(3 -1.65827e-16 0)
(3 -3.00301e-16 0)
(3 -3.73522e-15 0)
(3 -8.75847e-14 0)
(3 1.98019e-12 0)
(3 1.45163e-06 0)
(3.00142 0.00629456 0)
(2.78464 0.338713 0)
(1.86545 0.894255 0)
(1.6501 0.95586 0)
(3 -1.07507e-16 0)
(3 -1.57364e-16 0)
(3 -6.43748e-16 0)
(3 -5.82846e-16 0)
(3 -5.58938e-16 0)
(3 -7.67523e-16 0)
(3 -5.65249e-16 0)
(3 -8.75416e-16 0)
(3 -1.01502e-15 0)
(3 -5.94296e-16 0)
(3 6.17058e-16 0)
(3 1.13884e-15 0)
(3 1.11183e-15 0)
(3 6.6507e-16 0)
(3 2.49353e-16 0)
(3 -3.47061e-16 0)
(3 -6.40703e-17 0)
(3 5.97258e-16 0)
(3 1.113e-15 0)
(3 1.06136e-15 0)
(3 9.59911e-16 0)
(3 2.00929e-15 0)
(3 2.06195e-15 0)
(3 1.79258e-15 0)
(3 1.49628e-15 0)
(3 1.48951e-15 0)
(3 1.17531e-15 0)
(3 5.67438e-16 0)
(3 3.2282e-16 0)
(3 -3.9504e-16 0)
(3 -1.17898e-16 0)
(3 -2.43115e-16 0)
(3 1.32263e-16 0)
(3 -1.33708e-16 0)
(3 -9.71021e-16 0)
(3 -1.049e-15 0)
(3 -6.96156e-16 0)
(3 -1.08751e-15 0)
(3 -8.74928e-16 0)
(3 -2.1956e-17 0)
(3 -7.58811e-16 0)
(3 -1.38291e-14 0)
(3 -1.39081e-14 0)
(3 8.47152e-10 0)
(2.99999 5.94682e-05 0)
(3.00043 0.0275359 0)
(2.49265 0.568108 0)
(1.79231 0.944984 0)
(3 1.55111e-16 0)
(3 -3.70335e-16 0)
(3 -9.72909e-16 0)
(3 -1.10126e-15 0)
(3 -1.40937e-16 0)
(3 1.88516e-16 0)
(3 3.91321e-17 0)
(3 1.71159e-16 0)
(3 2.89154e-16 0)
(3 8.96139e-16 0)
(3 2.12316e-15 0)
(3 2.31215e-15 0)
(3 1.89125e-15 0)
(3 4.97755e-16 0)
(3 9.15577e-17 0)
(3 2.03989e-16 0)
(3 2.22448e-16 0)
(3 4.30254e-16 0)
(3 1.07379e-15 0)
(3 1.58384e-15 0)
(3 1.85115e-15 0)
(3 2.22776e-15 0)
(3 2.24891e-15 0)
(3 1.82189e-15 0)
(3 1.74095e-15 0)
(3 1.41351e-15 0)
(3 5.48951e-16 0)
(3 -2.15008e-16 0)
(3 -5.81037e-16 0)
(3 -1.89761e-15 0)
(3 -1.76207e-15 0)
(3 -1.72442e-16 0)
(3 5.18447e-16 0)
(3 -1.71876e-17 0)
(3 -1.28788e-15 0)
(3 -1.49555e-15 0)
(3 -1.16121e-15 0)
(3 -1.69448e-15 0)
(3 -2.50181e-15 0)
(3 -1.73153e-15 0)
(3 -1.1851e-15 0)
(3 -9.90011e-16 0)
(3 -4.9065e-15 0)
(3 1.82548e-13 0)
(3 6.26029e-08 0)
(2.99994 0.000812311 0)
(2.96963 0.086684 0)
(2.27542 0.729135 0)
(3 -1.95969e-17 0)
(3 -2.08968e-16 0)
(3 -7.08505e-17 0)
(3 -1.81732e-16 0)
(3 5.23622e-16 0)
(3 1.11398e-15 0)
(3 4.39378e-16 0)
(3 6.03057e-16 0)
(3 9.9894e-16 0)
(3 1.71924e-15 0)
(3 1.77887e-15 0)
(3 1.79622e-15 0)
(3 1.86017e-15 0)
(3 8.37224e-16 0)
(3 2.51383e-16 0)
(3 9.12862e-16 0)
(3 5.67869e-16 0)
(3 7.56539e-17 0)
(3 3.27363e-16 0)
(3 1.50974e-15 0)
(3 1.66149e-15 0)
(3 1.29436e-15 0)
(3 9.61197e-16 0)
(3 4.72782e-16 0)
(3 4.03275e-16 0)
(3 3.35757e-16 0)
(3 -3.98078e-16 0)
(3 -1.66485e-15 0)
(3 -2.06186e-15 0)
(3 -2.30782e-15 0)
(3 -1.97366e-15 0)
(3 -1.31214e-15 0)
(3 -1.38235e-15 0)
(3 -1.30318e-15 0)
(3 -9.50327e-16 0)
(3 -8.15443e-16 0)
(3 -1.08561e-15 0)
(3 -1.67735e-15 0)
(3 -1.92019e-15 0)
(3 -2.46638e-15 0)
(3 -1.41138e-15 0)
(3 -1.9227e-16 0)
(3 -1.25866e-15 0)
(3 -1.97966e-15 0)
(3 3.45159e-11 0)
(3 2.08488e-06 0)
(2.99958 0.00439944 0)
(2.8872 0.21224 0)
(3 -2.32901e-17 0)
(3 1.55987e-17 0)