/*--------------------------------*- C++ -*----------------------------------*\
  =========                 |
  \\      /  F ield         | OpenFOAM: The Open Source CFD Toolbox
   \\    /   O peration     | Website:  https://openfoam.org
    \\  /    A nd           | Version:  7
     \\/     M anipulation  |
\*---------------------------------------------------------------------------*/
FoamFile
{
    version     2.0;
    format      ascii;
    class       volScalarField;
    location    "0.2";
    object      T;
}
// * * * * * * * * * * * * * * * * * * * * * * * * * * * * * * * * * * * * * //

dimensions      [0 0 0 1 0 0 0];

internalField   nonuniform List<scalar> 
4128
(
1.49384
1.47743
1.45379
1.44143
1.4371
1.42809
1.40958
1.38563
1.36561
1.34949
1.33521
1.32529
1.31902
1.31318
1.30119
1.28804
1.27427
1.25559
1.23586
1.22371
1.21529
1.2064
1.19831
1.19285
1.1849
1.17468
1.16173
1.14721
1.13485
1.12776
1.12233
1.11844
1.11614
1.11196
1.10469
1.09561
1.08541
1.07831
1.07595
1.07519
1.07342
1.06969
1.0662
1.06271
1.05814
1.05449
1.05271
1.05176
1.05057
1.04882
1.04694
1.04474
1.04179
1.03943
1.03839
1.03769
1.0363
1.03363
1.03206
1.0322
1.03205
1.03191
1.032
1.03241
1.03331
1.03498
1.03787
1.04259
1.0499
1.06062
1.07402
1.08443
1.08729
1.08559
1.07833
1.061
1.03033
1.00558
1.00019
1
1
1
1
1
1
1
1
1
1
1
1
1
1
1
1
1
1
1
1
1
1
1
1
1
1
1
1
1
1
1
1
1
1
1
1
1
1
1
1
1
1
1
1
1
1
1
1
1
1
1.49548
1.48023
1.45728
1.44453
1.43885
1.42825
1.40876
1.38202
1.36535
1.35624
1.34297
1.33274
1.3256
1.31953
1.30667
1.29107
1.27488
1.25406
1.23909
1.23183
1.22583
1.21755
1.20881
1.20199
1.19435
1.1836
1.16758
1.15298
1.14646
1.14083
1.13531
1.13161
1.12885
1.1239
1.11588
1.10564
1.09586
1.09077
1.08899
1.08821
1.08619
1.08218
1.07797
1.07324
1.06865
1.06647
1.06548
1.06461
1.0627
1.06032
1.0579
1.05449
1.05092
1.04929
1.04872
1.04788
1.04609
1.04441
1.04435
1.04438
1.04434
1.04442
1.04479
1.04565
1.04737
1.05064
1.05653
1.06594
1.07845
1.08986
1.09457
1.09418
1.08913
1.07724
1.05214
1.01911
1.00213
1.00004
1
1
1
1
1
1
1
1
1
1
1
1
1
1
1
1
1
1
1
1
1
1
1
1
1
1
1
1
1
1
1
1
1
1
1
1
1
1
1
1
1
1
1
1
1
1
1
1
1
1
1
1.49635
1.48226
1.46151
1.44898
1.43988
1.4279
1.40917
1.38335
1.37022
1.36492
1.35359
1.34058
1.33224
1.32543
1.31299
1.29458
1.2756
1.25755
1.2472
1.24028
1.2348
1.23006
1.22101
1.21282
1.20436
1.19121
1.17317
1.1625
1.15886
1.15472
1.14913
1.14515
1.14163
1.13555
1.12613
1.11519
1.10787
1.10434
1.10239
1.10104
1.09841
1.09409
1.08887
1.08326
1.08008
1.07893
1.07808
1.0764
1.07391
1.07143
1.06834
1.06393
1.0605
1.05923
1.05839
1.05713
1.0558
1.05566
1.05566
1.05562
1.05575
1.05632
1.05763
1.06023
1.06506
1.07316
1.08456
1.096
1.10188
1.10217
1.09862
1.08973
1.07045
1.03751
1.00879
1.00052
1
1
1
1
1
1
1
1
1
1
1
1
1
1
1
1
1
1
1
1
1
1
1
1
1
1
1
1
1
1
1
1
1
1
1
1
1
1
1
1
1
1
1
1
1
1
1
1
1
1
1
1
1
1.49635
1.48339
1.46411
1.45298
1.44254
1.42762
1.41058
1.39123
1.3779
1.37252
1.36437
1.34951
1.33923
1.3311
1.31803
1.29739
1.27862
1.26912
1.25954
1.25029
1.2442
1.24113
1.23412
1.22382
1.21343
1.19787
1.18196
1.17483
1.17141
1.16891
1.16294
1.15815
1.15406
1.14717
1.13546
1.12489
1.1205
1.11878
1.11651
1.11332
1.10986
1.10522
1.09891
1.09365
1.09193
1.09135
1.08992
1.08732
1.08474
1.08198
1.07801
1.07327
1.07049
1.06926
1.06822
1.06747
1.06743
1.06763
1.06805
1.06884
1.0702
1.07257
1.07662
1.08329
1.09285
1.10301
1.10886
1.10933
1.1066
1.09972
1.08478
1.05544
1.02034
1.00262
1.00007
1
1
1
1
1
1
1
1
1
1
1
1
1
1
1
1
1
1
1
1
1
1
1
1
1
1
1
1
1
1
1
1
1
1
1
1
1
1
1
1
1
1
1
1
1
1
1
1
1
1
1
1
1
1
1.50022
1.48615
1.4682
1.45531
1.44516
1.43043
1.41246
1.40061
1.38889
1.37954
1.37213
1.3588
1.34582
1.33629
1.3221
1.30112
1.28668
1.28206
1.27511
1.2624
1.25492
1.2517
1.24531
1.23329
1.21922
1.20629
1.19534
1.1886
1.18426
1.18196
1.17676
1.17056
1.16549
1.15749
1.1444
1.1362
1.13319
1.13227
1.13011
1.12578
1.1212
1.11548
1.10831
1.1046
1.10348
1.10279
1.10084
1.09814
1.09539
1.09203
1.0874
1.08308
1.08093
1.07991
1.07945
1.07945
1.07993
1.08119
1.08327
1.08625
1.09049
1.09643
1.10407
1.11163
1.1157
1.11576
1.11312
1.10751
1.09551
1.07021
1.03383
1.00722
1.00045
1.00001
1
1
1
1
1
1
1
1
1
1
1
1
1
1
1
1
1
1
1
1
1
1
1
1
1
1
1
1
1
1
1
1
1
1
1
1
1
1
1
1
1
1
1
1
1
1
1
1
1
1
1
1
1
1
1
1.51658
1.49878
1.47993
1.46359
1.45072
1.43682
1.4196
1.40856
1.39955
1.38778
1.37754
1.36612
1.35179
1.3404
1.32709
1.30808
1.29714
1.29294
1.28885
1.27719
1.26605
1.26129
1.2537
1.23934
1.22374
1.21683
1.21135
1.20316
1.19713
1.19377
1.18942
1.18243
1.1749
1.16595
1.15442
1.14869
1.14623
1.14457
1.14209
1.13792
1.1323
1.12469
1.11801
1.11586
1.11486
1.11347
1.11151
1.10905
1.10597
1.10188
1.0973
1.09449
1.09344
1.09312
1.09328
1.09446
1.09713
1.10109
1.10607
1.11182
1.1176
1.12184
1.12305
1.1219
1.11842
1.11334
1.10281
1.0805
1.04565
1.01362
1.00145
1.00004
1
1
1
1
1
1
1
1
1
1
1
1
1
1
1
1
1
1
1
1
1
1
1
1
1
1
1
1
1
1
1
1
1
1
1
1
1
1
1
1
1
1
1
1
1
1
1
1
1
1
1
1
1
1
1
1
1
1.53469
1.52027
1.50293
1.4849
1.46845
1.45255
1.43603
1.42218
1.41105
1.39811
1.38442
1.37257
1.35918
1.34557
1.33287
1.3191
1.30833
1.302
1.29829
1.29143
1.27858
1.26848
1.25923
1.244
1.23183
1.22745
1.22437
1.21729
1.20996
1.20496
1.20007
1.19286
1.18232
1.17319
1.16645
1.16184
1.15885
1.15631
1.15333
1.14902
1.14227
1.13405
1.12932
1.12764
1.12652
1.12491
1.12295
1.12062
1.11746
1.1135
1.11072
1.11001
1.10999
1.11076
1.11323
1.11749
1.12279
1.12792
1.13146
1.13251
1.13137
1.12791
1.12366
1.11795
1.10682
1.08555
1.05287
1.01944
1.00302
1.00015
1
1
1
1
1
1
1
1
1
1
1
1
1
1
1
1
1
1
1
1
1
1
1
1
1
1
1
1
1
1
1
1
1
1
1
1
1
1
1
1
1
1
1
1
1
1
1
1
1
1
1
1
1
1
1
1
1
1
1
1.53048
1.52179
1.51183
1.50152
1.48981
1.47618
1.46075
1.44473
1.42976
1.41464
1.39904
1.3845
1.37062
1.35673
1.34341
1.33161
1.32248
1.31417
1.30704
1.30105
1.29078
1.27574
1.26369
1.25244
1.24318
1.23815
1.23513
1.22989
1.2225
1.21628
1.21013
1.20167
1.18972
1.18217
1.17893
1.17551
1.1718
1.16847
1.165
1.15988
1.15212
1.14591
1.14329
1.14143
1.14005
1.13907
1.13761
1.13574
1.13329
1.13153
1.1314
1.13184
1.13337
1.13627
1.13991
1.14269
1.14337
1.1421
1.13886
1.13458
1.12948
1.12143
1.10779
1.08537
1.05387
1.02194
1.00434
1.00032
1.00001
1
1
1
1
1
1
1
1
1
1
1
1
1
1
1
1
1
1
1
1
1
1
1
1
1
1
1
1
1
1
1
1
1
1
1
1
1
1
1
1
1
1
1
1
1
1
1
1
1
1
1
1
1
1
1
1
1
1
1
1
1.50571
1.50513
1.50137
1.49611
1.4889
1.47978
1.46889
1.45775
1.44634
1.43432
1.42051
1.40617
1.39118
1.37692
1.36468
1.35226
1.34182
1.33265
1.32199
1.31219
1.30228
1.28724
1.27263
1.26595
1.25978
1.25292
1.24758
1.24247
1.23576
1.22887
1.2217
1.21175
1.20075
1.19598
1.19328
1.19037
1.18716
1.18362
1.17933
1.17314
1.16657
1.16357
1.16177
1.16028
1.15966
1.1592
1.15879
1.1582
1.15742
1.15652
1.15532
1.15452
1.15422
1.1533
1.15162
1.14899
1.1455
1.1411
1.13414
1.12287
1.10507
1.07965
1.04837
1.0199
1.00444
1.00043
1.00001
1
1
1
1
1
1
1
1
1
1
1
1
1
1
1
1
1
1
1
1
1
1
1
1
1
1
1
1
1
1
1
1
1
1
1
1
1
1
1
1
1
1
1
1
1
1
1
1
1
1
1
1
1
1
1
1
1
1
1
1
1
1
1.40219
1.43724
1.45663
1.46655
1.47012
1.46728
1.46111
1.45238
1.44407
1.43536
1.4258
1.41585
1.40619
1.39594
1.38613
1.37605
1.36536
1.35569
1.3445
1.33079
1.31916
1.30733
1.29474
1.28788
1.28279
1.27557
1.26702
1.2599
1.25343
1.24651
1.23849
1.22841
1.22061
1.21703
1.21403
1.21103
1.20811
1.20478
1.20017
1.19377
1.1898
1.18807
1.1867
1.18549
1.18417
1.18249
1.18045
1.17756
1.17331
1.16817
1.16335
1.15967
1.1567
1.15381
1.15007
1.14423
1.13471
1.11919
1.0965
1.06753
1.03731
1.01427
1.00322
1.00036
1.00002
1
1
1
1
1
1
1
1
1
1
1
1
1
1
1
1
1
1
1
1
1
1
1
1
1
1
1
1
1
1
1
1
1
1
1
1
1
1
1
1
1
1
1
1
1
1
1
1
1
1
1
1
1
1
1
1
1
1
1
1
1
1
1
1
1.15654
1.23217
1.29757
1.34808
1.38439
1.40652
1.41815
1.42311
1.42409
1.42203
1.41723
1.41077
1.40297
1.39498
1.38702
1.37911
1.37105
1.36323
1.35469
1.3439
1.33394
1.32711
1.3195
1.31131
1.30491
1.2982
1.28959
1.2812
1.27443
1.26781
1.26019
1.25209
1.24609
1.24188
1.23797
1.23397
1.22993
1.22558
1.22035
1.21416
1.20878
1.20481
1.20148
1.19811
1.19431
1.18994
1.18494
1.17931
1.17329
1.1669
1.1608
1.15505
1.14852
1.13939
1.12568
1.10567
1.07904
1.04922
1.02343
1.00774
1.0016
1.00018
1.00001
1
1
1
1
1
1
1
1
1
1
1
1
1
1
1
1
1
1
1
1
1
1
1
1
1
1
1
1
1
1
1
1
1
1
1
1
1
1
1
1
1
1
1
1
1
1
1
1
1
1
1
1
1
1
1
1
1
1
1
1
1
1
1
1
1
1
1.00848
1.025
1.05727
1.1057
1.16324
1.21966
1.26839
1.30752
1.33689
1.3573
1.36933
1.37572
1.37793
1.37657
1.37388
1.36959
1.36442
1.3582
1.35121
1.34195
1.33325
1.32758
1.32182
1.3147
1.30805
1.30175
1.29451
1.28697
1.28037
1.2741
1.26742
1.26061
1.25456
1.2495
1.2448
1.23993
1.23477
1.22923
1.2231
1.21641
1.21028
1.20554
1.20156
1.19737
1.1925
1.18655
1.1791
1.16985
1.15892
1.14707
1.1343
1.11939
1.10083
1.07789
1.05205
1.02787
1.01101
1.003
1.00053
1.00005
1
1
1
1
1
1
1
1
1
1
1
1
1
1
1
1
1
1
1
1
1
1
1
1
1
1
1
1
1
1
1
1
1
1
1
1
1
1
1
1
1
1
1
1
1
1
1
1
1
1
1
1
1
1
1
1
1
1
1
1
1
1
1
1
1
1
1
1
1
1.00004
1.00022
1.00103
1.00369
1.0106
1.0253
1.05088
1.08721
1.13024
1.17404
1.21359
1.24643
1.27271
1.29258
1.30683
1.31608
1.32146
1.32354
1.32276
1.32052
1.31709
1.31401
1.31067
1.30614
1.30048
1.29476
1.28853
1.28183
1.27557
1.26958
1.26331
1.25688
1.25097
1.24578
1.24079
1.23552
1.22965
1.22292
1.21533
1.20739
1.19993
1.19302
1.18582
1.17738
1.16673
1.15317
1.13658
1.11779
1.09825
1.0788
1.05932
1.04014
1.02299
1.01037
1.00342
1.00077
1.00011
1.00001
1
1
1
1
1
1
1
1
1
1
1
1
1
1
1
1
1
1
1
1
1
1
1
1
1
1
1
1
1
1
1
1
1
1
1
1
1
1
1
1
1
1
1
1
1
1
1
1
1
1
1
1
1
1
1
1
1
1
1
1
1
1
1
1
1
1
1
1
1
1
1
1
1
1
1.00001
1.00005
1.00025
1.00094
1.00287
1.00734
1.01603
1.03044
1.05089
1.07642
1.1048
1.13326
1.15949
1.18195
1.20062
1.2159
1.22847
1.238
1.24497
1.2493
1.25146
1.25048
1.24883
1.24664
1.24316
1.23888
1.2344
1.22939
1.2239
1.21822
1.21231
1.20582
1.19827
1.18926
1.17873
1.16727
1.15569
1.14403
1.13153
1.11736
1.10097
1.08253
1.06327
1.04524
1.03026
1.0189
1.01072
1.00522
1.00202
1.00057
1.00011
1.00001
1
1
1
1
1
1
1
1
1
1
1
1
1
1
1
1
1
1
1
1
1
1
1
1
1
1
1
1
1
1
1
1
1
1
1
1
1
1
1
1
1
1
1
1
1
1
1
1
1
1
1
1
1
1
1
1
1
1
1
1
1
1
1
1
1
1
1
1
1
1
1
1
1
1
1
1
1
1
1
1
1
1.00001
1.00003
1.00013
1.0004
1.00109
1.00257
1.00534
1.00991
1.01657
1.02539
1.03628
1.04907
1.06318
1.07707
1.08965
1.10043
1.10895
1.11501
1.11971
1.12365
1.12553
1.12538
1.12444
1.1224
1.11916
1.1146
1.10861
1.10113
1.09218
1.08205
1.07145
1.0612
1.05152
1.04204
1.03255
1.02338
1.01529
1.00901
1.00479
1.00234
1.00106
1.00043
1.00015
1.00004
1.00001
1
1
1
1
1
1
1
1
1
1
1
1
1
1
1
1
1
1
1
1
1
1
1
1
1
1
1
1
1
1
1
1
1
1
1
1
1
1
1
1
1
1
1
1
1
1
1
1
1
1
1
1
1
1
1
1
1
1
1
1
1
1
1
1
1
1
1
1
1
1
1
1
1
1
1
1
1
1
1
1
1
1
1
1
1
1
1
1
1
1.00001
1.00002
1.00006
1.00015
1.00034
1.00069
1.00129
1.00224
1.00352
1.00508
1.00683
1.00862
1.01038
1.0121
1.01376
1.01504
1.01587
1.01616
1.01606
1.01559
1.01458
1.01301
1.01105
1.00896
1.00698
1.00529
1.00392
1.00278
1.00183
1.00107
1.00054
1.00024
1.00009
1.00003
1.00001
1
1
1
1
1
1
1
1
1
1
1
1
1
1
1
1
1
1
1
1
1
1
1
1
1
1
1
1
1
1
1
1
1
1
1
1
1
1
1
1
1
1
1
1
1
1
1
1
1
1
1
1
1
1
1
1
1
1
1
1
1
1
1
1
1
1
1
1
1
1
1
1
1
1
1
1
1
1
1
1
1
1
1
1
1
1
1
1
1
1
1
1
1
1
1
1
1
1
1
1
1
1.00001
1.00001
1.00002
1.00004
1.00006
1.00009
1.00012
1.00015
1.00018
1.0002
1.00022
1.00022
1.00021
1.00019
1.00016
1.00012
1.00008
1.00005
1.00004
1.00002
1.00001
1.00001
1
1
1
1
1
1
1
1
1
1
1
1
1
1
1
1
1
1
1
1
1
1
1
1
1
1
1
1
1
1
1
1
1
1
1
1
1
1
1
1
1
1
1
1
1
1
1
1
1
1
1
1
1
1
1
1
1
1
1
1
1
1
1
1
1
1
1
1
1
1
1
1
1
1
1
1
1
1
1
1
1
1
1
1
1
1
1
1
1
1
1
1
1
1
1
1
1
1
1
1
1
1
1
1
1
1
1
1
1
1
1
1
1
1
1
1
1
1
1
1
1
1
1
1
1
1
1
1
1
1
1
1
1
1
1
1
1
1
1
1
1
1
1
1
1
1
1
1
1
1
1
1
1
1
1
1
1
1
1
1
1
1
1
1
1
1
1
1
1
1
1
1
1
1
1
1
1
1
1
1
1
1
1
1
1
1
1
1
1
1
1
1
1
1
1
1
1
1
1
1
1
1
1
1
1
1
1
1
1
1
1
1
1
1
1
1
1
1
1
1
1
1
1
1
1
1
1
1
1
1
1
1
1
1
1
1
1
1
1
1
1
1
1
1
1
1
1
1
1
1
1
1
1
1
1
1
1
1
1
1
1
1
1
1
1
1
1
1
1
1
1
1
1
1
1
1
1
1
1
1
1
1
1
1
1
1
1
1
1
1
1
1
1
1
1
1
1
1
1
1
1
1
1
1
1
1
1
1
1
1
1
1
1
1
1
1
1
1
1
1
1
1
1
1
1
1
1
1
1
1
1
1
1
1
1
1
1
1
1
1
1
1
1
1
1
1
1
1
1
1
1
1
1
1
1
1
1
1
1
1
1
1
1
1
1
1
1
1
1
1
1
1
1
1
1
1
1
1
1
1
1
1
1
1
1
1
1
1
1
1
1
1
1
1
1
1
1
1
1
1
1
1
1
1
1
1
1
1
1
1
1
1
1
1
1
1
1
1
1
1
1
1
1
1
1
1
1
1
1
1
1
1
1
1
1
1
1
1
1
1
1
1
1
1
1
1
1
1
1
1
1
1
1
1
1
1
1
1
1
1
1
1
1
1
1
1
1
1
1
1
1
1
1
1
1
1
1
1
1
1
1
1
1
1
1
1
1
1
1
1
1
1
1
1
1
1
1
1
1
1
1
1
1
1
1
1
1
1
1
1
1
1
1
1
1
1
1
1
1
1
1
1
1
1
1
1
1
1
1
1
1
1
1
1
1
1
1
1
1
1
1
1
1
1
1
1
1
1
1
1
1
1
1
1
1
1
1
1
1
1
1
1
1
1
1
1
1
1
1
1
1
1
1
1
1
1
1
1
1
1
1
1
1
1
1
1
1
1
1
1
1
1
1
1
1
1
1
1
1
1
1
1
1
1
1
1
1
1
1
1
1
1
1
1
1
1
1
1
1
1
1
1
1
1
1
1
1
1
1
1
1
1
1
1
1
1
1
1
1
1
1
1
1
1
1
1
1
1
1
1
1
1
1
1
1
1
1
1
1
1
1
1
1
1
1
1
1
1
1
1
1
1
1
1
1
1
1
1
1
1
1
1
1
1
1
1
1
1
1
1
1
1
1
1
1
1
1
1
1
1
1
1
1
1
1
1
1
1
1
1
1
1
1
1
1
1
1
1
1
1
1
1
1
1
1
1
1
1
1
1
1
1
1
1
1
1
1
1
1
1
1
1
1
1
1
1
1
1
1
1
1
1
1
1
1
1
1
1
1
1
1
1
1
1
1
1
1
1
1
1
1
1
1
1
1
1
1
1
1
1
1
1
1
1
1
1
1
1
1
1
1
1
1
1
1
1
1
1
1
1
1
1
1
1
1
1
1
1
1
1
1
1
1
1
1
1
1
1
1
1
1
1
1
1
1
1
1
1
1
1
1
1
1
1
1
1
1
1
1
1
1
1
1
1
1
1
1
1
1
1
1
1
1
1
1
1
1
1
1
1
1
1
1
1
1
1
1
1
1
1
1
1
1
1
1
1
1
1
1
1
1
1
1
1
1
1
1
1
1
1
1
1
1
1
1
1
1
1
1
1
1
1
1
1
1
1
1
1
1
1
1
1
1
1
1
1
1
1
1
1
1
1
1
1
1
1
1
1
1
1
1
1
1
1
1
1
1
1
1
1
1
1
1
1
1
1
1
1
1
1
1
1
1
1
1
1
1
1
1
1
1
1
1
1
1
1
1
1
1
1
1
1
1
1
1
1
1
1
1
1
1
1
1
1
1
1
1
1
1
1
1
1
1
1
1
1
1
1
1
1
1
1
1
1
1
1
1
1
1
1
1
1
1
1
1
1
1
1
1
1
1
1
1
1
1
1
1
1
1
1
1
1
1
1
1
1
1
1
1
1
1
1
1
1
1
1
1
1
1
1
1
1
1
1
1
1
1
1
1
1
1
1
1
1
1
1
1
1
1
1
1
1
1
1
1
1
1
1
1
1
1
1
1
1
1
1
1
1
1
1
1
1
1
1
1
1
1
1
1
1
1
1
1
1
1
1
1
1
1
1
1
1
1
1
1
1
1
1
1
1
1
1
1
1
1
1
1
1
1
1
1
1
1
1
1
1
1
1
1
1
1
1
1
1
1
1
1
1
1
1
1
1
1
1
1
1
1
1
1
1
1
1
1
1
1
1
1
1
1
1
1
1
1
1
1
1
1
1
1
1
1
1
1
1
1
1
1
1
1
1
1
1
1
1
1
1
1
1
1
1
1
1
1
1
1
1
1
1
1
1
1
1
1
1
1
1
1
1
1
1
1
1
1
1
1
1
1
1
1
1
1
1
1
1
1
1
1
1
1
1
1
1
1
1
1
1
1
1
1
1
1
1
1
1
1
1
1
1
1
1
1
1
1
1
1
1
1
1
1
1
1
1
1
1
1
1
1
1
1
1
1
1
1
1
1
1
1
1
1
1
1
1
1
1
1
1
1
1
1
1
1
1
1
1
1
1
1
1
1
1
1
1
1
1
1
1
1
1
1
1
1
1
1
1
1
1
1
1
1
1
1
1
1
1
1
1
1
1
1
1
1
1
1
1
1
1
1
1
1
1
1
1
1
1
1
1
1
1
1
1
1
1
1
1
1
1
1
1
1
1
1
1
1
1
1
1
1
1
1
1
1
1
1
1
1
1
1
1
1
1
1
1
1
1
1
1
1
1
1
1
1
1
1
1
1
1
1
1
1
1
1
1
1
1
1
1
1
1
1
1
1
1
1
1
1
1
1
1
1
1
1
1
1
1
1
1
1
1
1
1
1
1
1
1
1
1
1
1
1
1
1
1
1
1
1
1
1
1
1
1
1
1
1
1
1
1
1
1
1
1
1
1
1
1
1
1
1
1
1
1
1
1
1
1
1
1
1
1
1
1
1
1
1
1
1
1
1
1
1
1
1
1
1
1
1
1
1
1
1
1
1
1
1
1
1
1
1
1
1
1
1
1
1
1
1
1
1
1
1
1
1
1
1
1
1
1
1
1
1
1
1
1
1
1
1
1
1
1
1
1
1
1
1
1
1
1
1
1
1
1
1
1
1
1
1
1
1
1
1
1
1
1
1
1
1
1
1
1
1
1
1
1
1
1
1
1
1
1
1
1
1
1
1
1
1
1
1
1
1
1
1
1
1
1
1
1
1
1
1
1
1
1
1
1
1
1
1
1
1
1
1
1
1
1
1
1
1
1
1
1
1
1
1
1
1
1
1
1
1
1
1
1
1
1
1
1
1
1
1
1
1
1
1
1
1
1
1
1
1
1
1
1
1
1
1
1
1
1
1
1
1
1
1
1
1
1
1
1
1
1
1
1
1
1
1
1
1
1
1
1
1
1
1
1
1
1
1
1
1
1
1
1
1
1
1
1
1
1
1
1
1
1
1
1
1
1
1
1
1
1
1
1
1
1
1
1
1
1
1
1
1
1
1
1
1
1
1
1
1
1
1
1
1
1
1
1
1
1
1
1
1
1
1
1
1
1
1
1
1
1
1
1
1
1
1
1
1
1
1
1
1
1
1
1
1
1
1
1
1
1
1
1
1
1
1
1
1
1
1
1
1
1
1
1
1
1
1
1
1
1
1
1
1
1
1
1
1
1
1
1
1
1
1
1
1
1
1
1
1
1
1
1
1
1
1
1
1
1
1
1
1
1
1
1
1
1
1
1
1
1
1
1
1
1
1
1
1
1
1
1
1
1
1
1
1
1
1
1
1
1
1
1
1
1
1
1
1
1
1
1
1
1
1
1
1
1
1
1
1
1
1
1
1
1
1
1
1
1
1
1
1
1
1
1
1
1
1
1
1
1
1
1
1
1
1
1
1
1
1
1
1
1
1
1
1
1
1
1
1
1
1
1
1
1
1
1
1
1
1
1
1
1
1
1
1
1
1
1
1
1
1
1
1
1
1
1
1
1
1
1
1
1
1
1
1
1
1
1
1
1
1
1
1
1
1
1
1
1
1
1
1
1
1
1
1
1
1
1
1
1
1
1
1
1
1
1
1
1
1
1
1
1
1
1
1
1
1
1
1
1
1
1
1
1
1
1
1
1
1
1
1
1
1
1
1
1
1
1
1
1
1
1
1
)
;

boundaryField
{
    inlet
    {
        type            fixedValue;
        value           nonuniform 0();
    }
    outlet
    {
        type            inletOutlet;
        inletValue      nonuniform 0();
        value           nonuniform 0();
    }
    bottom
    {
        type            zeroGradient;
    }
    top
    {
        type            zeroGradient;
    }
    obstacle
    {
        type            zeroGradient;
    }
    defaultFaces
    {
        type            empty;
    }
    procBoundary6to2
    {
        type            processor;
        value           nonuniform List<scalar> 
129
(
1.49304
1.47536
1.45219
1.43914
1.43583
1.4277
1.41091
1.39146
1.36814
1.34816
1.33225
1.31997
1.31238
1.30544
1.29742
1.2861
1.27171
1.25527
1.23754
1.21841
1.20585
1.19703
1.18931
1.18428
1.1767
1.166
1.15463
1.14235
1.12683
1.11642
1.11031
1.10587
1.10351
1.10008
1.09334
1.08501
1.0758
1.0671
1.06319
1.06208
1.06026
1.05702
1.05407
1.05134
1.04764
1.04314
1.04023
1.03873
1.03787
1.03658
1.03512
1.03351
1.03139
1.02957
1.02861
1.02799
1.02711
1.0251
1.02218
1.02141
1.02169
1.02195
1.02241
1.02335
1.02475
1.02634
1.02799
1.02993
1.03284
1.03769
1.04562
1.05776
1.07179
1.07938
1.07985
1.07599
1.06435
1.03908
1.01039
1.00058
1
1
1
1
1
1
1
1
1
1
1
1
1
1
1
1
1
1
1
1
1
1
1
1
1
1
1
1
1
1
1
1
1
1
1
1
1
1
1
1
1
1
1
1
1
1
1
1
1
)
;
    }
    procBoundary6to5
    {
        type            processor;
        value           nonuniform List<scalar> 
26
(
1.50938
1.50921
1.50861
1.50868
1.51484
1.53456
1.54642
1.53676
1.49571
1.34597
1.08484
1.00216
1
1
1
1
1
1
1
1
1
1
1
1
1
1
)
;
    }
    procBoundary6to7
    {
        type            processor;
        value           nonuniform List<scalar> 
32
(
1
1
1
1
1
1
1
1
1
1
1
1
1
1
1
1
1
1
1
1
1
1
1
1
1
1
1
1
1
1
1
1
)
;
    }
    procBoundary6to9
    {
        type            processor;
        value           nonuniform List<scalar> 6(1 1 1 1 1 1);
    }
    procBoundary6to10
    {
        type            processor;
        value           nonuniform List<scalar> 
129
(
1
1
1
1
1
1
1
1
1
1
1
1
1
1
1
1
1
1
1
1
1
1
1
1
1
1
1
1
1
1
1
1
1
1
1
1
1
1
1
1
1
1
1
1
1
1
1
1
1
1
1
1
1
1
1
1
1
1
1
1
1
1
1
1
1
1
1
1
1
1
1
1
1
1
1
1
1
1
1
1
1
1
1
1
1
1
1
1
1
1
1
1
1
1
1
1
1
1
1
1
1
1
1
1
1
1
1
1
1
1
1
1
1
1
1
1
1
1
1
1
1
1
1
1
1
1
1
1
1
)
;
    }
}


// ************************************************************************* //
