/*--------------------------------*- C++ -*----------------------------------*\
  =========                 |
  \\      /  F ield         | OpenFOAM: The Open Source CFD Toolbox
   \\    /   O peration     | Website:  https://openfoam.org
    \\  /    A nd           | Version:  7
     \\/     M anipulation  |
\*---------------------------------------------------------------------------*/
FoamFile
{
    version     2.0;
    format      ascii;
    class       volVectorField;
    location    "3.9";
    object      U;
}
// * * * * * * * * * * * * * * * * * * * * * * * * * * * * * * * * * * * * * //

dimensions      [0 1 -1 0 0 0 0];

internalField   nonuniform List<vector> 
3328
(
(-0.419729 0.00228 0)
(0.43419 0.00155153 0)
(0.559396 0.00272006 0)
(0.559188 0.00287212 0)
(0.560437 0.00266926 0)
(0.55048 0.00270401 0)
(0.530727 0.00312258 0)
(0.506182 0.00366186 0)
(0.485341 0.00489778 0)
(0.473441 0.00580461 0)
(0.466801 0.00742522 0)
(0.466609 0.00893106 0)
(0.462065 0.0104703 0)
(0.449374 0.010919 0)
(0.418167 0.0117954 0)
(0.367089 0.0124094 0)
(0.317339 0.0135178 0)
(0.276817 0.0147458 0)
(0.244447 0.0164038 0)
(0.212173 0.0189779 0)
(0.171957 0.0216376 0)
(0.129202 0.0249421 0)
(0.0774515 0.0262221 0)
(0.0291775 0.0291083 0)
(-0.417953 0.00825473 0)
(0.433797 0.00568047 0)
(0.557166 0.00694473 0)
(0.556902 0.00718571 0)
(0.55878 0.00686692 0)
(0.549682 0.00760069 0)
(0.530725 0.0095469 0)
(0.50649 0.0117649 0)
(0.485902 0.0161049 0)
(0.473278 0.0187025 0)
(0.466274 0.0229387 0)
(0.465766 0.0269955 0)
(0.460868 0.0309348 0)
(0.447401 0.0323489 0)
(0.415658 0.0350692 0)
(0.364643 0.0373293 0)
(0.315863 0.041904 0)
(0.275486 0.0468939 0)
(0.243733 0.0527552 0)
(0.211719 0.0610563 0)
(0.171829 0.0693924 0)
(0.129046 0.0795852 0)
(0.0773774 0.0842436 0)
(0.028792 0.0928922 0)
(-0.413803 0.0131564 0)
(0.434369 0.00946047 0)
(0.555851 0.0120483 0)
(0.555476 0.012312 0)
(0.558344 0.0116671 0)
(0.550381 0.0127378 0)
(0.532687 0.0157698 0)
(0.509253 0.019317 0)
(0.489527 0.026413 0)
(0.476241 0.0305446 0)
(0.469005 0.0373712 0)
(0.468136 0.0439763 0)
(0.463147 0.0502981 0)
(0.4489 0.0531384 0)
(0.417128 0.0580685 0)
(0.367004 0.0622762 0)
(0.320169 0.0702567 0)
(0.280583 0.0783428 0)
(0.249799 0.0874167 0)
(0.217919 0.100265 0)
(0.177869 0.113634 0)
(0.134397 0.129665 0)
(0.0811695 0.136993 0)
(0.0299204 0.149651 0)
(-0.408195 0.0178936 0)
(0.434798 0.013224 0)
(0.553246 0.0170953 0)
(0.552716 0.0170219 0)
(0.557209 0.0160875 0)
(0.551022 0.0173128 0)
(0.535208 0.0211926 0)
(0.51314 0.0260444 0)
(0.494692 0.0357679 0)
(0.480736 0.0417645 0)
(0.473053 0.0510896 0)
(0.471463 0.0601721 0)
(0.466833 0.0688008 0)
(0.452236 0.0733051 0)
(0.421366 0.0804506 0)
(0.373076 0.0867661 0)
(0.328762 0.0981965 0)
(0.289905 0.10963 0)
(0.259067 0.122436 0)
(0.22648 0.140256 0)
(0.18618 0.158824 0)
(0.141937 0.180081 0)
(0.0876548 0.189947 0)
(0.0319701 0.20528 0)
(-0.400884 0.0215819 0)
(0.435668 0.0166936 0)
(0.550473 0.0225957 0)
(0.549745 0.0217171 0)
(0.556063 0.0205235 0)
(0.551723 0.0215553 0)
(0.538029 0.0260786 0)
(0.517801 0.0323203 0)
(0.500615 0.044171 0)
(0.486406 0.0525657 0)
(0.478401 0.0639577 0)
(0.476169 0.0752593 0)
(0.472499 0.0861035 0)
(0.457985 0.092556 0)
(0.428983 0.102252 0)
(0.383225 0.110685 0)
(0.342012 0.125718 0)
(0.304784 0.140737 0)
(0.275804 0.156614 0)
(0.24569 0.178225 0)
(0.207499 0.200711 0)
(0.163236 0.227781 0)
(0.103861 0.24337 0)
(0.0388186 0.264347 0)
(-0.392224 0.0248435 0)
(0.436757 0.0200947 0)
(0.547969 0.0284013 0)
(0.547117 0.026521 0)
(0.555156 0.0249518 0)
(0.552836 0.0255244 0)
(0.541644 0.0304079 0)
(0.523683 0.0381987 0)
(0.507276 0.0517552 0)
(0.493185 0.0629927 0)
(0.484906 0.0760245 0)
(0.481946 0.089415 0)
(0.479293 0.102432 0)
(0.465005 0.11105 0)
(0.439273 0.123693 0)
(0.396879 0.134214 0)
(0.359424 0.152332 0)
(0.324833 0.170807 0)
(0.296805 0.189876 0)
(0.267623 0.217369 0)
(0.228165 0.247322 0)
(0.181045 0.284531 0)
(0.116462 0.309915 0)
(0.0388319 0.331876 0)
(-0.382228 0.026969 0)
(0.438429 0.0228349 0)
(0.546186 0.0338866 0)
(0.544947 0.0314758 0)
(0.55453 0.0291807 0)
(0.554341 0.0293734 0)
(0.545622 0.0346366 0)
(0.529985 0.0442241 0)
(0.514057 0.0592331 0)
(0.500569 0.0733477 0)
(0.492302 0.0879424 0)
(0.488323 0.10332 0)
(0.486369 0.118742 0)
(0.472689 0.129575 0)
(0.451668 0.144896 0)
(0.413563 0.157528 0)
(0.379978 0.178064 0)
(0.34868 0.200726 0)
(0.32199 0.223446 0)
(0.29808 0.256511 0)
(0.265046 0.291518 0)
(0.226481 0.335387 0)
(0.161246 0.374201 0)
(0.0685807 0.409533 0)
(-0.371121 0.0279969 0)
(0.440959 0.0246887 0)
(0.545667 0.0388124 0)
(0.543716 0.0361888 0)
(0.554026 0.0332561 0)
(0.555843 0.0334264 0)
(0.549494 0.039118 0)
(0.536137 0.0504566 0)
(0.52065 0.0666759 0)
(0.508341 0.0836677 0)
(0.500835 0.100099 0)
(0.495411 0.117124 0)
(0.494079 0.134741 0)
(0.481549 0.147785 0)
(0.466178 0.165275 0)
(0.433369 0.180427 0)
(0.403267 0.202798 0)
(0.376445 0.229833 0)
(0.352102 0.254462 0)
(0.33521 0.290056 0)
(0.306836 0.331183 0)
(0.270123 0.397049 0)
(0.182468 0.470629 0)
(0.11589 0.557814 0)
(-0.359418 0.027509 0)
(0.445052 0.0254546 0)
(0.547153 0.0422352 0)
(0.543857 0.039042 0)
(0.554315 0.03652 0)
(0.557738 0.0372066 0)
(0.553369 0.0434449 0)
(0.542071 0.0563188 0)
(0.527133 0.0737078 0)
(0.516498 0.0936224 0)
(0.51037 0.112333 0)
(0.503183 0.130652 0)
(0.502354 0.149971 0)
(0.491894 0.165178 0)
(0.481492 0.183934 0)
(0.455429 0.202147 0)
(0.428513 0.225819 0)
(0.406995 0.256207 0)
(0.385125 0.281993 0)
(0.37332 0.320654 0)
(0.349917 0.374057 0)
(0.332642 0.458313 0)
(0.304219 0.538937 0)
(0.353359 0.599732 0)
(-0.347911 0.0259164 0)
(0.450442 0.0251464 0)
(0.551336 0.0429144 0)
(0.546206 0.0406316 0)
(0.55571 0.0384915 0)
(0.560041 0.0401124 0)
(0.55696 0.0472157 0)
(0.547668 0.0613128 0)
(0.533487 0.0797958 0)
(0.525105 0.102501 0)
(0.520462 0.123767 0)
(0.511975 0.143011 0)
(0.511235 0.163438 0)
(0.503885 0.180426 0)
(0.496226 0.199618 0)
(0.478768 0.220992 0)
(0.455816 0.245392 0)
(0.438905 0.277031 0)
(0.420715 0.305092 0)
(0.411499 0.345615 0)
(0.403054 0.404032 0)
(0.401369 0.479567 0)
(0.413804 0.525071 0)
(0.460285 0.513675 0)
(-0.337441 0.0236002 0)
(0.456883 0.024204 0)
(0.558592 0.0415188 0)
(0.551533 0.0402808 0)
(0.558368 0.0399389 0)
(0.562604 0.0427105 0)
(0.560247 0.0501232 0)
(0.55321 0.0650586 0)
(0.539909 0.0845021 0)
(0.534474 0.109346 0)
(0.530935 0.132763 0)
(0.522375 0.153151 0)
(0.520518 0.174417 0)
(0.516222 0.193022 0)
(0.510668 0.211669 0)
(0.502387 0.234827 0)
(0.485022 0.259795 0)
(0.470693 0.291017 0)
(0.457769 0.322202 0)
(0.449832 0.360778 0)
(0.456037 0.413049 0)
(0.464299 0.477938 0)
(0.495446 0.519979 0)
(0.530981 0.514055 0)
(-0.328602 0.0214681 0)
(0.464454 0.0237679 0)
(0.567969 0.0381638 0)
(0.559396 0.0379525 0)
(0.562669 0.0400133 0)
(0.565834 0.0439902 0)
(0.564049 0.0512069 0)
(0.559119 0.0666582 0)
(0.546829 0.0871467 0)
(0.544574 0.113553 0)
(0.540331 0.138965 0)
(0.534334 0.161176 0)
(0.529585 0.183033 0)
(0.528553 0.202424 0)
(0.525505 0.220784 0)
(0.524671 0.243229 0)
(0.514483 0.268698 0)
(0.502152 0.298784 0)
(0.494136 0.332085 0)
(0.487404 0.36712 0)
(0.499105 0.409919 0)
(0.512669 0.463168 0)
(0.546292 0.499869 0)
(0.576463 0.498475 0)
(-0.321619 0.0203971 0)
(0.472491 0.0245481 0)
(0.577909 0.0334564 0)
(0.568391 0.0342713 0)
(0.568641 0.0381647 0)
(0.56979 0.0427625 0)
(0.568607 0.0500012 0)
(0.565239 0.0652385 0)
(0.554929 0.0861358 0)
(0.555049 0.113419 0)
(0.549924 0.141305 0)
(0.546661 0.166152 0)
(0.540104 0.18825 0)
(0.540783 0.208441 0)
(0.540472 0.226923 0)
(0.544063 0.247519 0)
(0.542474 0.272837 0)
(0.533519 0.301722 0)
(0.528544 0.335058 0)
(0.523025 0.367287 0)
(0.532102 0.402258 0)
(0.548701 0.444734 0)
(0.57827 0.481063 0)
(0.604596 0.484711 0)
(-0.316194 0.020756 0)
(0.47989 0.0263823 0)
(0.587163 0.029155 0)
(0.577356 0.0299793 0)
(0.576115 0.0349389 0)
(0.575185 0.0398345 0)
(0.574564 0.0474078 0)
(0.571661 0.0616406 0)
(0.564681 0.0825316 0)
(0.565012 0.109655 0)
(0.560462 0.139233 0)
(0.558339 0.166315 0)
(0.552549 0.189241 0)
(0.552451 0.211368 0)
(0.554219 0.230704 0)
(0.561029 0.249935 0)
(0.566746 0.274107 0)
(0.564271 0.302006 0)
(0.560822 0.333391 0)
(0.556336 0.364754 0)
(0.560685 0.395161 0)
(0.574478 0.426799 0)
(0.599175 0.460079 0)
(0.625417 0.478567 0)
(-0.311738 0.0221349 0)
(0.486303 0.0286584 0)
(0.59447 0.0267568 0)
(0.585453 0.0270348 0)
(0.584017 0.0320574 0)
(0.581881 0.0364158 0)
(0.581591 0.0440354 0)
(0.578899 0.0568488 0)
(0.575193 0.076719 0)
(0.574347 0.103178 0)
(0.572568 0.133532 0)
(0.569151 0.162344 0)
(0.566863 0.188072 0)
(0.563484 0.211882 0)
(0.568409 0.232538 0)
(0.574721 0.252484 0)
(0.58724 0.273866 0)
(0.591662 0.300236 0)
(0.591682 0.329777 0)
(0.587735 0.360015 0)
(0.590036 0.389983 0)
(0.598213 0.41786 0)
(0.616311 0.441657 0)
(0.637973 0.465632 0)
(-0.30759 0.0240957 0)
(0.491159 0.0310794 0)
(0.600388 0.0264592 0)
(0.592235 0.0263302 0)
(0.591194 0.030885 0)
(0.589089 0.0340941 0)
(0.58913 0.0409456 0)
(0.586785 0.0518011 0)
(0.585627 0.0701029 0)
(0.582822 0.0948532 0)
(0.58508 0.124423 0)
(0.580784 0.154775 0)
(0.580648 0.183571 0)
(0.575768 0.209388 0)
(0.582678 0.232623 0)
(0.586903 0.254391 0)
(0.603672 0.273279 0)
(0.61451 0.297412 0)
(0.619823 0.324631 0)
(0.618496 0.353125 0)
(0.619763 0.382771 0)
(0.625027 0.411029 0)
(0.637104 0.435423 0)
(0.652939 0.457197 0)
(-0.303216 0.0262314 0)
(0.494687 0.0329682 0)
(0.605385 0.0275598 0)
(0.597917 0.0274285 0)
(0.597333 0.0317293 0)
(0.595913 0.0340268 0)
(0.596649 0.0396923 0)
(0.594895 0.0476921 0)
(0.594697 0.0638644 0)
(0.591625 0.0859741 0)
(0.59673 0.11303 0)
(0.592421 0.14386 0)
(0.592835 0.174817 0)
(0.590355 0.203583 0)
(0.594709 0.229848 0)
(0.600638 0.253249 0)
(0.616483 0.272904 0)
(0.633204 0.293731 0)
(0.643616 0.317755 0)
(0.647719 0.343913 0)
(0.648836 0.371785 0)
(0.65419 0.400997 0)
(0.661809 0.428023 0)
(0.673307 0.45225 0)
(-0.298113 0.0279596 0)
(0.49734 0.0334818 0)
(0.609744 0.0294971 0)
(0.602948 0.0296998 0)
(0.602821 0.0341038 0)
(0.601984 0.0361649 0)
(0.603304 0.0407907 0)
(0.602796 0.0461786 0)
(0.602132 0.0590561 0)
(0.602645 0.0781443 0)
(0.605171 0.101733 0)
(0.605049 0.131072 0)
(0.604867 0.162555 0)
(0.605694 0.19402 0)
(0.606142 0.223596 0)
(0.616627 0.248418 0)
(0.627095 0.270191 0)
(0.647882 0.287968 0)
(0.66243 0.309222 0)
(0.672829 0.332367 0)
(0.677744 0.358088 0)
(0.682735 0.386518 0)
(0.690223 0.415722 0)
(0.698955 0.443559 0)
(-0.292285 0.0289702 0)
(0.499599 0.0326404 0)
(0.613647 0.0319394 0)
(0.607595 0.0327254 0)
(0.607963 0.0375149 0)
(0.60744 0.0398118 0)
(0.609042 0.0436221 0)
(0.609587 0.0472379 0)
(0.609302 0.0564368 0)
(0.612171 0.072311 0)
(0.612992 0.0919933 0)
(0.61733 0.117177 0)
(0.617144 0.147566 0)
(0.619089 0.180465 0)
(0.619528 0.212455 0)
(0.630971 0.239495 0)
(0.638203 0.263326 0)
(0.659659 0.280988 0)
(0.677448 0.300547 0)
(0.693176 0.319908 0)
(0.702426 0.342441 0)
(0.709918 0.368646 0)
(0.719776 0.397991 0)
(0.72886 0.428476 0)
(-0.285776 0.0292438 0)
(0.501687 0.0309115 0)
(0.617325 0.0345311 0)
(0.612178 0.036036 0)
(0.612932 0.0413258 0)
(0.612463 0.0440182 0)
(0.614206 0.0473442 0)
(0.615318 0.0497647 0)
(0.615908 0.0556921 0)
(0.618548 0.0679917 0)
(0.622438 0.0839424 0)
(0.625071 0.104176 0)
(0.629846 0.131253 0)
(0.631219 0.16399 0)
(0.634701 0.197088 0)
(0.64132 0.227105 0)
(0.653079 0.252351 0)
(0.668753 0.272792 0)
(0.689595 0.290729 0)
(0.708431 0.30897 0)
(0.722683 0.32851 0)
(0.734901 0.351177 0)
(0.747223 0.378136 0)
(0.759634 0.408362 0)
(-0.278799 0.0287711 0)
(0.503568 0.0285446 0)
(0.621064 0.0370143 0)
(0.616979 0.0391874 0)
(0.617794 0.0449051 0)
(0.617277 0.0479578 0)
(0.619106 0.0512076 0)
(0.620388 0.0531703 0)
(0.621673 0.0558532 0)
(0.624307 0.0650993 0)
(0.629635 0.0775205 0)
(0.631593 0.0934696 0)
(0.640325 0.115387 0)
(0.642889 0.145925 0)
(0.648168 0.179234 0)
(0.653044 0.211789 0)
(0.668638 0.238972 0)
(0.676791 0.262499 0)
(0.699151 0.279883 0)
(0.719093 0.298443 0)
(0.738458 0.316614 0)
(0.7554 0.336248 0)
(0.771645 0.359573 0)
(0.787996 0.386632 0)
(-0.27158 0.0277282 0)
(0.505474 0.0258563 0)
(0.624712 0.0391223 0)
(0.621749 0.0417042 0)
(0.622959 0.0474819 0)
(0.622438 0.0508345 0)
(0.624284 0.0542933 0)
(0.625376 0.0564933 0)
(0.626955 0.0578671 0)
(0.629232 0.0639544 0)
(0.634434 0.073119 0)
(0.638544 0.0851413 0)
(0.645532 0.102386 0)
(0.653783 0.127997 0)
(0.659142 0.160366 0)
(0.666835 0.193615 0)
(0.678236 0.223863 0)
(0.689763 0.250026 0)
(0.707076 0.270273 0)
(0.727551 0.288478 0)
(0.749827 0.305147 0)
(0.77077 0.323139 0)
(0.791796 0.343361 0)
(0.813377 0.366813 0)
(-0.264291 0.02638 0)
(0.507487 0.0230048 0)
(0.628045 0.0405453 0)
(0.626244 0.0433047 0)
(0.628275 0.04866 0)
(0.628085 0.0521024 0)
(0.629941 0.0560136 0)
(0.63076 0.0585045 0)
(0.632221 0.0602075 0)
(0.633482 0.064476 0)
(0.638557 0.0715683 0)
(0.643435 0.0798599 0)
(0.650925 0.0925388 0)
(0.662092 0.112666 0)
(0.669916 0.141662 0)
(0.679441 0.174432 0)
(0.688641 0.20722 0)
(0.703965 0.235656 0)
(0.713865 0.259697 0)
(0.734792 0.278053 0)
(0.757802 0.294599 0)
(0.782112 0.31045 0)
(0.806851 0.328477 0)
(0.833772 0.348282 0)
(-0.256938 0.025017 0)
(0.509514 0.0202033 0)
(0.630715 0.0413189 0)
(0.630146 0.0440042 0)
(0.633297 0.0483456 0)
(0.634049 0.0517162 0)
(0.636063 0.0559259 0)
(0.636518 0.0592126 0)
(0.637589 0.0625223 0)
(0.638033 0.0659324 0)
(0.641576 0.0719205 0)
(0.647332 0.0777763 0)
(0.657068 0.0859514 0)
(0.66732 0.101218 0)
(0.680366 0.124427 0)
(0.690758 0.154983 0)
(0.701251 0.187958 0)
(0.714233 0.218873 0)
(0.724949 0.245968 0)
(0.741885 0.266791 0)
(0.763793 0.283909 0)
(0.790419 0.297666 0)
(0.817771 0.313389 0)
(0.848615 0.330458 0)
(-0.249434 0.0237194 0)
(0.511721 0.0177494 0)
(0.632527 0.0416037 0)
(0.633297 0.0438834 0)
(0.637568 0.0466928 0)
(0.639823 0.0497533 0)
(0.642437 0.0543812 0)
(0.642752 0.0587671 0)
(0.643288 0.063946 0)
(0.643191 0.0678289 0)
(0.644862 0.0738355 0)
(0.650876 0.0789729 0)
(0.661409 0.0833385 0)
(0.674235 0.0933205 0)
(0.687931 0.110559 0)
(0.701481 0.135877 0)
(0.713423 0.166672 0)
(0.724066 0.19879 0)
(0.737862 0.227675 0)
(0.74862 0.25246 0)
(0.769541 0.271128 0)
(0.797026 0.284891 0)
(0.826777 0.298568 0)
(0.859654 0.313253 0)
(-0.241823 0.0223547 0)
(0.514259 0.015876 0)
(0.633804 0.0410953 0)
(0.635682 0.0429466 0)
(0.641019 0.0444675 0)
(0.644892 0.0468469 0)
(0.648451 0.0512357 0)
(0.649451 0.0570545 0)
(0.649563 0.063758 0)
(0.649219 0.0699459 0)
(0.649808 0.0755755 0)
(0.655785 0.0795063 0)
(0.664596 0.0834505 0)
(0.678271 0.0886369 0)
(0.692884 0.0995708 0)
(0.707731 0.11841 0)
(0.722248 0.144475 0)
(0.733954 0.175054 0)
(0.746788 0.20506 0)
(0.758247 0.232706 0)
(0.775826 0.25491 0)
(0.801433 0.271301 0)
(0.833609 0.283511 0)
(0.867803 0.296795 0)
(-0.234296 0.0207741 0)
(0.516815 0.0144664 0)
(0.634996 0.0396939 0)
(0.637305 0.0416235 0)
(0.643592 0.0421125 0)
(0.649001 0.0435872 0)
(0.654112 0.0474012 0)
(0.656178 0.053825 0)
(0.656837 0.0622598 0)
(0.656609 0.0705057 0)
(0.656872 0.0765745 0)
(0.661648 0.0815608 0)
(0.668674 0.0849791 0)
(0.680966 0.0868268 0)
(0.695453 0.0927474 0)
(0.711594 0.103599 0)
(0.726554 0.123441 0)
(0.741605 0.149461 0)
(0.754269 0.179024 0)
(0.768019 0.208001 0)
(0.782493 0.234351 0)
(0.805265 0.254936 0)
(0.838269 0.267841 0)
(0.873659 0.280608 0)
(-0.22705 0.0189025 0)
(0.519503 0.0132133 0)
(0.636034 0.0379457 0)
(0.638684 0.0398977 0)
(0.645505 0.0398532 0)
(0.651972 0.0402994 0)
(0.658794 0.0433414 0)
(0.66275 0.0500038 0)
(0.664736 0.0592002 0)
(0.664738 0.0679581 0)
(0.66564 0.0754487 0)
(0.668998 0.0810334 0)
(0.674633 0.0849148 0)
(0.683684 0.0866445 0)
(0.696781 0.0878359 0)
(0.712763 0.0935239 0)
(0.729924 0.105443 0)
(0.745985 0.125538 0)
(0.760941 0.151731 0)
(0.776105 0.180296 0)
(0.790829 0.208931 0)
(0.811291 0.233363 0)
(0.840487 0.250981 0)
(0.876877 0.263257 0)
(-0.220269 0.0166857 0)
(0.522189 0.0118934 0)
(0.637437 0.03552 0)
(0.640268 0.0381343 0)
(0.647301 0.0378968 0)
(0.65389 0.0376824 0)
(0.662126 0.0401313 0)
(0.667875 0.0458505 0)
(0.672475 0.0552106 0)
(0.673912 0.0639077 0)
(0.675502 0.0717953 0)
(0.678218 0.0780217 0)
(0.681287 0.0824968 0)
(0.687509 0.084831 0)
(0.698196 0.0851006 0)
(0.713115 0.0862222 0)
(0.730941 0.0923937 0)
(0.749421 0.105794 0)
(0.76669 0.126295 0)
(0.783065 0.151995 0)
(0.799538 0.179956 0)
(0.818633 0.206525 0)
(0.842567 0.229617 0)
(0.878023 0.243018 0)
(-0.214101 0.014155 0)
(0.52489 0.0101749 0)
(0.639868 0.0327236 0)
(0.642227 0.0361584 0)
(0.648972 0.036101 0)
(0.654975 0.036035 0)
(0.663883 0.0384693 0)
(0.671715 0.0436965 0)
(0.678085 0.050312 0)
(0.681752 0.0570052 0)
(0.685145 0.0643212 0)
(0.687742 0.0711277 0)
(0.689192 0.0767332 0)
(0.692529 0.0805765 0)
(0.700637 0.0817778 0)
(0.714102 0.0823976 0)
(0.731932 0.0844558 0)
(0.751815 0.0912195 0)
(0.771523 0.105072 0)
(0.789262 0.125333 0)
(0.806718 0.149801 0)
(0.825267 0.175869 0)
(0.846896 0.20118 0)
(0.877956 0.218793 0)
(-0.20877 0.0114705 0)
(0.527967 0.00808261 0)
(0.643222 0.0297041 0)
(0.644651 0.0336721 0)
(0.650831 0.0342341 0)
(0.655916 0.0347917 0)
(0.664593 0.0375366 0)
(0.673237 0.0418471 0)
(0.681504 0.0460264 0)
(0.688156 0.0498211 0)
(0.693753 0.0550375 0)
(0.696822 0.0612033 0)
(0.698206 0.0681198 0)
(0.699369 0.0738869 0)
(0.705267 0.0774219 0)
(0.715772 0.0782794 0)
(0.731841 0.0795817 0)
(0.751684 0.0827382 0)
(0.772115 0.0897559 0)
(0.791985 0.102114 0)
(0.809958 0.12099 0)
(0.829508 0.143499 0)
(0.851693 0.167749 0)
(0.878432 0.189559 0)
(-0.204472 0.00904749 0)
(0.531507 0.00612167 0)
(0.647231 0.0262503 0)
(0.647824 0.0300627 0)
(0.653117 0.0319092 0)
(0.656898 0.0333625 0)
(0.664604 0.0365149 0)
(0.673033 0.0395446 0)
(0.682138 0.041776 0)
(0.691779 0.0439301 0)
(0.700051 0.0464988 0)
(0.705714 0.0513987 0)
(0.708986 0.0582882 0)
(0.710168 0.0660029 0)
(0.712733 0.0727872 0)
(0.721303 0.0762321 0)
(0.734027 0.0768518 0)
(0.751609 0.0766067 0)
(0.771122 0.0786986 0)
(0.790928 0.0847887 0)
(0.810978 0.0956006 0)
(0.831048 0.112741 0)
(0.854097 0.13376 0)
(0.880183 0.156587 0)
(-0.201232 0.00728993 0)
(0.534895 0.00456031 0)
(0.651462 0.0222976 0)
(0.65174 0.0251745 0)
(0.655888 0.0284897 0)
(0.658267 0.0312968 0)
(0.66471 0.0345298 0)
(0.672426 0.0366809 0)
(0.681675 0.0375855 0)
(0.69255 0.0380375 0)
(0.703413 0.0399296 0)
(0.712473 0.0434386 0)
(0.719593 0.0493704 0)
(0.722811 0.0572033 0)
(0.72468 0.0654806 0)
(0.729395 0.071547 0)
(0.739278 0.0738369 0)
(0.752918 0.0722513 0)
(0.770049 0.0697246 0)
(0.789267 0.0703014 0)
(0.809419 0.0759373 0)
(0.831265 0.0869705 0)
(0.854931 0.103611 0)
(0.881458 0.124322 0)
(-0.198796 0.00652093 0)
(0.537572 0.0040031 0)
(0.654949 0.0173117 0)
(0.655399 0.0197794 0)
(0.658811 0.0238956 0)
(0.660555 0.02776 0)
(0.66548 0.0309145 0)
(0.672266 0.0334653 0)
(0.680883 0.0341194 0)
(0.692461 0.0345653 0)
(0.705353 0.0357263 0)
(0.717209 0.0380721 0)
(0.727496 0.0419579 0)
(0.73427 0.0481266 0)
(0.737211 0.0555905 0)
(0.740047 0.062382 0)
(0.745531 0.0657597 0)
(0.756023 0.0654613 0)
(0.770372 0.0624304 0)
(0.788148 0.060042 0)
(0.808808 0.0615321 0)
(0.831455 0.0678563 0)
(0.85576 0.079635 0)
(0.882037 0.0963814 0)
(-0.196863 0.00643018 0)
(0.539162 0.00401114 0)
(0.657256 0.0125657 0)
(0.657998 0.0146062 0)
(0.661574 0.0181164 0)
(0.663387 0.0223902 0)
(0.666968 0.0259306 0)
(0.672717 0.0289995 0)
(0.680307 0.0307754 0)
(0.691884 0.0330016 0)
(0.706151 0.0338484 0)
(0.719402 0.035153 0)
(0.732557 0.0367632 0)
(0.741732 0.0391369 0)
(0.747021 0.0434743 0)
(0.750202 0.0483741 0)
(0.753341 0.0518631 0)
(0.760067 0.0537685 0)
(0.771386 0.0527383 0)
(0.787633 0.0513088 0)
(0.807573 0.0510194 0)
(0.829544 0.0548773 0)
(0.853486 0.0623701 0)
(0.879231 0.0744122 0)
(-0.19508 0.00636074 0)
(0.540146 0.00406783 0)
(0.657472 0.00855897 0)
(0.65931 0.0106897 0)
(0.664159 0.0124145 0)
(0.667054 0.0160214 0)
(0.669779 0.0199923 0)
(0.674568 0.024623 0)
(0.680754 0.0273069 0)
(0.691619 0.031393 0)
(0.705536 0.0324583 0)
(0.718774 0.0339053 0)
(0.73386 0.0347479 0)
(0.745886 0.0343861 0)
(0.753956 0.0328439 0)
(0.758718 0.0322287 0)
(0.763229 0.034785 0)
(0.768677 0.039587 0)
(0.777663 0.042682 0)
(0.790344 0.0443874 0)
(0.80686 0.045174 0)
(0.82661 0.0464683 0)
(0.848432 0.0506469 0)
(0.872391 0.0581652 0)
(-0.193437 0.00592074 0)
(0.540727 0.00357587 0)
(0.655456 0.00694237 0)
(0.659465 0.00654133 0)
(0.666198 0.00760334 0)
(0.670733 0.0101895 0)
(0.673976 0.0138404 0)
(0.678273 0.019397 0)
(0.683553 0.0241837 0)
(0.692993 0.0297848 0)
(0.705241 0.030807 0)
(0.717168 0.0316006 0)
(0.731647 0.0301775 0)
(0.744825 0.02643 0)
(0.754843 0.0215203 0)
(0.764074 0.0187047 0)
(0.772829 0.019328 0)
(0.780951 0.0244481 0)
(0.788617 0.0312871 0)
(0.797009 0.0369096 0)
(0.808671 0.0402965 0)
(0.82384 0.0413459 0)
(0.841884 0.0432073 0)
(0.862544 0.046858 0)
(-0.19215 0.00475255 0)
(0.540466 0.00287443 0)
(0.654472 0.00470482 0)
(0.658989 0.00330977 0)
(0.666898 0.0039687 0)
(0.673372 0.00575056 0)
(0.678689 0.0082938 0)
(0.683674 0.0134736 0)
(0.688675 0.0196099 0)
(0.695977 0.0254786 0)
(0.705463 0.0262442 0)
(0.715535 0.0266681 0)
(0.727793 0.023691 0)
(0.740769 0.0181909 0)
(0.753467 0.0116069 0)
(0.766766 0.00771848 0)
(0.780167 0.00846529 0)
(0.792458 0.0125529 0)
(0.800764 0.0195938 0)
(0.806709 0.0269194 0)
(0.812381 0.032741 0)
(0.821892 0.0360777 0)
(0.835213 0.0364116 0)
(0.852298 0.0367355 0)
(-0.191196 0.00311979 0)
(0.540124 0.00175981 0)
(0.653551 0.00299758 0)
(0.65858 0.00121012 0)
(0.666838 0.0015909 0)
(0.674494 0.00220222 0)
(0.681588 0.00335518 0)
(0.687945 0.00701283 0)
(0.693404 0.0123982 0)
(0.698735 0.0173766 0)
(0.705458 0.0183053 0)
(0.713442 0.0189964 0)
(0.72291 0.0160764 0)
(0.735394 0.0106646 0)
(0.750257 0.00499469 0)
(0.766822 0.00194478 0)
(0.783408 0.00183144 0)
(0.79818 0.00333008 0)
(0.80893 0.00867888 0)
(0.815429 0.0152546 0)
(0.819349 0.0216477 0)
(0.823892 0.025821 0)
(0.832752 0.025456 0)
(0.845591 0.0251515 0)
(-0.190761 0.000973487 0)
(0.539349 0.000573706 0)
(0.652416 0.00187239 0)
(0.657924 0.000667532 0)
(0.666266 0.000666117 0)
(0.674321 0.000614218 0)
(0.682442 0.000643866 0)
(0.690191 0.00126082 0)
(0.696117 0.00270213 0)
(0.699806 0.00476948 0)
(0.70419 0.00579836 0)
(0.709712 0.00691482 0)
(0.717647 0.00737414 0)
(0.729307 0.00645474 0)
(0.746043 0.00510724 0)
(0.765735 0.0033095 0)
(0.784806 0.00181867 0)
(0.802295 0.000851957 0)
(0.814576 0.0010875 0)
(0.82138 0.00228685 0)
(0.823447 0.0044338 0)
(0.824128 0.00674578 0)
(0.829796 0.00801104 0)
(0.840194 0.00858685 0)
(0.426403 0.375159 0)
(0.138779 0.191032 0)
(0.0823848 0.0567896 0)
(0.0580328 0.0189156 0)
(0.0391507 0.00700721 0)
(0.0209943 0.00360026 0)
(0.00974823 0.00217445 0)
(0.0121079 0.00393498 0)
(0.456985 0.326412 0)
(0.292365 0.189689 0)
(0.214748 0.0812917 0)
(0.134791 0.0508611 0)
(0.0761032 0.0337995 0)
(0.0352541 0.0217509 0)
(0.0129835 0.0134588 0)
(0.0110573 0.0138171 0)
(0.508632 0.426848 0)
(0.402361 0.34255 0)
(0.317012 0.226374 0)
(0.210836 0.159942 0)
(0.134084 0.0984906 0)
(0.0677378 0.0585444 0)
(0.0254426 0.0311627 0)
(0.0128476 0.0175916 0)
(0.573872 0.465455 0)
(0.527131 0.406821 0)
(0.462338 0.312756 0)
(0.353355 0.241393 0)
(0.253129 0.164813 0)
(0.145512 0.108794 0)
(0.0642879 0.0652002 0)
(0.0255055 0.0341184 0)
(0.612371 0.482597 0)
(0.598931 0.461503 0)
(0.562934 0.40697 0)
(0.476449 0.352554 0)
(0.37209 0.278248 0)
(0.238433 0.207318 0)
(0.122159 0.136507 0)
(0.0459533 0.081806 0)
(0.638249 0.482634 0)
(0.641342 0.483646 0)
(0.629968 0.463059 0)
(0.576689 0.437178 0)
(0.494203 0.378367 0)
(0.355263 0.317277 0)
(0.200986 0.254 0)
(0.0816873 0.177906 0)
(0.657125 0.48364 0)
(0.66777 0.494898 0)
(0.670603 0.497692 0)
(0.64878 0.493496 0)
(0.590594 0.468671 0)
(0.470429 0.443077 0)
(0.328815 0.375406 0)
(0.163338 0.348583 0)
(0.670742 0.47684 0)
(0.688119 0.49345 0)
(0.701409 0.51153 0)
(0.698249 0.531071 0)
(0.664645 0.541623 0)
(0.581283 0.549929 0)
(0.412699 0.558403 0)
(0.22102 0.690216 0)
(0.688513 0.47489 0)
(0.705108 0.498455 0)
(0.724557 0.523304 0)
(0.739523 0.553817 0)
(0.73385 0.590875 0)
(0.701604 0.653117 0)
(0.637354 0.760452 0)
(0.731684 1.00174 0)
(0.711651 0.469322 0)
(0.726605 0.496053 0)
(0.750325 0.526128 0)
(0.775708 0.565527 0)
(0.80396 0.617441 0)
(0.824242 0.703588 0)
(0.871776 0.812664 0)
(1.10856 0.920169 0)
(0.740755 0.457993 0)
(0.755375 0.488187 0)
(0.780648 0.520855 0)
(0.81257 0.561764 0)
(0.862517 0.610886 0)
(0.919426 0.691164 0)
(1.03591 0.797914 0)
(1.29481 0.852352 0)
(0.772969 0.439469 0)
(0.788609 0.471361 0)
(0.814575 0.505397 0)
(0.851635 0.54589 0)
(0.910962 0.588341 0)
(0.988396 0.650779 0)
(1.12242 0.736823 0)
(1.35447 0.768808 0)
(0.805082 0.41664 0)
(0.823789 0.448539 0)
(0.850579 0.482249 0)
(0.890323 0.520236 0)
(0.953132 0.555936 0)
(1.0371 0.599983 0)
(1.16616 0.664145 0)
(1.36441 0.679166 0)
(0.834829 0.393703 0)
(0.857476 0.42284 0)
(0.885674 0.4542 0)
(0.926484 0.488494 0)
(0.989637 0.517983 0)
(1.07291 0.552081 0)
(1.18986 0.592046 0)
(1.3481 0.59514 0)
(0.860351 0.372249 0)
(0.887995 0.398035 0)
(0.918247 0.42559 0)
(0.959104 0.454475 0)
(1.01942 0.478197 0)
(1.0983 0.502549 0)
(1.20201 0.526209 0)
(1.32753 0.522083 0)
(0.880136 0.351336 0)
(0.912915 0.374166 0)
(0.9466 0.398346 0)
(0.987608 0.421849 0)
(1.04317 0.440438 0)
(1.11439 0.457534 0)
(1.20477 0.469655 0)
(1.30843 0.461657 0)
(0.894349 0.33108 0)
(0.930706 0.350683 0)
(0.968128 0.371687 0)
(1.01018 0.391411 0)
(1.06171 0.406497 0)
(1.12571 0.419725 0)
(1.20438 0.423908 0)
(1.29237 0.413599 0)
(0.904727 0.311667 0)
(0.942798 0.328697 0)
(0.982345 0.346016 0)
(1.02499 0.362503 0)
(1.07381 0.376391 0)
(1.13268 0.387737 0)
(1.2023 0.38772 0)
(1.27851 0.376666 0)
(0.91181 0.293178 0)
(0.950525 0.307645 0)
(0.990575 0.322215 0)
(1.0329 0.335582 0)
(1.07962 0.348299 0)
(1.13428 0.358756 0)
(1.19718 0.358005 0)
(1.26483 0.347871 0)
(0.915611 0.274592 0)
(0.955017 0.286583 0)
(0.994929 0.298523 0)
(1.03627 0.309338 0)
(1.08088 0.320542 0)
(1.13173 0.330136 0)
(1.18952 0.331012 0)
(1.25132 0.323254 0)
(0.916272 0.254525 0)
(0.955922 0.26462 0)
(0.99553 0.274675 0)
(1.03621 0.283 0)
(1.07944 0.292518 0)
(1.12755 0.300948 0)
(1.18093 0.303676 0)
(1.23828 0.298932 0)
(0.914848 0.2317 0)
(0.954627 0.241304 0)
(0.994036 0.25017 0)
(1.03414 0.256571 0)
(1.07618 0.263892 0)
(1.12214 0.270929 0)
(1.17229 0.274682 0)
(1.22621 0.272574 0)
(0.913386 0.205319 0)
(0.95282 0.215989 0)
(0.9922 0.225007 0)
(1.03166 0.230665 0)
(1.07214 0.236046 0)
(1.11569 0.241379 0)
(1.16301 0.244874 0)
(1.21424 0.244096 0)
(0.912351 0.176089 0)
(0.949917 0.190002 0)
(0.989146 0.199777 0)
(1.02796 0.205377 0)
(1.06693 0.209343 0)
(1.10813 0.213522 0)
(1.15285 0.215887 0)
(1.20166 0.214878 0)
(0.911635 0.145585 0)
(0.946528 0.163132 0)
(0.984597 0.175102 0)
(1.02271 0.181628 0)
(1.06044 0.184819 0)
(1.09965 0.186875 0)
(1.14178 0.188451 0)
(1.1879 0.18677 0)
(0.911097 0.1161 0)
(0.943358 0.135141 0)
(0.978685 0.149719 0)
(1.01529 0.157822 0)
(1.05163 0.161148 0)
(1.08861 0.162649 0)
(1.12841 0.162648 0)
(1.17171 0.1604 0)
(0.907225 0.0901963 0)
(0.93724 0.107804 0)
(0.969278 0.123685 0)
(1.00351 0.133687 0)
(1.03857 0.138118 0)
(1.07455 0.139543 0)
(1.11256 0.139137 0)
(1.15325 0.136557 0)
(0.898308 0.069196 0)
(0.926027 0.0831897 0)
(0.955511 0.0977632 0)
(0.98747 0.108722 0)
(1.02136 0.114724 0)
(1.05687 0.117026 0)
(1.09428 0.116928 0)
(1.1337 0.114779 0)
(0.88559 0.053095 0)
(0.910989 0.0624173 0)
(0.938797 0.0733877 0)
(0.969129 0.0833347 0)
(1.00178 0.0904953 0)
(1.03674 0.0942198 0)
(1.07426 0.0946848 0)
(1.11437 0.0929731 0)
(0.872894 0.0386662 0)
(0.896534 0.0434215 0)
(0.922737 0.0505569 0)
(0.951464 0.0583914 0)
(0.98266 0.0654848 0)
(1.01684 0.0700432 0)
(1.0546 0.0710947 0)
(1.09662 0.0696591 0)
(0.863073 0.0258248 0)
(0.884434 0.0279076 0)
(0.909139 0.0312681 0)
(0.936605 0.0357269 0)
(0.96688 0.0404239 0)
(1.00068 0.0439097 0)
(1.03881 0.0450374 0)
(1.08235 0.0439675 0)
(0.856605 0.00907834 0)
(0.877518 0.00953118 0)
(0.901677 0.0101128 0)
(0.928298 0.01115 0)
(0.957972 0.0125013 0)
(0.991879 0.0135875 0)
(1.03152 0.0140435 0)
(1.07896 0.0143028 0)
(1.69515 1.00915 0)
(2.22894 1.08268 0)
(2.54223 0.700386 0)
(2.59471 0.379976 0)
(2.58547 -0.00690774 0)
(2.42062 -0.199366 0)
(2.13106 -0.206225 0)
(2.01213 -0.224503 0)
(1.79772 -0.176578 0)
(1.50391 -0.063162 0)
(1.41656 -0.0278792 0)
(1.33708 -0.0197717 0)
(1.2845 -0.00893752 0)
(1.24834 -0.00770082 0)
(1.24861 -0.00906039 0)
(1.25763 -0.0177833 0)
(1.26327 -0.0258288 0)
(1.27248 -0.0319814 0)
(1.287 -0.0349034 0)
(1.3059 -0.0341677 0)
(1.32498 -0.0322782 0)
(1.34029 -0.0313316 0)
(1.35674 -0.0313244 0)
(1.37673 -0.0309507 0)
(1.4047 -0.0290143 0)
(1.44329 -0.0259783 0)
(1.47533 -0.0243146 0)
(1.49921 -0.0239556 0)
(1.52169 -0.0213304 0)
(1.54164 -0.015572 0)
(1.56365 -0.00815747 0)
(1.58776 -0.00102979 0)
(1.61295 0.00513726 0)
(1.63985 0.00879163 0)
(1.66882 0.0101806 0)
(1.7036 0.0100914 0)
(1.74654 0.00944236 0)
(1.77686 0.00932939 0)
(1.79901 0.00957369 0)
(1.81987 0.00990235 0)
(1.83988 0.00993461 0)
(1.86187 0.00982193 0)
(1.88645 0.0093575 0)
(1.91548 0.00812285 0)
(1.94127 0.00568723 0)
(1.96351 0.00353745 0)
(1.9844 0.00147522 0)
(1.99861 0.000715433 0)
(2.00205 0.00284259 0)
(2.00744 0.0054786 0)
(2.02099 0.00721407 0)
(2.03892 0.00736932 0)
(2.05433 0.00993265 0)
(2.06712 0.00978391 0)
(2.0588 -0.000227687 0)
(2.03228 -0.0112315 0)
(1.93917 -0.035404 0)
(1.80297 -0.0509478 0)
(1.70811 -0.056712 0)
(1.67023 -0.040126 0)
(1.70369 -0.0110471 0)
(1.7401 -0.000929437 0)
(1.76921 -0.0036683 0)
(1.79647 -0.0045732 0)
(1.81952 -0.00344862 0)
(1.83376 0.000554262 0)
(1.83158 0.00501304 0)
(1.81869 0.0092031 0)
(1.81604 0.0132401 0)
(1.82481 0.0154913 0)
(1.83596 0.0165668 0)
(1.84986 0.0176936 0)
(1.87364 0.0178637 0)
(1.90926 0.0161361 0)
(1.94661 0.0108965 0)
(1.97062 0.00300685 0)
(1.98505 -0.0046706 0)
(2.00034 -0.0105825 0)
(2.01053 -0.0150466 0)
(1.99944 -0.0154056 0)
(1.96715 -0.00881601 0)
(1.94904 -0.000361898 0)
(1.94937 0.00674448 0)
(1.95646 0.012634 0)
(1.96506 0.0167998 0)
(1.97499 0.0176375 0)
(1.9897 0.0204322 0)
(2.02414 0.0177561 0)
(1.80232 0.789065 0)
(2.19757 0.497548 0)