/*--------------------------------*- C++ -*----------------------------------*\
  =========                 |
  \\      /  F ield         | OpenFOAM: The Open Source CFD Toolbox
   \\    /   O peration     | Website:  https://openfoam.org
    \\  /    A nd           | Version:  7
     \\/     M anipulation  |
\*---------------------------------------------------------------------------*/
FoamFile
{
    version     2.0;
    format      ascii;
    class       volScalarField;
    location    "1";
    object      rho;
}
// * * * * * * * * * * * * * * * * * * * * * * * * * * * * * * * * * * * * * //

dimensions      [1 -3 0 0 0 0 0];

internalField   nonuniform List<scalar> 
4128
(
1.40001
1.40001
1.40001
1.40001
1.40001
1.40001
1.40001
1.40001
1.40001
1.40001
1.40001
1.40001
1.40001
1.40001
1.40001
1.40001
1.40001
1.55439
4.33852
5.53117
5.61534
5.71378
5.77527
5.84044
1.40001
1.40001
1.40001
1.40001
1.40001
1.40001
1.40001
1.40001
1.40001
1.40001
1.40001
1.40001
1.40001
1.40001
1.40001
1.40001
1.40001
1.50552
4.20211
5.49108
5.5787
5.67064
5.71675
5.74631
1.40001
1.40001
1.40001
1.40001
1.40001
1.40001
1.40001
1.40001
1.40001
1.40001
1.40001
1.40001
1.40001
1.40001
1.40001
1.40001
1.40001
1.41357
3.92293
5.41298
5.49175
5.54911
5.56654
5.60025
1.40001
1.40001
1.40001
1.40001
1.40001
1.40001
1.40001
1.40001
1.40001
1.40001
1.40001
1.40001
1.40001
1.40001
1.40001
1.40001
1.40001
1.40025
3.46889
5.27736
5.378
5.42442
5.39843
5.42675
1.40001
1.40001
1.40001
1.40001
1.40001
1.40001
1.40001
1.40001
1.40001
1.40001
1.40001
1.40001
1.40001
1.40001
1.40001
1.40001
1.40001
1.4
2.89046
5.08515
5.24479
5.21767
4.93626
4.15724
1.40001
1.40001
1.40001
1.40001
1.40001
1.40001
1.40001
1.40001
1.40001
1.40001
1.40001
1.40001
1.40001
1.40001
1.40001
1.40001
1.40001
1.4
2.19186
4.79562
5.15405
5.04109
4.71734
3.97612
1.40001
1.40001
1.40001
1.40001
1.40001
1.40001
1.40001
1.40001
1.40001
1.40001
1.40001
1.40001
1.40001
1.40001
1.40001
1.40001
1.40001
1.40001
1.54969
4.17596
5.07936
4.8718
4.54377
3.83029
1.40001
1.40001
1.40001
1.40001
1.40001
1.40001
1.40001
1.40001
1.40001
1.40001
1.40001
1.40001
1.40001
1.40001
1.40001
1.40001
1.40001
1.40001
1.40299
3.15175
4.84074
4.74251
4.41769
3.83883
1.40001
1.40001
1.40001
1.40001
1.40001
1.40001
1.40001
1.40001
1.40001
1.40001
1.40001
1.40001
1.40001
1.40001
1.40001
1.40001
1.40001
1.40001
1.39997
1.90833
4.49246
4.76525
4.39168
3.8813
1.40001
1.40001
1.40001
1.40001
1.40001
1.40001
1.40001
1.40001
1.40001
1.40001
1.40001
1.40001
1.40001
1.40001
1.40001
1.40001
1.40001
1.40001
1.4
1.44047
3.4789
4.65875
4.34829
3.91251
1.40001
1.40001
1.40001
1.40001
1.40001
1.40001
1.40001
1.40001
1.40001
1.40001
1.40001
1.40001
1.40001
1.40001
1.40001
1.40001
1.40001
1.40001
1.4
1.40011
2.03979
4.26645
4.41533
4.01842
1.40001
1.40001
1.40001
1.40001
1.40001
1.40001
1.40001
1.40001
1.40001
1.40001
1.40001
1.40001
1.40001
1.40001
1.40001
1.40001
1.40001
1.40001
1.4
1.4
1.4578
3.14209
4.38897
4.10335
1.40001
1.40001
1.40001
1.40001
1.40001
1.40001
1.40001
1.40001
1.40001
1.40001
1.40001
1.40001
1.40001
1.40001
1.40001
1.40001
1.40001
1.40001
1.40001
1.40001
1.40053
1.84943
3.80545
4.2014
1.40001
1.40001
1.40001
1.40001
1.40001
1.40001
1.40001
1.40001
1.40001
1.40001
1.40001
1.40001
1.40001
1.40001
1.40001
1.40001
1.40001
1.40001
1.40001
1.40001
1.40001
1.42613
2.47067
3.94296
1.40001
1.40001
1.40001
1.40001
1.40001
1.40001
1.40001
1.40001
1.40001
1.40001
1.40001
1.40001
1.40001
1.40001
1.40001
1.40001
1.40001
1.40001
1.40001
1.40001
1.40001
1.40028
1.55989
2.96747
1.40001
1.40001
1.40001
1.40001
1.40001
1.40001
1.40001
1.40001
1.40001
1.40001
1.40001
1.40001
1.40001
1.40001
1.40001
1.40001
1.40001
1.40001
1.40001
1.40001
1.40001
1.40001
1.40444
1.78335
1.40001
1.40001
1.40001
1.40001
1.40001
1.40001
1.40001
1.40001
1.40001
1.40001
1.40001
1.40001
1.40001
1.40001
1.40001
1.40001
1.40001
1.40001
1.40001
1.40001
1.40001
1.40001
1.40003
1.42151
1.40001
1.40001
1.40001
1.40001
1.40001
1.40001
1.40001
1.40001
1.40001
1.40001
1.40001
1.40001
1.40001
1.40001
1.40001
1.40001
1.40001
1.40001
1.40001
1.40001
1.40001
1.40001
1.40001
1.40026
1.40001
1.40001
1.40001
1.40001
1.40001
1.40001
1.40001
1.40001
1.40001
1.40001
1.40001
1.40001
1.40001
1.40001
1.40001
1.40001
1.40001
1.40001
1.40001
1.40001
1.40001
1.40001
1.40001
1.40001
1.40001
1.40001
1.40001
1.40001
1.40001
1.40001
1.40001
1.40001
1.40001
1.40001
1.40001
1.40001
1.40001
1.40001
1.40001
1.40001
1.40001
1.40001
1.40001
1.40001
1.40001
1.40001
1.40001
1.40001
1.40001
1.40001
1.40001
1.40001
1.40001
1.40001
1.40001
1.40001
1.40001
1.40001
1.40001
1.40001
1.40001
1.40001
1.40001
1.40001
1.40001
1.40001
1.40001
1.40001
1.40001
1.40001
1.40001
1.40001
1.40001
1.40001
1.40001
1.40001
1.40001
1.40001
1.40001
1.40001
1.40001
1.40001
1.40001
1.40001
1.40001
1.40001
1.40001
1.40001
1.40001
1.40001
1.40001
1.40001
1.40001
1.40001
1.40001
1.40001
1.40001
1.40001
1.40001
1.40001
1.40001
1.40001
1.40001
1.40001
1.40001
1.40001
1.40001
1.40001
1.40001
1.40001
1.40001
1.40001
1.40001
1.40001
1.40001
1.40001
1.40001
1.40001
1.40001
1.40001
1.40001
1.40001
1.40001
1.40001
1.40001
1.40001
1.40001
1.40001
1.40001
1.40001
1.40001
1.40001
1.40001
1.40001
1.40001
1.40001
1.40001
1.40001
1.40001
1.40001
1.40001
1.40001
1.40001
1.40001
1.40001
1.40001
1.40001
1.40001
1.40001
1.40001
1.40001
1.40001
1.40001
1.40001
1.40001
1.40001
1.40001
1.40001
1.40001
1.40001
1.40001
1.40001
1.40001
1.40001
1.40001
1.40001
1.40001
1.40001
1.40001
1.40001
1.40001
1.40001
1.40001
1.40001
1.40001
1.40001
1.40001
1.40001
1.40001
1.40001
1.40001
1.40001
1.40001
1.40001
1.40001
1.40001
1.40001
1.40001
1.40001
1.40001
1.40001
1.40001
1.40001
1.40001
1.40001
1.40001
1.40001
1.40001
1.40001
1.40001
1.40001
1.40001
1.40001
1.40001
1.40001
1.40001
1.40001
1.40001
1.40001
1.40001
1.40001
1.40001
1.40001
1.40001
1.40001
1.40001
1.40001
1.40001
1.40001
1.40001
1.40001
1.40001
1.40001
1.40001
1.40001
1.40001
1.40001
1.40001
1.40001
1.40001
1.40001
1.40001
1.40001
1.40001
1.40001
1.40001
1.40001
1.40001
1.40001
1.40001
1.40001
1.40001
1.40001
1.40001
1.40001
1.40001
1.40001
1.40001
1.40001
1.40001
1.40001
1.40001
1.40001
1.40001
1.40001
1.40001
1.40001
1.40001
1.40001
1.40001
1.40001
1.40001
1.40001
1.40001
1.40001
1.40001
1.40001
1.40001
1.40001
1.40001
1.40001
1.40001
1.40001
1.40001
1.40001
1.40001
1.40001
1.40001
1.40001
1.40001
1.40001
1.40001
1.40001
1.40001
1.40001
1.40001
1.40001
1.40001
1.40001
1.40001
1.40001
1.40001
1.40001
1.40001
1.40001
1.40001
1.40001
1.40001
1.40001
1.40001
1.40001
1.40001
1.40001
1.40001
1.40001
1.40001
1.40001
1.40001
1.40001
1.40001
1.40001
1.40001
1.40001
1.40001
1.40001
1.40001
1.40001
1.40001
1.40001
1.40001
1.40001
1.40001
1.40001
1.40001
1.40001
1.40001
1.40001
1.40001
1.40001
1.40001
1.40001
1.40001
1.40001
1.40001
1.40001
1.40001
1.40001
1.40001
1.40001
1.40001
1.40001
1.40001
1.40001
1.40001
1.40001
1.40001
1.40001
1.40001
1.40001
1.40001
1.40001
1.40001
1.40001
1.40001
1.40001
1.40001
1.40001
1.40001
1.40001
1.40001
1.40001
1.40001
1.40001
1.40001
1.40001
1.40001
1.40001
1.40001
1.40001
1.40001
1.40001
1.40001
1.40001
1.40001
1.40001
1.40001
1.40001
1.40001
1.40001
1.40001
1.40001
1.40001
1.40001
1.40001
1.40001
1.40001
1.40001
1.40001
1.40001
1.40001
1.40001
1.40001
1.40001
1.40001
1.40001
1.40001
1.40001
1.40001
1.40001
1.40001
1.40001
1.40001
1.40001
1.40001
1.40001
1.40001
1.40001
1.40001
1.40001
1.40001
1.40001
1.40001
1.40001
1.40001
1.40001
1.40001
1.40001
1.40001
1.40001
1.40001
1.40001
1.40001
1.40001
1.40001
1.40001
1.40001
1.40001
1.40001
1.40001
1.40001
1.40001
1.40001
1.40001
1.40001
1.40001
1.40001
1.40001
1.40001
1.40001
1.40001
1.40001
1.40001
1.40001
1.40001
1.40001
1.40001
1.40001
1.40001
1.40001
1.40001
1.40001
1.40001
1.40001
1.40001
1.40001
1.40001
1.40001
1.40001
1.40001
1.40001
1.40001
1.40001
1.40001
1.40001
1.40001
1.40001
1.40001
1.40001
1.40001
1.40001
1.40001
1.40001
1.40001
1.40001
1.40001
1.40001
1.40001
1.40001
1.40001
1.40001
1.40001
1.40001
1.40001
1.40001
1.40001
1.40001
1.40001
1.40001
1.40001
1.40001
1.40001
1.40001
1.40001
1.40001
1.40001
1.40001
1.40001
1.40001
1.40001
1.40001
1.40001
1.40001
1.40001
1.40001
1.40001
1.40001
1.40001
1.40001
1.40001
1.40001
1.40001
1.40001
1.40001
1.40001
1.40001
1.40001
1.40001
1.40001
1.40001
1.40001
1.40001
1.40001
1.40001
1.40001
1.40001
1.40001
1.40001
1.40001
1.52658
0.763372
0.480813
0.417962
0.44939
0.562007
0.688107
0.818725
0.909167
0.987713
1.02904
1.05136
1.05181
1.04471
1.03514
1.16497
2.32102
2.74835
2.85247
2.92195
2.9518
2.93554
2.8855
2.87889
2.26956
1.48879
1.18717
0.969962
0.852895
0.846413
0.815633
0.806436
0.834648
0.883908
0.936527
0.985092
1.01309
1.02952
1.02884
1.12433
2.28012
2.78474
2.87293
2.92958
2.95167
2.93049
2.8751
2.84949
2.77732
2.07186
1.6637
1.39015
1.1782
1.06168
0.981511
0.876158
0.859713
0.887882
0.935148
0.981838
1.02214
1.05312
1.06344
1.09463
2.18655
2.87611
2.92078
2.94633
2.95295
2.91552
2.83301
2.80411
3.10162
2.51917
2.10299
1.77844
1.49737
1.33234
1.23254
1.11144
1.008
0.992775
0.966311
0.956836
0.97159
1.00161
1.03386
1.0547
1.86999
2.92475
2.98682
2.98479
2.97597
2.93454
2.81917
2.76708
3.30802
2.80087
2.412
2.10107
1.81233
1.60251
1.45369
1.3025
1.16794
1.10982
1.05534
0.990905
0.974407
0.985844
1.00835
1.00996
1.40011
2.82726
3.04479
3.01069
2.98646
2.9211
2.71285
2.24026
3.44693
3.02155
2.66825
2.35831
2.06273
1.84731
1.68418
1.52298
1.36641
1.27986
1.2103
1.12253
1.0572
1.05531
1.03849
1.01528
1.05711
2.3804
3.0323
3.01113
2.97256
2.89129
2.68131
2.24212
3.60715
3.21245
2.87389
2.57983
2.29678
2.06686
1.88923
1.71435
1.5548
1.45895
1.37344
1.2707
1.16648
1.12674
1.08549
1.0268
1.02132
1.70025
2.93491
3.0112
2.96982
2.87302
2.67117
2.27671
3.72538
3.36317
3.04739
2.75943
2.48728
2.26163
2.083
1.90336
1.72438
1.60739
1.51818
1.4182
1.31059
1.2513
1.20103
1.12265
1.0614
1.18419
2.58047
3.01612
2.96351
2.84969
2.65654
2.337
3.87396
3.52138
3.21507
2.93714
2.67755
2.4512
2.25863
2.07769
1.90456
1.77499
1.67226
1.56211
1.44296
1.37435
1.32555
1.25389
1.14462
1.14545
1.86024
2.96536
2.95713
2.83813
2.65087
2.3914
3.97911
3.69438
3.37709
3.08787
2.83465
2.62439
2.43453
2.24792
2.07357
1.92918
1.8117
1.70521
1.59003
1.504
1.44132
1.36876
1.26806
1.19879
1.33475
2.55982
2.97813
2.8641
2.68
2.4584
3.91554
3.85331
3.56989
3.26794
3.01441
2.79477
2.59609
2.41195
2.24626
2.09848
1.96895
1.84752
1.72629
1.63077
1.56641
1.50404
1.40679
1.30268
1.30384
1.81341
2.87113
2.93621
2.7629
2.56022
3.23624
3.83584
3.76281
3.48426
3.19667
2.96928
2.76355
2.57593
2.40766
2.25011
2.11085
1.99396
1.88425
1.76067
1.67576
1.61178
1.53081
1.44401
1.36366
1.42513
2.32633
2.99115
2.86793
2.65812
1.99395
3.34583
3.76009
3.69268
3.43137
3.1603
2.92221
2.72608
2.56789
2.41702
2.2651
2.12977
2.02308
1.90583
1.80482
1.73361
1.6497
1.55778
1.48401
1.44534
1.69917
2.69037
2.96956
2.8077
1.45037
2.1436
3.37926
3.69927
3.63669
3.39621
3.12282
2.90455
2.7331
2.56507
2.40279
2.2822
2.17747
2.05806
1.92641
1.84815
1.77437
1.68726
1.61234
1.51854
1.52832
2.02923
2.81858
2.92752
1.40088
1.48047
2.22885
3.37131
3.63518
3.58819
3.36703
3.09244
2.90524
2.74311
2.57765
2.4188
2.30648
2.19879
2.0825
1.98616
1.9002
1.80136
1.72455
1.65085
1.57108
1.63281
2.29938
2.87357
1.40001
1.40178
1.50249
2.26134
3.31814
3.57869
3.54797
3.34763
3.1078
2.90739
2.72242
2.58364
2.47189
2.35062
2.21209
2.11082
2.02998
1.9341
1.84284
1.77416
1.67856
1.64606
1.79651
2.49191
1.40001
1.40001
1.40262
1.51311
2.23828
3.23655
3.54068
3.51417
3.3402
3.12504
2.91408
2.7285
2.60383
2.48766
2.36598
2.2642
2.16694
2.05324
1.9508
1.89107
1.82398
1.7152
1.7151
1.95519
1.40001
1.40001
1.40002
1.40306
1.51131
2.16778
3.16492
3.49647
3.46522
3.33266
3.12148
2.91696
2.77593
2.64727
2.4854
2.3735
2.2997
2.20876
2.09228
2.00371
1.94842
1.85037
1.76327
1.784
1.40001
1.40001
1.40001
1.40002
1.40303
1.49802
2.08708
3.07853
3.41093
3.4058
3.32841
3.13493
2.94324
2.80046
2.65583
2.5362
2.43027
2.314
2.20013
2.13003
2.07579
2.00233
1.88968
1.81084
1.40001
1.40001
1.40001
1.40001
1.40002
1.40272
1.47649
2.01542
2.88897
3.35167
3.38563
3.32162
3.15569
2.97666
2.7971
2.66551
2.57509
2.47857
2.35815
2.22622
2.15354
2.11857
2.0559
1.96081
1.40001
1.40001
1.40001
1.40001
1.40001
1.40002
1.40187
1.46002
1.89452
2.6937
3.30515
3.3472
3.30843
3.16881
2.99839
2.82605
2.67877
2.59087
2.51261
2.4112
2.31506
2.19736
2.11432
2.07581
1.40001
1.40001
1.40001
1.40001
1.40001
1.40001
1.40001
1.40124
1.44238
1.74938
2.52374
3.23613
3.27599
3.23775
3.17238
3.02777
2.87208
2.73057
2.59399
2.51966
2.46105
2.35385
2.24187
2.15697
1.40001
1.40001
1.40001
1.40001
1.40001
1.40001
1.40001
1.40001
1.40074
1.42367
1.64661
2.41651
3.00545
3.19829
3.24485
3.18917
3.05176
2.90723
2.7669
2.63525
2.54346
2.47145
2.3921
2.30514
1.40001
1.40001
1.40001
1.40001
1.40001
1.40001
1.40001
1.40001
1.40001
1.40035
1.41425
1.58323
2.17886
2.80394
3.1792
3.22557
3.19805
3.08996
2.93563
2.79398
2.66372
2.54278
2.47862
2.43282
1.40001
1.40001
1.40001
1.40001
1.40001
1.40001
1.40001
1.40001
1.40001
1.40001
1.40019
1.40743
1.52295
1.92103
2.55814
3.08921
3.18923
3.16362
3.08176
2.96419
2.83074
2.7068
2.5925
2.4897
1.40001
1.40001
1.40001
1.40001
1.40001
1.40001
1.40001
1.40001
1.40001
1.40001
1.40001
1.40007
1.40435
1.4471
1.71799
2.36439
2.97085
3.06806
3.07812
3.06784
2.98202
2.85664
2.74733
2.6427
1.40001
1.40001
1.40001
1.40001
1.40001
1.40001
1.40001
1.40001
1.40001
1.40001
1.40001
1.40001
1.40003
1.40081
1.42369
1.58808
2.13949
2.70734
3.04292
3.09347
3.08126
3.01797
2.88876
2.77194
1.40001
1.40001
1.40001
1.40001
1.40001
1.40001
1.40001
1.40001
1.40001
1.40001
1.40001
1.40001
1.40001
1.40001
1.40041
1.40831
1.51895
1.89766
2.50586
2.86672
3.05624
3.05689
3.02489
2.9269
1.40001
1.40001
1.40001
1.40001
1.40001
1.40001
1.40001
1.40001
1.40001
1.40001
1.40001
1.40001
1.40001
1.40001
1.40001
1.40008
1.40486
1.44992
1.6945
2.19167
2.76531
2.98882
2.97189
2.95768
1.40001
1.40001
1.40001
1.40001
1.40001
1.40001
1.40001
1.40001
1.40001
1.40001
1.40001
1.40001
1.40001
1.40001
1.40001
1.40001
1.40005
1.40098
1.41962
1.54473
1.9417
2.44582
2.86124
2.98148
1.40001
1.40001
1.40001
1.40001
1.40001
1.40001
1.40001
1.40001
1.40001
1.40001
1.40001
1.40001
1.40001
1.40001
1.40001
1.40001
1.40001
1.40001
1.4003
1.4055
1.46113
1.71016
2.22731
2.67091
1.40001
1.40001
1.40001
1.40001
1.40001
1.40001
1.40001
1.40001
1.40001
1.40001
1.40001
1.40001
1.40001
1.40001
1.40001
1.40001
1.40001
1.40001
1.40001
1.40004
1.40153
1.42477
1.55289
1.95598
1.40001
1.40001
1.40001
1.40001
1.40001
1.40001
1.40001
1.40001
1.40001
1.40001
1.40001
1.40001
1.40001
1.40001
1.40001
1.40001
1.40001
1.40001
1.40001
1.40001
1.40001
1.40041
1.40625
1.4737
1.40001
1.40001
1.40001
1.40001
1.40001
1.40001
1.40001
1.40001
1.40001
1.40001
1.40001
1.40001
1.40001
1.40001
1.40001
1.40001
1.40001
1.40001
1.40001
1.40001
1.40001
1.40001
1.40006
1.40198
1.40001
1.40001
1.40001
1.40001
1.40001
1.40001
1.40001
1.40001
1.40001
1.40001
1.40001
1.40001
1.40001
1.40001
1.40001
1.40001
1.40001
1.40001
1.40001
1.40001
1.40001
1.40001
1.40001
1.40001
1.40001
1.40001
1.40001
1.40001
1.40001
1.40001
1.40001
1.40001
1.40001
1.40001
1.40001
1.40001
1.40001
1.40001
1.40001
1.40001
1.40001
1.40001
1.40001
1.40001
1.40001
1.40001
1.40001
1.40001
0.917466
0.490187
0.356348
0.377886
0.444456
0.525896
0.618659
0.681611
0.72018
0.747655
0.7538
0.75779
0.766767
0.76472
0.757786
0.755545
0.754438
0.752606
0.749566
0.744166
0.73976
0.737939
0.735969
0.731891
0.725626
0.718025
0.709979
0.702624
0.696189
0.690665
0.685719
0.679916
0.670823
0.657393
0.643912
0.635016
0.629622
0.626204
0.625632
0.626994
0.630766
0.634607
0.636705
0.638366
0.640731
0.64364
0.647763
0.65393
0.658752
0.661777
0.664356
0.66674
0.668694
0.670045
0.670972
0.671989
0.673517
0.674829
0.675199
0.675693
0.6777
0.681277
0.685581
0.689876
0.694412
0.700757
0.711163
0.726033
0.736787
0.738389
0.737695
0.74161
1.33861
0.982566
0.751146
0.671232
0.655145
0.631379
0.63208
0.651285
0.681805
0.717567
0.749053
0.762964
0.769884
0.774159
0.770761
0.771813
0.77092
0.769861
0.769209
0.765391
0.762796
0.761129
0.758252
0.752461
0.744893
0.736775
0.727887
0.718363
0.708619
0.698936
0.69055
0.683572
0.675232
0.663955
0.652433
0.644481
0.639126
0.634329
0.629877
0.628691
0.630367
0.632492
0.634465
0.637324
0.640672
0.643391
0.646908
0.652359
0.655365
0.65651
0.657108
0.658066
0.659505
0.661128
0.662874
0.665183
0.668123
0.671074
0.673383
0.674606
0.675569
0.677966
0.681929
0.686673
0.691905
0.697746
0.705005
0.714314
0.725026
0.73402
0.739899
0.750657
1.685
1.33272
1.08372
0.90883
0.821474
0.758083
0.685145
0.682249
0.707226
0.74845
0.784842
0.803024
0.816546
0.835982
0.852063
0.851214
0.842365
0.836959
0.832012
0.822799
0.813276
0.805441
0.79912
0.791529
0.784918
0.778502
0.77126
0.762332
0.751315
0.738243
0.722917
0.70647
0.690816
0.676612
0.664716
0.657088
0.652871
0.649509
0.645578
0.640948
0.636405
0.632213
0.629404
0.62966
0.631717
0.63709
0.644063
0.645907
0.645356
0.64328
0.64164
0.641113
0.641159
0.642205
0.644491
0.647999
0.652073
0.656072
0.659903
0.663848
0.667849
0.671177
0.67554
0.682215
0.689407
0.695731
0.701143
0.706561
0.714057
0.723372
0.733685
0.756068
1.9381
1.61735
1.37013
1.16458
1.02727
0.951454
0.858227
0.796138
0.77638
0.765386
0.767832
0.782148
0.805704
0.838336
0.874453
0.886321
0.886893
0.891627
0.897938
0.894508
0.879246
0.860437
0.850675
0.848224
0.843817
0.838239
0.830873
0.820361
0.806917
0.791745
0.774706
0.755807
0.737068
0.719925
0.704075
0.690504
0.680508
0.673264
0.667811
0.661959
0.651371
0.636006
0.626472
0.625303
0.626724
0.63284
0.639554
0.639797
0.637381
0.631953
0.62619
0.623915
0.62263
0.622021
0.622782
0.625329
0.628095
0.630956
0.635192
0.641064
0.646882
0.652297
0.659556
0.670487
0.68057
0.686835
0.692249
0.699386
0.708349
0.716619
0.728119
0.755628
2.08923
1.82033
1.59457
1.39812
1.22802
1.11388
1.02631
0.935199
0.867459
0.831383
0.795239
0.789009
0.796444
0.819177
0.854279
0.873363
0.883373
0.894055
0.911975
0.931265
0.931953
0.92365
0.916839
0.912066
0.901873
0.893312
0.886054
0.877488
0.864575
0.845349
0.823035
0.802381
0.784633
0.768732
0.753526
0.740106
0.728637
0.717203
0.70514
0.692335
0.673795
0.648556
0.635646
0.633003
0.632588
0.634066
0.637186
0.637877
0.6353
0.627491
0.618646
0.615778
0.614332
0.613866
0.613358
0.61157
0.610312
0.610269
0.611995
0.615689
0.622282
0.630751
0.64101
0.654539
0.664837
0.671232
0.678349
0.687716
0.700543
0.713909
0.727806
0.754112
2.2053
1.97307
1.77432
1.59156
1.4181
1.27027
1.1772
1.09247
0.992809
0.939203
0.898931
0.847077
0.825765
0.827197
0.828279
0.834614
0.850693
0.870219
0.895394
0.923813
0.941626
0.945285
0.958064
0.96386
0.956202
0.944442
0.93094
0.919967
0.908961
0.889856
0.868863
0.851908
0.836022
0.819324
0.803107
0.791165
0.7817
0.770231
0.753791
0.732001
0.704704
0.674198
0.659612
0.652492
0.646145
0.643543
0.6435
0.642318
0.637106
0.626218
0.616563
0.614172
0.613437
0.613961
0.613645
0.610957
0.60585
0.602849
0.601619
0.60136
0.604612
0.614063
0.625199
0.636054
0.645205
0.653113
0.661832
0.67299
0.689031
0.708323
0.724393
0.746201
2.33069
2.10608
1.9174
1.75133
1.58662
1.42578
1.30509
1.21955
1.13246
1.04164
0.993769
0.94614
0.887505
0.853396
0.837019
0.82845
0.828029
0.833349
0.849923
0.881571
0.917094
0.938546
0.95681
0.978704
0.994162
0.988633
0.97364
0.953859
0.940003
0.922647
0.907745
0.898222
0.8859
0.86849
0.852882
0.842448
0.831997
0.818085
0.798149
0.772056
0.744012
0.719471
0.701974
0.687587
0.674462
0.665106
0.660535
0.655681
0.646967
0.633196
0.622974
0.61992
0.618415
0.617363
0.615843
0.613576
0.609576
0.603523
0.600785
0.6
0.600754
0.606639
0.616046
0.624533
0.632855
0.64104
0.649215
0.660361
0.677264
0.700759
0.717787
0.736926
2.44339
2.22406
2.03242
1.87545
1.72074
1.56743
1.44147
1.33652
1.24451
1.15126
1.08769
1.0498
0.996476
0.925929
0.892513
0.869905
0.842087
0.836683
0.837562
0.849452
0.867517
0.900503
0.933199
0.964336
1.00014
1.00857
1.0005
0.984628
0.972927
0.960172
0.947509
0.939962
0.926935
0.90961
0.900902
0.891312
0.877026
0.857901
0.836385
0.812625
0.790599
0.772198
0.754313
0.738352
0.722271
0.706048
0.697085
0.688521
0.674515
0.656598
0.643753
0.636381
0.630532
0.625844
0.623009
0.620956
0.617618
0.611253
0.606647
0.606015
0.606525
0.609351
0.615785
0.622701
0.627993
0.633427
0.640957
0.652776
0.669456
0.694072
0.710857
0.729996
2.58189
2.3663
2.16239
1.99703
1.85248
1.70143
1.56734
1.46239
1.36894
1.27758
1.1913
1.13629
1.09227
1.02967
0.964043
0.928982
0.892359
0.853115
0.841316
0.847285
0.863345
0.869237
0.89094
0.924372
0.96908
1.00441
1.00486
1.01
1.01108
1.00454
0.991335
0.98128
0.963619
0.947003
0.941696
0.931485
0.912014
0.89063
0.874698
0.85826
0.840481
0.826334
0.812191
0.797776
0.781622
0.762082
0.745446
0.730948
0.712689
0.693984
0.680647
0.671284
0.662803
0.65433
0.646667
0.639912
0.63322
0.62529
0.619103
0.617324
0.617174
0.618496
0.622527
0.626024
0.628072
0.630797
0.63703
0.649406
0.666694
0.691214
0.706922
0.727538
2.75237
2.52708
2.32613
2.14022
1.97786
1.83827
1.70637
1.5875
1.48595
1.39816
1.31727
1.24185
1.18135
1.12334
1.05102
1.00187
0.97687
0.938554
0.89044
0.881942
0.877941
0.875868
0.875382
0.88325
0.906069
0.954136
0.996134
1.0128
1.02689
1.03671
1.03336
1.02467
1.00654
0.984582
0.974601
0.963666
0.943181
0.927403
0.919155
0.905958
0.890796
0.881288
0.870659
0.859267
0.844994
0.824842
0.803312
0.783549
0.762626
0.742144
0.726351
0.714565
0.704394
0.694257
0.684277
0.673423
0.660808
0.651621
0.645307
0.638325
0.633923
0.63306
0.634117
0.635809
0.637392
0.640342
0.647098
0.659945
0.680051
0.711161
0.736439
0.78431
2.88467
2.71576
2.49583
2.30603
2.13051
1.97841
1.84645
1.72023
1.61122
1.52193
1.44169
1.35525
1.27774
1.2198
1.15447
1.08988
1.05888
1.02785
0.98076
0.936293
0.919603
0.900299
0.877873
0.877422
0.889457
0.914508
0.960777
0.994255
1.01086
1.03181
1.05531
1.05509
1.04333
1.02459
1.00657
0.996079
0.980916
0.970396
0.964341
0.950717
0.938577
0.933265
0.926841
0.915567
0.900121
0.878396
0.854165
0.832669
0.811572
0.792471
0.778079
0.766646
0.756475
0.746468
0.735436
0.721913
0.704174
0.689089
0.679594
0.669087
0.658324
0.653244
0.653021
0.65526
0.663696
0.681893
0.716431
0.759858
0.816175
0.885489
0.938549
1.03077
2.89508
2.86439
2.69152
2.48262
2.29354
2.13813
2.00774
1.87662
1.74152
1.64521
1.56564
1.48285
1.39231
1.32215
1.25752
1.19354
1.14853
1.12071
1.08298
1.02132
0.987928
0.966081
0.926984
0.903144
0.904613
0.918464
0.938612
0.955718
0.97429
1.00389
1.03957
1.06005
1.06016
1.0559
1.04844
1.03845
1.02362
1.01497
1.0051
0.986286
0.977855
0.976008
0.970908
0.958244
0.942412
0.922916
0.899979
0.881061
0.865174
0.851346
0.840171
0.830107
0.818571
0.805121
0.790036
0.769835
0.746041
0.729339
0.719851
0.711441
0.708053
0.714308
0.731341
0.764392
0.82111
0.8968
0.989765
1.06601
1.14056
1.20839
1.25564
1.3304
2.6219
2.89232
2.84761
2.68829
2.48435
2.29863
2.1686
2.04277
1.90689
1.78433
1.6894
1.60343
1.51348
1.43883
1.3764
1.30118
1.24605
1.21425
1.17615
1.12228
1.0678
1.03935
1.00237
0.95473
0.938432
0.942595
0.94886
0.954852
0.964741
0.978723
1.00479
1.04281
1.05704
1.06282
1.07986
1.08348
1.0761
1.06301
1.04755
1.02458
1.0078
1.00522
1.00256
0.992725
0.979862
0.965848
0.948415
0.933548
0.922579
0.913025
0.902737
0.891467
0.877627
0.859787
0.839635
0.815519
0.791573
0.78674
0.789943
0.804739
0.839598
0.900344
0.977681
1.07131
1.16911
1.26197
1.33236
1.38484
1.41544
1.43794
1.46096
1.50657
2.08918
2.68089
2.88375
2.8479
2.7031
2.50094
2.34129
2.20087
2.06239
1.94517
1.84307
1.73787
1.6289
1.55531
1.50628
1.43294
1.35992
1.31544
1.27627
1.21738
1.15684
1.12159
1.09407
1.0495
1.00375
0.997211
0.990085
0.972948
0.972261
0.979598
0.992719
1.01205
1.04087
1.06136
1.08029
1.09826
1.1072
1.1026
1.09
1.07105
1.0484
1.03907
1.03339
1.0242
1.01668
1.00736
0.994763
0.984964
0.977093
0.96778
0.95571
0.939849
0.922965
0.904982
0.883667
0.880203
0.896581
0.94214
1.01232
1.09014
1.18894
1.28973
1.37093
1.43659
1.47954
1.5173
1.53167
1.55455
1.55735
1.55712
1.56773
1.59917
1.84551
2.17062
2.70043
2.8808
2.86526
2.73324
2.54135
2.37473
2.21712
2.09513
1.9966
1.89313
1.77033
1.688
1.62812
1.56015
1.47994
1.43157
1.38517
1.32319
1.248
1.21081
1.18956
1.14955
1.09207
1.06687
1.05087
1.02119
0.991652
0.987654
0.991359
1.00359
1.02536
1.04749
1.06566
1.08379
1.10295
1.11429
1.11564
1.11186
1.09915
1.08424
1.07084
1.06125
1.05429
1.04347
1.03147
1.02369
1.01643
1.00688
0.994394
0.979023
0.968042
0.977633
1.01809
1.10031
1.21952
1.34185
1.43846
1.50031
1.56143
1.6044
1.62916
1.64222
1.63931
1.6288
1.62225
1.62922
1.63159
1.6243
1.62423
1.6477
1.88384
1.91121
2.21356
2.69969
2.87012
2.87747
2.77009
2.59287
2.39655
2.23299
2.14194
2.04631
1.93276
1.82745
1.76558
1.69521
1.60512
1.54028
1.49552
1.43284
1.35072
1.31187
1.28588
1.251
1.18822
1.14562
1.13198
1.10189
1.05127
1.01969
1.01947
1.02436
1.03172
1.04027
1.05039
1.06576
1.08792
1.106
1.1165
1.12963
1.13477
1.12981
1.11933
1.10687
1.09443
1.07854
1.0611
1.05272
1.04664
1.03993
1.03868
1.05544
1.11101
1.2351
1.41474
1.58392
1.68466
1.74698
1.74509
1.74223
1.74719
1.7531
1.74698
1.73993
1.72079
1.6877
1.66879
1.66129
1.66025
1.65569
1.65325
1.67059
2.01117
1.9467
1.97128
2.25439
2.69803
2.85338
2.89669
2.80337
2.62197
2.4293
2.29922
2.19156
2.06991
1.98145
1.91366
1.83239
1.72889
1.6477
1.61023
1.5506
1.46741
1.4096
1.38815
1.35556
1.2898
1.23643
1.21271
1.18467
1.12693
1.07904
1.07821
1.07726
1.05979
1.05258
1.05819
1.06856
1.08311
1.0952
1.10597
1.1246
1.14262
1.14526
1.14845
1.14638
1.13721
1.12069
1.10033
1.08765
1.09129
1.11795
1.1966
1.36106
1.57029
1.77209
1.88472
1.94749
1.9334
1.89765
1.86753
1.84511
1.83276
1.82074
1.80691
1.7888
1.75983
1.7202
1.68164
1.65814
1.65506
1.65891
1.66041
1.67033
2.08471
2.02853
1.99706
2.0288
2.30297
2.67864
2.8595
2.91321
2.8306
2.6568
2.48468
2.36246
2.22538
2.11864
2.04954
1.97373
1.85864
1.77127
1.72276
1.66915
1.58097
1.52267
1.49407
1.45533
1.39115
1.32452
1.30107
1.27544
1.22407
1.16277
1.1517
1.14432
1.11871
1.0865
1.08155
1.08449
1.08696
1.08859
1.09524
1.11058
1.13747
1.15067
1.15498
1.16232
1.16289
1.16241
1.16958
1.19625
1.2894
1.47086
1.74427
1.96059
2.0883
2.14648
2.11072
2.04633
1.99982
1.95727
1.93535
1.90358
1.86884
1.84351
1.82221
1.79642
1.76937
1.73283
1.68807
1.66662
1.66029
1.65892
1.66824
1.67821
2.20238
2.11081
2.06256
2.0513
2.0841
2.32167
2.65157
2.88138
2.90323
2.84238
2.70444
2.55497
2.39436
2.25441
2.18378
2.10508
1.99817
1.88592
1.84047
1.7926
1.7108
1.6344
1.60034
1.56239
1.48802
1.41882
1.38943
1.36726
1.32779
1.259
1.23691
1.22786
1.19811
1.14969
1.11727
1.11396
1.10433
1.09633
1.0988
1.10941
1.13116
1.14991
1.16076
1.17829
1.2154
1.29279
1.42207
1.60875
1.83095
2.09801
2.3201
2.34017
2.30383
2.24278
2.16397
2.083
2.03602
2.00985
1.97925
1.935
1.88614
1.84281
1.8108
1.78981
1.77281
1.74934
1.71642
1.69473
1.68617
1.69104
1.6986
1.67854
2.36757
2.27246
2.14635
2.09269
2.09579
2.12319
2.30734
2.65785
2.87831
2.88748
2.85381
2.75192
2.6037
2.43421
2.32272
2.23915
2.11693
2.01034
1.96599
1.92082
1.83905
1.75141
1.71197
1.6676
1.59436
1.50485
1.47671
1.4626
1.42758
1.36013
1.32975
1.31615
1.28565
1.22061
1.17153
1.16807
1.15734
1.13416
1.12835
1.13332
1.15089
1.18497
1.24947
1.36082
1.50465
1.71488
1.95232
2.11181
2.2844
2.46155
2.47733
2.43992
2.34957
2.26772
2.19431
2.12424
2.0679
2.04007
2.00844
1.96823
1.9245
1.8588
1.8089
1.79868
1.79935
1.79244
1.76696
1.74298
1.71523
1.67519
1.66042
1.63419
2.44795
2.40304
2.3208
2.21161
2.12257
2.1164
2.13881
2.30698
2.67301
2.84588
2.88257
2.87085
2.79644
2.6432
2.48586
2.38912
2.27463
2.14216
2.08129
2.03995
1.96256
1.86787
1.81823
1.77758
1.69807
1.60067
1.57486
1.56014
1.53132
1.45991
1.41324
1.40036
1.37081
1.30888
1.24651
1.23151
1.22717
1.21359
1.22146
1.25111
1.33356
1.46386
1.65751
1.84332
2.00356
2.17904
2.27294
2.34723
2.45472
2.49442
2.48144
2.41759
2.34169
2.28929
2.22467
2.14424
2.09112
2.0649
2.03924
1.98832
1.91444
1.86061
1.84075
1.82477
1.79745
1.77151
1.74678
1.72272
1.69449
1.65301
1.61802
1.56944
2.54077
2.44659
2.40675
2.35366
2.26413
2.16644
2.13725
2.15663
2.321
2.63465
2.82647
2.89605
2.89166
2.81885
2.68478
2.56038
2.43316
2.2858
2.21667
2.16774
2.09438
1.97238
1.9079
1.87895
1.82114
1.72823
1.67084
1.65397
1.62346
1.55596
1.50059
1.48156
1.45509
1.40012
1.35287
1.35588
1.38717
1.4623
1.56192
1.69759
1.86237
2.02813
2.1758
2.25081
2.33152
2.37585
2.38138
2.41926
2.47205
2.47051
2.4359
2.38756
2.3447
2.28634
2.21409
2.15908
2.12461
2.07869
2.01696
1.95023
1.89541
1.84984
1.81182
1.7881
1.76527
1.74669
1.73393
1.71454
1.67815
1.62311
1.5684
1.51239
2.66282
2.56334
2.47046
2.40791
2.37341
2.31278
2.22984
2.1681
2.1768
2.31375
2.56778
2.81406
2.91031
2.90271
2.83527
2.72575
2.61286
2.46963
2.34694
2.28102
2.21193
2.11626
2.02753
1.9732
1.91896
1.83747
1.78021
1.75413
1.72848
1.65894
1.59012
1.58805
1.59096
1.59954
1.64717
1.72848
1.85991
2.02929
2.17342
2.31913
2.36556
2.43034
2.47578
2.46205
2.45586
2.4362
2.40801
2.4114
2.42636
2.41987
2.39336
2.35448
2.31278
2.25716
2.20003
2.1527
2.0992
2.04241
1.98618
1.91841
1.85804
1.82418
1.79443
1.76825
1.74904
1.72819
1.70163
1.67251
1.63446
1.57621
1.52264
1.48073
2.80617
2.69933
2.60459
2.53072
2.44054
2.37346
2.33832
2.2769
2.21013
2.20792
2.29924
2.51498
2.80417
2.89529
2.87695
2.84363
2.77173
2.64749
2.52474
2.42294
2.33126
2.2314
2.13577
2.07036
2.02538
1.96789
1.88212
1.85972
1.87469
1.85961
1.86778
1.89531
1.96597
2.11479
2.28695
2.41566
2.55152
2.62594
2.67842
2.6886
2.68901
2.68476
2.66479
2.62345
2.57148
2.52348
2.49325
2.45997
2.41707
2.38519
2.36764
2.33928
2.2925
2.25127
2.2185
2.16292
2.08529
2.01805
1.96496
1.89761
1.83593
1.80931
1.78623
1.76159
1.73682
1.71139
1.68135
1.64747
1.60458
1.54174
1.49853
1.46825
2.92748
2.83916
2.73034
2.65768
2.5738
2.49361
2.38971
2.33845
2.29585
2.24584
2.23217
2.28867
2.49559
2.76365
2.85271
2.87369
2.86633
2.80201
2.6888
2.57575
2.46029
2.36711
2.27506
2.16966
2.1353
2.1421
2.14272
2.18039
2.25847
2.39905
2.53139
2.61485
2.70148
2.82417
2.89002
2.91632
2.91837
2.91154
2.88259
2.83481
2.80509
2.76767
2.71592
2.65227
2.59584
2.5556
2.51782
2.46121
2.41962
2.40951
2.39443
2.35829
2.30727
2.25609
2.19728