/*--------------------------------*- C++ -*----------------------------------*\
  =========                 |
  \\      /  F ield         | OpenFOAM: The Open Source CFD Toolbox
   \\    /   O peration     | Website:  https://openfoam.org
    \\  /    A nd           | Version:  7
     \\/     M anipulation  |
\*---------------------------------------------------------------------------*/
FoamFile
{
    version     2.0;
    format      ascii;
    class       volScalarField;
    location    "0.7";
    object      rho;
}
// * * * * * * * * * * * * * * * * * * * * * * * * * * * * * * * * * * * * * //

dimensions      [1 -3 0 0 0 0 0];

internalField   nonuniform List<scalar> 
16512
(
2.80601
2.77197
2.73847
2.70949
2.68028
2.659
2.63481
2.60659
2.57246
2.52571
2.48899
2.47599
2.46004
2.44229
2.42454
2.40664
2.38343
2.34735
2.30128
2.25468
2.22688
2.21825
2.20941
2.19607
2.17966
2.16199
2.14035
2.11393
2.08855
2.06931
2.052
2.03163
2.00438
1.97304
1.94644
1.93735
1.93379
1.93202
1.92577
1.916
1.89723
1.86334
1.81715
1.77926
1.76514
1.76219
1.76424
1.7654
1.75967
1.75384
1.74677
1.73329
1.7033
1.65847
1.62393
1.61417
1.61228
1.61453
1.61536
1.61191
1.6073
1.60053
1.58442
1.55479
1.52301
1.50633
1.50315
1.50268
1.50194
1.49808
1.49261
1.47977
1.45337
1.42748
1.41795
1.41513
1.41199
1.40745
1.40226
1.39642
1.38884
1.37659
1.3593
1.34845
1.34261
1.33627
1.32753
1.31404
1.29793
1.29105
1.28966
1.29014
1.29047
1.2879
1.28443
1.27682
1.26189
1.24448
1.22896
1.21315
1.2014
1.19861
1.19761
1.19681
1.19401
1.19119
1.19032
1.18849
1.18495
1.18026
1.17382
1.16054
1.1424
1.13126
1.12821
1.12614
1.12545
1.12561
1.12428
1.12089
1.11042
1.11396
1.57381
2.69977
2.95802
2.99637
3.01305
3.01852
3.01143
2.979
2.93556
2.92047
2.91616
2.91701
2.91898
2.9123
2.90219
2.88107
2.84194
2.79918
2.7734
2.75381
2.73478
2.71493
2.69206
2.66179
2.61721
2.56463
2.52901
2.50286
2.47659
2.44856
3.72651
3.68538
3.63875
3.59467
3.55167
3.509
3.46959
3.43126
3.40035
3.36616
3.32861
3.28845
3.24132
3.20605
3.17321
3.13794
3.10718
3.0708
3.03684
3.00355
2.96595
2.93168
2.89398
2.86117
2.83002
2.79447
2.7651
2.73382
2.70948
2.68569
2.65735
2.62533
2.58203
2.54176
2.5269
2.51139
2.4926
2.4742
2.45546
2.43278
2.39798
2.35188
2.30616
2.27319
2.2626
2.25332
2.24044
2.22382
2.20625
2.18576
2.16099
2.13409
2.10942
2.08764
2.06512
2.03859
2.00906
1.98529
1.97672
1.97374
1.97137
1.96425
1.95383
1.93423
1.89992
1.85414
1.81591
1.80099
1.7978
1.79963
1.80158
1.79527
1.78876
1.78145
1.76828
1.73906
1.69391
1.65635
1.64418
1.64171
1.64338
1.64528
1.64136
1.63655
1.62982
1.61424
1.58461
1.55197
1.5348
1.53149
1.53116
1.53055
1.52634
1.52082
1.50874
1.48273
1.45428
1.44192
1.43861
1.43619
1.43314
1.42912
1.42441
1.41831
1.408
1.38883
1.37029
1.36191
1.35582
1.3479
1.33593
1.32132
1.31466
1.31323
1.31335
1.31372
1.31128
1.30721
1.29754
1.27985
1.26083
1.24499
1.23193
1.22457
1.22084
1.21751
1.21512
1.21369
1.21037
1.2077
1.20635
1.20372
1.19939
1.19275
1.18045
1.16166
1.14937
1.14597
1.1432
1.14136
1.1411
1.14028
1.13769
1.13388
1.12383
1.1077
1.1608
2.07247
2.88759
2.9984
3.01766
3.02309
3.0136
2.97788
2.94113
2.93182
2.92763
2.93032
2.93064
2.92239
2.91052
2.88614
2.84354
2.8065
2.7861
2.76711
2.74744
2.72677
2.70295
2.6706
2.62327
2.57278
2.54174
2.51772
2.49317
2.46696
3.75559
3.71119
3.66558
3.62123
3.57624
3.53433
3.49203
3.46036
3.43035
3.3941
3.35753
3.31279
3.26922
3.23378
3.1965
3.16408
3.13051
3.09766
3.06809
3.03139
2.99683
2.96014
2.92131
2.8893
2.8528
2.81953
2.78745
2.75968
2.73715
2.70925
2.67851
2.63937
2.59649
2.57807
2.56303
2.54299
2.52403
2.50479
2.48276
2.44943
2.40431
2.35805
2.3217
2.30856
2.29864
2.28564
2.26866
2.25077
2.23072
2.2076
2.18095
2.15293
2.12647
2.10058
2.07314
2.04479
2.02455
2.0168
2.01415
2.01068
2.00262
1.99137
1.9708
1.93642
1.89128
1.85322
1.83755
1.83394
1.83499
1.83758
1.83128
1.82419
1.81647
1.80343
1.77492
1.73017
1.68992
1.67508
1.67202
1.67243
1.67502
1.67127
1.66608
1.65944
1.64464
1.61525
1.58154
1.56345
1.56002
1.55953
1.55883
1.55473
1.54895
1.53709
1.51172
1.48198
1.46727
1.46356
1.46129
1.45918
1.45597
1.45227
1.44746
1.43853
1.41866
1.39468
1.38184
1.37541
1.36836
1.35806
1.34547
1.33908
1.33732
1.33723
1.33699
1.33427
1.32941
1.31734
1.29806
1.278
1.26248
1.25146
1.2467
1.24381
1.24029
1.23505
1.23145
1.23023
1.22686
1.22396
1.22178
1.21842
1.21256
1.20115
1.18163
1.16574
1.16324
1.16113
1.15811
1.15671
1.15633
1.15448
1.15099
1.1454
1.13319
1.11094
1.10866
1.37428
2.53775
3.00461
3.0156
3.02273
3.01192
2.97356
2.9478
2.94295
2.94153
2.94848
2.94587
2.936
2.92006
2.88747
2.8401
2.8116
2.79622
2.77914
2.76042
2.73997
2.71523
2.67975
2.62858
2.58083
2.55448
2.53291
2.51065
2.48699
3.77646
3.73226
3.68996
3.64557
3.60436
3.56126
3.52109
3.4901
3.45591
3.42087
3.38222
3.33954
3.30167
3.26231
3.22575
3.18914
3.15203
3.12542
3.0934
3.05817
3.026
2.98752
2.95228
2.91486
2.8772
2.84414
2.8105
2.78818
2.76234
2.73258
2.6981
2.65441
2.63006
2.61497
2.59389
2.57362
2.55346
2.53236
2.50159
2.45845
2.41094
2.37331
2.3562
2.34545
2.33216
2.31419
2.29592
2.27575
2.25379
2.22887
2.20014
2.16978
2.13927
2.10923
2.08161
2.0646
2.05764
2.05501
2.04998
2.04089
2.02876
2.00747
1.97307
1.92866
1.89105
1.8749
1.87098
1.87114
1.87348
1.86769
1.86021
1.852
1.83889
1.81088
1.76706
1.72443
1.70678
1.70307
1.7024
1.70488
1.70167
1.69607
1.68946
1.67516
1.64631
1.61164
1.59216
1.58851
1.58812
1.58764
1.58331
1.57751
1.56593
1.54048
1.5098
1.49309
1.48923
1.48716
1.48612
1.48312
1.47929
1.47498
1.46704
1.44722
1.42073
1.40276
1.39528
1.38901
1.38064
1.37033
1.36433
1.362
1.36122
1.36045
1.35751
1.35146
1.33686
1.31551
1.29538
1.28158
1.2738
1.27039
1.26755
1.26365
1.25745
1.2496
1.24741
1.2467
1.24347
1.23989
1.23674
1.23215
1.22271
1.20331
1.18344
1.17833
1.17816
1.17625
1.173
1.17165
1.17072
1.16817
1.16365
1.15492
1.13752
1.11904
1.11538
1.13596
1.78361
2.87245
3.01987
3.02121
2.99932
2.96452
2.95475
2.95357
2.96047
2.97002
2.96377
2.95194
2.9283
2.88345
2.83674
2.81742
2.80518
2.79099
2.77434
2.75482
2.72925
2.69002
2.6351
2.59104
2.56825
2.54871
2.52867
2.50732
3.79736
3.75669
3.71475
3.67344
3.63388
3.59165
3.5551
3.51689
3.47698
3.43776
3.39841
3.36557
3.32967
3.2924
3.257
3.21331
3.17957
3.15041
3.11534
3.08479
3.0507
3.01627
2.97976
2.93884
2.90359
2.86527
2.83821
2.81529
2.78642
2.75579
2.71556
2.6841
2.66786
2.64605
2.62361
2.60193
2.58034
2.55249
2.51265
2.4648
2.42731
2.40593
2.39421
2.38087
2.36182
2.34201
2.3216
2.29978
2.27599
2.24794
2.21647
2.18256
2.14924
2.1218
2.10732
2.10051
2.09677
2.08959
2.07927
2.06612
2.0445
2.01016
1.96637
1.92899
1.91282
1.90889
1.9085
1.90994
1.90463
1.89684
1.88827
1.87482
1.84718
1.80395
1.76004
1.73981
1.73509
1.73335
1.73509
1.73276
1.72693
1.72012
1.70598
1.67742
1.64208
1.6211
1.61703
1.61665
1.61655
1.61235
1.6067
1.59548
1.56993
1.53742
1.51874
1.5149
1.51349
1.51327
1.51102
1.50707
1.50233
1.49432
1.47492
1.44651
1.42485
1.41579
1.41004
1.40367
1.39618
1.39064
1.38742
1.38569
1.38418
1.3811
1.37395
1.35661
1.33283
1.31308
1.30215
1.29764
1.29479
1.29198
1.28789
1.28088
1.26985
1.26437
1.26361
1.26314
1.25978
1.25548
1.25112
1.24387
1.22646
1.20362
1.19376
1.19292
1.19318
1.19134
1.18768
1.18599
1.1844
1.18105
1.17489
1.16189
1.14094
1.13193
1.13006
1.1325
1.25349
2.31368
2.99037
3.01034
2.99256
2.96347
2.96301
2.96817
2.98342
2.98871
2.98105
2.96547
2.93125
2.87689
2.83815
2.82492
2.81445
2.80307
2.78842
2.76999
2.74369
2.70122
2.64424
2.60437
2.58356
2.56524
2.54683
2.52707
3.82034
3.77835
3.73623
3.69842
3.65897
3.62243
3.58439
3.54268
3.49996
3.45328
3.41993
3.3912
3.3563
3.32398
3.28512
3.24205
3.20878
3.17197
3.1375
3.10453
3.07259
3.04161
3.00232
2.96478
2.92702
2.89019
2.86743
2.84
2.81098
2.77682
2.74056
2.72126
2.69963
2.67513
2.65209
2.62807
2.60168
2.56548
2.51869
2.48072
2.45683
2.44306
2.4304
2.4111
2.38995
2.36836
2.34622
2.32321
2.29586
2.26428
2.22821
2.19202
2.16464
2.15199
2.14528
2.13953
2.1301
2.11825
2.10385
2.08229
2.04812
2.00467
1.9669
1.95059
1.9468
1.94657
1.94729
1.94188
1.93409
1.92504
1.91138
1.88435
1.84162
1.79683
1.77431
1.76877
1.76584
1.76622
1.7645
1.75864
1.75156
1.73728
1.70861
1.67286
1.65074
1.64611
1.64545
1.64573
1.64145
1.63593
1.62542
1.60016
1.56602
1.54469
1.54034
1.53926
1.5407
1.53898
1.53501
1.5304
1.52279
1.50326
1.47231
1.44704
1.43663
1.43175
1.42715
1.4228
1.41822
1.4141
1.41105
1.40849
1.40495
1.39676
1.37753
1.35137
1.33136
1.32312
1.32118
1.31986
1.31642
1.31234
1.30522
1.29147
1.28207
1.28047
1.28056
1.27948
1.27555
1.2706
1.26405
1.25022
1.22654
1.21056
1.20835
1.2078
1.20828
1.20612
1.20216
1.19989
1.19757
1.19316
1.18479
1.16763
1.14925
1.14607
1.14538
1.14257
1.14799
1.53922
2.71962
3.00256
2.97074
2.95925
2.9676
2.98428
3.00279
3.00305
2.99491
2.9738
2.92933
2.87306
2.84568
2.83488
2.82604
2.81698
2.80311
2.78509
2.75768
2.71287
2.6558
2.6197
2.5999
2.58244
2.56521
2.54635
3.84945
3.80564
3.76214
3.71734
3.68022
3.64756
3.60871
3.56984
3.52492
3.47873
3.44638
3.41233
3.38041
3.34954
3.30932
3.27148
3.23307
3.19529
3.16061
3.12451
3.09771
3.06429
3.02545
2.99042
2.94849
2.92018
2.89399
2.86421
2.83422
2.79799
2.77436
2.75333
2.7272
2.70314
2.67734
2.65035
2.61666
2.57288
2.53351
2.50844
2.49235
2.47964
2.46092
2.43879
2.41694
2.39361
2.37093
2.34384
2.31098
2.27388
2.23663
2.20909
2.19771
2.19111
2.18334
2.17181
2.15825
2.14259
2.12126
2.08733
2.04408
2.00523
1.9881
1.98431
1.98427
1.98479
1.97946
1.97161
1.96222
1.94852
1.92201
1.88024
1.83445
1.81012
1.80405
1.80034
1.79924
1.79736
1.79151
1.784
1.76914
1.73993
1.70381
1.68081
1.67566
1.67501
1.67556
1.67108
1.66528
1.65527
1.63064
1.59525
1.57092
1.56576
1.56431
1.56716
1.56731
1.56319
1.55844
1.55111
1.53272
1.50043
1.47016
1.45796
1.45403
1.45091
1.44945
1.44648
1.44172
1.43744
1.43378
1.42945
1.4199
1.39917
1.3717
1.3514
1.34464
1.34386
1.34467
1.34156
1.33679
1.32984
1.31484
1.30084
1.29792
1.29751
1.298
1.29577
1.29102
1.28447
1.27283
1.25097
1.22968
1.22487
1.22342
1.22348
1.22344
1.22055
1.21661
1.21357
1.21023
1.20448
1.19384
1.17475
1.16132
1.15944
1.15919
1.15724
1.15396
1.19687
1.99821
2.9156
2.94711
2.9538
2.97382
3.00498
3.01891
3.01666
3.00688
2.97905
2.92611
2.87553
2.85733
2.847
2.84077
2.83291
2.81887
2.80055
2.77175
2.72518
2.669
2.63598
2.61668
2.59974
2.583
2.56437
3.87469
3.83506
3.79142
3.74225
3.7042
3.66933
3.63355
3.59752
3.55452
3.51607
3.47756
3.43816
3.40126
3.36397
3.33087
3.29614
3.25659
3.22196
3.18231
3.15095
3.12229
3.08466
3.0505
3.01215
2.9765
2.95043
2.91952
2.89034
2.85548
2.82678
2.80654
2.78019
2.75423
2.72817
2.6989
2.66696
2.62706
2.58626
2.56063
2.54125
2.52793
2.51056
2.48698
2.46455
2.44082
2.41803
2.39204
2.35986
2.32175
2.28247
2.25377
2.24273
2.2361
2.22705
2.2141
2.19935
2.1828
2.1618
2.12863
2.08512
2.04472
2.0261
2.02192
2.02138
2.02181
2.01671
2.0088
1.99918
1.98543
1.95984
1.91939
1.87276
1.8467
1.84044
1.83651
1.8343
1.83175
1.82584
1.81788
1.80214
1.77177
1.73461
1.71095
1.70562
1.70504
1.70645
1.70155
1.69517
1.6855
1.66151
1.62524
1.59814
1.59167
1.58984
1.5924
1.59492
1.59145
1.58676
1.57959
1.56171
1.52894
1.49555
1.48119
1.4774
1.47497
1.47495
1.47468
1.46987
1.46473
1.46005
1.45468
1.44363
1.42159
1.39297
1.37281
1.36701
1.36678
1.36898
1.36688
1.36171
1.35423
1.33905
1.32148
1.31628
1.31531
1.31594
1.31532
1.312
1.30603
1.29531
1.27502
1.25191
1.24247
1.2402
1.2391
1.23971
1.23854
1.23507
1.23109
1.22733
1.22272
1.21523
1.20259
1.18385
1.17395
1.17244
1.17208
1.17069
1.16516
1.16177
1.34645
2.43048
2.91753
2.95275
2.9902
3.02419
3.03068
3.02832
3.01507
2.97975
2.92265
2.88408
2.87065
2.86118
2.85797
2.84974
2.83542
2.81647
2.78622
2.7377
2.68282
2.65286
2.63411
2.61759
2.60041
2.58102
3.90057
3.86378
3.82057
3.7743
3.73154
3.68913
3.652
3.61774
3.58506
3.54929
3.50839
3.46789
3.4214
3.38294
3.35407
3.3188
3.28562
3.25032
3.21179
3.18266
3.14621
3.10861
3.07287
3.03407
3.00771
2.97773
2.94754
2.91549
2.88101
2.85939
2.83409
2.80592
2.77991
2.74867
2.71693
2.6804
2.63977
2.61346
2.59172
2.57584
2.55999
2.53596
2.5119
2.48687
2.46376
2.43963
2.40862
2.37139
2.33111
2.29865
2.28652
2.27928
2.26955
2.25594
2.24064
2.22396
2.20382
2.17266
2.12874
2.08609
2.06536
2.06053
2.05903
2.05816
2.05297
2.04538
2.03563
2.02206
1.99789
1.95878
1.91172
1.88366
1.87724
1.87366
1.87086
1.86741
1.86146
1.85322
1.83657
1.80475
1.76592
1.74117
1.7356
1.73507
1.7378
1.73305
1.72593
1.71604
1.69262
1.65587
1.62628
1.61825
1.61633
1.61845
1.62177
1.61931
1.6148
1.60812
1.5913
1.55857
1.52194
1.50522
1.50168
1.49967
1.50004
1.50165
1.4978
1.49243
1.48704
1.48062
1.46823
1.44491
1.41539
1.395
1.38987
1.3899
1.39279
1.39189
1.38706
1.37925
1.36344
1.34328
1.3357
1.33419
1.33415
1.33433
1.33236
1.32822
1.31909
1.29889
1.27459
1.26181
1.25885
1.25637
1.25564
1.25577
1.25358
1.24994
1.2457
1.24099
1.23476
1.22513
1.2111
1.19406
1.18644
1.1851
1.18441
1.18245
1.17726
1.16669
1.17407
1.63292
2.68578
2.97134
3.01359
3.03153
3.03716
3.03585
3.01972
2.97554
2.92079
2.89568
2.88457
2.87806
2.87727
2.86729
2.85255
2.83238
2.79972
2.74789
2.69586
2.67024
2.65275
2.63661
2.61813
2.59708
3.92129
3.88752
3.85031
3.8099
3.76387
3.71581
3.67064
3.63807
3.61173
3.57719
3.5404
3.49755
3.44603
3.41046
3.37652
3.34152
3.31185
3.27601
3.24399
3.20873
3.16915
3.13429
3.09365
3.06479
3.0389
3.00786
2.97876
2.94186
2.91418
2.88891
2.8586
2.83111
2.80006
2.76669
2.7337
2.69523
2.66654
2.6443
2.62428
2.60851
2.58493
2.55893
2.53376
2.50829
2.48566
2.4573
2.42222
2.3835
2.34651
2.33045
2.32225
2.31135
2.29713
2.28158
2.2653
2.24648
2.21826
2.17503
2.12999
2.10644
2.10087
2.09813
2.09512
2.0888
2.08068
2.07098
2.05794
2.03536
1.99823
1.95178
1.92099
1.91397
1.91112
1.90853
1.90403
1.89781
1.88947
1.87217
1.83903
1.79843
1.7723
1.76625
1.76539
1.76892
1.76515
1.75742
1.7469
1.72373
1.68712
1.65544
1.64542
1.64342
1.64584
1.64924
1.64699
1.64272
1.63656
1.62082
1.58873
1.54969
1.53028
1.52655
1.52483
1.52558
1.52786
1.52483
1.5198
1.5143
1.50726
1.4937
1.46909
1.4386
1.41842
1.41355
1.4131
1.41583
1.41576
1.41163
1.4044
1.38873
1.36609
1.35561
1.35357
1.35319
1.35344
1.35195
1.34928
1.34308
1.32546
1.29772
1.28086
1.27839
1.27558
1.27322
1.27288
1.27182
1.26888
1.26511
1.26041
1.25428
1.24557
1.23343
1.21936
1.20506
1.19887
1.19747
1.19627
1.19318
1.18833
1.17717
1.17174
1.22787
2.01273
2.88504
3.03765
3.04324
3.04721
3.04273
3.01595
2.96464
2.92265
2.90839
2.89982
2.899
2.89827
2.88596
2.8701
2.84747
2.81032
2.75387
2.70791
2.68704
2.67145
2.65601
2.63662
2.61414
3.9368
3.89752
3.86743
3.83631
3.79625
3.74794
3.69757
3.66505
3.63426
3.60015
3.56665
3.52241
3.47731
3.43967
3.40126
3.36841
3.33476
3.3047
3.27336
3.23307
3.19632
3.15645
3.11975
3.09679
3.06737
3.03947
3.00691
2.97306
2.9459
2.91418
2.88362
2.85305
2.81609
2.78544
2.75155
2.72064
2.69935
2.67579
2.65804
2.63569
2.60722
2.58129
2.55349
2.53078
2.50534
2.4724
2.43616
2.3993
2.37507
2.36546
2.35413
2.33894
2.32297
2.30693
2.28915
2.2645
2.22338
2.17655
2.14962
2.14313
2.13912
2.13375
2.12533
2.11579
2.10541
2.0926
2.07227
2.03769
1.99195
1.95863
1.95059
1.94818
1.94681
1.94152
1.9347
1.92608
1.90825
1.87431
1.83233
1.80483
1.79815
1.79675
1.80025
1.79754
1.78973
1.77861
1.75521
1.71817
1.68482
1.67314
1.67089
1.67355
1.67807
1.67529
1.67083
1.66479
1.65007
1.61903
1.57864
1.5563
1.55206
1.5505
1.55184
1.55411
1.55144
1.54672
1.54147
1.53432
1.52006
1.49415
1.4623
1.44223
1.43775
1.43716
1.43905
1.4387
1.43519
1.42854
1.41396
1.39044
1.37626
1.37343
1.37245
1.37278
1.37181
1.36945
1.36509
1.35213
1.32475
1.3007
1.29634
1.29564
1.29316
1.29078
1.28993
1.28812
1.28472
1.28036
1.27452
1.26623
1.25439
1.24038
1.2281
1.21671
1.21142
1.20989
1.20782
1.20382
1.19853
1.1895
1.17888
1.18126
1.38302
2.41858
3.01759
3.05658
3.05736
3.04376
3.00703
2.95651
2.92945
2.9212
2.91695
2.92291
2.91906
2.90563
2.88813
2.86168
2.81747
2.75777
2.72076
2.70322
2.68912
2.67423
2.6548
2.63159
3.9582
3.9135
3.88659
3.85935
3.82573
3.78233
3.73228
3.69198
3.65586
3.62264
3.58751
3.54905
3.50987
3.46789
3.42978
3.39255
3.35897
3.33238
3.29683
3.25928
3.22423
3.18174
3.15545
3.12846
3.09824
3.06831
3.03305
3.0038
2.97156
2.93781
2.90736
2.86886
2.83562
2.80708
2.7755
2.75398
2.73035
2.70873
2.68707
2.65729
2.62947
2.60107
2.57573
2.55283
2.52306
2.48847
2.45435
2.42287
2.40877
2.39814
2.38258
2.3655
2.34939
2.33291
2.31084
2.2727
2.2252
2.19434
2.18655
2.18144
2.17376
2.16334
2.15158
2.13969
2.12697
2.10876
2.07651
2.03264
1.99689
1.98699
1.98458
1.98468
1.97952
1.9719
1.96279
1.94441
1.90989
1.86746
1.83899
1.83161
1.82963
1.83234
1.8305
1.82298
1.81164
1.78756
1.74936
1.71465
1.70142
1.69903
1.70138
1.70752
1.70454
1.69951
1.69328
1.67914
1.64904
1.6077
1.58289
1.57803
1.57659
1.57885
1.58107
1.57821
1.57365
1.56852
1.56147
1.54694
1.52013
1.48693
1.46636
1.4621
1.46155
1.46337
1.46198
1.45818
1.45248
1.43791
1.4149
1.39817
1.39409
1.39237
1.39218
1.39179
1.38996
1.38621
1.37587
1.35307
1.32495
1.31511
1.31342
1.31346
1.31152
1.30878
1.30716
1.30463
1.30056
1.29517
1.28731
1.27585
1.2613
1.24786
1.23819
1.22873
1.2243
1.22234
1.21943
1.21508
1.20916
1.20188
1.19313
1.19023
1.20453
1.67454
2.75764
3.06395
3.06144
3.044
3.00365
2.95671
2.94115
2.93503
2.93685
2.94479
2.93719
2.92361
2.90433
2.87226
2.8188
2.76279
2.73617
2.72034
2.70635
2.69089
2.67137
2.64775
3.98878
3.94185
3.90797
3.87648
3.84679
3.81159
3.76912
3.72337
3.67736
3.63649
3.60356
3.57509
3.53887
3.50033
3.46077
3.41573
3.38617
3.35639
3.31825
3.28634
3.2478
3.21567
3.18962
3.15681
3.12603
3.09003
3.05843
3.02817
2.99351
2.96235
2.92655
2.88651
2.86096
2.832
2.80787
2.78578
2.76078
2.73863
2.70916
2.67772
2.64936
2.62084
2.59923
2.57311
2.54073
2.50865
2.47592
2.45322
2.44212
2.42764
2.41028
2.39347
2.3772
2.3575
2.32376
2.27605
2.2411
2.23161
2.22468
2.21498
2.20252
2.18828
2.17463
2.16129
2.14469
2.11557
2.07363
2.03583
2.02374
2.02087
2.02151
2.01728
2.00917
1.99947
1.98047
1.94539
1.90281
1.87444
1.8667
1.86415
1.86571
1.86422
1.8571
1.84586
1.82129
1.78167
1.74487
1.73031
1.72774
1.72999
1.73725
1.73471
1.72891
1.72229
1.70832
1.67874
1.63691
1.60984
1.6039
1.60253
1.60601
1.60903
1.60563
1.6011
1.59603
1.5889
1.57383
1.54665
1.51271
1.4912
1.48676
1.48612
1.48814
1.48666
1.4822
1.47598
1.46177
1.43838
1.42043
1.41543
1.41298
1.41213
1.4119
1.41038
1.40743
1.39838
1.37769
1.35154
1.33653
1.33304
1.33132
1.33149
1.32988
1.32692
1.32445
1.32088
1.3158
1.30853
1.29758
1.28324
1.26854
1.25776
1.24952
1.2411
1.2376
1.23507
1.2316
1.22713
1.22127
1.21427
1.20831
1.20473
1.20661
1.27569
2.07543
2.96978
3.05286
3.03688
2.9983
2.96603
2.95845
2.95453
2.96087
2.96364
2.95387
2.94002
2.91743
2.87533
2.81446
2.77173
2.75332
2.73867
2.72463
2.70802
2.6878
2.66333
4.018
3.97136
3.93394
3.8983
3.86413
3.82921
3.79204
3.75098
3.7016
3.65442
3.62591
3.59784
3.56322
3.53125
3.49001
3.44568
3.41324
3.37561
3.34229
3.30996
3.27609
3.24963
3.21648
3.1836
3.14734
3.11029
3.08223
3.04885
3.01601
2.98414
2.94214
2.91379
2.88857
2.86111
2.84028
2.81419
2.78992
2.76179
2.7275
2.69787
2.66732
2.64446
2.62205
2.59259
2.56185
2.53161
2.5014
2.48682
2.47363
2.45645
2.4394
2.42309
2.40455
2.3745
2.32781
2.28881
2.27706
2.26898
2.25742
2.24266
2.22622
2.21053
2.19645
2.18065
2.15437
2.11474
2.07593
2.06074
2.05736
2.05783
2.05465
2.04636
2.03612
2.01656
1.98091
1.93797
1.90978
1.90246
1.89999
1.90045
1.89851
1.8919
1.8811
1.8564
1.81554
1.77636
1.7603
1.75739
1.75949
1.7675
1.76566
1.75924
1.75218
1.73803
1.70852
1.666
1.63692
1.62981
1.62828
1.63205
1.63747
1.63413
1.62937
1.62426
1.61684
1.60086
1.57308
1.5392
1.51727
1.51246
1.51145
1.51307
1.51221
1.50773
1.50079
1.48556
1.4615
1.44264
1.43688
1.434
1.43256
1.43227
1.43109
1.42862
1.42135
1.40173
1.37558
1.35915
1.3548
1.3513
1.34947
1.34944
1.34765
1.34454
1.34105
1.3364
1.32992
1.31966
1.30528
1.29041
1.27855
1.26996
1.2611
1.25428
1.25155
1.24857
1.24474
1.24014
1.23435
1.22698
1.222
1.22019
1.21706
1.22031
1.42996
2.49604
2.99991
3.01313
2.99439
2.97978
2.97727
2.97906
2.98683
2.98188
2.97107
2.95529
2.92541
2.8711
2.8126
2.78583
2.77073
2.7569
2.74314
2.72648
2.70575
2.68022
4.04918
4.00157
3.95878
3.91855
3.88174
3.84932
3.81741
3.78047
3.72823
3.68664
3.65811
3.62287
3.58795
3.55429
3.51182
3.47439
3.43715
3.39882
3.36527
3.33314
3.30888
3.27876
3.24296
3.20708
3.16342
3.13277
3.10359
3.0704
3.04077
3.00247
2.96841
2.94588
2.9174
2.8944
2.86865
2.84146
2.81452
2.77949
2.74616
2.71526
2.6885
2.66888
2.64303
2.6134
2.58551
2.55351
2.53243
2.52034
2.50365
2.48624
2.46999
2.45235
2.42594
2.38158
2.33768
2.32245
2.31329
2.3005
2.28409
2.26563
2.24834
2.23305
2.21751
2.19403
2.15609
2.11634
2.09821
2.09403
2.09392
2.09162
2.08347
2.07304
2.05335
2.01719
1.97364
1.94521
1.93788
1.9361
1.93619
1.93305
1.92667
1.91644
1.89213
1.85083
1.80958
1.79195
1.78854
1.79006
1.79835
1.79722
1.79052
1.78297
1.76864
1.73912
1.69579
1.66465
1.65598
1.65427
1.6574
1.66505
1.66322
1.65844
1.65326
1.64543
1.62842
1.59968
1.56593
1.54424
1.53934
1.53826
1.5393
1.53821
1.534
1.52701
1.51054
1.48478
1.46441
1.45854
1.45555
1.45369
1.45321
1.45214
1.45002
1.44409
1.42604
1.3996
1.38115
1.37651
1.37301
1.36961
1.36787
1.367
1.36463
1.36127
1.35683
1.35102
1.34215
1.32791
1.31234
1.30026
1.29146
1.28261
1.27314
1.26912
1.26649
1.26303
1.2589
1.25397
1.24751
1.23938
1.23531
1.23437
1.23198
1.22769
1.24328
1.70043
2.76506
2.99765
2.99455
2.99262
2.99557
3.00611
3.00946
3.00113
2.98748
2.96507
2.92359
2.86354
2.82089
2.80424
2.78965
2.77563
2.76217
2.74628
2.72565
2.69923
4.08646
4.03994
3.99013
3.94216
3.90165
3.86875
3.83893
3.80217
3.75444
3.72063
3.68704
3.64971
3.61494
3.57521
3.53648
3.50079
3.46173
3.42626
3.39047
3.36364
3.33674
3.30164
3.26869
3.22712
3.18623
3.1579
3.12504
3.09464
3.0613
3.0239
3.00109
2.9742
2.9478
2.92445
2.89429
2.86712
2.83439
2.79778
2.76672
2.73543
2.71476
2.6923
2.66386
2.63714
2.60742
2.57975
2.56736
2.55216
2.53395
2.51718
2.50008
2.47659
2.43583
2.38884
2.36738
2.35727
2.3438
2.32647
2.30701
2.28836
2.27226
2.25653
2.23472
2.19832
2.15765
2.13614
2.13072
2.12958
2.12803
2.12043
2.1102
2.09117
2.05502
2.01062
1.98143
1.97391
1.97238
1.97269
1.96807
1.96119
1.9513
1.92761
1.88651
1.84402
1.82507
1.82116
1.82212
1.83005
1.82926
1.82248
1.81457
1.80019
1.77067
1.72657
1.69311
1.68293
1.68103
1.68322
1.69179
1.69219
1.68766
1.68257
1.67454
1.6564
1.6265
1.59291
1.57201
1.56723
1.56619
1.5673
1.56576
1.56118
1.55369
1.53643
1.50951
1.48697
1.48031
1.4777
1.47592
1.47513
1.47404
1.47194
1.46669
1.44978
1.42379
1.40369
1.39802
1.39434
1.39103
1.38801
1.38636
1.38492
1.38189
1.37798
1.37262
1.36456
1.35064
1.33438
1.32197
1.3133
1.30506
1.29454
1.28779
1.28535
1.28237
1.2784
1.27386
1.26812
1.2598
1.25132
1.24896
1.24807
1.24632
1.24151
1.2365
1.2952
2.03421
2.87727
3.00968
3.01108
3.01932
3.02809
3.02654
3.01776
2.99972
2.96637
2.91387
2.8608
2.83865
2.82583
2.81184
2.79747
2.7831
2.76669
2.74547
2.71768
4.11473
4.07221
4.02272
3.97416
3.92458
3.88398
3.85661
3.82314
3.78761
3.75227
3.71157
3.67314
3.63505
3.59355
3.56075
3.52715
3.49179
3.45354
3.41959
3.39285
3.36014
3.3256
3.28958
3.24419
3.21333
3.18218
3.14948
3.11867
3.0818
3.05607
3.03175
3.00269
2.97904
2.94802
2.91736
2.88782
2.85131
2.81957
2.78897
2.76361
2.7424
2.71487
2.68731
2.65977
2.62883
2.61337
2.60145
2.58298
2.56551
2.54787
2.52522
2.48836
2.44133
2.41238
2.40079
2.38703
2.36955
2.34982
2.33081
2.31409
2.29832
2.27815
2.24245
2.19992
2.17497
2.16817
2.16524
2.16351
2.15666
2.14689
2.12952
2.09441
2.04926
2.01865
2.01088
2.00922
2.01006
2.00419
1.99645
1.98635
1.96278
1.92197
1.87862
1.85881
1.85472
1.8553
1.86241
1.86161
1.85494
1.84693
1.83255
1.80303
1.75855
1.72264
1.71103
1.70894
1.71032
1.71866
1.72088
1.71659
1.71156
1.70341
1.68451
1.65371
1.61989
1.60014
1.59587
1.59507
1.59644
1.59484
1.59008
1.5812
1.56192
1.53509
1.51172
1.5036
1.50075
1.49944
1.4985
1.49699
1.49478
1.48948
1.4729
1.44731
1.42667
1.4207
1.41661
1.41222
1.40912
1.40672
1.40544
1.40359
1.40021
1.39553
1.3877
1.37283
1.35549
1.34345
1.33535
1.32782
1.31791
1.30811
1.30482
1.30238
1.29881
1.29452
1.28926
1.28155
1.27051
1.26401
1.26294
1.26187
1.25981
1.25556
1.24595
1.23804
1.40074
2.33966
2.9507
3.0412
3.04305
3.04479
3.04099
3.03001
3.00748
2.96397
2.90601
2.87086
2.85948
2.84892
2.83676
2.82262
2.8069
2.78813
2.76454
2.73393
4.12676
4.09152
4.05109
4.00838
3.95528
3.90541
3.87371
3.84725
3.81929
3.78071
3.73972
3.70021
3.6536
3.61149
3.58376
3.55472
3.52143
3.48394
3.45127
3.41763
3.38032
3.34695
3.30562
3.27068
3.24385
3.21014
3.17825
3.14147
3.11097
3.08858
3.05973
3.03395
3.0058
2.96951
2.93953
2.90535
2.87076
2.84314
2.81594
2.7947
2.76859
2.73962
2.71249
2.68018
2.65935
2.64945
2.63225
2.61353
2.59595
2.57392
2.53923
2.49394
2.45837
2.44394
2.43003
2.41239
2.39273
2.37411
2.35767
2.34225
2.32358
2.28988
2.24479
2.21497
2.20689
2.20233
2.19892
2.19229
2.18294
2.16753
2.13471
2.0897
2.0568
2.04847
2.04652
2.04764
2.04142
2.03308
2.02233
1.99879
1.9581
1.91383
1.89284
1.88878
1.88918
1.89521
1.89396
1.8875
1.87978
1.86539
1.83593
1.79112
1.75356
1.74043
1.73814
1.73891
1.74652
1.74957
1.74537
1.74017
1.73167
1.71218
1.68101
1.6473
1.62841
1.62461
1.62456
1.62687
1.62483
1.61992
1.60961
1.58772
1.55999
1.53786
1.52971
1.52605
1.52422
1.52367
1.52139
1.51862
1.5125
1.49547
1.47013
1.44897
1.44331
1.44027
1.43502
1.43057
1.42785
1.42643
1.42528
1.42284
1.41854
1.41033
1.39423
1.37579
1.3638
1.35745
1.35084
1.34226
1.33098
1.32528
1.32291
1.31982
1.31578
1.31101
1.30412
1.29255
1.28087
1.27804
1.27739
1.27588
1.27289
1.26839
1.25775
1.23937
1.24412
1.60088
2.60196
3.04332
3.06677
3.06171
3.04965
3.03331
3.00798
2.96311
2.91123
2.89134
2.88174
2.8722
2.86146
2.84785
2.83071
2.80928
2.78246
2.74783
4.14049
4.1039
4.06876
4.03337
3.9865
3.93193
3.89718
3.87138
3.83825
3.79891
3.76442
3.72748
3.67705
3.63586
3.61027
3.58222
3.54724
3.51164
3.47803
3.44092
3.40522
3.36607
3.32408
3.30096
3.27156
3.23924
3.20551
3.16818
3.14352
3.11697
3.08901
3.06372
3.02712
2.99327
2.96167
2.92551
2.89617
2.86839
2.84605
2.82303
2.79404
2.76704
2.7354
2.70857
2.69758
2.68278
2.66211
2.64298
2.6204
2.58686
2.54485
2.50733
2.48893
2.47443
2.45661
2.43621
2.41734
2.4013
2.38628
2.36884
2.33756
2.29184
2.25661
2.24675
2.24133
2.23582
2.22836
2.2191
2.20498
2.1749
2.13104
2.09591
2.08655
2.08426
2.08521
2.07901
2.07031
2.05928
2.03577
1.99521
1.95056
1.92807
1.92376
1.9242
1.9289
1.92677
1.92025
1.9127
1.89844
1.869
1.82431
1.78581
1.7711
1.76863
1.769
1.77564
1.77864
1.77435
1.76874
1.75953
1.73918
1.70791
1.67495
1.65686
1.65331
1.65381
1.65755
1.65569
1.65032
1.63842
1.61435
1.58479
1.56374
1.55696
1.55389
1.55157
1.54987
1.54746
1.54384
1.53576
1.51787
1.49286
1.4711
1.46507
1.46368
1.45952
1.45354
1.44939
1.44753
1.44675
1.44484
1.44123
1.43288
1.41495
1.3959
1.38372
1.37895
1.37424
1.36673
1.35622
1.34731
1.3443
1.34169
1.33788
1.33335
1.32711
1.31617
1.30068
1.29386
1.29297
1.29224
1.29004
1.28595
1.27942
1.26576
1.24403
1.24291
1.28393
1.88715
2.85941
3.07491
3.0692
3.05321
3.03097
3.00336
2.96724
2.93395
2.91487
2.90459
2.89396
2.88197
2.86727
2.84918
2.82677
2.79847
2.76146
4.16822
4.12623
4.09169
4.05535
4.00767
3.95733
3.92854
3.89777
3.8572
3.81762
3.78252
3.74342
3.69711
3.66442
3.6389
3.60696
3.57166
3.53674
3.49907
3.46063
3.42393
3.37957
3.35302
3.33142
3.29834
3.26787
3.23273
3.2009
3.17386
3.14349
3.11676
3.0849
3.04785
3.01715
2.98199
2.94997
2.92417
2.89829
2.87671
2.84899
2.82083
2.79156
2.76029
2.74593
2.73344
2.71195
2.69144
2.6682
2.63302
2.59248
2.55567
2.53495
2.52053
2.50323
2.48229
2.46214
2.44554
2.43046
2.41352
2.38479
2.339
2.29889
2.28635
2.28088
2.27439
2.26583
2.2562
2.24298
2.21552
2.17279
2.13556
2.12457
2.122
2.12286
2.11688
2.10786
2.09663
2.07315
2.03276
1.98804
1.96457
1.95984
1.96029
1.96431
1.96091
1.95416
1.94632
1.93165
1.90212
1.85753
1.81855
1.80294
1.80018
1.80022
1.80594
1.80825
1.80372
1.79771
1.78736
1.76564
1.73422
1.7026
1.68553
1.68225
1.68323
1.68796
1.68638
1.68069
1.6672
1.64121
1.61048
1.59019
1.58454
1.58218
1.5805
1.57811
1.57448
1.5702
1.55963
1.54009
1.51634
1.49487
1.48747
1.48623
1.48363
1.4783
1.47229
1.46885
1.46753
1.46606
1.46287
1.45541
1.4372
1.41562
1.40363
1.40026
1.3972
1.39124
1.38209
1.3718
1.36665
1.36416
1.36092
1.35674
1.35117
1.34079
1.32267
1.31088
1.30916
1.30864
1.30728
1.30413
1.2987
1.28831
1.26994
1.25588
1.25219
1.25598
1.37859
2.23907
2.99476
3.071
3.06014
3.0348
3.0035
2.97712
2.9568
2.93748
2.922
2.90975
2.89655
2.88118
2.86297
2.84081
2.81266
2.77577
4.21077
4.15667
4.1073
4.0707
4.02534
3.98925
3.96003
3.91947
3.87607
3.84045
3.80644
3.76671
3.72589
3.69851
3.66818
3.63084
3.59293
3.55568
3.51869
3.48551
3.44273
3.40549
3.38849
3.35944
3.32592
3.29279
3.2576
3.23002
3.2011
3.17167
3.14055
3.10342
3.07362
3.04139
3.00695
2.981
2.95295
2.92911
2.90394
2.87456
2.84694
2.81419
2.79457
2.7831
2.76205
2.73921
2.71728
2.68087
2.63902
2.60384
2.58167
2.56724
2.55104
2.53098
2.50983
2.49181
2.476
2.45907
2.43272
2.38758
2.34261
2.32556
2.31962
2.31314
2.304
2.29425
2.28177
2.25723
2.21531
2.17543
2.16215
2.15907
2.1597
2.1544
2.14548
2.13451
2.11169
2.0715
2.02582
2.00118
1.99603
1.99626
2.00007
1.99648
1.98981
1.98169
1.96611
1.93599
1.89153
1.85234
1.83597
1.83282
1.83246
1.83713
1.83843
1.83358
1.82716
1.81547
1.79219
1.75999
1.72948
1.71406
1.71114
1.71285
1.71844
1.71676
1.71071
1.69591
1.66828
1.63657
1.61747
1.61271
1.6112
1.60964
1.60659
1.6029
1.5976
1.58402
1.56295
1.54065
1.5202
1.51222
1.51043
1.50745
1.50292
1.49678
1.49148
1.48857
1.48649
1.4836
1.47692
1.45967
1.43734
1.42377
1.42137
1.41942
1.41495
1.40682
1.39805
1.39053
1.38674
1.38366
1.37993
1.37493
1.36549
1.34626
1.3294
1.32604
1.3254
1.32478
1.32245
1.31802
1.31027
1.29431
1.27649
1.27146
1.26842
1.26624
1.27476
1.5517
2.54805
3.04491
3.06428
3.04504
3.01554
2.99226
2.97225
2.95157
2.93291
2.91911
2.90657
2.89228
2.87515
2.85413
2.82731
2.79234
4.20537
4.15675
4.12432
4.09274
4.05832
4.03214
3.98893
3.93905
3.89636
3.86164
3.82827
3.7906
3.75881
3.73145
3.6949
3.65499
3.61589
3.57608
3.53982
3.50291
3.46049
3.43966
3.41837
3.38347
3.35346
3.32109
3.2861
3.25443
3.22388
3.19401
3.15701
3.12594
3.09729
3.06332
3.03693
3.01318
2.98416
2.95959
2.93012
2.90177
2.87051
2.8448
2.83205