/*--------------------------------*- C++ -*----------------------------------*\
  =========                 |
  \\      /  F ield         | OpenFOAM: The Open Source CFD Toolbox
   \\    /   O peration     | Website:  https://openfoam.org
    \\  /    A nd           | Version:  7
     \\/     M anipulation  |
\*---------------------------------------------------------------------------*/
FoamFile
{
    version     2.0;
    format      ascii;
    class       volScalarField;
    location    "1.9";
    object      rho;
}
// * * * * * * * * * * * * * * * * * * * * * * * * * * * * * * * * * * * * * //

dimensions      [1 -3 0 0 0 0 0];

internalField   nonuniform List<scalar> 
16192
(
1.99753
1.9864
1.97203
1.96163
1.95766
1.95627
1.9581
1.96312
1.97101
1.97841
1.97859
1.97593
1.97234
1.96606
1.95158
1.93379
1.92658
1.92641
1.9298
1.93962
1.95822
1.98651
2.01378
2.02153
2.02203
2.02031
2.0104
1.99017
1.97225
1.96385
1.95977
1.95779
1.95856
1.96411
1.96679
1.96545
1.96337
1.96088
1.95825
1.95593
1.95348
1.95001
1.94316
1.92987
1.91747
1.91354
1.91195
1.91191
1.91393
1.91456
1.91382
1.91299
1.91155
1.90911
1.90344
1.89099
1.87918
1.87517
1.87301
1.87103
1.86931
1.86846
1.86944
1.8707
1.86961
1.86711
1.86333
1.85768
1.85385
1.85239
1.85177
1.85278
1.85504
1.85535
1.85399
1.85178
1.84735
1.83523
1.81451
1.80273
1.79972
1.79775
1.79632
1.79617
1.79882
1.79878
1.79722
1.79492
1.79088
1.78728
1.7861
1.78572
1.78576
1.78596
1.78586
1.78624
1.7886
1.79209
1.79324
1.79176
1.78876
1.7841
1.77628
1.76315
1.74962
1.742
1.73917
1.73798
1.73739
1.73847
1.74076
1.74323
1.7475
1.7551
1.7619
1.76287
1.76145
1.76005
1.75709
1.74993
1.73773
1.73188
1.73346
1.74769
1.78613
1.86439
2.00015
2.16409
2.33816
2.49474
2.63471
2.73564
2.76513
2.77711
2.75333
2.73337
2.74009
2.748
2.75427
2.75671
2.75425
2.74895
2.74741
2.74757
2.74801
2.74682
2.74511
2.74333
2.74148
2.74112
2.74672
2.76456
2.78083
2.77973
2.77624
2.77057
2.75958
2.73975
2.71366
2.69527
2.68877
2.68499
2.68032
2.67492
2.66987
2.66638
2.66245
2.65784
2.65256
2.64444
2.63431
2.62933
2.63096
2.63976
2.65016
2.66238
2.67621
2.68166
2.68001
2.67203
2.65668
2.62554
2.58661
2.56477
2.56147
2.56303
2.5703
2.58512
2.61258
2.64574
2.64966
2.64779
2.64194
2.62571
2.5983
2.57542
2.56798
2.5665
2.56582
2.56445
2.5625
2.55977
2.55506
2.54572
2.52935
2.51504
2.51004
2.50915
2.51418
2.51954
2.51829
2.51445
2.50769
2.4956
2.47782
2.46679
2.46402
2.46218
2.46157
2.46586
2.47435
2.47627
2.47078
2.46279
2.44925
2.42935
2.41213
2.40585
2.40743
2.41802
2.42839
2.44047
2.44831
2.44658
2.43214
2.39909
2.36317
2.33621
2.31885
2.31082
2.30842
2.3102
2.32859
2.36477
2.3854
2.38664
2.38358
2.37792
2.36614
2.34146
2.30525
2.28025
2.27623
1.99953
1.99669
1.99066
1.98095
1.97022
1.96411
1.96232
1.96326
1.96542
1.96839
1.97296
1.97424
1.97166
1.96765
1.96205
1.95164
1.9371
1.92779
1.92728
1.93227
1.94523
1.96539
1.99132
2.01411
2.01984
2.01978
2.01773
2.00866
1.99357
1.97746
1.96648
1.96204
1.9603
1.96021
1.96214
1.96262
1.96104
1.95918
1.95741
1.9559
1.95479
1.95323
1.95061
1.94515
1.93323
1.92043
1.9159
1.91396
1.91318
1.91388
1.91414
1.9139
1.91369
1.91244
1.91016
1.90504
1.89253
1.87808
1.8725
1.86974
1.86736
1.865
1.86318
1.86282
1.86481
1.86564
1.86431
1.86232
1.85935
1.8569
1.85564
1.85491
1.85482
1.85474
1.85427
1.85308
1.85093
1.84658
1.83511
1.81465
1.80056
1.7968
1.79474
1.79315
1.79275
1.79572
1.79722
1.79638
1.795
1.79221
1.78882
1.78704
1.78617
1.7854
1.78461
1.78359
1.7827
1.78259
1.78359
1.78492
1.78515
1.78347
1.78028
1.77584
1.76865
1.75868
1.74866
1.74248
1.74021
1.73953
1.73986
1.73973
1.73926
1.74001
1.74468
1.75337
1.75974
1.76042
1.75956
1.75855
1.75459
1.74453
1.7331
1.7282
1.72825
1.73274
1.75093
1.79555
1.89006
2.03294
2.20614
2.39187
2.54744
2.67778
2.73226
2.73935
2.72493
2.72369
2.73574
2.75524
2.76591
2.76601
2.76582
2.76286
2.7572
2.75405
2.75092
2.74563
2.74049
2.737
2.73577
2.73961
2.75664
2.78252
2.78804
2.78527
2.78082
2.77236
2.75496
2.72605
2.69893
2.68557
2.67767
2.67083
2.66492
2.66105
2.66116
2.66625
2.66821
2.66758
2.66552
2.65956
2.65181
2.64905
2.65072
2.65473
2.65774
2.66238
2.66551
2.66395
2.65666
2.64663
2.62914
2.60245
2.58107
2.57614
2.57889
2.59054
2.60386
2.61937
2.64712
2.65953
2.65589
2.64908
2.63641
2.61662
2.59248
2.57396
2.56722
2.56451
2.56249
2.55911
2.55218
2.53751
2.51952
2.50966
2.50625
2.50525
2.51213
2.52786
2.53646
2.53656
2.5335
2.52722
2.51311
2.48869
2.46797
2.4583
2.45299
2.45005
2.45063
2.45889
2.47003
2.47228
2.46919
2.46311
2.45276
2.44011
2.43149
2.42804
2.42588
2.42358
2.41976
2.40988
2.39378
2.37864
2.36672
2.35675
2.34423
2.33335
2.329
2.33308
2.3532
2.37296
2.37681
2.37576
2.37364
2.3695
2.35928
2.33839
2.316
2.29734
2.28306
1.9991
2.00062
1.9993
1.99642
1.99034
1.97967
1.96986
1.96619
1.96447
1.96336
1.96312
1.96534
1.96793
1.96629
1.96314
1.95957
1.95385
1.94401
1.93406
1.93253
1.93774
1.95127
1.97007
1.99198
2.01082
2.01712
2.01743
2.01619
2.0106
2.00055
1.98626
1.9715
1.96318
1.95983
1.95755
1.95633
1.95556
1.95508
1.95496
1.95488
1.95528
1.95599
1.95494
1.95256
1.94775
1.93618
1.92227
1.91695
1.91468
1.91336
1.91329
1.91395
1.9146
1.91478
1.9135
1.91118
1.906
1.89284
1.87636
1.86941
1.86623
1.86365
1.86127
1.85958
1.85964
1.86215
1.86373
1.86309
1.86148
1.85911
1.85712
1.85578
1.8541
1.85287
1.8524
1.85234
1.85145
1.84939
1.84545
1.83596
1.81762
1.80052
1.79444
1.79231
1.7908
1.7904
1.79326
1.7963
1.79634
1.79571
1.79414
1.79144
1.78848
1.78609
1.78415
1.78233
1.78051
1.77877
1.77711
1.77592
1.77614
1.77793
1.77863
1.77716
1.77616
1.77411
1.76932
1.76078
1.75141
1.74467
1.74096
1.73867
1.7367
1.73516
1.73438
1.73619
1.7433
1.75277
1.75824
1.75909
1.75867
1.75689
1.75008
1.73753
1.7277
1.72429
1.72353
1.72429
1.73097
1.75304
1.80698
1.91412
2.06416
2.25287
2.43299
2.57874
2.68243
2.69654
2.70362
2.72073
2.74117
2.76161
2.77668
2.77861
2.77508
2.77149
2.76503
2.75544
2.7474
2.74014
2.73445
2.73167
2.73182
2.74409
2.77194
2.79093
2.79073
2.78699
2.78046
2.76401
2.73259
2.69772
2.67844
2.6703
2.66579
2.66344
2.66321
2.66966
2.67868
2.68402
2.68629
2.68629
2.68286
2.67193
2.65792
2.64896
2.64383
2.64134
2.6418
2.64626
2.65159
2.65368
2.65282
2.64618
2.63205
2.61477
2.60699
2.60695
2.60949
2.61287
2.61999
2.63798
2.65639
2.65554
2.65092
2.64278
2.62619
2.59947
2.57555
2.56611
2.56213
2.55727
2.54802
2.53247
2.51798
2.51172
2.50962
2.50866
2.51347
2.5321
2.54724
2.54894
2.54674
2.54315
2.53643
2.5175
2.4841
2.45904
2.44838
2.44333
2.44145
2.44387
2.45997
2.48008
2.48603
2.48594
2.48401
2.47912
2.4681
2.45042
2.43059
2.4124
2.39014
2.36667
2.35731
2.35943
2.36792
2.36763
2.3644
2.36247
2.36645
2.37668
2.38151
2.37932
2.37661
2.37381
2.36771
2.35638
2.34013
2.32416
2.31373
2.30704
2.2966
1.99161
2.00186
2.00475
2.00379
2.00139
1.99643
1.98522
1.97118
1.96484
1.962
1.9595
1.95772
1.95801
1.96196
1.96252
1.96067
1.95902
1.95671
1.95111
1.94176
1.93805
1.94201
1.95467
1.97237
1.99216
2.009
2.01788
2.0187
2.01762
2.01354
2.00579
1.99224
1.97322
1.96043
1.95613
1.95354
1.95169
1.95067
1.95085
1.95253
1.95479
1.95724
1.95787
1.95642
1.95401
1.94914
1.93731
1.92256
1.91683
1.91454
1.91302
1.9126
1.91398
1.91567
1.9155
1.91392
1.91135
1.90584
1.8919
1.87389
1.86642
1.8635
1.86106
1.85918
1.85872
1.85993
1.86113
1.86136
1.86039
1.85893
1.85587
1.85238
1.85061
1.84916
1.84809
1.84806
1.84991
1.84988
1.84812
1.84487
1.83773
1.82303
1.80427
1.79383
1.79097
1.78963
1.78921
1.79112
1.79513
1.79667
1.79634
1.79539
1.79338
1.78975
1.78545
1.78207
1.7794
1.77691
1.77447
1.77214
1.77014
1.76924
1.77142
1.77563
1.77735
1.77824
1.77834
1.77687
1.77166
1.76022
1.7464
1.73897
1.73578
1.73308
1.73099
1.72976
1.72992
1.73408
1.743
1.7527
1.7575
1.75815
1.75779
1.75374
1.74316
1.72979
1.72297
1.72108
1.71988
1.71926
1.72092
1.73027
1.75771
1.82368
1.94154
2.10756
2.28882
2.45916
2.60005
2.66012
2.67877
2.71575
2.7477
2.76815
2.77882
2.78233
2.7818
2.77722
2.77144
2.7627
2.74898
2.73711
2.73137
2.7274
2.72968
2.74927
2.77964
2.79098
2.7878
2.78142
2.76672
2.73533
2.6981
2.67788
2.67192
2.66952
2.66845
2.67148
2.68303
2.695
2.70175
2.7026
2.70039
2.69209
2.66811
2.64317
2.63347
2.63042
2.63006
2.63379
2.64773
2.66052
2.66955
2.67434
2.67442
2.6669
2.64763
2.62487
2.61667
2.61431
2.61211
2.61436
2.62998
2.65374
2.65646
2.65201
2.64454
2.6301
2.60454
2.5773
2.56258
2.55326
2.54228
2.5306
2.52446
2.52233
2.52009
2.51908
2.52246
2.53128
2.54482
2.55436
2.55298
2.54843
2.54233
2.53189
2.50957
2.47619
2.45216
2.44363
2.44025
2.43896
2.44362
2.46835
2.49817
2.5112
2.51409
2.5107
2.50101
2.47753
2.4368
2.38783
2.35179
2.33919
2.33703
2.33977
2.35533
2.37455
2.38763
2.40068
2.41223
2.41283
2.40477
2.39194
2.38118
2.3714
2.35776
2.33678
2.31833
2.31253
2.31122
2.30999
2.30564
1.98792
1.99672
2.0062
2.0068
2.005
2.00255
1.99803
1.98715
1.97096
1.96186
1.95831
1.95562
1.95355
1.95343
1.95853
1.96159
1.96053
1.9596
1.95849
1.95535
1.94753
1.94145
1.94449
1.95724
1.97634
1.99525
2.01073
2.02026
2.02047
2.01821
2.01395
2.00652
1.99283
1.97228
1.95744
1.95303
1.95082
1.94922
1.94854
1.94907
1.95126
1.95523
1.95875
1.95823
1.95652
1.954
1.94887
1.93703
1.92211
1.91637
1.91422
1.91278
1.91228
1.91365
1.9158
1.91504
1.91319
1.91047
1.90477
1.89083
1.87266
1.8649
1.86223
1.86024
1.85953
1.8602
1.85969
1.85835
1.85658
1.85448
1.85171
1.84779
1.84545
1.8439
1.84241
1.84137
1.84251
1.84772
1.84931
1.84793
1.84546
1.84064
1.83027
1.81246
1.7964
1.79087
1.78928
1.78849
1.78892
1.79253
1.79621
1.7962
1.79506
1.79353
1.79003
1.78463
1.7798
1.77629
1.77344
1.77091
1.76857
1.76669
1.76582
1.76842
1.7744
1.7789
1.78095
1.78134
1.78073
1.77691
1.76576
1.74897
1.73744
1.73259
1.72944
1.72671
1.72536
1.72498
1.72675
1.73296
1.74422
1.75458
1.75756
1.75758
1.75578
1.748
1.73584
1.72483
1.71935
1.71742
1.71625
1.71552
1.71548
1.71946
1.73469
1.77775
1.85576
1.98018
2.13889
2.31323
2.47968
2.60267
2.6503
2.69584
2.73743
2.76007
2.77544
2.78302
2.78595
2.78411
2.77716
2.76425
2.74593
2.73191
2.72514
2.72099
2.72674
2.75225
2.78165
2.78742
2.78192
2.76867
2.74264
2.71043
2.68697
2.67737
2.67455
2.67513
2.68466
2.699
2.70723
2.70748
2.70457
2.6994
2.68293
2.65352
2.63423
2.62885
2.62781
2.62868
2.63645
2.66174
2.68291
2.69228
2.69536
2.69462
2.68592
2.66027
2.62781
2.61242
2.60735
2.60534
2.60763
2.62559
2.65392
2.65833
2.65455
2.64826
2.63391
2.60329
2.5676
2.54805
2.53857
2.53439
2.53362
2.5331
2.53239
2.53242
2.53434
2.53735
2.5394
2.54152
2.54535
2.54505
2.54087
2.53446
2.52488
2.50663
2.47763
2.45275
2.44377
2.44212
2.44442
2.45803
2.49499
2.52075
2.52051
2.51527
2.50704
2.48485
2.42421
2.36045
2.33978
2.33494
2.33305
2.33429
2.34801
2.37997
2.4181
2.43911
2.44185
2.438
2.42827
2.40832
2.38366
2.36064
2.33493
2.31554
2.30988
2.30781
2.30707
2.30993
2.31293
1.98903
1.99308
1.99813
2.00444
2.00569
2.00337
2.00092
1.99693
1.98733
1.97083
1.95919
1.95533
1.95294
1.95127
1.95123
1.9555
1.95979
1.95973
1.95903
1.95851
1.95707
1.95249
1.94753
1.9504
1.96303
1.98263
1.99944
2.01075
2.01833
2.01906
2.01628
2.01166
2.00423
1.99184
1.97492
1.95989
1.95267
1.9501
1.94884
1.94863
1.94965
1.95158
1.95512
1.95831
1.95732
1.95534
1.95253
1.9473
1.93585
1.9214
1.91596
1.91396
1.91254
1.9119
1.91301
1.91475
1.91367
1.91176
1.90907
1.90372
1.89141
1.8745
1.86613
1.86349
1.86198
1.86084
1.85904
1.85695
1.85477
1.85243
1.84921
1.84475
1.84089
1.83871
1.83689
1.83533
1.83437
1.83714
1.8462
1.84996
1.84918
1.84743
1.84436
1.8373
1.82216
1.80211
1.79147
1.78895
1.7878
1.78739
1.78909
1.79295
1.79473
1.79387
1.79199
1.78887
1.78309
1.77708
1.77352
1.77101
1.76868
1.76675
1.76566
1.76583
1.76778
1.77128
1.77661
1.78094
1.78121
1.78
1.77703
1.76872
1.75359
1.73846
1.73001
1.72604
1.72298
1.72118
1.7206
1.72111
1.72505
1.73544
1.74992
1.75678
1.757
1.75635
1.75221
1.74316
1.73081
1.72073
1.71597
1.71402
1.7121
1.71126
1.71147
1.71526
1.72928
1.75835
1.80297
1.87411
1.9976
2.15413
2.32983
2.484
2.60554
2.65034
2.70076
2.73329
2.7585
2.77325
2.77845
2.77873
2.77376
2.76007
2.74053
2.72536
2.71848
2.71565
2.72809
2.76077
2.78311
2.78195
2.77638
2.76138
2.73668
2.70822
2.68824
2.68124
2.67819
2.67767
2.68541
2.69832
2.7029
2.69944
2.69139
2.6768
2.65536
2.63668
2.63039
2.63064
2.63534
2.64777
2.67442
2.69606
2.70177
2.70205
2.70022
2.68933
2.6583
2.62128
2.60766
2.60527
2.60399
2.60731
2.62684
2.65553
2.66093
2.65515
2.64486
2.6236
2.58376
2.55153
2.5435
2.54233
2.54141
2.54152
2.54357
2.54489
2.54429
2.54238
2.53883
2.53546
2.53411
2.53535
2.53512
2.53259
2.52856
2.52065
2.50798
2.48894
2.46752
2.45632
2.45444
2.45891
2.47112
2.49407
2.51129
2.51182
2.5026
2.47762
2.43107
2.37687
2.34708
2.33805
2.33575
2.33716
2.35567
2.40504
2.44699
2.45495
2.45176
2.44627
2.43597
2.41366
2.37683
2.33621
2.31647
2.31164
2.30925
2.30741
2.30636
2.31092
2.32434
1.99338
1.99354
1.99364
1.99445
1.99865
2.00229
2.00068
1.99813
1.99486
1.98753
1.97338
1.95952
1.95395
1.95153
1.94997
1.9493
1.95121
1.95571
1.95787
1.95788
1.95846
1.95941
1.95941
1.95722
1.9594
1.97092
1.98806
2.00054
2.00704
2.01093
2.01328
2.0126
2.00889
2.00214
1.99227
1.98003
1.96666
1.95632
1.95204
1.95066
1.95022
1.95062
1.95162
1.95396
1.95642
1.95533
1.95306
1.94989
1.94461
1.93372
1.9202
1.91529
1.91334
1.91181
1.91097
1.91197
1.91333
1.91233
1.91048
1.90793
1.90343
1.89363
1.87828
1.86862
1.86468
1.86167
1.85902
1.85659
1.85414
1.8513
1.84764
1.84294
1.83771
1.83422
1.83226
1.83058
1.82914
1.82868
1.83386
1.84614
1.85166
1.85118
1.84978
1.84753
1.84266
1.83107
1.81078
1.79371
1.7885
1.78695
1.78584
1.78551
1.78713
1.7901
1.79114
1.78961
1.78622
1.78123
1.77625
1.77306
1.77056
1.76836
1.76688
1.76639
1.76645
1.76662
1.76753
1.77074
1.77642
1.77848
1.77714
1.77468
1.76946
1.75853
1.74306
1.72998
1.72321
1.71985
1.7178
1.71711
1.71721
1.71968
1.72807
1.7435
1.75528
1.7571
1.75694
1.7549
1.74871
1.73684
1.72297
1.71517
1.71163
1.70924
1.70772
1.70704
1.70776
1.71382
1.73296
1.75458
1.77235
1.80437
1.88066
1.99805
2.15198
2.32537
2.50302
2.60886
2.65433
2.6967
2.72542
2.75364
2.7673
2.77088
2.76779
2.75318
2.73256
2.71933
2.71488
2.71609
2.73875
2.7775
2.78955
2.78771
2.7831
2.76677
2.73588
2.70057
2.68068
2.67376
2.67037
2.67073
2.67939
2.69041
2.69227
2.69009
2.68478
2.66983
2.65057
2.64181
2.6419
2.64807
2.65825
2.67147
2.68785
2.69762
2.69776
2.69408
2.68304
2.6576
2.6259
2.60969
2.60674
2.60783
2.61358
2.62803
2.64651
2.65007
2.64403
2.62915
2.60435
2.57522
2.55832
2.55279
2.55089
2.55053
2.55404
2.55449
2.55091
2.54483
2.53913
2.53508
2.53126
2.52887
2.5289
2.52863
2.52703
2.52567
2.52365
2.5196
2.50918
2.49018
2.47319
2.46765
2.46593
2.4677
2.47262
2.47329
2.46608
2.44969
2.42618
2.40389
2.38392
2.36894
2.36252
2.3652
2.38538
2.41157
2.4289
2.44168
2.44753
2.44477
2.43491
2.40897
2.35829
2.32273
2.31438
2.31195
2.31022
2.30928
2.31098
2.32375
2.34388
1.99786
1.99488
1.99263
1.9908
1.9899
1.99213
1.99728
1.99777
1.99547
1.99294
1.98795
1.97702
1.96215
1.95369
1.95065
1.94847
1.94694
1.94705
1.95126
1.95564
1.95736
1.96008
1.96342
1.96627
1.96691
1.96638
1.97552
1.98998
1.99884
2.00213
2.00407
2.0085
2.01044
2.00699
2.00102
1.99347
1.98479
1.97407
1.96208
1.95478
1.95259
1.95161
1.95123
1.95116
1.95216
1.95314
1.9518
1.9495
1.94632
1.9411
1.93057
1.91822
1.91398
1.91196
1.91027
1.90923
1.91028
1.91201
1.9115
1.91013
1.90805
1.90478
1.89751
1.88329
1.86942
1.86336
1.86019
1.85739
1.85443
1.85105
1.84707
1.84229
1.83685
1.83196
1.82928
1.82766
1.82628
1.82534
1.82593
1.83211
1.84442
1.85224
1.85207
1.8509
1.84919
1.84587
1.83787
1.82091
1.79945
1.78844
1.78563
1.78381
1.78223
1.78171
1.78327
1.78571
1.78587
1.78387
1.7816
1.77893
1.77652
1.77378
1.77063
1.76802
1.76626
1.76487
1.76385
1.76331
1.76449
1.76981
1.77436
1.77393
1.77195
1.76887
1.76202
1.74916
1.73297
1.72184
1.71768
1.7158
1.71492
1.71476
1.71645
1.72319
1.73743
1.75296
1.7577
1.75697
1.75495
1.7502
1.73969
1.72447
1.71348
1.70878
1.70559
1.70361
1.70321
1.70281
1.70651
1.72084
1.74168
1.75664
1.76054
1.7684
1.79786
1.87372
1.99435
2.1694
2.35132
2.53392
2.60092
2.6533
2.69482
2.73114
2.75384
2.76048
2.75754
2.74316
2.72586
2.72046
2.72015
2.73078
2.76794
2.8006
2.80067
2.79396
2.78067
2.75103
2.70871
2.67628
2.66329
2.65788
2.65675
2.66162
2.67895
2.69646
2.69759
2.69632
2.68805
2.67189
2.65691
2.65314
2.65287
2.65383
2.66043
2.6743
2.68835
2.69176
2.69074
2.68448
2.66763
2.64118
2.62093
2.61547
2.61401
2.61324
2.61951
2.62924
2.63078
2.62542
2.61487
2.60119
2.58558
2.57128
2.56454
2.56298
2.56381
2.56228
2.55833
2.55148
2.54274
2.53579
2.53099
2.52727
2.52491
2.52617
2.53123
2.53337
2.5341
2.53279
2.53068
2.52535
2.51193
2.49046
2.46973
2.45655
2.44434
2.43055
2.42298
2.42239
2.42161
2.41892
2.41484
2.40981
2.40804
2.41184
2.41868
2.42251
2.42367
2.42436
2.42592
2.42283
2.4102
2.38388
2.35307
2.33108
2.31952
2.31582
2.31457
2.31613
2.32753
2.35255
2.36392
2.00644
1.99621
1.99216
1.98953
1.9873
1.98576
1.98638
1.99156
1.99503
1.9933
1.99115
1.9875
1.97896
1.96427
1.9531
1.94913
1.94674
1.94505
1.9452
1.95034
1.95667
1.96004
1.96283
1.96606
1.9695
1.97156
1.96994
1.97729
1.99012
1.9971
1.99885
1.99978
2.00487
2.00915
2.00592
2.00045
1.99461
1.98837
1.9801
1.96815
1.95768
1.95374
1.95203
1.95073
1.94996
1.94982
1.94915
1.94749
1.94519
1.94229
1.93717
1.92648
1.91539
1.91171
1.90957
1.9077
1.90666
1.90858
1.91141
1.91159
1.91103
1.90951
1.90663
1.90013
1.88571
1.86977
1.86244
1.85876
1.85534
1.85164
1.8477
1.84332
1.83794
1.83227
1.8284
1.82627
1.82489
1.82403
1.82367
1.82441
1.82861
1.83891
1.85021
1.85213
1.85096
1.84961
1.84731
1.84216
1.82986
1.80847
1.79063
1.78411
1.78142
1.77902
1.77721
1.77661
1.7788
1.78225
1.78295
1.78246
1.78156
1.77982
1.77691
1.77218
1.76705
1.76424
1.76226
1.76067
1.75961
1.75949
1.7627
1.76876
1.77113
1.76994
1.76761
1.76322
1.75348
1.73778
1.72327
1.71662
1.71469
1.71397
1.714
1.71594
1.72149
1.73185
1.74604
1.75464
1.75476
1.7524
1.74794
1.73943
1.72547
1.71228
1.70529
1.70186
1.69986
1.69947
1.69954
1.70223
1.71227
1.73475
1.75029
1.75485
1.75491
1.75103
1.75471
1.7915
1.8765
2.02661
2.21181
2.39868
2.53643
2.59796
2.65905
2.70839
2.73728
2.74657
2.74709
2.73485
2.72758
2.72932
2.73476
2.75675
2.7919
2.80207
2.79438
2.77715
2.75097
2.71191
2.67474
2.65916
2.65452
2.65348
2.65645
2.67196
2.69895
2.7069
2.70494
2.70029
2.68711
2.66567
2.65303
2.65203
2.65261
2.65657
2.66702
2.68355
2.69048
2.69062
2.68848
2.67885
2.65784
2.63148
2.61876
2.61523
2.61122
2.60814
2.60954
2.61396
2.61411
2.61086
2.60681
2.59904
2.58797
2.57822
2.57369
2.5708
2.56721
2.56121
2.55111
2.53992
2.53259
2.52789
2.52425
2.52207
2.52464
2.53668
2.54303
2.54701
2.54889
2.54677
2.53938
2.51783
2.47963
2.43831
2.40957
2.39609
2.39199
2.39427
2.411
2.43079
2.44334
2.451
2.45497
2.45251
2.44423
2.43338
2.42349
2.41542
2.40536
2.39034
2.3722
2.35892
2.351
2.34295
2.33265
2.32605
2.32544
2.33382
2.35691
2.37827
2.37513
2.01839
2.00683
1.99473
1.98916
1.98631
1.9839
1.98222
1.98185
1.98576
1.99166
1.99137
1.98922
1.98635
1.97967
1.96655
1.95373
1.94848
1.9463
1.94554
1.94691
1.95068
1.95523
1.95934
1.9625
1.9653
1.96937
1.9729
1.97167
1.97829
1.99057
1.99619
1.99746
1.99812
2.00295
2.00795
2.00498
2.00024
1.99554
1.99056
1.98378
1.9725
1.95949
1.95316
1.95094
1.94937
1.94828
1.94708
1.94563
1.94345
1.94096
1.93827
1.93319
1.92245
1.9124
1.90884
1.90669
1.90498
1.90469
1.90842
1.91208
1.91248
1.91135
1.90914
1.90626
1.90029
1.88684
1.87129
1.86312
1.85907
1.85588
1.85278
1.84938
1.84498
1.83844
1.83095
1.82671
1.82468
1.82335
1.82255
1.82196
1.82157
1.82335
1.83155
1.84479
1.85113
1.85067
1.84938
1.84758
1.84402
1.83551
1.81805
1.79675
1.78407
1.77917
1.776
1.77301
1.77147
1.77196
1.77752
1.78326
1.78362
1.78232
1.7806
1.77775
1.77229
1.76568
1.76206
1.75988
1.758
1.75652
1.75566
1.75654
1.76109
1.76648
1.76761
1.76572
1.76219
1.75547
1.74374
1.72948
1.71879
1.71495
1.71438
1.71496
1.7167
1.71966
1.7254
1.73616
1.74707
1.74981
1.74807
1.74419
1.7378
1.72644
1.71229
1.70257
1.69874
1.69719
1.697
1.69729
1.69949
1.70768
1.72733
1.74853
1.75245
1.75225
1.75445
1.74179
1.72486
1.73698
1.79129
1.89794
2.0624
2.2503
2.42725
2.53542
2.60719
2.6752
2.71729
2.72725
2.73597
2.73912
2.73847
2.74189
2.74881
2.7694
2.78554
2.78342
2.76832
2.74645
2.71734
2.68116
2.65977
2.65649
2.65749
2.66194
2.67293
2.69573
2.71062
2.70865
2.70276
2.69183
2.67249
2.65545
2.65054
2.65018
2.65212
2.66111
2.68064
2.69358
2.6952
2.69473
2.68868
2.66751
2.63457
2.61139
2.59855
2.59223
2.58977
2.59332
2.60664
2.61826
2.61926
2.61643
2.61142
2.60105
2.58685
2.57898
2.57481
2.57
2.56223
2.55013
2.53779
2.52998
2.52552
2.52285
2.52172
2.52667
2.54206
2.55044
2.55046
2.54727
2.54149
2.52377
2.47493
2.42087
2.39602
2.38704
2.38378
2.38397
2.40418
2.44891
2.47844
2.4881
2.48737
2.4816
2.46931
2.44553
2.41968
2.39539
2.37146
2.35359
2.34667
2.34548
2.35064
2.35505
2.35293
2.35074
2.3535
2.36435
2.37757
2.38254
2.37671
2.02208
2.01728
2.0078
1.99498
1.98694
1.98351
1.98103
1.97905
1.97799
1.98003
1.9869
1.98926
1.98744
1.9853
1.98055
1.97076
1.95857
1.95145
1.94867
1.9474
1.94707
1.94765
1.94987
1.95439
1.9596
1.96351
1.96825
1.97339
1.97424
1.98097
1.99162
1.99604
1.9976
1.99881
2.00264
2.00693
2.00402
1.99949
1.9951
1.99051
1.98433
1.97412
1.96033
1.95211
1.94961
1.9478
1.94599
1.94427
1.94239
1.94005
1.93773
1.935
1.92972
1.9193
1.91005
1.90682
1.90498
1.90386
1.90441
1.90786
1.91135
1.91129
1.90924
1.90702
1.90451
1.89919
1.8871
1.87208
1.864
1.8609
1.85858
1.85619
1.85332
1.84906
1.84158
1.83176
1.82588
1.82318
1.82147
1.82011
1.81883
1.81786
1.81837
1.82448
1.83641
1.84697
1.84989
1.84858
1.84666
1.84391
1.83803
1.82512
1.8059
1.78841
1.7782
1.77327
1.7698
1.76747
1.76742
1.77155
1.77902
1.78219
1.78108
1.7791
1.77644
1.77158
1.76523
1.76066
1.75794
1.75594
1.75416
1.75244
1.75154
1.75304
1.75836
1.76302
1.76282
1.76036
1.75664
1.75022
1.74019
1.72722
1.71819
1.71609
1.71558
1.71545
1.71625
1.71887
1.72604
1.73721
1.74328
1.74291
1.74024
1.73576
1.72746
1.71403
1.70141
1.69685
1.69586
1.69579
1.69643
1.69845
1.70521
1.7225
1.74492
1.75254
1.75123
1.74801
1.74275
1.71948
1.69712
1.70055
1.72871
1.80145
1.92074
2.10013
2.28294
2.44525
2.5449
2.61846
2.69407
2.72101
2.72879
2.74046
2.74187
2.74404
2.75841
2.76958
2.76897
2.76059
2.74551
2.72103
2.69217
2.67121
2.66545
2.66597
2.6703
2.67898
2.69351
2.70524
2.70506
2.70103
2.69152
2.67243
2.65336
2.64548
2.64411
2.6467
2.6583
2.6827
2.69981
2.70156
2.69988
2.69097
2.66072
2.61645
2.59306
2.58554
2.5826
2.58334
2.60505
2.62869
2.63247
2.63124
2.62854
2.6224
2.60613
2.58822
2.58071
2.57635
2.57103
2.56213
2.54825
2.53472
2.52806
2.52481
2.5227
2.52366
2.53061
2.53931
2.54352
2.54212
2.53582
2.51932
2.48765
2.44049
2.4036
2.39069
2.38798
2.38946
2.40596
2.44826
2.48906
2.49634
2.49218
2.48615
2.47573
2.44862
2.39956
2.36163
2.34706
2.34238
2.34039
2.34153
2.35214
2.36849
2.37963
2.38632
2.38795
2.38475
2.37893
2.3772
2.37126
2.02232
2.01966
2.01596
2.00883
1.99665
1.98581
1.98105
1.97844
1.97628
1.97479
1.97545
1.982
1.98723
1.98631
1.9848
1.98179
1.97542
1.96507
1.95492
1.94961
1.94684
1.94458
1.94385
1.9446
1.94829
1.95468
1.96112
1.96767
1.9745
1.97841
1.98625
1.99372
1.99761
1.99959
2.00064
2.00164
2.00397
2.00163
1.99719
1.99283
1.98815
1.98252
1.97401
1.96102
1.95116
1.94796
1.94593
1.94391
1.94193
1.93974
1.93753
1.93531
1.93251
1.9277
1.9192
1.91066
1.90679
1.90463
1.90298
1.90245
1.90366
1.9063
1.9077
1.90652
1.90466
1.90267
1.898
1.88768
1.87495
1.86812
1.86548
1.86354
1.86142
1.85856
1.85385
1.8447
1.83196
1.82412
1.8206
1.81843
1.8169
1.81561
1.81473
1.81511
1.81907
1.8267
1.83696
1.84526
1.84689
1.84503
1.8423
1.83776
1.82922
1.81599
1.79934
1.78281
1.77207
1.76722
1.76387
1.76285
1.76422
1.76989
1.77625
1.77795
1.77646
1.7746
1.77142
1.7666
1.76193
1.75799
1.75484
1.75209
1.74886
1.74644
1.7463
1.74945
1.75631
1.76007
1.75948
1.7585
1.75564
1.74935
1.73684
1.72192
1.7154
1.71344
1.71243
1.71201
1.7127
1.71699
1.7266
1.73609
1.73803
1.73661
1.73458
1.72925
1.71759
1.7027
1.69633
1.69568
1.69597
1.69699
1.69856
1.70295
1.71545
1.73671
1.74751
1.74704
1.74358
1.73661
1.72136
1.69423
1.68252
1.6838
1.69558
1.73598
1.81898
1.95297
2.14265
2.30759
2.46622
2.56052
2.63406
2.705
2.7181
2.72935
2.74342
2.75255
2.76153
2.76255
2.75943
2.74706
2.72634
2.70267
2.68058
2.67323
2.67212
2.67198
2.67726
2.6913
2.7008
2.69972
2.69555
2.68604
2.66751
2.64806
2.64195
2.64244
2.64596
2.65793
2.68024
2.69667
2.69812
2.6948
2.68147
2.6467
2.60598
2.5891
2.58582
2.58613
2.5949
2.62097
2.64364
2.6455
2.64121
2.63553
2.62308
2.60047
2.58463
2.57887
2.57441
2.56858
2.56002
2.54851
2.53652
2.52798
2.52379
2.52121
2.52168
2.52467
2.52499
2.52246
2.51587
2.50375
2.48746
2.46939
2.44858
2.42641
2.4136
2.41193
2.42035
2.43492
2.45282
2.47545
2.48636
2.48309
2.47116
2.44335
2.39477
2.35818
2.34566
2.34219
2.34063
2.3444
2.36652
2.39809
2.41188
2.41112
2.40684
2.39831
2.38354
2.37319
2.35899
2.02164
2.01994
2.01758
2.01469
2.00948
1.99902
1.98611
1.97912
1.97629
1.9742
1.97274
1.97285
1.97831
1.98562
1.98608
1.98461
1.98235
1.97802
1.96961
1.95728
1.94796
1.94376
1.94114
1.93991
1.93981
1.94244
1.94976
1.95922
1.96797
1.97642
1.98529
1.99379
1.99945
2.00206
2.00186
2.0009
1.99886
1.99837
1.99612
1.99265
1.98918
1.98506
1.9803
1.9733
1.96106
1.95009
1.94639
1.94431
1.94224
1.94004
1.93811
1.9363
1.93449
1.9322
1.92866
1.92197
1.91238
1.90552
1.90186
1.89973
1.89833
1.8978
1.89922
1.90284
1.90439
1.9033
1.90201
1.89867
1.89136
1.88117
1.87417
1.87101
1.86859
1.86592
1.86251
1.85695
1.84643
1.83169
1.82196
1.81831
1.81611
1.81444
1.81319
1.81255
1.81279
1.81425
1.81744
1.82478
1.83582
1.84258
1.84222
1.84009
1.83732
1.83254
1.82502
1.81277
1.79352
1.77373
1.76392
1.75917
1.75698
1.75646
1.75889
1.76581
1.77298
1.77457
1.77369
1.77206
1.76943
1.76576
1.76076
1.75476
1.74943
1.7448
1.74112
1.74031
1.74183
1.74943
1.75912
1.76098
1.76024
1.75844
1.75397
1.74259
1.72431
1.71326
1.7101
1.70826
1.70734
1.70708
1.70907
1.71666
1.72899
1.73547
1.73541
1.73494
1.73201
1.72328
1.70813
1.69851
1.69705
1.69672
1.69653
1.69652
1.69828
1.7065
1.72543
1.74037
1.74132
1.73845
1.73322
1.72078
1.69708
1.67998
1.67727
1.67743
1.68173
1.6997
1.7507
1.84133
1.98087
2.16333
2.32554
2.46641
2.56223
2.63059
2.68256
2.72856
2.75222
2.76141
2.76412
2.76073
2.75401
2.73571
2.70482
2.68052
2.66807
2.66295
2.66281
2.66951
2.68512
2.6951
2.69388
2.68996
2.68285
2.66844
2.64987
2.64238
2.64316
2.64691
2.65376
2.66737
2.68383
2.68869
2.68578
2.6749
2.65427
2.62666
2.60751
2.60239
2.60368
2.60867
2.61913
2.63443
2.64162
2.63839
2.63053
2.61556
2.59262
2.57834
2.57307
2.56909
2.56428
2.55857
2.55038
2.53816
2.52643
2.52029
2.51629
2.51237
2.50779
2.50234
2.49612
2.49001
2.48581
2.48497
2.48243
2.47442
2.45853
2.44414
2.439
2.43669
2.43422
2.43761
2.4492
2.45296
2.44548
2.42705
2.40292
2.37829
2.36065
2.35412
2.35335
2.36444
2.39413
2.41192
2.41193
2.41061
2.40737
2.39921
2.384
2.36231
2.33427
2.01643
2.01834
2.01775
2.01569
2.01345
2.00972
2.00185
1.98896
1.97894
1.97522
1.97319
1.97203
1.97193
1.97562
1.98307
1.98539
1.98372
1.9817
1.97845
1.97164
1.95865
1.94597
1.94036
1.93744
1.936
1.93563
1.93775
1.94591
1.95787
1.969
1.98013
1.99223
2.00127
2.00527
2.0048
2.00229
1.99932
1.99609
1.99433
1.99096
1.9879
1.9853
1.98214
1.97823
1.97169
1.95999
1.94841
1.94374
1.94143
1.93962
1.93862
1.93809
1.93744
1.93639
1.93434
1.93091
1.9238
1.9118
1.90257
1.89735
1.89449
1.89256
1.89124
1.89178
1.89765
1.90316
1.90312
1.90227
1.89985
1.89446
1.88562
1.87793
1.87374
1.87066
1.86768
1.86426
1.8592
1.84996
1.83515
1.82194
1.81671
1.8145
1.8127
1.81118
1.81
1.80923
1.80885
1.80986
1.81413
1.82384
1.83574
1.84039
1.83963
1.83812
1.83553
1.83119
1.8225
1.80384
1.77689
1.75982
1.75344
1.7498
1.74839
1.74873
1.75458
1.76622
1.77378
1.77451
1.77377
1.77202
1.76909
1.76382
1.75531
1.74641
1.74049
1.73666
1.73561
1.73666
1.74391
1.75629
1.76092
1.75989
1.75817
1.75467
1.74488
1.7261
1.71118
1.70642
1.70396
1.70237
1.70186
1.70265
1.70876
1.72274
1.73462
1.73668
1.73669
1.73521
1.72895
1.71467
1.70124
1.69665
1.6946
1.69344
1.69266
1.69276
1.69757
1.71317
1.73176
1.73608
1.7343
1.73109
1.72187
1.70031
1.67939
1.67514
1.67448
1.67418
1.67579
1.68416
1.70521
1.75547
1.84557
1.98932
2.17374
2.34177
2.45515
2.55973
2.64167
2.70323
2.74256
2.75862
2.76367
2.75708
2.73581
2.70523
2.67432
2.6579
2.6522
2.64994
2.6525
2.66739
2.68545
2.69024
2.68941
2.68742
2.67777
2.66083
2.64692
2.64307
2.64346
2.64547
2.65352
2.66936
2.68075
2.6829
2.6829
2.67637
2.65864
2.63277
2.61732
2.61293
2.60902
2.61005
2.62152
2.63111
2.62903
2.62186
2.60783
2.58601
2.57154
2.56682
2.56398
2.56146
2.55804
2.55154
2.53912
2.52292
2.50903
2.49767
2.4896
2.48488
2.48343
2.48548
2.49121
2.49851
2.50449
2.5058
2.50204
2.48906
2.46403
2.44011
2.42723
2.41902
2.41318
2.41149
2.41129
2.40842
2.4035
2.398
2.38853
2.38228
2.3842
2.40035
2.41472
2.41365
2.41019
2.40669
2.40143
2.39105
2.37101
2.33856
2.3156
2.01323
2.01288
2.01425
2.0155
2.01432
2.01244
2.00986
2.00456
1.99386
1.98156
1.97564
1.97327
1.97189
1.97139
1.97322
1.97931
1.9835
1.98222
1.98015
1.9773
1.97141
1.95876
1.94411
1.93742
1.93456
1.93293
1.93244
1.93495
1.94399
1.95769
1.97102
1.98396
1.99695
2.00547
2.00819
2.00596
2.00058
1.99693
1.99388
1.9914
1.9874
1.98477
1.98212
1.97902
1.97484
1.9684
1.95792
1.947
1.94241
1.9405
1.93918
1.93906
1.93983
1.93928
1.93751
1.93508
1.93126
1.92286
1.90865
1.89746
1.89167
1.88874
1.8867
1.8853
1.88655
1.89558
1.904
1.90398
1.90228
1.89962
1.89411
1.88483
1.87726
1.87352
1.87084
1.86845
1.86593
1.86236
1.85568
1.84273
1.82626
1.81716
1.81369
1.81089
1.80789
1.80564
1.80441
1.80332
1.8026
1.80405
1.81225
1.82848
1.84001
1.84058
1.83947
1.83741
1.83416
1.82736
1.81031
1.78016
1.75624
1.74758
1.74318
1.74113
1.74085
1.74543
1.75935
1.77299
1.77602
1.77538
1.77398
1.77138
1.76599
1.75578
1.74384
1.73708
1.73379
1.73244
1.73286
1.73804
1.74928
1.75757
1.7579
1.75603
1.7527
1.74464
1.72747
1.71002
1.70278
1.69988
1.6981
1.69773
1.69843
1.70388
1.71758
1.73342
1.73857
1.73843
1.7375
1.73255
1.71841
1.70125
1.69368
1.69071
1.6892
1.68831
1.68778
1.69
1.70258
1.72425
1.73307
1.73188
1.72955
1.72251
1.70335
1.68093
1.67371
1.6718
1.67044
1.67019
1.67149
1.67397
1.67993
1.70171
1.75558
1.85817
2.01488
2.20186
2.36448
2.48402
2.58266
2.67105