/*--------------------------------*- C++ -*----------------------------------*\
  =========                 |
  \\      /  F ield         | OpenFOAM: The Open Source CFD Toolbox
   \\    /   O peration     | Website:  https://openfoam.org
    \\  /    A nd           | Version:  7
     \\/     M anipulation  |
\*---------------------------------------------------------------------------*/
FoamFile
{
    version     2.0;
    format      ascii;
    class       volScalarField;
    location    "1.2";
    object      T;
}
// * * * * * * * * * * * * * * * * * * * * * * * * * * * * * * * * * * * * * //

dimensions      [0 0 0 1 0 0 0];

internalField   nonuniform List<scalar> 
16192
(
2.51691
2.54902
2.60767
2.65149
2.67073
2.67586
2.67357
2.67252
2.67732
2.65649
2.58727
2.52861
2.52485
2.54066
2.58761
2.64502
2.71051
2.7733
2.83355
2.87889
2.90893
2.51757
2.54771
2.60608
2.65102
2.67082
2.67644
2.67446
2.67363
2.67709
2.65504
2.59156
2.5331
2.52822
2.53904
2.57842
2.62908
2.69108
2.75058
2.80484
2.84651
2.87567
2.51705
2.54259
2.60071
2.64962
2.6733
2.68089
2.68077
2.68076
2.68249
2.6598
2.60065
2.54031
2.53434
2.5385
2.56792
2.60554
2.65216
2.69742
2.7403
2.77413
2.80121
2.51738
2.53469
2.5905
2.64546
2.67469
2.68434
2.68569
2.68531
2.68415
2.66197
2.60988
2.5499
2.53805
2.53246
2.54586
2.56954
2.60119
2.63394
2.66786
2.69632
2.72145
2.51998
2.52589
2.5746
2.63516
2.67082
2.68534
2.68767
2.6857
2.67898
2.65576
2.61132
2.55649
2.53865
2.52718
2.52511
2.53516
2.55651
2.58163
2.60993
2.63473
2.65793
2.52561
2.5193
2.55367
2.6145
2.6562
2.67257
2.67157
2.66423
2.65149
2.63167
2.60087
2.55535
2.53413
2.51701
2.50923
2.51169
2.5294
2.55037
2.57525
2.59713
2.61802
2.53804
2.51769
2.53215
2.58316
2.62965
2.64554
2.6392
2.62309
2.60533
2.58944
2.57129
2.5405
2.52095
2.50621
2.49975
2.50118
2.51639
2.53418
2.55478
2.57273
2.5908
2.56132
2.52353
2.51667
2.54359
2.58502
2.60529
2.59881
2.57346
2.54733
2.52901
2.51622
2.49948
2.48862
2.48497
2.48658
2.49392
2.50914
2.52342
2.53955
2.55367
2.56832
2.59731
2.54306
2.5142
2.51087
2.53353
2.55104
2.54699
2.51531
2.47681
2.45009
2.43995
2.43468
2.43932
2.45004
2.46569
2.48204
2.50194
2.51547
2.52854
2.53912
2.55035
2.63225
2.57823
2.52659
2.496
2.49118
2.49417
2.49154
2.46021
2.41604
2.38044
2.36585
2.36134
2.37524
2.39881
2.43347
2.46682
2.49411
2.50872
2.52075
2.52847
2.53686
2.64766
2.61528
2.56144
2.50791
2.47277
2.45283
2.43964
2.41147
2.36744
2.32589
2.30625
2.30006
2.31626
2.34649
2.39532
2.4462
2.48577
2.50477
2.51776
2.52169
2.52789
2.64104
2.63221
2.60044
2.54266
2.48302
2.44099
2.40767
2.37314
2.33363
2.29343
2.26782
2.2569
2.26894
2.29982
2.35714
2.42209
2.4776
2.5023
2.51542
2.51259
2.51463
2.6133
2.62648
2.61641
2.58168
2.51954
2.45594
2.40779
2.36073
2.3175
2.27712
2.2476
2.23362
2.24158
2.26871
2.32764
2.40086
2.47087
2.50502
2.51919
2.50663
2.5059
2.56028
2.5925
2.60876
2.59796
2.55796
2.49485
2.4273
2.36978
2.32025
2.27661
2.24133
2.2244
2.22911
2.25201
2.30858
2.38628
2.46762
2.51231
2.53176
2.51709
2.51906
2.48037
2.52537
2.56616
2.5868
2.57299
2.5345
2.47314
2.4034
2.3407
2.2876
2.24669
2.22618
2.22772
2.24643
2.30084
2.38124
2.46962
2.52378
2.54945
2.53164
2.53421
2.39967
2.43736
2.48879
2.53949
2.55875
2.54763
2.51047
2.4531
2.38396
2.31839
2.26672
2.23723
2.23478
2.25269
2.30104
2.38181
2.47728
2.54137
2.57324
2.55282
2.55787
2.31366
2.34662
2.39082
2.44836
2.50442
2.52751
2.51939
2.48846
2.44006
2.37695
2.31301
2.26748
2.25406
2.27106
2.31678
2.39536
2.49415
2.56427
2.60082
2.57991
2.58938
2.2379
2.26693
2.29822
2.34734
2.41056
2.47027
2.50211
2.49467
2.47153
2.43102
2.37579
2.32132
2.29325
2.30527
2.34801
2.42198
2.51919
2.59204
2.63256
2.61347
2.62817
2.17825
2.19954
2.22169
2.25329
2.30365
2.37055
2.43565
2.47102
2.47115
2.45776
2.42853
2.3862
2.35258
2.35852
2.39474
2.46284
2.55379
2.62347
2.66512
2.64851
2.66714
2.1421
2.15365
2.16504
2.18289
2.2132
2.26556
2.3401
2.40737
2.44914
2.45399
2.44896
2.43136
2.41208
2.41825
2.45178
2.51239
2.5929
2.65661
2.69793
2.68377
2.70684
2.12768
2.12895
2.13027
2.13491
2.1474
2.17771
2.23188
2.30571
2.37817
2.42195
2.44515
2.44808
2.44588
2.46464
2.50778
2.5636
2.63432
2.69048
2.7295
2.7168
2.74066
2.12813
2.12113
2.11287
2.1061
2.10552
2.11578
2.14701
2.20352
2.28162
2.35981
2.41163
2.44166
2.45493
2.48638
2.54333
2.60605
2.67331
2.72331
2.75982
2.74794
2.77081
2.13129
2.12204
2.10778
2.09371
2.07946
2.07829
2.08856
2.12033
2.17896
2.2574
2.33846
2.40182
2.44456
2.48736
2.5583
2.6349
2.70598
2.75378
2.78867
2.77684
2.79767
2.13829
2.12521
2.10897
2.0906
2.07058
2.05515
2.05335
2.06453
2.0979
2.16116
2.2418
2.33177
2.40735
2.46507
2.55516
2.64569
2.72726
2.77947
2.8163
2.80497
2.8224
2.14706
2.13163
2.11238
2.09243
2.07007
2.04854
2.0315
2.031
2.04352
2.08044
2.14429
2.2316
2.32943
2.41598
2.53197
2.64302
2.73843
2.79967
2.84143
2.82964
2.84682
2.15585
2.13971
2.11935
2.09696
2.07282
2.04915
2.02543
2.00944
2.01032
2.02677
2.06661
2.1372
2.2334
2.34041
2.47761
2.62108
2.737
2.81215
2.86338
2.8544
2.87033
2.16308
2.14789
2.12779
2.10441
2.07796
2.0524
2.02627
2.00291
1.989
1.99368
2.01375
2.06079
2.1367
2.24524
2.38787
2.57004
2.72153
2.81701
2.87964
2.87471
2.89127
2.16823
2.15465
2.13576
2.11229
2.08509
2.05737
2.02953
2.00401
1.98013
1.9739
1.98093
2.00748
2.05984
2.15208
2.28137
2.49025
2.68138
2.80781
2.88488
2.89272
2.91496
2.17177
2.15929
2.142
2.1192
2.09226
2.0641
2.03476
2.00773
1.9817
1.9632
1.96156
1.97328
2.00503
2.07167
2.1779
2.38573
2.61075
2.77882
2.87934
2.90712
2.93148
2.17392
2.16221
2.14609
2.12481
2.09877
2.07151
2.04171
2.01377
1.9857
1.96431
1.94886
1.95293
1.96997
2.01395
2.09166
2.27523
2.51591
2.72477
2.8574
2.91261
2.94347
2.17535
2.1639
2.14883
2.12902
2.10478
2.07867
2.04969
2.02104
1.99191
1.96769
1.94397
1.94134
1.94843
1.9763
2.02717
2.17364
2.40644
2.64228
2.81303
2.90624
2.94211
2.17657
2.16508
2.1508
2.13253
2.11005
2.08549
2.05739
2.02897
1.99916
1.97321
1.94754
1.93464
1.93695
1.95411
1.98465
2.09156
2.29816
2.54098
2.743
2.87329
2.9716
2.17812
2.1663
2.15252
2.13565
2.1147
2.09152
2.06426
2.03687
2.00665
1.9803
1.95396
1.93415
1.93097
1.9409
1.95925
2.03125
2.20234
2.43211
2.65401
2.8049
2.81466
2.18031
2.16792
2.15434
2.13846
2.11853
2.09655
2.07005
2.04418
2.01417
1.98789
1.96144
1.93777
1.92811
1.93395
1.94485
1.991
2.12932
2.32815
2.54424
2.71355
2.69684
2.1825
2.17016
2.15637
2.14082
2.12146
2.10037
2.07508
2.0503
2.02177
1.99503
1.96936
1.94419
1.92814
1.93044
1.93772
1.96847
2.07505
2.23759
2.44353
2.60203
2.58177
2.18367
2.1726
2.15853
2.14274
2.12366
2.1034
2.07938
2.05556
2.02887
2.00179
1.97677
1.95223
1.92983
1.92883
1.93469
1.95744
2.03136
2.17234
2.34891
2.48981
2.48552
2.18326
2.17423
2.16053
2.14461
2.12573
2.1061
2.08321
2.06017
2.03498
2.00871
1.98308
1.96055
1.93457
1.92913
1.93336
1.95124
2.00264
2.1284
2.26783
2.38439
2.39738
2.18184
2.17443
2.16238
2.14671
2.12809
2.10886
2.08681
2.06449
2.04026
2.01522
1.98913
1.96805
1.94038
1.93035
1.93298
1.94656
1.98439
2.09347
2.20458
2.29967
2.32083
2.17905
2.17333
2.16319
2.1488
2.13077
2.11189
2.09045
2.06859
2.04537
2.02069
1.99559
1.97371
1.94711
1.93374
1.93365
1.94235
1.97331
2.06358
2.16233
2.23865
2.25457
2.17501
2.17132
2.16297
2.15047
2.13364
2.11508
2.09418
2.07265
2.05012
2.02571
2.00194
1.9787
1.95404
1.93852
1.93336
1.93941
1.96579
2.03638
2.13139
2.19737
2.20355
2.17125
2.16822
2.16162
2.15097
2.13597
2.11809
2.09772
2.07649
2.05458
2.03041
2.00783
1.98357
1.96137
1.94231
1.93357
1.93802
1.9594
2.01498
2.10799
2.16642
2.16818
2.16638
2.16399
2.15902
2.15046
2.13727
2.12051
2.10082
2.08017
2.05837
2.03512
2.01286
1.98904
1.96791
1.94523
1.93568
1.93837
1.95391
1.99856
2.09041
2.1378
2.149
2.15948
2.15946
2.15631
2.14905
2.13741
2.1222
2.10335
2.08344
2.0617
2.0397
2.01714
1.99507
1.97317
1.94986
1.93931
1.93819
1.94894
1.98559
2.07283
2.11361
2.1397
2.1515
2.1555
2.1524
2.14634
2.13656
2.12288
2.10528
2.0862
2.06471
2.044
2.02136
2.00097
1.97815
1.95661
1.94239
1.9377
1.94512
1.97539
2.05124
2.10314
2.13251
2.14477
2.14978
2.14713
2.14269
2.13481
2.12285
2.10677
2.08848
2.06772
2.04771
2.02589
2.00604
1.98385
1.96315
1.94377
1.93816
1.94247
1.96634
2.02849
2.09625
2.12838
2.13892
2.14212
2.14212
2.13899
2.13226
2.12187
2.10745
2.09033
2.07078
2.0511
2.03048
2.01026
1.98988
1.96826
1.94681
1.93953
1.9402
1.9576
2.00795
2.08625
2.12312
2.13344
2.13455
2.13707
2.13372
2.12844
2.11986
2.10751
2.09208
2.07387
2.05447
2.03472
2.01421
1.99529
1.9728
1.95244
1.94043
1.93757
1.95002
1.99036
2.07113
2.11761
2.12886
2.12813
2.1299
2.1285
2.12452
2.11731
2.10697
2.09326
2.07662
2.05789
2.03841
2.01833
1.99938
1.9779
1.95774
1.93972
1.93725
1.94428
1.97463
2.05175
2.11018
2.12622
2.12221
2.12228
2.12315
2.11968
2.11345
2.10497
2.09335
2.07859
2.06105
2.04179
2.0224
2.00284
1.98316
1.96186
1.94169
1.93698
1.93924
1.96038
2.03017
2.10044
2.12495
2.11755
2.11548
2.11683
2.11396
2.10951
2.10261
2.09268
2.07954
2.06351
2.04504
2.02622
2.00653
1.98791
1.96607
1.94682
1.93578
1.93506
1.94899
2.00594
2.09512
2.12362
2.11471
2.1094
2.10935
2.10864
2.10519
2.09925
2.0908
2.07954
2.0654
2.04816
2.02977
2.01069
1.99203
1.97118
1.9517
1.93447
1.93354
1.9412
1.98339
2.087
2.12242
2.11294
2.10549
2.10241
2.10261
2.09996
2.09538
2.08824
2.07864
2.06622
2.05072
2.03319
2.01488
1.99613
1.97687
1.95588
1.93678
1.93248
1.93413
1.96427
2.07027
2.12121
2.11138
2.10295
2.0969
2.09626
2.09446
2.09075
2.08471
2.07645
2.06589
2.05236
2.03625
2.01876
2.00057
1.98203
1.96142
1.94138
1.93037
1.93095
1.94937
2.0481
2.11967
2.11
2.10124
2.09331
2.09004
2.0884
2.0854
2.08047
2.07355
2.06442
2.05254
2.03844
2.02203
2.005
1.98674
1.96758
1.9467
1.93057
1.92878
1.93901
2.02138
2.11763
2.10847
2.09967
2.09105
2.08516
2.08194
2.07975
2.07584
2.06973
2.06181
2.05173
2.03936
2.0245
2.00872
1.99139
1.9733
1.9527
1.9338
1.92674
1.93098
1.99516
2.11511
2.10653
2.09814
2.08942
2.08195
2.07638
2.07369
2.07023
2.06522
2.0585
2.04962
2.03898
2.02576
2.01151
1.99533
1.97846
1.95907
1.93888
1.92653
1.9278
1.97319
2.11234
2.10393
2.09631
2.08779
2.07978
2.07248
2.06771
2.06438
2.05982
2.05432
2.04679
2.03744
2.02568
2.01271
1.99833
1.98252
1.96514
1.94504
1.92683
1.92716
1.95671
2.10964
2.10104
2.09409
2.08597
2.07791
2.07011
2.06307
2.05822
2.05395
2.04954
2.04319
2.03484
2.0245
2.01257
1.99978
1.98549
1.96995
1.95139
1.92973
1.92606
1.94489
2.10674
2.09792
2.09126
2.08373
2.07603
2.06803
2.06004
2.05374
2.04759
2.04409
2.03895
2.03152
2.02212
2.01142
1.99978
1.98694
1.97329
1.95685
1.93517
1.9254
1.9365
2.10408
2.09506
2.0881
2.08107
2.07394
2.0662
2.05787
2.05075
2.04327
2.03832
2.03366
2.02713
2.01911
2.00933
1.99893
1.98697
1.97505
1.96071
1.94125
1.92606
1.93179
2.1015
2.09226
2.08494
2.07781
2.07126
2.06416
2.05597
2.04834
2.04056
2.0334
2.02799
2.02196
2.01527
2.00641
1.997
1.98601
1.97528
1.96248
1.94641
1.92719
1.93012
2.09958
2.08988
2.08211
2.07442
2.06827
2.06157
2.05397
2.04635
2.03842
2.03034
2.02321
2.0164
2.01073
2.00279
1.99418
1.98382
1.97448
1.96271
1.94996
1.92889
1.92989
2.09806
2.0879
2.07958
2.07111
2.06468
2.05832
2.0514
2.04425
2.03652
2.02813
2.0201
2.01167
2.00589
1.99852
1.99073
1.98099
1.97251
1.96227
1.95143
1.93123
1.93029
2.09703
2.08644
2.0774
2.06828
2.06109
2.0549
2.0482
2.0417
2.0346
2.02633
2.0178
2.00867
2.00158
1.99403
1.98656
1.9777
1.96986
1.96118
1.95138
1.93421
1.92977
2.09615
2.08548
2.07557
2.066
2.05793
2.05153
2.04477
2.03861
2.03214
2.02449
2.01576
2.00641
1.99836
1.99007
1.98233
1.97419
1.96694
1.95964
1.9506
1.93675
1.92864
2.09553
2.08476
2.07425
2.06425
2.05521
2.04823
2.04136
2.03505
2.02903
2.02211
2.01359
2.00437
1.99584
1.9872
1.97882
1.97119
1.96404
1.9577
1.94942
1.93761
1.9267
2.09484
2.08413
2.07335
2.06288
2.05339
2.04539
2.03819
2.03141
2.0254
2.01895
2.01086
2.0023
1.99388
1.98509
1.97645
1.96921
1.96182
1.95557
1.94782
1.93688
1.92401
2.0941
2.08347
2.07258
2.06202
2.05195
2.04309
2.03546
2.02807
2.02149
2.01525
2.00759
1.99985
1.99218
1.98375
1.97524
1.96826
1.96049
1.95349
1.94559
1.9351
1.92158
2.09313
2.08262
2.07196
2.06137
2.05108
2.04165
2.03315
2.02514
2.01777
2.01122
2.00383
1.99683
1.99017
1.98259
1.97474
1.96777
1.95967
1.95139
1.94297
1.93236
1.91962
2.09193
2.08163
2.07119
2.0608
2.05051
2.04046
2.03134
2.02251
2.01415
2.00716
1.99999
1.99356
1.98778
1.98132
1.97433
1.96705
1.95846
1.94911
1.94004
1.92915
1.91726
2.09057
2.08045
2.07035
2.06022
2.04998
2.0397
2.02985
2.02029
2.01129
2.00369
1.99666
1.99078
1.98548
1.9797
1.97315
1.96565
1.95658
1.9468
1.93703
1.92654
1.9145
2.0891
2.07918
2.06935
2.05943
2.04935
2.03889
2.02853
2.01854
2.00901
2.00088
1.99405
1.9883
1.98293
1.97736
1.97099
1.96348
1.95436
1.94442
1.93442
1.9241
1.913
2.08763
2.07787
2.06823
2.05845
2.04849
2.03796
2.02748
2.01731
2.00776
1.99939
1.99255
1.98652
1.98047
1.97421
1.96768
1.95986
1.95102
1.94137
1.93173
1.92198
1.91157
2.08619
2.0766
2.06702
2.0572
2.0473
2.03692
2.02649
2.01673
2.0076
1.99918
1.99184
1.98488
1.97753
1.97024
1.96275
1.95433
1.94578
1.93712
1.92847
1.91984
1.91034
2.0848
2.07534
2.06569
2.05584
2.046
2.03584
2.02596
2.01687
2.00796
1.99936
1.99127
1.98308
1.97439
1.96585
1.95746
1.94858
1.94022
1.93228
1.92447
1.91703
1.90924
2.08339
2.07405
2.06435
2.05443
2.04476
2.03506
2.02601
2.01744
2.00879
1.99983
1.99058
1.98106
1.97128
1.96144
1.95217
1.94299
1.9344
1.9273
1.92034
1.91373
1.90745
2.08184
2.07263
2.06295
2.05324
2.044
2.03507
2.02655
2.01836
2.00943
1.99978
1.98969
1.97897
1.968
1.95725
1.94752
1.93804
1.92923
1.92259
1.91666
1.91093
1.90528
2.08012
2.07109
2.06174
2.05252
2.04405
2.03563
2.02742
2.01903
2.00945
1.99923
1.98825
1.97656
1.965
1.95419
1.94371
1.93388
1.92563
1.91931
1.91374
1.9084
1.9031
2.07824
2.06962
2.06091
2.05262
2.04467
2.03655
2.0281
2.0189
2.00863
1.99769
1.98625
1.97428
1.9625
1.95135
1.94087
1.9315
1.92334
1.91696
1.91146
1.90588
1.90037
2.07652
2.06856
2.06094
2.05328
2.04558
2.03719
2.02788
2.01785
2.00693
1.99568
1.98407
1.97202
1.96039
1.94984
1.93961
1.93039
1.92257
1.91575
1.90943
1.90335
1.89714
2.07527
2.06843
2.0614
2.05411
2.0459
2.03673
2.02665
2.01591
2.00457
1.99321
1.98169
1.97027
1.95935
1.94915
1.93944
1.93045
1.92261
1.91479
1.90755
1.90084
1.89415
2.07526
2.06887
2.06201
2.05404
2.04509
2.03515
2.02443
2.01327
2.00198
1.99096
1.97984
1.96896
1.95889
1.94943
1.93994
1.93101
1.92277
1.91427
1.90622
1.89873
1.89163
2.0757
2.0691
2.06153
2.05278
2.04297
2.03249
2.02154
2.01041
1.9995
1.98887
1.9783
1.96841
1.95924
1.95018
1.94094
1.93203
1.9232
1.91422
1.90546
1.89773
1.89036
2.07573
2.0683
2.05974
2.05021
2.03989
2.02927
2.01847
2.00767
1.99743
1.98755
1.97769
1.96854
1.95993
1.95114
1.942
1.93306
1.92397
1.91444
1.90541
1.89736
1.88995
2.07431
2.06581
2.05649
2.04656
2.0363
2.02601
2.01568
2.00553
1.99606
1.98678
1.97759
1.96902
1.96076
1.95199
1.94292
1.93389
1.92453
1.91491
1.90588
1.89764
1.89
2.07109
2.06192
2.05238
2.0426
2.03282
2.0232
2.01359
2.00424
1.9956
1.98694
1.97802
1.96964
1.96138
1.9525
1.94345
1.93442
1.9252
1.91568
1.90658
1.89839
1.89052
2.06639
2.05713
2.04788
2.03869
2.02984
2.02119
2.01239
2.00404
1.99588
1.98732
1.97843
1.97006
1.96163
1.95264
1.94374
1.93478
1.92559
1.91636
1.90765
1.89943
1.89133
2.06105
2.05212
2.04353
2.03533
2.02766
2.02003
2.01208
2.00426
1.99625
1.98772
1.9789
1.97019
1.96149
1.9525
1.94369
1.93489
1.92608
1.91722
1.90863
1.90043
1.89248
2.05574
2.04768
2.0402
2.0332
2.02659
2.01954
2.01184
2.00417
1.99609
1.98752
1.97882
1.97009
1.96124
1.9523
1.94365
1.93503
1.92636
1.91787
1.90966
1.90143
1.89346
2.05138
2.04463
2.03829
2.03226
2.02598
2.01885
2.01116
2.00347
1.99535
1.98698
1.97862
1.9699
1.96091
1.95212
1.94352
1.93506
1.92673
1.91853
1.91041
1.90222
1.89429
2.04824
2.04307
2.03762
2.03168
2.02509
2.01764
2.00986
2.00218
1.99423
1.98613
1.97819
1.96978
1.9609
1.95225
1.94367
1.93523
1.92698
1.91898
1.91093
1.90285
1.8949
2.04823
2.04284
2.03686
2.03044
2.02334
2.01564
2.00803
2.00043
1.99273
1.98517
1.97766
1.96951
1.96081
1.95231
1.94376
1.93529
1.92722
1.91937
1.91126
1.9031
1.89537
2.04778
2.042
2.03542
2.02843
2.02102
2.01332
2.00599
1.99872
1.99134
1.98413
1.97693
1.96907
1.9607
1.9523
1.94389
1.93544
1.92736
1.91944
1.91144
1.90333
1.89571
2.0463
2.04028
2.0335
2.02623
2.01862
2.01108
2.00405
1.99702
1.9899
1.98305
1.97605
1.96832
1.96029
1.95207
1.94378
1.93535
1.92738
1.91946
1.91146
1.90348
1.89599
2.18716
1.88409
1.75408
1.75394
1.81811
1.89863
2.01421
2.17771
2.23089
2.2254
2.2109
2.18674
2.15488
2.12196
2.09798
2.07798
2.06206
2.05039
2.03738
2.01374
1.98847
1.96416
1.9403
1.91765
1.89768
1.88404
1.87439
1.86433
1.85236
1.838
1.8206
1.80258
1.78535
1.77013
1.75811
1.74748
1.73739
1.72626
1.71341
1.70115
1.69048
1.68156
1.67454
1.67001
1.66646
1.66278
1.65877
1.65405
1.65019
1.65071
1.65747
1.68002
1.71991
1.75238
1.76503
1.77036
1.77438
1.77843
1.78072
1.78231
1.7852
1.78987
1.79515
1.79957
1.80323
1.8072
1.8124
1.81944
1.8288
1.84066
1.85358
1.86559
1.87648
1.88686
1.8967
1.90575
1.91439
1.92224
1.92958
1.93749
1.9466
1.95727
1.97035
1.98505
1.99794
2.00699
2.01219
2.016
2.02121
2.02858
2.03786
2.04921
2.06322
2.08055
2.09962
2.11677
2.12809
2.13345
2.13497
2.1348
2.13423
2.13385
2.13114
2.12205
2.10589
2.08976
2.06966
2.0442
2.01567
1.98872
1.96824
1.95191
1.93767
1.92661
1.91685
1.90701
1.89588
1.8836
1.87188
1.86273
1.85764
1.85542
1.85278
1.8488
1.84538
1.84442
1.84255
1.83912
1.83375
1.82617
1.81753
1.80889
1.80115
1.79526
1.79276
1.79276
1.79305
1.79342
1.79327
1.79098
1.78278
1.76578
1.7502
1.74458
1.73751
1.72524
1.7161
1.70972
1.7035
1.69808
1.69502
1.69216
1.68726
1.67815
1.66627
1.65464
1.6431
1.63159
1.62095
1.61124
1.6041
1.60173
1.60087
1.59706
1.58662
1.57468
1.56365
1.55249
1.54157
1.53285
1.5268
1.52037
1.51469
1.5115
1.51061
1.51068
1.51096
1.51216
1.51509
1.51982
1.52531
1.53064
1.53505
1.53686
1.53693
1.53622
1.53625
1.53798
1.54093
1.54478
1.54973
1.55659
1.56647
1.57967
1.59711
1.61869
1.63732
1.64628
1.65071
1.65468
1.65964
1.66491
1.66752
1.66812
1.66881
1.67033
1.67242
1.6743
1.67623
1.67946
1.68476
1.69169
1.69986
1.70925
1.72006
1.73245
1.74559
1.75783
1.76876
1.77959
1.79163
1.80566
1.8218
1.83916
1.85592
1.87125
1.88572
1.9
1.91454
1.93031
2.34707
2.15052
2.02726
1.92273
1.90252
1.8928
1.91687
2.0342
2.15817
2.17006
2.16437
2.15099
2.13333
2.1133
2.09497
2.07556
2.05603
2.03881
2.02144
2.00127
1.98083
1.96035
1.93984
1.91941
1.90021
1.88472
1.87163
1.85755
1.84112
1.82461
1.80909
1.79476
1.7808
1.76724
1.75428
1.74198
1.72975
1.71722
1.70519
1.69434
1.6843
1.67593
1.66919
1.66304
1.65803
1.65355
1.64893
1.64354
1.64057
1.64156
1.64833
1.66848
1.70698
1.74301
1.75749
1.76266
1.7664
1.76934
1.77066
1.77216
1.77524
1.78002
1.78546
1.79059
1.79511
1.79975
1.80543
1.81262
1.82141
1.83202
1.8443
1.85666
1.86835
1.87977
1.89044
1.89978
1.90808
1.91542
1.92206
1.92914
1.93758
1.94731
1.95841
1.9716
1.98452
1.99482
2.0027
2.00973
2.0171
2.02465
2.03277
2.04281
2.05569
2.07202
2.09121
2.11071
2.12592
2.13395
2.13552
2.13521
2.13405
2.13123
2.1255
2.11614
2.10511
2.09068
2.07089
2.04637
2.01889
1.99245
1.97125
1.9543
1.94043
1.93003
1.92109
1.91131
1.89984
1.8872
1.87492
1.86527
1.85982
1.85742
1.85495
1.85117
1.84721
1.84639
1.84517
1.84259
1.8383
1.83274
1.82622
1.81897
1.81153
1.80496
1.79975
1.79601
1.79395
1.79278
1.79103
1.78546
1.77278
1.75403
1.7374
1.73291
1.73221
1.72445
1.71406
1.7064
1.70005
1.69419
1.69026
1.68694
1.68231
1.67284
1.66098
1.65012
1.64006
1.62972
1.61957
1.61011
1.60269
1.59904
1.59689
1.59239
1.5831
1.57213
1.56162
1.55113
1.54094
1.53241
1.52609
1.51908
1.51306
1.50953
1.5087
1.50884
1.50926
1.51058
1.51354
1.51817
1.52361
1.52883
1.53294
1.53456
1.53432
1.5332
1.53356
1.53561
1.53855
1.54245
1.54733
1.55386
1.56326
1.57632
1.59415
1.61611
1.63456
1.64307
1.647
1.65054
1.65554
1.66081
1.66336
1.66415
1.66513
1.66716
1.67007
1.67276
1.67507
1.67814
1.68299
1.68961
1.69766
1.70696
1.71753
1.72957
1.74291
1.75601
1.76803
1.77965
1.79187
1.80561
1.82118
1.83793
1.85439
1.86972
1.88403
1.89752
1.9108
1.92523
2.36727
2.21361
2.10469
1.98826
1.90304
1.85851
1.84631
1.90114
2.02825
2.09412
2.10392
2.10039
2.0911
2.07986
2.06892
2.05634
2.03984
2.0196
1.99801
1.97859
1.96013
1.94196
1.92564
1.91101
1.89708
1.88275
1.86489
1.84462
1.82498
1.80672
1.79039
1.77708
1.76556
1.75389
1.74169
1.72865
1.71488
1.70064
1.68728
1.67574
1.66596
1.65777
1.65075
1.64448
1.63901
1.63377
1.62838
1.62213
1.61841
1.61878
1.624
1.6422
1.67938
1.71886
1.73362
1.738
1.74166
1.74417
1.74492
1.7458
1.74808
1.75178
1.75677
1.7624
1.76773
1.7732
1.7797
1.78726
1.79538
1.80429
1.81449
1.82497
1.83554
1.84704
1.8583
1.86842
1.87787
1.88576
1.89217
1.89894
1.90725
1.91663
1.92586
1.93494
1.9442
1.9535
1.96277
1.97274
1.98303
1.99255
2.00151
2.01103
2.02244
2.03681
2.0549
2.07671
2.09988
2.11886
2.12799
2.1295
2.12805
2.12189
2.11217
2.10223
2.09463
2.08397
2.06828
2.04718
2.02232
1.99763
1.97694
1.96015
1.94729
1.93731
1.92831
1.91888
1.9081
1.89625
1.88435
1.87376
1.86701
1.86499
1.86401
1.86142
1.85745
1.85498
1.85387
1.85205
1.84996
1.84771
1.84443
1.83984
1.83443
1.82908
1.8246
1.82076
1.81662
1.81087
1.80301
1.79462
1.78527
1.76773
1.74428
1.73051
1.72619
1.72237
1.71276
1.70207
1.69417
1.68731
1.68181
1.67739
1.67197
1.66398
1.65352
1.64292
1.63268
1.62262
1.61283
1.60384
1.59721
1.59262
1.58852
1.58283
1.57481
1.5656
1.55606
1.54637
1.53716
1.52948
1.52302
1.51534
1.50853
1.5038
1.50217
1.50224
1.5025
1.50382
1.50674
1.51133
1.51687
1.52227
1.52642
1.52775
1.52662
1.52453
1.52506
1.527
1.52958
1.53349
1.5386
1.54494
1.55392
1.56684
1.58501
1.60745
1.62604
1.63368
1.63677
1.6392
1.64347
1.64818
1.65065
1.65156
1.65257
1.65476
1.65834
1.66209
1.66536
1.66905
1.67416
1.68086
1.68903
1.69844
1.70883
1.72022
1.73286
1.74589
1.75863
1.77156
1.78525
1.80002
1.81576
1.83195
1.84769
1.86234
1.87569
1.88781
1.89965
1.91266
2.35442
2.2379
2.14711
2.05243
1.9526
1.90541
1.8597
1.86063
1.90816
1.974
2.0118
2.03088
2.03337
2.02963
2.02199
2.01261
1.9998
1.98372
1.96659
1.95112
1.93467
1.91699
1.90087
1.88846
1.8761
1.86053
1.84045
1.81968
1.80034
1.78223
1.76517
1.75006
1.73806
1.72663
1.71401
1.7
1.68565
1.67105
1.65713
1.64458
1.63376
1.62437
1.61691
1.61064
1.60493
1.59923
1.59332
1.58668
1.58311
1.5834
1.58738
1.60286
1.63585
1.67788
1.69532
1.69984
1.70352
1.70525
1.70546
1.70615
1.70818
1.71132
1.71507
1.71935
1.72391
1.72902
1.73527
1.74251
1.75012
1.75779
1.76588
1.77439
1.78336
1.79347
1.80381
1.81266
1.82001
1.82659
1.83252
1.83868
1.84624
1.85533
1.86531
1.87523
1.88449
1.89308
1.90154
1.91083
1.92088
1.93074
1.94033
1.95032
1.96153
1.97478
1.9916
2.01436
2.04346
2.07382
2.09644
2.10587
2.10642
2.10112
2.08877
2.08116
2.07732
2.07006
2.05837
2.04191
2.02198
2.00098
1.98087
1.96494
1.95354
1.94436
1.93682
1.93032
1.92257
1.91348
1.90292
1.89197
1.88241
1.87875
1.87884
1.87807
1.87554
1.874
1.8739
1.87362
1.87299
1.87186
1.87011
1.86745
1.86371
1.85948
1.85508
1.8491
1.84067
1.82995
1.81733
1.80367
1.78886
1.77202
1.74489
1.71918
1.70864
1.70357
1.69615
1.68614
1.67809
1.67142
1.66495
1.65874
1.65164
1.64366
1.63548
1.6271
1.61756
1.60786
1.59838
1.59021
1.58424
1.5793
1.57378
1.56695
1.55921
1.55149
1.54377
1.53632
1.5292
1.52266
1.51564
1.50709
1.49954
1.49394
1.49138
1.49125
1.49128
1.49235
1.49486
1.49883
1.50364
1.50825
1.5119
1.51295
1.51136
1.50971
1.51038
1.51176
1.51341
1.5164
1.52084
1.52657
1.53477
1.54715
1.56548
1.58824
1.60633
1.61332
1.61663
1.62043
1.62523
1.6297
1.63177
1.63242
1.63326
1.63533
1.63876
1.64222
1.64512
1.64834
1.65288
1.65915
1.66696
1.67593
1.68568
1.69607
1.7074
1.7196
1.73238
1.74603
1.76074
1.77645
1.79272
1.80919
1.82544
1.84095
1.85535
1.86839
1.88058
1.89315
2.31375
2.22986
2.15259
2.07792
1.99217
1.93819
1.88379
1.83629
1.84601
1.88233
1.93199
1.97337
1.98611
1.98534
1.98003
1.97017
1.95712
1.94137
1.9244
1.9104
1.89682
1.88267
1.86983
1.85796
1.84289
1.82499
1.80523
1.78469
1.76485
1.74649
1.72997
1.71654
1.70498
1.69298
1.67883
1.66351
1.64895
1.63539
1.62231
1.61033
1.59993
1.59043
1.58275
1.57691
1.57148
1.56566
1.55991
1.5538
1.5507
1.55105
1.55355
1.56466
1.59417
1.64013
1.65889
1.66289
1.66507
1.66496
1.66397
1.66355
1.66446
1.66683
1.67014
1.67385
1.67762
1.68174
1.6864
1.69143
1.69698
1.70314
1.70972
1.71661
1.7241
1.73244
1.74083
1.74819
1.75397
1.75839
1.76215
1.76602
1.77084
1.77714
1.78502
1.79412
1.80366
1.81322
1.82312
1.83361
1.84425
1.85438
1.86395
1.87334
1.88319
1.89464
1.91018
1.93308
1.96396
1.99904
2.03218
2.05312
2.0573
2.05438
2.04877
2.04843
2.04776
2.04437
2.03665
2.02419
2.00909
1.99255
1.97655
1.96402
1.95526
1.94828
1.94192
1.93804
1.93453
1.92984
1.92301
1.91447
1.90481
1.89686
1.89473
1.89438
1.89277
1.89191
1.8921
1.89317
1.89379
1.89372
1.89351
1.89247
1.8897
1.88556
1.87959
1.87024
1.85988
1.85008
1.83846
1.8217
1.80049
1.7783
1.74927
1.71292
1.68485
1.66971
1.66241
1.65874
1.65412
1.64809
1.64207
1.63547
1.62765
1.61916
1.61105
1.60349
1.5958
1.58752
1.57928
1.57244
1.56675
1.56148
1.55522
1.54761
1.54064
1.53424
1.52815
1.52327
1.51902
1.51363
1.5055
1.49627
1.48806
1.48139
1.47776
1.47694
1.47688
1.4779
1.48035
1.48337
1.48701
1.49031
1.49239
1.49235
1.48955
1.48888
1.48958
1.49041
1.49146
1.49404
1.49797
1.50288
1.50999
1.52142
1.53972
1.56277
1.57949
1.58474
1.58733
1.59112
1.59641
1.60095
1.60288
1.60377
1.60513
1.60792
1.61171
1.61502
1.61773
1.62069
1.6247
1.63007
1.63659
1.64397
1.65228
1.66161
1.67198
1.6833
1.69534
1.70818
1.72198
1.73667
1.75176
1.76697
1.78235
1.79755
1.81214
1.82594
1.83881
1.85107
2.26262
2.20111
2.14386
2.08084
2.01034
1.96019
1.91509
1.85207
1.84137
1.8526
1.87912
1.91121
1.92636
1.92907
1.92725
1.92075
1.91024
1.89631
1.88027
1.86747
1.85512
1.84216
1.8281
1.81385
1.79853
1.78179
1.7635
1.74388
1.72424
1.70587
1.69025
1.678
1.66641
1.65327
1.63838
1.6239
1.61073
1.59826
1.58624
1.57551
1.56622
1.55805
1.55201
1.54743
1.54229
1.53676
1.53192
1.52768
1.52663
1.52715
1.52916
1.53733
1.56036
1.60545
1.63084
1.63521
1.63525
1.63459
1.63286
1.63114
1.63138
1.63245
1.63422
1.6365
1.63904
1.64198
1.64513
1.64821
1.65143
1.65508
1.65934
1.66434
1.67005
1.67611
1.68162
1.68606
1.68947
1.69215
1.69474
1.69769
1.7013
1.70585
1.71133
1.71765
1.72469
1.73243
1.7411
1.75066
1.76047
1.76985
1.77849
1.78632
1.79394
1.80305
1.8167
1.83765
1.86629
1.90131
1.93928
1.96992
1.98202
1.98316
1.9859
1.99066
1.99451
1.99549
1.99478
1.99112
1.98132
1.96701
1.95703
1.95119
1.94598
1.94213
1.93988
1.93856
1.93857
1.93768
1.93502
1.93059
1.9239
1.91518
1.90871
1.90699
1.90659
1.90439
1.90349
1.90437
1.90475
1.90457
1.90418
1.90299
1.90043
1.89626
1.88905
1.87958
1.87036
1.85912
1.8436
1.82418
1.8009
1.77452
1.74292
1.69948
1.65609
1.63204
1.62447
1.62379
1.62392
1.62042
1.61425
1.6076
1.60027
1.59241
1.58444
1.57689
1.57033
1.56419
1.55843
1.55314
1.54756
1.54064
1.53377
1.52746
1.52195
1.51691
1.51262
1.51038
1.50805
1.50245
1.49395
1.48541
1.47723
1.47013
1.46576
1.46396
1.46342
1.46423
1.46662
1.46837
1.47067
1.47269
1.47334
1.47216
1.46868
1.46847
1.46885
1.46908
1.46957
1.47153
1.47492
1.47916
1.48545
1.49632
1.51438
1.53744
1.55295
1.55665
1.55857
1.56154
1.56688
1.57063
1.57172
1.57236
1.57373
1.57645
1.5797
1.58219
1.58424
1.58687
1.59061
1.59537
1.60085
1.60694
1.61386
1.62175
1.63055
1.64036
1.65103
1.66259
1.67513
1.68851
1.70227
1.71599
1.72961
1.74313
1.75632
1.76898
1.7812
1.79285
2.21177
2.16114
2.11701
2.07028
2.00902
1.96817
1.93068
1.87707
1.83748
1.82789
1.83085
1.84416
1.86199
1.86993
1.87088
1.86877
1.86242
1.85111
1.83659
1.82488
1.81362
1.80138
1.78364
1.76801
1.75272
1.73543
1.71799
1.70021
1.6825
1.66634
1.65282
1.64187
1.63015
1.61463
1.60043
1.58789
1.5763
1.5652
1.55457
1.54538
1.53809
1.5323
1.52794
1.52386
1.51897
1.51453
1.51136
1.51061
1.51099
1.51216
1.51434
1.52078
1.5384
1.57394
1.60974
1.61693
1.6162
1.61446
1.61222
1.60967
1.60946
1.60985
1.61074
1.61209
1.61366
1.61531
1.61681
1.61834
1.62019
1.62241
1.62498
1.628
1.63144
1.63486
1.63759
1.63924
1.64007
1.64067
1.6415
1.64314
1.64575
1.64918
1.65324
1.65783
1.6629
1.66851
1.67479
1.68182
1.6893
1.69674
1.70364
1.70971
1.7154
1.72226
1.73267
1.74845
1.77025
1.79827
1.83129
1.86386
1.88636
1.8978
1.90727
1.91486
1.9199
1.92404
1.92786
1.92901
1.92688
1.92137
1.91802
1.91663
1.91665
1.9183
1.92235
1.92758
1.93215
1.93506
1.93566
1.93486
1.93099
1.92367
1.91669
1.91326
1.91315
1.9127
1.90959
1.90813
1.9081
1.90752
1.90635
1.90443
1.9014
1.89662
1.88943
1.88171
1.87334
1.86094
1.84351
1.82175
1.79491
1.76293
1.7262
1.67909
1.62961
1.6008
1.59259
1.59198
1.59369
1.59255
1.5872
1.58076
1.5739
1.56672
1.55931
1.5523
1.54704
1.54336
1.53979
1.5345
1.52828
1.52183
1.51558
1.51066
1.50658
1.50288
1.50072
1.50004
1.49768
1.49121
1.48378
1.47637
1.46884
1.46222
1.4577
1.45518
1.45428
1.45519
1.45654
1.45684
1.45766
1.45802
1.45718
1.45454
1.45237
1.45238
1.45249
1.45245
1.45281
1.45444
1.45715
1.46045
1.4658
1.4759
1.49311
1.51561
1.53071
1.53405
1.53561
1.53791
1.54254
1.54473
1.54474
1.54516
1.5467
1.54915
1.55122
1.55248
1.55381
1.55607
1.55919
1.56264
1.56631
1.57032
1.57515
1.58094
1.58745
1.59475
1.60294
1.61219
1.62266
1.63416
1.64619
1.65828
1.67024
1.68227
1.69452
1.70651
1.71799
1.72898
2.16949
2.12524
2.08521
2.04846
2.00035
1.9636
1.93342
1.89017
1.84816
1.82949
1.80694
1.80355
1.8109
1.81527
1.81374
1.81211
1.80885
1.80028
1.78818
1.77818
1.76818
1.756
1.73804
1.72181
1.7072
1.68967
1.67311
1.65764
1.64272
1.62923
1.61706
1.60593
1.59321
1.57954
1.5671
1.55614
1.54617
1.53675
1.52775
1.52002
1.51498
1.51135
1.50771
1.50381
1.50014
1.49825
1.49831
1.49933
1.50111
1.50337
1.50576
1.5103
1.52315
1.54951
1.58739
1.60296
1.60368
1.60166
1.59924
1.59697
1.596
1.59621
1.59687
1.59806
1.5992
1.59973
1.59998
1.6005
1.60153
1.60292
1.60447
1.60624
1.60822
1.60967
1.60987
1.60922
1.60754
1.6064
1.60635
1.60701
1.60874
1.61116
1.61393
1.61691
1.62008
1.62351
1.62752
1.63219
1.63726
1.64232
1.64705
1.65117
1.65497
1.65976
1.66725
1.67818
1.69281
1.71154
1.73443
1.75996
1.78373
1.80205
1.81645
1.82664
1.83324
1.83855
1.84313
1.84547
1.84551
1.84611
1.84898
1.85337
1.85913
1.86672
1.87689
1.8895
1.90284
1.9155
1.92535
1.92903
1.92842
1.92453
1.91886
1.91517
1.915
1.91532
1.91245
1.90873
1.90731
1.90569
1.90348
1.90058
1.89673