/*--------------------------------*- C++ -*----------------------------------*\
  =========                 |
  \\      /  F ield         | OpenFOAM: The Open Source CFD Toolbox
   \\    /   O peration     | Website:  https://openfoam.org
    \\  /    A nd           | Version:  7
     \\/     M anipulation  |
\*---------------------------------------------------------------------------*/
FoamFile
{
    version     2.0;
    format      ascii;
    class       volScalarField;
    location    "4";
    object      rho;
}
// * * * * * * * * * * * * * * * * * * * * * * * * * * * * * * * * * * * * * //

dimensions      [1 -3 0 0 0 0 0];

internalField   nonuniform List<scalar> 
4128
(
0.815256
0.861391
0.887902
0.896424
0.900243
0.903526
0.911143
0.92283
0.945283
0.964665
0.97031
0.972963
0.973145
0.974241
0.977698
0.985759
0.999022
1.00495
1.00517
1.00313
0.998082
0.996278
0.997369
1.00292
1.00835
1.00821
1.00561
1.00002
0.996042
0.994802
0.995433
0.998586
0.998609
0.996788
0.993742
0.990862
0.989654
0.989128
0.989632
0.988852
0.98707
0.984729
0.981518
0.978118
0.976273
0.974986
0.973848
0.973301
0.971708
1.4645
2.16086
2.26
2.30098
2.32715
2.34307
2.35447
2.36147
2.36753
2.37339
2.3789
2.38189
2.38183
2.37978
2.37768
2.37727
2.3796
2.38328
2.38515
2.38299
2.37714
2.37045
2.36603
2.3647
2.36483
2.36368
2.3593
2.35209
2.34395
2.33671
2.33112
2.32731
2.32397
2.31884
2.3096
2.29631
2.2809
2.26531
2.25104
2.23917
2.23078
2.22651
2.22535
2.22544
2.22639
2.22667
2.22495
2.22116
2.21517
2.20229
2.18271
2.16005
2.138
2.12051
2.10896
2.10375
2.10456
2.11039
2.1194
2.12447
2.12343
2.11418
2.09861
2.07287
2.03918
2.01047
1.99037
1.97807
1.97105
1.97019
1.97456
1.98364
1.99229
1.9956
1.99179
1.98261
1.96912
1.94691
1.9209
1.90687
0.828292
0.870657
0.899236
0.908128
0.917195
0.926596
0.932986
0.940599
0.954618
0.968882
0.979977
0.988453
0.992462
0.993653
0.993502
0.995824
0.99894
1.00394
1.01049
1.0141
1.0149
1.01357
1.01087
1.00916
1.00925
1.01173
1.01327
1.0124
1.01017
1.00709
1.00523
1.00436
1.00508
1.00584
1.00481
1.00304
1.00015
0.997539
0.995905
0.994498
0.99302
0.991363
0.989288
0.986259
0.983137
0.981552
0.980403
0.979796
0.978125
1.43013
2.15561
2.27472
2.31428
2.34283
2.35926
2.3669
2.37285
2.379
2.38492
2.38979
2.39154
2.38982
2.38655
2.38346
2.38209
2.38347
2.38682
2.3894
2.38899
2.38523
2.37967
2.37475
2.37169
2.36989
2.36754
2.36285
2.3553
2.34592
2.33662
2.32913
2.32403
2.32034
2.31616
2.31031
2.30275
2.29355
2.28262
2.27042
2.25707
2.24388
2.2328
2.22448
2.21847
2.21241
2.20616
2.20114
2.19787
2.19557
2.19426
2.19237
2.18684
2.17561
2.1593
2.14044
2.12399
2.11345
2.10738
2.10235
2.09789
2.09158
2.08535
2.07825
2.069
2.05859
2.04526
2.02677
2.00582
1.98838
1.97835
1.97349
1.97167
1.97152
1.97232
1.97241
1.96876
1.961
1.9531
1.9431
1.92696
0.883145
0.913804
0.938933
0.94794
0.955639
0.967236
0.980071
0.992959
1.00124
1.00656
1.01126
1.01602
1.02211
1.03227
1.04164
1.04391
1.04119
1.03588
1.03612
1.03859
1.04433
1.05041
1.05097
1.04774
1.03935
1.03398
1.03335
1.03508
1.03839
1.03834
1.03604
1.03068
1.02638
1.02514
1.02515
1.02493
1.02386
1.02228
1.01934
1.01589
1.01345
1.01178
1.01007
1.00769
1.00423
1.00108
0.999602
0.99872
0.996918
1.36423
2.16821
2.32063
2.35414
2.37599
2.38316
2.38505
2.38962
2.39539
2.40215
2.40843
2.41133
2.40999
2.40673
2.40296
2.4005
2.40031
2.40228
2.40528
2.40728
2.40691
2.40425
2.40036
2.39644
2.39265
2.38858
2.3838
2.37786
2.37021
2.36074
2.35035
2.33976
2.32963
2.32075
2.31399
2.30921
2.30556
2.30204
2.29797
2.29324
2.28665
2.27699
2.26322
2.24495
2.22415
2.2046
2.18952
2.18133
2.18004
2.18423
2.19126
2.19614
2.19737
2.19493
2.18826
2.17527
2.1545
2.12842
2.10246
2.08365
2.07159
2.0634
2.05888
2.06139
2.0653
2.06417
2.05833
2.0487
2.03288
2.01059
1.98863
1.97281
1.96304
1.95885
1.95558
1.95391
1.95541
1.95645
1.95401
1.94912
0.893755
0.921322
0.945378
0.965437
0.984704
1.00844
1.03425
1.04687
1.04925
1.04868
1.04695
1.04893
1.05392
1.06672
1.07697
1.08026
1.08103
1.0764
1.07239
1.07271
1.07792
1.08629
1.0889
1.08796
1.08139
1.07397
1.07208
1.07239
1.07549
1.07636
1.07465
1.07036
1.06459
1.0607
1.05914
1.05838
1.05788
1.05661
1.05372
1.04926
1.04535
1.04259
1.04038
1.03821
1.03548
1.03215
1.0295
1.02849
1.02671
1.28403
2.18697
2.42486
2.42909
2.43762
2.43842
2.43834
2.44029
2.44215
2.44684
2.45202
2.45448
2.4521
2.44702
2.44172
2.43746
2.43514
2.43519
2.43759
2.44015
2.44081
2.43868
2.43436
2.42934
2.42434
2.41935
2.41448
2.41006
2.4057
2.3997
2.39068
2.37869
2.3648
2.35079
2.33825
2.32798
2.32069
2.31624
2.31373
2.31213
2.31023
2.30655
2.29875
2.28455
2.26606
2.2443
2.2225
2.2059
2.19651
2.19392
2.19554
2.19878
2.20327
2.20762
2.20873
2.20265
2.18897
2.16775
2.13755
2.10408
2.07718
2.06192
2.05561
2.05744
2.06152
2.06545
2.06733
2.0652
2.05831
2.04649
2.02824
2.00454
1.97983
1.96175
1.95262
1.94954
1.95068
1.9553
1.96383
1.96972
0.864586
0.884311
0.909358
0.941796
0.974812
1.00663
1.0418
1.05825
1.06258
1.06576
1.07194
1.08074
1.09432
1.10462
1.1075
1.10836
1.10675
1.10341
1.10331
1.1065
1.11356
1.1162
1.11593
1.1132
1.10827
1.10585
1.10584
1.10612
1.10553
1.10444
1.10246
1.10105
1.10003
1.09837
1.09563
1.09233
1.08863
1.0841
1.07904
1.07526
1.07342
1.07255
1.0721
1.07121
1.06899
1.06513
1.06113
1.05817
1.05429
1.17719
2.1835
2.54768
2.52308
2.51275
2.5049
2.49939
2.49782
2.49753
2.50091
2.50588
2.50788
2.50641
2.50117
2.49365
2.48643
2.48126
2.4792
2.47972
2.48118
2.48288
2.48301
2.48009
2.47481
2.46833
2.461
2.45369
2.44781
2.44405
2.44116
2.43581
2.42614
2.41291
2.39722
2.37997
2.3628
2.34815
2.33712
2.32973
2.32435
2.31971
2.31566
2.31193
2.30823
2.30354
2.29525
2.28207
2.26409
2.24454
2.22816
2.21608
2.20875
2.20489
2.20228
2.2003
2.19794
2.19388
2.18584
2.17344
2.15599
2.13268
2.10746
2.08713
2.07497
2.06771
2.06427
2.06111
2.05856
2.05681
2.05589
2.05311
2.0441
2.02727
2.00089
1.97424
1.96048
1.95534
1.95828
1.97108
1.98665
0.837803
0.83796
0.852718
0.888007
0.937211
0.981626
1.02204
1.0441
1.05116
1.05776
1.06737
1.08537
1.10389
1.10925
1.11058
1.10964
1.11042
1.11407
1.12209
1.12845
1.12914
1.12664
1.124
1.12445
1.12624
1.12905
1.12969
1.12815
1.12278
1.1183
1.11739
1.11763
1.11797
1.11657
1.11317
1.10666
1.10026
1.09678
1.09538
1.09523
1.09609
1.09588
1.09458
1.09165
1.08724
1.08222
1.07856
1.07645
1.07455
1.0959
2.13325
2.65001
2.61061
2.57886
2.56782
2.56279
2.56282
2.56228
2.56307
2.56402
2.56297
2.56055
2.55308
2.54141
2.53163
2.52371
2.51809
2.5159
2.51664
2.5185
2.51737
2.51155
2.50196
2.49071
2.48012
2.47254
2.46862
2.46723
2.46661
2.46347
2.45546
2.44318
2.42852
2.41276
2.39583
2.37815
2.36221
2.34967
2.33956
2.33193
2.32671
2.32418
2.32501
2.32716
2.32724
2.32313
2.31238
2.29428
2.26788
2.2394
2.21712
2.20249
2.19218
2.18656
2.18603
2.18904
2.19171
2.1932
2.19144
2.18275
2.16669
2.13899
2.10489
2.07775
2.06174
2.05082
2.04387
2.04422
2.0523
2.0616
2.06445
2.05862
2.04397
2.01683
1.9874
1.97248
1.96843
1.97593
1.99715
0.861185
0.845961
0.845936
0.856066
0.884983
0.925782
0.96034
0.991277
1.0108
1.02574
1.04657
1.07755
1.1014
1.10619
1.10619
1.10387
1.10644
1.11091
1.1202
1.12751
1.1286
1.12635
1.12291
1.12366
1.12609
1.13091
1.1321
1.13064
1.12523
1.12124
1.12074
1.12118
1.12207
1.12078
1.11751
1.11165
1.10701
1.10584
1.10635
1.10728
1.10601
1.10371
1.09911
1.09292
1.08852
1.08705
1.08652
1.08716
1.08787
1.08768
2.02487
2.68763
2.6627
2.62592
2.61471
2.607
2.60389
2.60171
2.5999
2.59717
2.59343
2.58849
2.57863
2.56765
2.55975
2.55425
2.55154
2.55066
2.54985
2.54554
2.53745
2.52826
2.51776
2.50689
2.49789
2.49185
2.48787
2.48365
2.47786
2.47058
2.46196
2.45185
2.44129
2.43182
2.42309
2.4114
2.39417
2.37319
2.35509
2.34226
2.33246
2.32634
2.32264
2.32124
2.32251
2.32453
2.32395
2.31605
2.30019
2.27475
2.24323
2.21531
2.19766
2.18658
2.18121
2.18227
2.18958
2.19787
2.20098
2.19872
2.19058
2.17541
2.14794
2.11071
2.07715
2.05643
2.0465
2.04472
2.04917
2.0561
2.06247
2.06427
2.05863
2.048
2.02729
2.00385
1.99121
1.99133
1.99935
0.926033
0.896234
0.874446
0.871508
0.872095
0.87867
0.892223
0.914466
0.944664
0.973768
1.00367
1.04238
1.07994
1.0919
1.09304
1.08725
1.08668
1.09211
1.10665
1.12024
1.12285
1.12111
1.11531
1.11451
1.1169
1.12324
1.1281
1.12809
1.12472
1.11891
1.11555
1.11473
1.11522
1.11676
1.11662
1.11543
1.11329
1.11129
1.1093
1.10715
1.10505
1.10161
1.09556
1.09078
1.08998
1.09093
1.09347
1.09434
1.09341
1.08914
1.92384
2.68412
2.68801
2.65446
2.64392
2.63574
2.6334
2.63054
2.62481
2.61715
2.60864
2.59945
2.58828
2.57891
2.57278
2.56976
2.56824
2.56516
2.55908
2.54959
2.53982
2.53245
2.52621
2.51848
2.5093
2.49964
2.49052
2.48187
2.4726
2.46355
2.45582
2.44901
2.4421
2.43565
2.43052
2.42623
2.4169
2.40044
2.37623
2.35081
2.33127
2.31726
2.30609
2.29875
2.29754
2.30341
2.31092
2.31365
2.31023
2.30103
2.28482
2.25775
2.22574
2.20174
2.189
2.18077
2.17557
2.17276
2.17528
2.1806
2.18174
2.17753
2.16841
2.1537
2.12865
2.0982
2.07246
2.0582
2.04863
2.03992
2.03608
2.04155
2.05477
2.05889
2.05406
2.04301
2.02557
2.00676
1.99725
0.978091
0.952823
0.928505
0.90308
0.881144
0.874969
0.875944
0.883878
0.896084
0.916117
0.94575
0.978731
1.00996
1.04072
1.06484
1.07028
1.06922
1.07536
1.08776
1.10145
1.10814
1.10995
1.10867
1.10571
1.10618
1.10974
1.11611
1.1202
1.12075
1.11833
1.11296
1.10897
1.10763
1.10758
1.10875
1.11035
1.11095
1.11031
1.10858
1.10574
1.10199
1.09674
1.09171
1.08981
1.08904
1.08942
1.0918
1.092
1.091
1.08621
1.85271
2.65616
2.68652
2.66553
2.65637
2.64984
2.64706
2.64427
2.6378
2.62837
2.61787
2.60727
2.59624
2.58776
2.58158
2.57701
2.57337
2.56787
2.55801
2.54617
2.53675
2.53086
2.52802
2.52327
2.514
2.50168
2.48761
2.47374
2.4609
2.45003
2.44252
2.43742
2.43234
2.42749
2.42312
2.41892
2.41643
2.41385
2.4022
2.38101
2.35053
2.31954
2.29872
2.2857
2.27681
2.27369
2.27946
2.29336
2.30786
2.31258
2.30763
2.2961
2.27502
2.24234
2.2081
2.18279
2.16704
2.15655
2.14921
2.14616
2.1514
2.16399
2.17602
2.17828
2.17346
2.15752
2.1258
2.08372
2.05058
2.03422
2.02487
2.0205
2.02797
2.05063
2.06509
2.06343
2.05322
2.03174
2.00287
1.03099
1.00584
0.989447
0.961248
0.917154
0.883971
0.879906
0.882023
0.884369
0.888441
0.897908
0.913037
0.933597
0.961336
0.992156
1.02695
1.05708
1.06861
1.07265
1.07472
1.07855
1.08537
1.09363
1.09651
1.0984
1.10077
1.10178
1.10306
1.10518
1.10688
1.10618
1.104
1.10131
1.10038
1.10048
1.10105
1.10144
1.10144
1.10095
1.09906
1.09489
1.09044
1.08848
1.08735
1.08668
1.08727
1.08773
1.08687
1.08543
1.08003
1.81029
2.624
2.67531
2.66305
2.65829
2.65612
2.65546
2.65283
2.64549
2.63422
2.62119
2.60942
2.59978
2.59282
2.58751
2.58201
2.57469
2.56427
2.55064
2.53777
2.52861
2.52422
2.52405
2.52265
2.51662
2.50571
2.49009
2.47116
2.45446
2.44069
2.43149
2.42381
2.41575
2.40723
2.40105
2.39872
2.40243
2.40717
2.40937
2.40273
2.38575
2.35542
2.31793
2.28922
2.27398
2.26695
2.26629
2.26963
2.27784
2.28879
2.29859
2.30092
2.29465
2.28076
2.2546
2.21897
2.18345
2.15774
2.14393
2.1358
2.13212
2.13518
2.14836
2.17016
2.18189
2.17929
2.16613
2.13539
2.08957
2.04799
2.02558
2.01664
2.01821
2.02989
2.05114
2.0644
2.06012
2.04809
2.02162
1.11806
1.0611
1.02175
1.00122
0.970134
0.935136
0.909207
0.892341
0.880686
0.880037
0.884075
0.885504
0.888646
0.900026
0.92239
0.955072
0.994395
1.03592
1.05197
1.05122
1.05168
1.05779
1.07224
1.08848
1.09483
1.09561
1.09151
1.08778
1.08788
1.08926
1.09346
1.0964
1.09591
1.0939
1.09301
1.09275
1.09264
1.09261
1.09228
1.09047
1.08603
1.08334
1.08257
1.08232
1.08323
1.08384
1.08281
1.08078
1.07683
1.07226
1.77523
2.60128
2.66429
2.6598
2.65726
2.65589
2.65472
2.65042
2.6417
2.62988
2.6172
2.60634
2.59796
2.59189
2.58631
2.5791
2.56916
2.55621
2.54178
2.52868
2.51857
2.51269
2.51169
2.51285
2.51122
2.50362
2.49203
2.47879
2.46523
2.45195
2.43691
2.42017
2.40481
2.39311
2.38376
2.37682
2.37589
2.38462
2.39754
2.4036
2.4001
2.38934
2.36852
2.33594
2.30224
2.27783
2.26423
2.26016
2.25924
2.25793
2.26122
2.27259
2.28427
2.28699
2.2809
2.2676
2.24214
2.20554
2.16849
2.14322
2.12977
2.12553
2.12829
2.13473
2.1491
2.16668
2.16952
2.1621
2.14562
2.11399
2.0772
2.04807
2.03291
2.02783
2.03556
2.04796
2.05664
2.05286
2.04053
1.18054
1.13566
1.08094
1.03726
1.0085
0.985848
0.961387
0.932581
0.901296
0.88338
0.880379
0.883596
0.881307
0.880359
0.883211
0.897037
0.920992
0.952904
0.988063
1.02165
1.03136
1.03717
1.05359
1.07423
1.08203
1.08316
1.07991
1.07478
1.07453
1.07786
1.08481
1.08923
1.0897
1.08882
1.08815
1.0883
1.08855
1.08827
1.08722
1.08403
1.07992
1.07872
1.07852
1.0797
1.08151
1.08081
1.07891
1.07463
1.06999
1.06823
1.74091
2.58722
2.65939
2.6582
2.66003
2.65848
2.65442
2.64731
2.63758
2.62696
2.61654
2.6069
2.5982
2.59079
2.58339
2.57397
2.56277
2.55096
2.53808
2.52509
2.51396
2.50705
2.50331
2.50034
2.49755
2.49268
2.48525
2.4771
2.47063
2.46544
2.45749
2.44294
2.42179
2.39793
2.37849
2.3678
2.36324
2.36297
2.36628
2.37526
2.38693
2.39224
2.3904
2.38113
2.36371
2.33644
2.30474
2.27563
2.25467
2.24291
2.23857
2.23678
2.24287
2.26014
2.27603
2.28072
2.27668
2.26528
2.24266
2.20932
2.17405
2.14541
2.12715
2.1189
2.12004
2.12468
2.14112
2.15775
2.16375
2.15926
2.1467
2.12367
2.0929
2.06502
2.04815
2.04064
2.04696
2.06089
2.06318
1.22148
1.18745
1.14163
1.09782
1.05481
1.01329
0.993791
0.977276
0.951643
0.91954
0.895598
0.888685
0.880788
0.876832
0.877911
0.875861
0.877695
0.88846
0.913934
0.950177
0.991407
1.02028
1.03656
1.05291
1.05944
1.06176
1.06436
1.06737
1.07085
1.0759
1.08146
1.08317
1.08334
1.08351
1.08374
1.08484
1.08556
1.0853
1.08362
1.08052
1.07831
1.07757
1.07742
1.07944
1.0808
1.07961
1.07649
1.07187
1.06885
1.0675
1.70751
2.57659
2.6588
2.66415
2.66929
2.66587
2.65769
2.64645
2.63339
2.62117
2.61344
2.60661
2.59823
2.58953
2.5799
2.56866
2.55726
2.5477
2.53994
2.533
2.5249
2.51359
2.50156
2.49292
2.48645
2.48033
2.47459
2.47146
2.46943
2.46757
2.46591
2.46337
2.45571
2.43911
2.41401
2.38673
2.36641
2.35488
2.35005
2.34749
2.34823
2.35871
2.37512
2.38523
2.38927
2.38667
2.37238
2.34552
2.30898
2.27105
2.24243
2.22655
2.22239
2.22815
2.23877
2.25459
2.26888
2.27949
2.28396
2.2773
2.25908
2.22914
2.19073
2.15234
2.12676
2.11534
2.11937
2.1354
2.15581
2.17381
2.18142
2.1758
2.16048
2.13336
2.1037
2.08494
2.07572
2.08427
2.09817
1.27555
1.23505
1.18418
1.14636
1.10971
1.06245
1.02897
1.01274
0.992691
0.967612
0.941292
0.918707
0.896359
0.882674
0.877925
0.877106
0.876513
0.874957
0.878914
0.894867
0.926564
0.966055
1
1.02729
1.03496
1.03821
1.04608
1.05799
1.07117
1.07809
1.07989
1.07847
1.07724
1.07872
1.08174
1.08365
1.08396
1.08324
1.08055
1.07843
1.07792
1.07796
1.07986
1.08215
1.08178
1.07993
1.07573
1.07087
1.06932
1.0681
1.67314
2.56951
2.66739
2.67949
2.68458
2.67958
2.66763
2.65306
2.64058
2.63217
2.62591
2.61858
2.6068
2.59267
2.57853
2.56592
2.55644
2.54954
2.54408
2.54005
2.53627
2.52778
2.51344
2.49711
2.48233
2.47069
2.46215
2.45786
2.45613
2.45518
2.45519
2.45751
2.46352
2.47008
2.46862
2.45288
2.42543
2.39198
2.36042
2.33963
2.32944
2.32946
2.33853
2.35688
2.37745
2.39425
2.40429
2.4036
2.3873
2.35942
2.32374
2.2873
2.25739
2.23883
2.22944
2.23257
2.24493
2.26323
2.28559
2.30593
2.31451
2.30484
2.28435
2.25235
2.21315
2.18037
2.16229
2.15561
2.16406
2.18095
2.19666
2.203
2.19817
2.18716
2.16847
2.14864
2.13716
2.13616
2.14282
1.33226
1.2874
1.23008
1.18286
1.15569
1.11788
1.0813
1.06054
1.03567
1.00531
0.984183
0.964041
0.939017
0.912334
0.889891
0.886753
0.883671
0.878447
0.878165
0.882277
0.891897
0.909139
0.93134
0.960611
0.997246
1.01522
1.02993
1.05191
1.06846
1.07722
1.07893
1.07856
1.07878
1.08044
1.08353
1.08489
1.08518
1.08397
1.08141
1.08034
1.08027
1.08252
1.08689
1.08775
1.08667
1.08304
1.0769
1.07363
1.0726
1.07145
1.63507
2.56473
2.6848
2.7006
2.70947
2.7013
2.68624
2.66976
2.65577
2.64507
2.63448
2.62267
2.61082
2.59907
2.5868
2.57367
2.56122
2.55129
2.54499
2.54231
2.54179
2.54064
2.53448
2.52188
2.50619
2.49028
2.4763
2.46419
2.45284
2.44336
2.43806
2.43996
2.44995
2.4664
2.48453
2.49668
2.49187
2.46968
2.43538
2.39759
2.36912
2.35173
2.34335
2.35014
2.36749
2.38777
2.40817
2.4253
2.43474
2.42956
2.41229
2.38869
2.3586
2.32492
2.29765
2.28079
2.27157
2.27593
2.29482
2.32103
2.34611
2.3588
2.35321
2.33815
2.31524
2.28397
2.25118
2.22883
2.21667
2.21175
2.21531
2.22468
2.23332
2.23478
2.2304
2.22285
2.21227
2.20379
2.1932
1.39081
1.34038
1.28468
1.22808
1.20114
1.17089
1.13445
1.11242
1.09074
1.05507
1.02333
1.0049
0.984638
0.959128
0.92724
0.908077
0.899667
0.890422
0.886133
0.889
0.895651
0.893849
0.893937
0.901932
0.927621
0.965341
0.997092
1.03833
1.06048
1.07272
1.07709
1.07856
1.08293
1.08786
1.08942
1.08958
1.08888
1.08759
1.0874
1.08769
1.08987
1.09487
1.09708
1.09666
1.09392
1.08785
1.08328
1.08203
1.0816
1.08101
1.59267
2.56687
2.71332
2.72867
2.73871
2.72885
2.71127
2.69215
2.67413
2.65819
2.64378
2.6308
2.62021
2.61202
2.60417
2.59327
2.57887
2.56411
2.55319
2.54795
2.54683
2.54773
2.54802
2.54524
2.53987
2.53388
2.52827
2.52153
2.51153
2.49703
2.48064
2.46732
2.46144
2.46802
2.48741
2.51051
2.52589
2.5255
2.5093
2.48482
2.45868
2.43889
2.42573
2.41922
2.41984
2.42786
2.44015
2.45412
2.46943
2.48146
2.4815
2.46886
2.45013
2.42616
2.3968
2.36781
2.34851
2.33895
2.33945
2.35317
2.37756
2.40159
2.4129
2.40836
2.39569
2.37661
2.3503
2.31753
2.2858
2.26611
2.25622
2.25487
2.26439
2.27771
2.28597
2.28549
2.27906
2.26618
2.23896
1.44883
1.39429
1.34006
1.28422
1.25619
1.22749
1.18715
1.16037
1.14334
1.11218
1.0743
1.05189
1.02886
1.00124
0.968402
0.946751
0.936745
0.923086
0.909179
0.905051
0.906444
0.903422
0.895796
0.888726
0.892708
0.910724
0.941861
0.987288
1.02877
1.055
1.07006
1.07523
1.08515
1.09375
1.09487
1.09394
1.09217
1.09287
1.09521
1.10003
1.10666
1.10912
1.10902
1.10653
1.10064
1.09529
1.094
1.09364
1.09548
1.09522
1.5365
2.57242
2.75957
2.77088
2.77903
2.76575
2.74338
2.71991
2.69732
2.67727
2.66011
2.64637
2.63702
2.63214
2.6296
2.62536
2.61669
2.60417
2.59135
2.58138
2.57501
2.5713
2.56845
2.56566
2.56406
2.56544
2.57032
2.57686
2.58184
2.58234
2.57486
2.55974
2.54477
2.53667
2.53874
2.5487
2.55981
2.56645
2.56605
2.55765
2.54433
2.53096
2.5199
2.51135
2.50539
2.50195
2.50124
2.50453
2.51422
2.53092
2.54487
2.54377
2.53048
2.51224
2.48994
2.4636
2.43638
2.41577
2.40515
2.40195
2.41019
2.42793
2.44599
2.45629
2.45471
2.44472
2.42878
2.40433
2.37036
2.33422
2.31196
2.30286
2.30221
2.31283
2.325
2.32702
2.32093
2.31156
2.28505
1.5082
1.45225
1.39642
1.3443
1.31711
1.28698
1.24675
1.21156
1.19365
1.1667
1.12968
1.10424
1.07892
1.04671
1.00777
0.989169
0.980579
0.967059
0.950282
0.934493
0.92997
0.920574
0.902279
0.894395
0.895779
0.900763
0.909042
0.926957
0.964839
1.00498
1.04238
1.0602
1.07575
1.09239
1.09462
1.09456
1.09699
1.10185
1.1111
1.12005
1.12277
1.12225
1.11885
1.1124
1.1077
1.1067
1.10698
1.10995
1.11388
1.11195
1.46626
2.57636
2.82685
2.82981
2.82996
2.80975
2.78043
2.75277
2.72832
2.70741
2.68856
2.6728
2.66211
2.65746
2.65787
2.66097
2.66413
2.66506
2.6619
2.65483
2.646
2.63698
2.62822
2.62016
2.61441
2.61235
2.6154
2.6234
2.63412
2.64526
2.65322
2.65241
2.64416
2.63545
2.62879
2.62473
2.62317
2.62341
2.62449
2.62567
2.62553
2.62128
2.61302
2.60346
2.59237
2.57981
2.56838
2.56117
2.55991
2.5686
2.58377
2.59403
2.5929
2.58268
2.56799
2.55005
2.52794
2.50209
2.47739
2.46158
2.4541
2.45282
2.46097
2.47381
2.48395
2.48533
2.47767
2.46553
2.44707
2.41888
2.38369
2.35867
2.34812
2.34348
2.3457
2.34977
2.34811
2.34149
2.32489
1.57379
1.51776
1.45865
1.40935
1.38125
1.34761
1.30715
1.26841
1.24791
1.22217
1.18284
1.15258
1.12738
1.09375
1.05376
1.03625
1.02924
1.01689
0.999634
0.979585
0.964863
0.945594
0.919662
0.906518
0.905487
0.906719
0.910555
0.915728
0.926536
0.948412
0.982513
1.01829
1.04444
1.07415
1.08391
1.0901
1.09854
1.11214
1.12983
1.1361
1.13605
1.13276
1.12491
1.11832
1.11761
1.1187
1.12314
1.12941
1.13116
1.12697
1.37921
2.57072
2.91608
2.90562
2.88936
2.85929
2.82339
2.79549
2.77443
2.75749
2.74076
2.72441
2.71096
2.70305
2.70115
2.70515
2.7147
2.72657
2.73571
2.73856
2.7349
2.72732
2.71859
2.70954
2.70125
2.69549
2.69337
2.69489
2.69987
2.70917
2.72248
2.73385
2.73551
2.72952
2.71983
2.70689
2.69398
2.68429
2.67867
2.67806
2.68413
2.69321
2.69452
2.68459
2.67185
2.65697
2.63912
2.62268
2.61193
2.60696
2.60893
2.61571
2.62047
2.62066
2.61532
2.60503
2.59191
2.57522
2.55379
2.52835
2.50517
2.49199
2.48572
2.48523
2.494
2.50383
2.5069
2.50236
2.49356
2.48018
2.45687
2.42136
2.38837
2.37199
2.36365
2.36048
2.36358
2.36687
2.35758
1.64265
1.58697
1.52517
1.47816
1.44844
1.41179
1.36883
1.32913
1.30587
1.27842
1.23753
1.19846
1.17219
1.14067
1.10379
1.08888
1.08261
1.06894
1.04912
1.02563
1.00572
0.983142
0.95745
0.93524
0.926662
0.924285
0.922053
0.923498
0.93015
0.934614
0.941635
0.959209
0.981617
1.01643
1.04825
1.07111
1.09015
1.10925
1.13337
1.14248
1.14277
1.13965
1.13386
1.13084
1.13081
1.13392
1.14102
1.14412
1.14327
1.13679
1.28312
2.56165
3.03213
3.00207
2.96099
2.92239
2.88331
2.85913
2.84402
2.83286
2.82128
2.80821
2.79391
2.78233
2.77632
2.77651
2.78382
2.79706
2.81109
2.82006
2.82139
2.8167
2.80967
2.80179
2.79282
2.78425
2.77752
2.77312
2.7707
2.77189
2.78056
2.79657
2.81025
2.81056
2.80132
2.78512
2.76296
2.74143
2.72686
2.71806
2.71803
2.72826
2.7385
2.73771
2.72856
2.71735
2.7037
2.68754
2.6702
2.6544
2.64318
2.6362
2.63324
2.63374
2.6344
2.63273
2.62721
2.61841
2.6067
2.58974
2.56599
2.53942
2.52033
2.51128
2.50793
2.51227
2.51994
2.5218
2.51762
2.50948
2.49758
2.47547
2.44054
2.4054
2.38546
2.37719
2.37417
2.38074
2.38177
1.71616
1.65999
1.59639
1.55033
1.51831
1.48011
1.434
1.39326
1.36733
1.33645
1.29409
1.24696
1.21917
1.1923
1.15821
1.14284
1.13626
1.1221
1.10054
1.07217
1.04767
1.02399
1.00108
0.976202
0.960316
0.956046
0.94968
0.943771
0.941922
0.942403
0.945368
0.938844
0.938836
0.95184
0.986569
1.02523
1.06546
1.09503
1.12122
1.13846
1.14105
1.13963
1.14146
1.14523
1.14918
1.15407
1.15582
1.15441
1.14866
1.14354
1.19943
2.53667
3.18024
3.11801
3.04982
3.0136
2.97665
2.95351
2.93929
2.92978
2.92257
2.91523
2.90293
2.89008
2.88069
2.87477
2.87315
2.87715
2.88507
2.8921
2.8945
2.89217
2.88803
2.88414
2.87696
2.86515
2.85234
2.84019
2.82981
2.82356
2.82412
2.83661
2.85789
2.86726
2.85937
2.84587
2.82644
2.80064
2.77592
2.7605
2.75222
2.751
2.75635
2.76092
2.75999
2.75424
2.74626
2.7367
2.72426
2.7077
2.68695
2.66645
2.65257
2.64399
2.63974
2.64117
2.64347
2.64205
2.63625
2.62746
2.61438
2.59391
2.56865
2.54681
2.53372
2.5271
2.52472
2.52534
2.52393
2.51964
2.51261
2.5025
2.485
2.45751
2.42567
2.40263
2.39284
2.3898
2.39124
1.78908
1.73194
1.66806
1.62321
1.58853
1.5472
1.49859
1.45683
1.42829
1.39269
1.34748
1.29628
1.27016
1.24868
1.21721
1.19741
1.18888
1.17405
1.1508
1.11791
1.08965
1.06721
1.04628
1.02215
1.00276
0.997265
0.988409
0.976588
0.967861
0.961968
0.955246
0.941378
0.937368
0.937164
0.947754
0.972721
1.0119
1.05322
1.08478
1.11616
1.12857
1.13248
1.13928
1.15326
1.16452
1.16724
1.16646
1.16051
1.15351
1.15586
1.22177
2.45636
3.36304
3.29417
3.18605
3.14109
3.10076
3.07174
3.04849
3.03004
3.01985
3.01459
3.00569
2.99468
2.98415
2.97347
2.96394
2.95723
2.95402
2.9534
2.95209
2.94812
2.94374
2.94195
2.94033
2.93016
2.91351
2.89481
2.87829
2.86695
2.86157
2.86471
2.87967
2.89408
2.89283
2.88352
2.87099
2.85352
2.83088
2.80705
2.7886
2.77653
2.76899
2.7668
2.7682
2.76947
2.76929
2.76645
2.75993
2.74958
2.73439
2.71281
2.68706
2.66627
2.65501
2.6487
2.64822
2.65047
2.64958
2.64594
2.63966
2.63037
2.61534
2.59617
2.57502
2.55373
2.53873
2.53017
2.52349
2.51997
2.51873
2.51595
2.50913
2.4988
2.48052
2.45138
2.41941
2.40436
2.39657
1.86082
1.80292
1.73815
1.69495
1.65676
1.61314
1.56095
1.51839
1.48697
1.44732
1.39841
1.347
1.32649
1.3082
1.27851
1.25401
1.24258
1.22509
1.19843
1.16141
1.13132
1.11147
1.0926
1.06897
1.04895
1.04298
1.03386
1.01866
1.00502
0.989538
0.972547
0.953324
0.942508
0.942015
0.949147
0.959932
0.971615
0.99301
1.01766
1.05319
1.0876
1.10983
1.12508
1.1441
1.1645
1.17106
1.16825
1.16344
1.16793
1.21132
1.40056
2.29776
3.47888
3.53984
3.39154
3.28677
3.22643
3.1906
3.15547
3.12291
3.1032
3.09298
3.08557
3.07806
3.0674
3.05346
3.03992
3.02655
3.01503
3.0065
2.9987
2.98997
2.98211
2.97782
2.97934
2.97825
2.96469
2.94518
2.92476
2.90847
2.89828
2.8931
2.89388
2.9016
2.9076
2.90529
2.89862
2.88966
2.87647
2.85769
2.83397
2.80958
2.79075
2.77891
2.77127
2.77074
2.77556
2.77874
2.77777
2.773
2.76504
2.75319
2.73521
2.71187
2.68879
2.67214
2.66282
2.6569
2.65376
2.65186
2.65036
2.64869
2.64386
2.63557
2.62191
2.59989
2.56958
2.54467
2.53352
2.52688
2.52258
2.5237
2.52804
2.52483
2.51666
2.50149
2.47104
2.43085
2.40674
1.92973
1.86948
1.80624
1.76303
1.7219
1.67539
1.62043
1.57563
1.54122
1.50022
1.45032
1.40162
1.38448
1.36785
1.33846
1.30897
1.29341
1.27322
1.24352
1.20199
1.17241
1.15621
1.13918
1.11614
1.09635
1.09011
1.07993
1.06235
1.04468
1.02282
0.997491
0.980638
0.966544
0.960238
0.961659
0.968719
0.975637
0.972373
0.973693
0.988645
1.02095
1.05762
1.09143
1.12071
1.14995
1.16244
1.15829
1.16629
1.23092
1.45372
1.75434
2.09127
3.11057
3.68556
3.6293
3.47355
3.34519
3.28631
3.23555
3.19666
3.17395
3.15721
3.14784
3.13861
3.12307
3.10756
3.09583
3.08433
3.07106
3.05649
3.0414
3.02693
3.01485
3.00635
3.00583
3.01335
3.00806
2.99292
2.9752
2.95522
2.93772
2.9246
2.91524
2.91085
2.91337
2.91759
2.91735
2.9134
2.90576
2.89389
2.87699
2.8549
2.83019
2.80848
2.79407
2.78659
2.78425
2.78611
2.78744
2.78604
2.78334
2.77922
2.7714
2.75903
2.74199
2.72103
2.69682
2.67625
2.66573
2.65945
2.65593
2.6571
2.66313
2.66252
2.65456
2.64129
2.61638
2.57899
2.55193
2.54208
2.53605
2.53411
2.54102
2.54482
2.53952
2.53124
2.51577
2.48101
2.43107
1.99554
1.93258
1.86943
1.82739
1.78324
1.73384
1.67755
1.63203
1.59534
1.55251
1.50431
1.46011
1.44426
1.42567
1.39517
1.36251
1.34269
1.31909
1.28615
1.24229
1.21375
1.20116
1.18615
1.16334
1.14444
1.13777
1.12627
1.10617
1.08306
1.05318
1.02876
1.0167
1.00402
0.990908
0.986262
0.987863
0.98544
0.975627
0.970267
0.972177
0.981245
1.00099
1.0313
1.06739
1.10466
1.12819
1.14505
1.22042
1.49839
1.81528
2.03839
2.09826
2.466
3.46278
3.74406
3.65581
3.49169
3.38168
3.3069
3.25939
3.23205
3.20695
3.19223
3.1782
3.16047
3.14526
3.13641
3.13101
3.11919
3.10145
3.08213
3.0641
3.04877
3.03704
3.03295
3.04235
3.04561
3.0351
3.02132
3.0042
2.98303
2.96251
2.94601
2.93457
2.9295
2.93061
2.93192
2.92948
2.92375
2.91455
2.90288
2.88899
2.87262
2.85545
2.83973
2.82644
2.81601
2.80814
2.80229
2.79811
2.7951
2.79342
2.79404
2.79266
2.78454
2.77141
2.75057
2.71939
2.68878
2.67546
2.66938
2.6669
2.67364
2.6818
2.67743
2.66902
2.65565
2.62753
2.58609
2.56237
2.55484
2.55035
2.55239
2.5589
2.55585
2.54879
2.5403
2.52379
2.47421
2.06188
1.99356
1.93066
1.88801
1.84181
1.79178
1.733
1.68826
1.65102
1.60994
1.56132
1.51882
1.50235
1.48185
1.44973
1.41313
1.38994
1.3631
1.32771
1.28308
1.25746
1.24726
1.23221
1.20952
1.19114
1.18378
1.1708
1.14782
1.11792
1.08195
1.06467
1.05695
1.04511
1.02999
1.02155
1.01856
1.00927
0.989831
0.97605
0.975824
0.981792
0.985209
0.990142
1.00536
1.03259
1.07161
1.15267
1.43328
1.82131
1.99953
2.10129
2.16871
2.28161
2.81436
3.5204
3.68258
3.60444
3.50096
3.4137
3.34148
3.2893
3.25157
3.22982
3.21226
3.1966
3.18399
3.17478
3.16939
3.15749
3.13973
3.12016
3.10067
3.08439
3.07093
3.06399
3.06988
3.0762
3.06877
3.05687
3.0426
3.02433
3.0038
2.98517
2.97077
2.96117
2.95526
2.94868
2.94156
2.93471
2.92642
2.91764
2.90993
2.90255
2.8951
2.88817
2.88059
2.86863
2.85048
2.82955
2.81621
2.80928
2.8048
2.80426
2.811
2.81372
2.80599
2.79388
2.7722
2.735
2.70135
2.6898
2.6845
2.68457
2.69391
2.69538
2.68853
2.68006
2.6652
2.63349
2.59275
2.57486
2.56872
2.5658
2.56847
2.56857
2.56229
2.55513
2.54716
2.51615
2.12671
2.05681
1.99328
1.94814
1.90031
1.84772
1.78962
1.74573
1.70907
1.66779
1.62061
1.57924
1.55942
1.53566
1.50084
1.46145
1.43479
1.40693
1.37102
1.32617
1.30311
1.29356
1.27904
1.25611
1.23722
1.22862
1.21331
1.18608
1.14882
1.11449
1.10581
1.09987
1.08717
1.07135
1.06055
1.05384
1.04028
1.01642
0.993283
0.98685
0.988841
0.988836
0.98899
0.989494
0.998921
1.0803
1.3166
1.71067
1.90059
2.00799
2.09084
2.19274
2.30949
2.46715
2.89788
3.39995
3.56614
3.56849
3.524
3.4529
3.37704
3.3127
3.2815
3.25801
3.24191
3.23068
3.21761
3.20678
3.19509
3.17641
3.15648
3.13639
3.11961
3.10519
3.09671
3.09825
3.10155
3.09458
3.08255
3.06873
3.05353
3.03851
3.02362
3.01134
3.00174
2.98989
2.9741
2.95709
2.94366
2.9344
2.9269
2.92107
2.91785
2.91838
2.92417
2.92478
2.91605
2.90072
2.87528
2.84312
2.82526
2.8182
2.81363
2.81538
2.82641
2.82707
2.8191
2.80695
2.78313
2.74277
2.71265
2.70374
2.69937
2.70119
2.70719
2.70258
2.69509
2.68613
2.66946
2.63543
2.59855
2.58538
2.57975
2.57687
2.57712
2.57426
2.56761
2.56126
2.54304
2.19177
2.11878
2.05698
2.01254
1.96193
1.90716
1.84624
1.80585
1.76992
1.72815
1.67865
1.63723
1.6167
1.58841
1.55098
1.50866
1.48065
1.45148
1.41546
1.37341
1.35097
1.34195
1.32601
1.30169
1.2811
1.27044
1.25261
1.22103
1.17937
1.15305
1.14855
1.14257
1.12915
1.11253
1.09944
1.09072
1.0732
1.04958
1.02331
1.01141
1.00941
1.00402
0.999117
1.00602
1.07374
1.30312
1.62959
1.81763
1.87028
1.94347
2.04393
2.18363
2.32619
2.3882
2.4836
2.79488
3.24055
3.45151
3.55659
3.5403
3.47044
3.42108
3.36335
3.32638
3.3004
3.28197
3.26311
3.24641
3.23091
3.21347
3.19345
3.17422
3.15665
3.1418
3.13207
3.12803
3.12397
3.11418
3.10098
3.08661
3.07249
3.06237
3.05259
3.04386
3.03588
3.02362
3.00672
2.98609
2.96292
2.94596
2.93731
2.9312
2.92709
2.92756
2.93875
2.94784
2.94351
2.93377
2.91676
2.88455
2.84709
2.83083
2.82408
2.82032
2.82674
2.83701
2.83295
2.82451
2.81145
2.78515
2.74446
2.72049
2.71349
2.70995
2.71245
2.71355
2.7074
2.70012
2.69041
2.67147
2.63485
2.60149
2.59069
2.58499
2.58155
2.58112
2.57939
2.57415
2.56076
2.25808
2.18364
2.12426
2.07828
2.0265
1.9692
1.90836
1.86908
1.83141
1.7883
1.73712
1.6959
1.67118
1.64049
1.60067
1.55538
1.52612
1.49829
1.46428
1.42211
1.40189
1.39156
1.37356
1.34769
1.32329
1.30958
1.28798
1.2537
1.21432
1.19619
1.19322
1.18651
1.17172
1.15367
1.13737
1.12482
1.10557
1.08352
1.06012
1.04554
1.03772
1.02812
1.03017
1.09334
1.34463
1.61981
1.8047
1.87001
1.88773
1.92932
2.03565
2.16331
2.2575
2.30661
2.33622
2.408
2.6462
2.99896
3.3311
3.47212
3.49087