/*--------------------------------*- C++ -*----------------------------------*\
  =========                 |
  \\      /  F ield         | OpenFOAM: The Open Source CFD Toolbox
   \\    /   O peration     | Website:  https://openfoam.org
    \\  /    A nd           | Version:  7
     \\/     M anipulation  |
\*---------------------------------------------------------------------------*/
FoamFile
{
    version     2.0;
    format      ascii;
    class       volScalarField;
    location    "3.8";
    object      T;
}
// * * * * * * * * * * * * * * * * * * * * * * * * * * * * * * * * * * * * * //

dimensions      [0 0 0 1 0 0 0];

internalField   nonuniform List<scalar> 
4128
(
1.26618
1.28162
1.31378
1.36795
1.40981
1.45644
1.52586
1.59576
1.62352
1.6158
1.59858
1.59113
1.59881
1.63128
1.65852
1.6496
1.62274
1.61512
1.6202
1.6334
1.65177
1.67392
1.67671
1.6722
1.66117
1.65686
1.65927
1.66864
1.67386
1.67292
1.66866
1.66522
1.66588
1.66807
1.66951
1.67082
1.67163
1.67136
1.67094
1.67218
1.67481
1.67569
1.67661
1.67785
1.67924
1.68065
1.681
1.67977
1.67638
1.67232
1.66993
1.67
2.39156
2.69259
2.72873
2.75039
2.7635
2.77297
2.78191
2.79068
2.79702
2.79965
2.80098
2.804
2.80989
2.81552
2.81725
2.81589
2.81455
2.81604
2.81972
2.82241
2.82192
2.81927
2.81736
2.81767
2.81944
2.82084
2.82125
2.82165
2.82287
2.82581
2.83088
2.83827
2.8471
2.85639
2.86414
2.86841
1.03181
1.05384
1.07109
1.10116
1.15719
1.2164
1.28102
1.34055
1.37591
1.39427
1.42115
1.44979
1.47494
1.50743
1.5447
1.56233
1.56262
1.56729
1.57878
1.59201
1.60524
1.61962
1.62099
1.61829
1.61253
1.61247
1.61732
1.63259
1.64642
1.64758
1.64538
1.64148
1.64001
1.64018
1.64197
1.64519
1.64731
1.64826
1.64973
1.65324
1.65749
1.65886
1.6588
1.65766
1.65617
1.65666
1.65857
1.66073
1.66131
1.66049
1.65738
1.65406
2.33579
2.67779
2.72319
2.74828
2.76267
2.77125
2.77845
2.78625
2.7934
2.79787
2.80031
2.80333
2.80873
2.81473
2.81762
2.8168
2.81557
2.81667
2.81987
2.82246
2.8222
2.81973
2.81776
2.81785
2.81946
2.82091
2.82139
2.82171
2.82281
2.82572
2.83092
2.83851
2.84753
2.85647
2.86354
2.86734
1.09195
1.05291
1.04803
1.05231
1.06533
1.09788
1.12866
1.14911
1.17086
1.19701
1.23672
1.2854
1.32586
1.35246
1.38377
1.42667
1.46378
1.48987
1.51112
1.52135
1.52775
1.53791
1.54501
1.54517
1.5449
1.54906
1.55575
1.56584
1.57675
1.58099
1.58333
1.58748
1.59011
1.59155
1.59302
1.59363
1.59398
1.59445
1.59717
1.60298
1.60999
1.61501
1.61665
1.61714
1.61635
1.61362
1.61246
1.61397
1.61723
1.62007
1.62066
1.61824
2.19381
2.63449
2.69958
2.73002
2.74885
2.75913
2.76603
2.77278
2.7802
2.7873
2.79312
2.79811
2.80347
2.80956
2.81423
2.8158
2.81572
2.81619
2.8181
2.82032
2.82086
2.8194
2.81779
2.81752
2.81862
2.82005
2.82074
2.82106
2.82206
2.82493
2.8304
2.8384
2.84782
2.85638
2.86238
2.86535
1.2305
1.18193
1.16612
1.15121
1.12239
1.10556
1.10173
1.10498
1.1088
1.11455
1.12515
1.14697
1.18302
1.22188
1.25914
1.30737
1.35826
1.38962
1.41463
1.43011
1.43667
1.4454
1.46103
1.4749
1.48302
1.49526
1.5057
1.51024
1.51507
1.51961
1.5226
1.52708
1.5314
1.53564
1.53714
1.53756
1.53779
1.53834
1.53974
1.54387
1.54973
1.55535
1.55891
1.56027
1.56118
1.56145
1.56025
1.56033
1.56298
1.56747
1.57046
1.56998
1.9858
2.54893
2.65343
2.68949
2.71331
2.72721
2.73635
2.74436
2.75318
2.76294
2.77278
2.7819
2.79025
2.79824
2.80548
2.81063
2.81301
2.8137
2.81484
2.81704
2.81874
2.81871
2.81769
2.81706
2.81763
2.81897
2.81996
2.82046
2.82136
2.82386
2.82921
2.83751
2.84724
2.85583
2.86107
2.86315
1.33046
1.2879
1.27138
1.25112
1.21344
1.18174
1.17182
1.16445
1.15268
1.13916
1.13832
1.14623
1.15227
1.15787
1.16709
1.19083
1.23497
1.27472
1.30659
1.34072
1.36446
1.37838
1.39982
1.422
1.43535
1.44968
1.46336
1.46739
1.4714
1.47696
1.48376
1.48923
1.49504
1.50299
1.50601
1.50651
1.50742
1.50793
1.50861
1.50999
1.51357
1.51738
1.52054
1.52236
1.52349
1.52384
1.52284
1.52203
1.52358
1.52815
1.53298
1.53381
1.73608
2.4338
2.60156
2.62925
2.65581
2.67414
2.68702
2.69844
2.71075
2.72415
2.73752
2.75026
2.76253
2.77491
2.78689
2.79657
2.80267
2.80568
2.80765
2.81057
2.81384
2.8159
2.81621
2.81592
2.8161
2.81728
2.81872
2.81975
2.82074
2.82274
2.82729
2.83534
2.84536
2.85429
2.85946
2.86109
1.4271
1.36783
1.34493
1.32358
1.29757
1.27751
1.25495
1.23828
1.22746
1.20815
1.18779
1.17773
1.16797
1.16109
1.16312
1.17004
1.17882
1.1871
1.1987
1.22248
1.25278
1.27982
1.31208
1.35275
1.38953
1.41388
1.43536
1.44677
1.45175
1.45778
1.4652
1.46942
1.47286
1.47761
1.48141
1.48439
1.48695
1.49051
1.49533
1.49879
1.50002
1.49928
1.49837
1.49941
1.50054
1.50211
1.50335
1.50353
1.5049
1.50942
1.51545
1.51732
1.55141
2.33385
2.57591
2.59399
2.60915
2.62314
2.63638
2.64832
2.66132
2.67623
2.69216
2.7081
2.72346
2.73901
2.75521
2.77048
2.78278
2.79072
2.79572
2.80026
2.80546
2.80988
2.81231
2.81319
2.81357
2.81459
2.81651
2.81831
2.81976
2.8216
2.82523
2.83224
2.84207
2.85153
2.8573
2.85918
1.51549
1.46829
1.43467
1.39361
1.35352
1.34024
1.32679
1.30463
1.29104
1.27612
1.24846
1.22796
1.22336
1.21537
1.19858
1.1897
1.19285
1.19432
1.1935
1.19166
1.19437
1.20172
1.2184
1.25016
1.29365
1.33319
1.37076
1.41427
1.43438
1.44449
1.45527
1.45858
1.46022
1.46224
1.46461
1.46748
1.47235
1.47997
1.48946
1.49614
1.49753
1.49685
1.49146
1.48819
1.48886
1.49183
1.49639
1.49863
1.4998
1.50203
1.50552
1.50769
1.51049
2.24788
2.56646
2.5826
2.59015
2.59652
2.60281
2.61108
2.62124
2.63319
2.64678
2.66191
2.67825
2.69601
2.71444
2.73278
2.74968
2.76329
2.7733
2.78172
2.79014
2.79775
2.80339
2.80694
2.80893
2.81045
2.81259
2.81528
2.81774
2.81994
2.82305
2.82883
2.83787
2.8476
2.85422
2.85674
1.57722
1.5383
1.50966
1.47614
1.43663
1.41039
1.38889
1.36318
1.34318
1.32996
1.31165
1.28342
1.27287
1.26765
1.25709
1.24136
1.22332
1.21675
1.21074
1.20477
1.20613
1.20981
1.20892
1.2084
1.21276
1.22686
1.25189
1.29321
1.34272
1.38133
1.41232
1.43742
1.45523
1.45966
1.45867
1.45728
1.46087
1.46865
1.48307
1.49365
1.49577
1.49596
1.49252
1.4856
1.48527
1.48741
1.49325
1.49903
1.50079
1.50108
1.50046
1.50088
1.50204
2.13057
2.56476
2.58567
2.58568
2.58647
2.58895
2.59364
2.59952
2.6062
2.61436
2.62476
2.63824
2.65477
2.673
2.69161
2.7096
2.72613
2.74097
2.75484
2.76795
2.77936
2.78851
2.7955
2.80048
2.80401
2.80698
2.81034
2.81392
2.81692
2.82008
2.8252
2.83354
2.84329
2.85066
2.8538
1.65484
1.61113
1.57251
1.53004
1.50338
1.48191
1.45724
1.42741
1.39584
1.36894
1.35171
1.33774
1.32235
1.31333
1.30686
1.2961
1.27597
1.2581
1.2502
1.24151
1.23488
1.23103
1.2257
1.22077
1.21696
1.21525
1.21579
1.22046
1.23658
1.26588
1.30509
1.34902
1.38707
1.41976
1.44644
1.45623
1.45743
1.46119
1.4716
1.48439
1.49117
1.49279
1.49129
1.48511
1.48392
1.48625
1.4916
1.49879
1.50212
1.50289
1.50168
1.49945
1.49998
1.99553
2.5501
2.58913
2.58566
2.58413
2.58536
2.5871
2.58948
2.59136
2.59362
2.59974
2.61078
2.62447
2.63957
2.6541
2.66929
2.68529
2.7018
2.71876
2.73557
2.75102
2.76427
2.77533
2.78456
2.79219
2.79833
2.80339
2.80794
2.81184
2.81546
2.82064
2.8288
2.83866
2.84639
2.84979
1.71265
1.67649
1.63915
1.59357
1.55918
1.53397
1.50669
1.48015
1.45479
1.42431
1.39315
1.38213
1.36993
1.35568
1.3484
1.34081
1.32956
1.31231
1.29341
1.27907
1.26915
1.26112
1.25114
1.23909
1.2352
1.23352
1.23185
1.23081
1.22952
1.22837
1.2325
1.2469
1.26941
1.303
1.34682
1.38684
1.42962
1.45221
1.45881
1.46573
1.47312
1.48164
1.48504
1.48466
1.48497
1.48699
1.49033
1.49675
1.50128
1.50182
1.50147
1.50054
1.49937
1.84502
2.51055
2.59624
2.58754
2.58308
2.58208
2.58253
2.58344
2.58344
2.58245
2.58427
2.59177
2.60281
2.61485
2.62672
2.63745
2.64909
2.66322
2.68022
2.69878
2.71698
2.73355
2.74835
2.76171
2.77388
2.78442
2.7929
2.79937
2.80442
2.80907
2.81496
2.8235
2.83362
2.84145
2.8447
1.76791
1.72856
1.68903
1.64583
1.61752
1.58999
1.55301
1.51657
1.49418
1.47148
1.44804
1.43538
1.42212
1.40049
1.37962
1.36791
1.36186
1.35445
1.34345
1.32575
1.30387
1.29313
1.28673
1.27912
1.26799
1.25976
1.25445
1.25155
1.24733
1.24183
1.23846
1.23554
1.23354
1.23632
1.2473
1.27288
1.31631
1.3655
1.40646
1.43344
1.44633
1.45669
1.47093
1.47952
1.48089
1.4827
1.48457
1.48767
1.49325
1.49757
1.49862
1.49952
1.49859
1.68498
2.4528
2.60441
2.59143
2.58405
2.5797
2.57795
2.57801
2.57825
2.57799
2.57878
2.58184
2.58786
2.59607
2.60508
2.61359
2.62194
2.63246
2.64588
2.66214
2.67984
2.69752
2.71437
2.73059
2.74643
2.76161
2.77508
2.78569
2.79351
2.79988
2.80708
2.81636
2.82685
2.83479
2.83764
1.81555
1.77715
1.73427
1.69092
1.66174
1.63318
1.59817
1.5661
1.53966
1.51007
1.48723
1.47716
1.46543
1.44949
1.43303
1.41201
1.38436
1.37639
1.37349
1.36322
1.34667
1.32698
1.31575
1.31269
1.30833
1.30196
1.29105
1.27332
1.26578
1.2606
1.25454
1.25064
1.24767
1.24414
1.24247
1.24295
1.24751
1.26169
1.28865
1.32386
1.36505
1.39586
1.42316
1.45297
1.4677
1.47544
1.47848
1.47851
1.48168
1.48811
1.49392
1.49567
1.4944
1.54468
2.39704
2.61188
2.59358
2.58542
2.58013
2.57525
2.57282
2.57297
2.57415
2.57578
2.57782
2.58109
2.5853
2.58983
2.5946
2.60079
2.60927
2.61981
2.63247
2.64689
2.66226
2.67855
2.69592
2.71409
2.73256
2.75047
2.76606
2.77816
2.78724
2.79598
2.80644
2.81824
2.8271
2.82986
1.854
1.81731
1.77225
1.7351
1.70523
1.67108
1.63258
1.60782
1.58471
1.55883
1.53662
1.51818
1.49487
1.47799
1.46951
1.45535
1.43533
1.41348
1.39378
1.38056
1.37306
1.36533
1.35431
1.3406
1.33585
1.33259
1.32643
1.31451
1.3
1.28471
1.27126
1.26812
1.26611
1.26282
1.26043
1.2574
1.25326
1.25094
1.25158
1.25597
1.26895
1.294
1.32815
1.37168
1.41335
1.4505
1.4703
1.47456
1.47498
1.47951
1.4853
1.48658
1.4859
1.48805
2.32821
2.61288
2.59471
2.58694
2.58006
2.57282
2.56621
2.5657
2.56915
2.57289
2.57569
2.57767
2.57919
2.58076
2.58281
2.58608
2.59187
2.60006
2.60983
2.62091
2.63307
2.64692
2.66211
2.67878
2.69762
2.718
2.73788
2.75484
2.76828
2.77955
2.79119
2.80342
2.81299
2.81606
1.88839
1.85093
1.80514
1.772
1.74368
1.70888
1.67235
1.64756
1.62295
1.59615
1.57805
1.56048
1.53831
1.51257
1.49443
1.47959
1.46785
1.4536
1.43399
1.4079
1.39593
1.39255
1.38663
1.37859
1.36891
1.35663
1.34789
1.34036
1.32946
1.31656
1.30329
1.29489
1.28845
1.28172
1.27899
1.27615
1.27172
1.26768
1.26278
1.25666
1.25186
1.2528
1.25811
1.27538
1.30573
1.34825
1.39216
1.43007
1.45349
1.46605
1.47298
1.47548
1.47838
1.48038
2.2379
2.60905
2.59159
2.58251
2.57817
2.57079
2.56261
2.56024
2.56319
2.5685
2.57344
2.57602
2.57671
2.57657
2.57623
2.57715
2.58074
2.58618
2.59279
2.60056
2.60964
2.62011
2.63215
2.64623
2.66299
2.68264
2.70398
2.72464
2.74236
2.75715
2.77179
2.78639
2.79618
2.79292
1.91844
1.8812
1.83889
1.8059
1.77659
1.74083
1.71047
1.68833
1.66321
1.63281
1.61053
1.59051
1.57099
1.55152
1.53309
1.51191
1.48757
1.47628
1.46396
1.44507
1.43053
1.42207
1.4135
1.40678
1.3985
1.38631
1.36876
1.3577
1.3509
1.34403
1.33523
1.3261
1.31801
1.3099
1.30382
1.29839
1.2916
1.28549
1.28027
1.27319
1.26362
1.25576
1.2555
1.25559
1.25878
1.26836
1.29166
1.32643
1.36794
1.40345
1.43293
1.45152
1.47012
1.47318
2.14535
2.59725
2.58661
2.57922
2.5756
2.56901
2.56127
2.55806
2.56062
2.56578
2.57041
2.57256
2.57271
2.5716
2.57084
2.5716
2.5744
2.57846
2.58286
2.58746
2.59255
2.59823
2.6058
2.61676
2.63101
2.64819
2.66811
2.68921
2.70888
2.72592
2.74142
2.75457
2.76105
2.76254
1.94395
1.90532
1.86775
1.83817
1.80861
1.77328
1.74406
1.72152
1.69548
1.66796
1.64651
1.62344
1.59588
1.57844
1.56363
1.5455
1.52119
1.50293
1.48844
1.47458
1.46348
1.45316
1.44162
1.43231
1.42476
1.41427
1.39715
1.37737
1.36899
1.36473
1.35967
1.35425
1.34746
1.33692
1.3285
1.32409
1.31992
1.31204
1.29805
1.28805
1.28095
1.27408
1.27011
1.26699
1.26343
1.26403
1.2656
1.27001
1.28213
1.30328
1.33498
1.36914
1.40373
1.42212
2.08811
2.599
2.5942
2.58417
2.57774
2.57105
2.56433
2.56198
2.56294
2.56693
2.57081
2.57182
2.571
2.5686
2.56719
2.56782
2.57069
2.57473
2.57828
2.58078
2.58241
2.58311
2.5855
2.59212
2.60299
2.61642
2.63286
2.65126
2.66973
2.68649
2.70157
2.71651
2.73543
2.77147
1.96392
1.92682
1.89522
1.86477
1.83457
1.80159
1.77708
1.75354
1.72286
1.6944
1.6752
1.65384
1.62771
1.6086
1.58923
1.56881
1.55056
1.53404
1.51791
1.50307
1.49354
1.48361
1.46773
1.45501
1.44567
1.43529
1.42295
1.4104
1.3976
1.38189
1.37495
1.37323
1.3695
1.36363
1.3556
1.34593
1.3382
1.33246
1.32338
1.30922
1.29796
1.29113
1.2882
1.28623
1.28332
1.28019
1.27505
1.26999
1.26502
1.26519
1.2688
1.28089
1.30687
1.33355
2.05518
2.62404
2.62319
2.61412
2.60218
2.59106
2.58294
2.57721
2.57472
2.57545
2.57613
2.575
2.57195
2.56818
2.56631
2.56699
2.57038
2.57478
2.57696
2.57714
2.57459
2.57118
2.57101
2.57433
2.58141
2.58968
2.59983
2.61236
2.62699
2.64129
2.6519
2.65365
2.63317
2.55901
1.97962
1.946
1.9174
1.88805
1.85719
1.82771
1.8025
1.77798
1.74967
1.7227
1.70153
1.67643
1.6532
1.6368
1.61878
1.59466
1.57648
1.56099
1.54612
1.53013
1.52009
1.5095
1.49669
1.48279
1.46788
1.44898
1.43672
1.43193
1.42407
1.41235
1.40141
1.3934
1.38583
1.3815
1.37793
1.37138
1.35804
1.34482
1.33822
1.33037
1.32298
1.3172
1.31035
1.30421
1.30152
1.29868
1.29372
1.2857
1.27336
1.26535
1.26465
1.26529
1.27003
1.2765
1.94021
2.64726
2.66225
2.65298
2.64119
2.62683
2.61579
2.6074
2.60161
2.59713
2.59208
2.58561
2.5784
2.5721
2.56862
2.5686
2.57171
2.57525
2.57548
2.5732
2.56729
2.56262
2.56141
2.56234
2.56551
2.56919
2.57287
2.57811
2.58566
2.5931
2.59355
2.5811
2.5399
2.41802
1.99227
1.96382
1.93527
1.90616
1.87529
1.85056
1.82509
1.79879
1.76979
1.74714
1.72598
1.70223
1.6779
1.66023
1.6417
1.61963
1.6041
1.58948
1.57229
1.55737
1.54468
1.52999
1.51625
1.50499
1.49182
1.47489
1.45751
1.448
1.44033
1.43264
1.42622
1.41931
1.41095
1.39835
1.3919
1.38649
1.37635
1.36089
1.3524
1.34735
1.34245
1.33829
1.33346
1.3278
1.32185
1.31549
1.3088
1.30151
1.29117
1.27841
1.27181
1.2707
1.27217
1.27447
1.6584
2.58783
2.69063
2.67788
2.66901
2.66059
2.65507
2.64906
2.64205
2.63263
2.62114
2.6082
2.59565
2.58512
2.57756
2.57468
2.57586
2.57696
2.57528
2.56927
2.56138
2.55653
2.55458
2.55402
2.55425
2.55373
2.55125
2.54884
2.5475
2.54554
2.53715
2.5116
2.45837
2.32716
2.00466
1.97777
1.95
1.92013
1.89323
1.86887
1.84327
1.81644
1.79097
1.7691
1.74709
1.72262
1.70182
1.68515
1.66514
1.64272
1.62776
1.61381
1.59607
1.58198
1.5685
1.55336
1.53503
1.52064
1.50799
1.49559
1.48365
1.47325
1.46273
1.4499
1.44313
1.43768
1.43131
1.42213
1.41133
1.39967
1.38787
1.37609
1.36874
1.36469
1.36093
1.35698
1.35215
1.34596
1.33943
1.33364
1.32685
1.3182
1.30857
1.29871
1.28891
1.28319
1.28118
1.28076
1.33301
2.39359
2.69175
2.68714
2.68007
2.67987
2.6826
2.6857
2.68391
2.67414
2.6586
2.64141
2.62454
2.60963
2.59766
2.58941
2.58544
2.58245
2.57683
2.56736
2.55833
2.55346
2.55098
2.54976
2.54836
2.5441
2.5351
2.52548
2.51599
2.50533
2.48705
2.45591
2.39463
2.28219
2.01622
1.98933
1.96168
1.93341
1.90962
1.8845
1.85974
1.83278
1.8111
1.78847
1.7671
1.74309
1.72325
1.70565
1.68603
1.6666
1.65249
1.63627
1.61523
1.60093
1.58746
1.5732
1.55693
1.54177
1.52706
1.5112
1.50209
1.49471
1.48583
1.47361
1.46416
1.45488
1.44483
1.43714
1.42787
1.41588
1.40292
1.39418
1.388
1.38118
1.3763
1.37299
1.36924
1.36461
1.35698
1.34757
1.33849
1.32985
1.32367
1.31959
1.31501
1.30984
1.30378
1.29251
1.29253
2.07929
2.63628
2.6694
2.6734
2.6838
2.69488
2.70291
2.70382
2.69865
2.6864
2.67148
2.65581
2.64081
2.62712
2.61502
2.60415
2.59395
2.58226
2.56945
2.55897
2.55295
2.55058
2.54927
2.54597
2.53572
2.52075
2.50572
2.49085
2.4725
2.44915
2.41031
2.34907
2.2568
2.02545
1.9994
1.97159
1.94726
1.92326
1.89914
1.87316
1.85038
1.82874
1.80678
1.78393
1.76228
1.74405
1.72548
1.70534
1.68662
1.67212
1.65566
1.63584
1.62067
1.60588
1.58749
1.57356
1.56105
1.54851
1.53316
1.52256
1.51306
1.50267
1.49267
1.4841
1.47457
1.46248
1.45048
1.43999
1.42968
1.41784
1.41117
1.40644
1.4006
1.39419
1.38854
1.38275
1.37839
1.37324
1.36419
1.34938
1.3375
1.33374
1.33261
1.33082
1.32811
1.32475
1.31864
1.3054
1.65411
2.48166
2.63204
2.65767
2.67607
2.69141
2.70359
2.70967
2.70632
2.69498
2.68648
2.6774
2.66796
2.65795
2.64607
2.6315
2.6141
2.5956
2.57843
2.56468
2.55577
2.55185
2.54942
2.54371
2.52934
2.51073
2.49121
2.47137
2.44757
2.42007
2.37835
2.31955
2.24046
2.03262
2.00703
1.98245
1.95943
1.93549
1.91111
1.88729
1.86649
1.84422
1.82295
1.79956
1.78116
1.76151
1.74322
1.7228
1.70632
1.68998
1.67119
1.65204
1.63854
1.62462
1.60575
1.59071
1.57795
1.56511
1.55297
1.54388
1.53361
1.52127
1.50911
1.49951
1.48989
1.47819
1.4657
1.45432
1.44514
1.43536
1.42854
1.42294
1.41627
1.40967
1.40453
1.39839
1.39048
1.3842
1.37612
1.36363
1.35425
1.34962
1.34488
1.34119
1.33906
1.33693
1.3347
1.32514
1.35674
2.24311
2.5752
2.61991
2.6506
2.67587
2.69302
2.70221
2.70266
2.69747
2.69428
2.69153
2.68973
2.68671
2.67767
2.66198
2.64154
2.61907
2.59754
2.57948
2.56597
2.5581
2.55312
2.54468
2.52615
2.50405
2.4812
2.45745
2.4308
2.40061
2.35955
2.30434
2.23481
2.0378
2.01399
1.99212
1.96938
1.94615
1.92201
1.90141
1.8798
1.859
1.83596
1.81608
1.79704
1.77807
1.75868
1.73958
1.72257
1.70533
1.68759
1.66929
1.6546
1.63946
1.62189
1.60911
1.59776
1.58316
1.57036
1.56048
1.5501
1.53784
1.52671
1.51559
1.50405
1.49145
1.47987
1.46893
1.45908
1.4518
1.4461
1.44026
1.43399
1.4257
1.41811
1.41125
1.4025
1.39285
1.38371
1.37509
1.37052
1.36778
1.36391
1.35713
1.35068
1.34642
1.34418
1.33949
1.33253
1.84132
2.47496
2.56888
2.6101
2.64304
2.66825
2.684
2.68997
2.69017
2.6902
2.69321
2.69687
2.69881
2.69495
2.68235
2.66497
2.64486
2.62368
2.60342
2.58594
2.5723
2.56135
2.54766
2.52569
2.50096
2.47562
2.4493
2.42091
2.39021
2.35034
2.29716
2.23448
2.04198
2.02085
1.99914
1.97733
1.95449
1.93358
1.91284
1.89193
1.87027
1.84933
1.83073
1.81095
1.79253
1.77212
1.75535
1.7372
1.72012
1.70135
1.68599
1.67088
1.65552
1.63795
1.62552
1.61458
1.60054
1.58866
1.578
1.56602
1.55138
1.54063
1.52976
1.51794
1.50506
1.49504
1.48605
1.47615
1.46764
1.46082
1.45358
1.44753
1.44158
1.43415
1.42682
1.41789
1.40229
1.38911
1.38505
1.38268
1.38096
1.37852
1.37457
1.36892
1.36177
1.35346
1.34525
1.33467
1.41913
2.29657
2.52076
2.56821
2.60067
2.62827
2.64967
2.66384
2.67283
2.67897
2.6871
2.69481
2.69788
2.69375
2.6837
2.67284
2.66125
2.64642
2.62975
2.61251
2.5949
2.57625
2.55435
2.52834
2.50164
2.47467
2.44709
2.41807
2.38709
2.34851
2.29823
2.23831
2.0456
2.02555
2.00463
1.9831
1.96262
1.94268
1.92239
1.90176
1.8805
1.86201
1.84246
1.8242
1.8038
1.78627
1.7687
1.75121
1.73374
1.71657
1.70127
1.68584
1.67004
1.65488
1.64323
1.63117
1.61573
1.60353
1.59249
1.58017
1.56635
1.55508
1.54383
1.53075
1.51817
1.50881
1.50109
1.49303
1.48576
1.47842
1.46943
1.45827
1.45123
1.44483
1.43815
1.42986
1.41761
1.40592
1.39848
1.39532
1.39149
1.38759
1.38529
1.38179
1.37624
1.36828
1.35686
1.34015
1.34067
1.94957
2.46327
2.53084
2.56224
2.58702
2.60883
2.62799
2.64263
2.65641
2.6715
2.68353
2.69016
2.68918
2.68113
2.6721
2.6653
2.65926
2.65077
2.63774
2.61989
2.59677
2.56762
2.53691
2.50681
2.47754
2.44916
2.42035
2.38943
2.35147
2.30287
2.24646
2.0481
2.02839
2.00812
1.98873
1.96941
1.94932
1.92977
1.90978
1.89097
1.87186
1.85356
1.83417
1.81561
1.79877
1.78093
1.76466
1.74655
1.73155
1.71526
1.70064
1.68435
1.67096
1.65822
1.64564
1.63084
1.61845
1.60671
1.59177
1.57841
1.56794
1.55763
1.54474
1.53408
1.52493
1.51557
1.50594
1.49932
1.49222
1.48444
1.47517
1.46653
1.45786
1.44511
1.43191
1.42612
1.42158
1.41674
1.41314
1.40881
1.40116
1.39219
1.38816
1.38417
1.37778
1.36793
1.35405
1.34565
1.47933
2.32584
2.49924
2.53044
2.55094
2.56904
2.58682
2.6039
2.62239
2.64266
2.66082
2.67315
2.67768
2.67432
2.66853
2.66687
2.66589
2.66362
2.6566
2.64068
2.61658
2.58611
2.55287
2.51955
2.48735
2.45703
2.42758
2.39579
2.35804
2.31117
2.25754
2.0494
2.03022
2.01125
1.99314
1.97429
1.95469
1.93554
1.91758
1.89893
1.8808
1.8625
1.84369
1.8267
1.80923
1.7934
1.77554
1.76008
1.74423
1.72888
1.71353
1.69853
1.68578
1.67204
1.65836
1.64373
1.63128
1.61922
1.60539
1.59219
1.58099
1.56942
1.5567
1.54863
1.54084
1.53223
1.52201
1.51299
1.5031
1.49327
1.48659
1.47947
1.47029
1.4578
1.44404
1.43537
1.43164
1.42928
1.42672
1.42244
1.41604
1.4073
1.39874
1.39102
1.38167
1.37174
1.36571
1.35967
1.36458
2.03725
2.46595
2.507
2.52464
2.53759
2.55083
2.56594
2.58448
2.60611
2.62771
2.6449
2.65632
2.66023
2.65871
2.66068
2.66401
2.66657
2.66472
2.65166
2.63015
2.60295
2.57178
2.53894
2.50556
2.4733
2.4417
2.40735
2.36799
2.32196
2.27059
2.04931
2.03178
2.01408
1.99591
1.97766
1.9589
1.94152
1.92376
1.90563
1.88786
1.87052
1.85324
1.83563
1.81968
1.80301
1.78676
1.77136
1.75558
1.74129
1.72512
1.71212
1.69769
1.68445
1.66948
1.65647
1.64359
1.63086
1.61651
1.60521
1.59478
1.58336
1.57091
1.56218
1.55372
1.54433
1.53571
1.52665
1.51712
1.50675
1.49726
1.48784
1.47721
1.46679
1.45908
1.4535
1.44797
1.44254
1.43725
1.43041
1.42408
1.41849
1.41155
1.40276
1.38994
1.37814
1.37533
1.37307
1.36903
1.55625
2.34676
2.4894
2.5025
2.51134
2.52013
2.53186
2.5484
2.56875
2.59005
2.60947
2.62473
2.63457
2.64104
2.64562
2.65375
2.65954
2.65828
2.64848
2.63053
2.61019
2.58628
2.55883
2.52912
2.49763
2.46362
2.42562
2.38286
2.33586
2.28608
2.04908
2.03271
2.01562
1.99802
1.98044
1.96318
1.94605
1.92911
1.91113
1.89398
1.8779
1.86074
1.84424
1.82808
1.81221
1.79643
1.78057
1.7668
1.75096
1.73689
1.72266
1.70883
1.69502
1.68046
1.66798
1.65483
1.64284
1.62912
1.61756
1.60677
1.59513
1.58489
1.57667
1.56775
1.55586
1.54583
1.53637
1.52764
1.51908
1.50971
1.49917
1.48664
1.47542
1.4707
1.46718
1.4631
1.45786
1.45065
1.44107
1.43127
1.42462
1.41854
1.41088
1.39879
1.39102
1.38883
1.38614
1.38067
1.39146
2.09762
2.45995
2.48398
2.48942
2.49517
2.50484
2.51966
2.53753
2.55615
2.57355
2.58847
2.60051
2.61053
2.62117
2.63249
2.64175
2.64435
2.63905
2.62488
2.60806
2.59146
2.57292
2.55093
2.52415
2.49072
2.45011
2.40384
2.35467
2.30539
2.04884
2.03264
2.0159
1.99923
1.98347
1.96672
1.9495
1.933
1.91606
1.89986
1.88374
1.86764
1.85092
1.8359
1.82056
1.80429
1.78974
1.77521
1.76084
1.74633
1.73192
1.71906
1.70398
1.69155
1.67825
1.66638
1.65309
1.64124
1.62983
1.61918
1.60737
1.59718
1.58832
1.5789
1.56734
1.55728
1.54768
1.53755
1.52797
1.51841
1.5088
1.49734
1.49041
1.48546
1.4797
1.47363
1.46797
1.46039
1.45132
1.44226
1.43481
1.42668
1.41548
1.40538
1.40303
1.40122
1.3983
1.39433
1.39104
1.62708
2.34606
2.46393
2.46977
2.47531
2.48472
2.4979
2.51273
2.52794
2.54193
2.55401
2.56423
2.5743
2.58716
2.60254
2.61592
2.62356
2.62277
2.61397
2.60292
2.59134
2.57934
2.56485
2.54469
2.51529
2.47611
2.42972
2.37987
2.33051
2.04753
2.03213
2.01595
2.00059
1.98525
1.96926
1.95233
1.93659
1.92078
1.90426
1.88918
1.87319
1.85699
1.84268
1.82732
1.81213
1.79697
1.78362
1.76919
1.75419
1.74137
1.72708
1.71408
1.70088
1.68842
1.67681
1.66365
1.65255
1.64065
1.63043
1.61888
1.6094
1.59933
1.58813
1.57644
1.56709
1.55828
1.54821
1.53815
1.52776
1.51697
1.50787
1.50369
1.49894
1.49318
1.48556
1.47694
1.4673
1.45851
1.45123
1.44391
1.43503
1.42403
1.41702
1.41522
1.41285
1.40877
1.4053
1.39796
1.41614
2.10925
2.42999
2.44846
2.45627
2.46785
2.48035
2.49335
2.50604
2.51695
2.52556
2.5318
2.53865
2.54926
2.56442
2.58053
2.59288
2.59927
2.59786
2.5912
2.58558
2.5781
2.56925
2.55504
2.53122
2.49707
2.45511
2.40873
2.36139
2.04501
2.03019
2.01572
2.00099
1.9856
1.96995
1.95454
1.93991
1.92435
1.90811
1.89314
1.87844
1.86265
1.84793
1.83417
1.81805
1.80413
1.79114
1.77621
1.76244
1.74862
1.73618
1.72296
1.70966
1.69863
1.6855
1.67414
1.66203
1.65139
1.64038
1.62967
1.61915
1.60865
1.59726
1.58618
1.57686
1.56768
1.55717
1.54702
1.53749
1.52749
1.52084
1.51577
1.50968
1.50292
1.49515
1.48578
1.47595
1.46735
1.45996
1.45159
1.44197
1.43281
1.42914
1.42759
1.4247
1.41992
1.41582
1.40909
1.40136
1.64624
2.32268
2.42271
2.44013
2.45381
2.4655
2.47704
2.48752
2.49576
2.50096
2.50339
2.50675
2.51467
2.52778
2.54349
2.55841
2.56912
2.57428
2.57383
2.57032
2.56742
2.56154
2.5497
2.52974
2.50345
2.47078
2.43283
2.3917
2.04222
2.02836
2.01475
2.00045
1.98551
1.97064
1.95669
1.94191
1.92715
1.91125
1.89708
1.88312
1.8674
1.85303
1.83998
1.82389
1.81049
1.79734
1.78386
1.76873
1.75671
1.74466
1.73081
1.71913
1.70643
1.69493
1.68283
1.67094
1.66095
1.64944
1.63917
1.62753
1.61714
1.60551
1.59585
1.58649
1.57703
1.56616
1.55592
1.54696
1.53824
1.533
1.52721
1.52023
1.5108
1.50177
1.49265
1.48434
1.47652
1.46867
1.4596
1.45131
1.44411
1.44092
1.43856
1.43453
1.42851
1.42356
1.41773
1.40446
1.42167
2.08723
2.39003
2.42156
2.4371
2.44964
2.46119
2.47077
2.4772
2.47928
2.47897
2.48024
2.48667
2.49758
2.51032
2.52322
2.53438
2.5418
2.54615
2.54687
2.54511
2.54265
2.53575
2.52083
2.49898
2.47252
2.44403
2.41337
2.0388
2.02618
2.0127
1.99874
1.98442
1.97116
1.95722
1.94304
1.92825
1.91422
1.90068
1.8864
1.87173
1.85711
1.84504
1.82999
1.81517
1.80378
1.78987
1.77476
1.76435
1.75169
1.73933
1.72604
1.71476
1.7033
1.69038
1.68002
1.66854
1.65823
1.64654
1.63551
1.62485
1.61437
1.60484
1.59544
1.58532
1.57478
1.56551
1.55747
1.54972
1.5436
1.53649
1.52826
1.5179
1.50868
1.50004
1.49254
1.48466
1.47657
1.46782
1.46108
1.45547
1.45283
1.44966
1.44445
1.43737
1.4296
1.42315
1.41084
1.40516
1.63177
2.28565
2.39649
2.42009
2.43334
2.44397
2.45267
2.45792
2.45822
2.45708
2.45839
2.4648
2.47397
2.48361
2.49302
2.50153
2.50818
2.5135
2.51691
2.51823
2.51702
2.51383
2.50493
2.48988
2.47073
2.44912
2.42503
2.03575
2.02328
2.01044
1.99691
1.98397
1.97084
1.9573
1.94335
1.92965
1.91688
1.90296
1.88936
1.87472
1.8617
1.84911
1.83521
1.82009
1.80936
1.79581
1.78094
1.77012
1.75924
1.74567
1.73257
1.72276
1.71011
1.6987
1.6869
1.67655
1.66561
1.65346
1.6434
1.63247
1.62331
1.61311
1.60393
1.59321
1.58369
1.57524
1.56751
1.56038
1.55323
1.54483
1.53419
1.52395
1.51586
1.50845
1.50084
1.49222
1.48437
1.47718
1.47147
1.46632
1.46331
1.45856
1.45191
1.4444
1.43614
1.42868
1.41843
1.40713
1.42487
2.04934
2.36404
2.40182
2.41576
2.42478
2.43243
2.43666
2.43651
2.4362
2.4394
2.44675
2.45471
2.46196
2.46807
2.47297
2.47666
2.47975
2.48219
2.48408
2.48471
2.48372
2.48148
2.47478
2.46261
2.44651
2.42805
2.03225
2.02001
2.00746
1.99532
1.98291
1.96991
1.95665
1.94323
1.93099
1.91773
1.90464
1.89061
1.87762
1.8655
1.85218
1.83939
1.82482
1.81392
1.80157
1.78633
1.77517
1.76579
1.75027
1.73902
1.7289
1.71746
1.70512
1.69364
1.68418
1.67189
1.66125
1.65017
1.64111
1.63117
1.6212
1.61115
1.60122
1.5927
1.5848
1.57694
1.56944
1.56085
1.55143
1.53999
1.53101
1.52355
1.51674
1.50806
1.49968
1.4928
1.48692
1.48139
1.47684
1.47292
1.46655
1.45835
1.44925
1.4415
1.43385
1.42609
1.41489
1.41594
1.6256
2.25073
2.37842
2.39451
2.40334
2.41061
2.4152
2.41659
2.41843
2.42369
2.43123
2.43822
2.44355
2.44697
2.44887
2.44924
2.44924
2.4493
2.44994
2.45139
2.45265
2.45321
2.452
2.44614
2.43471
2.42111
2.02863
2.01675
2.00521
1.99351
1.98125
1.96872
1.95565
1.9436
1.93099
1.91836
1.90525
1.89206
1.88048
1.86761
1.85533
1.84185
1.82976
1.81818
1.80581
1.79191
1.77997
1.7708
1.75576
1.74372
1.73469
1.72427
1.70985
1.70074
1.6904
1.67911
1.66785
1.65794
1.64927
1.63845
1.62882
1.6178
1.6098
1.60122
1.59335
1.58502
1.5769
1.56722
1.55697
1.54629
1.53908
1.53203
1.5248
1.51467
1.50771
1.5019
1.49656
1.49055
1.48588
1.48051
1.47276
1.46395
1.45497
1.4475
1.43995
1.43286
1.4256
1.42137
1.43955
2.00398
2.33556
2.37188
2.3785
2.38526
2.39067
2.39475
2.40014
2.40787
2.41604
2.42265
2.42667
2.42829
2.42831
2.4265
2.4234
2.42075
2.41976
2.42022
2.42164
2.4229
2.42275
2.4205
2.41325
2.40297
2.0243
2.01337
2.00237
1.99088
1.97916
1.96684
1.9551
1.94314
1.9308
1.91846
1.90559
1.89409
1.88166
1.86952
1.85679
1.84434
1.83365
1.82124
1.8096
1.7961
1.78494
1.77464
1.76127
1.74786
1.74027
1.72934
1.715
1.70642
1.6966
1.68603
1.67367
1.666
1.65608
1.64592
1.63468
1.62564
1.61785
1.60914
1.60047
1.5917
1.58271
1.57284
1.56261
1.5539
1.54731
1.54018
1.53171
1.52173
1.5165
1.51111
1.50552
1.49892
1.49356
1.48652
1.47797
1.46854
1.46076
1.45413
1.44748
1.44022
1.43562
1.43157
1.43184
1.60994
2.20985
2.34546
2.35529
2.36296
2.36912
2.37513
2.38272
2.39184
2.40069
2.40716
2.41025
2.41085
2.40994
2.40635
2.40109
2.39689
2.39509
2.39499
2.39551
2.39606
2.39558
2.39275
2.38626
2.37766
2.01918
2.00918
1.99847
1.98745
1.9762
1.96527
1.7916
1.378
1.17775
1.17431
1.3041
1.43889
1.51619
1.62389
1.71399
1.71274
1.70137
1.69985
1.7258
1.74448
1.74297
1.74191
1.74519
1.75073
1.75746
1.76061
1.75588
1.74729
1.74781
1.75682
1.77922
1.80711
1.81965
1.81954
1.81572
1.81526
1.99838
1.79013
1.62875
1.44535
1.44255
1.44016
1.43415
1.44092
1.46219
1.4813
1.5001
1.53423
1.5859
1.62721
1.64069
1.65017
1.66438
1.67437
1.68777
1.70295
1.70383
1.70217
1.70393
1.71382
1.7353
1.75911
1.77131
1.77591
1.77661
1.77785
2.07123
1.89576
1.75991
1.62461
1.53506
1.47703
1.41662
1.35946
1.34394
1.35539
1.37653
1.41023
1.45405
1.49079
1.5072
1.52005
1.54147
1.5664
1.59203
1.61536
1.62798
1.62998
1.63401
1.64244
1.6548
1.66909
1.67992
1.68854
1.69346
1.6978
2.10609
1.96898
1.85164
1.72167
1.62959
1.56988
1.5044
1.4256
1.40443
1.3895
1.35739
1.35529
1.36744
1.38527
1.39975
1.4168
1.44254
1.47146
1.49408
1.51324
1.53511
1.55193
1.56535
1.57867
1.59025
1.5998
1.60717
1.61468
1.61915
1.62367
2.12534
2.00833
1.91505
1.80934
1.70595
1.64513
1.58183
1.50101
1.46453
1.44477
1.40838
1.36547
1.35835
1.36121
1.36494
1.3761
1.38933
1.40724
1.42504
1.44279
1.46623
1.4905
1.50692
1.52106
1.53762
1.54807
1.55676
1.5686
1.57812
1.5874
2.13723
2.03825
1.95751
1.86749
1.77217
1.71346
1.65925
1.58067
1.53168
1.51256
1.47919
1.42556
1.4087
1.39913
1.3796
1.37028
1.37295
1.3766
1.38381
1.39309
1.41315
1.44046
1.46182
1.47645
1.49406
1.50875
1.51913
1.53361
1.54813
1.56021
2.14849
2.05867
1.98916
1.91844
1.82823
1.76305
1.72057
1.6552
1.59962
1.57435
1.54193
1.48419
1.45457
1.44382
1.42037
1.38903
1.38297
1.38783
1.38646
1.38838
1.39391
1.40199
1.41283
1.42336
1.43847
1.45984
1.47995
1.50075
1.52182
1.53567
2.16076
2.07955
2.01326
1.95481
1.87966
1.81197
1.76975
1.71561
1.65779
1.6309
1.601
1.54892
1.50888
1.49861
1.47995
1.44243
1.42676
1.42594
1.41618
1.40026
1.39198
1.39364
1.39323
1.39384
1.39841
1.40957
1.42968
1.45447
1.48279
1.50421
2.17315
2.09982
2.03691
1.98631
1.92035
1.85579
1.81595
1.76891
1.71196
1.68012
1.65246
1.6072
1.55947
1.5453
1.53176
1.50278
1.47156
1.45943
1.45127
1.43589
1.41307
1.4015
1.39879
1.3979
1.39896
1.4046
1.4088
1.41633
1.43232
1.45049
2.18677
2.12178
2.06001
2.01434
1.96073
1.89677
1.85491
1.81687
1.76489