/*--------------------------------*- C++ -*----------------------------------*\
  =========                 |
  \\      /  F ield         | OpenFOAM: The Open Source CFD Toolbox
   \\    /   O peration     | Website:  https://openfoam.org
    \\  /    A nd           | Version:  7
     \\/     M anipulation  |
\*---------------------------------------------------------------------------*/
FoamFile
{
    version     2.0;
    format      ascii;
    class       volScalarField;
    location    "0.9";
    object      T;
}
// * * * * * * * * * * * * * * * * * * * * * * * * * * * * * * * * * * * * * //

dimensions      [0 0 0 1 0 0 0];

internalField   nonuniform List<scalar> 
4128
(
1.89744
1.88757
1.87604
1.8596
1.82943
1.79755
1.78666
1.78106
1.77683
1.77422
1.77025
1.7635
1.75462
1.74191
1.7185
1.68497
1.6655
1.65958
1.65504
1.65469
1.65398
1.64768
1.64126
1.63426
1.62381
1.60229
1.57419
1.56149
1.55945
1.55909
1.56138
1.56094
1.55767
1.55451
1.55101
1.54644
1.53656
1.51519
1.49214
1.48508
1.48204
1.47924
1.47648
1.47268
1.46818
1.4634
1.45849
1.45226
1.44118
1.42281
1.40994
1.40703
1.40415
1.39946
1.39878
1.39997
1.40334
1.41198
1.43509
1.4718
1.50838
1.53921
1.56545
1.57416
1.57518
1.57991
1.59063
1.60329
1.61037
1.61036
1.60831
1.60496
1.59914
1.59116
1.58948
1.59059
1.59311
1.59751
1.60324
1.60596
1.60597
1.6053
1.60279
1.59694
1.59238
1.5919
1.59351
1.59851
1.60571
1.61257
1.6182
1.62296
1.62698
1.62951
1.62917
1.6231
1.61738
1.61633
1.61581
1.61575
1.61792
1.62096
1.62329
1.62771
1.63476
1.6439
1.65321
1.65947
1.66091
1.65829
1.65214
1.6515
1.65383
1.65726
1.6604
1.6639
1.66739
1.6716
1.6766
1.68217
1.6884
1.69506
1.70066
1.70297
1.70508
1.71385
1.7256
1.7343
1.74014
1.89693
1.88602
1.87256
1.85221
1.82047
1.79757
1.79042
1.78558
1.7819
1.77856
1.7738
1.76658
1.75597
1.7377
1.70594
1.67841
1.66996
1.66454
1.65981
1.65967
1.65796
1.65044
1.64265
1.63276
1.61389
1.58471
1.56698
1.5617
1.5596
1.55946
1.56142
1.55997
1.55695
1.55366
1.54959
1.54244
1.52534
1.50124
1.48896
1.48535
1.48271
1.48093
1.47785
1.47336
1.46897
1.46414
1.45844
1.44993
1.43393
1.41641
1.41104
1.40987
1.40828
1.40414
1.39984
1.39762
1.398
1.39939
1.39816
1.4015
1.41664
1.44994
1.49356
1.53437
1.55132
1.56058
1.5775
1.58814
1.589
1.58855
1.58571
1.58
1.57196
1.56736
1.56812
1.57121
1.57694
1.58562
1.59187
1.59322
1.59304
1.59059
1.58215
1.57195
1.56838
1.56831
1.56971
1.57424
1.58133
1.58846
1.59417
1.59919
1.60329
1.60466
1.60111
1.59385
1.59226
1.59179
1.59106
1.59113
1.59387
1.59581
1.59684
1.59987
1.60544
1.61324
1.62137
1.62597
1.62618
1.6223
1.61932
1.62066
1.62396
1.62725
1.63056
1.63372
1.63744
1.64161
1.64596
1.65054
1.65536
1.65952
1.66199
1.66366
1.66823
1.67906
1.69111
1.70036
1.70667
1.89486
1.88252
1.86639
1.84239
1.8155
1.79939
1.79301
1.78881
1.7853
1.78003
1.77429
1.76664
1.75348
1.72785
1.69542
1.68182
1.67624
1.67039
1.66576
1.6644
1.66057
1.65252
1.64266
1.6273
1.59981
1.57443
1.56678
1.56202
1.55973
1.56004
1.56105
1.55858
1.55544
1.55181
1.54642
1.53474
1.51195
1.49362
1.48786
1.48492
1.48283
1.48197
1.47846
1.474
1.46965
1.46487
1.45828
1.44521
1.42394
1.4127
1.41056
1.41004
1.41037
1.40779
1.40355
1.40038
1.39798
1.39533
1.39063
1.3804
1.37768
1.38586
1.41311
1.45914
1.50826
1.53491
1.5558
1.56871
1.56879
1.56846
1.5661
1.55811
1.54974
1.54862
1.55149
1.55822
1.56888
1.5777
1.58034
1.58097
1.58028
1.57404
1.56106
1.55237
1.55012
1.5497
1.55022
1.55487
1.56363
1.56977
1.57443
1.57887
1.58113
1.57896
1.57141
1.56918
1.57018
1.57027
1.56983
1.57041
1.5731
1.5734
1.57366
1.57536
1.57906
1.58484
1.59126
1.59449
1.59405
1.59082
1.59069
1.59341
1.59681
1.60004
1.60265
1.60558
1.60902
1.61273
1.61643
1.6199
1.62286
1.62463
1.62529
1.627
1.63337
1.64389
1.65453
1.66342
1.66944
1.89207
1.87829
1.85902
1.83346
1.81391
1.80143
1.79404
1.79006
1.78656
1.77998
1.77269
1.76374
1.7466
1.71651
1.69419
1.68803
1.68292
1.67684
1.6718
1.66835
1.66268
1.65391
1.64118
1.61939
1.58913
1.57441
1.56826
1.56323
1.56061
1.56118
1.56048
1.55736
1.55403
1.54979
1.54212
1.52482
1.50132
1.4907
1.48712
1.48423
1.48311
1.48367
1.48031
1.47534
1.47061
1.46521
1.45575
1.43682
1.41832
1.41304
1.4113
1.41107
1.41284
1.41133
1.40801
1.40473
1.40124
1.3958
1.38464
1.37212
1.36795
1.36758
1.3715
1.39071
1.43066
1.48207
1.51909
1.54062
1.54934
1.5497
1.54815
1.53838
1.5312
1.53289
1.53926
1.55188
1.56472
1.56764
1.5679
1.56816
1.56609
1.55686
1.54429
1.53868
1.53653
1.53538
1.53667
1.54358
1.55073
1.55407
1.55761
1.56005
1.55879
1.55139
1.5465
1.54804
1.5511
1.55211
1.55206
1.55264
1.5543
1.55399
1.55368
1.5543
1.5564
1.56043
1.56523
1.56744
1.56662
1.56479
1.56613
1.5696
1.57278
1.57508
1.57722
1.57983
1.58253
1.58537
1.58826
1.59069
1.59202
1.59218
1.59232
1.59484
1.60166
1.61039
1.61889
1.62628
1.63126
1.88852
1.8728
1.85114
1.82799
1.81332
1.80234
1.79422
1.79046
1.78622
1.77842
1.76927
1.75812
1.73792
1.71035
1.69803
1.69354
1.68933
1.68248
1.6765
1.67132
1.66412
1.65408
1.6386
1.61359
1.58874
1.57813
1.57138
1.56592
1.56294
1.56273
1.56028
1.55678
1.55308
1.54774
1.53705
1.51573
1.49646
1.48999
1.48675
1.4841
1.48373
1.48497
1.48192
1.47692
1.47165
1.46473
1.45053
1.42825
1.41658
1.41349
1.4117
1.41156
1.41453
1.41392
1.41147
1.40878
1.40502
1.3967
1.37983
1.3673
1.36331
1.36182
1.36308
1.36669
1.37655
1.40484
1.44549
1.4829
1.50699
1.52357
1.52605
1.52079
1.51492
1.5177
1.52848
1.5455
1.55492
1.55516
1.55499
1.55464
1.55139
1.54156
1.5323
1.52883
1.52665
1.52628
1.5302
1.537
1.53887
1.54021
1.54188
1.54115
1.53531
1.5274
1.52707
1.53046
1.53431
1.53605
1.53649
1.53681
1.5379
1.53805
1.53717
1.53724
1.53836
1.54118
1.5445
1.54535
1.54359
1.54258
1.54474
1.54834
1.55104
1.5528
1.55469
1.55675
1.55876
1.56086
1.56287
1.56388
1.56381
1.56331
1.56382
1.56718
1.57319
1.57982
1.58621
1.59185
1.59589
1.88333
1.86576
1.84393
1.82564
1.81377
1.80284
1.7943
1.79058
1.78494
1.77553
1.76484
1.75099
1.73099
1.71054
1.70201
1.69821
1.69448
1.68711
1.68025
1.67378
1.66515
1.65366
1.63628
1.61282
1.59457
1.58387
1.57613
1.57005
1.56651
1.56485
1.56093
1.55679
1.55214
1.54523
1.53133
1.50942
1.49585
1.4912
1.48815
1.48584
1.48571
1.48645
1.48298
1.47787
1.47195
1.46226
1.44363
1.42469
1.41806
1.41531
1.41342
1.41325
1.41608
1.41561
1.41341
1.41058
1.40561
1.39366
1.37802
1.37187
1.36822
1.36466
1.36284
1.3633
1.36527
1.36848
1.37954
1.40255
1.4313
1.46046
1.48718
1.49919
1.49873
1.50419
1.51799
1.53253
1.54058
1.542
1.54187
1.54128
1.53749
1.52897
1.52355
1.52108
1.51993
1.5214
1.52697
1.52876
1.52758
1.52701
1.52574
1.5213
1.51276
1.50938
1.51076
1.51473
1.5186
1.52087
1.52203
1.52312
1.52481
1.52563
1.52499
1.52477
1.52546
1.52742
1.52819
1.5266
1.52296
1.52293
1.52588
1.5293
1.53168
1.53355
1.53517
1.53671
1.53815
1.53941
1.53994
1.53956
1.53838
1.53818
1.53966
1.54357
1.54836
1.55316
1.55788
1.56227
1.56599
1.8763
1.85777
1.83915
1.82524
1.81481
1.80353
1.79525
1.79078
1.78326
1.77244
1.75918
1.74282
1.72693
1.71413
1.70587
1.70222
1.69817
1.69044
1.68255
1.6752
1.66568
1.65329
1.6359
1.61557
1.60207
1.59114
1.58188
1.57503
1.5708
1.56756
1.56257
1.55731
1.55131
1.54212
1.52528
1.50599
1.49762
1.49405
1.4913
1.4895
1.48923
1.48759
1.48336
1.47804
1.4707
1.45741
1.43745
1.42506
1.42092
1.41793
1.4159
1.4159
1.41744
1.41638
1.41425
1.4109
1.40328
1.38751
1.37738
1.37539
1.37302
1.36942
1.3666
1.36501
1.36355
1.3624
1.36089
1.36035
1.36498
1.38375
1.41571
1.45445
1.47846
1.489
1.50359
1.51582
1.52437
1.52848
1.52864
1.52781
1.52388
1.51831
1.51554
1.51407
1.51441
1.51828
1.5212
1.5192
1.51609
1.51342
1.50906
1.50091
1.49498
1.49457
1.49629
1.50001
1.50366
1.50669
1.50984
1.51292
1.51524
1.51648
1.51635
1.51596
1.51547
1.51427
1.51143
1.50724
1.50526
1.50621
1.50944
1.51271
1.51521
1.51699
1.51806
1.51913
1.51985
1.51985
1.51889
1.51724
1.51662
1.51726
1.51975
1.52336
1.52697
1.53046
1.53411
1.53792
1.54177
1.86789
1.85082
1.83675
1.82591
1.81625
1.80435
1.79659
1.79038
1.78062
1.76845
1.7521
1.73537
1.72552
1.71761
1.70973
1.70542
1.70048
1.69238
1.68359
1.6756
1.66578
1.65332
1.63758
1.62016
1.60851
1.59787
1.5875
1.58013
1.57544
1.57089
1.56536
1.55912
1.55149
1.53931
1.51972
1.50523
1.50098
1.4978
1.49523
1.49411
1.49241
1.4887
1.48419
1.47811
1.46814
1.45071
1.43465
1.42842
1.42468
1.4213
1.41917
1.41884
1.4181
1.41656
1.414
1.40888
1.39741
1.38339
1.37979
1.37848
1.37647
1.37426
1.37238
1.37028
1.36688
1.36212
1.35684
1.34945
1.33873
1.33955
1.35389
1.38594
1.43075
1.46475
1.48185
1.49525
1.50554
1.51331
1.51441
1.51309
1.50977
1.50799
1.50706
1.50685
1.50929
1.51366
1.51318
1.50891
1.5046
1.4997
1.49176
1.48347
1.48143
1.48166
1.48348
1.48706
1.491
1.49614
1.5023
1.50607
1.50736
1.508
1.50767
1.50566
1.50243
1.49846
1.49421
1.49139
1.49115
1.49238
1.49516
1.49807
1.50046
1.50159
1.50222
1.50252
1.50234
1.50126
1.49962
1.49877
1.49903
1.50055
1.50306
1.50583
1.50866
1.51158
1.51473
1.51822
1.52202
1.85913
1.84614
1.83602
1.82711
1.8174
1.80545
1.79723
1.78813
1.77629
1.76241
1.74387
1.7318
1.72628
1.71996
1.71284
1.7073
1.7012
1.69264
1.68335
1.67495
1.66552
1.65417
1.64049
1.62522
1.61374
1.60296
1.59224
1.58473
1.5796
1.57425
1.56848
1.56191
1.553
1.53799
1.51673
1.50672
1.50401
1.50093
1.49878
1.49796
1.49491
1.49077
1.48592
1.47839
1.46421
1.4452
1.4358
1.43198
1.42795
1.4247
1.42294
1.42117
1.41938
1.41728
1.41327
1.40395
1.38889
1.38201
1.3814
1.38002
1.3782
1.37722
1.37655
1.3748
1.37144
1.36562
1.35632
1.34322
1.33114
1.32849
1.32914
1.33778
1.36242
1.40268
1.43951
1.46234
1.48075
1.494
1.49824
1.49652
1.49482
1.49675
1.49816
1.49982
1.50452
1.50651
1.50414
1.49905
1.49311
1.48529
1.47482
1.47076
1.47041
1.4707
1.47261
1.47677
1.48383
1.49164
1.49614
1.49771
1.49813
1.49694
1.49387
1.49077
1.48805
1.48471
1.48067
1.47927
1.47957
1.48055
1.4822
1.48413
1.48568
1.4864
1.48654
1.48638
1.48576
1.48481
1.48432
1.48453
1.48564
1.48708
1.48857
1.49043
1.49278
1.49546
1.49837
1.50151
1.50489
1.85199
1.84343
1.83573
1.82811
1.81791
1.8061
1.79549
1.78271
1.76941
1.7544
1.73782
1.73177
1.7276
1.72125
1.71465
1.7084
1.70064
1.69106
1.68137
1.67311
1.66504
1.65543
1.64345
1.62945
1.61758
1.60637
1.59569
1.58838
1.58285
1.577
1.57127
1.56479
1.55508
1.53812
1.51712
1.50945
1.5066
1.50317
1.50115
1.50015
1.49694
1.49267
1.4872
1.47756
1.45976
1.44416
1.43912
1.43544
1.43097
1.42753
1.42534
1.42307
1.42089
1.41789
1.41106
1.39649
1.38465
1.38316
1.38297
1.38123
1.37929
1.37903
1.379
1.37776
1.37469
1.36874
1.35771
1.34063
1.33029
1.3251
1.32294
1.32327
1.32671
1.33992
1.36929
1.40389
1.43307
1.45851
1.47495
1.47683
1.47759
1.4839
1.4898
1.49445
1.49838
1.49816
1.49504
1.48936
1.48112
1.46988
1.46257
1.46113
1.46095
1.46137
1.46478
1.4726
1.4814
1.48549
1.48613
1.48593
1.48399
1.48073
1.47831
1.47684
1.4755
1.47347
1.47033
1.46903
1.4691
1.46926
1.46966
1.47029
1.47088
1.47134
1.47173
1.47194
1.47202
1.47231
1.47311
1.47379
1.47392
1.47405
1.47476
1.47636
1.47848
1.48085
1.48341
1.48608
1.48887
1.84714
1.8412
1.83504
1.82775
1.81701
1.80396
1.78926
1.77411
1.76108
1.74669
1.73625
1.73312
1.72884
1.72203
1.71497
1.70827
1.69893
1.68659
1.67722
1.67097
1.66481
1.6569
1.64614
1.63269
1.62019
1.60844
1.5982
1.59152
1.58541
1.5787
1.57291
1.56665
1.55699
1.53968
1.52011
1.51307
1.50933
1.50507
1.50262
1.50144
1.49818
1.49374
1.48747
1.47572
1.45719
1.44663
1.44271
1.43906
1.43417
1.42989
1.42683
1.42439
1.42199
1.41785
1.4068
1.39011
1.38491
1.38445
1.38434
1.38242
1.38064
1.38048
1.38018
1.37887
1.37597
1.36942
1.35533
1.33864
1.33176
1.32786
1.32363
1.31916
1.31872
1.31959
1.32481
1.34083
1.3656
1.39472
1.42859
1.45086
1.45807
1.46775
1.47987
1.48793
1.48969
1.4887
1.48527
1.47848
1.46758
1.4571
1.45352
1.4528
1.45279
1.45538
1.46277
1.47102
1.47382
1.47382
1.47264
1.4697
1.46642
1.4652
1.46499
1.46482
1.46453
1.46375
1.46148
1.45899
1.45806
1.45746
1.45705
1.45698
1.45715
1.45788
1.4595
1.46077
1.46179
1.46303
1.46346
1.46237
1.46036
1.46023
1.46123
1.4629
1.46463
1.46655
1.46882
1.47133
1.47368
1.84365
1.83866
1.83289
1.82495
1.81275
1.79635
1.77862
1.76483
1.75413
1.74318
1.73773
1.73497
1.73002
1.72291
1.7143
1.70547
1.69447
1.67995
1.67229
1.66906
1.66431
1.65766
1.64805
1.63507
1.62221
1.60986
1.59975
1.59355
1.5874
1.58004
1.57382
1.56755
1.55825
1.54181
1.52456
1.51757
1.51224
1.50653
1.50363
1.50226
1.49878
1.4938
1.48682
1.47446
1.45805
1.44989
1.44581
1.44211
1.43732
1.43238
1.42849
1.42514
1.42181
1.41541
1.401
1.38858
1.38682
1.38639
1.38615
1.38414
1.38248
1.38178
1.38091
1.37927
1.37552
1.36638
1.35021
1.33964
1.33577
1.33265
1.32763
1.32133
1.31621
1.3135
1.3123
1.31352
1.31825
1.33218
1.36023
1.40227
1.43117
1.44571
1.46343
1.47704
1.47803
1.47726
1.4736
1.46593
1.45468
1.44755
1.44572
1.44544
1.44738
1.45415
1.46145
1.46253
1.46171
1.45945
1.45542
1.45196
1.45135
1.45181
1.45328
1.45454
1.45487
1.45428
1.45109
1.44795
1.44681
1.44592
1.4451
1.44474
1.44534
1.44778
1.45059
1.45189
1.45275
1.45267
1.45013
1.4466
1.44586
1.44651
1.44809
1.44978
1.45138
1.45299
1.45508
1.45761
1.45949
1.84006
1.83501
1.82843
1.81847
1.80272
1.78341
1.76723
1.75798
1.7501
1.7434
1.7404
1.73689
1.73084
1.72336
1.71242
1.69907
1.68598
1.67263
1.66886
1.66744
1.66293
1.65706
1.64917
1.63684
1.62293
1.61103
1.60163
1.59505
1.58882
1.58153
1.5746
1.56795
1.55908
1.54388
1.52839
1.52136
1.51552
1.50859
1.50467
1.50251
1.4987
1.49306
1.48553
1.47413
1.46079
1.4531
1.44872
1.44477
1.44005
1.43464
1.43017
1.42582
1.42026
1.41018
1.396
1.39023
1.38913
1.38879
1.38832
1.38616
1.38432
1.38289
1.38137
1.37871
1.37252
1.35929
1.34605
1.34158
1.33867
1.33607
1.33179
1.32522
1.31837
1.31259
1.30765
1.30441
1.30198
1.30363
1.31324
1.33841
1.38099
1.41263
1.43768
1.45928
1.46341
1.46305
1.45961
1.45199
1.44431
1.44054
1.43915
1.44044
1.44652
1.45309
1.45345
1.45106
1.44741
1.44229
1.43832
1.43755
1.43822
1.44045
1.44319
1.44495
1.44523
1.44307
1.43846
1.4366
1.43594
1.43502
1.43418
1.4346
1.43734
1.44087
1.44177
1.44186
1.44097
1.43713
1.43255
1.43144
1.43207
1.43376
1.43546
1.43728
1.43989
1.44146
1.4432
1.44497
1.44518
1.83529
1.82949
1.82111
1.80747
1.78783
1.76917
1.75912
1.75428
1.74883
1.74502
1.74322
1.73863
1.73109
1.72226
1.70779
1.69011
1.67648
1.66687
1.66596
1.66548
1.66088
1.65478
1.64841
1.63812
1.62296
1.61069
1.60293
1.59584
1.58958
1.58317
1.57585
1.56803
1.55909
1.54585
1.53163
1.52395
1.51768
1.51072
1.50597
1.50299
1.49869
1.49232
1.48415
1.47408
1.46318
1.45566
1.45111
1.44696
1.44206
1.43663
1.43161
1.42615
1.41693
1.40462
1.39557
1.39285
1.39162
1.39121
1.39016
1.38773
1.38578
1.38412
1.38186
1.3772
1.36738
1.35312
1.34586
1.34319
1.3405
1.33816
1.33461
1.3287
1.32193
1.31492
1.30674
1.29815
1.29604
1.29656
1.29879
1.30543
1.3245
1.35983
1.39123
1.42028
1.44232
1.44449
1.44126
1.43535
1.43496
1.4343
1.43459
1.43993
1.4463
1.44659
1.44312
1.43766
1.431
1.4264
1.42548
1.42591
1.42759
1.43052
1.43337
1.43476
1.43374
1.42884
1.42593
1.42583
1.42561
1.4249
1.4251
1.42776
1.43169
1.43243
1.43149
1.42899
1.42432
1.41883
1.41721
1.41769
1.41948
1.42163
1.42387
1.42733
1.43001
1.43101
1.43166
1.43097
1.42825
1.82858
1.82152
1.8102
1.79216
1.77235
1.75979
1.75575
1.7526
1.74902
1.74705
1.7452
1.73949
1.73052
1.71784
1.69858
1.68073
1.66939
1.66382
1.66354
1.66272
1.6583
1.65223
1.64646
1.63758
1.62175
1.6089
1.60292
1.59642
1.5895
1.58346
1.57649
1.56839
1.55979
1.54802
1.53422
1.52554
1.5189
1.51217
1.50698
1.50341
1.499
1.49215
1.48319
1.4737
1.46455
1.45754
1.45295
1.44856
1.44336
1.43795
1.43247
1.42493
1.41217
1.40225
1.39799
1.3955
1.39401
1.39318
1.39145
1.38891
1.38682
1.38477
1.38131
1.37351
1.3618
1.35135
1.34727
1.34483
1.34226
1.34016
1.33639
1.33077
1.32458
1.31716
1.30496
1.29473
1.29342
1.29362
1.29457
1.29836
1.30263
1.31347
1.3334
1.357
1.38638
1.41169
1.41547
1.41663
1.42175
1.42795
1.43412
1.43997
1.44058
1.43783
1.43126
1.42249
1.41647
1.41494
1.41486
1.41622
1.4189
1.42118
1.42308
1.42294
1.41887
1.41464
1.41467
1.41552
1.41572
1.41618
1.41895
1.42299
1.42377
1.42206
1.41812
1.41243
1.40569
1.40347
1.40364
1.40511
1.4076
1.41083
1.41551
1.41898
1.4195
1.41936
1.41698
1.41268
1.41056
1.81985
1.81062
1.79543
1.77575
1.76127
1.75608
1.75423
1.75155
1.74976
1.74889
1.74587
1.73915
1.72762
1.70887
1.6871
1.67361
1.66542
1.66249
1.66227
1.66018
1.65518
1.64918
1.64385
1.63592
1.6195
1.60575
1.60101
1.59565
1.58942
1.58369
1.57635
1.56768
1.55985
1.5508
1.538
1.52646
1.51949
1.51351
1.50798
1.50333
1.49886
1.49208
1.48284
1.47374
1.46579
1.45923
1.45448
1.44965
1.44418
1.43843
1.4319
1.42138
1.4088
1.40366
1.40081
1.3981
1.39651
1.39492
1.39261
1.39
1.38765
1.38487
1.37897
1.36794
1.35857
1.35261
1.34931
1.34675
1.3443
1.3419
1.33763
1.33186
1.32487
1.31451
1.30202
1.29774
1.29735
1.29603
1.2951
1.2958
1.2975
1.29743
1.29934
1.30447
1.31799
1.34626
1.37807
1.39243
1.40369
1.41925
1.42958
1.43126
1.43024
1.42639
1.41834
1.40908
1.40583
1.40509
1.40556
1.40855
1.41067
1.41188
1.41179
1.40831
1.40317
1.40268
1.40416
1.40576
1.40711
1.41037
1.41454
1.41545
1.41352
1.40869
1.40185
1.3935
1.39054
1.39042
1.39122
1.39345
1.39769
1.40392
1.40824
1.40873
1.40813
1.40443
1.39827
1.39505
1.39502
1.80949
1.79703
1.77857
1.76309
1.75648
1.75458
1.75297
1.75075
1.75057
1.74989
1.74521
1.73662
1.71995
1.69532
1.6784
1.66983
1.66345
1.66149
1.66098
1.65798
1.65299
1.64687
1.64059
1.63188
1.61488
1.60314
1.59864
1.59345
1.587
1.58225
1.57617
1.56782
1.55953
1.55217
1.54214
1.52872
1.51972
1.51442
1.50904
1.50357
1.49837
1.49125
1.4819
1.47383
1.46724
1.46116
1.45603
1.45079
1.44484
1.43808
1.42858
1.41631
1.40919
1.40626
1.40315
1.40055
1.39887
1.39682
1.39413
1.39112
1.38801
1.38359
1.37399
1.36334
1.35846
1.35464
1.35146
1.34886
1.34646
1.34335
1.33877
1.33216
1.32135
1.30763
1.30198
1.30205
1.30222
1.30099
1.29849
1.29679
1.29522
1.29239
1.28718
1.28238
1.28377
1.29388
1.32226
1.35607
1.37777
1.40014
1.41695
1.41821
1.41734
1.41342
1.40524
1.39908
1.39698
1.39678
1.39947
1.40154
1.40167
1.40142
1.39811
1.39214
1.39057
1.39191
1.39463
1.39731
1.40147
1.40605
1.40715
1.40542
1.40047
1.39291
1.38283
1.37847
1.37806
1.37829
1.37982
1.38474
1.39245
1.3977
1.39838
1.39772
1.39348
1.38569
1.38104
1.38047
1.38084
1.79707
1.78107
1.76362
1.7568
1.75439
1.75317
1.75093
1.75008
1.75058
1.7488
1.74214
1.73006
1.70611
1.68335
1.67507
1.66818
1.66264
1.66101
1.65982
1.65612
1.65084
1.64445
1.63705
1.62619
1.60894
1.59873
1.59532
1.5912
1.58487
1.57963
1.57454
1.56802
1.56059
1.55363
1.54481
1.53095
1.51988
1.51473
1.50924
1.50337
1.4973
1.48986
1.4811
1.47431
1.46887
1.4633
1.45798
1.45243
1.44558
1.43595
1.42259
1.41383
1.41114
1.40837
1.40498
1.40263
1.40097
1.3989
1.39607
1.39254
1.38804
1.38008
1.36802
1.36204
1.35961
1.35642
1.35343
1.35096
1.34836
1.3446
1.33918
1.32965
1.31418
1.30491
1.30454
1.30498
1.30552
1.30453
1.30201
1.2991
1.2958
1.28994
1.27951
1.27347
1.27374
1.27533
1.28327
1.30808
1.3387
1.36549
1.39514
1.40313
1.40257
1.39759
1.39221
1.38999
1.3893
1.39197
1.39453
1.39371
1.39221
1.38832
1.38185
1.37929
1.37986
1.38242
1.38647
1.39215
1.39737
1.3986
1.39716
1.39281
1.3852
1.37394
1.36751
1.36641
1.36635
1.36734
1.37241
1.38123
1.38721
1.388
1.38752
1.38349
1.37483
1.36861
1.36754
1.36756
1.36798
1.78331
1.76451
1.75424
1.75339
1.7524
1.75129
1.74865
1.74882
1.74898
1.74514
1.73563
1.71724
1.69074
1.67859
1.67502
1.66793
1.66267
1.66073
1.65839
1.65427
1.6486
1.64115
1.63183
1.61767
1.60315
1.59533
1.59143
1.58745
1.582
1.5777
1.57367
1.56852
1.562
1.55524
1.54674
1.53244
1.51959
1.51385
1.50821
1.50173
1.4951
1.48843
1.48131
1.4758
1.47104
1.46573
1.46032
1.45429
1.44538
1.4305
1.41852
1.4151
1.41278
1.40958
1.40639
1.40433
1.4028
1.40086
1.39793
1.39353
1.38631
1.37389
1.36495
1.36292
1.36102
1.3581
1.35538
1.35293
1.34982
1.34534
1.33783
1.32355
1.3088
1.30642
1.3065
1.30736
1.30762
1.30668
1.30447
1.30093
1.29597
1.28702
1.27365
1.26778
1.26743
1.26846
1.27207
1.27856
1.29524
1.31643
1.34137
1.36933
1.378
1.37634
1.3767
1.37882
1.38323
1.38789
1.38738
1.3847
1.38021
1.37305
1.36894
1.36908
1.37059
1.37457
1.38194
1.38834
1.3897
1.38862
1.38504
1.37778
1.36608
1.35779
1.35582
1.35534
1.35602
1.3609
1.37036
1.37678
1.37749
1.37707
1.37354
1.36493
1.35723
1.35583
1.35583
1.35594
1.35666
1.76942
1.75235
1.74968
1.74983
1.74956
1.74851
1.74605
1.74632
1.74513
1.73846
1.7243
1.70005
1.68115
1.67811
1.6758
1.66846
1.66303
1.66054
1.65722
1.65264
1.64626
1.63661
1.62351
1.60753
1.59693
1.59185
1.58821
1.58434
1.57989
1.57627
1.57322
1.56919
1.56342
1.55648
1.54802
1.53341
1.51826
1.51127
1.50582
1.4989
1.49285
1.48812
1.48297
1.47821
1.47373
1.46872
1.46328
1.45583
1.44105
1.42464
1.41923
1.41727
1.41416
1.41046
1.40777
1.40604
1.4046
1.40271
1.39944
1.39341
1.38132
1.36815
1.36493
1.36402
1.36222
1.35982
1.35736
1.35457
1.35071
1.34448
1.33328
1.31766
1.3091
1.30833
1.30835
1.30943
1.30932
1.30798
1.30561
1.30166
1.29438
1.28305
1.27244
1.26781
1.26664
1.26668
1.26786
1.27068
1.27134
1.27481
1.28416
1.30433
1.33261
1.34937
1.35706
1.36624
1.37545
1.37803
1.37687
1.37292
1.3665
1.36037
1.35977
1.36083
1.36391
1.37105
1.3783
1.38011
1.37968
1.3771
1.37028
1.35854
1.3489
1.34619
1.34542
1.34587
1.35024
1.35981
1.36651
1.36703
1.36646
1.36328
1.35536
1.34662
1.34473
1.34483
1.34511
1.34581
1.34934
1.757
1.74606
1.74634
1.74629
1.74603
1.74463
1.74259
1.742
1.73884
1.72858
1.70805
1.68523
1.67944
1.6781
1.67631
1.6696
1.66302
1.6595
1.65586
1.65042
1.64233
1.62952
1.61231
1.59892
1.5923
1.58838
1.58504
1.58158
1.57829
1.57573
1.57314
1.56946
1.56408
1.55706
1.54781
1.53163
1.51537
1.50765
1.50215
1.49642
1.49257
1.4896
1.48574
1.48147
1.477
1.47217
1.46591
1.4528
1.43275
1.42335
1.42074
1.41956
1.4156
1.41132
1.40899
1.4076
1.4062
1.40421
1.40013
1.39019
1.37391
1.36664
1.36587
1.36507
1.36338
1.36144
1.3591
1.35586
1.3506
1.34078
1.327
1.31608
1.31162
1.31052
1.31051
1.31145
1.31091
1.30888
1.30558
1.29985
1.28957
1.27867
1.27356
1.27057
1.26873
1.26797
1.26756
1.26635
1.26349
1.25803
1.25746
1.26226
1.27945
1.30938
1.33018
1.34748
1.36208
1.36481
1.36398
1.35965
1.35287
1.35066
1.35177
1.35572
1.36269
1.36773
1.36916
1.36977
1.36861
1.36305
1.35136
1.34038
1.337
1.33629
1.33669
1.3405
1.34967
1.35655
1.3569
1.3559
1.35289
1.34578
1.33644
1.33386
1.33406
1.33471
1.3358
1.33945
1.34691
1.74681
1.74312
1.74375
1.7431
1.74184
1.73979
1.7376
1.73589
1.73011
1.71459
1.69116
1.6803
1.67946
1.67879
1.67634
1.67013
1.66272
1.65776
1.65379
1.64755
1.63659
1.6191
1.60148
1.59332
1.58908
1.58539
1.58247
1.57994
1.57738
1.57511
1.57284
1.56949
1.56441
1.55729
1.54491
1.5251
1.51075
1.50415
1.49952
1.49638
1.49421
1.49234
1.48893
1.48486
1.48035
1.47506
1.46488
1.44396
1.42835
1.42404
1.42162
1.42129
1.4175
1.41255
1.41023
1.40896
1.40761
1.4054
1.39871
1.38189
1.36903
1.36743
1.36701
1.36605
1.3645
1.36277
1.36039
1.3564
1.34845
1.33481
1.32359
1.31779
1.31452
1.31314
1.31323
1.31353
1.31223
1.30922
1.30423
1.29504
1.28369
1.27751
1.27505
1.27299
1.27152
1.27046
1.26885
1.2655
1.25746
1.2493
1.2483
1.2489
1.25338
1.26802
1.2941
1.3161
1.33756
1.34868
1.34875
1.3441
1.33926
1.34057
1.34552
1.35438
1.35997
1.35958
1.35906
1.35845
1.35515
1.34521
1.33278
1.32823
1.32745
1.32785
1.33143
1.34011
1.34714
1.34745
1.34586
1.34276
1.33636
1.32669
1.3232
1.3233
1.32417
1.32579
1.32993
1.33753
1.34317
1.74014
1.74047
1.74073
1.73876
1.73641
1.73405
1.73152
1.72822
1.71737
1.69778
1.68084
1.6798
1.67973
1.67942
1.67571
1.66979
1.66272
1.65648
1.65116
1.64151
1.6254
1.60774
1.59491
1.59032
1.58728
1.58372
1.58107
1.57913
1.57695
1.57438
1.5722
1.56919
1.56413
1.55423
1.53484
1.51631
1.50718
1.50257
1.49994
1.49798
1.49698
1.4955
1.49188
1.48773
1.483
1.47556
1.4574
1.43622
1.42904
1.42542
1.42298
1.4231
1.41943
1.41406
1.41154
1.41007
1.40857
1.40478
1.39092
1.37303
1.3689
1.36846
1.36815
1.36699
1.36553
1.36388
1.36128
1.35585
1.34374
1.33002
1.32404
1.32014
1.31736
1.3161
1.31607
1.31545
1.31312
1.30886
1.30095
1.2885
1.28044
1.27801
1.27611
1.27443
1.27352
1.27243
1.26993
1.26418
1.25234
1.24292
1.24242
1.24273
1.24537
1.2505
1.26111
1.27707
1.29363
1.31263
1.32588
1.32517
1.32442
1.32847
1.33965
1.34983
1.35089
1.34975
1.34819
1.34573
1.33928
1.32717
1.32067
1.3192
1.31918
1.32237
1.33093
1.33839
1.33894
1.33689
1.3333
1.32739
1.31764
1.31298
1.3128
1.31348
1.31533
1.32002
1.32815
1.33424
1.33468
1.73746
1.73815
1.73685
1.73315
1.73008
1.72774
1.72444
1.71644
1.70008
1.68496
1.67847
1.67891
1.67977
1.67861
1.67407
1.66862
1.66274
1.65568
1.64539
1.62853
1.61158
1.59936
1.59228
1.58893
1.58646
1.58331
1.58045
1.57857
1.57646
1.57354
1.57105
1.56784
1.56032
1.54231
1.52118
1.51089
1.50625
1.50355
1.50207
1.50082
1.50031
1.4976
1.49366
1.48962
1.48418
1.47068
1.44734
1.43478
1.43102
1.42722
1.4254
1.42559
1.42131
1.41578
1.41289
1.41095
1.40805
1.39822
1.37919
1.37042
1.36956
1.36937
1.3689
1.36769
1.36644
1.36479
1.36163
1.35352
1.33808
1.3289
1.32578
1.3224
1.32005
1.31911
1.31862
1.31697
1.31368
1.30749
1.29576
1.28356
1.28008
1.27849
1.27675
1.27546
1.27465
1.27341
1.26959
1.26127
1.25064
1.24195
1.24118
1.2414
1.24217
1.24516
1.24771
1.24936
1.25404
1.26483
1.28362
1.30125
1.30769
1.31568
1.33003
1.33878
1.33935
1.33863
1.33636
1.33209
1.32294
1.31452
1.31201
1.3115
1.31376
1.32187
1.32977
1.33092
1.32926
1.32537
1.31936
1.30966
1.30354
1.30285
1.30317
1.30467
1.30948
1.31819
1.32515
1.32601
1.32505
1.73498
1.73471
1.73148
1.72704
1.72383
1.72122
1.7147
1.69895
1.68517
1.67961
1.67712
1.67778
1.67856
1.67638
1.67175
1.66689
1.66177
1.6521
1.63239
1.61386
1.60346
1.59658
1.5914
1.58819
1.58599
1.58337
1.58047
1.57802
1.57574
1.57285
1.5694
1.56341
1.5479
1.52515
1.51289
1.51003
1.50751
1.50612
1.50508
1.50429
1.5025
1.49861
1.4946
1.49022
1.48131
1.46017
1.44151
1.43661
1.43296
1.42939
1.42911
1.4286
1.4228
1.41748
1.41422
1.41083
1.40283
1.38652
1.37308
1.37086
1.37024
1.36993
1.36912
1.36796
1.36692
1.36522
1.36095
1.34918
1.3342
1.32982
1.32773
1.32465
1.32265
1.32185
1.32072
1.31816
1.31353
1.30449
1.29009
1.28197
1.28036
1.27903
1.27738
1.27627
1.2752
1.27308
1.26703
1.25756
1.25028
1.24426
1.24204
1.24213
1.24226
1.24229
1.24192
1.23955
1.23481
1.23645
1.24535
1.26482
1.28547
1.29991
1.31486
1.32436
1.32689
1.32663
1.32396
1.31737
1.30927
1.3057
1.30504
1.30655
1.31348
1.32116
1.3226
1.32168
1.31877
1.31301
1.30325
1.29511
1.29362
1.29368
1.29451
1.29873
1.30762
1.31553
1.31694
1.31657
1.31445
1.73221
1.7297
1.72551
1.7214
1.71846
1.71397
1.6997
1.68223
1.67813
1.67642
1.67507
1.67599
1.67589
1.6734
1.66933
1.66504
1.65828
1.64098
1.61676
1.60508
1.60051
1.59533
1.59062
1.58812
1.58629
1.58373
1.58073
1.57774
1.57491
1.57162
1.56513
1.55064
1.52929
1.51429
1.51199
1.51103
1.50977
1.50886
1.50792
1.50676
1.50347
1.49915
1.49495
1.48876
1.47234
1.45053
1.44231
1.43898
1.43486
1.43296
1.43338
1.43019
1.42364
1.41878
1.41465
1.40704
1.39252
1.37792
1.37283
1.37145
1.37095
1.36997
1.36891
1.36793
1.367
1.36506
1.3587
1.34351
1.3328
1.33101
1.32961
1.32703
1.3253
1.32432
1.32252
1.31893
1.3123
1.29986
1.28648
1.2822
1.28102
1.27969
1.27812
1.27677
1.27514
1.27117
1.26319
1.2553
1.2504
1.24583
1.24402
1.24414
1.24383
1.24218
1.23897
1.23379
1.22614
1.22429
1.22598
1.23381
1.25219
1.27528
1.29182
1.30567
1.31206
1.31297
1.31015
1.30269
1.29897
1.29894
1.30017
1.30628
1.31359
1.31432
1.31317
1.31154
1.30752
1.29885
1.28843
1.28522
1.28503
1.2853
1.28847
1.29682
1.30547
1.30753
1.30748
1.30667
1.30217
1.72814
1.72429
1.72016
1.71689
1.71368
1.70356
1.68269
1.67351
1.67359
1.67228
1.67209
1.67304
1.67251
1.67047
1.66712
1.66192
1.64828
1.62352
1.60664
1.60243
1.59931
1.5948
1.59066
1.58865
1.58702
1.58443
1.58121
1.57781
1.57376
1.56666
1.55229
1.53151
1.5158
1.51293
1.51276
1.5126
1.51194
1.51107
1.51007
1.50769
1.5036
1.49906
1.49376
1.48165
1.46117
1.44849
1.44527
1.44163
1.43794
1.43759
1.4362
1.42979
1.42405
1.41936
1.41242
1.39769
1.38328
1.3765
1.37344
1.37208
1.37132
1.36988
1.36871
1.36767
1.36656
1.36373
1.35404
1.33808
1.33282
1.33216
1.33147
1.32957
1.32796
1.3265
1.32393
1.31888
1.30937
1.29499
1.2857
1.28309
1.28198
1.28052
1.27884
1.27707
1.27426
1.26808
1.25962
1.25398
1.2501
1.2462
1.24567
1.24584
1.24527
1.24295
1.23777
1.2291
1.22052
1.21777
1.21837
1.2207
1.22738
1.24191
1.25894
1.27297
1.28563
1.29388
1.29336
1.28964
1.28962
1.29249
1.29872
1.30629
1.3076
1.30575
1.30358
1.30088
1.29491
1.28415
1.27807
1.27717
1.27708
1.27905
1.28638
1.29527
1.29799
1.29817
1.29803
1.29532
1.28686
1.72336
1.71973
1.71657
1.71406
1.70798
1.68971
1.67038
1.66876
1.66847
1.66766
1.66883
1.66984
1.66936
1.66788
1.66429
1.65356
1.63037
1.60966
1.60388
1.60137
1.59853
1.59458
1.59111
1.58951
1.58789
1.58535
1.582
1.57752
1.56899
1.55294
1.533
1.51861
1.51411
1.51385
1.51403
1.5143
1.51369
1.51256
1.51088
1.50764
1.50315
1.4976
1.48709
1.46957
1.45494
1.45138
1.44879
1.44489
1.44276
1.44128
1.43555
1.42926
1.42435
1.41821
1.40473
1.38754
1.38052
1.37714
1.37399
1.37265
1.37154
1.37001
1.3687
1.36735
1.36538
1.36005
1.34708
1.33471
1.33332
1.33332
1.33318
1.33198
1.33043
1.32837
1.32481
1.31744
1.30495
1.29207
1.28634
1.28439
1.28323
1.28154
1.27952
1.27703
1.27248
1.26447
1.25726
1.25281
1.24904
1.24642
1.24653
1.24666
1.24599
1.24342
1.237
1.22581
1.21826
1.21566
1.21521
1.21616
1.21957
1.22285
1.22833
1.23673
1.24772
1.26179
1.27365
1.27614
1.2788
1.28542
1.2949
1.29915
1.29865
1.29672
1.29388
1.28954
1.28123
1.27259
1.27012
1.26968
1.27057
1.27632
1.28517
1.28852
1.28882
1.28899
1.28751
1.28115
1.27215
1.71888
1.71687
1.71558
1.71244
1.69883
1.67531
1.66498
1.66365
1.66286
1.66354
1.66653
1.66725
1.6669
1.66512
1.65768
1.6364
1.61282
1.60497
1.60218
1.60049
1.59836
1.59498
1.59212
1.59055
1.58887
1.58627
1.58215
1.57336
1.55537
1.53374
1.52053
1.51656
1.51477
1.51487
1.51569
1.51593
1.51515
1.51344
1.5109
1.5071
1.50139
1.49045
1.47362
1.46025
1.45688
1.45502
1.45226
1.44918
1.44697
1.4413
1.43443
1.42927
1.42384
1.41245
1.39411
1.38333
1.3809
1.37772
1.37448
1.37306
1.37185
1.37034
1.36874
1.36691
1.36257
1.35274
1.34092
1.334
1.33386
1.33443
1.33457
1.33382
1.33226
1.32954
1.32425
1.31386
1.30073
1.29147
1.28741
1.28592
1.28462
1.28263
1.28007
1.27638
1.26989
1.26133
1.25582
1.25198
1.24789
1.24658
1.24693
1.2469
1.24581
1.24246
1.23464
1.22335
1.21839
1.21707
1.21577
1.21531
1.21585
1.21667
1.21533
1.21501