/*--------------------------------*- C++ -*----------------------------------*\
  =========                 |
  \\      /  F ield         | OpenFOAM: The Open Source CFD Toolbox
   \\    /   O peration     | Website:  https://openfoam.org
    \\  /    A nd           | Version:  7
     \\/     M anipulation  |
\*---------------------------------------------------------------------------*/
FoamFile
{
    version     2.0;
    format      ascii;
    class       volScalarField;
    location    "2.3";
    object      p;
}
// * * * * * * * * * * * * * * * * * * * * * * * * * * * * * * * * * * * * * //

dimensions      [1 -1 -2 0 0 0 0];

internalField   nonuniform List<scalar> 
16192
(
6.18202
6.13553
6.04873
5.89709
5.78851
5.75843
5.76549
5.83637
5.88358
5.86049
5.807
5.70851
5.58275
5.51102
5.48067
5.46748
5.48441
5.53063
5.54003
5.51563
5.47385
5.4035
5.30938
5.24316
5.21823
5.20606
5.20333
5.19536
5.17762
5.15901
5.13913
5.11844
5.09703
5.07377
5.04345
4.99436
4.93553
4.89391
4.87797
4.87396
4.88675
4.88286
4.86073
4.82533
4.76658
4.69335
4.6444
4.62674
4.61933
4.62432
4.61187
4.58811
4.54929
4.4936
4.4568
4.44049
4.43219
4.44216
4.44525
4.42772
4.39801
4.33928
4.26075
4.21267
4.19647
4.18942
4.20854
4.23979
4.23397
4.21405
4.17715
4.11896
4.06812
4.04868
4.03793
4.03911
4.04208
4.02815
4.00756
3.96868
3.90592
3.85012
3.82948
3.81876
3.81628
3.8333
3.83882
3.82391
3.79939
3.75733
3.69583
3.6473
3.63298
3.62871
3.64453
3.68615
3.69992
3.68602
3.65352
3.58917
3.49376
3.43134
3.40752
3.39865
3.39668
3.4313
3.51642
3.54598
3.53603
3.51353
3.47326
3.40087
3.34013
3.31081
3.29215
3.27982
3.27776
3.28118
3.27395
3.26385
3.24408
3.20943
3.17057
3.14847
3.14161
3.13907
3.14794
3.1581
3.15154
3.14326
3.13199
3.10297
3.05483
3.01451
2.99441
2.98093
2.97222
2.96705
2.96066
2.95154
2.94089
2.92929
2.91714
2.90369
2.89005
2.88178
2.87833
2.87282
2.86234
2.84699
2.82169
2.78554
2.75953
2.74943
2.74372
2.74087
2.74449
2.74437
2.74288
2.73987
2.73087
2.70866
2.67364
2.64552
2.62696
2.61038
2.59709
2.5886
2.58708
2.5938
2.59127
2.58641
2.5815
2.57272
2.55237
2.52037
2.50068
2.49566
2.49361
2.49667
2.4983
2.4933
2.48573
2.47097
2.44086
2.40955
2.39421
2.38499
2.37854
2.37387
2.37019
2.36863
2.36952
2.37116
2.37138
2.36799
2.3631
2.35655
2.34233
2.31131
2.27598
2.25522
2.24448
2.23544
2.22808
2.22436
2.22488
2.235
2.24977
2.26045
2.26209
2.25686
2.24512
2.22435
2.19697
2.16963
2.14367
2.12291
2.11459
2.11197
2.11051
2.11534
2.13605
2.15402
2.15357
2.1481
2.13714
2.11131
2.07755
2.06499
2.06301
2.06179
2.06116
2.06414
2.07437
2.08407
2.0867
2.08569
2.08139
2.07012
2.05081
2.03607
2.03089
2.02938
2.0306
2.03644
2.04282
2.04507
2.04586
2.04619
2.04526
2.04179
2.03027
6.20182
6.11978
5.96828
5.84776
5.8144
5.82035
5.88932
5.93811
5.91679
5.86825
5.77216
5.63873
5.55848
5.52845
5.51893
5.5429
5.58917
5.59209
5.56572
5.52184
5.44524
5.34849
5.28648
5.26187
5.25002
5.25004
5.24719
5.22996
5.21026
5.189
5.16661
5.14452
5.12053
5.08829
5.0364
4.9771
4.93923
4.92214
4.9144
4.92291
4.92066
4.8987
4.86423
4.80204
4.7319
4.6938
4.67733
4.67022
4.67075
4.65626
4.63544
4.60119
4.54417
4.49671
4.47874
4.47109
4.48184
4.4876
4.46918
4.43338
4.36946
4.28924
4.24517
4.22948
4.22186
4.23816
4.27286
4.27261
4.25218
4.2144
4.15058
4.09532
4.07312
4.0629
4.06454
4.07492
4.06474
4.0453
4.01246
3.95071
3.88592
3.85686
3.84705
3.84551
3.86312
3.87483
3.86166
3.83579
3.78267
3.70212
3.65915
3.64868
3.64755
3.66317
3.71106
3.74025
3.73017
3.70621
3.65961
3.57062
3.48096
3.44144
3.4288
3.42329
3.43613
3.48605
3.51429
3.51263
3.50132
3.47606
3.42078
3.36275
3.34357
3.33765
3.33567
3.33175
3.32083
3.30407
3.28317
3.25635
3.22341
3.18976
3.16587
3.15711
3.15134
3.15119
3.16335
3.16539
3.1577
3.14501
3.12225
3.08262
3.04299
3.02305
3.01366
3.00659
2.99993
2.99011
2.97659
2.96125
2.94657
2.93051
2.90914
2.88933
2.8781
2.87206
2.86879
2.87086
2.869
2.86109
2.84882
2.82801
2.79924
2.77448
2.761
2.75401
2.74657
2.73903
2.73148
2.72078
2.70216
2.67462
2.65774
2.65253
2.64487
2.63661
2.63253
2.62646
2.61561
2.6037
2.5921
2.58225
2.57257
2.55545
2.52661
2.50641
2.50113
2.49837
2.49962
2.50832
2.50876
2.50283
2.49549
2.48173
2.44705
2.40709
2.3907
2.38452
2.37967
2.37496
2.37054
2.36748
2.36691
2.37009
2.37225
2.36862
2.36366
2.35928
2.35308
2.33781
2.30146
2.25805
2.23342
2.22264
2.21646
2.21303
2.21283
2.22658
2.25492
2.27317
2.27513
2.27159
2.26384
2.24524
2.20341
2.15127
2.12413
2.11527
2.11146
2.10894
2.11083
2.12835
2.15681
2.16445
2.16042
2.15406
2.14108
2.1084
2.07084
2.05903
2.05689
2.05562
2.05537
2.05863
2.0651
2.06925
2.07017
2.06916
2.06784
2.06369
2.05273
2.03721
2.02657
2.02263
2.02195
2.02454
2.02716
2.02677
2.02631
2.02655
2.02915
2.03214
2.03027
6.19218
6.04707
5.9204
5.88117
5.88029
5.94122
5.99089
5.97023
5.9209
5.82709
5.69716
5.62416
5.59589
5.58473
5.60873
5.64855
5.6429
5.61509
5.56787
5.49415
5.40027
5.33262
5.30624
5.29471
5.29687
5.29822
5.28103
5.26054
5.23852
5.21364
5.18923
5.16481
5.13521
5.08834
5.02512
4.97863
4.96019
4.95107
4.95776
4.95572
4.93426
4.90389
4.85123
4.78042
4.72869
4.71036
4.7032
4.71196
4.70436
4.68046
4.64283
4.58616
4.54202
4.5243
4.51517
4.52437
4.53264
4.51485
4.48098
4.41744
4.32734
4.26868
4.2481
4.24008
4.25905
4.30133
4.30615
4.28864
4.25704
4.19663
4.13156
4.10043
4.08877
4.08743
4.09984
4.09368
4.07651
4.04979
4.0002
3.9374
3.90179
3.89014
3.88604
3.89852
3.90556
3.89217
3.86871
3.82048
3.74337
3.68511
3.66233
3.65427
3.65834
3.70524
3.7552
3.75771
3.74405
3.71114
3.64057
3.55328
3.50921
3.4918
3.47934
3.48023
3.50691
3.51982
3.50874
3.49255
3.46359
3.41171
3.36427
3.35354
3.35136
3.35891
3.37582
3.37389
3.36076
3.33686
3.2964
3.24404
3.20328
3.18083
3.17302
3.16843
3.16841
3.17409
3.16913
3.15997
3.15001
3.13342
3.10092
3.06347
3.04383
3.03819
3.03524
3.03282
3.02583
3.01476
2.99935
2.97944
2.95617
2.92833
2.9
2.8826
2.87502
2.86876
2.86334
2.86057
2.86197
2.86018
2.85459
2.8484
2.83813
2.82016
2.79356
2.76699
2.75033
2.73863
2.72135
2.69243
2.66297
2.65215
2.64846
2.64988
2.65644
2.66408
2.66819
2.66197
2.6468
2.62411
2.60165
2.5833
2.56086
2.53107
2.51018
2.50395
2.50089
2.49903
2.50324
2.51475
2.51499
2.50898
2.502
2.48937
2.45652
2.4121
2.39344
2.38673
2.38182
2.37743
2.37311
2.37009
2.37016
2.37077
2.37139
2.37198
2.36794
2.36249
2.35647
2.34721
2.3199
2.2672
2.22909
2.21622
2.21097
2.20751
2.20603
2.21859
2.25628
2.28312
2.28652
2.28285
2.27494
2.25396
2.20092
2.1413
2.11956
2.11418
2.11029
2.10789
2.11501
2.14377
2.16755
2.16726
2.16352
2.15772
2.14273
2.10677
2.06895
2.05735
2.05381
2.05163
2.05079
2.05441
2.05838
2.05764
2.0554
2.05321
2.05173
2.05076
2.04779
2.04075
2.03039
2.01997
2.01396
2.01182
2.01126
2.01054
2.01002
2.00933
2.00905
2.01314
2.02235
6.13206
5.99291
5.94084
5.9353
5.98689
6.04364
6.02489
5.97583
5.87908
5.74821
5.67631
5.64974
5.64413
5.67563
5.71432
5.70384
5.66955
5.61262
5.52466
5.43499
5.38419
5.36045
5.34893
5.35185
5.35212
5.33411
5.31214
5.28599
5.25792
5.23313
5.20912
5.17964
5.1321
5.06973
5.0236
5.00464
4.99327
4.99595
4.99498
4.97389
4.94345
4.88841
4.81896
4.77511
4.75701
4.74765
4.75252
4.74421
4.72252
4.6925
4.63979
4.5828
4.56056
4.55026
4.5589
4.56928
4.55312
4.52434
4.4688
4.38308
4.3125
4.28773
4.27704
4.28632
4.32664
4.33747
4.32118
4.29052
4.23395
4.16826
4.13421
4.12125
4.11589
4.12619
4.12311
4.10584
4.08012
4.02909
3.96933
3.94117
3.93088
3.92791
3.94371
3.95205
3.93851
3.90922
3.85514
3.77882
3.71651
3.68798
3.67805
3.67646
3.70642
3.76218
3.76703
3.75282
3.72905
3.6777
3.60202
3.55593
3.54396
3.53869
3.54615
3.56528
3.56387
3.54427
3.51395
3.46593
3.39951
3.35475
3.3421
3.34045
3.36139
3.39798
3.40885
3.40085
3.38748
3.35982
3.30211
3.23732
3.20018
3.18855
3.1827
3.18051
3.18543
3.18186
3.17158
3.16241
3.14578
3.11228
3.07499
3.05816
3.05312
3.05159
3.05252
3.04828
3.04096
3.03138
3.01735
2.99543
2.96304
2.92654
2.89942
2.88508
2.8751
2.86661
2.85942
2.85366
2.85103
2.85685
2.86258
2.86254
2.85808
2.85023
2.83453
2.80562
2.76593
2.72567
2.68747
2.65722
2.6456
2.64151
2.63979
2.64656
2.66904
2.68851
2.69023
2.68419
2.67459
2.65602
2.62012
2.57303
2.53634
2.51674
2.50838
2.5048
2.5021
2.50326
2.51688
2.52328
2.51912
2.51278
2.50538
2.49265
2.46649
2.43145
2.40489
2.39135
2.38486
2.38097
2.37881
2.37932
2.37968
2.37779
2.37668
2.37907
2.37751
2.37088
2.36383
2.35388
2.32997
2.2771
2.23063
2.21659
2.21137
2.20806
2.20721
2.21972
2.2596
2.29127
2.29254
2.28663
2.27694
2.25445
2.20071
2.14121
2.12281
2.11747
2.11346
2.11241
2.12598
2.15846
2.16918
2.16567
2.15953
2.15222
2.13858
2.11061
2.08005
2.06307
2.05577
2.05215
2.0501
2.0495
2.05055
2.04904
2.04581
2.04208
2.03906
2.03787
2.03781
2.03676
2.03262
2.0239
2.00986
2.00078
1.99795
1.99628
1.99483
1.99384
1.99326
1.99614
2.01182
6.07192
6.00832
5.99609
6.03118
6.0878
6.0746
6.03263
5.94899
5.8161
5.73029
5.70308
5.70002
5.73932
5.77734
5.76209
5.72657
5.66744
5.57827
5.48302
5.4247
5.40285
5.39519
5.40614
5.40846
5.38902
5.36461
5.33331
5.30112
5.27474
5.25063
5.22333
5.18162
5.11855
5.06292
5.04175
5.02926
5.03098
5.03215
5.01222
4.98528
4.93855
4.86882
4.81132
4.79084
4.78118
4.78874
4.78618
4.7634
4.72946
4.67506
4.62717
4.60684
4.59581
4.60091
4.61199
4.59801
4.56743
4.5095
4.42009
4.35458
4.33043
4.31813
4.32355
4.35916
4.3725
4.35636
4.32617
4.26746
4.19741
4.15937
4.1466
4.14085
4.15136
4.15405
4.13757
4.11352
4.06837
4.00972
3.96557
3.95219
3.9484
3.96907
3.99315
3.98372
3.96078
3.91384
3.82536
3.74749
3.71795
3.70727
3.7025
3.72083
3.76286
3.76543
3.75345
3.733
3.6891
3.62332
3.58684
3.57936
3.57822
3.59589
3.62666
3.62963
3.61061
3.56801
3.49855
3.41154
3.36114
3.34485
3.33807
3.3378
3.36732
3.42147
3.43003
3.41879
3.40181
3.36891
3.30533
3.24384
3.21761
3.2061
3.19968
3.1963
3.1903
3.18338
3.17681
3.1607
3.12733
3.08883
3.06905
3.06256
3.0597
3.06261
3.06309
3.05737
3.05043
3.04204
3.02836
3.00588
2.96944
2.93035
2.90647
2.89139
2.87766
2.8656
2.857
2.85009
2.8458
2.85339
2.8717
2.87861
2.87827
2.87333
2.86232
2.83166
2.76957
2.69893
2.66172
2.64648
2.64039
2.63637
2.63496
2.65074
2.68637
2.70637
2.70828
2.70395
2.69593
2.6779
2.629
2.55775
2.52216
2.51392
2.51052
2.50745
2.50566
2.50969
2.51893
2.51691
2.5098
2.50235
2.49318
2.47958
2.46285
2.44441
2.42756
2.41087
2.39485
2.38587
2.38132
2.37723
2.37322
2.36928
2.36616
2.36638
2.36851
2.36486
2.35819
2.35056
2.33484
2.29702
2.24832
2.22714
2.22018
2.21648
2.2164
2.22929
2.25464
2.26779
2.26985
2.26674
2.25881
2.24207
2.20609
2.16188
2.13772
2.12912
2.12486
2.12539
2.14262
2.16114
2.16033
2.15402
2.14687
2.13798
2.12362
2.10677
2.09207
2.0798
2.06638
2.05643
2.05141
2.04818
2.04572
2.04245
2.0377
2.03245
2.03
2.02879
2.02902
2.03047
2.0292
2.02381
2.01135
1.99428
1.9854
1.98235
1.98013
1.97894
1.97942
1.98404
2.00218
6.07984
6.0622
6.0837
6.13739
6.12775
6.0844
6.00298
5.87849
5.80009
5.77122
5.76494
5.80109
5.83718
5.81988
5.77969
5.71094
5.61055
5.52572
5.48604
5.46635
5.45978
5.47102
5.46943
5.44891
5.41966
5.37908
5.34194
5.31505
5.29099
5.26455
5.22545
5.16585
5.109
5.08527
5.07163
5.0701
5.07152
5.05315
5.02717
4.98101
4.9132
4.85923
4.83789
4.82529
4.82759
4.82529
4.8035
4.77515
4.72625
4.66607
4.63535
4.62359
4.62874
4.64627
4.63479
4.60999
4.56179
4.47495
4.39382
4.35923
4.34805
4.35542
4.395
4.41234
4.39625
4.36504
4.30812
4.23662
4.18903
4.17379
4.167
4.176
4.18157
4.16609
4.14448
4.10218
4.04176
4.0001
3.9877
3.98253
3.99561
4.01735
4.00948
3.99427
3.96059
3.89198
3.80573
3.75896
3.74412
3.73804
3.75025
3.78634
3.78938
3.77645
3.75204
3.69885
3.62926
3.59644
3.58954
3.59115
3.61701
3.66466
3.67941
3.66652
3.63477
3.57225
3.46887
3.39084
3.35866
3.34805
3.3423
3.3533
3.39666
3.41369
3.41284
3.40579
3.38914
3.35759
3.31541
3.28593
3.26455
3.24159
3.22056
3.20592
3.19659
3.18692
3.16963
3.14102
3.10615
3.0842
3.07652
3.07152
3.07155
3.07688
3.07343
3.06582
3.05745
3.04835
3.03705
3.01344
2.97531
2.93856
2.91754
2.90183
2.88561
2.8711
2.86199
2.85544
2.85124
2.85377
2.8745
2.89681
2.89548
2.88619
2.87014
2.83337
2.76234
2.69288
2.65999
2.64851
2.64203
2.6375
2.63735
2.65667
2.69411
2.71995
2.72088
2.71532
2.70567
2.68566
2.63478
2.55813
2.52383
2.5164
2.51197
2.50923
2.5119
2.51771
2.51631
2.51307
2.50738
2.50034
2.48822
2.46932
2.45442
2.44717
2.44134
2.43242
2.41667
2.39751
2.38541
2.37857
2.37347
2.3688
2.36488
2.36378
2.36466
2.36088
2.3548
2.34686
2.33427
2.30698
2.27178
2.24876
2.23898
2.23466
2.23511
2.24818
2.26053
2.25866
2.25369
2.2472
2.23572
2.21786
2.19759
2.17784
2.16157
2.15114
2.14584
2.14596
2.15303
2.15821
2.15666
2.14985
2.14011
2.12601
2.11083
2.09997
2.09566
2.0915
2.08383
2.07006
2.05648
2.04933
2.04352
2.03683
2.02965
2.02517
2.02364
2.02291
2.02373
2.02436
2.02256
2.0193
2.01009
1.98955
1.97387
1.96999
1.96845
1.96774
1.96925
1.97573
1.99071
6.12858
6.13671
6.18407
6.18171
6.14231
6.07111
5.94984
5.85581
5.82495
5.82131
5.86131
5.89603
5.87597
5.83203
5.75987
5.65518
5.56671
5.526
5.51109
5.51409
5.53607
5.53318
5.51109
5.47611
5.42635
5.38365
5.35573
5.33132
5.30522
5.2692
5.21214
5.15036
5.1226
5.10835
5.10634
5.11065
5.09449
5.0704
5.02943
4.96187
4.89893
4.87487
4.86275
4.8654
4.86553
4.84513
4.81799
4.77056
4.71368
4.68263
4.6689
4.66667
4.67657
4.66576
4.64366
4.59933
4.52528
4.44572
4.41053
4.39723
4.39839
4.43166
4.45264
4.43805
4.40835
4.34979
4.2695
4.22106
4.20519
4.19756
4.20424
4.21399
4.20088
4.17919
4.13833
4.08176
4.03434
4.01622
4.00964
4.01874
4.04232
4.03701
4.01909
3.98466
3.92329
3.84796
3.80816
3.7947
3.78718
3.79578
3.82814
3.83303
3.81567
3.78128
3.72037
3.64763
3.61184
3.60122
3.59708
3.61383
3.67287
3.70738
3.6967
3.67576
3.63864
3.56062
3.46786
3.41292
3.39025
3.3772
3.37142
3.3787
3.38984
3.38959
3.38221
3.3729
3.35446
3.33073
3.32146
3.31598
3.3077
3.29254
3.26542
3.22831
3.19664
3.17256
3.14495
3.11357
3.09534
3.08853
3.08419
3.08327
3.08933
3.0901
3.08295
3.07446
3.0645
3.051
3.02878
2.99553
2.96248
2.94136
2.92797
2.91678
2.90411
2.88966
2.8785
2.87107
2.86657
2.8704
2.87879
2.87595
2.87305
2.8664
2.851
2.81619
2.75948
2.71126
2.68324
2.66711
2.65749
2.65253
2.65274
2.66931
2.70043
2.7139
2.71544
2.70959
2.7003
2.68217
2.63987
2.58215
2.54429
2.5276
2.52027
2.51685
2.51606
2.51549
2.51215
2.50877
2.50386
2.49509
2.48072
2.46361
2.45523
2.45175
2.448
2.44273
2.43312
2.41508
2.39699
2.38622
2.37943
2.37401
2.36863
2.36309
2.35666
2.34925
2.34195
2.33239
2.3187
2.30376
2.28791
2.27284
2.26068
2.25477
2.25582
2.25799
2.25387
2.24901
2.24193
2.23061
2.21221
2.1921
2.18584
2.18402
2.17897
2.17567
2.17574
2.17026
2.16114
2.15426
2.15019
2.14389
2.13145
2.11386
2.10335
2.10108
2.10009
2.09822
2.09412
2.08498
2.0666
2.04526
2.03409
2.02771
2.02264
2.01976
2.01828
2.01759
2.01941
2.01949
2.01773
2.01503
2.00762
1.98841
1.96859
1.96257
1.96121
1.9605
1.96207
1.96965
1.98409
6.19103
6.22886
6.23435
6.19831
6.13305
6.02188
5.9301
5.89637
5.88732
5.9194
5.95014
5.92849
5.88312
5.80668
5.69564
5.61496
5.58346
5.56946
5.57735
5.60141
5.59532
5.5719
5.53084
5.47205
5.42547
5.39739
5.37272
5.34673
5.31304
5.26035
5.19858
5.16587
5.15023
5.1456
5.15015
5.13587
5.1133
5.07543
5.00998
4.94658
4.92006
4.90638
4.90508
4.90689
4.88735
4.86049
4.81802
4.76031
4.72118
4.70672
4.70201
4.71001
4.69926
4.67654
4.6337
4.55664
4.48156
4.44924
4.43778
4.43961
4.47195
4.49294
4.47887
4.45116
4.39645
4.31694
4.25754
4.23411
4.22409
4.22545
4.23969
4.23335
4.21541
4.17868
4.11731
4.06617
4.04796
4.041
4.04574
4.06611
4.0638
4.05098
4.02143
3.95645
3.87384
3.8317
3.81848
3.81354
3.82953
3.86983
3.87964
3.86377
3.8307
3.76307
3.67846
3.6327
3.61741
3.61109
3.61845
3.66786
3.7025
3.69481
3.68127
3.65568
3.60288
3.53455
3.49036
3.46461
3.44722
3.43945
3.43026
3.41367
3.39683
3.37901
3.35608
3.33109
3.32087
3.32055
3.32794
3.33358
3.33118
3.32261
3.30623
3.2677
3.20509
3.15126
3.1215
3.10433
3.09654
3.09106
3.08911
3.09698
3.10548
3.10186
3.09443
3.0859
3.07394
3.054
3.01886
2.97649
2.94979
2.93847
2.93165
2.92484
2.91752
2.90945
2.90265
2.90044
2.89835
2.89182
2.88147
2.86838
2.85438
2.83642
2.80829
2.77315
2.74612
2.7287
2.71425
2.69756
2.68624
2.68107
2.68128
2.69027
2.70021
2.69872
2.69243
2.68642
2.67713
2.65843
2.62928
2.60005
2.57836
2.55883
2.54023
2.52849
2.52221
2.51772
2.51344
2.50771
2.50004
2.48869
2.47347
2.46647
2.46282
2.45934
2.4544
2.44886
2.44153
2.42823
2.41011
2.39673
2.38783
2.37963
2.37049
2.36084
2.35254
2.34504
2.33507
2.32266
2.3079
2.3012
2.29831
2.29731
2.29447
2.28718
2.27677
2.26371
2.25154
2.24193
2.229
2.20826
2.18775
2.18035
2.17834
2.18172
2.19319
2.20048
2.19865
2.18944
2.17467
2.15785
2.14305
2.13218
2.11973
2.10776
2.10454
2.10342
2.10384
2.10288
2.09977
2.09404
2.07837
2.04833
2.02759
2.02257
2.01932
2.01652
2.01525
2.01545
2.015
2.01373
2.0122
2.01032
2.00553
1.99113
1.9691
1.9591
1.95686
1.95616
1.95739
1.96448
1.97823
6.27322
6.28706
6.25484
6.1954
6.09336
5.99652
5.95972
5.94996
5.9779
6.00273
5.9791
5.93127
5.85119
5.74033
5.66187
5.63092
5.62026
5.63677
5.66479
5.65587
5.63006
5.58274
5.51564
5.46507
5.43815
5.41432
5.38865
5.35664
5.30748
5.24661
5.21052
5.1937
5.18803
5.19235
5.17901
5.15674
5.12031
5.0558
4.98934
4.9586
4.94522
4.94217
4.94492
4.9284
4.90653
4.8726
4.81613
4.77003
4.75301
4.74461
4.74424
4.73001
4.70985
4.67101
4.60149
4.52406
4.47834
4.46551
4.46738
4.50513
4.53662
4.5245
4.49768
4.44418
4.36072
4.29712
4.27345
4.26313
4.26393
4.27037
4.25792
4.23726
4.20592
4.16036
4.11067
4.0821
4.07182
4.07031
4.08874
4.09112
4.07547
4.04166
3.98421
3.91299
3.86631
3.85029
3.84479
3.8589
3.90377
3.92
3.90546
3.87837
3.8219
3.73384
3.66804
3.64586
3.63727
3.63617
3.66249
3.69306
3.6898
3.67728
3.65713
3.61115
3.5439
3.51122
3.50419
3.50108
3.50546
3.50525
3.48928
3.45848
3.41331
3.36157
3.32394
3.30873
3.30305
3.30593
3.33261
3.35183
3.35014
3.34115
3.32716
3.29091
3.21122
3.14034
3.1136
3.10542
3.09964
3.09586
3.09945
3.11298
3.11663
3.11085
3.10308
3.09464
3.08218
3.05448
3.00768
2.96824
2.94954
2.94212
2.93594
2.93083
2.92814
2.9299
2.93373
2.93047
2.92067
2.90736
2.89106
2.87027
2.83945
2.80026
2.76179
2.74164
2.73536
2.73387
2.7298
2.72223
2.71431
2.71272
2.71458
2.70861
2.69942
2.69123
2.68262
2.67075
2.65339
2.63101
2.61084
2.60408
2.59904
2.59127
2.57763
2.55475
2.53058
2.51572
2.50583
2.49524
2.48437
2.47768
2.47436
2.47418
2.47249
2.46762
2.46215
2.4559
2.44723
2.43377
2.41652
2.40273
2.39356
2.38541
2.37615
2.36545
2.35438
2.3402
2.32329
2.30969
2.30291
2.30062
2.30557
2.31709
2.31894
2.3125
2.30102
2.28258
2.25856
2.23142
2.20389
2.18395
2.17716
2.17482
2.1755
2.18607
2.20754
2.21571
2.21219
2.20451
2.1906
2.16378
2.13201
2.11583
2.1101
2.10729
2.10644
2.10808
2.10924
2.10703
2.10394
2.09944
2.08694
2.05369
2.02588
2.01946
2.01681
2.0164
2.01817
2.01527
2.01206
2.00969
2.0072
2.00451
2.00104
1.99237
1.9774
1.96313
1.95655
1.95493
1.95561
1.96193
1.96989
6.34167
6.31286
6.25747
6.16318
6.06576
6.02631
6.01378
6.03596
6.05745
6.03209
5.98117
5.89591
5.7836
5.71047
5.68281
5.6747
5.69849
5.72753
5.71568
5.68679
5.6337
5.56009
5.5054
5.4786
5.45548
5.43084
5.40089
5.35555
5.29578
5.25654
5.23897
5.23252
5.23701
5.22457
5.2023
5.16721
5.10377
5.03385
4.99805
4.98409
4.97877
4.98247
4.96751
4.94421
4.9123
4.86318
4.81957
4.80161
4.79218
4.78858
4.77328
4.7496
4.70808
4.63955
4.56328
4.51849
4.5046
4.50141
4.5276
4.56651
4.56218
4.54023
4.49491
4.41335
4.33956
4.30912
4.29795
4.29644
4.30557
4.29649
4.27827
4.24727
4.18884
4.13641
4.11653
4.10867
4.10869
4.12325
4.12109
4.10396
4.07283
4.00791
3.92226
3.88592
3.87574
3.87256
3.88633
3.93267
3.95652
3.94461
3.92074
3.87135
3.78748
3.71684
3.68994
3.67911
3.67498
3.68964
3.70882
3.69982
3.68585
3.66203
3.61329
3.55203
3.52221
3.51458
3.51324
3.5327
3.55576
3.55169
3.53468
3.49779
3.42469
3.35318
3.31763
3.30584
3.29981
3.29981
3.32987
3.36469
3.36284
3.35128
3.33455
3.29897
3.22652
3.1519
3.12298
3.11229
3.10516
3.10171
3.11061
3.12335
3.12342
3.11783
3.10952
3.09873
3.08247
3.04925
3.00177
2.97036
2.95847
2.95025
2.94436
2.94077
2.94254
2.95348
2.95821
2.95168
2.94165
2.92727
2.89962
2.85487
2.80012
2.76128
2.74401
2.73694
2.73296
2.73109
2.73645
2.74792
2.75306
2.75048
2.7405
2.72309
2.70334
2.68862
2.67295
2.64995
2.62312
2.61118
2.60834
2.6101
2.61156
2.60749
2.60082
2.58581
2.55442
2.52076
2.49895
2.48572
2.47761
2.4724
2.46825
2.47032
2.47789
2.47483
2.47014
2.46505
2.45743
2.44293
2.42101
2.40423
2.39496
2.38791
2.38068
2.3709
2.3536
2.33145
2.31616
2.30935
2.30556
2.30363
2.31137
2.32928
2.33204
2.32685
2.31848
2.30012
2.26126
2.2123
2.18516
2.17626
2.17198
2.16885
2.17249
2.19834
2.22253
2.22335
2.21812
2.21124
2.19763
2.16517
2.12715
2.11174
2.10686
2.10355
2.10114
2.10367
2.11235
2.11136
2.10792
2.10314
2.09355
2.06914
2.03333
2.01952
2.01577
2.01314
2.01123
2.00876
2.00567
2.00298
2.00005
1.99601
1.99027
1.98542
1.98036
1.97278
1.96376
1.95907
1.95793
1.95775
1.95811
6.375
6.3207
6.22891
6.13127
6.0895
6.07488
6.09183
6.1085
6.0827
6.03359
5.95018
5.83671
5.7621
5.73584
5.73109
5.76161
5.78934
5.77415
5.74147
5.68216
5.60384
5.54585
5.51911
5.49724
5.47355
5.44487
5.40294
5.34631
5.30635
5.28822
5.28075
5.28426
5.27206
5.24999
5.21603
5.15272
5.08007
5.03971
5.02455
5.01705
5.01845
5.00562
4.98578
4.95991
4.91357
4.86209
4.84136
4.83032
4.82657
4.81329
4.79253
4.75805
4.68914
4.60404
4.55353
4.53793
4.53268
4.55439
4.59104
4.58549
4.56492
4.5271
4.46123
4.38862
4.35231
4.3402
4.33632
4.34207
4.33128
4.31116
4.2828
4.23704
4.1829
4.14594
4.13318
4.128
4.14426
4.1541
4.14
4.10977
4.04958
3.96599
3.91265
3.89161
3.88186
3.88703
3.93712
3.98218
3.97825
3.95813
3.91653
3.83615
3.75842
3.72784
3.71785
3.71425
3.72613
3.74042
3.73074
3.71148
3.67794
3.61988
3.55666
3.52991
3.52205
3.52038
3.53931
3.57557
3.58254
3.57161
3.55413
3.51589
3.44177
3.36377
3.32711
3.31352
3.30665
3.30564
3.31538
3.3276
3.3314
3.3266
3.31375
3.28923
3.24723
3.20081
3.15941
3.13131
3.11973
3.11464
3.11374
3.11777
3.11727
3.11421
3.11112
3.10272
3.08392
3.0458
3.00388
2.98559
2.97327
2.96221
2.95564
2.95314
2.95878
2.97053
2.97062
2.96377
2.95442
2.93479
2.89057
2.82203
2.77453
2.75232
2.74404
2.73933
2.73542
2.73639
2.75318
2.77335
2.77648
2.77091
2.76208
2.7477
2.72239
2.68649
2.64869
2.62043
2.60939
2.60579
2.60533
2.61501
2.62169
2.61837
2.61355
2.60442
2.5773
2.52744
2.49286
2.48116
2.47579
2.47119
2.46813
2.46966
2.47561
2.47564
2.47242
2.46875
2.46383
2.45416
2.43452
2.41141
2.40052
2.39526
2.38777
2.37324
2.34891
2.32573
2.31598
2.31093
2.30692
2.30824
2.32444
2.3428
2.34357
2.33785
2.32881
2.30617
2.25387
2.20244
2.18178
2.17588
2.17233
2.17008
2.17591
2.20226
2.22658
2.22862
2.22377
2.21633
2.20121
2.16622
2.12658
2.1117
2.10675
2.10367
2.10174
2.10124
2.1018
2.10465
2.10401
2.10163
2.09657
2.08099
2.05159
2.0246
2.01505
2.01048
2.00735
2.00445
2.0015
1.99888
1.99606
1.9918
1.9859
1.98127
1.9794
1.97788
1.97489
1.96865
1.95994
1.9527
1.94815
6.38701
6.29576
6.19409
6.14864
6.13285
6.14662
6.16176
6.13567
6.08385
5.99531
5.88701
5.82024
5.79571
5.79275
5.82608
5.85036
5.83163
5.79405
5.72864
5.64577
5.58567
5.55918
5.5381
5.51547
5.48976
5.45212
5.39708
5.35592
5.33773
5.32952
5.33169
5.3199
5.2982
5.26575
5.20368
5.12884
5.08212
5.06593
5.05734
5.05706
5.04527
5.02462
4.99757
4.95076
4.90418
4.88321
4.87161
4.86474
4.85083
4.83184
4.80302
4.74786
4.66966
4.60548
4.58151
4.57173
4.58039
4.61801
4.62466
4.60469
4.56371
4.48807
4.41532
4.38796
4.3785
4.37652
4.38507
4.37664
4.35666
4.32836
4.27671
4.21884
4.18539
4.17329
4.16694
4.17627
4.17956
4.16269
4.1374
4.08727
4.00512
3.94368
3.92161
3.91237
3.91314
3.94741
3.99358
3.99119
3.97427
3.94291
3.88064
3.80506
3.76826
3.75817
3.75543
3.76812
3.77777
3.76628
3.74562
3.70902
3.64575
3.57853
3.54355
3.53174
3.5256
3.53349
3.57429
3.59902
3.59378
3.58027
3.5566
3.51408
3.46205
3.41951
3.38305
3.3491
3.33046
3.32314
3.3172
3.31218
3.30532
3.29485
3.28029
3.26157
3.24475
3.22866
3.20832
3.17834
3.14612
3.13077
3.12451
3.12351
3.12164
3.11215
3.10323
3.09085
3.06922
3.03981
3.0195
3.00793
2.99716
2.98662
2.97819
2.97446
2.9765
2.97954
2.97611
2.96657
2.95134
2.9237
2.86813
2.80531
2.77049
2.75754
2.75045
2.74575
2.74334
2.75033
2.77332
2.78762
2.7866
2.78143
2.77359
2.76107
2.73013
2.67348
2.62841
2.61135
2.60534
2.60125
2.60269
2.61929
2.62744
2.62527
2.62148
2.61477
2.59205
2.53569
2.49374
2.48305
2.47748
2.47287
2.47025
2.4735
2.47837
2.47534
2.47191
2.46829
2.46384
2.45883
2.44965
2.42961
2.40525
2.38864
2.37786
2.36455
2.34459
2.32771
2.32154
2.31655
2.31249
2.31457
2.33495
2.35385
2.35278
2.34559
2.33344
2.30517
2.24864
2.20048
2.18705
2.18146
2.17779
2.17757
2.19032
2.21555
2.22126
2.21785
2.21375
2.2084
2.19801
2.17207
2.1377
2.11891
2.11117
2.10627
2.10301
2.10253
2.10374
2.1009
2.0972
2.09232
2.08698
2.0806
2.06504
2.04238
2.02185
2.01046
2.00446
2.0016
1.99892
1.99587
1.99276
1.98817
1.98406
1.9822
1.98151
1.98121
1.97916
1.97429
1.96435
1.95186
1.94308
6.36305
6.2576
6.20829
6.19027
6.19991
6.21354
6.18787
6.13907
6.05345
5.9423
5.87028
5.848
5.84947
5.88825
5.90749
5.88616
5.84489
5.77393
5.68632
5.62621
5.59996
5.58012
5.55817
5.53296
5.49814
5.44832
5.40736
5.38884
5.37966
5.37946
5.36703
5.34597
5.31472
5.2545
5.17876
5.12734
5.10957
5.09974
5.09799
5.08669
5.06667
5.04224
4.99607
4.94443
4.91521
4.90133
4.89332
4.88459
4.86846
4.84393
4.79554
4.71954
4.66187
4.63946
4.62743
4.63158
4.65523
4.65053
4.62839
4.59224
4.5268
4.45363
4.41337
4.39993
4.39454
4.40879
4.41383
4.39684
4.37445
4.33187
4.26774
4.21736
4.2021
4.19505
4.20412
4.21223
4.19773
4.17403
4.12639
4.04823
3.98123
3.9522
3.94159
3.94129
3.97151
4.0093
4.00391
3.9854
3.95413
3.8959
3.82904
3.80156
3.79286
3.79125
3.80784
3.82021
3.80867
3.78613
3.7469
3.68309
3.61324
3.5697
3.5537
3.54586
3.54573
3.57157
3.59398
3.58762
3.57665
3.55843
3.52601
3.48949
3.46641
3.45331
3.43748
3.41227
3.37447
3.34038
3.32187
3.3058
3.28524
3.25998
3.24575
3.24058
3.24095
3.24175
3.23648
3.22608
3.20304
3.16216
3.12947
3.11188
3.10374
3.09805
3.08797
3.07238
3.05006
3.039
3.03367
3.02724
3.02209
3.01864
3.01335
3.00389
2.99089
2.9754
2.95902
2.94425
2.92463
2.88957
2.84377
2.80928
2.79175
2.77797
2.76567
2.75998
2.76042
2.77273
2.78646
2.79024
2.78883
2.78643
2.7807
2.7651
2.72439
2.66259
2.62407
2.61232
2.60624
2.60223
2.60364
2.6232
2.63571
2.6326
2.62766
2.61972
2.60025
2.55902
2.51161
2.48968
2.48158
2.47627
2.47363
2.47843
2.48068
2.47672
2.47391
2.47099
2.46685
2.46226
2.45572
2.44233
2.41842
2.39194
2.37097
2.35575
2.34272
2.33592
2.33108
2.32727
2.32542
2.3323
2.34624
2.34533
2.3402
2.33453
2.32337
2.29572
2.24544
2.20989
2.19936
2.19343
2.18966
2.19122
2.20502
2.21677
2.21501
2.20909
2.20233
2.19465
2.18508
2.17295
2.1538
2.13382
2.12101
2.11298
2.10647
2.10231
2.09911
2.09637
2.09275
2.08659
2.07842
2.07102
2.06513
2.05463
2.03887
2.01947
2.00592
1.99975
1.99683
1.99315
1.98856
1.98621
1.98479
1.98422
1.98434
1.9831
1.98069
1.97692
1.97003
1.95754
1.94011
6.31937
6.26655
6.24765
6.25495
6.26617
6.24097
6.19318
6.10791
6.00134
5.93488
5.91277
5.91444
5.95177
5.96399
5.9396
5.89323
5.81576
5.72654
5.66797
5.64183
5.62325
5.60249
5.57934
5.54755
5.49861
5.45616
5.43743
5.42713
5.42571
5.41336
5.39263
5.36177
5.30212
5.22617
5.17293
5.15397
5.14367
5.14138
5.13068
5.11134
5.08785
5.04386
4.99071
4.95496
4.9396
4.92692
4.91113
4.89196
4.86821
4.83118
4.77378
4.71096
4.68107
4.67104
4.67832
4.70659
4.7055
4.68062
4.63631
4.55864
4.47699
4.4382
4.42508
4.41898
4.42917
4.43886
4.42553
4.40823
4.37904
4.32767
4.27242
4.24986
4.23851
4.23784
4.23993
4.22469
4.20375
4.16229
4.087
4.01667
3.98627
3.97558
3.97283
3.99583
4.03252
4.02951
4.01318
3.9792
3.91413
3.84548
3.81356
3.80441
3.80438
3.82963
3.85375
3.84654
3.82913
3.79652
3.73193
3.64982
3.60225
3.58606
3.57739
3.57603
3.59443
3.60875
3.59859
3.58589
3.56537
3.53128
3.49587
3.47934
3.47433
3.47501
3.47112
3.45925
3.43519
3.38561
3.32633
3.28173
3.25111
3.2342
3.22753
3.228
3.24224
3.25782
3.25723
3.25022
3.23898
3.21307
3.16166
3.11944
3.09901
3.08482
3.06714
3.0496
3.04237
3.03967
3.03965
3.04555
3.0484
3.04512
3.03757
3.02604
3.00816
2.98554
2.95532
2.91955
2.88109
2.84957
2.82845
2.82058
2.81452
2.80548
2.79624
2.79019
2.78887
2.7933
2.80223
2.7996
2.79183
2.7839
2.77359
2.75336
2.709
2.65686
2.63435
2.6247
2.61756
2.61337
2.61424
2.62227
2.62083
2.61561
2.61019
2.60327
2.59265
2.57324
2.54414
2.51342
2.49331
2.48531
2.48147
2.47939
2.47751
2.47423
2.47163
2.47013
2.46686
2.46186
2.45641
2.44891
2.43162
2.3957
2.36117
2.34784
2.34372
2.34096
2.33809
2.33648
2.34235
2.35455
2.35294
2.34479
2.33517
2.3241
2.30558
2.27634
2.24527
2.22459
2.21407
2.2082
2.20538
2.2095
2.21689
2.21415
2.20954
2.20347
2.1953
2.18357
2.17192
2.16486
2.15975
2.15238
2.14109
2.12445
2.11068
2.10272
2.09658
2.09118
2.08727
2.08243
2.07409
2.06506
2.06079
2.05767
2.05019
2.03517
2.01437
2.00121
1.99525
1.99065
1.98718
1.98533
1.98429
1.98503
1.98779
1.98737
1.98631
1.98416
1.97789
1.96055
1.93065
6.32212
6.30277
6.30973
6.3215
6.29643
6.2494
6.16361
6.05863
5.99233
5.97164
5.97523
6.01248
6.0186
5.99284
5.94212
5.85703
5.76546
5.70924
5.68437
5.66761
5.64839
5.62645
5.59729
5.55127
5.50746
5.48791
5.47624
5.47218
5.4591
5.43819
5.4075
5.34849
5.27174
5.21673
5.19608
5.18594
5.18461
5.17595
5.15701
5.13403
5.09039
5.03176
4.9924
4.97677
4.96397
4.94816
4.92819
4.90594
4.86585
4.80216
4.75006
4.72796
4.71846
4.72346
4.75155
4.75398
4.73146
4.69306
4.6176
4.52365
4.46763
4.44771
4.43768
4.44234
4.45834
4.44951
4.43291
4.40901
4.36331
4.31559
4.29684
4.2877
4.28773
4.28227
4.26451
4.2392
4.19436
4.12728
4.05977
4.02311
4.01068
4.00656
4.02703
4.06309
4.05991
4.03983
4.00327
3.93964
3.86824
3.83092
3.81963
3.8166
3.83755
3.87319
3.87133
3.85718
3.83585
3.78633
3.70271
3.63892
3.61705
3.60789
3.60607
3.62047
3.63104
3.62199
3.60735
3.57801
3.53419
3.50121
3.48871
3.48369
3.48702
3.50034
3.49942
3.48842
3.47005
3.42037
3.32828
3.26308
3.23848
3.22776
3.2211
3.22132
3.25102
3.27258
3.26893
3.26154
3.25334
3.24128
3.21365
3.15749
3.09788
3.06198
3.04609
3.03827
3.03455
3.03844
3.05337
3.07088
3.07361
3.06754
3.05904
3.04622
3.02375
2.98337
2.92838
2.87612
2.84916
2.83479
2.82754
2.82487
2.82687
2.82856
2.82887
2.82826
2.82153
2.8106
2.80053
2.7914
2.78216
2.77233
2.75799
2.73106
2.69093
2.66091
2.64877
2.63979
2.6331