/*--------------------------------*- C++ -*----------------------------------*\
  =========                 |
  \\      /  F ield         | OpenFOAM: The Open Source CFD Toolbox
   \\    /   O peration     | Website:  https://openfoam.org
    \\  /    A nd           | Version:  7
     \\/     M anipulation  |
\*---------------------------------------------------------------------------*/
FoamFile
{
    version     2.0;
    format      ascii;
    class       volScalarField;
    location    "2.3";
    object      rho;
}
// * * * * * * * * * * * * * * * * * * * * * * * * * * * * * * * * * * * * * //

dimensions      [1 -3 0 0 0 0 0];

internalField   nonuniform List<scalar> 
16192
(
4.30404
4.28108
4.23916
4.16373
4.10858
4.09387
4.09752
4.13315
4.15669
4.14414
4.11675
4.06767
4.00402
3.96753
3.95339
3.948
3.9575
3.98226
3.98733
3.9743
3.95234
3.9158
3.8667
3.83179
3.81908
3.81306
3.81189
3.80816
3.79935
3.79008
3.78031
3.77032
3.76008
3.74888
3.73422
3.71009
3.68042
3.66009
3.65332
3.6522
3.66064
3.65975
3.6494
3.63193
3.60178
3.56337
3.53868
3.53114
3.52874
3.53317
3.52844
3.51687
3.49657
3.46704
3.44796
3.4404
3.43697
3.44363
3.44638
3.43839
3.42422
3.39377
3.35156
3.32628
3.31892
3.31631
3.32862
3.3479
3.34546
3.3358
3.31687
3.28548
3.25775
3.24828
3.24372
3.24533
3.24804
3.24147
3.23032
3.20817
3.17221
3.13959
3.12821
3.12301
3.12225
3.13333
3.13749
3.13023
3.11809
3.09538
3.06021
3.03221
3.02468
3.02258
3.03243
3.05765
3.06599
3.05805
3.03909
3.00137
2.94454
2.90709
2.89384
2.88961
2.88917
2.9115
2.96361
2.982
2.97677
2.9643
2.94068
2.8969
2.85992
2.84245
2.8314
2.82382
2.82247
2.82451
2.82008
2.81399
2.80207
2.78066
2.75657
2.7431
2.73915
2.73771
2.7435
2.75013
2.74624
2.74115
2.73424
2.71632
2.6863
2.66099
2.64835
2.63973
2.63407
2.63065
2.62645
2.62054
2.61377
2.60644
2.59876
2.59026
2.58171
2.57665
2.57468
2.57141
2.5648
2.55489
2.53864
2.51552
2.4988
2.4922
2.48837
2.48639
2.48859
2.48832
2.48708
2.48473
2.47852
2.46393
2.44126
2.42305
2.41111
2.4005
2.39202
2.38666
2.38576
2.39043
2.38881
2.38535
2.38175
2.37539
2.36122
2.33953
2.3263
2.32297
2.32173
2.32395
2.32532
2.3227
2.31849
2.30932
2.28951
2.26865
2.25835
2.25211
2.24774
2.24457
2.24207
2.24103
2.24169
2.24317
2.24375
2.24249
2.24041
2.23725
2.22889
2.20894
2.18582
2.17259
2.16593
2.16034
2.15585
2.15375
2.15441
2.16206
2.17272
2.18047
2.18181
2.17871
2.17125
2.15748
2.13913
2.12098
2.1038
2.09026
2.08541
2.08433
2.0839
2.08812
2.10373
2.11655
2.11627
2.11229
2.10398
2.08484
2.06022
2.05091
2.04937
2.04848
2.04817
2.05066
2.05883
2.06672
2.06931
2.06951
2.06756
2.05991
2.04597
2.03493
2.03044
2.02877
2.02852
2.0309
2.03415
2.03474
2.03465
2.03455
2.03368
2.03126
2.02405
4.31897
4.27886
4.20411
4.14383
4.12769
4.13106
4.16568
4.18965
4.17779
4.1527
4.10457
4.03713
3.99693
3.9829
3.97906
3.99234
4.01717
4.01886
4.00488
3.98222
3.94261
3.89162
3.85854
3.84594
3.84005
3.84018
3.83902
3.83065
3.82107
3.81056
3.79945
3.78873
3.77719
3.76135
3.73566
3.70566
3.687
3.67979
3.67701
3.68282
3.68294
3.67299
3.65627
3.62478
3.58811
3.56876
3.56181
3.55995
3.56218
3.55634
3.54647
3.5293
3.49934
3.47473
3.46638
3.4631
3.47025
3.47472
3.46628
3.44862
3.41524
3.37229
3.34902
3.34196
3.33928
3.34987
3.37124
3.37197
3.36192
3.34246
3.30806
3.27764
3.2664
3.26206
3.26386
3.27109
3.26646
3.25643
3.23824
3.20278
3.16493
3.14896
3.14402
3.14345
3.15458
3.1623
3.15563
3.14248
3.11312
3.06668
3.04192
3.03651
3.0363
3.04637
3.07515
3.09267
3.0868
3.07247
3.04498
2.99243
2.93916
2.91604
2.90918
2.90655
2.91524
2.94658
2.96444
2.96402
2.95841
2.94411
2.91072
2.87539
2.86386
2.8604
2.85927
2.85694
2.8503
2.83999
2.82705
2.81049
2.79022
2.7693
2.75445
2.74923
2.74585
2.74583
2.75366
2.75507
2.75065
2.74318
2.72933
2.70484
2.68004
2.66754
2.66159
2.65704
2.65272
2.64638
2.63766
2.62779
2.61837
2.60814
2.59452
2.58193
2.57484
2.57121
2.56936
2.57085
2.56991
2.56517
2.55745
2.5441
2.52558
2.50957
2.50071
2.49598
2.49097
2.48573
2.48047
2.47311
2.46062
2.4426
2.4317
2.42844
2.42362
2.41855
2.41623
2.4126
2.40573
2.398
2.39034
2.38361
2.37681
2.36486
2.34517
2.33138
2.32762
2.32576
2.32668
2.33278
2.33336
2.33014
2.32603
2.31748
2.29455
2.26778
2.25686
2.25273
2.24946
2.24629
2.24333
2.24136
2.24118
2.24395
2.24597
2.24436
2.24233
2.24073
2.23785
2.22878
2.20501
2.17611
2.15998
2.15317
2.14941
2.14749
2.14761
2.15781
2.17787
2.19083
2.19239
2.19043
2.18574
2.17351
2.14504
2.10949
2.09154
2.08626
2.08442
2.08332
2.08527
2.09911
2.11983
2.12528
2.12259
2.11798
2.10816
2.08427
2.05709
2.0483
2.04659
2.04567
2.04556
2.04823
2.05359
2.05746
2.0588
2.05896
2.05885
2.05641
2.04858
2.03717
2.02876
2.02504
2.02382
2.02426
2.02475
2.02357
2.02252
2.02234
2.0242
2.02674
2.02605
4.3196
4.24811
4.18494
4.16634
4.16644
4.19735
4.22186
4.21041
4.18459
4.13734
4.07186
4.03515
4.02223
4.01781
4.03102
4.05259
4.05005
4.03558
4.01109
3.97267
3.92333
3.88745
3.87354
3.86757
3.86874
3.86968
3.86138
3.85145
3.84068
3.8285
3.81658
3.80467
3.79015
3.7669
3.73476
3.71165
3.70359
3.70002
3.70484
3.7051
3.69557
3.68103
3.65439
3.61763
3.59158
3.58383
3.58157
3.58811
3.58608
3.57546
3.55659
3.52705
3.50409
3.49594
3.49219
3.49822
3.50396
3.49565
3.47913
3.44638
3.39777
3.36601
3.3565
3.35356
3.36583
3.39156
3.39505
3.38647
3.37052
3.33777
3.30173
3.28559
3.28048
3.28058
3.28908
3.28657
3.27803
3.26368
3.2356
3.1994
3.17922
3.17309
3.17098
3.17861
3.1833
3.17631
3.16406
3.13743
3.093
3.05903
3.04645
3.04241
3.0453
3.07394
3.10351
3.10477
3.09679
3.0778
3.03639
2.98453
2.95889
2.94917
2.9422
2.94313
2.96025
2.96882
2.96293
2.95436
2.93761
2.90636
2.87754
2.87116
2.86993
2.87457
2.88494
2.88379
2.87583
2.86116
2.83617
2.80382
2.77844
2.76448
2.75972
2.75698
2.75709
2.76087
2.75799
2.75266
2.74694
2.73714
2.71714
2.69382
2.6816
2.67812
2.67626
2.67469
2.67019
2.66307
2.65318
2.6404
2.62554
2.60785
2.58974
2.5787
2.57404
2.57027
2.56714
2.56565
2.56679
2.56603
2.56279
2.55893
2.55237
2.54073
2.52339
2.5059
2.49469
2.48666
2.47499
2.4557
2.43608
2.42892
2.42657
2.42763
2.43222
2.43771
2.4408
2.43725
2.42787
2.41303
2.39795
2.38547
2.37007
2.34971
2.33527
2.33068
2.3284
2.32707
2.32999
2.33798
2.33849
2.33531
2.33152
2.32374
2.30195
2.27213
2.25961
2.25512
2.25181
2.24889
2.24614
2.24431
2.24454
2.2454
2.24665
2.24804
2.24664
2.24434
2.24153
2.23641
2.2188
2.1834
2.15798
2.14979
2.14667
2.14469
2.14397
2.15328
2.17995
2.19881
2.20145
2.19942
2.19464
2.1807
2.14447
2.10354
2.08918
2.08621
2.08432
2.08343
2.08949
2.11119
2.12833
2.12826
2.12575
2.12144
2.11023
2.08395
2.0566
2.04826
2.04582
2.04443
2.04403
2.04696
2.05045
2.05047
2.04977
2.04889
2.0483
2.04794
2.04597
2.04075
2.03287
2.02449
2.01916
2.0168
2.01539
2.0139
2.01275
2.01192
2.01175
2.01511
2.02261
4.29544
4.22611
4.20107
4.19888
4.22542
4.25381
4.24351
4.21798
4.16939
4.10312
4.06695
4.05497
4.05308
4.07048
4.09157
4.08649
4.06889
4.03997
3.99466
3.94676
3.91915
3.9067
3.90067
3.90208
3.90232
3.89348
3.8827
3.87005
3.85649
3.84465
3.83321
3.81879
3.79503
3.76329
3.73999
3.73139
3.72676
3.72918
3.72986
3.72058
3.706
3.67842
3.64256
3.62033
3.61263
3.60964
3.61405
3.61167
3.60228
3.58789
3.56074
3.53107
3.52059
3.51602
3.52172
3.52876
3.52106
3.50703
3.47826
3.43226
3.39455
3.38265
3.3783
3.38487
3.40946
3.41654
3.40848
3.39289
3.36226
3.32595
3.30778
3.30204
3.30011
3.30713
3.30655
3.29809
3.28446
3.2558
3.22122
3.20524
3.1999
3.19839
3.20786
3.21312
3.20603
3.18985
3.1594
3.11571
3.07939
3.06333
3.05817
3.05751
3.07576
3.10898
3.11198
3.10403
3.09047
3.06051
3.01568
2.98849
2.98182
2.97907
2.98396
2.99619
2.99591
2.98514
2.9679
2.93958
2.89956
2.87261
2.86514
2.8642
2.87714
2.89953
2.90609
2.90115
2.89291
2.87594
2.84034
2.80022
2.77728
2.77015
2.76663
2.76536
2.76858
2.7666
2.76064
2.75537
2.7455
2.72496
2.70179
2.69138
2.68841
2.68751
2.68813
2.68547
2.68075
2.67457
2.66556
2.65149
2.63066
2.60732
2.59016
2.58124
2.57524
2.57022
2.56605
2.56283
2.56147
2.56562
2.56958
2.56966
2.56696
2.56183
2.55138
2.5323
2.50613
2.47954
2.45421
2.43414
2.4262
2.42338
2.42227
2.42676
2.44192
2.45525
2.45667
2.45339
2.44761
2.43551
2.41157
2.37992
2.35499
2.34127
2.3351
2.33231
2.33023
2.33082
2.33966
2.34407
2.3418
2.3385
2.33454
2.3269
2.31001
2.28662
2.26874
2.25945
2.25486
2.25216
2.25072
2.25112
2.2515
2.25074
2.25082
2.25345
2.25354
2.25064
2.24729
2.24188
2.22669
2.19101
2.15958
2.15055
2.14746
2.14561
2.1453
2.15463
2.18273
2.20496
2.20609
2.20271
2.19678
2.18189
2.14512
2.10437
2.09249
2.08954
2.0876
2.08746
2.09825
2.12207
2.12998
2.128
2.1242
2.11899
2.10881
2.0882
2.06592
2.05364
2.04851
2.04627
2.04531
2.04534
2.04663
2.04623
2.04457
2.04227
2.04037
2.03971
2.03972
2.03888
2.03553
2.02866
2.01772
2.01025
2.00749
2.00563
2.00388
2.00272
2.00217
2.00445
2.01651
4.27067
4.23981
4.23446
4.25256
4.28123
4.27402
4.25218
4.20989
4.1428
4.09997
4.08761
4.08693
4.10848
4.12925
4.12177
4.10403
4.07401
4.02783
3.9774
3.94632
3.9345
3.9302
3.9356
3.93685
3.92703
3.91492
3.89986
3.88452
3.87215
3.86083
3.84767
3.82687
3.7946
3.76621
3.75636
3.75089
3.75264
3.75421
3.74528
3.73241
3.70896
3.67295
3.64387
3.63518
3.63187
3.63773
3.63833
3.62888
3.61267
3.58475
3.55966
3.55005
3.54554
3.54926
3.55663
3.55013
3.53498
3.50495
3.45703
3.4215
3.40993
3.40508
3.40922
3.431
3.43958
3.43145
3.41608
3.38427
3.34516
3.32465
3.31899
3.31672
3.32382
3.32637
3.31848
3.30602
3.28083
3.24718
3.22198
3.2146
3.21251
3.22471
3.23929
3.23426
3.22156
3.19546
3.14454
3.09915
3.0827
3.07717
3.07466
3.0859
3.11102
3.1126
3.10589
3.09451
3.0688
3.02974
3.00816
3.00403
3.0035
3.0145
3.03344
3.0356
3.02508
3.0004
2.9593
2.9071
2.87683
2.8671
2.86322
2.86325
2.88167
2.91452
2.91958
2.91257
2.90205
2.88194
2.84307
2.80525
2.78906
2.78193
2.778
2.77607
2.77261
2.76847
2.76476
2.75531
2.73487
2.71103
2.69889
2.69504
2.69338
2.69529
2.69565
2.69208
2.68759
2.68213
2.6733
2.65886
2.6355
2.61045
2.5954
2.58603
2.57757
2.57025
2.56523
2.56137
2.55915
2.56462
2.57691
2.58142
2.58119
2.57789
2.57045
2.55008
2.50948
2.46316
2.43839
2.42809
2.42398
2.42129
2.42038
2.43102
2.45493
2.4686
2.47012
2.46787
2.46303
2.45114
2.41851
2.37089
2.34652
2.34056
2.33794
2.33557
2.33417
2.33656
2.34249
2.3414
2.33744
2.3334
2.3281
2.31964
2.30894
2.29678
2.28539
2.27396
2.26288
2.25656
2.25339
2.25066
2.2482
2.24607
2.24473
2.24561
2.24818
2.24728
2.24451
2.24076
2.23131
2.20601
2.17288
2.15889
2.15462
2.15252
2.15273
2.1624
2.1805
2.19018
2.19201
2.19049
2.18586
2.17493
2.15042
2.12031
2.10435
2.09911
2.09684
2.09773
2.11118
2.12513
2.12511
2.12181
2.11736
2.11089
2.10002
2.08726
2.07615
2.06698
2.05742
2.05076
2.04777
2.04605
2.04494
2.04331
2.04043
2.03691
2.03524
2.03438
2.03451
2.03539
2.03423
2.02983
2.02021
2.00713
1.99996
1.99719
1.9951
1.9939
1.99398
1.9972
2.01085
4.28085
4.27297
4.2842
4.31163
4.30646
4.28408
4.24329
4.18049
4.14085
4.12787
4.12588
4.14583
4.16549
4.15716
4.13747
4.10307
4.05161
4.00617
3.98437
3.97391
3.97023
3.97556
3.9746
3.96384
3.94917
3.92951
3.91187
3.89939
3.88828
3.87579
3.85648
3.82616
3.79691
3.78542
3.77925
3.77915
3.78059
3.77215
3.75953
3.73632
3.7015
3.67374
3.66431
3.65979
3.6629
3.66379
3.65489
3.64162
3.61663
3.58501
3.56995
3.5647
3.56832
3.5793
3.57398
3.56201
3.53744
3.49077
3.44675
3.42945
3.42471
3.42988
3.4538
3.46455
3.45651
3.44032
3.40935
3.36958
3.34356
3.33622
3.33334
3.33937
3.34356
3.33615
3.32505
3.3017
3.26716
3.24343
3.23677
3.23403
3.24178
3.25471
3.25047
3.24237
3.22391
3.18499
3.13523
3.10845
3.10035
3.09708
3.10462
3.12638
3.12835
3.12091
3.10691
3.07547
3.03405
3.01459
3.01074
3.01188
3.02771
3.05655
3.06565
3.05846
3.04024
3.00345
2.94157
2.8948
2.87577
2.86972
2.86646
2.87345
2.89998
2.9103
2.90977
2.90541
2.89517
2.87591
2.85024
2.83224
2.81906
2.80485
2.79185
2.78288
2.7773
2.77166
2.76138
2.74395
2.72243
2.70891
2.70438
2.70147
2.70159
2.7051
2.70298
2.69819
2.69277
2.68673
2.67922
2.66407
2.63995
2.61669
2.60331
2.59347
2.58346
2.57466
2.56937
2.56571
2.56351
2.56556
2.57944
2.59369
2.59281
2.58669
2.57604
2.55189
2.5054
2.45969
2.43785
2.43013
2.42584
2.42298
2.42302
2.43613
2.46123
2.47857
2.47947
2.47639
2.47035
2.45714
2.42319
2.37188
2.34863
2.34339
2.34018
2.33813
2.33966
2.34334
2.34253
2.34086
2.33796
2.3343
2.32703
2.3149
2.30506
2.30026
2.29621
2.28988
2.27891
2.26575
2.25746
2.25288
2.24969
2.24698
2.24505
2.24512
2.24681
2.24591
2.24362
2.23966
2.23224
2.21449
2.19083
2.17548
2.16929
2.16683
2.16747
2.17722
2.18645
2.18556
2.18292
2.17927
2.17199
2.16004
2.14645
2.13334
2.12271
2.11619
2.11319
2.11386
2.12017
2.12495
2.12455
2.12097
2.11471
2.10438
2.09277
2.08418
2.08043
2.07683
2.07091
2.06139
2.0526
2.04839
2.04498
2.0408
2.03614
2.03319
2.03205
2.0314
2.03186
2.03212
2.0305
2.02763
2.02052
2.00526
1.99314
1.98975
1.98828
1.98753
1.98829
1.99283
2.00421
4.31201
4.31647
4.34088
4.33959
4.31938
4.28371
4.22266
4.17553
4.16142
4.16049
4.18279
4.2017
4.19219
4.17104
4.13519
4.08143
4.03451
4.01277
4.00465
4.00563
4.01636
4.01467
4.00268
3.98491
3.96066
3.94024
3.92726
3.91603
3.90384
3.88625
3.85733
3.82546
3.81183
3.80523
3.80469
3.80754
3.79983
3.78786
3.76704
3.7321
3.69958
3.68874
3.68421
3.6874
3.68952
3.68119
3.66872
3.64475
3.61469
3.59926
3.5933
3.59284
3.59936
3.59437
3.58375
3.56102
3.52148
3.47836
3.46042
3.45469
3.4562
3.47628
3.48907
3.48172
3.46626
3.43434
3.38943
3.36278
3.35499
3.35155
3.35606
3.36277
3.35656
3.34556
3.32314
3.29104
3.26408
3.25411
3.25057
3.25612
3.2702
3.26758
3.2578
3.23881
3.20421
3.16087
3.13831
3.13115
3.12707
3.13236
3.15179
3.15485
3.14494
3.12483
3.08889
3.04565
3.02436
3.01819
3.01584
3.02614
3.06183
3.0825
3.07642
3.06455
3.04314
2.99709
2.94179
2.90922
2.89608
2.88865
2.88548
2.89025
2.89724
2.89707
2.89251
2.88674
2.87542
2.8609
2.85525
2.8519
2.84683
2.83753
2.82086
2.79809
2.77876
2.76421
2.7473
2.72795
2.71675
2.71274
2.71023
2.70974
2.71376
2.71436
2.70998
2.7046
2.69816
2.68941
2.67518
2.65404
2.63314
2.61975
2.61128
2.60427
2.59652
2.58786
2.58126
2.57687
2.57437
2.57727
2.58312
2.58134
2.57956
2.57515
2.56479
2.54184
2.50464
2.47277
2.45418
2.44344
2.43703
2.43386
2.4341
2.44524
2.46591
2.47536
2.4768
2.47379
2.46823
2.45638
2.42824
2.38957
2.36407
2.35254
2.34721
2.34459
2.34392
2.34354
2.34156
2.33985
2.3375
2.33281
2.32411
2.31293
2.3075
2.30525
2.30258
2.29866
2.29172
2.27928
2.26708
2.25993
2.2556
2.25245
2.24965
2.247
2.24386
2.24024
2.23676
2.23161
2.22334
2.21411
2.20393
2.19407
2.18625
2.18276
2.18391
2.18594
2.18374
2.18111
2.17699
2.16988
2.15766
2.14405
2.14024
2.13956
2.13664
2.13511
2.13593
2.13308
2.12771
2.12393
2.12199
2.11841
2.11023
2.09752
2.08906
2.0868
2.08549
2.08351
2.07982
2.07296
2.06054
2.04635
2.03911
2.03514
2.03213
2.03052
2.02943
2.02876
2.02979
2.02958
2.02785
2.02536
2.01952
2.00537
1.99078
1.98592
1.98459
1.98387
1.98468
1.98997
2.00094
4.34998
4.36975
4.37255
4.35421
4.32168
4.26608
4.21974
4.2042
4.20093
4.21886
4.23585
4.22572
4.20435
4.16662
4.10977
4.06711
4.05027
4.04294
4.04661
4.05822
4.05449
4.04145
4.02055
3.99167
3.96917
3.95604
3.94464
3.9325
3.91615
3.88955
3.8577
3.8414
3.83411
3.83219
3.83499
3.82798
3.81646
3.79691
3.76292
3.72975
3.71714
3.71175
3.7127
3.71566
3.70797
3.69558
3.67399
3.64366
3.62395
3.6174
3.61555
3.62069
3.61571
3.60452
3.58244
3.54106
3.50017
3.48378
3.4789
3.48069
3.50013
3.51283
3.50574
3.49126
3.46141
3.41706
3.3841
3.37173
3.36684
3.36815
3.37737
3.37464
3.3659
3.34612
3.31155
3.28263
3.27272
3.26905
3.27207
3.2844
3.28347
3.27677
3.26076
3.22393
3.17639
3.1525
3.14541
3.14287
3.1527
3.17679
3.18275
3.17367
3.15436
3.11457
3.06446
3.03734
3.02845
3.02484
3.02935
3.05904
3.08005
3.07587
3.06852
3.05397
3.02296
2.98263
2.95678
2.94196
2.93213
2.928
2.92291
2.91326
2.90329
2.89248
2.8783
2.86283
2.85649
2.85629
2.86081
2.86426
2.86279
2.85758
2.84759
2.824
2.78562
2.75251
2.73418
2.72358
2.71898
2.71586
2.71481
2.71992
2.72544
2.72328
2.71876
2.71344
2.70586
2.69317
2.67094
2.6441
2.62694
2.61964
2.61539
2.61125
2.60691
2.60227
2.59849
2.59757
2.59666
2.59292
2.58668
2.5785
2.56945
2.55755
2.53882
2.51555
2.49769
2.48594
2.47593
2.46476
2.45732
2.45403
2.45428
2.46069
2.46794
2.46738
2.46408
2.46089
2.45524
2.44302
2.42359
2.40388
2.38889
2.37531
2.3624
2.35421
2.34996
2.34707
2.34459
2.3414
2.33702
2.33037
2.32116
2.317
2.31478
2.31244
2.30885
2.30473
2.29943
2.29029
2.27815
2.26929
2.26355
2.2585
2.2531
2.24771
2.24343
2.23966
2.23417
2.22701
2.21794
2.21414
2.21294
2.21288
2.21153
2.20707
2.20041
2.19196
2.18431
2.1784
2.1701
2.15627
2.14257
2.13796
2.13691
2.13966
2.14854
2.1543
2.15363
2.14846
2.13926
2.12828
2.11843
2.11118
2.10282
2.09436
2.0916
2.09048
2.09028
2.089
2.0859
2.08094
2.06967
2.0491
2.03506
2.03205
2.03031
2.0288
2.02798
2.02805
2.02754
2.0262
2.02462
2.02278
2.01879
2.00805
1.99194
1.9847
1.98297
1.98229
1.98293
1.98777
1.99809
4.39915
4.40631
4.39008
4.36061
4.30973
4.26099
4.24382
4.24
4.25576
4.26975
4.25886
4.23647
4.19701
4.14036
4.09919
4.08326
4.07782
4.08585
4.09963
4.09426
4.07967
4.05541
4.02208
3.99732
3.98465
3.97355
3.96149
3.94599
3.92131
3.88987
3.87172
3.86389
3.86137
3.86398
3.85725
3.84557
3.82641
3.79262
3.75738
3.74218
3.73654
3.73621
3.73944
3.73284
3.72311
3.70675
3.67748
3.6538
3.64571
3.64172
3.6421
3.63519
3.62494
3.60466
3.56723
3.52516
3.5011
3.49517
3.49691
3.51928
3.5378
3.53175
3.51775
3.48854
3.44198
3.4066
3.39399
3.38883
3.38975
3.39428
3.38837
3.37788
3.36103
3.33581
3.30787
3.29207
3.28669
3.28615
3.29752
3.29933
3.2911
3.27255
3.24023
3.19958
3.17297
3.16434
3.16158
3.1703
3.19719
3.20688
3.19861
3.18286
3.1498
3.09796
3.05909
3.04622
3.04141
3.04095
3.0571
3.07568
3.07396
3.06719
3.056
3.02915
2.98921
2.96999
2.96654
2.96543
2.9686
2.96902
2.96016
2.94195
2.9147
2.88316
2.86003
2.85062
2.84703
2.8487
2.8651
2.87696
2.87594
2.87051
2.86205
2.83974
2.79029
2.74649
2.73037
2.72579
2.72266
2.72071
2.72337
2.73222
2.73458
2.73103
2.72618
2.72087
2.713
2.69559
2.66605
2.6407
2.62869
2.62404
2.62025
2.61739
2.61616
2.61758
2.62057
2.6191
2.61365
2.60554
2.59519
2.58205
2.56207
2.53627
2.51099
2.4974
2.49269
2.49127
2.48806
2.48275
2.47767
2.4769
2.47841
2.47511
2.47013
2.46555
2.46064
2.45343
2.44221
2.42748
2.41401
2.40913
2.40524
2.39931
2.38952
2.37396
2.35789
2.34832
2.3422
2.33565
2.3289
2.32493
2.32335
2.32399
2.32345
2.3202
2.31614
2.31146
2.30522
2.29597
2.28449
2.27552
2.26971
2.26469
2.25913
2.25292
2.24668
2.23835
2.228
2.21982
2.21624
2.21529
2.21945
2.22838
2.23
2.22636
2.21923
2.20709
2.19105
2.17292
2.15435
2.14099
2.13682
2.13564
2.13639
2.14459
2.16034
2.16658
2.16474
2.16054
2.15188
2.13387
2.11193
2.1007
2.0968
2.09497
2.09437
2.09545
2.09604
2.09397
2.09082
2.08663
2.07709
2.05366
2.0346
2.03066
2.02923
2.02912
2.03066
2.02883
2.02639
2.02428
2.02204
2.01966
2.01673
2.01008
1.99903
1.9886
1.98387
1.98272
1.98315
1.98765
1.99372
4.4421
4.42769
4.40028
4.35343
4.30435
4.28555
4.28046
4.29295
4.30502
4.29332
4.26961
4.22782
4.17029
4.13204
4.11821
4.11431
4.12642
4.14079
4.13388
4.11774
4.09053
4.05342
4.02601
4.01322
4.00228
3.99052
3.97592
3.95316
3.92225
3.90254
3.89431
3.89131
3.8939
3.88751
3.87552
3.85672
3.82316
3.78572
3.76744
3.76118
3.75931
3.76249
3.75656
3.74604
3.73024
3.70499
3.68288
3.67437
3.66982
3.66831
3.66049
3.64809
3.62605
3.58912
3.54756
3.52381
3.51729
3.51613
3.53178
3.55444
3.55256
3.54131
3.51678
3.47141
3.43027
3.41374
3.408
3.40754
3.41358
3.40938
3.40043
3.38392
3.35138
3.32208
3.3114
3.30746
3.30784
3.317
3.31647
3.30759
3.29069
3.25408
3.20503
3.18465
3.17959
3.17826
3.18695
3.21468
3.22902
3.22226
3.20846
3.17974
3.13069
3.08908
3.07358
3.06759
3.06544
3.07465
3.08665
3.08166
3.07385
3.06021
3.03154
2.99529
2.9778
2.97375
2.97335
2.98592
3.00043
2.99836
2.98874
2.96678
2.92235
2.87858
2.85679
2.84957
2.84588
2.84587
2.8641
2.88556
2.88453
2.87761
2.86762
2.84611
2.80148
2.75544
2.73796
2.73182
2.72787
2.72604
2.73209
2.74044
2.74053
2.73716
2.73226
2.7256
2.71531
2.69436
2.66409
2.64415
2.63669
2.63158
2.62814
2.62627
2.62772
2.63524
2.63861
2.63502
2.6294
2.62055
2.60307
2.57448
2.53892
2.5134
2.50162
2.49653
2.49347
2.49191
2.49513
2.50231
2.50568
2.50411
2.49801
2.4874
2.47544
2.46676
2.45726
2.44259
2.42502
2.41697
2.41484
2.41572
2.41628
2.41286
2.40749
2.39698
2.3763
2.35442
2.34034
2.33195
2.32693
2.32383
2.32142
2.32317
2.3286
2.32666
2.32341
2.31964
2.31404
2.30388
2.28912
2.27819
2.27251
2.26835
2.26418
2.25838
2.24775
2.23389
2.22453
2.22086
2.21922
2.21867
2.22492
2.23822
2.24045
2.23765
2.23269
2.22065
2.19421
2.1607
2.14248
2.13682
2.1342
2.13233
2.13533
2.15449
2.17209
2.17299
2.17019
2.16633
2.15765
2.13556
2.10934
2.09882
2.09556
2.09332
2.09165
2.0934
2.09911
2.09806
2.095
2.091
2.08378
2.06625
2.0412
2.03207
2.02984
2.02829
2.02735
2.02593
2.02358
2.02122
2.01857
2.01506
2.01041
2.00657
2.00269
1.99705
1.99052
1.98734
1.98664
1.98654
1.98691
4.4684
4.44159
4.39601
4.34666
4.32635
4.32007
4.32963
4.33895
4.32691
4.30389
4.26275
4.20482
4.1664
4.15355
4.1514
4.16713
4.18113
4.17251
4.15483
4.12456
4.08466
4.05487
4.04169
4.03107
4.01953
4.00536
3.98421
3.9548
3.93466
3.92611
3.92252
3.92442
3.91799
3.90594
3.8875
3.85375
3.81455
3.79339
3.78612
3.78277
3.78433
3.77892
3.76989
3.75758
3.73401
3.70727
3.69707
3.69163
3.69003
3.68322
3.67221
3.65377
3.61658
3.57026
3.54331
3.53568
3.53333
3.5463
3.5677
3.56521
3.55467
3.53429
3.49786
3.45739
3.43748
3.4312
3.42948
3.43333
3.42822
3.41817
3.40319
3.37814
3.348
3.32762
3.32104
3.31859
3.32881
3.33522
3.32792
3.31185
3.2783
3.23081
3.20053
3.18913
3.18414
3.1877
3.21806
3.24478
3.24251
3.23116
3.20734
3.1606
3.11495
3.09736
3.09193
3.09013
3.09771
3.10683
3.10157
3.09058
3.07111
3.03671
2.99921
2.98348
2.97922
2.9786
2.99074
3.01339
3.01798
3.01207
3.00194
2.97902
2.93391
2.88643
2.86406
2.85572
2.85153
2.85095
2.85696
2.86452
2.867
2.86428
2.85674
2.84204
2.81653
2.78806
2.76269
2.74554
2.73863
2.73576
2.73544
2.73839
2.73828
2.73659
2.73488
2.72983
2.71821
2.69416
2.66766
2.65631
2.64863
2.64171
2.63775
2.63636
2.64028
2.64832
2.64859
2.64454
2.63899
2.62707
2.59927
2.55528
2.52412
2.50932
2.50375
2.50046
2.49771
2.49826
2.50895
2.52193
2.5239
2.52027
2.51482
2.50611
2.49037
2.46785
2.44372
2.42548
2.41827
2.41579
2.41536
2.42138
2.42527
2.42251
2.4183
2.41133
2.39321
2.36077
2.33843
2.33118
2.32808
2.32545
2.32369
2.32487
2.329
2.32901
2.32662
2.32374
2.31997
2.31305
2.29959
2.28427
2.27738
2.27424
2.26993
2.26117
2.24573
2.23086
2.22532
2.22288
2.22105
2.22258
2.23509
2.24849
2.24936
2.24623
2.24074
2.22562
2.18992
2.15453
2.1406
2.13702
2.13506
2.1339
2.13856
2.15796
2.17545
2.17721
2.17472
2.17046
2.16071
2.13666
2.10924
2.0993
2.09618
2.09425
2.09293
2.09254
2.09272
2.09432
2.09362
2.09147
2.08743
2.07645
2.05584
2.03707
2.03088
2.02823
2.02638
2.02456
2.02241
2.02012
2.01749
2.01369
2.00879
2.00508
2.00358
2.00242
2.00023
1.99582
1.98982
1.98483
1.98164
4.48509
4.43976
4.38818
4.36561
4.35855
4.36621
4.37446
4.36197
4.33733
4.2937
4.23809
4.2035
4.19181
4.1907
4.20798
4.22024
4.20991
4.19019
4.15692
4.1144
4.08303
4.06966
4.05907
4.04755
4.03447
4.01528
3.98673
3.96593
3.95711
3.95293
3.95403
3.94772
3.9358
3.91799
3.88475
3.84429
3.8193
3.811
3.80671
3.80709
3.80177
3.79199
3.77864
3.75465
3.73061
3.72023
3.71447
3.71113
3.70395
3.69391
3.67852
3.64882
3.60642
3.5718
3.55946
3.55473
3.56017
3.58217
3.58634
3.57619
3.55422
3.5124
3.47199
3.45713
3.45235
3.45162
3.45709
3.45321
3.4432
3.42832
3.40013
3.36806
3.34991
3.34384
3.34088
3.34702
3.34979
3.34136
3.32782
3.30018
3.25383
3.21898
3.20719
3.20264
3.2036
3.2246
3.25212
3.25107
3.24189
3.2242
3.18811
3.14391
3.1227
3.11727
3.11593
3.12398
3.13029
3.12405
3.11231
3.09106
3.05369
3.0135
2.99256
2.98597
2.98277
2.98801
3.01325
3.02841
3.02574
3.01854
3.00514
2.97999
2.94884
2.92327
2.90123
2.88054
2.8691
2.86471
2.86116
2.85802
2.85391
2.84769
2.83895
2.82759
2.81743
2.80762
2.79515
2.77676
2.75694
2.74752
2.74379
2.74319
2.74239
2.73728
2.73206
2.72449
2.71103
2.69256
2.67983
2.67259
2.66583
2.65923
2.654
2.65179
2.65326
2.65534
2.65341
2.6481
2.63907
2.62187
2.58627
2.54563
2.52313
2.51474
2.51014
2.50703
2.50538
2.50977
2.52438
2.5335
2.53271
2.52932
2.52442
2.51664
2.49711
2.46085
2.43187
2.42095
2.41717
2.41451
2.41544
2.42621
2.43113
2.42915
2.42557
2.42003
2.40434
2.36734
2.34049
2.33424
2.33124
2.32872
2.32728
2.3297
2.33303
2.33084
2.32809
2.32513
2.32167
2.3179
2.31138
2.29778
2.28167
2.27107
2.26455
2.25647
2.24382
2.23331
2.23011
2.2276
2.22564
2.22769
2.24286
2.25647
2.25617
2.25212
2.24458
2.22571
2.18706
2.15407
2.14522
2.14179
2.13975
2.13991
2.14959
2.16774
2.17209
2.17031
2.16851
2.16571
2.15925
2.14167
2.11782
2.10514
2.10021
2.0971
2.09484
2.09443
2.09525
2.09305
2.08999
2.08604
2.08201
2.07765
2.06704
2.05129
2.0371
2.02949
2.02575
2.02393
2.022
2.01953
2.0167
2.01264
2.00906
2.00732
2.0066
2.0062
2.00461
2.00119
1.9943
1.98564
1.9796
4.48406
4.43033
4.4054
4.39696
4.40221
4.40935
4.39666
4.3731
4.33054
4.27343
4.23664
4.22585
4.22683
4.24672
4.2565
4.24487
4.22359
4.18752
4.14232
4.11063
4.09707
4.08687
4.07542
4.06218
4.04393
4.01776
3.99681
3.9877
3.98293
3.98271
3.976
3.96443
3.94729
3.91494
3.87402
3.84623
3.83673
3.83138
3.83062
3.82516
3.8154
3.80318
3.77933
3.75234
3.73734
3.73038
3.72648
3.72216
3.71374
3.70074
3.67478
3.63367
3.60266
3.59116
3.58527
3.5881
3.60225
3.6003
3.58894
3.5696
3.53369
3.49326
3.47114
3.46419
3.46166
3.47048
3.47403
3.46577
3.4541
3.43091
3.39563
3.36829
3.36068
3.35732
3.3634
3.36914
3.36182
3.34947
3.32344
3.27965
3.24164
3.22593
3.2208
3.2212
3.23998
3.26303
3.26024
3.25011
3.23278
3.19921
3.16031
3.14433
3.13966
3.13899
3.14932
3.15717
3.15093
3.13814
3.11525
3.07777
3.03625
3.01011
3.00083
2.99652
2.99673
3.0131
3.02715
3.02382
3.0182
3.00824
2.9896
2.96822
2.95472
2.94719
2.93801
2.92303
2.90016
2.87923
2.86778
2.85784
2.8451
2.82957
2.82093
2.81785
2.81809
2.81857
2.81528
2.80892
2.79482
2.76959
2.74927
2.73864
2.73392
2.73083
2.72486
2.71524
2.7013
2.69438
2.69102
2.68692
2.68367
2.6816
2.6784
2.67256
2.66445
2.6548
2.64477
2.63603
2.624
2.60164
2.57213
2.54986
2.53876
2.52996
2.52185
2.51793
2.51809
2.52582
2.5347
2.53695
2.53581
2.53385
2.53006
2.5204
2.49466
2.45474
2.42978
2.42244
2.41874
2.41624
2.41717
2.42978
2.43739
2.43486
2.4307
2.42462
2.41146
2.38455
2.35388
2.34024
2.33556
2.3326
2.33114
2.33466
2.33631
2.33354
2.33121
2.32878
2.32557
2.32211
2.31742
2.30833
2.29255
2.27527
2.26173
2.25218
2.24414
2.24046
2.23794
2.23607
2.23543
2.24099
2.25157
2.25141
2.24878
2.24583
2.2389
2.2204
2.18609
2.16209
2.15526
2.15153
2.14933
2.15082
2.16131
2.16993
2.1691
2.1658
2.16194
2.15731
2.15133
2.14355
2.13066
2.11697
2.10842
2.10313
2.0988
2.09585
2.09341
2.09106
2.08801
2.08322
2.0772
2.07205
2.06832
2.06151
2.05079
2.03734
2.02803
2.02388
2.02176
2.01896
2.01511
2.0127
2.01121
2.01047
2.01013
2.00886
2.0069
2.00432
1.99961
1.99091
1.97867
4.47165
4.44452
4.43537
4.43908
4.44459
4.43162
4.40793
4.36532
4.31034
4.27617
4.2655
4.26654
4.28553
4.29156
4.27837
4.25451
4.21507
4.16878
4.1379
4.12446
4.11481
4.10355
4.09084
4.07365
4.04765
4.02545
4.01579
4.01028
4.00943
4.00281
3.99153
3.9747
3.94265
3.90166
3.87278
3.86245
3.85658
3.85517
3.84959
3.83989
3.82805
3.80517
3.77715
3.75847
3.7507
3.74431
3.73621
3.72625
3.71371
3.69398
3.66325
3.62942
3.61386
3.60903
3.6137
3.63044
3.63053
3.61782
3.59402
3.55145
3.5064
3.48521
3.47852
3.47569
3.4822
3.48864
3.48216
3.47342
3.45797
3.42991
3.39972
3.38859
3.38349
3.38396
3.38602
3.37863
3.36787
3.34547
3.30341
3.26362
3.24726
3.24226
3.24138
3.25601
3.27847
3.27717
3.26862
3.24997
3.21246
3.17242
3.15386
3.14883
3.14911
3.16465
3.17956
3.17568
3.16575
3.14695
3.10936
3.06069
3.03232
3.02321
3.0186
3.01805
3.0297
3.03892
3.03336
3.02688
3.01555
2.99561
2.9747
2.96521
2.96276
2.9636
2.96172
2.95504
2.94073
2.91055
2.87422
2.84653
2.82753
2.81704
2.8129
2.8132
2.82229
2.83198
2.83155
2.82722
2.82029
2.80433
2.7726
2.74668
2.73421
2.72531
2.71432
2.70343
2.69899
2.69738
2.69736
2.7011
2.70298
2.70102
2.69644
2.68937
2.67825
2.66407
2.64522
2.62247
2.59792
2.57778
2.56406
2.559
2.55508
2.54917
2.54302
2.53888
2.5379
2.54055
2.54599
2.54408
2.53893
2.53385
2.52734
2.5146
2.48616
2.45241
2.43811
2.43216
2.42774
2.4251
2.42571
2.4307
2.42944
2.42532
2.42094
2.41572
2.40842
2.39573
2.37688
2.35724
2.34464
2.33983
2.33755
2.33632
2.33519
2.33294
2.33089
2.32959
2.32709
2.32357
2.31992
2.31501
2.30356
2.27976
2.25692
2.2486
2.24661
2.24551
2.24439
2.24393
2.24863
2.25804
2.25752
2.25298
2.2473
2.24043
2.2283
2.20862
2.18772
2.17404
2.16722
2.16356
2.16199
2.16538
2.17125
2.16979
2.16738
2.16384
2.1587
2.15106
2.14359
2.13936
2.13644
2.13183
2.12423
2.11278
2.10324
2.09763
2.09304
2.08875
2.08553
2.08171
2.07548
2.06907
2.06637
2.0647
2.06008
2.04999
2.03541
2.02608
2.02176
2.01819
2.01527
2.01346
2.01241
2.01264
2.01416
2.0135
2.01234
2.0106
2.00624
1.99413
1.97278
4.48175
4.47213
4.47538
4.48076
4.46724
4.44328
4.40006
4.34575
4.31169
4.30147
4.30322
4.32189
4.32475
4.3108
4.28479
4.24128
4.19338
4.16391
4.15114
4.14244
4.13189
4.11952
4.10311
4.07812
4.05478
4.0443
4.03783
4.03548
4.02843
4.0172
4.00062
3.96899
3.92765
3.89774
3.88643
3.88063
3.87958
3.87476
3.86492
3.85309
3.8302
3.79921
3.77847
3.77047
3.76395
3.7559
3.74569
3.73407
3.71283
3.67876
3.65088
3.63969
3.63531
3.63874
3.65542
3.65755
3.6462
3.62579
3.58472
3.53292
3.5022
3.49187
3.48697
3.49023
3.5003
3.49618
3.48815
3.47623
3.4521
3.42613
3.41668
3.4128
3.41414
3.41262
3.40393
3.3904
3.36602
3.32885
3.29073
3.27072
3.2649
3.2633
3.27637
3.29867
3.2975
3.28663
3.2664
3.23002
3.1886
3.16685
3.16055
3.15916
3.17203
3.1935
3.19264
3.18473
3.173
3.14473
3.0955
3.05773
3.04547
3.04063
3.03984
3.04912
3.05602
3.05097
3.04297
3.02633
3.00047
2.98085
2.97372
2.9711
2.97359
2.98222
2.98189
2.97559
2.9646
2.93413
2.87766
2.83753
2.82208
2.81532
2.81119
2.81141
2.82989
2.84373
2.84176
2.83739
2.83243
2.82503
2.80796
2.77312
2.73611
2.71382
2.70386
2.69903
2.69674
2.6993
2.70905
2.72019
2.72197
2.71828
2.71306
2.70515
2.69108
2.6657
2.63073
2.59709
2.57969
2.57029
2.56546
2.56363
2.5649
2.56592
2.56604
2.56558
2.56119
2.55405
2.54736
2.54127
2.53527
2.52909
2.52
2.50261
2.47665
2.45742
2.45002
2.44456
2.44044
2.43945
2.43853
2.43486
2.43074
2.42542