/*--------------------------------*- C++ -*----------------------------------*\
  =========                 |
  \\      /  F ield         | OpenFOAM: The Open Source CFD Toolbox
   \\    /   O peration     | Website:  https://openfoam.org
    \\  /    A nd           | Version:  7
     \\/     M anipulation  |
\*---------------------------------------------------------------------------*/
FoamFile
{
    version     2.0;
    format      ascii;
    class       volVectorField;
    location    "2.3";
    object      U;
}
// * * * * * * * * * * * * * * * * * * * * * * * * * * * * * * * * * * * * * //

dimensions      [0 1 -1 0 0 0 0];

internalField   nonuniform List<vector> 
16192
(
(1.99373 -0.30112 0)
(2.00048 -0.30386 0)
(2.00085 -0.313239 0)
(1.99112 -0.330484 0)
(1.98477 -0.33997 0)
(1.98872 -0.340448 0)
(1.99685 -0.336359 0)
(2.0139 -0.324471 0)
(2.0287 -0.315605 0)
(2.03462 -0.315487 0)
(2.03867 -0.319181 0)
(2.03545 -0.328755 0)
(2.02868 -0.343223 0)
(2.02806 -0.351556 0)
(2.03299 -0.353548 0)
(2.03837 -0.351873 0)
(2.0486 -0.346338 0)
(2.06246 -0.337258 0)
(2.07172 -0.3332 0)
(2.07712 -0.334168 0)
(2.08128 -0.337617 0)
(2.08015 -0.344658 0)
(2.07526 -0.354518 0)
(2.07382 -0.359682 0)
(2.0783 -0.360709 0)
(2.08353 -0.359604 0)
(2.09068 -0.357452 0)
(2.09685 -0.356063 0)
(2.10197 -0.356383 0)
(2.10676 -0.356752 0)
(2.11125 -0.356777 0)
(2.1158 -0.356781 0)
(2.12038 -0.357177 0)
(2.12465 -0.358182 0)
(2.12784 -0.360533 0)
(2.1287 -0.365339 0)
(2.12726 -0.370273 0)
(2.12883 -0.372168 0)
(2.13312 -0.372081 0)
(2.1395 -0.371061 0)
(2.14945 -0.368282 0)
(2.15594 -0.367004 0)
(2.16096 -0.368571 0)
(2.1643 -0.372445 0)
(2.16352 -0.379188 0)
(2.15998 -0.385605 0)
(2.16053 -0.387238 0)
(2.16494 -0.386908 0)
(2.17067 -0.385743 0)
(2.17948 -0.384165 0)
(2.18455 -0.383807 0)
(2.18949 -0.384584 0)
(2.19125 -0.386767 0)
(2.18914 -0.391665 0)
(2.19089 -0.395293 0)
(2.19583 -0.395474 0)
(2.20186 -0.393041 0)
(2.21166 -0.387845 0)
(2.21907 -0.383796 0)
(2.22331 -0.384845 0)
(2.22673 -0.389142 0)
(2.22491 -0.396218 0)
(2.21867 -0.404505 0)
(2.21806 -0.408471 0)
(2.22256 -0.409114 0)
(2.22824 -0.407934 0)
(2.23981 -0.402902 0)
(2.25238 -0.39563 0)
(2.25766 -0.394212 0)
(2.26233 -0.395634 0)
(2.26436 -0.398852 0)
(2.26071 -0.405471 0)
(2.25855 -0.410664 0)
(2.26262 -0.41149 0)
(2.26716 -0.409516 0)
(2.27457 -0.405014 0)
(2.28196 -0.400226 0)
(2.28656 -0.399688 0)
(2.2908 -0.399763 0)
(2.29113 -0.401438 0)
(2.28578 -0.406995 0)
(2.28158 -0.412692 0)
(2.28475 -0.414191 0)
(2.28923 -0.412767 0)
(2.29557 -0.408251 0)
(2.30561 -0.399623 0)
(2.31255 -0.393496 0)
(2.31678 -0.393804 0)
(2.32049 -0.396167 0)
(2.31869 -0.403559 0)
(2.31192 -0.415783 0)
(2.30819 -0.421718 0)
(2.31163 -0.422009 0)
(2.31596 -0.420752 0)
(2.32601 -0.416994 0)
(2.34043 -0.40642 0)
(2.3498 -0.399325 0)
(2.3544 -0.398135 0)
(2.3572 -0.39791 0)
(2.35206 -0.400868 0)
(2.33888 -0.407115 0)
(2.33035 -0.410027 0)
(2.33091 -0.409503 0)
(2.33405 -0.407794 0)
(2.33874 -0.404236 0)
(2.35096 -0.399027 0)
(2.37162 -0.394182 0)
(2.38384 -0.394584 0)
(2.38784 -0.396397 0)
(2.39209 -0.39933 0)
(2.39022 -0.405205 0)
(2.38103 -0.416512 0)
(2.37398 -0.423841 0)
(2.375 -0.42229 0)
(2.37862 -0.417038 0)
(2.38286 -0.410808 0)
(2.38798 -0.405163 0)
(2.39385 -0.398998 0)
(2.39718 -0.398076 0)
(2.40109 -0.399274 0)
(2.40387 -0.401255 0)
(2.40203 -0.406794 0)
(2.39844 -0.41244 0)
(2.39962 -0.41338 0)
(2.40265 -0.413408 0)
(2.40593 -0.412813 0)
(2.41359 -0.411621 0)
(2.42109 -0.409135 0)
(2.42493 -0.40865 0)
(2.42968 -0.40924 0)
(2.43362 -0.410393 0)
(2.43381 -0.412332 0)
(2.42776 -0.415954 0)
(2.42409 -0.417357 0)
(2.42591 -0.415311 0)
(2.42907 -0.412466 0)
(2.43301 -0.409463 0)
(2.43685 -0.405407 0)
(2.44006 -0.401258 0)
(2.44351 -0.399381 0)
(2.44723 -0.399525 0)
(2.4505 -0.400739 0)
(2.45332 -0.402819 0)
(2.4551 -0.406676 0)
(2.45622 -0.412299 0)
(2.45912 -0.416619 0)
(2.46272 -0.419542 0)
(2.46609 -0.420996 0)
(2.46941 -0.421058 0)
(2.47174 -0.418876 0)
(2.47185 -0.413688 0)
(2.46943 -0.405282 0)
(2.46892 -0.398492 0)
(2.47167 -0.396338 0)
(2.47531 -0.396293 0)
(2.47932 -0.395592 0)
(2.48587 -0.39443 0)
(2.4903 -0.396034 0)
(2.49373 -0.399221 0)
(2.49633 -0.403259 0)
(2.49832 -0.407374 0)
(2.49688 -0.413994 0)
(2.49176 -0.420728 0)
(2.48992 -0.420853 0)
(2.49167 -0.417003 0)
(2.49409 -0.412271 0)
(2.49672 -0.407097 0)
(2.49972 -0.401355 0)
(2.50393 -0.396539 0)
(2.51098 -0.390964 0)
(2.51398 -0.389449 0)
(2.51775 -0.390587 0)
(2.5209 -0.392059 0)
(2.5231 -0.394378 0)
(2.52215 -0.399843 0)
(2.51781 -0.407092 0)
(2.51725 -0.40942 0)
(2.52022 -0.40949 0)
(2.5234 -0.408399 0)
(2.52986 -0.406431 0)
(2.53493 -0.403523 0)
(2.5381 -0.401751 0)
(2.54126 -0.400214 0)
(2.54199 -0.397418 0)
(2.53775 -0.394507 0)
(2.53357 -0.394969 0)
(2.53443 -0.397063 0)
(2.53744 -0.398264 0)
(2.54129 -0.399222 0)
(2.54489 -0.399949 0)
(2.54844 -0.400775 0)
(2.55233 -0.401652 0)
(2.55684 -0.402613 0)
(2.56088 -0.40354 0)
(2.56485 -0.40394 0)
(2.56787 -0.403848 0)
(2.57089 -0.403943 0)
(2.57355 -0.40359 0)
(2.57407 -0.400465 0)
(2.56956 -0.392549 0)
(2.56325 -0.385066 0)
(2.56199 -0.383966 0)
(2.56382 -0.386907 0)
(2.56553 -0.391465 0)
(2.56763 -0.396626 0)
(2.57026 -0.400262 0)
(2.57435 -0.403555 0)
(2.58172 -0.406918 0)
(2.59082 -0.406693 0)
(2.59785 -0.402895 0)
(2.6011 -0.3991 0)
(2.60324 -0.395565 0)
(2.60526 -0.390316 0)
(2.60365 -0.38373 0)
(2.59862 -0.379561 0)
(2.59388 -0.382014 0)
(2.59054 -0.389117 0)
(2.58803 -0.395349 0)
(2.58899 -0.397309 0)
(2.59061 -0.397898 0)
(2.59327 -0.397987 0)
(2.60003 -0.397116 0)
(2.61064 -0.393002 0)
(2.62015 -0.387065 0)
(2.62328 -0.384527 0)
(2.62616 -0.381747 0)
(2.62664 -0.378537 0)
(2.62111 -0.376576 0)
(2.6118 -0.377125 0)
(2.60945 -0.377256 0)
(2.61046 -0.376581 0)
(2.61148 -0.375579 0)
(2.61294 -0.373801 0)
(2.61645 -0.370432 0)
(2.62125 -0.366478 0)
(2.62544 -0.364559 0)
(2.62717 -0.363785 0)
(2.62751 -0.363278 0)
(2.6273 -0.361893 0)
(2.6251 -0.358256 0)
(2.62004 -0.352036 0)
(2.617 -0.346129 0)
(2.61723 -0.342642 0)
(2.6183 -0.340605 0)
(2.62009 -0.339389 0)
(2.62428 -0.338491 0)
(2.62831 -0.339347 0)
(2.63069 -0.341544 0)
(2.63249 -0.34379 0)
(2.63446 -0.345823 0)
(2.63614 -0.347112 0)
(2.638 -0.347407 0)
(2.63743 -0.345145 0)
(1.99744 -0.299703 0)
(1.99826 -0.307724 0)
(1.9891 -0.321956 0)
(1.98191 -0.331364 0)
(1.98568 -0.333077 0)
(1.99342 -0.329816 0)
(2.00995 -0.319006 0)
(2.02501 -0.310739 0)
(2.03109 -0.311121 0)
(2.03569 -0.315618 0)
(2.03305 -0.324923 0)
(2.02558 -0.337213 0)
(2.02409 -0.342699 0)
(2.02903 -0.343749 0)
(2.03519 -0.342582 0)
(2.04671 -0.33789 0)
(2.06063 -0.330207 0)
(2.06869 -0.32747 0)
(2.07455 -0.328942 0)
(2.07874 -0.332718 0)
(2.0772 -0.339679 0)
(2.0721 -0.34938 0)
(2.07144 -0.354361 0)
(2.07601 -0.355268 0)
(2.08121 -0.35365 0)
(2.08868 -0.350777 0)
(2.09559 -0.348486 0)
(2.10089 -0.348508 0)
(2.10594 -0.348998 0)
(2.11041 -0.34945 0)
(2.1147 -0.350158 0)
(2.11919 -0.350993 0)
(2.1236 -0.351998 0)
(2.12695 -0.353912 0)
(2.12759 -0.358323 0)
(2.12609 -0.364423 0)
(2.12844 -0.368112 0)
(2.13295 -0.368306 0)
(2.13874 -0.366508 0)
(2.14797 -0.363178 0)
(2.15471 -0.361522 0)
(2.15979 -0.362759 0)
(2.16367 -0.36579 0)
(2.16235 -0.371886 0)
(2.1588 -0.380436 0)
(2.16104 -0.385318 0)
(2.16567 -0.385692 0)
(2.17186 -0.383084 0)
(2.17975 -0.378337 0)
(2.18448 -0.376947 0)
(2.18919 -0.378027 0)
(2.1916 -0.380628 0)
(2.19027 -0.384845 0)
(2.19067 -0.387003 0)
(2.19542 -0.386989 0)
(2.20112 -0.385523 0)
(2.21085 -0.38137 0)
(2.21919 -0.377192 0)
(2.22379 -0.377139 0)
(2.22713 -0.379082 0)
(2.22406 -0.386064 0)
(2.21742 -0.397759 0)
(2.21779 -0.404449 0)
(2.22217 -0.405348 0)
(2.22737 -0.403017 0)
(2.23789 -0.397207 0)
(2.25067 -0.389165 0)
(2.25693 -0.38706 0)
(2.26158 -0.388287 0)
(2.26373 -0.391619 0)
(2.25962 -0.398254 0)
(2.25661 -0.403273 0)
(2.25986 -0.403757 0)
(2.26406 -0.402085 0)
(2.2713 -0.399249 0)
(2.28014 -0.395427 0)
(2.28477 -0.394671 0)
(2.28983 -0.395558 0)
(2.29211 -0.397873 0)
(2.28793 -0.402985 0)
(2.28228 -0.407134 0)
(2.28387 -0.40618 0)
(2.28787 -0.403464 0)
(2.29349 -0.399919 0)
(2.30281 -0.393643 0)
(2.31119 -0.388227 0)
(2.31542 -0.387833 0)
(2.31926 -0.389286 0)
(2.31646 -0.394945 0)
(2.30681 -0.406001 0)
(2.30509 -0.412701 0)
(2.3085 -0.414254 0)
(2.3127 -0.414589 0)
(2.32198 -0.411243 0)
(2.33611 -0.402465 0)
(2.34802 -0.395791 0)
(2.35288 -0.395056 0)
(2.35752 -0.395987 0)
(2.35566 -0.399877 0)
(2.34431 -0.405613 0)
(2.33306 -0.406845 0)
(2.33264 -0.403658 0)
(2.33624 -0.401169 0)
(2.34015 -0.398822 0)
(2.34908 -0.392354 0)
(2.3651 -0.381203 0)
(2.37784 -0.378517 0)
(2.38136 -0.38102 0)
(2.38431 -0.38501 0)
(2.38454 -0.393231 0)
(2.37884 -0.407276 0)
(2.37221 -0.417825 0)
(2.37544 -0.420202 0)
(2.3798 -0.418623 0)
(2.38561 -0.411546 0)
(2.39049 -0.402174 0)
(2.39441 -0.39504 0)
(2.39747 -0.391294 0)
(2.39944 -0.390145 0)
(2.39997 -0.391637 0)
(2.39821 -0.396986 0)
(2.39563 -0.402772 0)
(2.39652 -0.404352 0)
(2.40038 -0.404551 0)
(2.40453 -0.403297 0)
(2.41001 -0.402072 0)
(2.41831 -0.40048 0)
(2.42336 -0.400303 0)
(2.42692 -0.401249 0)
(2.43154 -0.402121 0)
(2.4327 -0.404299 0)
(2.42833 -0.410122 0)
(2.42424 -0.414304 0)
(2.42615 -0.413281 0)
(2.42979 -0.41083 0)
(2.43343 -0.406735 0)
(2.43693 -0.401001 0)
(2.43998 -0.396618 0)
(2.44306 -0.394295 0)
(2.44585 -0.393211 0)
(2.44839 -0.393082 0)
(2.45047 -0.393865 0)
(2.4509 -0.397067 0)
(2.45136 -0.401663 0)
(2.45437 -0.404455 0)
(2.4578 -0.4062 0)
(2.46133 -0.40821 0)
(2.46653 -0.41098 0)
(2.47006 -0.412468 0)
(2.4741 -0.413065 0)
(2.4772 -0.412385 0)
(2.47798 -0.40865 0)
(2.47729 -0.400979 0)
(2.47743 -0.392965 0)
(2.47869 -0.388485 0)
(2.48076 -0.386337 0)
(2.48341 -0.386139 0)
(2.48723 -0.387376 0)
(2.49097 -0.388959 0)
(2.49295 -0.393265 0)
(2.49223 -0.402297 0)
(2.48859 -0.411553 0)
(2.48942 -0.415749 0)
(2.49307 -0.416754 0)
(2.49683 -0.416131 0)
(2.50116 -0.411507 0)
(2.50507 -0.403149 0)
(2.50707 -0.393465 0)
(2.50874 -0.385673 0)
(2.51068 -0.382478 0)
(2.51305 -0.382062 0)
(2.51564 -0.382664 0)
(2.51822 -0.384 0)
(2.51865 -0.388643 0)
(2.5149 -0.396875 0)
(2.51387 -0.401226 0)
(2.51738 -0.401932 0)
(2.52053 -0.401831 0)
(2.52605 -0.401441 0)
(2.53386 -0.398923 0)
(2.53813 -0.396489 0)
(2.54186 -0.395568 0)
(2.54548 -0.395124 0)
(2.54667 -0.394076 0)
(2.54049 -0.392213 0)
(2.53301 -0.391451 0)
(2.53402 -0.391825 0)
(2.53725 -0.392418 0)
(2.54066 -0.392891 0)
(2.54423 -0.393338 0)
(2.54789 -0.393602 0)
(2.5518 -0.393758 0)
(2.55671 -0.394213 0)
(2.56245 -0.395201 0)
(2.56631 -0.395827 0)
(2.56872 -0.395801 0)
(2.57211 -0.395862 0)
(2.57509 -0.395602 0)
(2.5776 -0.395153 0)
(2.57767 -0.39227 0)
(2.5712 -0.38592 0)
(2.56252 -0.382015 0)
(2.56064 -0.383925 0)
(2.56242 -0.387395 0)
(2.56488 -0.390084 0)
(2.56731 -0.391721 0)
(2.57081 -0.393595 0)
(2.57957 -0.39692 0)
(2.59281 -0.397719 0)
(2.60287 -0.39447 0)
(2.60656 -0.391213 0)
(2.60897 -0.388315 0)
(2.61177 -0.384828 0)
(2.61139 -0.380611 0)
(2.60243 -0.37895 0)
(2.58923 -0.383281 0)
(2.58422 -0.387775 0)
(2.58587 -0.388885 0)
(2.58807 -0.389392 0)
(2.59018 -0.390344 0)
(2.59519 -0.391474 0)
(2.60522 -0.388918 0)
(2.61814 -0.382765 0)
(2.62454 -0.379919 0)
(2.62737 -0.379286 0)
(2.63107 -0.378368 0)
(2.63148 -0.377329 0)
(2.62272 -0.376089 0)
(2.61127 -0.374479 0)
(2.61022 -0.372834 0)
(2.6119 -0.371852 0)
(2.61335 -0.370671 0)
(2.61529 -0.369072 0)
(2.61901 -0.366396 0)
(2.62401 -0.362912 0)
(2.6275 -0.361238 0)
(2.62898 -0.360892 0)
(2.62937 -0.360721 0)
(2.62935 -0.360485 0)
(2.62885 -0.359117 0)
(2.62687 -0.354779 0)
(2.62324 -0.34806 0)
(2.62175 -0.342006 0)
(2.6225 -0.338014 0)
(2.62365 -0.335937 0)
(2.62598 -0.335268 0)
(2.62823 -0.335518 0)
(2.62924 -0.336323 0)
(2.6305 -0.338012 0)
(2.63208 -0.339455 0)
(2.63503 -0.34147 0)
(2.63811 -0.343453 0)
(2.63967 -0.34384 0)
(1.99601 -0.30007 0)
(1.98733 -0.313788 0)
(1.97952 -0.325441 0)
(1.98337 -0.32771 0)
(1.99048 -0.324204 0)
(2.00641 -0.313699 0)
(2.02149 -0.305023 0)
(2.02741 -0.305134 0)
(2.03196 -0.309365 0)
(2.02964 -0.318789 0)
(2.02246 -0.332301 0)
(2.02185 -0.33975 0)
(2.02726 -0.341019 0)
(2.03381 -0.338703 0)
(2.04566 -0.331966 0)
(2.05919 -0.323379 0)
(2.06586 -0.321067 0)
(2.07139 -0.322949 0)
(2.07458 -0.327567 0)
(2.07353 -0.335422 0)
(2.06973 -0.343973 0)
(2.06859 -0.347712 0)
(2.07314 -0.348353 0)
(2.07846 -0.346831 0)
(2.08642 -0.343912 0)
(2.09416 -0.34116 0)
(2.09951 -0.341152 0)
(2.10482 -0.341966 0)
(2.10954 -0.342781 0)
(2.11377 -0.343585 0)
(2.1181 -0.344415 0)
(2.12239 -0.345524 0)
(2.12583 -0.347634 0)
(2.12716 -0.351821 0)
(2.12557 -0.357155 0)
(2.12676 -0.359969 0)
(2.13131 -0.360123 0)
(2.13703 -0.359172 0)
(2.1462 -0.356756 0)
(2.15331 -0.355191 0)
(2.15838 -0.356467 0)
(2.16223 -0.359859 0)
(2.16231 -0.365873 0)
(2.15901 -0.372256 0)
(2.15911 -0.374394 0)
(2.16343 -0.374235 0)
(2.16941 -0.373169 0)
(2.17909 -0.371344 0)
(2.185 -0.370647 0)
(2.18997 -0.371592 0)
(2.19247 -0.373957 0)
(2.19043 -0.379477 0)
(2.1909 -0.383833 0)
(2.19544 -0.384085 0)
(2.20089 -0.381302 0)
(2.21024 -0.376599 0)
(2.21893 -0.372822 0)
(2.22389 -0.373037 0)
(2.22824 -0.375578 0)
(2.22611 -0.381443 0)
(2.21804 -0.390235 0)
(2.21499 -0.393947 0)
(2.2186 -0.393899 0)
(2.22363 -0.392733 0)
(2.23472 -0.389622 0)
(2.24861 -0.382651 0)
(2.25586 -0.379948 0)
(2.26017 -0.381205 0)
(2.26297 -0.38479 0)
(2.2594 -0.391103 0)
(2.25442 -0.396286 0)
(2.25667 -0.397002 0)
(2.26099 -0.396005 0)
(2.2677 -0.393616 0)
(2.27715 -0.38914 0)
(2.28218 -0.387467 0)
(2.28706 -0.38877 0)
(2.29017 -0.391597 0)
(2.28804 -0.396999 0)
(2.28297 -0.401404 0)
(2.28353 -0.401167 0)
(2.28796 -0.399945 0)
(2.29342 -0.396348 0)
(2.30229 -0.389296 0)
(2.30936 -0.382455 0)
(2.31346 -0.38158 0)
(2.31689 -0.382912 0)
(2.3152 -0.387189 0)
(2.30619 -0.395848 0)
(2.29992 -0.400777 0)
(2.30194 -0.401035 0)
(2.30556 -0.400355 0)
(2.31318 -0.399056 0)
(2.32951 -0.393628 0)
(2.34477 -0.388624 0)
(2.34974 -0.389103 0)
(2.35394 -0.391151 0)
(2.35582 -0.394483 0)
(2.34871 -0.401472 0)
(2.33673 -0.41057 0)
(2.33463 -0.411723 0)
(2.33927 -0.407542 0)
(2.34431 -0.399511 0)
(2.35116 -0.390178 0)
(2.36172 -0.377816 0)
(2.36959 -0.369374 0)
(2.37308 -0.369058 0)
(2.37687 -0.371066 0)
(2.37735 -0.378653 0)
(2.37277 -0.39299 0)
(2.36859 -0.405449 0)
(2.37141 -0.409234 0)
(2.37422 -0.409056 0)
(2.38256 -0.406707 0)
(2.39243 -0.401011 0)
(2.39706 -0.396944 0)
(2.40155 -0.393543 0)
(2.40398 -0.389545 0)
(2.40153 -0.388133 0)
(2.39605 -0.39126 0)
(2.39326 -0.3952 0)
(2.39565 -0.396789 0)
(2.39944 -0.397399 0)
(2.4028 -0.396897 0)
(2.40789 -0.395775 0)
(2.41486 -0.392188 0)
(2.41826 -0.390958 0)
(2.42272 -0.391703 0)
(2.42683 -0.393217 0)
(2.42886 -0.395815 0)
(2.42656 -0.401302 0)
(2.42251 -0.406536 0)
(2.42446 -0.407835 0)
(2.42816 -0.40677 0)
(2.43272 -0.402801 0)
(2.43732 -0.398729 0)
(2.44121 -0.3965 0)
(2.44515 -0.394588 0)
(2.44789 -0.391927 0)
(2.4491 -0.389396 0)
(2.44929 -0.388771 0)
(2.44815 -0.390738 0)
(2.447 -0.393539 0)
(2.44938 -0.394896 0)
(2.45323 -0.395799 0)
(2.45689 -0.396866 0)
(2.46077 -0.398235 0)
(2.46497 -0.399983 0)
(2.47028 -0.403243 0)
(2.47437 -0.405357 0)
(2.47848 -0.405914 0)
(2.48194 -0.404702 0)
(2.48436 -0.399399 0)
(2.48554 -0.391892 0)
(2.48466 -0.384148 0)
(2.48321 -0.37899 0)
(2.48423 -0.377726 0)
(2.48613 -0.378415 0)
(2.48689 -0.382221 0)
(2.48492 -0.391117 0)
(2.48305 -0.400991 0)
(2.48588 -0.405104 0)
(2.48907 -0.407067 0)
(2.49415 -0.409314 0)
(2.5008 -0.408542 0)
(2.50716 -0.402989 0)
(2.51217 -0.395208 0)
(2.51464 -0.389904 0)
(2.51749 -0.384966 0)
(2.51771 -0.379453 0)
(2.51637 -0.375704 0)
(2.51578 -0.375827 0)
(2.51482 -0.380421 0)
(2.51184 -0.387865 0)
(2.51089 -0.392408 0)
(2.51409 -0.393485 0)
(2.51699 -0.39392 0)
(2.5209 -0.393794 0)
(2.52826 -0.392901 0)
(2.53678 -0.391398 0)
(2.54092 -0.390469 0)
(2.54454 -0.390599 0)
(2.54826 -0.390997 0)
(2.55005 -0.391118 0)
(2.54483 -0.389981 0)
(2.53528 -0.387227 0)
(2.53452 -0.386112 0)
(2.53731 -0.386019 0)
(2.54053 -0.386312 0)
(2.54382 -0.386684 0)
(2.54733 -0.386661 0)
(2.5515 -0.386123 0)
(2.55614 -0.385938 0)
(2.56066 -0.386392 0)
(2.56546 -0.387542 0)
(2.5697 -0.388357 0)
(2.57264 -0.388287 0)
(2.57616 -0.388273 0)
(2.57939 -0.388554 0)
(2.58164 -0.388356 0)
(2.57771 -0.385608 0)
(2.56537 -0.381742 0)
(2.55839 -0.38156 0)
(2.55955 -0.382827 0)
(2.56218 -0.383582 0)
(2.56459 -0.3841 0)
(2.56762 -0.384793 0)
(2.57699 -0.386141 0)
(2.59336 -0.386596 0)
(2.60599 -0.3849 0)
(2.61009 -0.38313 0)
(2.61253 -0.382233 0)
(2.61606 -0.38152 0)
(2.61611 -0.380574 0)
(2.60341 -0.380459 0)
(2.58675 -0.381404 0)
(2.58457 -0.381524 0)
(2.58718 -0.381416 0)
(2.58956 -0.381487 0)
(2.59172 -0.381603 0)
(2.59801 -0.38109 0)
(2.61157 -0.377411 0)
(2.62372 -0.374708 0)
(2.62668 -0.37478 0)
(2.62982 -0.375814 0)
(2.63338 -0.376564 0)
(2.63384 -0.376572 0)
(2.62516 -0.374821 0)
(2.61455 -0.370947 0)
(2.61402 -0.368318 0)
(2.61598 -0.366858 0)
(2.61792 -0.365585 0)
(2.62 -0.364383 0)
(2.62421 -0.362317 0)
(2.62719 -0.360122 0)
(2.62893 -0.359287 0)
(2.6301 -0.358744 0)
(2.63087 -0.358025 0)
(2.63123 -0.35724 0)
(2.63128 -0.356601 0)
(2.63128 -0.354848 0)
(2.63095 -0.350079 0)
(2.62913 -0.343755 0)
(2.6279 -0.337271 0)
(2.6277 -0.333483 0)
(2.6281 -0.332494 0)
(2.62893 -0.332457 0)
(2.62984 -0.33266 0)
(2.63095 -0.333117 0)
(2.63214 -0.333999 0)
(2.63398 -0.335618 0)
(2.63793 -0.337979 0)
(2.64309 -0.338637 0)
(1.98719 -0.305714 0)
(1.97751 -0.316805 0)
(1.97973 -0.318995 0)
(1.98616 -0.316411 0)
(2.00136 -0.308199 0)
(2.01769 -0.300286 0)
(2.02427 -0.300234 0)
(2.02953 -0.303986 0)
(2.02703 -0.313291 0)
(2.01951 -0.326974 0)
(2.01928 -0.333362 0)
(2.02444 -0.333895 0)
(2.03159 -0.331335 0)
(2.04411 -0.324373 0)
(2.05746 -0.316574 0)
(2.06368 -0.315138 0)
(2.06953 -0.316793 0)
(2.07162 -0.32123 0)
(2.06872 -0.329763 0)
(2.06514 -0.340061 0)
(2.06658 -0.34514 0)
(2.07162 -0.34569 0)
(2.07717 -0.342723 0)
(2.08519 -0.337955 0)
(2.09263 -0.334099 0)
(2.09807 -0.333902 0)
(2.10341 -0.334737 0)
(2.10789 -0.335728 0)
(2.11205 -0.337153 0)
(2.1167 -0.338443 0)
(2.1214 -0.339568 0)
(2.12531 -0.341229 0)
(2.12674 -0.34501 0)
(2.12513 -0.35128 0)
(2.12625 -0.355578 0)
(2.13084 -0.356127 0)
(2.13625 -0.354706 0)
(2.14463 -0.35188 0)
(2.15211 -0.34994 0)
(2.15732 -0.350877 0)
(2.1618 -0.353297 0)
(2.16189 -0.358422 0)
(2.15846 -0.366537 0)
(2.15967 -0.371635 0)
(2.16417 -0.372146 0)
(2.16981 -0.369982 0)
(2.17863 -0.365827 0)
(2.18425 -0.363604 0)
(2.18908 -0.3647 0)
(2.19245 -0.367629 0)
(2.19193 -0.372079 0)
(2.19039 -0.374183 0)
(2.19427 -0.373887 0)
(2.19931 -0.372953 0)
(2.20853 -0.370101 0)
(2.21789 -0.366122 0)
(2.22268 -0.366263 0)
(2.22682 -0.369333 0)
(2.22609 -0.375229 0)
(2.2194 -0.383764 0)
(2.21483 -0.388474 0)
(2.21828 -0.389421 0)
(2.22283 -0.388587 0)
(2.23213 -0.384604 0)
(2.24584 -0.37604 0)
(2.25435 -0.372049 0)
(2.25848 -0.372838 0)
(2.26177 -0.375641 0)
(2.25877 -0.382248 0)
(2.25324 -0.39031 0)
(2.25483 -0.393167 0)
(2.2591 -0.392584 0)
(2.26474 -0.389484 0)
(2.27394 -0.383984 0)
(2.27964 -0.380901 0)
(2.28451 -0.381642 0)
(2.28818 -0.383459 0)
(2.28579 -0.388447 0)
(2.28065 -0.396179 0)
(2.2824 -0.399852 0)
(2.28666 -0.399492 0)
(2.29243 -0.395182 0)
(2.3023 -0.386538 0)
(2.30982 -0.378522 0)
(2.31418 -0.376846 0)
(2.3171 -0.375954 0)
(2.31381 -0.379045 0)
(2.30479 -0.387811 0)
(2.29883 -0.393286 0)
(2.30104 -0.39378 0)
(2.30517 -0.392946 0)
(2.31059 -0.390497 0)
(2.32225 -0.384268 0)
(2.33891 -0.377205 0)
(2.34693 -0.377183 0)
(2.35145 -0.379576 0)
(2.35327 -0.384766 0)
(2.34835 -0.394705 0)
(2.33882 -0.405179 0)
(2.33676 -0.40637 0)
(2.34139 -0.404403 0)
(2.34653 -0.39971 0)
(2.35481 -0.390977 0)
(2.36389 -0.376072 0)
(2.36834 -0.366638 0)
(2.3716 -0.363302 0)
(2.37274 -0.362603 0)
(2.36938 -0.368678 0)
(2.36286 -0.382435 0)
(2.36018 -0.392842 0)
(2.36322 -0.395754 0)
(2.36655 -0.397535 0)
(2.37617 -0.399662 0)
(2.38912 -0.396086 0)
(2.39755 -0.391772 0)
(2.40178 -0.390122 0)
(2.40677 -0.389085 0)
(2.40871 -0.387688 0)
(2.40268 -0.387884 0)
(2.39399 -0.389517 0)
(2.39279 -0.389334 0)
(2.39644 -0.38823 0)
(2.39998 -0.386721 0)
(2.40409 -0.38532 0)
(2.41016 -0.383476 0)
(2.41341 -0.383188 0)
(2.41846 -0.38412 0)
(2.42326 -0.38521 0)
(2.42618 -0.386784 0)
(2.4238 -0.392553 0)
(2.42 -0.398774 0)
(2.42261 -0.400405 0)
(2.42582 -0.399932 0)
(2.43034 -0.397689 0)
(2.43621 -0.394308 0)
(2.44061 -0.391989 0)
(2.44487 -0.390742 0)
(2.4486 -0.389162 0)
(2.45115 -0.387422 0)
(2.45176 -0.386203 0)
(2.44985 -0.386009 0)
(2.44678 -0.386945 0)
(2.44624 -0.387672 0)
(2.44864 -0.387819 0)
(2.45182 -0.388269 0)
(2.45537 -0.3894 0)
(2.45906 -0.390735 0)
(2.46257 -0.392047 0)
(2.46617 -0.393486 0)
(2.47234 -0.395255 0)
(2.47945 -0.394527 0)
(2.48437 -0.392876 0)
(2.48791 -0.391749 0)
(2.49125 -0.389866 0)
(2.49291 -0.385013 0)
(2.4909 -0.377612 0)
(2.48558 -0.372632 0)
(2.48088 -0.375258 0)
(2.47755 -0.383966 0)
(2.47523 -0.392755 0)
(2.47719 -0.396505 0)
(2.48015 -0.397632 0)
(2.48355 -0.398654 0)
(2.49148 -0.398784 0)
(2.50335 -0.396973 0)
(2.51349 -0.392914 0)
(2.51807 -0.389385 0)
(2.5216 -0.386227 0)
(2.5251 -0.382017 0)
(2.52597 -0.376225 0)
(2.52134 -0.37155 0)
(2.5136 -0.373779 0)
(2.50867 -0.380706 0)
(2.50796 -0.384119 0)
(2.51107 -0.384945 0)
(2.51413 -0.38528 0)
(2.51717 -0.385588 0)
(2.52201 -0.385654 0)
(2.53081 -0.383699 0)
(2.53813 -0.382229 0)
(2.54154 -0.383092 0)
(2.54534 -0.38442 0)
(2.54853 -0.385963 0)
(2.55015 -0.387778 0)
(2.54714 -0.388617 0)
(2.54101 -0.385904 0)
(2.53789 -0.381838 0)
(2.539 -0.379851 0)
(2.54227 -0.37951 0)
(2.54534 -0.379684 0)
(2.54832 -0.379541 0)
(2.5528 -0.378887 0)
(2.5579 -0.378708 0)
(2.56215 -0.3792 0)
(2.56642 -0.380024 0)
(2.57141 -0.381689 0)
(2.57448 -0.382889 0)
(2.57773 -0.383404 0)
(2.58141 -0.383888 0)
(2.58407 -0.384212 0)
(2.58166 -0.383403 0)
(2.5692 -0.379706 0)
(2.5593 -0.376361 0)
(2.56035 -0.375154 0)
(2.56299 -0.37451 0)
(2.56533 -0.373928 0)
(2.56829 -0.373001 0)
(2.57714 -0.371572 0)
(2.59392 -0.371156 0)
(2.60683 -0.373934 0)
(2.61023 -0.375654 0)
(2.61356 -0.377439 0)
(2.61722 -0.3796 0)
(2.61678 -0.381103 0)
(2.60429 -0.380471 0)
(2.58823 -0.377334 0)
(2.58672 -0.375386 0)
(2.58909 -0.374291 0)
(2.59163 -0.373141 0)
(2.59491 -0.371879 0)
(2.60322 -0.369712 0)
(2.61727 -0.36673 0)
(2.6259 -0.366241 0)
(2.62813 -0.366958 0)
(2.63134 -0.369195 0)
(2.63341 -0.372164 0)
(2.63256 -0.374978 0)
(2.62641 -0.375393 0)
(2.61981 -0.371253 0)
(2.61825 -0.36627 0)
(2.61963 -0.363075 0)
(2.62162 -0.360768 0)
(2.62347 -0.358835 0)
(2.62596 -0.357463 0)
(2.62954 -0.355747 0)
(2.63109 -0.3549 0)
(2.63255 -0.354542 0)
(2.63296 -0.35419 0)
(2.63325 -0.353526 0)
(2.63403 -0.352924 0)
(2.63488 -0.351623 0)
(2.63556 -0.349329 0)
(2.63635 -0.345236 0)
(2.63529 -0.339623 0)
(2.63266 -0.333509 0)
(2.6312 -0.329941 0)
(2.63143 -0.328876 0)
(2.63189 -0.32847 0)
(2.63243 -0.328602 0)
(2.6332 -0.329408 0)
(2.63396 -0.330402 0)
(2.63614 -0.331406 0)
(2.64261 -0.331238 0)
(1.97676 -0.30913 0)
(1.97717 -0.312429 0)
(1.98279 -0.310565 0)
(1.99624 -0.303662 0)
(2.01308 -0.295772 0)
(2.02011 -0.295598 0)
(2.02583 -0.299764 0)
(2.02533 -0.308367 0)
(2.01826 -0.320012 0)
(2.01605 -0.325745 0)
(2.02106 -0.326522 0)
(2.02877 -0.324573 0)
(2.04245 -0.317631 0)
(2.05592 -0.310244 0)
(2.06164 -0.309398 0)
(2.06698 -0.311951 0)
(2.06825 -0.317992 0)
(2.06572 -0.32681 0)
(2.06193 -0.334216 0)
(2.0628 -0.336581 0)
(2.06783 -0.336593 0)
(2.07395 -0.334524 0)
(2.08351 -0.330603 0)
(2.09136 -0.327107 0)
(2.09678 -0.3271 0)
(2.10204 -0.328087 0)
(2.10611 -0.329673 0)
(2.11011 -0.331646 0)
(2.11493 -0.333007 0)
(2.1199 -0.334101 0)
(2.12426 -0.335726 0)
(2.1266 -0.339111 0)
(2.12534 -0.344253 0)
(2.12499 -0.347712 0)
(2.12941 -0.348156 0)
(2.1346 -0.347523 0)
(2.14271 -0.345798 0)
(2.15067 -0.344079 0)
(2.15587 -0.3449 0)
(2.16055 -0.347515 0)
(2.1619 -0.352467 0)
(2.15906 -0.358804 0)
(2.15816 -0.361926 0)
(2.1623 -0.362092 0)
(2.16766 -0.360918 0)
(2.17693 -0.358334 0)
(2.18368 -0.356584 0)
(2.18846 -0.357471 0)
(2.19193 -0.359698 0)
(2.19106 -0.36504 0)
(2.19064 -0.371214 0)
(2.19471 -0.372908 0)
(2.19942 -0.371299 0)
(2.2079 -0.366461 0)
(2.21716 -0.360992 0)
(2.22206 -0.360456 0)
(2.22676 -0.361721 0)
(2.22591 -0.366455 0)
(2.21834 -0.376888 0)
(2.21441 -0.385375 0)
(2.21813 -0.387177 0)
(2.22264 -0.385112 0)
(2.23097 -0.379715 0)
(2.2435 -0.370228 0)
(2.25244 -0.364774 0)
(2.25675 -0.365149 0)
(2.26034 -0.367757 0)
(2.25755 -0.374122 0)
(2.2517 -0.382622 0)
(2.25234 -0.385524 0)
(2.25617 -0.384956 0)
(2.26127 -0.382618 0)
(2.27016 -0.378431 0)
(2.27693 -0.374933 0)
(2.2815 -0.375228 0)
(2.28567 -0.376776 0)
(2.28442 -0.381222 0)
(2.27907 -0.387376 0)
(2.27777 -0.388027 0)
(2.28141 -0.38681 0)
(2.28649 -0.384414 0)
(2.29719 -0.379459 0)
(2.30786 -0.373637 0)
(2.31262 -0.372797 0)
(2.31768 -0.373598 0)
(2.31696 -0.376561 0)
(2.30688 -0.383037 0)
(2.29837 -0.388433 0)
(2.30002 -0.389776 0)
(2.30408 -0.388592 0)
(2.30939 -0.38461 0)
(2.31998 -0.377787 0)
(2.33368 -0.368466 0)
(2.3396 -0.366193 0)
(2.34444 -0.367236 0)
(2.34803 -0.370436 0)
(2.34579 -0.380357 0)
(2.33759 -0.394611 0)
(2.33637 -0.400764 0)
(2.33993 -0.401047 0)
(2.34531 -0.397858 0)
(2.35555 -0.389836 0)
(2.36664 -0.377037 0)
(2.37255 -0.36937 0)
(2.37627 -0.365584 0)
(2.37628 -0.36269 0)
(2.36934 -0.36533 0)
(2.35783 -0.375055 0)
(2.35182 -0.381844 0)
(2.35421 -0.383141 0)
(2.35782 -0.383161 0)
(2.3639 -0.382141 0)
(2.37739 -0.381283 0)
(2.3926 -0.382293 0)
(2.39861 -0.383346 0)
(2.40332 -0.38436 0)
(2.40879 -0.386134 0)
(2.40983 -0.387993 0)
(2.40314 -0.389078 0)
(2.3959 -0.387737 0)
(2.3962 -0.383828 0)
(2.39923 -0.380366 0)
(2.40321 -0.378016 0)
(2.4075 -0.375538 0)
(2.41118 -0.374888 0)
(2.41535 -0.376172 0)
(2.41915 -0.377957 0)
(2.42225 -0.379955 0)
(2.42069 -0.385301 0)
(2.41702 -0.3906 0)
(2.41871 -0.391182 0)
(2.42197 -0.391007 0)
(2.42583 -0.389608 0)
(2.43246 -0.387299 0)
(2.43798 -0.384595 0)
(2.44251 -0.383209 0)
(2.44656 -0.382539 0)
(2.45003 -0.382139 0)
(2.45296 -0.381925 0)
(2.45339 -0.382434 0)
(2.44985 -0.383094 0)
(2.44574 -0.383308 0)
(2.44581 -0.382664 0)
(2.44807 -0.382014 0)
(2.45083 -0.381969 0)
(2.45416 -0.382434 0)
(2.45817 -0.382861 0)
(2.46197 -0.383138 0)
(2.46571 -0.383082 0)
(2.47285 -0.384423 0)
(2.48135 -0.385687 0)
(2.4882 -0.384061 0)
(2.49188 -0.38155 0)
(2.49541 -0.379193 0)
(2.49869 -0.377154 0)
(2.49759 -0.375319 0)
(2.48761 -0.376304 0)
(2.4752 -0.380854 0)
(2.47086 -0.384569 0)
(2.47236 -0.386045 0)
(2.47549 -0.386879 0)
(2.47853 -0.387651 0)
(2.48288 -0.388456 0)
(2.49324 -0.3886 0)
(2.50709 -0.385622 0)
(2.51736 -0.382281 0)
(2.52212 -0.379867 0)
(2.52588 -0.377794 0)
(2.53004 -0.376312 0)
(2.53264 -0.374576 0)
(2.52583 -0.373495 0)
(2.51056 -0.375262 0)
(2.50624 -0.377225 0)
(2.50958 -0.3779 0)
(2.51247 -0.377986 0)
(2.51553 -0.3776 0)
(2.51887 -0.376943 0)
(2.52453 -0.376239 0)
(2.5319 -0.375987 0)
(2.53526 -0.376531 0)
(2.53943 -0.377544 0)
(2.54331 -0.378468 0)
(2.54619 -0.379168 0)
(2.5468 -0.380996 0)
(2.54562 -0.383683 0)
(2.54448 -0.383975 0)
(2.54427 -0.381219 0)
(2.54425 -0.376788 0)
(2.54405 -0.372691 0)
(2.54599 -0.371165 0)
(2.54901 -0.371054 0)
(2.5521 -0.371467 0)
(2.55558 -0.371932 0)
(2.55939 -0.372373 0)
(2.56332 -0.372765 0)
(2.5685 -0.373744 0)
(2.5736 -0.375952 0)
(2.57641 -0.37791 0)
(2.57966 -0.37936 0)
(2.5829 -0.380552 0)
(2.58333 -0.381755 0)
(2.57547 -0.380733 0)
(2.56492 -0.375158 0)
(2.56425 -0.370489 0)
(2.56709 -0.367836 0)
(2.56988 -0.365764 0)
(2.57359 -0.363826 0)
(2.58212 -0.36074 0)
(2.59486 -0.358971 0)
(2.60461 -0.360669 0)
(2.60819 -0.364622 0)
(2.60963 -0.368824 0)
(2.61121 -0.374161 0)
(2.61086 -0.379547 0)
(2.60428 -0.381984 0)
(2.59426 -0.378244 0)
(2.59147 -0.372682 0)
(2.5936 -0.369501 0)
(2.59637 -0.367231 0)
(2.6007 -0.364309 0)
(2.61061 -0.359911 0)
(2.62046 -0.358272 0)
(2.62303 -0.35862 0)
(2.62627 -0.359828 0)
(2.62915 -0.362185 0)
(2.63018 -0.365521 0)
(2.62837 -0.369679 0)
(2.6253 -0.372268 0)
(2.62392 -0.370421 0)
(2.62374 -0.36579 0)
(2.62313 -0.359885 0)
(2.6238 -0.355443 0)
(2.62586 -0.353233 0)
(2.62785 -0.351947 0)
(2.62937 -0.351888 0)
(2.63117 -0.352092 0)
(2.63243 -0.352149 0)
(2.63264 -0.351924 0)
(2.63395 -0.35126 0)
(2.63533 -0.350187 0)
(2.6374 -0.348274 0)
(2.63931 -0.345417 0)
(2.64027 -0.343293 0)
(2.6414 -0.339752 0)
(2.63964 -0.334407 0)
(2.63549 -0.329483 0)
(2.63358 -0.32774 0)
(2.63365 -0.327206 0)
(2.63387 -0.326581 0)
(2.63396 -0.326005 0)
(2.63406 -0.325659 0)
(2.63544 -0.324339 0)
(2.64193 -0.322593 0)
(1.97527 -0.306324 0)
(1.98019 -0.304839 0)
(1.99156 -0.298839 0)
(2.00805 -0.290812 0)
(2.01607 -0.289957 0)
(2.02246 -0.293085 0)
(2.02254 -0.300993 0)
(2.01606 -0.314374 0)
(2.01475 -0.322719 0)
(2.01996 -0.323662 0)
(2.02732 -0.320271 0)
(2.04083 -0.311888 0)
(2.05416 -0.304347 0)
(2.05982 -0.303748 0)
(2.06507 -0.306008 0)
(2.06537 -0.311535 0)
(2.0612 -0.321688 0)
(2.05824 -0.33142 0)
(2.06165 -0.335526 0)
(2.06694 -0.335445 0)
(2.07345 -0.331456 0)
(2.083 -0.325006 0)
(2.09022 -0.320486 0)
(2.09586 -0.320513 0)
(2.1007 -0.321452 0)
(2.10388 -0.32373 0)
(2.1076 -0.326317 0)
(2.11269 -0.32776 0)
(2.11795 -0.328778 0)
(2.1228 -0.330107 0)
(2.12584 -0.332966 0)
(2.12533 -0.338543 0)
(2.12473 -0.343526 0)
(2.12903 -0.344556 0)
(2.13406 -0.343487 0)
(2.14141 -0.340819 0)
(2.14929 -0.338219 0)
(2.15447 -0.338676 0)
(2.15954 -0.340664 0)
(2.16135 -0.344925 0)
(2.15874 -0.352545 0)
(2.15839 -0.358515 0)
(2.16281 -0.359494 0)
(2.16781 -0.357917 0)
(2.17596 -0.354277 0)
(2.1828 -0.351225 0)
(2.18753 -0.351673 0)
(2.1912 -0.353647 0)
(2.19127 -0.357457 0)
(2.18895 -0.360538 0)
(2.19155 -0.360354 0)
(2.19614 -0.359475 0)
(2.20439 -0.357845 0)
(2.21489 -0.355116 0)
(2.22027 -0.354971 0)
(2.22555 -0.357488 0)
(2.22637 -0.362561 0)
(2.21967 -0.371036 0)
(2.21318 -0.376293 0)
(2.21517 -0.376258 0)
(2.21942 -0.375044 0)
(2.22792 -0.372184 0)
(2.24112 -0.364269 0)
(2.25088 -0.358684 0)
(2.25515 -0.358647 0)
(2.25864 -0.360681 0)
(2.25619 -0.366239 0)
(2.24977 -0.374173 0)
(2.24856 -0.376934 0)
(2.25251 -0.377122 0)
(2.25737 -0.375874 0)
(2.26625 -0.372362 0)
(2.27371 -0.368262 0)
(2.27813 -0.368246 0)
(2.28236 -0.369762 0)
(2.28207 -0.373114 0)
(2.27695 -0.379199 0)
(2.27636 -0.382851 0)
(2.28029 -0.383494 0)
(2.28478 -0.381073 0)