/*--------------------------------*- C++ -*----------------------------------*\
  =========                 |
  \\      /  F ield         | OpenFOAM: The Open Source CFD Toolbox
   \\    /   O peration     | Website:  https://openfoam.org
    \\  /    A nd           | Version:  7
     \\/     M anipulation  |
\*---------------------------------------------------------------------------*/
FoamFile
{
    version     2.0;
    format      ascii;
    class       volVectorField;
    location    "1.4";
    object      U;
}
// * * * * * * * * * * * * * * * * * * * * * * * * * * * * * * * * * * * * * //

dimensions      [0 1 -1 0 0 0 0];

internalField   nonuniform List<vector> 
4048
(
(3 2.20614e-17 0)
(3 1.36815e-16 0)
(3 1.5039e-16 0)
(3 1.40251e-16 0)
(3 2.88148e-16 0)
(3 4.5024e-16 0)
(3 -1.24847e-17 0)
(3 -4.68643e-16 0)
(3 -9.43909e-16 0)
(3 -9.66694e-16 0)
(3 -4.56006e-16 0)
(3 5.88119e-16 0)
(3 1.40515e-15 0)
(3 5.67885e-16 0)
(3 -1.01894e-16 0)
(3 3.52708e-16 0)
(1.89928 0.0195247 0)
(0.752922 0.02445 0)
(0.625345 0.0356581 0)
(0.540673 0.0406126 0)
(0.444251 0.0455786 0)
(0.338348 0.0535676 0)
(0.214772 0.0594604 0)
(0.0842728 0.0706193 0)
(3 4.43482e-17 0)
(3 3.195e-16 0)
(3 3.04175e-16 0)
(3 4.43891e-16 0)
(3 7.51542e-16 0)
(3 5.94336e-16 0)
(3 -3.16056e-16 0)
(3 -1.35216e-15 0)
(3 -1.87644e-15 0)
(3 -1.52071e-15 0)
(3 -6.31567e-16 0)
(3 1.66721e-15 0)
(3 3.12744e-15 0)
(3 2.3756e-15 0)
(3 1.29165e-15 0)
(3 1.08042e-15 0)
(1.95236 0.095656 0)
(0.744904 0.110747 0)
(0.600999 0.112552 0)
(0.513663 0.123824 0)
(0.416567 0.138125 0)
(0.315335 0.163674 0)
(0.200745 0.18912 0)
(0.0741966 0.223478 0)
(3 4.10764e-17 0)
(3 5.01889e-17 0)
(3 1.15905e-16 0)
(3 1.78731e-17 0)
(3 1.90424e-16 0)
(3 -5.12403e-16 0)
(3 -9.16054e-16 0)
(3 -1.37936e-15 0)
(3 -1.01532e-15 0)
(3 -8.19489e-16 0)
(3 -2.95069e-16 0)
(3 5.3818e-16 0)
(3 1.46526e-15 0)
(3 2.25801e-15 0)
(3 2.23028e-15 0)
(3 1.41151e-15 0)
(2.13518 0.170184 0)
(0.783355 0.204686 0)
(0.614424 0.195059 0)
(0.525378 0.213126 0)
(0.433223 0.232094 0)
(0.347732 0.266805 0)
(0.241148 0.30489 0)
(0.11644 0.372792 0)
(3 -5.16066e-17 0)
(3 -1.28769e-16 0)
(3 -1.31628e-16 0)
(3 -4.03563e-16 0)
(3 -8.04921e-16 0)
(3 -7.39727e-16 0)
(3 -1.04178e-15 0)
(3 -9.54145e-16 0)
(3 -1.02051e-15 0)
(3 -1.15437e-15 0)
(3 -1.02617e-15 0)
(3 -8.26019e-16 0)
(3 5.89624e-17 0)
(3 1.26868e-15 0)
(3 1.18314e-15 0)
(3 1.01908e-15 0)
(2.42141 0.223685 0)
(0.854397 0.30459 0)
(0.651816 0.282097 0)
(0.572855 0.300935 0)
(0.487881 0.315824 0)
(0.407647 0.36382 0)
(0.272635 0.44927 0)
(0.166354 0.605663 0)
(3 -2.05455e-17 0)
(3 3.33465e-16 0)
(3 1.38651e-16 0)
(3 7.12704e-17 0)
(3 -2.55831e-16 0)
(3 -6.25502e-17 0)
(3 2.30325e-17 0)
(3 -3.63024e-16 0)
(3 -5.2851e-16 0)
(3 -5.99743e-16 0)
(3 -3.60223e-16 0)
(3 -1.86754e-16 0)
(3 7.85389e-16 0)
(3 1.38051e-15 0)
(3 6.5169e-16 0)
(3 -5.47679e-16 0)
(2.83254 0.183232 0)
(0.997915 0.392195 0)
(0.740497 0.344247 0)
(0.670367 0.364069 0)
(0.587184 0.387312 0)
(0.511979 0.46136 0)
(0.439558 0.587499 0)
(0.47918 0.735087 0)
(3 2.23405e-16 0)
(3 2.16043e-16 0)
(3 9.2865e-17 0)
(3 -3.53666e-16 0)
(3 -4.66135e-16 0)
(3 -4.23221e-16 0)
(3 -2.70837e-16 0)
(3 3.28887e-16 0)
(3 1.84401e-16 0)
(3 5.48732e-17 0)
(3 7.31467e-17 0)
(3 -1.43636e-16 0)
(3 -4.94926e-16 0)
(3 -1.07647e-15 0)
(3 -8.80984e-16 0)
(3 -3.42847e-16 0)
(3.04787 0.0198548 0)
(1.2019 0.421014 0)
(0.809054 0.393243 0)
(0.756173 0.430048 0)
(0.686957 0.457218 0)
(0.62974 0.533011 0)
(0.601543 0.610262 0)
(0.628453 0.639489 0)
(3 -1.35182e-17 0)
(3 -2.21775e-17 0)
(3 -6.94094e-16 0)
(3 -7.89954e-16 0)
(3 -8.24659e-16 0)
(3 -8.76492e-16 0)
(3 -1.50917e-15 0)
(3 -1.11227e-15 0)
(3 -7.86869e-16 0)
(3 -9.35169e-16 0)
(3 -9.19578e-16 0)
(3 -1.61481e-15 0)
(3 -2.19328e-15 0)
(3 -2.19092e-15 0)
(3 -1.18579e-15 0)
(3 -6.12552e-17 0)
(3.00305 2.2142e-05 0)
(1.44844 0.434602 0)
(0.809661 0.462294 0)
(0.751257 0.495998 0)
(0.709894 0.53064 0)
(0.696553 0.594128 0)
(0.700383 0.645704 0)
(0.715623 0.661942 0)
(3 -2.69577e-17 0)
(3 1.34625e-16 0)
(3 3.84091e-16 0)
(3 5.45654e-16 0)
(3 4.06863e-16 0)
(3 6.90959e-18 0)
(3 -3.82598e-16 0)
(3 -1.62518e-15 0)
(3 -1.24364e-15 0)
(3 -7.40016e-16 0)
(3 -9.71352e-16 0)
(3 -1.39156e-15 0)
(3 -1.45943e-15 0)
(3 -9.13108e-16 0)
(3 -2.98548e-16 0)
(3 -2.36905e-16 0)
(3.00001 -7.29171e-07 0)
(1.96327 0.48328 0)
(0.876538 0.553984 0)
(0.786969 0.537569 0)
(0.76812 0.566651 0)
(0.763083 0.612328 0)
(0.776258 0.654065 0)
(0.7806 0.671773 0)
(3 1.00771e-16 0)
(3 2.35018e-16 0)
(3 7.41382e-16 0)
(3 6.06142e-16 0)
(3 5.12018e-16 0)
(3 6.39736e-16 0)
(3 1.09447e-15 0)
(3 7.81636e-16 0)
(3 3.62828e-17 0)
(3 -3.51053e-16 0)
(3 -7.0119e-16 0)
(3 -3.55338e-16 0)
(3 -1.89698e-16 0)
(3 2.76365e-16 0)
(3 2.71473e-16 0)
(3 -5.65259e-16 0)
(3 -5.60862e-07 0)
(2.75532 0.311933 0)
(1.06837 0.616648 0)
(0.887882 0.557848 0)
(0.863902 0.586403 0)
(0.845688 0.628713 0)
(0.845015 0.668923 0)
(0.839037 0.693458 0)
(3 -1.60262e-16 0)
(3 -4.12499e-16 0)
(3 -4.56876e-16 0)
(3 -5.46508e-16 0)
(3 -8.78751e-16 0)
(3 -7.70744e-16 0)
(3 -5.57898e-16 0)
(3 2.29116e-16 0)
(3 -4.56907e-16 0)
(3 -1.43054e-15 0)
(3 -9.68366e-16 0)
(3 -2.72568e-16 0)
(3 8.98248e-17 0)
(3 -4.437e-16 0)
(3 -1.54026e-15 0)
(3 -1.55358e-15 0)
(3 -9.93193e-08 0)
(3.07065 0.0269822 0)
(1.39975 0.609516 0)
(0.970587 0.644447 0)
(0.916511 0.648351 0)
(0.891447 0.671964 0)
(0.885369 0.698323 0)
(0.883796 0.722203 0)
(3 -9.97538e-17 0)
(3 -7.03971e-16 0)
(3 -1.50374e-15 0)
(3 -1.16119e-15 0)
(3 -6.22666e-16 0)
(3 -4.66668e-16 0)
(3 -7.35535e-16 0)
(3 -1.09192e-15 0)
(3 -1.06606e-15 0)
(3 -8.65724e-16 0)
(3 -5.03942e-16 0)
(3 -3.71467e-16 0)
(3 -6.99246e-16 0)
(3 -1.69543e-15 0)
(3 -2.15981e-15 0)
(3 -1.848e-15 0)
(3 -7.44499e-09 0)
(3.00352 0.000121883 0)
(1.95791 0.597378 0)
(1.03049 0.725782 0)
(0.966991 0.699497 0)
(0.94643 0.70313 0)
(0.937032 0.715992 0)
(0.938416 0.738284 0)
(3 -2.49179e-17 0)
(3 1.14424e-16 0)
(3 -4.27375e-16 0)
(3 -4.66283e-16 0)
(3 -6.65445e-16 0)
(3 -6.19638e-16 0)
(3 -6.276e-16 0)
(3 -1.12747e-15 0)
(3 -6.85798e-16 0)
(3 -1.58043e-16 0)
(3 2.46424e-18 0)
(3 -1.07215e-16 0)
(3 -7.25354e-16 0)
(3 -9.50448e-16 0)
(3 -6.43373e-16 0)
(3 -1.03873e-16 0)
(3 -1.35418e-10 0)
(3.00001 -1.48775e-07 0)
(2.92605 0.233049 0)
(1.25635 0.71581 0)
(1.05374 0.714416 0)
(1.03322 0.717206 0)
(1.01695 0.736024 0)
(1.01238 0.760955 0)
(3 4.90147e-17 0)
(3 4.20915e-16 0)
(3 3.09064e-16 0)
(3 -1.0121e-16 0)
(3 -4.11779e-16 0)
(3 -1.05765e-15 0)
(3 -1.10673e-15 0)
(3 -5.15507e-16 0)
(3 -4.0401e-16 0)
(3 -1.18872e-16 0)
(3 8.54012e-17 0)
(3 -9.10097e-16 0)
(3 -8.80806e-16 0)
(3 -8.73799e-16 0)
(3 -3.37008e-16 0)
(3 1.70107e-16 0)
(3 -1.66223e-13 0)
(3 -2.93216e-07 0)
(3.04274 0.00787262 0)
(1.573 0.674843 0)
(1.07942 0.771138 0)
(1.06374 0.772581 0)
(1.06201 0.786836 0)
(1.07045 0.804732 0)
(3 1.44092e-16 0)
(3 1.66677e-16 0)
(3 2.67942e-16 0)
(3 -3.31006e-16 0)
(3 -1.15421e-16 0)
(3 -2.54575e-16 0)
(3 -8.61758e-17 0)
(3 2.92124e-16 0)
(3 1.4363e-16 0)
(3 -2.331e-16 0)
(3 1.01672e-16 0)
(3 -3.36604e-16 0)
(3 -6.12361e-16 0)
(3 -5.06201e-16 0)
(3 -8.44937e-16 0)
(3 -9.40865e-16 0)
(3 -9.84281e-16 0)
(3 -4.6639e-08 0)
(3.00075 5.36537e-05 0)
(2.42733 0.502443 0)
(1.1896 0.798956 0)
(1.09761 0.79964 0)
(1.11459 0.802089 0)
(1.13145 0.815092 0)
(3 -7.474e-17 0)
(3 2.21395e-16 0)
(3 6.56503e-16 0)
(3 5.36829e-16 0)
(3 1.24113e-16 0)
(3 2.49661e-16 0)
(3 7.53233e-16 0)
(3 1.15473e-15 0)
(3 1.1939e-15 0)
(3 3.24546e-16 0)
(3 -8.92466e-17 0)
(3 4.31175e-16 0)
(3 4.81736e-16 0)
(3 2.50545e-16 0)
(3 2.59303e-17 0)
(3 -3.17046e-16 0)
(3 -5.24487e-18 0)
(3 -1.59765e-09 0)
(3.00001 -2.26874e-06 0)
(3.06168 0.0652342 0)
(1.53057 0.773033 0)
(1.15175 0.807142 0)
(1.17304 0.814007 0)
(1.18563 0.83062 0)
(3 -7.6385e-17 0)
(3 2.72141e-17 0)
(3 1.37271e-16 0)
(3 4.50437e-16 0)
(3 4.74698e-16 0)
(3 1.1081e-15 0)
(3 9.93261e-16 0)
(3 1.18765e-15 0)
(3 1.48092e-15 0)
(3 1.22491e-15 0)
(3 -3.31572e-16 0)
(3 -5.22045e-16 0)
(3 1.68771e-16 0)
(3 3.85714e-16 0)
(3 4.52736e-16 0)
(3 2.0852e-16 0)
(3 -9.00417e-17 0)
(3 -4.18721e-12 0)
(3 -1.13624e-06 0)
(3.00669 0.00113547 0)
(2.26638 0.634195 0)
(1.2363 0.867158 0)
(1.19729 0.851976 0)
(1.22447 0.852869 0)
(3 1.15538e-16 0)
(3 -8.39658e-17 0)
(3 -3.20175e-16 0)
(3 -1.28265e-16 0)
(3 -5.40674e-17 0)
(3 8.19904e-16 0)
(3 4.70058e-16 0)
(3 1.48841e-16 0)
(3 3.30041e-16 0)
(3 -1.98392e-16 0)
(3 -8.88506e-16 0)
(3 -1.23823e-15 0)
(3 -1.18588e-15 0)
(3 -1.00006e-15 0)
(3 -6.23156e-16 0)
(3 -5.69237e-16 0)
(3 -5.51491e-16 0)
(3 1.48041e-13 0)
(3 -1.49091e-07 0)
(3.00002 5.4794e-06 0)
(3.03704 0.117367 0)
(1.59291 0.835044 0)
(1.24153 0.849467 0)
(1.27454 0.853872 0)
(3 2.13447e-16 0)
(3 2.86046e-16 0)
(3 5.1754e-16 0)
(3 5.67285e-16 0)
(3 1.00427e-15 0)
(3 5.88458e-16 0)
(3 -9.34647e-17 0)
(3 -5.33685e-16 0)
(3 -2.80287e-16 0)
(3 -1.68353e-16 0)
(3 -4.60366e-16 0)
(3 -9.12679e-16 0)
(3 -1.49126e-15 0)
(3 -1.4446e-15 0)
(3 -7.5104e-16 0)
(3 -5.52594e-17 0)
(3 6.08364e-17 0)
(3 4.37139e-14 0)
(3 -3.24023e-09 0)
(3 -1.39196e-08 0)
(3.00986 0.00330638 0)
(2.35754 0.648671 0)
(1.32805 0.906673 0)
(1.29316 0.891631 0)
(3 1.68157e-16 0)
(3 4.55313e-16 0)
(3 3.28784e-16 0)
(3 2.12035e-16 0)
(3 1.32004e-17 0)
(3 -4.84976e-16 0)
(3 -1.20944e-15 0)
(3 -1.13662e-15 0)
(3 -8.11137e-16 0)
(3 -4.315e-16 0)
(3 -6.10249e-16 0)
(3 -8.54712e-16 0)
(3 -4.41278e-16 0)
(3 -1.78852e-16 0)
(3 1.72344e-17 0)
(3 6.34191e-16 0)
(3 -1.56749e-16 0)
(3 8.88342e-16 0)
(3 -1.64452e-11 0)
(3 -3.48196e-09 0)
(3.00004 3.20387e-05 0)
(3.03576 0.105117 0)
(1.73009 0.848275 0)
(1.33173 0.896393 0)
(3 -8.35778e-17 0)
(3 -2.11707e-16 0)
(3 -6.3186e-16 0)
(3 -4.56609e-16 0)
(3 -7.74361e-16 0)
(3 -1.0279e-15 0)
(3 -7.5275e-16 0)
(3 -7.31204e-16 0)
(3 -1.92778e-15 0)
(3 -1.76284e-15 0)
(3 -1.1102e-15 0)
(3 -4.9727e-16 0)
(3 -4.27741e-16 0)
(3 -4.94479e-16 0)
(3 -8.03096e-16 0)
(3 -8.26997e-16 0)
(3 -1.16508e-15 0)
(3 -7.16738e-16 0)
(3 -1.07657e-14 0)
(3 -2.75313e-10 0)
(3 1.53956e-08 0)
(3.00594 0.00391508 0)
(2.59883 0.537925 0)
(1.47782 0.946962 0)
(3 -2.91047e-16 0)
(3 -6.18081e-16 0)
(3 -6.73194e-17 0)
(3 1.98328e-16 0)
(3 3.79032e-17 0)
(3 3.88531e-16 0)
(3 -2.09127e-17 0)
(3 -6.2482e-16 0)
(3 -1.3783e-15 0)
(3 -1.35905e-15 0)
(3 -4.76072e-16 0)
(3 -6.51056e-16 0)
(3 -9.18813e-16 0)
(3 -1.12583e-15 0)
(3 -1.4546e-15 0)
(3 -1.31941e-15 0)
(3 -7.9886e-16 0)
(3 1.4049e-17 0)
(3 9.3407e-16 0)
(3 -7.9253e-12 0)
(3 -6.5834e-12 0)
(3.00002 3.18238e-05 0)
(3.03442 0.0532462 0)
(1.98897 0.81794 0)
(3 -1.11463e-16 0)
(3 -2.33382e-16 0)
(3 -1.30637e-17 0)
(3 -3.20027e-16 0)
(3 -4.65817e-16 0)
(3 -3.10587e-16 0)
(3 -3.30437e-16 0)
(3 -3.03914e-16 0)
(3 -6.48762e-16 0)
(3 -9.31409e-16 0)
(3 -9.11119e-16 0)
(3 -6.0895e-16 0)
(3 -2.31254e-16 0)
(3 -1.37153e-16 0)
(3 -2.49684e-17 0)
(3 -1.19982e-16 0)
(3 1.90406e-17 0)
(3 6.80087e-16 0)
(3 1.34794e-15 0)
(3 -4.97965e-14 0)
(3 -2.08709e-12 0)
(3 1.73241e-08 0)
(3.0016 0.0020823 0)
(2.83405 0.322969 0)
(3 2.239e-18 0)
(3 1.88424e-16 0)
(3 -3.36028e-16 0)
(3 -4.65842e-16 0)
(3 -7.48594e-16 0)
(3 -1.14358e-15 0)
(3 -7.90117e-16 0)
(3 -3.56673e-17 0)
(3 2.98041e-16 0)
(3 5.06671e-16 0)
(3 -4.25801e-16 0)
(3 -2.18215e-16 0)
(3 2.33615e-16 0)
(3 8.5619e-16 0)
(3 9.17637e-16 0)
(3 6.27424e-16 0)
(3 1.09387e-16 0)
(3 2.00326e-17 0)
(3 5.05658e-16 0)
(3 8.39619e-16 0)
(3 -3.19079e-13 0)
(3 1.88944e-12 0)
(3 8.71608e-06 0)
(3.00937 0.0222561 0)
(3 -7.19326e-17 0)
(3 -9.04517e-17 0)
(3 -2.05923e-16 0)
(3 -1.3e-16 0)
(3 2.38437e-16 0)
(3 -8.92411e-18 0)
(3 -1.56877e-17 0)
(3 2.86123e-16 0)
(3 4.4284e-16 0)
(3 -7.25781e-17 0)
(3 -2.54155e-16 0)
(3 -3.87808e-16 0)
(3 5.73939e-16 0)
(3 1.15629e-15 0)
(3 1.01142e-15 0)
(3 7.28242e-16 0)
(3 -5.74608e-16 0)
(3 -7.99835e-16 0)
(3 -2.49108e-16 0)
(3 -5.71018e-17 0)
(3 -2.56461e-14 0)
(3 -2.60794e-14 0)
(3 3.8747e-09 0)
(3.00007 0.000549961 0)
(3 1.8124e-16 0)
(3 -3.6879e-16 0)
(3 -2.03556e-16 0)
(3 -1.28755e-16 0)
(3 1.15464e-16 0)
(3 6.56211e-16 0)
(3 8.67876e-16 0)
(3 7.21842e-16 0)
(3 5.38018e-16 0)
(3 1.72663e-16 0)
(3 2.76173e-16 0)
(3 7.16778e-16 0)
(3 4.0412e-16 0)
(3 1.31004e-16 0)
(3 9.06097e-16 0)
(3 4.10796e-16 0)
(3 5.20042e-16 0)
(3 7.34454e-16 0)
(3 7.27739e-16 0)
(3 3.85535e-16 0)
(3 -8.80423e-16 0)
(3 -9.14658e-15 0)
(3 6.75537e-13 0)
(3 1.05836e-06 0)
(3 1.28918e-16 0)
(3 2.05496e-16 0)
(3 1.96457e-16 0)
(3 1.2392e-16 0)
(3 1.37542e-16 0)
(3 7.58945e-16 0)
(3 7.63212e-16 0)
(3 6.7359e-16 0)
(3 8.28962e-16 0)
(3 1.09025e-15 0)
(3 1.73971e-15 0)
(3 1.9694e-15 0)
(3 1.41127e-15 0)
(3 -6.51326e-16 0)
(3 -6.95167e-16 0)
(3 -1.50354e-16 0)
(3 6.15364e-16 0)
(3 4.76053e-16 0)
(3 -1.40271e-16 0)
(3 -7.29158e-17 0)
(3 -3.4041e-16 0)
(3 -1.56945e-15 0)
(3 -1.02088e-15 0)
(3 4.99082e-10 0)
(3 2.25354e-16 0)
(3 8.88914e-16 0)
(3 1.20377e-15 0)
(3 9.74047e-16 0)
(3 7.90551e-16 0)
(3 5.67785e-16 0)
(3 -1.63144e-16 0)
(3 -1.32893e-16 0)
(3 1.47506e-16 0)
(3 5.70382e-16 0)
(3 1.34357e-15 0)
(3 3.84902e-16 0)
(3 4.30507e-16 0)
(3 1.06817e-16 0)
(3 -9.22828e-16 0)
(3 2.04248e-16 0)
(3 8.46266e-16 0)
(3 7.26435e-16 0)
(3 3.463e-16 0)
(3 -1.22713e-16 0)
(3 -6.09036e-16 0)
(3 -3.55214e-16 0)
(3 -8.47903e-17 0)
(3 6.0866e-14 0)
(3 -6.11175e-17 0)
(3 -8.54495e-17 0)
(3 -7.08079e-17 0)
(3 2.5531e-16 0)
(3 6.89416e-16 0)
(3 1.25173e-16 0)
(3 1.1422e-17 0)
(3 -2.97793e-16 0)
(3 -4.87834e-16 0)
(3 -3.43744e-16 0)
(3 -4.17473e-16 0)
(3 -9.81463e-16 0)
(3 -9.85785e-16 0)
(3 -2.46508e-16 0)
(3 -7.2691e-17 0)
(3 1.06748e-15 0)
(3 1.71015e-15 0)
(3 2.19362e-15 0)
(3 2.07857e-15 0)
(3 1.57223e-15 0)
(3 1.13771e-16 0)
(3 -4.03217e-17 0)
(3 1.29968e-16 0)
(3 -2.51109e-16 0)
(3 -1.22665e-16 0)
(3 -4.71462e-16 0)
(3 -1.07034e-15 0)
(3 -1.06019e-15 0)
(3 -8.4716e-16 0)
(3 -4.84603e-16 0)
(3 -3.32952e-18 0)
(3 1.68751e-17 0)
(3 -2.4639e-16 0)
(3 -7.72037e-16 0)
(3 -1.31463e-15 0)
(3 -1.03369e-15 0)
(3 -5.63025e-16 0)
(3 -2.29594e-16 0)
(3 5.44533e-16 0)
(3 7.37193e-16 0)
(3 3.21162e-16 0)
(3 1.26444e-16 0)
(3 -1.01673e-17 0)
(3 -5.63594e-17 0)
(3 2.90677e-17 0)
(3 1.38422e-16 0)
(3 6.06316e-16 0)
(3 -2.08396e-16 0)
(3 -9.72434e-18 0)
(3 -3.39111e-16 0)
(3 -3.75467e-16 0)
(3 -6.47714e-16 0)
(3 -9.19564e-16 0)
(3 -8.09591e-16 0)
(3 -3.29056e-16 0)
(3 -2.72462e-16 0)
(3 2.72122e-16 0)
(3 5.14428e-16 0)
(3 -1.20942e-17 0)
(3 -6.29804e-17 0)
(3 1.46857e-16 0)
(3 2.25928e-16 0)
(3 5.77149e-16 0)
(3 6.17389e-16 0)
(3 1.47626e-16 0)
(3 5.58306e-17 0)
(3 -1.79591e-16 0)
(3 -1.47392e-16 0)
(3 3.68697e-16 0)
(3 1.03817e-15 0)
(3 1.29268e-15 0)
(3 8.90187e-16 0)
(3 -1.77122e-16 0)
(3 1.04644e-16 0)
(3 1.60782e-16 0)
(3 -4.38122e-17 0)
(3 -2.16781e-16 0)
(3 -2.14523e-16 0)
(3 1.24447e-16 0)
(3 2.35058e-16 0)
(3 4.66175e-16 0)
(3 8.16624e-16 0)
(3 9.64031e-16 0)
(3 9.13559e-16 0)
(3 3.73821e-16 0)
(3 -2.06283e-16 0)
(3 -6.27096e-16 0)
(3 -8.00253e-16 0)
(3 -5.28175e-16 0)
(3 -4.797e-16 0)
(3 -1.09868e-16 0)
(3 9.03764e-16 0)
(3 2.47609e-15 0)
(3 2.61513e-15 0)
(3 2.12608e-15 0)
(3 1.60808e-15 0)
(3 -5.22377e-17 0)
(3 1.11042e-16 0)
(3 2.4104e-16 0)
(3 5.66999e-16 0)
(3 4.03505e-16 0)
(3 3.63519e-16 0)
(3 5.57593e-16 0)
(3 5.80189e-16 0)
(3 4.39771e-16 0)
(3 4.26443e-16 0)
(3 8.40295e-16 0)
(3 5.50506e-16 0)
(3 -7.65742e-17 0)
(3 -6.2064e-16 0)
(3 -8.63533e-16 0)
(3 -1.39417e-15 0)
(3 -9.18184e-16 0)
(3 -3.44365e-16 0)
(3 1.77085e-17 0)
(3 1.04521e-15 0)
(3 2.71444e-15 0)
(3 3.49392e-15 0)
(3 2.76609e-15 0)
(3 1.96692e-15 0)
(3 -5.90519e-17 0)
(3 -7.77265e-17 0)
(3 2.19402e-16 0)
(3 7.24697e-16 0)
(3 5.92687e-16 0)
(3 5.95586e-16 0)
(3 6.31303e-17 0)
(3 2.48852e-16 0)
(3 1.32938e-16 0)
(3 -2.28468e-16 0)
(3 -2.72836e-16 0)
(3 -1.02789e-16 0)
(3 -3.66654e-17 0)
(3 -2.85612e-16 0)
(3 -7.37766e-16 0)
(3 -7.29996e-16 0)
(3 -2.58113e-16 0)
(3 3.97206e-16 0)
(3 1.1994e-15 0)
(3 2.00785e-15 0)
(3 2.74627e-15 0)
(3 2.79818e-15 0)
(3 2.18102e-15 0)
(3 1.60849e-15 0)
(3 -1.66444e-17 0)
(3 -2.15148e-17 0)
(3 2.86842e-16 0)
(3 4.96226e-16 0)
(3 5.06885e-16 0)
(3 2.23086e-16 0)
(3 -2.30113e-16 0)
(3 -2.21487e-17 0)
(3 4.95079e-17 0)
(3 -5.23954e-16 0)
(3 -1.14134e-15 0)
(3 -1.087e-15 0)
(3 -5.49181e-16 0)
(3 -1.93199e-16 0)
(3 -8.63894e-16 0)
(3 -1.20067e-15 0)
(3 -6.07377e-16 0)
(3 6.75545e-17 0)
(3 6.38311e-16 0)
(3 1.10718e-15 0)
(3 1.66037e-15 0)
(3 6.97314e-16 0)
(3 -1.30058e-15 0)
(3 -1.47174e-15 0)
(3 -1.76869e-17 0)
(3 -1.19068e-16 0)
(3 -1.00405e-16 0)
(3 -3.51072e-17 0)
(3 4.31403e-16 0)
(3 7.18247e-16 0)
(3 2.68586e-16 0)
(3 8.40244e-17 0)
(3 5.08558e-17 0)
(3 -1.31158e-16 0)
(3 -1.26311e-16 0)
(3 -2.87607e-16 0)
(3 -3.20139e-16 0)
(3 1.68603e-16 0)
(3 2.34071e-16 0)
(3 2.80922e-16 0)
(3 -2.74026e-17 0)
(3 -7.20235e-17 0)
(3 -2.19073e-16 0)
(3 -8.3853e-16 0)
(3 -1.99154e-15 0)
(3 -1.72464e-15 0)
(3 -1.00308e-15 0)
(3 -9.75099e-16 0)
(3 1.85145e-17 0)
(3 -3.25978e-18 0)
(3 -2.33975e-17 0)
(3 1.83742e-17 0)
(3 5.37295e-16 0)
(3 4.84938e-16 0)
(3 1.08895e-16 0)
(3 -8.62203e-17 0)
(3 6.41377e-17 0)
(3 1.01946e-17 0)
(3 8.65414e-16 0)
(3 9.5556e-16 0)
(3 4.76267e-16 0)
(3 2.8403e-16 0)
(3 1.27006e-15 0)
(3 1.0851e-15 0)
(3 7.88412e-16 0)
(3 4.95129e-17 0)
(3 -9.24738e-17 0)
(3 -1.23238e-15 0)
(3 -3.30378e-15 0)
(3 -3.16753e-15 0)
(3 -1.18723e-15 0)
(3 -7.8261e-16 0)
(3 8.93842e-17 0)
(3 3.84152e-16 0)
(3 4.7662e-16 0)
(3 3.04219e-16 0)
(3 1.90114e-16 0)
(3 9.48496e-17 0)
(3 3.39498e-16 0)
(3 3.6377e-16 0)
(3 3.19016e-16 0)
(3 5.8233e-16 0)
(3 1.02047e-15 0)
(3 1.31722e-15 0)
(3 1.06657e-15 0)
(3 9.29404e-16 0)
(3 1.13822e-15 0)
(3 8.3599e-16 0)
(3 -6.2424e-16 0)
(3 -8.80661e-16 0)
(3 -1.6604e-15 0)
(3 -2.50246e-15 0)
(3 -3.02658e-15 0)
(3 -2.52698e-15 0)
(3 -1.65514e-15 0)
(3 -4.0596e-16 0)
(3 9.7459e-17 0)
(3 9.33969e-17 0)
(3 -1.17944e-16 0)
(3 -2.373e-16 0)
(3 -6.1793e-16 0)
(3 -6.38988e-16 0)
(3 2.37241e-16 0)
(3 5.9826e-16 0)
(3 3.57863e-16 0)
(3 5.86031e-16 0)
(3 7.88178e-16 0)
(3 9.35737e-16 0)
(3 1.98231e-15 0)
(3 1.90437e-15 0)
(3 1.43858e-15 0)
(3 6.38039e-16 0)
(3 -1.83657e-16 0)
(3 -6.64023e-16 0)
(3 -1.5689e-15 0)
(3 -1.74382e-15 0)
(3 -2.12357e-15 0)
(3 -3.08867e-15 0)
(3 -2.36702e-15 0)
(3 -5.72448e-16 0)
(3 6.2772e-17 0)
(3 -2.92988e-16 0)
(3 -4.81929e-16 0)
(3 1.75836e-16 0)
(3 2.0997e-16 0)
(3 -8.96106e-17 0)
(3 -3.76608e-16 0)
(3 -2.41797e-16 0)
(3 3.21668e-16 0)
(3 1.14739e-15 0)
(3 1.91115e-15 0)
(3 1.92978e-15 0)
(3 1.76588e-15 0)
(3 2.02655e-15 0)
(3 1.51929e-15 0)
(3 1.15878e-15 0)
(3 8.63829e-16 0)
(3 2.41091e-16 0)
(3 2.39031e-16 0)
(3 2.81873e-16 0)
(3 1.55307e-16 0)
(3 -1.23504e-16 0)
(3 -3.59627e-16 0)
(3 -5.73145e-16 0)
(3 3.2075e-17 0)
(3 -7.15935e-17 0)
(3 1.36114e-16 0)
(3 5.08156e-16 0)
(3 4.57381e-16 0)
(3 2.90729e-16 0)
(3 -4.1281e-16 0)
(3 -7.62678e-16 0)
(3 -2.4779e-16 0)
(3 6.00939e-16 0)
(3 1.27961e-15 0)
(3 1.48243e-15 0)
(3 5.29396e-16 0)
(3 2.84471e-16 0)
(3 6.14882e-16 0)
(3 5.71305e-16 0)
(3 1.10783e-16 0)
(3 -3.29413e-16 0)
(3 -2.1772e-16 0)
(3 -2.52761e-16 0)
(3 1.13199e-16 0)
(3 4.35382e-16 0)
(3 2.23215e-16 0)
(3 -8.77201e-16 0)
(0.569265 0.521873 0)
(0.139987 0.277131 0)
(0.0207837 0.0663058 0)
(0.00913644 0.00477804 0)
(0.639364 0.454657 0)
(0.383136 0.294308 0)
(0.22361 0.122786 0)
(0.0652787 0.0653113 0)
(0.688667 0.584426 0)
(0.518663 0.522553 0)
(0.360209 0.359967 0)
(0.152264 0.247242 0)
(0.759792 0.654294 0)
(0.669346 0.637325 0)
(0.516765 0.555633 0)
(0.23071 0.596949 0)
(0.823622 0.697813 0)
(0.783022 0.734429 0)
(0.738835 0.78855 0)
(0.757826 0.960466 0)
(0.879326 0.744311 0)
(0.886288 0.802892 0)
(0.938581 0.864995 0)
(1.13157 0.946457 0)
(0.946784 0.770589 0)
(0.982906 0.823902 0)
(1.08306 0.882701 0)
(1.29969 0.932302 0)
(1.02429 0.785267 0)
(1.06847 0.825681 0)
(1.17615 0.870066 0)
(1.36481 0.895183 0)
(1.09345 0.821466 0)
(1.14257 0.844859 0)
(1.24495 0.870403 0)
(1.40473 0.880221 0)
(1.16294 0.828019 0)
(1.21264 0.842994 0)
(1.30241 0.855674 0)
(1.43578 0.857089 0)
(1.21932 0.844246 0)
(1.2696 0.85865 0)
(1.34858 0.868811 0)
(1.4579 0.866788 0)
(1.2613 0.85748 0)
(1.31541 0.86277 0)
(1.38934 0.865487 0)
(1.48561 0.858596 0)
(1.30428 0.861807 0)
(1.35267 0.869015 0)
(1.41779 0.873002 0)
(1.50179 0.86848 0)
(1.33249 0.887359 0)
(1.37787 0.885139 0)
(1.44051 0.879315 0)
(1.51719 0.869807 0)
(1.3754 0.891699 0)
(1.41257 0.891083 0)
(1.46713 0.886389 0)
(1.5306 0.879297 0)
(1.39607 0.920905 0)
(1.44097 0.913787 0)
(1.48711 0.905042 0)
(1.54266 0.892448 0)
(1.45298 0.938215 0)
(1.4767 0.928338 0)
(1.51409 0.916235 0)
(1.56045 0.902435 0)
(1.72647 0.922636 0)
(1.49606 0.948268 0)
(1.54286 0.934868 0)
(1.58534 0.918472 0)
(2.43365 0.65124 0)
(1.59736 0.979552 0)
(1.55514 0.961182 0)
(1.6012 0.944283 0)
(2.99022 0.111428 0)
(2.08047 0.822815 0)
(1.62267 0.969859 0)
(1.62405 0.965372 0)
(3.00113 0.00562325 0)
(2.81829 0.318706 0)
(1.90842 0.906435 0)
(1.66659 0.978677 0)
(3 3.9569e-05 0)
(3.00004 0.0249844 0)
(2.56796 0.530692 0)
(1.8466 0.949408 0)
(3 3.4542e-08 0)
(2.99994 0.000562278 0)
(2.98127 0.0683175 0)
(2.36427 0.680173 0)
(3 1.06877e-11 0)
(3 1.12898e-06 0)
(2.99974 0.00282988 0)
(2.92349 0.150565 0)
(3 2.33419e-16 0)
(3 7.59232e-10 0)
(3 1.21969e-05 0)
(2.99846 0.00845485 0)
(3 -4.88444e-16 0)
(3 7.51706e-14 0)
(3 1.22903e-08 0)
(2.99998 7.40333e-05 0)
(3 8.43947e-16 0)
(3 8.81946e-16 0)
(3 2.57175e-12 0)
(3 1.05662e-07 0)
(3 1.79301e-15 0)
(3 9.68906e-16 0)
(3 3.5315e-16 0)
(3 3.9626e-11 0)
(3 1.12623e-15 0)
(3 4.16304e-16 0)
(3 -4.24001e-16 0)
(3 2.36843e-15 0)
(3 -9.04762e-16 0)
(3 -3.82273e-16 0)
(3 -7.74586e-16 0)
(3 -4.40004e-16 0)
(3 -1.10367e-15 0)
(3 1.84589e-16 0)
(3 1.06228e-15 0)
(3 1.16343e-15 0)
(3 -4.30235e-16 0)
(3 -1.91756e-16 0)
(3 3.81595e-16 0)
(3 9.06623e-17 0)
(3 3.72054e-16 0)
(3 3.77993e-16 0)
(3 -3.96432e-16 0)
(3 -1.1633e-15 0)
(3 1.48622e-15 0)
(3 2.61486e-15 0)
(3 1.18122e-15 0)
(3 -1.8408e-16 0)
(3 -3.94713e-16 0)
(3 2.867e-16 0)
(3 9.77635e-16 0)
(3 9.38119e-16 0)
(3 -1.36247e-15 0)
(3 -1.21024e-15 0)
(3 -2.83623e-16 0)
(3 5.90663e-16 0)
(1.62756 1.0145 0)
(2.17995 0.866062 0)
(2.56219 0.785695 0)
(2.58704 0.461655 0)
(2.58556 0.231122 0)
(2.52371 0.00873118 0)
(2.51554 -0.129982 0)
(2.50871 -0.129752 0)
(2.51683 -0.143753 0)
(2.51534 -0.112345 0)
(2.51094 -0.0992363 0)
(2.49989 -0.0893589 0)
(2.4707 -0.0488713 0)
(2.44986 -0.0287479 0)
(2.43699 -0.0231689 0)
(2.45649 -0.0197558 0)
(2.48413 -0.0219078 0)
(2.4882 -0.0201636 0)
(2.47923 -0.00917278 0)
(2.46174 0.00402598 0)
(2.46022 0.00672274 0)
(2.46482 0.00514894 0)
(2.4819 -0.00155636 0)
(2.49589 -0.00919457 0)
(2.49833 -0.0103482 0)
(2.49106 -0.00809602 0)
(2.47349 0.000690438 0)
(2.46841 0.00483868 0)
(2.47051 0.0048038 0)
(2.49016 0.000637176 0)
(2.51122 -0.004858 0)
(2.5151 -0.00566698 0)
(2.51569 -0.00544543 0)
(2.50335 -0.00088218 0)
(2.49947 0.00435851 0)
(2.50431 0.00528859 0)
(2.52158 0.00397775 0)
(2.54635 0.000168965 0)
(2.55406 -0.00104279 0)
(2.56067 -0.00147701 0)
(2.5556 0.000105297 0)
(2.54954 0.00377103 0)
(2.55305 0.00488272 0)
(2.55833 0.00496462 0)
(2.57313 0.00322226 0)
(2.58097 0.0014596 0)
(2.58863 0.00098457 0)
(2.59275 0.00172061 0)
(2.58962 0.00361017 0)
(2.59136 0.00445113 0)
(2.59771 0.00387635 0)
(2.60409 0.00315765 0)
(2.61123 0.00241162 0)
(2.6193 0.00221104 0)
(2.62537 0.00570311 0)
(2.62687 0.000333119 0)
(2.61753 -0.0118561 0)
(2.58212 -0.0547735 0)
(2.50156 -0.135774 0)
(2.39879 -0.220884 0)
(2.30692 -0.286498 0)
(2.25629 -0.312253 0)
(2.24333 -0.321451 0)
(2.24186 -0.318628 0)
(2.23464 -0.257232 0)
(2.22909 -0.21919 0)
(2.22272 -0.163692 0)
(2.2358 -0.114384 0)
(2.23871 -0.0786196 0)
(2.25341 -0.0405356 0)
(2.28757 -0.000944958 0)
(2.3191 0.0180041 0)
(2.35419 0.0252915 0)
(2.38905 0.0219367 0)
(2.42217 0.0207154 0)
(2.44684 0.0218998 0)
(2.46571 0.0205791 0)
(2.48514 0.0194021 0)
(2.50558 0.0239858 0)
(2.51924 0.0298019 0)
(2.52359 0.031276 0)
(2.53682 0.0286506 0)
(2.55617 0.0272131 0)
(2.578 0.0247561 0)
(2.60553 0.0193206 0)
(2.63955 0.012896 0)
(2.67106 0.00796378 0)
(2.69053 0.00459318 0)
(2.70729 0.00412431 0)
(2.71831 0.00523169 0)
(2.70418 0.00515648 0)
(2.70388 0.0131427 0)
(1.7966 0.846287 0)
(2.19633 0.515803 0)
(2.46264 0.130003 0)
(2.56905 -0.0179532 0)
(2.60442 -0.234654 0)
(2.54848 -0.384615 0)
(2.60525 -0.373412 0)
(2.60451 -0.268 0)
(2.59067 -0.175415 0)
(2.55779 -0.122084 0)
(2.54154 -0.114792 0)
(2.4994 -0.0987595 0)
(2.4601 -0.0643599 0)
(2.45224 -0.0269635 0)
(2.4612 -0.00255279 0)
(2.47918 0.00876003 0)
(2.49439 0.0051431 0)
(2.49724 -0.00748533 0)
(2.49569 -0.0107513 0)
(2.48784 0.00273664 0)
(2.48007 0.0221495 0)
(2.48292 0.029007 0)
(2.48938 0.0223682 0)
(2.5037 -0.00636315 0)
(2.51066 -0.0299267 0)
(2.51081 -0.0359246 0)
(2.50912 -0.0278114 0)
(2.50523 -0.00196693 0)
(2.50715 0.0171354 0)
(2.51219 0.023022 0)
(2.51902 0.010584 0)
(2.52468 -0.00777865 0)
(2.52466 -0.0196627 0)
(2.52399 -0.0200058 0)
(2.52619 -0.00518139 0)
(2.53435 0.0114419 0)
(2.5447 0.0208843 0)
(2.55429 0.0175606 0)
(2.56139 0.0034629 0)
(2.56516 -0.00805012 0)
(2.56678 -0.0117523 0)
(2.5663 -0.00424127 0)
(2.57107 0.00606163 0)
(2.57842 0.014105 0)
(2.58461 0.0178549 0)
(2.59089 0.0153732 0)
(2.59656 0.00706033 0)
(2.60086 0.00194623 0)
(2.60364 0.00401446 0)
(2.60543 0.0100355 0)
(2.61013 0.0114509 0)
(2.61628 0.0145612 0)
(2.62211 0.0152851 0)
(2.62944 0.0123271 0)
(2.62496 -0.00297927 0)
(2.60571 -0.0579107 0)
(2.5508 -0.192272 0)
(2.49286 -0.347476 0)
(2.45131 -0.482362 0)
(2.38723 -0.636045 0)
(2.37363 -0.653392 0)
(2.36655 -0.601691 0)
(2.35779 -0.52631 0)
(2.33397 -0.39781 0)
(2.32056 -0.290409 0)
(2.31167 -0.180051 0)
(2.3125 -0.0902514 0)
(2.31871 -0.0269846 0)
(2.3093 0.0154136 0)
(2.30844 0.0468259 0)
(2.32446 0.0651256 0)
(2.34884 0.0860877 0)
(2.38634 0.084316 0)
(2.41474 0.0729697 0)
(2.4399 0.0697433 0)
(2.46081 0.0611882 0)
(2.48309 0.0426116 0)
(2.50307 0.0230339 0)
(2.52393 0.0162206 0)
(2.54358 0.0184179 0)
(2.55124 0.0223525 0)
(2.55738 0.0215828 0)
(2.57615 0.0193015 0)
(2.59852 0.0197753 0)
(2.62373 0.0187084 0)
(2.65148 0.0124255 0)
(2.67908 0.00252619 0)
(2.69835 -0.00414 0)
(2.71859 -0.00870933 0)
(2.7351 -0.0143181 0)
(2.73235 -0.0204365 0)
(2.72981 0.00512037 0)
(1.72617 0.870843 0)
(2.0176 0.72163 0)
(2.28373 0.421488 0)
(2.41337 0.280378 0)
(2.47487 0.17721 0)
(2.54046 -0.0150702 0)
(2.56996 -0.0540872 0)
(2.59589 -0.110303 0)
(2.59434 -0.139221 0)
(2.59609 -0.187057 0)
(2.61187 -0.23286 0)
(2.60291 -0.207774 0)
(2.56685 -0.146208 0)
(2.54739 -0.0818815 0)
(2.54646 -0.0328204 0)
(2.53785 -0.0143224 0)
(2.52756 -0.012982 0)
(2.528 -0.00545502 0)
(2.54202 -0.00644929 0)
(2.54326 -0.0120134 0)
(2.53759 -0.0146667 0)
(2.53083 -0.00843473 0)
(2.52877 0.0023715 0)
(2.53098 0.00130835 0)
(2.53289 -0.00841589 0)
(2.54476 -0.0272744 0)
(2.55784 -0.0304114 0)
(2.5623 -0.0176167 0)
(2.56229 -0.00487306 0)
(2.55834 0.00709383 0)
(2.54947 0.0121067 0)
(2.54486 0.00711982 0)
(2.54586 0.00205634 0)
(2.55414 -0.00601062 0)
(2.56863 -0.00804511 0)
(2.57632 -0.00363902 0)
(2.58204 0.00271797 0)
(2.58325 0.0099219 0)
(2.57872 0.00649329 0)
(2.58141 -0.00132587 0)
(2.58616 -0.00532139 0)
(2.59217 -0.00636354 0)
(2.59954 -0.00236849 0)
(2.60585 0.00230299 0)
(2.61224 0.00734415 0)
(2.61479 0.012768 0)
(2.614 0.0114712 0)
(2.61749 0.00633498 0)
(2.6224 0.00299511 0)
(2.62903 0.00230559 0)
(2.6368 0.00661258 0)
(2.64244 0.0118351 0)
(2.63926 0.00125826 0)
(2.62436 -0.0364415 0)
(2.57742 -0.148614 0)
(2.49876 -0.319285 0)
(2.46848 -0.448616 0)
(2.3754 -0.636295 0)
(2.37938 -0.679119 0)
(2.40573 -0.662597 0)
(2.42228 -0.667704 0)
(2.43764 -0.669571 0)
(2.44453 -0.655577 0)
(2.44399 -0.636529 0)
(2.45235 -0.589383 0)
(2.47446 -0.523842 0)
(2.49615 -0.43521 0)
(2.50576 -0.343111 0)
(2.50165 -0.249666 0)
(2.48031 -0.158268 0)
(2.46585 -0.0795488 0)
(2.44966 -0.0117341 0)
(2.45588 0.0277619 0)
(2.46439 0.044168 0)
(2.47601 0.0606709 0)
(2.49256 0.0651256 0)
(2.51506 0.0624306 0)
(2.53624 0.0691987 0)
(2.55896 0.0691649 0)
(2.57975 0.0697067 0)
(2.59107 0.0757309 0)
(2.59848 0.0796851 0)
(2.61065 0.0787647 0)
(2.62759 0.0749287 0)
(2.64785 0.0676982 0)
(2.66659 0.0637958 0)
(2.68313 0.0608624 0)
(2.70243 0.0522033 0)
(2.72202 0.0434493 0)
(2.73984 0.0372129 0)
(2.75174 0.0288479 0)
(2.76574 0.0385807 0)
(1.66436 0.857361 0)
(1.93433 0.731322 0)
(2.1415 0.5678 0)
(2.26912 0.472162 0)
(2.41334 0.30914 0)
(2.52978 0.0571977 0)
(2.56828 -0.0365225 0)
(2.59128 -0.0658699 0)
(2.62191 -0.166001 0)
(2.64518 -0.272708 0)
(2.68651 -0.281806 0)
(2.69037 -0.260225 0)
(2.67723 -0.228602 0)
(2.63316 -0.187519 0)
(2.61078 -0.129718 0)
(2.60631 -0.0868596 0)
(2.5914 -0.070293 0)
(2.58195 -0.0614332 0)
(2.58788 -0.0492923 0)
(2.59245 -0.0234231 0)
(2.5905 -0.000797109 0)
(2.58749 0.00371928 0)
(2.5788 0.00952689 0)
(2.57253 0.0107207 0)
(2.57251 0.00830993 0)
(2.58158 0.00475088 0)
(2.60153 -0.000348388 0)
(2.60946 -0.0051173 0)
(2.61015 -0.011264 0)
(2.60043 -0.018666 0)
(2.58527 -0.0187494 0)
(2.58326 -0.0126989 0)
(2.58571 -0.00773293 0)
(2.59508 0.00113836 0)
(2.60896 0.00732951 0)
(2.61382 0.00647555 0)
(2.61614 0.00388439 0)
(2.61274 -0.00195693 0)
(2.6063 -0.00484731 0)
(2.60999 -0.00172291 0)
(2.61478 0.00167496 0)
(2.62058 0.00549024 0)
(2.62677 0.00692889 0)
(2.6328 0.00627375 0)
(2.63772 0.00496036 0)
(2.63931 0.00271323 0)
(2.64076 0.00612715 0)
(2.64494 0.00903001 0)
(2.65061 0.0124987 0)
(2.65801 0.0179844 0)
(2.65856 0.0117436 0)
(2.65197 -0.0170167 0)
(2.62162 -0.0966387 0)
(2.53146 -0.263069 0)
(2.49123 -0.402337 0)
(2.38564 -0.59863 0)
(2.37816 -0.68128 0)
(2.39601 -0.65794 0)
(2.41956 -0.656627 0)
(2.42936 -0.657153 0)
(2.44249 -0.67369 0)
(2.45564 -0.682671 0)
(2.46898 -0.670782 0)
(2.48253 -0.651657 0)
(2.50605 -0.63367 0)
(2.52448 -0.624908 0)
(2.53732 -0.613266 0)
(2.54984 -0.580341 0)
(2.55681 -0.520003 0)
(2.55447 -0.439436 0)
(2.54447 -0.332912 0)
(2.53292 -0.228293 0)
(2.52636 -0.1395 0)
(2.52686 -0.0874771 0)
(2.53313 -0.0525597 0)
(2.54797 -0.0258354 0)
(2.55735 -0.00351719 0)
(2.5714 0.0166697 0)
(2.59323 0.0367526 0)
(2.60917 0.0621738 0)
(2.6199 0.0845767 0)
(2.63636 0.106295 0)
(2.64556 0.12334 0)
(2.65096 0.126801 0)
(2.66302 0.116929 0)
(2.6757 0.110168 0)
(2.68997 0.102209 0)
(2.70995 0.0861469 0)
(2.73096 0.0707273 0)
(2.75614 0.0567366 0)
(2.77321 0.0434416 0)
(2.7959 0.0397889 0)
(1.62437 0.852975 0)
(1.83585 0.772997 0)
(2.02824 0.645495 0)