/*--------------------------------*- C++ -*----------------------------------*\
  =========                 |
  \\      /  F ield         | OpenFOAM: The Open Source CFD Toolbox
   \\    /   O peration     | Website:  https://openfoam.org
    \\  /    A nd           | Version:  7
     \\/     M anipulation  |
\*---------------------------------------------------------------------------*/
FoamFile
{
    version     2.0;
    format      ascii;
    class       volScalarField;
    location    "2";
    object      T;
}
// * * * * * * * * * * * * * * * * * * * * * * * * * * * * * * * * * * * * * //

dimensions      [0 0 0 1 0 0 0];

internalField   nonuniform List<scalar> 
16512
(
2.01006
2.0071
2.00547
2.00426
2.00088
1.99709
1.99287
1.98884
1.9903
2.00004
2.02736
2.06393
2.0956
2.09803
2.09591
2.0928
2.09148
2.09085
2.08631
2.07997
2.07276
2.06705
2.06315
2.06001
2.05824
2.05663
2.05376
2.04989
2.04565
2.04137
2.0371
2.03275
2.02842
2.02404
2.01913
2.01423
2.00916
2.00369
1.99842
1.99486
1.99304
1.99257
1.99334
1.99372
1.99288
1.98998
1.98518
1.97905
1.97182
1.96524
1.96018
1.95702
1.95497
1.95261
1.94887
1.94467
1.94073
1.93732
1.93459
1.93248
1.93093
1.92909
1.92678
1.92425
1.92143
1.91784
1.91341
1.90764
1.90144
1.89659
1.89306
1.89192
1.89184
1.89221
1.89189
1.89029
1.88775
1.88478
1.88075
1.87532
1.86928
1.86365
1.85908
1.85602
1.85394
1.85366
1.85411
1.85367
1.85201
1.85
1.84731
1.84393
1.83992
1.83594
1.833
1.83089
1.82937
1.82776
1.82629
1.82482
1.82193
1.81856
1.81526
1.81204
1.80944
1.80694
1.80441
1.80173
1.79787
1.7935
1.78926
1.78522
1.78128
1.77791
1.77534
1.77348
1.7726
1.77252
1.77221
1.77073
1.76831
1.76596
1.76371
1.76155
1.75938
1.75724
1.75478
1.75152
1.74739
1.74329
1.74026
1.73793
1.73594
1.73413
1.73199
1.73014
1.72866
1.72576
1.72168
1.71763
1.71343
1.70923
1.70707
1.70626
1.70596
1.70639
1.70708
1.70689
1.70526
1.70266
1.69861
1.69333
1.68859
1.68501
1.68219
1.67981
1.67837
1.67731
1.67413
1.67041
1.66722
1.66548
1.66447
1.66442
1.66515
1.66543
1.67102
1.69519
1.74702
1.81796
1.90133
1.95943
1.99888
2.0083
2.01605
2.0178
2.02092
2.0244
2.02782
2.03008
2.03251
2.03511
2.03814
2.04042
2.0426
2.04368
2.04257
2.03745
2.02843
2.01855
2.00916
2.00051
1.99721
1.9982
2.00048
2.00262
2.00514
2.00757
2.00917
2.00946
2.00932
2.00852
2.00645
2.00267
1.9975
1.99153
1.98546
1.98005
1.97712
1.97698
1.97779
1.98038
1.98386
1.98573
1.98634
1.98621
1.98472
1.98177
1.97915
1.97724
1.97553
1.97387
1.97219
1.97111
1.97093
1.97104
1.97148
1.97235
1.97342
1.97386
1.97334
1.97042
1.9647
1.95936
1.95613
1.95398
1.95201
1.95023
1.94995
1.95122
1.95295
1.95416
1.95502
1.95633
1.95692
1.95617
1.95235
1.94566
1.941
1.93919
1.93793
1.93693
1.93587
1.93482
1.93469
1.93718
1.94051
1.94051
2.00293
1.99926
1.99648
1.99448
1.9912
1.98811
1.98501
1.98617
1.99329
2.01535
2.05031
2.08664
2.08991
2.08874
2.08803
2.08888
2.08945
2.0869
2.0803
2.07316
2.06551
2.05967
2.05583
2.05274
2.05003
2.04743
2.04456
2.04133
2.03757
2.03319
2.02849
2.02345
2.01872
2.01518
2.01252
2.00938
2.00504
2.0004
1.99478
1.98871
1.98444
1.98214
1.98141
1.98177
1.9823
1.98133
1.97806
1.97284
1.96684
1.9597
1.95278
1.94756
1.94382
1.9418
1.9403
1.93828
1.93541
1.93231
1.92933
1.92621
1.92293
1.91991
1.91735
1.91512
1.91298
1.91084
1.90804
1.90428
1.89942
1.89376
1.88895
1.88536
1.88366
1.88315
1.88303
1.88281
1.8817
1.88001
1.87739
1.87368
1.86833
1.86154
1.85463
1.84904
1.84548
1.84387
1.84362
1.84443
1.84488
1.84416
1.84275
1.84083
1.83785
1.83324
1.82727
1.82202
1.81854
1.81594
1.81388
1.81208
1.81065
1.80938
1.80777
1.80581
1.8046
1.80378
1.8015
1.79751
1.79268
1.7871
1.78176
1.77711
1.77298
1.76947
1.76686
1.76547
1.76534
1.76536
1.76426
1.7618
1.75952
1.75733
1.7552
1.75331
1.75182
1.7504
1.74873
1.74682
1.74427
1.74073
1.73643
1.73255
1.72963
1.72698
1.72474
1.72228
1.72041
1.71968
1.71775
1.7142
1.71059
1.70673
1.70225
1.69949
1.69842
1.69777
1.69779
1.69855
1.69853
1.69727
1.69444
1.69044
1.68493
1.67919
1.67501
1.67182
1.66941
1.66782
1.66696
1.66484
1.66236
1.66046
1.65934
1.65853
1.65849
1.6584
1.6592
1.65806
1.65947
1.67138
1.70981
1.77181
1.84917
1.91978
1.96623
1.98976
1.99635
2.00341
2.0064
2.01118
2.01617
2.02028
2.0253
2.02644
2.02828
2.03088
2.03263
2.03207
2.02772
2.01844
2.00783
1.99807
1.99056
1.98754
1.98845
1.99132
1.99365
1.99636
1.99948
2.00149
2.00169
2.0013
2.00016
1.99756
1.99306
1.98731
1.98116
1.97526
1.97016
1.96687
1.96632
1.96705
1.96886
1.97213
1.97431
1.97481
1.97479
1.97392
1.97141
1.96828
1.96583
1.96381
1.96193
1.96043
1.95975
1.95973
1.96006
1.96102
1.96254
1.96417
1.96521
1.96511
1.96304
1.95741
1.95036
1.94509
1.94162
1.93917
1.93773
1.93767
1.93966
1.94308
1.94563
1.94745
1.9492
1.95052
1.95035
1.94765
1.94103
1.93398
1.93005
1.92751
1.92515
1.92225
1.91957
1.91883
1.92004
1.92512
1.99822
1.99364
1.98907
1.98511
1.98169
1.97938
1.98068
1.98666
2.0063
2.04201
2.07314
2.08449
2.0883
2.08702
2.08508
2.08295
2.07955
2.07519
2.07139
2.06663
2.06103
2.05521
2.04945
2.04486
2.04064
2.03733
2.03611
2.03457
2.03105
2.02561
2.01979
2.01431
2.0094
2.0058
2.00392
2.00219
1.99908
1.99511
1.99109
1.98605
1.98004
1.97491
1.97167
1.96989
1.96897
1.96854
1.96738
1.96431
1.95955
1.95422
1.94778
1.9411
1.93598
1.93216
1.93051
1.92999
1.92924
1.92804
1.92527
1.92186
1.91778
1.91296
1.90866
1.90568
1.9033
1.90179
1.9007
1.89916
1.89623
1.89229
1.88734
1.88244
1.87854
1.87571
1.87445
1.87383
1.87365
1.87304
1.8718
1.86976
1.86595
1.86037
1.85307
1.84498
1.83893
1.83577
1.83427
1.83431
1.83586
1.83704
1.83688
1.83536
1.83255
1.82886
1.82355
1.81659
1.81009
1.80554
1.8026
1.80056
1.79901
1.79847
1.79865
1.79869
1.79884
1.79848
1.79578
1.79195
1.78789
1.78303
1.77751
1.77218
1.76754
1.76363
1.76054
1.75926
1.75924
1.75852
1.75557
1.75265
1.75037
1.74831
1.74622
1.74435
1.74305
1.74246
1.74182
1.74066
1.73912
1.73712
1.73412
1.7298
1.72503
1.72122
1.71791
1.71521
1.7127
1.71125
1.71121
1.70995
1.70661
1.70331
1.69961
1.69497
1.69184
1.69052
1.68962
1.68949
1.69015
1.69024
1.68903
1.68584
1.68156
1.67579
1.66935
1.66483
1.66167
1.6592
1.65795
1.65759
1.65696
1.6555
1.65431
1.65372
1.65297
1.65224
1.6518
1.65088
1.65091
1.64896
1.64562
1.64958
1.67166
1.72767
1.79828
1.87335
1.92765
1.96825
1.98225
1.98864
1.99528
1.99845
2.0029
2.00778
2.01463
2.01791
2.01911
2.02053
2.02063
2.01793
2.0102
1.99923
1.98889
1.98145
1.97823
1.97833
1.98091
1.98382
1.98683
1.99039
1.99285
1.99354
1.99332
1.99191
1.98828
1.98258
1.97605
1.96997
1.9649
1.96046
1.95683
1.95554
1.95609
1.95752
1.95999
1.96302
1.9642
1.9641
1.9633
1.96076
1.95685
1.95364
1.95155
1.94998
1.94903
1.94883
1.94897
1.94955
1.95079
1.95259
1.95457
1.95605
1.95626
1.95484
1.95005
1.94237
1.93536
1.93079
1.92826
1.92738
1.9276
1.93011
1.93508
1.93857
1.94078
1.94265
1.94416
1.94416
1.94183
1.93517
1.926
1.91869
1.91397
1.91032
1.90692
1.90448
1.90365
1.90612
1.99245
1.9878
1.98283
1.97852
1.97424
1.97458
1.97923
1.99648
2.03212
2.06313
2.08153
2.08642
2.08677
2.0835
2.07818
2.07326
2.06844
2.06495
2.06283
2.06045
2.05521
2.04921
2.04258
2.03659
2.03236
2.02931
2.029
2.02848
2.02405
2.01785
2.01192
2.00606
2.00101
1.99666
1.99367
1.99205
1.99029
1.98815
1.98539
1.98218
1.97798
1.97184
1.96508
1.96013
1.95673
1.95465
1.95347
1.95271
1.95061
1.94685
1.94227
1.93677
1.93091
1.92623
1.92243
1.92099
1.92125
1.92147
1.92064
1.91747
1.91393
1.90961
1.90393
1.89838
1.8949
1.89261
1.89154
1.89152
1.89107
1.88906
1.8855
1.88109
1.87603
1.87158
1.86827
1.86613
1.86523
1.86484
1.86442
1.86327
1.86084
1.8567
1.8508
1.84364
1.83571
1.83009
1.82746
1.82642
1.8272
1.82934
1.82992
1.82869
1.82556
1.82174
1.81734
1.81181
1.80525
1.79922
1.79493
1.79219
1.79043
1.78988
1.79057
1.79176
1.7918
1.79049
1.78758
1.78433
1.78089
1.77724
1.77311
1.76849
1.76396
1.75999
1.75685
1.75552
1.7548
1.75203
1.74824
1.74459
1.74133
1.73896
1.73712
1.73542
1.73392
1.73324
1.73348
1.73355
1.73299
1.73163
1.72983
1.72714
1.72285
1.71748
1.71276
1.70885
1.70576
1.70346
1.70255
1.70288
1.70186
1.69877
1.69583
1.6923
1.68777
1.68449
1.68291
1.68183
1.68157
1.68186
1.68188
1.68023
1.67656
1.67209
1.66629
1.65971
1.65524
1.65229
1.65027
1.65007
1.65058
1.65087
1.6497
1.6482
1.64709
1.64615
1.64518
1.64397
1.64277
1.64116
1.64017
1.6397
1.63403
1.63319
1.64511
1.68522
1.7524
1.82712
1.88948
1.93553
1.96635
1.97505
1.98088
1.98546
1.99114
1.99831
2.00541
2.01055
2.01072
2.01041
2.00759
2.00137
1.99155
1.98089
1.97316
1.96985
1.96962
1.9713
1.97373
1.97716
1.98077
1.98331
1.98398
1.98368
1.98161
1.97691
1.97068
1.96467
1.95978
1.95581
1.95184
1.9477
1.94544
1.94558
1.94691
1.94937
1.95221
1.95342
1.95335
1.9522
1.94945
1.9455
1.94225
1.94038
1.93914
1.9385
1.93849
1.93871
1.9393
1.94041
1.94224
1.94449
1.9464
1.94697
1.94603
1.94231
1.93536
1.9278
1.92214
1.91913
1.91853
1.91886
1.9206
1.92593
1.93104
1.93336
1.93525
1.93645
1.93629
1.93382
1.92744
1.91746
1.90755
1.90041
1.89595
1.89319
1.89177
1.89183
1.98504
1.98048
1.97608
1.97209
1.96978
1.97255
1.98533
2.01816
2.05309
2.07373
2.08121
2.08175
2.08174
2.07833
2.07245
2.06668
2.061
2.05567
2.05166
2.04844
2.04561
2.04113
2.03595
2.03073
2.02686
2.02419
2.02289
2.02085
2.01623
2.0107
2.00532
1.99949
1.99356
1.98866
1.98453
1.98189
1.98096
1.98003
1.97863
1.97657
1.9732
1.96889
1.96247
1.9547
1.94823
1.94363
1.94093
1.93944
1.939
1.93804
1.93537
1.93146
1.92689
1.92193
1.91779
1.91443
1.91288
1.91283
1.91264
1.9113
1.9087
1.90553
1.90155
1.89574
1.88943
1.88548
1.88333
1.88232
1.88267
1.8829
1.88148
1.87812
1.87416
1.86941
1.86485
1.86129
1.85855
1.85707
1.85572
1.85433
1.85284
1.85039
1.8461
1.84069
1.83455
1.82796
1.82346
1.82107
1.82048
1.82104
1.82107
1.82004
1.81728
1.81331
1.80903
1.80454
1.7994
1.7945
1.79078
1.78803
1.78625
1.78508
1.78456
1.78394
1.78221
1.78012
1.77774
1.7751
1.77228
1.76937
1.76632
1.76311
1.75952
1.75619
1.75409
1.75314
1.75111
1.74704
1.74321
1.73923
1.73488
1.73101
1.72841
1.72674
1.72547
1.72446
1.72409
1.72475
1.7253
1.72514
1.72409
1.72217
1.71944
1.71522
1.70965
1.70427
1.69991
1.69655
1.69461
1.69394
1.69425
1.69352
1.69091
1.68829
1.68504
1.6809
1.67753
1.6756
1.67417
1.67343
1.67304
1.67267
1.67069
1.66691
1.66256
1.65693
1.65087
1.64718
1.64485
1.64402
1.64506
1.64577
1.64437
1.64232
1.64076
1.63928
1.63763
1.63595
1.63462
1.63343
1.63235
1.63109
1.62971
1.62837
1.62289
1.61783
1.62378
1.64928
1.70799
1.7777
1.84853
1.89958
1.94113
1.96005
1.96795
1.97505
1.98161
1.9914
2.0009
2.00267
2.00148
1.99822
1.99122
1.98216
1.97341
1.96607
1.96228
1.96206
1.96269
1.96492
1.96794
1.97093
1.97244
1.97249
1.97165
1.96885
1.96439
1.95942
1.95478
1.95107
1.94804
1.94479
1.94055
1.93705
1.93635
1.93707
1.9383
1.94053
1.94181
1.94188
1.94093
1.93885
1.93565
1.93257
1.9306
1.92936
1.92864
1.92862
1.92873
1.92901
1.92964
1.93116
1.93355
1.93577
1.93656
1.93608
1.93349
1.92849
1.92154
1.91478
1.9107
1.9096
1.91004
1.91146
1.91524
1.92121
1.92432
1.92575
1.92652
1.92621
1.92359
1.91763
1.90841
1.89791
1.88948
1.88435
1.88195
1.88073
1.97529
1.97198
1.96907
1.96659
1.96856
1.97813
2.00274
2.04319
2.06336
2.07036
2.07393
2.07848
2.07849
2.07463
2.06815
2.06085
2.05374
2.04682
2.04034
2.03546
2.03338
2.03196
2.02932
2.02575
2.02255
2.01963
2.01621
2.01196
2.00741
2.00294
1.9985
1.99374
1.98835
1.98288
1.97831
1.97468
1.97273
1.9715
1.96992
1.9681
1.96609
1.96298
1.9586
1.95263
1.94506
1.93775
1.93226
1.92883
1.92718
1.92686
1.92684
1.9253
1.92196
1.91811
1.91396
1.91016
1.90671
1.90438
1.90317
1.90228
1.90122
1.8996
1.89689
1.89339
1.88787
1.88115
1.87663
1.87429
1.87316
1.87352
1.8741
1.87302
1.87003
1.86667
1.8627
1.85834
1.85421
1.85055
1.84752
1.84496
1.84259
1.84095
1.83915
1.83556
1.83136
1.82695
1.82244
1.81871
1.81585
1.81373
1.81244
1.81033
1.80733
1.804
1.79999
1.79564
1.7915
1.78808
1.78583
1.78403
1.78375
1.78342
1.78104
1.7776
1.7734
1.76992
1.76762
1.76518
1.76232
1.75976
1.75799
1.75591
1.75364
1.75185
1.75101
1.75
1.7465
1.74247
1.73895
1.73535
1.7313
1.7268
1.72251
1.71944
1.71762
1.71639
1.71557
1.71555
1.71631
1.71688
1.71678
1.71591
1.71397
1.71089
1.70669
1.70128
1.69562
1.69102
1.68773
1.68594
1.68527
1.68545
1.68526
1.68318
1.68078
1.67791
1.67419
1.67048
1.66789
1.66598
1.66454
1.66344
1.66276
1.66089
1.65719
1.65306
1.64803
1.64386
1.64138
1.64004
1.6404
1.64069
1.639
1.6365
1.63445
1.63211
1.62928
1.62752
1.62653
1.62552
1.62451
1.62378
1.62359
1.62286
1.62065
1.61772
1.61108
1.60255
1.6038
1.61844
1.66156
1.72739
1.80075
1.86533
1.90986
1.94435
1.95461
1.96714
1.9779
1.9858
1.99391
1.99397
1.98946
1.98203
1.97377
1.9649
1.95741
1.95478
1.95488
1.95549
1.95682
1.95884
1.96017
1.96009
1.95961
1.9582
1.95581
1.95256
1.94897
1.94537
1.9428
1.94103
1.93886
1.93491
1.92979
1.92673
1.92653
1.92692
1.92742
1.92974
1.93119
1.93088
1.9293
1.92678
1.92375
1.92149
1.92007
1.91923
1.91879
1.91855
1.91851
1.91875
1.92003
1.92252
1.92483
1.92633
1.92636
1.92479
1.92108
1.91487
1.90739
1.90206
1.90036
1.90038
1.90171
1.90464
1.90963
1.91384
1.91498
1.91528
1.91484
1.91237
1.90688
1.89867
1.88879
1.87995
1.87488
1.87126
1.96588
1.96436
1.96293
1.96438
1.9721
1.99391
2.03012
2.05486
2.06311
2.06944
2.07195
2.07268
2.07078
2.06688
2.06162
2.05511
2.04776
2.03967
2.03181
2.02541
2.02109
2.02072
2.02145
2.0217
2.01898
2.01403
2.00841
2.003
1.99826
1.99385
1.99011
1.98722
1.98356
1.97925
1.97468
1.96993
1.96559
1.96221
1.95926
1.9568
1.95561
1.95448
1.95224
1.94806
1.9429
1.93616
1.9285
1.92219
1.91823
1.91641
1.91622
1.91686
1.91646
1.91379
1.91044
1.90648
1.90224
1.89828
1.89493
1.89263
1.89133
1.89121
1.89072
1.88841
1.88501
1.87971
1.87275
1.86775
1.86517
1.86395
1.86418
1.86484
1.86409
1.86171
1.8587
1.85513
1.85065
1.84553
1.84076
1.83658
1.8331
1.83045
1.82931
1.82864
1.82637
1.82335
1.82058
1.81745
1.81352
1.80897
1.80486
1.8014
1.798
1.79409
1.79002
1.78632
1.78303
1.78021
1.77886
1.77908
1.78036
1.78007
1.77776
1.77468
1.76975
1.76283
1.75753
1.75495
1.75268
1.75016
1.74827
1.74751
1.74696
1.74691
1.74695
1.74538
1.74111
1.73717
1.73384
1.73065
1.72739
1.72386
1.71981
1.71557
1.71208
1.70976
1.70831
1.7074
1.70732
1.7075
1.70771
1.70773
1.70697
1.70499
1.70163
1.69736
1.69229
1.68671
1.68205
1.67926
1.67745
1.67671
1.67692
1.67713
1.67571
1.67332
1.67062
1.66701
1.66262
1.65912
1.65689
1.65504
1.65347
1.65249
1.65102
1.64785
1.64428
1.64083
1.63828
1.63667
1.63627
1.63579
1.63361
1.63109
1.6289
1.626
1.62205
1.61953
1.61851
1.6177
1.61695
1.61683
1.61729
1.61739
1.61661
1.61379
1.61025
1.60523
1.59701
1.5875
1.58535
1.59341
1.62161
1.68185
1.75183
1.8272
1.88311
1.91996
1.9446
1.95901
1.97394
1.981
1.98227
1.9812
1.97508
1.96498
1.95566
1.94868
1.94596
1.94578
1.9464
1.94784
1.94935
1.94948
1.94903
1.94794
1.94617
1.94387
1.94109
1.93862
1.93623
1.93458
1.93357
1.93203
1.92876
1.92319
1.91814
1.91638
1.91653
1.91697
1.91848
1.92113
1.92143
1.9203
1.9178
1.91484
1.91235
1.91069
1.90958
1.90883
1.90855
1.90859
1.90897
1.91046
1.91308
1.91547
1.91702
1.91715
1.91587
1.91233
1.90658
1.89938
1.89336
1.89081
1.89071
1.89179
1.89421
1.8983
1.90282
1.90429
1.90432
1.90371
1.90141
1.89664
1.8894
1.88019
1.87137
1.86351
1.95851
1.95864
1.95948
1.96467
1.98635
2.02121
2.04808
2.06358
2.06626
2.06575
2.06295
2.05982
2.05804
2.05719
2.05493
2.04962
2.04277
2.03472
2.02568
2.01794
2.01241
2.0105
2.01257
2.01497
2.01248
2.00689
2.00041
1.99347
1.9882
1.98372
1.97987
1.97833
1.97798
1.97637
1.97203
1.96698
1.96029
1.95378
1.94962
1.94619
1.94367
1.94334
1.94325
1.94202
1.93835
1.93357
1.92751
1.91965
1.91274
1.90905
1.90694
1.90686
1.90832
1.90866
1.90655
1.90322
1.89888
1.89369
1.88881
1.88489
1.88208
1.88093
1.88133
1.88167
1.87964
1.87617
1.87107
1.86431
1.85911
1.85631
1.85508
1.85514
1.85567
1.8551
1.85286
1.84959
1.84583
1.84109
1.83532
1.82966
1.82504
1.82137
1.81942
1.81935
1.81976
1.81884
1.81647
1.81408
1.81115
1.80674
1.80063
1.79454
1.78966
1.78523
1.78086
1.77707
1.77412
1.77248
1.77228
1.7732
1.77465
1.77409
1.77197
1.76973
1.76665
1.76113
1.75346
1.74722
1.74366
1.74123
1.73939
1.73904
1.73988
1.74124
1.7413
1.73911
1.73489
1.73105
1.72769
1.72461
1.72177
1.71902
1.7161
1.71281
1.70922
1.70574
1.70281
1.7008
1.69948
1.69873
1.69819
1.69779
1.69771
1.69726
1.6953
1.69191
1.68758
1.68298
1.67789
1.67337
1.67083
1.66925
1.66852
1.66882
1.66923
1.66817
1.66564
1.6628
1.65909
1.65407
1.64975
1.64732
1.64538
1.64351
1.64274
1.64193
1.63948
1.63678
1.63451
1.63289
1.63184
1.63037
1.62774
1.62532
1.62317
1.6208
1.61761
1.61416
1.61208
1.61107
1.61036
1.61017
1.61071
1.61107
1.61069
1.60896
1.60619
1.60282
1.59814
1.59109
1.58251
1.57472
1.57155
1.57569
1.59561
1.64015
1.7136
1.78275
1.8506
1.89277
1.92612
1.95041
1.96379
1.96992
1.97043
1.96759
1.95935
1.94804
1.93964
1.93534
1.93477
1.93589
1.9379
1.93912
1.93959
1.93963
1.93863
1.93632
1.9335
1.93112
1.92904
1.92682
1.92583
1.92533
1.92415
1.92169
1.91741
1.91207
1.90839
1.90745
1.90752
1.9082
1.91072
1.91172
1.91071
1.90827
1.90547
1.90293
1.90098
1.89971
1.89955
1.89971
1.9003
1.90142
1.90295
1.90486
1.90641
1.90704
1.90698
1.90553
1.90197
1.89701
1.89142
1.88583
1.88217
1.88155
1.88236
1.88449
1.88773
1.89192
1.89393
1.89411
1.8935
1.89105
1.88662
1.88021
1.87233
1.86101
1.95301
1.95374
1.95826
1.97574
2.01046
2.04218
2.0628
2.06483
2.06108
2.05612
2.05234
2.04965
2.04802
2.04764
2.04682
2.04332
2.03681
2.0298
2.02154
2.01329
2.00706
2.00312
2.00335
2.00498
2.00364
1.99813
1.99182
1.98454
1.97838
1.97395
1.97059
1.97028
1.97161
1.97145
1.96753
1.96315
1.95754
1.94954
1.94238
1.93793
1.93435
1.93257
1.93306
1.93413
1.93342
1.92946
1.92477
1.91895
1.91096
1.90425
1.90081
1.89879
1.89892
1.90099
1.90147
1.89948
1.89565
1.89054
1.88415
1.87828
1.87439
1.87179
1.87051
1.87105
1.87178
1.87
1.86673
1.86219
1.85614
1.85107
1.84809
1.84658
1.84629
1.84618
1.84515
1.84242
1.83894
1.83495
1.83009
1.82426
1.81849
1.81423
1.81143
1.81067
1.81128
1.81222
1.8113
1.80887
1.80635
1.80323
1.79854
1.79183
1.7847
1.77872
1.77361
1.76915
1.76636
1.76537
1.76549
1.76673
1.76766
1.76675
1.76477
1.76287
1.76076
1.75776
1.75287
1.74597
1.7395
1.73531
1.73275
1.73161
1.73231
1.73378
1.73382
1.73166
1.72765
1.724
1.72069
1.71752
1.71479
1.71237
1.71009
1.70784
1.70548
1.70288
1.69981
1.69631
1.69319
1.69116
1.68971
1.68862
1.68781
1.68734
1.68691
1.68528
1.6819
1.67785
1.67389
1.6694
1.6651
1.66267
1.6612
1.66064
1.66093
1.66127
1.66015
1.65747
1.65454
1.65083
1.64555
1.64065
1.63798
1.63612
1.6346
1.6342
1.63391
1.63251
1.63045
1.62876
1.62685
1.62406
1.62145
1.61909
1.61694
1.61502
1.61326
1.61096
1.60835
1.60643
1.60527
1.60453
1.60445
1.60437
1.60364
1.60217
1.60037
1.59815
1.59506
1.59096
1.58492
1.57706
1.56956
1.565
1.56336
1.56593
1.5791
1.60889
1.66625
1.74021
1.80767
1.86226
1.90148
1.93204
1.95176
1.95521
1.95487
1.95128
1.94349
1.93375
1.92615
1.92441
1.92464
1.92576
1.92805
1.93001
1.93011
1.92953
1.92828
1.92622
1.92343
1.92026
1.91813
1.91717
1.91666
1.91589
1.91433
1.91171
1.90701
1.90157
1.89856
1.89797
1.89798
1.89921
1.90111
1.9005
1.8984
1.89585
1.89326
1.89151
1.89113
1.8913
1.892
1.89326
1.89486
1.89591
1.89593
1.89568
1.89551
1.89505
1.89345
1.89057
1.88711
1.8835
1.87924
1.87507
1.87341
1.87379
1.87542
1.87793
1.88142
1.88389
1.88405
1.88327
1.88053
1.8763
1.87101
1.8617
1.94859
1.952
1.9675
1.99879
2.03391
2.05105
2.06006
2.06069
2.05692
2.05001
2.04391
2.0407
2.0382
2.03652
2.03574
2.03368
2.0288
2.0227
2.01648
2.00958
2.00317
1.99803
1.99466
1.99348
1.99236
1.98867
1.98338
1.97742
1.97137
1.96685
1.96365
1.96298
1.96348
1.96343
1.96063
1.95704
1.95328
1.94757
1.9397
1.93311
1.92872
1.92534
1.92479
1.9261
1.92692
1.92467
1.92032
1.91614
1.91041
1.90263
1.89672
1.89356
1.89174
1.89219
1.89417
1.89427
1.8916
1.88692
1.88102
1.87374
1.86733
1.86347
1.86085
1.85956
1.86034
1.86137
1.86001
1.85717
1.85345
1.84837
1.84343
1.84012
1.83771
1.83635
1.83515
1.8335
1.83074
1.8272
1.82312
1.81854
1.81347
1.80876
1.80541
1.80324
1.803
1.8037
1.80399
1.80262
1.80039
1.79773
1.79423
1.78934
1.78279
1.77576
1.76951
1.76429
1.76052
1.75903
1.7591
1.75998
1.76003
1.75845
1.75662
1.7551
1.75344
1.75144
1.74875
1.7448
1.73932
1.7339
1.72993
1.72706
1.72577
1.72558
1.72487
1.72268
1.71941
1.7161
1.71307
1.70975
1.70702
1.70482
1.70298
1.70144
1.70001
1.69845
1.69649
1.69371
1.68982
1.68562
1.68264
1.68071
1.67919
1.67817
1.67724
1.67636
1.67498
1.67201
1.66857
1.66524
1.66128
1.6573
1.65492
1.65343
1.65279
1.65278
1.65284
1.65156
1.64892
1.64616
1.64271
1.63768
1.63268
1.62984
1.62805
1.62723
1.62726
1.62733
1.62626
1.62332
1.62038
1.6176
1.6149
1.61236
1.61021
1.60867
1.60755
1.60632
1.60483
1.6032
1.60167
1.60028
1.59899
1.59777
1.5965
1.59472
1.59288
1.5915
1.58988
1.58719
1.58352
1.57874
1.57252
1.56561
1.56033
1.55816
1.55791
1.55918
1.56467
1.58234
1.622
1.69041
1.76131
1.82334
1.87071
1.90844
1.9332
1.93644
1.93783
1.93669
1.93029
1.92234
1.91661
1.91508
1.91537
1.91614
1.91839
1.91997
1.9207
1.92061
1.91935
1.91637
1.91341
1.91073
1.90869
1.90824
1.90809
1.90734
1.90534
1.90141
1.89526
1.89011
1.88819
1.88795
1.88818
1.89001
1.89023
1.88882
1.88675
1.88471
1.88344
1.88319
1.88349
1.88438
1.88566
1.8869
1.88724
1.88647
1.88448
1.88306
1.88222
1.88127
1.87974
1.87778
1.87555
1.87268
1.86883
1.86604
1.86578
1.86667
1.86844
1.87065
1.87319
1.87369
1.87257
1.86976
1.86615
1.8597
1.94758
1.96002
1.99019
2.02458
2.04317
2.05386
2.05588
2.05587
2.05155
2.04471
2.03763
2.03277
2.02954
2.0269
2.02551
2.02345
2.01969
2.01515
2.01004
2.00442
1.9987
1.99325
1.98836
1.98393
1.98055
1.97814
1.97533
1.97128
1.9667
1.96228
1.9587
1.95606
1.95452
1.95341
1.95227
1.95003
1.94741
1.94396
1.93854
1.93177
1.9262
1.92187
1.91917
1.91878
1.9188
1.9181
1.91467
1.91111
1.9073
1.90177
1.89506
1.89024
1.88716
1.88563
1.88601
1.88695
1.88613
1.88209
1.87685
1.87059
1.86289
1.85622
1.85225
1.84963
1.84888
1.85029
1.85158
1.85039
1.84788
1.84477
1.8403
1.8353
1.83148
1.82844
1.82571
1.8236
1.82142
1.81866
1.81535
1.81165
1.80791
1.80415
1.80058
1.79792
1.79603
1.79546
1.79561
1.79533
1.7937
1.7914
1.78842
1.78453
1.77948
1.77348
1.76742
1.76192
1.75741
1.75451
1.7536
1.75319
1.7515
1.74939
1.7478
1.74651
1.74517
1.74359
1.74179
1.73967
1.73695
1.73346
1.72956
1.72574
1.7221
1.71877
1.71623
1.71354
1.71039
1.70729
1.70464
1.70167
1.69891
1.69694
1.69558
1.69459
1.69377
1.69281
1.69148
1.68967
1.68703
1.68311
1.67847
1.67462
1.67207
1.67018
1.66893
1.66753
1.66604
1.6647
1.66268
1.65979
1.6569
1.65347
1.64988
1.64741
1.64575
1.64472
1.64422
1.64385
1.64262
1.64034
1.63797
1.63501
1.63068
1.6261
1.62333
1.62164
1.62136
1.62147
1.62009
1.61705
1.61416
1.61116
1.60798
1.60522
1.6028
1.60094
1.60034
1.60027
1.60007
1.59945
1.59845
1.59698
1.59465
1.59189
1.58966
1.58764
1.58555
1.58363
1.58257
1.58158
1.57957
1.57649
1.5729
1.56812
1.5619
1.55598
1.55298
1.55199
1.55121
1.55025
1.552
1.56142
1.58657
1.63808
1.71013
1.77878
1.83646
1.87771
1.91021
1.9182
1.92096
1.92336
1.92002
1.91257
1.90842
1.90665
1.90585
1.90536
1.90609
1.90899
1.91088
1.91074
1.90854
1.90637
1.90335
1.90055
1.90009
1.89995
1.89933
1.89778
1.89491
1.88958
1.88323
1.8797
1.87885
1.87879
1.87954
1.88049
1.88007
1.87883
1.87731
1.87584
1.87501
1.87496
1.87536
1.87621
1.877
1.87713
1.87624
1.87396
1.87195
1.87096
1.87029
1.86972
1.86863
1.86734
1.86559
1.8626
1.85903
1.85764
1.85784
1.85876
1.85981
1.86158
1.86276
1.86205
1.85983
1.85533
1.9551
1.98036
2.01715
2.04151
2.04558
2.04641
2.0457
2.04608
2.04347
2.03847
2.03328
2.02837
2.02393
2.01998
2.01639
2.01255
2.00798
2.0041
2.00092
1.99784
1.9937
1.98831
1.98249
1.97639
1.97151
1.96786
1.96669
1.96584
1.9632
1.9593
1.95501
1.95032
1.94654
1.94408
1.9426
1.94178
1.94027
1.93808
1.93512
1.93071
1.92541
1.92039
1.91597
1.91268
1.91035
1.90818
1.90659
1.90424
1.90161
1.89841
1.89387
1.88866
1.88445
1.88118
1.8792
1.87854
1.87811
1.87585
1.87101
1.86577
1.85951
1.85187
1.84552
1.84172
1.83947
1.83962
1.84186
1.84239
1.84058
1.83816
1.83527
1.8312
1.82668
1.82281
1.81936
1.81597
1.81286
1.8102
1.80733
1.80433
1.80144
1.79863
1.79593
1.79334
1.79121
1.78952
1.7882
1.78738
1.7863
1.78452
1.78188
1.77842
1.77424
1.76947
1.76436
1.75938
1.75491
1.75175
1.75011
1.74717
1.74355
1.74072
1.73884
1.7372
1.73565
1.7344
1.73352
1.73245
1.73116
1.72961
1.72745
1.72443
1.72038
1.71523
1.70989
1.70546
1.70178
1.69866
1.6957
1.69313
1.69088
1.68916
1.68807
1.68742
1.68694
1.68635
1.68541
1.68401
1.68216
1.67967
1.6762
1.67183
1.66752
1.66415
1.66159
1.65978
1.65801
1.65609
1.65481
1.6537
1.65148
1.64877
1.64581
1.64257
1.63982
1.63788
1.63639
1.63533
1.63454
1.63368
1.63206
1.63011
1.62769
1.62429
1.62086
1.61868
1.61713
1.61586
1.61338
1.61063
1.60792
1.60484
1.60152
1.59844
1.59585
1.59382
1.59274
1.59324
1.59493
1.59528
1.59424
1.59271
1.59084
1.58779
1.58397
1.58106
1.5787
1.57642
1.57471
1.57423
1.57396
1.57269
1.57016
1.56742
1.56367
1.55794
1.55123
1.54705
1.54521
1.54423
1.54324
1.54196
1.54207
1.54568
1.56005
1.59385
1.65782
1.72864
1.79746
1.84435
1.88172
1.90058
1.90447
1.90955
1.91114
1.90655
1.89895
1.8957
1.89446
1.8929
1.89308
1.89729
1.90034
1.89967
1.89816
1.89541
1.89192
1.89086
1.89067
1.89049
1.88966
1.88777
1.88408
1.87806
1.87293
1.87099
1.87042
1.87036
1.87152
1.87213
1.87154
1.86982
1.86788
1.86598
1.86504
1.86505
1.86538
1.86594
1.86624
1.86601
1.86462
1.86234
1.8608
1.86011
1.85981
1.85942
1.85872
1.85774
1.85575
1.85213
1.84917
1.84868
1.84893
1.84937
1.85031
1.85216
1.85236
1.85011
1.97299
2.00797
2.0362
2.04269
2.04314
2.0411
2.03692
2.03415
2.0326
2.03057
2.02818
2.02546
2.02093
2.01453
2.00711
2.00082
1.99557
1.99202
1.99121
1.991
1.98825
1.98251
1.97646
1.96969
1.96439
1.96046
1.95875
1.95946
1.95954
1.95605
1.95133
1.94609
1.94024
1.93632
1.93397
1.93232
1.93172
1.93104
1.92942
1.92695
1.92357
1.91914
1.91348
1.9072
1.90221
1.89868
1.89637
1.89582
1.89501
1.89296
1.89037
1.88692
1.88256
1.87809
1.87403
1.87055
1.86845
1.86688
1.86382
1.859
1.85401
1.84804
1.84129
1.83609
1.83268
1.83098
1.83174
1.83323
1.83207
1.82959
1.8273
1.82459
1.82119
1.81756
1.814
1.81044
1.80682
1.80325
1.79979
1.7965
1.79383
1.79183
1.79017
1.78845
1.78688
1.78526
1.78326
1.7811
1.77913
1.77704
1.77447
1.7713
1.76762
1.76361
1.7594
1.75492
1.75135
1.74936
1.74721
1.74303
1.73849
1.73388
1.73039
1.72829
1.72656
1.72499
1.72408
1.7241
1.724
1.72374
1.72312
1.72103
1.71771
1.71337
1.7074
1.70075
1.69522
1.69096
1.68752
1.68499
1.68296
1.68171
1.68095
1.68011
1.67933
1.67874
1.67805
1.67705
1.67572
1.67402
1.67185
1.66903
1.66537
1.66111
1.65683
1.65327
1.65056
1.6484
1.64652
1.64544
1.64489
1.64333
1.64068
1.63806
1.6351
1.63192
1.62948
1.62778
1.62637
1.62535
1.62494
1.62428
1.62263
1.62059
1.61828
1.61657
1.61457
1.61188
1.60877
1.60565
1.60249
1.59912
1.5955
1.5921
1.58943
1.58748
1.58639
1.5867
1.58865
1.58944
1.58857
1.58703
1.58551
1.58349
1.58021
1.57605
1.57265
1.56997
1.5677
1.56676
1.567
1.56724
1.56605
1.5639
1.56181
1.5588
1.55374
1.54693
1.54143
1.5387
1.53743
1.53629
1.53518
1.53399
1.53271
1.53356
1.54045
1.56158
1.60805
1.67959
1.75012
1.80956
1.85031
1.88135
1.89134
1.89477
1.89822
1.89752
1.89106
1.88328
1.88067
1.88011
1.88206
1.88819
1.89007
1.88856
1.88587
1.88289
1.88199
1.88175
1.88209
1.88194
1.88065
1.87823
1.87354
1.8674
1.86361
1.86243
1.86175
1.86153
1.86256
1.86281
1.86137
1.85904
1.85685
1.85513
1.85484
1.85506
1.85576
1.85635
1.85642
1.85565
1.85337
1.85106
1.85021
1.85001
1.85006
1.84984
1.8494
1.84819
1.84506
1.84105
1.8394
1.83919
1.83937
1.83999
1.84251
1.84284
2.00124
2.0269
2.041
2.04255
2.04057
2.03372
2.0265
2.0224
2.02153
2.02281
2.02392
2.02236
2.0169
2.01004
2.0006
1.9919
1.9862
1.98243
1.98243
1.98349
1.98123
1.97567
1.96987
1.96361
1.95882
1.95517
1.95306
1.95358
1.954
1.9509
1.94637
1.94204
1.93653
1.93066
1.92701
1.92465
1.92297
1.92293
1.92316
1.92269
1.92112
1.91702
1.91097
1.9033
1.89532
1.89033
1.88754
1.88604
1.88652
1.88685
1.88591
1.88328
1.87977
1.87505
1.86946
1.86426
1.85966
1.8566
1.85463
1.85122
1.84677
1.8423
1.83728
1.83214
1.828
1.82479
1.82306
1.8231
1.82292
1.82042
1.81798
1.81587
1.8136
1.81099
1.80802
1.80466
1.80104
1.79714
1.79306
1.78912
1.78581
1.78352
1.78274
1.78257
1.78155
1.78043
1.77895
1.77638
1.77268
1.76917
1.76641
1.76352
1.76019
1.75642
1.7528
1.74958
1.74743
1.74616
1.74334
1.73868
1.73449
1.72966
1.72426
1.72053
1.71844
1.7169
1.71568
1.71551
1.71649
1.71727
1.7172
1.71589
1.71296
1.70933
1.70494
1.6991
1.69228
1.68622
1.68166
1.67819
1.67594
1.67517
1.67408
1.67225
1.67113
1.67036
1.66966
1.6689
1.66799
1.66688
1.66568
1.66415
1.66165
1.65854
1.65467
1.64984
1.64507
1.64162
1.63906
1.63717
1.6365
1.63634
1.63515
1.63251
1.62999
1.62722
1.62376
1.62078
1.61902
1.61766
1.61661
1.6164
1.61622
1.61518
1.61386
1.61248
1.61068
1.6084
1.6057
1.60273
1.59956
1.59602
1.59187
1.58759
1.58431
1.58202
1.58071
1.58075
1.58154
1.58199
1.58164
1.58056
1.57934
1.57778
1.57558
1.57234
1.56824
1.56464
1.56187
1.56006
1.55978
1.56051
1.56051
1.559
1.55742
1.55584
1.55345
1.54928
1.54304
1.53638
1.53253
1.53104
1.52988
1.52841
1.52672
1.52518
1.52347
1.52329
1.52595
1.53872
1.57005
1.63112
1.70113
1.76999
1.81794
1.8524
1.87481
1.88144
1.88356
1.88349
1.87759
1.86967
1.86829
1.86928
1.87553
1.87957
1.87841
1.87698
1.87542
1.87445
1.874
1.87424
1.87445
1.87377
1.87205
1.86863
1.86291
1.85707
1.85391
1.85278
1.85175
1.85125
1.8515
1.85162
1.84995
1.84825
1.84669
1.846
1.84607
1.84655
1.84717
1.84727
1.84681
1.84482
1.84193
1.84064
1.84056
1.84078
1.8409
1.8409
1.84021
1.83767
1.8334
1.83061
1.82982
1.82978
1.83031
1.83245
2.02112
2.03867
2.0414
2.0393
2.03217
2.02374
2.01765
2.01414
2.01372
2.01602
2.01732
2.0147
2.00914
2.00323
1.99509
1.98633
1.98029
1.97603
1.97523
1.97585
1.97367
1.96869
1.96366
1.95851
1.95424
1.95067
1.94795
1.94753
1.94758
1.94498
1.9408
1.93733
1.93322
1.9274
1.92212
1.91923
1.9172
1.91634
1.91728
1.91827
1.91743
1.91282
1.90673
1.89985
1.89145
1.88416
1.88024
1.87818
1.87818
1.87964
1.87994
1.87828
1.87486
1.8706
1.86515
1.85885
1.85309
1.84818
1.84462
1.84249
1.83938
1.83558
1.83201
1.82818
1.82413
1.82034
1.81704
1.81444
1.81327
1.81171
1.80935
1.80734
1.80563
1.80382
1.80152
1.79853
1.79497
1.79094
1.78655
1.78213
1.77827
1.77579
1.77538
1.77592
1.77536
1.77431
1.77342
1.77174
1.76782
1.76235
1.75846
1.75547
1.75217
1.74865
1.746
1.74438
1.74345
1.74205
1.7379
1.73313