/*--------------------------------*- C++ -*----------------------------------*\
  =========                 |
  \\      /  F ield         | OpenFOAM: The Open Source CFD Toolbox
   \\    /   O peration     | Website:  https://openfoam.org
    \\  /    A nd           | Version:  7
     \\/     M anipulation  |
\*---------------------------------------------------------------------------*/
FoamFile
{
    version     2.0;
    format      ascii;
    class       volScalarField;
    location    "3.6";
    object      p;
}
// * * * * * * * * * * * * * * * * * * * * * * * * * * * * * * * * * * * * * //

dimensions      [1 -1 -2 0 0 0 0];

internalField   nonuniform List<scalar> 
4128
(
1
1
1
1
1
1
1
1
1
1
1
1
1
1
1
1
1
1.80775
8.54338
10.8099
11.0746
11.4087
11.6646
11.8797
1
1
1
1
1
1
1
1
1
1
1
1
1
1
1
1
1
1.67749
8.21909
10.7191
10.9828
11.2865
11.5007
11.5944
1
1
1
1
1
1
1
1
1
1
1
1
1
1
1
1
1
1.38703
7.60803
10.5775
10.7827
10.9915
11.0813
11.2063
1
1
1
1
1
1
1
1
1
1
1
1
1
1
1
1
1
1.03919
6.5868
10.2998
10.4649
10.6485
10.6963
10.971
1
1
1
1
1
1
1
1
1
1
1
1
1
1
1
1
1
1.00037
5.16086
9.75466
9.99625
10.0315
9.45759
7.82017
1
1
1
1
1
1
1
1
1
1
1
1
1
1
1
1
1
0.999996
3.48567
9.01278
9.6321
9.375
8.69876
7.01235
1
1
1
1
1
1
1
1
1
1
1
1
1
1
1
1
1
0.999999
1.85389
7.81213
9.35919
8.87915
8.1776
6.53385
1
1
1
1
1
1
1
1
1
1
1
1
1
1
1
1
1
1
1.0804
5.85613
8.76916
8.29086
7.67377
6.31516
1
1
1
1
1
1
1
1
1
1
1
1
1
1
1
1
1
1
1.00027
3.21902
7.82186
8.08597
7.37448
6.30362
1
1
1
1
1
1
1
1
1
1
1
1
1
1
1
1
1
1
0.999997
1.34647
6.05961
8.01756
7.23764
6.32608
1
1
1
1
1
1
1
1
1
1
1
1
1
1
1
1
1
1
0.999999
1.01005
3.34752
7.31234
7.07514
6.28136
1
1
1
1
1
1
1
1
1
1
1
1
1
1
1
1
1
1
1
1.00001
1.38261
5.44346
7.15221
6.32455
1
1
1
1
1
1
1
1
1
1
1
1
1
1
1
1
1
1
1
1
1.01218
2.58293
6.20204
6.3517
1
1
1
1
1
1
1
1
1
1
1
1
1
1
1
1
1
1
1
1
1.00007
1.18678
4.05929
6.25279
1
1
1
1
1
1
1
1
1
1
1
1
1
1
1
1
1
1
1
1
1
1.00387
1.71073
4.83559
1
1
1
1
1
1
1
1
1
1
1
1
1
1
1
1
1
1
1
1
1
1.00002
1.04219
2.3698
1
1
1
1
1
1
1
1
1
1
1
1
1
1
1
1
1
1
1
1
1
1
1.00054
1.14805
1
1
1
1
1
1
1
1
1
1
1
1
1
1
1
1
1
1
1
1
1
1
1
1.00354
1
1
1
1
1
1
1
1
1
1
1
1
1
1
1
1
1
1
1
1
1
1
1
1.00002
1
1
1
1
1
1
1
1
1
1
1
1
1
1
1
1
1
1
1
1
1
1
1
1
1
1
1
1
1
1
1
1
1
1
1
1
1
1
1
1
1
1
1
1
1
1
1
1
1
1
1
1
1
1
1
1
1
1
1
1
1
1
1
1
1
1
1
1
1
1
1
1
1
1
1
1
1
1
1
1
1
1
1
1
1
1
1
1
1
1
1
1
1
1
1
1
1
1
1
1
1
1
1
1
1
1
1
1
1
1
1
1
1
1
1
1
1
1
1
1
1
1
1
1
1
1
1
1
1
1
1
1
1
1
1
1
1
1
1
1
1
1
1
1
1
1
1
1
1
1
1
1
1
1
1
1
1
1
1
1
1
1
1
1
1
1
1
1
1
1
1
1
1
1
1
1
1
1
1
1
1
1
1
1
1
1
1
1
1
1
1
1
1
1
1
1
1
1
1
1
1
1
1
1
1
1
1
1
1
1
1
1
1
1
1
1
1
1
1
1
1
1
1
1
1
1
1
1
1
1
1
1
1
1
1
1
1
1
1
1
1
1
1
1
1
1
1
1
1
1
1
1
1
1
1
1
1
1
1
1
1
1
1
1
1
1
1
1
1
1
1
1
1
1
1
1
1
1
1
1
1
1
1
1
1
1
1
1
1
1
1
1
1
1
1
1
1
1
1
1
1
1
1
1
1
1
1
1
1
1
1
1
1
1
1
1
1
1
1
1
1
1
1
1
1
1
1
1
1
1
1
1
1
1
1
1
1
1
1
1
1
1
1
1
1
1
1
1
1
1
1
1
1
1
1
1
1
1
1
1
1
1
1
1
1
1
1
1
1
1
1
1
1
1
1
1
1
1
1
1
1
1
1
1
1
1
1
1
1
1
1
1
1
1
1
1
1
1
1
1
1
1
1
1
1
1
1
1
1
1
1
1
1
1
1
1
1
1
1
1
1
1
1
1
1
1
1
1
1
1
1
1
1
1
1
1
1
1
1
1
1
1
1
1
1
1
1
1
1
1
1
1
1
1
1
1
1
1
1
1
1
1
1
1
1
1
1
1
1
1
1
1
1
1
1
1
1
1
1
1
1
1
1
1
1
1
1
1
1
1
1
1
1
1
1
1
1
1
1
1
1
1
1
1
2.11479
0.791389
0.380846
0.386303
0.50634
0.629746
0.793267
1.03734
1.21882
1.29994
1.34707
1.37465
1.37306
1.36704
2.19391
4.99125
5.64759
5.86804
6.02881
6.13787
6.25049
6.36658
6.46652
6.52845
3.32072
2.06171
1.36142
1.05303
1.00702
0.920672
0.878994
0.899909
0.955605
1.01587
1.0858
1.1654
1.23909
1.26574
1.98924
4.82835
5.64801
5.86157
6.01434
6.1142
6.21674
6.32953
6.42316
6.44023
4.24528
2.94571
2.20893
1.71102
1.4115
1.19252
1.0021
0.933771
0.903996
0.922376
0.989734
1.07604
1.16145
1.19403
1.55901
4.46254
5.64616
5.84276
5.98678
6.07358
6.1509
6.2165
6.25437
6.3123
4.7941
3.69305
2.86536
2.30027
1.8809
1.58655
1.34473
1.22112
1.11501
1.00682
0.992995
1.00543
1.03624
1.06908
1.17064
3.70529
5.5783
5.77474
5.89567
5.96634
6.03117
6.10033
6.10434
6.24371
5.16081
4.22084
3.41109
2.80907
2.35639
1.96408
1.66858
1.4895
1.3368
1.17637
1.08824
1.0499
1.01318
1.02243
1.03432
2.54158
5.33957
5.69374
5.7994
5.87812
5.89934
5.8874
5.55251
4.65712
5.36483
4.53739
3.81887
3.20908
2.73905
2.34101
2.02014
1.79384
1.60218
1.40899
1.28848
1.21826
1.12461
1.07971
1.05442
1.42296
4.64555
5.5926
5.68459
5.74838
5.72243
5.60173
5.19725
4.31055
5.49745
4.759
4.10004
3.571
3.10347
2.66404
2.3312
2.0874
1.86834
1.66185
1.51924
1.40437
1.27003
1.16077
1.08608
1.10391
3.29777
5.40212
5.56878
5.62373
5.5674
5.34905
4.96332
4.10439
5.63763
4.9693
4.36204
3.859
3.39556
2.95493
2.64003
2.3729
2.11978
1.88034
1.73904
1.60658
1.46609
1.32616
1.24536
1.16372
1.84402
4.87966
5.48954
5.52713
5.43301
5.17434
4.76607
4.03242
5.76662
5.12926
4.58244
4.10328
3.65056
3.22294
2.90459
2.61856
2.35443
2.11234
1.95555
1.80309
1.63527
1.48688
1.41461
1.28329
1.32619
3.54421
5.29399
5.41528
5.29715
5.0383
4.63533
4.05779
5.93867
5.32677
4.79605
4.3437
3.87531
3.46318
3.15388
2.87351
2.57108
2.32666
2.16317
1.99424
1.82582
1.66235
1.58677
1.46868
1.35157
2.00592
4.7212
5.40248
5.24884
4.98454
4.58814
4.11295
5.91395
5.52916
4.97416
4.5093
4.08084
3.69287
3.36885
3.07939
2.76754
2.53075
2.36012
2.19013
1.98051
1.82098
1.74752
1.64735
1.46419
1.51169
3.40507
5.15858
5.15303
4.8787
4.52586
4.1246
5.04509
5.61183
5.21418
4.71965
4.25384
3.88501
3.58762
3.29572
2.98234
2.73706
2.55072
2.3678
2.16297
1.99426
1.9026
1.79969
1.63256
1.54338
2.07005
4.37292
5.09976
4.86899
4.58371
4.2312
2.95172
5.04406
5.33958
4.97857
4.48563
4.09061
3.78459
3.47936
3.16171
2.93917
2.75545
2.56507
2.31756
2.15936
2.06004
1.95179
1.79996
1.64062
1.68292
3.00098
4.80164
4.91121
4.63241
4.30308
1.31691
3.33693
4.95383
5.11759
4.76789
4.30489
3.98031
3.67304
3.36829
3.11947
2.9223
2.72704
2.51082
2.3389
2.22399
2.09963
1.9291
1.79583
1.71966
1.99868
3.82998
4.85711
4.68893
4.36595
1.01223
1.50006
3.53205
4.8127
4.92756
4.58649
4.20594
3.85415
3.52715
3.31779
3.12042
2.89784
2.65134
2.50216
2.38578
2.24529
2.06762
1.95175
1.82425
1.82299
2.55161
4.23445
4.72859
4.48238
1.00011
1.02714
1.64444
3.5884
4.66833
4.75626
4.46875
4.09509
3.7221
3.48579
3.28097
3.06074
2.82438
2.67775
2.54384
2.39111
2.18841
2.08887
2.00363
1.86419
1.94542
3.14377
4.41524
4.55649
1
1.00034
1.0438
1.72871
3.57523
4.51692
4.60924
4.36389
3.95643
3.67741
3.4652
3.22395
2.97838
2.84374
2.69962
2.53979
2.34282
2.22251
2.15427
1.98651
1.92521
2.22401
3.604
4.44145
1
1
1.00069
1.05642
1.76621
3.49841
4.37997
4.47563
4.24516
3.90139
3.66278
3.38416
3.13989
3.00738
2.85479
2.68283
2.47403
2.3756
2.29973
2.15106
1.96798
1.99239
2.56615
3.8551
1
1
1
1.001
1.06379
1.75628
3.38827
4.25061
4.33899
4.14908
3.89206
3.58565
3.30261
3.15832
3.01771
2.83203
2.6187
2.51737
2.42565
2.30549
2.0959
2.03153
2.11427
2.87128
1
1
1
1
1.00122
1.06438
1.70911
3.24663
4.12519
4.22328
4.10011
3.83006
3.4993
3.31066
3.16078
2.97134
2.76966
2.67094
2.5668
2.44355
2.25536
2.13264
2.10773
2.23664
1
1
1
1
1.00001
1.00128
1.0586
1.64096
3.04343
3.97976
4.14986
4.04343
3.75735
3.49752
3.3212
3.09423
2.90227
2.8151
2.70971
2.5797
2.39517
2.27986
2.1737
2.17991
1
1
1
1
1
1.00001
1.00113
1.04839
1.56169
2.82326
3.89519
4.05188
3.97788
3.73734
3.51961
3.26488
3.05491
2.94888
2.83733
2.69891
2.51386
2.42034
2.33455
2.20042
1
1
1
1
1
1
1.00001
1.00085
1.04189
1.43419
2.69845
3.71526
3.90365
3.87946
3.73984
3.48514
3.22238
3.08625
2.97096
2.8303
2.64207
2.55728
2.49049
2.33366
1
1
1
1
1
1
1
1
1.00073
1.0279
1.35565
2.49079
3.46371
3.83562
3.83677
3.70725
3.45185
3.23949
3.11673
2.96189
2.76789
2.69394
2.62107
2.48687
1
1
1
1
1
1
1
1
1
1.00043
1.019
1.29283
2.17749
3.30344
3.73841
3.74984
3.64796
3.44324
3.28935
3.11112
2.9023
2.81688
2.73664
2.61546
1
1
1
1
1
1
1
1
1
1
1.00026
1.01429
1.18725
1.91078
3.13058
3.58338
3.66649
3.62659
3.49082
3.29184
3.04268
2.9261
2.83859
2.73045
1
1
1
1
1
1
1
1
1
1
1
1.00016
1.00721
1.11109
1.74242
2.78047
3.43188
3.64832
3.62578
3.49857
3.27072
3.07286
2.95562
2.83451
1
1
1
1
1
1
1
1
1
1
1
1
1.00006
1.00334
1.07094
1.56072
2.45093
3.35136
3.605
3.58431
3.47555
3.27367
3.12151
2.96591
1
1
1
1
1
1
1
1
1
1
1
1
1
1.00002
1.00168
1.0484
1.35326
2.22221
3.22136
3.45067
3.47767
3.42716
3.28002
3.10991
1
1
1
1
1
1
1
1
1
1
1
1
1
1
1.00001
1.00097
1.02353
1.21912
2.04398
2.90029
3.30925
3.43299
3.40179
3.27848
1
1
1
1
1
1
1
1
1
1
1
1
1
1
1
1
1.00035
1.011
1.15341
1.76902
2.49663
3.18811
3.42081
3.40633
1
1
1
1
1
1
1
1
1
1
1
1
1
1
1
1
1
1.00014
1.0058
1.08651
1.43008
2.16175
3.15032
3.32199
1
1
1
1
1
1
1
1
1
1
1
1
1
1
1
1
1
1
1.00005
1.00206
1.03335
1.23416
2.00774
2.89433
1
1
1
1
1
1
1
1
1
1
1
1
1
1
1
1
1
1
1
1.00001
1.00059
1.01391
1.15514
1.82369
1
1
1
1
1
1
1
1
1
1
1
1
1
1
1
1
1
1
1
1
1
1.00022
1.00719
1.11521
1
1
1
1
1
1
1
1
1
1
1
1
1
1
1
1
1
1
1
1
1
1
1.0001
1.0043
1.42793
0.675506
0.525079
0.536344
0.659789
0.836974
1.02902
1.16235
1.24608
1.31568
1.36868
1.40471
1.41812
1.41838
1.40854
1.37542
1.34981
1.33855
1.33598
1.34576
1.36343
1.37342
1.37455
1.37068
1.35632
1.33357
1.31607
1.30682
1.30113
1.29781
1.29655
1.31843
3.11197
4.34706
4.489
4.55428
4.58519
4.63407
4.67066
4.68331
4.68121
4.66025
4.63635
4.61288
4.5931
4.57045
4.53407
4.47934
4.41402
4.35284
4.30707
4.27824
4.26154
4.25884
4.26418
4.26107
4.22311
4.14112
4.0329
3.92317
3.82951
3.75954
3.71001
3.67984
3.68234
3.72896
3.79562
3.82573
3.76851
3.64237
3.45087
3.34898
2.26429
1.46456
1.16442
0.96416
0.941437
0.921272
0.926058
0.991299
1.09543
1.19158
1.26155
1.32524
1.36073
1.3716
1.36937
1.35352
1.34583
1.34196
1.34488
1.35413
1.36697
1.36944
1.3665
1.35954
1.34723
1.33203
1.32144
1.31388
1.30967
1.3055
1.30116
1.29619
2.9852
4.31924
4.48235
4.56531
4.63765
4.67974
4.69227
4.68793
4.67612
4.65338
4.6248
4.59336
4.56668
4.54505
4.52414
4.49695
4.45599
4.4009
4.34219
4.28839
4.24185
4.20221
4.17259
4.13772
4.10353
4.08104
4.0697
4.04613
3.97947
3.87482
3.76608
3.68833
3.63942
3.61848
3.62702
3.63736
3.64213
3.61432
3.57127
3.49694
2.85819
2.06946
1.63411
1.32228
1.10547
1.03689
0.947257
0.962792
1.04299
1.1325
1.19359
1.25535
1.30513
1.33707
1.37064
1.38748
1.38173
1.37276
1.36972
1.36878
1.3637
1.35854
1.35168
1.33992
1.32809
1.32312
1.3219
1.32287
1.32344
1.32011
1.315
1.30229
2.70137
4.31365
4.50732
4.59339
4.68392
4.72076
4.71485
4.7007
4.6849
4.66424
4.63364
4.58807
4.54171
4.50667
4.48758
4.47912
4.47079
4.4518
4.4198
4.37576
4.31083
4.21963
4.11712
4.03233
3.97796
3.97074
4.00391
4.04506
4.06696
4.03543
3.9528
3.83096
3.6919
3.58087
3.50096
3.4611
3.45929
3.50523
3.56821
3.58429
3.1884
2.53135
2.06501
1.71065
1.42028
1.2881
1.16157
1.05088
1.03519
1.0416
1.05775
1.10978
1.17947
1.23921
1.29848
1.35696
1.37474
1.38801
1.39226
1.38455
1.36866
1.35335
1.33864
1.32512
1.32014
1.31937
1.32083
1.32296
1.32104
1.31715
1.31272
1.30246
2.31608
4.29607
4.62878
4.67786
4.76311
4.80024
4.77323
4.73826
4.70978
4.68992
4.66571
4.6153
4.54856
4.48678
4.44066
4.41394
4.40466
4.40122
4.39467
4.38827
4.37536
4.31065
4.20008
4.07692
3.9868
3.92717
3.90243
3.92213
3.96589
3.99742
3.97415
3.89797
3.78936
3.64945
3.52131
3.43485
3.39264
3.41905
3.4912
3.57203
3.43311
2.88278
2.43719
2.05394
1.74826
1.54028
1.37818
1.20716
1.10673
1.04995
1.02049
1.0354
1.0797
1.13555
1.19279
1.257
1.30379
1.34547
1.38105
1.39773
1.39185
1.37186
1.34122
1.31961
1.31156
1.30989
1.31206
1.31688
1.32158
1.32055
1.31705
1.30595
1.89375
4.17389
4.82303
4.82056
4.87782
4.87212
4.80978
4.75923
4.73115
4.71624
4.69857
4.66336
4.60146
4.5275
4.45884
4.40344
4.36244
4.33423
4.31617
4.30927
4.3167
4.32769
4.28616
4.19779
4.09495
4.00842
3.93512
3.88059
3.85081
3.84862
3.85634
3.83275
3.77373
3.70042
3.61544
3.53967
3.48777
3.4643
3.47872
3.5033
3.60732
3.12181
2.72015
2.35804
2.0296
1.79006
1.60324
1.41352
1.27196
1.18022
1.10258
1.06509
1.06826
1.0716
1.08923
1.13735
1.21111
1.27194
1.31523
1.34776
1.36636
1.36256
1.35094
1.34234
1.32785
1.31827
1.31332
1.3116
1.31349
1.31501
1.3141
1.30547
1.53292
3.94628
5.03371
4.99373
4.99122
4.94631
4.85218
4.78317
4.74074
4.71267
4.69288
4.66987
4.63527
4.57997
4.51066
4.44266
4.37572
4.31275
4.26387
4.23296
4.22426
4.24261
4.26541
4.22117
4.13427
4.04702
3.96642
3.88723
3.81707
3.76912
3.75396
3.76077
3.75274
3.71497
3.66753
3.61267
3.55322
3.49987
3.4486
3.39698
3.72493
3.31165
2.93619
2.61298
2.28886
2.01906
1.80942
1.60581
1.44248
1.33132
1.23485
1.12778
1.08712
1.08009
1.07603
1.08116
1.11446
1.16231
1.21283
1.2628
1.30761
1.32291
1.3361
1.3501
1.35142
1.34389
1.33274
1.31977
1.31147
1.3078
1.30546
1.29689
1.31432
3.62378
5.20699
5.20917
5.12333
5.04706
4.92037
4.82475
4.74888
4.69117
4.6576
4.63543
4.61764
4.59261
4.55056
4.49366
4.42315
4.34526
4.27304
4.21575
4.17581
4.16274
4.18078
4.18521
4.12171
4.03635
3.95713
3.88163
3.81246
3.75708
3.72439
3.72411
3.74487
3.74303
3.70497
3.65329
3.58293
3.48613
3.38351
3.31148
3.87504
3.49058
3.11887
2.81463
2.50561
2.21149
2.00157
1.80374
1.62214
1.50152
1.40156
1.27559
1.19874
1.16039
1.11406
1.08791
1.07555
1.07836
1.09335
1.13172
1.19391
1.26251
1.29239
1.31978
1.34787
1.35016
1.34199
1.33406
1.32164
1.30979
1.30156
1.29169
1.28137
3.25574
5.37547
5.47051
5.28229
5.17891
5.02825
4.9029
4.7858
4.68866
4.62595
4.5858
4.56067
4.54062
4.51673
4.47964
4.42602
4.36125
4.29417
4.23166
4.17512
4.12959
4.10731
4.11115
4.09114
4.02684
3.95711
3.88992
3.82426
3.7652
3.72038
3.69292
3.68599
3.69008
3.66626
3.619
3.55966
3.47292
3.35578
3.26498
3.9624
3.60941
3.24987
2.95768
2.68132
2.39303
2.17309
1.99027
1.79992
1.66633
1.56336
1.43601
1.32701
1.25531
1.18439
1.11366
1.06522
1.05893
1.06554
1.07451
1.09883
1.15958
1.21861
1.25984
1.3012
1.31899
1.32702
1.33585
1.33163
1.31963
1.30638
1.291
1.26999
2.88696
5.54002
5.72586
5.45526
5.3184
5.14785
4.99646
4.85126
4.73103
4.6396
4.56893
4.51817
4.48358
4.4554
4.42336
4.38258
4.33613
4.28706
4.23453
4.17639
4.11675
4.06809
4.03953
4.02831
4.00547
3.9585
3.90453
3.84315
3.77413
3.7083
3.65723
3.61843
3.59442
3.58538
3.5576
3.51657
3.46597
3.39258
3.28286
4.04176
3.71809
3.39306
3.11463
2.85536
2.569
2.34395
2.17574
1.98438
1.82686
1.71853
1.59467
1.46952
1.38389
1.30272
1.20392
1.11607
1.10652
1.08982
1.07362
1.07879
1.09561
1.12472
1.15939
1.20984
1.25926
1.28785
1.30603
1.32549
1.32308
1.31375
1.29603
1.28077
2.54116
5.67676
5.95264
5.5718
5.38496
5.22477
5.07229
4.92595
4.81748
4.71337
4.60807
4.52128
4.45895
4.40923
4.3633
4.32171
4.28453
4.25283
4.21548
4.16071
4.09575
4.03391
3.98763
3.95914
3.94878
3.93397
3.89264
3.83963
3.77434
3.69004
3.60638
3.55482
3.51796
3.49568
3.49702
3.48507
3.45398
3.42033
3.32574
4.1662
3.85346
3.54927
3.27538
3.01661
2.74492
2.50301
2.33354
2.1502
1.9788
1.86502
1.74145
1.60043
1.50193
1.41803
1.31053
1.1963
1.16719
1.13892
1.10023
1.07242
1.07807
1.09929
1.1135
1.12208
1.15642
1.20983
1.2426
1.2727
1.30547
1.30413
1.30169
1.33749
2.30338
5.62748
6.19361
5.7685
5.42917
5.20986
5.03765
4.92051
4.84959
4.7626
4.65133
4.54501
4.45737
4.38467
4.32232
4.26965
4.22612
4.19612
4.16992
4.12123
4.06121
3.99649
3.94284
3.90318
3.87923
3.87647
3.85446
3.8085
3.75427
3.68015
3.57864
3.49652
3.45814
3.43384
3.43339
3.45091
3.43838
3.4147
3.33896
4.32016
3.99574
3.69071
3.42518
3.1624
2.89048
2.67475
2.49054
2.3051
2.11943
2.00638
1.88499
1.73314
1.61788
1.53925
1.4392
1.31694
1.26587
1.23375
1.18905
1.1287
1.10394
1.10427
1.0871
1.07232
1.0778
1.10455
1.14582
1.19298
1.24396
1.2663
1.32635
1.67049
2.48757
4.70246
6.03064
6.01522
5.67706
5.35794
5.09291
4.90753
4.80592
4.71686
4.63058
4.54387
4.45766
4.37403
4.30276
4.23715
4.1773
4.13366
4.1097
4.07268
4.01962
3.95541
3.89101
3.84515
3.81312
3.79764
3.79419
3.76083
3.71825
3.66443
3.57959
3.46903
3.40548
3.38048
3.37028
3.38748
3.39439
3.37185
3.31107
4.41405
4.13793
3.82021
3.5566
3.30929
3.04267
2.82629
2.64646
2.45944
2.27156
2.14298
2.01537
1.86106
1.73855
1.65709
1.56174
1.44373
1.37882
1.34125
1.28543
1.2067
1.14669
1.12602
1.08954
1.05299
1.05261
1.06821
1.09513
1.12277
1.15893
1.25568
1.56043
2.44995
3.00487
3.56726
4.72781
5.57244
5.71439
5.59462
5.35068
5.06691
4.83041
4.67217
4.58493
4.50182
4.42176
4.33719
4.26123
4.19184
4.12693
4.07605
4.05232
4.03042
3.98269
3.92128
3.83967
3.77252
3.73299
3.7067
3.7018
3.70122
3.67008
3.63076
3.57583
3.48277
3.37809
3.33385
3.31396
3.31028
3.32029
3.30409
3.25678
4.41984
4.27735
3.9759
3.69798
3.45351
3.19658
2.97779
2.81088
2.61606
2.40803
2.27117
2.15796
1.99772
1.85527
1.77249
1.68891
1.56675
1.49542
1.45372
1.39281
1.30778
1.22559
1.19348
1.15001
1.09499
1.07123
1.07115
1.07771
1.09357
1.16553
1.47866
2.21315
2.93972
3.18419
3.30802
3.61563
4.33706
5.01752
5.27327
5.33097
5.17426
4.97643
4.81946
4.67125
4.52683
4.40328
4.30683
4.20379
4.10399
4.03989
3.9967
3.9791
3.98119
3.94081
3.8808
3.79716
3.70243
3.64677
3.6123
3.59455
3.60419
3.60148
3.57611
3.54162
3.48301
3.38061
3.286
3.25202
3.23572
3.23308
3.22816
3.19147
3.96657
4.32137
4.1626
3.87195
3.60363
3.34552
3.13363
2.95414
2.76226
2.55894
2.41165
2.28321
2.12994
1.98036
1.89925
1.81434
1.69492
1.60324
1.55723
1.49683
1.40741
1.31331
1.27059
1.22375
1.16658
1.109
1.08504
1.08971
1.12807
1.39442
2.04655
2.77914
2.98413
3.07812
3.19694
3.27141
3.39114
3.7754
4.29608
4.6839
4.79724
4.83434
4.85289
4.791
4.66326
4.52398
4.37546
4.19809
4.03286
3.95263
3.91301
3.89006
3.88738
3.87064
3.82109
3.74252
3.63504
3.56305
3.52711
3.50653
3.51228
3.51814
3.4962
3.47122
3.43859
3.37557
3.26836
3.18882
3.16508
3.15468
3.15467
3.12576
3.11275
3.97973
4.21828
4.05555
3.7865
3.49725
3.27794
3.10702
2.91137
2.69752
2.55291
2.42626
2.26186
2.11153
2.02706
1.93986
1.81527
1.71733
1.66589
1.59617
1.50381
1.4052
1.35968
1.31652
1.25231
1.19053
1.16913
1.22981
1.46433
2.09293
2.64521
2.8155
2.92151
3.0068
3.10207
3.15889
3.15912
3.09951
3.19891
3.47874
3.8941
4.21263
4.41344
4.50409
4.58613
4.56045
4.43688
4.24947
4.07683
3.96482
3.89378
3.83333
3.79832
3.77445
3.73235
3.66931
3.57251
3.48143
3.43834
3.41739
3.41508
3.42577
3.4105
3.38144
3.35721
3.32502
3.25845
3.15721
3.10319
3.08821
3.08594
3.05873
2.40834
3.31847
3.98419
4.13846
3.993
3.71141
3.4303
3.24433
3.05879
2.85606
2.68721
2.56033
2.40643
2.24584
2.15087
2.0699
1.93982
1.82175
1.76172
1.70044
1.60354
1.50012
1.45335
1.40436
1.34067
1.30628
1.36764
1.74673
2.25938
2.7992
2.92585
2.92811
3.02217
3.09253
3.08435
3.06639
2.99884
2.94265
2.86706
2.82717
2.9007
3.13307
3.51078
3.87352
4.16565
4.21097
4.18882
4.14549
4.08034
4.01241
3.92439
3.84787
3.79187
3.7349
3.66302
3.58658
3.51084
3.42738
3.35694
3.31992
3.30979
3.3235
3.30912
3.27978
3.26497
3.24226
3.20324
3.13899
3.06667
3.04655
3.0378
2.99696
2.20288
2.55692
3.45286
3.99048
4.0811
3.91609
3.64087
3.41594
3.18273
2.97551
2.84155
2.69629
2.5363
2.37658
2.28863
2.1886
2.06183
1.93706
1.8658
1.80012
1.69839
1.59505
1.53958
1.48851
1.4857
1.58661
2.00686
2.67899
3.00298
3.1628
3.1883
3.16011
3.15845
3.15695
3.11707
3.04441
2.9505
2.86734
2.78249
2.74312
2.69079
2.63476
2.67334
2.84593
3.13663
3.41967
3.62818
3.80917
3.82445
3.82027
3.82776
3.83798
3.79985
3.72917
3.64251
3.54974
3.46825
3.38952
3.31887
3.24976
3.2145
3.20094
3.18839
3.19474
3.1854
3.1547
3.12913
3.08235
3.03704
3.01436
2.98659
2.93763
2.20139
2.24756
2.69226
3.5539
3.95896
3.99744
3.81872
3.59351
3.34936
3.11897
2.9677
2.82961
2.6614
2.50475
2.41628
2.31931
2.18511
2.05484
1.97772
1.90071
1.79215
1.69053
1.6312
1.65513
1.87997
2.32357
3.0147
3.38294
3.38292
3.41846
3.43472
3.45257
3.38794
3.27729
3.18515
3.08325
2.97309
2.86684
2.77082
2.70408
2.62541
2.55941
2.52475
2.48639
2.46483
2.53569
2.68773
2.93454
3.18258
3.3691
3.54067
3.61845
3.62052
3.61227
3.58726
3.53801
3.45608
3.37311
3.30166
3.23753
3.15948
3.10721
3.09729
3.09512
3.07109
3.05409
3.03625
3.00052
2.98332
2.96088
2.92231
2.88346
2.27321
2.24357
2.32202
2.82056
3.5923
3.90231
3.91706
3.77087
3.5305
3.27647
3.11664
2.97169
2.802
2.64017
2.54093
2.43867
2.30999
2.17286
2.08645
1.99532
1.90083
1.81814
1.86093
2.17697
2.83508
3.30807
3.68801
3.73477
3.6607
3.69176
3.76966
3.73756
3.62985
3.48662
3.34252
3.1981
3.05679
2.9218
2.81083
2.71882
2.63263
2.56318
2.49922
2.43236
2.38639
2.33593
2.28967
2.29114
2.37775
2.54459
2.75899
2.97809
3.13337
3.27043
3.34566
3.36263
3.36747
3.34959
3.3083
3.23556
3.13898
3.05211
3.02769
3.00701
2.98355
2.97526
2.95552
2.92657
2.88083
2.83763
2.84001
2.83559
2.42662
2.29779
2.31324
2.40396
2.91749
3.58869
3.86885
3.88098
3.724
3.4697
3.28032
3.12291
2.92696
2.79327
2.68262
2.56415
2.41164
2.26846
2.18747
2.10287
2.0656
2.19667
2.61003
3.41707
3.84649
3.86455
3.87268
3.87331
3.90119
4.01954
4.05147
3.95748
3.80169
3.62309
3.4514
3.29568
3.15588
3.03035
2.9211
2.81812
2.71335
2.61153
2.51089
2.42839
2.35971
2.29291
2.24542
2.22342
2.19037
2.13718
2.13432
2.18705
2.3153
2.5136
2.73078
2.93313
3.13942
3.17817
3.16008
3.13174
3.08353
3.01665
2.9906
2.96026
2.92063
2.90311
2.88648
2.8653
2.81683
2.75332
2.73035
2.72511
2.57257
2.43737
2.36519
2.37639
2.48984
2.98435
3.59728
3.84387
3.83098
3.6605
3.46319
3.2879
3.07
2.9406
2.81264
2.68235
2.51705
2.38528
2.29217
2.34128
2.68797
3.34795
4.0036
4.41584
4.34732
4.1985
4.14187
4.17409
4.29245
4.36591
4.28634
4.1368
3.94647
3.74604
3.55926
3.39666
3.25591
3.13184
3.01753
2.9075
2.79741
2.687
2.57874
2.47635
2.38237
2.30624
2.26146
2.21967
2.16381
2.09952
2.04597
1.96393
1.91294
1.93415
2.03005
2.18872
2.45345
2.68646
2.83722
2.88044
2.88295
2.86269
2.84253
2.83956
2.86646
2.8606
2.85193
2.82911
2.77784
2.70103
2.63783
2.62689
2.66061
2.57085
2.49837
2.40486
2.40838
2.56068
3.05521
3.62333
3.78608
3.75961
3.63821
3.46216
3.23024
3.07027
2.9326
2.79391
2.63884
2.56684
2.72212
3.25838
4.1999
4.70893
4.72574
4.62948
4.49417
4.44826
4.49699
4.63313
4.71318
4.62439
4.45684
4.2534
4.03991
3.83114
3.6466
3.49705
3.37215
3.25814
3.14435
3.02281
2.88825
2.74293
2.60701
2.50464
2.4279
2.36595
2.31265
2.26076
2.20214
2.13127
2.03976
1.93886
1.87011
1.83979
1.82051
1.82529
1.87157
1.99549
2.16084
2.28289
2.42679
2.5518
2.59157
2.65305
2.73162
2.75992
2.74917
2.73137
2.71971
2.66586
2.57162
2.54464
2.75636
2.68643
2.6278
2.50471
2.41696
2.43155
2.60281
3.1253
3.59567
3.7225
3.73223
3.62409
3.41282
3.19409
3.05649
2.93142
2.97996
3.38405
4.15704
4.95979
5.43051
5.37147
5.12488
4.87911
4.77379
4.81563
4.93058
5.05233
4.97923
4.80783
4.58368
4.34831
4.12159
3.91042
3.72844
3.58466
3.4649
3.35522
3.24848
3.13167
2.99332
2.8395
2.69187
2.56788
2.47644
2.4071
2.34723
2.29326
2.23754
2.17199
2.08259
1.97364
1.87694
1.81102
1.7837
1.78011
1.77346
1.75421
1.73695
1.76322
1.79568
1.9016
2.05806
2.21463
2.41377
2.58447
2.61787
2.61007
2.60039
2.56554
2.49371
2.45853
2.89491
2.79967
2.74883
2.64621
2.50019
2.45115
2.46347
2.63846
3.14605
3.52381
3.70963
3.70021
3.57899
3.38906
3.35423
3.63822
4.35759
5.33818
5.68165
5.69638
5.59412
5.43286
5.31122
5.26584
5.32503
5.40289
5.4308
5.32644
5.13547
4.91316
4.67832
4.44146
4.21168
4.00145
3.82227
3.67472
3.54582
3.42571
3.3125
3.1942
3.05424
2.89738
2.75148
2.63389
2.54676
2.47875
2.41793
2.35731
2.28737
2.20046
2.09285
1.98012
1.88762
1.82664
1.79986
1.78009
1.75347
1.72361
1.6962
1.65688
1.57857
1.54278
1.57014
1.66452
1.8249
2.0599
2.29647
2.39661
2.43432
2.4263
2.37308
2.34608
3.08537
2.93436
2.86528
2.77406
2.63033
2.53935
2.47538
2.48362
2.68579
3.10989
3.50946
3.67496
3.73478
4.00286
4.80162
5.76061
6.58467
6.69518
6.44024
5.99887
5.6128
5.48639
5.57366
5.74459
5.90549
5.91159
5.7695
5.52671
5.26435
5.01435
4.7754
4.53887
4.30528
4.09062
3.90691
3.75109
3.61157
3.47993
3.35668
3.23832
3.1068
2.95716
2.81337
2.69471
2.60197
2.52848
2.46245
2.39693
2.3274
2.24717
2.14971
2.04496
1.94848
1.86619
1.81535
1.78705
1.77003
1.75338
1.7111
1.63517
1.55108
1.48346
1.46031
1.45955
1.47799
1.54328
1.69418
1.87448
1.98672
2.10394
2.15229
2.1896
3.26689
3.09295
3.0037
2.89545
2.76815
2.65161
2.54687
2.47375
2.49298
2.69267
3.14218
3.64782
4.72012
6.18231
7.27458
7.27602
7.16746
6.88244
6.52838
6.17983
5.89971
5.95325
6.20492
6.35883
6.35862
6.19718
5.94093
5.65463
5.37678
5.11705
4.86998
4.62823
4.39114
4.17143
3.98152
3.8201
3.6771
3.54099
3.40898
3.28516
3.15911
3.01946
2.88003
2.75924
2.66005
2.57652
2.49978
2.42537
2.34819
2.26531
2.17518
2.08014
1.99125
1.9216
1.87857
1.83953
1.79437
1.74859
1.69837
1.6277
1.53319
1.46554
1.43251
1.41732
1.41409
1.41404
1.42152
1.45454
1.50845
1.56949
1.65071
1.84351
3.28532
3.2446
3.19444
3.05105
2.88038
2.74496
2.63668
2.51225
2.51037
2.62729
3.29866
4.91551
6.88299
8.19479
8.53227
8.05609
7.37656
6.77111
6.48687
6.42383
6.46048
6.70924
6.93329
6.86756
6.64063
6.33565
6.0117
5.7085
5.4362
5.18665
4.94739
4.71123
4.47637
4.24966
4.04656
3.87233
3.71905
3.57557
3.43864
3.30874
3.18305
3.05452
2.92462
2.80237
2.69702
2.60855
2.53001
2.45573
2.37737
2.2903
2.19587
2.098
2.0079
1.93964
1.89608
1.85485
1.80551
1.75539
1.70674
1.64594
1.56419
1.48794
1.44134
1.41532
1.39858
1.38711
1.3777
1.36668
1.35013
1.31751
1.30409
1.40118
3.14061
3.23282
3.27666
3.18483
2.99286
2.87361
2.77676
2.70265
2.91389
3.64921
4.90319
6.32395
7.24096
7.96264
8.28383
8.12344
7.58444
6.9344
6.74927
6.93114
7.24924
7.49739
7.44743
7.17877
6.79755
6.41119
6.05691
5.75274
5.49501
5.26737
5.04844
4.82562
4.59872
4.37522
4.16498
3.96988
3.80046
3.66367
3.54029
3.41313
3.28699
3.16522
3.04309
2.91934
2.8051
2.70982
2.62384
2.53125
2.4224
2.30933
2.20793
2.12204
2.04361
1.97209
1.91582
1.86758
1.82101
1.77725
1.73546
1.68304
1.60475
1.5186
1.46381
1.4298
1.4047
1.38311
1.36348
1.34257
1.31392
1.27648
1.20461
1.18883
2.56709
2.99973
3.22418
3.24142
3.18725
3.14307
3.26623
3.72647
4.79522
5.78937
6.39948
6.61445
6.78219
7.08661
7.43638
7.581
7.44581
7.29887
7.41371
7.72672
8.06614
8.03969
7.78336
7.35217
6.88799
6.46281
6.09063
5.77692
5.50961
5.27174
5.05132
4.83871
4.62068
4.38778
4.15392
3.94798
3.77759
3.6327
3.49792
3.36981
3.24985
3.13271
3.0092
2.87947
2.75728
2.65827
2.57714
2.49957
2.41766
2.32083
2.22049
2.13585
2.06469
1.99588
1.93961
1.89355
1.84925
1.8042
1.75503
1.69208
1.60942
1.52676
1.47434
1.44332
1.41882
1.39526
1.37191
1.34704
1.31708
1.27129
1.20293
1.14999
1.56367
2.14395
2.83168
3.21957
3.72125
4.17684
5.03613
6.00374
6.3884
6.62138
6.4999
6.26681
6.08601
6.20582
6.47545
6.94536
7.4111
7.92573
8.45128
8.5923
8.54722
8.28716
7.89172
7.41505
6.93007
6.48645
6.10756
5.79441
5.52729
5.28904
5.07186
4.86598
4.65457
4.42271
4.18172
3.96493
3.78694
3.6381
3.50189
3.36886
3.23982
3.12018
3.00503
2.88275
2.7548
2.64458
2.56461
2.4961
2.4187
2.34549
2.2798
2.20171
2.10962
2.04406
2.0055
1.96871
1.92402
1.8703
1.80822
1.73565
1.65222
1.57452
1.52461
1.49427
1.46876
1.44355
1.41681
1.38819
1.35308
1.29738
1.21956
1.15095
1.05838
1.27235
1.96781
3.55895
5.19028
6.75922
8.28393
8.80276
8.34522
7.44855
6.48204
6.00372
5.6268
5.59945
5.74767
6.334
7.44801
8.46133
9.33072
9.30369
8.97624
8.46472
7.92599
7.41998
6.9458
6.50543
6.12359
5.80823
5.54111
5.30472
5.08816
4.87553
4.65282
4.42299
4.2025
3.99873
3.81277
3.64851
3.50692
3.37806
3.25119
3.12009
2.98855
2.87032
2.76655
2.66522
2.56085
2.47207
2.40662
2.34021
2.24805
2.13961
2.04973
1.99791
1.96432
1.93062
1.88618
1.82531
1.7518
1.67183
1.58826
1.51973
1.47947
1.45287
1.42933
1.40616
1.38018
1.35111
1.31332
1.24749
1.16614
1.10962
)
;

boundaryField
{
    inlet
    {
        type            fixedValue;
        value           uniform 1;
    }
    outlet
    {
        type            zeroGradient;
    }
    bottom
    {
        type            zeroGradient;
    }
    top
    {
        type            zeroGradient;
    }
    obstacle
    {
        type            zeroGradient;
    }
    defaultFaces
    {
        type            empty;
    }
}


// ************************************************************************* //
