/*--------------------------------*- C++ -*----------------------------------*\
  =========                 |
  \\      /  F ield         | OpenFOAM: The Open Source CFD Toolbox
   \\    /   O peration     | Website:  https://openfoam.org
    \\  /    A nd           | Version:  7
     \\/     M anipulation  |
\*---------------------------------------------------------------------------*/
FoamFile
{
    version     2.0;
    format      ascii;
    class       volScalarField;
    location    "7.3";
    object      T;
}
// * * * * * * * * * * * * * * * * * * * * * * * * * * * * * * * * * * * * * //

dimensions      [0 0 0 1 0 0 0];

internalField   nonuniform List<scalar> 
3328
(
3.77435
2.74624
2.52278
2.52564
2.52821
2.53119
2.53443
2.538
2.54186
2.54599
2.55043
2.55521
2.56044
2.56617
2.57243
2.57914
2.58604
2.59323
2.60105
2.61121
2.62534
2.64467
2.66262
2.67077
3.77451
2.74638
2.52275
2.52558
2.52814
2.53108
2.53427
2.53778
2.54158
2.54567
2.55005
2.55479
2.55996
2.56564
2.57183
2.57848
2.58527
2.59231
2.59997
2.60996
2.62392
2.64314
2.66096
2.66905
3.77505
2.74649
2.52291
2.52567
2.52819
2.53107
2.53418
2.53759
2.54127
2.54525
2.54953
2.55415
2.5592
2.56476
2.57081
2.57729
2.58386
2.59061
2.59798
2.60771
2.62149
2.64072
2.65854
2.66671
3.7762
2.74692
2.52332
2.52595
2.5284
2.53118
2.5342
2.53749
2.54102
2.54482
2.54893
2.55337
2.55821
2.56354
2.56934
2.57556
2.58185
2.58832
2.59546
2.60486
2.61816
2.63684
2.65421
2.6621
3.77799
2.74765
2.52409
2.52657
2.52892
2.53156
2.53441
2.53754
2.5409
2.54449
2.54836
2.55256
2.55712
2.56212
2.56755
2.57338
2.57927
2.58519
2.59172
2.60005
2.61207
2.63031
2.64796
2.65689
3.78051
2.74874
2.52528
2.5276
2.52984
2.53231
2.53495
2.53783
2.54096
2.54432
2.54791
2.55181
2.55602
2.5606
2.56555
2.57081
2.57619
2.5815
2.58743
2.59488
2.60611
2.62358
2.6416
2.65023
3.78373
2.75019
2.52689
2.52904
2.53115
2.53343
2.53585
2.53844
2.54126
2.54432
2.54761
2.55116
2.55499
2.55907
2.56347
2.56806
2.57289
2.57757
2.58249
2.58786
2.59614
2.61022
2.62995
2.6458
3.78757
2.75189
2.52884
2.53078
2.53276
2.53485
2.53705
2.53935
2.54183
2.54452
2.54748
2.55064
2.55405
2.5576
2.56142
2.56534
2.56945
2.57327
2.57668
2.58006
2.58616
2.60102
2.62501
2.66041
3.7917
2.75354
2.53086
2.53254
2.53441
2.53633
2.53836
2.54041
2.54261
2.54493
2.54751
2.55021
2.55317
2.55619
2.55944
2.56275
2.56594
2.56877
2.57076
2.57265
2.57557
2.58389
2.58633
2.59781
3.79562
2.75459
2.53267
2.53403
2.53591
2.53775
2.53967
2.54153
2.54348
2.54548
2.54765
2.5499
2.55233
2.55483
2.55752
2.56019
2.56241
2.56432
2.56503
2.56511
2.56497
2.56569
2.57101
2.57779
3.79887
2.75446
2.5341
2.53509
2.53708
2.53895
2.54082
2.54252
2.54427
2.54601
2.54781
2.54962
2.55151
2.55352
2.55558
2.5575
2.55893
2.55978
2.5596
2.55809
2.55571
2.55099
2.55391
2.55475
3.8015
2.75321
2.53531
2.53584
2.53783
2.53985
2.54163
2.54319
2.54477
2.54631
2.54782
2.54928
2.55071
2.55218
2.55357
2.55479
2.55549
2.55534
2.55459
2.55212
2.54817
2.54241
2.54195
2.54039
3.80421
2.75198
2.53587
2.53664
2.53862
2.54058
2.54214
2.54351
2.54498
2.54633
2.54761
2.54876
2.54982
2.55079
2.55165
2.55216
2.55222
2.55147
2.55001
2.54717
2.54269
2.5371
2.53141
2.53135
3.8078
2.75298
2.53632
2.53804
2.54003
2.54148
2.54256
2.54369
2.54503
2.54614
2.54712
2.54794
2.54869
2.54929
2.54975
2.54976
2.54939
2.54817
2.54608
2.54293
2.53847
2.53297
2.52683
2.52324
3.81301
2.75593
2.53811
2.54032
2.54202
2.54273
2.54313
2.54395
2.5451
2.54594
2.54658
2.54699
2.54736
2.5476
2.5478
2.54761
2.54694
2.54544
2.54297
2.53959
2.53522
2.52986
2.52348
2.51759
3.81969
2.76094
2.542
2.54402
2.54439
2.54405
2.54395
2.54457
2.54558
2.54615
2.54639
2.54638
2.54623
2.54604
2.54592
2.54557
2.54472
2.54304
2.54038
2.53688
2.53262
2.52757
2.52132
2.51471
3.82684
2.76641
2.54703
2.54811
2.54743
2.54607
2.54561
2.54613
2.54703
2.5473
2.54712
2.54656
2.54579
2.54512
2.54456
2.54385
2.5427
2.54077
2.53796
2.5344
2.53022
2.52548
2.51971
2.5129
3.83348
2.77198
2.55205
2.55172
2.54992
2.54813
2.54779
2.54863
2.54959
2.54968
2.54895
2.54755
2.54617
2.54505
2.54408
2.54295
2.54126
2.53879
2.5356
2.53182
2.52759
2.52298
2.51771
2.51126
3.83959
2.77768
2.55581
2.55443
2.55164
2.55016
2.5504
2.55181
2.55289
2.55269
2.55131
2.54925
2.54728
2.54571
2.54444
2.54299
2.54081
2.53768
2.53373
2.52933
2.5247
2.51987
2.51471
2.50854
3.84546
2.78354
2.55874
2.55611
2.55284
2.55226
2.55357
2.55556
2.55646
2.55565
2.55356
2.55105
2.54879
2.54701
2.54551
2.54378
2.54132
2.53771
2.533
2.52769
2.52217
2.51662
2.5109
2.50446
3.85124
2.78962
2.56083
2.55662
2.55405
2.55518
2.55779
2.55971
2.55978
2.55807
2.5553
2.55259
2.5503
2.54855
2.54706
2.54527
2.54256
2.53854
2.53342
2.52749
2.52109
2.51447
2.50751
2.49997
3.85679
2.79515
2.56146
2.55683
2.55664
2.55984
2.56261
2.56356
2.56256
2.55987
2.55665
2.55385
2.55165
2.55009
2.54879
2.54701
2.54409
2.53983
2.53446
2.52832
2.52165
2.51435
2.5062
2.49715
3.86204
2.79813
2.56036
2.55879
2.56136
2.56521
2.56683
2.56655
2.56452
2.56116
2.5578
2.55511
2.55323
2.552
2.55081
2.54873
2.54534
2.54086
2.53559
2.52972
2.52319
2.51588
2.50747
2.49752
3.86711
2.79888
2.55934
2.56305
2.56727
2.56967
2.56978
2.5684
2.5654
2.56192
2.55891
2.55693
2.55592
2.55518
2.55369
2.55065
2.54636
2.54148
2.53633
2.53099
2.52519
2.51864
2.51055
2.50044
3.87219
2.79834
2.56179
2.56882
2.57225
2.5728
2.57176
2.569
2.56543
2.56227
2.56033
2.55997
2.56034
2.56
2.55772
2.55334
2.54793
2.54238
2.53704
2.53207
2.5271
2.52162
2.51454
2.50522
3.87739
2.79792
2.56822
2.57459
2.57618
2.57531
2.57258
2.56867
2.56508
2.56267
2.56253
2.56424
2.56579
2.56535
2.56224
2.5569
2.55065
2.54441
2.53861
2.53355
2.52895
2.52417
2.51787
2.50945
3.88259
2.79932
2.57562
2.57962
2.57926
2.57677
2.57238
2.5681
2.56483
2.5641
2.56612
2.56902
2.57037
2.56921
2.56549
2.56009
2.55397
2.54776
2.54182
2.53652
2.53159
2.52638
2.51976
2.51137
3.88765
2.80336
2.58139
2.58271
2.58092
2.5767
2.57156
2.56782
2.56646
2.56806
2.5711
2.57319
2.57311
2.57081
2.56658
2.56161
2.55658
2.55177
2.54706
2.54211
2.53632
2.52938
2.52113
2.51166
3.89257
2.80959
2.58467
2.58368
2.58045
2.57547
2.57183
2.57048
2.57197
2.57491
2.57681
2.57669
2.57456
2.57062
2.56591
2.56146
2.55805
2.55578
2.55368
2.55003
2.54351
2.5344
2.5237
2.51224
3.89742
2.81767
2.58606
2.58288
2.57801
2.57491
2.57401
2.57644
2.58022
2.58272
2.58277
2.58028
2.57552
2.57002
2.56477
2.56068
2.55861
2.55841
2.5583
2.55628
2.55035
2.54066
2.52836
2.5149
3.90219
2.82654
2.58634
2.58041
2.57602
2.57586
2.57886
2.58379
2.58741
2.58861
2.5871
2.5826
2.5763
2.56968
2.56363
2.55983
2.55902
2.55955
2.55947
2.55767
2.55276
2.54443
2.53306
2.5192
3.90656
2.83342
2.58527
2.57866
2.5765
2.57971
2.58495
2.5894
2.59131
2.5911
2.58822
2.58268
2.576
2.56924
2.56417
2.5618
2.56106
2.56038
2.55892
2.55597
2.55078
2.54362
2.53458
2.52305
3.91025
2.83617
2.58308
2.57963
2.5808
2.58604
2.5904
2.59253
2.59272
2.59079
2.58643
2.58101
2.57582
2.57164
2.56935
2.56775
2.56561
2.56249
2.55844
2.55308
2.54676
2.53993
2.5327
2.52517
3.91317
2.83434
2.5813
2.58432
2.58882
2.59301
2.59461
2.59445
2.59253
2.58849
2.58338
2.57851
2.5754
2.57573
2.57694
2.57634
2.5729
2.56692
2.5595
2.55113
2.54295
2.53582
2.53029
2.52603
3.91563
2.82955
2.58315
2.59172
2.59647
2.5983
2.5979
2.59515
2.59037
2.58522
2.58041
2.57695
2.57764
2.58079
2.58343
2.58364
2.58023
2.57235
2.56213
2.55118
2.54079
2.53289
2.52849
2.52692
3.91789
2.82556
2.58901
2.59734
2.60019
2.60082
2.59885
2.59441
2.58766
2.5817
2.57809
2.5781
2.58073
2.58381
2.58595
2.58634
2.5838
2.57603
2.56463
2.55201
2.54032
2.53228
2.52894
2.52822
3.92037
2.82676
2.59473
2.5995
2.60112
2.60034
2.59738
2.59231
2.58702
2.58288
2.58123
2.58193
2.58404
2.58579
2.5863
2.58563
2.58239
2.57597
2.56683
2.55612
2.54674
2.53969
2.53475
2.53096
3.92316
2.83361
2.59808
2.59964
2.59923
2.59691
2.59369
2.59099
2.58928
2.58883
2.58882
2.58913
2.58907
2.58796
2.58576
2.58219
2.57763
2.57306
2.56879
2.56385
2.5583
2.55215
2.54535
2.5377
3.92569
2.84326
2.59977
2.59836
2.59535
2.59202
2.58974
2.58927
2.59118
2.59445
2.59666
2.59671
2.59485
2.59047
2.58384
2.57695
2.5714
2.56802
2.56715
2.56788
2.56744
2.56385
2.55622
2.54564
3.92711
2.85027
2.59934
2.59525
2.59093
2.58901
2.58801
2.58969
2.59396
2.59898
2.60253
2.6024
2.59755
2.58948
2.58008
2.57221
2.56765
2.56778
2.57045
2.57358
2.57504
2.57266
2.56456
2.5508
2.50563
2.58447
2.64933
2.71575
2.7871
2.84948
2.88245
2.89181
2.6015
2.63901
2.66114
2.71416
2.78027
2.84307
2.87698
2.88796
2.57335
2.60742
2.63702
2.68945
2.75413
2.82011
2.86215
2.87676
2.55145
2.57824
2.61006
2.65925
2.71943
2.78688
2.83274
2.84984
2.53457
2.54977
2.57261
2.61227
2.66538
2.73352
2.78611
2.80774
2.5241
2.52995
2.54381
2.57073
2.61312
2.68107
2.7457
2.77022
2.51613
2.51744
2.52331
2.53867
2.56673
2.62154
2.69584
2.74465
2.50895
2.5068
2.50747
2.51301
2.52761
2.56663
2.64609
2.75386
2.50511
2.49775
2.4929
2.49172
2.49314
2.50412
2.51679
2.49791
2.50307
2.49315
2.48274
2.47203
2.462
2.44534
2.41765
2.3235
2.50061
2.48984
2.47645
2.45951
2.4391
2.40669
2.35739
2.24184
2.49667
2.48612
2.4719
2.45238
2.42582
2.38772
2.32945
2.22636
2.4914
2.48076
2.46668
2.44737
2.41976
2.38152
2.32624
2.23891
2.48683
2.47496
2.46051
2.44218
2.41658
2.38166
2.33254
2.2627
2.48547
2.47177
2.45585
2.43741
2.41378
2.38266
2.34207
2.28755
2.48793
2.47317
2.4556
2.43584
2.41264
2.38447
2.35077
2.30784
2.4929
2.47775
2.45961
2.43908
2.41551
2.38845
2.35875
2.3234
2.49808
2.48396
2.46648
2.44605
2.42264
2.39606
2.36809
2.33678
2.50086
2.48856
2.47348
2.45521
2.43388
2.40873
2.38139
2.35113
2.5011
2.48993
2.47753
2.46285
2.44499
2.42285
2.3979
2.36906
2.50068
2.48934
2.47829
2.46636
2.45265
2.43455
2.41297
2.38761
2.50166
2.48909
2.47776
2.4668
2.4557
2.44191
2.42446
2.40242
2.50468
2.4906
2.47822
2.46687
2.45637
2.44443
2.43024
2.41229
2.50958
2.49542
2.48218
2.46959
2.45792
2.44528
2.43155
2.41603
2.51627
2.50513
2.49232
2.4781
2.46347
2.44822
2.43273
2.41704
2.52201
2.51584
2.50582
2.49124
2.47369
2.45474
2.4362
2.41902
2.52623
2.52341
2.5163
2.50367
2.4861
2.46531
2.44364
2.42334
2.5277
2.52548
2.51994
2.50985
2.49537
2.4764
2.45417
2.4315
2.52773
2.5237
2.5176
2.50863
2.49684
2.4817
2.46337
2.44266
2.52977
2.52171
2.5131
2.50316
2.49212
2.48072
2.46851
2.45333
2.53332
2.5202
2.50746
2.49536
2.48419
2.47484
2.46636
2.45702
2.5339
2.51641
2.50125
2.49095
2.48432
2.47792
2.47079
2.46309
1.83573
1.4371
1.43935
1.4657
1.53258
1.66655
1.82567
1.96237
2.07917
2.17424
2.2373
2.24418
2.29277
2.4011
2.44228
2.44659
2.43636
2.42159
2.41236
2.41203
2.41012
2.39327
2.3719
2.35003
2.33243
2.31698
2.30535
2.29828
2.29137
2.28303
2.27481
2.26832
2.26313
2.25449
2.24223
2.22808
2.20796
2.17858
2.15033
2.12761
2.10907
2.09524
2.0846
2.07717
2.07432
2.0728
2.06952
2.06407
2.05533
2.04288
2.02514
2.00074
1.97251
1.96307
1.97844
2.0367
2.12332
2.20174
2.24233
2.26061
2.26707
2.26622
2.26068
2.2523
2.24255
2.22563
2.20393
2.1915
2.18493
2.17922
2.17593
2.17764
2.1794
2.17631
2.1714
2.16687
2.16077
2.15
2.13316
2.1194
2.11246
2.10678
2.10278
2.10087
2.09751
2.09379
2.09117
2.08373
1.99319
1.77857
1.71171
1.65264
1.6096
1.60941
1.64605
1.7226
1.82767
1.94172
2.03996
2.09442
2.17935
2.30825
2.35813
2.38065
2.38156
2.37818
2.37534
2.37721
2.3809
2.37421
2.35986
2.34164
2.32297
2.30718
2.2929
2.28098
2.26936
2.25634
2.24339
2.23256
2.2244
2.21652
2.20692
2.19601
2.18238
2.16754
2.1517
2.13374
2.11402
2.09479
2.08043
2.07134
2.06572
2.06176
2.05528
2.04661
2.03519
2.02011
2.00424
1.98963
1.9805
1.99032
2.01833
2.06305
2.11589
2.17138
2.21552
2.24071
2.24698
2.24269
2.23798
2.23183
2.22345
2.21271
2.20324
2.19451
2.18563
2.17817
2.17247
2.17115
2.17072
2.16504
2.15912
2.15313
2.14566
2.13666
2.12667
2.11854
2.11104
2.10448
2.0997
2.09641
2.0923
2.08856
2.08533
2.07723
2.05199
1.89209
1.79188
1.74073
1.67277
1.61025
1.58502
1.61265
1.66012
1.71286
1.81032
1.91124
2.02728
2.16394
2.22905
2.26849
2.27457
2.27982
2.28417
2.28853
2.29405
2.29582
2.29087
2.28217
2.2698
2.25961
2.2515
2.24281
2.22966
2.21035
2.18743
2.17015
2.1591
2.15091
2.14212
2.13274
2.12515
2.11968
2.11315
2.10407
2.09408
2.08196
2.06742
2.05171
2.0387
2.02868
2.019
2.00823
1.99576
1.98191
1.96714
1.96398
1.97653
2.00949
2.04423
2.06516
2.08241
2.11892
2.16648
2.19848
2.20558
2.20152
2.19562
2.19034
2.1841
2.17894
2.1762
2.17279
2.16787
2.16237
2.15722
2.15245
2.14587
2.13931
2.13266
2.12477
2.11559
2.10697
2.10319
2.09958
2.09455
2.08971
2.08542
2.08069
2.07655
2.07293
2.06926
2.05925
2.10248
1.98585
1.87444
1.82527
1.77154
1.695
1.66072
1.63996
1.61763
1.62398
1.6653
1.74585
1.84695
1.99019
2.09311
2.1724
2.19166
2.20011
2.2013
2.20398
2.20768
2.20903
2.20756
2.20315
2.19651
2.19085
2.18503
2.17761
2.16638
2.14916
2.1287
2.10997
2.09518
2.08466
2.0773
2.07182
2.06758
2.06429
2.06136
2.05817
2.05311
2.04561
2.0346
2.0185
2.00008
1.98285
1.96761
1.95401
1.94058
1.92919
1.92822
1.94243
1.97713
2.01877
2.04469
2.04588
2.04513
2.05794
2.08553
2.12493
2.14395
2.14866
2.14407
2.14136
2.14014
2.13853
2.13656
2.13589
2.1349
2.1325
2.12738
2.11937
2.11001
2.10141
2.09304
2.08414
2.07643
2.07302
2.0712
2.06936
2.06675
2.06276
2.05719
2.05179
2.0476
2.04406
2.03939
2.0272
2.14622
2.06061
1.96331
1.89822
1.85461
1.78837
1.73605
1.71303
1.67849
1.64941
1.65798
1.68033
1.72326
1.82195
1.96578
2.09162
2.15175
2.17289
2.16618
2.15894
2.15443
2.15086
2.14886
2.14716
2.14346
2.13845
2.13087
2.11988
2.10677
2.09302
2.07949
2.06568
2.05113
2.03819
2.03022
2.02666
2.02521
2.02543
2.02623
2.02359
2.0164
2.00698
1.99438
1.9793
1.96131
1.94061
1.9178
1.89734
1.88872
1.88946
1.90232
1.93724
1.98351
2.01847
2.0258
2.02157
2.0133
2.00704
2.01205
2.03482
2.07117
2.0929
2.10077
2.10248
2.10379
2.10479
2.10262
2.10332
2.10392
2.10224
2.09679
2.08556
2.07139
2.05844
2.04751
2.04011
2.0368
2.03552
2.03617
2.03696
2.0363
2.0332
2.02783
2.02198
2.0162
2.00976
2.00065
1.98705
2.19026
2.11894
2.04131
1.97126
1.92668
1.87539
1.81471
1.78638
1.76559
1.73191
1.70803
1.70214
1.70451
1.72004
1.80378
1.97675
2.12218
2.1657
2.16346
2.15054
2.13543
2.12542
2.11887
2.11556
2.11556
2.11203
2.10577
2.09526
2.0843
2.07562
2.06699
2.05695
2.04443
2.02933
2.01556
2.00747
2.00312
1.99961
1.99539
1.98849
1.97912
1.96741
1.95393
1.93998
1.92497
1.90771
1.88512
1.86813
1.86755
1.87552
1.90761
1.95218
1.99366
2.01249
2.0105
2.00293
1.98858
1.97393
1.96417
1.96597
1.99657
2.03854
2.06273
2.0769
2.08528
2.08765
2.08433
2.08152
2.07888
2.07427
2.06503
2.05225
2.03794
2.02463
2.01573
2.01142
2.00932
2.00924
2.01237
2.01464
2.01393
2.01122
2.00525
1.99443
1.98248
1.97278
1.96354
1.95548
2.22997
2.16955
2.10558
2.04215
1.99213
1.94886
1.89546
1.84904
1.82991
1.81007
1.7801
1.74662
1.72645
1.73338
1.74533
1.82097
2.01128
2.15092
2.17176
2.16142
2.14289
2.12798
2.11791
2.10795
2.09969
2.094
2.09072
2.08983
2.0865
2.07901
2.06983
2.05944
2.04727
2.03228
2.01557
1.99982
1.9859
1.9742
1.96511
1.95699
1.94879
1.93977
1.92943
1.91716
1.90432
1.89001
1.87216
1.86817
1.87445
1.89905
1.94479
1.97897
1.99665
2.00026
1.99494
1.98349
1.96937
1.95468
1.94187
1.94014
1.94976
1.98832
2.02904
2.05712
2.07335
2.07434
2.06936
2.06223
2.05684
2.05103
2.04111
2.02762
2.01613
2.00708
2.00147
1.99843
1.99691
1.99897
2.00322
2.00251
1.99971
1.99456
1.98439
1.96968
1.95472
1.94464
1.93857
1.93517
2.26193
2.21139
2.1582
2.10496
2.05656
2.01296
1.96895
1.92027
1.8859
1.86982
1.84812
1.81362
1.78008
1.76859
1.76351
1.77031
1.84013
2.03105
2.15877
2.16974
2.1598
2.14742
2.13238
2.11597
2.10242
2.09175
2.0841
2.07943
2.07818
2.07439
2.06658
2.05781
2.04622
2.03169
2.01614
1.99899
1.98116
1.96375
1.94898
1.93814
1.92979
1.92249
1.91625
1.9088
1.89942
1.88829
1.88072
1.88652
1.90996
1.9526
1.98909
1.99814
1.994
1.98566
1.9772
1.96839
1.95847
1.94678
1.93451
1.9328
1.93746
1.95642
1.99371
2.03634
2.05991
2.06197
2.05706
2.04834
2.04151
2.03488
2.02509
2.01522
2.00778
2.00176
1.99804
1.9965
1.99663
1.99846
1.99714
1.99318
1.98817
1.98059
1.96845
1.95222
1.93813
1.9293
1.92641
1.92527
2.2856
2.24395
2.19925
2.15582
2.11363
2.07175
2.03091
1.99052
1.95002
1.9198
1.8995
1.87552
1.84139
1.81127
1.78913
1.77876
1.78896
1.8549
2.035
2.14906
2.16851
2.16269
2.15042
2.13311
2.11084
2.09548
2.086
2.07775
2.0721
2.06699
2.05974
2.05141
2.04197
2.03011
2.01548
1.99914
1.9804
1.96244
1.94724
1.9349
1.9254
1.91731
1.90941
1.9006
1.89499
1.89472
1.9027
1.92876
1.9718
2.00445
2.01197
2.00557
1.98932
1.97287
1.96594
1.96098
1.95569
1.94781
1.94063
1.93673
1.93756
1.94787
1.96836
2.00738
2.04494
2.05562
2.05184
2.04117
2.03252
2.02615
2.01831
2.01173
2.00718
2.00418
2.00275
2.00175
1.9999
1.99578
1.98971
1.98389
1.97751
1.96813
1.95532
1.94328
1.93322
1.92562
1.92329
1.92521
2.3038
2.26833
2.23119
2.19338
2.15713
2.12086
2.08299
2.04732
2.01292
1.97744
1.94679
1.92245
1.89701
1.86427
1.83313
1.80874
1.79579
1.80551
1.8686
2.03542
2.14553
2.16578
2.15725
2.14258
2.12352
2.10289
2.08888
2.07948
2.06919
2.05922
2.05006
2.04129
2.03273
2.02402
2.0143
2.00114
1.98371
1.9663
1.95174
1.93965
1.92931
1.91882
1.90837
1.90078
1.89891
1.90542
1.93484
1.98472
2.01798
2.02502
2.01958
2.0049
1.9851
1.9744
1.96828
1.96297
1.95916
1.95812
1.9579
1.95498
1.95157
1.94977
1.95444
1.97075
2.00763
2.0373
2.04351
2.036
2.0286
2.02425
2.01951
2.01547
2.01303
2.01255
2.01094
2.00698
2.00068
1.99168
1.98348
1.97567
1.96645
1.95562
1.94687
1.94073
1.93484
1.93036
1.9303
1.93764
2.31981
2.28748
2.25473
2.22231
2.18992
2.15859
2.12551
2.09226
2.06244
2.03192
1.99907
1.96723
1.93875
1.91192
1.88381
1.85328
1.82409
1.80934
1.81763
1.88197
2.03823
2.13939
2.15346
2.1445
2.12819
2.1119
2.09574
2.08035
2.06645
2.05297
2.04092
2.03146
2.02347
2.01579
2.00725
1.99765
1.98649
1.97546
1.96453
1.95169
1.93456
1.91845
1.90592
1.90175
1.9037
1.93259
1.98353
2.02577
2.03504
2.0305
2.01758
2.0016
1.98994
1.98288
1.97737
1.97323
1.97191
1.9731
1.97132
1.96626
1.95897
1.95151
1.94527
1.94347
1.95693
1.9927
2.0233
2.02958
2.02893
2.02806
2.02871
2.02588
2.02306
2.02029
2.01531
2.00825
1.99892
1.98711
1.975
1.96459
1.95595
1.94898
1.94333
1.93928
1.93817
1.9404
1.94549
1.95817
2.33755
2.30521
2.27379
2.24339
2.21374
2.18482
2.15718
2.12889
2.10107
2.07402
2.04468
2.01318
1.9809
1.95115
1.92532
1.89966
1.8694
1.83817
1.82187
1.82918
1.89222
2.03625
2.123
2.13713
2.12863
2.11481
2.10032
2.08379
2.0667
2.05181
2.0384
2.02698
2.01755
2.00923
2.00139
1.9949
1.99008
1.98283
1.97211
1.95603
1.93566
1.91525
1.90353
1.90371
1.92733
1.98096
2.02586
2.04278
2.03898
2.0308
2.01923
2.00817
2.00312
1.99993
1.99562
1.98961
1.98407
1.97837
1.97284
1.96714
1.95995
1.9518
1.94169
1.93111
1.92966
1.9479
1.9874
2.01711
2.02896
2.03732
2.03899
2.03477
2.02931
2.02255
2.0154
2.00727
1.99503
1.97942
1.96655
1.95829
1.95248
1.94783
1.94394
1.94355
1.94899
1.95611
1.96353
1.98182
2.3584
2.32574
2.29288
2.26209
2.23276
2.20556
2.18005
2.15413
2.12908
2.10526
2.08015
2.05149
2.02148
1.992
1.96338
1.93751
1.91244
1.88339
1.85001
1.83275
1.83764
1.89651
2.02845
2.10257
2.12053
2.11356
2.10153
2.08632
2.06922
2.05318
2.03984
2.02723
2.01428
2.00397
1.99626
1.98937
1.98252
1.97486
1.96485
1.95109
1.93363
1.91373
1.90737
1.92666
1.97947
2.02673
2.04489
2.04746
2.0424
2.03391
2.02603
2.02164
2.01931
2.01624
2.00954
1.99753
1.98733
1.98023
1.97392
1.96762
1.96032
1.95134
1.94011
1.9283
1.9249
1.92979
1.95371
1.99411
2.0282
2.04485
2.04404
2.03824
2.02954
2.02136
2.01336
2.00284
1.98859
1.97561
1.96567
1.95754
1.95231
1.94869
1.9486
1.95547
1.96211
1.96842
1.98324
2.00408
2.37709
2.34842
2.31632
2.28273
2.25194
2.22439
2.19936
2.17534
2.1503
2.12624
2.10415
2.0811
2.05469
2.02796
2.00133
1.97365
1.94657
1.92038
1.89101
1.85832
1.84004
1.84352
1.89873
2.0166
2.08915
2.10676
2.09811
2.08584
2.07142
2.05702
2.04311
2.02856
2.01341
2.00001
1.99067
1.98323
1.97527
1.9652
1.95317
1.94044
1.93013
1.92108
1.93665
1.98497
2.03562
2.05054
2.05395
2.0517
2.04883
2.04394
2.03934
2.03582
2.03163
2.02497
2.01355
1.99877
1.988
1.98084
1.97441
1.96795
1.96084
1.95223
1.94145
1.92991
1.92597
1.9269
1.93985
1.97047
2.01306
2.04014
2.04278
2.03809
2.02801
2.01716
2.00749
1.99646
1.98483
1.97537
1.96764
1.96096
1.95584
1.95397
1.95575
1.95987
1.96751
1.9808
2.0015
2.0145
2.39033
2.36595
2.33965
2.30971
2.27609
2.24516
2.21937
2.19425
2.16971
2.14461
2.12115
2.10103
2.08024
2.05612
2.03144
2.00595
1.97885
1.95134
1.92405
1.89427
1.86397
1.8451
1.84666
1.89759
2.00417
2.07573
2.09084
2.08306
2.07131
2.05843
2.04423
2.02926
2.01348
1.99864
1.98706
1.97775
1.96663
1.95343
1.9406
1.93296
1.93167
1.94874
2.00057
2.05189
2.0697
2.06553
2.06065
2.05808
2.05698
2.05327
2.04793
2.04234
2.03561
2.02661
2.01314
1.99951
1.99105
1.98415
1.97757
1.97094
1.9639
1.95569
1.94588
1.93904
1.93428
1.93291
1.93785
1.95226
1.98178
2.01774
2.03373
2.03164
2.02188
2.00941
2.00029
1.99226
1.98363
1.97755
1.97315
1.96981
1.96495
1.96251
1.96287
1.96592
1.97719
1.99651
2.01506
2.01395
2.39833
2.37805
2.35546
2.33137
2.30536
2.27459
2.2428
2.21491
2.18882
2.16295
2.13776
2.11514
2.09617
2.07666
2.05389
2.03014
2.00592
1.98052
1.95428
1.92576
1.89442
1.86358
1.84548
1.84659
1.89275
1.99184
2.06088
2.07488
2.06784
2.05593
2.04285
2.02876
2.01273
1.99789
1.98672
1.97353
1.95762
1.94234
1.93179
1.93382
1.95094
2.00645
2.06786
2.09112
2.08993
2.0788
2.06993
2.06524
2.06028
2.0553
2.05039
2.04458
2.0372
2.02571
2.01188
2.00262
1.99561
1.98926
1.98304
1.97683
1.97006
1.96285
1.95769
1.95402
1.9497
1.94474
1.93995
1.9386
1.94554
1.96889
2.00101
2.01494
2.01206
2.00253
1.99669
1.99085
1.98569
1.9818
1.9803
1.97789
1.97396
1.96965
1.96972
1.97669
1.99293
2.01167
2.01639
2.01041
2.4014
2.38496
2.36595
2.34566
2.32541
2.30133
2.27215
2.24007
2.20956
2.18278
2.15619
2.1312
2.10933
2.08985
2.06986
2.04795
2.02555
2.00321
1.97961
1.95356
1.92318
1.88896
1.85831
1.84313
1.84447
1.88615
1.98035
2.04311
2.05671
2.05077
2.03876
2.02548
2.01148
1.99893
1.98384
1.96578
1.94801
1.93646
1.93597
1.94988
2.00579
2.07269
2.10524
2.10806
2.10095
2.08681
2.0763
2.06965
2.0637
2.05848
2.05325
2.04657
2.03728
2.02532
2.01459
2.00768
2.00202
1.99622
1.99046
1.98585
1.98046
1.97455
1.96956
1.96417
1.95756
1.94887
1.93961
1.92915
1.92165
1.92803
1.95324
1.98554
2.00005
1.99945
1.99592
1.99291
1.99189
1.99041
1.98653
1.98158
1.97785
1.97651
1.97958
1.99273
2.01208
2.01752
2.01449
2.01163
2.40327
2.3882
2.37251
2.35606
2.33911
2.3195
2.29474
2.26647
2.23535
2.20353
2.17515
2.14895
2.12409
2.10257
2.08308
2.06318
2.04236
2.02069
1.99792
1.97333
1.94584
1.91514
1.88203
1.85462
1.8388
1.83944
1.87808
1.9641
2.02183
2.03927
2.03289
2.02174
2.00923
1.99511
1.976
1.95605
1.94309
1.94031
1.95093
2.00442
2.07225
2.11248
2.1189
2.11457
2.10412
2.09109
2.08235
2.07548
2.06873
2.06225
2.05566
2.04737
2.0377
2.02817
2.0216
2.01677
2.01251
2.00725
2.00059
1.9901
1.98107
1.97578
1.9706
1.96506
1.95866
1.95018
1.9391
1.92494
1.91432
1.91346
1.92292
1.95142
1.98337
1.9985
1.99969
2.0005
1.99665
1.98903
1.98221
1.97945
1.98038
1.98536
1.99616
2.01484
2.02422
2.02319
2.02078
2.01676
2.40587
2.39057
2.3767
2.36341
2.34917
2.3317
2.30953
2.28417
2.25659
2.22677
2.19512
2.16602
2.14013
2.11703
2.09652
2.07616
2.0549
2.0331
2.0107
1.98717
1.96206
1.93536
1.90675
1.87628
1.84968
1.83209
1.8317
1.86627
1.94162
2.00064
2.0222
2.01498
2.00196
1.98539
1.96528
1.94903
1.94501
1.95358
2.00269
2.0759
2.11797
2.1261
2.12182
2.11303
2.10248
2.09486
2.08922
2.08278
2.07491
2.06597
2.05649
2.04797
2.04081
2.03544
2.03192
2.02913
2.02398
2.01722
2.00576
1.99112
1.98185
1.97609
1.97055
1.96468
1.95803
1.94947
1.93787
1.92391
1.91362
1.91057
1.91378
1.92957
1.96055
1.99194
2.00365
2.00168
1.99562
1.98637
1.97954
1.97975
1.98522
1.99572
2.01662
2.02728
2.02966
2.02963
2.02844
2.02752
2.41059
2.39343
2.37986
2.36743
2.35385
2.33741
2.31789
2.29514
2.26955
2.24217
2.21354
2.18383
2.15632
2.13176
2.10926
2.08771
2.06607
2.04366
2.02007
1.99575
1.97193
1.94869
1.92464
1.89781
1.86809
1.8409
1.82227
1.8208
1.85147
1.92025
1.98701
1.9987
1.99046
1.97403
1.95431
1.94896
1.95643
2.002
2.08025
2.12736
2.13572
2.1286
2.1182
2.10969
2.104
2.09939
2.09514
2.08924
2.08116
2.06956
2.05802
2.05083
2.04622
2.04422
2.04292
2.03733
2.03049
2.02098
2.00686
1.9927
1.983
1.97572
1.96952
1.9633
1.95637
1.9477
1.93651
1.92429
1.91636
1.91166
1.91168
1.92132
1.93991
1.97112
1.99522
1.99786
1.99067
1.98149
1.97846
1.98093
1.99078
2.01252
2.02806
2.03491
2.03563
2.03494
2.03689
2.03847
2.42234
2.40327
2.3859
2.37056
2.35458
2.33749
2.31958
2.29924
2.27638
2.25104
2.22426
2.19772
2.17186
2.14661
2.12208
2.09798
2.0742
2.05058
2.02683
2.00286
1.9793
1.95704
1.93546
1.9125
1.88567
1.85599
1.82883
1.81081
1.80912
1.83503
1.90478
1.95516
1.96941
1.95792
1.94996
1.95789
1.99839
2.07854
2.13622
2.14196
2.13573
2.12497
2.11652
2.11046
2.10598
2.10431
2.10091
2.09478
2.08606
2.07278
2.06157
2.05562
2.05113
2.04802
2.0435
2.03787
2.03108
2.02144
2.0083
1.99528
1.98517
1.97722
1.96971
1.96249
1.95497
1.94629
1.9362
1.92841
1.92306
1.91943
1.91851
1.91809
1.92234
1.93642
1.95925
1.97989
1.98202
1.97733
1.97862
1.98969
2.0098
2.02823
2.0384
2.04139
2.04187
2.04269
2.04484
2.04055
2.43549
2.41688
2.39778
2.37737
2.35722
2.33811
2.31898
2.29793
2.27675
2.25626
2.23293
2.2089
2.18461
2.15945
2.13327
2.10655
2.08028
2.05538
2.03145
2.00792
1.98462
1.96182
1.93992
1.91881
1.89653
1.87031
1.84191
1.81576
1.79745
1.79189
1.8124
1.8695
1.92572
1.93528
1.95196
1.9976
2.07114
2.13273
2.15219
2.14553
2.13443
2.12421
2.11758
2.11276
2.1096
2.10599
2.1011
2.09507
2.08667
2.07611
2.06737
2.06026
2.05361
2.04771
2.04244
2.03638
2.02866
2.01917
2.00946
2.00009
1.99116
1.98167
1.97206
1.96334
1.95488
1.94652
1.94037
1.93629
1.93179
1.9252
1.91781
1.91118
1.90389
1.90268
1.91386
1.94028
1.96338
1.97746
1.99525
2.01846
2.03867
2.04851
2.05054
2.05148
2.04986
2.04541
2.04036
2.03479
2.44441
2.4275
2.4074
2.38559
2.36273
2.33997
2.31751
2.29576
2.27591
2.25853
2.23893
2.2156
2.19189
2.16732
2.14113
2.11325
2.08495
2.05797
2.03301
2.00956
1.98695
1.96483
1.9431
1.92198
1.90106
1.87902
1.85359
1.82535
1.79669
1.77592
1.76371
1.78644
1.84665
1.90933
1.97895
2.06499
2.13359
2.15022
2.1482
2.1411
2.13254
2.12561
2.12111
2.11777
2.11325
2.10751
2.10097
2.09343
2.0852
2.07817
2.07173
2.06473
2.05673
2.048
2.03941
2.03111
2.02293
2.01539
2.0087
2.00286
1.99624
1.98738
1.9759
1.9649
1.95787
1.95278
1.94866
1.94408
1.93797
1.93029
1.9198
1.90499
1.88863
1.88341
1.88692
1.9047
1.94031
1.9807
2.02044
2.0498
2.06372
2.06542
2.06336
2.05947
2.05395
2.04728
2.04016
2.0304
2.45249
2.43641
2.41452
2.38994
2.36367
2.33773
2.31343
2.29325
2.27624
2.26033
2.24255
2.22005
2.19683
2.17267
2.14673
2.118
2.08721
2.05819
2.03268
2.00943
1.98731
1.96575
1.94444
1.92364
1.90331
1.88339
1.86114
1.83461
1.80282
1.77039
1.74649
1.74788
1.7776
1.88002
2.00715
2.11029
2.1831
2.17206
2.15268
2.13807
2.13053
2.12711
2.12382
2.11896
2.1132
2.10676
2.09878
2.09078
2.0849
2.07943
2.07328
2.06598
2.05669
2.04555
2.03433
2.02516
2.01846
2.01327
2.01039
2.00671
2.00071
1.99216
1.97744
1.96479
1.95877
1.95365
1.94882
1.94349
1.93736
1.9298
1.91791
1.89739
1.87953
1.87412
1.87511
1.88714
1.92333
1.98155
2.03479
2.07551
2.08691
2.08381
2.07639
2.06662
2.05726
2.04832
2.03789
2.02205
)
;

boundaryField
{
    inlet
    {
        type            fixedValue;
        value           uniform 1;
    }
    outlet
    {
        type            inletOutlet;
        inletValue      uniform 1;
        value           nonuniform List<scalar> 
24
(
2.08402
2.07717
2.05854
2.02615
1.98626
1.95579
1.93593
1.92614
1.92644
1.93903
1.95847
1.98132
2.00319
2.01318
2.01222
2.00991
2.01154
2.01738
2.02923
2.03974
2.04101
2.03524
2.02976
2.02059
)
;
    }
    bottom
    {
        type            zeroGradient;
    }
    top
    {
        type            zeroGradient;
    }
    obstacle
    {
        type            zeroGradient;
    }
    defaultFaces
    {
        type            empty;
    }
}


// ************************************************************************* //
