/*--------------------------------*- C++ -*----------------------------------*\
  =========                 |
  \\      /  F ield         | OpenFOAM: The Open Source CFD Toolbox
   \\    /   O peration     | Website:  https://openfoam.org
    \\  /    A nd           | Version:  7
     \\/     M anipulation  |
\*---------------------------------------------------------------------------*/
FoamFile
{
    version     2.0;
    format      ascii;
    class       volScalarField;
    location    "3.4";
    object      p;
}
// * * * * * * * * * * * * * * * * * * * * * * * * * * * * * * * * * * * * * //

dimensions      [1 -1 -2 0 0 0 0];

internalField   nonuniform List<scalar> 
16192
(
1
1
1
1
1
1
1
1
1
1
1
1
1
1
1
1
1
1
1
1
1
1
1
1
1
1
1
1
1
1
1
1
1
1
1
1
1
1
1
1
1
1
1
1
1
1
1
1
1
1
1
1
1
1
1
1
1
1
1
1
1
1
1
1
1
1
1
1
1
1
1
1
1
1
1
1
1
1
1
1
1
1
1
1
1
1
1
1
1
1
1
1
1
1
1
1
1
1
1
1
1
1
1
1
1
1
1
1
1
1
1
1
1
1
1
1
1
1
1
1
1
1
1
1
1
1
1
1
1
1
1
1
1
1
1
1
1
1
1
1
1
1
1
1.47931
7.90179
10.4292
10.467
10.5331
10.5895
10.6377
10.6822
10.7292
10.782
10.8404
10.8999
10.956
11.0081
11.0586
11.109
11.1575
11.1996
11.2343
11.266
11.3005
11.3411
11.3885
11.44
11.4907
11.5367
11.5768
11.6122
11.6453
11.6778
11.7104
11.7422
11.7715
11.7969
11.8184
11.8372
11.8554
11.8754
11.8984
11.9232
11.9471
11.9679
11.9851
11.9998
12.0133
12.0259
12.0361
12.0435
12.047
1
1
1
1
1
1
1
1
1
1
1
1
1
1
1
1
1
1
1
1
1
1
1
1
1
1
1
1
1
1
1
1
1
1
1
1
1
1
1
1
1
1
1
1
1
1
1
1
1
1
1
1
1
1
1
1
1
1
1
1
1
1
1
1
1
1
1
1
1
1
1
1
1
1
1
1
1
1
1
1
1
1
1
1
1
1
1
1
1
1
1
1
1
1
1
1
1
1
1
1
1
1
1
1
1
1
1
1
1
1
1
1
1
1
1
1
1
1
1
1
1
1
1
1
1
1
1
1
1
1
1
1
1
1
1
1
1
1
1
1
1
1
1
1.4668
7.86714
10.4233
10.4687
10.5329
10.5886
10.6363
10.6804
10.7272
10.7797
10.8375
10.8969
10.9533
11.0059
11.0569
11.1071
11.1554
11.1974
11.2325
11.2647
11.2996
11.3403
11.3875
11.4388
11.4893
11.5349
11.5747
11.61
11.6432
11.6761
11.709
11.7408
11.7697
11.7946
11.8158
11.8346
11.8533
11.8737
11.8967
11.9211
11.9444
11.9647
11.9816
11.9962
12.0099
12.0226
12.0331
12.0406
12.0444
1
1
1
1
1
1
1
1
1
1
1
1
1
1
1
1
1
1
1
1
1
1
1
1
1
1
1
1
1
1
1
1
1
1
1
1
1
1
1
1
1
1
1
1
1
1
1
1
1
1
1
1
1
1
1
1
1
1
1
1
1
1
1
1
1
1
1
1
1
1
1
1
1
1
1
1
1
1
1
1
1
1
1
1
1
1
1
1
1
1
1
1
1
1
1
1
1
1
1
1
1
1
1
1
1
1
1
1
1
1
1
1
1
1
1
1
1
1
1
1
1
1
1
1
1
1
1
1
1
1
1
1
1
1
1
1
1
1
1
1
1
1
1
1.43745
7.80146
10.4186
10.4654
10.5286
10.5839
10.6318
10.676
10.7227
10.7748
10.8319
10.8914
10.9484
11.0018
11.0534
11.1036
11.1518
11.1936
11.2292
11.2621
11.2974
11.3383
11.3855
11.4365
11.4866
11.5318
11.5712
11.6063
11.6395
11.6726
11.7059
11.7378
11.7665
11.791
11.8119
11.8309
11.8501
11.8711
11.8942
11.918
11.9402
11.9594
11.9756
11.9901
12.004
12.0171
12.0277
12.0354
12.0394
1
1
1
1
1
1
1
1
1
1
1
1
1
1
1
1
1
1
1
1
1
1
1
1
1
1
1
1
1
1
1
1
1
1
1
1
1
1
1
1
1
1
1
1
1
1
1
1
1
1
1
1
1
1
1
1
1
1
1
1
1
1
1
1
1
1
1
1
1
1
1
1
1
1
1
1
1
1
1
1
1
1
1
1
1
1
1
1
1
1
1
1
1
1
1
1
1
1
1
1
1
1
1
1
1
1
1
1
1
1
1
1
1
1
1
1
1
1
1
1
1
1
1
1
1
1
1
1
1
1
1
1
1
1
1
1
1
1
1
1
1
1
1
1.39525
7.702
10.4154
10.464
10.5259
10.5799
10.6269
10.67
10.7158
10.7669
10.8233
10.8829
10.9406
10.9948
11.0473
11.0975
11.1458
11.1876
11.2238
11.2573
11.2933
11.3343
11.3812
11.4318
11.4814
11.5262
11.5653
11.6002
11.6334
11.6667
11.7001
11.7319
11.7603
11.7846
11.8056
11.8252
11.8452
11.8668
11.8899
11.9129
11.934
11.952
11.9675
11.9818
11.9958
12.0091
12.02
12.0278
12.0321
1
1
1
1
1
1
1
1
1
1
1
1
1
1
1
1
1
1
1
1
1
1
1
1
1
1
1
1
1
1
1
1
1
1
1
1
1
1
1
1
1
1
1
1
1
1
1
1
1
1
1
1
1
1
1
1
1
1
1
1
1
1
1
1
1
1
1
1
1
1
1
1
1
1
1
1
1
1
1
1
1
1
1
1
1
1
1
1
1
1
1
1
1
1
1
1
1
1
1
1
1
1
1
1
1
1
1
1
1
1
1
1
1
1
1
1
1
1
1
1
1
1
1
1
1
1
1
1
1
1
1
1
1
1
1
1
1
1
1
1
1
1
1
1.34352
7.56989
10.4141
10.4618
10.5206
10.5731
10.6197
10.6623
10.7078
10.758
10.8135
10.8725
10.9304
10.9853
11.0386
11.0891
11.1374
11.1794
11.2163
11.2506
11.2871
11.3284
11.3752
11.4254
11.4746
11.5191
11.5579
11.5927
11.6257
11.6588
11.6919
11.7236
11.7519
11.7763
11.7977
11.8181
11.839
11.8611
11.8839
11.906
11.9257
11.9425
11.9573
11.9714
11.9855
11.999
12.0102
12.0182
12.0228
1
1
1
1
1
1
1
1
1
1
1
1
1
1
1
1
1
1
1
1
1
1
1
1
1
1
1
1
1
1
1
1
1
1
1
1
1
1
1
1
1
1
1
1
1
1
1
1
1
1
1
1
1
1
1
1
1
1
1
1
1
1
1
1
1
1
1
1
1
1
1
1
1
1
1
1
1
1
1
1
1
1
1
1
1
1
1
1
1
1
1
1
1
1
1
1
1
1
1
1
1
1
1
1
1
1
1
1
1
1
1
1
1
1
1
1
1
1
1
1
1
1
1
1
1
1
1
1
1
1
1
1
1
1
1
1
1
1
1
1
1
1
1
1.27949
7.39807
10.4116
10.4595
10.5154
10.5667
10.6132
10.6559
10.7009
10.7502
10.8042
10.862
10.9196
10.9747
11.0289
11.0798
11.1286
11.171
11.2086
11.2435
11.2803
11.3215
11.368
11.4177
11.4665
11.5106
11.5493
11.5837
11.6164
11.6489
11.6814
11.7126
11.7408
11.7657
11.788
11.8094
11.8311
11.8534
11.8757
11.8968
11.9153
11.9311
11.9451
11.9589
11.973
11.9866
11.9981
12.0065
12.0116
1
1
1
1
1
1
1
1
1
1
1
1
1
1
1
1
1
1
1
1
1
1
1
1
1
1
1
1
1
1
1
1
1
1
1
1
1
1
1
1
1
1
1
1
1
1
1
1
1
1
1
1
1
1
1
1
1
1
1
1
1
1
1
1
1
1
1
1
1
1
1
1
1
1
1
1
1
1
1
1
1
1
1
1
1
1
1
1
1
1
1
1
1
1
1
1
1
1
1
1
1
1
1
1
1
1
1
1
1
1
1
1
1
1
1
1
1
1
1
1
1
1
1
1
1
1
1
1
1
1
1
1
1
1
1
1
1
1
1
1
1
1
1
1.20585
7.19825
10.405
10.4539
10.507
10.5583
10.6054
10.6488
10.6941
10.7428
10.7955
10.8519
10.9085
10.9633
11.018
11.0692
11.1184
11.1612
11.1994
11.2347
11.2718
11.3128
11.3591
11.4085
11.4569
11.5007
11.539
11.573
11.6051
11.6368
11.6686
11.6994
11.7277
11.7531
11.7764
11.7986
11.8209
11.8432
11.8649
11.885
11.9025
11.9174
11.9308
11.9443
11.9582
11.9719
11.9839
11.9929
11.9986
1
1
1
1
1
1
1
1
1
1
1
1
1
1
1
1
1
1
1
1
1
1
1
1
1
1
1
1
1
1
1
1
1
1
1
1
1
1
1
1
1
1
1
1
1
1
1
1
1
1
1
1
1
1
1
1
1
1
1
1
1
1
1
1
1
1
1
1
1
1
1
1
1
1
1
1
1
1
1
1
1
1
1
1
1
1
1
1
1
1
1
1
1
1
1
1
1
1
1
1
1
1
1
1
1
1
1
1
1
1
1
1
1
1
1
1
1
1
1
1
1
1
1
1
1
1
1
1
1
1
1
1
1
1
1
1
1
1
1
1
1
1
1
1.11682
6.98588
10.3951
10.4445
10.4971
10.5489
10.5962
10.6405
10.6862
10.7349
10.7871
10.8423
10.8978
10.952
11.0063
11.0574
11.1065
11.1495
11.1883
11.2242
11.2616
11.3026
11.3486
11.3976
11.4456
11.489
11.5269
11.5604
11.5919
11.6231
11.6544
11.6849
11.7134
11.7393
11.7632
11.786
11.8084
11.8305
11.8517
11.8709
11.8874
11.9016
11.9145
11.9275
11.9411
11.9548
11.9673
11.9769
11.9831
1
1
1
1
1
1
1
1
1
1
1
1
1
1
1
1
1
1
1
1
1
1
1
1
1
1
1
1
1
1
1
1
1
1
1
1
1
1
1
1
1
1
1
1
1
1
1
1
1
1
1
1
1
1
1
1
1
1
1
1
1
1
1
1
1
1
1
1
1
1
1
1
1
1
1
1
1
1
1
1
1
1
1
1
1
1
1
1
1
1
1
1
1
1
1
1
1
1
1
1
1
1
1
1
1
1
1
1
1
1
1
1
1
1
1
1
1
1
1
1
1
1
1
1
1
1
1
1
1
1
1
1
1
1
1
1
1
1
1
1
1
1
1
1.01218
6.70961
10.3716
10.4273
10.4802
10.5347
10.5834
10.629
10.6755
10.7245
10.7768
10.8321
10.8873
10.9411
10.9946
11.045
11.0934
11.1359
11.1748
11.2112
11.2489
11.2898
11.3354
11.3839
11.4312
11.4741
11.5116
11.5448
11.5761
11.6072
11.6384
11.6689
11.6975
11.7237
11.7479
11.7708
11.7932
11.815
11.8356
11.8541
11.87
11.8836
11.896
11.9087
11.922
11.9357
11.9486
11.9587
11.9652
1
1
1
1
1
1
1
1
1
1
1
1
1
1
1
1
1
1
1
1
1
1
1
1
1
1
1
1
1
1
1
1
1
1
1
1
1
1
1
1
1
1
1
1
1
1
1
1
1
1
1
1
1
1
1
1
1
1
1
1
1
1
1
1
1
1
1
1
1
1
1
1
1
1
1
1
1
1
1
1
1
1
1
1
1
1
1
1
1
1
1
1
1
1
1
1
1
1
1
1
1
1
1
1
1
1
1
1
1
1
1
1
1
1
1
1
1
1
1
1
1
1
1
1
1
1
1
1
1
1
1
1
1
1
1
1
1
1
1
1
1
1
1
1.00018
6.33701
10.3299
10.4071
10.4619
10.5191
10.5691
10.6157
10.6629
10.7125
10.7652
10.8206
10.8754
10.9279
10.9796
11.0282
11.075
11.1166
11.1556
11.1932
11.2322
11.2741
11.32
11.368
11.4145
11.4567
11.4937
11.527
11.5585
11.5898
11.6212
11.6517
11.6804
11.7066
11.7307
11.7533
11.7753
11.7967
11.8169
11.8349
11.8502
11.8633
11.8753
11.8876
11.9006
11.9142
11.9273
11.9376
11.9441
1
1
1
1
1
1
1
1
1
1
1
1
1
1
1
1
1
1
1
1
1
1
1
1
1
1
1
1
1
1
1
1
1
1
1
1
1
1
1
1
1
1
1
1
1
1
1
1
1
1
1
1
1
1
1
1
1
1
1
1
1
1
1
1
1
1
1
1
1
1
1
1
1
1
1
1
1
1
1
1
1
1
1
1
1
1
1
1
1
1
1
1
1
1
1
1
1
1
1
1
1
1
1
1
1
1
1
1
1
1
1
1
1
1
1
1
1
1
1
1
1
1
1
1
1
1
1
1
1
1
1
1
1
1
1
1
1
1
1
1
1
1
1
1
5.89696
10.2837
10.386
10.4448
10.5057
10.5575
10.6049
10.6521
10.7011
10.7532
10.8082
10.8627
10.9147
10.9657
11.0134
11.0592
11.0996
11.1381
11.1758
11.2152
11.257
11.3023
11.3491
11.3943
11.4355
11.4723
11.506
11.5383
11.5703
11.602
11.6325
11.6611
11.687
11.7108
11.733
11.7546
11.7756
11.7955
11.8131
11.828
11.8405
11.8521
11.8642
11.877
11.8905
11.9036
11.9138
11.9202
1
1
1
1
1
1
1
1
1
1
1
1
1
1
1
1
1
1
1
1
1
1
1
1
1
1
1
1
1
1
1
1
1
1
1
1
1
1
1
1
1
1
1
1
1
1
1
1
1
1
1
1
1
1
1
1
1
1
1
1
1
1
1
1
1
1
1
1
1
1
1
1
1
1
1
1
1
1
1
1
1
1
1
1
1
1
1
1
1
1
1
1
1
1
1
1
1
1
1
1
1
1
1
1
1
1
1
1
1
1
1
1
1
1
1
1
1
1
1
1
1
1
1
1
1
1
1
1
1
1
1
1
1
1
1
1
1
1
1
1
1
1
1
1
5.40965
10.2189
10.3661
10.4275
10.4916
10.5459
10.5946
10.6413
10.6893
10.7406
10.7947
10.8491
10.901
10.9513
10.9976
11.0414
11.0798
11.1169
11.1545
11.1944
11.2365
11.2813
11.3272
11.3713
11.4117
11.4483
11.4825
11.5155
11.5481
11.5801
11.6107
11.639
11.6647
11.688
11.7097
11.7307
11.7514
11.7711
11.7886
11.803
11.8152
11.8263
11.8382
11.8509
11.8643
11.8771
11.8869
11.8929
1
1
1
1
1
1
1
1
1
1
1
1
1
1
1
1
1
1
1
1
1
1
1
1
1
1
1
1
1
1
1
1
1
1
1
1
1
1
1
1
1
1
1
1
1
1
1
1
1
1
1
1
1
1
1
1
1
1
1
1
1
1
1
1
1
1
1
1
1
1
1
1
1
1
1
1
1
1
1
1
1
1
1
1
1
1
1
1
1
1
1
1
1
1
1
1
1
1
1
1
1
1
1
1
1
1
1
1
1
1
1
1
1
1
1
1
1
1
1
1
1
1
1
1
1
1
1
1
1
1
1
1
1
1
1
1
1
1
1
1
1
1
1
1
4.8868
10.1231
10.349
10.4117
10.478
10.5342
10.5842
10.6306
10.6774
10.7273
10.7801
10.834
10.8858
10.9355
10.9807
11.0231
11.0603
11.0966
11.1342
11.1742
11.2159
11.2596
11.3039
11.3466
11.3859
11.4224
11.457
11.4908
11.5241
11.5563
11.5867
11.6144
11.6394
11.6621
11.6832
11.7038
11.7242
11.7438
11.7611
11.7753
11.7869
11.7976
11.8092
11.8218
11.8352
11.8478
11.8569
11.8627
1
1
1
1
1
1
1
1
1
1
1
1
1
1
1
1
1
1
1
1
1
1
1
1
1
1
1
1
1
1
1
1
1
1
1
1
1
1
1
1
1
1
1
1
1
1
1
1
1
1
1
1
1
1
1
1
1
1
1
1
1
1
1
1
1
1
1
1
1
1
1
1
1
1
1
1
1
1
1
1
1
1
1
1
1
1
1
1
1
1
1
1
1
1
1
1
1
1
1
1
1
1
1
1
1
1
1
1
1
1
1
1
1
1
1
1
1
1
1
1
1
1
1
1
1
1
1
1
1
1
1
1
1
1
1
1
1
1
1
1
1
1
1
1
4.33613
9.98565
10.3382
10.4009
10.4672
10.5238
10.5741
10.6201
10.6658
10.7144
10.7656
10.8183
10.8697
10.9186
10.9628
11.0041
11.0406
11.0762
11.1134
11.1529
11.1938
11.2361
11.2789
11.3202
11.3587
11.3947
11.4293
11.4634
11.497
11.5291
11.5591
11.5862
11.6106
11.6328
11.6535
11.6737
11.6939
11.7135
11.7307
11.7446
11.7557
11.7658
11.777
11.7896
11.8029
11.8151
11.8235
11.829
1
1
1
1
1
1
1
1
1
1
1
1
1
1
1
1
1
1
1
1
1
1
1
1
1
1
1
1
1
1
1
1
1
1
1
1
1
1
1
1
1
1
1
1
1
1
1
1
1
1
1
1
1
1
1
1
1
1
1
1
1
1
1
1
1
1
1
1
1
1
1
1
1
1
1
1
1
1
1
1
1
1
1
1
1
1
1
1
1
1
1
1
1
1
1
1
1
1
1
1
1
1
1
1
1
1
1
1
1
1
1
1
1
1
1
1
1
1
1
1
1
1
1
1
1
1
1
1
1
1
1
1
1
1
1
1
1
1
1
1
1
1
1
1
3.76879
9.79454
10.3329
10.3946
10.4585
10.5133
10.5627
10.608
10.6524
10.6998
10.7498
10.8011
10.852
10.9005
10.9443
10.9851
11.0213
11.0564
11.0927
11.1311
11.1708
11.2118
11.2533
11.2933
11.3305
11.3656
11.3996
11.4333
11.4667
11.4986
11.5281
11.5547
11.5784
11.6
11.6201
11.64
11.6601
11.6796
11.6968
11.7104
11.7211
11.7307
11.7414
11.7537
11.7669
11.7788
11.7867
11.7921
1
1
1
1
1
1
1
1
1
1
1
1
1
1
1
1
1
1
1
1
1
1
1
1
1
1
1
1
1
1
1
1
1
1
1
1
1
1
1
1
1
1
1
1
1
1
1
1
1
1
1
1
1
1
1
1
1
1
1
1
1
1
1
1
1
1
1
1
1
1
1
1
1
1
1
1
1
1
1
1
1
1
1
1
1
1
1
1
1
1
1
1
1
1
1
1
1
1
1
1
1
1
1
1
1
1
1
1
1
1
1
1
1
1
1
1
1
1
1
1
1
1
1
1
1
1
1
1
1
1
1
1
1
1
1
1
1
1
1
1
1
1
1
1
3.19803
9.53497
10.332
10.3892
10.4485
10.4996
10.5476
10.593
10.6376
10.6842
10.7329
10.7824
10.8322
10.8801
10.9239
10.9646
11.001
11.0356
11.0709
11.108
11.1465
11.1865
11.2271
11.2662
11.3024
11.3361
11.3688
11.4013
11.4337
11.465
11.4939
11.5197
11.5427
11.5634
11.5831
11.6026
11.6225
11.6421
11.6594
11.6728
11.683
11.692
11.7021
11.714
11.7267
11.7383
11.7457
11.7509
1
1
1
1
1
1
1
1
1
1
1
1
1
1
1
1
1
1
1
1
1
1
1
1
1
1
1
1
1
1
1
1
1
1
1
1
1
1
1
1
1
1
1
1
1
1
1
1
1
1
1
1
1
1
1
1
1
1
1
1
1
1
1
1
1
1
1
1
1
1
1
1
1
1
1
1
1
1
1
1
1
1
1
1
1
1
1
1
1
1
1
1
1
1
1
1
1
1
1
1
1
1
1
1
1
1
1
1
1
1
1
1
1
1
1
1
1
1
1
1
1
1
1
1
1
1
1
1
1
1
1
1
1
1
1
1
1
1
1
1
1
1
1
1
2.65039
9.192
10.3461
10.3919
10.4448
10.4903
10.535
10.5791
10.6233
10.6691
10.7163
10.7635
10.812
10.8592
10.9033
10.9441
10.9805
11.0143
11.0483
11.0836
11.1207
11.1597
11.1995
11.2378
11.273
11.3054
11.3366
11.3676
11.3987
11.4289
11.4569
11.4817
11.5036
11.5234
11.5421
11.5612
11.5809
11.6004
11.6176
11.6309
11.6407
11.6492
11.6587
11.67
11.6822
11.6934
11.7006
11.7056
1
1
1
1
1
1
1
1
1
1
1
1
1
1
1
1
1
1
1
1
1
1
1
1
1
1
1
1
1
1
1
1
1
1
1
1
1
1
1
1
1
1
1
1
1
1
1
1
1
1
1
1
1
1
1
1
1
1
1
1
1
1
1
1
1
1
1
1
1
1
1
1
1
1
1
1
1
1
1
1
1
1
1
1
1
1
1
1
1
1
1
1
1
1
1
1
1
1
1
1
1
1
1
1
1
1
1
1
1
1
1
1
1
1
1
1
1
1
1
1
1
1
1
1
1
1
1
1
1
1
1
1
1
1
1
1
1
1
1
1
1
1
1
1
2.14057
8.74268
10.3652
10.3905
10.4397
10.4802
10.5222
10.5643
10.6075
10.6525
10.6989
10.7445
10.7919
10.8388
10.8833
10.924
10.9601
10.9928
11.025
11.0584
11.0939
11.1319
11.1709
11.2082
11.2421
11.273
11.3023
11.3316
11.3612
11.3902
11.4172
11.441
11.4616
11.48
11.4976
11.5159
11.5352
11.5544
11.5715
11.5847
11.5943
11.6023
11.6112
11.6215
11.6328
11.6432
11.65
11.6546
1
1
1
1
1
1
1
1
1
1
1
1
1
1
1
1
1
1
1
1
1
1
1
1
1
1
1
1
1
1
1
1
1
1
1
1
1
1
1
1
1
1
1
1
1
1
1
1
1
1
1
1
1
1
1
1
1
1
1
1
1
1
1
1
1
1
1
1
1
1
1
1
1
1
1
1
1
1
1
1
1
1
1
1
1
1
1
1
1
1
1
1
1
1
1
1
1
1
1
1
1
1
1
1
1
1
1
1
1
1
1
1
1
1
1
1
1
1
1
1
1
1
1
1
1
1
1
1
1
1
1
1
1
1
1
1
1
1
1
1
1
1
1
1
1.68168
8.20414
10.4138
10.3856
10.431
10.4663
10.5056
10.5462
10.5886
10.6332
10.6795
10.7243
10.7703
10.8169
10.8621
10.9028
10.9387
10.9707
11.0015
11.0328
11.0667
11.1034
11.1411
11.177
11.2093
11.2382
11.2656
11.2931
11.3213
11.3492
11.3752
11.3978
11.4168
11.4335
11.4496
11.4666
11.4849
11.5035
11.5201
11.533
11.5425
11.5504
11.5586
11.568
11.5782
11.5876
11.594
11.5983
1
1
1
1
1
1
1
1
1
1
1
1
1
1
1
1
1
1
1
1
1
1
1
1
1
1
1
1
1
1
1
1
1
1
1
1
1
1
1
1
1
1
1
1
1
1
1
1
1
1
1
1
1
1
1
1
1
1
1
1
1
1
1
1
1
1
1
1
1
1
1
1
1
1
1
1
1
1
1
1
1
1
1
1
1
1
1
1
1
1
1
1
1
1
1
1
1
1
1
1
1
1
1
1
1
1
1
1
1
1
1
1
1
1
1
1
1
1
1
1
1
1
1
1
1
1
1
1
1
1
1
1
1
1
1
1
1
1
1
1
1
1
1
1
1.28754
7.56469
10.4251
10.3755
10.406
10.4356
10.4726
10.514
10.5595
10.6074
10.6556
10.7005
10.7457
10.7924
10.8383
10.8796
10.9157
10.9474
10.977
11.0064
11.0384
11.0735
11.1098
11.1441
11.1747
11.2018
11.2272
11.2527
11.2792
11.3058
11.3305
11.3517
11.369
11.3838
11.3981
11.4134
11.4303
11.4477
11.4636
11.4763
11.4858
11.4934
11.5009
11.509
11.5175
11.5254
11.5308
11.5343
1
1
1
1
1
1
1
1
1
1
1
1
1
1
1
1
1
1
1
1
1
1
1
1
1
1
1
1
1
1
1
1
1
1
1
1
1
1
1
1
1
1
1
1
1
1
1
1
1
1
1
1
1
1
1
1
1
1
1
1
1
1
1
1
1
1
1
1
1
1
1
1
1
1
1
1
1
1
1
1
1
1
1
1
1
1
1
1
1
1
1
1
1
1
1
1
1
1
1
1
1
1
1
1
1
1
1
1
1
1
1
1
1
1
1
1
1
1
1
1
1
1
1
1
1
1
1
1
1
1
1
1
1
1
1
1
1
1
1
1
1
1
1
1
1.02884
6.92057
10.3281
10.3239
10.37
10.4105
10.4545
10.4956
10.5371
10.5809
10.6273
10.6726
10.7176
10.7641
10.8106
10.853
10.8896
10.9212
10.95
10.9779
11.0081
11.0417
11.0766
11.1097
11.1388
11.1641
11.1873
11.2105
11.2348
11.2596
11.2828
11.3026
11.3183
11.3312
11.3434
11.3565
11.3712
11.3867
11.4011
11.4131
11.4223
11.4296
11.4363
11.4431
11.45
11.4564
11.4607
11.4636
1
1
1
1
1
1
1
1
1
1
1
1
1
1
1
1
1
1
1
1
1
1
1
1
1
1
1
1
1
1
1
1
1
1
1
1
1
1
1
1
1
1
1
1
1
1
1
1
1
1
1
1
1
1
1
1
1
1
1
1
1
1
1
1
1
1
1
1
1
1
1
1
1
1
1
1
1
1
1
1
1
1
1
1
1
1
1
1
1
1
1
1
1
1
1
1
1
1
1
1
1
1
1
1
1
1
1
1
1
1
1
1
1
1
1
1
1
1
1
1
1
1
1
1
1
1
1
1
1
1
1
1
1
1
1
1
1
1
1
1
1
1
1
1
1.00035
6.10253
10.1503
10.2531
10.3166
10.3637
10.4098
10.4549
10.5013
10.5489
10.5959
10.6403
10.6853
10.7325
10.7797
10.823
10.8602
10.892
10.92
10.9466
10.9752
11.0074
11.0411
11.0731
11.1009
11.1246
11.1457
11.1665
11.1884
11.211
11.2324
11.2505
11.2646
11.2756
11.2855
11.2958
11.3074
11.3202
11.3328
11.3439
11.3528
11.3597
11.3653
11.3702
11.3746
11.3784
11.3807
11.3826
1
1
1
1
1
1
1
1
1
1
1
1
1
1
1
1
1
1
1
1
1
1
1
1
1
1
1
1
1
1
1
1
1
1
1
1
1
1
1
1
1
1
1
1
1
1
1
1
1
1
1
1
1
1
1
1
1
1
1
1
1
1
1
1
1
1
1
1
1
1
1
1
1
1
1
1
1
1
1
1
1
1
1
1
1
1
1
1
1
1
1
1
1
1
1
1
1
1
1
1
1
1
1
1
1
1
1
1
1
1
1
1
1
1
1
1
1
1
1
1
1
1
1
1
1
1
1
1
1
1
1
1
1
1
1
1
1
1
1
1
1
1
1
1
1
5.25137
10.0178
10.1901
10.2741
10.3421
10.3935
10.4359
10.4774
10.5201
10.5649
10.6097
10.6526
10.698
10.7443
10.7889
10.827
10.8588
10.8864
10.9121
10.9392
10.9698
11.0026
11.0338
11.0607
11.0831
11.1024
11.1209
11.1402
11.1602
11.1793
11.1955
11.2078
11.2168
11.2241
11.231
11.2389
11.2482
11.2582
11.2674
11.275
11.2807
11.2846
11.2873
11.2894
11.2908
11.2918
11.2932
1
1
1
1
1
1
1
1
1
1
1
1
1
1
1
1
1
1
1
1
1
1
1
1
1
1
1
1
1
1
1
1
1
1
1
1
1
1
1
1
1
1
1
1
1
1
1
1
1
1
1
1
1
1
1
1
1
1
1
1
1
1
1
1
1
1
1
1
1
1
1
1
1
1
1
1
1
1
1
1
1
1
1
1
1
1
1
1
1
1
1
1
1
1
1
1
1
1
1
1
1
1
1
1
1
1
1
1
1
1
1
1
1
1
1
1
1
1
1
1
1
1
1
1
1
1
1
1
1
1
1
1
1
1
1
1
1
1
1
1
1
1
1
1
1
4.33713
9.76174
10.1557
10.2405
10.3077
10.3607
10.4061
10.4505
10.4951
10.5392
10.5833
10.6241
10.6659
10.7095
10.7521
10.7898
10.8222
10.8494
10.874
10.8998
10.929
10.9608
10.9914
11.0177
11.039
11.0568
11.0732
11.0899
11.1071
11.1235
11.1375
11.1477
11.1545
11.1589
11.1619
11.1654
11.1706
11.1774
11.1843
11.19
11.1939
11.1957
11.1951
11.1929
11.1906
11.1891
11.1888
1
1
1
1
1
1
1
1
1
1
1
1
1
1
1
1
1
1
1
1
1
1
1
1
1
1
1
1
1
1
1
1
1
1
1
1
1
1
1
1
1
1
1
1
1
1
1
1
1
1
1
1
1
1
1
1
1
1
1
1
1
1
1
1
1
1
1
1
1
1
1
1
1
1
1
1
1
1
1
1
1
1
1
1
1
1
1
1
1
1
1
1
1
1
1
1
1
1
1
1
1
1
1
1
1
1
1
1
1
1
1
1
1
1
1
1
1
1
1
1
1
1
1
1
1
1
1
1
1
1
1
1
1
1
1
1
1
1
1
1
1
1
1
1
1
3.4307
9.41108
10.153
10.2339
10.3039
10.3531
10.3904
10.4265
10.4662
10.5078
10.5522
10.5943
10.6345
10.6752
10.7158
10.7533
10.7829
10.8094
10.8331
10.8571
10.8846
10.9155
10.9457
10.9714
10.9919
11.0085
11.0231
11.0373
11.0515
11.0651
11.0764
11.0842
11.0886
11.0893
11.0879
11.0867
11.0874
11.0902
11.0932
11.0951
11.0952
11.0923
11.0872
11.0813
11.0765
11.0734
11.0727
1
1
1
1
1
1
1
1
1
1
1
1
1
1
1
1
1
1
1
1
1
1
1
1
1
1
1
1
1
1
1
1
1
1
1
1
1
1
1
1
1
1
1
1
1
1
1
1
1
1
1
1
1
1
1
1
1
1
1
1
1
1
1
1
1
1
1
1
1
1
1
1
1
1
1
1
1
1
1
1
1
1
1
1
1
1
1
1
1
1
1
1
1
1
1
1
1
1
1
1
1
1
1
1
1
1
1
1
1
1
1
1
1
1
1
1
1
1
1
1
1
1
1
1
1
1
1
1
1
1
1
1
1
1
1
1
1
1
1
1
1
1
1
1
1
2.58289
8.87234
10.1825
10.2295
10.2826
10.3203
10.362
10.4054
10.4461
10.485
10.5237
10.5621
10.6005
10.639
10.6777
10.7138
10.7456
10.7686
10.7891
10.8115
10.8373
10.8668
10.8964
10.9218
10.9416
10.9571
10.9701
10.9819
10.9934
11.004
11.0122
11.0173
11.0185
11.0147
11.0087
11.0027
10.9985
10.9961
10.9942
10.9914
10.9863
10.9781
10.9675
10.9554
10.9442
10.936
10.9316
1
1
1
1
1
1
1
1
1
1
1
1
1
1
1
1
1
1
1
1
1
1
1
1
1
1
1
1
1
1
1
1
1
1
1
1
1
1
1
1
1
1
1
1
1
1
1
1
1
1
1
1
1
1
1
1
1
1
1
1
1
1
1
1
1
1
1
1
1
1
1
1
1
1
1
1
1
1
1
1
1
1
1
1
1
1
1
1
1
1
1
1
1
1
1
1
1
1
1
1
1
1
1
1
1
1
1
1
1
1
1
1
1
1
1
1
1
1
1
1
1
1
1
1
1
1
1
1
1
1
1
1
1
1
1
1
1
1
1
1
1
1
1
1
1
1.76842
8.21919
10.2917
10.2187
10.2701
10.3092
10.3453
10.3788
10.416
10.4559
10.496
10.534
10.5694
10.6039
10.6393
10.6726
10.702
10.7266
10.746
10.7641
10.7867
10.8149
10.8436
10.8686
10.8879
10.9025
10.914
10.9235
10.9322
10.9398
10.9449
10.9467
10.9435
10.9351
10.9241
10.913
10.9034
10.895
10.8866
10.8761
10.8621
10.8441
10.8239
10.8039
10.7873
10.7762
10.7719
1
1
1
1
1
1
1
1
1
1
1
1
1
1
1
1
1
1
1
1
1
1
1
1
1
1
1
1
1
1
1
1
1
1
1
1
1
1
1
1
1
1
1
1
1
1
1
1
1
1
1
1
1
1
1
1
1
1
1
1
1
1
1
1
1
1
1
1
1
1
1
1
1
1
1
1
1
1
1
1
1
1
1
1
1
1
1
1
1
1
1
1
1
1
1
1
1
1
1
1
1
1
1
1
1
1
1
1
1
1
1
1
1
1
1
1
1
1
1
1
1
1
1
1
1
1
1
1
1
1
1
1
1
1
1
1
1
1
1
1
1
1
1
1
1
1.13032
7.3529
10.3536
10.2456
10.2467
10.2665
10.3033
10.3453
10.3882
10.4281
10.4659
10.5013
10.5356
10.5698
10.6031
10.6343
10.6609
10.6827
10.6999
10.7158
10.7358
10.7601
10.7874
10.8119
10.8307
10.8444
10.8545
10.8615
10.8676
10.8723
10.8739
10.8717
10.8638
10.8505
10.8342
10.8175
10.8017
10.7862
10.7692
10.7488
10.7241
10.6958
10.6657
10.6348
10.6042
10.5788
10.5623
1
1
1
1
1
1
1
1
1
1
1
1
1
1
1
1
1
1
1
1
1
1
1
1
1
1
1
1
1
1
1
1
1
1
1
1
1
1
1
1
1
1
1
1
1
1
1
1
1
1
1
1
1
1
1
1
1
1
1
1
1
1
1
1
1
1
1
1
1
1
1
1
1
1
1
1
1
1
1
1
1
1
1
1
1
1
1
1
1
1
1
1
1
1
1
1
1
1
1
1
1
1
1
1
1
1
1
1
1
1
1
1
1
1
1
1
1
1
1
1
1
1
1
1
1
1
1
1
1
1
1
1
1
1
1
1
1
1
1
1
1
1
1
1
1
1.00236
6.33575
10.1148
10.1
10.1868
10.2354
10.2777
10.3123
10.3542
10.3979
10.436
10.4695
10.5008
10.5328
10.565
10.5951
10.6209
10.6412
10.6563
10.6685
10.6828
10.7043
10.7291
10.7521
10.7702
10.7829
10.7915
10.796
10.7992
10.8007
10.7988
10.7924
10.7797
10.7611
10.739
10.716
10.6929
10.6687
10.6415
10.6091
10.5702
10.5244
10.4725
10.4184
10.3687
10.3301
10.3157
1
1
1
1
1
1
1
1
1
1
1
1
1
1
1
1
1
1
1
1
1
1
1
1
1
1
1
1
1
1
1
1
1
1
1
1
1
1
1
1
1
1
1
1
1
1
1
1
1
1
1
1
1
1
1
1
1
1
1
1
1
1
1
1
1
1
1
1
1
1
1
1
1
1
1
1
1
1
1
1
1
1
1
1
1
1
1
1
1
1
1
1
1
1
1
1
1
1
1
1
1
1
1
1
1
1
1
1
1
1
1
1
1
1
1
1
1
1
1
1
1
1
1
1
1
1
1
1
1
1
1
1
1
1
1
1
1
1
1
1
1
1
1
1
1
0.999995
5.13183
9.84112
10.0609
10.1579
10.2045
10.2472
10.2862
10.323
10.3604
10.3995
10.4337
10.4635
10.4939
10.5252
10.5545
10.5792
10.5985
10.6126
10.6227
10.6327
10.6479
10.669
10.6905
10.7072
10.7185
10.7252
10.727
10.7268
10.7248
10.7193
10.7086
10.6911
10.6673
10.6387
10.6084
10.5768
10.5425
10.503
10.4555
10.3981
10.3311
10.2573
10.1797
10.1019
10.0181
9.94712
1
1
1
1
1
1
1
1
1
1
1
1
1
1
1
1
1
1
1
1
1
1
1
1
1
1
1
1
1
1
1
1
1
1
1
1
1
1
1
1
1
1
1
1
1
1
1
1
1
1
1
1
1
1
1
1
1
1
1
1
1
1
1
1
1
1
1
1
1
1
1
1
1
1
1
1
1
1
1
1
1
1
1
1
1
1
1
1
1
1
1
1
1
1
1
1
1
1
1
1
1
1
1
1
1
1
1
1
1
1
1
1
1
1
1
1
1
1
1
1
1
1
1
1
1
1
1
1
1
1
1
1
1
1
1
1
1
1
1
1
1
1
1
1
1
0.999999
3.99094
9.49991
10.0265
10.1089
10.1735
10.2198
10.2541
10.2838
10.3211
10.3582
10.3919
10.4229
10.4527
10.4831
10.512
10.5363
10.5547
10.5678
10.5759
10.5831
10.5938
10.6098
10.6278
10.6429
10.6524
10.6565
10.6554
10.6508
10.6448
10.6353
10.6203
10.5983
10.569
10.5337
10.495
10.4534
10.4072
10.3536
10.2888
10.2106
10.1171
10.0054
9.86904
9.70869
9.55204
9.44378
1
1
1
1
1
1
1
1
1
1
1
1
1
1
1
1
1
1
1
1
1
1
1
1
1
1
1
1
1
1
1
1
1
1
1
1
1
1
1
1
1
1
1
1
1
1
1
1
1
1
1
1
1
1
1
1
1
1
1
1
1
1
1
1
1
1
1
1
1
1
1
1
1
1
1
1
1
1
1
1
1
1
1
1
1
1
1
1
1
1
1
1
1
1
1
1
1
1
1
1
1
1
1
1
1
1
1
1
1
1
1
1
1
1
1
1
1
1
1
1
1
1
1
1
1
1
1
1
1
1
1
1
1
1
1
1
1
1
1
1
1
1
1
1
1
1
2.89754
8.92183
10.005
10.0972
10.1712
10.2104
10.2337
10.2556
10.2854
10.3186
10.3515
10.3812
10.4096
10.4386
10.4668
10.4907
10.5087
10.5209
10.5278
10.5326
10.5392
10.5507
10.5648
10.577
10.5845
10.5863
10.5821
10.572
10.5613
10.5472
10.5279
10.5015
10.4666
10.4243
10.3765
10.3236
10.264
10.1945
10.1103
10.0068
9.87764
9.71686
9.52072
9.28558
9.03374
8.88693
1
1
1
1
1
1
1
1
1
1
1
1
1
1
1
1
1
1
1
1
1
1
1
1
1
1
1
1
1
1
1
1
1
1
1
1
1
1
1
1
1
1
1
1
1
1
1
1
1
1
1
1
1
1
1
1
1
1
1
1
1
1
1
1
1
1
1
1
1
1
1
1
1
1
1
1
1
1
1
1
1
1
1
1
1
1
1
1
1
1
1
1
1
1
1
1
1
1
1
1
1
1
1
1
1
1
1
1
1
1
1
1
1
1
1
1
1
1
1
1
1
1
1
1
1
1
1
1
1
1
1
1
1
1
1
1
1
1
1
1
1
1
1
1
1
1
1.84169
8.14889
10.1775
10.1173
10.1451
10.1683
10.1958
10.2242
10.2535
10.2846
10.313
10.3391
10.3648
10.3912
10.4181
10.4417
10.4603
10.4719
10.478
10.4813
10.4844
10.4913
10.5012
10.5105
10.515
10.5146
10.5074
10.4917
10.4755
10.4559
10.4317
10.4007
10.3603
10.3108
10.2533
10.1883
10.1141
10.0273
9.92173
9.79077
9.62499
9.41415
9.13023
8.7133
7.9226
6.56409
1
1
1
1
1
1
1
1
1
1
1
1
1
1
1
1
1
1
1
1
1
1
1
1
1
1
1
1
1
1
1
1
1
1
1
1
1
1
1
1
1
1
1
1
1
1
1
1
1
1
1
1
1
1
1
1
1
1
1
1
1
1
1
1
1
1
1
1
1
1
1
1
1
1
1
1
1
1
1
1
1
1
1
1
1
1
1
1
1
1
1
1
1
1
1
1
1
1
1
1
1
1
1
1
1
1
1
1
1
1
1
1
1
1
1
1
1
1
1
1
1
1
1
1
1
1
1
1
1
1
1
1
1
1
1
1
1
1
1
1
1
1
1
1
1
1
1.09227
7.1246
10.2379
10.1221
10.1029
10.1242
10.1593
10.1887
10.2172
10.2478
10.2768
10.3014
10.3235
10.346
10.3697
10.3921
10.4105
10.4216
10.4266
10.428
10.4287
10.4312
10.4366
10.4425
10.4442
10.4413
10.4306
10.4107
10.3886
10.3629
10.333
10.2966
10.2506
10.194
10.1267
10.0493
9.95986
9.85517
9.72769
9.56873
9.36403
9.09424
8.71908
8.16315
7.38521
6.16986
1
1
1
1
1
1
1
1
1
1
1
1
1
1
1
1
1
1
1
1
1
1
1
1
1
1
1
1
1
1
1
1
1
1
1
1
1
1
1
1
1
1
1
1
1
1
1
1
1
1
1
1
1
1
1
1
1
1
1
1
1
1
1
1
1
1
1
1
1
1
1
1
1
1
1
1
1
1
1
1
1
1
1
1
1
1
1
1
1
1
1
1
1
1
1
1
1
1
1
1
1
1
1
1
1
1
1
1
1
1
1
1
1
1
1
1
1
1
1
1
1
1
1
1
1
1
1
1
1
1
1
1
1
1
1
1
1
1
1
1
1
1
1
1
1
1
1.00072
5.85301
9.90169
9.95138
10.0337
10.0804
10.1182
10.1502
10.1795
10.2099
10.2386
10.2633
10.2843
10.3031
10.3224
10.3422
10.3593
10.3702
10.3737
10.3733
10.3712
10.3701
10.3715
10.3734
10.3723
10.3663
10.3518
10.3288
10.3011
10.2691
10.2327
10.1902
10.1382
10.0744
9.99777
9.90813
9.80369
9.68123
9.53253
9.3469
9.10839
8.79213
8.36508
7.76393
6.99725
5.85106
1
1
1
1
1
1
1
1
1
1
1
1
1
1
1
1
1
1
1
1
1
1
1
1
1
1
1
1
1
1
1
1
1
1
1
1
1
1
1
1
1
1
1
1
1
1
1
1
1
1
1
1
1
1
1
1
1
1
1
1
1
1
1
1
1
1
1
1
1
1
1
1
1
1
1
1
1
1
1
1
1
1
1
1
1
1
1
1
1
1
1
1
1
1
1
1
1
1
1
1
1
1
1
1
1
1
1
1
1
1
1
1
1
1
1
1
1
1
1
1
1
1
1
1
1
1
1
1
1
1
1
1
1
1
1
1
1
1
1
1
1
1
1
1
1
1
0.999991
4.44252
9.51601
9.92303
10.0203
10.0589
10.0851
10.1127
10.1402
10.1692
10.1972
10.2217
10.2423
10.2597
10.276
10.2928
10.3083
10.3187
10.3209
10.3184
10.3133
10.3086
10.3057
10.3037
10.299
10.2894
10.2716
10.2457
10.213
10.1752
10.1322
10.0829
10.0244
9.95353
9.86798
9.76698
9.64853
9.50946
9.34192
9.13381
8.87015
8.52645
8.07555
7.47566
6.71993
5.82083
1
1
1
1
1
1
1
1
1
1
1
1
1
1
1
1
1
1
1
1
1
1
1
1
1
1
1
1
1
1
1
1
1
1
1
1
1
1
1
1
1
1
1
1
1
1
1
1
1
1
1
1
1
1
1
1
1
1
1
1
1
1
1
1
1
1
1
1
1
1
1
1
1
1
1
1
1
1
1
1
1
1
1
1
1
1
1
1
1
1
1
1
1
1
1
1
1
1
1
1
1
1
1
1
1
1
1
1
1
1
1
1
1
1
1
1
1
1
1
1
1
1
1
1
1
1
1
1
1
1
1
1
1
1
1
1
1
1
1
1
1
1
1
1
1
1
0.999998
3.11257
8.96498
9.92765
9.99032
10.0398
10.0641
10.0782
10.0979
10.1242
10.152
10.177
10.1977
10.2146
10.2291
10.243
10.2566
10.2658
10.2674
10.2624
10.2542
10.2458
10.2388
10.2328
10.2247
10.2114
10.1904
10.1615
10.1246
10.0813
10.0322
9.97594
9.91032
9.83232
9.73863
9.62751
9.49672
9.34303
9.15975
8.93504
8.6551
8.29915
7.84532
7.27762
6.6028
5.93592
1
1
1
1
1
1
1
1
1
1
1
1
1
1
1
1
1
1
1
1
1
1
1
1
1
1
1
1
1
1
1
1
1
1
1
1
1
1
1
1
1
1
1
1
1
1
1
1
1
1
1
1
1
1
1
1
1
1
1
1
1
1
1
1
1
1
1
1
1
1
1
1
1
1
1
1
1
1
1
1
1
1
1
1
1
1
1
1
1
1
1
1
1
1
1
1
1
1
1
1
1
1
1
1
1
1
1
1
1
1
1
1
1
1
1
1
1
1
1
1
1
1
1
1
1
1
1
1
1
1
1
1
1
1
1
1
1
1
1
1
1
1
1
1
1
1
1
1.89355
8.18232
10.0371
9.98233
10.0029
10.0263
10.0463
10.0647
10.0866
10.1116
10.135
10.1543
10.1695
10.1821
10.1933
10.2041
10.212
10.2137
10.2065
10.1956
10.1833
10.1722
10.162
10.1502
10.1334
10.1092
10.0769
10.0361
9.98781
9.93275
9.87029
9.7976
9.71248
9.61134
9.49154
9.35052
9.18493
8.98944
8.754
8.46678
8.11216
7.67737
7.15925
6.59225
6.05727
1
1
1
1
1
1
1
1
1
1
1
1
1
1
1
1
1
1
1
1
1
1
1
1
1
1
1
1
1
1
1
1
1
1
1
1
1
1
1
1
1
1
1
1
1
1
1
1
1
1
1
1
1
1
1
1
1
1
1
1
1
1
1
1
1
1
1
1
1
1
1
1
1
1
1
1
1
1
1
1
1
1
1
1
1
1
1
1
1
1
1
1
1
1
1
1
1
1
1
1
1
1
1
1
1
1
1
1
1
1
1
1
1
1
1
1
1
1
1
1
1
1
1
1
1
1
1
1
1
1
1
1
1
1
1
1
1
1
1
1
1
1
1
1
1
1
1
1.09656
6.99393
10.0749
9.98226
9.96354
9.98488
10.0107
10.0284
10.0475
10.0697
10.0914
10.1093
10.1231
10.1339
10.1427
10.1505
10.1568
10.1581
10.1499
10.1364
10.1205
10.1053
10.0907
10.0751
10.0551
10.0278
9.99212
9.94778
9.89508
9.83435
9.76587
9.68687
9.59502
9.4872
9.36029
9.21135
9.03699
8.833
8.59205
8.30509
7.96166
7.55617
7.09408
6.61311
6.16074
1
1
1
1
1
1
1
1
1
1
1
1
1
1
1
1
1
1
1
1
1
1
1
1
1
1
1
1
1
1
1
1
1
1
1
1
1
1
1
1
1
1
1
1
1
1
1
1
1
1
1
1
1
1
1
1
1
1
1
1
1
1
1
1
1
1
1
1
1
1
1
1
1
1
1
1
1
1
1
1
1
1
1
1
1
1
1
1
1
1
1
1
1
1
1
1
1
1
1
1
1
1
1
1
1
1
1
1
1
1
1
1
1
1
1
1
1
1
1
1
1
1
1
1
1
1
1
1
1
1
1
1
1
1
1
1
1
1
1
1
1
1
1
1
1
1
1
1.00071
5.50038
9.66677
9.81121
9.89452
9.93677
9.96634
9.98611
10.0052
10.0259
10.0466
10.0638
10.0764
10.086
10.092
10.0969
10.101
10.1013
10.0929
10.0775
10.0584
10.0393
10.0206
10.0006
9.97728
9.947
9.9082
9.86035
9.80369
9.73806
9.66349
9.57878
9.48121
9.3675
9.23487
9.08022
8.90024
8.69148
8.44919
8.1675
7.84113
7.46794
7.05566
6.63636
6.23035
1
1
1
1
1
1
1
1
1
1
1
1
1
1
1
1
1
1
1
1
1
1
1
1
1
1
1
1
1
1
1
1
1
1
1
1
1
1
1
1
1
1
1
1
1
1
1
1
1
1
1
1
1
1
1
1
1
1
1
1
1
1
1
1
1
1
1
1
1
1
1
1
1
1
1
1
1
1
1
1
1
1
1
1
1
1
1
1
1
1
1
1
1
1
1
1
1
1
1
1
1
1
1
1
1
1
1
1
1
1
1
1
1
1
1
1
1
1
1
1
1
1
1
1
1
1
1
1
1
1
1
1
1
1
1
1
1
1
1
1
1
1
1
1
1
1
1
0.999991
3.93072
9.23722
9.79653
9.87438
9.91945
9.93729
9.94978
9.96474
9.98228
10.001
10.0172
10.0294
10.0379
10.041
10.0431
10.0446
10.0435
10.0349
10.0182
9.99636
9.97342
9.95077
9.92656
9.89973
9.86648
9.82483
9.77379
9.71352
9.64379
9.56407
9.47367
9.3709
9.25275
9.11575
8.95753
8.77493
8.5649
8.32467
8.05126
7.74306
7.40039
7.03256
6.65673
6.29476
1
1
1
1
1
1
1
1
1
1
1
1
1
1
1
1
1
1
1
1
1
1
1
1
1
1
1
1
1
1
1
1
1
1
1
1
1
1
1
1
1
1
1
1
1
1
1
1
1
1
1
1
1
1
1
1
1
1
1
1
1
1
1
1
1
1
1
1
1
1
1
1
1
1
1
1
1
1
1
1
1
1
1
1
1
1
1
1
1
1
1
1
1
1
1
1
1
1
1
1
1
1
1
1
1
1
1
1
1
1
1
1
1
1
1
1
1
1
1
1
1
1
1
1
1
1
1
1
1
1
1
1
1
1
1
1
1
1
1
1
1
1
1
1
1
1
1
0.999998
2.40644
8.51223
9.88784
9.87482
9.88574
9.89849
9.9142
9.92621
9.93973
9.95557
9.97062
9.98248
9.98992
9.99062
9.98975
9.98837
9.98541
9.97629
9.95894
9.93506
9.90838
9.88197
9.85414
9.82346
9.78684
9.74223
9.68834
9.62494
9.55172
9.46798
9.3729
9.26504
9.14304
9.0035
8.84334
8.6605
8.45226
8.21668
7.95308
7.6623
7.34722
7.02023
6.6784
6.36668
1
1
1
1
1
1
1
1
1
1
1
1
1
1
1
1
1
1
1
1
1
1
1
1
1
1
1
1
1
1
1
1
1
1
1
1
1
1
1
1
1
1
1
1
1
1
1
1
1
1
1
1
1
1
1
1
1
1
1
1
1
1
1
1
1
1
1
1
1
1
1
1
1
1
1
1
1
1
1
1
1
1
1
1
1
1
1
1
1
1
1
1
1
1
1
1
1
1
1
1
1
1
1
1
1
1
1
1
1
1
1
1
1
1
1
1
1
1
1
1
1
1
1
1
1
1
1
1
1
1
1
1
1
1
1
1
1
1
1
1
1
1
1
1
1
1
1
1
1.22741
7.46179
10.0149
9.87616
9.84032
9.85412
9.87416
9.88505
9.89552
9.90843
9.92221
9.93396
9.94114
9.9404
9.93691
9.93269
9.92734
9.91725
9.89939
9.87406
9.84406
9.81347
9.78223
9.74797
9.70801
9.66051
9.60405
9.53796
9.46178
9.37493
9.27639
9.16468
9.03882
8.89713
8.73709
8.55604
8.35181
8.12347
7.8706
7.59599
7.30686
7.01113
6.70486
6.4364
1
1
1
1
1
1
1
1
1
1
1
1
1
1
1
1
1
1
1
1
1
1
1
1
1
1
1
1
1
1
1
1
1
1
1
1
1
1
1
1
1
1
1
1
1
1
1
1
1
1
1
1
1
1
1
1
1
1
1
1
1
1
1
1
1
1
1
1
1
1
1
1
1
1
1
1
1
1
1
1
1
1
1
1
1
1
1
1
1
1
1
1
1
1
1
1
1
1
1
1
1
1
1
1
1
1
1
1
1
1
1
1
1
1
1
1
1
1
1
1
1
1
1
1
1
1
1
1
1
1
1
1
1
1
1
1
1
1
1
1
1
1
1
1
1
1
1
1
1.00526
5.96224
9.60774
9.69562
9.76704
9.80484
9.8292
9.84091
9.85026
9.86071
9.87332
9.88494
9.89208
9.89072
9.8849
9.87776
9.86949
9.85774
9.83935
9.81318
9.78085
9.74631
9.71136
9.67392
9.63086
9.58034
9.52115
9.45259
9.37406
9.28484
9.18383
9.06964
8.94135
8.79797
8.63817
8.46058
8.26213
8.04204
7.80165
7.54338
7.27456
7.00539
6.73577
6.49313
1
1
1
1
1
1
1
1
1
1
1
1
1
1
1
1
1
1
1
1
1
1
1
1
1
1
1
1
1
1
1
1
1
1
1
1
1
1
1
1
1
1
1
1
1
1
1
1
1
1
1
1
1
1
1
1
1
1
1
1
1
1
1
1
1
1
1
1
1
1
1
1
1
1
1
1
1
1
1
1
1
1