/*--------------------------------*- C++ -*----------------------------------*\
  =========                 |
  \\      /  F ield         | OpenFOAM: The Open Source CFD Toolbox
   \\    /   O peration     | Website:  https://openfoam.org
    \\  /    A nd           | Version:  7
     \\/     M anipulation  |
\*---------------------------------------------------------------------------*/
FoamFile
{
    version     2.0;
    format      ascii;
    class       volVectorField;
    location    "3.4";
    object      U;
}
// * * * * * * * * * * * * * * * * * * * * * * * * * * * * * * * * * * * * * //

dimensions      [0 1 -1 0 0 0 0];

internalField   nonuniform List<vector> 
16192
(
(3 -2.40342e-17 0)
(3 1.3333e-17 0)
(3 -1.82853e-16 0)
(3 -1.36208e-17 0)
(3 2.23576e-16 0)
(3 1.32706e-16 0)
(3 7.96214e-17 0)
(3 -4.28036e-17 0)
(3 -1.50724e-16 0)
(3 1.36191e-17 0)
(3 6.43186e-17 0)
(3 -4.27857e-17 0)
(3 3.79941e-16 0)
(3 5.78437e-16 0)
(3 5.16251e-16 0)
(3 7.82914e-16 0)
(3 6.03315e-16 0)
(3 -1.19203e-16 0)
(3 -5.07411e-16 0)
(3 -9.12887e-16 0)
(3 -7.33644e-16 0)
(3 -3.12108e-16 0)
(3 1.9939e-16 0)
(3 3.45422e-16 0)
(3 4.13751e-17 0)
(3 -2.73698e-16 0)
(3 -7.79882e-16 0)
(3 -2.36883e-16 0)
(3 -4.6214e-16 0)
(3 -6.43913e-16 0)
(3 -5.33852e-16 0)
(3 2.17878e-16 0)
(3 4.52942e-16 0)
(3 9.8476e-17 0)
(3 -2.80428e-16 0)
(3 -3.91891e-16 0)
(3 -1.80066e-16 0)
(3 1.47589e-17 0)
(3 5.68181e-16 0)
(3 1.80788e-15 0)
(3 1.94117e-15 0)
(3 1.87106e-15 0)
(3 1.11882e-15 0)
(3 -5.92715e-17 0)
(3 -6.6777e-16 0)
(3 -1.42961e-15 0)
(3 -1.76362e-15 0)
(3 -1.15759e-15 0)
(3 -7.3949e-17 0)
(3 9.82204e-16 0)
(3 1.39801e-15 0)
(3 1.92409e-15 0)
(3 2.02613e-15 0)
(3 2.16007e-15 0)
(3 1.70105e-15 0)
(3 9.90946e-16 0)
(3 -4.52918e-17 0)
(3 -4.76687e-16 0)
(3 -9.82496e-16 0)
(3 -1.03216e-15 0)
(3 -1.0655e-15 0)
(3 -1.22181e-15 0)
(3 -1.68591e-15 0)
(3 -1.01467e-15 0)
(3 -7.02639e-16 0)
(3 -5.70073e-16 0)
(3 -2.56251e-16 0)
(3 5.53355e-16 0)
(3 7.03769e-16 0)
(3 4.5394e-16 0)
(3 -2.31825e-16 0)
(3 2.82089e-16 0)
(3 4.6604e-16 0)
(3 5.36861e-16 0)
(3 -2.41257e-16 0)
(3 -5.93919e-16 0)
(3 -1.18615e-15 0)
(3 -1.2039e-15 0)
(3 -7.85349e-16 0)
(3 -2.95616e-16 0)
(3 -1.0052e-16 0)
(3 6.00692e-17 0)
(3 -7.94973e-18 0)
(3 1.24731e-16 0)
(3 4.07295e-16 0)
(3 1.03999e-15 0)
(3 1.14492e-15 0)
(3 5.56698e-16 0)
(3 3.53536e-17 0)
(3 3.38798e-16 0)
(3 7.83707e-16 0)
(3 4.60367e-16 0)
(3 5.79963e-16 0)
(3 -6.12694e-17 0)
(3 -4.7186e-16 0)
(3 -6.83177e-16 0)
(3 -8.09309e-16 0)
(3 -2.45338e-16 0)
(3 5.70311e-16 0)
(3 7.33989e-16 0)
(3 6.87679e-16 0)
(3 4.87307e-16 0)
(3 -1.46275e-16 0)
(3 -9.13402e-16 0)
(3 -7.28342e-16 0)
(3 -3.63944e-16 0)
(3 4.10649e-16 0)
(3 6.59978e-16 0)
(3 7.80788e-16 0)
(3 2.74735e-16 0)
(3 1.61179e-16 0)
(3 2.16598e-16 0)
(3 3.66417e-16 0)
(3 5.10831e-16 0)
(3 6.02414e-16 0)
(3 7.85092e-16 0)
(3 1.34322e-15 0)
(3 1.8827e-15 0)
(3 5.13081e-16 0)
(3 -1.04972e-15 0)
(3 -2.24029e-15 0)
(3 -1.96824e-15 0)
(3 -1.3128e-15 0)
(3 -1.33596e-15 0)
(3 -1.24336e-15 0)
(3 -1.09403e-15 0)
(3 -8.48039e-16 0)
(3 -8.3691e-16 0)
(3 -1.10349e-15 0)
(3 -5.85987e-16 0)
(3 -2.34834e-16 0)
(3 -1.15247e-16 0)
(3 9.85789e-16 0)
(3 1.73993e-15 0)
(3 1.09415e-15 0)
(3 2.33279e-16 0)
(3 -3.8418e-16 0)
(3 -4.35659e-16 0)
(3 -4.31476e-16 0)
(3 2.17077e-16 0)
(3 2.58014e-16 0)
(3 5.18896e-16 0)
(3 -5.26197e-16 0)
(2.84114 0.000936231 0)
(0.98485 0.00281242 0)
(0.763998 0.0068853 0)
(0.744004 0.00773944 0)
(0.725352 0.00631718 0)
(0.711099 0.00502573 0)
(0.699249 0.00484118 0)
(0.687705 0.00542883 0)
(0.674589 0.00641995 0)
(0.659117 0.00726224 0)
(0.642251 0.00717994 0)
(0.626079 0.00628883 0)
(0.611449 0.00567073 0)
(0.597469 0.00584051 0)
(0.582777 0.00653958 0)
(0.566817 0.00710238 0)
(0.550577 0.00696494 0)
(0.535313 0.00656664 0)
(0.520944 0.00658192 0)
(0.506719 0.00687787 0)
(0.492286 0.00708007 0)
(0.477588 0.00713616 0)
(0.462493 0.00717353 0)
(0.446939 0.00724889 0)
(0.43109 0.00735469 0)
(0.415193 0.0074607 0)
(0.399401 0.00754356 0)
(0.38368 0.00761273 0)
(0.367825 0.00768912 0)
(0.351611 0.00777742 0)
(0.334988 0.00787027 0)
(0.318166 0.0079611 0)
(0.301473 0.00804589 0)
(0.285111 0.00812107 0)
(0.269017 0.00818944 0)
(0.252932 0.00826138 0)
(0.236566 0.00834655 0)
(0.219716 0.00844554 0)
(0.202323 0.00855474 0)
(0.184481 0.0086741 0)
(0.166358 0.00880925 0)
(0.148102 0.00896753 0)
(0.129791 0.0091654 0)
(0.111384 0.00941224 0)
(0.0927064 0.00969473 0)
(0.0734871 0.0099952 0)
(0.0534179 0.0102749 0)
(0.0325181 0.0103759 0)
(0.0110138 0.0104391 0)
(3 6.50515e-17 0)
(3 3.56872e-17 0)
(3 -1.45051e-16 0)
(3 -3.13944e-16 0)
(3 -1.09327e-16 0)
(3 -2.60171e-16 0)
(3 -2.80423e-16 0)
(3 -7.20715e-16 0)
(3 -1.3815e-15 0)
(3 -1.53946e-15 0)
(3 -1.56709e-15 0)
(3 -8.56193e-16 0)
(3 -5.81549e-17 0)
(3 5.77703e-16 0)
(3 3.3779e-16 0)
(3 3.79351e-16 0)
(3 3.63721e-17 0)
(3 -8.06117e-16 0)
(3 -1.17304e-15 0)
(3 -1.1593e-15 0)
(3 -6.40889e-16 0)
(3 5.61441e-16 0)
(3 1.01976e-15 0)
(3 1.08035e-15 0)
(3 6.31411e-16 0)
(3 7.38891e-17 0)
(3 -8.80221e-17 0)
(3 8.95719e-16 0)
(3 6.71811e-16 0)
(3 5.27922e-16 0)
(3 4.90702e-16 0)
(3 1.38667e-15 0)
(3 1.86718e-15 0)
(3 1.63937e-15 0)
(3 7.18808e-16 0)
(3 7.56884e-16 0)
(3 9.50507e-16 0)
(3 1.15541e-15 0)
(3 1.09643e-15 0)
(3 1.46333e-15 0)
(3 1.54226e-15 0)
(3 1.91431e-15 0)
(3 4.78382e-16 0)
(3 -5.04675e-16 0)
(3 -1.05732e-15 0)
(3 -1.79468e-15 0)
(3 -1.88129e-15 0)
(3 -1.07661e-15 0)
(3 8.60882e-16 0)
(3 2.22454e-15 0)
(3 2.80139e-15 0)
(3 2.84829e-15 0)
(3 1.96212e-15 0)
(3 1.41384e-15 0)
(3 4.06693e-16 0)
(3 -4.23928e-16 0)
(3 -1.28136e-15 0)
(3 -1.55229e-15 0)
(3 -1.39816e-15 0)
(3 -1.15668e-15 0)
(3 -1.04541e-15 0)
(3 -1.54071e-15 0)
(3 -1.62766e-15 0)
(3 -1.25119e-15 0)
(3 -9.24036e-17 0)
(3 1.34835e-15 0)
(3 1.89464e-15 0)
(3 3.25838e-15 0)
(3 2.62512e-15 0)
(3 1.29441e-15 0)
(3 -2.90996e-16 0)
(3 9.76923e-16 0)
(3 1.1802e-15 0)
(3 1.45328e-15 0)
(3 5.40448e-16 0)
(3 -8.51382e-16 0)
(3 -1.10392e-15 0)
(3 -1.1819e-15 0)
(3 -1.10118e-15 0)
(3 -8.55139e-16 0)
(3 -8.57153e-16 0)
(3 1.87291e-16 0)
(3 3.16804e-16 0)
(3 2.36523e-16 0)
(3 3.80864e-16 0)
(3 1.18292e-15 0)
(3 2.34217e-15 0)
(3 1.65262e-15 0)
(3 1.17121e-15 0)
(3 1.91382e-15 0)
(3 2.23115e-15 0)
(3 1.65228e-15 0)
(3 5.5144e-16 0)
(3 2.41126e-17 0)
(3 -1.00077e-15 0)
(3 -2.33261e-15 0)
(3 -2.34829e-15 0)
(3 -1.31881e-15 0)
(3 -2.25815e-17 0)
(3 1.09011e-15 0)
(3 1.01615e-15 0)
(3 -8.91919e-17 0)
(3 -3.27984e-16 0)
(3 -3.77375e-16 0)
(3 1.36105e-16 0)
(3 9.92654e-16 0)
(3 1.80572e-15 0)
(3 1.70405e-15 0)
(3 1.80239e-15 0)
(3 6.45178e-16 0)
(3 -2.08296e-16 0)
(3 -3.38182e-16 0)
(3 7.62556e-17 0)
(3 2.42136e-16 0)
(3 2.81657e-16 0)
(3 1.38835e-15 0)
(3 2.42719e-15 0)
(3 2.53166e-15 0)
(3 -2.03582e-16 0)
(3 -1.10053e-15 0)
(3 -2.35284e-15 0)
(3 -2.92543e-15 0)
(3 -1.98882e-15 0)
(3 -1.40851e-15 0)
(3 -1.37895e-15 0)
(3 -8.63195e-16 0)
(3 -5.64642e-16 0)
(3 -1.0977e-15 0)
(3 -2.17784e-15 0)
(3 -9.48986e-16 0)
(3 3.86398e-16 0)
(3 9.25182e-16 0)
(3 2.0955e-15 0)
(3 2.10223e-15 0)
(3 1.58307e-15 0)
(3 5.59978e-16 0)
(3 9.99428e-17 0)
(3 3.90146e-16 0)
(3 3.57064e-16 0)
(3 5.74713e-16 0)
(3 9.19237e-16 0)
(3 1.06422e-15 0)
(3 3.62977e-16 0)
(2.84514 0.00625853 0)
(0.984719 0.015017 0)
(0.759275 0.0212865 0)
(0.740046 0.0214051 0)
(0.722601 0.0183802 0)
(0.708353 0.0149873 0)
(0.695923 0.0140704 0)
(0.684018 0.0156099 0)
(0.670935 0.0184718 0)
(0.655837 0.0209129 0)
(0.639504 0.0209544 0)
(0.623637 0.0188407 0)
(0.608768 0.0171062 0)
(0.594375 0.0173729 0)
(0.579517 0.0192268 0)
(0.563596 0.0207769 0)
(0.547526 0.0204245 0)
(0.532369 0.0193881 0)
(0.517956 0.0194663 0)
(0.503674 0.0203176 0)
(0.489187 0.0208606 0)
(0.474459 0.0209972 0)
(0.459332 0.0211139 0)
(0.443733 0.0213572 0)
(0.42783 0.0216945 0)
(0.41187 0.0220364 0)
(0.396008 0.0223057 0)
(0.380223 0.0225161 0)
(0.364327 0.0227248 0)
(0.348099 0.0229569 0)
(0.33148 0.0232133 0)
(0.314656 0.023491 0)
(0.297948 0.0237763 0)
(0.281569 0.0240431 0)
(0.265481 0.02428 0)
(0.249445 0.0245068 0)
(0.233171 0.024759 0)
(0.216446 0.0250585 0)
(0.19921 0.0254101 0)
(0.181573 0.0258163 0)
(0.163729 0.0262846 0)
(0.145844 0.0268207 0)
(0.127985 0.0274588 0)
(0.110077 0.0282234 0)
(0.0918937 0.0290912 0)
(0.0731092 0.0300308 0)
(0.0533623 0.0309424 0)
(0.0326195 0.0313605 0)
(0.0111275 0.0317152 0)
(3 2.98802e-16 0)
(3 1.12739e-16 0)
(3 -7.80702e-17 0)
(3 -5.96559e-16 0)
(3 -7.00691e-16 0)
(3 -2.58377e-16 0)
(3 -6.28748e-16 0)
(3 -1.77034e-15 0)
(3 -2.30614e-15 0)
(3 -2.88992e-15 0)
(3 -2.48913e-15 0)
(3 -1.7047e-15 0)
(3 -9.76261e-16 0)
(3 -1.86204e-16 0)
(3 2.24673e-16 0)
(3 -2.81232e-16 0)
(3 -8.2876e-16 0)
(3 -1.21741e-15 0)
(3 -1.47824e-15 0)
(3 -1.61604e-15 0)
(3 -9.26605e-16 0)
(3 -4.56764e-16 0)
(3 -7.64912e-17 0)
(3 -1.1797e-16 0)
(3 3.71744e-16 0)
(3 1.60909e-16 0)
(3 1.03571e-16 0)
(3 5.89533e-17 0)
(3 2.23836e-16 0)
(3 -1.16417e-16 0)
(3 -1.39089e-16 0)
(3 1.50814e-16 0)
(3 1.40483e-15 0)
(3 2.08939e-15 0)
(3 1.93334e-15 0)
(3 2.29812e-15 0)
(3 2.3984e-15 0)
(3 1.82173e-15 0)
(3 4.51837e-16 0)
(3 -7.13772e-16 0)
(3 -4.5165e-16 0)
(3 8.83805e-17 0)
(3 5.36261e-17 0)
(3 -7.72293e-16 0)
(3 -1.24178e-15 0)
(3 -1.19635e-15 0)
(3 -7.3934e-16 0)
(3 2.44481e-16 0)
(3 1.33492e-15 0)
(3 1.91525e-15 0)
(3 2.16517e-15 0)
(3 1.88576e-15 0)
(3 8.80068e-16 0)
(3 -2.49786e-16 0)
(3 -1.26342e-15 0)
(3 -1.5552e-15 0)
(3 -2.03976e-15 0)
(3 -2.39801e-15 0)
(3 -2.11486e-15 0)
(3 -1.58155e-15 0)
(3 -1.70768e-15 0)
(3 -1.83929e-15 0)
(3 -2.08463e-15 0)
(3 -1.99669e-15 0)
(3 -1.52376e-15 0)
(3 3.43663e-16 0)
(3 7.82755e-16 0)
(3 4.13126e-16 0)
(3 2.15308e-16 0)
(3 -1.07778e-15 0)
(3 -5.75292e-16 0)
(3 -1.11209e-16 0)
(3 -1.71039e-16 0)
(3 6.87757e-17 0)
(3 -2.20496e-16 0)
(3 -7.92225e-16 0)
(3 -8.62489e-16 0)
(3 -1.07644e-15 0)
(3 -1.28174e-15 0)
(3 -1.73589e-15 0)
(3 -6.50059e-16 0)
(3 -3.25921e-17 0)
(3 3.3166e-16 0)
(3 4.21423e-16 0)
(3 3.25416e-16 0)
(3 -8.61138e-17 0)
(3 1.68758e-16 0)
(3 9.19846e-16 0)
(3 9.80835e-16 0)
(3 4.93371e-16 0)
(3 7.98798e-16 0)
(3 1.40179e-15 0)
(3 1.25914e-15 0)
(3 1.53916e-15 0)
(3 7.46874e-16 0)
(3 -8.60283e-17 0)
(3 -4.16298e-17 0)
(3 1.24822e-16 0)
(3 2.71355e-16 0)
(3 1.16941e-15 0)
(3 1.4554e-15 0)
(3 1.75827e-15 0)
(3 1.94465e-15 0)
(3 2.08409e-15 0)
(3 2.07014e-15 0)
(3 2.23029e-15 0)
(3 1.95535e-15 0)
(3 1.89949e-15 0)
(3 1.57404e-15 0)
(3 9.54176e-16 0)
(3 1.3861e-16 0)
(3 -2.86905e-16 0)
(3 -2.18238e-16 0)
(3 -2.36036e-16 0)
(3 -6.27962e-16 0)
(3 1.40063e-16 0)
(3 1.93874e-15 0)
(3 1.43984e-15 0)
(3 5.72101e-16 0)
(3 -9.56984e-16 0)
(3 -1.49327e-15 0)
(3 -1.62323e-15 0)
(3 -1.59462e-15 0)
(3 -1.71046e-15 0)
(3 -2.06004e-15 0)
(3 -1.98376e-15 0)
(3 -2.07423e-15 0)
(3 -1.34927e-15 0)
(3 -4.74833e-16 0)
(3 -5.45748e-16 0)
(3 4.15248e-16 0)
(3 1.89676e-15 0)
(3 2.8783e-15 0)
(3 2.73401e-15 0)
(3 2.41515e-15 0)
(3 1.69181e-15 0)
(3 1.18812e-15 0)
(3 1.54424e-15 0)
(3 2.18219e-15 0)
(3 1.85185e-15 0)
(3 1.60081e-15 0)
(3 8.26424e-16 0)
(3 3.16045e-15 0)
(2.85846 0.011723 0)
(0.991327 0.0290862 0)
(0.759862 0.0354089 0)
(0.741759 0.0343578 0)
(0.72487 0.0306687 0)
(0.710015 0.0262933 0)
(0.696244 0.0248903 0)
(0.683259 0.0269924 0)
(0.669846 0.0311219 0)
(0.654984 0.0345647 0)
(0.639174 0.0345942 0)
(0.623708 0.0316907 0)
(0.608655 0.0292683 0)
(0.593784 0.0296947 0)
(0.578671 0.0324789 0)
(0.562682 0.0347487 0)
(0.546703 0.0341414 0)
(0.5316 0.0325988 0)
(0.5171 0.0328226 0)
(0.502744 0.0342181 0)
(0.488172 0.0350669 0)
(0.473373 0.0352637 0)
(0.458167 0.0354591 0)
(0.442466 0.035865 0)
(0.426439 0.0364112 0)
(0.410332 0.0369638 0)
(0.3943 0.0374111 0)
(0.378336 0.0377739 0)
(0.362272 0.0381323 0)
(0.345903 0.0385112 0)
(0.329162 0.0389027 0)
(0.312208 0.0393083 0)
(0.295333 0.0397231 0)
(0.27875 0.0401223 0)
(0.262445 0.0404927 0)
(0.246203 0.0408529 0)
(0.22974 0.0412369 0)
(0.212838 0.0416654 0)
(0.195443 0.0421494 0)
(0.177695 0.0427075 0)
(0.15984 0.0433688 0)
(0.14209 0.0441565 0)
(0.124532 0.0451362 0)
(0.107077 0.0463594 0)
(0.0894553 0.0478043 0)
(0.0712876 0.0494314 0)
(0.0521593 0.0510835 0)
(0.0319546 0.0519842 0)
(0.0109644 0.0528473 0)
(3 -8.52407e-19 0)
(3 -3.21005e-17 0)
(3 1.70579e-16 0)
(3 2.42714e-16 0)
(3 3.25939e-16 0)
(3 3.89396e-16 0)
(3 -2.18905e-16 0)
(3 -5.88185e-16 0)
(3 -4.65442e-16 0)
(3 -2.71476e-16 0)
(3 -1.90262e-16 0)
(3 -5.65143e-16 0)
(3 -1.33365e-15 0)
(3 -1.11403e-15 0)
(3 -3.24988e-16 0)
(3 -2.72223e-17 0)
(3 1.76801e-16 0)
(3 -1.25841e-16 0)
(3 -7.13428e-16 0)
(3 -1.34696e-15 0)
(3 -1.29224e-15 0)
(3 -1.46767e-15 0)
(3 -1.59079e-15 0)
(3 -1.00572e-15 0)
(3 -1.02572e-15 0)
(3 -6.27711e-16 0)
(3 -6.33846e-16 0)
(3 -8.59217e-17 0)
(3 3.22093e-16 0)
(3 4.05837e-16 0)
(3 3.80414e-16 0)
(3 1.43363e-16 0)
(3 6.15647e-17 0)
(3 4.71406e-16 0)
(3 9.6433e-16 0)
(3 1.21758e-15 0)
(3 1.97508e-15 0)
(3 1.65768e-15 0)
(3 1.02376e-15 0)
(3 1.87782e-16 0)
(3 8.24598e-16 0)
(3 1.14199e-15 0)
(3 1.37277e-15 0)
(3 2.00599e-16 0)
(3 -1.12158e-15 0)
(3 -2.08435e-16 0)
(3 1.19393e-15 0)
(3 1.17667e-15 0)
(3 1.48299e-15 0)
(3 1.20968e-15 0)
(3 9.06314e-16 0)
(3 5.62393e-16 0)
(3 2.60795e-16 0)
(3 -8.24436e-16 0)
(3 -1.38052e-15 0)
(3 -1.60623e-15 0)
(3 -2.77527e-15 0)
(3 -3.8571e-15 0)
(3 -3.81501e-15 0)
(3 -3.52154e-15 0)
(3 -3.43908e-15 0)
(3 -3.0515e-15 0)
(3 -2.41046e-15 0)
(3 -2.2498e-15 0)
(3 -2.32465e-15 0)
(3 -2.02111e-15 0)
(3 -1.13404e-15 0)
(3 1.65669e-16 0)
(3 2.03344e-16 0)
(3 -3.76636e-16 0)
(3 -1.88772e-16 0)
(3 -5.08884e-16 0)
(3 -6.47436e-16 0)
(3 -8.9965e-16 0)
(3 -8.58322e-16 0)
(3 -8.41123e-16 0)
(3 -1.31915e-15 0)
(3 -8.89793e-16 0)
(3 -1.01187e-15 0)
(3 2.24272e-16 0)
(3 6.76398e-16 0)
(3 4.68385e-17 0)
(3 -2.87734e-16 0)
(3 -1.31287e-16 0)
(3 -5.36985e-16 0)
(3 -9.21236e-16 0)
(3 -1.07788e-15 0)
(3 -7.33294e-16 0)
(3 -4.50797e-16 0)
(3 -5.04813e-16 0)
(3 6.865e-16 0)
(3 1.24023e-15 0)
(3 9.09815e-16 0)
(3 4.37119e-16 0)
(3 1.56915e-16 0)
(3 -2.21744e-16 0)
(3 -3.285e-16 0)
(3 5.9042e-16 0)
(3 1.06819e-15 0)
(3 1.49031e-15 0)
(3 1.39004e-15 0)
(3 1.21164e-15 0)
(3 1.0501e-15 0)
(3 1.15742e-15 0)
(3 2.28272e-15 0)
(3 2.96832e-15 0)
(3 3.09201e-15 0)
(3 2.30353e-15 0)
(3 1.81734e-15 0)
(3 1.4068e-15 0)
(3 1.31238e-15 0)
(3 7.88865e-16 0)
(3 1.45516e-16 0)
(3 -4.25745e-16 0)
(3 -1.01713e-15 0)
(3 -6.09274e-16 0)
(3 1.38851e-15 0)
(3 1.43214e-15 0)
(3 8.89415e-16 0)
(3 3.62559e-16 0)
(3 -2.14236e-17 0)
(3 1.96154e-16 0)
(3 -2.04551e-16 0)
(3 -1.08242e-15 0)
(3 -9.30414e-16 0)
(3 -5.66835e-16 0)
(3 -1.7661e-16 0)
(3 1.70034e-16 0)
(3 7.87486e-16 0)
(3 1.0259e-15 0)
(3 6.83166e-16 0)
(3 9.4923e-16 0)
(3 1.22637e-15 0)
(3 1.67216e-15 0)
(3 1.21088e-15 0)
(3 8.89991e-16 0)
(3 1.20299e-15 0)
(3 1.774e-15 0)
(3 2.48522e-15 0)
(3 2.51165e-15 0)
(3 1.90366e-15 0)
(3 8.93771e-16 0)
(3 -5.19369e-16 0)
(2.87703 0.0152917 0)
(1.00149 0.0428289 0)
(0.761363 0.0479677 0)
(0.744489 0.0460313 0)
(0.72809 0.0427364 0)
(0.713154 0.0380737 0)
(0.698775 0.03629 0)
(0.685315 0.0386503 0)
(0.672019 0.0435335 0)
(0.657605 0.0475 0)
(0.642261 0.0475279 0)
(0.626968 0.0443117 0)
(0.611668 0.0415646 0)
(0.596431 0.0421828 0)
(0.581251 0.0456864 0)
(0.565343 0.0484582 0)
(0.549491 0.0476137 0)
(0.53437 0.0457152 0)
(0.519716 0.0461521 0)
(0.505269 0.0480724 0)
(0.490614 0.0492019 0)
(0.475753 0.0494605 0)
(0.460471 0.0497645 0)
(0.444671 0.0503656 0)
(0.428521 0.0511458 0)
(0.412266 0.0519384 0)
(0.396052 0.0526081 0)
(0.379879 0.0531768 0)
(0.363599 0.0537355 0)
(0.347027 0.054302 0)
(0.330093 0.0548579 0)
(0.312938 0.0554134 0)
(0.295827 0.0559819 0)
(0.278962 0.0565505 0)
(0.262342 0.0571073 0)
(0.245764 0.0576588 0)
(0.228938 0.0582205 0)
(0.211629 0.0587949 0)
(0.193787 0.0593874 0)
(0.175586 0.0600237 0)
(0.157332 0.060751 0)
(0.139307 0.0616146 0)
(0.121645 0.0627267 0)
(0.104278 0.0641937 0)
(0.0869292 0.0660379 0)
(0.0692018 0.0682389 0)
(0.0506484 0.0706145 0)
(0.0310378 0.0720613 0)
(0.010701 0.0735506 0)
(3 -2.46789e-16 0)
(3 1.6592e-16 0)
(3 6.22338e-16 0)
(3 5.85352e-16 0)
(3 4.99371e-16 0)
(3 3.42775e-16 0)
(3 2.65301e-16 0)
(3 2.07979e-16 0)
(3 6.31477e-16 0)
(3 8.57904e-16 0)
(3 4.52322e-16 0)
(3 4.65824e-17 0)
(3 -3.02705e-16 0)
(3 -3.07806e-16 0)
(3 -7.31744e-17 0)
(3 4.24974e-16 0)
(3 1.23071e-15 0)
(3 4.23081e-16 0)
(3 -3.71615e-16 0)
(3 -9.32621e-16 0)
(3 -8.70306e-16 0)
(3 -1.04194e-15 0)
(3 -1.20179e-15 0)
(3 -7.7043e-16 0)
(3 -5.31628e-16 0)
(3 -5.55332e-16 0)
(3 -3.87092e-16 0)
(3 -3.78455e-16 0)
(3 -3.45427e-16 0)
(3 1.47381e-16 0)
(3 -1.95887e-16 0)
(3 -5.35129e-16 0)
(3 -1.11482e-16 0)
(3 1.36867e-17 0)
(3 4.36522e-16 0)
(3 6.21091e-16 0)
(3 5.72489e-16 0)
(3 9.9299e-16 0)
(3 1.40005e-15 0)
(3 1.34471e-15 0)
(3 5.03981e-16 0)
(3 6.43426e-16 0)
(3 7.03685e-16 0)
(3 -2.68376e-16 0)
(3 -1.22112e-15 0)
(3 1.84888e-16 0)
(3 4.24829e-16 0)
(3 4.15207e-16 0)
(3 3.61997e-16 0)
(3 -9.73027e-17 0)
(3 -5.63036e-16 0)
(3 -6.49103e-16 0)
(3 -6.25441e-16 0)
(3 -5.83289e-16 0)
(3 -9.9907e-16 0)
(3 -1.86588e-15 0)
(3 -2.21139e-15 0)
(3 -2.0308e-15 0)
(3 -1.29232e-15 0)
(3 -1.39308e-15 0)
(3 -2.05277e-15 0)
(3 -2.02847e-15 0)
(3 -2.11837e-15 0)
(3 -2.30295e-15 0)
(3 -2.92218e-15 0)
(3 -2.76215e-15 0)
(3 -4.8489e-16 0)
(3 8.82258e-16 0)
(3 8.8035e-16 0)
(3 9.38405e-16 0)
(3 5.88847e-16 0)
(3 4.94914e-16 0)
(3 1.44773e-17 0)
(3 -9.86285e-17 0)
(3 -1.46858e-17 0)
(3 -8.37234e-16 0)
(3 -1.31571e-15 0)
(3 -1.53678e-15 0)
(3 -1.12397e-15 0)
(3 8.42793e-17 0)
(3 -4.29497e-16 0)
(3 -6.99666e-16 0)
(3 -1.22275e-15 0)
(3 -1.19855e-15 0)
(3 -9.17171e-16 0)
(3 -1.96599e-15 0)
(3 -2.18026e-15 0)
(3 -1.85165e-15 0)
(3 -1.09476e-15 0)
(3 -2.82747e-16 0)
(3 1.13859e-15 0)
(3 2.27119e-15 0)
(3 2.36361e-15 0)
(3 8.27139e-16 0)
(3 2.63444e-16 0)
(3 -1.83801e-16 0)
(3 -8.69522e-17 0)
(3 3.15909e-16 0)
(3 8.77228e-16 0)
(3 5.29776e-16 0)
(3 4.53472e-16 0)
(3 4.2627e-16 0)
(3 6.84704e-16 0)
(3 1.08278e-15 0)
(3 1.97892e-15 0)
(3 2.2457e-15 0)
(3 1.56937e-15 0)
(3 1.33615e-15 0)
(3 7.02552e-16 0)
(3 5.89055e-16 0)
(3 1.26468e-15 0)
(3 8.70278e-16 0)
(3 -1.84861e-16 0)
(3 -4.31106e-16 0)
(3 6.95908e-17 0)
(3 7.04911e-16 0)
(3 8.87812e-16 0)
(3 1.30584e-15 0)
(3 4.40485e-16 0)
(3 -2.09623e-16 0)
(3 -3.71806e-16 0)
(3 -5.90847e-16 0)
(3 -2.09698e-16 0)
(3 -2.38226e-16 0)
(3 9.98366e-17 0)
(3 4.04257e-16 0)
(3 1.45393e-15 0)
(3 1.2277e-16 0)
(3 -5.76517e-16 0)
(3 -3.31921e-16 0)
(3 3.91796e-19 0)
(3 1.77428e-16 0)
(3 1.53881e-16 0)
(3 2.52648e-16 0)
(3 6.47887e-16 0)
(3 5.01524e-16 0)
(3 5.79077e-16 0)
(3 9.859e-16 0)
(3 1.72089e-15 0)
(3 2.1171e-15 0)
(3 1.11227e-16 0)
(3 -4.87522e-16 0)
(3 -3.57475e-15 0)
(2.89826 0.0188585 0)
(1.01344 0.0572215 0)
(0.760779 0.06005 0)
(0.743892 0.0575722 0)
(0.72789 0.0549652 0)
(0.71328 0.0504388 0)
(0.698935 0.0482487 0)
(0.685443 0.0504417 0)
(0.672474 0.0556792 0)
(0.658457 0.0600699 0)
(0.64328 0.0604604 0)
(0.627771 0.0574582 0)
(0.612 0.0545971 0)
(0.596272 0.0551933 0)
(0.581024 0.0590728 0)
(0.565337 0.0621417 0)
(0.549765 0.0611874 0)
(0.534752 0.0591116 0)
(0.520072 0.0597674 0)
(0.505664 0.0621308 0)
(0.491061 0.0634773 0)
(0.476275 0.063779 0)
(0.461057 0.0641935 0)
(0.445309 0.0649823 0)
(0.429203 0.0659739 0)
(0.412985 0.0669859 0)
(0.396793 0.0678694 0)
(0.380623 0.0686394 0)
(0.364347 0.0693915 0)
(0.347801 0.0701376 0)
(0.330924 0.0708538 0)
(0.313841 0.0715628 0)
(0.296787 0.0723012 0)
(0.279938 0.0730724 0)
(0.263276 0.0738649 0)
(0.246591 0.0746653 0)
(0.229579 0.075461 0)
(0.211993 0.0762321 0)
(0.193782 0.0769764 0)
(0.175148 0.0777201 0)
(0.156447 0.0785131 0)
(0.138016 0.0794037 0)
(0.120037 0.0805338 0)
(0.102481 0.0820644 0)
(0.0851037 0.0840948 0)
(0.0675361 0.0866618 0)
(0.0493493 0.0896365 0)
(0.0301931 0.0916047 0)
(0.0104492 0.0937401 0)
(3 -3.62512e-18 0)
(3 7.87309e-17 0)
(3 2.36545e-16 0)
(3 5.24756e-16 0)
(3 2.51218e-16 0)
(3 6.02433e-18 0)
(3 -1.42548e-16 0)
(3 -1.33018e-16 0)
(3 -8.00262e-17 0)
(3 -6.33489e-17 0)
(3 -8.02498e-16 0)
(3 -5.84038e-16 0)
(3 -1.9163e-16 0)
(3 3.78255e-17 0)
(3 4.1887e-16 0)
(3 3.92936e-16 0)
(3 2.70534e-16 0)
(3 6.84287e-17 0)
(3 1.65544e-16 0)
(3 6.73029e-16 0)
(3 4.1081e-16 0)
(3 3.47739e-16 0)
(3 6.57418e-16 0)
(3 7.06078e-16 0)
(3 9.00478e-16 0)
(3 1.75627e-16 0)
(3 -6.09045e-16 0)
(3 -8.35117e-16 0)
(3 -1.46788e-15 0)
(3 -1.84572e-15 0)
(3 -2.3202e-15 0)
(3 -2.36193e-15 0)
(3 -1.64113e-15 0)
(3 -1.19785e-15 0)
(3 -1.96628e-16 0)
(3 8.30168e-16 0)
(3 7.0972e-16 0)
(3 9.78685e-16 0)
(3 5.3056e-16 0)
(3 4.90515e-16 0)
(3 -5.8934e-16 0)
(3 -1.37673e-15 0)
(3 -1.21776e-15 0)
(3 -1.17492e-15 0)
(3 -1.1532e-15 0)
(3 -6.75867e-16 0)
(3 -9.96088e-16 0)
(3 -1.29627e-15 0)
(3 -1.31687e-15 0)
(3 -1.62563e-15 0)
(3 -1.94994e-15 0)
(3 -1.60034e-15 0)
(3 -7.19455e-16 0)
(3 -2.55313e-17 0)
(3 -8.62509e-16 0)
(3 -1.59611e-15 0)
(3 -1.86878e-15 0)
(3 -1.00217e-15 0)
(3 -9.24551e-16 0)
(3 -9.62139e-16 0)
(3 -1.00479e-15 0)
(3 -1.59071e-15 0)
(3 -1.70123e-15 0)
(3 -1.57016e-15 0)
(3 -1.63003e-15 0)
(3 -1.54551e-15 0)
(3 3.62693e-16 0)
(3 1.10715e-15 0)
(3 1.40008e-15 0)
(3 1.01449e-15 0)
(3 1.80984e-16 0)
(3 -1.05621e-16 0)
(3 -1.84609e-17 0)
(3 4.9162e-16 0)
(3 3.65633e-16 0)
(3 1.70462e-16 0)
(3 1.34877e-16 0)
(3 -4.33968e-16 0)
(3 -3.6735e-16 0)
(3 -7.9982e-16 0)
(3 -8.00885e-16 0)
(3 -4.20148e-16 0)
(3 -5.26939e-16 0)
(3 -1.00149e-15 0)
(3 -1.53565e-15 0)
(3 -1.68074e-15 0)
(3 -1.74007e-15 0)
(3 -1.50455e-15 0)
(3 -1.39809e-15 0)
(3 -1.06796e-15 0)
(3 -2.40213e-16 0)
(3 7.64911e-16 0)
(3 2.50056e-15 0)
(3 2.39912e-15 0)
(3 9.94181e-16 0)
(3 9.44299e-16 0)
(3 1.78206e-15 0)
(3 1.68975e-15 0)
(3 1.13587e-15 0)
(3 2.17707e-16 0)
(3 3.98002e-16 0)
(3 1.06573e-15 0)
(3 1.0144e-15 0)
(3 1.02586e-15 0)
(3 1.56599e-15 0)
(3 1.84941e-15 0)
(3 1.20435e-15 0)
(3 1.19773e-15 0)
(3 1.70487e-16 0)
(3 3.4252e-16 0)
(3 1.00377e-15 0)
(3 1.28932e-15 0)
(3 9.83692e-16 0)
(3 8.91134e-16 0)
(3 1.63618e-15 0)
(3 1.30224e-15 0)
(3 9.23349e-16 0)
(3 -2.93424e-16 0)
(3 -1.20498e-15 0)
(3 -1.3534e-15 0)
(3 -8.28291e-16 0)
(3 -4.02295e-16 0)
(3 2.08218e-17 0)
(3 6.31972e-16 0)
(3 9.95021e-17 0)
(3 4.97947e-16 0)
(3 2.2579e-16 0)
(3 -1.23852e-15 0)
(3 -2.12084e-15 0)
(3 -2.0581e-15 0)
(3 -1.42378e-15 0)
(3 -1.06135e-15 0)
(3 -6.14967e-16 0)
(3 -4.97922e-17 0)
(3 1.11752e-15 0)
(3 1.3883e-15 0)
(3 3.90611e-16 0)
(3 5.90823e-19 0)
(3 2.57002e-16 0)
(3 2.51218e-16 0)
(3 -2.02275e-16 0)
(3 -1.33001e-16 0)
(3 -1.21094e-15 0)
(2.92552 0.023039 0)
(1.03097 0.0723987 0)
(0.762632 0.0719038 0)
(0.746073 0.0688904 0)
(0.730945 0.0667899 0)
(0.716816 0.0627281 0)
(0.702457 0.0604598 0)
(0.688484 0.0624548 0)
(0.675095 0.0678038 0)
(0.660882 0.0724998 0)
(0.645605 0.0733362 0)
(0.629976 0.0707672 0)
(0.61404 0.0679993 0)
(0.598071 0.0685189 0)
(0.582782 0.0724875 0)
(0.567237 0.0756684 0)
(0.55176 0.0746913 0)
(0.53664 0.0725916 0)
(0.52175 0.0734824 0)
(0.507202 0.0762163 0)
(0.492504 0.0777323 0)
(0.477675 0.0780768 0)
(0.462431 0.0786225 0)
(0.446659 0.07961 0)
(0.430523 0.0808044 0)
(0.414262 0.0820216 0)
(0.398002 0.083109 0)
(0.381744 0.0840686 0)
(0.365385 0.0849959 0)
(0.348797 0.0859079 0)
(0.331945 0.0867869 0)
(0.314956 0.0876719 0)
(0.298037 0.0886188 0)
(0.281318 0.0896394 0)
(0.264744 0.0907162 0)
(0.248077 0.0918138 0)
(0.230993 0.0928919 0)
(0.213236 0.0939096 0)
(0.194758 0.0948565 0)
(0.175781 0.0957552 0)
(0.156692 0.0966488 0)
(0.137865 0.0975733 0)
(0.119516 0.0986801 0)
(0.101649 0.100167 0)
(0.0840617 0.10222 0)
(0.0664385 0.104942 0)
(0.0484165 0.10835 0)
(0.0295452 0.110754 0)
(0.0102543 0.113474 0)
(3 -6.50175e-18 0)
(3 -4.29687e-16 0)
(3 -4.77641e-16 0)
(3 3.15985e-16 0)
(3 3.12987e-16 0)
(3 7.94809e-18 0)
(3 -1.51085e-16 0)
(3 -1.77151e-16 0)
(3 -1.5899e-16 0)
(3 -1.39983e-16 0)
(3 -1.51563e-16 0)
(3 -3.57399e-16 0)
(3 -4.24913e-17 0)
(3 -3.21998e-16 0)
(3 -4.98548e-16 0)
(3 -8.39328e-16 0)
(3 -4.48592e-16 0)
(3 1.22974e-15 0)
(3 1.54275e-15 0)
(3 1.52237e-15 0)
(3 1.40652e-15 0)
(3 1.57451e-15 0)
(3 1.98398e-15 0)
(3 1.27537e-15 0)
(3 9.67812e-16 0)
(3 6.16715e-16 0)
(3 -3.79528e-17 0)
(3 -6.11518e-16 0)
(3 -8.33463e-16 0)
(3 -1.49578e-15 0)
(3 -1.89564e-15 0)
(3 -1.79739e-15 0)
(3 -1.33216e-15 0)
(3 -1.4962e-15 0)
(3 -1.25164e-15 0)
(3 -1.06577e-16 0)
(3 5.44455e-16 0)
(3 4.23918e-16 0)
(3 -1.15055e-16 0)
(3 -1.06002e-15 0)
(3 -6.34163e-16 0)
(3 -1.76919e-15 0)
(3 -2.20114e-15 0)
(3 -2.12714e-15 0)
(3 -2.13821e-15 0)
(3 -1.30046e-15 0)
(3 -1.63465e-15 0)
(3 -1.27144e-15 0)
(3 -1.70146e-15 0)
(3 -1.61421e-15 0)
(3 -1.43813e-15 0)
(3 -1.2462e-15 0)
(3 -3.76182e-16 0)
(3 2.79903e-16 0)
(3 1.38819e-16 0)
(3 -4.48523e-16 0)
(3 -9.58058e-17 0)
(3 -1.37019e-15 0)
(3 -2.27473e-15 0)
(3 -2.14776e-15 0)
(3 -1.1111e-15 0)
(3 -3.48591e-16 0)
(3 8.75177e-16 0)
(3 8.49484e-16 0)
(3 1.31314e-15 0)
(3 1.49941e-15 0)
(3 9.12301e-16 0)
(3 5.50807e-16 0)
(3 1.17764e-15 0)
(3 1.97553e-15 0)
(3 1.69857e-15 0)
(3 1.4154e-16 0)
(3 1.51306e-16 0)
(3 4.32122e-16 0)
(3 5.13667e-16 0)
(3 6.06897e-16 0)
(3 2.87417e-17 0)
(3 -2.43183e-16 0)
(3 -6.60332e-16 0)
(3 -9.51465e-16 0)
(3 -7.59662e-16 0)
(3 -1.01976e-15 0)
(3 -1.24462e-15 0)
(3 -2.01361e-15 0)
(3 -1.54705e-15 0)
(3 -9.92318e-16 0)
(3 -1.15801e-15 0)
(3 -2.08485e-15 0)
(3 -2.11539e-15 0)
(3 -1.48383e-15 0)
(3 -1.10625e-15 0)
(3 -5.77221e-16 0)
(3 4.53034e-16 0)
(3 1.35422e-15 0)
(3 1.03323e-15 0)
(3 9.89946e-16 0)
(3 6.25159e-16 0)
(3 8.15224e-16 0)
(3 -2.66257e-16 0)
(3 -8.62684e-16 0)
(3 -4.81304e-16 0)
(3 -1.31127e-16 0)
(3 -1.13329e-16 0)
(3 2.69647e-16 0)
(3 4.63743e-16 0)
(3 1.2213e-15 0)
(3 1.88696e-15 0)
(3 1.54749e-15 0)
(3 1.31282e-15 0)
(3 9.8337e-16 0)
(3 2.5e-16 0)
(3 2.20018e-16 0)
(3 6.33393e-16 0)
(3 8.65431e-16 0)
(3 7.62312e-16 0)
(3 5.54733e-16 0)
(3 3.19979e-16 0)
(3 -4.53994e-16 0)
(3 -3.60038e-16 0)
(3 -5.98343e-16 0)
(3 -6.35446e-16 0)
(3 -4.4558e-16 0)
(3 -3.23718e-16 0)
(3 2.1299e-16 0)
(3 4.34696e-16 0)
(3 -8.56867e-16 0)
(3 -2.26862e-15 0)
(3 -3.76596e-15 0)
(3 -3.56949e-15 0)
(3 -2.96334e-15 0)
(3 -3.10985e-15 0)
(3 -2.90296e-15 0)
(3 -1.81629e-15 0)
(3 -5.09077e-16 0)
(3 -1.3606e-16 0)
(3 6.62282e-16 0)
(3 8.42904e-16 0)
(3 -8.91557e-16 0)
(3 -2.40521e-15 0)
(3 -2.87756e-15 0)
(3 -1.49953e-15 0)
(3 -6.84502e-16 0)
(3 -8.82447e-16 0)
(2.95385 0.0143851 0)
(1.04954 0.0871245 0)
(0.764893 0.0823823 0)
(0.750801 0.0790391 0)
(0.737569 0.077533 0)
(0.724112 0.0744094 0)
(0.709659 0.0727623 0)
(0.694901 0.0749305 0)
(0.680506 0.0803306 0)
(0.665647 0.0850487 0)
(0.650175 0.0860641 0)
(0.634561 0.0838827 0)
(0.618651 0.0813847 0)
(0.602564 0.0819494 0)
(0.587106 0.085972 0)
(0.571442 0.0892928 0)
(0.555778 0.0884568 0)
(0.54039 0.086446 0)
(0.525239 0.0875285 0)
(0.510531 0.0905228 0)
(0.495705 0.0921491 0)
(0.480739 0.0925454 0)
(0.46532 0.0932592 0)
(0.449344 0.0944753 0)
(0.432977 0.0958737 0)
(0.416465 0.0972709 0)
(0.399933 0.0985245 0)
(0.383388 0.0996265 0)
(0.366758 0.100676 0)
(0.349959 0.101708 0)
(0.332995 0.102724 0)
(0.316002 0.10378 0)
(0.299164 0.104946 0)
(0.282569 0.106232 0)
(0.26612 0.107607 0)
(0.249545 0.109013 0)
(0.232503 0.110392 0)
(0.214725 0.111688 0)
(0.196162 0.112887 0)
(0.177034 0.114003 0)
(0.157732 0.115065 0)
(0.138637 0.116081 0)
(0.119981 0.117191 0)
(0.101795 0.118604 0)
(0.0839189 0.120589 0)
(0.0660861 0.123298 0)
(0.0480351 0.126974 0)
(0.0292446 0.129698 0)
(0.0101758 0.132897 0)
(3 1.15034e-16 0)
(3 7.5693e-17 0)
(3 9.644e-18 0)
(3 7.35998e-17 0)
(3 2.35807e-16 0)
(3 2.26094e-16 0)
(3 1.66568e-16 0)
(3 4.63604e-16 0)
(3 2.69158e-16 0)
(3 1.55191e-16 0)
(3 -2.20194e-16 0)
(3 -4.90387e-16 0)
(3 -4.61044e-16 0)
(3 -6.0049e-16 0)
(3 -4.85229e-16 0)
(3 -4.54648e-16 0)
(3 -8.59644e-17 0)
(3 9.45696e-16 0)
(3 1.60953e-15 0)
(3 1.12771e-15 0)
(3 7.66462e-16 0)
(3 9.28483e-16 0)
(3 8.94972e-16 0)
(3 1.65577e-16 0)
(3 -2.28159e-16 0)
(3 -3.26351e-16 0)
(3 -6.90444e-16 0)
(3 -6.23773e-16 0)
(3 -6.90686e-16 0)
(3 -6.44864e-16 0)
(3 -7.80366e-16 0)
(3 -4.92589e-16 0)
(3 7.33252e-17 0)
(3 -1.80755e-16 0)
(3 -1.05512e-15 0)
(3 -1.64777e-15 0)
(3 -1.04622e-15 0)
(3 -6.75499e-16 0)
(3 -4.79714e-16 0)
(3 5.58076e-17 0)
(3 -8.53629e-16 0)
(3 -1.60221e-15 0)
(3 -2.61189e-15 0)
(3 -3.83636e-15 0)
(3 -3.55147e-15 0)
(3 -2.43805e-15 0)
(3 -1.85226e-15 0)
(3 -1.79309e-15 0)
(3 -2.18521e-15 0)
(3 -1.85575e-15 0)
(3 -1.47e-15 0)
(3 -1.68869e-15 0)
(3 -1.66231e-15 0)
(3 -5.42125e-16 0)
(3 -2.21193e-16 0)
(3 -2.50122e-16 0)
(3 -1.64511e-16 0)
(3 -1.22615e-15 0)
(3 -2.46135e-15 0)
(3 -2.56682e-15 0)
(3 -5.58277e-16 0)
(3 1.25312e-15 0)
(3 2.09622e-15 0)
(3 2.53965e-15 0)
(3 3.02127e-15 0)
(3 2.02628e-15 0)
(3 7.26378e-16 0)
(3 4.88897e-17 0)
(3 1.33242e-17 0)
(3 5.67313e-16 0)
(3 1.1366e-15 0)
(3 -1.72667e-16 0)
(3 -4.94726e-16 0)
(3 -2.40564e-16 0)
(3 5.0684e-16 0)
(3 -1.76883e-16 0)
(3 -9.56978e-16 0)
(3 -7.40939e-16 0)
(3 -2.0705e-16 0)
(3 -9.85702e-17 0)
(3 -6.08141e-16 0)
(3 -1.62135e-15 0)
(3 -2.1837e-15 0)
(3 -6.40605e-16 0)
(3 2.43664e-16 0)
(3 -6.16839e-17 0)
(3 -1.05817e-15 0)
(3 -1.7009e-15 0)
(3 -1.5374e-15 0)
(3 -1.27156e-15 0)
(3 -1.21354e-15 0)
(3 -1.16491e-15 0)
(3 -5.89517e-16 0)
(3 -4.37875e-16 0)
(3 4.1407e-16 0)
(3 2.30381e-17 0)
(3 -2.0609e-16 0)
(3 -4.87701e-16 0)
(3 7.90449e-16 0)
(3 1.10922e-15 0)
(3 6.24515e-16 0)
(3 -1.93705e-17 0)
(3 1.95648e-16 0)
(3 2.10297e-16 0)
(3 -6.73565e-16 0)
(3 -1.67886e-15 0)
(3 -1.38856e-15 0)
(3 -3.48971e-16 0)
(3 8.16295e-16 0)
(3 5.29886e-16 0)
(3 -5.45906e-17 0)
(3 -1.1833e-15 0)
(3 -8.09579e-16 0)
(3 5.33894e-16 0)
(3 -5.52265e-16 0)
(3 -8.99799e-17 0)
(3 -7.02503e-16 0)
(3 -1.80043e-16 0)
(3 -3.88638e-16 0)
(3 -8.75121e-16 0)
(3 -1.25521e-15 0)
(3 -1.33154e-15 0)
(3 -3.20822e-16 0)
(3 7.89709e-17 0)
(3 6.47828e-16 0)
(3 2.6075e-16 0)
(3 -1.69404e-15 0)
(3 -2.68527e-15 0)
(3 -2.83355e-15 0)
(3 -3.76412e-15 0)
(3 -3.98949e-15 0)
(3 -3.75913e-15 0)
(3 -4.04536e-15 0)
(3 -3.4217e-15 0)
(3 -2.81405e-15 0)
(3 -2.16189e-15 0)
(3 -1.52377e-15 0)
(3 -1.44283e-15 0)
(3 -1.85447e-15 0)
(3 -2.65918e-15 0)
(3 -2.99604e-15 0)
(3 -1.93431e-15 0)
(3 -2.05477e-15 0)
(2.96955 0.00540015 0)
(1.06731 0.101967 0)
(0.770429 0.0899319 0)
(0.757503 0.0870201 0)
(0.745234 0.0868644 0)
(0.732061 0.0855648 0)
(0.717581 0.0854097 0)
(0.702293 0.0881841 0)
(0.687085 0.0934371 0)
(0.671751 0.0976071 0)
(0.656343 0.0982939 0)
(0.640994 0.0963144 0)
(0.6253 0.0942553 0)
(0.609243 0.0951459 0)
(0.593625 0.0994027 0)
(0.577779 0.102988 0)