/*--------------------------------*- C++ -*----------------------------------*\
  =========                 |
  \\      /  F ield         | OpenFOAM: The Open Source CFD Toolbox
   \\    /   O peration     | Website:  https://openfoam.org
    \\  /    A nd           | Version:  7
     \\/     M anipulation  |
\*---------------------------------------------------------------------------*/
FoamFile
{
    version     2.0;
    format      ascii;
    class       volScalarField;
    location    "8";
    object      p;
}
// * * * * * * * * * * * * * * * * * * * * * * * * * * * * * * * * * * * * * //

dimensions      [1 -1 -2 0 0 0 0];

internalField   nonuniform List<scalar> 
3328
(
197.164
23.4716
13.2997
13.3304
13.351
13.3755
13.4045
13.44
13.4816
13.5289
13.5798
13.6322
13.6846
13.7388
13.7962
13.8579
13.9201
13.9821
14.04
14.0984
14.1497
14.1968
14.2339
14.2605
197.14
23.4639
13.298
13.3292
13.3502
13.3746
13.4033
13.4381
13.4786
13.5245
13.5737
13.6246
13.6757
13.7285
13.7841
13.844
13.9049
13.9668
14.025
14.0829
14.1311
14.1722
14.2031
14.2245
197.122
23.443
13.2949
13.3263
13.3473
13.3713
13.3992
13.4326
13.4713
13.5148
13.5615
13.6102
13.6592
13.7096
13.7619
13.8181
13.876
13.9361
13.993
14.05
14.0966
14.1356
14.1652
14.1855
197.101
23.4191
13.2904
13.3216
13.3427
13.3659
13.3926
13.4242
13.4605
13.5009
13.5441
13.5895
13.6354
13.6825
13.7305
13.782
13.8362
13.8942
13.9505
14.0066
14.0498
14.0814
14.1031
14.1175
197.083
23.3898
13.284
13.3143
13.335
13.3571
13.3822
13.4115
13.445
13.482
13.5212
13.5624
13.6044
13.6477
13.6912
13.7373
13.7853
13.8354
13.883
13.9277
13.9592
13.9891
14.0109
14.0386
197.054
23.3557
13.2749
13.3034
13.3232
13.3439
13.3671
13.3938
13.4244
13.4576
13.4926
13.5292
13.5668
13.6057
13.6447
13.6842
13.7243
13.7643
13.8046
13.8438
13.8756
13.9008
13.9051
13.8874
197.011
23.3153
13.2629
13.2884
13.3072
13.3259
13.3472
13.3711
13.3986
13.428
13.4586
13.49
13.5226
13.5563
13.5908
13.6237
13.6566
13.6857
13.7144
13.731
13.7264
13.6935
13.6731
13.7061
196.946
23.2649
13.2478
13.269
13.2865
13.303
13.3221
13.3432
13.3676
13.3932
13.4197
13.4457
13.4728
13.5003
13.5297
13.5561
13.5811
13.599
13.6097
13.6022
13.5798
13.5544
13.5091
13.7744
196.874
23.1994
13.2306
13.2464
13.2629
13.2769
13.2938
13.3116
13.333
13.355
13.3775
13.3984
13.4195
13.44
13.4622
13.4818
13.4981
13.5069
13.4986
13.4761
13.414
13.3171
12.9155
12.4532
196.815
23.1091
13.2143
13.2208
13.2359
13.2476
13.262
13.2763
13.2943
13.313
13.3324
13.3492
13.3646
13.3781
13.3912
13.4032
13.41
13.4085
13.3862
13.3445
13.2595
13.0992
12.8816
12.4317
196.791
22.9938
13.1961
13.1944
13.2053
13.2147
13.226
13.2364
13.2504
13.2665
13.2833
13.2976
13.3084
13.3159
13.3205
13.3239
13.3204
13.3066
13.2748
13.2132
13.1227
12.9285
12.7534
12.3865
196.776
22.8548
13.1784
13.1647
13.1693
13.1768
13.1849
13.1917
13.2015
13.2148
13.2292
13.2419
13.2497
13.2526
13.2512
13.2457
13.2339
13.208
13.1679
13.0948
12.997
12.8325
12.6745
12.4123
196.718
22.7804
13.149
13.1213
13.1285
13.1368
13.1411
13.1435
13.1489
13.1593
13.1712
13.181
13.1856
13.1847
13.1794
13.1679
13.1507
13.1171
13.0686
12.992
12.8889
12.7569
12.5812
12.4333
196.592
22.772
13.1072
13.0912
13.0984
13.1028
13.1002
13.0961
13.0967
13.1029
13.1118
13.1181
13.1178
13.1113
13.1014
13.086
13.0655
13.0294
12.9761
12.899
12.7983
12.6808
12.5364
12.3902
196.43
22.7796
13.0368
13.0648
13.0774
13.0737
13.0602
13.0486
13.0462
13.0497
13.0553
13.0559
13.0493
13.0356
13.0185
12.9983
12.9741
12.9375
12.8838
12.8099
12.7157
12.605
12.4777
12.3427
196.287
22.7471
13.0021
13.0436
13.0517
13.037
13.0122
12.9985
12.9958
12.9993
13.0033
12.9997
12.9859
12.9629
12.9368
12.9095
12.8792
12.8394
12.785
12.7143
12.6281
12.5273
12.4091
12.2901
196.171
22.6877
12.9853
13.0246
13.0207
12.9916
12.9593
12.9451
12.9445
12.9504
12.9551
12.9492
12.9288
12.8981
12.8637
12.8282
12.7898
12.7432
12.6832
12.6107
12.5286
12.4373
12.3308
12.2163
196.077
22.6403
12.9883
12.9986
12.9773
12.9341
12.9015
12.8914
12.8955
12.9044
12.9082
12.8973
12.8711
12.8365
12.799
12.7599
12.7156
12.66
12.5901
12.5089
12.4222
12.3327
12.2356
12.1264
195.986
22.6411
12.9763
12.9591
12.9222
12.8725
12.8455
12.8444
12.8562
12.8658
12.8617
12.8387
12.805
12.7697
12.7353
12.6995
12.6562
12.5971
12.5185
12.4241
12.3243
12.226
12.1273
12.0182
195.889
22.6785
12.9465
12.9137
12.8565
12.8122
12.7995
12.8149
12.8344
12.8363
12.8131
12.7725
12.7309
12.6952
12.6656
12.6377
12.6028
12.5475
12.466
12.3639
12.2515
12.137
12.0239
11.9048
195.771
22.7391
12.9017
12.8478
12.7803
12.759
12.7756
12.8099
12.8256
12.8066
12.7591
12.7033
12.6546
12.6184
12.593
12.5725
12.5458
12.4961
12.4185
12.3177
12.2013
12.0775
11.949
11.8109
195.635
22.8101
12.8346
12.7561
12.7073
12.7297
12.7778
12.814
12.8098
12.7668
12.702
12.6374
12.5853
12.5503
12.5289
12.5118
12.4849
12.433
12.3566
12.2629
12.1568
12.0391
11.9056
11.754
195.511
22.8376
12.7444
12.6704
12.6709
12.732
12.7871
12.8018
12.7743
12.7126
12.6399
12.5761
12.5307
12.5047
12.4888
12.4671
12.4254
12.3585
12.2755
12.1865
12.0935
11.993
11.8746
11.7277
195.443
22.758
12.6361
12.628
12.6778
12.7514
12.7801
12.7671
12.7159
12.6414
12.5703
12.5184
12.4927
12.4853
12.4769
12.4436
12.3752
12.2835
12.1851
12.0924
12.0063
11.9224
11.8258
11.701
195.44
22.6098
12.5588
12.6445
12.7172
12.7553
12.7517
12.7114
12.6358
12.557
12.4966
12.4664
12.4683
12.4802
12.4769
12.4308
12.3393
12.2245
12.106
11.9997
11.9097
11.8332
11.7522
11.6493
195.463
22.4076
12.5587
12.6879
12.7365
12.7403
12.7086
12.6354
12.5459
12.4719
12.4287
12.4269
12.4511
12.4732
12.4644
12.4075
12.3085
12.1869
12.057
11.9339
11.8285
11.7456
11.6688
11.5762
195.455
22.2413
12.6101
12.7148
12.7316
12.7101
12.6456
12.5509
12.4649
12.4057
12.3879
12.4076
12.4369
12.4476
12.4216
12.3542
12.2597
12.151
12.0325
11.9112
11.7964
11.6955
11.6009
11.4964
195.388
22.1856
12.6556
12.7122
12.6999
12.6519
12.5634
12.4711
12.4041
12.3774
12.3866
12.4092
12.4193
12.4016
12.3489
12.2703
12.1822
12.0942
12.0069
11.9174
11.8183
11.706
11.5766
11.4329
195.281
22.2422
12.6681
12.673
12.6365
12.5626
12.4735
12.4107
12.3837
12.3967
12.4216
12.4271
12.4006
12.3406
12.2574
12.1664
12.0812
12.013
11.9638
11.9261
11.8667
11.7622
11.6059
11.4167
195.174
22.3962
12.6435
12.6095
12.5463
12.4574
12.3937
12.37
12.3967
12.4442
12.4718
12.4551
12.3867
12.2818
12.1683
12.0625
11.976
11.9251
11.9123
11.9143
11.8914
11.8095
11.6539
11.4456
195.104
22.5978
12.597
12.5322
12.4384
12.3714
12.3406
12.3681
12.43
12.4852
12.5025
12.4675
12.3716
12.2406
12.1025
11.9803
11.8971
11.869
11.8764
11.885
11.8671
11.7999
11.6692
11.4807
195.067
22.7639
12.5405
12.4441
12.3494
12.3217
12.3364
12.3944
12.4574
12.4904
12.4907
12.4381
12.3319
12.2013
12.0661
11.9563
11.8947
11.8709
11.8581
11.8409
11.7993
11.7217
11.606
11.4573
195.024
22.8293
12.4709
12.369
12.314
12.3289
12.3735
12.4282
12.4584
12.4607
12.4255
12.3469
12.2503
12.1562
12.076
12.0153
11.9687
11.9223
11.8662
11.797
11.7094
11.6023
11.4853
11.3637
194.979
22.762
12.3882
12.3363
12.3354
12.3917
12.4385
12.4507
12.4381
12.3979
12.3201
12.2276
12.1424
12.0883
12.0845
12.0947
12.0795
12.0151
11.911
11.7785
11.6305
11.4798
11.3462
11.24
194.968
22.5748
12.2991
12.3434
12.4058
12.4723
12.494
12.4742
12.4051
12.3064
12.2052
12.115
12.0563
12.067
12.1177
12.1594
12.1637
12.1057
11.9688
11.7828
11.5797
11.3842
11.2277
11.1303
194.968
22.3675
12.2524
12.3899
12.4656
12.504
12.5106
12.4637
12.3652
12.2307
12.1163
12.0393
12.0329
12.0731
12.1283
12.1677
12.1761
12.1341
11.9998
11.7897
11.5553
11.3338
11.1704
11.086
194.998
22.2499
12.3048
12.4216
12.469
12.4882
12.4726
12.4117
12.3149
12.209
12.1229
12.0767
12.0711
12.0914
12.1183
12.1305
12.1159
12.0569
11.9413
11.7724
11.573
11.3917
11.2538
11.1476
195.032
22.3177
12.3732
12.4205
12.4336
12.4186
12.3767
12.3211
12.2726
12.2347
12.2022
12.1776
12.1585
12.1378
12.1057
12.0596
11.9904
11.9004
11.8088
11.7288
11.6385
11.5273
11.408
11.281
195.007
22.5341
12.4157
12.4006
12.3724
12.3255
12.2669
12.2283
12.22
12.2455
12.2824
12.2945
12.268
12.2048
12.1021
11.9675
11.8342
11.7299
11.6681
11.6494
11.6535
11.6409
11.5688
11.4282
195.014
22.7042
12.4205
12.374
12.3038
12.2394
12.2041
12.1961
12.2255
12.2921
12.362
12.3961
12.3615
12.2353
12.0576
11.8711
11.7234
11.6456
11.6444
11.6756
11.7223
11.7506
11.7068
11.5555
10.3256
11.3715
11.8833
12.0484
12.083
12.1076
12.1296
12.1477
12.1064
12.3388
12.1731
12.1637
12.133
12.1616
12.178
12.1854
12.1642
12.1698
12.0605
12.1212
12.1366
12.177
12.1662
12.2081
12.2585
12.2173
12.152
12.2215
12.2153
12.2318
12.1701
12.1733
12.2802
12.2092
12.1208
12.1625
12.1552
12.1684
12.139
12.163
12.2822
12.1924
12.1143
12.115
12.1211
12.1649
12.1689
12.1396
12.24
12.1365
12.0474
12.0191
11.9975
11.9823
11.9732
12.046
12.1699
12.0584
11.9541
11.8548
11.7726
11.7563
11.7251
12.0461
12.0913
11.9609
11.8258
11.69
11.5147
11.2957
10.6374
8.64805
12.0026
11.8608
11.6991
11.4847
11.2143
10.7454
9.90327
7.88927
11.8932
11.7411
11.5623
11.3136
10.9696
10.3769
9.47814
7.68365
11.77
11.6059
11.4091
11.1463
10.773
10.1923
9.29304
7.8328
11.6543
11.4695
11.2482
10.9738
10.5985
10.0643
9.27891
8.11572
11.5754
11.3635
11.1107
10.8153
10.4385
9.95263
9.30393
8.42082
11.539
11.3088
11.0292
10.7065
10.3217
9.86789
9.32467
8.64005
11.5269
11.2972
11.0077
10.6724
10.2848
9.84163
9.35426
8.78755
11.4985
11.2926
11.0218
10.6956
10.3153
9.87877
9.41933
8.91412
11.4392
11.2565
11.0182
10.7267
10.3829
9.98049
9.54768
9.06972
11.3583
11.1845
10.9728
10.727
10.4408
10.0988
9.71821
9.2845
11.2725
11.0939
10.8966
10.6813
10.4483
10.1697
9.85686
9.49429
11.2147
11.0105
10.8106
10.6091
10.4108
10.186
9.93729
9.64344
11.2136
10.9767
10.7538
10.5435
10.3548
10.1625
9.96117
9.72476
11.2487
10.9936
10.7445
10.516
10.3206
10.1336
9.94904
9.73813
11.273
11.054
10.8149
10.5736
10.3503
10.1384
9.93023
9.70984
11.2369
11.0942
10.9235
10.7098
10.4699
10.2129
9.94888
9.68512
11.1579
11.082
10.9914
10.8455
10.6259
10.3407
10.0236
9.70219
11.0853
11.0574
11.0148
10.9168
10.7357
10.4674
10.1353
9.78111
11.0497
11.0233
10.9842
10.8975
10.7458
10.5231
10.2325
9.89073
11.0596
10.9855
10.9097
10.806
10.6634
10.4751
10.2431
9.96569
11.1466
10.9978
10.8437
10.6874
10.5219
10.3454
10.1685
9.9868
11.2425
11.026
10.7939
10.5737
10.3778
10.2006
10.0492
9.9244
11.3137
11.0246
10.7262
10.4585
10.2676
10.1575
10.0718
9.97354
2.49025
1.00273
0.685643
0.719856
0.902465
1.36696
2.11428
2.81316
3.13539
3.48896
4.09797
4.61103
5.36496
6.16788
6.20312
6.29923
6.50569
6.78273
6.86608
6.81569
6.73029
6.65199
6.64561
6.6623
6.54697
6.35583
6.12876
5.95779
5.80864
5.65719
5.49566
5.3373
5.21929
5.13014
5.07646
5.0614
5.05241
5.02637
4.9824
4.92391
4.84889
4.75466
4.62498
4.42477
4.17312
3.9802
3.86585
3.79082
3.72501
3.67916
3.65593
3.6264
3.66507
3.82999
4.2655
4.98758
5.68329
6.00539
5.77305
5.42722
5.22789
5.15753
5.13175
5.15124
5.20324
5.27308
5.34118
5.35857
5.33056
5.28145
5.19423
5.03037
4.81911
4.69779
4.64981
4.62204
4.61928
4.65787
4.69439
4.69257
4.66765
4.63348
4.58742
4.50903
4.37699
4.22692
4.15972
4.1147
4.00013
2.57041
1.97738
1.65014
1.56378
1.60829
1.74816
2.04976
2.54173
3.07681
3.7708
4.32319
5.05274
6.01703
6.27901
6.39417
6.52643
6.64534
6.70146
6.66502
6.583
6.50319
6.46893
6.45158
6.37443
6.2777
6.17192
6.07077
5.96244
5.83118
5.68358
5.51907
5.35004
5.21278
5.12304
5.06234
5.0174
4.97079
4.90439
4.81806
4.72279
4.62429
4.51525
4.38462
4.25937
4.12388
3.96676
3.83002
3.74622
3.69565
3.66597
3.65854
3.72347
3.98767
4.32942
4.77832
5.30937
5.72001
5.70783
5.53313
5.35094
5.26316
5.20975
5.19739
5.22179
5.26107
5.29749
5.28747
5.24409
5.18674
5.09689
4.9739
4.87003
4.78862
4.71936
4.67725
4.6598
4.67422
4.69757
4.6807
4.64353
4.59783
4.53669
4.45314
4.35018
4.26249
4.20025
4.14038
5.24194
3.81475
3.04927
2.58253
2.23114
1.97606
1.89012
1.99607
2.28416
2.7292
3.24886
3.96551
4.70228
5.78081
6.4318
6.77777
6.78616
6.7155
6.67948
6.62729
6.55252
6.45408
6.32668
6.20599
6.11812
6.07993
6.06931
6.03797
5.95996
5.86251
5.76015
5.66018
5.55585
5.42579
5.2543
5.08676
4.97809
4.89256
4.80501
4.71032
4.60942
4.49508
4.37948
4.30396
4.25263
4.18777
4.09501
3.96033
3.81241
3.72977
3.70067
3.74062
3.90716
4.22323
4.34807
4.51273
4.8288
5.33934
5.61433
5.60773
5.48141
5.40167
5.35171
5.31574
5.28656
5.26007
5.23696
5.20986
5.15628
5.07921
4.98261
4.90567
4.87074
4.83067
4.78229
4.74415
4.72349
4.71706
4.699
4.66152
4.61851
4.56033
4.47795
4.37951
4.30491
4.26334
4.22351
4.16457
6.21866
4.99833
4.06037
3.52626
3.15089
2.77006
2.48831
2.40441
2.45035
2.57418
2.72992
3.18947
3.83266
4.83304
6.06706
6.89209
6.95222
6.78007
6.68942
6.64102
6.56968
6.46688
6.30712
6.16243
6.08525
6.05406
6.06421
6.03901
5.97429
5.89667
5.8225
5.75467
5.66892
5.54642
5.35776
5.13227
4.93991
4.79776
4.68902
4.59108
4.48978
4.39307
4.32392
4.27458
4.2391
4.19346
4.13107
4.04987
3.93714
3.81024
3.81675
3.92351
4.1725
4.39186
4.36808
4.40539
4.53381
4.91786
5.37914
5.60425
5.60539
5.55328
5.4989
5.43472
5.35042
5.25037
5.15859
5.10241
5.04763
4.98582
4.93484
4.90626
4.88613
4.86435
4.84137
4.81605
4.78425
4.74468
4.69887
4.64665
4.57912
4.49555
4.40511
4.34089
4.30729
4.2834
4.26115
4.20582
6.94866
5.97426
5.08366
4.37183
3.94178
3.59247
3.21028
2.91053
2.79959
2.77022
2.80263
2.85303
3.06628
3.67788
5.05241
6.44032
6.9385
6.95218
6.83161
6.73911
6.65538
6.5476
6.39666
6.25579
6.17045
6.12002
6.08068
6.01919
5.95381
5.88799
5.80662
5.71243
5.60511
5.47007
5.29432
5.10145
4.9154
4.73775
4.58421
4.46794
4.38536
4.32917
4.29838
4.2873
4.27272
4.23766
4.17789
4.10886
4.04353
3.99026
4.04091
4.22361
4.43691
4.46477
4.3759
4.34547
4.39167
4.60906
5.03266
5.45341
5.68277
5.6856
5.62775
5.52032
5.37273
5.2015
5.05725
4.97487
4.92973
4.90226
4.89395
4.90134
4.90942
4.9143
4.91257
4.89107
4.84688
4.77854
4.68656
4.59056
4.4959
4.40378
4.34417
4.31401
4.29761
4.2981
4.29502
4.24174
7.53164
6.69229
5.94953
5.24698
4.66643
4.28985
3.97099
3.60355
3.308
3.18306
3.10655
3.03878
3.01132
3.105
3.65399
5.07037
6.51901
6.99962
6.97262
6.88977
6.77382
6.66397
6.54961
6.41749
6.26303
6.09918
5.95723
5.8492
5.76316
5.70755
5.66073
5.5752
5.46228
5.32607
5.18928
5.06411
4.93449
4.78017
4.60905
4.47133
4.39184
4.34302
4.31609
4.33094
4.32795
4.26387
4.19641
4.13325
4.13196
4.21537
4.38613
4.57886
4.6125
4.51254
4.41547
4.36655
4.36569
4.47553
4.73665
5.14979
5.51906
5.62002
5.60064
5.4984
5.3309
5.12265
4.97904
4.91901
4.88407
4.86827
4.88755
4.93621
4.98484
5.01073
4.99548
4.95253
4.87385
4.74489
4.61637
4.50628
4.41519
4.35902
4.32716
4.3049
4.29938
4.32168
4.33599
4.2799
7.93984
7.23549
6.587
5.98413
5.41667
4.9223
4.5827
4.28946
3.94963
3.62383
3.45864
3.35408
3.21931
3.15998
3.20583
3.61637
5.07053
6.61373
6.97558
6.92608
6.80927
6.68741
6.58464
6.47514
6.33202
6.12594
5.89208
5.72758
5.61591
5.52678
5.45964
5.40315
5.32934
5.23929
5.15286
5.0753
4.9846
4.8697
4.72779
4.59514
4.50003
4.43513
4.3717
4.28981
4.20704
4.12782
4.0911
4.11909
4.25119
4.50112
4.73959
4.7689
4.70887
4.60079
4.51714
4.47021
4.44776
4.47191
4.58013
4.82963
5.21272
5.44669
5.49645
5.42971
5.27919
5.08576
4.96858
4.92891
4.90404
4.90776
4.95855
5.02667
5.05619
5.03364
4.99214
4.92846
4.82696
4.68361
4.5312
4.4276
4.37326
4.34247
4.31994
4.31246
4.33595
4.37361
4.37374
4.31566
8.21583
7.63355
7.05822
6.53267
6.04154
5.5668
5.13857
4.83689
4.5564
4.22036
3.89031
3.73769
3.60808
3.43812
3.27094
3.29655
3.704
5.24232
6.57515
6.86511
6.79743
6.68667
6.57299
6.45681
6.32283
6.14581
5.91587
5.7208
5.58701
5.46818
5.36687
5.28849
5.24551
5.25511
5.23624
5.16978
5.08669
4.97657
4.84928
4.71441
4.58145
4.45309
4.32085
4.20072
4.09614
4.02432
4.02953
4.15568
4.44952
4.77986
4.88953
4.86093
4.80266
4.72581
4.67283
4.63407
4.59214
4.53387
4.50433
4.58605
4.78447
5.07818
5.27723
5.30722
5.23419
5.09999
5.02442
4.99366
4.98533
5.0105
5.03593
5.02521
5.00328
4.98621
4.94628
4.87791
4.76253
4.60086
4.47216
4.40655
4.36974
4.34327
4.33146
4.35346
4.4008
4.40895
4.38211
4.31705
8.41491
7.91677
7.42703
6.94182
6.51646
6.09893
5.68231
5.31416
5.03773
4.76862
4.45607
4.15569
3.9634
3.79012
3.59434
3.40434
3.42053
3.83938
5.30898
6.42992
6.68385
6.64326
6.5356
6.42287
6.29534
6.14048
5.97608
5.80106
5.62011
5.47391
5.36208
5.27359
5.20889
5.17249
5.14203
5.09286
5.02779
4.9574
4.85917
4.73029
4.57819
4.41635
4.24276
4.0888
3.98662
3.97179
4.05159
4.36458
4.69454
4.93763
4.99494
4.96653
4.92204
4.87973
4.83737
4.78011
4.68053
4.55521
4.45656
4.41169
4.44738
4.60539
4.89013
5.09827
5.17048
5.15233
5.13155
5.11447
5.09794
5.0776
5.03942
4.98333
4.94704
4.91266
4.85936
4.77634
4.66483
4.55328
4.47732
4.43657
4.4049
4.38801
4.39974
4.43296
4.42375
4.38837
4.33541
4.27244
8.59525
8.13421
7.68766
7.25695
6.84451
6.49041
6.13196
5.75847
5.44471
5.20176
4.95038
4.65695
4.36096
4.14423
3.9612
3.7451
3.52846
3.5268
3.94776
5.28466
6.29048
6.51317
6.46707
6.36288
6.24532
6.12177
6.0082
5.87063
5.70177
5.53524
5.40667
5.30229
5.20481
5.12268
5.05239
4.99092
4.92868
4.86042
4.78611
4.68772
4.54084
4.36225
4.18358
4.04455
3.9974
4.06011
4.35191
4.71209
4.93969
5.05098
5.11783
5.11181
5.05749
4.99989
4.93246
4.83564
4.70481
4.54822
4.40391
4.30824
4.29247
4.32492
4.5118
4.80901
5.05484
5.20268
5.23541
5.21304
5.1613
5.09161
5.01715
4.93582
4.86207
4.79669
4.72677
4.66045
4.6061
4.55709
4.52517
4.50231
4.48846
4.48845
4.4896
4.46537
4.41937
4.35857
4.28419
4.22556
8.82202
8.35312
7.90838
7.49509
7.11511
6.75281
6.42711
6.12028
5.80473
5.54604
5.32673
5.08107
4.80181
4.51515
4.28535
4.07608
3.84653
3.63577
3.62252
4.0316
5.29415
6.12183
6.31314
6.27777
6.19455
6.10249
5.99935
5.87182
5.72988
5.59158
5.45478
5.31587
5.17738
5.0466
4.94606
4.87023
4.80118
4.73349
4.66145
4.57637
4.46093
4.31273
4.16705
4.08711
4.14369
4.41929
4.79469
5.01717
5.10915
5.17337
5.17465
5.13062
5.07917
5.02335
4.95057
4.84814
4.69019
4.52368
4.40754
4.31737
4.27357
4.26934
4.33023
4.54863
4.87168
5.16654
5.2532
5.24386
5.18464
5.09331
4.98377
4.85453
4.7336
4.66519
4.62631
4.59818
4.58137
4.58423
4.59963
4.6113
4.60785
4.57905
4.52815
4.45645
4.38103
4.30083
4.20037
4.17285
9.09157
8.6425
8.16714
7.72688
7.34118
6.98556
6.654
6.3539
6.08475
5.82769
5.60911
5.39724
5.15601
4.88834
4.62448
4.39006
4.16438
3.92483
3.71366
3.69535
4.10921
5.25182
5.98353
6.14407
6.08503
5.9987
5.90607
5.81159
5.70675
5.58909
5.46319
5.31424
5.14456
4.97888
4.8433
4.75057
4.68041
4.61103
4.53273
4.43921
4.3371
4.24893
4.21678
4.28301
4.55444
4.99312
5.1821
5.21233
5.18964
5.17287
5.1475
5.10144
5.05072
4.99278
4.91498
4.80011
4.66065
4.53591
4.43118
4.35016
4.29854
4.27116
4.29206
4.41665
4.68139
5.01487
5.18645
5.21709
5.18369
5.08751
4.93315
4.75813
4.66209
4.62482
4.59685
4.57889
4.59647
4.66537
4.71435
4.70392
4.66655
4.60809
4.52372
4.42472
4.31802
4.21526
4.13955
4.24263
9.30601
8.92132
8.49031
8.02657
7.57866
7.20613
6.86832
6.57046
6.30319
6.04165
5.79641
5.60027
5.40554
5.17891
4.9299
4.68988
4.45899
4.21357
3.97015
3.77929
3.76005
4.15658
5.20017
5.85856
5.96265
5.88476
5.80528
5.72529
5.64619
5.55466
5.43417
5.28502
5.11326
4.94164
4.79736
4.6821
4.60015
4.51905
4.424
4.32549
4.26165
4.25603
4.36901
4.68388
5.14629
5.40868
5.39989
5.31427
5.21412
5.14336
5.09218
5.04621
5.00269
4.93899
4.85385
4.75877
4.66673
4.57996
4.49791
4.43359
4.38489
4.34865
4.34631
4.38389
4.51111
4.73621
4.96479
5.07768
5.08581
5.01597
4.87792
4.72635
4.64955
4.61922
4.59687
4.60557
4.6788
4.72344
4.71189
4.68555
4.64646
4.58491
4.4819
4.34814
4.22952
4.18068
4.21893
4.44463
9.43844
9.10635
8.74139
8.35052
7.92477
7.47765
7.10181
6.78605
6.50323
6.2442
5.97931
5.73262
5.54738
5.36995
5.16034
4.9302
4.70908
4.48617
4.24274
4.00103
3.81988
3.79193
4.16769
5.15763
5.70436
5.75169
5.67741
5.622
5.55668
5.47193
5.37532
5.24994
5.08648
4.91725
4.77351
4.65851
4.55184
4.44074
4.33877
4.27321
4.27
4.3432
4.68458
5.21786
5.49843
5.52862
5.46931
5.35673
5.22355
5.101
5.03373
4.9834
4.94381
4.89839
4.83545
4.75716
4.70072
4.66196
4.61874
4.56362
4.5022
4.44159
4.37946
4.34752
4.35549
4.42254
4.56295
4.74953
4.87561
4.88194
4.83433
4.7399
4.68361
4.66063
4.65894
4.68785
4.6975
4.68318
4.66587
4.63971
4.59415
4.51964
4.3941
4.26033
4.21994
4.27158
4.41208
4.69488
9.49642
9.21198
8.89497
8.55476
8.20875
7.8223
7.40497
7.02622
6.72231
6.43638
6.15916
5.88936
5.64812
5.46363
5.28695
5.09397
4.89221
4.69843
4.48922
4.2452
3.98997
3.81454
3.78702
4.1491
5.04118
5.47649
5.5545
5.52289
5.45658
5.37106
5.28212
5.17431
5.03598
4.90241
4.7832
4.65653
4.5162
4.36587
4.28295
4.2717
4.31664
4.60682
5.17763
5.5501
5.59945
5.55734
5.47249
5.36226
5.22514
5.11004
5.04016
4.98683
4.93805
4.89687
4.8534
4.81498
4.79764
4.77121
4.7245
4.65155
4.54725
4.45116
4.37278
4.30494
4.24443
4.20758
4.24134
4.37387
4.58858
4.73513
4.79084
4.78475
4.77469
4.7784
4.77865
4.75376
4.70519
4.65073
4.60904
4.56241
4.4966
4.40402
4.30518
4.25653
4.29487
4.44085
4.65918
4.91622
9.47782
9.23513
8.96721
8.66849
8.37264
8.0714
7.7155
7.33174
6.96181
6.64839
6.35073
6.05495
5.78041
5.55528
5.37768
5.20264
5.01694
4.83162
4.65147
4.45038
4.20049
3.94481
3.78417
3.75592
4.09541
4.84866
5.31866
5.42403
5.34929
5.25901
5.17023
5.0811
4.99145
4.89857
4.7853
4.63755
4.44956
4.31056
4.26934
4.29415
4.54366
5.07652
5.54727
5.65734
5.6049
5.52466
5.43696
5.35234
5.25679
5.15576
5.07163
5.0102
4.96158
4.93139
4.92601
4.92194
4.88597
4.83016
4.75444
4.65269
4.54368
4.44576
4.35777
4.27421
4.19095
4.12565
4.11874
4.16112
4.33593
4.56037
4.73384
4.84555
4.89429
4.88976
4.85321
4.79393
4.71219
4.62067
4.5372
4.45437
4.36704
4.29604
4.28148
4.31639
4.46498
4.68747
4.91291
5.07541
9.43213
9.19813
8.95965
8.71255
8.46542
8.21932
7.93336
7.59694
7.24152
6.88004
6.54151
6.23063
5.93253
5.67661
5.47061
5.29586
5.12248
4.94125
4.7567
4.57373
4.37602
4.13463
3.89189
3.73756
3.70636
4.01066
4.69376
5.17705
5.24115
5.15659
5.05744
4.98117
4.92214
4.85812
4.7575
4.59191
4.40051
4.28842
4.29374
4.48723
5.0434
5.51444
5.68173
5.64949
5.58514
5.51033
5.43506
5.36196
5.29498
5.23023
5.15314
5.07702
5.02552
4.99436
4.96998
4.92643
4.87647
4.81678
4.73417
4.63102
4.53401
4.45106
4.36763
4.27762
4.18438
4.11061
4.08327
4.09358
4.17611
4.3834
4.60997
4.82174
4.90209
4.89782
4.86201
4.79412
4.70096
4.57314
4.4396
4.34557
4.30124
4.29323
4.3201
4.45867
4.71477
4.94757
5.10748
5.14229
9.40983
9.15348
8.92238
8.70561
8.50105
8.30187
8.0679
7.77393
7.45112
7.11397
6.75647
6.39923
6.08453
5.81283
5.58295
5.38868
5.20787
5.02439
4.84025
4.65488
4.46902
4.27255
4.04173
3.819
3.66515
3.63944
3.9168
4.5569
5.01243
5.05801
4.97464
4.88928
4.81359
4.73468
4.63028
4.49664
4.37493
4.32344
4.47323
4.98883
5.55458
5.70607
5.68642
5.64053
5.57972
5.51479
5.45582
5.4031
5.35865
5.31264
5.25099
5.16614
5.07199
5.00387
4.95248
4.90036
4.84289
4.77177
4.68521
4.60385
4.53629
4.46761
4.3908
4.30144
4.20259
4.1346
4.09598
4.08476
4.11938
4.24191
4.42668
4.66825
4.80694
4.82786
4.81208
4.74772
4.6383
4.49992
4.38915
4.32964
4.3161
4.34965
4.49175
4.74765
5.0173
5.16677
5.18169
5.12615
9.44068
9.14479
8.89964
8.68996
8.50705
8.33131
8.13237
7.88222
7.58162
7.2591
6.92407
6.57104
6.23695
5.95239
5.70385
5.48355
5.28543
5.09456
4.90537
4.72189
4.54357
4.35982
4.15547
3.92349
3.71614
3.59148
3.57604
3.83242
4.41714
4.83658
4.89058
4.80269
4.70168
4.59603
4.47848
4.41003
4.37443
4.48804
4.97208
5.58418
5.75139
5.7624
5.71075
5.65389
5.60266
5.54761
5.50031
5.45836
5.41071
5.35833
5.29275
5.20362
5.09471
4.99417
4.91325
4.8461
4.77859
4.70963
4.64687
4.59144
4.53783
4.48688
4.43057
4.35813
4.27702
4.21502
4.17239
4.13622
4.11137
4.13614
4.21399
4.37909
4.5573
4.65813
4.67396
4.6324
4.54506
4.44452
4.38098
4.37452
4.41693
4.56481
4.82713
5.10036
5.26012
5.27252
5.22866
5.10307
9.53706
9.20115
8.91195
8.69602
8.51846
8.33296
8.12948
7.90723
7.64574
7.34667
7.02576
6.70291
6.3855
6.09608
5.83128
5.58553
5.36171
5.15785
4.96587
4.77789
4.59162
4.40537
4.21698
4.01297
3.79868
3.61684
3.52009
3.51448
3.75098
4.26696
4.6644
4.68067
4.58562
4.45887
4.35292
4.36023
4.47358
4.96304
5.57267
5.87961
5.87317
5.81155
5.74043
5.6842
5.62345
5.56407
5.5076
5.45458
5.4013
5.34775
5.28683
5.20697
5.10517
4.98984
4.88096
4.79251
4.72439
4.67011
4.62713
4.59194
4.56155
4.52504
4.48272
4.43296
4.36761
4.28883
4.21187
4.14231
4.08842
4.04113
4.03054
4.07329
4.19181
4.34206
4.45858
4.49826
4.46056
4.41145
4.40449
4.46155
4.62325
4.88404
5.14646
5.34056
5.36541
5.33307
5.26032
5.06348
9.6497
9.34285
9.06648
8.80877
8.56799
8.33704
8.09897
7.86569
7.62734
7.3691
7.08285
6.78185
6.49073
6.21937
5.95866
5.7023
5.45391
5.21999
5.0067
4.81003
4.62333
4.44131
4.25656
4.06654
3.8701
3.68286
3.53299
3.44472
3.43522
3.63731
4.08343
4.41766
4.44035
4.34802
4.32383
4.42062
4.87587
5.5929
5.9122
5.96377
5.92083
5.85419
5.77962
5.68585
5.61144
5.55269
5.49613
5.44177
5.38614
5.32886
5.26793
5.19879
5.11172
5.00267
4.88604
4.78703
4.71489
4.66539
4.62917
4.6205
4.61398
4.58062
4.53631
4.47954
4.39502
4.29299
4.20643
4.13375
4.06582
4.00793
3.95791
3.92654
3.95647
4.06417
4.22648
4.3824
4.39779
4.42194
4.49664
4.64853
4.89131
5.1398
5.30765
5.3926
5.38758
5.33807
5.24405
5.01935
9.76685
9.49848
9.22642
8.95739
8.66786
8.36787
8.09353
7.83748
7.57698
7.33313
7.09902
6.83368
6.57297
6.32012
6.06842
5.80998
5.54378
5.27992
5.03942
4.82652
4.62976
4.44316
4.26599
4.09757
3.93093
3.75549
3.58838
3.44138
3.34651
3.31537
3.46489
3.85815
4.16641
4.22733
4.37684
4.80198
5.4844
5.94662
6.06858
6.02181
5.94928
5.87425
5.77567
5.66164
5.58738
5.531
5.47936
5.42714
5.37026
5.31046
5.2477
5.18218
5.11215
5.02438
4.91763
4.81627
4.74909
4.70095
4.66
4.6207
4.58182
4.54089
4.49566
4.44093
4.36964
4.28239
4.19523
4.12139
4.05521
3.99451
3.93928
3.8931
3.88931
3.92728
4.04364
4.22803
4.354
4.47203
4.64061
4.85462
5.10437
5.27884
5.36036
5.37095
5.32968
5.25829
5.16518
5.01759
9.79089
9.61237
9.36613
9.07788
8.75846
8.42998
8.11445
7.81038
7.52694
7.28172
7.08222
6.87664
6.63082
6.38665
6.14084
5.8849
5.61323
5.33505
5.07045
4.8344
4.62715
4.43985
4.2665
4.10758
3.95967
3.81106
3.65189
3.48712
3.3202
3.19411
3.14248
3.31053
3.705
4.13367
4.69974
5.37866
5.87467
6.0625
6.07037
6.02072
5.94786
5.87172
5.76026
5.63679
5.56581
5.51202
5.46564
5.41638
5.35955
5.29885
5.23543
5.17095
5.10283
5.03345
4.9633
4.89113
4.82074
4.75742
4.69751
4.63885
4.57901
4.51767
4.45542
4.39254
4.32917
4.25986
4.18116
4.10795
4.04781
3.988
3.92675
3.88755
3.86774
3.88674
3.96084
4.10418
4.31254
4.55244
4.81913
5.055
5.2485
5.32114
5.2997
5.2513
5.18535
5.1226
5.06876
5.005
9.87204
9.72998
9.48954
9.17017
8.82892
8.46565
8.09664
7.76178
7.47876
7.25071
7.07827
6.90284
6.66944
6.43077
6.18876
5.93823
5.66856
5.37289
5.07894
4.82787
4.61678
4.42958
4.25935
4.10743
3.97088
3.84083
3.69799
3.53172
3.34608
3.14313
3.01129
3.03784
3.28927
4.02487
4.99854
5.83269
6.25233
6.1877
6.1032
6.03378
5.95966
5.87687
5.74783
5.61644
5.55132
5.50083
5.45896
5.41291
5.3569
5.2939
5.22358
5.1579
5.10811
5.06722
5.01971
4.95142
4.86179
4.7715
4.69376
4.6207
4.54718
4.47621
4.41283
4.35457
4.29793
4.23725
4.16467
4.08852
4.02941
3.98066
3.93923
3.9035
3.87489
3.87096
3.92062
4.03127
4.28328
4.64855
4.97656
5.2273
5.35612
5.33286
5.25714
5.16257
5.0883
5.03778
5.00904
4.99308
)
;

boundaryField
{
    inlet
    {
        type            fixedValue;
        value           uniform 1;
    }
    outlet
    {
        type            zeroGradient;
    }
    bottom
    {
        type            zeroGradient;
    }
    top
    {
        type            zeroGradient;
    }
    obstacle
    {
        type            zeroGradient;
    }
    defaultFaces
    {
        type            empty;
    }
}


// ************************************************************************* //
