/*--------------------------------*- C++ -*----------------------------------*\
  =========                 |
  \\      /  F ield         | OpenFOAM: The Open Source CFD Toolbox
   \\    /   O peration     | Website:  https://openfoam.org
    \\  /    A nd           | Version:  7
     \\/     M anipulation  |
\*---------------------------------------------------------------------------*/
FoamFile
{
    version     2.0;
    format      ascii;
    class       volScalarField;
    location    "8";
    object      rho;
}
// * * * * * * * * * * * * * * * * * * * * * * * * * * * * * * * * * * * * * //

dimensions      [1 -3 0 0 0 0 0];

internalField   nonuniform List<scalar> 
3328
(
73.3416
11.9924
7.41392
7.42454
7.4297
7.43603
7.44407
7.45457
7.46736
7.48222
7.49828
7.51466
7.53076
7.54725
7.56466
7.58356
7.60257
7.62088
7.63442
7.64085
7.63232
7.6102
7.58813
7.58322
73.3312
11.9889
7.4129
7.4237
7.42902
7.43536
7.44329
7.45352
7.46591
7.48029
7.49574
7.51156
7.52717
7.54314
7.55988
7.57808
7.59663
7.61491
7.62863
7.63494
7.62533
7.60108
7.57671
7.56986
73.314
11.9786
7.4105
7.42132
7.42672
7.43297
7.44063
7.45039
7.46214
7.47563
7.4902
7.50526
7.52018
7.53534
7.55089
7.56779
7.5853
7.603
7.61644
7.62267
7.61282
7.58807
7.56333
7.55614
73.2814
11.9649
7.40615
7.41693
7.42243
7.42854
7.43586
7.44503
7.45597
7.46835
7.48172
7.49569
7.50965
7.52375
7.53788
7.5532
7.56948
7.58666
7.60026
7.60679
7.59635
7.56928
7.54159
7.53206
73.2329
11.9464
7.3994
7.40989
7.41541
7.42128
7.42819
7.43666
7.4467
7.45795
7.46997
7.48262
7.49542
7.5084
7.52117
7.53472
7.54899
7.56355
7.57434
7.5776
7.56436
7.5372
7.50873
7.50346
73.164
11.9231
7.38992
7.39975
7.40515
7.4107
7.41719
7.42493
7.43406
7.44416
7.45485
7.46605
7.47753
7.48927
7.50078
7.5123
7.52399
7.53512
7.54396
7.54682
7.53619
7.50844
7.46977
7.44092
73.0779
11.8952
7.3779
7.38667
7.3919
7.397
7.40302
7.40997
7.41819
7.4271
7.43649
7.44609
7.45603
7.46627
7.47661
7.48615
7.49559
7.50298
7.50835
7.50479
7.48347
7.43374
7.37768
7.35651
72.9788
11.8625
7.36417
7.37133
7.37634
7.38076
7.38614
7.39215
7.39947
7.40725
7.41534
7.42318
7.43139
7.43974
7.44869
7.45633
7.46317
7.46655
7.4663
7.45611
7.43058
7.38214
7.3009
7.35111
72.882
11.8248
7.35019
7.35533
7.36007
7.36347
7.36793
7.37274
7.37905
7.38562
7.39237
7.39846
7.40471
7.41075
7.41743
7.42288
7.42656
7.42725
7.42124
7.40688
7.36787
7.29818
7.08134
6.80539
72.8013
11.7789
7.33775
7.33911
7.3431
7.34544
7.34877
7.35217
7.35708
7.36237
7.36796
7.37269
7.37698
7.38059
7.38401
7.38681
7.38738
7.38497
7.3744
7.35444
7.3116
7.22672
7.09767
6.84132
72.743
11.7249
7.32555
7.32267
7.32486
7.32611
7.32809
7.32988
7.33313
7.33735
7.3421
7.34603
7.34866
7.34997
7.35014
7.35006
7.34744
7.34071
7.32671
7.30051
7.2612
7.17156
7.07024
6.87106
72.687
11.6617
7.31345
7.30392
7.3038
7.30432
7.30508
7.30546
7.30714
7.31043
7.31442
7.31776
7.31918
7.31882
7.31705
7.31383
7.30809
7.29685
7.27998
7.25022
7.21082
7.1395
7.05786
6.92049
72.5977
11.6214
7.29448
7.27855
7.27965
7.28056
7.28013
7.27907
7.27924
7.28156
7.2848
7.28717
7.28749
7.28601
7.28291
7.27738
7.26971
7.25555
7.23566
7.20493
7.16413
7.11058
7.03284
6.95333
72.4483
11.6004
7.26628
7.25697
7.25739
7.25712
7.25468
7.25168
7.25041
7.25128
7.25347
7.25491
7.25389
7.25056
7.2458
7.23893
7.23016
7.2153
7.19373
7.16289
7.12309
7.07703
7.01765
6.94907
72.2536
11.5792
7.22279
7.23262
7.2355
7.23312
7.22701
7.22191
7.22042
7.22085
7.22207
7.22171
7.21867
7.21289
7.20579
7.19742
7.18757
7.17288
7.15147
7.122
7.08467
7.04146
6.99184
6.93541
72.0577
11.541
7.19153
7.20708
7.20939
7.2034
7.19371
7.18859
7.18779
7.18934
7.19101
7.18945
7.18379
7.17472
7.1647
7.1543
7.14263
7.12721
7.10592
7.07801
7.0439
7.00437
6.95862
6.91211
71.8837
11.4945
7.16767
7.18218
7.1803
7.16903
7.15681
7.1519
7.15244
7.1558
7.15868
7.15732
7.15006
7.13834
7.12544
7.11226
7.09816
7.08088
7.05808
7.02993
6.99774
6.96196
6.92052
6.87652
71.7325
11.4563
7.15338
7.15564
7.14685
7.1301
7.1177
7.11434
7.11691
7.1218
7.12475
7.12238
7.11391
7.10184
7.08836
7.07411
7.05812
7.03775
7.01172
6.98108
6.9478
6.91303
6.87521
6.83304
71.5887
11.4387
7.13405
7.1251
7.11025
7.09068
7.08009
7.08003
7.08561
7.09057
7.09044
7.08364
7.07265
7.0611
7.04996
7.03816
7.02304
7.00139
6.97218
6.93688
6.89924
6.86191
6.82391
6.7816
71.441
11.4347
7.10774
7.09364
7.0708
7.05295
7.04768
7.05384
7.06202
7.06351
7.0559
7.04179
7.02753
7.01605
7.00728
6.99935
6.98853
6.96932
6.93946
6.90108
6.85874
6.81557
6.77268
6.72715
71.283
11.4385
7.07572
7.05455
7.02763
7.01863
7.02456
7.03778
7.04418
7.03729
7.01979
6.99927
6.98186
6.96982
6.96254
6.9577
6.95071
6.9345
6.90699
6.8701
6.82664
6.77968
6.73092
6.67832
71.1184
11.4448
7.03492
7.00504
6.98549
6.99354
7.01154
7.0255
7.02399
7.00766
6.98308
6.95884
6.93978
6.92778
6.92163
6.9178
6.91068
6.8938
6.86723
6.83381
6.79524
6.75177
6.7014
6.64308
70.9626
11.4329
6.98513
6.95781
6.95765
6.98043
7.00145
7.00719
6.99652
6.97281
6.94509
6.92106
6.90444
6.89561
6.89114
6.88505
6.87155
6.84842
6.81916
6.78771
6.75469
6.7186
6.67517
6.61986
70.8332
11.3815
6.92967
6.928
6.94664
6.9743
6.98537
6.98031
6.96047
6.93162
6.90446
6.88504
6.87593
6.87413
6.87224
6.86115
6.83649
6.80294
6.76714
6.73395
6.70357
6.67408
6.6396
6.59379
70.7318
11.3057
6.88819
6.92161
6.94818
6.96246
6.96092
6.94519
6.91569
6.88511
6.8621
6.85107
6.85248
6.85806
6.8578
6.84152
6.80742
6.76421
6.71978
6.68056
6.64824
6.62165
6.59329
6.55607
70.643
11.2104
6.87617
6.9248
6.94226
6.94334
6.93079
6.90199
6.86693
6.83841
6.82214
6.822
6.83221
6.8416
6.83912
6.81832
6.78101
6.73489
6.6855
6.63898
6.5999
6.57035
6.54349
6.51024
70.5471
11.1317
6.88324
6.92212
6.9275
6.91894
6.8935
6.85617
6.8227
6.80005
6.79363
6.80187
6.81397
6.81899
6.81006
6.78478
6.74876
6.7074
6.66248
6.61654
6.57324
6.53548
6.50065
6.46231
70.4319
11.0965
6.88902
6.90883
6.90344
6.88446
6.84971
6.81371
6.78792
6.77787
6.7815
6.7906
6.79511
6.78897
6.7694
6.7394
6.70572
6.67221
6.63935
6.60581
6.56853
6.52565
6.47585
6.42065
70.3021
11.1041
6.88222
6.88183
6.86712
6.83826
6.80349
6.77931
6.76883
6.7737
6.78322
6.78544
6.77551
6.75254
6.72031
6.68521
6.6527
6.62679
6.60839
6.59449
6.57234
6.53289
6.47256
6.39852
70.1711
11.1489
6.85994
6.84562
6.82087
6.78618
6.76127
6.75188
6.76174
6.77948
6.79018
6.78388
6.7574
6.71666
6.67243
6.63133
6.59804
6.57916
6.57484
6.57611
6.56778
6.53666
6.47652
6.39567
70.0529
11.2117
6.82955
6.80488
6.76856
6.74225
6.73014
6.74008
6.76341
6.78469
6.79141
6.77787
6.74034
6.68924
6.63555
6.58864
6.55676
6.54639
6.55006
6.55443
6.54829
6.5224
6.47133
6.3976
69.9526
11.2597
6.7968
6.76134
6.72496
6.71403
6.71882
6.7405
6.76503
6.77808
6.77815
6.75736
6.716
6.66539
6.61326
6.57094
6.54711
6.53767
6.53307
6.52744
6.51208
6.48223
6.43727
6.37857
69.8645
11.2709
6.76098
6.72425
6.70303
6.7078
6.72382
6.7448
6.75655
6.75729
6.74308
6.71221
6.67487
6.63864
6.60779
6.58359
6.56501
6.547
6.52517
6.49836
6.46438
6.4226
6.37697
6.3296
69.7899
11.2314
6.72135
6.70348
6.70208
6.72214
6.73975
6.7442
6.73877
6.72219
6.69136
6.65532
6.62188
6.60062
6.59878
6.60239
6.59634
6.57111
6.53049
6.47838
6.4201
6.36085
6.30823
6.26627
69.739
11.147
6.68025
6.69769
6.71978
6.74436
6.75243
6.74449
6.71681
6.67743
6.63747
6.60216
6.57915
6.58266
6.60119
6.61696
6.61838
6.59557
6.5421
6.46923
6.38874
6.31135
6.24934
6.21083
69.6992
11.0585
6.65665
6.70848
6.73601
6.75045
6.75255
6.73347
6.69444
6.64213
6.59758
6.56709
6.56416
6.57879
6.59958
6.61443
6.6173
6.60065
6.54801
6.4655
6.37303
6.28513
6.21996
6.1862
69.6667
11.0075
6.67183
6.71528
6.7322
6.73911
6.73227
6.70757
6.66975
6.62883
6.59529
6.5766
6.57362
6.581
6.5914
6.59572
6.58951
6.56585
6.52018
6.45345
6.37524
6.30327
6.24795
6.20491
69.6261
11.0283
6.69221
6.70924
6.71278
6.70602
6.68902
6.6671
6.64802
6.63278
6.61926
6.60926
6.60139
6.59295
6.58022
6.56146
6.53368
6.49786
6.46143
6.4298
6.39403
6.34955
6.30173
6.25081
69.5726
11.1067
6.70221
6.69559
6.68424
6.66565
6.64242
6.62687
6.62302
6.63205
6.64574
6.64996
6.63914
6.61404
6.57359
6.5206
6.46799
6.42658
6.40171
6.39383
6.39468
6.38906
6.35985
6.30385
69.5519
11.1704
6.70023
6.68296
6.65621
6.63083
6.61647
6.61283
6.6234
6.64836
6.67489
6.68751
6.67359
6.62417
6.5545
6.4815
6.42327
6.39217
6.39113
6.40227
6.41959
6.43007
6.4122
6.35204
5.85166
6.25284
6.38652
6.34179
6.22516
6.11925
6.06133
6.04802
6.60748
6.64362
6.51389
6.4039
6.25869
6.15049
6.08802
6.07057
6.70427
6.6266
6.50511
6.42686
6.30306
6.19463
6.11575
6.10819
6.8086
6.72069
6.61181
6.53855
6.40934
6.28565
6.17765
6.15138
6.86155
6.78715
6.68495
6.61213
6.48943
6.35813
6.24702
6.22163
6.88677
6.82374
6.74988
6.68512
6.58697
6.4644
6.33905
6.27906
6.88335
6.82428
6.76368
6.71232
6.63162
6.49898
6.33694
6.27396
6.86181
6.80858
6.75087
6.68707
6.60865
6.50598
6.31088
6.24281
6.82767
6.77401
6.71336
6.64491
6.5488
6.40622
6.01384
4.93521
6.78526
6.72969
6.66389
6.57275
6.45197
6.23424
5.81856
4.82882
6.7332
6.67401
6.60345
6.50264
6.35934
6.10387
5.69777
4.86781
6.67488
6.61062
6.533
6.42775
6.27531
6.03115
5.63958
4.97329
6.61798
6.54579
6.45806
6.34792
6.19484
5.9718
5.63327
5.11787
6.57396
6.49123
6.39105
6.27234
6.11826
5.91543
5.63951
5.25489
6.54678
6.45596
6.34472
6.21492
6.05744
5.86868
5.63971
5.34452
6.52776
6.43832
6.32299
6.18729
6.029
5.8462
5.64181
5.39886
6.49962
6.42067
6.31448
6.18416
6.03008
5.85045
5.65763
5.44202
6.45893
6.38894
6.29634
6.18153
6.0439
5.87932
5.69883
5.49611
6.41027
6.34348
6.26105
6.16455
6.05091
5.91301
5.75603
5.5738
6.35916
6.29039
6.21363
6.12888
6.03593
5.92418
5.79745
5.6473
6.31935
6.23954
6.16141
6.08209
6.00319
5.91237
5.81197
5.69248
6.30456
6.21062
6.12195
6.03849
5.96361
5.88637
5.80412
5.70766
6.30693
6.20587
6.10623
6.01454
5.93591
5.86033
5.78538
5.69808
6.30599
6.21982
6.12463
6.02739
5.93654
5.85011
5.76489
5.67409
6.27929
6.22277
6.15511
6.0694
5.97255
5.86809
5.75935
5.64989
6.23369
6.20313
6.16731
6.10992
6.02227
5.9066
5.77687
5.64374
6.1932
6.18205
6.16487
6.12563
6.053
5.9455
5.81087
5.6652
6.17137
6.1609
6.14523
6.10968
6.04822
5.95833
5.84022
5.70065
6.16895
6.13877
6.10801
6.06612
6.00852
5.93133
5.83611
5.7225
6.19703
6.13703
6.0746
6.01101
5.94337
5.87124
5.79892
5.72397
6.22983
6.14306
6.04955
5.9603
5.8804
5.8078
5.74536
5.69371
6.25605
6.14056
6.02059
5.9124
5.83453
5.78906
5.75316
5.71167
1.93348
0.996047
0.699408
0.718759
0.841982
1.14432
1.60474
2.00496
2.18408
2.36963
2.67586
2.93113
3.28556
3.65292
3.68878
3.74308
3.84227
3.97382
4.01871
4.00734
3.98163
3.95404
3.95631
3.97086
3.93041
3.85309
3.75828
3.68765
3.62549
3.56068
3.48977
3.419
3.36603
3.32628
3.3026
3.29632
3.29255
3.28076
3.26105
3.23511
3.20158
3.15841
3.09718
3.00068
2.87706
2.78176
2.72615
2.68958
2.65692
2.63409
2.62252
2.60813
2.62829
2.71199
2.92721
3.26892
3.58562
3.73195
3.62959
3.4739
3.38158
3.34811
3.3358
3.34483
3.36939
3.40203
3.4328
3.44027
3.42713
3.40443
3.36434
3.28827
3.18802
3.12906
3.10533
3.09133
3.08953
3.10749
3.12485
3.12393
3.11184
3.09548
3.0738
3.0364
2.97229
2.89818
2.86332
2.84138
2.8604
2.04203
1.66253
1.44908
1.39186
1.42171
1.51759
1.70863
2.00006
2.28734
2.64053
2.91086
3.25296
3.68953
3.81456
3.86347
3.92028
3.9795
4.01081
4.00008
3.9703
3.93883
3.92898
3.92741
3.89793
3.8567
3.81147
3.76903
3.72363
3.66755
3.60305
3.52954
3.45251
3.38898
3.3472
3.31898
3.29804
3.27641
3.24572
3.20562
3.16085
3.11385
3.06091
2.99641
2.93451
2.86784
2.78963
2.72055
2.67834
2.65316
2.63836
2.63552
2.66905
2.80347
2.97246
3.18752
3.43507
3.62284
3.61759
3.53897
3.45424
3.41231
3.38654
3.38045
3.39204
3.41093
3.42782
3.42285
3.40184
3.37425
3.33178
3.27308
3.22275
3.18289
3.14864
3.12756
3.11865
3.12519
3.13625
3.12819
3.11028
3.08817
3.05852
3.01777
2.96667
2.92241
2.89025
2.86054
3.64678
2.86173
2.41206
2.12725
1.91295
1.76184
1.71971
1.79222
1.97682
2.25224
2.54503
2.92486
3.29328
3.7981
4.06661
4.20694
4.20216
4.16572
4.14638
4.12139
4.08596
4.03885
3.98022
3.92468
3.88271
3.86283
3.85617
3.84052
3.80489
3.76103
3.71451
3.66838
3.61931
3.55667
3.47321
3.39141
3.33804
3.296
3.253
3.20624
3.15581
3.09799
3.03867
2.99875
2.97178
2.93855
2.89051
2.82093
2.74459
2.70269
2.68841
2.70923
2.79483
2.95485
3.0191
3.10395
3.25849
3.49985
3.62107
3.6174
3.55818
3.52005
3.49529
3.4768
3.46236
3.45054
3.44064
3.4278
3.401
3.36197
3.31345
3.27422
3.2557
3.23512
3.21017
3.19038
3.1795
3.17576
3.16669
3.14863
3.12756
3.09842
3.05694
3.00711
2.96846
2.94616
2.92481
2.89427
4.20266
3.57253
3.06005
2.75586
2.54139
2.32243
2.15696
2.11149
2.14394
2.22404
2.31626
2.58773
2.95417
3.47967
4.06755
4.42957
4.44633
4.35591
4.30377
4.27641
4.23727
4.18163
4.09994
4.02589
3.98424
3.9654
3.96599
3.95117
3.91795
3.87917
3.84134
3.80611
3.76266
3.70216
3.60903
3.49601
3.39841
3.32513
3.26797
3.21579
3.16166
3.10965
3.07147
3.04368
3.02289
2.99705
2.96345
2.92042
2.8613
2.7936
2.79606
2.85047
2.97733
3.08839
3.08181
3.10607
3.17492
3.36377
3.58069
3.67718
3.67785
3.65379
3.62749
3.59499
3.55222
3.5035
3.46033
3.4336
3.40575
3.37261
3.34405
3.32728
3.31522
3.30236
3.28906
3.27465
3.2575
3.2371
3.21382
3.18735
3.1532
3.11052
3.06363
3.0295
3.01101
2.99715
2.98386
2.95267
4.57782
4.10245
3.64696
3.2679
3.03178
2.83658
2.61829
2.44486
2.38399
2.36409
2.3848
2.41518
2.54294
2.894
3.6275
4.30118
4.53235
4.51313
4.45172
4.40436
4.35923
4.3017
4.22413
4.15307
4.10859
4.07969
4.05575
4.02208
3.9869
3.95115
3.90823
3.85968
3.80499
3.7368
3.64799
3.54896
3.4519
3.3584
3.27661
3.21312
3.16646
3.13343
3.11429
3.10598
3.09528
3.0737
3.04078
3.00398
2.9702
2.93562
2.96012
3.05345
3.16088
3.18019
3.13822
3.12739
3.15366
3.26474
3.47412
3.67248
3.77612
3.77605
3.74832
3.69684
3.62346
3.5376
3.46629
3.4259
3.40259
3.38654
3.37957
3.37915
3.37955
3.37965
3.37717
3.36402
3.33988
3.30426
3.25721
3.20842
3.15991
3.11219
3.08022
3.06291
3.05245
3.0506
3.04716
3.01567
4.85359
4.46011
4.09887
3.74456
3.44129
3.23948
3.06543
2.86015
2.69166
2.61842
2.57477
2.53383
2.51503
2.56982
2.88109
3.63369
4.34277
4.55329
4.53753
4.49612
4.43927
4.38368
4.32574
4.26058
4.18475
4.10341
4.03306
3.97836
3.93325
3.90205
3.87559
3.83097
3.7731
3.70294
3.63157
3.56582
3.49734
3.41585
3.32497
3.2505
3.20611
3.1779
3.16128
3.16728
3.16401
3.12758
3.08982
3.05723
3.05079
3.09075
3.17755
3.27689
3.29515
3.24466
3.19548
3.17167
3.17153
3.22988
3.36382
3.57113
3.74865
3.79001
3.77974
3.72993
3.64776
3.54191
3.46735
3.43616
3.41798
3.40896
3.41638
3.43704
3.45722
3.4675
3.45832
3.43491
3.39435
3.3288
3.26285
3.20564
3.15766
3.12755
3.11002
3.09686
3.09207
3.1005
3.10626
3.07403
5.03409
4.71242
4.40731
4.1153
3.83202
3.57823
3.39955
3.2419
3.05511
2.87237
2.77765
2.71647
2.63581
2.59898
2.62536
2.85495
3.61859
4.35634
4.5303
4.50795
4.45203
4.39274
4.34241
4.28909
4.21955
4.11975
4.00526
3.92257
3.86574
3.82073
3.78594
3.75576
3.71647
3.66946
3.62477
3.58469
3.53756
3.47768
3.4029
3.33187
3.28024
3.24519
3.21141
3.16763
3.12334
3.08005
3.05804
3.07066
3.13543
3.26341
3.38593
3.4034
3.37266
3.31583
3.27031
3.24438
3.23147
3.24535
3.30339
3.43187
3.62307
3.73691
3.75547
3.72177
3.64676
3.54685
3.48439
3.46351
3.45089
3.45217
3.47561
3.50661
3.51895
3.50526
3.48232
3.44991
3.39886
3.32545
3.24597
3.19038
3.16068
3.14354
3.13048
3.12562
3.13623
3.15317
3.15195
3.11729
5.1483
4.887
4.62228
4.37448
4.13738
3.9023
3.68477
3.52804
3.37969
3.19848
3.01654
2.9302
2.85546
2.75687
2.65783
2.67195
2.89644
3.68679
4.32408
4.46274
4.43173
4.37835
4.32315
4.26789
4.20532
4.12155
4.00909
3.91178
3.84482
3.78577
3.73519
3.69563
3.67363
3.67779
3.66782
3.63404
3.5914
3.5341
3.46737
3.39702
3.32772
3.26047
3.19144
3.12798
3.07112
3.03008
3.03201
3.09705
3.25063
3.41986
3.4767
3.46217
3.4315
3.39051
3.36073
3.33806
3.31457
3.28435
3.27096
3.31268
3.41296
3.55975
3.65742
3.67105
3.63395
3.56457
3.52461
3.50857
3.50415
3.516
3.52697
3.51981
3.50707
3.49678
3.47547
3.4404
3.38065
3.29543
3.22646
3.19111
3.17144
3.1572
3.1505
3.16076
3.18387
3.18731
3.1722
3.13368
5.22505
5.00439
4.78294
4.55855
4.35759
4.15633
3.95107
3.76567
3.62378
3.48339
3.31721
3.15437
3.04782
2.95019
2.83825
2.72762
2.73606
2.96241
3.71053
4.24388
4.36451
4.3453
4.29383
4.23976
4.1792
4.10525
4.02604
3.94151
3.85325
3.78081
3.72523
3.68138
3.64954
3.63093
3.61482
3.58943
3.55598
3.51918
3.46794
3.40141
3.3228
3.23829
3.1462
3.0634
3.00877
2.9998
3.04221
3.20832
3.37975
3.50247
3.52856
3.51379
3.49011
3.46679
3.44308
3.41194
3.35991
3.29538
3.24496
3.21887
3.23655
3.31676
3.46111
3.56596
3.60284
3.59186
3.58088
3.57201
3.56291
3.55196
3.53236
3.50328
3.48329
3.46464
3.43654
3.39308
3.33419
3.27501
3.23442
3.21287
3.19634
3.18734
3.1929
3.20865
3.20293
3.18392
3.15633
3.11904
5.29156
5.08945
4.8901
4.69397
4.50222
4.33449
4.16187
3.97869
3.82172
3.69802
3.56819
3.41402
3.25585
3.13777
3.03651
2.91493
2.79027
2.78834
3.01353
3.69222
4.1716
4.27454
4.2526
4.20261
4.14551
4.08567
4.03099
3.9645
3.88242
3.80121
3.73842
3.68713
3.63815
3.59642
3.56059
3.52912
3.49726
3.46259
3.42505
3.37439
3.29758
3.20336
3.10838
3.03359
3.01017
3.04365
3.19741
3.38423
3.49915
3.55129
3.58204
3.57868
3.55074
3.52056
3.48514
3.43526
3.36856
3.28806
3.2135
3.16252
3.15078
3.16688
3.26319
3.41503
3.53919
3.61194
3.62679
3.61527
3.58945
3.55532
3.51771
3.47508
3.43642
3.40227
3.36576
3.33099
3.30277
3.2773
3.26065
3.24844
3.24063
3.23998
3.23958
3.22618
3.20203
3.16952
3.12957
3.09502
5.37637
5.17283
4.97639
4.79049
4.61638
4.44726
4.29269
4.14485
3.99038
3.86145
3.75044
3.62457
3.4793
3.32782
3.20423
3.08986
2.96191
2.84221
2.83362
3.05101
3.69076
4.08594
4.17251
4.15527
4.11507
4.07055
4.02052
3.95824
3.88864
3.82057
3.75359
3.68558
3.61671
3.55086
3.49966
3.46059
3.42507
3.39053
3.35375
3.30986
3.24969
3.17159
3.09483
3.05295
3.0826
3.22653
3.41954
3.53094
3.57413
3.60449
3.60488
3.58252
3.55636
3.52752
3.48951
3.43639
3.35553
3.27012
3.20988
3.16219
3.1368
3.13364
3.16398
3.27621
3.4397
3.58687
3.62852
3.62375
3.59424
3.54928
3.49353
3.42647
3.36378
3.3285
3.30839
3.29397
3.28512
3.28605
3.29278
3.29794
3.29583
3.2809
3.25522
3.21843
3.17815
3.13459
3.08077
3.06656
5.47736
5.28458
5.07695
4.88128
4.70682
4.54317
4.38796
4.2452
4.11521
3.9892
3.88045
3.77393
3.65123
3.51301
3.37454
3.24953
3.12745
2.99548
2.87678
2.86511
3.08391
3.66251
4.01166
4.08601
4.05764
4.01605
3.97083
3.92442
3.87252
3.8143
3.75234
3.67882
3.59441
3.51126
3.44241
3.39473
3.35818
3.32219
3.28171
3.23334
3.17927
3.13282
3.11584
3.15024
3.2899
3.51247
3.60731
3.61903
3.60651
3.59804
3.5858
3.56278
3.53689
3.50663
3.46552
3.40552
3.33365
3.26906
3.21426
3.1716
3.14445
3.12887
3.1387
3.20216
3.3369
3.50284
3.58729
3.60289
3.58618
3.53822
3.45993
3.37026
3.32105
3.30211
3.28793
3.27837
3.28627
3.32004
3.34424
3.33831
3.31889
3.28962
3.24693
3.19508
3.13813
3.08402
3.0451
3.09998
5.55238
5.38925
5.20322
4.99976
4.79987
4.63074
4.47472
4.33488
4.20743
4.08093
3.96061
3.8631
3.76555
3.65075
3.52268
3.39732
3.27512
3.14358
3.01031
2.90409
2.89186
3.10038
3.62681
3.94455
3.99265
3.95488
3.91603
3.87677
3.83802
3.79332
3.73395
3.65972
3.57386
3.48716
3.41374
3.35493
3.31263
3.27051
3.22108
3.16985
3.13545
3.13212
3.19008
3.35093
3.58194
3.71258
3.70785
3.66367
3.6127
3.5763
3.55023
3.52716
3.50496
3.47174
3.42738
3.3778
3.32957
3.28436
3.24205
3.20865
3.18292
3.16269
3.16055
3.17932
3.24379
3.35673
3.46989
3.52515
3.5296
3.49471
3.42527
3.34859
3.30938
3.29375
3.28212
3.28603
3.32236
3.34452
3.33805
3.32345
3.30287
3.2714
3.21797
3.1478
3.0864
3.06186
3.08187
3.19842
5.59019
5.45182
5.29624
5.12676
4.93939
4.7393
4.56818
4.42196
4.28893
4.16529
4.03713
3.91611
3.82403
3.73508
3.62903
3.51102
3.396
3.27867
3.14888
3.01756
2.91794
2.90007
3.09708
3.59686
3.86147
3.88299
3.84688
3.81991
3.78814
3.74665
3.69907
3.63701
3.55545
3.46995
3.39654
3.33773
3.28318
3.22572
3.17254
3.13754
3.13591
3.17346
3.34792
3.6135
3.75042
3.76412
3.7352
3.67977
3.61315
3.55068
3.51622
3.49047
3.46976
3.44575
3.41231
3.37086
3.34105
3.32108
3.29895
3.27017
3.23761
3.20523
3.17202
3.15499
3.15805
3.19119
3.26181
3.3551
3.41834
3.42078
3.39695
3.34914
3.31971
3.30765
3.30658
3.32113
3.32598
3.31793
3.30741
3.29282
3.26901
3.23056
3.16573
3.09691
3.07667
3.10298
3.17436
3.31839
5.59781
5.47929
5.3461
5.20043
5.04965
4.8789
4.69166
4.51886
4.37795
4.2434
4.11109
3.98048
3.86203
3.7703
3.68165
3.58383
3.48029
3.37963
3.2699
3.14042
3.00252
2.90657
2.88819
3.07812
3.53009
3.7428
3.7791
3.76368
3.73146
3.68995
3.64651
3.59335
3.52422
3.45689
3.39652
3.33178
3.25967
3.18176
3.13797
3.13153
3.15487
3.30434
3.59021
3.77077
3.79294
3.77222
3.73078
3.67677
3.60831
3.55015
3.51462
3.48731
3.46166
3.43929
3.41541
3.39428
3.38481
3.37115
3.34748
3.31009
3.25553
3.20477
3.16308
3.12702
3.0956
3.07424
3.09108
3.15882
3.26794
3.34151
3.36941
3.36413
3.35822
3.36007
3.36026
3.34751
3.32234
3.29345
3.271
3.24634
3.21241
3.1647
3.11435
3.08944
3.10847
3.18196
3.29265
3.421
5.57697
5.47431
5.36135
5.23445
5.10698
4.97513
4.81722
4.64447
4.47539
4.32997
4.18984
4.04853
3.91541
3.80471
3.71625
3.62823
3.53391
3.43867
3.34509
3.2398
3.10744
2.96958
2.88266
2.86268
3.04165
3.42685
3.65591
3.70702
3.67083
3.62714
3.58403
3.54026
3.49575
3.44918
3.39187
3.31613
3.21922
3.14624
3.12499
3.13816
3.26661
3.5347
3.76465
3.81467
3.78879
3.75015
3.7074
3.66498
3.61616
3.56487
3.52268
3.49195
3.46675
3.44966
3.44575
3.4429
3.42407
3.39582
3.35745
3.30536
3.24865
3.19719
3.15064
3.1063
3.06274
3.027
3.022
3.04363
3.1337
3.24793
3.33546
3.39002
3.41284
3.41025
3.39143
3.36133
3.31955
3.27187
3.22835
3.18523
3.13973
3.1039
3.09678
3.114
3.18873
3.29966
3.4134
3.49025
5.5444
5.4462
5.34443
5.23883
5.133
5.02653
4.90098
4.7511
4.59052
4.42493
4.26751
4.12069
3.97782
3.8534
3.75192
3.6648
3.57749
3.4853
3.39042
3.29543
3.1919
3.06395
2.9336
2.85008
2.82854
2.99003
3.34033
3.57836
3.61058
3.56916
3.52043
3.48284
3.4538
3.42213
3.37107
3.28617
3.18658
3.12886
3.13235
3.23235
3.51184
3.74307
3.81945
3.80289
3.77139
3.73537
3.69853
3.66144
3.62706
3.59415
3.55561
3.51767
3.49146
3.47507
3.46213
3.43964
3.41383
3.38322
3.34102
3.28792
3.23758
3.1942
3.15044
3.10308
3.054
3.01477
2.99936
3.00426
3.04656
3.15271
3.26721
3.37276
3.4117
3.40925
3.39084
3.35636
3.30842
3.24211
3.17276
3.12458
3.10188
3.09839
3.11157
3.18111
3.30919
3.42348
3.50268
3.51625
5.52152
5.41349
5.31558
5.22264
5.13436
5.04828
4.9467
4.81745
4.6732
4.52024
4.35576
4.18891
4.03966
3.909
3.79704
3.70123
3.61106
3.51865
3.42489
3.32947
3.23286
3.12977
3.00708
2.88742
2.80351
2.78608
2.93388
3.26406
3.49115
3.51358
3.47217
3.4296
3.39173
3.35209
3.29928
3.23098
3.16681
3.14282
3.2195
3.47807
3.75421
3.82651
3.8129
3.78932
3.76004
3.72884
3.69974
3.67291
3.65016
3.62702
3.59672
3.55497
3.50801
3.47363
3.4472
3.41983
3.38999
3.35363
3.30948
3.26757
3.23229
3.196
3.15572
3.10925
3.05776
3.02219
3.00226
2.99492
3.01217
3.07472
3.16835
3.28882
3.35756
3.36879
3.36076
3.32789
3.27148
3.20013
3.14295
3.11306
3.10651
3.12306
3.19417
3.32174
3.45406
3.52591
3.5323
3.50408
5.5234
5.3988
5.29456
5.20465
5.12536
5.04859
4.96142
4.85173
4.71934
4.57483
4.42203
4.25867
4.10182
3.96636
3.84656
3.73904
3.64117
3.54589
3.45048
3.35688
3.26486
3.16907
3.0615
2.93763
2.82564
2.75754
2.74638
2.8835
3.18692
3.3974
3.42452
3.38045
3.32954
3.27604
3.21626
3.18031
3.16303
3.22159
3.46419
3.76027
3.84147
3.84301
3.81732
3.78915
3.7642
3.73761
3.71446
3.69332
3.66921
3.64325
3.61141
3.56808
3.51401
3.46284
3.42108
3.3865
3.35192
3.31683
3.28477
3.25596
3.22761
3.20071
3.17128
3.13382
3.09194
3.0596
3.03706
3.01755
3.00319
3.01549
3.05435
3.13756
3.22731
3.27927
3.28586
3.26452
3.2198
3.16812
3.13595
3.13229
3.1535
3.22757
3.35759
3.49087
3.56737
3.57258
3.55097
3.48646
5.55418
5.41347
5.2907
5.19826
5.12152
5.04061
4.95113
4.85298
4.7369
4.60355
4.45893
4.3108
4.16308
4.02657
3.90004
3.78112
3.67148
3.57046
3.47437
3.37934
3.2841
3.18765
3.08896
2.98084
2.86563
2.76678
2.714
2.70884
2.83522
3.10463
3.30654
3.31484
3.26659
3.2018
3.14656
3.15096
3.20951
3.45509
3.75062
3.89403
3.89054
3.86056
3.82615
3.79928
3.77018
3.74135
3.71354
3.68711
3.66054
3.63413
3.60445
3.56543
3.51508
3.45692
3.40134
3.35609
3.32136
3.29343
3.27086
3.25209
3.23585
3.21673
3.19473
3.16901
3.13536
3.09462
3.05435
3.01757
2.9884
2.96295
2.95564
2.97728
3.03816
3.11548
3.17445
3.19303
3.17342
3.14789
3.144
3.17248
3.25338
3.38243
3.50977
3.60232
3.61379
3.59828
3.56282
3.46197
5.59225
5.46397
5.34758
5.23807
5.13491
5.03508
4.93141
4.82854
4.7218
4.60607
4.47715
4.33997
4.20542
4.0783
3.95463
3.83158
3.71092
3.59589
3.48972
3.39071
3.29569
3.20207
3.10591
3.00579
2.90094
2.79946
2.71743
2.66939
2.66172
2.7708
3.00626
3.17857
3.18966
3.14189
3.12911
3.17924
3.40827
3.75697
3.90732
3.92901
3.90843
3.87687
3.84168
3.79695
3.76106
3.7324
3.70446
3.67742
3.64983
3.62169
3.59194
3.55797
3.51484
3.46061
3.40179
3.35137
3.31449
3.28879
3.26958
3.26451
3.26076
3.24324
3.22024
3.19094
3.14738
3.09461
3.04937
3.01092
2.97473
2.94364
2.91667
2.89871
2.91414
2.97013
3.05374
3.13237
3.13898
3.15071
3.18792
3.26389
3.38399
3.50471
3.58414
3.6245
3.62201
3.59815
3.55207
3.43815
5.63323
5.52154
5.40743
5.29362
5.17021
5.04129
4.92208
4.80959
4.69424
4.58491
4.4789
4.35825
4.23836
4.12064
4.00209
3.879
3.75068
3.62183
3.50277
3.396
3.29614
3.20027
3.10825
3.01985
2.93134
2.83696
2.7457
2.66475
2.61193
2.59359
2.67491
2.88556
3.04687
3.07827
3.15529
3.36987
3.70247
3.92191
3.97769
3.95517
3.92041
3.88462
3.83781
3.78301
3.74706
3.71962
3.69429
3.66851
3.64038
3.6109
3.57997
3.54752
3.5126
3.46877
3.41528
3.36426
3.32994
3.3051
3.284
3.26377
3.24347
3.22196
3.19834
3.16992
3.13294
3.0875
3.04189
3.00301
2.96788
2.93531
2.90568
2.88034
2.87783
2.89743
2.95763
3.05204
3.11539
3.17459
3.25896
3.36505
3.48716
3.57065
3.60792
3.61251
3.5924
3.5575
3.51145
3.43691
5.63782
5.56352
5.46065
5.33937
5.2038
5.06299
4.92634
4.79311
4.66764
4.55789
4.46782
4.37436
4.2617
4.14856
4.03342
3.91222
3.782
3.64686
3.51647
3.39846
3.29341
3.19724
3.10725
3.02389
2.94549
2.86587
2.77955
2.68896
2.59594
2.52587
2.49498
2.58833
2.80283
3.02978
3.31907
3.65261
3.88765
3.97494
3.97823
3.95444
3.91947
3.88281
3.82934
3.77034
3.73615
3.70995
3.68712
3.66278
3.63466
3.60455
3.57299
3.54082
3.50679
3.47193
3.43666
3.40027
3.36465
3.33249
3.30189
3.27172
3.24072
3.20894
3.17659
3.14387
3.11085
3.07471
3.03355
2.99494
2.96292
2.93088
2.89811
2.87686
2.86565
2.87537
2.91369
2.98742
3.0936
3.21453
3.34707
3.46284
3.55676
3.58975
3.57849
3.55359
3.52077
3.48995
3.46319
3.4313
5.6691
5.61015
5.51015
5.37636
5.23201
5.0767
4.91687
4.77012
4.64475
4.54261
4.46467
4.38497
4.27819
4.1679
4.05491
3.93668
3.80787
3.66466
3.52004
3.39452
3.28751
3.19152
3.10319
3.02344
2.95107
2.88149
2.8043
2.71338
2.61042
2.49629
2.42039
2.43525
2.57591
2.97244
3.46803
3.8699
4.06335
4.03299
3.99333
3.96037
3.92485
3.88504
3.82333
3.76055
3.72916
3.70455
3.68386
3.66101
3.63322
3.60189
3.56686
3.53407
3.50894
3.48819
3.46421
3.42986
3.38477
3.33913
3.29954
3.26204
3.22417
3.18749
3.1545
3.12404
3.0944
3.06263
3.02454
2.98434
2.95284
2.92668
2.90432
2.8849
2.86929
2.86649
2.89229
2.94928
3.07832
3.26246
3.4244
3.54673
3.60769
3.59572
3.55752
3.50989
3.47313
3.44811
3.43338
3.42682
)
;

boundaryField
{
    inlet
    {
        type            calculated;
        value           uniform 1.40001;
    }
    outlet
    {
        type            calculated;
        value           nonuniform List<scalar> 
24
(
2.84081
2.86022
2.89379
2.95207
3.01463
3.07249
3.11604
3.13363
3.12026
3.09822
3.06849
3.10042
3.1984
3.31661
3.41726
3.48682
3.51503
3.50415
3.48896
3.46699
3.44357
3.43896
3.43038
3.42246
)
;
    }
    bottom
    {
        type            calculated;
        value           nonuniform List<scalar> 
24
(
73.3416
11.9924
7.41392
7.42454
7.4297
7.43603
7.44407
7.45457
7.46736
7.48222
7.49828
7.51466
7.53076
7.54725
7.56466
7.58356
7.60257
7.62088
7.63442
7.64085
7.63232
7.6102
7.58813
7.58322
)
;
    }
    top
    {
        type            calculated;
        value           nonuniform List<scalar> 
120
(
69.5519
11.1704
6.70023
6.68296
6.65621
6.63083
6.61647
6.61283
6.6234
6.64836
6.67489
6.68751
6.67359
6.62417
6.5545
6.4815
6.42327
6.39217
6.39113
6.40227
6.41959
6.43007
6.4122
6.35204
6.25605
6.14056
6.02059
5.9124
5.83453
5.78906
5.75316
5.71167
5.6691
5.61015
5.51015
5.37636
5.23201
5.0767
4.91687
4.77012
4.64475
4.54261
4.46467
4.38497
4.27819
4.1679
4.05491
3.93668
3.80787
3.66466
3.52004
3.39452
3.28751
3.19152
3.10319
3.02344
2.95107
2.88149
2.8043
2.71338
2.61042
2.49629
2.42039
2.43525
2.57591
2.97244
3.46803
3.8699
4.06335
4.03299
3.99333
3.96037
3.92485
3.88504
3.82333
3.76055
3.72916
3.70455
3.68386
3.66101
3.63322
3.60189
3.56686
3.53407
3.50894
3.48819
3.46421
3.42986
3.38477
3.33913
3.29954
3.26204
3.22417
3.18749
3.1545
3.12404
3.0944
3.06263
3.02454
2.98434
2.95284
2.92668
2.90432
2.8849
2.86929
2.86649
2.89229
2.94928
3.07832
3.26246
3.4244
3.54673
3.60769
3.59572
3.55752
3.50989
3.47313
3.44811
3.43338
3.42682
)
;
    }
    obstacle
    {
        type            calculated;
        value           nonuniform List<scalar> 
112
(
7.58322
7.56986
7.55614
7.53206
7.50346
7.44092
7.35651
7.35111
5.85166
6.25284
6.38652
6.34179
6.22516
6.11925
6.06133
6.04802
6.04802
6.07057
6.10819
6.15138
6.22163
6.27906
6.27396
6.24281
1.93348
0.996047
0.699408
0.718759
0.841982
1.14432
1.60474
2.00496
2.18408
2.36963
2.67586
2.93113
3.28556
3.65292
3.68878
3.74308
3.84227
3.97382
4.01871
4.00734
3.98163
3.95404
3.95631
3.97086
3.93041
3.85309
3.75828
3.68765
3.62549
3.56068
3.48977
3.419
3.36603
3.32628
3.3026
3.29632
3.29255
3.28076
3.26105
3.23511
3.20158
3.15841
3.09718
3.00068
2.87706
2.78176
2.72615
2.68958
2.65692
2.63409
2.62252
2.60813
2.62829
2.71199
2.92721
3.26892
3.58562
3.73195
3.62959
3.4739
3.38158
3.34811
3.3358
3.34483
3.36939
3.40203
3.4328
3.44027
3.42713
3.40443
3.36434
3.28827
3.18802
3.12906
3.10533
3.09133
3.08953
3.10749
3.12485
3.12393
3.11184
3.09548
3.0738
3.0364
2.97229
2.89818
2.86332
2.84138
)
;
    }
    defaultFaces
    {
        type            empty;
    }
}


// ************************************************************************* //
