/*--------------------------------*- C++ -*----------------------------------*\
  =========                 |
  \\      /  F ield         | OpenFOAM: The Open Source CFD Toolbox
   \\    /   O peration     | Website:  https://openfoam.org
    \\  /    A nd           | Version:  7
     \\/     M anipulation  |
\*---------------------------------------------------------------------------*/
FoamFile
{
    version     2.0;
    format      ascii;
    class       volScalarField;
    location    "8";
    object      T;
}
// * * * * * * * * * * * * * * * * * * * * * * * * * * * * * * * * * * * * * //

dimensions      [0 0 0 1 0 0 0];

internalField   nonuniform List<scalar> 
3328
(
3.76362
2.74005
2.51151
2.51372
2.51586
2.51832
2.52106
2.52417
2.52761
2.5314
2.53542
2.5396
2.5439
2.54845
2.55329
2.55838
2.56341
2.56861
2.57466
2.5832
2.59551
2.61169
2.62605
2.6326
3.76369
2.73997
2.51151
2.51375
2.51591
2.51837
2.5211
2.52416
2.52755
2.53124
2.53517
2.53926
2.54347
2.54793
2.55266
2.55764
2.56261
2.5678
2.57385
2.58234
2.59445
2.61031
2.62438
2.63068
3.76426
2.73989
2.51174
2.51399
2.51614
2.51855
2.52121
2.52419
2.52746
2.53101
2.53478
2.53872
2.54278
2.54705
2.55155
2.55632
2.56113
2.56619
2.57208
2.5804
2.59233
2.60804
2.62211
2.62843
3.76553
2.74024
2.51234
2.51457
2.51668
2.51901
2.52156
2.5244
2.52751
2.53087
2.53441
2.53812
2.54194
2.54594
2.55012
2.55457
2.55913
2.56401
2.56973
2.57779
2.5893
2.60449
2.61819
2.62427
3.76768
2.74111
2.51341
2.51557
2.51759
2.51977
2.52216
2.5248
2.52771
2.53083
2.53409
2.5375
2.54102
2.5447
2.5485
2.55252
2.55665
2.561
2.5661
2.57317
2.5835
2.59838
2.61239
2.61949
3.77067
2.74249
2.51493
2.51695
2.51885
2.52084
2.52301
2.52542
2.52808
2.5309
2.53385
2.53691
2.54007
2.54337
2.54676
2.55024
2.55379
2.55747
2.56194
2.5682
2.57768
2.59184
2.60606
2.61285
3.77429
2.74418
2.51674
2.51856
2.52031
2.52209
2.52405
2.52621
2.5286
2.53109
2.53368
2.53633
2.5391
2.54196
2.5449
2.54781
2.55078
2.55376
2.55733
2.56164
2.568
2.57885
2.59448
2.60819
3.77811
2.74578
2.51853
2.52006
2.52167
2.52327
2.52506
2.527
2.52913
2.53131
2.53353
2.53578
2.53812
2.54049
2.54295
2.54527
2.54764
2.5499
2.55208
2.55421
2.55875
2.57058
2.59038
2.62311
3.78169
2.74674
2.51998
2.52118
2.5227
2.52419
2.5259
2.52765
2.52955
2.53145
2.5334
2.53528
2.53718
2.53904
2.54095
2.54273
2.5445
2.54594
2.5465
2.5473
2.549
2.55469
2.55349
2.56197
3.7847
2.74673
2.52102
2.5218
2.52331
2.52477
2.52641
2.52799
2.52972
2.53144
2.53317
2.53475
2.53626
2.53767
2.53902
2.5403
2.54134
2.54182
2.54123
2.54026
2.53888
2.53765
2.54092
2.54425
3.7873
2.74577
2.52167
2.52232
2.52371
2.52511
2.52663
2.52805
2.52959
2.53114
2.53266
2.53404
2.53527
2.53635
2.53725
2.53796
2.53817
2.53781
2.53651
2.53374
2.52995
2.52365
2.52522
2.52388
3.79003
2.74429
2.52244
2.52314
2.52423
2.52545
2.52674
2.52796
2.52921
2.53052
2.53182
2.53307
2.53414
2.53496
2.5354
2.53554
2.53531
2.53428
2.5324
2.52856
2.52323
2.51604
2.51376
2.51079
3.79368
2.74463
2.52372
2.52385
2.52476
2.52601
2.52706
2.52792
2.52883
2.5299
2.53093
2.53197
2.5328
2.53323
2.53335
2.53312
2.53261
2.53119
2.52884
2.52471
2.51876
2.51154
2.50417
2.50292
3.79916
2.74803
2.52603
2.52562
2.52647
2.52756
2.52814
2.52846
2.52895
2.52963
2.53046
2.53115
2.53147
2.53141
2.53116
2.53059
2.52978
2.52816
2.52556
2.52145
2.51568
2.50867
2.50094
2.49591
3.80634
2.75466
2.5272
2.52869
2.53005
2.53044
2.53028
2.52987
2.52981
2.53008
2.53059
2.53083
2.53068
2.53007
2.52918
2.52808
2.52682
2.52495
2.5222
2.51825
2.51296
2.50637
2.49869
2.49177
3.81387
2.76001
2.53073
2.53328
2.5344
2.53405
2.53288
2.53192
2.53147
2.53142
2.53147
2.53133
2.53075
2.52952
2.52793
2.52613
2.52418
2.52181
2.5187
2.51473
2.50982
2.50389
2.49673
2.4897
3.82075
2.76378
2.53523
2.53838
2.53885
2.53755
2.53564
2.53443
2.53382
2.53361
2.53338
2.5328
2.53156
2.5298
2.52766
2.52529
2.52265
2.51951
2.51568
2.51123
2.50621
2.50066
2.49417
2.4872
3.82685
2.76635
2.54093
2.54324
2.54263
2.54036
2.53817
2.53708
2.53666
2.53648
2.53611
2.53498
2.53306
2.53068
2.5281
2.52544
2.52245
2.51875
2.51414
2.50873
2.50292
2.49703
2.49075
2.48389
3.83267
2.76986
2.54621
2.54679
2.54524
2.54233
2.54047
2.53988
2.53994
2.53992
2.53924
2.53731
2.53471
2.53188
2.52905
2.52623
2.52317
2.51937
2.51439
2.50813
2.50127
2.49431
2.48732
2.47996
3.83865
2.77523
2.55016
2.54923
2.5465
2.54377
2.54271
2.54321
2.54402
2.54395
2.5423
2.53941
2.53622
2.53315
2.53029
2.52756
2.52468
2.5209
2.51568
2.50909
2.50167
2.49372
2.48554
2.4769
3.84487
2.78203
2.55303
2.55047
2.54674
2.54516
2.5458
2.54776
2.54885
2.5479
2.54498
2.54124
2.53763
2.53449
2.53178
2.52929
2.5266
2.52284
2.51756
2.51084
2.50311
2.49486
2.48614
2.47635
3.85116
2.78973
2.5547
2.55021
2.5469
2.5477
2.55047
2.55297
2.55322
2.55099
2.5471
2.54291
2.5392
2.53623
2.53384
2.53156
2.52876
2.52464
2.51907
2.51236
2.5049
2.4969
2.48809
2.47807
3.85729
2.79672
2.55517
2.54986
2.549
2.55224
2.5559
2.55741
2.55626
2.55288
2.54851
2.54439
2.54115
2.53888
2.53707
2.53482
2.53132
2.52625
2.51998
2.51314
2.50604
2.49868
2.49059
2.4811
3.8631
2.80064
2.55446
2.55154
2.5536
2.55838
2.56078
2.56055
2.55796
2.55364
2.54924
2.54575
2.54368
2.54269
2.54174
2.53932
2.53468
2.52823
2.52092
2.5136
2.50654
2.49972
2.49247
2.48402
3.8686
2.8016
2.55314
2.55629
2.56102
2.56418
2.56458
2.56276
2.55856
2.55373
2.54971
2.54732
2.54683
2.54712
2.54693
2.5443
2.53873
2.53121
2.52287
2.51476
2.50725
2.50045
2.49364
2.48603
3.87384
2.80016
2.55603
2.56384
2.56785
2.56887
2.56767
2.56395
2.55865
2.5538
2.55051
2.54946
2.55024
2.55129
2.55107
2.54806
2.54234
2.53478
2.52618
2.51744
2.50914
2.50175
2.4948
2.48743
3.87881
2.79829
2.56291
2.57054
2.57279
2.57227
2.5694
2.56426
2.55887
2.55464
2.5524
2.55257
2.55377
2.55443
2.55319
2.54948
2.54399
2.53738
2.52977
2.52154
2.51313
2.50521
2.49748
2.48929
3.88368
2.79893
2.57004
2.57528
2.57564
2.57385
2.56946
2.56402
2.5594
2.55664
2.55621
2.55701
2.55755
2.55669
2.55379
2.5492
2.54376
2.53815
2.53239
2.52632
2.5195
2.51193
2.50323
2.49318
3.88864
2.80312
2.57568
2.5781
2.57685
2.57341
2.56836
2.56409
2.56142
2.56128
2.56249
2.56318
2.56204
2.55879
2.55396
2.54834
2.54268
2.53767
2.5338
2.53084
2.52735
2.52143
2.51206
2.50003
3.89376
2.81056
2.57981
2.57935
2.57649
2.5716
2.56735
2.56468
2.56517
2.56795
2.57029
2.57028
2.56723
2.56142
2.55447
2.5476
2.54143
2.53675
2.53441
2.53395
2.53303
2.52935
2.52106
2.50844
3.89895
2.81967
2.58282
2.57967
2.57472
2.56998
2.56684
2.56723
2.57038
2.57426
2.57642
2.57569
2.57142
2.56422
2.55576
2.54739
2.54039
2.5365
2.53566
2.5358
2.53508
2.53206
2.52541
2.51483
3.90388
2.82836
2.58431
2.57889
2.57257
2.56933
2.56895
2.57163
2.57566
2.57835
2.57928
2.57784
2.57284
2.56546
2.55696
2.5488
2.54296
2.54009
2.5388
2.53749
2.53518
2.53102
2.52436
2.51568
3.90805
2.8345
2.58423
2.57727
2.57245
2.57209
2.57406
2.57744
2.57995
2.58096
2.58009
2.5767
2.57121
2.56521
2.55955
2.55504
2.55169
2.54851
2.54497
2.54075
2.53563
2.52914
2.52168
2.51358
3.91142
2.8377
2.58271
2.57686
2.57565
2.57864
2.58205
2.58378
2.58374
2.58257
2.57926
2.57396
2.5684
2.56401
2.56225
2.56271
2.56265
2.56
2.55423
2.54652
2.53757
2.52787
2.51859
2.51063
3.91417
2.83719
2.57917
2.57901
2.58173
2.58702
2.58977
2.58984
2.58734
2.58238
2.57654
2.57065
2.5658
2.56415
2.56656
2.56981
2.5714
2.56991
2.56354
2.55296
2.54064
2.52794
2.51636
2.50786
3.91642
2.83537
2.57668
2.58291
2.58837
2.59206
2.59371
2.59295
2.58871
2.58169
2.57353
2.56745
2.56462
2.56599
2.56933
2.57247
2.57413
2.57344
2.56826
2.55716
2.5429
2.52813
2.51525
2.50692
3.91878
2.83305
2.57936
2.58739
2.59165
2.59374
2.59416
2.59232
2.58775
2.58128
2.57489
2.57063
2.56912
2.56976
2.57126
2.57257
2.57274
2.57102
2.56592
2.55725
2.54528
2.53247
2.52197
2.51394
3.92165
2.83434
2.5863
2.59084
2.59255
2.59296
2.59155
2.58857
2.58537
2.58277
2.5808
2.57904
2.57766
2.57644
2.57478
2.57255
2.56946
2.56489
2.5594
2.55416
2.54883
2.54211
2.5345
2.52634
3.92403
2.83899
2.59321
2.59329
2.59224
2.59013
2.58677
2.58377
2.58229
2.58303
2.58534
2.58714
2.58671
2.58398
2.57911
2.57184
2.56356
2.55625
2.5512
2.54875
2.54838
2.54846
2.54583
2.53872
3.9252
2.8425
2.59601
2.59392
2.59014
2.5856
2.58272
2.58129
2.5821
2.5853
2.58989
2.5933
2.59372
2.58885
2.57955
2.56791
2.55749
2.55018
2.54821
2.5495
2.55227
2.5549
2.55455
2.54828
2.47085
2.54604
2.60408
2.65865
2.71672
2.76971
2.80238
2.81383
2.56552
2.60026
2.61603
2.65899
2.71413
2.76832
2.80054
2.81056
2.54035
2.57135
2.59587
2.6407
2.69586
2.75186
2.78367
2.79612
2.52055
2.54523
2.57365
2.61734
2.66838
2.72412
2.75734
2.76909
2.50517
2.5182
2.53877
2.576
2.62298
2.67948
2.72022
2.73649
2.49634
2.50083
2.51221
2.53742
2.57685
2.63475
2.6878
2.70701
2.48952
2.48932
2.49282
2.50624
2.53261
2.58112
2.64581
2.68953
2.48361
2.47976
2.47866
2.4812
2.49287
2.52892
2.60095
2.70147
2.47987
2.47284
2.46679
2.46292
2.46102
2.46764
2.47506
2.45264
2.47638
2.46802
2.45882
2.44719
2.43392
2.4131
2.38207
2.28652
2.47194
2.46255
2.45169
2.43664
2.41605
2.38107
2.32995
2.20875
2.46749
2.45671
2.44415
2.42749
2.40375
2.36674
2.30826
2.2073
2.46512
2.45219
2.43714
2.41891
2.3941
2.35878
2.30599
2.22168
2.46603
2.45126
2.43353
2.41296
2.38704
2.35376
2.30845
2.24303
2.46895
2.45372
2.43483
2.41234
2.38515
2.35277
2.31303
2.26161
2.47291
2.4583
2.43924
2.41644
2.38915
2.35674
2.32014
2.27688
2.47604
2.46289
2.44533
2.42355
2.39717
2.36565
2.33142
2.29264
2.47789
2.46575
2.45002
2.43061
2.40703
2.37883
2.34786
2.31221
2.47927
2.46709
2.45235
2.43531
2.41569
2.39185
2.36543
2.33462
2.48157
2.46837
2.45375
2.43794
2.42134
2.40208
2.38014
2.35437
2.48625
2.47125
2.45587
2.44019
2.42497
2.40879
2.39136
2.37031
2.49319
2.47675
2.46027
2.44384
2.42848
2.41332
2.39856
2.38206
2.50049
2.48367
2.46613
2.44867
2.43287
2.41794
2.40362
2.38867
2.50482
2.49111
2.47524
2.45811
2.44146
2.42523
2.40957
2.3933
2.50526
2.49626
2.48554
2.4721
2.45618
2.43821
2.41929
2.39995
2.5043
2.4989
2.49318
2.48464
2.47179
2.45407
2.43286
2.40975
2.50286
2.5
2.49747
2.49259
2.48325
2.46781
2.44664
2.42208
2.50297
2.50061
2.49818
2.49407
2.48639
2.47386
2.45649
2.43417
2.50759
2.50224
2.49747
2.49155
2.4834
2.47254
2.45878
2.44121
2.51775
2.50839
2.49844
2.48842
2.47804
2.46668
2.4544
2.44206
2.52796
2.51484
2.50008
2.48507
2.47126
2.45858
2.44705
2.43746
2.53547
2.51809
2.4987
2.47936
2.46345
2.45333
2.44708
2.44082
1.806
1.37331
1.3715
1.45065
1.56534
1.67019
1.79726
1.89021
1.9807
2.10559
2.21842
2.22541
2.25431
2.33143
2.35197
2.37493
2.38076
2.3776
2.36903
2.36103
2.36086
2.36446
2.35992
2.34402
2.32827
2.31216
2.29699
2.27952
2.25926
2.23477
2.20894
2.18725
2.17106
2.15842
2.14885
2.14232
2.13756
2.13384
2.13008
2.12519
2.11788
2.10703
2.09383
2.07651
2.04975
2.01666
1.99102
1.97426
1.9618
1.9509
1.94301
1.93843
1.94512
1.96874
2.03058
2.12812
2.22547
2.26348
2.24514
2.20712
2.17355
2.1595
2.15383
2.15122
2.15333
2.15877
2.16675
2.1739
2.17421
2.17044
2.16427
2.15317
2.13349
2.11086
2.09865
2.09341
2.09005
2.08923
2.09285
2.09627
2.09527
2.09142
2.08684
2.08074
2.07005
2.05187
2.03864
2.03163
1.96433
1.75232
1.63015
1.61031
1.60788
1.58905
1.60835
1.6693
1.76413
1.88245
2.0153
2.08412
2.16224
2.27508
2.30709
2.32646
2.33837
2.33939
2.335
2.32599
2.3183
2.31228
2.30466
2.2952
2.28556
2.27603
2.26643
2.2548
2.24128
2.22738
2.21202
2.19419
2.17449
2.15597
2.14184
2.13133
2.12311
2.11689
2.11082
2.10234
2.09109
2.07877
2.06607
2.052
2.03539
2.01894
2.00006
1.97781
1.95839
1.94633
1.93904
1.93666
1.9466
1.98484
2.03682
2.09874
2.16998
2.21518
2.21534
2.20008
2.17935
2.16465
2.15641
2.15106
2.14957
2.15167
2.15583
2.15944
2.15685
2.15209
2.14545
2.13476
2.12111
2.11071
2.1021
2.0944
2.08955
2.08711
2.08809
2.08987
2.08694
2.08211
2.07667
2.06942
2.05912
2.04664
2.03793
2.02988
2.01026
1.88101
1.76095
1.67329
1.62836
1.59559
1.55466
1.56978
1.62708
1.68444
1.76325
1.87721
1.98637
2.14692
2.22393
2.25533
2.25608
2.26202
2.26524
2.26313
2.25504
2.2376
2.22016
2.21026
2.20455
2.20127
2.19666
2.18924
2.18155
2.17539
2.16908
2.16152
2.15264
2.13957
2.12254
2.10481
2.08945
2.07742
2.06698
2.05602
2.04478
2.03297
2.01962
2.00611
1.9977
1.99102
1.98232
1.96957
1.95074
1.93259
1.92599
1.93078
1.952
1.9992
2.02051
2.03952
2.07664
2.13488
2.16869
2.17187
2.16244
2.15065
2.14388
2.1399
2.13651
2.13338
2.1297
2.12642
2.12264
2.11761
2.11027
2.10011
2.09356
2.09018
2.08593
2.08081
2.07654
2.074
2.07282
2.07008
2.06536
2.0604
2.05413
2.04539
2.03453
2.02731
2.02301
2.01593
2.06834
1.96604
1.8683
1.78135
1.70991
1.67672
1.64039
1.60419
1.59017
1.59791
1.63005
1.70945
1.81018
1.95848
2.09546
2.17004
2.18523
2.18642
2.18733
2.18642
2.17987
2.16582
2.15093
2.14018
2.13407
2.13125
2.1289
2.12576
2.12313
2.12223
2.11991
2.1146
2.10779
2.09773
2.08298
2.06565
2.04631
2.02643
2.0094
1.99646
1.98604
1.97618
1.96763
1.96077
1.95581
1.95081
1.94475
1.93757
1.92852
1.91692
1.91659
1.93069
1.96242
1.99471
1.98939
1.98743
1.99635
2.04096
2.09678
2.1311
2.13225
2.12565
2.11999
2.11639
2.11119
2.10327
2.09229
2.08284
2.07657
2.07128
2.0663
2.06305
2.061
2.05957
2.05783
2.05585
2.05321
2.04954
2.04491
2.0398
2.03421
2.02708
2.01864
2.00971
2.00357
2.00112
1.99944
1.99479
2.12524
2.04028
1.95632
1.88213
1.81533
1.75682
1.72278
1.68084
1.64512
1.62954
1.63295
1.64469
1.68427
1.78274
1.9497
2.08548
2.14252
2.16355
2.15525
2.14609
2.13667
2.12824
2.12026
2.11012
2.09869
2.09048
2.08635
2.08424
2.08447
2.08511
2.08042
2.07221
2.06291
2.05252
2.0409
2.02705
2.0089
1.9857
1.96271
1.94544
1.93432
1.92759
1.9238
1.92268
1.92159
1.91831
1.91399
1.90914
1.90585
1.91105
1.92269
1.94567
1.97256
1.9745
1.95843
1.94562
1.94611
1.96811
2.02077
2.07175
2.10183
2.10639
2.10171
2.09333
2.08298
2.06914
2.0522
2.03796
2.03007
2.02581
2.02412
2.02466
2.02744
2.02995
2.03141
2.03144
2.02959
2.02521
2.01732
2.00644
1.996
1.98617
1.97698
1.97207
1.97033
1.97064
1.97121
1.9683
2.17212
2.10189
2.03211
1.96407
1.90851
1.85046
1.80736
1.767
1.726
1.7033
1.6886
1.67384
1.67063
1.68502
1.76471
1.94209
2.10368
2.15217
2.15001
2.14215
2.13319
2.12783
2.12214
2.11252
2.09818
2.08187
2.07016
2.06189
2.05436
2.04705
2.04136
2.03529
2.02743
2.01793
2.00708
1.99511
1.9806
1.96338
1.9441
1.9259
1.91293
1.90586
1.90194
1.90068
1.9031
1.9007
1.89615
1.89216
1.89764
1.91738
1.94316
1.96605
1.96886
1.95618
1.93759
1.9269
1.92301
1.93106
1.96266
2.01102
2.05605
2.07625
2.07633
2.06864
2.0549
2.03731
2.01791
2.00655
2.00131
1.99808
1.99723
2.00012
2.00697
2.01398
2.01804
2.01671
2.01262
2.00404
1.98847
1.97274
1.96038
1.95192
1.94705
1.94447
1.94376
1.94695
1.94979
1.9461
2.20652
2.14875
2.09182
2.03468
1.98277
1.93295
1.889
1.85109
1.80779
1.76959
1.74858
1.73243
1.70986
1.697
1.7022
1.76637
1.96711
2.11997
2.14898
2.14663
2.14059
2.13299
2.12528
2.11593
2.10421
2.08888
2.07059
2.05445
2.04025
2.02688
2.01612
2.00824
2.00348
1.99853
1.99086
1.97993
1.96808
1.95653
1.94392
1.93117
1.9189
1.90867
1.89912
1.89059
1.88228
1.87434
1.8719
1.87795
1.90075
1.9351
1.96586
1.96909
1.96106
1.94673
1.93285
1.92583
1.92104
1.92062
1.93383
1.96453
2.01044
2.04089
2.05098
2.04703
2.03469
2.01618
2.00001
1.99276
1.98925
1.98677
1.98786
1.99429
2.00222
2.00673
2.00538
2.00126
1.9942
1.98262
1.96555
1.94688
1.93631
1.93106
1.92821
1.92675
1.9276
1.93406
1.93883
1.93516
2.23184
2.18472
2.13604
2.09036
2.04479
1.99982
1.95625
1.92156
1.88762
1.84934
1.81241
1.79169
1.77138
1.7443
1.72038
1.72422
1.78796
1.98907
2.12029
2.14432
2.14464
2.13802
2.12948
2.12049
2.10882
2.09496
2.07842
2.05799
2.03845
2.02338
2.01072
2.0005
1.99246
1.9878
1.98627
1.98195
1.97467
1.96571
1.95676
1.94599
1.93173
1.91518
1.89782
1.88117
1.86771
1.86186
1.86461
1.88117
1.9182
1.9566
1.97064
1.96691
1.96007
1.9501
1.94292
1.93909
1.93518
1.93022
1.92681
1.93705
1.96355
1.99944
2.02338
2.02873
2.02231
2.00845
1.99523
1.99047
1.98781
1.98829
1.9933
1.99714
1.99711
1.9949
1.9911
1.9856
1.97761
1.96547
1.94948
1.93693
1.92861
1.92328
1.9199
1.919
1.92521
1.93378
1.93256
1.92851
2.25295
2.212
2.1709
2.12991
2.09358
2.05424
2.01313
1.97631
1.94824
1.91944
1.88659
1.85047
1.82311
1.79919
1.77483
1.75026
1.75045
1.81146
1.9986
2.11445
2.13897
2.13827
2.12932
2.12036
2.11064
2.0988
2.08486
2.06754
2.04683
2.0285
2.0148
2.00339
1.99389
1.98627
1.98069
1.97652
1.97269
1.96842
1.96142
1.95096
1.93523
1.9153
1.8945
1.87544
1.86034
1.85674
1.86612
1.90568
1.94252
1.96814
1.97821
1.9748
1.96979
1.96514
1.96282
1.9599
1.9536
1.94185
1.92602
1.92173
1.92766
1.94811
1.98149
2.00508
2.01205
2.00803
2.00116
1.9981
1.99708
1.99851
1.99906
1.99622
1.99183
1.98727
1.98128
1.97284
1.96165
1.94966
1.941
1.93541
1.93077
1.9262
1.92351
1.92436
1.9265
1.92421
1.91954
1.9191
2.27469
2.23609
2.19821
2.162
2.12642
2.0944
2.06032
2.02403
1.99354
1.97063
1.94555
1.91445
1.87928
1.85059
1.82858
1.80249
1.7752
1.77166
1.83223
2.00308
2.1096
2.13112
2.12515
2.1171
2.10842
2.09889
2.0879
2.07435
2.05931
2.04293
2.02671
2.01262
2
1.98921
1.98099
1.97439
1.96926
1.96323
1.95516
1.94582
1.93236
1.91328
1.89231
1.87391
1.86177
1.86805
1.90529
1.94696
1.97078
1.98379
1.99186
1.99357
1.98903
1.98439
1.98006
1.97354
1.96276
1.94754
1.92724
1.90906
1.90805
1.91264
1.93532
1.971
1.99671
2.01038
2.01471
2.01344
2.0102
2.00514
1.99951
1.99404
1.98876
1.98163
1.97169
1.96041
1.95049
1.94333
1.93888
1.93664
1.93628
1.93716
1.9371
1.93412
1.92773
1.92146
1.91477
1.91646
2.30043
2.26287
2.22474
2.18935
2.15648
2.1229
2.0925
2.06427
2.03379
2.00788
1.98746
1.9638
1.93497
1.90368
1.87571
1.84995
1.82159
1.79537
1.79239
1.85124
2.00657
2.09585
2.11441
2.10926
2.10154
2.09318
2.08409
2.07493
2.06489
2.05296
2.03791
2.02036
2.00417
1.99057
1.97865
1.96957
1.96179
1.95376
1.94484
1.9342
1.92108
1.90581
1.8925
1.88039
1.88479
1.91833
1.96147
1.9844
1.99493
2.00285
2.00595
2.00199
1.99705
1.99202
1.98585
1.97823
1.96702
1.94941
1.92844
1.91196
1.9061
1.90628
1.9123
1.93872
1.97507
2.00764
2.02347
2.02386
2.01967
2.01043
2.00079
1.99232
1.9828
1.97138
1.96129
1.95418
1.94867
1.9453
1.94422
1.94687
1.95219
1.95379
1.95014
1.94305
1.93235
1.9215
1.91334
1.91415
2.32568
2.29345
2.25692
2.21885
2.18397
2.15155
2.11999
2.09234
2.06733
2.04062
2.01709
1.99828
1.97712
1.95052
1.92232
1.89527
1.86702
1.83775
1.81321
1.80986
1.8662
2.0091
2.08977
2.10207
2.09211
2.08374
2.07878
2.07318
2.0649
2.05413
2.04043
2.02371
2.00608
1.9904
1.97612
1.96291
1.9517
1.9418
1.93119
1.9186
1.90621
1.89695
1.89645
1.906
1.93998
1.98994
2.00917
2.01321
2.01236
2.01137
2.00805
2.00343
1.99795
1.9923
1.986
1.97778
1.96559
1.94986
1.93441
1.92009
1.91123
1.90767
1.90907
1.92234
1.95387
1.99483
2.02173
2.02641
2.02432
2.01564
2.0029
1.98813
1.97314
1.9643
1.95986
1.95573
1.95262
1.95225
1.9571
1.96433
1.96466
1.96062
1.95463
1.94636
1.93597
1.9234
1.90808
1.91568
2.34625
2.31915
2.28843
2.25388
2.21594
2.17982
2.14866
2.12044
2.09547
2.0705
2.04408
2.0215
2.00375
1.98522
1.96072
1.93536
1.90965
1.88009
1.8497
1.82658
1.82408
1.87974
2.01184
2.07885
2.08609
2.07695
2.07082
2.06597
2.05802
2.04903
2.0384
2.02382
2.00684
1.99027
1.97508
1.95951
1.94456
1.93188
1.91891
1.90661
1.89875
1.8986
1.91169
1.95462
2.0111
2.03825
2.03884
2.03159
2.02227
2.01419
2.00807
2.00283
1.99813
1.99245
1.98505
1.97539
1.9646
1.95451
1.94403
1.93369
1.92521
1.91885
1.91696
1.9216
1.93888
1.96977
2.00426
2.01985
2.02154
2.01621
2.00276
1.9839
1.97084
1.9654
1.96223
1.96029
1.96162
1.96682
1.96911
1.9664
1.96264
1.95807
1.95291
1.94554
1.93541
1.91852
1.91742
1.9424
2.36216
2.33838
2.31167
2.28287
2.25166
2.2158
2.17953
2.14968
2.12313
2.0977
2.07167
2.04509
2.02298
2.00527
1.98767
1.96579
1.94313
1.91841
1.88854
1.85765
1.83652
1.83539
1.88917
2.00748
2.06646
2.07149
2.06463
2.05857
2.05035
2.04145
2.03217
2.02071
2.00642
1.99091
1.97517
1.95833
1.94129
1.92513
1.91106
1.90311
1.90247
1.91116
1.95304
2.01897
2.05169
2.05689
2.05248
2.04178
2.02846
2.01427
2.00491
1.9992
1.99483
1.99022
1.9841
1.97671
1.96783
1.9611
1.95647
1.95175
1.94577
1.93848
1.93015
1.926
1.92842
1.94078
1.96471
1.99037
2.00462
2.00506
1.99776
1.98458
1.97354
1.96979
1.9676
1.96961
1.97663
1.97725
1.9736
1.96875
1.96298
1.95574
1.94776
1.93936
1.92996
1.93238
1.94797
1.97851
2.37206
2.35211
2.32882
2.30322
2.27698
2.24864
2.21565
2.18149
2.15195
2.12519
2.09779
2.07013
2.04385
2.02277
2.0052
1.98705
1.96678
1.9463
1.92295
1.89347
1.86278
1.84221
1.84184
1.89231
1.99551
2.05226
2.05932
2.05178
2.04178
2.03212
2.02351
2.01429
2.00364
1.9914
1.97735
1.95991
1.94053
1.92094
1.9102
1.90804
1.91347
1.94909
2.01209
2.05824
2.06603
2.06434
2.05749
2.0469
2.03201
2.01639
2.00784
2.002
1.99686
1.9927
1.98763
1.98174
1.97719
1.9744
1.97223
1.96765
1.96036
1.94989
1.93846
1.92853
1.92114
1.91879
1.92484
1.94309
1.9689
1.9868
1.99373
1.99091
1.98364
1.98057
1.98016
1.98345
1.98344
1.97996
1.97608
1.97049
1.96195
1.95066
1.93816
1.93112
1.93498
1.95599
1.98245
2.00875
2.37638
2.35884
2.33971
2.31754
2.29432
2.27102
2.24506
2.21493
2.18323
2.15279
2.12423
2.09521
2.06678
2.04211
2.02198
2.00373
1.98441
1.96422
1.94473
1.92336
1.89516
1.86462
1.84442
1.84184
1.88676
1.98198
2.04157
2.04497
2.03469
2.02297
2.01438
2.00741
2.00073
1.99278
1.98102
1.96141
1.93676
1.91915
1.91318
1.91621
1.948
2.01153
2.05786
2.07437
2.07073
2.06532
2.05708
2.04793
2.03694
2.02438
2.01491
2.00839
2.00295
1.99883
1.99594
1.99386
1.9926
1.98921
1.98266
1.97353
1.96323
1.95327
1.94307
1.93194
1.91952
1.90817
1.9068
1.91247
1.93371
1.963
1.98583
1.99751
1.99965
1.99821
1.99592
1.99116
1.98517
1.98043
1.97569
1.96846
1.95615
1.94119
1.93411
1.93679
1.95421
1.98374
2.01166
2.0316
2.38067
2.36223
2.34442
2.32595
2.30632
2.28691
2.26581
2.24075
2.2125
2.18205
2.15023
2.11966
2.09019
2.06291
2.03949
2.0196
2.00098
1.98163
1.96141
1.94115
1.91967
1.89215
1.86193
1.84036
1.83692
1.87891
1.97051
2.02615
2.02691
2.01846
2.0086
2.0009
1.99397
1.9855
1.97416
1.95729
1.93468
1.92046
1.92102
1.94612
2.01229
2.06655
2.08124
2.07649
2.07137
2.06579
2.05896
2.05223
2.04475
2.03605
2.02642
2.01906
2.01355
2.00968
2.00794
2.00525
2.00003
1.9932
1.98472
1.97399
1.96377
1.9556
1.94757
1.93756
1.92427
1.91075
1.90465
1.9052
1.9143
1.93989
1.97074
1.99619
2.00855
2.00848
2.00404
1.9952
1.98591
1.97816
1.97078
1.96052
1.94868
1.94042
1.94209
1.95706
1.98566
2.01288
2.03581
2.04665
2.38709
2.36665
2.34797
2.33052
2.31388
2.298
2.28136
2.25958
2.23382
2.20628
2.17621
2.14369
2.11228
2.0837
2.05812
2.03586
2.01583
1.99611
1.9763
1.95623
1.93502
1.91125
1.88244
1.85318
1.83344
1.83157
1.87186
1.95657
2.00451
2.01407
2.00505
1.99517
1.9862
1.97643
1.96381
1.94755
1.93361
1.92747
1.9478
2.01009
2.07245
2.09446
2.08861
2.07974
2.07398
2.06864
2.06429
2.05907
2.05475
2.04969
2.04149
2.0319
2.02436
2.01853
2.01291
2.00726
2.00127
1.99343
1.98301
1.97242
1.9645
1.95803
1.95146
1.94361
1.93227
1.91875
1.90854
1.90609
1.90919
1.92404
1.95032
1.98207
2.00374
2.00703
2.00473
1.99733
1.98524
1.9724
1.96266
1.95444
1.95028
1.9539
1.96947
1.99706
2.02448
2.04223
2.05146
2.04799
2.39674
2.37287
2.35232
2.3346
2.31903
2.30512
2.2908
2.27329
2.25016
2.22322
2.19485
2.16445
2.13301
2.10347
2.07654
2.05215
2.0302
2.00932
1.9885
1.96772
1.94706
1.92519
1.89975
1.86963
1.84174
1.82542
1.82555
1.86435
1.93948
1.99017
2.00042
1.98965
1.97716
1.96387
1.94829
1.93806
1.9345
1.95168
2.01249
2.08152
2.10382
2.10106
2.09252
2.08494
2.0787
2.07394
2.07173
2.06914
2.0654
2.05962
2.05002
2.0391
2.03017
2.02213
2.01454
2.00735
1.99927
1.98895
1.97895
1.97165
1.96586
1.96035
1.95437
1.94726
1.93877
1.93026
1.92261
1.91657
1.91501
1.91758
1.92915
1.95269
1.97925
1.99253
1.99477
1.99109
1.98008
1.96595
1.95738
1.95589
1.9614
1.97981
2.01087
2.04275
2.05932
2.06246
2.05895
2.05038
2.40898
2.38347
2.35936
2.33947
2.32442
2.31028
2.29484
2.27805
2.25874
2.23523
2.20814
2.17961
2.15035
2.12169
2.09456
2.06867
2.04415
2.02109
1.9993
1.97798
1.95658
1.93447
1.91079
1.88414
1.85516
1.83022
1.81742
1.8182
1.85546
1.9224
1.97748
1.97858
1.96638
1.94933
1.93375
1.9349
1.95065
2.0122
2.08413
2.11774
2.11845
2.10885
2.0965
2.08944
2.08427
2.08156
2.07806
2.07341
2.06787
2.06085
2.05185
2.04225
2.03333
2.02457
2.01521
2.00517
1.99452
1.98515
1.9781
1.9726
1.96762
1.96269
1.95752
1.95248
1.94849
1.94371
1.93663
1.92744
1.91881
1.91114
1.91003
1.91672
1.9351
1.95628
1.9718
1.97682
1.9725
1.96401
1.9601
1.96384
1.98191
2.01404
2.04779
2.07263
2.07784
2.07428
2.06698
2.0525
2.41964
2.39655
2.37487
2.35465
2.33498
2.31633
2.29711
2.27791
2.25904
2.23915
2.21594
2.18958
2.16243
2.13607
2.11043
2.08472
2.0588
2.03305
2.00824
1.98477
1.96229
1.94031
1.91799
1.89419
1.86786
1.84111
1.81963
1.80794
1.80898
1.84026
1.9043
1.9505
1.94979
1.93505
1.93188
1.94351
2.00128
2.08533
2.12158
2.1262
2.12209
2.11289
2.10145
2.09356
2.08858
2.08401
2.07925
2.07417
2.06793
2.05994
2.05156
2.04387
2.03596
2.02708
2.01656
2.00402
1.99298
1.98502
1.97952
1.97489
1.97161
1.96849
1.96419
1.95905
1.95211
1.94433
1.93694
1.92867
1.91891
1.90908
1.89995
1.89588
1.90099
1.91825
1.93999
1.96116
1.96469
1.96433
1.9701
1.98509
2.01421
2.04518
2.06824
2.08039
2.08139
2.07682
2.06879
2.05077
2.42809
2.40993
2.38972
2.36966
2.34838
2.32456
2.30149
2.28012
2.25858
2.23743
2.21806
2.19557
2.17135
2.14745
2.1234
2.0983
2.07163
2.04342
2.01528
1.98927
1.9652
1.94227
1.92024
1.89889
1.87707
1.8528
1.82864
1.80745
1.79491
1.79303
1.81664
1.87674
1.91807
1.9208
1.93833
1.99214
2.07086
2.12289
2.13615
2.13137
2.12373
2.11533
2.10588
2.09669
2.08972
2.08409
2.07835
2.07226
2.06544
2.058
2.05079
2.04435
2.03791
2.03025
2.01925
2.00539
1.99521
1.98959
1.98476
1.98089
1.97693
1.97182
1.96605
1.95887
1.94974
1.94083
1.93325
1.92573
1.91728
1.90838
1.89928
1.89177
1.89066
1.89637
1.91371
1.9418
1.95749
1.97162
1.99027
2.01517
2.04492
2.06488
2.07514
2.07862
2.07615
2.07039
2.06303
2.04863
2.42855
2.41768
2.40186
2.38198
2.35867
2.33318
2.30764
2.28233
2.25751
2.23493
2.2157
2.1991
2.17771
2.15516
2.13199
2.10737
2.08053
2.05123
2.02104
1.99222
1.96623
1.94274
1.92083
1.90026
1.88054
1.86033
1.83799
1.81448
1.79138
1.77374
1.76744
1.79402
1.85312
1.91104
1.98186
2.06224
2.11331
2.13211
2.13453
2.13038
2.12294
2.11626
2.10875
2.09913
2.08963
2.08233
2.0755
2.06823
2.06139
2.05584
2.05035
2.04471
2.03901
2.03258
2.02326
2.01043
2.00233
1.99712
1.99216
1.98692
1.98111
1.97488
1.968
1.96004
1.95028
1.93878
1.92818
1.91985
1.91255
1.90497
1.89777
1.89283
1.88923
1.89013
1.90107
1.92363
1.95232
1.98402
2.01724
2.04695
2.06668
2.07287
2.07054
2.06625
2.06161
2.05637
2.05199
2.04407
2.434
2.42571
2.4118
2.39036
2.36564
2.33872
2.30923
2.27992
2.25422
2.23204
2.21483
2.20073
2.18173
2.1597
2.13695
2.11297
2.08676
2.05695
2.0239
1.9925
1.96566
1.94196
1.91997
1.89969
1.8811
1.86338
1.84395
1.82104
1.79508
1.76553
1.74507
1.74992
1.79092
1.89796
2.01844
2.11174
2.15239
2.14432
2.1354
2.12973
2.12328
2.11733
2.10976
2.09905
2.08766
2.07928
2.07244
2.06567
2.05949
2.05393
2.0496
2.04518
2.04016
2.03499
2.02764
2.01648
2.0065
1.99953
1.99313
1.98673
1.9803
1.97356
1.9664
1.95825
1.94779
1.93467
1.92296
1.91443
1.90753
1.9016
1.89679
1.89336
1.88995
1.88846
1.89471
1.91184
1.94845
1.9971
2.03996
2.06992
2.083
2.07857
2.06696
2.0564
2.05112
2.04627
2.04314
2.03839
)
;

boundaryField
{
    inlet
    {
        type            fixedValue;
        value           uniform 1;
    }
    outlet
    {
        type            inletOutlet;
        inletValue      uniform 1;
        value           nonuniform List<scalar> 
24
(
2.03191
2.03011
2.0162
1.99521
1.96906
1.94716
1.93647
1.92932
1.91957
1.91596
1.91224
1.91469
1.9417
1.97837
2.00999
2.03366
2.04784
2.04869
2.04992
2.05049
2.04794
2.04747
2.04461
2.03986
)
;
    }
    bottom
    {
        type            zeroGradient;
    }
    top
    {
        type            zeroGradient;
    }
    obstacle
    {
        type            zeroGradient;
    }
    defaultFaces
    {
        type            empty;
    }
}


// ************************************************************************* //
