/*--------------------------------*- C++ -*----------------------------------*\
  =========                 |
  \\      /  F ield         | OpenFOAM: The Open Source CFD Toolbox
   \\    /   O peration     | Website:  https://openfoam.org
    \\  /    A nd           | Version:  7
     \\/     M anipulation  |
\*---------------------------------------------------------------------------*/
FoamFile
{
    version     2.0;
    format      ascii;
    class       volScalarField;
    location    "3.6";
    object      p;
}
// * * * * * * * * * * * * * * * * * * * * * * * * * * * * * * * * * * * * * //

dimensions      [1 -1 -2 0 0 0 0];

internalField   nonuniform List<scalar> 
16192
(
1.98885
1.98876
1.99955
2.03855
2.08623
2.09903
2.09759
2.09201
2.07733
2.03787
1.96838
1.9358
1.93078
1.92948
1.92934
1.93698
1.96489
1.99477
2.00379
2.00535
2.00536
2.00315
1.99591
1.97423
1.9337
1.91546
1.91353
1.91294
1.91364
1.92121
1.94068
1.95535
1.95571
1.95347
1.94723
1.93262
1.90375
1.88035
1.87318
1.87151
1.87031
1.87208
1.8856
1.90726
1.91155
1.90815
1.9048
1.90015
1.88758
1.85048
1.7909
1.7623
1.75659
1.75482
1.75345
1.75552
1.77476
1.82313
1.85178
1.8522
1.85079
1.84724
1.83314
1.79519
1.76449
1.75888
1.75758
1.75779
1.76517
1.77654
1.77758
1.77586
1.77233
1.76046
1.73562
1.71788
1.71464
1.71449
1.71533
1.72205
1.74208
1.76431
1.76893
1.76753
1.76349
1.75521
1.74069
1.72705
1.72185
1.71892
1.71614
1.71331
1.71036
1.70722
1.70409
1.69882
1.68719
1.66741
1.65484
1.65177
1.65073
1.6495
1.64894
1.65059
1.65609
1.66072
1.6614
1.66068
1.65982
1.65826
1.65552
1.64863
1.63111
1.60834
1.60008
1.59811
1.59715
1.59911
1.60809
1.61283
1.61208
1.61058
1.60874
1.60623
1.6027
1.59805
1.59078
1.57748
1.56041
1.55243
1.551
1.55117
1.55499
1.56173
1.56394
1.56323
1.56254
1.56171
1.55998
1.55514
1.54328
1.52636
1.51863
1.51783
1.51758
1.51868
1.52603
1.54036
1.54786
1.54862
1.54844
1.54729
1.54363
1.53174
1.50694
1.48743
1.4809
1.47915
1.47823
1.47947
1.49115
1.50817
1.51225
1.51267
1.51204
1.51009
1.50695
1.50034
1.48235
1.45796
1.44708
1.44371
1.44149
1.44019
1.44092
1.44661
1.45275
1.45514
1.45505
1.45362
1.4509
1.44351
1.42649
1.41307
1.4107
1.40981
1.40882
1.40779
1.40686
1.40634
1.40717
1.40928
1.40918
1.40861
1.40855
1.40966
1.41164
1.41316
1.41412
1.41474
1.41505
1.41416
1.41114
1.39948
1.37952
1.37043
1.36863
1.36769
1.36805
1.3698
1.37808
1.39892
1.40839
1.40748
1.40632
1.4071
1.41843
1.46224
1.57699
1.79719
2.06802
2.29554
2.49203
2.56195
2.58087
2.59507
2.60002
2.6226
2.66832
2.70737
2.73763
2.75248
2.75178
2.7444
2.73026
2.69794
2.65433
2.6264
2.61161
2.60354
2.6022
2.60248
2.59714
2.58847
2.57987
2.56643
2.55835
2.56024
2.57799
2.60827
2.63636
2.6649
2.67198
1.98636
1.98642
1.99771
2.02938
2.06343
2.07577
2.07612
2.07257
2.06351
2.03935
1.99111
1.94129
1.92804
1.92584
1.92549
1.93153
1.95304
1.98213
1.99165
1.99099
1.98972
1.98838
1.98559
1.97598
1.94875
1.91113
1.89944
1.8986
1.89846
1.90099
1.91181
1.93324
1.94594
1.94585
1.94362
1.93791
1.92397
1.89577
1.87251
1.86496
1.86352
1.86227
1.864
1.87787
1.90058
1.90487
1.90156
1.89828
1.89265
1.87755
1.83548
1.77595
1.75184
1.74693
1.74481
1.74314
1.74576
1.77095
1.82718
1.85217
1.85206
1.85055
1.84553
1.82658
1.78277
1.75484
1.75031
1.74891
1.74923
1.7567
1.76399
1.76317
1.76086
1.75541
1.7398
1.71679
1.70743
1.70629
1.70701
1.71285
1.72931
1.75033
1.75773
1.75772
1.756
1.75102
1.73779
1.71893
1.71113
1.7091
1.70748
1.70597
1.70462
1.70294
1.70074
1.69761
1.69204
1.6792
1.65892
1.64882
1.64719
1.6466
1.6462
1.64685
1.64913
1.65097
1.65187
1.65169
1.65078
1.64923
1.64693
1.64342
1.63493
1.61851
1.60332
1.59894
1.59807
1.60076
1.6048
1.60479
1.60356
1.60197
1.59953
1.59577
1.59136
1.58741
1.58433
1.57997
1.57097
1.55782
1.55178
1.55123
1.55155
1.55395
1.55739
1.55753
1.55613
1.55495
1.55378
1.55161
1.54556
1.53122
1.5143
1.50768
1.50708
1.50697
1.50954
1.52169
1.54078
1.54734
1.54711
1.54632
1.54419
1.53839
1.52248
1.49414
1.47709
1.47288
1.4722
1.4721
1.47719
1.49372
1.50644
1.508
1.50777
1.50743
1.50596
1.50194
1.4896
1.46225
1.44029
1.43391
1.43153
1.4301
1.43023
1.43686
1.44947
1.45509
1.45463
1.45335
1.45172
1.44774
1.43436
1.41351
1.40538
1.40418
1.403
1.40171
1.40031
1.3991
1.39852
1.39987
1.40253
1.40364
1.40404
1.40455
1.40589
1.40772
1.40965
1.41203
1.4135
1.41303
1.41069
1.40372
1.38606
1.36804
1.36249
1.36136
1.36163
1.36338
1.3687
1.38534
1.40141
1.4029
1.4014
1.39948
1.39819
1.39498
1.40295
1.43435
1.5551
1.76605
2.08703
2.30772
2.47336
2.56546
2.58821
2.63159
2.6923
2.71538
2.72204
2.73007
2.73729
2.73626
2.72583
2.69615
2.6383
2.59283
2.57971
2.57645
2.57599
2.57917
2.58448
2.58957
2.59003
2.58514
2.58193
2.59005
2.60621
2.61535
2.61994
2.63669
2.65336
1.99087
1.99131
2.00261
2.02738
2.04524
2.04976
2.04922
2.04543
2.03859
2.02723
2.006
1.97108
1.93797
1.92881
1.92777
1.9313
1.94308
1.96088
1.97464
1.97665
1.97463
1.97265
1.97078
1.96688
1.95488
1.92434
1.89275
1.8856
1.88527
1.88567
1.88994
1.90382
1.92663
1.93731
1.93708
1.93509
1.93014
1.91582
1.88551
1.8621
1.85552
1.85409
1.8529
1.85507
1.87107
1.89479
1.89775
1.89437
1.89051
1.88444
1.86671
1.81768
1.76013
1.74172
1.73796
1.73603
1.73482
1.74006
1.77565
1.83502
1.85076
1.84955
1.84716
1.83968
1.8115
1.76331
1.74357
1.74095
1.73962
1.7404
1.74722
1.7503
1.7484
1.74566
1.73901
1.72286
1.7057
1.70183
1.70205
1.70562
1.71701
1.73658
1.74737
1.748
1.7468
1.74353
1.73372
1.71477
1.70165
1.69983
1.69872
1.69753
1.69693
1.69823
1.69871
1.69649
1.6931
1.68732
1.67286
1.6522
1.64367
1.64273
1.64234
1.6429
1.64356
1.64268
1.64196
1.64186
1.64156
1.64035
1.63818
1.63516
1.6313
1.62347
1.61142
1.60241
1.6002
1.59933
1.59817
1.59636
1.59414
1.59145
1.5881
1.58475
1.58253
1.58087
1.57923
1.57796
1.57516
1.56677
1.55379
1.54871
1.54821
1.54782
1.54835
1.55052
1.55064
1.54902
1.54757
1.54608
1.54306
1.5352
1.51873
1.50383
1.49916
1.4989
1.49954
1.50496
1.52014
1.53518
1.53897
1.53933
1.53892
1.53698
1.52998
1.50991
1.48134
1.471
1.46939
1.46907
1.47047
1.47966
1.49773
1.50472
1.5037
1.50274
1.50172
1.49911
1.49031
1.46675
1.43782
1.42741
1.42545
1.42435
1.4241
1.43041
1.44803
1.45607
1.45534
1.45374
1.45199
1.44866
1.43949
1.41939
1.40334
1.39928
1.39771
1.396
1.39427
1.39272
1.39173
1.39209
1.39532
1.39818
1.39932
1.40019
1.40148
1.40277
1.40378
1.40541
1.40757
1.40794
1.40637
1.40277
1.39194
1.37086
1.35846
1.35611
1.35651
1.35825
1.36141
1.37014
1.38612
1.39657
1.39676
1.39468
1.39172
1.3871
1.38031
1.36556
1.36957
1.40888
1.57802
1.86391
2.16797
2.35279
2.48335
2.59745
2.68097
2.70318
2.71345
2.72452
2.72724
2.72432
2.71225
2.67776
2.62565
2.58831
2.57392
2.56958
2.56769
2.56843
2.57531
2.58757
2.59634
2.60529
2.61832
2.62194
2.61514
2.60833
2.60931
2.61788
2.63087
2.00333
2.0051
2.01494
2.02303
2.02534
2.02424
2.02174
2.01843
2.0139
2.00757
2.00001
1.98791
1.96494
1.94004
1.9333
1.93324
1.93773
1.94331
1.95071
1.95932
1.96116
1.95887
1.95646
1.95415
1.94913
1.93509
1.90248
1.87708
1.87305
1.87288
1.8739
1.88037
1.89848
1.92184
1.93085
1.9311
1.92855
1.92228
1.90546
1.87216
1.84983
1.84439
1.84272
1.84144
1.84437
1.86454
1.8916
1.89426
1.89084
1.88587
1.87705
1.85256
1.79431
1.74561
1.734
1.73106
1.72909
1.72844
1.74087
1.78965
1.8432
1.85066
1.84739
1.84119
1.82638
1.78858
1.74527
1.73332
1.73158
1.73035
1.7311
1.73642
1.7371
1.73519
1.73319
1.72759
1.71397
1.70112
1.69904
1.70018
1.70664
1.72117
1.73347
1.73538
1.7346
1.73264
1.72729
1.71361
1.69745
1.6911
1.68999
1.68897
1.68849
1.69238
1.69691
1.69633
1.69436
1.69119
1.68341
1.66371
1.64387
1.63847
1.63803
1.63749
1.63645
1.63479
1.63333
1.63209
1.63105
1.63034
1.62921
1.62718
1.62499
1.62279
1.61913
1.61301
1.60507
1.59785
1.5929
1.58912
1.58458
1.58017
1.57823
1.57729
1.57679
1.57707
1.57684
1.57582
1.57444
1.57073
1.55983
1.54541
1.54167
1.5409
1.54025
1.5404
1.54267
1.54325
1.54163
1.54009
1.53845
1.53474
1.52531
1.50799
1.496
1.493
1.49291
1.49432
1.50292
1.52183
1.53277
1.53319
1.53259
1.53184
1.52971
1.52119
1.49975
1.47532
1.46842
1.46752
1.46749
1.46958
1.47934
1.49358
1.49701
1.49581
1.49469
1.49276
1.48698
1.47036
1.44203
1.42663
1.42352
1.42232
1.42184
1.4252
1.43762
1.44688
1.44722
1.44642
1.44554
1.44422
1.44006
1.42666
1.40595
1.39581
1.39338
1.3919
1.39013
1.38833
1.38718
1.387
1.3885
1.39106
1.39257
1.39331
1.39417
1.3962
1.39865
1.40065
1.40258
1.40308
1.40138
1.39917
1.39347
1.37864
1.35927
1.35195
1.35169
1.35344
1.35584
1.35974
1.36827
1.38155
1.38951
1.38924
1.38623
1.38154
1.37564
1.36846
1.35439
1.34596
1.36408
1.44987
1.64873
1.94464
2.28083
2.49446
2.55556
2.60042
2.63602
2.68136
2.69952
2.69717
2.68203
2.65546
2.62924
2.60648
2.58374
2.57068
2.56825
2.56885
2.5732
2.58558
2.60916
2.63474
2.64235
2.63727
2.62354
2.60504
2.59839
2.59972
2.60208
2.01765
2.022
2.02036
2.01475
2.00962
2.00365
1.99552
1.99081
1.99025
1.99115
1.98949
1.98803
1.98308
1.96543
1.94181
1.93444
1.93284
1.93179
1.93172
1.93559
1.94399
1.94645
1.94425
1.94213
1.93986
1.93405
1.91676
1.88219
1.86349
1.86141
1.8614
1.86402
1.87561
1.899
1.91669
1.92123
1.92209
1.92032
1.91234
1.891
1.85543
1.83607
1.83181
1.83021
1.82923
1.83466
1.86027
1.88454
1.88565
1.88286
1.87826
1.867
1.83367
1.76967
1.73464
1.72923
1.72723
1.72637
1.72984
1.75061
1.79919
1.83445
1.83654
1.83338
1.82713
1.80887
1.76556
1.73021
1.72301
1.72151
1.72035
1.72143
1.72654
1.72695
1.72592
1.72514
1.72042
1.7086
1.69912
1.69801
1.70075
1.70792
1.71706
1.72073
1.72024
1.71868
1.71594
1.70932
1.69659
1.68496
1.68096
1.68003
1.67941
1.68247
1.69171
1.69521
1.69395
1.6917
1.68811
1.6775
1.65402
1.63633
1.63238
1.63137
1.62962
1.62711
1.62416
1.62166
1.61988
1.61875
1.61881
1.62091
1.62207
1.62253
1.62171
1.61855
1.61187
1.60091
1.58931
1.58044
1.5745
1.57196
1.5708
1.56991
1.56955
1.57051
1.57408
1.57478
1.57354
1.57103
1.56363
1.54684
1.53456
1.53325
1.53232
1.53153
1.53176
1.53518
1.53635
1.53472
1.53313
1.53142
1.52737
1.51667
1.49929
1.49019
1.4884
1.48872
1.49236
1.50487
1.52153
1.52658
1.52624
1.52541
1.52433
1.52179
1.51308
1.49297
1.47154
1.46501
1.46399
1.46374
1.46563
1.47397
1.48505
1.48714
1.48567
1.48357
1.4799
1.4711
1.45313
1.43174
1.42373
1.42209
1.42141
1.42348
1.43204
1.44051
1.44108
1.44047
1.43977
1.43856
1.43616
1.42875
1.41203
1.39569
1.39056
1.3889
1.38716
1.38542
1.38426
1.38387
1.38426
1.38488
1.38589
1.38683
1.38786
1.38982
1.39255
1.39466
1.39649
1.39732
1.39559
1.39337
1.39041
1.38318
1.3676
1.3511
1.34622
1.34706
1.34927
1.35147
1.35519
1.36248
1.37344
1.3808
1.38058
1.37725
1.37177
1.36602
1.36032
1.35364
1.34524
1.34775
1.382
1.51207
1.74763
2.03143
2.26805
2.51758
2.58561
2.59995
2.61976
2.62377
2.6253
2.62761
2.62641
2.62135
2.60209
2.58319
2.57871
2.57751
2.5806
2.59556
2.62145
2.63949
2.63908
2.63446
2.62631
2.60935
2.58897
2.57289
2.56074
2.03832
2.03367
2.02288
2.00975
1.99567
1.98195
1.97287
1.96948
1.96863
1.97462
1.98608
1.98997
1.98916
1.98316
1.9633
1.93392
1.92287
1.92096
1.91919
1.91809
1.92102
1.931
1.93432
1.93244
1.93048
1.92787
1.92025
1.89768
1.86413
1.85257
1.8516
1.85243
1.8591
1.87798
1.90008
1.9083
1.90965
1.90981
1.90766
1.89797
1.87228
1.83767
1.82334
1.82019
1.81891
1.81879
1.82918
1.85994
1.87844
1.87712
1.87333
1.86772
1.85377
1.81588
1.75636
1.73153
1.72842
1.72742
1.72718
1.73152
1.7547
1.80194
1.82643
1.82552
1.8212
1.81221
1.78741
1.74157
1.71756
1.71395
1.71265
1.7119
1.71403
1.71933
1.72051
1.72005
1.7193
1.71583
1.70677
1.69908
1.69749
1.69825
1.7011
1.70444
1.70495
1.7038
1.702
1.69903
1.69251
1.68215
1.67462
1.67299
1.67275
1.67592
1.68853
1.69614
1.6947
1.69206
1.68895
1.68309
1.66828
1.64315
1.62816
1.62431
1.62176
1.61814
1.61422
1.61168
1.60993
1.60871
1.60872
1.61365
1.62133
1.62442
1.62393
1.62132
1.61599
1.60356
1.58327
1.57035
1.56666
1.56502
1.56386
1.56302
1.56303
1.5682
1.57301
1.57243
1.57136
1.56976
1.56569
1.55262
1.53198
1.52433
1.52321
1.52205
1.52136
1.52282
1.52844
1.52954
1.52807
1.5271
1.52579
1.52166
1.51022
1.49332
1.4862
1.4853
1.48622
1.49108
1.50314
1.51623
1.51982
1.51935
1.51824
1.51681
1.5136
1.50452
1.48542
1.46606
1.46017
1.45923
1.45876
1.45946
1.46552
1.47466
1.47606
1.47408
1.47087
1.46635
1.45819
1.44483
1.43066
1.4249
1.42376
1.42466
1.42802
1.43261
1.43454
1.43351
1.43252
1.43131
1.42949
1.42595
1.41655
1.40061
1.38997
1.38701
1.38525
1.38352
1.38333
1.38415
1.38332
1.38067
1.37937
1.3799
1.38079
1.38195
1.38419
1.38688
1.38927
1.39112
1.39025
1.38772
1.38553
1.38215
1.37461
1.35873
1.34329
1.33951
1.34113
1.3437
1.34617
1.3494
1.355
1.36543
1.37402
1.3741
1.37021
1.36572
1.3649
1.36292
1.35792
1.35011
1.34264
1.3537
1.40029
1.531
1.72787
2.01747
2.24989
2.42541
2.5438
2.58042
2.59978
2.61837
2.62885
2.62669
2.61165
2.59422
2.58979
2.59037
2.59799
2.6136
2.62995
2.63603
2.63311
2.62886
2.6223
2.60701
2.57933
2.54631
2.52913
2.04833
2.04204
2.02749
2.00289
1.97715
1.96212
1.95668
1.95432
1.95374
1.96254
1.98107
1.99088
1.99048
1.98718
1.977
1.94834
1.91793
1.90935
1.90734
1.90548
1.9046
1.90975
1.92162
1.92409
1.922
1.91974
1.91622
1.906
1.87887
1.85068
1.84413
1.84382
1.84681
1.85985
1.88175
1.8939
1.89597
1.89619
1.89592
1.89238
1.87975
1.85106
1.82185
1.81213
1.80983
1.80903
1.81054
1.82518
1.85602
1.86955
1.86737
1.86362
1.85819
1.84393
1.80508
1.74934
1.72886
1.72595
1.72485
1.72426
1.72936
1.7552
1.79943
1.81525
1.81291
1.80744
1.7952
1.7644
1.7228
1.70864
1.7066
1.70527
1.7046
1.70779
1.71494
1.71881
1.71983
1.71898
1.71504
1.70351
1.69115
1.68856
1.68835
1.68871
1.68784
1.68733
1.68722
1.6865
1.68464
1.67895
1.6714
1.66855
1.6684
1.6704
1.67728
1.68727
1.68986
1.6882
1.68562
1.68242
1.67538
1.6566
1.63069
1.61729
1.61253
1.60841
1.60476
1.6025
1.60083
1.59948
1.59967
1.60734
1.62004
1.6256
1.62514
1.62282
1.6177
1.60363
1.57881
1.56538
1.56237
1.5605
1.55917
1.55829
1.55798
1.56157
1.56844
1.57032
1.56978
1.56856
1.56602
1.55786
1.53594
1.51689
1.5137
1.51234
1.51109
1.51079
1.51469
1.5225
1.52424
1.52367
1.52316
1.52192
1.51784
1.50655
1.48992
1.48309
1.48257
1.48371
1.48811
1.49809
1.50901
1.51227
1.51165
1.5102
1.50839
1.50468
1.49603
1.47872
1.45966
1.45275
1.45176
1.45134
1.45171
1.45596
1.46347
1.46449
1.46203
1.45883
1.45613
1.45172
1.44333
1.43217
1.42689
1.42566
1.42501
1.425
1.42698
1.42665
1.42522
1.42366
1.42173
1.4192
1.41527
1.4074
1.39537
1.38697
1.38463
1.38442
1.38573
1.38454
1.38188
1.37878
1.37476
1.37342
1.37407
1.37504
1.37639
1.37815
1.38021
1.38299
1.38483
1.38315
1.38083
1.37911
1.37575
1.36698
1.34921
1.33494
1.33281
1.3349
1.33711
1.33868
1.34132
1.34764
1.35944
1.36894
1.371
1.37187
1.37351
1.37249
1.36813
1.35928
1.34607
1.33531
1.32834
1.34061
1.37456
1.47173
1.68942
1.9723
2.19224
2.34779
2.48731
2.58222
2.61748
2.61939
2.62741
2.6239
2.61918
2.62033
2.62078
2.62163
2.62355
2.62686
2.6234
2.61825
2.61103
2.59657
2.56582
2.52579
2.51086
2.0532
2.04542
2.02516
1.98868
1.95863
1.94897
1.94621
1.94474
1.9452
1.95668
1.98226
1.99102
1.98973
1.98657
1.9793
1.96014
1.92486
1.90239
1.89673
1.89496
1.89344
1.89373
1.90217
1.91312
1.91387
1.91143
1.90891
1.9044
1.89202
1.86344
1.84191
1.83867
1.83938
1.84621
1.86208
1.87625
1.88015
1.88027
1.87989
1.87893
1.87358
1.85888
1.83237
1.81035
1.80346
1.80174
1.80132
1.80402
1.82038
1.85031
1.86181
1.85992
1.85728
1.85236
1.83788
1.79714
1.74248
1.72352
1.72055
1.71945
1.71906
1.72549
1.75358
1.79336
1.80258
1.79935
1.79331
1.77789
1.74203
1.70839
1.70004
1.69867
1.69771
1.70028
1.71096
1.7195
1.72088
1.72022
1.71817
1.71022
1.69156
1.67861
1.6753
1.67259
1.67043
1.67001
1.67157
1.67508
1.67595
1.6747
1.67021
1.66632
1.66538
1.66623
1.67023
1.67794
1.68544
1.6862
1.6845
1.68161
1.67622
1.66437
1.6404
1.61492
1.60357
1.59929
1.59659
1.59472
1.59316
1.59215
1.59434
1.60519
1.62268
1.62753
1.62618
1.62341
1.6179
1.60291
1.5773
1.56216
1.55811
1.55596
1.55442
1.5534
1.55301
1.55665
1.56638
1.57073
1.57007
1.56876
1.56647
1.56033
1.54305
1.5158
1.50365
1.50203
1.50073
1.49993
1.50126
1.50978
1.51931
1.52123
1.52115
1.52077
1.51961
1.51591
1.50461
1.48689
1.47882
1.47836
1.47877
1.48192
1.48999
1.50007
1.50393
1.50336
1.50176
1.49952
1.49545
1.48735
1.47049
1.45165
1.44456
1.4437
1.44327
1.44336
1.44603
1.4535
1.45589
1.4546
1.4542
1.4539
1.45179
1.44507
1.43178
1.4227
1.42095
1.42049
1.42053
1.41978
1.41815
1.41636
1.41424
1.41197
1.41025
1.40823
1.40355
1.3944
1.38567
1.38296
1.38189
1.38058
1.37894
1.37682
1.37347
1.36868
1.36764
1.36818
1.36863
1.36875
1.36947
1.37195
1.37633
1.37896
1.37765
1.37606
1.3745
1.37023
1.35862
1.33813
1.32572
1.32515
1.32712
1.32862
1.32989
1.33339
1.34198
1.35682
1.37093
1.37858
1.38114
1.37996
1.37613
1.36833
1.35343
1.33446
1.31648
1.30108
1.29286
1.29939
1.34228
1.44697
1.68472
1.97453
2.28326
2.43697
2.52151
2.58287
2.61416
2.63359
2.64418
2.64503
2.63797
2.62318
2.6209
2.61971
2.61233
2.60284
2.59149
2.57488
2.54876
2.51353
2.49407
2.05217
2.04058
2.01193
1.9684
1.94779
1.94281
1.9404
1.93952
1.94192
1.95565
1.9743
1.97873
1.9771
1.97465
1.97109
1.96111
1.93639
1.90532
1.89107
1.8864
1.88508
1.88405
1.88589
1.89462
1.90314
1.90361
1.9012
1.89889
1.8944
1.88157
1.85517
1.83746
1.83547
1.83712
1.84429
1.85468
1.86119
1.86292
1.86278
1.86193
1.86012
1.85405
1.8416
1.82094
1.80199
1.79502
1.79357
1.79343
1.79766
1.81567
1.84589
1.85646
1.85483
1.85242
1.84699
1.8305
1.78493
1.73157
1.71625
1.71416
1.71298
1.71262
1.72004
1.75046
1.78512
1.78936
1.78553
1.77819
1.75803
1.71963
1.69889
1.69537
1.69443
1.69661
1.7116
1.72248
1.72262
1.72155
1.71948
1.71368
1.69742
1.67176
1.65999
1.65692
1.65535
1.65468
1.65572
1.66111
1.66767
1.66974
1.66908
1.66666
1.66471
1.66443
1.66628
1.66944
1.67363
1.67631
1.67561
1.67382
1.67133
1.66551
1.64884
1.61741
1.59599
1.59174
1.58996
1.58832
1.58676
1.58611
1.5907
1.60775
1.6197
1.61955
1.61768
1.61533
1.61045
1.59658
1.5734
1.55942
1.55489
1.55221
1.55066
1.54988
1.5499
1.55395
1.56069
1.56348
1.56346
1.56258
1.56106
1.55769
1.5468
1.52162
1.49937
1.49304
1.49161
1.49066
1.49054
1.49531
1.50877
1.51815
1.52041
1.52059
1.52027
1.51907
1.51476
1.50034
1.4795
1.47146
1.4711
1.47119
1.47326
1.47962
1.4899
1.49543
1.49518
1.49353
1.49131
1.48747
1.47949
1.46197
1.44328
1.43656
1.43569
1.43541
1.43567
1.43878
1.44837
1.45528
1.45646
1.45631
1.45486
1.45102
1.44129
1.42586
1.41692
1.41439
1.41272
1.4113
1.40969
1.40858
1.40776
1.40674
1.40595
1.4057
1.405
1.40178
1.39347
1.38371
1.37929
1.37791
1.3771
1.37586
1.37298
1.36712
1.36141
1.36073
1.36099
1.36069
1.3604
1.36122
1.36544
1.37241
1.3755
1.37414
1.37277
1.37078
1.36442
1.34755
1.32548
1.31697
1.31671
1.31807
1.31899
1.32107
1.32786
1.34444
1.36901
1.38599
1.3893
1.38774
1.38399
1.37647
1.35907
1.33146
1.30237
1.28404
1.28121
1.28143
1.28373
1.29286
1.35295
1.50332
1.7836
2.10163
2.36085
2.53872
2.57368
2.60532
2.64081
2.6414
2.63372
2.61973
2.61226
2.60412
2.59276
2.58289
2.57123
2.55443
2.53474
2.50867
2.48815
2.04271
2.03029
1.99713
1.95724
1.94317
1.93951
1.93678
1.9357
1.94113
1.96068
1.97081
1.9698
1.96734
1.96442
1.96024
1.95301
1.93917
1.91698
1.89378
1.88232
1.87784
1.87692
1.87631
1.87829
1.88446
1.89222
1.89383
1.89178
1.89015
1.88656
1.87622
1.85354
1.83458
1.83118
1.83179
1.83449
1.83871
1.84239
1.84487
1.8455
1.84456
1.84268
1.83784
1.82897
1.81207
1.7938
1.78715
1.7863
1.7865
1.79142
1.81145
1.84295
1.85246
1.85062
1.84737
1.84084
1.82095
1.76925
1.71973
1.70813
1.70646
1.70516
1.70492
1.71396
1.74711
1.77547
1.77627
1.77205
1.76315
1.74018
1.70644
1.69527
1.69411
1.69459
1.70056
1.71196
1.71566
1.71487
1.71342
1.71029
1.69952
1.67183
1.64871
1.64464
1.64311
1.64197
1.64213
1.64676
1.65622
1.66426
1.66733
1.66817
1.66714
1.66472
1.66283
1.6626
1.66384
1.66699
1.66804
1.66649
1.66409
1.66017
1.64907
1.62229
1.59427
1.58608
1.58451
1.58322
1.58226
1.58281
1.59199
1.61149
1.61715
1.6156
1.61335
1.61055
1.60402
1.58763
1.56603
1.55652
1.55318
1.55042
1.54826
1.54723
1.54796
1.55388
1.55765
1.55782
1.55749
1.55669
1.55513
1.55252
1.54561
1.52808
1.50191
1.48763
1.48419
1.48329
1.48271
1.48463
1.49757
1.51712
1.52288
1.52286
1.52218
1.52073
1.51755
1.51035
1.49101
1.46897
1.46278
1.46213
1.46163
1.46228
1.46773
1.47974
1.48755
1.48801
1.48678
1.48464
1.48094
1.47187
1.45197
1.43431
1.42878
1.42791
1.42795
1.42938
1.43757
1.44926
1.45351
1.45348
1.45216
1.45006
1.44589
1.43378
1.41625
1.40784
1.40521
1.4034
1.40209
1.40135
1.40167
1.40316
1.40344
1.40372
1.40385
1.40274
1.39899
1.39063
1.3807
1.37554
1.37343
1.37193
1.37022
1.36617
1.3584
1.35372
1.35353
1.35324
1.35273
1.35245
1.35474
1.36175
1.37046
1.37337
1.37288
1.37169
1.36808
1.35594
1.33032
1.31075
1.30617
1.30665
1.30814
1.31041
1.31759
1.33627
1.3692
1.38997
1.39212
1.38956
1.38513
1.37727
1.35836
1.32114
1.28786
1.27884
1.27758
1.27777
1.27837
1.28026
1.28711
1.31216
1.40422
1.6268
1.91808
2.20852
2.38531
2.56454
2.63326
2.63938
2.63467
2.6203
2.6012
2.58406
2.57174
2.56161
2.54973
2.53548
2.52301
2.50614
2.48686
2.03315
2.01888
1.98516
1.95079
1.9402
1.9375
1.93552
1.93556
1.94428
1.95588
1.95924
1.95802
1.95548
1.95214
1.94749
1.94128
1.93482
1.92569
1.91015
1.88785
1.87404
1.87
1.86908
1.86817
1.86818
1.87179
1.88155
1.88702
1.88685
1.8858
1.88317
1.87456
1.85108
1.82587
1.81986
1.81944
1.81923
1.82004
1.82257
1.82666
1.82991
1.83073
1.8301
1.82699
1.82017
1.8041
1.78471
1.77783
1.77732
1.77796
1.78515
1.80929
1.84202
1.85034
1.8478
1.84252
1.83273
1.80696
1.74962
1.70727
1.69938
1.69785
1.69639
1.69645
1.70869
1.74498
1.76611
1.76452
1.76019
1.75108
1.72851
1.7019
1.69515
1.69436
1.69661
1.70372
1.709
1.70836
1.70672
1.7043
1.69759
1.67664
1.64593
1.63354
1.63154
1.63024
1.62979
1.63371
1.64522
1.65716
1.66545
1.66803
1.66749
1.66505
1.66057
1.65642
1.65568
1.65611
1.65779
1.65699
1.65461
1.65138
1.64489
1.62712
1.59826
1.58338
1.58032
1.57895
1.57824
1.58239
1.60054
1.61294
1.61228
1.61009
1.60798
1.60471
1.59596
1.57633
1.55832
1.55347
1.55169
1.54971
1.54763
1.54657
1.54695
1.54955
1.55082
1.5502
1.54959
1.54883
1.54731
1.54479
1.53988
1.5288
1.5089
1.48902
1.48116
1.47898
1.4783
1.47889
1.48671
1.5038
1.51432
1.51595
1.51594
1.51565
1.51491
1.51192
1.50237
1.47852
1.45634
1.45096
1.44969
1.44891
1.44938
1.45627
1.47244
1.48199
1.48284
1.48219
1.47989
1.4747
1.46215
1.43963
1.42586
1.42294
1.42275
1.42355
1.42986
1.44512
1.4535
1.45362
1.45242
1.45055
1.44723
1.43861
1.42017
1.40326
1.39908
1.39763
1.39644
1.39547
1.39515
1.39806
1.40141
1.40239
1.40219
1.40114
1.39923
1.39506
1.38521
1.37477
1.37053
1.36865
1.36663
1.36353
1.35725
1.34902
1.34623
1.346
1.34542
1.34478
1.34559
1.35113
1.36306
1.37295
1.37366
1.37162
1.36784
1.3586
1.33523
1.3078
1.29905
1.2987
1.30052
1.30359
1.31189
1.33067
1.35934
1.37999
1.38531
1.38495
1.38204
1.37486
1.35381
1.31192
1.28287
1.27713
1.27663
1.2769
1.27666
1.27802
1.28504
1.29875
1.31606
1.36199
1.46293
1.69437
1.96834
2.2932
2.44288
2.54101
2.61506
2.61169
2.6012
2.58427
2.56731
2.54944
2.53318
2.52191
2.51425
2.50385
2.49002
2.01831
2.00249
1.97529
1.95264
1.94321
1.93949
1.93855
1.94216
1.9487
1.94778
1.94576
1.94398
1.94109
1.93632
1.93326
1.93116
1.9287
1.92609
1.92018
1.90572
1.88086
1.86464
1.86093
1.85875
1.85687
1.85629
1.86207
1.87903
1.88675
1.88738
1.88588
1.88223
1.86997
1.83761
1.80949
1.80427
1.80312
1.80211
1.80178
1.8045
1.81231
1.81906
1.82115
1.82127
1.81838
1.81033
1.79193
1.7744
1.76992
1.76984
1.77168
1.78103
1.80592
1.83399
1.84017
1.83791
1.83274
1.82142
1.78899
1.72801
1.69648
1.69177
1.69018
1.68877
1.68957
1.70629
1.74454
1.75863
1.75584
1.75124
1.74311
1.72207
1.70018
1.69545
1.69475
1.69524
1.69821
1.69942
1.69815
1.69601
1.69168
1.67802
1.64938
1.62745
1.62223
1.62117
1.62069
1.62381
1.63661
1.65292
1.65972
1.6615
1.66256
1.66236
1.65912
1.65198
1.64728
1.64653
1.64662
1.6461
1.64392
1.64108
1.63688
1.62747
1.60621
1.58424
1.57828
1.57685
1.57636
1.5832
1.60127
1.60795
1.60681
1.60483
1.60262
1.59844
1.58668
1.56495
1.5532
1.55158
1.55098
1.55083
1.55039
1.54974
1.54867
1.54667
1.54437
1.54261
1.54148
1.54026
1.53845
1.53548
1.53116
1.52535
1.51557
1.4987
1.48251
1.47756
1.47658
1.47681
1.48088
1.49339
1.50842
1.51158
1.51069
1.51012
1.50934
1.5079
1.50375
1.48938
1.45987
1.4418
1.43856
1.43773
1.43717
1.43907
1.45155
1.47042
1.4762
1.47608
1.47512
1.47282
1.46663
1.45004
1.42797
1.42108
1.4202
1.42059
1.42397
1.43426
1.44351
1.44561
1.44519
1.44397
1.44208
1.43776
1.42355
1.40184
1.39311
1.39163
1.39056
1.38967
1.3895
1.39325
1.4006
1.40359
1.40333
1.40189
1.3997
1.39598
1.3876
1.37543
1.36823
1.36533
1.36306
1.36027
1.35581
1.34813
1.34175
1.34031
1.33977
1.33912
1.33922
1.34342
1.35403
1.36531
1.36743
1.36584
1.36319
1.35652
1.34021
1.31202
1.29732
1.29579
1.29699
1.29979
1.30779
1.32749
1.35414
1.36955
1.37333
1.37321
1.37093
1.36503
1.34791
1.31355
1.28425
1.27808
1.27757
1.2781
1.27881
1.28279
1.29545
1.30712
1.30843
1.30925
1.31795
1.36551
1.48786
1.71217
2.00728
2.2643
2.49047
2.52019
2.52477
2.54224
2.53406
2.51544
2.51215
2.51213
2.51252
2.50911
2.50281
1.99909
1.98377
1.96995
1.95983
1.95274
1.95026
1.9498
1.947
1.94242
1.93838
1.93386
1.92773
1.92211
1.91961
1.91908
1.9231
1.92596
1.9245
1.92167
1.91548
1.89753
1.86851
1.85256
1.8487
1.84665
1.84529
1.84627
1.86016
1.88388
1.88847
1.88664
1.8835
1.87735
1.85615
1.8131
1.78988
1.78736
1.78644
1.78562
1.78629
1.79307
1.80413
1.81015
1.81176
1.81205
1.80924
1.79982
1.77985
1.76515
1.76274
1.7629
1.76572
1.77668
1.80269
1.82746
1.83068
1.82791
1.82205
1.8074
1.76617
1.70764
1.68694
1.68371
1.68205
1.68066
1.68355
1.70809
1.7477
1.75756
1.75493
1.74929
1.73863
1.71531
1.69308
1.68772
1.68774
1.68858
1.6888
1.688
1.68619
1.6825
1.67404
1.65408
1.62877
1.61879
1.61658
1.616
1.61852
1.62923
1.64326
1.65092
1.6529
1.65334
1.65347
1.65292
1.64935
1.64093
1.63658
1.63582
1.6348
1.63287
1.63036
1.62726
1.62265
1.61203
1.59209
1.57876
1.57702
1.57817
1.58918
1.60059
1.60149
1.6002
1.59856
1.59594
1.59009
1.57596
1.55802
1.55059
1.54863
1.54744
1.54667
1.54658
1.54636
1.54491
1.54269
1.53974
1.53638
1.53343
1.53097
1.52834
1.52528
1.52231
1.51946
1.51609
1.50915
1.49547
1.48123
1.47695
1.4767
1.47845
1.48338
1.49386
1.50339
1.50445
1.50365
1.50309
1.50194
1.4994
1.49065
1.46716
1.43899
1.4299
1.42868
1.42796
1.42793
1.43367
1.45209
1.46824
1.47018
1.46953
1.46858
1.46624
1.4583
1.43981
1.42262
1.4193
1.41911
1.42061
1.42705
1.43624
1.43967
1.43944
1.43827
1.43631
1.43281
1.42266
1.40174
1.3889
1.38708
1.38614
1.38538
1.38589
1.39052
1.39528
1.39718
1.39727
1.39607
1.39419
1.39167
1.3868
1.3768
1.36675
1.36212
1.35965
1.35722
1.35379
1.34809
1.34089
1.33683
1.33592
1.33529
1.335
1.33774
1.34551
1.35627
1.35989
1.35829
1.35589
1.35188
1.34254
1.32334
1.30187
1.29599
1.29644
1.29933
1.30753
1.32375
1.34334
1.35574
1.35962
1.35934
1.35648
1.35004
1.33824
1.31993
1.29784
1.2834
1.28034
1.28048
1.28262
1.29251
1.30495
1.30676
1.30516
1.3027
1.29914
1.30012
1.3118
1.35329
1.48807
1.69135
1.98664
2.22133
2.43546
2.51851
2.51267
2.48818
2.49585
2.50038
2.50334
2.51441
2.5216
1.97651
1.96784
1.96595
1.96558
1.96607
1.96375
1.95752
1.94915
1.94029
1.93
1.91901
1.91046
1.90657
1.90469
1.90453
1.91258
1.92369
1.92627
1.92454
1.92019
1.90815
1.87759
1.8486
1.8407
1.83873
1.83735
1.83733
1.84696
1.87084
1.88387
1.88344
1.88132
1.87685
1.86415
1.82907
1.78808
1.77631
1.77512
1.7744
1.77435
1.77884
1.79028
1.79934
1.80189
1.80234
1.80217
1.79882
1.78751
1.76709
1.75715
1.75614
1.75643
1.75971
1.77147
1.7969
1.81724
1.81864
1.81529
1.80777
1.78854
1.73959
1.69105
1.68025
1.67823
1.67694
1.67661
1.68486
1.71507
1.74396
1.74798
1.74637
1.74168
1.72956
1.70385
1.68421
1.68054
1.67997
1.67851
1.67691
1.67493
1.67163
1.66626
1.6563
1.63851
1.62063
1.61492
1.61378
1.6154
1.62494
1.6359
1.64169
1.64371
1.64407
1.64428
1.64415
1.64308
1.6374
1.62781
1.62429
1.62304
1.62133
1.61933
1.61732
1.61523
1.61219
1.60322
1.5882
1.5809
1.58067
1.58562
1.59359
1.5936
1.59186
1.59019
1.58721
1.57919
1.56433
1.5535
1.54901
1.54672
1.54564
1.54531
1.54458
1.54339
1.54193
1.53968
1.53591
1.53051
1.52476
1.52027
1.51784
1.51659
1.516
1.51558
1.51435
1.51231
1.50692
1.49435
1.48064
1.47696
1.47677
1.47706
1.48003
1.48871
1.49567
1.49546
1.4945
1.49355
1.49164
1.486
1.47062
1.44447
1.42795
1.42399
1.42305
1.42273
1.42487
1.43484
1.45299
1.46234
1.46252
1.46177
1.46088
1.45857
1.45113
1.4344
1.42067
1.41847
1.41853
1.42107
1.4273
1.43136
1.43155
1.43057
1.42878
1.42589
1.41914
1.40275
1.38734
1.38379
1.38294
1.38232
1.38295
1.38804
1.3932
1.39422
1.39358
1.39246
1.39095
1.38905
1.3854
1.37624
1.36456
1.35886
1.3565
1.35453
1.35228
1.34828
1.34173
1.33624
1.33424
1.3333
1.33241
1.33281
1.33632
1.34329
1.34963
1.34958
1.34746
1.34431
1.33961
1.33035
1.31411
1.30159
1.30023
1.30252
1.30983
1.32104
1.33061
1.3367
1.34115
1.3424
1.34011
1.33479
1.32861
1.32194
1.31197
1.2983
1.28973
1.28833
1.29066
1.29896
1.30302
1.30277
1.30111
1.2987
1.29473
1.28776
1.28216
1.28301
1.29569
1.33974
1.46688
1.69997
2.02229
2.24799
2.36674
2.45919
2.49683
2.49847
2.50592
2.53163
2.54887
1.96152
1.961
1.96235
1.96969
1.97676
1.97558
1.96924
1.95721
1.93758
1.91471
1.90073
1.89623
1.89414
1.89262
1.89381
1.90668
1.92564
1.92817
1.92551
1.92101
1.91073
1.88426
1.84947
1.83593
1.83285
1.83131
1.83112
1.83963
1.86016
1.87109
1.87116
1.86993
1.86794
1.86216
1.8427
1.80153
1.77289
1.76659
1.76544
1.7649
1.76755
1.77834
1.78877
1.79182
1.7922
1.79198
1.79122
1.78723
1.77475
1.75554
1.749
1.74859
1.74913
1.75291
1.76479
1.78856
1.8042
1.80409
1.80062
1.79217
1.76922
1.71785
1.68186
1.67667
1.67536
1.67451
1.67567
1.68926
1.72221
1.74145
1.74096
1.73812
1.73251
1.7181
1.69084
1.67327
1.67047
1.6688
1.66657
1.66381
1.66049
1.65636
1.65167
1.64475
1.63326
1.62088
1.61662
1.61687
1.62085
1.62568
1.63012
1.63335
1.63408
1.63415
1.63427
1.63385
1.63168
1.62336
1.61412
1.61161
1.61045
1.60939
1.60852
1.60701
1.60578
1.6045
1.59958
1.59105
1.58632
1.58565
1.58649
1.58555
1.58352
1.58113
1.57638
1.56606
1.55508
1.55148
1.54995
1.54927
1.54761
1.54485
1.54243
1.54043
1.53864
1.53636
1.53167
1.52299
1.51537
1.51246
1.51098
1.50977
1.50916
1.51175
1.51564
1.51588
1.51361
1.50746
1.49243
1.47492
1.47002
1.46979
1.46981
1.47287
1.48089
1.48631
1.48552
1.48361
1.48136
1.47741
1.46923
1.45419
1.43361
1.42248
1.42005
1.41958
1.41977
1.42285
1.43325
1.44919
1.45581
1.4557
1.45518
1.45478
1.45254
1.44575
1.43088
1.41943
1.4177
1.41781
1.41968