/*--------------------------------*- C++ -*----------------------------------*\
  =========                 |
  \\      /  F ield         | OpenFOAM: The Open Source CFD Toolbox
   \\    /   O peration     | Website:  https://openfoam.org
    \\  /    A nd           | Version:  7
     \\/     M anipulation  |
\*---------------------------------------------------------------------------*/
FoamFile
{
    version     2.0;
    format      ascii;
    class       volScalarField;
    location    "0.5";
    object      p;
}
// * * * * * * * * * * * * * * * * * * * * * * * * * * * * * * * * * * * * * //

dimensions      [1 -1 -2 0 0 0 0];

internalField   nonuniform List<scalar> 
3328
(
1
1
1
1
1
1
1
1
1
1
1
1
1
1
2.37074
9.91353
12.0091
12.0468
12.2826
12.5451
12.687
12.8532
12.9676
12.9947
1
1
1
1
1
1
1
1
1
1
1
1
1
1
2.22818
9.69667
11.9472
12.0734
12.287
12.5248
12.6469
12.79
12.886
12.9021
1
1
1
1
1
1
1
1
1
1
1
1
1
1
1.95542
9.29329
11.93
12.0846
12.2699
12.4714
12.5759
12.6909
12.767
12.7671
1
1
1
1
1
1
1
1
1
1
1
1
1
1
1.59312
8.64193
11.927
12.0886
12.227
12.3815
12.459
12.5467
12.5992
12.584
1
1
1
1
1
1
1
1
1
1
1
1
1
1
1.23437
7.77133
11.9191
12.0633
12.1302
12.2277
12.2652
12.3315
12.3657
12.3492
1
1
1
1
1
1
1
1
1
1
1
1
1
1
1.00647
6.74608
11.7724
11.9798
11.9968
12.0469
12.0559
12.0896
12.081
11.9776
1
1
1
1
1
1
1
1
1
1
1
1
1
1
1.00001
5.5085
11.3934
11.8676
11.8532
11.8357
11.7706
11.689
11.5711
11.4832
1
1
1
1
1
1
1
1
1
1
1
1
1
1
1
4.22258
10.8049
11.6534
11.64
11.5593
11.443
11.3083
11.1026
11.0601
1
1
1
1
1
1
1
1
1
1
1
1
1
1
1
2.81183
9.90547
11.4676
11.4339
11.2942
11.0814
10.7565
10.011
8.65882
1
1
1
1
1
1
1
1
1
1
1
1
1
1
1
1.54734
8.4474
11.2927
11.1567
10.9878
10.6923
10.2104
9.46069
8.36289
1
1
1
1
1
1
1
1
1
1
1
1
1
1
1
1.02401
6.19381
10.896
10.9266
10.7216
10.3814
9.85545
9.13394
8.28214
1
1
1
1
1
1
1
1
1
1
1
1
1
1
1
1.0001
3.53856
10.0581
10.7802
10.4436
10.0765
9.56487
8.9433
8.26323
1
1
1
1
1
1
1
1
1
1
1
1
1
1
1
1
1.54683
8.31789
10.5893
10.1898
9.82006
9.35917
8.81829
8.24601
1
1
1
1
1
1
1
1
1
1
1
1
1
1
1
1
1.0184
5.48418
10.1014
9.99319
9.67441
9.21514
8.71342
8.22021
1
1
1
1
1
1
1
1
1
1
1
1
1
1
1
1
1.00004
2.49396
8.95924
9.87876
9.49336
9.10014
8.63448
8.19615
1
1
1
1
1
1
1
1
1
1
1
1
1
1
1
1
1
1.12501
6.50297
9.51324
9.27959
8.98277
8.58323
8.16453
1
1
1
1
1
1
1
1
1
1
1
1
1
1
1
1
1
1.00124
3.09293
8.81958
9.22691
8.88679
8.5341
8.12505
1
1
1
1
1
1
1
1
1
1
1
1
1
1
1
1
1
1
1.22262
6.41687
9.05514
8.74713
8.42613
8.07147
1
1
1
1
1
1
1
1
1
1
1
1
1
1
1
1
1
1
1.00341
2.78062
8.29631
8.79039
8.39704
8.01901
1
1
1
1
1
1
1
1
1
1
1
1
1
1
1
1
1
1
1.00001
1.15929
5.40407
8.53556
8.37213
8.02486
1
1
1
1
1
1
1
1
1
1
1
1
1
1
1
1
1
1
1
1.00182
1.98417
7.15817
8.38197
7.96989
1
1
1
1
1
1
1
1
1
1
1
1
1
1
1
1
1
1
1
1
1.05088
3.49154
7.93952
8.06551
1
1
1
1
1
1
1
1
1
1
1
1
1
1
1
1
1
1
1
1
1.00032
1.30161
5.01895
7.8628
1
1
1
1
1
1
1
1
1
1
1
1
1
1
1
1
1
1
1
1
1
1.00582
1.85347
5.93242
1
1
1
1
1
1
1
1
1
1
1
1
1
1
1
1
1
1
1
1
1
1.00002
1.0369
2.55535
1
1
1
1
1
1
1
1
1
1
1
1
1
1
1
1
1
1
1
1
1
1
1.00022
1.11756
1
1
1
1
1
1
1
1
1
1
1
1
1
1
1
1
1
1
1
1
1
1
1
1.00124
1
1
1
1
1
1
1
1
1
1
1
1
1
1
1
1
1
1
1
1
1
1
1
1
1
1
1
1
1
1
1
1
1
1
1
1
1
1
1
1
1
1
1
1
1
1
1
1
1
1
1
1
1
1
1
1
1
1
1
1
1
1
1
1
1
1
1
1
1
1
1
1
1
1
1
1
1
1
1
1
1
1
1
1
1
1
1
1
1
1
1
1
1
1
1
1
1
1
1
1
1
1
1
1
1
1
1
1
1
1
1
1
1
1
1
1
1
1
1
1
1
1
1
1
1
1
1
1
1
1
1
1
1
1
1
1
1
1
1
1
1
1
1
1
1
1
1
1
1
1
1
1
1
1
1
1
1
1
1
1
1
1
1
1
1
1
1
1
1
1
1
1
1
1
1
1
1
1
1
1
1
1
1
1
1
1
1
1
1
1
1
1
1
1
1
1
1
1
1
1
1
1
1
1
1
1
1
1
1
1
1
1
1
1
1
1
1
1
1
1
1
1
1
1
1
1
1
1
1
1
1
1
1
1
1
1
1
1
1
1
1
1
1
1
1
1
1
1
1
1
1
1
1
1
1
1
1
1
1
1
1
1
1
1
1
1
1
1
1
1
1
1
1
1
1
1
1
1
1
1
1
1
1
1
1
1
1
1
1
1
1
1
1
1
1
1
1
1
1
1
1
1
1
1
1
1
1
1
1
1
1
1
5.30149
6.2733
6.81423
7.0419
7.08957
7.03047
7.13395
7.0949
7.35641
7.55817
7.27477
7.20024
7.12447
7.02468
7.06593
7.07374
7.61153
7.39791
7.15391
7.14685
7.0759
7.00165
7.03891
7.05844
7.72911
7.43887
7.27275
7.23107
7.10833
7.02079
6.94988
7.0311
7.7805
7.4665
7.24404
7.14857
7.01846
6.97185
6.86226
7.02926
7.78756
7.45971
7.20794
7.08157
6.94178
6.92785
6.82286
7.06278
7.78686
7.45228
7.16598
7.01092
6.8634
6.84223
6.78878
7.08994
7.7736
7.42295
7.11663
6.92177
6.83427
6.80415
6.91872
7.21534
7.73864
7.38838
7.09003
6.89836
6.81378
6.71531
6.48784
5.28567
7.71002
7.35893
7.06376
6.89459
6.79266
6.62791
6.18552
5.1005
7.65851
7.31342
7.04342
6.89996
6.82621
6.60193
6.09976
5.25042
7.66904
7.30194
7.04231
6.93773
6.88715
6.62405
6.12054
5.46268
7.60614
7.30593
7.10192
7.05525
6.9954
6.67858
6.1695
5.64285
7.63131
7.25104
7.14941
7.19646
7.11653
6.7227
6.19481
5.78721
7.84752
7.34229
7.24661
7.36035
7.19733
6.77678
6.21893
5.85891
7.75119
7.47978
7.53657
7.59775
7.2743
6.81235
6.29387
5.94572
6.42347
7.23378
7.8866
7.95786
7.46948
6.91237
6.36302
6.00243
3.08937
6.52165
7.92356
8.30189
7.64093
7.08643
6.57447
6.17881
1.21539
3.35718
7.44738
8.62364
7.8659
7.28384
6.69681
6.19904
1.00354
1.26874
4.37671
8.24418
8.20133
7.61896
6.95661
6.39421
1.00001
1.00445
1.55953
5.91138
8.01287
7.69749
7.15859
6.6677
1
1.00001
1.01531
2.31863
6.77204
7.64966
7.2421
6.69616
1
1
1.00005
1.07852
3.20085
6.99553
7.32884
6.87438
1
1
1
1.00064
1.22084
3.90244
6.93686
6.96688
1
1
1
1
1.00336
1.43149
4.30343
6.64879
1
1
1
1
1.00001
1.01078
1.62781
4.37854
1
1
1
1
1
1.00004
1.02193
1.71016
1
1
1
1
1
1
1.00011
1.02804
1
1
1
1
1
1
1
1.00015
1
1
1
1
1
1
1
1
1
1
1
1
1
1
1
1
1
1
1
1
1
1
1
1
1.72347
0.711837
0.679432
0.773433
0.99028
1.20934
1.28279
1.28586
1.27251
1.21734
1.14771
1.0744
0.993519
0.909783
0.831951
0.764312
0.709789
0.666205
0.630611
0.596233
0.576504
0.56519
0.575617
0.612723
0.717433
0.833295
0.860984
0.872368
0.883165
0.894895
0.911704
0.911511
0.855995
0.823597
0.829154
0.841434
0.857589
0.886164
0.936701
0.992906
0.996419
0.971847
0.942794
0.932742
0.937359
0.956701
0.984859
1.00699
1.01585
1.01305
1.00162
0.982482
0.964292
0.982128
1.04371
1.03656
1.0127
1.00232
0.998967
0.997231
0.994431
0.992054
0.990198
0.988585
0.987907
0.988116
0.989232
0.995766
1.01751
1.04176
1.0481
1.04836
1.04843
1.04836
1.04708
1.04135
1.02668
1.00797
1.00053
1
1
1
1
1
1
1
1
1
2.56327
1.61697
1.37664
1.26407
1.23047
1.25508
1.26093
1.24836
1.212
1.15499
1.10459
1.04333
0.973852
0.902261
0.838249
0.788375
0.733013
0.684068
0.651063
0.61997
0.596468
0.579822
0.579347
0.60322
0.689463
0.809516
0.850671
0.864016
0.875221
0.884734
0.892969
0.903438
0.890152
0.855731
0.852386
0.856066
0.865421
0.885578
0.915621
0.943018
0.961
0.951647
0.941742
0.93961
0.945175
0.960514
0.979917
0.995349
1.00358
1.00448
0.997307
0.985479
0.976789
0.996608
1.03948
1.0237
1.00294
0.993899
0.990366
0.988459
0.987223
0.986217
0.985465
0.985061
0.985113
0.985653
0.98737
0.997087
1.02132
1.04371
1.0485
1.04865
1.04866
1.04813
1.04578
1.03999
1.02681
1.00866
1.00065
1
1
1
1
1
1
1
1
1
3.43084
2.31811
1.82555
1.53028
1.2969
1.24403
1.23564
1.21489
1.18288
1.15412
1.12913
1.07191
1.00064
0.934707
0.866688
0.812667
0.758475
0.703793
0.664294
0.640804
0.615339
0.591356
0.583209
0.598833
0.664174
0.797179
0.863002
0.872612
0.874867
0.876165
0.874908
0.876024
0.874661
0.871034
0.877333
0.88416
0.895751
0.910828
0.920444
0.922645
0.924818
0.924118
0.925778
0.935945
0.953168
0.969852
0.978148
0.979255
0.9787
0.979171
0.979308
0.979217
0.983171
1.01676
1.05453
1.02825
1.01062
1.00243
0.996979
0.99224
0.989839
0.988562
0.987659
0.987287
0.987524
0.988264
0.990373
1.001
1.02632
1.04641
1.04969
1.04974
1.0495
1.0484
1.04568
1.03911
1.02491
1.00723
1.00045
1
1
1
1
1
1
1
1
1
4.1023
3.00924
2.33128
1.95441
1.61793
1.47159
1.40461
1.3291
1.22193
1.15846
1.12026
1.04935
0.976634
0.922538
0.858439
0.816083
0.773383
0.715614
0.676391
0.661051
0.64383
0.611555
0.59492
0.601943
0.640223
0.742005
0.85449
0.874885
0.882834
0.881366
0.869962
0.858927
0.848327
0.851105
0.868789
0.879059
0.885043
0.893886
0.903002
0.911788
0.919312
0.922792
0.929961
0.95131
0.978814
0.99474
0.995864
0.989502
0.981016
0.973288
0.971351
0.97447
0.985509
1.03021
1.05593
1.02615
1.01416
1.00887
1.00177
0.993481
0.988174
0.986626
0.986234
0.98648
0.987182
0.988146
0.991452
1.0053
1.0318
1.04875
1.05089
1.05097
1.05072
1.04942
1.04635
1.03879
1.02254
1.00526
1.00023
1
1
1
1
1
1
1
1
1
4.59635
3.61545
2.88035
2.39055
1.98986
1.71864
1.57411
1.43119
1.26056
1.1413
1.09608
1.03238
0.975313
0.928341
0.87807
0.848793
0.812322
0.745949
0.707373
0.695898
0.685819
0.655297
0.609889
0.606654
0.621559
0.676215
0.800833
0.864155
0.892755
0.898161
0.884609
0.876824
0.870513
0.868086
0.868049
0.86298
0.861371
0.865923
0.874827
0.887755
0.906417
0.928419
0.9569
0.991044
1.00939
1.00662
0.996186
0.985865
0.977896
0.975237
0.98118
0.989879
1.00355
1.03859
1.05216
1.03009
1.02151
1.01779
1.00947
0.994949
0.985365
0.982886
0.983118
0.984342
0.985515
0.9869
0.993101
1.01156
1.03863
1.0513
1.05234
1.05242
1.05224
1.05095
1.04729
1.03763
1.01877
1.00315
1.00008
1
1
1
1
1
1
1
1
1
4.98842
4.07928
3.40312
2.87551
2.38365
2.00533
1.79967
1.59473
1.40645
1.24399
1.18521
1.12567
1.04845
0.975123
0.924386
0.900351
0.858398
0.784958
0.73337
0.720763
0.710491
0.680616
0.619696
0.599359
0.603436
0.62673
0.715045
0.828663
0.870108
0.882844
0.880607
0.878904
0.881833
0.887082
0.879242
0.8629
0.855252
0.854889
0.861377
0.873048
0.895356
0.937849
0.996442
1.02359
1.01302
0.994145
0.979133
0.970053
0.972165
0.985802
0.995751
0.993817
0.993848
1.01294
1.03895
1.0346
1.0277
1.0253
1.01639
0.995111
0.980306
0.977761
0.979143
0.981074
0.982222
0.985273
0.996053
1.01965
1.04613
1.05449
1.05491
1.05501
1.05475
1.05306
1.04805
1.03495
1.01364
1.00141
1.00002
1
1
1
1
1
1
1
1
1
5.26451
4.52547
3.82413
3.27584
2.75442
2.32009
2.03584
1.81622
1.57797
1.38139
1.2948
1.20547
1.11587
1.01152
0.965692
0.940384
0.888185
0.814987
0.763661
0.755507
0.746031
0.712011
0.644215
0.608589
0.607137
0.620351
0.660597
0.755107
0.833096
0.859759
0.872149
0.879132
0.885869
0.892294
0.888832
0.878839
0.871924
0.869869
0.867661
0.866769
0.885111
0.94359
1.01339
1.01592
0.986212
0.962697
0.948641
0.945578
0.964444
0.9917
0.99388
0.981928
0.979178
0.999874
1.03773
1.04477
1.03816
1.03529
1.02127
0.991158
0.974841
0.973615
0.976011
0.978222
0.980172
0.986095
1.0013
1.02946
1.05333
1.05815
1.05852
1.05875
1.0584
1.05579
1.04783
1.0296
1.00781
1.0004
1
1
1
1
1
1
1
1
1
1
5.48012
4.8496
4.17937
3.62879
3.1155
2.63979
2.27756
2.02555
1.80003
1.59976
1.46114
1.34076
1.21629
1.08392
1.05136
1.02133
0.963029
0.885897
0.839494
0.833545
0.813138
0.763373
0.689349
0.658144
0.645892
0.6404
0.654547
0.692207
0.762062
0.817006
0.848145
0.868654
0.879814
0.881972
0.88162
0.883574
0.886168
0.89106
0.891938
0.888762
0.903101
0.950376
0.99353
0.98975
0.968798
0.950849
0.938165
0.938946
0.959616
0.974765
0.973484
0.975191
0.990193
1.02801
1.06374
1.06094
1.05302
1.04374
1.01336
0.978767
0.968607
0.969234
0.972023
0.974208
0.978344
0.988123
1.00859
1.04028
1.05988
1.06268
1.06324
1.06356
1.06298
1.05901
1.0459
1.0213
1.00305
1.00006
1
1
1
1
1
1
1
1
1
1
5.59658
5.06525
4.47131
3.90989
3.37316
2.94007
2.61819
2.314
1.94008
1.73991
1.64101
1.53418
1.39307
1.21814
1.15531
1.10409
1.03075
0.964896
0.927376
0.914911
0.881873
0.816402
0.72573
0.69183
0.685933
0.676418
0.669629
0.687478
0.717481
0.759287
0.796964
0.828056
0.847426
0.854171
0.857665
0.859973
0.866555
0.880227
0.895981
0.909644
0.932163
0.963069
0.977068
0.96952
0.964341
0.968901
0.973312
0.975069
0.971523
0.963623
0.968237
0.993999
1.0403
1.08588
1.09455
1.08255
1.0695
1.04096
0.994549
0.967207
0.963571
0.965384
0.968189
0.971121
0.977378
0.991302
1.01897
1.05327
1.06706
1.06846
1.06904
1.06925
1.06775
1.05974
1.03884
1.01126
1.00067
1
1
1
1
1
1
1
1
1
1
1
5.72557
5.15539
4.59013
4.13396
3.671
3.17659
2.83706
2.55513
2.23087
1.95254
1.80626
1.6881
1.52422
1.37533
1.30957
1.23797
1.1492
1.03282
0.995728
0.993406
0.961822
0.897632
0.817985
0.754558
0.740262
0.731035
0.713864
0.714989
0.732162
0.750216
0.769317
0.787877
0.802372
0.813523
0.821263
0.826438
0.831273
0.842409
0.857225
0.879979
0.9177
0.945623
0.944581
0.931792
0.932932
0.954343
0.981751
0.996241
0.992049
0.990253
1.01467
1.06131
1.09764
1.10267
1.09476
1.08504
1.06612
1.02032
0.973995
0.959988
0.958865
0.96039
0.962475
0.96726
0.977492
0.997265
1.03267
1.06669
1.0756
1.07667
1.07733
1.0772
1.07325
1.05689
1.02573
1.00345
1.00006
1
1
1
1
1
1
1
1
1
1
1
5.8106
5.35114
4.84448
4.36586
3.86424
3.38331
3.06873
2.77899
2.44145
2.15428
2.01865
1.88484
1.70118
1.51281
1.43341
1.36543
1.27468
1.13914
1.09185
1.08111
1.03543
0.958919
0.892791
0.852462
0.832633
0.805247
0.757312
0.739203
0.747583
0.763514
0.777182
0.790591
0.802924
0.811961
0.811174
0.80132
0.793072
0.792781
0.80887
0.842384
0.87853
0.894568
0.886157
0.874956
0.879748
0.904869
0.939208
0.96308
0.975666
1.00472
1.05277
1.08864
1.09327
1.08931
1.08224
1.06875
1.03118
0.979747
0.954568
0.950625
0.950693
0.952892
0.957855
0.967401
0.983497
1.00962
1.04911
1.07908
1.08507
1.08621
1.08685
1.08581
1.07497
1.04494
1.01058
1.00043
1
1
1
1
1
1
1
1
1
1
1
1
5.92257
5.4273
4.97786
4.60064
4.13372
3.6277
3.23571
2.98436
2.69351
2.36167
2.15699
2.03538
1.87162
1.69436
1.60227
1.52268
1.40908
1.23681
1.18636
1.17535
1.12739
1.05439
0.953353
0.909779
0.910097
0.897445
0.857666
0.810539
0.781799
0.778615
0.782366
0.79462
0.804698
0.802871
0.789299
0.773347
0.76417
0.769363
0.791342
0.824734
0.83673
0.823254
0.808745
0.805863
0.819472
0.85008
0.885028
0.913481
0.944729
0.992505
1.04882
1.07723
1.08039
1.07939
1.06737
1.02411
0.969439
0.943942
0.940313
0.941014
0.944037
0.949465
0.957395
0.970328
0.991491
1.02643
1.07202
1.09524
1.09837
1.09943
1.09953
1.09315
1.0663
1.02298
1.00181
1.00001
1
1
1
1
1
1
1
1
1
1
1
1
6.14777
5.62592
5.11931
4.65383
4.26343
3.83881
3.46306
3.20007
2.92605
2.58456
2.33522
2.19781
2.02888
1.83786
1.75249
1.68813
1.57226
1.37625
1.2918
1.26813
1.21927
1.14642
1.05034
1.00828
0.993481
0.964065
0.930731
0.893996
0.858705
0.840376
0.831404
0.825925
0.819005
0.801094
0.777606
0.757841
0.747279
0.759296
0.795523
0.821942
0.813217
0.794861
0.787105
0.793706
0.810614
0.821467
0.833014
0.856981
0.905168
0.980252
1.03629
1.04334
1.04323
1.03318
0.994107
0.944757
0.927009
0.928115
0.931227
0.93668
0.945932
0.957167
0.967608
0.977964
0.998915
1.04389
1.09619
1.11307
1.11503
1.11586
1.11302
1.08948
1.03987
1.00495
1.00007
1
1
1
1
1
1
1
1
1
1
1
1
1
6.24854
5.80306
5.29533
4.80922
4.42202
4.02366
3.63448
3.36947
3.12666
2.81323
2.52834
2.37695
2.22176
2.01374
1.87236
1.81174
1.71139
1.52317
1.40508
1.37263
1.32321
1.24511
1.14292
1.11406
1.10367
1.06887
1.0163
0.955755
0.920431
0.908243
0.900804
0.892387
0.8753
0.842125
0.809605
0.788738
0.783753
0.799396
0.815098
0.810936
0.796609
0.78665
0.785275
0.788956
0.79199
0.79868
0.815472
0.846989
0.904916
0.967897
0.982517
0.983986
0.980716
0.956147
0.928396
0.920782
0.921175
0.923328
0.926674
0.932548
0.943043
0.958809
0.976609
0.996479
1.02951
1.08645
1.1279
1.13482
1.1361
1.13517
1.11397
1.05974
1.0101
1.00023
1
1
1
1
1
1
1
1
1
1
1
1
1
1
6.33596
5.88955
5.43545
4.98686
4.60087
4.22311
3.82145
3.51515
3.28971
3.02282
2.73871
2.56492
2.4203
2.21324
2.01046
1.92573
1.83659
1.6694
1.51673
1.47375
1.43473
1.36394
1.25857
1.22796
1.20991
1.1659
1.10067
1.04792
1.01436
0.989779
0.970676
0.951401
0.921686
0.884974
0.860674
0.849286
0.859878
0.862071
0.838534
0.81543
0.805888
0.809974
0.814244
0.803444
0.791792
0.79592
0.815835
0.86374
0.929108
0.949437
0.951525
0.952081
0.945166
0.924328
0.922226
0.925713
0.928336
0.933034
0.940496
0.947329
0.953284
0.961853
0.976403
1.00895
1.07281
1.1395
1.15907
1.1612
1.16143
1.14068
1.08077
1.01638
1.0005
1
1
1
1
1
1
1
1
1
1
1
1
1
1
1
6.53884
6.02092
5.5622
5.11738
4.76302
4.4369
4.04935
3.69564
3.44224
3.19698
2.92691
2.73836
2.60035
2.41281
2.17452
2.04052
1.96128
1.82083
1.64104
1.58314
1.55455
1.49408
1.3876
1.34456
1.32045
1.26325
1.17739
1.13095
1.10621
1.0817
1.05655
1.02464
0.979988
0.946183
0.927556
0.932898
0.945271
0.920648
0.890365
0.873482
0.86968
0.873516
0.869191
0.854955
0.846518
0.85253
0.873165
0.912127
0.943075
0.948227
0.949874
0.950173
0.932443
0.913496
0.916529
0.922127
0.927877
0.936213
0.948692
0.964769
0.979203
0.993844
1.01855
1.07216
1.15116
1.18917
1.1931
1.19326
1.16939
1.10021
1.0218
1.00075
1
1
1
1
1
1
1
1
1
1
1
1
1
1
1
1
6.66128
6.24966
5.74729
5.27382
4.87997
4.60015
4.27214
3.90341
3.62346
3.39212
3.12126
2.89979
2.75262
2.5832
2.34884
2.16243
2.09119
1.98039
1.79672
1.70826
1.68375
1.63068
1.52458
1.44733
1.41116
1.35234
1.26731
1.22749
1.20427
1.17565
1.13657
1.08548
1.04291
1.01912
1.01752
1.03843
1.02132
0.981215
0.953142
0.942885
0.947436
0.941355
0.922894
0.910795
0.911813
0.926953
0.952231
0.966295
0.967375
0.969921
0.972125
0.967966
0.940561
0.922872
0.927895
0.933112
0.937383
0.943434
0.952767
0.967647
0.992578
1.02942
1.08765
1.17016
1.22446
1.23283
1.2307
1.19805
1.11447
1.02436
1.00083
1
1
1
1
1
1
1
1
1
1
1
1
1
1
1
1
1
6.33942
6.31579
5.98695
5.51049
5.04995
4.74527
4.46901
4.10471
3.77489
3.57873
3.34327
3.07351
2.89371
2.73487
2.51728
2.29901
2.22529
2.14458
1.97907
1.84766
1.81451
1.76176
1.6531
1.54
1.49369
1.44447
1.36964
1.32888
1.30364
1.26864
1.20993
1.15132
1.12032
1.10601
1.125
1.13164
1.09492
1.05728
1.035
1.03321
1.03325
1.0095
0.989865
0.984807
0.991444
1.00744
1.02556
1.03126
1.02988
1.02672
1.02159
1.0055
0.976393
0.970866
0.976867
0.982783
0.989175
0.998328
1.01229
1.03451
1.07101
1.13028
1.21091
1.26718
1.2771
1.26871
1.22226
1.12046
1.02304
1.00068
1
1
1
1
1
1
1
1
1
1
1
1
1
1
1
1
1
1
4.19873
5.97332
6.02457
5.79652
5.35318
4.92806
4.64151
4.33278
3.94974
3.72517
3.53405
3.26831
3.04974
2.88796
2.68196
2.45497
2.36517
2.29676
2.16037
1.98851
1.93181
1.8803
1.76315
1.6274
1.5837
1.55336
1.49441
1.44947
1.41634
1.36793
1.30367
1.2681
1.24883
1.25352
1.27007
1.2419
1.19806
1.16063
1.13918
1.1363
1.12134
1.09257
1.07431
1.07152
1.08126
1.09419
1.09267
1.0885
1.08584
1.08018
1.06444
1.03115
1.01158
1.01402
1.01954
1.02618
1.03634
1.05413
1.08363
1.12975
1.19694
1.27317
1.3156
1.31907
1.2991
1.23567
1.1142
1.01799
1.00041
1
1
1
1
1
1
1
1
1
1
1
1
1
1
1
1
1
1
1
1.66363
3.81937
5.58837
5.69348
5.56177
5.25148
4.89515
4.5683
4.18038
3.88124
3.70373
3.4554
3.21763
3.06244
2.8722
2.64367
2.54444
2.47137
2.34802
2.16872
2.08173
2.0424
1.94577
1.85072
1.83311
1.85957
1.87133
1.84732
1.80591
1.76381
1.7478
1.76656
1.79969
1.80333
1.75178
1.67837
1.59197
1.52448
1.47366
1.41835
1.35113
1.28087
1.2304
1.20398
1.19251
1.1932
1.19075
1.18264
1.17562
1.16642
1.14572
1.11605
1.11003
1.11402
1.11863
1.12598
1.14049
1.1691
1.21869
1.28608
1.34401
1.362
1.35481
1.31837
1.23159
1.09284
1.01085
1.00017
1
1
1
1
1
1
1
1
1
1
1
1
1
1
1
1
1
1
1
1
1.0255
1.51788
3.39172
4.93646
5.32468
5.39865
5.25788
4.94261
4.53471
4.10517
3.85069
3.60154
3.33152
3.18914
3.04947
2.85842
2.78157
2.76529
2.73114
2.70037
2.72028
2.81909
2.97773
3.07748
3.17542
3.31807
3.41408
3.38385
3.28313
3.20896
3.17062
3.15517
3.15128
3.08268
2.97482
2.84278
2.69771
2.57901
2.47235
2.34938
2.18059
1.97069
1.78745
1.65635
1.55259
1.46637
1.40062
1.35075
1.31278
1.28055
1.2497
1.232
1.22871
1.23109
1.2373
1.25154
1.27982
1.32607
1.37679
1.40041
1.39808
1.37437
1.31886
1.20101
1.06038
1.00463
1.00004
1
1
1
1
1
1
1
1
1
1
1
1
1
1
1
1
1
1
1
1
1
1.00013
1.017
1.34728
2.68457
4.11997
5.10364
5.21346
5.09318
4.86609
4.5035
4.21484
4.03955
3.8169
3.73798
3.83143
3.98102
4.19566
4.4841
4.89938
5.17238
5.27829
5.46964
5.65221
5.58071
5.47172
5.4074
5.25989
5.03822
4.88999
4.78288
4.65118
4.50146
4.32407
4.1228
3.95336
3.81591
3.68626
3.5595
3.43352
3.30437
3.16279
3.00038
2.79607
2.6021
2.42999
2.25785
2.08051
1.90893
1.76051
1.65047
1.58209
1.53897
1.49873
1.45229
1.4219
1.41835
1.42517
1.4357
1.43346
1.41495
1.37671
1.28991
1.14253
1.02829
1.00126
1.00001
1
1
1
1
1
1
1
1
1
1
1
1
1
1
1
1
1
1
1
1
1
1
1
1.00007
1.00773
1.16469
1.96781
3.42192
4.67606
4.822
4.99037
5.26301
5.55377
5.92785
6.32877
6.62226
7.06108
7.34205
7.28531
7.19338
7.24606
7.05411
6.7052
6.548
6.37273
6.07692
5.77758
5.55181
5.32368
5.08433
4.92916
4.81123
4.68233
4.53935
4.34691
4.1226
3.94057
3.80758
3.694
3.58292
3.47239
3.35325
3.22614
3.12388
3.06211
2.99587
2.91383
2.82278
2.71902
2.59411
2.44632
2.28875
2.13657
1.99715
1.87193
1.76336
1.67516
1.59721
1.51942
1.45088
1.41131
1.34751
1.21776
1.07274
1.00835
1.0002
1
1
1
1
1
1
1
1
1
1
1
1
1
1
1
1
1
1
1
1
1
1
1
1
1
1
1.00002
1.00227
1.06138
1.54023
3.03051
5.1351
7.07385
9.07475
10.8045
12.0867
12.6968
12.8919
13.0114
12.7466
11.9116
11.0613
10.5703
9.99652
9.21955
8.49141
7.90965
7.31485
6.65952
6.10009
5.71242
5.42312
5.1761
4.96502
4.76456
4.53184
4.23694
3.95007
3.81995
3.73364
3.65133
3.58212
3.53847
3.51117
3.50733
3.55705
3.63366
3.70001
3.7412
3.74692
3.70691
3.6234
3.47193
3.22317
2.90356
2.58727
2.33842
2.15973
2.01543
1.87358
1.71516
1.52501
1.29782
1.11419
1.02216
1.00137
1.00002
1
1
1
1
1
1
1
1
1
1
1
1
1
1
1
1
1
1
1
1
1
1
1
1
1
)
;

boundaryField
{
    inlet
    {
        type            fixedValue;
        value           uniform 1;
    }
    outlet
    {
        type            zeroGradient;
    }
    bottom
    {
        type            zeroGradient;
    }
    top
    {
        type            zeroGradient;
    }
    obstacle
    {
        type            zeroGradient;
    }
    defaultFaces
    {
        type            empty;
    }
}


// ************************************************************************* //
