/*--------------------------------*- C++ -*----------------------------------*\
  =========                 |
  \\      /  F ield         | OpenFOAM: The Open Source CFD Toolbox
   \\    /   O peration     | Website:  https://openfoam.org
    \\  /    A nd           | Version:  7
     \\/     M anipulation  |
\*---------------------------------------------------------------------------*/
FoamFile
{
    version     2.0;
    format      ascii;
    class       volScalarField;
    location    "0.5";
    object      rho;
}
// * * * * * * * * * * * * * * * * * * * * * * * * * * * * * * * * * * * * * //

dimensions      [1 -3 0 0 0 0 0];

internalField   nonuniform List<scalar> 
3328
(
1.40001
1.40001
1.40001
1.40001
1.40001
1.40001
1.40001
1.40001
1.40001
1.40001
1.40001
1.40001
1.40001
1.40001
2.03467
4.97724
5.69101
5.74389
5.85085
5.89417
5.72663
5.43486
5.20904
5.13178
1.40001
1.40001
1.40001
1.40001
1.40001
1.40001
1.40001
1.40001
1.40001
1.40001
1.40001
1.40001
1.40001
1.40001
1.97001
4.90598
5.66655
5.75374
5.85316
5.88431
5.70626
5.40816
5.18255
5.10506
1.40001
1.40001
1.40001
1.40001
1.40001
1.40001
1.40001
1.40001
1.40001
1.40001
1.40001
1.40001
1.40001
1.40001
1.85188
4.78819
5.65496
5.75631
5.84891
5.86318
5.67369
5.3674
5.14395
5.06623
1.40001
1.40001
1.40001
1.40001
1.40001
1.40001
1.40001
1.40001
1.40001
1.40001
1.40001
1.40001
1.40001
1.40001
1.69008
4.5906
5.64601
5.75604
5.83997
5.83742
5.63629
5.32193
5.09578
5.016
1.40001
1.40001
1.40001
1.40001
1.40001
1.40001
1.40001
1.40001
1.40001
1.40001
1.40001
1.40001
1.40001
1.40001
1.51891
4.2959
5.63194
5.7492
5.82136
5.80235
5.59108
5.27088
5.0375
4.95679
1.40001
1.40001
1.40001
1.40001
1.40001
1.40001
1.40001
1.40001
1.40001
1.40001
1.40001
1.40001
1.40001
1.40001
1.40447
3.91075
5.56563
5.73439
5.79993
5.76673
5.55117
5.2225
4.97318
4.86737
1.40001
1.40001
1.40001
1.40001
1.40001
1.40001
1.40001
1.40001
1.40001
1.40001
1.40001
1.40001
1.40001
1.40001
1.40002
3.4016
5.42447
5.72967
5.7782
5.72046
5.49141
5.13908
4.84821
4.73581
1.40001
1.40001
1.40001
1.40001
1.40001
1.40001
1.40001
1.40001
1.40001
1.40001
1.40001
1.40001
1.40001
1.40001
1.40001
2.86346
5.24186
5.7076
5.72477
5.64152
5.4185
5.07691
4.73086
4.57919
1.40001
1.40001
1.40001
1.40001
1.40001
1.40001
1.40001
1.40001
1.40001
1.40001
1.40001
1.40001
1.40001
1.40001
1.40001
2.27313
5.02615
5.68215
5.66023
5.55174
5.33066
4.97841
4.46936
3.804
1.40001
1.40001
1.40001
1.40001
1.40001
1.40001
1.40001
1.40001
1.40001
1.40001
1.40001
1.40001
1.40001
1.40001
1.40001
1.70951
4.64337
5.63463
5.55935
5.4452
5.23811
4.89728
4.4278
3.84251
1.40001
1.40001
1.40001
1.40001
1.40001
1.40001
1.40001
1.40001
1.40001
1.40001
1.40001
1.40001
1.40001
1.40001
1.40001
1.41926
3.80007
5.48549
5.45813
5.36111
5.18058
4.88422
4.46611
3.97233
1.40001
1.40001
1.40001
1.40001
1.40001
1.40001
1.40001
1.40001
1.40001
1.40001
1.40001
1.40001
1.40001
1.40001
1.40001
1.4001
2.67168
5.21032
5.41241
5.28319
5.12183
4.87115
4.53274
4.12515
1.40001
1.40001
1.40001
1.40001
1.40001
1.40001
1.40001
1.40001
1.40001
1.40001
1.40001
1.40001
1.40001
1.40001
1.40001
1.40001
1.72897
4.66115
5.37734
5.22107
5.07029
4.86493
4.58587
4.25078
1.40001
1.40001
1.40001
1.40001
1.40001
1.40001
1.40001
1.40001
1.40001
1.40001
1.40001
1.40001
1.40001
1.40001
1.40001
1.40001
1.41473
3.55934
5.25539
5.1764
5.04304
4.85538
4.61464
4.33491
1.40001
1.40001
1.40001
1.40001
1.40001
1.40001
1.40001
1.40001
1.40001
1.40001
1.40001
1.40001
1.40001
1.40001
1.40001
1.40001
1.40005
2.23914
4.95295
5.16499
5.00777
4.84256
4.62847
4.38912
1.40001
1.40001
1.40001
1.40001
1.40001
1.40001
1.40001
1.40001
1.40001
1.40001
1.40001
1.40001
1.40001
1.40001
1.40001
1.40001
1.40001
1.49561
4.03185
5.08107
4.96337
4.82043
4.63749
4.42362
1.40001
1.40001
1.40001
1.40001
1.40001
1.40001
1.40001
1.40001
1.40001
1.40001
1.40001
1.40001
1.40001
1.40001
1.40001
1.40001
1.40001
1.40112
2.5569
4.94994
4.96495
4.81382
4.64774
4.45053
1.40001
1.40001
1.40001
1.40001
1.40001
1.40001
1.40001
1.40001
1.40001
1.40001
1.40001
1.40001
1.40001
1.40001
1.40001
1.40001
1.40001
1.40001
1.56544
4.05818
4.95531
4.80726
4.64007
4.46512
1.40001
1.40001
1.40001
1.40001
1.40001
1.40001
1.40001
1.40001
1.40001
1.40001
1.40001
1.40001
1.40001
1.40001
1.40001
1.40001
1.40001
1.40001
1.403
2.42916
4.82468
4.85716
4.67363
4.48834
1.40001
1.40001
1.40001
1.40001
1.40001
1.40001
1.40001
1.40001
1.40001
1.40001
1.40001
1.40001
1.40001
1.40001
1.40001
1.40001
1.40001
1.40001
1.40001
1.5214
3.6801
4.84241
4.71857
4.53898
1.40001
1.40001
1.40001
1.40001
1.40001
1.40001
1.40001
1.40001
1.40001
1.40001
1.40001
1.40001
1.40001
1.40001
1.40001
1.40001
1.40001
1.40001
1.40001
1.40163
2.03159
4.44932
4.77873
4.58101
1.40001
1.40001
1.40001
1.40001
1.40001
1.40001
1.40001
1.40001
1.40001
1.40001
1.40001
1.40001
1.40001
1.40001
1.40001
1.40001
1.40001
1.40001
1.40001
1.40001
1.4413
2.82644
4.74461
4.67224
1.40001
1.40001
1.40001
1.40001
1.40001
1.40001
1.40001
1.40001
1.40001
1.40001
1.40001
1.40001
1.40001
1.40001
1.40001
1.40001
1.40001
1.40001
1.40001
1.40001
1.40031
1.62232
3.56854
4.69042
1.40001
1.40001
1.40001
1.40001
1.40001
1.40001
1.40001
1.40001
1.40001
1.40001
1.40001
1.40001
1.40001
1.40001
1.40001
1.40001
1.40001
1.40001
1.40001
1.40001
1.40001
1.40512
1.96725
4.00323
1.40001
1.40001
1.40001
1.40001
1.40001
1.40001
1.40001
1.40001
1.40001
1.40001
1.40001
1.40001
1.40001
1.40001
1.40001
1.40001
1.40001
1.40001
1.40001
1.40001
1.40001
1.40002
1.43048
2.36895
1.40001
1.40001
1.40001
1.40001
1.40001
1.40001
1.40001
1.40001
1.40001
1.40001
1.40001
1.40001
1.40001
1.40001
1.40001
1.40001
1.40001
1.40001
1.40001
1.40001
1.40001
1.40001
1.40022
1.49226
1.40001
1.40001
1.40001
1.40001
1.40001
1.40001
1.40001
1.40001
1.40001
1.40001
1.40001
1.40001
1.40001
1.40001
1.40001
1.40001
1.40001
1.40001
1.40001
1.40001
1.40001
1.40001
1.40001
1.40114
1.40001
1.40001
1.40001
1.40001
1.40001
1.40001
1.40001
1.40001
1.40001
1.40001
1.40001
1.40001
1.40001
1.40001
1.40001
1.40001
1.40001
1.40001
1.40001
1.40001
1.40001
1.40001
1.40001
1.40001
1.40001
1.40001
1.40001
1.40001
1.40001
1.40001
1.40001
1.40001
1.40001
1.40001
1.40001
1.40001
1.40001
1.40001
1.40001
1.40001
1.40001
1.40001
1.40001
1.40001
1.40001
1.40001
1.40001
1.40001
1.40001
1.40001
1.40001
1.40001
1.40001
1.40001
1.40001
1.40001
1.40001
1.40001
1.40001
1.40001
1.40001
1.40001
1.40001
1.40001
1.40001
1.40001
1.40001
1.40001
1.40001
1.40001
1.40001
1.40001
1.40001
1.40001
1.40001
1.40001
1.40001
1.40001
1.40001
1.40001
1.40001
1.40001
1.40001
1.40001
1.40001
1.40001
1.40001
1.40001
1.40001
1.40001
1.40001
1.40001
1.40001
1.40001
1.40001
1.40001
1.40001
1.40001
1.40001
1.40001
1.40001
1.40001
1.40001
1.40001
1.40001
1.40001
1.40001
1.40001
1.40001
1.40001
1.40001
1.40001
1.40001
1.40001
1.40001
1.40001
1.40001
1.40001
1.40001
1.40001
1.40001
1.40001
1.40001
1.40001
1.40001
1.40001
1.40001
1.40001
1.40001
1.40001
1.40001
1.40001
1.40001
1.40001
1.40001
1.40001
1.40001
1.40001
1.40001
1.40001
1.40001
1.40001
1.40001
1.40001
1.40001
1.40001
1.40001
1.40001
1.40001
1.40001
1.40001
1.40001
1.40001
1.40001
1.40001
1.40001
1.40001
1.40001
1.40001
1.40001
1.40001
1.40001
1.40001
1.40001
1.40001
1.40001
1.40001
1.40001
1.40001
1.40001
1.40001
1.40001
1.40001
1.40001
1.40001
1.40001
1.40001
1.40001
1.40001
1.40001
1.40001
1.40001
1.40001
1.40001
1.40001
1.40001
1.40001
1.40001
1.40001
1.40001
1.40001
1.40001
1.40001
1.40001
1.40001
1.40001
1.40001
1.40001
1.40001
1.40001
1.40001
1.40001
1.40001
1.40001
1.40001
1.40001
1.40001
1.40001
1.40001
1.40001
1.40001
1.40001
1.40001
1.40001
1.40001
1.40001
1.40001
1.40001
1.40001
1.40001
1.40001
1.40001
1.40001
1.40001
1.40001
1.40001
1.40001
1.40001
1.40001
1.40001
1.40001
1.40001
1.40001
1.40001
1.40001
1.40001
1.40001
1.40001
1.40001
1.40001
1.40001
1.40001
1.40001
1.40001
1.40001
1.40001
1.40001
1.40001
1.40001
1.40001
1.40001
1.40001
1.40001
1.40001
1.40001
1.40001
1.40001
1.40001
1.40001
1.40001
1.40001
1.40001
1.40001
1.40001
1.40001
1.40001
1.40001
1.40001
1.40001
1.40001
1.40001
1.40001
1.40001
1.40001
1.40001
1.40001
1.40001
1.40001
1.40001
1.40001
1.40001
1.40001
1.40001
1.40001
1.40001
1.40001
1.40001
1.40001
1.40001
1.40001
1.40001
1.40001
1.40001
1.40001
1.40001
1.40001
1.40001
1.40001
1.40001
1.40001
1.40001
1.40001
1.40001
1.40001
1.40001
1.40001
1.40001
1.40001
1.40001
1.40001
1.40001
1.40001
2.53855
2.87656
3.10008
3.23371
3.31301
3.32255
3.35861
3.34365
3.30534
3.3148
3.23996
3.27235
3.31149
3.3052
3.31343
3.30889
3.53535
3.32585
3.21798
3.24532
3.26479
3.25271
3.24434
3.23276
3.73727
3.44659
3.29381
3.27477
3.24158
3.19784
3.13615
3.13719
3.90311
3.58656
3.35486
3.26051
3.19645
3.14022
3.04257
3.06556
4.02845
3.71746
3.44493
3.284
3.17629
3.10958
2.99618
3.02909
4.12523
3.84162
3.55376
3.34109
3.18609
3.0925
2.97883
3.00281
4.19438
3.94346
3.66976
3.42557
3.24847
3.12272
3.03282
3.00261
4.23965
4.02278
3.78706
3.55539
3.3571
3.17318
2.95118
2.42796
4.28315
4.08423
3.88373
3.69469
3.49771
3.26833
2.96116
2.48566
4.31152
4.12851
3.95979
3.81784
3.66357
3.41914
3.0681
2.66187
4.36155
4.18006
4.02632
3.92864
3.82034
3.59407
3.24711
2.88875
4.39211
4.23499
4.10847
4.05083
3.96624
3.75737
3.44175
3.1218
4.4649
4.26871
4.18712
4.1669
4.09059
3.87894
3.58979
3.33692
4.619
4.36146
4.28503
4.28667
4.1924
3.97592
3.7006
3.49017
4.64406
4.4916
4.4855
4.45347
4.28496
4.05219
3.79874
3.61245
4.2106
4.4567
4.72348
4.68262
4.43506
4.15763
3.88917
3.70465
2.65583
4.25663
4.83947
4.90895
4.59662
4.31297
4.05249
3.85143
1.56311
2.80937
4.73363
5.10971
4.76045
4.47493
4.18325
3.93127
1.4032
1.6012
3.33349
5.00397
4.9331
4.65826
4.33981
4.05571
1.40001
1.40395
1.79146
4.00137
4.84895
4.70199
4.44582
4.20066
1.40001
1.40001
1.41286
2.22066
4.34232
4.67404
4.4802
4.2112
1.40001
1.40001
1.40006
1.46177
2.67955
4.42657
4.50944
4.29289
1.40001
1.40001
1.40001
1.40059
1.56379
3.04463
4.39633
4.34384
1.40001
1.40001
1.40001
1.40001
1.403
1.70698
3.26408
4.27336
1.40001
1.40001
1.40001
1.40001
1.40001
1.40936
1.83522
3.32436
1.40001
1.40001
1.40001
1.40001
1.40001
1.40004
1.41873
1.89298
1.40001
1.40001
1.40001
1.40001
1.40001
1.40001
1.40011
1.42395
1.40001
1.40001
1.40001
1.40001
1.40001
1.40001
1.40001
1.40015
1.40001
1.40001
1.40001
1.40001
1.40001
1.40001
1.40001
1.40001
1.40001
1.40001
1.40001
1.40001
1.40001
1.40001
1.40001
1.40001
1.40001
1.40001
1.40001
1.40001
1.40001
1.40001
1.40001
1.40001
1.05336
0.541369
0.506056
0.548908
0.66069
0.766619
0.814839
0.828364
0.829554
0.811181
0.786653
0.761297
0.730683
0.695108
0.659445
0.627335
0.601181
0.580998
0.56608
0.549368
0.545588
0.549302
0.560381
0.590051
0.663931
0.745584
0.759678
0.759198
0.756223
0.747211
0.725936
0.67957
0.616662
0.592007
0.59546
0.605749
0.622178
0.649714
0.693725
0.743245
0.761095
0.761439
0.753224
0.750654
0.756141
0.772901
0.797372
0.823047
0.851697
0.887117
0.93013
0.980212
1.04681
1.16711
1.34341
1.41457
1.41663
1.40969
1.40566
1.40391
1.40108
1.39787
1.3951
1.39256
1.39086
1.3898
1.38958
1.39471
1.41624
1.441
1.44741
1.44768
1.44777
1.44773
1.44661
1.44116
1.4267
1.40799
1.40053
1.40001
1.4
1.4
1.4
1.4
1.4
1.4
1.40001
1.40001
1.45741
1.0204
0.896234
0.832591
0.812289
0.825821
0.832884
0.831123
0.818328
0.795659
0.778143
0.75661
0.72991
0.699504
0.670859
0.648865
0.622485
0.599008
0.585642
0.57224
0.564077
0.564714
0.570211
0.589943
0.652436
0.73873
0.764118
0.764713
0.761271
0.750144
0.725606
0.68846
0.647114
0.620195
0.618659
0.623568
0.635378
0.657061
0.688258
0.721341
0.749589
0.758534
0.761419
0.7643
0.77109
0.785374
0.804701
0.827199
0.855334
0.891559
0.935868
0.990663
1.06532
1.18933
1.34793
1.40585
1.40716
1.40104
1.39716
1.39532
1.39374
1.3921
1.39049
1.38913
1.38804
1.38724
1.38745
1.39579
1.4201
1.44302
1.44785
1.44801
1.44802
1.44754
1.44535
1.43981
1.42682
1.40868
1.40065
1.40001
1.4
1.4
1.4
1.4
1.4
1.4
1.40001
1.40001
1.89034
1.39437
1.16178
1.01331
0.887006
0.863531
0.862357
0.852613
0.836002
0.824316
0.81814
0.797516
0.767906
0.738311
0.705966
0.681522
0.656743
0.630173
0.612384
0.604684
0.593985
0.587175
0.589627
0.603409
0.653182
0.751569
0.797898
0.796449
0.786114
0.767897
0.740192
0.707627
0.677802
0.661547
0.661774
0.667029
0.677388
0.692646
0.708689
0.724933
0.744191
0.761773
0.775851
0.789554
0.805981
0.822586
0.836573
0.851725
0.873767
0.907074
0.953332
1.01465
1.09878
1.2346
1.38064
1.41585
1.41575
1.41012
1.40479
1.39983
1.39659
1.39455
1.39269
1.39115
1.38998
1.38925
1.38984
1.3994
1.42516
1.44581
1.44913
1.44918
1.44894
1.44788
1.4453
1.43893
1.42488
1.40724
1.40045
1.40001
1.4
1.4
1.4
1.4
1.4
1.4
1.40001
1.40001
2.27321
1.77512
1.45497
1.26723
1.09396
1.02044
0.990504
0.952381
0.893295
0.862433
0.849426
0.820156
0.786661
0.760092
0.726884
0.709244
0.692501
0.664472
0.647437
0.645608
0.640371
0.623804
0.620611
0.627867
0.658868
0.737095
0.822822
0.829037
0.821316
0.801208
0.771914
0.743077
0.71507
0.698416
0.697928
0.70201
0.706957
0.715054
0.726185
0.741777
0.763079
0.78668
0.81085
0.839099
0.868961
0.890838
0.905011
0.917817
0.934562
0.960531
1.00268
1.0634
1.14958
1.28821
1.40448
1.42015
1.42058
1.41832
1.41171
1.40213
1.39516
1.39268
1.39107
1.38955
1.38841
1.38791
1.38997
1.40357
1.43093
1.44827
1.45042
1.4505
1.45027
1.44901
1.44602
1.4386
1.42247
1.40525
1.40023
1.40001
1.4
1.4
1.4
1.4
1.4
1.4
1.40001
1.40001
2.60768
2.13982
1.78376
1.54098
1.33863
1.19961
1.12692
1.05268
0.956954
0.890355
0.871485
0.844081
0.818856
0.795993
0.769987
0.760165
0.747511
0.713136
0.698091
0.699614
0.698614
0.682426
0.654422
0.653878
0.666371
0.709258
0.805665
0.847061
0.850646
0.837479
0.8109
0.788528
0.765931
0.744456
0.729915
0.722772
0.722161
0.726985
0.73761
0.755683
0.784182
0.820763
0.86279
0.907167
0.940235
0.959541
0.973626
0.987887
1.00667
1.03615
1.08252
1.14399
1.22518
1.33931
1.42016
1.42978
1.43074
1.42995
1.42203
1.40478
1.39231
1.38852
1.38706
1.3859
1.38518
1.38538
1.39106
1.41024
1.43815
1.4509
1.45194
1.45202
1.45185
1.45061
1.44701
1.43745
1.41868
1.40313
1.40008
1.4
1.4
1.4
1.4
1.4
1.4
1.40001
1.40001
1.40001
2.9204
2.46287
2.12213
1.85523
1.60169
1.4048
1.29824
1.19097
1.08314
0.986768
0.959221
0.934786
0.899698
0.861916
0.836559
0.829576
0.81176
0.769787
0.743667
0.7451
0.744073
0.727813
0.685315
0.666505
0.669203
0.686427
0.753426
0.836075
0.849009
0.84058
0.821468
0.802357
0.785117
0.7694
0.75457
0.740752
0.736903
0.740818
0.753669
0.775857
0.810283
0.862207
0.926665
0.96944
0.990808
1.00829
1.0259
1.04606
1.07641
1.12143
1.17087
1.21838
1.27445
1.34932
1.41941
1.43849
1.44079
1.44087
1.43122
1.40533
1.3865
1.38236
1.38137
1.38059
1.38031
1.38278
1.39426
1.41916
1.44589
1.45408
1.45451
1.45461
1.45436
1.45272
1.44778
1.43478
1.41357
1.4014
1.40002
1.4
1.4
1.4
1.4
1.4
1.4
1.40001
1.40001
1.40001
3.17282
2.79124
2.42969
2.14189
1.86757
1.63695
1.48494
1.36536
1.23054
1.1165
1.07274
1.03051
0.986131
0.926679
0.903502
0.893568
0.865587
0.819524
0.79081
0.794178
0.793148
0.77277
0.723821
0.687975
0.683884
0.690551
0.716915
0.783905
0.829445
0.827793
0.816371
0.801564
0.78688
0.776673
0.770736
0.76373
0.762577
0.768726
0.781803
0.802552
0.838856
0.904548
0.979607
1.00683
1.01882
1.03607
1.05831
1.08785
1.13706
1.19718
1.23761
1.26667
1.30196
1.35692
1.42487
1.45092
1.45394
1.45347
1.43717
1.40043
1.37979
1.37688
1.37629
1.37602
1.37708
1.38352
1.40039
1.42958
1.45304
1.45768
1.45805
1.45829
1.45795
1.45541
1.44756
1.42946
1.40777
1.4004
1.40001
1.4
1.4
1.4
1.4
1.4
1.4
1.40001
1.40001
1.40001
3.3705
3.05016
2.70758
2.41742
2.14197
1.88333
1.68578
1.54722
1.42097
1.3052
1.22823
1.16493
1.09611
1.01512
0.999319
0.98443
0.949177
0.898316
0.872729
0.875326
0.864348
0.828532
0.771492
0.738764
0.722427
0.710351
0.714524
0.733499
0.77201
0.793892
0.793803
0.788106
0.780296
0.776382
0.776202
0.779194
0.786808
0.803006
0.825064
0.850531
0.888545
0.950176
1.00984
1.03653
1.05416
1.07479
1.09954
1.13595
1.19179
1.2424
1.27303
1.30042
1.33816
1.39871
1.45546
1.46825
1.47014
1.46342
1.42783
1.3857
1.37241
1.37114
1.37072
1.37096
1.37495
1.38623
1.40859
1.4405
1.45941
1.46211
1.46267
1.46299
1.46244
1.45857
1.44562
1.42118
1.40303
1.40006
1.4
1.4
1.4
1.4
1.4
1.4
1.40001
1.40001
1.40001
1.40001
3.50022
3.23735
2.93934
2.64956
2.36482
2.12788
1.9491
1.77959
1.56757
1.45152
1.39612
1.33529
1.24948
1.13855
1.10354
1.07428
1.02747
0.985396
0.964411
0.957352
0.931971
0.879823
0.804496
0.767505
0.756163
0.739154
0.721672
0.723312
0.730929
0.744421
0.752521
0.757156
0.762975
0.768746
0.773342
0.779808
0.794074
0.820889
0.858345
0.900716
0.950196
1.00427
1.04491
1.06998
1.09809
1.13599
1.1763
1.2169
1.25326
1.27906
1.30479
1.34451
1.40652
1.4671
1.48726
1.49041
1.48751
1.45918
1.40483
1.37186
1.36651
1.36599
1.36596
1.36775
1.37462
1.39036
1.41934
1.45311
1.46638
1.46776
1.46835
1.46857
1.46712
1.45928
1.4386
1.41119
1.40066
1.40001
1.4
1.4
1.4
1.4
1.4
1.40001
1.40001
1.40001
1.40001
1.40001
3.62886
3.35295
3.0713
2.83426
2.58892
2.32412
2.13722
1.97888
1.79126
1.62833
1.54407
1.47438
1.37268
1.27934
1.24005
1.19456
1.13566
1.05889
1.03174
1.02681
0.998367
0.943526
0.874348
0.811965
0.792695
0.775565
0.748156
0.733725
0.73141
0.729357
0.729999
0.733766
0.743025
0.753879
0.764735
0.778081
0.796128
0.824922
0.864338
0.915839
0.980373
1.03543
1.06592
1.08677
1.11791
1.16809
1.22733
1.27833
1.3115
1.33487
1.37158
1.43033
1.47584
1.48847
1.49263
1.49354
1.48093
1.43285
1.38026
1.36326
1.36085
1.36016
1.36029
1.36448
1.37576
1.39707
1.43282
1.46602
1.4747
1.47577
1.47644
1.47633
1.47251
1.45644
1.42557
1.40343
1.40006
1.4
1.4
1.4
1.4
1.4
1.4
1.40001
1.40001
1.40001
1.40001
1.40001
3.72857
3.4928
3.23645
2.9936
2.73446
2.4791
2.309
2.14936
1.95673
1.79038
1.71203
1.63215
1.51694
1.39528
1.34362
1.29887
1.24031
1.1512
1.10879
1.09238
1.04962
0.983752
0.921903
0.878046
0.850854
0.818095
0.768342
0.741133
0.734113
0.735217
0.737842
0.744717
0.75564
0.766554
0.775296
0.782909
0.795273
0.818334
0.860862
0.923132
0.989249
1.03644
1.0614
1.08297
1.1154
1.16556
1.22691
1.28059
1.32132
1.36749
1.42881
1.47138
1.47937
1.48209
1.48315
1.47613
1.44035
1.386
1.358
1.35277
1.35189
1.35245
1.35625
1.36591
1.38292
1.40959
1.44858
1.47796
1.48391
1.48506
1.4857
1.48472
1.47417
1.44458
1.4105
1.40043
1.40001
1.4
1.4
1.4
1.4
1.4
1.40001
1.40001
1.40001
1.40001
1.40001
1.40001
3.81445
3.56115
3.33419
3.14363
2.90469
2.63911
2.42873
2.2927
2.13131
1.9387
1.81561
1.74163
1.64022
1.52758
1.46515
1.41024
1.33585
1.21945
1.17123
1.15077
1.10554
1.04072
0.952084
0.906449
0.893041
0.870223
0.830197
0.783229
0.753903
0.749625
0.751382
0.761469
0.772247
0.77814
0.781615
0.786828
0.799687
0.828638
0.878363
0.943544
0.991419
1.01397
1.03092
1.05613
1.09552
1.14814
1.2042
1.25469
1.30593
1.37063
1.43747
1.46894
1.47404
1.47582
1.46798
1.42759
1.37266
1.3465
1.34245
1.34266
1.34452
1.34902
1.35673
1.36999
1.39146
1.42605
1.47074
1.49365
1.49681
1.49788
1.49801
1.49187
1.4656
1.42278
1.40179
1.40002
1.4
1.4
1.4
1.4
1.4
1.40001
1.40001
1.40001
1.40001
1.40001
1.40001
1.40001
3.93735
3.67402
3.41839
3.18093
2.98166
2.76283
2.56442
2.42105
2.269
2.0741
1.92465
1.83877
1.73427
1.6159
1.5572
1.51113
1.43462
1.30411
1.22921
1.19767
1.15173
1.08831
1.00497
0.960743
0.935958
0.90578
0.874472
0.841302
0.813519
0.802375
0.798964
0.799239
0.800304
0.797906
0.7966
0.799649
0.812512
0.849449
0.914052
0.974269
1.00297
1.01948
1.04023
1.07217
1.11352
1.14489
1.17193
1.2108
1.27739
1.36819
1.42928
1.43826
1.43962
1.43156
1.39315
1.34396
1.32702
1.3286
1.33228
1.33765
1.34635
1.35733
1.36781
1.37806
1.39862
1.44277
1.49416
1.5109
1.51289
1.51373
1.51105
1.48823
1.43945
1.4049
1.40007
1.4
1.4
1.4
1.4
1.4
1.4
1.40001
1.40001
1.40001
1.40001
1.40001
1.40001
1.40001
3.98251
3.75849
3.50477
3.25881
3.05925
2.8524
2.64586
2.49971
2.36376
2.18707
2.02023
1.92665
1.83222
1.70756
1.61507
1.56924
1.50123
1.37938
1.28378
1.24591
1.20092
1.13631
1.05255
1.02012
1.00266
0.972914
0.932919
0.89161
0.871118
0.866908
0.865708
0.864917
0.86111
0.850406
0.844691
0.848421
0.868314
0.912849
0.963317
0.996988
1.0183
1.03915
1.06482
1.09354
1.11834
1.14067
1.16793
1.21223
1.28641
1.3582
1.37565
1.37876
1.37732
1.35339
1.32491
1.31853
1.31998
1.32306
1.32702
1.33293
1.34339
1.35938
1.37727
1.39675
1.42881
1.48426
1.52492
1.53182
1.53312
1.53228
1.51191
1.45894
1.40998
1.40023
1.4
1.4
1.4
1.4
1.4
1.4
1.40001
1.40001
1.40001
1.40001
1.40001
1.40001
1.40001
1.40001
4.02863
3.79918
3.56545
3.33556
3.135
2.93652
2.72239
2.55201
2.42306
2.27267
2.11066
2.0064
1.91966
1.79924
1.67572
1.61376
1.55136
1.44418
1.33432
1.29153
1.25629
1.19978
1.1206
1.09153
1.0754
1.0445
1.00236
0.971339
0.954729
0.943647
0.935969
0.929628
0.919703
0.909872
0.911164
0.92419
0.961657
0.99797
1.01484
1.02973
1.05291
1.08636
1.11683
1.12989
1.13771
1.15143
1.18018
1.24103
1.31604
1.34074
1.34465
1.34642
1.34043
1.31944
1.31761
1.32262
1.32691
1.33284
1.34073
1.34757
1.35361
1.36228
1.37675
1.40877
1.47101
1.53576
1.5549
1.55704
1.5573
1.53751
1.4794
1.41613
1.40049
1.40001
1.4
1.4
1.4
1.4
1.4
1.40001
1.40001
1.40001
1.40001
1.40001
1.40001
1.40001
1.40001
1.40001
4.13279
3.87698
3.63754
3.40113
3.20781
3.02989
2.82141
2.62791
2.48434
2.34455
2.18999
2.0773
1.99421
1.88656
1.74925
1.66109
1.60491
1.51385
1.39769
1.35074
1.32645
1.28201
1.20832
1.17731
1.16196
1.12748
1.07513
1.05116
1.04166
1.03192
1.02239
1.01033
0.993144
0.987638
0.993567
1.02381
1.06686
1.08191
1.09148
1.10894
1.13757
1.17119
1.19207
1.19981
1.20713
1.22097
1.25001
1.29774
1.3324
1.33951
1.34267
1.34381
1.32645
1.30743
1.31112
1.31872
1.32638
1.33596
1.34895
1.3653
1.37989
1.39446
1.41866
1.47068
1.54674
1.58342
1.58728
1.58747
1.56485
1.49815
1.4214
1.40074
1.40001
1.4
1.4
1.4
1.4
1.40001
1.40001
1.40001
1.40001
1.40001
1.40001
1.40001
1.40001
1.40001
1.40001
1.40001
4.22228
4.01321
3.75681
3.50371
3.28787
3.12819
2.944
2.74095
2.58188
2.447
2.29061
2.16001
2.07126
1.97227
1.83735
1.72427
1.67545
1.6044
1.49053
1.43428
1.41817
1.38437
1.31551
1.2653
1.24471
1.21152
1.16197
1.14464
1.13817
1.12846
1.11258
1.0902
1.07752
1.07879
1.09962
1.14724
1.16699
1.16939
1.17769
1.19988
1.23666
1.25952
1.26466
1.27018
1.28126
1.30314
1.33561
1.35285
1.356
1.3608
1.36426
1.36077
1.33371
1.31647
1.32246
1.32999
1.33608
1.34323
1.35286
1.36782
1.39283
1.42935
1.486
1.56495
1.61666
1.6247
1.62274
1.59199
1.51176
1.42383
1.40081
1.40001
1.4
1.4
1.4
1.4
1.40001
1.40001
1.40001
1.40001
1.40001
1.40001
1.40001
1.40001
1.40001
1.40001
1.40001
1.40001
4.17157
4.09381
3.91798
3.66608
3.4136
3.23782
3.08055
2.87783
2.69179
2.57182
2.43041
2.27457
2.16925
2.07356
1.94296
1.81296
1.76768
1.71874
1.61913
1.54114
1.52344
1.49306
1.42487
1.35308
1.32993
1.30602
1.26555
1.25019
1.24597
1.23577
1.20852
1.1815
1.1766
1.18395
1.22505
1.26272
1.26653
1.26812
1.27837
1.30803
1.33953
1.34401
1.3453
1.35149
1.36524
1.3873
1.41022
1.41784
1.41816
1.41723
1.4135
1.39836
1.37031
1.36564
1.37301
1.38112
1.38915
1.399
1.41278
1.43443
1.46999
1.5271
1.60356
1.65663
1.66603
1.65828
1.61477
1.51728
1.42246
1.40066
1.40001
1.4
1.4
1.4
1.4
1.40001
1.40001
1.40001
1.40001
1.40001
1.40001
1.40001
1.40001
1.40001
1.40001
1.40001
1.40001
1.40001
3.26882
4.05947
4.00093
3.87417
3.62855
3.38768
3.22089
3.04504
2.82877
2.69145
2.57459
2.41928
2.29056
2.19304
2.06859
1.9328
1.8802
1.84177
1.76246
1.65965
1.62859
1.60099
1.53047
1.44706
1.42968
1.42092
1.39445
1.37915
1.3725
1.355
1.32353
1.31332
1.31493
1.33845
1.38091
1.39051
1.38868
1.38768
1.39647
1.42387
1.43854
1.4371
1.43655
1.44192
1.45739
1.47463
1.4749
1.47342
1.47288
1.46913
1.45536
1.42392
1.40564
1.40871
1.41591
1.42439
1.43578
1.45373
1.48239
1.52668
1.59039
1.66181
1.70154
1.70485
1.68652
1.62723
1.51092
1.41746
1.4004
1.40001
1.4
1.4
1.4
1.40001
1.40001
1.40001
1.40001
1.40001
1.40001
1.40001
1.40001
1.40001
1.40001
1.40001
1.40001
1.40001
1.40001
1.40001
1.86954
3.10298
3.93786
3.91373
3.81431
3.62814
3.42563
3.24095
3.02141
2.84144
2.72746
2.57818
2.43746
2.34136
2.22312
2.08369
2.02603
1.98685
1.91816
1.81244
1.76578
1.74882
1.69342
1.63623
1.63735
1.66761
1.69021
1.69154
1.68272
1.6726
1.67695
1.70523
1.75002
1.77922
1.77622
1.76177
1.73228
1.71073
1.69939
1.68393
1.6558
1.61635
1.58486
1.57017
1.5657
1.56952
1.56936
1.56398
1.55928
1.55242
1.53459
1.50762
1.50259
1.50743
1.5136
1.52219
1.53691
1.56431
1.61091
1.67362
1.72736
1.74416
1.73768
1.70427
1.62306
1.48998
1.41049
1.40017
1.40001
1.4
1.4
1.4
1.40001
1.40001
1.40001
1.40001
1.40001
1.40001
1.40001
1.40001
1.40001
1.40001
1.40001
1.40001
1.40001
1.40001
1.40001
1.40001
1.42198
1.77642
2.89671
3.69628
3.8256
3.78768
3.70101
3.52689
3.29912
3.05206
2.89529
2.74501
2.58416
2.48724
2.38937
2.26356
2.21991
2.21663
2.20019
2.17567
2.18467
2.24169
2.33916
2.41221
2.49012
2.6048
2.69789
2.71031
2.68521
2.6696
2.67257
2.69659
2.72769
2.71968
2.69455
2.65024
2.5865
2.5348
2.49002
2.43171
2.33263
2.18921
2.05679
1.96077
1.88203
1.81353
1.75986
1.71836
1.68644
1.65913
1.63246
1.61757
1.61586
1.61932
1.62688
1.64122
1.66775
1.71042
1.75706
1.77893
1.77698
1.75554
1.70451
1.59364
1.45837
1.40446
1.40005
1.40001
1.4
1.4
1.40001
1.40001
1.40001
1.40001
1.40001
1.40001
1.40001
1.40001
1.40001
1.40001
1.40001
1.40001
1.40001
1.40001
1.40001
1.40001
1.40001
1.40001
1.40013
1.41485
1.66081
2.52333
3.34039
3.78012
3.75889
3.6903
3.56696
3.36142
3.18767
3.07063
2.92661
2.85482
2.88563
2.94836
3.05668
3.22041
3.4536
3.61057
3.68233
3.79324
3.92972
3.93132
3.92432
3.94144
3.90845
3.82702
3.777
3.74539
3.70131
3.64938
3.58099
3.49685
3.42943
3.37527
3.32014
3.26419
3.20763
3.14575
3.06916
2.97129
2.83942
2.71149
2.5942
2.47026
2.33569
2.19998
2.07872
1.98681
1.92949
1.89398
1.86081
1.82153
1.79621
1.79379
1.80055
1.81061
1.80881
1.79224
1.75743
1.67717
1.53734
1.42727
1.40122
1.40001
1.40001
1.40001
1.40001
1.40001
1.40001
1.40001
1.40001
1.40001
1.40001
1.40001
1.40001
1.40001
1.40001
1.40001
1.40001
1.40001
1.40001
1.40001
1.40001
1.40001
1.40001
1.40001
1.40001
1.40007
1.40685
1.53206
2.09414
2.97377
3.608
3.65635
3.7408
3.86481
3.99568
4.16378
4.34107
4.47787
4.69112
4.87616
4.87444
4.86415
4.92352
4.85889
4.71509
4.66439
4.60206
4.47562
4.34451
4.25174
4.15449
4.04515
3.97813
3.93065
3.87676
3.81284
3.71693
3.60036
3.50895
3.44516
3.38978
3.33261
3.2736
3.20693
3.13315
3.07683
3.04831
3.0161
2.97135
2.91743
2.85005
2.76111
2.64845
2.52349
2.40059
2.28697
2.18375
2.09281
2.01794
1.95109
1.88386
1.82402
1.78889
1.73081
1.60901
1.47
1.40804
1.40019
1.40001
1.40001
1.40001
1.40001
1.40001
1.40001
1.40001
1.40001
1.40001
1.40001
1.40001
1.40001
1.40001
1.40001
1.40001
1.40001
1.40001
1.40001
1.40001
1.40001
1.40001
1.40001
1.40001
1.40001
1.40001
1.40001
1.40002
1.40209
1.45216
1.80795
2.7527
3.93976
4.93966
5.92609
6.70188
7.19909
7.39127
7.44562
7.49012
7.39253
7.05483
6.70189
6.50415
6.26708
5.94164
5.63646
5.38816
5.12185
4.81584
4.55473
4.37689
4.24265
4.12617
4.02807
3.93473
3.81901
3.65836
3.49642
3.43022
3.38852
3.34735
3.31123
3.2906
3.28315
3.28973
3.33427
3.40164
3.46196
3.50486
3.52454
3.51552
3.47469
3.38315
3.21666
2.98881
2.75289
2.56152
2.42128
2.30594
2.18989
2.05621
1.88937
1.68189
1.50908
1.42129
1.40132
1.40002
1.40001
1.40001
1.40001
1.40001
1.40001
1.40001
1.40001
1.40001
1.40001
1.40001
1.40001
1.40001
1.40001
1.40001
1.40001
1.40001
1.40001
1.40001
1.40001
1.40001
1.40001
1.40001
1.40001
1.40001
1.40001
)
;

boundaryField
{
    inlet
    {
        type            calculated;
        value           uniform 1.40001;
    }
    outlet
    {
        type            calculated;
        value           nonuniform List<scalar> 
24
(
1.40001
1.40001
1.40001
1.40001
1.40001
1.40001
1.40001
1.40001
1.40001
1.40001
1.40001
1.40001
1.40001
1.40001
1.40001
1.40001
1.40001
1.40001
1.40001
1.40001
1.40001
1.40001
1.40001
1.40001
)
;
    }
    bottom
    {
        type            calculated;
        value           nonuniform List<scalar> 
24
(
1.40001
1.40001
1.40001
1.40001
1.40001
1.40001
1.40001
1.40001
1.40001
1.40001
1.40001
1.40001
1.40001
1.40001
2.03467
4.97724
5.69101
5.74389
5.85085
5.89417
5.72663
5.43486
5.20904
5.13178
)
;
    }
    top
    {
        type            calculated;
        value           nonuniform List<scalar> 
120
(
1.40001
1.40001
1.40001
1.40001
1.40001
1.40001
1.40001
1.40001
1.40001
1.40001
1.40001
1.40001
1.40001
1.40001
1.40001
1.40001
1.40001
1.40001
1.40001
1.40001
1.40001
1.40001
1.40001
1.40001
1.40001
1.40001
1.40001
1.40001
1.40001
1.40001
1.40001
1.40001
1.40001
1.40001
1.40002
1.40209
1.45216
1.80795
2.7527
3.93976
4.93966
5.92609
6.70188
7.19909
7.39127
7.44562
7.49012
7.39253
7.05483
6.70189
6.50415
6.26708
5.94164
5.63646
5.38816
5.12185
4.81584
4.55473
4.37689
4.24265
4.12617
4.02807
3.93473
3.81901
3.65836
3.49642
3.43022
3.38852
3.34735
3.31123
3.2906
3.28315
3.28973
3.33427
3.40164
3.46196
3.50486
3.52454
3.51552
3.47469
3.38315
3.21666
2.98881
2.75289
2.56152
2.42128
2.30594
2.18989
2.05621
1.88937
1.68189
1.50908
1.42129
1.40132
1.40002
1.40001
1.40001
1.40001
1.40001
1.40001
1.40001
1.40001
1.40001
1.40001
1.40001
1.40001
1.40001
1.40001
1.40001
1.40001
1.40001
1.40001
1.40001
1.40001
1.40001
1.40001
1.40001
1.40001
1.40001
1.40001
)
;
    }
    obstacle
    {
        type            calculated;
        value           nonuniform List<scalar> 
112
(
5.13178
5.10506
5.06623
5.016
4.95679
4.86737
4.73581
4.57919
2.53855
2.87656
3.10008
3.23371
3.31301
3.32255
3.35861
3.34365
3.34365
3.30889
3.23276
3.13719
3.06556
3.02909
3.00281
3.00261
1.05336
0.541369
0.506056
0.548908
0.66069
0.766619
0.814839
0.828364
0.829554
0.811181
0.786653
0.761297
0.730683
0.695108
0.659445
0.627335
0.601181
0.580998
0.56608
0.549368
0.545588
0.549302
0.560381
0.590051
0.663931
0.745584
0.759678
0.759198
0.756223
0.747211
0.725936
0.67957
0.616662
0.592007
0.59546
0.605749
0.622178
0.649714
0.693725
0.743245
0.761095
0.761439
0.753224
0.750654
0.756141
0.772901
0.797372
0.823047
0.851697
0.887117
0.93013
0.980212
1.04681
1.16711
1.34341
1.41457
1.41663
1.40969
1.40566
1.40391
1.40108
1.39787
1.3951
1.39256
1.39086
1.3898
1.38958
1.39471
1.41624
1.441
1.44741
1.44768
1.44777
1.44773
1.44661
1.44116
1.4267
1.40799
1.40053
1.40001
1.4
1.4
1.4
1.4
1.4
1.4
1.40001
1.40001
)
;
    }
    defaultFaces
    {