/*--------------------------------*- C++ -*----------------------------------*\
  =========                 |
  \\      /  F ield         | OpenFOAM: The Open Source CFD Toolbox
   \\    /   O peration     | Website:  https://openfoam.org
    \\  /    A nd           | Version:  7
     \\/     M anipulation  |
\*---------------------------------------------------------------------------*/
FoamFile
{
    version     2.0;
    format      ascii;
    class       volScalarField;
    location    "0.5";
    object      rho;
}
// * * * * * * * * * * * * * * * * * * * * * * * * * * * * * * * * * * * * * //

dimensions      [1 -3 0 0 0 0 0];

internalField   nonuniform List<scalar> 
3328
(
1.40001
1.40001
1.40001
1.40001
1.40001
1.40001
1.40001
1.40001
1.40001
1.40001
1.40001
1.40001
1.40001
1.40001
2.03539
4.97769
5.69068
5.74335
5.85061
5.8942
5.72683
5.435
5.20906
5.13168
1.40001
1.40001
1.40001
1.40001
1.40001
1.40001
1.40001
1.40001
1.40001
1.40001
1.40001
1.40001
1.40001
1.40001
1.97069
4.90645
5.66608
5.75325
5.85295
5.88441
5.70647
5.40829
5.18255
5.10495
1.40001
1.40001
1.40001
1.40001
1.40001
1.40001
1.40001
1.40001
1.40001
1.40001
1.40001
1.40001
1.40001
1.40001
1.85252
4.78872
5.6544
5.75584
5.84874
5.8633
5.67392
5.36752
5.14395
5.06614
1.40001
1.40001
1.40001
1.40001
1.40001
1.40001
1.40001
1.40001
1.40001
1.40001
1.40001
1.40001
1.40001
1.40001
1.69061
4.59116
5.6454
5.75561
5.83986
5.83755
5.63654
5.32206
5.09579
5.01593
1.40001
1.40001
1.40001
1.40001
1.40001
1.40001
1.40001
1.40001
1.40001
1.40001
1.40001
1.40001
1.40001
1.40001
1.5193
4.29643
5.63138
5.74888
5.82136
5.80251
5.59137
5.27105
5.03753
4.95675
1.40001
1.40001
1.40001
1.40001
1.40001
1.40001
1.40001
1.40001
1.40001
1.40001
1.40001
1.40001
1.40001
1.40001
1.40449
3.91119
5.56533
5.73429
5.80002
5.7669
5.55148
5.22266
4.97322
4.86735
1.40001
1.40001
1.40001
1.40001
1.40001
1.40001
1.40001
1.40001
1.40001
1.40001
1.40001
1.40001
1.40001
1.40001
1.40002
3.40181
5.42436
5.7299
5.77839
5.72067
5.49173
5.1392
4.8482
4.73579
1.40001
1.40001
1.40001
1.40001
1.40001
1.40001
1.40001
1.40001
1.40001
1.40001
1.40001
1.40001
1.40001
1.40001
1.40001
2.86357
5.24193
5.70793
5.72499
5.64176
5.41874
5.07696
4.7308
4.57915
1.40001
1.40001
1.40001
1.40001
1.40001
1.40001
1.40001
1.40001
1.40001
1.40001
1.40001
1.40001
1.40001
1.40001
1.40001
2.27331
5.02632
5.68235
5.66048
5.55194
5.33075
4.97833
4.46918
3.80385
1.40001
1.40001
1.40001
1.40001
1.40001
1.40001
1.40001
1.40001
1.40001
1.40001
1.40001
1.40001
1.40001
1.40001
1.40001
1.70975
4.6437
5.63471
5.55953
5.44538
5.23819
4.89717
4.4276
3.84228
1.40001
1.40001
1.40001
1.40001
1.40001
1.40001
1.40001
1.40001
1.40001
1.40001
1.40001
1.40001
1.40001
1.40001
1.40001
1.41928
3.80053
5.48563
5.45826
5.36123
5.18067
4.88412
4.46585
3.97209
1.40001
1.40001
1.40001
1.40001
1.40001
1.40001
1.40001
1.40001
1.40001
1.40001
1.40001
1.40001
1.40001
1.40001
1.40001
1.4001
2.67207
5.21043
5.41263
5.28333
5.12194
4.87115
4.53263
4.12501
1.40001
1.40001
1.40001
1.40001
1.40001
1.40001
1.40001
1.40001
1.40001
1.40001
1.40001
1.40001
1.40001
1.40001
1.40001
1.40001
1.7292
4.66154
5.3776
5.22119
5.07057
4.86509
4.58592
4.25071
1.40001
1.40001
1.40001
1.40001
1.40001
1.40001
1.40001
1.40001
1.40001
1.40001
1.40001
1.40001
1.40001
1.40001
1.40001
1.40001
1.41474
3.5597
5.25565
5.17673
5.04334
4.85558
4.61477
4.33486
1.40001
1.40001
1.40001
1.40001
1.40001
1.40001
1.40001
1.40001
1.40001
1.40001
1.40001
1.40001
1.40001
1.40001
1.40001
1.40001
1.40005
2.23928
4.95307
5.16531
5.00804
4.84285
4.62863
4.38917
1.40001
1.40001
1.40001
1.40001
1.40001
1.40001
1.40001
1.40001
1.40001
1.40001
1.40001
1.40001
1.40001
1.40001
1.40001
1.40001
1.40001
1.49562
4.03205
5.08138
4.96372
4.82075
4.63771
4.42375
1.40001
1.40001
1.40001
1.40001
1.40001
1.40001
1.40001
1.40001
1.40001
1.40001
1.40001
1.40001
1.40001
1.40001
1.40001
1.40001
1.40001
1.40112
2.557
4.95022
4.96527
4.81414
4.64797
4.45068
1.40001
1.40001
1.40001
1.40001
1.40001
1.40001
1.40001
1.40001
1.40001
1.40001
1.40001
1.40001
1.40001
1.40001
1.40001
1.40001
1.40001
1.40001
1.56543
4.05854
4.9556
4.80751
4.64021
4.46523
1.40001
1.40001
1.40001
1.40001
1.40001
1.40001
1.40001
1.40001
1.40001
1.40001
1.40001
1.40001
1.40001
1.40001
1.40001
1.40001
1.40001
1.40001
1.403
2.42958
4.82505
4.85732
4.67379
4.48854
1.40001
1.40001
1.40001
1.40001
1.40001
1.40001
1.40001
1.40001
1.40001
1.40001
1.40001
1.40001
1.40001
1.40001
1.40001
1.40001
1.40001
1.40001
1.40001
1.52148
3.68074
4.84266
4.71879
4.5392
1.40001
1.40001
1.40001
1.40001
1.40001
1.40001
1.40001
1.40001
1.40001
1.40001
1.40001
1.40001
1.40001
1.40001
1.40001
1.40001
1.40001
1.40001
1.40001
1.40163
2.03193
4.45007
4.779
4.58112
1.40001
1.40001
1.40001
1.40001
1.40001
1.40001
1.40001
1.40001
1.40001
1.40001
1.40001
1.40001
1.40001
1.40001
1.40001
1.40001
1.40001
1.40001
1.40001
1.40001
1.44134
2.82741
4.74517
4.67233
1.40001
1.40001
1.40001
1.40001
1.40001
1.40001
1.40001
1.40001
1.40001
1.40001
1.40001
1.40001
1.40001
1.40001
1.40001
1.40001
1.40001
1.40001
1.40001
1.40001
1.40031
1.62259
3.56969
4.69056
1.40001
1.40001
1.40001
1.40001
1.40001
1.40001
1.40001
1.40001
1.40001
1.40001
1.40001
1.40001
1.40001
1.40001
1.40001
1.40001
1.40001
1.40001
1.40001
1.40001
1.40001
1.40513
1.96786
4.00438
1.40001
1.40001
1.40001
1.40001
1.40001
1.40001
1.40001
1.40001
1.40001
1.40001
1.40001
1.40001
1.40001
1.40001
1.40001
1.40001
1.40001
1.40001
1.40001
1.40001
1.40001
1.40002
1.43054
2.37
1.40001
1.40001
1.40001
1.40001
1.40001
1.40001
1.40001
1.40001
1.40001
1.40001
1.40001
1.40001
1.40001
1.40001
1.40001
1.40001
1.40001
1.40001
1.40001
1.40001
1.40001
1.40001
1.40022
1.49243
1.40001
1.40001
1.40001
1.40001
1.40001
1.40001
1.40001
1.40001
1.40001
1.40001
1.40001
1.40001
1.40001
1.40001
1.40001
1.40001
1.40001
1.40001
1.40001
1.40001
1.40001
1.40001
1.40001
1.40114
1.40001
1.40001
1.40001
1.40001
1.40001
1.40001
1.40001
1.40001
1.40001
1.40001
1.40001
1.40001
1.40001
1.40001
1.40001
1.40001
1.40001
1.40001
1.40001
1.40001
1.40001
1.40001
1.40001
1.40001
1.40001
1.40001
1.40001
1.40001
1.40001
1.40001
1.40001
1.40001
1.40001
1.40001
1.40001
1.40001
1.40001
1.40001
1.40001
1.40001
1.40001
1.40001
1.40001
1.40001
1.40001
1.40001
1.40001
1.40001
1.40001
1.40001
1.40001
1.40001
1.40001
1.40001
1.40001
1.40001
1.40001
1.40001
1.40001
1.40001
1.40001
1.40001
1.40001
1.40001
1.40001
1.40001
1.40001
1.40001
1.40001
1.40001
1.40001
1.40001
1.40001
1.40001
1.40001
1.40001
1.40001
1.40001
1.40001
1.40001
1.40001
1.40001
1.40001
1.40001
1.40001
1.40001
1.40001
1.40001
1.40001
1.40001
1.40001
1.40001
1.40001
1.40001
1.40001
1.40001
1.40001
1.40001
1.40001
1.40001
1.40001
1.40001
1.40001
1.40001
1.40001
1.40001
1.40001
1.40001
1.40001
1.40001
1.40001
1.40001
1.40001
1.40001
1.40001
1.40001
1.40001
1.40001
1.40001
1.40001
1.40001
1.40001
1.40001
1.40001
1.40001
1.40001
1.40001
1.40001
1.40001
1.40001
1.40001
1.40001
1.40001
1.40001
1.40001
1.40001
1.40001
1.40001
1.40001
1.40001
1.40001
1.40001
1.40001
1.40001
1.40001
1.40001
1.40001
1.40001
1.40001
1.40001
1.40001
1.40001
1.40001
1.40001
1.40001
1.40001
1.40001
1.40001
1.40001
1.40001
1.40001
1.40001
1.40001
1.40001
1.40001
1.40001
1.40001
1.40001
1.40001
1.40001
1.40001
1.40001
1.40001
1.40001
1.40001
1.40001
1.40001
1.40001
1.40001
1.40001
1.40001
1.40001
1.40001
1.40001
1.40001
1.40001
1.40001
1.40001
1.40001
1.40001
1.40001
1.40001
1.40001
1.40001
1.40001
1.40001
1.40001
1.40001
1.40001
1.40001
1.40001
1.40001
1.40001
1.40001
1.40001
1.40001
1.40001
1.40001
1.40001
1.40001
1.40001
1.40001
1.40001
1.40001
1.40001
1.40001
1.40001
1.40001
1.40001
1.40001
1.40001
1.40001
1.40001
1.40001
1.40001
1.40001
1.40001
1.40001
1.40001
1.40001
1.40001
1.40001
1.40001
1.40001
1.40001
1.40001
1.40001
1.40001
1.40001
1.40001
1.40001
1.40001
1.40001
1.40001
1.40001
1.40001
1.40001
1.40001
1.40001
1.40001
1.40001
1.40001
1.40001
1.40001
1.40001
1.40001
1.40001
1.40001
1.40001
1.40001
1.40001
1.40001
1.40001
1.40001
1.40001
1.40001
1.40001
1.40001
1.40001
1.40001
1.40001
1.40001
1.40001
1.40001
1.40001
1.40001
1.40001
1.40001
1.40001
1.40001
1.40001
1.40001
1.40001
1.40001
1.40001
1.40001
1.40001
1.40001
1.40001
1.40001
1.40001
1.40001
1.40001
1.40001
1.40001
1.40001
1.40001
1.40001
1.40001
1.40001
1.40001
1.40001
1.40001
1.40001
1.40001
1.40001
1.40001
1.40001
1.40001
1.40001
1.40001
1.40001
2.5383
2.87653
3.10017
3.23386
3.31324
3.32285
3.35894
3.3441
3.30515
3.31481
3.24006
3.27252
3.31174
3.30551
3.3137
3.30923
3.53526
3.32591
3.21807
3.24551
3.26502
3.25295
3.24452
3.23296
3.73719
3.44659
3.29389
3.2749
3.24176
3.19801
3.13625
3.13728
3.90301
3.58649
3.35487
3.26064
3.1966
3.14035
3.0426
3.06553
4.02829
3.71729
3.44482
3.28401
3.17638
3.10967
2.99613
3.02896
4.12516
3.84145
3.55359
3.34099
3.18612
3.09253
2.97872
3.00258
4.19444
3.94345
3.66957
3.42537
3.24836
3.12263
3.03264
3.00233
4.23974
4.02278
3.78692
3.55521
3.35691
3.17306
2.95113
2.42775
4.28326
4.08417
3.88361
3.69458
3.4975
3.26813
2.96116
2.48536
4.31174
4.12857
3.95967
3.81775
3.66342
3.41884
3.06791
2.66206
4.3617
4.1801
4.02622
3.92863
3.82032
3.59389
3.24682
2.88896
4.39207
4.23489
4.10854
4.05096
3.96631
3.75732
3.44148
3.12172
4.46485
4.26847
4.18724
4.16702
4.09066
3.87884
3.58961
3.33697
4.61916
4.36147
4.28505
4.28649
4.19212
3.97563
3.70023
3.49019
4.644
4.49165
4.48578
4.45337
4.28445
4.05157
3.79821
3.61231
4.21122
4.45723
4.72399
4.68243
4.43459
4.15727
3.88861
3.70433
2.65649
4.25806
4.84034
4.90865
4.59619
4.31286
4.05228
3.85141
1.56324
2.81086
4.73491
5.10981
4.76068
4.47535
4.18346
3.93114
1.40321
1.60159
3.33561
5.0043
4.93329
4.65918
4.34042
4.05586
1.40001
1.40396
1.79233
4.00271
4.84923
4.70238
4.4463
4.20105
1.40001
1.40001
1.4129
2.22153
4.3434
4.67444
4.48041
4.21123
1.40001
1.40001
1.40006
1.46188
2.68057
4.4276
4.50947
4.2926
1.40001
1.40001
1.40001
1.40059
1.56399
3.046
4.39668
4.34357
1.40001
1.40001
1.40001
1.40001
1.403
1.70749
3.26573
4.27296
1.40001
1.40001
1.40001
1.40001
1.40001
1.40938
1.83621
3.32392
1.40001
1.40001
1.40001
1.40001
1.40001
1.40004
1.41882
1.8929
1.40001
1.40001
1.40001
1.40001
1.40001
1.40001
1.40011
1.42394
1.40001
1.40001
1.40001
1.40001
1.40001
1.40001
1.40001
1.40015
1.40001
1.40001
1.40001
1.40001
1.40001
1.40001
1.40001
1.40001
1.40001
1.40001
1.40001
1.40001
1.40001
1.40001
1.40001
1.40001
1.40001
1.40001
1.40001
1.40001
1.40001
1.40001
1.40001
1.40001
1.05336
0.542928
0.504922
0.54772
0.660083
0.766212
0.81465
0.828982
0.83036
0.811309
0.786645
0.761259
0.730368
0.69466
0.659254
0.627282
0.601057
0.581075
0.56657
0.549823
0.545648
0.549203
0.560014
0.589631
0.66352
0.745195
0.759845
0.759397
0.75655
0.747848
0.726532
0.678887
0.614672
0.591067
0.594865
0.605509
0.622447
0.650705
0.69526
0.744042
0.760771
0.760943
0.752563
0.750364
0.756153
0.773329
0.797903
0.823355
0.851707
0.886647
0.928981
0.978452
1.04548
1.16809
1.34629
1.41564
1.41736
1.41057
1.40677
1.40438
1.401
1.3977
1.39476
1.39207
1.39035
1.3893
1.38908
1.39438
1.4164
1.44136
1.44762
1.44787
1.44795
1.44792
1.44673
1.44107
1.42634
1.40767
1.40048
1.40001
1.4
1.4
1.4
1.4
1.4
1.4
1.40001
1.40001
1.45584
1.02322
0.896633
0.831346
0.811366
0.825846
0.83314
0.831623
0.818455
0.795677
0.778022
0.75636
0.729814
0.699531
0.670856
0.648849
0.622543
0.598868
0.586031
0.572722
0.564034
0.564489
0.569865
0.58978
0.652578
0.738884
0.764287
0.764972
0.76159
0.750364
0.725691
0.68826
0.646146
0.619484
0.618292
0.623317
0.635434
0.65757
0.689172
0.722131
0.749693
0.758027
0.760878
0.763835
0.770936
0.785614
0.805048
0.8274
0.855258
0.891062
0.934917
0.989435
1.06466
1.19067
1.35043
1.40671
1.40779
1.4018
1.39798
1.39578
1.39373
1.39193
1.39017
1.38872
1.3876
1.38681
1.38704
1.39558
1.42026
1.44328
1.44803
1.44817
1.44819
1.44769
1.44548
1.43986
1.42659
1.40834
1.40058
1.40001
1.4
1.4
1.4
1.4
1.4
1.4
1.40001
1.40001
1.88806
1.39523
1.16342
1.01265
0.885716
0.864508
0.862913
0.852751
0.835827
0.824245
0.817888
0.79717
0.767934
0.738255
0.7059
0.681592
0.656734
0.629891
0.612448
0.604856
0.593757
0.586762
0.589255
0.60322
0.653651
0.752845
0.798266
0.796699
0.786116
0.767323
0.739371
0.707286
0.677503
0.661457
0.661686
0.667053
0.677611
0.692996
0.709119
0.725484
0.744666
0.761763
0.775396
0.789015
0.805792
0.82268
0.836633
0.851722
0.873702
0.90682
0.952801
1.01405
1.09865
1.23608
1.38259
1.41668
1.41653
1.41123
1.40549
1.40021
1.3966
1.39428
1.3923
1.39072
1.38954
1.38882
1.38944
1.39917
1.42528
1.44604
1.44928
1.44933
1.4491
1.44804
1.44542
1.43893
1.42461
1.40692
1.4004
1.40001
1.4
1.4
1.4
1.4
1.4
1.4
1.40001
1.40001
2.27206
1.77358
1.45699
1.26763
1.09236
1.02104
0.991174
0.952388
0.892534
0.862832
0.849685
0.819925
0.786699
0.759948
0.726627
0.709414
0.692511
0.664073
0.647594
0.645786
0.640091
0.622995
0.61993
0.627364
0.658729
0.738015
0.823616
0.829418
0.82152
0.800318
0.770753
0.742785
0.715416
0.698644
0.698117
0.702263
0.707137
0.715119
0.726197
0.742018
0.763516
0.786941
0.810629
0.838602
0.868588
0.890632
0.904913
0.917756
0.934411
0.960228
1.00227
1.06307
1.14986
1.28993
1.4061
1.4213
1.42172
1.41942
1.41243
1.40241
1.39511
1.39239
1.39068
1.38914
1.38799
1.3875
1.38957
1.4033
1.431
1.44847
1.45058
1.45066
1.45044
1.44918
1.44615
1.43857
1.42214
1.40498
1.4002
1.40001
1.4
1.4
1.4
1.4
1.4
1.40001
1.40001
1.40001
2.60799
2.1382
1.7837
1.54181
1.33842
1.19957
1.1274
1.0524
0.9559
0.890637
0.872118
0.844332
0.81906
0.795778
0.769903
0.760429
0.747275
0.712273
0.698629
0.700483
0.698971
0.681594
0.653505
0.653174
0.665823
0.709406
0.807243
0.847274
0.850556
0.836548
0.810002
0.788484
0.766496
0.745051
0.730212
0.72274
0.722101
0.72689
0.737407
0.755776
0.784715
0.821196
0.862822
0.907046
0.939733
0.959045
0.973358
0.987736
1.00648
1.03586
1.08205
1.1438
1.22621
1.34154
1.42166
1.43089
1.43179
1.43087
1.42254
1.40485
1.39197
1.38808
1.38665
1.38549
1.38477
1.38499
1.3907
1.40999
1.43818
1.45104
1.45207
1.45216
1.45201
1.45079
1.44715
1.43738
1.41832
1.40293
1.40007
1.4
1.4
1.4
1.4
1.4
1.4
1.40001
1.40001
1.40001
2.92003
2.46222
2.12266
1.85565
1.60106
1.40499
1.29823
1.19051
1.08241
0.986896
0.960172
0.935065
0.899687
0.861486
0.8367
0.829639
0.811179
0.768411
0.744487
0.746608
0.744901
0.726954
0.683828
0.666175
0.668909
0.686403
0.754852
0.836856
0.848781
0.839959
0.82097
0.802325
0.78531
0.769579
0.754477
0.740286
0.736521
0.740473
0.753409
0.775879
0.810596
0.862502
0.927377
0.970005
0.990782
1.00802
1.02572
1.04594
1.07622
1.12121
1.17067
1.21842
1.27516
1.35035
1.42061
1.43951
1.44177
1.44179
1.43175
1.40508
1.38588
1.38183
1.38086
1.38009
1.37982
1.38243
1.39408
1.41907
1.44597
1.4542
1.45462
1.45473
1.45449
1.45288
1.44788
1.43463
1.4132
1.40129
1.40002
1.4
1.4
1.4
1.4
1.4
1.4
1.40001
1.40001
1.40001
3.17301
2.79089
2.42901
2.14213
1.86809
1.63737
1.48451
1.36478
1.22911
1.11686
1.0735
1.03111
0.986125
0.926083
0.903569
0.893197
0.864523
0.81807
0.792079
0.796122
0.794136
0.771875
0.722305
0.688371
0.683827
0.690389
0.716993
0.784389
0.829032
0.827151
0.815992
0.80158
0.787064
0.776702
0.770428
0.763011
0.76193
0.768098
0.781273
0.802334
0.838938
0.904788
0.980488
1.00754
1.01914
1.03608
1.05817
1.08766
1.13723
1.19803
1.23834
1.26701
1.30201
1.35698
1.42571
1.45203
1.45498
1.45445
1.43751
1.39986
1.37917
1.37635
1.37575
1.37551
1.37671
1.38341
1.40044
1.42968
1.45322
1.45788
1.45825
1.45848
1.45813
1.45553
1.44754
1.42914
1.40745
1.40036
1.40001
1.4
1.4
1.4
1.4
1.4
1.40001
1.40001
1.40001
1.40001
3.37051
3.05015
2.70764
2.41694
2.14163
1.88368
1.68575
1.54695
1.42032
1.30463
1.22806
1.165
1.0956
1.01486
0.999793
0.984171
0.948126
0.896969
0.874825
0.877123
0.864837
0.827724
0.770116
0.739339
0.722621
0.709851
0.714053
0.73351
0.771965
0.793461
0.793526
0.78803
0.780323
0.776349
0.776007
0.778769
0.786312
0.802694
0.824668
0.850194
0.888556
0.950749
1.01023
1.03639
1.05399
1.07476
1.09966
1.13657
1.19358
1.24398
1.27367
1.30053
1.33778
1.39835
1.45626
1.46938
1.47124
1.46433
1.42787
1.38507
1.37188
1.37064
1.37023
1.37049
1.37463
1.38611
1.40855
1.44057
1.45968
1.4624
1.46295
1.46327
1.46269
1.4587
1.44548
1.42074
1.40283
1.40005
1.4
1.4
1.4
1.4
1.4
1.4
1.40001
1.40001
1.40001
1.40001
3.50005
3.23729
2.93959
2.64897
2.36409
2.12879
1.95002
1.77882
1.5665
1.45201
1.3961
1.33539
1.24876
1.1383
1.10426
1.07386
1.02677
0.984772
0.965692
0.958746
0.932775
0.879281
0.803009
0.767328
0.756717
0.739106
0.721128
0.72292
0.731196
0.744618
0.752249
0.756839
0.762575
0.768504
0.773138
0.779631
0.793833
0.820704
0.858054
0.900267
0.950081
1.00475
1.04488
1.06923
1.09727
1.13573
1.17711
1.21913
1.25585
1.28019
1.30434
1.34296
1.40511
1.46753
1.48867
1.49179
1.48893
1.45996
1.40443
1.37121
1.36596
1.36545
1.36542
1.36729
1.3743
1.39009
1.41903
1.45312
1.46673
1.46811
1.46869
1.4689
1.46744
1.45943
1.43828
1.41075
1.4006
1.40001
1.4
1.4
1.4
1.4
1.4
1.40001
1.40001
1.40001
1.40001
1.40001
3.62877
3.35257
3.07138
2.834
2.58784
2.32356
2.1384
1.97922
1.79113
1.6281
1.54387
1.47418
1.37216
1.28048
1.24058
1.19434
1.1346
1.05785
1.0324
1.02779
0.99938
0.943634
0.873654
0.811541
0.792635
0.775664
0.747699
0.733384
0.731994
0.729949
0.730345
0.733951
0.743048
0.753892
0.764855
0.777942
0.795735
0.82444
0.863965
0.91603
0.981286
1.03582
1.06534
1.08592
1.11733
1.16827
1.22856
1.27988
1.31258
1.33462
1.36931
1.42785
1.476
1.48973
1.49399
1.49502
1.48235
1.43316
1.37967
1.36264
1.36024
1.35956
1.3597
1.3639
1.37527
1.39658
1.43238
1.46613
1.4751
1.47619
1.47686
1.47673
1.47275
1.4563
1.425
1.40318
1.40005
1.4
1.4
1.4
1.4
1.4
1.4
1.40001
1.40001
1.40001
1.40001
1.40001
3.72816
3.49233
3.23617
2.99372
2.7341
2.47844
2.30907
2.14973
1.95712
1.79102
1.71242
1.63195
1.51605
1.39552
1.34412
1.29896
1.23924
1.14992
1.10997
1.09365
1.04998
0.982973
0.922012
0.878849
0.851277
0.817837
0.767558
0.741063
0.734481
0.735692
0.738551
0.745462
0.756303
0.766941
0.774818
0.781356
0.793126
0.816829
0.860828
0.924751
0.991008
1.0368
1.06066
1.08204
1.11495
1.16603
1.2283
1.28214
1.32151
1.36593
1.42681
1.47177
1.48032
1.48309
1.48423
1.47746
1.44114
1.38552
1.35727
1.35212
1.35124
1.35176
1.35553
1.36521
1.38218
1.40886
1.44821
1.47829
1.48443
1.48562
1.48628
1.48527
1.4744
1.44404
1.40994
1.40037
1.40001
1.4
1.4
1.4
1.4
1.4
1.40001
1.40001
1.40001
1.40001
1.40001
1.40001
3.81467
3.56029
3.33274
3.14305
2.90478
2.63947
2.42872
2.29223
2.1303
1.93894
1.81709
1.74226
1.63921
1.52703
1.4654
1.41015
1.33458
1.21786
1.17237
1.15187
1.10636
1.04039
0.94999
0.906668
0.893947
0.870943
0.830713
0.784106
0.753815
0.749166
0.750991
0.761643
0.772925
0.778647
0.781882
0.787067
0.799755
0.828187
0.878696
0.946015
0.993481
1.01404
1.03001
1.0552
1.09563
1.14961
1.20597
1.25571
1.30549
1.36848
1.43605
1.46958
1.47513
1.47698
1.46933
1.42851
1.37238
1.34567
1.34157
1.34187
1.34376
1.34824
1.35593
1.36913
1.39056
1.42531
1.47069
1.49435
1.4976
1.49862
1.49869
1.49224
1.46522
1.42194
1.4016
1.40001
1.4
1.4
1.4
1.4
1.4
1.40001
1.40001
1.40001
1.40001
1.40001
1.40001
1.40001
3.9378
3.67357
3.41754
3.18101
2.98133
2.76258
2.56618
2.42226
2.26808
2.07133
1.92398
1.83899
1.73373
1.61645
1.55833
1.5115
1.43322
1.30222
1.22988
1.198
1.1515
1.08733
1.00469
0.96042
0.935126
0.905608
0.875323
0.842267
0.813673
0.801029
0.798486
0.799302
0.800906
0.798595
0.797164
0.800379
0.813233
0.849909
0.915143
0.975677
1.0033
1.01932
1.0398
1.07193
1.11407
1.14601
1.17306
1.21091
1.27605
1.36647
1.42926
1.43891
1.4403
1.43233
1.39359
1.34353
1.32627
1.32785
1.33145
1.33682
1.34549
1.35636
1.36676
1.377
1.39762
1.44226
1.49467
1.51193
1.51393
1.51472
1.5118
1.48814
1.4384
1.40448
1.40006
1.4
1.4
1.4
1.4
1.4
1.40001
1.40001
1.40001
1.40001
1.40001
1.40001
1.40001
1.40001
3.98251
3.75833
3.5046
3.25935
3.05947
2.85134
2.64553
2.50101
2.36389
2.18483
2.01884
1.92631
1.83103
1.70571
1.61694
1.5716
1.50161
1.3771
1.28366
1.24623
1.2002
1.1338
1.05191
1.02138
1.00269
0.972746
0.932434
0.889945
0.871026
0.866675
0.865562
0.865051
0.861517
0.850483
0.844351
0.84814
0.868241
0.914097
0.965297
0.99785
1.01804
1.03827
1.06411
1.09376
1.11913
1.14135
1.16818
1.21184
1.28517
1.35808
1.37656
1.37956
1.37818
1.35371
1.32448
1.31783
1.31928
1.32241
1.32625
1.33212
1.3425
1.3583
1.37615
1.39569
1.42801
1.48442
1.52603
1.53307
1.53443
1.53349
1.51223
1.45779
1.40924
1.40019
1.4
1.4
1.4
1.4
1.4
1.4
1.40001
1.40001
1.40001
1.40001
1.40001
1.40001
1.40001
1.40001
4.02868
3.79897
3.56518
3.33633
3.13578
2.93558
2.72092
2.55277
2.42344
2.27119
2.10929
2.00679
1.91943
1.7975
1.67642
1.61606
1.55198
1.44168
1.33308
1.29148
1.2557
1.19802
1.12056
1.09261
1.07571
1.04439
1.00196
0.970153
0.954044
0.943169
0.935548
0.929642
0.919859
0.90924
0.910429
0.923381
0.961771
1.00049
1.01725
1.03133
1.05318
1.08521
1.11631
1.13039
1.13833
1.15168
1.17959
1.23969
1.31559
1.34138
1.34526
1.34703
1.34108
1.31928
1.31682
1.32186
1.32615
1.3322
1.34017
1.34683
1.35284
1.36138
1.37566
1.40776
1.47052
1.53698
1.55638
1.55861
1.55869
1.53805
1.47828
1.4151
1.40041
1.40001
1.4
1.4
1.4
1.4
1.40001
1.40001
1.40001
1.40001
1.40001
1.40001
1.40001
1.40001
1.40001
1.40001
4.13271
3.87727
3.63717
3.4013
3.20872
3.02914
2.81958
2.6282
2.4848
2.34336
2.18823
2.07758
1.99501
1.88643
1.74915
1.66322
1.60548
1.51101
1.39523
1.35079
1.32614
1.28068
1.20845
1.17921
1.16288
1.12635
1.0732
1.05063
1.04161
1.03209
1.0227
1.01079
0.992853
0.986203
0.991343
1.02111
1.06905
1.08519
1.09347
1.10964
1.13695
1.17034
1.19251
1.20054
1.20768
1.22097
1.24909
1.29678
1.33264
1.33998
1.34308
1.34443
1.32715
1.30696
1.31031
1.31793
1.32549
1.33513
1.34828
1.36447
1.37909
1.39381
1.41792
1.47003
1.54741
1.5852
1.58898
1.58901
1.5654
1.49684
1.42015
1.40063
1.40001
1.4
1.4
1.4
1.4
1.40001
1.40001
1.40001
1.40001
1.40001
1.40001
1.40001
1.40001
1.40001
1.40001
1.40001
4.22237
4.01363
3.75695
3.50312
3.28824
3.12822
2.94268
2.74019
2.58221
2.44619
2.289
2.16
2.0722
1.97269
1.83676
1.72546
1.67596
1.60199
1.48725
1.43468
1.41853
1.38393
1.31556
1.26715
1.24539
1.20981
1.16047
1.14488
1.13838
1.12865
1.11321
1.09054
1.07645
1.07707
1.09551
1.14533
1.17092
1.17337
1.18025
1.19995
1.23527
1.26027
1.26574
1.27063
1.28092
1.30191
1.33456
1.3533
1.35678
1.36148
1.36493
1.36182
1.33453
1.31605
1.32184
1.32942
1.33538
1.3425
1.35219
1.36703
1.3917
1.4282
1.48528
1.56546
1.61857
1.627
1.62487
1.59294
1.51032
1.4224
1.40069
1.40001
1.4
1.4
1.4
1.4
1.40001
1.40001
1.40001
1.40001
1.40001
1.40001
1.40001
1.40001
1.40001
1.40001
1.40001
1.40001
4.17248
4.09484
3.91695
3.66513
3.41227
3.23784
3.08076
2.87788
2.69167
2.5708
2.42846
2.27391
2.17005
2.07388
1.94218
1.81285
1.76791
1.7174
1.61584
1.54178
1.52466
1.49324
1.42469
1.35398
1.33011
1.30461
1.26487
1.25085
1.24654
1.2363
1.20916
1.18072
1.17511
1.18138
1.22127
1.26436
1.27027
1.27132
1.2795
1.30583
1.33965
1.34612
1.34719
1.35227
1.36464
1.38573
1.4094
1.41826
1.41872
1.41781
1.41418
1.39933
1.37046
1.36498
1.37229
1.38052
1.38852
1.39819
1.41201
1.43387
1.46954
1.52697
1.60483
1.65864
1.66812
1.65993
1.61542
1.51578
1.4211
1.40056
1.40001
1.4
1.4
1.4
1.4
1.40001
1.40001
1.40001
1.40001
1.40001
1.40001
1.40001
1.40001
1.40001
1.40001
1.40001
1.40001
1.40001
3.27059
4.06058
4.00122
3.87386
3.62638
3.38584
3.22032
3.04539
2.82969
2.69224
2.57378
2.41782
2.29037
2.19276
2.06747
1.93221
1.88055
1.84172
1.76086
1.65976
1.63045
1.60145
1.52929
1.44673
1.42986
1.4204
1.39441
1.38022
1.37351
1.35568
1.32289
1.31168
1.3129
1.33504
1.38029
1.39302
1.39183
1.38951
1.39565
1.42073
1.44019
1.4399
1.43866
1.44239
1.45623
1.47344
1.47435
1.47346
1.47346
1.46997
1.45635
1.42431
1.40481
1.40769
1.4149
1.42343
1.43492
1.45295
1.48174
1.52638
1.59069
1.66313
1.70377
1.70702
1.68811
1.62779
1.50915
1.41631
1.40034
1.40001
1.4
1.4
1.4
1.40001
1.40001
1.40001
1.40001
1.40001
1.40001
1.40001
1.40001
1.40001
1.40001
1.40001
1.40001
1.40001
1.40001
1.40001
1.87082
3.10759
3.93869
3.91273
3.81355
3.62686
3.42559
3.24169
3.02182
2.84218
2.7275
2.57691
2.43759
2.34095
2.22135
2.08293
2.02685
1.98748
1.91791
1.81235
1.76803
1.74953
1.69063
1.63518
1.63743
1.66849
1.69092
1.69215
1.68264
1.67138
1.675
1.70247
1.74723
1.77945
1.77757
1.76384
1.73326
1.70806
1.69654
1.68209
1.65636
1.61947
1.58569
1.56931
1.56442
1.56794
1.56815
1.56326
1.55934
1.5533
1.53615
1.50779
1.50159
1.50643
1.5127
1.5213
1.53617
1.56389
1.61103
1.67461
1.72875
1.74607
1.73897
1.70521
1.62288
1.48813
1.40972
1.40014
1.40001
1.4
1.4
1.4
1.40001
1.40001
1.40001
1.40001
1.40001
1.40001
1.40001
1.40001
1.40001
1.40001
1.40001
1.40001
1.40001
1.40001
1.40001
1.40001
1.42215
1.77889
2.90005
3.69535
3.82531
3.78777
3.70023
3.527
3.29962
3.05247
2.89619
2.74386
2.584
2.48754
2.38781
2.26245
2.22108
2.21845
2.20104
2.17525
2.18415
2.2429
2.33727
2.4093
2.49028
2.60893
2.69949
2.70989
2.68391
2.66726
2.6695
2.69321
2.72673
2.72158
2.69782
2.65309
2.58564
2.5312
2.48653
2.43046
2.33586
2.19286
2.05511
1.95631
1.87796
1.81078
1.75769
1.71642
1.6854
1.65955
1.63379
1.61747
1.61508
1.61847
1.62606
1.64035
1.66721
1.71074
1.7582
1.78046
1.77856
1.75657
1.70527
1.59265
1.45662
1.40408
1.40004
1.4
1.4
1.4
1.40001
1.40001
1.40001
1.40001
1.40001
1.40001
1.40001
1.40001
1.40001
1.40001
1.40001
1.40001
1.40001
1.40001
1.40001
1.40001
1.40001
1.40001
1.40013
1.41502
1.6617
2.52304
3.34104
3.78177
3.75742
3.68822
3.56685
3.3619
3.18897
3.07054
2.92493
2.8555
2.88617
2.94774
3.05559
3.22391
3.45657
3.6084
3.68056
3.79506
3.92853
3.92907
3.92596
3.94397
3.90731
3.82483
3.77758
3.74603
3.70115
3.64928
3.58128
3.49741
3.42941
3.37305
3.31777
3.26287
3.20825
3.14806
3.07217
2.97328
2.83761
2.70747
2.59006
2.46673
2.33305
2.19768
2.07686
1.98572
1.92911
1.89384
1.85981
1.81921
1.79521
1.79338
1.80105
1.812
1.81047
1.79397
1.75862
1.67713
1.53568
1.42608
1.40109
1.40001
1.40001
1.40001
1.40001
1.40001
1.40001
1.40001
1.40001
1.40001
1.40001
1.40001
1.40001
1.40001
1.40001
1.40001
1.40001
1.40001
1.40001
1.40001
1.40001
1.40001
1.40001
1.40001
1.40001
1.40007
1.40686
1.53208
2.09456
2.9777
3.6079
3.6549
3.74066
3.86593
3.99687
4.16489
4.33957
4.4766
4.6938
4.87733
4.87403
4.86633
4.92379
4.85224
4.71382
4.66718
4.6042
4.47579
4.34486
4.25067
4.15083
4.04355
3.97857
3.93117
3.87759
3.81402
3.71718
3.59984
3.50801
3.44389
3.38859
3.33287
3.27473
3.20877
3.13412
3.07569
3.04724
3.01558
2.97142
2.91825
2.85157
2.76296
2.64985
2.52353
2.39909
2.28449
2.18059
2.09019
2.01686
1.95144
1.88495
1.82528
1.79024
1.73154
1.60791
1.46825
1.40752
1.40017
1.40001
1.40001
1.40001
1.40001
1.40001
1.40001
1.40001
1.40001
1.40001
1.40001
1.40001
1.40001
1.40001
1.40001
1.40001
1.40001
1.40001
1.40001
1.40001
1.40001
1.40001
1.40001
1.40001
1.40001
1.40001
1.40001
1.40002
1.4021
1.45231
1.80955
2.75714
3.94257
4.93995
5.92822
6.70482
7.20115
7.3879
7.4469
7.4942
7.39488
7.05127
6.70109
6.50329
6.26184
5.93687
5.63842
5.39241
5.1223
4.81251
4.55084
4.37494
4.24285
4.12803
4.03075
3.93711
3.82089
3.65753
3.49328
3.4287
3.38817
3.34737
3.31284
3.29189
3.28448
3.29016
3.33304
3.4019
3.4647
3.50956
3.53023
3.52173
3.48125
3.38931
3.2194
2.98589
2.74639
2.55598
2.41897
2.30625
2.19149
2.05765
1.88956
1.68047
1.50728
1.42041
1.4012
1.40002
1.40001
1.40001
1.40001
1.40001
1.40001
1.40001
1.40001
1.40001
1.40001
1.40001
1.40001
1.40001
1.40001
1.40001
1.40001
1.40001
1.40001
1.40001
1.40001
1.40001
1.40001
1.40001
1.40001
1.40001
1.40001
)
;

boundaryField
{
    inlet
    {
        type            calculated;
        value           uniform 1.40001;
    }
    outlet
    {
        type            calculated;
        value           nonuniform List<scalar> 
24
(
1.40001
1.40001
1.40001
1.40001
1.40001
1.40001
1.40001
1.40001
1.40001
1.40001
1.40001
1.40001
1.40001
1.40001
1.40001
1.40001
1.40001
1.40001
1.40001
1.40001
1.40001
1.40001
1.40001
1.40001
)
;
    }
    bottom
    {
        type            calculated;
        value           nonuniform List<scalar> 
24
(
1.40001
1.40001
1.40001
1.40001
1.40001
1.40001
1.40001
1.40001
1.40001
1.40001
1.40001
1.40001
1.40001
1.40001
2.03539
4.97769
5.69068
5.74335
5.85061
5.8942
5.72683
5.435
5.20906
5.13168
)
;
    }
    top
    {
        type            calculated;
        value           nonuniform List<scalar> 
120
(
1.40001
1.40001
1.40001
1.40001
1.40001
1.40001
1.40001
1.40001
1.40001
1.40001
1.40001
1.40001
1.40001
1.40001
1.40001
1.40001
1.40001
1.40001
1.40001
1.40001
1.40001
1.40001
1.40001
1.40001
1.40001
1.40001
1.40001
1.40001
1.40001
1.40001
1.40001
1.40001
1.40001
1.40001
1.40002
1.4021
1.45231
1.80955
2.75714
3.94257
4.93995
5.92822
6.70482
7.20115
7.3879
7.4469
7.4942
7.39488
7.05127
6.70109
6.50329
6.26184
5.93687
5.63842
5.39241
5.1223
4.81251
4.55084
4.37494
4.24285
4.12803
4.03075
3.93711
3.82089
3.65753
3.49328
3.4287
3.38817
3.34737
3.31284
3.29189
3.28448
3.29016
3.33304
3.4019
3.4647
3.50956
3.53023
3.52173
3.48125
3.38931
3.2194
2.98589
2.74639
2.55598
2.41897
2.30625
2.19149
2.05765
1.88956
1.68047
1.50728
1.42041
1.4012
1.40002
1.40001
1.40001
1.40001
1.40001
1.40001
1.40001
1.40001
1.40001
1.40001
1.40001
1.40001
1.40001
1.40001
1.40001
1.40001
1.40001
1.40001
1.40001
1.40001
1.40001
1.40001
1.40001
1.40001
1.40001
1.40001
)
;
    }
    obstacle
    {
        type            calculated;
        value           nonuniform List<scalar> 
112
(
5.13168
5.10495
5.06614
5.01593
4.95675
4.86735
4.73579
4.57915
2.5383
2.87653
3.10017
3.23386
3.31324
3.32285
3.35894
3.3441
3.3441
3.30923
3.23296
3.13728
3.06553
3.02896
3.00258
3.00233
1.05336
0.542928
0.504922
0.54772
0.660083
0.766212
0.81465
0.828982
0.83036
0.811309
0.786645
0.761259
0.730368
0.69466
0.659254
0.627282
0.601057
0.581075
0.56657
0.549823
0.545648
0.549203
0.560014
0.589631
0.66352
0.745195
0.759845
0.759397
0.75655
0.747848
0.726532
0.678887
0.614672
0.591067
0.594865
0.605509
0.622447
0.650705
0.69526
0.744042
0.760771
0.760943
0.752563
0.750364
0.756153
0.773329
0.797903
0.823355
0.851707
0.886647
0.928981
0.978452
1.04548
1.16809
1.34629
1.41564
1.41736
1.41057
1.40677
1.40438
1.401
1.3977
1.39476
1.39207
1.39035
1.3893
1.38908
1.39438
1.4164
1.44136
1.44762
1.44787
1.44795
1.44792
1.44673
1.44107
1.42634
1.40767
1.40048
1.40001
1.4
1.4
1.4
1.4
1.4
1.4
1.40001
1.40001
)
;
    }
    defaultFaces
    {
        type            empty;
    }
}

