/*--------------------------------*- C++ -*----------------------------------*\
  =========                 |
  \\      /  F ield         | OpenFOAM: The Open Source CFD Toolbox
   \\    /   O peration     | Website:  https://openfoam.org
    \\  /    A nd           | Version:  7
     \\/     M anipulation  |
\*---------------------------------------------------------------------------*/
FoamFile
{
    version     2.0;
    format      ascii;
    class       volScalarField;
    location    "1";
    object      T;
}
// * * * * * * * * * * * * * * * * * * * * * * * * * * * * * * * * * * * * * //

dimensions      [0 0 0 1 0 0 0];

internalField   nonuniform List<scalar> 
16512
(
1
1
1
1
1
1
1
1
1
1
1
1
1
1
1
1
1
1
1
1
1
1
1
1
1
1
1
1
1
1
1
1
1
1
1
1
1
1
1
1
1
1
1
1
1
1
1
1
1
1
1
1
1
1
1
1
1
1
1
1
1
1
1
1
1
1
1
1
1
1
1
1
1
1
1
1
1
1
1
1
1
1
1
1
1
1
1
1
1
1
1
1
1
1
1
1
1
1
1
1
1
1
1
1
1
1
1
1
1
1
1
1
1
1
1
1
1
1
1
1
1
1
1
1
1
1
1
1
1
1
1
1
1
1
1
1
1
1
1
1
1
1
1
1
1
1
2.23022
2.67629
2.69619
2.70615
2.71571
2.72408
2.73128
2.73679
2.74056
2.74263
2.74322
2.74301
2.74303
2.74414
2.74778
2.75467
2.76391
2.77304
2.77939
2.78194
2.78193
2.78174
2.78239
2.78465
2.7885
2.79278
2.79603
2.79755
2.79776
2.79753
2.79759
2.79901
2.80236
2.80714
2.81225
2.81644
2.81881
2.81933
2.81951
2.8207
2.82465
2.83181
2.84213
2.85428
2.86339
2.86666
1
1
1
1
1
1
1
1
1
1
1
1
1
1
1
1
1
1
1
1
1
1
1
1
1
1
1
1
1
1
1
1
1
1
1
1
1
1
1
1
1
1
1
1
1
1
1
1
1
1
1
1
1
1
1
1
1
1
1
1
1
1
1
1
1
1
1
1
1
1
1
1
1
1
1
1
1
1
1
1
1
1
1
1
1
1
1
1
1
1
1
1
1
1
1
1
1
1
1
1
1
1
1
1
1
1
1
1
1
1
1
1
1
1
1
1
1
1
1
1
1
1
1
1
1
1
1
1
1
1
1
1
1
1
1
1
1
1
1
1
1
1
1
1
1
1
2.22605
2.67615
2.69615
2.70609
2.71569
2.72402
2.73114
2.73658
2.74031
2.74237
2.74293
2.74269
2.74269
2.74387
2.74761
2.75458
2.76387
2.77299
2.77931
2.78178
2.78177
2.78161
2.78228
2.78456
2.78842
2.79266
2.79587
2.79737
2.79757
2.79736
2.79748
2.79893
2.80227
2.80699
2.81205
2.81622
2.81859
2.81919
2.81944
2.82066
2.82451
2.83153
2.84186
2.854
2.8631
2.86643
1
1
1
1
1
1
1
1
1
1
1
1
1
1
1
1
1
1
1
1
1
1
1
1
1
1
1
1
1
1
1
1
1
1
1
1
1
1
1
1
1
1
1
1
1
1
1
1
1
1
1
1
1
1
1
1
1
1
1
1
1
1
1
1
1
1
1
1
1
1
1
1
1
1
1
1
1
1
1
1
1
1
1
1
1
1
1
1
1
1
1
1
1
1
1
1
1
1
1
1
1
1
1
1
1
1
1
1
1
1
1
1
1
1
1
1
1
1
1
1
1
1
1
1
1
1
1
1
1
1
1
1
1
1
1
1
1
1
1
1
1
1
1
1
1
1
2.21564
2.67606
2.69597
2.70592
2.71569
2.72401
2.73099
2.7363
2.73995
2.74198
2.74254
2.74233
2.74237
2.7436
2.74742
2.75442
2.76372
2.77279
2.77906
2.78149
2.78151
2.78136
2.78205
2.78436
2.78822
2.79243
2.79557
2.79701
2.7972
2.79702
2.79723
2.7988
2.80217
2.80682
2.81182
2.81591
2.81821
2.81885
2.8192
2.82056
2.82436
2.83125
2.8416
2.85367
2.86267
2.866
1
1
1
1
1
1
1
1
1
1
1
1
1
1
1
1
1
1
1
1
1
1
1
1
1
1
1
1
1
1
1
1
1
1
1
1
1
1
1
1
1
1
1
1
1
1
1
1
1
1
1
1
1
1
1
1
1
1
1
1
1
1
1
1
1
1
1
1
1
1
1
1
1
1
1
1
1
1
1
1
1
1
1
1
1
1
1
1
1
1
1
1
1
1
1
1
1
1
1
1
1
1
1
1
1
1
1
1
1
1
1
1
1
1
1
1
1
1
1
1
1
1
1
1
1
1
1
1
1
1
1
1
1
1
1
1
1
1
1
1
1
1
1
1
1
1
2.19901
2.676
2.69576
2.70575
2.71564
2.72395
2.73079
2.73598
2.73957
2.74158
2.74218
2.74204
2.74216
2.74344
2.74723
2.75417
2.76335
2.77228
2.77853
2.78101
2.78115
2.78102
2.78172
2.78404
2.78787
2.79202
2.79509
2.79646
2.79662
2.79649
2.79681
2.7985
2.80193
2.80655
2.8115
2.81552
2.81774
2.81839
2.81881
2.82031
2.82407
2.83083
2.84122
2.85321
2.86209
2.86539
1
1
1
1
1
1
1
1
1
1
1
1
1
1
1
1
1
1
1
1
1
1
1
1
1
1
1
1
1
1
1
1
1
1
1
1
1
1
1
1
1
1
1
1
1
1
1
1
1
1
1
1
1
1
1
1
1
1
1
1
1
1
1
1
1
1
1
1
1
1
1
1
1
1
1
1
1
1
1
1
1
1
1
1
1
1
1
1
1
1
1
1
1
1
1
1
1
1
1
1
1
1
1
1
1
1
1
1
1
1
1
1
1
1
1
1
1
1
1
1
1
1
1
1
1
1
1
1
1
1
1
1
1
1
1
1
1
1
1
1
1
1
1
1
1
1
2.17669
2.67623
2.69535
2.70517
2.715
2.72335
2.73029
2.73555
2.73921
2.74129
2.74199
2.74195
2.74215
2.74345
2.74709
2.75374
2.76261
2.77131
2.77761
2.78029
2.78068
2.7806
2.78131
2.78359
2.78735
2.79144
2.79444
2.79576
2.7959
2.79579
2.7962
2.79801
2.80151
2.80615
2.81109
2.81507
2.81723
2.81786
2.81829
2.81988
2.82363
2.83031
2.84075
2.85267
2.8614
2.86464
1
1
1
1
1
1
1
1
1
1
1
1
1
1
1
1
1
1
1
1
1
1
1
1
1
1
1
1
1
1
1
1
1
1
1
1
1
1
1
1
1
1
1
1
1
1
1
1
1
1
1
1
1
1
1
1
1
1
1
1
1
1
1
1
1
1
1
1
1
1
1
1
1
1
1
1
1
1
1
1
1
1
1
1
1
1
1
1
1
1
1
1
1
1
1
1
1
1
1
1
1
1
1
1
1
1
1
1
1
1
1
1
1
1
1
1
1
1
1
1
1
1
1
1
1
1
1
1
1
1
1
1
1
1
1
1
1
1
1
1
1
1
1
1
1
1
2.14825
2.67722
2.69467
2.70392
2.7135
2.72196
2.72916
2.73481
2.73881
2.74113
2.74196
2.74204
2.74231
2.74355
2.74688
2.75304
2.76139
2.76983
2.77624
2.77931
2.78005
2.7801
2.78082
2.78298
2.78659
2.79057
2.79352
2.79482
2.79496
2.79488
2.79533
2.79724
2.80083
2.80552
2.81051
2.81453
2.81664
2.81724
2.81762
2.81923
2.82297
2.82964
2.84014
2.85203
2.86062
2.8638
1
1
1
1
1
1
1
1
1
1
1
1
1
1
1
1
1
1
1
1
1
1
1
1
1
1
1
1
1
1
1
1
1
1
1
1
1
1
1
1
1
1
1
1
1
1
1
1
1
1
1
1
1
1
1
1
1
1
1
1
1
1
1
1
1
1
1
1
1
1
1
1
1
1
1
1
1
1
1
1
1
1
1
1
1
1
1
1
1
1
1
1
1
1
1
1
1
1
1
1
1
1
1
1
1
1
1
1
1
1
1
1
1
1
1
1
1
1
1
1
1
1
1
1
1
1
1
1
1
1
1
1
1
1
1
1
1
1
1
1
1
1
1
1
1
1
2.11304
2.6787
2.69371
2.70195
2.71108
2.71966
2.72729
2.73351
2.73816
2.74097
2.74206
2.74231
2.74266
2.74377
2.7466
2.75205
2.75974
2.76786
2.77442
2.77795
2.77914
2.77941
2.78018
2.78217
2.78556
2.7894
2.79232
2.79367
2.79387
2.79384
2.79433
2.79627
2.79991
2.80467
2.80975
2.81388
2.81602
2.8166
2.81688
2.8184
2.82209
2.82877
2.83931
2.8512
2.85972
2.86284
1
1
1
1
1
1
1
1
1
1
1
1
1
1
1
1
1
1
1
1
1
1
1
1
1
1
1
1
1
1
1
1
1
1
1
1
1
1
1
1
1
1
1
1
1
1
1
1
1
1
1
1
1
1
1
1
1
1
1
1
1
1
1
1
1
1
1
1
1
1
1
1
1
1
1
1
1
1
1
1
1
1
1
1
1
1
1
1
1
1
1
1
1
1
1
1
1
1
1
1
1
1
1
1
1
1
1
1
1
1
1
1
1
1
1
1
1
1
1
1
1
1
1
1
1
1
1
1
1
1
1
1
1
1
1
1
1
1
1
1
1
1
1
1
1
1
2.07008
2.67958
2.69285
2.69965
2.7079
2.71638
2.7245
2.73151
2.73704
2.74062
2.74215
2.74264
2.74305
2.74395
2.74621
2.75084
2.75773
2.76545
2.77214
2.77619
2.77791
2.77848
2.77933
2.78117
2.7843
2.78796
2.79086
2.79231
2.79264
2.79268
2.7932
2.79509
2.79872
2.80353
2.80871
2.81299
2.81521
2.81582
2.81603
2.81742
2.821
2.82767
2.83824
2.85017
2.8587
2.86183
1
1
1
1
1
1
1
1
1
1
1
1
1
1
1
1
1
1
1
1
1
1
1
1
1
1
1
1
1
1
1
1
1
1
1
1
1
1
1
1
1
1
1
1
1
1
1
1
1
1
1
1
1
1
1
1
1
1
1
1
1
1
1
1
1
1
1
1
1
1
1
1
1
1
1
1
1
1
1
1
1
1
1
1
1
1
1
1
1
1
1
1
1
1
1
1
1
1
1
1
1
1
1
1
1
1
1
1
1
1
1
1
1
1
1
1
1
1
1
1
1
1
1
1
1
1
1
1
1
1
1
1
1
1
1
1
1
1
1
1
1
1
1
1
1
1
2.01799
2.67837
2.69257
2.69764
2.70473
2.71266
2.72091
2.72866
2.73521
2.73986
2.74211
2.74287
2.74334
2.74401
2.74569
2.74944
2.75546
2.76271
2.76948
2.77406
2.77638
2.77732
2.77827
2.77994
2.78275
2.78618
2.78906
2.79067
2.7912
2.79139
2.79196
2.79376
2.79732
2.8022
2.80748
2.81187
2.81423
2.81493
2.8151
2.81636
2.81979
2.82636
2.83691
2.84887
2.85748
2.86063
1
1
1
1
1
1
1
1
1
1
1
1
1
1
1
1
1
1
1
1
1
1
1
1
1
1
1
1
1
1
1
1
1
1
1
1
1
1
1
1
1
1
1
1
1
1
1
1
1
1
1
1
1
1
1
1
1
1
1
1
1
1
1
1
1
1
1
1
1
1
1
1
1
1
1
1
1
1
1
1
1
1
1
1
1
1
1
1
1
1
1
1
1
1
1
1
1
1
1
1
1
1
1
1
1
1
1
1
1
1
1
1
1
1
1
1
1
1
1
1
1
1
1
1
1
1
1
1
1
1
1
1
1
1
1
1
1
1
1
1
1
1
1
1
1
1
1.95543
2.67253
2.69328
2.69667
2.70225
2.70922
2.71707
2.72508
2.73249
2.7383
2.74157
2.74288
2.74353
2.74408
2.74526
2.74817
2.75326
2.75988
2.76656
2.77156
2.77446
2.7758
2.77686
2.77838
2.78089
2.78409
2.78696
2.78878
2.78959
2.78998
2.79063
2.79238
2.79584
2.80073
2.80607
2.81053
2.81301
2.81381
2.814
2.81517
2.81843
2.82483
2.83531
2.84729
2.856
2.85921
1
1
1
1
1
1
1
1
1
1
1
1
1
1
1
1
1
1
1
1
1
1
1
1
1
1
1
1
1
1
1
1
1
1
1
1
1
1
1
1
1
1
1
1
1
1
1
1
1
1
1
1
1
1
1
1
1
1
1
1
1
1
1
1
1
1
1
1
1
1
1
1
1
1
1
1
1
1
1
1
1
1
1
1
1
1
1
1
1
1
1
1
1
1
1
1
1
1
1
1
1
1
1
1
1
1
1
1
1
1
1
1
1
1
1
1
1
1
1
1
1
1
1
1
1
1
1
1
1
1
1
1
1
1
1
1
1
1
1
1
1
1
1
1
1
1
1.88205
2.659
2.69505
2.69683
2.70089
2.70657
2.7136
2.72135
2.72916
2.73595
2.74035
2.74248
2.74339
2.74383
2.74457
2.74673
2.75092
2.75686
2.76333
2.76866
2.77214
2.77392
2.77516
2.77658
2.77883
2.78181
2.78467
2.78669
2.78775
2.78834
2.78909
2.79084
2.79427
2.79914
2.80449
2.80899
2.81156
2.81247
2.81269
2.81383
2.81694
2.82314
2.83351
2.84548
2.85427
2.85753
1
1
1
1
1
1
1
1
1
1
1
1
1
1
1
1
1
1
1
1
1
1
1
1
1
1
1
1
1
1
1
1
1
1
1
1
1
1
1
1
1
1
1
1
1
1
1
1
1
1
1
1
1
1
1
1
1
1
1
1
1
1
1
1
1
1
1
1
1
1
1
1
1
1
1
1
1
1
1
1
1
1
1
1
1
1
1
1
1
1
1
1
1
1
1
1
1
1
1
1
1
1
1
1
1
1
1
1
1
1
1
1
1
1
1
1
1
1
1
1
1
1
1
1
1
1
1
1
1
1
1
1
1
1
1
1
1
1
1
1
1
1
1
1
1
1
1.79905
2.63805
2.69728
2.6975
2.70028
2.70463
2.71057
2.7176
2.72523
2.73255
2.73801
2.74115
2.74264
2.7432
2.74374
2.74536
2.74873
2.75392
2.76005
2.76557
2.76955
2.77178
2.77319
2.77451
2.7765
2.77928
2.78212
2.78431
2.78563
2.78644
2.78736
2.7892
2.79264
2.79749
2.80281
2.80729
2.8099
2.81085
2.81112
2.81225
2.81524
2.82125
2.83149
2.84343
2.85226
2.85555
1
1
1
1
1
1
1
1
1
1
1
1
1
1
1
1
1
1
1
1
1
1
1
1
1
1
1
1
1
1
1
1
1
1
1
1
1
1
1
1
1
1
1
1
1
1
1
1
1
1
1
1
1
1
1
1
1
1
1
1
1
1
1
1
1
1
1
1
1
1
1
1
1
1
1
1
1
1
1
1
1
1
1
1
1
1
1
1
1
1
1
1
1
1
1
1
1
1
1
1
1
1
1
1
1
1
1
1
1
1
1
1
1
1
1
1
1
1
1
1
1
1
1
1
1
1
1
1
1
1
1
1
1
1
1
1
1
1
1
1
1
1
1
1
1
1
1.70617
2.6117
2.6982
2.69787
2.6998
2.70302
2.7078
2.71392
2.72106
2.72846
2.73461
2.73871
2.74102
2.74203
2.74264
2.74398
2.74671
2.75115
2.75678
2.76228
2.76659
2.76922
2.77084
2.77214
2.774
2.77665
2.77948
2.78181
2.78334
2.78435
2.78545
2.78741
2.7909
2.79574
2.80099
2.80541
2.80801
2.80897
2.80926
2.81038
2.81326
2.81914
2.82926
2.84115
2.84997
2.85327
1
1
1
1
1
1
1
1
1
1
1
1
1
1
1
1
1
1
1
1
1
1
1
1
1
1
1
1
1
1
1
1
1
1
1
1
1
1
1
1
1
1
1
1
1
1
1
1
1
1
1
1
1
1
1
1
1
1
1
1
1
1
1
1
1
1
1
1
1
1
1
1
1
1
1
1
1
1
1
1
1
1
1
1
1
1
1
1
1
1
1
1
1
1
1
1
1
1
1
1
1
1
1
1
1
1
1
1
1
1
1
1
1
1
1
1
1
1
1
1
1
1
1
1
1
1
1
1
1
1
1
1
1
1
1
1
1
1
1
1
1
1
1
1
1
1
1.60012
2.57865
2.69752
2.69733
2.69906
2.70146
2.70519
2.7103
2.71673
2.72389
2.7304
2.73526
2.73845
2.74016
2.74113
2.74243
2.74472
2.74847
2.75351
2.7588
2.7633
2.7663
2.76821
2.7696
2.77142
2.77397
2.77676
2.77918
2.78087
2.7821
2.7834
2.78552
2.78906
2.79387
2.79903
2.80336
2.80593
2.80687
2.80714
2.80819
2.81097
2.81675
2.82679
2.83864
2.8474
2.85066
1
1
1
1
1
1
1
1
1
1
1
1
1
1
1
1
1
1
1
1
1
1
1
1
1
1
1
1
1
1
1
1
1
1
1
1
1
1
1
1
1
1
1
1
1
1
1
1
1
1
1
1
1
1
1
1
1
1
1
1
1
1
1
1
1
1
1
1
1
1
1
1
1
1
1
1
1
1
1
1
1
1
1
1
1
1
1
1
1
1
1
1
1
1
1
1
1
1
1
1
1
1
1
1
1
1
1
1
1
1
1
1
1
1
1
1
1
1
1
1
1
1
1
1
1
1
1
1
1
1
1
1
1
1
1
1
1
1
1
1
1
1
1
1
1
1
1.48189
2.5376
2.69471
2.69499
2.69715
2.69932
2.70246
2.70682
2.71252
2.71918
2.72569
2.73101
2.73492
2.73742
2.73899
2.74052
2.74262
2.74582
2.75025
2.75519
2.75973
2.76307
2.76534
2.76695
2.7688
2.77126
2.77398
2.77644
2.7783
2.77976
2.78128
2.78352
2.78707
2.79179
2.79684
2.80107
2.80361
2.80452
2.80476
2.8057
2.80835
2.81404
2.82403
2.83586
2.84454
2.84778
1
1
1
1
1
1
1
1
1
1
1
1
1
1
1
1
1
1
1
1
1
1
1
1
1
1
1
1
1
1
1
1
1
1
1
1
1
1
1
1
1
1
1
1
1
1
1
1
1
1
1
1
1
1
1
1
1
1
1
1
1
1
1
1
1
1
1
1
1
1
1
1
1
1
1
1
1
1
1
1
1
1
1
1
1
1
1
1
1
1
1
1
1
1
1
1
1
1
1
1
1
1
1
1
1
1
1
1
1
1
1
1
1
1
1
1
1
1
1
1
1
1
1
1
1
1
1
1
1
1
1
1
1
1
1
1
1
1
1
1
1
1
1
1
1
1
1.35295
2.48606
2.69051
2.6904
2.6939
2.69645
2.69963
2.70364
2.70877
2.71481
2.72099
2.72641
2.73079
2.73401
2.7363
2.73828
2.74044
2.74325
2.74707
2.75152
2.75595
2.75955
2.76221
2.76412
2.76606
2.76843
2.77104
2.77355
2.7756
2.7773
2.77904
2.78139
2.78491
2.78952
2.79442
2.79853
2.80103
2.80189
2.80204
2.80284
2.80533
2.81091
2.82087
2.83273
2.84139
2.84464
1
1
1
1
1
1
1
1
1
1
1
1
1
1
1
1
1
1
1
1
1
1
1
1
1
1
1
1
1
1
1
1
1
1
1
1
1
1
1
1
1
1
1
1
1
1
1
1
1
1
1
1
1
1
1
1
1
1
1
1
1
1
1
1
1
1
1
1
1
1
1
1
1
1
1
1
1
1
1
1
1
1
1
1
1
1
1
1
1
1
1
1
1
1
1
1
1
1
1
1
1
1
1
1
1
1
1
1
1
1
1
1
1
1
1
1
1
1
1
1
1
1
1
1
1
1
1
1
1
1
1
1
1
1
1
1
1
1
1
1
1
1
1
1
1
1
1.22213
2.42484
2.68609
2.68557
2.69004
2.69342
2.69714
2.70122
2.70599
2.71143
2.71699
2.72204
2.72648
2.73017
2.73314
2.73569
2.73808
2.74068
2.74394
2.7478
2.75196
2.75572
2.75877
2.76106
2.76316
2.76547
2.768
2.77056
2.77282
2.77478
2.77673
2.77914
2.78254
2.78693
2.79161
2.79557
2.79804
2.79887
2.79895
2.79963
2.80195
2.80738
2.81731
2.82925
2.83796
2.84126
1
1
1
1
1
1
1
1
1
1
1
1
1
1
1
1
1
1
1
1
1
1
1
1
1
1
1
1
1
1
1
1
1
1
1
1
1
1
1
1
1
1
1
1
1
1
1
1
1
1
1
1
1
1
1
1
1
1
1
1
1
1
1
1
1
1
1
1
1
1
1
1
1
1
1
1
1
1
1
1
1
1
1
1
1
1
1
1
1
1
1
1
1
1
1
1
1
1
1
1
1
1
1
1
1
1
1
1
1
1
1
1
1
1
1
1
1
1
1
1
1
1
1
1
1
1
1
1
1
1
1
1
1
1
1
1
1
1
1
1
1
1
1
1
1
1
1.09318
2.35823
2.68262
2.68464
2.68901
2.69255
2.69649
2.70056
2.70495
2.70968
2.71447
2.71895
2.72308
2.72682
2.73016
2.73315
2.73584
2.73835
2.74113
2.74435
2.74806
2.75179
2.75513
2.7578
2.7601
2.76241
2.76487
2.76747
2.76995
2.77219
2.77432
2.77675
2.77997
2.78407
2.78848
2.79226
2.79469
2.79553
2.79557
2.79614
2.79828
2.80348
2.8133
2.82528
2.83409
2.83744
1
1
1
1
1
1
1
1
1
1
1
1
1
1
1
1
1
1
1
1
1
1
1
1
1
1
1
1
1
1
1
1
1
1
1
1
1
1
1
1
1
1
1
1
1
1
1
1
1
1
1
1
1
1
1
1
1
1
1
1
1
1
1
1
1
1
1
1
1
1
1
1
1
1
1
1
1
1
1
1
1
1
1
1
1
1
1
1
1
1
1
1
1
1
1
1
1
1
1
1
1
1
1
1
1
1
1
1
1
1
1
1
1
1
1
1
1
1
1
1
1
1
1
1
1
1
1
1
1
1
1
1
1
1
1
1
1
1
1
1
1
1
1
1
1
1
1.00389
2.27934
2.68438
2.68586
2.68883
2.6925
2.69633
2.70027
2.70435
2.70865
2.71292
2.7169
2.72069
2.72435
2.72786
2.73114
2.73406
2.73652
2.7389
2.74151
2.74465
2.74816
2.75162
2.75458
2.75709
2.75943
2.76183
2.76441
2.767
2.76942
2.77167
2.77406
2.77707
2.78085
2.78495
2.78856
2.79096
2.79182
2.79184
2.79231
2.79423
2.79917
2.80881
2.82082
2.82979
2.83323
1
1
1
1
1
1
1
1
1
1
1
1
1
1
1
1
1
1
1
1
1
1
1
1
1
1
1
1
1
1
1
1
1
1
1
1
1
1
1
1
1
1
1
1
1
1
1
1
1
1
1
1
1
1
1
1
1
1
1
1
1
1
1
1
1
1
1
1
1
1
1
1
1
1
1
1
1
1
1
1
1
1
1
1
1
1
1
1
1
1
1
1
1
1
1
1
1
1
1
1
1
1
1
1
1
1
1
1
1
1
1
1
1
1
1
1
1
1
1
1
1
1
1
1
1
1
1
1
1
1
1
1
1
1
1
1
1
1
1
1
1
1
1
1
1
1
1.00002
2.18014
2.67858
2.68612
2.68964
2.69351
2.69719
2.70096
2.70485
2.70891
2.71286
2.71639
2.71973
2.72311
2.72649
2.72971
2.73261
2.73496
2.73701
2.73911
2.7417
2.74486
2.74824
2.75135
2.75399
2.75637
2.75871
2.76122
2.76386
2.76639
2.76871
2.77106
2.77387
2.77732
2.78108
2.78449
2.78684
2.78772
2.78773
2.7881
2.7898
2.79443
2.80383
2.8158
2.82493
2.82843
1
1
1
1
1
1
1
1
1
1
1
1
1
1
1
1
1
1
1
1
1
1
1
1
1
1
1
1
1
1
1
1
1
1
1
1
1
1
1
1
1
1
1
1
1
1
1
1
1
1
1
1
1
1
1
1
1
1
1
1
1
1
1
1
1
1
1
1
1
1
1
1
1
1
1
1
1
1
1
1
1
1
1
1
1
1
1
1
1
1
1
1
1
1
1
1
1
1
1
1
1
1
1
1
1
1
1
1
1
1
1
1
1
1
1
1
1
1
1
1
1
1
1
1
1
1
1
1
1
1
1
1
1
1
1
1
1
1
1
1
1
1
1
1
1
1
1
2.04995
2.66079
2.68542
2.6893
2.69348
2.69706
2.70057
2.70417
2.70801
2.71189
2.71537
2.71863
2.72194
2.72527
2.72843
2.73129
2.73353
2.73535
2.73712
2.73926
2.74206
2.74524
2.74834
2.751
2.75337
2.75562
2.75798
2.76052
2.76304
2.76538
2.76769
2.77029
2.77342
2.77684
2.77999
2.78224
2.78311
2.78311
2.7834
2.78488
2.78918
2.79829
2.8102
2.81947
2.82302
1
1
1
1
1
1
1
1
1
1
1
1
1
1
1
1
1
1
1
1
1
1
1
1
1
1
1
1
1
1
1
1
1
1
1
1
1
1
1
1
1
1
1
1
1
1
1
1
1
1
1
1
1
1
1
1
1
1
1
1
1
1
1
1
1
1
1
1
1
1
1
1
1
1
1
1
1
1
1
1
1
1
1
1
1
1
1
1
1
1
1
1
1
1
1
1
1
1
1
1
1
1
1
1
1
1
1
1
1
1
1
1
1
1
1
1
1
1
1
1
1
1
1
1
1
1
1
1
1
1
1
1
1
1
1
1
1
1
1
1
1
1
1
1
1
1
1
1.89177
2.62611
2.67982
2.6869
2.69206
2.6958
2.69918
2.70256
2.70623
2.71016
2.71387
2.71734
2.72075
2.72402
2.72698
2.72962
2.73171
2.73336
2.73495
2.73685
2.73941
2.74246
2.74548
2.74806
2.75033
2.7524
2.75455
2.7569
2.75933
2.76163
2.76388
2.7663
2.76912
2.77218
2.77503
2.77713
2.778
2.77801
2.77823
2.77946
2.78338
2.79211
2.80389
2.81324
2.81677
1
1
1
1
1
1
1
1
1
1
1
1
1
1
1
1
1
1
1
1
1
1
1
1
1
1
1
1
1
1
1
1
1
1
1
1
1
1
1
1
1
1
1
1
1
1
1
1
1
1
1
1
1
1
1
1
1
1
1
1
1
1
1
1
1
1
1
1
1
1
1
1
1
1
1
1
1
1
1
1
1
1
1
1
1
1
1
1
1
1
1
1
1
1
1
1
1
1
1
1
1
1
1
1
1
1
1
1
1
1
1
1
1
1
1
1
1
1
1
1
1
1
1
1
1
1
1
1
1
1
1
1
1
1
1
1
1
1
1
1
1
1
1
1
1
1
1
1.71977
2.57509
2.67009
2.67946
2.68605
2.69034
2.69404
2.6977
2.70174
2.7062
2.71077
2.71506
2.71893
2.72236
2.72517
2.72753
2.72943
2.73099
2.7326
2.73449
2.73696
2.73992
2.74284
2.74524
2.7473
2.74912
2.75098
2.75307
2.75534
2.75752
2.75965
2.76185
2.76436
2.76706
2.76958
2.77147
2.77228
2.77229
2.7724
2.7733
2.77681
2.78515
2.79678
2.80621
2.80973
1
1
1
1
1
1
1
1
1
1
1
1
1
1
1
1
1
1
1
1
1
1
1
1
1
1
1
1
1
1
1
1
1
1
1
1
1
1
1
1
1
1
1
1
1
1
1
1
1
1
1
1
1
1
1
1
1
1
1
1
1
1
1
1
1
1
1
1
1
1
1
1
1
1
1
1
1
1
1
1
1
1
1
1
1
1
1
1
1
1
1
1
1
1
1
1
1
1
1
1
1
1
1
1
1
1
1
1
1
1
1
1
1
1
1
1
1
1
1
1
1
1
1
1
1
1
1
1
1
1
1
1
1
1
1
1
1
1
1
1
1
1
1
1
1
1
1
1.49747
2.49336
2.65935
2.66829
2.67647
2.68214
2.68658
2.69058
2.69489
2.69978
2.70526
2.7107
2.71547
2.71935
2.72225
2.7245
2.72633
2.72794
2.72974
2.73184
2.7344
2.73736
2.74019
2.74241
2.7442
2.74572
2.74726
2.74907
2.75113
2.75312
2.75505
2.75697
2.75911
2.76141
2.76362
2.76525
2.76591
2.76595
2.76594
2.76648
2.7695
2.77732
2.78867
2.79808
2.80151
1
1
1
1
1
1
1
1
1
1
1
1
1
1
1
1
1
1
1
1
1
1
1
1
1
1
1
1
1
1
1
1
1
1
1
1
1
1
1
1
1
1
1
1
1
1
1
1
1
1
1
1
1
1
1
1
1
1
1
1
1
1
1
1
1
1
1
1
1
1
1
1
1
1
1
1
1
1
1
1
1
1
1
1
1
1
1
1
1
1
1
1
1
1
1
1
1
1
1
1
1
1
1
1
1
1
1
1
1
1
1
1
1
1
1
1
1
1
1
1
1
1
1
1
1
1
1
1
1
1
1
1
1
1
1
1
1
1
1
1
1
1
1
1
1
1
1
1.23235
2.40444
2.65941
2.65652
2.66343
2.67051
2.6764
2.68123
2.68607
2.69156
2.69777
2.7042
2.70992
2.71447
2.71776
2.72013
2.72207
2.7239
2.72603
2.72852
2.73132
2.73436
2.73717
2.73927
2.74081
2.74206
2.7433
2.74488
2.74669
2.7485
2.75013
2.75168
2.75337
2.75522
2.75706
2.75839
2.75887
2.75874
2.75853
2.75872
2.76113
2.76832
2.77938
2.78882
2.79224
1
1
1
1
1
1
1
1
1
1
1
1
1
1
1
1
1
1
1
1
1
1
1
1
1
1
1
1
1
1
1
1
1
1
1
1
1
1
1
1
1
1
1
1
1
1
1
1
1
1
1
1
1
1
1
1
1
1
1
1
1
1
1
1
1
1
1
1
1
1
1
1
1
1
1
1
1
1
1
1
1
1
1
1
1
1
1
1
1
1
1
1
1
1
1
1
1
1
1
1
1
1
1
1
1
1
1
1
1
1
1
1
1
1
1
1
1
1
1
1
1
1
1
1
1
1
1
1
1
1
1
1
1
1
1
1
1
1
1
1
1
1
1
1
1
1
1
1.02655
2.33128
2.66161
2.65598
2.66043
2.66544
2.67014
2.67418
2.67846
2.68363
2.68986
2.69661
2.70279
2.70779
2.71154
2.71425
2.71653
2.71875
2.72128
2.72424
2.72736
2.73056
2.73342
2.73551
2.7369
2.73795
2.73902
2.74044
2.74197
2.74359
2.74492
2.74603
2.74719
2.7485
2.74983
2.75078
2.75105
2.75072
2.75025
2.75012
2.75187
2.75818
2.76863
2.77784
2.78106
1
1
1
1
1
1
1
1
1
1
1
1
1
1
1
1
1
1
1
1
1
1
1
1
1
1
1
1
1
1
1
1
1
1
1
1
1
1
1
1
1
1
1
1
1
1
1
1
1
1
1
1
1
1
1
1
1
1
1
1
1
1
1
1
1
1
1
1
1
1
1
1
1
1
1
1
1
1
1
1
1
1
1
1
1
1
1
1
1
1
1
1
1
1
1
1
1
1
1
1
1
1
1
1
1
1
1
1
1
1
1
1
1
1
1
1
1
1
1
1
1
1
1
1
1
1
1
1
1
1
1
1
1
1
1
1
1
1
1
1
1
1
1
1
1
1
1
1.00024
2.21997
2.65917
2.6587
2.66129
2.66467
2.66825
2.67192
2.67552
2.67936
2.68396
2.68939
2.69512
2.70019
2.70422
2.70727
2.70992
2.71256
2.71549
2.71884
2.72227
2.72567
2.72863
2.73086
2.73227
2.73326
2.73429
2.73561
2.73684
2.73827
2.73932
2.73998
2.74056
2.74124
2.74194
2.74242
2.74239
2.74176
2.74072
2.74
2.74091
2.74613
2.75589
2.76496
2.76824
1
1
1
1
1
1
1
1
1
1
1
1
1
1
1
1
1
1
1
1
1
1
1
1
1
1
1
1
1
1
1
1
1
1
1
1
1
1
1
1
1
1
1
1
1
1
1
1
1
1
1
1
1
1
1
1
1
1
1
1
1
1
1
1
1
1
1
1
1
1
1
1
1
1
1
1
1
1
1
1
1
1
1
1
1
1
1
1
1
1
1
1
1
1
1
1
1
1
1
1
1
1
1
1
1
1
1
1
1
1
1
1
1
1
1
1
1
1
1
1
1
1
1
1
1
1
1
1
1
1
1
1
1
1
1
1
1
1
1
1
1
1
1
1
1
1
1
1
2.06944
2.65873
2.6616
2.66479
2.66785
2.67011
2.67253
2.67486
2.6774
2.68063
2.68463
2.68889
2.69297
2.69671
2.69991
2.70282
2.70577
2.70893
2.71245
2.71603
2.71955
2.72266
2.72516
2.7268
2.72793
2.72903
2.73019
2.73127
2.73245
2.73323
2.73349
2.73351
2.73348
2.73341
2.7333
2.73285
2.7317
2.72991
2.72852
2.72868
2.73258
2.741
2.74909
2.7516
1
1
1
1
1
1
1
1
1
1
1
1
1
1
1
1
1
1
1
1
1
1
1
1
1
1
1
1
1
1
1
1
1
1
1
1
1
1
1
1
1
1
1
1
1
1
1
1
1
1
1
1
1
1
1
1
1
1
1
1
1
1
1
1
1
1
1
1
1
1
1
1
1
1
1
1
1
1
1
1
1
1
1
1
1
1
1
1
1
1
1
1
1
1
1
1
1
1
1
1
1
1
1
1
1
1
1
1
1
1
1
1
1
1
1
1
1
1
1
1
1
1
1
1
1
1
1
1
1
1
1
1
1
1
1
1
1
1
1
1
1
1
1
1
1
1
1
1
1.87161
2.61696
2.66121
2.66574
2.66956
2.6727
2.67468
2.676
2.6776
2.67945
2.68173
2.68453
2.68761
2.6907
2.6935
2.6962
2.69906
2.70215
2.70549
2.70894
2.71236
2.71555
2.71837
2.72042
2.72189
2.72311
2.72408
2.72505
2.72599
2.7265
2.72643
2.72599
2.72521
2.7243
2.72341
2.72232
2.72047
2.71771
2.71491
2.71356
2.71547
2.72188
2.72892
2.73166
1
1
1
1
1
1
1
1
1
1
1
1
1
1
1
1
1
1
1
1
1
1
1
1
1
1
1
1
1
1
1
1
1
1
1
1
1
1
1
1
1
1
1
1
1
1
1
1
1
1
1
1
1
1
1
1
1
1
1
1
1
1
1
1
1
1
1
1
1
1
1
1
1
1
1
1
1
1
1
1
1
1
1
1
1
1
1
1
1
1
1
1
1
1
1
1
1
1
1
1
1
1
1
1
1
1
1
1
1
1
1
1
1
1
1
1
1
1
1
1
1
1
1
1
1
1
1
1
1
1
1
1
1
1
1
1
1
1
1
1
1
1
1
1
1
1
1
1
1.61168
2.51969
2.65107
2.65917
2.66524
2.67027
2.67374
2.67603
2.67759
2.67898
2.68057
2.68241
2.6844
2.68653
2.68875
2.69094
2.69336
2.6959
2.69861
2.70156
2.7046
2.7077
2.71062
2.71311
2.71502
2.71642
2.71731
2.71813
2.71883
2.71911
2.71883
2.71795
2.71646
2.71464
2.71279
2.71077
2.7079
2.70376
2.69908
2.69605
2.6961
2.69971
2.70313
2.70148
1
1
1
1
1
1
1
1
1
1
1
1
1
1
1
1
1
1
1
1
1
1
1
1
1
1
1
1
1
1
1
1
1
1
1
1
1
1
1
1
1
1
1
1
1
1
1
1
1
1
1
1
1
1
1
1
1
1
1
1
1
1
1
1
1
1
1
1
1
1
1
1
1
1
1
1
1
1
1
1
1
1
1
1
1
1
1
1
1
1
1
1
1
1
1
1
1
1
1
1
1
1
1
1
1
1
1
1
1
1
1
1
1
1
1
1
1
1
1
1
1
1
1
1
1
1
1
1
1
1
1
1
1
1
1
1
1
1
1
1
1
1
1
1
1
1
1
1
1.28123
2.40142
2.64005
2.64406
2.65301
2.66122
2.6676
2.67214
2.67516
2.67718
2.67883
2.68048
2.68222
2.68407
2.68589
2.68754
2.68906
2.69081
2.69263
2.69474
2.697
2.69969
2.70248
2.70514
2.70734
2.70891
2.70986
2.71051
2.71095
2.71097
2.7105
2.70924
2.70711
2.7044
2.70144
2.69819
2.69401
2.6883
2.68143
2.67501
2.67022
2.66694
2.66396
2.65879
1
1
1
1
1
1
1
1
1
1
1
1
1
1
1
1
1
1
1
1
1
1
1
1
1
1
1
1
1
1
1
1
1
1
1
1
1
1
1
1
1
1
1
1
1
1
1
1
1
1
1
1
1
1
1
1
1
1
1
1
1
1
1
1
1
1
1
1
1
1
1
1
1
1
1
1
1
1
1
1
1
1
1
1
1
1
1
1
1
1
1
1
1
1
1
1
1
1
1
1
1
1
1
1
1
1
1
1
1
1
1
1
1
1
1
1
1
1
1
1
1
1
1
1
1
1
1
1
1
1
1
1
1
1
1
1
1
1
1
1
1
1
1
1
1
1
1
1
1.02212
2.30409
2.64239
2.63954
2.64272
2.64851
2.65601
2.66315
2.66866
2.67241
2.67508
2.67731
2.67942
2.68153
2.68348
2.68504
2.68608
2.68696
2.6879
2.68906
2.69029
2.69215
2.69446
2.69689
2.69908
2.70072
2.70171
2.70217
2.70233
2.70213
2.70141
2.6998
2.69715
2.69359
2.68942
2.68471
2.67888
2.67114
2.66122
2.65005
2.63917
2.62892
2.61996
2.61694
1
1
1
1
1
1
1
1
1
1
1
1
1
1
1
1
1
1
1
1
1
1
1
1
1
1
1
1
1
1
1
1
1
1
1
1
1
1
1
1
1
1
1
1
1
1
1
1
1
1
1
1
1
1
1
1
1
1
1
1
1
1
1
1
1
1
1
1
1
1
1
1
1
1
1
1
1
1
1
1
1
1
1
1
1
1
1
1
1
1
1
1
1
1
1
1
1
1
1
1
1
1
1
1
1
1
1
1
1
1
1
1
1
1
1
1
1
1
1
1
1
1
1
1
1
1
1
1
1
1
1
1
1
1
1
1
1
1
1
1
1
1
1
1
1
1
1
1
1.0001
2.16849
2.63243
2.63208
2.63541
2.63996
2.64608
2.65295
2.65936
2.66443
2.66842
2.6718
2.67489
2.67781
2.68036
2.68225
2.68327
2.68378
2.68421
2.68462
2.68485
2.68568
2.68718
2.68898
2.69075
2.69219
2.69304
2.69322
2.69305
2.69255
2.69151
2.68958
2.68647
2.68215
2.67675
2.67039
2.66258
2.65244
2.63919
2.62289
2.60288
2.57413
2.51716
2.38179
1
1
1
1
1
1
1
1
1
1
1
1
1
1
1
1
1
1
1
1
1
1
1
1
1
1
1
1
1
1
1
1
1
1
1
1
1
1
1
1
1
1
1
1
1
1
1
1
1
1
1
1
1
1
1
1
1
1
1
1
1
1
1
1
1
1
1
1
1
1
1
1
1
1
1
1
1
1
1
1
1
1
1
1
1
1
1
1
1
1
1
1
1
1
1
1
1
1
1
1
1
1
1
1
1
1
1
1
1
1
1
1
1
1
1
1
1
1
1
1
1
1
1
1
1
1
1
1
1
1
1
1
1
1
1
1
1
1
1
1
1
1
1
1
1
1
1
1
0.999999
1.97294
2.61846
2.63759
2.63785
2.6401
2.64289
2.64636
2.65095
2.65562
2.66003
2.6642
2.66824
2.67212
2.67556
2.67815
2.67965
2.68027
2.68061
2.68063
2.68029
2.68034
2.68086
2.68181
2.68286
2.68372
2.68413
2.6839
2.68329
2.68233
2.68088
2.6786
2.67507
2.67004
2.66346
2.65539
2.64542
2.63259
2.61557
2.59272
2.56129
2.51202
2.437
2.22767
1
1
1
1
1
1
1
1
1
1
1
1
1
1
1
1
1
1
1
1
1
1
1
1
1
1
1
1
1
1
1
1
1
1
1
1
1
1
1
1
1
1
1
1
1
1
1
1
1
1
1
1
1
1
1
1
1
1
1
1
1
1
1
1
1
1
1
1
1
1
1
1
1
1
1
1
1
1
1
1
1
1
1
1
1
1
1
1
1
1
1
1
1
1
1
1
1
1
1
1
1
1
1
1
1
1
1
1
1
1
1
1
1
1
1
1
1
1
1
1
1
1
1
1
1
1
1
1
1
1
1
1
1
1
1
1
1
1
1
1
1
1
1
1
1
1
1
1
1
1.69107
2.54052
2.6362
2.63675
2.63891
2.64111
2.6436
2.64626
2.64924
2.65266
2.65649
2.66061
2.66487
2.6689
2.67223
2.67452
2.67582
2.67656
2.67646
2.676
2.67558
2.67541
2.67553
2.67573
2.67574
2.67546
2.67462
2.67332
2.67169
2.66968
2.66693
2.66296
2.65728
2.6496
2.63986
2.62767
2.61208
2.59123
2.563
2.52206
2.46679
2.34997
2.14871
1
1
1
1
1
1
1
1
1
1
1
1
1
1
1
1
1
1
1
1
1
1
1
1
1
1
1
1
1
1
1
1
1
1
1
1
1
1
1
1
1
1
1
1
1
1
1
1
1
1
1
1
1
1
1
1
1
1
1
1
1
1
1
1
1
1
1
1
1
1
1
1
1
1
1
1
1
1
1
1
1
1
1
1
1
1
1
1
1
1
1
1
1
1
1
1
1
1
1
1
1
1
1
1
1
1
1
1
1
1
1
1
1
1
1
1
1
1
1
1
1
1
1
1
1
1
1
1
1
1
1
1
1
1
1
1
1
1
1
1
1
1
1
1
1
1
1
1
1
1.32363
2.41399
2.62988
2.62885
2.63245
2.63698
2.64014
2.64249
2.64475
2.64724
2.65014
2.6535
2.65725
2.6611
2.6647
2.66767
2.66975
2.67114
2.67143
2.6712
2.6707
2.67013
2.66965
2.66919
2.66842
2.66726
2.66558
2.66342
2.66095
2.65818
2.6548
2.65025
2.64391
2.63523
2.62397
2.60968
2.59155
2.56732
2.53489
2.48813
2.42018
2.29634
2.11254
1
1
1
1
1
1
1
1
1
1
1
1
1
1
1
1
1
1
1
1
1
1
1
1
1
1
1
1
1
1
1
1
1
1
1
1
1
1
1
1
1
1
1
1
1
1
1
1
1
1
1
1
1
1
1
1
1
1
1
1
1
1
1
1
1
1
1
1
1
1
1
1
1
1
1
1
1
1
1
1
1
1
1
1
1
1
1
1
1
1
1
1
1
1
1
1
1
1
1
1
1
1
1
1
1
1
1
1
1
1
1
1
1
1
1
1
1
1
1
1
1
1
1
1
1
1
1
1
1
1
1
1
1
1
1
1
1
1
1
1
1
1
1
1
1
1
1
1
1
1.02883
2.28755
2.62859
2.62387
2.62559
2.63008
2.6344
2.63772
2.64046
2.64291
2.64527
2.64776
2.65052
2.65353
2.6567
2.65967
2.6622
2.66418
2.66522
2.66543
2.66515
2.66454
2.66379
2.66291
2.66158
2.65965
2.65707
2.65396
2.65051
2.64676
2.64252
2.6372
2.63012
2.62051
2.60796
2.59186
2.57149
2.54468
2.50853
2.45872
2.38437
2.26936
2.12391
1
1
1
1
1
1
1
1
1
1
1
1
1
1
1
1
1
1
1
1
1
1
1
1
1
1
1
1
1
1
1
1
1
1
1
1
1
1
1
1
1
1
1
1
1
1
1
1
1
1
1
1
1
1
1
1
1
1
1
1
1
1
1
1
1
1
1
1
1
1
1
1
1
1
1
1
1
1
1
1
1
1
1
1
1
1
1
1
1
1
1
1
1
1
1
1
1
1
1
1
1
1
1
1
1
1
1
1
1
1
1
1
1
1
1
1
1
1
1
1
1
1
1
1
1
1
1
1
1
1
1
1
1
1
1
1
1
1
1
1
1
1
1
1
1
1
1
1
1
1.00016
2.11686
2.60518
2.61221
2.61742
2.62262
2.6273
2.63158
2.63533
2.63842
2.6409
2.64299
2.64494
2.64694
2.64919
2.65154
2.65389
2.65604
2.65765
2.65848
2.6585
2.65815
2.65743
2.65637
2.65474
2.65231
2.64903
2.64503
2.64059
2.63578
2.63048
2.62415
2.61618
2.60563
2.59198
2.57445
2.55226
2.52361
2.48531
2.43375
2.35999
2.25914
2.13847
1
1
1
1
1
1
1
1
1
1
1
1
1
1
1
1
1
1
1
1
1
1
1
1
1
1
1
1
1
1
1
1
1
1
1
1
1
1
1
1
1
1
1
1
1
1
1
1
1
1
1
1
1
1
1
1
1
1
1
1
1
1
1
1
1
1
1
1
1
1
1
1
1
1
1
1
1
1
1
1
1
1
1
1
1
1
1
1
1
1
1
1
1
1
1
1
1
1
1
1
1
1
1
1
1
1
1
1
1
1
1
1
1
1
1
1
1
1
1
1
1
1
1
1
1
1
1
1
1
1
1
1
1
1
1
1
1
1
1
1
1
1
1
1
1
1
1
1
1
0.999999
1.85788
2.56653
2.61281
2.61539
2.61892
2.62216
2.62585
2.62974
2.63329
2.63618
2.63836
2.64
2.64134
2.64271
2.6442
2.64588
2.64767
2.64931
2.65051
2.65092
2.65076
2.6502
2.64917
2.64748
2.64488
2.64124
2.63664
2.63135
2.62549
2.61904
2.61151
2.60246
2.59095
2.57635
2.55776
2.53426
2.50439
2.46552
2.41337
2.34466
2.25621
2.15314
1
1
1
1
1
1
1
1
1
1
1
1
1
1
1
1
1
1
1
1
1
1
1
1
1
1
1
1
1
1
1
1
1
1
1
1
1
1
1
1
1
1
1
1
1
1
1
1
1
1
1
1
1
1
1
1
1
1
1
1
1
1
1
1
1
1
1
1
1
1
1
1
1
1
1
1
1
1
1
1
1
1
1
1
1
1
1
1
1
1
1
1
1
1
1
1
1
1
1
1
1
1
1
1
1
1
1
1
1
1
1
1
1
1
1
1
1
1
1
1
1
1
1
1
1
1
1
1
1
1
1
1
1
1
1
1
1
1
1
1
1
1
1
1
1
1
1
1
1
1
1.48289
2.45517
2.61088
2.61057
2.61341
2.6167
2.62041
2.62408
2.62759
2.63069
2.63317
2.63497
2.63614
2.637
2.63776
2.63868
2.63981
2.64101
2.64211
2.64268
2.6426
2.64213
2.64114
2.63952
2.63698
2.63332
2.62846
2.62262
2.61588
2.60834
2.59959
2.58933
2.57677
2.56127
2.5419
2.51761
2.48729
2.44828
2.39767
2.33502
2.25763
2.1694
1
1
1
1
1
1
1
1
1
1
1
1
1
1
1
1
1
1
1
1
1
1
1
1
1
1
1
1
1
1
1
1
1
1
1
1
1
1
1
1
1
1
1
1
1
1
1
1
1
1
1
1
1
1
1
1
1
1
1
1
1
1
1
1
1
1
1
1
1
1
1
1
1
1
1
1
1
1
1
1
1
1
1
1
1
1
1
1
1
1
1
1
1
1
1
1
1
1
1
1
1
1
1
1
1
1
1
1
1
1
1
1
1
1
1
1
1
1
1
1
1
1
1
1
1
1
1
1
1
1
1
1
1
1
1
1
1
1
1
1
1
1
1
1
1
1
1
1
1
1
1.06549
2.31563
2.61084
2.60613
2.60761
2.61117
2.6147
2.61787
2.621
2.62409
2.6268
2.629
2.63048
2.63134
2.63186
2.63232
2.63285
2.63346
2.63406
2.63431
2.63406
2.6334
2.63229
2.63068
2.62828
2.6248
2.62003
2.61403
2.60677
2.59834
2.58852
2.57709
2.56349
2.54713
2.52711
2.50236
2.47215
2.43324
2.38622
2.32945
2.26021
2.18453
1
1
1
1
1
1
1
1
1
1
1
1
1
1
1
1
1
1
1
1
1
1
1
1
1
1
1
1
1
1
1
1
1
1
1
1
1
1
1
1
1
1
1
1
1
1
1
1
1
1
1
1
1
1
1
1
1
1
1
1
1
1
1
1
1
1
1
1
1
1
1
1
1
1
1
1
1
1
1
1
1
1
1
1
1
1
1
1
1
1
1
1
1
1
1
1
1
1
1
1
1
1
1
1
1
1
1
1
1
1
1
1
1
1
1
1
1
1
1
1
1
1
1
1
1
1
1
1
1
1
1
1
1
1
1
1
1
1
1
1
1
1
1
1
1
1
1
1
1
1
1.00097
2.15562
2.5851
2.59279
2.59906
2.604
2.60793
2.61097
2.6138
2.61679
2.61949
2.622
2.62396
2.62521
2.62589
2.62628
2.62653
2.62666
2.62664
2.62635
2.62564
2.62452
2.62306
2.62126
2.61887
2.61557
2.61105
2.60519
2.59779
2.58881
2.57821
2.56582
2.55132
2.53419
2.51365
2.48865
2.45861
2.42084
2.37764
2.32553
2.26281
2.19787
1
1
1
1
1
1
1
1
1
1
1
1
1
1
1
1
1
1
1
1
1
1
1
1
1
1
1
1
1
1
1
1
1
1
1
1
1
1
1
1
1
1
1
1
1
1
1
1
1
1
1
1
1
1
1
1
1
1
1
1
1
1
1
1
1
1
1
1
1
1
1
1
1
1
1
1
1
1
1
1
1
1
1
1
1
1
1
1
1
1
1
1
1
1
1
1
1
1
1
1
1
1
1
1
1
1
1
1
1
1
1
1
1
1
1
1
1
1
1
1
1
1
1
1
1
1
1
1
1
1
1
1
1
1
1
1
1
1
1
1
1
1
1
1
1
1
1
1
1
1
0.999993
1.87486
2.54406
2.588
2.59391
2.59838
2.60182
2.60455
2.60702
2.6096
2.612
2.61449
2.61676
2.61848
2.61957
2.62021
2.62045
2.62032
2.61988
2.619
2.61764
2.61588
2.61382
2.61154
2.60887
2.60555
2.60126
2.59568
2.58844
2.57934
2.56837
2.55541
2.5403
2.52261
2.50169
2.47662
2.44691
2.41079
2.37053
2.32176
2.26586
2.20942
1
1
1
1
1
1
1
1
1
1
1
1
1
1
1
1
1
1
1
1
1
1
1
1
1
1
1
1
1
1
1
1
1
1
1
1
1
1
1
1
1
1
1
1
1
1
1
1
1
1
1
1
1
1
1
1
1
1
1
1
1
1
1
1
1
1
1
1
1
1
1
1
1
1
1
1
1
1
1
1
1
1
1
1
1
1
1
1
1
1
1
1
1
1
1
1
1
1
1
1
1
1
1
1
1
1
1
1
1
1
1
1
1
1
1
1
1
1
1
1
1
1
1
1
1
1
1
1
1
1
1
1
1
1
1
1
1
1
1
1
1
1
1
1
1
1
1
1
1
1
0.999998
1.45901
2.43616
2.5841
2.58676
2.59042
2.59501
2.59796
2.60032
2.60244
2.60459
2.60688
2.60917
2.61118
2.61267
2.61366
2.61409
2.61393
2.61328
2.61204
2.61019
2.60783
2.60508
2.6021
2.59884
2.59522
2.5909
2.58551
2.5785
2.56956
2.55857
2.54546
2.53012
2.51221
2.49117
2.46627
2.43698
2.40257
2.36457
2.31893
2.2701
2.2186
1
1
1
1
1
1
1
1
1
1
1
1
1
1
1
1
1
1
1
1
1
1
1
1
1
1
1
1
1
1
1
1
1
1
1
1
1
1
1
1
1
1
1
1
1
1
1
1
1
1
1
1
1
1
1
1
1
1
1
1
1
1
1
1
1
1
1
1
1
1
1
1
1
1
1
1
1
1
1
1
1
1
1
1
1
1
1
1
1
1
1
1
1
1
1
1
1
1
1
1
1
1
1
1
1
1
1
1
1
1
1
1
1
1
1
1
1
1
1
1
1
1
1
1
1
1
1
1
1
1
1
1
1
1
1
1
1
1
1
1
1
1
1
1
1
1
1
1
1
1
1
1.05601
2.28622
2.58643
2.58228
2.5845
2.58792
2.59105
2.59344
2.59548
2.59751
2.59961
2.60176
2.60378
2.60545
2.60668
2.60729
2.60716
2.6065
2.60514
2.60305
2.6003
2.59694
2.59317
2.58913
2.5849
2.58023
2.57475
2.56788
2.5592
2.54847
2.53556
2.52037
2.50261
2.48181
2.45746
2.42879
2.39585
2.35999
2.31782
2.27393
2.22518
1
1
1
1
1
1
1
1
1
1
1
1
1
1
1
1
1
1
1
1
1
1
1
1
1
1
1
1
1
1
1
1
1
1
1
1
1
1
1
1
1
1
1
1
1
1
1
1
1
1
1
1
1
1
1
1
1
1
1
1
1
1
1
1
1
1
1
1
1
1
1
1
1
1
1
1
1
1
1
1
1
1
1
1
1
1
1
1
1
1
1
1
1
1
1
1
1
1
1
1
1
1
1
1
1
1