/*--------------------------------*- C++ -*----------------------------------*\
  =========                 |
  \\      /  F ield         | OpenFOAM: The Open Source CFD Toolbox
   \\    /   O peration     | Website:  https://openfoam.org
    \\  /    A nd           | Version:  7
     \\/     M anipulation  |
\*---------------------------------------------------------------------------*/
FoamFile
{
    version     2.0;
    format      ascii;
    class       volScalarField;
    location    "9.5";
    object      T;
}
// * * * * * * * * * * * * * * * * * * * * * * * * * * * * * * * * * * * * * //

dimensions      [0 0 0 1 0 0 0];

internalField   nonuniform List<scalar> 
3328
(
3.73416
2.72733
2.49396
2.49608
2.49784
2.49969
2.50169
2.50394
2.5065
2.50935
2.51247
2.51583
2.51946
2.52333
2.52737
2.53151
2.53568
2.53984
2.54432
2.54984
2.55754
2.56649
2.57421
2.57778
3.73422
2.7273
2.49387
2.49597
2.49774
2.49961
2.50163
2.50388
2.50643
2.50924
2.51231
2.51561
2.51916
2.52293
2.52691
2.53099
2.53513
2.53921
2.54357
2.54898
2.55654
2.56533
2.573
2.57654
3.73483
2.72735
2.49402
2.49605
2.49783
2.49969
2.50171
2.50393
2.50644
2.50918
2.51216
2.51534
2.51873
2.52233
2.52615
2.5301
2.53408
2.53791
2.54202
2.54724
2.55475
2.56361
2.57145
2.57518
3.73633
2.72785
2.49459
2.49651
2.49824
2.50005
2.50201
2.50415
2.50658
2.50923
2.5121
2.5151
2.51826
2.52159
2.52516
2.5289
2.53268
2.53629
2.54016
2.54516
2.55236
2.5608
2.56828
2.57186
3.73883
2.72893
2.49576
2.49749
2.49913
2.50079
2.50262
2.5046
2.50687
2.50936
2.51207
2.51486
2.51775
2.52075
2.52398
2.52739
2.53083
2.53399
2.53719
2.5414
2.54766
2.55561
2.56325
2.56783
3.74216
2.73031
2.49736
2.49886
2.50035
2.50182
2.50348
2.50526
2.5073
2.50954
2.51201
2.51456
2.51716
2.51977
2.52256
2.52549
2.52845
2.53116
2.53387
2.53763
2.54323
2.55062
2.55787
2.56185
3.74577
2.73141
2.49896
2.50014
2.50152
2.50281
2.50433
2.5059
2.50769
2.50964
2.51183
2.5141
2.51638
2.51858
2.52086
2.52322
2.52563
2.52783
2.52993
2.5323
2.53508
2.53961
2.54773
2.55818
3.74901
2.73171
2.50019
2.50102
2.50241
2.50361
2.50503
2.50638
2.50792
2.5096
2.51151
2.51347
2.51541
2.5172
2.51893
2.52067
2.52237
2.52387
2.52503
2.52585
2.52698
2.53291
2.54557
2.57437
3.75142
2.73057
2.50091
2.50135
2.50287
2.50408
2.50539
2.50656
2.50788
2.50934
2.51096
2.51261
2.5142
2.5156
2.5168
2.51791
2.51881
2.51949
2.51946
2.51879
2.51721
2.51824
2.51302
2.51831
3.75336
2.72802
2.50127
2.50175
2.50312
2.50431
2.50548
2.50648
2.50757
2.5088
2.51014
2.5115
2.51274
2.51379
2.51452
2.51503
2.51519
2.51497
2.51389
2.51167
2.50758
2.50263
2.50284
2.50254
3.75567
2.72683
2.50191
2.5019
2.50305
2.50439
2.50545
2.50627
2.50709
2.5081
2.50917
2.51021
2.51108
2.51175
2.51209
2.51213
2.51174
2.51067
2.50879
2.50512
2.49949
2.49026
2.48782
2.48328
3.75964
2.72892
2.50324
2.5031
2.50395
2.50508
2.50579
2.50628
2.50679
2.50759
2.50837
2.509
2.50942
2.5096
2.50956
2.50919
2.50846
2.5068
2.50439
2.49994
2.49349
2.4842
2.4782
2.47244
3.76602
2.73439
2.5045
2.50598
2.50691
2.50717
2.50702
2.50689
2.50703
2.50755
2.50807
2.50831
2.50815
2.50769
2.50712
2.50628
2.50524
2.50327
2.50053
2.49603
2.48948
2.481
2.47097
2.46604
3.77384
2.74035
2.50865
2.51048
2.51082
2.51019
2.50914
2.50847
2.50827
2.50839
2.50859
2.5084
2.50763
2.50648
2.50519
2.50376
2.5022
2.49994
2.4969
2.49254
2.48653
2.47899
2.46971
2.46134
3.7817
2.74544
2.51427
2.51568
2.51511
2.51354
2.51189
2.51097
2.51064
2.51051
2.51031
2.50947
2.50804
2.5062
2.50424
2.50213
2.49984
2.49703
2.49353
2.48913
2.48362
2.47698
2.46904
2.46068
3.78877
2.74983
2.52057
2.5201
2.51881
2.51655
2.51488
2.51409
2.51383
2.51371
2.51327
2.51178
2.50947
2.50691
2.50437
2.5017
2.49878
2.49528
2.49096
2.48599
2.48043
2.47437
2.46749
2.46012
3.79518
2.75429
2.52524
2.52395
2.52195
2.5193
2.51775
2.51735
2.51739
2.51748
2.51688
2.51475
2.51171
2.50853
2.50539
2.50238
2.49912
2.49508
2.48996
2.48403
2.4776
2.47119
2.46466
2.45808
3.80143
2.75929
2.52897
2.52711
2.52422
2.52156
2.52042
2.52064
2.52132
2.5215
2.52044
2.51754
2.51404
2.51057
2.50723
2.50404
2.50054
2.49621
2.49067
2.48393
2.47639
2.46876
2.46133
2.45443
3.8079
2.76521
2.53241
2.52964
2.52561
2.52345
2.5234
2.5247
2.5259
2.52572
2.52346
2.5198
2.51601
2.51256
2.50938
2.50631
2.50288
2.49849
2.49262
2.48535
2.4772
2.46846
2.45951
2.45083
3.81463
2.77234
2.53523
2.53058
2.52645
2.526
2.52771
2.53003
2.53084
2.52949
2.52597
2.52169
2.51771
2.51434
2.51146
2.50872
2.50555
2.50121
2.49525
2.48785
2.47942
2.47022
2.46041
2.44984
3.82139
2.77992
2.53663
2.53068
2.52821
2.53026
2.53357
2.53555
2.53531
2.5326
2.52824
2.52358
2.51949
2.51623
2.51365
2.51123
2.50816
2.50366
2.49753
2.49016
2.48207
2.47332
2.46343
2.45202
3.82795
2.78595
2.537
2.53177
2.53213
2.53623
2.53943
2.54024
2.53877
2.53503
2.53021
2.52554
2.52168
2.51888
2.51673
2.51437
2.51084
2.50563
2.49899
2.49157
2.48387
2.47599
2.46721
2.45646
3.83424
2.78865
2.53615
2.535
2.53815
2.54273
2.54435
2.54387
2.54111
2.53657
2.53173
2.52757
2.52463
2.52288
2.52143
2.51877
2.51413
2.50766
2.50012
2.49233
2.48471
2.47739
2.46979
2.46076
3.84033
2.78922
2.53621
2.54105
2.54583
2.54832
2.54838
2.54648
2.54228
2.53728
2.53288
2.52981
2.52846
2.52811
2.5274
2.52427
2.51836
2.5106
2.50203
2.49353
2.4855
2.47814
2.47102
2.46326
3.84623
2.78812
2.54058
2.54884
2.55244
2.55307
2.55175
2.548
2.54262
2.53763
2.53407
2.53261
2.53295
2.53362
2.53314
2.52947
2.52288
2.51457
2.50544
2.49622
2.4874
2.47942
2.47203
2.46456
3.85191
2.78709
2.54855
2.55599
2.55777
2.55703
2.55391
2.5485
2.54278
2.53833
2.53598
2.53625
2.53761
2.53836
2.53706
2.5327
2.52613
2.51825
2.50962
2.50064
2.49157
2.48288
2.4745
2.46607
3.85742
2.78861
2.55649
2.5614
2.56141
2.55919
2.55438
2.54831
2.54317
2.54008
2.53973
2.54098
2.54218
2.54181
2.5389
2.53377
2.52733
2.52029
2.51297
2.50554
2.49782
2.4896
2.48029
2.46972
3.86289
2.79362
2.56284
2.5647
2.56305
2.5592
2.5535
2.54844
2.54523
2.54477
2.54599
2.54718
2.54687
2.54429
2.53953
2.53343
2.52691
2.52066
2.51513
2.51046
2.50573
2.49933
2.4897
2.47699
3.86838
2.80184
2.56725
2.56612
2.56295
2.55768
2.55274
2.54969
2.54975
2.55207
2.55435
2.55468
2.55218
2.54695
2.54019
2.53292
2.52611
2.52056
2.51687
2.51495
2.51307
2.50888
2.50011
2.48676
3.87387
2.81163
2.5702
2.56655
2.56141
2.55623
2.55285
2.5531
2.556
2.5598
2.56194
2.56138
2.55704
2.54971
2.54141
2.53318
2.52563
2.5205
2.51869
2.51841
2.51745
2.51388
2.50651
2.49502
3.87916
2.82119
2.57176
2.5658
2.55933
2.55587
2.55542
2.55811
2.56238
2.56532
2.56622
2.56466
2.55929
2.5512
2.54194
2.53297
2.52622
2.52309
2.52219
2.52138
2.51915
2.51476
2.50767
2.498
3.88395
2.82852
2.57214
2.5642
2.55877
2.55831
2.56033
2.56426
2.56736
2.56864
2.56801
2.56438
2.55818
2.55089
2.54344
2.53712
2.53296
2.53021
2.52779
2.52463
2.52011
2.51372
2.50563
2.4963
3.88812
2.83248
2.57113
2.56378
2.56175
2.56436
2.56802
2.57055
2.57131
2.57058
2.56751
2.56196
2.55577
2.55034
2.54675
2.54543
2.54437
2.54151
2.53656
2.53016
2.52237
2.51298
2.50304
2.49365
3.89169
2.83251
2.56805
2.56645
2.56844
2.57352
2.57632
2.57659
2.57485
2.57074
2.56507
2.55875
2.55312
2.54949
2.55043
2.55337
2.55503
2.55345
2.5473
2.53761
2.52614
2.51375
2.50153
2.4912
3.89465
2.82984
2.56555
2.57146
2.57704
2.58117
2.58247
2.58133
2.57691
2.56992
2.56223
2.55579
2.55084
2.55085
2.55446
2.55856
2.56084
2.56047
2.55531
2.54424
2.5299
2.51486
2.50045
2.48911
3.89733
2.82627
2.56735
2.57723
2.58217
2.58435
2.58491
2.58252
2.57718
2.56874
2.56056
2.55504
2.55306
2.5545
2.55752
2.56048
2.56209
2.56144
2.5569
2.54706
2.53306
2.5174
2.50316
2.49274
3.9001
2.82619
2.57423
2.58122
2.58412
2.58498
2.58412
2.58092
2.57552
2.56975
2.56442
2.56101
2.55993
2.56022
2.56097
2.56136
2.56074
2.55792
2.5524
2.54477
2.53524
2.52372
2.51283
2.50376
3.90306
2.83078
2.5811
2.58332
2.58389
2.58293
2.58044
2.57703
2.57407
2.57218
2.57127
2.57047
2.56947
2.56813
2.56609
2.56271
2.55773
2.5514
2.54499
2.5397
2.53579
2.5317
2.52566
2.51768
3.90546
2.83991
2.58628
2.58492
2.58249
2.57942
2.57552
2.57274
2.57176
2.57322
2.57634
2.57881
2.57884
2.57611
2.57045
2.56188
2.55219
2.54336
2.53698
2.53367
2.53315
2.53414
2.534
2.52981
3.9065
2.84453
2.58845
2.58471
2.57971
2.57461
2.57176
2.57034
2.57146
2.57547
2.58094
2.58482
2.58559
2.5808
2.57122
2.55854
2.5466
2.53736
2.53275
2.53295
2.53529
2.53864
2.54097
2.53897
2.42813
2.49636
2.54298
2.58018
2.61695
2.652
2.67376
2.68275
2.52057
2.55074
2.55664
2.58346
2.61724
2.6514
2.66983
2.67828
2.49717
2.52365
2.54
2.57043
2.60464
2.63997
2.65769
2.66514
2.47997
2.50063
2.5232
2.55539
2.5881
2.62365
2.64434
2.65104
2.4663
2.47662
2.49344
2.52238
2.5553
2.59402
2.62198
2.63403
2.45839
2.4608
2.47033
2.49116
2.52134
2.56317
2.60262
2.61778
2.45481
2.45083
2.453
2.46388
2.48455
2.52141
2.57036
2.60615
2.4524
2.44608
2.44144
2.44208
2.44886
2.4751
2.53301
2.62033
2.45055
2.44235
2.43392
2.42701
2.42141
2.42229
2.41993
2.38724
2.44725
2.43875
2.42835
2.41507
2.39932
2.37531
2.33796
2.23719
2.4424
2.43311
2.42176
2.40566
2.38405
2.34756
2.29355
2.17054
2.43893
2.42722
2.41395
2.39638
2.37185
2.33433
2.27507
2.1743
2.43922
2.42456
2.40808
2.38823
2.36206
2.32599
2.27309
2.19006
2.44278
2.42659
2.40749
2.3849
2.35705
2.32206
2.27566
2.21013
2.44846
2.43217
2.41165
2.38783
2.35921
2.32446
2.28224
2.22891
2.45294
2.4387
2.41924
2.3953
2.36626
2.33183
2.29319
2.24732
2.45514
2.44274
2.4258
2.40428
2.37745
2.34535
2.30996
2.26882
2.45613
2.44403
2.42871
2.41016
2.38793
2.3603
2.32948
2.29368
2.45775
2.44441
2.42945
2.4127
2.39422
2.37212
2.34667
2.31693
2.46224
2.44645
2.43045
2.41412
2.39762
2.37946
2.35958
2.33544
2.47032
2.45223
2.43422
2.41682
2.40066
2.3843
2.36795
2.34929
2.47947
2.461
2.44172
2.42265
2.4054
2.38912
2.37391
2.35804
2.48558
2.46996
2.45188
2.43231
2.41375
2.39639
2.38065
2.36459
2.48634
2.4754
2.46244
2.44666
2.42916
2.4105
2.39179
2.37291
2.48524
2.47752
2.46972
2.45995
2.44691
2.4295
2.4088
2.38554
2.48372
2.4787
2.47524
2.47041
2.46155
2.44672
2.42648
2.40142
2.48283
2.47991
2.47811
2.47486
2.46853
2.45711
2.43977
2.41608
2.48653
2.48259
2.47923
2.47498
2.46876
2.45868
2.444
2.42516
2.49601
2.48855
2.48161
2.47466
2.46621
2.45525
2.44214
2.42714
2.50856
2.4985
2.48747
2.47543
2.46296
2.45018
2.43696
2.42338
2.52065
2.50788
2.49254
2.4754
2.45857
2.44351
2.42978
2.41731
2.52974
2.5138
2.49424
2.47321
2.45269
2.4359
2.42521
2.41825
1.75
1.33546
1.297
1.35427
1.49547
1.64464
1.78679
1.87645
1.93779
2.01845
2.13538
2.16669
2.20776
2.29123
2.29764
2.30775
2.31539
2.31279
2.30202
2.28986
2.28375
2.28337
2.28154
2.2709
2.25712
2.24613
2.2406
2.23709
2.22798
2.21256
2.19132
2.16307
2.13739
2.11542
2.09418
2.0739
2.05672
2.04361
2.03378
2.03011
2.03225
2.03319
2.03
2.02502
2.01799
2.00765
1.99116
1.96344
1.92585
1.89036
1.87028
1.86705
1.87636
1.92287
2.01598
2.12534
2.20212
2.20311
2.19186
2.18031
2.16972
2.15533
2.12686
2.09872
2.0842
2.07616
2.07065
2.07066
2.07734
2.08834
2.0953
2.09586
2.09254
2.08643
2.07598
2.05607
2.02845
2.00974
2.00184
1.99761
1.99645
2.00187
2.00984
2.01342
2.01286
2.00961
2.00522
1.99149
1.91305
1.71894
1.58099
1.52958
1.5414
1.55488
1.57656
1.6323
1.71533
1.81678
1.93072
2.01861
2.1144
2.23741
2.25456
2.26839
2.28549
2.29216
2.28816
2.27553
2.26252
2.25192
2.24271
2.23222
2.21982
2.20844
2.19984
2.19228
2.18382
2.17314
2.16022
2.14713
2.13395
2.11869
2.10151
2.08215
2.06106
2.0423
2.02973
2.02214
2.01941
2.01668
2.0109
2.00322
1.99398
1.98279
1.96729
1.9472
1.92547
1.90223
1.88158
1.88123
1.89916
1.94734
2.01273
2.09183
2.16685
2.172
2.16091
2.15235
2.14388
2.13201
2.11857
2.10714
2.09515
2.0831
2.07448
2.07054
2.07303
2.08076
2.08478
2.082
2.07661
2.06916
2.05715
2.0412
2.02828
2.01708
2.00584
1.999
1.99595
1.99829
2.00438
2.00643
2.00416
1.99939
1.99439
1.981
1.97019
1.83571
1.73205
1.64109
1.56892
1.53699
1.51746
1.53778
1.58944
1.63954
1.70602
1.81073
1.9322
2.09813
2.16893
2.19611
2.2067
2.22129
2.22936
2.22867
2.22059
2.20337
2.18862
2.17804
2.16676
2.15305
2.13792
2.12372
2.11263
2.1051
2.10192
2.09948
2.09236
2.08317
2.07323
2.06243
2.05042
2.03539
2.0166
1.99952
1.98805
1.97921
1.97152
1.96427
1.95501
1.94164
1.92508
1.91066
1.90121
1.89542
1.8963
1.90791
1.9372
1.9688
1.99267
2.03679
2.10719
2.12475
2.11881
2.10951
2.10177
2.09428
2.09085
2.08778
2.08341
2.07762
2.07123
2.06566
2.06217
2.06105
2.05791
2.05381
2.04799
2.03736
2.0233
2.0144
2.01071
2.00626
1.9998
1.99357
1.98984
1.98891
1.98932
1.9872
1.98362
1.97938
1.97292
1.95788
2.03862
1.92622
1.83774
1.76263
1.67787
1.61803
1.59244
1.58319
1.56752
1.56644
1.5851
1.6516
1.76296
1.91075
2.05039
2.12499
2.14147
2.15321
2.15917
2.1598
2.15489
2.1413
2.1272
2.11643
2.10615
2.09385
2.07832
2.06327
2.05382
2.04809
2.04738
2.04762
2.04414
2.03903
2.03486
2.03098
2.0243
2.01303
1.99503
1.97125
1.94858
1.93275
1.92285
1.91371
1.90331
1.89026
1.87941
1.87289
1.87126
1.88076
1.90476
1.93939
1.97072
1.97776
1.97197
1.97847
2.01875
2.05459
2.06341
2.05913
2.05808
2.05833
2.059
2.05858
2.05887
2.05967
2.05875
2.05295
2.0422
2.03005
2.02055
2.01357
2.00552
1.99633
1.99039
1.98726
1.9861
1.98539
1.98389
1.98133
1.97728
1.97185
1.9661
1.96131
1.95592
1.94831
1.93798
1.92505
2.09776
2.00859
1.92566
1.85745
1.79407
1.72729
1.67398
1.65176
1.6315
1.60877
1.5947
1.60499
1.6435
1.74363
1.91164
2.04922
2.09833
2.1223
2.12335
2.11985
2.11247
2.10385
2.09389
2.08307
2.07174
2.05916
2.04537
2.03272
2.02326
2.01692
2.0138
2.01364
2.01357
2.01109
2.00808
2.00256
1.99423
1.98135
1.96486
1.9451
1.92296
1.90034
1.88095
1.8662
1.8542
1.84584
1.84159
1.84243
1.85206
1.87936
1.92418
1.96427
1.97469
1.97221
1.9568
1.93567
1.93802
1.9754
2.00665
2.02059
2.027
2.03297
2.03725
2.03863
2.04171
2.04532
2.04366
2.03759
2.02185
1.99946
1.98329
1.97168
1.96352
1.95981
1.95886
1.95934
1.96231
1.96567
1.9671
1.96615
1.96267
1.95533
1.94427
1.93263
1.92152
1.91035
1.89952
1.8929
2.141
2.07153
2.00322
1.93664
1.88191
1.83215
1.7781
1.73216
1.71198
1.69139
1.66293
1.63889
1.63725
1.65398
1.73568
1.91898
2.05796
2.10585
2.11206
2.11015
2.10594
2.09875
2.09131
2.08159
2.07034
2.05934
2.04905
2.03795
2.02408
2.00939
1.99796
1.98961
1.98393
1.9829
1.97994
1.97273
1.96334
1.95077
1.93477
1.91986
1.9051
1.88634
1.86294
1.84156
1.82827
1.82298
1.82164
1.82893
1.85544
1.89832
1.94814
1.96953
1.96865
1.95803
1.93749
1.91432
1.89804
1.91407
1.95589
1.98874
2.00607
2.01992
2.02905
2.03275
2.03175
2.02855
2.02417
2.01568
1.99868
1.97542
1.95468
1.94371
1.93837
1.93604
1.93599
1.94107
1.94885
1.9568
1.95916
1.95709
1.95252
1.94133
1.92311
1.90619
1.89104
1.87944
1.87272
1.87077
2.17428
2.11703
2.0624
2.0062
1.95245
1.90963
1.86958
1.82401
1.78369
1.76044
1.73849
1.70985
1.67524
1.66965
1.67845
1.74526
1.93952
2.07134
2.10337
2.09809
2.09858
2.10127
2.09569
2.08767
2.07812
2.06846
2.05777
2.04534
2.03
2.01143
1.99308
1.97832
1.96747
1.95833
1.95202
1.94634
1.93919
1.92983
1.91798
1.9066
1.89541
1.88072
1.8606
1.84006
1.82422
1.82276
1.82681
1.8407
1.87721
1.92345
1.95454
1.96163
1.95616
1.94167
1.92204
1.90197
1.88944
1.89309
1.91891
1.96167
1.99069
2.01214
2.02295
2.02094
2.01484
2.00921
2.00434
1.99601
1.97844
1.95666
1.94376
1.9348
1.92934
1.92663
1.92789
1.93754
1.95058
1.95471
1.95185
1.9477
1.94006
1.92585
1.90644
1.88654
1.8718
1.86418
1.86164
1.86275
2.20068
2.15275
2.10539
2.06219
2.01382
1.96957
1.93519
1.90021
1.85997
1.82657
1.80592
1.78386
1.75012
1.71889
1.70063
1.70467
1.76521
1.96001
2.08271
2.0998
2.09252
2.09179
2.09401
2.09153
2.08455
2.07495
2.06317
2.04945
2.0338
2.01498
1.99397
1.9752
1.96016
1.94665
1.93544
1.92656
1.92008
1.91741
1.91445
1.90764
1.89876
1.88681
1.87066
1.85288
1.83647
1.83561
1.84121
1.86925
1.9165
1.94428
1.95342
1.94858
1.93953
1.92781
1.9155
1.90134
1.89127
1.89178
1.90325
1.93655
1.97601
2.00366
2.01179
2.00799
2.00127
1.99365
1.98688
1.97725
1.96258
1.9495
1.9402
1.93334
1.92919
1.92849
1.93361
1.94172
1.94453
1.94235
1.93948
1.93516
1.92697
1.91136
1.89086
1.87529
1.86584
1.86112
1.86012
1.86787
2.22615
2.18252
2.14016
2.09962
2.06283
2.02066
1.9832
1.95415
1.9232
1.89031
1.86375
1.84235
1.81721
1.78551
1.75285
1.73087
1.73251
1.79205
1.97576
2.0849
2.09805
2.0887
2.08354
2.08498
2.08373
2.07658
2.06604
2.0525
2.03618
2.01942
2.00193
1.98238
1.96362
1.94788
1.93409
1.92407
1.917
1.91362
1.91329
1.91287
1.90818
1.89883
1.88463
1.8688
1.8526
1.8541
1.87421
1.9182
1.95091
1.95571
1.94316
1.93288
1.92808
1.92261
1.91636
1.91131
1.90651
1.90318
1.90793
1.92435
1.9567
1.99197
2.00431
2.00309
1.99473
1.98233
1.97231
1.96429
1.95638
1.94966
1.94448
1.94092
1.94037
1.9434
1.94522
1.94277
1.93774
1.93301
1.92827
1.92171
1.9104
1.89448
1.88098
1.87112
1.865
1.86296
1.86528
1.88627
2.25502
2.21307
2.17144
2.13345
2.09697
2.06078
2.02487
1.99424
1.96953
1.94203
1.91499
1.89208
1.87093
1.84693
1.81706
1.78471
1.7578
1.75811
1.81947
1.99186
2.08583
2.09031
2.07921
2.07373
2.07361
2.07053
2.06277
2.05227
2.03934
2.02586
2.01141
1.99438
1.97412
1.95518
1.94088
1.93026
1.92303
1.91879
1.91605
1.91039
1.90095
1.89034
1.87951
1.87263
1.87193
1.89197
1.92913
1.95968
1.96647
1.95491
1.93931
1.93238
1.9279
1.92616
1.92714
1.93032
1.93013
1.92611
1.92193
1.92323
1.93477
1.9616
1.98775
1.993
1.98604
1.97297
1.96518
1.96115
1.95855
1.95769
1.95777
1.96041
1.96215
1.95894
1.95251
1.94396
1.93599
1.92832
1.91894
1.90626
1.89236
1.88334
1.87773
1.87237
1.87055
1.87352
1.88595
1.9178
2.28428
2.2477
2.20745
2.16636
2.13043
2.09486
2.0605
2.03076
2.00205
1.97984
1.95495
1.93247
1.9136
1.8932
1.87011
1.84156
1.8071
1.77971
1.77982
1.84415
1.997
2.07853
2.08183
2.07244
2.06328
2.05761
2.05326
2.04729
2.0384
2.02887
2.01765
2.00403
1.98744
1.97081
1.95612
1.94314
1.93202
1.92326
1.91458
1.90432
1.89224
1.88093
1.87569
1.88267
1.90578
1.95035
1.97838
1.98227
1.971
1.95658
1.94652
1.94058
1.93663
1.93895
1.94538
1.94947
1.94747
1.94161
1.93317
1.92345
1.91746
1.91953
1.94509
1.96938
1.97384
1.96943
1.96609
1.96501
1.96879
1.97344
1.97702
1.97835
1.97451
1.96777
1.95848
1.94776
1.93508
1.92052
1.90495
1.89224
1.88479
1.87981
1.87635
1.87685
1.88424
1.8984
1.91966
1.94795
2.30818
2.27816
2.2443
2.20618
2.16568
2.12887
2.09482
2.06317
2.03665
2.00976
1.98622
1.96392
1.94531
1.92884
1.90929
1.88655
1.85833
1.82365
1.79745
1.79822
1.86061
1.99662
2.07714
2.07579
2.06205
2.04924
2.04061
2.03704
2.03488
2.02922
2.02098
2.00944
1.99528
1.98148
1.96778
1.95352
1.93816
1.92223
1.90659
1.89215
1.87948
1.87194
1.87631
1.90185
1.95525
1.99439
2.00147
1.99681
1.98322
1.96931
1.96276
1.95791
1.95648
1.95819
1.95681
1.95395
1.95024
1.94453
1.93634
1.92482
1.90949
1.89664
1.90495
1.93426
1.95948
1.96857
1.97092
1.97515
1.98299
1.98858
1.98755
1.98378
1.97826
1.97186
1.96286
1.94768
1.92765
1.90949
1.89806
1.8909
1.88549
1.88159
1.88217
1.89224
1.91125
1.9294
1.95066
1.9673
2.32708
2.30136
2.27234
2.24078
2.20663
2.16833
2.12984
2.0974
2.06775
2.04131
2.01766
1.99287
1.96942
1.95073
1.93556
1.91727
1.89618
1.86904
1.83546
1.81184
1.81313
1.87379
2.00132
2.07176
2.06317
2.04912
2.03717
2.02959
2.02634
2.02167
2.01415
2.00582
1.99671
1.98495
1.97224
1.95768
1.939
1.91658
1.89416
1.87788
1.86888
1.87035
1.88983
1.94535
1.99739
2.01923
2.01681
2.00939
1.99866
1.98941
1.98453
1.98089
1.97614
1.96898
1.96233
1.95775
1.95268
1.94604
1.93637
1.92323
1.90654
1.89557
1.89443
1.90861
1.93883
1.96502
1.97808
1.98927
1.99551
1.9917
1.98672
1.98283
1.97891
1.97296
1.9606
1.93956
1.9208
1.90946
1.90058
1.89453
1.89091
1.89165
1.90251
1.91956
1.93891
1.95787
1.97401
1.97865
2.34031
2.31856
2.29284
2.26498
2.23631
2.20616
2.1714
2.13405
2.10181
2.07393
2.04726
2.02247
1.99669
1.97247
1.95379
1.93851
1.92076
1.90141
1.87538
1.84344
1.82271
1.82492
1.88487
1.99896
2.05779
2.05353
2.0397
2.02705
2.01749
2.01075
2.00498
1.99907
1.99149
1.98269
1.97212
1.95811
1.93803
1.91109
1.88669
1.87465
1.87248
1.88658
1.93996
1.99417
2.02768
2.03618
2.03298
2.02545
2.01694
2.00934
2.00227
1.99357
1.98327
1.97385
1.96588
1.95862
1.95158
1.9437
1.93352
1.92108
1.9082
1.90083
1.89977
1.90572
1.92689
1.95624
1.98276
1.99851
1.99969
1.99561
1.98936
1.98263
1.97604
1.96685
1.95069
1.93333
1.92299
1.91571
1.90944
1.9059
1.90712
1.91594
1.92857
1.94471
1.96756
1.98404
1.98899
1.98086
2.34742
2.32833
2.3068
2.28273
2.25718
2.23119
2.20427
2.17302
2.13927
2.10768
2.07911
2.05138
2.02468
1.99812
1.97404
1.95539
1.93901
1.92089
1.90253
1.87832
1.84882
1.83157
1.83445
1.88841
1.98954
2.04592
2.04342
2.02796
2.01256
2.00245
1.9949
1.9894
1.9841
1.97632
1.96744
1.95575
1.93646
1.90896
1.88623
1.87963
1.8915
1.94132
1.99868
2.03145
2.04638
2.04963
2.04429
2.03622
2.02814
2.01936
2.00968
1.99879
1.98552
1.9736
1.96466
1.95657
1.94866
1.94092
1.93297
1.92373
1.91526
1.91004
1.90796
1.91153
1.92319
1.94426
1.97546
1.9964
1.99935
1.99618
1.98867
1.97832
1.96752
1.95586
1.94326
1.93344
1.92664
1.9219
1.9201
1.92366
1.93204
1.94183
1.95585
1.97746
1.99625
2.00072
1.99614
1.97627
2.35334
2.33327
2.31387
2.29388
2.27155
2.24888
2.22652
2.20228
2.17396
2.1434
2.11207
2.08167
2.05256
2.02449
1.99753
1.97415
1.95507
1.93762
1.91863
1.89972
1.87672
1.85128
1.83579
1.83828
1.8877
1.97814
2.035
2.02957
2.01355
1.99839
1.98862
1.9814
1.97569
1.96829
1.95934
1.94767
1.93049
1.90865
1.89435
1.90213
1.94849
2.01226
2.04333
2.05376
2.05364
2.05026
2.04441
2.038
2.03144
2.02386
2.0142
2.00121
1.98693
1.976
1.96765
1.9595
1.95159
1.9441
1.93713
1.93169
1.92817
1.92709
1.92491
1.92301
1.92285
1.93207
1.95204
1.97906
1.99078
1.98974
1.982
1.97065
1.95919
1.94936
1.94134
1.93602
1.93166
1.9303
1.93591
1.94482
1.95258
1.966
1.98636
2.00566
2.01145
2.00709
1.99245
1.97222
2.36174
2.33941
2.31903
2.29969
2.28029
2.26099
2.24305
2.22391
2.1997
2.17252
2.14337
2.11241
2.08081
2.0503
2.02125
1.99426
1.9713
1.95259
1.93559
1.9179
1.89842
1.87481
1.84929
1.8349
1.83595
1.88032
1.96909
2.01576
2.01168
1.99909
1.98614
1.97656
1.96829
1.9598
1.9495
1.93612
1.92204
1.91237
1.91763
1.95522
2.02827
2.06091
2.06769
2.06287
2.05551
2.05018
2.04552
2.04067
2.03412
2.02593
2.01476
2.00176
1.99216
1.98418
1.97587
1.96721
1.95894
1.95259
1.94784
1.94581
1.94604
1.94301
1.93659
1.9277
1.92106
1.91744
1.9217
1.93803
1.9626
1.97446
1.97319
1.96747
1.95936
1.9506
1.94447
1.93992
1.93873
1.94477
1.95224
1.9576
1.97043
1.991
2.00865
2.01689
2.01264
2.001
1.9889
1.98037
2.37414
2.34818
2.32547
2.30521
2.28651
2.26949
2.25458
2.23981
2.21977
2.19424
2.16705
2.1382
2.10739
2.07513
2.04356
2.01457
1.98987
1.96923
1.95042
1.93244
1.91394
1.89298
1.86754
1.8417
1.82782
1.82933
1.87193
1.95377
1.99403
1.9972
1.98688
1.97394
1.96228
1.95082
1.93685
1.92353
1.91906
1.92677
1.96397
2.03382
2.08089
2.08725
2.08048
2.06898
2.05715
2.05025
2.04524
2.04122
2.03558
2.02768
2.01769
2.00692
1.99901
1.99295
1.98683
1.97947
1.97172
1.96634
1.96244
1.95856
1.95272
1.94603
1.93842
1.92854
1.91786
1.90831
1.90418
1.90899
1.9259
1.9517
1.96493
1.96781
1.96289
1.95746
1.9544
1.95104
1.95162
1.95488
1.95987
1.97195
1.99113
2.00926
2.01798
2.0129
2.00321
1.99744
1.99448
1.98873
2.38913
2.3611
2.33403
2.31114
2.29261
2.27652
2.2627
2.2488
2.23212
2.21038
2.1845
2.15649
2.12696
2.09637
2.06516
2.03559
2.00914
1.98588
1.96506
1.94521
1.92578
1.90585
1.88444
1.8587
1.83391
1.81811
1.81913
1.86038
1.93527
1.98082
1.98451
1.97228
1.95815
1.94161
1.92505
1.91962
1.92431
1.95753
2.03247
2.09032
2.09987
2.09714
2.08734
2.07248
2.05968
2.05155
2.04591
2.04134
2.037
2.03058
2.02234
2.01493
2.00936
2.00465
1.99956
1.99391
1.98672
1.97877
1.97106
1.96374
1.95657
1.94854
1.93865
1.92647
1.91424
1.90405
1.90017
1.90113
1.90635
1.92823
1.95327
1.96689
1.96947
1.97063
1.9702
1.96587
1.96383
1.96545
1.97386
1.99128
2.0093
2.01759
2.013
2.00362
1.99841
1.99545
1.9949
1.99734
2.40241
2.37636
2.34956
2.32339
2.30102
2.28475
2.27055
2.25427
2.23646
2.2173
2.1949
2.16915
2.1416
2.11268
2.08346
2.05544
2.02894
2.00359
1.97955
1.95704
1.93641
1.9169
1.89654
1.87268
1.84422
1.81854
1.8053
1.80847
1.84827
1.92295
1.96406
1.96517
1.95217
1.93425
1.91924
1.92082
1.94557
2.02145
2.08894
2.11097
2.10798
2.10106
2.09183
2.07956
2.06629
2.05606
2.0493
2.04381
2.03859
2.0339
2.02899
2.02504
2.02119
2.01625
2.01086
2.00384
1.9934
1.98223
1.97326
1.96508
1.95643
1.94646
1.93484
1.92368
1.91393
1.90523
1.89936
1.8972
1.89988
1.91226
1.93687
1.95841
1.97058
1.97814
1.97846
1.97594
1.97735
1.98334
1.99703
2.0138
2.02012
2.0151
2.00832
2.00329
1.99991
1.99703
1.99784
2.00808
2.40923
2.38771
2.36432
2.34212
2.32133
2.30106
2.28039
2.25942
2.23846
2.21777
2.19783
2.17581
2.15016
2.12325
2.09673
2.07122
2.04639
2.02123
1.99546
1.96988
1.94571
1.92345
1.90235
1.88091
1.85622
1.82768
1.80349
1.79342
1.79807
1.8389
1.90193
1.94086
1.94095
1.92879
1.92218
1.93796
2.00633
2.08443
2.11088
2.11457
2.10984
2.10214
2.0949
2.08623
2.07559
2.06374
2.05429
2.04734
2.042
2.03829
2.03679
2.03357
2.02763
2.02112
2.0139
2.00513
1.9941
1.98229
1.97207
1.96288
1.95356
1.94414
1.93499
1.92563
1.91681
1.9088
1.90242
1.89802
1.89957
1.90334
1.91676
1.93994
1.95844
1.97288
1.97814
1.98384
1.99378
2.00847
2.02625
2.0319
2.02531
2.01788
2.01198
2.00747
2.00387
2.00263
2.00804
2.01064
2.41022
2.3966
2.37953
2.35937
2.33862
2.31633
2.29081
2.26596
2.24286
2.21964
2.19703
2.17647
2.15473
2.13056
2.10651
2.08329
2.06015
2.03594
2.00976
1.98174
1.95365
1.92798
1.905
1.88311
1.86099
1.83615
1.81068
1.79028
1.78046
1.78492
1.81898
1.87783
1.91638
1.91825
1.93695
1.99623
2.07554
2.1121
2.11883
2.1161
2.11056
2.10377
2.09777
2.09117
2.08303
2.07232
2.06083
2.05196
2.0457
2.04005
2.03545
2.03183
2.02648
2.02015
2.01316
2.00471
1.99381
1.98123
1.96999
1.9609
1.95277
1.94474
1.93708
1.93081
1.92521
1.91992
1.91381
1.90683
1.89989
1.89454
1.89551
1.90787
1.93002
1.95255
1.97078
1.9887
2.00687
2.02802
2.04316
2.04379
2.03851
2.0293
2.02258
2.01866
2.01638
2.01832
2.02029
2.01444
2.40721
2.39807
2.38701
2.37188
2.35208
2.32748
2.30118
2.2741
2.24729
2.22093
2.19574
2.17339
2.15531
2.13532
2.11349
2.09162
2.06907
2.04517
2.01895
1.98997
1.96017
1.93208
1.90674
1.88375
1.86234
1.84104
1.81765
1.79453
1.77486
1.76312
1.76615
1.79982
1.86137
1.91546
1.98459
2.06615
2.10649
2.11495
2.11586
2.11498
2.11185
2.1064
2.10091
2.09549
2.08877
2.07899
2.06655
2.05565
2.04805
2.04184
2.03608
2.03061
2.02451
2.01766
2.01022
2.00199
1.99225
1.98014
1.96814
1.95953
1.95272
1.94677
1.94176
1.93816
1.93617
1.9324
1.92644
1.91777
1.90544
1.89065
1.87939
1.88138
1.8946
1.92
1.95344
1.98742
2.01252
2.03654
2.04874
2.04868
2.04509
2.03902
2.03367
2.03197
2.03285
2.03303
2.02895
2.0201
2.41108
2.40326
2.39458
2.38144
2.36003
2.33507
2.30818
2.27818
2.24649
2.21787
2.19322
2.1718
2.15514
2.13841
2.11751
2.09594
2.07358
2.05015
2.02489
1.99627
1.96419
1.93303
1.90622
1.88275
1.86137
1.84179
1.82164
1.79941
1.77651
1.75419
1.7403
1.75143
1.80362
1.91283
2.02667
2.1154
2.13773
2.12242
2.1152
2.11456
2.11338
2.10857
2.1031
2.09818
2.09193
2.08201
2.06867
2.05634
2.04719
2.04006
2.03365
2.02763
2.02149
2.01476
2.00727
1.99929
1.99044
1.97856
1.96521
1.9576
1.95289
1.94974
1.94898
1.94808
1.94414
1.93841
1.93148
1.92098
1.906
1.88473
1.86671
1.86481
1.86943
1.88875
1.92959
1.97827
2.01856
2.04912
2.05691
2.05737
2.05455
2.05061
2.04707
2.04476
2.04312
2.04021
2.03559
2.02581
)
;

boundaryField
{
    inlet
    {
        type            fixedValue;
        value           uniform 1;
    }
    outlet
    {
        type            inletOutlet;
        inletValue      uniform 1;
        value           nonuniform List<scalar> 
24
(
1.98994
1.97962
1.95638
1.92459
1.89356
1.87167
1.86351
1.86909
1.88844
1.91969
1.94866
1.96723
1.97767
1.97831
1.97244
1.9703
1.98009
1.98944
2.00006
2.01247
2.01254
2.01457
2.01915
2.02391
)
;
    }
    bottom
    {
        type            zeroGradient;
    }
    top
    {
        type            zeroGradient;
    }
    obstacle
    {
        type            zeroGradient;
    }
    defaultFaces
    {
        type            empty;
    }
}


// ************************************************************************* //
