/*--------------------------------*- C++ -*----------------------------------*\
  =========                 |
  \\      /  F ield         | OpenFOAM: The Open Source CFD Toolbox
   \\    /   O peration     | Website:  https://openfoam.org
    \\  /    A nd           | Version:  7
     \\/     M anipulation  |
\*---------------------------------------------------------------------------*/
FoamFile
{
    version     2.0;
    format      ascii;
    class       volVectorField;
    location    "9.5";
    object      U;
}
// * * * * * * * * * * * * * * * * * * * * * * * * * * * * * * * * * * * * * //

dimensions      [0 1 -1 0 0 0 0];

internalField   nonuniform List<vector> 
3328
(
(-2.6736 0.000635138 0)
(-0.458217 0.000390264 0)
(0.48706 0.00249314 0)
(0.481687 0.00262877 0)
(0.475603 0.00303774 0)
(0.468506 0.00349896 0)
(0.460414 0.00399279 0)
(0.451113 0.00454573 0)
(0.440441 0.00514369 0)
(0.428331 0.00582301 0)
(0.41471 0.00655813 0)
(0.399463 0.00737515 0)
(0.382394 0.00826692 0)
(0.363364 0.00926755 0)
(0.342261 0.0103684 0)
(0.318892 0.0115919 0)
(0.292922 0.0129058 0)
(0.263984 0.0143564 0)
(0.231992 0.0158433 0)
(0.196848 0.0175928 0)
(0.15832 0.0192588 0)
(0.116564 0.0213182 0)
(0.0715233 0.022537 0)
(0.0252786 0.0241826 0)
(-2.67354 0.00152542 0)
(-0.458255 0.00129234 0)
(0.486984 0.00781472 0)
(0.481601 0.00827677 0)
(0.475517 0.00948572 0)
(0.468419 0.0108725 0)
(0.460317 0.0123377 0)
(0.451027 0.0139998 0)
(0.440363 0.0158007 0)
(0.428275 0.0178899 0)
(0.414652 0.0201708 0)
(0.399397 0.0227147 0)
(0.382326 0.025507 0)
(0.363297 0.0286646 0)
(0.342138 0.0321308 0)
(0.318629 0.0359651 0)
(0.292443 0.0400321 0)
(0.263316 0.0445304 0)
(0.23117 0.0491146 0)
(0.195986 0.0545507 0)
(0.157261 0.0595213 0)
(0.115636 0.0656585 0)
(0.0704951 0.0690109 0)
(0.0247273 0.0730932 0)
(-2.67358 0.00226846 0)
(-0.458288 0.00206224 0)
(0.487691 0.0129084 0)
(0.482426 0.0137256 0)
(0.476505 0.0156818 0)
(0.469627 0.0179844 0)
(0.461751 0.0203993 0)
(0.452757 0.0231514 0)
(0.442403 0.0261237 0)
(0.430666 0.0295378 0)
(0.417402 0.0332955 0)
(0.402558 0.037522 0)
(0.385938 0.0421655 0)
(0.367413 0.0474306 0)
(0.346749 0.0532229 0)
(0.323761 0.0596836 0)
(0.298129 0.0665553 0)
(0.269663 0.0741984 0)
(0.237992 0.0819353 0)
(0.203015 0.0911473 0)
(0.163745 0.09949 0)
(0.120971 0.109792 0)
(0.0737785 0.115451 0)
(0.0258566 0.12137 0)
(-2.67392 0.00312238 0)
(-0.458429 0.00275657 0)
(0.488524 0.0177896 0)
(0.483446 0.0189659 0)
(0.477723 0.0215955 0)
(0.471147 0.0248056 0)
(0.463562 0.0281503 0)
(0.454969 0.0319712 0)
(0.445034 0.0360626 0)
(0.433792 0.0407909 0)
(0.421036 0.0459643 0)
(0.4068 0.0518228 0)
(0.390866 0.0582544 0)
(0.373153 0.0655598 0)
(0.353329 0.0735957 0)
(0.331223 0.0826686 0)
(0.306333 0.0924268 0)
(0.278482 0.103607 0)
(0.246799 0.115145 0)
(0.211601 0.129027 0)
(0.171278 0.141448 0)
(0.127839 0.156521 0)
(0.0784843 0.165419 0)
(0.0275786 0.173109 0)
(-2.67446 0.00385502 0)
(-0.45862 0.00350784 0)
(0.48955 0.0224104 0)
(0.484769 0.0239772 0)
(0.47926 0.0271974 0)
(0.473062 0.0312939 0)
(0.465801 0.0355317 0)
(0.457697 0.0403984 0)
(0.448281 0.0455623 0)
(0.437699 0.0515195 0)
(0.425623 0.058039 0)
(0.412183 0.0654509 0)
(0.397126 0.0735722 0)
(0.380464 0.082827 0)
(0.361718 0.0930118 0)
(0.340823 0.104735 0)
(0.317097 0.11749 0)
(0.290893 0.132408 0)
(0.260958 0.147661 0)
(0.228332 0.165817 0)
(0.189071 0.182363 0)
(0.145532 0.203188 0)
(0.0916766 0.219026 0)
(0.033312 0.231326 0)
(-2.67525 0.00474082 0)
(-0.458978 0.00468338 0)
(0.490675 0.0267363 0)
(0.486355 0.0287355 0)
(0.481088 0.0324496 0)
(0.475387 0.0373966 0)
(0.468486 0.042475 0)
(0.460956 0.0483557 0)
(0.452124 0.0545447 0)
(0.442316 0.0616757 0)
(0.431051 0.0694454 0)
(0.418593 0.0783335 0)
(0.404565 0.0880366 0)
(0.389177 0.0991535 0)
(0.371766 0.111338 0)
(0.35263 0.125554 0)
(0.330738 0.140939 0)
(0.307025 0.159138 0)
(0.278906 0.178082 0)
(0.247416 0.20172 0)
(0.206647 0.226782 0)
(0.159357 0.257549 0)
(0.101328 0.284304 0)
(0.0333641 0.300566 0)
(-2.67591 0.00549288 0)
(-0.45946 0.00631668 0)
(0.4918 0.0306309 0)
(0.488189 0.0330917 0)
(0.483181 0.0371883 0)
(0.478152 0.0429372 0)
(0.471667 0.0488273 0)
(0.4648 0.0557041 0)
(0.456593 0.0628937 0)
(0.447653 0.0711418 0)
(0.437315 0.0800708 0)
(0.426019 0.090339 0)
(0.413146 0.101496 0)
(0.399267 0.114353 0)
(0.383407 0.128286 0)
(0.366457 0.144679 0)
(0.346678 0.162379 0)
(0.325691 0.1838 0)
(0.300282 0.20721 0)
(0.272334 0.236593 0)
(0.238799 0.269124 0)
(0.198818 0.307866 0)
(0.140027 0.347403 0)
(0.0611724 0.378147 0)
(-2.6762 0.00634786 0)
(-0.460206 0.00870818 0)
(0.49249 0.0340861 0)
(0.489988 0.0371261 0)
(0.485365 0.0415851 0)
(0.481309 0.0480374 0)
(0.47537 0.0547349 0)
(0.469242 0.0625716 0)
(0.461729 0.0707053 0)
(0.453788 0.0799225 0)
(0.444493 0.0898903 0)
(0.434538 0.101405 0)
(0.422914 0.113835 0)
(0.410742 0.128242 0)
(0.396504 0.143674 0)
(0.381958 0.161986 0)
(0.364532 0.181816 0)
(0.347135 0.205905 0)
(0.326125 0.232164 0)
(0.304772 0.264429 0)
(0.276501 0.303725 0)
(0.238518 0.36515 0)
(0.157583 0.436627 0)
(0.106946 0.517939 0)
(-2.6758 0.00683669 0)
(-0.461064 0.0114593 0)
(0.494845 0.0370357 0)
(0.494002 0.0401898 0)
(0.489882 0.0450347 0)
(0.486654 0.0521299 0)
(0.481267 0.0597263 0)
(0.475716 0.0684595 0)
(0.468762 0.0774668 0)
(0.46173 0.0876657 0)
(0.453381 0.0985567 0)
(0.444799 0.111153 0)
(0.434397 0.124655 0)
(0.423966 0.140378 0)
(0.411322 0.157144 0)
(0.399232 0.177048 0)
(0.384535 0.198538 0)
(0.371256 0.223992 0)
(0.354603 0.2517 0)
(0.339662 0.2873 0)
(0.316611 0.338003 0)
(0.297082 0.418035 0)
(0.271535 0.496993 0)
(0.323554 0.557344 0)
(-2.67518 0.00772089 0)
(-0.461798 0.0120519 0)
(0.49976 0.0381266 0)
(0.499602 0.0418642 0)
(0.496285 0.0476755 0)
(0.493541 0.0555279 0)
(0.488597 0.0641155 0)
(0.483378 0.0737741 0)
(0.476886 0.0836724 0)
(0.470754 0.094685 0)
(0.463374 0.106363 0)
(0.456203 0.119827 0)
(0.447096 0.134193 0)
(0.4384 0.150863 0)
(0.427622 0.168689 0)
(0.41791 0.18947 0)
(0.406359 0.21215 0)
(0.396093 0.238214 0)
(0.384694 0.267137 0)
(0.374194 0.305006 0)
(0.364641 0.360624 0)
(0.358416 0.432926 0)
(0.369697 0.475991 0)
(0.418919 0.470248 0)
(-2.6747 0.00832048 0)
(-0.462149 0.00931254 0)
(0.504442 0.0379112 0)
(0.505103 0.0428044 0)
(0.502328 0.0499178 0)
(0.500027 0.0588845 0)
(0.495596 0.0684644 0)
(0.490845 0.0787349 0)
(0.485098 0.0892449 0)
(0.480058 0.100856 0)
(0.473918 0.113195 0)
(0.468183 0.127274 0)
(0.460636 0.142324 0)
(0.453576 0.159446 0)
(0.445132 0.177946 0)
(0.437203 0.199088 0)
(0.429148 0.222483 0)
(0.421589 0.248622 0)
(0.415261 0.278105 0)
(0.408359 0.314979 0)
(0.412205 0.36665 0)
(0.416417 0.43094 0)
(0.445027 0.471768 0)
(0.481737 0.46596 0)
(-2.67549 0.00928689 0)
(-0.462197 0.00655721 0)
(0.505807 0.0341394 0)
(0.507957 0.0456608 0)
(0.50613 0.0528766 0)
(0.504694 0.0621947 0)
(0.501063 0.0724621 0)
(0.497183 0.0830247 0)
(0.492699 0.0937944 0)
(0.488929 0.105841 0)
(0.484264 0.118964 0)
(0.479852 0.133591 0)
(0.474158 0.149185 0)
(0.468588 0.166467 0)
(0.462484 0.185335 0)
(0.456671 0.206411 0)
(0.451881 0.229885 0)
(0.446923 0.255601 0)
(0.444942 0.284469 0)
(0.441577 0.318118 0)
(0.451483 0.361785 0)
(0.463793 0.416076 0)
(0.49486 0.455138 0)
(0.521463 0.452038 0)
(-2.6778 0.00971428 0)
(-0.462192 0.00552419 0)
(0.505478 0.0323766 0)
(0.508726 0.0466251 0)
(0.50869 0.0546356 0)
(0.507784 0.0646831 0)
(0.505105 0.0753475 0)
(0.502299 0.0858543 0)
(0.499265 0.0970272 0)
(0.496815 0.109737 0)
(0.493884 0.12353 0)
(0.490707 0.138499 0)
(0.486811 0.154635 0)
(0.482785 0.172022 0)
(0.479113 0.190931 0)
(0.475456 0.211623 0)
(0.473622 0.234558 0)
(0.471416 0.259536 0)
(0.472598 0.287119 0)
(0.47288 0.317265 0)
(0.482628 0.352436 0)
(0.498992 0.395831 0)
(0.525848 0.435654 0)
(0.551024 0.446214 0)
(-2.68087 0.0102597 0)
(-0.462305 0.00660294 0)
(0.507549 0.0319693 0)
(0.510323 0.0469515 0)
(0.51087 0.0555654 0)
(0.509862 0.0660412 0)
(0.507649 0.0768827 0)
(0.50607 0.0875171 0)
(0.504754 0.0989763 0)
(0.503839 0.112095 0)
(0.502572 0.126594 0)
(0.500633 0.142048 0)
(0.49854 0.158332 0)
(0.495921 0.175846 0)
(0.494396 0.194816 0)
(0.49298 0.215158 0)
(0.493661 0.237358 0)
(0.494269 0.261386 0)
(0.497782 0.287289 0)
(0.501298 0.314703 0)
(0.510161 0.343861 0)
(0.524142 0.377259 0)
(0.547123 0.411526 0)
(0.571704 0.435631 0)
(-2.6837 0.0106485 0)
(-0.462464 0.00790702 0)
(0.511576 0.035097 0)
(0.513598 0.0466656 0)
(0.513661 0.0553052 0)
(0.511847 0.0661358 0)
(0.510109 0.0769699 0)
(0.509786 0.0875138 0)
(0.510039 0.0992863 0)
(0.510519 0.112852 0)
(0.510767 0.127712 0)
(0.510088 0.143508 0)
(0.509367 0.160279 0)
(0.508163 0.177778 0)
(0.508464 0.196337 0)
(0.509159 0.216458 0)
(0.511911 0.23819 0)
(0.515003 0.261439 0)
(0.52033 0.285931 0)
(0.526255 0.311433 0)
(0.535415 0.337315 0)
(0.547388 0.364743 0)
(0.565483 0.392261 0)
(0.585395 0.41857 0)
(-2.686 0.011084 0)
(-0.462258 0.00850875 0)
(0.517504 0.0389753 0)
(0.518453 0.0458968 0)
(0.517463 0.0549312 0)
(0.514196 0.0659314 0)
(0.513322 0.0763286 0)
(0.514036 0.086891 0)
(0.515742 0.0990965 0)
(0.517348 0.113061 0)
(0.518858 0.128061 0)
(0.519099 0.143751 0)
(0.51943 0.160178 0)
(0.519553 0.177537 0)
(0.521543 0.19607 0)
(0.524192 0.215831 0)
(0.528717 0.23692 0)
(0.533779 0.259598 0)
(0.540519 0.283204 0)
(0.547957 0.307334 0)
(0.557764 0.331403 0)
(0.569528 0.355884 0)
(0.584742 0.380055 0)
(0.601296 0.404267 0)
(-2.68797 0.0113903 0)
(-0.461697 0.0088806 0)
(0.52335 0.0402265 0)
(0.523611 0.0451587 0)
(0.52136 0.0552127 0)
(0.517605 0.0657339 0)
(0.517934 0.0754039 0)
(0.519461 0.0861783 0)
(0.522419 0.0989774 0)
(0.524902 0.113367 0)
(0.527052 0.128335 0)
(0.527739 0.143518 0)
(0.528657 0.159055 0)
(0.529942 0.175534 0)
(0.533527 0.193293 0)
(0.538085 0.21277 0)
(0.544422 0.233713 0)
(0.551133 0.255945 0)
(0.558974 0.278824 0)
(0.567473 0.302306 0)
(0.577864 0.325688 0)
(0.590049 0.348839 0)
(0.604407 0.37163 0)
(0.620073 0.39484 0)
(-2.68992 0.0117439 0)
(-0.460885 0.00879159 0)
(0.528328 0.038884 0)
(0.52774 0.0444536 0)
(0.524624 0.0548293 0)
(0.521658 0.0646387 0)
(0.523406 0.0738016 0)
(0.526147 0.0854407 0)
(0.530307 0.0993965 0)
(0.533277 0.114206 0)
(0.535417 0.128831 0)
(0.535981 0.143062 0)
(0.537243 0.157489 0)
(0.53966 0.172939 0)
(0.544653 0.189642 0)
(0.550903 0.208167 0)
(0.558957 0.22826 0)
(0.567211 0.249951 0)
(0.576112 0.272492 0)
(0.585381 0.295503 0)
(0.596292 0.31843 0)
(0.609076 0.341541 0)
(0.623928 0.364472 0)
(0.640123 0.387714 0)
(-2.69203 0.012058 0)
(-0.46001 0.00974219 0)
(0.532089 0.0366014 0)
(0.530037 0.0428981 0)
(0.526273 0.0530494 0)
(0.525769 0.0621304 0)
(0.529257 0.0720046 0)
(0.534065 0.0853631 0)
(0.539032 0.100278 0)
(0.541919 0.114831 0)
(0.543565 0.128549 0)
(0.543726 0.141772 0)
(0.54545 0.15536 0)
(0.548997 0.170024 0)
(0.555201 0.185819 0)
(0.562931 0.203304 0)
(0.572442 0.222208 0)
(0.582074 0.242756 0)
(0.592066 0.264232 0)
(0.602146 0.286501 0)
(0.613766 0.309255 0)
(0.627131 0.332476 0)
(0.642935 0.355731 0)
(0.660409 0.379985 0)
(-2.69429 0.0122545 0)
(-0.459237 0.0120924 0)
(0.533996 0.0333961 0)
(0.529878 0.0397026 0)
(0.527365 0.0496873 0)
(0.530068 0.0591786 0)
(0.536114 0.0711966 0)
(0.54275 0.0858948 0)
(0.547292 0.10044 0)
(0.549988 0.113884 0)
(0.550592 0.12648 0)
(0.551028 0.139093 0)
(0.553506 0.1523 0)
(0.558182 0.166621 0)
(0.565525 0.182003 0)
(0.57448 0.198848 0)
(0.585144 0.216758 0)
(0.595738 0.235901 0)
(0.606529 0.255562 0)
(0.617526 0.276108 0)
(0.630257 0.297591 0)
(0.644639 0.320518 0)
(0.661763 0.34448 0)
(0.680809 0.369533 0)
(-2.69644 0.0121658 0)
(-0.458734 0.0160588 0)
(0.534017 0.0283809 0)
(0.52859 0.0357015 0)
(0.530259 0.0462281 0)
(0.53566 0.0575961 0)
(0.544157 0.0713987 0)
(0.550428 0.0858703 0)
(0.554393 0.0990242 0)
(0.556187 0.111002 0)
(0.556514 0.12256 0)
(0.557759 0.134602 0)
(0.561307 0.14761 0)
(0.567286 0.162016 0)
(0.575884 0.177715 0)
(0.585976 0.194747 0)
(0.597432 0.212303 0)
(0.608365 0.230202 0)
(0.619464 0.247822 0)
(0.631222 0.266037 0)
(0.645272 0.285269 0)
(0.661252 0.306544 0)
(0.680079 0.329603 0)
(0.700948 0.354899 0)
(-2.69824 0.0118485 0)
(-0.459101 0.0197013 0)
(0.533315 0.0216682 0)
(0.529171 0.0330512 0)
(0.534985 0.0447711 0)
(0.543538 0.057774 0)
(0.551764 0.0719498 0)
(0.556579 0.0849573 0)
(0.559946 0.0964515 0)
(0.560854 0.10684 0)
(0.56153 0.117189 0)
(0.563954 0.128461 0)
(0.569009 0.141257 0)
(0.576744 0.156063 0)
(0.586745 0.172617 0)
(0.597909 0.190357 0)
(0.609449 0.207989 0)
(0.619958 0.224898 0)
(0.630982 0.240873 0)
(0.643378 0.257091 0)
(0.658647 0.274037 0)
(0.676425 0.292878 0)
(0.697312 0.313619 0)
(0.720403 0.337148 0)
(-2.69976 0.0113786 0)
(-0.460139 0.0204536 0)
(0.53454 0.0141477 0)
(0.531643 0.03367 0)
(0.542796 0.0455595 0)
(0.55193 0.058908 0)
(0.557785 0.0718167 0)
(0.561721 0.0832213 0)
(0.563636 0.0930525 0)
(0.564065 0.101789 0)
(0.565547 0.110907 0)
(0.569569 0.121403 0)
(0.576702 0.13408 0)
(0.586635 0.14928 0)
(0.598106 0.166383 0)
(0.610046 0.184367 0)
(0.620769 0.201825 0)
(0.630401 0.218131 0)
(0.641165 0.233376 0)
(0.65405 0.24852 0)
(0.670305 0.263904 0)
(0.689719 0.280589 0)
(0.712559 0.298804 0)
(0.738005 0.319303 0)
(-2.70114 0.010928 0)
(-0.462053 0.0182969 0)
(0.537726 0.00691241 0)
(0.538607 0.0379197 0)
(0.552228 0.0470383 0)
(0.55866 0.0592569 0)
(0.562764 0.0706621 0)
(0.565347 0.0806958 0)
(0.5657 0.0887492 0)
(0.566185 0.0961481 0)
(0.568941 0.104446 0)
(0.574946 0.114623 0)
(0.584506 0.127471 0)
(0.596473 0.142717 0)
(0.609239 0.159317 0)
(0.621229 0.176247 0)
(0.630994 0.192602 0)
(0.640062 0.208308 0)
(0.650611 0.223625 0)
(0.663752 0.238853 0)
(0.680605 0.253847 0)
(0.70126 0.269256 0)
(0.725661 0.285638 0)
(0.753032 0.303474 0)
(-2.7026 0.0105499 0)
(-0.464064 0.0140202 0)
(0.542764 0.00918296 0)
(0.548755 0.0371736 0)
(0.559724 0.0469333 0)
(0.563746 0.057806 0)
(0.566886 0.068204 0)
(0.567364 0.076485 0)
(0.566809 0.0830282 0)
(0.568032 0.0900228 0)
(0.572409 0.098323 0)
(0.580856 0.109089 0)
(0.592433 0.122514 0)
(0.605895 0.137389 0)
(0.618887 0.152352 0)
(0.630336 0.166828 0)
(0.639575 0.180801 0)
(0.648779 0.194984 0)
(0.659529 0.209949 0)
(0.672886 0.22568 0)
(0.689908 0.241591 0)
(0.711196 0.257281 0)
(0.736605 0.273103 0)
(0.765267 0.289144 0)
(-2.70434 0.0103592 0)
(-0.465254 0.00907633 0)
(0.55012 0.01381 0)
(0.55779 0.0354409 0)
(0.564918 0.0448052 0)
(0.568177 0.0546946 0)
(0.569196 0.0635182 0)
(0.568082 0.0696686 0)
(0.567918 0.0758674 0)
(0.570498 0.0833605 0)
(0.577288 0.0930197 0)
(0.587641 0.105469 0)
(0.600946 0.119514 0)
(0.614248 0.133365 0)
(0.626678 0.145945 0)
(0.637214 0.157393 0)
(0.646688 0.168355 0)
(0.657024 0.180095 0)
(0.669082 0.193514 0)
(0.683548 0.208729 0)
(0.701045 0.225526 0)
(0.722439 0.242819 0)
(0.747663 0.259981 0)
(0.776172 0.275539 0)
(-2.70649 0.0103798 0)
(-0.465058 0.00535512 0)
(0.557438 0.0184058 0)
(0.564248 0.0331761 0)
(0.568968 0.041362 0)
(0.570513 0.0497907 0)
(0.569518 0.0559131 0)
(0.568015 0.0610857 0)
(0.569259 0.0676333 0)
(0.574492 0.0764707 0)
(0.583701 0.0888825 0)
(0.595912 0.103225 0)
(0.609081 0.117088 0)
(0.621005 0.129238 0)
(0.631825 0.139487 0)
(0.641263 0.148141 0)
(0.651019 0.156369 0)
(0.662639 0.165297 0)
(0.676662 0.176133 0)
(0.693526 0.189499 0)
(0.713023 0.206114 0)
(0.735374 0.224812 0)
(0.759874 0.243913 0)
(0.786661 0.260451 0)
(-2.709 0.0104372 0)
(-0.463787 0.0034016 0)
(0.563655 0.0212137 0)
(0.568202 0.0299479 0)
(0.570769 0.0369735 0)
(0.570154 0.0432664 0)
(0.568208 0.0473351 0)
(0.56848 0.0523445 0)
(0.572647 0.0598262 0)
(0.581 0.0713916 0)
(0.592481 0.0855448 0)
(0.60505 0.100102 0)
(0.61629 0.113275 0)
(0.626432 0.124017 0)
(0.634956 0.132372 0)
(0.643442 0.138997 0)
(0.653317 0.145273 0)
(0.666052 0.152141 0)
(0.682354 0.160873 0)
(0.702555 0.172249 0)
(0.725308 0.187495 0)
(0.749313 0.205222 0)
(0.772805 0.224108 0)
(0.797186 0.2407 0)
(-2.71163 0.010341 0)
(-0.46155 0.00295153 0)
(0.568511 0.021274 0)
(0.56999 0.0258478 0)
(0.570079 0.0323215 0)
(0.567852 0.0362348 0)
(0.567238 0.0396593 0)
(0.57037 0.0451496 0)
(0.577891 0.054508 0)
(0.589358 0.0672286 0)
(0.602305 0.0812861 0)
(0.613332 0.0946816 0)
(0.622821 0.106585 0)
(0.629846 0.116159 0)
(0.6365 0.123276 0)
(0.644254 0.129085 0)
(0.654235 0.134764 0)
(0.668032 0.141004 0)
(0.686413 0.149139 0)
(0.70952 0.159373 0)
(0.735211 0.172123 0)
(0.761072 0.186114 0)
(0.78436 0.201636 0)
(0.807053 0.216144 0)
(-2.71412 0.00988665 0)
(-0.459002 0.0051195 0)
(0.571048 0.0182159 0)
(0.570172 0.0215273 0)
(0.567861 0.0266044 0)
(0.565741 0.0296169 0)
(0.568183 0.0336149 0)
(0.574287 0.0415569 0)
(0.584931 0.0530852 0)
(0.5981 0.0654504 0)
(0.609989 0.0768957 0)
(0.620311 0.0872546 0)
(0.627676 0.0964411 0)
(0.632746 0.103963 0)
(0.638331 0.110572 0)
(0.645606 0.11681 0)
(0.655402 0.123238 0)
(0.670225 0.130737 0)
(0.691125 0.140527 0)
(0.715976 0.151034 0)
(0.742215 0.161599 0)
(0.76836 0.170993 0)
(0.792148 0.180815 0)
(0.815175 0.189995 0)
(-2.71622 0.0089595 0)
(-0.457021 0.00920829 0)
(0.571759 0.0127308 0)
(0.568777 0.0155298 0)
(0.565472 0.0196415 0)
(0.565669 0.0242371 0)
(0.571084 0.0308232 0)
(0.579951 0.0416692 0)
(0.592337 0.0533125 0)
(0.60431 0.0638515 0)
(0.614503 0.0722379 0)
(0.623701 0.0787341 0)
(0.629583 0.0837634 0)
(0.633864 0.0883905 0)
(0.638961 0.0939356 0)
(0.646399 0.100485 0)
(0.658267 0.109612 0)
(0.67609 0.121249 0)
(0.697769 0.13388 0)
(0.721235 0.144318 0)
(0.745919 0.152703 0)
(0.770347 0.158166 0)
(0.79375 0.163076 0)
(0.817455 0.166788 0)
(-2.7179 0.00761874 0)
(-0.456166 0.013343 0)
(0.570773 0.00540443 0)
(0.566165 0.00811167 0)
(0.565051 0.0136409 0)
(0.568464 0.020969 0)
(0.576317 0.0313877 0)
(0.587067 0.0433219 0)
(0.597971 0.0538846 0)
(0.607298 0.0615854 0)
(0.615915 0.0667411 0)
(0.622688 0.0696767 0)
(0.62808 0.0708086 0)
(0.63386 0.0725588 0)
(0.6416 0.0769118 0)
(0.652626 0.0855682 0)
(0.66757 0.0982158 0)
(0.685723 0.112703 0)
(0.705658 0.126036 0)
(0.726611 0.136785 0)
(0.747921 0.144214 0)
(0.769454 0.147329 0)
(0.791471 0.148461 0)
(0.815222 0.147741 0)
(-2.71923 0.00621793 0)
(-0.456748 0.0174465 0)
(0.568295 -0.0028883 0)
(0.563888 0.00274756 0)
(0.568057 0.00990872 0)
(0.574613 0.0200989 0)
(0.584547 0.0324694 0)
(0.594036 0.0441001 0)
(0.601692 0.0525043 0)
(0.60892 0.0579538 0)
(0.614691 0.0605035 0)
(0.619019 0.0604157 0)
(0.624052 0.0597085 0)
(0.63163 0.0600196 0)
(0.643435 0.0634354 0)
(0.659526 0.0715855 0)
(0.677962 0.0845168 0)
(0.696789 0.09957 0)
(0.71449 0.114046 0)
(0.731958 0.125042 0)
(0.749236 0.132368 0)
(0.766907 0.135009 0)
(0.786276 0.134947 0)
(0.809154 0.132224 0)
(-2.72003 0.00513692 0)
(-0.458828 0.0198962 0)
(0.566479 -0.0109448 0)
(0.563969 0.00150846 0)
(0.573682 0.0088691 0)
(0.583786 0.0201704 0)
(0.592652 0.0316072 0)
(0.599383 0.0407042 0)
(0.605008 0.0474459 0)
(0.608728 0.0509257 0)
(0.611769 0.0513339 0)
(0.615146 0.0506164 0)
(0.62014 0.0501193 0)
(0.630247 0.0513362 0)
(0.646331 0.0559898 0)
(0.66696 0.064632 0)
(0.687308 0.0748454 0)
(0.706805 0.0858073 0)
(0.723236 0.0976034 0)
(0.737221 0.107635 0)
(0.750569 0.114578 0)
(0.764704 0.117845 0)
(0.781407 0.119084 0)
(0.803174 0.117493 0)
(-2.72045 0.00434149 0)
(-0.462033 0.0167817 0)
(0.567227 -0.0168079 0)
(0.567938 0.00631852 0)
(0.581321 0.0118949 0)
(0.590591 0.0203848 0)
(0.597394 0.0274047 0)
(0.603047 0.0333265 0)
(0.605884 0.0374166 0)
(0.606882 0.0395994 0)
(0.608187 0.040052 0)
(0.611485 0.0403239 0)
(0.61821 0.0419981 0)
(0.631609 0.0469846 0)
(0.650784 0.0539868 0)
(0.672597 0.0607528 0)
(0.693421 0.0671909 0)
(0.713039 0.0732031 0)
(0.729723 0.0793025 0)
(0.741732 0.0852688 0)
(0.752407 0.0905856 0)
(0.764289 0.0943818 0)
(0.778708 0.096998 0)
(0.799382 0.0992516 0)
(-2.72094 0.00395264 0)
(-0.464184 0.00651228 0)
(0.570887 -0.0106469 0)
(0.575909 0.00859338 0)
(0.585939 0.012724 0)
(0.592771 0.0178213 0)
(0.598483 0.0211685 0)
(0.603014 0.0227472 0)
(0.604742 0.023219 0)
(0.604139 0.0241843 0)
(0.604846 0.0273104 0)
(0.609564 0.0315275 0)
(0.620056 0.0381609 0)
(0.635003 0.0457625 0)
(0.653772 0.0523076 0)
(0.673758 0.0568548 0)
(0.693197 0.0593878 0)
(0.7121 0.0601122 0)
(0.728787 0.0598688 0)
(0.741928 0.0604925 0)
(0.753054 0.0630437 0)
(0.765103 0.0682214 0)
(0.780646 0.0750688 0)
(0.802565 0.0826385 0)
(-2.72223 0.00371167 0)
(-0.464151 -0.00304684 0)
(0.576427 -0.00143874 0)
(0.581444 0.0107724 0)
(0.587273 0.0136747 0)
(0.591566 0.0153278 0)
(0.595741 0.0149716 0)
(0.598446 0.0129314 0)
(0.600217 0.0106587 0)
(0.602696 0.0106656 0)
(0.606865 0.0152113 0)
(0.614244 0.0234702 0)
(0.625685 0.0333955 0)
(0.63983 0.0427197 0)
(0.655637 0.0500015 0)
(0.672079 0.054289 0)
(0.689021 0.0544246 0)
(0.705462 0.050753 0)
(0.721169 0.0443601 0)
(0.736722 0.0382927 0)
(0.752155 0.0363289 0)
(0.768142 0.0400741 0)
(0.787205 0.0499688 0)
(0.810412 0.0626927 0)
(-2.72448 0.00310079 0)
(-0.462125 -0.0126188 0)
(0.580471 0.00494755 0)
(0.583847 0.0120199 0)
(0.585539 0.014109 0)
(0.587568 0.0138323 0)
(0.589547 0.0105743 0)
(0.591842 0.0055192 0)
(0.595825 0.00181595 0)
(0.602195 0.00134651 0)
(0.610977 0.00568463 0)
(0.62136 0.0144837 0)
(0.633199 0.025331 0)
(0.645847 0.0357208 0)
(0.659054 0.0434754 0)
(0.671975 0.0463921 0)
(0.684086 0.044591 0)
(0.696605 0.0384484 0)
(0.711295 0.0301174 0)
(0.729457 0.0224469 0)
(0.751323 0.0187009 0)
(0.774896 0.0219758 0)
(0.797985 0.0312129 0)
(0.82147 0.0435228 0)
(-2.72686 0.00201313 0)
(-0.458276 -0.0131485 0)
(0.583141 0.00739007 0)
(0.582892 0.0102448 0)
(0.582023 0.0116255 0)
(0.58198 0.0092793 0)
(0.582748 0.00459864 0)
(0.585579 0.000317026 0)
(0.591996 -0.00212366 0)
(0.60192 -0.00238726 0)
(0.615133 -1.12398e-05 0)
(0.628506 0.00695918 0)
(0.641735 0.0165915 0)
(0.653844 0.0257618 0)
(0.663134 0.0311838 0)
(0.670533 0.0322455 0)
(0.678181 0.0282904 0)
(0.688544 0.0209713 0)
(0.703109 0.0138258 0)
(0.722492 0.00920054 0)
(0.746669 0.00739941 0)
(0.773948 0.0077078 0)
(0.802392 0.0129339 0)
(0.830815 0.0233423 0)
(-2.72761 0.000676642 0)
(-0.45586 -0.00332279 0)
(0.584875 0.00266095 0)
(0.582924 0.00281413 0)
(0.580431 0.00229873 0)
(0.578038 0.000663021 0)
(0.578184 -0.000875952 0)
(0.581565 -0.00129367 0)
(0.589133 -0.000848904 0)
(0.601694 0.00102785 0)
(0.618403 0.00413726 0)
(0.635263 0.00642272 0)
(0.648212 0.00829583 0)
(0.657584 0.0100793 0)
(0.662776 0.0106046 0)
(0.665942 0.0095312 0)
(0.670468 0.00744955 0)
(0.678884 0.00592136 0)
(0.695215 0.00471217 0)
(0.719095 0.0048073 0)
(0.747329 0.00611889 0)
(0.778852 0.00810964 0)
(0.811191 0.0102148 0)
(0.840441 0.0125086 0)
(0.389534 0.347785 0)
(0.112421 0.177879 0)
(0.0649627 0.0487067 0)
(0.0226002 0.0186467 0)
(0.00877364 0.00674079 0)
(-1.32026e-05 0.00131818 0)
(-0.00348355 -0.00139442 0)
(-0.00045383 -0.00250065 0)
(0.413807 0.299541 0)
(0.254605 0.175441 0)
(0.179616 0.0716112 0)
(0.0907116 0.0422099 0)
(0.039162 0.0217447 0)
(0.0135979 0.00557679 0)
(0.00116884 0.00182836 0)
(0.00162551 -0.00149126 0)
(0.457846 0.389157 0)
(0.351613 0.318384 0)
(0.262137 0.209119 0)
(0.151758 0.14397 0)
(0.0840483 0.0828725 0)
(0.0448847 0.0367371 0)
(0.0126341 0.02067 0)
(0.00518362 0.0069116 0)
(0.51567 0.42795 0)
(0.465968 0.379315 0)
(0.395382 0.289989 0)
(0.286164 0.212083 0)
(0.194583 0.137405 0)
(0.117797 0.0811101 0)
(0.0519222 0.050153 0)
(0.014901 0.0245997 0)
(0.557481 0.441594 0)
(0.535961 0.429327 0)
(0.493888 0.379846 0)
(0.402778 0.324823 0)
(0.302405 0.2522 0)
(0.201333 0.17693 0)
(0.102871 0.118793 0)
(0.035732 0.0664669 0)
(0.584147 0.444843 0)
(0.580874 0.448789 0)
(0.559611 0.435507 0)
(0.502087 0.410104 0)
(0.422918 0.353016 0)
(0.311879 0.290611 0)
(0.183922 0.231354 0)
(0.0697817 0.158731 0)
(0.604463 0.439676 0)
(0.609901 0.45583 0)
(0.604548 0.460372 0)
(0.574831 0.462443 0)
(0.520203 0.443913 0)
(0.426104 0.414287 0)
(0.315028 0.343745 0)
(0.149432 0.317787 0)
(0.61832 0.428901 0)
(0.63268 0.451973 0)
(0.636299 0.474627 0)
(0.626532 0.497943 0)
(0.59717 0.510947 0)
(0.536446 0.511828 0)
(0.394983 0.518321 0)
(0.201315 0.636064 0)
(0.63579 0.419617 0)
(0.652483 0.446118 0)
(0.663962 0.476288 0)
(0.671111 0.511686 0)
(0.664334 0.54973 0)
(0.640428 0.607123 0)
(0.599714 0.702417 0)
(0.678297 0.915853 0)
(0.656498 0.412421 0)
(0.674126 0.439258 0)
(0.691359 0.470899 0)
(0.710133 0.512109 0)
(0.730684 0.56807 0)
(0.750993 0.65142 0)
(0.809773 0.746782 0)
(1.0293 0.846632 0)
(0.679049 0.40561 0)
(0.698697 0.433437 0)
(0.720985 0.464886 0)
(0.747052 0.504404 0)
(0.786819 0.556885 0)
(0.83986 0.636055 0)
(0.958734 0.724637 0)
(1.19668 0.775683 0)
(0.702001 0.395764 0)
(0.724618 0.424918 0)
(0.751418 0.456568 0)
(0.783916 0.493644 0)
(0.832796 0.537333 0)
(0.903976 0.597835 0)
(1.03708 0.666601 0)
(1.25435 0.690725 0)
(0.724661 0.381922 0)
(0.750372 0.41098 0)
(0.780901 0.442404 0)
(0.818631 0.477783 0)
(0.872005 0.514786 0)
(0.948482 0.556805 0)
(1.07412 0.603935 0)
(1.25613 0.610054 0)
(0.746415 0.362925 0)
(0.774851 0.391502 0)
(0.80835 0.42177 0)
(0.849271 0.454173 0)
(0.90419 0.486786 0)
(0.979005 0.516105 0)
(1.08958 0.545893 0)
(1.23642 0.542101 0)
(0.766338 0.342014 0)
(0.797186 0.367448 0)
(0.83252 0.394682 0)
(0.875007 0.423467 0)
(0.929223 0.452562 0)
(0.999121 0.47413 0)
(1.09384 0.494152 0)
(1.21197 0.48731 0)
(0.783271 0.322703 0)
(0.816358 0.343177 0)
(0.853187 0.365729 0)
(0.896357 0.388671 0)
(0.948512 0.413415 0)
(1.01284 0.430575 0)
(1.09433 0.445288 0)
(1.19086 0.440291 0)
(0.796366 0.305758 0)
(0.830373 0.321711 0)
(0.86824 0.338599 0)
(0.91219 0.354089 0)
(0.963319 0.373329 0)
(1.0238 0.384944 0)
(1.09493 0.395642 0)
(1.17601 0.393453 0)
(0.806744 0.290307 0)
(0.840097 0.302776 0)
(0.877416 0.315509 0)
(0.92105 0.32456 0)
(0.971735 0.336901 0)
(1.0296 0.343235 0)
(1.09416 0.348023 0)
(1.16597 0.345754 0)
(0.815117 0.274798 0)
(0.846714 0.284938 0)
(0.882407 0.294946 0)
(0.924309 0.300155 0)
(0.973538 0.306719 0)
(1.03006 0.307929 0)
(1.09063 0.30846 0)
(1.15661 0.30335 0)
(0.822625 0.255747 0)
(0.851477 0.265949 0)
(0.884836 0.275235 0)
(0.924403 0.278751 0)
(0.971047 0.282322 0)
(1.02513 0.280039 0)
(1.08372 0.276869 0)
(1.14546 0.269722 0)
(0.830039 0.230408 0)
(0.856409 0.241282 0)
(0.886851 0.252019 0)
(0.923468 0.257122 0)
(0.967006 0.260724 0)
(1.01775 0.258171 0)
(1.07365 0.252901 0)
(1.13319 0.244379 0)
(0.837647 0.201482 0)
(0.862825 0.21192 0)
(0.89108 0.223492 0)
(0.924567 0.230853 0)
(0.964165 0.237302 0)
(1.01108 0.237936 0)
(1.06318 0.234385 0)
(1.1192 0.225281 0)
(0.841647 0.172701 0)
(0.868012 0.179864 0)
(0.895765 0.190553 0)
(0.927793 0.200948 0)
(0.964066 0.210947 0)
(1.00669 0.216143 0)
(1.05415 0.217004 0)
(1.10502 0.2116 0)
(0.841599 0.148913 0)
(0.871348 0.150605 0)
(0.902454 0.157543 0)
(0.936168 0.166126 0)
(0.97123 0.178654 0)
(1.00946 0.189313 0)
(1.0502 0.195741 0)
(1.0939 0.1948 0)
(0.836594 0.130424 0)
(0.868583 0.129259 0)
(0.903906 0.132069 0)
(0.941759 0.137837 0)
(0.979299 0.147853 0)
(1.0162 0.158462 0)
(1.05218 0.166909 0)
(1.08784 0.170273 0)
(0.831394 0.115747 0)
(0.865683 0.114461 0)
(0.904151 0.116269 0)
(0.945008 0.119434 0)
(0.984246 0.124161 0)
(1.02073 0.12907 0)
(1.05456 0.134278 0)
(1.08623 0.137819 0)
(0.828917 0.102445 0)
(0.865228 0.104339 0)
(0.9043 0.105991 0)
(0.945166 0.106129 0)
(0.984962 0.106054 0)
(1.02194 0.105611 0)
(1.05525 0.104649 0)
(1.08513 0.103174 0)
(0.831319 0.0904304 0)
(0.865086 0.0958441 0)
(0.901712 0.0980844 0)
(0.940116 0.0959862 0)
(0.978782 0.0914091 0)
(1.016 0.0848986 0)
(1.05085 0.0784451 0)
(1.08386 0.0736516 0)
(0.836738 0.0750438 0)
(0.865786 0.0839197 0)
(0.897673 0.0884698 0)
(0.932049 0.0874749 0)
(0.967228 0.0809167 0)
(1.0024 0.0706635 0)
(1.03777 0.0593135 0)
(1.07339 0.0492287 0)
(0.846064 0.0560637 0)
(0.872146 0.0658092 0)
(0.899075 0.0713755 0)
(0.926794 0.0711902 0)
(0.956263 0.065635 0)
(0.988368 0.0561539 0)
(1.02301 0.0446326 0)
(1.06038 0.0325329 0)
(0.856243 0.0351553 0)
(0.879552 0.0442149 0)
(0.901705 0.048556 0)
(0.923841 0.0480574 0)
(0.948877 0.0428282 0)
(0.978694 0.0333112 0)
(1.01263 0.022995 0)
(1.05004 0.0155437 0)
(0.86321 0.0150458 0)
(0.881301 0.0167241 0)
(0.898786 0.0169697 0)
(0.917375 0.0155984 0)
(0.938887 0.0131362 0)
(0.967114 0.00972785 0)
(1.00466 0.00702981 0)
(1.04859 0.00668747 0)
(1.57356 0.923342 0)
(2.11927 1.07522 0)
(2.29136 0.714485 0)
(2.32488 0.37694 0)
(2.32299 0.034964 0)
(2.26392 -0.188874 0)
(2.08717 -0.228654 0)
(1.95284 -0.226358 0)
(1.86028 -0.192721 0)
(1.77572 -0.127771 0)
(1.68102 -0.0667502 0)
(1.62997 -0.0715675 0)
(1.53041 -0.0636492 0)
(1.34589 -0.0197236 0)
(1.29827 -0.000870016 0)
(1.29012 0.00139027 0)
(1.28304 -0.000187386 0)
(1.27408 0.00260876 0)
(1.26936 0.00937203 0)
(1.27282 0.0120872 0)
(1.28899 0.0112104 0)
(1.31889 0.00828094 0)
(1.34853 0.0053752 0)
(1.37004 0.00221758 0)
(1.38958 0.000820241 0)
(1.4119 0.00032098 0)
(1.44007 -0.00424588 0)
(1.47311 -0.0137821 0)
(1.50326 -0.0223787 0)
(1.52888 -0.0255499 0)
(1.54882 -0.0252706 0)
(1.5588 -0.0215041 0)
(1.5709 -0.0151788 0)
(1.58583 -0.00739172 0)
(1.59896 0.00181438 0)
(1.61017 0.0110338 0)
(1.62399 0.0166181 0)
(1.64148 0.017915 0)
(1.66195 0.0177354 0)
(1.6909 0.0165518 0)
(1.72879 0.0147851 0)
(1.76245 0.0127003 0)
(1.78792 0.00996554 0)
(1.81028 0.0057299 0)
(1.83095 -0.00094294 0)
(1.85105 -0.00741724 0)
(1.86739 -0.0115326 0)
(1.87217 -0.00979117 0)
(1.86588 -0.00165792 0)
(1.86107 0.0105763 0)
(1.87634 0.0164393 0)
(1.88249 0.0166765 0)
(1.87295 0.0145758 0)
(1.81507 0.00162434 0)
(1.70221 -0.0171631 0)
(1.58016 -0.02968 0)
(1.50392 -0.00161299 0)
(1.54531 0.00257808 0)
(1.58068 -0.00587057 0)
(1.60723 -0.0165579 0)
(1.62591 -0.0204307 0)
(1.63091 -0.0203655 0)
(1.60974 -0.015046 0)
(1.58808 -0.00548085 0)
(1.58615 0.0051255 0)
(1.59247 0.0111964 0)
(1.60148 0.0135343 0)
(1.6189 0.0141138 0)
(1.64775 0.0128595 0)
(1.68195 0.0112041 0)
(1.70836 0.00889724 0)
(1.72303 0.00492343 0)
(1.73292 -0.0016548 0)
(1.74267 -0.00868599 0)
(1.74869 -0.0130678 0)
(1.74172 -0.0126679 0)
(1.72315 -0.00640225 0)
(1.7167 0.00285812 0)
(1.72355 0.00841519 0)
(1.7335 0.00995761 0)
(1.74761 0.0105568 0)
(1.7733 0.00955099 0)
(1.80205 0.00823398 0)
(1.82277 0.00668577 0)
(1.83616 0.00483399 0)
(1.84685 0.00226687 0)
(1.85522 -0.00295566 0)
(1.8701 -0.0037574 0)
(1.67233 0.726658 0)