/*--------------------------------*- C++ -*----------------------------------*\
  =========                 |
  \\      /  F ield         | OpenFOAM: The Open Source CFD Toolbox
   \\    /   O peration     | Website:  https://openfoam.org
    \\  /    A nd           | Version:  7
     \\/     M anipulation  |
\*---------------------------------------------------------------------------*/
FoamFile
{
    version     2.0;
    format      ascii;
    class       volScalarField;
    location    "0.9";
    object      p;
}
// * * * * * * * * * * * * * * * * * * * * * * * * * * * * * * * * * * * * * //

dimensions      [1 -1 -2 0 0 0 0];

internalField   nonuniform List<scalar> 
4128
(
3.21168
3.2479
3.30185
3.29928
3.26099
3.18992
3.11812
3.08663
3.07855
3.06759
3.0384
2.99657
2.98406
2.98934
3.00908
3.04888
3.07676
3.07094
3.03873
2.9795
2.91981
2.86348
2.79148
2.7101
2.65486
2.62728
2.61312
2.60449
2.58969
2.57167
2.55384
2.52913
2.49456
2.4447
2.4148
2.41158
2.41964
2.43243
2.42826
2.4074
2.36493
2.29571
2.22728
2.17433
2.14051
2.11803
2.1091
2.10921
2.12203
2.15317
2.16652
2.15743
2.13632
2.10269
2.0524
2.00771
1.98729
1.97179
1.95311
1.9374
1.93114
1.92891
1.92408
1.91527
1.89781
1.86167
1.81756
1.78945
1.77976
1.77481
1.77127
1.77893
1.81898
1.83857
1.83028
1.81606
1.80345
1.78456
1.74713
1.6725
1.59598
1.57258
1.56768
1.56522
1.56313
1.56561
1.58469
1.61343
1.61835
1.60908
1.60168
1.58972
1.56184
1.52154
1.50037
1.49609
1.49402
1.49612
1.49908
1.49383
1.48312
1.46725
1.44251
1.42269
1.41558
1.4118
1.41063
1.41333
1.41207
1.40727
1.40221
1.39874
1.39704
1.39514
1.39188
1.38468
1.3677
1.33304
1.29119
1.26359
1.24986
1.24588
1.24546
1.2498
1.25477
1.25948
1.26563
1.27407
1.2707
3.33525
3.35699
3.33786
3.28853
3.21934
3.17377
3.15061
3.12784
3.09279
3.04809
3.02
3.01731
3.02543
3.05364
3.09364
3.098
3.07933
3.04428
3.0069
2.96588
2.90882
2.85231
2.79936
2.7536
2.72033
2.69291
2.6668
2.63982
2.60994
2.58017
2.54594
2.4953
2.4417
2.41683
2.4113
2.41953
2.44916
2.47119
2.46839
2.45484
2.4294
2.36605
2.2477
2.14596
2.11091
2.0989
2.09097
2.09266
2.13918
2.1855
2.19227
2.18326
2.16694
2.13853
2.07844
2.01111
1.98076
1.96588
1.95009
1.94132
1.93646
1.9329
1.92906
1.92349
1.91479
1.88973
1.83402
1.79229
1.77852
1.77249
1.7695
1.76954
1.77678
1.79636
1.81148
1.80595
1.7957
1.78626
1.77616
1.75029
1.68239
1.59935
1.56783
1.56038
1.55817
1.55643
1.55816
1.57252
1.5968
1.60012
1.59484
1.59228
1.5876
1.57236
1.54234
1.51625
1.50217
1.49135
1.48513
1.47827
1.46515
1.44591
1.43398
1.42947
1.42506
1.42315
1.42456
1.42256
1.41752
1.41467
1.4114
1.40565
1.4002
1.39758
1.39492
1.39105
1.38182
1.35724
1.31771
1.2803
1.25993
1.24838
1.24578
1.25084
1.25531
1.25848
1.26182
1.2725
1.27984
3.37872
3.35858
3.3156
3.26438
3.2319
3.21013
3.17801
3.11539
3.05586
3.03949
3.04824
3.08364
3.124
3.13584
3.13397
3.12065
3.08727
3.03612
2.97654
2.92541
2.87372
2.83019
2.81233
2.80123
2.78988
2.77512
2.75058
2.70593
2.63982
2.56442
2.49864
2.45236
2.42167
2.41099
2.40489
2.41222
2.46056
2.50125
2.49759
2.48282
2.4617
2.40877
2.27425
2.1464
2.1077
2.09616
2.0876
2.08336
2.10633
2.1749
2.20132
2.1967
2.18235
2.16128
2.11382
2.03072
1.98295
1.96538
1.95359
1.94706
1.94728
1.94503
1.93843
1.93251
1.92582
1.91205
1.88082
1.83092
1.79838
1.78817
1.78382
1.77655
1.76866
1.76606
1.782
1.80773
1.80473
1.7983
1.79252
1.78234
1.75562
1.68724
1.59587
1.55913
1.55125
1.54683
1.54232
1.54168
1.55797
1.59089
1.59868
1.59663
1.59565
1.59359
1.58299
1.55086
1.51353
1.49522
1.48214
1.47123
1.45875
1.44192
1.4348
1.4326
1.43123
1.43464
1.4395
1.43599
1.43084
1.42451
1.41543
1.40365
1.3893
1.3778
1.37067
1.36678
1.36681
1.36458
1.34503
1.30556
1.26808
1.2512
1.25067
1.25539
1.25829
1.26001
1.26092
1.26152
1.26496
3.4104
3.36926
3.32316
3.29659
3.27576
3.23606
3.15878
3.08318
3.06246
3.06924
3.10778
3.17114
3.19667
3.19431
3.16949
3.11418
3.04693
2.98093
2.92077
2.87443
2.85325
2.8426
2.84133
2.8399
2.83209
2.82159
2.8042
2.76554
2.68629
2.57386
2.47737
2.4332
2.42051
2.4121
2.4086
2.42442
2.48188
2.52246
2.51493
2.49954
2.47942
2.44004
2.33459
2.18125
2.1188
2.10454
2.09652
2.09245
2.10153
2.14281
2.19946
2.21292
2.20095
2.17953
2.14417
2.07357
2.00114
1.97385
1.96075
1.95137
1.94447
1.93899
1.93381
1.93011
1.92789
1.92304
1.91286
1.88499
1.83081
1.78462
1.76334
1.75798
1.75229
1.74719
1.74576
1.762
1.79663
1.80289
1.79626
1.78976
1.78148
1.75592
1.68014
1.58189
1.54151
1.53131
1.5251
1.52132
1.52754
1.56597
1.60827
1.61817
1.61686
1.61378
1.60803
1.58979
1.54455
1.49218
1.46428
1.45411
1.44894
1.44606
1.44195
1.44029
1.44258
1.4542
1.46028
1.45798
1.45245
1.4426
1.42795
1.41023
1.39527
1.38261
1.37136
1.36459
1.36282
1.35898
1.34728
1.32056
1.28034
1.25891
1.25584
1.25817
1.25935
1.25975
1.25925
1.25876
1.2601
3.41692
3.39087
3.35846
3.32959
3.28003
3.19611
3.12065
3.10163
3.10797
3.14404
3.20555
3.23339
3.23477
3.22271
3.18307
3.11488
3.02982
2.94804
2.88588
2.8605
2.84706
2.84165
2.85446
2.86217
2.85529
2.84729
2.83419
2.80575
2.73452
2.60561
2.49087
2.44028
2.41829
2.40638
2.3988
2.39704
2.41824
2.46702
2.49556
2.49238
2.47958
2.45424
2.39385
2.28845
2.17544
2.13151
2.12034
2.11432
2.11365
2.12051
2.1359
2.16128
2.18336
2.18502
2.1618
2.11478
2.05092
1.99887
1.97654
1.96384
1.95386
1.94614
1.9397
1.93531
1.93257
1.92683
1.91961
1.90865
1.87537
1.81112
1.76602
1.74775
1.74082
1.73553
1.73211
1.73553
1.77222
1.81131
1.81209
1.8059
1.7976
1.78411
1.74452
1.64301
1.54884
1.52044
1.51379
1.50994
1.51114
1.54737
1.62011
1.64446
1.64242
1.63732
1.62943
1.61265
1.56826
1.4973
1.4592
1.45011
1.44485
1.44063
1.43779
1.43846
1.45171
1.45975
1.45961
1.45802
1.45392
1.44413
1.42796
1.41146
1.39837
1.38486
1.36961
1.35795
1.35383
1.35126
1.34353
1.3255
1.29537
1.26968
1.263
1.26231
1.2619
1.2611
1.25991
1.25836
1.25988
3.41644
3.39525
3.37489
3.32153
3.23657
3.16215
3.14006
3.1422
3.17024
3.22933
3.26549
3.2709
3.26926
3.2464
3.18718
3.10214
3.00755
2.93024
2.88818
2.8675
2.8557
2.85462
2.87025
2.87363
2.86899
2.86401
2.85186
2.82598
2.7696
2.67681
2.56315
2.47399
2.43203
2.41727
2.40947
2.40635
2.41247
2.42187
2.42849
2.42873
2.42271
2.41524
2.40384
2.36312
2.29071
2.20157
2.15291
2.13847
2.13004
2.12383
2.11977
2.1202
2.12537
2.1389
2.1481
2.1353
2.09779
2.04676
2.0064
1.98933
1.97823
1.96893
1.96125
1.95537
1.95129
1.94499
1.93695
1.92626
1.90576
1.86511
1.79711
1.74922
1.73341
1.72725
1.72174
1.71885
1.73387
1.7931
1.8218
1.81704
1.80842
1.79869
1.77723
1.70335
1.57631
1.52139
1.51324
1.50978
1.50815
1.52538
1.5871
1.62787
1.63156
1.62914
1.62583
1.61833
1.5859
1.51009
1.45932
1.44915
1.4458
1.44367
1.44434
1.45586
1.46883
1.46938
1.4683
1.46779
1.4648
1.45503
1.43727
1.41626
1.39735
1.38146
1.36734
1.35678
1.35206
1.34957
1.34645
1.33869
1.31685
1.28656
1.27199
1.26781
1.26563
1.26396
1.26168
1.25898
1.25938
3.45483
3.42898
3.36092
3.26719
3.19743
3.17497
3.17434
3.19447
3.2422
3.27538
3.28405
3.28645
3.27772
3.25355
3.1915
3.08512
3.00468
2.96852
2.93804
2.90563
2.88374
2.86506
2.84795
2.83341
2.82178
2.81387
2.80844
2.79437
2.76497
2.70948
2.64776
2.58663
2.51927
2.46515
2.43897
2.42438
2.41591
2.40916
2.40323
2.39336
2.38193
2.37593
2.3759
2.37146
2.35068
2.3062
2.23525
2.16915
2.1404
2.12846
2.12127
2.11294
2.10484
2.10318
2.11827
2.12922
2.11859
2.09086
2.0515
2.00818
1.97989
1.96053
1.94874
1.94109
1.93515
1.9308
1.92395
1.91752
1.91195
1.89404
1.83972
1.76523
1.7326
1.72254
1.71759
1.71428
1.71724
1.75388
1.82125
1.83603
1.82602
1.81325
1.79495
1.74734
1.63754
1.53871
1.51819
1.51407
1.51154
1.51677
1.55952
1.6198
1.63152
1.62871
1.6256
1.62045
1.60246
1.54493
1.47519
1.45464
1.45053
1.44854
1.44846
1.44972
1.44907
1.449
1.45109
1.45197
1.4505
1.44766
1.44044
1.42316
1.40131
1.38389
1.37306
1.36624
1.35912
1.35206
1.3454
1.33807
1.32652
1.30594
1.28438
1.27363
1.2691
1.26598
1.26268
1.2601
1.25629
3.47589
3.39661
3.3154
3.24727
3.21772
3.21162
3.22366
3.26394
3.28293
3.27999
3.27672
3.28461
3.28319
3.2424
3.1673
3.09067
3.05799
3.03401
2.99953
2.95515
2.90694
2.8654
2.84093
2.8284
2.81575
2.79485
2.76742
2.74171
2.7136
2.69926
2.68722
2.66648
2.63004
2.56511
2.48101
2.43109
2.41181
2.40174
2.38439
2.3641
2.3517
2.34735
2.35553
2.36673
2.36105
2.35181
2.3296
2.26625
2.1752
2.12871
2.11166
2.10161
2.09183
2.08486
2.08983
2.1129
2.11473
2.10165
2.0811
2.04773
2.00288
1.96994
1.95299
1.94332
1.93727
1.9337
1.9259
1.91747
1.90895
1.89798
1.87332
1.81275
1.74742
1.72455
1.71803
1.71421
1.71114
1.71535
1.75038
1.79738
1.80428
1.79501
1.78377
1.76473
1.71153
1.60793
1.53776
1.52531
1.52202
1.52321
1.54347
1.60478
1.64304
1.64002
1.63405
1.62811
1.6145
1.57706
1.51566
1.47296
1.46159
1.4577
1.45416
1.45185
1.45086
1.45164
1.45333
1.45266
1.44846
1.44137
1.4324
1.42042
1.4064
1.39258
1.3787
1.36659
1.35748
1.34983
1.34275
1.33692
1.33296
1.32437
1.30567
1.28445
1.27349
1.26843
1.26432
1.26047
1.25503
3.43912
3.34608
3.28386
3.26389
3.25664
3.26028
3.28661
3.30694
3.30826
3.30669
3.30167
3.27809
3.23786
3.1839
3.13489
3.12685
3.1239
3.10417
3.06402
3.01072
2.94835
2.88764
2.8399
2.80715
2.7844
2.76126
2.73333
2.70806
2.6977
2.69648
2.70444
2.69952
2.68513
2.65902
2.59707
2.49107
2.41002
2.37109
2.35222
2.33668
2.32986
2.32869
2.34127
2.37148
2.37746
2.37194
2.36309
2.33758
2.2606
2.15365
2.10753
2.09361
2.08545
2.07891
2.07677
2.09
2.10814
2.09865
2.08391
2.06889
2.04437
2.01112
1.9803
1.9636
1.95549
1.94812
1.93819
1.92781
1.91809
1.90777
1.89108
1.85887
1.8026
1.74311
1.71959
1.71213
1.70811
1.70557
1.71379
1.75105
1.7863
1.78671
1.77462
1.76178
1.74012
1.6865
1.59932
1.55087
1.54259
1.54033
1.54356
1.5622
1.5979
1.60909
1.60397
1.59705
1.5896
1.5784
1.55341
1.51958
1.4923
1.47797
1.46774
1.4624
1.46279
1.46339
1.46189
1.45838
1.44956
1.43615
1.42585
1.41865
1.40954
1.39875
1.38433
1.36785
1.35669
1.35015
1.34439
1.3387
1.3341
1.32983
1.32248
1.30663
1.28391
1.27126
1.26458
1.25996
1.25533
3.40965
3.33307
3.30231
3.29301
3.2906
3.3143
3.33984
3.33292
3.31744
3.30394
3.2795
3.23059
3.18233
3.15812
3.15543
3.1652
3.1764
3.15907
3.12517
3.07271
2.99518
2.90746
2.83616
2.79052
2.75907
2.72856
2.70485
2.69673
2.69312
2.69582
2.7131
2.71598
2.70447
2.69064
2.66312
2.58097
2.43962
2.3546
2.32835
2.31982
2.31583
2.31957
2.35249
2.38129
2.38102
2.37801
2.37322
2.36278
2.3314
2.24165
2.13262
2.09645
2.08591
2.07525
2.06588
2.06194
2.07574
2.09007
2.0808
2.07161
2.06527
2.0502
2.01764
1.97479
1.94506
1.93035
1.91979
1.90706
1.895
1.88651
1.88128
1.87546
1.85449
1.80412
1.74058
1.71194
1.70464
1.70262
1.70323
1.71331
1.74149
1.76652
1.76426
1.75339
1.74208
1.72274
1.6719
1.59374
1.56077
1.55635
1.55398
1.5541
1.56832
1.59246
1.59644
1.59042
1.58048
1.57575
1.57242
1.56097
1.53982
1.50626
1.47312
1.4499
1.44532
1.45117
1.45436
1.45153
1.44252
1.43027
1.42238
1.4212
1.41969
1.41158
1.3953
1.371
1.35662
1.35114
1.34691
1.34383
1.3407
1.33709
1.33144
1.32155
1.304
1.28197
1.2665
1.26022
1.25523
3.36746
3.34588
3.33646
3.33016
3.33796
3.36389
3.36747
3.35614
3.34348
3.31339
3.25614
3.20235
3.17355
3.17109
3.1832
3.21883
3.22546
3.20313
3.16542
3.10751
3.02825
2.94274
2.86594
2.79255
2.73175
2.70671
2.69844
2.69318
2.69021
2.69651
2.72046
2.72629
2.71386
2.70071
2.68444
2.64123
2.51525
2.36982
2.32512
2.3142
2.30603
2.30085
2.30155
2.33661
2.37882
2.38238
2.3772
2.37036
2.35927
2.32194
2.21672
2.11234
2.07452
2.05999
2.04944
2.04204
2.04407
2.07375
2.09606
2.09254
2.0824
2.06836
2.04263
1.99721
1.95565
1.93222
1.91781
1.9028
1.88955
1.88325
1.87785
1.87244
1.8657
1.8481
1.80118
1.73375
1.70145
1.69581
1.69107
1.68687
1.69011
1.71857
1.75244
1.75581
1.74975
1.74064
1.7212
1.6643
1.5857
1.55974
1.55755
1.55635
1.5572
1.56417
1.57191
1.57705
1.57666
1.5736
1.57365
1.57324
1.56379
1.54009
1.50147
1.46811
1.45268
1.45167
1.45032
1.44428
1.4352
1.42659
1.42003
1.41469
1.40972
1.40377
1.39286
1.37344
1.35799
1.35247
1.34894
1.34584
1.3422
1.33738
1.33264
1.32512
1.31428
1.29781
1.28068
1.26932
1.26231
3.37375
3.36125
3.35032
3.35001
3.3772
3.38643
3.37182
3.35506
3.3323
3.28583
3.22827
3.19392
3.19254
3.20063
3.22616
3.25466
3.24279
3.21274
3.17366
3.12343
3.06518
2.99871
2.90892
2.79644
2.72441
2.708
2.7011
2.69453
2.68998
2.69046
2.71146
2.73002
2.7207
2.7078
2.69533
2.67362
2.60443
2.44771
2.33289
2.30691
2.29855
2.29289
2.29074
2.30513
2.36384
2.39091
2.38588
2.38103
2.37424
2.35771
2.29194
2.15555
2.07319
2.05234
2.04271
2.03478
2.03213
2.05607
2.09085
2.09087
2.08139
2.06988
2.05451
2.0226
1.96359
1.91847
1.90165
1.89221
1.88531
1.88241
1.88331
1.88085
1.87436
1.86628
1.84873
1.79756
1.7209
1.68057
1.67068
1.66409
1.66064
1.67006
1.71767
1.76189
1.76881
1.76507
1.75498
1.72789
1.65555
1.57883
1.55624
1.55129
1.54568
1.54136
1.54125
1.55616
1.57764
1.58066
1.57687
1.57117
1.56528
1.55926
1.54199
1.50723
1.47324
1.45272
1.44074
1.43099
1.42403
1.42059
1.41899
1.41626
1.41182
1.40504
1.39511
1.37777
1.3579
1.35218
1.3501
1.34829
1.34719
1.34715
1.34447
1.33727
1.32778
1.31239
1.28645
1.26332
1.25395
3.39895
3.38747
3.38056
3.39246
3.41891
3.41555
3.40015
3.37597
3.33064
3.2708
3.22591
3.22357
3.23
3.25053
3.28547
3.29681
3.27844
3.23684
3.18308
3.13264
3.0863
3.03568
2.95934
2.83967
2.75928
2.74145
2.73322
2.72409
2.71419
2.7091
2.71312
2.71917
2.71517
2.70796
2.69882
2.68737
2.65832
2.55548
2.38512
2.31103
2.29846
2.29242
2.28674
2.28279
2.29116
2.35034
2.39507
2.38835
2.37816
2.36626
2.33168
2.22351
2.09344
2.05516
2.04559
2.03819
2.03264
2.03653
2.07361
2.10353
2.10131
2.0914
2.07563
2.04021
1.97066
1.91575
1.89842
1.88952
1.88277
1.87992
1.88847
1.89912
1.89514
1.88847
1.87831
1.8469
1.7639
1.67944
1.65133
1.64386
1.63921
1.6398
1.66828
1.74465
1.79133
1.79457
1.78883
1.77269
1.72646
1.62769
1.55075
1.53406
1.52951
1.52701
1.52691
1.5412
1.58348
1.59623
1.59207
1.58807
1.58833
1.58818
1.57325
1.53739
1.48303
1.44165
1.42882
1.42424
1.42147
1.41988
1.41944
1.41864
1.41648
1.41354
1.4054
1.38935
1.36858
1.35715
1.35361
1.35044
1.34646
1.34137
1.33741
1.3337
1.32647
1.31567
1.29389
1.2657
1.25274
3.42232
3.41832
3.43011
3.44409
3.43322
3.40695
3.37213
3.33811
3.30239
3.26866
3.26848
3.27899
3.29422
3.29543
3.27631
3.24231
3.21912
3.1863
3.14444
3.1121
3.08423
3.05223
3.00816
2.92667
2.80356
2.72452
2.69849
2.68623
2.67437
2.66744
2.68598
2.72641
2.73467
2.73134
2.72323
2.71086
2.68592
2.62021
2.48805
2.34806
2.30192
2.29112
2.28362
2.27699
2.27376
2.28313
2.33459
2.38013
2.38122
2.37278
2.34945
2.28696
2.17279
2.07764
2.05336
2.04554
2.03971
2.03815
2.05244
2.08188
2.08886
2.08172
2.06766
2.04085
1.98352
1.9243
1.90283
1.89329
1.88643
1.88471
1.90469
1.92889
1.92477
1.91508
1.9026
1.87414
1.79844
1.69138
1.64006
1.62931
1.62436
1.62203
1.63818
1.70988
1.78807
1.80332
1.79795
1.78892
1.76604
1.68803
1.57052
1.52427
1.52059
1.52058
1.52133
1.52653
1.55077
1.57012
1.56995
1.56886
1.57254
1.57804
1.57785
1.55135
1.48703
1.43959
1.42964
1.42714
1.42565
1.42508
1.42498
1.42096
1.41603
1.40935
1.39713
1.37864
1.36514
1.35958
1.35644
1.35338
1.34882
1.34276
1.33905
1.33645
1.3278
1.31629
1.29995
1.2766
1.26274
3.46214
3.4824
3.49196
3.47746
3.45306
3.42098
3.36582
3.30598
3.28325
3.28584
3.3069
3.33457
3.34531
3.33773
3.30012
3.22677
3.17274
3.14256
3.12175
3.10696
3.08921
3.06432
3.03338
2.98337
2.87307
2.74563
2.69655
2.67816
2.66642
2.65948
2.67059
2.70716
2.70537
2.69437
2.68525
2.67297
2.65852
2.63409
2.56602
2.45313
2.34363
2.3001
2.28707
2.28005
2.27501
2.27669
2.30116
2.32829
2.32449
2.31559
2.31017
2.29776
2.24665
2.15678
2.08167
2.06221
2.056
2.05197
2.05673
2.0779
2.08568
2.07972
2.06896
2.04987
2.00422
1.94359
1.91392
1.90496
1.8993
1.89763
1.91089
1.9232
1.91876
1.91054
1.90094
1.88227
1.82515
1.7118
1.64197
1.62682
1.62194
1.61929
1.62818
1.6882
1.79421
1.82635
1.82025
1.80948
1.79007
1.73778
1.62693
1.53425
1.51443
1.5132
1.51383
1.51683
1.537
1.56127
1.56513
1.56594
1.56927
1.57286
1.57027
1.5482
1.49016
1.44747
1.44284
1.44126
1.44019
1.43784
1.43146
1.4234
1.41698
1.40992
1.39626
1.37745
1.36496
1.3591
1.35564
1.353
1.35023
1.35032
1.35423
1.34995
1.33964
1.32817
1.3141
1.29205
1.26373
3.50199
3.53467
3.52823
3.50826
3.48209
3.43406
3.36122
3.30907
3.29909
3.30053
3.32247
3.3623
3.37011
3.3589
3.30614
3.21801
3.15329
3.11766
3.09476
3.0776
3.07049
3.06508
3.0461
3.01037
2.94129
2.83426
2.7333
2.68976
2.67416
2.66462
2.66342
2.68818
2.70812
2.69547
2.68032
2.66231
2.63221
2.59814
2.56871
2.52457
2.44913
2.35372
2.30582
2.29055
2.28438
2.28157
2.28313
2.29637
2.29911
2.28591
2.27128
2.26317
2.25581
2.22423
2.16018
2.09985
2.0837
2.0781
2.07218
2.06599
2.05764
2.04727
2.03357
2.01811
2.00116
1.97064
1.93543
1.91992
1.91621
1.92009
1.93124
1.93184
1.92503
1.91775
1.90876
1.89162
1.84747
1.75909
1.66669
1.63736
1.63178
1.62938
1.63247
1.65623
1.72589
1.79203
1.79806
1.79149
1.78248
1.75842
1.68387
1.56558
1.51646
1.51016
1.51043
1.51334
1.53113
1.55655
1.56045
1.56185
1.56565
1.56833
1.56623
1.55115
1.50631
1.45153
1.43567
1.43315
1.43065
1.42809
1.42794
1.42415
1.41497
1.40519
1.39279
1.37997
1.37282
1.36769
1.36272
1.35984
1.35757
1.35552
1.35094
1.34198
1.332
1.32254
1.31381
1.30036
1.27119
3.55364
3.56663
3.55409
3.53367
3.50086
3.42983
3.34921
3.32794
3.32456
3.32969
3.35639
3.37636
3.37737
3.36409
3.3084
3.2242
3.16403
3.12325
3.0872
3.0593
3.04115
3.02517
3.00526
2.98563
2.95964
2.90507
2.8332
2.75515
2.70106
2.67764
2.6651
2.65533
2.65297
2.64873
2.63588
2.62105
2.59849
2.57437
2.55925
2.5459
2.51952
2.45688
2.36206
2.30938
2.28728
2.27161
2.26534
2.26587
2.26924
2.26356
2.25183
2.24318
2.238
2.23418
2.22133
2.1799
2.11418
2.07918
2.06984
2.0644
2.05445
2.03695
2.0145
1.99642
1.98532
1.97748
1.96351
1.94326
1.92934
1.92011
1.91405
1.90923
1.90262
1.89436
1.88382
1.86796
1.84517
1.80154
1.73353
1.66989
1.64814
1.64358
1.64244
1.64995
1.6836
1.74978
1.78329
1.78161
1.77616
1.7643
1.72013
1.62175
1.53476
1.51698
1.51695
1.52122
1.5363
1.55911
1.56183
1.56088
1.56332
1.56409
1.55928
1.54656
1.51565
1.46399
1.44004
1.43561
1.43236
1.4286
1.42556
1.42706
1.42088
1.40703
1.39245
1.38311
1.37821
1.37487
1.37249
1.37022
1.36665
1.3605
1.3513
1.34106
1.33086
1.32155
1.31276
1.30275
1.28152
3.59781
3.59225
3.5768
3.56864
3.52837
3.44001
3.37388
3.35831
3.35489
3.36689
3.39116
3.39479
3.38629
3.36447
3.32114
3.26699
3.21421
3.16087
3.11079
3.06138
3.02148
2.9934
2.96569
2.9406
2.92631
2.91661
2.89581
2.85321
2.78067
2.70274
2.6664
2.6576
2.64482
2.6251
2.59591
2.57495
2.56718
2.56399
2.56304
2.55717
2.54513
2.51981
2.45591
2.35956
2.2979
2.26882
2.25489
2.2433
2.23479
2.23216
2.23735
2.24021
2.23712
2.23739
2.23558
2.22498
2.18965
2.12449
2.07398
2.04961
2.03227
2.01239
1.9961
1.9878
1.98219
1.97712
1.97411
1.96576
1.9495
1.9246
1.90722
1.90167
1.89739
1.88936
1.87484
1.85092
1.8245
1.80445
1.77781
1.73246
1.68127
1.66008
1.656
1.6573
1.67006
1.70632
1.7527
1.76095
1.7542
1.74473
1.7282
1.68007
1.59259
1.53487
1.5249
1.52622
1.53085
1.54461
1.5551
1.55346
1.55259
1.55291
1.54926
1.5399
1.52244
1.49103
1.45615
1.44207
1.43712
1.43284
1.42603
1.41711
1.40899
1.40128
1.39188
1.3828
1.37683
1.37226
1.36844
1.36539
1.3629
1.36053
1.35546
1.34737
1.33592
1.32438
1.31437
1.30549
1.28899
3.63191
3.6181
3.60377
3.55681
3.49345
3.44204
3.4285
3.42078
3.40976
3.39078
3.36336
3.34431
3.32678
3.31282
3.30642
3.29445
3.26934
3.22389
3.15651
3.0833
3.01524
2.95378
2.92271
2.91001
2.90501
2.91515
2.91955
2.90245
2.86865
2.80325
2.70797
2.63145
2.59703
2.57149
2.55614
2.55185
2.55328
2.56415
2.57236
2.56332
2.55099
2.53645
2.50563
2.42983
2.33513
2.28641
2.25661
2.23226
2.22005
2.21546
2.21593
2.23217
2.24901
2.24934
2.24395
2.23762
2.22427
2.17869
2.09213
2.02886
2.00568
1.99487
1.98844
1.9825
1.98257
1.99059
1.98636
1.97597
1.96483
1.94798
1.92241
1.89514
1.87773
1.86494
1.85075
1.83557
1.82053
1.80698
1.79668
1.78081
1.74497
1.6969
1.67802
1.67528
1.67293
1.67645
1.70346
1.73734
1.73952
1.73138
1.72173
1.70355
1.65364
1.57425
1.53536
1.53026
1.53095
1.53311
1.54145
1.54747
1.54523
1.5448
1.54342
1.53778
1.52697
1.50778
1.48652
1.46474
1.44525
1.43389
1.42453
1.41431
1.40279
1.39577
1.38991
1.38208
1.37716
1.37485
1.37338
1.37141
1.36768
1.35966
1.35231
1.34724
1.34333
1.33687
1.32797
1.31944
1.30149
3.67427
3.64476
3.58354
3.50408
3.4631
3.45567
3.45538
3.45151
3.44227
3.41722
3.36474
3.32082
3.30956
3.30563
3.30452
3.31262
3.30438
3.27642
3.22355
3.12154
2.98289
2.91476
2.89693
2.88768
2.88938
2.92321
2.95707
2.94803
2.92352
2.87512
2.76188
2.61999
2.559
2.54527
2.53855
2.53982
2.56072
2.58634
2.58351
2.57298
2.56067
2.54757
2.53073
2.4922
2.40107
2.2944
2.24357
2.22413
2.21457
2.20909
2.20634
2.22183
2.25715
2.26005
2.25336
2.24777
2.23843
2.20429
2.10708
2.01387
1.99243
1.98828
1.98554
1.98753
2.00267
2.0049
1.99799
1.99219
1.98265
1.96518
1.9311
1.87906
1.8438
1.83051
1.82501
1.82273
1.82365
1.82798
1.82685
1.8203
1.80271
1.75359
1.68038
1.65212
1.65063
1.64836
1.65291
1.68329
1.71743
1.72082
1.71699
1.71081
1.69199
1.64072
1.56793
1.5388
1.5351
1.5334
1.53389
1.54079
1.54258
1.53941
1.53409
1.52492
1.5107
1.50163
1.49645
1.487
1.4691
1.44537
1.42369
1.40795
1.39796
1.39116
1.38628
1.38089
1.37571
1.37135
1.36917
1.36694
1.36361
1.3598
1.35644
1.35169
1.34297
1.33057
1.31817
1.308
1.29218
3.7256
3.64855
3.54602
3.48596
3.47167
3.46547
3.46607
3.46174
3.45141
3.42625
3.36389
3.31487
3.30709
3.30537
3.31488
3.34202
3.34078
3.31407
3.25426
3.12239
2.96336
2.90589
2.88848
2.87593
2.88189
2.954
3.00132
2.98963
2.9625
2.91612
2.80448
2.63704
2.55536
2.53494
2.52141
2.50987
2.50481
2.52725
2.5755
2.58398
2.57286
2.56196
2.55136
2.5298
2.4558
2.31271
2.23487
2.22328
2.2184
2.21474
2.21719
2.23847
2.26868
2.2788
2.27495
2.26794
2.25538
2.21821
2.11824
2.01598
1.99337
1.98981
1.9874
1.98569
1.98945
2.01056
2.02673
2.02237
2.01056
1.9864
1.92746
1.85271
1.8237
1.81735
1.81382
1.81431
1.83381
1.8529
1.85479
1.85006
1.8397
1.8065
1.7234
1.64498
1.62574
1.62065
1.61867
1.62772
1.67204
1.71629
1.72157
1.71913
1.71261
1.68667
1.61679
1.55458
1.54256
1.53815
1.5339
1.53059
1.52828
1.52582
1.52277
1.51771
1.51029
1.50537
1.50052
1.49411
1.48346
1.46157
1.42657
1.40379
1.39528
1.38973
1.38638
1.38353
1.37761
1.3734
1.37168
1.36949
1.36588
1.36146
1.35651
1.3504
1.3417
1.32977
1.31676
1.3063
1.29277
3.69551
3.60703
3.51266
3.48565
3.48175
3.48699
3.49731
3.4937
3.48014
3.44782
3.38214
3.33727
3.3291
3.32998
3.34603
3.38184
3.37929
3.34512
3.27144
3.12355
2.96349
2.91111
2.89475
2.88412
2.88816
2.9325
2.98953
2.99621
2.97809
2.9377
2.84837
2.68503
2.56457
2.52829
2.51509
2.50498
2.49689
2.50435
2.57232
2.61978
2.6128
2.59949
2.58559
2.56063
2.49111
2.34886
2.24805
2.22944
2.22264
2.21697
2.2126
2.2149
2.23946
2.25777
2.25757
2.25414
2.24458
2.21871
2.14299
2.03843
2.00289
1.99745
1.99383
1.99054
1.9958
2.01697
2.02001
2.01292
2.00273
1.98021
1.9178
1.84143
1.81653
1.81081
1.80694
1.80675
1.82959
1.87464
1.88323
1.87668
1.86682
1.84388
1.77512
1.66107
1.60022
1.59036
1.58751
1.59182
1.62341
1.69683
1.73313
1.73315
1.72783
1.71609
1.67385
1.58854
1.53775
1.52846
1.52243
1.51658
1.5121
1.50978
1.51068
1.515
1.51716
1.51648
1.51349
1.50656
1.49201
1.46008
1.41991
1.40286
1.39594
1.39007
1.38511
1.3817
1.377
1.37372
1.37155
1.36949
1.36765
1.36502
1.36075
1.35413
1.3456
1.33059
1.31392
1.30707
1.29894
3.67028
3.57689
3.52114
3.50106
3.48583
3.47398
3.46391
3.45863
3.4504
3.43579
3.41069
3.39334
3.39158
3.3868
3.36622
3.33366
3.3117
3.28273
3.2268
3.12211
2.99596
2.9372
2.918
2.90776
2.91121
2.95364
2.97934
2.97545
2.96109
2.93752
2.87637
2.74651
2.60001
2.53597
2.51726
2.50719
2.4986
2.49429
2.51373
2.56879
2.58124
2.5701
2.55655
2.53904
2.50158
2.40471
2.28596
2.24081
2.22942
2.22195
2.21622
2.21597
2.24445
2.27105
2.26727
2.26252
2.25471
2.23213
2.16849
2.07013
2.01606
2.00789
2.00637
2.01029
2.02619
2.03138
2.02567
2.01842
2.00666
1.97937
1.91397
1.8368
1.81421
1.81025
1.80796
1.81066
1.84208
1.88243
1.8838
1.87894
1.87285
1.85845
1.80847
1.68936
1.59191
1.57281
1.57145
1.5756
1.59412
1.66686
1.75217
1.76483
1.76048
1.74972
1.71193
1.62287
1.5417
1.51694
1.51056
1.50576
1.50193
1.50072
1.50658
1.51445
1.51842
1.51969
1.51741
1.51077
1.49816
1.46643
1.42239
1.40301
1.39622
1.3904
1.3848
1.38035
1.37962
1.37713
1.37378
1.37044
1.36731
1.36498
1.36361
1.36065
1.3519
1.33245
1.31844
1.31379
1.30417
3.62979
3.55879
3.53727
3.5262
3.51419
3.49502
3.46865
3.44022
3.422
3.42233
3.43518
3.45431
3.46121
3.44784
3.39913
3.34099
3.28692
3.22708
3.15732
3.09156
3.03313
2.98914
2.96136
2.94864
2.95247
2.96294
2.94931
2.93348
2.91679
2.88816
2.8369
2.76508
2.67683
2.58708
2.53035
2.51083
2.50189
2.49524
2.49613
2.52956
2.56005
2.55135
2.53632
2.51772
2.48788
2.4327
2.33116
2.25876
2.24165
2.23433
2.2293
2.22884
2.24179
2.24072
2.22982
2.21849
2.20941
2.19845
2.17795
2.12889
2.06483
2.02509
2.0156
2.01201
2.00926
2.00389
1.99869
1.99383
1.98634
1.96657
1.91213
1.84157
1.81785
1.81584
1.81814
1.82892
1.86472
1.89863
1.89794
1.89367
1.88887
1.87774
1.83609
1.72574
1.60686
1.57278
1.56961
1.57205
1.5793
1.61638
1.70109
1.74655
1.74748
1.74141
1.72017
1.65681
1.56015
1.51509
1.50429
1.49902
1.49468
1.49301
1.50748
1.53385
1.53691
1.53366
1.52996
1.52369
1.51036
1.47464
1.42658
1.40501
1.39732
1.39136
1.38677
1.389
1.39674
1.39441
1.38904
1.38517
1.38173
1.37709
1.36801
1.35249
1.34133
1.33731
1.33196
1.32609
1.3124
3.60711
3.59117
3.57269
3.54903
3.51419
3.46688
3.42818
3.40868
3.4043
3.4202
3.47108
3.50705
3.51187
3.50032
3.45146
3.3556
3.24339
3.1504
3.08542
3.05255
3.04181
3.04008
3.02444
3.00316
2.98292
2.96467
2.95166
2.92292
2.8774
2.82388
2.77917
2.74595
2.71838
2.67602
2.59828
2.5266
2.5031
2.49324
2.48746
2.49939
2.53314
2.5326
2.51997
2.50968
2.4963
2.45986
2.37582
2.28797
2.25831
2.24911
2.24273
2.24007
2.24066
2.23452
2.22444
2.2097
2.18839
2.171
2.15961
2.14619
2.11856
2.07685
2.0365
2.01448
2.0043
1.99781
1.99163
1.98508
1.97606
1.96064
1.92929
1.87816
1.83694
1.8189
1.81492
1.81671
1.83118
1.86324
1.8733
1.8693
1.86571
1.86023
1.84161
1.76961
1.64487
1.5829
1.57445
1.57507
1.58024
1.59877
1.66348
1.72957
1.74106
1.73769
1.72542
1.68144
1.59517
1.52265
1.50323
1.49755
1.49407
1.49341
1.50794
1.52893
1.5286
1.52269
1.51656
1.50963
1.49732
1.47094
1.43394
1.41267
1.40333
1.39699
1.39233
1.39008
1.39224
1.38969
1.38353
1.37841
1.37439
1.37005
1.36416
1.35127
1.33492
1.32689
1.32327
1.32054
1.31646
3.58761
3.57169
3.55655
3.53809
3.51174
3.46633
3.42136
3.41014
3.41065
3.42556
3.47023
3.52069
3.53186
3.52235
3.4738
3.34536
3.18336
3.10464
3.07519
3.05771
3.04924
3.06346
3.0731
3.0552
3.03
2.9981
2.93505
2.858
2.79949
2.77173
2.758
2.75013
2.74282
2.72372
2.67652
2.58438
2.5139
2.49381
2.48534
2.48101
2.49494
2.51291
2.50405
2.48515
2.46645
2.44617
2.40577
2.33519
2.28858
2.2728
2.26215
2.2502
2.24014
2.23319
2.22389
2.20546
2.17736
2.15592
2.14698
2.14369
2.13526
2.11576
2.0841
2.04026
2.00334
1.98499
1.97569
1.96698
1.95424
1.9338
1.91063
1.89258
1.86411
1.83736
1.82609
1.82687
1.83206
1.84353
1.85873
1.85767
1.85154
1.84488
1.83295
1.79785
1.7101
1.61694
1.59084
1.58825
1.59183
1.60324
1.63855
1.69349
1.71568
1.7124
1.69999
1.67799
1.6284
1.55907
1.51487
1.50341
1.49989
1.50085
1.51763
1.53422
1.53342
1.52678
1.51824
1.50585
1.48754
1.46346
1.44136
1.4278
1.41647
1.40666
1.39962
1.39513
1.39615
1.3973
1.39085
1.38348
1.37817
1.37268
1.36373
1.34786
1.33204
1.32696
1.32437
1.3229
1.31727
3.58709
3.57277
3.55858
3.54232
3.51747
3.47368
3.45027
3.44697
3.44745
3.45916
3.49627
3.54592
3.56129
3.54862
3.48988
3.34791
3.17449
3.10103
3.07933
3.06223
3.06175
3.10321
3.11219
3.09294
3.06382
2.98382
2.87241
2.80956
2.78386
2.77149
2.76177
2.75455
2.7444
2.73164
2.71205
2.65993
2.56384
2.49742
2.47605
2.4676
2.46417
2.4807
2.49671
2.48717
2.46608
2.44107
2.41015
2.37335
2.3364
2.30405
2.28031
2.25951
2.23667
2.21779
2.2078
2.2
2.18508
2.15925
2.14267
2.13801
2.1365
2.13248
2.11475
2.07141
2.01513
1.98408
1.96921
1.95608
1.94141
1.92596
1.90856
1.89331
1.88437
1.87352
1.84757
1.82031
1.81897
1.82139
1.82979
1.83939
1.83717
1.82895
1.81606
1.79712
1.75561
1.68218
1.6253
1.61355
1.61359
1.61762
1.6317
1.65891
1.68284
1.68744
1.67683
1.65557
1.63139
1.59492
1.55125
1.52207
1.51318
1.51038
1.50901
1.50926
1.51009
1.50713
1.50019
1.48732
1.46554
1.45331
1.44896
1.44173
1.43265
1.4236
1.41264
1.40158
1.39484
1.38898
1.38203
1.37464
1.3681
1.36016
1.34714
1.34103
1.34091
1.33809
1.33465
1.3322
1.32409
3.62051
3.60934
3.59439
3.57706
3.55085
3.5017
3.44299
3.41405
3.4097
3.41252
3.42721
3.46041
3.49389
3.49439
3.463
3.36063
3.20608
3.12064
3.0953
3.08352
3.1126
3.16412
3.15541
3.12343
3.0609
2.93991
2.83007
2.80104
2.79597
2.79556
2.78301
2.76593
2.75304
2.74129
2.72584
2.69755
2.63691
2.54109
2.48181
2.46551
2.4588
2.45727
2.46413
2.46402
2.44949
2.42843
2.41199
2.39786
2.37628
2.34074
2.29774
2.2669
2.24558
2.22121
2.19873
2.17985
2.16159
2.14604
2.14029
2.13832
2.13369
2.12353
2.10911
2.08368
2.04146
1.99712
1.9661
1.9443
1.92442
1.9151
1.91963
1.92431
1.92258
1.90863
1.87573
1.83214
1.81091
1.80795
1.80615
1.80608
1.80922
1.80785
1.80158
1.79386
1.78199
1.75133
1.6918
1.64081
1.62792
1.62533
1.62661
1.6316
1.63459
1.63899
1.64224
1.63339
1.61907
1.60509
1.58503
1.5573
1.53444
1.52123
1.5129
1.50645
1.49932
1.49508
1.48834
1.47601
1.45846
1.44795
1.44257
1.43834
1.43635
1.4325
1.42496
1.41235
1.39696
1.38792
1.38294
1.37592
1.36693
1.35586
1.34287
1.33469
1.33173
1.32901
1.32581
1.32271
1.31525
3.61424
3.58031
3.56008
3.54349
3.52533
3.49985
3.45468
3.41977
3.40782
3.40748
3.42065
3.42872
3.43442
3.4313
3.40529
3.35816
3.28371
3.20317
3.15235
3.13533
3.12897
3.11149
3.09353
3.06874
3.01305
2.91406
2.83904
2.80911
2.78933
2.77445
2.7618
2.75165
2.74681
2.74371
2.73358
2.72088
2.68773
2.61096
2.51785
2.46877
2.4483
2.43342
2.42339
2.42421
2.43646
2.42919
2.4139
2.39877
2.38407
2.36261
2.32619
2.2788
2.23298
2.20012
2.17721
2.15982
2.14792
2.14195
2.13778
2.1334
2.128
2.12171
2.11401
2.09861
2.06043
2.00126
1.9591
1.93675
1.92237
1.91499
1.91404
1.91575
1.91538
1.90974
1.89532
1.86412
1.81656
1.78723
1.77656
1.7705
1.76829
1.7814
1.80453
1.80592
1.8001
1.78759
1.75566
1.69704
1.65271
1.63416
1.62221
1.60829
1.59245
1.58438
1.59266
1.61497
1.62255
1.61793
1.60685
1.58724
1.55861
1.53551
1.52468
1.51594
1.50367
1.48709
1.4709
1.45742
1.45074
1.44773
1.44598