/*--------------------------------*- C++ -*----------------------------------*\
  =========                 |
  \\      /  F ield         | OpenFOAM: The Open Source CFD Toolbox
   \\    /   O peration     | Website:  https://openfoam.org
    \\  /    A nd           | Version:  7
     \\/     M anipulation  |
\*---------------------------------------------------------------------------*/
FoamFile
{
    version     2.0;
    format      ascii;
    class       volScalarField;
    location    "7.2";
    object      rho;
}
// * * * * * * * * * * * * * * * * * * * * * * * * * * * * * * * * * * * * * //

dimensions      [1 -3 0 0 0 0 0];

internalField   nonuniform List<scalar> 
3328
(
60.6869
11.306
7.3215
7.33741
7.34504
7.35301
7.36044
7.36835
7.37704
7.38686
7.39784
7.40977
7.42255
7.43587
7.44945
7.4633
7.4771
7.49156
7.50222
7.50647
7.49067
7.45536
7.41825
7.40469
60.6808
11.3052
7.32018
7.33591
7.34359
7.35152
7.35898
7.36692
7.37569
7.38553
7.39645
7.40818
7.42055
7.4333
7.44624
7.45962
7.4731
7.48719
7.49727
7.50065
7.48383
7.44786
7.41058
7.3971
60.6657
11.2986
7.31748
7.33268
7.34032
7.34808
7.35544
7.36329
7.37197
7.38168
7.39242
7.40384
7.41569
7.42771
7.43974
7.45225
7.46489
7.47798
7.48703
7.48974
7.47305
7.43825
7.40224
7.39006
60.6359
11.2887
7.31271
7.32711
7.3347
7.34227
7.34952
7.35728
7.36578
7.37522
7.38556
7.39649
7.40768
7.41886
7.42983
7.44126
7.45309
7.4656
7.47448
7.47702
7.45993
7.42354
7.385
7.37128
60.5895
11.2746
7.30563
7.31886
7.32629
7.33361
7.34075
7.34838
7.35665
7.36565
7.37532
7.38546
7.39577
7.40602
7.41588
7.42596
7.4364
7.44674
7.45329
7.45222
7.43262
7.39599
7.35636
7.34671
60.5283
11.2564
7.29616
7.30781
7.31486
7.3218
7.3288
7.33631
7.34435
7.35283
7.36166
7.37067
7.37979
7.38881
7.39734
7.40542
7.41377
7.42139
7.4273
7.42658
7.41049
7.37278
7.32283
7.28899
60.4526
11.2343
7.28448
7.29416
7.30052
7.30684
7.31356
7.32087
7.32873
7.33674
7.3447
7.35237
7.36001
7.36727
7.37415
7.3798
7.38574
7.39028
7.39404
7.38843
7.36359
7.30445
7.23825
7.21207
60.3664
11.2081
7.27106
7.27843
7.28387
7.28923
7.29535
7.30216
7.30972
7.31725
7.32451
7.3308
7.33689
7.34203
7.34692
7.34981
7.35244
7.35289
7.35131
7.34119
7.31329
7.25737
7.16628
7.20984
60.2734
11.1778
7.25676
7.26152
7.2658
7.26975
7.27484
7.28072
7.2877
7.29459
7.30122
7.30628
7.31085
7.31382
7.31623
7.31653
7.31529
7.31172
7.30408
7.29
7.25079
7.17929
6.95605
6.67775
60.1849
11.1428
7.24305
7.24496
7.24787
7.24989
7.25339
7.25782
7.26383
7.26978
7.27548
7.27932
7.28221
7.28326
7.28309
7.28131
7.27616
7.26873
7.2559
7.23486
7.19093
7.10639
6.97474
6.71673
60.1101
11.0988
7.23092
7.22932
7.23031
7.23035
7.23194
7.23466
7.23931
7.244
7.24833
7.25071
7.25178
7.25109
7.24836
7.24436
7.23634
7.2256
7.20935
7.18074
7.13882
7.04857
6.94618
6.74429
60.0508
11.0481
7.21936
7.21403
7.21301
7.21126
7.21063
7.21158
7.21479
7.2183
7.22096
7.22171
7.22078
7.21792
7.21309
7.2063
7.19649
7.18249
7.16388
7.13257
7.09165
7.01832
6.93205
6.79117
59.991
10.9934
7.2076
7.19871
7.1956
7.19187
7.18915
7.18888
7.19082
7.19321
7.19436
7.19346
7.19041
7.18523
7.17839
7.16891
7.15667
7.13943
7.11855
7.08833
7.04783
6.99418
6.91231
6.82505
59.9037
10.9565
7.19258
7.18357
7.17839
7.17166
7.16719
7.16596
7.16719
7.16853
7.16839
7.1658
7.16092
7.15401
7.14564
7.13359
7.11802
7.09782
7.07383
7.04386
7.00591
6.96147
6.90162
6.82931
59.7739
10.9363
7.17191
7.16342
7.15677
7.1481
7.14311
7.14168
7.14272
7.14334
7.14202
7.1377
7.13138
7.1238
7.11445
7.10058
7.08232
7.05947
7.03237
7.00106
6.96426
6.92307
6.87624
6.82078
59.6114
10.9343
7.14765
7.13955
7.12954
7.12078
7.11789
7.11737
7.11819
7.11752
7.1143
7.10799
7.10059
7.09262
7.0826
7.06812
7.04868
7.02433
6.99533
6.96243
6.92492
6.8836
6.83909
6.7941
59.4463
10.9227
7.12028
7.1108
7.09814
7.09178
7.09236
7.09418
7.09444
7.09142
7.0853
7.07675
7.06786
7.05907
7.04838
7.03373
7.01411
6.98974
6.96097
6.92827
6.89052
6.84772
6.80047
6.75373
59.2975
10.9064
7.08649
7.07567
7.06277
7.06175
7.06734
7.07138
7.06988
7.06357
7.05419
7.04374
7.03364
7.02386
7.01217
6.99692
6.97684
6.95257
6.92519
6.89491
6.85969
6.81743
6.76748
6.71382
59.1663
10.8873
7.05245
7.03601
7.02551
7.03273
7.04379
7.04751
7.04284
7.03264
7.02047
7.00889
6.99866
6.98863
6.97644
6.95987
6.93807
6.91251
6.8854
6.85751
6.82657
6.78837
6.73994
6.68155
59.0448
10.866
7.0171
6.99364
6.9936
7.01015
7.02302
7.02249
7.01218
6.9975
6.98312
6.97152
6.9628
6.95476
6.94362
6.92561
6.90066
6.87194
6.843
6.81523
6.78693
6.75359
6.71035
6.65344
58.9325
10.8321
6.97386
6.96104
6.97483
6.99646
7.0027
6.99424
6.97683
6.95811
6.9424
6.93214
6.92657
6.92215
6.91308
6.89446
6.86676
6.83475
6.80245
6.77196
6.7427
6.71095
6.67158
6.61947
58.8339
10.7787
6.92691
6.94577
6.96922
6.98245
6.97849
6.96149
6.93802
6.91628
6.90069
6.89352
6.89213
6.89074
6.88227
6.86275
6.83439
6.80166
6.76761
6.73421
6.70083
6.66555
6.62484
6.57466
58.74
10.7047
6.90433
6.94263
6.95991
6.96246
6.95026
6.9257
6.89833
6.87634
6.86396
6.86116
6.86216
6.85988
6.84811
6.82638
6.79849
6.7682
6.73685
6.7041
6.66783
6.62698
6.57954
6.52483
58.6438
10.632
6.90138
6.93631
6.94271
6.9362
6.91558
6.88688
6.86109
6.84424
6.83828
6.83883
6.83783
6.8287
6.80972
6.78423
6.75618
6.72864
6.70201
6.67481
6.64218
6.59974
6.54518
6.4814
58.5421
10.5922
6.90393
6.92311
6.91757
6.90087
6.87299
6.84665
6.82861
6.82218
6.82381
6.82537
6.81755
6.79741
6.76924
6.7384
6.70862
6.6824
6.6599
6.63934
6.61386
6.57635
6.52139
6.45144
58.4369
10.5865
6.9013
6.90013
6.88334
6.85591
6.8266
6.80811
6.80204
6.80751
6.81539
6.81402
6.79765
6.76767
6.73128
6.69474
6.66178
6.63498
6.61453
6.59798
6.57743
6.54543
6.49542
6.42898
58.3321
10.6083
6.88611
6.87002
6.84233
6.80796
6.78421
6.7756
6.78321
6.79766
6.80517
6.79747
6.77378
6.73858
6.69866
6.65933
6.62421
6.59613
6.57534
6.55788
6.5355
6.50313
6.45711
6.39895
58.23
10.6422
6.86277
6.83644
6.79808
6.76706
6.7521
6.75671
6.77307
6.78738
6.78724
6.77128
6.74177
6.70557
6.66798
6.63274
6.60275
6.57782
6.55334
6.52654
6.4936
6.45392
6.40751
6.35623
58.1261
10.6677
6.83198
6.79613
6.7577
6.73981
6.73916
6.75265
6.76696
6.77076
6.75976
6.73385
6.70027
6.66585
6.6353
6.61199
6.59513
6.57794
6.55019
6.50997
6.46026
6.40695
6.35393
6.30361
58.0214
10.6768
6.79238
6.75165
6.72706
6.72899
6.7425
6.75679
6.76051
6.74961
6.7236
6.68881
6.65313
6.62203
6.6018
6.59512
6.59322
6.58406
6.55722
6.50947
6.44669
6.3782
6.31301
6.25522
57.9272
10.6544
6.74124
6.7186
6.71364
6.73208
6.75126
6.75885
6.75163
6.72635
6.6875
6.64657
6.60976
6.58418
6.57704
6.58296
6.58853
6.58296
6.55857
6.51284
6.44951
6.37481
6.29805
6.22862
57.8618
10.6033
6.68733
6.70021
6.7168
6.74113
6.75091
6.74986
6.73315
6.6993
6.65562
6.61342
6.58211
6.56836
6.56969
6.57639
6.57898
6.57066
6.54613
6.50517
6.44957
6.3821
6.30788
6.23385
57.8238
10.535
6.66298
6.70509
6.72669
6.73852
6.73888
6.72648
6.69793
6.66268
6.6284
6.60144
6.58612
6.5794
6.57613
6.57071
6.56029
6.54077
6.5105
6.4717
6.42752
6.3801
6.32811
6.26719
57.7997
10.47
6.67129
6.71611
6.72746
6.72653
6.71297
6.68501
6.652
6.62142
6.6012
6.59889
6.60429
6.60557
6.59458
6.57087
6.53866
6.49959
6.45777
6.41823
6.38432
6.35593
6.3306
6.29811
57.7616
10.4282
6.69775
6.72458
6.72451
6.70703
6.6765
6.63883
6.60624
6.58282
6.58258
6.60046
6.61917
6.6263
6.61347
6.57628
6.52177
6.4606
6.40351
6.36075
6.33918
6.33254
6.32717
6.31091
57.7105
10.424
6.71737
6.72563
6.71352
6.68499
6.64242
6.60347
6.57618
6.56907
6.58194
6.60413
6.62082
6.62618
6.61416
6.57233
6.50556
6.4321
6.36623
6.32549
6.31218
6.31102
6.30835
6.29333
57.6605
10.4457
6.71517
6.70973
6.69376
6.66317
6.62439
6.59624
6.58032
6.57825
6.58693
6.59926
6.60538
6.5996
6.5786
6.53991
6.48445
6.42298
6.37104
6.33467
6.3094
6.29012
6.274
6.25096
57.6134
10.4995
6.69168
6.67957
6.66263
6.64349
6.62757
6.61487
6.60711
6.60337
6.59835
6.58855
6.57269
6.54805
6.51671
6.48591
6.4606
6.4324
6.39851
6.3625
6.32558
6.28556
6.24408
6.20002
57.5692
10.5621
6.65932
6.64487
6.632
6.62829
6.63114
6.64006
6.6448
6.63698
6.61723
6.58248
6.53617
6.49057
6.45493
6.43426
6.42866
6.43051
6.42455
6.39778
6.35081
6.29072
6.22081
6.14737
57.543
10.6115
6.62746
6.62648
6.6183
6.62709
6.64692
6.66817
6.67656
6.66573
6.62476
6.56477
6.50259
6.4529
6.42783
6.42565
6.43242
6.4452
6.45316
6.43369
6.37572
6.28981
6.19147
6.0961
5.73992
6.1183
6.22278
6.17314
6.05197
5.93759
5.86777
5.85103
6.47873
6.50145
6.36336
6.24456
6.08487
5.95666
5.86492
5.85207
6.57013
6.48586
6.35799
6.26181
6.11231
5.98529
5.89712
5.87974
6.67622
6.58267
6.46766
6.37636
6.22201
6.08005
5.9868
5.95919
6.72906
6.65541
6.55295
6.46465
6.31725
6.16793
6.0595
6.03684
6.75858
6.69077
6.61896
6.54922
6.42906
6.28716
6.15792
6.09936
6.76517
6.70235
6.64292
6.58881
6.49169
6.3379
6.15765
6.09431
6.74599
6.69568
6.63749
6.57793
6.49186
6.36783
6.14232
6.04423
6.70636
6.65807
6.6069
6.54631
6.45199
6.29875
5.88629
4.79077
6.65964
6.60506
6.54781
6.47148
6.36472
6.15506
5.72641
4.74069
6.61752
6.54897
6.4765
6.38213
6.25273
6.01653
5.62007
4.80163
6.58462
6.50527
6.41594
6.30378
6.15016
5.91476
5.53943
4.89783
6.55253
6.47031
6.37128
6.2477
6.08091
5.85098
5.51549
5.0153
6.51141
6.43271
6.33357
6.20998
6.04542
5.828
5.53211
5.13641
6.46024
6.3845
6.29123
6.17689
6.02553
5.82897
5.57607
5.25582
6.40912
6.33035
6.23953
6.13385
5.99965
5.82903
5.62223
5.36168
6.37046
6.28341
6.18834
6.08526
5.96483
5.81628
5.64641
5.43556
6.34718
6.25493
6.15413
6.04714
5.93093
5.79528
5.64864
5.47562
6.32675
6.24214
6.14426
6.0345
5.91633
5.78276
5.64408
5.49106
6.29702
6.22751
6.14278
6.04146
5.9262
5.79216
5.6503
5.50051
6.25363
6.19986
6.13544
6.05251
5.95244
5.82686
5.68407
5.5269
6.2063
6.16192
6.11506
6.05238
5.97194
5.8656
5.73664
5.58372
6.17281
6.1279
6.08821
6.03697
5.96979
5.87984
5.77008
5.64043
6.16927
6.11427
6.06557
6.01127
5.9474
5.86622
5.77274
5.66393
6.20078
6.12967
6.05797
5.98347
5.90905
5.83008
5.74625
5.65463
6.24442
6.16488
6.07152
5.97043
5.87324
5.78494
5.70409
5.62585
6.27004
6.19518
6.09457
5.97996
5.86252
5.75457
5.66466
5.58956
6.25919
6.19819
6.10737
5.99278
5.86933
5.74915
5.64695
5.56892
6.21566
6.16173
6.08665
5.99095
5.88256
5.77454
5.67644
5.58638
6.15009
6.09308
6.0331
5.97176
5.90056
5.81671
5.72679
5.63395
6.08014
6.02125
5.97109
5.93251
5.89764
5.84905
5.77557
5.68019
6.02115
5.97871
5.95923
5.94146
5.92061
5.88603
5.82114
5.72387
1.85855
0.943704
0.692937
0.712053
0.823437
1.08221
1.48998
1.85355
2.12384
2.43998
2.82765
2.96614
3.20687
3.49944
3.60967
3.74273
3.83134
3.85801
3.83089
3.79647
3.77101
3.76875
3.77866
3.7575
3.71822
3.67805
3.65239
3.65222
3.64396
3.61049
3.56631
3.51485
3.44634
3.36963
3.28982
3.20179
3.11995
3.06393
3.02444
2.99193
2.96996
2.95233
2.93534
2.92001
2.90238
2.87678
2.8427
2.79398
2.71431
2.60789
2.52019
2.46143
2.43225
2.43745
2.49673
2.68972
3.00193
3.29765
3.51746
3.58141
3.55807
3.4943
3.3998
3.31028
3.26763
3.24691
3.23505
3.23996
3.25886
3.26546
3.25073
3.23061
3.20812
3.17803
3.13043
3.06514
3.00938
2.9794
2.95986
2.9453
2.94086
2.93985
2.93004
2.91389
2.89615
2.87393
2.84038
2.77315
2.79692
1.9405
1.63329
1.45585
1.35429
1.36653
1.48875
1.66366
1.89803
2.20694
2.61726
2.8585
3.15657
3.55267
3.7188
3.83147
3.90688
3.946
3.94255
3.92485
3.89727
3.86828
3.82319
3.77202
3.72377
3.6779
3.64339
3.63071
3.60597
3.56259
3.5201
3.48248
3.44506
3.40039
3.35072
3.28846
3.21371
3.14001
3.07924
3.03414
3.00041
2.97134
2.94337
2.91572
2.8837
2.84716
2.80746
2.76163
2.7038
2.63614
2.56607
2.50116
2.48002
2.50748
2.60885
2.78574
2.98941
3.22329
3.39891
3.50095
3.50594
3.47157
3.42114
3.36861
3.33124
3.30132
3.27974
3.27117
3.2752
3.27201
3.25049
3.22537
3.19721
3.16082
3.11595
3.0723
3.04105
3.01193
2.98643
2.96769
2.95657
2.9493
2.93466
2.91656
2.89696
2.87125
2.83791
2.78061
3.61927
2.79218
2.36837
2.1284
1.85676
1.72577
1.71932
1.79695
1.95223
2.15994
2.45265
2.81258
3.19412
3.68666
3.94231
4.07308
4.06117
4.07106
4.08028
4.09869
4.11014
4.08204
4.02793
3.95028
3.88268
3.82951
3.77224
3.7007
3.62304
3.55335
3.50167
3.46527
3.44642
3.42965
3.39725
3.35778
3.31065
3.25921
3.20733
3.15034
3.08668
3.02453
2.97265
2.93029
2.8903
2.84816
2.80066
2.74444
2.6871
2.65087
2.6231
2.60274
2.61979
2.68656
2.81806
2.91049
2.98347
3.11325
3.28534
3.44728
3.49993
3.48557
3.45497
3.42172
3.39815
3.38213
3.36592
3.34744
3.32838
3.30406
3.27533
3.24293
3.20525
3.1593
3.11482
3.09066
3.07131
3.0516
3.03319
3.0164
2.99881
2.97972
2.96042
2.93942
2.91276
2.87764
2.83854
2.79553
4.17373
3.53425
3.02087
2.76651
2.52224
2.26336
2.17564
2.1292
2.08574
2.10875
2.21167
2.48203
2.88365
3.42658
3.95085
4.25649
4.26055
4.24101
4.22611
4.24326
4.25944
4.22935
4.17399
4.10177
4.03274
3.96953
3.9019
3.81728
3.71931
3.6393
3.58717
3.55061
3.53272
3.51052
3.47692
3.43952
3.40189
3.365
3.32299
3.26883
3.19311
3.10122
3.01985
2.95919
2.9094
2.8591
2.80539
2.75516
2.71847
2.69767
2.70366
2.74328
2.83771
2.9505
3.04248
3.04211
3.02101
3.04951
3.14241
3.32896
3.48862
3.52813
3.51586
3.50137
3.48889
3.48008
3.46639
3.43938
3.39919
3.35381
3.31257
3.27383
3.23291
3.19363
3.16801
3.14811
3.12998
3.1138
3.09723
3.07748
3.05429
3.02871
3.00191
2.97158
2.93547
2.89726
2.87088
2.84049
4.5029
4.04902
3.58513
3.26286
3.05352
2.80008
2.58563
2.49468
2.36955
2.30734
2.34077
2.38484
2.51934
2.88688
3.55766
4.12419
4.35476
4.379
4.34444
4.3177
4.2908
4.25128
4.2047
4.16283
4.11082
4.04326
3.96838
3.89136
3.81553
3.75143
3.70396
3.66737
3.63129
3.58756
3.54383
3.50928
3.47721
3.4408
3.39705
3.33811
3.25652
3.15644
3.06107
2.98411
2.9224
2.86821
2.82231
2.79054
2.76736
2.77245
2.82366
2.94458
3.10531
3.19104
3.19418
3.15219
3.07303
3.04822
3.07029
3.18468
3.40774
3.55267
3.60201
3.61864
3.61206
3.58726
3.56136
3.52281
3.45649
3.38674
3.33447
3.29329
3.26026
3.23744
3.21965
3.20612
3.19639
3.18599
3.16999
3.14897
3.12256
3.08676
3.04062
2.99242
2.95245
2.92862
2.91223
2.88697
4.74112
4.36426
4.0027
3.66724
3.44235
3.23835
3.00675
2.86957
2.73786
2.62712
2.58131
2.53872
2.51599
2.54901
2.84061
3.53198
4.22688
4.40145
4.36075
4.28742
4.231
4.20987
4.21934
4.19242
4.14157
4.07695
4.01319
3.96125
3.91543
3.86343
3.7981
3.72216
3.64707
3.58827
3.54441
3.50875
3.47592
3.43525
3.38672
3.32464
3.24953
3.1706
3.09705
3.02668
2.95849
2.89852
2.86091
2.83994
2.83656
2.87874
2.99642
3.173
3.29902
3.30863
3.28063
3.21028
3.11624
3.06319
3.06218
3.10337
3.26884
3.48386
3.62061
3.68363
3.67946
3.64823
3.60325
3.5475
3.46964
3.39668
3.35293
3.32117
3.29781
3.28059
3.27121
3.26851
3.26702
3.25556
3.23519
3.20691
3.16196
3.10665
3.04949
3.00517
2.97902
2.96154
2.94749
2.93095
4.92831
4.59607
4.29551
3.99344
3.74297
3.55408
3.34902
3.18889
3.06449
2.91245
2.81352
2.74577
2.66729
2.62197
2.61616
2.84963
3.60556
4.27874
4.35501
4.27999
4.20599
4.16234
4.15016
4.14421
4.1221
4.0889
4.0445
3.99979
3.9491
3.88936
3.81341
3.71983
3.62733
3.55647
3.50263
3.45581
3.41598
3.37881
3.33736
3.28811
3.22889
3.17962
3.13667
3.0871
3.02452
2.96951
2.92831
2.91003
2.92077
3.01235
3.18361
3.32482
3.35718
3.33916
3.29105
3.22349
3.1587
3.11296
3.08884
3.10634
3.17249
3.34614
3.55094
3.66955
3.6802
3.65772
3.60857
3.5437
3.46206
3.40408
3.37319
3.34972
3.33415
3.32863
3.33187
3.33062
3.31492
3.2928
3.26332
3.21877
3.16411
3.1019
3.05029
3.01897
2.99808
2.98084
2.97074
2.97067
5.08413
4.79576
4.50836
4.24749
4.00363
3.80349
3.60828
3.4361
3.3179
3.191
3.04677
2.95444
2.87635
2.78578
2.69663
2.69263
2.9255
3.65783
4.26386
4.29896
4.21658
4.16228
4.11738
4.0803
4.05005
4.03023
4.01435
3.98163
3.93415
3.8747
3.79858
3.70219
3.60929
3.54317
3.48688
3.4264
3.36818
3.32431
3.28931
3.26267
3.24905
3.2301
3.19642
3.14304
3.08037
3.01319
2.95421
2.95508
3.02833
3.20157
3.33885
3.38215
3.35835
3.32324
3.28074
3.23909
3.21318
3.19013
3.16455
3.14562
3.16202
3.22405
3.39424
3.57117
3.63767
3.63439
3.59351
3.53184
3.46316
3.42465
3.40214
3.38533
3.37971
3.38063
3.3753
3.35651
3.33074
3.29792
3.2544
3.19954
3.13877
3.0899
3.05855
3.03574
3.01433
2.99854
2.99673
3.01072
5.20478
4.95862
4.71019
4.4602
4.23541
4.03262
3.83528
3.63889
3.49702
3.39471
3.27392
3.13754
3.03317
2.94775
2.85142
2.76879
2.77686
2.9982
3.67374
4.19278
4.2574
4.19034
4.10665
4.04126
3.99424
3.95995
3.94647
3.92724
3.88553
3.83515
3.76698
3.686
3.61413
3.55171
3.4873
3.41886
3.35323
3.30377
3.271
3.24492
3.22596
3.20093
3.16458
3.1196
3.0667
3.01172
2.97952
3.04257
3.20323
3.36625
3.39897
3.36636
3.33507
3.30855
3.2848
3.27304
3.27062
3.2609
3.2357
3.20103
3.16528
3.1451
3.19909
3.35438
3.51141
3.57763
3.56185
3.51968
3.48645
3.46203
3.4431
3.43187
3.42004
3.40334
3.37969
3.35204
3.32161
3.28157
3.22376
3.16068
3.11633
3.08879
3.06992
3.05276
3.03821
3.02961
3.03272
3.04711
5.28341
5.07438
4.86349
4.65247
4.43547
4.23494
4.04422
3.85687
3.68049
3.54475
3.44103
3.32638
3.18924
3.0857
3.01638
2.92035
2.83812
2.83692
3.04068
3.66871
4.1597
4.22017
4.12946
4.02735
3.96711
3.91842
3.88385
3.85759
3.82041
3.77439
3.71858
3.66119
3.6149
3.56438
3.50331
3.43391
3.36458
3.3057
3.26195
3.22841
3.19505
3.15648
3.11448
3.07227
3.03981
3.02866
3.08795
3.25126
3.39993
3.43356
3.40522
3.36513
3.33793
3.31895
3.31955
3.32874
3.32667
3.3085
3.27663
3.22517
3.15693
3.08508
3.06966
3.13189
3.29981
3.45715
3.51311
3.51583
3.51939
3.50293
3.47848
3.45715
3.43068
3.39728
3.36482
3.33088
3.29037
3.24039
3.18707
3.14389
3.11476
3.09673
3.08364
3.07562
3.0704
3.06519
3.06045
3.07574
5.32689
5.14965
4.97092
4.78828
4.60494
4.41955
4.23356
4.05156
3.87845
3.72325
3.58681
3.46514
3.34634
3.22468
3.12103
3.05145
2.95515
2.87031
2.87411
3.07741
3.68469
4.1103
4.13702
4.05111
3.96649
3.90322
3.85009
3.80309
3.75916
3.71885
3.68531
3.66087
3.62711
3.57925
3.51584
3.43995
3.36557
3.30359
3.24892
3.1955
3.14301
3.09396
3.05079
3.0221
3.03045
3.11114
3.2924
3.459
3.50629
3.48915
3.42336
3.38281
3.36453
3.35992
3.36383
3.35475
3.33482
3.30797
3.2722
3.21559
3.14002
3.07105
3.03862
3.04431
3.11904
3.2886
3.43471
3.51547
3.54246
3.52584
3.49512
3.46188
3.42169
3.37741
3.32954
3.28058
3.23626
3.20049
3.17186
3.14757
3.12955
3.11796
3.11185
3.10729
3.09751
3.08697
3.08052
3.10849
5.3487
5.19311
5.03984
4.88483
4.72386
4.56137
4.39875
4.23185
4.06502
3.90344
3.74963
3.60767
3.47518
3.36044
3.25298
3.1484
3.06987
2.97221
2.88713
2.89799
3.10068
3.65251
4.01205
4.05905
3.99931
3.9139
3.8286
3.76075
3.70896
3.66884
3.63946
3.61902
3.58605
3.54543
3.49647
3.42823
3.35441
3.29107
3.23049
3.16162
3.09231
3.03249
2.99377
3.00434
3.09568
3.29638
3.49713
3.57557
3.57249
3.53363
3.46637
3.42839
3.40892
3.39705
3.37602
3.3525
3.32624
3.29193
3.2441
3.18327
3.12502
3.07371
3.0409
3.02843
3.05024
3.15248
3.33297
3.48352
3.53627
3.52732
3.49653
3.4556
3.40776
3.34711
3.27709
3.2296
3.20271
3.1823
3.16462
3.15473
3.15386
3.14924
3.13638
3.12103
3.10633
3.10335
3.10201
3.14176
5.37029
5.22146
5.08235
4.94356
4.80385
4.66549
4.52285
4.37691
4.22341
4.06533
3.90664
3.7569
3.61865
3.48785
3.37228
3.2691
3.1638
3.06656
2.96142
2.88381
2.8973
3.09186
3.58308
3.94262
3.98485
3.92425
3.82599
3.73836
3.67459
3.62924
3.59847
3.5714
3.53523
3.49594
3.45031
3.39401
3.33472
3.275
3.2086
3.12991
3.05209
3.00463
3.00202
3.07176
3.28414
3.50598
3.62865
3.63492
3.61271
3.56028
3.50032
3.46354
3.43269
3.39944
3.37096
3.33942
3.30207
3.25708
3.20867
3.16607
3.12352
3.08937
3.0647
3.04436
3.04757
3.08474
3.20905
3.38477
3.48616
3.50293
3.48555
3.44636
3.38909
3.31424
3.25265
3.21791
3.19324
3.17601
3.17123
3.18659
3.18559
3.16626
3.14391
3.1237
3.11508
3.11261
3.13696
3.19572
5.41849
5.25886
5.11632
4.98271
4.85281
4.73159
4.60849
4.47315
4.33924
4.19336
4.04174
3.89576
3.76016
3.62756
3.49479
3.36981
3.26533
3.16363
3.05743
2.94518
2.87304
2.88366
3.07014
3.54399
3.86978
3.8829
3.8193
3.73366
3.65839
3.60691
3.55903
3.51519
3.47541
3.43469
3.3913
3.34812
3.30359
3.24945
3.1825
3.10291
3.03337
3.01563
3.07845
3.27864
3.50455
3.64451
3.6777
3.65893
3.61291
3.55861
3.512
3.47549
3.43914
3.39736
3.35255
3.30931
3.26892
3.23188
3.19579
3.16376
3.14291
3.13111
3.1163
3.0912
3.06748
3.05541
3.09047
3.20269
3.3489
3.43952
3.44355
3.41489
3.363
3.29658
3.24535
3.21857
3.19765
3.18651
3.18802
3.18076
3.16317
3.14576
3.13259
3.12463
3.10856
3.13376
3.19054
3.24235
5.49375
5.33449
5.17156
5.02264
4.89222
4.77417
4.66026
4.53328
4.40043
4.27857
4.1487
4.01069
3.88018
3.75177
3.61964
3.48278
3.35563
3.2511
3.15053
3.03896
2.92542
2.85468
2.86137
3.04236
3.46956
3.74204
3.78136
3.73156
3.66015
3.59098
3.52413
3.46237
3.41113
3.36898
3.33246
3.29958
3.25973
3.20775
3.14692
3.0892
3.05228
3.10463
3.30644
3.53144
3.65414
3.68855
3.67183
3.64026
3.5946
3.54985
3.51457
3.4798
3.44065
3.39178
3.33893
3.29665
3.26125
3.22781
3.20194
3.18665
3.1848
3.18075
3.16057
3.12237
3.06568
3.02067
3.00339
3.03385
3.13622
3.28928
3.36444
3.36268
3.33689
3.29535
3.2627
3.24068
3.22629
3.21569
3.19466
3.16886
3.1461
3.12832
3.11864
3.10709
3.12441
3.19337
3.23759
3.27735
5.54256
5.40834
5.26044
5.09866
4.94328
4.81591
4.69571
4.56911
4.43906
4.31664
4.20912
4.0978
3.973
3.84801
3.72116
3.58984
3.45745
3.33553
3.22983
3.1257
3.00889
2.8939
2.82355
2.8284
2.99274
3.36163
3.65046
3.69798
3.654
3.57549
3.49143
3.41764
3.35816
3.31772
3.28424
3.24963
3.20196
3.15008
3.11073
3.08652
3.13093
3.32732
3.57617
3.70571
3.71065
3.68417
3.63933
3.59722
3.5674
3.53929
3.50989
3.47952
3.44182
3.39085
3.33667
3.29539
3.26592
3.24458
3.2335
3.23216
3.2228
3.19755
3.15909
3.11023
3.05467
3.00927
2.97289
2.95578
2.98525
3.09646
3.232
3.30468
3.31392
3.31225
3.30165
3.28093
3.26089
3.23333
3.19637
3.15829
3.12939
3.10975
3.09157
3.10962
3.18018
3.24008
3.27799
3.30572
5.55534
5.44468
5.32407
5.19357
5.03928
4.87737
4.73467
4.59833
4.4662
4.34644
4.23709
4.13375
4.02902
3.91585
3.79624
3.6725
3.54724
3.42178
3.3017
3.19101
3.08148
2.96444
2.85437
2.79076
2.79466
2.94049
3.29012
3.57855
3.59394
3.5394
3.45717
3.38689
3.32354
3.27857
3.24284
3.19567
3.14542
3.10833
3.09537
3.13557
3.3331
3.60023
3.7417
3.7559
3.72434
3.66312
3.60168
3.57018
3.54838
3.53115
3.5055
3.47692
3.43975
3.38803
3.33876
3.3101
3.29028
3.27903
3.27107
3.25163
3.22205
3.18354
3.13484
3.08818
3.0491
3.0102
2.97166
2.94011
2.93514
2.97137
3.09191
3.21859
3.30362
3.33691
3.33147
3.30612
3.27226
3.23144
3.18625
3.14461
3.11101
3.08277
3.10374
3.17356
3.24467
3.28769
3.3136
3.34022
5.54394
5.45356
5.35601
5.24944
5.11592
4.9593
4.79067
4.63575
4.49863
4.37281
4.26222
4.15801
4.05368
3.94751
3.84031
3.73056
3.61492
3.4934
3.36774
3.24555
3.13409
3.02793
2.91707
2.81621
2.75844
2.75604
2.88446
3.21917
3.46095
3.47487
3.42676
3.36254
3.29947
3.247
3.19475
3.14074
3.09633
3.08668
3.12111
3.31842
3.60429
3.76708
3.7878
3.76305
3.71144
3.64168
3.59407
3.5643
3.54182
3.52657
3.50433
3.47811
3.44211
3.39156
3.35863
3.33693
3.31955
3.30114
3.27649
3.24551
3.20444
3.15166
3.10634
3.07543
3.04694
3.01609
2.98317
2.94895
2.92243
2.93004
2.99083
3.11655
3.24241
3.31392
3.31309
3.29162
3.25698
3.21262
3.16711
3.12675
3.09605
3.12021
3.19262
3.26717
3.31909
3.34397
3.36591
3.36384
5.52104
5.44959
5.36945
5.27241
5.15459
5.01572
4.86115
4.69357
4.53746
4.40917
4.29221
4.18175
4.07571
3.97162
3.86626
3.76208
3.65734
3.54428
3.42069
3.29536
3.18031
3.07751
2.97697
2.87069
2.77725
2.71771
2.70315
2.81535
3.10359
3.31699
3.38157
3.34275
3.27932
3.2136
3.14536
3.08827
3.0708
3.09606
3.28078
3.58838
3.78013
3.81058
3.79587
3.75449
3.69067
3.63288
3.59763
3.57119
3.55242
3.53472
3.51119
3.48448
3.44365
3.40365
3.37762
3.35312
3.32773
3.29969
3.26738
3.22631
3.17368
3.12688
3.09544
3.07156
3.04983
3.02772
3.00265
2.97619
2.94654
2.92565
2.93647
3.00861
3.12626
3.23371
3.26926
3.25728
3.22568
3.183
3.14486
3.12203
3.14174
3.21465
3.30084
3.3603
3.39191
3.40755
3.40512
3.37738
5.50356
5.43867
5.36485
5.2729
5.16238
5.03709
4.89987
4.75485
4.60307
4.4569
4.33308
4.21548
4.10142
3.99624
3.89099
3.78263
3.67324
3.56423
3.45231
3.33674
3.22505
3.1229
3.02573
2.92301
2.81473
2.72151
2.66185
2.6424
2.74108
2.99138
3.23324
3.29101
3.2536
3.18026
3.09813
3.06246
3.08004
3.24179
3.55923
3.77924
3.84136
3.82501
3.78969
3.73917
3.68155
3.63865
3.61212
3.59079
3.57175
3.54964
3.52194
3.48285
3.43927
3.40656
3.3793
3.35193
3.32322
3.29204
3.25374
3.20331
3.15434
3.11828
3.09462
3.07548
3.0617
3.05292
3.03617
3.01426
2.97833
2.93188
2.90389
2.91565
2.9816
3.08189
3.17192
3.1946
3.17455
3.14577
3.13707
3.15555
3.22617
3.31995
3.38719
3.42773
3.44805
3.44665
3.43214
3.38931
5.50426
5.428
5.34513
5.25186
5.14982
5.03887
4.91339
4.78485
4.64875
4.5125
4.38117
4.2574
4.13358
4.01714
3.90695
3.79696
3.68644
3.57498
3.46492
3.36
3.2595
3.1621
3.06629
2.96763
2.85963
2.74885
2.65462
2.59919
2.58446
2.67281
2.90627
3.12736
3.18104
3.13552
3.07569
3.07964
3.21509
3.52452
3.78352
3.84214
3.83864
3.81298
3.77463
3.72921
3.68423
3.65705
3.63284
3.61005
3.58414
3.55144
3.51298
3.47028
3.43515
3.40697
3.37962
3.35145
3.3215
3.28697
3.2427
3.19239
3.14972
3.12388
3.10527
3.0954
3.09221
3.07858
3.05642
3.02518
2.98106
2.9314
2.89498
2.86666
2.87503
2.92635
3.02167
3.11232
3.12227
3.13086
3.15668
3.22905
3.34193
3.41223
3.44431
3.45964
3.46739
3.45431
3.4378
3.39246
5.5369
5.43433
5.33063
5.22929
5.12576
5.01579
4.90363
4.79607
4.68303
4.5569
4.42674
4.2948
4.16429
4.03787
3.91917
3.804
3.69114
3.58105
3.47452
3.37406
3.27986
3.18877
3.09623
2.99892
2.89505
2.78468
2.67816
2.59341
2.53794
2.51853
2.58525
2.78791
3.0277
3.04799
3.08888
3.22764
3.51727
3.77446
3.87081
3.85296
3.82415
3.79659
3.7659
3.72929
3.70295
3.67826
3.64789
3.61278
3.57514
3.53525
3.49302
3.45908
3.43289
3.40746
3.3815
3.35445
3.32441
3.28636
3.2367
3.18917
3.16293
3.14482
3.12924
3.10959
3.08559
3.06182
3.03763
3.00658
2.9691
2.93165
2.89737
2.86407
2.84001
2.84411
2.89763
3.00733
3.07101
3.13771
3.22327
3.34653
3.44429
3.4685
3.46629
3.46422
3.4617
3.44491
3.42841
3.38457
5.57061
5.45279
5.33373
5.21694
5.10097
4.98711
4.88395
4.79102
4.69507
4.57686
4.45217
4.32463
4.19397
4.05988
3.9279
3.80447
3.69059
3.58392
3.48236
3.38538
3.29154
3.20015
3.10936
3.01579
2.9173
2.81509
2.7129
2.61351
2.52512
2.46071
2.42027
2.49764
2.7207
2.94003
3.19689
3.50947
3.81026
3.86941
3.85814
3.83366
3.80741
3.78584
3.76614
3.74443
3.72156
3.69502
3.65976
3.61078
3.55601
3.50813
3.47505
3.45046
3.42929
3.40913
3.38596
3.36077
3.3311
3.28772
3.23483
3.20687
3.18968
3.17274
3.15036
3.12381
3.09235
3.05453
3.01532
2.97943
2.94878
2.91811
2.88901
2.86098
2.83139
2.8184
2.84094
2.92178
3.04658
3.18774
3.33314
3.46086
3.50203
3.48915
3.46266
3.44383
3.42874
3.41167
3.39494
3.36353
5.60101
5.46337
5.32272
5.18908
5.07488
4.98258
4.89475
4.8055
4.71508
4.60239
4.47871
4.35137
4.21672
4.072
3.92804
3.80088
3.68833
3.58463
3.4867
3.39287
3.30048
3.20832
3.11571
3.02393
2.93215
2.83913
2.74156
2.63738
2.5281
2.43462
2.36281
2.36763
2.46352
2.81352
3.29395
3.72173
4.04458
3.98907
3.88285
3.82135
3.80053
3.78118
3.76872
3.75379
3.72866
3.69969
3.6606
3.6024
3.5364
3.49263
3.46461
3.44085
3.42621
3.41502
3.39392
3.37
3.33815
3.29061
3.24716
3.2206
3.1968
3.17235
3.14702
3.11959
3.08539
3.03893
2.99138
2.95791
2.93337
2.90979
2.88557
2.86095
2.83374
2.80886
2.81611
2.86974
3.02272
3.23022
3.42609
3.5399
3.54478
3.5125
3.45541
3.4205
3.39976
3.38387
3.36963
3.34754
)
;

boundaryField
{
    inlet
    {
        type            calculated;
        value           uniform 1.40001;
    }
    outlet
    {
        type            calculated;
        value           nonuniform List<scalar> 
24
(
2.77473
2.78139
2.79538
2.83983
2.8859
2.92941
2.96811
3.00812
3.04633
3.07575
3.10981
3.14551
3.19784
3.24246
3.27634
3.30309
3.33661
3.36293
3.37775
3.3907
3.39432
3.38612
3.36353
3.34698
)
;
    }
    bottom
    {
        type            calculated;
        value           nonuniform List<scalar> 
24
(
60.6869
11.306
7.3215
7.33741
7.34504
7.35301
7.36044
7.36835
7.37704
7.38686
7.39784
7.40977
7.42255
7.43587
7.44945
7.4633
7.4771
7.49156
7.50222
7.50647
7.49067
7.45536
7.41825
7.40469
)
;
    }
    top
    {
        type            calculated;
        value           nonuniform List<scalar> 
120
(
57.543
10.6115
6.62746
6.62648
6.6183
6.62709
6.64692
6.66817
6.67656
6.66573
6.62476
6.56477
6.50259
6.4529
6.42783
6.42565
6.43242
6.4452
6.45316
6.43369
6.37572
6.28981
6.19147
6.0961
6.02115
5.97871
5.95923
5.94146
5.92061
5.88603
5.82114
5.72387
5.60101
5.46337
5.32272
5.18908
5.07488
4.98258
4.89475
4.8055
4.71508
4.60239
4.47871
4.35137
4.21672
4.072
3.92804
3.80088
3.68833
3.58463
3.4867
3.39287
3.30048
3.20832
3.11571
3.02393
2.93215
2.83913
2.74156
2.63738
2.5281
2.43462
2.36281
2.36763
2.46352
2.81352
3.29395
3.72173
4.04458
3.98907
3.88285
3.82135
3.80053
3.78118
3.76872
3.75379
3.72866
3.69969
3.6606
3.6024
3.5364
3.49263
3.46461
3.44085
3.42621
3.41502
3.39392
3.37
3.33815
3.29061
3.24716
3.2206
3.1968
3.17235
3.14702
3.11959
3.08539
3.03893
2.99138
2.95791
2.93337
2.90979
2.88557
2.86095
2.83374
2.80886
2.81611
2.86974
3.02272
3.23022
3.42609
3.5399
3.54478
3.5125
3.45541
3.4205
3.39976
3.38387
3.36963
3.34754
)
;
    }
    obstacle
    {
        type            calculated;
        value           nonuniform List<scalar> 
112
(
7.40469
7.3971
7.39006
7.37128
7.34671
7.28899
7.21207
7.20984
5.73992
6.1183
6.22278
6.17314
6.05197
5.93759
5.86777
5.85103
5.85103
5.85207
5.87974
5.95919
6.03684
6.09936
6.09431
6.04423
1.85855
0.943704
0.692937
0.712053
0.823437
1.08221
1.48998
1.85355
2.12384
2.43998
2.82765
2.96614
3.20687
3.49944
3.60967
3.74273
3.83134
3.85801
3.83089
3.79647
3.77101
3.76875
3.77866
3.7575
3.71822
3.67805
3.65239
3.65222
3.64396
3.61049
3.56631
3.51485
3.44634
3.36963
3.28982
3.20179
3.11995
3.06393
3.02444
2.99193
2.96996
2.95233
2.93534
2.92001
2.90238
2.87678
2.8427
2.79398
2.71431
2.60789
2.52019
2.46143
2.43225
2.43745
2.49673
2.68972
3.00193
3.29765
3.51746
3.58141
3.55807
3.4943
3.3998
3.31028
3.26763
3.24691
3.23505
3.23996
3.25886
3.26546
3.25073
3.23061
3.20812
3.17803
3.13043
3.06514
3.00938
2.9794
2.95986
2.9453
2.94086
2.93985
2.93004
2.91389
2.89615
2.87393
2.84038
2.77315
)
;
    }
    defaultFaces
    {
        type            empty;
    }
}


// ************************************************************************* //
