/*--------------------------------*- C++ -*----------------------------------*\
  =========                 |
  \\      /  F ield         | OpenFOAM: The Open Source CFD Toolbox
   \\    /   O peration     | Website:  https://openfoam.org
    \\  /    A nd           | Version:  7
     \\/     M anipulation  |
\*---------------------------------------------------------------------------*/
FoamFile
{
    version     2.0;
    format      ascii;
    class       volScalarField;
    location    "2.2";
    object      p;
}
// * * * * * * * * * * * * * * * * * * * * * * * * * * * * * * * * * * * * * //

dimensions      [1 -1 -2 0 0 0 0];

internalField   nonuniform List<scalar> 
16192
(
4.47539
4.32551
4.14906
3.95214
3.74581
3.53556
3.33346
3.13509
2.96452
2.95082
3.01947
3.02739
3.05891
3.15505
3.3209
3.59888
3.88083
4.22904
4.50748
4.76267
4.89741
4.47181
4.31952
4.14113
3.94297
3.73694
3.52824
3.32899
3.13449
2.96583
2.94288
3.00708
3.00974
3.03771
3.12449
3.28282
3.55357
3.85126
4.19309
4.46923
4.71543
4.85357
4.4682
4.31409
4.13239
3.93097
3.72331
3.51541
3.31938
3.13023
2.96704
2.93037
2.98731
2.99254
3.02298
3.11038
3.26629
3.52488
3.80732
4.13725
4.40805
4.64555
4.78695
4.45673
4.29861
4.11381
3.90981
3.70201
3.49679
3.30632
3.12423
2.97086
2.91629
2.9547
2.95197
2.98005
3.06269
3.21379
3.46627
3.74317
4.06223
4.32874
4.55411
4.69578
4.4482
4.28561
4.09632
3.88784
3.67757
3.47303
3.28773
3.11338
2.97331
2.90553
2.92449
2.91815
2.94559
3.02159
3.16346
3.39595
3.662
3.96644
4.22861
4.44232
4.58204
4.43233
4.26407
4.06894
3.85681
3.64512
3.44232
3.26313
3.09582
2.96615
2.88546
2.8856
2.87059
2.89408
2.96319
3.09618
3.31172
3.56477
3.85249
4.10911
4.31214
4.44747
4.41969
4.24514
4.04506
3.82851
3.61572
3.41327
3.23844
3.0786
2.96003
2.87418
2.85671
2.83193
2.84993
2.90937
3.02652
3.22087
3.45938
3.72912
3.97754
4.17221
4.30033
4.40064
4.22009
4.01638
3.79683
3.58237
3.38132
3.21051
3.05568
2.94108
2.84843
2.81884
2.78756
2.8007
2.8526
2.95619
3.1309
3.35429
3.60659
3.84557
4.03314
4.15345
4.38643
4.19974
3.99249
3.77116
3.55585
3.35614
3.18859
3.03863
2.92796
2.83445
2.79393
2.75577
2.75903
2.79863
2.88638
3.0421
3.25111
3.48667
3.71772
3.89832
4.00985
4.36584
4.17624
3.96784
3.74469
3.53142
3.33445
3.16788
3.0201
2.90865
2.81279
2.76151
2.72037
2.71733
2.753
2.83237
2.96938
3.16407
3.3786
3.59999
3.76977
3.87149
4.35109
4.15912
3.94834
3.72392
3.51111
3.31615
3.15388
3.01026
2.89858
2.80281
2.74443
2.7024
2.6897
2.71313
2.78093
2.89888
3.0821
3.27795
3.4944
3.65201
3.74515
4.32843
4.13704
3.93157
3.70979
3.49695
3.30174
3.13896
2.99806
2.88577
2.79095
2.72765
2.68369
2.6662
2.68674
2.75322
2.86024
3.03626
3.21312
3.42216
3.56195
3.65228
4.31506
4.12367
3.92043
3.69985
3.49176
3.3002
3.135
2.99321
2.87878
2.78605
2.72166
2.67756
2.65857
2.67352
2.73666
2.8306
2.9984
3.16164
3.36916
3.48993
3.57371
4.28669
4.10166
3.90094
3.68989
3.48657
3.29553
3.12967
2.9899
2.87685
2.78679
2.72085
2.67635
2.6587
2.67349
2.74057
2.83314
3.0017
3.15827
3.36178
3.46421
3.57376
4.25516
4.08468
3.89005
3.68781
3.49028
3.30344
3.13782
2.99719
2.87946
2.78911
2.72374
2.68328
2.67135
2.69237
2.76612
2.86139
3.03385
3.18916
3.39036
3.48377
3.60225
4.26611
4.06784
3.8719
3.67596
3.48711
3.30604
3.143
3.00265
2.88374
2.79596
2.73119
2.69481
2.68632
2.7151
2.7987
2.90428
3.08461
3.2433
3.4471
3.53476
3.6631
4.20847
4.02835
3.86103
3.66611
3.48921
3.31286
3.15581
3.01638
2.89681
2.80842
2.74318
2.71189
2.71015
2.7578
2.85815
2.97939
3.17042
3.33662
3.53965
3.62078
3.75592
4.2444
4.06379
3.86462
3.66205
3.48819
3.30954
3.16205
3.02473
2.90864
2.82032
2.75698
2.73105
2.73633
2.80219
2.91848
3.06197
3.26729
3.44195
3.64756
3.72801
3.87318
4.23659
4.02278
3.8292
3.64585
3.48349
3.30601
3.17023
3.03333
2.92403
2.83538
2.77441
2.75224
2.76584
2.85657
2.99801
3.16961
3.3914
3.57668
3.78521
3.8618
4.01272
4.26096
4.0598
3.86983
3.67929
3.5009
3.31783
3.17829
3.0375
2.9346
2.84494
2.78855
2.76927
2.79464
2.90636
3.07429
3.27333
3.51391
3.71047
3.9226
3.99974
4.16328
4.29525
4.08776
3.87614
3.67155
3.4883
3.3147
3.17697
3.04146
2.94462
2.85502
2.80257
2.78434
2.8209
2.95597
3.15254
3.38484
3.64945
3.86028
4.08105
4.15996
4.3249
4.34055
4.12852
3.91541
3.71078
3.52772
3.3565
3.20623
3.06412
2.95877
2.86749
2.81456
2.79612
2.84005
2.99382
3.2225
3.48588
3.774
4.0008
4.2314
4.31129
4.48668
4.39753
4.18765
3.96007
3.75202
3.55868
3.37577
3.2123
3.07059
2.9635
2.87471
2.82159
2.80499
2.85519
3.02303
3.28216
3.58196
3.89614
4.14064
4.38826
4.47633
4.66193
4.43308
4.23961
4.02463
3.81041
3.60227
3.42187
3.25693
3.11103
2.99218
2.89913
2.83788
2.81841
2.86418
3.04578
3.32639
3.66039
4.0077
4.27195
4.53934
4.62907
4.83575
4.47668
4.28307
4.0732
3.86804
3.65907
3.47542
3.29879
3.14441
3.01396
2.91504
2.84352
2.82185
2.86111
3.05297
3.35777
3.72785
4.10492
4.39669
4.68344
4.78271
5.02247
4.52346
4.33197
4.12332
3.92635
3.71559
3.53045
3.35376
3.19581
3.05054
2.94602
2.86565
2.83628
2.86089
3.05141
3.37027
3.78666
4.18608
4.5087
4.82124
4.93492
5.21271
4.57422
4.38184
4.17511
3.98132
3.76833
3.5837
3.41087
3.25315
3.09394
2.97977
2.88835
2.84589
2.85025
3.02393
3.3546
3.82158
4.25491
4.61392
4.94666
5.0826
5.41094
4.62199
4.43063
4.23686
4.0444
3.83039
3.63416
3.45836
3.3125
3.1478
3.02243
2.91561
2.86145
2.84319
2.99063
3.31501
3.84012
4.30891
4.70868
5.05272
5.22756
5.62028
4.66298
4.4781
4.27493
4.09753
3.89543
3.69697
3.50833
3.36515
3.20139
3.06696
2.95651
2.88478
2.84051
2.93593
3.24643
3.81175
4.34242
4.79163
5.14371
5.38938
5.79786
4.69816
4.51915
4.31853
4.14374
3.95526
3.75614
3.577
3.42881
3.26754
3.11506
2.98921
2.91307
2.85203
2.90022
3.17068
3.7424
4.34341
4.84886
5.22173
5.5393
5.97405
4.72969
4.55491
4.36122
4.18387
4.00718
3.8182
3.62098
3.47718
3.32637
3.17371
3.03454
2.94289
2.86655
2.8937
3.07394
3.65133
4.31589
4.89033
5.28427
5.6807
6.04838
4.75957
4.58824
4.39969
4.22224
4.05072
3.87093
3.66931
3.52299
3.37798
3.22881
3.0841
2.98491
2.88874
2.89596
3.00346
3.52156
4.22301
4.8914
5.32242
5.71516
6.09377
4.78944
4.62092
4.43637
4.2596
4.09086
3.91791
3.72289
3.56793
3.42732
3.28521
3.13084
3.02602
2.91306
2.89842
2.96523
3.36418
4.14861
4.86035
5.35518
5.64201
5.0446
4.8199
4.65481
4.47409
4.2965
4.13106
3.96323
3.7739
3.61417
3.47541
3.33738
3.17327
3.06984
2.95095
2.90993
2.94557
3.2231
4.00644
4.78653
5.32764
5.52371
4.94202
4.85205
4.68984
4.51392
4.33601
4.17184
4.00922
3.82552
3.66081
3.52015
3.38722
3.22358
3.10399
2.99025
2.92644
2.93928
3.12429
3.8218
4.74137
5.29659
5.43225
4.86496
4.88275
4.72385
4.55495
4.378
4.21249
4.05566
3.87815
3.70572
3.5633
3.43319
3.27295
3.14291
3.03136
2.94815
2.94347
3.05397
3.61255
4.64557
5.23333
5.35466
4.88645
4.91099
4.75544
4.59222
4.41927
4.25303
4.0981
3.92973
3.75187
3.6009
3.47708
3.32692
3.18117
3.07228
2.97785
2.95259
3.01207
3.43694
4.49614
5.18129
5.31286
4.92733
4.93634
4.78255
4.6244
4.45745
4.29037
4.13519
3.97605
3.8007
3.63781
3.51567
3.38042
3.2268
3.11005
3.0113
2.96446
2.99237
3.29155
4.27419
5.1442
5.27597
4.95948
4.96011
4.80771
4.65191
4.49091
4.32555
4.16747
4.01434
3.84843
3.67867
3.54978
3.42741
3.2793
3.1469
3.04575
2.9813
2.98887
3.1771
4.04497
5.08616
5.23937
4.98079
4.98385
4.83213
4.67778
4.52122
4.359
4.19775
4.04845
3.89353
3.72328
3.58375
3.4692
3.33429
3.18731
3.07804
3.00373
2.99369
3.09871
3.81619
4.96856
5.20756
4.99935
5.00785
4.85708
4.70385
4.54972
4.39122
4.23015
4.0785
3.93386
3.77155
3.62042
3.50216
3.38495
3.23703
3.1092
3.02468
3.00025
3.05523
3.59767
4.80452
5.17769
5.01044
5.03211
4.88337
4.7311
4.57887
4.42347
4.2649
4.11061
3.97033
3.81996
3.66328
3.53137
3.42477
3.29235
3.1472
3.04729
3.00981
3.03399
3.40708
4.60566
5.14201
5.01512
5.05619
4.91022
4.75987
4.60905
4.45634
4.30174
4.14706
4.00378
3.8629
3.71044
3.565
3.45318
3.33965
3.19615
3.07204
3.02131
3.03385
3.26182
4.36301
5.08871
5.02843
5.07879
4.93606
4.78883
4.63991
4.48967
4.33993
4.18585
4.03781
3.90081
3.75888
3.60357
3.48198
3.38137
3.25112
3.1069
3.0356
3.03671
3.16488
4.09459
5.02304
5.04625
5.10026
4.9603
4.81653
4.6704
4.52227
4.3758
4.22528
4.07461
3.93315
3.79994
3.64974
3.51291
3.41124
3.30021
3.15283
3.05117
3.04097
3.11083
3.82145
4.95383
5.04636
5.12087
4.98286
4.84186
4.69852
4.55194
4.40807
4.26176
4.10999
3.965
3.8357
3.69658
3.54832
3.43917
3.34227
3.2048
3.0765
3.04941
3.0852
3.57867
4.84823
5.03738
5.14133
5.00464
4.86523
4.7243
4.57933
4.4353
4.29323
4.1454
3.99719
3.86573
3.73847
3.59378
3.46817
3.37364
3.25656
3.11299
3.05716
3.07119
3.38271
4.66401
5.0176
5.16166
5.02619
4.88754
4.74807
4.60455
4.46032
4.32048
4.17802
4.02938
3.89502
3.77329
3.63851
3.50167
3.40118
3.29876
3.15702
3.07073
3.07163
3.24505
4.41517
4.9777
5.1815
5.04738
4.90938
4.77096
4.62928
4.485
4.34562
4.2082
4.06394
3.92432
3.8032
3.6802
3.54238
3.42806
3.33486
3.20839
3.08792
3.07465
3.16428
4.12524
4.90338
5.20005
5.06739
4.93078
4.79352
4.65409
4.51099
4.37181
4.23666
4.09793
3.95703
3.83114
3.71456
3.58473
3.46083
3.36353
3.256
3.11922
3.07924
3.12279
3.82964
4.83157
5.21712
5.08617
4.95161
4.81602
4.6793
4.5387
4.39988
4.26526
4.13179
3.99224
3.86038
3.74671
3.62586
3.4986
3.39255
3.29559
3.16258
3.08903
3.10258
3.56776
4.75553
5.23222
5.10315
4.97127
4.83814
4.70435
4.56699
4.43013
4.29448
4.16423
4.02939
3.89418
3.77665
3.6641
3.54039
3.42398
3.32899
3.20592
3.10487
3.10186
3.37418
4.62272
5.246
5.11903
4.98996
4.85963
4.72884
4.59447
4.46084
4.32458
4.19587
4.06565
3.93089
3.80826
3.69884
3.58194
3.45846
3.35846
3.2482
3.12901
3.10425
3.25276
4.40339
5.25943
5.13453
5.00798
4.88037
4.75232
4.61997
4.48983
4.35477
4.22528
4.10009
3.96858
3.84108
3.72976
3.61963
3.49704
3.38706
3.28418
3.1628
3.10956
3.18485
4.11789
5.27253
5.15016
5.02574
4.90036
4.77469
4.64382
4.516
4.38393
4.25388
4.1306
4.00457
3.8746
3.75909
3.65158
3.53456
3.41838
3.31752
3.19848
3.12079
3.14769
3.82761
5.28615
5.16631
5.04383
4.91986
4.79631
4.66679
4.53999
4.41181
4.28142
4.15827
4.03682
3.90829
3.78642
3.68031
3.57058
3.45062
3.3506
3.23503
3.13825
3.14449
3.58271
5.2994
5.18221
5.06165
4.93894
4.81678
4.68964
4.56291
4.43808
4.30893
4.18499
4.06525
3.94094
3.81512
3.70612
3.60244
3.48669
3.38207
3.27331
3.16387
3.14501
3.40287
5.31286
5.19788
5.0793
4.95783
4.83664
4.71248
4.58634
4.4638
4.33676
4.21218
4.09211
3.97273
3.84533
3.73342
3.63059
3.52396
3.41606
3.31143
3.19445
3.14995
3.28968
5.32546
5.21237
5.09566
4.97612
4.85552
4.73462
4.6101
4.48905
4.36429
4.24068
4.11881
4.003
3.87722
3.76309
3.65873
3.5585
3.45108
3.34938
3.2305
3.15941
3.22826
5.3378
5.22641
5.11149
4.99406
4.87444
4.75611
4.63381
4.51405
4.39141
4.26948
4.1469
4.03233
3.9111
3.79577
3.68665
3.59314
3.48765
3.38659
3.26799
3.17539
3.19676
5.3487
5.23916
5.12604
5.01096
4.89262
4.77648
4.65634
4.53776
4.41745
4.29712
4.17601
4.06097
3.943
3.83064
3.71872
3.62253
3.52302
3.4235
3.30542
3.19656
3.19296
5.3591
5.25156
5.14048
5.02746
4.91083
4.7964
4.67817
4.56036
4.44235
4.32319
4.20392
4.08965
3.97472
3.86287
3.75197
3.65098
3.55632
3.45806
3.34323
3.22199
3.19141
5.36776
5.26242
5.15364
5.0427
4.92805
4.81519
4.69896
4.58152
4.4657
4.34768
4.23024
4.11617
4.0041
3.89316
3.78538
3.67857
3.58444
3.48918
3.38292
3.24721
3.19395
5.3762
5.27291
5.16645
5.05757
4.94502
4.8337
4.71929
4.60262
4.48801
4.3716
4.25507
4.14191
4.03262
3.92071
3.81503
3.70823
3.60996
3.51526
3.4205
3.27903
3.20278
5.38353
5.28215
5.17791
5.07118
4.96093
4.85125
4.73856
4.62313
4.50948
4.39463
4.27976
4.16588
4.05872
3.94883
3.84134
3.73673
3.6353
3.53796
3.45379
3.32327
3.21792
5.39115
5.29142
5.18917
5.08443
4.97659
4.86834
4.75735
4.64376
4.53092
4.41732
4.30442
4.19152
4.0837
3.97598
3.86738
3.76316
3.66368
3.56277
3.47837
3.37163
3.25333
5.39846
5.30028
5.19974
5.09683
4.99119
4.88452
4.7749
4.66362
4.5521
4.43983
4.32901
4.21714
4.1088
4.00202
3.89489
3.78892
3.68853
3.5933
3.50504
3.40979
3.29908
5.40581
5.30909
5.21018
5.10881
5.00523
4.89986
4.79188
4.68284
4.57328
4.46202
4.35323
4.24334
4.13463
4.02726
3.92068
3.81795
3.71542
3.62296
3.53681
3.45085
3.3392
5.41303
5.31768
5.2202
5.1203
5.0183
4.91447
4.8079
4.70121
4.59373
4.48413
4.37673
4.26754
4.15956
4.05282
3.94646
3.84588
3.74606
3.65406
3.57188
3.49152
3.39049
5.41978
5.32557
5.22952
5.13099
5.03069
4.9282
4.8236
4.7189
4.61348
4.50499
4.39906
4.29061
4.18293
4.07714
3.97267
3.87492
3.77962
3.6887
3.60769
3.52933
3.43585
5.42658
5.33327
5.23847
5.14141
5.04266
4.94181
4.83898
4.73603
4.6321
4.52507
4.41967
4.31183
4.20499
4.1014
4.00041
3.90514
3.81435
3.72601
3.64439
3.56354
3.47064
5.43261
5.34009
5.24649
5.15092
5.054
4.95475
4.85398
4.75242
4.6494
4.54332
4.43866
4.33223
4.2274
4.12626
4.02988
3.93833
3.85109
3.76147
3.6786
3.59202
3.50417
5.43876
5.34696
5.25445
5.16035
5.06518
4.96758
4.86841
4.76793
4.66541
4.56069
4.45706
4.35297
4.25158
4.15491
4.06232
3.97299
3.88605
3.79638
3.70672
3.61688
3.52633
5.44434
5.35328
5.26179
5.16899
5.07544
4.97924
4.88146
4.78198
4.6802
4.57713
4.47598
4.37584
4.27934
4.18701
4.09702
4.00814
3.91798
3.8257
3.72961
3.63823
3.54278
5.45044
5.36002
5.26937
5.1776
5.08523
4.99001
4.89322
4.79478
4.6947
4.59442
4.49742
4.4025
4.31117
4.22158
4.13211
4.04004
3.94561
3.84863
3.7503
3.6548
3.558
5.45674
5.36679
5.27673
5.18559
5.09387
4.99925
4.90349
4.80689
4.70985
4.61427
4.52223
4.43239
4.3448
4.2557
4.16332
4.06638
3.96753
3.86617
3.76769
3.66956
3.57652
5.46371
5.37399
5.28417
5.19326
5.10182
5.00773
4.91342
4.81996
4.72781
4.63803
4.55071
4.46452
4.37648
4.28394
4.18762
4.0868
3.98348
3.88146
3.78206
3.68558
3.59468
5.47136
5.38136
5.29127
5.20035
5.1092
5.01631
4.9249
4.83598
4.74986
4.66593
4.58128
4.49346
4.40248
4.30483
4.20388
4.10096
3.99675
3.89434
3.79601
3.70359
3.61275
5.47937
5.3886
5.29787
5.20713
5.11709
5.02688
4.94015
4.85699
4.77614
4.69441
4.60885
4.51727
4.42016
4.31833
4.21457
4.11049
4.00796
3.90808
3.81174
3.72243
3.63308
5.48772
5.39574
5.30431
5.2146
5.12748
5.04226
4.96176
4.88303
4.80323
4.72011
4.62971
4.53249
4.43144
4.32648
4.22156
4.11896
4.01984
3.92365
3.82988
3.74221
3.65698
5.49571
5.40275
5.31169
5.22474
5.1426
5.06366
4.98798
4.91034
4.82713
4.7373
4.64164
4.54003
4.43621
4.33164
4.22875
4.12872
4.03308
3.94087
3.85106
3.76431
3.68052
5.50365
5.41125
5.3229
5.24109
5.16488
5.09059
5.01579
4.93321
4.84308
4.74677
4.6454
4.54171
4.43927
4.33771
4.23757
4.14102
4.04985
3.96108
3.87399
3.78783
3.70491
5.51233
5.42326
5.341
5.26524
5.19232
5.11696
5.03611
4.94654
4.84946
4.74801
4.6452
4.54254
4.4421
4.34481
4.25035
4.15804
4.06946
3.98273
3.89681
3.81159
3.72829
5.52546
5.44306
5.36839
5.29585
5.21968
5.13719
5.04677
4.94934
4.84886
4.74654
4.64398
4.54364
4.44809
4.35662
4.26715
4.17803
4.09127
4.00496
3.9187
3.83427
3.75177
5.54656
5.47167
5.39997
5.32338
5.23836
5.14491
5.0467
4.94573
4.84434
4.74328
4.64445
4.54951
4.45905
4.37191
4.2864
4.19957
4.1125
4.02563
3.93908
3.855
3.77473
5.57923
5.50632
5.42857
5.34106
5.24513
5.1439
5.04124
4.93875
4.8397
4.7435
4.65032
4.56079
4.47521
4.39101
4.30652
4.22011
4.13266
4.04532
3.95871
3.87559
3.79731
5.6157
5.5343
5.44316
5.34407
5.24058
5.13608
5.03327
4.9335
4.83923
4.7486
4.66124
4.57708
4.49382
4.40942
4.32451
4.23835
4.15115
4.06457
3.97877
3.89646
3.81897
5.64468
5.54832
5.44438
5.33751
5.23119
5.128
5.02853
4.93323
4.84502
4.76091
4.67805
4.59576
4.51222
4.42627
4.34009
4.25473
4.16937
4.08457
4.00039
3.91884
3.84137
5.65386
5.54534
5.43518
5.32688
5.22254
5.12334
5.02937
4.94123
4.85888
4.77787
4.69617
4.61368
4.52853
4.44064
4.35394
4.26988
4.18695
4.10499
4.0233
3.94225
3.86365
5.64711
5.53367
5.42328
5.31729
5.21793
5.12605
5.03944
4.95672
4.87671
4.79603
4.71338
4.62951
4.54361
4.45515
4.36827
4.2856
4.20507
4.12539
4.04589
3.9657
3.88573
5.63339
5.52087
5.41387
5.31459
5.22397
5.13952
5.05772
4.97675
4.89518
4.81157
4.72741
4.64367
4.55862
4.47132
4.38532
4.30309
4.22296
4.14414
4.06636
3.98737
3.90657
5.61887
5.51192
5.41344
5.32349
5.24029
5.15972
5.0785
4.99558
4.91101
4.82501
4.73976
4.65678
4.57382
4.48895
4.40432
4.32202
4.24115
4.1616
4.08398
4.00612
3.92587
5.61073
5.51506
5.42746
5.3446
5.26313
5.18044
5.09629
5.01152
4.92565
4.83885
4.75361
4.67129
4.5895
4.50679
4.42412
4.34172
4.25925
4.17805
4.09983
4.02246
3.94333
5.61568
5.53255
5.45167
5.36879
5.28324
5.19622
5.10982
5.02505
4.94031
4.85457
4.76975
4.68691
4.60456
4.52284
4.44176
4.35998
4.27706
4.1947
4.11513
4.03761
3.95998
1.93765
1.20332
0.913614
0.897908
0.98289
1.07597
1.1819
1.30215
1.37105
1.39982
1.42503
1.42906
1.42745
1.41493
1.40503
1.40041
1.40346
1.41461
1.42878
1.44056
1.4424
1.43768
1.42408
1.41144
1.40268
1.39364
1.39055
1.39435
1.39306
1.38983
1.38765
1.38514
1.3825
1.3804
1.37832
1.37854
1.38094
1.38434
1.388
1.38624
1.38121
1.37602
1.37081
1.36567
1.36143
1.35919
1.35907
1.35969
1.35969
1.35863
1.35724
1.35631
1.35567
1.35508
1.35492
1.35541
1.35603
1.35647
1.35709
1.35812
1.35997
1.36361
1.36998
1.37724
1.38236
1.38396
1.38322
1.38207
1.3816
1.38247
1.38539
1.39135
1.40167
1.41077
1.41256
1.41145
1.40869
1.40404
1.39887
1.39552
1.39336
1.39247
1.39357
1.3923
1.38933
1.38571
1.38014
1.37437
1.37085
1.36834
1.36632
1.36544
1.36474
1.3632
1.36172
1.36005
1.35896
1.35847
1.35832
1.35888
1.36084
1.36361
1.36584
1.3662
1.36526
1.36419
1.36268
1.35939
1.35356
1.34664
1.33987
1.33413
1.33027
1.32837
1.32797
1.32877
1.3316
1.33762
1.3464
1.35564
1.36119
1.36334
1.36317
1.35774
1.34426
1.33556
1.33315
1.33361
1.33504
1.33652
1.33789
1.33934
1.34114
1.34334
1.3458
1.34832
1.35119
1.3552
1.35974
1.36486
1.37013
1.37389
1.37623
1.37297
1.36195
1.35423
1.35396
1.35695
1.35978
1.36207
1.36422
1.36636
1.36754
1.36667
1.36565
1.36743
1.37046
1.37466
1.37697
1.37636
1.36956
1.35303
1.34227
1.3409
1.34166
1.34602
1.35514
1.36369
1.36413
1.36008
1.35153
1.34239
1.33763
1.33396
1.33207
1.3344
1.34121
1.34866
1.3544
1.35737
1.35638
1.35068
1.34057
1.32896
1.32086
1.3147
1.3119
1.31421
1.31889
1.32309
1.3264
1.33055
1.33777
1.34408
1.34213
1.33318
1.32246
1.31556
1.31162
1.30945
1.3106
1.31201
1.31223
1.31359
1.31784
1.32291
1.32333
1.32132
1.31983
1.31839
1.31679
1.3148
1.31161
1.30868
1.30625
1.30354
1.29981
1.29531
1.29232
1.29254
1.29435
1.29674
1.301
1.30552
1.30791
1.30951
1.31003
1.30671
1.29739
1.2873
2.80717
2.03187
1.60771
1.33702
1.26946
1.20036
1.1865
1.22824
1.27674
1.31929
1.36646
1.38924
1.39517
1.39864
1.40241
1.40488
1.41278
1.42652
1.43419
1.4373
1.43517
1.42732
1.41881
1.4116
1.40471
1.39931
1.39817
1.3961
1.39323
1.39049
1.38779
1.38509
1.38243
1.38152
1.38267
1.38314
1.38162
1.38003
1.37743
1.37301
1.36945
1.36755
1.36646
1.36605
1.3677
1.36936
1.36695
1.36274
1.35835
1.35351
1.34952
1.34865
1.34999
1.35211
1.35514
1.3593
1.36308
1.36374
1.36214
1.36058
1.3599
1.36082
1.36449
1.37057
1.37692
1.38147
1.38397
1.38489
1.38472
1.38463
1.38589
1.38924
1.39467
1.40108
1.40429
1.40397
1.40254
1.40041
1.3979
1.39578
1.3943
1.39424
1.39399
1.39192
1.38972
1.38657
1.38289
1.38037
1.37799
1.37593
1.37388
1.37112
1.36816
1.36504
1.36113
1.35636
1.35408
1.3534
1.35311
1.35335
1.3545
1.35633
1.35816
1.35861
1.35782
1.35703
1.35599
1.35484
1.35396
1.35334
1.3518
1.34846
1.34364
1.33849
1.33454
1.33251
1.33261
1.33497
1.33987
1.34419
1.34711
1.34915
1.34953
1.34682
1.34371
1.34112
1.33916
1.33874
1.33985
1.34151
1.343
1.34432
1.34585
1.34776
1.34988
1.35205
1.35428
1.35651
1.35901
1.36275
1.36666
1.36994
1.37118
1.36677
1.35897
1.35515
1.35726
1.3612
1.36492
1.36761
1.36982
1.37127
1.37164
1.37034
1.36726
1.36529
1.36626
1.36773
1.36825
1.36724
1.36282
1.35626
1.35143
1.34795
1.34594
1.34616
1.35015
1.35532
1.35736
1.35574
1.35204
1.34835
1.34487
1.34155
1.33911
1.33877
1.3408
1.34375
1.345
1.3441
1.34196
1.33935
1.33705
1.33376
1.32971
1.32636
1.32471
1.32449
1.32437
1.32375
1.32329
1.32363
1.32406
1.32575
1.3292
1.33214
1.32943
1.32417
1.31865
1.31461
1.31197
1.31014
1.31003
1.313
1.31836
1.32109
1.31954
1.31694
1.31354
1.31054
1.30903
1.30837
1.30917
1.30903
1.30823
1.30695
1.30462
1.30127
1.29832
1.29743
1.29825
1.2998
1.30201
1.3039
1.30551
1.30656
1.30589
1.30161
1.29465
1.28877
3.27458
2.46368
1.9814
1.59868
1.36854
1.28522
1.19249
1.17332
1.21115
1.26541
1.32938
1.37699
1.39792
1.41228
1.42462
1.43655
1.44825
1.45201
1.44843
1.43841
1.42093
1.40376
1.39882
1.39854
1.40143
1.41109
1.42119
1.42037
1.41423
1.40256
1.38708
1.37616
1.37026
1.36716
1.37103
1.38133
1.39034
1.3919
1.38804
1.38198
1.37526
1.36911
1.36304
1.35922
1.3632
1.37116
1.37256
1.36906
1.36471
1.35991
1.35511
1.3514
1.34892
1.34784
1.35008
1.35666
1.36422
1.36812
1.36886
1.36876
1.3684
1.36806
1.36853
1.37049
1.37363
1.377
1.38002
1.38258
1.38508
1.38801
1.39155
1.39598
1.40038
1.40253
1.40239
1.40069
1.39753
1.39439
1.39344
1.3934
1.39461
1.39691
1.39618
1.39357
1.38938
1.38285
1.37811
1.37667
1.37606
1.3769
1.37886
1.37967
1.3781
1.37552
1.37077
1.36247
1.35588
1.35382
1.35287
1.35247
1.35306
1.35294
1.35168
1.35038
1.3484
1.34538
1.34319
1.34286
1.34429
1.34787
1.3512
1.35221
1.35213
1.35147
1.35045
1.34922
1.34715
1.34378
1.33894
1.33394
1.33001
1.32739
1.32647
1.32858
1.33238
1.33477
1.33631
1.33646
1.33736
1.33945
1.3418
1.34395
1.34606
1.34867
1.35175
1.35531
1.35933
1.36333
1.36694
1.37017
1.37231
1.37157
1.3661
1.35703
1.35021
1.34879
1.35183
1.3562
1.36164
1.36692
1.37124
1.3746
1.37759
1.37957
1.37783
1.3726
1.36681
1.36113
1.35573
1.34997
1.34674
1.34774
1.34968
1.35083
1.35197
1.35133
1.34796
1.34479
1.34226
1.34083
1.34153
1.34255
1.34305
1.34389
1.34579
1.3485
1.34951
1.34643
1.3407
1.33493
1.3301
1.32782
1.32846
1.32967
1.33033
1.332
1.33497
1.33708
1.33683
1.33476
1.33113
1.32538
1.31859
1.31307
1.31359
1.32168
1.32821
1.32905
1.32625
1.32209
1.31731
1.31389
1.31204
1.31455
1.32126
1.32291
1.32065
1.31705
1.31158
1.30582
1.30331
1.30243
1.30316
1.30502
1.30502
1.30451
1.30328
1.30086
1.29966
1.30091
1.30313
1.30622
1.30822
1.30906
1.30877
1.30631
1.30082
1.29271
1.28484
1.28286
3.62106
2.8713
2.3696
1.95696
1.63984
1.50817
1.38028
1.25395
1.22573
1.23464
1.24507
1.27625
1.32707
1.37399
1.41998
1.45226
1.45965
1.45743
1.44506
1.43318
1.41704
1.40596
1.40226
1.40186
1.40437
1.41174
1.41777
1.41827
1.41468
1.4046
1.39089
1.38379
1.37935
1.37581
1.37677
1.38254
1.38512
1.38218
1.37735
1.37275
1.36906
1.36538
1.36146
1.3598
1.36502
1.37103
1.36993
1.36565
1.36096
1.35727
1.35499
1.35335
1.35168
1.35086
1.35376
1.36038
1.36524
1.36545
1.36432
1.36413
1.36519
1.36698
1.36922
1.37276
1.37724
1.38021
1.3814
1.3816
1.38173
1.38265
1.3844
1.38752
1.39273
1.39776
1.39885
1.39857
1.39655
1.39255
1.39005
1.38998
1.39129
1.3918
1.39101
1.38988
1.38786
1.38396
1.38002
1.37824
1.37727
1.37671
1.37696
1.37864
1.37938
1.378
1.37476
1.3692
1.36287
1.35958
1.35829
1.3576
1.35745
1.35676
1.3556
1.35436
1.35279
1.35067
1.34902
1.34832
1.34843
1.34954
1.35045
1.35065
1.35097
1.35113
1.35012
1.34766
1.34524
1.34303
1.34043
1.33719
1.33391
1.33194
1.3319
1.33354
1.33553
1.33764
1.33937
1.34009
1.34123
1.34317
1.34524
1.3468
1.34774
1.34841
1.34913
1.35014
1.35201
1.3551
1.35912
1.36333
1.36677
1.36819
1.36659
1.36334
1.36166
1.3612
1.36088
1.36216
1.36489
1.36758
1.36989
1.37203
1.37367
1.37335
1.37048
1.3673
1.36536
1.3635
1.36086
1.35742
1.35483
1.35302
1.35275
1.35401
1.35674
1.35912
1.35842
1.35584
1.35095
1.3465
1.34349
1.34131
1.33988
1.34017
1.34199
1.34354
1.34284
1.3402
1.33707
1.33427
1.33236
1.3317
1.33226
1.333
1.33423
1.33661
1.33874
1.33844
1.33567
1.3318
1.32772
1.32372
1.31954
1.31572
1.31535
1.32192
1.32875
1.329
1.32586
1.32221
1.31847
1.3153
1.31358
1.31513
1.31847
1.31799
1.31569
1.31196
1.30809
1.3066
1.30613
1.30662
1.30986
1.31162
1.31114
1.30941
1.30594
1.30102
1.29738
1.29724
1.29929
1.30231
1.30478
1.30662
1.30784
1.30744
1.30429
1.2986
1.29244
1.28772
3.90525
3.22639
2.71296
2.28259
1.93063
1.72626
1.55811
1.3732
1.27389
1.24419
1.2158
1.22691
1.27145
1.32978
1.37912
1.44037
1.47234
1.47135
1.46094
1.44214
1.42033
1.40388
1.40115
1.40285
1.41056
1.42204
1.42478
1.42397
1.4171
1.40334
1.39236
1.3876
1.38537
1.38613
1.38856
1.38771
1.38317
1.37765
1.36882
1.36274
1.36006
1.3583
1.35894
1.36518
1.37624
1.3807
1.37803
1.37295
1.36579
1.35776
1.35288
1.35025
1.34873
1.35066
1.35886
1.36828
1.37136
1.37026
1.36861
1.36711
1.36672
1.36686
1.3678
1.37133
1.37779
1.38176
1.38294
1.38339
1.38336
1.38319
1.38346
1.38412
1.38544
1.38825
1.3903
1.39079
1.3905
1.38969
1.39042
1.39254
1.39436
1.39435
1.39341
1.39149
1.38815
1.38431
1.38268
1.38254
1.38308
1.3835
1.38251
1.38122
1.37981
1.37738
1.37342
1.36841
1.36416
1.36188
1.36039
1.35883
1.35689
1.35462
1.35202
1.34905
1.34754
1.34754
1.34809
1.34937
1.35189
1.35527
1.35757
1.35812
1.35773
1.35586
1.3506
1.34128
1.33343
1.32935
1.3274
1.32718
1.32838
1.33157
1.33534
1.33757
1.33936
1.34063
1.34085
1.34159
1.34369
1.34674
1.35019
1.35335
1.35595
1.3576
1.35766
1.35609
1.35409
1.35307
1.35303
1.35274
1.35125
1.3498
1.35133
1.35546
1.35986
1.36418
1.36844
1.37295
1.37733
1.38064
1.38242
1.38202
1.37745
1.36713
1.35471
1.34844
1.34777
1.34957
1.35355
1.35926
1.364
1.3659
1.36608
1.36466
1.36156
1.35827
1.3565
1.35516
1.35423
1.35361
1.35245
1.35071
1.34889
1.3471
1.34355
1.33764
1.33139
1.32676
1.32476
1.32537
1.32835
1.33266
1.33695
1.34095
1.34484
1.34689
1.3443
1.3386
1.33182
1.32506
1.31969
1.31545
1.31391
1.31572
1.32119
1.32848
1.33113
1.32865
1.32517
1.32165
1.31953
1.31844
1.31948
1.32058
1.31895
1.31541
1.30938
1.30345
1.30155
1.30123
1.30154
1.30518
1.31221
1.3161
1.31757
1.31799
1.31582
1.31035
1.30359
1.29934
1.29708
1.2966
1.29722
1.29787
1.2981
1.29783
1.29766
1.29845
1.29915
1.29778
4.13343
3.51651
3.02699
2.59208
2.21909
1.98151
1.7821
1.57887
1.44157
1.38205
1.31246
1.26902
1.27754
1.3
1.32326
1.3579
1.39743
1.42701
1.44402
1.4521
1.4445
1.42692
1.42067
1.42054
1.42344
1.42402
1.42266
1.41998
1.41066
1.40154
1.39672
1.3935
1.39169
1.39495
1.39469
1.38883
1.38257
1.37421
1.36297
1.35769
1.35549
1.35474
1.35789
1.36765
1.37714
1.37884
1.3764
1.37199
1.36448
1.35666
1.3531
1.35116
1.35079
1.35554
1.36528
1.37072
1.37159
1.37039
1.36795
1.36574
1.36541
1.36574
1.36747
1.37256
1.37973
1.38234
1.38227
1.38144
1.37958
1.37765
1.37726
1.37749
1.37841
1.38172
1.38475
1.38566
1.38534
1.38516
1.38732
1.38933
1.39031
1.391
1.39076
1.38868
1.38508
1.38207
1.38151
1.38202
1.38319
1.38475
1.38597
1.38577
1.38464
1.38233
1.37832
1.37338
1.36958
1.3672
1.36529
1.3633
1.36106
1.3587
1.356
1.35245
1.34964
1.34901
1.34914
1.34967
1.35117
1.35318
1.35425
1.35435
1.35375
1.35158
1.34646
1.33914
1.33355
1.33067
1.32955
1.33012
1.33254
1.3352
1.33669
1.33773
1.33809
1.33732
1.3364
1.33736
1.34046
1.34443
1.34875
1.35259
1.35587
1.35816
1.3567
1.35251
1.34989
1.35014
1.35179
1.35321
1.35366
1.35418
1.3566
1.36018
1.36367
1.36684
1.37043
1.37426
1.37801
1.38117
1.38291
1.3815
1.37518
1.36456
1.35562
1.35228
1.35234
1.35325
1.35549
1.36
1.36419
1.36576
1.36564
1.36415
1.36046
1.35614
1.35396
1.35294
1.35222
1.35196
1.3516
1.35064
1.34913
1.34668
1.3429
1.33836
1.33368
1.32955
1.32749
1.32856
1.33197
1.33603
1.33961
1.3426
1.34462
1.34388
1.33983
1.33424
1.32843
1.32337
1.31919
1.31642
1.31777
1.32209
1.32678
1.32902
1.32749
1.32475
1.32173
1.31973
1.31919
1.32099
1.32334
1.32263
1.31914
1.31195
1.30425
1.30127
1.3008
1.30063
1.3019
1.30771
1.31484
1.31755
1.31849
1.319
1.31757
1.31217
1.30417
1.29925
1.29725
1.29731
1.29803
1.29847
1.29839
1.29831
1.29922
1.30036
1.30051
1.2989
4.32413
3.76703
3.29655
2.8779
2.50075
2.23884
2.0336
1.7972
1.643
1.54742
1.44989
1.33915
1.31222
1.30473
1.29369
1.30742
1.34133
1.37451
1.39073
1.41787
1.44228
1.45409
1.46076
1.46465
1.45662
1.44089
1.42519
1.40797
1.39652
1.39419
1.39406
1.39683
1.40212
1.40651
1.40411
1.39722
1.38782
1.37302
1.35956
1.35544
1.35342
1.35362
1.35928
1.36962
1.37538
1.37606
1.37428
1.36959
1.36209
1.35751
1.35582
1.3551
1.35791
1.36597
1.37251
1.37353
1.37297
1.371
1.36685
1.36514
1.36522
1.3663
1.37009
1.37747
1.38138
1.38116
1.37988
1.37725
1.37299
1.37003
1.36925
1.36961
1.37169
1.37667
1.38207
1.38385
1.38437
1.38445
1.38458
1.38461
1.38468
1.38511
1.3851
1.3843
1.38457
1.38582
1.38733
1.38897
1.39015
1.39074
1.39041
1.38855
1.38529
1.38141
1.37746
1.37373
1.37081
1.36918
1.36832
1.36756
1.36657
1.36488
1.36237
1.35897
1.35446
1.35067
1.34942
1.34859
1.34779
1.34714
1.34679
1.34655
1.34577
1.3434
1.33958
1.33711
1.33611
1.33574
1.33593
1.33686
1.33771
1.33787
1.33758
1.33662
1.33512
1.33409
1.3355
1.33867
1.343
1.34776
1.35143
1.3538
1.35519
1.35316
1.34708
1.3419
1.34166
1.34402
1.34661
1.34909
1.35207
1.35593
1.36005
1.36439
1.3687
1.37239
1.37531
1.37742
1.37903
1.37995
1.37835
1.37287
1.36414
1.35667
1.35404
1.35464
1.3559
1.35769
1.36119
1.36465
1.36574
1.36566
1.36442
1.36095
1.3582
1.35757
1.35743
1.35672
1.35581
1.35438
1.35172
1.34759
1.34319
1.33918
1.33564
1.33302
1.33177
1.33164
1.33325
1.33655
1.34007
1.34277
1.34437
1.34385
1.34067
1.33603
1.33052
1.32567
1.32248
1.32081
1.32078
1.32349
1.32822
1.33112
1.32992
1.32676
1.32296
1.31983
1.3182
1.31809
1.32077
1.3243
1.32454
1.32238
1.3153
1.3053
1.30065
1.3
1.29991
1.30077
1.30539
1.31341
1.31824
1.31958
1.32014
1.32003
1.31744
1.30933
1.29901
1.29443
1.29369
1.29433
1.29523
1.29646
1.29881
1.30118
1.30319
1.30434
1.30365
1.30062
4.47446
3.99067
3.53499
3.13985
2.78011
2.50187
2.27582
2.03934
1.86051
1.73808
1.62116
1.47985
1.42593
1.38192
1.32728
1.31113
1.31989
1.32864
1.33622
1.36155
1.40156
1.43458
1.46447
1.47973
1.47735
1.46472
1.44303
1.41541
1.39897
1.39498
1.39379
1.39592
1.40238
1.40733
1.40618
1.40075
1.39016
1.37475
1.36457
1.36077
1.35831
1.35858
1.36347
1.36863
1.37056
1.37057
1.36826
1.36168
1.35751
1.3572
1.35794
1.36076
1.36791
1.37603
1.37794
1.37752
1.37591
1.3711
1.36566
1.36419
1.36416
1.3657
1.37087
1.37773
1.37955
1.37918
1.37766
1.37405
1.36855
1.36509
1.3639
1.36358
1.36518
1.36995
1.37473
1.3769
1.37801
1.37756
1.37782
1.3791
1.38008
1.38139
1.38309
1.38535
1.38796
1.39006
1.39145
1.39224
1.39252
1.39173
1.3898
1.38683
1.38344
1.38069
1.37853
1.37716
1.37647
1.37652
1.37679
1.37592
1.37366
1.36931
1.36382
1.35823
1.35287
1.34887
1.34696
1.34613
1.34588
1.34581
1.34561
1.34507
1.34363
1.34065
1.33781
1.33672
1.3364
1.33662
1.33766
1.33815
1.33784
1.33723
1.33597
1.3342
1.33351
1.33454
1.33677
1.33974
1.34287
1.34511
1.34662
1.34753
1.34661
1.34321