/*--------------------------------*- C++ -*----------------------------------*\
  =========                 |
  \\      /  F ield         | OpenFOAM: The Open Source CFD Toolbox
   \\    /   O peration     | Website:  https://openfoam.org
    \\  /    A nd           | Version:  7
     \\/     M anipulation  |
\*---------------------------------------------------------------------------*/
FoamFile
{
    version     2.0;
    format      ascii;
    class       volScalarField;
    location    "2.2";
    object      T;
}
// * * * * * * * * * * * * * * * * * * * * * * * * * * * * * * * * * * * * * //

dimensions      [0 0 0 1 0 0 0];

internalField   nonuniform List<scalar> 
16192
(
2.66053
2.64154
2.6119
2.57508
2.53473
2.49222
2.44953
2.40487
2.36402
2.36001
2.37513
2.3761
2.37988
2.39968
2.43364
2.48906
2.54269
2.6062
2.65465
2.69797
2.72025
2.66018
2.64113
2.61127
2.57427
2.53392
2.49142
2.44881
2.40455
2.36399
2.35748
2.37144
2.37128
2.37382
2.39164
2.42439
2.47879
2.53553
2.59784
2.64591
2.6878
2.7108
2.66028
2.64188
2.61207
2.57471
2.53395
2.49105
2.44808
2.40398
2.36453
2.35492
2.36621
2.36618
2.36877
2.38657
2.41918
2.47178
2.52569
2.58563
2.63253
2.67278
2.69641
2.65948
2.64186
2.61267
2.57528
2.53446
2.49167
2.44901
2.40568
2.36846
2.35499
2.36242
2.36075
2.36308
2.38045
2.41264
2.46388
2.51663
2.57416
2.61975
2.65756
2.68123
2.65959
2.64309
2.61525
2.57801
2.53693
2.49413
2.45233
2.41079
2.3769
2.36063
2.36516
2.36342
2.36721
2.38366
2.41386
2.46034
2.51031
2.56407
2.60763
2.64247
2.66565
2.65803
2.64292
2.61738
2.58119
2.54024
2.49792
2.45778
2.41851
2.38754
2.36871
2.36938
2.3662
2.37116
2.3863
2.4145
2.45765
2.50423
2.55304
2.59346
2.62468
2.64666
2.65614
2.64268
2.61968
2.58533
2.54534
2.50357
2.46492
2.42801
2.40012
2.38044
2.37718
2.37193
2.37677
2.39021
2.41531
2.45401
2.49673
2.54003
2.57638
2.60387
2.62389
2.65207
2.63934
2.61889
2.58721
2.54919
2.50849
2.47107
2.4355
2.40873
2.38763
2.38148
2.37449
2.37828
2.3911
2.4139
2.44816
2.48746
2.52599
2.55823
2.58205
2.59985
2.6478
2.63362
2.61596
2.58768
2.5519
2.51277
2.47651
2.44204
2.41595
2.39431
2.38549
2.37695
2.37852
2.38806
2.40718
2.4381
2.47569
2.51093
2.53999
2.56015
2.57543
2.64318
2.6248
2.60808
2.58366
2.55134
2.51448
2.479
2.44545
2.41877
2.39546
2.38316
2.37353
2.37316
2.38082
2.39812
2.42701
2.46413
2.49639
2.52271
2.5385
2.55099
2.64156
2.61604
2.59623
2.57379
2.54589
2.51248
2.4798
2.44808
2.42135
2.39719
2.3815
2.36975
2.3658
2.37017
2.38533
2.41235
2.45023
2.48124
2.5068
2.51807
2.52793
2.64021
2.6089
2.58414
2.56003
2.53445
2.5053
2.47597
2.44619
2.4198
2.39549
2.37719
2.36307
2.35667
2.36049
2.37625
2.40265
2.44176
2.47169
2.49658
2.50239
2.51073
2.64098
2.60753
2.57553
2.54566
2.52023
2.49451
2.46793
2.4408
2.41556
2.3923
2.37328
2.35843
2.35123
2.35428
2.37019
2.3941
2.4332
2.46302
2.48923
2.48989
2.4961
2.63405
2.60481
2.56906
2.53477
2.50524
2.47858
2.45381
2.43027
2.40803
2.3874
2.3692
2.35517
2.34892
2.35241
2.36919
2.39267
2.43274
2.46301
2.48998
2.48604
2.49768
2.61455
2.5984
2.56666
2.53067
2.49653
2.46624
2.44011
2.4175
2.39649
2.37845
2.36299
2.35228
2.34899
2.35406
2.37185
2.39564
2.43753
2.47016
2.49865
2.49272
2.50412
2.59074
2.58183
2.55879
2.52577
2.49101
2.45758
2.42851
2.40432
2.38333
2.3675
2.35462
2.34773
2.34695
2.35392
2.37419
2.40055
2.44565
2.48151
2.51172
2.50418
2.51635
2.53345
2.54678
2.54128
2.51737
2.48733
2.45392
2.42381
2.39739
2.37478
2.35835
2.34628
2.34319
2.34487
2.3578
2.38265
2.413
2.46148
2.5005
2.53107
2.52206
2.53448
2.46466
2.50485
2.51012
2.49888
2.47781
2.4476
2.41968
2.39267
2.36966
2.35217
2.34003
2.33997
2.34324
2.36203
2.3916
2.42767
2.47991
2.52164
2.55293
2.54346
2.55645
2.36764
2.42199
2.45104
2.45939
2.45377
2.43381
2.4129
2.38795
2.36707
2.34952
2.33738
2.3383
2.34391
2.36912
2.40513
2.4478
2.50363
2.54795
2.57957
2.56895
2.58151
2.27554
2.33349
2.38079
2.40715
2.41426
2.40684
2.39527
2.37629
2.36042
2.34478
2.33454
2.33601
2.34474
2.37538
2.41784
2.46669
2.52635
2.5731
2.60501
2.5939
2.60726
2.20246
2.24373
2.28816
2.32457
2.34674
2.35526
2.35675
2.35023
2.34348
2.33371
2.32847
2.33132
2.34395
2.38025
2.42984
2.48612
2.55018
2.59967
2.63303
2.6216
2.63363
2.15461
2.17355
2.20406
2.2392
2.27003
2.29123
2.30314
2.30701
2.30952
2.3089
2.31137
2.31899
2.33704
2.37959
2.4366
2.50037
2.5689
2.62223
2.6581
2.64631
2.65864
2.1264
2.12898
2.13906
2.16058
2.18594
2.20905
2.22639
2.24005
2.25207
2.2625
2.27485
2.29235
2.31797
2.37055
2.43718
2.5085
2.58224
2.64128
2.68256
2.67197
2.68475
2.11201
2.10242
2.09854
2.10339
2.1145
2.13238
2.14999
2.16711
2.1828
2.20013
2.21927
2.24723
2.27932
2.34509
2.4258
2.50723
2.58766
2.65438
2.70316
2.69403
2.70981
2.11082
2.09163
2.07492
2.06635
2.06476
2.07057
2.07934
2.0921
2.10603
2.12462
2.146
2.17992
2.21882
2.29604
2.39392
2.49433
2.58537
2.66078
2.71786
2.71453
2.73648
2.11296
2.09126
2.06796
2.04993
2.03401
2.02842
2.02727
2.03132
2.03833
2.05284
2.07181
2.10399
2.14496
2.22613
2.33685
2.46114
2.56935
2.65741
2.72418
2.73262
2.76289
2.11845
2.09376
2.06841
2.04613
2.02157
2.00559
1.99436
1.9886
1.98609
1.99259
2.00479
2.02913
2.06521
2.14065
2.25709
2.4023
2.5324
2.64144
2.72247
2.74513
2.78655
2.12549
2.09928
2.07312
2.04849
2.0218
1.99782
1.9783
1.96623
1.95189
1.95061
1.95342
1.96752
1.99393
2.05626
2.16613
2.32403
2.4724
2.60552
2.70696
2.7493
2.80494
2.13196
2.10635
2.0779
2.05315
2.02536
1.9994
1.97473
1.95779
1.93736
1.92547
1.91987
1.9242
1.93892
1.98046
2.07644
2.23325
2.39395
2.54777
2.67172
2.74747
2.81278
2.13715
2.11284
2.08458
2.05931
2.0319
2.00361
1.9784
1.95876
1.9371
1.91644
1.9011
1.89709
1.90337
1.92636
2.00226
2.14534
2.30671
2.4707
2.61576
2.73107
2.81728
2.14125
2.1182
2.0914
2.06577
2.03956
2.01119
1.98187
1.9609
1.93878
1.91709
1.89788
1.88303
1.88349
1.89553
1.94414
2.0733
2.22644
2.38729
2.54272
2.69687
2.8087
2.14469
2.12267
2.09725
2.07213
2.04682
2.01947
1.98825
1.96556
1.94293
1.92
1.89887
1.88321
1.87312
1.87846
1.90633
2.01354
2.15653
2.30771
2.45868
2.63212
2.80813
2.14789
2.12659
2.1023
2.07793
2.05356
2.02754
1.99718
1.97242
1.94962
1.92629
1.90187
1.88528
1.86737
1.86949
1.8857
1.96347
2.10668
2.24259
2.3812
2.54132
2.61671
2.15103
2.1304
2.10701
2.08309
2.05983
2.03517
2.0062
1.98067
1.95784
1.93454
1.90691
1.88989
1.86819
1.86641
1.87447
1.92706
2.06138
2.19183
2.31084
2.44416
2.48246
2.15425
2.1342
2.11171
2.08814
2.0656
2.04233
2.0149
1.98909
1.96613
1.94365
1.91539
1.89504
1.87278
1.86497
1.86839
1.90338
2.02084
2.16189
2.25796
2.36634
2.36335
2.15704
2.13769
2.11637
2.09324
2.07089
2.04897
2.02311
1.99678
1.97404
1.95241
1.9249
1.90232
1.8809
1.86636
1.86694
1.88753
1.98223
2.1375
2.21726
2.30476
2.29044
2.15923
2.14064
2.12035
2.09803
2.07588
2.05459
2.03058
2.00406
1.98057
1.96052
1.93528
1.91003
1.88998
1.8716
1.86772
1.87853
1.95127
2.11424
2.1904
2.26308
2.24408
2.16079
2.14274
2.12342
2.10221
2.08022
2.05917
2.03685
2.01124
1.98645
1.96719
1.94505
1.91888
1.89812
1.87928
1.86998
1.87495
1.92643
2.08382
2.17516
2.23616
2.21472
2.16196
2.14435
2.12563
2.10551
2.08405
2.06285
2.04167
2.01784
1.99247
1.97259
1.95308
1.92844
1.90547
1.88715
1.8742
1.87535
1.90758
2.05129
2.16423
2.21792
2.19642
2.16304
2.14571
2.12741
2.10816
2.08742
2.06605
2.04566
2.02376
1.99872
1.97754
1.95969
1.93782
1.91289
1.8938
1.88031
1.87676
1.89488
2.0162
2.15319
2.20483
2.18548
2.16414
2.14704
2.12907
2.11036
2.09039
2.06933
2.04886
2.02873
2.00524
1.9826
1.96447
1.94593
1.92145
1.89948
1.88529
1.87913
1.88855
1.98085
2.14037
2.1958
2.17867
2.16528
2.14853
2.1308
2.1125
2.09317
2.07272
2.05215
2.03291
2.01153
1.98839
1.96836
1.95184
1.93048
1.90589
1.88945
1.88198
1.88602
1.94956
2.1224
2.19021
2.1758
2.16639
2.15008
2.13269
2.11471
2.0959
2.07622
2.05586
2.03644
2.01675
1.9946
1.97275
1.95562
1.93774
1.9139
1.89324
1.88449
1.88648
1.92554
2.09489
2.18561
2.1775
2.16724
2.15147
2.1346
2.11697
2.09863
2.0798
2.05975
2.03989
2.02101
2.00076
1.97771
1.95926
1.94374
1.92263
1.89851
1.88675
1.88709
1.90947
2.05852
2.1826
2.18059
2.16783
2.15259
2.1363
2.11916
2.10123
2.08299
2.06363
2.04362
2.0243
2.00559
1.98365
1.96304
1.94754
1.92999
1.90564
1.88844
1.88769
1.90006
2.01704
2.17914
2.18159
2.16818
2.15337
2.13761
2.121
2.10342
2.08566
2.06704
2.04706
2.02741
2.00948
1.9895
1.96737
1.95085
1.93588
1.91363
1.89175
1.88853
1.89503
1.97782
2.16833
2.18236
2.16837
2.15392
2.13857
2.12246
2.10526
2.08763
2.06973
2.05046
2.03052
2.01242
1.99442
1.97314
1.95419
1.93977
1.92125
1.89706
1.88882
1.89155
1.94489
2.14401
2.18228
2.16841
2.15431
2.13927
2.12356
2.10674
2.08926
2.07181
2.05344
2.0336
2.01521
1.99818
1.97864
1.95813
1.94289
1.92699
1.90367
1.88974
1.8904
1.921
2.10797
2.17992
2.16834
2.15456
2.13979
2.12442
2.10806
2.09077
2.07354
2.05603
2.03698
2.01798
2.00116
1.98357
1.96312
1.94581
1.93152
1.91135
1.89043
1.89048
1.90645
2.06321
2.17231
2.1681
2.15458
2.14016
2.12512
2.10925
2.09233
2.07533
2.05831
2.04022
2.02121
2.00381
1.98731
1.96827
1.9496
1.93472
1.91799
1.89416
1.89006
1.89806
2.01556
2.16081
2.16762
2.15446
2.14041
2.12573
2.11039
2.09399
2.07725
2.06051
2.04336
2.02474
2.00662
1.99068
1.97318
1.95414
1.93794
1.92303
1.9006
1.89009
1.89286
1.9717
2.1469
2.16681
2.15405
2.14042
2.1262
2.11139
2.0956
2.07933
2.06265
2.04616
2.02844
2.01003
1.99367
1.97757
1.95926
1.94154
1.92697
1.90698
1.89091
1.89113
1.93809
2.12602
2.16575
2.15339
2.14029
2.12655
2.11225
2.097
2.08134
2.06478
2.04872
2.03188
2.01377
1.99683
1.98137
1.96429
1.94561
1.93026
1.91295
1.89266
1.89058
1.9165
2.09441
2.1645
2.15258
2.13996
2.1267
2.11289
2.09805
2.083
2.06679
2.05081
2.03491
2.01751
2.00008
1.98449
1.96863
1.9503
1.93343
1.91758
1.89665
1.89002
1.90362
2.05287
2.16306
2.15163
2.13947
2.12664
2.1133
2.09879
2.08419
2.06854
2.05267
2.03722
2.02085
2.0033
1.98729
1.97199
1.95474
1.93704
1.92159
1.90165
1.89044
1.89569
2.00777
2.16151
2.15058
2.13886
2.12641
2.11349
2.09931
2.08498
2.07001
2.05426
2.039
2.02349
2.00639
1.98966
1.97476
1.95885
1.94076
1.9255
1.90683
1.8919
1.89334
1.96707
2.15976
2.14934
2.13805
2.12598
2.11338
2.09969
2.08553
2.07115
2.05573
2.04053
2.02544
2.00918
1.9921
1.97697
1.96219
1.94501
1.92912
1.91209
1.89421
1.8926
1.9363
2.15793
2.14792
2.13705
2.12533
2.11308
2.09994
2.08603
2.07211
2.05713
2.04201
2.02704
2.01169
1.99462
1.97927
1.96481
1.94931
1.93309
1.91705
1.89765
1.89218
1.91628
2.15592
2.14625
2.13576
2.12446
2.1125
2.09992
2.08642
2.07288
2.05838
2.04355
2.02851
2.01385
1.99724
1.98178
1.96731
1.95303
1.93712
1.92176
1.90237
1.89234
1.90463
2.15384
2.14445
2.1343
2.1234
2.11176
2.09974
2.08669
2.07348
2.05944
2.04502
2.03005
2.01574
2.00001
1.9846
1.96962
1.9566
1.94125
1.92618
1.90734
1.89345
1.89772
2.15155
2.14245
2.1326
2.12212
2.1108
2.09927
2.08667
2.07379
2.06023
2.04622
2.03163
2.01742
2.00235
1.9876
1.97242
1.95918
1.94501
1.93039
1.91209
1.8951
1.89554
2.14918
2.14037
2.13084
2.12072
2.10975
2.09859
2.08647
2.07384
2.06077
2.04708
2.03292
2.019
2.00454
1.99007
1.97526
1.96148
1.94827
1.93405
1.91665
1.89736
1.89399
2.14655
2.13807
2.12889
2.11911
2.1085
2.09768
2.08599
2.07364
2.061
2.04763
2.03388
2.02016
2.00628
1.99213
1.97799
1.96352
1.95056
1.93701
1.92127
1.8997
1.89276
2.14382
2.13567
2.12685
2.11742
2.10717
2.09666
2.08535
2.07329
2.06097
2.04799
2.03454
2.02111
2.00779
1.99367
1.98001
1.96574
1.95231
1.93902
1.92532
1.90323
1.89197
2.14087
2.13305
2.12459
2.11552
2.10567
2.09548
2.08451
2.07276
2.06075
2.04814
2.03508
2.02171
2.00885
1.99519
1.98142
1.96766
1.95392
1.94037
1.9285
1.90876
1.89145
2.13785
2.13034
2.12224
2.11352
2.10407
2.09418
2.08355
2.07217
2.06043
2.04814
2.03551
2.02244
2.00965
1.99646
1.9827
1.96914
1.95586
1.94194
1.93013
1.91453
1.89538
2.13471
2.12749
2.11971
2.11134
2.10228
2.09271
2.08238
2.07141
2.06
2.04803
2.03584
2.02308
2.01037
1.99747
1.98409
1.97042
1.95715
1.94425
1.93201
1.91834
1.90152
2.13148
2.12455
2.11709
2.10903
2.10034
2.09105
2.08105
2.07049
2.05947
2.0478
2.03603
2.02371
2.01111
1.99827
1.98512
1.97209
1.95865
1.94634
1.93458
1.9225
1.9061
2.12817
2.12151
2.11433
2.10657
2.0982
2.08922
2.07951
2.06938
2.05875
2.04747
2.03602
2.02392
2.0116
1.99902
1.98605
1.97349
1.96062
1.94853
1.93757
1.92653
1.91199
2.12476
2.11832
2.11142
2.10393
2.09589
2.08719
2.07784
2.06808
2.05785
2.04687
2.0358
2.02393
2.01178
1.99948
1.98695
1.97496
1.96292
1.95117
1.94055
1.93
1.91674
2.12133
2.11507
2.1084
2.10119
2.09344
2.08505
2.07604
2.06662
2.05671
2.04605
2.03522
2.02366
2.01175
1.99989
1.98798
1.9765
1.9653
1.95409
1.94355
1.93278
1.91976
2.1178
2.11169
2.10523
2.09827
2.09083
2.08275
2.0741
2.06497
2.05531
2.04491
2.03431
2.0231
2.01166
2.0003
1.98918
1.97838
1.96785
1.95663
1.94607
1.93459
1.92257
2.11431
2.10831
2.10201
2.09529
2.08815
2.08036
2.07202
2.06314
2.05367
2.04357
2.03324
2.02245
2.01168
2.00109
1.99067
1.98036
1.97004
1.95901
1.94761
1.93581
1.92349
2.11078
2.10487
2.09872
2.09219
2.0853
2.07777
2.0697
2.06107
2.0518
2.04203
2.03214
2.02201
2.01202
2.00221
1.99234
1.98232
1.97174
1.96049
1.94827
1.9364
1.92341
2.10734
2.10151
2.09545
2.08906
2.08236
2.07503
2.06718
2.05878
2.04984
2.04052
2.03128
2.02202
2.01281
2.00356
1.99396
1.98365
1.97264
1.96081
1.9484
1.93603
1.92302
2.10391
2.09817
2.09218
2.08586
2.07927
2.07208
2.06444
2.05636
2.04789
2.03927
2.03077
2.02227
2.01373
2.0047
1.99484
1.98388
1.97235
1.96017
1.94793
1.93534
1.92309
2.10051
2.09487
2.08893
2.08265
2.07611
2.06902
2.06163
2.05402
2.04624
2.03845
2.03068
2.02275
2.01425
2.00472
1.99447
1.98328
1.97131
1.95912
1.94694
1.9348
1.92306
2.09706
2.09152
2.08563
2.07939
2.0729
2.06598
2.05898
2.05198
2.04505
2.03812
2.03077
2.02268
2.0139
2.00396
1.99319
1.9818
1.96982
1.95771
1.94582
1.93443
1.92288
2.09346
2.08803
2.08221
2.07608
2.06976
2.06318
2.05677
2.05054
2.04435
2.03775
2.0304
2.02198
2.01256
2.00217
1.99111
1.97964
1.968
1.95635
1.94484
1.93401
1.92284
2.08968
2.08436
2.07867
2.07279
2.0669
2.06095
2.05533
2.0497
2.04367
2.03696
2.02914
2.02016
2.01033
1.99962
1.98851
1.97731
1.96621
1.95516
1.9441
1.93363
1.92325
2.08566
2.08046
2.07505
2.06969
2.06451
2.0594
2.05441
2.04893
2.04255
2.03515
2.02676
2.01733
2.00725
1.99668
1.98591
1.97513
1.96457
1.95415
1.94376
1.93357
1.92354
2.0815
2.07653
2.07165
2.06712
2.06284
2.05843
2.05359
2.0476
2.04049
2.03239
2.02339
2.01376
2.00391
1.99381
1.98349
1.97325
1.9634
1.95355
1.94367
1.93365
1.92384
2.07739
2.07284
2.06883
2.06523
2.06156
2.05719
2.05182
2.04514
2.0373
2.02865
2.0195
2.01004
2.00052
1.99104
1.98156
1.972
1.96259
1.95312
1.94348
1.93368
1.92389
2.07381
2.06997
2.06693
2.06387
2.06002
2.05504
2.0488
2.04139
2.03324
2.02454
2.01547
2.00635
1.99751
1.98887
1.98014
1.97111
1.96206
1.95274
1.94314
1.93351
1.92391
2.07123
2.06812
2.06538
2.06195
2.05731
2.05136
2.04444
2.03676
2.02863
2.02017
2.01164
2.00328
1.99515
1.98713
1.97901
1.9704
1.96141
1.95212
1.94257
1.93309
1.92386
2.07018
2.06708
2.0635
2.05887
2.05314
2.04649
2.03925
2.03157
2.02387
2.01616
2.00846
2.00087
1.99345
1.98589
1.97798
1.96951
1.96058
1.95133
1.94187
1.93261
1.92376
2.06954
2.06538
2.06028
2.05433
2.04776
2.04078
2.03361
2.0264
2.01947
2.01261
2.00581
1.99905
1.99202
1.98452
1.97664
1.96829
1.95948
1.95044
1.94119
1.93213
1.92349
2.06813
2.06231
2.05576
2.04887
2.04188
2.03499
2.02824
2.02168
2.01565
2.00982
2.00378
1.9974
1.99047
1.98288
1.97493
1.96678
1.95832
1.94963
1.94071
1.93187
1.92331
2.06491
2.05775
2.05039
2.04313
2.03616
2.02961
2.02348
2.01786
2.01269
2.00741
2.0017
1.9955
1.98855
1.98086
1.97294
1.96505
1.95702
1.94883
1.94039
1.93173
1.9231
2.06007
2.0524
2.04485
2.03763
2.03104
2.0252
2.01988
2.01491
2.0101
2.00499
1.99934
1.99316
1.98631
1.97872
1.97092
1.96334
1.95575
1.948
1.93997
1.93156
1.92286
2.05441
2.04684
2.03959
2.03303
2.02734
2.02225
2.01738
2.01254
2.00754
2.00216
1.99646
1.99045
1.98389
1.97663
1.96913
1.96176
1.95438
1.94689
1.93923
1.93111
1.9224
2.04853
2.04159
2.03533
2.02983
2.02495
2.02022
2.0153
2.01014
2.00473
1.99906
1.99328
1.98748
1.98132
1.97455
1.96742
1.96024
1.95294
1.94552
1.93805
1.93022
1.9217
2.04323
2.03759
2.03267
2.02807
2.02337
2.01834
2.01302
2.00754
2.00189
1.99606
1.99026
1.98458
1.97868
1.97232
1.96563
1.95865
1.95135
1.94391
1.93654
1.92893
1.9207
2.03924
2.03503
2.03098
2.02649
2.02145
2.01599
2.01039
2.00483
1.9992
1.99338
1.98756
1.98181
1.97588
1.96976
1.96343
1.95671
1.94957
1.94218
1.93482
1.92737
1.91949
2.08051
1.84839
1.76082
1.76174
1.80593
1.84165
1.87726
1.9221
1.95148
1.95332
1.95377
1.95198
1.9501
1.94289
1.93197
1.92319
1.92232
1.9255
1.92898
1.92895
1.92473
1.91849
1.91077
1.90354
1.89572
1.88657
1.88121
1.87946
1.87657
1.87228
1.86671
1.85951
1.85352
1.84983
1.8466
1.84343
1.83949
1.8356
1.83327
1.83023
1.82563
1.82032
1.81378
1.80706
1.80194
1.79907
1.79734
1.79539
1.79236
1.78811
1.78382
1.78059
1.77818
1.77586
1.77327
1.7703
1.76736
1.76519
1.76388
1.76297
1.76208
1.76132
1.7613
1.76171
1.76213
1.76189
1.76066
1.75899
1.75728
1.75581
1.75523
1.75571
1.75846
1.7611
1.76126
1.76013
1.75783
1.75505
1.7524
1.75049
1.74908
1.7483
1.74824
1.74706
1.74485
1.74256
1.73989
1.73728
1.73542
1.73384
1.73234
1.73131
1.7305
1.72964
1.72896
1.72824
1.7277
1.7274
1.72729
1.72743
1.7279
1.72848
1.7288
1.72864
1.72792
1.7275
1.72721
1.72648
1.7249
1.72296
1.72113
1.7197
1.71894
1.71883
1.71924
1.72045
1.72275
1.72632
1.73101
1.73592
1.73944
1.74161
1.74272
1.74231
1.73897
1.73748
1.7381
1.74035
1.74319
1.74601
1.74883
1.75172
1.75473
1.75796
1.76146
1.76523
1.76936
1.77405
1.77872
1.78328
1.78751
1.7909
1.79336
1.79363
1.79193
1.79089
1.79222
1.79592
1.79934
1.80219
1.80504
1.80797
1.81052
1.8124
1.814
1.81633
1.81892
1.82128
1.82241
1.82228
1.81961
1.81252
1.80705
1.80512
1.80337
1.80205
1.80213
1.80238
1.79987
1.79455
1.7876
1.78037
1.77415
1.76783
1.76182
1.75764
1.7555
1.75406
1.7522
1.74902
1.74388
1.73628
1.72665
1.71686
1.70881
1.70217
1.69771
1.69546
1.69416
1.69274
1.69084
1.68898
1.68787
1.68651
1.68255
1.67602
1.67012
1.66588
1.66277
1.66039
1.65918
1.658
1.65662
1.6559
1.65603
1.65674
1.65643
1.65486
1.65383
1.65311
1.65243
1.65161
1.65051
1.64978
1.64942
1.64914
1.64873
1.64838
1.6486
1.6504
1.65335
1.65657
1.66049
1.66461
1.66802
1.67123
1.67411
1.67567
1.67585
1.67603
2.20948
2.05557
1.95151
1.86896
1.84194
1.8089
1.80152
1.82347
1.8499
1.86788
1.88133
1.88874
1.89726
1.90082
1.89792
1.89441
1.89636
1.90313
1.90523
1.90384
1.89957
1.89297
1.88823
1.88403
1.87841
1.8721
1.86797
1.86418
1.86067
1.85696
1.85202
1.84591
1.84055
1.83739
1.83522
1.83214
1.82741
1.82239
1.81803
1.81372
1.80982
1.80595
1.80126
1.79674
1.79413
1.79275
1.79014
1.78632
1.78178
1.77639
1.77145
1.7686
1.76695
1.76565
1.76422
1.76264
1.76106
1.75926
1.75714
1.75519
1.7535
1.75181
1.75093
1.75107
1.7519
1.75258
1.75256
1.75182
1.75023
1.74853
1.74763
1.74766
1.74869
1.75027
1.75056
1.74989
1.74835
1.74661
1.74498
1.74362
1.7426
1.74224
1.74173
1.74018
1.73845
1.73657
1.73479
1.73348
1.73216
1.73078
1.7293
1.72763
1.72608
1.72471
1.72317
1.72133
1.72034
1.71999
1.71984
1.71989
1.72013
1.72043
1.72067
1.72058
1.72001
1.71987
1.71989
1.72005
1.72043
1.72084
1.72083
1.72011
1.71872
1.71734
1.71667
1.71674
1.71773
1.71998
1.72303
1.72592
1.72859
1.73106
1.73279
1.73355
1.73416
1.73483
1.73584
1.73769
1.74033
1.74328
1.74616
1.74896
1.75183
1.75488
1.75819
1.76177
1.76566
1.76969
1.77371
1.77801
1.78191
1.78516
1.78709
1.78724
1.78682
1.787
1.78979
1.79392
1.79747
1.80047
1.80328
1.80579
1.80798
1.80967
1.81074
1.81178
1.8133
1.81462
1.81511
1.81495
1.81338
1.81039
1.80747
1.80458
1.80174
1.79903
1.79719
1.79598
1.79396
1.79029
1.78551
1.7803
1.77451
1.76805
1.76162
1.75628
1.75232
1.74907
1.74534
1.7407
1.73533
1.72931
1.72308
1.71633
1.70952
1.70367
1.69924
1.69588
1.69286
1.68966
1.68625
1.68277
1.67916
1.67635
1.67447
1.67309
1.67004
1.66597
1.66221
1.65914
1.65656
1.6544
1.65318
1.65292
1.65332
1.65359
1.65231
1.65041
1.64874
1.64758
1.64705
1.64687
1.64735
1.64763
1.64789
1.64822
1.64834
1.64835
1.64854
1.64982
1.65231
1.65521
1.65838
1.66151
1.66466
1.66766
1.67006
1.67148
1.67247
1.67422
2.18307
2.04524
1.94188
1.84595
1.77727
1.74465
1.71165
1.71361
1.73355
1.75626
1.77762
1.79657
1.81434
1.82753
1.83049
1.83329
1.84076
1.84565
1.84547
1.84233
1.83471
1.82762
1.82594
1.82577
1.82626
1.82805
1.82945
1.82782
1.82336
1.81693
1.8088
1.80167
1.79642
1.79297
1.79265
1.79318
1.7932
1.79096
1.7866
1.78197
1.77736
1.77216
1.76623
1.76176
1.76118
1.76174
1.7609
1.75719
1.75279
1.7482
1.74381
1.74026
1.73749
1.7354
1.73396
1.73353
1.73367
1.73335
1.7322
1.73088
1.72928
1.72721
1.7253
1.72443
1.72442
1.7247
1.72488
1.72472
1.72439
1.72432
1.7246
1.72543
1.72621
1.72624
1.72576
1.72448
1.72272
1.72111
1.72038
1.7201
1.72023
1.72083
1.72038
1.71895
1.71693
1.71437
1.71265
1.71195
1.71148
1.71151
1.71169
1.71165
1.71068
1.7095
1.7077
1.70467
1.70222
1.70146
1.70111
1.70096
1.70114
1.70104
1.70052
1.70004
1.69946
1.69876
1.6985
1.69888
1.70025
1.70236
1.7041
1.70486
1.70516
1.70546
1.7058
1.70614
1.70634
1.70626
1.70569
1.70536
1.7056
1.70645
1.70777
1.71029
1.71333
1.71576
1.71801
1.72018
1.72286
1.72607
1.72935
1.73248
1.73552
1.73879
1.74237
1.7464
1.75092
1.7557
1.76038
1.76488
1.76856
1.7704
1.77048
1.76959
1.76914
1.77026
1.77394
1.77804
1.78216
1.78619
1.78984
1.79317
1.79648
1.79938
1.80081
1.80091
1.80032
1.79906
1.79759
1.7956
1.79417
1.79421
1.79402
1.79305
1.79162
1.78924
1.78519
1.78129
1.77788
1.77473
1.77189
1.76852
1.76425
1.75945
1.75467
1.75029
1.74578
1.74014
1.73355
1.72728
1.72133
1.71599
1.71102
1.70588
1.70065
1.69645
1.69345
1.6907
1.68734
1.68331
1.67845
1.67246
1.66624
1.66109
1.65921
1.6593
1.65911
1.65748
1.65433
1.65109
1.64808
1.64559
1.64385
1.64377
1.64485
1.64492
1.64319
1.64112
1.63895
1.637
1.63631
1.6362
1.6367
1.63792
1.63855
1.63926
1.63994
1.64031
1.64099
1.643
1.64593
1.6493
1.65225
1.65496
1.65748
1.65932
1.66024
1.6605
1.66079
1.66346
2.1518
2.04198
1.95264
1.86594
1.78707
1.74869
1.71161
1.67588
1.66805
1.66628
1.66734
1.67958
1.70413
1.72834
1.74664
1.75784
1.76484
1.76554
1.76385
1.76142
1.75648
1.75411
1.75413
1.75472
1.75656
1.75913
1.7602
1.75976
1.75727
1.75246
1.7464
1.74231
1.73921
1.73643
1.73545
1.73515
1.73388
1.73037
1.72637
1.72312
1.72019
1.71684
1.713
1.71058
1.71058
1.71092
1.70911
1.70504
1.70112
1.69776
1.69509
1.69302
1.69112
1.68947
1.68864
1.68862
1.68845
1.68696
1.68504
1.68382
1.68291
1.68184
1.68101
1.681
1.68163
1.68198
1.68175
1.68088
1.67993
1.67962
1.67968
1.68023
1.68152
1.68282
1.68294
1.68267
1.68174
1.68033
1.67951
1.67948
1.67994
1.68016
1.67992
1.67955
1.67892
1.67778
1.67664
1.67618
1.67596
1.67582
1.67594
1.67649
1.67663
1.67602
1.67477
1.6728
1.67062
1.66957
1.66921
1.66907
1.66914
1.66912
1.66906
1.669
1.66887
1.66862
1.66857
1.66886
1.66956
1.67071
1.67179
1.67259
1.67352
1.67436
1.67467
1.67457
1.67457
1.67473
1.67508
1.67546
1.67581
1.67645
1.67769
1.67952
1.68151
1.68383
1.68637
1.68896
1.69191
1.69525
1.69856
1.70155
1.70419
1.7067
1.70933
1.71232
1.71592
1.72025
1.72521
1.73029
1.73483
1.73829
1.74052
1.74177
1.74318
1.74525
1.74754
1.75032
1.75377
1.75716
1.7603
1.76331
1.76609
1.76813
1.76938
1.77049
1.77166
1.77208
1.77174
1.77042
1.76898
1.76762
1.76688
1.76646
1.7662
1.76581
1.76434
1.76164
1.75778
1.7537
1.74977
1.74571
1.74135
1.737
1.73269
1.7281
1.7229
1.71739
1.71212
1.70713
1.70225
1.69742
1.69259
1.68769
1.68315
1.67939
1.67592
1.67196
1.6673
1.6623
1.65726
1.6523
1.64731
1.64253
1.63931
1.63856
1.63839
1.63671
1.63339
1.63058
1.62826
1.62623
1.62487
1.62482
1.62515
1.62451
1.62299
1.62139
1.62015
1.61982
1.61979
1.62012
1.62168
1.62297
1.62349
1.62394
1.62402
1.62377
1.62378
1.62508
1.62778
1.63099
1.63401
1.63698
1.63997
1.64254
1.64425
1.64509
1.64582
1.64744
2.13264
2.04128
1.96083
1.88204
1.8061
1.75598
1.71056
1.65777
1.62723
1.61465
1.60435
1.6095
1.62801
1.65136
1.67022
1.69023
1.70271
1.70398
1.70234
1.6979
1.69185
1.68753
1.68793
1.68912
1.69257
1.69647
1.69674
1.69603
1.69286
1.6876
1.68325
1.68064
1.67896
1.67855
1.67825
1.67642
1.67281
1.66911
1.66453
1.66102
1.65886
1.65715
1.65644
1.6568
1.65857
1.65887
1.6563
1.65232
1.64835
1.64433
1.64129
1.63917
1.63768
1.63748
1.63856
1.64003
1.63974
1.6377
1.63554
1.63399
1.63301
1.63191
1.63098
1.63099
1.6323
1.63318
1.63308
1.63249
1.63159
1.63089
1.6307
1.63072
1.63093
1.63168
1.63221
1.63244
1.63244
1.63239
1.63284
1.63376
1.63455
1.63469
1.63467
1.63451
1.63389
1.63302
1.63285
1.6331
1.63369
1.63407
1.63398
1.63384
1.63359
1.63286
1.6315
1.62985
1.62855
1.62798
1.62767
1.62734
1.62694
1.62652
1.62609
1.6256
1.62553
1.62588
1.62661
1.6277
1.62922
1.6311
1.63271
1.63366
1.63432
1.63447
1.63359
1.63105
1.62911
1.62855
1.62865
1.62948
1.63105
1.6333
1.63565
1.63757
1.6395
1.64151
1.64355
1.64606
1.64922
1.65286
1.65656
1.65998
1.66303
1.66559
1.66768
1.66947
1.67137
1.67398
1.67734
1.68081
1.68378
1.68645
1.6897
1.69381
1.69773
1.70162
1.70559
1.70975
1.71387
1.71747
1.72026
1.72213
1.72262
1.72159
1.7195
1.71922
1.7205
1.72261
1.72474
1.72677
1.7282
1.72855
1.72833
1.72715
1.72541
1.72392
1.72287
1.72162
1.72014
1.71834
1.71584
1.71258
1.70876
1.70443
1.69906
1.69244
1.68577
1.67998
1.67535
1.67161
1.6687
1.66619
1.66356
1.66067
1.65765
1.65409
1.6491
1.6429
1.63676
1.63098
1.62575
1.62093
1.61701
1.61398
1.61241
1.61183
1.61058
1.60754
1.60441
1.60216
1.60075
1.59988
1.5999
1.59988
1.59883
1.59716
1.59492
1.59293
1.59238
1.59237
1.59259
1.59421
1.59726
1.59947
1.6009
1.60199
1.60239
1.60204
1.60113
1.60108
1.60178
1.60342
1.60566
1.608
1.61025
1.6124
1.61471
1.61754
1.62062
1.62333
2.12329
2.04308
1.97198
1.90019
1.82886
1.77804
1.72922
1.67621
1.63876
1.622
1.59851
1.58738
1.5912
1.59898
1.60631
1.61726
1.63102
1.64232
1.64934
1.65416
1.65203
1.64679
1.64565
1.64583
1.64677
1.64679
1.6459
1.64412
1.63994
1.63642
1.63451
1.6328
1.63134
1.63159
1.63074
1.62717
1.62363
1.6198
1.61478
1.61147
1.60971
1.60899
1.6093
1.61091
1.61233
1.61189
1.60931
1.60601
1.60261
1.59921
1.59677
1.59494
1.5941
1.59464
1.59668
1.59733
1.59645
1.59434
1.59204
1.59051
1.5898
1.58905
1.58858
1.58904
1.59069
1.59109
1.59061
1.58961
1.58823
1.58701
1.58664
1.58663
1.58675
1.58762
1.58846
1.58891
1.58897
1.58907
1.59005
1.59087
1.59137
1.59192
1.59216
1.59204
1.59144
1.59087
1.59094
1.59151
1.59236
1.59322
1.594
1.59415
1.59411
1.59363
1.59237
1.59084
1.58986
1.58936
1.58899
1.58858
1.58811
1.58764
1.58713
1.5864
1.58597
1.5861
1.58655
1.58719
1.58821
1.58943
1.59041
1.59105
1.59148
1.59148
1.59054
1.58865
1.58743
1.58713
1.58725
1.58812
1.58983
1.59154
1.59291
1.59416
1.59536
1.59649
1.59784
1.59995
1.60314
1.60661
1.61007
1.61325
1.61615
1.61859
1.61965
1.62016
1.62125
1.62378
1.62719
1.63064
1.63381
1.63686
1.64031
1.64409
1.6476
1.65094
1.65448
1.65813
1.66164
1.66479
1.66722
1.6685
1.66852
1.66721
1.66615
1.66665
1.66845
1.67016
1.67183
1.67371
1.67515
1.67559
1.67542
1.67461
1.67329
1.6721
1.67158
1.67124
1.67063
1.66972
1.66809
1.66562
1.66258
1.65896
1.65455
1.64964
1.64456
1.63972
1.63581
1.63289
1.63079
1.62896
1.62694
1.62454
1.62166
1.61787
1.61279
1.6072
1.60196
1.59716
1.59273
1.58893
1.58636
1.58458
1.58303
1.58105
1.57823
1.5752
1.5728
1.57138
1.57081
1.57107
1.57158
1.57118
1.56976
1.5673
1.5648
1.56392
1.56387
1.56391
1.5646
1.56707
1.57017
1.57192
1.57298
1.57392
1.57434
1.57383
1.57233
1.57186
1.57224
1.57372
1.57567
1.5775
1.57916
1.5809
1.58313
1.5857
1.58818
1.59029
2.12298
2.05108
1.985
1.91957
1.85305
1.80274
1.75962
1.70366
1.66461
1.63872
1.60975
1.57574
1.56953
1.56864
1.56429
1.56899
1.5805
1.59174
1.59781
1.6075
1.61569
1.62021
1.62316
1.6244
1.62166
1.61632
1.61103
1.60474
1.59955
1.59804
1.59786
1.5984
1.59913
1.59954
1.59809
1.59439
1.59021
1.58486
1.57952
1.5767
1.57504
1.57478
1.57575
1.57781
1.57835
1.57759
1.57542
1.57239
1.56941
1.56731
1.56571
1.56443
1.56434
1.56575
1.56719
1.56692
1.56563
1.5635
1.56087
1.5596
1.55911
1.55877
1.559
1.56043
1.56111
1.56066
1.55943
1.55784
1.55605
1.55463
1.55409
1.55412
1.55456
1.55591
1.55748
1.55808
1.55837
1.55851
1.55865
1.55874
1.55888
1.55927
1.55961
1.55977
1.56017
1.5609
1.56162
1.56245
1.56321
1.56371
1.56375
1.56345
1.56271
1.56164
1.56045
1.55942
1.55878
1.55861
1.55859
1.55855
1.55842
1.55809
1.55756
1.55681
1.55566
1.5547
1.55457
1.55454
1.55457
1.55472
1.55505
1.55544
1.5556
1.55536
1.55459
1.55427
1.55438
1.55478
1.55532
1.55612
1.55688
1.55742
1.5579
1.55821
1.55846
1.55897
1.5606
1.56322
1.5662
1.56923
1.57186
1.57398
1.57559
1.57599
1.57557
1.57517
1.5761
1.57876
1.58163
1.58443
1.58752
1.591
1.59453
1.598
1.6013
1.6043
1.60703
1.60949
1.6118
1.61375
1.61459
1.61449
1.61345
1.61261
1.61309
1.61499
1.61708
1.61903
1.62112
1.62266
1.62322
1.62328
1.62301
1.62204
1.62158
1.62184
1.6223
1.62233
1.62213
1.62125
1.61921
1.61609
1.61268
1.6093
1.60592
1.60283
1.60017
1.59781
1.59614
1.59503
1.59396
1.5925
1.59057
1.588
1.58433
1.58001
1.57548
1.57125
1.56768
1.56475
1.56242
1.56104
1.56012
1.55866
1.55596
1.55246
1.54912
1.54658
1.54501
1.54447
1.54476
1.5456
1.54561
1.54479
1.54252
1.53941
1.53804
1.53796
1.53804
1.53859
1.54048
1.54357
1.54575
1.54676
1.54745
1.54795
1.54784
1.54606
1.54335
1.54263
1.54299
1.54423
1.54573
1.54734
1.54939
1.55153
1.55369
1.55558
1.55706
1.55799
2.12527
2.06352
2.00052
1.9408
1.88123
1.8319
1.78839
1.73758
1.6964
1.66636
1.63524
1.59422
1.57955
1.56727
1.55025
1.54714
1.54991
1.55205
1.55409
1.56179
1.57504
1.58664
1.59693
1.60245
1.60171
1.59752
1.59044
1.5813
1.57544
1.57332
1.57218
1.57253
1.57378
1.57453
1.57357
1.57054
1.56619
1.56096
1.55716
1.55496
1.55314
1.55277
1.55346
1.55407
1.5539
1.55291
1.55076
1.5475
1.54575
1.54529
1.54487
1.54471
1.54556
1.54728
1.54749
1.54691
1.54554
1.54307
1.54022
1.53888
1.53844
1.53841
1.53939
1.54095
1.541
1.54033
1.53901
1.53729
1.53535
1.534
1.53332
1.53305
1.53337
1.53466
1.53603
1.53661
1.53695
1.53684
1.53694
1.53737
1.53774
1.5383
1.53908
1.54004
1.54101
1.54179
1.54237
1.54285
1.54312
1.54304
1.54266
1.54195
1.54107
1.54034
1.53974
1.53949
1.5395
1.53976
1.54008
1.54
1.53942
1.53812
1.53656
1.53508
1.53363
1.53252
1.53199
1.5318
1.53182
1.53208
1.53243
1.53258
1.53243
1.53174
1.53108
1.53102
1.5312
1.53162
1.53228
1.53264
1.53278
1.53293
1.53294
1.53281
1.53285
1.53367
1.53529
1.5372
1.53911
1.54077
1.54218
1.54322
1.54353