/*--------------------------------*- C++ -*----------------------------------*\
  =========                 |
  \\      /  F ield         | OpenFOAM: The Open Source CFD Toolbox
   \\    /   O peration     | Website:  https://openfoam.org
    \\  /    A nd           | Version:  7
     \\/     M anipulation  |
\*---------------------------------------------------------------------------*/
FoamFile
{
    version     2.0;
    format      ascii;
    class       volVectorField;
    location    "0.4";
    object      U;
}
// * * * * * * * * * * * * * * * * * * * * * * * * * * * * * * * * * * * * * //

dimensions      [0 1 -1 0 0 0 0];

internalField   nonuniform List<vector> 
16512
(
(3 1.26783e-17 0)
(3 -1.83011e-16 0)
(3 4.76914e-17 0)
(3 -3.29254e-16 0)
(3 -3.66564e-16 0)
(3 -7.36703e-16 0)
(3 -1.26679e-15 0)
(3 -1.35504e-15 0)
(3 -1.7353e-15 0)
(3 -8.32776e-16 0)
(3 -1.61521e-16 0)
(3 5.16835e-16 0)
(3 8.97587e-16 0)
(3 9.96505e-16 0)
(3 2.36403e-15 0)
(3 3.40919e-15 0)
(3 2.76357e-15 0)
(3 2.24151e-15 0)
(3 2.56216e-15 0)
(3 2.48586e-15 0)
(3 1.50193e-15 0)
(3 1.1034e-15 0)
(3 1.27076e-15 0)
(3 1.47646e-15 0)
(3 8.02279e-16 0)
(3 8.39008e-16 0)
(3 1.02338e-15 0)
(3 1.27369e-15 0)
(3 1.10131e-15 0)
(3 4.1827e-16 0)
(3 -1.96485e-16 0)
(3 2.23419e-16 0)
(3 1.10825e-16 0)
(3 7.9097e-16 0)
(3 6.1946e-16 0)
(3 1.01125e-15 0)
(3 5.01549e-17 0)
(3 -3.86519e-16 0)
(3 -1.84077e-16 0)
(3 -1.11274e-16 0)
(3 -5.40366e-16 0)
(3 -1.05194e-15 0)
(3 -8.80404e-16 0)
(3 -5.20521e-16 0)
(3 -7.58853e-16 0)
(3 -8.61742e-16 0)
(3 3.39132e-16 0)
(3 1.50799e-15 0)
(3 1.63007e-15 0)
(3 2.56009e-15 0)
(3 3.63656e-15 0)
(3 4.19366e-15 0)
(3 4.31648e-15 0)
(3 4.16975e-15 0)
(3 2.18253e-15 0)
(3 1.50278e-15 0)
(3 -1.68154e-16 0)
(3 -4.29128e-16 0)
(3 -1.2823e-15 0)
(3 -1.04001e-15 0)
(3 -3.07087e-16 0)
(3 6.98447e-16 0)
(3 6.94707e-16 0)
(3 -1.2051e-15 0)
(3 -1.5439e-15 0)
(3 -1.64755e-15 0)
(3 -9.12543e-16 0)
(3 -5.4994e-16 0)
(3 -4.52425e-16 0)
(3 4.69501e-16 0)
(3 1.69575e-15 0)
(3 2.10647e-15 0)
(3 1.79484e-15 0)
(3 4.26928e-16 0)
(3 -1.18085e-15 0)
(3 -1.93148e-15 0)
(3 -1.42514e-15 0)
(3 -2.80843e-15 0)
(3 -4.95312e-15 0)
(3 -4.62603e-15 0)
(3 -4.02492e-15 0)
(3 -3.90292e-15 0)
(3 -4.62486e-15 0)
(3 -5.87569e-15 0)
(3 -5.18681e-15 0)
(3 -3.49008e-15 0)
(3 -2.49069e-15 0)
(3 -1.69474e-15 0)
(3 -1.65353e-16 0)
(3 -6.68783e-18 0)
(3 -8.97131e-16 0)
(3 -1.69483e-15 0)
(3 -2.37569e-15 0)
(3 -2.13368e-15 0)
(3 -1.64518e-15 0)
(3 -1.6167e-15 0)
(3 -1.10888e-15 0)
(3 -7.59897e-16 0)
(3 -4.9032e-16 0)
(3 -1.12449e-15 0)
(3 -1.42948e-15 0)
(3 -1.08818e-15 0)
(3 -4.99659e-16 0)
(3 -3.77215e-16 0)
(3 -4.67546e-16 0)
(3 -1.00829e-15 0)
(3 -1.06785e-15 0)
(3 -8.7985e-16 0)
(3 -1.32248e-15 0)
(3 -2.55005e-15 0)
(3 -3.7443e-15 0)
(3 -3.27016e-15 0)
(3 -3.50763e-15 0)
(3 -3.7016e-15 0)
(3 -3.36842e-15 0)
(3 -1.68817e-15 0)
(3 -8.16281e-16 0)
(3 3.25131e-16 0)
(3 -5.41091e-16 0)
(3 -1.18413e-15 0)
(3 -1.65479e-15 0)
(3 -1.51827e-15 0)
(3 -1.56795e-15 0)
(3 -2.67671e-16 0)
(3 -2.52491e-16 0)
(3 -6.00474e-16 0)
(3 -1.50084e-16 0)
(3 4.7624e-17 0)
(3 1.22432e-15 0)
(3 6.3361e-16 0)
(3 7.69802e-16 0)
(3 1.07926e-16 0)
(3 -5.87979e-16 0)
(3 -2.18516e-16 0)
(3 9.89559e-17 0)
(3 4.25023e-16 0)
(3 8.8314e-16 0)
(3 8.04751e-16 0)
(3 -2.06085e-16 0)
(3 -4.12669e-16 0)
(3 -2.04368e-15 0)
(3 -2.20842e-15 0)
(3 -2.78883e-15 0)
(3 -4.69137e-15 0)
(3 -5.03208e-15 0)
(3 -4.64764e-15 0)
(3 -4.97229e-15 0)
(3 -4.52197e-15 0)
(3 -3.78182e-15 0)
(3 -2.72782e-15 0)
(3 -1.9829e-15 0)
(3 -2.16919e-15 0)
(3 -2.57882e-15 0)
(3 -3.42545e-15 0)
(3 -4.29895e-15 0)
(3 -3.93998e-15 0)
(3 -3.44905e-15 0)
(3 -3.52834e-15 0)
(3 -2.05495e-15 0)
(3 -1.58008e-15 0)
(3 -8.96977e-16 0)
(3 -6.99988e-16 0)
(3 -4.5084e-16 0)
(3 2.73884e-16 0)
(3 8.83355e-16 0)
(3 7.64459e-16 0)
(3 2.54947e-16 0)
(3 -9.44149e-16 0)
(3 8.90404e-16 0)
(3 1.37166e-15 0)
(3 2.15023e-15 0)
(3 2.03239e-15 0)
(3 1.62816e-15 0)
(3 1.33002e-15 0)
(3 1.98079e-15 0)
(3 1.59651e-15 0)
(3 3.92699e-16 0)
(3 8.59795e-16 0)
(3 7.44938e-16 0)
(3 8.91024e-16 0)
(3 1.42589e-15 0)
(3 1.05377e-15 0)
(3 4.67177e-16 0)
(3 1.90789e-16 0)
(3 1.17139e-16 0)
(3 -6.62729e-16 0)
(3 -5.72875e-16 0)
(3 6.3059e-17 0)
(3 8.34934e-16 0)
(3 1.17268e-15 0)
(3 3.64338e-15 0)
(3 4.71875e-15 0)
(3 4.20896e-15 0)
(3 3.71073e-15 0)
(3 3.492e-15 0)
(3 3.68157e-15 0)
(3 3.03692e-15 0)
(3 1.8078e-15 0)
(3 1.50721e-15 0)
(3 1.74982e-15 0)
(3 1.50323e-15 0)
(3 1.55009e-15 0)
(3 1.07458e-15 0)
(3 -1.55269e-16 0)
(3 -7.74832e-16 0)
(3 -3.69474e-16 0)
(3 -6.14143e-16 0)
(3 -1.86049e-15 0)
(3 -2.86726e-15 0)
(3 -3.01368e-15 0)
(3 -1.05002e-15 0)
(3 2.38137e-16 0)
(3 6.16093e-16 0)
(3 2.90766e-16 0)
(3 7.17402e-17 0)
(3 -1.32818e-15 0)
(3 -2.20445e-15 0)
(3 -1.95607e-15 0)
(3 -1.3124e-15 0)
(3 2.16289e-16 0)
(3 1.07988e-15 0)
(3 8.01551e-16 0)
(3 1.52693e-15 0)
(3 2.1193e-15 0)
(3 2.03279e-15 0)
(3 1.37658e-15 0)
(3 1.50569e-15 0)
(3 2.57292e-15 0)
(3 2.97618e-15 0)
(3 1.00731e-15 0)
(3 -3.70846e-16 0)
(3 -5.44519e-16 0)
(3 -7.7839e-16 0)
(3 -1.68289e-16 0)
(3 -2.37714e-16 0)
(3 -1.98372e-16 0)
(3 2.22797e-17 0)
(3 3.18528e-17 0)
(3 -7.46748e-16 0)
(3 -1.47075e-15 0)
(3 -3.0001e-15 0)
(3 -3.98627e-15 0)
(3 -3.78356e-15 0)
(3 -2.46917e-15 0)
(3 -1.22095e-15 0)
(3 -9.92711e-16 0)
(3 4.90678e-16 0)
(3 1.39612e-15 0)
(3 5.31112e-16 0)
(3 2.30205e-16 0)
(3 -7.87987e-16 0)
(3 -1.90779e-15 0)
(3 -2.76447e-15 0)
(3 -4.47761e-15 0)
(3 -4.0149e-15 0)
(3 -3.03746e-15 0)
(3 -3.10299e-15 0)
(3 -3.53794e-15 0)
(3 -3.55956e-15 0)
(3 -3.36089e-15 0)
(3 -3.54399e-15 0)
(3 -2.6202e-15 0)
(3 -1.37344e-15 0)
(3 -7.81686e-16 0)
(3 1.11353e-16 0)
(3 1.21751e-15 0)
(3 1.26992e-15 0)
(3 1.07069e-15 0)
(3 4.18938e-16 0)
(3 -2.54376e-16 0)
(3 -1.13123e-15 0)
(3 -3.35773e-16 0)
(3 2.7528e-16 0)
(3 -1.02997e-16 0)
(3 -7.8464e-16 0)
(3 -2.22005e-15 0)
(3 -2.56437e-15 0)
(3 -1.82435e-15 0)
(3 -1.11913e-15 0)
(3 -2.19838e-15 0)
(3 -2.51063e-15 0)
(3 -2.49009e-15 0)
(3 -1.46718e-15 0)
(3 -4.40853e-16 0)
(3 -1.85777e-16 0)
(3 -3.97026e-16 0)
(3 -3.52131e-16 0)
(3 -9.4334e-16 0)
(3 -2.04152e-15 0)
(3 -2.45761e-15 0)
(3 -2.22037e-15 0)
(3 -8.59337e-16 0)
(3 1.91797e-18 0)
(3 -2.75405e-16 0)
(3 -1.43513e-15 0)
(3 -3.20784e-15 0)
(3 -2.98815e-15 0)
(3 -3.22634e-15 0)
(3 -4.28055e-15 0)
(3 -4.78021e-15 0)
(3 -3.95385e-15 0)
(3 -6.44985e-16 0)
(3 -5.65286e-16 0)
(3 2.22791e-16 0)
(3 1.42859e-16 0)
(3 4.52024e-16 0)
(3 -4.52319e-16 0)
(3 -1.76624e-15 0)
(3 -1.68933e-15 0)
(3 -1.99246e-15 0)
(3 -2.38734e-15 0)
(3 -1.73713e-15 0)
(3 -1.10029e-15 0)
(3 -4.62221e-16 0)
(3 -7.13049e-16 0)
(3 -1.45066e-15 0)
(3 -2.58167e-15 0)
(3 -3.11008e-15 0)
(3 -3.2523e-15 0)
(3 -3.25434e-15 0)
(3 -3.47841e-15 0)
(3 -3.05292e-15 0)
(3 -3.80729e-15 0)
(3 -4.21738e-15 0)
(3 -3.93334e-15 0)
(3 -3.40026e-15 0)
(3 -2.24029e-15 0)
(3 -1.02637e-15 0)
(3 -1.6641e-15 0)
(3 -2.83198e-15 0)
(3 -2.62378e-15 0)
(3 -2.53827e-15 0)
(3 -2.8344e-15 0)
(3 -2.01907e-15 0)
(3 -1.72748e-15 0)
(3 -1.57645e-15 0)
(3 -1.93755e-15 0)
(3 -1.65805e-15 0)
(3 -9.04961e-16 0)
(3 -3.15449e-16 0)
(3 9.31588e-16 0)
(3 1.12556e-15 0)
(3 8.64448e-16 0)
(3 4.43755e-16 0)
(3 5.80657e-16 0)
(3 7.71e-16 0)
(3 1.67779e-15 0)
(3 2.21611e-15 0)
(3 1.59528e-15 0)
(3 1.66558e-15 0)
(3 1.56657e-15 0)
(3 2.36456e-15 0)
(3 2.83835e-15 0)
(3 3.10337e-15 0)
(3 2.43242e-15 0)
(3 2.16798e-15 0)
(3 2.42088e-15 0)
(3 2.77382e-15 0)
(3 2.49813e-15 0)
(3 1.43631e-15 0)
(3 3.67098e-16 0)
(3 -4.9835e-16 0)
(3 -1.19053e-15 0)
(3 -9.20657e-16 0)
(3 1.19352e-15 0)
(3 3.00403e-15 0)
(3 3.6563e-15 0)
(3 4.17214e-15 0)
(3 3.73144e-15 0)
(3 3.91257e-15 0)
(3 4.16577e-15 0)
(3 4.47741e-15 0)
(3 4.08551e-15 0)
(3 2.42445e-15 0)
(3 1.35265e-15 0)
(3 1.55914e-15 0)
(3 1.15611e-15 0)
(3 2.65632e-16 0)
(3 -6.18024e-16 0)
(3 -1.38033e-16 0)
(3 4.28371e-17 0)
(3 4.76003e-16 0)
(3 4.97885e-16 0)
(3 -2.57313e-15 0)
(3 -4.22229e-15 0)
(3 -4.09803e-15 0)
(3 -1.98108e-15 0)
(3 -9.54463e-16 0)
(3 -7.27619e-18 0)
(3 7.672e-17 0)
(3 -9.07123e-16 0)
(3 -1.8032e-15 0)
(3 -2.04615e-15 0)
(3 -1.69188e-15 0)
(3 -7.50422e-16 0)
(3 8.75908e-16 0)
(3 1.17868e-15 0)
(3 1.54364e-15 0)
(3 3.48252e-16 0)
(3 -6.9107e-16 0)
(3 -1.68381e-15 0)
(3 -8.40435e-16 0)
(3 -6.91054e-16 0)
(3 6.22235e-17 0)
(3 -5.53327e-16 0)
(3 -9.65232e-16 0)
(3 -2.03842e-16 0)
(3 4.50053e-16 0)
(3 6.79557e-16 0)
(3 5.79876e-16 0)
(3 7.22616e-16 0)
(3 7.44435e-16 0)
(3 6.13611e-16 0)
(3 2.71429e-16 0)
(3 -1.04922e-15 0)
(3 -2.02685e-15 0)
(3 -2.86368e-15 0)
(3 -3.53588e-15 0)
(3 -3.30493e-15 0)
(3 -1.73442e-15 0)
(3 -7.5467e-16 0)
(3 -1.29422e-15 0)
(3 -1.87174e-15 0)
(3 -1.9969e-15 0)
(3 -1.3699e-15 0)
(3 -8.55668e-16 0)
(3 -1.08245e-15 0)
(3 -1.9236e-15 0)
(3 -3.24075e-15 0)
(3 -2.51978e-15 0)
(3 -2.4502e-15 0)
(3 -3.50301e-15 0)
(3 -3.05528e-15 0)
(3 -3.1417e-15 0)
(3 -3.43191e-15 0)
(3 -3.2008e-15 0)
(3 -4.0898e-15 0)
(3 -4.12575e-15 0)
(3 -2.70154e-15 0)
(3 -9.00045e-16 0)
(3 -1.21917e-15 0)
(3 -6.33165e-16 0)
(3 7.8644e-16 0)
(3 6.49406e-16 0)
(3 3.75847e-16 0)
(3 2.21674e-16 0)
(3 -2.41303e-16 0)
(3 4.75584e-16 0)
(3 6.01494e-16 0)
(3 5.70594e-16 0)
(3 1.80862e-16 0)
(3 8.21105e-17 0)
(3 -7.71424e-17 0)
(3 -8.28907e-16 0)
(3 -1.36694e-15 0)
(3 -2.69401e-15 0)
(3 -2.98401e-15 0)
(3 -1.85266e-15 0)
(3 -1.57308e-15 0)
(3 -1.31542e-15 0)
(3 -1.46965e-15 0)
(3 -2.85371e-16 0)
(3 1.09819e-15 0)
(3 1.37795e-15 0)
(3 1.16417e-16 0)
(3 8.08434e-17 0)
(3 -2.85844e-16 0)
(3 -1.16354e-15 0)
(3 -2.01368e-15 0)
(3 -2.74624e-15 0)
(3 -3.47745e-15 0)
(3 -4.90041e-15 0)
(3 -5.51507e-15 0)
(3 -3.01492e-15 0)
(3 -1.60932e-15 0)
(3 -2.01587e-15 0)
(3 -3.3524e-15 0)
(3 -2.83493e-15 0)
(3 -2.58431e-15 0)
(3 -1.91488e-15 0)
(3 -1.43453e-15 0)
(3 -1.09743e-15 0)
(3 -1.32668e-15 0)
(3 -2.18217e-15 0)
(3 -2.70712e-15 0)
(3 -2.56044e-15 0)
(3 -2.48404e-15 0)
(3 -2.82349e-15 0)
(3 -1.72556e-15 0)
(3 -3.99043e-16 0)
(3 -3.72831e-16 0)
(3 -1.67302e-15 0)
(3 -2.77997e-15 0)
(3 -2.7403e-15 0)
(3 -2.84325e-15 0)
(3 -2.61823e-15 0)
(3 -2.38507e-15 0)
(3 -1.60085e-15 0)
(3 -1.05643e-15 0)
(3 -1.51445e-15 0)
(3 -2.1485e-15 0)
(3 -2.1947e-15 0)
(3 -2.93687e-15 0)
(3 -3.23182e-15 0)
(3 -3.48605e-15 0)
(3 -3.79863e-15 0)
(3 -3.86854e-15 0)
(3 -4.10423e-15 0)
(3 -4.0564e-15 0)
(3 -3.46757e-15 0)
(3 -3.44042e-15 0)
(3 -2.62674e-15 0)
(3 -2.42157e-15 0)
(3 -2.20441e-15 0)
(3 -1.44703e-15 0)
(3 -7.26644e-16 0)
(3 -8.18139e-16 0)
(3 3.25187e-16 0)
(3 2.79191e-16 0)
(3 2.90974e-16 0)
(3 -4.02687e-16 0)
(3 -3.67677e-16 0)
(3 1.1664e-16 0)
(3 1.62048e-15 0)
(3 1.10966e-15 0)
(3 1.08859e-15 0)
(3 7.79036e-16 0)
(3 1.59957e-15 0)
(3 3.37679e-15 0)
(3 3.8289e-15 0)
(3 3.74546e-15 0)
(3 3.21094e-15 0)
(3 2.43999e-15 0)
(3 2.26968e-15 0)
(3 1.76481e-15 0)
(3 1.23357e-15 0)
(3 -7.91139e-16 0)
(3 -6.38108e-16 0)
(3 -4.70992e-16 0)
(3 -7.86835e-16 0)
(3 9.08568e-16 0)
(3 2.54186e-15 0)
(3 2.57268e-15 0)
(3 2.70656e-15 0)
(3 2.61292e-15 0)
(3 3.16092e-15 0)
(3 3.73391e-15 0)
(3 3.19468e-15 0)
(3 2.62261e-15 0)
(3 2.41652e-15 0)
(3 2.0396e-15 0)
(3 1.7855e-15 0)
(3 1.83928e-15 0)
(3 5.71577e-16 0)
(3 1.28996e-15 0)
(3 9.56638e-16 0)
(3 6.57502e-16 0)
(3 -8.68277e-17 0)
(3 -7.59484e-16 0)
(3 -2.13064e-15 0)
(3 -3.55808e-15 0)
(3 -3.80479e-15 0)
(3 -2.93095e-15 0)
(3 -2.34139e-15 0)
(3 -1.98661e-15 0)
(3 -1.63591e-15 0)
(3 -8.42949e-16 0)
(3 -4.17401e-16 0)
(3 -4.23858e-16 0)
(3 -4.37591e-16 0)
(3 -8.21164e-16 0)
(3 -7.40235e-16 0)
(3 -6.42778e-16 0)
(3 -1.39356e-16 0)
(3 -3.89061e-16 0)
(3 -9.75151e-16 0)
(3 -1.45544e-15 0)
(3 -1.13291e-16 0)
(3 7.12661e-16 0)
(3 3.96039e-16 0)
(3 1.0044e-16 0)
(3 1.5032e-16 0)
(3 7.37164e-16 0)
(3 1.9549e-15 0)
(3 2.62672e-15 0)
(3 2.46253e-15 0)
(3 2.64333e-15 0)
(3 1.94076e-15 0)
(3 7.02029e-16 0)
(3 -5.69372e-16 0)
(3 -1.5308e-15 0)
(3 -1.84298e-15 0)
(3 -2.48317e-15 0)
(3 -2.14633e-15 0)
(3 -1.15408e-15 0)
(3 -1.04694e-15 0)
(3 -1.57202e-15 0)
(3 -1.40258e-15 0)
(3 -1.8561e-15 0)
(3 -2.07442e-15 0)
(3 -1.30824e-15 0)
(3 -1.20068e-15 0)
(3 -2.25794e-15 0)
(3 -2.39343e-15 0)
(3 -1.68644e-15 0)
(3 3.28816e-16 0)
(3 -4.37378e-16 0)
(3 -2.00365e-15 0)
(3 -3.07653e-15 0)
(3 -3.61354e-15 0)
(3 -3.73017e-15 0)
(3 -4.2062e-15 0)
(3 -2.6363e-15 0)
(3 -1.92984e-15 0)
(3 -1.45e-15 0)
(3 -6.16619e-16 0)
(3 -9.47316e-16 0)
(3 -6.31061e-18 0)
(3 8.27938e-16 0)
(3 1.1057e-15 0)
(3 1.17329e-15 0)
(3 7.25989e-16 0)
(3 1.433e-15 0)
(3 1.00836e-15 0)
(3 8.71507e-16 0)
(3 5.1211e-16 0)
(3 1.3245e-15 0)
(3 1.8386e-15 0)
(3 2.03712e-15 0)
(3 1.56172e-15 0)
(3 3.27653e-18 0)
(3 -1.82821e-15 0)
(3 -1.7236e-15 0)
(3 -1.13081e-15 0)
(3 -8.71305e-16 0)
(3 -1.37843e-15 0)
(3 -1.70376e-15 0)
(3 -8.27744e-16 0)
(3 6.20715e-16 0)
(3 1.04246e-15 0)
(3 2.21922e-16 0)
(3 -2.11576e-16 0)
(3 -5.48726e-16 0)
(3 -6.25601e-16 0)
(3 -1.57471e-15 0)
(3 -1.64754e-15 0)
(3 -1.44016e-15 0)
(3 -2.45171e-15 0)
(3 -3.60955e-15 0)
(3 -3.29941e-15 0)
(3 -2.47814e-15 0)
(3 -1.95307e-15 0)
(3 -1.63882e-15 0)
(3 -2.06088e-15 0)
(3 -2.36366e-15 0)
(3 -2.30702e-15 0)
(3 -2.32604e-15 0)
(3 -2.41162e-15 0)
(3 -1.95973e-15 0)
(3 -2.00001e-15 0)
(3 -1.43964e-15 0)
(3 -8.32697e-16 0)
(3 -1.44102e-15 0)
(3 -1.55979e-15 0)
(3 -1.15081e-15 0)
(3 -1.34908e-15 0)
(3 -1.76582e-15 0)
(3 -1.83164e-15 0)
(3 -1.74392e-15 0)
(3 -1.60178e-15 0)
(3 -8.69023e-16 0)
(3 -5.42879e-16 0)
(3 -1.67102e-16 0)
(3 -2.19401e-16 0)
(3 5.21321e-16 0)
(3 8.63461e-16 0)
(3 6.82544e-16 0)
(3 4.82072e-17 0)
(3 -1.622e-15 0)
(3 -4.17834e-15 0)
(3 -5.33742e-15 0)
(3 -5.2278e-15 0)
(3 -4.98217e-15 0)
(3 -5.171e-15 0)
(3 -5.50573e-15 0)
(3 -5.32764e-15 0)
(3 -4.44062e-15 0)
(3 -2.38987e-15 0)
(3 -2.50019e-15 0)
(3 -3.25796e-15 0)
(3 -3.07438e-15 0)
(3 -1.64215e-15 0)
(3 -6.05877e-16 0)
(3 -2.12228e-16 0)
(3 2.73309e-16 0)
(3 3.88999e-16 0)
(3 -1.23836e-15 0)
(3 -1.85667e-15 0)
(3 -2.28124e-15 0)
(3 -7.92283e-16 0)
(3 1.0074e-15 0)
(3 1.57296e-15 0)
(3 9.29562e-16 0)
(3 1.36875e-15 0)
(3 2.45283e-15 0)
(3 2.89193e-15 0)
(3 3.14695e-15 0)
(3 2.899e-15 0)
(3 1.66378e-15 0)
(3 6.96938e-16 0)
(3 1.42222e-15 0)
(3 1.67622e-15 0)
(3 5.58282e-16 0)
(3 8.41615e-16 0)
(3 1.47277e-15 0)
(3 1.46071e-15 0)
(3 2.22058e-15 0)
(3 2.22279e-15 0)
(3 1.47788e-15 0)
(3 1.4279e-15 0)
(3 2.07631e-15 0)
(3 2.49647e-15 0)
(3 2.1312e-15 0)
(3 1.50446e-15 0)
(3 1.20463e-15 0)
(3 1.4072e-15 0)
(3 1.30452e-15 0)
(3 5.49483e-16 0)
(3 1.55979e-15 0)
(3 2.26788e-15 0)
(3 3.14774e-15 0)
(3 2.27359e-15 0)
(3 1.36974e-15 0)
(3 -7.33414e-16 0)
(3 -2.90897e-15 0)
(3 -3.79507e-15 0)
(3 -3.68119e-15 0)
(3 -3.67566e-15 0)
(3 -3.46969e-15 0)
(3 -3.51379e-15 0)
(3 -3.76655e-15 0)
(3 -3.38055e-15 0)
(3 -1.65667e-15 0)
(3 -7.51963e-16 0)
(3 -3.71132e-16 0)
(3 -8.89611e-16 0)
(3 -1.0422e-15 0)
(3 -1.9035e-15 0)
(3 -1.63591e-15 0)
(3 -2.44211e-15 0)
(3 -2.45858e-15 0)
(3 -2.19051e-15 0)
(3 -1.80643e-15 0)
(3 -1.36571e-15 0)
(3 2.25145e-16 0)
(3 5.01135e-16 0)
(3 1.9663e-16 0)
(3 8.50975e-16 0)
(3 2.24257e-15 0)
(3 2.52864e-15 0)
(3 2.96428e-15 0)
(3 2.72326e-15 0)
(3 2.29173e-15 0)
(3 1.91552e-15 0)
(3 9.36122e-16 0)
(3 -3.97358e-16 0)
(3 -4.82098e-16 0)
(3 8.61366e-16 0)
(3 6.56127e-16 0)
(3 4.32945e-16 0)
(3 -5.11611e-16 0)
(3 -3.49935e-16 0)
(3 -3.04022e-16 0)
(3 -2.08605e-16 0)
(3 -3.67594e-16 0)
(3 -9.16238e-16 0)
(3 -1.3168e-15 0)
(3 -1.04743e-15 0)
(3 -3.84613e-16 0)
(3 -1.04758e-16 0)
(3 9.42625e-16 0)
(3 1.24909e-15 0)
(3 1.21522e-15 0)
(3 7.26409e-16 0)
(3 -6.88763e-16 0)
(3 -2.40721e-15 0)
(3 -2.86689e-15 0)
(3 -2.71711e-15 0)
(3 -1.43243e-15 0)
(3 -1.08046e-15 0)
(3 -1.96157e-15 0)
(3 -2.24277e-15 0)
(3 -9.66808e-16 0)
(3 6.47132e-16 0)
(3 9.38425e-16 0)
(3 1.61104e-15 0)
(3 2.2482e-15 0)
(3 2.13643e-15 0)
(3 2.56801e-15 0)
(3 2.34438e-15 0)
(3 8.509e-16 0)
(3 2.1208e-16 0)
(3 -3.19189e-16 0)
(3 -6.40825e-17 0)
(3 2.24049e-16 0)
(3 5.53636e-16 0)
(3 2.4996e-16 0)
(3 6.32735e-17 0)
(3 -5.20743e-16 0)
(3 -5.02548e-16 0)
(3 2.72446e-17 0)
(3 -1.16439e-15 0)
(3 -1.01372e-15 0)
(3 -1.84887e-16 0)
(3 2.70923e-16 0)
(3 9.03597e-16 0)
(3 1.09672e-15 0)
(3 2.85195e-16 0)
(3 -1.56012e-16 0)
(3 -1.57427e-16 0)
(3 -4.75565e-16 0)
(3 -1.18106e-15 0)
(3 -1.8521e-15 0)
(3 -2.72128e-15 0)
(3 -2.90773e-15 0)
(3 -3.10875e-15 0)
(3 -2.68458e-15 0)
(3 -9.22394e-16 0)
(3 -1.31326e-16 0)
(3 -2.96745e-16 0)
(3 -9.58693e-16 0)
(3 -2.26806e-15 0)
(3 -3.10839e-15 0)
(3 -3.37587e-15 0)
(3 -3.41527e-15 0)
(3 -3.06483e-15 0)
(3 -1.52662e-15 0)
(3 -8.13758e-16 0)
(3 -1.06229e-15 0)
(3 -6.91288e-16 0)
(3 -3.9044e-16 0)
(3 -1.23553e-15 0)
(3 -1.42465e-15 0)
(3 -9.45717e-16 0)
(3 4.81667e-16 0)
(3 3.10558e-16 0)
(3 1.2244e-15 0)
(3 1.69646e-15 0)
(3 9.36361e-16 0)
(3 -2.98584e-16 0)
(3 2.87169e-16 0)
(3 5.54022e-16 0)
(3 -7.368e-17 0)
(3 -2.67817e-16 0)
(3 -7.40442e-16 0)
(3 -2.74877e-15 0)
(3 -5.37124e-15 0)
(3 -5.54114e-15 0)
(3 -4.15329e-15 0)
(3 -4.22442e-15 0)
(3 -4.38614e-15 0)
(3 -4.6218e-15 0)
(3 -4.1864e-15 0)
(3 -3.39439e-15 0)
(3 -2.8528e-15 0)
(3 -2.88271e-15 0)
(3 -2.3142e-15 0)
(3 -2.10883e-15 0)
(3 -1.26814e-15 0)
(3 3.31837e-17 0)
(3 6.64746e-16 0)
(3 1.02275e-15 0)
(3 -1.18962e-15 0)
(3 -1.52345e-15 0)
(3 -1.47677e-15 0)
(3 -1.24276e-15 0)
(3 1.4311e-15 0)
(3 3.00415e-15 0)
(3 3.4742e-15 0)
(3 2.33643e-15 0)
(3 1.16098e-15 0)
(3 1.76743e-15 0)
(3 2.35697e-15 0)
(3 1.75625e-15 0)
(3 8.50244e-16 0)
(3 1.87956e-17 0)
(3 1.01482e-15 0)
(3 1.28987e-15 0)
(3 1.74283e-15 0)
(3 2.23287e-15 0)
(3 2.09643e-15 0)
(3 2.22201e-15 0)
(3 2.47667e-15 0)
(3 2.76036e-15 0)
(3 2.25799e-15 0)
(3 2.36089e-15 0)
(3 2.63384e-15 0)
(3 2.27801e-15 0)
(3 1.46139e-15 0)
(3 3.50463e-15 0)
(3 4.34981e-15 0)
(3 4.02857e-15 0)
(3 3.32509e-15 0)
(3 2.55511e-15 0)
(3 2.47232e-15 0)
(3 2.92296e-15 0)
(3 2.62436e-15 0)
(3 1.62525e-15 0)
(3 1.56508e-15 0)
(3 3.78082e-16 0)
(3 -9.81318e-16 0)
(3 -1.46277e-15 0)
(3 -7.7124e-16 0)
(3 -1.34207e-15 0)
(3 -2.49183e-15 0)
(3 -2.9755e-15 0)
(3 -2.66472e-15 0)
(3 -3.02901e-15 0)
(3 -3.7076e-15 0)
(3 -2.32678e-15 0)
(3 3.511e-16 0)
(3 7.05054e-16 0)
(3 5.5486e-16 0)
(3 -7.92096e-16 0)
(3 -1.73313e-15 0)
(3 -2.80435e-15 0)
(3 -2.63089e-15 0)
(3 -2.17542e-15 0)
(3 -1.51531e-15 0)
(3 -1.64551e-15 0)
(3 -1.05363e-15 0)
(3 -7.84853e-16 0)
(3 -3.43171e-17 0)
(3 1.60803e-15 0)
(3 2.20613e-15 0)
(3 2.02884e-15 0)
(3 2.01793e-15 0)
(3 2.26661e-15 0)
(3 1.92894e-15 0)
(3 1.66688e-15 0)
(3 1.87933e-15 0)
(3 1.1446e-15 0)
(3 1.58929e-15 0)
(3 1.80189e-15 0)
(3 1.95711e-15 0)
(3 1.23237e-15 0)
(3 4.11686e-16 0)
(3 4.77922e-16 0)
(3 2.93652e-17 0)
(3 1.01485e-16 0)
(3 -7.93249e-17 0)
(3 -3.08164e-16 0)
(3 -8.48665e-16 0)
(3 6.39933e-16 0)
(3 1.74218e-15 0)
(3 2.3232e-15 0)
(3 2.90371e-15 0)
(3 2.17707e-15 0)
(3 9.61123e-16 0)
(3 -3.91303e-16 0)
(3 -3.43644e-16 0)
(3 -3.6584e-16 0)
(3 -2.67035e-16 0)
(3 -2.84452e-16 0)
(3 -1.7004e-15 0)
(3 -1.67871e-15 0)
(3 -1.72752e-15 0)
(3 -2.3178e-15 0)
(3 -1.26018e-15 0)
(3 6.7649e-16 0)
(3 1.0907e-15 0)
(3 1.01538e-15 0)
(3 9.81789e-16 0)
(3 1.59264e-15 0)
(3 1.64663e-15 0)
(3 1.45378e-15 0)
(3 -1.37468e-16 0)
(3 -1.2132e-15 0)
(3 -2.17628e-15 0)
(3 -2.1692e-15 0)
(3 -2.05906e-15 0)
(3 -1.30385e-15 0)
(3 -3.6898e-16 0)
(3 -1.9315e-17 0)
(3 2.44951e-16 0)
(3 3.48877e-17 0)
(3 6.97426e-16 0)
(3 1.54113e-15 0)
(3 1.96455e-15 0)
(3 1.47539e-15 0)
(3 1.02122e-15 0)
(3 1.51906e-15 0)
(3 1.67428e-15 0)
(3 1.47858e-15 0)
(3 1.25011e-15 0)
(3 9.72962e-16 0)
(3 8.95269e-16 0)
(3 1.89536e-17 0)
(3 -2.34069e-15 0)
(3 -2.91355e-15 0)
(3 -2.47112e-15 0)
(3 -1.76726e-15 0)
(3 -1.56363e-15 0)
(3 -9.43044e-16 0)
(3 -1.00451e-15 0)
(3 -6.72114e-16 0)
(3 -1.67447e-15 0)
(3 -2.02352e-15 0)
(3 -2.36547e-15 0)
(3 -2.82178e-15 0)
(3 -3.43917e-15 0)
(3 -2.83015e-15 0)
(3 -1.90268e-15 0)
(3 -1.33857e-15 0)
(3 -2.47408e-16 0)
(3 -9.47784e-17 0)
(3 -2.53488e-16 0)
(3 -1.01345e-15 0)
(3 -1.57609e-15 0)
(3 -1.37313e-15 0)
(3 -1.28404e-15 0)
(3 -1.2226e-15 0)
(3 -6.70483e-16 0)
(3 -3.06883e-16 0)
(3 1.08316e-16 0)
(3 -8.24833e-16 0)
(3 -8.40123e-16 0)
(3 -8.30436e-16 0)
(3 -8.18943e-16 0)
(3 -1.13233e-15 0)
(3 -1.72904e-15 0)
(3 -2.57169e-15 0)
(3 -3.3761e-15 0)
(3 -4.23581e-15 0)
(3 -4.60895e-15 0)
(3 -4.02001e-15 0)
(3 -3.22977e-15 0)
(3 -3.22902e-15 0)
(3 -3.77601e-15 0)
(3 -3.59338e-15 0)
(3 -1.23091e-15 0)
(3 1.26593e-16 0)
(3 1.31633e-16 0)
(3 -8.49391e-16 0)
(3 -1.48218e-15 0)
(3 -1.04879e-15 0)
(3 -7.38548e-16 0)
(3 1.93463e-17 0)
(3 -8.0848e-16 0)
(3 -1.10527e-15 0)
(3 -1.28757e-15 0)
(3 -6.34125e-16 0)
(3 -3.84008e-16 0)
(3 1.15729e-15 0)
(3 2.40312e-15 0)
(3 1.88402e-15 0)
(3 2.84033e-15 0)
(3 3.32243e-15 0)
(3 2.53989e-15 0)
(3 5.12466e-16 0)
(3 -3.9796e-16 0)
(3 -5.53222e-16 0)
(3 5.97149e-17 0)
(3 3.97145e-16 0)
(3 1.64758e-15 0)
(3 2.55168e-15 0)
(3 2.64628e-15 0)
(3 2.34313e-15 0)
(3 2.03192e-15 0)
(3 2.20455e-15 0)
(3 2.15145e-15 0)
(3 2.11499e-15 0)
(3 2.27043e-15 0)
(3 2.31426e-15 0)
(3 1.80855e-15 0)
(3 3.34271e-15 0)
(3 5.70269e-15 0)
(3 5.71621e-15 0)
(3 5.1711e-15 0)
(3 4.58777e-15 0)
(3 3.8135e-15 0)
(3 2.56866e-15 0)
(3 2.22857e-15 0)
(3 1.31374e-15 0)
(3 7.88686e-16 0)
(3 3.31388e-16 0)
(3 4.3364e-16 0)
(3 3.98057e-16 0)
(3 5.47058e-16 0)
(3 -5.87203e-16 0)
(3 -2.24633e-15 0)
(3 -2.44107e-15 0)
(3 -2.25382e-15 0)
(3 -2.07742e-15 0)
(3 -2.34139e-15 0)
(3 -1.86567e-15 0)
(3 -7.71106e-16 0)
(3 1.09643e-15 0)
(3 8.86383e-17 0)
(3 -1.39774e-15 0)
(3 -2.53288e-15 0)
(3 -2.31687e-15 0)
(3 -1.3706e-15 0)
(3 -1.08988e-15 0)
(3 -1.12102e-15 0)
(3 -1.36019e-15 0)
(3 -1.39272e-15 0)
(3 -1.05634e-15 0)
(3 1.22531e-15 0)
(3 1.67912e-15 0)
(3 5.19691e-16 0)
(3 2.59399e-16 0)
(3 5.73598e-17 0)
(3 5.41765e-16 0)
(3 6.31565e-16 0)
(3 9.25495e-17 0)
(3 9.9239e-16 0)
(3 2.88968e-15 0)
(3 3.06852e-15 0)
(3 2.69318e-15 0)
(3 3.24801e-15 0)
(3 3.19842e-15 0)
(3 3.1177e-15 0)
(3 1.91875e-15 0)
(3 1.02178e-15 0)
(3 9.13324e-16 0)
(3 9.60331e-16 0)
(3 7.15264e-16 0)
(3 1.15759e-15 0)
(3 2.02299e-15 0)
(3 2.33167e-15 0)
(3 2.09373e-15 0)
(3 2.07216e-15 0)
(3 1.68613e-15 0)
(3 5.96109e-16 0)
(3 -6.74533e-16 0)
(3 -8.70797e-16 0)
(3 -3.73746e-16 0)
(3 4.32453e-16 0)
(3 1.68379e-16 0)
(3 -4.51875e-16 0)
(3 -7.3236e-16 0)
(3 -3.35459e-16 0)
(3 4.97062e-16 0)
(3 8.20237e-16 0)
(3 8.19069e-16 0)
(3 9.59272e-16 0)
(3 2.21872e-15 0)
(3 2.29213e-15 0)
(3 2.26483e-15 0)
(3 1.92035e-15 0)
(3 9.26298e-16 0)
(3 5.22655e-16 0)
(3 -1.02059e-15 0)
(3 -1.03592e-15 0)
(3 -1.24028e-15 0)
(3 -1.14995e-15 0)
(3 -7.40623e-16 0)
(3 -1.51151e-16 0)
(3 -9.59761e-17 0)
(3 9.07438e-16 0)
(3 1.45065e-15 0)
(3 1.16627e-15 0)
(3 2.59573e-15 0)
(3 3.10607e-15 0)
(3 2.57405e-15 0)
(3 1.90452e-15 0)
(3 4.2145e-16 0)
(3 4.11382e-16 0)
(3 1.25849e-15 0)
(3 1.59842e-15 0)
(3 6.01692e-16 0)
(3 5.51118e-16 0)
(3 -5.08885e-16 0)
(3 -1.18087e-15 0)
(3 -1.53164e-15 0)
(3 -1.65131e-15 0)
(3 -2.24665e-15 0)
(3 -2.61033e-15 0)
(3 -3.54182e-15 0)
(3 -4.1662e-15 0)
(3 -4.18075e-15 0)
(3 -1.72864e-15 0)
(3 -1.77773e-15 0)
(3 -2.38005e-15 0)
(3 -2.31829e-15 0)
(3 -2.0687e-15 0)
(3 -1.49257e-15 0)
(3 -1.46086e-15 0)
(3 -1.7275e-15 0)
(3 -1.88217e-15 0)
(3 -1.91016e-15 0)
(3 -1.61775e-15 0)
(3 -1.96123e-15 0)
(3 -2.93806e-15 0)
(3 -3.1534e-15 0)
(3 -2.64367e-15 0)
(3 -1.67144e-15 0)
(3 -9.44927e-16 0)
(3 -8.84562e-16 0)
(3 3.24361e-16 0)
(3 -9.29701e-16 0)
(3 -2.04915e-15 0)
(3 -1.50627e-15 0)
(3 -1.8062e-15 0)
(3 -3.21079e-15 0)
(3 -3.20013e-15 0)
(3 -3.10786e-15 0)
(3 -2.8722e-15 0)
(3 -3.20542e-15 0)
(3 -3.08994e-15 0)
(3 -2.99481e-15 0)
(3 -2.80211e-15 0)
(3 -2.3838e-15 0)
(3 -2.46097e-15 0)
(3 -2.20101e-15 0)
(3 -1.31212e-15 0)
(3 -4.79331e-16 0)
(3 -5.24422e-16 0)
(3 -9.45909e-16 0)
(3 -1.03235e-15 0)
(3 -1.41352e-15 0)
(3 -1.27122e-15 0)
(3 -5.10225e-16 0)
(3 -1.48175e-15 0)
(3 -1.81721e-15 0)
(3 -1.02635e-15 0)
(3 -9.20851e-16 0)
(3 -9.68698e-16 0)
(3 -8.4011e-16 0)
(3 1.66986e-16 0)
(3 2.14721e-15 0)
(3 4.08028e-15 0)
(3 4.40774e-15 0)
(3 3.10974e-15 0)
(3 1.11934e-15 0)
(3 -1.29777e-16 0)
(3 -4.14869e-16 0)
(3 5.83356e-16 0)
(3 1.75214e-15 0)
(3 3.04548e-15 0)
(3 3.66616e-15 0)
(3 4.40028e-15 0)
(3 4.11224e-15 0)
(3 2.95426e-15 0)
(3 2.56944e-15 0)
(3 3.08557e-15 0)
(3 3.52653e-15 0)
(3 3.62219e-15 0)
(3 3.26311e-15 0)
(3 3.75829e-15 0)
(3 3.36756e-15 0)
(3 3.18588e-15 0)
(3 4.52875e-15 0)
(3 4.03043e-15 0)
(3 3.98079e-15 0)
(3 3.28293e-15 0)
(3 2.88468e-15 0)
(3 2.08221e-15 0)
(3 1.36003e-15 0)
(3 1.05288e-16 0)
(3 -1.98702e-17 0)
(3 4.1975e-16 0)
(3 1.52927e-15 0)
(3 1.30119e-15 0)
(3 1.30024e-16 0)
(3 -2.65591e-15 0)
(3 -2.77799e-15 0)
(3 -3.04583e-15 0)
(3 -1.5118e-15 0)
(3 -3.17336e-16 0)
(3 1.37103e-16 0)
(3 -6.03586e-16 0)
(3 -3.28119e-16 0)
(3 -1.50512e-15 0)
(3 -8.20467e-16 0)
(3 -7.72813e-16 0)
(3 -6.12088e-16 0)
(3 -6.97943e-16 0)
(3 -1.56356e-15 0)
(3 -1.97853e-15 0)
(3 -2.06394e-15 0)
(3 -1.652e-15 0)
(3 -1.29139e-15 0)
(3 -3.35531e-16 0)
(3 -8.71592e-17 0)
(3 -2.97102e-16 0)
(3 -3.06911e-16 0)
(3 -5.47303e-16 0)
(3 -7.71565e-16 0)
(3 -6.08094e-16 0)
(3 9.06193e-16 0)
(3 1.7823e-15 0)
(3 3.27592e-15 0)
(3 4.38669e-15 0)
(3 4.36887e-15 0)
(3 3.82196e-15 0)
(3 3.51618e-15 0)
(3 3.34595e-15 0)
(3 2.26834e-15 0)
(3 1.96165e-15 0)
(3 3.01716e-15 0)
(3 2.85539e-15 0)
(3 2.12445e-15 0)
(3 1.2821e-15 0)
(3 9.13779e-16 0)
(3 3.38346e-16 0)
(3 2.6684e-16 0)
(3 5.95112e-16 0)
(3 8.59455e-16 0)
(3 1.11438e-15 0)
(3 1.23124e-15 0)
(3 6.92961e-16 0)
(3 -2.81905e-17 0)
(3 5.27715e-16 0)
(3 1.29465e-15 0)
(3 9.80109e-16 0)
(3 8.67967e-16 0)
(3 1.60343e-15 0)
(3 1.81559e-15 0)
(3 1.48326e-15 0)
(3 6.70575e-16 0)
(3 9.37244e-16 0)
(3 2.69471e-15 0)
(3 3.0889e-15 0)
(3 2.8619e-15 0)
(3 1.77492e-15 0)
(3 1.51426e-15 0)
(3 9.58083e-16 0)
(3 1.23249e-15 0)
(3 1.60034e-15 0)
(3 1.76732e-15 0)
(3 1.67639e-15 0)
(3 9.00554e-16 0)
(3 6.52205e-16 0)
(3 9.52985e-16 0)
(3 2.15708e-15 0)
(3 2.53805e-15 0)
(3 1.76426e-15 0)
(3 1.94198e-15 0)
(3 2.77553e-15 0)
(3 3.25336e-15 0)
(3 1.81712e-15 0)
(3 -5.23941e-17 0)
(3 5.07992e-16 0)
(3 2.00497e-15 0)
(3 6.4652e-16 0)
(3 -2.10154e-15 0)
(3 -1.71989e-15 0)
(3 -7.76951e-16 0)
(3 1.1159e-16 0)
(3 5.37578e-16 0)
(3 -3.82754e-16 0)
(3 -1.78596e-15 0)
(3 -2.39577e-15 0)
(3 -5.02504e-15 0)
(3 -5.87222e-15 0)
(3 -4.95067e-15 0)
(3 -2.6362e-15 0)
(3 -2.27575e-15 0)
(3 -2.98647e-15 0)
(3 -3.29554e-15 0)
(3 -2.5258e-15 0)
(3 -1.57823e-15 0)
(3 -1.33413e-15 0)
(3 -1.5315e-15 0)
(3 -2.40075e-15 0)
(3 -3.70896e-15 0)
(3 -3.94264e-15 0)
(3 -3.16901e-15 0)
(3 -3.05942e-15 0)
(3 -3.43827e-15 0)
(3 -1.54125e-15 0)
(3 -7.62807e-16 0)
(3 -8.1589e-16 0)
(3 -1.16581e-15 0)
(3 -1.05143e-15 0)
(3 -1.59472e-15 0)
(3 -3.11099e-15 0)
(3 -3.298e-15 0)
(3 -4.42413e-15 0)
(3 -3.90198e-15 0)
(3 -3.36645e-15 0)
(3 -1.60447e-15 0)
(3 -1.50619e-15 0)
(3 -2.10142e-15 0)
(3 -1.8485e-15 0)
(3 -1.7449e-15 0)
(3 -2.14169e-15 0)
(3 -3.96253e-15 0)
(3 -4.11103e-15 0)
(3 -3.18606e-15 0)
(3 -1.73261e-15 0)
(3 -1.47293e-15 0)
(3 -1.48638e-15 0)
(3 -1.45965e-15 0)
(3 -1.28263e-15 0)
(3 -9.21076e-16 0)
(3 -5.28503e-16 0)
(3 -2.24775e-16 0)
(3 -1.67981e-15 0)
(3 -1.10799e-15 0)
(3 3.49007e-16 0)
(3 3.36712e-16 0)
(3 3.16637e-16 0)
(3 6.28067e-16 0)
(3 1.64726e-15 0)
(3 3.51918e-15 0)
(3 3.43202e-15 0)
(3 3.50384e-15 0)
(3 2.43679e-15 0)
(3 1.84242e-15 0)
(3 1.1758e-15 0)
(3 1.44637e-15 0)
(3 1.64683e-15 0)
(3 1.96993e-15 0)
(3 2.37549e-15 0)
(3 3.46583e-15 0)
(3 3.88884e-15 0)
(3 3.24807e-15 0)
(3 2.55208e-15 0)
(3 2.36262e-15 0)
(3 2.94394e-15 0)
(3 4.34265e-15 0)
(3 4.60528e-15 0)
(3 4.39372e-15 0)
(3 5.32027e-15 0)
(3 4.66592e-15 0)
(3 2.81685e-15 0)
(3 2.20619e-15 0)
(3 2.60018e-15 0)
(3 2.64508e-15 0)
(3 2.5265e-15 0)
(3 1.80614e-15 0)
(3 5.23479e-16 0)
(3 8.44083e-16 0)
(3 1.34315e-15 0)
(3 1.56439e-15 0)
(3 1.57816e-15 0)
(3 1.66525e-15 0)
(3 1.83811e-15 0)
(3 1.45869e-15 0)
(3 5.55677e-16 0)
(3 -4.40333e-16 0)
(3 -4.08866e-17 0)
(3 -2.45302e-16 0)
(3 3.36379e-16 0)
(3 1.01352e-15 0)
(3 2.67167e-16 0)
(3 -6.20468e-17 0)
(3 -5.99075e-16 0)
(3 -8.10265e-16 0)
(3 -4.65674e-16 0)
(3 8.01293e-16 0)
(3 7.36374e-16 0)
(3 1.92238e-17 0)
(3 -1.27713e-15 0)
(3 -1.8495e-15 0)
(3 -1.96715e-15 0)
(3 -2.11004e-15 0)
(3 -1.28477e-15 0)
(3 -1.42521e-15 0)
(3 -1.30689e-15 0)
(3 -7.80453e-16 0)
(3 -5.36594e-16 0)
(3 -5.17903e-16 0)
(3 -1.89483e-16 0)
(3 4.73841e-16 0)
(3 1.18468e-15 0)
(3 2.2229e-15 0)
(3 3.83453e-15 0)
(3 5.48642e-15 0)
(3 4.27637e-15 0)
(3 3.49087e-15 0)
(3 3.09496e-15 0)
(3 2.37002e-15 0)
(3 2.23251e-15 0)
(3 3.25926e-15 0)
(3 3.24152e-15 0)
(3 2.30019e-15 0)
(3 9.26713e-17 0)
(3 -1.34454e-15 0)
(3 -2.1008e-15 0)
(3 -1.89053e-15 0)
(3 -1.00538e-15 0)
(3 3.03162e-16 0)
(3 1.51772e-15 0)
(3 2.63723e-15 0)
(3 2.92195e-15 0)
(3 2.7181e-15 0)
(3 1.94841e-15 0)
(3 1.76523e-15 0)
(3 1.49368e-15 0)
(3 1.56331e-15 0)
(3 1.20388e-15 0)
(3 6.9405e-16 0)
(3 1.60887e-16 0)
(3 7.24492e-16 0)
(3 1.34796e-15 0)
(3 1.29887e-15 0)
(3 1.89376e-15 0)
(3 1.30109e-15 0)
(3 1.15089e-15 0)
(3 1.38712e-15 0)
(3 1.65625e-15 0)
(3 2.5401e-15 0)
(3 3.52895e-15 0)
(3 3.84792e-15 0)
(3 3.06697e-15 0)
(3 1.96238e-15 0)
(3 1.88511e-15 0)
(3 1.56817e-15 0)
(3 1.70274e-15 0)
(3 1.96975e-15 0)
(3 4.03743e-16 0)
(3 -3.03946e-16 0)
(3 -1.33074e-16 0)
(3 -3.05716e-18 0)
(3 1.28691e-16 0)
(3 1.06016e-15 0)
(3 1.05392e-15 0)
(3 1.36279e-16 0)
(3 -1.01559e-15 0)
(3 -1.47213e-15 0)
(3 -1.30714e-15 0)
(3 -7.25067e-16 0)
(3 2.81257e-16 0)
(3 3.72319e-16 0)
(3 -8.96039e-16 0)
(3 -1.51029e-15 0)
(3 -1.92688e-15 0)
(3 -2.88722e-15 0)
(3 -2.75964e-15 0)
(3 -2.73052e-15 0)
(3 -2.0142e-15 0)
(3 -1.9912e-15 0)
(3 -3.44066e-15 0)
(3 -5.00252e-15 0)
(3 -4.6561e-15 0)
(3 -3.64323e-15 0)
(3 -3.01043e-15 0)
(3 -2.84547e-15 0)
(3 -3.23723e-15 0)
(3 -3.70971e-15 0)
(3 -4.51887e-15 0)
(3 -3.99223e-15 0)
(3 -2.92706e-15 0)
(3 -2.05062e-15 0)
(3 -1.7943e-16 0)
(3 2.2941e-19 0)
(3 -4.10765e-16 0)
(3 -6.77951e-16 0)
(3 -1.81563e-15 0)
(3 -1.95572e-15 0)
(3 -1.9233e-15 0)
(3 -3.27532e-15 0)
(3 -3.28661e-15 0)
(3 -3.60454e-15 0)
(3 -1.9461e-15 0)
(3 -7.11081e-16 0)
(3 -1.38932e-16 0)
(3 1.33536e-16 0)
(3 2.26415e-19 0)
(3 -4.84836e-16 0)
(3 -2.63159e-15 0)
(3 -3.69365e-15 0)
(3 -4.28994e-15 0)
(3 -3.3236e-15 0)
(3 -2.37624e-15 0)
(3 -2.31054e-15 0)
(3 -2.40393e-15 0)
(3 -1.79504e-15 0)
(3 -1.43117e-15 0)
(3 -8.68868e-16 0)
(3 -6.46e-16 0)
(3 -6.0415e-16 0)
(3 -8.01764e-16 0)
(3 1.11529e-15 0)
(3 1.79528e-15 0)
(3 2.23388e-15 0)
(3 2.61598e-15 0)
(3 2.88855e-15 0)
(3 3.5121e-15 0)
(3 3.87746e-15 0)
(3 3.7176e-15 0)
(3 2.95821e-15 0)
(3 2.643e-15 0)
(3 2.71756e-15 0)
(3 2.85431e-15 0)
(3 3.2872e-15 0)