/*--------------------------------*- C++ -*----------------------------------*\
  =========                 |
  \\      /  F ield         | OpenFOAM: The Open Source CFD Toolbox
   \\    /   O peration     | Website:  https://openfoam.org
    \\  /    A nd           | Version:  7
     \\/     M anipulation  |
\*---------------------------------------------------------------------------*/
FoamFile
{
    version     2.0;
    format      ascii;
    class       volScalarField;
    location    "1.7";
    object      p;
}
// * * * * * * * * * * * * * * * * * * * * * * * * * * * * * * * * * * * * * //

dimensions      [1 -1 -2 0 0 0 0];

internalField   nonuniform List<scalar> 
16192
(
1.36104
1.36151
1.36105
1.3594
1.35686
1.35273
1.34538
1.33818
1.33536
1.33334
1.3313
1.329
1.32562
1.31778
1.30284
1.29433
1.29227
1.29019
1.28862
1.28693
1.28507
1.283
1.28005
1.27287
1.25625
1.23928
1.23541
1.23446
1.23518
1.24112
1.24371
1.24285
1.24208
1.24102
1.23866
1.22995
1.21036
1.19298
1.18922
1.18847
1.18883
1.19447
1.19987
1.19933
1.19798
1.1963
1.19337
1.18627
1.17396
1.16678
1.1659
1.16612
1.16944
1.17725
1.19004
1.21417
1.23873
1.25776
1.27951
1.29041
1.29219
1.28841
1.28269
1.28272
1.28381
1.28852
1.29513
1.29354
1.28962
1.28579
1.28045
1.27046
1.25284
1.2362
1.23071
1.22959
1.22888
1.2286
1.22912
1.23036
1.23133
1.23172
1.2302
1.22767
1.22332
1.21679
1.2108
1.20963
1.22386
1.36945
1.75324
2.51134
3.15721
3.25952
3.37276
3.4259
3.47651
3.56367
3.59701
3.61285
3.61182
3.6025
3.58648
3.55447
3.52501
3.49561
3.46184
3.43287
3.41141
3.39381
3.37604
3.35816
3.34166
3.32117
3.29663
3.28273
3.27265
3.26657
3.25866
3.24527
3.23105
3.21201
3.18942
3.16541
3.14717
3.13868
3.13618
3.14197
3.13952
3.12763
3.10839
3.08051
3.05175
3.03989
3.03518
3.03302
3.03547
3.03049
3.01978
3.00274
2.97694
2.9463
2.92719
2.9184
2.91362
2.91416
2.92674
2.93585
2.92985
2.91548
2.89273
2.85783
2.82477
2.81066
2.80456
2.79991
2.79731
2.80566
2.81805
2.81602
2.80869
2.79755
2.78058
2.76729
2.7608
2.75651
2.75188
2.74686
2.74764
2.75413
2.76611
2.7822
2.79935
2.81043
2.81215
2.80939
2.80152
2.78453
2.76416
2.75019
2.73787
2.72757
2.7199
2.71251
2.70419
2.69565
2.68523
2.66966
2.64843
2.63105
2.61792
2.60946
2.60273
2.59804
2.59942
2.60261
2.59706
2.58859
2.57885
2.56304
2.53752
2.51038
2.4913
2.47981
2.47285
2.46661
2.46075
2.45558
2.44966
2.4433
2.43693
2.43003
2.42169
2.41124
2.39995
2.38975
2.381
2.37359
2.36643
2.35829
2.35147
2.34625
2.34006
2.33214
2.31949
2.30987
2.30352
2.29963
2.29933
2.29587
2.28887
2.28106
2.26945
2.25106
2.23184
2.22006
2.21227
2.20618
2.20058
2.19638
2.19974
2.20897
2.2145
2.21995
2.22632
2.23334
2.24453
2.26606
2.28551
2.29939
2.30272
2.30172
2.30582
1.3752
1.37523
1.37408
1.37212
1.36903
1.36365
1.35489
1.34887
1.34634
1.34411
1.34172
1.33856
1.33209
1.31781
1.30625
1.30433
1.30257
1.30086
1.29918
1.29732
1.29522
1.29242
1.28667
1.27183
1.25327
1.24693
1.24603
1.24597
1.25101
1.25499
1.2537
1.25259
1.2515
1.24949
1.24227
1.22383
1.20379
1.19812
1.19733
1.19742
1.20148
1.2073
1.2075
1.20627
1.20497
1.20279
1.19683
1.18397
1.17226
1.16942
1.16861
1.16856
1.17108
1.17763
1.18544
1.19597
1.21054
1.22538
1.24373
1.26639
1.27707
1.27633
1.27711
1.28218
1.29104
1.30225
1.30451
1.30148
1.29626
1.28958
1.27923
1.26245
1.24553
1.23896
1.23716
1.23613
1.23578
1.23623
1.23738
1.23785
1.23753
1.23609
1.2336
1.22897
1.22126
1.21606
1.21684
1.24013
1.45107
2.09085
2.67118
3.22075
3.34045
3.31722
3.35626
3.38542
3.41659
3.48912
3.57001
3.59389
3.59661
3.58649
3.57293
3.55364
3.52678
3.50396
3.4803
3.45355
3.42938
3.40334
3.37591
3.35418
3.33532
3.31472
3.29659
3.28689
3.28106
3.27866
3.26762
3.25106
3.22581
3.19146
3.1666
3.15585
3.1498
3.14958
3.15771
3.1553
3.14338
3.12364
3.08914
3.05329
3.03828
3.03164
3.02897
3.03673
3.0364
3.02727
3.01551
2.9937
2.95821
2.93485
2.92414
2.91764
2.91503
2.92461
2.9387
2.93396
2.92406
2.90823
2.87337
2.83168
2.81342
2.80594
2.79985
2.7957
2.7987
2.81164
2.8137
2.80546
2.79631
2.78648
2.77539
2.7669
2.76186
2.75817
2.755
2.75034
2.74315
2.73941
2.74241
2.74901
2.75942
2.7742
2.78805
2.79382
2.7918
2.7825
2.76933
2.75895
2.74675
2.73414
2.72435
2.71493
2.70462
2.69358
2.68016
2.65966
2.63609
2.62108
2.61238
2.60457
2.59837
2.59698
2.60279
2.60513
2.59879
2.59052
2.58093
2.56327
2.52975
2.49747
2.48176
2.47386
2.46752
2.46133
2.45553
2.44948
2.44221
2.43523
2.42942
2.42523
2.42105
2.41442
2.40558
2.39385
2.3802
2.3677
2.3559
2.34567
2.33835
2.33333
2.33313
2.33022
2.32378
2.31876
2.3132
2.30452
2.29447
2.28466
2.27855
2.27117
2.26131
2.24788
2.23331
2.21972
2.20924
2.20244
2.19712
2.19235
2.19025
2.19226
2.19467
2.19852
2.20476
2.21328
2.22
2.23177
2.25337
2.27433
2.28933
2.29295
2.29126
1.38999
1.38908
1.38765
1.38525
1.38142
1.37403
1.36436
1.3596
1.35702
1.35446
1.35131
1.34582
1.33304
1.31904
1.31607
1.31483
1.31336
1.31167
1.30982
1.30776
1.30513
1.30038
1.2877
1.26833
1.25874
1.25769
1.25726
1.26088
1.26658
1.26569
1.26412
1.26282
1.26094
1.25474
1.23762
1.21553
1.20749
1.20652
1.20664
1.21036
1.21497
1.21612
1.21515
1.21397
1.21218
1.20763
1.19572
1.18161
1.17682
1.17567
1.1749
1.1751
1.1778
1.18166
1.18428
1.18664
1.19092
1.19779
1.20811
1.22578
1.24947
1.26113
1.26783
1.28023
1.29828
1.30711
1.30704
1.30455
1.2985
1.2891
1.27403
1.25575
1.24831
1.24673
1.24495
1.24379
1.24387
1.24474
1.24522
1.24464
1.24304
1.24028
1.2348
1.2261
1.22103
1.22611
1.28341
1.55107
2.32698
2.93946
3.20771
3.3512
3.34396
3.31666
3.31256
3.36467
3.40121
3.44393
3.49718
3.54677
3.56556
3.56854
3.56218
3.54894
3.5285
3.51065
3.48919
3.46727
3.44652
3.42039
3.38414
3.35307
3.33184
3.31661
3.30571
3.29933
3.29641
3.28648
3.27158
3.24559
3.20684
3.17688
3.16186
3.15412
3.15207
3.16303
3.16503
3.1542
3.13586
3.10286
3.06309
3.04313
3.03406
3.02831
3.02699
3.02766
3.02209
3.0137
3.0008
2.97551
2.94699
2.93144
2.92455
2.921
2.92447
2.93495
2.93185
2.92322
2.9119
2.88866
2.84927
2.82043
2.80991
2.80428
2.80036
2.80107
2.81166
2.81724
2.80985
2.79921
2.78718
2.77469
2.767
2.76214
2.75833
2.75553
2.7522
2.74696
2.74002
2.72921
2.72163
2.72276
2.72781
2.7381
2.7533
2.76732
2.77368
2.77219
2.7712
2.76789
2.75838
2.74571
2.73247
2.71838
2.70409
2.68952
2.67158
2.64605
2.62364
2.61439
2.60687
2.59963
2.59503
2.59875
2.60625
2.60363
2.59613
2.58864
2.57814
2.55763
2.52465
2.49607
2.47963
2.46964
2.46353
2.45807
2.45221
2.44541
2.43795
2.43088
2.42525
2.4217
2.41921
2.41372
2.40609
2.39649
2.38146
2.36326
2.34884
2.33761
2.32889
2.32199
2.31772
2.32305
2.32828
2.32532
2.31834
2.3091
2.29603
2.28
2.26643
2.25722
2.24891
2.24139
2.23368
2.22479
2.21378
2.20318
2.19614
2.19076
2.18605
2.18198
2.17848
2.17859
2.18225
2.18937
2.20094
2.21121
2.22272
2.24284
2.26749
2.28103
2.28338
1.40486
1.40355
1.40161
1.39886
1.39368
1.38312
1.37385
1.37017
1.36739
1.36419
1.35925
1.34801
1.33275
1.32799
1.32692
1.32582
1.32436
1.32252
1.32045
1.31797
1.31403
1.3038
1.28463
1.27124
1.26957
1.26892
1.27113
1.27797
1.27847
1.27668
1.27523
1.27323
1.26744
1.25122
1.22764
1.21718
1.21595
1.21592
1.22023
1.22438
1.22491
1.22448
1.22352
1.22189
1.2181
1.20768
1.19266
1.18586
1.18455
1.18358
1.18333
1.18452
1.18586
1.18609
1.18492
1.1839
1.18275
1.18078
1.18285
1.19165
1.2123
1.23903
1.25537
1.27459
1.299
1.30441
1.30437
1.30305
1.29732
1.28485
1.26699
1.25746
1.25638
1.25665
1.25569
1.2535
1.25287
1.25271
1.25219
1.25078
1.24782
1.24167
1.23142
1.22641
1.23999
1.37857
1.77828
2.52148
3.20334
3.2743
3.32401
3.32143
3.333
3.32899
3.32348
3.32947
3.35855
3.3874
3.42833
3.47853
3.52414
3.5489
3.55528
3.54714
3.52833
3.5126
3.49858
3.47691
3.45416
3.42752
3.38964
3.35781
3.33931
3.32545
3.31752
3.31269
3.30274
3.28985
3.2666
3.2277
3.19051
3.1716
3.16319
3.15997
3.16969
3.17267
3.16033
3.14299
3.1137
3.07482
3.05071
3.03967
3.03352
3.03208
3.02711
3.01731
3.00701
2.99426
2.9764
2.9568
2.94309
2.93576
2.93073
2.93137
2.93662
2.93115
2.92114
2.91043
2.89418
2.86563
2.83524
2.82101
2.81361
2.80832
2.8071
2.81474
2.82209
2.81652
2.80655
2.7955
2.78042
2.76821
2.76174
2.75631
2.75156
2.74745
2.74315
2.73752
2.73042
2.72192
2.71043
2.70316
2.70382
2.70992
2.72188
2.7371
2.75011
2.75779
2.76493
2.76871
2.76392
2.7536
2.74055
2.72468
2.70669
2.68622
2.66178
2.63372
2.61737
2.60965
2.60249
2.59638
2.59438
2.60159
2.60525
2.59763
2.58927
2.58024
2.56676
2.54619
2.52349
2.50466
2.48544
2.46644
2.4576
2.45259
2.44704
2.44065
2.43425
2.42834
2.42353
2.41994
2.41546
2.40954
2.40316
2.394
2.37941
2.36101
2.34524
2.33342
2.32369
2.31623
2.31186
2.31656
2.32647
2.32407
2.31659
2.30852
2.29748
2.27784
2.25588
2.24555
2.23925
2.23357
2.22958
2.22476
2.21882
2.21022
2.19831
2.18782
2.18054
2.17403
2.16689
2.16265
2.16243
2.16802
2.17843
2.19128
2.20433
2.21608
2.23386
2.2584
2.27092
1.42111
1.41934
1.41677
1.41296
1.40381
1.39029
1.38375
1.3806
1.37739
1.37283
1.36312
1.34727
1.34005
1.33911
1.33826
1.33706
1.33535
1.33334
1.33093
1.32742
1.31953
1.30183
1.28493
1.2818
1.28098
1.28197
1.28901
1.29194
1.29003
1.28846
1.28652
1.28079
1.26464
1.23982
1.22708
1.22556
1.22528
1.22973
1.23509
1.23492
1.2343
1.2336
1.23218
1.22884
1.21917
1.20428
1.19584
1.19421
1.19314
1.19249
1.19299
1.19392
1.19252
1.19058
1.18847
1.18465
1.17715
1.17107
1.17086
1.17385
1.18471
1.20942
1.2362
1.26236
1.29056
1.29832
1.29959
1.2993
1.29256
1.27602
1.26453
1.26327
1.26414
1.26785
1.26742
1.26426
1.26144
1.25953
1.25776
1.25515
1.24931
1.23807
1.23299
1.25463
1.46412
2.09279
2.71825
3.26997
3.41518
3.3849
3.34622
3.32926
3.31387
3.32766
3.32077
3.31743
3.32071
3.33535
3.35996
3.40445
3.45384
3.50765
3.53915
3.54226
3.53166
3.52079
3.51003
3.48855
3.46382
3.43192
3.39515
3.37094
3.35511
3.34302
3.33314
3.32071
3.30726
3.28507
3.24898
3.20866
3.18574
3.17537
3.16961
3.17323
3.1732
3.16187
3.14732
3.12135
3.08278
3.05651
3.0472
3.04082
3.0378
3.03336
3.02456
3.01166
2.9936
2.9705
2.95185
2.94337
2.93799
2.93529
2.93933
2.94332
2.93649
2.92593
2.9123
2.89344
2.86858
2.84615
2.83175
2.82328
2.81753
2.81459
2.81762
2.82394
2.82041
2.8118
2.80295
2.79218
2.77901
2.76747
2.7586
2.75072
2.74319
2.73592
2.72828
2.72125
2.71566
2.70954
2.70126
2.69389
2.68824
2.68751
2.69322
2.7089
2.72673
2.74133
2.75386
2.76277
2.76081
2.75316
2.74101
2.72551
2.7076
2.68428
2.65442
2.6301
2.61815
2.60978
2.60253
2.59722
2.59651
2.60053
2.59699
2.58745
2.57791
2.56648
2.55132
2.53582
2.52555
2.51681
2.50377
2.47991
2.45555
2.44521
2.439
2.43346
2.42869
2.4256
2.42205
2.41671
2.41045
2.40336
2.39446
2.38479
2.37309
2.35823
2.34403
2.33266
2.3232
2.31538
2.31107
2.31698
2.3227
2.31661
2.30913
2.30218
2.29191
2.27357
2.25139
2.24068
2.23497
2.22955
2.22596
2.22566
2.22172
2.21523
2.2052
2.18952
2.17455
2.16432
2.15667
2.15112
2.14821
2.14922
2.15793
2.17008
2.18302
2.19569
2.20649
2.22171
2.24484
1.43937
1.43721
1.43388
1.42482
1.40817
1.398
1.39423
1.39097
1.38671
1.37844
1.36268
1.35252
1.35137
1.35075
1.34983
1.34828
1.34636
1.34402
1.34083
1.33475
1.31943
1.30033
1.29447
1.29355
1.29362
1.2997
1.30579
1.30449
1.3025
1.30046
1.29456
1.27789
1.25155
1.23724
1.23528
1.23493
1.2391
1.24598
1.24592
1.24493
1.24427
1.24294
1.24015
1.23122
1.21566
1.20593
1.2043
1.20318
1.20243
1.2022
1.20275
1.20202
1.19986
1.19758
1.19381
1.18364
1.1709
1.16852
1.16865
1.17001
1.17459
1.18731
1.21256
1.24059
1.26618
1.28076
1.28453
1.28495
1.27846
1.26706
1.26478
1.266
1.27223
1.27798
1.2765
1.27288
1.26878
1.26476
1.26128
1.25664
1.24513
1.24417
1.28973
1.55895
2.3076
2.93951
3.26094
3.42236
3.40769
3.36031
3.32599
3.32997
3.32741
3.3314
3.32926
3.30949
3.30739
3.3074
3.31007
3.32927
3.37828
3.43474
3.49612
3.5337
3.53674
3.53425
3.51692
3.49089
3.46196
3.4297
3.40561
3.3901
3.3774
3.36402
3.34677
3.32527
3.29725
3.26244
3.22637
3.20227
3.19158
3.18572
3.18371
3.17545
3.16372
3.14946
3.12548
3.08875
3.0625
3.05
3.04293
3.04082
3.03832
3.02981
3.01759
2.99932
2.97225
2.95137
2.94132
2.93522
2.93147
2.93672
2.94731
2.94306
2.93261
2.91779
2.89607
2.87015
2.85015
2.8409
2.83602
2.83301
2.83165
2.83288
2.83003
2.82059
2.81136
2.80345
2.79544
2.78693
2.77826
2.76934
2.76072
2.75148
2.74058
2.72829
2.71669
2.70648
2.69776
2.69083
2.68535
2.68092
2.67768
2.67636
2.67846
2.68566
2.70046
2.71949
2.74056
2.74975
2.74868
2.7431
2.73343
2.71962
2.7027
2.68092
2.65421
2.635
2.62325
2.61335
2.60524
2.59917
2.59186
2.58345
2.57609
2.56767
2.55865
2.54904
2.53644
2.52976
2.52592
2.52121
2.51427
2.50052
2.47269
2.44605
2.43415
2.42712
2.42186
2.41948
2.41858
2.41318
2.40669
2.39888
2.38721
2.373
2.36234
2.35381
2.34551
2.33722
2.32974
2.32313
2.31882
2.31841
2.31458
2.30589
2.29646
2.28736
2.27863
2.26758
2.25135
2.23992
2.2344
2.2296
2.2272
2.22738
2.22264
2.21623
2.20788
2.19277
2.17235
2.1583
2.15
2.14428
2.13986
2.13738
2.13978
2.14882
2.15957
2.17254
2.1856
2.19449
2.20661
1.45814
1.45502
1.44573
1.42639
1.41248
1.40805
1.4049
1.40088
1.39385
1.37909
1.36587
1.36392
1.36343
1.36278
1.36133
1.35957
1.35735
1.35439
1.34937
1.33688
1.31722
1.30783
1.30676
1.30635
1.31094
1.31946
1.31962
1.3174
1.31493
1.30843
1.29096
1.26318
1.24761
1.24507
1.24482
1.249
1.257
1.25757
1.25621
1.2555
1.25422
1.25168
1.2437
1.22787
1.21608
1.21421
1.21354
1.2132
1.21271
1.21253
1.21261
1.21108
1.2088
1.20463
1.19424
1.17787
1.16976
1.16866
1.16855
1.16962
1.17377
1.1811
1.19619
1.21575
1.22953
1.24132
1.25307
1.25938
1.25952
1.2593
1.26155
1.26847
1.27916
1.28231
1.28087
1.27775
1.27307
1.26797
1.2626
1.25283
1.26118
1.36831
1.75266
2.55752
3.17712
3.26287
3.3425
3.42377
3.41887
3.37822
3.33712
3.32113
3.32634
3.32556
3.3281
3.3104
3.29756
3.29158
3.28718
3.28806
3.30955
3.35683
3.41528
3.48776
3.53273
3.53646
3.52273
3.49667
3.4675
3.44053
3.42128
3.40738
3.39407
3.37618
3.35051
3.31432
3.27187
3.23812
3.21919
3.20914
3.20409
3.19955
3.18909
3.17308
3.15047
3.12092
3.09168
3.07154
3.05802
3.05094
3.04737
3.04062
3.0303
3.01783
3.00061
2.97607
2.95632
2.94401
2.93629
2.93176
2.93383
2.94432
2.94305
2.9339
2.92151
2.90142
2.87059
2.84949
2.84186
2.8371
2.83656
2.84423
2.85195
2.84948
2.83809
2.81993
2.80124
2.79098
2.78346
2.77686
2.77109
2.76563
2.75942
2.75225
2.7431
2.72983
2.71203
2.69576
2.68349
2.67323
2.66659
2.66356
2.66086
2.66027
2.66323
2.6698
2.68321
2.70015
2.71638
2.72951
2.73084
2.72839
2.72093
2.70728
2.69103
2.67558
2.65949
2.64589
2.63616
2.62736
2.61743
2.60466
2.58888
2.57419
2.56076
2.54731
2.53501
2.52807
2.52577
2.52498
2.52341
2.51961
2.5147
2.50759
2.49193
2.46664
2.44483
2.43082
2.4205
2.41119
2.40365
2.39948
2.3954
2.38924
2.37918
2.36405
2.35408
2.34748
2.342
2.33699
2.33234
2.33089
2.32658
2.31791
2.30875
2.29923
2.28839
2.27583
2.26406
2.25693
2.25073
2.24353
2.23814
2.23413
2.23117
2.22512
2.21863
2.21287
2.20628
2.19512
2.17571
2.15723
2.14714
2.14026
2.13508
2.1312
2.12987
2.13263
2.13768
2.14514
2.15883
2.17401
2.18197
1.47513
1.46578
1.44479
1.4272
1.42201
1.41904
1.41523
1.40905
1.39596
1.38058
1.37707
1.37635
1.37606
1.37474
1.373
1.37091
1.36821
1.36395
1.35415
1.33516
1.3221
1.32049
1.31993
1.32327
1.33281
1.33497
1.33267
1.32966
1.32241
1.30415
1.27475
1.25788
1.25501
1.25482
1.25926
1.26858
1.26995
1.26819
1.26727
1.26607
1.26376
1.25631
1.24031
1.22675
1.22419
1.22359
1.22429
1.22467
1.22416
1.22416
1.22331
1.22107
1.21602
1.20443
1.18736
1.17645
1.17431
1.17317
1.17302
1.17403
1.17668
1.18256
1.18998
1.1957
1.19895
1.20312
1.21286
1.22686
1.23934
1.24827
1.25714
1.26985
1.27956
1.28081
1.28011
1.27746
1.27226
1.26709
1.25952
1.27903
1.48376
2.04494
2.7126
3.31711
3.45521
3.4241
3.43158
3.43517
3.42078
3.37354
3.33432
3.31969
3.32308
3.32547
3.32666
3.31358
3.29529
3.28573
3.27333
3.25896
3.25966
3.28238
3.32477
3.39702
3.48767
3.51332
3.51217
3.49435
3.47964
3.4654
3.44522
3.42449
3.40478
3.37734
3.33527
3.28319
3.24989
3.23292
3.22245
3.21855
3.21538
3.20396
3.18662
3.15942
3.12016
3.08767
3.07297
3.06465
3.06013
3.0592
3.05239
3.04129
3.02636
3.00343
2.9771
2.95858
2.94628
2.93947
2.93486
2.93617
2.9448
2.94304
2.93322
2.92168
2.90507
2.87777
2.85267
2.83959
2.83344
2.82992
2.83526
2.85091
2.85807
2.85242
2.84181
2.82486
2.79673
2.77853
2.77018
2.76337
2.7587
2.75727
2.75352
2.74711
2.73966
2.72972
2.71435
2.69433
2.67531
2.66085
2.65244
2.64738
2.64334
2.64197
2.64575
2.65227
2.66321
2.6798
2.69308
2.70062
2.70427
2.70447
2.70123
2.69027
2.67662
2.66939
2.66268
2.65423
2.64619
2.63867
2.62872
2.61426
2.59256
2.56633
2.54466
2.53011
2.52006
2.51386
2.51212
2.51792
2.51787
2.51468
2.51101
2.50566
2.49454
2.48082
2.46804
2.45342
2.43355
2.4107
2.39493
2.38462
2.37867
2.37308
2.36568
2.35771
2.35181
2.34554
2.33961
2.3362
2.33754
2.33374
2.32555
2.317
2.30576
2.29275
2.27999
2.2679
2.25645
2.24882
2.24499
2.24238
2.23983
2.23671
2.23059
2.22303
2.21602
2.20941
2.20283
2.19487
2.18352
2.1672
2.15098
2.14002
2.1325
2.12701
2.12354
2.12248
2.12278
2.12413
2.12954
2.14379
2.1612
1.48567
1.46385
1.44258
1.43605
1.43343
1.42994
1.42433
1.41293
1.39674
1.39111
1.39016
1.38961
1.3886
1.38685
1.38481
1.3823
1.37864
1.37101
1.35372
1.33758
1.33495
1.33418
1.33665
1.34606
1.3499
1.34774
1.34431
1.33654
1.31754
1.2866
1.26839
1.26521
1.26506
1.26977
1.28072
1.28324
1.28126
1.28
1.2788
1.27654
1.26901
1.25277
1.23787
1.2344
1.2338
1.23525
1.23775
1.23739
1.23701
1.23635
1.23397
1.22741
1.21376
1.19598
1.18553
1.18333
1.18261
1.182
1.18206
1.18255
1.18373
1.18611
1.18756
1.18678
1.18245
1.17877
1.18338
1.19563
1.21497
1.23357
1.24967
1.26583
1.27561
1.27689
1.27657
1.27396
1.26949
1.26546
1.30047
1.57404
2.33334
2.93093
3.32069
3.49675
3.49559
3.45418
3.40946
3.39119
3.37854
3.37791
3.35566
3.34411
3.34101
3.33395
3.32147
3.30442
3.28205
3.26829
3.25563
3.23738
3.22712
3.23297
3.25536
3.30274
3.38786
3.44733
3.47367
3.48101
3.48121
3.4795
3.46056
3.43475
3.40445
3.36381
3.30662
3.2638
3.24531
3.23444
3.22912
3.22445
3.21257
3.19783
3.17303
3.13071
3.09526
3.07831
3.06815
3.06179
3.06297
3.06305
3.05275
3.0386
3.01622
2.9839
2.95895
2.94683
2.93985
2.93544
2.93734
2.94636
2.94502
2.93566
2.92514
2.90835
2.883
2.85805
2.84275
2.83557
2.83083
2.83139
2.84277
2.85327
2.85073
2.84219
2.83303
2.82244
2.80387
2.77867
2.76357
2.75515
2.74923
2.74882
2.74687
2.7393
2.73157
2.72268
2.7095
2.6923
2.67539
2.66034
2.64795
2.64027
2.63494
2.63074
2.63032
2.63502
2.64356
2.65643
2.66738
2.67032
2.67348
2.67887
2.67871
2.67192
2.66455
2.66113
2.66135
2.65747
2.65006
2.64295
2.6338
2.62036
2.59818
2.56574
2.53814
2.52362
2.51465
2.50741
2.50183
2.49954
2.50151
2.50102
2.49827
2.49444
2.48882
2.48285
2.47686
2.46786
2.4537
2.42921
2.39796
2.37676
2.36228
2.35575
2.35237
2.35092
2.35035
2.34684
2.34457
2.34573
2.34168
2.33225
2.32254
2.31138
2.29776
2.28354
2.27293
2.26356
2.2549
2.24831
2.24378
2.24005
2.23576
2.2309
2.22579
2.2194
2.2115
2.20325
2.19689
2.19173
2.18561
2.17765
2.16641
2.15066
2.13548
2.12499
2.11727
2.11328
2.11104
2.10996
2.10997
2.11415
2.12843
1.48397
1.45877
1.45009
1.4479
1.44476
1.43979
1.43011
1.41418
1.40623
1.40501
1.40406
1.40292
1.40118
1.39919
1.39681
1.3936
1.38751
1.37234
1.35427
1.34996
1.34917
1.35089
1.35952
1.36412
1.36211
1.35855
1.35064
1.33144
1.29917
1.27924
1.27559
1.27545
1.28032
1.29324
1.29771
1.29576
1.29413
1.29278
1.29035
1.28193
1.26463
1.24892
1.24477
1.24424
1.24629
1.25169
1.25185
1.25091
1.24994
1.24709
1.23821
1.22224
1.20443
1.19519
1.19321
1.19295
1.19362
1.19345
1.19326
1.19252
1.19177
1.19078
1.18849
1.18218
1.17101
1.16767
1.1702
1.17663
1.19145
1.21389
1.23568
1.25596
1.26809
1.27025
1.26944
1.26793
1.27543
1.35243
1.70673
2.54524
3.16385
3.32885
3.4342
3.49162
3.48018
3.44438
3.39895
3.37661
3.36983
3.37402
3.37646
3.36041
3.35026
3.33787
3.3151
3.28632
3.26222
3.24505
3.23262
3.2202
3.20999
3.20466
3.21166
3.23077
3.27772
3.34648
3.39845
3.44119
3.4693
3.47152
3.45629
3.42702
3.38861
3.33616
3.28611
3.26005
3.24629
3.23775
3.231
3.21869
3.20331
3.18128
3.1453
3.10935
3.08888
3.07811
3.07011
3.0679
3.06727
3.05722
3.04479
3.0267
2.99799
2.96967
2.95368
2.94436
2.93842
2.93802
2.94521
2.94348
2.93404
2.92428
2.90915
2.88506
2.8597
2.84688
2.83968
2.83429
2.83306
2.83804
2.84414
2.84237
2.83396
2.82602
2.81869
2.81093
2.80202
2.78809
2.77279
2.761
2.75224
2.74655
2.73977
2.73082
2.72157
2.71118
2.69777
2.68336
2.67103
2.65938
2.64804
2.63974
2.6335
2.62828
2.62488
2.62487
2.62692
2.62978
2.63552
2.6397
2.64179
2.64811
2.65304
2.65301
2.65163
2.65253
2.65903
2.65975
2.65169
2.64267
2.63293
2.61962
2.60047
2.57495
2.54895
2.53107
2.5184
2.5071
2.49635
2.48766
2.48292
2.47894
2.47554
2.47455
2.47766
2.47876
2.47601
2.47051
2.4617
2.44698
2.41791
2.37928
2.35581
2.34468
2.33961
2.33594
2.33674
2.34619
2.35285
2.35127
2.34195
2.33145
2.31859
2.30246
2.28881
2.2782
2.26881
2.2623
2.25691
2.25184
2.24648
2.24003
2.23175
2.22089
2.21161
2.20609
2.20141
2.19628
2.19127
2.18719
2.18453
2.18108
2.17565
2.16596
2.14834
2.12805
2.11416
2.10457
2.10033
2.09796
2.09638
2.09581
2.09929
1.47631
1.46415
1.46223
1.45955
1.45528
1.44752
1.43299
1.42251
1.42076
1.41951
1.41809
1.41621
1.41418
1.41191
1.409
1.40387
1.39079
1.37196
1.36546
1.36468
1.36581
1.37333
1.37765
1.37561
1.37208
1.36454
1.34592
1.31286
1.29089
1.28653
1.28631
1.29102
1.30577
1.3133
1.31176
1.3099
1.30833
1.3052
1.29473
1.27591
1.25978
1.25531
1.2549
1.25762
1.26574
1.26748
1.26577
1.2641
1.25954
1.24793
1.23
1.21316
1.2054
1.20357
1.20357
1.20563
1.20526
1.20464
1.20386
1.20227
1.2001
1.19665
1.18878
1.17481
1.16581
1.1653
1.1671
1.17269
1.18023
1.19498
1.2146
1.23337
1.2481
1.25252
1.25595
1.27407
1.45163
1.92547
2.70714
3.35299
3.36818
3.42046
3.45173
3.49101
3.46405
3.43069
3.39
3.36146
3.36004
3.36329
3.37048
3.35866
3.34548
3.33229
3.31002
3.27544
3.24312
3.22443
3.21155
3.20241
3.19445
3.18628
3.18013
3.17944
3.19393
3.23955
3.29889
3.36718
3.4264
3.43435
3.4278
3.4018
3.35507
3.30567
3.2805
3.26439
3.25226
3.24111
3.22709
3.20964
3.18595
3.15243
3.1208
3.10481
3.09492
3.08785
3.084
3.07579
3.06308
3.04791
3.0287
3.00442
2.98103
2.96856
2.96005
2.954
2.9533
2.95461
2.94622
2.9337
2.92059
2.90348
2.88203
2.85975
2.84641
2.83934
2.83473
2.8356
2.84334
2.8439
2.83434
2.82359
2.81383
2.80594
2.79942
2.79465
2.79048
2.78499
2.7798
2.77196
2.76045
2.74664
2.73426
2.72271
2.71045
2.69765
2.68423
2.67223
2.66306
2.6536
2.64352
2.63685
2.63216
2.62827
2.62449
2.62038
2.61523
2.60956
2.60494
2.6043
2.60694
2.61274
2.62269
2.63059
2.63785
2.64491
2.65314
2.65322
2.64617
2.6364
2.62655
2.61417
2.59841
2.5826
2.56813
2.55323
2.53616
2.51634
2.49724
2.48174
2.4694
2.46231
2.45808
2.45547
2.45663
2.46719
2.47378
2.46949
2.46078
2.44943
2.43191
2.40014
2.36352
2.34314
2.33427
2.33006
2.32862
2.33812
2.35152
2.34902
2.33934
2.32872
2.31376
2.29482
2.28161
2.27404
2.26799
2.26262
2.25817
2.25349
2.2477
2.24062
2.23106
2.2182
2.2047
2.19439
2.18839
2.1851
2.18549
2.18623
2.1848
2.18217
2.17765
2.17131
2.16047
2.14013
2.11672
2.10172
2.09218
2.08781
2.08516
2.08298
2.0818
1.47883
1.47653
1.47426
1.47056
1.46467
1.45293
1.44009
1.43727
1.43577
1.43408
1.43214
1.42999
1.42772
1.42501
1.42059
1.40905
1.38997
1.38118
1.38037
1.3812
1.38739
1.39064
1.38843
1.38495
1.37796
1.36077
1.32804
1.3038
1.29832
1.29793
1.30213
1.31814
1.32971
1.3291
1.3272
1.32534
1.32077
1.30753
1.28661
1.27042
1.26595
1.26566
1.26938
1.27969
1.28324
1.28125
1.27822
1.27104
1.2569
1.23745
1.22227
1.21603
1.21454
1.21504
1.21792
1.21739
1.21615
1.21522
1.21357
1.21145
1.20799
1.20034
1.18516
1.17049
1.16664
1.16625
1.16742
1.17283
1.17979
1.18611
1.19654
1.20724
1.21811
1.21828
1.25005
1.52171
2.24014
2.83321
3.31955
3.48228
3.46894
3.4686
3.47707
3.47691
3.44027
3.3909
3.35638
3.34103
3.34587
3.35068
3.35892
3.3491
3.33108
3.31772
3.29681
3.25855
3.22163
3.2046
3.19199
3.18187
3.17364
3.16347
3.1534
3.14666
3.14592
3.16261
3.20596
3.26716
3.34595
3.37264
3.3741
3.35449
3.31198
3.28604
3.27486
3.26877
3.25749
3.24069
3.22116
3.1937
3.15517
3.12614
3.113
3.10424
3.10068
3.10121
3.09292
3.07868
3.05924
3.03374
3.00417
2.98322
2.97239
2.96433
2.96087
2.96587
2.96996
2.96187
2.94838
2.93081
2.90623
2.87644
2.85186
2.84074
2.83459
2.83083
2.83405
2.84503
2.84691
2.83747
2.82358
2.80708
2.79521
2.7869
2.77968
2.77463
2.77628
2.78417
2.78333
2.77514
2.76484
2.7496
2.72954
2.71247
2.69779
2.68541
2.67439
2.66326
2.65427
2.64606
2.63805
2.63299
2.63053
2.62662
2.62144
2.61565
2.60711
2.59494
2.58346
2.57738
2.5767
2.57959
2.59132
2.60581
2.62046
2.63421
2.64403
2.64416
2.63915
2.62908
2.6171
2.60496
2.59455
2.58663
2.57832
2.56787
2.55394
2.53372
2.50575
2.47913
2.46093
2.45031
2.44518
2.4417
2.43964
2.44203
2.45169
2.45711
2.45346
2.44555
2.4342
2.41726
2.39277
2.36188
2.33882
2.33036
2.32661
2.3256
2.32835
2.32884
2.32379
2.31582
2.3047
2.28916
2.27952
2.2731
2.26705
2.26194
2.25717
2.25207
2.24649
2.24008
2.2314
2.21842
2.20298
2.19012
2.17977
2.1728
2.17007
2.17163
2.17773
2.18048
2.17692
2.1707
2.16274
2.15117
2.13072
2.10563
2.08969
2.08048
2.07546
2.07225
2.06955
1.49105
1.48903
1.48576
1.48112
1.47293
1.45974
1.45418
1.45257
1.45084
1.44881
1.44668
1.44442
1.44177
1.43773
1.42715
1.4081
1.39706
1.39598
1.39644
1.40128
1.4032
1.4007
1.39734
1.39105
1.3756
1.34453
1.31799
1.31125
1.31071
1.31421
1.33068
1.34635
1.34716
1.34538
1.34309
1.33691
1.32069
1.2968
1.28088
1.27681
1.27665
1.28144
1.29352
1.29847
1.29647
1.29202
1.28216
1.26545
1.24517
1.23197
1.22693
1.22593
1.22726
1.23084
1.23008
1.22822
1.22674
1.22492
1.22274
1.2197
1.21352
1.19909
1.18123
1.17369
1.17235
1.17211
1.17427
1.17829
1.18191
1.18545
1.18896
1.18884
1.19303
1.25042
1.56037
2.42395
3.01667
3.27563
3.42785
3.4676
3.46822
3.45597
3.42757
3.40879
3.38464
3.35677
3.34071
3.33559
3.33818
3.34132
3.34041
3.32443
3.3051
3.28792
3.26679
3.23506
3.20502
3.18772
3.17398
3.16041
3.14846
3.13686
3.12544
3.11791
3.11407
3.11891
3.144
3.17382
3.21242
3.25863
3.28029
3.27957
3.27177
3.26617
3.27008
3.26876
3.25178
3.23126
3.20368
3.16395
3.13183
3.11689
3.10766
3.10578
3.11162
3.10686
3.09347
3.07412
3.04722
3.01236
2.98683
2.97374
2.96512
2.96151
2.96931
2.97931
2.97392
2.96173
2.94501
2.91986
2.88597
2.8541
2.83694
2.82814
2.8221
2.82309
2.83727
2.84403
2.83649
2.82487
2.80898
2.79045
2.77913
2.77147
2.76487
2.76154
2.76979
2.78193
2.78059
2.7726
2.76264
2.74577
2.72167
2.70185
2.69006
2.68038
2.67041
2.65927
2.6502
2.64353
2.63692
2.63176
2.62771
2.62221
2.61564
2.60724
2.59597
2.58047
2.56583
2.55815
2.55532
2.55611
2.5632
2.58101
2.59829
2.61746
2.62575
2.62608
2.62309
2.61436
2.60599
2.60016
2.5945
2.58902
2.58246
2.57423
2.56312
2.54637
2.51884
2.48381
2.45926
2.44584
2.43718
2.43241
2.4292
2.42714
2.4276
2.43069
2.43382
2.4326
2.42618
2.41967
2.41107
2.39883
2.37824
2.34802
2.32842
2.32114
2.3163
2.30994
2.30222
2.29652
2.29325
2.28764
2.28169
2.27661
2.27036
2.26271
2.25488
2.24847
2.24326
2.23763
2.23072
2.22106
2.20717
2.1916
2.17834
2.16724
2.15932
2.15631
2.15504
2.15805
2.16435
2.16504
2.15968
2.1521
2.14143
2.12269
2.09657
2.07868
2.06868
2.06271
2.05922
1.50395
1.50113
1.49727
1.49161
1.48124
1.47202
1.46969
1.46797
1.46613
1.46402
1.46181
1.45931
1.45548
1.4453
1.42618
1.41305
1.41149
1.41148
1.41471
1.41528
1.41278
1.40953
1.40399
1.39024
1.36178
1.33369
1.32532
1.32467
1.32774
1.34413
1.36288
1.36537
1.3636
1.36108
1.35337
1.33429
1.30726
1.29148
1.28783
1.28784
1.29381
1.30745
1.31291
1.31096
1.30552
1.29336
1.27383
1.25356
1.24246
1.23864
1.23806
1.24016
1.24405
1.24339
1.24091
1.23853
1.23635
1.23404
1.23111
1.2261
1.21374
1.19525
1.18402
1.18223
1.18197
1.18375
1.18545
1.18582
1.18652
1.18778
1.18583
1.19848
1.32715
1.70093
2.48962
3.17267
3.28239
3.34194
3.39126
3.4088
3.38776
3.37898
3.36739
3.34489
3.33683
3.3296
3.32698
3.32907
3.32626
3.32265
3.31391
3.29136
3.26242
3.23976
3.2216
3.20617
3.19268
3.17732
3.15785
3.13809
3.12074
3.10902
3.10068
3.09847
3.10055
3.10084
3.10333
3.10584
3.10782
3.13313
3.17051
3.19935
3.22224
3.24511
3.26262
3.25709
3.23793
3.2098
3.16962
3.13609
3.12182
3.11153
3.10816
3.11469
3.11098
3.09749
3.08228
3.06092
3.02553
2.99925
2.98587
2.97588
2.97012
2.97479
2.98528
2.98074
2.96829
2.95244
2.93202
2.89975
2.86652
2.84871
2.83677
2.82821
2.82389
2.82948
2.83645
2.82991
2.82084
2.80889
2.79264
2.77591
2.76574
2.75825
2.75248
2.75349
2.76903
2.77795
2.77143
2.76182
2.75067
2.73267
2.70982
2.69387
2.68339
2.67496
2.66694
2.65853
2.65198
2.6481
2.64279
2.63455
2.62534
2.61534
2.60397
2.59214
2.57925
2.56518
2.55411
2.54771
2.54407
2.54373
2.54772
2.55973
2.57438
2.58742
2.59903
2.60274
2.60191
2.59695
2.59277
2.58939
2.59155
2.59117
2.584
2.57544
2.56532
2.55047
2.52881
2.50091
2.47264
2.45036
2.43608
2.42701
2.42138
2.41752
2.41411
2.41044
2.40824
2.41343
2.42019
2.41934
2.41576
2.41121
2.4035
2.38463
2.34733
2.31726
2.30301
2.29297
2.28401
2.27766
2.2753
2.28188
2.2849
2.28025
2.27398
2.26626
2.2567
2.24641
2.23996
2.23472
2.22943
2.22318
2.21508
2.20294
2.1859
2.16814
2.15463
2.14599
2.14245
2.14005
2.1407
2.14781
2.15188
2.14791
2.14153
2.13298
2.11643
2.08938
2.06795
2.05692
2.05049
1.51652
1.51355
1.50941
1.50238
1.49202
1.48738
1.48542
1.48368
1.48179
1.47962
1.47719
1.47364
1.46403
1.44437
1.4289
1.42667
1.4263
1.42786
1.42742
1.425
1.42187
1.41701
1.40495
1.37945
1.35066
1.34045
1.33968
1.34239
1.35855
1.37934
1.38322
1.38142
1.37861
1.36959
1.34815
1.31836
1.30259
1.29921
1.29927
1.30619
1.32144
1.32706
1.32497
1.31877
1.30488
1.28258
1.26273
1.25354
1.25107
1.25106
1.25413
1.25748
1.25659
1.25403
1.25096
1.24803
1.24545
1.24257
1.23794
1.22726
1.20986
1.19615
1.19366
1.19306
1.19511
1.19741
1.19603
1.19382
1.19424
1.19194
1.2094
1.40622
2.02694
2.6072
3.16598
3.33208
3.34773
3.36162
3.35922
3.34801
3.32849
3.31248
3.30248
3.29743
3.30511
3.30438
3.31514
3.31462
3.30003
3.28969
3.27274
3.24159
3.20997
3.19522
3.1872
3.18211
3.17385
3.1618
3.14264
3.11443
3.09462
3.0841
3.07845
3.08302
3.09006
3.08306
3.0737
3.05966
3.03697
3.0415
3.07068
3.11265
3.16281
3.21354
3.23328
3.22882
3.20957
3.17446
3.13917
3.12155
3.11144
3.10731
3.11231
3.10939
3.09614
3.08202
3.06352
3.03519
3.00903
2.99364
2.98279
2.97618
2.98005
2.99111
2.98677
2.9742
2.95802
2.93736
2.90885
2.88141
2.86377
2.85297
2.84473
2.8399
2.84244
2.83948
2.82855
2.81632
2.80134
2.78697
2.7738
2.76392
2.75672
2.75122
2.74889
2.7531
2.7588
2.75799
2.75081
2.74261
2.73233
2.71641
2.69828
2.68643
2.67706
2.6689
2.66254
2.65798
2.65552
2.65383
2.6489