/*--------------------------------*- C++ -*----------------------------------*\
  =========                 |
  \\      /  F ield         | OpenFOAM: The Open Source CFD Toolbox
   \\    /   O peration     | Website:  https://openfoam.org
    \\  /    A nd           | Version:  7
     \\/     M anipulation  |
\*---------------------------------------------------------------------------*/
FoamFile
{
    version     2.0;
    format      ascii;
    class       volScalarField;
    location    "1.8";
    object      p;
}
// * * * * * * * * * * * * * * * * * * * * * * * * * * * * * * * * * * * * * //

dimensions      [1 -1 -2 0 0 0 0];

internalField   nonuniform List<scalar> 
16192
(
1
1
1
1
1
1
1
1
1
1
1
1
1
1
1
1
1
1
1
1
1
1
1
1
1
1
1
1
1
1
1
1
1
1
1
1
1
1
1
1
1
1
1
1
1
1
1
1
1
1
1
1
1
1
1
1
1
1
1
1
1
1
1
1
1
1
1
1
1
1
1
1
1
1
1
1
1
1
1
1
1
1
1
1
1
1
1
1
1
1
1
1
1
1
1
1
1
1
1
1
1
1
1
1
1
1
1
1
1
1
1
1
1
1
1
1
1
1
1
1
1
1
1
1
1
1
1
1
1
1
1
1
1
1
1
1
1
1
1
1
1
1
1
1
1
1
1
1
1
1
1
1
1
1
1
1
1
1
1
1
1
1
1
1
1
1
1
1
1
1
1
1
1
1
1
1
1
1
1
1
1
1
1
1
1
1
1
1
1
1
1
1
1
1
1
1
1
1
1
1
1
1
1
1
1
1
1
1
1
1
1
1
1
1
1
1
1
1
1
1
1
1
1
1
1
1
1
1
1
1
1
1
1
1
1
1
1
1
1
1
1
1
1
1
1
1
1
1
1
1
1
1
1
1
1
1
1
1
1
1
1
1
1
1
1
1
1
1
1
1
1
1
1
1
1
1
1
1
1
1
1
1
1
1
1
1
1
1
1
1
1
1
1
1
1
1
1
1
1
1
1
1
1
1
1
1
1
1
1
1
1
1
1
1
1
1
1
1
1
1
1
1
1
1
1
1
1
1
1
1
1
1
1
1
1
1
1
1
1
1
1
1
1
1
1
1
1
1
1
1
1
1
1
1
1
1
1
1
1
1
1
1
1
1
1
1
1
1
1
1
1
1
1
1
1
1
1
1
1
1
1
1
1
1
1
1
1
1
1
1
1
1
1
1
1
1
1
1
1
1
1
1
1
1
1
1
1
1
1
1
1
1
1
1
1
1
1
1
1
1
1
1
1
1
1
1
1
1
1
1
1
1
1
1
1
1
1
1
1
1
1
1
1
1
1
1
1
1
1
1
1
1
1
1
1
1
1
1
1
1
1
1
1
1
1
1
1
1
1
1
1
1
1
1
1
1
1
1
1
1
1
1
1
1
1
1
1
1
1
1
1
1
1
1
1
1
1
1
1
1
1
1
1
1
1
1
1
1
1
1
1
1
1
1
1
1
1
1
1
1
1
1
1
1
1
1
1
1
1
1
1
1
1
1
1
1
1
1
1
1
1
1
1
1
1
1
1
1
1
1
1
1
1
1
1
1
1
1
1
1
1
1
1
1
1
1
1
1
1
1
1
1
1
1
1
1
1
1
1
1
1
1
1
1
1
1
1
1
1
1
1
1
1
1
1
1
1
1
1
1
1
1
1
1
1
1
1
1
1
1
1
1
1
1
1
1
1
1
1
1
1
1
1
1
1
1
1
1
1
1
1
1
1
1
1
1
1
1
1
1
1
1
1
1
1
1
1
1
1
1
1
1
1
1
1
1
1
1
1
1
1
1
1
1
1
1
1
1
1
1
1
1
1
1
1
1
1
1
1
1
1
1
1
1
1
1
1
1
1
1
1
1
1
1
1
1
1
1
1
1
1
1
1
1
1
1
1
1
1
1
1
1
1
1
1
1
1
1
1
1
1
1
1
1
1
1
1
1
1
1
1
1
1
1
1
1
1
1
1
1
1
1
1
1
1
1
1
1
1
1
1
1
1
1
1
1
1
1
1
1
1
1
1
1
1
1
1
1
1
1
1
1
1
1
1
1
1
1
1
1
1
1
1
1
1
1
1
1
1
1
1
1
1
1
1
1
1
1
1
1
1
1
1
1
1
1
1
1
1
1
1
1
1
1
1
1
1
1
1
1
1
1
1
1
1
1
1
1
1
1
1
1
1
1
1
1
1
1
1
1
1
1
1
1
1
1
1
1
1
1
1
1
1
1
1
1
1
1
1
1
1
1
1
1
1
1
1
1
1
1
1
1
1
1
1
1
1
1
1
1
1
1
1
1
1
1
1
1
1
1
1
1
1
1
1
1
1
1
1
1
1
1
1
1
1
1
1
1
1
1
1
1
1
1
1
1
1
1
1
1
1
1
1
1
1
1
1
1
1
1
1
1
1
1
1
1
1
1
1
1
1
1
1
1
1
1
1
1
1
1
1
1
1
1
1
1
1
1
1
1
1
1
1
1
1
1
1
1
1
1
1
1
1
1
1
1
1
1
1
1
1
1
1
1
1
1
1
1
1
1
1
1
1
1
1
1
1
1
1
1
1
1
1
1
1
1
1
1
1
1
1
1
1
1
1
1
1
1
1
1
1
1
1
1
1
1
1
1
1
1
1
1
1
1
1
1
1
1
1
1
1
1
1
1
1
1
1
1
1
1
1
1
1
1
1
1
1
1
1
1
1
1
1
1
1
1
1
1
1
1
1
1
1
1
1
1
1
1
1
1
1
1
1
1
1
1
1
1
1
1
1
1
1
1
1
1
1
1
1
1
1
1
1
1
1
1
1
1
1
1
1
1
1
1
1
1
1
1
1
1
1
1
1
1
1
1
1
1
1
1
1
1
1
1
1
1
1
1
1
1
1
1
1
1
1
1
1
1
1
1
1
1
1
1
1
1
1
1
1
1
1
1
1
1
1
1
1
1
1
1
1
1
1
1
1
1
1
1
1
1
1
1
1
1
1
1
1
1
1
1
1
1
1
1
1
1
1
1
1
1
1
1
1
1
1
1
1
1
1
1
1
1
1
1
1
1
1
1
1
1
1
1
1
1
1
1
1
1
1
1
1
1
1
1
1
1
1
1
1
1
1
1
1
1
1
1
1
1
1
1
1
1
1
1
1
1
1
1
1
1
1
1
1
1
1
1
1
1
1
1
1
1
1
1
1
1
1
1
1
1
1
1
1
1
1
1
1
1
1
1
1
1
1
1
1.00012
1.00671
1.15944
2.23148
3.53329
4.23767
4.53396
4.55268
4.53303
4.52013
4.48412
4.45435
4.4413
4.48559
4.46419
4.39243
4.36259
4.35214
4.32124
4.28714
4.26569
4.26142
4.24375
4.21096
4.19942
4.19108
4.1685
4.14696
4.13585
4.11259
4.07934
4.05681
4.03331
4.01718
4.00492
3.9865
3.96377
3.93906
3.91823
3.89822
3.88612
3.88133
3.87522
3.86013
3.83692
3.80515
3.77316
3.7409
3.72204
3.71289
3.69858
3.67484
3.65221
3.64692
3.6511
3.66917
3.70572
3.77147
3.87403
3.93038
3.93947
3.92924
3.90343
3.89593
3.89677
3.89341
3.88253
3.86405
3.8273
3.77596
3.7224
3.6857
3.6708
3.66894
3.68131
3.67956
3.66618
3.63719
3.58752
3.51953
3.47363
3.44794
3.43616
3.43426
3.44963
3.47361
3.48039
3.47173
3.45065
3.42128
3.37327
3.28773
3.2067
3.1688
3.15691
3.15577
3.17928
3.24425
3.29505
3.29584
3.27849
3.24786
3.18999
3.0737
2.96799
2.92901
2.9187
2.91777
2.9361
2.99681
3.06121
3.07481
3.06608
3.04769
3.01861
2.96269
2.86028
2.7789
2.74991
2.74259
2.73949
2.74257
2.76584
2.79501
2.79379
2.78871
2.78686
2.78416
2.77855
2.7576
2.70033
2.60432
2.55502
2.54295
2.54024
2.5512
2.60832
2.67338
2.68129
2.66989
2.64477
2.58346
2.47288
2.40602
2.38809
2.38513
2.39077
2.42586
2.48106
2.49873
2.49241
2.47567
2.44428
2.3907
2.34708
2.32899
2.32504
2.32717
2.33153
2.32763
2.31337
2.28575
2.26276
2.25697
2.25492
2.26199
2.27766
2.27747
2.27085
2.25049
2.20113
2.12833
2.09654
2.09007
2.08992
2.09912
2.1518
2.2131
1
1
1
1
1
1
1
1
1
1
1
1
1
1
1
1
1
1
1
1
1
1
1
1
1
1
1
1
1
1
1
1
1
1
1
1
1
1
1
1
1
1
1
1
1
1
1
1
1
1
1
1
1
1.00006
1.00531
1.16436
2.00035
3.06799
4.23983
4.59679
4.5361
4.47777
4.47658
4.46415
4.48935
4.4612
4.4047
4.38853
4.36995
4.33712
4.30809
4.29116
4.29318
4.28954
4.25907
4.24378
4.23867
4.2213
4.18789
4.17276
4.15803
4.12622
4.09762
4.07919
4.05683
4.03811
4.01927
3.99636
3.97071
3.95099
3.93655
3.92659
3.92293
3.91658
3.89918
3.87147
3.83893
3.80856
3.77921
3.75468
3.73999
3.72423
3.70391
3.67633
3.65564
3.65237
3.65502
3.67345
3.69978
3.74345
3.82813
3.87581
3.8952
3.90105
3.91305
3.93227
3.94571
3.93586
3.91597
3.87823
3.82502
3.76983
3.73296
3.71865
3.71675
3.72817
3.72207
3.70429
3.6722
3.61705
3.55239
3.51279
3.4903
3.47993
3.48471
3.51033
3.52844
3.52228
3.50285
3.4767
3.44504
3.39442
3.31513
3.24455
3.20861
3.19833
3.19846
3.22733
3.29032
3.32872
3.32485
3.30645
3.27637
3.21984
3.10522
3.00099
2.96387
2.95485
2.95353
2.97457
3.03803
3.0942
3.10096
3.09161
3.07261
3.04349
2.98972
2.89444
2.81564
2.78564
2.77818
2.77533
2.77574
2.78653
2.81488
2.82662
2.82118
2.81809
2.81648
2.81184
2.79137
2.73308
2.63398
2.5827
2.56977
2.56693
2.57756
2.6343
2.69967
2.70733
2.69523
2.66921
2.60573
2.49633
2.43328
2.41645
2.41406
2.42253
2.46312
2.51425
2.52548
2.51726
2.49827
2.46352
2.40924
2.37071
2.35512
2.35189
2.35488
2.3585
2.35325
2.33723
2.30814
2.28247
2.27477
2.27283
2.28024
2.30069
2.30384
2.29739
2.27649
2.22646
2.15219
2.1191
2.11166
2.11176
2.12601
2.18069
2.26756
2.50338
1
1
1
1
1
1
1
1
1
1
1
1
1
1
1
1
1
1
1
1
1
1
1
1
1
1
1
1
1
1
1
1
1
1
1
1
1
1
1
1
1
1
1
1
1
1
1
1
1
1
1
1
1
1
1.00005
1.00536
1.10365
1.53106
2.86118
4.36647
4.41011
4.4588
4.48003
4.47883
4.44501
4.42195
4.41687
4.4056
4.36528
4.33055
4.31594
4.32495
4.32832
4.29317
4.27942
4.28365
4.2688
4.2293
4.20263
4.19506
4.16994
4.13537
4.11381
4.09129
4.06683
4.0513
4.03105
4.00608
3.98524
3.97372
3.96547
3.96112
3.95294
3.93327
3.90455
3.87291
3.8425
3.81404
3.78572
3.764
3.74834
3.73162
3.71055
3.6868
3.67777
3.67541
3.68046
3.68868
3.69076
3.70565
3.74587
3.78987
3.83601
3.88776
3.93999
3.97207
3.97296
3.96096
3.92888
3.88053
3.82273
3.78194
3.768
3.76537
3.7748
3.7656
3.74394
3.70751
3.64694
3.58781
3.55373
3.53549
3.52794
3.53988
3.56861
3.57484
3.55796
3.53147
3.50159
3.46405
3.41121
3.34389
3.28605
3.25249
3.24372
3.24723
3.28302
3.339
3.3592
3.35018
3.33084
3.30242
3.24927
3.13934
3.03556
2.99843
2.99009
2.98908
3.01282
3.07853
3.12598
3.12705
3.11671
3.09597
3.06577
3.01442
2.92895
2.85352
2.82183
2.81411
2.81137
2.81089
2.8136
2.82831
2.85405
2.85633
2.85257
2.851
2.8469
2.82558
2.76472
2.6625
2.6102
2.59658
2.59374
2.60436
2.66063
2.72611
2.73364
2.72085
2.69348
2.62747
2.52
2.46152
2.44577
2.44403
2.45616
2.50139
2.54752
2.55279
2.54293
2.52112
2.48181
2.42829
2.39521
2.38165
2.37902
2.38288
2.38575
2.37916
2.36083
2.32979
2.30255
2.29335
2.29159
2.29952
2.32386
2.33067
2.32411
2.30266
2.25166
2.17654
2.14229
2.13491
2.13319
2.15341
2.21619
2.34931
2.86742
3.99588
1
1
1
1
1
1
1
1
1
1
1
1
1
1
1
1
1
1
1
1
1
1
1
1
1
1
1
1
1
1
1
1
1
1
1
1
1
1
1
1
1
1
1
1
1
1
1
1
1
1
1
1
1
1
1
1.00003
1.00188
1.03363
1.39083
2.94927
4.00685
4.32343
4.50758
4.4909
4.45417
4.45375
4.45037
4.40339
4.35832
4.34437
4.3576
4.35762
4.31615
4.30403
4.31129
4.30015
4.26334
4.22598
4.21597
4.1991
4.16581
4.14074
4.12352
4.09758
4.07821
4.0654
4.04304
4.02266
4.01341
4.00299
3.99428
3.98235
3.96242
3.93568
3.90592
3.87694
3.84846
3.81787
3.78951
3.77259
3.75886
3.74373
3.7284
3.72153
3.71845
3.71524
3.70682
3.68855
3.66757
3.65984
3.6778
3.72212
3.79018
3.8806
3.96438
3.98419
3.98339
3.96573
3.92864
3.8795
3.83672
3.82108
3.81727
3.82383
3.81213
3.78658
3.74501
3.68033
3.62581
3.59603
3.58207
3.57684
3.59416
3.6191
3.61425
3.59149
3.56113
3.52347
3.4779
3.4276
3.37721
3.33083
3.30034
3.29301
3.30224
3.34417
3.38347
3.38483
3.37174
3.35202
3.32582
3.27777
3.17508
3.07218
3.03332
3.02495
3.02412
3.04958
3.11851
3.1611
3.15798
3.14357
3.11877
3.08468
3.03509
2.96449
2.89494
2.85908
2.85049
2.84691
2.84506
2.84401
2.84794
2.86923
2.89157
2.89073
2.88826
2.88429
2.86021
2.79512
2.68955
2.63712
2.62345
2.62061
2.63157
2.68783
2.75319
2.76075
2.74727
2.71801
2.64897
2.54369
2.49036
2.47552
2.4748
2.491
2.54031
2.58018
2.58108
2.5694
2.54393
2.49955
2.44814
2.42004
2.40878
2.40687
2.41182
2.41337
2.40474
2.38386
2.35058
2.32267
2.31284
2.31118
2.32026
2.34788
2.35753
2.35104
2.32902
2.27642
2.20107
2.16541
2.15871
2.15726
2.17747
2.2654
2.52332
3.37952
4.77623
5.76291
1
1
1
1
1
1
1
1
1
1
1
1
1
1
1
1
1
1
1
1
1
1
1
1
1
1
1
1
1
1
1
1
1
1
1
1
1
1
1
1
1
1
1
1
1
1
1
1
1
1
1
1
1
1
1
1
1.00001
1.00051
1.02249
1.40572
2.77418
3.75182
4.34314
4.51374
4.509
4.45937
4.40834
4.37938
4.36928
4.38797
4.38924
4.33594
4.32036
4.32634
4.32182
4.28807
4.24322
4.22864
4.22424
4.19276
4.16242
4.14844
4.13149
4.10555
4.09441
4.08206
4.06208
4.05297
4.0436
4.0245
4.00666
3.98807
3.96414
3.93688
3.91014
3.88345
3.85268
3.82005
3.79979
3.78707
3.77699
3.77013
3.76705
3.76536
3.75719
3.73768
3.70719
3.66859
3.64263
3.64197
3.65646
3.69386
3.76124
3.86544
3.95774
3.97897
3.97842
3.95605
3.92155
3.89312
3.88065
3.87641
3.87615
3.86272
3.83296
3.78593
3.71865
3.66652
3.63994
3.62893
3.62605
3.64462
3.66061
3.6496
3.62467
3.59062
3.5435
3.49318
3.45243
3.41608
3.37669
3.35062
3.34533
3.362
3.40214
3.41754
3.40782
3.39143
3.3716
3.34747
3.30465
3.21239
3.11106
3.06906
3.06014
3.05941
3.08571
3.15643
3.19785
3.19296
3.17456
3.14355
3.10298
3.05592
3.00325
2.94281
2.89832
2.8875
2.88194
2.8771
2.87346
2.87277
2.88546
2.91833
2.93138
2.92884
2.92283
2.89494
2.82463
2.71516
2.66358
2.65055
2.64778
2.65924
2.7162
2.78148
2.78889
2.77474
2.74326
2.67059
2.56765
2.51856
2.50554
2.50579
2.52643
2.57906
2.61207
2.61028
2.59623
2.56707
2.5172
2.46911
2.44524
2.4366
2.43561
2.44147
2.44132
2.4303
2.40647
2.37042
2.34272
2.3329
2.33134
2.34197
2.37288
2.38492
2.3784
2.35548
2.30087
2.22486
2.18978
2.1805
2.18214
2.20988
2.34312
2.84521
4.04738
5.50098
5.98559
5.90647
1
1
1
1
1
1
1
1
1
1
1
1
1
1
1
1
1
1
1
1
1
1
1
1
1
1
1
1
1
1
1
1
1
1
1
1
1
1
1
1
1
1
1
1
1
1
1
1
1
1
1
1
1
1
1
1
1
1
1.00037
1.02374
1.38769
2.31729
3.47488
4.44626
4.51197
4.40763
4.39958
4.3985
4.40258
4.40299
4.35436
4.33969
4.34504
4.33815
4.30237
4.25745
4.23728
4.24145
4.21516
4.18433
4.17162
4.16265
4.14045
4.12583
4.1211
4.10549
4.0917
4.079
4.05412
4.02976
4.0102
3.98972
3.96511
3.94057
3.91648
3.88859
3.85403
3.83198
3.82037
3.81296
3.81021
3.80809
3.80391
3.79311
3.76853
3.73533
3.69344
3.65149
3.63929
3.64059
3.65308
3.68659
3.74032
3.83584
3.92565
3.9542
3.95138
3.93539
3.92938
3.93298
3.94132
3.93221
3.91551
3.88396
3.8336
3.76381
3.71027
3.68529
3.67626
3.67564
3.69251
3.69875
3.68336
3.65796
3.61955
3.56372
3.51596
3.48508
3.45543
3.4224
3.40213
3.39996
3.42317
3.45062
3.44653
3.43053
3.41149
3.39138
3.36871
3.33077
3.24963
3.15168
3.10618
3.09597
3.09542
3.12168
3.19326
3.23433
3.2283
3.20743
3.17188
3.1219
3.07632
3.04173
2.99749
2.94268
2.92249
2.91511
2.90742
2.9015
2.8987
2.90689
2.9414
2.97061
2.97055
2.96245
2.93071
2.85365
2.74008
2.69002
2.67773
2.67532
2.68781
2.74625
2.81133
2.81828
2.80337
2.76932
2.69245
2.59176
2.54697
2.53538
2.53675
2.56174
2.61602
2.64348
2.63977
2.62371
2.59061
2.53595
2.4911
2.47115
2.46485
2.46509
2.47174
2.46912
2.45532
2.42824
2.38947
2.36277
2.35333
2.35199
2.36445
2.3988
2.41284
2.40626
2.38212
2.32563
2.24689
2.21476
2.20446
2.20537
2.24781
2.50435
3.35761
4.80022
6.02055
6.15206
6.01971
6.00144
1
1
1
1
1
1
1
1
1
1
1
1
1
1
1
1
1
1
1
1
1
1
1
1
1
1
1
1
1
1
1
1
1
1
1
1
1
1
1
1
1
1
1
1
1
1
1
1
1
1
1
1
1
1
1
1
1
1
1
1.00038
1.01929
1.1887
1.83801
3.56316
4.29315
4.33091
4.39162
4.41784
4.40452
4.36979
4.3591
4.36825
4.35551
4.31058
4.27806
4.25504
4.25005
4.23274
4.21045
4.19908
4.19453
4.1757
4.16159
4.15959
4.14954
4.12424
4.10513
4.08162
4.05285
4.0301
4.01315
3.99171
3.96799
3.94564
3.92098
3.8904
3.86613
3.85826
3.85195
3.84861
3.84551
3.83765
3.82117
3.79607
3.7645
3.72527
3.68225
3.6542
3.64863
3.64968
3.66456
3.69293
3.72052
3.78247
3.85102
3.88601
3.90389
3.92847
3.95844
3.9866
3.98378
3.96663
3.9362
3.88799
3.81918
3.75829
3.73202
3.72377
3.72526
3.73907
3.7369
3.71992
3.69209
3.6465
3.58507
3.54263
3.51819
3.49333
3.46757
3.45328
3.45557
3.48082
3.4903
3.47626
3.45466
3.43314
3.41244
3.39026
3.35604
3.28577
3.1934
3.14488
3.13294
3.1325
3.15757
3.22836
3.26941
3.26243
3.23949
3.2009
3.14409
3.09828
3.07091
3.04149
2.9969
2.95791
2.94538
2.93645
2.92909
2.92499
2.93141
2.96672
3.00785
3.01137
3.00119
2.96622
2.88263
2.76501
2.71618
2.7049
2.70289
2.71685
2.77784
2.84276
2.84886
2.83321
2.79639
2.71485
2.61577
2.57503
2.56459
2.56719
2.59604
2.65139
2.6735
2.6688
2.65159
2.61522
2.5567
2.51462
2.49776
2.49339
2.49549
2.50158
2.49657
2.47952
2.44875
2.40805
2.38292
2.3741
2.37305
2.38783
2.42585
2.44116
2.43434
2.40875
2.3496
2.27023
2.23581
2.22877
2.23433
2.31798
2.79489
4.01649
5.55437
6.32922
6.25262
6.10926
6.08584
6.17043
1
1
1
1
1
1
1
1
1
1
1
1
1
1
1
1
1
1
1
1
1
1
1
1
1
1
1
1
1
1
1
1
1
1
1
1
1
1
1
1
1
1
1
1
1
1
1
1
1
1
1
1
1
1
1
1
1
1
1
1
1.00016
1.00521
1.0827
1.79016
3.40084
4.05378
4.33395
4.44467
4.41379
4.39037
4.39209
4.37954
4.31975
4.29279
4.27986
4.26387
4.25261
4.23775
4.23177
4.2347
4.21798
4.19496
4.18888
4.18368
4.15185
4.12327
4.10409
4.07848
4.04828
4.03336
4.01722
3.9943
3.97236
3.94936
3.92328
3.90307
3.89678
3.89231
3.8847
3.87749
3.86651
3.84619
3.82085
3.79182
3.75553
3.71761
3.68561
3.67595
3.67327
3.67812
3.68964
3.69344
3.69464
3.71205
3.75711
3.81029
3.87079
3.93775
3.9955
4.00935
4.00343
3.98241
3.94131
3.87987
3.81566
3.78281
3.77326
3.77445
3.78409
3.77636
3.75777
3.72713
3.6756
3.60877
3.57067
3.54973
3.53007
3.51323
3.5032
3.51392
3.53375
3.52811
3.50609
3.47974
3.45467
3.43359
3.41247
3.38159
3.32041
3.23599
3.18637
3.17186
3.17104
3.19398
3.26226
3.30237
3.29476
3.26995
3.2287
3.16729
3.12401
3.09984
3.07791
3.04812
3.00347
2.97561
2.96486
2.95705
2.95221
2.95849
2.99588
3.04446
3.05126
3.03895
3.00118
2.91092
2.7901
2.74258
2.73198
2.73025
2.74626
2.81037
2.87545
2.8803
2.86397
2.82439
2.73807
2.63993
2.60224
2.59299
2.59664
2.6288
2.6839
2.70242
2.69712
2.67945
2.64155
2.58031
2.53997
2.52545
2.52267
2.52644
2.53098
2.52322
2.5027
2.46742
2.42551
2.40286
2.39492
2.39441
2.41226
2.45417
2.47041
2.46318
2.43659
2.37151
2.29285
2.25848
2.25225
2.26662
2.46103
3.28189
4.76604
6.11947
6.53485
6.37029
6.18416
6.15363
6.22295
6.36281
1
1
1
1
1
1
1
1
1
1
1
1
1
1
1
1
1
1
1
1
1
1
1
1
1
1
1
1
1
1
1
1
1
1
1
1
1
1
1
1
1
1
1
1
1
1
1
1
1
1
1
1
1
1
1
1
1
1
1
1
1
1.00003
1.00215
1.07072
1.78884
3.16101
3.95183
4.37255
4.44794
4.42399
4.38688
4.33433
4.31149
4.2994
4.28781
4.27135
4.2639
4.26385
4.27471
4.25714
4.22059
4.20698
4.20624
4.18383
4.14541
4.12094
4.10184
4.07456
4.05106
4.03944
4.02091
3.99787
3.97643
3.95308
3.93727
3.93425
3.93024
3.91818
3.90457
3.89059
3.87146
3.84436
3.81701
3.78459
3.75054
3.7213
3.71152
3.70928
3.71007
3.70851
3.69984
3.68367
3.6633
3.66847
3.70191
3.76256
3.8465
3.94653
4.00131
4.01119
4.0077
3.98354
3.93307
3.87488
3.84022
3.82824
3.82614
3.8288
3.81739
3.79603
3.76236
3.70723
3.63785
3.60023
3.5805
3.56653
3.55503
3.55461
3.57331
3.58324
3.56699
3.53727
3.504
3.4755
3.45579
3.43614
3.4081
3.35534
3.27931
3.22894
3.21253
3.21114
3.23141
3.29547
3.33371
3.32611
3.30047
3.25627
3.19039
3.14908
3.12856
3.11334
3.09391
3.0542
3.01057
2.99388
2.98568
2.98086
2.98822
3.02972
3.08178
3.08911
3.07469
3.03476
2.93861
2.81528
2.76932
2.75903
2.75757
2.77561
2.84353
2.90903
2.9125
2.89537
2.85309
2.76164
2.66438
2.62909
2.62082
2.62495
2.65935
2.71419
2.72988
2.72422
2.70709
2.66918
2.60725
2.56696
2.55433
2.55306
2.5583
2.55999
2.54958
2.52483
2.48371
2.44243
2.42271
2.41573
2.41598
2.43787
2.48392
2.50078
2.49279
2.46464
2.3961
2.31094
2.2813
2.27878
2.32642
2.7315
3.94439
5.50492
6.53234
6.63342
6.45259
6.26897
6.22562
6.27232
6.40063
6.41844
1
1
1
1
1
1
1
1
1
1
1
1
1
1
1
1
1
1
1
1
1
1
1
1
1
1
1
1
1
1
1
1
1
1
1
1
1
1
1
1
1
1
1
1
1
1
1
1
1
1
1
1
1
1
1
1
1
1
1
1
1
1
1.00002
1.00193
1.07702
1.65323
2.65955
3.84873
4.44685
4.42234
4.33538
4.33805
4.3345
4.31009
4.28463
4.28194
4.28626
4.30853
4.29298
4.24216
4.21749
4.21932
4.2113
4.16747
4.13462
4.12086
4.10421
4.07496
4.05906
4.0476
4.02418
4.00345
3.98457
3.96928
3.96805
3.96503
3.94853
3.92884
3.9115
3.89396
3.86878
3.8405
3.81368
3.7835
3.75533
3.74655
3.74448
3.74229
3.73534
3.72021
3.69502
3.66268
3.65269
3.65685
3.68121
3.73593
3.81673
3.925
3.986
4.0023
3.99821
3.96555
3.92083
3.89306
3.88443
3.88403
3.87608
3.86034
3.83554
3.79898
3.74217
3.67276
3.63371
3.61404
3.60401
3.59714
3.60731
3.62982
3.62919
3.60572
3.57049
3.52965
3.4992
3.48013
3.46195
3.43656
3.39105
3.32271
3.27228
3.25462
3.2528
3.27045
3.32927
3.36377
3.35608
3.33093
3.28527
3.21586
3.17502
3.1568
3.14634
3.133
3.10042
3.05151
3.02441
3.01565
3.01079
3.02036
3.06738
3.12011
3.12516
3.10795
3.06619
2.96491
2.84023
2.79692
2.78642
2.78503
2.80507
2.87713
2.94295
2.94537
2.92708
2.88229
2.78515
2.68891
2.65579
2.64815
2.6524
2.68818
2.74252
2.7562
2.75051
2.73437
2.69798
2.63692
2.5963
2.58483
2.58495
2.59068
2.5894
2.57571
2.54544
2.49754
2.45881
2.44232
2.43632
2.43776
2.46474
2.51526
2.53203
2.52384
2.49211
2.42016
2.33138
2.30329
2.30791
2.4499
3.18964
4.71913
6.12312
6.76111
6.76043
6.53158
6.33184
6.29132
6.32267
6.43842
6.46781
6.43148
1
1
1
1
1
1
1
1
1
1
1
1
1
1
1
1
1
1
1
1
1
1
1
1
1
1
1
1
1
1
1
1
1
1
1
1
1
1
1
1
1
1
1
1
1
1
1
1
1
1
1
1
1
1
1
1
1
1
1
1
1
1
1
1.00002
1.00183
1.0454
1.32824
2.28733
3.95477
4.27912
4.29435
4.35003
4.35152
4.30031
4.29029
4.29459
4.32512
4.32196
4.26396
4.2279
4.22941
4.23466
4.19068
4.14541
4.13328
4.1221
4.10117
4.08003
4.07313
4.05669
4.03172
4.02012
4.00685
3.99943
3.99346
3.97634
3.95274
3.93125
3.91369
3.89153
3.86419
3.84072
3.81622
3.79006
3.78093
3.77653
3.77051
3.76149
3.74416
3.71794
3.6807
3.65801
3.65384
3.65551
3.67368
3.72291
3.78422
3.87475
3.94616
3.974
3.96287
3.93694
3.92634
3.92618
3.93838
3.92908
3.90821
3.88051
3.8404
3.78243
3.71464
3.67187
3.6521
3.64494
3.64344
3.66084
3.68052
3.67065
3.643
3.60435
3.5578
3.52633
3.50661
3.48933
3.46669
3.42777
3.36634
3.31598
3.29714
3.29467
3.31047
3.3649
3.3948
3.38648
3.36129
3.31403
3.24471
3.2041
3.18697
3.17986
3.16885
3.14009
3.09267
3.05699
3.04685
3.0422
3.05462
3.10756
3.15832
3.15858
3.13881
3.09532
2.98932
2.86545
2.82487
2.81454
2.81326
2.83536
2.91152
2.97724
2.97846
2.95884
2.91128
2.80826
2.71313
2.6826
2.67517
2.67935
2.71564
2.77048
2.78278
2.77661
2.76158
2.72748
2.66902
2.62752
2.61694
2.61856
2.62336
2.61942
2.60172
2.56383
2.50928
2.47495
2.46135
2.45621
2.45971
2.49278
2.54835
2.56411
2.5553
2.52214
2.44202
2.35024
2.32768
2.35911
2.70361
3.85248
5.45535
6.60863
6.87213
6.83125
6.61476
6.41405
6.36399
6.3793
6.47831
6.51908
6.48649
6.43118
1
1
1
1
1
1
1
1
1
1
1
1
1
1
1
1
1
1
1
1
1
1
1
1
1
1
1
1
1
1
1
1
1
1
1
1
1
1
1
1
1
1
1
1
1
1
1
1
1
1
1
1
1
1
1
1
1
1
1
1
1
1
1
1
1.00001
1.00054
1.01445
1.19577
2.25634
3.71824
4.11863
4.3157
4.36006
4.31528
4.29969
4.32818
4.34293
4.28216
4.24351
4.24082
4.2577
4.21316
4.1611
4.14793
4.13925
4.12167
4.10549
4.09769
4.0935
4.07068
4.05714
4.05201
4.03419
4.01474
4.00008
3.97781
3.95227
3.9317
3.9126
3.88692
3.86543
3.84766
3.82602
3.81352
3.80653
3.79753
3.78647
3.76797
3.7421
3.70729
3.68032
3.67005
3.66616
3.66794
3.68414
3.71113
3.7443
3.78812
3.8551
3.9029
3.90856
3.9245
3.94287
3.96999
3.97437
3.95614
3.92826
3.88782
3.83255
3.76539
3.71719
3.69699
3.69131
3.69429
3.71417
3.72413
3.70754
3.67847
3.63807
3.58796
3.5555
3.53509
3.51871
3.49916
3.46537
3.40981
3.35995
3.33987
3.33684
3.35052
3.40126
3.42817
3.41952
3.39344
3.34415
3.27394
3.23508
3.21961
3.21379
3.20264
3.1754
3.13134
3.09227
3.07947
3.07514
3.09082
3.14861
3.19365
3.19019
3.16781
3.12216
3.01149
2.89102
2.85352
2.84345
2.84247
2.86709
2.94762
3.01228
3.012
2.99053
2.94003
2.83113
2.73705
2.70903
2.70199
2.70607
2.74268
2.79789
2.8098
2.80288
2.78836
2.75686
2.70313
2.66121
2.65092
2.6533
2.65667
2.65018
2.62693
2.57976
2.52
2.49058
2.47945
2.47524
2.48173
2.52188
2.58247
2.59791
2.58736
2.55222
2.46522
2.36866
2.35758
2.46821
3.13906
4.65592
6.08952
6.89589
6.97302
6.90539
6.69749
6.49958
6.44236
6.4422
6.51667
6.56885
6.54148
6.49148
6.39641
1
1
1
1
1
1
1
1
1
1
1
1
1
1
1
1
1
1
1
1
1
1
1
1
1
1
1
1
1
1
1
1
1
1
1
1
1
1
1
1
1
1
1
1
1
1
1
1
1
1
1
1
1
1
1
1
1
1
1
1
1
1
1
1
1
1
1.00014
1.00808
1.16791
2.18182
3.44615
4.05625
4.31997
4.35536
4.34455
4.33829
4.29566
4.26807
4.25802
4.28379
4.23671
4.18006
4.16799
4.16161
4.14383
4.13036
4.12532
4.13202
4.11356
4.09328
4.08638
4.06894
4.0376
4.01881
4.00234
3.97607
3.9514
3.93171
3.90988
3.88679
3.87519
3.86105
3.84441
3.83435
3.82372
3.81144
3.79183
3.76555
3.73358
3.70879
3.69881
3.6936
3.68968
3.69209
3.69336
3.6954
3.69525
3.69513
3.74324
3.81477
3.86723
3.92008
3.97095
3.99391
3.98972
3.97134
3.93685
3.88844
3.82601
3.77163
3.75076
3.74508
3.74823
3.76253
3.76205
3.74253
3.71204
3.66973
3.61938
3.58618
3.56541
3.55087
3.5348
3.50438
3.4534
3.40428
3.38275
3.37933
3.39123
3.4383
3.46216
3.45324
3.42856
3.37769
3.30242
3.26502
3.25161
3.24642
3.23408
3.20809
3.168
3.12935
3.11339
3.11022
3.12839
3.18921
3.22702
3.21945
3.19524
3.14618
3.03107
2.91724
2.8828
2.87307
2.87314
2.90114
2.98603
3.04868
3.04632
3.02242
2.96848
2.85357
2.76064
2.7351
2.72865
2.73282
2.77
2.82565
2.83733
2.82961
2.81519
2.78606
2.73802
2.69729
2.68686
2.68925
2.69066
2.68101
2.65129
2.59277
2.53062
2.50598
2.49669
2.49345
2.50368
2.5517
2.61708
2.63202
2.62065
2.58145
2.48957
2.39067
2.40445
2.70482
3.77624
5.44312
6.59525
7.05728
7.06522
6.97577
6.76993
6.57916
6.5183
6.50971
6.56345
6.61857
6.59491
6.55028
6.46844
6.32975
1
1
1
1
1
1
1
1
1
1
1
1
1
1
1
1
1
1
1
1
1
1
1
1
1
1
1
1
1
1
1
1
1
1
1
1
1
1
1
1
1
1
1
1
1
1
1
1
1
1
1
1
1
1
1
1
1
1
1
1
1
1
1
1
1
1
1
1.00009
1.00655
1.16432
1.9719
3.02064
4.0141
4.3897
4.36243
4.28655
4.28872
4.29263
4.30779
4.26088
4.20352
4.19293
4.20453
4.1928
4.16439
4.15434
4.16115
4.15236
4.12295
4.10935
4.09337
4.06591
4.03445
4.0221
4.00217
3.97387
3.95133
3.93087
3.9087
3.89736
3.89066
3.87444
3.86093
3.84909
3.83595
3.81655
3.78935
3.75833
3.7367
3.72806
3.72517
3.72085
3.71344
3.70766
3.69512
3.6767
3.64798
3.63638
3.66774
3.7493
3.8305
3.90916
3.97912
3.99421
3.9931
3.9782
3.94121
3.88801
3.83424
3.81255
3.80467
3.803
3.80414
3.79597
3.77533
3.74488
3.70308
3.65315
3.61833
3.59827
3.58695
3.57371
3.54471
3.49611
3.44812
3.42584
3.42206
3.43275
3.47652
3.49782
3.48865
3.46527
3.41513
3.33355
3.29289
3.27977
3.27435
3.26188
3.23819
3.20335
3.1671
3.14962
3.14707
3.16812
3.22859
3.25862
3.24741
3.22158
3.16771
3.04867
2.94374
2.91236
2.9036
2.90481
2.93745
3.0269
3.08627
3.08148
3.05469
2.99679
2.876
2.78481
2.76106
2.7551
2.75946
2.79741
2.85345
2.86464
2.85612
2.84176
2.81489
2.77286
2.73466
2.72423
2.72606
2.72504
2.71101
2.67364
2.60338
2.54223
2.52162
2.51384
2.51172
2.52586
2.58193
2.65251
2.66614
2.65406
2.6124
2.51211
2.4223
2.50694
3.12274
4.57344
6.07196
6.99765
7.18913
7.16139
7.03772
6.83069
6.64494
6.58169
6.56905
6.61349
6.67392
6.65425
6.61156
6.53266
6.40014
6.28496
1
1
1
1
1
1
1
1
1
1
1
1
1
1
1
1
1
1
1
1
1
1
1
1
1
1
1
1
1
1
1
1
1
1
1
1
1
1
1
1
1
1
1
1
1
1
1
1
1
1
1
1
1
1
1
1
1
1
1
1
1
1
1
1
1
1
1
1
1.00008
1.00577
1.10309
1.56184
2.70784
4.14929
4.2876
4.24624
4.29749
4.3458
4.2936
4.22684
4.2178
4.24023
4.24771
4.20515
4.17997
4.17911
4.18382
4.14824
4.12561
4.11393
4.09262
4.05627
4.03632
4.02536
3.99938
3.97346
3.9534
3.93177
3.91658
3.91555
3.90486
3.88766
3.87502
3.86039
3.84021
3.81528
3.78443
3.76263
3.75497
3.75195
3.74844
3.74098
3.72902
3.71446
3.69105
3.64896
3.61983
3.61894
3.63399
3.69804
3.78235
3.87521
3.96197
3.9872
3.99197
3.97782
3.93799
3.89474
3.87567
3.86632
3.8573
3.8453
3.82834
3.80492
3.77567
3.73692
3.69246
3.65558
3.6354
3.6273
3.61607
3.58585
3.53691
3.49057
3.46866
3.46462
3.47526
3.51623
3.53435
3.52479
3.50284
3.45528
3.36863
3.31952
3.30544
3.29943
3.28698
3.26632
3.23746
3.20534
3.18802
3.18663
3.21022
3.26821
3.2892
3.27459
3.24653
3.18663
3.06489
2.97142
2.94303
2.93539
2.93798
2.97593
3.06834
3.12389
3.11725
3.08816
3.02576
2.89938
2.80989
2.7874
2.78185
2.78642
2.82484
2.88025
2.89065
2.8813
2.86738
2.8434
2.80733
2.77229
2.7622
2.7629
2.75916
2.7396
2.6933
2.61217
2.55567
2.5382
2.53177
2.53079
2.54923
2.61333
2.68789
2.69984
2.68547
2.64481
2.52502
2.47735
2.73299
3.75637
5.39239
6.57361
7.1912
7.28576
7.2447
7.10695
6.88522
6.70598
6.64844
6.6322
6.67265
6.73695
6.72077
6.67904
6.60114
6.4715
6.35253
6.30238
1
1
1
1
1
1
1
1
1
1
1
1
1
1
1
1
1
1
1
1
1
1
1
1
1
1
1
1
1
1
1
1
1
1
1
1
1
1
1
1
1
1
1
1
1
1
1
1
1
1
1
1
1
1
1
1
1
1
1
1
1
1
1
1
1
1
1
1
1
1.00004
1.00204
1.03898
1.36678
2.70022
3.90445
4.11126
4.28289
4.35661
4.27848
4.24026
4.26525
4.2859
4.23493
4.20272
4.19269
4.20895
4.179
4.14121
4.128
4.11753
4.08894
4.05516
4.04377
4.02687
3.99703
3.97735
3.9582
3.93867
3.9356
3.93443
3.91768
3.90182
3.88568
3.86235
3.8383
3.81125
3.79026
3.77983
3.77612
3.77104
3.76404
3.75376
3.73682
3.7153
3.67529
3.62593
3.61287
3.61349
3.62304
3.6588
3.73072
3.82001
3.92593
3.97308
3.9826
3.96654
3.93775
3.92722
3.92242
3.90817
3.88934
3.86405
3.83554
3.80665
3.77326
3.73393
3.69702
3.67894
3.67177
3.65924
3.62571
3.57569
3.53142
3.51091
3.50694
3.51824
3.55674
3.57112
3.5609
3.53971
3.4953
3.40648
3.34566
3.32944
3.32315
3.3117
3.29393
3.26993
3.24234
3.22783
3.22771
3.25596
3.30804
3.31998
3.30205
3.27112
3.20362
3.08092
3.00002
2.97482
2.96825
2.97288
3.01753
3.11226
3.15977
3.15117
3.12136
3.05523
2.92384
2.83568
2.81382
2.80887
2.81367
2.85226
2.90687
2.91627
2.90596
2.89227
2.87083
2.8406
2.80969
2.80021
2.79953
2.79241
2.76679
2.70931
2.62028
2.57146
2.55672
2.55147
2.55163
2.57501
2.6477
2.72235
2.73372
2.71586
2.6763
2.55175
2.59374
3.1442
4.58435
6.04222
6.98022
7.37294
7.3942
7.33094
7.16922
6.94523
6.76611
6.70578
6.69005
6.73468
6.80742
6.79442
6.7519
6.67108
6.54006
6.4232
6.37422
6.35703
1
1
1
1
1
1
1
1
1
1
1
1
1
1
1
1
1
1
1
1
1
1
1
1
1
1
1
1
1
1
1
1
1
1
1
1
1
1
1
1
1
1
1
1
1
1
1
1
1
1
1
1
1
1
1
1
1
1
1
1
1
1
1
1
1
1
1
1
1
1
1.00001
1.0006
1.02185
1.31141
2.56676
3.62783
4.11454
4.31262
4.30195
4.29689
4.29816
4.2565
4.22535
4.21196
4.23526
4.2122
4.16234
4.13656
4.13708
4.11797
4.08458
4.06419
4.05742
4.02937
4.00172
3.9885
3.97171
3.95959
3.95894
3.95074
3.92982
3.91115
3.88641
3.85834
3.83524
3.81682
3.80452
3.79867
3.79269
3.78394
3.77368
3.75997
3.73941
3.70633
3.65814
3.62284
3.61508
3.61264
3.61801
3.63916
3.69149
3.75711
3.85448
3.93533
3.95665
3.95273
3.95165
3.95468
3.94705
3.92787
3.90126
3.87117
3.84135
3.81085
3.77568
3.74147
3.7261
3.71903
3.70186
3.66368
3.61214
3.57101
3.55234
3.54888
3.56152
3.59755
3.60746
3.59651
3.57571
3.53375
3.44557
3.37233
3.35275
3.34543
3.33467
3.31951
3.29935
3.27793
3.26773
3.27046
3.30493
3.34785
3.34991
3.32933
3.29493
3.21882
3.09914
3.02948
3.00768
3.00243
3.00997
3.06244
3.15767
3.19555
3.18371
3.15227
3.08143
2.94772
2.86353
2.84128
2.83581
2.83991
2.87789
2.93282
2.94209
2.93121
2.9173
2.8984
2.87315
2.84631
2.83815
2.8362
2.82539
2.79251
2.72062
2.62927
2.58963
2.57733
2.57272
2.57483
2.60449
2.68653
2.75788
2.76511
2.74841
2.70395
2.60587
2.81647
3.79992
5.4072
6.55433
7.22245
7.50275
7.49963
7.41685
7.23752
6.98686
6.81914
6.76905
6.75441
6.80418
6.88257
6.87192
6.82819
6.74264
6.60787
6.49222
6.4441
6.42744
6.45386
1
1
1
1
1
1
1
1
1
1
1
1
1
1
1
1
1
1
1
1
1
1
1
1
1
1
1
1
1
1
1
1
1
1
1
1
1
1
1
1
1
1
1
1
1
1
1
1
1
1
1
1
1
1
1
1
1
1
1
1
1
1
1
1
1
1
1
1
1
1
1
1
1.00034
1.01656
1.30047
2.34771
3.35278
4.11632
4.34472
4.30738
4.24169
4.24264
4.24887
4.26728
4.25047
4.1884
4.14911
4.15198
4.14083
4.11035
4.08848
4.08591
4.07317
4.03768
4.02
4.01108
3.9944
3.98295
3.97947
3.96172
3.93708
3.91341
3.88211
3.8567
3.84151
3.82714
3.81872
3.81339
3.80467
3.79271
3.78022
3.76246
3.73264
3.69173
3.65277
3.63489
3.62723
3.62201
3.62379
3.63761
3.66701
3.70334
3.76668
3.86208
3.91312
3.93823
3.95518
3.95772
3.94904
3.93102
3.90767
3.88024
3.85078
3.81878
3.78931
3.77653
3.7665
3.74155
3.6988
3.64659
3.60908
3.59313
3.59015
3.6046
3.63759
3.64294
3.63122
3.60975
3.56983
3.48314
3.39856
3.37476
3.36709
3.35668
3.34298
3.32702
3.31307
3.30683
3.31678
3.3564
3.38537
3.37904
3.35618
3.31708
3.23283
3.11871
3.06177
3.04182
3.03798
3.04921
3.10956
3.20211
3.22957
3.21478
3.18195
3.10619
2.96904
2.89118
2.87115
2.86494
2.86624
2.9002
2.95549
2.96604
2.95574
2.94266
2.9264
2.90483
2.8832
2.87676
2.8736
2.85782
2.81567
2.72842
2.64024
2.60989
2.59926
2.59523
2.60032
2.63884
2.72779
2.79527
2.7962
2.78305
2.70536
2.72634
3.23246
4.69027
6.07807
6.94189
7.45477
7.63334
7.6137
7.50061
7.30183
7.03017
6.86504
6.81952
6.81145
6.87919
6.96855
6.95747
6.90723
6.81104
6.67039
6.56036
6.51515
6.49828
6.52276
6.58245
1
1
1
1
1
1
1
1
1
1
1
1
1
1
1
1
1
1
1
1
1
1
1
1
1
1
1
1
1
1
1
1
1
1
1
1
1
1
1
1
1
1
1
1
1
1
1
1
1
1
1
1
1
1
1
1
1
1
1
1
1
1
1
1
1
1
1
1
1
1
1
1
1
1.00028
1.01551
1.21865
1.87124
3.08815
4.23573
4.25167
4.21572
4.26189
4.29743
4.30345
4.21675
4.16532
4.16878
4.16823
4.13288
4.11157
4.10818
4.11398
4.08448
4.05683
4.04874
4.0359
4.01325
4.00263
3.99443
3.96705
3.94091
3.91431
3.88047
3.86387
3.8519
3.83891
3.83203
3.82408
3.81232
3.80051
3.78419
3.75765
3.72013
3.6852
3.66265
3.65533
3.64704
3.64152
3.64006
3.64213
3.65184
3.66914
3.70004
3.76998
3.85374
3.90972
3.94524
3.951
3.94352
3.93134
3.91715
3.89611
3.86983
3.84496
3.83062
3.81421
3.77992
3.73228
3.67991
3.64599
3.633
3.63062