/*--------------------------------*- C++ -*----------------------------------*\
  =========                 |
  \\      /  F ield         | OpenFOAM: The Open Source CFD Toolbox
   \\    /   O peration     | Website:  https://openfoam.org
    \\  /    A nd           | Version:  7
     \\/     M anipulation  |
\*---------------------------------------------------------------------------*/
FoamFile
{
    version     2.0;
    format      ascii;
    class       volScalarField;
    location    "2.3";
    object      p;
}
// * * * * * * * * * * * * * * * * * * * * * * * * * * * * * * * * * * * * * //

dimensions      [1 -1 -2 0 0 0 0];

internalField   nonuniform List<scalar> 
16512
(
3.10561
3.09582
3.08694
3.07705
3.0668
3.05849
3.05457
3.05454
3.05609
3.05842
3.05704
3.04622
3.03302
3.01909
3.00207
2.98248
2.9647
2.951
2.9405
2.94044
2.95539
2.97144
2.97419
2.96273
2.94483
2.91851
2.89138
2.87605
2.86812
2.87342
2.89164
2.90558
2.90397
2.8917
2.87077
2.84087
2.81763
2.80743
2.80355
2.80758
2.8186
2.82601
2.82332
2.81209
2.79728
2.78196
2.77034
2.76308
2.76436
2.77243
2.77943
2.77808
2.76935
2.75454
2.73119
2.70688
2.69386
2.68732
2.68655
2.6946
2.70883
2.71129
2.70442
2.69649
2.69064
2.68683
2.67915
2.66887
2.65676
2.64313
2.62889
2.61611
2.60709
2.60084
2.59741
2.60194
2.61416
2.6255
2.62549
2.61828
2.609
2.59671
2.58264
2.57213
2.56377
2.55681
2.55213
2.54688
2.53927
2.53029
2.52187
2.51564
2.51167
2.51012
2.51146
2.51243
2.51258
2.51104
2.50569
2.49696
2.48371
2.46508
2.45089
2.44493
2.44105
2.44801
2.49242
2.63718
2.99918
3.46221
3.98701
4.27522
4.45144
4.52624
4.58158
4.61201
4.61404
4.60851
4.59876
4.58524
4.56982
4.55322
4.53359
4.51372
4.49193
4.47143
4.45668
4.44911
4.44717
4.45375
4.4635
4.46943
4.4707
4.46661
4.4588
4.44535
4.42762
4.40766
4.38767
4.37075
4.35607
4.34089
4.32221
4.29875
4.27489
4.2607
4.25455
4.2536
4.26121
4.27577
4.28679
4.2912
4.29265
4.29181
4.28995
4.28826
4.2845
4.27758
4.26717
4.24919
4.21919
4.17656
4.1342
4.10891
4.10018
4.09675
4.09878
4.10618
4.11686
4.1353
4.15999
4.17441
4.17793
4.17848
4.1751
4.16705
4.15027
4.118
4.07012
4.01598
3.97451
3.95756
3.95387
3.9561
3.96236
3.96924
3.982
4.00637
4.03816
4.05398
4.05757
4.05441
4.04342
4.01696
3.97286
3.92191
3.88746
3.87707
3.87869
3.88513
3.89505
3.91959
3.93965
3.94152
3.94037
3.93567
3.92407
3.90638
3.8803
3.84654
3.81398
3.79404
3.78309
3.77377
3.76855
3.76993
3.77513
3.78227
3.78463
3.78588
3.78727
3.78664
3.78246
3.77425
3.75843
3.7363
3.71758
3.70742
3.70309
3.70505
3.70331
3.69698
3.68988
3.67989
3.66631
3.64669
3.62014
3.59726
3.58789
3.58661
3.59828
3.62204
3.64453
3.65826
3.66341
3.66013
3.65163
3.63602
3.60955
3.57159
3.52926
3.49735
3.48291
3.4773
3.47574
3.47847
3.48678
3.50206
3.11817
3.10307
3.08587
3.06993
3.05571
3.04425
3.04043
3.04884
3.06296
3.06955
3.06116
3.04812
3.03486
3.02075
3.00595
2.98991
2.97252
2.95696
2.94524
2.93931
2.94505
2.95559
2.96344
2.96062
2.94816
2.93031
2.90648
2.88542
2.87359
2.86783
2.87512
2.89048
2.90007
2.89594
2.88355
2.86352
2.83468
2.81048
2.79911
2.79386
2.79668
2.80658
2.81574
2.81473
2.80494
2.79207
2.77757
2.76565
2.75785
2.75622
2.76289
2.7698
2.76924
2.7611
2.74725
2.72385
2.69688
2.68137
2.67448
2.67404
2.68162
2.69285
2.69543
2.69089
2.68608
2.68235
2.67939
2.67394
2.66521
2.65336
2.63939
2.62429
2.60995
2.59956
2.59288
2.59001
2.5944
2.60455
2.61415
2.61331
2.60568
2.59406
2.58131
2.5722
2.56467
2.55889
2.55764
2.55488
2.54616
2.53576
2.52241
2.50873
2.50029
2.49488
2.4929
2.49727
2.50282
2.50604
2.50555
2.50062
2.49329
2.48125
2.46311
2.44486
2.43523
2.43006
2.42904
2.43812
2.47975
2.61576
2.94654
3.43196
3.90728
4.20804
4.38245
4.49273
4.53948
4.57317
4.58389
4.57724
4.57202
4.56087
4.54687
4.53394
4.517
4.49286
4.46588
4.44108
4.42767
4.42352
4.42581
4.43787
4.44801
4.45105
4.44947
4.4455
4.43798
4.42486
4.40368
4.38131
4.36425
4.34983
4.33529
4.31793
4.29543
4.27209
4.25623
4.24732
4.24396
4.24691
4.25277
4.25821
4.2627
4.26676
4.27016
4.27426
4.2803
4.2857
4.28455
4.27792
4.26468
4.23821
4.19496
4.14577
4.10752
4.08678
4.07889
4.07576
4.07843
4.08771
4.10096
4.1167
4.13459
4.14872
4.15717
4.16233
4.16073
4.15176
4.13269
4.09794
4.04727
3.99126
3.95084
3.93519
3.93059
3.92876
3.93246
3.94595
3.96968
4.0056
4.03599
4.04863
4.05375
4.04896
4.033
3.99907
3.94893
3.89818
3.86889
3.86076
3.86101
3.86533
3.87736
3.8993
3.91437
3.91725
3.91681
3.91088
3.89803
3.87652
3.84761
3.81834
3.7997
3.79088
3.78499
3.77624
3.76942
3.76606
3.76457
3.76603
3.76904
3.77241
3.77473
3.77259
3.7676
3.75658
3.73582
3.71173
3.69481
3.68185
3.66899
3.6628
3.66443
3.66357
3.66023
3.65529
3.64398
3.62776
3.61356
3.60911
3.6127
3.61837
3.62011
3.61953
3.62299
3.62845
3.62566
3.61731
3.6044
3.5835
3.55271
3.51555
3.48802
3.47791
3.47565
3.47995
3.49343
3.50951
3.13184
3.11383
3.08942
3.06426
3.04795
3.03568
3.03273
3.04851
3.06865
3.06922
3.05579
3.04157
3.02659
3.01376
3.00351
2.99413
2.98261
2.97087
2.96009
2.9513
2.94483
2.94133
2.94125
2.94699
2.94558
2.93486
2.92048
2.9024
2.88619
2.87549
2.86916
2.87187
2.88183
2.88963
2.88498
2.87365
2.85583
2.82964
2.80551
2.79263
2.78555
2.78697
2.79597
2.80558
2.80469
2.7953
2.78341
2.77034
2.75924
2.7516
2.74869
2.7533
2.75921
2.75932
2.75226
2.73966
2.71754
2.68954
2.67166
2.66424
2.6633
2.66809
2.67453
2.67764
2.67515
2.67117
2.66872
2.66841
2.66709
2.66024
2.65034
2.63808
2.62354
2.60772
2.59466
2.5864
2.58175
2.58405
2.59215
2.60095
2.59996
2.59177
2.57996
2.56936
2.56146
2.55587
2.55466
2.55384
2.54698
2.53865
2.52819
2.51269
2.4966
2.48732
2.48198
2.48211
2.48816
2.49349
2.49489
2.49343
2.48986
2.48447
2.47576
2.46098
2.44398
2.43006
2.42285
2.41861
2.42117
2.429
2.46259
2.59086
2.88265
3.36371
3.81641
4.19152
4.33662
4.43322
4.49115
4.53776
4.55015
4.54379
4.54346
4.53535
4.52462
4.50881
4.49116
4.46633
4.43791
4.42004
4.41399
4.41435
4.42035
4.42462
4.42713
4.43068
4.43191
4.42573
4.41268
4.39574
4.38166
4.36819
4.35377
4.33818
4.31876
4.29479
4.27213
4.25489
4.24415
4.23855
4.23448
4.23136
4.23161
4.23766
4.24638
4.25636
4.26987
4.28339
4.28824
4.28498
4.27922
4.26682
4.24012
4.19852
4.15117
4.10887
4.07738
4.06094
4.05535
4.05592
4.06423
4.07686
4.09098
4.10813
4.12818
4.14462
4.15143
4.15356
4.14964
4.13814
4.11245
4.06555
4.00227
3.944
3.91236
3.90379
3.90291
3.91107
3.9283
3.95189
3.98523
4.02335
4.0427
4.04684
4.04649
4.03697
4.01217
3.9659
3.90544
3.85721
3.83757
3.83321
3.83234
3.83841
3.85828
3.88621
3.89986
3.90347
3.90127
3.8949
3.88207
3.86127
3.83654
3.81621
3.80049
3.78603
3.77165
3.75913
3.75117
3.74843
3.74975
3.75412
3.75976
3.76369
3.7631
3.7591
3.74775
3.72397
3.69488
3.66764
3.64835
3.63987
3.64015
3.64892
3.6579
3.66217
3.66379
3.66349
3.65604
3.63778
3.61251
3.59749
3.5902
3.58496
3.58134
3.58369
3.59215
3.59452
3.58793
3.57958
3.56826
3.54959
3.52427
3.50226
3.49156
3.49079
3.49801
3.50656
3.14142
3.12383
3.09805
3.06737
3.04888
3.037
3.03441
3.05106
3.06724
3.06112
3.04618
3.02951
3.0146
3.00315
2.99474
2.99073
2.98979
2.9874
2.97972
2.96537
2.94778
2.93413
2.92509
2.92521
2.93533
2.93725
2.92851
2.91681
2.90146
2.88528
2.87302
2.86424
2.86323
2.87061
2.87746
2.87272
2.86228
2.84656
2.82419
2.80239
2.78891
2.78083
2.78076
2.78745
2.79405
2.79173
2.78284
2.7723
2.76126
2.75152
2.74416
2.74029
2.74236
2.74677
2.74784
2.74268
2.73205
2.71289
2.68699
2.66725
2.65728
2.65281
2.65452
2.65652
2.65716
2.65518
2.65318
2.65396
2.65702
2.6593
2.65523
2.64684
2.6365
2.62305
2.60607
2.58903
2.57812
2.5718
2.57158
2.57817
2.5868
2.58766
2.58071
2.56975
2.55928
2.55204
2.54735
2.54468
2.54041
2.53465
2.52798
2.51898
2.50517
2.49074
2.48139
2.47613
2.4759
2.47798
2.4777
2.47709
2.47757
2.47705
2.4737
2.46762
2.45768
2.44407
2.42992
2.41775
2.41159
2.40872
2.41357
2.41817
2.44356
2.55808
2.8219
3.25958
3.74155
4.10329
4.35316
4.40168
4.45263
4.48437
4.52107
4.52622
4.51932
4.50674
4.49782
4.48329
4.46539
4.44468
4.42527
4.41218
4.40533
4.40323
4.40315
4.40357
4.40791
4.40738
4.40201
4.39629
4.38959
4.38314
4.37373
4.36192
4.34653
4.32544
4.29934
4.27214
4.25043
4.23746
4.22918
4.22228
4.21736
4.2168
4.22455
4.23813
4.25488
4.27128
4.27811
4.27563
4.27105
4.26319
4.24718
4.22059
4.18744
4.15275
4.11748
4.08301
4.05704
4.04614
4.0444
4.05199
4.06242
4.06917
4.07539
4.08778
4.11347
4.13542
4.13964
4.13607
4.1278
4.10699
4.07
4.01765
3.95947
3.91535
3.89807
3.89588
3.90396
3.91855
3.93294
3.95265
3.98617
4.02345
4.03798
4.03873
4.03117
4.01214
3.97163
3.91094
3.84979
3.8152
3.80637
3.80683
3.81518
3.83367
3.8631
3.88462
3.89447
3.89862
3.89664
3.88973
3.87386
3.84727
3.81641
3.79082
3.77176
3.75751
3.74819
3.74189
3.73944
3.74081
3.74412
3.74795
3.74878
3.74416
3.73426
3.71806
3.6962
3.67166
3.65178
3.64008
3.63703
3.64834
3.6643
3.67559
3.68193
3.68252
3.67627
3.65559
3.61953
3.58518
3.56599
3.55788
3.55359
3.55098
3.55245
3.55906
3.56764
3.57408
3.57545
3.57167
3.56479
3.55276
3.53275
3.51074
3.49757
3.49272
3.14323
3.12758
3.10649
3.07964
3.05954
3.04679
3.04218
3.0535
3.06226
3.05206
3.03668
3.01999
3.00586
2.99464
2.98688
2.98777
2.9971
3.00064
2.99095
2.97575
2.95345
2.93119
2.91848
2.91175
2.91858
2.9326
2.93438
2.92505
2.91302
2.89722
2.8795
2.86563
2.85607
2.85304
2.85765
2.863
2.85836
2.84921
2.83674
2.82063
2.80341
2.78944
2.78014
2.77602
2.77772
2.77941
2.77708
2.76997
2.76064
2.75127
2.74241
2.73493
2.72972
2.72898
2.73262
2.73571
2.73332
2.72506
2.71047
2.6894
2.66825
2.65308
2.64407
2.6398
2.63804
2.63533
2.63346
2.63425
2.63969
2.64716
2.6516
2.64934
2.64173
2.6323
2.61941
2.60123
2.58106
2.56786
2.56058
2.55881
2.56434
2.57375
2.57689
2.57239
2.5629
2.5517
2.54244
2.53499
2.52896
2.52428
2.52101
2.51793
2.51205
2.50355
2.49335
2.48314
2.47441
2.468
2.46352
2.4599
2.45731
2.45893
2.46257
2.46265
2.45899
2.45285
2.44378
2.43115
2.41724
2.40613
2.40095
2.39972
2.40566
2.40535
2.42369
2.51163
2.75915
3.15427
3.6627
4.02682
4.27812
4.40132
4.43253
4.46759
4.4857
4.50369
4.50944
4.49861
4.48685
4.47483
4.45392
4.42372
4.40147
4.38839
4.38013
4.37481
4.37066
4.36811
4.3719
4.37634
4.37759
4.37883
4.38072
4.37839
4.37078
4.3581
4.33744
4.30488
4.26558
4.2382
4.22672
4.22062
4.21543
4.21152
4.2137
4.22286
4.2356
4.24808
4.2542
4.25226
4.24781
4.2415
4.23058
4.21379
4.19354
4.17336
4.15307
4.1302
4.10229
4.07306
4.05277
4.04435
4.04077
4.04078
4.04435
4.04928
4.056
4.07045
4.09425
4.10846
4.10714
4.1023
4.09241
4.07271
4.03996
3.99335
3.94056
3.906
3.89677
3.89564
3.90018
3.91022
3.92535
3.9509
3.98574
4.01175
4.01736
4.01138
3.99764
3.9679
3.91849
3.85856
3.81298
3.79709
3.79646
3.8047
3.82063
3.84642
3.87666
3.89172
3.89577
3.89356
3.88507
3.86674
3.8366
3.80196
3.77579
3.76166
3.75354
3.74684
3.74074
3.73542
3.73159
3.729
3.72126
3.7117
3.70523
3.69914
3.69136
3.6813
3.67015
3.66155
3.66041
3.6683
3.67771
3.68108
3.6796
3.6742
3.66103
3.64071
3.61631
3.59052
3.5654
3.54553
3.53475
3.52951
3.52883
3.53583
3.55012
3.56444
3.57563
3.58455
3.58872
3.58434
3.5724
3.54943
3.51217
3.47597
3.13305
3.12065
3.10797
3.09249
3.07629
3.0635
3.05671
3.0598
3.0592
3.04692
3.03215
3.0166
3.00315
2.99182
2.98413
2.98771
3.00039
3.00226
2.99105
2.9777
2.95882
2.9347
2.9184
2.90872
2.90782
2.92161
2.93179
2.9274
2.91683
2.90456
2.88919
2.87183
2.85674
2.84639
2.84107
2.84221
2.84698
2.84467
2.83769
2.8296
2.81939
2.80579
2.79047
2.77868
2.76997
2.76585
2.76498
2.76323
2.75767
2.74884
2.73977
2.73069
2.72271
2.71653
2.71406
2.71783
2.72397
2.72468
2.71856
2.70779
2.69211
2.67253
2.65259
2.63681
2.62649
2.6199
2.61654
2.61605
2.61945
2.62829
2.63879
2.64307
2.64052
2.63303
2.62372
2.61123
2.59336
2.57232
2.55754
2.54994
2.54738
2.55212
2.56199
2.56737
2.56527
2.5566
2.54341
2.52966
2.51983
2.51288
2.50838
2.50829
2.51042
2.5101
2.50551
2.49753
2.48476
2.46796
2.45491
2.44777
2.44272
2.43954
2.4409
2.44758
2.45141
2.45153
2.44778
2.44165
2.43196
2.41737
2.40301
2.39407
2.3899
2.38888
2.39426
2.38963
2.40142
2.4726
2.68201
3.08265
3.52691
3.97583
4.18677
4.36021
4.41265
4.46441
4.48675
4.50441
4.51686
4.50444
4.48433
4.45633
4.42233
4.39122
4.36892
4.35313
4.34086
4.33283
4.33214
4.33948
4.34808
4.35704
4.36844
4.37681
4.37845
4.37511
4.36624
4.34468
4.30428
4.26025
4.23168
4.21858
4.21301
4.21041
4.21248
4.21761
4.22024
4.21984
4.21909
4.21798
4.21448
4.21032
4.20327
4.19365
4.18404
4.17647
4.16964
4.16151
4.14954
4.13008
4.09948
4.06283
4.03625
4.02589
4.02087
4.01783
4.01698
4.01845
4.02544
4.04214
4.06779
4.08383
4.0922
4.09335
4.0864
4.06779
4.02834
3.96747
3.91034
3.88536
3.88027
3.88015
3.88494
3.89481
3.9122
3.93891
3.97016
3.98809
3.98796
3.98056
3.96452
3.93256
3.8836
3.83053
3.80049
3.79487
3.79933
3.81108
3.82498
3.84872
3.87045
3.87492
3.87118
3.86301
3.84639
3.82056
3.79718
3.78119
3.76798
3.75822
3.7498
3.7395
3.72335
3.70334
3.68642
3.67693
3.67335
3.67483
3.6813
3.68746
3.69226
3.69829
3.70292
3.69731
3.68452
3.67156
3.659
3.64502
3.62982
3.61575
3.60353
3.59153
3.57736
3.5595
3.54161
3.5308
3.52694
3.5284
3.53722
3.55257
3.57016
3.58266
3.5895
3.58879
3.58201
3.56945
3.54602
3.48501
3.1156
3.10698
3.10305
3.0995
3.09214
3.08407
3.07743
3.07241
3.06048
3.04663
3.03176
3.01749
3.00507
2.99385
2.98642
2.98893
2.99751
2.9957
2.98514
2.97367
2.96043
2.94299
2.92621
2.91522
2.90888
2.91252
2.9207
2.92163
2.91517
2.90555
2.89441
2.8808
2.86384
2.84645
2.83471
2.82788
2.82689
2.83276
2.83432
2.83025
2.82386
2.81555
2.80366
2.78812
2.77532
2.76537
2.75736
2.75421
2.75281
2.7455
2.73579
2.72601
2.71627
2.70817
2.70207
2.69953
2.70379
2.7126
2.7152
2.71082
2.70232
2.69117
2.6757
2.6559
2.63515
2.61871
2.60886
2.60339
2.60405
2.60862
2.61669
2.62664
2.63031
2.62751
2.62074
2.61238
2.60138
2.58551
2.56533
2.54906
2.5409
2.53769
2.54089
2.54941
2.55609
2.55525
2.5475
2.534
2.51753
2.50565
2.49855
2.49563
2.5013
2.50847
2.50905
2.5032
2.49491
2.48144
2.46073
2.44222
2.43263
2.42696
2.42422
2.42706
2.43563
2.44228
2.44353
2.44079
2.4355
2.42756
2.4136
2.39618
2.38535
2.37884
2.3762
2.37746
2.38421
2.3769
2.38426
2.44498
2.61866
2.98809
3.43232
3.85773
4.12871
4.30182
4.38326
4.45168
4.49849
4.50846
4.5008
4.48745
4.45841
4.42721
4.39698
4.35958
4.33281
4.32099
4.31519
4.31645
4.32625
4.33811
4.35133
4.36085
4.36673
4.37187
4.37137
4.36181
4.34018
4.30505
4.26526
4.2328
4.21478
4.20898
4.20958
4.21361
4.21035
4.20102
4.19241
4.18524
4.17809
4.17144
4.1675
4.16761
4.17
4.17315
4.17552
4.17569
4.17303
4.16526
4.14762
4.11426
4.06906
4.02918
4.00557
3.99412
3.98688
3.98184
3.98103
3.988
4.00648
4.04205
4.07568
4.09283
4.09974
4.0962
4.08191
4.04606
3.9828
3.9128
3.87066
3.85802
3.85509
3.85569
3.86101
3.87509
3.89686
3.92838
3.9612
3.97357
3.9762
3.96888
3.94905
3.90928
3.85351
3.80699
3.78973
3.78757
3.79099
3.79704
3.81005
3.83247
3.84759
3.84857
3.84391
3.83579
3.82699
3.81329
3.79525
3.7771
3.76063
3.74238
3.71635
3.68352
3.66029
3.65291
3.65215
3.65563
3.67008
3.68989
3.708
3.72209
3.72497
3.71413
3.69537
3.66492
3.63305
3.6131
3.60176
3.5948
3.5909
3.58915
3.58579
3.57816
3.56527
3.54746
3.5356
3.53199
3.53181
3.53595
3.54421
3.55882
3.5716
3.57671
3.57441
3.56726
3.55601
3.50675
3.10084
3.09092
3.08806
3.09354
3.10053
3.10632
3.10339
3.08822
3.06904
3.04901
3.03222
3.01973
3.00814
2.99788
2.99228
2.99267
2.99213
2.98445
2.97443
2.96556
2.95782
2.94867
2.93732
2.92644
2.91799
2.91216
2.90978
2.90844
2.90661
2.90304
2.89525
2.8847
2.87192
2.85439
2.83473
2.82231
2.81535
2.81615
2.82426
2.82628
2.82137
2.81449
2.80624
2.79534
2.78405
2.77435
2.76518
2.75737
2.75268
2.74525
2.73442
2.72316
2.71134
2.70081
2.69329
2.68763
2.68554
2.69032
2.69975
2.70291
2.7005
2.69425
2.68598
2.67483
2.65948
2.64011
2.62002
2.60535
2.5973
2.59435
2.59668
2.60181
2.6098
2.61411
2.61287
2.60887
2.60214
2.59306
2.57977
2.56075
2.54215
2.53224
2.52766
2.52844
2.53436
2.54189
2.54294
2.53669
2.52488
2.50918
2.49796
2.49214
2.49334
2.50002
2.50219
2.49835
2.49286
2.48595
2.47355
2.45292
2.43268
2.42156
2.41593
2.41548
2.42085
2.42665
2.43076
2.43158
2.42891
2.42404
2.41699
2.40421
2.38646
2.37418
2.36761
2.36407
2.36892
2.37413
2.37874
2.37049
2.36801
2.41155
2.56356
2.86826
3.32882
3.75979
4.05239
4.23355
4.36294
4.42995
4.46952
4.48882
4.47807
4.4635
4.44146
4.39449
4.36099
4.34252
4.32811
4.32142
4.32304
4.33085
4.34092
4.34433
4.34323
4.34593
4.3519
4.35186
4.34442
4.33014
4.30764
4.27842
4.24758
4.22301
4.21024
4.20458
4.20052
4.19178
4.1793
4.16438
4.15165
4.14273
4.13775
4.13848
4.14746
4.16151
4.1736
4.17746
4.1763
4.17309
4.16584
4.1483
4.11436
4.06812
4.02296
3.98857
3.96757
3.95845
3.95531
3.95915
3.97335
3.99916
4.03679
4.07516
4.09245
4.09493
4.09142
4.07818
4.04636
3.99042
3.9197
3.86127
3.83565
3.82989
3.83039
3.83756
3.85146
3.87157
3.90254
3.94564
3.96949
3.97383
3.96973
3.95638
3.92432
3.86962
3.80824
3.77249
3.76319
3.76303
3.76575
3.77623
3.80117
3.82489
3.83513
3.84237
3.8449
3.83721
3.82273
3.79956
3.76794
3.73398
3.70201
3.67505
3.65782
3.65086
3.65012
3.65452
3.67129
3.69429
3.71128
3.72014
3.71944
3.70883
3.69299
3.66419
3.62523
3.59773
3.58779
3.58457
3.5845
3.5895
3.59173
3.59041
3.58543
3.57193
3.55064
3.53315
3.52559
3.52201
3.52324
3.52975
3.53785
3.54829
3.55409
3.54941
3.53953
3.50966
3.08864
3.07583
3.07052
3.08166
3.10563
3.12395
3.12039
3.10433
3.08027
3.0509
3.03215
3.02
3.00996
3.00392
3.00287
2.99988
2.98732
2.97412
2.9629
2.95468
2.95016
2.94941
2.94737
2.94101
2.93176
2.91959
2.90789
2.89848
2.89324
2.89402
2.89317
2.88535
2.8747
2.86191
2.84377
2.82527
2.81416
2.80811
2.81146
2.81702
2.8138
2.80697
2.79995
2.79228
2.78425
2.7765
2.7694
2.76404
2.7598
2.75107
2.74013
2.72793
2.71319
2.69769
2.68633
2.67871
2.67272
2.6709
2.67644
2.68563
2.68937
2.68819
2.68435
2.6786
2.67063
2.65977
2.64424
2.62328
2.60258
2.59016
2.58339
2.58183
2.58525
2.59266
2.59884
2.60026
2.59928
2.5945
2.58649
2.57457
2.55581
2.53436
2.52177
2.51565
2.51389
2.51749
2.52569
2.53011
2.52728
2.51972
2.50975
2.5008
2.49463
2.49137
2.48939
2.48574
2.48184
2.47792
2.47252
2.4634
2.44809
2.43186
2.42024
2.41369
2.41161
2.41306
2.41231
2.41148
2.41285
2.41347
2.40917
2.40289
2.39177
2.37642
2.36606
2.36072
2.36073
2.36712
2.37121
2.36685
2.36502
2.35587
2.34282
2.36398
2.48699
2.75106
3.18889
3.63203
3.99234
4.18835
4.31971
4.4059
4.43562
4.4605
4.4544
4.4233
4.40014
4.37526
4.34835
4.33588
4.33301
4.33578
4.33851
4.33143
4.32443
4.31906
4.31818
4.3207
4.3209
4.32141
4.31982
4.31326
4.2993
4.27359
4.23763
4.20538
4.19029
4.18075
4.16894
4.15464
4.13985
4.12927
4.1239
4.12167
4.12726
4.14447
4.1644
4.17045
4.16775
4.16523
4.16181
4.15298
4.13308
4.10041
4.06103
4.0209
3.98489
3.96
3.94931
3.94696
3.95556
3.97569
3.9966
4.01508
4.04125
4.06667
4.07208
4.06683
4.05673
4.03457
3.99466
3.93616
3.8723
3.83038
3.81762
3.8165
3.82458
3.83878
3.85476
3.87815
3.9191
3.95911
3.96796
3.96419
3.95271
3.92484
3.87254
3.80437
3.75497
3.73991
3.73887
3.74445
3.76076
3.78987
3.81951
3.83748
3.84734
3.84525
3.83315
3.81173
3.77453
3.73024
3.69676
3.67806
3.66705
3.66124
3.66101
3.66673
3.68008
3.69255
3.69764
3.69764
3.69333
3.68467
3.67066
3.65208
3.62993
3.61022
3.59746
3.59182
3.5912
3.59422
3.59547
3.59437
3.58951
3.57729
3.55975
3.54241
3.52663
3.5155
3.51047
3.50865
3.51179
3.51417
3.51598
3.51827
3.51624
3.5027
3.08555
3.07017
3.0624
3.07534
3.1099
3.13015
3.1247
3.10927
3.08486
3.05261
3.03199
3.01968
3.01129
3.01296
3.01556
3.00503
2.98888
2.96853
2.95329
2.94357
2.93862
2.94352
2.95292
2.95329
2.94404
2.93063
2.91355
2.89981
2.88968
2.88373
2.88398
2.8812
2.87352
2.86378
2.85213
2.83732
2.82381
2.81436
2.80873
2.80716
2.80265
2.79579
2.78937
2.78315
2.77694
2.77139
2.76693
2.7648
2.76236
2.75552
2.74629
2.73588
2.72251
2.70443
2.68597
2.67301
2.66448
2.65811
2.65791
2.66509
2.67274
2.67593
2.67566
2.67407
2.6709
2.66423
2.65497
2.64152
2.6209
2.59687
2.58051
2.57207
2.56852
2.57197
2.57955
2.587
2.59018
2.58982
2.58632
2.57875
2.56726
2.54866
2.52531
2.50966
2.50245
2.49913
2.50115
2.50946
2.51817
2.52159
2.52069
2.5142
2.50317
2.48885
2.47774
2.47111
2.46607
2.4629
2.46192
2.4604
2.45586
2.44893
2.43889
2.42604
2.41264
2.40404
2.39902
2.39537
2.39202
2.39135
2.3945
2.39416
2.38927
2.38166
2.37252
2.36564
2.3615
2.36039
2.36048
2.35814
2.35459
2.34916
2.34617
2.3403
2.31623
2.32552
2.41474
2.64935
3.04564
3.53605
3.8868
4.1804
4.29682
4.38447
4.42285
4.42257
4.42607
4.40742
4.37177
4.3462
4.3361
4.33178
4.3297
4.32251
4.31239
4.29992
4.28736
4.27578
4.27191
4.28599
4.30678
4.3206
4.32221
4.31203
4.28919
4.24827
4.20114
4.16915
4.1513
4.13781
4.1284
4.12283
4.1193
4.11766
4.12052
4.13191
4.14784
4.15728
4.15622
4.15312
4.15
4.14387
4.13145
4.11024
4.08232
4.05346
4.02553
3.99703
3.97181
3.95812
3.9544
3.95926
3.96894
3.97765
3.98427
3.99554
4.01801
4.03792
4.03838
4.03485
4.02371
3.99933
3.95683
3.89958
3.84542
3.81985
3.81521
3.81667
3.8255
3.8383
3.85707
3.88956
3.93155
3.94766
3.9431
3.93267
3.91056
3.87074
3.81331
3.7589
3.73528
3.73233
3.74063
3.76326
3.79319
3.81763
3.82873
3.82889
3.81758
3.80025
3.77496
3.74494
3.72041
3.70452
3.69376
3.68732
3.68544
3.68356
3.67904
3.67401
3.66828
3.66257
3.65696
3.65137
3.64526
3.63958
3.63379
3.62889
3.62278
3.61387
3.60346
3.59523
3.59003
3.58355
3.57388
3.56283
3.55339
3.54488
3.53523
3.52237
3.50743
3.49809
3.49334
3.49098
3.48928
3.49028
3.49516
3.48806
3.09701
3.07896
3.07159
3.08381
3.11225
3.1241
3.1174
3.10308
3.08194
3.0547
3.03491
3.02312
3.0175
3.02272
3.02158
3.00844
2.99109
2.96753
2.94839
2.93783
2.932
2.93801
2.95088
2.95365
2.94663
2.93617
2.922
2.90649
2.89411
2.88375
2.87559
2.87063
2.86659
2.86146
2.85488
2.84672
2.83776
2.82909
2.81868
2.80613
2.79526
2.78649
2.779
2.7729
2.76813
2.76469
2.76301
2.76193
2.75925
2.75356
2.74587
2.73691
2.72668
2.71291
2.69467
2.67661
2.66308
2.65399
2.64834
2.65033
2.65718
2.6619
2.66355
2.66374
2.6629
2.65959
2.65283
2.64421
2.63243
2.61439
2.59226
2.57474
2.56516
2.56093
2.56411
2.56893
2.57345
2.57675
2.57721
2.57477
2.56823
2.55785
2.54069
2.51711
2.49874
2.49029
2.48639
2.48861
2.49863
2.51326
2.5202
2.51826
2.50966
2.49569
2.47599
2.4601
2.45212
2.4467
2.44391
2.44764
2.45271
2.45424
2.44968
2.44117
2.42634
2.40549
2.39002
2.38277
2.37755
2.37307
2.37095
2.37574
2.38096
2.38044
2.37662
2.37136
2.36376
2.3555
2.34952
2.3446
2.34075
2.33803
2.33583
2.33076
2.32568
2.32361
2.30564
2.31156
2.3774
2.5849
2.94388
3.40079
3.79857
4.06741
4.30188
4.35915
4.40358
4.42342
4.40711
4.38059
4.34689
4.31893
4.30895
4.30369
4.2971
4.2878
4.26815
4.24695
4.24183
4.2461
4.26671
4.2993
4.31638
4.31841
4.31148
4.29287
4.25351
4.19429
4.14127
4.11646
4.10975
4.10622
4.10506
4.10883
4.11847
4.12749
4.13314
4.1369
4.13939
4.13751
4.13455
4.13041
4.12271
4.10964
4.09167
4.07354
4.05658
4.03763
4.01377
3.98611
3.96427
3.95415
3.94908
3.94592
3.94486
3.94684
3.95461
3.97549
4.00764
4.02032
4.02262
4.01891
4.00657
3.97856
3.92962
3.86761
3.82312
3.81023
3.80811
3.81092
3.81809
3.82902
3.85172
3.88916
3.91615
3.91535
3.9103
3.89802
3.87345
3.83145
3.78024
3.74924
3.74358
3.74819
3.75809
3.76481
3.77461
3.78685
3.79071
3.78108
3.77185
3.76537
3.75836
3.74891
3.73771
3.72498
3.71026
3.69241
3.67143
3.65304
3.64167
3.63417
3.6285
3.62379
3.62373
3.62902
3.63601
3.64178
3.64008
3.63184
3.61736
3.59454
3.57255
3.55906
3.55022
3.54433
3.5416
3.54005
3.53701
3.52994
3.51757
3.49946
3.48371
3.47709
3.47351
3.47066
3.46622
3.46581
3.11789
3.10057
3.09558
3.10357
3.11409
3.11183
3.10009
3.08657
3.07212
3.05746
3.04377
3.03449
3.03012
3.02961
3.021
3.00837
2.99269
2.97315
2.95521
2.94279
2.93589
2.9381
2.94386
2.94364
2.93948
2.93387
2.92418
2.91222
2.89977
2.88716
2.87512
2.86464
2.8566
2.85246
2.85173
2.85184
2.84912
2.84145
2.83033
2.81512
2.79768
2.78471
2.7751
2.76694
2.7618
2.76085
2.76083
2.75845
2.75314
2.74634
2.739
2.73092
2.72219
2.71261
2.70083
2.68678
2.67294
2.66118
2.65249
2.64777
2.64863
2.65024
2.64975
2.64864
2.64796
2.64661
2.64318
2.63801
2.63114
2.62251
2.61026
2.59464
2.57814
2.5651
2.55765
2.55498
2.55434
2.55406
2.55752
2.56153
2.56126
2.55673
2.54841
2.53405
2.51225
2.49207
2.4823
2.47886
2.48385
2.49315
2.50428
2.50851
2.50384
2.49569
2.48256
2.46215
2.44433
2.43583
2.43147
2.43335
2.44238
2.44857
2.4475
2.44214
2.4347
2.4207
2.39821
2.37755
2.36676
2.36069
2.35627
2.35587
2.36426
2.37471
2.37601
2.3709
2.36364
2.35286
2.34071
2.33303
2.32753
2.32294
2.3203
2.32117
2.3232
2.32548
2.32393
2.32072
2.29873
2.29226
2.33654
2.4897
2.81733
3.21831
3.67124
3.98436
4.20304
4.33862
4.37425
4.39957
4.38197
4.33833
4.30667
4.29298
4.28276
4.27421
4.26116
4.23975
4.2279
4.22616
4.23789
4.26543
4.2891
4.30008
4.30231
4.29761
4.28314
4.24812
4.18909
4.13079
4.09821
4.0863
4.08222
4.08768
4.10794
4.12271
4.12392
4.12059
4.11665
4.11568
4.11456
4.1126
4.10912
4.10252
4.09475
4.08679
4.07784
4.06703
4.05181
4.02853
3.9947
3.95733
3.93287
3.92304
3.91814
3.91564
3.91705
3.92526
3.94618
3.985
4.01113
4.01802
4.01922
4.0122
3.99274
3.95042
3.88442
3.8228
3.79678
3.79137
3.78903
3.78871
3.79527
3.81416
3.84826
3.88648
3.89727
3.89903
3.89537
3.88255
3.85331
3.80457
3.75625
3.73665
3.73243
3.73053
3.72962
3.73396
3.74381
3.75712
3.76849
3.77957
3.78681
3.78513
3.77722
3.76066
3.73138
3.69323
3.65776
3.63421
3.62176
3.6148
3.61006
3.60708
3.61072
3.62275
3.63621
3.64495
3.64259
3.63385
3.6198
3.59317
3.56098
3.54209
3.53505
3.532
3.53179
3.53507
3.53551
3.53292
3.52615
3.51079
3.48684
3.46891
3.46017
3.45319
3.44774
3.45035
3.13894
3.13435
3.13428
3.12595
3.10958
3.09517
3.07877
3.06683
3.06101
3.05883
3.05495
3.05186
3.04541
3.03243
3.01875
3.00517
2.99106
2.97903
2.96878
2.95856
2.94991
2.94301
2.93581
2.92883
2.92357
2.92327
2.92208
2.9137
2.90293
2.89062
2.87698
2.8646
2.85428
2.84651
2.84747
2.85537
2.85478
2.84499
2.83423
2.82126
2.80427
2.78897
2.77785
2.76891
2.76272
2.76065
2.75916
2.75331
2.74526
2.73714
2.72861
2.72024
2.71284
2.70616
2.69932
2.69181
2.68416
2.67585
2.66688
2.65747
2.6486
2.64121
2.63545
2.63139
2.62887
2.62807
2.6275
2.62598
2.62394
2.62146
2.61718
2.61041
2.60004
2.58377
2.56345
2.5492
2.54177
2.53714
2.53496
2.53806
2.54476
2.54809
2.54626
2.54035
2.52973
2.51202
2.49293
2.48151
2.47617
2.47698
2.48058
2.48564
2.48948
2.48646
2.47978
2.46905
2.45147
2.43598
2.42846
2.42572
2.42942
2.43363
2.4351
2.43274
2.42856
2.42284
2.41172
2.39201
2.37031
2.35621
2.34914
2.34659
2.35209
2.3623
2.36699
2.36205
2.35561
2.348
2.33687
2.32522
2.31795
2.31258
2.30849
2.30977
2.31976
2.32975
2.33105
2.32496
2.31682
2.30448
2.26825
2.25334
2.28407
2.40136
2.66188
3.07131
3.47469
3.87742
4.13258
4.30458
4.32657
4.34691
4.33954
4.31028
4.28068
4.26942
4.25674
4.24807
4.24403
4.24054
4.24065
4.24578
4.25177
4.26016
4.27295
4.27951
4.27416
4.25981
4.23664
4.19607
4.14266
4.09762
4.07809
4.07456
4.08679
4.10732
4.11054
4.10642
4.10119
4.09593
4.09268
4.09031
4.08694
4.086
4.08806
4.0893
4.08625
4.08081
4.07207
4.05778
4.03216
3.99145
3.94595
3.91534
3.90211
3.89699
3.89518
3.89859
3.90826
3.92701
3.96381
4.00263
4.01382
4.01466
4.0092
3.99335
3.95701
3.89287
3.81923
3.77648
3.76524
3.7624
3.76229
3.76874
3.78723
3.8194
3.86566
3.8927
3.89781
3.89674
3.88742
3.86175
3.8105
3.74788
3.71264
3.70439
3.70186
3.70146
3.70857
3.72657
3.75436
3.78197
3.79752
3.79757
3.78927
3.77473
3.74469
3.70041
3.65669
3.62596
3.61004
3.60367
3.60092
3.59982
3.605
3.61741
3.62953
3.63275
3.62712
3.61791
3.60559
3.58508
3.56084
3.54351
3.53454
3.53058
3.53034
3.53377
3.53418
3.53277
3.52929
3.51853
3.4961
3.4692
3.45326
3.44617
3.44151
3.44351
3.1597
3.17502
3.16912
3.14737
3.11215
3.07906
3.06074
3.04946
3.04523
3.05468
3.06771
3.06713
3.05539
3.03832
3.0158
2.99961
2.98966
2.98252
2.982
2.98305
2.97304
2.95486
2.93257
2.91832
2.90951
2.90617
2.91287
2.9132
2.90274
2.89105
2.87809
2.86595
2.85597
2.84837
2.84846
2.85604
2.85306
2.84233
2.8321
2.82084
2.80689
2.79405
2.78416
2.7761
2.77049
2.7656
2.75723
2.74753
2.73731
2.72644
2.71598
2.70698
2.69999
2.69535
2.69326
2.69283
2.69255
2.69
2.68253
2.67113
2.65591
2.63958
2.62701
2.61829
2.61207
2.60884
2.60854
2.61005
2.61234
2.61564
2.61813
2.61544
2.60864
2.59879
2.58186
2.55709
2.53702
2.52725
2.52147
2.51886
2.52108
2.52821
2.5354
2.5371
2.53444
2.52709
2.51392
2.49595
2.47964
2.47004
2.46466
2.46351
2.46477
2.46902
2.47059
2.4669
2.46006
2.44869
2.43608
2.4267
2.42106
2.41844
2.41696
2.41559
2.41495
2.41289
2.40872
2.40142
2.38847
2.37246
2.35851
2.34951
2.3449
2.34642
2.34991
2.34943
2.34359
2.33784
2.33057
2.32046
2.31231
2.30735
2.30442
2.30708
2.31767
2.32778
2.32825
2.32241
2.316
2.30765
2.29275
2.26578
2.23149
2.22309
2.23984
2.32474
2.53011
2.90709
3.34496
3.76133
4.04364
4.23337
4.30647
4.29643
4.27643
4.26618
4.25986
4.26831
4.27761
4.27453
4.26419
4.24806
4.23723
4.233
4.22833
4.22619
4.23602
4.24438
4.2382
4.22583
4.20067
4.16469
4.12567
4.09777
4.08897
4.08992
4.09272
4.09394
4.09121
4.08278
4.07334
4.06629
4.06192
4.06149
4.06674
4.0755
4.0815
4.07919
4.07354
4.06569
4.05197
4.02621
3.98599
3.94133
3.90961
3.89411
3.88794
3.88555
3.88725
3.89653
3.91219
3.93827
3.97533
3.99793
3.99894
3.99334
3.98082
3.95091
3.89564
3.82253
3.76553
3.74557
3.74203
3.74497
3.75602
3.77286
3.79831
3.84013
3.88167
3.89043
3.88668
3.87734
3.85255
3.80335
3.73849
3.69553
3.68426
3.68285
3.68891
3.70971
3.7396
3.7649
3.77963
3.78132
3.77294
3.761
3.74103
3.71099
3.67673
3.6442
3.6185
3.60449
3.59991
3.59953
3.6034
3.60788
3.60748
3.60532
3.60242
3.5962
3.58588
3.57268
3.56222
3.55551
3.54961
3.54456
3.54005
3.53564
3.53226
3.5293
3.52377
3.51297
3.49604
3.47491
3.45607
3.44567
3.44123
3.44305
3.17627
3.19111
3.18127
3.16046
3.12072
3.07434
3.05132
3.04017
3.03646
3.05191
3.0726
3.0718
3.05913
3.04054
3.01511
2.99883
2.98964
2.98555
2.9934
2.99852
2.988
2.97173
2.94615
2.91961
2.90524
2.89679
2.89992
2.90766
2.90135
2.89016
2.87882
2.86791
2.85868
2.85173
2.84988
2.85215
2.84744
2.83771
2.82795
2.81796
2.80731
2.79821
2.79178
2.78781
2.78184
2.77186
2.75966
2.74579
2.7311
2.71711
2.70544
2.6959
2.68847
2.6857
2.68981
2.69598
2.69915
2.69604
2.68731
2.67666
2.66314
2.64594
2.62841
2.61376
2.6034
2.59634
2.59285
2.59561
2.60176
2.60859
2.61343
2.61284
2.60715
2.6
2.59049
2.57467
2.55111
2.52862
2.51598
2.50919
2.50671
2.50752
2.51227
2.52169
2.52814
2.52828
2.52261
2.51197
2.49492
2.47413
2.45892
2.45115
2.44664
2.44561
2.4505
2.45746
2.45868
2.45459
2.44639
2.43385
2.41921
2.40854
2.40243