/*--------------------------------*- C++ -*----------------------------------*\
  =========                 |
  \\      /  F ield         | OpenFOAM: The Open Source CFD Toolbox
   \\    /   O peration     | Website:  https://openfoam.org
    \\  /    A nd           | Version:  7
     \\/     M anipulation  |
\*---------------------------------------------------------------------------*/
FoamFile
{
    version     2.0;
    format      ascii;
    class       volScalarField;
    location    "2.3";
    object      T;
}
// * * * * * * * * * * * * * * * * * * * * * * * * * * * * * * * * * * * * * //

dimensions      [0 0 0 1 0 0 0];

internalField   nonuniform List<scalar> 
16512
(
2.11027
2.106
2.10181
2.09723
2.0924
2.08784
2.0842
2.0811
2.07837
2.0761
2.07344
2.06894
2.06447
2.06002
2.05488
2.0491
2.04347
2.03838
2.03373
2.03147
2.03148
2.03169
2.02982
2.02454
2.01862
2.01144
2.00404
1.99884
1.99532
1.99477
1.99617
1.9972
1.99562
1.99166
1.98654
1.97983
1.97409
1.97081
1.96879
1.96824
1.96826
1.96705
1.96312
1.95703
1.95066
1.94461
1.93985
1.93668
1.93594
1.93651
1.93703
1.936
1.93317
1.9292
1.92342
1.91716
1.91305
1.91051
1.9094
1.90959
1.91063
1.90986
1.90641
1.90282
1.89984
1.89723
1.89385
1.89024
1.88631
1.88199
1.87746
1.87317
1.86967
1.86683
1.86472
1.86431
1.8649
1.86558
1.86422
1.86066
1.857
1.85287
1.84821
1.84411
1.84035
1.83683
1.83386
1.83093
1.8278
1.82466
1.82173
1.81934
1.81749
1.81612
1.81504
1.81361
1.81195
1.81002
1.80744
1.80453
1.80099
1.79658
1.79302
1.79082
1.78902
1.78988
1.79849
1.82844
1.90063
1.98238
2.06464
2.10568
2.12968
2.13898
2.14612
2.14963
2.14952
2.14861
2.14676
2.14403
2.14107
2.138
2.13441
2.13067
2.12668
2.12283
2.12007
2.11893
2.11891
2.12049
2.12311
2.12545
2.12672
2.12672
2.12583
2.12348
2.12005
2.11618
2.11244
2.10937
2.10686
2.10446
2.10176
2.09855
2.09545
2.09389
2.09352
2.09382
2.09559
2.09818
2.09981
2.09994
2.0993
2.09772
2.09571
2.09387
2.09212
2.09047
2.08879
2.08637
2.08238
2.07629
2.07
2.06605
2.06464
2.06424
2.06471
2.06607
2.06782
2.07065
2.07428
2.07617
2.07638
2.07613
2.07508
2.07333
2.07049
2.06583
2.05907
2.05107
2.04467
2.04203
2.04178
2.0426
2.044
2.04531
2.04747
2.05148
2.05667
2.05931
2.0598
2.05891
2.05643
2.05111
2.04261
2.03223
2.02386
2.02011
2.01975
2.02061
2.02284
2.02811
2.0334
2.03596
2.03821
2.03976
2.03997
2.03897
2.03564
2.02993
2.02326
2.01755
2.01292
2.00867
2.00599
2.00567
2.00681
2.0097
2.01254
2.01568
2.01853
2.02018
2.02035
2.01947
2.01647
2.01144
2.00611
2.0016
1.99826
1.99633
1.99485
1.9938
1.99388
1.99404
1.99405
1.99329
1.99095
1.98834
1.98726
1.98709
1.98872
1.9918
1.99438
1.99535
1.99509
1.99323
1.99045
1.98698
1.98222
1.97583
1.96863
1.96329
1.96113
1.96052
1.96047
1.96127
1.96321
1.9667
2.10504
2.09978
2.09399
2.08823
2.08275
2.07784
2.07466
2.07348
2.07314
2.07203
2.06768
2.06264
2.05812
2.05352
2.04875
2.0437
2.03821
2.03283
2.02799
2.02426
2.02269
2.02179
2.02072
2.0176
2.01243
2.00676
2.00006
1.99378
1.98924
1.98611
1.98573
1.98665
1.98708
1.98493
1.98122
1.97661
1.97033
1.96459
1.96111
1.95873
1.95789
1.95774
1.95685
1.95345
1.9478
1.94203
1.93657
1.93222
1.92921
1.928
1.92846
1.92895
1.92804
1.92518
1.92126
1.91535
1.90854
1.90383
1.90117
1.90017
1.90041
1.90105
1.90023
1.89727
1.89415
1.8914
1.88884
1.8858
1.88234
1.87829
1.87373
1.86887
1.86414
1.86023
1.85722
1.85518
1.85465
1.85499
1.85547
1.85401
1.85048
1.84646
1.84223
1.83848
1.83488
1.83151
1.82928
1.82681
1.82334
1.81997
1.81613
1.81217
1.80927
1.80705
1.80566
1.80533
1.80482
1.80387
1.80224
1.79967
1.79703
1.79386
1.78969
1.78548
1.78272
1.78051
1.77912
1.77967
1.78698
1.81462
1.88035
1.96708
2.04132
2.08459
2.10854
2.12353
2.1303
2.13543
2.1363
2.13538
2.13412
2.13148
2.12824
2.12549
2.12202
2.11718
2.11204
2.10777
2.10587
2.10581
2.10709
2.11042
2.11351
2.11505
2.11533
2.11497
2.11364
2.11109
2.10728
2.10336
2.10029
2.09768
2.09515
2.09237
2.08907
2.08587
2.08398
2.08326
2.08326
2.08433
2.08575
2.08659
2.08673
2.0863
2.08508
2.08367
2.08275
2.0824
2.08172
2.08055
2.07885
2.07547
2.06956
2.0625
2.05691
2.05386
2.05293
2.05281
2.05358
2.05528
2.05711
2.05909
2.0613
2.06282
2.06338
2.06352
2.06281
2.06092
2.058
2.05323
2.0462
2.03796
2.03181
2.02955
2.02945
2.0297
2.03081
2.03336
2.03733
2.04322
2.04815
2.05001
2.05027
2.04854
2.04449
2.03717
2.02727
2.01679
2.01011
2.00816
2.00853
2.01002
2.01339
2.01898
2.0238
2.02654
2.02861
2.02939
2.02883
2.02608
2.02085
2.01429
2.00829
2.00372
2.00018
1.99735
1.99674
1.99722
1.99881
2.00189
2.00554
2.00867
2.01071
2.0111
2.01058
2.00812
2.003
1.99651
1.9906
1.98537
1.98114
1.97966
1.98007
1.98077
1.98204
1.9835
1.98377
1.98323
1.9823
1.98215
1.98289
1.98355
1.98327
1.9822
1.98159
1.98122
1.9797
1.97714
1.974
1.96998
1.9647
1.95845
1.95381
1.95234
1.95226
1.95344
1.95631
1.96009
2.10014
2.09423
2.08713
2.07971
2.07399
2.06918
2.06668
2.06703
2.06801
2.06605
2.06022
2.0549
2.04986
2.04534
2.04128
2.03732
2.03284
2.02818
2.02355
2.01918
2.01516
2.01178
2.00934
2.008
2.00537
2.00082
1.99581
1.99017
1.98484
1.98053
1.97722
1.97609
1.97639
1.97667
1.97456
1.9713
1.96729
1.96162
1.95603
1.95227
1.94942
1.94823
1.94799
1.94733
1.94417
1.93871
1.93337
1.92848
1.92452
1.92164
1.92013
1.92025
1.92045
1.91957
1.91676
1.91296
1.90724
1.90025
1.89507
1.89221
1.89098
1.89071
1.89052
1.88941
1.88673
1.88376
1.88132
1.87927
1.87702
1.87366
1.86989
1.86561
1.86086
1.85587
1.85146
1.84811
1.84566
1.84491
1.84505
1.84542
1.84401
1.84041
1.83634
1.83242
1.82876
1.82547
1.82329
1.82119
1.81794
1.8149
1.81167
1.8075
1.80311
1.8
1.79772
1.79675
1.79661
1.79615
1.7948
1.793
1.79094
1.78877
1.78624
1.78272
1.77871
1.77509
1.77241
1.76998
1.76888
1.76828
1.77373
1.79972
1.85784
1.94472
2.01707
2.07201
2.09246
2.10613
2.11476
2.12218
2.12262
2.12145
2.12078
2.11869
2.11565
2.11166
2.10753
2.10264
2.09795
2.09581
2.09572
2.09687
2.09945
2.10151
2.10284
2.10386
2.10402
2.10286
2.10034
2.09725
2.09463
2.09214
2.08954
2.08678
2.08354
2.07982
2.07654
2.0744
2.07354
2.07347
2.07353
2.07356
2.07362
2.07384
2.07369
2.07326
2.07326
2.07368
2.07367
2.07274
2.07188
2.07043
2.067
2.06146
2.05493
2.04901
2.04463
2.04239
2.04192
2.04229
2.04376
2.04545
2.04697
2.04876
2.05097
2.05265
2.05308
2.05298
2.05195
2.04997
2.04652
2.04031
2.03139
2.02269
2.01782
2.01678
2.01712
2.01899
2.02219
2.02639
2.03206
2.03823
2.0411
2.04118
2.03991
2.03636
2.03029
2.02116
2.00975
2.00028
1.99636
1.99612
1.99698
1.99965
2.00509
2.01168
2.01607
2.01842
2.0195
2.01943
2.01769
2.01332
2.00698
2.00065
1.99517
1.99085
1.98804
1.98686
1.98698
1.98867
1.99203
1.9959
1.99928
2.0015
2.00209
2.00166
1.99896
1.993
1.9854
1.97776
1.97186
1.96883
1.96822
1.96905
1.97126
1.97353
1.97561
1.97751
1.97802
1.97692
1.97372
1.9714
1.97019
1.96902
1.96773
1.96734
1.96743
1.96685
1.96449
1.96201
1.95928
1.95562
1.95116
1.94764
1.94636
1.9467
1.94877
1.95154
2.09461
2.08868
2.08142
2.07313
2.06706
2.06244
2.06016
2.06078
2.06139
2.05785
2.05173
2.04596
2.04074
2.03625
2.03234
2.02928
2.02671
2.02384
2.01975
2.01441
2.00847
2.00323
1.99905
1.99724
1.99682
1.99506
1.99093
1.98638
1.98129
1.97603
1.97154
1.96788
1.96633
1.96653
1.96683
1.96492
1.96202
1.95847
1.95357
1.94851
1.9447
1.94159
1.93996
1.93918
1.93795
1.93451
1.92937
1.9245
1.92011
1.91644
1.91358
1.91171
1.91126
1.91109
1.91025
1.9078
1.90431
1.89918
1.89268
1.88726
1.88369
1.88132
1.88027
1.87905
1.87728
1.87484
1.87246
1.87068
1.86928
1.86782
1.86505
1.86148
1.85764
1.8532
1.84809
1.84298
1.83912
1.83639
1.83529
1.83533
1.83557
1.8345
1.83113
1.82706
1.82301
1.81946
1.81645
1.81399
1.81131
1.8086
1.80598
1.80311
1.79934
1.79537
1.79225
1.78986
1.78847
1.78736
1.78584
1.78422
1.783
1.78184
1.78011
1.77796
1.77524
1.77179
1.76801
1.76435
1.76141
1.75895
1.75799
1.75655
1.76052
1.78374
1.83692
1.91732
1.99651
2.0509
2.08686
2.09362
2.10035
2.10528
2.11001
2.1101
2.10845
2.10486
2.10145
2.09736
2.09328
2.09009
2.08783
2.08701
2.08736
2.0885
2.08967
2.09038
2.09122
2.09096
2.08967
2.08821
2.08681
2.0855
2.08376
2.08163
2.07891
2.07535
2.07123
2.06733
2.06475
2.06381
2.06352
2.06318
2.06262
2.06225
2.06245
2.06282
2.06348
2.06437
2.06446
2.06343
2.06246
2.06151
2.05958
2.05616
2.05186
2.04745
2.04284
2.03818
2.03463
2.03315
2.033
2.0341
2.03518
2.03547
2.03558
2.03666
2.03982
2.04254
2.04296
2.04224
2.04074
2.03774
2.0328
2.0256
2.01699
2.01011
2.00747
2.00741
2.00929
2.01225
2.01527
2.01908
2.02479
2.03039
2.03193
2.03114
2.02783
2.02233
2.01391
2.003
1.99193
1.98576
1.98461
1.9856
1.98883
1.99405
2.00088
2.00621
2.00936
2.01094
2.01099
2.0098
2.00583
1.99906
1.99118
1.98442
1.97988
1.9777
1.97734
1.97788
1.98008
1.98361
1.98734
1.99041
1.99193
1.99194
1.99039
1.98644
1.98076
1.97411
1.96796
1.96349
1.96139
1.9617
1.96362
1.96614
1.96854
1.97032
1.97113
1.96991
1.96556
1.96081
1.95807
1.95672
1.95582
1.95499
1.95464
1.95462
1.95465
1.95436
1.95334
1.9514
1.94922
1.94675
1.94358
1.94088
1.93971
1.94048
2.08737
2.08198
2.07571
2.06829
2.06198
2.05714
2.05431
2.05423
2.05373
2.04907
2.04314
2.03739
2.03218
2.0275
2.0236
2.02172
2.02096
2.0194
2.01485
2.00937
2.00279
1.99616
1.99139
1.9881
1.98774
1.98803
1.98655
1.9822
1.97761
1.97249
1.96701
1.96234
1.95876
1.95697
1.95699
1.9572
1.95547
1.95294
1.95001
1.94626
1.94208
1.93822
1.93481
1.93207
1.9301
1.92781
1.92444
1.91995
1.91539
1.91129
1.9077
1.9047
1.90237
1.90127
1.90099
1.90047
1.89869
1.89561
1.89138
1.88583
1.88015
1.87535
1.87162
1.86896
1.86697
1.86478
1.86266
1.861
1.86021
1.85979
1.85898
1.85674
1.85328
1.84971
1.84548
1.84019
1.83452
1.83023
1.82735
1.82593
1.82587
1.82613
1.82534
1.82237
1.81832
1.81406
1.81009
1.80653
1.80345
1.80091
1.79888
1.79697
1.79465
1.7919
1.78874
1.78545
1.78224
1.77938
1.77706
1.77507
1.77334
1.77256
1.77214
1.77118
1.76932
1.76719
1.76451
1.76101
1.75699
1.75324
1.75036
1.74826
1.74753
1.74531
1.74817
1.76594
1.81679
1.89096
1.97625
2.03149
2.06781
2.08502
2.08873
2.09421
2.09714
2.09763
2.09683
2.09288
2.08876
2.08587
2.08243
2.07881
2.07703
2.07637
2.07614
2.07595
2.07557
2.07511
2.07537
2.07554
2.07551
2.07554
2.07567
2.07517
2.07377
2.07155
2.06818
2.06339
2.05807
2.0549
2.05413
2.0539
2.05347
2.05269
2.05241
2.05245
2.05277
2.05322
2.05316
2.0521
2.05097
2.05005
2.04866
2.04653
2.04406
2.04169
2.03942
2.0369
2.03346
2.02956
2.02658
2.02503
2.02422
2.02383
2.02366
2.02355
2.02364
2.02507
2.02812
2.02986
2.02945
2.02832
2.02658
2.02371
2.01914
2.01258
2.00471
1.99956
1.9986
1.99917
2.00096
2.00367
2.00697
2.01149
2.01695
2.02017
2.02002
2.01713
2.01225
2.00545
1.99651
1.98626
1.97848
1.97626
1.97694
1.98019
1.98501
1.99131
1.99783
2.00157
2.0028
2.00257
2.00068
1.9959
1.98831
1.97972
1.97317
1.96997
1.96904
1.96916
1.97023
1.97238
1.97516
1.97782
1.97852
1.97837
1.97792
1.97656
1.974
1.97037
1.96601
1.96184
1.95907
1.95808
1.95829
1.95881
1.95921
1.9597
1.95946
1.95804
1.95572
1.95296
1.94979
1.94705
1.94554
1.94469
1.94437
1.94489
1.94614
1.94701
1.94714
1.94694
1.94607
1.94396
1.94122
1.93784
1.93239
1.92864
2.07771
2.07311
2.06853
2.06342
2.05803
2.0532
2.04968
2.04809
2.0457
2.0406
2.03522
2.02978
2.02469
2.01997
2.01612
2.01482
2.01458
2.01283
2.00791
2.00305
1.99745
1.99089
1.98571
1.98184
1.98012
1.9806
1.98062
1.97761
1.973
1.96848
1.96343
1.95805
1.95328
1.94975
1.94764
1.94729
1.9475
1.94634
1.94428
1.94212
1.93941
1.93583
1.93163
1.92762
1.92373
1.92044
1.91752
1.91434
1.91034
1.90581
1.9017
1.89798
1.8948
1.89226
1.89083
1.89077
1.8908
1.88982
1.88708
1.88349
1.87885
1.8733
1.86754
1.86241
1.85838
1.85527
1.853
1.85139
1.85056
1.8506
1.851
1.85049
1.84826
1.84481
1.84131
1.83719
1.83199
1.82618
1.82158
1.81859
1.81688
1.81661
1.81683
1.81622
1.81373
1.80957
1.80484
1.80002
1.79595
1.79272
1.79027
1.78905
1.78813
1.78689
1.78477
1.78201
1.77829
1.77362
1.76949
1.76671
1.76453
1.76281
1.76224
1.76233
1.76203
1.76103
1.75914
1.75687
1.75388
1.74983
1.74554
1.74213
1.73959
1.7377
1.73715
1.73442
1.73601
1.7502
1.79335
1.87014
1.9458
2.01506
2.04578
2.0711
2.07818
2.08509
2.08706
2.08718
2.08694
2.08323
2.07833
2.07441
2.07043
2.06689
2.06448
2.06254
2.06071
2.05943
2.05924
2.06009
2.06133
2.06281
2.0647
2.0661
2.06636
2.06583
2.06439
2.06117
2.05564
2.04988
2.04624
2.04476
2.04419
2.04369
2.04353
2.04318
2.04218
2.04079
2.03974
2.03895
2.03798
2.03722
2.03617
2.03482
2.03367
2.0331
2.03281
2.03242
2.03153
2.02951
2.02542
2.02008
2.01576
2.01367
2.01239
2.01125
2.01033
2.00977
2.0099
2.0115
2.01478
2.01668
2.01749
2.01747
2.01613
2.01338
2.00801
1.99951
1.99122
1.988
1.98815
1.98943
1.99157
1.99421
1.99739
2.00139
2.00542
2.00666
2.00508
2.00128
1.99652
1.99023
1.98233
1.97395
1.96978
1.96975
1.97222
1.97651
1.98098
1.98652
1.99077
1.99173
1.99106
1.98872
1.9838
1.97666
1.97006
1.96553
1.9626
1.96182
1.96207
1.96287
1.96329
1.96314
1.96299
1.96339
1.96405
1.96476
1.96515
1.96479
1.96355
1.9618
1.95955
1.95589
1.95173
1.94892
1.94723
1.94599
1.94495
1.94427
1.94389
1.94347
1.9426
1.94096
1.93893
1.93761
1.93707
1.93718
1.93813
1.93966
1.94104
1.94135
1.94084
1.93899
1.93615
1.93317
1.9293
1.9215
2.06642
2.06281
2.0601
2.05732
2.0537
2.04984
2.04616
2.04278
2.03793
2.03293
2.02782
2.02277
2.01801
2.01341
2.00961
2.00794
2.00699
2.00441
1.99987
1.99573
1.99154
1.98664
1.98179
1.97793
1.97493
1.9739
1.97335
1.97154
1.96775
1.9635
1.95919
1.95444
1.94922
1.94422
1.94065
1.9384
1.93772
1.93819
1.93791
1.93638
1.93437
1.93188
1.92846
1.92403
1.91974
1.91559
1.91139
1.9079
1.90461
1.90015
1.89545
1.8912
1.88737
1.8843
1.88198
1.88069
1.88079
1.88131
1.88082
1.87838
1.87497
1.87107
1.86625
1.86056
1.85466
1.84946
1.84556
1.84276
1.84152
1.84107
1.84116
1.84164
1.8411
1.83888
1.83564
1.83233
1.82851
1.82369
1.81804
1.81313
1.80989
1.80788
1.80718
1.80708
1.80655
1.80439
1.80037
1.7955
1.79021
1.78578
1.78254
1.78065
1.78059
1.78065
1.77977
1.77715
1.77428
1.77047
1.76518
1.7601
1.75681
1.75456
1.7531
1.75292
1.75338
1.75359
1.7529
1.75103
1.74868
1.74596
1.74204
1.73734
1.73363
1.73077
1.72875
1.72753
1.72727
1.72452
1.72481
1.73656
1.77224
1.84451
1.92215
1.98916
2.02925
2.05422
2.06488
2.07398
2.07771
2.07704
2.07483
2.07178
2.06678
2.06268
2.05907
2.05397
2.0499
2.04793
2.04686
2.04684
2.04819
2.05036
2.05294
2.05506
2.05657
2.05769
2.05768
2.05626
2.0532
2.04853
2.04322
2.03873
2.03599
2.03485
2.03452
2.03416
2.03242
2.02958
2.02743
2.0259
2.02466
2.02353
2.02283
2.02281
2.02313
2.02385
2.02478
2.02558
2.02611
2.02591
2.02414
2.01973
2.01304
2.00674
2.00249
2.00005
1.99833
1.9969
1.9962
1.99641
1.9983
2.00311
2.00759
2.00956
2.01014
2.00924
2.00686
2.00207
1.99366
1.98363
1.97769
1.97656
1.97729
1.97875
1.9807
1.98338
1.98648
1.99048
1.9938
1.99382
1.99233
1.9891
1.98455
1.97823
1.97012
1.96355
1.96208
1.96337
1.96627
1.96938
1.97308
1.97731
1.97948
1.97912
1.97691
1.97309
1.96874
1.96387
1.95946
1.9565
1.95493
1.95391
1.95237
1.95007
1.94909
1.94992
1.95161
1.9533
1.95576
1.95805
1.95926
1.95934
1.95738
1.95227
1.94651
1.94044
1.93529
1.93274
1.93187
1.93177
1.93225
1.93341
1.93421
1.93428
1.93361
1.93177
1.93059
1.93035
1.93035
1.93085
1.93158
1.93265
1.93299
1.93218
1.93002
1.92712
1.92426
1.91763
2.0554
2.05156
2.04945
2.04852
2.04756
2.04639
2.04359
2.03786
2.03179
2.02577
2.02039
2.01583
2.01142
2.00714
2.00376
2.00146
1.99896
1.99516
1.99122
1.98788
1.98498
1.98196
1.97853
1.97508
1.97188
1.96888
1.96635
1.96391
1.96135
1.9583
1.95437
1.95014
1.94566
1.94056
1.93536
1.93177
1.92951
1.92914
1.92997
1.92983
1.92796
1.92564
1.92296
1.9195
1.91565
1.91176
1.90759
1.90327
1.89946
1.89493
1.88981
1.88494
1.88035
1.87658
1.87391
1.87186
1.87074
1.8709
1.87149
1.871
1.86893
1.8658
1.86238
1.85839
1.85352
1.84787
1.84211
1.83735
1.83408
1.83219
1.83151
1.8313
1.83142
1.83093
1.82907
1.82641
1.82332
1.81979
1.81541
1.80993
1.80453
1.80084
1.79844
1.79726
1.79673
1.7963
1.79468
1.79108
1.78656
1.78158
1.77748
1.77465
1.77366
1.77357
1.77296
1.77081
1.7684
1.76582
1.7622
1.75704
1.75188
1.7484
1.74614
1.74519
1.74516
1.74511
1.74477
1.74375
1.74199
1.73981
1.7372
1.73354
1.72886
1.72498
1.72215
1.72006
1.71978
1.71944
1.71899
1.71585
1.71358
1.72244
1.75378
1.81446
1.89756
1.9669
2.01027
2.03527
2.05209
2.06032
2.06494
2.06546
2.06358
2.06105
2.0571
2.0499
2.04492
2.0417
2.03898
2.03772
2.03795
2.0394
2.04172
2.04339
2.0445
2.04591
2.04739
2.04757
2.04671
2.04472
2.04182
2.03788
2.03335
2.02925
2.02631
2.02435
2.02246
2.01977
2.01704
2.01459
2.01279
2.01148
2.0107
2.01074
2.01193
2.01395
2.01596
2.01715
2.0178
2.01835
2.01826
2.0165
2.01207
2.00541
1.99841
1.99262
1.98867
1.9866
1.98561
1.98562
1.98695
1.99024
1.9953
2.00038
2.00249
2.00262
2.00172
1.99933
1.99494
1.98764
1.97787
1.96932
1.96591
1.96574
1.9668
1.96888
1.97144
1.97432
1.97824
1.9834
1.98513
1.98423
1.98173
1.97825
1.97326
1.96583
1.95722
1.95291
1.95293
1.95501
1.95757
1.96084
1.96527
1.96838
1.96865
1.96811
1.96613
1.96206
1.9573
1.95259
1.94794
1.94397
1.94109
1.93939
1.93906
1.94002
1.94199
1.94427
1.94767
1.95105
1.95284
1.9529
1.95087
1.94621
1.94112
1.93502
1.92823
1.92373
1.92237
1.92224
1.92273
1.92457
1.92607
1.92712
1.9276
1.92694
1.9247
1.92276
1.92213
1.92179
1.92197
1.92249
1.92258
1.92269
1.92218
1.9197
1.91651
1.91144
2.04513
2.04072
2.03821
2.03858
2.04065
2.04204
2.03951
2.03341
2.02627
2.01851
2.0128
2.00847
2.00457
2.00132
1.999
1.99615
1.9913
1.98676
1.98292
1.97995
1.97794
1.97671
1.9752
1.97282
1.96972
1.96574
1.96149
1.95743
1.95415
1.95205
1.94955
1.94559
1.94142
1.93712
1.93207
1.92718
1.92383
1.92168
1.92156
1.9218
1.92036
1.91789
1.91538
1.91253
1.90933
1.90587
1.90227
1.89872
1.89523
1.89064
1.88567
1.88056
1.87524
1.87022
1.86649
1.86388
1.86174
1.86066
1.86084
1.86126
1.86074
1.85883
1.85613
1.85308
1.84965
1.84567
1.84083
1.83506
1.82943
1.82544
1.82282
1.82156
1.82125
1.82129
1.82103
1.81962
1.81751
1.81456
1.81106
1.80687
1.80142
1.79548
1.79126
1.78856
1.78693
1.78621
1.78594
1.78498
1.7823
1.77857
1.77476
1.77129
1.76844
1.76631
1.76465
1.76268
1.76072
1.75882
1.75657
1.75361
1.74962
1.7454
1.742
1.73949
1.73793
1.73707
1.73576
1.73431
1.73336
1.73241
1.73041
1.72799
1.72469
1.72062
1.71736
1.71504
1.71401
1.71392
1.71347
1.71108
1.70948
1.70619
1.70187
1.7059
1.73145
1.78559
1.86685
1.93897
1.99274
2.02011
2.03727
2.04864
2.05256
2.05445
2.05263
2.04737
2.04278
2.03776
2.03246
2.03007
2.02964
2.0302
2.03132
2.03154
2.03213
2.03279
2.03378
2.03497
2.03556
2.03609
2.03608
2.0354
2.03349
2.02925
2.02282
2.01632
2.01229
2.00968
2.00725
2.00503
2.00304
2.00171
2.00106
2.00073
2.00141
2.00362
2.00636
2.00745
2.00758
2.00818
2.00878
2.00865
2.0068
2.00262
1.99715
1.99108
1.98516
1.98068
1.9783
1.97741
1.978
1.98024
1.98277
1.98502
1.98853
1.99192
1.99252
1.99151
1.98964
1.98648
1.98128
1.97356
1.96432
1.95808
1.95652
1.95686
1.9588
1.96125
1.96361
1.96655
1.97172
1.97619
1.97643
1.97461
1.97156
1.96725
1.96033
1.95103
1.94452
1.94356
1.9449
1.94768
1.9516
1.95633
1.96032
1.96174
1.96154
1.95889
1.95386
1.94818
1.94162
1.93531
1.93152
1.93042
1.93049
1.93163
1.93378
1.93659
1.93993
1.94229
1.94297
1.94254
1.94061
1.93736
1.93322
1.92859
1.92381
1.91971
1.91712
1.9162
1.91628
1.91736
1.91847
1.91944
1.91989
1.9194
1.91789
1.91631
1.91482
1.91375
1.91317
1.91276
1.91281
1.91232
1.91124
1.90974
1.90779
1.90398
2.03734
2.03237
2.02926
2.0299
2.03399
2.03592
2.03297
2.02704
2.01985
2.01154
2.00552
2.00128
1.99791
1.99664
1.99532
1.99107
1.98587
1.98017
1.97569
1.97249
1.9706
1.97073
1.97134
1.97059
1.96735
1.96321
1.95813
1.95335
1.94907
1.94551
1.94315
1.9403
1.93645
1.93254
1.92852
1.9241
1.92011
1.91704
1.91477
1.91343
1.91147
1.90906
1.90665
1.90408
1.90126
1.89831
1.89538
1.89284
1.89003
1.88612
1.88174
1.87718
1.8722
1.86666
1.86134
1.85727
1.85429
1.85184
1.85095
1.85114
1.85122
1.85043
1.84855
1.84633
1.84384
1.84066
1.83716
1.83293
1.82745
1.82144
1.81683
1.8139
1.81215
1.81188
1.81193
1.81177
1.81058
1.80843
1.80556
1.80192
1.79782
1.79253
1.78638
1.78161
1.77871
1.77678
1.77598
1.77588
1.77564
1.77426
1.77204
1.76869
1.76476
1.76039
1.75661
1.75403
1.75191
1.75011
1.74882
1.74736
1.74529
1.74295
1.74001
1.73651
1.73275
1.72978
1.72773
1.72596
1.72405
1.72273
1.72213
1.72098
1.71879
1.7163
1.71365
1.71141
1.70956
1.70825
1.70703
1.70527
1.70327
1.70091
1.69929
1.69666
1.69002
1.69143
1.70943
1.75796
1.83323
1.91594
1.96903
2.01131
2.02648
2.03735
2.04187
2.04152
2.04038
2.03552
2.02831
2.02329
2.02078
2.02016
2.02045
2.0206
2.02067
2.02032
2.01971
2.01923
2.01962
2.02287
2.02649
2.02875
2.02897
2.02726
2.0229
2.01497
2.00606
1.99972
1.99632
1.99446
1.99346
1.99297
1.99274
1.99264
1.99296
1.9942
1.99605
1.99725
1.99724
1.9974
1.99795
1.99825
1.99783
1.99584
1.99231
1.98821
1.984
1.97938
1.975
1.97219
1.97099
1.97112
1.97189
1.97271
1.97324
1.97445
1.97748
1.98024
1.98022
1.97939
1.97756
1.97424
1.96852
1.96059
1.95249
1.9488
1.94849
1.94917
1.95091
1.95295
1.95549
1.95975
1.96514
1.96665
1.96524
1.96264
1.95913
1.95396
1.9465
1.9392
1.93684
1.9375
1.94033
1.9449
1.94957
1.95248
1.95284
1.95128
1.94665
1.94107
1.93538
1.93021
1.92672
1.92528
1.92508
1.92574
1.92749
1.92914
1.92995
1.93017
1.92992
1.92926
1.92805
1.92623
1.92385
1.92126
1.91858
1.91624
1.91413
1.91219
1.91061
1.9098
1.90969
1.90956
1.90909
1.90857
1.90842
1.90839
1.90817
1.90728
1.90565
1.90434
1.90345
1.90257
1.90138
1.90004
1.89891
1.89555
2.03216
2.02647
2.02347
2.02396
2.02704
2.0277
2.02452
2.0191
2.01266
2.00536
1.99957
1.99551
1.99296
1.99255
1.99087
1.98641
1.98143
1.97542
1.97027
1.96694
1.96484
1.96506
1.96625
1.96585
1.96291
1.95922
1.95472
1.94967
1.945
1.94058
1.9365
1.93309
1.93006
1.9269
1.92359
1.92018
1.91679
1.91367
1.91038
1.90676
1.90352
1.90071
1.89804
1.89551
1.89307
1.89072
1.88861
1.88642
1.88382
1.88045
1.87668
1.87271
1.86857
1.86388
1.85853
1.8533
1.84899
1.8456
1.84302
1.84218
1.84195
1.8414
1.84009
1.83834
1.83641
1.83399
1.83094
1.82781
1.82419
1.81944
1.81397
1.80931
1.80611
1.80402
1.8034
1.8028
1.80186
1.8004
1.79834
1.79577
1.79235
1.78858
1.78378
1.7778
1.77263
1.76946
1.76743
1.76678
1.76706
1.76799
1.7677
1.76535
1.76115
1.7565
1.75108
1.74629
1.74328
1.74109
1.73958
1.73934
1.73912
1.73852
1.73652
1.73388
1.73012
1.72508
1.72072
1.71806
1.71595
1.71381
1.71225
1.71202
1.71178
1.71065
1.70889
1.70707
1.70485
1.70235
1.70011
1.69806
1.69609
1.69426
1.69254
1.68995
1.68766
1.68577
1.68023
1.681
1.69385
1.73717
1.80728
1.8866
1.94815
1.9869
2.01894
2.02583
2.03055
2.03114
2.02762
2.02112
2.0142
2.00977
2.00883
2.00894
2.00911
2.00921
2.00791
2.00607
2.00622
2.00798
2.01236
2.01776
2.02043
2.02057
2.01869
2.01413
2.0063
1.99616
1.98741
1.98332
1.98279
1.9828
1.98291
1.98376
1.98518
1.9861
1.98645
1.98662
1.98687
1.98677
1.98694
1.98733
1.9874
1.98675
1.98494
1.98268
1.98025
1.97729
1.97347
1.96893
1.96506
1.96288
1.9617
1.96093
1.9605
1.96052
1.96128
1.96405
1.96847
1.96995
1.96999
1.96907
1.96691
1.96285
1.95604
1.94705
1.9405
1.93901
1.93923
1.94023
1.9417
1.94339
1.94639
1.95133
1.9546
1.95404
1.95247
1.95017
1.94684
1.94158
1.93505
1.9317
1.93191
1.93387
1.93619
1.9372
1.93799
1.93815
1.93693
1.93286
1.92903
1.92647
1.92457
1.92322
1.92247
1.92202
1.92151
1.92057
1.91906
1.91771
1.91708
1.91663
1.91599
1.91489
1.9141
1.91353
1.91285
1.91203
1.91033
1.90781
1.90516
1.90181
1.8988
1.89737
1.8969
1.89697
1.8978
1.89904
1.89992
1.90007
1.89949
1.89747
1.89513
1.89379
1.89259
1.89098
1.88875
1.88583
2.02808
2.0226
2.02006
2.01986
2.01997
2.01834
2.01403
2.00948
2.00473
1.99996
1.99544
1.99192
1.98959
1.98819
1.98509
1.98137
1.97709
1.97199
1.96711
1.96327
1.96063
1.95996
1.95971
1.95848
1.956
1.95307
1.94932
1.94494
1.9403
1.93553
1.93083
1.92642
1.92255
1.91963
1.91745
1.91548
1.91319
1.91001
1.90651
1.9024
1.89791
1.89426
1.8912
1.88831
1.88587
1.88423
1.88247
1.88013
1.87702
1.87361
1.87014
1.86656
1.86289
1.85913
1.85497
1.85039
1.84581
1.8416
1.838
1.83524
1.83369
1.83229
1.8306
1.82877
1.827
1.82516
1.82296
1.82052
1.81796
1.81515
1.81166
1.80752
1.80317
1.79928
1.79628
1.79427
1.79253
1.79058
1.7891
1.7877
1.78573
1.78291
1.77964
1.77554
1.77011
1.76484
1.76145
1.75954
1.7593
1.75937
1.75967
1.75883
1.75573
1.75186
1.74739
1.74182
1.73676
1.73368
1.73175
1.7314
1.73202
1.73231
1.73129
1.72902
1.72657
1.72294
1.71761
1.71227
1.70864
1.70612
1.70399
1.70301
1.70339
1.70424
1.70373
1.70148
1.69916
1.69641
1.69322
1.69064
1.68841
1.68621
1.68436
1.68307
1.68187
1.68085
1.67949
1.67764
1.67197
1.66905
1.67797
1.71073
1.77707
1.84874
1.92104
1.9661
1.99666
2.01495
2.01613
2.01662
2.01313
2.00559
2.00065
1.99885
1.99826
1.99845
1.99816
1.99656
1.99595
1.99635
1.99917
2.00418
2.00834
2.01006
2.01003
2.00816
2.00389
1.99705
1.98757
1.97867
1.97376
1.97212
1.97189
1.97307
1.97623
1.978
1.97793
1.97701
1.97613
1.97594
1.97603
1.97641
1.97676
1.97669
1.97631
1.97568
1.9747
1.97322
1.97091
1.96732
1.96205
1.95613
1.95205
1.9503
1.94938
1.94884
1.94894
1.94998
1.9528
1.95813
1.96136
1.96176
1.96146
1.9596
1.95626
1.95021
1.9409
1.93183
1.92826
1.92819
1.92874
1.92934
1.93078
1.93343
1.93787
1.94272
1.94352
1.9432
1.94211
1.94011
1.9366
1.93058
1.92466
1.92305
1.92358
1.92417
1.92408
1.92411
1.92398
1.92382
1.92313
1.92258
1.92222
1.92122
1.91999
1.91852
1.91566
1.91152
1.90779
1.90585
1.90531
1.90525
1.90516
1.90481
1.90511
1.90601
1.90672
1.90678
1.90504
1.90199
1.89883
1.89444
1.88957
1.88704
1.8866
1.88679
1.8878
1.8897
1.89113
1.89215
1.89243
1.89148
1.88851
1.88583
1.8842
1.88233
1.88026
1.87795
2.02411
2.02117
2.01951
2.01634
2.01184
2.00787
2.00346
1.99971
1.99698
1.99473
1.99212
1.9898
1.98684
1.98303
1.97931
1.9756
1.97171
1.96801
1.96459
1.96108
1.95783
1.9549
1.95193
1.94906
1.94647
1.94482
1.94266
1.93884
1.93452
1.92991
1.92507
1.92049
1.91635
1.9128
1.91127
1.91074
1.90898
1.90514
1.90156
1.89776
1.89332
1.88926
1.88599
1.88304
1.88046
1.87858
1.8766
1.87348
1.86984
1.86619
1.86247
1.85888
1.85557
1.85244
1.84925
1.84583
1.84228
1.83849
1.83455
1.83057
1.82678
1.82343
1.82058
1.81822
1.81634
1.81478
1.81328
1.81172
1.81016
1.80859
1.80675
1.80446
1.80144
1.79718
1.79194
1.78749
1.78439
1.78183
1.77966
1.77819
1.77729
1.7761
1.77406
1.77124
1.76792
1.76339
1.75852
1.75488
1.75236
1.75113
1.75022
1.74933
1.74817
1.74563
1.74229
1.73841
1.73355
1.72915
1.72633
1.72471
1.72441
1.72418
1.72358
1.72211
1.72039
1.7184
1.71529
1.71048
1.70511
1.70091
1.69798
1.6962
1.69602
1.69654
1.69656
1.69431
1.69188
1.68968
1.6869
1.68385
1.68143
1.67922
1.6772
1.67652
1.67691
1.67751
1.67691
1.674
1.67113
1.66751
1.65895
1.65403
1.66027
1.68566
1.74001
1.81607
1.88197
1.94256
1.97743
1.99943
1.99988
2.00076
1.99897
1.99368
1.99008
1.9895
1.9885
1.98863
1.98919
1.98953
1.99027
1.99195
1.99387
1.99604
1.99808
1.99845
1.99664
1.99255
1.98752
1.98122
1.97365
1.96724
1.9644
1.96391
1.96583
1.96857
1.96877
1.96772
1.96644
1.96539
1.96523
1.96537
1.96548
1.96583
1.96665
1.96719
1.96715
1.96673
1.96556
1.96344
1.9597
1.95377
1.9469
1.94208
1.93994
1.93911
1.9388
1.93924
1.94065
1.94328
1.94832
1.95329
1.95423
1.95369
1.95176
1.94849
1.94316
1.93443
1.92387
1.91783
1.91682
1.91735
1.91828
1.91985
1.92238
1.92639
1.93242
1.93551
1.93565
1.93513
1.93354
1.93053
1.92428
1.91624
1.91213
1.9119
1.91215
1.91221
1.91282
1.91418
1.91638
1.91828
1.91881
1.91764
1.91519
1.91297
1.90947
1.90425
1.8991
1.8959
1.89489
1.89501
1.8955
1.89583
1.89678
1.89827
1.89932
1.89908
1.89686
1.89385
1.89075
1.88692
1.88301
1.88031
1.87918
1.87909
1.87973
1.88144
1.88277
1.88397
1.8848
1.88462
1.88245
1.87895
1.87666
1.87525
1.87381
1.87188
2.02114
2.02224
2.01969
2.01379
2.00603
1.99867
1.99407
1.99057
1.98862
1.98891
1.98937
1.98787
1.98356
1.97883
1.97338
1.96902
1.96591
1.96314
1.96154
1.96011
1.95626
1.95102
1.94498
1.94033
1.93685
1.93471
1.93424
1.93242
1.92793
1.92347
1.91897
1.91467
1.91079
1.90745
1.90597
1.90554
1.90323
1.8991
1.89552
1.89198
1.88807
1.88448
1.88148
1.87876
1.87637
1.87394
1.87059
1.86676
1.86264
1.8583
1.85407
1.8503
1.84712
1.84444
1.84231
1.84031
1.83816
1.83545
1.83154
1.82694
1.82174
1.81648
1.81208
1.80863
1.80592
1.80402
1.80289
1.80207
1.80146
1.80115
1.80085
1.79952
1.79731
1.79453
1.79023
1.78418
1.77855
1.77476
1.77183
1.76955
1.76804
1.76732
1.76687
1.76568
1.76359
1.76076
1.75708
1.75244
1.74787
1.74433
1.74167
1.73998
1.7385
1.73741
1.73594
1.73339
1.73028
1.72662
1.72287
1.71976
1.71738
1.7158
1.71458
1.71335
1.71236
1.71114
1.70948
1.70715
1.7037
1.69948
1.69546
1.69214
1.68958
1.68843
1.68778
1.68651
1.68401
1.68196
1.67992
1.67743
1.67519
1.67342
1.67202
1.67178
1.67247
1.67332
1.67249
1.66956
1.66677
1.66382
1.65974
1.65328
1.6452
1.6414
1.64462
1.66312
1.70659
1.77888
1.85296
1.91629
1.95552
1.98131
1.98732
1.98496
1.98202
1.9809
1.9809
1.98278
1.98431
1.98426
1.98384
1.98298
1.98263
1.98304
1.98341
1.98347
1.98422
1.98413
1.98174
1.97847
1.97457
1.96977
1.96441
1.96032
1.95872
1.95872
1.95889
1.9586
1.95748
1.95572
1.95453
1.95398
1.9538
1.954
1.95522
1.9568
1.95783
1.95769
1.95708
1.95603
1.95411
1.95052
1.9449
1.93849
1.93382
1.93153
1.93063
1.93032
1.93065
1.93216
1.93444
1.9379
1.94264
1.94495
1.94448
1.94254
1.93963
1.9352
1.92804
1.91819
1.91015
1.90786
1.90799
1.90921
1.91116
1.91325
1.91616
1.92149
1.92684
1.92779
1.92698
1.92554
1.92258
1.91668
1.90817
1.90272
1.9019
1.90214
1.90333
1.90583
1.90878
1.91058
1.91092
1.90979
1.90688
1.90433
1.90159
1.898
1.89399
1.8903
1.88766
1.88676
1.88697
1.88762
1.88872
1.88942
1.88921
1.88827
1.88679
1.88461
1.88189
1.87899
1.87682
1.87544
1.87446
1.87399
1.87394
1.87411
1.87469
1.87552
1.87597
1.87578
1.8745
1.87228
1.87004
1.86859
1.8677
1.86652
2.01949
2.02098
2.0175
2.01155
2.00288
1.99316
1.98752
1.98414
1.9824
1.98365
1.98561
1.98412
1.97942
1.97403
1.96775
1.96317
1.96
1.95803
1.95818
1.95765
1.95348
1.94821
1.94143
1.9344
1.92958
1.92606
1.92502
1.92454
1.92124
1.91687
1.91288
1.90905
1.90553
1.90244
1.9005
1.89914
1.89635
1.89256
1.88906
1.8857
1.88238
1.87946
1.87709
1.87519
1.87282
1.86954
1.86557
1.86095
1.85593
1.85096
1.84644
1.84246
1.83909
1.83697
1.83605
1.83533
1.83404
1.83128
1.82699
1.82239
1.81731
1.8117
1.80624
1.8015
1.7978
1.79506
1.79332
1.79317
1.79333
1.7938
1.79412
1.79342
1.79139
1.78928
1.78664
1.78252
1.77662
1.77055
1.76604
1.76271
1.76033
1.75852
1.75755
1.75757
1.75734
1.75601
1.75334
1.75001
1.74552
1.74006
1.7353
1.73206
1.72963
1.72801
1.72729
1.72683
1.72548
1.7229
1.71969
1.71599