/*--------------------------------*- C++ -*----------------------------------*\
  =========                 |
  \\      /  F ield         | OpenFOAM: The Open Source CFD Toolbox
   \\    /   O peration     | Website:  https://openfoam.org
    \\  /    A nd           | Version:  7
     \\/     M anipulation  |
\*---------------------------------------------------------------------------*/
FoamFile
{
    version     2.0;
    format      ascii;
    class       volScalarField;
    location    "0.6";
    object      rho;
}
// * * * * * * * * * * * * * * * * * * * * * * * * * * * * * * * * * * * * * //

dimensions      [1 -3 0 0 0 0 0];

internalField   nonuniform List<scalar> 
16192
(
2.25167
2.1835
2.06248
1.99651
1.98319
1.9804
1.98027
1.99158
2.03522
2.12376
2.19653
2.20661
2.19804
2.17596
2.11927
2.01388
1.95448
1.94305
1.94133
1.94401
1.96874
2.02624
2.06302
2.06297
2.05169
2.02485
1.95998
1.88637
1.86359
1.85997
1.8627
1.88529
1.94074
1.98462
1.98821
1.97718
1.94663
1.90936
1.89645
1.89397
1.89236
1.89004
1.88758
1.88472
1.88111
1.87493
1.85746
1.8151
1.77387
1.76463
1.76475
1.77402
1.81355
1.8725
1.89111
1.88837
1.87618
1.84168
1.77836
1.75156
1.74816
1.74656
1.74775
1.75293
1.7523
1.74955
1.74333
1.72745
1.71682
1.71614
1.71577
1.71958
1.74225
1.78272
1.79609
1.79296
1.78544
1.76509
1.69215
1.57801
1.53693
1.53262
1.53204
1.53181
1.53449
1.54223
1.55947
1.60251
1.69711
1.81137
1.8509
1.85064
1.84312
1.82323
1.75466
1.60818
1.52309
1.51178
1.51107
1.51281
1.52562
1.56696
1.64933
1.71171
1.71952
1.71637
1.7013
1.64536
1.52147
1.44884
1.43976
1.43961
1.44183
1.45371
1.48833
1.56901
1.68841
1.74995
1.75406
1.74995
1.73829
1.70075
1.59266
1.47509
1.44624
1.44361
1.44488
1.45541
1.49148
1.5633
1.62673
1.6414
1.64091
1.63834
1.63257
1.616
1.55801
1.46046
1.41902
1.41539
1.41521
1.41675
1.42745
1.46252
1.53771
1.60164
1.61122
1.60946
1.60222
1.57546
1.49441
1.40985
1.39206
1.39187
1.39457
1.4089
1.45557
1.54
1.58823
1.59165
1.58936
1.57564
1.52114
1.42254
1.38196
1.37922
1.38062
1.39251
1.43436
1.52052
1.58846
1.59806
1.59687
1.59157
1.57266
1.51873
1.45751
1.44316
1.44325
1.44885
1.46906
1.48722
1.4887
1.48572
1.47035
1.42316
1.37747
1.36903
1.37005
1.3758
1.39569
1.44805
1.53417
1.58226
1.58637
1.58585
1.5822
1.56632
1.52127
1.4539
1.42733
1.42504
1.42517
1.4246
1.41795
1.39471
1.37019
1.3649
1.36675
1.37616
1.40514
1.45945
1.49727
1.50139
1.4991
1.49186
1.48605
1.48474
1.48418
1.48557
1.49547
1.50777
1.51055
1.51098
1.50897
1.48723
1.4385
1.41698
1.41698
1.42012
1.43196
1.4626
1.4957
1.50218
1.50106
1.49609
1.47636
1.42225
1.35755
1.34092
1.34122
1.34421
1.35088
1.36589
1.39971
1.46873
1.55194
1.5796
1.57982
1.57698
1.56584
1.52974
1.44556
2.19256
2.07034
2.01454
2.00316
2.00079
2.00131
2.01594
2.0671
2.16073
2.22517
2.23079
2.22087
2.19731
2.13588
2.02808
1.973
1.96257
1.96097
1.96443
1.99173
2.05135
2.08697
2.0862
2.07335
2.04397
1.97661
1.90396
1.88166
1.87824
1.88139
1.90598
1.96534
2.01111
2.01445
2.00372
1.9726
1.92508
1.9053
1.90167
1.90021
1.90178
1.90174
1.89913
1.8964
1.89221
1.87997
1.84616
1.80112
1.78552
1.78508
1.79086
1.8234
1.88238
1.90765
1.90604
1.89582
1.86556
1.79888
1.75966
1.75469
1.75297
1.75294
1.7621
1.77164
1.771
1.76774
1.75812
1.74324
1.74045
1.73969
1.7401
1.75188
1.78539
1.80467
1.80301
1.79613
1.77936
1.71815
1.60453
1.55278
1.54678
1.54627
1.54611
1.5489
1.55697
1.57462
1.61815
1.71403
1.82896
1.86747
1.86699
1.85942
1.83946
1.77038
1.62268
1.53665
1.52513
1.52438
1.52564
1.53682
1.5746
1.65477
1.72503
1.7365
1.73379
1.72071
1.67253
1.55239
1.46571
1.45245
1.45227
1.45459
1.46614
1.50036
1.58123
1.70143
1.76288
1.76685
1.76288
1.75157
1.71344
1.60378
1.48762
1.45977
1.45729
1.45909
1.47141
1.51073
1.5831
1.63906
1.64964
1.64861
1.64575
1.64082
1.62843
1.58374
1.49039
1.4344
1.42728
1.42713
1.42807
1.43623
1.46459
1.53235
1.60623
1.62355
1.62229
1.61634
1.59532
1.52489
1.4303
1.40307
1.40179
1.40331
1.41376
1.45105
1.53145
1.59557
1.60424
1.60261
1.59227
1.55035
1.45304
1.39357
1.38735
1.38845
1.39766
1.43244
1.51268
1.59337
1.61069
1.60983
1.60567
1.59078
1.54383
1.47577
1.45336
1.45241
1.45615
1.47346
1.49501
1.49842
1.49599
1.48387
1.44421
1.39238
1.37749
1.37765
1.38161
1.39739
1.4416
1.52586
1.59046
1.60015
1.59995
1.59769
1.58565
1.54886
1.47934
1.43849
1.43242
1.43206
1.43119
1.42581
1.40655
1.38046
1.37256
1.37367
1.38149
1.40809
1.46215
1.50514
1.51129
1.50986
1.50422
1.49502
1.49121
1.4902
1.48991
1.49536
1.51003
1.5164
1.51655
1.51594
1.50481
1.46428
1.42864
1.42458
1.42675
1.43626
1.46284
1.5017
1.51673
1.51643
1.51304
1.49916
1.45673
1.38241
1.3454
1.3428
1.34474
1.35018
1.36151
1.38561
1.4369
1.52254
1.58261
1.59035
1.5896
1.5847
1.56365
1.49782
1.40536
2.08035
2.03411
2.02419
2.02226
2.0239
2.04319
2.1032
2.19946
2.25244
2.25371
2.24252
2.21714
2.15032
2.04151
1.99134
1.98187
1.98039
1.98501
2.0158
2.07829
2.11221
2.11052
2.09634
2.06456
1.99368
1.92152
1.90011
1.89691
1.90034
1.9266
1.98895
2.03556
2.03863
2.02827
1.99785
1.94288
1.91451
1.90988
1.90782
1.9079
1.91524
1.91739
1.91483
1.91139
1.9024
1.87436
1.82756
1.80547
1.80398
1.80732
1.83325
1.89079
1.92357
1.92341
1.91489
1.88872
1.82297
1.77031
1.7619
1.76013
1.75968
1.7682
1.78951
1.79758
1.79613
1.78999
1.77325
1.7626
1.76111
1.76025
1.76438
1.78832
1.81248
1.81313
1.80748
1.7936
1.74363
1.63468
1.57054
1.56151
1.56101
1.56085
1.56365
1.57178
1.58943
1.63279
1.72889
1.84487
1.8835
1.88298
1.87555
1.85584
1.78693
1.63811
1.55054
1.53877
1.53794
1.53881
1.54853
1.58261
1.65981
1.73726
1.75361
1.75142
1.74005
1.69867
1.58411
1.48452
1.46611
1.46567
1.46793
1.47879
1.51189
1.59183
1.7123
1.77448
1.77851
1.77474
1.76394
1.72532
1.6144
1.50053
1.47402
1.47174
1.47425
1.48908
1.53289
1.60528
1.65149
1.65753
1.65578
1.65247
1.64785
1.63811
1.60419
1.52067
1.45211
1.43956
1.43932
1.43993
1.44622
1.4691
1.52832
1.60808
1.6355
1.63507
1.63007
1.61314
1.55329
1.45332
1.41452
1.41157
1.41246
1.41998
1.44959
1.52268
1.60022
1.61749
1.61647
1.60874
1.57692
1.48744
1.40878
1.39592
1.39668
1.40378
1.43199
1.50375
1.59358
1.62202
1.6219
1.61869
1.60701
1.56759
1.49651
1.46439
1.46204
1.46452
1.47875
1.50295
1.5098
1.508
1.498
1.46491
1.4098
1.38661
1.38545
1.38784
1.39999
1.43682
1.51568
1.59425
1.61297
1.61327
1.61236
1.60401
1.57454
1.50787
1.455
1.4442
1.44315
1.44152
1.43552
1.41761
1.39001
1.3794
1.37954
1.38518
1.40736
1.45844
1.50897
1.51986
1.51929
1.51585
1.50707
1.49976
1.49812
1.49735
1.49895
1.51208
1.52457
1.52527
1.52408
1.51674
1.48715
1.44359
1.43104
1.43226
1.43902
1.46081
1.50197
1.52923
1.53159
1.53011
1.52184
1.49146
1.42028
1.35773
1.34622
1.34678
1.34998
1.35828
1.37562
1.41216
1.4841
1.56876
1.59782
1.59889
1.59768
1.58761
1.54596
1.45126
1.38841
2.05475
2.04624
2.04464
2.04795
2.07337
2.14373
2.2392
2.27852
2.27648
2.26317
2.23546
2.16236
2.05375
2.00911
2.00075
1.99944
2.00554
2.04036
2.10575
2.13764
2.13513
2.1201
2.08628
2.01153
1.94008
1.91966
1.91669
1.92014
1.94745
2.01183
2.0582
2.06086
2.05074
2.02124
1.96134
1.92424
1.91836
1.91622
1.9155
1.9231
1.93597
1.93679
1.93392
1.92593
1.90045
1.85275
1.82481
1.82155
1.82312
1.84331
1.89772
1.93838
1.94052
1.93342
1.91045
1.84787
1.78423
1.77081
1.76883
1.76818
1.77568
1.8028
1.82551
1.82727
1.82395
1.80637
1.78364
1.77905
1.7776
1.7781
1.79282
1.81901
1.82355
1.81912
1.80785
1.76846
1.6675
1.59026
1.57693
1.57626
1.57602
1.57848
1.58642
1.60372
1.64615
1.74146
1.859
1.899
1.89861
1.89147
1.8723
1.80419
1.65463
1.56477
1.55251
1.55167
1.55228
1.56063
1.59127
1.66445
1.74845
1.77075
1.76906
1.75906
1.72323
1.61608
1.50542
1.48081
1.47982
1.48179
1.49177
1.52327
1.60112
1.72101
1.78488
1.7893
1.78569
1.77524
1.73614
1.62432
1.51344
1.48883
1.48691
1.49025
1.50804
1.55682
1.62767
1.6635
1.66606
1.66351
1.65938
1.65447
1.64603
1.61991
1.54892
1.47222
1.45244
1.45176
1.45221
1.4572
1.47567
1.52621
1.60769
1.64676
1.6478
1.6438
1.62974
1.57954
1.47851
1.42657
1.42131
1.42173
1.42701
1.45052
1.51498
1.60161
1.63082
1.63073
1.62501
1.60092
1.52355
1.42914
1.40553
1.4055
1.41083
1.43315
1.49507
1.58904
1.63132
1.63296
1.63065
1.62157
1.58942
1.51893
1.47656
1.4719
1.47353
1.48485
1.51025
1.52195
1.52115
1.51348
1.48645
1.43102
1.39752
1.39381
1.3954
1.40431
1.4341
1.50484
1.59318
1.62402
1.62537
1.62527
1.62029
1.59801
1.53848
1.47517
1.45782
1.45707
1.45596
1.44997
1.43145
1.40044
1.38526
1.38438
1.38801
1.40484
1.44982
1.50756
1.52717
1.52752
1.52591
1.5191
1.51023
1.50748
1.50672
1.50674
1.51528
1.53298
1.53718
1.5359
1.5294
1.50639
1.46134
1.43841
1.43765
1.44142
1.45721
1.49567
1.53586
1.54512
1.54501
1.54185
1.5234
1.46634
1.38402
1.35368
1.35205
1.35256
1.35647
1.3679
1.39345
1.44786
1.53703
1.59763
1.60641
1.60656
1.6036
1.582
1.50756
1.41454
1.38981
2.06875
2.0676
2.07366
2.107
2.18784
2.27743
2.30336
2.29848
2.28354
2.25278
2.17236
2.06528
2.02669
2.01935
2.01832
2.02632
2.06568
2.13374
2.16351
2.16014
2.14382
2.10753
2.02892
1.95948
1.94043
1.93774
1.94121
1.96926
2.03466
2.07967
2.08168
2.07148
2.04238
1.97906
1.93483
1.92729
1.9251
1.92423
1.93168
1.95214
1.96054
1.95875
1.9509
1.92581
1.87696
1.84354
1.83786
1.83857
1.85397
1.90414
1.95204
1.95742
1.95148
1.93125
1.87232
1.80056
1.78161
1.7791
1.77839
1.78527
1.81494
1.85029
1.85732
1.85452
1.83714
1.8059
1.79379
1.79181
1.79087
1.79878
1.82415
1.8344
1.83132
1.82204
1.79185
1.70251
1.61334
1.59317
1.59214
1.59177
1.59356
1.60073
1.61729
1.65817
1.75162
1.87119
1.91384
1.91373
1.90705
1.88872
1.8221
1.67211
1.57938
1.56648
1.56558
1.56595
1.57309
1.60028
1.66904
1.75815
1.78783
1.78686
1.77809
1.74678
1.64725
1.52789
1.49652
1.49451
1.49608
1.5051
1.5348
1.61006
1.72877
1.79464
1.79978
1.79624
1.78578
1.7458
1.63303
1.52621
1.50394
1.5023
1.5068
1.52796
1.58147
1.64881
1.67539
1.67595
1.67254
1.6671
1.66132
1.65318
1.63217
1.57359
1.49473
1.46654
1.46446
1.46485
1.46882
1.48389
1.52644
1.60556
1.65675
1.66074
1.65751
1.64574
1.60394
1.50546
1.43974
1.43113
1.43115
1.43466
1.45321
1.50886
1.5997
1.64346
1.64512
1.64115
1.62269
1.55885
1.4555
1.41693
1.41524
1.41885
1.43605
1.4878
1.58058
1.63774
1.64306
1.64153
1.63478
1.60934
1.54247
1.48972
1.48176
1.48266
1.49137
1.51657
1.53421
1.5347
1.5296
1.50846
1.45653
1.41203
1.40363
1.40451
1.4108
1.43432
1.49537
1.58722
1.63212
1.63586
1.63596
1.63331
1.61753
1.56802
1.4992
1.47329
1.47192
1.47165
1.46768
1.44999
1.41536
1.39194
1.38877
1.39081
1.4027
1.43924
1.49976
1.53217
1.53484
1.53439
1.52983
1.52081
1.51714
1.51664
1.5166
1.52238
1.54098
1.55124
1.5508
1.54568
1.52598
1.48174
1.44742
1.44278
1.4448
1.45479
1.48528
1.5335
1.55564
1.55701
1.55676
1.54906
1.51224
1.42751
1.36699
1.35873
1.35853
1.35889
1.36379
1.3797
1.41774
1.49479
1.58072
1.60802
1.60978
1.60976
1.60289
1.55948
1.46022
1.40287
1.39729
2.09132
2.10099
2.14396
2.23431
2.31293
2.32715
2.3199
2.30336
2.26854
2.18083
2.07758
2.04444
2.03779
2.03711
2.04722
2.09155
2.16214
2.18951
2.18519
2.16736
2.1279
2.04547
1.9791
1.96161
1.95925
1.96309
1.99237
2.05849
2.1011
2.10199
2.09116
2.06188
1.99564
1.94586
1.937
1.93477
1.93394
1.94199
1.96808
1.98529
1.98468
1.97692
1.95144
1.90019
1.86177
1.85395
1.85405
1.8655
1.91115
1.96482
1.97456
1.96947
1.95134
1.89636
1.81825
1.79346
1.79037
1.78973
1.79626
1.82721
1.87225
1.88566
1.88325
1.86683
1.83077
1.8069
1.80371
1.80222
1.80573
1.82794
1.84529
1.84402
1.83656
1.81372
1.73813
1.63984
1.61057
1.60867
1.60812
1.60912
1.61502
1.63029
1.66903
1.75949
1.88116
1.92796
1.92827
1.9222
1.90487
1.8403
1.69048
1.59441
1.58067
1.57975
1.57995
1.58592
1.60997
1.67357
1.7664
1.80449
1.80453
1.79697
1.76943
1.6777
1.55138
1.51255
1.50949
1.51082
1.51881
1.54677
1.61953
1.73692
1.8046
1.81052
1.80699
1.79605
1.75455
1.64076
1.53889
1.51876
1.51743
1.52335
1.54823
1.60626
1.66928
1.68834
1.68766
1.68299
1.67592
1.66873
1.6601
1.64214
1.59463
1.51883
1.48176
1.47756
1.47796
1.48101
1.49332
1.52886
1.60276
1.66472
1.67348
1.67099
1.6612
1.62686
1.53376
1.45456
1.4411
1.44069
1.44276
1.45718
1.50454
1.59508
1.65439
1.6596
1.65686
1.64277
1.59183
1.48712
1.43088
1.42589
1.42826
1.44085
1.48306
1.57038
1.64085
1.65205
1.65125
1.6467
1.62728
1.56645
1.50402
1.49141
1.49155
1.49792
1.52164
1.54565
1.54838
1.54527
1.52941
1.4846
1.43146
1.41597
1.41596
1.41967
1.43716
1.48849
1.57849
1.63626
1.64412
1.64442
1.64306
1.63251
1.59376
1.52541
1.49115
1.48787
1.48809
1.48576
1.47092
1.43509
1.40215
1.39511
1.39527
1.40145
1.42904
1.48727
1.53313
1.54055
1.54045
1.53813
1.53065
1.52587
1.52554
1.52605
1.53172
1.55002
1.56675
1.56794
1.56468
1.54809
1.50578
1.46005
1.44875
1.44919
1.45441
1.47555
1.52203
1.56108
1.56745
1.56777
1.56655
1.54802
1.48159
1.39331
1.36685
1.36558
1.36503
1.36559
1.37261
1.39622
1.4534
1.54618
1.60319
1.61088
1.61154
1.61096
1.59344
1.5181
1.4273
1.40606
1.40515
2.13055
2.18423
2.28065
2.34449
2.35007
2.34086
2.32275
2.28295
2.18762
2.08996
2.06222
2.05643
2.05622
2.06892
2.11813
2.18992
2.21423
2.2091
2.19056
2.14756
2.06108
1.99843
1.98278
1.98066
1.98498
2.01595
2.08307
2.12339
2.1234
2.11122
2.08044
2.01119
1.95746
1.94749
1.94527
1.94465
1.95388
1.98481
2.01035
2.01121
2.00323
1.97723
1.92381
1.88008
1.87006
1.86977
1.8786
1.9195
1.97741
1.99209
1.98778
1.97117
1.92019
1.83763
1.80617
1.80221
1.80168
1.80804
1.83966
1.89238
1.91252
1.91072
1.89563
1.85764
1.82112
1.81403
1.81238
1.81338
1.83103
1.85539
1.85727
1.85172
1.83424
1.77292
1.67039
1.62944
1.62553
1.62502
1.62526
1.6296
1.6431
1.67925
1.76593
1.88899
1.94125
1.94235
1.93679
1.92047
1.85843
1.70929
1.60976
1.59512
1.59412
1.59419
1.59925
1.62033
1.67881
1.77342
1.82084
1.82223
1.81572
1.79118
1.70682
1.57609
1.52916
1.52473
1.52571
1.53289
1.55955
1.63028
1.74676
1.8156
1.82192
1.81829
1.80657
1.76323
1.64838
1.55099
1.53288
1.53201
1.53937
1.56848
1.63107
1.68975
1.70333
1.70165
1.69531
1.68605
1.67668
1.66668
1.65029
1.61235
1.54408
1.49911
1.49144
1.49173
1.49394
1.50376
1.53322
1.60005
1.67031
1.68579
1.68418
1.67621
1.64836
1.5633
1.47165
1.45137
1.4504
1.45139
1.46225
1.50192
1.58851
1.66258
1.67387
1.67188
1.66128
1.62177
1.52224
1.44811
1.4377
1.43906
1.44784
1.48148
1.56077
1.64096
1.66003
1.66
1.65733
1.64307
1.59039
1.52005
1.50099
1.50014
1.50429
1.52533
1.55518
1.56201
1.56017
1.54891
1.513
1.4552
1.43048
1.42949
1.4317
1.44395
1.48504
1.5682
1.63587
1.64952
1.64997
1.64895
1.64266
1.61447
1.55168
1.51001
1.50396
1.5047
1.50367
1.49276
1.45908
1.41622
1.40312
1.40257
1.40451
1.42123
1.46984
1.5265
1.54345
1.54381
1.54291
1.53873
1.53344
1.53287
1.53379
1.54012
1.55913
1.5823
1.58707
1.5853
1.57309
1.53472
1.47869
1.45703
1.45576
1.45722
1.46904
1.50551
1.55695
1.57658
1.57768
1.57782
1.57027
1.52878
1.43614
1.37983
1.37326
1.37252
1.37196
1.37334
1.38494
1.42226
1.50273
1.58635
1.60986
1.61172
1.61252
1.60895
1.5684
1.47042
1.41764
1.41337
1.41289
2.22737
2.32504
2.37211
2.3718
2.36091
2.34137
2.29585
2.19395
2.10385
2.08048
2.07534
2.07562
2.09124
2.14612
2.21789
2.23805
2.23186
2.2126
2.16586
2.07575
2.01765
2.00404
2.00217
2.0071
2.04022
2.1086
2.14614
2.14516
2.13195
2.09934
2.02629
1.96954
1.95883
1.95664
1.95626
1.96709
2.00255
2.03483
2.03748
2.02916
2.00271
1.94688
1.89874
1.88689
1.88601
1.89284
1.92993
1.99009
2.00995
2.00651
1.99104
1.9437
1.85808
1.81977
1.81454
1.81401
1.82028
1.8526
1.91104
1.93811
1.93714
1.92314
1.88493
1.83681
1.82362
1.82184
1.82158
1.83422
1.86353
1.87149
1.86755
1.85392
1.80574
1.70443
1.64957
1.64255
1.64217
1.64188
1.64467
1.65617
1.68938
1.77201
1.89586
1.95409
1.95628
1.95099
1.9355
1.87596
1.72819
1.62515
1.60957
1.60851
1.60846
1.61274
1.63144
1.6848
1.77972
1.83664
1.84024
1.83444
1.81245
1.73504
1.60108
1.54575
1.53999
1.54071
1.54715
1.5726
1.64185
1.75795
1.82785
1.83426
1.83031
1.81773
1.77279
1.6569
1.5629
1.54653
1.54601
1.55454
1.58762
1.65473
1.70991
1.71969
1.71732
1.70966
1.69769
1.68489
1.67237
1.65678
1.62709
1.56968
1.51927
1.50643
1.50639
1.50781
1.51537
1.53937
1.59808
1.67334
1.69727
1.69658
1.69035
1.66814
1.59329
1.49182
1.46211
1.46012
1.46055
1.46846
1.50109
1.58098
1.6674
1.68755
1.68631
1.67849
1.64834
1.55883
1.46913
1.45073
1.45118
1.45714
1.48345
1.55381
1.63964
1.66727
1.66822
1.66681
1.65658
1.61312
1.53798
1.51013
1.50821
1.51052
1.52801
1.56192
1.57516
1.57429
1.56668
1.53959
1.4831
1.4476
1.44388
1.44534
1.45408
1.48692
1.56182
1.63353
1.65121
1.65217
1.65176
1.64849
1.62894
1.57524
1.52884
1.51969
1.52063
1.5205
1.51349
1.4852
1.43553
1.41148
1.40966
1.41073
1.42143
1.45819
1.51316
1.54036
1.54441
1.54459
1.54371
1.54004
1.53881
1.53958
1.54592
1.56606
1.59597
1.60683
1.60613
1.59842
1.56737
1.50585
1.46823
1.46381
1.46389
1.46876
1.49208
1.54193
1.58025
1.58636
1.58686
1.58477
1.56145
1.48391
1.40177
1.38226
1.38106
1.38022
1.37981
1.38344
1.40415
1.46304
1.55626
1.606
1.61177
1.61276
1.61322
1.59852
1.52444
1.43817
1.42056
1.42022
1.4212
2.36499
2.39606
2.3925
2.38023
2.35907
2.3067
2.19927
2.11909
2.09968
2.09534
2.09625
2.11488
2.17455
2.24527
2.26205
2.25481
2.23375
2.1822
2.08947
2.0367
2.02499
2.02342
2.02925
2.06487
2.13453
2.1693
2.16738
2.15323
2.11876
2.04159
1.98234
1.97107
1.96896
1.96893
1.98173
2.02191
2.05916
2.063
2.05418
2.02732
1.96946
1.91742
1.9043
1.90311
1.90836
1.94233
2.00408
2.02804
2.02529
2.01073
1.96714
1.87978
1.83395
1.82747
1.82691
1.83294
1.86584
1.92912
1.9623
1.96209
1.94924
1.91202
1.85442
1.83343
1.83091
1.83
1.83858
1.86926
1.88618
1.88396
1.87326
1.8362
1.74134
1.67141
1.65975
1.65927
1.65873
1.66016
1.66967
1.69996
1.77844
1.9028
1.96691
1.97033
1.96524
1.95039
1.89302
1.74668
1.64045
1.6239
1.62269
1.62259
1.62635
1.64305
1.69198
1.78575
1.85192
1.85837
1.85321
1.83319
1.76191
1.62655
1.56246
1.55522
1.55566
1.56147
1.58612
1.65422
1.76999
1.8409
1.84746
1.8432
1.82982
1.78371
1.66706
1.57454
1.55941
1.55923
1.56873
1.60523
1.67646
1.72899
1.73641
1.73366
1.72481
1.71014
1.69248
1.67642
1.6616
1.63939
1.59516
1.54318
1.52304
1.52223
1.52286
1.52827
1.54731
1.5975
1.6739
1.70746
1.708
1.70343
1.68605
1.62257
1.51525
1.47342
1.46989
1.47006
1.47565
1.50206
1.57352
1.66849
1.70039
1.7002
1.69446
1.67161
1.59484
1.49399
1.4651
1.46436
1.46832
1.48889
1.55035
1.63864
1.67465
1.6767
1.67581
1.66811
1.6336
1.55791
1.51882
1.51538
1.51664
1.53028
1.56549
1.58724
1.58764
1.58275
1.563
1.51269
1.46742
1.45899
1.46007
1.46596
1.49121
1.55746
1.63324
1.65476
1.65521
1.65464
1.65204
1.63776
1.59317
1.54649
1.53457
1.53528
1.53559
1.5315
1.50959
1.4593
1.42259
1.41709
1.41739
1.42372
1.45282
1.50505
1.53566
1.54147
1.54393
1.5449
1.54449
1.54351
1.54409
1.54962
1.56935
1.60501
1.62518
1.62608
1.6224
1.60019
1.54199
1.48485
1.47285
1.47259
1.47381
1.48636
1.52511
1.57473
1.59202
1.59351
1.59349
1.58272
1.52706
1.43212
1.39358
1.39042
1.38977
1.38911
1.38939
1.39799
1.43445
1.51774
1.59575
1.61281
1.61392
1.61483
1.61168
1.57015
1.47352
1.42898
1.42648
1.42742
1.43552
2.41772
2.41192
2.39869
2.37538
2.31529
2.20508
2.13605
2.11963
2.11634
2.1181
2.14088
2.20577
2.27274
2.28506
2.27666
2.25416
2.19702
2.10254
2.05555
2.04548
2.04418
2.05123
2.08994
2.16093
2.19297
2.19018
2.17504
2.13882
2.05799
1.99607
1.98384
1.98179
1.9824
1.99778
2.04277
2.0834
2.08752
2.07815
2.05067
1.99067
1.93612
1.92194
1.92048
1.9249
1.95672
2.01966
2.04729
2.04482
2.03069
1.98985
1.90202
1.84912
1.84072
1.84018
1.84628
1.87947
1.94672
1.98527
1.98579
1.97409
1.93829
1.87353
1.84335
1.83973
1.83862
1.84413
1.87338
1.9007
1.90105
1.89311
1.86426
1.77935
1.69518
1.67699
1.67612
1.67542
1.67598
1.68363
1.71128
1.78581
1.91025
1.98003
1.98466
1.97972
1.9653
1.90982
1.76478
1.65562
1.63812
1.63672
1.63647
1.63975
1.6551
1.70024
1.79243
1.86686
1.87687
1.87225
1.85362
1.78779
1.65186
1.57927
1.57025
1.57037
1.57564
1.59969
1.66731
1.7831
1.85448
1.86117
1.85692
1.84321
1.79662
1.67937
1.58645
1.57139
1.57157
1.58188
1.62048
1.69492
1.74657
1.75257
1.74943
1.73969
1.72228
1.69833
1.6785
1.66544
1.65005
1.61898
1.57074
1.54219
1.53918
1.53936
1.54272
1.55708
1.59863
1.6726
1.71587
1.71857
1.71512
1.70183
1.64981
1.5422
1.48581
1.47978
1.47982
1.48373
1.50473
1.5669
1.66588
1.71187
1.7135
1.70943
1.69204
1.62863
1.52219
1.48078
1.4782
1.48085
1.49701
1.55035
1.63864
1.68285
1.68606
1.68501
1.67854
1.65139
1.57934
1.52768
1.5215
1.52226
1.53257
1.56627
1.59731
1.60049
1.59734
1.58317
1.54146
1.4899
1.47483
1.47532
1.47931
1.4981
1.55436
1.63255
1.66088
1.66131
1.65978
1.65634
1.6443
1.60601
1.56041
1.54732
1.54776
1.54842
1.54626
1.53031
1.48406
1.43656
1.42609
1.426
1.42909
1.4497
1.49812
1.53498
1.54201
1.54277
1.54394
1.54548
1.54635
1.5479
1.55297
1.57043
1.60825
1.6395
1.644
1.64288
1.62992
1.58292
1.51082
1.48359
1.48212
1.48191
1.48709
1.5135
1.56357
1.59345
1.59731
1.59755
1.59347
1.55987
1.46913
1.40723
1.39933
1.39947
1.3992
1.39918
1.40225
1.42074
1.48043
1.57373
1.61516
1.61781
1.61828
1.61805
1.59865
1.51803
1.44234
1.43133
1.43222
1.43839
1.46217
2.43064
2.41654
2.39016
2.32142
2.21133
2.15436
2.14085
2.13825
2.14132
2.16874
2.23882
2.30125
2.30913
2.29906
2.27388
2.21031
2.11491
2.07375
2.06525
2.06413
2.07253
2.11473
2.18745
2.21758
2.214
2.1974
2.159
2.07491
2.01125
1.99817
1.99608
1.99709
2.0149
2.06455
2.10726
2.11127
2.10153
2.07315
2.0104
1.95429
1.93961
1.93788
1.94175
1.97216
2.03601
2.06722
2.06527
2.05154
2.01257
1.92466
1.86478
1.85448
1.85387
1.86008
1.89362
1.96375
2.00701
2.00828
1.99746
1.96327
1.89364
1.8537
1.84846
1.84729
1.85076
1.87701
1.91367
1.91916
1.91336
1.89072
1.81733
1.72188
1.69448
1.69271
1.69183
1.69181
1.69796
1.72343
1.79466
1.91884
1.99368
1.99948
1.99452
1.98019
1.92615
1.78233
1.67046
1.65218
1.65056
1.65017
1.65297
1.6673
1.70968
1.79984
1.88176
1.89561
1.89158
1.87412
1.81305
1.67725
1.59588
1.58507
1.58493
1.58969
1.61326
1.68079
1.79713
1.86881
1.87529
1.87087
1.85702
1.81056
1.69302
1.59894
1.58339
1.58358
1.59395
1.63333
1.70955
1.76168
1.76742
1.76424
1.75419
1.73404
1.7039
1.68175
1.67105
1.66071
1.64005
1.60011
1.56495
1.5573
1.55732
1.55888
1.56891
1.60182
1.67012
1.72216
1.72812
1.72549
1.71538
1.67427
1.57143
1.49981
1.48993
1.48978
1.49251
1.50903
1.56192
1.66025
1.72149
1.72644
1.72346
1.71021
1.65921
1.55321
1.49755
1.49218
1.49414
1.50691
1.553
1.63946
1.69175
1.69652
1.69518
1.68912
1.66712
1.60151
1.53781
1.52687
1.52724
1.53503
1.56506
1.6041
1.61295
1.61092
1.60076
1.56786
1.51399
1.49133
1.49077
1.49341
1.50734
1.55354
1.63117
1.66882
1.67049
1.66853
1.66384
1.6518
1.617
1.57144
1.55709
1.55704
1.55852
1.55782
1.54755
1.50887
1.45226
1.43425
1.43391
1.4368
1.45243
1.49423
1.53456
1.54433
1.5447
1.54458
1.54522
1.54711
1.5501
1.55566
1.57086
1.60698
1.6484
1.65957
1.65967
1.65389
1.62131
1.5467
1.49843
1.49249
1.49203
1.49296
1.50763
1.55132
1.59261
1.60053
1.60034
1.59829
1.57966
1.5062
1.42491
1.40751
1.40755
1.40791
1.40878
1.41118
1.42075
1.45724
1.54228
1.61429
1.62566
1.62578
1.62572
1.61496
1.55811
1.4651
1.43622
1.43595
1.44014
1.45747
1.50763
2.43399
2.4034
2.3256
2.21937
2.17397
2.16283
2.16089
2.166
2.19924
2.27377
2.32916
2.33312
2.32162
2.29373
2.22313
2.12741
2.09169
2.08439
2.08353
2.09342
2.13937
2.21389
2.24205
2.23768
2.22006
2.17946
2.09234
2.02762
2.01382
2.01177
2.01342
2.03388
2.08741
2.13059
2.13409
2.12389
2.09465
2.02894
1.97157
1.95703
1.95515
1.95878
1.98835
2.05283
2.08724
2.0858
2.07245
2.0355
1.94829
1.88162
1.86905
1.86832
1.87449
1.90815
1.98038
2.02761
2.02966
2.01939
1.98681
1.91414
1.86461
1.85735
1.85613
1.85822
1.88091
1.92446
1.93818
1.93433
1.9161
1.85457
1.75197
1.71266
1.70897
1.70798
1.70757
1.71258
1.73636
1.8051
1.92886
2.00794
2.01485
2.00977
1.99526
1.9423
1.79935
1.68479
1.66576
1.66393
1.66344
1.66591
1.67957
1.7201
1.80865
1.89671
1.91467
1.91111
1.89453
1.83739
1.70252
1.6127
1.59967
1.59925
1.6036
1.62692
1.69483
1.81183
1.88338
1.88962
1.88514
1.87141
1.82538
1.70782
1.61213
1.59606
1.59595
1.60547
1.64415
1.72102
1.77442
1.78072
1.77771
1.76782
1.74528
1.7101
1.68812
1.67988
1.67236
1.65838
1.62837
1.59104
1.57673
1.57653
1.57696
1.58296
1.60754
1.66742
1.72604
1.73672
1.73472
1.727
1.69544
1.60177
1.51604
1.5004
1.49996
1.50188
1.51482
1.55911
1.65288
1.72883
1.73934
1.73712
1.72678
1.68647
1.58562
1.51571
1.50624
1.50762
1.51785
1.5575
1.64053
1.70077
1.70792
1.70632
1.70037
1.68175
1.62378
1.55051
1.53215
1.53184
1.53776
1.56318
1.60687
1.62445
1.62375
1.61682
1.59171
1.53922
1.50845
1.50563
1.50737
1.51812
1.556
1.62992
1.67717
1.68149
1.67996
1.67511
1.66256
1.62952
1.58182
1.56412
1.56345
1.56561
1.56604
1.56065
1.53179
1.47156
1.44225
1.44023
1.44239
1.45492
1.49281
1.53797
1.54936
1.54883
1.54847
1.54846
1.54901
1.55161
1.55728
1.57044
1.60237
1.65031
1.67257
1.67387
1.67202
1.65176
1.58661
1.51883
1.50396
1.50338
1.503
1.50882
1.54053
1.58948
1.60592
1.60576
1.6034
1.59102
1.53565
1.44639
1.41528
1.41395
1.41421
1.41521
1.41836
1.42634
1.45019
1.51505
1.60469
1.63651
1.63755
1.63708
1.62895
1.58879
1.49517
1.44187
1.4384
1.44101
1.45299
1.49001
1.57293
2.41532
2.32889
2.22998
2.19462
2.18549
2.18415
2.19187
2.23154
2.3098
2.35731
2.35781
2.34412
2.31271
2.23524
2.14098
2.10985
2.10331
2.10267
2.11406
2.16372
2.23983
2.26596
2.26094
2.24296
2.20028
2.11015
2.04501
2.03078
2.02872
2.03119
2.05497
2.11214
2.1533
2.15537
2.14479
2.11493
2.04651
1.98814
1.97398
1.97205
1.97566
2.00509
2.07048
2.10754
2.10657
2.09346
2.05802
1.97233
1.89997
1.88464
1.88368
1.88974
1.92339
1.99695
2.04676
2.04943
2.03955
2.00868
1.93457
1.87621
1.86658
1.86522
1.86647
1.88568
1.9331
1.95752
1.95566
1.94104
1.89021
1.78529
1.73133
1.72478
1.72388
1.7232
1.72743
1.75
1.81711
1.94072
2.02284
2.03063
2.02538
2.01052
1.95832
1.81618
1.6986
1.67897
1.67685
1.6763
1.67852
1.69178
1.73118
1.81887
1.9119
1.93398
1.93095
1.91511
1.86169
1.72816
1.62934
1.61389
1.61323
1.61735
1.6406
1.70936
1.82728
1.89799
1.90377
1.89921
1.88597
1.84148
1.72457
1.62598
1.60898
1.60891
1.61809
1.65559
1.73163
1.7857
1.79289
1.79037
1.78048
1.75568
1.71699
1.69554
1.68839
1.6827
1.67368
1.65331
1.61952
1.59795
1.59657
1.59646
1.59944
1.61635
1.66573
1.72768
1.74446
1.74309
1.73696
1.71322
1.63153
1.53519
1.51158
1.51033
1.51162
1.52183
1.55867
1.6453
1.73357
1.75226
1.75085
1.74265
1.71079
1.61859
1.53541
1.52029
1.52101
1.52909
1.56308
1.64164
1.70926
1.71989
1.71825
1.71258
1.69638
1.64577
1.56644
1.53823
1.53688
1.54106
1.56188
1.60622
1.63424
1.63573
1.63173
1.61313
1.56499
1.52589
1.51958
1.52063
1.5287
1.56049
1.63001
1.68564
1.69351
1.69232
1.68815
1.67611
1.64491
1.59458
1.57132
1.56912
1.57075
1.57215
1.56999
1.5508
1.49379
1.45132
1.44603
1.44724
1.45631
1.48851
1.54046
1.56046
1.5597
1.55699
1.55617
1.55605
1.55658
1.55999
1.57014
1.59622
1.64479
1.6807
1.68585
1.68572
1.67429
1.62348
1.54435
1.51658
1.51522
1.51474
1.5166
1.53585
1.58353
1.61306
1.61462
1.61249
1.60198
1.55868
1.46907
1.42242
1.41854
1.41872
1.41913
1.42188
1.42992
1.44963
1.49958
1.5893
1.64657
1.65251
1.6523
1.64675
1.61602
1.53043
1.45162
1.4398
1.44098
1.44849
1.47468
1.54104
1.64168
2.33215
2.2433
2.21592
2.2085
2.20789
2.2189
2.26595
2.34605
2.38436
2.38212
2.36644
2.33133
2.24616
2.15461
2.12788
2.12219
2.12178
2.1349
2.18815
2.26508
2.28912
2.28364
2.26551
2.221
2.12816
2.06353
2.04929
2.04727
2.05052
2.0775
2.13791
2.17648
2.17714
2.16534
2.13399
2.06288
2.00406
1.99028
1.98839
1.99211
2.0219
2.08886
2.12843
2.12782
2.11489
2.08068
1.99628
1.91891
1.90108
1.89983
1.90583
1.93945
2.01384
2.06491
2.06783
2.05833
2.02888
1.95393
1.88827
1.87632
1.87473
1.87543
1.89162
1.94027
1.97679
1.97757
1.96649
1.92426
1.82151
1.75106
1.74044
1.73944
1.73866
1.74241
1.7643
1.83056
1.95447
2.03855
2.04676
2.04128
2.02608
1.97434
1.83262
1.71182
1.69133
1.68916
1.68866
1.69091
1.70413
1.743
1.8305
1.92778
1.95314
1.95053
1.93554
1.88566
1.75396
1.64665
1.62836
1.62744
1.63135
1.65457
1.72436
1.84307
1.91218
1.91737
1.91277
1.90025
1.85782
1.7428
1.64113
1.62211
1.62182
1.63063
1.66755
1.74445
1.79886
1.8053
1.80254
1.79201
1.7647
1.72387
1.70355
1.69699
1.69253
1.68654
1.67377
1.64766
1.62164
1.61715
1.61697
1.61797
1.62852
1.66655
1.72755
1.75167
1.75114
1.74601
1.72798
1.65953
1.55699
1.52302
1.52065
1.5216
1.52973
1.56039
1.63864
1.73586
1.76524
1.76475
1.75822
1.73284
1.65106
1.55676
1.53445
1.53424
1.54044
1.56918
1.64229
1.71677
1.73212
1.73078
1.72556
1.71123
1.66736
1.58575
1.54616
1.54288
1.54577
1.56212
1.604
1.64153
1.64712
1.64526
1.63222
1.59049
1.54419
1.53309
1.53329
1.53877
1.56501
1.62999
1.69365
1.70621
1.70527
1.70166
1.69057
1.66212
1.61065
1.58098
1.57663
1.57692
1.57763
1.57672
1.56465
1.51611
1.46237
1.45178
1.45208
1.4583
1.48457
1.53828
1.57308
1.57549
1.57279
1.56792
1.56654
1.56625
1.56681
1.57221
1.59138
1.63524
1.68225
1.69486
1.69536
1.69003
1.65458
1.57295
1.52944
1.5256
1.52574
1.52731
1.5394
1.57853
1.61977
1.62661
1.62508
1.61583
1.58029
1.49335
1.42928
1.42116
1.42094
1.42097
1.42291
1.43017
1.4479
1.48941
1.57285
1.65276
1.67012
1.67024
1.66727
1.64439
1.5699
1.46917
1.44083
1.4407
1.44476
1.46188
1.51087
1.60738
1.68813
2.25926
2.23775
2.23199
2.23211
2.24714
2.30176
2.38117
2.41068
2.40605
2.38834
2.34908
2.25699
2.16886
2.1456
2.14069
2.14082
2.15631
2.21338
2.29022
2.31186
2.30586
2.28742
2.24093
2.14597
2.08306
2.06925
2.06735
2.07158
2.10229
2.16462
2.19917
2.19849
2.18558
2.15264
2.07857
2.01947
2.00611
2.00424
2.00796
2.03808
2.10695
2.14941
2.14928
2.13688
2.104
2.02102
1.93905
1.91861
1.91698
1.92273
1.95632
2.03136
2.08256
2.08533
2.07594
2.04729
1.97172
1.9005
1.88625
1.88442
1.88473
1.89863
1.94679
1.99504
2.00031
1.99197
1.95697
1.85974
1.77248
1.75608
1.7548
1.75397
1.7574
1.77895
1.84489
1.96942
2.05477
2.06304
2.05735
2.04205
1.991
1.84952
1.72479
1.70304
1.7008
1.70035
1.70278
1.71631
1.75545
1.84347
1.9444
1.97235
1.97005
1.9559
1.90942
1.78009
1.66437
1.64277
1.64158
1.6455
1.66888
1.73997
1.85908
1.92566
1.9302
1.92558
1.91391
1.87395
1.76147
1.65712
1.63632
1.63564
1.64354
1.6786
1.7554
1.81344
1.82056
1.81661
1.80311
1.77123
1.72979
1.71196
1.70617
1.70254
1.69837
1.69068
1.67334
1.64776
1.63798
1.63774
1.63788
1.64364
1.67092
1.72688
1.75859
1.75938
1.75503
1.74077
1.68493
1.58126
1.53541
1.53109
1.53174
1.53818
1.5639
1.63373
1.736
1.77808
1.77892
1.77399
1.75336
1.68238
1.58053
1.54887
1.54738
1.55182
1.57575
1.64265
1.72266
1.74428
1.74337
1.73891
1.72649
1.68877
1.60791
1.55686
1.55053
1.55232