/*--------------------------------*- C++ -*----------------------------------*\
  =========                 |
  \\      /  F ield         | OpenFOAM: The Open Source CFD Toolbox
   \\    /   O peration     | Website:  https://openfoam.org
    \\  /    A nd           | Version:  7
     \\/     M anipulation  |
\*---------------------------------------------------------------------------*/
FoamFile
{
    version     2.0;
    format      ascii;
    class       volVectorField;
    location    "0.6";
    object      U;
}
// * * * * * * * * * * * * * * * * * * * * * * * * * * * * * * * * * * * * * //

dimensions      [0 1 -1 0 0 0 0];

internalField   nonuniform List<vector> 
4128
(
(3.12722 -0.0913044 0)
(3.13254 -0.0960031 0)
(3.13532 -0.110801 0)
(3.1426 -0.130856 0)
(3.15046 -0.137501 0)
(3.14606 -0.127279 0)
(3.13889 -0.10375 0)
(3.13713 -0.0801298 0)
(3.13594 -0.0697933 0)
(3.13596 -0.069566 0)
(3.1391 -0.0730511 0)
(3.14527 -0.0836402 0)
(3.15007 -0.0976283 0)
(3.15232 -0.111724 0)
(3.14907 -0.130506 0)
(3.15077 -0.142211 0)
(3.16202 -0.14065 0)
(3.16588 -0.138018 0)
(3.17211 -0.133514 0)
(3.17362 -0.126916 0)
(3.172 -0.123234 0)
(3.16915 -0.12077 0)
(3.16199 -0.11776 0)
(3.15812 -0.116669 0)
(3.1512 -0.117167 0)
(3.1457 -0.121511 0)
(3.14405 -0.127531 0)
(3.14604 -0.132789 0)
(3.15179 -0.13838 0)
(3.15929 -0.147181 0)
(3.16599 -0.15753 0)
(3.16736 -0.161058 0)
(3.1665 -0.160733 0)
(3.16433 -0.160875 0)
(3.16328 -0.161662 0)
(3.16352 -0.161499 0)
(3.16457 -0.161044 0)
(3.16745 -0.159642 0)
(3.17332 -0.156726 0)
(3.17665 -0.153828 0)
(3.17603 -0.150209 0)
(3.17089 -0.143271 0)
(3.16422 -0.134339 0)
(3.1561 -0.125392 0)
(3.1458 -0.114894 0)
(3.13637 -0.0997277 0)
(3.13192 -0.0897271 0)
(3.13092 -0.0806823 0)
(3.13586 -0.0691911 0)
(3.15188 -0.0535661 0)
(3.16554 -0.0409441 0)
(3.15894 -0.0389941 0)
(3.15294 -0.0390747 0)
(3.14815 -0.0389579 0)
(3.14396 -0.0377548 0)
(3.13827 -0.0351722 0)
(3.13645 -0.0342071 0)
(3.1329 -0.0339932 0)
(3.12981 -0.033891 0)
(3.13075 -0.0325199 0)
(3.14024 -0.0274108 0)
(3.15196 -0.0226142 0)
(3.15074 -0.0223571 0)
(3.14634 -0.0224126 0)
(3.14142 -0.0224601 0)
(3.13599 -0.0223033 0)
(3.12595 -0.0207352 0)
(3.11872 -0.0183922 0)
(3.11266 -0.0163503 0)
(3.104 -0.0144987 0)
(3.0971 -0.0136684 0)
(3.09134 -0.012118 0)
(3.08837 -0.0092713 0)
(3.09356 -0.0037015 0)
(3.11287 0.00849738 0)
(3.13062 0.0186121 0)
(3.13198 0.0199294 0)
(3.13059 0.0197299 0)
(3.1291 0.0191663 0)
(3.12621 0.0170866 0)
(3.12193 0.0131399 0)
(3.1173 0.00964525 0)
(3.11052 0.0058508 0)
(3.10431 -0.000443109 0)
(3.09769 -0.00755342 0)
(3.09083 -0.0125895 0)
(3.08344 -0.0159925 0)
(3.07659 -0.0188265 0)
(3.07434 -0.0202745 0)
(3.0726 -0.0221175 0)
(3.07122 -0.0237015 0)
(3.07057 -0.0237595 0)
(3.07056 -0.0233129 0)
(3.07183 -0.0224073 0)
(3.07689 -0.0202806 0)
(3.08939 -0.0162352 0)
(3.10103 -0.0136718 0)
(3.10305 -0.0140923 0)
(3.10264 -0.0147751 0)
(3.10189 -0.0155897 0)
(3.09867 -0.0174578 0)
(3.08912 -0.0224088 0)
(3.07173 -0.030156 0)
(3.06137 -0.0343198 0)
(3.06027 -0.0347287 0)
(3.05949 -0.0349262 0)
(3.0606 -0.0346876 0)
(3.06201 -0.0346043 0)
(3.06125 -0.0349456 0)
(3.06039 -0.0353618 0)
(3.05947 -0.0359449 0)
(3.05702 -0.0368813 0)
(3.05223 -0.038862 0)
(3.04796 -0.04031 0)
(3.04709 -0.0403793 0)
(3.04595 -0.0398991 0)
(3.04543 -0.0388786 0)
(3.04741 -0.0372811 0)
(3.0516 -0.0351409 0)
(3.05333 -0.0336482 0)
(3.05347 -0.0332924 0)
(3.05206 -0.0333257 0)
(3.05057 -0.0333529 0)
(3.04961 -0.0333337 0)
(3.04867 -0.0327199 0)
(3.04826 -0.0322044 0)
(3.04739 -0.032166 0)
(3.04643 -0.0318007 0)
(3.04478 -0.0307967 0)
(3.12665 -0.0777419 0)
(3.13623 -0.0884879 0)
(3.14096 -0.106097 0)
(3.14692 -0.117696 0)
(3.14926 -0.117638 0)
(3.14128 -0.102941 0)
(3.13569 -0.0785541 0)
(3.13472 -0.0580719 0)
(3.13411 -0.0541613 0)
(3.13514 -0.0543673 0)
(3.13997 -0.0617246 0)
(3.1451 -0.0752205 0)
(3.14909 -0.0890776 0)
(3.15066 -0.106794 0)
(3.14738 -0.127096 0)
(3.15772 -0.131258 0)
(3.16327 -0.129271 0)
(3.16744 -0.125764 0)
(3.17254 -0.120018 0)
(3.17234 -0.113026 0)
(3.16995 -0.109405 0)
(3.16563 -0.106568 0)
(3.16258 -0.104397 0)
(3.15686 -0.103852 0)
(3.14881 -0.105712 0)
(3.14378 -0.110047 0)
(3.14265 -0.115576 0)
(3.14488 -0.122506 0)
(3.15104 -0.128837 0)
(3.15979 -0.133687 0)
(3.16717 -0.141775 0)
(3.16841 -0.150596 0)
(3.16656 -0.15235 0)
(3.16461 -0.153045 0)
(3.16369 -0.157033 0)
(3.16543 -0.159976 0)
(3.16826 -0.161323 0)
(3.17341 -0.161261 0)
(3.17819 -0.160632 0)
(3.17989 -0.158345 0)
(3.17943 -0.15662 0)
(3.17727 -0.155015 0)
(3.17002 -0.150198 0)
(3.16537 -0.143966 0)
(3.15869 -0.139091 0)
(3.15056 -0.129816 0)
(3.14452 -0.116557 0)
(3.14241 -0.101451 0)
(3.14765 -0.0916835 0)
(3.16424 -0.0803452 0)
(3.17283 -0.0635701 0)
(3.16844 -0.0608872 0)
(3.16289 -0.0584371 0)
(3.1536 -0.0573869 0)
(3.14778 -0.0556742 0)
(3.14129 -0.0508348 0)
(3.13849 -0.0464451 0)
(3.13577 -0.0449574 0)
(3.13332 -0.0434427 0)
(3.13666 -0.0402095 0)
(3.14993 -0.0325196 0)
(3.15646 -0.0258313 0)
(3.1524 -0.024407 0)
(3.1484 -0.0241362 0)
(3.14366 -0.0243049 0)
(3.13638 -0.0252936 0)
(3.12786 -0.0257756 0)
(3.12278 -0.0236269 0)
(3.11466 -0.0201513 0)
(3.108 -0.0174229 0)
(3.10121 -0.0143699 0)
(3.09535 -0.0103394 0)
(3.09436 -0.00423473 0)
(3.10614 0.00435535 0)
(3.12894 0.0159864 0)
(3.13539 0.0197509 0)
(3.13296 0.0191365 0)
(3.13083 0.0187625 0)
(3.12886 0.01823 0)
(3.12636 0.0162731 0)
(3.12232 0.0121898 0)
(3.11503 0.00682856 0)
(3.10657 0.000356749 0)
(3.09932 -0.00494154 0)
(3.09383 -0.00860643 0)
(3.08915 -0.0116736 0)
(3.08318 -0.01471 0)
(3.07721 -0.0173921 0)
(3.07552 -0.0183644 0)
(3.07303 -0.0202381 0)
(3.0715 -0.0219447 0)
(3.07096 -0.0223733 0)
(3.07164 -0.0218882 0)
(3.07454 -0.0204473 0)
(3.08254 -0.0176538 0)
(3.09571 -0.0145561 0)
(3.10212 -0.0143104 0)
(3.10206 -0.0152483 0)
(3.1015 -0.0158828 0)
(3.10027 -0.0167154 0)
(3.09574 -0.0189849 0)
(3.08376 -0.0245592 0)
(3.06724 -0.0316847 0)
(3.06111 -0.0341934 0)
(3.06033 -0.0345678 0)
(3.05992 -0.0349602 0)
(3.06147 -0.0348763 0)
(3.06239 -0.0348044 0)
(3.06154 -0.0349241 0)
(3.06072 -0.0352159 0)
(3.05962 -0.0357415 0)
(3.05642 -0.0367898 0)
(3.05133 -0.0386459 0)
(3.04844 -0.0394221 0)
(3.04766 -0.0393397 0)
(3.04657 -0.0387082 0)
(3.04678 -0.0373914 0)
(3.04986 -0.0352792 0)
(3.05359 -0.0333643 0)
(3.05412 -0.0328757 0)
(3.05387 -0.0327106 0)
(3.05262 -0.0327265 0)
(3.05107 -0.0327741 0)
(3.05015 -0.0328133 0)
(3.04904 -0.0322911 0)
(3.04854 -0.0316539 0)
(3.04781 -0.0314426 0)
(3.047 -0.030931 0)
(3.04575 -0.029735 0)
(3.1269 -0.0600627 0)
(3.13732 -0.0744865 0)
(3.14277 -0.0935862 0)
(3.14949 -0.10338 0)
(3.14839 -0.0994626 0)
(3.1369 -0.0771203 0)
(3.13257 -0.0509706 0)
(3.13173 -0.0404688 0)
(3.13182 -0.0397086 0)
(3.13469 -0.0422921 0)
(3.14009 -0.0521293 0)
(3.14499 -0.0661412 0)
(3.14849 -0.0827298 0)
(3.14734 -0.104173 0)
(3.15119 -0.11535 0)
(3.15898 -0.113921 0)
(3.16149 -0.110877 0)
(3.16677 -0.107231 0)
(3.17026 -0.0994873 0)
(3.16896 -0.0915785 0)
(3.16584 -0.0872398 0)
(3.16057 -0.0831916 0)
(3.15767 -0.081294 0)
(3.15063 -0.0811744 0)
(3.14397 -0.082575 0)
(3.14026 -0.089203 0)
(3.14082 -0.0976848 0)
(3.1449 -0.105134 0)
(3.15049 -0.113999 0)
(3.15797 -0.119184 0)
(3.16614 -0.125241 0)
(3.16843 -0.135084 0)
(3.16555 -0.137892 0)
(3.16378 -0.13842 0)
(3.16242 -0.140922 0)
(3.1648 -0.142439 0)
(3.16818 -0.143643 0)
(3.17397 -0.144053 0)
(3.1762 -0.144058 0)
(3.17914 -0.145509 0)
(3.18016 -0.147586 0)
(3.17834 -0.148593 0)
(3.17171 -0.147856 0)
(3.16608 -0.146363 0)
(3.16336 -0.145198 0)
(3.15919 -0.141927 0)
(3.15683 -0.137447 0)
(3.15684 -0.128764 0)
(3.16106 -0.115881 0)
(3.17143 -0.103853 0)
(3.18013 -0.0942471 0)
(3.17364 -0.0851825 0)
(3.16724 -0.0803733 0)
(3.1606 -0.0782455 0)
(3.15278 -0.0747654 0)
(3.14464 -0.0684678 0)
(3.14025 -0.062872 0)
(3.13785 -0.0589681 0)
(3.13775 -0.0547836 0)
(3.14437 -0.0485154 0)
(3.15877 -0.0404293 0)
(3.16276 -0.0361346 0)
(3.15888 -0.0350921 0)
(3.15487 -0.0335817 0)
(3.1478 -0.0322647 0)
(3.13644 -0.0317509 0)
(3.13065 -0.0297168 0)
(3.12332 -0.0272532 0)
(3.11682 -0.0242686 0)
(3.11097 -0.0219923 0)
(3.10512 -0.0192244 0)
(3.10138 -0.0152763 0)
(3.10506 -0.00862039 0)
(3.12307 0.00475139 0)
(3.14062 0.0180428 0)
(3.13887 0.0201405 0)
(3.1354 0.0191723 0)
(3.13161 0.017644 0)
(3.12902 0.016416 0)
(3.12612 0.0157998 0)
(3.12083 0.0117188 0)
(3.11242 0.00352318 0)
(3.1024 -0.00299238 0)
(3.0949 -0.00637357 0)
(3.09099 -0.00833022 0)
(3.08776 -0.00972716 0)
(3.0831 -0.0110814 0)
(3.07802 -0.0134223 0)
(3.07564 -0.0156173 0)
(3.07337 -0.0178038 0)
(3.072 -0.019653 0)
(3.07134 -0.0206917 0)
(3.07223 -0.0204416 0)
(3.07657 -0.0187246 0)
(3.08727 -0.015727 0)
(3.09927 -0.0140638 0)
(3.10195 -0.0151208 0)
(3.10133 -0.0161227 0)
(3.1006 -0.0168802 0)
(3.09864 -0.0179496 0)
(3.09228 -0.0208027 0)
(3.07801 -0.027098 0)
(3.06426 -0.0328277 0)
(3.06134 -0.0340557 0)
(3.06059 -0.0345809 0)
(3.06053 -0.0351601 0)
(3.06236 -0.0351206 0)
(3.06272 -0.0349943 0)
(3.06185 -0.0350269 0)
(3.06103 -0.0352266 0)
(3.0596 -0.0356402 0)
(3.05574 -0.0366346 0)
(3.05094 -0.0381365 0)
(3.04931 -0.0385448 0)
(3.0484 -0.0385636 0)
(3.04745 -0.0380553 0)
(3.04843 -0.0362657 0)
(3.05238 -0.0338615 0)
(3.05498 -0.032138 0)
(3.05472 -0.0320228 0)
(3.0542 -0.0321025 0)
(3.05302 -0.0322168 0)
(3.05133 -0.0322407 0)
(3.05023 -0.0321598 0)
(3.04922 -0.0316506 0)
(3.04864 -0.0311397 0)
(3.04798 -0.0308462 0)
(3.04761 -0.0301853 0)
(3.04709 -0.0281852 0)
(3.13053 -0.0525845 0)
(3.13982 -0.0678163 0)
(3.14546 -0.0819564 0)
(3.14885 -0.0850944 0)
(3.14383 -0.0757699 0)
(3.13409 -0.0510421 0)
(3.13044 -0.0303262 0)
(3.12967 -0.0266429 0)
(3.13013 -0.0261284 0)
(3.13434 -0.0323658 0)
(3.13973 -0.0451579 0)
(3.14491 -0.0600748 0)
(3.14875 -0.0788073 0)
(3.14796 -0.0974764 0)
(3.15497 -0.100194 0)
(3.1579 -0.0984733 0)
(3.16025 -0.0963123 0)
(3.16469 -0.0950867 0)
(3.16901 -0.0900093 0)
(3.16846 -0.081611 0)
(3.16409 -0.0770722 0)
(3.15935 -0.074056 0)
(3.15356 -0.0711196 0)
(3.14765 -0.0705652 0)
(3.1425 -0.0726296 0)
(3.13971 -0.0800163 0)
(3.14216 -0.0889606 0)
(3.14588 -0.0938041 0)
(3.15112 -0.100388 0)
(3.15615 -0.105075 0)
(3.16312 -0.109566 0)
(3.16713 -0.118846 0)
(3.16398 -0.122497 0)
(3.16216 -0.123162 0)
(3.16088 -0.126207 0)
(3.16351 -0.128573 0)
(3.16834 -0.131582 0)
(3.17373 -0.135914 0)
(3.17649 -0.138073 0)
(3.18053 -0.142222 0)
(3.18211 -0.145858 0)
(3.17956 -0.149625 0)
(3.17248 -0.152178 0)
(3.16692 -0.151704 0)
(3.16559 -0.15075 0)
(3.16378 -0.148619 0)
(3.16276 -0.143391 0)
(3.16493 -0.138565 0)
(3.17134 -0.133701 0)
(3.1799 -0.127498 0)
(3.18343 -0.121606 0)
(3.18054 -0.118233 0)
(3.17406 -0.114072 0)
(3.1674 -0.109165 0)
(3.16068 -0.104312 0)
(3.15345 -0.0978814 0)
(3.14694 -0.0890649 0)
(3.14309 -0.0797126 0)
(3.14442 -0.0707807 0)
(3.15664 -0.0594397 0)
(3.16958 -0.0473147 0)
(3.16594 -0.0439391 0)
(3.16136 -0.0434412 0)
(3.15705 -0.042775 0)
(3.14845 -0.0423249 0)
(3.13995 -0.0406005 0)
(3.13331 -0.0388494 0)
(3.12591 -0.0373229 0)
(3.11987 -0.0364085 0)
(3.11423 -0.0336183 0)
(3.1101 -0.0294212 0)
(3.10888 -0.0234269 0)
(3.11671 -0.012668 0)
(3.13953 0.00485691 0)
(3.14979 0.0176173 0)
(3.14445 0.0187444 0)
(3.13921 0.0184229 0)
(3.13387 0.0177121 0)
(3.12953 0.0166502 0)
(3.12438 0.0158935 0)
(3.11789 0.013029 0)
(3.10946 0.00430163 0)
(3.09884 -0.00373606 0)
(3.09186 -0.00777119 0)
(3.0885 -0.00879218 0)
(3.08605 -0.0088618 0)
(3.08307 -0.00940708 0)
(3.07903 -0.0108716 0)
(3.07514 -0.0137133 0)
(3.0739 -0.0158278 0)
(3.07248 -0.0177789 0)
(3.07155 -0.0193607 0)
(3.07269 -0.0198479 0)
(3.0786 -0.0184013 0)
(3.09129 -0.0152396 0)
(3.10092 -0.0141227 0)
(3.10152 -0.015391 0)
(3.10067 -0.0164835 0)
(3.0997 -0.0174659 0)
(3.09666 -0.019008 0)
(3.0879 -0.0230046 0)
(3.07228 -0.0297133 0)
(3.06282 -0.0334296 0)
(3.06182 -0.0339915 0)
(3.06099 -0.0346452 0)
(3.06149 -0.0353271 0)
(3.0633 -0.0353313 0)
(3.06304 -0.0352223 0)
(3.06215 -0.0352166 0)
(3.06126 -0.0352866 0)
(3.05939 -0.0355331 0)
(3.055 -0.0364461 0)
(3.05102 -0.0375385 0)
(3.05017 -0.037747 0)
(3.04914 -0.0377466 0)
(3.0485 -0.0373621 0)
(3.0503 -0.0355888 0)
(3.05452 -0.032924 0)
(3.05613 -0.0316224 0)
(3.05581 -0.0315021 0)
(3.0552 -0.0315789 0)
(3.05391 -0.0317495 0)
(3.05209 -0.0317838 0)
(3.05079 -0.0316849 0)
(3.04979 -0.0312837 0)
(3.04903 -0.0309864 0)
(3.04841 -0.0307772 0)
(3.0486 -0.0296684 0)
(3.04875 -0.0271036 0)
(3.13333 -0.0404827 0)
(3.1412 -0.0550616 0)
(3.14656 -0.0652593 0)
(3.14765 -0.0644115 0)
(3.13782 -0.0472085 0)
(3.12954 -0.0218044 0)
(3.12705 -0.0121346 0)
(3.12689 -0.011415 0)
(3.12914 -0.0134275 0)
(3.13459 -0.0232449 0)
(3.14059 -0.0387483 0)
(3.14716 -0.0567624 0)
(3.15021 -0.0751306 0)
(3.14958 -0.0813895 0)
(3.15199 -0.0794819 0)
(3.15322 -0.0775507 0)
(3.15516 -0.0748689 0)
(3.15887 -0.0723168 0)
(3.16281 -0.0653741 0)
(3.16302 -0.0546478 0)
(3.15813 -0.050255 0)
(3.15292 -0.0497854 0)
(3.14881 -0.0500084 0)
(3.14449 -0.0513474 0)
(3.13895 -0.0556394 0)
(3.13948 -0.0669785 0)
(3.14359 -0.077883 0)
(3.14718 -0.0829344 0)
(3.15187 -0.0873237 0)
(3.1554 -0.0928622 0)
(3.16047 -0.0980249 0)
(3.16598 -0.10648 0)
(3.1629 -0.111634 0)
(3.16112 -0.112148 0)
(3.15996 -0.113751 0)
(3.1626 -0.114858 0)
(3.16737 -0.116788 0)
(3.17156 -0.119019 0)
(3.17487 -0.120667 0)
(3.17889 -0.124106 0)
(3.18019 -0.127168 0)
(3.17669 -0.130651 0)
(3.16877 -0.134605 0)
(3.16442 -0.135611 0)
(3.1641 -0.135455 0)
(3.16406 -0.134747 0)
(3.16471 -0.133877 0)
(3.16731 -0.13225 0)
(3.17455 -0.130279 0)
(3.18434 -0.129986 0)
(3.18532 -0.130078 0)
(3.18214 -0.130033 0)
(3.17873 -0.130116 0)
(3.17328 -0.12948 0)
(3.16565 -0.125945 0)
(3.16215 -0.123561 0)
(3.15642 -0.117181 0)
(3.1523 -0.106984 0)
(3.15354 -0.0947667 0)
(3.16696 -0.0814673 0)
(3.17898 -0.0706405 0)
(3.17251 -0.0679454 0)
(3.16638 -0.0671322 0)
(3.16031 -0.0654049 0)
(3.15013 -0.0618781 0)
(3.14355 -0.0587181 0)
(3.13671 -0.05669 0)
(3.12876 -0.0538136 0)
(3.12274 -0.0523441 0)
(3.11783 -0.0493124 0)
(3.11526 -0.041944 0)
(3.11713 -0.0317089 0)
(3.12967 -0.0193636 0)
(3.15325 -0.00607494 0)
(3.16106 0.00161726 0)
(3.15445 0.00255233 0)
(3.14791 0.002945 0)
(3.14119 0.00231956 0)
(3.13464 0.00015144 0)
(3.12773 -0.00102796 0)
(3.11906 -0.00106648 0)
(3.10738 -0.000377374 0)
(3.09664 -0.00572556 0)
(3.09085 -0.00973486 0)
(3.08761 -0.0106756 0)
(3.08523 -0.0102888 0)
(3.08281 -0.00964873 0)
(3.07918 -0.0103789 0)
(3.07582 -0.0127349 0)
(3.07457 -0.0148551 0)
(3.07305 -0.0172261 0)
(3.07229 -0.0195541 0)
(3.07376 -0.0209847 0)
(3.08123 -0.0194564 0)
(3.09464 -0.0155718 0)
(3.10132 -0.0143979 0)
(3.10104 -0.0153567 0)
(3.10008 -0.0163953 0)
(3.09861 -0.0176423 0)
(3.09372 -0.0201497 0)
(3.08211 -0.0258589 0)
(3.06744 -0.0322147 0)
(3.06253 -0.0339992 0)
(3.06207 -0.0341296 0)
(3.06167 -0.0345599 0)
(3.06277 -0.0351015 0)
(3.06417 -0.0352965 0)
(3.06331 -0.0352987 0)
(3.06236 -0.0352866 0)
(3.06139 -0.0352769 0)
(3.05895 -0.0354515 0)
(3.05424 -0.0364154 0)
(3.05136 -0.0371789 0)
(3.05085 -0.0372579 0)
(3.04998 -0.0372113 0)
(3.04982 -0.0365243 0)
(3.05266 -0.0345979 0)
(3.05652 -0.0324952 0)
(3.05696 -0.0315112 0)
(3.05655 -0.0310618 0)
(3.05578 -0.0309438 0)
(3.05432 -0.0311216 0)
(3.05249 -0.0311667 0)
(3.05116 -0.030947 0)
(3.05023 -0.0306729 0)
(3.04942 -0.0305477 0)
(3.04903 -0.0304096 0)
(3.04996 -0.0286905 0)
(3.05005 -0.0251425 0)
(3.13711 -0.0389131 0)
(3.14416 -0.0510927 0)
(3.1473 -0.0536276 0)
(3.14294 -0.0449417 0)
(3.13217 -0.0200508 0)
(3.12523 0.00142032 0)
(3.12321 0.00537277 0)
(3.12315 0.00536801 0)
(3.12785 -0.00162809 0)
(3.13532 -0.0155139 0)
(3.14349 -0.0322834 0)
(3.15054 -0.050452 0)
(3.15059 -0.0643081 0)
(3.14966 -0.0675859 0)
(3.15067 -0.0672423 0)
(3.1517 -0.0665786 0)
(3.15354 -0.0660467 0)
(3.15672 -0.0641582 0)
(3.16015 -0.0550184 0)
(3.15968 -0.0416948 0)
(3.15508 -0.038776 0)
(3.1515 -0.0385515 0)
(3.14749 -0.0385763 0)
(3.1421 -0.0416784 0)
(3.13829 -0.0475796 0)
(3.14046 -0.0579539 0)
(3.14456 -0.0675639 0)
(3.14809 -0.0721862 0)
(3.15223 -0.0750594 0)
(3.15439 -0.0785463 0)
(3.15696 -0.0814321 0)
(3.16247 -0.0872634 0)
(3.16062 -0.0954204 0)
(3.15866 -0.0966753 0)
(3.15848 -0.0986705 0)
(3.16099 -0.100013 0)
(3.16699 -0.102795 0)
(3.17031 -0.104806 0)
(3.17377 -0.106785 0)
(3.17738 -0.110787 0)
(3.17821 -0.115053 0)
(3.17417 -0.120556 0)
(3.1664 -0.127013 0)
(3.164 -0.131215 0)
(3.16447 -0.132734 0)
(3.16537 -0.133804 0)
(3.16718 -0.135173 0)
(3.17083 -0.13663 0)
(3.17862 -0.135929 0)
(3.18696 -0.133569 0)
(3.18698 -0.1329 0)
(3.18422 -0.132889 0)
(3.18124 -0.132804 0)
(3.17492 -0.13292 0)
(3.16704 -0.132589 0)
(3.165 -0.132045 0)
(3.16216 -0.129661 0)
(3.16157 -0.125404 0)
(3.16538 -0.118784 0)
(3.175 -0.108848 0)
(3.18305 -0.101062 0)
(3.17925 -0.0969607 0)
(3.17221 -0.0950669 0)
(3.16495 -0.0930785 0)
(3.15633 -0.0900131 0)
(3.14469 -0.0846625 0)
(3.1399 -0.0828007 0)
(3.13264 -0.0793802 0)
(3.12716 -0.0756262 0)
(3.12403 -0.0715696 0)
(3.12405 -0.0622588 0)
(3.1312 -0.0482384 0)
(3.1489 -0.0296023 0)
(3.16761 -0.00947167 0)
(3.16379 -0.00300612 0)
(3.15647 -0.000907516 0)
(3.1496 0.00251639 0)
(3.14067 0.00563642 0)
(3.13122 0.00498754 0)
(3.12091 0.00361726 0)
(3.11323 -3.06876e-05 0)
(3.10338 -0.00527023 0)
(3.09796 -0.00963747 0)
(3.09152 -0.0119494 0)
(3.08771 -0.0134527 0)
(3.08497 -0.0126878 0)
(3.08265 -0.0109243 0)
(3.0794 -0.0104794 0)
(3.07706 -0.0113586 0)
(3.07509 -0.0128894 0)
(3.07319 -0.0151212 0)
(3.07283 -0.0173649 0)
(3.07553 -0.01899 0)
(3.08475 -0.0183183 0)
(3.09683 -0.0160181 0)
(3.10077 -0.0155439 0)
(3.10046 -0.0159781 0)
(3.09969 -0.0168018 0)
(3.09732 -0.018358 0)
(3.08986 -0.0221621 0)
(3.07548 -0.0292243 0)
(3.06442 -0.0339171 0)
(3.06271 -0.0343912 0)
(3.06244 -0.0343557 0)
(3.06262 -0.0343923 0)
(3.06434 -0.0345633 0)
(3.06491 -0.0350184 0)
(3.06361 -0.0352109 0)
(3.06251 -0.03526 0)
(3.0614 -0.0353033 0)
(3.05817 -0.0355527 0)
(3.05358 -0.0365402 0)
(3.05179 -0.0370056 0)
(3.05135 -0.0369575 0)
(3.05078 -0.0365668 0)
(3.05166 -0.0355817 0)
(3.05554 -0.0335329 0)
(3.05806 -0.0319197 0)
(3.05771 -0.0314804 0)
(3.05723 -0.0308351 0)
(3.05647 -0.0304398 0)
(3.05517 -0.0303314 0)
(3.05332 -0.0302868 0)
(3.05197 -0.0299575 0)
(3.05099 -0.0297293 0)
(3.05018 -0.0297144 0)
(3.05 -0.0292444 0)
(3.05163 -0.0275732 0)
(3.05144 -0.0245201 0)
(3.14029 -0.0272362 0)
(3.14318 -0.0322314 0)
(3.14153 -0.0299842 0)
(3.13161 -0.0130814 0)
(3.12218 0.0121858 0)
(3.11912 0.0208776 0)
(3.11928 0.0212679 0)
(3.12256 0.0174468 0)
(3.12934 0.00599918 0)
(3.13781 -0.00989012 0)
(3.14745 -0.0281554 0)
(3.15337 -0.0435319 0)
(3.14928 -0.0507637 0)
(3.14651 -0.0499858 0)
(3.14689 -0.0494888 0)
(3.14751 -0.0485689 0)
(3.14856 -0.0465325 0)
(3.14956 -0.0404586 0)
(3.15228 -0.0275506 0)
(3.15335 -0.0184042 0)
(3.15077 -0.0179139 0)
(3.14894 -0.0186824 0)
(3.14334 -0.0204001 0)
(3.13983 -0.0282155 0)
(3.13817 -0.0341673 0)
(3.14036 -0.0426911 0)
(3.14481 -0.053538 0)
(3.14828 -0.0596404 0)
(3.15235 -0.0634151 0)
(3.15432 -0.0680354 0)
(3.15666 -0.0726295 0)
(3.16194 -0.0779889 0)
(3.15996 -0.0852183 0)
(3.15751 -0.0865096 0)
(3.15764 -0.0877626 0)
(3.16026 -0.0887231 0)
(3.16653 -0.0907602 0)
(3.16964 -0.0920932 0)
(3.17252 -0.0934254 0)
(3.17539 -0.0963567 0)
(3.17529 -0.100006 0)
(3.17013 -0.105433 0)
(3.16239 -0.111847 0)
(3.16132 -0.115157 0)
(3.16267 -0.115872 0)
(3.16371 -0.116467 0)
(3.16582 -0.116999 0)
(3.17029 -0.117169 0)
(3.17778 -0.116819 0)
(3.18383 -0.117497 0)
(3.18416 -0.11918 0)
(3.18242 -0.12063 0)
(3.17954 -0.122842 0)
(3.1725 -0.128035 0)
(3.16735 -0.132695 0)
(3.16625 -0.13316 0)
(3.16491 -0.132834 0)
(3.16585 -0.130695 0)
(3.17227 -0.125686 0)
(3.18186 -0.120877 0)
(3.18416 -0.118113 0)
(3.18164 -0.116268 0)
(3.17627 -0.114939 0)
(3.1709 -0.113624 0)
(3.16074 -0.112081 0)
(3.14679 -0.111446 0)
(3.14295 -0.111096 0)
(3.13707 -0.109092 0)
(3.1329 -0.10389 0)
(3.13169 -0.0963395 0)
(3.13487 -0.0879332 0)
(3.14592 -0.0711142 0)
(3.16348 -0.057071 0)
(3.17237 -0.0471597 0)
(3.16841 -0.0434742 0)
(3.16394 -0.0426063 0)
(3.15416 -0.0395206 0)
(3.14558 -0.0343331 0)
(3.13692 -0.0338335 0)
(3.12665 -0.0309847 0)
(3.11307 -0.0274022 0)
(3.10417 -0.0167263 0)
(3.09986 -0.00969654 0)
(3.09243 -0.00886105 0)
(3.08677 -0.0115942 0)
(3.08368 -0.0140793 0)
(3.0821 -0.0137838 0)
(3.08029 -0.0121806 0)
(3.07793 -0.0112285 0)
(3.07528 -0.0121621 0)
(3.07329 -0.0144579 0)
(3.07369 -0.0168997 0)
(3.07852 -0.0188547 0)
(3.08963 -0.0179909 0)
(3.09851 -0.0167556 0)
(3.10014 -0.0171495 0)
(3.09995 -0.0176142 0)
(3.09919 -0.0183799 0)
(3.09553 -0.0203456 0)
(3.085 -0.0256973 0)
(3.06978 -0.0328318 0)
(3.06327 -0.0350632 0)
(3.06285 -0.0349799 0)
(3.06267 -0.0346398 0)
(3.06367 -0.0340988 0)
(3.06578 -0.0339225 0)
(3.06543 -0.0344916 0)
(3.06404 -0.0348381 0)
(3.06284 -0.0350572 0)
(3.06119 -0.0352967 0)
(3.05697 -0.0359249 0)
(3.05313 -0.036923 0)
(3.05233 -0.0371418 0)
(3.05182 -0.037028 0)
(3.05171 -0.0363322 0)
(3.05397 -0.0346393 0)
(3.05826 -0.0322026 0)
(3.05914 -0.0310762 0)
(3.05863 -0.0308657 0)
(3.05814 -0.0302617 0)
(3.05737 -0.0298482 0)
(3.0563 -0.0297982 0)
(3.05449 -0.0295553 0)
(3.05315 -0.0290255 0)
(3.05215 -0.0287886 0)
(3.05144 -0.0286994 0)
(3.05155 -0.0276886 0)
(3.05329 -0.0254258 0)
(3.05242 -0.0226444 0)
(3.14158 -0.0203594 0)
(3.1405 -0.0197056 0)
(3.13476 -0.0117283 0)
(3.12407 0.0115563 0)
(3.11631 0.0329435 0)
(3.11449 0.0367456 0)
(3.11626 0.0358582 0)
(3.12313 0.0277414 0)
(3.1326 0.012104 0)
(3.14227 -0.0072211 0)
(3.15105 -0.0225361 0)
(3.15113 -0.0310437 0)
(3.14358 -0.0334726 0)
(3.14252 -0.033172 0)
(3.14275 -0.0329577 0)
(3.14324 -0.0325709 0)
(3.14334 -0.0301063 0)
(3.1443 -0.0229165 0)
(3.1489 -0.0125648 0)
(3.1507 -0.00864742 0)
(3.15002 -0.00876004 0)
(3.14732 -0.0100697 0)
(3.14135 -0.0151431 0)
(3.13989 -0.0238481 0)
(3.14026 -0.028087 0)
(3.14156 -0.033414 0)
(3.14625 -0.0423942 0)
(3.14885 -0.0463569 0)
(3.15138 -0.04855 0)
(3.15235 -0.0514363 0)
(3.15465 -0.0551421 0)
(3.16006 -0.0612839 0)
(3.1574 -0.0688647 0)
(3.1549 -0.0705608 0)
(3.15515 -0.0719935 0)
(3.15839 -0.0733496 0)
(3.16516 -0.0761613 0)
(3.16867 -0.0781255 0)
(3.17087 -0.0793325 0)
(3.17319 -0.0821739 0)
(3.17243 -0.0860933 0)
(3.16637 -0.0924015 0)
(3.1592 -0.0997158 0)
(3.15927 -0.10299 0)
(3.16078 -0.104202 0)
(3.16228 -0.105645 0)
(3.16544 -0.107429 0)
(3.17138 -0.110086 0)
(3.17938 -0.113403 0)
(3.1845 -0.116326 0)
(3.18504 -0.117814 0)
(3.1842 -0.119093 0)
(3.1804 -0.121957 0)
(3.17275 -0.125499 0)
(3.16717 -0.126799 0)
(3.16657 -0.126789 0)
(3.1664 -0.126137 0)
(3.16864 -0.123866 0)
(3.1757 -0.120909 0)
(3.1837 -0.118831 0)
(3.18395 -0.119609 0)
(3.18174 -0.120037 0)
(3.17944 -0.120847 0)
(3.17364 -0.12201 0)
(3.15945 -0.124452 0)
(3.14674 -0.126741 0)
(3.14399 -0.126752 0)
(3.13987 -0.125858 0)
(3.13779 -0.123819 0)
(3.13963 -0.120152 0)
(3.14641 -0.113005 0)
(3.15987 -0.103118 0)
(3.1714 -0.0941888 0)
(3.17328 -0.088503 0)
(3.17138 -0.0847807 0)
(3.16793 -0.0810869 0)
(3.15897 -0.0757821 0)
(3.14972 -0.0705681 0)
(3.14121 -0.0642507 0)
(3.13099 -0.0573025 0)
(3.12034 -0.0559724 0)
(3.11091 -0.0488443 0)
(3.10454 -0.0371541 0)
(3.09937 -0.0360316 0)
(3.09612 -0.0362043 0)
(3.09059 -0.0290997 0)
(3.08635 -0.0266715 0)
(3.08331 -0.0233212 0)
(3.08105 -0.0199478 0)
(3.07876 -0.0196957 0)
(3.07623 -0.0198409 0)
(3.07599 -0.0193164 0)
(3.08338 -0.0180341 0)
(3.09555 -0.0174466 0)
(3.09939 -0.0173169 0)
(3.09958 -0.0173037 0)
(3.09941 -0.0170864 0)
(3.09797 -0.0175916 0)
(3.09208 -0.0210666 0)
(3.07845 -0.028887 0)
(3.06597 -0.0350399 0)
(3.06337 -0.0357556 0)
(3.06311 -0.0354693 0)
(3.06318 -0.034792 0)
(3.06493 -0.0338097 0)
(3.06692 -0.0332916 0)
(3.06601 -0.0337853 0)
(3.06468 -0.0343007 0)
(3.06336 -0.034771 0)
(3.0606 -0.0355041 0)
(3.05569 -0.036889 0)
(3.05308 -0.0375005 0)
(3.05269 -0.0375187 0)
(3.05221 -0.0373714 0)
(3.05272 -0.0361869 0)
(3.05637 -0.0335674 0)
(3.06055 -0.0312703 0)
(3.06044 -0.0307819 0)
(3.05981 -0.0306041 0)
(3.05903 -0.0298919 0)
(3.05819 -0.0292392 0)
(3.05702 -0.0289231 0)
(3.05528 -0.0282211 0)
(3.05377 -0.0270544 0)
(3.0529 -0.0263071 0)
(3.05253 -0.0259307 0)
(3.05331 -0.0250163 0)
(3.05517 -0.0239792 0)
(3.05369 -0.0221925 0)
(3.13856 0.000497485 0)
(3.13346 0.00489549 0)
(3.11804 0.0242006 0)
(3.10825 0.0484064 0)
(3.10692 0.0548777 0)
(3.10856 0.054244 0)
(3.11496 0.0482328 0)
(3.12523 0.0342832 0)
(3.13684 0.0157998 0)
(3.14831 -0.000516122 0)
(3.15361 -0.0117938 0)
(3.14528 -0.0202671 0)
(3.13998 -0.0214362 0)
(3.13983 -0.0212712 0)
(3.13971 -0.02103 0)
(3.13864 -0.018518 0)
(3.13745 -0.0116143 0)
(3.14026 -0.000580833 0)
(3.14499 0.00883802 0)
(3.1451 0.0108955 0)
(3.1443 0.011457 0)
(3.14197 0.00844375 0)
(3.13779 -0.00277493 0)
(3.13807 -0.00955365 0)
(3.14036 -0.0132814 0)
(3.14165 -0.0197634 0)
(3.14605 -0.0290037 0)
(3.14927 -0.0328115 0)
(3.15169 -0.0360454 0)
(3.15269 -0.0404213 0)
(3.15546 -0.0459939 0)
(3.16017 -0.0535864 0)
(3.15744 -0.0604792 0)
(3.15447 -0.0622989 0)
(3.15463 -0.0630038 0)
(3.15779 -0.0639243 0)
(3.16449 -0.0656242 0)
(3.16815 -0.0668073 0)
(3.16973 -0.0675232 0)
(3.17143 -0.0696792 0)
(3.17001 -0.0735782 0)
(3.16296 -0.0804455 0)
(3.15643 -0.0875359 0)
(3.15716 -0.0901003 0)
(3.15869 -0.0910103 0)
(3.16031 -0.0919207 0)
(3.16394 -0.0928769 0)
(3.17041 -0.0937706 0)
(3.17797 -0.0950808 0)
(3.18174 -0.0966233 0)
(3.18212 -0.0975091 0)
(3.18124 -0.0997452 0)
(3.17726 -0.105169 0)
(3.1701 -0.113339 0)
(3.16645 -0.118037 0)
(3.16631 -0.118848 0)
(3.16726 -0.120275 0)
(3.17107 -0.121312 0)
(3.17877 -0.120905 0)
(3.18425 -0.12006 0)
(3.18388 -0.119841 0)
(3.18228 -0.120013 0)
(3.17988 -0.120468 0)
(3.17197 -0.121951 0)
(3.15699 -0.126517 0)
(3.14642 -0.129674 0)
(3.14463 -0.130179 0)
(3.1423 -0.13046 0)
(3.14112 -0.130691 0)
(3.14325 -0.12905 0)
(3.15296 -0.123543 0)
(3.16864 -0.116764 0)
(3.17657 -0.112065 0)
(3.17607 -0.110198 0)
(3.17422 -0.109072 0)
(3.17098 -0.107858 0)
(3.16464 -0.106618 0)
(3.15692 -0.105267 0)
(3.14651 -0.101238 0)
(3.14009 -0.0986876 0)
(3.12972 -0.0914566 0)
(3.12047 -0.083507 0)
(3.11368 -0.0712712 0)
(3.10596 -0.0520942 0)
(3.09995 -0.0400415 0)
(3.09412 -0.0351618 0)
(3.08769 -0.0287173 0)
(3.08184 -0.0233655 0)
(3.07923 -0.0220944 0)
(3.07681 -0.0223442 0)
(3.07501 -0.02296 0)
(3.07743 -0.0229144 0)
(3.08951 -0.0210167 0)
(3.1009 -0.0193065 0)
(3.10135 -0.0204553 0)
(3.10045 -0.021264 0)
(3.09998 -0.0215451 0)
(3.09712 -0.0221045 0)
(3.08783 -0.025882 0)
(3.07251 -0.0331524 0)
(3.06474 -0.0364141 0)
(3.06393 -0.036499 0)
(3.06322 -0.0361889 0)
(3.06375 -0.0352251 0)
(3.06642 -0.0335665 0)
(3.06769 -0.0326558 0)
(3.06659 -0.0328039 0)
(3.06542 -0.033352 0)
(3.06364 -0.0342076 0)
(3.05917 -0.0359801 0)
(3.05465 -0.0379033 0)
(3.05329 -0.0380272 0)
(3.05285 -0.0376925 0)
(3.05257 -0.0370296 0)
(3.05402 -0.0356611 0)
(3.05894 -0.0328542 0)
(3.06242 -0.0306038 0)
(3.06187 -0.0301341 0)
(3.06102 -0.0297684 0)
(3.06011 -0.029236 0)
(3.0589 -0.0288168 0)
(3.05761 -0.0284444 0)
(3.0563 -0.0279695 0)
(3.05502 -0.0267383 0)
(3.0544 -0.0256711 0)
(3.05461 -0.0247886 0)
(3.05601 -0.0231784 0)
(3.05685 -0.0216484 0)
(3.05471 -0.0204099 0)
(3.13573 0.0144443 0)
(3.12603 0.0266531 0)
(3.1121 0.0510748 0)
(3.10395 0.0675032 0)
(3.10187 0.0696967 0)
(3.10642 0.0655722 0)
(3.11585 0.0552551 0)
(3.12804 0.0383519 0)
(3.14104 0.0190138 0)
(3.15225 0.00677838 0)
(3.14844 -0.000296383 0)
(3.13608 -0.000467437 0)
(3.13329 0.000774341 0)
(3.13307 0.00135647 0)
(3.13216 0.0028261 0)
(3.13055 0.00608686 0)
(3.13153 0.0117417 0)
(3.13798 0.0181467 0)
(3.14147 0.0202098 0)
(3.14152 0.0201526 0)
(3.14169 0.0186772 0)
(3.14034 0.0110935 0)
(3.1363 0.00176563 0)
(3.13819 -0.00174579 0)
(3.14034 -0.00403276 0)
(3.14348 -0.00993992 0)
(3.14671 -0.0159348 0)
(3.14937 -0.0182444 0)
(3.15116 -0.0208504 0)
(3.15256 -0.024086 0)
(3.15545 -0.0289634 0)
(3.15735 -0.0365387 0)
(3.15435 -0.0436921 0)
(3.15213 -0.0467528 0)
(3.15261 -0.0483118 0)
(3.15652 -0.049895 0)
(3.16355 -0.0519242 0)
(3.16697 -0.0531509 0)
(3.16828 -0.0539604 0)
(3.16958 -0.056397 0)
(3.16746 -0.0609892 0)
(3.15947 -0.068722 0)
(3.15401 -0.075427 0)
(3.1552 -0.0775014 0)
(3.15668 -0.078571 0)
(3.15861 -0.0796726 0)
(3.16315 -0.0810358 0)
(3.17038 -0.0824693 0)
(3.1777 -0.0841485 0)
(3.18057 -0.0855727 0)
(3.18072 -0.0863068 0)
(3.17947 -0.0886199 0)
(3.17485 -0.0935745 0)
(3.16781 -0.100203 0)
(3.16532 -0.103818 0)
(3.16546 -0.104635 0)
(3.16731 -0.10636 0)
(3.17218 -0.107926 0)
(3.17879 -0.108501 0)
(3.1822 -0.109787 0)
(3.18223 -0.110976 0)
(3.18122 -0.111633 0)
(3.1775 -0.113341 0)
(3.167 -0.119064 0)
(3.15296 -0.128496 0)
(3.14671 -0.132529 0)
(3.14579 -0.132502 0)
(3.1446 -0.130633 0)
(3.14496 -0.127976 0)
(3.14866 -0.125407 0)
(3.15895 -0.121473 0)
(3.17279 -0.115802 0)
(3.17836 -0.112965 0)
(3.17721 -0.112653 0)
(3.17477 -0.112584 0)
(3.17145 -0.112539 0)
(3.16775 -0.112593 0)
(3.16093 -0.11298 0)
(3.14806 -0.115714 0)
(3.1412 -0.117392 0)
(3.13732 -0.116747 0)
(3.1304 -0.110128 0)
(3.12444 -0.0999958 0)
(3.11927 -0.0905434 0)
(3.11205 -0.0791147 0)
(3.10354 -0.0691846 0)
(3.09621 -0.0640924 0)
(3.08832 -0.0540079 0)
(3.08148 -0.0431812 0)
(3.0781 -0.0373149 0)
(3.0768 -0.0339114 0)
(3.08187 -0.0302146 0)
(3.09698 -0.0228752 0)
(3.10459 -0.0180975 0)
(3.102 -0.018196 0)
(3.09981 -0.0196158 0)
(3.09788 -0.0213832 0)
(3.09308 -0.0238357 0)
(3.08242 -0.0291437 0)
(3.06945 -0.0349083 0)
(3.06549 -0.036392 0)
(3.06444 -0.0364871 0)
(3.06355 -0.0359314 0)
(3.06476 -0.0346727 0)
(3.06799 -0.0329281 0)
(3.06846 -0.0323388 0)
(3.06748 -0.0324015 0)
(3.06639 -0.0327646 0)
(3.0631 -0.0340188 0)
(3.05755 -0.0370417 0)
(3.05445 -0.0384863 0)
(3.0537 -0.0383984 0)
(3.05288 -0.0378287 0)
(3.05309 -0.036882 0)
(3.05592 -0.0349189 0)
(3.06159 -0.0314295 0)
(3.06355 -0.0291358 0)
(3.06277 -0.0286169 0)
(3.06173 -0.0278908 0)
(3.06063 -0.0271563 0)
(3.0595 -0.0269497 0)
(3.05785 -0.0265704 0)
(3.05664 -0.0257596 0)
(3.05577 -0.0245635 0)
(3.05555 -0.0228309 0)
(3.05649 -0.0218501 0)
(3.05854 -0.0206276 0)
(3.05872 -0.0195768 0)
(3.05599 -0.0188993 0)
(3.12386 0.0435166 0)
(3.10804 0.0649013 0)
(3.09954 0.0852187 0)
(3.09914 0.0876294 0)
(3.10203 0.0849919 0)
(3.10967 0.0753528 0)
(3.12021 0.0589723 0)
(3.13253 0.0407906 0)
(3.14665 0.0276793 0)