/*--------------------------------*- C++ -*----------------------------------*\
  =========                 |
  \\      /  F ield         | OpenFOAM: The Open Source CFD Toolbox
   \\    /   O peration     | Website:  https://openfoam.org
    \\  /    A nd           | Version:  7
     \\/     M anipulation  |
\*---------------------------------------------------------------------------*/
FoamFile
{
    version     2.0;
    format      ascii;
    class       volScalarField;
    location    "2.2";
    object      p;
}
// * * * * * * * * * * * * * * * * * * * * * * * * * * * * * * * * * * * * * //

dimensions      [1 -1 -2 0 0 0 0];

internalField   nonuniform List<scalar> 
4128
(
1
1
1
1
1
1
1
1
1
1
1
1
1
1
1
1
1
1.79465
8.52351
10.8123
11.0757
11.4072
11.6615
11.8758
1
1
1
1
1
1
1
1
1
1
1
1
1
1
1
1
1
1.6642
8.19747
10.7204
10.9828
11.2865
11.5017
11.5948
1
1
1
1
1
1
1
1
1
1
1
1
1
1
1
1
1
1.37589
7.58384
10.5761
10.7816
10.9925
11.0843
11.2076
1
1
1
1
1
1
1
1
1
1
1
1
1
1
1
1
1
1.03728
6.55706
10.2941
10.4626
10.6472
10.6938
10.9607
1
1
1
1
1
1
1
1
1
1
1
1
1
1
1
1
1
1.00035
5.13083
9.74998
9.99825
10.032
9.45551
7.81811
1
1
1
1
1
1
1
1
1
1
1
1
1
1
1
1
1
0.999996
3.45879
9.00344
9.63597
9.37643
8.69924
7.0293
1
1
1
1
1
1
1
1
1
1
1
1
1
1
1
1
1
0.999999
1.83395
7.79529
9.36707
8.87982
8.17373
6.53374
1
1
1
1
1
1
1
1
1
1
1
1
1
1
1
1
1
1
1.07706
5.83936
8.76601
8.28587
7.66644
6.31451
1
1
1
1
1
1
1
1
1
1
1
1
1
1
1
1
1
1
1.00023
3.19885
7.81504
8.08289
7.3709
6.29855
1
1
1
1
1
1
1
1
1
1
1
1
1
1
1
1
1
1
0.999997
1.34089
6.03815
8.0126
7.23701
6.31223
1
1
1
1
1
1
1
1
1
1
1
1
1
1
1
1
1
1
0.999999
1.00971
3.31496
7.2972
7.07238
6.28472
1
1
1
1
1
1
1
1
1
1
1
1
1
1
1
1
1
1
1
1.00001
1.37312
5.41392
7.15258
6.33744
1
1
1
1
1
1
1
1
1
1
1
1
1
1
1
1
1
1
1
1
1.01163
2.55096
6.17979
6.35938
1
1
1
1
1
1
1
1
1
1
1
1
1
1
1
1
1
1
1
1
1.00006
1.17956
4.01774
6.23999
1
1
1
1
1
1
1
1
1
1
1
1
1
1
1
1
1
1
1
1
1
1.00363
1.68991
4.80085
1
1
1
1
1
1
1
1
1
1
1
1
1
1
1
1
1
1
1
1
1
1.00002
1.03999
2.3339
1
1
1
1
1
1
1
1
1
1
1
1
1
1
1
1
1
1
1
1
1
1
1.0005
1.14082
1
1
1
1
1
1
1
1
1
1
1
1
1
1
1
1
1
1
1
1
1
1
1
1.00328
1
1
1
1
1
1
1
1
1
1
1
1
1
1
1
1
1
1
1
1
1
1
1
1.00002
1
1
1
1
1
1
1
1
1
1
1
1
1
1
1
1
1
1
1
1
1
1
1
1
1
1
1
1
1
1
1
1
1
1
1
1
1
1
1
1
1
1
1
1
1
1
1
1
1
1
1
1
1
1
1
1
1
1
1
1
1
1
1
1
1
1
1
1
1
1
1
1
1
1
1
1
1
1
1
1
1
1
1
1
1
1
1
1
1
1
1
1
1
1
1
1
1
1
1
1
1
1
1
1
1
1
1
1
1
1
1
1
1
1
1
1
1
1
1
1
1
1
1
1
1
1
1
1
1
1
1
1
1
1
1
1
1
1
1
1
1
1
1
1
1
1
1
1
1
1
1
1
1
1
1
1
1
1
1
1
1
1
1
1
1
1
1
1
1
1
1
1
1
1
1
1
1
1
1
1
1
1
1
1
1
1
1
1
1
1
1
1
1
1
1
1
1
1
1
1
1
1
1
1
1
1
1
1
1
1
1
1
1
1
1
1
1
1
1
1
1
1
1
1
1
1
1
1
1
1
1
1
1
1
1
1
1
1
1
1
1
1
1
1
1
1
1
1
1
1
1
1
1
1
1
1
1
1
1
1
1
1
1
1
1
1
1
1
1
1
1
1
1
1
1
1
1
1
1
1
1
1
1
1
1
1
1
1
1
1
1
1
1
1
1
1
1
1
1
1
1
1
1
1
1
1
1
1
1
1
1
1
1
1
1
1
1
1
1
1
1
1
1
1
1
1
1
1
1
1
1
1
1
1
1
1
1
1
1
1
1
1
1
1
1
1
1
1
1
1
1
1
1
1
1
1
1
1
1
1
1
1
1
1
1
1
1
1
1
1
1
1
1
1
1
1
1
1
1
1
1
1
1
1
1
1
1
1
1
1
1
1
1
1
1
1
1
1
1
1
1
1
1
1
1
1
1
1
1
1
1
1
1
1
1
1
1
1
1
1
1
1
1
1
1
1
1
1
1
1
1
1
1
1
1
1
1
1
1
1
1
1
1
1
1
1
1
1
1
1
1
1
1
1
1
1
1
1
1
1
1
1
1
1
1
1
1
1
1
1
1
1
1
1
1
1
1
1
1
1
1
1
1
1
1
1
1
1
1
1
1
1
1
1
1
1
1
1
1
1
1
1
1
1
2.11836
0.725972
0.387247
0.441704
0.541139
0.623298
0.806376
1.06005
1.19725
1.25131
1.31256
1.3448
1.35286
1.36514
2.0193
4.90156
5.67299
5.83504
5.99248
6.15228
6.32341
6.45264
6.4882
6.49947
3.39303
2.02646
1.26407
1.10503
1.01263
0.904483
0.901219
0.910366
0.945177
0.999112
1.06883
1.1597
1.23984
1.27187
1.81934
4.71972
5.68137
5.83321
5.97648
6.12131
6.2841
6.41474
6.45296
6.41921
4.24092
3.00499
2.18868
1.67769
1.39403
1.16213
1.00102
0.948456
0.90387
0.925061
0.997139
1.0915
1.16802
1.19306
1.41047
4.27052
5.67614
5.824
5.95417
6.07282
6.19607
6.28396
6.28567
6.31036
4.79887
3.70832
2.85334
2.27389
1.89575
1.58666
1.32275
1.22307
1.10981
1.00184
1.00025
1.01859
1.0356
1.06307
1.12328
3.3818
5.55783
5.76013
5.88077
5.98059
6.06748
6.13623
6.12779
6.26446
5.1593
4.24287
3.42462
2.76374
2.34297
1.96689
1.66057
1.49595
1.3608
1.1861
1.08104
1.0411
1.00605
1.00916
1.0153
2.19681
5.25057
5.72818
5.84309
5.92441
5.94184
5.90557
5.56253
4.68257
5.35923
4.56708
3.81466
3.16594
2.73655
2.35179
1.98665
1.78547
1.62555
1.44089
1.28534
1.20799
1.12977
1.07195
1.03592
1.2231
4.37535
5.6287
5.75753
5.80471
5.75588
5.59194
5.2007
4.31843
5.46033
4.78192
4.13445
3.51957
3.08055
2.69069
2.30299
2.08004
1.90361
1.68687
1.49835
1.37416
1.27829
1.18409
1.08394
1.08665
2.9429
5.40966
5.65363
5.68027
5.57929
5.33614
4.96191
4.10678
5.59373
4.97684
4.40868
3.82452
3.37475
3.01403
2.61831
2.32682
2.15075
1.9301
1.71936
1.57714
1.47291
1.35565
1.23496
1.15229
1.60198
4.77165
5.56442
5.56115
5.42048
5.15605
4.75954
4.0352
5.74577
5.13774
4.59919
4.07765
3.6484
3.27812
2.88813
2.58211
2.37568
2.14937
1.92876
1.76386
1.6467
1.53632
1.41693
1.26776
1.28676
3.28747
5.26869
5.42371
5.2822
5.01299
4.63146
4.05963
5.93
5.34441
4.80939
4.30461
3.87912
3.52255
3.14442
2.80866
2.58697
2.37236
2.14215
1.96106
1.81866
1.70382
1.58026
1.44846
1.35006
1.8472
4.5671
5.37084
5.2349
4.97396
4.60027
4.12986
5.90532
5.5343
4.99414
4.4864
4.07893
3.71947
3.36205
3.02479
2.78866
2.56972
2.33907
2.13348
2.00144
1.87971
1.74261
1.60691
1.46411
1.49424
3.13173
5.10846
5.1639
4.88482
4.54046
4.15009
5.02654
5.60523
5.22334
4.69205
4.27112
3.92394
3.56351
3.23438
3.00427
2.77469
2.53495
2.3095
2.18071
2.04692
1.90313
1.7516
1.64305
1.54149
1.91847
4.19439
5.08619
4.86308
4.5919
4.24708
2.91252
5.02641
5.33927
4.96076
4.48244
4.11623
3.76783
3.44824
3.19604
2.96412
2.72412
2.49336
2.34937
2.21205
2.05888
1.88177
1.79723
1.65975
1.66466
2.7705
4.65991
4.93297
4.66954
4.3345
1.30359
3.29812
4.93556
5.10361
4.76288
4.34625
3.95175
3.63835
3.39557
3.16282
2.90097
2.66709
2.52454
2.37314
2.21326
2.01978
1.94594
1.84141
1.69724
1.87399
3.59876
4.85956
4.72374
4.39815
1.01143
1.4805
3.4892
4.79095
4.9189
4.61553
4.19229
3.8292
3.56545
3.35046
3.08624
2.84254
2.67653
2.54702
2.3767
2.16151
2.0814
2.00366
1.80747
1.79848
2.38143
4.12264
4.73478
4.49808
1.0001
1.02532
1.61731
3.54949
4.64569
4.75683
4.46929
4.06916
3.74731
3.51009
3.26807
3.03449
2.84281
2.70035
2.52962
2.32971
2.21489
2.14768
1.98562
1.82495
1.89452
2.94585
4.31675
4.55554
1
1.00031
1.04044
1.70371
3.53026
4.50878
4.60575
4.35376
3.99054
3.69754
3.43753
3.18739
3.01226
2.86747
2.69306
2.47433
2.36035
2.27739
2.15646
1.94681
1.90602
2.12171
3.40154
4.35791
1
1
1.00061
1.05305
1.73706
3.46194
4.37065
4.47203
4.25585
3.92174
3.64275
3.38775
3.16555
3.00164
2.83774
2.64941
2.5121
2.41696
2.29085
2.11115
1.98335
1.99885
2.41881
3.68418
1
1
1
1.00092
1.05972
1.72503
3.34471
4.23439
4.34296
4.17265
3.87812
3.55594
3.34673
3.18411
2.9963
2.78023
2.65266
2.55717
2.43098
2.257
2.12643
2.03326
2.07285
2.68788
1
1
1
1
1.00111
1.05951
1.67634
3.19951
4.10118
4.21887
4.11027
3.82755
3.51857
3.3313
3.14895
2.95103
2.8212
2.6975
2.55109
2.36877
2.26911
2.17551
2.07367
2.15939
1
1
1
1
1
1.00114
1.05366
1.60526
3.02559
3.92207
4.13416
4.03801
3.7584
3.52978
3.30226
3.07194
2.96108
2.83955
2.69469
2.50827
2.40851
2.32689
2.16414
2.13929
1
1
1
1
1
1.00001
1.00105
1.04305
1.53731
2.76587
3.85757
4.04162
3.96971
3.76628
3.51117
3.23422
3.09733
2.97311
2.81515
2.63714
2.55954
2.47401
2.317
2.16357
1
1
1
1
1
1
1
1.00072
1.03787
1.41842
2.60014
3.70729
3.89613
3.88097
3.75424
3.4633
3.25281
3.11178
2.94405
2.78057
2.68757
2.59107
2.46934
2.27949
1
1
1
1
1
1
1
1
1.00062
1.02645
1.312
2.42863
3.41091
3.83953
3.84662
3.69698
3.45515
3.2804
3.06984
2.92091
2.82414
2.71543
2.59329
2.42295
1
1
1
1
1
1
1
1
1
1.0004
1.01517
1.26152
2.12338
3.24947
3.7687
3.76171
3.64315
3.48997
3.25944
3.07206
2.95275
2.84207
2.69144
2.56346
1
1
1
1
1
1
1
1
1
1
1.00019
1.01169
1.17889
1.84207
3.09629
3.61648
3.63922
3.60646
3.47467
3.24221
3.09679
2.98114
2.79074
2.68829
1
1
1
1
1
1
1
1
1
1
1
1.00013
1.0067
1.09998
1.66626
2.86518
3.37868
3.56114
3.58507
3.44016
3.26598
3.13407
2.93481
2.81676
1
1
1
1
1
1
1
1
1
1
1
1
1.00005
1.00301
1.05992
1.54412
2.45398
3.22544
3.56489
3.56516
3.45963
3.30736
3.11115
2.96105
1
1
1
1
1
1
1
1
1
1
1
1
1
1.00002
1.00138
1.04159
1.34877
2.07295
3.12842
3.45195
3.46532
3.43366
3.32429
3.13666
1
1
1
1
1
1
1
1
1
1
1
1
1
1
1.00001
1.00077
1.02044
1.17969
1.84367
2.95146
3.30157
3.38577
3.38408
3.28186
1
1
1
1
1
1
1
1
1
1
1
1
1
1
1
1
1.00024
1.00824
1.10812
1.6878
2.5919
3.14136
3.38054
3.38351
1
1
1
1
1
1
1
1
1
1
1
1
1
1
1
1
1
1.0001
1.00385
1.07089
1.48485
2.18993
2.95882
3.32418
1
1
1
1
1
1
1
1
1
1
1
1
1
1
1
1
1
1
1.00003
1.00187
1.03853
1.23476
1.84897
2.67732
1
1
1
1
1
1
1
1
1
1
1
1
1
1
1
1
1
1
1
1.00001
1.00069
1.01007
1.12604
1.58179
1
1
1
1
1
1
1
1
1
1
1
1
1
1
1
1
1
1
1
1
1
1.00011
1.00484
1.06338
1
1
1
1
1
1
1
1
1
1
1
1
1
1
1
1
1
1
1
1
1
1
1.00005
1.00192
1.44616
0.678304
0.470913
0.498309
0.627484
0.785601
0.997641
1.16074
1.26245
1.33598
1.3733
1.37367
1.37516
1.37102
1.35394
1.34431
1.35112
1.35904
1.35239
1.34452
1.33646
1.3183
1.29647
1.28857
1.28628
1.28798
1.30031
1.30795
1.30214
1.29217
1.27474
1.254
1.24495
1.24026
1.23705
1.23916
1.24187
1.23617
1.22754
1.21478
1.20215
1.19412
1.18487
1.18844
1.27515
2.57366
4.8629
5.22858
5.14872
5.09719
4.9596
4.81433
4.71404
4.66013
4.6446
4.63152
4.58735
4.5091
4.41204
4.31718
4.2438
4.19786
4.15442
4.07848
3.98687
3.88057
3.78358
3.71284
3.66551
3.65132
3.6624
3.62471
2.23567
1.5068
1.13402
0.947536
0.922649
0.886863
0.906853
0.986757
1.08138
1.17599
1.25974
1.28773
1.30733
1.31919
1.31411
1.3203
1.33599
1.35023
1.34871
1.3429
1.33824
1.32744
1.31242
1.30234
1.29511
1.29251
1.29608
1.29624
1.29138
1.28513
1.27272
1.25795
1.25122
1.24642
1.24373
1.24445
1.23949
1.2316
1.22223
1.20681
1.19283
1.18535
1.1883
1.26391
1.60669
2.43157
4.15105
4.92591
5.03782
4.98654
4.90822
4.85486
4.7863
4.70344
4.62682
4.53665
4.46745
4.40785
4.34517
4.28369
4.23125
4.18283
4.13395
4.08449
4.02895
3.9592
3.87187
3.77531
3.70037
3.64867
3.61202
3.546
2.82396
2.07843
1.64356
1.297
1.11945
1.02884
0.923264
0.946729
1.01472
1.09204
1.17412
1.22646
1.26581
1.31355
1.33332
1.35307
1.37219
1.37337
1.36119
1.34568
1.3303
1.31397
1.30333
1.29905
1.29694
1.30152
1.30672
1.30335
1.2973
1.28592
1.26517
1.24936
1.2442
1.24082
1.24193
1.24694
1.24426
1.23885
1.22991
1.2069
1.18529
1.18678
1.25022
1.59184
2.23466
2.50949
3.05077
4.12432
4.88033
4.99133
5.01664
4.97374
4.90571
4.81777
4.69526
4.53858
4.44231
4.37187
4.31951
4.27344
4.22131
4.14352
4.06983
4.01301
3.97747
3.9584
3.93416
3.88919
3.82207
3.72074
3.59485
3.46255
3.19119
2.53414
2.08517
1.70076
1.41304
1.28826
1.13907
1.02706
1.00463
1.00583
1.03537
1.08659
1.14597
1.21926
1.28362
1.3204
1.35573
1.37087
1.36889
1.35462
1.32829
1.30332
1.29658
1.29313
1.29236
1.29784
1.3048
1.30446
1.3002
1.28845
1.26858
1.25312
1.24659
1.24253
1.23991
1.23901
1.23703
1.23295
1.22276
1.20284
1.20401
1.25994
1.56005
2.14828
2.62422
2.68602
2.67898
3.02584
3.86583
4.49304
4.86589
4.9743
4.91505
4.80749
4.66134
4.51547
4.44295
4.37362
4.32898
4.29203
4.23249
4.15308
4.06533
3.99751
3.94537
3.91876
3.90949
3.87952
3.82677
3.74756
3.62924
3.47721
3.44543
2.89063
2.43688
2.06441
1.73259
1.51761
1.35777
1.17753
1.0806
1.02643
1.00536
1.02412
1.05845
1.11491
1.18042
1.22979
1.27204
1.30823
1.34509
1.35691
1.3443
1.33175
1.32308
1.31146
1.30152
1.29535
1.29508
1.2935
1.28572
1.2751
1.26476
1.25957
1.25652
1.25227
1.24605
1.23997
1.23383
1.22411
1.20676
1.20864
1.27581
1.56691
2.12963
2.58434
2.71824
2.77293
2.70523
2.68513
2.87866
3.42523
4.14997
4.58461
4.80043
4.8401
4.73994
4.59934
4.47405
4.3762
4.32894
4.28094
4.22152
4.15409
4.08265
4.0209
3.96448
3.92226
3.87758
3.82246
3.76162
3.68487
3.59034
3.47512
3.6166
3.1309
2.71204
2.34936
2.01712
1.75506
1.58827
1.40503
1.24442
1.17196
1.09937
1.05228
1.05236
1.05481
1.07068
1.10971
1.16503
1.22561
1.27796
1.30912
1.31721
1.32827
1.33896
1.33689
1.32788
1.31077
1.29331
1.2781
1.26301
1.2581
1.25667
1.25724
1.2619
1.2622
1.25723
1.24818
1.23441
1.2129
1.21262
1.26434
1.6052
2.16499
2.58979
2.72572
2.73416
2.77685
2.79216
2.73465
2.68292
2.71413
3.04869
3.64369
4.17449
4.45622
4.61472
4.62605
4.57453
4.47913
4.3717
4.2627
4.18416
4.12091
4.05958
3.99852
3.955
3.91077
3.85567
3.79448
3.72728
3.65483
3.58585
3.49779
3.73635
3.3027
2.92158
2.59496
2.27245
1.97489
1.7835
1.61988
1.43736
1.32139
1.23845
1.13096
1.0749
1.05222
1.0451
1.04829
1.06762
1.11068
1.16572
1.22392
1.26385
1.2871
1.31245
1.33443
1.33485
1.32475
1.30251
1.27683
1.25764
1.2521
1.25111
1.25344
1.26251
1.26669
1.26246
1.24949
1.22568
1.22269
1.27977
1.56321
2.20279
2.57374
2.77027
2.81175
2.78735
2.77694
2.78805
2.77375
2.69434
2.6506
2.59789
2.69817
3.05669
3.58
4.03119
4.27703
4.44109
4.53411
4.45738
4.37018
4.25898
4.13897
4.03228
3.94859
3.90609
3.86133
3.81414
3.76714
3.71535
3.6582
3.60497
3.52004
3.88318
3.48226
3.10612
2.79431
2.48833
2.18975
1.97633
1.81694
1.6346
1.47867
1.39812
1.29282
1.17612
1.13022
1.09155
1.05773
1.05296
1.05325
1.06862
1.10452
1.1642
1.22143
1.2625
1.29529
1.31187
1.31044
1.30052
1.28947
1.27417
1.26319
1.25767
1.25611
1.25886
1.25934
1.25207
1.23527
1.23331
1.31339
1.63853
2.17452
2.66251
2.77652
2.84909
2.86383
2.82283
2.77542
2.74375
2.7391
2.73424
2.6717
2.59293
2.56804
2.50035
2.60328
2.95324
3.45655
3.85709
4.14386
4.23581
4.36358
4.33327
4.23201
4.10663
3.98586
3.88114
3.80213
3.7474
3.7164
3.69055
3.65404
3.61803
3.53504
3.97852
3.60722
3.24094
2.94378
2.66643
2.37252
2.15315
1.99729
1.82507
1.64151
1.53898
1.44276
1.30906
1.21598
1.16301
1.09372
1.04869
1.04637
1.05261
1.05539
1.0735
1.12015
1.17152
1.21656
1.25229
1.26637
1.27589
1.28961
1.29356
1.28725
1.27829
1.26802
1.25682
1.24582
1.22989
1.23529
1.30785
1.71309
2.2543
2.68739
2.80656
2.78371
2.82627
2.87356
2.88369
2.83401
2.77499
2.74331
2.72162
2.66828
2.59419
2.51403
2.4538
2.43807
2.40045
2.52062
2.83296
3.27909
3.6398
3.9108
4.0418
4.11453
4.15596
4.0903
3.97143
3.85477
3.75164
3.6847
3.64498
3.60314
3.57909
3.51253
4.04957
3.7135
3.37734
3.07885
2.83296
2.56637
2.33509
2.169
2.00193
1.8113
1.69039
1.5872
1.45393
1.33098
1.27679
1.20795
1.12543
1.10526
1.08415
1.06611
1.06124
1.05915
1.06842
1.0895
1.13407
1.19016
1.2261
1.25194
1.28314
1.29379
1.28984
1.27983
1.25968
1.23162
1.23773
1.32805
1.69963
2.32391
2.64868
2.8232
2.86986
2.8525
2.85089
2.86912
2.88612
2.86095
2.79063
2.73072
2.67578
2.62555
2.57041
2.49931
2.44566
2.39311
2.34751
2.31593
2.29325
2.3824
2.62066
2.96907
3.35904
3.63746
3.86078
3.89208
3.92309
3.90261
3.82146
3.72014
3.66042
3.59767
3.5389
3.45778
4.15076
3.83043
3.52823
3.23853
2.99091
2.74547
2.50515
2.33371
2.17187
1.96934
1.82417
1.72503
1.59855
1.45879
1.38996
1.32527
1.23137
1.17111
1.13748
1.09758
1.05662
1.04001
1.04169
1.05231
1.06057
1.09232
1.14218
1.18649
1.22622
1.25116
1.26739
1.26516
1.25178
1.25884
1.40395
1.79079
2.40045
2.7068
2.79665
2.90023
2.94233
2.94753
2.91754
2.86999
2.85998
2.86917
2.80189
2.71229
2.63909
2.57553
2.52382
2.48143
2.44941
2.40869
2.34744
2.27185
2.21016
2.17663
2.16103
2.20043
2.38278
2.70198
3.1221
3.42716
3.58098
3.67361
3.66152
3.64291
3.6549
3.6123
3.55196
3.4624
4.30112
3.96606
3.66668
3.40185
3.14844
2.90777
2.67644
2.48807
2.31373
2.12444
1.96415
1.86277
1.73794
1.58855
1.50802
1.45056
1.35537
1.2651
1.22401
1.17768
1.10698
1.0662
1.06504
1.04969
1.04454
1.0485
1.068
1.09813
1.13931
1.18042
1.20839
1.22222
1.25271
1.4077
1.95791
2.44195
2.83986
2.89957
2.88082
2.93228
2.97119
2.97309
2.95706
2.9174
2.88409
2.85563
2.78424
2.69279
2.60162
2.5404
2.49568
2.46983
2.44301
2.39129
2.33177
2.25965
2.17776
2.12806
2.09562
2.08195
2.06568
2.09755
2.22511
2.48407
2.78164
3.10211
3.30079
3.38458
3.45354
3.45193
3.46525
3.45919
4.40072
4.14508
3.82493
3.55359
3.29968
3.05448
2.84101
2.65453
2.46224
2.25324
2.09526
1.99542
1.87971
1.72839
1.63173
1.5716
1.47957
1.37118
1.31582
1.26488
1.1807
1.11169
1.09803
1.07524
1.04894
1.0378
1.04744
1.05696
1.06139
1.08239
1.1095
1.18064
1.36334
1.89317
2.48166
2.79223
2.93415
2.97483
2.98399
3.01707
3.04597
3.02145
2.99013
2.94126
2.87758
2.80845
2.73049
2.65056
2.57612
2.52352
2.49019
2.46581
2.41609
2.36371
2.30827
2.238
2.16385
2.11344
2.08109
2.04957
2.01588
1.9958
1.97079
1.96358
2.02211
2.18551
2.44866
2.73428
2.99672
3.14221
3.22757
3.281
4.34203
4.27935
3.99867
3.70943
3.45439
3.20303
2.98482
2.79678
2.61559
2.41077
2.22957
2.11809
2.00439
1.8593
1.75828
1.69809
1.6091
1.4834
1.41254
1.35703
1.28026
1.19128
1.16471
1.1429
1.10267
1.06617
1.0598
1.05286
1.04653
1.05267
1.10276
1.32264
1.79365
2.43952
2.61729
2.75786
2.8806
2.99587
3.08676
3.1285
3.12377
3.07278
3.02744
2.95488
2.86142
2.77074
2.68356
2.61371
2.55803
2.51195
2.47934
2.43326
2.37909
2.32299
2.2642
2.20092
2.15686
2.12329
2.08197
2.03758
1.99697
1.95659
1.91239
1.87835
1.86211
1.85362
1.87969
1.97342
2.15733
2.4425
2.64343
2.90012
3.82019
4.30528
4.17033
3.89632
3.61717
3.34387
3.1316
2.95747
2.77428
2.55341
2.37289
2.25925
2.14552
1.98699
1.86391
1.8111
1.73314
1.60747
1.51838
1.46163
1.3837
1.27936
1.24321
1.21841
1.17781
1.12575
1.08763
1.06019
1.05462
1.08827
1.31609
1.7978
2.26335
2.54119
2.60733
2.68889
2.8166
2.9596
3.02347
3.05648
3.05235
3.05658
3.04333
2.95467
2.84031
2.73798
2.65783
2.59589
2.55421
2.52422
2.47378
2.41353
2.35028
2.27304
2.21361
2.18139
2.15364
2.11761
2.07419
2.02806
1.97993
1.92232
1.87262
1.84114
1.81833
1.79637
1.78415
1.77982
1.77585
1.82224
1.89598
2.16841
2.90505
3.89244
4.2218
4.07861
3.80821
3.51124
3.26009
3.08967
2.91438
2.71553
2.52447
2.39759
2.27053
2.11913
1.98793
1.92403
1.84196
1.71376
1.61896
1.5663
1.49446
1.39036
1.33109
1.30024
1.25765
1.19557
1.15036
1.12726
1.17747
1.4034
1.91319
2.31793
2.52522
2.54893
2.56711
2.63605
2.73526
2.80553
2.85188
2.9009
2.93761
2.95115
2.91716
2.83042
2.73535
2.65373
2.59667
2.55835
2.55238
2.52865
2.46911
2.40146
2.32026
2.24534
2.20477
2.17871
2.14674
2.10263
2.05531
2.00293
1.94844
1.89613
1.85521
1.8308
1.81468
1.79287
1.75938
1.72119
1.70204
1.69161
1.66008
1.67715
2.28665
3.08086
3.88931
4.12563
3.98666
3.71056
3.42955
3.23502
3.05181
2.83937
2.67223
2.55136
2.42279
2.24874
2.10263
2.03716
1.95545
1.82844
1.72148
1.66888
1.60069
1.49584
1.42714
1.39095
1.34338
1.27213
1.26463
1.34878
1.65472
2.1194
2.52228
2.59433
2.57294
2.53746
2.57371
2.66185
2.76017
2.77844
2.77162
2.76617
2.77141
2.78049
2.72293
2.65353
2.58177
2.51741
2.48717
2.47789
2.48815
2.46663
2.41561
2.34091
2.26681
2.23768
2.21448
2.18062
2.13957
2.0876
2.01623
1.95739
1.90967
1.87874
1.85813
1.83592
1.80668
1.76515
1.71518
1.67466
1.64467
1.6163
1.60549
1.58252
2.18438
2.43367
3.22745
3.86133
4.04731
3.91138
3.63235
3.39499
3.20676
2.99873
2.81455
2.68729
2.55984
2.39588
2.23685
2.15044
2.06599
1.93687
1.82296
1.77027
1.70939
1.61473
1.52045
1.47577
1.42305
1.43688
1.58083
2.04023
2.48168
2.76347
2.79793
2.73233
2.68345
2.70443
2.76201
2.81514
2.84917
2.79556
2.73312
2.69827
2.65375
2.60155
2.54664
2.48849
2.42523
2.36889
2.34057
2.34958
2.36815
2.33111
2.2699
2.2289
2.21025
2.20502
2.18985
2.1531
2.10733
2.04639
1.96933
1.918
1.89752
1.87878
1.85715
1.82912
1.79347
1.74852
1.69197
1.64657
1.61468
1.58168
1.55946
1.53167
2.22512
2.24968
2.53706
3.31297
3.82328
3.97709
3.84186
3.59949
3.3745
3.13738
2.96526
2.8353
2.68906
2.51811
2.36759
2.28221
2.18053
2.05032
1.93142
1.87232
1.81169
1.70363
1.63246
1.58617
1.63215
1.85082
2.39898
2.94226
3.09081
3.04427
2.94883
2.8928
2.89512
2.97174
3.01641
3.01775
2.95956
2.8587
2.75773
2.66602
2.58559
2.52034
2.45402
2.38973
2.355
2.31543
2.26797
2.23032
2.19639
2.14591
2.10577
2.08783
2.08137
2.08733
2.08803
2.06268
2.02881
1.99382
1.94055
1.90835
1.8933
1.871
1.84329
1.81126
1.77004
1.72655
1.67718
1.6316
1.59405
1.55851
1.54344
1.52279
2.34136
2.26798
2.28952
2.62431
3.37312
3.78269
3.91706
3.79146
3.57766
3.31685
3.09895
2.95778
2.83412
2.65776
2.49686
2.40129
2.30497
2.17743
2.04298
1.97648
1.90764
1.81023
1.77909
1.88533
2.27854
2.81894
3.33755
3.37738
3.33519
3.25014
3.17922
3.1871
3.25466
3.29511
3.26004
3.18741
3.08097
2.95866
2.83428
2.71843
2.62242
2.54014
2.4566
2.37731
2.32447
2.28094
2.23138
2.17991
2.12271
2.04846
1.9887
1.96658
1.95696
1.95338
1.95544
1.94137
1.92365
1.89892
1.8594
1.82597
1.79401
1.7794
1.76532
1.74758
1.73202
1.71161
1.67276
1.63799
1.60331
1.56753
1.53337
1.47994
2.48353
2.36968
2.2728
2.31954
2.72039
3.39389
3.76382
3.8766
3.76154
3.53001
3.27778
3.09128
2.94572
2.79249
2.64481
2.5359
2.42798
2.29693
2.15571
2.08571
2.01223
2.056
2.27718
2.89757
3.43849
3.66725
3.61133
3.49689
3.41838
3.40839
3.46419
3.56194
3.6352
3.57933
3.46142
3.32971
3.19278
3.0607
2.93259
2.8117
2.70124
2.59907
2.50422
2.41779
2.34334
2.28064
2.21549
2.14943
2.08921
2.02767
1.95973
1.92081
1.88495
1.85743
1.84422
1.82865
1.8111
1.7811
1.75609
1.7349
1.69455
1.67618
1.67457
1.66661
1.65386
1.64758
1.64794
1.63191
1.60489
1.57287
1.53247
1.45841
2.6137
2.49962
2.33239
2.3083
2.37711
2.76998
3.40216
3.73781
3.82725
3.71106
3.48287
3.27003
3.08722
2.8953
2.77046
2.653
2.55785
2.41897
2.29076
2.25724
2.41498
2.87057
3.55621
4.15493
4.17692
4.06329
3.8531
3.70223
3.6323
3.70579
3.80341
3.89838
3.8764
3.76893
3.6212
3.46684
3.31387
3.16443
3.02176
2.89385
2.78044
2.67411
2.57613
2.48564
2.40074
2.32237
2.24688
2.17361
2.10651
2.0406
1.97603
1.91155
1.84962
1.81357
1.78844
1.76746
1.74519
1.71167
1.68253
1.65313
1.60543
1.55814
1.55102
1.54947
1.54675
1.54996
1.56397
1.56922
1.55909
1.53451
1.49663
1.42942
2.73757
2.63493
2.4603
2.34407
2.36799
2.44033
2.79615
3.40607
3.67893
3.77379
3.66384
3.46108
3.25225
3.04545
2.92166
2.7618
2.65851
2.55898
2.5989
2.9028
3.67796
4.28453
4.59184
4.54492
4.37661
4.18089
4.03779
3.99975
4.0579
4.18343
4.19894
4.14337
4.04031
3.89026
3.72575
3.56706
3.41356
3.25752
3.10048
2.96174
2.84952
2.75114
2.66045
2.57158
2.4796
2.38659
2.29475
2.20723
2.13296
2.06957
2.00643
1.93316
1.86289
1.80991
1.76676
1.73523
1.70775
1.67673
1.65236
1.61925
1.56504
1.49823
1.46592
1.46149
1.45418
1.44869
1.45309
1.46794
1.47499
1.46816
1.44412
1.38344
2.85746
2.7453
2.59029
2.45577
2.39925
2.39836
2.46293
2.84443
3.39141
3.64285
3.7318
3.63998
3.45371
3.20829
3.0425
2.9277
2.8955
3.10365
3.68407
4.47947
5.16723
5.18258
5.0325
4.75594
4.5078
4.34952
4.31773
4.38531
4.53535
4.58514
4.48803
4.32782
4.17451
4.01402
3.85276
3.69449
3.53171
3.35506
3.16894
3.007
2.89026
2.79997
2.72172
2.64503
2.56032
2.46872
2.37309
2.26828
2.16723
2.09697
2.03724
1.96878
1.90311
1.84409
1.78139
1.73055
1.69722
1.66964
1.64204
1.60077
1.54406
1.48431
1.42662
1.41281
1.40346
1.3858
1.37598
1.37957
1.38083
1.37191
1.35873
1.32035
2.98354
2.85819
2.69952
2.59442
2.51142
2.41692
2.42464
2.52062
2.8879
3.36986
3.6208
3.6807
3.59563
3.43375
3.27403
3.42632
3.98244
4.90809
5.51582
5.58114
5.50311
5.30557
5.09164
4.88212
4.74309
4.73664
4.83291
4.9178
4.92475
4.81855
4.63058
4.44064
4.26425
4.09908
3.94609
3.79623
3.63616
3.45586
3.25626
3.07281
2.94333
2.84943
2.77193
2.70069
2.62099
2.52924
2.42944
2.32233
2.21963
2.1393
2.06714
1.98909
1.92473
1.87806
1.82741
1.76324
1.70214
1.65608
1.61848
1.58103
1.54229
1.49113
1.41987
1.38373
1.3744
1.35617
1.33537
1.32683
1.32151
1.30836
1.29261
1.25599
3.11687
2.98082
2.81151
2.73364
2.65609
2.52852
2.43827
2.44209
2.53232
2.87224
3.34372
3.53904
3.64563
3.85572
4.44232
5.34232
6.26945
6.69525
6.51226
6.0553
5.56923
5.24088
5.08361
5.04518
5.10539
5.28982
5.46486
5.42093
5.24697
4.99175
4.73419
4.51296
4.32122
4.14929
3.99619
3.85225
3.70423
3.54052
3.35037
3.15483
3.00854
2.90537
2.82213
2.75262
2.67777
2.5872
2.485
2.37069
2.25063
2.16047
2.09741
2.03472
1.97257
1.91805
1.86696
1.81016
1.74871
1.69434
1.64145
1.58925
1.55119
1.51344
1.44095
1.36864
1.34743
1.33219
1.31419
1.30501
1.29757
1.2797
1.26035
1.21483
3.30857
3.16103
2.94996
2.83502
2.77316
2.66763
2.54979
2.47391
2.46886
2.53869
2.89121
3.34206
4.26076
5.65597
6.85951
7.23304
7.15352
6.93387
6.59139
6.22494
5.80361
5.43663
5.36514
5.47138
5.67589
5.92053
5.93484
5.77407
5.46658
5.13591
4.83832
4.58819
4.37824
4.19499
4.03501
3.88922
3.74647
3.59933
3.4231
3.223
3.06696
2.95923
2.86547
2.78875
2.71903
2.63655
2.5381
2.42315
2.29689
2.19063
2.11778
2.05356
1.98776
1.92539
1.86722
1.82067
1.7891
1.75156
1.69866
1.63518
1.57177
1.50406
1.42538
1.3594
1.33476
1.31866
1.30231
1.29385
1.28612
1.26773
1.2476
1.19944
3.30595
3.25661
3.13153
2.97798
2.87467
2.77047
2.64911
2.54664
2.50258
2.57219
2.9913
4.25968
6.10868
7.49998
8.18304
8.04868
7.54448
6.97305
6.55686
6.32015
6.0703
5.89294
5.95806
6.10603
6.30846
6.32994
6.19961
5.92107
5.57007
5.22786
4.92801
4.67424
4.45617
4.26537
4.09741
3.94019
3.77862
3.61179
3.44879
3.28033
3.11519
2.99756
2.90215
2.81735
2.73981
2.65222
2.55773
2.46392
2.3562
2.24113
2.15207
2.08445
2.02118
1.95825
1.89827
1.83682
1.77717
1.7387
1.7064
1.66305
1.60164
1.52174
1.429
1.37413
1.35259
1.33186
1.30765
1.29352
1.28688
1.27757
1.26012
1.20277
3.23773
3.28479
3.24881
3.15839
3.02963
2.90649
2.75645
2.69339
2.85793
3.47649
4.65096
5.80265
6.55688
7.26118
7.83028
7.89509
7.72944
7.23052
6.79895
6.60253
6.54747
6.5617
6.68806
6.74251
6.69705
6.52065
6.25407
5.93521
5.60035
5.27972
4.99109
4.7521
4.54957
4.36696
4.19658
4.03153
3.86497
3.69468
3.50241
3.30289
3.19087
3.10344
3.00844
2.91818
2.83854
2.74756
2.63838
2.52608
2.40446
2.2804
2.18231
2.10984
2.04105
1.96879
1.90361
1.84688
1.79586
1.75373
1.71549
1.67654
1.62855
1.54881
1.4511
1.39759
1.37177
1.34737
1.32752
1.3112
1.29088
1.25957
1.23091
1.16968
2.50057
2.9945
3.16872
3.18499
3.1751
3.14032
3.2236
3.60591
4.56933
5.79784
6.36118
6.44056
6.39151
6.50883
6.78154
7.18448
7.29415
7.26248
7.12645
7.18192
7.20867
7.29645
7.36503
7.23407
6.94093
6.59622
6.24097
5.89911
5.60846
5.34648
5.06628
4.79832
4.57123
4.38528
4.22515
4.06437
3.88834
3.69847
3.51128
3.33983
3.17262
3.04451
2.94782
2.85939
2.78171
2.71156
2.63401
2.53881
2.42786
2.31305
2.21429
2.13338
2.05847
1.9866
1.92239
1.86631
1.81748
1.77506
1.73566
1.69447
1.64273
1.57172
1.48641
1.41888
1.38149
1.35595
1.337
1.3188
1.29378
1.2622
1.23073
1.16986
1.40319
2.17665
2.82409
3.05358
3.55084
4.17877
4.81724
5.68699
6.34733
6.7433
6.61604
6.31487
5.98391
5.78196
5.91592
6.32424
6.82699
7.29584
7.71057
8.03039
7.9183
7.82129
7.71147
7.4306
7.07703
6.70806
6.33657
5.98645
5.64963
5.30575
4.98745
4.73924
4.56188
4.4138
4.2701
4.11705
3.94505
3.75412
3.55262
3.34362
3.15401
3.02757
2.93461
2.84941
2.76811
2.70143
2.65901
2.60338
2.51
2.39927
2.295
2.20683
2.13001
2.05854
1.99134
1.92978
1.87487
1.8286
1.78855
1.74901
1.7028
1.63776
1.54695
1.46467
1.42198
1.39809
1.37757
1.35449
1.3272
1.29601
1.26459
1.20317
1.03307
1.28876
2.06598
3.35101
4.83729
6.46324
7.85871
8.63456
8.40125
7.73377
6.78574
6.04162
5.68941
5.3919
5.38336
5.59816
6.33394
7.41355
8.16571
8.74293
8.66596
8.38386
7.95564
7.53946
7.16736
6.80268
6.42985
6.04527
5.64829
5.27163
4.9578
4.71045
4.51172
4.35487
4.22764
4.10945
3.98177
3.82482
3.61504
3.357
3.14415
3.02558
2.93769
2.85323
2.77788
2.71127
2.63429
2.54319
2.44644
2.34125
2.23687
2.14358
2.06386
1.99452
1.93348
1.87712
1.8234
1.77435
1.73226
1.69376
1.65059
1.58453
1.49369
1.41824
1.37682
1.35358
1.33546
1.31522
1.29197
1.26463
1.23215
1.16511
)
;

boundaryField
{
    inlet
    {
        type            fixedValue;
        value           uniform 1;
    }
    outlet
    {
        type            zeroGradient;
    }
    bottom
    {
        type            zeroGradient;
    }
    top
    {
        type            zeroGradient;
    }
    obstacle
    {
        type            zeroGradient;
    }
    defaultFaces
    {
        type            empty;
    }
}


// ************************************************************************* //
