/*--------------------------------*- C++ -*----------------------------------*\
  =========                 |
  \\      /  F ield         | OpenFOAM: The Open Source CFD Toolbox
   \\    /   O peration     | Website:  https://openfoam.org
    \\  /    A nd           | Version:  7
     \\/     M anipulation  |
\*---------------------------------------------------------------------------*/
FoamFile
{
    version     2.0;
    format      ascii;
    class       volVectorField;
    location    "2.2";
    object      U;
}
// * * * * * * * * * * * * * * * * * * * * * * * * * * * * * * * * * * * * * //

dimensions      [0 1 -1 0 0 0 0];

internalField   nonuniform List<vector> 
4128
(
(3 5.63067e-17 0)
(3 5.83715e-17 0)
(3 3.47024e-17 0)
(3 1.01501e-16 0)
(3 4.96948e-16 0)
(3 9.95314e-16 0)
(3 6.84556e-16 0)
(3 5.4724e-16 0)
(3 2.73837e-16 0)
(3 -6.0927e-16 0)
(3 -7.86324e-16 0)
(3 -5.44666e-16 0)
(3 -5.57124e-16 0)
(3 -4.86946e-16 0)
(3 -2.48932e-16 0)
(3 -9.70066e-17 0)
(3 4.64082e-18 0)
(2.67157 0.0130938 0)
(0.87902 0.0309131 0)
(0.627403 0.0401686 0)
(0.524201 0.0489848 0)
(0.398215 0.0584847 0)
(0.256138 0.0658311 0)
(0.106864 0.0850331 0)
(3 -2.02058e-17 0)
(3 -3.19944e-17 0)
(3 -1.30072e-16 0)
(3 1.3032e-16 0)
(3 8.47994e-16 0)
(3 1.96249e-15 0)
(3 1.9242e-15 0)
(3 1.60355e-15 0)
(3 4.2594e-16 0)
(3 -5.19994e-16 0)
(3 -8.74074e-16 0)
(3 -3.41889e-16 0)
(3 5.27509e-17 0)
(3 8.52161e-17 0)
(3 -8.40665e-17 0)
(3 -7.90338e-16 0)
(3 -1.82001e-15 0)
(2.7281 0.0689063 0)
(0.893265 0.145586 0)
(0.60998 0.140782 0)
(0.501791 0.15924 0)
(0.376631 0.190349 0)
(0.238238 0.218496 0)
(0.0916071 0.271896 0)
(3 -1.53997e-16 0)
(3 -1.56534e-16 0)
(3 1.31263e-17 0)
(3 4.70606e-16 0)
(3 8.06963e-16 0)
(3 1.21149e-15 0)
(3 1.48661e-15 0)
(3 1.25928e-15 0)
(3 1.15116e-15 0)
(3 9.15596e-16 0)
(3 2.05714e-16 0)
(3 3.30513e-16 0)
(3 3.88411e-16 0)
(3 -2.66737e-17 0)
(3 -7.53986e-16 0)
(3 -2.54188e-15 0)
(3 -2.8971e-15 0)
(2.88648 0.108 0)
(0.987958 0.263979 0)
(0.658927 0.24437 0)
(0.551925 0.273001 0)
(0.438583 0.321196 0)
(0.300934 0.359723 0)
(0.151554 0.456211 0)
(3 1.06027e-16 0)
(3 9.87158e-17 0)
(3 3.98718e-16 0)
(3 6.91775e-16 0)
(3 7.3719e-16 0)
(3 3.08007e-16 0)
(3 3.42927e-16 0)
(3 3.17063e-16 0)
(3 8.3492e-16 0)
(3 1.29571e-15 0)
(3 1.16004e-15 0)
(3 1.06708e-15 0)
(3 8.55275e-16 0)
(3 7.6461e-17 0)
(3 -5.15266e-16 0)
(3 -1.02964e-15 0)
(3 -1.75392e-15 0)
(3.02464 0.0130301 0)
(1.17626 0.3459 0)
(0.752066 0.327736 0)
(0.649105 0.363951 0)
(0.543932 0.435262 0)
(0.360474 0.546132 0)
(0.19959 0.763154 0)
(3 3.49292e-17 0)
(3 -5.48609e-19 0)
(3 5.42765e-17 0)
(3 -2.44366e-17 0)
(3 -1.94336e-16 0)
(3 -2.99126e-16 0)
(3 -8.29222e-16 0)
(3 -1.46378e-15 0)
(3 -1.45276e-15 0)
(3 -4.08307e-16 0)
(3 8.43228e-16 0)
(3 4.88263e-16 0)
(3 3.0466e-16 0)
(3 4.91446e-17 0)
(3 -9.07069e-17 0)
(3 6.80182e-17 0)
(3 -1.40019e-15 0)
(3.00179 8.32396e-06 0)
(1.46573 0.403231 0)
(0.806273 0.428864 0)
(0.692605 0.471369 0)
(0.612481 0.578851 0)
(0.559093 0.758967 0)
(0.66245 1.04488 0)
(3 -1.54651e-18 0)
(3 -8.27996e-17 0)
(3 -2.73589e-16 0)
(3 -5.41419e-16 0)
(3 -4.33429e-16 0)
(3 -4.76875e-16 0)
(3 -5.77337e-16 0)
(3 -3.55266e-16 0)
(3 -5.03793e-16 0)
(3 -6.90748e-16 0)
(3 -1.96114e-16 0)
(3 3.53368e-17 0)
(3 -3.93971e-16 0)
(3 -6.3134e-16 0)
(3 -8.7357e-16 0)
(3 -2.5909e-16 0)
(3 -6.97543e-16 0)
(3.00001 -4.34282e-07 0)
(1.98843 0.450648 0)
(0.894043 0.544576 0)
(0.762598 0.556426 0)
(0.735753 0.655476 0)
(0.777916 0.786767 0)
(1.00322 0.925478 0)
(3 -6.91732e-18 0)
(3 5.29189e-17 0)
(3 1.81128e-16 0)
(3 5.59686e-16 0)
(3 6.77103e-16 0)
(3 5.09479e-16 0)
(3 5.00498e-16 0)
(3 1.10667e-15 0)
(3 1.27152e-15 0)
(3 9.5479e-16 0)
(3 4.02781e-17 0)
(3 -5.5769e-17 0)
(3 -4.2804e-16 0)
(3 -1.38888e-15 0)
(3 -1.85535e-15 0)
(3 -1.23044e-15 0)
(3 1.02928e-15 0)
(3 -4.9195e-07 0)
(2.79572 0.279854 0)
(1.11257 0.640545 0)
(0.896228 0.602273 0)
(0.88457 0.695027 0)
(0.965153 0.808185 0)
(1.21411 0.89702 0)
(3 -7.33801e-17 0)
(3 -5.51452e-17 0)
(3 1.65465e-16 0)
(3 7.2656e-16 0)
(3 1.03007e-15 0)
(3 8.91221e-16 0)
(3 7.73879e-16 0)
(3 7.13835e-16 0)
(3 8.7717e-16 0)
(3 3.75971e-16 0)
(3 -4.6813e-16 0)
(3 -6.17461e-16 0)
(3 -4.94593e-16 0)
(3 -2.81575e-16 0)
(3 -2.05036e-16 0)
(3 7.29954e-16 0)
(3 1.26519e-15 0)
(3 -1.02832e-07 0)
(3.06756 0.019133 0)
(1.50937 0.654584 0)
(1.01452 0.712213 0)
(1.02163 0.728031 0)
(1.09149 0.789623 0)
(1.29839 0.841991 0)
(3 -4.69806e-17 0)
(3 -7.2873e-17 0)
(3 -1.45383e-16 0)
(3 -3.46981e-16 0)
(3 -1.79852e-16 0)
(3 1.67921e-16 0)
(3 3.83557e-16 0)
(3 3.30134e-16 0)
(3 -3.07714e-16 0)
(3 -3.87971e-16 0)
(3 -2.13752e-16 0)
(3 -4.48607e-16 0)
(3 -1.97072e-16 0)
(3 8.16456e-16 0)
(3 1.25876e-15 0)
(3 5.71076e-16 0)
(3 4.26285e-16 0)
(3 -1.05071e-08 0)
(3.00293 0.000105234 0)
(2.23223 0.574256 0)
(1.15703 0.805627 0)
(1.10736 0.7973 0)
(1.19653 0.815178 0)
(1.35995 0.829247 0)
(3 -2.65174e-16 0)
(3 -2.33387e-16 0)
(3 -7.18609e-16 0)
(3 -9.7632e-16 0)
(3 -1.11646e-15 0)
(3 -1.92421e-16 0)
(3 2.43654e-16 0)
(3 1.65024e-17 0)
(3 -4.6394e-16 0)
(3 -1.26224e-16 0)
(3 1.14256e-16 0)
(3 1.03708e-17 0)
(3 -2.46103e-16 0)
(3 -2.27649e-16 0)
(3 3.71949e-17 0)
(3 -3.28528e-16 0)
(3 -9.03962e-16 0)
(3 -3.32721e-10 0)
(3.00001 -6.79981e-08 0)
(3.04419 0.12161 0)
(1.55546 0.818417 0)
(1.2084 0.791717 0)
(1.30114 0.802875 0)
(1.42195 0.810091 0)
(3 8.15887e-18 0)
(3 -1.92939e-16 0)
(3 -3.26083e-16 0)
(3 -3.66894e-16 0)
(3 -5.10626e-16 0)
(3 -1.75911e-16 0)
(3 -1.21803e-16 0)
(3 -9.23595e-16 0)
(3 -1.58979e-15 0)
(3 -1.14536e-15 0)
(3 -5.68646e-16 0)
(3 -1.35965e-16 0)
(3 -9.14756e-17 0)
(3 -2.44028e-16 0)
(3 -7.68545e-17 0)
(3 -3.89006e-16 0)
(3 -7.63224e-16 0)
(3 -7.95206e-13 0)
(3 -3.88293e-07 0)
(3.01446 0.00306731 0)
(2.27202 0.648308 0)
(1.33834 0.872316 0)
(1.34519 0.862154 0)
(1.4561 0.84757 0)
(3 4.21217e-16 0)
(3 7.75003e-17 0)
(3 -1.07966e-17 0)
(3 -1.07401e-16 0)
(3 -2.2804e-16 0)
(3 -2.40639e-16 0)
(3 -5.09889e-16 0)
(3 -7.83784e-16 0)
(3 -7.11371e-16 0)
(3 -1.29813e-15 0)
(3 -1.51596e-15 0)
(3 -2.96157e-16 0)
(3 1.86893e-16 0)
(3 8.77753e-16 0)
(3 1.18228e-15 0)
(3 8.80611e-16 0)
(3 3.02913e-16 0)
(3 -8.1725e-16 0)
(3 -8.17964e-08 0)
(3.00008 3.81129e-05 0)
(3.01541 0.130411 0)
(1.76476 0.853411 0)
(1.39782 0.870972 0)
(1.51125 0.854189 0)
(3 -5.89405e-17 0)
(3 -1.80038e-16 0)
(3 -2.00272e-16 0)
(3 -7.26076e-16 0)
(3 -8.94325e-16 0)
(3 -6.74912e-16 0)
(3 -6.02834e-16 0)
(3 4.90803e-16 0)
(3 1.6336e-15 0)
(3 4.69509e-16 0)
(3 1.39023e-16 0)
(3 2.50096e-19 0)
(3 8.47677e-17 0)
(3 9.97035e-16 0)
(3 1.01331e-15 0)
(3 1.21709e-15 0)
(3 8.63454e-16 0)
(3 6.57382e-16 0)
(3 -8.24308e-09 0)
(3 7.06739e-09 0)
(3.00816 0.0058728 0)
(2.60691 0.542239 0)
(1.56877 0.916425 0)
(1.54723 0.912037 0)
(3 -3.92662e-16 0)
(3 -3.97047e-16 0)
(3 -6.95017e-19 0)
(3 -2.20286e-16 0)
(3 5.02055e-17 0)
(3 3.15664e-17 0)
(3 6.16745e-16 0)
(3 1.53779e-15 0)
(3 1.79435e-15 0)
(3 2.27423e-15 0)
(3 2.12382e-15 0)
(3 1.98145e-15 0)
(3 1.46445e-15 0)
(3 4.5304e-16 0)
(3 2.06352e-16 0)
(3 6.14377e-17 0)
(3 3.54034e-16 0)
(3 4.25475e-16 0)
(3 -1.30058e-10 0)
(3 -5.1827e-10 0)
(3.00003 7.48527e-05 0)
(3.0265 0.0616983 0)
(2.11389 0.759287 0)
(1.63524 0.917026 0)
(3 -2.22296e-16 0)
(3 -1.53414e-16 0)
(3 8.89171e-17 0)
(3 6.78973e-16 0)
(3 8.45959e-16 0)
(3 5.90948e-16 0)
(3 4.95408e-16 0)
(3 9.15003e-16 0)
(3 7.74438e-16 0)
(3 6.89529e-16 0)
(3 1.90726e-16 0)
(3 2.0148e-16 0)
(3 2.00359e-16 0)
(3 -2.30242e-16 0)
(3 -2.609e-16 0)
(3 -7.17867e-16 0)
(3 -7.02394e-16 0)
(3 5.18319e-16 0)
(3 -6.85381e-13 0)
(3 -1.16387e-10 0)
(3 6.54344e-08 0)
(3.00136 0.00288549 0)
(2.85741 0.263332 0)
(1.95346 0.852357 0)
(3 8.41372e-17 0)
(3 4.18212e-16 0)
(3 -3.04261e-17 0)
(3 2.2737e-16 0)
(3 3.73989e-16 0)
(3 2.23454e-16 0)
(3 -1.33354e-16 0)
(3 -4.99545e-16 0)
(3 -1.7433e-16 0)
(3 -6.6538e-16 0)
(3 -9.76335e-16 0)
(3 -1.2669e-15 0)
(3 -1.18662e-15 0)
(3 -7.87915e-16 0)
(3 -8.24595e-16 0)
(3 -4.1709e-16 0)
(3 -2.49917e-17 0)
(3 1.14036e-15 0)
(3 -4.62171e-16 0)
(3 -1.08506e-11 0)
(3 7.28536e-12 0)
(3 1.50882e-05 0)
(3.00118 0.019829 0)
(2.62117 0.472323 0)
(3 1.53236e-16 0)
(3 4.23165e-16 0)
(3 3.01719e-16 0)
(3 3.38111e-16 0)
(3 4.77674e-16 0)
(3 3.38997e-16 0)
(3 4.17257e-16 0)
(3 1.87743e-16 0)
(3 -2.52747e-18 0)
(3 -5.94737e-16 0)
(3 -7.97066e-16 0)
(3 -1.3564e-15 0)
(3 -8.01511e-16 0)
(3 -6.91303e-16 0)
(3 -1.05018e-15 0)
(3 -3.63708e-16 0)
(3 3.17127e-16 0)
(3 3.22198e-16 0)
(3 -4.54731e-16 0)
(3 -4.48863e-13 0)
(3 -4.4742e-13 0)
(3 1.16183e-08 0)
(2.99996 0.000414034 0)
(2.98078 0.0616263 0)
(3 1.91452e-16 0)
(3 -1.21355e-16 0)
(3 -8.9543e-17 0)
(3 3.79734e-16 0)
(3 3.58989e-16 0)
(3 1.50529e-16 0)
(3 3.61141e-17 0)
(3 1.18756e-16 0)
(3 -1.60401e-16 0)
(3 -1.76615e-16 0)
(3 -2.96719e-16 0)
(3 8.12843e-17 0)
(3 -2.79383e-16 0)
(3 -4.51558e-16 0)
(3 -7.07204e-16 0)
(3 -1.35879e-15 0)
(3 -1.46742e-15 0)
(3 -1.39641e-15 0)
(3 -9.92002e-16 0)
(3 -5.22297e-15 0)
(3 -1.43459e-13 0)
(3 3.71644e-12 0)
(3 9.08276e-07 0)
(2.9996 0.00240051 0)
(3 1.63567e-16 0)
(3 -1.04816e-16 0)
(3 -3.19267e-16 0)
(3 -1.25118e-16 0)
(3 -1.92557e-16 0)
(3 -2.84739e-16 0)
(3 -5.44748e-16 0)
(3 -7.01534e-16 0)
(3 -8.19903e-16 0)
(3 -9.71948e-17 0)
(3 4.47445e-16 0)
(3 7.45737e-16 0)
(3 2.71465e-17 0)
(3 -2.11201e-16 0)
(3 -2.30297e-16 0)
(3 -8.14899e-16 0)
(3 -1.28938e-15 0)
(3 -1.28431e-15 0)
(3 -3.56829e-16 0)
(3 -7.80945e-16 0)
(3 -1.99652e-14 0)
(3 -1.95682e-14 0)
(3 7.27673e-10 0)
(3 1.19071e-05 0)
(3 7.64021e-17 0)
(3 1.96466e-16 0)
(3 4.05672e-16 0)
(3 -1.03721e-16 0)
(3 6.51513e-17 0)
(3 2.98948e-16 0)
(3 2.05727e-16 0)
(3 -2.3434e-16 0)
(3 -2.42931e-16 0)
(3 1.71256e-16 0)
(3 2.65823e-16 0)
(3 2.13842e-17 0)
(3 1.05131e-16 0)
(3 -4.39198e-16 0)
(3 -3.32932e-16 0)
(3 -3.83913e-16 0)
(3 -1.10752e-15 0)
(3 -9.58914e-16 0)
(3 -5.7719e-16 0)
(3 -1.05817e-15 0)
(3 -1.9462e-15 0)
(3 -8.23831e-15 0)
(3 9.80324e-14 0)
(3 1.4835e-08 0)
(3 -1.43037e-16 0)
(3 -3.75121e-16 0)
(3 -2.43324e-16 0)
(3 -5.36023e-16 0)
(3 -3.47866e-16 0)
(3 2.59696e-16 0)
(3 8.16731e-16 0)
(3 4.78079e-16 0)
(3 6.35455e-16 0)
(3 4.75979e-16 0)
(3 1.97247e-16 0)
(3 -2.66544e-16 0)
(3 -5.76104e-16 0)
(3 -1.03811e-15 0)
(3 -1.23245e-15 0)
(3 -9.17582e-16 0)
(3 -1.23414e-15 0)
(3 -1.5481e-15 0)
(3 -1.26036e-15 0)
(3 -1.49041e-15 0)
(3 -1.13395e-15 0)
(3 -2.76852e-15 0)
(3 -1.20175e-15 0)
(3 4.52303e-12 0)
(3 -3.1311e-16 0)
(3 -6.53607e-16 0)
(3 -1.34611e-15 0)
(3 -1.33399e-15 0)
(3 -1.26601e-15 0)
(3 -9.71615e-16 0)
(3 -4.08631e-16 0)
(3 2.00797e-16 0)
(3 1.16109e-16 0)
(3 5.66663e-17 0)
(3 -5.98872e-19 0)
(3 -4.77165e-17 0)
(3 -4.49243e-16 0)
(3 -7.11772e-16 0)
(3 -8.13448e-16 0)
(3 -7.57674e-16 0)
(3 -8.6414e-16 0)
(3 -1.58895e-15 0)
(3 -1.73854e-15 0)
(3 -2.17814e-15 0)
(3 -1.80746e-15 0)
(3 -1.16939e-15 0)
(3 -1.11148e-15 0)
(3 1.45982e-15 0)
(3 -3.86557e-18 0)
(3 1.51103e-16 0)
(3 -1.20763e-16 0)
(3 -3.68636e-16 0)
(3 -3.30125e-16 0)
(3 -5.01161e-16 0)
(3 -5.58211e-16 0)
(3 2.64546e-17 0)
(3 -1.82606e-16 0)
(3 -6.72665e-16 0)
(3 -7.40732e-16 0)
(3 -2.51094e-16 0)
(3 8.66772e-17 0)
(3 5.33987e-16 0)
(3 3.76873e-16 0)
(3 4.51892e-17 0)
(3 -2.64446e-16 0)
(3 -1.0925e-15 0)
(3 -2.09027e-15 0)
(3 -1.39946e-15 0)
(3 -3.76231e-16 0)
(3 3.14644e-16 0)
(3 -4.70679e-16 0)
(3 -1.37672e-15 0)
(3 5.66201e-17 0)
(3 3.64498e-16 0)
(3 6.51701e-16 0)
(3 2.68754e-16 0)
(3 -1.15012e-16 0)
(3 -1.7904e-16 0)
(3 -2.52604e-16 0)
(3 1.3128e-16 0)
(3 3.59886e-16 0)
(3 3.39505e-17 0)
(3 -5.33258e-16 0)
(3 -5.62657e-16 0)
(3 2.07032e-16 0)
(3 6.44605e-16 0)
(3 2.00029e-16 0)
(3 1.33232e-16 0)
(3 -6.92614e-17 0)
(3 -1.21926e-15 0)
(3 -2.14612e-15 0)
(3 -1.18988e-15 0)
(3 1.19812e-15 0)
(3 1.83233e-15 0)
(3 -4.91296e-17 0)
(3 -2.73791e-15 0)
(3 1.53479e-16 0)
(3 -5.34096e-17 0)
(3 -3.04126e-18 0)
(3 2.05517e-17 0)
(3 -3.54263e-16 0)
(3 -6.64831e-17 0)
(3 -2.09689e-16 0)
(3 -4.52182e-17 0)
(3 9.54424e-16 0)
(3 1.43266e-15 0)
(3 1.21296e-15 0)
(3 5.96503e-16 0)
(3 4.83843e-16 0)
(3 4.23034e-16 0)
(3 -1.33342e-16 0)
(3 -4.72154e-16 0)
(3 -6.44971e-16 0)
(3 -6.96576e-16 0)
(3 -1.00122e-15 0)
(3 -2.08866e-16 0)
(3 8.21306e-16 0)
(3 7.19264e-16 0)
(3 -1.08233e-15 0)
(3 -2.09337e-15 0)
(3 -5.23288e-17 0)
(3 -7.68254e-17 0)
(3 -3.00523e-18 0)
(3 2.39551e-16 0)
(3 2.14323e-16 0)
(3 3.56379e-16 0)
(3 9.21297e-17 0)
(3 -7.04947e-16 0)
(3 -1.05528e-15 0)
(3 -4.87226e-16 0)
(3 5.5433e-16 0)
(3 3.62061e-16 0)
(3 -3.13866e-16 0)
(3 -4.65715e-16 0)
(3 -5.87747e-16 0)
(3 -1.07066e-15 0)
(3 -1.02834e-15 0)
(3 -4.51322e-16 0)
(3 -3.12311e-16 0)
(3 3.18594e-16 0)
(3 5.27976e-16 0)
(3 9.5951e-17 0)
(3 -1.12085e-15 0)
(3 -1.41564e-15 0)
(3 -6.79537e-17 0)
(3 -3.62037e-16 0)
(3 -1.19665e-16 0)
(3 2.43152e-16 0)
(3 3.21975e-16 0)
(3 1.27497e-16 0)
(3 5.09845e-16 0)
(3 -9.69579e-17 0)
(3 -9.48204e-16 0)
(3 -1.0011e-15 0)
(3 -4.55301e-16 0)
(3 -2.0988e-16 0)
(3 -4.75282e-16 0)
(3 -7.50045e-16 0)
(3 -6.38412e-16 0)
(3 -1.1968e-15 0)
(3 -7.39841e-16 0)
(3 -5.0524e-16 0)
(3 -6.25894e-17 0)
(3 -3.19045e-16 0)
(3 -1.23556e-15 0)
(3 -4.58472e-16 0)
(3 2.30235e-16 0)
(3 3.84032e-16 0)
(3 -2.15439e-17 0)
(3 -2.91701e-16 0)
(3 -3.3372e-17 0)
(3 5.58456e-16 0)
(3 1.04204e-15 0)
(3 5.98063e-16 0)
(3 6.17178e-16 0)
(3 9.36392e-16 0)
(3 8.89442e-16 0)
(3 4.59652e-16 0)
(3 -3.45126e-17 0)
(3 -9.87535e-17 0)
(3 -3.73526e-16 0)
(3 -2.52114e-16 0)
(3 -1.44253e-17 0)
(3 -4.76759e-17 0)
(3 -4.61496e-16 0)
(3 -5.21619e-16 0)
(3 -6.80286e-16 0)
(3 -6.36178e-16 0)
(3 -1.26959e-15 0)
(3 -1.40955e-15 0)
(3 -1.93163e-16 0)
(3 9.74256e-17 0)
(3 1.39572e-16 0)
(3 5.96337e-16 0)
(3 5.93912e-16 0)
(3 6.36267e-16 0)
(3 6.4994e-16 0)
(3 8.30594e-16 0)
(3 5.59835e-16 0)
(3 7.31952e-16 0)
(3 7.0008e-16 0)
(3 4.73339e-16 0)
(3 9.3092e-17 0)
(3 -2.66583e-16 0)
(3 -1.59789e-16 0)
(3 2.72449e-17 0)
(3 9.83917e-17 0)
(3 1.90872e-16 0)
(3 -1.26421e-16 0)
(3 2.72604e-17 0)
(3 1.9804e-16 0)
(3 -4.18243e-17 0)
(3 -3.1494e-16 0)
(3 -5.53103e-16 0)
(3 -2.03441e-16 0)
(3 5.80056e-16 0)
(3 2.88044e-16 0)
(3 4.13244e-16 0)
(3 2.02915e-16 0)
(3 -7.92303e-19 0)
(3 6.7575e-17 0)
(3 7.58604e-16 0)
(3 5.21247e-16 0)
(3 4.0536e-16 0)
(3 2.11826e-16 0)
(3 7.65973e-17 0)
(3 2.01418e-16 0)
(3 -4.77802e-16 0)
(3 -2.57037e-16 0)
(3 -2.60078e-16 0)
(3 2.35094e-17 0)
(3 6.03503e-16 0)
(3 1.45825e-15 0)
(3 1.67929e-15 0)
(3 2.00921e-15 0)
(3 1.40048e-15 0)
(3 1.07534e-15 0)
(3 8.02806e-16 0)
(3 1.25455e-15 0)
(3 1.66435e-15 0)
(3 -1.05736e-16 0)
(3 -5.49613e-16 0)
(3 -3.39318e-16 0)
(3 -2.99295e-16 0)
(3 -2.22304e-17 0)
(3 1.45041e-16 0)
(3 3.53841e-16 0)
(3 3.60719e-16 0)
(3 6.07193e-16 0)
(3 4.69274e-16 0)
(3 4.94419e-16 0)
(3 -2.59555e-16 0)
(3 -8.03771e-16 0)
(3 -7.34358e-16 0)
(3 -2.91384e-16 0)
(3 3.75553e-16 0)
(3 1.0629e-15 0)
(3 1.26061e-15 0)
(3 1.17788e-15 0)
(3 9.97245e-16 0)
(3 8.1214e-16 0)
(3 1.55835e-15 0)
(3 1.64637e-15 0)
(3 1.43249e-15 0)
(3 -2.92022e-16 0)
(3 -3.5685e-16 0)
(3 -2.06171e-16 0)
(3 1.55104e-17 0)
(3 -3.38456e-16 0)
(3 -2.831e-16 0)
(3 1.76295e-16 0)
(3 3.17798e-16 0)
(3 4.29106e-16 0)
(3 8.72725e-16 0)
(3 6.53388e-16 0)
(3 3.55478e-16 0)
(3 -7.20472e-17 0)
(3 1.99078e-16 0)
(3 4.43713e-16 0)
(3 2.51126e-16 0)
(3 8.38498e-16 0)
(3 9.97655e-16 0)
(3 6.02253e-16 0)
(3 4.48451e-16 0)
(3 8.42137e-16 0)
(3 1.64232e-15 0)
(3 1.11956e-15 0)
(3 9.44198e-16 0)
(3 1.64373e-16 0)
(3 5.4018e-16 0)
(3 3.70861e-16 0)
(3 1.40053e-17 0)
(3 -2.16006e-17 0)
(3 8.72606e-17 0)
(3 -1.08881e-16 0)
(3 -2.54416e-16 0)
(3 -3.63159e-16 0)
(3 -7.07397e-16 0)
(3 -5.72398e-16 0)
(3 -2.04193e-16 0)
(3 1.11506e-16 0)
(3 6.15023e-16 0)
(3 6.37677e-16 0)
(3 5.02391e-16 0)
(3 7.33443e-16 0)
(3 7.78911e-16 0)
(3 7.50004e-16 0)
(3 3.85885e-16 0)
(3 3.952e-16 0)
(3 1.28721e-16 0)
(3 7.56219e-16 0)
(3 1.0965e-15 0)
(3 1.93119e-16 0)
(3 6.40482e-16 0)
(3 6.32502e-16 0)
(3 1.83893e-16 0)
(3 -1.46483e-16 0)
(3 -1.15698e-16 0)
(3 -9.00667e-16 0)
(3 -1.29015e-15 0)
(3 -1.39851e-15 0)
(3 -1.6764e-15 0)
(3 -1.81044e-15 0)
(3 -1.41234e-15 0)
(3 -1.04635e-15 0)
(3 -6.31505e-16 0)
(3 2.83977e-16 0)
(3 1.46166e-15 0)
(3 1.21998e-15 0)
(3 7.62603e-16 0)
(3 1.73197e-16 0)
(3 1.7169e-16 0)
(3 6.83206e-17 0)
(3 -7.48742e-16 0)
(3 -7.80734e-16 0)
(3 -3.671e-16 0)
(3 -3.63579e-16 0)
(3 -3.92427e-16 0)
(3 -1.31163e-16 0)
(3 2.40581e-16 0)
(3 -1.79872e-17 0)
(3 -6.71027e-16 0)
(3 -1.21684e-15 0)
(3 -1.34477e-15 0)
(3 -1.98195e-15 0)
(3 -2.1989e-15 0)
(3 -1.83799e-15 0)
(3 -8.87047e-16 0)
(3 -3.9318e-16 0)
(3 -1.85706e-16 0)
(3 3.83691e-16 0)
(3 1.05516e-15 0)
(3 1.40223e-15 0)
(3 1.26325e-15 0)
(3 4.37531e-16 0)
(3 2.34006e-16 0)
(3 5.26709e-16 0)
(3 3.34291e-16 0)
(3 -5.61329e-16 0)
(3 -4.28882e-16 0)
(3 -1.67585e-16 0)
(3 -1.8851e-16 0)
(3 -1.33569e-16 0)
(3 -5.61941e-17 0)
(3 -1.73001e-16 0)
(3 -8.47381e-16 0)
(3 -6.91424e-16 0)
(3 -5.8689e-16 0)
(3 -5.40653e-16 0)
(3 -4.82252e-16 0)
(3 -8.13142e-17 0)
(3 6.59673e-16 0)
(3 8.59474e-16 0)
(3 8.03763e-16 0)
(3 5.73782e-16 0)
(3 4.70554e-16 0)
(3 7.42304e-16 0)
(3 1.09582e-15 0)
(3 1.16961e-15 0)
(3 4.3487e-16 0)
(3 2.19925e-16 0)
(3 8.70841e-16 0)
(3 1.34021e-15 0)
(3 5.58522e-16 0)
(3 1.52783e-16 0)
(3 5.16245e-16 0)
(3 2.23032e-16 0)
(3 8.43799e-17 0)
(3 -3.31967e-16 0)
(3 -7.99123e-16 0)
(3 -4.7441e-16 0)
(3 -7.99482e-17 0)
(3 2.21893e-16 0)
(3 1.28734e-15 0)
(3 1.72762e-15 0)
(3 2.08187e-15 0)
(3 1.91995e-15 0)
(3 2.09754e-15 0)
(3 2.05068e-15 0)
(3 9.48183e-16 0)
(3 -5.56475e-17 0)
(3 2.00983e-16 0)
(3 8.50699e-16 0)
(3 1.34776e-15 0)
(3 1.07902e-15 0)
(3 6.21341e-16 0)
(3 5.8829e-16 0)
(3 -3.49123e-16 0)
(3 7.20198e-17 0)
(3 6.84808e-16 0)
(3 5.25013e-16 0)
(3 5.95525e-16 0)
(3 5.21173e-16 0)
(3 9.82882e-16 0)
(3 9.55647e-16 0)
(3 6.94716e-16 0)
(3 5.96336e-16 0)
(3 1.2347e-15 0)
(3 9.36688e-16 0)
(3 9.56419e-16 0)
(3 8.85391e-16 0)
(3 9.53159e-16 0)
(3 8.02631e-16 0)
(3 3.19284e-16 0)
(3 3.034e-17 0)
(3 2.39719e-16 0)
(3 8.54534e-16 0)
(3 1.15594e-15 0)
(3 9.63222e-16 0)
(3 -1.51009e-16 0)
(3 -2.77398e-16 0)
(3 2.28568e-16 0)
(3 8.61597e-18 0)
(3 -2.66044e-16 0)
(3 -3.47685e-16 0)
(3 -5.1025e-16 0)
(3 -2.36911e-16 0)
(3 8.44167e-16 0)
(3 1.63109e-15 0)
(3 2.46328e-15 0)
(3 2.35633e-15 0)
(3 1.25962e-15 0)
(3 6.54616e-16 0)
(3 1.83517e-16 0)
(3 2.30135e-16 0)
(3 1.72846e-16 0)
(3 -8.00552e-18 0)
(3 6.89197e-17 0)
(3 9.42312e-16 0)
(3 9.55e-16 0)
(3 9.24537e-16 0)
(3 3.63428e-16 0)
(3 -6.90905e-16 0)
(3 -8.87919e-16 0)
(3 -5.84392e-17 0)
(3 1.26024e-15 0)
(3 -3.36662e-17 0)
(3 -4.5244e-16 0)
(3 -5.84712e-16 0)
(3 -8.53254e-16 0)
(3 -7.24992e-16 0)
(3 -1.50975e-16 0)
(3 1.87611e-16 0)
(3 1.02679e-15 0)
(3 1.0586e-15 0)
(3 5.11464e-16 0)
(3 4.76271e-16 0)
(3 3.38476e-16 0)
(3 7.41808e-16 0)
(3 7.92267e-16 0)
(3 6.1717e-16 0)
(3 5.00729e-16 0)
(3 9.5289e-16 0)
(3 1.37494e-15 0)
(3 8.50454e-16 0)
(3 6.7336e-16 0)
(3 4.38275e-16 0)
(3 1.08529e-16 0)
(3 5.36598e-16 0)
(3 6.1118e-16 0)
(1.6124 1.05361 0)
(2.15958 1.23186 0)
(2.42691 0.962716 0)
(2.50921 0.602369 0)
(2.54216 0.153947 0)
(2.59117 -0.0498913 0)
(2.54746 -0.163471 0)
(2.43668 -0.228942 0)
(2.42282 -0.197542 0)
(2.4051 -0.141354 0)
(2.39079 -0.126947 0)
(2.38738 -0.0903036 0)
(2.39722 -0.0506658 0)
(2.40624 -0.0330361 0)
(2.06331 0.0122347 0)
(0.989514 0.0335225 0)
(0.778906 0.0426811 0)
(0.664968 0.04225 0)
(0.562095 0.0408974 0)
(0.47701 0.0397277 0)
(0.395499 0.0390485 0)
(0.303453 0.0431973 0)
(0.190265 0.0504949 0)
(0.0719982 0.0640925 0)
(1.73082 0.836917 0)
(2.17375 0.600932 0)
(2.37625 0.335332 0)
(2.53207 -0.0934846 0)
(2.56069 -0.309997 0)
(2.61545 -0.369109 0)
(2.58215 -0.42232 0)
(2.56201 -0.391737 0)
(2.52741 -0.329974 0)
(2.46829 -0.218346 0)
(2.44039 -0.139731 0)
(2.42008 -0.0960958 0)
(2.42416 -0.0494462 0)
(2.43678 -0.0309597 0)
(2.17937 0.100465 0)
(1.01711 0.169305 0)
(0.78334 0.14855 0)
(0.680715 0.136456 0)
(0.584569 0.132291 0)
(0.501145 0.130848 0)
(0.4168 0.134166 0)
(0.320716 0.149198 0)
(0.203559 0.174633 0)
(0.0727205 0.215478 0)
(1.64705 0.865003 0)
(2.01598 0.65549 0)
(2.19649 0.523117 0)
(2.34625 0.312132 0)
(2.47011 0.0269945 0)
(2.51855 0.00811508 0)
(2.5351 -0.0792317 0)
(2.58727 -0.210014 0)
(2.61774 -0.244821 0)
(2.60751 -0.238045 0)
(2.56778 -0.243677 0)
(2.53677 -0.219372 0)
(2.53123 -0.163316 0)
(2.51263 -0.0952061 0)
(2.49618 0.0179835 0)
(1.18683 0.255222 0)
(0.874415 0.222789 0)
(0.769594 0.205346 0)
(0.668279 0.2057 0)
(0.580112 0.21386 0)
(0.496146 0.224857 0)
(0.405502 0.249799 0)
(0.28808 0.288083 0)
(0.147246 0.380297 0)
(1.59974 0.813966 0)
(1.84767 0.731241 0)
(2.06662 0.603041 0)
(2.27688 0.370603 0)
(2.38815 0.182495 0)
(2.43684 0.156129 0)
(2.50876 0.050811 0)
(2.58562 -0.174431 0)
(2.62995 -0.255057 0)
(2.67239 -0.250834 0)
(2.65989 -0.27602 0)
(2.64569 -0.275036 0)
(2.62251 -0.24534 0)
(2.60314 -0.17989 0)
(2.64501 -0.157222 0)
(1.51521 0.301691 0)
(0.963939 0.306099 0)
(0.865598 0.281627 0)
(0.77278 0.279543 0)
(0.687395 0.293549 0)
(0.604252 0.307177 0)
(0.5144 0.353656 0)
(0.355422 0.459914 0)
(0.21685 0.678559 0)
(1.5673 0.806339 0)
(1.78098 0.728725 0)
(1.9649 0.646193 0)
(2.10728 0.534485 0)
(2.23919 0.390942 0)
(2.35038 0.290927 0)
(2.45787 0.169043 0)
(2.50723 0.0210336 0)
(2.54195 -0.0299358 0)
(2.5726 -0.0148166 0)
(2.62309 -0.0976958 0)
(2.63884 -0.188168 0)
(2.64285 -0.208059 0)
(2.64119 -0.201066 0)
(2.65056 -0.206421 0)
(2.09657 0.212852 0)
(1.07164 0.367574 0)
(0.939963 0.363927 0)
(0.864883 0.362809 0)
(0.791854 0.383272 0)
(0.716855 0.395918 0)
(0.651976 0.469309 0)
(0.590392 0.631137 0)
(0.710316 0.907803 0)
(1.58267 0.789853 0)
(1.75264 0.737755 0)
(1.8929 0.691137 0)
(2.04071 0.593391 0)
(2.18499 0.446778 0)
(2.2743 0.392635 0)
(2.3307 0.345917 0)
(2.43159 0.187977 0)
(2.49441 0.0629633 0)
(2.54106 0.043035 0)
(2.59508 -0.0350354 0)
(2.62452 -0.161635 0)
(2.63674 -0.180592 0)
(2.64522 -0.206676 0)
(2.66025 -0.224895 0)
(2.66473 -0.123405 0)
(1.32421 0.395096 0)
(1.03263 0.4098 0)
(0.966511 0.408618 0)
(0.910566 0.430348 0)
(0.852014 0.454348 0)
(0.813518 0.531177 0)
(0.842139 0.638006 0)
(1.04936 0.74834 0)
(1.57663 0.827351 0)
(1.71362 0.782087 0)
(1.84655 0.726088 0)
(1.96918 0.652849 0)
(2.07402 0.561176 0)
(2.16294 0.511008 0)
(2.28017 0.417417 0)
(2.37286 0.269222 0)
(2.40637 0.21494 0)
(2.44272 0.206935 0)
(2.52294 0.117648 0)
(2.56802 0.00278301 0)
(2.58727 -0.0570893 0)
(2.6073 -0.0813497 0)
(2.63335 -0.122847 0)
(2.64627 -0.128886 0)
(1.81389 0.372096 0)
(1.0999 0.49563 0)
(1.02174 0.484826 0)
(0.984727 0.506288 0)
(0.957288 0.528099 0)
(0.952516 0.586504 0)
(1.02738 0.657149 0)
(1.24914 0.718934 0)
(1.60325 0.831265 0)
(1.71952 0.784707 0)
(1.83251 0.736006 0)
(1.91558 0.700461 0)
(2.02906 0.612517 0)
(2.1402 0.51784 0)
(2.21191 0.491773 0)
(2.28386 0.404172 0)
(2.34596 0.309886 0)
(2.41163 0.249078 0)
(2.49185 0.164783 0)
(2.51342 0.119871 0)
(2.52288 0.0803872 0)
(2.55862 0.0281318 0)
(2.6137 -0.0581663 0)
(2.64525 -0.122377 0)
(2.53132 0.0760273 0)
(1.32195 0.522519 0)
(1.12642 0.513065 0)
(1.08636 0.520685 0)
(1.06783 0.540033 0)
(1.07451 0.580547 0)
(1.15308 0.622267 0)
(1.33824 0.65595 0)
(1.62816 0.871238 0)
(1.71808 0.828178 0)
(1.80418 0.790731 0)
(1.89573 0.735053 0)
(1.99263 0.656789 0)
(2.0701 0.601755 0)
(2.13881 0.570794 0)
(2.22951 0.484081 0)
(2.29595 0.388844 0)
(2.35136 0.340219 0)
(2.4005 0.304187 0)
(2.43439 0.253855 0)
(2.48792 0.159937 0)
(2.52849 0.0821256 0)
(2.55802 0.0675871 0)
(2.59487 0.00740694 0)
(2.60573 0.010048 0)
(1.80732 0.492543 0)
(1.21758 0.608462 0)
(1.16554 0.597941 0)
(1.15077 0.604686 0)
(1.16706 0.620932 0)
(1.24278 0.643217 0)
(1.39169 0.65006 0)
(1.66365 0.900003 0)
(1.74447 0.854421 0)
(1.82315 0.809547 0)
(1.89721 0.76566 0)
(1.97395 0.703264 0)
(2.05011 0.643252 0)
(2.1221 0.602125 0)
(2.19922 0.538089 0)
(2.25083 0.466691 0)
(2.3018 0.418403 0)
(2.37303 0.354418 0)
(2.41988 0.300238 0)
(2.43958 0.255796 0)
(2.48207 0.181205 0)
(2.51841 0.152661 0)
(2.56787 0.0871873 0)
(2.59536 0.0282803 0)
(2.47234 0.211431 0)
(1.48056 0.631796 0)
(1.27979 0.626491 0)
(1.26402 0.608297 0)
(1.27571 0.613239 0)
(1.33306 0.620298 0)
(1.44439 0.617316 0)
(1.70886 0.928049 0)
(1.75701 0.901202 0)
(1.83466 0.855374 0)
(1.901 0.8136 0)
(1.97297 0.751206 0)
(2.04381 0.691538 0)
(2.1029 0.658361 0)
(2.14803 0.620671 0)
(2.21408 0.543728 0)
(2.28819 0.4547 0)
(2.34082 0.42384 0)
(2.35059 0.410722 0)
(2.40378 0.334672 0)
(2.45564 0.237617 0)
(2.49294 0.224334 0)
(2.51275 0.212104 0)
(2.55602 0.119191 0)
(2.55969 0.119888 0)
(1.99059 0.527708 0)
(1.37894 0.687811 0)
(1.35845 0.677224 0)
(1.37516 0.668417 0)
(1.40955 0.663474 0)
(1.48986 0.644333 0)
(1.91801 0.908279 0)
(1.77438 0.928844 0)
(1.82976 0.899469 0)
(1.9048 0.852721 0)
(1.97875 0.790427 0)
(2.03635 0.74369 0)
(2.08276 0.718934 0)
(2.14264 0.658579 0)
(2.2122 0.569054 0)
(2.26114 0.519118 0)
(2.29101 0.515592 0)
(2.32767 0.468266 0)
(2.39279 0.370054 0)
(2.43194 0.298358 0)
(2.46171 0.302617 0)
(2.47594 0.292829 0)
(2.52939 0.195189 0)
(2.55795 0.140592 0)
(2.4754 0.265849 0)
(1.70244 0.685946 0)
(1.43369 0.726018 0)
(1.46134 0.709977 0)
(1.48921 0.690348 0)
(1.54837 0.66106 0)
(2.46893 0.61058 0)
(1.91431 0.928543 0)
(1.84444 0.930952 0)
(1.89487 0.895339 0)
(1.97029 0.836779 0)
(2.0346 0.784493 0)
(2.0834 0.752616 0)
(2.13156 0.707272 0)
(2.1923 0.633833 0)
(2.24446 0.576707 0)
(2.27853 0.561885 0)
(2.31147 0.523664 0)
(2.36793 0.438783 0)
(2.40756 0.369492 0)
(2.43708 0.372346 0)
(2.45677 0.355164 0)
(2.50236 0.274156 0)
(2.538 0.201328 0)
(2.53666 0.215481 0)
(2.22089 0.515503 0)
(1.59403 0.757702 0)
(1.54687 0.74254 0)
(1.57532 0.706067 0)
(1.61952 0.678128 0)
(2.93512 0.134043 0)
(2.38233 0.689105 0)
(1.93377 0.926228 0)
(1.91614 0.928375 0)
(1.96328 0.884664 0)
(2.02803 0.830681 0)
(2.07262 0.802284 0)
(2.13501 0.742128 0)
(2.19528 0.660799 0)
(2.22917 0.632988 0)
(2.24755 0.634532 0)
(2.29947 0.583499 0)
(2.36389 0.479802 0)
(2.39763 0.417532 0)
(2.42012 0.431701 0)
(2.43221 0.421039 0)
(2.48382 0.345281 0)
(2.51889 0.260754 0)
(2.54819 0.23848 0)
(2.50177 0.311418 0)
(1.95468 0.662368 0)
(1.61467 0.77887 0)
(1.62614 0.757409 0)
(1.67517 0.721828 0)
(2.99813 0.00721164 0)
(2.87732 0.214912 0)
(2.33288 0.72387 0)
(1.98575 0.920644 0)
(1.97236 0.922845 0)
(2.01305 0.886446 0)
(2.07466 0.83747 0)
(2.13976 0.776115 0)
(2.17837 0.72308 0)
(2.20553 0.700852 0)
(2.24612 0.673172 0)
(2.31108 0.608545 0)
(2.35097 0.527329 0)
(2.36587 0.49996 0)
(2.38543 0.51098 0)
(2.43222 0.471054 0)
(2.48369 0.370314 0)
(2.49515 0.328909 0)
(2.53448 0.291937 0)
(2.5314 0.312269 0)
(2.36909 0.465066 0)
(1.87153 0.759359 0)
(1.68004 0.784047 0)
(1.71252 0.762456 0)
(2.99998 6.91772e-05 0)
(2.99509 0.014463 0)
(2.82548 0.274077 0)
(2.32476 0.739181 0)
(2.03015 0.916946 0)
(2.01947 0.920623 0)
(2.06485 0.883122 0)
(2.1227 0.830945 0)
(2.16499 0.782125 0)
(2.21515 0.728377 0)
(2.26199 0.689932 0)
(2.28831 0.667531 0)
(2.3176 0.615971 0)
(2.3598 0.547246 0)
(2.39823 0.520082 0)
(2.42249 0.514035 0)
(2.45796 0.449019 0)
(2.47825 0.384948 0)
(2.50773 0.366708 0)
(2.54418 0.331898 0)
(2.52671 0.348456 0)
(2.25313 0.580395 0)
(1.85038 0.790126 0)
(1.77015 0.805579 0)
(3 1.23668e-07 0)
(2.99992 0.000217998 0)
(2.99137 0.0215564 0)
(2.79023 0.311413 0)
(2.33285 0.744787 0)
(2.07558 0.911166 0)
(2.0694 0.913068 0)
(2.1022 0.881337 0)
(2.16336 0.820853 0)
(2.20945 0.773236 0)
(2.23796 0.756776 0)
(2.28542 0.707234 0)
(2.33388 0.628231 0)
(2.35365 0.591839 0)
(2.36983 0.600911 0)
(2.40501 0.57485 0)
(2.45876 0.483874 0)
(2.47466 0.417628 0)
(2.49111 0.423046 0)
(2.52248 0.416421 0)
(2.54408 0.356216 0)
(2.48746 0.410099 0)
(2.15214 0.663726 0)
(1.86781 0.814599 0)
(3 6.75776e-11 0)
(3 4.9851e-07 0)
(2.99984 0.000438904 0)
(2.98767 0.0271986 0)
(2.77273 0.330624 0)
(2.36144 0.736916 0)
(2.11434 0.9013 0)
(2.10745 0.904801 0)
(2.13557 0.878796 0)
(2.18772 0.829846 0)
(2.25011 0.764656 0)
(2.28246 0.738666 0)
(2.29645 0.712428 0)
(2.3397 0.654939 0)
(2.38075 0.611619 0)
(2.40694 0.596809 0)
(2.43754 0.54315 0)
(2.45737 0.487187 0)
(2.47393 0.486258 0)
(2.51984 0.45251 0)
(2.55024 0.380805 0)
(2.54416 0.381211 0)
(2.43132 0.495277 0)
(2.09937 0.729291 0)
(3 3.36635e-15 0)
(3 3.84319e-10 0)
(3 1.25477e-06 0)
(2.99976 0.000648911 0)
(2.98473 0.0311354 0)
(2.78248 0.324728 0)
(2.3792 0.725101 0)
(2.15824 0.888967 0)
(2.14751 0.894829 0)
(2.17371 0.86908 0)
(2.21641 0.827967 0)
(2.25335 0.795749 0)
(2.3087 0.718518 0)
(2.33991 0.671701 0)
(2.35599 0.679428 0)
(2.37613 0.664129 0)
(2.42755 0.590374 0)
(2.45615 0.51606 0)
(2.47844 0.511873 0)
(2.48694 0.522143 0)
(2.53142 0.453717 0)
(2.54977 0.395786 0)
(2.53742 0.412939 0)
(2.37228 0.577357 0)
(3 -3.87756e-15 0)
(3 4.04543e-14 0)
(3 1.20999e-09 0)
(3 2.23352e-06 0)
(2.99971 0.000753493 0)
(2.98408 0.032296 0)
(2.79652 0.30367 0)
(2.40909 0.703205 0)
(2.20379 0.872047 0)
(2.17967 0.88711 0)
(2.1931 0.869719 0)
(2.23241 0.83472 0)
(2.28128 0.784526 0)
(2.32997 0.721322 0)
(2.35624 0.70397 0)
(2.37775 0.681985 0)
(2.41596 0.624487 0)
(2.4401 0.575073 0)
(2.45806 0.576601 0)
(2.47516 0.562211 0)
(2.51877 0.491448 0)
(2.54132 0.432569 0)
(2.55547 0.430785 0)
(2.52922 0.463785 0)
(3 -3.14355e-15 0)
(3 -3.19658e-15 0)
(3 1.82574e-13 0)
(3 2.28582e-09 0)
(3 2.99763e-06 0)
(2.9997 0.000716476 0)
(2.98411 0.0324563 0)
(2.83464 0.258531 0)
(2.43299 0.688095 0)
(2.22897 0.867001 0)
(2.20877 0.878642 0)
(2.22336 0.866097 0)
(2.27596 0.815792 0)
(2.32047 0.758299 0)
(2.33115 0.760148 0)
(2.36189 0.728508 0)
(2.41072 0.65192 0)
(2.43447 0.603726 0)
(2.45139 0.610463 0)
(2.45572 0.609323 0)
(2.49615 0.555322 0)
(2.52799 0.488547 0)
(2.57695 0.449018 0)
(2.55716 0.457389 0)
(3 -1.55087e-15 0)
(3 -2.019e-15 0)
(3 -2.24662e-15 0)
(3 4.00388e-13 0)
(3 3.21117e-09 0)
(3 2.90757e-06 0)
(2.99969 0.000714503 0)
(2.98962 0.0242713 0)
(2.83906 0.240429 0)
(2.46216 0.666265 0)
(2.29709 0.815444 0)
(2.25019 0.858758 0)
(2.25425 0.856371 0)
(2.27804 0.825787 0)
(2.30112 0.801852 0)
(2.34283 0.764418 0)
(2.39271 0.689076 0)
(2.41386 0.657637 0)
(2.4264 0.666601 0)
(2.45406 0.63597 0)
(2.5017 0.560255 0)
(2.52043 0.516605 0)
(2.54248 0.516587 0)
(2.56094 0.491082 0)
(3 -1.47454e-16 0)
(3 -1.34174e-15 0)
(3 -1.74588e-15 0)
(3 -9.98345e-16 0)
(3 6.31707e-13 0)
(3 3.21288e-09 0)
(3 2.87435e-06 0)
(2.99981 0.000491887 0)
(2.99007 0.0200267 0)
(2.85205 0.219946 0)
(2.58909 0.560836 0)
(2.32169 0.807709 0)
(2.24954 0.871368 0)