/*--------------------------------*- C++ -*----------------------------------*\
  =========                 |
  \\      /  F ield         | OpenFOAM: The Open Source CFD Toolbox
   \\    /   O peration     | Website:  https://openfoam.org
    \\  /    A nd           | Version:  7
     \\/     M anipulation  |
\*---------------------------------------------------------------------------*/
FoamFile
{
    version     2.0;
    format      ascii;
    class       volScalarField;
    location    "4";
    object      p;
}
// * * * * * * * * * * * * * * * * * * * * * * * * * * * * * * * * * * * * * //

dimensions      [1 -1 -2 0 0 0 0];

internalField   nonuniform List<scalar> 
4128
(
1.06327
1.08548
1.09817
1.10957
1.12123
1.1393
1.16711
1.18962
1.20154
1.20986
1.21859
1.23202
1.25632
1.28325
1.29426
1.29941
1.30335
1.30677
1.31126
1.31787
1.32237
1.32591
1.33071
1.34037
1.36078
1.38517
1.39392
1.39465
1.39257
1.38622
1.37956
1.37658
1.37554
1.37653
1.37955
1.38497
1.39513
1.41021
1.42136
1.42263
1.41886
1.40869
1.3942
1.38588
1.38323
1.38259
1.38495
1.38626
1.38498
1.38391
1.38506
1.39034
1.39935
1.40458
1.40151
1.39228
1.37527
1.36247
1.35832
1.35633
1.35908
1.36411
1.36356
1.36114
1.35909
1.35839
1.36062
1.36312
1.36141
1.35659
1.34786
1.33574
1.32682
1.32292
1.32106
1.32137
1.32679
1.33474
1.33932
1.34028
1.3385
1.335
1.32636
1.31528
1.3072
1.30259
1.30057
1.29999
1.30168
1.30594
1.31283
1.31949
1.3204
1.31771
1.31439
1.30854
1.29543
2.56095
4.39774
4.60941
4.7147
4.79713
4.85064
4.88046
4.89744
4.91444
4.93578
4.95097
4.95219
4.94245
4.94354
4.95207
4.96818
4.99247
5.01155
5.01932
5.01959
5.01475
5.00775
5.00136
4.99986
5.00476
5.01134
5.01291
5.00748
4.99565
4.97925
4.9617
4.94602
1.04207
1.06972
1.08802
1.1037
1.11899
1.13493
1.15556
1.17658
1.19226
1.20364
1.2134
1.22524
1.24269
1.26443
1.28269
1.29425
1.30218
1.30894
1.31665
1.32602
1.33212
1.33413
1.33506
1.3381
1.34578
1.35925
1.37429
1.3833
1.38619
1.38588
1.38343
1.38114
1.38102
1.3825
1.3849
1.38715
1.39034
1.39484
1.39966
1.40455
1.40591
1.40326
1.39815
1.3935
1.39142
1.39157
1.39429
1.39586
1.39365
1.38906
1.38514
1.3836
1.38519
1.38885
1.39004
1.38557
1.3782
1.37129
1.36751
1.3661
1.36892
1.37242
1.37066
1.3668
1.36176
1.357
1.35449
1.35288
1.35222
1.34968
1.34475
1.33897
1.33519
1.33225
1.32944
1.32794
1.32907
1.33144
1.33218
1.33129
1.32937
1.3257
1.3224
1.32048
1.31835
1.31394
1.30775
1.30287
1.30107
1.30115
1.3041
1.30855
1.31272
1.31413
1.31268
1.31004
1.30267
2.48778
4.37866
4.63928
4.73711
4.81321
4.86091
4.88853
4.90464
4.925
4.94913
4.96504
4.96893
4.96039
4.95383
4.95421
4.9621
4.97643
4.99063
4.99892
5.00233
5.00181
4.99917
4.99527
4.99366
4.99581
4.99966
5.00062
4.99739
4.99068
4.98043
4.96609
4.95037
1.03257
1.05273
1.07513
1.1012
1.12926
1.15143
1.16497
1.17736
1.18957
1.20439
1.22286
1.2396
1.25147
1.26126
1.27122
1.28235
1.29501
1.30693
1.31804
1.32824
1.33626
1.34337
1.3504
1.35477
1.35627
1.35798
1.36168
1.36752
1.37571
1.38271
1.38445
1.38415
1.38413
1.38621
1.39249
1.40163
1.40509
1.40284
1.39647
1.39051
1.38781
1.38831
1.38959
1.38995
1.39025
1.39218
1.39474
1.39676
1.39887
1.40083
1.3998
1.39427
1.38386
1.37335
1.36821
1.36724
1.36864
1.3687
1.36748
1.36794
1.37093
1.37422
1.37535
1.37469
1.37303
1.36936
1.3623
1.35312
1.34454
1.33753
1.33317
1.33154
1.33146
1.33291
1.33579
1.33956
1.34099
1.3387
1.33385
1.3262
1.31685
1.31103
1.31036
1.31362
1.31829
1.31957
1.31868
1.31602
1.31076
1.30514
1.30161
1.29957
1.29931
1.30209
1.3035
1.30289
1.30054
2.3094
4.33747
4.67269
4.7589
4.83211
4.87832
4.9071
4.91813
4.93032
4.93983
4.95376
4.96528
4.97115
4.97332
4.97695
4.98144
4.98531
4.98557
4.98341
4.98012
4.97842
4.97997
4.98275
4.98409
4.98293
4.97955
4.97527
4.97255
4.97222
4.97266
4.96971
4.95901
1.01476
1.033
1.05715
1.08612
1.1136
1.13458
1.14693
1.15831
1.17379
1.19864
1.22658
1.2392
1.24435
1.24601
1.25129
1.2624
1.28477
1.30989
1.32359
1.33025
1.33477
1.33913
1.34495
1.35201
1.35567
1.35713
1.35698
1.35982
1.36524
1.37573
1.38536
1.38747
1.38704
1.38687
1.38965
1.39409
1.39745
1.39764
1.39527
1.39078
1.38731
1.38736
1.38963
1.39389
1.39653
1.39609
1.39314
1.38928
1.38843
1.38998
1.39134
1.39013
1.38575
1.37901
1.37473
1.37363
1.37483
1.3764
1.37624
1.37489
1.37248
1.37022
1.36895
1.36796
1.36664
1.36379
1.3584
1.35203
1.34671
1.34272
1.33943
1.33666
1.33512
1.33502
1.33674
1.33888
1.33831
1.33598
1.33184
1.32497
1.31748
1.31444
1.31364
1.31516
1.31738
1.31801
1.31762
1.31581
1.31144
1.30781
1.30624
1.30522
1.30464
1.30637
1.30717
1.3064
1.30352
2.0651
4.25688
4.73973
4.80192
4.85794
4.89243
4.92254
4.94185
4.95436
4.96158
4.96703
4.96995
4.97166
4.97603
4.98202
4.99227
5.00072
5.0006
4.99678
4.99287
4.99122
4.99504
5.00222
5.00535
4.99969
4.98701
4.97314
4.96278
4.95841
4.96049
4.96635
4.96759
1.00812
1.03004
1.05709
1.08183
1.10041
1.11422
1.12494
1.13925
1.16428
1.20457
1.23058
1.23764
1.23968
1.24003
1.24634
1.25749
1.27938
1.30586
1.31594
1.32079
1.32553
1.33207
1.34378
1.35371
1.35634
1.35606
1.35015
1.34786
1.35176
1.36162
1.38063
1.39398
1.39772
1.39805
1.39338
1.38835
1.38653
1.38574
1.38573
1.38622
1.38763
1.39026
1.39369
1.39747
1.39958
1.39928
1.39776
1.39447
1.39029
1.38722
1.38528
1.38291
1.37898
1.37465
1.37273
1.37261
1.37383
1.37669
1.37935
1.38011
1.3792
1.37717
1.37425
1.37029
1.36477
1.35736
1.3499
1.34527
1.34309
1.34189
1.34158
1.34209
1.34278
1.34288
1.34198
1.34007
1.33608
1.32929
1.32134
1.31606
1.31469
1.3146
1.31664
1.32088
1.32276
1.3223
1.32051
1.3154
1.30741
1.30258
1.30127
1.30089
1.30187
1.30593
1.30942
1.31097
1.30945
1.77115
4.12055
4.84601
4.86624
4.89742
4.91644
4.93672
4.9557
4.97181
4.97842
4.98123
4.97913
4.97606
4.97616
4.97765
4.98445
4.992
4.9914
4.98846
4.98702
4.98907
4.99951
5.01553
5.02486
5.01884
5.00484
4.98289
4.96543
4.9531
4.9499
4.95708
4.96769
0.991764
1.01565
1.04566
1.06682
1.08162
1.09574
1.10767
1.12305
1.15003
1.19055
1.21475
1.22249
1.22848
1.23481
1.24227
1.25168
1.26747
1.29116
1.30615
1.31068
1.31525
1.32405
1.33845
1.34812
1.35144
1.35289
1.34965
1.3461
1.3487
1.35655
1.37346
1.39061
1.39461
1.39484
1.38986
1.3821
1.38029
1.38191
1.38613
1.38965
1.38987
1.38877
1.38786
1.38812
1.39071
1.39413
1.39568
1.3952
1.39084
1.38324
1.37723
1.37292
1.36937
1.36788
1.36809
1.37009
1.374
1.37971
1.38535
1.3876
1.38679
1.38299
1.37585
1.36681
1.35753
1.34991
1.34617
1.3446
1.34385
1.34354
1.343
1.34259
1.34226
1.34184
1.34108
1.33911
1.33473
1.32775
1.32134
1.31879
1.3181
1.31789
1.31913
1.32159
1.32237
1.32179
1.31923
1.31358
1.30771
1.30482
1.30372
1.30355
1.30482
1.30781
1.3106
1.31128
1.30934
1.48518
3.87243
4.98547
4.96749
4.96315
4.96586
4.97425
4.98567
4.99265
4.99742
4.99971
4.99706
4.99403
4.99173
4.99137
4.99573
5.00098
4.99818
4.99121
4.98449
4.98109
4.98631
5.001
5.01368
5.0129
5.00414
4.98481
4.96572
4.95335
4.94599
4.94825
4.95639
0.968035
0.990261
1.02389
1.04772
1.06205
1.07811
1.09417
1.10943
1.13285
1.16879
1.19293
1.20225
1.21174
1.22156
1.22974
1.23942
1.2536
1.27251
1.29169
1.30625
1.31354
1.3215
1.33136
1.33865
1.34384
1.34875
1.35181
1.35163
1.35155
1.35583
1.36467
1.37766
1.3858
1.38783
1.38858
1.38724
1.38603
1.38685
1.3873
1.38631
1.38442
1.3836
1.38434
1.38882
1.39416
1.39652
1.39626
1.39282
1.38426
1.37391
1.36722
1.36524
1.36599
1.37085
1.37829
1.38496
1.38975
1.39152
1.38966
1.38472
1.37837
1.36979
1.3597
1.35038
1.344
1.34171
1.34134
1.34403
1.34888
1.35186
1.35224
1.351
1.34856
1.34523
1.34096
1.33579
1.32992
1.3244
1.32103
1.31972
1.31917
1.31916
1.32026
1.32121
1.32123
1.32007
1.31626
1.31216
1.3109
1.31077
1.31129
1.31196
1.31184
1.31127
1.31084
1.3101
1.30748
1.32368
3.51021
5.08066
5.09324
5.03892
5.02454
5.01997
5.02425
5.02662
5.02468
5.01655
5.00308
4.98927
4.97853
4.97463
4.98229
4.9937
4.99832
4.99662
4.99439
4.99309
4.99741
5.00872
5.02026
5.02191
5.01327
4.99418
4.9732
4.95798
4.94594
4.94009
4.943
0.921718
0.951593
0.988688
1.02098
1.03776
1.05495
1.07467
1.09345
1.11445
1.14141
1.16346
1.17644
1.18869
1.20166
1.21367
1.22619
1.24007
1.25514
1.27407
1.29388
1.30759
1.31496
1.32022
1.32479
1.32918
1.33413
1.34213
1.34845
1.34981
1.35186
1.35688
1.36458
1.37626
1.38692
1.3903
1.39108
1.38852
1.38052
1.37611
1.37576
1.37703
1.38311
1.39264
1.39579
1.39454
1.39066
1.3853
1.3794
1.37387
1.37031
1.36925
1.37111
1.37737
1.38452
1.38785
1.38748
1.38476
1.38052
1.37538
1.36851
1.36097
1.35516
1.35033
1.347
1.34605
1.348
1.35324
1.35992
1.36389
1.36373
1.36131
1.35527
1.34632
1.33826
1.3319
1.3269
1.32307
1.32125
1.32098
1.32173
1.32422
1.32654
1.3271
1.32678
1.3251
1.32041
1.31602
1.31496
1.31467
1.31482
1.31506
1.31438
1.31302
1.31122
1.30915
1.30708
1.30367
1.3035
3.12477
5.1308
5.22266
5.13152
5.10126
5.07558
5.06177
5.05002
5.03417
5.01005
4.98642
4.97112
4.96763
4.97545
4.98875
5.00597
5.01571
5.01699
5.01246
5.00952
5.01054
5.01318
5.01344
5.0087
4.99731
4.98149
4.96778
4.95834
4.95141
4.95013
4.95335
0.828328
0.878191
0.923411
0.967839
0.997102
1.01691
1.03801
1.06392
1.09295
1.11708
1.13302
1.14638
1.1607
1.17869
1.19657
1.20929
1.22163
1.2362
1.25337
1.27519
1.29778
1.30737
1.30923
1.30988
1.31366
1.3192
1.3276
1.33999
1.34856
1.34949
1.35047
1.35537
1.36504
1.37654
1.38134
1.38212
1.38052
1.37255
1.36856
1.36963
1.3744
1.38604
1.39348
1.39297
1.38937
1.3825
1.37404
1.37027
1.36982
1.37205
1.37858
1.38421
1.38435
1.38226
1.37994
1.37796
1.37463
1.36865
1.36258
1.35821
1.35509
1.35385
1.35447
1.35749
1.36161
1.36491
1.36601
1.36506
1.36325
1.36027
1.3556
1.34876
1.3395
1.3306
1.32546
1.32267
1.32171
1.32197
1.32524
1.33119
1.33527
1.33573
1.33393
1.32787
1.31979
1.31455
1.31289
1.31246
1.31301
1.31432
1.31469
1.31394
1.3127
1.31073
1.30672
1.30088
1.29574
1.29425
2.81915
5.15157
5.31438
5.20009
5.15627
5.11481
5.08435
5.05601
5.03122
5.01159
4.9992
4.99881
5.00632
5.01751
5.0256
5.02617
5.02164
5.01178
5.00066
4.99561
4.99328
4.98765
4.97943
4.97002
4.96191
4.95779
4.95751
4.96114
4.96545
4.96436
4.9541
0.752773
0.781597
0.818193
0.860824
0.907916
0.947411
0.978829
1.01418
1.05611
1.09451
1.11191
1.11935
1.12926
1.14646
1.17132
1.19177
1.20302
1.21305
1.22802
1.25261
1.2827
1.29586
1.29956
1.29853
1.29873
1.3036
1.31216
1.32739
1.3405
1.34584
1.3465
1.34855
1.35485
1.36459
1.37095
1.37221
1.37155
1.3673
1.3647
1.36596
1.37076
1.38104
1.38763
1.38732
1.38396
1.37434
1.36504
1.36398
1.36671
1.37473
1.38325
1.38454
1.38262
1.37797
1.37218
1.36664
1.3619
1.35864
1.35635
1.35597
1.35793
1.36184
1.36627
1.36908
1.3689
1.36707
1.36461
1.3618
1.35853
1.35432
1.34868
1.34123
1.33404
1.3294
1.32639
1.32524
1.32591
1.33012
1.33715
1.34165
1.34184
1.33968
1.33348
1.32389
1.31513
1.31194
1.31101
1.31072
1.31234
1.31541
1.31638
1.31583
1.31457
1.31169
1.30496
1.29704
1.29257
1.29126
2.62766
5.14011
5.3714
5.25708
5.19996
5.14471
5.10086
5.06785
5.05258
5.0444
5.04063
5.03936
5.03659
5.02941
5.01925
5.00703
4.99334
4.98364
4.98455
4.99267
5.00047
4.99566
4.98552
4.97657
4.97157
4.97146
4.97758
4.98641
4.98362
4.97085
4.95265
0.760968
0.764618
0.771594
0.785687
0.806898
0.840564
0.88569
0.933952
0.979218
1.02589
1.07691
1.09935
1.10384
1.11321
1.13049
1.15461
1.18101
1.1983
1.20881
1.22623
1.25213
1.27397
1.28419
1.28869
1.28882
1.2889
1.29648
1.31012
1.32745
1.33785
1.3421
1.34336
1.34519
1.35023
1.35654
1.36083
1.36207
1.36138
1.36222
1.36366
1.36672
1.37207
1.37708
1.37809
1.37614
1.36824
1.36094
1.36039
1.36255
1.37089
1.38016
1.38103
1.37902
1.37377
1.36463
1.35813
1.35547
1.35474
1.35711
1.3625
1.36573
1.36753
1.36855
1.36842
1.36703
1.36514
1.3626
1.3587
1.35302
1.34573
1.33863
1.33472
1.33313
1.33218
1.33218
1.33403
1.33801
1.34258
1.3446
1.34409
1.34188
1.33712
1.32818
1.31757
1.31301
1.31188
1.31128
1.31226
1.3166
1.32058
1.32091
1.32008
1.31774
1.31081
1.30129
1.29437
1.29231
1.29167
2.52596
5.12714
5.41261
5.29885
5.23117
5.16699
5.11542
5.08484
5.07642
5.0698
5.06226
5.05296
5.0415
5.02779
5.0097
4.98998
4.97817
4.97855
4.98967
5.01113
5.02653
5.02305
5.01076
5.00024
4.99254
4.98814
4.98907
4.99203
4.98757
4.97709
4.96332
0.782511
0.775517
0.777898
0.774886
0.774516
0.779184
0.794886
0.825035
0.868718
0.919706
0.973123
1.02951
1.07502
1.08824
1.09439
1.10929
1.13611
1.17079
1.19858
1.21111
1.22239
1.2352
1.24885
1.26404
1.27857
1.28833
1.29039
1.29614
1.30516
1.31592
1.32799
1.33692
1.34022
1.3415
1.34368
1.34646
1.35024
1.3545
1.35855
1.36241
1.3637
1.36324
1.36248
1.36336
1.3635
1.36217
1.36026
1.35961
1.361
1.36518
1.36998
1.37126
1.37058
1.36779
1.36272
1.358
1.35588
1.35649
1.35866
1.35969
1.36102
1.36258
1.36417
1.36401
1.36263
1.3608
1.35812
1.3536
1.34701
1.34044
1.33602
1.33386
1.33368
1.33635
1.34277
1.34867
1.34999
1.34883
1.34607
1.34244
1.33723
1.32865
1.31858
1.31368
1.31238
1.31221
1.31345
1.3185
1.326
1.32849
1.32753
1.3246
1.31793
1.30696
1.29784
1.29458
1.29417
1.29398
2.48429
5.1171
5.43113
5.31341
5.2424
5.17538
5.12491
5.10194
5.09535
5.08955
5.08084
5.06751
5.04915
5.0262
5.00322
4.98803
4.98246
4.9898
5.00894
5.02777
5.03729
5.03231
5.01879
5.00659
4.99548
4.98593
4.98065
4.98046
4.98292
4.97882
4.9711
0.828357
0.809217
0.802984
0.791312
0.786566
0.790041
0.791107
0.792489
0.802018
0.825958
0.864198
0.910583
0.960419
1.01403
1.05069
1.06678
1.08627
1.11942
1.16461
1.1957
1.20579
1.20508
1.21163
1.22648
1.24949
1.27569
1.28998
1.29284
1.29052
1.29459
1.3027
1.31761
1.33313
1.33854
1.33738
1.33484
1.33693
1.34205
1.35212
1.36094
1.36314
1.36149
1.35371
1.34842
1.34967
1.35334
1.35796
1.36158
1.36428
1.36363
1.36106
1.35913
1.35891
1.35998
1.3614
1.36176
1.36166
1.36053
1.35806
1.35659
1.35646
1.35692
1.35849
1.35967
1.35883
1.35702
1.35403
1.3489
1.34277
1.33938
1.33824
1.33773
1.33846
1.34409
1.3509
1.35356
1.3533
1.35173
1.3485
1.3414
1.32962
1.31813
1.31331
1.3123
1.31252
1.31432
1.32166
1.33039
1.33177
1.33079
1.32908
1.32494
1.31574
1.30446
1.29894
1.29754
1.29714
1.29791
2.48195
5.10596
5.42197
5.29718
5.23038
5.1702
5.13219
5.12046
5.11199
5.10168
5.0902
5.07305
5.05094
5.02963
5.01538
5.0057
5.00731
5.01743
5.02252
5.02451
5.03073
5.03409
5.02685
5.0173
5.00481
4.99058
4.97796
4.97192
4.9759
4.98118
4.97802
0.889364
0.866022
0.853442
0.838987
0.819367
0.814193
0.806673
0.800575
0.801888
0.806917
0.814924
0.828453
0.84776
0.880468
0.927393
0.984685
1.02981
1.06431
1.10286
1.14872
1.17631
1.18496
1.18369
1.19239
1.21214
1.24478
1.27392
1.28231
1.28352
1.27971
1.28319
1.29402
1.31459
1.32903
1.33228
1.33045
1.32612
1.32817
1.33639
1.3505
1.35784
1.35842
1.35291
1.3422
1.33868
1.3408
1.34754
1.3595
1.36658
1.36616
1.36137
1.35394
1.35055
1.35077
1.35464
1.36184
1.36512
1.3644
1.36063
1.35523
1.35303
1.35278
1.35355
1.35615
1.35674
1.3557
1.35298
1.34746
1.34202
1.34059
1.34072
1.34253
1.34601
1.34855
1.35069
1.35151
1.3512
1.34981
1.34519
1.33442
1.32172
1.31527
1.31388
1.31401
1.3173
1.32604
1.33117
1.33191
1.33194
1.33089
1.32793
1.32125
1.31166
1.30583
1.30365
1.30253
1.30366
1.30514
2.50645
5.09216
5.38702
5.26566
5.21022
5.16866
5.15326
5.14349
5.12603
5.11134
5.09155
5.06662
5.0469
5.03605
5.03132
5.03428
5.04495
5.05032
5.04203
5.03106
5.02203
5.01919
5.01971
5.0201
5.01627
5.00444
4.98949
4.97955
4.97756
4.97919
4.97859
0.945337
0.916505
0.903468
0.892245
0.869184
0.849722
0.839149
0.82531
0.819483
0.822304
0.823315
0.817892
0.812992
0.816939
0.833936
0.868712
0.921115
0.982091
1.02598
1.05964
1.09233
1.1354
1.16395
1.1732
1.18484
1.20269
1.22613
1.25241
1.26673
1.2701
1.27128
1.27784
1.2895
1.30574
1.31876
1.32276
1.32174
1.31991
1.32295
1.33007
1.33969
1.3465
1.34826
1.34519
1.33712
1.33476
1.33708
1.34535
1.35633
1.3615
1.36133
1.3571
1.35108
1.34942
1.35077
1.35516
1.35932
1.36015
1.35887
1.35462
1.35133
1.35083
1.3515
1.35416
1.35557
1.35521
1.3535
1.3493
1.34503
1.34379
1.3438
1.34527
1.34867
1.35078
1.35069
1.34982
1.34797
1.34374
1.33562
1.32624
1.3219
1.32053
1.31968
1.32132
1.3273
1.33069
1.33175
1.33138
1.32999
1.3266
1.32045
1.31373
1.31103
1.31024
1.3105
1.31147
1.31087
1.3082
2.55905
5.07532
5.33493
5.22895
5.18998
5.17461
5.18058
5.16392
5.14283
5.11866
5.08811
5.06034
5.04775
5.04364
5.04634
5.06346
5.0833
5.07991
5.06812
5.04634
5.02211
5.01162
5.01168
5.01678
5.02193
5.02218
5.01302
5.00302
4.99636
4.98761
4.97916
1.01676
0.975545
0.960868
0.954976
0.937241
0.908371
0.893498
0.878123
0.858196
0.85011
0.842842
0.829218
0.818059
0.816874
0.81843
0.824386
0.841154
0.870331
0.911556
0.951036
0.986201
1.03039
1.08446
1.14451
1.16863
1.17216
1.18146
1.19869
1.22725
1.25681
1.26789
1.26937
1.27133
1.27812
1.2893
1.30531
1.31567
1.31767
1.31537
1.31513
1.31896
1.32517
1.33403
1.34043
1.34128
1.3381
1.33625
1.33715
1.33922
1.34324
1.34957
1.35446
1.3556
1.35504
1.35373
1.35227
1.35102
1.35066
1.35033
1.34962
1.34944
1.35037
1.35231
1.35357
1.35376
1.35367
1.35293
1.35098
1.34871
1.34775
1.34785
1.34942
1.35072
1.3504
1.34899
1.34564
1.33925
1.33088
1.32525
1.32392
1.32501
1.32953
1.33455
1.33721
1.33655
1.33455
1.33181
1.32791
1.32193
1.31442
1.30949
1.30862
1.31037
1.31488
1.31927
1.32085
1.31979
1.31319
2.65335
5.05412
5.26816
5.1903
5.17531
5.18363
5.19641
5.17489
5.1494
5.11695
5.08167
5.06097
5.05588
5.05613
5.06437
5.08497
5.09633
5.08842
5.07481
5.05068
5.02626
5.01757
5.01646
5.01871
5.02178
5.02533
5.02746
5.02151
5.0116
5.00083
4.98641
1.08226
1.05225
1.01683
1.00448
0.995168
0.9719
0.947959
0.930984
0.906823
0.880389
0.86665
0.856552
0.847468
0.838266
0.829558
0.828769
0.829215
0.833265
0.845619
0.864578
0.888998
0.922291
0.966398
1.02036
1.08205
1.13404
1.14824
1.15995
1.18411
1.22037
1.24893
1.2581
1.25784
1.25464
1.26158
1.27648
1.2966
1.30981
1.31232
1.30927
1.30525
1.30698
1.31257
1.32262
1.33531
1.34249
1.34305
1.33892
1.33489
1.33341
1.33412
1.33809
1.34549
1.35167
1.35313
1.35176
1.34685
1.34257
1.34145
1.34212
1.34613
1.35103
1.35281
1.35296
1.35189
1.3506
1.35012
1.3501
1.35016
1.35062
1.35231
1.35353
1.35274
1.35057
1.34633
1.3382
1.32797
1.32199
1.32064
1.3222
1.32972
1.34015
1.34666
1.3478
1.34575
1.34036
1.33175
1.32044
1.30929
1.30328
1.30216
1.30385
1.31085
1.32142
1.32802
1.32886
1.32767
1.31878
2.78078
5.03517
5.20065
5.15626
5.1638
5.18577
5.19602
5.1745
5.14683
5.11113
5.08156
5.07245
5.07315
5.07763
5.08736
5.1021
5.1021
5.09107
5.07489
5.05321
5.03682
5.03186
5.02932
5.02782
5.02668
5.02722
5.03077
5.02664
5.01706
5.00515
4.98848
1.13647
1.12106
1.09434
1.06222
1.0492
1.03495
1.00971
0.986676
0.963342
0.931491
0.907348
0.895029
0.884807
0.872864
0.85984
0.844585
0.838697
0.838971
0.840453
0.841779
0.844073
0.850258
0.866677
0.896765
0.943073
1.00321
1.07716
1.12708
1.15069
1.17478
1.20443
1.23056
1.23931
1.23886
1.23937
1.2491
1.26476
1.28523
1.30103
1.30524
1.30331
1.30114
1.30395
1.3095
1.31723
1.32685
1.33556
1.33944
1.33937
1.33513
1.32977
1.32887
1.33137
1.33662
1.34216
1.34439
1.34436
1.34195
1.34057
1.3417
1.34563
1.34915
1.35027
1.35054
1.34931
1.34756
1.34732
1.34758
1.34895
1.35247
1.35562
1.35551
1.35364
1.34932
1.34058
1.32893
1.32151
1.31955
1.31988
1.32518
1.33759
1.34899
1.35278
1.35237
1.34998
1.34269
1.32873
1.31375
1.3048
1.30162
1.30111
1.3046
1.3136
1.32406
1.32956
1.33009
1.32889
1.32017
2.92645
5.02925
5.15031
5.13271
5.14986
5.16918
5.17291
5.15585
5.13453
5.10893
5.09558
5.09501
5.09733
5.10179
5.10579
5.10589
5.09724
5.08579
5.07327
5.06083
5.05423
5.05199
5.04758
5.04394
5.04003
5.03758
5.03723
5.03123
5.0208
5.00776
4.99233
1.19242
1.171
1.15664
1.13385
1.1075
1.08725
1.06554
1.03979
1.01171
0.982706
0.956484
0.93614
0.917878
0.903797
0.894316
0.884182
0.873565
0.862057
0.854133
0.846809
0.837419
0.83202
0.83314
0.839338
0.856396
0.889763
0.942228
1.00982
1.08042
1.1164
1.14264
1.17052
1.20517
1.22384
1.22554
1.22739
1.23579
1.24956
1.26839
1.28896
1.30216
1.30655
1.30427
1.30114
1.30316
1.30617
1.31162
1.32365
1.33468
1.33733
1.33577
1.32939
1.32661
1.32723
1.32891
1.33252
1.33799
1.34219
1.34513
1.34752
1.34754
1.34616
1.34557
1.34488
1.34364
1.34345
1.34385
1.34525
1.34953
1.35517
1.35659
1.35531
1.35201
1.34463
1.33361
1.32598
1.32362
1.32314
1.326
1.33407
1.3435
1.34866
1.34982
1.34889
1.34461
1.33468
1.32099
1.31164
1.30881
1.30805
1.30864
1.31259
1.31837
1.32286
1.32502
1.32535
1.32371
1.31725
3.06865
5.0231
5.1257
5.11543
5.12857
5.13602
5.13816
5.13283
5.12835
5.12187
5.12175
5.12275
5.12149
5.11812
5.11039
5.09864
5.08744
5.08083
5.07805
5.07682
5.07612
5.07349
5.06316
5.05317
5.04208
5.03395
5.02703
5.01943
5.01124
5.0025
4.99525
1.27064
1.23876
1.21263
1.18981
1.16602
1.14064
1.116
1.09272
1.06382
1.03201
1.00587
0.983257
0.963027
0.946393
0.933955
0.925532
0.916388
0.902144
0.883556
0.865007
0.846205
0.834334
0.834347
0.835945
0.83997
0.848874
0.867681
0.897301
0.937949
0.995002
1.04899
1.08797
1.12597
1.17265
1.21112
1.21849
1.21762
1.2246
1.23692
1.2558
1.28023
1.2949
1.29833
1.29567
1.29304
1.29459
1.29706
1.3046
1.31873
1.32759
1.33094
1.33063
1.32384
1.31933
1.3191
1.32121
1.32873
1.34158
1.35007
1.35243
1.35174
1.34733
1.3421
1.33875
1.33758
1.33764
1.33852
1.34305
1.35135
1.35516
1.35478
1.35269
1.34727
1.33837
1.33177
1.32994
1.32954
1.33111
1.33622
1.3429
1.34523
1.34451
1.34238
1.3371
1.32826
1.32106
1.31934
1.32002
1.32107
1.32311
1.32465
1.32415
1.32268
1.32022
1.31695
1.31507
1.31546
1.31499
3.20403
5.00871
5.10651
5.10106
5.1001
5.1033
5.11029
5.11889
5.13209
5.1425
5.14677
5.14648
5.1391
5.12457
5.10714
5.09288
5.08329
5.0816
5.08597
5.08971
5.09033
5.08647
5.07501
5.06034
5.04603
5.03238
5.0192
5.0079
5.0005
4.99804
4.99955
1.33012
1.30608
1.2815
1.25281
1.22376
1.19727
1.16603
1.13043
1.10087
1.07485
1.05188
1.0319
1.0151
1.00059
0.98433
0.964222
0.948096
0.938229
0.926189
0.905029
0.872161
0.847801
0.842725
0.84199
0.844598
0.851185
0.85497
0.857729
0.864424
0.879714
0.912575
0.967162
1.02471
1.07909
1.13243
1.18568
1.20923
1.21252
1.21906
1.23041
1.24455
1.26082
1.27135
1.27503
1.27944
1.28467
1.28973
1.29994
1.31134
1.31355
1.31639
1.31822
1.31406
1.31045
1.31006
1.31209
1.32308
1.3409
1.34989
1.35214
1.35208
1.34607
1.33652
1.33184
1.33123
1.33162
1.33577
1.346
1.35416
1.35526
1.35462
1.35107
1.34266
1.33486
1.33272
1.33289
1.3357
1.34196
1.34742
1.34813
1.34582
1.34041
1.33082
1.3202
1.31587
1.3166
1.32171
1.32945
1.3361
1.33746
1.3356
1.33028
1.32202
1.31403
1.30994
1.30847
1.30997
1.31434
3.33028
4.98862
5.07462
5.07812
5.08102
5.08675
5.10196
5.12078
5.14283
5.15645
5.15995
5.15319
5.13649
5.11635
5.10298
5.09381
5.09044
5.09433
5.09922
5.09954
5.09611
5.08826
5.07327
5.05393
5.03678
5.02016
5.00573
4.99649
4.99387
4.9984
5.00468
1.39167
1.35755
1.33242
1.30908
1.27852
1.25141
1.22419
1.1856
1.14507
1.11
1.08379
1.07008
1.06073
1.05006
1.03488
1.0166
0.999554
0.980504
0.954048
0.929353
0.905199
0.879636
0.864037
0.859393
0.857713
0.859374
0.85998
0.858181
0.853601
0.845751
0.848385
0.865265
0.903318
0.963531
1.02675
1.08493
1.13924
1.19217
1.21302
1.21357
1.2147
1.2205
1.2251
1.23454
1.2537
1.27851
1.29832
1.30906
1.31073
1.30757
1.30357
1.30025
1.2986
1.29994
1.30123
1.30695
1.32451
1.34125
1.34637
1.34848
1.3478
1.33915
1.32851
1.32586
1.327
1.33135
1.34054
1.35246
1.35599
1.35541
1.35294
1.34586
1.33641
1.33266
1.33256
1.33498
1.34149
1.34847
1.3502
1.34832
1.34254
1.33111
1.32039
1.31717
1.31723
1.3197
1.32757
1.33838
1.34205
1.34168
1.33731
1.32628
1.31517
1.31148
1.31058
1.31078
1.31246
1.31531
3.42953
4.95631
5.03917
5.06341
5.08209
5.09389
5.11197
5.13524
5.15477
5.16425
5.16382
5.15046
5.13384
5.12078
5.11448
5.11253
5.1137
5.11387
5.10889
5.10043
5.09084
5.0793
5.0624
5.04596
5.03186
5.01903
5.00946
5.00463
5.00505
5.00934
5.0104
1.4483
1.41745
1.38906
1.36327
1.33204
1.294
1.25312
1.2111
1.17641
1.15211
1.13587
1.12042
1.10047
1.08302
1.07296
1.065
1.05387
1.03055
0.989065
0.947033
0.927539
0.916363
0.907399
0.899786
0.889931
0.879214
0.872086
0.866205
0.857732
0.847368
0.845148
0.845709
0.851082
0.871094
0.911467
0.968427
1.02512
1.08213
1.1368
1.18013
1.19187
1.18972
1.19087
1.20144
1.22396
1.26121
1.29356
1.30719
1.31134
1.30777
1.29267
1.28353
1.28421
1.28726
1.29284
1.30615
1.32704
1.33702
1.33955
1.34113
1.33781
1.3277
1.32243
1.3236
1.32721
1.33423
1.34655
1.35433
1.35448
1.35258
1.34709
1.3384
1.33455
1.33403
1.33457
1.33789
1.34317
1.34554
1.3451
1.34214
1.33508
1.32741
1.3234
1.32204
1.32267
1.32713
1.33481
1.33894
1.33932
1.33692
1.32965
1.32118
1.31752
1.31596
1.31508
1.31634
1.31816
1.3217
3.48802
4.92457
5.01391
5.05892
5.08892
5.10993
5.12873
5.14801
5.16289
5.16814
5.16368
5.15301
5.14368
5.13917
5.13926
5.13994
5.13521
5.12451
5.11066
5.09624
5.08243
5.06879
5.05495
5.04386
5.03435
5.02609
5.02243
5.02352
5.02591
5.02327
5.01131
1.50328
1.47422
1.4458
1.41898
1.39072
1.35083
1.296
1.245
1.20841
1.19283
1.1815
1.16689
1.14842
1.13213
1.11816
1.10127
1.07804
1.05077
1.0172
0.980342
0.958685
0.949149
0.944516
0.940239
0.931694
0.917634
0.897823
0.878283
0.864158
0.853607
0.849994
0.848998
0.850003
0.853733
0.862146
0.880063
0.912939
0.951745
0.999278
1.05446
1.10125
1.15249
1.17781
1.18426
1.20451
1.24079
1.2743
1.28898
1.29481
1.29545
1.28425
1.26859
1.2688
1.27468
1.2867
1.30958
1.32692
1.3296
1.33034
1.32836
1.32173
1.32007
1.32189
1.32391
1.32921
1.33947
1.349
1.35061
1.34926
1.34554
1.3396
1.33566
1.3348
1.33501
1.33721
1.34085
1.34145
1.34062
1.33825
1.33385
1.33127
1.33078
1.3306
1.33161
1.33491
1.33761
1.33743
1.33571
1.33081
1.32401
1.3208
1.32042
1.32087
1.32147
1.32269
1.3229
1.32082
1.32562
3.50067
4.90418
5.00876
5.06773
5.1059
5.12975
5.14586
5.16058
5.17273
5.17375
5.16511
5.15703
5.15202
5.15424
5.15773
5.15489
5.14159
5.12326
5.10512
5.0907
5.07729
5.06196
5.05147
5.04472
5.04081
5.04139
5.04298
5.044
5.04278
5.03127
5.00482
1.56095
1.53379
1.50588
1.47532
1.43583
1.3768
1.3173
1.27881
1.25775
1.24156
1.22295
1.20292
1.18726
1.17447
1.15981
1.13827
1.10654
1.0682
1.03593
1.01603
1.00528
0.996051
0.98545
0.975339
0.96641
0.954204
0.933705
0.903749
0.875916
0.86442
0.861369
0.85909
0.857251
0.857403
0.860732
0.864694
0.866724
0.873263
0.887868
0.918995
0.969378
1.03294
1.10304
1.15665
1.19724
1.22604
1.24915
1.2601
1.26515
1.26668
1.26104
1.25427
1.25753
1.26736
1.28609
1.31065
1.32262
1.32322
1.32013
1.31309
1.31181
1.31466
1.31778
1.32254
1.33306
1.34234
1.34363
1.34315
1.34091
1.33707
1.3355
1.33598
1.33708
1.33977
1.34372
1.34425
1.34179
1.33725
1.33168
1.32806
1.32753
1.32916
1.33378
1.34079
1.3454
1.34508
1.34128
1.33209
1.32292
1.31856
1.31705
1.31653
1.31905
1.32494
1.32718
1.32623
1.3232
1.3235
3.48746
4.90789
5.0228
5.0823
5.1204
5.14366
5.15877
5.17064
5.18068
5.17644
5.16484
5.15869
5.1612
5.16867
5.16872
5.15573
5.1363
5.11422
5.09568
5.08263
5.07588
5.07143
5.06335
5.05404
5.04827
5.04836
5.05212
5.05262
5.04207
5.01997
4.99639
1.62074
1.5931
1.56263
1.52495
1.47102
1.40003
1.34172
1.31881
1.30434
1.28809
1.26999
1.25121
1.2328
1.21475
1.19638
1.1747
1.13916
1.0898
1.05872
1.04926
1.04361
1.03678
1.02714
1.01509
1.00082
0.984608
0.963941
0.934794
0.904936
0.887549
0.879311
0.873894
0.870916
0.870376
0.869855
0.868604
0.866586
0.858214
0.846156
0.848548
0.867482
0.906924
0.975541
1.0534
1.13136
1.19481
1.22294
1.23401
1.23595
1.23646
1.23581
1.2381
1.24743
1.26679
1.29354
1.30588
1.30723
1.30661
1.30215
1.29919
1.30355
1.30808
1.31188
1.31846
1.33022
1.33865
1.33988
1.33959
1.33635
1.33055
1.32932
1.33098
1.33486
1.34174
1.34722
1.34728
1.34487
1.3382
1.32834
1.32368
1.32387
1.32577
1.33208
1.34221
1.34731
1.34748
1.34482
1.33559
1.32344
1.31706
1.31521
1.31491
1.318
1.32337
1.32529
1.32492
1.32247
1.31599
3.44298
4.92837
5.04835
5.10264
5.13579
5.15554
5.17049
5.18196
5.18595
5.17606
5.16222
5.16099
5.16893
5.17648
5.17005
5.15153
5.12394
5.10199
5.08997
5.08563
5.08622
5.08551
5.07838
5.06554
5.05243
5.04289
5.03882
5.03655
5.03046
5.01679
4.99859
1.67944
1.64913
1.6132
1.56405
1.49121
1.41653
1.38182
1.36656
1.34942
1.33019
1.31322
1.29815
1.28152
1.26169
1.23597
1.19694
1.14555
1.10795
1.09702
1.09049
1.08078
1.07153
1.06301
1.0526
1.03898
1.01888
0.98567
0.947011
0.928965
0.922545
0.915703
0.906449
0.898022
0.891874
0.887529
0.883577
0.87648
0.859132
0.8401
0.835006
0.835921
0.844017
0.872357
0.92552
0.996572
1.07155
1.12929
1.173
1.18833
1.20236
1.21238
1.22304
1.24018
1.26734
1.29084
1.29631
1.2984
1.29898
1.29434
1.29191
1.29734
1.30242
1.30655
1.31112
1.31715
1.32665
1.33311
1.33434
1.33343
1.32852
1.3254
1.32666
1.331
1.33741
1.3422
1.34369
1.34313
1.34059
1.3349
1.32824
1.32561
1.32611
1.33002
1.33644
1.33958
1.34003
1.33858
1.33457
1.32966
1.32633
1.32442
1.32366
1.32329
1.32233
1.32083
1.318
1.31468
1.31233
3.33885
4.95106
5.07754
5.12254
5.15169
5.17084
5.18521
5.19859
5.2014
5.1849
5.16752
5.1686
5.17952
5.1869
5.17719
5.1552
5.12561
5.1037
5.09343
5.09493
5.10317
5.1061
5.09344
5.07092
5.04851
5.03145
5.02373
5.02316
5.02363
5.01718
5.00409
1.73239
1.69781
1.65443
1.59101
1.50452
1.44534
1.42733
1.41182
1.39619
1.37966
1.36295
1.34652
1.32907
1.30753
1.27451
1.21581
1.15589
1.13673
1.13031
1.12682
1.1179
1.10781
1.0983
1.08789
1.07429
1.05021
1.00586
0.966532
0.95509
0.950381
0.947904
0.940496
0.932496
0.925107
0.917306
0.907304
0.888718
0.858446
0.839842
0.836136
0.835731
0.840953
0.84956
0.863184
0.888225
0.932883
0.979195
1.03675
1.08648
1.13384
1.16515
1.18928
1.21888
1.25217
1.277
1.28454
1.28816
1.29031
1.2905
1.28683
1.28826
1.29301
1.29763
1.30176
1.30666
1.31817
1.32997
1.33341
1.33516
1.33478
1.33023
1.32707
1.32787
1.32878
1.33003
1.33278
1.33531
1.33643
1.33719
1.33684
1.33516
1.33315
1.33078
1.32853
1.3272
1.32638
1.32681
1.32889
1.33105
1.33315
1.33512
1.33495
1.33209
1.32598
1.31817
1.3121
1.30991
1.31009
3.18628
4.97506
5.10753
5.13685
5.16576
5.18934
5.21043
5.2266
5.22613
5.19996
5.17934
5.18198
5.19378
5.2012
5.18876
5.16339
5.13356
5.11337
5.10499
5.11041
5.1234
5.12576
5.10469
5.07483
5.04462
5.02259
5.01459
5.01921
5.02727
5.02509
5.01351
1.77998
1.7409
1.68753
1.60685
1.52076
1.48888
1.47212
1.45578
1.44174
1.42832
1.41316
1.3962
1.3759
1.34573
1.29102
1.22046
1.18482
1.17503
1.16833
1.16287
1.15432
1.14508
1.13567
1.12433
1.1057
1.06837
1.01851
0.996945
0.991252
0.988841
0.984153
0.975013
0.966598
0.958846
0.950136
0.935549
0.902938
0.86154
0.848477
0.844991
0.84461
0.848203
0.854274
0.861147
0.8637
0.867607
0.877817
0.898628
0.941058
1.00172
1.07259
1.12807
1.18184
1.2252
1.25638
1.27286
1.27955
1.28098
1.28184