/*--------------------------------*- C++ -*----------------------------------*\
  =========                 |
  \\      /  F ield         | OpenFOAM: The Open Source CFD Toolbox
   \\    /   O peration     | Website:  https://openfoam.org
    \\  /    A nd           | Version:  7
     \\/     M anipulation  |
\*---------------------------------------------------------------------------*/
FoamFile
{
    version     2.0;
    format      ascii;
    class       volScalarField;
    location    "2.6";
    object      p;
}
// * * * * * * * * * * * * * * * * * * * * * * * * * * * * * * * * * * * * * //

dimensions      [1 -1 -2 0 0 0 0];

internalField   nonuniform List<scalar> 
4128
(
0.20412
0.27584
0.363913
0.435322
0.512128
0.607084
0.679073
0.743884
0.829453
0.90216
0.924057
0.938839
0.945799
0.958576
0.974001
1.00632
1.03558
1.05799
1.08648
1.11328
1.14196
1.14908
1.14157
1.14899
1.16648
1.19038
1.21939
1.25402
1.27309
1.27078
1.26585
1.25782
1.25308
1.25582
1.26453
1.28801
1.31272
1.31921
1.32306
1.32526
1.3257
1.32625
1.32532
1.32574
1.33467
1.34785
1.35196
1.35076
1.34623
1.3422
1.34309
1.34639
2.63238
5.2948
5.71143
5.87005
5.98872
6.08861
6.18891
6.27945
6.34398
6.38596
6.42201
6.45792
6.48505
6.50033
6.51663
6.54926
6.59236
6.6223
6.62549
6.61419
6.6156
6.64131
6.67052
6.68047
6.66543
6.64028
6.62704
6.63538
6.65718
6.6744
6.67113
6.6533
6.63901
6.6468
6.65477
6.6553
0.220547
0.233308
0.25226
0.280693
0.312178
0.355026
0.433797
0.521834
0.613659
0.700535
0.750928
0.798902
0.846968
0.87721
0.908769
0.960402
1.01008
1.04124
1.07395
1.09963
1.12019
1.12927
1.12727
1.13505
1.15446
1.17858
1.20224
1.22659
1.24688
1.2552
1.2544
1.25398
1.25541
1.26039
1.2708
1.29349
1.31085
1.31411
1.31584
1.31357
1.31282
1.31435
1.31381
1.31437
1.32326
1.33884
1.34941
1.3517
1.35231
1.35128
1.35023
1.34998
2.45722
5.19834
5.72875
5.8875
6.01229
6.11074
6.19886
6.27915
6.34547
6.39675
6.43888
6.47512
6.50044
6.51349
6.52762
6.55835
6.60038
6.63028
6.63365
6.62136
6.6191
6.6416
6.67093
6.68242
6.66878
6.64422
6.63103
6.63854
6.65894
6.67494
6.67127
6.65301
6.63685
6.64316
6.65332
6.65739
0.314856
0.320239
0.315009
0.316704
0.33449
0.355491
0.389602
0.420246
0.458542
0.516675
0.591118
0.65581
0.729189
0.797752
0.853677
0.920508
0.987782
1.03328
1.06828
1.08914
1.11107
1.12068
1.12386
1.14592
1.1805
1.20753
1.22849
1.23763
1.23958
1.2406
1.24057
1.24302
1.24827
1.25677
1.27394
1.30005
1.31624
1.32085
1.32192
1.31743
1.31274
1.31444
1.31658
1.31987
1.32865
1.34227
1.34907
1.35124
1.35212
1.35205
1.35287
1.35269
2.09597
4.99599
5.77653
5.92152
6.05177
6.14952
6.22638
6.28316
6.3272
6.3684
6.41575
6.46324
6.49507
6.50881
6.52104
6.55024
6.59408
6.62929
6.63911
6.62969
6.62134
6.63221
6.65504
6.66957
6.66604
6.65051
6.63749
6.63805
6.65054
6.66485
6.66828
6.65766
6.64304
6.64194
6.64605
6.64908
0.530927
0.523018
0.485579
0.442624
0.443409
0.439299
0.423688
0.423286
0.426444
0.436044
0.46172
0.502874
0.573686
0.65615
0.730551
0.812879
0.885176
0.929726
0.963676
0.989852
1.0284
1.07597
1.10603
1.14514
1.19267
1.21015
1.21161
1.2146
1.22059
1.22667
1.23234
1.2395
1.24837
1.26075
1.27855
1.29607
1.30213
1.30466
1.30528
1.302
1.30309
1.30845
1.3134
1.31989
1.33325
1.34341
1.34594
1.34636
1.34421
1.34294
1.34479
1.34682
1.63294
4.62307
5.88575
5.97704
6.08753
6.17199
6.24442
6.2954
6.32976
6.36505
6.41233
6.46417
6.50134
6.51744
6.52713
6.54991
6.58854
6.62577
6.64314
6.6411
6.6322
6.63097
6.64276
6.65681
6.66312
6.65801
6.64592
6.6389
6.64238
6.65364
6.66323
6.66317
6.65298
6.64455
6.63924
6.64004
0.780398
0.734963
0.676371
0.613879
0.581046
0.558776
0.538987
0.508904
0.487507
0.490109
0.506016
0.522255
0.522884
0.533655
0.559367
0.604883
0.662502
0.722664
0.782532
0.848706
0.921062
1.0013
1.05642
1.09213
1.14158
1.16072
1.16376
1.16983
1.1834
1.19877
1.22169
1.24924
1.27691
1.29482
1.29984
1.29994
1.29716
1.29437
1.29242
1.29152
1.29493
1.30351
1.31409
1.32512
1.33278
1.33424
1.33336
1.33553
1.33991
1.34709
1.35491
1.3574
1.39975
4.03291
5.97752
6.06306
6.11786
6.17552
6.23757
6.28925
6.32819
6.36224
6.40145
6.44416
6.4786
6.4989
6.51559
6.54018
6.57265
6.60435
6.62706
6.63918
6.6413
6.63634
6.63475
6.64185
6.65285
6.65979
6.65578
6.64408
6.63696
6.64
6.65102
6.66122
6.6614
6.65084
6.63572
6.63188
1.05528
0.967204
0.881161
0.821548
0.775644
0.726758
0.695169
0.660165
0.608219
0.583987
0.580385
0.575978
0.5551
0.551497
0.565288
0.565813
0.567528
0.575757
0.59639
0.63509
0.703307
0.795225
0.907766
0.977791
1.0438
1.09254
1.11514
1.13193
1.14888
1.17049
1.19874
1.23105
1.27045
1.28343
1.28372
1.282
1.27998
1.27826
1.27777
1.28063
1.28584
1.29779
1.3126
1.31836
1.32071
1.32211
1.32454
1.33114
1.34068
1.34804
1.35044
1.35021
1.35321
3.2985
5.90038
6.12768
6.15877
6.19328
6.23607
6.27572
6.31321
6.35627
6.40552
6.45226
6.48447
6.50166
6.51501
6.53771
6.56862
6.59679
6.61784
6.6344
6.6446
6.64168
6.63267
6.63154
6.64203
6.65536
6.66071
6.65113
6.63733
6.63176
6.63871
6.65118
6.65819
6.65228
6.63656
6.62917
1.36822
1.2346
1.10702
1.02434
0.968847
0.898089
0.834681
0.797233
0.757627
0.702573
0.680494
0.679443
0.665724
0.640019
0.623914
0.613958
0.598303
0.58868
0.588777
0.592613
0.605756
0.631521
0.68185
0.750537
0.815417
0.899208
0.983216
1.03861
1.07985
1.12315
1.15857
1.19708
1.24791
1.26584
1.26807
1.26879
1.2693
1.26887
1.27072
1.27521
1.28013
1.28677
1.2967
1.30388
1.30955
1.31393
1.31954
1.32791
1.33676
1.33947
1.34009
1.33966
1.33549
2.60147
5.72281
6.1967
6.21665
6.24762
6.26846
6.28046
6.29362
6.32013
6.36465
6.41888
6.4654
6.49034
6.49627
6.50404
6.52723
6.56301
6.59963
6.6245
6.63566
6.63572
6.62885
6.62469
6.63141
6.64393
6.65405
6.65349
6.64212
6.63159
6.63069
6.63814
6.64571
6.64471
6.63518
6.62926
1.65457
1.4935
1.3422
1.25171
1.16962
1.08416
0.993547
0.931191
0.890034
0.855436
0.814421
0.786933
0.777956
0.758891
0.722903
0.692279
0.668819
0.638402
0.615613
0.613003
0.616652
0.633226
0.639187
0.644048
0.652242
0.675857
0.726462
0.796874
0.884146
0.977836
1.05601
1.11197
1.17102
1.22019
1.23768
1.25134
1.26138
1.26076
1.26135
1.26594
1.27292
1.27524
1.27924
1.28956
1.29926
1.30767
1.31703
1.32889
1.33268
1.33256
1.33018
1.32592
1.32012
2.01069
5.42835
6.28474
6.27922
6.29325
6.29245
6.27954
6.26919
6.27729
6.31576
6.37521
6.43313
6.4709
6.48337
6.48481
6.50039
6.53677
6.58241
6.62013
6.63488
6.6307
6.62152
6.61739
6.62224
6.63277
6.64285
6.64685
6.64207
6.63353
6.62816
6.62871
6.63246
6.6331
6.6296
6.6275
1.93304
1.74868
1.58661
1.47018
1.3567
1.25119
1.17555
1.1041
1.018
0.980792
0.95283
0.902706
0.870827
0.860918
0.836318
0.786163
0.754055
0.731058
0.710499
0.695252
0.684329
0.677004
0.670616
0.662332
0.651488
0.640062
0.641662
0.651648
0.679666
0.737987
0.831089
0.936665
1.02726
1.10271
1.15253
1.18112
1.20314
1.22114
1.24242
1.26472
1.27883
1.28401
1.28549
1.29002
1.29685
1.30216
1.31123
1.32378
1.32706
1.32677
1.32301
1.3151
1.31005
1.55098
5.05618
6.33845
6.29869
6.29582
6.27733
6.24607
6.22421
6.23467
6.27321
6.32932
6.3918
6.44127
6.45834
6.45377
6.45473
6.48227
6.53249
6.58035
6.60669
6.60817
6.59832
6.59521
6.60389
6.61684
6.62637
6.63084
6.63056
6.62726
6.62281
6.61958
6.61981
6.62099
6.62042
6.62085
2.19686
1.97781
1.82957
1.68779
1.55658
1.42012
1.33369
1.26603
1.17889
1.11916
1.0882
1.0481
0.990123
0.956475
0.929488
0.887029
0.838186
0.810154
0.793291
0.780943
0.765091
0.74776
0.737994
0.724328
0.696992
0.662444
0.652161
0.65265
0.656859
0.668945
0.691682
0.726615
0.771105
0.831028
0.912647
0.989853
1.058
1.1201
1.17844
1.2344
1.26163
1.27208
1.28045
1.28621
1.28808
1.29116
1.29758
1.311
1.31627
1.3165
1.31264
1.30628
1.30769
1.33027
4.58637
6.33217
6.28146
6.26145
6.23479
6.20802
6.20747
6.22359
6.24991
6.28553
6.33122
6.37396
6.40374
6.41541
6.42288
6.44695
6.485
6.53226
6.57269
6.58781
6.58218
6.5775
6.58581
6.6014
6.61247
6.61682
6.61721
6.61597
6.61344
6.61086
6.61092
6.61079
6.60841
6.60952
2.42835
2.20944
2.05122
1.88991
1.73814
1.60776
1.51569
1.42808
1.33245
1.26548
1.21429
1.17062
1.12699
1.07296
1.0156
0.970785
0.934197
0.904111
0.878193
0.866099
0.853058
0.829341
0.806343
0.792539
0.769237
0.731669
0.711931
0.705215
0.69513
0.691181
0.695977
0.696013
0.696271
0.700833
0.718054
0.757612
0.829242
0.939487
1.03669
1.12359
1.17621
1.21754
1.25431
1.25879
1.25747
1.25992
1.2739
1.29487
1.30271
1.30416
1.2991
1.2935
1.29684
1.30127
3.97795
6.25909
6.28766
6.23118
6.1802
6.15245
6.16463
6.20132
6.23439
6.26081
6.2796
6.30072
6.32746
6.35179
6.37898
6.40895
6.44149
6.47863
6.51111
6.53345
6.54213
6.54386
6.55142
6.56683
6.5815
6.58961
6.59148
6.59004
6.58795
6.58833
6.59171
6.59468
6.59319
6.59184
2.63331
2.43372
2.25797
2.09277
1.91719
1.79307
1.68841
1.58931
1.48894
1.42341
1.3585
1.28355
1.23302
1.18379
1.12117
1.06181
1.0318
1.006
0.97405
0.950757
0.937399
0.923159
0.89425
0.855712
0.821562
0.788187
0.770085
0.764286
0.757383
0.747674
0.735401
0.720901
0.703284
0.697528
0.698186
0.703024
0.710545
0.74017
0.801668
0.88621
0.987147
1.06418
1.13817
1.17007
1.19815
1.2201
1.25986
1.29582
1.30652
1.30451
1.289
1.27535
1.27732
1.28762
3.39369
6.25146
6.33174
6.22946
6.14348
6.08773
6.107
6.15801
6.19678
6.21654
6.22537
6.23668
6.25612
6.28771
6.32639
6.35897
6.38952
6.4208
6.45048
6.47447
6.49018
6.5032
6.51816
6.53701
6.55398
6.56444
6.5672
6.56447
6.55972
6.56061
6.56795
6.57312
6.56509
6.55479
2.84371
2.64169
2.4516
2.27569
2.10358
1.97958
1.86266
1.74458
1.63726
1.5655
1.49902
1.41848
1.34537
1.28505
1.22462
1.16419
1.12435
1.09921
1.07679
1.04769
1.01231
0.992636
0.972392
0.931938
0.882049
0.858062
0.84654
0.832572
0.823666
0.816172
0.803538
0.787244
0.76615
0.738726
0.716474
0.707241
0.708528
0.710606
0.718793
0.73365
0.765226
0.81304
0.884765
0.979066
1.07343
1.16913
1.23695
1.27935
1.28784
1.28586
1.27293
1.25883
1.26205
1.27228
2.83386
6.08736
6.31139
6.17704
6.09244
6.04084
6.05561
6.10254
6.13515
6.15232
6.15969
6.16737
6.18937
6.22596
6.26602
6.30374
6.33738
6.3585
6.37723
6.39849
6.42316
6.44511
6.46412
6.48293
6.50234
6.51683
6.52212
6.51803
6.51185
6.5107
6.51847
6.52332
6.51332
6.50193
3.04213
2.83579
2.64383
2.44881
2.28952
2.14829
2.02436
1.90167
1.79532
1.70745
1.62152
1.53388
1.45929
1.39368
1.33321
1.28318
1.23482
1.18542
1.16217
1.14131
1.10963
1.06897
1.03782
0.997941
0.946182
0.9231
0.916255
0.905282
0.889538
0.876163
0.858805
0.835762
0.818397
0.798372
0.775482
0.760255
0.749842
0.73345
0.724559
0.72551
0.72744
0.73167
0.741849
0.77555
0.83723
0.939421
1.03769
1.11705
1.18364
1.20503
1.2242
1.2396
1.25597
1.26497
2.35861
5.85825
6.26032
6.10114
6.01805
5.97897
5.99974
6.03906
6.06424
6.07804
6.08478
6.09553
6.12125
6.16006
6.20443
6.25023
6.28576
6.30851
6.32552
6.33415
6.35106
6.37655
6.40426
6.42748
6.44664
6.46152
6.46988
6.46712
6.45457
6.44694
6.45206
6.45398
6.44577
6.38861
3.23006
3.01347
2.80725
2.61709
2.46569
2.31328
2.17618
2.04606
1.94319
1.8429
1.75129
1.65493
1.57529
1.50289
1.43467
1.3894
1.35077
1.30322
1.25417
1.21848
1.18639
1.14541
1.10142
1.05892
1.01736
0.998583
0.987783
0.973956
0.956726
0.941764
0.924582
0.899294
0.868465
0.847422
0.825005
0.808662
0.801236
0.790156
0.774122
0.760792
0.748889
0.736375
0.735485
0.736196
0.744639
0.768303
0.810825
0.865894
0.943815
1.03298
1.11648
1.17706
1.25078
1.26465
1.99877
5.64068
6.20944
5.98307
5.91896
5.91903
5.96119
5.99415
6.00387
6.00448
6.00589
6.01968
6.05044
6.09485
6.14538
6.19446
6.23096
6.25508
6.26375
6.26707
6.28109
6.30558
6.33418
6.35736
6.37576
6.38806
6.39566
6.39183
6.37379
6.35218
6.33412
6.30089
6.23922
6.19904
3.39063
3.17306
2.95482
2.78693
2.61982
2.46676
2.31575
2.19642
2.08074
1.97367
1.86678
1.77555
1.69646
1.62928
1.55834
1.49272
1.44051
1.39917
1.35806
1.31143
1.26897
1.22241
1.16751
1.11833
1.08517
1.0743
1.06196
1.04568
1.0245
1.00388
0.982509
0.957423
0.924679
0.900411
0.882088
0.857875
0.841273
0.834122
0.822294
0.807429
0.795003
0.780327
0.766198
0.75584
0.754878
0.757612
0.756667
0.757145
0.768748
0.809345
0.879351
0.977473
1.10758
1.1766
1.72334
5.38611
6.11487
5.83933
5.77175
5.8057
5.87032
5.91237
5.93105
5.93311
5.93496
5.9511
5.98465
6.03373
6.09164
6.14362
6.17925
6.19872
6.19516
6.18893
6.19935
6.22762
6.25958
6.28349
6.29528
6.30138
6.30181
6.28985
6.26288
6.2228
6.18302
6.13095
6.03288
6.04356
3.53916
3.30456
3.10714
2.94022
2.76838
2.60346
2.46035
2.33632
2.21014
2.09811
1.99301
1.9005
1.81518
1.73666
1.67211
1.6123
1.55229
1.49265
1.44185
1.39183
1.33953
1.29301
1.24534
1.20605
1.16953
1.14662
1.12683
1.10543
1.08428
1.06294
1.03715
1.01173
0.982463
0.954249
0.933498
0.913701
0.901304
0.892329
0.880344
0.862071
0.839651
0.823247
0.809279
0.797861
0.791817
0.783789
0.771643
0.758111
0.748445
0.749387
0.758079
0.795008
0.870864
0.948578
1.4206
4.96589
5.81489
5.64212
5.67069
5.74527
5.8164
5.84872
5.85976
5.86307
5.86842
5.88791
5.92559
5.98105
6.04148
6.08964
6.11747
6.12384
6.10902
6.10442
6.1221
6.15606
6.19231
6.21548
6.21839
6.2106
6.19272
6.16669
6.13046
6.07332
5.99555
5.83567
5.40538
4.27941
3.6706
3.42905
3.25294
3.08127
2.90437
2.73158
2.60345
2.4663
2.34047
2.2173
2.12082
2.02275
1.93967
1.85987
1.77866
1.70731
1.64685
1.59201
1.53884
1.48395
1.41618
1.35166
1.30754
1.27903
1.25704
1.23535
1.20851
1.17695
1.14445
1.1148
1.08551
1.05714
1.03315
1.00833
0.986522
0.965445
0.95476
0.94441
0.930354
0.912998
0.893272
0.873344
0.856029
0.84084
0.831119
0.820329
0.804437
0.785046
0.76364
0.756695
0.758437
0.762659
0.774761
0.794681
1.04277
4.24884
5.51758
5.49473
5.611
5.69213
5.74542
5.76271
5.77171
5.78393
5.80145
5.82904
5.87357
5.9318
5.98795
6.0267
6.04317
6.03481
6.0171
6.02336
6.04988
6.09252
6.13328
6.15218
6.13616
6.10199
6.06482
6.02969
5.98381
5.90222
5.75188
5.49222
4.9337
3.82383
3.79083
3.55971
3.37836
3.21626
3.02078
2.86593
2.73396
2.59591
2.45428
2.347
2.24628
2.14517
2.04876
1.96919
1.88912
1.81384
1.7428
1.67689
1.6165
1.55962
1.49902
1.44383
1.40102
1.35544
1.32461
1.30147
1.27633
1.24729
1.21493
1.1803
1.14745
1.10812
1.07504
1.05271
1.03598
1.01993
1.00909
0.995592
0.978823
0.957215
0.939476
0.922339
0.904447
0.888059
0.87603
0.862731
0.84645
0.827855
0.81035
0.798314
0.790627
0.785912
0.782918
0.777981
0.788942
3.40788
5.31943
5.38473
5.53295
5.66334
5.72871
5.73296
5.72587
5.72955
5.75039
5.78281
5.82821
5.8857
5.93773
5.96524
5.96737
5.94963
5.9401
5.95676
5.99452
6.046
6.07924
6.07689
6.03308
5.97927
5.93343
5.89461
5.83415
5.72032
5.52324
5.17044
4.61522
3.64307
3.90104
3.68117
3.4981
3.33513
3.14085
2.98876
2.85728
2.71134
2.56904
2.47111
2.36362
2.25733
2.15667
2.07521
1.98678
1.9059
1.83564
1.77136
1.70417
1.63204
1.56804
1.524
1.48855
1.45021
1.41618
1.38016
1.33968
1.29821
1.26676
1.23575
1.20606
1.1698
1.13701
1.11139
1.08864
1.07067
1.05972
1.04544
1.02732
1.00412
0.984474
0.967081
0.950733
0.934976
0.91997
0.90243
0.881242
0.858625
0.846857
0.837955
0.828806
0.823412
0.817192
0.805071
0.783625
2.35048
5.02695
5.35852
5.51566
5.62304
5.67592
5.67319
5.65909
5.66117
5.68063
5.72249
5.77971
5.83854
5.88262
5.90076
5.8941
5.87763
5.87448
5.89769
5.946
5.9915
6.00615
5.97777
5.91869
5.8596
5.80898
5.76227
5.68709
5.55449
5.30745
4.9482
4.38619
3.59733
3.99749
3.78963
3.61695
3.44547
3.25507
3.10392
2.97441
2.81987
2.68908
2.58548
2.47701
2.35517
2.263
2.17427
2.08724
1.9997
1.92683
1.85328
1.7854
1.71708
1.66306
1.61648
1.56792
1.52208
1.48972
1.45326
1.41436
1.37124
1.33018
1.28999
1.24822
1.21487
1.19182
1.17227
1.1534
1.13374
1.1148
1.09193
1.06796
1.04452
1.02539
1.00886
0.993042
0.977663
0.962706
0.946103
0.925525
0.902627
0.892933
0.886192
0.876842
0.86621
0.854444
0.836709
0.802206
1.37885
4.47866
5.31867
5.48503
5.60426
5.64905
5.62378
5.57409
5.58724
5.63225
5.69921
5.76549
5.81361
5.83634
5.83458
5.82138
5.81026
5.81209
5.84062
5.89159
5.92802
5.92637
5.87849
5.80687
5.74418
5.68932
5.63204
5.54938
5.40407
5.14806
4.76819
4.2467
3.6039
4.0857
3.89573
3.72317
3.54586
3.36256
3.22005
3.08353
2.92515
2.80083
2.69517
2.57816
2.45399
2.36491
2.27223
2.17822
2.0899
2.01891
1.94322
1.86936
1.80223
1.75294
1.70349
1.65743
1.60982
1.56215
1.51259
1.46587
1.43163
1.39607
1.3576
1.31142
1.27119
1.24566
1.22401
1.20524
1.19098
1.17247
1.14812
1.11882
1.09257
1.06968
1.0481
1.0278
1.01181
0.996497
0.981443
0.966965
0.952831
0.940714
0.928799
0.916156
0.904076
0.890684
0.868324
0.82762
0.882373
3.42211
5.27424
5.46372
5.55091
5.59746
5.59428
5.57131
5.59258
5.65042
5.73401
5.79951
5.82288
5.81497
5.78969
5.76316
5.75156
5.76018
5.79051
5.83748
5.86766
5.8465
5.78126
5.70405
5.63703
5.57439
5.51228
5.43478
5.26686
5.01375
4.6364
4.1746
3.64179
4.17506
3.99765
3.82015
3.63582
3.47117
3.32867
3.18532
3.02888
2.90989
2.79996
2.66953
2.55367
2.46353
2.37174
2.26564
2.18416
2.10712
2.03249
1.95378
1.89932
1.84586
1.79
1.72964
1.68386
1.63441
1.58567
1.53566
1.4896
1.44702
1.40926
1.36952
1.34019
1.31536
1.29228
1.26176
1.23837
1.21478
1.19085
1.16637
1.14337
1.12125
1.0987
1.06918
1.04794
1.03139
1.0142
1.00096
0.992776
0.98368
0.972635
0.960116
0.944054
0.922173
0.897189
0.869143
0.871685
2.09241
4.96845
5.42467
5.51251
5.56988
5.57809
5.55945
5.5684
5.63864
5.72564
5.77431
5.77112
5.73871
5.71224
5.69452
5.69546
5.71891
5.75378
5.78781
5.80001
5.76663
5.69327
5.61073
5.53798
5.47217
5.40735
5.33031
5.15374
4.90261
4.54365
4.13335
3.67952
4.26501
4.08836
3.90852
3.72601
3.57693
3.43017
3.27958
3.13155
3.0136
2.89688
2.76344
2.65371
2.5608
2.46179
2.3538
2.27707
2.19998
2.12142
2.04412
1.98961
1.92935
1.87055
1.80895
1.75461
1.69776
1.64535
1.59915
1.55796
1.51436
1.46971
1.42412
1.39738
1.37313
1.35128
1.32551
1.29907
1.26959
1.23736
1.20328
1.18038
1.15912
1.13986
1.11535
1.09544
1.08024
1.06446
1.04289
1.02738
1.01703
1.00547
0.993243
0.978424
0.951353
0.920571
0.908909
0.899173
1.10509
4.23147
5.40859
5.49753
5.54
5.54548
5.54762
5.56848
5.62548
5.70618
5.74284
5.71297
5.64702
5.61573
5.61271
5.63589
5.67493
5.71653
5.74172
5.73044
5.68281
5.61053
5.52921
5.4496
5.37826
5.31385
5.23326
5.05962
4.81213
4.48226
4.11364
3.71043
4.34888
4.17048
3.98644
3.82488
3.67449
3.52448
3.36563
3.2354
3.1125
2.98853
2.85468
2.75267
2.65659
2.54863
2.44619
2.36824
2.29211
2.20483
2.13741
2.07679
2.01282
1.94017
1.87975
1.82386
1.76799
1.7134
1.66309
1.61715
1.57461
1.53216
1.49524
1.46724
1.43822
1.40271
1.37167
1.34664
1.31845
1.29027
1.25918
1.23102
1.20201
1.16969
1.14692
1.13594
1.1236
1.10978
1.09329
1.07646
1.06073
1.04398
1.0227
0.998999
0.974386
0.955442
0.948234
0.938929
0.945957
2.83114
5.23295
5.45982
5.50327
5.51839
5.52673
5.56089
5.62475
5.68668
5.71372
5.68083
5.61671
5.59562
5.60286
5.63763
5.68069
5.70365
5.69569
5.66088
5.60123
5.52813
5.45282
5.37546
5.30019
5.23273
5.14597
4.97896
4.74241
4.44062
4.10708
3.74341
4.42462
4.24396
4.06847
3.91753
3.7642
3.60737
3.45739
3.33281
3.20534
3.07411
2.9499
2.84842
2.74693
2.63261
2.53988
2.46087
2.38007
2.28866
2.22313
2.15579
2.08713
2.01021
1.95199
1.89162
1.83495
1.77628
1.73255
1.68571
1.64111
1.59201
1.56022
1.52948
1.49829
1.46369
1.42914
1.39588
1.3623
1.32835
1.30185
1.276
1.24902
1.21953
1.19697
1.18394
1.16792
1.14549
1.12777
1.11484
1.09994
1.08202
1.05706
1.02652
1.00394
0.990708
0.985127
0.980396
0.967302
1.4666
4.66274
5.45104
5.48441
5.49769
5.5115
5.55077
5.61138
5.66235
5.68831
5.66405
5.59813
5.56697
5.59391
5.64655
5.70051
5.71005
5.6711
5.602
5.52645
5.45204
5.38103
5.31192
5.24068
5.16948
5.07333
4.91015
4.68668
4.41032
4.10726
3.78152
4.49159
4.31267
4.15515
3.99978
3.84469
3.68429
3.55284
3.42124
3.29285
3.1552
3.04613
2.93869
2.83251
2.71734
2.63162
2.54926
2.46014
2.37258
2.30443
2.23357
2.15363
2.07976
2.02158
1.96242
1.90331
1.84575
1.79976
1.75144
1.70554
1.66106
1.62959
1.59294
1.55259
1.51075
1.48119
1.44834
1.41665
1.38154
1.348
1.31477
1.28619
1.26198
1.24864
1.2354
1.21783
1.1957
1.17225
1.15156
1.13107
1.10856
1.07981
1.05547
1.04367
1.03371
1.02703
1.02241
1.00495
1.0316
3.35742
5.31811
5.43835
5.46776
5.49346
5.53417
5.58629
5.63197
5.65167
5.63283
5.58638
5.54867
5.58115
5.63142
5.67916
5.68047
5.61952
5.53771
5.45854
5.38473
5.32113
5.26167
5.19939
5.1264
5.01669
4.85131
4.6403
4.38609
4.11305
3.82562
4.55286
4.3855
4.23212
4.07645
3.91424
3.76865
3.63822
3.50564
3.36862
3.24297
3.13519
3.02509
2.9106
2.80523
2.71915
2.63211
2.53565
2.45353
2.3803
2.30611
2.21971
2.15332
2.09245
2.03365
1.96683
1.91676
1.86954
1.8218
1.76969
1.72787
1.69171
1.65082
1.60869
1.56576
1.5316
1.49639
1.46254
1.42757
1.39679
1.36528
1.33908
1.31203
1.29616
1.27815
1.25639
1.23424
1.21518
1.19494
1.17146
1.1412
1.10618
1.08905
1.08004
1.07079
1.0651
1.06022
1.04892
1.03747
1.80342
4.86554
5.41802
5.44293
5.4735
5.51847
5.56918
5.60983
5.6266
5.61161
5.57245
5.54754
5.56052
5.60132
5.63295
5.60867
5.52995
5.43182
5.36746
5.31323
5.26795
5.22299
5.1727
5.09608
4.97222
4.80234
4.6011
4.36658
4.12273
3.87326
4.61327
4.45773
4.30081
4.14209
3.98595
3.85296
3.71592
3.58128
3.44238
3.33183
3.21661
3.10585
2.98548
2.89365
2.80067
2.70877
2.60859
2.53169
2.45429
2.3745
2.2886
2.22705
2.16527
2.10337
2.03492
1.98785
1.93723
1.88846
1.83416
1.79549
1.75243
1.70717
1.65539
1.61934
1.5864
1.55156
1.51348
1.47339
1.44116
1.41234
1.38894
1.36729
1.35039
1.32786
1.30091
1.2708
1.24805
1.22694
1.204
1.17188
1.14607
1.13618
1.12735
1.11471
1.10419
1.09244
1.07934
1.05588
1.13305
3.65463
5.3228
5.396
5.44172
5.49761
5.54945
5.58854
5.602
5.58648
5.553
5.52747
5.53562
5.56047
5.5765
5.55647
5.48335
5.37732
5.30439
5.25404
5.22429
5.2003
5.15219
5.06688
4.932
4.75883
4.56354
4.35116
4.13506
3.9196
4.67556
4.5214
4.36519
4.20323
4.06324
3.92768
3.79184
3.64778
3.52493
3.41088
3.29592
3.17598
3.06771
2.97492
2.87845
2.77845
2.68463
2.60677
2.52674
2.44072
2.36326
2.30143
2.23855
2.16858
2.10565
2.05806
2.00612
1.95187
1.89752
1.85625
1.80852
1.7611
1.7095
1.67509
1.63889
1.60287
1.55954
1.5246
1.49491
1.46792
1.43838
1.41442
1.39477
1.36884
1.34207
1.31519
1.29137
1.2656
1.23298
1.19722
1.1852
1.17872
1.17005
1.16005
1.14998
1.13632
1.11806
1.08424
1.07027
1.99054
4.93413
5.37908
5.43096
5.48832
5.53772
5.57272
5.58184
5.56219
5.52764
5.50225
5.5056
5.52521
5.53364
5.51791
5.45532
5.34761
5.27126
5.23364
5.21149
5.19501
5.13969
5.03571
4.88979
4.71603
4.52888
4.33803
4.14859
3.96341
4.73652
4.58013
4.41991
4.27061
4.13652
3.99773
3.85656
3.72002
3.60577
3.48476
3.36748
3.24485
3.15036
3.04943
2.95255
2.84534
2.76288
2.67952
2.59831
2.50734
2.43965
2.3745
2.30977
2.23363
2.17769
2.12564
2.07248
2.01102
1.96029
1.91413
1.86448
1.81102
1.76513
1.73274
1.69466
1.65486
1.6067
1.5762
1.54754
1.52097
1.4918
1.46706
1.44057
1.40969
1.37649
1.35128
1.32923
1.30364
1.27066
1.24057
1.23277
1.22315
1.2078
1.19286
1.1831
1.16998
1.15205
1.12869
1.08892
1.18856
3.7641
5.29447
5.41858
5.48745
5.53139
5.5573
5.55809
5.53079
5.49162
5.46711
5.46776
5.48198
5.48994
5.47115
5.41864
5.33461
5.24858
5.21582
5.19114
5.16939
5.11212
4.99704
4.84737
4.67661
4.5008
4.32798
4.16544
4.00641
4.79253
4.63726
4.47821
4.34053
4.20261
4.06419
3.91843
3.79826
3.67765
3.55829
3.43021
3.32341
3.22489
3.12321
3.01858
2.92001
2.83881
2.75219
2.66611
2.57934
2.51505
2.44594
2.376
2.30052
2.24811
2.1918
2.13482
2.06852
2.0199
1.96964
1.92028
1.86457
1.82495
1.78876
1.74871
1.70274
1.65965
1.63284
1.60305
1.57173
1.53718
1.51236
1.48292
1.45206
1.41997
1.39321
1.36521
1.33583
1.30317
1.28708
1.2813
1.27002
1.2551
1.23728
1.21653
1.19319
1.1674
1.15158
1.12169
1.11253
2.0729
4.96574
5.40862
5.47219
5.51905
5.54148
5.53274
5.49556
5.45332
5.43373
5.43959
5.45564
5.4638
5.44848
5.39939
5.32555
5.2484
5.18954
5.16133
5.12167
5.04491
4.91721
4.77349
4.62082
4.46848
4.31465
4.17969
4.04743
4.8433
4.6854
4.54114
4.40473
4.26473
4.11876
3.98675
3.86991
3.74674
3.62186
3.4983
3.40098
3.29472
3.193
3.0818
2.99816
2.90986
2.82465
2.72972
2.6552
2.58608
2.5152
2.43741
2.36965
2.31503
2.25562
2.19185
2.12619
2.07809
2.02626
1.9756
1.92051
1.88467
1.84451
1.80277
1.75099
1.71578
1.68771
1.6562
1.6212
1.58527
1.55657
1.52393
1.49171
1.45986
1.43468
1.40552
1.37732
1.34681
1.33407
1.32463
1.30919
1.29081
1.27473
1.25327
1.22921
1.20248
1.17445
1.14636
1.12268
1.24278
3.83265
5.37021
5.47938
5.51701
5.5192
5.49636
5.45393
5.41601
5.40738
5.42202
5.44076
5.4473
5.43015
5.38133
5.30668
5.2303
5.16663
5.11874
5.07144
4.9933
4.8738
4.7336
4.58679
4.44831
4.31685
4.20431
4.08906
4.89246
4.74033
4.60331
4.46427
4.32314
4.17799
4.05865
3.93549
3.81404
3.68188
3.57572
3.47157
3.36617
3.25412
3.15509
3.07149
2.98017
2.89119
2.79773
2.72973
2.65376
2.58099
2.49859
2.43916
2.3787
2.31701
2.24589
2.18613
2.13657
2.08506
2.03114
1.98018
1.94307
1.89938
1.85454
1.80314
1.77328
1.74135
1.70684
1.66459
1.63065
1.60101
1.56846
1.53545
1.50202
1.47386
1.44453
1.41892
1.39407
1.38405
1.37067
1.35146
1.32466
1.29978
1.27791
1.25685
1.23341
1.20396
1.18287
1.15821
1.16313
2.13349
5.01715
5.46944
5.49048
5.48911
5.45768
5.41364
5.38656
5.39139
5.41267
5.43167
5.4353
5.41409
5.36152
5.28548
5.20633
5.14085
5.08486
5.0265
4.95369
4.84874
4.70906
4.582
4.45493
4.33827
4.23263
4.12734
4.93282
4.79467
4.65814
4.51904
4.37228
4.24329
4.12298
3.99922
3.87035
3.74828
3.64799
3.53862
3.43127
3.31523
3.23022
3.13842
3.04953
2.95006
2.87081
2.79788
2.72023
2.64031
2.56312
2.50558
2.43966
2.37479
2.29978
2.24769
2.19556
2.14456
2.08603
2.03998
1.99924
1.95411
1.90494
1.85834
1.82837
1.79234
1.75418
1.7081
1.6764
1.64512
1.61352
1.57713
1.5447
1.51677
1.48956
1.46353
1.44098
1.4294
1.41154
1.38853
1.3609
1.33524
1.31086
1.28609
1.25499
1.2261
1.21807
1.20657
1.18944
1.31847
3.84577
5.40837
5.46489
5.45164
5.41511
5.38096
5.37074
5.38519
5.40718
5.42412
5.42402
5.3963
5.33523
5.25406
5.17133
5.09995
5.04025
4.97824
4.90592
4.8138
4.69947
4.57437
4.46185
4.35386
4.25322
4.15618
4.98383
4.84759
4.70998
4.56944
4.43144
4.31023
4.18412
4.06031
3.92751
3.82208
3.71374
3.60616
3.4888
3.38723
3.30024
3.20559
3.11212
3.01371
2.94282
2.86219
2.78521
2.6973
2.63153
2.56819
2.50058
2.42915
2.35983
2.31099
2.25606
2.20295
2.14192
2.09932
2.05421
2.00833
1.95543
1.91464
1.8809
1.84161
1.79807
1.75327
1.72435
1.69207
1.65965
1.61904
1.58844
1.56126
1.53616
1.50964
1.48931
1.47313
1.44932
1.41974
1.38936
1.36734
1.34471
1.31911
1.28485
1.2631
1.25568
1.2461
1.22576
1.23033
2.12146
5.01883
5.44633
5.41207
5.37416
5.35515
5.36246
5.38307
5.4035
5.4163
5.40989
5.37231
5.30229
5.21494
5.13224
5.06395
5.00655
4.94826
4.88041
4.797
4.69626
4.57979
4.45957
4.35256
4.24305
4.13117
5.03401
4.8954
4.75692
4.61664
4.4936
4.36862
4.24384
4.11124
3.99309
3.88823
3.77614
3.66623
3.54779
3.45954
3.36374
3.27138
3.16738
3.0836
3.00836
2.92626
2.84362
2.75816
2.69775
2.62754
2.56021
2.48171
2.42452
2.37247
2.31648
2.25743
2.19863
2.15675
2.1083
2.0609
2.00605
1.96883
1.93026
1.88922
1.84075
1.8015
1.77255
1.73948
1.70373
1.66107
1.63466
1.60841
1.58333
1.55442
1.53424
1.51307
1.4853
1.45303
1.42296
1.40008
1.37579
1.34795
1.31589
1.30591
1.29841
1.2873
1.26971
1.24854
1.35737
3.75612
5.31568
5.36296
5.34761
5.34687
5.36193
5.38359
5.40135
5.408
5.3919
5.34254
5.26462
5.17567
5.09801
5.0371
4.98569
4.9313
4.86658
4.78663
4.68653
4.57561
4.45256
4.33545
4.22638
4.11468
5.08035
4.94296
4.80233
4.67401
4.55078
4.42431
4.2967
4.16765
4.06074
3.94707
3.83882
3.71886
3.61819
3.52607
3.4277
3.331
3.22764
3.15367
3.07011
2.99001
2.89828
2.82525
2.76015
2.68805
2.61647
2.54016
2.49006
2.43213
2.37567
2.30934
2.25776
2.21277
2.16275
2.11134
2.05828
2.02171
1.9791
1.93641
1.88602
1.85287
1.82164
1.78732
1.74613
1.70661
1.68272
1.65618
1.62901
1.59834
1.57624
1.54941
1.51881
1.48482
1.45917
1.43651
1.41085
1.38038
1.35417
1.3474
1.33894
1.32383
1.3076
1.28507
1.27333
2.03663
4.8735
5.33374
5.32539
5.33824
5.36337
5.38705
5.40274
5.39997
5.36773
5.30464
5.22297
5.141
5.07435
5.02227
4.97694
4.92693
4.86505
4.78539
4.68636
4.57116
4.44783
4.3283
4.21533
4.10227
5.12557
4.98658
4.85259
4.72784
4.60073
4.47638
4.34552
4.23191
4.11918
4.00642
3.89219
3.77828
3.68746
3.58594
3.49161
3.38377
3.29655
3.21756
3.13142
3.04779
2.95587
2.89157
2.81881
2.74876
2.66895
2.60435
2.55175
2.49056
2.43047
2.36189
2.31654
2.26653
2.21644
2.15894
2.11119
2.07243
2.02797
1.98269
1.93435
1.90424
1.86965
1.8336
1.78734
1.75488
1.73072
1.70306
1.6719
1.6395
1.61474
1.58412
1.55301
1.5191
1.49533
1.47147
1.44573
1.41589
1.39769
1.39117
1.37903
1.35958
1.33941
1.31925
1.28631
1.36143
3.51252
5.21927
5.33042
5.35468
5.37748
5.39674
5.40543
5.38749
5.33474
5.25945
5.17958
5.11074
5.05711
5.01463
4.97431
4.92711
4.86722
4.78801
4.68662
4.56426
4.43455
4.31403
4.20475
4.09573
5.16232
5.03052
4.90392
4.77496
4.64881
4.52046
1.065
0.38331
0.166853
0.154741
0.197949
0.288125
0.362678
0.468296
0.567207
0.609172
0.604833
0.60099
0.631928
0.695947
0.750282
0.759423
0.761245
0.759166
0.762353
0.779176
0.816406
0.842454
0.85318
0.863508
0.874044
0.888259
0.914321
0.959045
1.00521
1.0312
1.76933
1.06699
0.714707
0.469906
0.446394
0.447445
0.424036
0.416286
0.432629
0.46096
0.486803
0.518551
0.569266
0.626332
0.684382
0.703475
0.712186
0.725158
0.739364
0.764344
0.800149
0.82752
0.848496
0.870717
0.886411
0.901027
0.921595
0.947201
0.974998
1.00387
2.27202
1.552
1.17824
0.849319
0.640089
0.575292
0.514605
0.434864
0.42012
0.441233
0.480365
0.515028
0.551632
0.58224
0.620553
0.652724
0.686194
0.725574
0.761933
0.794329
0.820539
0.835635
0.85089
0.870806
0.891169
0.913001
0.934065
0.952484
0.966697
0.981588
2.62858
1.93993
1.54038
1.21895
0.924932
0.796531
0.71234
0.592466
0.544766
0.542676
0.526006
0.50693
0.502968
0.512289
0.536157
0.580082
0.628621
0.680494
0.72489
0.754884
0.784476
0.812147
0.835611
0.862955
0.899005
0.930441
0.947706
0.959746
0.968129
0.975156
2.86574
2.26595
1.85362
1.5211
1.2096
1.03096
0.916464
0.775332
0.672108
0.652414
0.619571
0.563243
0.525793
0.51858
0.526575
0.549418
0.583545
0.626919
0.666943
0.696465
0.725562
0.760742
0.793788
0.826807
0.873448
0.912267
0.929956
0.946487
0.961621
0.975556
3.04493
2.51414
2.12783
1.8066
1.47028
1.2454
1.13379
0.99309
0.841525
0.798553
0.758564
0.694226
0.6457
0.616798
0.584851
0.57932
0.588027
0.602476
0.611723
0.621234
0.63807
0.676159
0.727229
0.778562
0.828423
0.875385
0.899409
0.917427
0.938783
0.959351
3.19217
2.72129
2.33943
2.05647
1.7512
1.45597
1.32486
1.20208
1.04504
0.964152
0.90509
0.816516
0.753789
0.729969
0.69506
0.640828
0.626324