/*--------------------------------*- C++ -*----------------------------------*\
  =========                 |
  \\      /  F ield         | OpenFOAM: The Open Source CFD Toolbox
   \\    /   O peration     | Website:  https://openfoam.org
    \\  /    A nd           | Version:  7
     \\/     M anipulation  |
\*---------------------------------------------------------------------------*/
FoamFile
{
    version     2.0;
    format      ascii;
    class       volScalarField;
    location    "1";
    object      p;
}
// * * * * * * * * * * * * * * * * * * * * * * * * * * * * * * * * * * * * * //

dimensions      [1 -1 -2 0 0 0 0];

internalField   nonuniform List<scalar> 
16192
(
5.12708
5.02543
4.84784
4.64579
4.42811
4.43969
4.83471
4.99272
3.93143
2.88579
2.75642
2.78746
2.87379
3.04773
3.29576
3.58179
3.88738
4.18161
4.46275
4.6646
4.79918
5.12532
5.01912
4.83716
4.62803
4.40645
4.39857
4.70442
4.85388
3.84574
2.94386
2.80562
2.81874
2.89334
3.04147
3.26129
3.52978
3.8289
4.13508
4.42051
4.62816
4.76637
5.1172
5.0062
4.81839
4.60337
4.38363
4.35118
4.55972
4.61953
3.72282
3.02657
2.88545
2.86967
2.93249
3.06314
3.25717
3.51479
3.80265
4.09347
4.37034
4.57829
4.71857
5.10996
4.99019
4.79218
4.56632
4.34494
4.27603
4.36757
4.33942
3.59861
3.11084
2.98374
2.9483
2.98118
3.07335
3.23014
3.46844
3.73746
4.02233
4.29366
4.50061
4.64013
5.10041
4.97204
4.76053
4.5213
4.29801
4.19159
4.18754
4.08174
3.52118
3.16101
3.07693
3.037
3.0384
3.09175
3.20815
3.41267
3.66235
3.93209
4.1908
4.38908
4.52324
5.09152
4.95282
4.72453
4.47117
4.24068
4.08674
4.011
3.86546
3.47457
3.21674
3.16146
3.11718
3.0892
3.10597
3.1759
3.34413
3.5687
3.82335
4.0655
4.25361
4.37836
5.08183
4.93347
4.69027
4.42548
4.17878
3.99384
3.87018
3.70928
3.44006
3.26357
3.22906
3.19089
3.14603
3.11401
3.14021
3.27479
3.4613
3.6969
3.92268
4.09625
4.20746
5.0787
4.92015
4.66534
4.38116
4.11416
3.9069
3.75498
3.60059
3.41207
3.29609
3.27783
3.24956
3.19993
3.12723
3.09495
3.1957
3.34656
3.55758
3.75794
3.91532
4.00686
5.07313
4.90539
4.64227
4.34439
4.06479
3.83882
3.67048
3.52844
3.39271
3.32359
3.31817
3.29773
3.24346
3.14857
3.05628
3.11681
3.22227
3.40391
3.57715
3.71735
3.79157
5.07519
4.90276
4.62777
4.32184
4.02399
3.78581
3.60968
3.47619
3.37312
3.336
3.34445
3.33101
3.26888
3.15649
3.02278
3.03036
3.09961
3.24382
3.38927
3.51078
3.55987
5.07652
4.89301
4.60526
4.30625
3.99995
3.74665
3.56532
3.43965
3.36153
3.35009
3.36751
3.35873
3.28681
3.16088
3.00307
2.94435
2.97925
3.08263
3.19938
3.29928
3.31634
5.06867
4.8885
4.60007
4.30403
3.98504
3.71925
3.53397
3.41187
3.35149
3.35645
3.38131
3.37654
3.29583
3.15654
2.98174
2.8595
2.86507
2.92603
3.01158
3.07504
3.0487
5.06741
4.87832
4.59574
4.2968
3.9813
3.70772
3.51572
3.39333
3.34671
3.36601
3.39857
3.39607
3.3057
3.14901
2.95947
2.78418
2.75804
2.77426
2.80316
2.79881
2.71997
5.05978
4.86473
4.59819
4.29197
3.97807
3.70119
3.50334
3.38156
3.34185
3.37301
3.40903
3.40998
3.31142
3.13434
2.93533
2.72502
2.66363
2.61946
2.55154
2.43076
2.26933
5.03662
4.86798
4.59576
4.2861
3.98308
3.70433
3.49812
3.37634
3.34129
3.38345
3.42632
3.43079
3.32477
3.12867
2.91551
2.68094
2.58337
2.46278
2.26619
2.0332
1.85477
5.02438
4.84449
4.59272
4.28248
3.98054
3.71204
3.50444
3.37955
3.34485
3.39555
3.43953
3.44657
3.33574
3.12608
2.90156
2.6503
2.51461
2.31562
2.07081
1.84784
1.73547
4.99977
4.82146
4.59323
4.27795
3.98377
3.71689
3.51577
3.39283
3.3547
3.41008
3.45796
3.46812
3.35491
3.13299
2.89413
2.62849
2.46004
2.22403
1.975
1.80462
1.72147
4.98419
4.81101
4.5626
4.2825
3.98702
3.72976
3.53388
3.41526
3.37278
3.43103
3.47831
3.48703
3.37382
3.13967
2.89277
2.61898
2.42644
2.18077
1.96735
1.83893
1.78927
4.97437
4.7862
4.55044
4.27523
3.99123
3.74543
3.56414
3.44933
3.40158
3.45329
3.49637
3.50394
3.39379
3.1542
2.89818
2.62392
2.408
2.17647
2.01024
1.9088
1.87586
4.96545
4.77375
4.53929
4.26123
3.9978
3.75687
3.5864
3.48202
3.43348
3.47667
3.51592
3.51761
3.40894
3.16888
2.9073
2.63601
2.40907
2.2066
2.07947
2.00436
1.99146
4.96265
4.76589
4.52452
4.26619
3.99204
3.7726
3.61181
3.515
3.47293
3.50313
3.53038
3.52089
3.41113
3.18034
2.92135
2.65716
2.43596
2.25975
2.17275
2.12472
2.1293
4.9622
4.765
4.52354
4.2631
4.00399
3.78668
3.6366
3.54062
3.50353
3.52015
3.53315
3.51795
3.4088
3.1899
2.93389
2.68596
2.48195
2.33211
2.28553
2.27496
2.29487
4.96023
4.76597
4.52612
4.27018
4.01469
3.79635
3.6569
3.56521
3.53228
3.53818
3.53218
3.50347
3.39082
3.18831
2.94793
2.7228
2.54253
2.42258
2.42657
2.43869
2.48803
4.9608
4.76462
4.53226
4.27928
4.0302
3.81569
3.6774
3.59028
3.55351
3.55214
3.52683
3.48183
3.36868
3.18575
2.96451
2.76319
2.61701
2.52278
2.57885
2.62159
2.73849
4.96317
4.76933
4.54053
4.29314
4.04883
3.83511
3.69337
3.61055
3.56571
3.56388
3.52051
3.45626
3.33628
3.17276
2.981
2.8112
2.70259
2.63607
2.74767
2.82479
3.0051
4.96065
4.78059
4.54954
4.31108
4.07019
3.85912
3.70874
3.63118
3.5767
3.57198
3.51509
3.4296
3.30354
3.1573
2.99375
2.86343
2.79885
2.76522
2.92664
3.02821
3.33893
4.95465
4.78638
4.56524
4.32999
4.09621
3.88607
3.72738
3.64514
3.58381
3.56874
3.51166
3.40885
3.27415
3.13879
2.99915
2.91385
2.90989
2.90919
3.13115
3.25371
3.67312
4.94596
4.78578
4.58126
4.34742
4.12142
3.91434
3.74984
3.65583
3.5969
3.56142
3.50759
3.39313
3.25149
3.11633
2.99569
2.95327
3.03463
3.07499
3.34616
3.5047
4.03936
4.93545
4.78349
4.5897
4.36796
4.14353
3.94028
3.77386
3.66681
3.60766
3.55409
3.4943
3.38568
3.23049
3.09645
2.98093
2.9727
3.15363
3.25499
3.56885
3.76022
4.40863
4.92277
4.77927
4.59602
4.39153
4.17069
3.97212
3.80032
3.682
3.61196
3.55774
3.48176
3.38903
3.21697
3.06554
2.96592
2.97416
3.25794
3.44676
3.79627
4.04672
4.80239
4.91008
4.77338
4.6026
4.40912
4.20076
4.00191
3.83147
3.70379
3.62108
3.56536
3.47169
3.38752
3.19979
3.02864
2.93006
2.95454
3.34834
3.66498
4.00692
4.28894
5.1266
4.89724
4.76652
4.60763
4.42422
4.23042
4.03205
3.86095
3.72782
3.63641
3.57104
3.48008
3.38633
3.20785
3.02214
2.8871
2.89594
3.35499
3.89733
4.23325
4.63004
5.51701
4.88516
4.76011
4.61071
4.43766
4.25154
4.06533
3.88983
3.7488
3.65198
3.57751
3.49813
3.38014
3.22791
3.01923
2.85553
2.79059
3.2627
4.15392
4.49315
4.92119
5.08003
4.8741
4.75328
4.61189
4.44688
4.27074
4.091
3.91802
3.77706
3.67029
3.59088
3.51311
3.39533
3.2561
3.02531
2.85191
2.72239
3.11647
4.30246
4.89224
5.19002
5.17068
4.86452
4.74726
4.61225
4.45402
4.28738
4.11524
3.94947
3.80025
3.69345
3.60808
3.5336
3.42166
3.2947
3.05354
2.87853
2.67831
2.94539
4.28283
5.37077
5.43984
5.23078
4.85514
4.74098
4.61177
4.46014
4.30159
4.13778
3.97982
3.83801
3.71585
3.63017
3.55992
3.45636
3.33515
3.11186
2.93609
2.65224
2.74263
4.12949
5.84183
5.70452
5.35052
4.84668
4.73568
4.60951
4.46258
4.31472
4.16171
4.00531
3.87384
3.74748
3.6505
3.57865
3.4855
3.35816
3.17509
2.98448
2.66811
2.64789
3.8848
6.16884
5.98614
5.44446
4.83991
4.7293
4.60882
4.46672
4.32828
4.18158
4.02993
3.90787
3.78632
3.67744
3.5933
3.51184
3.39284
3.25201
3.05544
2.77796
2.63787
3.60053
6.25687
6.23144
5.54499
4.83608
4.72574
4.60965
4.47056
4.33882
4.20025
4.0549
3.94004
3.82167
3.71012
3.6304
3.53638
3.41487
3.30713
3.13836
2.92128
2.68227
3.33792
6.20181
6.3689
5.62732
4.83401
4.72324
4.61103
4.47489
4.3494
4.2159
4.07685
3.97181
3.85624
3.74253
3.66798
3.57116
3.43846
3.32777
3.16722
2.98873
2.74562
3.18989
6.05964
6.37448
5.66474
4.83325
4.72228
4.61328
4.47966
4.35874
4.23034
4.09801
4.00011
3.88977
3.7772
3.70299
3.60614
3.46895
3.35537
3.20434
3.04549
2.81703
3.1529
5.91339
6.31764
5.65613
4.83293
4.72178
4.61518
4.48476
4.3679
4.24582
4.11843
4.02749
3.92269
3.8114
3.73549
3.63777
3.49896
3.38828
3.2476
3.09839
2.88348
3.15393
5.79102
6.23222
5.61412
4.833
4.72191
4.61748
4.49059
4.37784
4.26203
4.13992
4.05273
3.95378
3.84487
3.76464
3.66783
3.52998
3.42152
3.2905
3.14966
2.94557
3.16993
5.67134
6.14746
5.57308
4.83456
4.72249
4.61978
4.49662
4.38791
4.27818
4.16158
4.07588
3.9817
3.87574
3.78999
3.69548
3.56005
3.45306
3.33086
3.19844
3.00351
3.18946
5.54869
6.06219
5.53363
4.83786
4.72414
4.62289
4.50359
4.39867
4.29464
4.1829
4.09917
4.00574
3.90505
3.81233
3.72092
3.59232
3.48393
3.3664
3.24031
3.05235
3.20023
5.41596
5.97909
5.4964
4.84468
4.72814
4.62676
4.51143
4.40961
4.31068
4.20385
4.1237
4.02879
3.93466
3.83708
3.7451
3.62418
3.51229
3.39664
3.27511
3.0927
3.2035
5.27349
5.90646
5.46083
4.85398
4.73509
4.63187
4.51987
4.41936
4.32472
4.22313
4.14829
4.05256
3.96502
3.86538
3.76689
3.65099
3.53742
3.42277
3.30579
3.12818
3.20354
5.12163
5.84705
5.43253
4.86656
4.74619
4.63884
4.52906
4.42838
4.33695
4.24111
4.1712
4.07738
3.993
3.89313
3.78857
3.67398
3.56294
3.44678
3.33443
3.1605
3.20536
4.96031
5.79874
5.41113
4.88084
4.75999
4.64834
4.53991
4.43868
4.34926
4.25991
4.19107
4.09975
4.01659
3.91807
3.81264
3.69686
3.58957
3.4706
3.36532
3.18682
3.21434
4.79235
5.76168
5.39588
4.89785
4.7767
4.66135
4.55299
4.45204
4.36368
4.28041
4.20956
4.12005
4.03836
3.93883
3.83498
3.71691
3.61469
3.495
3.40086
3.21295
3.22738
4.61343
5.73043
5.3864
4.91638
4.79444
4.67728
4.56833
4.46934
4.38113
4.3028
4.22937
4.14109
4.05633
3.95517
3.85223
3.73638
3.63535
3.52007
3.4322
3.24182
3.24139
4.41804
5.69463
5.37889
4.93632
4.81318
4.69585
4.58596
4.48968
4.40171
4.32627
4.25038
4.16259
4.07311
3.97093
3.8658
3.75586
3.65138
3.54257
3.45481
3.27277
3.25563
4.20392
5.6443
5.37331
4.95552
4.83172
4.71573
4.60534
4.51226
4.42545
4.35167
4.27247
4.18484
4.09049
3.98834
3.87928
3.77541
3.66581
3.56569
3.46882
3.31097
3.26216
3.98024
5.56892
5.37191
4.97378
4.85005
4.73634
4.62667
4.5363
4.45145
4.37784
4.29532
4.20792
4.108
4.00652
3.89437
3.79468
3.68165
3.58682
3.48747
3.34666
3.26514
3.76462
5.4432
5.37093
4.99039
4.86769
4.75652
4.64947
4.56167
4.4796
4.40464
4.31979
4.23096
4.12808
4.02539
3.91185
3.81224
3.69967
3.60411
3.50733
3.37546
3.26812
3.57958
5.26938
5.36423
5.00637
4.88521
4.77626
4.67296
4.58773
4.50887
4.4316
4.34559
4.25509
4.14935
4.04446
3.93293
3.83018
3.71847
3.62168
3.52591
3.40415
3.27757
3.44561
5.04878
5.33101
5.02208
4.90289
4.79595
4.69618
4.6139
4.53809
4.45925
4.37276
4.28038
4.17294
4.0661
3.95507
3.84978
3.73952
3.64285
3.54469
3.43373
3.28854
3.36477
4.77524
5.299
5.03851
4.92113
4.81571
4.71886
4.63953
4.5662
4.48605
4.40115
4.30692
4.19753
4.08835
3.98091
3.87204
3.76287
3.66533
3.56387
3.46488
3.2987
3.33312
4.47844
5.2491
5.0559
4.94013
4.8359
4.74165
4.66409
4.59273
4.51306
4.42994
4.33409
4.22373
4.11434
4.00785
3.89658
3.79037
3.68999
3.58732
3.49347
3.3153
3.32611
4.18448
5.16846
5.07454
4.95957
4.8564
4.76438
4.68779
4.61806
4.53919
4.45875
4.3616
4.25091
4.1416
4.03785
3.92346
3.82149
3.71408
3.61765
3.51758
3.35159
3.33722
3.91998
5.04379
5.09447
4.98018
4.87761
4.78676
4.71143
4.6427
4.5658
4.48666
4.38922
4.27938
4.17229
4.06783
3.95306
3.85438
3.74318
3.64754
3.54561
3.40063
3.34655
3.70915
4.91262
5.11545
5.0016
4.89943
4.80875
4.73523
4.66693
4.5925
4.51404
4.41741
4.30814
4.20479
4.09794
3.98612
3.8844
3.77679
3.67478
3.58054
3.4471
3.36141
3.56921
4.73818
5.1373
5.02404
4.92144
4.83118
4.75921
4.69175
4.61986
4.54159
4.44517
4.33787
4.2378
4.1288
4.01836
3.91609
3.81178
3.7053
3.61715
3.49665
3.38576
3.4917
4.50369
5.15956
5.04639
4.94354
4.85368
4.78329
4.71753
4.64775
4.569
4.47398
4.3675
4.26995
4.15911
4.05224
3.94721
3.84819
3.7384
3.65673
3.54407
3.4155
3.45988
4.23086
5.18196
5.06838
4.96553
4.87623
4.80754
4.74428
4.67579
4.59725
4.50322
4.39812
4.30038
4.18965
4.08603
3.98092
3.8849
3.77486
3.69709
3.58903
3.44956
3.45814
3.97838
5.20384
5.08992
4.98708
4.89852
4.83204
4.77116
4.70408
4.62608
4.53347
4.4296
4.32987
4.22118
4.11978
4.01777
3.92127
3.81509
3.73447
3.63221
3.48666
3.45673
3.77951
5.22526
5.11112
5.00803
4.92091
4.8563
4.7979
4.73218
4.65509
4.56459
4.46168
4.36056
4.25435
4.15537
4.05655
3.95913
3.85646
3.76857
3.67058
3.52493
3.45658
3.63886
5.2464
5.13206
5.02897
4.94351
4.88022
4.82405
4.76006
4.68434
4.59638
4.49511
4.3933
4.2913
4.19255
4.09759
3.99714
3.89586
3.79958
3.7031
3.56106
3.46089
3.55045
5.26742
5.15276
5.05006
4.96603
4.90344
4.84957
4.78721
4.71425
4.62938
4.5299
4.42938
4.33207
4.23212
4.138
4.03393
3.9318
3.82497
3.73281
3.59357
3.47292
3.50842
5.28778
5.17328
5.07155
4.98829
4.926
4.87434
4.81434
4.7458
4.66453
4.56712
4.46954
4.37532
4.27302
4.17644
4.06732
3.96302
3.84934
3.75786
3.62525
3.48848
3.49676
5.30699
5.19354
5.09259
5.00975
4.94808
4.89836
4.84285
4.77952
4.70271
4.60848
4.5121
4.41891
4.31285
4.21007
4.09911
3.98772
3.87332
3.77827
3.65891
3.50734
3.49621
5.32498
5.21332
5.11289
5.03028
4.96949
4.92288
4.87446
4.81746
4.74492
4.65245
4.55603
4.45914
4.34795
4.24059
4.12526
4.01044
3.89645
3.79909
3.69087
3.54075
3.50108
5.34268
5.23286
5.13213
5.04929
4.99148
4.9501
4.91012
4.85987
4.79037
4.69841
4.59688
4.49466
4.37773
4.26548
4.14941
4.03218
3.9176
3.82236
3.72354
3.58371
3.51113
5.36031
5.25241
5.15115
5.06768
5.0151
4.98211
4.9508
4.90529
4.83503
4.74142
4.63442
4.5239
4.40274
4.28678
4.17065
4.05357
3.94325
3.84648
3.75677
3.63188
3.5291
5.37826
5.27241
5.16986
5.08698
5.04329
5.01929
4.99508
4.95003
4.87684
4.77881
4.66486
4.54905
4.42399
4.30564
4.19345
4.07693
3.97106
3.87571
3.78959
3.67968
3.56469
5.39662
5.29258
5.19098
5.11116
5.07591
5.05909
5.03602
4.98882
4.91157
4.80916
4.68991
4.57009
4.4457
4.32608
4.21721
4.10576
4.00244
3.90963
3.82302
3.72199
3.61245
5.41663
5.31456
5.2171
5.14119
5.1111
5.09547
5.06972
5.01804
4.93793
4.83262
4.71052
4.59078
4.46866
4.34997
4.24719
4.13922
4.03941
3.94595
3.85782
3.76296
3.65635
5.4393
5.34099
5.24926
5.17691
5.14403
5.12207
5.09084
5.03627
4.95602
4.85249
4.73061
4.61288
4.49617
4.38056
4.28114
4.17938
4.07988
3.98412
3.89451
3.79942
3.70033
5.46669
5.37469
5.28773
5.21254
5.16777
5.13545
5.09982
5.04539
4.96868
4.87031
4.75178
4.63893
4.52969
4.4187
4.32158
4.22356
4.12135
4.02507
3.93029
3.8366
3.74255
5.50096
5.41286
5.3221
5.23977
5.17993
5.13971
5.10155
5.04954
4.97871
4.8877
4.77681
4.67087
4.56986
4.46294
4.36616
4.26925
4.16362
4.06526
3.96559
3.87525
3.77903
5.53801
5.44683
5.34713
5.25606
5.18249
5.13653
5.0981
5.05189
4.9894
4.90787
4.8075
4.7082
4.6121
4.50831
4.40988
4.31276
4.20501
4.10278
4.00255
3.91059
3.81912
5.57353
5.47046
5.35921
5.25869
5.1755
5.129
5.09419
5.0563
5.00592
4.93514
4.84442
4.74749
4.65284
4.55079
4.44918
4.35139
4.24309
4.13851
4.03993
3.9439
3.85995
5.59383
5.47931
5.35875
5.25197
5.16459
5.11924
5.09361
5.06876
5.03088
4.96941
4.88459
4.7876
4.6904
4.58841
4.48438
4.3853
4.27819
4.17322
4.07636
3.9793
3.8961
5.5987
5.47724
5.35269
5.24476
5.1551
5.11187
5.10035
5.08983
5.06428
5.00871
4.92753
4.82806
4.72718
4.62359
4.51738
4.41733
4.31178
4.20701
4.1128
4.01714
3.9296
5.59575
5.47134
5.34504
5.2423
5.15064
5.11045
5.11422
5.11296
5.09763
5.04829
4.97147
4.87022
4.76414
4.65951
4.55035
4.45013
4.34642
4.24278
4.14923
4.05541
3.96373
5.5875
5.46524
5.33944
5.24813
5.1585
5.12049
5.12773
5.13033
5.12315
5.08353
5.01309
4.91314
4.80465
4.69812
4.58643
4.48506
4.38441
4.28047
4.1871
4.09395
4.00004
5.57787
5.46585
5.34984
5.26553
5.17454
5.13445
5.13413
5.14066
5.14023
5.11199
5.05078
4.95638
4.84616
4.73888
4.62522
4.52319
4.42474
4.31972
4.22606
4.13204
4.03495
5.57981
5.47802
5.36927
5.28272
5.19105
5.14469
5.13407
5.14478
5.15175
5.13644
5.08473
4.99745
4.88741
4.77995
4.66674
4.56184
4.46502
4.35954
4.26362
4.16993
4.07088
5.58733
5.49279
5.38865
5.29587
5.20461
5.14852
5.1291
5.1446
5.16192
5.15817
5.11614
5.03644
4.92886
4.82128
4.70817
4.60091
4.50401
4.39815
4.29967
4.206
4.10618
5.59221
5.50016
5.4004
5.30334
5.21649
5.14784
5.124
5.13695
5.1658
5.1764
5.14498
5.07522
4.97222
4.86315
4.75029
4.63956
4.54166
4.43549
4.33401
4.24105
4.14027
5.58826
5.50238
5.40899
5.31193
5.22731
5.1464
5.12023
5.12532
5.16214
5.18734
5.17251
5.11387
5.01762
4.90658
4.79373
4.67923
4.57845
4.47271
4.36841
4.27606
4.17576
5.56695
5.49239
5.414
5.32484
5.24044
5.15027
5.11799
5.11492
5.15176
5.19128
5.1967
5.15101
5.06294
4.9524
4.83802
4.72058
4.61555
4.51068
4.40456
4.31159
4.21273
5.54178
5.47765
5.41159
5.33269
5.25013
5.15753
5.11798
5.10362
5.13573
5.18679
5.21594
5.1841
5.10803
4.99978
4.88279
4.76361
4.65437
4.54932
4.44225
4.34785
4.24999
5.51771
5.46128
5.4036
5.33289
5.25413
5.16399
5.11338
5.08612
5.1119
5.18164
5.22727
5.21387
5.15023
5.04747
4.92891
4.80813
4.69395
4.58843
4.48076
4.38397
4.28677
2.94304
2.16285
1.83837
1.63413
1.53976
1.50567
1.47962
1.47174
1.45816
1.43819
1.42288
1.4153
1.41197
1.40525
1.3919
1.37369
1.35668
1.34329
1.32862
1.31249
1.30064
1.29045
1.27552
1.25594
1.23322
1.21687
1.21214
1.2062
1.19945
1.19591
1.19469
1.1934
1.18945
1.1827
1.17659
1.17591
1.18071
1.19059
1.21032
1.25712
1.35385
1.44334
1.46408
1.47214
1.47425
1.46684
1.45474
1.44347
1.43901
1.43726
1.43067
1.4215
1.41293
1.40387
1.39239
1.37603
1.35824
1.34496
1.33577
1.3277
1.32045
1.31241
1.30038
1.28493
1.2694
1.25655
1.24724
1.24034
1.23259
1.22084
1.20539
1.18961
1.17697
1.16835
1.16392
1.16519
1.16878
1.17189
1.17142
1.16562
1.15167
1.12954
1.11133
1.1037
1.09982
1.09703
1.09788
1.10257
1.10581
1.10283
1.09518
1.08569
1.07294
1.06314
1.05675
1.05309
1.05571
1.06098
1.06129
1.05707
1.05096
1.0434
1.0363
1.02981
1.02396
1.02073
1.02264
1.02928
1.04172
1.07465
1.15681
1.25822
1.32641
1.35994
1.38338
1.40273
1.41827
1.42795
1.43052
1.42793
1.42448
1.42445
1.42929
1.43749
1.44587
1.44532
1.43279
1.42081
1.41201
1.40539
1.4012
1.39907
1.39729
1.39671
1.39836
1.3949
1.38345
1.37241
1.36264
1.3544
1.35065
1.35605
1.3576
1.34865
1.34006
1.33346
1.3272
1.32226
1.32356
1.32589
1.31984
1.31207
1.30486
1.29791
1.28954
1.28172
1.27638
1.27128
1.26966
1.2704
1.27211
1.27438
1.27744
1.28009
1.27603
1.26446
1.25262
1.24574
1.24059
1.23538
1.24278
1.24715
1.24469
1.24211
1.24162
1.24131
1.23797
1.23741
1.23862
1.23598
1.23108
1.22406
1.23579
1.2413
1.22922
1.23219
1.23814
1.24859
1.23378
1.21388
1.20998
1.20163
1.18765
1.17689
1.17287
1.17216
1.16808
1.15524
1.13232
1.10063
1.05827
1.01169
0.993968
0.999184
1.0041
1.00709
1.00872
1.01014
1.01096
1.01187
1.01385
1.01934
1.03176
1.05055
1.0699
1.08981
1.11276
1.13794
1.15551
1.14936
1.13279
1.12074
1.12077
1.1336
1.15112
1.16719
1.17852
1.18049
1.17334
1.16396
3.51752
2.68929
2.23221
1.91779
1.71118
1.56794
1.44719
1.39834
1.38446
1.36852
1.36348
1.36399
1.36698
1.36034
1.34522
1.32964
1.32331
1.31834
1.31252
1.30413
1.29297
1.28232
1.26986
1.25595
1.24067
1.22487
1.21711
1.21074
1.20382
1.1983
1.19327
1.18825
1.18344
1.1789
1.17558
1.17569
1.18059
1.1901
1.20871
1.2459
1.32872
1.42837
1.45683
1.467
1.47404
1.47274
1.46379
1.45227
1.44122
1.43464
1.42786
1.42014
1.41221
1.40165
1.38949
1.37665
1.36315
1.35161
1.34168
1.33106
1.31911
1.30672
1.29348
1.27939
1.26614
1.25491
1.2458
1.23952
1.23459
1.22787
1.21836
1.20614
1.19193
1.17815
1.16686
1.16068
1.15991
1.16115
1.16171
1.15897
1.15102
1.1391
1.12529
1.11314
1.10526
1.10066
1.09876
1.09958
1.09784
1.09209
1.08617
1.08007
1.07478
1.06986
1.06523
1.06187
1.06062
1.0597
1.05646
1.05124
1.04646
1.04197
1.03795
1.03431
1.03121
1.0277
1.02529
1.02493
1.03227
1.05907
1.13626
1.24123
1.3229
1.36702
1.39256
1.40905
1.41934
1.4249
1.42734
1.42764
1.42784
1.43008
1.4337
1.43918
1.44981
1.45084
1.4353
1.42156
1.41103
1.40255
1.39643
1.39512
1.3967
1.3985
1.39985
1.39356
1.382
1.37181
1.36284
1.35505
1.35043
1.35425
1.35484
1.34552
1.33644
1.32936
1.32308
1.31787
1.31692
1.3204
1.3165
1.31099
1.30557
1.30052
1.29451
1.28726
1.28094
1.27508
1.27109
1.27109
1.27287
1.27524
1.27772
1.27661
1.2705
1.26038
1.25379
1.25127
1.24782
1.24177
1.24061
1.24368
1.24359
1.24427
1.24585
1.24612
1.24496
1.23676
1.23381
1.234
1.22949
1.22364
1.23582
1.24105
1.22686
1.22707
1.2339
1.24632
1.23742
1.21583
1.21112
1.20521
1.19936
1.1957
1.1888
1.17906
1.16888
1.15597
1.13614
1.10701
1.0658
1.01704
0.992091
0.993721
0.997599
0.997976
0.999597
1.00355
1.00972
1.01852
1.02777
1.03514
1.04013
1.0446
1.05415
1.06785
1.08269
1.09863
1.11637
1.13591
1.14676
1.14639
1.14172
1.14006
1.14444
1.15451
1.16319
1.16416
1.15808
1.14964
3.84213
3.03418
2.48907
2.10526
1.81919
1.63694
1.49952
1.39964
1.3727
1.36489
1.35417
1.3406
1.33225
1.32002
1.30816
1.3086
1.31627
1.32428
1.32566
1.32147
1.30946
1.29442
1.27552
1.25787
1.24029
1.22552
1.21877
1.21097
1.20283
1.19823
1.19464
1.1898
1.18428
1.17959
1.17788
1.17834
1.18271
1.19113
1.206
1.24068
1.31441
1.41917
1.46016
1.47041
1.47498
1.47188
1.46338
1.4532
1.44507
1.43888
1.43035
1.41998
1.40634
1.38923
1.37656
1.36801
1.35868
1.35096
1.34565
1.33877
1.32878
1.31578
1.29918
1.28025
1.26236
1.24775
1.2357
1.22645
1.22184
1.21983
1.21729
1.21311
1.2069
1.19856
1.18798
1.17546
1.16219
1.15025
1.14204
1.13771
1.13631
1.13394
1.13054
1.12727
1.12324
1.11737
1.10915
1.09906
1.0888
1.07949
1.07131
1.06541
1.06344
1.06518
1.06938
1.0734
1.07167
1.06459
1.05476
1.04477
1.03768
1.03282
1.03144
1.03305
1.03516
1.03586
1.0322
1.02545
1.0253
1.0409
1.10085
1.20999
1.31846
1.38146
1.4072
1.4183
1.4224
1.42359
1.42392
1.42477
1.42809
1.43383
1.43858
1.44234
1.45166
1.45229
1.43775
1.42275
1.41124
1.40191
1.3945
1.39158
1.39466
1.40061
1.40343
1.39422
1.38285
1.37297
1.36439
1.35759
1.35533
1.36031
1.35782
1.34825
1.33788
1.32826
1.3217
1.31579
1.31218
1.31547
1.3138
1.30906
1.30493
1.30059
1.29564
1.29061
1.28527
1.27881
1.2728
1.27223
1.27387
1.27227
1.2739
1.27508
1.26928
1.25885
1.25266
1.2519
1.2461
1.23653
1.24074
1.24769
1.24867
1.2465
1.24605
1.25234
1.2497
1.23184
1.2273
1.23268
1.2307
1.22344
1.22668
1.23456
1.21827
1.21515
1.22118
1.23003
1.23996
1.21923
1.21536
1.21255
1.20045
1.18105
1.16252
1.15091
1.14386
1.13744
1.12826
1.10983
1.07515
1.02943
0.998471
0.990966
0.987853
0.981926
0.97992
0.984018
0.993349
1.00712
1.02484
1.04335
1.05845
1.07021
1.08024
1.08919
1.09471
1.09765
1.10501
1.12317
1.14712
1.16076
1.16259
1.1598
1.15898
1.16095
1.15984
1.15444
1.14981
1.14602
4.14423
3.40916
2.84893
2.42357
2.09703
1.86
1.68387
1.5274
1.43395
1.37485
1.30792
1.27659
1.26449
1.25584
1.25933
1.26507
1.27884
1.28956
1.29904
1.29942
1.29244
1.28645
1.27943
1.26916
1.25092
1.23023
1.21912
1.20922
1.20018
1.19591
1.19255
1.18763
1.18215
1.17931
1.1795
1.18088
1.18443
1.19147
1.20261
1.22791
1.28653
1.38516
1.44758
1.46335
1.47059
1.47037
1.46507
1.45505
1.44329
1.43645
1.43064
1.42247
1.41052
1.39328
1.3758
1.36453
1.35653
1.35017
1.34488
1.3367
1.32481
1.31148
1.29721
1.28148
1.26625
1.25372
1.24327
1.2336
1.2248
1.21757
1.21171
1.20621
1.2002
1.19358
1.18664
1.17946
1.17124
1.16137
1.15073
1.14062
1.13261
1.12646
1.12293
1.12179
1.12089
1.1186
1.11414
1.1072
1.09792
1.08794
1.07872
1.07008
1.06393
1.06301
1.06684
1.07109
1.06978
1.06422
1.05731
1.04974
1.04211
1.03586
1.03279
1.03409
1.03452
1.03396
1.03032
1.02541
1.02268
1.03134
1.07228
1.17296
1.30138
1.39662
1.42465
1.43292
1.43489
1.43487
1.43301
1.43126
1.43261
1.43608
1.44051
1.44504
1.45031
1.44706
1.43398
1.42036
1.40997
1.40167
1.39475
1.39159
1.3957
1.40208
1.40106
1.39091
1.38058
1.37168
1.36371
1.3577
1.35718
1.36042
1.3548
1.3467
1.33734
1.32868
1.323
1.31786
1.31409
1.31602
1.31377
1.30996
1.30712
1.30296
1.29689
1.2917
1.28675
1.27934
1.27377
1.27419
1.27235
1.26909
1.27062
1.27069
1.266
1.25841
1.25711
1.2574
1.24663
1.23489
1.23672
1.24289
1.24553
1.24319
1.24744
1.25688
1.25304
1.23716
1.22628
1.22926
1.23524
1.23505
1.23332
1.237
1.22028
1.20807
1.21115
1.21537
1.23228
1.22967
1.21993
1.21732
1.20435
1.17726
1.14955
1.12922
1.11897
1.11486
1.11094
1.09982
1.0747
1.04149
1.01739
1.00428
0.991413
0.974846
0.963936
0.96136
0.964629
0.978295
1.00232
1.02938
1.05172
1.0672
1.07783
1.0872
1.09562
1.10019
1.10502
1.11818
1.14243
1.16621
1.17506
1.17127
1.1631
1.15441
1.14605
1.1381
1.13261
1.13065
4.38141
3.72309
3.18088
2.72628
2.35862
2.08538
1.87004
1.67256
1.52926
1.42444
1.33359
1.26915
1.2428
1.23866
1.2299
1.21879
1.22476
1.23589
1.24885
1.25023
1.24923
1.25438
1.25826
1.25431
1.24788
1.24472
1.24071
1.23332
1.224
1.21279
1.2003
1.18697
1.17515
1.17056
1.17169
1.17519
1.1803
1.18889
1.20139
1.22125
1.2657
1.34856
1.44146
1.46901
1.47396
1.47292
1.46768
1.45721
1.4442
1.43419
1.42569
1.41556
1.40309
1.38934
1.37642
1.36662
1.35978
1.35422
1.34752
1.33743
1.32335
1.30655
1.28923
1.27334
1.26074
1.25206
1.24592
1.24059
1.23491
1.22863
1.22178
1.21366
1.20324
1.19098
1.17876
1.16827
1.16034
1.155
1.15154
1.14867
1.14436
1.13831
1.13106
1.12256
1.11384
1.10631
1.1008
1.09609
1.09119
1.08643
1.08216
1.07857
1.07684
1.07653
1.07337
1.06718
1.06091
1.0552
1.05073
1.04683
1.04311
1.04072
1.04211
1.04316
1.03793
1.03235
1.02743
1.02128
1.01743
1.02106
1.04441
1.12886
1.27207
1.41442
1.44859
1.44642
1.44317
1.44365
1.4428
1.4417
1.44212
1.44175
1.44188
1.44414
1.44568
1.44152
1.43064
1.41777
1.40782
1.40024
1.39478
1.39618
1.40524
1.40751
1.39914
1.38903
1.37953
1.37116
1.36417
1.3598
1.36103
1.35888
1.35222
1.34472
1.33448
1.32547
1.32037
1.31636
1.31457
1.31648
1.3133
1.31035
1.3091
1.30518
1.29951
1.29525
1.28963
1.28077
1.27803
1.27859
1.27087
1.26372
1.26513
1.26598
1.26091
1.25483
1.25827
1.2594
1.24831
1.23656
1.2367
1.24035
1.24093
1.23885
1.24586
1.25019
1.24414
1.23831
1.23413
1.23467
1.24157
1.24749
1.24898
1.24866
1.2331
1.20681
1.2055
1.20697
1.2179
1.24308
1.22676
1.21807
1.20846
1.18446
1.15058
1.1214
1.10352
1.09348
1.08591
1.07504
1.05736
1.03864
1.02921
1.02083
1.00579
0.982948
0.968296
0.9624
0.959371
0.963454
0.979678
1.00427
1.03075
1.052
1.06734
1.08174
1.09814
1.1127
1.12022
1.13127
1.15197
1.17375
1.17622
1.16862
1.15724
1.14394
1.1334
1.12691
1.12269
1.12129
4.58167
3.99027
3.4708
3.02941
2.65214
2.35211
2.10314
1.88135
1.71456
1.5793
1.46821
1.35783
1.30142
1.26252
1.21743
1.19421
1.18556
1.18716
1.19014
1.19295
1.20049
1.2152
1.22457
1.22179
1.22167
1.22801
1.22809
1.2248
1.22253
1.21873
1.21151
1.20036
1.18713
1.178
1.17738
1.17948
1.1824
1.18611
1.19387
1.20562
1.2321
1.2977
1.38772
1.46001
1.47238
1.47391
1.4689
1.45844
1.44487
1.43333
1.42377
1.41251
1.39948
1.38649
1.37446
1.36503
1.35911
1.35405
1.3467
1.33553
1.32044
1.30286
1.28576
1.2718
1.26163
1.25418
1.24809
1.24239
1.23635
1.22982
1.22267
1.21402
1.20327
1.19133
1.18001
1.17056
1.16333
1.15755
1.15224
1.14831
1.14509
1.14068
1.13411
1.12578
1.11684
1.1079
1.09962
1.09388
1.08961
1.08556
1.08153
1.07869
1.0788
1.07904
1.07389
1.06669
1.05971
1.05408
1.04941
1.04563
1.04351
1.04361
1.04458
1.04301
1.03714
1.03075
1.02592
1.01966
1.01345
1.01283
1.0249
1.07811
1.21159
1.40077
1.47106
1.47113
1.46547
1.46386
1.45923
1.45285
1.44856
1.44387
1.4406
1.4406
1.44147
1.43827
1.42857
1.41709
1.40736
1.40036
1.39757
1.40354
1.40933
1.40422
1.39554
1.38608
1.37705
1.36987
1.36402
1.36205
1.36243
1.35751
1.3512
1.34294
1.33239
1.3252
1.32124
1.31849
1.31784
1.31684
1.31296
1.31075
1.30919
1.30414
1.29859
1.29428
1.28729
1.28027
1.28188
1.28093
1.27045
1.26393
1.26332
1.26191
1.25583
1.25372
1.25886
1.25803
1.25033
1.24337
1.24152
1.24188
1.24065
1.24111
1.246
1.24639
1.24069
1.23622
1.23544
1.23672
1.24055
1.24652
1.25207
1.25317
1.23719
1.21107
1.20132
1.20158
1.20913
1.22805
1.23194
1.21428
1.20463
1.18845
1.15797
1.12497
1.09955
1.08282
1.06969
1.05423
1.03354
1.02124
1.02371
1.02326
1.01001
0.985395
0.967672
0.960972
0.957628
0.956723
0.962562
0.98074
1.00906
1.03867
1.06128
1.07971
1.1001
1.12238
1.13675
1.1432
1.15846
1.16891
1.16438
1.15442
1.14209
1.12914
1.12147
1.11814
1.11642
1.11969
4.72645
4.19281
3.71938
3.28373
2.91191
2.60555
2.34034
2.09593
1.91183
1.75203
1.61169
1.482
1.39496
1.32098
1.25457
1.20953
1.18337
1.17233
1.15217
1.14351
1.14973
1.15914
1.16842
1.17765
1.18617
1.20408
1.21019
1.20975
1.21168
1.21192
1.20861
1.20119
1.1962
1.19578
1.19736
1.19964
1.19913
1.19452
1.1915
1.19148
1.20285
1.2455
1.327
1.42025
1.46966
1.47748
1.47356
1.463
1.44762
1.43302
1.41963
1.40576
1.39324
1.38253
1.37272
1.36374
1.35631
1.34908
1.33999
1.32841
1.31426
1.29876
1.28432
1.27312
1.26538
1.25952
1.2543
1.24889
1.2423
1.23362
1.22254
1.20977
1.19659
1.18489
1.17608
1.17024
1.16653
1.16336
1.15928
1.15403
1.14763
1.13867
1.12732
1.11698
1.11027
1.10568
1.10227
1.09931
1.09672
1.09384
1.09005
1.08526
1.07939
1.07272
1.06577
1.06007
1.05592
1.0528
1.05069
1.04985
1.05028
1.04858
1.0443
1.03977
1.03439
1.02811
1.02362
1.0197
1.01502
1.01354
1.01748
1.04207
1.13868
1.34128
1.48947
1.50406
1.49788
1.49442
1.48211
1.46502
1.45369
1.44436
1.43934
1.43843
1.4393
1.43673
1.42793
1.41813
1.40997
1.40489
1.40563
1.40972
1.40652
1.39966
1.39172
1.38268
1.37491
1.3688
1.36522
1.36587
1.3627
1.35684
1.34817
1.33732
1.32957
1.32584
1.32352
1.32219
1.32088
1.3187
1.31546
1.31229
1.30809
1.3014
1.2962
1.29139
1.28376
1.28102
1.28549
1.28188
1.26976
1.2629
1.26156
1.25948
1.25392
1.25516
1.25992
1.25711
1.25039
1.24663
1.24535
1.24373
1.24113
1.24104
1.24169
1.23916
1.23557
1.2333
1.23367
1.23634
1.24007
1.24363
1.24441
1.24327
1.22893
1.20315
1.20229
1.20167
1.20509
1.21588
1.23284
1.21677
1.19841
1.18392
1.16142
1.1328
1.10385
1.08052
1.0624
1.04199
1.01494
1.00081
1.00621
1.01548
1.00922
0.99118
0.973096
0.96558
0.963556
0.962632
0.963249
0.97321
0.998473
1.03302
1.06235
1.0833
1.10346
1.12634
1.14529
1.14995
1.15699
1.15761
1.15014
1.14029
1.12947
1.12043
1.11595
1.11435
1.11545
1.1237
4.85
4.35839
3.90934
3.50266
3.14805
2.84569
2.56438
2.31141
2.11636
1.94728
1.79325
1.6467
1.54901
1.44976
1.36617
1.28744
1.24383
1.20977
1.16908
1.14255
1.12753
1.118
1.11433
1.12082
1.13706
1.16105
1.17764
1.18609
1.19045
1.19621
1.19806
1.19597
1.19466
1.19757
1.20562
1.20859
1.2079
1.20391
1.19597
1.18797
1.18886
1.20802
1.26421
1.36236
1.45158
1.47799
1.47807
1.46926
1.44991
1.42934
1.41256
1.39782
1.3869
1.37877
1.37115
1.3623
1.35401
1.34624
1.33717
1.32557
1.31173
1.29856
1.28712
1.27803
1.27107
1.26526
1.26001
1.25449
1.24666
1.23516
1.22065
1.20567
1.1927
1.18312
1.17684
1.1729
1.1704
1.16815
1.1652
1.16068
1.15221
1.13818
1.12228
1.11329
1.10964
1.10694
1.1046
1.10272
1.10072
1.09802
1.09327
1.08532
1.07574
1.06799
1.06255
1.0585
1.0554
1.05393
1.05451
1.05515
1.05316
1.04859
1.04286
1.03686
1.03138
1.02656
1.02293
1.02029
1.01863
1.01825
1.01706
1.02376
1.07545
1.25345
1.48139
1.5393
1.53906
1.52971
1.50624
1.47786
1.45744
1.44562
1.44033
1.43848
1.43949
1.43842
1.43092
1.42184
1.41467
1.41063