/*--------------------------------*- C++ -*----------------------------------*\
  =========                 |
  \\      /  F ield         | OpenFOAM: The Open Source CFD Toolbox
   \\    /   O peration     | Website:  https://openfoam.org
    \\  /    A nd           | Version:  7
     \\/     M anipulation  |
\*---------------------------------------------------------------------------*/
FoamFile
{
    version     2.0;
    format      ascii;
    class       volScalarField;
    location    "1.7";
    object      rho;
}
// * * * * * * * * * * * * * * * * * * * * * * * * * * * * * * * * * * * * * //

dimensions      [1 -3 0 0 0 0 0];

internalField   nonuniform List<scalar> 
4128
(
1.40001
1.40001
1.40001
1.40001
1.40001
1.40001
1.40001
1.40001
1.40001
1.40001
1.40001
1.40001
1.40001
1.40001
1.40001
1.40001
1.40001
1.80787
4.69371
5.52451
5.6024
5.71179
5.80235
5.8821
1.40001
1.40001
1.40001
1.40001
1.40001
1.40001
1.40001
1.40001
1.40001
1.40001
1.40001
1.40001
1.40001
1.40001
1.40001
1.40001
1.40001
1.73797
4.56858
5.49244
5.56829
5.66878
5.75003
5.78963
1.40001
1.40001
1.40001
1.40001
1.40001
1.40001
1.40001
1.40001
1.40001
1.40001
1.40001
1.40001
1.40001
1.40001
1.40001
1.40001
1.40001
1.5938
4.35826
5.45034
5.4984
5.56365
5.59842
5.64302
1.40001
1.40001
1.40001
1.40001
1.40001
1.40001
1.40001
1.40001
1.40001
1.40001
1.40001
1.40001
1.40001
1.40001
1.40001
1.40001
1.40001
1.42417
3.97506
5.36491
5.3922
5.44102
5.42836
5.47567
1.40001
1.40001
1.40001
1.40001
1.40001
1.40001
1.40001
1.40001
1.40001
1.40001
1.40001
1.40001
1.40001
1.40001
1.40001
1.40001
1.40001
1.40025
3.39075
5.19897
5.23765
5.22507
4.97143
4.21058
1.40001
1.40001
1.40001
1.40001
1.40001
1.40001
1.40001
1.40001
1.40001
1.40001
1.40001
1.40001
1.40001
1.40001
1.40001
1.40001
1.40001
1.4
2.6702
4.98822
5.13201
5.01383
4.71085
3.97604
1.40001
1.40001
1.40001
1.40001
1.40001
1.40001
1.40001
1.40001
1.40001
1.40001
1.40001
1.40001
1.40001
1.40001
1.40001
1.40001
1.40001
1.4
1.89427
4.64643
5.09898
4.87428
4.54837
3.83469
1.40001
1.40001
1.40001
1.40001
1.40001
1.40001
1.40001
1.40001
1.40001
1.40001
1.40001
1.40001
1.40001
1.40001
1.40001
1.40001
1.40001
1.4
1.454
3.8133
4.9111
4.68478
4.39323
3.79617
1.40001
1.40001
1.40001
1.40001
1.40001
1.40001
1.40001
1.40001
1.40001
1.40001
1.40001
1.40001
1.40001
1.40001
1.40001
1.40001
1.40001
1.40001
1.40007
2.62639
4.65854
4.64113
4.32176
3.83783
1.40001
1.40001
1.40001
1.40001
1.40001
1.40001
1.40001
1.40001
1.40001
1.40001
1.40001
1.40001
1.40001
1.40001
1.40001
1.40001
1.40001
1.40001
1.4
1.64492
3.99112
4.68082
4.33226
3.90119
1.40001
1.40001
1.40001
1.40001
1.40001
1.40001
1.40001
1.40001
1.40001
1.40001
1.40001
1.40001
1.40001
1.40001
1.40001
1.40001
1.40001
1.40001
1.4
1.40733
2.71886
4.48661
4.36181
3.96793
1.40001
1.40001
1.40001
1.40001
1.40001
1.40001
1.40001
1.40001
1.40001
1.40001
1.40001
1.40001
1.40001
1.40001
1.40001
1.40001
1.40001
1.40001
1.4
1.40002
1.66076
3.73191
4.46252
4.07024
1.40001
1.40001
1.40001
1.40001
1.40001
1.40001
1.40001
1.40001
1.40001
1.40001
1.40001
1.40001
1.40001
1.40001
1.40001
1.40001
1.40001
1.40001
1.40001
1.40001
1.40846
2.34264
4.1512
4.13804
1.40001
1.40001
1.40001
1.40001
1.40001
1.40001
1.40001
1.40001
1.40001
1.40001
1.40001
1.40001
1.40001
1.40001
1.40001
1.40001
1.40001
1.40001
1.40001
1.40001
1.40005
1.52635
3.13079
4.13413
1.40001
1.40001
1.40001
1.40001
1.40001
1.40001
1.40001
1.40001
1.40001
1.40001
1.40001
1.40001
1.40001
1.40001
1.40001
1.40001
1.40001
1.40001
1.40001
1.40001
1.40001
1.40263
1.85958
3.54988
1.40001
1.40001
1.40001
1.40001
1.40001
1.40001
1.40001
1.40001
1.40001
1.40001
1.40001
1.40001
1.40001
1.40001
1.40001
1.40001
1.40001
1.40001
1.40001
1.40001
1.40001
1.40002
1.4288
2.24882
1.40001
1.40001
1.40001
1.40001
1.40001
1.40001
1.40001
1.40001
1.40001
1.40001
1.40001
1.40001
1.40001
1.40001
1.40001
1.40001
1.40001
1.40001
1.40001
1.40001
1.40001
1.40001
1.40037
1.50015
1.40001
1.40001
1.40001
1.40001
1.40001
1.40001
1.40001
1.40001
1.40001
1.40001
1.40001
1.40001
1.40001
1.40001
1.40001
1.40001
1.40001
1.40001
1.40001
1.40001
1.40001
1.40001
1.40001
1.40239
1.40001
1.40001
1.40001
1.40001
1.40001
1.40001
1.40001
1.40001
1.40001
1.40001
1.40001
1.40001
1.40001
1.40001
1.40001
1.40001
1.40001
1.40001
1.40001
1.40001
1.40001
1.40001
1.40001
1.40002
1.40001
1.40001
1.40001
1.40001
1.40001
1.40001
1.40001
1.40001
1.40001
1.40001
1.40001
1.40001
1.40001
1.40001
1.40001
1.40001
1.40001
1.40001
1.40001
1.40001
1.40001
1.40001
1.40001
1.40001
1.40001
1.40001
1.40001
1.40001
1.40001
1.40001
1.40001
1.40001
1.40001
1.40001
1.40001
1.40001
1.40001
1.40001
1.40001
1.40001
1.40001
1.40001
1.40001
1.40001
1.40001
1.40001
1.40001
1.40001
1.40001
1.40001
1.40001
1.40001
1.40001
1.40001
1.40001
1.40001
1.40001
1.40001
1.40001
1.40001
1.40001
1.40001
1.40001
1.40001
1.40001
1.40001
1.40001
1.40001
1.40001
1.40001
1.40001
1.40001
1.40001
1.40001
1.40001
1.40001
1.40001
1.40001
1.40001
1.40001
1.40001
1.40001
1.40001
1.40001
1.40001
1.40001
1.40001
1.40001
1.40001
1.40001
1.40001
1.40001
1.40001
1.40001
1.40001
1.40001
1.40001
1.40001
1.40001
1.40001
1.40001
1.40001
1.40001
1.40001
1.40001
1.40001
1.40001
1.40001
1.40001
1.40001
1.40001
1.40001
1.40001
1.40001
1.40001
1.40001
1.40001
1.40001
1.40001
1.40001
1.40001
1.40001
1.40001
1.40001
1.40001
1.40001
1.40001
1.40001
1.40001
1.40001
1.40001
1.40001
1.40001
1.40001
1.40001
1.40001
1.40001
1.40001
1.40001
1.40001
1.40001
1.40001
1.40001
1.40001
1.40001
1.40001
1.40001
1.40001
1.40001
1.40001
1.40001
1.40001
1.40001
1.40001
1.40001
1.40001
1.40001
1.40001
1.40001
1.40001
1.40001
1.40001
1.40001
1.40001
1.40001
1.40001
1.40001
1.40001
1.40001
1.40001
1.40001
1.40001
1.40001
1.40001
1.40001
1.40001
1.40001
1.40001
1.40001
1.40001
1.40001
1.40001
1.40001
1.40001
1.40001
1.40001
1.40001
1.40001
1.40001
1.40001
1.40001
1.40001
1.40001
1.40001
1.40001
1.40001
1.40001
1.40001
1.40001
1.40001
1.40001
1.40001
1.40001
1.40001
1.40001
1.40001
1.40001
1.40001
1.40001
1.40001
1.40001
1.40001
1.40001
1.40001
1.40001
1.40001
1.40001
1.40001
1.40001
1.40001
1.40001
1.40001
1.40001
1.40001
1.40001
1.40001
1.40001
1.40001
1.40001
1.40001
1.40001
1.40001
1.40001
1.40001
1.40001
1.40001
1.40001
1.40001
1.40001
1.40001
1.40001
1.40001
1.40001
1.40001
1.40001
1.40001
1.40001
1.40001
1.40001
1.40001
1.40001
1.40001
1.40001
1.40001
1.40001
1.40001
1.40001
1.40001
1.40001
1.40001
1.40001
1.40001
1.40001
1.40001
1.40001
1.40001
1.40001
1.40001
1.40001
1.40001
1.40001
1.40001
1.40001
1.40001
1.40001
1.40001
1.40001
1.40001
1.40001
1.40001
1.40001
1.40001
1.40001
1.40001
1.40001
1.40001
1.40001
1.40001
1.40001
1.40001
1.40001
1.40001
1.40001
1.40001
1.40001
1.40001
1.40001
1.40001
1.40001
1.40001
1.40001
1.40001
1.40001
1.40001
1.40001
1.40001
1.40001
1.40001
1.40001
1.40001
1.40001
1.40001
1.40001
1.40001
1.40001
1.40001
1.40001
1.40001
1.40001
1.40001
1.40001
1.40001
1.40001
1.40001
1.40001
1.40001
1.40001
1.40001
1.40001
1.40001
1.40001
1.40001
1.40001
1.40001
1.40001
1.40001
1.40001
1.40001
1.40001
1.40001
1.40001
1.40001
1.40001
1.40001
1.40001
1.40001
1.40001
1.40001
1.40001
1.40001
1.40001
1.40001
1.40001
1.40001
1.40001
1.40001
1.40001
1.40001
1.40001
1.40001
1.40001
1.40001
1.40001
1.40001
1.40001
1.40001
1.40001
1.40001
1.40001
1.40001
1.40001
1.40001
1.40001
1.40001
1.40001
1.40001
1.40001
1.40001
1.40001
1.40001
1.40001
1.40001
1.40001
1.40001
1.40001
1.40001
1.40001
1.40001
1.40001
1.40001
1.40001
1.40001
1.40001
1.40001
1.40001
1.40001
1.40001
1.40001
1.40001
1.40001
1.40001
1.40001
1.40001
1.40001
1.40001
1.40001
1.40001
1.40001
1.40001
1.40001
1.40001
1.40001
1.40001
1.40001
1.40001
1.40001
1.40001
1.40001
1.40001
1.40001
1.40001
1.40001
1.40001
1.40001
1.40001
1.40001
1.40001
1.40001
1.40001
1.40001
1.40001
1.40001
1.40001
1.40001
1.40001
1.40001
1.40001
1.40001
1.40001
1.40001
1.40001
1.40001
1.40001
1.40001
1.40001
1.40001
1.40001
1.40001
1.40001
1.40001
1.40001
1.40001
1.40001
1.40001
1.40001
1.40001
1.40001
1.40001
1.40001
1.40001
1.40001
1.40001
1.40001
1.40001
1.40001
1.40001
1.40001
1.40001
1.40001
1.40001
1.40001
1.40001
1.40001
1.40001
1.40001
1.40001
1.40001
1.40001
1.40001
1.40001
1.40001
1.40001
1.40001
1.40001
1.40001
1.40001
1.40001
1.40001
1.40001
1.40001
1.40001
1.40001
1.40001
1.40001
1.40001
1.40001
1.40001
1.40001
1.40001
1.40001
1.40001
1.40001
1.40001
1.40001
1.59211
0.717429
0.476667
0.493861
0.512563
0.577571
0.705204
0.856699
0.956381
1.00925
1.04973
1.05867
1.07386
1.10177
1.12309
2.2122
2.82758
2.91216
2.98828
3.05326
3.10633
3.13518
3.13216
3.13336
2.31172
1.52712
1.1394
1.00862
0.896442
0.849386
0.845841
0.834909
0.861688
0.907635
0.957213
1.00659
1.04205
1.07859
1.10928
2.13789
2.83939
2.92448
2.99124
3.05221
3.10415
3.13101
3.11892
3.0967
2.78465
2.14219
1.69112
1.39437
1.19909
1.04999
0.984464
0.916372
0.885057
0.915378
0.969324
1.02701
1.05615
1.08667
1.11711
1.96752
2.88128
2.96505
3.00842
3.05533
3.09311
3.10065
3.05911
3.03747
3.09595
2.53536
2.11474
1.78696
1.54327
1.34362
1.22996
1.14009
1.03989
1.00763
0.995856
0.992806
1.00165
1.03175
1.06396
1.59879
2.87055
3.05304
3.06325
3.0849
3.09894
3.08916
3.01547
2.9882
3.31256
2.83456
2.42959
2.10652
1.82568
1.6083
1.46289
1.34704
1.22343
1.13001
1.07661
1.01719
0.994846
1.00525
1.01499
1.18841
2.67088
3.1137
3.1023
3.10082
3.08457
3.03332
2.84534
2.40166
3.45352
3.04099
2.66137
2.35178
2.08637
1.85483
1.68068
1.53996
1.40977
1.30259
1.23284
1.15851
1.07269
1.06141
1.04197
1.03989
2.12071
3.05406
3.10051
3.09709
3.06025
2.9654
2.77102
2.37087
3.55959
3.18825
2.86491
2.57307
2.29402
2.06597
1.89477
1.73825
1.58187
1.46586
1.37952
1.2904
1.19362
1.14202
1.10409
1.0567
1.49433
2.8749
3.1006
3.08503
3.03101
2.90889
2.7286
2.34904
3.69526
3.34889
3.04163
2.76379
2.49571
2.26387
2.08003
1.92227
1.75126
1.63397
1.53562
1.44066
1.32628
1.26137
1.22245
1.14184
1.17949
2.38632
3.06993
3.05953
2.99796
2.88019
2.69863
2.3836
3.82935
3.49603
3.19603
2.92646
2.68002
2.45184
2.25669
2.08678
1.91896
1.78399
1.68309
1.58245
1.46168
1.38856
1.34041
1.26016
1.1909
1.68804
2.96368
3.07034
2.99565
2.86502
2.6945
2.43522
3.98889
3.66949
3.3695
3.09382
2.84928
2.63177
2.43056
2.24911
2.08028
1.94224
1.82665
1.71604
1.59707
1.5201
1.46686
1.39275
1.27668
1.3354
2.46913
3.07412
3.01355
2.88152
2.71437
2.49742
4.03112
3.83831
3.53606
3.24625
3.01199
2.79761
2.58736
2.39827
2.23705
2.09242
1.97221
1.85714
1.72508
1.65242
1.58589
1.51253
1.39935
1.34856
1.75996
2.93951
3.0792
2.95057
2.78215
2.57921
3.71651
3.92625
3.7271
3.42672
3.16938
2.96215
2.74982
2.55279
2.39665
2.24787
2.11875
1.99973
1.87016
1.77693
1.70919
1.62943
1.52716
1.43218
1.4781
2.38866
3.12961
3.02882
2.84743
2.65337
2.59182
3.74128
3.84113
3.63548
3.34814
3.12201
2.9201
2.71865
2.54555
2.40544
2.2687
2.1373
2.00768
1.90578
1.83134
1.74506
1.64146
1.55931
1.5063
1.77232
2.83992
3.10345
2.95029
2.76566
1.60855
2.8316
3.72099
3.75892
3.56364
3.30819
3.07432
2.87759
2.72119
2.56199
2.40754
2.27586
2.15107
2.04451
1.95175
1.86266
1.74861
1.68786
1.60191
1.61216
2.2052
3.01645
3.04634
2.89933
1.40793
1.72808
2.95984
3.68678
3.69304
3.52007
3.27345
3.03872
2.86743
2.71247
2.56357
2.4272
2.29964
2.1746
2.08182
1.99469
1.86467
1.79766
1.73746
1.65443
1.75094
2.57854
3.08812
3.02259
1.40007
1.41782
1.81872
3.02091
3.64768
3.64083
3.48388
3.23322
3.03907
2.86369
2.68978
2.56555
2.45355
2.328
2.21858
2.11931
1.99389
1.90974
1.85984
1.74439
1.74317
2.01805
2.83239
3.11313
1.40001
1.40022
1.42846
1.87491
3.05351
3.59038
3.58352
3.43559
3.22839
3.04575
2.86321
2.6983
2.57219
2.45994
2.35768
2.26464
2.1359
2.02601
1.97461
1.89101
1.77941
1.80418
2.26175
2.95833
1.40001
1.40001
1.40043
1.43624
1.91768
2.99538
3.54613
3.55129
3.43366
3.22713
3.01678
2.8689
2.73667
2.59233
2.46708
2.38088
2.27799
2.16224
2.0949
2.03051
1.89419
1.83412
1.91141
2.47581
1.40001
1.40001
1.40001
1.4006
1.44378
1.89244
2.94631
3.50849
3.50127
3.41078
3.20988
3.02174
2.88157
2.73529
2.61784
2.52168
2.40196
2.27498
2.20639
2.14881
2.04898
1.92233
1.92036
2.05047
1.40001
1.40001
1.40001
1.40001
1.40081
1.44057
1.85783
2.88845
3.41793
3.46256
3.39375
3.22575
3.05829
2.87722
2.73093
2.64474
2.54488
2.42305
2.32467
2.26019
2.16552
2.054
1.97756
1.98615
1.40001
1.40001
1.40001
1.40001
1.40001
1.40073
1.43564
1.82864
2.75732
3.35308
3.43745
3.39376
3.25328
3.04838
2.88576
2.78256
2.66454
2.52475
2.44616
2.38254
2.29406
2.17315
2.09709
2.03063
1.40001
1.40001
1.40001
1.40001
1.40001
1.40001
1.40066
1.43159
1.76695
2.61221
3.28812
3.40654
3.38018
3.2442
3.04061
2.91321
2.80573
2.6708
2.56883
2.49216
2.3992
2.28612
2.22367
2.15818
1.40001
1.40001
1.40001
1.40001
1.40001
1.40001
1.40001
1.40055
1.42386
1.69204
2.4516
3.20879
3.37427
3.34216
3.21576
3.07767
2.93766
2.79698
2.7048
2.61785
2.51847
2.3945
2.32452
2.28081
1.40001
1.40001
1.40001
1.40001
1.40001
1.40001
1.40001
1.40001
1.40035
1.41645
1.61613
2.29877
3.13526
3.30028
3.28431
3.24124
3.11782
2.9436
2.82179
2.73028
2.63617
2.50873
2.45065
2.39643
1.40001
1.40001
1.40001
1.40001
1.40001
1.40001
1.40001
1.40001
1.40001
1.40021
1.41066
1.5539
2.19176
2.95874
3.22945
3.27863
3.24784
3.11487
2.96079
2.85795
2.74793
2.62163
2.56542
2.5096
1.40001
1.40001
1.40001
1.40001
1.40001
1.40001
1.40001
1.40001
1.40001
1.40001
1.40012
1.40663
1.50983
2.05228
2.74426
3.17909
3.27005
3.2394
3.12178
3.00872
2.87248
2.73644
2.67243
2.60328
1.40001
1.40001
1.40001
1.40001
1.40001
1.40001
1.40001
1.40001
1.40001
1.40001
1.40001
1.40007
1.40368
1.47623
1.85767
2.50082
3.13915
3.24551
3.21782
3.13239
3.01992
2.88786
2.7941
2.70311
1.40001
1.40001
1.40001
1.40001
1.40001
1.40001
1.40001
1.40001
1.40001
1.40001
1.40001
1.40001
1.40003
1.40192
1.43981
1.67648
2.346
3.05467
3.14317
3.15574
3.14247
3.04445
2.90877
2.80528
1.40001
1.40001
1.40001
1.40001
1.40001
1.40001
1.40001
1.40001
1.40001
1.40001
1.40001
1.40001
1.40001
1.40001
1.40071
1.41825
1.58631
2.22346
2.84594
3.07895
3.15869
3.14284
3.03941
2.92265
1.40001
1.40001
1.40001
1.40001
1.40001
1.40001
1.40001
1.40001
1.40001
1.40001
1.40001
1.40001
1.40001
1.40001
1.40001
1.40028
1.41029
1.53557
2.05592
2.62186
3.01902
3.15756
3.14815
3.07659
1.40001
1.40001
1.40001
1.40001
1.40001
1.40001
1.40001
1.40001
1.40001
1.40001
1.40001
1.40001
1.40001
1.40001
1.40001
1.40001
1.40015
1.40603
1.48941
1.81473
2.34856
2.96137
3.11692
3.07629
1.40001
1.40001
1.40001
1.40001
1.40001
1.40001
1.40001
1.40001
1.40001
1.40001
1.40001
1.40001
1.40001
1.40001
1.40001
1.40001
1.40001
1.40007
1.40263
1.43484
1.61232
2.14733
2.81562
3.00082
1.40001
1.40001
1.40001
1.40001
1.40001
1.40001
1.40001
1.40001
1.40001
1.40001
1.40001
1.40001
1.40001
1.40001
1.40001
1.40001
1.40001
1.40001
1.40002
1.40059
1.41138
1.52812
1.96542
2.61886
1.40001
1.40001
1.40001
1.40001
1.40001
1.40001
1.40001
1.40001
1.40001
1.40001
1.40001
1.40001
1.40001
1.40001
1.40001
1.40001
1.40001
1.40001
1.40001
1.40001
1.40016
1.40571
1.47692
1.8057
1.40001
1.40001
1.40001
1.40001
1.40001
1.40001
1.40001
1.40001
1.40001
1.40001
1.40001
1.40001
1.40001
1.40001
1.40001
1.40001
1.40001
1.40001
1.40001
1.40001
1.40001
1.40007
1.40272
1.43937
1.40001
1.40001
1.40001
1.40001
1.40001
1.40001
1.40001
1.40001
1.40001
1.40001
1.40001
1.40001
1.40001
1.40001
1.40001
1.40001
1.40001
1.40001
1.40001
1.40001
1.40001
1.40001
1.40003
1.40093
0.995414
0.508922
0.381855
0.417096
0.499106
0.595995
0.711578
0.796228
0.849769
0.862982
0.86673
0.879241
0.893543
0.899303
0.905126
0.903931
0.8986
0.891394
0.886181
0.882796
0.877646
0.871608
0.868276
0.86729
0.871708
0.884191
0.888929
0.885771
0.878149
0.863614
0.853868
0.851154
0.850164
0.851286
0.849167
0.845689
0.840756
0.835989
0.833251
0.831043
0.828366
0.824566
0.820009
0.812573
0.802674
0.797108
0.794766
0.793204
0.791367
0.788448
0.790171
0.816679
0.930648
1.17265
1.52303
1.83984
2.04528
2.17021
2.21408
2.1704
2.14081
2.11723
2.09137
2.06409
2.04021
2.02641
2.01582
1.98802
1.95713
1.9202
1.89294
1.86262
1.43297
1.03809
0.784465
0.740146
0.711607
0.685817
0.695715
0.731389
0.782406
0.830072
0.856128
0.87089
0.891155
0.906165
0.916766
0.918194
0.916297
0.911506
0.906068
0.90436
0.902107
0.898578
0.893555
0.887443
0.885385
0.887601
0.889963
0.889694
0.886105
0.878801
0.869699
0.864983
0.862298
0.860849
0.858987
0.855725
0.851942
0.846444
0.839361
0.833814
0.830813
0.82913
0.825788
0.821342
0.816856
0.810954
0.803168
0.795735
0.792856
0.80038
0.842299
0.964514
1.13285
1.27057
1.41084
1.61366
1.80827
1.94306
2.06465
2.10709
2.13825
2.16177
2.15282
2.10865
2.0691
2.04458
2.02994
2.01708
1.99233
1.96423
1.93584
1.89447
1.75444
1.40733
1.13668
0.979203
0.886392
0.797695
0.735897
0.749266
0.790434
0.844539
0.884596
0.909082
0.937736
0.95812
0.975084
0.985031
0.983245
0.972937
0.956153
0.941054
0.93663
0.935056
0.932197
0.931188
0.929705
0.925377
0.920407
0.916009
0.912488
0.908674
0.904886
0.900914
0.895533
0.889207
0.883967
0.880767
0.878325
0.875247
0.870894
0.864129
0.853783
0.844343
0.839958
0.837601
0.835188
0.831356
0.828259
0.826884
0.840378
0.905701
1.04695
1.21513
1.32467
1.40999
1.45094
1.48928
1.6024
1.76481
1.96344
2.13826
2.22256
2.27906
2.28517
2.25777
2.21653
2.16975
2.12889
2.09808
2.0728
2.05163
2.03118
1.99109
1.99576
1.69116
1.43436
1.22771
1.1027
0.99063
0.886418
0.859524
0.834779
0.835836
0.855338
0.888706
0.925066
0.959414
0.985885
1.01065
1.02858
1.02664
1.01452
0.993925
0.983155
0.980003
0.977385
0.975877
0.974399
0.971119
0.963947
0.955619
0.951256
0.948368
0.945239
0.941295
0.936004
0.92949
0.92212
0.916955
0.91398
0.911086
0.907686
0.902178
0.891919
0.881473
0.875595
0.869933
0.864332
0.862478
0.870046
0.904584
0.998562
1.1605
1.3094
1.41675
1.48185
1.499
1.50492
1.52984
1.56059
1.59951
1.70223
1.89364
2.06388
2.19281
2.28784
2.33358
2.34413
2.31296
2.28705
2.25016
2.20698
2.16963
2.138
2.09577
2.14903
1.88735
1.65104
1.44248
1.28591
1.15502
1.03697
0.971994
0.922078
0.870789
0.864869
0.877056
0.899577
0.927354
0.957236
0.987732
1.01541
1.03708
1.04043
1.03854
1.03683
1.03404
1.02867
1.02113
1.01274
1.00255
0.989072
0.982938
0.981902
0.981988
0.982905
0.980451
0.975158
0.968057
0.960277
0.954457
0.950516
0.946833
0.942326
0.935313
0.92518
0.917566
0.911852
0.907947
0.907374
0.920346
0.976662
1.10908
1.27783
1.42277
1.51848
1.53069
1.53836
1.55672
1.5848
1.60558
1.61182
1.6148
1.60945
1.62811
1.70695
1.86012
2.05446
2.20341
2.2933
2.32761
2.36647
2.36068
2.34567
2.32068
2.28914
2.23121
2.25942
2.03681
1.81599
1.61369
1.45513
1.31719
1.19353
1.10627
1.04821
0.981747
0.93333
0.917021
0.901153
0.898782
0.908202
0.935859
0.972877
1.0107
1.02926
1.03639
1.04367
1.05277
1.05922
1.05608
1.04639
1.02926
1.00987
1.00263
1.0011
1.00177
1.00558
1.00562
1.00257
0.99694
0.990043
0.983932
0.978651
0.973659
0.96752
0.959561
0.95155
0.945012
0.942021
0.946029
0.97157
1.05741
1.21589
1.3861
1.53063
1.57054
1.59274
1.60266
1.62155
1.64675
1.65541
1.65276
1.65297
1.65357
1.63778
1.63272
1.62002
1.6236
1.67909
1.81588
1.98939
2.14254
2.25337
2.3199
2.34558
2.36588
2.37965
2.34715
2.35504
2.14743
1.95047
1.75766
1.59854
1.46394
1.34081
1.2486
1.17536
1.09731
1.01583
0.971102
0.935141
0.904581
0.904333
0.913071
0.929354
0.95991
0.98883
1.01228
1.02918
1.0451
1.06127
1.06546
1.06215
1.05123
1.03687
1.02684
1.02261
1.02056
1.02145
1.02133
1.01857
1.01431
1.0096
1.00459
0.99838
0.990952
0.982962
0.975168
0.970354
0.968407
0.977519
1.02189
1.1411
1.32718
1.49951
1.55087
1.59008
1.64004
1.68383
1.71502
1.72243
1.71239
1.69548
1.68228
1.67861
1.69088
1.68794
1.67305
1.6528
1.63261
1.62115
1.61792
1.64657
1.744
1.883
2.04032
2.17091
2.27164
2.32596
2.34455
2.44579
2.24167
2.06052
1.88749
1.73684
1.60885
1.47936
1.3756
1.29759
1.21667
1.1253
1.05867
1.01767
0.971174
0.935469
0.937078
0.942611
0.938881
0.943719
0.96176
0.991886
1.021
1.04561
1.06024
1.0604
1.05806
1.0575
1.05549
1.05143
1.04645
1.04143
1.03667
1.03006
1.02464
1.02169
1.01849
1.01241
1.00279
0.994636
0.990952
0.99216
1.0069
1.07896
1.24808
1.44706
1.5459
1.60714
1.64058
1.67548
1.72925
1.76882
1.7824
1.7781
1.76891
1.75259
1.73577
1.72767
1.72715
1.72139
1.71126
1.69652
1.67845
1.65608
1.63083
1.62804
1.61948
1.63211
1.67489
1.7684
1.91223
2.05087
2.20493
2.57249
2.37292
2.19021
2.02459
1.87494
1.74494
1.61757
1.50277
1.41729
1.3311
1.23508
1.1614
1.11303
1.06026
0.994253
0.973242
0.966447
0.945894
0.939356
0.944463
0.956346
0.978282
1.00254
1.02624
1.04289
1.05019
1.06023
1.07385
1.07652
1.0738
1.06595
1.05431
1.04364
1.03603
1.03257
1.03014
1.02437
1.01428
1.01051
1.01616
1.0478
1.15809
1.35782
1.54923
1.6401
1.67915
1.71245
1.7328
1.75427
1.7785
1.80439
1.83451
1.84887
1.84318
1.82557
1.79847
1.76967
1.75035
1.73688
1.73539
1.73862
1.72989
1.71243
1.68648
1.64811
1.62561
1.62261
1.62338
1.62682
1.64685
1.69391
1.8341
2.71013
2.5167
2.32906
2.15921
2.0085
1.87469
1.74401
1.62155
1.52817
1.44121
1.34565
1.26867
1.21861
1.16298
1.09331
1.03908
1.02298
0.996266
0.968641
0.959299
0.964152
0.962722
0.965208
0.973797
0.999125
1.02821
1.05073
1.07344
1.08703
1.08663
1.07989
1.07188
1.06433
1.05671
1.0494
1.04388
1.03745
1.03263
1.04188
1.10641
1.26529
1.47439
1.6377
1.74732
1.76606
1.77488
1.78001
1.79678
1.82786
1.85084
1.86973
1.89608
1.91733
1.90497
1.88168
1.84873
1.80477
1.78124
1.77106
1.77286
1.77834
1.76434
1.74767
1.72901
1.70037
1.66391
1.64494
1.63574
1.63248
1.63428
1.63439
1.63476
2.84443
2.65375
2.47294
2.30228
2.14459
2.00671
1.8751
1.74736
1.64349
1.55462
1.45578
1.37796
1.3261
1.27311
1.2004
1.13016
1.09733
1.063
1.01915
0.979385
0.97688
0.975314
0.96746
0.96998
0.979223
0.998285
1.02123
1.04959
1.07008
1.07724
1.07682
1.08001
1.08458
1.08186
1.07193
1.0633
1.06228
1.08223
1.16956
1.38459
1.60042
1.75224
1.79864
1.80163
1.81315
1.83686
1.87478
1.919
1.94075
1.93692
1.93322
1.93896
1.95518
1.94303
1.92284
1.89826
1.85931
1.82733
1.81386
1.80615
1.79707
1.78425
1.77402
1.76297
1.74517
1.71539
1.67816
1.66148
1.65178
1.64333
1.63925
1.62619
3.00285
2.80761
2.61689
2.4464
2.29433
2.14712
2.00512
1.87489
1.77246
1.67727
1.57623
1.48289
1.43011
1.37949
1.30722
1.22768
1.18229
1.14827
1.10184
1.04109
1.02571
1.01958
0.998591
0.983752
0.986044
0.99186
0.995738
1.00887
1.02648
1.04892
1.06749
1.07603
1.09129
1.09203
1.09009
1.098
1.15095
1.2836
1.49819
1.73948
1.82044
1.84804
1.83562
1.83863
1.886
1.95502
2.00047
2.02768
2.02038
1.99729
1.98019
1.97546
1.98535
1.9766
1.95825
1.93865
1.91077
1.87076
1.84575
1.82837
1.81367
1.80443
1.80163
1.79251
1.77657
1.75294
1.71033
1.67715
1.66564
1.65937
1.65774
1.6405
3.10583
2.98284
2.78316
2.5962
2.441
2.29744
2.14956
2.0126
1.90494
1.80612
1.70126
1.60434
1.54325
1.48037
1.40798
1.32556
1.27789
1.24133
1.19131
1.12702
1.09326
1.07953
1.05097
1.01443
0.996051
0.996771
1.00171
1.00686
1.01328
1.02457
1.04388
1.05777
1.07339
1.08892
1.11297
1.20093
1.44313
1.65593
1.84849
1.9202
1.89086
1.89084
1.90679
1.94272
2.01402
2.08888
2.09769
2.08566
2.067
2.04233
2.02855
2.03394
2.02598
2.00039
1.98005
1.96422
1.94437
1.90918
1.87417
1.85306
1.8389
1.83262
1.82947
1.81608
1.79969
1.77935
1.74258
1.69522
1.67518
1.6689
1.66837
1.65176
3.00528
3.07699
2.95704
2.76233
2.58591
2.44259
2.29982
2.15807
2.03946
1.9444
1.83632
1.72767
1.65388
1.59457
1.52149
1.42864
1.37294
1.33575
1.29168
1.22556
1.17789
1.15825
1.12895
1.08097
1.03971
1.03601
1.03275
1.0171
1.01328
1.01413
1.02051
1.02841
1.0415
1.10426
1.23105
1.50097
1.77013
1.91624
1.97862
1.96006
1.93931
1.95401
2.00936
2.08819
2.1535
2.18298
2.17201
2.14253
2.11158
2.09158
2.08314
2.07803
2.04682
2.01598
1.99789
1.98274
1.96402
1.93306
1.89619
1.87215
1.86163
1.85574
1.8437
1.828
1.81448
1.79961
1.77675
1.73829
1.69616
1.67255
1.66149
1.64866
2.63658
3.02303
3.05387
2.93952
2.75906
2.59557
2.44478
2.3055
2.19087
2.08303
1.97142
1.85919
1.78023
1.71444
1.63415
1.54438
1.47507
1.43776
1.38933
1.32496
1.26816
1.24268
1.21158
1.16004
1.10161
1.08988
1.07717
1.05099
1.02796
1.01808
1.02127
1.03821
1.11356
1.3104
1.54695
1.80592
1.89937
1.96848
1.97494
1.98168
1.99999
2.04522
2.13422
2.21062
2.24744
2.24626
2.23747
2.2088
2.16988
2.13486
2.12062
2.09722
2.0597
2.03903
2.02506
2.00758
1.9824
1.95018
1.91567
1.88329
1.86981
1.86342
1.84976
1.83268
1.82315
1.81415
1.79956
1.77733
1.7438
1.69119
1.65677
1.64137
2.18858
2.74912
3.04236
3.0531
2.94402
2.77085
2.60131
2.45016
2.33199
2.22949
2.11306
1.98918
1.90468
1.83584
1.75794
1.65561
1.5892
1.54551
1.49611
1.42285
1.35821
1.33297
1.29857
1.25005
1.19028
1.16549
1.1457
1.1105
1.07888
1.06422
1.08216
1.15899
1.40354
1.64742
1.82677
1.91095
1.9284
1.94997
1.97741
2.01692
2.0673
2.13063
2.21528
2.26281
2.28711
2.27868
2.27572
2.25712
2.21417
2.17364
2.14748
2.11688
2.08745
2.07186
2.0564
2.03338
2.00476
1.9748
1.94347
1.90606
1.87551
1.86129
1.84461
1.82659
1.82178
1.81992
1.80811
1.79113
1.77007
1.72803
1.67045
1.63994
2.04365
2.2979
2.83029
3.06225
3.05736
2.95236
2.78227
2.60808
2.46127
2.35954
2.2528
2.13579
2.02935
1.95683
1.87819
1.78503
1.70365
1.65489
1.60276
1.52902
1.45496
1.41933
1.38606
1.34009
1.28067
1.24968
1.2207
1.18803
1.15658
1.18022
1.30676
1.52709
1.79153
1.90139
1.97085
1.96239
1.93842
1.94357
1.96859
2.03167
2.11125
2.19109
2.24325
2.25004
2.24912
2.23957
2.23265
2.22703
2.20341
2.181
2.16005
2.13083
2.10747
2.08937
2.06589
2.05192
2.03591
2.01152
1.97453
1.92939
1.88935
1.86629
1.84756
1.82735
1.81536
1.80628
1.79596
1.7859
1.77286
1.75019
1.70344
1.6446
2.07229
2.09268
2.38457
2.88735
3.07305
3.05932
2.95418
2.78705
2.62258
2.49892
2.37961
2.25241
2.16193
2.09157
2.00786
1.89504
1.81957
1.77264
1.71031
1.63048
1.55216
1.51595
1.47814
1.42722
1.37002
1.33389
1.3053
1.31566
1.36441
1.56304
1.797
1.97858
2.08045
2.06689
2.03439
1.99853
1.99169
2.01243
2.05988
2.13381
2.19155
2.23157
2.21923
2.20149
2.18874
2.185
2.17874
2.16839
2.15616
2.14772
2.12215
2.07338
2.05414
2.04661
2.04849
2.05617
2.05032
2.03286
1.99805
1.93711
1.88377
1.87082
1.86074
1.84463
1.82357
1.80498
1.78693
1.77523
1.76758
1.75286
1.72062
1.66162
2.17816
2.11852
2.15786
2.46681
2.92911
3.06196
3.04863
2.95681
2.79121
2.63914
2.5241
2.40478
2.27707
2.1976
2.13276
2.02972
1.93542
1.87822
1.82266
1.7366
1.66043
1.61335
1.57358
1.51624
1.46383
1.43325
1.47161
1.61664
1.83828
2.10918
2.24507
2.24617
2.20981
2.14499
2.09802
2.09939
2.12446
2.1817
2.24819
2.30053
2.29055
2.2655
2.23373
2.19151
2.15487
2.14434
2.14082
2.12493
2.10506
2.08602
2.05403
2.01008
1.98419
1.97489
1.97041
1.9743
1.9876
1.98673
1.96859
1.93162
1.89241
1.88075
1.877
1.86581
1.84443
1.81403
1.78527
1.76154
1.73909
1.72475
1.71691
1.68144
2.29263
2.1846
2.17098
2.22082
2.53972
2.93948
3.06463
3.05712
2.96934
2.8171
2.66631
2.53841
2.41899
2.3329
2.25402
2.14715
2.04395
1.98774
1.93238
1.84517
1.7651
1.7096
1.67069
1.62139
1.61015
1.66834
1.91078
2.2019
2.40271
2.48858
2.46166
2.3939
2.31268
2.27252
2.27214
2.29634
2.35047
2.41609
2.4438
2.43246
2.39499
2.33719
2.27149
2.2039
2.14871
2.12381
2.11435
2.1059
2.08687
2.06589
2.03884
1.9829
1.93143
1.91175
1.89876
1.89294
1.90189
1.90429
1.8966
1.8823
1.85063
1.82382
1.82005
1.82135
1.80979
1.79531
1.78318
1.76492
1.72911
1.70039
1.69626
1.68513
2.41621
2.29005
2.21228
2.22476
2.28219
2.58565
2.94897
3.09449
3.08298
2.99295
2.84868
2.70054
2.54134
2.44666
2.37606
2.28428
2.16821
2.09607
2.02807
1.9493
1.86112
1.82159
1.79214
1.83585
2.01055
2.28349
2.57128
2.68811
2.69504
2.65183
2.56778
2.4972
2.45198
2.45413
2.49178
2.53475
2.59868
2.61842
2.59574
2.55365
2.49675
2.42503
2.34215
2.26199
2.20408
2.16556
2.13641
2.11288
2.08945
2.06272
2.0291
1.97918
1.92436
1.89885
1.87348
1.84456
1.83463
1.82925
1.8185
1.80429
1.78227
1.75559
1.74722
1.75333
1.75335
1.74561
1.74132
1.72796
1.69705
1.67121
1.66613
1.6516
2.52124
2.42343
2.32359
2.25231
2.26464
2.34889
2.6172
2.99026
3.10241
3.08336
2.99508
2.86735
2.71743
2.5763
2.48255
2.39003
2.28346
2.21312
2.13998
2.06222
1.9815
2.00079
2.12315
2.44652
2.75103
2.95193
2.99954
2.95412
2.86811
2.78122
2.70605
2.66936
2.66656
2.69733
2.73875
2.77363
2.79337
2.76832
2.72518
2.66807
2.5972
2.51576
2.42831
2.34024
2.26718
2.21609
2.17514
2.1428
2.11433
2.07822
2.03497
1.99546
1.95329
1.90951
1.87058
1.83633
1.8139
1.79588
1.77784
1.76056
1.74209
1.71917
1.69327
1.67832
1.66994
1.66226
1.66001
1.65653
1.63931
1.62314
1.6197
1.60629
2.59861
2.50705
2.45051
2.365
2.29113
2.2944
2.37266
2.65492
3.01446
3.06528
3.07739
3.01593
2.88671
2.73411
2.61531
2.52033
2.38165
2.30316
2.26614
2.23956
2.32047
2.58224
2.93761
3.24486
3.26434
3.22241
3.13019
3.02024
2.94607
2.90302
2.89985
2.92651
2.95546
2.97436
2.99175
2.97492
2.93797
2.8841
2.81955
2.74708
2.66882
2.5892
2.50899
2.43035
2.35738
2.29677
2.24162
2.19037
2.15138
2.1106
2.06513
2.02562
1.98416
1.94097
1.89975
1.85247
1.81484
1.78956
1.76642
1.74151
1.71723
1.69687
1.67454
1.64424
1.61753
1.60031
1.59041
1.58384
1.58043
1.56919
1.55651
1.53733
2.70855
2.58709
2.53066
2.47769
2.39757
2.34206
2.34552
2.41587
2.71545
2.95865
3.05752
3.09584
3.03284
2.90001
2.74681
2.64021
2.53141
2.47423
2.55694
2.82118
3.24896
3.51623
3.6656
3.63759
3.51859
3.37289
3.23673
3.11506
3.06998
3.09451
3.16793
3.22435
3.2316
3.21899
3.18935
3.1247
3.04699
2.97148
2.89702
2.81792
2.73811
2.66346
2.5867
2.50724
2.43031
2.36265
2.30388
2.24607
2.19464
2.14821
2.10492
2.07031
2.03012
1.97737
1.92201
1.87207
1.8347
1.80598
1.7768
1.74593
1.71951
1.69468
1.66612
1.63429
1.6014
1.56629
1.55015
1.54773
1.54229
1.52746
1.51273
1.48358
2.81068
2.69629
2.62273
2.57613
2.51174
2.43623
2.37282
2.37472
2.46135
2.71809
2.94025
3.0926
3.09515
3.03863
2.93388
2.81307
2.8715
3.1091
3.51216
3.85927
4.04184
3.96837
3.86433
3.75296
3.62777
3.52125
3.43269
3.35762
3.35638
3.43395
3.51114
3.50813
3.45385
3.37444
3.29178
3.20659
3.11995
3.03356
2.95175
2.87259
2.79771
2.73061
2.66054
2.58433
2.50745
2.4331
2.36616
2.30222
2.24073
2.18499
2.13725
2.10566
2.07634
2.03672
1.98191
1.9198
1.85772
1.8099
1.7806
1.76194
1.74346
1.71754
1.68391
1.64721
1.60722
1.56299
1.53502
1.5259
1.5147
1.50354
1.49199
1.45585
2.93475
2.80968
2.71507
2.6744
2.6238
2.54021
2.44815
2.37528
2.37556
2.47345
2.67728
2.97181
3.07097
3.10888
3.23779
3.50607
3.98404
4.28319
4.49526
4.50802
4.40762
4.1872
3.98461
3.82945
3.72758
3.65222
3.64786
3.65912
3.69918
3.78378
3.78498
3.72108
3.61759
3.50764
3.39517
3.28765