/*--------------------------------*- C++ -*----------------------------------*\
  =========                 |
  \\      /  F ield         | OpenFOAM: The Open Source CFD Toolbox
   \\    /   O peration     | Website:  https://openfoam.org
    \\  /    A nd           | Version:  7
     \\/     M anipulation  |
\*---------------------------------------------------------------------------*/
FoamFile
{
    version     2.0;
    format      ascii;
    class       volScalarField;
    location    "1.7";
    object      T;
}
// * * * * * * * * * * * * * * * * * * * * * * * * * * * * * * * * * * * * * //

dimensions      [0 0 0 1 0 0 0];

internalField   nonuniform List<scalar> 
4128
(
1
1
1
1
1
1
1
1
1
1
1
1
1
1
1
1
1
1.35404
2.52155
2.74095
2.76868
2.79624
2.81247
2.82392
1
1
1
1
1
1
1
1
1
1
1
1
1
1
1
1
1
1.30325
2.48894
2.73345
2.7618
2.78782
2.80051
2.80289
1
1
1
1
1
1
1
1
1
1
1
1
1
1
1
1
1
1.17297
2.40833
2.71565
2.74431
2.76549
2.77311
2.78259
1
1
1
1
1
1
1
1
1
1
1
1
1
1
1
1
1
1.01309
2.27232
2.68099
2.7145
2.73858
2.75854
2.80152
1
1
1
1
1
1
1
1
1
1
1
1
1
1
1
1
1
1.00008
2.07511
2.6208
2.67455
2.68931
2.66313
2.59652
1
1
1
1
1
1
1
1
1
1
1
1
1
1
1
1
1
0.999999
1.76459
2.51699
2.63189
2.62257
2.58573
2.47752
1
1
1
1
1
1
1
1
1
1
1
1
1
1
1
1
1
1
1.30384
2.32984
2.57883
2.55345
2.51322
2.38267
1
1
1
1
1
1
1
1
1
1
1
1
1
1
1
1
1
1
1.02622
2.12228
2.49526
2.46995
2.43718
2.32582
1
1
1
1
1
1
1
1
1
1
1
1
1
1
1
1
1
1
1.00008
1.66807
2.34078
2.43184
2.38287
2.29567
1
1
1
1
1
1
1
1
1
1
1
1
1
1
1
1
1
1
0.999999
1.12509
2.08936
2.38748
2.33257
2.26306
1
1
1
1
1
1
1
1
1
1
1
1
1
1
1
1
1
1
1
1.00338
1.64115
2.25636
2.26539
2.21787
1
1
1
1
1
1
1
1
1
1
1
1
1
1
1
1
1
1
1
1.00001
1.12719
1.98851
2.24188
2.17997
1
1
1
1
1
1
1
1
1
1
1
1
1
1
1
1
1
1
1
1
1.00358
1.45633
2.05406
2.15501
1
1
1
1
1
1
1
1
1
1
1
1
1
1
1
1
1
1
1
1
1.00002
1.05886
1.7286
2.09571
1
1
1
1
1
1
1
1
1
1
1
1
1
1
1
1
1
1
1
1
1
1.00099
1.21785
1.84361
1
1
1
1
1
1
1
1
1
1
1
1
1
1
1
1
1
1
1
1
1
1
1.01186
1.37826
1
1
1
1
1
1
1
1
1
1
1
1
1
1
1
1
1
1
1
1
1
1
1.00012
1.04304
1
1
1
1
1
1
1
1
1
1
1
1
1
1
1
1
1
1
1
1
1
1
1
1.0008
1
1
1
1
1
1
1
1
1
1
1
1
1
1
1
1
1
1
1
1
1
1
1
1
1
1
1
1
1
1
1
1
1
1
1
1
1
1
1
1
1
1
1
1
1
1
1
1
1
1
1
1
1
1
1
1
1
1
1
1
1
1
1
1
1
1
1
1
1
1
1
1
1
1
1
1
1
1
1
1
1
1
1
1
1
1
1
1
1
1
1
1
1
1
1
1
1
1
1
1
1
1
1
1
1
1
1
1
1
1
1
1
1
1
1
1
1
1
1
1
1
1
1
1
1
1
1
1
1
1
1
1
1
1
1
1
1
1
1
1
1
1
1
1
1
1
1
1
1
1
1
1
1
1
1
1
1
1
1
1
1
1
1
1
1
1
1
1
1
1
1
1
1
1
1
1
1
1
1
1
1
1
1
1
1
1
1
1
1
1
1
1
1
1
1
1
1
1
1
1
1
1
1
1
1
1
1
1
1
1
1
1
1
1
1
1
1
1
1
1
1
1
1
1
1
1
1
1
1
1
1
1
1
1
1
1
1
1
1
1
1
1
1
1
1
1
1
1
1
1
1
1
1
1
1
1
1
1
1
1
1
1
1
1
1
1
1
1
1
1
1
1
1
1
1
1
1
1
1
1
1
1
1
1
1
1
1
1
1
1
1
1
1
1
1
1
1
1
1
1
1
1
1
1
1
1
1
1
1
1
1
1
1
1
1
1
1
1
1
1
1
1
1
1
1
1
1
1
1
1
1
1
1
1
1
1
1
1
1
1
1
1
1
1
1
1
1
1
1
1
1
1
1
1
1
1
1
1
1
1
1
1
1
1
1
1
1
1
1
1
1
1
1
1
1
1
1
1
1
1
1
1
1
1
1
1
1
1
1
1
1
1
1
1
1
1
1
1
1
1
1
1
1
1
1
1
1
1
1
1
1
1
1
1
1
1
1
1
1
1
1
1
1
1
1
1
1
1
1
1
1
1
1
1
1
1
1
1
1
1
1
1
1
1
1
1
1
1
1
1
1
1
1
1
1
1
1
1
1
1
1
1
1
1
1
1
1
1
1
1
1
1
1
1
1
1
1
1
1
1
1
1
1
1
1
1
1
1
1
1
1
1
1
1
1
1
1
1
1
1
1
1
1
1
1
1
1
1
1
1
1
1
1
1
1
1
1
1
1
1
1
1
1
1
1
1
1
1
1.85393
1.38608
1.25582
1.32966
1.39698
1.49994
1.60427
1.67068
1.69468
1.71093
1.74785
1.76311
1.76784
1.76607
1.76099
2.48784
2.79982
2.82086
2.83994
2.85429
2.87346
2.90787
2.95012
2.97611
2.073
1.79384
1.60344
1.56322
1.52767
1.51921
1.51016
1.49088
1.5051
1.53453
1.57612
1.62172
1.65118
1.66816
1.67841
2.3903
2.758
2.80198
2.826
2.84359
2.86726
2.90526
2.9444
2.9611
2.13508
1.95679
1.80367
1.6888
1.6008
1.52194
1.4768
1.43162
1.41243
1.43447
1.46719
1.50206
1.52256
1.54154
1.55782
2.17955
2.66704
2.74655
2.78256
2.81005
2.84006
2.87966
2.91717
2.94776
2.16786
2.02444
1.9031
1.79375
1.70007
1.60894
1.55172
1.50213
1.44827
1.43329
1.42976
1.42262
1.42475
1.4392
1.45561
1.87652
2.54011
2.66995
2.72067
2.76073
2.79495
2.83688
2.89409
2.97573
2.18436
2.07094
1.96379
1.86885
1.77269
1.68773
1.62757
1.57716
1.51959
1.47031
1.4421
1.40903
1.39527
1.40096
1.40582
1.53386
2.38567
2.60001
2.65486
2.69618
2.72767
2.75614
2.76597
2.75438
2.17718
2.08807
1.99599
1.9122
1.83113
1.754
1.69258
1.63791
1.58172
1.53232
1.49831
1.4614
1.41967
1.41387
1.40269
1.40245
2.16884
2.55301
2.604
2.63543
2.65514
2.66244
2.64912
2.5854
2.1549
2.08358
2.01449
1.94446
1.8682
1.80033
1.74635
1.69207
1.63265
1.58568
1.5488
1.50776
1.46213
1.43729
1.4176
1.3928
1.73879
2.44251
2.55812
2.58617
2.59338
2.58231
2.5562
2.45624
2.12756
2.07276
2.01426
1.95657
1.89305
1.83153
1.77919
1.73116
1.67254
1.63024
1.59257
1.55461
1.50515
1.47655
1.45756
1.41837
1.44743
2.21608
2.4953
2.54261
2.53852
2.52167
2.48365
2.39352
2.10617
2.05487
2.00597
1.95493
1.90386
1.8513
1.80159
1.75427
1.70313
1.6601
1.62621
1.58975
1.54174
1.51223
1.49179
1.45612
1.4248
1.76303
2.34548
2.49349
2.48548
2.46511
2.42789
2.35527
2.08358
2.03987
1.99585
1.95046
1.90456
1.86031
1.81463
1.76987
1.72458
1.68538
1.64961
1.61298
1.57091
1.54347
1.5234
1.49255
1.445
1.48097
2.08865
2.39502
2.42727
2.41188
2.38044
2.32564
2.04548
2.02203
1.9797
1.93648
1.89913
1.85981
1.81729
1.77558
1.73736
1.69955
1.66669
1.63393
1.59156
1.56831
1.54496
1.51781
1.47416
1.45497
1.68417
2.19235
2.36828
2.35457
2.333
2.29309
1.86283
1.99333
1.96746
1.92365
1.88597
1.85474
1.81715
1.77785
1.74501
1.71067
1.67912
1.64833
1.6112
1.58371
1.56297
1.53663
1.49938
1.46683
1.48976
1.91872
2.25889
2.28272
2.26666
2.24037
1.49099
1.85323
1.94672
1.91774
1.87408
1.84276
1.81236
1.77756
1.74402
1.71596
1.68606
1.65525
1.62265
1.59587
1.57482
1.54842
1.51455
1.48821
1.47169
1.60004
2.03844
2.21573
2.20022
2.183
1.09192
1.55519
1.83092
1.90208
1.87364
1.83552
1.80052
1.7707
1.74539
1.71607
1.68518
1.65876
1.63137
1.60571
1.58074
1.55666
1.5234
1.50648
1.4817
1.48695
1.75047
2.05226
2.15625
2.13648
1.00286
1.14371
1.57655
1.80007
1.86214
1.83701
1.80075
1.76333
1.73783
1.71265
1.68685
1.66209
1.63608
1.60748
1.58655
1.56668
1.53157
1.51407
1.49735
1.4738
1.51965
1.83911
2.05468
2.08942
1.00002
1.00666
1.17902
1.57518
1.77179
1.8246
1.80304
1.76486
1.73621
1.70864
1.67936
1.65893
1.6393
1.61438
1.59152
1.57018
1.53964
1.51964
1.50706
1.47536
1.47598
1.588
1.87141
2.02809
1
1.00006
1.01078
1.19698
1.57016
1.7371
1.78783
1.76659
1.73534
1.70937
1.68207
1.6551
1.63391
1.61296
1.5939
1.57738
1.54946
1.5237
1.51188
1.48991
1.46219
1.47375
1.64267
1.88005
1
1
1.00013
1.01379
1.20961
1.54428
1.70481
1.75477
1.73883
1.70958
1.67861
1.65876
1.63875
1.61266
1.58896
1.57468
1.5558
1.5313
1.5173
1.50275
1.46712
1.45697
1.48702
1.68155
1
1
1
1.00018
1.01663
1.19944
1.51702
1.67573
1.72431
1.71379
1.68359
1.65534
1.63515
1.61165
1.59316
1.57869
1.557
1.53066
1.51785
1.50696
1.48361
1.45485
1.45604
1.50475
1
1
1
1
1.00025
1.01539
1.18032
1.49179
1.64432
1.69601
1.68733
1.66184
1.63741
1.60964
1.5875
1.57702
1.56124
1.53854
1.51998
1.50819
1.48787
1.46204
1.44913
1.45262
1
1
1
1
1
1.00023
1.0132
1.1687
1.45612
1.61316
1.66909
1.66474
1.64577
1.61486
1.59145
1.57839
1.55981
1.53363
1.52114
1.51064
1.49457
1.46909
1.45507
1.44264
1
1
1
1
1
1
1.0002
1.01173
1.14513
1.40764
1.5795
1.64759
1.64718
1.62972
1.59724
1.57808
1.56158
1.53819
1.52167
1.50999
1.49424
1.47314
1.46269
1.4508
1
1
1
1
1
1
1
1.00017
1.00874
1.11345
1.35366
1.557
1.63126
1.62792
1.60765
1.58497
1.56268
1.5386
1.52505
1.51256
1.49742
1.47557
1.46379
1.45676
1
1
1
1
1
1
1
1
1.00011
1.00582
1.08249
1.31226
1.54496
1.59399
1.6013
1.59608
1.57622
1.54613
1.527
1.51421
1.50141
1.47946
1.47103
1.46152
1
1
1
1
1
1
1
1
1
1.00006
1.00364
1.05899
1.28353
1.49122
1.5597
1.58615
1.58331
1.5626
1.53682
1.52172
1.50569
1.48418
1.47584
1.46604
1
1
1
1
1
1
1
1
1
1
1.00003
1.00221
1.04192
1.23842
1.42856
1.53136
1.57509
1.57315
1.55604
1.53851
1.51555
1.49045
1.47936
1.46633
1
1
1
1
1
1
1
1
1
1
1
1.00002
1.00121
1.02889
1.17074
1.35489
1.51548
1.56842
1.56575
1.5516
1.5308
1.50489
1.48674
1.46994
1
1
1
1
1
1
1
1
1
1
1
1
1.00001
1.00062
1.01437
1.10249
1.31194
1.50731
1.54116
1.5431
1.53928
1.51971
1.49418
1.4768
1
1
1
1
1
1
1
1
1
1
1
1
1
1
1.00022
1.00619
1.06909
1.28478
1.46159
1.50663
1.52598
1.52337
1.50714
1.49065
1
1
1
1
1
1
1
1
1
1
1
1
1
1
1
1.00008
1.00343
1.05052
1.23867
1.3889
1.46807
1.51102
1.52329
1.51578
1
1
1
1
1
1
1
1
1
1
1
1
1
1
1
1
1.00004
1.00197
1.03372
1.15325
1.29891
1.44625
1.51401
1.51316
1
1
1
1
1
1
1
1
1
1
1
1
1
1
1
1
1
1.00002
1.00085
1.01239
1.07577
1.2432
1.4337
1.49717
1
1
1
1
1
1
1
1
1
1
1
1
1
1
1
1
1
1
1
1.00018
1.00377
1.04511
1.19934
1.39833
1
1
1
1
1
1
1
1
1
1
1
1
1
1
1
1
1
1
1
1
1.00004
1.00182
1.02718
1.15042
1
1
1
1
1
1
1
1
1
1
1
1
1
1
1
1
1
1
1
1
1
1.00002
1.00084
1.01384
1
1
1
1
1
1
1
1
1
1
1
1
1
1
1
1
1
1
1
1
1
1
1.00001
1.00028
2.06022
1.64008
1.57859
1.66295
1.78308
1.89457
2.0215
2.09917
2.09902
2.08767
2.08338
2.09769
2.09911
2.09069
2.0793
2.06504
2.05364
2.04758
2.04204
2.03118
2.01284
1.99869
1.99399
1.99261
1.99495
2.0032
2.00551
1.99944
1.98785
1.97247
1.96318
1.96024
1.95889
1.9594
1.95654
1.95237
1.94702
1.94126
1.93696
1.93354
1.93053
1.92722
1.92358
1.91765
1.91067
1.90839
1.90783
1.90726
1.90629
1.90409
1.90847
1.94303
2.06763
2.27637
2.52824
2.71789
2.8312
2.90033
2.89859
2.8775
2.84957
2.81927
2.78627
2.75697
2.73472
2.72024
2.70938
2.6916
2.6743
2.65323
2.63708
2.61977
2.23696
2.04001
1.85845
1.83252
1.81362
1.80059
1.81387
1.84756
1.88593
1.92073
1.95166
1.97757
2.00117
2.0046
2.00383
2.00134
1.99982
1.99931
1.99799
1.99333
1.98247
1.97254
1.96708
1.964
1.96352
1.96583
1.96627
1.96352
1.9571
1.94992
1.94297
1.93974
1.93752
1.93591
1.93394
1.93115
1.92806
1.92313
1.91617
1.91043
1.90758
1.90653
1.90454
1.9023
1.90067
1.89805
1.8936
1.88853
1.88538
1.89432
1.94063
2.05686
2.1894
2.26562
2.34412
2.46197
2.58082
2.65192
2.70136
2.73796
2.74411
2.73819
2.71924
2.68885
2.66758
2.65137
2.63935
2.6304
2.61906
2.60672
2.59235
2.57241
2.23961
2.10048
1.96494
1.86425
1.79545
1.73147
1.68225
1.69224
1.71771
1.75564
1.79688
1.82767
1.85977
1.88277
1.89782
1.90894
1.91154
1.90879
1.904
1.89689
1.89022
1.88556
1.88481
1.8882
1.89376
1.89433
1.89183
1.88614
1.88302
1.8821
1.88182
1.88143
1.87916
1.87453
1.87112
1.87059
1.87066
1.87019
1.86842
1.86414
1.85636
1.84985
1.84833
1.84871
1.84959
1.84906
1.84853
1.85173
1.86726
1.9288
2.04498
2.14282
2.19826
2.21996
2.21167
2.20783
2.25755
2.34052
2.43069
2.51396
2.56292
2.58255
2.58378
2.5701
2.55186
2.52806
2.50714
2.4934
2.48606
2.48042
2.47237
2.4583
2.25622
2.14346
2.03431
1.92499
1.84588
1.77459
1.70627
1.68503
1.65983
1.65643
1.66823
1.69075
1.72005
1.75021
1.77452
1.79409
1.811
1.81735
1.81446
1.80532
1.79828
1.79517
1.79531
1.79817
1.80431
1.80684
1.8042
1.79773
1.79592
1.79671
1.7981
1.79827
1.79749
1.79427
1.79023
1.7896
1.79034
1.7915
1.79184
1.79081
1.78563
1.77997
1.77792
1.7758
1.77485
1.77556
1.78622
1.82014
1.89957
2.01607
2.08436
2.14347
2.14435
2.1288
2.10039
2.09066
2.08862
2.08736
2.12174
2.20461
2.28354
2.33645
2.37156
2.3895
2.39862
2.388
2.37682
2.36203
2.34611
2.33354
2.32116
2.30679
2.26035
2.16669
2.07223
1.97625
1.89442
1.81944
1.74717
1.70241
1.66575
1.63409
1.62372
1.63103
1.64346
1.66122
1.68229
1.70194
1.72034
1.73728
1.74555
1.74855
1.75028
1.74866
1.74516
1.74145
1.73924
1.73607
1.72816
1.72449
1.72463
1.7268
1.73081
1.73063
1.72949
1.72619
1.72176
1.7202
1.7203
1.72062
1.72047
1.71844
1.71375
1.71097
1.70936
1.70746
1.71048
1.72629
1.77526
1.87716
1.97657
2.05759
2.08053
2.07003
2.05326
2.04113
2.03426
2.02572
2.01701
2.00154
1.97741
1.96445
1.99394
2.05526
2.12631
2.17691
2.20878
2.22424
2.23763
2.23902
2.23791
2.23136
2.21876
2.19379
2.25444
2.17947
2.09631
2.01159
1.93898
1.86984
1.80205
1.74998
1.71141
1.66814
1.63652
1.62561
1.61346
1.60475
1.60973
1.6264
1.64928
1.67282
1.68668
1.69438
1.70093
1.70754
1.71287
1.71106
1.70528
1.69538
1.68333
1.67932
1.67891
1.68002
1.68418
1.68499
1.68402
1.68095
1.67676
1.67382
1.67209
1.67082
1.66863
1.66487
1.66088
1.65821
1.65875
1.66474
1.68631
1.75287
1.86216
1.95396
2.02506
2.02248
2.01923
2.00902
2.00482
2.00073
1.98853
1.96848
1.95407
1.94162
1.91815
1.89743
1.8743
1.85116
1.86791
1.91746
1.98066
2.02996
2.06538
2.08924
2.1012
2.11156
2.11801
2.10729
2.23643
2.1732
2.10553
2.03223
1.96683
1.90684
1.84664
1.7987
1.75765
1.7107
1.65893
1.6287
1.60397
1.58216
1.5816
1.58681
1.59531
1.61183
1.62907
1.64354
1.6536
1.66339
1.67508
1.67925
1.67746
1.67096
1.66191
1.65615
1.65395
1.65321
1.65413
1.65429
1.65269
1.64979
1.64673
1.64388
1.64072
1.63696
1.63261
1.62808
1.62409
1.62552
1.63483
1.66996
1.75482
1.86607
1.95691
1.96085
1.9664
1.97804
1.98854
1.98969
1.98114
1.95937
1.93295
1.90748
1.89101
1.8848
1.86974
1.84444
1.81715
1.79265
1.77047
1.74583
1.7504
1.78056
1.82701
1.88284
1.92469
1.95666
1.97466
1.9907
2.20081
2.15137
2.09831
2.04015
1.98534
1.93543
1.87947
1.83103
1.79251
1.74951
1.69706
1.65552
1.62777
1.5982
1.57725
1.57736
1.57786
1.56896
1.57033
1.58136
1.60068
1.61813
1.6321
1.64138
1.64371
1.64308
1.64309
1.64169
1.63967
1.63717
1.63441
1.63154
1.62718
1.62348
1.62159
1.61978
1.61641
1.61061
1.60538
1.60206
1.60412
1.61624
1.66957
1.77749
1.88986
1.92535
1.93809
1.94545
1.94851
1.95531
1.95584
1.94756
1.92996
1.90898
1.88315
1.85705
1.83768
1.82409
1.80618
1.7846
1.76086
1.73794
1.71422
1.69032
1.67218
1.65293
1.64175
1.65165
1.68205
1.73056
1.77592
1.83764
2.15862
2.1232
2.08229
2.03689
1.98988
1.9455
1.89801
1.85087
1.81335
1.77272
1.7239
1.6835
1.65469
1.62284
1.58307
1.56883
1.56291
1.54794
1.54125
1.54392
1.55055
1.56179
1.57447
1.58848
1.59961
1.6054
1.61207
1.61999
1.62292
1.62159
1.61742
1.61067
1.60406
1.59921
1.59724
1.59622
1.593
1.58627
1.58305
1.58728
1.61023
1.68331
1.80649
1.89148
1.91995
1.93049
1.92822
1.92163
1.91494
1.90696
1.89555
1.88653
1.8795
1.86311
1.83529
1.80329
1.77551
1.75522
1.73674
1.72067
1.70522
1.68504
1.66474
1.64304
1.61721
1.59681
1.58189
1.56847
1.55464
1.55022
1.56176
1.61946
2.11314
2.08575
2.05272
2.0171
1.97959
1.94145
1.89883
1.854
1.81708
1.78103
1.73932
1.703
1.67708
1.64649
1.60768
1.57614
1.56522
1.54779
1.53265
1.52386
1.52435
1.5197
1.51701
1.52155
1.53841
1.55791
1.57063
1.58267
1.59231
1.59323
1.5908
1.58692
1.58268
1.57811
1.57439
1.57171
1.56723
1.56551
1.57137
1.61405
1.71227
1.82017
1.88797
1.92171
1.91404
1.90078
1.88543
1.87548
1.87022
1.85978
1.84377
1.83399
1.82965
1.80883
1.77653
1.74344
1.71335
1.69357
1.67793
1.66569
1.65266
1.63063
1.61145
1.5942
1.57472
1.55267
1.53533
1.52062
1.50669
1.49432
1.48462
1.4737
2.06944
2.04418
2.01701
1.98731
1.95586
1.92517
1.89069
1.85126
1.8157
1.78298
1.74362
1.71124
1.68816
1.66346
1.62855
1.59149
1.57163
1.5501
1.52545
1.50481
1.50076
1.49684
1.48778
1.48806
1.4931
1.50433
1.51683
1.53128
1.54305
1.54863
1.55053
1.55383
1.55739
1.55628
1.55187
1.54606
1.5478
1.56134
1.61384
1.73672
1.82928
1.89159
1.88718
1.87253
1.86278
1.85595
1.85146
1.84671
1.83654
1.81584
1.79153
1.77683
1.76941
1.74789
1.71794
1.68941
1.66284
1.64237
1.62752
1.6131
1.59653
1.57859
1.56322
1.54942
1.53487
1.51709
1.49603
1.48042
1.46697
1.45359
1.44336
1.42583
2.02262
2.00098
1.97645
1.95198
1.92756
1.89997
1.8697
1.83739
1.80883
1.77911
1.74456
1.70975
1.68986
1.66955
1.63851
1.60118
1.57781
1.55882
1.53404
1.50394
1.49474
1.48927
1.47561
1.46342
1.46338
1.46514
1.46568
1.47087
1.48042
1.4937
1.50569
1.51171
1.51901
1.52162
1.52063
1.52696
1.56184
1.63596
1.74436
1.84115
1.85495
1.8478
1.82787
1.81814
1.82563
1.83329
1.82911
1.81613
1.79195
1.76022
1.73456
1.71957
1.71142
1.69291
1.66677
1.64162
1.61826
1.59525
1.57804
1.56301
1.54826
1.53465
1.52332
1.51038
1.4969
1.48203
1.46101
1.44163
1.42975
1.41942
1.41151
1.39255
1.98075
1.96788
1.94112
1.91509
1.8937
1.87231
1.84596
1.81692
1.79198
1.76698
1.73815
1.70793
1.68851
1.66565
1.63752
1.6039
1.58325
1.56566
1.54125
1.51028
1.4935
1.48512
1.46793
1.44716
1.43578
1.43552
1.43646
1.43646
1.43819
1.44406
1.4552
1.46278
1.46796
1.47572
1.4908
1.54404
1.67792
1.76336
1.83862
1.84484
1.82603
1.80251
1.79112
1.79161
1.80091
1.80621
1.7955
1.76998
1.73944
1.70791
1.68533
1.67538
1.66074
1.63855
1.61689
1.59717
1.57758
1.55524
1.53501
1.52014
1.508
1.49804
1.48871
1.47558
1.46232
1.44861
1.4303
1.40855
1.3952
1.38705
1.38109
1.36356
1.86102
1.93296
1.91724
1.88733
1.86113
1.84229
1.82068
1.7946
1.77046
1.75119
1.72599
1.69763
1.67768
1.66002
1.63606
1.60215
1.58118
1.56615
1.54793
1.51896
1.49688
1.48679
1.47094
1.44705
1.42718
1.42352
1.41954
1.40957
1.40385
1.4032
1.40522
1.40906
1.4176
1.45402
1.52628
1.6605
1.76531
1.8169
1.81863
1.80504
1.78225
1.77175
1.77324
1.77579
1.77342
1.76571
1.74797
1.72211
1.69375
1.66795
1.64862
1.63205
1.60856
1.58799
1.57156
1.55598
1.53908
1.51866
1.49762
1.4822
1.472
1.46355
1.45279
1.44071
1.42935
1.41774
1.40392
1.38638
1.36823
1.3553
1.34741
1.33316
1.69749
1.83254
1.88743
1.87133
1.84317
1.81896
1.79635
1.77334
1.75326
1.73249
1.7098
1.68471
1.66649
1.64968
1.62639
1.59882
1.57668
1.56473
1.54648
1.52142
1.4983
1.48728
1.47269
1.44902
1.42203
1.41552
1.40777
1.39291
1.37882
1.37561
1.37822
1.38826
1.43258
1.53899
1.64878
1.74357
1.76811
1.76711
1.7567
1.74116
1.73504
1.73979
1.7512
1.74839
1.73735
1.7205
1.70318
1.68145
1.65604
1.62986
1.61068
1.58932
1.56545
1.54817
1.53411
1.51973
1.50316
1.48462
1.46557
1.44777
1.43638
1.42829
1.41803
1.40706
1.39848
1.38969
1.37888
1.3666
1.35242
1.33273
1.31838
1.30407
1.52257
1.69699
1.80126
1.84861
1.83363
1.80737
1.78034
1.75422
1.7344
1.71805
1.69657
1.66978
1.65191
1.63644
1.6177
1.58903
1.57133
1.55927
1.54389
1.51888
1.49553
1.48664
1.47247
1.45236
1.42754
1.41697
1.40738
1.38956
1.37155
1.37172
1.3829
1.42601
1.54868
1.64667
1.70558
1.72033
1.71178
1.69578
1.68373
1.68435
1.68881
1.69709
1.70801
1.70421
1.69302
1.67311
1.65838
1.64055
1.61687
1.59299
1.57306
1.55221
1.53195
1.51679
1.50283
1.48741
1.47155
1.45585
1.43974
1.42161
1.40564
1.39499
1.38419
1.37384
1.36758
1.36237
1.35383
1.34444
1.33452
1.31887
1.29956
1.28121
1.4479
1.53155
1.6847
1.77249
1.81388
1.80001
1.77406
1.74349
1.71668
1.70161
1.68368
1.66129
1.63868
1.62389
1.60641
1.58365
1.56339
1.55174
1.53737
1.51445
1.49055
1.48052
1.46961
1.45287
1.42995
1.4183
1.40677
1.39179
1.3794
1.39497
1.4642
1.56783
1.65673
1.68394
1.68329
1.67143
1.64872
1.62976
1.62974
1.63749
1.64506
1.65357
1.65202
1.64272
1.62788
1.60934
1.59424
1.58052
1.56212
1.54549
1.52966
1.51178
1.4953
1.48108
1.46818
1.4587
1.44784
1.43458
1.41821
1.39958
1.38146
1.36884
1.35881
1.34849
1.33992
1.33308
1.32662
1.32077
1.31441
1.30517
1.28961
1.26577
1.43166
1.44045
1.53178
1.67042
1.74742
1.77865
1.766
1.74033
1.71229
1.69128
1.67017
1.6454
1.62889
1.61658
1.60008
1.57308
1.55637
1.54625
1.52965
1.50698
1.48438
1.4763
1.46572
1.4492
1.42931
1.41863
1.4089
1.41443
1.44122
1.53868
1.62486
1.68688
1.68614
1.67294
1.64855
1.62393
1.6077
1.60832
1.61197
1.61929
1.61681
1.61073
1.5951
1.5758
1.55866
1.54641
1.53463
1.52153
1.50767
1.49616
1.48102
1.46032
1.44657
1.43653
1.43123
1.42815
1.42153
1.41219
1.39835
1.37634
1.35528
1.34705
1.34092
1.33253
1.32206
1.31239
1.30398
1.2986
1.29488
1.28945
1.27866
1.25778
1.43434
1.42454
1.43914
1.53153
1.65575
1.71515
1.74403
1.73371
1.70698
1.68053
1.66358
1.64427
1.618
1.60418
1.59385
1.57194
1.55019
1.53772
1.52494
1.50227
1.48268
1.47151
1.46146
1.44531
1.42965
1.42495
1.44303
1.50787
1.60037
1.69662
1.70877
1.6998
1.67393
1.64074
1.61811
1.6022
1.60305
1.60765
1.61282
1.60957
1.5962
1.57594
1.55315
1.52802
1.50671
1.49527
1.4871
1.47479
1.46118
1.44814
1.43215
1.41367
1.39952
1.39133
1.38473
1.38174
1.38144
1.37873
1.36997
1.35513
1.33704
1.329
1.32598
1.32049
1.31083
1.29847
1.28805
1.27964
1.27192
1.26704
1.26385
1.2512
1.43822
1.41508
1.41777
1.4377
1.52988
1.63514
1.68564
1.71411
1.7027
1.67894
1.65588
1.63747
1.61829
1.60371
1.58874
1.56556
1.54254
1.53221
1.52095
1.49996
1.48007
1.46684
1.45897
1.4467
1.45018
1.48019
1.58028
1.66998
1.73051
1.72993
1.7162
1.68668
1.65292
1.63132
1.61416
1.61518
1.61902
1.62205
1.61623
1.60264
1.5802
1.55217
1.52282
1.49534
1.4737
1.46015
1.4508
1.44207
1.43066
1.41905
1.4061
1.38442
1.36279
1.35129
1.34294
1.33833
1.33968
1.33909
1.33438
1.32671
1.31143
1.29745
1.29406
1.29292
1.28674
1.27975
1.27475
1.26853
1.25763
1.24768
1.24459
1.23904
1.44658
1.41834
1.40897
1.4142
1.43562
1.52232
1.61397
1.66335
1.68891
1.6787
1.65981
1.63909
1.61144
1.59481
1.5825
1.56591
1.54216
1.52845
1.51488
1.49769
1.47641
1.46906
1.46834
1.48769
1.55818
1.65354
1.73691
1.74179
1.73613
1.71743
1.68916
1.66473
1.64684
1.6303
1.63247
1.63265
1.63313
1.62783
1.61368
1.59349
1.56832
1.53895
1.50798
1.47953
1.4585
1.44329
1.43082
1.42006
1.40918
1.39728
1.38425
1.36787
1.34732
1.3322
1.31879
1.30735
1.3038
1.30177
1.29778
1.29144
1.28025
1.26594
1.25993
1.25997
1.25841
1.25409
1.25188
1.24755
1.23835
1.22879
1.2252
1.218
1.45126
1.43215
1.41487
1.40581
1.41028
1.43573
1.50782
1.59387
1.64394
1.66756
1.65847
1.64021
1.6152
1.58794
1.57235
1.55796
1.5391
1.52854
1.51593
1.49913
1.48418
1.49431
1.54179
1.64934
1.73234
1.78117
1.77747
1.7597
1.73027
1.69937
1.67573
1.66371
1.64931
1.65102
1.65104
1.64682
1.63867
1.62416
1.60707
1.58622
1.56051
1.53167
1.50254
1.47463
1.45118
1.43389
1.41948
1.40732
1.39625
1.38304
1.36775
1.35352
1.33855
1.32265
1.30767
1.29394
1.28475
1.27867
1.27279
1.26597
1.25691
1.24501
1.23305
1.22634
1.22259
1.2195
1.21856
1.21725
1.21165
1.20538
1.20288
1.19671
1.45149
1.43669
1.4289
1.41569
1.40203
1.40276
1.42411
1.4933
1.57981
1.62119
1.64436
1.63629
1.6151
1.5886
1.56993
1.55744
1.53309
1.52375
1.51815
1.52062
1.55272
1.63717
1.73232
1.80506
1.79779
1.77736
1.74881
1.72073
1.69922
1.68504
1.67961
1.67782
1.67507
1.67315
1.66682
1.65325
1.63565
1.61587
1.5952
1.57304
1.54906
1.52437
1.49946
1.47521
1.45272
1.43406
1.41758
1.4021
1.38943
1.37584
1.36017
1.34544
1.33038
1.31541
1.30167
1.28729
1.27616
1.26795
1.25952
1.24923
1.23839
1.22861
1.21824
1.20644
1.1977
1.19271
1.18987
1.18752
1.18543
1.18052
1.17563
1.16949
1.46204
1.44327
1.43573
1.42677
1.41071
1.39823
1.39835
1.41768
1.49292
1.56045
1.59792
1.62022
1.61133
1.59042
1.56696
1.55553
1.53883
1.54079
1.56869
1.64682
1.7525
1.81236
1.8392
1.83021
1.79902
1.76115
1.72778
1.69919
1.68519
1.68857
1.69867
1.70109
1.69659
1.68741
1.67411
1.65285
1.62908
1.60672
1.58539
1.56344
1.54135
1.52007
1.49777
1.47451
1.45188
1.4323
1.41602
1.40048
1.38602
1.3718
1.35715
1.34378
1.32844
1.31077
1.29468
1.28155
1.27138
1.2625
1.25266
1.24162
1.2314
1.22118
1.20971
1.19762
1.18627
1.17566
1.17106
1.16998
1.16748
1.16148
1.15561
1.14697
1.47582
1.45878
1.44565
1.43501
1.41959
1.40076
1.39084
1.39479
1.42186
1.4893
1.54252
1.57739
1.59717
1.59094
1.57888
1.57218
1.59544
1.66311
1.75762
1.82845
1.85879
1.84327
1.82242
1.79902
1.7715
1.74703
1.72859
1.71243
1.70999
1.72247
1.72897
1.72471
1.70789
1.68625
1.66466
1.642
1.61863
1.59587
1.57472
1.55452
1.53516
1.51693
1.49716
1.47531
1.45343
1.43304
1.41564
1.39987
1.38455
1.3692
1.35398
1.34184
1.33015
1.31605
1.29887
1.28214
1.2675
1.25556
1.24618
1.23849
1.23002
1.21863
1.20609
1.19477
1.18371
1.17124
1.16194
1.15825
1.15417
1.14997
1.14518
1.13389
1.49564
1.47408
1.45294
1.44102
1.42786
1.40882
1.39352
1.38826
1.39168
1.41976
1.46825
1.52276
1.55606
1.57878
1.62409
1.7034
1.80708
1.85531
1.89167
1.8985
1.88162
1.84289
1.80432
1.77311
1.75312
1.7399
1.73737
1.73871
1.74414
1.75426
1.75093
1.73423
1.71059
1.68573
1.66014
1.63488
1.6111
1.58814
1.56645
1.54623
1.5277
1.51131
1.49402
1.47409
1.45347
1.43373
1.41574
1.39979
1.38481
1.37028
1.35641
1.34274
1.32784
1.31414
1.3035
1.29117
1.27703
1.26228
1.24758
1.23437
1.22559
1.21866
1.21026
1.19813
1.18356
1.16951
1.15987
1.15448
1.14893
1.1439
1.13712
1.12352
1.50448
1.49119
1.46859
1.44843
1.43323
1.4187
1.40623
1.39081
1.38797
1.38994
1.40303
1.44438
1.51416
1.66116
1.82238
1.91607
1.93416
1.91864
1.89657
1.87909
1.85658
1.82646
1.79579
1.77118
1.75812
1.75877
1.76879
1.76953
1.76994
1.76593
1.75304
1.73302
1.71022
1.68595
1.66001
1.63369
1.60857
1.58406
1.5605
1.53889
1.52037
1.50483
1.48903
1.47083
1.45098
1.43057
1.40983
1.39196
1.37844
1.36658
1.35479
1.34373
1.33238
1.31901
1.30243
1.2825
1.26899
1.26174
1.25103
1.24073
1.23157
1.22005
1.2055
1.19138
1.1772
1.16506
1.15715
1.15184
1.14696
1.14115
1.13244
1.11725
1.49684
1.49208
1.48165
1.4612
1.44288
1.43069
1.42104
1.40223
1.38954
1.39257
1.41386
1.50101
1.6735
1.85388
1.95867
1.98879
1.97609
1.93903
1.89249
1.85576
1.83333
1.81368
1.7987
1.78837
1.78981
1.80116
1.80356
1.79767
1.78425
1.76771
1.74912
1.72819
1.70495
1.6799
1.65367
1.62635
1.59946
1.57577
1.55447
1.53464
1.51741
1.50213
1.48658
1.46893
1.44942
1.4294
1.40947
1.39145
1.37665
1.36436
1.35354
1.34281
1.33027
1.31579
1.30071
1.2848
1.26715
1.25802
1.25412
1.24745
1.23755
1.22297
1.20667
1.19394
1.1857
1.17588
1.16612
1.15822
1.15081
1.14052
1.1299
1.11514
1.46337
1.47256
1.47709
1.47244
1.45698
1.44535
1.43647
1.41969
1.42289
1.46738
1.57119
1.69371
1.81333
1.86944
1.90783
1.94699
1.94598
1.92352
1.88391
1.84988
1.83194
1.82172
1.82606
1.83517
1.84397
1.84612
1.83311
1.80905
1.78336
1.76062
1.73906
1.71802
1.69579
1.67206
1.64753
1.62168
1.5935
1.56727
1.548
1.53117
1.51516
1.50077
1.48697
1.47169
1.45341
1.43234
1.41023
1.39073
1.37552
1.36353
1.35392
1.34521
1.33602
1.32584
1.31316
1.29535
1.2756
1.26067
1.24888
1.23866
1.2301
1.22458
1.21941
1.20843
1.18648
1.16686
1.15678
1.14932
1.144
1.1402
1.13668
1.1251
1.33616
1.41113
1.45142
1.47184
1.47197
1.47103
1.47678
1.50873
1.5895
1.69472
1.76705
1.8136
1.82892
1.82594
1.82713
1.84743
1.86609
1.86147
1.85747
1.85545
1.84959
1.85335
1.86594
1.88271
1.88429
1.87304
1.8455
1.80783
1.77383
1.74769
1.72638
1.70681
1.68654
1.66419
1.63827
1.60914
1.58217
1.55891
1.54084
1.52505
1.51065
1.49762
1.48414
1.46954
1.45237
1.43107
1.40763
1.38758
1.37307
1.36244
1.35387
1.34567
1.33651
1.32539
1.31007
1.29007
1.27118
1.25667
1.24589
1.23888
1.23339
1.22721
1.21847
1.20514
1.18396
1.16465
1.15547
1.15024
1.14583
1.14109
1.13595
1.12363
1.0999
1.24035
1.35983
1.43078
1.50143
1.56713
1.62951
1.72006
1.76757
1.78942
1.8137
1.8082
1.7929
1.76756
1.74969
1.75854
1.77996
1.80576
1.83073
1.85844
1.88256
1.90102
1.90709
1.90345
1.89055
1.86601
1.83048
1.79395
1.76429
1.74126
1.72077
1.7009
1.68018
1.65833
1.63448
1.60596
1.57729
1.55925
1.54446
1.53149
1.52083
1.50915
1.4951
1.47972
1.46214
1.4404
1.417
1.39829
1.38533
1.37512
1.36596
1.35702
1.34719
1.33505
1.31831
1.29642
1.2776
1.26724
1.26015
1.25338
1.24602
1.23741
1.22665
1.21099
1.18961
1.17442
1.16693
1.16098
1.15515
1.14943
1.14398
1.13112
1.0058
1.04871
1.16974
1.38034
1.59398
1.74931
1.86827
1.94929
1.95411
1.92612
1.87246
1.81252
1.76764
1.73523
1.704
1.70542
1.71988
1.75772
1.81704
1.87592
1.91301
1.94307
1.94273
1.9305
1.89951
1.85873
1.82001
1.78849
1.76381
1.74117
1.71927
1.69917
1.68125
1.66257
1.6373
1.60457
1.57162
1.54662
1.53164
1.52052
1.50957
1.49772
1.48452
1.46896
1.4493
1.42557
1.40267
1.38562
1.37349
1.36337
1.35405
1.34519
1.33549
1.32222
1.30254
1.27911
1.26411
1.25668
1.25023
1.24297
1.23478
1.22573
1.21392
1.19513
1.17416
1.16367
1.15701
1.1503
1.1445
1.13899
1.1332
1.11887
)
;

boundaryField
{
    inlet
    {
        type            fixedValue;
        value           uniform 1;
    }
    outlet
    {
        type            inletOutlet;
        inletValue      uniform 1;
        value           nonuniform List<scalar> 
32
(
2.62096
2.57268
2.45797
2.3065
2.19372
2.10636
1.98879
1.83503
1.61617
1.47356
1.42619
1.39293
1.36381
1.33388
1.30507
1.28153
1.26445
1.25557
1.24996
1.23979
1.21855
1.19663
1.16895
1.14632
1.13312
1.12304
1.11666
1.11472
1.12465
1.12333
1.13066
1.1179
)
;
    }
    bottom
    {
        type            zeroGradient;
    }
    top
    {
        type            zeroGradient;
    }
    obstacle
    {
        type            zeroGradient;
    }
    defaultFaces
    {
        type            empty;
    }
}


// ************************************************************************* //
