/*--------------------------------*- C++ -*----------------------------------*\
  =========                 |
  \\      /  F ield         | OpenFOAM: The Open Source CFD Toolbox
   \\    /   O peration     | Website:  https://openfoam.org
    \\  /    A nd           | Version:  7
     \\/     M anipulation  |
\*---------------------------------------------------------------------------*/
FoamFile
{
    version     2.0;
    format      ascii;
    class       volScalarField;
    location    "6.5";
    object      p;
}
// * * * * * * * * * * * * * * * * * * * * * * * * * * * * * * * * * * * * * //

dimensions      [1 -1 -2 0 0 0 0];

internalField   nonuniform List<scalar> 
3328
(
134.284
20.9562
13.1229
13.174
13.2157
13.2654
13.3154
13.3652
13.4142
13.4644
13.5166
13.573
13.6328
13.6948
13.7552
13.8131
13.8696
13.9278
13.9893
14.0468
14.0989
14.14
14.1716
14.1913
134.282
20.955
13.1244
13.1755
13.2158
13.2632
13.3104
13.357
13.4029
13.4503
13.4999
13.5536
13.6107
13.6701
13.7285
13.7851
13.8406
13.8972
13.9561
14.012
14.0639
14.1063
14.139
14.16
134.273
20.9498
13.1249
13.1747
13.2117
13.255
13.2976
13.3395
13.3809
13.4242
13.4696
13.5187
13.5709
13.6262
13.6816
13.7366
13.7904
13.8444
13.8992
13.9535
14.0073
14.0531
14.0888
14.1134
134.252
20.9419
13.124
13.1713
13.2038
13.2416
13.2784
13.3148
13.3509
13.3889
13.4286
13.4715
13.5173
13.5667
13.6177
13.6699
13.7218
13.7744
13.8281
13.8811
13.933
13.974
14.0033
14.0241
134.212
20.929
13.1205
13.1641
13.1921
13.2239
13.2548
13.2855
13.316
13.3482
13.3821
13.4189
13.4579
13.5002
13.5451
13.5924
13.6405
13.6889
13.7352
13.7769
13.8167
13.8529
13.8808
13.9138
134.154
20.9099
13.1139
13.1526
13.1764
13.203
13.229
13.2551
13.2807
13.308
13.3372
13.3688
13.4018
13.4364
13.473
13.5121
13.5528
13.5944
13.6347
13.6726
13.7105
13.7404
13.751
13.7387
134.08
20.8849
13.1036
13.1368
13.157
13.1791
13.2011
13.2238
13.2464
13.2705
13.2965
13.3243
13.3524
13.38
13.4079
13.4372
13.4685
13.5017
13.5314
13.5486
13.5487
13.5195
13.5085
13.5429
133.993
20.854
13.0899
13.1175
13.1347
13.1531
13.1722
13.1927
13.2137
13.2361
13.2607
13.2863
13.311
13.333
13.3536
13.3728
13.3927
13.4132
13.4251
13.4219
13.4007
13.3782
13.3405
13.6015
133.896
20.8165
13.0731
13.0955
13.1107
13.1264
13.1434
13.1624
13.1825
13.2042
13.2281
13.2526
13.2751
13.2937
13.3087
13.3179
13.3261
13.3334
13.3286
13.3113
13.2495
13.1574
12.7559
12.2894
133.79
20.7697
13.0542
13.0721
13.086
13.1
13.1156
13.1334
13.153
13.1744
13.1978
13.2214
13.2416
13.258
13.2673
13.2689
13.2659
13.2604
13.2407
13.2039
13.1171
12.9594
12.7385
12.3011
133.682
20.7109
13.0336
13.0478
13.0613
13.0741
13.0886
13.1051
13.124
13.1454
13.1679
13.1899
13.2068
13.2202
13.2237
13.2188
13.2059
13.1863
13.1557
13.0997
13.0082
12.8191
12.6426
12.282
133.582
20.6343
13.0156
13.0239
13.0366
13.0488
13.0625
13.0772
13.0941
13.1144
13.1355
13.1547
13.1676
13.175
13.1719
13.1596
13.1382
13.1048
13.0646
12.9978
12.9029
12.7436
12.5913
12.3306
133.499
20.5382
12.9967
13.0014
13.0134
13.0243
13.036
13.0472
13.0599
13.0763
13.0952
13.1108
13.12
13.1191
13.1084
13.088
13.058
13.0135
12.9621
12.8923
12.7975
12.6765
12.5109
12.3611
133.425
20.4222
12.9809
12.9764
12.9843
12.9945
13.0054
13.012
13.0186
13.0283
13.0431
13.0553
13.0597
13.0507
13.0327
13.0052
12.9675
12.916
12.8543
12.7809
12.6893
12.5862
12.4531
12.319
133.333
20.3438
12.9592
12.9357
12.9474
12.962
12.9727
12.974
12.9716
12.9724
12.9803
12.9873
12.9863
12.9723
12.9487
12.9155
12.8729
12.8186
12.7518
12.6755
12.5859
12.4878
12.3742
12.2488
133.193
20.3314
12.9214
12.8963
12.9161
12.9347
12.9417
12.9355
12.9233
12.9137
12.9128
12.9129
12.9062
12.8883
12.8613
12.8245
12.7798
12.7248
12.6576
12.5809
12.4935
12.3977
12.2882
12.1732
133.024
20.3348
12.8444
12.8627
12.8885
12.9039
12.9035
12.8911
12.8727
12.8559
12.8471
12.8405
12.8286
12.8072
12.7773
12.7383
12.6919
12.6364
12.5699
12.4947
12.411
12.32
12.2149
12.0977
132.862
20.3051
12.7953
12.8343
12.8581
12.8628
12.8523
12.8358
12.8174
12.8011
12.7898
12.7783
12.7612
12.7364
12.7046
12.6642
12.6153
12.5565
12.4878
12.4114
12.3294
12.2426
12.1451
12.0315
132.719
20.2575
12.7604
12.8108
12.8247
12.814
12.7935
12.7745
12.7588
12.7493
12.7424
12.7291
12.7072
12.6778
12.6442
12.6036
12.5533
12.4906
12.4161
12.3329
12.2463
12.1581
12.0654
11.9581
132.6
20.1916
12.7558
12.7924
12.7849
12.7571
12.7278
12.7091
12.7015
12.7032
12.7012
12.6857
12.6579
12.6236
12.5895
12.5521
12.5048
12.4408
12.36
12.2673
12.17
12.0718
11.9726
11.8644
132.492
20.1478
12.7593
12.7602
12.7335
12.6931
12.6624
12.6505
12.6553
12.6667
12.664
12.6412
12.6048
12.5659
12.5318
12.4992
12.4592
12.4003
12.3187
12.219
12.1094
11.9964
11.8804
11.7579
132.38
20.1479
12.7399
12.7156
12.6719
12.6261
12.6046
12.6089
12.6283
12.641
12.6291
12.594
12.5474
12.5022
12.4653
12.4353
12.4031
12.3543
12.2797
12.1803
12.0637
11.9393
11.8062
11.6638
132.262
20.1856
12.7028
12.6601
12.5959
12.5629
12.563
12.5904
12.6161
12.6171
12.5911
12.5441
12.4899
12.4394
12.3979
12.3655
12.3344
12.2905
12.2224
12.1294
12.0173
11.8929
11.7552
11.6011
132.147
20.2549
12.6527
12.5802
12.5184
12.5138
12.5453
12.5848
12.5994
12.5833
12.5435
12.4899
12.4342
12.3839
12.3407
12.3032
12.2641
12.2132
12.1428
12.054
11.9505
11.8373
11.7101
11.562
132.052
20.3163
12.5855
12.4993
12.4646
12.4958
12.5433
12.5717
12.5652
12.5318
12.4818
12.4278
12.3787
12.3384
12.3025
12.2624
12.2082
12.1381
12.0543
11.9625
11.8628
11.7594
11.6469
11.5187
131.986
20.3125
12.5054
12.4497
12.4559
12.5063
12.5399
12.5422
12.5145
12.4642
12.4075
12.3578
12.3225
12.3021
12.2813
12.2431
12.1745
12.0823
11.9795
11.8764
11.7733
11.6711
11.5631
11.4483
131.95
20.2243
12.417
12.445
12.4864
12.5239
12.5272
12.5022
12.4518
12.388
12.3276
12.2858
12.2697
12.2713
12.2639
12.2277
12.154
12.0522
11.937
11.8212
11.707
11.5958
11.481
11.3634
131.912
20.0711
12.383
12.4755
12.5183
12.5282
12.5045
12.4535
12.3854
12.3154
12.2575
12.2314
12.2341
12.2441
12.2341
12.1941
12.1225
12.0285
11.9193
11.8035
11.6835
11.5614
11.4316
11.2954
131.854
19.9081
12.3967
12.4998
12.5243
12.5092
12.4631
12.3927
12.3173
12.2545
12.2227
12.2174
12.2226
12.2155
12.1871
12.1364
12.0674
11.9871
11.8971
11.7999
11.6942
11.577
11.437
11.2742
131.8
19.8308
12.4348
12.5038
12.5012
12.4623
12.3928
12.3189
12.258
12.2325
12.2373
12.2461
12.232
12.1918
12.1314
12.0609
11.9881
11.9186
11.8527
11.7889
11.7153
11.6187
11.4826
11.3034
131.77
19.8557
12.4632
12.4804
12.4486
12.3811
12.3054
12.2429
12.223
12.2485
12.2821
12.2892
12.2558
12.1838
12.0892
11.9915
11.9026
11.8343
11.792
11.7618
11.7187
11.6445
11.5246
11.3561
131.759
19.9685
12.4621
12.434
12.3693
12.2887
12.2272
12.2086
12.2339
12.2801
12.3133
12.3115
12.2671
12.1784
12.0606
11.9362
11.8337
11.774
11.7493
11.7307
11.6933
11.6262
11.5218
11.3811
131.733
20.1009
12.4322
12.3644
12.2757
12.2245
12.2071
12.2276
12.267
12.2968
12.3071
12.2881
12.23
12.1392
12.0317
11.9255
11.8414
11.7836
11.7414
11.6979
11.64
11.5582
11.4541
11.3332
131.66
20.1849
12.3661
12.2763
12.221
12.2226
12.2466
12.28
12.2976
12.2928
12.2638
12.2085
12.1353
12.0593
11.9934
11.9476
11.9055
11.8489
11.7746
11.6834
11.5808
11.4671
11.3516
11.2394
131.57
20.182
12.2716
12.2197
12.2141
12.268
12.3203
12.34
12.3229
12.2743
12.1941
12.0984
12.0127
11.9593
11.9562
11.9767
11.9762
11.9309
11.8328
11.6956
11.5402
11.3815
11.2411
11.1308
131.524
20.1096
12.1757
12.2077
12.2543
12.3272
12.3685
12.3738
12.3296
12.2332
12.113
12.0002
11.9198
11.9115
11.9465
11.9848
11.9991
11.9675
11.8709
11.7064
11.5096
11.3163
11.1598
11.0595
131.543
20.0127
12.144
12.2455
12.3003
12.3409
12.3626
12.3482
12.2841
12.1821
12.0656
11.9731
11.9294
11.9238
11.9398
11.9598
11.9597
11.9224
11.8317
11.6824
11.4962
11.3193
11.1806
11.0744
131.626
19.9529
12.2074
12.2896
12.3134
12.3224
12.3018
12.2536
12.1947
12.1397
12.0859
12.0379
12.0042
11.9762
11.9463
11.9136
11.8702
11.804
11.7181
11.6243
11.5195
11.3985
11.2762
11.1518
131.679
19.9712
12.3087
12.3169
12.3056
12.2679
12.2057
12.1419
12.0998
12.0892
12.1056
12.1221
12.1069
12.059
11.9828
11.8782
11.7621
11.6591
11.5796
11.5284
11.5008
11.4645
11.3855
11.254
131.733
20.0304
12.3544
12.3362
12.2791
12.1995
12.1314
12.0871
12.077
12.101
12.1525
12.199
12.1993
12.1298
11.9892
11.8182
11.6596
11.5565
11.5285
11.5401
11.5592
11.5568
11.4963
11.3517
10.1901
11.2405
11.7422
11.9638
12.0169
12.0518
12.0294
12.0109
11.99
12.2194
12.0737
12.0882
12.0494
12.0599
12.0315
12.0189
12.0553
12.0639
11.9563
11.9994
11.9963
12.0353
12.07
12.092
12.1721
12.1189
12.0481
12.0942
12.0807
12.1119
12.1321
12.173
12.2161
12.1529
12.0616
12.0641
12.0289
12.0519
12.0724
12.1205
12.204
12.12
12.058
12.0459
12.0161
12.0638
12.098
12.0901
12.1485
12.0639
12.003
11.9858
11.9426
11.9113
11.8946
11.9721
12.0552
11.9609
11.8757
11.8207
11.761
11.7272
11.6696
11.9511
11.9654
11.8277
11.7095
11.6156
11.494
11.3036
10.6417
8.60853
11.8953
11.7312
11.5567
11.3654
11.1523
10.7393
9.91699
7.90032
11.8258
11.6505
11.4368
11.1689
10.8432
10.3053
9.45178
7.67854
11.737
11.5682
11.3436
11.0409
10.6377
10.064
9.20638
7.77148
11.621
11.4547
11.2366
10.9397
10.5226
9.95797
9.1698
8.02285
11.504
11.3218
11.1007
10.8222
10.4373
9.91969
9.23303
8.32876
11.4191
11.2113
10.9684
10.6897
10.337
9.88494
9.31893
8.60732
11.3775
11.1548
10.8869
10.5884
10.2451
9.84263
9.37533
8.80688
11.3533
11.141
10.8715
10.5598
10.2104
9.82108
9.40886
8.93368
11.3081
11.1294
10.8885
10.5879
10.2411
9.85112
9.45657
9.02651
11.2309
11.0782
10.8802
10.6238
10.3111
9.93944
9.55407
9.13706
11.1477
10.9939
10.8211
10.6151
10.3631
10.0475
9.69827
9.30235
11.0952
10.915
10.7382
10.5566
10.3563
10.1077
9.81908
9.48151
11.0962
10.8799
10.6765
10.489
10.3112
10.1109
9.87705
9.59976
11.1467
10.909
10.6737
10.4558
10.2661
10.0833
9.88802
9.6584
11.1981
10.9729
10.7271
10.4816
10.2644
10.0678
9.87587
9.66925
11.1945
11.0258
10.8212
10.5834
10.3417
10.1022
9.87644
9.65603
11.1318
11.0189
10.8852
10.7033
10.4732
10.2082
9.93276
9.66563
11.0525
10.9861
10.9055
10.7747
10.5794
10.3237
10.0304
9.72606
10.9982
10.9466
10.8816
10.7746
10.6124
10.3882
10.1135
9.80753
10.9874
10.9069
10.8214
10.7101
10.56
10.3667
10.1306
9.85925
11.0254
10.8911
10.7557
10.6112
10.4505
10.2721
10.0837
9.87944
11.0874
10.9018
10.7074
10.5147
10.3264
10.1448
9.98237
9.8291
11.1368
10.8849
10.6286
10.4042
10.24
10.1225
10.004
9.86959
2.4662
0.921193
0.681218
0.80394
0.979516
1.31129
1.9009
2.49913
3.27603
4.03426
4.46812
4.49941
4.87542
5.86559
6.40783
6.53587
6.54894
6.57376
6.61756
6.70058
6.65508
6.51215
6.32689
6.19974
6.12667
6.10944
6.01348
5.89287
5.78099
5.69004
5.64672
5.64672
5.58697
5.47451
5.34674
5.17525
4.99016
4.83345
4.69174
4.55476
4.4291
4.33346
4.26289
4.20733
4.17705
4.15359
4.10826
4.05097
3.98704
3.8998
3.76884
3.59004
3.36787
3.29359
3.31676
3.53314
4.18374
5.59196
5.83698
5.77547
5.67033
5.57142
5.47934
5.37856
5.22
5.01948
4.89957
4.84444
4.80776
4.79469
4.82275
4.8371
4.81705
4.79085
4.75819
4.71352
4.64273
4.53812
4.43402
4.37339
4.33471
4.3052
4.28737
4.27285
4.24593
4.21347
4.16758
4.02791
4.04951
2.47042
1.87433
1.76606
1.68197
1.62223
1.72657
2.01215
2.52384
3.30749
3.93692
4.24512
4.72268
5.63349
6.13932
6.40404
6.53453
6.60128
6.62604
6.67638
6.68605
6.60706
6.47912
6.34052
6.23556
6.1266
5.99791
5.85894
5.71814
5.60915
5.53328
5.49877
5.44044
5.3462
5.23091
5.11022
4.9974
4.89082
4.78196
4.66247
4.5285
4.3942
4.29366
4.22935
4.18273
4.14171
4.08468
4.01684
3.93161
3.82167
3.69881
3.57679
3.44627
3.42279
3.51074
3.79268
4.26315
5.36446
5.72978
5.68495
5.56973
5.47722
5.38977
5.28944
5.17019
5.07233
4.98607
4.90549
4.85368
4.82736
4.83054
4.82811
4.79888
4.765
4.72551
4.67188
4.59801
4.51557
4.45442
4.40705
4.36524
4.33054
4.29912
4.2697
4.23921
4.20427
4.15684
4.02854
5.30556
3.89871
2.9633
2.55788
2.34171
2.10954
1.93853
2.0442
2.28081
2.64486
3.2912
3.9706
4.67179
5.48452
5.99821
6.37775
6.55766
6.62591
6.62246
6.60872
6.58288
6.55746
6.52847
6.46888
6.38826
6.27016
6.12862
5.97946
5.81588
5.63874
5.48382
5.36742
5.26996
5.17825
5.08203
4.99502
4.9186
4.84579
4.77295
4.69739
4.61524
4.51729
4.39759
4.27258
4.18074
4.11287
4.04415
3.96278
3.86376
3.74131
3.60325
3.54131
3.54527
3.63984
3.88618
4.11953
4.31509
5.02361
5.62313
5.60438
5.49728
5.39411
5.29392
5.1881
5.10575
5.05963
5.01227
4.95812
4.91146
4.88052
4.85668
4.82229
4.78635
4.74705
4.69308
4.61202
4.52144
4.46708
4.43397
4.40464
4.38159
4.35663
4.32561
4.29081
4.24966
4.19616
4.12619
4.01457
6.20394
5.08683
4.12641
3.44573
3.14395
2.93046
2.65098
2.4519
2.3844
2.43406
2.7173
3.28613
3.95221
4.79196
5.5391
6.33511
6.66533
6.76172
6.66286
6.57399
6.53755
6.52186
6.53402
6.49444
6.40302
6.2716
6.11888
5.97567
5.82946
5.66245
5.48376
5.32933
5.21178
5.12268
5.04619
4.97349
4.90318
4.83768
4.77827
4.72227
4.66094
4.58679
4.48122
4.33168
4.17404
4.05576
3.9633
3.86899
3.76271
3.64249
3.57678
3.5937
3.7184
3.95652
4.30132
4.41053
4.41381
4.68572
5.31355
5.48098
5.40857
5.29551
5.20468
5.15038
5.10708
5.06871
5.03482
5.00382
4.96744
4.9192
4.86059
4.80221
4.75489
4.7077
4.64527
4.56546
4.50684
4.4717
4.44163
4.41642
4.38882
4.3582
4.32672
4.29225
4.2437
4.171
4.08524
4.0107
6.85945
5.94765
5.11799
4.38625
3.88495
3.60291
3.34076
3.06274
2.8335
2.68716
2.75512
2.90326
3.20148
3.76718
4.69613
5.8557
6.58408
6.80527
6.70773
6.59068
6.5314
6.49958
6.4619
6.38157
6.26196
6.12204
6.0001
5.88838
5.76922
5.63158
5.47942
5.33531
5.21467
5.11837
5.04382
4.98171
4.93094
4.89036
4.84792
4.78899
4.71727
4.62257
4.49425
4.34213
4.16996
4.00241
3.85978
3.73463
3.63719
3.59258
3.60117
3.71975
3.99507
4.3578
4.59277
4.59405
4.5095
4.54549
4.84098
5.24024
5.30648
5.23172
5.15541
5.12315
5.10676
5.08108
5.0647
5.04623
5.01179
4.96062
4.88711
4.79653
4.71015
4.63161
4.56114
4.51613
4.48677
4.46434
4.45022
4.43346
4.40668
4.37636
4.34171
4.28573
4.20017
4.1063
4.03527
4.01937
7.42504
6.59466
5.87004
5.20406
4.65932
4.23054
3.94218
3.68081
3.46613
3.22796
3.07541
3.03653
3.07839
3.17794
3.60468
4.75669
6.20502
6.73252
6.70671
6.62636
6.50997
6.39854
6.30656
6.20918
6.12799
6.05659
5.96891
5.88804
5.79921
5.69976
5.5968
5.4815
5.34727
5.20253
5.08555
5.01338
4.95051
4.89025
4.82113
4.74176
4.64705
4.53129
4.39672
4.2534
4.10921
3.95893
3.79794
3.6683
3.62201
3.62236
3.71289
3.97824
4.37278
4.67399
4.73032
4.70526
4.5939
4.47584
4.50951
4.82246
5.13935
5.1812
5.15306
5.12676
5.12457
5.11059
5.10358
5.08281
5.04414
4.97988
4.86707
4.74491
4.64384
4.57051
4.52472
4.49694
4.47875
4.4754
4.47725
4.46178
4.43344
4.39228
4.31919
4.21483
4.11756
4.05663
4.02882
4.05735
7.87385
7.16808
6.49125
5.86203
5.33636
4.90128
4.49106
4.17202
3.97016
3.7798
3.55339
3.31133
3.20053
3.25392
3.29706
3.63604
4.84665
6.25456
6.71254
6.71913
6.57359
6.39941
6.24536
6.12269
6.03471
5.98492
5.98326
5.94321
5.86552
5.77376
5.66918
5.55097
5.41228
5.25027
5.09024
4.95517
4.84866
4.76644
4.69055
4.61016
4.52242
4.42288
4.30885
4.18501
4.06388
3.93707
3.78699
3.71021
3.70755
3.7755
4.01218
4.3702
4.70598
4.79303
4.77612
4.70988
4.58416
4.42606
4.33579
4.45707
4.82469
5.0787
5.13271
5.1567
5.17337
5.15209
5.1102
5.0649
5.01186
4.92904
4.80248
4.66929
4.5919
4.54776
4.52067
4.50709
4.51383
4.53099
4.51929
4.486
4.43451
4.35253
4.2408
4.12709
4.06033
4.03673
4.02697
4.09886
8.20832
7.60266
7.02463
6.44229
5.90991
5.48132
5.09281
4.68776
4.38314
4.21952
4.0308
3.77406
3.53922
3.45134
3.39547
3.40471
3.66161
4.82402
6.25999
6.75714
6.67134
6.48547
6.26256
6.12524
6.02894
5.94873
5.88856
5.84191
5.78739
5.71769
5.63098
5.5263
5.39307
5.23996
5.07524
4.91321
4.77063
4.65109
4.55187
4.46459
4.3845
4.31106
4.23537
4.15424
4.06328
3.96429
3.86859
3.84923
3.89037
4.08124
4.43247
4.7035
4.81441
4.80439
4.73712
4.65463
4.54634
4.40961
4.30803
4.33439
4.53343
4.89448
5.08258
5.15696
5.17206
5.1253
5.06876
5.02075
4.9634
4.86602
4.73341
4.64336
4.59604
4.56734
4.55714
4.56769
4.57568
4.55578
4.52007
4.47018
4.39767
4.28887
4.16691
4.07906
4.04408
4.03116
4.03618
4.16462
8.43277
7.92277
7.41852
6.9125
6.42403
5.9866
5.60834
5.24066
4.86933
4.57816
4.39097
4.2075
3.9651
3.73272
3.57278
3.46478
3.49863
3.7379
4.93355
6.28578
6.64359
6.53073
6.3225
6.14066
6.03029
5.94245
5.85355
5.76427
5.68514
5.60969
5.52626
5.43671
5.33176
5.19616
5.03867
4.87454
4.72468
4.59425
4.48643
4.4027
4.33098
4.26109
4.19802
4.15568
4.09594
4.04443
4.00509
4.03622
4.18429
4.51941
4.792
4.84477
4.81628
4.741
4.65821
4.58695
4.51733
4.41391
4.33236
4.33032
4.41911
4.67722
4.98072
5.12347
5.12514
5.07876
5.01209
4.95188
4.88237
4.78876
4.70424
4.66016
4.63388
4.62778
4.63242
4.62198
4.59293
4.5527
4.50008
4.43138
4.33503
4.2251
4.14105
4.07979
4.05778
4.05418
4.081
4.28568
8.58724
8.14888
7.71553
7.26201
6.83007
6.43019
6.05238
5.70153
5.36307
5.02739
4.7352
4.52945
4.34986
4.11193
3.86953
3.68534
3.57056
3.58231
3.83219
4.97033
6.20111
6.48205
6.35344
6.17797
6.04939
5.93945
5.82939
5.70688
5.58633
5.49084
5.4003
5.3108
5.22282
5.13324
5.02206
4.87099
4.71118
4.57789
4.47382
4.38971
4.32222
4.25385
4.18603
4.1123
4.06339
4.06238
4.11378
4.29912
4.61737
4.87266
4.93823
4.86327
4.74541
4.67457
4.6218
4.57174
4.5224
4.4708
4.42045
4.38706
4.42427
4.53494
4.78333
5.02405
5.07533
5.0423
4.96491
4.88059
4.80329
4.74571
4.709
4.69126
4.69207
4.68539
4.66198
4.627
4.58353
4.5321
4.46237
4.36935
4.27361
4.20245
4.14902
4.11339
4.108
4.1296
4.21916
4.4843
8.7219
8.3191
7.92784
7.52896
7.13507
6.78513
6.43706
6.09108
5.76543
5.45803
5.1587
4.86873
4.63817
4.44753
4.22704
3.97801
3.76819
3.62282
3.64099
3.88226
4.95604
6.08017
6.27932
6.2117
6.07592
5.94649
5.81486
5.66461
5.50678
5.38372
5.28901
5.20282
5.12484
5.04551
4.96434
4.86462
4.73811
4.61807
4.51708
4.42332
4.32427
4.21629
4.12812
4.06939
4.06215
4.1224
4.34646
4.70495
4.97756
5.01383
4.93578
4.81203
4.73568
4.68136
4.63356
4.59632
4.57389
4.56312
4.53633
4.4899
4.45565
4.46183
4.55147
4.76802
4.94265
4.96753
4.90267
4.81405
4.77121
4.73794
4.72794
4.73829
4.73451
4.70335
4.65063
4.59072
4.53283
4.46687
4.38966
4.31503
4.25113
4.20551
4.17561
4.17237
4.20026
4.28046
4.46529
4.71042
8.88937
8.4836
8.09859
7.72049
7.36203
7.03032
6.72969
6.42211
6.09982
5.8
5.52931
5.25489
4.9674
4.71418
4.51011
4.29619
4.05746
3.82867
3.67173
3.6836
3.9231
4.9288
5.9082
6.13506
6.06317
5.93768
5.79645
5.6388
5.46714
5.3163
5.21811
5.13731
5.06412
4.98506
4.90911
4.84178
4.76426
4.65962
4.54476
4.42625
4.2873
4.15924
4.06924
4.0464
4.0747
4.31769
4.69951
5.02844
5.0828
5.03815
4.9408
4.83934
4.7816
4.74083
4.70888
4.69057
4.67766
4.657
4.60988
4.53846
4.46012
4.39224
4.36294
4.44807
4.66451
4.82819
4.82354
4.78957
4.76694
4.7654
4.77432
4.76724
4.74002
4.69157
4.62009
4.53124
4.44644
4.37814
4.32614
4.28057
4.24471
4.22322
4.22483
4.264
4.36201
4.51541
4.76031
4.88317
9.10701
8.70077
8.28616
7.89523
7.54206
7.23083
6.92832
6.63903
6.36834
6.08075
5.81104
5.56291
5.30039
5.0218
4.75575
4.54162
4.34175
4.11883
3.87039
3.70442
3.70724
3.93405
4.84941
5.73411
5.94991
5.89185
5.76574
5.61481
5.4426
5.27957
5.17318
5.09565
5.0172
4.93476
4.85617
4.77931
4.70336
4.62615
4.52253
4.37875
4.23082
4.108
4.03898
4.05992
4.27046
4.693
5.00542
5.13253
5.11436
5.06094
4.99004
4.93216
4.89705
4.86444
4.82049
4.77043
4.71452
4.6589
4.6041
4.53113
4.4424
4.33182
4.2468
4.25545
4.38466
4.61228
4.75512
4.79002
4.82061
4.83741
4.81017
4.77092
4.72451
4.66027
4.56456
4.45244
4.37413
4.32289
4.28176
4.25009
4.23351
4.24566
4.29523
4.39391
4.55737
4.77626
4.95916
4.96942
9.28498
8.93124
8.53438
8.11537
7.73023
7.40758
7.1057
6.81163
6.533
6.28541
6.03552
5.78714
5.54982
5.29835
5.03431
4.77582
4.55875
4.36666
4.1451
3.89364
3.717
3.70601
3.91846
4.74763
5.54235
5.78412
5.72126
5.58406
5.42895
5.26416
5.14283
5.05148
4.95995
4.87039
4.7905
4.71616
4.63836
4.54296
4.42075
4.28088
4.17885
4.09256
4.09766
4.28447
4.71776
5.01713
5.15491
5.18622
5.15994
5.11739
5.07595
5.04299
5.00729
4.9496
4.86211
4.77391
4.7018
4.63757
4.57513
4.50064
4.40735
4.29864
4.2165
4.20784
4.25293
4.41642
4.64507
4.81175
4.88621
4.87928
4.83537
4.77347
4.70467
4.61152
4.49863
4.41263
4.35309
4.30328
4.25946
4.23821
4.24599
4.29882
4.37203
4.5154
4.73402
4.94984
5.02024
4.99296
9.38673
9.07992
8.74421
8.37827
7.99273
7.61138
7.28209
6.98148
6.70164
6.43307
6.18864
5.95686
5.7227
5.49442
5.26046
5.01941
4.78048
4.56414
4.3658
4.13846
3.8888
3.70908
3.68601
3.8864
4.6147
5.35116
5.61917
5.5677
5.41398
5.24151
5.1056
5.00079
4.9079
4.81741
4.72982
4.64674
4.54897
4.43528
4.30235
4.20433
4.15419
4.1717
4.36781
4.7859
5.12344
5.21576
5.24266
5.25748
5.24563
5.19729
5.14943
5.10134
5.04117
4.96019
4.8605
4.75938
4.67575
4.60372
4.53496
4.46186
4.37651
4.28237
4.21423
4.18882
4.20912
4.32085
4.51264
4.74343
4.86234
4.86953
4.83699
4.76484
4.66616
4.55271
4.46301
4.40106
4.35598
4.31421
4.27316
4.26374
4.27617
4.31899
4.43249
4.62762
4.8516
5.01002
5.02124
4.95068
9.43488
9.16645
8.87062
8.55161
8.22856
7.89155
7.51865
7.1688
6.87641
6.6001
6.32901
6.08088
5.85586
5.63238
5.41307
5.20076
4.9861
4.76546
4.54929
4.33156
4.09214
3.84537
3.67788
3.65975
3.83677
4.47223
5.20407
5.44775
5.37642
5.19543
5.05238
4.95204
4.86659
4.77932
4.68439
4.56821
4.43565
4.31265
4.21366
4.19082
4.22253
4.43747
4.88232
5.2562
5.36197
5.33694
5.30825
5.27632
5.23768
5.19092
5.14367
5.09175
5.02655
4.9418
4.84467
4.75564
4.67624
4.598
4.52142
4.44811
4.37036
4.29768
4.25018
4.21489
4.22103
4.27858
4.38101
4.57937
4.75154
4.80098
4.78906
4.71453
4.59808
4.51018
4.46354
4.42853
4.39396
4.3538
4.31502
4.30849
4.31917
4.38377
4.54038
4.73926
4.91134
4.96331
4.93991
4.85369
9.43264
9.19815
8.93946
8.66001
8.37425
8.08799
7.76856
7.41501
7.07059
6.77557
6.48851
6.21187
5.96184
5.74471
5.53513
5.3265
5.12608
4.92492
4.71292
4.49118
4.25965
4.01272
3.78671
3.64481
3.61638
3.77389
4.36693
5.06338
5.19409
5.11907
5.00169
4.91104
4.82289
4.73211
4.61684
4.45936
4.31749
4.21752
4.19318
4.23453
4.48337
4.95622
5.36865
5.48344
5.44961
5.37432
5.31822
5.27326
5.22601
5.17838
5.12667
5.06387
4.98553
4.90221
4.83206
4.76418
4.68998
4.6104
4.52775
4.45232
4.40156
4.37019
4.34365
4.302
4.25695
4.21867
4.23215
4.31318
4.47438
4.61362
4.65251
4.61235
4.53404
4.48857
4.46732
4.45851
4.43157
4.40228
4.38093
4.38099
4.41187
4.5312
4.69724
4.83998
4.89695
4.87779
4.83445
4.76925
9.42057
9.19072
8.96047
8.71711
8.46834
8.21222
7.93038
7.62201
7.29038
6.95234
6.64466
6.35216
6.0807
5.84462
5.63692
5.43667
5.23572
5.03367
4.82666
4.61177
4.39229
4.17195
3.94141
3.72886
3.59847
3.54966
3.68641
4.24041
4.78376
4.9611
4.97258
4.8806
4.76888
4.65233
4.5061
4.33765
4.22389
4.19349
4.22553
4.4715
5.00642
5.43567
5.56286
5.53909
5.46675
5.3897
5.331
5.27135
5.20747
5.14579
5.0826
5.01753
4.95355
4.89372
4.83534
4.78038
4.72303
4.65585
4.57652
4.51374
4.48111
4.45587
4.4168
4.35828
4.27643
4.18244
4.1025
4.08653
4.14942
4.30082
4.44217
4.48184
4.4817
4.46797
4.48429
4.48404
4.45913
4.45442
4.47229
4.51563
4.60759
4.77137
4.87569
4.90316
4.87249
4.81702
4.7808
4.73259
9.44015
9.18685
8.95772
8.74014
8.52376
8.29066
8.03011
7.74579
7.44605
7.12423
6.79153
6.48028
6.19802
5.95432
5.73406
5.5197
5.3087
5.10099
4.89429
4.68775
4.48531
4.28762
4.0871
3.86782
3.66151
3.52613
3.45909
3.58007
4.0435
4.5407
4.82612
4.827
4.71097
4.55722
4.38033
4.22812
4.19078
4.21563
4.44856
4.99949
5.51118
5.6225
5.57531
5.52073
5.46027
5.39716
5.33799
5.27293
5.1902
5.10799
5.04239
4.98866
4.94377
4.90412
4.87018
4.83503
4.78943
4.7354
4.66846
4.59701
4.53183
4.47499
4.41948
4.3547
4.2658
4.14773
4.0236
3.95262
3.95735
4.03769
4.20137
4.33
4.40508
4.45307
4.51774
4.51457
4.49903
4.51621
4.59529
4.69667
4.85672
4.97604
5.00325
4.95458
4.86631
4.8136
4.78052
4.73235
9.49861
9.21222
8.96517
8.75307
8.54854
8.32406
8.07522
7.8103
7.53285
7.22835
6.91086
6.59916
6.31389
6.05694
5.82062
5.595
5.37473
5.15758
4.94499
4.74195
4.55128
4.369
4.18628
3.98843
3.76961
3.56788
3.42834
3.36653
3.475
3.87254
4.41274
4.66001
4.6065
4.44856
4.26973
4.18591
4.20829
4.42279
4.98647
5.5391
5.71358
5.64954
5.56582
5.51559
5.46204
5.40676
5.34927
5.28109
5.19184
5.1036
5.04098
4.99312
4.95424
4.93907
4.94047
4.91448
4.86963
4.80682
4.71298
4.61049
4.53251
4.46996
4.4076
4.33281
4.23729
4.12678
4.01727
3.93319
3.91059
3.92263
4.01381
4.17206
4.3121
4.39332
4.4527
4.48073
4.50029
4.57467
4.71633
4.85435
4.98961
5.04923
5.04407
4.99756
4.91578
4.83971
4.7988
4.75505
9.57023
9.28933
9.02955
8.79228
8.56489
8.32539
8.08007
7.82111
7.5555
7.28141
6.98602
6.69351
6.41674
6.15457
5.90384
5.66148
5.42764
5.20373
4.98875
4.78249
4.58849
4.40948
4.23933
4.06404
3.86841
3.656
3.46026
3.33133
3.27281
3.36328
3.73576
4.19189
4.38528
4.29665
4.19617
4.21389
4.40107
4.9532
5.6028
5.72938
5.67937
5.62658
5.5681
5.51668
5.47204
5.42516
5.37149
5.30123
5.20414
5.11923
5.06769
5.02741
5.007
4.99799
4.96403
4.9181
4.86381
4.79543
4.70391
4.60637
4.52331
4.45175
4.38144
4.30437
4.21796
4.12777
4.04004
3.96834
3.91137
3.89064
3.92848
4.04243
4.2074
4.34067
4.41806
4.46237
4.52239
4.65814
4.82214
4.94088
5.02469
5.04667
5.03089
4.98763
4.94654
4.89726
4.85881
4.81411
9.64435
9.38759
9.12527
8.8604
8.59205
8.33398
8.08092
7.81598
7.54408
7.28732
7.03414
6.76651
6.50112
6.23764
5.97606
5.71873
5.47043
5.23739
5.0203
4.81586
4.62136
4.43622
4.26137
4.09443
3.92541
3.73845
3.54015
3.35651
3.23005
3.15706
3.20855
3.49934
3.93667
4.0707
4.16394
4.39025
4.91921
5.53924
5.84172
5.80546
5.69705
5.63057
5.58782
5.54102
5.49646
5.45095
5.39282
5.31078
5.22284
5.16423
5.12047
5.08285
5.04179
4.99144
4.94242
4.88895
4.82597
4.75029
4.66777
4.58588
4.50569
4.42884
4.35545
4.28412
4.21101
4.13386
4.07339
4.02537
3.97932
3.94694
3.93617
3.97078
4.0818
4.24262
4.35169
4.4395
4.5679
4.74982
4.89156
4.95978
4.98016
4.99164
4.98999
4.97642
4.96339
4.93877
4.91578
4.88213
9.66064
9.45669
9.2139
8.94295
8.6618
8.38068
8.08909
7.79816
7.52389
7.28158
7.05621
6.80517
6.54992
6.29346
6.03248
5.76867
5.51024
5.26721
5.043
4.83555
4.64032
4.45395
4.27556
4.10697
3.94577
3.78463
3.61048
3.42173
3.23794
3.09752
2.98027
3.04138
3.33399
3.76943
4.23382
4.84311
5.56478
5.79793
5.83117
5.78018
5.704
5.65496
5.62292
5.57965
5.53016
5.46888
5.39335
5.31567
5.26184
5.22
5.17532
5.12317
5.06159
4.99634
4.92708
4.85194
4.77107
4.69236
4.6211
4.55044
4.47421
4.39417
4.31975
4.25586
4.20405
4.16186
4.12794
4.10464
4.07479
4.03195
3.98661
3.94878
3.96206
4.07672
4.24504
4.44062
4.65427
4.83236
4.90307
4.90807
4.9024
4.89898
4.9089
4.94249
4.9627
4.95903
4.95693
4.93109
9.72059
9.53464
9.297
9.01309
8.69706
8.37058
8.05835
7.78307
7.53796
7.30049
7.07242
6.83515
6.58374
6.33174
6.07592
5.81165
5.54095
5.28293
5.05167
4.84289
4.64723
4.45986
4.27933
4.11053
3.95281
3.80574
3.65226
3.47507
3.26763
3.07255
2.90306
2.86576
2.95688
3.42227
4.30952
5.25801
6.04564
6.06989
5.92285
5.77075
5.70689
5.67448
5.64276
5.59786
5.54249
5.46558
5.38488
5.33747
5.29715
5.24957
5.19504
5.13282
5.06355
4.9836
4.89423
4.80458
4.72414
4.65642
4.59413
4.52809
4.44836
4.3539
4.27649
4.22955
4.20169
4.20256
4.22444
4.21388
4.17144
4.1105
4.02063
3.93134
3.88406
3.93308
4.1127
4.40957
4.69089
4.87524
4.91924
4.88107
4.84929
4.84269
4.85198
4.8818
4.91908
4.95736
5.00907
4.98468
)
;

boundaryField
{
    inlet
    {
        type            fixedValue;
        value           uniform 1;
    }
    outlet
    {
        type            zeroGradient;
    }
    bottom
    {
        type            zeroGradient;
    }
    top
    {
        type            zeroGradient;
    }
    obstacle
    {
        type            zeroGradient;
    }
    defaultFaces
    {
        type            empty;
    }
}


// ************************************************************************* //
