/*--------------------------------*- C++ -*----------------------------------*\
  =========                 |
  \\      /  F ield         | OpenFOAM: The Open Source CFD Toolbox
   \\    /   O peration     | Website:  https://openfoam.org
    \\  /    A nd           | Version:  7
     \\/     M anipulation  |
\*---------------------------------------------------------------------------*/
FoamFile
{
    version     2.0;
    format      ascii;
    class       volVectorField;
    location    "6.5";
    object      U;
}
// * * * * * * * * * * * * * * * * * * * * * * * * * * * * * * * * * * * * * //

dimensions      [0 1 -1 0 0 0 0];

internalField   nonuniform List<vector> 
3328
(
(-2.14747 0.000781084 0)
(-0.170896 0.000632797 0)
(0.508064 0.00244584 0)
(0.500985 0.00252104 0)
(0.49311 0.00269271 0)
(0.48384 0.00288326 0)
(0.473787 0.00320956 0)
(0.462924 0.00358759 0)
(0.451136 0.00406656 0)
(0.438201 0.00459535 0)
(0.423907 0.00522576 0)
(0.407988 0.00590975 0)
(0.390258 0.00673883 0)
(0.370621 0.00767995 0)
(0.349093 0.00880817 0)
(0.325509 0.0100438 0)
(0.299573 0.0113858 0)
(0.270807 0.0128661 0)
(0.238252 0.0143854 0)
(0.202736 0.0161092 0)
(0.163704 0.0179359 0)
(0.120854 0.0198718 0)
(0.0743307 0.0210919 0)
(0.0260999 0.022608 0)
(-2.14735 0.00209872 0)
(-0.170941 0.00189296 0)
(0.507923 0.00727791 0)
(0.500848 0.00752666 0)
(0.493024 0.00814816 0)
(0.483797 0.00887997 0)
(0.473839 0.0100682 0)
(0.463096 0.011459 0)
(0.451439 0.0131763 0)
(0.438586 0.0150237 0)
(0.424356 0.0171601 0)
(0.40848 0.0194471 0)
(0.390821 0.0221736 0)
(0.371234 0.0252463 0)
(0.349702 0.0288812 0)
(0.325971 0.0328263 0)
(0.299733 0.037067 0)
(0.270626 0.0416549 0)
(0.237722 0.0464202 0)
(0.201921 0.0516126 0)
(0.162595 0.0569874 0)
(0.119586 0.0625371 0)
(0.0730386 0.0658419 0)
(0.0254578 0.0694861 0)
(-2.14736 0.00356641 0)
(-0.171094 0.00316809 0)
(0.507781 0.0123024 0)
(0.500853 0.0128184 0)
(0.493323 0.0141197 0)
(0.484391 0.0155196 0)
(0.474781 0.0176309 0)
(0.46438 0.0200557 0)
(0.453088 0.0229932 0)
(0.440579 0.0261295 0)
(0.426748 0.0297614 0)
(0.411306 0.0336591 0)
(0.394185 0.0382787 0)
(0.375157 0.04344 0)
(0.354215 0.0494806 0)
(0.331045 0.0560185 0)
(0.305358 0.0630611 0)
(0.276722 0.0706884 0)
(0.244359 0.0786808 0)
(0.208493 0.0874342 0)
(0.168445 0.0965961 0)
(0.124271 0.10628 0)
(0.0758187 0.112096 0)
(0.0265128 0.117537 0)
(-2.14739 0.00506036 0)
(-0.171232 0.00427461 0)
(0.507702 0.0175002 0)
(0.501006 0.0183569 0)
(0.493903 0.0204571 0)
(0.485396 0.0226495 0)
(0.4763 0.025774 0)
(0.466383 0.0292833 0)
(0.455628 0.0334692 0)
(0.443645 0.0379224 0)
(0.430436 0.0430679 0)
(0.41565 0.0485741 0)
(0.399324 0.0550461 0)
(0.381125 0.0622257 0)
(0.361098 0.0705708 0)
(0.338829 0.0796356 0)
(0.313949 0.089499 0)
(0.285893 0.100402 0)
(0.25355 0.112233 0)
(0.217218 0.125439 0)
(0.176237 0.139236 0)
(0.131133 0.153959 0)
(0.080603 0.163342 0)
(0.0282232 0.170836 0)
(-2.14747 0.00656866 0)
(-0.171331 0.00536055 0)
(0.507832 0.0228283 0)
(0.501462 0.0241057 0)
(0.494893 0.0271364 0)
(0.486862 0.0302292 0)
(0.47833 0.034376 0)
(0.468953 0.0389809 0)
(0.45885 0.0444208 0)
(0.447524 0.0501783 0)
(0.435088 0.0567772 0)
(0.421105 0.0637881 0)
(0.405756 0.0719543 0)
(0.388579 0.0810079 0)
(0.369668 0.091574 0)
(0.348482 0.103266 0)
(0.324695 0.116224 0)
(0.297803 0.130698 0)
(0.267222 0.146408 0)
(0.233184 0.163818 0)
(0.19384 0.182133 0)
(0.148577 0.203248 0)
(0.0931944 0.219556 0)
(0.0340047 0.232029 0)
(-2.14762 0.00809075 0)
(-0.171379 0.0064655 0)
(0.50834 0.0281663 0)
(0.502394 0.029899 0)
(0.496476 0.0338752 0)
(0.489025 0.0379492 0)
(0.481102 0.0431445 0)
(0.47226 0.0487914 0)
(0.462828 0.055444 0)
(0.452168 0.0624476 0)
(0.44055 0.0703929 0)
(0.427449 0.0787744 0)
(0.413214 0.0884357 0)
(0.397284 0.0991919 0)
(0.379791 0.11179 0)
(0.360224 0.125987 0)
(0.338333 0.141835 0)
(0.31363 0.159554 0)
(0.285288 0.178937 0)
(0.252617 0.202021 0)
(0.212193 0.228885 0)
(0.163598 0.260864 0)
(0.10392 0.288038 0)
(0.0340423 0.304432 0)
(-2.14776 0.00957146 0)
(-0.171339 0.0075937 0)
(0.509285 0.0333698 0)
(0.503846 0.0355592 0)
(0.498611 0.0403753 0)
(0.491845 0.045462 0)
(0.484613 0.0516519 0)
(0.47637 0.0583076 0)
(0.467692 0.066011 0)
(0.457807 0.0741337 0)
(0.447114 0.0832611 0)
(0.435021 0.0928844 0)
(0.422028 0.103836 0)
(0.407621 0.11608 0)
(0.391879 0.130284 0)
(0.374445 0.146587 0)
(0.354708 0.165059 0)
(0.33234 0.186255 0)
(0.306452 0.210096 0)
(0.278102 0.239329 0)
(0.244787 0.273311 0)
(0.204038 0.314331 0)
(0.143158 0.35488 0)
(0.0623623 0.385404 0)
(-2.14793 0.0110283 0)
(-0.171221 0.0087871 0)
(0.510692 0.0382854 0)
(0.505839 0.040899 0)
(0.501244 0.0463644 0)
(0.495249 0.0523772 0)
(0.488783 0.0594478 0)
(0.481192 0.0669971 0)
(0.473269 0.0756506 0)
(0.464207 0.084751 0)
(0.454462 0.094872 0)
(0.443464 0.10563 0)
(0.431772 0.117689 0)
(0.419108 0.131193 0)
(0.405336 0.146573 0)
(0.390264 0.16473 0)
(0.37305 0.185466 0)
(0.354197 0.209724 0)
(0.332558 0.236389 0)
(0.311207 0.268789 0)
(0.282216 0.309459 0)
(0.244617 0.375641 0)
(0.157594 0.447763 0)
(0.111866 0.531652 0)
(-2.14809 0.0123726 0)
(-0.171041 0.0100505 0)
(0.512521 0.0427449 0)
(0.508303 0.0457111 0)
(0.504263 0.051614 0)
(0.499084 0.0583869 0)
(0.49344 0.0661795 0)
(0.486605 0.0744902 0)
(0.479423 0.0838823 0)
(0.471241 0.0938864 0)
(0.462439 0.104844 0)
(0.452697 0.116586 0)
(0.442304 0.129465 0)
(0.431645 0.144064 0)
(0.419554 0.160345 0)
(0.407587 0.179874 0)
(0.393257 0.202005 0)
(0.378914 0.228005 0)
(0.361582 0.256065 0)
(0.346189 0.292639 0)
(0.32145 0.345246 0)
(0.304633 0.430189 0)
(0.278189 0.511166 0)
(0.336697 0.574454 0)
(-2.14828 0.0136532 0)
(-0.170915 0.0115078 0)
(0.51464 0.0465943 0)
(0.511071 0.0498249 0)
(0.507519 0.0559722 0)
(0.503148 0.0633087 0)
(0.49832 0.0716515 0)
(0.492378 0.0806276 0)
(0.485935 0.0906 0)
(0.478695 0.101329 0)
(0.470795 0.112941 0)
(0.46243 0.125554 0)
(0.453305 0.139151 0)
(0.444642 0.154606 0)
(0.434502 0.17161 0)
(0.425547 0.191861 0)
(0.414575 0.214585 0)
(0.404533 0.241128 0)
(0.392119 0.270462 0)
(0.381648 0.309518 0)
(0.37074 0.366803 0)
(0.367467 0.443164 0)
(0.38035 0.490969 0)
(0.431381 0.481589 0)
(-2.14838 0.014751 0)
(-0.170959 0.0133535 0)
(0.516779 0.0496629 0)
(0.513891 0.053171 0)
(0.510762 0.0594659 0)
(0.507218 0.0671957 0)
(0.503224 0.0759141 0)
(0.498329 0.0853912 0)
(0.492703 0.0957849 0)
(0.486449 0.107065 0)
(0.479505 0.119189 0)
(0.472531 0.132464 0)
(0.464856 0.146722 0)
(0.457822 0.162783 0)
(0.450057 0.180456 0)
(0.443497 0.200888 0)
(0.436294 0.223829 0)
(0.429558 0.250055 0)
(0.423108 0.279749 0)
(0.416504 0.317256 0)
(0.419777 0.370047 0)
(0.425939 0.435843 0)
(0.455531 0.477558 0)
(0.493492 0.472426 0)
(-2.1483 0.0157065 0)
(-0.171417 0.0157051 0)
(0.51893 0.052087 0)
(0.517114 0.0557533 0)
(0.514429 0.0620997 0)
(0.511705 0.0700978 0)
(0.508493 0.0791123 0)
(0.504585 0.0889551 0)
(0.499832 0.0996486 0)
(0.49453 0.111304 0)
(0.488674 0.123854 0)
(0.482925 0.137595 0)
(0.476997 0.152413 0)
(0.471177 0.168854 0)
(0.466062 0.187124 0)
(0.461233 0.207568 0)
(0.457668 0.230578 0)
(0.45354 0.256198 0)
(0.452431 0.285106 0)
(0.44978 0.318955 0)
(0.460121 0.363154 0)
(0.473419 0.418116 0)
(0.5053 0.457228 0)
(0.532533 0.455905 0)
(-2.14795 0.0164821 0)
(-0.172082 0.0178565 0)
(0.522676 0.0530218 0)
(0.52167 0.0570648 0)
(0.519282 0.0639454 0)
(0.517095 0.0722881 0)
(0.514513 0.0815886 0)
(0.51135 0.0917785 0)
(0.507439 0.10269 0)
(0.503054 0.114524 0)
(0.498443 0.127327 0)
(0.493778 0.141257 0)
(0.489448 0.156562 0)
(0.485004 0.173325 0)
(0.482225 0.192007 0)
(0.478951 0.212479 0)
(0.478264 0.235383 0)
(0.476732 0.260407 0)
(0.479068 0.287922 0)
(0.48042 0.317969 0)
(0.4909 0.352994 0)
(0.508075 0.396159 0)
(0.535807 0.437073 0)
(0.561945 0.449331 0)
(-2.14745 0.0172926 0)
(-0.172978 0.0183312 0)
(0.527697 0.0528677 0)
(0.5274 0.057604 0)
(0.525045 0.0648435 0)
(0.523104 0.0736889 0)
(0.520963 0.0837387 0)
(0.518423 0.0944698 0)
(0.51533 0.105598 0)
(0.51199 0.117365 0)
(0.50874 0.130318 0)
(0.504979 0.144455 0)
(0.502197 0.160148 0)
(0.499117 0.177026 0)
(0.498174 0.195614 0)
(0.496704 0.215876 0)
(0.498223 0.238329 0)
(0.499141 0.262794 0)
(0.503594 0.28911 0)
(0.508103 0.316908 0)
(0.517856 0.346103 0)
(0.532752 0.37904 0)
(0.555493 0.413136 0)
(0.582695 0.437133 0)
(-2.1471 0.0181786 0)
(-0.173143 0.0170567 0)
(0.532285 0.0510466 0)
(0.532166 0.0572375 0)
(0.530185 0.0656452 0)
(0.528914 0.0751105 0)
(0.527405 0.085808 0)
(0.525455 0.0970343 0)
(0.523493 0.108325 0)
(0.521135 0.120084 0)
(0.519441 0.1331 0)
(0.516611 0.147437 0)
(0.515116 0.163383 0)
(0.513187 0.180288 0)
(0.513691 0.198492 0)
(0.514153 0.218198 0)
(0.51748 0.239648 0)
(0.520567 0.263072 0)
(0.526568 0.288032 0)
(0.533089 0.314349 0)
(0.542933 0.340984 0)
(0.555373 0.368759 0)
(0.573116 0.39632 0)
(0.593903 0.421968 0)
(-2.14721 0.018981 0)
(-0.172045 0.0160044 0)
(0.533195 0.0451362 0)
(0.534482 0.0590822 0)
(0.534389 0.0669683 0)
(0.534162 0.0760994 0)
(0.533484 0.0875632 0)
(0.532094 0.0992612 0)
(0.531316 0.110618 0)
(0.530325 0.122413 0)
(0.530048 0.135611 0)
(0.528474 0.150212 0)
(0.52794 0.166247 0)
(0.527003 0.18308 0)
(0.528574 0.20072 0)
(0.530785 0.219538 0)
(0.535727 0.239644 0)
(0.540697 0.26162 0)
(0.548123 0.284947 0)
(0.555992 0.309777 0)
(0.566416 0.335014 0)
(0.577987 0.36088 0)
(0.592588 0.386234 0)
(0.609221 0.410494 0)
(-2.14777 0.0194651 0)
(-0.170252 0.0165999 0)
(0.533576 0.0408438 0)
(0.535273 0.0585027 0)
(0.538415 0.0667625 0)
(0.538467 0.0766926 0)
(0.538354 0.0886452 0)
(0.537756 0.100523 0)
(0.538286 0.111962 0)
(0.538948 0.123808 0)
(0.5402 0.136908 0)
(0.540179 0.151657 0)
(0.540495 0.16776 0)
(0.540507 0.184599 0)
(0.542822 0.201843 0)
(0.546334 0.219813 0)
(0.552639 0.238583 0)
(0.559205 0.259024 0)
(0.568006 0.280586 0)
(0.57706 0.303755 0)
(0.588354 0.327552 0)
(0.600203 0.352313 0)
(0.613778 0.377098 0)
(0.628425 0.401971 0)
(-2.14847 0.0196737 0)
(-0.16925 0.0175657 0)
(0.536429 0.0388316 0)
(0.537754 0.0568545 0)
(0.541662 0.0656616 0)
(0.542012 0.0761647 0)
(0.542202 0.0880829 0)
(0.54247 0.099995 0)
(0.544176 0.111827 0)
(0.546478 0.124174 0)
(0.549402 0.137562 0)
(0.551138 0.152069 0)
(0.552496 0.167555 0)
(0.553481 0.183982 0)
(0.556507 0.200918 0)
(0.560948 0.218392 0)
(0.568294 0.236289 0)
(0.57613 0.25559 0)
(0.586131 0.27566 0)
(0.596231 0.29723 0)
(0.608581 0.319307 0)
(0.621324 0.342752 0)
(0.635624 0.366846 0)
(0.650126 0.392248 0)
(-2.14917 0.0196545 0)
(-0.168686 0.0178691 0)
(0.540056 0.0398982 0)
(0.542822 0.0560364 0)
(0.545859 0.0650015 0)
(0.545476 0.0753835 0)
(0.545473 0.0866947 0)
(0.546335 0.0980804 0)
(0.549156 0.11006 0)
(0.552899 0.123033 0)
(0.557451 0.13663 0)
(0.560857 0.150916 0)
(0.563569 0.165812 0)
(0.565586 0.181394 0)
(0.569421 0.19749 0)
(0.574665 0.214454 0)
(0.582855 0.231921 0)
(0.591734 0.250649 0)
(0.60275 0.269879 0)
(0.613734 0.290483 0)
(0.627134 0.311209 0)
(0.640965 0.333359 0)
(0.656962 0.356108 0)
(0.672922 0.380996 0)
(-2.14981 0.0196012 0)
(-0.168306 0.017306 0)
(0.546138 0.0421975 0)
(0.549109 0.0548518 0)
(0.550517 0.063848 0)
(0.549212 0.0740346 0)
(0.549142 0.0842863 0)
(0.550604 0.0950062 0)
(0.554228 0.107111 0)
(0.558909 0.120658 0)
(0.564518 0.134449 0)
(0.56902 0.148261 0)
(0.57293 0.162221 0)
(0.57628 0.176872 0)
(0.581349 0.192208 0)
(0.58763 0.208574 0)
(0.596603 0.225478 0)
(0.606304 0.243682 0)
(0.618069 0.26234 0)
(0.629806 0.282324 0)
(0.64411 0.302441 0)
(0.658918 0.323975 0)
(0.67669 0.34558 0)
(0.694946 0.369387 0)
(-2.15048 0.0197205 0)
(-0.167302 0.0167055 0)
(0.552838 0.0443549 0)
(0.55463 0.0523491 0)
(0.554844 0.0617349 0)
(0.552935 0.0714707 0)
(0.553678 0.0805496 0)
(0.556082 0.091008 0)
(0.560593 0.103639 0)
(0.565819 0.117704 0)
(0.571345 0.131386 0)
(0.576044 0.144616 0)
(0.58064 0.157671 0)
(0.585278 0.171372 0)
(0.591734 0.185794 0)
(0.59936 0.201355 0)
(0.609335 0.217406 0)
(0.619966 0.234696 0)
(0.632485 0.25259 0)
(0.645035 0.272156 0)
(0.660129 0.291969 0)
(0.675808 0.313362 0)
(0.69483 0.334674 0)
(0.715034 0.357664 0)
(-2.15125 0.0200065 0)
(-0.165478 0.0168008 0)
(0.558129 0.0436219 0)
(0.558878 0.0491996 0)
(0.55772 0.058796 0)
(0.556367 0.0675532 0)
(0.55878 0.0759319 0)
(0.562665 0.0869257 0)
(0.56839 0.100302 0)
(0.573548 0.114267 0)
(0.578499 0.127376 0)
(0.58267 0.139957 0)
(0.587528 0.152351 0)
(0.593162 0.165424 0)
(0.600782 0.179164 0)
(0.609682 0.193956 0)
(0.620696 0.209083 0)
(0.632372 0.225189 0)
(0.645724 0.241686 0)
(0.659243 0.259858 0)
(0.675229 0.278867 0)
(0.691992 0.300112 0)
(0.712103 0.321533 0)
(0.733796 0.344613 0)
(-2.15209 0.0202543 0)
(-0.163056 0.0180997 0)
(0.561846 0.0406161 0)
(0.560768 0.0462224 0)
(0.558867 0.0550499 0)
(0.559891 0.0628429 0)
(0.564379 0.0717515 0)
(0.570257 0.0840047 0)
(0.576527 0.0973837 0)
(0.581292 0.110186 0)
(0.585448 0.122197 0)
(0.589123 0.133967 0)
(0.594157 0.145859 0)
(0.600572 0.158634 0)
(0.609176 0.172175 0)
(0.619172 0.18674 0)
(0.631032 0.201449 0)
(0.643488 0.216628 0)
(0.657452 0.231521 0)
(0.671982 0.247539 0)
(0.689068 0.264387 0)
(0.707179 0.284007 0)
(0.728437 0.304955 0)
(0.751444 0.328014 0)
(-2.15295 0.0201259 0)
(-0.160373 0.0204835 0)
(0.563317 0.0366889 0)
(0.560367 0.0423077 0)
(0.560229 0.0503828 0)
(0.564001 0.0585751 0)
(0.570799 0.0693954 0)
(0.577961 0.0823138 0)
(0.583605 0.0945053 0)
(0.587981 0.105542 0)
(0.591625 0.116041 0)
(0.595266 0.126718 0)
(0.600711 0.137989 0)
(0.607967 0.150548 0)
(0.617606 0.16424 0)
(0.62859 0.17917 0)
(0.641013 0.194162 0)
(0.653756 0.208927 0)
(0.667796 0.222642 0)
(0.682934 0.236602 0)
(0.700998 0.250792 0)
(0.720787 0.267434 0)
(0.743542 0.285867 0)
(0.767918 0.307324 0)
(-2.1537 0.0193823 0)
(-0.158044 0.0233288 0)
(0.563057 0.0307076 0)
(0.559412 0.0377765 0)
(0.563377 0.046053 0)
(0.569479 0.0563313 0)
(0.577952 0.0685668 0)
(0.584285 0.0807706 0)
(0.589334 0.0911855 0)
(0.593142 0.100467 0)
(0.596764 0.109349 0)
(0.600964 0.118864 0)
(0.607379 0.129347 0)
(0.615882 0.141666 0)
(0.626826 0.155562 0)
(0.638744 0.17087 0)
(0.651273 0.186218 0)
(0.663648 0.200953 0)
(0.677196 0.214229 0)
(0.692398 0.226969 0)
(0.710853 0.239061 0)
(0.73203 0.252454 0)
(0.756477 0.267239 0)
(0.782569 0.285077 0)
(-2.15432 0.0182014 0)
(-0.156862 0.0254258 0)
(0.562112 0.0226282 0)
(0.56012 0.0344519 0)
(0.568247 0.0440839 0)
(0.576662 0.055499 0)
(0.584155 0.0674551 0)
(0.589212 0.0781087 0)
(0.593311 0.0870433 0)
(0.596545 0.0949582 0)
(0.600461 0.10267 0)
(0.605763 0.111197 0)
(0.61372 0.121074 0)
(0.623952 0.133192 0)
(0.636239 0.146921 0)
(0.648928 0.161681 0)
(0.661278 0.1764 0)
(0.67317 0.190724 0)
(0.686178 0.204119 0)
(0.701154 0.216734 0)
(0.719474 0.228277 0)
(0.741305 0.23964 0)
(0.76685 0.251263 0)
(0.794706 0.264866 0)
(-2.1548 0.0169969 0)
(-0.157519 0.0252383 0)
(0.563438 0.0134268 0)
(0.563488 0.0362253 0)
(0.575544 0.0436014 0)
(0.583331 0.0544135 0)
(0.588986 0.0649729 0)
(0.592908 0.0741389 0)
(0.595856 0.0817916 0)
(0.598798 0.0888569 0)
(0.603203 0.0960631 0)
(0.60987 0.104307 0)
(0.619732 0.1143 0)
(0.631751 0.126422 0)
(0.644809 0.139257 0)
(0.657464 0.152106 0)
(0.669408 0.164641 0)
(0.681152 0.177255 0)
(0.694079 0.190074 0)
(0.709026 0.203088 0)
(0.726957 0.215626 0)
(0.748611 0.227086 0)
(0.774397 0.237575 0)
(0.803367 0.248014 0)
(-2.15511 0.0160967 0)
(-0.160235 0.0227798 0)
(0.56681 0.0117538 0)
(0.571089 0.0353628 0)
(0.582402 0.0430608 0)
(0.588316 0.052511 0)
(0.592783 0.0611383 0)
(0.595454 0.0683182 0)
(0.597748 0.0746366 0)
(0.600874 0.0812028 0)
(0.606227 0.0889589 0)
(0.614938 0.0985797 0)
(0.626655 0.110029 0)
(0.63959 0.122006 0)
(0.652378 0.133082 0)
(0.664344 0.143278 0)
(0.676061 0.152806 0)
(0.688502 0.162618 0)
(0.7024 0.173605 0)
(0.718197 0.185816 0)
(0.736263 0.199068 0)
(0.757433 0.21205 0)
(0.782089 0.223968 0)
(0.810298 0.233714 0)
(-2.15547 0.0155908 0)
(-0.162732 0.017701 0)
(0.572401 0.0155179 0)
(0.579203 0.034635 0)
(0.587043 0.0423071 0)
(0.591692 0.0496957 0)
(0.594692 0.0557689 0)
(0.596482 0.0606024 0)
(0.59879 0.0656284 0)
(0.603079 0.0722038 0)
(0.61085 0.0814677 0)
(0.621654 0.0939105 0)
(0.634069 0.106537 0)
(0.646234 0.117538 0)
(0.657598 0.12667 0)
(0.668495 0.134363 0)
(0.67999 0.141377 0)
(0.693302 0.148479 0)
(0.708833 0.156821 0)
(0.726686 0.167088 0)
(0.746361 0.179832 0)
(0.768038 0.193619 0)
(0.791404 0.207514 0)
(0.817448 0.218525 0)
(-2.1562 0.0152379 0)
(-0.162984 0.0130012 0)
(0.579054 0.0199697 0)
(0.585092 0.0336209 0)
(0.589849 0.0402765 0)
(0.592472 0.0458907 0)
(0.594104 0.0493695 0)
(0.5964 0.0521715 0)
(0.600334 0.0565502 0)
(0.607619 0.0643783 0)
(0.617936 0.0761673 0)
(0.629699 0.0890087 0)
(0.641095 0.100923 0)
(0.651255 0.11109 0)
(0.660717 0.119214 0)
(0.670562 0.125601 0)
(0.681842 0.131025 0)
(0.695748 0.136212 0)
(0.71291 0.142531 0)
(0.733362 0.150382 0)
(0.755533 0.161086 0)
(0.778399 0.173219 0)
(0.800672 0.186771 0)
(0.824443 0.198705 0)
(-2.15728 0.0144468 0)
(-0.160847 0.00971374 0)
(0.585139 0.0221494 0)
(0.588617 0.0306715 0)
(0.590722 0.0368109 0)
(0.591195 0.0403804 0)
(0.592744 0.0419421 0)
(0.595995 0.0443754 0)
(0.603171 0.0496866 0)
(0.613733 0.0592378 0)
(0.625963 0.0707793 0)
(0.637077 0.0820421 0)
(0.646923 0.0920749 0)
(0.655233 0.100929 0)
(0.663189 0.108458 0)
(0.672055 0.114777 0)
(0.682786 0.120379 0)
(0.697026 0.125485 0)
(0.715812 0.131412 0)
(0.738574 0.138156 0)
(0.762967 0.146159 0)
(0.787252 0.154306 0)
(0.809842 0.164564 0)
(0.83264 0.174709 0)
(-2.15858 0.0132531 0)
(-0.156994 0.00883535 0)
(0.59006 0.0208007 0)
(0.590594 0.0247755 0)
(0.589966 0.0301501 0)
(0.58929 0.032524 0)
(0.591673 0.0346836 0)
(0.597942 0.0396459 0)
(0.607923 0.0479619 0)
(0.620304 0.0571783 0)
(0.631945 0.0658632 0)
(0.642097 0.0737115 0)
(0.650757 0.0808343 0)
(0.657947 0.0870971 0)
(0.665009 0.0931533 0)
(0.673332 0.0992317 0)
(0.684526 0.106027 0)
(0.700557 0.114293 0)
(0.720435 0.122751 0)
(0.742576 0.129155 0)
(0.766258 0.134523 0)
(0.790445 0.138536 0)
(0.81404 0.143907 0)
(0.837784 0.149597 0)
(-2.15987 0.0119779 0)
(-0.153373 0.0124212 0)
(0.592177 0.0144857 0)
(0.590203 0.0170997 0)
(0.587816 0.0206538 0)
(0.588263 0.024487 0)
(0.593661 0.030374 0)
(0.602201 0.0387401 0)
(0.613339 0.047336 0)
(0.624368 0.0547413 0)
(0.634205 0.0606746 0)
(0.643188 0.065011 0)
(0.651055 0.0682629 0)
(0.658566 0.0713892 0)
(0.667158 0.0757764 0)
(0.678005 0.0830061 0)
(0.691845 0.0931653 0)
(0.708561 0.103679 0)
(0.72685 0.113648 0)
(0.746469 0.120828 0)
(0.767565 0.125087 0)
(0.790236 0.126137 0)
(0.814172 0.127191 0)
(0.839629 0.128179 0)
(-2.16082 0.0105597 0)
(-0.150987 0.0163993 0)
(0.590968 0.00662883 0)
(0.587312 0.00858106 0)
(0.58761 0.0126354 0)
(0.591385 0.0193239 0)
(0.599178 0.0279111 0)
(0.608663 0.0377908 0)
(0.617856 0.0458107 0)
(0.626377 0.0515917 0)
(0.634284 0.0553082 0)
(0.641366 0.0567906 0)
(0.648423 0.0569277 0)
(0.656912 0.0576311 0)
(0.667991 0.0607182 0)
(0.682627 0.0672053 0)
(0.699759 0.0775636 0)
(0.717134 0.0894166 0)
(0.73367 0.10041 0)
(0.750346 0.108529 0)
(0.768031 0.113711 0)
(0.787794 0.114693 0)
(0.810407 0.113746 0)
(0.836224 0.111638 0)
(-2.16131 0.00903373 0)
(-0.150473 0.0193257 0)
(0.587067 -0.000998818 0)
(0.584973 0.0037449 0)
(0.590366 0.00826103 0)
(0.597576 0.0159957 0)
(0.606845 0.0257064 0)
(0.614525 0.0343586 0)
(0.621711 0.0407654 0)
(0.627998 0.0449546 0)
(0.633149 0.0467645 0)
(0.638089 0.0467615 0)
(0.644579 0.046385 0)
(0.654658 0.0473817 0)
(0.66981 0.0515382 0)
(0.688469 0.0585987 0)
(0.707362 0.0663263 0)
(0.72543 0.074368 0)
(0.741369 0.0829272 0)
(0.755913 0.0905077 0)
(0.770404 0.0964364 0)
(0.786739 0.0993468 0)
(0.806936 0.0998672 0)
(0.832467 0.0978907 0)
(-2.16144 0.00714728 0)
(-0.151698 0.0172741 0)
(0.585746 -0.00952509 0)
(0.58477 0.00615721 0)
(0.594581 0.00950004 0)
(0.603755 0.0166806 0)
(0.611783 0.0226943 0)
(0.618169 0.0273816 0)
(0.623541 0.031047 0)
(0.627339 0.0330999 0)
(0.630809 0.0337358 0)
(0.634943 0.0342943 0)
(0.642394 0.0363355 0)
(0.656097 0.0412682 0)
(0.673575 0.0471066 0)
(0.692671 0.0521069 0)
(0.711284 0.0566196 0)
(0.729893 0.0602926 0)
(0.746416 0.0637868 0)
(0.760071 0.0677156 0)
(0.772295 0.0719809 0)
(0.786102 0.0754968 0)
(0.804903 0.0795812 0)
(0.830755 0.0829192 0)
(-2.16158 0.00501997 0)
(-0.154156 0.00868727 0)
(0.586827 -0.0082479 0)
(0.589193 0.00784512 0)
(0.598645 0.0110985 0)
(0.605942 0.0149652 0)
(0.612149 0.0176113 0)
(0.617382 0.0186428 0)
(0.621281 0.0183497 0)
(0.624385 0.0180231 0)
(0.627964 0.0199896 0)
(0.634488 0.0246196 0)
(0.645334 0.0311811 0)
(0.659556 0.0378644 0)
(0.675647 0.0434216 0)
(0.692715 0.0469129 0)
(0.710526 0.0479766 0)
(0.728655 0.0467201 0)
(0.745745 0.0447095 0)
(0.761012 0.0440383 0)
(0.774891 0.0470016 0)
(0.790528 0.0531886 0)
(0.809912 0.0608485 0)
(0.833504 0.0678885 0)
(-2.16255 0.00328348 0)
(-0.15553 -0.00028653 0)
(0.590617 -0.00343139 0)
(0.593972 0.00936766 0)
(0.600072 0.0123229 0)
(0.604838 0.0145025 0)
(0.609268 0.0141845 0)
(0.612943 0.0113834 0)
(0.617243 0.00772675 0)
(0.622905 0.00604387 0)
(0.629937 0.00830004 0)
(0.638999 0.0148535 0)
(0.650314 0.0234038 0)
(0.66289 0.0314799 0)
(0.676222 0.0377926 0)
(0.690751 0.0412479 0)
(0.706341 0.04057 0)
(0.722531 0.0362143 0)
(0.739769 0.0298523 0)
(0.758682 0.0247953 0)
(0.778294 0.0251754 0)
(0.797742 0.0303894 0)
(0.817809 0.0392262 0)
(0.839376 0.0489802 0)
(-2.16327 0.00155742 0)
(-0.154707 -0.00567565 0)
(0.594013 0.00233179 0)
(0.596217 0.00902922 0)
(0.599331 0.0110551 0)
(0.602272 0.0105497 0)
(0.604856 0.00708647 0)
(0.608029 0.00304805 0)
(0.613158 0.000524842 0)
(0.621116 5.85248e-05 0)
(0.631909 0.0014611 0)
(0.643795 0.00681807 0)
(0.656585 0.0148353 0)
(0.66929 0.0223042 0)
(0.6811 0.0269882 0)
(0.691871 0.0281355 0)
(0.702858 0.0259152 0)
(0.716161 0.0209947 0)
(0.732194 0.0154136 0)
(0.751756 0.011481 0)
(0.775001 0.00993648 0)
(0.800421 0.0126608 0)
(0.825311 0.0202794 0)
(0.848569 0.0296797 0)
(-2.164 0.00110195 0)
(-0.153167 -0.00172623 0)
(0.596729 0.00258476 0)
(0.597307 0.00340507 0)
(0.598743 0.00321381 0)
(0.599313 0.00196342 0)
(0.600789 0.000430689 0)
(0.603974 -0.000297851 0)
(0.610789 -2.35415e-05 0)
(0.620729 0.00131349 0)
(0.634222 0.00369767 0)
(0.649184 0.00571555 0)
(0.661755 0.0074717 0)
(0.671937 0.00908304 0)
(0.67967 0.00968865 0)
(0.687025 0.0088528 0)
(0.695871 0.00718871 0)
(0.709308 0.00559352 0)
(0.729718 0.00518211 0)
(0.753854 0.0059719 0)
(0.780096 0.00723403 0)
(0.807315 0.00902989 0)
(0.833212 0.0108391 0)
(0.854975 0.012611 0)
(0.405784 0.359844 0)
(0.121869 0.183023 0)
(0.060986 0.0494463 0)
(0.020914 0.0168321 0)
(0.00435117 0.00825039 0)
(9.49446e-05 0.00232649 0)
(-0.001532 0.00138119 0)
(-0.00174345 0.000679015 0)
(0.427835 0.303018 0)
(0.262415 0.179728 0)
(0.185633 0.0701148 0)
(0.0936292 0.0394584 0)
(0.0406797 0.0235189 0)
(0.0168094 0.00861459 0)
(0.00350262 0.00661079 0)
(-0.000189734 0.00295889 0)
(0.468486 0.393815 0)
(0.356919 0.327596 0)
(0.270191 0.216417 0)
(0.158163 0.150517 0)
(0.0898781 0.0893583 0)
(0.0454736 0.0426563 0)
(0.016564 0.0158179 0)
(0.00482364 0.000730825 0)
(0.526023 0.431745 0)
(0.475395 0.38171 0)
(0.408982 0.289202 0)
(0.29823 0.215026 0)
(0.206703 0.139593 0)
(0.121217 0.0850628 0)
(0.0540544 0.0463259 0)
(0.0176894 0.0164176 0)
(0.566798 0.445864 0)
(0.543662 0.435798 0)
(0.50198 0.386399 0)
(0.410405 0.334969 0)
(0.311776 0.261829 0)
(0.204127 0.187923 0)
(0.107077 0.120796 0)
(0.0373092 0.0690428 0)
(0.595304 0.449121 0)
(0.592058 0.453014 0)
(0.5722 0.437386 0)
(0.515555 0.4124 0)
(0.438355 0.355708 0)
(0.320853 0.299657 0)
(0.19026 0.240005 0)
(0.0680749 0.17325 0)
(0.61447 0.442854 0)
(0.621517 0.460779 0)
(0.615048 0.467608 0)
(0.5842 0.474849 0)
(0.527477 0.461411 0)
(0.43306 0.431093 0)
(0.317448 0.365275 0)
(0.149837 0.334231 0)
(0.625859 0.434681 0)
(0.641491 0.457106 0)
(0.648275 0.479801 0)
(0.639752 0.504347 0)
(0.611724 0.51666 0)
(0.548624 0.525467 0)
(0.409321 0.537447 0)
(0.204198 0.663975 0)
(0.643555 0.42777 0)
(0.660678 0.454721 0)
(0.673972 0.484741 0)
(0.682677 0.519612 0)
(0.678142 0.559152 0)
(0.652311 0.617632 0)
(0.622789 0.724397 0)
(0.700765 0.939051 0)
(0.665462 0.419022 0)
(0.682331 0.447928 0)
(0.700924 0.481134 0)
(0.720135 0.523794 0)
(0.742602 0.580612 0)
(0.762864 0.665719 0)
(0.831448 0.766463 0)
(1.06059 0.870013 0)
(0.690437 0.40801 0)
(0.708699 0.438523 0)
(0.731848 0.472846 0)
(0.757915 0.515967 0)
(0.798885 0.571468 0)
(0.85302 0.653692 0)
(0.977253 0.745537 0)
(1.22763 0.796699 0)
(0.715622 0.395079 0)
(0.737101 0.424791 0)
(0.764697 0.458249 0)
(0.7975 0.499305 0)
(0.847434 0.547229 0)
(0.918699 0.612516 0)
(1.05497 0.685733 0)
(1.27623 0.711347 0)
(0.738804 0.381668 0)
(0.764435 0.409248 0)
(0.796377 0.439634 0)
(0.835112 0.476006 0)
(0.889743 0.515824 0)
(0.966439 0.562088 0)
(1.09219 0.615467 0)
(1.27702 0.626317 0)
(0.759676 0.367708 0)
(0.788576 0.392978 0)
(0.824028 0.419597 0)
(0.867019 0.449887 0)
(0.923948 0.481726 0)
(1.0001 0.512469 0)
(1.11192 0.545457 0)
(1.25835 0.546775 0)
(0.778608 0.350914 0)
(0.809497 0.374766 0)
(0.846977 0.398536 0)
(0.892218 0.423418 0)
(0.949717 0.448736 0)
(1.02275 0.46774 0)
(1.12018 0.485123 0)
(1.23786 0.479283 0)
(0.795907 0.32982 0)
(0.827773 0.35291 0)
(0.865781 0.374933 0)
(0.911316 0.395566 0)
(0.967603 0.416262 0)
(1.03598 0.428186 0)
(1.12086 0.436563 0)
(1.22033 0.427106 0)
(0.811434 0.304869 0)
(0.843769 0.326007 0)
(0.881414 0.347334 0)
(0.925952 0.365458 0)
(0.979234 0.383206 0)
(1.04206 0.391732 0)
(1.11657 0.396671 0)
(1.20205 0.386652 0)
(0.824934 0.280419 0)
(0.857805 0.297506 0)
(0.894677 0.316438 0)
(0.937922 0.332328 0)
(0.988259 0.348604 0)
(1.04586 0.356557 0)
(1.11145 0.360925 0)
(1.18535 0.352655 0)
(0.834712 0.259532 0)
(0.86832 0.271627 0)
(0.904921 0.285892 0)
(0.946907 0.29785 0)
(0.994491 0.31117 0)
(1.04861 0.318445 0)
(1.10754 0.323639 0)
(1.17208 0.319262 0)
(0.841431 0.242687 0)
(0.875142 0.25031 0)
(0.911638 0.259994 0)
(0.952611 0.266787 0)
(0.998177 0.276172 0)
(1.04931 0.280612 0)
(1.10423 0.283912 0)
(1.16233 0.281901 0)
(0.846375 0.227479 0)
(0.878682 0.232841 0)
(0.914582 0.238828 0)
(0.954555 0.241898 0)
(0.999014 0.245892 0)
(1.0481 0.248098 0)
(1.10018 0.247973 0)
(1.15495 0.244776 0)
(0.850516 0.209041 0)
(0.880287 0.215082 0)
(0.914525 0.220483 0)
(0.95335 0.221926 0)
(0.996182 0.223114 0)
(1.04356 0.221662 0)
(1.09343 0.219101 0)
(1.14536 0.213922 0)
(0.856491 0.185704 0)
(0.883956 0.193688 0)
(0.915064 0.2006 0)
(0.951179 0.203378 0)
(0.992094 0.204637 0)
(1.0374 0.202329 0)
(1.08558 0.197148 0)
(1.13491 0.190554 0)
(0.861671 0.158301 0)
(0.887925 0.166506 0)
(0.916971 0.176447 0)
(0.950394 0.182926 0)
(0.988091 0.186893 0)
(1.03051 0.186283 0)
(1.07574 0.181486 0)
(1.12273 0.172807 0)
(0.866147 0.132072 0)
(0.894033 0.138244 0)
(0.922884 0.147394 0)
(0.954585 0.156648 0)
(0.988433 0.164979 0)
(1.02546 0.168765 0)
(1.06576 0.167008 0)
(1.10894 0.159714 0)
(0.864761 0.112003 0)
(0.895886 0.114176 0)
(0.927574 0.120972 0)
(0.959971 0.129047 0)
(0.992444 0.137719 0)
(1.02571 0.143679 0)
(1.05996 0.146045 0)
(1.09716 0.143104 0)
(0.862886 0.0970351 0)
(0.896742 0.0977758 0)
(0.931026 0.101334 0)
(0.964309 0.105882 0)
(0.995988 0.110566 0)
(1.02718 0.114833 0)
(1.0587 0.118066 0)
(1.09144 0.118972 0)
(0.861688 0.0852012 0)
(0.895269 0.0855584 0)
(0.929863 0.0861841 0)
(0.964314 0.0862062 0)
(0.997038 0.0869695 0)
(1.02841 0.0878165 0)
(1.05908 0.0887697 0)
(1.09029 0.0900291 0)
(0.860649 0.0736763 0)
(0.891223 0.076259 0)
(0.924263 0.0750887 0)
(0.958296 0.0713274 0)
(0.991945 0.0668502 0)
(1.0247 0.063026 0)
(1.05657 0.0608262 0)
(1.08857 0.0603117 0)
(0.862837 0.0574108 0)
(0.889138 0.0622307 0)
(0.91808 0.0629232 0)
(0.949286 0.0591648 0)
(0.981918 0.0525305 0)
(1.01603 0.0449435 0)
(1.05185 0.0389691 0)
(1.08852 0.0375837 0)
(0.870973 0.0378258 0)
(0.893672 0.0422131 0)
(0.917777 0.042374 0)
(0.944587 0.0382474 0)
(0.974201 0.0314775 0)
(1.00662 0.0249226 0)
(1.04267 0.021076 0)
(1.08147 0.0185939 0)
(0.873666 0.013991 0)
(0.892094 0.0142312 0)
(0.912562 0.0130294 0)
(0.937869 0.0107318 0)
(0.970322 0.00883225 0)
(1.00865 0.00877964 0)
(1.04891 0.00903417 0)
(1.08982 0.00919239 0)
(1.61971 0.984061 0)
(2.17711 1.0586 0)
(2.42179 0.737229 0)
(2.46248 0.318788 0)
(2.41208 0.00387134 0)
(2.26741 -0.16425 0)
(2.03069 -0.207508 0)
(1.96989 -0.208383 0)
(1.98454 -0.167733 0)
(1.8922 -0.0995069 0)
(1.708 -0.0699891 0)
(1.62733 -0.031785 0)
(1.53979 -0.0242056 0)
(1.43674 -0.0138954 0)
(1.41868 -0.0122907 0)
(1.38515 -0.00911441 0)
(1.34034 -0.00778868 0)
(1.32217 -0.0103485 0)
(1.33011 -0.0130404 0)
(1.35843 -0.0146992 0)
(1.37982 -0.0138432 0)
(1.39184 -0.0109889 0)
(1.39889 -0.00457888 0)
(1.41446 -0.000800671 0)
(1.44043 0.0022216 0)
(1.47687 0.00391367 0)
(1.50059 0.00446688 0)
(1.51953 0.00509888 0)
(1.53864 0.00572911 0)
(1.56011 0.005836 0)
(1.58993 0.00377177 0)
(1.62847 -0.00303109 0)
(1.65919 -0.00951417 0)
(1.68364 -0.0119819 0)
(1.70658 -0.0133267 0)
(1.72223 -0.0126766 0)
(1.73556 -0.00907404 0)
(1.75285 -0.00417403 0)
(1.77071 0.00147407 0)
(1.78598 0.00750008 0)
(1.79971 0.0123515 0)
(1.81712 0.0142464 0)
(1.83869 0.0143788 0)
(1.86203 0.0140518 0)
(1.89045 0.013107 0)
(1.91905 0.0115353 0)
(1.9416 0.00976543 0)
(1.96229 0.00846105 0)
(1.9831 0.00674849 0)
(2.00199 0.00310225 0)
(2.01805 0.00135602 0)
(2.02444 0.00590782 0)
(2.02452 0.00978076 0)
(2.02605 0.00994861 0)
(2.02015 0.00801915 0)
(1.96725 -0.00469136 0)
(1.83353 -0.0310909 0)
(1.55713 -0.0203528 0)
(1.57378 -0.00284426 0)
(1.627 0.0007897 0)
(1.6637 -0.00428196 0)
(1.68933 -0.0094536 0)
(1.70867 -0.0118859 0)
(1.72222 -0.012949 0)
(1.72218 -0.0112605 0)
(1.71175 -0.00596533 0)
(1.71259 0.000709198 0)
(1.72228 0.00465062 0)
(1.73386 0.00616878 0)
(1.74996 0.0071658 0)
(1.7754 0.00668548 0)
(1.79698 0.00549615 0)
(1.8107 0.00435212 0)
(1.82345 0.00291663 0)
(1.83528 0.00139226 0)
(1.84545 -0.00128181 0)
(1.85136 -0.00367006 0)
(1.85142 -0.00292471 0)
(1.85142 -0.000151902 0)
(1.85938 0.00271036 0)
(1.87089 0.00419678 0)
(1.8832 0.00468532 0)
(1.89785 0.00416402 0)
(1.91265 0.0027766 0)
(1.9251 0.00235311 0)
(1.93737 0.0020615 0)
(1.94729 0.00224774 0)
(1.95446 0.00418542 0)
(1.73109 0.764403 0)
(2.1063 0.490998 0)
(2.31352 0.113559 0)