/*--------------------------------*- C++ -*----------------------------------*\
  =========                 |
  \\      /  F ield         | OpenFOAM: The Open Source CFD Toolbox
   \\    /   O peration     | Website:  https://openfoam.org
    \\  /    A nd           | Version:  7
     \\/     M anipulation  |
\*---------------------------------------------------------------------------*/
FoamFile
{
    version     2.0;
    format      ascii;
    class       volScalarField;
    location    "1.8";
    object      rho;
}
// * * * * * * * * * * * * * * * * * * * * * * * * * * * * * * * * * * * * * //

dimensions      [1 -3 0 0 0 0 0];

internalField   nonuniform List<scalar> 
4128
(
3.1588
3.09086
3.0282
2.96521
2.90376
2.84234
2.78155
2.72897
2.67262
2.62025
2.56281
2.51205
2.4665
2.41774
2.37077
2.32016
2.28128
2.24122
2.19737
2.15083
2.11731
2.08582
2.04185
2.00191
1.97449
1.94461
1.90615
1.87081
1.84893
1.82112
1.7932
1.76236
1.74038
1.71365
1.68701
1.65741
1.63563
1.61465
1.59327
1.56983
1.55077
1.53346
1.51445
1.49277
1.47114
1.454
1.43586
1.41867
1.39939
1.38824
1.37611
1.36203
1.34831
1.33309
1.3158
1.29838
1.28311
1.26441
1.26652
1.57941
2.90531
3.23095
3.21032
3.18074
3.14709
3.1213
3.10337
3.08958
3.07538
3.0565
3.02827
2.98572
2.92861
2.86664
2.81859
2.78055
2.74136
2.69729
2.64708
2.5894
2.52458
2.45209
3.63015
3.55477
3.48243
3.41012
3.33868
3.26845
3.20005
3.1355
3.071
3.00746
2.94509
2.88238
2.82783
2.77147
2.71656
2.661
2.60431
2.55831
2.50746
2.46108
2.4091
2.3646
2.32409
2.28102
2.2364
2.19196
2.15844
2.12327
2.07987
2.04085
2.01337
1.98409
1.94171
1.91085
1.8879
1.86132
1.82784
1.79828
1.77547
1.74783
1.71939
1.68962
1.67078
1.64883
1.62656
1.60159
1.58473
1.56606
1.54609
1.52183
1.50048
1.48277
1.46537
1.44771
1.43043
1.41886
1.40482
1.38972
1.37213
1.35679
1.33941
1.32291
1.30892
1.29769
1.28418
1.30997
2.18541
3.1642
3.22384
3.19474
3.16477
3.14328
3.1274
3.11365
3.09841
3.07738
3.04503
2.99636
2.93238
2.87067
2.83155
2.80039
2.76658
2.72615
2.67877
2.62344
2.55898
2.48456
3.67001
3.59795
3.52549
3.45307
3.38096
3.31095
3.24485
3.17875
3.11375
3.05032
2.98604
2.92796
2.87051
2.81327
2.75871
2.69975
2.65084
2.59977
2.55014
2.50066
2.44913
2.40899
2.36367
2.3216
2.27395
2.2346
2.19895
2.16097
2.11839
2.08114
2.05311
2.02162
1.97964
1.94994
1.92642
1.89928
1.86095
1.83381
1.80965
1.78311
1.75063
1.72466
1.70589
1.68345
1.65898
1.6349
1.61829
1.59772
1.57584
1.54929
1.53153
1.51409
1.4971
1.47703
1.46119
1.44866
1.43321
1.41749
1.39815
1.37997
1.36193
1.34744
1.33519
1.32869
1.31623
1.31033
1.52605
2.80414
3.23601
3.20751
3.18721
3.16994
3.15426
3.13872
3.12034
3.09481
3.05733
3.00468
2.93939
2.884
2.85121
2.8223
2.79085
2.75343
2.70916
2.65584
2.59028
2.51303
3.71223
3.63998
3.56789
3.49574
3.42449
3.35699
3.28902
3.2222
3.1571
3.09264
3.03181
2.97173
2.91226
2.85594
2.79649
2.74451
2.69334
2.64075
2.5928
2.53753
2.49451
2.44939
2.40449
2.36033
2.31339
2.27786
2.23816
2.20001
2.15681
2.12296
2.09237
2.05828
2.01793
1.98833
1.96387
1.93396
1.89444
1.86845
1.84456
1.81813
1.78281
1.76072
1.74083
1.71832
1.69046
1.66823
1.65018
1.6285
1.60415
1.57822
1.56261
1.5454
1.52809
1.50768
1.49353
1.47878
1.46218
1.4422
1.42118
1.4043
1.38854
1.3758
1.36319
1.35571
1.34576
1.32486
1.33577
2.01016
3.13228
3.22484
3.20744
3.19807
3.18508
3.16754
3.14358
3.11105
3.06665
3.01113
2.95065
2.9044
2.8742
2.84544
2.81422
2.77821
2.73546
2.6817
2.61248
2.53371
3.75517
3.68167
3.60843
3.53678
3.4701
3.40164
3.33305
3.26526
3.19946
3.13822
3.0761
3.01441
2.95567
2.89512
2.84012
2.7876
2.73321
2.68432
2.62945
2.58181
2.53728
2.48904
2.44682
2.39629
2.35763
2.31838
2.27804
2.2383
2.19632
2.16486
2.13039
2.09504
2.05559
2.02668
1.99959
1.96699
1.9285
1.90314
1.88012
1.85204
1.817
1.79669
1.77603
1.75254
1.72188
1.7013
1.68119
1.65885
1.63094
1.6091
1.5948
1.57755
1.55854
1.53829
1.52467
1.50818
1.49045
1.46754
1.44604
1.42993
1.41635
1.40324
1.39246
1.38348
1.37278
1.35381
1.33852
1.46221
2.61159
3.23699
3.23355
3.22442
3.21227
3.19091
3.16148
3.124
3.07607
3.02153
2.96964
2.93094
2.90142
2.87199
2.83965
2.80246
2.7578
2.69989
2.62634
2.55118
3.79727
3.72425
3.64977
3.58149
3.5135
3.445
3.37687
3.30815
3.2456
3.18235
3.11919
3.05872
2.99719
2.93985
2.88451
2.82839
2.77718
2.72294
2.67204
2.62671
2.57685
2.53306
2.48383
2.43887
2.40083
2.35721
2.31939
2.27414
2.23867
2.20439
2.16815
2.13144
2.09363
2.065
2.03429
2.00012
1.9633
1.93877
1.91523
1.88521
1.85202
1.832
1.8111
1.78534
1.75391
1.73369
1.7122
1.68905
1.65911
1.64162
1.62667
1.60901
1.58741
1.56925
1.5549
1.53673
1.51656
1.49046
1.47357
1.45946
1.4466
1.43223
1.42033
1.40905
1.39614
1.38126
1.35374
1.35422
1.81078
3.03156
3.26022
3.24866
3.23563
3.20957
3.17515
3.13352
3.08541
3.03617
2.99331
2.95972
2.93034
2.89987
2.86559
2.8254
2.77618
2.71199
2.6365
2.56985
3.83908
3.76372
3.69344
3.62552
3.55588
3.4872
3.41681
3.35331
3.29001
3.22558
3.16353
3.10022
3.0423
2.98537
2.92722
2.87347
2.8185
2.76518
2.71784
2.66709
2.62051
2.57338
2.52367
2.48455
2.43982
2.3993
2.35663
2.31349
2.28052
2.24154
2.20685
2.16653
2.13337
2.10239
2.06941
2.03408
1.99969
1.97544
1.94968
1.91812
1.88687
1.86669
1.8451
1.81675
1.78621
1.76588
1.74418
1.71942
1.69006
1.67498
1.65862
1.63981
1.61569
1.59919
1.58319
1.56401
1.54102
1.51638
1.50328
1.49006
1.47638
1.46083
1.44873
1.43535
1.42015
1.40405
1.38049
1.35844
1.41465
2.35976
3.22564
3.28431
3.26134
3.22715
3.18979
3.14845
3.10373
3.06087
3.02417
2.99243
2.96231
2.93053
2.8938
2.84931
2.79376
2.72377
2.65095
2.59451
3.87798
3.80514
3.73708
3.6668
3.59774
3.52613
3.46111
3.39808
3.33264
3.27
3.2049
3.14597
3.08881
3.02904
2.97316
2.91667
2.86175
2.81203
2.75971
2.71032
2.66336
2.61167
2.57005
2.52525
2.48084
2.44082
2.39231
2.3572
2.31854
2.28046
2.24366
2.20335
2.17357
2.13869
2.10623
2.06883
2.03856
2.01236
1.98406
1.95111
1.92186
1.90098
1.87776
1.84734
1.81847
1.79822
1.77686
1.75031
1.72359
1.70849
1.69061
1.66947
1.64416
1.62834
1.61027
1.59019
1.56413
1.54555
1.53449
1.52095
1.50548
1.48891
1.47542
1.46027
1.44394
1.42439
1.40365
1.3782
1.38123
1.6644
2.8916
3.31637
3.27139
3.23547
3.20071
3.16315
3.12388
3.08752
3.05483
3.02454
2.99404
2.96033
2.9199
2.87048
2.80888
2.73664
2.67199
2.62438
3.91637
3.84809
3.77796
3.70824
3.63627
3.56929
3.5069
3.44085
3.37731
3.31072
3.24953
3.19307
3.13252
3.07515
3.01696
2.96005
2.90917
2.85515
2.80299
2.75463
2.7015
2.65719
2.61224
2.5651
2.52515
2.47625
2.43605
2.39821
2.3561
2.32114
2.27743
2.24452
2.21152
2.17599
2.14327
2.10562
2.07868
2.04871
2.01911
1.98452
1.95782
1.93499
1.90962
1.87762
1.85091
1.83103
1.80968
1.78183
1.75795
1.74159
1.72244
1.69836
1.67332
1.65671
1.63715
1.61602
1.58982
1.57712
1.56553
1.55091
1.5328
1.51647
1.50203
1.4854
1.46674
1.44146
1.42511
1.41179
1.39713
1.42369
2.13996
3.19772
3.28143
3.25142
3.2199
3.18325
3.14752
3.11513
3.08551
3.05681
3.02586
2.98949
2.94509
2.89062
2.82432
2.75544
2.70131
2.65913
3.95892
3.88981
3.81986
3.74848
3.67891
3.6165
3.5506
3.48594
3.41896
3.35392
3.29717
3.23644
3.17781
3.11913
3.05932
3.00783
2.95302
2.89843
2.84837
2.79346
2.74623
2.70055
2.6515
2.6099
2.56282
2.51831
2.48026
2.43597
2.39876
2.35678
2.31642
2.2857
2.24781
2.21571
2.17792
2.1458
2.11738
2.08506
2.05463
2.01962
1.995
1.96894
1.9416
1.90838
1.88443
1.8644
1.84233
1.8138
1.79196
1.77409
1.75369
1.72678
1.7028
1.68494
1.66502
1.64241
1.61933
1.60925
1.59588
1.57954
1.55915
1.54338
1.52779
1.5097
1.4878
1.46134
1.4512
1.44394
1.42696
1.42688
1.57947
2.68085
3.26136
3.26831
3.24061
3.20303
3.17023
3.14231
3.11523
3.08688
3.05484
3.01563
2.96733
2.90826
2.84114
2.78068
2.73542
2.69606
4.00139
3.9328
3.86197
3.78927
3.72542
3.66073
3.59518
3.52912
3.46106
3.40225
3.341
3.27998
3.22105
3.15844
3.10615
3.05189
2.99553
2.94455
2.88809
2.83801
2.79136
2.74033
2.69559
2.64911
2.60204
2.56391
2.51932
2.47848
2.43973
2.39304
2.36083
2.32331
2.28717
2.25326
2.21381
2.18662
2.15347
2.12274
2.08924
2.05767
2.03218
2.00314
1.97408
1.94075
1.91954
1.89826
1.87478
1.84582
1.82528
1.80594
1.78408
1.75514
1.73243
1.71377
1.69427
1.67034
1.65142
1.64085
1.62531
1.60659
1.58532
1.57033
1.55337
1.53352
1.5075
1.48745
1.48172
1.47426
1.46104
1.44385
1.45219
1.90133
3.04021
3.28575
3.25061
3.21499
3.1891
3.16662
3.1423
3.11435
3.08012
3.03683
2.98462
2.92352
2.86147
2.81162
2.7717
2.73322
4.0447
3.97484
3.90155
3.83466
3.7703
3.70375
3.63814
3.56888
3.5082
3.44739
3.38433
3.32455
3.25908
3.20438
3.15118
3.09317
3.04091
2.9843
2.93175
2.88486
2.83237
2.78443
2.73726
2.6863
2.64746
2.60393
2.55992
2.52316
2.47556
2.43863
2.40192
2.3614
2.3289
2.28625
2.25494
2.22475
2.19002
2.16065
2.1241
2.09738
2.068
2.0384
2.00672
1.97629
1.9558
1.93233
1.90692
1.87806
1.85831
1.8374
1.81389
1.78392
1.76282
1.74415
1.72491
1.70014
1.68378
1.67107
1.65376
1.63251
1.61203
1.59696
1.5786
1.55729
1.53032
1.51934
1.51355
1.50359
1.49045
1.47282
1.45973
1.51715
2.34606
3.20876
3.26158
3.24024
3.22037
3.19804
3.17252
3.14206
3.10319
3.05578
3.00096
2.94159
2.88872
2.84678
2.8085
2.7694
4.08949
4.0144
3.94513
3.87974
3.81165
3.74443
3.67455
3.61306
3.5537
3.48961
3.42964
3.36378
3.3036
3.24999
3.19127
3.13773
3.0812
3.02567
2.97973
2.92718
2.87626
2.82902
2.77406
2.732
2.68935
2.64276
2.60508
2.55935
2.51849
2.4826
2.43959
2.40486
2.36452
2.32484
2.29673
2.26047
2.22987
2.19523
2.16241
2.13587
2.10314
2.07477
2.04003
2.01475
1.99174
1.96643
1.9384
1.91093
1.89122
1.86876
1.84357
1.81393
1.79467
1.77616
1.75626
1.73094
1.71524
1.70003
1.6815
1.65804
1.63907
1.62321
1.60409
1.5822
1.55935
1.55277
1.54489
1.53289
1.51575
1.50011
1.47825
1.4699
1.68834
2.77785
3.27757
3.27444
3.25546
3.22852
3.19671
3.16066
3.11876
3.07058
3.01716
2.96466
2.92116
2.88305
2.8446
2.80445
4.13341
4.05145
3.98618
3.92209
3.8557
3.78353
3.7165
3.65848
3.59511
3.53397
3.47034
3.40785
3.35253
3.29204
3.23465
3.17812
3.11853
3.07269
3.02219
2.9694
2.92317
2.86726
2.82006
2.77699
2.72828
2.68744
2.6426
2.59842
2.56389
2.5208
2.48186
2.44557
2.39949
2.36926
2.33421
2.29898
2.2685
2.22927
2.20305
2.17171
2.14036
2.11046
2.07651
2.05378
2.02659
2.00049
1.96934
1.94488
1.92395
1.90033
1.87342
1.84598
1.82817
1.80921
1.78768
1.76201
1.74583
1.72856
1.70899
1.68407
1.66633
1.64954
1.6309
1.60923
1.5924
1.58608
1.57506
1.56035
1.53862
1.52268
1.50345
1.47865
1.49191
2.02071
3.08985
3.30938
3.2814
3.25246
3.21812
3.17819
3.13355
3.08449
3.03518
2.99174
2.95479
2.91832
2.87978
2.83907
4.1605
4.1021
4.0309
3.96461
3.89708
3.8241
3.76215
3.70027
3.6385
3.57561
3.5115
3.45621
3.39651
3.33647
3.27943
3.21513
3.16635
3.11785
3.06307
3.01547
2.96161
2.91081
2.86688
2.81658
2.77222
2.72816
2.67887
2.64458
2.60364
2.56062
2.52604
2.47919
2.44343
2.40988
2.37074
2.34079
2.30096
2.26906
2.24176
2.20696
2.17935
2.14425
2.1164
2.09079
2.06135
2.0341
2.00134
1.97987
1.95648
1.93231
1.90359
1.88001
1.86235
1.84231
1.81859
1.7931
1.77608
1.75742
1.73658
1.71086
1.69408
1.67708
1.65965
1.63881
1.62618
1.61755
1.60343
1.58504
1.56062
1.54383
1.52865
1.50192
1.49355
1.58457
2.4671
3.25782
3.3015
3.27729
3.24323
3.20113
3.15284
3.1038
3.05995
3.02257
2.98813
2.95257
2.91462
2.87382
4.13948
4.13086
4.07515
4.00757
3.93823
3.87397
3.80827
3.74015
3.67435
3.60917
3.5563
3.50116
3.44093
3.38498
3.31951
3.26272
3.21295
3.15689
3.10731
3.05502
3.00223
2.95906
2.90861
2.86008
2.81646
2.76255
2.72476
2.68655
2.64116
2.6056
2.56159
2.52023
2.48738
2.44637
2.4127
2.37673
2.33613
2.3106
2.27653
2.24542
2.21539
2.18026
2.15607
2.12541
2.09746
2.06633
2.03652
2.01517
1.98919
1.96454
1.93487
1.91523
1.89611
1.87484
1.84868
1.82438
1.8065
1.78698
1.76438
1.73869
1.72305
1.70664
1.68994
1.66996
1.65862
1.64684
1.62966
1.60732
1.58289
1.5668
1.55344
1.53403
1.51178
1.51841
1.80349
2.88114
3.31708
3.30274
3.26174
3.21507
3.16683
3.12286
3.08589
3.05252
3.01946
2.98476
2.94756
2.90699
3.80967
4.11421
4.1088
4.05471
3.97727
3.91352
3.84901
3.78457
3.71244
3.65215
3.60028
3.54133
3.48618
3.42632
3.36605
3.31332
3.25516
3.20096
3.14772
3.09108
3.04904
3.00146
2.95041
2.90754
2.85282
2.80734
2.76959
2.72303
2.68383
2.64303
2.59777
2.56556
2.52549
2.48688
2.45445
2.40879
2.37919
2.34796
2.31195
2.28446
2.24671
2.21953
2.19236
2.16029
2.13387
2.09878
2.07443
2.04954
2.0229
1.99633
1.96818
1.95057
1.92899
1.90658
1.87833
1.85624
1.83728
1.81696
1.79202
1.76767
1.75333
1.73767
1.72064
1.70134
1.68936
1.67391
1.65408
1.62859
1.60728
1.59358
1.57992
1.56502
1.54361
1.53441
1.56433
2.14412
3.14555
3.31763
3.27903
3.22593
3.18013
3.14498
3.11579
3.08613
3.05395
3.01903
2.98129
2.93919
2.63916
3.83733
4.13099
4.1111
4.03072
3.95581
3.8882
3.81716
3.7472
3.69802
3.64432
3.58801
3.53026
3.47006
3.41512
3.35569
3.29755
3.24421
3.18251
3.13831
3.09478
3.04275
2.99861
2.94748
2.89536
2.855
2.80729
2.76328
2.72416
2.67529
2.6426
2.60606
2.56371
2.53146
2.48751
2.44993
2.42028
2.38184
2.35197
2.31734
2.28231
2.25874
2.22614
2.19817
2.16743
2.13487
2.11191
2.08279
2.05756
2.02752
2.00397
1.98513
1.96149
1.9376
1.90879
1.88898
1.86839
1.84704
1.81968
1.7983
1.78469
1.76929
1.75084
1.73184
1.71796
1.69912
1.67778
1.65173
1.63517
1.62298
1.60922
1.59239
1.57617
1.56361
1.56361
1.67299
2.53404
3.2507
3.29244
3.25297
3.21554
3.1847
3.15596
3.1258
3.0924
3.05541
3.014
2.96645
1.61842
2.77407
3.93714
4.12557
4.09193
4.01318
3.93302
3.84908
3.78815
3.7403
3.68731
3.63158
3.572
3.51716
3.46003
3.39975
3.34494
3.27945
3.22697
3.185
3.13368
3.08771
3.04104
2.98748
2.94459
2.89612
2.84714
2.80722
2.75554
2.71806
2.68567
2.64224
2.60729
2.56857
2.52412
2.49365
2.45547
2.4202
2.38958
2.3477
2.32324
2.29446
2.26173
2.23589
2.19957
2.17381
2.14649
2.11705
2.09156
2.05963
2.04046
2.01811
1.9941
1.96783
1.94137
1.92218
1.89974
1.87715
1.84822
1.83068
1.81659
1.80053
1.77986
1.76061
1.7443
1.72366
1.70231
1.67849
1.66564
1.65334
1.63887
1.61889
1.60607
1.5979
1.57929
1.58146
1.8527
2.84989
3.28294
3.28297
3.259
3.23022
3.19773
3.16242
3.12451
3.08387
3.03879
2.98786
1.40812
1.68915
2.9341
4.02346
4.08452
4.04394
3.97317
3.8881
3.83536
3.78843
3.73398
3.6729
3.61512
3.55933
3.49906
3.44385
3.3811
3.32107
3.27825
3.22718
3.17742
3.13137
3.0772
3.03319
2.98597
2.93375
2.89255
2.84214
2.79605
2.76576
2.72382
2.68399
2.64841
2.6013
2.56784
2.53106
2.49068
2.46123
2.41928
2.38745
2.36292
2.32827
2.3014
2.26862
2.23592
2.21132
2.17912
2.15322
2.12269
2.09514
2.07607
2.05025
2.02691
1.99799
1.9757
1.95485
1.93128
1.90709
1.87919
1.86442
1.84866
1.83109
1.80744
1.78787
1.76978
1.74945
1.72901
1.7084
1.69697
1.68342
1.66765
1.64641
1.63508
1.62778
1.60835
1.58471
1.60605
2.11083
3.08195
3.31885
3.29942
3.26729
3.23233
3.19327
3.15163
3.10798
3.0611
3.01008
1.40008
1.41391
1.76713
3.18915
3.97064
4.03834
4.01101
3.93591
3.87974
3.83089
3.77465
3.71565
3.65981
3.60045
3.54249
3.48116
3.41643
3.37192
3.32154
3.26839
3.22268
3.16772
3.12205
3.07783
3.02401
2.97854
2.9315
2.87753
2.84498
2.80573
2.76191
2.72785
2.68146
2.64364
2.60907
2.56601
2.53292
2.49497
2.45352
2.43022
2.39734
2.36541
2.33804
2.30024
2.27529
2.24536
2.21437
2.18891
2.15372
2.13273
2.1093
2.08301
2.05842
2.02947
2.01014
1.98647
1.96335
1.93685
1.9132
1.89848
1.88025
1.86012
1.83373
1.81488
1.79634
1.77775
1.75776
1.73979
1.72786
1.71252
1.69521
1.67477
1.66373
1.65266
1.63542
1.59927
1.59291
1.68334
2.44719
3.23408
3.33254
3.30207
3.26385
3.22408
3.18018
3.13335
3.08517
3.03571
1.40001
1.40015
1.42251
1.91134
3.31803
3.92118
4.04195
3.99757
3.93071
3.87263
3.81579
3.75858
3.69947
3.64077
3.58176
3.51358
3.46464
3.41568
3.35943
3.31398
3.26013
3.20791
3.16771
3.11643
3.06687
3.02211
2.96514
2.92603
2.88856
2.84237
2.80617
2.7621
2.71923
2.68751
2.64524
2.60697
2.57344
2.52638
2.49839
2.46845
2.43184
2.4052
2.36756
2.33757
2.31216
2.27812
2.25254
2.22012
2.19012
2.16954
2.14115
2.1171
2.08804
2.06339
2.04357
2.01805
1.99584
1.96768
1.94887
1.93137
1.91077
1.88705
1.86001
1.84325
1.82528
1.80813
1.78763
1.7714
1.75784
1.74097
1.72209
1.70318
1.69085
1.67498
1.65653
1.62343
1.60369
1.61238
1.84721
2.79197
3.31122
3.32647
3.29296
3.25156
3.20874
3.16155
3.11205
3.06429
1.40001
1.40001
1.40033
1.43848
2.04541
3.3432
3.96976
4.0344
3.98115
3.91243
3.85244
3.79785
3.74183
3.68534
3.61802
3.56229
3.51452
3.45486
3.40241
3.35049
3.2916
3.25328
3.20891
3.15779
3.11404
3.05913
3.01166
2.97226
2.9245
2.88404
2.84354
2.79471
2.76437
2.72646
2.68408
2.65206
2.6063
2.56955
2.54097
2.5021
2.47144
2.43806
2.39994
2.37736
2.34566
2.31532
2.28911
2.25206
2.22948
2.2028
2.17429
2.14972
2.11773
2.09845
2.07556
2.05123
2.02806
2.00146
1.98418
1.96245
1.9401
1.91207
1.88858
1.87357
1.85613
1.83901
1.81758
1.80256
1.78702
1.76911
1.74897
1.73078
1.71578
1.69612
1.67505
1.64932
1.63469
1.631
1.65506
2.09205
3.0447
3.33849
3.31916
3.27566
3.23197
3.18718
3.14073
3.09655
1.40001
1.40001
1.40001
1.40068
1.45791
2.11036
3.38766
4.00645
4.01259
3.96145
3.89323
3.8338
3.7826
3.72627
3.66596
3.61567
3.55516
3.49477
3.44547
3.38159
3.33426
3.2963
3.24725
3.20319
3.15444
3.10345
3.05996
3.01108
2.96554
2.92599
2.87161
2.83815
2.80648
2.76279
2.72913
2.68959
2.64527
2.61549
2.57663
2.53975
2.50997
2.46619
2.44054
2.41442
2.3801
2.35535
2.32055
2.29066
2.26626
2.23411
2.2093
2.17824
2.15111
2.13307
2.10733
2.08592
2.05967
2.03742
2.01754
1.99235
1.96848
1.93792
1.92025
1.90493
1.88777
1.86865
1.84729
1.83317
1.81576
1.79718
1.77573
1.75711
1.73886
1.71792
1.69639
1.67847
1.67306
1.66264
1.65995
1.73001
2.37284
3.20358
3.33231
3.30209
3.25395
3.20991
3.17128
3.13251
1.40001
1.40001
1.40001
1.40001
1.40112
1.47031
2.14997
3.46832
3.99557
3.98871
3.93949
3.87878
3.82323
3.76802
3.71665
3.65639
3.58814
3.53508
3.47625
3.41577
3.38169
3.33905
3.29218
3.24544
3.19647
3.15083
3.10076
3.0499
3.00887
2.95367
2.91102
2.88481
2.84342
2.80544
2.77163
2.72486
2.69133
2.65368
2.61098
2.58062
2.5385
2.50339
2.4822
2.44884
2.42055
2.39203
2.35555
2.33077
2.29868
2.26822
2.24205
2.20599
2.1874
2.16602
2.14113
2.11985
2.09242
2.07275
2.04811
2.0224
1.99609
1.96791
1.95389
1.93655
1.91906
1.89644
1.87733
1.86307
1.84416
1.82487
1.80156
1.78207
1.76191
1.74307
1.72394
1.71081
1.7082
1.6982
1.67536
1.67415
1.83549
2.6501
3.27574
3.32534
3.28886
3.24201
3.20664
3.17361
1.40001
1.40001
1.40001
1.40001
1.40001
1.40143
1.48046
2.22096
3.56924
3.9394
3.96785
3.93353
3.86631
3.8088
3.75322
3.68368
3.62152
3.56989
3.50426
3.46213
3.42952
3.38528
3.33768
3.28732
3.24017
3.1909
3.13816
3.09497
3.04218
2.98666
2.96117
2.92473
2.88221
2.85095
2.80676
2.76862
2.73306
2.68749
2.65188
2.61436
2.56888
2.54777
2.51927
2.48597
2.46127
2.42457
2.39602
2.3664
2.3306
2.30474
2.26945
2.24089
2.22425
2.19838
2.17684
2.15105
2.12655
2.10551
2.07723
2.05329
2.02394
2.00234
1.98743
1.96799
1.94881
1.92347
1.90788
1.89217
1.87241
1.85174
1.82652
1.80736
1.78815
1.77282
1.75537
1.74412
1.73853
1.72717
1.70127
1.68036
1.69067
1.99106
2.88433
3.29998
3.31906
3.28499
3.24657
3.21426
1.40001
1.40001
1.40001
1.40001
1.40001
1.40001
1.40186
1.50085
2.36432
3.58968
3.93556
3.96495
3.9159
3.8512
3.78549
3.71466
3.66082
3.60029
3.53968
3.51014
3.47631
3.43099
3.38
3.33027
3.28057
3.2268
3.17971
3.13162
3.06836
3.0361
3.00494
2.95983
2.9271
2.88853
2.84568
2.81239
2.76824
2.72629
2.69171
2.64143
2.61274
2.5892
2.55376
2.52751
2.49501
2.46112
2.43447
2.3978
2.36693
2.33787
2.29874
2.28093
2.25889
2.23296
2.21123
2.18159
2.16081
2.13561
2.10795
2.08444
2.05447
2.03788
2.01927
1.99884
1.97611
1.9519
1.93838
1.92022
1.9005
1.87722
1.85239
1.83564
1.81889
1.80502
1.78671
1.77559
1.76502
1.74966
1.72806
1.70162
1.69453
1.72852
2.19237
3.0622
3.32813
3.32096
3.28879
3.25015
1.40001
1.40001
1.40001
1.40001
1.40001
1.40001
1.40002
1.40289
1.5411
2.47077
3.59809
3.94808
3.94734
3.89441
3.8187
3.75765
3.70288
3.63533
3.58839
3.56164
3.52376
3.47363
3.41991
3.36752
3.31407
3.26585
3.22195
3.15836
3.11438
3.08579
3.04075
3.00217
2.96803
2.92094
2.88865
2.84973
2.80385
2.7687
2.72085
2.68046
2.65871
2.62492
2.59371
2.56534
2.52611
2.5006
2.46805
2.43118
2.40473
2.36585
2.33797
2.31968
2.29163
2.2693
2.24122
2.21445
2.19402
2.1652
2.1416
2.11465
2.08908
2.07233
2.04958
2.02862
2.00161
1.98211
1.96784
1.94764
1.92822
1.90198
1.8819
1.86734
1.85196
1.83664
1.81676
1.80415
1.78875
1.77093
1.75024
1.73037
1.71116
1.71147
1.79751
2.4329
3.19901
3.34578
3.3264
3.28343
1.40001
1.40001
1.40001
1.40001
1.40001
1.40001
1.40001
1.40003
1.40489
1.57316
2.49975
3.59831
3.93612
3.93252
3.87986
3.81359
3.74428
3.67408
3.63205
3.60345
3.56398
3.51302
3.45932
3.40537
3.3545
3.30981
3.25127
3.19668
3.16784
3.12458
3.07798
3.04548
2.99787
2.96189
2.93023
2.88542
2.84733
2.80489
2.75475
2.72838
2.69658
2.66042
2.63454
2.59407
2.56352
2.53776
2.49964
2.47028
2.43878
2.39991
2.38052
2.35399
2.32644
2.30267
2.26901
2.24908
2.22536
2.19763
2.17616
2.14602
2.12582
2.10453
2.07983
2.05712
2.02828
2.0131
1.99607
1.97563
1.95508
1.92881
1.91472
1.89999
1.88436
1.86571
1.8451
1.83034
1.81152
1.79365
1.77254
1.7572
1.7443
1.72441
1.72753
1.9042
2.67652
3.27846
3.35066
3.32058
1.40001
1.40001
1.40001
1.40001
1.40001
1.40001
1.40001
1.40001
1.40004
1.40625
1.57651
2.49143
3.56565
3.91923
3.91582
3.86953
3.79449
3.72086
3.67608
3.64518
3.60336
3.54961
3.49186
3.43797
3.3943
3.3446
3.28302
3.2515
3.2128
3.16054
3.12387
3.07806
3.03057
3.00337
2.96482
2.92447
2.88794
2.83747
2.80216
2.7703
2.73126
2.70266
2.66563
2.62404
2.60315
2.57026
2.53512
2.50965
2.47073
2.4433
2.41871
2.38664
2.36271
2.32941
2.30127
2.28366
2.25612
2.23372
2.20896
2.18163
2.16173
2.13469
2.11071
2.08374
2.05806
2.04415
2.02405
2.00494
1.98146
1.96058
1.94854
1.93153
1.91445
1.89146
1.87117
1.85451
1.8352
1.81838
1.7975
1.78611
1.77618
1.7553
1.73564
1.75011
2.05137
2.88218
3.30687
3.34606
1.40001
1.40001
1.40001
1.40001
1.40001
1.40001
1.40001
1.40001
1.40001
1.40005
1.40589
1.57501
2.47047
3.61018
3.90457
3.8768
3.82737
3.7674
3.71223
3.6822
3.64504
3.59105
3.53427
3.48436
3.43306
3.36787
3.32975
3.30011
3.24744
3.20169
3.16169
3.10645
3.07519
3.04389
3.00271
2.96617
2.92119
2.88028
2.8457
2.80452
2.77076
2.74006
2.69034
2.66511
2.64051
2.60233
2.57624
2.54516
2.50998
2.48499
2.45128
2.42181
2.39391
2.35534
2.3378
2.31649
2.28982
2.27015
2.24175
2.21947
2.19463
2.16512
2.14155
2.10965
2.09042
2.07446
2.05336
2.03499
2.01007
1.99553
1.98115
1.96172
1.94194
1.91514
1.89622
1.87829
1.86079
1.84429
1.82541
1.81614
1.805
1.78815
1.76175
1.75657
1.79501
2.21865
3.03177
3.32964
1.40001
1.40001
1.40001
1.40001
1.40001
1.40001
1.40001
1.40001
1.40001
1.40001
1.40005
1.40606
1.58222
2.49685
3.642
3.88276
3.85585
3.81763
3.76714
3.73087
3.68389
3.62229
3.56793
3.52245
3.46384
3.40781
3.38457
3.34107
3.28565
3.24507
3.18822
3.14103
3.11481
3.08103
3.046
3.00565
2.9638
2.92555
2.88221
2.84149
2.81136
2.76258
2.72569
2.70759
2.67244
2.64039
2.61674
2.58086
2.55289
2.52
2.48363
2.45694
2.41754
2.38994
2.37485
2.3483
2.32707
2.30368
2.27714
2.25538
2.22459
2.19731
2.16998
2.13857
2.1237
2.1042
2.08486
2.06448
2.04283
2.03046
2.01168
1.99101
1.96719
1.93986
1.92248
1.90402
1.88847
1.87018
1.85473
1.84579
1.83202
1.81711
1.79523
1.77756
1.77022
1.84645
2.39573
3.14854
1.40001
1.40001
1.40001
1.40001
1.40001
1.40001
1.40001
1.40001
1.40001
1.40001
1.40001
1.40006
1.40696
1.59521
2.56517
3.6518
3.8281
3.84686
3.8227
3.77519
3.71797
3.65879
3.61041
3.55632
3.48784
3.45407
3.42843
3.37563
3.32994
3.28145
3.22168
3.18123
3.14937
3.11801
3.08461
3.04709
3.00812
2.96323
2.91696
2.88312
2.83868
2.78957
2.77228
2.74418
2.70561
2.68333
2.65208
2.62022
2.58969
2.54973
2.51849
2.48494
2.44502
2.43049
2.40982
2.38377
2.36438
2.3357
2.31352
2.28725
2.25449
2.22941
2.19549
2.1723
2.15662
2.13505
2.11735
2.09341
2.07711
2.06246
2.03997
2.0191
1.99157
1.96855
1.9514
1.93318
1.91774
1.89646
1.88441
1.87422
1.85814
1.84312
1.82458
1.80686
1.78424
1.7822
1.91962
2.58063
1.40001
1.40001
1.40001
1.40001
1.40001
1.40001
1.40001
1.40001
1.40001
1.40001
1.40001
1.40001
1.40007
1.40842
1.61695
2.63865
3.57141
3.83339
3.84412
3.805
3.74322
3.69213
3.65075
3.59461
3.53079
3.50422
3.46687
3.41448
3.36717
3.31368
3.26071
3.21871
3.18413
3.15588
3.1279
3.09272
3.04677
2.99586
2.95555
2.9146
2.85853
2.83451
2.8156
2.77608
2.74911
2.72398
2.688
2.65815
2.61916
2.58067
2.5502
2.50683
2.484
2.46971
2.443
2.42283
2.39807
2.36989
2.34809
2.31596
2.28654
2.25825
2.22387
2.20783
2.18832
2.16812
2.14859
2.12371
2.11022
2.0909
2.06758
2.0455
2.01784
2.00021
1.98184
1.96443
1.94666
1.92398
1.9141
1.90133
1.88444
1.86772
1.85083
1.83519
1.81242
1.78744
1.79485
2.01899
1.40001
1.40001
1.40001
1.40001
1.40001
1.40001
1.40001
1.40001
1.40001
1.40001
1.40001
1.40001
1.40001
1.40009
1.41039
1.63874
2.63363
3.50412
3.83859
3.84013
3.79297
3.7419
3.68908
3.6234
3.57262
3.54711
3.50519
3.45334
3.39979
3.34653
3.29952
3.25626
3.2198
3.19881
3.17409
3.1312
3.07793
3.0309
2.98997
2.93206
2.89595
2.88403
2.85049
2.81473
2.79472
2.76004
2.72611
2.68955
2.64673
2.61397
2.57312
2.53867
2.52655
2.5041
2.47907
2.46014
2.42804
2.4053
2.37905
2.34498
2.3189
2.28401
2.25884
2.24247
2.21993
2.20217
2.17732
2.15654
2.14173
2.11761
2.0957
2.07079
2.04831
2.03234
2.0123
1.99545
1.97299
1.95289
1.943
1.92703
1.91063
1.89225
1.87639
1.8618
1.8414
1.81183
1.79923
1.82208
1.40001
1.40001
1.40001
1.40001
2.376
2.30977
2.25763
2.21005
2.1628
2.10983
2.04936
1.98405
1.91856
1.86319
1.82074
1.78152
1.74356
1.70769
1.67049
1.62897
1.58157
1.52713
1.47333
1.43193
1.40377
1.38267
1.36426
1.34613
1.32679
1.30293
1.26932
1.22523
1.17972
1.14897
2.40864
2.34561
2.29392
2.24455
2.1937
2.13953
2.07853
2.00929
1.94096
1.88907
1.84904
1.81308
1.77735
1.73946
1.69827
1.65132
1.59829
1.54271
1.49385
1.46143
1.43732
1.4157
1.39501
1.37375
1.34937
1.31897
1.27827
1.23044
1.19209
1.17045
2.4396
2.38186
2.33212
2.28308
2.23142
2.17598
2.11402
2.04233
1.97173
1.92099
1.88255
1.8488
1.81352
1.77325
1.72802
1.67644
1.61917
1.56366
1.52335
1.49676
1.47374
1.45008
1.42586
1.40032
1.37077
1.33404
1.28723
1.24156
1.21379
1.19924
2.46659
2.41441
2.36655
2.31883
2.26822
2.21291
2.15132
2.08132
2.01381
1.96379
1.92347
1.88647
1.8492
1.8068
1.7574
1.70018
1.64044
1.59223
1.56063
1.53596
1.5119
1.48583
1.45866
1.42927
1.39434
1.35012
1.29928
1.26153
1.24507
1.23232
2.49293
2.44515
2.39873
2.3522
2.30325
2.24964
2.19038
2.12562
2.06421
2.01472
1.97106
1.92925
1.88729
1.84094
1.78684
1.72425
1.66696
1.62902
1.60198
1.57784
1.55214
1.52357
1.49364
1.46012
1.41823
1.36576
1.31674
1.296
1.28235
1.2696
2.52012
2.4758
2.43091
2.38532
2.33745
2.2853
2.22882
2.16972
2.11381
2.06485
2.01815
1.97239
1.92613
1.8751
1.8154
1.75247
1.70459
1.67234
1.64656
1.6217
1.59408
1.56323
1.53009
1.49067
1.43899
1.38178
1.351
1.33731
1.3236
1.30925
2.55074
2.50899
2.46578
2.42115
2.37372
2.32179
2.26611
2.20938
2.15606
2.10766
2.05988
2.01231
1.96345
1.90834
1.84551
1.79092
1.75182
1.72129
1.69523
1.66867
1.63903
1.60567
1.56725
1.51804
1.45805
1.41178
1.39379
1.38064
1.36549
1.34813
2.58383
2.54379
2.50234
2.45891
2.4115
2.35804
2.29975
2.2416
2.18933
2.1423
2.09551
2.0483
1.99866
1.94137
1.88125
1.83847
1.80438
1.77436
1.74696
1.71746
1.68479
1.64707
1.59865
1.53999
1.4863
1.45521
1.43864
1.42401
1.40576
1.38628
2.6199
2.58046
2.5399
2.49679
2.44821
2.39204
2.33023
2.26998
2.21867
2.17343
2.12831
2.08217
2.03295
1.97623
1.92542
1.89049
1.85693
1.82593
1.79649
1.76352
1.72637
1.68045
1.62036
1.56471
1.52849
1.50339
1.48639
1.46963
1.44781
1.42535
2.65715
2.61729
2.57614
2.53179
2.48092
2.42193
2.35827
2.29818
2.24838
2.20479
2.16126
2.11661
2.06904
2.01638
1.97466
1.94075
1.9052
1.87183
1.83878
1.80091
1.75755
1.70139
1.63992
1.6024
1.57722
1.55361
1.53569
1.5165
1.49241
1.46708
2.69384
2.65301
2.61043
2.56375
2.50966
2.44837
2.38572
2.32869
2.28087
2.23853
2.19636
2.15302
2.1075
2.06082
2.02306
1.98689
1.9479
1.91094
1.87279
1.82939
1.77898
1.71618
1.67102
1.64926
1.62655
1.60398
1.58529
1.56358
1.53685
1.50722
2.72906
2.68703
2.64236
2.59247
2.53532
2.47381
2.41519
2.36318
2.31767
2.27548
2.2334
2.19065
2.14696
2.10504
2.06787
2.02887
1.98674
1.94585
1.90206
1.85258
1.79465
1.74029
1.71746
1.69835
1.6752
1.65373
1.63297
1.60761
1.57656
1.54032
2.76289
2.71915
2.67168
2.6185
2.55958
2.50061
2.44792
2.40084
2.35728
2.31443
2.27126
2.22842
2.1853
2.14539
2.10772
2.06728
2.02402
1.97936
1.92936
1.87305
1.81433
1.78285
1.76686
1.74621
1.72279
1.7011
1.67631
1.64557
1.60652
1.56096
2.79624
2.75029
2.69967
2.64371
2.58492
2.53063
2.48323
2.43945
2.39739
2.35405
2.30944
2.2658
2.22216
2.18205
2.14415
2.10357
2.05945
2.0105
1.95532
1.89579
1.85181
1.83291
1.81561
1.79199
1.76771
1.74369
1.71387
1.67554
1.62424
1.57568
2.82952
2.78055
2.72646
2.66885
2.61283
2.56425
2.52013
2.47736
2.43535
2.39143
2.3456
2.30126
2.25793
2.21766
2.17935
2.13799
2.09134
2.0385
1.98152
1.92938
1.90145
1.88305
1.86239
1.83585
1.80925
1.78075
1.74398
1.69479
1.63552
1.59936
2.86111
2.80857
2.75134
2.69388
2.64338
2.60005
2.55797
2.51523
2.47229
2.42672
2.37912
2.33396
2.29205
2.25334
2.21475
2.1718
2.12179
2.06622
2.01249
1.9737
1.95133
1.9303
1.90691
1.87782
1.8465
1.81099
1.7654
1.70598
1.65717
1.63947
2.88997
2.83411
2.77566
2.72126
2.67601
2.63545
2.59492
2.55323
2.50986
2.46221
2.41258
2.36521
2.32349
2.28675
2.24811
2.20364
2.1519
2.09762
2.05013
2.01968
1.99824
1.97496
1.9486
1.91757
1.88039
1.83415
1.77716
1.72122
1.69862
1.6863
2.91314
2.85687
2.80215
2.75424
2.71162
2.67073
2.62997
2.58973
2.5462
2.49853
2.44878
2.39944
2.35634
2.31809
2.27792
2.23214
2.18203
2.13411
2.09301
2.0651
2.04254
2.01722
1.98791
1.95372
1.90863
1.85043
1.78956
1.75625
1.74458
1.73232
2.93242
2.87802
2.83123
2.79042
2.75028
2.70811
2.66552
2.62355
2.57869
2.53249
2.48486
2.43763
2.39327
2.35047
2.30649
2.25838
2.2125
2.17265
2.13707
2.11
2.08534
2.05767
2.02575
1.98442
1.92857
1.86531
1.81914
1.80133
1.78923
1.77475
2.95594
2.90574
2.864
2.82685
2.7893
2.74746
2.70351
2.65742
2.60973
2.56209
2.51729
2.47469
2.43141
2.38682
2.33906
2.28846
2.24571
2.2103
2.17933
2.15411
2.12736
2.0961
2.05992
2.00823
1.94169
1.89153
1.86424
1.84688
1.83225
1.81442
2.98646
2.94142
2.90066
2.8622
2.82372
2.78274
2.73815
2.69056
2.64092
2.59153
2.54807
2.50821
2.46714
2.4239
2.37528
2.32496
2.28258
2.24703
2.2194
2.19564
2.16679
2.13246
2.08982
2.0244
1.95909
1.93129
1.90948
1.89115
1.87477
1.85478
3.02091
2.98061
2.9412
2.90051
2.8578
2.81277