/*--------------------------------*- C++ -*----------------------------------*\
  =========                 |
  \\      /  F ield         | OpenFOAM: The Open Source CFD Toolbox
   \\    /   O peration     | Website:  https://openfoam.org
    \\  /    A nd           | Version:  7
     \\/     M anipulation  |
\*---------------------------------------------------------------------------*/
FoamFile
{
    version     2.0;
    format      ascii;
    class       volVectorField;
    location    "4.3";
    object      U;
}
// * * * * * * * * * * * * * * * * * * * * * * * * * * * * * * * * * * * * * //

dimensions      [0 1 -1 0 0 0 0];

internalField   nonuniform List<vector> 
3328
(
(-1.03277 0.00287879 0)
(0.281563 0.0026452 0)
(0.558171 0.00410392 0)
(0.546624 0.00429264 0)
(0.53335 0.00457244 0)
(0.518435 0.00478058 0)
(0.502666 0.00505104 0)
(0.489692 0.00543002 0)
(0.477008 0.00575128 0)
(0.462849 0.00618906 0)
(0.446429 0.00670287 0)
(0.428106 0.00762163 0)
(0.408368 0.00854084 0)
(0.387843 0.00958702 0)
(0.366112 0.0110301 0)
(0.342442 0.0125609 0)
(0.316548 0.0144356 0)
(0.289774 0.0162545 0)
(0.260753 0.0182309 0)
(0.227064 0.020136 0)
(0.188096 0.0221402 0)
(0.142503 0.0243966 0)
(0.0899098 0.0259507 0)
(0.0306304 0.0280538 0)
(-1.03159 0.00864364 0)
(0.282245 0.00804352 0)
(0.55824 0.012332 0)
(0.546874 0.0130726 0)
(0.533681 0.0143094 0)
(0.518755 0.0152821 0)
(0.502768 0.0163462 0)
(0.489576 0.017517 0)
(0.476608 0.0183943 0)
(0.46228 0.0195805 0)
(0.445844 0.0210756 0)
(0.427687 0.0238046 0)
(0.408033 0.0267819 0)
(0.387407 0.0299989 0)
(0.365638 0.034477 0)
(0.341806 0.0392414 0)
(0.315817 0.0449561 0)
(0.288835 0.0506023 0)
(0.259623 0.0565384 0)
(0.225672 0.0623136 0)
(0.18645 0.068162 0)
(0.140808 0.0747762 0)
(0.0882406 0.0791333 0)
(0.0298598 0.0845364 0)
(-1.03059 0.0143202 0)
(0.282694 0.0136987 0)
(0.55875 0.0207927 0)
(0.547985 0.0220455 0)
(0.535314 0.0241451 0)
(0.520773 0.0257172 0)
(0.504928 0.0274521 0)
(0.491661 0.0292765 0)
(0.478592 0.0306657 0)
(0.464395 0.0325654 0)
(0.448336 0.0349213 0)
(0.430796 0.0391456 0)
(0.411731 0.0440661 0)
(0.391476 0.0493565 0)
(0.370294 0.0568033 0)
(0.346955 0.0647759 0)
(0.321731 0.0741958 0)
(0.295422 0.0836972 0)
(0.266641 0.0934609 0)
(0.23257 0.103081 0)
(0.192383 0.112942 0)
(0.145403 0.12423 0)
(0.0906822 0.131574 0)
(0.0307714 0.139782 0)
(-1.02882 0.019973 0)
(0.283623 0.019055 0)
(0.559545 0.029278 0)
(0.54958 0.0309819 0)
(0.537563 0.0339644 0)
(0.523326 0.036139 0)
(0.507782 0.0385084 0)
(0.494257 0.0409371 0)
(0.481018 0.0427762 0)
(0.467036 0.0452675 0)
(0.451594 0.048324 0)
(0.435006 0.0536797 0)
(0.417026 0.0605131 0)
(0.397492 0.0677927 0)
(0.377257 0.0780858 0)
(0.354683 0.0892949 0)
(0.330269 0.102438 0)
(0.304556 0.116271 0)
(0.275469 0.130508 0)
(0.240404 0.144854 0)
(0.198857 0.159231 0)
(0.151017 0.17571 0)
(0.094355 0.186829 0)
(0.0320082 0.197595 0)
(-1.02641 0.0255407 0)
(0.284817 0.0243847 0)
(0.560641 0.0378194 0)
(0.55163 0.0399089 0)
(0.540409 0.0436721 0)
(0.526507 0.0464036 0)
(0.511237 0.0493031 0)
(0.497374 0.0522582 0)
(0.483892 0.0545195 0)
(0.470152 0.0574992 0)
(0.455517 0.0611766 0)
(0.440115 0.0672756 0)
(0.423736 0.0758735 0)
(0.405306 0.0850519 0)
(0.386234 0.0980063 0)
(0.364796 0.112597 0)
(0.34165 0.129597 0)
(0.317615 0.147944 0)
(0.290463 0.166514 0)
(0.257638 0.185111 0)
(0.217241 0.203619 0)
(0.168808 0.226502 0)
(0.10682 0.245152 0)
(0.0377962 0.260991 0)
(-1.02332 0.0310281 0)
(0.286311 0.0296614 0)
(0.562164 0.0462489 0)
(0.554166 0.0486443 0)
(0.543836 0.0530149 0)
(0.530343 0.056196 0)
(0.515281 0.0595605 0)
(0.501044 0.0630209 0)
(0.487285 0.0657619 0)
(0.473827 0.0691428 0)
(0.460225 0.0734565 0)
(0.446216 0.0799643 0)
(0.431912 0.0900299 0)
(0.415119 0.101065 0)
(0.397458 0.116398 0)
(0.377685 0.134258 0)
(0.356589 0.154857 0)
(0.335029 0.177196 0)
(0.309867 0.20014 0)
(0.277547 0.224845 0)
(0.234578 0.251824 0)
(0.181793 0.285012 0)
(0.115956 0.315449 0)
(0.0370512 0.335106 0)
(-1.01956 0.0364287 0)
(0.288053 0.0348779 0)
(0.564102 0.0543582 0)
(0.557066 0.0569761 0)
(0.54768 0.0617529 0)
(0.534696 0.0651889 0)
(0.519935 0.0689759 0)
(0.505352 0.0729874 0)
(0.491343 0.0763745 0)
(0.478167 0.0801306 0)
(0.465787 0.0851845 0)
(0.453355 0.0919105 0)
(0.441438 0.103009 0)
(0.426911 0.115795 0)
(0.410978 0.133074 0)
(0.393147 0.153791 0)
(0.374513 0.177869 0)
(0.355543 0.204411 0)
(0.332908 0.232583 0)
(0.304828 0.264051 0)
(0.268567 0.298525 0)
(0.222845 0.340009 0)
(0.156609 0.383925 0)
(0.0664125 0.418102 0)
(-1.01513 0.041738 0)
(0.289983 0.0400085 0)
(0.566335 0.0619263 0)
(0.560144 0.0646699 0)
(0.551711 0.0695737 0)
(0.539466 0.0730959 0)
(0.52523 0.0772969 0)
(0.510463 0.0819635 0)
(0.496268 0.0862612 0)
(0.48332 0.0904821 0)
(0.472257 0.0963765 0)
(0.461586 0.10329 0)
(0.452094 0.114929 0)
(0.440285 0.129225 0)
(0.426408 0.148054 0)
(0.410635 0.171181 0)
(0.394566 0.198521 0)
(0.379273 0.228886 0)
(0.361226 0.260612 0)
(0.340263 0.295657 0)
(0.30889 0.337056 0)
(0.264845 0.403146 0)
(0.172992 0.480091 0)
(0.11495 0.568559 0)
(-1.01006 0.0468911 0)
(0.292038 0.0450133 0)
(0.568591 0.0688027 0)
(0.563162 0.0715605 0)
(0.555762 0.0763126 0)
(0.544567 0.0797431 0)
(0.531204 0.0843883 0)
(0.516532 0.0898466 0)
(0.50225 0.0953729 0)
(0.489432 0.100326 0)
(0.479604 0.107089 0)
(0.470822 0.11428 0)
(0.463565 0.126001 0)
(0.454614 0.141324 0)
(0.443143 0.161332 0)
(0.429766 0.186276 0)
(0.416294 0.216053 0)
(0.405371 0.248993 0)
(0.392299 0.2829 0)
(0.377246 0.322302 0)
(0.350784 0.37639 0)
(0.326574 0.462864 0)
(0.294586 0.547005 0)
(0.346934 0.612381 0)
(-1.00439 0.051812 0)
(0.294178 0.0498374 0)
(0.570618 0.0749365 0)
(0.565866 0.0776368 0)
(0.559665 0.0820225 0)
(0.549805 0.0852748 0)
(0.537775 0.0903642 0)
(0.523645 0.0967162 0)
(0.509507 0.103711 0)
(0.496783 0.109779 0)
(0.487892 0.117337 0)
(0.480919 0.124849 0)
(0.475612 0.13623 0)
(0.469312 0.151811 0)
(0.460623 0.172511 0)
(0.449895 0.198502 0)
(0.439231 0.229775 0)
(0.43192 0.264415 0)
(0.424245 0.300697 0)
(0.413146 0.343409 0)
(0.40222 0.403474 0)
(0.392661 0.481028 0)
(0.401062 0.528267 0)
(0.448915 0.520468 0)
(-0.998146 0.0563731 0)
(0.296439 0.0543842 0)
(0.572269 0.0803891 0)
(0.568168 0.083021 0)
(0.56333 0.08699 0)
(0.555144 0.0899975 0)
(0.544933 0.0954711 0)
(0.531934 0.102719 0)
(0.518312 0.111198 0)
(0.505719 0.118723 0)
(0.497206 0.126993 0)
(0.49153 0.134697 0)
(0.487882 0.145413 0)
(0.483771 0.160399 0)
(0.478267 0.181175 0)
(0.470057 0.207386 0)
(0.46305 0.239516 0)
(0.457547 0.275318 0)
(0.45593 0.313251 0)
(0.448327 0.35563 0)
(0.454039 0.412139 0)
(0.454469 0.479952 0)
(0.482725 0.523181 0)
(0.518855 0.519472 0)
(-0.991403 0.0605177 0)
(0.298876 0.0586018 0)
(0.573587 0.085319 0)
(0.570146 0.0878997 0)
(0.566803 0.0916021 0)
(0.560501 0.0943991 0)
(0.55251 0.100228 0)
(0.541201 0.108278 0)
(0.528535 0.117967 0)
(0.516185 0.126934 0)
(0.507438 0.13579 0)
(0.502201 0.143326 0)
(0.499958 0.153131 0)
(0.497686 0.166798 0)
(0.495653 0.186858 0)
(0.489831 0.212565 0)
(0.487099 0.245085 0)
(0.482243 0.281474 0)
(0.486283 0.319965 0)
(0.481749 0.360256 0)
(0.495936 0.40935 0)
(0.506318 0.467381 0)
(0.538116 0.50623 0)
(0.564532 0.50512 0)
(-0.984198 0.0641741 0)
(0.301564 0.062459 0)
(0.574824 0.0899363 0)
(0.57203 0.0925021 0)
(0.570261 0.0962285 0)
(0.565859 0.0989818 0)
(0.560354 0.105023 0)
(0.551224 0.113565 0)
(0.539857 0.1239 0)
(0.527849 0.133822 0)
(0.518401 0.143121 0)
(0.51273 0.150161 0)
(0.511501 0.159024 0)
(0.511033 0.171063 0)
(0.512395 0.189674 0)
(0.509241 0.214503 0)
(0.510267 0.246917 0)
(0.506522 0.2834 0)
(0.51438 0.321787 0)
(0.512543 0.360092 0)
(0.527514 0.401313 0)
(0.544775 0.449823 0)
(0.573523 0.491515 0)
(0.598953 0.501589 0)
(-0.976567 0.0674147 0)
(0.304528 0.0659913 0)
(0.576391 0.0944475 0)
(0.574163 0.0970532 0)
(0.57396 0.101016 0)
(0.571287 0.103837 0)
(0.568216 0.109847 0)
(0.561456 0.118455 0)
(0.551481 0.128864 0)
(0.539907 0.139019 0)
(0.529708 0.148586 0)
(0.523154 0.155 0)
(0.522477 0.163069 0)
(0.523985 0.173628 0)
(0.528415 0.190316 0)
(0.528369 0.21401 0)
(0.531978 0.245607 0)
(0.530406 0.281752 0)
(0.539955 0.319965 0)
(0.540744 0.357873 0)
(0.5544 0.394363 0)
(0.570214 0.433395 0)
(0.59673 0.469787 0)
(0.622648 0.494599 0)
(-0.968481 0.0703213 0)
(0.307819 0.0691872 0)
(0.578709 0.0989333 0)
(0.576848 0.101625 0)
(0.578033 0.105722 0)
(0.576742 0.108699 0)
(0.575665 0.114388 0)
(0.571088 0.122502 0)
(0.562703 0.13235 0)
(0.551792 0.141947 0)
(0.541331 0.151705 0)
(0.533744 0.157919 0)
(0.533184 0.165655 0)
(0.536772 0.175377 0)
(0.543906 0.190299 0)
(0.547075 0.212681 0)
(0.55244 0.242903 0)
(0.553478 0.27818 0)
(0.562974 0.315709 0)
(0.566833 0.353526 0)
(0.579365 0.38896 0)
(0.593155 0.423698 0)
(0.615456 0.454227 0)
(0.63781 0.48127 0)
(-0.959874 0.0730389 0)
(0.311467 0.0721343 0)
(0.581904 0.103219 0)
(0.580393 0.105915 0)
(0.582491 0.109774 0)
(0.581963 0.112862 0)
(0.58215 0.118275 0)
(0.579466 0.125485 0)
(0.572844 0.134059 0)
(0.563064 0.142786 0)
(0.553307 0.152709 0)
(0.544838 0.159613 0)
(0.544217 0.167579 0)
(0.549748 0.176893 0)
(0.559049 0.190467 0)
(0.565156 0.211329 0)
(0.571837 0.239598 0)
(0.574817 0.273196 0)
(0.583994 0.309421 0)
(0.590592 0.346502 0)
(0.602412 0.381789 0)
(0.615483 0.415205 0)
(0.634649 0.444209 0)
(0.655332 0.470324 0)
(-0.950692 0.0755834 0)
(0.315463 0.0749619 0)
(0.585806 0.106817 0)
(0.584678 0.109324 0)
(0.587012 0.112697 0)
(0.586508 0.115767 0)
(0.587308 0.120648 0)
(0.586291 0.126751 0)
(0.581875 0.134064 0)
(0.573784 0.141952 0)
(0.565361 0.151848 0)
(0.557152 0.160518 0)
(0.556368 0.169502 0)
(0.563169 0.179129 0)
(0.573828 0.191946 0)
(0.582571 0.211064 0)
(0.590157 0.236828 0)
(0.594412 0.267801 0)
(0.603258 0.301645 0)
(0.612199 0.336765 0)
(0.623825 0.371475 0)
(0.637329 0.404696 0)
(0.655075 0.434117 0)
(0.67509 0.460626 0)
(-0.940979 0.0779542 0)
(0.319677 0.0777855 0)
(0.590027 0.109073 0)
(0.589149 0.111282 0)
(0.591223 0.113957 0)
(0.590419 0.116709 0)
(0.591402 0.12127 0)
(0.591735 0.126629 0)
(0.590031 0.133047 0)
(0.584366 0.140573 0)
(0.578008 0.150693 0)
(0.571182 0.161479 0)
(0.570071 0.172125 0)
(0.577021 0.182444 0)
(0.587937 0.194462 0)
(0.598822 0.21104 0)
(0.606756 0.233489 0)
(0.611875 0.260801 0)
(0.619687 0.291354 0)
(0.630924 0.323793 0)
(0.642825 0.357148 0)
(0.657815 0.39019 0)
(0.675996 0.420846 0)
(0.696335 0.449029 0)
(-0.930874 0.0800539 0)
(0.323871 0.0804974 0)
(0.594047 0.109328 0)
(0.593371 0.110887 0)
(0.594813 0.112576 0)
(0.593802 0.114956 0)
(0.595047 0.119618 0)
(0.596389 0.125135 0)
(0.597517 0.131643 0)
(0.595583 0.139697 0)
(0.591558 0.150343 0)
(0.586747 0.163017 0)
(0.585017 0.175444 0)
(0.590731 0.186495 0)
(0.600685 0.197241 0)
(0.612829 0.210283 0)
(0.621358 0.229029 0)
(0.627871 0.252748 0)
(0.634526 0.279652 0)
(0.646704 0.308882 0)
(0.659572 0.340306 0)
(0.676455 0.372904 0)
(0.696622 0.404381 0)
(0.718538 0.434725 0)
(-0.920557 0.0816237 0)
(0.327597 0.0828922 0)
(0.597089 0.107402 0)
(0.596696 0.108348 0)
(0.597956 0.109391 0)
(0.59743 0.111877 0)
(0.599173 0.117308 0)
(0.60157 0.123992 0)
(0.60527 0.130859 0)
(0.607303 0.139631 0)
(0.605952 0.151113 0)
(0.602823 0.164852 0)
(0.600234 0.178353 0)
(0.603593 0.189515 0)
(0.611779 0.198309 0)
(0.62407 0.208701 0)
(0.633606 0.222915 0)
(0.641403 0.24227 0)
(0.647973 0.266133 0)
(0.660246 0.293005 0)
(0.674671 0.322515 0)
(0.692561 0.353809 0)
(0.714661 0.385269 0)
(0.739308 0.41713 0)
(-0.910226 0.0826923 0)
(0.330666 0.0849651 0)
(0.599332 0.104108 0)
(0.59936 0.10472 0)
(0.60143 0.105626 0)
(0.602021 0.108813 0)
(0.604421 0.11539 0)
(0.608195 0.123272 0)
(0.614225 0.131517 0)
(0.61943 0.140977 0)
(0.620488 0.15253 0)
(0.61821 0.165793 0)
(0.614771 0.178992 0)
(0.615194 0.189687 0)
(0.621279 0.197369 0)
(0.632984 0.204951 0)
(0.644645 0.216132 0)
(0.65441 0.231749 0)
(0.661755 0.25254 0)
(0.673501 0.277263 0)
(0.68957 0.305071 0)
(0.70772 0.33586 0)
(0.731247 0.366628 0)
(0.758029 0.398426 0)
(-0.899924 0.082893 0)
(0.333522 0.0859027 0)
(0.601319 0.100204 0)
(0.601677 0.100947 0)
(0.605388 0.102417 0)
(0.607375 0.106805 0)
(0.611023 0.114257 0)
(0.616533 0.122935 0)
(0.624199 0.131791 0)
(0.63128 0.141273 0)
(0.634098 0.151937 0)
(0.632125 0.163573 0)
(0.628144 0.175636 0)
(0.625571 0.185896 0)
(0.629618 0.192994 0)
(0.639917 0.199161 0)
(0.654004 0.207721 0)
(0.666995 0.221324 0)
(0.67681 0.24022 0)
(0.68789 0.263044 0)
(0.704237 0.288872 0)
(0.721185 0.31823 0)
(0.745778 0.348246 0)
(0.774402 0.379526 0)
(-0.889707 0.0824109 0)
(0.3366 0.0849778 0)
(0.604016 0.0963745 0)
(0.604457 0.0980433 0)
(0.609387 0.100956 0)
(0.61314 0.107142 0)
(0.618581 0.114765 0)
(0.625674 0.12277 0)
(0.633984 0.130731 0)
(0.641618 0.138559 0)
(0.645332 0.147166 0)
(0.644156 0.156999 0)
(0.64026 0.168069 0)
(0.635513 0.178714 0)
(0.638036 0.187517 0)
(0.647117 0.1937 0)
(0.662686 0.20098 0)
(0.679098 0.212774 0)
(0.6923 0.229559 0)
(0.704134 0.250648 0)
(0.719239 0.275029 0)
(0.735771 0.30176 0)
(0.75836 0.329711 0)
(0.786473 0.359071 0)
(-0.879443 0.0813525 0)
(0.34094 0.0830929 0)
(0.607138 0.0922969 0)
(0.608444 0.0968545 0)
(0.613748 0.102118 0)
(0.618697 0.109657 0)
(0.625621 0.116279 0)
(0.633533 0.121727 0)
(0.641417 0.126696 0)
(0.648593 0.131814 0)
(0.653144 0.138239 0)
(0.653831 0.146831 0)
(0.65095 0.15765 0)
(0.646938 0.169869 0)
(0.647164 0.18067 0)
(0.656032 0.190498 0)
(0.671649 0.198393 0)
(0.690813 0.20755 0)
(0.707447 0.220765 0)
(0.721592 0.239582 0)
(0.735142 0.262107 0)
(0.752156 0.285627 0)
(0.770951 0.31073 0)
(0.797224 0.336823 0)
(-0.869112 0.0796407 0)
(0.345971 0.0802098 0)
(0.612165 0.0901012 0)
(0.61376 0.0952814 0)
(0.618355 0.103986 0)
(0.623155 0.112717 0)
(0.630748 0.117526 0)
(0.638659 0.119352 0)
(0.64584 0.121015 0)
(0.652937 0.123584 0)
(0.658797 0.127756 0)
(0.661603 0.134882 0)
(0.660609 0.145311 0)
(0.65772 0.158962 0)
(0.657446 0.172964 0)
(0.665067 0.184917 0)
(0.679957 0.195239 0)
(0.700228 0.204101 0)
(0.720498 0.214779 0)
(0.73637 0.227949 0)
(0.750108 0.246534 0)
(0.766895 0.26702 0)
(0.784573 0.289442 0)
(0.808982 0.31238 0)
(-0.858839 0.0776634 0)
(0.351341 0.0773874 0)
(0.61838 0.087667 0)
(0.620467 0.0931583 0)
(0.624217 0.1041 0)
(0.627479 0.112907 0)
(0.633746 0.115316 0)
(0.64055 0.114855 0)
(0.647685 0.114434 0)
(0.655566 0.11476 0)
(0.663758 0.117259 0)
(0.670523 0.123756 0)
(0.673276 0.134731 0)
(0.672815 0.149631 0)
(0.672339 0.166333 0)
(0.677256 0.181273 0)
(0.689417 0.192396 0)
(0.708049 0.200974 0)
(0.729934 0.207676 0)
(0.748289 0.218101 0)
(0.763831 0.230247 0)
(0.779105 0.246013 0)
(0.796188 0.26497 0)
(0.818332 0.284817 0)
(-0.848963 0.0757688 0)
(0.356529 0.0754491 0)
(0.625823 0.085334 0)
(0.62813 0.0907905 0)
(0.630099 0.101188 0)
(0.631038 0.108747 0)
(0.634795 0.109719 0)
(0.640114 0.108415 0)
(0.647291 0.106832 0)
(0.656522 0.106846 0)
(0.667407 0.108996 0)
(0.678321 0.114923 0)
(0.686001 0.125764 0)
(0.688845 0.140725 0)
(0.689141 0.158201 0)
(0.691146 0.174498 0)
(0.699694 0.18686 0)
(0.714801 0.19454 0)
(0.735407 0.198513 0)
(0.756846 0.204292 0)
(0.774818 0.214218 0)
(0.791518 0.225133 0)
(0.808872 0.240226 0)
(0.82985 0.257242 0)
(-0.839493 0.0749112 0)
(0.361565 0.0756887 0)
(0.632966 0.08232 0)
(0.635267 0.0866801 0)
(0.635898 0.0948592 0)
(0.634872 0.100341 0)
(0.636248 0.100857 0)
(0.639932 0.100618 0)
(0.64708 0.10068 0)
(0.657853 0.101693 0)
(0.671345 0.104392 0)
(0.685777 0.110335 0)
(0.69787 0.119939 0)
(0.704542 0.133088 0)
(0.706335 0.148788 0)
(0.70642 0.164623 0)
(0.70994 0.177064 0)
(0.720351 0.184133 0)
(0.739125 0.18765 0)
(0.76143 0.190755 0)
(0.782822 0.197119 0)
(0.802679 0.206777 0)
(0.82268 0.218959 0)
(0.844264 0.233393 0)
(-0.830082 0.0751668 0)
(0.366696 0.0774992 0)
(0.637625 0.0774847 0)
(0.639975 0.0804329 0)
(0.639202 0.085015 0)
(0.637293 0.0875387 0)
(0.637202 0.0888639 0)
(0.640167 0.0911325 0)
(0.64752 0.0946693 0)
(0.659767 0.0983374 0)
(0.67513 0.102595 0)
(0.69139 0.108165 0)
(0.706301 0.115085 0)
(0.716455 0.124388 0)
(0.720229 0.136201 0)
(0.720232 0.149564 0)
(0.719369 0.161725 0)
(0.726484 0.171453 0)
(0.741635 0.176459 0)
(0.763732 0.178909 0)
(0.788793 0.183864 0)
(0.81275 0.191897 0)
(0.835131 0.20225 0)
(0.857913 0.213839 0)
(-0.820215 0.0764128 0)
(0.372474 0.0793594 0)
(0.637832 0.0713425 0)
(0.640115 0.0722778 0)
(0.640508 0.0738748 0)
(0.640248 0.0739557 0)
(0.6409 0.0760385 0)
(0.644111 0.0814555 0)
(0.651737 0.0890336 0)
(0.664034 0.0964108 0)
(0.67926 0.102284 0)
(0.694969 0.106141 0)
(0.710305 0.109215 0)
(0.721885 0.113292 0)
(0.728368 0.120122 0)
(0.730463 0.130032 0)
(0.729638 0.142396 0)
(0.732356 0.15379 0)
(0.74462 0.164399 0)
(0.766572 0.171292 0)
(0.793334 0.175401 0)
(0.820569 0.181599 0)
(0.845903 0.189755 0)
(0.869932 0.197928 0)
(-0.809597 0.0754343 0)
(0.379849 0.0804552 0)
(0.630625 0.0672232 0)
(0.634444 0.0633336 0)
(0.639144 0.0629063 0)
(0.643212 0.0627162 0)
(0.647106 0.0667997 0)
(0.651528 0.0747601 0)
(0.659499 0.0848736 0)
(0.67024 0.0943252 0)
(0.68304 0.100433 0)
(0.696134 0.103068 0)
(0.709736 0.104146 0)
(0.721781 0.104408 0)
(0.731075 0.104979 0)
(0.738519 0.109966 0)
(0.74149 0.12149 0)
(0.743149 0.135997 0)
(0.751946 0.148954 0)
(0.769317 0.161284 0)
(0.796821 0.169829 0)
(0.826522 0.174752 0)
(0.854239 0.179469 0)
(0.87957 0.185765 0)
(-0.798954 0.0713214 0)
(0.386569 0.081131 0)
(0.622008 0.0592495 0)
(0.627397 0.0570536 0)
(0.636995 0.0552784 0)
(0.645908 0.0560707 0)
(0.653719 0.0620964 0)
(0.660587 0.07129 0)
(0.668472 0.0813269 0)
(0.676868 0.0898934 0)
(0.685577 0.0956034 0)
(0.696082 0.0968507 0)
(0.707092 0.0948984 0)
(0.719302 0.0916859 0)
(0.73194 0.0898126 0)
(0.744067 0.0924557 0)
(0.753798 0.102105 0)
(0.759151 0.117737 0)
(0.764945 0.135305 0)
(0.777991 0.150645 0)
(0.800374 0.161961 0)
(0.829582 0.166543 0)
(0.858979 0.169582 0)
(0.886438 0.172063 0)
(-0.789551 0.0639152 0)
(0.389493 0.0761596 0)
(0.619391 0.0530715 0)
(0.624578 0.0541793 0)
(0.63755 0.0517064 0)
(0.649685 0.0529016 0)
(0.659804 0.0591019 0)
(0.668899 0.0673886 0)
(0.676548 0.0763696 0)
(0.682845 0.0835931 0)
(0.687283 0.0879567 0)
(0.693917 0.0873213 0)
(0.70288 0.0838621 0)
(0.715395 0.0796354 0)
(0.731214 0.0773937 0)
(0.747697 0.0790234 0)
(0.762958 0.0860284 0)
(0.774611 0.0990988 0)
(0.782014 0.116923 0)
(0.791262 0.135004 0)
(0.806401 0.148757 0)
(0.831707 0.154578 0)
(0.860677 0.155734 0)
(0.888987 0.155072 0)
(-0.781048 0.0545048 0)
(0.388324 0.0640941 0)
(0.62077 0.0501546 0)
(0.625193 0.0544329 0)
(0.639156 0.0523364 0)
(0.653741 0.0531803 0)
(0.665976 0.0581122 0)
(0.675814 0.0643805 0)
(0.682575 0.0703996 0)
(0.68575 0.0749044 0)
(0.686697 0.0768879 0)
(0.689419 0.0755134 0)
(0.697756 0.0726118 0)
(0.711684 0.0697216 0)
(0.730458 0.0684222 0)
(0.750593 0.0698535 0)
(0.769212 0.0735513 0)
(0.785847 0.0817143 0)
(0.79754 0.0946936 0)
(0.805754 0.110803 0)
(0.815466 0.125704 0)
(0.834017 0.134834 0)
(0.860359 0.135798 0)
(0.88819 0.133943 0)
(-0.772325 0.0445176 0)
(0.38646 0.0485735 0)
(0.625114 0.0473013 0)
(0.628743 0.0542946 0)
(0.642535 0.0533999 0)
(0.656433 0.0558721 0)
(0.668843 0.0589568 0)
(0.678471 0.0615104 0)
(0.684713 0.0637365 0)
(0.685671 0.0646693 0)
(0.684518 0.0629284 0)
(0.686316 0.0620681 0)
(0.693912 0.0621534 0)
(0.708491 0.062243 0)
(0.72877 0.0624401 0)
(0.75111 0.0630868 0)
(0.772062 0.0649303 0)
(0.790937 0.0674537 0)
(0.806688 0.0723045 0)
(0.817715 0.0809272 0)
(0.826018 0.0930802 0)
(0.838166 0.103945 0)
(0.859432 0.110067 0)
(0.886124 0.110998 0)
(-0.763094 0.0347659 0)
(0.386371 0.033252 0)
(0.631705 0.0431847 0)
(0.634773 0.05313 0)
(0.645667 0.0555669 0)
(0.657059 0.0580148 0)
(0.668303 0.0584078 0)
(0.6765 0.0571285 0)
(0.681261 0.0535523 0)
(0.682474 0.0498695 0)
(0.683095 0.0473753 0)
(0.68652 0.0495838 0)
(0.694448 0.0531341 0)
(0.708404 0.056415 0)
(0.727121 0.0576631 0)
(0.748392 0.0572113 0)
(0.769115 0.0558237 0)
(0.788019 0.0544248 0)
(0.805292 0.0541154 0)
(0.820773 0.0558962 0)
(0.833738 0.0606955 0)
(0.845973 0.0693135 0)
(0.862807 0.0778142 0)
(0.886926 0.0847182 0)
(-0.754831 0.0247988 0)
(0.389754 0.0197857 0)
(0.639315 0.0388354 0)
(0.642891 0.0506859 0)
(0.648729 0.0548253 0)
(0.655789 0.0561931 0)
(0.663302 0.0528251 0)
(0.670422 0.0465113 0)
(0.675259 0.0388219 0)
(0.678208 0.0334129 0)
(0.68318 0.0327573 0)
(0.690401 0.0367621 0)
(0.7002 0.0432995 0)
(0.712585 0.0486976 0)
(0.728132 0.0518664 0)
(0.746479 0.0504424 0)
(0.765405 0.0455573 0)
(0.784135 0.0393683 0)
(0.803051 0.0338154 0)
(0.820785 0.0300194 0)
(0.838274 0.0311919 0)
(0.855063 0.03842 0)
(0.872463 0.050035 0)
(0.894156 0.0614343 0)
(-0.748628 0.0156449 0)
(0.399472 0.00941363 0)
(0.65032 0.0359781 0)
(0.649599 0.045321 0)
(0.648855 0.0480781 0)
(0.650356 0.0468154 0)
(0.655004 0.040629 0)
(0.66164 0.0320299 0)
(0.668056 0.0233361 0)
(0.676145 0.0188788 0)
(0.68674 0.020838 0)
(0.698577 0.0268733 0)
(0.709517 0.0340772 0)
(0.719314 0.0402536 0)
(0.730103 0.0427438 0)
(0.743251 0.0404688 0)
(0.759079 0.0340892 0)
(0.777135 0.0255069 0)
(0.797723 0.0179375 0)
(0.819322 0.0130268 0)
(0.841681 0.0128509 0)
(0.864052 0.0182448 0)
(0.885151 0.0280906 0)
(0.906181 0.040072 0)
(-0.745524 0.00685531 0)
(0.41439 0.00482621 0)
(0.660677 0.0289675 0)
(0.655015 0.0321456 0)
(0.649467 0.0332085 0)
(0.645068 0.0309179 0)
(0.64757 0.0249682 0)
(0.654375 0.0177462 0)
(0.663128 0.0106668 0)
(0.676476 0.00798031 0)
(0.691129 0.0105712 0)
(0.704188 0.0152452 0)
(0.715283 0.0213056 0)
(0.723055 0.0264762 0)
(0.730052 0.0286079 0)
(0.738712 0.0269772 0)
(0.751199 0.0214685 0)
(0.768792 0.0140444 0)
(0.790998 0.0077237 0)
(0.816125 0.00365641 0)
(0.84206 0.00299632 0)
(0.866519 0.00554848 0)
(0.889004 0.0101414 0)
(0.910126 0.0183287 0)
(-0.746363 0.00222199 0)
(0.428202 0.0041892 0)
(0.665399 0.00555233 0)
(0.65461 0.00719445 0)
(0.647295 0.00831633 0)
(0.639027 0.0104596 0)
(0.63943 0.0115329 0)
(0.646781 0.0106798 0)
(0.657255 0.0089063 0)
(0.67476 0.00713462 0)
(0.69243 0.00513903 0)
(0.70681 0.0052492 0)
(0.718063 0.00632514 0)
(0.724348 0.00804412 0)
(0.728723 0.00949121 0)
(0.733667 0.0105145 0)
(0.743765 0.0103322 0)
(0.761557 0.00929453 0)
(0.786001 0.00811693 0)
(0.813722 0.00652825 0)
(0.842041 0.00411615 0)
(0.869672 0.00394585 0)
(0.895589 0.0046095 0)
(0.919295 0.00549164 0)
(0.409993 0.384276 0)
(0.105156 0.193596 0)
(0.0368765 0.0510364 0)
(0.00750438 0.0123016 0)
(-0.00983796 0.0063541 0)
(-0.0140272 0.00198685 0)
(-0.0115131 -0.000599874 0)
(-0.00437578 -0.00289619 0)
(0.43734 0.333896 0)
(0.265487 0.193424 0)
(0.169716 0.0780629 0)
(0.0754438 0.0436339 0)
(0.0208222 0.0246011 0)
(-0.000589935 0.0065982 0)
(-0.00663612 0.00131504 0)
(-0.00328896 -0.00275202 0)
(0.486445 0.437489 0)
(0.371577 0.355258 0)
(0.264087 0.233909 0)
(0.149617 0.150748 0)
(0.0742428 0.0831775 0)
(0.0339402 0.0313423 0)
(0.00550403 0.0123082 0)
(0.00235418 -0.00128535 0)
(0.554665 0.479561 0)
(0.500737 0.422583 0)
(0.418383 0.322486 0)
(0.302365 0.227902 0)
(0.195882 0.145876 0)
(0.109743 0.083842 0)
(0.0416278 0.0472917 0)
(0.0137361 0.0165455 0)
(0.603592 0.497269 0)
(0.579468 0.481699 0)
(0.528829 0.428393 0)
(0.431577 0.359731 0)
(0.31692 0.275227 0)
(0.203476 0.189421 0)
(0.0993434 0.120922 0)
(0.034654 0.0624338 0)
(0.63657 0.502256 0)
(0.631954 0.506633 0)
(0.607652 0.490283 0)
(0.548474 0.450833 0)
(0.454362 0.388195 0)
(0.331706 0.311719 0)
(0.190634 0.241454 0)
(0.0754604 0.159334 0)
(0.659656 0.499848 0)
(0.666304 0.515405 0)
(0.657904 0.521798 0)
(0.624905 0.520488 0)
(0.564268 0.494102 0)
(0.459355 0.453988 0)
(0.336214 0.373281 0)
(0.15927 0.344131 0)
(0.676005 0.494595 0)
(0.69123 0.517163 0)
(0.694371 0.539915 0)
(0.682044 0.559591 0)
(0.64923 0.569921 0)
(0.581442 0.56533 0)
(0.422967 0.567563 0)
(0.215221 0.694173 0)
(0.694991 0.486698 0)
(0.713345 0.514442 0)
(0.724342 0.54568 0)
(0.729495 0.580607 0)
(0.720759 0.616715 0)
(0.694385 0.673611 0)
(0.649583 0.771437 0)
(0.738806 1.00181 0)
(0.716908 0.476812 0)
(0.737027 0.506403 0)
(0.754897 0.540764 0)
(0.772639 0.584246 0)
(0.791413 0.642265 0)
(0.813748 0.727881 0)
(0.880106 0.824689 0)
(1.12589 0.928981 0)
(0.7415 0.464518 0)
(0.764377 0.495922 0)
(0.788664 0.530884 0)
(0.814909 0.574832 0)
(0.854413 0.63277 0)
(0.91108 0.71773 0)
(1.04099 0.810054 0)
(1.30632 0.859971 0)
(0.766072 0.448882 0)
(0.793187 0.481752 0)
(0.823602 0.516678 0)
(0.85824 0.55856 0)
(0.909002 0.609139 0)
(0.983531 0.678635 0)
(1.12839 0.753605 0)
(1.36629 0.780596 0)
(0.788453 0.43044 0)
(0.820335 0.46374 0)
(0.856524 0.497924 0)
(0.898828 0.536567 0)
(0.956387 0.579218 0)
(1.03726 0.631029 0)
(1.17243 0.685348 0)
(1.36949 0.697191 0)
(0.808071 0.410604 0)
(0.844194 0.443056 0)
(0.885264 0.47532 0)
(0.933186 0.509511 0)
(0.99439 0.545035 0)
(1.07515 0.581232 0)
(1.19547 0.617945 0)
(1.35302 0.619132 0)
(0.822237 0.387962 0)
(0.862198 0.418253 0)
(0.907624 0.448049 0)
(0.959881 0.47804 0)
(1.02327 0.508368 0)
(1.10165 0.533703 0)
(1.20637 0.555099 0)
(1.33297 0.550445 0)
(0.832276 0.362754 0)
(0.873821 0.389898 0)
(0.921959 0.41637 0)
(0.976947 0.441768 0)
(1.0411 0.468023 0)
(1.11705 0.486188 0)
(1.20929 0.498419 0)
(1.31533 0.491784 0)
(0.841465 0.335926 0)
(0.882406 0.36001 0)
(0.931357 0.383125 0)
(0.987414 0.404082 0)
(1.05096 0.426898 0)
(1.12357 0.440372 0)
(1.20653 0.447913 0)
(1.29868 0.441437 0)
(0.848377 0.30716 0)
(0.887964 0.329169 0)
(0.936696 0.349772 0)
(0.992927 0.367225 0)
(1.05526 0.386964 0)
(1.12465 0.398398 0)
(1.20034 0.403653 0)
(1.28226 0.397932 0)
(0.856589 0.277655 0)
(0.892753 0.298355 0)
(0.938581 0.317487 0)
(0.992981 0.332563 0)
(1.05309 0.350204 0)
(1.11958 0.359074 0)
(1.19012 0.364429 0)
(1.265 0.359847 0)
(0.868158 0.251846 0)
(0.900975 0.268925 0)
(0.942035 0.286533 0)
(0.992032 0.300336 0)
(1.04802 0.316254 0)
(1.11028 0.323953 0)
(1.17613 0.327834 0)
(1.24596 0.324601 0)
(0.88132 0.2292 0)
(0.911452 0.242699 0)
(0.947706 0.257244 0)
(0.991308 0.270205 0)
(1.04106 0.284717 0)
(1.09816 0.291206 0)
(1.15883 0.293244 0)
(1.22395 0.290521 0)
(0.894465 0.209722 0)
(0.923777 0.219211 0)
(0.956819 0.23042 0)
(0.995003 0.240655 0)
(1.03831 0.253074 0)
(1.08929 0.257666 0)
(1.14471 0.257895 0)
(1.2045 0.254836 0)
(0.904755 0.19326 0)
(0.932442 0.197508 0)
(0.962642 0.203979 0)
(0.996838 0.210705 0)
(1.03579 0.219354 0)
(1.0816 0.222346 0)
(1.13196 0.221883 0)
(1.18592 0.218736 0)
(0.912631 0.176339 0)
(0.939753 0.177478 0)
(0.968369 0.180276 0)
(0.999753 0.183436 0)
(1.03493 0.187327 0)
(1.07548 0.187328 0)
(1.12042 0.185412 0)
(1.16888 0.182567 0)
(0.916762 0.155535 0)
(0.944364 0.153681 0)
(0.973177 0.153699 0)
(1.00415 0.153995 0)
(1.03818 0.154824 0)
(1.07578 0.153346 0)
(1.11647 0.151156 0)
(1.16013 0.148795 0)
(0.917316 0.131892 0)
(0.94611 0.129324 0)
(0.975811 0.12897 0)
(1.00733 0.128818 0)
(1.04102 0.128325 0)
(1.0768 0.12597 0)
(1.11443 0.123661 0)
(1.15433 0.121264 0)
(0.916153 0.109816 0)
(0.946579 0.10858 0)
(0.976902 0.108668 0)
(1.00864 0.108197 0)
(1.04254 0.107015 0)
(1.07828 0.104323 0)
(1.1151 0.101579 0)
(1.15322 0.0985811 0)
(0.916141 0.0893822 0)
(0.948255 0.0911431 0)
(0.980495 0.0926355 0)
(1.01364 0.0928713 0)
(1.04743 0.0912385 0)
(1.08151 0.0874728 0)
(1.11673 0.0834474 0)
(1.15356 0.0792926 0)
(0.919646 0.0698276 0)
(0.950432 0.0732191 0)
(0.982603 0.0754285 0)
(1.01586 0.0758923 0)
(1.04962 0.0744417 0)
(1.08379 0.0716937 0)
(1.11826 0.0670018 0)
(1.15403 0.0618686 0)
(0.928221 0.0507937 0)
(0.955727 0.0564993 0)
(0.98585 0.0591257 0)
(1.01758 0.0589928 0)
(1.05067 0.0568947 0)
(1.08503 0.0535978 0)
(1.12016 0.0499697 0)
(1.1562 0.0453543 0)
(0.931245 0.0274233 0)
(0.955325 0.0343564 0)
(0.982728 0.0375544 0)
(1.01249 0.0374376 0)
(1.04407 0.0354219 0)
(1.07743 0.0329944 0)
(1.11279 0.030347 0)
(1.14951 0.0267915 0)
(0.9415 0.00706286 0)
(0.964168 0.00919645 0)
(0.989339 0.0108065 0)
(1.01784 0.0114568 0)
(1.04931 0.0116841 0)
(1.08332 0.0115886 0)
(1.11915 0.0107399 0)
(1.15588 0.00986424 0)
(1.67221 1.05048 0)
(2.27905 1.01128 0)
(2.6107 0.84148 0)
(2.51957 0.364051 0)
(2.50433 0.116347 0)
(2.38036 -0.110903 0)
(2.24345 -0.24825 0)
(2.25097 -0.258528 0)
(2.17636 -0.175622 0)
(2.03702 -0.117689 0)
(1.8755 -0.105065 0)
(1.49118 -0.0550537 0)
(1.4064 -0.00763101 0)
(1.41495 -0.000160065 0)
(1.39067 0.00168096 0)
(1.357 -0.000143137 0)
(1.32887 -0.00553322 0)
(1.32638 -0.00815101 0)
(1.342 -0.0104439 0)
(1.36975 -0.0118943 0)
(1.39294 -0.0128485 0)
(1.40914 -0.0134923 0)
(1.42515 -0.0136661 0)
(1.4419 -0.0134026 0)
(1.45847 -0.0120166 0)
(1.47564 -0.0102935 0)
(1.49523 -0.00890971 0)
(1.52014 -0.00730923 0)
(1.5459 -0.00516907 0)
(1.56733 -0.00285598 0)
(1.58775 -0.000425019 0)
(1.60831 0.00163225 0)
(1.62848 0.00329802 0)
(1.64653 0.00378992 0)
(1.66413 0.0040039 0)
(1.68172 0.00413327 0)
(1.69943 0.00402863 0)
(1.71717 0.00397443 0)
(1.73454 0.00430564 0)
(1.75218 0.0047881 0)
(1.77069 0.00487587 0)
(1.78928 0.00461671 0)
(1.80971 0.00323604 0)
(1.82992 0.0012663 0)
(1.84929 0.000517275 0)
(1.86775 -0.000653332 0)
(1.88192 -0.00198486 0)
(1.88815 -0.001616 0)
(1.89458 -0.000992321 0)
(1.91277 0.000261658 0)
(1.93844 0.00112038 0)
(1.96378 0.000496536 0)
(1.96847 -0.0051892 0)
(1.94264 -0.0209983 0)
(1.8438 -0.0590678 0)
(1.72547 -0.0662321 0)
(1.57954 -0.0395041 0)
(1.532 -0.0216844 0)
(1.54451 -0.0067921 0)
(1.56652 0.000446015 0)
(1.58056 0.00414654 0)
(1.59545 0.00600458 0)
(1.61311 0.00675005 0)
(1.6303 0.007665 0)
(1.65175 0.00734791 0)
(1.67943 0.00423015 0)
(1.70837 0.00228193 0)
(1.73486 0.00417383 0)
(1.7612 0.00703154 0)
(1.79218 0.00889311 0)
(1.82311 0.00864519 0)
(1.84253 0.00742959 0)
(1.85703 0.006838 0)
(1.87081 0.00673733 0)
(1.88342 0.00629791 0)
(1.89471 0.00394125 0)
(1.9065 -0.00183704 0)
(1.91826 -0.00746794 0)
(1.92905 -0.0115497 0)
(1.93809 -0.0139468 0)
(1.94317 -0.0141513 0)
(1.93876 -0.011495 0)
(1.92912 -0.00482899 0)
(1.92529 0.00370156 0)
(1.93162 0.00917505 0)
(1.9429 0.0100258 0)
(1.95571 0.0115779 0)
(1.97194 0.0128078 0)
(1.80564 0.844499 0)
(2.22396 0.478515 0)
(2.47301 0.0752433 0)
(2.55051 -0.195829 0)
(2.46794 -0.407857 0)
(2.45308 -0.509578 0)
(2.46186 -0.508024 0)
(2.37207 -0.373561 0)
(2.23375 -0.31874 0)
(2.11244 -0.29947 0)
(2.02708 -0.224103 0)
(1.66659 -0.0175696 0)