/*--------------------------------*- C++ -*----------------------------------*\
  =========                 |
  \\      /  F ield         | OpenFOAM: The Open Source CFD Toolbox
   \\    /   O peration     | Website:  https://openfoam.org
    \\  /    A nd           | Version:  7
     \\/     M anipulation  |
\*---------------------------------------------------------------------------*/
FoamFile
{
    version     2.0;
    format      ascii;
    class       volScalarField;
    location    "2.4";
    object      T;
}
// * * * * * * * * * * * * * * * * * * * * * * * * * * * * * * * * * * * * * //

dimensions      [0 0 0 1 0 0 0];

internalField   nonuniform List<scalar> 
16192
(
1.67783
1.67794
1.67947
1.68133
1.68176
1.68181
1.68196
1.68203
1.68167
1.68062
1.67886
1.67689
1.6755
1.6743
1.67318
1.67243
1.67222
1.67227
1.67293
1.67482
1.67714
1.67772
1.67744
1.6766
1.67421
1.67062
1.66864
1.66812
1.66792
1.66826
1.67005
1.6715
1.6715
1.67129
1.67049
1.6683
1.66697
1.6669
1.66716
1.66788
1.66889
1.67
1.67101
1.67164
1.67192
1.67245
1.67378
1.67572
1.67811
1.67964
1.68061
1.68085
1.68048
1.6803
1.6806
1.68161
1.68334
1.686
1.68962
1.69381
1.69798
1.70177
1.70485
1.70722
1.70938
1.71152
1.71353
1.71521
1.71662
1.71817
1.72023
1.72221
1.72369
1.72484
1.72593
1.72746
1.73021
1.73393
1.73784
1.74155
1.74512
1.74721
1.74746
1.74719
1.74559
1.74292
1.74243
1.74246
1.74229
1.74235
1.74243
1.74134
1.73785
1.73297
1.72782
1.72351
1.71995
1.71717
1.71362
1.70858
1.70292
1.69694
1.68963
1.68128
1.67339
1.66788
1.66549
1.66545
1.66651
1.66608
1.66207
1.65549
1.6486
1.64198
1.63599
1.6311
1.6277
1.62494
1.62276
1.62258
1.62262
1.62158
1.61808
1.6139
1.61056
1.6086
1.60829
1.6089
1.60971
1.60895
1.60658
1.60403
1.60185
1.60093
1.60061
1.60033
1.6004
1.60199
1.60555
1.60714
1.60708
1.60654
1.60547
1.6038
1.6028
1.60276
1.60311
1.60392
1.60487
1.60581
1.60678
1.60767
1.60853
1.60981
1.61199
1.61506
1.6189
1.62364
1.62881
1.63328
1.63631
1.63723
1.63687
1.63669
1.63897
1.64579
1.6556
1.66663
1.67704
1.68494
1.69045
1.69514
1.70058
1.70868
1.72175
1.7395
1.75485
1.76275
1.76653
1.76844
1.76992
1.77153
1.77378
1.77772
1.78383
1.79297
1.80162
1.80663
1.80907
1.80953
1.80942
1.80674
1.7979
1.78796
1.78181
1.77283
1.75885
1.74089
1.72437
1.71622
1.71216
1.70846
1.70614
1.70415
1.7
1.68965
1.67658
1.66875
1.66229
1.65795
1.65673
1.65847
1.6611
1.91153
2.64047
2.7815
2.77784
2.77969
2.78053
2.78052
2.77663
2.76925
2.76292
2.75975
2.76
2.76446
2.76929
2.76987
2.7644
2.75417
2.74381
2.73605
2.73321
2.73329
2.73492
2.7352
2.73082
2.72127
2.71173
2.70419
2.70025
2.69997
2.70021
2.69739
2.69015
2.68203
2.674
2.66747
2.66553
2.66682
2.66931
2.67027
2.66741
1.67757
1.67783
1.67868
1.67884
1.67854
1.67785
1.67689
1.67629
1.6761
1.67625
1.67679
1.67683
1.67604
1.6747
1.67295
1.67112
1.67014
1.6699
1.67004
1.67112
1.67262
1.67334
1.67321
1.67268
1.67147
1.66923
1.66669
1.66556
1.66521
1.66524
1.66613
1.66725
1.66739
1.66738
1.6671
1.66645
1.66601
1.66601
1.66636
1.66721
1.66831
1.66947
1.67054
1.67127
1.67142
1.67136
1.6717
1.67299
1.67464
1.67631
1.67768
1.67888
1.6798
1.6803
1.6806
1.68102
1.68198
1.68397
1.68716
1.69098
1.69456
1.69776
1.70059
1.70343
1.70588
1.70832
1.71121
1.71427
1.71694
1.71884
1.72039
1.72184
1.72299
1.72368
1.72394
1.72436
1.72586
1.72899
1.73312
1.73778
1.74232
1.74586
1.74762
1.74782
1.74682
1.74358
1.74115
1.74068
1.74013
1.73951
1.7386
1.73693
1.73445
1.73157
1.72804
1.7243
1.72108
1.71815
1.71414
1.70909
1.70304
1.69695
1.68978
1.68153
1.67356
1.66747
1.66429
1.66381
1.66435
1.66357
1.65868
1.65145
1.64424
1.63736
1.63155
1.62753
1.62501
1.62348
1.62296
1.62316
1.62338
1.62136
1.6162
1.61137
1.60767
1.60504
1.60397
1.60433
1.60663
1.60717
1.60587
1.60371
1.60121
1.59879
1.5978
1.5975
1.59751
1.5989
1.60262
1.60465
1.60471
1.60444
1.60375
1.60254
1.6017
1.60177
1.60243
1.60341
1.60444
1.6054
1.60642
1.60747
1.60842
1.60955
1.61149
1.61436
1.61786
1.62211
1.62698
1.63133
1.63451
1.63642
1.63713
1.63755
1.6397
1.64578
1.65509
1.66602
1.67655
1.68445
1.68974
1.69413
1.69919
1.70662
1.71834
1.73454
1.74996
1.75989
1.76464
1.76676
1.76811
1.76929
1.77103
1.77459
1.78041
1.78961
1.79854
1.80435
1.80822
1.80914
1.80901
1.80713
1.80003
1.78946
1.78232
1.77358
1.7602
1.74282
1.7261
1.716
1.71055
1.70639
1.70406
1.70215
1.69882
1.69066
1.6787
1.66985
1.66276
1.65714
1.655
1.65601
1.65764
1.87987
2.62006
2.78354
2.77739
2.7757
2.77671
2.77603
2.77243
2.76638
2.7588
2.75223
2.74917
2.75001
2.75254
2.75307
2.75006
2.74337
2.73547
2.72829
2.7234
2.7205
2.71844
2.71673
2.71463
2.71067
2.704
2.69708
2.69156
2.68805
2.68583
2.68239
2.6771
2.67112
2.6648
2.65928
2.65656
2.65642
2.65673
2.65588
2.65227
1.66886
1.67143
1.67245
1.67241
1.67159
1.66971
1.6669
1.66483
1.66422
1.66431
1.66578
1.66794
1.66865
1.66857
1.66805
1.66693
1.66553
1.66447
1.66373
1.66325
1.66301
1.6629
1.66307
1.66359
1.66366
1.66323
1.66208
1.66069
1.65971
1.65899
1.65835
1.65795
1.65765
1.65736
1.65724
1.65736
1.65748
1.65764
1.65812
1.65909
1.66049
1.66214
1.66395
1.6657
1.66708
1.66764
1.66758
1.66695
1.66643
1.66661
1.66769
1.66991
1.67236
1.67402
1.67564
1.67712
1.67821
1.6793
1.68114
1.68383
1.68659
1.68898
1.69105
1.69299
1.69495
1.6973
1.70048
1.70455
1.70881
1.71285
1.71654
1.71911
1.72014
1.72011
1.71871
1.71686
1.71688
1.71892
1.72267
1.72686
1.73135
1.73655
1.74057
1.74285
1.74347
1.74226
1.73862
1.73568
1.73385
1.73205
1.73012
1.72799
1.72534
1.7225
1.72036
1.71866
1.71718
1.71505
1.71153
1.70723
1.7019
1.69574
1.68918
1.68154
1.67375
1.66712
1.66269
1.66091
1.66057
1.65898
1.65321
1.64549
1.63766
1.63013
1.62394
1.61975
1.61731
1.61634
1.61639
1.61785
1.61879
1.61671
1.61141
1.60648
1.60236
1.59902
1.59663
1.5964
1.59827
1.59954
1.59894
1.59757
1.59577
1.59351
1.59186
1.5911
1.59093
1.5919
1.59526
1.59723
1.5974
1.5974
1.59709
1.59607
1.59529
1.5955
1.59656
1.59791
1.59917
1.60026
1.6014
1.60253
1.60354
1.60471
1.60673
1.60972
1.61318
1.61689
1.62075
1.62453
1.62792
1.63062
1.63259
1.63417
1.63689
1.64245
1.65097
1.66158
1.67246
1.681
1.68655
1.69065
1.69496
1.70093
1.7103
1.7242
1.73975
1.75292
1.7601
1.76247
1.76345
1.7641
1.7652
1.76794
1.77313
1.78143
1.79029
1.7969
1.80203
1.80469
1.80477
1.80424
1.79974
1.78997
1.78206
1.77387
1.76216
1.74643
1.72926
1.71738
1.71007
1.70442
1.70112
1.69863
1.69535
1.68896
1.6793
1.67118
1.66368
1.65648
1.6515
1.64887
1.64868
1.79578
2.54707
2.78565
2.77795
2.766
2.7573
2.74716
2.74001
2.73378
2.7266
2.71877
2.71229
2.70913
2.70871
2.70768
2.70424
2.7004
2.6967
2.69399
2.69204
2.68967
2.68525
2.67851
2.67309
2.66989
2.66788
2.66593
2.66318
2.65877
2.65215
2.64402
2.63626
2.62979
2.62474
2.62164
2.62056
2.62121
2.6224
2.61936
2.61348
1.64944
1.65158
1.65188
1.6519
1.65162
1.65083
1.64958
1.64852
1.64814
1.64789
1.6484
1.64996
1.65057
1.65057
1.65034
1.64932
1.64787
1.6475
1.6475
1.64758
1.64789
1.64811
1.64776
1.64707
1.64655
1.64621
1.64566
1.64512
1.64514
1.64531
1.64547
1.64548
1.6452
1.64465
1.64414
1.64364
1.6431
1.64282
1.64286
1.64335
1.64443
1.64585
1.6475
1.64934
1.65111
1.65245
1.65316
1.65329
1.65303
1.6528
1.65319
1.6543
1.65574
1.65741
1.65921
1.66079
1.66199
1.6635
1.66625
1.67017
1.67403
1.67675
1.67818
1.67894
1.6797
1.6808
1.6825
1.68507
1.68859
1.69312
1.69841
1.7029
1.70576
1.70703
1.70705
1.70621
1.70567
1.70594
1.70722
1.71009
1.71419
1.71922
1.72376
1.72716
1.72896
1.7287
1.72633
1.72402
1.72275
1.72112
1.71845
1.71499
1.71131
1.70807
1.70588
1.70467
1.70368
1.70177
1.69879
1.69539
1.691
1.68559
1.68005
1.67362
1.66661
1.65997
1.6547
1.6512
1.64872
1.64567
1.6406
1.6341
1.62723
1.62046
1.61444
1.60972
1.60625
1.604
1.60338
1.60383
1.60401
1.6017
1.59667
1.59216
1.58869
1.5857
1.58376
1.5836
1.58479
1.58518
1.58424
1.58267
1.58089
1.57913
1.57827
1.57803
1.57821
1.57983
1.58326
1.58508
1.5856
1.586
1.58599
1.58535
1.58461
1.58482
1.5862
1.58788
1.58918
1.59038
1.59151
1.59246
1.59337
1.59454
1.59658
1.59965
1.60333
1.60724
1.61101
1.61439
1.61738
1.62
1.62212
1.62398
1.62656
1.63119
1.63845
1.64791
1.65822
1.66733
1.6742
1.67934
1.68404
1.68956
1.69749
1.70915
1.72365
1.73968
1.75179
1.75604
1.75696
1.7568
1.75672
1.75817
1.76271
1.76944
1.7766
1.78346
1.78951
1.79412
1.79612
1.79633
1.79364
1.78589
1.77945
1.77287
1.76319
1.74955
1.73328
1.71951
1.70996
1.70305
1.69881
1.6956
1.69211
1.68681
1.67888
1.67151
1.66342
1.65522
1.64565
1.63715
1.63773
1.68601
2.4114
2.77013
2.74684
2.70929
2.68517
2.66642
2.65957
2.65701
2.65271
2.64485
2.63569
2.62805
2.62543
2.62625
2.62519
2.62156
2.6179
2.61459
2.61286
2.61205
2.6106
2.60491
2.59769
2.59297
2.59049
2.59005
2.59095
2.59025
2.58547
2.57853
2.57091
2.56346
2.55738
2.55382
2.55183
2.55127
2.55101
2.54799
2.54562
1.62145
1.62143
1.62107
1.62028
1.61911
1.61821
1.6182
1.61909
1.62041
1.62207
1.62402
1.62493
1.62497
1.62485
1.624
1.6217
1.61932
1.61859
1.61839
1.61831
1.61887
1.61985
1.61995
1.6198
1.61985
1.61976
1.61889
1.61819
1.61834
1.6188
1.6193
1.62007
1.62095
1.62134
1.62141
1.62147
1.62139
1.62111
1.62108
1.62139
1.6223
1.62358
1.62484
1.62566
1.62581
1.62572
1.62573
1.62616
1.62711
1.62857
1.6302
1.63139
1.63248
1.63344
1.63385
1.63374
1.63369
1.63463
1.63751
1.64166
1.64573
1.64931
1.65221
1.65425
1.65607
1.65758
1.65861
1.65945
1.66074
1.66332
1.6673
1.67179
1.67562
1.67798
1.67896
1.67935
1.67992
1.68123
1.68349
1.68648
1.69005
1.69419
1.69833
1.70087
1.70122
1.69986
1.6975
1.69672
1.6963
1.69558
1.69453
1.69301
1.69089
1.68843
1.68616
1.68404
1.68159
1.6789
1.6762
1.67307
1.66913
1.66505
1.66091
1.65613
1.65064
1.64484
1.63924
1.63403
1.62901
1.62379
1.61771
1.61087
1.60452
1.59943
1.59541
1.59204
1.58918
1.58692
1.58523
1.58403
1.58256
1.57933
1.57475
1.5706
1.56734
1.56494
1.56397
1.56432
1.56565
1.56553
1.56404
1.56202
1.55972
1.55805
1.55766
1.55766
1.55816
1.56055
1.56401
1.56554
1.56634
1.56722
1.56775
1.56776
1.56768
1.56851
1.57093
1.57322
1.57485
1.57628
1.57755
1.57843
1.57919
1.58024
1.58222
1.58526
1.58876
1.59227
1.59575
1.59917
1.60243
1.60524
1.60725
1.60865
1.61038
1.61377
1.61942
1.6268
1.63478
1.64242
1.64934
1.65524
1.66041
1.66566
1.67198
1.68057
1.69285
1.70966
1.72661
1.73602
1.73836
1.73794
1.7367
1.73724
1.74081
1.7466
1.75326
1.76057
1.76818
1.77544
1.7805
1.78174
1.78013
1.77364
1.76901
1.76535
1.759
1.74884
1.73488
1.72088
1.71107
1.70386
1.69896
1.69502
1.69083
1.68522
1.67817
1.67067
1.66195
1.65171
1.63533
1.63028
1.65416
1.75277
2.18173
2.63398
2.66214
2.6227
2.58719
2.56035
2.55707
2.55897
2.55987
2.55627
2.54663
2.5354
2.52677
2.52454
2.52544
2.52568
2.52305
2.52004
2.51793
2.51736
2.51717
2.51534
2.51023
2.50506
2.50152
2.50019
2.50034
2.50005
2.49787
2.49414
2.48929
2.48411
2.47918
2.4764
2.47537
2.47389
2.46831
2.46317
2.45927
1.58653
1.58644
1.58622
1.5856
1.58468
1.58419
1.58455
1.58598
1.58774
1.58963
1.59103
1.59133
1.59146
1.59145
1.5909
1.58937
1.58778
1.58717
1.58694
1.5869
1.58746
1.58805
1.58808
1.58823
1.58858
1.58856
1.58779
1.58742
1.58771
1.58836
1.5889
1.5897
1.59071
1.59118
1.5913
1.59138
1.59114
1.59034
1.59
1.59017
1.59096
1.59234
1.59397
1.59534
1.59578
1.59553
1.59487
1.59495
1.59577
1.5971
1.59865
1.59997
1.60108
1.60194
1.60212
1.60203
1.60235
1.60371
1.60586
1.60844
1.61128
1.61401
1.61654
1.61871
1.62045
1.62176
1.62231
1.62262
1.62356
1.62622
1.63053
1.63528
1.63911
1.64114
1.64176
1.64218
1.64319
1.64483
1.64697
1.64987
1.6533
1.65729
1.66177
1.66461
1.66479
1.66248
1.66048
1.66011
1.65951
1.65878
1.65838
1.6581
1.65743
1.65585
1.65379
1.65167
1.64923
1.6469
1.64491
1.6427
1.63982
1.63722
1.63473
1.63155
1.62774
1.62325
1.61801
1.61236
1.60649
1.59996
1.59221
1.5838
1.57659
1.57163
1.5683
1.5657
1.56339
1.56122
1.55934
1.55796
1.5564
1.55341
1.54956
1.54603
1.54328
1.54147
1.5409
1.54136
1.54206
1.5414
1.5397
1.53795
1.53596
1.53475
1.53456
1.53451
1.53512
1.53775
1.5405
1.54161
1.54256
1.54369
1.54445
1.54462
1.54475
1.54615
1.54901
1.5514
1.55314
1.5547
1.55615
1.55727
1.55829
1.55958
1.56173
1.56476
1.5679
1.57081
1.5736
1.57646
1.57949
1.58241
1.58464
1.58609
1.58759
1.59039
1.59489
1.60043
1.60635
1.61234
1.61831
1.62413
1.62953
1.63445
1.63935
1.64559
1.65529
1.66966
1.68656
1.7001
1.70503
1.70486
1.70434
1.7056
1.70858
1.71266
1.71792
1.72439
1.73269
1.74249
1.7523
1.75934
1.76081
1.75803
1.75327
1.75126
1.74795
1.74126
1.73076
1.71893
1.70974
1.70349
1.69882
1.69457
1.68979
1.68338
1.67581
1.66723
1.65731
1.64298
1.62857
1.64269
1.77162
1.91324
2.00104
2.28516
2.49094
2.52282
2.51605
2.48696
2.4624
2.46238
2.4644
2.46438
2.45944
2.45097
2.44193
2.43691
2.43655
2.43771
2.43675
2.43401
2.43126
2.42975
2.4288
2.42813
2.42597
2.42214
2.41808
2.41522
2.41446
2.41454
2.41397
2.41258
2.40985
2.40635
2.40315
2.40153
2.4013
2.39995
2.39461
2.38918
2.38409
1.55385
1.55346
1.55289
1.55242
1.55226
1.55244
1.55336
1.55478
1.55623
1.55741
1.55778
1.55785
1.55787
1.55772
1.55727
1.55661
1.55606
1.55599
1.55598
1.55618
1.55662
1.55659
1.5565
1.55655
1.55653
1.55594
1.55541
1.55583
1.55695
1.55801
1.55917
1.56037
1.5611
1.56117
1.56118
1.56094
1.5597
1.55804
1.55753
1.55761
1.55811
1.55904
1.56025
1.56158
1.56261
1.56289
1.56297
1.56348
1.5642
1.56478
1.56533
1.56598
1.56642
1.56641
1.56622
1.5666
1.56817
1.57021
1.57217
1.57407
1.57592
1.57762
1.57912
1.58044
1.58122
1.58124
1.58078
1.58073
1.58179
1.58462
1.58863
1.59323
1.59752
1.60021
1.60127
1.60198
1.60304
1.60435
1.60585
1.60763
1.60983
1.61261
1.61586
1.61828
1.61849
1.61773
1.61795
1.61861
1.6185
1.61828
1.61812
1.61775
1.61653
1.61419
1.61152
1.60943
1.60763
1.60579
1.60428
1.60293
1.60126
1.59975
1.59842
1.59659
1.59419
1.59129
1.58761
1.58344
1.57897
1.57333
1.56555
1.55671
1.54908
1.5436
1.53968
1.53686
1.53464
1.53247
1.53086
1.53008
1.52931
1.52723
1.52424
1.5216
1.51977
1.51877
1.51869
1.51911
1.5191
1.51798
1.5165
1.51496
1.51334
1.51253
1.51236
1.51236
1.51337
1.51611
1.51801
1.51889
1.51988
1.52105
1.52173
1.5218
1.52183
1.52314
1.52575
1.52779
1.52927
1.53066
1.53218
1.5336
1.53497
1.53669
1.53918
1.54222
1.54511
1.54747
1.54935
1.55114
1.55316
1.55527
1.55679
1.55763
1.55875
1.56127
1.56491
1.56888
1.57312
1.57782
1.58311
1.589
1.59493
1.60006
1.60427
1.60875
1.61558
1.62622
1.64023
1.65413
1.66213
1.66419
1.66583
1.66811
1.67012
1.67247
1.67553
1.67966
1.68581
1.69431
1.70446
1.71489
1.72457
1.73074
1.73278
1.73298
1.732
1.72811
1.72126
1.7121
1.70305
1.69603
1.69128
1.68697
1.68116
1.67408
1.66605
1.65644
1.64388
1.63186
1.65083
1.75032
1.93151
1.99876
1.9753
2.00426
2.18297
2.34682
2.43155
2.43003
2.41502
2.39618
2.39198
2.39355
2.39329
2.39037
2.38514
2.37997
2.37711
2.37734
2.37784
2.3766
2.37505
2.37292
2.3714
2.36959
2.36732
2.36407
2.35976
2.35512
2.35136
2.34977
2.3494
2.34915
2.34872
2.3478
2.34667
2.346
2.3455
2.34429
2.34123
2.33747
2.33373
1.52767
1.52667
1.52617
1.52617
1.52671
1.5276
1.52886
1.53026
1.53146
1.53191
1.53192
1.53182
1.53136
1.53068
1.53018
1.52994
1.52982
1.52982
1.53004
1.53058
1.53107
1.53129
1.53135
1.53129
1.53067
1.52965
1.52956
1.53023
1.53125
1.53223
1.53338
1.53412
1.53426
1.53431
1.53421
1.53342
1.53181
1.53089
1.53089
1.53117
1.53167
1.53228
1.53293
1.53353
1.5339
1.53404
1.53432
1.53497
1.53566
1.53621
1.53662
1.53683
1.53673
1.53623
1.53616
1.53683
1.53829
1.53983
1.5412
1.54251
1.54386
1.54504
1.54592
1.54635
1.54609
1.5451
1.54463
1.54488
1.5461
1.54817
1.55067
1.55361
1.5568
1.55943
1.56119
1.56252
1.56383
1.56537
1.56688
1.56802
1.56929
1.57073
1.57208
1.57244
1.57204
1.57215
1.57367
1.57483
1.57559
1.57628
1.57665
1.57649
1.57522
1.57302
1.57083
1.56915
1.56764
1.5659
1.56457
1.56353
1.56224
1.5609
1.56002
1.55883
1.55709
1.5553
1.55376
1.55217
1.55011
1.54613
1.53933
1.53147
1.52426
1.51802
1.51335
1.51002
1.50785
1.5063
1.50549
1.50558
1.50555
1.50451
1.50282
1.50139
1.50073
1.50035
1.50019
1.50001
1.49931
1.49823
1.49702
1.49561
1.49453
1.49429
1.4942
1.49453
1.49627
1.49852
1.49948
1.50005
1.50076
1.50135
1.50142
1.50114
1.50108
1.50251
1.5053
1.50753
1.50887
1.51015
1.51161
1.51292
1.51424
1.51594
1.51818
1.52086
1.52353
1.52557
1.52686
1.52787
1.5291
1.53032
1.53075
1.53075
1.53131
1.53361
1.53661
1.53929
1.54192
1.54493
1.54869
1.55343
1.55858
1.56315
1.56688
1.57058
1.5755
1.58237
1.59149
1.60202
1.61054
1.61549
1.62028
1.6241
1.62655
1.62869
1.63059
1.63298
1.63658
1.64175
1.64865
1.65757
1.66858
1.67994
1.68922
1.69679
1.70108
1.70204
1.7012
1.69759
1.6912
1.68384
1.67732
1.67064
1.66374
1.65615
1.64667
1.63546
1.62689
1.65812
1.7749
1.92438
1.99668
1.98971
1.96527
1.93685
1.95574
2.08047
2.24996
2.34265
2.37354
2.3692
2.36218
2.35629
2.3536
2.35281
2.35048
2.34648
2.34223
2.34143
2.34261
2.34318
2.34274
2.34038
2.33614
2.33331
2.33145
2.33148
2.33146
2.32868
2.32482
2.32155
2.32049
2.32029
2.32077
2.32127
2.32113
2.31972
2.31701
2.31367
2.31007
2.30629
2.30255
1.50934
1.50955
1.51007
1.51119
1.51281
1.51428
1.51498
1.51498
1.51438
1.51327
1.51245
1.51188
1.51153
1.51148
1.51156
1.51201
1.51249
1.51304
1.51381
1.51456
1.51485
1.51476
1.51415
1.51279
1.51107
1.51018
1.51017
1.51051
1.51121
1.51245
1.51324
1.51348
1.5137
1.51374
1.51334
1.51206
1.51081
1.51055
1.51061
1.51081
1.51115
1.51155
1.51201
1.51241
1.51277
1.51339
1.51429
1.51502
1.51534
1.51538
1.51504
1.51413
1.51305
1.51257
1.5128
1.51371
1.51511
1.51668
1.51816
1.51923
1.51963
1.51967
1.51905
1.51755
1.51595
1.51533
1.51555
1.51672
1.51844
1.52033
1.52235
1.52461
1.527
1.529
1.53023
1.53081
1.53124
1.53171
1.53205
1.53224
1.53251
1.53303
1.53371
1.53416
1.53451
1.5357
1.53765
1.53968
1.54131
1.54204
1.54173
1.5404
1.53832
1.53619
1.53438
1.53289
1.53183
1.53118
1.5305
1.52988
1.52924
1.52864
1.52827
1.52756
1.52623
1.52496
1.52459
1.52443
1.5238
1.52093
1.51564
1.50961
1.50334
1.49711
1.49195
1.48838
1.48664
1.48612
1.48648
1.48801
1.48885
1.48885
1.48867
1.48769
1.48615
1.48515
1.48439
1.48373
1.48335
1.48287
1.48235
1.48199
1.48203
1.4822
1.48264
1.48347
1.48445
1.48481
1.48496
1.48516
1.48543
1.48559
1.48556
1.48535
1.4856
1.48738
1.48992
1.49161
1.49265
1.49366
1.49473
1.49568
1.49681
1.49825
1.50018
1.50273
1.50524
1.50712
1.50813
1.50849
1.50869
1.50863
1.50797
1.50752
1.50806
1.5102
1.51264
1.51464
1.51659
1.51865
1.52119
1.52437
1.52773
1.53074
1.53355
1.53671
1.54049
1.54476
1.54977
1.55583
1.56176
1.56638
1.572
1.57734
1.58074
1.58308
1.58484
1.58686
1.5893
1.59225
1.59638
1.60267
1.61144
1.62289
1.63471
1.6447
1.65317
1.65889
1.66142
1.66189
1.6611
1.65868
1.65346
1.64577
1.63782
1.62848
1.61717
1.61492
1.6377
1.7827
1.92476
1.98844
1.98022
1.96511
1.94332
1.92217
1.90546
1.91492
2.00021
2.15992
2.29103
2.33109
2.34583
2.34477
2.34028
2.33694
2.33426
2.33121
2.32813
2.32667
2.3271
2.32709
2.32632
2.32408
2.32038
2.31758
2.31674
2.31816
2.31891
2.31739
2.31494
2.31218
2.31019
2.30952
2.30958
2.30951
2.30822
2.30558
2.30163
2.2968
2.29297
2.29
2.28754
1.50059
1.50258
1.50455
1.50559
1.50584
1.50535
1.50408
1.50265
1.5011
1.50015
1.4999
1.49997
1.50078
1.50216
1.50347
1.5043
1.50452
1.50435
1.50357
1.50267
1.50205
1.50139
1.50012
1.49863
1.49766
1.49739
1.49733
1.49759
1.49853
1.49951
1.49982
1.5
1.50005
1.49979
1.49893
1.49792
1.4975
1.49751
1.49772
1.49814
1.49867
1.4993
1.50011
1.50113
1.50215
1.50274
1.50287
1.50254
1.5014
1.49988
1.4985
1.49748
1.4972
1.49733
1.49825
1.50013
1.50199
1.5028
1.5028
1.50234
1.50111
1.49948
1.49798
1.49706
1.49695
1.49741
1.49906
1.50159
1.50406
1.50578
1.50666
1.50707
1.50712
1.5068
1.50602
1.50516
1.50475
1.50473
1.50505
1.50573
1.50672
1.50808
1.50952
1.51121
1.51272
1.51388
1.51495
1.51538
1.51525
1.5142
1.51216
1.50988
1.50817
1.50716
1.50654
1.5064
1.50695
1.50831
1.5093
1.50955
1.50923
1.50763
1.50556
1.5038
1.50209
1.50068
1.50037
1.5005
1.50028
1.4986
1.49547
1.49139
1.48684
1.48207
1.47769
1.47512
1.47439
1.47467
1.47664
1.47867
1.47915
1.47897
1.47774
1.47555
1.47367
1.47288
1.47261
1.47264
1.47302
1.47366
1.47435
1.47493
1.47507
1.47494
1.4749
1.47486
1.4747
1.4747
1.47512
1.47557
1.47583
1.47607
1.4762
1.47638
1.47684
1.47791
1.4792
1.4805
1.48195
1.48307
1.48385
1.48464
1.48561
1.4866
1.48801
1.48997
1.49191
1.49327
1.49354
1.49348
1.49327
1.49265
1.49178
1.4917
1.49263
1.49468
1.49695
1.49887
1.50037
1.50162
1.50299
1.5043
1.5053
1.50615
1.50741
1.50953
1.51209
1.51445
1.51671
1.51921
1.52179
1.52465
1.52953
1.53493
1.53894
1.54181
1.54393
1.54597
1.54771
1.54928
1.5515
1.55534
1.56132
1.56927
1.57853
1.58756
1.5967
1.60445
1.60957
1.61234
1.6129
1.61272
1.61058
1.60613
1.59975
1.58865
1.5931
1.62845
1.74978
1.9178
1.96698
1.95975
1.9477
1.93886
1.92438
1.90913
1.89677
1.8897
1.89316
1.94429
2.096
2.24837
2.31613
2.33491
2.33781
2.33329
2.3295
2.32707
2.32592
2.32362
2.32142
2.32027
2.31884
2.31737
2.31621
2.31457
2.31258
2.31083
2.30911
2.30775
2.30677
2.30531
2.30346
2.30213
2.30152
2.30062
2.29882
2.29593
2.29214
2.28882
2.28631
2.2847
2.28407
1.4986
1.5001
1.50047
1.5001
1.49894
1.49759
1.49586
1.49447
1.49389
1.49372
1.49394
1.49537
1.49765
1.49889
1.49908
1.49883
1.49772
1.49634
1.49521
1.49422
1.49319
1.49239
1.49197
1.49169
1.49154
1.49172
1.4922
1.49283
1.4932
1.49304
1.49277
1.49248
1.49203
1.4914
1.49097
1.49094
1.49121
1.49172
1.49233
1.49298
1.49366
1.49425
1.4947
1.49496
1.49495
1.49443
1.49335
1.4918
1.49011
1.48902
1.48864
1.48862
1.48912
1.49081
1.49244
1.4928
1.49249
1.49141
1.49004
1.48839
1.48697
1.48643
1.48651
1.48719
1.48895
1.49158
1.4938
1.49456
1.49446
1.49363
1.49256
1.49159
1.49017
1.48893
1.48835
1.48835
1.48872
1.48951
1.49117
1.4935
1.496
1.49768
1.49826
1.49815
1.497
1.49585
1.49493
1.49383
1.49265
1.49153
1.49071
1.49028
1.49016
1.49059
1.49191
1.49398
1.49604
1.49671
1.49621
1.4943
1.49163
1.48884
1.48643
1.48468
1.48344
1.48295
1.48303
1.48353
1.48354
1.48271
1.48122
1.47889
1.47551
1.47267
1.47016
1.46912
1.4693
1.47052
1.47137
1.47129
1.47068
1.46956
1.46778
1.46604
1.46551
1.46557
1.46604
1.46701
1.4686
1.4699
1.47028
1.4703
1.46966
1.46867
1.46826
1.46825
1.46834
1.46893
1.4702
1.47106
1.47143
1.47161
1.47131
1.47095
1.47096
1.47135
1.4725
1.47438
1.47682
1.47845
1.47932
1.48022
1.48073
1.48073
1.48097
1.48168
1.48272
1.4835
1.48382
1.484
1.48432
1.48446
1.48449
1.48473
1.48536
1.48635
1.48739
1.48805
1.48832
1.48839
1.48831
1.4879
1.4873
1.48712
1.48747
1.48904
1.4912
1.49287
1.49404
1.495
1.49594
1.4979
1.50141
1.50562
1.5097
1.5122
1.51388
1.51512
1.51603
1.51701
1.5185
1.52072
1.52375
1.52739
1.5321
1.53865
1.54593
1.55254
1.55806
1.56158
1.56213
1.56187
1.56043
1.55815
1.55438
1.55946
1.61987
1.74997
1.90008
1.95252
1.93936
1.93074
1.92157
1.91879
1.91236
1.90102
1.8917
1.88489
1.8842
1.88507
1.91539
2.04262
2.21079
2.30749
2.32673
2.32952
2.32559
2.32651
2.32707
2.32463
2.3204
2.31684
2.31548
2.31548
2.31647
2.31541
2.3123
2.30733
2.30403
2.30242
2.30203
2.30204
2.30134
2.30007
2.29774
2.29574
2.29381
2.29161
2.28919
2.28679
2.28503
2.28418
2.28395
1.49641
1.49654
1.49608
1.49491
1.49311
1.49158
1.49103
1.49088
1.49082
1.49137
1.4933
1.49517
1.49555
1.49533
1.49483
1.49386
1.4923
1.49046
1.4892
1.48877
1.4887
1.48864
1.48875
1.48954
1.4906
1.49119
1.49123
1.49073
1.48988
1.48911
1.48856
1.48811
1.48777
1.48774
1.48809
1.48857
1.48887
1.48894
1.48887
1.48887
1.48893
1.48902
1.48907
1.48905
1.48881
1.48791
1.4863
1.48497
1.48434
1.48416
1.48428
1.48548
1.48717
1.48772
1.48736
1.48631
1.48488
1.48299
1.48109
1.48042
1.48037
1.48072
1.48232
1.48511
1.48728
1.48786
1.48762
1.48652
1.48514
1.48355
1.48169
1.48052
1.48011
1.47998
1.4801
1.48108
1.48303
1.48528
1.48718
1.48806
1.48817
1.48783
1.48659
1.48522
1.48324
1.48105
1.48019
1.48004
1.48006
1.48008
1.48066
1.48203
1.4838
1.48561
1.48683
1.48702
1.4865
1.48515
1.48337
1.4809
1.47742
1.47544
1.4746
1.47403
1.47392
1.47432
1.47543
1.47589
1.47561
1.47469
1.4734
1.47149
1.46923
1.46787
1.4668
1.46618
1.46591
1.46556
1.46515
1.46475
1.46401
1.46253
1.46129
1.46104
1.46135
1.46227
1.46376
1.46538
1.4662
1.46633
1.46613
1.46544
1.46441
1.46392
1.46401
1.46441
1.46525
1.46683
1.46804
1.46838
1.46851
1.46811
1.46711
1.46661
1.46677
1.4676
1.46932
1.4721
1.47443
1.47542
1.47598
1.47607
1.4759
1.47574
1.4757
1.47598
1.47687
1.47806
1.47901
1.47975
1.48004
1.47997
1.47932
1.47853
1.47833
1.47836
1.47839
1.47839
1.47831
1.47814
1.47779
1.4772
1.47662
1.47658
1.47716
1.47877
1.48118
1.4832
1.48433
1.4853
1.48621
1.48745
1.48905
1.49053
1.49149
1.49177
1.49171
1.49176
1.49274
1.49469
1.49635
1.4976
1.49848
1.49896
1.49994
1.5023
1.50553
1.50888
1.51244
1.51539
1.51729
1.51777
1.51753
1.51989
1.52915
1.58416
1.75866
1.88145
1.94147
1.936
1.91761
1.90907
1.90796
1.90555
1.90308
1.89729
1.89075
1.88543
1.88162
1.88131
1.88218
1.89939
1.9936
2.16902
2.29317
2.31944
2.3254
2.3282
2.33007
2.32751
2.32252
2.31694
2.31527
2.31526
2.31713
2.31599
2.31293
2.3073
2.30216
2.30032
2.29983
2.30147
2.30169
2.30083
2.29867
2.29539
2.29293
2.29087
2.28926
2.28758
2.28602
2.28485
2.28387
1.49352
1.49286
1.4913
1.48948
1.48871
1.48884
1.48895
1.4892
1.49048
1.49262
1.49377
1.49354
1.49289
1.49216
1.49109
1.48933
1.48734
1.48643
1.48633
1.48636
1.48664
1.48772
1.4893
1.49048
1.49065
1.49025
1.48928
1.48802
1.48705
1.48632
1.48586
1.48574
1.48578
1.48603
1.48635
1.48644
1.48621
1.48563
1.4852
1.48504
1.48499
1.48494
1.48483
1.4846
1.48424
1.48363
1.48277
1.4823
1.48225
1.48281
1.48404
1.48479
1.48461
1.48394
1.48296
1.48147
1.47923
1.47761
1.47722
1.47721
1.47803
1.48034
1.48275
1.48357
1.48348
1.48289
1.48175
1.47983
1.4775
1.47627
1.47594
1.47576
1.47595
1.47713
1.47906
1.48074
1.48161
1.48169
1.48151
1.481
1.48039
1.47945
1.47748
1.475
1.47397
1.4738
1.47379
1.4742
1.47556
1.47755
1.47944
1.48065
1.48098
1.4807
1.47994
1.47887
1.47775
1.47611
1.47352
1.47103
1.46994
1.46961
1.46963
1.47026
1.47164
1.47284
1.47312
1.47265
1.4713
1.46974
1.46825
1.4667
1.46543
1.46445
1.46353
1.46258
1.46182
1.46125
1.46067
1.46001
1.45928
1.45864
1.45855
1.45915
1.46043
1.4619
1.46282
1.46309
1.46297
1.46257
1.46187
1.46112
1.46091
1.4612
1.46183
1.46296
1.46475
1.46583
1.46609
1.46616
1.46577
1.46463
1.4638
1.46394
1.46463
1.46591
1.46814
1.47044
1.47172
1.47246
1.47293
1.47287
1.4724
1.47232
1.47271
1.47335
1.4746
1.47606
1.47663
1.47671
1.47651
1.47577
1.47448
1.47313
1.47271
1.47264
1.47272
1.473
1.47309
1.47301
1.47277
1.47261
1.47277
1.47359
1.47505
1.47681
1.47827
1.47902
1.47948
1.47937
1.47851
1.47813
1.47812
1.47775
1.47657
1.47591
1.47595
1.47643
1.47804
1.47995
1.48078
1.48086
1.47985
1.47796
1.4773
1.47739
1.47854
1.4812
1.48395
1.4867
1.48948
1.49222
1.49639
1.51191
1.57199
1.73419
1.87359
1.92083
1.92007
1.91753
1.90937
1.90246
1.89835
1.89811
1.89687
1.89402
1.89003
1.88636
1.8828
1.88086
1.88049
1.88153
1.89111
1.95824
2.12396
2.26164
2.31144
2.32696
2.33245
2.32983
2.32589
2.31844
2.31586
2.31549
2.31613
2.31555
2.31298
2.30822
2.3031
2.30097
2.30026
2.3023
2.30371
2.30306
2.30127
2.298
2.295
2.29277
2.29121
2.2896
2.28765
2.2857
2.28422
1.48989
1.48775
1.48637
1.48651
1.48704
1.48747
1.48849
1.49049
1.49254
1.49298
1.4925
1.49161
1.49062
1.48918
1.48705
1.48534
1.48485
1.48481
1.48496
1.48584
1.48757
1.48944
1.49007
1.4899
1.48931
1.48825
1.48691
1.48568
1.48492
1.48462
1.48458
1.48462
1.48478
1.48483
1.48486
1.48463
1.4839
1.48293
1.4823
1.48202
1.48186
1.48179
1.48186
1.48194
1.48186
1.48166
1.48163
1.48196
1.48258
1.48306
1.48295
1.48243
1.48178
1.48091
1.47937
1.4772
1.4759
1.47559
1.47565
1.47682
1.47912
1.48045
1.48046
1.48016
1.47969
1.4786
1.4763
1.47407
1.47335
1.47314
1.47322
1.47432
1.47641
1.4781
1.47857
1.47827
1.47752
1.47687
1.47631
1.47553
1.47419
1.47235
1.47098
1.47047
1.4704
1.47095
1.47247
1.47443
1.47614
1.47698
1.47695
1.47644
1.47569
1.47493
1.47402
1.47264
1.47074
1.4689
1.46765
1.46711
1.46717
1.46801
1.46962
1.47092
1.47114
1.4706
1.46954
1.46826
1.46698
1.46565
1.46417
1.46294
1.4621
1.46138
1.46053
1.45962
1.45883
1.45823
1.45776
1.45728
1.45697
1.45725
1.45828
1.45967
1.46067
1.46097
1.4607
1.46004
1.4594
1.45881
1.45849
1.45854
1.45903
1.45993
1.4615
1.46329
1.46407
1.46425
1.46426
1.46393
1.46294
1.46209
1.46217
1.46276
1.46384
1.46568
1.46751
1.46871
1.46968
1.47041
1.47047
1.47029
1.4705
1.47114
1.47181
1.47304
1.47436
1.47465
1.47457
1.47434
1.47378
1.47232
1.47085
1.47039
1.47018
1.47012
1.47044
1.47115
1.47157
1.47165
1.47173
1.47203
1.4726
1.47319
1.47357
1.47373
1.47375
1.47362
1.47321
1.47237
1.47124
1.47024
1.46932
1.46874
1.46843
1.46814
1.46847
1.46994
1.4711
1.47108
1.47052
1.46894
1.46632
1.46494
1.46483
1.46547
1.46693
1.46983
1.47392
1.47714
1.47865
1.48163
1.49873
1.59677
1.73557
1.87493
1.90008
1.90992
1.91054
1.90785
1.90569
1.90237
1.89836
1.8952
1.8927
1.89013
1.88776
1.88572
1.88402
1.88306
1.8829
1.88314
1.88358
1.88825
1.93007
2.06898
2.23021
2.30162
2.3298
2.33004
2.32728
2.32112
2.31811
2.31714
2.31603
2.31407
2.31166
2.30839
2.30532
2.30336
2.30307
2.30443
2.3044
2.30404
2.30288
2.30059
2.29809
2.29561
2.29307
2.29072
2.28868
2.28673
2.28485
1.48477
1.48417
1.48472
1.48535
1.48636
1.48838
1.49105
1.49254
1.4926
1.49208
1.49108
1.48977
1.48794
1.48588
1.48456
1.48404
1.48397
1.48435
1.48565
1.48773
1.48911
1.48921
1.48899
1.48844
1.48743
1.48584
1.48447
1.48398
1.48388
1.48383
1.48399
1.48447
1.48447
1.48437
1.48398
1.48305
1.48162
1.48055
1.48023
1.48018
1.48019
1.48029
1.48041
1.48076
1.4813
1.48178
1.48217
1.48228
1.48215
1.48168
1.48099
1.48032
1.47942
1.47785
1.47601
1.47506
1.47476
1.47488
1.47612
1.47797
1.47842
1.47818
1.47786
1.47736
1.47602
1.4737
1.47217
1.47176
1.47166
1.47223
1.47402
1.47602
1.47661
1.4763
1.47555
1.47476
1.47397
1.47297
1.47169
1.47033
1.46941
1.46889
1.46871
1.46907
1.47036
1.47217
1.47342
1.47379
1.47365
1.47326
1.47279
1.47226
1.47144
1.47028
1.46893
1.46769
1.46665
1.46594
1.46581
1.4664
1.46786
1.46917
1.46948
1.46902
1.4681
1.467
1.46583
1.46471
1.46364
1.46265
1.46173
1.46086
1.46008
1.45938
1.45856
1.45773
1.4571
1.45661
1.45628
1.45632
1.45692
1.45821
1.45942
1.45988
1.45973
1.45882
1.45765
1.45674
1.45643
1.45643
1.4567
1.45736
1.45863
1.46048
1.46206
1.46264
1.46274
1.46262
1.46223
1.46145
1.46094
1.46103
1.46161
1.46265
1.4643
1.46578
1.4666
1.46734
1.46811
1.46859
1.46881
1.46923
1.47001
1.47095
1.47228
1.47346
1.47367
1.4736
1.47333
1.47274
1.47161
1.47025
1.46956
1.46931
1.46936
1.46995
1.47067
1.47098
1.47099
1.47098
1.4708
1.47072
1.47067
1.47052
1.4703
1.47003
1.46976
1.46924
1.46799