/*--------------------------------*- C++ -*----------------------------------*\
  =========                 |
  \\      /  F ield         | OpenFOAM: The Open Source CFD Toolbox
   \\    /   O peration     | Website:  https://openfoam.org
    \\  /    A nd           | Version:  7
     \\/     M anipulation  |
\*---------------------------------------------------------------------------*/
FoamFile
{
    version     2.0;
    format      ascii;
    class       volVectorField;
    location    "3.3";
    object      U;
}
// * * * * * * * * * * * * * * * * * * * * * * * * * * * * * * * * * * * * * //

dimensions      [0 1 -1 0 0 0 0];

internalField   nonuniform List<vector> 
4128
(
(0.653627 -0.00472038 0)
(0.653198 -0.00296247 0)
(0.653173 -0.000926259 0)
(0.654125 0.000722915 0)
(0.655988 0.0016071 0)
(0.659706 0.00205647 0)
(0.66525 0.00207156 0)
(0.672848 0.00140028 0)
(0.681341 -0.000264646 0)
(0.689579 -0.00241291 0)
(0.696668 -0.00376919 0)
(0.702181 -0.00440721 0)
(0.706674 -0.00450771 0)
(0.71079 -0.00393694 0)
(0.716218 -0.00308972 0)
(0.723663 -0.0022198 0)
(0.733125 -0.00167413 0)
(0.74327 -0.00151857 0)
(0.752476 -0.00165691 0)
(0.760443 -0.00206745 0)
(0.76791 -0.0032631 0)
(0.774853 -0.00565844 0)
(0.780388 -0.00826837 0)
(0.784546 -0.00976809 0)
(0.788502 -0.0103242 0)
(0.793776 -0.00985441 0)
(0.801212 -0.00838471 0)
(0.810811 -0.00601429 0)
(0.820248 -0.00302047 0)
(0.827892 2.79417e-05 0)
(0.834267 0.00208502 0)
(0.840602 0.00301201 0)
(0.847889 0.00328098 0)
(0.857448 0.00315461 0)
(0.869665 0.00240037 0)
(0.882509 0.000182637 0)
(0.892959 -0.00301917 0)
(0.900493 -0.00562764 0)
(0.905467 -0.00718302 0)
(0.908017 -0.00813035 0)
(0.907536 -0.00845313 0)
(0.906759 -0.00745295 0)
(0.908949 -0.00574776 0)
(0.913259 -0.00397374 0)
(0.919903 -0.00167749 0)
(0.929215 0.000353406 0)
(0.941125 0.00114255 0)
(0.953585 0.000914273 0)
(0.964158 -0.000192338 0)
(0.972627 -0.00276901 0)
(0.980129 -0.00601755 0)
(0.986697 -0.00854523 0)
(0.989964 -0.00943403 0)
(0.988133 -0.0082824 0)
(0.984618 -0.00488995 0)
(0.984586 -0.000219706 0)
(0.986916 0.00334677 0)
(0.991701 0.00515196 0)
(0.999539 0.00550199 0)
(1.01031 0.00477674 0)
(1.02217 0.00231271 0)
(1.03376 -0.0024496 0)
(1.04386 -0.00640962 0)
(1.04999 -0.00745792 0)
(1.05161 -0.00594309 0)
(1.05221 -0.00232879 0)
(1.05608 0.000310485 0)
(1.06423 0.00203132 0)
(1.07618 0.00182566 0)
(1.08801 -0.000445682 0)
(1.09742 -0.00442051 0)
(1.10485 -0.00729009 0)
(1.10872 -0.00805385 0)
(1.10635 -0.00679162 0)
(1.10135 -0.00263684 0)
(1.10203 0.00199942 0)
(1.10692 0.00418632 0)
(1.11637 0.00517642 0)
(1.13203 0.0047034 0)
(1.15009 0.000985706 0)
(1.16683 -0.00507513 0)
(1.17797 -0.00981492 0)
(1.18485 -0.0119254 0)
(1.18823 -0.0124837 0)
(1.18524 -0.0109138 0)
(1.18264 -0.00742523 0)
(1.18431 -0.00318411 0)
(1.18743 0.000519431 0)
(1.191 0.00300203 0)
(1.19493 0.00409301 0)
(1.19919 0.0044325 0)
(1.2045 0.00443437 0)
(1.21116 0.00370536 0)
(1.21937 0.00127642 0)
(1.229 -0.00285544 0)
(1.23801 -0.00668025 0)
(1.24478 -0.00841408 0)
(1.24889 -0.0081685 0)
(1.24868 -0.00523718 0)
(1.25062 -0.00139158 0)
(1.25536 0.000676414 0)
(1.26334 0.00170493 0)
(1.27588 0.0012009 0)
(1.2888 -0.000912018 0)
(1.29891 -0.00374982 0)
(1.30631 -0.00537891 0)
(1.31132 -0.00556382 0)
(1.31109 -0.00398436 0)
(1.30764 -0.000503746 0)
(1.30625 0.00380815 0)
(1.30808 0.00657902 0)
(1.31146 0.00758188 0)
(1.3169 0.00814038 0)
(1.32506 0.00810357 0)
(1.33408 0.00665349 0)
(1.3428 0.00336923 0)
(1.3518 -0.0014253 0)
(1.36138 -0.00639101 0)
(1.37134 -0.0104898 0)
(1.38056 -0.0130548 0)
(1.38728 -0.0136682 0)
(1.3915 -0.0120986 0)
(1.39114 -0.007997 0)
(1.38849 -0.00238207 0)
(1.38369 0.00374581 0)
(1.37912 0.00788589 0)
(1.37691 0.00969052 0)
(1.37577 0.0103984 0)
(1.37821 0.0101168 0)
(0.664547 -0.0189992 0)
(0.665852 -0.0144754 0)
(0.666027 -0.00876815 0)
(0.66605 -0.00291067 0)
(0.667078 0.00218186 0)
(0.669487 0.00607429 0)
(0.673455 0.00808358 0)
(0.678827 0.00808446 0)
(0.685905 0.00625269 0)
(0.693983 0.00287705 0)
(0.701865 -0.00249856 0)
(0.708445 -0.00801534 0)
(0.714072 -0.0114701 0)
(0.719908 -0.01232 0)
(0.726606 -0.0109672 0)
(0.734676 -0.00825454 0)
(0.743986 -0.00520617 0)
(0.753395 -0.00280969 0)
(0.761656 -0.00134385 0)
(0.768161 -0.00148939 0)
(0.772533 -0.00377136 0)
(0.776367 -0.00847149 0)
(0.78118 -0.0156766 0)
(0.787457 -0.0234431 0)
(0.795099 -0.0285545 0)
(0.803441 -0.0300486 0)
(0.812852 -0.0279011 0)
(0.822883 -0.0232589 0)
(0.832083 -0.0170167 0)
(0.839334 -0.00967427 0)
(0.844805 -0.00205447 0)
(0.850034 0.00443738 0)
(0.856478 0.00866725 0)
(0.864553 0.0104134 0)
(0.874915 0.00966928 0)
(0.886399 0.00730422 0)
(0.895497 0.00342775 0)
(0.90163 -0.00234934 0)
(0.904784 -0.00921838 0)
(0.907032 -0.0160689 0)
(0.909287 -0.0210926 0)
(0.912405 -0.0230136 0)
(0.916513 -0.021508 0)
(0.922335 -0.0173396 0)
(0.930205 -0.0114591 0)
(0.93997 -0.00466172 0)
(0.9503 0.00139382 0)
(0.95984 0.00455557 0)
(0.967879 0.00430755 0)
(0.974623 0.00212504 0)
(0.979668 -0.00232771 0)
(0.983259 -0.0104703 0)
(0.986946 -0.0198911 0)
(0.990577 -0.0254614 0)
(0.994158 -0.0238369 0)
(0.997665 -0.0163502 0)
(1.00101 -0.00634416 0)
(1.00506 0.00395014 0)
(1.01089 0.0118555 0)
(1.01792 0.014739 0)
(1.02629 0.0127767 0)
(1.03457 0.00725913 0)
(1.04154 -0.00285678 0)
(1.04878 -0.0142511 0)
(1.05617 -0.0192004 0)
(1.06213 -0.0158712 0)
(1.06828 -0.00687229 0)
(1.07526 0.00235381 0)
(1.08309 0.00687031 0)
(1.09117 0.00617474 0)
(1.0982 0.00185736 0)
(1.10238 -0.0065908 0)
(1.10544 -0.0166518 0)
(1.10873 -0.0217137 0)
(1.112 -0.0182806 0)
(1.11453 -0.00849813 0)
(1.11918 0.00254492 0)
(1.1275 0.0116485 0)
(1.13901 0.0159964 0)
(1.15264 0.0153105 0)
(1.16308 0.00865676 0)
(1.1712 -0.00342962 0)
(1.17816 -0.0168124 0)
(1.18289 -0.0270475 0)
(1.18667 -0.03099 0)
(1.19055 -0.0279042 0)
(1.19366 -0.0208298 0)
(1.1969 -0.0127967 0)
(1.19986 -0.0044007 0)
(1.20249 0.00341608 0)
(1.20562 0.00913774 0)
(1.20964 0.0120961 0)
(1.2147 0.0124536 0)
(1.22121 0.0107564 0)
(1.22789 0.0064684 0)
(1.23433 -0.00139666 0)
(1.24122 -0.0115023 0)
(1.24813 -0.0196214 0)
(1.25382 -0.0208997 0)
(1.25929 -0.0155558 0)
(1.26491 -0.00652273 0)
(1.27196 0.00145887 0)
(1.28008 0.00501554 0)
(1.28903 0.00336886 0)
(1.2971 -0.00148612 0)
(1.30337 -0.00858201 0)
(1.30865 -0.0152702 0)
(1.31259 -0.0182164 0)
(1.31596 -0.0152377 0)
(1.31787 -0.0074525 0)
(1.31961 0.00231988 0)
(1.32252 0.0116907 0)
(1.3269 0.0188746 0)
(1.33267 0.0225743 0)
(1.33944 0.0228239 0)
(1.34587 0.0201476 0)
(1.35195 0.0148809 0)
(1.35838 0.00687113 0)
(1.36618 -0.00382314 0)
(1.37569 -0.0164169 0)
(1.38603 -0.0277606 0)
(1.39383 -0.0336773 0)
(1.39849 -0.0334321 0)
(1.40107 -0.0270933 0)
(1.39999 -0.0157495 0)
(1.39543 -0.000323686 0)
(1.38947 0.0152206 0)
(1.38549 0.0255008 0)
(1.38467 0.0294337 0)
(0.693863 -0.023831 0)
(0.695575 -0.0243221 0)
(0.696701 -0.0227398 0)
(0.697051 -0.0184155 0)
(0.697921 -0.0125972 0)
(0.699975 -0.006451 0)
(0.703071 -0.000587511 0)
(0.707206 0.00395183 0)
(0.712283 0.00610141 0)
(0.718109 0.00526822 0)
(0.724098 0.00251897 0)
(0.730558 -0.00126425 0)
(0.738012 -0.00565053 0)
(0.746054 -0.00976544 0)
(0.75437 -0.0122459 0)
(0.763063 -0.0132791 0)
(0.772119 -0.0134991 0)
(0.780943 -0.0134283 0)
(0.788785 -0.0136266 0)
(0.794418 -0.0143938 0)
(0.798061 -0.0155417 0)
(0.801417 -0.0180575 0)
(0.805547 -0.0216185 0)
(0.81189 -0.0255874 0)
(0.820669 -0.0293384 0)
(0.829988 -0.0312028 0)
(0.839721 -0.0316137 0)
(0.848963 -0.0308596 0)
(0.85712 -0.028903 0)
(0.864467 -0.0252715 0)
(0.870797 -0.0193666 0)
(0.876447 -0.0115513 0)
(0.881988 -0.00363859 0)
(0.888056 0.0023113 0)
(0.894835 0.00492965 0)
(0.902149 0.00341155 0)
(0.909167 -0.00162828 0)
(0.914745 -0.00789411 0)
(0.919012 -0.0139504 0)
(0.923052 -0.0188813 0)
(0.927746 -0.0217628 0)
(0.932462 -0.0224291 0)
(0.937413 -0.0221157 0)
(0.943826 -0.0206664 0)
(0.951989 -0.0178193 0)
(0.961526 -0.0137553 0)
(0.970827 -0.00907189 0)
(0.978618 -0.00507138 0)
(0.983958 -0.00305222 0)
(0.987985 -0.00357554 0)
(0.99076 -0.00745514 0)
(0.993445 -0.0128275 0)
(0.998217 -0.0181159 0)
(1.00577 -0.0229944 0)
(1.01398 -0.0252888 0)
(1.02053 -0.0236282 0)
(1.02617 -0.0178578 0)
(1.03127 -0.00862786 0)
(1.03454 0.000956292 0)
(1.03593 0.00784013 0)
(1.03779 0.00943103 0)
(1.04085 0.005262 0)
(1.04602 -0.00245577 0)
(1.0545 -0.011119 0)
(1.06769 -0.0190253 0)
(1.08116 -0.0217611 0)
(1.09116 -0.0173841 0)
(1.09797 -0.00911112 0)
(1.10115 -0.00148997 0)
(1.10245 0.00201351 0)
(1.1038 -0.00119688 0)
(1.10586 -0.00896931 0)
(1.11099 -0.0169797 0)
(1.11883 -0.0233274 0)
(1.12702 -0.0253706 0)
(1.13423 -0.020927 0)
(1.14163 -0.0101781 0)
(1.14788 0.00222662 0)
(1.15241 0.0106812 0)
(1.15723 0.0113823 0)
(1.16222 0.00595492 0)
(1.16899 -0.00328143 0)
(1.17654 -0.0143616 0)
(1.18567 -0.0247964 0)
(1.19421 -0.0304494 0)
(1.20029 -0.0313462 0)
(1.20518 -0.029148 0)
(1.2101 -0.0244786 0)
(1.21441 -0.0183326 0)
(1.21791 -0.0111514 0)
(1.22048 -0.00322361 0)
(1.2223 0.00397079 0)
(1.224 0.00889313 0)
(1.22681 0.00981022 0)
(1.23056 0.00718424 0)
(1.23543 0.00138966 0)
(1.24178 -0.00598872 0)
(1.25086 -0.0136614 0)
(1.2628 -0.0199013 0)
(1.2729 -0.0204784 0)
(1.28111 -0.0155493 0)
(1.28797 -0.00805542 0)
(1.29257 -0.00144361 0)
(1.296 0.00193669 0)
(1.30014 0.000642535 0)
(1.30499 -0.00488935 0)
(1.31182 -0.0117919 0)
(1.32058 -0.0166322 0)
(1.32777 -0.0180061 0)
(1.33319 -0.0154276 0)
(1.33858 -0.0079591 0)
(1.34309 0.00250542 0)
(1.34541 0.0126348 0)
(1.34582 0.0196627 0)
(1.34679 0.021165 0)
(1.34981 0.0183992 0)
(1.35365 0.0133906 0)
(1.35924 0.00724093 0)
(1.36662 4.65274e-05 0)
(1.37584 -0.00843753 0)
(1.38806 -0.0171122 0)
(1.40143 -0.0261066 0)
(1.41139 -0.0325732 0)
(1.41741 -0.0335248 0)
(1.4208 -0.0293622 0)
(1.42178 -0.018829 0)
(1.41861 -0.00312917 0)
(1.41119 0.0144319 0)
(1.40297 0.0302639 0)
(0.750545 -0.0217806 0)
(0.752333 -0.0208829 0)
(0.753534 -0.0198936 0)
(0.753899 -0.0183884 0)
(0.754029 -0.0165253 0)
(0.75537 -0.0149402 0)
(0.75793 -0.0136266 0)
(0.761349 -0.0122136 0)
(0.765675 -0.0109068 0)
(0.771025 -0.00944242 0)
(0.777346 -0.00782902 0)
(0.784468 -0.00625271 0)
(0.792019 -0.00489688 0)
(0.799767 -0.00407564 0)
(0.808051 -0.00427754 0)
(0.816808 -0.00550409 0)
(0.825696 -0.00804983 0)
(0.833807 -0.0123659 0)
(0.840722 -0.0184706 0)
(0.845888 -0.0251462 0)
(0.850175 -0.0304727 0)
(0.854098 -0.0332806 0)
(0.85795 -0.0333618 0)
(0.863249 -0.031185 0)
(0.870599 -0.0276208 0)
(0.878609 -0.0242662 0)
(0.886739 -0.0218382 0)
(0.894466 -0.0204081 0)
(0.90202 -0.020451 0)
(0.909733 -0.0211922 0)
(0.917425 -0.0211929 0)
(0.924352 -0.0190817 0)
(0.929682 -0.0149535 0)
(0.934175 -0.0100318 0)
(0.93797 -0.00605069 0)
(0.941206 -0.00446477 0)
(0.94454 -0.00577513 0)
(0.948752 -0.0104331 0)
(0.953996 -0.0157513 0)
(0.9599 -0.019535 0)
(0.965886 -0.0210707 0)
(0.971425 -0.020527 0)
(0.976594 -0.0184075 0)
(0.982635 -0.0153664 0)
(0.990067 -0.0122082 0)
(0.998263 -0.0101461 0)
(1.00581 -0.0103308 0)
(1.01137 -0.0122812 0)
(1.01533 -0.0146982 0)
(1.0185 -0.0166482 0)
(1.02103 -0.0168968 0)
(1.02416 -0.0155606 0)
(1.02893 -0.0130754 0)
(1.03545 -0.0106471 0)
(1.0434 -0.00987508 0)
(1.05195 -0.00961458 0)
(1.05928 -0.00931709 0)
(1.0645 -0.00910013 0)
(1.06751 -0.00863518 0)
(1.06832 -0.00688106 0)
(1.06665 -0.00398291 0)
(1.06582 -0.00114868 0)
(1.06898 -7.22599e-05 0)
(1.07604 -0.00161003 0)
(1.08922 -0.0063497 0)
(1.10718 -0.0109349 0)
(1.12124 -0.0130351 0)
(1.12847 -0.0129959 0)
(1.13176 -0.0113622 0)
(1.1308 -0.00756655 0)
(1.12518 -0.00419962 0)
(1.12361 -0.00444903 0)
(1.12727 -0.00663325 0)
(1.13455 -0.0111705 0)
(1.14644 -0.015168 0)
(1.15919 -0.0154383 0)
(1.16806 -0.0125707 0)
(1.17343 -0.0089978 0)
(1.17561 -0.0038632 0)
(1.1735 0.00179371 0)
(1.17302 0.00292794 0)
(1.17639 0.000180076 0)
(1.182 -0.00447407 0)
(1.19116 -0.0100975 0)
(1.20384 -0.016255 0)
(1.21483 -0.020113 0)
(1.2221 -0.0212866 0)
(1.22735 -0.0218159 0)
(1.23179 -0.0220563 0)
(1.23584 -0.0216021 0)
(1.23956 -0.0197988 0)
(1.24283 -0.0162901 0)
(1.24521 -0.0111053 0)
(1.24601 -0.00456614 0)
(1.24606 0.00159654 0)
(1.24795 0.00508942 0)
(1.25233 0.00555036 0)
(1.25982 0.00309846 0)
(1.27293 -0.00236795 0)
(1.28861 -0.00791328 0)
(1.30019 -0.0117412 0)
(1.30684 -0.0139124 0)
(1.31156 -0.014274 0)
(1.31502 -0.012729 0)
(1.3174 -0.0097299 0)
(1.32162 -0.0069937 0)
(1.3271 -0.00543238 0)
(1.33449 -0.00566733 0)
(1.34386 -0.0067505 0)
(1.3528 -0.00664928 0)
(1.35972 -0.005834 0)
(1.36486 -0.00483992 0)
(1.36826 -0.00263992 0)
(1.36828 0.00122224 0)
(1.36667 0.00633627 0)
(1.36609 0.011245 0)
(1.36801 0.0143143 0)
(1.37193 0.0151784 0)
(1.37733 0.0142741 0)
(1.38648 0.0119481 0)
(1.39874 0.00705733 0)
(1.41165 -0.00056836 0)
(1.42513 -0.00920466 0)
(1.43722 -0.0170119 0)
(1.44536 -0.0225844 0)
(1.44945 -0.0246192 0)
(1.4512 -0.0226886 0)
(1.45006 -0.0144161 0)
(1.44018 0.00471221 0)
(0.827747 -0.020475 0)
(0.829707 -0.0195893 0)
(0.831221 -0.0182054 0)
(0.832011 -0.0160999 0)
(0.832139 -0.0134816 0)
(0.832817 -0.011402 0)
(0.834791 -0.0107338 0)
(0.837454 -0.0108268 0)
(0.841296 -0.0113215 0)
(0.846609 -0.0121035 0)
(0.852946 -0.0129926 0)
(0.859883 -0.0136875 0)
(0.867175 -0.0139095 0)
(0.874896 -0.0136699 0)
(0.882852 -0.0133454 0)
(0.890272 -0.0139419 0)
(0.896814 -0.0164839 0)
(0.902238 -0.0212281 0)
(0.906934 -0.0275622 0)
(0.911441 -0.0338278 0)
(0.915996 -0.038248 0)
(0.920381 -0.0398767 0)
(0.924565 -0.0387351 0)
(0.929672 -0.0351413 0)
(0.935803 -0.0304506 0)
(0.942391 -0.0264854 0)
(0.948657 -0.024067 0)
(0.954606 -0.0232457 0)
(0.960795 -0.0235415 0)
(0.967758 -0.0244758 0)
(0.975585 -0.0256436 0)
(0.983333 -0.0261786 0)
(0.989563 -0.0251593 0)
(0.993726 -0.0230833 0)
(0.996513 -0.0202966 0)
(0.997633 -0.0174057 0)
(0.998203 -0.0155751 0)
(1.0002 -0.0156361 0)
(1.00348 -0.0172371 0)
(1.00843 -0.0199943 0)
(1.01442 -0.0228628 0)
(1.02092 -0.024726 0)
(1.02778 -0.0245568 0)
(1.03472 -0.0217609 0)
(1.04153 -0.0173983 0)
(1.04716 -0.0143092 0)
(1.05098 -0.013997 0)
(1.05396 -0.0165675 0)
(1.05673 -0.0210556 0)
(1.06029 -0.0247435 0)
(1.06465 -0.0262833 0)
(1.06983 -0.0247869 0)
(1.07602 -0.0195101 0)
(1.08241 -0.0124183 0)
(1.08884 -0.0065434 0)
(1.09483 -0.00401688 0)
(1.09942 -0.00519882 0)
(1.10222 -0.00931583 0)
(1.10372 -0.0156797 0)
(1.10412 -0.0218419 0)
(1.10473 -0.024995 0)
(1.1075 -0.0242797 0)
(1.11208 -0.0203371 0)
(1.11976 -0.0133585 0)
(1.13086 -0.00629862 0)
(1.14458 -0.00410454 0)
(1.15623 -0.00834672 0)
(1.16312 -0.015064 0)
(1.16605 -0.0204915 0)
(1.16558 -0.0242105 0)
(1.16232 -0.0236755 0)
(1.1604 -0.0187582 0)
(1.16251 -0.0137652 0)
(1.16787 -0.00997733 0)
(1.17678 -0.00835202 0)
(1.1879 -0.0106432 0)
(1.19563 -0.0151017 0)
(1.19995 -0.0185549 0)
(1.2024 -0.0201636 0)
(1.202 -0.018851 0)
(1.20015 -0.013664 0)
(1.2009 -0.00788235 0)
(1.20557 -0.00476567 0)
(1.21326 -0.00369018 0)
(1.22495 -0.00553665 0)
(1.23775 -0.00913419 0)
(1.24656 -0.0122459 0)
(1.25196 -0.0146563 0)
(1.25629 -0.0172983 0)
(1.2603 -0.0205395 0)
(1.26399 -0.0240956 0)
(1.26737 -0.0273857 0)
(1.27057 -0.0294124 0)
(1.27387 -0.0289447 0)
(1.27694 -0.0247997 0)
(1.28 -0.0171366 0)
(1.28466 -0.00836964 0)
(1.29213 -0.000552481 0)
(1.30228 0.00490874 0)
(1.31404 0.00463764 0)
(1.32444 -0.000997933 0)
(1.3323 -0.00828639 0)
(1.33828 -0.0148091 0)
(1.34295 -0.0193732 0)
(1.34765 -0.0206935 0)
(1.3528 -0.019051 0)
(1.35894 -0.0149181 0)
(1.36652 -0.0103866 0)
(1.37466 -0.00749115 0)
(1.38175 -0.00752073 0)
(1.38698 -0.0095046 0)
(1.39089 -0.01299 0)
(1.3931 -0.017337 0)
(1.39409 -0.020469 0)
(1.39524 -0.0204775 0)
(1.39759 -0.0171689 0)
(1.40141 -0.0113258 0)
(1.40679 -0.00407389 0)
(1.414 0.00363334 0)
(1.42322 0.0102351 0)
(1.43295 0.0137385 0)
(1.44287 0.0133783 0)
(1.45365 0.00834457 0)
(1.46483 -0.0015054 0)
(1.47441 -0.0131038 0)
(1.48122 -0.0237223 0)
(1.4856 -0.0312935 0)
(1.48737 -0.0349316 0)
(1.48587 -0.0294689 0)
(0.907695 -0.0232582 0)
(0.909572 -0.0233779 0)
(0.911172 -0.0232588 0)
(0.912511 -0.0225189 0)
(0.913566 -0.0203635 0)
(0.914651 -0.0172927 0)
(0.91642 -0.0146836 0)
(0.919193 -0.0131893 0)
(0.922694 -0.0124059 0)
(0.927271 -0.0121929 0)
(0.932881 -0.0125282 0)
(0.939145 -0.0129725 0)
(0.945922 -0.0130752 0)
(0.952812 -0.0131754 0)
(0.958982 -0.0144146 0)
(0.963409 -0.0173778 0)
(0.96626 -0.0221886 0)
(0.968577 -0.0285026 0)
(0.971455 -0.0345676 0)
(0.975443 -0.0390842 0)
(0.980378 -0.0416145 0)
(0.985573 -0.0416532 0)
(0.990558 -0.0391274 0)
(0.995171 -0.0347127 0)
(0.999481 -0.0297918 0)
(1.00347 -0.0256487 0)
(1.00743 -0.0229534 0)
(1.01166 -0.0216455 0)
(1.01667 -0.0216638 0)
(1.02315 -0.0230264 0)
(1.03095 -0.0252871 0)
(1.03958 -0.0275735 0)
(1.04693 -0.0288393 0)
(1.05177 -0.0287135 0)
(1.05481 -0.0276429 0)
(1.05601 -0.0247107 0)
(1.05497 -0.0200875 0)
(1.05349 -0.0155836 0)
(1.05439 -0.0132793 0)
(1.05707 -0.0128964 0)
(1.06168 -0.0134774 0)
(1.06804 -0.0150694 0)
(1.07603 -0.0168789 0)
(1.08452 -0.0179272 0)
(1.09111 -0.0184529 0)
(1.09487 -0.0191031 0)
(1.09669 -0.0207947 0)
(1.09751 -0.0232403 0)
(1.09986 -0.0255343 0)
(1.10364 -0.0268574 0)
(1.10959 -0.0265738 0)
(1.11765 -0.0228418 0)
(1.12563 -0.0160125 0)
(1.13175 -0.0082906 0)
(1.13579 -0.00162237 0)
(1.13786 0.00236149 0)
(1.13931 0.00191808 0)
(1.13997 -0.00326308 0)
(1.14072 -0.0107287 0)
(1.14328 -0.0174602 0)
(1.14786 -0.0220722 0)
(1.15392 -0.0236938 0)
(1.16123 -0.0210858 0)
(1.16955 -0.0143628 0)
(1.17827 -0.00748427 0)
(1.18607 -0.00509686 0)
(1.19172 -0.00781446 0)
(1.19688 -0.0144931 0)
(1.20098 -0.0218159 0)
(1.20344 -0.0259819 0)
(1.20522 -0.0255466 0)
(1.20552 -0.0201082 0)
(1.20606 -0.0117959 0)
(1.20892 -0.00451854 0)
(1.21373 -0.00122314 0)
(1.21941 -0.00299555 0)
(1.22533 -0.0088909 0)
(1.23066 -0.0159748 0)
(1.23421 -0.0217839 0)
(1.23646 -0.0246161 0)
(1.23818 -0.0235332 0)
(1.23977 -0.0183976 0)
(1.24317 -0.0120539 0)
(1.24891 -0.00688967 0)
(1.25697 -0.00441055 0)
(1.26712 -0.00586743 0)
(1.2773 -0.00898386 0)
(1.28435 -0.0108146 0)
(1.2885 -0.0119 0)
(1.29196 -0.0137261 0)
(1.29548 -0.0169729 0)
(1.29954 -0.0210439 0)
(1.30456 -0.02516 0)
(1.31058 -0.0287126 0)
(1.31711 -0.0302252 0)
(1.32359 -0.0279979 0)
(1.33059 -0.020458 0)
(1.33794 -0.00943961 0)
(1.34529 0.00032734 0)
(1.35185 0.00520165 0)
(1.35718 0.0050827 0)
(1.36333 0.0005091 0)
(1.37045 -0.00608083 0)
(1.37807 -0.0117406 0)
(1.38576 -0.0151141 0)
(1.39332 -0.0156826 0)
(1.40091 -0.0137321 0)
(1.40813 -0.0107342 0)
(1.41424 -0.00864194 0)
(1.41961 -0.0082737 0)
(1.42401 -0.00995653 0)
(1.427 -0.0139155 0)
(1.42954 -0.0184052 0)
(1.43313 -0.0216849 0)
(1.43821 -0.0225546 0)
(1.44383 -0.0200916 0)
(1.45005 -0.0127343 0)
(1.45659 -0.00256712 0)
(1.46298 0.00788242 0)
(1.46906 0.0162145 0)
(1.47525 0.0207086 0)
(1.48156 0.0210717 0)
(1.48877 0.0174081 0)
(1.49723 0.00978309 0)
(1.50688 -0.000519824 0)
(1.51679 -0.0112668 0)
(1.52606 -0.0203181 0)
(1.5346 -0.0267183 0)
(1.5397 -0.0273624 0)
(0.972481 -0.0158304 0)
(0.974544 -0.016276 0)
(0.976239 -0.0172314 0)
(0.977572 -0.0186063 0)
(0.978793 -0.0202012 0)
(0.980128 -0.0211426 0)
(0.982297 -0.0214877 0)
(0.985418 -0.0213345 0)
(0.989322 -0.0202617 0)
(0.993955 -0.0183038 0)
(0.998801 -0.0160098 0)
(1.00401 -0.0146307 0)
(1.00966 -0.0143212 0)
(1.01486 -0.0155397 0)
(1.01825 -0.0185272 0)
(1.01983 -0.0232872 0)
(1.01993 -0.028869 0)
(1.02027 -0.0340774 0)
(1.02205 -0.0380044 0)
(1.02548 -0.0410218 0)
(1.03072 -0.043023 0)
(1.03709 -0.0427461 0)
(1.04264 -0.0399374 0)
(1.04662 -0.0358584 0)
(1.04917 -0.0317135 0)
(1.05055 -0.0283855 0)
(1.05176 -0.0270543 0)
(1.05393 -0.027722 0)
(1.05717 -0.0295689 0)
(1.06255 -0.0318456 0)
(1.07035 -0.0337756 0)
(1.07998 -0.0345999 0)
(1.08861 -0.0346083 0)
(1.09437 -0.0340099 0)
(1.09799 -0.0326262 0)
(1.09996 -0.0305201 0)
(1.09998 -0.0264621 0)
(1.09794 -0.0206047 0)
(1.09583 -0.0150108 0)
(1.09649 -0.0119073 0)
(1.09932 -0.0113978 0)
(1.10401 -0.012335 0)
(1.11073 -0.0153982 0)
(1.11842 -0.0209167 0)
(1.12485 -0.0272183 0)
(1.12855 -0.0315274 0)
(1.13064 -0.0330136 0)
(1.13219 -0.0321152 0)
(1.13515 -0.0295661 0)
(1.14008 -0.025198 0)
(1.14768 -0.0195253 0)
(1.15748 -0.0139401 0)
(1.16549 -0.0104741 0)
(1.17037 -0.00919407 0)
(1.17341 -0.00896903 0)
(1.17354 -0.00952077 0)
(1.17065 -0.011485 0)
(1.1689 -0.0148634 0)
(1.17089 -0.0184042 0)
(1.17498 -0.0208749 0)
(1.18119 -0.022694 0)
(1.19029 -0.022398 0)
(1.20158 -0.0191577 0)
(1.21116 -0.0150594 0)
(1.21671 -0.0125345 0)
(1.21988 -0.0117742 0)
(1.22203 -0.0133333 0)
(1.22464 -0.0180201 0)
(1.22909 -0.0238094 0)
(1.23549 -0.0286504 0)
(1.24173 -0.0301298 0)
(1.24566 -0.0276795 0)
(1.24847 -0.0207743 0)
(1.24959 -0.0131691 0)
(1.24972 -0.00796369 0)
(1.25147 -0.00688138 0)
(1.25477 -0.00909641 0)
(1.25923 -0.0141672 0)
(1.26447 -0.0196043 0)
(1.26981 -0.0235751 0)
(1.27468 -0.0252346 0)
(1.279 -0.0244445 0)
(1.28352 -0.0210339 0)
(1.28865 -0.0169409 0)
(1.29487 -0.0136526 0)
(1.30261 -0.0116228 0)
(1.31199 -0.0108567 0)
(1.32018 -0.0107845 0)
(1.32485 -0.0113833 0)
(1.32829 -0.0124526 0)
(1.33169 -0.0146727 0)
(1.33566 -0.0176835 0)
(1.34056 -0.0216123 0)
(1.34699 -0.0261082 0)
(1.35544 -0.0298998 0)
(1.36574 -0.0312164 0)
(1.37654 -0.0287152 0)
(1.38517 -0.023249 0)
(1.39104 -0.0174837 0)
(1.39479 -0.0119826 0)
(1.39727 -0.00774713 0)
(1.40128 -0.00615569 0)
(1.40671 -0.00682287 0)
(1.41433 -0.00912012 0)
(1.42371 -0.0115954 0)
(1.43309 -0.0133575 0)
(1.44131 -0.0147971 0)
(1.44746 -0.0169808 0)
(1.45249 -0.019841 0)
(1.45674 -0.0237391 0)
(1.45985 -0.0280415 0)
(1.4631 -0.0316038 0)
(1.46788 -0.0334449 0)
(1.4736 -0.033262 0)
(1.48121 -0.0298647 0)
(1.49077 -0.0230645 0)
(1.4999 -0.0142985 0)
(1.50699 -0.00578079 0)
(1.51195 0.00148524 0)
(1.51459 0.0074257 0)
(1.51557 0.0100754 0)
(1.51784 0.00855532 0)
(1.52288 0.00456953 0)
(1.52972 -0.00106056 0)
(1.53872 -0.00819959 0)
(1.55054 -0.0160182 0)
(1.56354 -0.0223776 0)
(1.57498 -0.0261931 0)
(1.58536 -0.0246876 0)
(1.01285 -0.0212036 0)
(1.0152 -0.0223901 0)
(1.01678 -0.0237361 0)
(1.01812 -0.0251932 0)
(1.01995 -0.0256083 0)
(1.02226 -0.0243725 0)
(1.02522 -0.0207692 0)
(1.02919 -0.016117 0)
(1.03388 -0.0118162 0)
(1.03843 -0.00908322 0)
(1.04215 -0.00849259 0)
(1.04549 -0.010704 0)
(1.04937 -0.0165453 0)
(1.0525 -0.0234422 0)
(1.05405 -0.0292523 0)
(1.05436 -0.0340565 0)
(1.05376 -0.037577 0)
(1.05365 -0.0401635 0)
(1.05496 -0.0417941 0)
(1.0578 -0.0424344 0)
(1.06301 -0.0416514 0)
(1.0702 -0.0391571 0)
(1.07579 -0.0360733 0)
(1.07871 -0.0339161 0)
(1.08009 -0.0326919 0)
(1.07987 -0.0320091 0)
(1.07877 -0.0321981 0)
(1.07919 -0.0321015 0)
(1.08159 -0.0316747 0)
(1.08599 -0.0299153 0)
(1.09346 -0.0264765 0)
(1.10313 -0.0223592 0)
(1.11133 -0.0198872 0)
(1.11706 -0.0198605 0)
(1.12152 -0.0211926 0)
(1.125 -0.0225233 0)
(1.12697 -0.023896 0)
(1.12628 -0.0246521 0)
(1.12395 -0.0230275 0)
(1.12171 -0.0206377 0)
(1.12175 -0.0197323 0)
(1.12446 -0.0204962 0)
(1.1286 -0.0228114 0)
(1.13444 -0.026897 0)
(1.14111 -0.0315375 0)
(1.14784 -0.0347724 0)
(1.15318 -0.0343264 0)
(1.15655 -0.0293544 0)
(1.16034 -0.0207787 0)
(1.16603 -0.0127926 0)
(1.1736 -0.00811566 0)
(1.18088 -0.00823963 0)
(1.18671 -0.0114647 0)
(1.19113 -0.0157985 0)
(1.19403 -0.0202018 0)
(1.19464 -0.0236882 0)
(1.19321 -0.0241098 0)
(1.19179 -0.0207958 0)
(1.19272 -0.0160593 0)
(1.19629 -0.012266 0)
(1.20248 -0.00865785 0)
(1.21281 -0.00588688 0)
(1.22467 -0.00605219 0)
(1.23351 -0.00931684 0)
(1.23935 -0.0138394 0)
(1.24232 -0.0181541 0)
(1.2432 -0.0224686 0)
(1.24563 -0.0250873 0)
(1.24992 -0.0269124 0)
(1.25726 -0.0295016 0)
(1.26728 -0.0312484 0)
(1.27593 -0.0302356 0)
(1.28082 -0.0270236 0)
(1.28328 -0.0219382 0)
(1.28279 -0.0149143 0)
(1.28064 -0.00834467 0)
(1.28096 -0.00532374 0)
(1.28393 -0.00549728 0)
(1.28891 -0.0081762 0)
(1.29622 -0.013138 0)
(1.30414 -0.0190739 0)
(1.31151 -0.0243544 0)
(1.31848 -0.0274909 0)
(1.3256 -0.0280807 0)
(1.33316 -0.0257727 0)
(1.34141 -0.0206083 0)
(1.35027 -0.0145291 0)
(1.35656 -0.0101353 0)
(1.36065 -0.00832915 0)
(1.36353 -0.0082279 0)
(1.3661 -0.01032 0)
(1.36968 -0.0130635 0)
(1.37413 -0.0153324 0)
(1.38052 -0.0171819 0)
(1.39002 -0.0184161 0)
(1.40283 -0.0197437 0)
(1.41583 -0.0230125 0)
(1.42542 -0.0274984 0)
(1.43129 -0.0297028 0)
(1.43612 -0.0285901 0)
(1.43873 -0.0237893 0)
(1.44073 -0.0162106 0)
(1.44399 -0.0084431 0)
(1.4492 -0.00366823 0)
(1.45649 -0.00259717 0)
(1.46569 -0.00509309 0)
(1.4733 -0.0104998 0)
(1.47884 -0.0171933 0)
(1.48339 -0.0244794 0)
(1.48755 -0.0308256 0)
(1.49194 -0.0343317 0)
(1.49668 -0.0347223 0)
(1.50223 -0.0316479 0)
(1.50985 -0.0248807 0)
(1.51964 -0.0164921 0)
(1.53035 -0.00901908 0)
(1.53963 -0.00399551 0)
(1.54563 -0.00152735 0)
(1.55034 -0.000969145 0)
(1.55164 -0.00256096 0)
(1.55001 -0.00448976 0)
(1.54983 -0.00524285 0)
(1.55256 -0.00541206 0)
(1.55773 -0.00537548 0)
(1.56393 -0.0051288 0)
(1.57371 -0.00497357 0)
(1.58698 -0.00309535 0)
(1.60034 -0.00178317 0)
(1.61264 -0.00146959 0)
(1.032 -0.0200488 0)
(1.03496 -0.0197295 0)
(1.03639 -0.0197142 0)
(1.03829 -0.0196364 0)
(1.04094 -0.0184739 0)
(1.04487 -0.0159264 0)
(1.04964 -0.0130875 0)
(1.05414 -0.0117507 0)
(1.05763 -0.0125968 0)
(1.06019 -0.0160022 0)
(1.06132 -0.0217822 0)
(1.06189 -0.0281531 0)
(1.06449 -0.0333774 0)
(1.06835 -0.0377195 0)
(1.07119 -0.0405894 0)
(1.07265 -0.0416831 0)
(1.07296 -0.0413182 0)
(1.07252 -0.0394061 0)
(1.07322 -0.0368574 0)
(1.0754 -0.0338691 0)
(1.08017 -0.0313052 0)
(1.08632 -0.0309967 0)
(1.09071 -0.0326455 0)
(1.09315 -0.0343657 0)
(1.09387 -0.0366531 0)
(1.09261 -0.0387443 0)
(1.09188 -0.0383571 0)
(1.09331 -0.0356058 0)
(1.09637 -0.0305719 0)
(1.10144 -0.0242875 0)
(1.10919 -0.0186702 0)
(1.11656 -0.016825 0)
(1.12163 -0.0184191 0)
(1.12541 -0.0214591 0)
(1.12875 -0.0254567 0)
(1.13199 -0.0300915 0)
(1.13466 -0.0339213 0)
(1.13635 -0.0357095 0)
(1.13645 -0.0360716 0)
(1.13519 -0.0340372 0)
(1.13399 -0.0300595 0)
(1.13478 -0.0267834 0)
(1.13747 -0.0252373 0)
(1.14115 -0.024357 0)
(1.14646 -0.0245616 0)
(1.15424 -0.0251181 0)
(1.16414 -0.0253009 0)
(1.17331 -0.0239245 0)
(1.17905 -0.0203074 0)
(1.18261 -0.0169223 0)
(1.18544 -0.0152225 0)
(1.18867 -0.0155368 0)
(1.192 -0.0184952 0)
(1.19566 -0.0234632 0)
(1.19951 -0.0288473 0)
(1.20344 -0.0327624 0)
(1.20712 -0.0330452 0)
(1.21018 -0.0284782 0)
(1.21283 -0.0195034 0)
(1.21644 -0.0102993 0)
(1.22194 -0.0039593 0)
(1.22874 -0.00238209 0)
(1.23556 -0.0051511 0)
(1.2414 -0.0111858 0)
(1.24689 -0.0187647 0)
(1.25225 -0.0255623 0)
(1.25639 -0.0293156 0)
(1.26039 -0.0310238 0)
(1.26546 -0.0316511 0)
(1.2734 -0.0317876 0)
(1.28418 -0.0320434 0)
(1.29532 -0.0324602 0)
(1.30302 -0.0321053 0)
(1.30693 -0.0305754 0)
(1.3091 -0.0264545 0)
(1.30856 -0.0202922 0)
(1.30708 -0.0142359 0)
(1.30817 -0.0112861 0)
(1.31212 -0.0116375 0)
(1.31749 -0.015036 0)
(1.32529 -0.0206583 0)
(1.33489 -0.0263776 0)
(1.34513 -0.0310224 0)
(1.35585 -0.0335402 0)
(1.36721 -0.032843 0)
(1.37811 -0.029383 0)
(1.38564 -0.0249977 0)
(1.39082 -0.0216006 0)
(1.3943 -0.0179806 0)
(1.39537 -0.0142062 0)
(1.39582 -0.0111517 0)
(1.39855 -0.00982035 0)
(1.40291 -0.00976972 0)
(1.40947 -0.0105015 0)
(1.41905 -0.0129085 0)
(1.42983 -0.0177211 0)
(1.44011 -0.0243764 0)
(1.44993 -0.0317101 0)
(1.4593 -0.038082 0)
(1.46641 -0.0412045 0)
(1.47188 -0.0394678 0)
(1.47712 -0.0322446 0)
(1.48065 -0.0225759 0)
(1.48214 -0.0128328 0)
(1.48383 -0.00751569 0)
(1.48806 -0.00827036 0)
(1.4928 -0.0135367 0)
(1.49765 -0.0202807 0)
(1.50281 -0.0267509 0)
(1.50889 -0.0319946 0)
(1.51629 -0.0344195 0)
(1.52469 -0.0319711 0)
(1.53402 -0.0241715 0)
(1.5434 -0.0145467 0)
(1.55193 -0.00766443 0)
(1.55845 -0.00484685 0)
(1.56387 -0.00589032 0)
(1.5675 -0.0107823 0)
(1.56782 -0.017799 0)
(1.56735 -0.0241575 0)
(1.56859 -0.026488 0)
(1.57137 -0.0251941 0)
(1.57573 -0.0214635 0)
(1.58145 -0.0152034 0)
(1.58861 -0.00560336 0)
(1.59851 0.00475569 0)
(1.60992 0.0123157 0)
(1.62121 0.0139324 0)
(1.62691 0.00685369 0)
(1.0383 -0.0165208 0)
(1.04221 -0.0173913 0)
(1.04423 -0.0180316 0)
(1.04696 -0.0189312 0)
(1.05058 -0.019601 0)
(1.05495 -0.0199025 0)
(1.05914 -0.0204347 0)
(1.06231 -0.0215676 0)
(1.06402 -0.0240132 0)
(1.06416 -0.028615 0)
(1.06478 -0.0339368 0)
(1.06773 -0.0376537 0)
(1.07174 -0.0393445 0)
(1.07621 -0.039338 0)
(1.07985 -0.0387192 0)
(1.08182 -0.0375919 0)
(1.08263 -0.036039 0)
(1.08276 -0.0333867 0)
(1.08322 -0.0304227 0)
(1.08488 -0.0290555 0)
(1.08742 -0.0297893 0)
(1.09068 -0.0320972 0)
(1.09348 -0.03547 0)
(1.09532 -0.0389513 0)
(1.09627 -0.0414092 0)
(1.09762 -0.0416429 0)
(1.09968 -0.0385281 0)
(1.10286 -0.0327026 0)
(1.1072 -0.0259117 0)
(1.11235 -0.0196707 0)
(1.11708 -0.0166829 0)
(1.12036 -0.0163579 0)
(1.12307 -0.0177982 0)
(1.12559 -0.0217751 0)
(1.12785 -0.0275255 0)
(1.13041 -0.0339615 0)
(1.13361 -0.0396051 0)
(1.13705 -0.0428842 0)
(1.14008 -0.0428736 0)
(1.14227 -0.0398752 0)
(1.14296 -0.0339637 0)
(1.14234 -0.026724 0)
(1.14284 -0.0216518 0)
(1.14546 -0.0199125 0)
(1.14994 -0.0195779 0)
(1.15692 -0.0213817 0)
(1.16661 -0.0248438 0)
(1.17767 -0.0278524 0)
(1.18636 -0.0286776 0)
(1.19104 -0.0271232 0)
(1.19294 -0.0241303 0)
(1.19347 -0.0223892 0)
(1.19522 -0.0223853 0)
(1.19785 -0.0236594 0)
(1.20139 -0.025331 0)
(1.20715 -0.0264414 0)
(1.21481 -0.0267631 0)
(1.22257 -0.0261639 0)
(1.2283 -0.0244906 0)
(1.23224 -0.020678 0)
(1.23514 -0.0155279 0)
(1.23772 -0.0120519 0)
(1.24147 -0.0123503 0)
(1.24599 -0.0156676 0)
(1.25137 -0.020556 0)
(1.25774 -0.0258298 0)
(1.26483 -0.030394 0)
(1.27158 -0.0312795 0)
(1.27853 -0.0294171 0)
(1.28666 -0.0263074 0)
(1.2963 -0.0242802 0)
(1.30627 -0.0251316 0)
(1.31568 -0.0275858 0)
(1.32342 -0.0298631 0)
(1.32794 -0.0307565 0)
(1.33089 -0.0299207 0)
(1.33154 -0.0264304 0)
(1.3316 -0.0215256 0)
(1.33322 -0.0176612 0)
(1.33707 -0.0160492 0)
(1.34236 -0.0163734 0)
(1.35173 -0.0186247 0)
(1.36454 -0.0204987 0)
(1.37855 -0.0213786 0)
(1.39169 -0.0233016 0)
(1.40356 -0.0265746 0)
(1.41244 -0.0304481 0)
(1.41779 -0.0323803 0)
(1.42199 -0.0317449 0)
(1.42339 -0.0282789 0)
(1.4233 -0.0218382 0)
(1.42372 -0.0145026 0)
(1.42672 -0.00958651 0)
(1.43162 -0.00761015 0)
(1.438 -0.0076514 0)
(1.44456 -0.0104198 0)
(1.45196 -0.0162107 0)
(1.46117 -0.0247571 0)
(1.47317 -0.0334765 0)
(1.48589 -0.0380548 0)
(1.4967 -0.0393564 0)