/*--------------------------------*- C++ -*----------------------------------*\
  =========                 |
  \\      /  F ield         | OpenFOAM: The Open Source CFD Toolbox
   \\    /   O peration     | Website:  https://openfoam.org
    \\  /    A nd           | Version:  7
     \\/     M anipulation  |
\*---------------------------------------------------------------------------*/
FoamFile
{
    version     2.0;
    format      ascii;
    class       volVectorField;
    location    "2.4";
    object      U;
}
// * * * * * * * * * * * * * * * * * * * * * * * * * * * * * * * * * * * * * //

dimensions      [0 1 -1 0 0 0 0];

internalField   nonuniform List<vector> 
16512
(
(2.31274 -0.87787 0)
(2.31574 -0.878628 0)
(2.31932 -0.879383 0)
(2.32281 -0.880197 0)
(2.32629 -0.880516 0)
(2.32977 -0.87958 0)
(2.33287 -0.877745 0)
(2.33547 -0.875405 0)
(2.33717 -0.873476 0)
(2.33876 -0.872433 0)
(2.34125 -0.872682 0)
(2.34417 -0.874026 0)
(2.34764 -0.875681 0)
(2.35101 -0.877035 0)
(2.35454 -0.878285 0)
(2.35889 -0.879346 0)
(2.36441 -0.879969 0)
(2.36847 -0.879955 0)
(2.37235 -0.880232 0)
(2.37585 -0.879819 0)
(2.37677 -0.877504 0)
(2.37421 -0.873437 0)
(2.37473 -0.871869 0)
(2.37801 -0.87229 0)
(2.38122 -0.873015 0)
(2.38459 -0.873474 0)
(2.38999 -0.874178 0)
(2.39585 -0.874821 0)
(2.3997 -0.875237 0)
(2.40313 -0.87567 0)
(2.40641 -0.875384 0)
(2.40854 -0.873088 0)
(2.40925 -0.869998 0)
(2.41083 -0.868335 0)
(2.41365 -0.867735 0)
(2.41709 -0.867921 0)
(2.42078 -0.868649 0)
(2.42454 -0.869705 0)
(2.4284 -0.870742 0)
(2.43212 -0.871946 0)
(2.43538 -0.872674 0)
(2.43659 -0.870989 0)
(2.43563 -0.866443 0)
(2.43493 -0.861778 0)
(2.43584 -0.859191 0)
(2.4379 -0.858873 0)
(2.43981 -0.859258 0)
(2.44129 -0.859881 0)
(2.44438 -0.861385 0)
(2.44932 -0.863516 0)
(2.45478 -0.864908 0)
(2.45969 -0.86428 0)
(2.46394 -0.862314 0)
(2.46756 -0.859232 0)
(2.46984 -0.852598 0)
(2.46916 -0.83754 0)
(2.46726 -0.8219 0)
(2.46619 -0.803256 0)
(2.45839 -0.768412 0)
(2.44919 -0.731725 0)
(2.43906 -0.689751 0)
(2.43457 -0.651296 0)
(2.4354 -0.640203 0)
(2.43801 -0.623681 0)
(2.43444 -0.598252 0)
(2.43362 -0.583139 0)
(2.43316 -0.572561 0)
(2.43588 -0.56544 0)
(2.43869 -0.56427 0)
(2.44043 -0.567852 0)
(2.44373 -0.572652 0)
(2.44754 -0.571529 0)
(2.44901 -0.569944 0)
(2.45075 -0.569115 0)
(2.45398 -0.566412 0)
(2.45599 -0.563173 0)
(2.45684 -0.560912 0)
(2.45808 -0.559545 0)
(2.45953 -0.558468 0)
(2.45974 -0.556607 0)
(2.4588 -0.553814 0)
(2.45803 -0.549847 0)
(2.45826 -0.5467 0)
(2.46 -0.545915 0)
(2.46287 -0.54575 0)
(2.46739 -0.546111 0)
(2.47349 -0.549836 0)
(2.48159 -0.557109 0)
(2.48705 -0.560805 0)
(2.48991 -0.560334 0)
(2.49243 -0.558735 0)
(2.49367 -0.555668 0)
(2.49262 -0.549907 0)
(2.48875 -0.540533 0)
(2.48547 -0.532965 0)
(2.48649 -0.531528 0)
(2.48886 -0.532113 0)
(2.49127 -0.532611 0)
(2.49369 -0.53241 0)
(2.49625 -0.531167 0)
(2.49857 -0.530657 0)
(2.50026 -0.531107 0)
(2.5023 -0.531973 0)
(2.50622 -0.533302 0)
(2.51251 -0.535846 0)
(2.51885 -0.538363 0)
(2.52271 -0.538732 0)
(2.52568 -0.538451 0)
(2.52856 -0.537709 0)
(2.53139 -0.536296 0)
(2.53278 -0.533413 0)
(2.53113 -0.527429 0)
(2.52659 -0.518607 0)
(2.52359 -0.512617 0)
(2.52458 -0.511303 0)
(2.52728 -0.511797 0)
(2.52951 -0.513303 0)
(2.53144 -0.515569 0)
(2.53528 -0.519674 0)
(2.54041 -0.52579 0)
(2.54423 -0.527631 0)
(2.54538 -0.52722 0)
(2.54668 -0.523998 0)
(2.5478 -0.518423 0)
(2.54867 -0.513082 0)
(2.54996 -0.509559 0)
(2.55175 -0.50764 0)
(2.55353 -0.506168 0)
(2.55454 -0.504227 0)
(2.55355 -0.501401 0)
(2.55234 -0.499461 0)
(2.55371 -0.499523 0)
(2.55611 -0.499997 0)
(2.55846 -0.500434 0)
(2.56136 -0.500583 0)
(2.56669 -0.501565 0)
(2.57441 -0.505253 0)
(2.58062 -0.507748 0)
(2.58283 -0.507661 0)
(2.58478 -0.507925 0)
(2.58663 -0.507755 0)
(2.58739 -0.50627 0)
(2.58561 -0.501973 0)
(2.58074 -0.493881 0)
(2.57777 -0.487374 0)
(2.5794 -0.485453 0)
(2.58205 -0.48509 0)
(2.58478 -0.484972 0)
(2.5877 -0.484743 0)
(2.59261 -0.485014 0)
(2.59812 -0.485838 0)
(2.60043 -0.486238 0)
(2.60341 -0.48693 0)
(2.60596 -0.487704 0)
(2.60811 -0.488486 0)
(2.61009 -0.489162 0)
(2.61197 -0.489655 0)
(2.61315 -0.489251 0)
(2.61284 -0.486184 0)
(2.61018 -0.480077 0)
(2.60829 -0.474325 0)
(2.60991 -0.472279 0)
(2.61205 -0.471664 0)
(2.61387 -0.471374 0)
(2.616 -0.471821 0)
(2.61965 -0.4731 0)
(2.62372 -0.476142 0)
(2.62794 -0.480777 0)
(2.63029 -0.483417 0)
(2.6319 -0.484025 0)
(2.63371 -0.484676 0)
(2.63499 -0.484508 0)
(2.63487 -0.48155 0)
(2.63123 -0.474262 0)
(2.62501 -0.464296 0)
(2.62408 -0.459045 0)
(2.62686 -0.457701 0)
(2.62961 -0.457315 0)
(2.63225 -0.457199 0)
(2.63496 -0.45741 0)
(2.63769 -0.458076 0)
(2.63992 -0.459221 0)
(2.64236 -0.460803 0)
(2.64616 -0.463964 0)
(2.6523 -0.469199 0)
(2.65957 -0.473876 0)
(2.66315 -0.474626 0)
(2.6652 -0.474036 0)
(2.6668 -0.471464 0)
(2.66529 -0.465608 0)
(2.65865 -0.454932 0)
(2.65241 -0.446337 0)
(2.65319 -0.444675 0)
(2.65542 -0.444856 0)
(2.65748 -0.445339 0)
(2.65958 -0.446277 0)
(2.6615 -0.447502 0)
(2.66316 -0.448188 0)
(2.66508 -0.448544 0)
(2.66807 -0.449504 0)
(2.67218 -0.452226 0)
(2.6767 -0.455696 0)
(2.67902 -0.456646 0)
(2.68132 -0.456609 0)
(2.68385 -0.455979 0)
(2.68597 -0.455287 0)
(2.68752 -0.454151 0)
(2.6865 -0.45097 0)
(2.6811 -0.444122 0)
(2.67678 -0.439113 0)
(2.67752 -0.43778 0)
(2.67951 -0.437585 0)
(2.68189 -0.437279 0)
(2.6852 -0.436927 0)
(2.68879 -0.436534 0)
(2.69237 -0.435276 0)
(2.6945 -0.434075 0)
(2.69662 -0.432028 0)
(2.6992 -0.430731 0)
(2.70117 -0.429741 0)
(2.70264 -0.429187 0)
(2.70392 -0.429025 0)
(2.70481 -0.429098 0)
(2.70531 -0.429391 0)
(2.70527 -0.429766 0)
(2.70545 -0.43006 0)
(2.70674 -0.430376 0)
(2.70856 -0.430424 0)
(2.71089 -0.430323 0)
(2.71362 -0.430402 0)
(2.71639 -0.430297 0)
(2.71879 -0.429659 0)
(2.72036 -0.426749 0)
(2.72049 -0.421911 0)
(2.71985 -0.416929 0)
(2.7207 -0.414691 0)
(2.72184 -0.414468 0)
(2.72335 -0.415491 0)
(2.72589 -0.417643 0)
(2.72694 -0.419414 0)
(2.72757 -0.421021 0)
(2.72829 -0.419849 0)
(2.72701 -0.419215 0)
(2.72351 -0.407294 0)
(2.71959 -0.394602 0)
(2.7109 -0.365359 0)
(2.69311 -0.310159 0)
(2.65812 -0.210337 0)
(2.63497 -0.117258 0)
(2.59543 0.0188122 0)
(2.56 0.127025 0)
(2.55702 0.11649 0)
(2.55922 0.127219 0)
(2.54486 0.153278 0)
(2.53049 0.175533 0)
(2.52346 0.180063 0)
(2.52157 0.186388 0)
(2.516 0.195093 0)
(2.31604 -0.871971 0)
(2.31836 -0.872579 0)
(2.32205 -0.873826 0)
(2.32567 -0.874763 0)
(2.32954 -0.874881 0)
(2.33359 -0.873908 0)
(2.33718 -0.872908 0)
(2.34051 -0.871912 0)
(2.34281 -0.869718 0)
(2.34271 -0.866742 0)
(2.34263 -0.865696 0)
(2.34541 -0.866306 0)
(2.3488 -0.867228 0)
(2.35202 -0.868263 0)
(2.35535 -0.869177 0)
(2.35954 -0.870212 0)
(2.36549 -0.871397 0)
(2.37007 -0.871939 0)
(2.37388 -0.873046 0)
(2.37775 -0.874381 0)
(2.38095 -0.874803 0)
(2.38104 -0.872756 0)
(2.37945 -0.868736 0)
(2.38117 -0.866407 0)
(2.38471 -0.865837 0)
(2.38837 -0.865903 0)
(2.39238 -0.866331 0)
(2.39802 -0.867394 0)
(2.40252 -0.867961 0)
(2.40588 -0.868455 0)
(2.40899 -0.869061 0)
(2.41208 -0.869132 0)
(2.41432 -0.8676 0)
(2.41562 -0.865047 0)
(2.41694 -0.862634 0)
(2.41897 -0.861266 0)
(2.42238 -0.86158 0)
(2.42602 -0.862692 0)
(2.42977 -0.86377 0)
(2.43381 -0.864612 0)
(2.43773 -0.865363 0)
(2.44106 -0.865043 0)
(2.44229 -0.862605 0)
(2.44106 -0.858518 0)
(2.44015 -0.855136 0)
(2.44121 -0.853177 0)
(2.44369 -0.852028 0)
(2.44711 -0.851413 0)
(2.4505 -0.85163 0)
(2.45317 -0.852524 0)
(2.45639 -0.854814 0)
(2.45998 -0.857712 0)
(2.46438 -0.859784 0)
(2.46858 -0.861873 0)
(2.47309 -0.862089 0)
(2.47836 -0.86024 0)
(2.48174 -0.858901 0)
(2.48347 -0.856182 0)
(2.4823 -0.849199 0)
(2.48017 -0.834895 0)
(2.47912 -0.818122 0)
(2.47306 -0.78956 0)
(2.4653 -0.752734 0)
(2.45712 -0.718476 0)
(2.45166 -0.686941 0)
(2.45095 -0.668422 0)
(2.45423 -0.655244 0)
(2.44927 -0.62623 0)
(2.4456 -0.5971 0)
(2.44501 -0.582813 0)
(2.44644 -0.580562 0)
(2.45366 -0.579141 0)
(2.46209 -0.575409 0)
(2.46419 -0.572704 0)
(2.46331 -0.568679 0)
(2.46068 -0.565349 0)
(2.45833 -0.563262 0)
(2.45874 -0.560649 0)
(2.46195 -0.557241 0)
(2.46383 -0.553697 0)
(2.46553 -0.55194 0)
(2.46742 -0.55055 0)
(2.46835 -0.547667 0)
(2.46714 -0.543606 0)
(2.46695 -0.541261 0)
(2.46889 -0.541374 0)
(2.47143 -0.542328 0)
(2.47611 -0.545103 0)
(2.4846 -0.551634 0)
(2.49245 -0.556808 0)
(2.49553 -0.556615 0)
(2.4985 -0.55473 0)
(2.5003 -0.552292 0)
(2.5003 -0.54749 0)
(2.49616 -0.538536 0)
(2.49064 -0.530904 0)
(2.49073 -0.529656 0)
(2.49281 -0.529846 0)
(2.49495 -0.530144 0)
(2.49725 -0.530163 0)
(2.50024 -0.529624 0)
(2.50206 -0.529142 0)
(2.50459 -0.528565 0)
(2.5079 -0.527886 0)
(2.5132 -0.527353 0)
(2.51941 -0.529078 0)
(2.5247 -0.532715 0)
(2.52873 -0.534322 0)
(2.53165 -0.534267 0)
(2.53498 -0.53395 0)
(2.53782 -0.532891 0)
(2.53849 -0.530903 0)
(2.53579 -0.526216 0)
(2.53043 -0.518333 0)
(2.52677 -0.51186 0)
(2.52755 -0.50996 0)
(2.53004 -0.510016 0)
(2.53231 -0.5108 0)
(2.53439 -0.511953 0)
(2.5388 -0.515064 0)
(2.54576 -0.520486 0)
(2.55149 -0.521641 0)
(2.55289 -0.521051 0)
(2.55423 -0.519119 0)
(2.55539 -0.515012 0)
(2.5551 -0.509705 0)
(2.55506 -0.506176 0)
(2.55638 -0.504885 0)
(2.5579 -0.503958 0)
(2.55875 -0.502272 0)
(2.55804 -0.499215 0)
(2.55708 -0.49624 0)
(2.55838 -0.495205 0)
(2.56059 -0.49514 0)
(2.56275 -0.495096 0)
(2.56601 -0.49486 0)
(2.57166 -0.495593 0)
(2.57862 -0.499553 0)
(2.5844 -0.503986 0)
(2.58675 -0.504953 0)
(2.58919 -0.505077 0)
(2.59104 -0.504749 0)
(2.59157 -0.503313 0)
(2.5896 -0.499015 0)
(2.58458 -0.490727 0)
(2.5813 -0.483638 0)
(2.58289 -0.481226 0)
(2.58571 -0.480542 0)
(2.58847 -0.480026 0)
(2.59235 -0.479672 0)
(2.59808 -0.480983 0)
(2.60185 -0.482978 0)
(2.60432 -0.483732 0)
(2.60728 -0.484311 0)
(2.60968 -0.484814 0)
(2.61137 -0.485143 0)
(2.61298 -0.485235 0)
(2.61491 -0.485202 0)
(2.61641 -0.484413 0)
(2.61683 -0.481387 0)
(2.61527 -0.47568 0)
(2.61351 -0.469854 0)
(2.6149 -0.467603 0)
(2.61734 -0.467187 0)
(2.61943 -0.467349 0)
(2.62145 -0.468051 0)
(2.62388 -0.469578 0)
(2.62738 -0.472705 0)
(2.63136 -0.477578 0)
(2.63376 -0.479915 0)
(2.63539 -0.480135 0)
(2.63746 -0.48008 0)
(2.63913 -0.479323 0)
(2.63909 -0.475894 0)
(2.6351 -0.46856 0)
(2.62883 -0.459265 0)
(2.62814 -0.45447 0)
(2.63117 -0.453953 0)
(2.634 -0.454093 0)
(2.63695 -0.454325 0)
(2.63939 -0.454877 0)
(2.64147 -0.456003 0)
(2.64332 -0.45746 0)
(2.64592 -0.459003 0)
(2.65094 -0.461906 0)
(2.65869 -0.465734 0)
(2.66578 -0.467894 0)
(2.66809 -0.467726 0)
(2.67012 -0.4671 0)
(2.67164 -0.464987 0)
(2.67009 -0.459932 0)
(2.66314 -0.450185 0)
(2.65655 -0.442227 0)
(2.65703 -0.44111 0)
(2.65909 -0.441645 0)
(2.66104 -0.442299 0)
(2.6628 -0.442851 0)
(2.66438 -0.443178 0)
(2.66635 -0.443404 0)
(2.66901 -0.443956 0)
(2.67194 -0.445137 0)
(2.67556 -0.447434 0)
(2.67928 -0.450842 0)
(2.68199 -0.452719 0)
(2.68426 -0.452773 0)
(2.68701 -0.452557 0)
(2.68932 -0.452598 0)
(2.69087 -0.451479 0)
(2.68929 -0.447414 0)
(2.68338 -0.439443 0)
(2.67991 -0.434005 0)
(2.68163 -0.433022 0)
(2.68369 -0.433136 0)
(2.68615 -0.433086 0)
(2.68996 -0.432293 0)
(2.69338 -0.430874 0)
(2.69638 -0.430362 0)
(2.69938 -0.430138 0)
(2.70178 -0.42941 0)
(2.70316 -0.428407 0)
(2.70422 -0.427817 0)
(2.70546 -0.427351 0)
(2.70635 -0.42702 0)
(2.70656 -0.427067 0)
(2.70618 -0.427202 0)
(2.70592 -0.426761 0)
(2.7077 -0.426068 0)
(2.70968 -0.425791 0)
(2.71152 -0.425422 0)
(2.71401 -0.424924 0)
(2.71716 -0.42453 0)
(2.72052 -0.423946 0)
(2.72311 -0.423214 0)
(2.7255 -0.421485 0)
(2.72581 -0.417709 0)
(2.72369 -0.413251 0)
(2.72367 -0.411564 0)
(2.7252 -0.411786 0)
(2.72634 -0.413242 0)
(2.7273 -0.415649 0)
(2.72834 -0.417593 0)
(2.72971 -0.41867 0)
(2.73077 -0.418781 0)
(2.73098 -0.415064 0)
(2.72997 -0.40911 0)
(2.72967 -0.400341 0)
(2.72923 -0.392807 0)
(2.72522 -0.376472 0)
(2.71393 -0.339043 0)
(2.69024 -0.270006 0)
(2.65828 -0.171452 0)
(2.63163 -0.0714937 0)
(2.58295 0.0807442 0)
(2.56124 0.128872 0)
(2.56668 0.118796 0)
(2.55666 0.139345 0)
(2.54396 0.159579 0)
(2.53228 0.184742 0)
(2.31928 -0.866118 0)
(2.32122 -0.866307 0)
(2.32477 -0.867 0)
(2.32826 -0.867587 0)
(2.3321 -0.867884 0)
(2.33651 -0.86778 0)
(2.34047 -0.867345 0)
(2.34422 -0.86693 0)
(2.34761 -0.866524 0)
(2.34901 -0.865094 0)
(2.34718 -0.861582 0)
(2.34673 -0.858914 0)
(2.34953 -0.858394 0)
(2.35298 -0.858675 0)
(2.35649 -0.859289 0)
(2.36035 -0.86007 0)
(2.36678 -0.861877 0)
(2.3719 -0.86359 0)
(2.3752 -0.865159 0)
(2.37878 -0.866764 0)
(2.38227 -0.868005 0)
(2.38507 -0.868049 0)
(2.38605 -0.866063 0)
(2.38709 -0.863072 0)
(2.38953 -0.860526 0)
(2.39282 -0.85879 0)
(2.39649 -0.858176 0)
(2.40017 -0.858594 0)
(2.40443 -0.860036 0)
(2.40806 -0.861382 0)
(2.41109 -0.862351 0)
(2.41404 -0.863064 0)
(2.41702 -0.863018 0)
(2.41967 -0.861804 0)
(2.42178 -0.860229 0)
(2.42332 -0.858313 0)
(2.4247 -0.856461 0)
(2.42792 -0.856432 0)
(2.43152 -0.857429 0)
(2.43513 -0.858458 0)
(2.43927 -0.859199 0)
(2.44322 -0.859407 0)
(2.44675 -0.858887 0)
(2.44863 -0.856489 0)
(2.44753 -0.851874 0)
(2.4461 -0.847522 0)
(2.44705 -0.845404 0)
(2.44939 -0.844468 0)
(2.45261 -0.844028 0)
(2.45647 -0.844338 0)
(2.46021 -0.845325 0)
(2.46435 -0.846614 0)
(2.46791 -0.848622 0)
(2.46972 -0.851212 0)
(2.47226 -0.854018 0)
(2.47678 -0.856047 0)
(2.48265 -0.857533 0)
(2.486 -0.857841 0)
(2.4893 -0.856371 0)
(2.49197 -0.854447 0)
(2.49563 -0.853312 0)
(2.49518 -0.849557 0)
(2.48872 -0.836934 0)
(2.48564 -0.82175 0)
(2.48331 -0.80836 0)
(2.47939 -0.786204 0)
(2.4754 -0.758011 0)
(2.47027 -0.728514 0)
(2.4669 -0.702187 0)
(2.46711 -0.682134 0)
(2.46602 -0.651974 0)
(2.46583 -0.616876 0)
(2.46767 -0.596381 0)
(2.46895 -0.589818 0)
(2.47186 -0.582852 0)
(2.47018 -0.575726 0)
(2.4691 -0.573039 0)
(2.46887 -0.568344 0)
(2.46774 -0.562307 0)
(2.46527 -0.558114 0)
(2.46689 -0.553637 0)
(2.47066 -0.550493 0)
(2.47401 -0.546879 0)
(2.47626 -0.543416 0)
(2.47586 -0.540214 0)
(2.47462 -0.536401 0)
(2.47527 -0.534953 0)
(2.47645 -0.535978 0)
(2.47985 -0.538828 0)
(2.48836 -0.544954 0)
(2.49782 -0.551392 0)
(2.50122 -0.552716 0)
(2.50336 -0.552381 0)
(2.50594 -0.550131 0)
(2.50623 -0.544697 0)
(2.50065 -0.535351 0)
(2.49496 -0.52853 0)
(2.49573 -0.527485 0)
(2.49758 -0.527175 0)
(2.49896 -0.527681 0)
(2.50285 -0.527712 0)
(2.50577 -0.526696 0)
(2.50835 -0.52529 0)
(2.51213 -0.521918 0)
(2.51559 -0.519807 0)
(2.51969 -0.519198 0)
(2.52425 -0.521285 0)
(2.52939 -0.525861 0)
(2.5339 -0.529362 0)
(2.53666 -0.530175 0)
(2.54013 -0.530601 0)
(2.54215 -0.530519 0)
(2.54167 -0.529315 0)
(2.53807 -0.525115 0)
(2.53247 -0.517123 0)
(2.52907 -0.509883 0)
(2.53025 -0.507094 0)
(2.53286 -0.506604 0)
(2.53517 -0.506785 0)
(2.53835 -0.507048 0)
(2.54481 -0.509233 0)
(2.55317 -0.51462 0)
(2.55864 -0.516384 0)
(2.56039 -0.516252 0)
(2.56214 -0.515213 0)
(2.56254 -0.511862 0)
(2.56055 -0.506533 0)
(2.5596 -0.50325 0)
(2.56082 -0.502266 0)
(2.5624 -0.501527 0)
(2.5637 -0.499972 0)
(2.56407 -0.496889 0)
(2.56353 -0.49297 0)
(2.56448 -0.490757 0)
(2.56677 -0.490177 0)
(2.56905 -0.489903 0)
(2.57202 -0.489811 0)
(2.57671 -0.490586 0)
(2.58225 -0.49391 0)
(2.58782 -0.498922 0)
(2.59111 -0.5017 0)
(2.59322 -0.502135 0)
(2.5957 -0.501659 0)
(2.59659 -0.500088 0)
(2.59507 -0.495984 0)
(2.59074 -0.48786 0)
(2.58719 -0.479862 0)
(2.58819 -0.47653 0)
(2.59086 -0.475576 0)
(2.59363 -0.475341 0)
(2.59714 -0.475746 0)
(2.60205 -0.477631 0)
(2.60565 -0.480139 0)
(2.60802 -0.481056 0)
(2.61111 -0.481558 0)
(2.61347 -0.481727 0)
(2.61479 -0.481221 0)
(2.61635 -0.480535 0)
(2.61832 -0.480035 0)
(2.61993 -0.47904 0)
(2.62061 -0.476249 0)
(2.61949 -0.47133 0)
(2.61743 -0.466132 0)
(2.61755 -0.46417 0)
(2.61966 -0.464077 0)
(2.62215 -0.464728 0)
(2.62426 -0.465973 0)
(2.62634 -0.467134 0)
(2.63011 -0.469409 0)
(2.63578 -0.473885 0)
(2.63986 -0.475285 0)
(2.64121 -0.474835 0)
(2.6424 -0.474381 0)
(2.64366 -0.473098 0)
(2.64316 -0.469447 0)
(2.63814 -0.462025 0)
(2.63083 -0.453773 0)
(2.63078 -0.451178 0)
(2.63393 -0.451193 0)
(2.63665 -0.45158 0)
(2.63948 -0.452045 0)
(2.6422 -0.452618 0)
(2.64456 -0.453317 0)
(2.6467 -0.454051 0)
(2.65068 -0.455831 0)
(2.65733 -0.459079 0)
(2.6661 -0.461484 0)
(2.67076 -0.461515 0)
(2.67196 -0.461442 0)
(2.6739 -0.461375 0)
(2.67534 -0.459951 0)
(2.67373 -0.455014 0)
(2.66638 -0.445556 0)
(2.66031 -0.43866 0)
(2.66129 -0.437872 0)
(2.66317 -0.438074 0)
(2.66503 -0.438327 0)
(2.66705 -0.438608 0)
(2.66925 -0.439019 0)
(2.67157 -0.439654 0)
(2.67387 -0.440432 0)
(2.6765 -0.44143 0)
(2.6799 -0.443417 0)
(2.68372 -0.446851 0)
(2.68647 -0.449348 0)
(2.68812 -0.44975 0)
(2.69066 -0.45005 0)
(2.69307 -0.450097 0)
(2.69441 -0.448678 0)
(2.69302 -0.443923 0)
(2.6875 -0.434686 0)
(2.68422 -0.428144 0)
(2.68608 -0.427036 0)
(2.68758 -0.426941 0)
(2.69049 -0.426964 0)
(2.69378 -0.426901 0)
(2.69752 -0.427247 0)
(2.70109 -0.427579 0)
(2.70412 -0.427616 0)
(2.7061 -0.427065 0)
(2.70688 -0.426302 0)
(2.70718 -0.425568 0)
(2.70753 -0.424936 0)
(2.70775 -0.424349 0)
(2.70744 -0.423898 0)
(2.70754 -0.422839 0)
(2.70893 -0.421592 0)
(2.7114 -0.421052 0)
(2.71366 -0.420663 0)
(2.71616 -0.420189 0)
(2.71908 -0.4197 0)
(2.72151 -0.419492 0)
(2.72416 -0.419622 0)
(2.72719 -0.419384 0)
(2.72908 -0.418102 0)
(2.72803 -0.415117 0)
(2.72541 -0.411532 0)
(2.7252 -0.41047 0)
(2.72668 -0.411044 0)
(2.72802 -0.411932 0)
(2.72925 -0.412549 0)
(2.73165 -0.413231 0)
(2.73417 -0.412916 0)
(2.7354 -0.41223 0)
(2.73644 -0.41019 0)
(2.73743 -0.404266 0)
(2.7363 -0.398357 0)
(2.73518 -0.394377 0)
(2.7347 -0.390286 0)
(2.73372 -0.383813 0)
(2.72734 -0.362585 0)
(2.71166 -0.315674 0)
(2.68261 -0.229013 0)
(2.65994 -0.144892 0)
(2.61415 -0.0105254 0)
(2.57826 0.119406 0)
(2.57849 0.103108 0)
(2.56113 0.138881 0)
(2.32262 -0.861263 0)
(2.32419 -0.860687 0)
(2.32746 -0.860555 0)
(2.33102 -0.860924 0)
(2.33465 -0.861096 0)
(2.33897 -0.860911 0)
(2.34309 -0.860865 0)
(2.34671 -0.861826 0)
(2.35054 -0.862885 0)
(2.35345 -0.862978 0)
(2.3538 -0.861045 0)
(2.35251 -0.8567 0)
(2.35302 -0.853006 0)
(2.35573 -0.851337 0)
(2.3594 -0.85078 0)
(2.36323 -0.850741 0)
(2.36763 -0.851569 0)
(2.37246 -0.853702 0)
(2.37612 -0.855906 0)
(2.37969 -0.857998 0)
(2.38305 -0.859854 0)
(2.38649 -0.861259 0)
(2.38996 -0.861381 0)
(2.39318 -0.859298 0)
(2.39633 -0.856645 0)
(2.39895 -0.853936 0)
(2.40089 -0.851457 0)
(2.40356 -0.850618 0)
(2.40659 -0.851185 0)
(2.40951 -0.852325 0)
(2.41288 -0.853916 0)
(2.41592 -0.855008 0)
(2.41863 -0.855526 0)
(2.42162 -0.855818 0)
(2.4248 -0.855517 0)
(2.42749 -0.854755 0)
(2.42912 -0.853162 0)
(2.43041 -0.851479 0)
(2.43376 -0.851778 0)
(2.4373 -0.852776 0)
(2.44092 -0.853723 0)
(2.44522 -0.854306 0)
(2.44924 -0.854349 0)
(2.45292 -0.854026 0)
(2.45548 -0.851948 0)
(2.45535 -0.847238 0)
(2.45378 -0.841809 0)
(2.45386 -0.838643 0)
(2.45563 -0.837315 0)
(2.45808 -0.836718 0)
(2.46086 -0.836868 0)
(2.46385 -0.83774 0)
(2.46717 -0.838855 0)
(2.47116 -0.839978 0)
(2.47524 -0.841172 0)
(2.47878 -0.842944 0)
(2.48236 -0.846098 0)
(2.48669 -0.848691 0)
(2.49128 -0.849771 0)
(2.49577 -0.851689 0)
(2.49853 -0.853279 0)
(2.5016 -0.853503 0)
(2.50344 -0.850657 0)
(2.5013 -0.844521 0)
(2.49552 -0.835862 0)
(2.49297 -0.828507 0)
(2.49419 -0.82319 0)
(2.49548 -0.815997 0)
(2.49477 -0.803668 0)
(2.49282 -0.785577 0)
(2.49055 -0.762544 0)
(2.48916 -0.735579 0)
(2.48889 -0.709846 0)
(2.48916 -0.690132 0)
(2.48978 -0.665278 0)
(2.48833 -0.635721 0)
(2.48475 -0.609049 0)
(2.48171 -0.587878 0)
(2.47794 -0.576564 0)
(2.47564 -0.572413 0)
(2.47585 -0.567742 0)
(2.47908 -0.55914 0)
(2.48038 -0.551926 0)
(2.47961 -0.548176 0)
(2.48051 -0.543799 0)
(2.4828 -0.539023 0)
(2.48349 -0.531879 0)
(2.4838 -0.528339 0)
(2.48466 -0.528929 0)
(2.48599 -0.532421 0)
(2.49215 -0.538327 0)
(2.50076 -0.545009 0)
(2.50516 -0.548089 0)
(2.50863 -0.548345 0)
(2.51127 -0.546385 0)
(2.50952 -0.541367 0)
(2.50324 -0.533859 0)
(2.49934 -0.526819 0)
(2.49997 -0.523188 0)
(2.50283 -0.520689 0)
(2.50546 -0.519668 0)
(2.51069 -0.518028 0)
(2.51355 -0.517242 0)
(2.51664 -0.515596 0)
(2.51876 -0.514346 0)
(2.52185 -0.513624 0)
(2.52538 -0.514191 0)
(2.52898 -0.516328 0)
(2.53391 -0.52004 0)
(2.53859 -0.523712 0)
(2.54089 -0.525273 0)
(2.5434 -0.526729 0)
(2.54479 -0.52777 0)
(2.54369 -0.527002 0)
(2.53972 -0.52301 0)
(2.53518 -0.515075 0)
(2.53307 -0.506835 0)
(2.53478 -0.502717 0)
(2.53755 -0.501668 0)
(2.54038 -0.501313 0)
(2.54537 -0.501549 0)
(2.55231 -0.504056 0)
(2.56007 -0.510056 0)
(2.56462 -0.512959 0)
(2.56691 -0.513044 0)
(2.5688 -0.512273 0)
(2.56859 -0.508931 0)
(2.56569 -0.503113 0)
(2.56435 -0.499442 0)
(2.56564 -0.498335 0)
(2.56736 -0.497735 0)
(2.569 -0.49645 0)
(2.57012 -0.493656 0)
(2.57011 -0.489546 0)
(2.5708 -0.486686 0)
(2.57315 -0.485804 0)
(2.57553 -0.485622 0)
(2.57779 -0.485821 0)
(2.58106 -0.48637 0)
(2.58583 -0.488619 0)
(2.59117 -0.493115 0)
(2.59574 -0.497351 0)
(2.59798 -0.498549 0)
(2.60057 -0.498234 0)
(2.60191 -0.496657 0)
(2.60136 -0.492841 0)
(2.59845 -0.485259 0)
(2.5946 -0.476371 0)
(2.5939 -0.471954 0)
(2.59596 -0.471054 0)
(2.59843 -0.471373 0)
(2.60101 -0.472221 0)
(2.60505 -0.473835 0)
(2.60929 -0.476614 0)
(2.61163 -0.477874 0)
(2.61474 -0.478283 0)
(2.61746 -0.478143 0)
(2.61913 -0.476714 0)
(2.6206 -0.475232 0)
(2.62225 -0.47438 0)
(2.6235 -0.473417 0)
(2.62369 -0.471338 0)
(2.62214 -0.467685 0)
(2.61972 -0.463746 0)
(2.61949 -0.462117 0)
(2.62125 -0.461978 0)
(2.62375 -0.462374 0)
(2.62617 -0.462826 0)
(2.62881 -0.463361 0)
(2.63367 -0.465174 0)
(2.64025 -0.469277 0)
(2.64509 -0.470523 0)
(2.64663 -0.469793 0)
(2.64796 -0.469156 0)
(2.64887 -0.467807 0)
(2.64693 -0.464177 0)
(2.63927 -0.45641 0)
(2.63289 -0.449482 0)
(2.63445 -0.448073 0)
(2.63722 -0.448147 0)
(2.63982 -0.448561 0)
(2.64241 -0.448955 0)
(2.64488 -0.449284 0)
(2.64705 -0.449589 0)
(2.65016 -0.450462 0)
(2.65596 -0.452955 0)
(2.66479 -0.456248 0)
(2.67039 -0.457163 0)
(2.6719 -0.457194 0)
(2.67449 -0.456748 0)
(2.6768 -0.456237 0)
(2.67819 -0.454667 0)
(2.67587 -0.449639 0)
(2.66744 -0.440487 0)
(2.66267 -0.434874 0)
(2.66436 -0.434243 0)
(2.66646 -0.43439 0)
(2.66863 -0.43482 0)
(2.6708 -0.435542 0)
(2.6734 -0.436323 0)
(2.67593 -0.437046 0)
(2.67801 -0.437946 0)
(2.68019 -0.439084 0)
(2.68339 -0.440724 0)
(2.6883 -0.443501 0)
(2.69207 -0.445133 0)
(2.69419 -0.444821 0)
(2.69609 -0.444367 0)
(2.69785 -0.443648 0)
(2.69924 -0.44218 0)
(2.69781 -0.437761 0)
(2.69151 -0.428936 0)
(2.68771 -0.423179 0)
(2.68967 -0.422681 0)
(2.69185 -0.423149 0)
(2.6945 -0.423418 0)
(2.69807 -0.423343 0)
(2.70187 -0.423496 0)
(2.70507 -0.424207 0)
(2.7075 -0.424738 0)
(2.70995 -0.424747 0)
(2.71102 -0.423814 0)
(2.7108 -0.422634 0)
(2.71017 -0.421391 0)
(2.71034 -0.420226 0)
(2.7111 -0.419266 0)
(2.71167 -0.418011 0)
(2.71327 -0.416531 0)
(2.71553 -0.415346 0)
(2.71727 -0.414873 0)
(2.71939 -0.414952 0)
(2.72229 -0.415069 0)
(2.72492 -0.415473 0)
(2.72722 -0.41606 0)
(2.72965 -0.416417 0)
(2.73093 -0.415671 0)
(2.72909 -0.412957 0)
(2.72644 -0.409771 0)
(2.72624 -0.408303 0)
(2.72743 -0.408055 0)
(2.72845 -0.408133 0)
(2.73102 -0.407931 0)
(2.73585 -0.4068 0)
(2.7392 -0.405189 0)
(2.7406 -0.404003 0)
(2.7424 -0.401799 0)
(2.74261 -0.398502 0)
(2.73946 -0.394738 0)
(2.73514 -0.392464 0)
(2.73742 -0.391893 0)
(2.73845 -0.391534 0)
(2.73925 -0.389062 0)
(2.7369 -0.37828 0)
(2.72771 -0.347835 0)
(2.70783 -0.291577 0)
(2.68166 -0.202206 0)
(2.64639 -0.0902977 0)
(2.59953 0.065253 0)
(2.32533 -0.854411 0)
(2.32738 -0.853911 0)
(2.33036 -0.853202 0)
(2.33405 -0.852871 0)
(2.33766 -0.852899 0)
(2.34152 -0.853305 0)
(2.34542 -0.854055 0)
(2.34883 -0.855298 0)
(2.35231 -0.856619 0)
(2.35563 -0.857716 0)
(2.35809 -0.857953 0)
(2.35972 -0.856442 0)
(2.3612 -0.853148 0)
(2.36253 -0.849029 0)
(2.36401 -0.845264 0)
(2.36637 -0.843252 0)
(2.36933 -0.843262 0)
(2.37264 -0.844567 0)
(2.37623 -0.846648 0)
(2.37993 -0.848656 0)
(2.38363 -0.850193 0)
(2.38763 -0.8514 0)
(2.39223 -0.85196 0)
(2.39656 -0.851515 0)
(2.40078 -0.850793 0)
(2.40484 -0.849787 0)
(2.40758 -0.847747 0)
(2.40805 -0.844787 0)
(2.4095 -0.843633 0)
(2.41227 -0.844073 0)
(2.41484 -0.84493 0)
(2.41752 -0.845986 0)
(2.42073 -0.846975 0)
(2.4233 -0.847548 0)
(2.42647 -0.848386 0)
(2.42987 -0.849078 0)
(2.43291 -0.849041 0)
(2.43484 -0.847903 0)
(2.43656 -0.846623 0)
(2.44005 -0.846825 0)
(2.44365 -0.84757 0)
(2.44733 -0.84828 0)
(2.45159 -0.848803 0)
(2.45558 -0.849036 0)
(2.45917 -0.848932 0)
(2.46216 -0.847077 0)
(2.46324 -0.842857 0)
(2.46196 -0.837054 0)
(2.4604 -0.832176 0)
(2.46064 -0.830023 0)
(2.46301 -0.829671 0)
(2.46568 -0.829999 0)
(2.468 -0.830303 0)
(2.4701 -0.830254 0)
(2.47278 -0.830292 0)
(2.47628 -0.830519 0)
(2.48217 -0.832128 0)
(2.48979 -0.837287 0)
(2.49255 -0.839888 0)
(2.49547 -0.841726 0)
(2.4994 -0.844166 0)
(2.5033 -0.846636 0)
(2.50717 -0.847943 0)
(2.51013 -0.847311 0)
(2.50988 -0.842989 0)
(2.50549 -0.83477 0)
(2.50135 -0.827341 0)
(2.50066 -0.823144 0)
(2.50276 -0.820619 0)
(2.50505 -0.818341 0)
(2.50752 -0.815297 0)
(2.50935 -0.809889 0)
(2.51079 -0.801601 0)
(2.51178 -0.787763 0)
(2.51149 -0.76726 0)
(2.51074 -0.745273 0)
(2.51058 -0.728415 0)
(2.51309 -0.708642 0)
(2.50862 -0.672909 0)
(2.49888 -0.63309 0)
(2.49391 -0.599237 0)
(2.48965 -0.579769 0)
(2.48497 -0.575664 0)
(2.48532 -0.572641 0)
(2.48992 -0.561693 0)
(2.49149 -0.551524 0)
(2.49044 -0.541874 0)
(2.49246 -0.532584 0)
(2.49443 -0.52668 0)
(2.495 -0.52514 0)
(2.49465 -0.526339 0)
(2.49741 -0.530834 0)
(2.50418 -0.53947 0)
(2.50935 -0.54408 0)
(2.51246 -0.543336 0)
(2.51449 -0.540725 0)
(2.51208 -0.538097 0)
(2.50744 -0.532265 0)
(2.50486 -0.523151 0)
(2.50551 -0.515836 0)
(2.50923 -0.512103 0)
(2.51265 -0.510402 0)
(2.51588 -0.509348 0)
(2.51865 -0.510002 0)
(2.52163 -0.510617 0)
(2.52379 -0.511262 0)
(2.52625 -0.511973 0)
(2.53 -0.513139 0)
(2.53362 -0.514695 0)
(2.53818 -0.51693 0)
(2.54218 -0.519987 0)
(2.54404 -0.521487 0)
(2.54602 -0.522964 0)
(2.54715 -0.52389 0)
(2.54649 -0.523285 0)
(2.54359 -0.519816 0)
(2.54118 -0.513247 0)
(2.54032 -0.505446 0)
(2.54164 -0.499761 0)
(2.54446 -0.497749 0)
(2.54734 -0.497313 0)
(2.55235 -0.497805 0)
(2.55826 -0.500372 0)
(2.56489 -0.506314 0)
(2.56978 -0.510402 0)
(2.57228 -0.510606 0)
(2.57409 -0.509629 0)
(2.57394 -0.506324 0)
(2.57129 -0.500226 0)
(2.5692 -0.495429 0)
(2.57014 -0.493916 0)
(2.57192 -0.493366 0)
(2.57374 -0.492448 0)
(2.57524 -0.490321 0)
(2.57543 -0.486747 0)
(2.57542 -0.483542 0)
(2.57748 -0.482352 0)
(2.58024 -0.482157 0)
(2.58283 -0.482305 0)
(2.5858 -0.482525 0)
(2.58976 -0.483793 0)
(2.59459 -0.487197 0)
(2.59982 -0.491839 0)
(2.60328 -0.493835 0)
(2.60531 -0.493435 0)
(2.60709 -0.49194 0)
(2.60763 -0.488481 0)
(2.60543 -0.482079 0)
(2.60051 -0.47347 0)
(2.59788 -0.468503 0)
(2.59952 -0.46762 0)
(2.60222 -0.46805 0)
(2.60483 -0.468934 0)
(2.60809 -0.47012 0)
(2.61299 -0.472757 0)
(2.61675 -0.474375 0)
(2.61939 -0.474174 0)
(2.62212 -0.473566 0)
(2.62413 -0.471762 0)
(2.62521 -0.470094 0)
(2.62603 -0.469273 0)
(2.62637 -0.468646 0)
(2.62556 -0.467336 0)
(2.62356 -0.464577 0)
(2.62168 -0.460833 0)
(2.62203 -0.458451 0)
(2.62423 -0.457914 0)
(2.62682 -0.458129 0)
(2.62929 -0.458417 0)
(2.63245 -0.458546 0)
(2.6378 -0.459471 0)
(2.64419 -0.462955 0)
(2.64926 -0.465884 0)
(2.65133 -0.466006 0)
(2.65354 -0.465227 0)
(2.65399 -0.463958 0)
(2.6499 -0.45989 0)
(2.64082 -0.451226 0)
(2.63667 -0.44549 0)
(2.63833 -0.444463 0)
(2.64082 -0.444387 0)
(2.64323 -0.444548 0)
(2.64554 -0.44457 0)
(2.64784 -0.444465 0)
(2.65029 -0.444479 0)
(2.655 -0.445301 0)
(2.66305 -0.448509 0)
(2.67178 -0.452251 0)
(2.67419 -0.45266 0)
(2.67639 -0.452222 0)
(2.67838 -0.451402 0)
(2.68006 -0.450645 0)
(2.6805 -0.44875 0)
(2.6765 -0.443557 0)
(2.66789 -0.435031 0)
(2.66605 -0.431445 0)
(2.66843 -0.431621 0)
(2.67064 -0.432096 0)
(2.67307 -0.432595 0)
(2.675 -0.433271 0)
(2.67647 -0.434286 0)
(2.67818 -0.435308 0)
(2.68004 -0.436283 0)
(2.68235 -0.437255 0)
(2.68716 -0.438263 0)
(2.69289 -0.439104 0)
(2.69703 -0.439904 0)
(2.69875 -0.439674 0)
(2.7003 -0.439306 0)
(2.70243 -0.43863 0)
(2.70367 -0.436952 0)
(2.70142 -0.432844 0)
(2.69513 -0.424668 0)
(2.69261 -0.419836 0)
(2.69493 -0.419276 0)
(2.69709 -0.419421 0)
(2.69958 -0.41949 0)
(2.70233 -0.419895 0)
(2.70514 -0.420566 0)
(2.70843 -0.421296 0)
(2.71117 -0.421635 0)
(2.71334 -0.421821 0)
(2.71486 -0.421396 0)
(2.71455 -0.420038 0)
(2.71441 -0.417913 0)
(2.71504 -0.4161 0)
(2.71581 -0.414736 0)
(2.71695 -0.413161 0)
(2.71834 -0.411845 0)
(2.72013 -0.411469 0)
(2.72222 -0.411303 0)
(2.72394 -0.41128 0)
(2.72561 -0.411899 0)
(2.7276 -0.412906 0)
(2.72963 -0.413637 0)
(2.73172 -0.413891 0)
(2.73274 -0.41289 0)
(2.73086 -0.409258 0)
(2.72831 -0.404667 0)
(2.72868 -0.402411 0)
(2.72972 -0.401668 0)
(2.73224 -0.401105 0)
(2.73707 -0.400501 0)
(2.74068 -0.400022 0)
(2.74225 -0.399746 0)
(2.74463 -0.399117 0)
(2.74597 -0.398099 0)
(2.74367 -0.396355 0)
(2.73795 -0.393959 0)
(2.73619 -0.39149 0)
(2.73894 -0.390753 0)
(2.74118 -0.391044 0)
(2.74266 -0.391105 0)
(2.7441 -0.390101 0)
(2.74475 -0.385601 0)
(2.74124 -0.369123 0)
(2.73164 -0.337645 0)
(2.69332 -0.196367 0)
(2.32739 -0.847815 0)
(2.33065 -0.84821 0)
(2.33409 -0.847675 0)
(2.33806 -0.846638 0)
(2.34145 -0.845582 0)
(2.34431 -0.845291 0)
(2.34746 -0.846251 0)
(2.35064 -0.847736 0)
(2.35382 -0.849392 0)
(2.35709 -0.85113 0)
(2.36033 -0.852553 0)
(2.36379 -0.852803 0)
(2.36733 -0.85127 0)
(2.37047 -0.848377 0)
(2.37227 -0.844409 0)
(2.37193 -0.839667 0)
(2.37177 -0.837123 0)
(2.37379 -0.837517 0)
(2.37691 -0.838998 0)
(2.38029 -0.840324 0)
(2.38378 -0.841372 0)
(2.38798 -0.841963 0)
(2.39401 -0.842183 0)
(2.39925 -0.841978 0)
(2.40382 -0.842622 0)
(2.40835 -0.843522 0)
(2.4125 -0.843536 0)
(2.41447 -0.841478 0)
(2.4138 -0.83816 0)
(2.41463 -0.836559 0)
(2.41698 -0.836288 0)
(2.41939 -0.83649 0)
(2.42184 -0.837099 0)
(2.42516 -0.838305 0)
(2.42833 -0.839604 0)
(2.4316 -0.840848 0)
(2.43505 -0.841954 0)
(2.43848 -0.84239 0)
(2.44084 -0.841572 0)
(2.44296 -0.840657 0)
(2.44642 -0.840978 0)
(2.44982 -0.841643 0)
(2.4534 -0.842178 0)
(2.45752 -0.842486 0)
(2.46149 -0.842414 0)
(2.46488 -0.84216 0)
(2.46809 -0.841192 0)
(2.4701 -0.838725 0)
(2.46972 -0.833742 0)
(2.467 -0.827123 0)
(2.46488 -0.822828 0)
(2.46633 -0.822008 0)
(2.46886 -0.822073 0)
(2.47138 -0.822151 0)
(2.47418 -0.821972 0)
(2.47727 -0.821799 0)
(2.48057 -0.822161 0)