/*--------------------------------*- C++ -*----------------------------------*\
  =========                 |
  \\      /  F ield         | OpenFOAM: The Open Source CFD Toolbox
   \\    /   O peration     | Website:  https://openfoam.org
    \\  /    A nd           | Version:  7
     \\/     M anipulation  |
\*---------------------------------------------------------------------------*/
FoamFile
{
    version     2.0;
    format      ascii;
    class       volScalarField;
    location    "1.2";
    object      p;
}
// * * * * * * * * * * * * * * * * * * * * * * * * * * * * * * * * * * * * * //

dimensions      [1 -1 -2 0 0 0 0];

internalField   nonuniform List<scalar> 
4128
(
1
1
1
1
1
1
1
1
1
1
1
1
1
1
1
1
1
1.43538
7.87163
10.8473
11.1066
11.4431
11.6904
11.8993
1
1
1
1
1
1
1
1
1
1
1
1
1
1
1
1
1
1.33349
7.54103
10.761
11.0225
11.335
11.5431
11.6412
1
1
1
1
1
1
1
1
1
1
1
1
1
1
1
1
1
1.08519
6.82949
10.5522
10.7737
10.999
11.1369
11.2933
1
1
1
1
1
1
1
1
1
1
1
1
1
1
1
1
1
1.003
5.70935
10.1712
10.4285
10.6381
10.7234
11.0001
1
1
1
1
1
1
1
1
1
1
1
1
1
1
1
1
1
1
4.30328
9.57337
10.0589
10.1033
9.48494
7.85542
1
1
1
1
1
1
1
1
1
1
1
1
1
1
1
1
1
1
2.70646
8.64271
9.7473
9.54523
8.76939
7.15322
1
1
1
1
1
1
1
1
1
1
1
1
1
1
1
1
1
1
1.27384
7.21415
9.58103
9.00526
8.19799
6.57497
1
1
1
1
1
1
1
1
1
1
1
1
1
1
1
1
1
1
1.00846
5.19663
8.76178
8.28549
7.63104
6.32368
1
1
1
1
1
1
1
1
1
1
1
1
1
1
1
1
1
1
0.999904
2.56785
7.67401
8.08808
7.34803
6.29529
1
1
1
1
1
1
1
1
1
1
1
1
1
1
1
1
1
1
0.999977
1.18567
5.52298
7.92989
7.15278
6.29323
1
1
1
1
1
1
1
1
1
1
1
1
1
1
1
1
1
1
0.999996
1.0027
2.53007
6.89929
7.08288
6.32919
1
1
1
1
1
1
1
1
1
1
1
1
1
1
1
1
1
1
1
1
1.17465
4.73291
7.09837
6.42015
1
1
1
1
1
1
1
1
1
1
1
1
1
1
1
1
1
1
1
1
1.00283
1.99128
5.73323
6.49569
1
1
1
1
1
1
1
1
1
1
1
1
1
1
1
1
1
1
1
1
1.00001
1.07381
3.27424
5.99673
1
1
1
1
1
1
1
1
1
1
1
1
1
1
1
1
1
1
1
1
1
1.00095
1.3858
4.19612
1
1
1
1
1
1
1
1
1
1
1
1
1
1
1
1
1
1
1
1
1
1
1.01427
1.85674
1
1
1
1
1
1
1
1
1
1
1
1
1
1
1
1
1
1
1
1
1
1
1.00012
1.0616
1
1
1
1
1
1
1
1
1
1
1
1
1
1
1
1
1
1
1
1
1
1
1
1.00097
1
1
1
1
1
1
1
1
1
1
1
1
1
1
1
1
1
1
1
1
1
1
1
1
1
1
1
1
1
1
1
1
1
1
1
1
1
1
1
1
1
1
1
1
1
1
1
1
1
1
1
1
1
1
1
1
1
1
1
1
1
1
1
1
1
1
1
1
1
1
1
1
1
1
1
1
1
1
1
1
1
1
1
1
1
1
1
1
1
1
1
1
1
1
1
1
1
1
1
1
1
1
1
1
1
1
1
1
1
1
1
1
1
1
1
1
1
1
1
1
1
1
1
1
1
1
1
1
1
1
1
1
1
1
1
1
1
1
1
1
1
1
1
1
1
1
1
1
1
1
1
1
1
1
1
1
1
1
1
1
1
1
1
1
1
1
1
1
1
1
1
1
1
1
1
1
1
1
1
1
1
1
1
1
1
1
1
1
1
1
1
1
1
1
1
1
1
1
1
1
1
1
1
1
1
1
1
1
1
1
1
1
1
1
1
1
1
1
1
1
1
1
1
1
1
1
1
1
1
1
1
1
1
1
1
1
1
1
1
1
1
1
1
1
1
1
1
1
1
1
1
1
1
1
1
1
1
1
1
1
1
1
1
1
1
1
1
1
1
1
1
1
1
1
1
1
1
1
1
1
1
1
1
1
1
1
1
1
1
1
1
1
1
1
1
1
1
1
1
1
1
1
1
1
1
1
1
1
1
1
1
1
1
1
1
1
1
1
1
1
1
1
1
1
1
1
1
1
1
1
1
1
1
1
1
1
1
1
1
1
1
1
1
1
1
1
1
1
1
1
1
1
1
1
1
1
1
1
1
1
1
1
1
1
1
1
1
1
1
1
1
1
1
1
1
1
1
1
1
1
1
1
1
1
1
1
1
1
1
1
1
1
1
1
1
1
1
1
1
1
1
1
1
1
1
1
1
1
1
1
1
1
1
1
1
1
1
1
1
1
1
1
1
1
1
1
1
1
1
1
1
1
1
1
1
1
1
1
1
1
1
1
1
1
1
1
1
1
1
1
1
1
1
1
1
1
1
1
1
1
1
1
1
1
1
1
1
1
1
1
1
1
1
1
1
1
1
1
1
1
1
1
1
1
1
1
1
1
1
1
1
1
1
1
1
1
1
1
1
1
1
1
1
1
1
1
1
1
1
1
1
1
1
1
1
1
1
1
1
1
1
1
1
1
1
1
1
1
2.12531
0.728733
0.440114
0.482576
0.522462
0.611317
0.812173
1.03985
1.1618
1.23715
1.2912
1.32323
1.34467
1.37461
1.37783
2.6561
5.29098
5.72767
5.94296
6.14385
6.28659
6.3678
6.40232
6.45362
3.47406
1.97129
1.31341
1.14111
0.995538
0.915497
0.908795
0.899117
0.933208
0.997074
1.07581
1.16103
1.22819
1.28848
1.3054
2.38914
5.14401
5.72621
5.92758
6.11993
6.25949
6.35232
6.38192
6.37491
4.23895
2.96871
2.14097
1.66163
1.36612
1.13621
1.01665
0.950552
0.905878
0.934533
1.01725
1.09698
1.15617
1.20303
1.22511
1.85994
4.82273
5.73187
5.91241
6.08202
6.20344
6.25792
6.23707
6.2664
4.79005
3.64577
2.83106
2.27491
1.87536
1.54436
1.33071
1.21989
1.11171
1.01349
1.00679
1.00865
1.01889
1.04945
1.09116
1.27323
4.22524
5.73188
5.88381
5.99562
6.0741
6.12399
6.08817
6.22309
5.14795
4.17014
3.37383
2.78068
2.31828
1.95674
1.69825
1.49158
1.33487
1.17088
1.05545
1.00625
0.983118
0.987642
1.01001
1.04125
3.0181
5.56648
5.84295
5.91314
5.94548
5.89539
5.55603
4.66948
5.36327
4.52799
3.80827
3.22582
2.72639
2.31847
2.03055
1.76807
1.57957
1.4343
1.26158
1.16421
1.09908
1.03466
1.03241
1.02921
1.69327
5.0069
5.75556
5.76737
5.74028
5.59951
5.16523
4.30114
5.53398
4.78423
4.13991
3.58073
3.05292
2.65027
2.35077
2.06289
1.80005
1.65754
1.49171
1.33833
1.25637
1.15484
1.0819
1.03967
1.09219
3.76491
5.58007
5.607
5.53988
5.32801
4.9401
4.10891
5.68232
4.98427
4.3757
3.85721
3.34121
2.9238
2.63186
2.34167
2.04195
1.88285
1.73511
1.53466
1.41841
1.33312
1.22276
1.15403
1.11039
2.11605
5.10283
5.49083
5.37831
5.14516
4.76856
4.06794
5.80654
5.12901
4.55341
4.07273
3.61863
3.19548
2.8895
2.60148
2.28559
2.08844
1.95145
1.76196
1.60204
1.50798
1.39167
1.27857
1.1743
1.28309
3.73478
5.31944
5.26651
5.03096
4.6626
4.09853
5.90741
5.33388
4.77432
4.28434
3.83482
3.46216
3.13831
2.83443
2.5236
2.32107
2.14754
1.9472
1.76453
1.68036
1.57289
1.44494
1.32575
1.2594
2.01589
4.73546
5.27967
5.04172
4.66758
4.16368
5.80532
5.56047
5.0176
4.50769
4.0563
3.68705
3.37585
3.0537
2.73872
2.52759
2.34496
2.15077
1.9518
1.84856
1.72651
1.58957
1.48631
1.36132
1.42272
3.34962
5.09754
4.97637
4.60888
4.16793
4.57611
5.50237
5.24024
4.74391
4.26618
3.87965
3.56445
3.26118
2.96765
2.73667
2.53656
2.31062
2.12103
2.01198
1.90377
1.75055
1.61797
1.51346
1.42853
1.92903
4.18657
4.95077
4.61808
4.24514
2.29025
4.66012
5.25891
4.99118
4.5068
4.10848
3.77005
3.43575
3.15983
2.94337
2.73118
2.5084
2.29153
2.16682
2.04937
1.90016
1.76947
1.68483
1.53571
1.55313
2.71198
4.47406
4.67355
4.35085
1.13871
2.60559
4.61252
5.04306
4.78292
4.34859
3.9795
3.63465
3.34687
3.12464
2.92518
2.67605
2.46371
2.3392
2.21675
2.04834
1.88946
1.82061
1.70921
1.58326
1.7734
3.36281
4.53401
4.4371
1.00331
1.22496
2.77879
4.49954
4.83809
4.61758
4.23286
3.85214
3.53191
3.29588
3.0943
2.86949
2.64362
2.49025
2.36582
2.20207
2.03902
1.95608
1.86767
1.68518
1.68462
2.16629
3.74046
4.44988
1.00002
1.00723
1.29382
2.83661
4.36479
4.6524
4.48612
4.12092
3.75186
3.49634
3.28306
3.02264
2.79316
2.65709
2.5293
2.35977
2.17756
2.09163
2.00461
1.85713
1.71708
1.76026
2.52902
3.8692
1
1.00006
1.01147
1.33183
2.80217
4.20313
4.51178
4.37009
4.03021
3.67403
3.44482
3.22474
2.99901
2.81364
2.67088
2.49772
2.33457
2.23455
2.14644
2.01402
1.84468
1.78388
1.89082
2.80184
1
1
1.00011
1.01414
1.34072
2.68981
4.08634
4.35286
4.25077
3.96645
3.65798
3.37564
3.15737
2.99405
2.8423
2.67354
2.47661
2.36321
2.27048
2.14974
2.01154
1.88699
1.85625
2.01754
1
1
1
1.00014
1.01564
1.3108
2.59818
3.87226
4.18556
4.15466
3.9376
3.63151
3.35545
3.14806
2.97656
2.80036
2.64432
2.53312
2.41923
2.26532
2.12138
2.02807
1.91847
1.93321
1
1
1
1
1.00016
1.01403
1.27271
2.4241
3.60399
4.08533
4.09706
3.90112
3.58317
3.3456
3.15972
2.95713
2.77924
2.65802
2.54583
2.41703
2.27301
2.167
2.05878
1.94813
1
1
1
1
1
1.00015
1.01096
1.23086
2.1454
3.41936
4.00843
4.00595
3.83322
3.57486
3.35397
3.10727
2.9351
2.8142
2.69568
2.54345
2.3808
2.28882
2.2044
2.07976
1
1
1
1
1
1
1.00011
1.00835
1.16302
1.89619
3.27972
3.84524
3.85572
3.78003
3.59607
3.33179
3.08155
2.9192
2.81598
2.70967
2.57472
2.43805
2.31311
2.1884
1
1
1
1
1
1
1
1.00007
1.00518
1.10301
1.7385
3.05325
3.60651
3.75103
3.73595
3.56415
3.3121
3.1195
2.95912
2.77771
2.68487
2.60235
2.48998
2.36634
1
1
1
1
1
1
1
1
1.00004
1.00284
1.06891
1.60526
2.68622
3.39466
3.69817
3.70451
3.54431
3.33098
3.14615
2.97329
2.80883
2.6465
2.573
2.51707
1
1
1
1
1
1
1
1
1
1.00002
1.00163
1.04597
1.42215
2.24949
3.23507
3.66089
3.6403
3.51645
3.35605
3.17771
2.99676
2.82573
2.67771
2.53376
1
1
1
1
1
1
1
1
1
1
1.00001
1.0008
1.02447
1.23253
1.91684
3.10938
3.46954
3.50579
3.4932
3.38866
3.15408
2.97145
2.8184
2.68656
1
1
1
1
1
1
1
1
1
1
1
1
1.00029
1.01023
1.12044
1.74585
2.8237
3.2628
3.42704
3.46367
3.36023
3.17275
2.9728
2.82253
1
1
1
1
1
1
1
1
1
1
1
1
1
1.0001
1.00412
1.07952
1.57936
2.40827
3.00767
3.38633
3.43032
3.37729
3.21526
3.02352
1
1
1
1
1
1
1
1
1
1
1
1
1
1
1.00003
1.00239
1.04693
1.33267
1.91747
2.84677
3.26695
3.27169
3.25065
3.18186
1
1
1
1
1
1
1
1
1
1
1
1
1
1
1
1.00002
1.00078
1.01881
1.1293
1.6305
2.51522
3.08384
3.26941
3.25549
1
1
1
1
1
1
1
1
1
1
1
1
1
1
1
1
1
1.00021
1.00403
1.06428
1.45208
2.21212
2.78022
3.14572
1
1
1
1
1
1
1
1
1
1
1
1
1
1
1
1
1
1
1.00003
1.00196
1.03553
1.26437
1.79307
2.57962
1
1
1
1
1
1
1
1
1
1
1
1
1
1
1
1
1
1
1
1.00002
1.00065
1.0143
1.11625
1.47449
1
1
1
1
1
1
1
1
1
1
1
1
1
1
1
1
1
1
1
1
1
1.00016
1.00377
1.03929
1
1
1
1
1
1
1
1
1
1
1
1
1
1
1
1
1
1
1
1
1
1
1.00002
1.00074
1
1
1
1
1
1
1
1
1
1
1
1
1
1
1
1
1
1
1
1
1
1
1
1
1.46117
0.659457
0.451941
0.473321
0.60366
0.795425
1.01034
1.17233
1.21506
1.20467
1.20025
1.23436
1.29782
1.31775
1.30031
1.25957
1.20401
1.18045
1.17566
1.1858
1.19714
1.1885
1.17545
1.15343
1.13763
1.13322
1.13104
1.13615
1.1383
1.13438
1.12878
1.11813
1.10195
1.08843
1.07898
1.07338
1.07242
1.07178
1.06732
1.05869
1.04601
1.02735
1.00843
1.00137
0.996327
0.990604
0.985689
0.982348
0.980414
0.977092
0.965646
0.942467
0.914133
0.895893
0.887531
0.886678
0.888896
0.890068
0.8918
0.893974
0.889269
0.873769
0.856447
0.845303
0.83368
0.824292
0.823663
0.832938
0.832549
0.824818
0.81346
0.822481
2.24935
1.51995
1.11214
0.905723
0.892519
0.87284
0.882466
0.934122
1.00523
1.08341
1.1407
1.18852
1.23662
1.25482
1.2503
1.22393
1.19125
1.18128
1.17934
1.19122
1.20216
1.19602
1.18324
1.16033
1.13931
1.13195
1.12761
1.12662
1.12805
1.12851
1.12628
1.12152
1.11071
1.09652
1.08514
1.07536
1.06946
1.06717
1.06449
1.05874
1.05058
1.03871
1.01898
0.999189
0.990718
0.983905
0.977456
0.972144
0.969776
0.968447
0.962733
0.950479
0.933875
0.916304
0.90137
0.893145
0.890737
0.889826
0.88971
0.889671
0.886115
0.875046
0.860415
0.848345
0.836805
0.828215
0.82497
0.826174
0.831324
0.834614
0.852849
1.00096
2.8192
2.07653
1.6444
1.30383
1.07537
0.964917
0.8868
0.882871
0.915901
0.998342
1.08348
1.13676
1.17755
1.21348
1.24497
1.24629
1.22904
1.21901
1.21462
1.21145
1.20214
1.19229
1.17545
1.15014
1.13765
1.13337
1.13118
1.12887
1.12716
1.12827
1.12847
1.12553
1.11759
1.10507
1.09262
1.07915
1.06447
1.05818
1.05671
1.05411
1.04893
1.04221
1.03092
1.01522
1.00062
0.988142
0.976576
0.96474
0.951638
0.942953
0.942435
0.940958
0.935701
0.928068
0.918747
0.909855
0.903304
0.896718
0.888524
0.880504
0.873902
0.869163
0.862224
0.851805
0.84114
0.832161
0.82574
0.827842
0.859374
0.941069
1.09076
1.38413
3.21077
2.51036
2.05737
1.73585
1.40325
1.18659
1.09468
1.01231
0.950304
0.957533
0.982552
1.01601
1.05552
1.09831
1.14356
1.18996
1.21331
1.2341
1.24443
1.23901
1.21821
1.18961
1.16268
1.13907
1.12996
1.12572
1.12586
1.12876
1.12997
1.12867
1.12585
1.12053
1.11281
1.10401
1.09621
1.08756
1.0749
1.062
1.05653
1.05282
1.0465
1.03737
1.0255
1.01322
1.0024
0.992635
0.983636
0.974289
0.963141
0.951483
0.944064
0.93979
0.93469
0.928543
0.920588
0.911152
0.902813
0.895871
0.886463
0.874895
0.86964
0.866366
0.861426
0.857719
0.85149
0.84467
0.864641
0.939705
1.11278
1.33446
1.52543
1.66218
3.4755
2.88958
2.37089
2.03535
1.75037
1.45465
1.25808
1.17334
1.07077
0.989803
0.97598
0.973373
0.969939
0.987406
1.03427
1.0917
1.13722
1.16706
1.19968
1.21802
1.2148
1.20178
1.18632
1.16384
1.14426
1.1308
1.12474
1.12342
1.12424
1.12103
1.11525
1.11185
1.10896
1.10377
1.09738
1.09089
1.08246
1.07171
1.06215
1.05499
1.04642
1.03405
1.02023
1.00871
0.999577
0.991478
0.983326
0.974249
0.965617
0.958746
0.953682
0.950245
0.946673
0.939813
0.928476
0.91432
0.896677
0.877745
0.86697
0.862266
0.861393
0.856993
0.854526
0.863231
0.883529
0.952184
1.12767
1.36948
1.58127
1.73164
1.78117
1.73459
3.62978
3.13295
2.65303
2.2558
2.00046
1.75224
1.48945
1.36198
1.26641
1.13681
1.067
1.02717
0.97919
0.962621
0.96641
0.993337
1.04455
1.08736
1.12859
1.16159
1.17035
1.16698
1.17121
1.17879
1.17373
1.16329
1.14923
1.13446
1.12105
1.1074
1.09788
1.09567
1.09589
1.09695
1.09625
1.09573
1.09167
1.08349
1.07174
1.0592
1.04438
1.02791
1.01712
1.00867
1.00132
0.994445
0.986973
0.978362
0.970387
0.963508
0.957335
0.952138
0.946964
0.939013
0.92797
0.91438
0.895177
0.873049
0.859018
0.853946
0.849861
0.853717
0.881913
0.958904
1.13112
1.39235
1.62718
1.81303
1.84336
1.84619
1.80844
1.69027
3.70263
3.27163
2.8741
2.49872
2.19599
1.97664
1.75635
1.55836
1.43082
1.30764
1.18695
1.10783
1.03493
0.967679
0.957635
0.966668
0.979133
0.996584
1.02742
1.06737
1.09898
1.11379
1.12919
1.15146
1.16965
1.17025
1.16178
1.14593
1.12728
1.10851
1.09663
1.09183
1.09157
1.09197
1.09291
1.09718
1.0978
1.09137
1.07901
1.06223
1.04133
1.02466
1.0174
1.01072
1.0039
0.998177
0.992336
0.985813
0.979376
0.972083
0.96237
0.950995
0.939395
0.927564
0.913253
0.896025
0.878148
0.865477
0.85945
0.866073
0.890913
0.959595
1.1302
1.39314
1.66921
1.89309
1.94067
1.93242
1.85125
1.78646
1.73995
1.62227
3.83438
3.42469
3.06552
2.74236
2.4242
2.16499
1.97467
1.7896
1.60958
1.46231
1.33832
1.24131
1.15962
1.06278
1.02116
1.01351
0.989372
0.979826
0.972873
0.976176
0.992963
1.02299
1.06163
1.10434
1.14053
1.14779
1.142
1.13281
1.12562
1.11905
1.11162
1.10733
1.1062
1.10355
1.09509
1.08947
1.08774
1.08329
1.07387
1.06012
1.04408
1.0318
1.02442
1.01701
1.00937
1.00379
0.999498
0.994334
0.98751
0.976264
0.959981
0.943838
0.92966
0.915349
0.898669
0.882706
0.876353
0.88426
0.913987
0.989786
1.15213
1.39743
1.68385
1.8855
2.007
2.0134
1.94221
1.84674
1.78342
1.74655
1.70116
1.60095
3.97146
3.58375
3.21774
2.9213
2.64089
2.36041
2.14106
1.96786
1.78714
1.61143
1.48571
1.38675
1.28657
1.17846
1.10282
1.07081
1.02672
0.979265
0.957306
0.956466
0.949775
0.953476
0.975264
1.02222
1.07894
1.10323
1.10054
1.09703
1.10273
1.11162
1.12046
1.12564
1.12515
1.12026
1.10847
1.09109
1.07461
1.06797
1.06183
1.05427
1.04701
1.04262
1.03647
1.02743
1.01764
1.01053
1.0059
0.999995
0.98907
0.971222
0.950693
0.933283
0.919653
0.90558
0.901177
0.910882
0.941297
1.03031
1.18389
1.43744
1.72435
1.92896
2.05507
2.04621
1.99551
1.93359
1.85933
1.81308
1.78311
1.72776
1.67112
1.57604
4.08797
3.72705
3.38231
3.07653
2.81032
2.54304
2.30836
2.12915
1.9601
1.76313
1.62001
1.5282
1.4324
1.31819
1.21612
1.16804
1.11711
1.04646
0.99468
0.985451
0.965104
0.947879
0.950286
0.959971
0.985805
1.00725
1.02654
1.04937
1.06655
1.08018
1.09725
1.11991
1.12993
1.12764
1.12005
1.10416
1.08014
1.06273
1.0571
1.05256
1.04957
1.04816
1.04642
1.03845
1.02715
1.01703
1.00927
0.998921
0.981478
0.960845
0.944397
0.929744
0.92646
0.937624
0.983987
1.08419
1.26371
1.50497
1.72427
1.933
2.0909
2.12566
2.0808
1.99515
1.92769
1.8903
1.86194
1.81618
1.75753
1.67994
1.60702
1.53389
4.23841
3.88151
3.54201
3.23782
2.96663
2.71854
2.48457
2.28595
2.10888
1.9265
1.76802
1.66933
1.56704
1.44849
1.34207
1.28565
1.22145
1.13524
1.05252
1.02524
0.995156
0.957638
0.935805
0.939316
0.955055
0.973725
0.977967
0.992966
1.01579
1.03242
1.05019
1.07669
1.10246
1.12109
1.1228
1.11766
1.0986
1.07632
1.06668
1.05804
1.05328
1.05159
1.05128
1.04612
1.03565
1.02278
1.00885
0.99084
0.970936
0.957261
0.955688
0.971884
1.03226
1.15618
1.39404
1.61898
1.87952
1.99022
2.07345
2.11631
2.1148
2.07691
2.01945
1.96371
1.93182
1.90174
1.84641
1.77807
1.70313
1.61504
1.55201
1.50314
4.30465
4.07877
3.72432
3.41479
3.13559
2.86668
2.64594
2.45796
2.27614
2.06886
1.90908
1.8034
1.70572
1.58208
1.46428
1.40239
1.33039
1.2415
1.1422
1.10504
1.07355
1.01979
0.965636
0.959266
0.961242
0.948641
0.940114
0.942022
0.951353
0.961475
0.976691
1.01154
1.05454
1.08083
1.10034
1.11073
1.1053
1.09969
1.08896
1.07545
1.06411
1.05802
1.0542
1.04783
1.03792
1.02305
1.00562
0.984872
0.98295
1.00523
1.07056
1.23361
1.47247
1.74204
1.96223
2.11174
2.19104
2.16867
2.14159
2.09225
2.03963
2.00849
2.00202
1.99414
1.94401
1.87085
1.79104
1.71242
1.637
1.57183
1.53336
1.48992
3.86467
4.16175
3.94646
3.60232
3.30887
3.04348
2.79874
2.60402
2.42875
2.23942
2.06653
1.94372
1.83468
1.70509
1.58583
1.51715
1.44805
1.35368
1.23922
1.19004
1.16146
1.11067
1.03115
1.00349
0.989786
0.957001
0.925845
0.918882
0.924255
0.933852
0.945732
0.957643
0.987198
1.02106
1.04236
1.05819
1.07104
1.09036
1.10143
1.09677
1.08722
1.07602
1.06154
1.0447
1.03433
1.02028
1.01977
1.04111
1.12317
1.31607
1.55529
1.8493
2.03019
2.18888
2.20847
2.22037
2.20834
2.1667
2.0986
2.03527
2.00631
2.0009
1.99458
1.95528
1.90106
1.82904
1.73926
1.65156
1.60289
1.56477
1.53357
1.49334
2.96765
3.81285
4.0344
3.83313
3.50796
3.20071
2.95363
2.77193
2.59514
2.38557
2.21547
2.09676
1.97175
1.82684
1.69259
1.63187
1.55905
1.46269
1.34731
1.28428
1.25499
1.20195
1.11788
1.07156
1.05433
1.02013
0.965597
0.931664
0.929798
0.925732
0.918199
0.919235
0.928406
0.947243
0.960645
0.984047
1.01581
1.04242
1.06937
1.08933
1.09274
1.08741
1.07685
1.05822
1.05594
1.08412
1.18833
1.36888
1.66749
1.93476
2.15399
2.27506
2.27774
2.27496
2.22359
2.18731
2.1546
2.11483
2.06622
2.02152
1.99585
1.97324
1.93978
1.89873
1.85096
1.78775
1.70795
1.6411
1.59955
1.5662
1.54245
1.48624
2.18288
3.09242
3.74838
3.92923
3.74734
3.44417
3.125
2.8987
2.74533
2.56452
2.37876
2.23752
2.11755
1.95622
1.80573
1.73692
1.67371
1.58716
1.46002
1.39338
1.35424
1.30077
1.21111
1.1425
1.12572
1.09253
1.02915
0.96895
0.959212
0.947393
0.920543
0.904246
0.907883
0.921094
0.934604
0.934899
0.949182
0.978342
1.01262
1.04121
1.05291
1.07375
1.10552
1.15447
1.26712
1.46923
1.75082
2.02654
2.25531
2.32411
2.3804
2.38114
2.31652
2.22741
2.15307
2.11919
2.10547
2.0848
2.05582
2.02735
1.98877
1.93478
1.89328
1.86078
1.82523
1.77509
1.70615
1.64963
1.60417
1.56328
1.52822
1.4603
1.96049
2.27999
3.13974
3.6838
3.85552
3.68374
3.37724
3.0985
2.88943
2.6938
2.52123
2.39499
2.26443
2.10417
1.92747
1.84171
1.78686
1.69706
1.58529
1.50114
1.45786
1.39916
1.30655
1.22145
1.19576
1.17018
1.11152
1.03496
1.01636
1.00297
0.972554
0.928163
0.915235
0.918366
0.91091
0.899921
0.901061
0.916113
0.9418
0.973337
1.02863
1.12692
1.29573
1.54708
1.81366
2.11807
2.3249
2.42981
2.47543
2.45304
2.42122
2.36134
2.26645
2.16881
2.10769
2.08038
2.0753
2.05662
2.0253
2.00162
1.97344
1.92063
1.87018
1.84203
1.81031
1.76502
1.7132
1.66231
1.60625
1.54945
1.50259
1.42505
1.97534
2.0015
2.34947
3.13619
3.60681
3.77817
3.62201
3.33817
3.0868
2.8572
2.64528
2.50981
2.39881
2.25406
2.07447
1.98475
1.9084
1.81018
1.67654
1.61039
1.5673
1.49918
1.4041
1.29964
1.27143
1.25196
1.19804
1.11919
1.08423
1.07191
1.04108
0.980184
0.941002
0.934909
0.915155
0.890349
0.89122
0.907582
0.953432
1.05297
1.20959
1.4631
1.78584
2.03729
2.24794
2.44613
2.51625
2.51508
2.49151
2.45189
2.39949
2.33443
2.255
2.19663
2.13515
2.07161
2.0379
2.00709
1.97613
1.95873
1.94387
1.91052
1.86551
1.83965
1.81057
1.76774
1.71413
1.65488
1.59371
1.52877
1.47385
1.39349
2.07981
2.02417
2.06033
2.40557
3.10267
3.53281
3.69709
3.56624
3.31918
3.07714
2.83001
2.62956
2.50886
2.38301
2.23242
2.11794
2.04029
1.94543
1.80432
1.70036
1.65236
1.5993
1.51232
1.39822
1.35669
1.33264
1.28587
1.19902
1.16137
1.14738
1.11677
1.05688
0.995745
0.980227
0.96034
0.947549
0.970044
1.04363
1.19825
1.41339
1.6524
1.92418
2.0779
2.21714
2.34153
2.39576
2.45705
2.45877
2.42376
2.39169
2.37699
2.3412
2.2871
2.23644
2.16226
2.07385
2.01714
1.96943
1.92307
1.9049
1.90028
1.89224
1.87411
1.8437
1.7989
1.74933
1.69477
1.63178
1.57018
1.50799
1.45201
1.37959
2.19777
2.06591
2.05326
2.10277
2.44139
3.0622
3.48354
3.61276
3.50695
3.29138
3.0451
2.83204
2.66648
2.49678
2.34748
2.26128
2.17438
2.069
1.93593
1.82031
1.76282
1.69439
1.60129
1.4938
1.43885
1.42357
1.37959
1.29629
1.2326
1.21801
1.19125
1.13799
1.08418
1.06399
1.08506
1.15574
1.30249
1.51145
1.74951
1.91116
2.05328
2.10755
2.15361
2.25294
2.29563
2.30029
2.30923
2.31264
2.29011
2.27999
2.29596
2.28796
2.26418
2.22866
2.15121
2.05893
1.99865
1.94155
1.89476
1.8771
1.87111
1.86304
1.84945
1.82955
1.79495
1.74467
1.685
1.6135
1.54169
1.48224
1.4428
1.38293
2.40247
2.26148
2.09395
2.0742
2.12486
2.43212
3.01683
3.42885
3.51998
3.44959
3.25915
3.02095
2.83828
2.67716
2.5049
2.37109
2.27415
2.19705
2.07868
1.95589
1.87157
1.79924
1.7129
1.58296
1.53055
1.5095
1.46656
1.39051
1.32282
1.3027
1.28038
1.25036
1.27022
1.35463
1.52828
1.78626
1.97485
2.10482
2.19842
2.24017
2.2352
2.2048
2.21779
2.25303
2.24759
2.22812
2.21123
2.18042
2.14974
2.13624
2.13853
2.15562
2.16514
2.14176
2.08413
2.0179
1.97009
1.92408
1.89189
1.87566
1.8659
1.85455
1.83509
1.80955
1.77815
1.73655
1.68685
1.62449
1.55822
1.48374
1.42384
1.36322
2.46672
2.41821
2.31021
2.17977
2.10457
2.13465
2.3914
2.96089
3.37108
3.42758
3.38468
3.24009
3.03377
2.84147
2.676
2.54168
2.40805
2.29007
2.18676
2.08425
1.98947
1.91019
1.81936
1.70798
1.62345
1.59513
1.55328
1.48821
1.43832
1.42766
1.48183
1.60558
1.82321
2.03982
2.30841
2.47907
2.45847
2.46295
2.46998
2.43958
2.38181
2.35354
2.3559
2.36796
2.33804
2.28078
2.21223
2.14131
2.09671
2.06736
2.04559
2.02749
2.00663
1.9714
1.93967
1.91482
1.90016
1.89537
1.90111
1.88889
1.85731
1.82937
1.80685
1.78207
1.75811
1.72581
1.68045
1.62375
1.55999
1.48536
1.42364
1.34793
2.56803
2.47116
2.42153
2.34185
2.22606
2.13216
2.14823
2.384
2.91387
3.27269
3.36694
3.36823
3.2518
3.05341
2.83987
2.6989
2.57151
2.43765
2.30267
2.19098
2.10009
2.01109
1.92264
1.81243
1.7401
1.70588
1.67238
1.66724
1.73801
1.92224
2.16209
2.39987
2.59187
2.7458
2.82248
2.80104
2.70257
2.64881
2.61114
2.5683
2.5482
2.53097
2.5159
2.48504
2.42181
2.32621
2.22499
2.13869
2.06728
2.02166
1.98848
1.94925
1.89389
1.84746
1.82242
1.81106
1.79935
1.80402
1.81915
1.81615
1.78471
1.76133
1.76223
1.7684
1.76604
1.74905
1.69936
1.63062
1.57001
1.51515
1.45172
1.34411
2.69881
2.59144
2.51132
2.40969
2.31219
2.22446
2.16422
2.17899
2.40237
2.83002
3.16598
3.32248
3.35556
3.26761
3.08607
2.88246
2.70772
2.56379
2.43802
2.32497
2.22029
2.11576
2.01471
1.94712
1.89633
1.9229
2.06663
2.31465
2.70769
2.92147
3.02271
3.08763
3.02255
2.97165
2.94024
2.93293
2.90486
2.87233
2.8324
2.81647
2.81474
2.78418
2.71978
2.62706
2.5109
2.38163
2.2712
2.19003
2.11717
2.04175
1.97284
1.91291
1.84762
1.78876
1.75944
1.74012
1.71722
1.706
1.7133
1.72646
1.72093
1.69794
1.69874
1.70025
1.69963
1.69033
1.6712
1.64048
1.58723
1.51536
1.44169
1.3355
2.83663
2.71085
2.62276
2.53186
2.41548
2.30229
2.23267
2.20598
2.21931
2.39847
2.72058
3.08272
3.26562
3.31313
3.25176
3.09061
2.89776
2.72357
2.55643
2.40832
2.33408
2.27308
2.22647
2.27027
2.45699
2.78735
3.11654
3.44196
3.69546
3.67311
3.53679
3.42662
3.30858
3.16782
3.1099
3.11077
3.12976
3.12592
3.10201
3.07536
3.03146
2.95893
2.85144
2.71664
2.57562
2.45208
2.35391
2.27173
2.19088
2.0969
1.99525
1.90657
1.8283
1.77411
1.74832
1.71833
1.68443
1.65233
1.6376
1.63659
1.63768
1.62733
1.62611
1.63374
1.64365
1.64719
1.62997
1.58998
1.54407
1.49583
1.44045
1.34284
3.02075
2.84431
2.72364
2.64191
2.56338
2.45987
2.31506
2.23209
2.23875
2.2432
2.35185
2.6493
3.03628
3.1853
3.24874
3.21949
3.09973
2.89405
2.74986
2.62203
2.59082
2.73349
3.01516
3.46141
3.87852
3.96493
3.96904
3.95543
3.89925
3.76769
3.61025
3.50905
3.44641
3.40991
3.39118
3.37759
3.37647
3.38011
3.34464
3.2796
3.18903
3.0687
2.91931
2.75304
2.60343
2.49406
2.4069
2.32489
2.24619
2.16381
2.06597
1.94768
1.83956
1.79397
1.76512
1.72725
1.68085
1.63883
1.60849
1.58915
1.58372
1.58351
1.57925
1.57939
1.58087
1.58425
1.56536
1.5295
1.4888
1.44013
1.38952
1.3061
3.19404
3.05674
2.89415
2.73912
2.65639
2.5847
2.48536
2.36315
2.24949
2.209
2.22016
2.31679
2.64147
2.92943
3.11019
3.20668
3.22266
3.1955
3.24518
3.44425
3.82851
4.23542
4.55536
4.87302
4.87329
4.73475
4.49937
4.24239
4.00363
3.79912
3.69479
3.64909
3.64573
3.6873
3.705
3.69209
3.67088
3.613
3.53139
3.4215
3.28057
3.11956
2.94485
2.77657
2.64407
2.545
2.45787
2.37203
2.28632
2.19595
2.0991
1.99515
1.89687
1.81944
1.76591
1.73097
1.70088
1.6665
1.62062
1.57966
1.55084
1.54314
1.5454
1.54649
1.53996
1.52626
1.50314
1.46677
1.42642
1.38708
1.34605
1.27832
3.22228
3.20116
3.12004
2.96409
2.83372
2.68033
2.55481
2.47664
2.3799
2.26318
2.2169
2.23003
2.32246
2.58005
2.93015
3.20337
3.61771
4.34829
4.9263
5.32968
5.51546
5.34047
5.21658
5.1449
5.00771
4.81309
4.60832
4.38324
4.20778
4.09873
4.04472
4.0723
4.13431
4.10433
4.05756
3.98873
3.88592
3.76933
3.63645
3.49023
3.32735
3.14971
2.97306
2.8212
2.70134
2.59797
2.5002
2.40603
2.31449
2.22052
2.12147
2.02918
1.95411
1.88908
1.8249
1.7597
1.69687
1.65304
1.62942
1.60151
1.56027
1.52683
1.52013
1.51589
1.50544
1.49168
1.4652
1.42221
1.37814
1.34301
1.30826
1.24743
3.06212
3.08351
3.06628
3.05724
2.97741
2.8375
2.6841
2.55528
2.48151
2.38893
2.26785
2.23289
2.26528
2.45821
3.0193
4.0276
5.17995
6.06127
6.48807
6.64254
6.53175
6.17135
5.67226
5.23188
4.92406
4.73824
4.55901
4.49296
4.47561
4.51397
4.52029
4.57963
4.61061
4.53977
4.39187
4.2073
4.03663
3.89331
3.7353
3.55125
3.37858
3.22412
3.07943
2.94605
2.82472
2.70609
2.58413
2.46802
2.36326
2.26562
2.17003
2.08192
2.00799
1.94093
1.8709
1.80077
1.73652
1.67754
1.62828
1.59865
1.57054
1.53604
1.52151
1.51459
1.49966
1.4733
1.43754
1.39368
1.35026
1.31508
1.2831
1.22402
2.25563
2.74941
3.03529
3.08402
3.05752
2.99159
2.86606
2.72575
2.6106
2.51639
2.44014
2.50459
2.82954
3.4757
4.30176
5.08306
5.74988
6.0637
6.31339
6.4943
6.4727
6.32584
6.03251
5.54189
5.19175
4.9608
4.80819
4.86604
4.95581
4.93979
4.93735
4.9434
4.88697
4.75826
4.55193
4.31182
4.07741
3.85533
3.6501
3.47635
3.33556
3.21096
3.087
2.96187
2.83419
2.71398
2.60148
2.48962
2.38878
2.294
2.20226
2.11491
2.03431
1.95974
1.89019
1.8264
1.77258
1.71974
1.64751
1.60112
1.59287
1.58309
1.5624
1.53495
1.49928
1.45935
1.4187
1.37459
1.33087
1.2963
1.26634
1.2096
1.27996
1.86303
2.46008
2.9316
3.00529
2.94717
2.92732
2.9159
2.92034
3.03099
3.29159
3.88136
4.63081
5.22765
5.42285
5.43499
5.49537
5.59404
5.71641
5.94374
6.01707
5.92544
5.75809
5.69413
5.62476
5.51503
5.42425
5.50959
5.5069
5.39909
5.31415
5.2024
5.01573
4.78301
4.53908
4.29955
4.05652
3.82021
3.61182
3.44375
3.31491
3.20992
3.10847
2.99509
2.8624
2.73118
2.63986
2.57413
2.49295
2.39907
2.30466
2.21475
2.13043
2.05229
1.98482
1.92279
1.84785
1.76635
1.68454
1.64437
1.62261
1.60065
1.5752
1.54326
1.50527
1.46383
1.42083
1.37424
1.33045
1.29457
1.26234
1.20284
1.01583
1.14402
1.45611
2.08968
2.68754
2.8927
3.22628
3.62148
4.10145
4.55233
5.00692
5.52297
5.62423
5.66247
5.53263
5.30528
5.06583
4.95599
4.99383
5.19717
5.41547
5.51859
5.6591
5.87627
6.11352
6.2311
6.20879
6.16814
6.00599
5.77843
5.53118
5.29068
5.04572
4.79005
4.54218
4.30819
4.07607
3.85014
3.6538
3.49545
3.35387
3.21825
3.09431
2.98401
2.8742
2.75816
2.64481
2.53459
2.43232
2.33967
2.25352
2.17347
2.09849
2.02479
1.95065
1.87677
1.79042
1.72914
1.72426
1.70708
1.68198
1.65805
1.63076
1.59511
1.55303
1.50646
1.45598
1.40371
1.35673
1.31446
1.27769
1.21705
1.0002
1.00552
1.04045
1.26115
1.98011
3.11672
4.21613
5.38706
6.42133
7.11121
7.4852
7.37223
6.92805
6.21144
5.51192
5.05503
4.79569
4.56603
4.48388
4.57397
4.80172
5.17343
5.66624
6.16686
6.50482
6.81398
6.88378
6.798
6.54862
6.11479
5.67699
5.31452
5.00636
4.7275
4.47859
4.2513
4.04234
3.8629
3.71857
3.58902
3.44142
3.27144
3.10637
2.96935
2.85813
2.75209
2.63843
2.52125
2.41378
2.32027
2.23576
2.16031
2.09313
2.03015
1.95853
1.86632
1.78195
1.7313
1.6911
1.65725
1.62701
1.60128
1.57077
1.53188
1.49316
1.4488
1.39467
1.34079
1.29633
1.25746
1.22481
1.1701
)
;

boundaryField
{
    inlet
    {
        type            fixedValue;
        value           uniform 1;
    }
    outlet
    {
        type            zeroGradient;
    }
    bottom
    {
        type            zeroGradient;
    }
    top
    {
        type            zeroGradient;
    }
    obstacle
    {
        type            zeroGradient;
    }
    defaultFaces
    {
        type            empty;
    }
}


// ************************************************************************* //
