/*--------------------------------*- C++ -*----------------------------------*\
  =========                 |
  \\      /  F ield         | OpenFOAM: The Open Source CFD Toolbox
   \\    /   O peration     | Website:  https://openfoam.org
    \\  /    A nd           | Version:  7
     \\/     M anipulation  |
\*---------------------------------------------------------------------------*/
FoamFile
{
    version     2.0;
    format      ascii;
    class       volVectorField;
    location    "1.8";
    object      U;
}
// * * * * * * * * * * * * * * * * * * * * * * * * * * * * * * * * * * * * * //

dimensions      [0 1 -1 0 0 0 0];

internalField   nonuniform List<vector> 
16512
(
(3 -1.2043e-15 0)
(3 -1.46817e-15 0)
(3 -1.05086e-15 0)
(3 -4.66587e-16 0)
(3 2.06912e-16 0)
(3 1.11028e-16 0)
(3 6.24485e-16 0)
(3 1.64576e-15 0)
(3 1.93379e-15 0)
(3 1.75385e-15 0)
(3 9.9806e-16 0)
(3 6.00376e-16 0)
(3 -5.68063e-18 0)
(3 -7.23385e-16 0)
(3 -2.62231e-15 0)
(3 -3.32649e-15 0)
(3 -1.83172e-15 0)
(3 -1.33004e-15 0)
(3 -1.15221e-15 0)
(3 -9.95085e-16 0)
(3 -6.87477e-16 0)
(3 2.44941e-16 0)
(3 9.15497e-16 0)
(3 1.11293e-15 0)
(3 1.3302e-15 0)
(3 1.52841e-15 0)
(3 2.15442e-15 0)
(3 2.27731e-15 0)
(3 1.89744e-15 0)
(3 2.20289e-15 0)
(3 1.87473e-15 0)
(3 1.07094e-15 0)
(3 7.21302e-17 0)
(3 3.44904e-16 0)
(3 9.97634e-16 0)
(3 1.51616e-15 0)
(3 1.04595e-15 0)
(3 4.98963e-16 0)
(3 -5.83551e-16 0)
(3 -1.75012e-15 0)
(3 -2.64136e-15 0)
(3 -2.7405e-15 0)
(3 -2.02042e-15 0)
(3 -1.67131e-15 0)
(3 -1.78076e-15 0)
(3 -1.10361e-15 0)
(3 -9.46879e-18 0)
(3 2.30799e-16 0)
(3 -2.61183e-16 0)
(3 -2.86133e-16 0)
(3 5.5976e-16 0)
(3 9.00131e-16 0)
(3 1.62486e-15 0)
(3 1.98419e-15 0)
(3 2.20839e-15 0)
(3 2.85499e-15 0)
(3 2.21704e-15 0)
(3 1.34287e-15 0)
(3 1.06995e-15 0)
(3 5.91998e-16 0)
(3 3.60566e-16 0)
(3 4.31943e-16 0)
(3 1.05878e-15 0)
(3 1.11386e-15 0)
(3 1.21343e-15 0)
(3 1.40907e-15 0)
(3 1.47453e-15 0)
(3 1.609e-15 0)
(3 1.8815e-15 0)
(3 1.06414e-15 0)
(3 1.47503e-16 0)
(3 -2.10764e-16 0)
(3 -2.1468e-15 0)
(3 -1.88624e-15 0)
(3 -1.40225e-15 0)
(3 -1.39228e-15 0)
(3 -9.59344e-16 0)
(3 -1.00378e-15 0)
(3 -9.81573e-16 0)
(3 -2.34397e-16 0)
(3 -5.44622e-16 0)
(3 -9.76827e-16 0)
(3 -1.2696e-15 0)
(3 -2.25664e-15 0)
(3 -2.56342e-15 0)
(3 -1.94394e-15 0)
(3 -1.34376e-15 0)
(3 -1.06223e-15 0)
(3 -1.09009e-15 0)
(3 -6.16263e-16 0)
(3 -4.38746e-16 0)
(3 -6.62717e-16 0)
(3 -1.68178e-15 0)
(3 -2.66745e-15 0)
(3 -2.37528e-15 0)
(3 -2.62237e-15 0)
(3 -2.41049e-15 0)
(3 -1.76606e-15 0)
(3 -1.38311e-15 0)
(3 -1.41527e-15 0)
(3 -1.58639e-15 0)
(3 -1.9775e-15 0)
(3 -3.12885e-15 0)
(3 -2.8953e-15 0)
(3 -3.14059e-15 0)
(3 -3.10768e-15 0)
(3 -3.45018e-15 0)
(3 -3.50945e-15 0)
(3 -3.88605e-15 0)
(3 -3.38936e-15 0)
(3 -2.99609e-15 0)
(3 -2.84184e-15 0)
(3 -2.03139e-15 0)
(3 -1.52739e-15 0)
(3 -1.43174e-15 0)
(3 -1.03159e-15 0)
(3 -1.59165e-15 0)
(3 -2.23947e-15 0)
(3 -9.70392e-16 0)
(3 1.00079e-16 0)
(3 3.1817e-16 0)
(3 -3.79629e-16 0)
(3 -2.18566e-15 0)
(3 -2.26691e-15 0)
(3 -2.25872e-15 0)
(3 -1.83732e-15 0)
(3 -1.32113e-15 0)
(3 -4.29959e-16 0)
(3 -4.06593e-16 0)
(3 -7.18979e-16 0)
(3 -8.01766e-16 0)
(3 -8.50195e-16 0)
(3 -5.00092e-16 0)
(3 -1.79483e-16 0)
(3 3.62382e-16 0)
(3 3.17783e-17 0)
(3 8.71911e-16 0)
(3 1.76307e-15 0)
(3 2.18625e-15 0)
(3 1.85901e-15 0)
(3 1.55526e-15 0)
(3 1.24966e-15 0)
(3 1.03279e-15 0)
(3 2.87627e-17 0)
(3 1.82501e-17 0)
(3 -6.63316e-17 0)
(3 1.08488e-16 0)
(3 2.01207e-16 0)
(3 -4.07119e-17 0)
(3 -3.10985e-17 0)
(3 7.32892e-16 0)
(3 1.32623e-15 0)
(3 7.27162e-16 0)
(3 1.63334e-16 0)
(3 -7.32806e-16 0)
(3 -4.97868e-16 0)
(3 -4.60572e-16 0)
(3 6.47656e-17 0)
(3 6.96726e-16 0)
(3 7.30446e-16 0)
(3 4.39254e-16 0)
(3 -1.17909e-16 0)
(3 -7.21404e-16 0)
(3 -1.36939e-15 0)
(3 -1.55345e-15 0)
(3 -8.61781e-16 0)
(3 -2.87069e-16 0)
(3 -2.77259e-16 0)
(3 -9.07112e-16 0)
(3 -9.50005e-16 0)
(3 -5.40126e-16 0)
(3 2.79403e-16 0)
(3 1.31139e-15 0)
(3 1.7792e-15 0)
(3 1.35153e-15 0)
(3 1.28781e-15 0)
(3 8.62466e-16 0)
(3 6.03179e-16 0)
(3 7.19654e-16 0)
(3 7.73105e-16 0)
(3 1.16885e-15 0)
(3 1.19331e-15 0)
(3 8.13429e-16 0)
(3 5.51239e-16 0)
(3 -5.46437e-17 0)
(3 -4.74382e-16 0)
(3 -4.95339e-16 0)
(3 -4.91826e-16 0)
(3 -5.9813e-16 0)
(3 -1.53908e-15 0)
(3 -1.77533e-15 0)
(3 -1.93839e-15 0)
(3 -1.62186e-15 0)
(3 -1.13669e-15 0)
(3 -9.46721e-16 0)
(3 -1.3756e-15 0)
(3 -1.33014e-15 0)
(3 -1.26171e-15 0)
(3 -5.28416e-16 0)
(3 -9.73603e-17 0)
(3 3.45745e-16 0)
(3 2.41531e-16 0)
(3 -2.50627e-16 0)
(3 -1.8543e-16 0)
(3 -2.19213e-16 0)
(3 -6.32441e-16 0)
(3 -1.67365e-15 0)
(3 -2.17983e-15 0)
(3 -1.92978e-15 0)
(3 -1.57543e-15 0)
(3 -1.2155e-15 0)
(3 -1.45541e-15 0)
(3 -1.19514e-15 0)
(3 -2.03071e-16 0)
(3 1.35417e-15 0)
(3 1.90703e-15 0)
(3 1.72628e-15 0)
(3 1.23683e-15 0)
(3 1.07766e-15 0)
(3 1.0498e-15 0)
(3 1.36107e-15 0)
(3 1.36914e-15 0)
(3 9.54735e-16 0)
(3 -2.76814e-16 0)
(3 -5.65166e-17 0)
(3 2.22422e-16 0)
(3 1.224e-15 0)
(3 1.13387e-15 0)
(3 6.80512e-16 0)
(3 -4.74813e-16 0)
(3 -1.0335e-15 0)
(3 -1.19003e-15 0)
(3 -2.1925e-15 0)
(3 -2.60772e-15 0)
(3 -1.70569e-15 0)
(3 -4.00871e-16 0)
(3 4.63133e-17 0)
(3 4.18285e-16 0)
(3 8.76207e-16 0)
(3 6.61921e-16 0)
(3 7.64283e-16 0)
(3 8.80537e-16 0)
(3 -7.7589e-17 0)
(3 -2.76582e-16 0)
(3 1.34704e-16 0)
(3 4.78864e-16 0)
(3 8.6467e-16 0)
(3 1.88215e-15 0)
(3 2.53469e-15 0)
(3 1.60664e-15 0)
(3 2.84914e-16 0)
(3 -1.97384e-16 0)
(3 2.024e-16 0)
(3 1.17583e-15 0)
(3 1.35861e-15 0)
(3 7.15954e-16 0)
(3 8.2875e-16 0)
(3 7.83957e-16 0)
(3 8.9637e-16 0)
(3 1.58817e-15 0)
(3 1.78982e-15 0)
(3 9.06466e-16 0)
(3 -1.10338e-15 0)
(3 -3.43114e-15 0)
(3 -3.39874e-15 0)
(3 -2.78401e-15 0)
(3 -2.01162e-15 0)
(3 -1.21542e-15 0)
(3 -7.90956e-16 0)
(3 1.01027e-16 0)
(3 4.2007e-16 0)
(3 4.78656e-16 0)
(3 -1.23705e-16 0)
(3 -5.7832e-16 0)
(3 -1.14428e-15 0)
(3 -9.83318e-16 0)
(3 -3.55774e-16 0)
(3 2.25367e-17 0)
(3 1.00165e-15 0)
(3 6.24031e-16 0)
(3 6.94266e-17 0)
(3 -6.29535e-16 0)
(3 -9.82812e-16 0)
(3 -7.34927e-16 0)
(3 -9.22885e-16 0)
(3 -1.13181e-15 0)
(3 -1.64877e-15 0)
(3 -2.07948e-15 0)
(3 -1.84921e-15 0)
(3 -2.00191e-15 0)
(3 -2.21236e-15 0)
(3 -2.67338e-15 0)
(3 -3.09819e-15 0)
(3 -3.59307e-15 0)
(3 -3.80946e-15 0)
(3 -3.55838e-15 0)
(3 -3.38509e-15 0)
(3 -2.93064e-15 0)
(3 -3.06519e-15 0)
(3 -3.04959e-15 0)
(3 -2.35774e-15 0)
(3 -2.25184e-15 0)
(3 -2.17583e-15 0)
(3 -1.99404e-15 0)
(3 -1.67212e-15 0)
(3 -1.45158e-15 0)
(3 -1.27022e-15 0)
(3 -4.38668e-16 0)
(3 -3.73537e-16 0)
(3 -5.80212e-16 0)
(3 -1.3394e-16 0)
(3 5.15475e-16 0)
(3 5.69908e-16 0)
(3 3.14737e-16 0)
(3 -7.4613e-16 0)
(3 -2.19219e-15 0)
(3 -2.52901e-15 0)
(3 -2.63721e-15 0)
(3 -2.56208e-15 0)
(3 -2.04616e-15 0)
(3 -1.68429e-15 0)
(3 -1.34358e-15 0)
(3 -1.46415e-15 0)
(3 -1.49124e-15 0)
(3 -1.60505e-15 0)
(3 -1.18695e-15 0)
(3 -2.14015e-16 0)
(3 1.15249e-15 0)
(3 1.13335e-15 0)
(3 1.78683e-15 0)
(3 1.75903e-15 0)
(3 1.66293e-15 0)
(3 1.40388e-15 0)
(3 1.07638e-15 0)
(3 -1.21206e-17 0)
(3 -1.6605e-15 0)
(3 -8.54009e-17 0)
(3 -2.18399e-16 0)
(3 -1.97349e-16 0)
(3 4.61428e-16 0)
(3 5.76147e-16 0)
(3 7.08978e-16 0)
(3 9.5888e-16 0)
(3 6.41808e-16 0)
(3 1.52486e-16 0)
(3 -3.76089e-16 0)
(3 -6.7702e-16 0)
(3 -6.4967e-16 0)
(3 -3.8699e-16 0)
(3 3.47989e-16 0)
(3 6.35338e-16 0)
(3 8.76732e-16 0)
(3 8.32492e-16 0)
(3 7.53842e-16 0)
(3 7.15402e-16 0)
(3 7.44739e-17 0)
(3 -4.09808e-16 0)
(3 -4.25288e-16 0)
(3 -6.82875e-16 0)
(3 7.0087e-17 0)
(3 -5.92361e-16 0)
(3 -1.48341e-15 0)
(3 -1.14876e-15 0)
(3 -3.39358e-17 0)
(3 1.45687e-15 0)
(3 1.98112e-15 0)
(3 1.81675e-15 0)
(3 1.97881e-15 0)
(3 1.74442e-15 0)
(3 1.78002e-15 0)
(3 9.57452e-16 0)
(3 1.36214e-15 0)
(3 1.86259e-15 0)
(3 1.79117e-15 0)
(3 1.56925e-15 0)
(3 9.18799e-16 0)
(3 -7.98033e-16 0)
(3 -1.39803e-15 0)
(3 -1.28128e-15 0)
(3 2.27789e-17 0)
(3 9.65689e-16 0)
(3 -1.58491e-16 0)
(3 -1.47542e-15 0)
(3 -1.81858e-15 0)
(3 -2.01963e-15 0)
(3 -2.24946e-15 0)
(3 -2.35622e-15 0)
(3 -1.78162e-15 0)
(3 -1.01247e-15 0)
(3 -5.54921e-16 0)
(3 -4.50208e-16 0)
(3 -7.6876e-16 0)
(3 -8.07696e-16 0)
(3 -5.6943e-16 0)
(3 -1.38097e-16 0)
(3 7.17858e-17 0)
(3 -1.11676e-17 0)
(3 2.24019e-17 0)
(3 2.30308e-16 0)
(3 4.60275e-16 0)
(3 5.04549e-16 0)
(3 2.08936e-16 0)
(3 2.17863e-17 0)
(3 -3.34554e-16 0)
(3 -9.39708e-16 0)
(3 8.2836e-16 0)
(3 1.37387e-15 0)
(3 1.96461e-15 0)
(3 1.69137e-15 0)
(3 1.19181e-15 0)
(3 1.24538e-16 0)
(3 -4.93503e-16 0)
(3 7.53957e-16 0)
(3 8.5795e-16 0)
(3 6.46705e-16 0)
(3 -1.08371e-16 0)
(3 -4.43055e-16 0)
(3 -5.42574e-16 0)
(3 -3.77006e-16 0)
(3 -4.15844e-16 0)
(3 -2.80067e-16 0)
(3 -4.35697e-16 0)
(3 -5.29275e-16 0)
(3 -4.00178e-16 0)
(3 -6.08522e-16 0)
(3 -4.99314e-16 0)
(3 -2.67277e-16 0)
(3 -1.92076e-16 0)
(3 7.34165e-16 0)
(3 7.85866e-16 0)
(3 4.83244e-16 0)
(3 9.21659e-16 0)
(3 1.48394e-15 0)
(3 1.69801e-15 0)
(3 9.81677e-16 0)
(3 -2.84154e-16 0)
(3 -3.42161e-16 0)
(3 -2.36247e-16 0)
(3 -1.05316e-16 0)
(3 8.7633e-16 0)
(3 1.60777e-15 0)
(3 1.20992e-15 0)
(3 1.08328e-15 0)
(3 1.20826e-15 0)
(3 1.70917e-15 0)
(3 1.54766e-15 0)
(3 1.2646e-15 0)
(3 3.76175e-16 0)
(3 6.04108e-16 0)
(3 1.10681e-15 0)
(3 1.68099e-15 0)
(3 1.51795e-15 0)
(3 8.06886e-16 0)
(3 3.59327e-16 0)
(3 -1.3453e-15 0)
(3 -2.61902e-15 0)
(3 -2.49374e-15 0)
(3 -2.17701e-15 0)
(3 -1.46086e-15 0)
(3 -5.15741e-16 0)
(3 -5.62804e-16 0)
(3 -4.25862e-17 0)
(3 8.79169e-16 0)
(3 6.80518e-16 0)
(3 1.91226e-16 0)
(3 -3.07773e-16 0)
(3 -1.28584e-15 0)
(3 -1.36371e-15 0)
(3 2.90284e-16 0)
(3 1.20088e-15 0)
(3 1.88451e-15 0)
(3 8.14541e-16 0)
(3 1.46699e-16 0)
(3 -3.28981e-16 0)
(3 -7.60145e-16 0)
(3 -1.3258e-15 0)
(3 -1.07646e-15 0)
(3 -7.09803e-16 0)
(3 -9.88552e-16 0)
(3 -1.42829e-15 0)
(3 -1.78464e-15 0)
(3 -2.17105e-15 0)
(3 -2.66527e-15 0)
(3 -2.98447e-15 0)
(3 -3.51165e-15 0)
(3 -4.71889e-15 0)
(3 -4.67445e-15 0)
(3 -4.86343e-15 0)
(3 -4.32769e-15 0)
(3 -3.85836e-15 0)
(3 -3.10665e-15 0)
(3 -2.06602e-15 0)
(3 -1.45444e-15 0)
(3 -1.17002e-15 0)
(3 -1.02572e-15 0)
(3 -1.26726e-15 0)
(3 -6.80598e-16 0)
(3 -1.06898e-16 0)
(3 1.20182e-16 0)
(3 1.41777e-16 0)
(3 4.95599e-16 0)
(3 4.37141e-16 0)
(3 -2.74056e-16 0)
(3 2.25776e-17 0)
(3 5.34354e-18 0)
(3 1.0974e-16 0)
(3 -3.47117e-16 0)
(3 -5.57011e-16 0)
(3 -8.6592e-16 0)
(3 -2.40433e-15 0)
(3 -2.21053e-15 0)
(3 -2.32558e-15 0)
(3 -2.39961e-15 0)
(3 -2.15005e-15 0)
(3 -1.78853e-15 0)
(3 -8.28773e-16 0)
(3 -5.40381e-16 0)
(3 -2.38029e-16 0)
(3 2.28507e-16 0)
(3 1.21942e-15 0)
(3 1.12695e-15 0)
(3 7.92283e-16 0)
(3 6.19381e-16 0)
(3 1.14355e-15 0)
(3 1.50094e-15 0)
(3 -4.54804e-16 0)
(3 -2.28424e-15 0)
(3 -2.71671e-15 0)
(3 -4.42565e-17 0)
(3 3.20674e-17 0)
(3 1.73652e-16 0)
(3 -2.27895e-17 0)
(3 3.27561e-18 0)
(3 -6.38527e-17 0)
(3 -4.31955e-17 0)
(3 -3.83048e-16 0)
(3 -1.35801e-16 0)
(3 2.20681e-16 0)
(3 5.0705e-16 0)
(3 7.11577e-18 0)
(3 6.68839e-17 0)
(3 -1.95276e-16 0)
(3 -4.0273e-16 0)
(3 2.64114e-16 0)
(3 5.78207e-16 0)
(3 3.81566e-16 0)
(3 1.82586e-16 0)
(3 4.96781e-16 0)
(3 1.77974e-16 0)
(3 -6.46874e-16 0)
(3 -6.32276e-16 0)
(3 -3.85966e-16 0)
(3 9.76968e-17 0)
(3 3.71958e-16 0)
(3 5.91085e-16 0)
(3 6.25916e-16 0)
(3 1.1259e-15 0)
(3 1.67785e-15 0)
(3 1.6539e-15 0)
(3 1.16025e-15 0)
(3 1.27174e-15 0)
(3 1.66013e-15 0)
(3 5.86476e-16 0)
(3 1.55454e-16 0)
(3 2.40434e-16 0)
(3 -1.31886e-16 0)
(3 -1.8745e-16 0)
(3 -1.50208e-16 0)
(3 9.69531e-17 0)
(3 1.12435e-16 0)
(3 -3.09151e-16 0)
(3 -6.06782e-17 0)
(3 2.51865e-16 0)
(3 -5.41367e-16 0)
(3 -1.18694e-15 0)
(3 -6.45069e-16 0)
(3 -9.3655e-16 0)
(3 -1.82431e-15 0)
(3 -2.68006e-15 0)
(3 -2.36442e-15 0)
(3 -1.16432e-15 0)
(3 -6.10915e-17 0)
(3 4.10772e-17 0)
(3 2.24868e-16 0)
(3 -1.64663e-16 0)
(3 -1.06234e-15 0)
(3 -1.11076e-15 0)
(3 -1.02596e-15 0)
(3 -7.07332e-16 0)
(3 -6.89116e-16 0)
(3 1.82989e-16 0)
(3 2.71258e-16 0)
(3 3.57173e-16 0)
(3 1.37122e-16 0)
(3 5.19143e-16 0)
(3 8.9284e-16 0)
(3 6.75646e-16 0)
(3 1.53394e-15 0)
(3 1.21426e-15 0)
(3 1.23698e-15 0)
(3 5.32085e-16 0)
(3 -1.86676e-17 0)
(3 -1.87216e-16 0)
(3 1.54453e-17 0)
(3 1.31612e-16 0)
(3 3.22329e-17 0)
(3 -2.51798e-16 0)
(3 -2.45774e-16 0)
(3 -3.48945e-16 0)
(3 -5.84145e-16 0)
(3 -8.35345e-16 0)
(3 -7.88906e-16 0)
(3 -6.63231e-16 0)
(3 -6.25923e-16 0)
(3 -6.36071e-16 0)
(3 -7.46686e-16 0)
(3 -6.82623e-16 0)
(3 -4.6301e-16 0)
(3 -1.104e-15 0)
(3 -5.25242e-16 0)
(3 4.01271e-16 0)
(3 5.03529e-16 0)
(3 6.11428e-16 0)
(3 8.17828e-16 0)
(3 1.13027e-15 0)
(3 1.07892e-15 0)
(3 1.45425e-15 0)
(3 8.75938e-16 0)
(3 7.32506e-16 0)
(3 1.01943e-15 0)
(3 1.49072e-15 0)
(3 1.56484e-15 0)
(3 1.44511e-15 0)
(3 1.47177e-15 0)
(3 1.75056e-15 0)
(3 1.21889e-15 0)
(3 1.87751e-15 0)
(3 1.96706e-15 0)
(3 2.51176e-15 0)
(3 2.17045e-15 0)
(3 1.41179e-15 0)
(3 8.039e-16 0)
(3 7.10127e-16 0)
(3 3.67622e-16 0)
(3 -1.78356e-15 0)
(3 -2.5555e-15 0)
(3 -2.69099e-15 0)
(3 -2.56924e-15 0)
(3 -2.06796e-15 0)
(3 -1.20888e-15 0)
(3 -1.42904e-15 0)
(3 -8.24891e-16 0)
(3 2.15526e-16 0)
(3 6.61887e-16 0)
(3 9.79504e-16 0)
(3 6.74979e-16 0)
(3 4.03359e-16 0)
(3 2.04997e-16 0)
(3 4.58047e-16 0)
(3 4.13259e-16 0)
(3 3.54811e-16 0)
(3 2.1438e-16 0)
(3 2.42458e-17 0)
(3 3.14374e-16 0)
(3 7.41957e-16 0)
(3 5.32158e-16 0)
(3 1.5348e-16 0)
(3 -8.27564e-16 0)
(3 -4.19942e-16 0)
(3 -3.32423e-16 0)
(3 -1.53474e-16 0)
(3 -7.41088e-16 0)
(3 -1.87036e-15 0)
(3 -2.70671e-15 0)
(3 -2.86817e-15 0)
(3 -2.63733e-15 0)
(3 -3.47602e-15 0)
(3 -4.0418e-15 0)
(3 -4.7703e-15 0)
(3 -5.86991e-15 0)
(3 -5.20486e-15 0)
(3 -5.08524e-15 0)
(3 -3.92716e-15 0)
(3 -3.28254e-15 0)
(3 -2.59331e-15 0)
(3 -1.78916e-15 0)
(3 -8.86886e-16 0)
(3 -6.04639e-16 0)
(3 -6.33434e-16 0)
(3 -3.29006e-16 0)
(3 -1.30192e-16 0)
(3 4.07907e-16 0)
(3 7.91865e-16 0)
(3 5.46814e-16 0)
(3 6.65551e-16 0)
(3 5.26761e-16 0)
(3 4.01878e-16 0)
(3 -4.6566e-16 0)
(3 -6.4561e-16 0)
(3 -3.68813e-17 0)
(3 -5.2289e-18 0)
(3 -7.81872e-16 0)
(3 -1.51522e-15 0)
(3 -1.34093e-15 0)
(3 -8.71351e-16 0)
(3 -9.05323e-16 0)
(3 -2.82903e-16 0)
(3 5.10272e-16 0)
(3 1.12489e-15 0)
(3 1.1367e-15 0)
(3 1.88734e-15 0)
(3 9.38313e-16 0)
(3 8.1255e-16 0)
(3 3.39964e-16 0)
(3 -2.26447e-16 0)
(3 -1.87964e-16 0)
(3 1.1305e-16 0)
(3 -1.28623e-15 0)
(3 -1.58614e-15 0)
(3 -1.11102e-15 0)
(3 -6.99839e-18 0)
(3 1.94718e-16 0)
(3 3.45819e-16 0)
(3 9.89732e-17 0)
(3 -1.30765e-16 0)
(3 -2.75995e-16 0)
(3 -4.64715e-16 0)
(3 -7.69892e-17 0)
(3 1.05143e-16 0)
(3 1.09959e-15 0)
(3 1.3699e-15 0)
(3 1.24754e-15 0)
(3 1.04802e-15 0)
(3 4.80415e-16 0)
(3 3.92472e-16 0)
(3 5.59139e-16 0)
(3 3.48187e-16 0)
(3 -1.42829e-16 0)
(3 -2.75579e-16 0)
(3 2.16978e-16 0)
(3 3.94782e-16 0)
(3 4.19456e-18 0)
(3 1.86775e-17 0)
(3 -1.87818e-16 0)
(3 7.34213e-19 0)
(3 4.98161e-16 0)
(3 3.49675e-16 0)
(3 3.25177e-16 0)
(3 3.34612e-16 0)
(3 -1.85822e-16 0)
(3 -3.53535e-16 0)
(3 -5.04562e-16 0)
(3 1.01618e-16 0)
(3 4.83551e-16 0)
(3 1.04974e-15 0)
(3 4.24926e-16 0)
(3 -2.62134e-17 0)
(3 -7.61695e-16 0)
(3 -1.12075e-15 0)
(3 -7.98974e-16 0)
(3 -3.13811e-16 0)
(3 -9.91813e-17 0)
(3 2.17751e-17 0)
(3 -5.19776e-16 0)
(3 -7.20536e-16 0)
(3 -7.09107e-16 0)
(3 -9.06521e-16 0)
(3 -8.87268e-16 0)
(3 -9.58059e-16 0)
(3 -1.14116e-15 0)
(3 -1.35457e-15 0)
(3 -1.6241e-15 0)
(3 -1.22727e-15 0)
(3 -4.07579e-16 0)
(3 1.48668e-16 0)
(3 4.76192e-16 0)
(3 6.70426e-16 0)
(3 -1.42021e-16 0)
(3 -5.906e-16 0)
(3 -9.75166e-16 0)
(3 -1.1064e-15 0)
(3 -1.29053e-15 0)
(3 -2.12332e-16 0)
(3 3.08762e-16 0)
(3 3.89947e-17 0)
(3 2.60197e-16 0)
(3 1.20348e-15 0)
(3 1.35305e-15 0)
(3 1.31625e-15 0)
(3 1.6981e-16 0)
(3 1.04778e-16 0)
(3 -8.08076e-16 0)
(3 -1.7132e-15 0)
(3 -1.79158e-15 0)
(3 -1.4071e-15 0)
(3 -1.21195e-15 0)
(3 -1.81346e-15 0)
(3 -1.88899e-15 0)
(3 -1.73075e-15 0)
(3 -1.2062e-15 0)
(3 -1.15387e-15 0)
(3 -1.37981e-15 0)
(3 -1.7463e-15 0)
(3 -2.20751e-15 0)
(3 -2.56708e-15 0)
(3 -1.97182e-15 0)
(3 -1.82602e-15 0)
(3 -2.13783e-15 0)
(3 -2.13231e-15 0)
(3 -1.87788e-15 0)
(3 -1.51438e-15 0)
(3 -1.3099e-16 0)
(3 3.93958e-16 0)
(3 1.95842e-16 0)
(3 4.91516e-17 0)
(3 2.82578e-17 0)
(3 7.0905e-16 0)
(3 7.81427e-16 0)
(3 8.83751e-16 0)
(3 8.63633e-16 0)
(3 1.08073e-15 0)
(3 1.20325e-15 0)
(3 1.77691e-15 0)
(3 1.63159e-15 0)
(3 1.52693e-15 0)
(3 1.3001e-15 0)
(3 8.68214e-16 0)
(3 1.35804e-15 0)
(3 1.44118e-15 0)
(3 1.89031e-15 0)
(3 2.30592e-15 0)
(3 2.71089e-15 0)
(3 1.86863e-15 0)
(3 1.00744e-16 0)
(3 -1.55587e-15 0)
(3 -2.1991e-15 0)
(3 -2.74034e-15 0)
(3 -3.79065e-15 0)
(3 -3.88223e-15 0)
(3 -2.92582e-15 0)
(3 -1.48254e-15 0)
(3 -1.23257e-15 0)
(3 -1.4179e-15 0)
(3 -1.95352e-15 0)
(3 -1.43522e-15 0)
(3 -1.05919e-15 0)
(3 -2.45048e-16 0)
(3 -2.09299e-16 0)
(3 -3.59469e-16 0)
(3 -2.83356e-16 0)
(3 1.27975e-15 0)
(3 1.79215e-15 0)
(3 1.00784e-15 0)
(3 -1.83444e-16 0)
(3 -6.8467e-16 0)
(3 5.53466e-16 0)
(3 1.02756e-15 0)
(3 4.98193e-16 0)
(3 2.67479e-17 0)
(3 5.9094e-16 0)
(3 3.52529e-16 0)
(3 -3.34153e-16 0)
(3 -7.9695e-16 0)
(3 -1.00803e-15 0)
(3 -1.35273e-15 0)
(3 -1.6692e-15 0)
(3 -2.58531e-15 0)
(3 -3.14309e-15 0)
(3 -4.00424e-15 0)
(3 -4.20372e-15 0)
(3 -5.1738e-15 0)
(3 -4.89427e-15 0)
(3 -4.52888e-15 0)
(3 -4.58194e-15 0)
(3 -4.25414e-15 0)
(3 -3.91171e-15 0)
(3 -2.97352e-15 0)
(3 -2.34929e-15 0)
(3 -1.21484e-15 0)
(3 -7.43377e-18 0)
(3 -3.86296e-16 0)
(3 -1.47308e-15 0)
(3 -9.64807e-16 0)
(3 -2.53078e-16 0)
(3 1.94824e-16 0)
(3 3.65058e-16 0)
(3 1.21016e-15 0)
(3 7.21196e-16 0)
(3 1.54129e-16 0)
(3 1.88561e-16 0)
(3 1.60225e-16 0)
(3 5.4647e-16 0)
(3 5.76545e-16 0)
(3 5.16808e-16 0)
(3 -7.10463e-17 0)
(3 -3.79272e-16 0)
(3 -4.23994e-16 0)
(3 -2.91327e-16 0)
(3 1.00722e-15 0)
(3 1.37401e-15 0)
(3 8.2383e-16 0)
(3 4.42208e-16 0)
(3 2.28798e-16 0)
(3 -8.15494e-16 0)
(3 -5.43853e-16 0)
(3 -6.45935e-16 0)
(3 -7.45351e-16 0)
(3 -6.59506e-16 0)
(3 -1.16833e-15 0)
(3 -8.17479e-16 0)
(3 -4.07362e-16 0)
(3 -7.62822e-17 0)
(3 3.94302e-18 0)
(3 1.10886e-16 0)
(3 1.98516e-16 0)
(3 2.89431e-16 0)
(3 1.89292e-16 0)
(3 2.66678e-16 0)
(3 2.30709e-16 0)
(3 -5.42641e-16 0)
(3 -6.66465e-16 0)
(3 -2.06748e-16 0)
(3 1.15696e-15 0)
(3 1.3393e-15 0)
(3 1.27791e-15 0)
(3 1.29674e-15 0)
(3 1.03781e-15 0)
(3 6.50918e-16 0)
(3 3.69139e-16 0)
(3 1.60782e-16 0)
(3 1.58652e-16 0)
(3 3.72767e-16 0)
(3 1.1185e-15 0)
(3 1.05109e-15 0)
(3 3.76391e-16 0)
(3 2.31106e-16 0)
(3 3.77092e-16 0)
(3 -1.81956e-16 0)
(3 7.11744e-18 0)
(3 3.38058e-16 0)
(3 -1.06111e-15 0)
(3 -1.56981e-15 0)
(3 -1.21744e-15 0)
(3 -6.11336e-16 0)
(3 -3.9927e-16 0)
(3 -2.12065e-16 0)
(3 8.48831e-16 0)
(3 1.74049e-15 0)
(3 1.38534e-15 0)
(3 1.0315e-15 0)
(3 1.19651e-16 0)
(3 -2.86121e-16 0)
(3 -3.90067e-16 0)
(3 -4.54593e-16 0)
(3 -1.92479e-16 0)
(3 -6.93982e-16 0)
(3 -8.88407e-16 0)
(3 -3.27308e-16 0)
(3 -1.56597e-16 0)
(3 -2.90294e-16 0)
(3 -1.65276e-16 0)
(3 -2.76129e-16 0)
(3 -6.13385e-16 0)
(3 -2.02262e-16 0)
(3 -3.1486e-17 0)
(3 -8.83963e-17 0)
(3 1.43046e-16 0)
(3 4.01555e-16 0)
(3 3.20991e-16 0)
(3 2.0868e-16 0)
(3 -4.76945e-16 0)
(3 -1.6929e-15 0)
(3 -1.81496e-15 0)
(3 -1.29978e-15 0)
(3 -7.53424e-16 0)
(3 -5.90377e-16 0)
(3 -8.41595e-16 0)
(3 -5.98598e-16 0)
(3 -3.12004e-16 0)
(3 4.59415e-16 0)
(3 1.13587e-15 0)
(3 4.96954e-16 0)
(3 -8.40265e-16 0)
(3 -1.23155e-15 0)
(3 -1.41436e-15 0)
(3 -1.01841e-15 0)
(3 -8.26733e-16 0)
(3 -1.8839e-15 0)
(3 -2.74198e-15 0)
(3 -3.24e-15 0)
(3 -3.3034e-15 0)
(3 -2.58441e-15 0)
(3 -2.41962e-15 0)
(3 -2.12468e-15 0)
(3 -2.19748e-15 0)
(3 -2.63428e-15 0)
(3 -2.41351e-15 0)
(3 -2.24594e-15 0)
(3 -1.69597e-15 0)
(3 -1.83328e-15 0)
(3 -2.02891e-15 0)
(3 -1.74795e-15 0)
(3 -6.34627e-16 0)
(3 9.00973e-17 0)
(3 -3.09865e-16 0)
(3 -7.5383e-17 0)
(3 -7.11828e-17 0)
(3 1.57761e-16 0)
(3 1.18003e-16 0)
(3 6.61811e-17 0)
(3 4.15982e-16 0)
(3 9.42983e-16 0)
(3 7.97201e-16 0)
(3 4.36419e-16 0)
(3 -1.20127e-16 0)
(3 2.17257e-17 0)
(3 3.47134e-16 0)
(3 8.30456e-16 0)
(3 6.45409e-16 0)
(3 1.60594e-15 0)
(3 1.85778e-15 0)
(3 2.09529e-15 0)
(3 1.75489e-15 0)
(3 2.07714e-15 0)
(3 1.4675e-15 0)
(3 7.76438e-16 0)
(3 -2.55827e-16 0)
(3 -2.17646e-15 0)
(3 -2.2767e-15 0)
(3 -2.28141e-15 0)
(3 -2.28978e-15 0)
(3 -1.44715e-15 0)
(3 -1.11003e-15 0)
(3 -9.43261e-16 0)
(3 -9.02344e-16 0)
(3 -6.23281e-16 0)
(3 -1.25135e-15 0)
(3 -1.75869e-15 0)
(3 -1.89406e-15 0)
(3 -9.76622e-16 0)
(3 5.84093e-16 0)
(3 7.67475e-16 0)
(3 1.30046e-15 0)
(3 1.58245e-15 0)
(3 1.60347e-15 0)
(3 1.27186e-15 0)
(3 9.7204e-16 0)
(3 1.23602e-15 0)
(3 5.64536e-16 0)
(3 1.06795e-15 0)
(3 1.5541e-15 0)
(3 1.63938e-15 0)
(3 -6.59364e-16 0)
(3 -1.49478e-15 0)
(3 -2.20965e-15 0)
(3 -2.58186e-15 0)
(3 -2.05559e-15 0)
(3 -1.45567e-15 0)
(3 -1.55274e-15 0)
(3 -1.7619e-15 0)
(3 -3.1092e-15 0)
(3 -3.96439e-15 0)
(3 -2.87358e-15 0)
(3 -2.27814e-15 0)
(3 -3.0361e-15 0)
(3 -3.20837e-15 0)
(3 -3.84052e-15 0)
(3 -3.7633e-15 0)
(3 -3.36543e-15 0)
(3 -2.36342e-15 0)
(3 -8.43647e-16 0)
(3 -3.21926e-16 0)
(3 -2.26081e-16 0)
(3 -4.48824e-16 0)
(3 -9.99363e-16 0)
(3 -1.12659e-15 0)
(3 -9.29239e-16 0)
(3 -4.99846e-16 0)
(3 1.13234e-16 0)
(3 1.03755e-16 0)
(3 -1.87205e-16 0)
(3 -3.16426e-16 0)
(3 -3.11787e-16 0)
(3 6.70318e-18 0)
(3 3.38903e-16 0)
(3 5.14989e-16 0)
(3 1.06508e-15 0)
(3 6.70887e-16 0)
(3 1.92932e-16 0)
(3 5.80378e-16 0)
(3 1.18754e-15 0)
(3 6.33429e-18 0)
(3 2.23635e-16 0)
(3 4.93423e-16 0)
(3 4.2958e-16 0)
(3 6.93462e-16 0)
(3 5.27962e-16 0)
(3 -8.66854e-17 0)
(3 -2.94117e-16 0)
(3 -4.57205e-16 0)
(3 -1.2042e-15 0)
(3 -9.60612e-16 0)
(3 -5.4462e-16 0)
(3 6.50933e-17 0)
(3 2.10072e-16 0)
(3 5.0364e-16 0)
(3 4.64186e-16 0)
(3 2.25862e-16 0)
(3 6.34268e-17 0)
(3 2.30096e-16 0)
(3 5.73741e-16 0)
(3 1.87103e-16 0)
(3 -8.2899e-17 0)
(3 -3.07696e-16 0)
(3 1.85537e-16 0)
(3 1.00028e-15 0)
(3 1.20751e-15 0)
(3 1.02352e-15 0)
(3 4.87649e-16 0)
(3 -4.37964e-16 0)
(3 -1.01814e-16 0)
(3 4.23103e-16 0)
(3 1.04688e-15 0)
(3 9.66981e-16 0)
(3 1.23899e-15 0)
(3 1.32989e-15 0)
(3 7.97053e-16 0)
(3 4.28954e-16 0)
(3 7.0153e-16 0)
(3 5.16321e-16 0)
(3 2.00232e-16 0)
(3 -4.8888e-16 0)
(3 -9.66768e-16 0)
(3 -7.79965e-16 0)
(3 -2.91127e-16 0)
(3 -1.11743e-16 0)
(3 -4.97217e-16 0)
(3 -3.66317e-16 0)
(3 -5.33972e-16 0)
(3 3.91659e-16 0)
(3 9.02434e-16 0)
(3 1.56093e-15 0)
(3 1.38527e-15 0)
(3 8.07362e-16 0)
(3 -4.18965e-16 0)
(3 -5.41254e-16 0)
(3 -6.91638e-16 0)
(3 -8.52967e-16 0)
(3 -6.72349e-16 0)
(3 -3.70312e-16 0)
(3 4.5447e-16 0)
(3 3.35935e-16 0)
(3 1.68485e-16 0)
(3 4.41215e-16 0)
(3 6.41563e-16 0)
(3 3.0223e-16 0)
(3 -9.9523e-16 0)
(3 -1.37684e-15 0)
(3 -1.14424e-15 0)
(3 -1.01133e-15 0)
(3 -8.78704e-16 0)
(3 -1.22759e-15 0)
(3 -1.12875e-15 0)
(3 -1.5947e-15 0)
(3 -1.48717e-15 0)
(3 -1.39304e-15 0)
(3 -1.64318e-15 0)
(3 -2.30991e-15 0)
(3 -2.58786e-15 0)
(3 -2.50026e-15 0)
(3 -2.263e-15 0)
(3 -1.22274e-15 0)
(3 -1.02299e-15 0)
(3 -1.26812e-15 0)
(3 -4.78081e-16 0)
(3 1.1105e-16 0)
(3 6.4758e-16 0)
(3 4.45615e-16 0)
(3 -1.12203e-16 0)
(3 -1.62917e-15 0)
(3 -1.83107e-15 0)
(3 -1.92907e-15 0)
(3 -1.47195e-15 0)
(3 -1.76065e-15 0)
(3 -1.59932e-15 0)
(3 -1.38161e-15 0)
(3 -1.29531e-15 0)
(3 -7.88645e-16 0)
(3 -1.30344e-15 0)
(3 -1.53522e-15 0)
(3 -1.38328e-15 0)
(3 -9.72021e-16 0)
(3 -4.91651e-16 0)
(3 -6.21491e-16 0)
(3 -6.85793e-16 0)
(3 -1.0917e-15 0)
(3 -8.46038e-16 0)
(3 -1.69036e-16 0)
(3 2.00817e-16 0)
(3 5.3938e-16 0)
(3 1.32111e-16 0)
(3 -3.48746e-16 0)
(3 -1.36663e-16 0)
(3 4.56519e-16 0)
(3 -7.0561e-17 0)
(3 7.18246e-17 0)
(3 -8.3657e-17 0)
(3 -3.71242e-16 0)
(3 -1.41889e-16 0)
(3 4.61753e-16 0)
(3 1.42838e-15 0)
(3 1.86967e-15 0)
(3 2.48653e-15 0)
(3 2.93279e-15 0)
(3 2.20911e-15 0)
(3 1.96723e-15 0)
(3 1.90201e-15 0)
(3 1.37339e-15 0)
(3 7.36938e-16 0)
(3 -1.0801e-15 0)
(3 -1.79638e-15 0)
(3 -8.89105e-16 0)
(3 3.51241e-16 0)
(3 1.60101e-16 0)
(3 -9.64873e-16 0)
(3 -7.23506e-16 0)
(3 -5.2913e-16 0)
(3 3.94851e-16 0)
(3 3.45463e-16 0)
(3 -1.24605e-16 0)
(3 -9.30493e-16 0)
(3 -6.62045e-16 0)
(3 1.18339e-16 0)
(3 1.54277e-15 0)
(3 1.32909e-15 0)
(3 1.40579e-15 0)
(3 1.16601e-15 0)
(3 3.26171e-16 0)
(3 4.24206e-16 0)
(3 2.14421e-16 0)
(3 7.83812e-17 0)
(3 7.43869e-16 0)
(3 7.47825e-16 0)
(3 4.13282e-16 0)
(3 -8.58198e-16 0)
(3 -1.65929e-15 0)
(3 -2.10594e-15 0)
(3 -2.93572e-15 0)
(3 -2.80122e-15 0)
(3 -1.46576e-15 0)
(3 -7.41322e-16 0)
(3 -1.1791e-15 0)
(3 -2.46726e-15 0)
(3 -2.66922e-15 0)
(3 -1.68541e-15 0)
(3 -1.34925e-15 0)
(3 -1.67938e-15 0)
(3 -2.72544e-15 0)
(3 -3.4947e-15 0)
(3 -4.02671e-15 0)
(3 -3.9264e-15 0)
(3 -2.56359e-15 0)
(3 -7.96148e-16 0)
(3 -7.98208e-17 0)
(3 3.11048e-16 0)
(3 9.46727e-16 0)
(3 3.95006e-16 0)
(3 -1.33232e-15 0)
(3 -1.43497e-15 0)
(3 -8.52106e-16 0)
(3 -1.10484e-15 0)
(3 -7.63202e-16 0)
(3 -1.06104e-15 0)
(3 -1.30147e-15 0)
(3 -1.48995e-15 0)
(3 -1.52663e-15 0)
(3 -1.29395e-15 0)
(3 -6.26744e-16 0)
(3 3.2861e-16 0)
(3 6.24565e-16 0)
(3 8.0669e-16 0)
(3 1.37035e-15 0)
(3 1.35153e-15 0)
(3 -3.96959e-16 0)
(3 -3.43253e-16 0)
(3 -3.32127e-16 0)
(3 -4.67229e-16 0)
(3 5.7526e-16 0)
(3 3.14889e-16 0)
(3 3.48939e-16 0)
(3 -6.96624e-16 0)
(3 -1.50898e-15 0)
(3 -1.85844e-15 0)
(3 -1.83758e-15 0)
(3 -1.25622e-15 0)
(3 -7.40925e-16 0)
(3 -1.35144e-17 0)
(3 -5.57599e-17 0)
(3 -1.21771e-16 0)
(3 -1.73323e-16 0)
(3 -1.9518e-16 0)
(3 -2.24983e-16 0)
(3 1.00656e-16 0)
(3 5.11099e-16 0)
(3 9.20525e-16 0)
(3 6.16621e-16 0)
(3 9.36365e-17 0)
(3 2.22019e-16 0)
(3 8.33788e-16 0)
(3 8.25283e-16 0)
(3 5.03407e-16 0)
(3 1.82688e-16 0)
(3 -1.31951e-16 0)
(3 3.91416e-16 0)
(3 8.10213e-16 0)
(3 4.68134e-16 0)
(3 1.78781e-16 0)
(3 5.53012e-16 0)
(3 1.45866e-15 0)
(3 1.43407e-15 0)
(3 1.16058e-15 0)
(3 1.03511e-15 0)
(3 2.55692e-16 0)
(3 -8.68517e-16 0)
(3 -7.19858e-16 0)
(3 -5.23798e-16 0)
(3 -6.0276e-16 0)
(3 -8.49717e-16 0)
(3 -8.08419e-16 0)
(3 -5.1097e-16 0)
(3 -4.06406e-16 0)
(3 -3.6314e-16 0)
(3 1.13179e-17 0)
(3 5.61702e-16 0)
(3 6.96801e-16 0)
(3 5.56639e-16 0)
(3 3.63153e-16 0)
(3 4.55838e-16 0)
(3 -3.01298e-16 0)
(3 -4.97417e-16 0)
(3 -3.66322e-16 0)
(3 -6.59798e-17 0)
(3 1.1305e-15 0)
(3 1.0331e-15 0)
(3 5.11663e-16 0)
(3 7.30875e-16 0)
(3 1.03483e-15 0)
(3 9.1727e-16 0)
(3 8.04416e-16 0)
(3 7.94343e-16 0)
(3 2.28316e-16 0)
(3 -1.07845e-16 0)
(3 -4.69539e-16 0)
(3 -9.1207e-16 0)
(3 -1.12413e-15 0)
(3 -9.65123e-16 0)
(3 -1.6298e-15 0)
(3 -2.04965e-15 0)
(3 -1.74872e-15 0)
(3 -1.67532e-15 0)
(3 -2.5389e-15 0)
(3 -2.86425e-15 0)
(3 -1.78854e-15 0)
(3 -1.47044e-15 0)
(3 -1.52343e-15 0)
(3 -4.34047e-16 0)
(3 -1.43847e-16 0)
(3 3.02537e-16 0)
(3 6.90214e-16 0)
(3 6.35622e-16 0)
(3 -1.45624e-17 0)
(3 -1.43453e-16 0)
(3 -1.21043e-16 0)
(3 5.13661e-16 0)
(3 6.6933e-16 0)
(3 1.42812e-16 0)
(3 3.15575e-16 0)
(3 6.58628e-16 0)
(3 4.71822e-16 0)
(3 1.03988e-15 0)
(3 4.57429e-16 0)
(3 -4.04958e-16 0)
(3 -1.50352e-15 0)
(3 -1.60712e-15 0)
(3 -7.71017e-16 0)
(3 -5.14617e-16 0)
(3 -7.19104e-16 0)
(3 -9.87966e-16 0)
(3 -1.42365e-16 0)
(3 4.28419e-17 0)
(3 2.36092e-16 0)
(3 4.70959e-16 0)
(3 4.60252e-16 0)
(3 2.90674e-16 0)
(3 1.23969e-16 0)
(3 -3.2341e-17 0)
(3 5.35689e-16 0)
(3 1.067e-15 0)
(3 1.22576e-15 0)
(3 1.06063e-15 0)
(3 1.11079e-15 0)
(3 8.43523e-16 0)
(3 1.54766e-15 0)
(3 2.17501e-15 0)
(3 2.1125e-15 0)
(3 1.88523e-15 0)
(3 1.80598e-15 0)
(3 1.09427e-15 0)
(3 9.45668e-16 0)
(3 1.42471e-15 0)
(3 1.48708e-15 0)
(3 1.13657e-15 0)
(3 -7.17577e-16 0)
(3 2.58389e-17 0)
(3 1.68066e-15 0)
(3 1.55497e-15 0)
(3 8.70671e-16 0)
(3 2.66989e-16 0)
(3 -2.02088e-16 0)
(3 -2.69355e-16 0)
(3 -2.00464e-16 0)
(3 5.80224e-16 0)
(3 5.97209e-16 0)
(3 -2.29751e-16 0)
(3 -4.64914e-16 0)
(3 -2.25712e-16 0)
(3 5.17819e-16 0)
(3 1.09556e-15 0)
(3 1.06272e-15 0)
(3 8.14743e-16 0)
(3 3.55691e-16 0)
(3 4.75723e-16 0)
(3 4.65065e-16 0)
(3 -2.25164e-16 0)
(3 -6.71122e-16 0)
(3 -9.10909e-16 0)
(3 -6.78005e-16 0)
(3 -7.38714e-16 0)
(3 -4.86206e-16 0)
(3 -1.1e-15 0)
(3 -1.1219e-15 0)
(3 -1.14373e-15 0)
(3 -9.10409e-16 0)
(3 -1.08311e-15 0)
(3 -1.75508e-15 0)
(3 -2.40075e-15 0)
(3 -2.52449e-15 0)
(3 -1.83566e-15 0)
(3 -1.65547e-15 0)
(3 -1.4995e-15 0)
(3 -1.26994e-15 0)
(3 -1.04021e-15 0)
(3 -1.06777e-15 0)
(3 -1.35343e-15 0)
(3 -1.55659e-15 0)
(3 -1.00989e-15 0)
(3 2.82709e-17 0)
(3 4.10227e-16 0)
(3 3.59423e-16 0)
(3 -4.74092e-16 0)
(3 -4.81489e-16 0)
(3 -7.16741e-16 0)
(3 -1.54342e-15 0)
(3 -2.79833e-15 0)
(3 -3.15442e-15 0)
(3 -2.78385e-15 0)
(3 -1.97897e-15 0)
(3 -1.6284e-15 0)
(3 -6.74691e-16 0)
(3 1.00201e-17 0)
(3 2.69208e-16 0)
(3 6.42637e-16 0)
(3 1.00889e-15 0)
(3 1.08934e-15 0)
(3 1.50336e-15 0)
(3 6.7425e-16 0)
(3 -8.5246e-16 0)
(3 -1.3424e-15 0)
(3 -1.68915e-15 0)
(3 -1.65943e-15 0)
(3 -9.17042e-16 0)
(3 -9.52066e-16 0)
(3 -1.66768e-15 0)
(3 -2.27136e-15 0)
(3 -2.54195e-15 0)
(3 -1.99509e-15 0)
(3 -6.82012e-16 0)
(3 7.6563e-16 0)
(3 -3.1825e-16 0)
(3 -4.9683e-16 0)
(3 -5.28728e-16 0)
(3 -8.96973e-16 0)
(3 -9.10528e-16 0)
(3 -7.6222e-16 0)
(3 -5.56107e-16 0)
(3 -4.59532e-16 0)
(3 -4.35666e-16 0)
(3 -1.68393e-16 0)
(3 -2.08317e-16 0)
(3 -1.41391e-16 0)
(3 2.30493e-16 0)
(3 1.19074e-17 0)
(3 -7.39739e-16 0)
(3 -3.26651e-16 0)
(3 -2.04921e-16 0)
(3 8.41223e-17 0)
(3 1.65462e-17 0)
(3 -1.12488e-16 0)
(3 -2.25077e-16 0)
(3 1.49577e-16 0)
(3 6.70256e-16 0)
(3 9.91199e-16 0)
(3 3.09869e-16 0)
(3 4.82729e-17 0)
(3 -6.38519e-16 0)
(3 -1.48196e-15 0)
(3 -1.41918e-15 0)
(3 -5.80507e-16 0)
(3 -4.93106e-16 0)
(3 -7.25156e-16 0)
(3 -6.59535e-16 0)
(3 -6.17886e-16 0)
(3 -3.81727e-16 0)
(3 -1.14632e-15 0)
(3 -1.27509e-15 0)
(3 -8.53223e-16 0)
(3 -1.30603e-16 0)
(3 3.62551e-16 0)
(3 1.51646e-15 0)
(3 1.44874e-15 0)
(3 7.78683e-16 0)
(3 4.98827e-18 0)
(3 -5.82657e-16 0)
(3 -5.92456e-16 0)
(3 -4.06924e-16 0)
(3 4.14934e-16 0)
(3 8.27602e-16 0)
(3 1.09013e-15 0)
(3 1.65813e-15 0)
(3 1.89034e-15 0)
(3 2.35945e-15 0)
(3 2.2021e-15 0)
(3 4.70396e-16 0)
(3 3.19897e-16 0)
(3 7.57263e-16 0)
(3 7.50493e-16 0)
(3 -4.09719e-16 0)
(3 -7.53471e-16 0)
(3 -1.55172e-15 0)
(3 -1.76373e-15 0)
(3 -1.62357e-15 0)
(3 -1.47451e-15 0)
(3 -2.36378e-15 0)
(3 -2.34858e-15 0)
(3 -1.54982e-15 0)
(3 -4.30024e-16 0)
(3 7.80041e-16 0)
(3 1.61542e-15 0)
(3 9.41778e-16 0)
(3 6.43735e-16 0)
(3 7.00794e-16 0)
(3 2.21022e-16 0)
(3 3.82272e-16 0)
(3 7.57199e-16 0)
(3 1.6088e-16 0)
(3 1.84598e-16 0)
(3 4.3878e-16 0)
(3 9.01823e-16 0)
(3 1.15187e-15 0)
(3 9.32813e-16 0)
(3 1.01738e-15 0)
(3 6.46894e-16 0)
(3 9.45548e-16 0)
(3 2.10467e-16 0)
(3 -1.03624e-15 0)
(3 -1.20538e-15 0)
(3 -8.68779e-16 0)
(3 -1.03542e-15 0)
(3 -9.99975e-16 0)
(3 -5.72237e-16 0)
(3 1.40687e-16 0)
(3 3.52134e-16 0)
(3 4.74676e-16 0)
(3 7.07696e-17 0)
(3 2.65397e-16 0)
(3 2.86626e-16 0)
(3 2.9203e-16 0)
(3 6.78819e-16 0)
(3 1.96407e-15 0)