/*--------------------------------*- C++ -*----------------------------------*\
  =========                 |
  \\      /  F ield         | OpenFOAM: The Open Source CFD Toolbox
   \\    /   O peration     | Website:  https://openfoam.org
    \\  /    A nd           | Version:  7
     \\/     M anipulation  |
\*---------------------------------------------------------------------------*/
FoamFile
{
    version     2.0;
    format      ascii;
    class       volVectorField;
    location    "0.2";
    object      U;
}
// * * * * * * * * * * * * * * * * * * * * * * * * * * * * * * * * * * * * * //

dimensions      [0 1 -1 0 0 0 0];

internalField   nonuniform List<vector> 
16512
(
(3 -2.94238e-15 0)
(3 -5.11838e-16 0)
(3 2.55344e-16 0)
(3 1.70538e-15 0)
(3 2.12561e-15 0)
(3 2.65977e-15 0)
(3 6.50232e-16 0)
(3 -2.10934e-15 0)
(3 -4.52736e-15 0)
(3 -3.70896e-15 0)
(3 -2.31824e-15 0)
(3 -1.57662e-15 0)
(3 -1.459e-15 0)
(3 -1.60675e-15 0)
(3 -2.46771e-15 0)
(3 -3.30146e-15 0)
(3 -3.232e-15 0)
(3 -3.5563e-15 0)
(3 -3.78892e-15 0)
(3 -3.29018e-15 0)
(3 -1.55894e-15 0)
(3 -6.40284e-16 0)
(3 -9.24871e-16 0)
(3 -7.11732e-16 0)
(3 5.25601e-16 0)
(3 2.54094e-15 0)
(3 3.53201e-15 0)
(3 2.98125e-15 0)
(3 2.40574e-15 0)
(3 2.23605e-15 0)
(3 1.13581e-15 0)
(3 5.40867e-16 0)
(3 3.78229e-16 0)
(3 1.18479e-15 0)
(3 -1.38747e-17 0)
(3 -1.39019e-15 0)
(3 -1.38788e-15 0)
(3 -6.08159e-16 0)
(3 -4.56853e-16 0)
(3 -6.89128e-16 0)
(3 -7.80898e-16 0)
(3 -8.15721e-16 0)
(3 -7.05415e-16 0)
(3 -6.63232e-16 0)
(3 -6.09812e-16 0)
(3 -4.57172e-16 0)
(3 -4.91059e-16 0)
(3 -1.15521e-15 0)
(3 -1.61599e-15 0)
(3 -1.17287e-15 0)
(3 -8.05102e-16 0)
(3 -1.09552e-15 0)
(3 -1.27334e-15 0)
(3 -3.83033e-16 0)
(3 1.39507e-15 0)
(3 2.16443e-15 0)
(3 1.88461e-15 0)
(3 3.16317e-16 0)
(3 -1.18997e-15 0)
(3 -5.87352e-16 0)
(3 3.99182e-17 0)
(3 -1.73027e-16 0)
(3 -3.03697e-16 0)
(3 8.3969e-16 0)
(3 5.70428e-16 0)
(3 -3.52689e-16 0)
(3 -7.32777e-16 0)
(3 -6.83315e-16 0)
(3 -1.57853e-15 0)
(3 7.33014e-16 0)
(3 1.43692e-15 0)
(3 1.05492e-15 0)
(3 1.06574e-15 0)
(3 1.08156e-15 0)
(3 -5.09233e-16 0)
(3 -9.23915e-16 0)
(3 -1.04032e-15 0)
(3 -1.46615e-15 0)
(3 -1.65101e-15 0)
(3 -1.95837e-15 0)
(3 -2.95635e-15 0)
(3 -3.74805e-15 0)
(3 -3.11927e-15 0)
(3 -1.55444e-15 0)
(3 -3.67469e-17 0)
(3 2.23845e-15 0)
(3 2.76348e-15 0)
(3 2.5218e-15 0)
(3 2.65781e-15 0)
(3 3.34826e-15 0)
(3 2.24094e-15 0)
(3 2.13037e-15 0)
(3 2.24799e-15 0)
(3 2.52429e-15 0)
(3 2.79976e-15 0)
(3 4.01215e-15 0)
(3 3.96744e-15 0)
(3 1.96886e-15 0)
(3 1.45515e-15 0)
(3 2.12047e-15 0)
(3 4.86812e-16 0)
(3 -2.14141e-15 0)
(3 -2.16326e-15 0)
(3 -7.43324e-16 0)
(3 1.60366e-15 0)
(3 2.57549e-15 0)
(3 2.26683e-15 0)
(3 1.04286e-15 0)
(3 1.27032e-15 0)
(3 -2.85219e-17 0)
(3 -1.22479e-15 0)
(3 -8.08878e-16 0)
(3 7.55224e-16 0)
(3 1.95278e-15 0)
(3 2.23223e-15 0)
(3 5.98163e-16 0)
(3 -7.07406e-16 0)
(3 -1.15464e-15 0)
(3 -4.65701e-16 0)
(3 -3.4503e-16 0)
(3 -1.32786e-16 0)
(3 1.33954e-16 0)
(3 9.88244e-17 0)
(3 1.10986e-16 0)
(3 -1.66872e-16 0)
(3 1.43595e-17 0)
(3 1.29547e-15 0)
(3 2.82266e-15 0)
(3 2.68566e-15 0)
(3 1.83013e-15 0)
(3 1.30579e-15 0)
(3 8.07122e-16 0)
(3 5.73917e-16 0)
(3 8.73731e-16 0)
(3 6.44662e-16 0)
(3 2.25144e-16 0)
(3 -2.64434e-16 0)
(3 -1.22706e-16 0)
(3 -2.20864e-16 0)
(3 -1.16664e-15 0)
(3 -2.12881e-15 0)
(3 -2.52961e-15 0)
(3 -2.49412e-15 0)
(3 -2.22127e-15 0)
(3 -2.18318e-15 0)
(3 -2.72467e-15 0)
(3 -2.68624e-15 0)
(3 -2.93315e-15 0)
(3 -3.80952e-15 0)
(3 -3.89202e-15 0)
(3 -2.30712e-15 0)
(3 -1.72603e-15 0)
(3 -1.79209e-15 0)
(3 -7.29536e-16 0)
(3 -5.97362e-16 0)
(3 1.38285e-16 0)
(3 -1.51583e-16 0)
(3 -1.51529e-15 0)
(3 -2.12169e-15 0)
(3 -1.8962e-15 0)
(3 -9.35737e-16 0)
(3 -2.44956e-16 0)
(3 5.10569e-17 0)
(3 -4.13079e-16 0)
(3 -9.92642e-16 0)
(3 -1.09213e-15 0)
(3 2.42026e-16 0)
(3 1.32522e-15 0)
(3 -2.40164e-15 0)
(3 -2.44625e-15 0)
(3 -2.18791e-15 0)
(3 -1.78889e-15 0)
(3 -2.03864e-15 0)
(3 -2.59149e-15 0)
(3 -3.01e-15 0)
(3 -2.39243e-15 0)
(3 -1.54598e-15 0)
(3 -5.25851e-16 0)
(3 -6.89015e-16 0)
(3 1.54095e-16 0)
(3 7.40348e-16 0)
(3 3.04553e-16 0)
(3 -1.31602e-15 0)
(3 -2.87421e-15 0)
(3 -3.19949e-15 0)
(3 -2.91332e-15 0)
(3 -3.11332e-15 0)
(3 -1.07837e-15 0)
(3 -3.89079e-16 0)
(3 -9.69695e-16 0)
(3 -1.97527e-15 0)
(3 -2.1001e-15 0)
(3 -1.24721e-15 0)
(3 -1.2484e-15 0)
(3 -1.53502e-15 0)
(3 -1.18385e-15 0)
(3 -1.92478e-15 0)
(3 -3.46188e-15 0)
(3 -2.08645e-15 0)
(3 -3.85178e-16 0)
(3 4.72636e-16 0)
(3 4.43794e-16 0)
(3 1.76335e-15 0)
(3 1.96956e-15 0)
(3 2.63984e-15 0)
(3 3.22881e-15 0)
(3 1.80105e-15 0)
(3 1.2469e-15 0)
(3 1.49029e-15 0)
(3 9.09696e-16 0)
(3 2.81683e-16 0)
(3 5.14825e-16 0)
(3 3.24935e-16 0)
(3 6.26908e-16 0)
(3 1.21409e-15 0)
(3 1.32419e-15 0)
(3 8.91833e-16 0)
(3 4.8563e-16 0)
(3 -1.43594e-16 0)
(3 -5.41121e-17 0)
(3 7.88852e-16 0)
(3 1.05076e-15 0)
(3 6.91702e-16 0)
(3 -6.9141e-16 0)
(3 -1.53324e-15 0)
(3 2.19533e-17 0)
(3 -3.06471e-16 0)
(3 -7.02064e-16 0)
(3 -3.47396e-16 0)
(3 7.07968e-16 0)
(3 1.40089e-15 0)
(3 9.89976e-16 0)
(3 2.13405e-16 0)
(3 -1.01278e-15 0)
(3 -1.73323e-15 0)
(3 -1.11443e-15 0)
(3 -6.54069e-16 0)
(3 -1.89948e-16 0)
(3 1.87121e-15 0)
(3 2.58613e-15 0)
(3 2.3929e-15 0)
(3 1.03239e-15 0)
(3 -5.54363e-16 0)
(3 -9.35244e-16 0)
(3 -1.05348e-15 0)
(3 -3.78166e-16 0)
(3 1.64186e-15 0)
(3 1.62999e-15 0)
(3 1.02486e-15 0)
(3 -1.10623e-18 0)
(3 -8.55864e-16 0)
(3 -5.45049e-16 0)
(3 3.57798e-17 0)
(3 -5.47864e-16 0)
(3 -1.18979e-15 0)
(3 -9.23128e-16 0)
(3 -6.36397e-16 0)
(3 -8.35501e-16 0)
(3 -1.87606e-15 0)
(3 -2.00946e-15 0)
(3 -1.16813e-15 0)
(3 3.76477e-16 0)
(3 1.9764e-15 0)
(3 9.37588e-16 0)
(3 4.97377e-16 0)
(3 7.72647e-16 0)
(3 2.89438e-15 0)
(3 4.82653e-15 0)
(3 4.57167e-15 0)
(3 3.6513e-15 0)
(3 3.76092e-15 0)
(3 3.29372e-15 0)
(3 2.72563e-15 0)
(3 1.61778e-15 0)
(3 1.01827e-15 0)
(3 1.17551e-15 0)
(3 6.04735e-16 0)
(3 2.15209e-16 0)
(3 -1.96226e-16 0)
(3 4.92308e-16 0)
(3 1.74617e-15 0)
(3 3.25482e-15 0)
(3 3.14204e-15 0)
(3 1.06407e-15 0)
(3 2.15641e-16 0)
(3 5.16852e-16 0)
(3 9.68695e-16 0)
(3 9.56957e-16 0)
(3 4.84371e-17 0)
(3 4.72541e-17 0)
(3 1.19928e-15 0)
(3 1.38829e-15 0)
(3 9.9792e-16 0)
(3 1.18516e-15 0)
(3 7.52244e-16 0)
(3 3.05701e-16 0)
(3 9.085e-17 0)
(3 -1.90766e-16 0)
(3 6.79382e-16 0)
(3 1.11769e-15 0)
(3 1.37706e-15 0)
(3 1.18703e-15 0)
(3 8.51722e-16 0)
(3 3.60067e-16 0)
(3 3.64314e-16 0)
(3 1.05198e-15 0)
(3 1.82187e-15 0)
(3 8.56414e-16 0)
(3 7.87315e-16 0)
(3 8.03614e-16 0)
(3 -2.7151e-16 0)
(3 -1.27784e-15 0)
(3 -1.38631e-15 0)
(3 -1.26845e-15 0)
(3 -1.17094e-15 0)
(3 -1.84369e-15 0)
(3 -1.19645e-15 0)
(3 -1.39235e-15 0)
(3 -1.67833e-15 0)
(3 -2.10229e-15 0)
(3 -2.74575e-15 0)
(3 -1.93561e-15 0)
(3 -7.54005e-16 0)
(3 -1.11295e-15 0)
(3 -3.56637e-15 0)
(3 -3.32863e-15 0)
(3 -2.54998e-15 0)
(3 -2.20158e-15 0)
(3 -1.93753e-15 0)
(3 -1.14536e-15 0)
(3 -1.29954e-15 0)
(3 -7.47223e-16 0)
(3 -2.46947e-16 0)
(3 -9.4799e-16 0)
(3 -1.59189e-15 0)
(3 -1.36112e-15 0)
(3 -5.43501e-16 0)
(3 -5.01123e-16 0)
(3 -6.04024e-16 0)
(3 -2.95617e-16 0)
(3 -3.66514e-16 0)
(3 -1.68582e-15 0)
(3 -1.54334e-15 0)
(3 -1.39649e-15 0)
(3 -4.07925e-15 0)
(3 -3.60026e-15 0)
(3 -2.92406e-15 0)
(3 -1.98758e-15 0)
(3 -1.43742e-15 0)
(3 -1.61767e-15 0)
(3 -1.54307e-15 0)
(3 -7.57752e-16 0)
(3 -8.1663e-16 0)
(3 -1.60862e-15 0)
(3 -1.41597e-15 0)
(3 -6.84667e-16 0)
(3 4.27333e-16 0)
(3 -9.07539e-16 0)
(3 -1.15566e-15 0)
(3 -5.87411e-16 0)
(3 4.19925e-16 0)
(3 -5.32163e-17 0)
(3 -1.59393e-15 0)
(3 -2.33441e-15 0)
(3 -2.28198e-15 0)
(3 -1.64594e-15 0)
(3 -1.20294e-15 0)
(3 -1.18465e-15 0)
(3 -1.10979e-15 0)
(3 -5.95864e-16 0)
(3 -2.5654e-17 0)
(3 4.79754e-16 0)
(3 -1.21311e-15 0)
(3 -2.51048e-15 0)
(3 -2.78188e-15 0)
(3 -9.87694e-16 0)
(3 -3.6208e-16 0)
(3 1.70391e-15 0)
(3 1.59805e-15 0)
(3 1.02145e-15 0)
(3 1.10382e-15 0)
(3 1.40327e-15 0)
(3 1.39931e-15 0)
(3 1.12438e-15 0)
(3 9.44306e-16 0)
(3 1.12845e-15 0)
(3 1.86205e-15 0)
(3 3.12168e-15 0)
(3 3.40135e-15 0)
(3 2.41477e-15 0)
(3 2.08712e-15 0)
(3 1.28186e-15 0)
(3 9.09869e-16 0)
(3 1.22373e-15 0)
(3 5.21391e-16 0)
(3 -5.65279e-16 0)
(3 2.26067e-16 0)
(3 1.04327e-15 0)
(3 4.41236e-16 0)
(3 -7.59009e-16 0)
(3 -1.0287e-15 0)
(3 -5.80736e-16 0)
(3 -6.00845e-16 0)
(3 -6.94481e-16 0)
(3 -5.74028e-16 0)
(3 -6.19186e-17 0)
(3 2.22294e-16 0)
(3 3.315e-16 0)
(3 4.34763e-16 0)
(3 -4.93182e-16 0)
(3 -2.46713e-15 0)
(3 -2.27165e-15 0)
(3 -1.28044e-15 0)
(3 1.49578e-15 0)
(3 3.15099e-15 0)
(3 2.4456e-15 0)
(3 2.23663e-15 0)
(3 1.69461e-15 0)
(3 1.2428e-15 0)
(3 6.14333e-16 0)
(3 3.81937e-16 0)
(3 -8.09284e-16 0)
(3 -7.46028e-16 0)
(3 1.12455e-16 0)
(3 -4.41028e-16 0)
(3 -3.83475e-16 0)
(3 -2.02732e-16 0)
(3 3.51551e-16 0)
(3 6.51247e-16 0)
(3 7.47211e-16 0)
(3 3.69663e-16 0)
(3 -3.23714e-16 0)
(3 -6.60696e-16 0)
(3 7.44351e-17 0)
(3 1.60568e-16 0)
(3 -1.96972e-15 0)
(3 -1.05305e-15 0)
(3 1.46042e-15 0)
(3 1.95496e-15 0)
(3 4.97736e-16 0)
(3 2.34517e-16 0)
(3 2.35565e-17 0)
(3 2.97257e-15 0)
(3 5.81447e-15 0)
(3 5.70824e-15 0)
(3 4.63724e-15 0)
(3 2.76113e-15 0)
(3 1.28579e-15 0)
(3 1.35697e-15 0)
(3 2.0641e-15 0)
(3 2.48151e-15 0)
(3 1.39075e-15 0)
(3 1.15402e-15 0)
(3 1.23121e-15 0)
(3 1.11452e-15 0)
(3 1.39712e-16 0)
(3 7.53526e-16 0)
(3 1.68169e-15 0)
(3 2.36818e-15 0)
(3 2.33497e-15 0)
(3 1.49384e-15 0)
(3 1.36347e-15 0)
(3 1.65552e-15 0)
(3 1.65841e-15 0)
(3 2.12672e-15 0)
(3 2.36768e-15 0)
(3 1.85738e-15 0)
(3 2.12428e-15 0)
(3 2.25903e-15 0)
(3 2.24959e-15 0)
(3 2.20582e-15 0)
(3 1.99671e-15 0)
(3 1.90014e-16 0)
(3 -1.3154e-15 0)
(3 -3.9216e-16 0)
(3 1.7334e-16 0)
(3 1.42686e-15 0)
(3 1.49452e-15 0)
(3 -8.13142e-17 0)
(3 -1.76921e-15 0)
(3 -1.26747e-15 0)
(3 -4.7264e-16 0)
(3 1.01839e-15 0)
(3 8.492e-16 0)
(3 2.54482e-16 0)
(3 -3.0413e-16 0)
(3 -1.01206e-15 0)
(3 -1.3078e-15 0)
(3 -1.64279e-15 0)
(3 -1.73182e-15 0)
(3 -2.11128e-15 0)
(3 -1.82361e-15 0)
(3 -1.59202e-15 0)
(3 -1.73489e-15 0)
(3 -1.93106e-15 0)
(3 -1.80528e-15 0)
(3 -1.11032e-15 0)
(3 2.5001e-16 0)
(3 6.3856e-17 0)
(3 -1.16579e-15 0)
(3 -1.89177e-15 0)
(3 -2.07336e-15 0)
(3 -1.56679e-15 0)
(3 -1.60912e-15 0)
(3 -5.31699e-16 0)
(3 -8.3379e-16 0)
(3 -1.45228e-15 0)
(3 -2.04556e-15 0)
(3 -1.27786e-15 0)
(3 1.33954e-16 0)
(3 3.72843e-16 0)
(3 2.6328e-16 0)
(3 4.5256e-16 0)
(3 9.12148e-17 0)
(3 -2.1424e-16 0)
(3 -1.54131e-16 0)
(3 3.96324e-16 0)
(3 -6.37797e-16 0)
(3 -2.21438e-15 0)
(3 -2.71874e-15 0)
(3 -4.43437e-15 0)
(3 -2.99538e-15 0)
(3 -1.37243e-15 0)
(3 -1.92369e-15 0)
(3 -1.87496e-15 0)
(3 -1.72225e-15 0)
(3 -1.21346e-15 0)
(3 -6.0378e-16 0)
(3 -6.44488e-16 0)
(3 -1.29881e-15 0)
(3 -1.20332e-15 0)
(3 -3.06871e-16 0)
(3 -1.14013e-15 0)
(3 -1.13596e-15 0)
(3 8.04797e-16 0)
(3 9.3468e-16 0)
(3 1.7939e-16 0)
(3 4.23257e-16 0)
(3 1.72366e-16 0)
(3 -7.45964e-16 0)
(3 -1.31917e-15 0)
(3 -1.44618e-15 0)
(3 -1.50929e-15 0)
(3 -1.27782e-15 0)
(3 -8.93033e-16 0)
(3 -8.10448e-17 0)
(3 3.53903e-16 0)
(3 9.00349e-16 0)
(3 1.19504e-15 0)
(3 1.08333e-15 0)
(3 2.95581e-16 0)
(3 2.26721e-16 0)
(3 4.68603e-16 0)
(3 1.64121e-15 0)
(3 1.02558e-15 0)
(3 -8.16581e-16 0)
(3 -1.0972e-15 0)
(3 -9.72752e-16 0)
(3 -5.67846e-18 0)
(3 3.51585e-16 0)
(3 9.42371e-17 0)
(3 -9.96774e-17 0)
(3 9.52145e-16 0)
(3 1.78542e-15 0)
(3 2.40763e-15 0)
(3 2.58619e-15 0)
(3 1.59481e-15 0)
(3 1.14052e-15 0)
(3 1.27992e-15 0)
(3 1.52559e-15 0)
(3 2.17091e-15 0)
(3 2.05644e-15 0)
(3 2.44132e-15 0)
(3 1.22691e-15 0)
(3 4.04071e-16 0)
(3 -6.59513e-16 0)
(3 -1.62454e-15 0)
(3 -1.90943e-15 0)
(3 -1.59999e-15 0)
(3 -7.57682e-16 0)
(3 -1.22821e-15 0)
(3 -5.42242e-16 0)
(3 -1.3877e-15 0)
(3 -7.40048e-16 0)
(3 -9.61325e-17 0)
(3 1.88484e-16 0)
(3 8.21352e-16 0)
(3 5.31562e-16 0)
(3 -1.01608e-15 0)
(3 3.19912e-16 0)
(3 6.5514e-16 0)
(3 9.73179e-16 0)
(3 1.35751e-15 0)
(3 1.60327e-15 0)
(3 1.85736e-15 0)
(3 1.9347e-15 0)
(3 4.95803e-16 0)
(3 -1.50775e-15 0)
(3 -2.58576e-15 0)
(3 -2.31287e-15 0)
(3 -1.75389e-15 0)
(3 -9.54427e-16 0)
(3 5.42234e-16 0)
(3 4.07507e-16 0)
(3 3.76326e-16 0)
(3 6.59391e-16 0)
(3 4.87013e-16 0)
(3 2.79792e-16 0)
(3 7.22887e-17 0)
(3 7.10321e-16 0)
(3 1.1623e-15 0)
(3 2.29769e-16 0)
(3 3.28876e-16 0)
(3 -7.09669e-16 0)
(3 -8.01613e-16 0)
(3 1.13948e-15 0)
(3 1.49319e-15 0)
(3 2.90154e-15 0)
(3 3.95663e-15 0)
(3 4.52122e-15 0)
(3 4.21788e-15 0)
(3 3.01716e-15 0)
(3 2.35502e-15 0)
(3 2.43182e-15 0)
(3 1.56487e-15 0)
(3 1.37728e-15 0)
(3 7.93496e-16 0)
(3 -9.54984e-17 0)
(3 -1.48129e-16 0)
(3 -2.93815e-16 0)
(3 7.80126e-16 0)
(3 1.25538e-15 0)
(3 2.68325e-15 0)
(3 2.80995e-15 0)
(3 3.56142e-15 0)
(3 3.74426e-15 0)
(3 3.37732e-15 0)
(3 2.63509e-15 0)
(3 1.16909e-15 0)
(3 5.13863e-16 0)
(3 1.14287e-15 0)
(3 1.34706e-15 0)
(3 8.21003e-16 0)
(3 1.18992e-15 0)
(3 1.15568e-15 0)
(3 6.19097e-16 0)
(3 1.02558e-15 0)
(3 1.03331e-15 0)
(3 -7.34302e-16 0)
(3 -1.02138e-15 0)
(3 -1.09142e-15 0)
(3 -4.65895e-16 0)
(3 4.99869e-16 0)
(3 1.00782e-15 0)
(3 2.02778e-16 0)
(3 -3.12406e-16 0)
(3 -6.07745e-16 0)
(3 -7.04436e-16 0)
(3 -6.24966e-16 0)
(3 -1.33034e-15 0)
(3 -2.93139e-15 0)
(3 -3.10769e-15 0)
(3 -3.48826e-15 0)
(3 -1.31614e-15 0)
(3 -1.01409e-15 0)
(3 -1.40151e-15 0)
(3 -1.72508e-15 0)
(3 -2.11175e-15 0)
(3 -2.88347e-15 0)
(3 -3.55989e-15 0)
(3 -3.53086e-15 0)
(3 -7.69161e-16 0)
(3 1.95642e-15 0)
(3 1.47207e-15 0)
(3 6.56975e-16 0)
(3 4.16039e-16 0)
(3 -4.479e-16 0)
(3 -1.22091e-15 0)
(3 -1.47163e-15 0)
(3 -1.28476e-15 0)
(3 -7.59527e-16 0)
(3 -7.89275e-16 0)
(3 -5.44796e-16 0)
(3 -8.79368e-16 0)
(3 -8.99539e-16 0)
(3 5.86955e-17 0)
(3 9.21582e-16 0)
(3 4.36694e-16 0)
(3 -6.12535e-16 0)
(3 -3.3157e-16 0)
(3 3.09127e-16 0)
(3 -1.13663e-16 0)
(3 -4.1446e-16 0)
(3 -1.45554e-16 0)
(3 -9.30892e-16 0)
(3 -6.47223e-16 0)
(3 -2.22185e-15 0)
(3 -2.18717e-15 0)
(3 -3.3185e-15 0)
(3 -2.89692e-15 0)
(3 -2.09634e-15 0)
(3 -1.11582e-15 0)
(3 -9.02986e-16 0)
(3 -9.83973e-16 0)
(3 -7.2958e-16 0)
(3 -7.64314e-16 0)
(3 -9.93258e-16 0)
(3 -1.33526e-15 0)
(3 -2.65461e-15 0)
(3 -1.22149e-15 0)
(3 3.10365e-16 0)
(3 2.22078e-16 0)
(3 -1.56997e-16 0)
(3 1.15948e-16 0)
(3 8.231e-16 0)
(3 1.04659e-15 0)
(3 -1.09653e-16 0)
(3 -1.25683e-15 0)
(3 -1.58511e-15 0)
(3 -8.68479e-16 0)
(3 1.5926e-16 0)
(3 5.32564e-16 0)
(3 6.81211e-16 0)
(3 8.03064e-16 0)
(3 1.64952e-15 0)
(3 3.28813e-15 0)
(3 4.20712e-15 0)
(3 1.58077e-15 0)
(3 1.23507e-15 0)
(3 -2.87618e-16 0)
(3 -2.52339e-15 0)
(3 -2.54756e-15 0)
(3 -2.51633e-15 0)
(3 -2.31936e-15 0)
(3 -1.64123e-15 0)
(3 -1.04761e-15 0)
(3 1.07573e-15 0)
(3 1.34858e-15 0)
(3 2.19806e-15 0)
(3 2.64523e-15 0)
(3 2.41595e-15 0)
(3 2.09401e-15 0)
(3 1.70626e-15 0)
(3 2.02197e-15 0)
(3 1.96197e-15 0)
(3 1.60032e-15 0)
(3 2.2417e-15 0)
(3 2.46202e-15 0)
(3 2.26742e-15 0)
(3 5.41142e-16 0)
(3 -6.06738e-16 0)
(3 -6.85359e-16 0)
(3 -2.14759e-15 0)
(3 -2.82913e-15 0)
(3 -2.24682e-15 0)
(3 -1.73028e-16 0)
(3 -1.06108e-16 0)
(3 -7.67565e-16 0)
(3 -1.1908e-15 0)
(3 -8.86572e-16 0)
(3 -3.07325e-16 0)
(3 1.64893e-15 0)
(3 3.80104e-15 0)
(3 3.83391e-15 0)
(3 1.96567e-15 0)
(3 1.80995e-15 0)
(3 1.78458e-15 0)
(3 2.21377e-15 0)
(3 1.83002e-15 0)
(3 1.32957e-15 0)
(3 3.41295e-16 0)
(3 -1.25993e-15 0)
(3 -1.24968e-15 0)
(3 -1.10378e-15 0)
(3 -1.1743e-15 0)
(3 -1.73605e-15 0)
(3 -1.54009e-15 0)
(3 -1.05856e-15 0)
(3 -3.48615e-16 0)
(3 3.28967e-17 0)
(3 -2.22591e-16 0)
(3 -6.46859e-16 0)
(3 -1.56629e-16 0)
(3 3.80417e-16 0)
(3 1.61898e-15 0)
(3 1.41476e-15 0)
(3 1.41959e-15 0)
(3 1.60151e-15 0)
(3 -5.18604e-16 0)
(3 -1.42426e-15 0)
(3 -7.46178e-16 0)
(3 8.49437e-16 0)
(3 2.66377e-15 0)
(3 4.0494e-15 0)
(3 4.41594e-15 0)
(3 3.51313e-15 0)
(3 3.02594e-15 0)
(3 2.61764e-15 0)
(3 3.00927e-15 0)
(3 3.01318e-15 0)
(3 2.37872e-15 0)
(3 1.05523e-15 0)
(3 -6.06286e-16 0)
(3 -7.06427e-16 0)
(3 -1.58091e-15 0)
(3 -2.43851e-15 0)
(3 -1.66143e-15 0)
(3 1.47207e-15 0)
(3 1.99785e-15 0)
(3 1.55203e-15 0)
(3 1.2362e-15 0)
(3 1.92003e-15 0)
(3 2.30156e-15 0)
(3 1.67055e-15 0)
(3 1.73674e-15 0)
(3 2.32792e-15 0)
(3 9.69852e-16 0)
(3 -1.01577e-15 0)
(3 -1.64756e-15 0)
(3 -1.7703e-15 0)
(3 -1.46156e-15 0)
(3 -1.11728e-15 0)
(3 -1.56685e-15 0)
(3 -1.74759e-15 0)
(3 -1.41173e-15 0)
(3 4.59645e-16 0)
(3 5.35004e-16 0)
(3 2.23552e-16 0)
(3 1.63428e-15 0)
(3 2.22438e-15 0)
(3 1.53086e-15 0)
(3 1.07612e-15 0)
(3 -6.36308e-17 0)
(3 1.07469e-17 0)
(3 -1.57816e-16 0)
(3 -1.59572e-15 0)
(3 -3.74849e-15 0)
(3 -4.24887e-15 0)
(3 -3.20399e-15 0)
(3 -2.41637e-15 0)
(3 -2.5474e-15 0)
(3 -2.94573e-15 0)
(3 -2.88439e-15 0)
(3 -2.75993e-15 0)
(3 -2.51378e-15 0)
(3 -2.27604e-15 0)
(3 -1.46373e-15 0)
(3 1.31462e-15 0)
(3 1.90472e-15 0)
(3 1.93841e-15 0)
(3 2.43411e-15 0)
(3 2.33947e-15 0)
(3 1.79582e-15 0)
(3 1.20378e-16 0)
(3 -1.47006e-15 0)
(3 -1.85557e-15 0)
(3 -1.41451e-15 0)
(3 -5.72633e-16 0)
(3 -6.82904e-17 0)
(3 1.19235e-15 0)
(3 1.63142e-15 0)
(3 2.02352e-15 0)
(3 2.09988e-15 0)
(3 6.51323e-16 0)
(3 -1.397e-16 0)
(3 -1.35427e-15 0)
(3 -1.94618e-15 0)
(3 -1.83071e-15 0)
(3 3.60634e-16 0)
(3 1.52233e-15 0)
(3 2.31843e-15 0)
(3 2.32392e-15 0)
(3 6.61958e-16 0)
(3 -9.08808e-17 0)
(3 -1.06253e-15 0)
(3 -1.32627e-16 0)
(3 4.49755e-16 0)
(3 5.36891e-16 0)
(3 6.2234e-16 0)
(3 6.70635e-16 0)
(3 1.07592e-15 0)
(3 1.25847e-15 0)
(3 6.91383e-16 0)
(3 -6.70788e-16 0)
(3 -9.59985e-16 0)
(3 -4.74652e-16 0)
(3 4.21963e-16 0)
(3 1.57492e-15 0)
(3 2.17793e-15 0)
(3 2.46324e-15 0)
(3 8.72866e-16 0)
(3 3.86891e-16 0)
(3 6.75821e-17 0)
(3 -1.41996e-17 0)
(3 1.64319e-16 0)
(3 2.58642e-16 0)
(3 7.01386e-16 0)
(3 1.15673e-15 0)
(3 9.7035e-16 0)
(3 7.26156e-16 0)
(3 9.87289e-16 0)
(3 3.68481e-15 0)
(3 5.94495e-15 0)
(3 6.05132e-15 0)
(3 4.6979e-15 0)
(3 1.08024e-15 0)
(3 -1.00882e-15 0)
(3 -1.25295e-15 0)
(3 -1.50393e-15 0)
(3 -1.78196e-15 0)
(3 -1.9273e-15 0)
(3 -1.16774e-15 0)
(3 1.67228e-15 0)
(3 2.64126e-15 0)
(3 2.63629e-15 0)
(3 2.46162e-15 0)
(3 2.33146e-15 0)
(3 2.97665e-15 0)
(3 3.69603e-15 0)
(3 4.83348e-15 0)
(3 4.93579e-15 0)
(3 3.9042e-15 0)
(3 3.22138e-15 0)
(3 1.68443e-15 0)
(3 -6.02578e-16 0)
(3 -8.62379e-16 0)
(3 -2.55826e-16 0)
(3 4.73691e-16 0)
(3 4.37547e-16 0)
(3 -1.32659e-15 0)
(3 -1.67616e-15 0)
(3 -2.26365e-15 0)
(3 -2.19607e-15 0)
(3 -2.41416e-15 0)
(3 -5.29714e-16 0)
(3 -1.72233e-16 0)
(3 -2.60786e-16 0)
(3 1.27186e-15 0)
(3 2.099e-15 0)
(3 1.96834e-15 0)
(3 2.39238e-15 0)
(3 2.53046e-15 0)
(3 1.72378e-15 0)
(3 6.66611e-16 0)
(3 -5.96373e-16 0)
(3 -1.48604e-15 0)
(3 -2.47841e-15 0)
(3 -2.02875e-15 0)
(3 -1.53021e-15 0)
(3 2.80226e-16 0)
(3 8.76002e-16 0)
(3 1.88365e-16 0)
(3 2.63885e-16 0)
(3 -3.0353e-16 0)
(3 -1.09822e-15 0)
(3 -1.16944e-15 0)
(3 -1.70841e-15 0)
(3 -2.04009e-15 0)
(3 -6.07854e-16 0)
(3 2.58199e-16 0)
(3 7.923e-16 0)
(3 4.25744e-16 0)
(3 5.29275e-16 0)
(3 -1.84837e-16 0)
(3 -3.37197e-16 0)
(3 4.78869e-16 0)
(3 5.74284e-16 0)
(3 7.66733e-16 0)
(3 2.14172e-15 0)
(3 2.83821e-15 0)
(3 3.27622e-15 0)
(3 3.61404e-15 0)
(3 3.31379e-15 0)
(3 3.04203e-15 0)
(3 3.45909e-15 0)
(3 3.74183e-15 0)
(3 2.98184e-15 0)
(3 1.49311e-15 0)
(3 -1.31784e-16 0)
(3 -1.32309e-15 0)
(3 -2.0819e-15 0)
(3 -2.57023e-15 0)
(3 -1.91977e-15 0)
(3 1.15261e-15 0)
(3 1.72585e-15 0)
(3 1.5634e-15 0)
(3 4.89299e-16 0)
(3 5.86691e-18 0)
(3 1.78571e-16 0)
(3 7.73271e-16 0)
(3 2.49974e-15 0)
(3 4.02215e-15 0)
(3 3.58642e-15 0)
(3 3.67642e-16 0)
(3 -1.61651e-15 0)
(3 -1.83471e-15 0)
(3 -1.79039e-15 0)
(3 -1.9165e-15 0)
(3 -2.53521e-15 0)
(3 -2.15069e-15 0)
(3 -1.26095e-15 0)
(3 9.46983e-16 0)
(3 2.09037e-15 0)
(3 2.0031e-15 0)
(3 1.71004e-15 0)
(3 1.28644e-15 0)
(3 1.2078e-15 0)
(3 5.72998e-16 0)
(3 9.23179e-17 0)
(3 7.39102e-16 0)
(3 -1.00447e-15 0)
(3 -2.57402e-15 0)
(3 -3.02111e-15 0)
(3 -2.39705e-15 0)
(3 -1.36431e-15 0)
(3 -1.25504e-15 0)
(3 -3.79094e-15 0)
(3 -4.6564e-15 0)
(3 -4.74725e-15 0)
(3 -3.9376e-15 0)
(3 -9.03556e-16 0)
(3 1.97651e-15 0)
(3 3.81413e-15 0)
(3 2.66356e-15 0)
(3 7.37844e-16 0)
(3 1.14582e-15 0)
(3 1.88749e-15 0)
(3 1.81565e-15 0)
(3 1.40406e-15 0)
(3 4.76269e-17 0)
(3 -7.62436e-16 0)
(3 -5.68585e-16 0)
(3 -8.82313e-16 0)
(3 -9.64542e-16 0)
(3 3.8525e-16 0)
(3 1.22357e-15 0)
(3 2.06483e-15 0)
(3 2.8619e-15 0)
(3 2.88193e-15 0)
(3 2.83522e-15 0)
(3 2.4231e-15 0)
(3 6.47453e-16 0)
(3 -7.69021e-16 0)
(3 -2.97932e-16 0)
(3 1.06276e-15 0)
(3 3.23057e-15 0)
(3 3.75034e-15 0)
(3 2.9998e-15 0)
(3 3.95664e-16 0)
(3 4.33724e-16 0)
(3 1.37727e-16 0)
(3 -1.21314e-16 0)
(3 9.66553e-17 0)
(3 1.81141e-16 0)
(3 5.97377e-16 0)
(3 1.3784e-15 0)
(3 1.94989e-15 0)
(3 1.67051e-15 0)
(3 1.35171e-15 0)
(3 1.00953e-15 0)
(3 6.7416e-16 0)
(3 4.87968e-16 0)
(3 4.55225e-17 0)
(3 5.99141e-16 0)
(3 1.71107e-15 0)
(3 1.83717e-15 0)
(3 1.50592e-15 0)
(3 5.57657e-16 0)
(3 3.13544e-16 0)
(3 3.08021e-16 0)
(3 2.98753e-16 0)
(3 8.07939e-16 0)
(3 1.30473e-15 0)
(3 9.6006e-16 0)
(3 1.25729e-15 0)
(3 3.13802e-15 0)
(3 3.30377e-15 0)
(3 3.18947e-15 0)
(3 2.09982e-15 0)
(3 1.06468e-15 0)
(3 -6.32365e-16 0)
(3 -1.11551e-15 0)
(3 -9.31224e-16 0)
(3 -1.07616e-15 0)
(3 -1.21333e-15 0)
(3 -1.44421e-15 0)
(3 -1.88406e-15 0)
(3 -6.38684e-16 0)
(3 1.10608e-15 0)
(3 2.74459e-15 0)
(3 3.21878e-15 0)
(3 4.54911e-15 0)
(3 4.63383e-15 0)
(3 3.62982e-15 0)
(3 3.42525e-15 0)
(3 3.21328e-15 0)
(3 3.16494e-15 0)
(3 2.75046e-15 0)
(3 2.6543e-15 0)
(3 -3.54252e-16 0)
(3 -2.33973e-15 0)
(3 -2.36524e-15 0)
(3 -1.83377e-15 0)
(3 -3.8332e-16 0)
(3 -2.00274e-16 0)
(3 -7.86228e-16 0)
(3 -7.42359e-16 0)
(3 -8.38654e-16 0)
(3 -6.62076e-16 0)
(3 -2.62514e-16 0)
(3 -4.25024e-16 0)
(3 -8.98847e-17 0)
(3 3.37344e-17 0)
(3 9.40256e-16 0)
(3 1.14022e-15 0)
(3 9.83966e-16 0)
(3 1.16629e-15 0)
(3 1.50856e-15 0)
(3 1.67237e-15 0)
(3 -2.32927e-16 0)
(3 -1.5239e-15 0)
(3 -2.1359e-15 0)
(3 -1.70724e-15 0)
(3 -1.62702e-16 0)
(3 5.49186e-16 0)
(3 1.35496e-15 0)
(3 1.70085e-15 0)
(3 1.62494e-15 0)
(3 9.74176e-17 0)
(3 -1.26048e-15 0)
(3 -1.91727e-15 0)
(3 -1.7848e-15 0)
(3 -1.27313e-15 0)
(3 -1.35381e-15 0)
(3 -4.52043e-16 0)
(3 -2.91e-16 0)
(3 6.85326e-17 0)
(3 2.20311e-16 0)
(3 -2.01137e-16 0)
(3 -3.29244e-16 0)
(3 6.8025e-16 0)
(3 2.07313e-15 0)
(3 2.13315e-15 0)
(3 2.51874e-15 0)
(3 2.72235e-15 0)
(3 2.57979e-15 0)
(3 2.80644e-15 0)
(3 2.80185e-15 0)
(3 2.70863e-15 0)
(3 2.26863e-15 0)
(3 1.89493e-15 0)
(3 1.79966e-15 0)
(3 1.69339e-15 0)
(3 1.19019e-15 0)
(3 -1.46555e-16 0)
(3 -2.06179e-15 0)
(3 -1.28821e-15 0)
(3 1.70985e-16 0)
(3 8.73582e-16 0)
(3 8.11384e-16 0)
(3 1.09412e-15 0)
(3 1.11313e-15 0)
(3 9.20298e-16 0)
(3 1.00351e-15 0)
(3 6.14978e-16 0)
(3 1.21494e-15 0)
(3 3.42072e-15 0)
(3 3.08979e-15 0)
(3 1.97981e-15 0)
(3 3.80256e-16 0)
(3 -7.24675e-16 0)
(3 3.30356e-16 0)
(3 1.15604e-15 0)
(3 7.15463e-16 0)
(3 -1.41783e-16 0)
(3 -4.70244e-16 0)
(3 3.78704e-16 0)
(3 9.53603e-16 0)
(3 2.09375e-15 0)
(3 2.61739e-15 0)
(3 1.96084e-15 0)
(3 1.89838e-16 0)
(3 -8.94478e-16 0)
(3 -1.0224e-15 0)
(3 -5.99906e-16 0)
(3 7.78162e-17 0)
(3 -1.98263e-16 0)
(3 -4.35016e-16 0)
(3 -9.3391e-17 0)
(3 1.01731e-15 0)
(3 2.28189e-16 0)
(3 -1.49347e-15 0)
(3 -2.25684e-15 0)
(3 -2.74285e-15 0)
(3 -3.89175e-15 0)
(3 -9.81451e-16 0)
(3 1.46455e-15 0)
(3 2.38401e-15 0)
(3 2.3697e-15 0)
(3 1.44632e-15 0)
(3 -5.76227e-16 0)
(3 -1.06833e-15 0)
(3 6.62433e-16 0)
(3 1.40356e-15 0)
(3 1.40903e-15 0)
(3 1.18671e-15 0)
(3 1.20487e-15 0)
(3 1.87933e-15 0)
(3 2.1289e-15 0)
(3 1.56829e-15 0)
(3 4.79021e-16 0)
(3 -9.70826e-16 0)
(3 -3.70745e-16 0)
(3 1.80972e-16 0)
(3 9.19206e-16 0)
(3 2.38522e-15 0)
(3 1.7587e-15 0)
(3 9.10759e-16 0)
(3 1.21237e-15 0)
(3 1.22141e-15 0)
(3 1.62863e-15 0)
(3 1.98473e-15 0)
(3 7.98942e-16 0)
(3 1.01564e-16 0)
(3 -6.8246e-16 0)
(3 1.585e-16 0)
(3 9.10828e-16 0)
(3 4.07013e-16 0)
(3 6.19766e-16 0)
(3 5.4728e-16 0)
(3 9.68754e-16 0)
(3 1.35098e-15 0)
(3 1.78874e-15 0)
(3 1.98224e-15 0)
(3 2.66955e-15 0)
(3 2.99452e-15 0)
(3 2.33577e-15 0)
(3 1.69377e-15 0)
(3 3.42654e-16 0)
(3 3.11689e-16 0)
(3 2.65541e-16 0)
(3 1.47528e-15 0)
(3 3.44576e-15 0)
(3 3.31869e-15 0)
(3 2.32767e-15 0)
(3 1.76185e-15 0)
(3 1.9415e-15 0)
(3 2.65286e-15 0)
(3 2.90158e-15 0)
(3 2.60331e-15 0)
(3 2.78561e-15 0)
(3 3.81611e-15 0)
(3 3.55343e-15 0)
(3 2.30737e-15 0)
(3 9.28811e-16 0)
(3 -1.63145e-15 0)
(3 -2.48427e-15 0)
(3 -1.84117e-15 0)
(3 -8.80866e-16 0)
(3 -1.08435e-15 0)
(3 -1.66847e-15 0)
(3 -1.67648e-15 0)
(3 -1.11772e-15 0)
(3 -1.03253e-16 0)
(3 3.48203e-16 0)
(3 1.42413e-15 0)
(3 2.92136e-15 0)
(3 3.46321e-15 0)
(3 4.0244e-15 0)
(3 4.22558e-15 0)
(3 4.03494e-15 0)
(3 3.40842e-15 0)
(3 3.2371e-15 0)
(3 2.32249e-15 0)
(3 1.27043e-15 0)
(3 1.32673e-15 0)
(3 1.6475e-15 0)
(3 2.09529e-15 0)
(3 1.94962e-15 0)
(3 5.29725e-16 0)
(3 -2.38536e-16 0)
(3 -4.6369e-17 0)
(3 -5.01476e-16 0)
(3 4.03558e-16 0)
(3 1.40319e-15 0)
(3 1.82957e-15 0)
(3 1.35393e-15 0)
(3 1.25698e-15 0)
(3 1.60709e-15 0)
(3 1.23578e-15 0)
(3 9.28626e-16 0)
(3 8.49627e-16 0)
(3 7.96863e-17 0)
(3 5.95804e-16 0)
(3 7.54434e-16 0)
(3 6.41231e-16 0)
(3 -2.5676e-16 0)
(3 -2.1442e-16 0)
(3 5.73169e-16 0)
(3 1.34331e-15 0)
(3 1.13211e-15 0)
(3 -2.58453e-16 0)
(3 1.4858e-16 0)
(3 7.14987e-16 0)
(3 5.79934e-17 0)
(3 -1.4467e-15 0)
(3 -1.92172e-15 0)
(3 -1.64226e-15 0)
(3 -2.85374e-16 0)
(3 7.35027e-16 0)
(3 1.56405e-16 0)
(3 -3.25231e-16 0)
(3 -8.66676e-16 0)
(3 -8.5005e-16 0)
(3 -5.61389e-16 0)
(3 -3.03674e-16 0)
(3 1.17698e-15 0)
(3 1.61524e-15 0)
(3 1.77768e-15 0)
(3 1.71004e-15 0)
(3 1.04658e-15 0)
(3 1.37222e-15 0)
(3 2.08233e-15 0)
(3 2.19109e-15 0)
(3 1.07954e-15 0)
(3 9.33331e-16 0)
(3 3.4611e-16 0)
(3 9.90177e-17 0)
(3 2.61553e-16 0)
(3 -3.86709e-16 0)
(3 -1.58451e-15 0)
(3 -2.24032e-15 0)
(3 1.46459e-15 0)
(3 3.61292e-15 0)
(3 2.39402e-15 0)
(3 1.28048e-15 0)
(3 6.23224e-16 0)
(3 1.08732e-15 0)
(3 9.99466e-16 0)
(3 8.49568e-16 0)
(3 7.02269e-16 0)
(3 2.10454e-15 0)
(3 2.54567e-15 0)
(3 2.14024e-15 0)
(3 5.9668e-16 0)
(3 -2.08453e-16 0)
(3 -4.65697e-16 0)
(3 4.77654e-16 0)
(3 2.24424e-15 0)
(3 2.51524e-15 0)
(3 2.42334e-15 0)
(3 2.40155e-15 0)
(3 2.18729e-15 0)
(3 1.33082e-15 0)
(3 5.87544e-16 0)
(3 8.7649e-17 0)
(3 6.64792e-16 0)
(3 -3.89061e-16 0)
(3 -2.67203e-15 0)
(3 -2.42589e-15 0)
(3 -6.61342e-16 0)
(3 -5.56526e-16 0)
(3 -5.73941e-17 0)
(3 1.16004e-15 0)
(3 1.16339e-15 0)
(3 -2.66679e-16 0)
(3 -1.36331e-15 0)
(3 -1.59352e-15 0)
(3 -1.2038e-15 0)
(3 -1.13448e-15 0)
(3 -1.38723e-15 0)
(3 -8.81722e-16 0)
(3 -7.11071e-16 0)
(3 2.20808e-16 0)
(3 4.93268e-16 0)
(3 -9.21449e-17 0)
(3 -1.06523e-15 0)
(3 -2.86033e-15 0)
(3 -1.8793e-15 0)
(3 -4.35598e-16 0)
(3 1.31494e-15 0)
(3 2.8667e-15 0)
(3 3.03055e-15 0)
(3 2.77911e-15 0)
(3 2.97019e-15 0)
(3 2.25841e-15 0)
(3 -4.63451e-16 0)
(3 -1.12052e-15 0)
(3 -9.29754e-16 0)
(3 -6.42475e-16 0)
(3 -1.42955e-16 0)
(3 7.76193e-16 0)
(3 1.45226e-15 0)
(3 9.71194e-16 0)
(3 1.08111e-15 0)
(3 -3.81578e-17 0)
(3 -2.79549e-16 0)
(3 1.07391e-16 0)
(3 -4.36843e-16 0)
(3 -5.43679e-16 0)
(3 -1.81611e-17 0)
(3 2.06988e-16 0)
(3 1.30494e-15 0)
(3 1.68291e-15 0)
(3 1.26573e-15 0)
(3 7.08431e-16 0)
(3 7.30789e-16 0)
(3 6.61467e-16 0)
(3 4.75906e-16 0)
(3 1.01275e-15 0)
(3 2.28655e-15 0)
(3 3.07248e-15 0)
(3 2.98553e-15 0)
(3 1.09007e-15 0)
(3 5.56596e-18 0)
(3 -1.33209e-16 0)
(3 1.3138e-16 0)
(3 1.1542e-15 0)
(3 2.99697e-15 0)
(3 4.24992e-15 0)
(3 4.29742e-15 0)
(3 3.17314e-15 0)
(3 2.53539e-15 0)
(3 2.02354e-15 0)
(3 2.30454e-15 0)
(3 3.57436e-15 0)
(3 4.64357e-15 0)
(3 3.65188e-15 0)
(3 2.70828e-15 0)
(3 1.87315e-15 0)
(3 1.47359e-15 0)
(3 9.37392e-16 0)
(3 1.05606e-15 0)
(3 4.60257e-16 0)
(3 8.4914e-16 0)
(3 4.5021e-16 0)
(3 -1.23353e-15 0)
(3 -2.96236e-15 0)
(3 -2.03463e-15 0)
(3 -5.62458e-16 0)
(3 -3.70139e-17 0)
(3 6.98519e-16 0)
(3 1.23591e-15 0)
(3 1.33542e-15 0)
(3 2.44575e-15 0)
(3 4.10828e-15 0)
(3 4.40356e-15 0)
(3 3.97447e-15 0)
(3 2.33239e-15 0)
(3 2.1063e-15 0)
(3 1.54345e-15 0)
(3 1.30361e-15 0)
(3 -1.97367e-16 0)
(3 -4.04585e-16 0)
(3 -1.26323e-15 0)
(3 -2.12304e-15 0)
(3 -1.19783e-15 0)
(3 1.25816e-15 0)
(3 1.28998e-15 0)
(3 9.46652e-16 0)
(3 9.02351e-16 0)
(3 2.29636e-16 0)
(3 -2.99564e-17 0)
(3 1.35856e-15 0)
(3 2.63643e-15 0)
(3 2.03151e-15 0)
(3 1.18817e-15 0)
(3 8.97622e-16 0)
(3 7.56962e-16 0)
(3 7.42977e-16 0)
(3 8.21902e-16 0)
(3 5.71685e-16 0)
(3 9.75019e-16 0)
(3 1.11142e-15 0)
(3 1.92412e-15 0)
(3 3.06352e-15 0)
(3 2.65198e-15 0)
(3 1.10466e-15 0)
(3 -2.34388e-16 0)
(3 -4.24525e-16 0)
(3 9.55754e-17 0)
(3 3.80663e-16 0)
(3 -6.82576e-16 0)
(3 -1.50461e-15 0)
(3 -8.07788e-16 0)
(3 1.1737e-16 0)
(3 -3.69339e-17 0)
(3 -7.06198e-16 0)
(3 -2.0514e-15 0)
(3 -2.99339e-15 0)
(3 -2.72826e-15 0)
(3 -2.19081e-15 0)
(3 -2.14594e-15 0)
(3 -1.39278e-15 0)
(3 8.52815e-16 0)
(3 6.39172e-16 0)
(3 -3.19832e-16 0)
(3 -4.25603e-16 0)
(3 8.86006e-16 0)
(3 8.32056e-16 0)
(3 8.55985e-16 0)
(3 4.64991e-16 0)
(3 -1.52438e-16 0)
(3 5.94955e-16 0)
(3 2.88675e-16 0)
(3 -5.45818e-16 0)
(3 -9.01303e-16 0)
(3 -4.99814e-16 0)
(3 -7.02288e-16 0)
(3 3.90861e-16 0)
(3 7.77987e-16 0)
(3 7.70674e-16 0)
(3 2.69949e-16 0)
(3 3.79665e-16 0)
(3 -1.00755e-15 0)
(3 -1.88592e-15 0)
(3 -8.6937e-16 0)
(3 2.84054e-16 0)
(3 5.06079e-16 0)
(3 1.13773e-15 0)
(3 1.23059e-15 0)
(3 4.43853e-16 0)
(3 -4.2843e-16 0)
(3 5.74782e-16 0)
(3 2.87156e-15 0)
(3 3.24355e-15 0)
(3 3.69231e-15 0)
(3 4.2937e-15 0)
(3 4.77548e-15 0)
(3 3.64649e-15 0)
(3 6.20977e-16 0)
(3 -1.07727e-15 0)
(3 -1.32812e-15 0)
(3 -2.69172e-15 0)
(3 -2.90966e-15 0)
(3 -1.74976e-15 0)
(3 -1.21784e-15 0)
(3 -1.32172e-15 0)
(3 -1.04186e-15 0)
(3 -8.40284e-16 0)
(3 -9.94487e-16 0)
(3 -1.45077e-15 0)
(3 -1.90604e-15 0)
(3 -1.96451e-15 0)
(3 -1.51657e-15 0)
(3 -1.10704e-15 0)
(3 -1.67946e-16 0)
(3 -1.01746e-15 0)
(3 -1.84279e-15 0)
(3 -2.3698e-15 0)
(3 -1.43882e-15 0)
(3 -5.51991e-16 0)
(3 -1.14966e-15 0)
(3 -1.92361e-15 0)
(3 -1.29014e-15 0)
(3 -3.14128e-16 0)
(3 6.23656e-16 0)
(3 1.77753e-15 0)
(3 2.2327e-15 0)
(3 1.63267e-15 0)
(3 6.88291e-16 0)
(3 -2.69008e-16 0)
(3 -1.84608e-16 0)
(3 5.96447e-16 0)
(3 1.15437e-15 0)
(3 1.54515e-15 0)
(3 1.60943e-15 0)
(3 1.44438e-15 0)
(3 2.54205e-15 0)
(3 2.62744e-15 0)
(3 1.87432e-15 0)
(3 2.00721e-15 0)
(3 2.21354e-15 0)
(3 1.58037e-15 0)
(3 1.68911e-15 0)
(3 2.17406e-15 0)
(3 5.48001e-16 0)
(3 1.50917e-16 0)
(3 8.77116e-16 0)
(3 7.37953e-16 0)
(3 -9.1406e-17 0)
(3 -1.75344e-16 0)
(3 5.80894e-16 0)
(3 9.8388e-16 0)
(3 6.77617e-16 0)
(3 6.32452e-16 0)
(3 1.00472e-15 0)
(3 2.26412e-15 0)
(3 1.02921e-15 0)
(3 -2.97656e-16 0)
(3 -3.23711e-16 0)
(3 -5.32822e-16 0)
(3 -3.39048e-16 0)
(3 5.86223e-16 0)
(3 1.68333e-15 0)
(3 2.35819e-15 0)
(3 2.24692e-15 0)