/*--------------------------------*- C++ -*----------------------------------*\
  =========                 |
  \\      /  F ield         | OpenFOAM: The Open Source CFD Toolbox
   \\    /   O peration     | Website:  https://openfoam.org
    \\  /    A nd           | Version:  7
     \\/     M anipulation  |
\*---------------------------------------------------------------------------*/
FoamFile
{
    version     2.0;
    format      ascii;
    class       volVectorField;
    location    "2";
    object      U;
}
// * * * * * * * * * * * * * * * * * * * * * * * * * * * * * * * * * * * * * //

dimensions      [0 1 -1 0 0 0 0];

internalField   nonuniform List<vector> 
4128
(
(2.01115 -0.528367 0)
(2.01783 -0.528474 0)
(2.02964 -0.518236 0)
(2.04372 -0.506085 0)
(2.05801 -0.498547 0)
(2.0655 -0.496296 0)
(2.06983 -0.497934 0)
(2.06963 -0.504432 0)
(2.06226 -0.515694 0)
(2.03956 -0.540594 0)
(2.0106 -0.571672 0)
(1.96416 -0.61585 0)
(1.94146 -0.657175 0)
(1.94812 -0.661238 0)
(1.96317 -0.655769 0)
(1.97083 -0.654474 0)
(1.97719 -0.658137 0)
(1.97893 -0.66366 0)
(1.98434 -0.666468 0)
(1.99112 -0.666502 0)
(2.00158 -0.664971 0)
(2.02152 -0.66352 0)
(2.0381 -0.662561 0)
(2.04379 -0.663145 0)
(2.0485 -0.666181 0)
(2.04938 -0.668794 0)
(2.05098 -0.669248 0)
(2.05562 -0.668946 0)
(2.06149 -0.667899 0)
(2.07609 -0.665104 0)
(2.09488 -0.659113 0)
(2.10781 -0.656271 0)
(2.11309 -0.657289 0)
(2.11777 -0.660784 0)
(2.1198 -0.665812 0)
(2.11997 -0.671187 0)
(2.12484 -0.6747 0)
(2.13182 -0.676789 0)
(2.14035 -0.677303 0)
(2.15509 -0.674503 0)
(2.17287 -0.665943 0)
(2.18443 -0.659945 0)
(2.19098 -0.658531 0)
(2.19579 -0.655209 0)
(2.19642 -0.652503 0)
(2.19788 -0.651601 0)
(2.20002 -0.652755 0)
(2.20278 -0.655103 0)
(2.20664 -0.656686 0)
(2.21091 -0.657035 0)
(2.22006 -0.654536 0)
(2.23636 -0.647332 0)
(2.25324 -0.641078 0)
(2.26074 -0.63986 0)
(2.26624 -0.641193 0)
(2.2706 -0.642719 0)
(2.27109 -0.645629 0)
(2.27078 -0.648939 0)
(2.27492 -0.651224 0)
(2.27976 -0.652492 0)
(2.28493 -0.652197 0)
(2.29269 -0.649659 0)
(2.30396 -0.643964 0)
(2.31361 -0.636928 0)
(2.31868 -0.633328 0)
(2.32413 -0.6309 0)
(2.32625 -0.626196 0)
(2.32469 -0.619738 0)
(2.32551 -0.616562 0)
(2.32904 -0.61666 0)
(2.33294 -0.617551 0)
(2.33819 -0.618408 0)
(2.34762 -0.619484 0)
(2.35949 -0.620654 0)
(2.3717 -0.623214 0)
(2.38225 -0.626973 0)
(2.3914 -0.629237 0)
(2.39634 -0.630075 0)
(2.40081 -0.629436 0)
(2.4051 -0.62405 0)
(2.40681 -0.614371 0)
(2.40927 -0.604401 0)
(2.41174 -0.599655 0)
(2.41296 -0.59595 0)
(2.4151 -0.585328 0)
(2.40407 -0.545867 0)
(2.37307 -0.462551 0)
(2.33446 -0.343353 0)
(2.27305 -0.204193 0)
(2.24711 -0.115691 0)
(2.23353 -0.063796 0)
(2.19372 0.00748243 0)
(2.18293 0.0301731 0)
(2.18792 0.0449839 0)
(2.19745 0.05706 0)
(2.20068 0.0532292 0)
(2.20543 0.0502304 0)
(2.21034 0.0441829 0)
(2.21516 0.0372805 0)
(2.22169 0.0306151 0)
(2.22564 0.0251043 0)
(2.22871 0.0242425 0)
(2.23026 0.0261227 0)
(2.23133 0.0299566 0)
(2.23248 0.0343646 0)
(2.23482 0.0403826 0)
(2.23769 0.0478615 0)
(2.23991 0.0544564 0)
(2.24221 0.057824 0)
(2.24582 0.0583039 0)
(2.24905 0.0573802 0)
(2.25431 0.0531452 0)
(2.2627 0.0455245 0)
(2.27088 0.0399271 0)
(2.27608 0.0384067 0)
(2.27974 0.0384159 0)
(2.28392 0.0383795 0)
(2.2873 0.0381675 0)
(2.28892 0.0389524 0)
(2.28914 0.0424057 0)
(2.28804 0.0495906 0)
(2.28542 0.0597164 0)
(2.28276 0.0682359 0)
(2.28327 0.0708175 0)
(2.28602 0.070239 0)
(2.29042 0.0662983 0)
(2.29904 0.0593056 0)
(2.30846 0.0510265 0)
(2.31474 0.0453755 0)
(2.04037 -0.515688 0)
(2.04603 -0.514441 0)
(2.05538 -0.510519 0)
(2.06794 -0.501641 0)
(2.07644 -0.496243 0)
(2.08164 -0.495224 0)
(2.08096 -0.501838 0)
(2.07209 -0.517549 0)
(2.05383 -0.539871 0)
(2.02111 -0.573212 0)
(1.97221 -0.627768 0)
(1.95762 -0.647153 0)
(1.95738 -0.647493 0)
(1.9641 -0.658911 0)
(1.9712 -0.662263 0)
(1.98065 -0.664173 0)
(1.98952 -0.664123 0)
(1.99559 -0.662332 0)
(2.00151 -0.661918 0)
(2.00783 -0.661158 0)
(2.01688 -0.659366 0)
(2.03072 -0.659436 0)
(2.04584 -0.664459 0)
(2.05402 -0.669227 0)
(2.06108 -0.673697 0)
(2.06466 -0.676523 0)
(2.06739 -0.674937 0)
(2.07207 -0.670933 0)
(2.07889 -0.665281 0)
(2.09375 -0.658496 0)
(2.11131 -0.654679 0)
(2.11978 -0.656521 0)
(2.12596 -0.66072 0)
(2.13064 -0.665348 0)
(2.13296 -0.669752 0)
(2.13506 -0.673169 0)
(2.14033 -0.675041 0)
(2.14649 -0.675768 0)
(2.15797 -0.674479 0)
(2.17731 -0.668467 0)
(2.19359 -0.66286 0)
(2.20049 -0.662824 0)
(2.20714 -0.664189 0)
(2.20914 -0.663875 0)
(2.20514 -0.662094 0)
(2.2053 -0.661372 0)
(2.21016 -0.660501 0)
(2.21484 -0.6586 0)
(2.21909 -0.656651 0)
(2.22532 -0.654554 0)
(2.23736 -0.649015 0)
(2.25283 -0.641939 0)
(2.26328 -0.640392 0)
(2.26787 -0.64202 0)
(2.27292 -0.645008 0)
(2.27637 -0.646948 0)
(2.2776 -0.647681 0)
(2.27864 -0.647891 0)
(2.28253 -0.647724 0)
(2.28683 -0.647215 0)
(2.29271 -0.645262 0)
(2.304 -0.640344 0)
(2.31764 -0.634779 0)
(2.32668 -0.633939 0)
(2.3318 -0.635474 0)
(2.33765 -0.637307 0)
(2.34154 -0.637262 0)
(2.34167 -0.633142 0)
(2.33999 -0.625387 0)
(2.34051 -0.61841 0)
(2.34382 -0.614425 0)
(2.34797 -0.612633 0)
(2.35578 -0.611383 0)
(2.36781 -0.611161 0)
(2.37871 -0.613049 0)
(2.38783 -0.617082 0)
(2.39706 -0.62325 0)
(2.40679 -0.628106 0)
(2.4142 -0.629503 0)
(2.41992 -0.629618 0)
(2.42569 -0.625484 0)
(2.43017 -0.617856 0)
(2.43113 -0.608788 0)
(2.43139 -0.60006 0)
(2.43228 -0.598383 0)
(2.43429 -0.597101 0)
(2.43692 -0.59068 0)
(2.4323 -0.568267 0)
(2.41014 -0.506407 0)
(2.3746 -0.395047 0)
(2.33599 -0.27713 0)
(2.27273 -0.130857 0)
(2.27181 -0.0790828 0)
(2.25232 -0.016255 0)
(2.23301 0.0499733 0)
(2.21932 0.0542123 0)
(2.21957 0.0566069 0)
(2.21872 0.0577743 0)
(2.21981 0.0526197 0)
(2.22639 0.0475259 0)
(2.23311 0.043631 0)
(2.24287 0.0390723 0)
(2.24883 0.033208 0)
(2.25229 0.0301658 0)
(2.25317 0.0297247 0)
(2.25529 0.0334466 0)
(2.2587 0.0400123 0)
(2.26242 0.0489887 0)
(2.26463 0.0586515 0)
(2.26558 0.0649312 0)
(2.26808 0.066239 0)
(2.27159 0.0652604 0)
(2.27618 0.0605065 0)
(2.28415 0.0527552 0)
(2.29064 0.0462311 0)
(2.29427 0.0428932 0)
(2.29781 0.0407487 0)
(2.30095 0.0385359 0)
(2.30386 0.0369445 0)
(2.30676 0.0371039 0)
(2.30925 0.0399395 0)
(2.31005 0.0466662 0)
(2.30802 0.0571543 0)
(2.30569 0.0676951 0)
(2.30633 0.0736103 0)
(2.3084 0.0752532 0)
(2.31154 0.0747719 0)
(2.31886 0.0699557 0)
(2.32771 0.0595463 0)
(2.06252 -0.504365 0)
(2.07021 -0.508287 0)
(2.0769 -0.50958 0)
(2.08422 -0.507555 0)
(2.09014 -0.499059 0)
(2.09104 -0.499405 0)
(2.08299 -0.509989 0)
(2.06783 -0.529094 0)
(2.03164 -0.567357 0)
(1.97845 -0.626905 0)
(1.97037 -0.643265 0)
(1.96572 -0.657031 0)
(1.9694 -0.666941 0)
(1.97633 -0.665964 0)
(1.98428 -0.664844 0)
(1.99395 -0.661859 0)
(2.00517 -0.660424 0)
(2.01573 -0.660211 0)
(2.02242 -0.661149 0)
(2.02819 -0.663327 0)
(2.03369 -0.664879 0)
(2.03979 -0.66631 0)
(2.04782 -0.669228 0)
(2.06015 -0.674825 0)
(2.07149 -0.678093 0)
(2.08052 -0.679032 0)
(2.08735 -0.676798 0)
(2.09455 -0.672679 0)
(2.10248 -0.666801 0)
(2.11409 -0.661506 0)
(2.12267 -0.659018 0)
(2.12988 -0.661054 0)
(2.13686 -0.663931 0)
(2.14236 -0.666908 0)
(2.14609 -0.669598 0)
(2.15009 -0.671247 0)
(2.15495 -0.672265 0)
(2.16154 -0.67229 0)
(2.17647 -0.670355 0)
(2.19628 -0.665616 0)
(2.20657 -0.664334 0)
(2.21344 -0.666374 0)
(2.21967 -0.668676 0)
(2.222 -0.669925 0)
(2.21821 -0.667928 0)
(2.2175 -0.663746 0)
(2.22201 -0.660281 0)
(2.22695 -0.656179 0)
(2.23237 -0.652585 0)
(2.24077 -0.649226 0)
(2.25362 -0.644679 0)
(2.2655 -0.64187 0)
(2.27025 -0.64264 0)
(2.27536 -0.645417 0)
(2.27911 -0.647864 0)
(2.28215 -0.648703 0)
(2.28448 -0.647534 0)
(2.28732 -0.64495 0)
(2.29175 -0.642718 0)
(2.29686 -0.640636 0)
(2.3058 -0.637159 0)
(2.31854 -0.632048 0)
(2.32962 -0.631351 0)
(2.33593 -0.633834 0)
(2.34244 -0.636881 0)
(2.34834 -0.639388 0)
(2.35366 -0.641231 0)
(2.35789 -0.641696 0)
(2.36013 -0.638705 0)
(2.36162 -0.631878 0)
(2.36352 -0.622755 0)
(2.36699 -0.614184 0)
(2.37222 -0.609111 0)
(2.3802 -0.607199 0)
(2.3887 -0.608574 0)
(2.39553 -0.611317 0)
(2.4029 -0.615084 0)
(2.41235 -0.622203 0)
(2.42301 -0.629511 0)
(2.43281 -0.6311 0)
(2.43966 -0.628227 0)
(2.44498 -0.623364 0)
(2.44952 -0.618215 0)
(2.4505 -0.609973 0)
(2.44418 -0.60004 0)
(2.44434 -0.597142 0)
(2.44846 -0.598306 0)
(2.45205 -0.598648 0)
(2.45565 -0.596605 0)
(2.45645 -0.585073 0)
(2.44783 -0.542442 0)
(2.41733 -0.445665 0)
(2.38357 -0.317013 0)
(2.32909 -0.166181 0)
(2.30174 -0.0633047 0)
(2.30304 -0.0254471 0)
(2.27299 0.0192651 0)
(2.24817 0.0553779 0)
(2.23588 0.0572467 0)
(2.23384 0.0585011 0)
(2.23552 0.053208 0)
(2.2467 0.0518256 0)
(2.25702 0.0512402 0)
(2.26395 0.0482033 0)
(2.27004 0.0423409 0)
(2.27409 0.0361446 0)
(2.27638 0.0343087 0)
(2.28078 0.038468 0)
(2.28575 0.0481127 0)
(2.28868 0.0587316 0)
(2.28914 0.0673927 0)
(2.28906 0.0713402 0)
(2.29124 0.0702661 0)
(2.29469 0.0667165 0)
(2.30166 0.059485 0)
(2.30771 0.052546 0)
(2.31138 0.0482571 0)
(2.31456 0.0449351 0)
(2.31731 0.0416169 0)
(2.32019 0.0391831 0)
(2.32419 0.0386418 0)
(2.32857 0.0405563 0)
(2.33121 0.0475629 0)
(2.33099 0.0599435 0)
(2.32786 0.0730525 0)
(2.32512 0.0813007 0)
(2.32591 0.0837946 0)
(2.32766 0.0834456 0)
(2.33377 0.0766618 0)
(2.07049 -0.510275 0)
(2.08609 -0.510203 0)
(2.096 -0.505097 0)
(2.1008 -0.49892 0)
(2.10146 -0.496089 0)
(2.09342 -0.503933 0)
(2.07893 -0.522484 0)
(2.03764 -0.564449 0)
(1.99957 -0.603418 0)
(1.96648 -0.649451 0)
(1.95722 -0.678601 0)
(1.97361 -0.674011 0)
(1.98828 -0.664525 0)
(1.99635 -0.659508 0)
(2.00368 -0.657322 0)
(2.0117 -0.658096 0)
(2.02172 -0.65917 0)
(2.03307 -0.661449 0)
(2.04099 -0.664168 0)
(2.04698 -0.666326 0)
(2.05173 -0.668255 0)
(2.05626 -0.66957 0)
(2.06256 -0.670955 0)
(2.07019 -0.672546 0)
(2.08264 -0.675288 0)
(2.0971 -0.677111 0)
(2.10778 -0.67581 0)
(2.11702 -0.672736 0)
(2.12547 -0.668315 0)
(2.13228 -0.666181 0)
(2.13808 -0.665556 0)
(2.14286 -0.665572 0)
(2.14829 -0.666528 0)
(2.15345 -0.667508 0)
(2.15825 -0.667972 0)
(2.16313 -0.667808 0)
(2.16847 -0.667329 0)
(2.17674 -0.666786 0)
(2.1925 -0.665391 0)
(2.20926 -0.664274 0)
(2.21589 -0.665213 0)
(2.22243 -0.668189 0)
(2.22753 -0.671013 0)
(2.23058 -0.672748 0)
(2.23001 -0.671352 0)
(2.22956 -0.666773 0)
(2.23374 -0.663502 0)
(2.2393 -0.658769 0)
(2.24652 -0.652631 0)
(2.25548 -0.648149 0)
(2.26578 -0.646729 0)
(2.27364 -0.647507 0)
(2.27865 -0.648746 0)
(2.28365 -0.650231 0)
(2.28621 -0.650666 0)
(2.28904 -0.649628 0)
(2.29325 -0.647372 0)
(2.29815 -0.6435 0)
(2.30382 -0.638262 0)
(2.31071 -0.632939 0)
(2.32072 -0.628931 0)
(2.33057 -0.628059 0)
(2.33718 -0.629993 0)
(2.34437 -0.633399 0)
(2.35092 -0.637377 0)
(2.35721 -0.64118 0)
(2.36362 -0.644379 0)
(2.37022 -0.645772 0)
(2.37614 -0.643938 0)
(2.38167 -0.638161 0)
(2.38633 -0.629737 0)
(2.38922 -0.620318 0)
(2.38997 -0.610811 0)
(2.39278 -0.606783 0)
(2.39843 -0.608103 0)
(2.40354 -0.610904 0)
(2.40879 -0.61389 0)
(2.41622 -0.617345 0)
(2.42865 -0.622213 0)
(2.44268 -0.623945 0)
(2.45333 -0.621993 0)
(2.45863 -0.619415 0)
(2.46269 -0.618053 0)
(2.4656 -0.615075 0)
(2.4616 -0.606901 0)
(2.45267 -0.597109 0)
(2.4531 -0.597957 0)
(2.45716 -0.59947 0)
(2.46105 -0.601458 0)
(2.46586 -0.601688 0)
(2.47716 -0.601321 0)
(2.48851 -0.590399 0)
(2.48758 -0.553381 0)
(2.46761 -0.484273 0)
(2.42301 -0.356217 0)
(2.3903 -0.22379 0)
(2.32942 -0.081166 0)
(2.31968 -0.0449173 0)
(2.29881 -0.00618767 0)
(2.27227 0.0417179 0)
(2.2549 0.0472644 0)
(2.25635 0.0556985 0)
(2.26457 0.0564211 0)
(2.27316 0.0593586 0)
(2.28199 0.0611068 0)
(2.28538 0.0584091 0)
(2.29088 0.0522746 0)
(2.29584 0.0436197 0)
(2.29987 0.0413212 0)
(2.30462 0.0465495 0)
(2.30835 0.0567085 0)
(2.3094 0.0668902 0)
(2.30795 0.0725153 0)
(2.3081 0.0726447 0)
(2.31108 0.069921 0)
(2.31563 0.0659493 0)
(2.32101 0.0629804 0)
(2.32705 0.0601371 0)
(2.33122 0.0561243 0)
(2.33452 0.0512203 0)
(2.33878 0.0471774 0)
(2.34326 0.0460685 0)
(2.34754 0.0477801 0)
(2.35158 0.0542136 0)
(2.35256 0.0647537 0)
(2.34911 0.0769978 0)
(2.34277 0.086281 0)
(2.33978 0.0887674 0)
(2.34244 0.0873495 0)
(2.0808 -0.508798 0)
(2.10173 -0.498369 0)
(2.11344 -0.491874 0)
(2.11529 -0.491159 0)
(2.11038 -0.497199 0)
(2.0826 -0.522726 0)
(2.04679 -0.564977 0)
(2.01131 -0.600559 0)
(1.96479 -0.643016 0)
(1.95753 -0.677496 0)
(1.97159 -0.678606 0)
(1.99146 -0.668041 0)
(2.00679 -0.659738 0)
(2.01608 -0.656722 0)
(2.02224 -0.657007 0)
(2.02788 -0.661404 0)
(2.03465 -0.665547 0)
(2.04339 -0.670015 0)
(2.0559 -0.672035 0)
(2.06294 -0.671092 0)
(2.06901 -0.671256 0)
(2.07495 -0.671361 0)
(2.08172 -0.672273 0)
(2.08872 -0.673356 0)
(2.09698 -0.675067 0)
(2.10873 -0.678033 0)
(2.12323 -0.679058 0)
(2.13436 -0.676219 0)
(2.14143 -0.674458 0)
(2.14909 -0.67464 0)
(2.15493 -0.673492 0)
(2.15699 -0.669923 0)
(2.15967 -0.667143 0)
(2.1646 -0.666308 0)
(2.16968 -0.665688 0)
(2.17516 -0.664833 0)
(2.18131 -0.663707 0)
(2.19022 -0.663022 0)
(2.20428 -0.663219 0)
(2.21833 -0.664211 0)
(2.2238 -0.665188 0)
(2.22953 -0.666928 0)
(2.23407 -0.668367 0)
(2.23793 -0.669345 0)
(2.24076 -0.668735 0)
(2.24247 -0.664728 0)
(2.2465 -0.661486 0)
(2.25183 -0.65879 0)
(2.25896 -0.654463 0)
(2.26699 -0.650579 0)
(2.27476 -0.649852 0)
(2.28321 -0.651489 0)
(2.28819 -0.652511 0)
(2.29324 -0.652815 0)
(2.29642 -0.650882 0)
(2.30033 -0.648475 0)
(2.30545 -0.646149 0)
(2.31166 -0.641999 0)
(2.31862 -0.635899 0)
(2.32606 -0.629717 0)
(2.33292 -0.626898 0)
(2.33909 -0.62797 0)
(2.34586 -0.630565 0)
(2.35266 -0.633634 0)
(2.35913 -0.636419 0)
(2.36542 -0.638777 0)
(2.37336 -0.640412 0)
(2.38297 -0.640161 0)
(2.39199 -0.637479 0)
(2.39864 -0.634339 0)
(2.40333 -0.631931 0)
(2.4085 -0.629349 0)
(2.41008 -0.623918 0)
(2.40511 -0.615467 0)
(2.40403 -0.610934 0)
(2.4088 -0.611096 0)
(2.41312 -0.611778 0)
(2.41944 -0.612418 0)
(2.43433 -0.613556 0)
(2.45174 -0.614332 0)
(2.46362 -0.613877 0)
(2.46813 -0.613119 0)
(2.47206 -0.613436 0)
(2.47571 -0.613936 0)
(2.47454 -0.61274 0)
(2.46517 -0.606721 0)
(2.45907 -0.600291 0)
(2.4618 -0.598467 0)
(2.46594 -0.598577 0)
(2.46956 -0.597968 0)
(2.48121 -0.597406 0)
(2.50059 -0.59547 0)
(2.51571 -0.591643 0)
(2.51934 -0.586385 0)
(2.51378 -0.566672 0)
(2.49722 -0.515516 0)
(2.4622 -0.418722 0)
(2.41548 -0.284512 0)
(2.37163 -0.166396 0)
(2.32309 -0.0502611 0)
(2.32661 -0.036481 0)
(2.3009 0.0143748 0)
(2.28966 0.0440407 0)
(2.29349 0.0508197 0)
(2.29856 0.0657872 0)
(2.30029 0.0676891 0)
(2.30287 0.0642081 0)
(2.306 0.0629586 0)
(2.30996 0.060018 0)
(2.31638 0.0542731 0)
(2.32124 0.0517454 0)
(2.32408 0.0560501 0)
(2.32435 0.0623527 0)
(2.32447 0.0664413 0)
(2.32529 0.0692493 0)
(2.32802 0.0724498 0)
(2.33222 0.0754078 0)
(2.33671 0.0764976 0)
(2.34105 0.0748732 0)
(2.34735 0.0702039 0)
(2.35273 0.063506 0)
(2.35788 0.0577334 0)
(2.3631 0.05547 0)
(2.36689 0.0561693 0)
(2.37059 0.0591057 0)
(2.37232 0.0651959 0)
(2.36934 0.0738754 0)
(2.3614 0.0854021 0)
(2.35459 0.0929093 0)
(2.10256 -0.496981 0)
(2.12152 -0.485273 0)
(2.1266 -0.485562 0)
(2.12409 -0.492574 0)
(2.09759 -0.520097 0)
(2.06595 -0.561801 0)
(2.02123 -0.603063 0)
(1.9712 -0.653586 0)
(1.96297 -0.664153 0)
(1.97334 -0.664272 0)
(1.99512 -0.664477 0)
(2.01257 -0.661616 0)
(2.02121 -0.663074 0)
(2.02915 -0.667429 0)
(2.03334 -0.668095 0)
(2.04027 -0.66715 0)
(2.04757 -0.667785 0)
(2.05736 -0.668291 0)
(2.07197 -0.668076 0)
(2.08028 -0.667896 0)
(2.08673 -0.669473 0)
(2.0933 -0.670883 0)
(2.10018 -0.672711 0)
(2.10735 -0.674913 0)
(2.11441 -0.676848 0)
(2.12197 -0.677692 0)
(2.13484 -0.677305 0)
(2.14806 -0.675254 0)
(2.15477 -0.675619 0)
(2.16224 -0.677296 0)
(2.16835 -0.677741 0)
(2.17111 -0.675354 0)
(2.17174 -0.67047 0)
(2.17592 -0.667399 0)
(2.18138 -0.665876 0)
(2.18717 -0.664523 0)
(2.19351 -0.663061 0)
(2.2016 -0.661862 0)
(2.21333 -0.661537 0)
(2.22673 -0.662501 0)
(2.23219 -0.662851 0)
(2.23708 -0.663206 0)
(2.24174 -0.662617 0)
(2.2465 -0.661787 0)
(2.25078 -0.661315 0)
(2.25439 -0.660619 0)
(2.25872 -0.659568 0)
(2.26386 -0.660342 0)
(2.2692 -0.660404 0)
(2.27519 -0.659448 0)
(2.28243 -0.658009 0)
(2.29158 -0.656996 0)
(2.30055 -0.655109 0)
(2.30482 -0.653386 0)
(2.30952 -0.65164 0)
(2.31461 -0.648958 0)
(2.32049 -0.646668 0)
(2.32688 -0.643451 0)
(2.33308 -0.639734 0)
(2.33965 -0.635839 0)
(2.3449 -0.631818 0)
(2.34858 -0.629394 0)
(2.35381 -0.629803 0)
(2.35977 -0.631221 0)
(2.36575 -0.632677 0)
(2.37268 -0.634358 0)
(2.38308 -0.635559 0)
(2.39513 -0.634223 0)
(2.40604 -0.632312 0)
(2.41133 -0.631621 0)
(2.41606 -0.632993 0)
(2.42108 -0.634337 0)
(2.42483 -0.634239 0)
(2.4229 -0.629289 0)
(2.4158 -0.618269 0)
(2.41633 -0.610519 0)
(2.42142 -0.607913 0)
(2.42842 -0.606382 0)
(2.44464 -0.605439 0)
(2.46248 -0.604537 0)
(2.47014 -0.605766 0)
(2.47278 -0.608052 0)
(2.47609 -0.610876 0)
(2.47982 -0.613158 0)
(2.48112 -0.614214 0)
(2.47659 -0.612657 0)
(2.47037 -0.607689 0)
(2.47116 -0.602844 0)
(2.47553 -0.59979 0)
(2.47976 -0.597319 0)
(2.49038 -0.594228 0)
(2.50928 -0.590335 0)
(2.52341 -0.59041 0)
(2.52797 -0.591155 0)
(2.5316 -0.589561 0)
(2.53473 -0.589065 0)
(2.52792 -0.571309 0)
(2.51747 -0.535951 0)
(2.49205 -0.469433 0)
(2.44584 -0.358069 0)
(2.41394 -0.24053 0)
(2.35947 -0.102723 0)
(2.34069 -0.0310706 0)
(2.35193 -0.0103515 0)
(2.33086 0.0437159 0)
(2.32465 0.05658 0)
(2.3213 0.0615088 0)
(2.32114 0.0636697 0)
(2.32265 0.0644833 0)
(2.32544 0.0665055 0)
(2.32942 0.0700022 0)
(2.334 0.0695759 0)
(2.33646 0.0646207 0)
(2.33805 0.0607355 0)
(2.33922 0.0604892 0)
(2.34169 0.0652605 0)
(2.34491 0.0728543 0)
(2.34852 0.0814091 0)
(2.35237 0.0867007 0)
(2.35556 0.0873757 0)
(2.35958 0.0849269 0)
(2.36693 0.0787823 0)
(2.37272 0.0695073 0)
(2.37951 0.0626275 0)
(2.3836 0.0608047 0)
(2.38685 0.0616021 0)
(2.38907 0.064515 0)
(2.38689 0.0713406 0)
(2.37832 0.0864752 0)
(2.12713 -0.486568 0)
(2.13377 -0.487689 0)
(2.13286 -0.494308 0)
(2.11303 -0.516791 0)
(2.08526 -0.558023 0)
(2.04193 -0.599935 0)
(1.98733 -0.651236 0)
(1.9733 -0.669071 0)
(1.97795 -0.656008 0)
(1.99564 -0.655142 0)
(2.01631 -0.66168 0)
(2.02696 -0.665934 0)
(2.03538 -0.671063 0)
(2.04164 -0.67524 0)
(2.04608 -0.673629 0)
(2.05324 -0.669292 0)
(2.06166 -0.666838 0)
(2.07346 -0.666234 0)
(2.08762 -0.666274 0)
(2.09463 -0.667136 0)
(2.10185 -0.669361 0)
(2.10857 -0.671068 0)
(2.11542 -0.673202 0)
(2.12229 -0.675363 0)
(2.12883 -0.676598 0)
(2.13559 -0.676476 0)
(2.14582 -0.675912 0)
(2.15773 -0.675163 0)
(2.16478 -0.67558 0)
(2.17174 -0.676936 0)
(2.17772 -0.677603 0)
(2.18222 -0.676973 0)
(2.18406 -0.673706 0)
(2.18715 -0.669695 0)
(2.19272 -0.667503 0)
(2.19865 -0.665782 0)
(2.205 -0.664467 0)
(2.212 -0.664006 0)
(2.22211 -0.664439 0)
(2.23479 -0.66315 0)
(2.24316 -0.659858 0)
(2.24723 -0.657545 0)
(2.25223 -0.656041 0)
(2.2569 -0.655236 0)
(2.26112 -0.655968 0)
(2.26476 -0.657914 0)
(2.26954 -0.658921 0)
(2.27563 -0.659783 0)
(2.28186 -0.660357 0)
(2.28847 -0.660509 0)
(2.29609 -0.658904 0)
(2.30654 -0.654663 0)
(2.31477 -0.649276 0)
(2.31925 -0.64748 0)
(2.32411 -0.647476 0)
(2.3291 -0.647348 0)
(2.33444 -0.647123 0)
(2.33991 -0.646897 0)
(2.34524 -0.646715 0)
(2.35119 -0.645453 0)
(2.35694 -0.642374 0)
(2.36111 -0.637346 0)
(2.36487 -0.632931 0)
(2.37017 -0.631188 0)
(2.37595 -0.630241 0)
(2.38195 -0.628746 0)
(2.39124 -0.627678 0)
(2.40292 -0.627153 0)
(2.41372 -0.628578 0)
(2.41957 -0.630188 0)
(2.42504 -0.632288 0)
(2.43006 -0.634345 0)
(2.43475 -0.63601 0)
(2.4377 -0.635992 0)
(2.43633 -0.630882 0)
(2.43384 -0.620487 0)
(2.43715 -0.611786 0)
(2.44312 -0.605258 0)
(2.45585 -0.598349 0)
(2.46944 -0.596587 0)
(2.47438 -0.597992 0)
(2.47804 -0.600648 0)
(2.48171 -0.604873 0)
(2.48411 -0.609469 0)
(2.48526 -0.613857 0)
(2.4839 -0.61586 0)
(2.48198 -0.612395 0)
(2.48381 -0.605736 0)
(2.48795 -0.599183 0)
(2.49305 -0.593263 0)
(2.50196 -0.588493 0)
(2.5151 -0.586508 0)
(2.5276 -0.588979 0)
(2.53248 -0.590766 0)
(2.53721 -0.592331 0)
(2.54056 -0.59417 0)
(2.5425 -0.590892 0)
(2.54424 -0.58567 0)
(2.539 -0.564884 0)
(2.53419 -0.544153 0)
(2.52053 -0.502783 0)
(2.48861 -0.418749 0)
(2.44874 -0.289143 0)
(2.42434 -0.174181 0)
(2.37695 -0.0373636 0)
(2.38025 -0.0186163 0)
(2.36521 0.0170731 0)
(2.34508 0.0457649 0)
(2.34188 0.0523726 0)
(2.34232 0.0579216 0)
(2.34314 0.0668595 0)
(2.34558 0.0779761 0)
(2.34598 0.0836601 0)
(2.34785 0.0830398 0)
(2.35143 0.0759575 0)
(2.3533 0.0681783 0)
(2.35551 0.0672447 0)
(2.36031 0.0739809 0)
(2.36425 0.0852565 0)
(2.36565 0.0935781 0)
(2.36794 0.0949993 0)
(2.37026 0.0915497 0)
(2.37443 0.084214 0)
(2.38299 0.0771825 0)
(2.39216 0.0689835 0)
(2.39672 0.0662012 0)
(2.40019 0.0661269 0)
(2.40212 0.0677005 0)
(2.40148 0.0760921 0)
(2.14174 -0.487933 0)
(2.14024 -0.496113 0)
(2.12446 -0.51523 0)
(2.10465 -0.546305 0)
(2.05651 -0.600393 0)
(2.01735 -0.62625 0)
(1.99385 -0.649136 0)
(1.98502 -0.671901 0)
(1.99199 -0.670487 0)
(2.01046 -0.665245 0)
(2.03099 -0.663856 0)
(2.04313 -0.665982 0)
(2.05119 -0.669851 0)
(2.05716 -0.673428 0)
(2.06187 -0.673851 0)
(2.06839 -0.671836 0)
(2.0772 -0.669519 0)
(2.08851 -0.666739 0)
(2.10057 -0.664051 0)
(2.10759 -0.664262 0)
(2.11495 -0.666079 0)
(2.12164 -0.668662 0)
(2.12784 -0.671352 0)
(2.13386 -0.673652 0)
(2.13994 -0.675016 0)
(2.14688 -0.67542 0)
(2.15605 -0.674541 0)
(2.16577 -0.672305 0)
(2.17329 -0.671965 0)
(2.17993 -0.672907 0)
(2.18561 -0.674067 0)
(2.19067 -0.675065 0)
(2.19424 -0.674677 0)
(2.1976 -0.672348 0)
(2.20314 -0.670594 0)
(2.20922 -0.669426 0)
(2.21582 -0.668601 0)
(2.22329 -0.667651 0)
(2.2345 -0.665481 0)
(2.24772 -0.660262 0)
(2.2562 -0.656183 0)
(2.26038 -0.655047 0)
(2.26478 -0.653047 0)
(2.26805 -0.651414 0)
(2.27043 -0.652593 0)
(2.27423 -0.656359 0)
(2.28022 -0.659119 0)
(2.28629 -0.661338 0)
(2.29345 -0.662564 0)
(2.30211 -0.661131 0)
(2.31401 -0.656032 0)
(2.32474 -0.648589 0)
(2.32958 -0.646037 0)
(2.33375 -0.645646 0)
(2.33705 -0.645944 0)
(2.34164 -0.647443 0)
(2.34587 -0.64905 0)
(2.35049 -0.650692 0)
(2.35608 -0.651584 0)
(2.36147 -0.650923 0)
(2.36737 -0.648015 0)
(2.37326 -0.643006 0)
(2.37816 -0.636534 0)
(2.38217 -0.630435 0)
(2.38705 -0.626708 0)
(2.39276 -0.624369 0)
(2.3992 -0.622356 0)
(2.40853 -0.622407 0)
(2.41883 -0.624171 0)
(2.42626 -0.62743 0)
(2.43137 -0.630038 0)
(2.43658 -0.63289 0)
(2.44161 -0.635673 0)
(2.44629 -0.637195 0)
(2.4499 -0.63623 0)
(2.45207 -0.62811 0)
(2.45577 -0.616554 0)
(2.46121 -0.607039 0)
(2.47004 -0.598946 0)
(2.47432 -0.593469 0)
(2.47954 -0.594473 0)
(2.48416 -0.597162 0)
(2.48697 -0.601024 0)
(2.48916 -0.605923 0)
(2.49045 -0.609064 0)
(2.49243 -0.609848 0)
(2.49446 -0.607858 0)
(2.49714 -0.602512 0)
(2.50131 -0.596194 0)
(2.50663 -0.590418 0)
(2.51308 -0.58633 0)
(2.5213 -0.585104 0)
(2.53065 -0.586784 0)
(2.53778 -0.589979 0)
(2.54234 -0.591599 0)
(2.54748 -0.592046 0)
(2.5521 -0.590683 0)
(2.55483 -0.587952 0)
(2.55564 -0.579775 0)
(2.55311 -0.567762 0)
(2.55339 -0.556306 0)
(2.55221 -0.547387 0)
(2.54561 -0.521895 0)
(2.52711 -0.462393 0)
(2.4929 -0.358656 0)
(2.46606 -0.244691 0)
(2.42465 -0.124477 0)
(2.38858 -0.0284347 0)
(2.39501 -0.0183366 0)
(2.36904 0.0252908 0)
(2.36288 0.0452717 0)
(2.36526 0.0634875 0)
(2.36485 0.0745716 0)
(2.36296 0.0889721 0)
(2.36148 0.0913432 0)
(2.36206 0.0900612 0)
(2.36487 0.0850563 0)
(2.36896 0.077864 0)
(2.37345 0.079131 0)
(2.37695 0.0895241 0)
(2.37565 0.0977606 0)
(2.3762 0.0974685 0)
(2.37944 0.0933611 0)
(2.38453 0.0852252 0)
(2.39256 0.0801125 0)
(2.40319 0.0783098 0)
(2.40927 0.0778701 0)
(2.41124 0.0768138 0)
(2.41534 0.0768964 0)
(2.15166 -0.491316 0)
(2.13911 -0.507371 0)
(2.12048 -0.534165 0)
(2.07367 -0.587991 0)
(2.03645 -0.61605 0)
(2.00694 -0.638806 0)
(1.99426 -0.668774 0)
(2.00046 -0.672717 0)
(2.01344 -0.671752 0)
(2.03017 -0.667643 0)
(2.0479 -0.663168 0)
(2.05769 -0.663957 0)
(2.06619 -0.668271 0)
(2.07224 -0.671264 0)
(2.07818 -0.6727 0)
(2.08471 -0.671269 0)
(2.09272 -0.668023 0)
(2.10309 -0.664636 0)
(2.11123 -0.662574 0)
(2.11887 -0.663896 0)
(2.12578 -0.664335 0)
(2.13237 -0.665294 0)
(2.13797 -0.6671 0)
(2.14326 -0.66905 0)
(2.14907 -0.670821 0)
(2.15587 -0.672436 0)
(2.16449 -0.673213 0)
(2.17362 -0.670937 0)
(2.18125 -0.668641 0)
(2.18845 -0.667624 0)
(2.19428 -0.66785 0)
(2.19937 -0.669357 0)
(2.20357 -0.671418 0)
(2.20781 -0.672276 0)
(2.21352 -0.672487 0)
(2.21997 -0.67198 0)
(2.22738 -0.671041 0)
(2.237 -0.669447 0)
(2.25152 -0.664714 0)
(2.26522 -0.658197 0)
(2.27122 -0.655914 0)
(2.27627 -0.654814 0)
(2.27921 -0.653201 0)
(2.27851 -0.654227 0)
(2.27915 -0.656133 0)
(2.28475 -0.656459 0)
(2.2916 -0.656565 0)
(2.29853 -0.656754 0)
(2.30727 -0.656265 0)
(2.32062 -0.652334 0)
(2.33342 -0.645406 0)
(2.34024 -0.642521 0)
(2.34473 -0.642338 0)
(2.34698 -0.642203 0)
(2.34821 -0.643856 0)
(2.3525 -0.645899 0)
(2.35652 -0.647405 0)
(2.36052 -0.64883 0)
(2.36633 -0.649878 0)
(2.37332 -0.649051 0)
(2.37818 -0.646867 0)
(2.38401 -0.64471 0)
(2.39047 -0.641426 0)
(2.39644 -0.636252 0)
(2.40089 -0.63024 0)
(2.40482 -0.625409 0)
(2.40951 -0.622733 0)
(2.41514 -0.622078 0)
(2.42182 -0.622485 0)
(2.43002 -0.623147 0)
(2.43689 -0.624614 0)
(2.4426 -0.626483 0)
(2.44804 -0.628716 0)
(2.45515 -0.630113 0)
(2.46186 -0.629212 0)
(2.46603 -0.626 0)
(2.47207 -0.619329 0)
(2.47696 -0.611196 0)
(2.48081 -0.60513 0)
(2.48373 -0.599483 0)
(2.48529 -0.595853 0)
(2.48753 -0.596528 0)
(2.49014 -0.598746 0)
(2.49457 -0.600432 0)
(2.49879 -0.601501 0)
(2.50293 -0.602113 0)
(2.50768 -0.600874 0)
(2.51028 -0.598156 0)
(2.514 -0.593999 0)
(2.51806 -0.590141 0)
(2.52258 -0.58792 0)
(2.52741 -0.587343 0)
(2.53255 -0.588037 0)
(2.53956 -0.589776 0)
(2.54801 -0.59145 0)
(2.55471 -0.590763 0)
(2.56024 -0.588046 0)
(2.56339 -0.58412 0)
(2.56694 -0.579794 0)
(2.56891 -0.574119 0)
(2.56387 -0.564588 0)
(2.56019 -0.557596 0)
(2.56447 -0.55572 0)
(2.56535 -0.552515 0)
(2.56295 -0.538761 0)
(2.55446 -0.505096 0)
(2.53316 -0.438168 0)
(2.50065 -0.332408 0)
(2.47369 -0.218448 0)
(2.41768 -0.0748174 0)
(2.40601 -0.0287542 0)
(2.41344 0.00234188 0)
(2.38773 0.0487903 0)
(2.38364 0.072323 0)
(2.38221 0.0843064 0)
(2.37913 0.0874082 0)
(2.37627 0.087762 0)
(2.37508 0.0880996 0)
(2.37741 0.0916436 0)
(2.38254 0.0926348 0)
(2.38488 0.094266 0)
(2.38596 0.0974573 0)
(2.38791 0.0971905 0)
(2.39062 0.0950064 0)
(2.39466 0.0924925 0)
(2.40345 0.0900016 0)
(2.41403 0.0905351 0)
(2.42034 0.0884634 0)
(2.42359 0.0869886 0)
(2.1526 -0.500939 0)
(2.13301 -0.527254 0)
(2.09104 -0.578281 0)
(2.05423 -0.611444 0)
(2.00831 -0.644644 0)
(1.99808 -0.670352 0)
(2.00479 -0.670169 0)
(2.01946 -0.66681 0)
(2.03851 -0.661746 0)
(2.05397 -0.66067 0)
(2.06237 -0.663788 0)
(2.07082 -0.66826 0)
(2.07813 -0.670246 0)
(2.08507 -0.669949 0)
(2.09263 -0.668276 0)
(2.10152 -0.667083 0)
(2.1081 -0.666765 0)
(2.11406 -0.667742 0)
(2.12057 -0.668043 0)
(2.12781 -0.66621 0)
(2.1348 -0.663273 0)
(2.14126 -0.662199 0)
(2.14697 -0.663502 0)
(2.15202 -0.665489 0)
(2.1573 -0.668203 0)
(2.16364 -0.670829 0)
(2.17172 -0.672465 0)
(2.18274 -0.671461 0)
(2.19041 -0.668229 0)
(2.19878 -0.666032 0)
(2.20536 -0.665074 0)
(2.20965 -0.665157 0)
(2.21403 -0.668009 0)
(2.2193 -0.670211 0)
(2.22481 -0.671621 0)
(2.23152 -0.672314 0)
(2.24019 -0.672103 0)
(2.25444 -0.669146 0)
(2.2712 -0.661656 0)
(2.28205 -0.657553 0)
(2.28774 -0.658099 0)
(2.29271 -0.659137 0)
(2.29318 -0.659635 0)
(2.28997 -0.659349 0)
(2.29066 -0.658712 0)
(2.29632 -0.65824 0)
(2.30303 -0.657936 0)
(2.31097 -0.656362 0)
(2.32513 -0.651498 0)
(2.34056 -0.643424 0)
(2.34954 -0.640619 0)
(2.3545 -0.641988 0)
(2.35815 -0.644029 0)
(2.3585 -0.644583 0)
(2.35958 -0.643557 0)
(2.36332 -0.642857 0)
(2.36736 -0.642728 0)
(2.3712 -0.642569 0)
(2.37765 -0.642696 0)
(2.3854 -0.642287 0)
(2.3911 -0.64158 0)
(2.39575 -0.641308 0)
(2.40151 -0.641092 0)
(2.4079 -0.639879 0)
(2.4142 -0.636822 0)
(2.41956 -0.632261 0)
(2.42338 -0.626804 0)
(2.42585 -0.621576 0)
(2.42947 -0.618623 0)
(2.43452 -0.618421 0)
(2.43977 -0.618838 0)
(2.44506 -0.619017 0)
(2.45048 -0.619125 0)
(2.45865 -0.619816 0)
(2.4681 -0.620903 0)
(2.47825 -0.619618 0)
(2.48413 -0.616531 0)
(2.48787 -0.613933 0)
(2.49269 -0.612444 0)
(2.49661 -0.610062 0)
(2.49737 -0.604644 0)
(2.49624 -0.598145 0)
(2.49879 -0.595459 0)
(2.50351 -0.59505 0)
(2.50804 -0.594649 0)
(2.51273 -0.593865 0)
(2.51816 -0.593235 0)
(2.52092 -0.592804 0)
(2.5241 -0.591833 0)
(2.52738 -0.589289 0)
(2.53103 -0.586648 0)
(2.53538 -0.585415 0)
(2.53902 -0.585741 0)
(2.54434 -0.586333 0)
(2.55224 -0.585941 0)
(2.55937 -0.584622 0)
(2.56618 -0.582651 0)
(2.57114 -0.581029 0)
(2.57481 -0.580761 0)
(2.57887 -0.579362 0)
(2.57858 -0.574436 0)
(2.56995 -0.563799 0)
(2.56555 -0.555516 0)
(2.56938 -0.554147 0)
(2.57271 -0.553775 0)
(2.57525 -0.551513 0)
(2.57888 -0.546807 0)
(2.57942 -0.528716 0)
(2.57149 -0.481805 0)
(2.54645 -0.396034 0)
(2.51202 -0.27677 0)
(2.47459 -0.1456 0)
(2.43284 -0.0264713 0)
(2.43998 -0.0113868 0)
(2.42593 0.0297364 0)
(2.4039 0.0615767 0)
(2.39304 0.0752537 0)
(2.38988 0.0814435 0)
(2.38713 0.0870625 0)
(2.38886 0.0957569 0)
(2.39123 0.105648 0)
(2.39535 0.105709 0)
(2.40017 0.100839 0)
(2.40267 0.0975606 0)
(2.40672 0.0969215 0)
(2.41049 0.0983604 0)
(2.41683 0.101216 0)
(2.424 0.10045 0)
(2.42964 0.0962282 0)
(2.13755 -0.531567 0)
(2.10502 -0.575475 0)
(2.07259 -0.61323 0)
(2.01867 -0.649261 0)
(2.00303 -0.672014 0)
(2.01026 -0.671902 0)
(2.02441 -0.67155 0)
(2.04318 -0.664466 0)
(2.06028 -0.658131 0)
(2.0705 -0.660197 0)
(2.07816 -0.663936 0)
(2.08421 -0.666394 0)
(2.08981 -0.666687 0)
(2.09623 -0.664581 0)
(2.1047 -0.662046 0)
(2.11298 -0.661679 0)
(2.11913 -0.663565 0)
(2.12471 -0.666088 0)
(2.13034 -0.668468 0)
(2.13674 -0.668322 0)
(2.14438 -0.663951 0)
(2.15052 -0.660829 0)
(2.15624 -0.660007 0)
(2.16185 -0.661334 0)
(2.16707 -0.663885 0)
(2.17277 -0.667798 0)
(2.18042 -0.67075 0)
(2.1934 -0.671234 0)
(2.20258 -0.668831 0)
(2.21109 -0.667045 0)
(2.21884 -0.664655 0)
(2.22259 -0.663235 0)
(2.22691 -0.664326 0)
(2.23251 -0.666142 0)
(2.23811 -0.668141 0)
(2.24472 -0.66957 0)
(2.25603 -0.669053 0)
(2.27335 -0.663685 0)
(2.28907 -0.658384 0)
(2.2957 -0.658208 0)
(2.30241 -0.659698 0)
(2.30641 -0.661201 0)
(2.30468 -0.66417 0)
(2.30132 -0.66565 0)
(2.30334 -0.663417 0)
(2.30866 -0.659913 0)
(2.31547 -0.655433 0)
(2.32687 -0.649368 0)
(2.34297 -0.640465 0)
(2.35532 -0.636526 0)
(2.36128 -0.6378 0)
(2.36698 -0.640943 0)
(2.36891 -0.644418 0)
(2.36951 -0.645826 0)