/*--------------------------------*- C++ -*----------------------------------*\
  =========                 |
  \\      /  F ield         | OpenFOAM: The Open Source CFD Toolbox
   \\    /   O peration     | Website:  https://openfoam.org
    \\  /    A nd           | Version:  7
     \\/     M anipulation  |
\*---------------------------------------------------------------------------*/
FoamFile
{
    version     2.0;
    format      ascii;
    class       volScalarField;
    location    "1.6";
    object      p;
}
// * * * * * * * * * * * * * * * * * * * * * * * * * * * * * * * * * * * * * //

dimensions      [1 -1 -2 0 0 0 0];

internalField   nonuniform List<scalar> 
4128
(
0.98035
0.990784
1.01079
1.04069
1.08046
1.11864
1.1367
1.14451
1.14991
1.15339
1.15854
1.16592
1.17656
1.19646
1.22984
1.25739
1.26373
1.26398
1.26324
1.26063
1.26028
1.26203
1.26745
1.27555
1.2808
1.28224
1.28387
1.28792
1.29683
1.31432
1.32894
1.33167
1.33101
1.32695
1.31689
1.30399
1.29585
1.29324
1.29397
1.29894
1.3119
1.32879
1.33877
1.34202
1.34012
1.33438
1.32644
1.32184
1.31864
1.31504
1.3107
1.30588
1.30241
1.30107
1.30425
1.3111
1.31497
1.31275
1.30674
1.29855
1.29238
1.28764
1.28369
1.27947
1.27484
1.27036
1.26613
1.26291
1.26042
1.25969
1.26155
1.2622
1.2597
1.25711
1.25423
1.2505
1.246
1.24083
1.23499
1.22866
1.22311
1.21986
1.21829
1.21762
1.21887
1.22004
1.2193
1.21756
1.21441
1.20922
1.20363
1.19877
1.19453
1.19094
1.18841
1.187
1.18608
1.18521
1.18415
1.18248
1.17895
1.17349
1.16945
1.16777
1.16737
1.16783
1.17089
1.17618
1.17912
1.17896
1.17712
1.17107
1.15815
1.14839
1.14508
1.14401
1.14387
1.14626
1.14961
1.15137
1.15163
1.15114
1.15013
1.14769
1.14375
1.13814
1.13123
1.12485
1.11987
0.981736
0.993617
1.00989
1.03257
1.06462
1.09713
1.11996
1.13344
1.14079
1.14856
1.15747
1.16744
1.1804
1.19877
1.22026
1.23693
1.24751
1.25346
1.25655
1.2593
1.26297
1.26831
1.27719
1.28362
1.28403
1.28073
1.27663
1.27651
1.27982
1.29136
1.3091
1.31791
1.31968
1.31805
1.31166
1.30557
1.30519
1.30594
1.30801
1.3125
1.31752
1.32051
1.3217
1.32387
1.32581
1.3241
1.32097
1.31891
1.31768
1.31726
1.31821
1.31968
1.31802
1.31413
1.31018
1.30657
1.30359
1.30092
1.29841
1.29551
1.29221
1.28893
1.28717
1.2858
1.2816
1.27702
1.27168
1.26493
1.25779
1.25363
1.25156
1.25079
1.25085
1.24978
1.24827
1.24624
1.24374
1.24099
1.23858
1.23639
1.2331
1.22805
1.22225
1.21722
1.21416
1.21251
1.21177
1.21094
1.20882
1.20572
1.20236
1.19978
1.19841
1.19762
1.19626
1.19438
1.19286
1.19194
1.19087
1.1892
1.18646
1.18227
1.17737
1.17286
1.16961
1.16815
1.16822
1.16946
1.16949
1.16889
1.16738
1.16421
1.16084
1.15907
1.1571
1.15474
1.15317
1.1523
1.15091
1.14915
1.14721
1.14418
1.14029
1.13695
1.13452
1.13306
1.13228
1.13084
1.12857
0.973878
0.990863
1.01284
1.04278
1.07665
1.10163
1.12215
1.13443
1.14049
1.1447
1.15327
1.16477
1.18401
1.21388
1.23271
1.23964
1.24528
1.24954
1.25291
1.25566
1.25993
1.26743
1.2802
1.28837
1.29066
1.29169
1.29147
1.29053
1.29074
1.29455
1.30342
1.31143
1.31271
1.31098
1.30214
1.29569
1.29714
1.3023
1.31377
1.32881
1.33434
1.33313
1.32684
1.32007
1.31691
1.31519
1.31422
1.31245
1.30906
1.30736
1.30873
1.31567
1.3243
1.32816
1.3267
1.32094
1.31052
1.29987
1.29412
1.29077
1.28765
1.28512
1.28442
1.28488
1.2836
1.28167
1.2794
1.27614
1.2702
1.26179
1.25493
1.25053
1.24723
1.24436
1.24171
1.23886
1.2354
1.23247
1.23137
1.23195
1.23433
1.23437
1.23273
1.22952
1.22368
1.2164
1.21041
1.20597
1.20209
1.19813
1.19437
1.19227
1.19213
1.19341
1.19501
1.1951
1.19469
1.19386
1.19219
1.19012
1.1884
1.18719
1.18665
1.18607
1.18455
1.18138
1.17573
1.16789
1.16027
1.15439
1.1501
1.14863
1.15105
1.15568
1.15971
1.1629
1.16541
1.16576
1.16342
1.1585
1.15025
1.13916
1.12884
1.12281
1.12044
1.1196
1.12104
1.12436
1.12701
0.959715
0.981456
1.00582
1.03422
1.06247
1.08302
1.10323
1.1211
1.12748
1.13011
1.13696
1.15038
1.17739
1.21181
1.22843
1.23368
1.23647
1.23811
1.24091
1.24535
1.25193
1.2645
1.27756
1.28384
1.28787
1.29021
1.29055
1.28877
1.28567
1.28446
1.28784
1.29635
1.30501
1.30808
1.30848
1.30545
1.30379
1.30602
1.31322
1.32249
1.32566
1.32543
1.32175
1.31483
1.31179
1.31246
1.3147
1.31755
1.31751
1.31614
1.31608
1.31896
1.32303
1.32477
1.3228
1.3161
1.30461
1.29553
1.29188
1.28951
1.28824
1.28829
1.28694
1.28388
1.28067
1.27751
1.2744
1.27052
1.2645
1.25814
1.25408
1.25096
1.24859
1.24714
1.24645
1.24568
1.24375
1.24011
1.23498
1.23135
1.22985
1.22897
1.22765
1.22521
1.22128
1.21605
1.21142
1.20856
1.20662
1.20471
1.20223
1.19897
1.19527
1.19249
1.19129
1.19095
1.19064
1.18963
1.18729
1.18408
1.18164
1.18112
1.18162
1.18239
1.18257
1.18156
1.17874
1.17398
1.1677
1.16073
1.15518
1.15306
1.15333
1.15446
1.15644
1.15965
1.16247
1.16308
1.16182
1.15863
1.15298
1.1452
1.13716
1.13089
1.12754
1.12572
1.1247
1.12468
1.12558
0.9748
0.994436
1.01438
1.03044
1.04387
1.05439
1.06705
1.084
1.10255
1.11755
1.13718
1.16696
1.20123
1.21978
1.22398
1.22391
1.21652
1.21423
1.22053
1.23192
1.25216
1.27457
1.28512
1.28807
1.28748
1.28306
1.27801
1.27622
1.27676
1.27959
1.28616
1.2957
1.30344
1.30696
1.30886
1.31009
1.31157
1.31384
1.3172
1.31957
1.32084
1.32084
1.3182
1.3122
1.30757
1.30718
1.30818
1.31179
1.31857
1.32514
1.32758
1.32658
1.3239
1.32013
1.31385
1.30489
1.29627
1.29176
1.28971
1.28898
1.29042
1.29169
1.2897
1.28669
1.2834
1.27947
1.27401
1.26624
1.25795
1.25311
1.2511
1.2497
1.24798
1.24622
1.24523
1.24478
1.2439
1.24209
1.2394
1.23633
1.23313
1.22989
1.22643
1.2226
1.21852
1.21422
1.21008
1.20713
1.20566
1.20476
1.20381
1.20249
1.20056
1.1983
1.1963
1.19469
1.19294
1.19054
1.18777
1.18544
1.18418
1.18346
1.18223
1.17991
1.17687
1.17365
1.17028
1.16683
1.16367
1.16166
1.16127
1.16163
1.16221
1.16255
1.16214
1.16078
1.1589
1.15629
1.1528
1.14836
1.1437
1.14006
1.13753
1.13519
1.13301
1.13189
1.13129
1.13097
1.13092
0.969725
0.985714
1.00534
1.01749
1.02214
1.02965
1.04074
1.0576
1.08094
1.11138
1.14238
1.16473
1.18096
1.19457
1.20176
1.20501
1.20311
1.2071
1.21808
1.23804
1.26306
1.27368
1.27582
1.27398
1.2652
1.26181
1.26477
1.27289
1.28699
1.29756
1.29931
1.29545
1.28814
1.2869
1.29015
1.29886
1.30933
1.31501
1.31596
1.31436
1.31369
1.31362
1.31204
1.30847
1.30407
1.30227
1.30311
1.30939
1.32232
1.33217
1.33403
1.33194
1.32386
1.31217
1.30309
1.2992
1.29772
1.29646
1.29449
1.29198
1.2894
1.28639
1.2832
1.28102
1.27928
1.27717
1.27273
1.2647
1.2594
1.25745
1.25568
1.25349
1.25062
1.24706
1.24303
1.24064
1.2401
1.24035
1.24078
1.24007
1.23693
1.2311
1.22542
1.22129
1.21794
1.21495
1.21216
1.20915
1.20613
1.20398
1.20277
1.20172
1.20023
1.19836
1.19654
1.19451
1.19187
1.18895
1.18693
1.18644
1.18638
1.18551
1.18279
1.17811
1.17305
1.16903
1.16648
1.16562
1.16587
1.16782
1.17046
1.17181
1.17098
1.16783
1.16345
1.15843
1.15362
1.14941
1.14608
1.14398
1.14312
1.1429
1.14233
1.14111
1.13871
1.13565
1.13412
1.13316
1.13202
0.952078
0.965898
0.985669
1.00206
1.00756
1.01369
1.02309
1.03942
1.06241
1.0962
1.12953
1.14691
1.15905
1.16942
1.17818
1.18821
1.19878
1.20568
1.21583
1.23183
1.24957
1.25802
1.25989
1.25959
1.25689
1.25815
1.26519
1.28006
1.29289
1.2963
1.29566
1.28824
1.27684
1.27668
1.28344
1.30118
1.31715
1.32005
1.32003
1.3165
1.31041
1.30799
1.307
1.30462
1.30244
1.30298
1.30852
1.32077
1.33208
1.33457
1.33241
1.32579
1.31202
1.29841
1.2934
1.29169
1.2909
1.29179
1.29127
1.2894
1.28746
1.28617
1.2858
1.28492
1.28278
1.27867
1.27002
1.26026
1.25606
1.25429
1.25289
1.25168
1.25046
1.24902
1.24718
1.2464
1.24715
1.24741
1.24597
1.24156
1.2326
1.22223
1.21593
1.21335
1.21238
1.21273
1.21449
1.21514
1.21477
1.2135
1.21125
1.20777
1.2028
1.19769
1.19392
1.19086
1.18833
1.18685
1.18602
1.18499
1.18305
1.17948
1.17421
1.16964
1.16771
1.16759
1.16979
1.17537
1.18178
1.18502
1.18418
1.17956
1.17067
1.15898
1.14968
1.14425
1.14172
1.14098
1.14143
1.14474
1.14971
1.15313
1.1535
1.15171
1.14794
1.14261
1.13659
1.13099
1.12563
0.913856
0.930652
0.948668
0.971683
0.992916
1.00504
1.00925
1.01872
1.03976
1.07702
1.11123
1.12264
1.13186
1.1419
1.15201
1.16586
1.18736
1.20502
1.21436
1.22493
1.23533
1.24064
1.24459
1.24801
1.25153
1.25516
1.26241
1.2733
1.28233
1.28461
1.28424
1.28053
1.2752
1.27506
1.28161
1.29716
1.3086
1.31101
1.31136
1.30952
1.30266
1.29703
1.29629
1.29745
1.30116
1.31025
1.32154
1.32558
1.32485
1.32271
1.31911
1.31221
1.30227
1.29345
1.28949
1.28789
1.28765
1.29033
1.29315
1.29435
1.29442
1.29295
1.29022
1.28468
1.27673
1.26835
1.26062
1.2552
1.25284
1.25182
1.25237
1.25529
1.25788
1.25816
1.25677
1.25311
1.24659
1.24047
1.23547
1.22944
1.2218
1.21605
1.21368
1.21294
1.21471
1.22077
1.22618
1.22713
1.22555
1.22007
1.21089
1.2024
1.19543
1.19028
1.18714
1.1858
1.18594
1.18651
1.18635
1.1854
1.18316
1.17877
1.17511
1.17449
1.17572
1.17979
1.18537
1.18738
1.18573
1.18179
1.17525
1.16527
1.15458
1.14717
1.14327
1.14224
1.14343
1.14772
1.15372
1.15837
1.15925
1.15778
1.15508
1.15036
1.14475
1.13882
1.13152
1.12278
1.11521
0.825997
0.860741
0.889538
0.917655
0.947261
0.978436
0.999144
1.00812
1.02144
1.04453
1.07745
1.0987
1.10691
1.11784
1.1305
1.14493
1.16722
1.19536
1.21208
1.2175
1.21763
1.22036
1.22468
1.23027
1.24235
1.25727
1.26219
1.26295
1.2641
1.2654
1.26695
1.26854
1.27088
1.27482
1.28265
1.29188
1.29851
1.30092
1.30161
1.30053
1.2946
1.28841
1.2887
1.29217
1.30255
1.31632
1.32085
1.32034
1.31769
1.31302
1.30732
1.30184
1.29756
1.29513
1.29317
1.29202
1.29288
1.2962
1.29855
1.29776
1.2956
1.29259
1.28738
1.27922
1.26876
1.26066
1.25675
1.25477
1.2538
1.2552
1.25953
1.26332
1.26368
1.26186
1.2574
1.24957
1.2406
1.23234
1.22554
1.22111
1.2189
1.21804
1.21885
1.22248
1.22737
1.23037
1.23017
1.22751
1.22195
1.21395
1.20414
1.19468
1.18943
1.18691
1.18594
1.18618
1.1894
1.19288
1.19376
1.19346
1.19107
1.18703
1.18552
1.18524
1.18526
1.18445
1.18246
1.17951
1.1757
1.16988
1.16151
1.15447
1.15074
1.14976
1.15111
1.15471
1.15843
1.16007
1.1591
1.15623
1.15222
1.14824
1.14418
1.14126
1.1384
1.13483
1.12985
1.12253
1.1148
0.746901
0.76906
0.797671
0.833544
0.870944
0.912611
0.959273
0.98842
1.00167
1.01415
1.0351
1.0677
1.08556
1.09367
1.10426
1.11893
1.14302
1.17683
1.19653
1.20247
1.20482
1.20495
1.2086
1.21629
1.23271
1.2517
1.25755
1.25762
1.24971
1.24599
1.2485
1.25412
1.26726
1.28186
1.28608
1.28542
1.28373
1.28477
1.28642
1.287
1.28703
1.28665
1.28695
1.29075
1.30074
1.31206
1.31539
1.31484
1.31128
1.30357
1.29747
1.29567
1.2959
1.29855
1.30113
1.30082
1.29842
1.29568
1.29395
1.29334
1.29205
1.28917
1.28365
1.27357
1.26339
1.2586
1.25694
1.25717
1.26016
1.2634
1.26464
1.26414
1.26255
1.25977
1.25465
1.24543
1.23395
1.22545
1.22097
1.2192
1.22035
1.22668
1.23497
1.23877
1.23782
1.23331
1.22602
1.21942
1.21258
1.20458
1.19736
1.19331
1.19105
1.18998
1.19039
1.19383
1.1984
1.20021
1.2001
1.19722
1.19157
1.1882
1.18704
1.18555
1.18335
1.18047
1.17677
1.17208
1.16684
1.1614
1.15742
1.15675
1.15943
1.16409
1.16607
1.16542
1.16282
1.15845
1.15408
1.14869
1.14312
1.14063
1.1398
1.13971
1.14024
1.13894
1.13659
1.13235
1.12512
0.752061
0.753552
0.75724
0.767763
0.789923
0.823045
0.865172
0.912335
0.951798
0.970488
0.985904
1.00999
1.04844
1.07864
1.09013
1.09846
1.11546
1.13696
1.15896
1.17448
1.18056
1.18148
1.18582
1.19806
1.21932
1.24002
1.24573
1.24555
1.23969
1.23351
1.23557
1.24305
1.25939
1.27652
1.28152
1.28215
1.27595
1.26993
1.27061
1.27294
1.27722
1.28268
1.28723
1.29197
1.29773
1.30318
1.3062
1.30664
1.30502
1.30005
1.29511
1.29447
1.29675
1.30176
1.30416
1.3029
1.30001
1.29514
1.28988
1.28705
1.28494
1.2818
1.27614
1.26818
1.26284
1.2608
1.26071
1.26494
1.26824
1.2672
1.26452
1.26085
1.25729
1.25346
1.2477
1.2394
1.23089
1.22497
1.22296
1.22359
1.23042
1.24183
1.24527
1.24364
1.23986
1.23214
1.21847
1.20492
1.19793
1.19572
1.19523
1.19562
1.19734
1.2003
1.20396
1.20526
1.20429
1.20183
1.19714
1.19137
1.18668
1.18508
1.1842
1.18287
1.18045
1.17673
1.1725
1.16801
1.16381
1.16197
1.16288
1.16736
1.17076
1.17044
1.16851
1.16494
1.16039
1.15449
1.14695
1.14117
1.13894
1.13821
1.13939
1.14423
1.14622
1.14457
1.14119
1.13564
1.12906
0.770861
0.766107
0.764577
0.761445
0.762083
0.768812
0.783606
0.808296
0.84037
0.878863
0.91325
0.942
0.977998
1.02894
1.07392
1.09486
1.09979
1.10322
1.11052
1.12287
1.14225
1.16637
1.18331
1.19252
1.20401
1.21454
1.22183
1.22637
1.2279
1.22725
1.22595
1.23227
1.24847
1.26531
1.27087
1.27192
1.26911
1.26051
1.25849
1.26075
1.26606
1.27673
1.28865
1.29463
1.29577
1.29468
1.29382
1.29509
1.29669
1.29682
1.295
1.29422
1.29481
1.2976
1.3009
1.30102
1.29911
1.29529
1.28898
1.2815
1.27573
1.2713
1.26754
1.26498
1.26311
1.26313
1.26693
1.26971
1.26877
1.26692
1.26453
1.25978
1.25112
1.24218
1.23697
1.23458
1.23315
1.23192
1.23278
1.2379
1.24324
1.24396
1.24353
1.24197
1.23737
1.22605
1.20902
1.19844
1.19505
1.19386
1.19396
1.199
1.20831
1.21404
1.21431
1.21236
1.20763
1.2001
1.1903
1.18234
1.17948
1.1787
1.1786
1.17921
1.17831
1.17642
1.17354
1.17097
1.17016
1.17154
1.17383
1.17357
1.1717
1.16881
1.16554
1.16126
1.15531
1.14811
1.14328
1.14088
1.14009
1.14085
1.14487
1.14687
1.14514
1.14252
1.13866
1.13323
1.12776
0.805448
0.799628
0.793425
0.783497
0.772332
0.768226
0.769699
0.775727
0.785949
0.800539
0.82323
0.857776
0.898565
0.943236
0.996651
1.05032
1.07522
1.08046
1.07522
1.08152
1.10233
1.13944
1.17319
1.18957
1.19295
1.18793
1.18931
1.19573
1.20616
1.21956
1.2293
1.23224
1.2372
1.24412
1.25109
1.25576
1.25795
1.25718
1.25221
1.25181
1.25576
1.26659
1.28391
1.29282
1.29468
1.29355
1.28757
1.28511
1.28661
1.29027
1.29389
1.29498
1.29519
1.29555
1.2958
1.29586
1.2951
1.29292
1.28733
1.27743
1.26817
1.26377
1.26191
1.26181
1.26531
1.26808
1.26831
1.26737
1.26613
1.2649
1.26233
1.25544
1.24385
1.23562
1.23325
1.23281
1.23409
1.24075
1.24857
1.24976
1.24763
1.24384
1.23988
1.23542
1.22848
1.21778
1.20705
1.2001
1.19723
1.19652
1.19903
1.20937
1.21674
1.21687
1.2155
1.21339
1.20794
1.19541
1.18283
1.17822
1.177
1.17633
1.17621
1.17737
1.17819
1.17881
1.17971
1.1808
1.18088
1.17954
1.17599
1.171
1.1662
1.16148
1.15682
1.15256
1.14939
1.14747
1.14642
1.14649
1.14812
1.14959
1.14856
1.14559
1.14125
1.13601
1.131
1.12785
1.1256
0.864027
0.853712
0.845649
0.831074
0.810802
0.788615
0.777719
0.777384
0.77975
0.785435
0.791544
0.799096
0.817621
0.845414
0.879111
0.922789
0.968486
1.01804
1.04496
1.055
1.07328
1.11076
1.15444
1.17165
1.1757
1.17033
1.1608
1.16456
1.17639
1.20006
1.2233
1.234
1.23447
1.23116
1.23109
1.23462
1.2417
1.24695
1.24793
1.24653
1.24843
1.25535
1.27045
1.28539
1.29003
1.29056
1.28553
1.2774
1.27634
1.27951
1.28704
1.29513
1.29748
1.29618
1.29249
1.2893
1.28798
1.28648
1.28279
1.27538
1.26663
1.26181
1.2599
1.26022
1.26416
1.26703
1.26627
1.26432
1.26179
1.25865
1.2542
1.24766
1.24123
1.23732
1.23574
1.23588
1.2407
1.25017
1.25329
1.25235
1.24951
1.24287
1.23186
1.22122
1.21596
1.21356
1.21133
1.20951
1.20816
1.20853
1.21093
1.21198
1.21267
1.21321
1.21244
1.20983
1.2027
1.19113
1.18312
1.17979
1.17849
1.17782
1.17781
1.1806
1.18659
1.19004
1.18982
1.18835
1.18553
1.18017
1.17238
1.16316
1.15558
1.15101
1.14895
1.1485
1.14911
1.15084
1.15429
1.1571
1.15718
1.15517
1.15024
1.14262
1.13411
1.12792
1.12516
1.12388
1.12406
0.941625
0.908055
0.888654
0.874877
0.858976
0.839327
0.814639
0.794255
0.790356
0.791536
0.799221
0.804284
0.802406
0.798435
0.801158
0.814617
0.844814
0.891859
0.952983
1.01411
1.04868
1.07489
1.10076
1.12428
1.14144
1.14789
1.14541
1.14209
1.15013
1.16922
1.20018
1.22281
1.22859
1.2289
1.2196
1.21413
1.21753
1.2257
1.23707
1.24444
1.24809
1.2523
1.26045
1.26768
1.27277
1.27646
1.27787
1.27558
1.27306
1.27452
1.27998
1.28831
1.29293
1.29276
1.29048
1.28564
1.28079
1.27818
1.27595
1.27243
1.26791
1.26406
1.26186
1.26237
1.26543
1.26613
1.26449
1.26209
1.2573
1.24948
1.2434
1.24152
1.24165
1.24294
1.24371
1.24583
1.24837
1.24943
1.24927
1.24815
1.24445
1.23522
1.22233
1.21516
1.21334
1.21316
1.21766
1.22227
1.22245
1.22104
1.21842
1.21473
1.21112
1.20834
1.20515
1.20005
1.19361
1.18931
1.18733
1.18567
1.18464
1.18455
1.18678
1.19112
1.19222
1.19179
1.19093
1.18905
1.18495
1.17613
1.16362
1.15417
1.1502
1.14891
1.14864
1.14956
1.15436
1.16252
1.16502
1.16421
1.16166
1.15575
1.14519
1.13382
1.12779
1.12535
1.12402
1.12376
1.12596
1.02211
0.98726
0.945487
0.921647
0.910273
0.895955
0.874487
0.848774
0.829401
0.82102
0.819012
0.817002
0.812047
0.804536
0.792238
0.787983
0.792232
0.808296
0.842644
0.898293
0.965529
1.00834
1.03178
1.05218
1.07111
1.1006
1.12693
1.13227
1.13347
1.14433
1.16333
1.18677
1.20563
1.21192
1.21201
1.20263
1.19573
1.19998
1.21257
1.23233
1.24941
1.25804
1.25785
1.25151
1.25017
1.2549
1.26353
1.27259
1.27518
1.27504
1.27632
1.27886
1.28175
1.2842
1.2841
1.28167
1.27636
1.27124
1.26885
1.26794
1.26751
1.26603
1.2646
1.26495
1.26502
1.26367
1.26194
1.25927
1.25309
1.24372
1.23866
1.2377
1.23847
1.24333
1.24967
1.25194
1.2519
1.24994
1.24621
1.24134
1.23486
1.22725
1.2215
1.21857
1.21744
1.21733
1.21948
1.22424
1.22699
1.22597
1.2234
1.2186
1.21096
1.2029
1.19594
1.19085
1.18875
1.18878
1.19071
1.19423
1.19626
1.19718
1.19671
1.19518
1.19386
1.19191
1.18902
1.18431
1.17639
1.16632
1.1591
1.15583
1.15393
1.15271
1.15278
1.15686
1.16309
1.16531
1.16563
1.16444
1.16039
1.15022
1.13748
1.13091
1.12881
1.12758
1.1268
1.12843
1.13152
1.08138
1.05917
1.02448
0.978531
0.948135
0.934183
0.921196
0.906925
0.891145
0.873423
0.853789
0.838163
0.828428
0.820384
0.810824
0.798787
0.794382
0.794742
0.800411
0.817651
0.849336
0.885615
0.926296
0.964121
0.992502
1.02314
1.06274
1.10847
1.12952
1.13354
1.13965
1.14948
1.16231
1.17861
1.19156
1.19412
1.18804
1.18777
1.19782
1.21554
1.2369
1.24757
1.24836
1.24307
1.23805
1.24102
1.24877
1.25955
1.26908
1.27302
1.27266
1.27221
1.27522
1.27823
1.27869
1.27751
1.27277
1.26632
1.26357
1.26293
1.26393
1.26709
1.26929
1.26784
1.26335
1.25882
1.25621
1.25329
1.24881
1.24389
1.24084
1.23952
1.24023
1.24475
1.25032
1.25176
1.25075
1.24748
1.24117
1.23404
1.22962
1.22817
1.2275
1.22628
1.22521
1.22446
1.2239
1.22354
1.22342
1.22255
1.22025
1.21549
1.20745
1.19914
1.19404
1.19221
1.19179
1.19304
1.19631
1.19943
1.20133
1.20159
1.20041
1.19785
1.19402
1.18907
1.18237
1.17374
1.16602
1.1626
1.16154
1.16146
1.16201
1.16287
1.1642
1.16511
1.16524
1.16458
1.16261
1.15791
1.14975
1.14091
1.1362
1.13424
1.133
1.13283
1.13471
1.13602
1.13555
1.1271
1.10906
1.08692
1.05278
1.00975
0.979144
0.968207
0.960614
0.950096
0.934433
0.912506
0.885076
0.860732
0.845188
0.834899
0.821761
0.808679
0.805849
0.806655
0.810931
0.814217
0.822663
0.835259
0.855726
0.891825
0.933608
0.975403
1.02305
1.07738
1.11693
1.12537
1.12485
1.12962
1.13936
1.15451
1.17397
1.18406
1.18541
1.18887
1.19728
1.20721
1.21959
1.23233
1.2377
1.23891
1.23926
1.24294
1.24761
1.25316
1.26023
1.26539
1.26903
1.27175
1.2735
1.27458
1.27364
1.26921
1.26279
1.25932
1.25907
1.26177
1.26822
1.27128
1.2692
1.26404
1.25592
1.24875
1.24578
1.24452
1.24398
1.24368
1.24427
1.24637
1.24808
1.2478
1.24677
1.24479
1.24074
1.23557
1.23305
1.23241
1.23271
1.23445
1.23425
1.23279
1.23057
1.22742
1.2239
1.22083
1.21758
1.2132
1.20754
1.20247
1.19979
1.1984
1.19775
1.19852
1.2009
1.20378
1.20554
1.20569
1.20458
1.20217
1.19749
1.19024
1.1813
1.17228
1.16637
1.16433
1.16361
1.16448
1.16734
1.17
1.17134
1.17124
1.16986
1.16655
1.16089
1.15291
1.14438
1.1393
1.13795
1.13818
1.13961
1.14024
1.14069
1.14094
1.14009
1.13826
1.19898
1.15432
1.12539
1.10455
1.0782
1.04917
1.01975
1.00098
0.991194
0.981398
0.965813
0.943297
0.91303
0.877448
0.852931
0.843224
0.838556
0.834891
0.830813
0.825231
0.821079
0.814577
0.807996
0.809827
0.819513
0.840942
0.878167
0.924298
0.974169
1.02171
1.07334
1.10337
1.10705
1.10878
1.11707
1.13281
1.15741
1.17367
1.17557
1.17644
1.18195
1.19123
1.20597
1.22505
1.23712
1.24035
1.23742
1.23666
1.24033
1.24594
1.25589
1.26495
1.26642
1.26561
1.26532
1.26453
1.26345
1.26071
1.2577
1.25781
1.26063
1.26486
1.26683
1.26526
1.26154
1.25427
1.2447
1.24028
1.23901
1.23927
1.24321
1.24949
1.25202
1.25079
1.24689
1.2415
1.23676
1.23362
1.23277
1.23355
1.23648
1.23999
1.24073
1.2393
1.23707
1.23344
1.22783
1.22163
1.21612
1.21088
1.20606
1.20297
1.20145
1.20094
1.20164
1.20269
1.20437
1.20643
1.20796
1.20828
1.20749
1.2057
1.20161
1.19353
1.18227
1.17244
1.16777
1.16627
1.16578
1.16761
1.17255
1.17675
1.17828
1.17783
1.17611
1.17147
1.16198
1.14989
1.14077
1.1372
1.13651
1.13853
1.14365
1.1476
1.14861
1.14841
1.14728
1.14455
1.13976
1.2678
1.22664
1.17866
1.1393
1.12336
1.10786
1.08761
1.06676
1.04243
1.02119
1.00818
0.994854
0.967904
0.926524
0.893111
0.87983
0.873931
0.869856
0.864311
0.855138
0.841589
0.826015
0.812771
0.804156
0.804447
0.807668
0.817504
0.838513
0.874668
0.917449
0.962139
1.00822
1.05656
1.07593
1.08216
1.0914
1.10661
1.13158
1.15533
1.16426
1.16991
1.17819
1.19022
1.20643
1.21967
1.22392
1.22381
1.22279
1.22714
1.23434
1.24819
1.25888
1.25923
1.25544
1.25264
1.25468
1.25648
1.25773
1.25871
1.26001
1.26106
1.26094
1.26031
1.25854
1.25559
1.25089
1.24341
1.23816
1.23657
1.23652
1.24184
1.24994
1.2514
1.24992
1.24575
1.23838
1.23296
1.23098
1.23076
1.23277
1.23895
1.244
1.24341
1.24182
1.23954
1.23542
1.22828
1.2193
1.21191
1.20724
1.20467
1.2031
1.2022
1.20307
1.20518
1.20679
1.20777
1.2083
1.20819
1.20753
1.20623
1.2031
1.19666
1.18719
1.17833
1.17311
1.17085
1.16992
1.17095
1.17536
1.17986
1.18168
1.18116
1.17958
1.17536
1.16477
1.15006
1.14048
1.13751
1.13701
1.13948
1.14625
1.15205
1.15346
1.15347
1.1531
1.151
1.14503
1.13432
1.31162
1.28499
1.24527
1.20237
1.16734
1.14749
1.13681
1.12395
1.10327
1.07883
1.052
1.02041
0.994382
0.970765
0.94993
0.935848
0.921814
0.905113
0.891436
0.88136
0.869348
0.852535
0.832214
0.814342
0.808665
0.808576
0.810392
0.815562
0.826099
0.847013
0.87186
0.896737
0.933709
0.97676
1.02153
1.04711
1.06304
1.08193
1.11109
1.14781
1.1663
1.17235
1.17841
1.18648
1.19413
1.19666
1.19844
1.20435
1.21132
1.2209
1.2371
1.24825
1.2507
1.25059
1.24818
1.24853
1.25018
1.25178
1.25519
1.25948
1.26073
1.25934
1.25644
1.25283
1.24891
1.24459
1.23946
1.23564
1.23445
1.2358
1.24228
1.24735
1.24724
1.24605
1.24299
1.23748
1.23352
1.23168
1.23122
1.23287
1.23742
1.24209
1.24202
1.24039
1.23829
1.23481
1.22805
1.21752
1.20999
1.20759
1.20608
1.20478
1.20442
1.20628
1.20879
1.20931
1.20815
1.20689
1.20582
1.20428
1.20135
1.19665
1.19059
1.18493
1.18177
1.18003
1.17857
1.17791
1.17903
1.18157
1.18272
1.18181
1.17969
1.17469
1.16417
1.15115
1.14376
1.14205
1.14226
1.14441
1.14908
1.15501
1.15744
1.15733
1.15669
1.15418
1.14726
1.13399
1.12033
1.37222
1.31429
1.28423
1.25865
1.23255
1.21086
1.18608
1.16298
1.14738
1.13231
1.10817
1.06495
1.02025
1.00135
0.992619
0.983174
0.970567
0.954467
0.936682
0.918787
0.902484
0.8873
0.866647
0.83937
0.824659
0.821432
0.820668
0.822047
0.825571
0.826448
0.827837
0.832449
0.840976
0.863257
0.900801
0.950039
1.00583
1.04092
1.06714
1.10389
1.14359
1.16067
1.16492
1.16081
1.16284
1.16688
1.17368
1.18508
1.1958
1.20707
1.22238
1.23811
1.24766
1.25141
1.25069
1.24558
1.24376
1.24453
1.24685
1.25327
1.25826
1.25784
1.25494
1.24852
1.24107
1.23619
1.23377
1.23328
1.23521
1.24013
1.24507
1.24527
1.24401
1.24266
1.24041
1.23739
1.23474
1.23283
1.23206
1.23251
1.234
1.2367
1.23838
1.23697
1.23461
1.23162
1.22708
1.21984
1.21333
1.21089
1.20934
1.20796
1.20737
1.20886
1.21061
1.20949
1.20744
1.20519
1.20249
1.19873
1.19388
1.1899
1.18811
1.18752
1.18796
1.18896
1.18857
1.18793
1.18702
1.18553
1.1833
1.17925
1.17144
1.16003
1.15105
1.14825
1.14822
1.14914
1.15073
1.15428
1.15967
1.16157
1.16071
1.15881
1.15458
1.14526
1.13106
1.12109
1.11815
1.40984
1.3648
1.32971
1.30107
1.2837
1.26628
1.24254
1.21773
1.19399
1.16592
1.13246
1.09564
1.06359
1.04666
1.03051
1.01439
1.00347
0.994477
0.982935
0.965789
0.941055
0.907651
0.880193
0.864162
0.854318
0.849393
0.844858
0.840093
0.83618
0.832951
0.825486
0.814313
0.810142
0.813002
0.824785
0.852468
0.895242
0.952708
1.00814
1.04277
1.07828
1.11505
1.12732
1.12904
1.12908
1.13745
1.14904
1.16455
1.18008
1.19415
1.20948
1.22648
1.24105
1.24784
1.24976
1.24522
1.2382
1.23767
1.23843
1.2424
1.24908
1.25007
1.24813
1.24235
1.23547
1.23288
1.23295
1.23516
1.24011
1.24439
1.24454
1.2429
1.24095
1.23899
1.23744
1.23632
1.23499
1.23297
1.23176
1.23135
1.2309
1.23153
1.23422
1.2342
1.23288
1.23124
1.22881
1.2244
1.21734
1.21246
1.21037
1.20861
1.20738
1.2082
1.20983
1.20876
1.20699
1.20476
1.20026
1.19371
1.18906
1.18751
1.18737
1.18933
1.19353
1.19696
1.19699
1.19525
1.19234
1.1877
1.18006
1.1685
1.15737
1.15267
1.15164
1.1517
1.15326
1.1568
1.16214
1.16653
1.16616
1.16441
1.16128
1.15455
1.14233
1.12972
1.12449
1.12297
1.12226
1.44387
1.4096
1.38286
1.35982
1.33796
1.31543
1.29347
1.273
1.25178
1.21424
1.15654
1.11817
1.10293
1.09071
1.07723
1.06373
1.05041
1.03635
1.02206
1.0058
0.978917
0.941461
0.907802
0.890594
0.883746
0.880921
0.877169
0.870923
0.861528
0.849767
0.833343
0.812915
0.809404
0.809495
0.811486
0.817207
0.830094
0.855969
0.899609
0.949041
0.985709
1.01881
1.0546
1.07534
1.08632
1.09871
1.11278
1.13632
1.16885
1.19094
1.20484
1.2162
1.22488
1.2304
1.23467
1.23633
1.23285
1.22641
1.22623
1.22991
1.23734
1.24017
1.24043
1.23966
1.2369
1.23423
1.23408
1.23703
1.24107
1.24191
1.24045
1.23827
1.23683
1.23656
1.23704
1.23709
1.23609
1.23343
1.2315
1.23023
1.22926
1.23047
1.23459
1.23553
1.23466
1.2332
1.23049
1.22522
1.21724
1.21226
1.2104
1.20884
1.20803
1.20968
1.21191
1.21129
1.20954
1.20651
1.19949
1.19104
1.18793
1.18733
1.18748
1.19072
1.1979
1.20316
1.20201
1.19931
1.19529
1.18666
1.17208
1.16096
1.15688
1.15531
1.15469
1.15538
1.16001
1.16743
1.17093
1.16978
1.16764
1.16377
1.15543
1.1425
1.13246
1.12837
1.12653
1.12574
1.12562
1.48897
1.46029
1.43713
1.41598
1.3944
1.37363
1.3536
1.33085
1.29241
1.23221
1.18117
1.15539
1.13928
1.12524
1.11563
1.1067
1.09509
1.08006
1.05872
1.02641
0.986756
0.956539
0.942673
0.93679
0.929954
0.920265
0.910394
0.901524
0.890765
0.874931
0.847038
0.818766
0.811953
0.810678
0.811925
0.816669
0.822944
0.829124
0.838516
0.857072
0.880304
0.904032
0.93726
0.976992
1.01987
1.05328
1.07261
1.10019
1.14472
1.18542
1.20413
1.20951
1.20783
1.20396
1.20661
1.2117
1.21626
1.21998
1.22022
1.2234
1.23146
1.23517
1.23564
1.23651
1.23704
1.23666
1.23602
1.23644
1.23631
1.23499
1.234
1.23399
1.23502
1.23591
1.23584
1.23591
1.23522
1.23297
1.23029
1.22852
1.22842
1.2311
1.23539
1.23606
1.23514
1.23311
1.22955
1.22335
1.216
1.2126
1.21099
1.20947
1.20872
1.21069
1.21323
1.21286
1.21138
1.20821
1.20031
1.19187
1.18876
1.188
1.18797
1.19193
1.20097
1.20379
1.20266
1.20013
1.19487
1.18328
1.16891
1.16169
1.15969
1.15885
1.15895
1.16237
1.16927
1.17201
1.17097
1.16931
1.16589
1.15835
1.1468
1.13715
1.13231
1.13038
1.12942
1.12912
1.13102
1.54032
1.51651
1.49546
1.47476
1.45398
1.43378
1.4116
1.37703
1.31111
1.24335
1.20983
1.1976
1.1864
1.17459
1.16238
1.14925
1.13475
1.11779
1.09366
1.04994
1.00297
0.980971
0.974987
0.973584
0.97043
0.961991
0.951157
0.937668
0.920468
0.899157
0.868419
0.837445
0.825533
0.82163
0.819864
0.821172
0.82695
0.830483
0.831928
0.831777
0.831174
0.832881
0.841138
0.866062
0.906733
0.963148
1.02284
1.06623
1.10929
1.15436
1.18101
1.19199
1.19624
1.18628
1.17904
1.18255
1.18971
1.20643
1.22003
1.22779
1.23266
1.23208
1.23092
1.23162
1.23296
1.23461
1.23584
1.23339
1.22856
1.22738
1.22837
1.23133
1.23399
1.23433
1.23378
1.23232
1.23013
1.22879
1.22824
1.22803
1.22944
1.23368
1.23559
1.23524
1.23399
1.23109
1.22567
1.21944
1.21608
1.21448
1.21291
1.21139
1.21095
1.21298
1.21402
1.21313
1.21182
1.20829
1.20161
1.19499
1.19149
1.19003
1.18992
1.19357
1.19884
1.19919
1.19732
1.1943
1.18836
1.17987
1.17263
1.16867
1.16662
1.16577
1.16686
1.17097
1.17234
1.1712
1.16955
1.16652
1.16049
1.15126
1.14284
1.13818
1.13634
1.13527
1.13477
1.13574
1.13752
1.59603
1.57569
1.55616
1.53613
1.51477
1.49051
1.45707
1.39505
1.31704
1.26654
1.25136
1.23897
1.2292
1.22034
1.20858
1.19458
1.17776
1.1536
1.1102
1.05778
1.02842
1.02128
1.01669
1.01054
1.00331
0.995995
0.98656
0.973468
0.951235
0.91274
0.87913
0.861464
0.8542
0.850128
0.84646
0.842132
0.839505
0.838167
0.836355
0.833791
0.826481
0.810389
0.803065
0.806053
0.820948
0.854498
0.911266
0.97949
1.04182
1.08373
1.11674
1.14842
1.16053
1.16005
1.15602
1.1563
1.16713
1.19233
1.21763
1.22982
1.23581
1.23567
1.23082
1.22537
1.22456
1.22611
1.22743
1.22763
1.22607
1.22586
1.22979
1.23406
1.23496
1.23408
1.23096
1.22537
1.222
1.22173
1.22226
1.22491
1.23179
1.23773
1.23771
1.23546
1.23155
1.22552
1.2187
1.21577
1.21487
1.21441
1.21429
1.21517
1.21652
1.21526
1.21305
1.21072
1.20726
1.20239
1.19928
1.19886
1.19857
1.1974
1.1972
1.1984
1.19781
1.19633
1.19313
1.18674
1.17963
1.17495
1.17364
1.1729
1.17266
1.17384
1.1762
1.17614
1.17444
1.17183
1.1676
1.16144
1.15407
1.14731
1.14312
1.14171
1.14096
1.14076
1.14112
1.14106
1.13966
1.65558
1.63776
1.61729
1.59456
1.56886
1.53556
1.48071
1.39931
1.33102
1.30923
1.29725
1.2874
1.27762
1.26562
1.25234
1.23746
1.21798
1.18197
1.11986
1.07239
1.06213
1.05712
1.05504
1.04903
1.03977
1.02964
1.01825
1.00357
0.978047
0.932927
0.899033
0.88806
0.880644
0.876069
0.874958
0.871139
0.864908
0.858411
0.852099
0.843425
0.825587
0.805025
0.799816
0.799328
0.800415
0.809009
0.829109
0.866633
0.917803
0.9716
1.01261
1.05302
1.08853
1.11004
1.12689
1.14211
1.15518
1.18192
1.21118
1.22473
1.23099
1.23273
1.23006
1.2218
1.21282
1.21014
1.21008
1.21146
1.21769
1.22903
1.23707
1.23906
1.23909
1.23371
1.22315
1.21632
1.21499
1.21539
1.21792
1.22531
1.23715
1.24212
1.24149
1.2373
1.22825
1.21732
1.21236
1.21141
1.21137
1.21286
1.21777
1.22412
1.22482
1.22215
1.21718
1.209
1.19934
1.19349
1.19243
1.19388
1.19788
1.20343
1.20677
1.20582
1.20191
1.19566
1.18848
1.18041
1.17327
1.17133
1.17111
1.17328
1.17715
1.18009
1.18028
1.17908
1.17695
1.17317
1.16712
1.1595
1.15274
1.14908
1.1477
1.14695
1.1467
1.14679
1.14584
1.14365
1.13997
1.71884
1.69874
1.67331
1.64593
1.61302
1.5651
1.48902
1.40581
1.36952
1.35647
1.34538
1.33633
1.32556
1.31236
1.29738
1.27871
1.24764
1.18756
1.12614
1.10713
1.10072
1.09461
1.08892
1.08326
1.07501
1.06435
1.05043
1.02756
0.987172
0.945479
0.930991
0.925371
0.917774
0.911089
0.906138
0.900842
0.893689
0.885378
0.875405
0.858012
0.826863
0.807332
0.802902
0.799676
0.800151
0.807835
0.81885
0.825598