/*--------------------------------*- C++ -*----------------------------------*\
  =========                 |
  \\      /  F ield         | OpenFOAM: The Open Source CFD Toolbox
   \\    /   O peration     | Website:  https://openfoam.org
    \\  /    A nd           | Version:  7
     \\/     M anipulation  |
\*---------------------------------------------------------------------------*/
FoamFile
{
    version     2.0;
    format      ascii;
    class       volScalarField;
    location    "2.6";
    object      p;
}
// * * * * * * * * * * * * * * * * * * * * * * * * * * * * * * * * * * * * * //

dimensions      [1 -1 -2 0 0 0 0];

internalField   nonuniform List<scalar> 
16192
(
5.99461
5.98705
6.02656
6.03773
5.99768
5.91572
5.78975
5.70986
5.68732
5.70661
5.78042
5.80604
5.77612
5.71047
5.59836
5.50094
5.45987
5.44075
5.43568
5.43033
5.41042
5.38656
5.36244
5.3439
5.33068
5.32147
5.30334
5.27849
5.23433
5.17458
5.11823
5.08745
5.06947
5.04771
5.01488
4.97258
4.94458
4.92514
4.91141
4.90195
4.88338
4.86185
4.82962
4.77296
4.71075
4.68374
4.67075
4.67346
4.68462
4.67052
4.64658
4.60809
4.54405
4.48555
4.46334
4.45306
4.45731
4.47459
4.46843
4.44691
4.41299
4.353
4.26418
4.19425
4.16626
4.15367
4.14496
4.15277
4.19276
4.22689
4.22018
4.19991
4.16321
4.098
4.0044
3.93447
3.90431
3.89252
3.88405
3.87975
3.88971
3.91628
3.93007
3.92055
3.90521
3.88805
3.8578
3.80695
3.75157
3.71023
3.69477
3.68551
3.67896
3.6735
3.66398
3.65322
3.64172
3.6272
3.6088
3.5901
3.57002
3.54234
3.50375
3.4766
3.46679
3.45855
3.4502
3.44082
3.42971
3.4149
3.39379
3.36546
3.33683
3.32029
3.31209
3.30563
3.30103
3.29965
3.29463
3.287
3.27784
3.2614
3.23005
3.18221
3.13265
3.09608
3.0757
3.06698
3.06197
3.06293
3.08659
3.12034
3.1263
3.11965
3.10831
3.07942
3.01785
2.9471
2.91389
2.9059
2.8996
2.89604
2.90315
2.92498
2.9331
2.9275
2.91912
2.90921
2.89198
2.86639
2.84131
2.81608
2.79373
2.77749
2.7641
2.75067
2.73519
2.72166
2.7155
2.71131
2.71001
2.72404
2.73753
2.73459
2.72939
2.72182
2.70443
2.65851
2.59844
2.56798
2.55863
2.55349
2.54987
2.55337
2.58357
2.60005
2.5959
2.58968
2.58176
2.56396
2.51497
2.45951
2.44182
2.43618
2.43211
2.43009
2.43715
2.4514
2.45549
2.4516
2.44536
2.43496
2.41327
2.38183
2.36213
2.35414
2.34926
2.34539
2.342
2.33837
2.3324
2.3228
2.3085
2.28859
2.27457
2.26885
2.26599
2.26352
2.26106
2.25813
2.25529
2.25249
2.24956
2.24347
2.23132
2.21677
2.20871
2.20623
2.20667
2.21169
2.21582
2.21498
2.21284
2.21062
2.20657
2.19445
2.17011
2.1466
2.13798
2.13545
2.13494
2.14397
2.16157
2.16394
2.16062
2.15574
2.14642
2.12528
2.09277
2.0713
2.06502
2.06214
2.05996
2.06089
2.07424
2.09591
2.10004
2.09613
2.08969
2.07749
2.04257
1.99203
1.9706
6.0478
6.08042
6.09162
6.05353
5.975
5.85063
5.76939
5.7474
5.76626
5.83721
5.85528
5.82212
5.7527
5.63575
5.54294
5.50536
5.49131
5.49423
5.49083
5.46877
5.44331
5.41826
5.39916
5.38413
5.36958
5.34936
5.3203
5.27381
5.21755
5.1625
5.13306
5.11524
5.09413
5.0632
5.01923
4.98701
4.96782
4.95362
4.943
4.92445
4.9024
4.86984
4.81501
4.75782
4.73017
4.71542
4.71286
4.7219
4.7093
4.68692
4.65573
4.59878
4.53304
4.50155
4.48823
4.48597
4.49951
4.4938
4.47394
4.44805
4.39723
4.3068
4.22673
4.18973
4.17578
4.16868
4.18515
4.23436
4.26494
4.25483
4.23379
4.19553
4.12616
4.03091
3.96216
3.92537
3.91007
3.89979
3.89618
3.91325
3.94683
3.96006
3.94981
3.93506
3.91973
3.89032
3.83997
3.7838
3.74419
3.73027
3.72037
3.70907
3.69602
3.68172
3.66959
3.65783
3.64411
3.62906
3.61539
3.60175
3.58255
3.54819
3.5055
3.48615
3.47751
3.47018
3.46174
3.45188
3.44159
3.42781
3.40367
3.37032
3.34436
3.32902
3.31767
3.30924
3.30319
3.30209
3.30364
3.29695
3.28679
3.27083
3.24149
3.19557
3.13909
3.10416
3.09014
3.08058
3.07477
3.07867
3.11105
3.13774
3.13565
3.12536
3.10792
3.07263
3.00824
2.95403
2.93175
2.92331
2.91848
2.91859
2.927
2.92505
2.92027
2.91344
2.90316
2.89068
2.88049
2.87228
2.86091
2.8449
2.81969
2.78919
2.76284
2.74488
2.73162
2.72301
2.71757
2.71346
2.71107
2.7138
2.72953
2.7412
2.73716
2.728
2.71142
2.67363
2.61236
2.57421
2.5621
2.55597
2.55235
2.55244
2.56299
2.58654
2.59599
2.59164
2.58366
2.56881
2.53612
2.49026
2.45808
2.44558
2.44021
2.43706
2.4358
2.43749
2.44272
2.44466
2.44112
2.43471
2.41984
2.39514
2.37167
2.35838
2.3489
2.34174
2.33713
2.33352
2.33212
2.32881
2.322
2.3091
2.28761
2.26913
2.26153
2.25868
2.25455
2.24847
2.24269
2.23948
2.23765
2.23784
2.2349
2.22868
2.2197
2.21158
2.20635
2.20332
2.20203
2.20036
2.19817
2.1957
2.19278
2.18811
2.17695
2.15636
2.13874
2.13401
2.13352
2.13913
2.14794
2.14928
2.14715
2.14387
2.13771
2.12154
2.09191
2.06918
2.06085
2.05729
2.05503
2.05625
2.07349
2.09384
2.09535
2.09154
2.08679
2.0772
2.05242
2.00398
1.96926
6.13405
6.14685
6.111
6.03578
5.91614
5.83226
5.80855
5.82378
5.89184
5.9092
5.8753
5.80594
5.68578
5.58694
5.54739
5.53192
5.53488
5.54167
5.5228
5.49915
5.47498
5.45554
5.43831
5.41966
5.39539
5.3585
5.30885
5.2557
5.20743
5.18225
5.16421
5.14157
5.10642
5.05685
5.02141
5.00272
4.99096
4.98684
4.97037
4.94752
4.91422
4.85569
4.79386
4.76302
4.74921
4.7478
4.76076
4.7529
4.73054
4.69867
4.64071
4.57794
4.54617
4.53179
4.52608
4.53264
4.52276
4.50186
4.47313
4.4223
4.34916
4.27601
4.23711
4.222
4.2139
4.22525
4.27167
4.30611
4.29599
4.272
4.22979
4.15657
4.05981
3.99087
3.95973
3.9467
3.93728
3.93412
3.94682
3.97665
3.98746
3.97642
3.96181
3.94884
3.92033
3.86952
3.81369
3.77607
3.7623
3.75156
3.73957
3.72691
3.71347
3.69882
3.68012
3.66044
3.64376
3.6301
3.61776
3.60517
3.58592
3.5531
3.52164
3.50264
3.48886
3.47918
3.47177
3.46433
3.45442
3.4382
3.41248
3.38692
3.36868
3.35214
3.33519
3.31889
3.30358
3.29232
3.28503
3.27765
3.26881
3.25789
3.23925
3.207
3.17132
3.14399
3.12466
3.11197
3.10515
3.10746
3.11337
3.11246
3.10876
3.09982
3.0806
3.04308
3.00126
2.97717
2.96131
2.94898
2.94546
2.94328
2.93518
2.9254
2.91921
2.91122
2.89807
2.88337
2.87559
2.87135
2.86781
2.86039
2.84334
2.80639
2.76464
2.74341
2.73575
2.72975
2.72319
2.71802
2.71496
2.71762
2.72426
2.72328
2.7199
2.71427
2.70385
2.68145
2.64458
2.60848
2.58247
2.5684
2.56197
2.55934
2.56149
2.56585
2.56884
2.56849
2.56304
2.55421
2.54061
2.51877
2.49541
2.47193
2.45427
2.44552
2.44044
2.43676
2.43415
2.43182
2.42698
2.42217
2.41755
2.40619
2.38594
2.36596
2.3513
2.34241
2.33736
2.33382
2.33037
2.32709
2.32384
2.31846
2.30781
2.2862
2.26354
2.2514
2.24517
2.23863
2.23362
2.23004
2.22774
2.22795
2.23181
2.23192
2.22843
2.22095
2.20827
2.19665
2.19077
2.18798
2.18519
2.18202
2.17908
2.17702
2.17468
2.16746
2.15434
2.14188
2.13769
2.1378
2.13832
2.13601
2.13341
2.1299
2.12384
2.11189
2.09155
2.07089
2.06078
2.05696
2.05492
2.05671
2.06958
2.08164
2.08177
2.07779
2.07318
2.06651
2.05225
2.02092
1.97771
6.20409
6.17012
6.09828
5.98167
5.89473
5.86877
5.87976
5.943
5.96094
5.93037
5.86451
5.74557
5.63952
5.5969
5.57889
5.57428
5.58308
5.57176
5.55113
5.53168
5.51177
5.49231
5.4696
5.43598
5.3929
5.34509
5.29513
5.25266
5.23008
5.21189
5.19057
5.15598
5.10119
5.05733
5.03724
5.02573
5.02702
5.01471
4.99174
4.96175
4.90853
4.84243
4.8029
4.7863
4.78081
4.79507
4.79404
4.77237
4.74325
4.68824
4.61869
4.57632
4.56122
4.5537
4.56189
4.56022
4.54006
4.51301
4.46332
4.37637
4.30086
4.27265
4.26118
4.25458
4.26929
4.31545
4.34157
4.32922
4.30706
4.26749
4.19454
4.09064
4.01905
3.9894
3.97684
3.96754
3.96526
3.98035
4.00877
4.01257
3.99964
3.98606
3.97347
3.9441
3.89701
3.84278
3.80546
3.7936
3.7864
3.77623
3.76274
3.74577
3.72399
3.69795
3.67429
3.65814
3.64811
3.64008
3.6301
3.61438
3.58886
3.55947
3.54101
3.52683
3.51054
3.49062
3.47197
3.45919
3.44459
3.42794
3.41297
3.40132
3.38983
3.37577
3.35717
3.3349
3.31351
3.29485
3.27967
3.26725
3.25282
3.23576
3.21812
3.20144
3.18934
3.17787
3.16747
3.15977
3.15057
3.13695
3.12078
3.1074
3.09424
3.07462
3.04193
3.00903
2.99932
2.99754
2.99711
2.99244
2.98104
2.96283
2.9455
2.93412
2.92091
2.90622
2.89129
2.88301
2.87679
2.87212
2.86786
2.86205
2.85215
2.82525
2.77906
2.75308
2.74516
2.73885
2.73245
2.72727
2.72554
2.7243
2.71844
2.71157
2.70411
2.69515
2.68246
2.66915
2.6552
2.63851
2.62047
2.59995
2.58138
2.57207
2.56657
2.56141
2.55508
2.54929
2.54268
2.53484
2.53004
2.52605
2.51837
2.50574
2.48618
2.46256
2.44714
2.43834
2.43146
2.42599
2.41945
2.41156
2.40398
2.39803
2.39046
2.37798
2.36403
2.34999
2.3404
2.33515
2.33148
2.32881
2.32666
2.32279
2.31616
2.30095
2.27126
2.24609
2.23679
2.23243
2.22854
2.22516
2.22314
2.22568
2.23037
2.23112
2.22855
2.22435
2.21482
2.1966
2.18002
2.17407
2.17158
2.16922
2.16681
2.16501
2.16553
2.16647
2.16438
2.15805
2.14577
2.13292
2.12614
2.12261
2.11895
2.11387
2.10694
2.09961
2.09172
2.08199
2.07013
2.06269
2.06005
2.06176
2.06785
2.07035
2.06816
2.064
2.05904
2.05271
2.04414
2.02939
2.00417
6.22899
6.16078
6.04855
5.95652
5.92769
5.93396
5.99591
6.02067
5.99018
5.92403
5.80638
5.69492
5.64927
5.62735
5.61415
5.6207
5.63125
5.61837
5.5991
5.57772
5.55243
5.51502
5.46535
5.41672
5.37355
5.3333
5.30297
5.28376
5.26517
5.2408
5.19839
5.14004
5.09556
5.07475
5.06208
5.06557
5.06312
5.04016
5.00635
4.9473
4.8833
4.84749
4.83044
4.82316
4.83546
4.83534
4.81469
4.78622
4.7334
4.66563
4.61771
4.59957
4.58852
4.58976
4.58622
4.56705
4.54504
4.505
4.43477
4.35325
4.3012
4.28319
4.27404
4.29036
4.34658
4.38127
4.37005
4.34522
4.30127
4.22705
4.13271
4.06433
4.0307
4.01567
4.00521
4.00211
4.01641
4.04295
4.0435
4.0293
4.01421
3.99794
3.96487
3.91481
3.86313
3.83261
3.82163
3.81574
3.80815
3.79638
3.78124
3.75964
3.72947
3.69898
3.67968
3.66699
3.65385
3.6394
3.62245
3.60394
3.58572
3.57339
3.56315
3.5502
3.53244
3.50918
3.48426
3.46258
3.44408
3.4258
3.41621
3.40949
3.4018
3.39138
3.37608
3.35312
3.32489
3.29713
3.2731
3.25418
3.2375
3.21911
3.20655
3.20129
3.20042
3.2056
3.20859
3.2036
3.19182
3.17122
3.14148
3.10639
3.06833
3.02903
3.00634
2.99957
2.99968
3.01208
3.02329
3.02035
3.0114
2.99507
2.96641
2.93217
2.90899
2.89646
2.8898
2.88602
2.88428
2.87959
2.87332
2.86653
2.85647
2.83683
2.80655
2.77529
2.75774
2.75008
2.7441
2.73763
2.72986
2.72177
2.7141
2.70572
2.69389
2.67869
2.66277
2.65366
2.6495
2.6469
2.64162
2.6328
2.6177
2.59415
2.57214
2.55866
2.54802
2.53506
2.52476
2.52022
2.52066
2.52592
2.52458
2.51995
2.51212
2.49559
2.46847
2.44684
2.4345
2.42339
2.41247
2.40168
2.39255
2.38669
2.38313
2.38078
2.37574
2.36701
2.35311
2.3414
2.33543
2.33095
2.3268
2.32269
2.31744
2.30678
2.28093
2.24732
2.23415
2.23023
2.22717
2.22568
2.22831
2.23268
2.23592
2.23485
2.23079
2.22595
2.21696
2.19772
2.17346
2.16242
2.15981
2.15825
2.15738
2.15724
2.15972
2.16444
2.16461
2.16186
2.15385
2.13577
2.11773
2.10876
2.10271
2.09627
2.09033
2.08736
2.0859
2.08386
2.07984
2.07667
2.07183
2.0648
2.05821
2.05533
2.05231
2.04851
2.04407
2.03846
2.0316
2.02579
2.0171
6.21739
6.10276
6.0164
5.98726
5.98869
6.04386
6.07558
6.04961
5.99116
5.87307
5.73968
5.68566
5.66413
5.64877
5.65035
5.67392
5.68261
5.66567
5.64357
5.61253
5.56102
5.49945
5.44328
5.40029
5.36815
5.34629
5.331
5.31449
5.29119
5.24672
5.18092
5.12951
5.10768
5.09545
5.10179
5.10447
5.08252
5.05109
4.99624
4.92524
4.87839
4.86004
4.85292
4.87049
4.88126
4.86304
4.83327
4.77616
4.69976
4.65158
4.63425
4.62403
4.62528
4.6211
4.60255
4.57819
4.53417
4.4672
4.39521
4.35195
4.33607
4.32642
4.33492
4.37812
4.40807
4.39664
4.37689
4.34048
4.26846
4.16439
4.0969
4.07182
4.06072
4.05193
4.04939
4.0629
4.08393
4.08038
4.06513
4.04863
4.02659
3.98688
3.93363
3.88562
3.85424
3.84243
3.83724
3.83543
3.82581
3.81248
3.79486
3.76504
3.7287
3.70394
3.68919
3.67699
3.66531
3.64818
3.6236
3.60076
3.5903
3.58375
3.57698
3.56745
3.55306
3.52768
3.48823
3.45295
3.43766
3.43055
3.42487
3.41957
3.41261
3.40308
3.3892
3.36559
3.33228
3.30007
3.27177
3.24474
3.22388
3.21216
3.20628
3.20408
3.21321
3.23139
3.23877
3.23469
3.22482
3.20373
3.15578
3.08722
3.03211
3.00975
3.00123
2.99625
2.99911
3.02536
3.04046
3.03656
3.02902
3.01622
2.98423
2.9346
2.90617
2.89727
2.89094
2.88423
2.87676
2.86893
2.86062
2.85166
2.8429
2.83479
2.82283
2.80345
2.78216
2.76709
2.75638
2.74614
2.73476
2.72333
2.71251
2.69799
2.67882
2.66178
2.6532
2.64935
2.64753
2.6501
2.6537
2.64987
2.64188
2.62613
2.59582
2.56211
2.53629
2.5206
2.51359
2.51039
2.51171
2.52195
2.52864
2.52718
2.52315
2.5162
2.49873
2.46341
2.43008
2.4122
2.40218
2.39481
2.38896
2.38403
2.38142
2.38044
2.378
2.37415
2.36648
2.3539
2.34195
2.33359
2.32672
2.32057
2.31454
2.30713
2.29288
2.26537
2.23988
2.23215
2.22877
2.22552
2.22249
2.22079
2.22081
2.22138
2.21912
2.21535
2.21028
2.19711
2.1735
2.15806
2.15231
2.14981
2.14867
2.151
2.16013
2.16242
2.16234
2.16091
2.15612
2.14034
2.11154
2.09192
2.08483
2.08116
2.07904
2.07746
2.07682
2.08056
2.08721
2.08777
2.08268
2.07094
2.05475
2.04286
2.03716
2.03188
2.02684
2.02419
2.0222
2.01983
2.018
6.16679
6.07133
6.03843
6.04032
6.09825
6.13504
6.10843
6.04701
5.93667
5.80335
5.73262
5.70344
5.68257
5.68154
5.71633
5.743
5.72775
5.70385
5.66519
5.60174
5.5275
5.4707
5.43877
5.41632
5.40072
5.3872
5.36812
5.34118
5.29214
5.22527
5.17192
5.14933
5.13725
5.14536
5.15128
5.12951
5.09384
5.03806
4.97154
4.92666
4.90726
4.89744
4.90996
4.92222
4.90547
4.87903
4.82803
4.75201
4.68771
4.66247
4.6494
4.65026
4.65576
4.63979
4.61854
4.58084
4.50731
4.42675
4.38087
4.36599
4.35936
4.3741
4.41872
4.4407
4.42712
4.40271
4.3607
4.29366
4.20864
4.14333
4.1095
4.09494
4.08442
4.08279
4.1007
4.12371
4.11941
4.1045
4.08755
4.06256
4.01803
3.95737
3.90711
3.87682
3.86544
3.85947
3.85631
3.84926
3.84119
3.82819
3.80279
3.76764
3.73928
3.72055
3.70272
3.68294
3.66195
3.64242
3.62251
3.60975
3.60091
3.59288
3.58581
3.57722
3.56541
3.54185
3.49642
3.45668
3.44094
3.43314
3.4282
3.42492
3.41858
3.41072
3.39807
3.37348
3.3414
3.30813
3.27489
3.24514
3.22672
3.21791
3.2123
3.21
3.22201
3.25015
3.26046
3.25456
3.24235
3.21451
3.1521
3.07105
3.02604
3.01035
3.00419
3.00066
3.00774
3.03109
3.04623
3.04412
3.03766
3.02641
2.99649
2.94289
2.9106
2.90038
2.89269
2.88478
2.87675
2.86864
2.8599
2.84971
2.84014
2.83373
2.82884
2.82103
2.80717
2.7897
2.77222
2.75724
2.74374
2.7296
2.71057
2.6864
2.66656
2.65633
2.65134
2.64766
2.64781
2.65781
2.66462
2.66046
2.65341
2.64269
2.61633
2.56822
2.5303
2.5148
2.50888
2.50529
2.50561
2.52426
2.53547
2.53399
2.52975
2.52412
2.51268
2.48034
2.4331
2.4084
2.3992
2.3938
2.38927
2.38602
2.38294
2.37872
2.37416
2.36945
2.3653
2.36017
2.3505
2.33876
2.32931
2.32105
2.31315
2.30564
2.29766
2.28294
2.25566
2.23651
2.23012
2.22565
2.22151
2.21822
2.2161
2.21375
2.21007
2.20584
2.20082
2.19327
2.17761
2.15985
2.15072
2.14686
2.14506
2.14457
2.14794
2.15857
2.161
2.15845
2.15297
2.13786
2.10546
2.07967
2.07307
2.07083
2.0692
2.06832
2.07047
2.0819
2.09135
2.09026
2.08567
2.0768
2.05738
2.03311
2.02042
2.01427
2.01055
2.00909
2.01322
2.01901
2.01877
6.12915
6.09853
6.0963
6.15022
6.19376
6.16946
6.1109
5.99149
5.83385
5.76764
5.74482
5.73057
5.73706
5.78009
5.81701
5.80541
5.77292
5.71198
5.62796
5.54641
5.49515
5.46718
5.44951
5.44727
5.44578
5.4268
5.39601
5.33395
5.25851
5.20934
5.18814
5.17665
5.18648
5.19748
5.17837
5.143
5.07941
5.00306
4.96084
4.94317
4.93457
4.95051
4.96927
4.95453
4.92499
4.86976
4.7913
4.72883
4.70416
4.68998
4.68721
4.68803
4.67158
4.65157
4.61663
4.55861
4.48447
4.4267
4.4072
4.39902
4.41033
4.45501
4.47842
4.46472
4.44158
4.4001
4.32338
4.22705
4.17103
4.15003
4.14037
4.13308
4.13308
4.14901
4.16536
4.1582
4.14305
4.12625
4.10081
4.05501
3.99269
3.93987
3.90533
3.8912
3.8824
3.87646
3.87
3.86131
3.84356
3.81866
3.7929
3.77177
3.75773
3.74261
3.7228
3.69613
3.66242
3.63681
3.62639
3.61916
3.61197
3.60237
3.59232
3.5825
3.57101
3.5517
3.51915
3.48449
3.45825
3.44011
3.42858
3.42149
3.41352
3.40296
3.38971
3.37299
3.349
3.31862
3.28532
3.25892
3.24384
3.23366
3.22724
3.22707
3.24688
3.26861
3.26809
3.25865
3.24332
3.21056
3.1435
3.07577
3.0433
3.02847
3.02087
3.01893
3.03058
3.0496
3.0523
3.04904
3.04118
3.02798
3.00207
2.96384
2.93088
2.90974
2.89741
2.88829
2.88022
2.87276
2.86502
2.85627
2.84669
2.83612
2.82715
2.8217
2.81562
2.80463
2.78882
2.77162
2.7536
2.73224
2.70645
2.68079
2.66539
2.65812
2.65246
2.64838
2.64859
2.65965
2.66707
2.66394
2.65753
2.64898
2.62758
2.57663
2.53212
2.51817
2.51155
2.50719
2.50516
2.50958
2.53012
2.53682
2.53289
2.52683
2.51657
2.49158
2.44925
2.41569
2.40223
2.39517
2.39022
2.38765
2.38711
2.38345
2.37899
2.3745
2.36982
2.36393
2.35495
2.34422
2.3345
2.32522
2.31636
2.30805
2.30035
2.29103
2.27216
2.24536
2.23233
2.2273
2.22371
2.21926
2.21378
2.20864
2.20392
2.19866
2.19234
2.18672
2.1801
2.16893
2.15703
2.14954
2.14585
2.14389
2.14393
2.14537
2.14598
2.14474
2.14187
2.13199
2.10494
2.07706
2.06673
2.06314
2.06121
2.06054
2.06631
2.08404
2.09199
2.08955
2.08485
2.0773
2.06034
2.02881
2.00686
2.00141
1.99904
1.99748
2.00067
2.01602
2.02071
6.14441
6.14621
6.20501
6.24627
6.22231
6.16555
6.05813
5.90604
5.80526
5.76545
5.7452
5.75765
5.82857
5.88477
5.87362
5.83967
5.7737
5.67158
5.57022
5.52021
5.49544
5.48392
5.49439
5.49735
5.47814
5.44625
5.38835
5.31127
5.24764
5.22294
5.213
5.22788
5.24027
5.2214
5.18531
5.12842
5.05753
4.99931
4.97509
4.96366
4.97932
5.00894
4.99855
4.97291
4.92011
4.83305
4.7615
4.73167
4.71824
4.71563
4.72433
4.71246
4.69091
4.65561
4.59025
4.51368
4.47285
4.45787
4.44915
4.45758
4.49428
4.50965
4.49486
4.47256
4.43088
4.36056
4.27606
4.21433
4.18066
4.16714
4.15862
4.16276
4.18673
4.20224
4.19368
4.17873
4.16304
4.13736
4.09289
4.03351
3.97709
3.94048
3.92642
3.91701
3.90776
3.89677
3.88378
3.86055
3.8313
3.80541
3.79107
3.78234
3.77261
3.75937
3.7395
3.70533
3.66453
3.64287
3.63213
3.62266
3.61545
3.61044
3.60098
3.58916
3.57266
3.55277
3.53282
3.51308
3.49045
3.46368
3.43845
3.41792
3.40261
3.38819
3.37331
3.35883
3.34449
3.32592
3.30284
3.28309
3.269
3.25888
3.25277
3.25446
3.25548
3.24793
3.24066
3.23184
3.21363
3.17697
3.13163
3.09866
3.07886
3.06211
3.05093
3.04957
3.05092
3.04399
3.03521
3.02702
3.01749
3.0039
2.98859
2.97226
2.9535
2.93403
2.91267
2.89573
2.88514
2.87794
2.87219
2.86596
2.85732
2.84524
2.83221
2.82142
2.81336
2.80626
2.79661
2.78125
2.76006
2.73354
2.70569
2.68506
2.67357
2.66498
2.65793
2.6535
2.65193
2.65734
2.66567
2.66553
2.66079
2.65233
2.6332
2.59385
2.55466
2.53429
2.52257
2.51468
2.51036
2.51104
2.51583
2.51624
2.51267
2.50835
2.50154
2.49037
2.46851
2.4428
2.41971
2.40428
2.39451
2.38651
2.37942
2.37387
2.36918
2.36443
2.35921
2.35412
2.35035
2.34676
2.34155
2.33395
2.32558
2.31762
2.30847
2.29718
2.28156
2.26075
2.24077
2.22939
2.22219
2.21617
2.21069
2.20526
2.19915
2.19264
2.18598
2.18014
2.17669
2.17383
2.16902
2.16127
2.15306
2.14669
2.14083
2.13622
2.13314
2.12987
2.12537
2.11751
2.10179
2.08023
2.06549
2.05997
2.05755
2.05686
2.06104
2.07244
2.07988
2.07964
2.07665
2.07146
2.05825
2.02891
2.00122
1.99258
1.99064
1.98948
1.99186
2.00476
2.01448
6.21031
6.26672
6.31068
6.28418
6.21974
6.09619
5.92971
5.85304
5.82749
5.81182
5.8307
5.90194
5.95153
5.93663
5.89487
5.81838
5.70928
5.60522
5.55998
5.53651
5.52733
5.54589
5.55716
5.53782
5.49643
5.42051
5.33874
5.29491
5.27449
5.26373
5.27811
5.29241
5.27364
5.23317
5.16006
5.07825
5.04087
5.02341
5.01234
5.02658
5.0533
5.04315
5.01569
4.96147
4.8833
4.80744
4.76945
4.75424
4.74813
4.75552
4.74599
4.72619
4.6958
4.63775
4.56317
4.5063
4.48383
4.4752
4.48925
4.53384
4.55101
4.53552
4.50805
4.4604
4.38599
4.3032
4.25041
4.22632
4.21456
4.20604
4.2076
4.22637
4.23557
4.22396
4.20935
4.19676
4.17041
4.12512
4.06596
4.01565
3.98372
3.96909
3.9573
3.94408
3.92889
3.9099
3.88046
3.84867
3.82256
3.80794
3.79887
3.79155
3.78161
3.76808
3.74842
3.71127
3.67278
3.6557
3.64436
3.63305
3.62271
3.61324
3.603
3.59085
3.57475
3.55582
3.54442
3.53425
3.51903
3.48997
3.44702
3.41074
3.3894
3.37444
3.36156
3.34961
3.33599
3.32
3.31149
3.30362
3.29702
3.29391
3.28876
3.27737
3.26181
3.24863
3.23292
3.2087
3.17217
3.13399
3.11799
3.11338
3.10912
3.10552
3.09763
3.08276
3.0626
3.04627
3.03629
3.02316
3.00517
2.98555
2.97255
2.96616
2.96069
2.9518
2.93636
2.91598
2.89966
2.88872
2.8793
2.87069
2.86029
2.84733
2.83409
2.82332
2.81473
2.80666
2.79887
2.78732
2.76246
2.73156
2.71126
2.69937
2.68872
2.6785
2.66944
2.66294
2.66008
2.65905
2.6525
2.64587
2.63977
2.63208
2.6195
2.5997
2.57582
2.55901
2.54543
2.53306
2.52525
2.51862
2.5125
2.50894
2.50333
2.49457
2.48459
2.47522
2.46914
2.46001
2.44571
2.42508
2.40269
2.38737
2.37776
2.37118
2.3664
2.3624
2.35836
2.35378
2.34916
2.34517
2.34284
2.33941
2.3334
2.3202
2.30199
2.28897
2.28067
2.27168
2.2572
2.23767
2.22328
2.2149
2.20868
2.20305
2.1967
2.18878
2.1831
2.17958
2.17691
2.17511
2.17294
2.16891
2.16156
2.15103
2.14026
2.13164
2.12487
2.11734
2.10803
2.09894
2.09214
2.08392
2.07318
2.06374
2.05963
2.05852
2.06159
2.06735
2.06834
2.06638
2.06335
2.05926
2.05083
2.03046
2.00272
1.98927
1.9853
1.98393
1.98642
1.99803
2.00336
6.32422
6.36584
6.33988
6.28059
6.16781
5.99883
5.88719
5.84787
5.83596
5.87503
5.97407
6.02977
6.01101
5.95926
5.86515
5.72585
5.62789
5.58956
5.56875
5.56578
5.59411
5.6092
5.59054
5.55272
5.48184
5.3901
5.32627
5.30206
5.29472
5.31693
5.33363
5.31783
5.28207
5.21767
5.13228
5.07085
5.0447
5.03396
5.05749
5.10006
5.0943
5.06693
5.00976
4.9135
4.83814
4.80919
4.79471
4.78886
4.79725
4.79096
4.76904
4.73362
4.67493
4.60556
4.55394
4.53401
4.52415
4.53184
4.56968
4.58598
4.57253
4.54831
4.50155
4.41882
4.33676
4.28639
4.25984
4.24873
4.24383
4.25196
4.2681
4.26579
4.25099
4.23676
4.22258
4.1933
4.14984
4.09527
4.04946
4.02336
4.01317
4.00456
3.99054
3.97124
3.94441
3.90868
3.87482
3.84511
3.82868
3.81876
3.81051
3.80101
3.79017
3.77813
3.75523
3.72187
3.69354
3.67266
3.6548
3.64079
3.62961
3.61877
3.606
3.58961
3.57741
3.56954
3.56302
3.55278
3.53771
3.5059
3.45218
3.41028
3.38754
3.37177
3.35769
3.34218
3.3307
3.32449
3.32117
3.32232
3.32711
3.32517
3.31648
3.30271
3.28192
3.25172
3.21093
3.16336
3.13176
3.12058
3.11717
3.1216
3.13755
3.14285
3.13566
3.12116
3.09605
3.06219
3.03034
3.00645
2.98784
2.97581
2.96982
2.96515
2.9619
2.95798
2.95129
2.94002
2.92057
2.9018
2.88898
2.8766
2.86282
2.8491
2.83954
2.8314
2.8226
2.81227
2.79861
2.77698
2.74707
2.7247
2.71585
2.70817
2.70038
2.69431
2.68889
2.68212
2.67299
2.66214
2.65099
2.64025
2.62847
2.61389
2.59932
2.58727
2.57937
2.5723
2.56536
2.55749
2.54672
2.53128
2.51442
2.50129
2.49358
2.48386
2.47559
2.4699
2.46565
2.46296
2.45766
2.4478
2.42495
2.39607
2.38011
2.37184
2.36629
2.36187
2.35801
2.3556
2.35478
2.35345
2.35067
2.34625
2.33833
2.32228
2.30137
2.2884
2.28176
2.27566
2.26691
2.25015
2.22852
2.21735
2.2124
2.2072
2.20067
2.19283
2.18583
2.1813
2.17696
2.17211
2.1676
2.16463
2.16152
2.15485
2.14327
2.13096
2.11775
2.10414
2.09185
2.0845
2.08123
2.08005
2.07744
2.07322
2.0703
2.06613
2.0603
2.05725
2.05519
2.05257
2.04912
2.04467
2.03858
2.02856
2.012
1.99288
1.98382
1.98138
1.9815
1.98748
1.99199
6.42759
6.39837
6.33294
6.21008
6.04078
5.95104
5.92068
5.90783
5.94436
6.03791
6.08266
6.06397
6.01726
5.92733
5.78725
5.6705
5.61997
5.6007
5.60557
5.64713
5.66347
5.64273
5.59778
5.519
5.43145
5.38029
5.35912
5.35113
5.36997
5.38193
5.36128
5.31736
5.24543
5.16296
5.11797
5.09754
5.08624
5.10313
5.13947
5.13372
5.10956
5.05768
4.97079
4.88562
4.84004
4.82195
4.8141
4.8286
4.83317
4.81514
4.78637
4.72371
4.63958
4.58967
4.57175
4.56367
4.57303
4.60931
4.61847
4.60155
4.57433
4.52497
4.45084
4.37671
4.32698
4.30591
4.29547
4.2926
4.3034
4.31526
4.30735
4.29022
4.27182
4.24846
4.21149
4.16375
4.11215
4.07646
4.05798
4.04973
4.04566
4.0351
4.01846
3.99259
3.95216
3.90626
3.87114
3.85558
3.84519
3.83443
3.82279
3.81021
3.79522
3.77255
3.74438
3.72026
3.7051
3.69068
3.6735
3.65242
3.63
3.61235
3.59935
3.58983
3.58314
3.57856
3.57449
3.56675
3.55077
3.51808
3.46634
3.41977
3.39163
3.37116
3.35319
3.34071
3.33331
3.32785
3.32807
3.34082
3.34976
3.34606
3.33737
3.32379
3.29335
3.23592
3.17111
3.13727
3.12451
3.11961
3.11817
3.13454
3.1607
3.16322
3.15559
3.14473
3.123
3.07592
3.02285
2.99407
2.98118
2.97445
2.96945
2.96764
2.96965
2.96776
2.96242
2.95537
2.94242
2.91607
2.88334
2.86419
2.85634
2.8511
2.84568
2.83912
2.83117
2.82056
2.80381
2.77482
2.7398
2.72313
2.71704
2.71202
2.70926
2.70845
2.70468
2.6974
2.68705
2.67226
2.65512
2.63725
2.61639
2.59617
2.58464
2.57942
2.57757
2.58143
2.58112
2.57422
2.56507
2.54957
2.52346
2.49592
2.48092
2.47604
2.47373
2.47423
2.47526
2.47231
2.46572
2.45714
2.4417
2.4184
2.39264
2.37734
2.37039
2.36579
2.36153
2.3571
2.35216
2.34687
2.34026
2.33227
2.32298
2.31285
2.30129
2.29318
2.2869
2.2803
2.27315
2.26273
2.24389
2.22119
2.20762
2.20054
2.19495
2.18968
2.18495
2.18086
2.17666
2.17246
2.16883
2.16501
2.16048
2.15487
2.14478
2.12523
2.10441
2.09212
2.08486
2.08049
2.07792
2.07618
2.07645
2.07762
2.07558
2.06966
2.05808
2.04784
2.04412
2.04122
2.03726
2.03177
2.02643
2.02232
2.01648
2.00638
1.99184
1.98141
1.97795
1.97742
1.97818
6.45621
6.39404
6.27667
6.10397
5.99489
5.95938
5.9544
6.00772
6.10975
6.1443
6.11686
6.05808
5.95413
5.80198
5.70689
5.67711
5.65836
5.66296
5.70714
5.72313
5.69928
5.64895
5.56129
5.46964
5.41513
5.39586
5.3939
5.41929
5.4302
5.4106
5.36516
5.28273
5.19348
5.14294
5.12169
5.11685
5.14887
5.19185
5.18444
5.15235
5.09168
4.99804
4.9171
4.88297
4.86672
4.85807
4.86925
4.87206
4.85392
4.82458
4.77003
4.69893
4.63826
4.61134
4.60074
4.60705
4.64492
4.66033
4.64321
4.61257
4.55654
4.46732
4.39165
4.35901
4.3444
4.33536
4.33478
4.35018
4.36222
4.35257
4.33535
4.31513
4.28431
4.2373
4.18026
4.13167
4.09826
4.08018
4.07306
4.0732
4.06849
4.05399
4.03686
4.00435
3.95234
3.909
3.88933
3.87644
3.86428
3.85212
3.83797
3.82062
3.79656
3.76674
3.74143
3.72868
3.71751
3.70427
3.68653
3.66114
3.63406
3.6155
3.60377
3.59498
3.58758
3.58145
3.57287
3.55926
3.53968
3.5138
3.48207
3.44676
3.40764
3.37731
3.36016
3.35015
3.34255
3.33702
3.3384
3.35399
3.36105
3.35616
3.34892
3.33204
3.28789
3.21205
3.15708
3.13517
3.12767
3.12311
3.12762
3.15111
3.1701
3.17081
3.16431
3.15559
3.13664
3.0872
3.02364
2.99452
2.98438
2.9772
2.97126
2.97005
2.97811
2.97898
2.97424
2.96776
2.9562
2.92804
2.88379
2.86149
2.85369
2.84758
2.84315
2.84069
2.83492
2.8259
2.80935
2.77436
2.74004
2.72965
2.72385
2.71938
2.71784
2.71781
2.7135
2.707
2.69892
2.6862
2.66317
2.62909
2.6009
2.5872
2.5815
2.57754
2.579
2.59023
2.59137
2.58439
2.57627
2.56342
2.53564
2.49991
2.48145
2.47352
2.46849
2.46371
2.45954
2.45623
2.45273
2.44809
2.4437
2.43498
2.41891
2.39675
2.37954
2.37102
2.36507
2.35995
2.35534
2.34959
2.34094
2.3263
2.31072
2.30362
2.3006
2.29747
2.29311
2.28737
2.28068
2.27225
2.2566
2.22927
2.20847
2.19909
2.19263
2.1879
2.18419
2.18165
2.17908
2.17542
2.17207
2.16811
2.16297
2.15443
2.13694
2.11123
2.09237
2.08517
2.0825
2.0802
2.07847
2.07818
2.07964
2.07824
2.07523
2.06943
2.05696
2.04336
2.03516
2.03034
2.0253
2.01971
2.01615
2.01377
2.01325
2.01077
2.00484
1.99325
1.97717
1.96789
1.96642
6.44872
6.32727
6.15778
6.06219
6.03022
6.02333
6.07368
6.17398
6.20059
6.17105
6.11493
6.0037
5.84408
5.74043
5.69945
5.68458
5.70276
5.76041
5.77641
5.75369
5.70218
5.61673
5.51955
5.46429
5.44611
5.44662
5.4754
5.4821
5.4586
5.40841
5.33093
5.24396
5.18663
5.164
5.15729
5.18598
5.23318
5.23135
5.20331
5.14443
5.03994
4.95103
4.90846
4.89145
4.88529
4.90503
4.91834
4.9015
4.87076
4.80862
4.72241
4.675
4.65936
4.64951
4.6535
4.68561
4.69622
4.67869
4.64926
4.59355
4.50365
4.42811
4.38529
4.36644
4.35671
4.35975
4.3864
4.40407
4.3953
4.37852
4.35881
4.32571
4.27277
4.20921
4.15915
4.12284
4.10511
4.09675
4.09403
4.09014
4.07899
4.06663
4.04066
3.99962
3.95795
3.93602
3.92004
3.9028
3.88521
3.86898
3.8546
3.83177
3.79587
3.76334
3.74994
3.73941
3.7277
3.71431
3.69543
3.66832
3.64341
3.62798
3.61611
3.60455
3.59475
3.58481
3.56624
3.54069
3.51816
3.50128
3.48772
3.46881
3.4361
3.39867
3.3799
3.36934
3.3617
3.35744
3.36134
3.37234
3.36905
3.35951
3.345
3.31971
3.26538
3.19793
3.16411
3.15213
3.14375
3.13979
3.148
3.17282
3.18199
3.17813
3.1713
3.16009
3.1392
3.09933
3.05128
3.01637
2.9972
2.98765
2.98175
2.97823
2.97783
2.97945
2.9761
2.96997
2.96018
2.93694
2.89815
2.87013
2.85721
2.84811
2.84073
2.83463
2.83063
2.8252
2.81352
2.7883
2.75802
2.74058
2.73283
2.72737
2.72393
2.72152
2.71812
2.71375
2.70637
2.69233
2.66447
2.62392
2.59672
2.58812
2.5827
2.57835
2.58032
2.59244
2.59346
2.58804
2.58162
2.57199
2.55262
2.51741
2.48756
2.47423
2.46639
2.46086
2.45615
2.45181
2.44851
2.44362
2.4381
2.43395
2.42936
2.42167
2.40612
2.38586
2.37077
2.35992
2.34977
2.34043
2.3294
2.3154
2.30503
2.3003
2.29657
2.29467
2.29618
2.29397
2.28909
2.28267
2.26896
2.23908
2.21219
2.20154
2.19501
2.18946
2.18509
2.18165
2.17915
2.17848
2.17704
2.17338
2.16729
2.15565
2.13044
2.09917
2.08619
2.08335
2.08129
2.07994
2.0804
2.08325
2.08224
2.07948
2.07613
2.071
2.06031
2.041
2.0234
2.01571
2.01265
2.01056
2.00913
2.00902
2.01095
2.01186
2.00908
2.00283
1.98667
1.9638
1.9539
6.38865
6.22132
6.11754
6.08416
6.08052
6.13551
6.22957
6.24776
6.21758
6.1573
6.0492
5.89597
5.79213
5.75832
5.74443
5.76357
5.8221
5.83285
5.80401
5.74416
5.64771
5.5606
5.51807
5.49998
5.49919
5.52626
5.5316
5.5083
5.45626
5.3618
5.27155
5.23406
5.2157
5.20872
5.23618
5.27741
5.26847
5.23574
5.176
5.08612
4.99983
4.95162
4.9337
4.92628
4.94203
4.95741
4.94175
4.91328
4.85665
4.77519
4.71232
4.68379
4.67148
4.67709
4.71944
4.73811
4.7206
4.68828
4.62842
4.5387
4.46339
4.42105
4.4038
4.39293
4.39166
4.41317
4.43588
4.42899
4.41344
4.39856
4.36667
4.31291
4.24935
4.19574
4.15569
4.13657
4.12646
4.11917
4.10931
4.09769
4.08482
4.05954
4.02532
3.99151
3.9779
3.96746
3.9534
3.93462
3.91093
3.8845
3.85478
3.82534
3.79632
3.77951
3.76631
3.75171
3.73606
3.71902
3.69919
3.67705
3.6575
3.64232
3.63054
3.62111
3.60497
3.57921
3.54927
3.52374
3.50599
3.49561
3.48786
3.47812
3.45829
3.4269
3.40316
3.39094
3.38469
3.38394
3.38019
3.37094
3.35912
3.34585
3.32578
3.28863
3.23696
3.19937
3.18575
3.17622
3.16857
3.16714
3.17752
3.17962
3.17249
3.16239
3.15177
3.13655
3.11659
3.09613
3.07629
3.05631
3.03072
3.00694
2.99606
2.9912
2.99034
2.98775
2.97967
2.96949
2.95717
2.93911
2.91219
2.88886
2.87074
2.85576
2.84385
2.83353
2.82309
2.81297
2.8049
2.79623
2.78111
2.76411
2.75037
2.74011
2.73116
2.72252
2.71552
2.71013
2.70444
2.69286
2.66426
2.62425
2.60417
2.59522
2.58811
2.58345
2.58497
2.58914
2.58761
2.5852