/*--------------------------------*- C++ -*----------------------------------*\
  =========                 |
  \\      /  F ield         | OpenFOAM: The Open Source CFD Toolbox
   \\    /   O peration     | Website:  https://openfoam.org
    \\  /    A nd           | Version:  7
     \\/     M anipulation  |
\*---------------------------------------------------------------------------*/
FoamFile
{
    version     2.0;
    format      ascii;
    class       volScalarField;
    location    "2.2";
    object      rho;
}
// * * * * * * * * * * * * * * * * * * * * * * * * * * * * * * * * * * * * * //

dimensions      [1 -3 0 0 0 0 0];

internalField   nonuniform List<scalar> 
4128
(
0.923183
0.923352
0.923841
0.924788
0.925771
0.925631
0.924516
0.920815
0.9158
0.913913
0.913494
0.914485
0.91749
0.919994
0.921446
0.922006
0.921503
0.91972
0.914831
0.907255
0.902716
0.90195
0.955445
2.01309
2.61006
2.63004
2.62812
2.61285
2.58979
2.57225
2.56783
2.58074
2.60391
2.62234
2.62907
2.62212
2.60385
2.58052
2.55627
2.53347
2.5144
2.50147
2.4965
2.5004
2.50973
2.51235
2.49922
2.48051
2.46172
2.44675
2.43719
2.43555
2.43879
2.43928
2.43331
2.42467
2.41765
2.41393
2.41316
2.4128
2.41136
2.40917
2.40702
2.40693
2.41297
2.42623
2.4351
2.42993
2.4168
2.39566
2.37733
2.36778
2.36444
2.37327
2.38418
2.383
2.3762
2.36858
2.36154
2.35525
2.34936
2.34326
2.33824
2.33247
2.32607
2.32023
2.31463
2.30745
2.29945
2.29002
2.27988
2.2721
2.26611
2.2632
2.26429
2.26777
2.26996
2.26926
2.26475
2.25749
2.24572
2.22419
2.20271
2.19043
2.18301
2.17756
2.17391
2.17231
2.17224
2.17355
2.17654
2.18055
2.18405
2.18546
2.18368
2.17962
2.17383
2.16596
2.15493
2.14271
2.13106
2.11992
2.10938
2.1005
2.09417
2.08997
2.08836
2.09057
2.09519
0.926839
0.925342
0.924537
0.924065
0.923594
0.923237
0.922986
0.922915
0.922555
0.921712
0.920913
0.920814
0.921118
0.921066
0.920772
0.92051
0.919658
0.917814
0.915443
0.912424
0.909663
0.918826
1.01664
1.98326
2.64919
2.67811
2.64402
2.62865
2.62123
2.6115
2.60002
2.59937
2.61034
2.62647
2.63738
2.63502
2.61921
2.5975
2.57667
2.55939
2.54618
2.53597
2.52694
2.52014
2.51616
2.51284
2.50785
2.49786
2.48259
2.46525
2.4499
2.43925
2.43537
2.43834
2.44222
2.44444
2.44158
2.43333
2.4234
2.41489
2.40906
2.40669
2.40594
2.40733
2.41359
2.42257
2.42612
2.42365
2.41897
2.41229
2.40358
2.39477
2.39006
2.39125
2.39229
2.38595
2.3774
2.36707
2.35781
2.35102
2.34683
2.34638
2.34848
2.34856
2.34335
2.33509
2.32514
2.31536
2.30693
2.29861
2.29042
2.28213
2.27532
2.27109
2.26984
2.27
2.26877
2.26509
2.25942
2.25128
2.23967
2.22754
2.21791
2.20885
2.20099
2.19471
2.18974
2.18592
2.18332
2.18219
2.18253
2.18364
2.18299
2.17991
2.17573
2.17052
2.16474
2.15799
2.15133
2.14546
2.13975
2.13372
2.12709
2.11953
2.11126
2.10393
2.09907
2.09792
2.09653
0.94114
0.939079
0.935104
0.929651
0.925514
0.923709
0.923267
0.924804
0.928732
0.932623
0.935243
0.935901
0.934996
0.932701
0.928662
0.923601
0.919687
0.917606
0.916837
0.918729
0.930578
1.02651
1.28278
1.82216
2.58963
2.7778
2.74919
2.72906
2.73079
2.72749
2.72178
2.71586
2.71024
2.70831
2.71093
2.70896
2.69164
2.66655
2.64062
2.62011
2.60737
2.60414
2.60379
2.59704
2.58249
2.56618
2.55177
2.54213
2.53599
2.52911
2.51654
2.49787
2.47941
2.46778
2.46545
2.47461
2.48406
2.48417
2.47674
2.46518
2.45317
2.44498
2.44001
2.43978
2.44463
2.44727
2.44284
2.43766
2.43551
2.43634
2.43694
2.43635
2.43621
2.43413
2.42657
2.41729
2.40593
2.39224
2.37892
2.36857
2.36132
2.35952
2.36424
2.36929
2.36893
2.36389
2.35663
2.34614
2.3334
2.32319
2.31507
2.3077
2.30176
2.29746
2.29382
2.28883
2.28221
2.27475
2.26588
2.25606
2.24761
2.24197
2.23731
2.23152
2.22554
2.22058
2.2168
2.2139
2.21141
2.20873
2.20474
2.19891
2.1923
2.18535
2.17837
2.17144
2.16455
2.15907
2.15533
2.15269
2.1501
2.14712
2.14394
2.14081
2.13777
2.13403
2.12828
2.11999
2.10534
0.956107
0.954996
0.952345
0.948118
0.944233
0.94197
0.940958
0.94129
0.944088
0.947655
0.95016
0.950973
0.950657
0.949263
0.946103
0.940936
0.935358
0.931655
0.931843
0.94473
1.02766
1.31426
1.60994
1.72705
2.14806
2.66987
2.84171
2.87493
2.85467
2.83602
2.83121
2.82856
2.81904
2.80668
2.79896
2.79425
2.78679
2.77165
2.75062
2.72459
2.70482
2.69362
2.68945
2.68223
2.6669
2.64852
2.6256
2.60916
2.59947
2.59481
2.58932
2.57776
2.5634
2.54808
2.53803
2.53496
2.53628
2.53698
2.53293
2.52466
2.51398
2.50312
2.49548
2.49172
2.49216
2.4905
2.48476
2.47899
2.47563
2.47679
2.4812
2.48527
2.48586
2.47955
2.4677
2.45289
2.43981
2.42852
2.41927
2.41123
2.40534
2.40234
2.40085
2.39889
2.3957
2.39183
2.38659
2.37906
2.36926
2.35964
2.35219
2.34679
2.34104
2.33327
2.32486
2.31621
2.30614
2.29528
2.28589
2.27954
2.27618
2.27451
2.27123
2.26662
2.26152
2.2562
2.25165
2.248
2.24388
2.23829
2.23135
2.22272
2.21322
2.20382
2.19554
2.1885
2.18254
2.17822
2.17511
2.17146
2.16743
2.16386
2.16151
2.16101
2.16181
2.1607
2.15604
2.14884
2.12827
0.97577
0.972683
0.969545
0.967461
0.96658
0.966183
0.966411
0.96808
0.970097
0.970876
0.970567
0.969849
0.968605
0.966448
0.963586
0.960714
0.958641
0.959462
0.971177
1.06227
1.32104
1.63597
1.80559
1.78914
1.84325
2.18231
2.66753
2.92619
2.98562
2.96197
2.94083
2.92621
2.91408
2.89679
2.88088
2.86873
2.8592
2.85615
2.84611
2.8288
2.80606
2.78828
2.7767
2.76531
2.75061
2.73374
2.70978
2.68261
2.66552
2.65417
2.64676
2.64321
2.63894
2.63214
2.62103
2.60622
2.59374
2.58345
2.57509
2.56885
2.56306
2.55683
2.55178
2.54652
2.5394
2.53174
2.52592
2.52249
2.52337
2.52867
2.53366
2.531
2.52237
2.51051
2.49455
2.47559
2.46262
2.45438
2.44978
2.44942
2.45056
2.44925
2.44387
2.43625
2.42829
2.41996
2.41163
2.40552
2.40091
2.39653
2.39407
2.39109
2.38332
2.37187
2.3554
2.33725
2.32326
2.31373
2.30751
2.30476
2.30693
2.31065
2.31104
2.30867
2.30427
2.29768
2.2888
2.27904
2.26989
2.25992
2.24854
2.23763
2.22851
2.2214
2.21573
2.21219
2.21001
2.20564
2.19937
2.19298
2.18753
2.18315
2.18076
2.18046
2.18002
2.17695
2.17153
2.16459
2.14737
0.99853
0.994901
0.992595
0.991791
0.99151
0.991881
0.993592
0.995513
0.995705
0.994759
0.992962
0.990486
0.98802
0.985794
0.984198
0.983972
0.985898
0.999947
1.08749
1.37441
1.66061
1.82154
1.85156
1.8463
1.84731
1.87305
2.14584
2.64661
2.95123
2.99987
3.01051
2.99635
2.97336
2.9521
2.92071
2.90136
2.89202
2.89186
2.89439
2.88186
2.86164
2.83517
2.81407
2.79846
2.78447
2.76932
2.75006
2.72377
2.70332
2.69249
2.6862
2.68775
2.6887
2.68054
2.66854
2.65078
2.62816
2.61403
2.60634
2.60197
2.60146
2.60197
2.59985
2.59393
2.5859
2.57543
2.56682
2.56146
2.55671
2.55091
2.54437
2.53619
2.52501
2.50874
2.49398
2.48573
2.48036
2.48013
2.4853
2.49113
2.49087
2.48462
2.47463
2.45913
2.44072
2.42553
2.41658
2.41193
2.41167
2.41647
2.4191
2.41344
2.40487
2.39263
2.37382
2.35315
2.34097
2.33488
2.33135
2.33176
2.33595
2.33823
2.33545
2.32931
2.32207
2.31335
2.30251
2.28899
2.27614
2.26598
2.25768
2.25109
2.24619
2.24351
2.24295
2.24208
2.2376
2.23051
2.22016
2.20871
2.20064
2.19457
2.18953
2.18573
2.18283
2.17939
2.17414
2.16706
2.15386
1.01402
1.01326
1.01337
1.01486
1.01686
1.01804
1.01764
1.01589
1.01257
1.00822
1.00457
1.00227
1.0013
1.00062
1.00224
1.00693
1.026
1.11073
1.39316
1.70388
1.8336
1.87076
1.88424
1.88571
1.87884
1.87399
1.89253
2.1079
2.58261
2.90976
3.00142
3.02641
3.01161
2.98924
2.95357
2.91501
2.90042
2.89787
2.90479
2.89986
2.88113
2.85656
2.83007
2.81179
2.79872
2.78499
2.76823
2.74768
2.7292
2.71694
2.7093
2.70761
2.70532
2.69587
2.68467
2.67039
2.65077
2.6334
2.62548
2.62105
2.62034
2.62098
2.6198
2.61548
2.60845
2.59864
2.58504
2.56977
2.5581
2.5495
2.53888
2.52635
2.51413
2.50498
2.49844
2.49729
2.50103
2.50687
2.51019
2.50773
2.50136
2.49323
2.48128
2.46295
2.44067
2.42229
2.41313
2.40819
2.41154
2.42395
2.42575
2.41885
2.41065
2.40024
2.38626
2.37026
2.35822
2.35143
2.34662
2.34345
2.34179
2.34037
2.33679
2.33026
2.32141
2.31055
2.30036
2.29148
2.2817
2.27261
2.26722
2.26411
2.26327
2.26263
2.25921
2.25326
2.24599
2.23683
2.22532
2.2133
2.20274
2.19373
2.18583
2.17846
2.17211
2.16758
2.16478
2.1637
2.15963
1.0293
1.0315
1.03339
1.03375
1.03269
1.03031
1.02719
1.02292
1.01865
1.01534
1.01364
1.01311
1.01389
1.01723
1.02279
1.04054
1.15574
1.397
1.73545
1.8487
1.88359
1.89716
1.90327
1.90323
1.89711
1.88687
1.86732
1.87319
2.02583
2.47247
2.84071
2.98108
3.01331
2.99875
2.97109
2.93292
2.89458
2.8785
2.87327
2.87846
2.87625
2.85879
2.83438
2.80684
2.7867
2.77497
2.76615
2.75563
2.74174
2.72702
2.71443
2.70463
2.6995
2.69511
2.68514
2.67365
2.65865
2.63945
2.62227
2.61426
2.61085
2.61291
2.61732
2.61585
2.60942
2.60074
2.58835
2.5712
2.55298
2.53614
2.52122
2.51036
2.50386
2.50293
2.50927
2.51372
2.51498
2.51404
2.51194
2.50823
2.50197
2.49382
2.481
2.46053
2.4366
2.42075
2.41242
2.40758
2.40748
2.41504
2.42114
2.41888
2.4123
2.40417
2.39398
2.3824
2.36857
2.35461
2.34637
2.34011
2.33461
2.3297
2.3254
2.32132
2.31561
2.30912
2.3032
2.29765
2.29084
2.28278
2.27603
2.27141
2.26684
2.26317
2.25921
2.25342
2.24608
2.23648
2.22501
2.21406
2.2037
2.19267
2.18149
2.17146
2.16175
2.1545
2.15068
2.15273
2.16517
1.04353
1.04328
1.04128
1.0379
1.03441
1.0307
1.02707
1.02482
1.02348
1.02291
1.02334
1.02511
1.0273
1.03149
1.05311
1.16118
1.45954
1.7006
1.8757
1.90964
1.9076
1.91349
1.9103
1.90663
1.89796
1.88856
1.8739
1.85596
1.85405
1.96137
2.37233
2.77017
2.93908
2.97943
2.96626
2.94343
2.90977
2.86775
2.8467
2.83664
2.84108
2.84637
2.83211
2.80852
2.77923
2.75753
2.74592
2.7404
2.73629
2.72699
2.71408
2.69963
2.68828
2.67908
2.67354
2.66724
2.65682
2.64174
2.62227
2.605
2.59564
2.59077
2.5927
2.60033
2.60182
2.59479
2.58379
2.56667
2.54418
2.52407
2.51197
2.50465
2.50043
2.49986
2.50164
2.50349
2.50334
2.50108
2.49683
2.49158
2.48556
2.47743
2.46555
2.45035
2.43628
2.42551
2.41649
2.40968
2.40656
2.40506
2.40453
2.40572
2.40501
2.39942
2.39196
2.38209
2.36929
2.35531
2.34167
2.33009
2.3204
2.31291
2.30869
2.30937
2.31301
2.31326
2.30982
2.30444
2.29749
2.28857
2.27787
2.26743
2.25907
2.25221
2.24556
2.23849
2.23078
2.22312
2.21648
2.20971
2.20261
2.19492
2.18514
2.17322
2.16243
2.15388
2.14742
2.1452
2.14896
1.04691
1.04495
1.04183
1.03726
1.03273
1.03002
1.02881
1.02862
1.03003
1.03218
1.03249
1.03242
1.03596
1.06724
1.18575
1.45544
1.73009
1.84381
1.915
1.92496
1.92021
1.90216
1.89426
1.89077
1.88772
1.88324
1.87567
1.86492
1.84841
1.8392
1.91938
2.28367
2.69249
2.86803
2.92212
2.92747
2.90744
2.8742
2.83045
2.80372
2.79004
2.79081
2.80034
2.79434
2.77515
2.74496
2.719
2.70457
2.69626
2.69413
2.69242
2.6855
2.67411
2.65994
2.64843
2.63998
2.63443
2.62685
2.61646
2.60111
2.58316
2.57163
2.56485
2.56281
2.56454
2.56365
2.55699
2.54582
2.53049
2.51557
2.50538
2.4988
2.49481
2.49271
2.49146
2.49028
2.48794
2.48287
2.4759
2.46607
2.45444
2.44373
2.43652
2.43264
2.42835
2.42222
2.41656
2.41141
2.40422
2.3966
2.39029
2.38628
2.38569
2.38423
2.37886
2.37179
2.36176
2.34634
2.32775
2.31294
2.30359
2.2973
2.29433
2.29891
2.30717
2.30938
2.30615
2.301
2.29497
2.28736
2.27724
2.26511
2.25213
2.23966
2.22775
2.21673
2.20797
2.20237
2.20045
2.20151
2.19998
2.19478
2.1886
2.18106
2.17062
2.15928
2.14974
2.14407
2.13799
1.04687
1.04369
1.03912
1.03517
1.03323
1.03263
1.03329
1.03534
1.03692
1.03661
1.03519
1.03943
1.07418
1.23244
1.46565
1.72025
1.85696
1.90652
1.92815
1.92705
1.90871
1.88267
1.86533
1.86257
1.86304
1.86638
1.8657
1.86242
1.85396
1.83064
1.8084
1.86709
2.19288
2.6187
2.81183
2.87187
2.87819
2.85776
2.82711
2.78529
2.75612
2.74203
2.73788
2.74072
2.73668
2.72269
2.70247
2.68046
2.66337
2.65175
2.64521
2.64305
2.64189
2.63621
2.62604
2.61547
2.60624
2.59858
2.59139
2.58195
2.56942
2.55589
2.54534
2.5373
2.53061
2.52593
2.52263
2.51848
2.51238
2.50502
2.4978
2.49223
2.48785
2.48417
2.4801
2.47454
2.46739
2.4581
2.44606
2.43266
2.42145
2.41469
2.41084
2.41094
2.41352
2.41466
2.41221
2.4061
2.39666
2.38596
2.37734
2.3713
2.36881
2.36802
2.36332
2.35584
2.34539
2.32971
2.31264
2.30066
2.29312
2.28821
2.28626
2.29034
2.29766
2.30152
2.29994
2.29469
2.28805
2.27988
2.26881
2.25481
2.23915
2.22337
2.20947
2.19952
2.19317
2.1884
2.18608
2.18756
2.19087
2.19295
2.19148
2.18686
2.18119
2.17239
2.15859
2.14453
2.13017
1.04358
1.04008
1.03758
1.03641
1.03632
1.03749
1.03925
1.03937
1.03855
1.03688
1.04259
1.08954
1.24677
1.51923
1.69147
1.83657
1.90823
1.93378
1.92993
1.92422
1.90757
1.88002
1.85354
1.83971
1.83721
1.83725
1.83813
1.83637
1.83273
1.81993
1.79161
1.77321
1.81997
2.11676
2.56009
2.75964
2.82494
2.82976
2.80601
2.77886
2.74267
2.71433
2.69473
2.68254
2.68021
2.68523
2.67958
2.66563
2.64556
2.62429
2.61194
2.60483
2.60293
2.60595
2.60588
2.59776
2.58717
2.57747
2.57031
2.56359
2.55508
2.54432
2.53096
2.51735
2.50758
2.50103
2.49776
2.49837
2.49989
2.49898
2.49525
2.49
2.48339
2.47545
2.46657
2.4557
2.44313
2.43104
2.42184
2.41547
2.41058
2.40653
2.40396
2.40322
2.40302
2.40314
2.40081
2.39397
2.3855
2.37626
2.36832
2.36269
2.35811
2.35315
2.34655
2.33855
2.32981
2.32009
2.30956
2.29936
2.29136
2.28637
2.28541
2.28601
2.28531
2.28489
2.28508
2.28302
2.27686
2.26776
2.25584
2.24239
2.22941
2.21761
2.20694
2.19797
2.1914
2.18676
2.18352
2.18111
2.18038
2.18256
2.18672
2.18885
2.18649
2.18125
2.17222
2.15476
2.12207
1.04079
1.03922
1.03865
1.03935
1.04154
1.04201
1.04086
1.03921
1.03668
1.04431
1.10831
1.27345
1.52088
1.71299
1.79914
1.88306
1.92924
1.93398
1.92751
1.91597
1.90199
1.88033
1.85347
1.82931
1.81679
1.81214
1.80862
1.80546
1.80165
1.79565
1.78372
1.76787
1.75778
1.79898
2.0685
2.51175
2.72551
2.77618
2.78296
2.76555
2.74179
2.70134
2.66923
2.65386
2.64424
2.6457
2.65403
2.64942
2.6354
2.61607
2.59983
2.58988
2.58197
2.57966
2.5842
2.58465
2.57594
2.56687
2.56058
2.55579
2.54878
2.53977
2.52845
2.51414
2.50227
2.49493
2.48994
2.48772
2.48889
2.49142
2.4914
2.48672
2.47872
2.46694
2.4523
2.43983
2.43137
2.42486
2.41999
2.41568
2.41205
2.40883
2.40421
2.39814
2.39255
2.38874
2.3874
2.38715
2.38388
2.37863
2.37162
2.36165
2.35171
2.34357
2.33686
2.33168
2.32786
2.32282
2.31681
2.31004
2.30196
2.29321
2.28544
2.27874
2.27194
2.2659
2.26176
2.26009
2.2589
2.25464
2.24874
2.24271
2.23576
2.2274
2.21827
2.20859
2.19906
2.19154
2.18594
2.18062
2.17582
2.17288
2.17359
2.17847
2.18214
2.1792
2.17316
2.16361
2.13544
1.0404
1.04002
1.04145
1.04297
1.04238
1.04112
1.03989
1.03689
1.04676
1.12336
1.32943
1.51565
1.69268
1.80663
1.85643
1.90597
1.91869
1.90888
1.89882
1.89178
1.88652
1.87547
1.85421
1.82614
1.80267
1.79171
1.7867
1.78233
1.7793
1.77865
1.77786
1.77238
1.76347
1.74882
1.77898
2.01695
2.45684
2.671
2.72754
2.74748
2.73598
2.71491
2.67764
2.64235
2.63092
2.62724
2.63439
2.64671
2.64309
2.62918
2.60549
2.58307
2.57282
2.56626
2.56619
2.57317
2.57592
2.57031
2.56393
2.55929
2.55495
2.54851
2.54011
2.52855
2.51145
2.49484
2.48594
2.48118
2.48066
2.48219
2.48178
2.4765
2.46865
2.45873
2.4486
2.44081
2.43431
2.4294
2.42762
2.42751
2.42352
2.41557
2.40515
2.39551
2.38865
2.3833
2.38042
2.3799
2.38015
2.37638
2.36985
2.36064
2.34874
2.34084
2.33518
2.33214
2.33123
2.33129
2.33045
2.32694
2.31992
2.30737
2.28728
2.26931
2.25926
2.25239
2.24725
2.24443
2.24489
2.24674
2.24665
2.24513
2.2434
2.24095
2.23688
2.23054
2.22068
2.20669
2.19191
2.18106
2.17414
2.1685
2.16416
2.16229
2.16385
2.16681
2.16749
2.164
2.15125
1.04185
1.04195
1.04167
1.04105
1.03972
1.03814
1.03525
1.04748
1.13365
1.36332
1.55986
1.65774
1.77004
1.85808
1.88848
1.89594
1.88479
1.8704
1.86211
1.85964
1.85952
1.85594
1.84513
1.82242
1.79644
1.78086
1.77466
1.77112
1.76886
1.76862
1.77162
1.77415
1.7692
1.75696
1.73872
1.75793
1.96134
2.39682
2.62891
2.7006
2.72401
2.71348
2.69696
2.6696
2.64397
2.63085
2.63033
2.63807
2.64411
2.63921
2.62458
2.59992
2.57728
2.56668
2.5633
2.56509
2.56937
2.5729
2.57109
2.56686
2.56125
2.55337
2.5449
2.53591
2.52442
2.50956
2.49581
2.48724
2.48135
2.47812
2.47602
2.47147
2.465
2.45773
2.45013
2.44375
2.43841
2.43539
2.43621
2.43892
2.43728
2.43057
2.42117
2.40892
2.39655
2.38735
2.38122
2.37825
2.37592
2.37123
2.36575
2.35902
2.35208
2.34564
2.3405
2.3379
2.33865
2.34093
2.34092
2.33718
2.33093
2.3214
2.30501
2.28383
2.26582
2.25417
2.24679
2.24244
2.24211
2.24367
2.24616
2.24919
2.25145
2.25176
2.24955
2.24506
2.23823
2.22745
2.21344
2.19799
2.18244
2.17005
2.16318
2.15896
2.15528
2.15264
2.154
2.16215
2.16075
1.04029
1.03995
1.03887
1.03668
1.03388
1.03183
1.04615
1.14243
1.36571
1.58838
1.65676
1.72373
1.8216
1.88492
1.89027
1.87227
1.84911
1.83626
1.83209
1.83113
1.83351
1.83397
1.82925
1.81859
1.8006
1.78284
1.77444
1.76903
1.76463
1.76095
1.75994
1.76529
1.77138
1.76768
1.75655
1.74013
1.74858
1.92195
2.33482
2.58598
2.67275
2.70826
2.70903
2.70146
2.68459
2.65813
2.64303
2.6362
2.63626
2.64313
2.64279
2.63397
2.61764
2.59473
2.57736
2.56866
2.56645
2.57474
2.58462
2.58089
2.56991
2.55815
2.54798
2.54054
2.53405
2.52703
2.51927
2.50996
2.50095
2.4936
2.48709
2.48285
2.47836
2.47229
2.46614
2.45988
2.45408
2.44946
2.44702
2.4467
2.44632
2.44411
2.44001
2.4338
2.42667
2.4186
2.4088
2.39697
2.38407
2.37256
2.36361
2.35771
2.35459
2.35321
2.35289
2.35308
2.35307
2.35186
2.34834
2.34339
2.33728
2.32888
2.31754
2.30463
2.29228
2.28102
2.27144
2.26414
2.25981
2.25874
2.25984
2.26086
2.26028
2.25803
2.25474
2.25031
2.24478
2.23885
2.23251
2.22484
2.21395
2.19954
2.18202
2.16573
2.15689
2.15272
2.15142
2.1527
2.1598
1.03764
1.03574
1.03212
1.02735
1.02547
1.04171
1.1536
1.36941
1.58552
1.66252
1.69457
1.76948
1.86138
1.88513
1.8775
1.85735
1.83533
1.82063
1.81586
1.81426
1.81405
1.81492
1.81706
1.81536
1.80988
1.79705
1.77868
1.76698
1.76123
1.75694
1.75391
1.75464
1.76514
1.77721
1.77712
1.76823
1.75781
1.75435
1.89279
2.26157
2.54799
2.67262
2.71951
2.72492
2.71502
2.70228
2.68242
2.66037
2.64875
2.64492
2.6524
2.66018
2.65667
2.64488
2.62651
2.60842
2.59769
2.59702
2.60658
2.60797
2.59771
2.58444
2.56948
2.55724
2.54861
2.54279
2.53892
2.53331
2.52679
2.52005
2.51423
2.51001
2.50528
2.49982
2.49445
2.4891
2.48381
2.47842
2.4728
2.46714
2.46208
2.45869
2.45727
2.45719
2.45644
2.45265
2.44595
2.43604
2.42028
2.40199
2.3885
2.37976
2.37358
2.37024
2.37153
2.37442
2.3733
2.3689
2.36335
2.35687
2.34865
2.33887
2.32982
2.32332
2.3179
2.31248
2.30794
2.30459
2.30239
2.29933
2.29364
2.28634
2.27865
2.27086
2.26264
2.25529
2.25045
2.24826
2.24806
2.24677
2.24205
2.2348
2.22265
2.20538
2.18613
2.17092
2.16296
2.16026
2.16426
1.032
1.02705
1.02023
1.01752
1.03572
1.16048
1.39304
1.5611
1.64916
1.68235
1.72862
1.8111
1.87509
1.8749
1.86326
1.84847
1.83444
1.82144
1.81278
1.80685
1.80223
1.79931
1.80178
1.81193
1.81505
1.81
1.79588
1.77583
1.76341
1.75751
1.75416
1.75436
1.76119
1.77677
1.79145
1.79173
1.78198
1.77371
1.7652
1.86519
2.17427
2.51595
2.66306
2.73217
2.74606
2.7413
2.7277
2.70617
2.69071
2.67965
2.6799
2.68295
2.68486
2.67868
2.67018
2.65919
2.64832
2.64215
2.63839
2.63543
2.63045
2.62136
2.61108
2.59979
2.58766
2.57644
2.56759
2.56052
2.55523
2.55154
2.54864
2.54396
2.53767
2.531
2.52487
2.51917
2.51396
2.50913
2.50395
2.49811
2.49237
2.48802
2.48694
2.48972
2.49082
2.48651
2.47974
2.47095
2.45721
2.44032
2.42696
2.4175
2.40979
2.40466
2.40322
2.40112
2.39595
2.39069
2.38542
2.37934
2.37196
2.36337
2.35617
2.35108
2.34704
2.34516
2.34653
2.34952
2.34872
2.34315
2.33494
2.32353
2.30848
2.29172
2.27805
2.27042
2.26629
2.26471
2.26631
2.26998
2.27156
2.26844
2.26247
2.25306
2.23828
2.21889
2.20039
2.19
2.18352
1.02131
1.01295
1.00873
1.02797
1.1535
1.41218
1.56266
1.63165
1.66071
1.68999
1.76743
1.83669
1.86141
1.86048
1.85592
1.85023
1.84509
1.83223
1.81349
1.80265
1.79737
1.79337
1.79205
1.79911
1.81185
1.81506
1.81033
1.79923
1.7863
1.7769
1.77046
1.76686
1.76761
1.77785
1.79503
1.80727
1.80506
1.79576
1.78808
1.78763
1.84156
2.09366
2.43837
2.64435
2.7519
2.77366
2.76758
2.74426
2.73292
2.72537
2.72178
2.71629
2.71157
2.70716
2.70584
2.7049
2.69873
2.68972
2.67954
2.66991
2.66162
2.65721
2.65358
2.64664
2.6366
2.6232
2.60889
2.59952
2.59334
2.58988
2.58735
2.58225
2.57556
2.56787
2.5595
2.55171
2.54485
2.53867
2.53321
2.52813
2.52345
2.52005
2.5195
2.52262
2.52466
2.52172
2.51563
2.50733
2.49575
2.48169
2.46879
2.45898
2.45178
2.4475
2.4423
2.43427
2.42578
2.41759
2.41031
2.40358
2.39661
2.3906
2.38632
2.38269
2.38039
2.38003
2.38306
2.38805
2.38874
2.38322
2.37517
2.36398
2.34706
2.3244
2.30308
2.29103
2.28557
2.28288
2.28399
2.28963
2.29687
2.30252
2.30399
2.30064
2.29402
2.28184
2.2615
2.23482
2.20932
1.00524
1.00167
1.02131
1.14385
1.40308
1.58014
1.61669
1.64088
1.66155
1.72328
1.80056
1.84265
1.85208
1.8542
1.85511
1.85394
1.85187
1.84592
1.82984
1.80891
1.79803
1.79322
1.79098
1.79353
1.80223
1.81432
1.81965
1.8178
1.81304
1.8082
1.80353
1.79918
1.7956
1.79335
1.79715
1.8111
1.82201
1.81894
1.81185
1.80344
1.8106
1.83081
2.00124
2.3154
2.60885
2.71593
2.78547
2.78463
2.77945
2.77682
2.76086
2.75079
2.73872
2.73485
2.73524
2.73932
2.73619
2.72767
2.71826
2.7085
2.70026
2.69686
2.69552
2.68882
2.67896
2.66579
2.65013
2.63801
2.63045
2.62518
2.62069
2.61561
2.61041
2.60425
2.59673
2.58804
2.58
2.57318
2.56741
2.56249
2.55813
2.55465
2.55244
2.5511
2.54965
2.54691
2.54233
2.53598
2.52817
2.51899
2.51009
2.5032
2.49884
2.49397
2.48544
2.47545
2.46503
2.45489
2.44542
2.43616
2.42625
2.41768
2.41265
2.40887
2.40632
2.40497
2.40533
2.40843
2.41225
2.41263
2.40792
2.40046
2.38963
2.37329
2.3513
2.32838
2.31267
2.3059
2.30297
2.30449
2.31264
2.32438
2.33462
2.3397
2.33786
2.33121
2.31729
2.28982
2.24488
0.995784
1.01666
1.14456
1.38583
1.58254
1.61613
1.62798
1.6413
1.6864
1.77609
1.83141
1.84921
1.84985
1.84881
1.84803
1.84788
1.84962
1.85055
1.84595
1.834
1.81684
1.80481
1.79867
1.79608
1.80073
1.81042
1.82288
1.8323
1.83486
1.83339
1.83084
1.82701
1.82181
1.81629
1.81177
1.81331
1.82634
1.83741
1.83733
1.83135
1.82323
1.82787
1.8237
1.91568
2.17655
2.47073
2.67885
2.77226
2.80434
2.81652
2.80525
2.79385
2.7718
2.76266
2.75872
2.75832
2.75825
2.75434
2.7499
2.7438
2.73807
2.73593
2.73262
2.72514
2.71503
2.70247
2.68965
2.67767
2.66678
2.65757
2.64929
2.64225
2.63699
2.63307
2.62877
2.62254
2.61645
2.60979
2.60269
2.59683
2.59217
2.58812
2.58388
2.57841
2.57295
2.56726
2.56124
2.55556
2.55055
2.54595
2.54177
2.54004
2.53952
2.53439
2.52666
2.51784
2.50797
2.49758
2.48662
2.47425
2.45974
2.44502
2.43473
2.42881
2.42413
2.42039
2.41834
2.41959
2.4241
2.42856
2.43121
2.43006
2.42505
2.41757
2.40484
2.38424
2.35891
2.33851
2.32903
2.32572
2.32785
2.33715
2.34919
2.35842
2.36116
2.35733
2.34814
2.33072
2.29177
1.01359
1.1499
1.39062
1.56193
1.6268
1.63255
1.63515
1.66627
1.75333
1.82342
1.84848
1.85525
1.85071
1.84852
1.84562
1.84286
1.84263
1.84768
1.85351
1.85308
1.84614
1.83593
1.82587
1.81853
1.81379
1.81374
1.8254
1.84309
1.8558
1.85796
1.85397
1.84765
1.84007
1.83298
1.82712
1.82369
1.82973
1.84461
1.85329
1.85238
1.84587
1.83789
1.83528
1.82152
1.8544
2.01995
2.30689
2.60291
2.73209
2.81436
2.83765
2.83054
2.82139
2.80193
2.78551
2.7747
2.77077
2.77052
2.77344
2.77327
2.77073
2.76801
2.76211
2.75418
2.7434
2.7325
2.72395
2.71502
2.70329
2.68818
2.67437
2.66559
2.65912
2.65542
2.65497
2.65649
2.65387
2.64723
2.63904
2.63056
2.62381
2.61787
2.61158
2.6046
2.59657
2.58761
2.57917
2.57314
2.56874
2.56604
2.56689
2.56963
2.56865
2.56406
2.55865
2.55258
2.54535
2.53661
2.5258
2.51208
2.49523
2.47704
2.46075
2.44831
2.44019
2.43474
2.43132
2.4315
2.43534
2.44032
2.44557
2.45069
2.45373
2.45142
2.44532
2.43457
2.41645
2.39156
2.36629
2.35118
2.34577
2.34447
2.34994
2.35791
2.36179
2.36156
2.35815
2.35014
2.33133
1.14032
1.40786
1.56951
1.62695
1.63205
1.62777
1.64705
1.71929
1.80411
1.86463
1.8727
1.86821
1.86045
1.85301
1.84561
1.83945
1.8373
1.84174
1.853
1.86308
1.86631
1.8622
1.85548
1.8485
1.84251
1.83745
1.83742
1.85072
1.86922
1.87558
1.87105
1.86396
1.85565
1.84839
1.84305
1.83965
1.84085
1.8497
1.85793
1.86019
1.85888
1.85469
1.84828
1.84123
1.84387
1.84069
1.91755
2.15291
2.44422
2.68588
2.7995
2.82421
2.85387
2.83996
2.82899
2.80364
2.78743
2.78369
2.7851
2.7906
2.79283
2.79176
2.78673
2.77895
2.76929
2.7606
2.75395
2.74588
2.73485
2.71893
2.70018
2.68718
2.67947
2.67459
2.67475
2.68158
2.68342
2.67769
2.66983
2.66045
2.65102
2.64311
2.63593
2.62861
2.6204
2.61095
2.60147
2.59391
2.58901
2.58638
2.58832
2.58952
2.58627
2.5821
2.57819
2.57391
2.5684
2.56139
2.55258
2.5415
2.52838
2.51371
2.49777
2.48124
2.46652
2.45692
2.45187
2.44977
2.45018
2.45205
2.45511
2.45991
2.46554
2.46992
2.4706
2.46678
2.45994
2.44696
2.42498
2.39513
2.36792
2.35494
2.34998
2.34612
2.34656
2.35309
2.35861
2.36306
2.35917
1.39837
1.59068
1.63105
1.6243
1.62112
1.63213
1.68928
1.78211
1.86154
1.89505
1.89276
1.88375
1.87409
1.86518
1.85706
1.85038
1.84712
1.84976
1.85825
1.86821
1.87675
1.88019
1.87639
1.87057
1.86509
1.86026
1.85779
1.86213
1.8733
1.88085
1.8812
1.87695
1.87109
1.86544
1.8609
1.85754
1.8559
1.85701
1.85963
1.86131
1.86238
1.86393
1.86408
1.86022
1.85385
1.85374
1.84203
1.86635
1.99868
2.25955
2.55573
2.71858
2.82445
2.84155
2.85377
2.84075
2.82116
2.80618
2.79825
2.80036
2.80406
2.80483
2.80335
2.79927
2.79365
2.78717
2.78072
2.7729
2.76274
2.74898
2.73135
2.71405
2.70255
2.69577
2.69348
2.69782
2.70234
2.69859
2.69176
2.68352
2.67394
2.66465
2.65682
2.6499
2.64311
2.63622
2.62924
2.6223
2.61703
2.61498
2.61156
2.60463
2.59811
2.59251
2.58731
2.58213
2.57683
2.57143
2.56604
2.56068
2.55521
2.54906
2.5408
2.52971
2.51531
2.49858
2.48409
2.47419
2.46744
2.46238
2.45961
2.45962
2.46346
2.47054
2.47776
2.48358
2.48436
2.47988
2.47047
2.4507
2.4172
2.37943
2.35438
2.34451
2.34019
2.33877
2.34534
2.36324
2.37836
1.597
1.62787
1.63311
1.63132
1.63829
1.67474
1.75991
1.85133
1.89791
1.90274
1.90597
1.90334
1.89451
1.88606
1.87859
1.87381
1.87242
1.87402
1.87666
1.87911
1.88333
1.88941
1.89127
1.88709
1.88195
1.87789
1.87554
1.87572
1.8785
1.88141
1.88362
1.88483
1.88401
1.88086
1.8776
1.87494
1.87224
1.86968
1.86743
1.86565
1.86488
1.86637
1.87048
1.87399
1.87277
1.86887
1.86309
1.86507
1.85825
1.90408
2.07772
2.34257
2.61548
2.76918
2.81395
2.86012
2.85519
2.84168
2.82738
2.81865
2.81695
2.81433
2.81262
2.81194
2.81078
2.80754
2.80333
2.79789
2.78926
2.77798
2.76442
2.74901
2.73301
2.72093
2.7146
2.71192
2.71302
2.71233
2.70703
2.70009
2.69223
2.68315
2.67418
2.66684
2.66134
2.65742
2.65496
2.65418
2.6536
2.6499
2.641
2.62731
2.61204
2.5998
2.59092
2.58353
2.57763
2.57375
2.5722
2.57312
2.57622
2.57968
2.57992
2.57539
2.5667
2.55099
2.52859
2.50677
2.4889
2.47454
2.46486
2.45989
2.45798
2.46051
2.47131
2.48448
2.49282
2.4947
2.49166
2.48374
2.4641
2.42896
2.3879
2.35716
2.34287
2.33892
2.34186
2.35811
2.38613
1.6532
1.65225
1.64321
1.64306
1.66999
1.74263
1.83062
1.88722
1.91426
1.91762
1.91939
1.92109
1.91661
1.90838
1.90304
1.90171
1.9019
1.90191
1.90035
1.8973
1.89489
1.89595
1.90001
1.90048
1.89747
1.8946
1.89259
1.8907
1.88851
1.88612
1.88469
1.88564
1.88873
1.891
1.89106
1.89135
1.8912
1.88766
1.88216
1.87686
1.87242
1.86972
1.87137
1.87749
1.88236
1.88302
1.88053
1.87563
1.87439
1.86467
1.86882
1.93962
2.12836
2.41765
2.62533
2.79481
2.82367
2.85623
2.86227
2.84606
2.84551
2.83596
2.82812
2.82491
2.82098
2.81966
2.8193
2.81817
2.81522
2.80694
2.79717
2.7863
2.77279
2.75695
2.74104
2.7307
2.72578
2.72255
2.71941
2.71402
2.7072
2.69913
2.68952
2.68181
2.67699
2.67426
2.67561
2.68177
2.68536
2.68201
2.67465
2.66081
2.63833
2.61492
2.59881
2.58877
2.58194
2.57745
2.57729
2.58324
2.59248
2.60122
2.6061
2.6052
2.60005
2.58894
2.56766
2.54303
2.52088
2.50029
2.48156
2.46817
2.46166
2.45983
2.4668
2.47915
2.4896
2.49609
2.49814
2.49534
2.48543
2.46594
2.43845
2.40604
2.37673
2.36117
2.35675
2.36193
2.38482
1.66313
1.64978
1.64544
1.66106
1.72137
1.81359
1.88795
1.92447
1.93663
1.93222
1.92708
1.92444
1.92428
1.9251
1.92869
1.93373
1.93084
1.92439
1.91814
1.91178
1.90599
1.90299
1.90644
1.91305
1.9143
1.91293
1.91026
1.90463
1.89831
1.89296
1.88842
1.88576
1.88749
1.89451
1.9019
1.90822
1.91039
1.90603
1.89855
1.88946
1.88197
1.87655
1.87301
1.87511
1.88367
1.89071
1.8933
1.89182
1.88799
1.88161
1.87645
1.8569
1.86858
1.96221
2.16191
2.44271
2.66394
2.78241
2.85155
2.85727
2.87101
2.86231
2.85641
2.85013
2.83519
2.83007
2.82801
2.82917
2.83262
2.83504
2.83153
2.82211
2.81093
2.79793
2.78132
2.76176
2.74558
2.73654
2.73083
2.72599
2.72007
2.71306
2.70455
2.69701
2.69231
2.69043
2.69377
2.70053
2.70426
2.7029
2.69832
2.68953
2.67094
2.64551
2.62369
2.60863
2.59875
2.59275
2.59124
2.59647
2.60471
2.61085
2.614
2.61445
2.61156
2.60291
2.58662
2.56816
2.55154
2.5344
2.51582
2.49797
2.48413
2.47714
2.47612
2.48098
2.48909
2.49568
2.49731
2.49502
2.48966
2.48347
2.47428
2.45976
2.43958
2.41502
2.39361
2.38645
2.38718
1.65555
1.65586
1.66875
1.71528
1.80802
1.89425
1.94614
1.95722
1.95015
1.93959
1.93052
1.92588
1.93085
1.94563
1.95892
1.95974
1.95118
1.93977
1.92831
1.92121
1.91618
1.91355
1.91898
1.93174
1.93562
1.93093
1.92426
1.91599
1.90581
1.89792
1.89251
1.88846
1.88881
1.89922
1.91524
1.92589
1.9249
1.91916
1.91107
1.90015
1.89036
1.88365
1.87892
1.87851
1.88794
1.89924
1.90213
1.89945
1.8951
1.88972
1.88174
1.86971
1.86273
1.8538
1.87404
1.97627
2.21149
2.47045
2.71443
2.80269
2.85858
2.86915
2.87799
2.87229
2.85733
2.85094
2.84139
2.83719
2.84027
2.85117
2.85626
2.85259
2.84444
2.83414
2.82152
2.80447
2.78304
2.76168
2.74679
2.73922
2.73351
2.72758
2.72149
2.71603
2.71217
2.71083
2.71166
2.71247
2.71305
2.71276
2.7098
2.70387
2.69304
2.67762
2.66115
2.64604
2.6338
2.62478
2.61899
2.61577
2.61396
2.61354
2.61298
2.61133
2.60718
2.6
2.58986
2.58245
2.57602
2.56888
2.56045
2.55035
2.53771
2.52138
2.50434
2.49526
2.49167
2.48482
2.47822
2.47653
2.48279
2.49154
2.4972
2.49681
2.49129
2.47971
2.45812
2.42606
2.39854
1.67074
1.67569
1.71271
1.79238
1.89811
1.96606
1.97922
1.97354
1.96297
1.95308
1.9457
1.94196
1.94771
1.96531
1.97536
1.97
1.96102
1.95013
1.93937
1.93273
1.92896
1.92827
1.93698
1.95172
1.95175
1.945
1.9368
1.92621
1.91429
1.90568
1.90023
1.89688
1.89873
1.91079
1.92596
1.93279
1.93058
1.92529
1.91812
1.90873
1.90028
1.89461
1.89143
1.89401
1.90234
1.90705
1.90439
1.89978
1.8956
1.89118
1.88554
1.87897
1.86941
1.86317
1.86512
1.86705
1.90498
2.02771
2.26298
2.51363
2.71727
2.82613
2.84498
2.87657
2.87788
2.87457
2.86852
2.85782
2.85487
2.86265
2.86991
2.86834
2.86429
2.85978
2.85217
2.84127
2.82482
2.80256
2.7789
2.76168
2.75224
2.74599