/*--------------------------------*- C++ -*----------------------------------*\
  =========                 |
  \\      /  F ield         | OpenFOAM: The Open Source CFD Toolbox
   \\    /   O peration     | Website:  https://openfoam.org
    \\  /    A nd           | Version:  7
     \\/     M anipulation  |
\*---------------------------------------------------------------------------*/
FoamFile
{
    version     2.0;
    format      ascii;
    class       volVectorField;
    location    "1.6";
    object      U;
}
// * * * * * * * * * * * * * * * * * * * * * * * * * * * * * * * * * * * * * //

dimensions      [0 1 -1 0 0 0 0];

internalField   nonuniform List<vector> 
16192
(
(3 -2.98164e-15 0)
(3 -1.86905e-15 0)
(3 -1.21813e-15 0)
(3 -8.7087e-16 0)
(3 -7.0856e-16 0)
(3 -1.47232e-16 0)
(3 3.70466e-15 0)
(3 4.56653e-15 0)
(3 4.82022e-15 0)
(3 5.18407e-15 0)
(3 5.25275e-15 0)
(3 4.48406e-15 0)
(3 3.21721e-15 0)
(3 2.2071e-15 0)
(3 1.7211e-15 0)
(3 1.44201e-15 0)
(3 6.26221e-17 0)
(3 -7.85961e-16 0)
(3 -1.16017e-15 0)
(3 -1.80992e-15 0)
(3 -2.56386e-15 0)
(3 -3.09995e-15 0)
(3 -3.99446e-15 0)
(3 -4.60537e-15 0)
(3 -6.02924e-15 0)
(3 -6.05258e-15 0)
(3 -5.18443e-15 0)
(3 -3.7017e-15 0)
(3 -2.11197e-15 0)
(3 -1.68202e-15 0)
(3 1.21233e-15 0)
(3 3.008e-15 0)
(3 3.97443e-15 0)
(3 3.1151e-15 0)
(3 2.52431e-15 0)
(3 1.83891e-15 0)
(3 1.20884e-15 0)
(3 4.09046e-16 0)
(3 -7.09287e-16 0)
(3 -2.86389e-15 0)
(3 -3.59656e-15 0)
(3 -3.94505e-15 0)
(3 -4.53407e-15 0)
(3 -5.29035e-15 0)
(3 -4.60443e-15 0)
(3 -3.9903e-15 0)
(3 -3.80767e-15 0)
(3 -4.22006e-15 0)
(3 -4.73526e-15 0)
(3 -5.002e-15 0)
(3 -5.10972e-15 0)
(3 -5.14093e-15 0)
(3 -5.05548e-15 0)
(3 -4.56893e-15 0)
(3 -4.80037e-15 0)
(3 -4.56924e-15 0)
(3 -3.72181e-15 0)
(3 -2.07159e-15 0)
(3 -1.04899e-15 0)
(3 -5.77065e-16 0)
(3 -4.88033e-16 0)
(3 -1.85757e-15 0)
(3 -1.69101e-15 0)
(3 1.85556e-16 0)
(3 6.61349e-17 0)
(3 -1.66996e-16 0)
(3 1.86609e-17 0)
(3 2.52302e-17 0)
(3 1.70584e-16 0)
(3 1.89503e-16 0)
(3 5.43667e-16 0)
(3 1.5769e-15 0)
(3 3.21917e-15 0)
(3 3.10535e-15 0)
(3 3.27334e-15 0)
(3 2.04054e-15 0)
(3 1.49914e-15 0)
(3 1.12075e-15 0)
(3 6.91124e-16 0)
(3 2.60283e-16 0)
(3 -8.55356e-16 0)
(3 -5.81129e-16 0)
(3 -5.37036e-16 0)
(3 -7.2046e-16 0)
(3 -7.98204e-16 0)
(3 -7.97117e-16 0)
(3 -3.73859e-15 0)
(3 -4.34458e-15 0)
(3 -3.67976e-15 0)
(3 -3.30315e-15 0)
(3 -3.0886e-15 0)
(3 -3.16371e-15 0)
(3 -2.33359e-15 0)
(3 -2.06685e-15 0)
(3 -2.09617e-15 0)
(3 -1.65118e-15 0)
(3 -1.5483e-15 0)
(3 -1.25243e-15 0)
(3 -7.42766e-16 0)
(3 -9.44405e-16 0)
(3 -1.06428e-15 0)
(3 -5.58061e-16 0)
(3 -3.65295e-16 0)
(3 -7.51809e-16 0)
(3 -7.1211e-16 0)
(3 -8.40109e-16 0)
(3 -6.45999e-16 0)
(3 -5.98683e-16 0)
(3 -7.52657e-16 0)
(3 -1.19526e-15 0)
(3 -1.4313e-15 0)
(3 -1.10967e-15 0)
(3 -1.68894e-15 0)
(3 -1.35312e-15 0)
(3 -4.14882e-16 0)
(3 -1.11558e-16 0)
(3 3.90172e-16 0)
(3 6.28633e-16 0)
(3 1.44294e-16 0)
(3 -6.02687e-16 0)
(3 -5.65433e-16 0)
(3 -9.59507e-16 0)
(3 -2.04597e-15 0)
(3 -2.50798e-15 0)
(3 -2.31137e-15 0)
(3 -2.85894e-15 0)
(3 -2.56287e-15 0)
(3 -2.513e-15 0)
(3 -2.55341e-15 0)
(3 -1.10858e-15 0)
(3 4.61292e-16 0)
(3 1.78639e-15 0)
(3 1.97485e-15 0)
(3 2.15811e-15 0)
(3 1.73172e-15 0)
(3 7.18547e-16 0)
(3 1.3248e-15 0)
(3 2.0439e-15 0)
(3 2.45592e-15 0)
(3 3.2074e-15 0)
(3 1.12941e-15 0)
(3 -7.68768e-16 0)
(3 -2.43499e-15 0)
(3 -1.28706e-15 0)
(3 -4.49295e-16 0)
(3 -9.02653e-16 0)
(3 -9.27668e-16 0)
(3 -4.43135e-16 0)
(3 1.42316e-15 0)
(3 2.49302e-15 0)
(3 3.2728e-15 0)
(3 2.87776e-15 0)
(3 2.69655e-15 0)
(3 2.27045e-15 0)
(3 2.72329e-15 0)
(3 1.66703e-15 0)
(3 -2.62679e-16 0)
(3 -7.568e-16 0)
(3 -8.36959e-16 0)
(3 -6.35216e-16 0)
(3 -9.5584e-16 0)
(3 3.43011e-17 0)
(3 8.12557e-16 0)
(3 1.92319e-15 0)
(3 1.92543e-15 0)
(3 1.43615e-15 0)
(3 3.16099e-16 0)
(3 8.68292e-18 0)
(3 6.16119e-16 0)
(3 -1.43085e-16 0)
(3 -3.65453e-16 0)
(3 -1.36353e-15 0)
(3 -2.4645e-15 0)
(3 -2.47949e-15 0)
(3 -2.1331e-15 0)
(3 -2.46612e-15 0)
(3 -1.14347e-15 0)
(3 -6.12041e-16 0)
(3 -3.17422e-16 0)
(3 4.70933e-16 0)
(3 3.41939e-16 0)
(3 6.73298e-16 0)
(3 2.38764e-16 0)
(3 -8.70769e-16 0)
(3 -1.20266e-15 0)
(3 -1.08304e-15 0)
(3 -1.49823e-15 0)
(3 -2.51691e-15 0)
(3 -2.5353e-15 0)
(3 -3.27509e-15 0)
(3 -4.28052e-15 0)
(3 -3.98147e-15 0)
(3 -2.64766e-15 0)
(3 -1.58813e-15 0)
(3 -1.10685e-15 0)
(3 -1.36544e-15 0)
(3 -1.67946e-15 0)
(3 -5.29472e-16 0)
(3 2.85043e-15 0)
(3 3.48021e-15 0)
(3 3.46823e-15 0)
(3 3.34627e-15 0)
(3 3.12902e-15 0)
(3 3.18165e-15 0)
(3 3.20214e-15 0)
(3 3.00321e-15 0)
(3 2.35295e-15 0)
(3 2.2646e-15 0)
(3 1.40279e-15 0)
(3 1.19315e-15 0)
(3 1.3046e-15 0)
(3 3.34247e-16 0)
(3 -7.28622e-16 0)
(3 -1.36542e-15 0)
(3 -1.58399e-15 0)
(3 -2.56688e-15 0)
(3 -5.32966e-15 0)
(3 -5.41349e-15 0)
(3 -3.7288e-15 0)
(3 -1.22662e-15 0)
(3 -1.16517e-15 0)
(3 3.18704e-16 0)
(3 3.70536e-15 0)
(3 4.2499e-15 0)
(3 3.98139e-15 0)
(3 3.53457e-15 0)
(3 3.41549e-15 0)
(3 2.87277e-15 0)
(3 2.02919e-15 0)
(3 -3.19469e-17 0)
(3 -5.54941e-16 0)
(3 -2.04625e-15 0)
(3 -2.88655e-15 0)
(3 -3.09773e-15 0)
(3 -3.21051e-15 0)
(3 -3.24057e-15 0)
(3 -3.04824e-15 0)
(3 -2.94688e-15 0)
(3 -2.74938e-15 0)
(3 -2.91661e-15 0)
(3 -3.55043e-15 0)
(3 -3.9169e-15 0)
(3 -3.72946e-15 0)
(3 -3.8235e-15 0)
(3 -4.15869e-15 0)
(3 -5.06321e-15 0)
(3 -5.84653e-15 0)
(3 -5.21133e-15 0)
(3 -4.04562e-15 0)
(3 -3.36709e-15 0)
(3 -2.96946e-15 0)
(3 -2.39541e-15 0)
(3 -1.957e-15 0)
(3 -1.56385e-15 0)
(3 -1.33661e-15 0)
(3 5.88061e-17 0)
(3 2.21853e-16 0)
(3 2.01691e-16 0)
(3 6.79433e-16 0)
(3 9.34731e-16 0)
(3 6.81005e-16 0)
(3 5.35622e-16 0)
(3 1.08774e-15 0)
(3 1.90325e-15 0)
(3 1.84326e-15 0)
(3 1.68504e-15 0)
(3 1.08979e-15 0)
(3 -6.77309e-17 0)
(3 -3.5807e-16 0)
(3 -3.76553e-16 0)
(3 -2.33736e-16 0)
(3 -3.15948e-16 0)
(3 -8.25927e-16 0)
(3 -1.03765e-15 0)
(3 -1.12548e-15 0)
(3 -1.32771e-15 0)
(3 -1.78886e-15 0)
(3 -2.23078e-15 0)
(3 -2.6467e-15 0)
(3 -2.41279e-15 0)
(3 -1.17962e-15 0)
(3 3.79614e-17 0)
(3 -1.2264e-15 0)
(3 -2.66441e-15 0)
(3 -2.59265e-15 0)
(3 -2.74317e-15 0)
(3 -2.78729e-15 0)
(3 -2.05303e-15 0)
(3 -7.22735e-16 0)
(3 -5.33377e-16 0)
(3 -1.0182e-15 0)
(3 -2.85237e-16 0)
(3 2.06283e-16 0)
(3 6.64785e-16 0)
(3 6.67943e-16 0)
(3 -3.05822e-16 0)
(3 -2.30108e-15 0)
(3 -3.27193e-15 0)
(3 -2.92457e-15 0)
(3 -1.4473e-15 0)
(3 -1.09658e-15 0)
(3 -1.28473e-15 0)
(3 -8.87663e-16 0)
(3 -4.18398e-16 0)
(3 -1.28751e-15 0)
(3 -3.29828e-15 0)
(3 -4.02465e-15 0)
(3 -3.14854e-15 0)
(3 -1.97933e-15 0)
(3 -1.81133e-15 0)
(3 -5.19268e-16 0)
(3 3.47308e-17 0)
(3 -1.04807e-15 0)
(3 -1.79214e-15 0)
(3 -7.17046e-16 0)
(3 -7.16889e-16 0)
(3 -2.1248e-16 0)
(3 6.02042e-16 0)
(3 5.51221e-16 0)
(3 4.72876e-16 0)
(3 8.56698e-16 0)
(3 2.0172e-15 0)
(3 2.2689e-15 0)
(3 3.07404e-15 0)
(3 3.01415e-15 0)
(3 3.72848e-15 0)
(3 3.4388e-15 0)
(3 2.01536e-15 0)
(3 1.8874e-15 0)
(3 1.87227e-15 0)
(3 1.47313e-15 0)
(3 1.78155e-15 0)
(3 2.98441e-16 0)
(3 -2.29049e-15 0)
(3 -2.67203e-15 0)
(3 -2.3958e-15 0)
(3 -2.10997e-15 0)
(3 -1.26169e-15 0)
(3 6.32289e-16 0)
(3 2.81982e-15 0)
(3 3.16203e-15 0)
(3 3.42984e-15 0)
(3 3.51076e-15 0)
(3 3.184e-15 0)
(3 2.65079e-15 0)
(3 3.26821e-15 0)
(3 3.73616e-15 0)
(3 2.8278e-15 0)
(3 1.10592e-15 0)
(3 6.66681e-16 0)
(3 7.27909e-16 0)
(3 7.76043e-16 0)
(3 9.74318e-17 0)
(3 -4.17339e-16 0)
(3 1.05316e-17 0)
(3 3.72022e-16 0)
(3 1.27017e-15 0)
(3 1.16808e-15 0)
(3 4.95977e-16 0)
(3 1.85343e-16 0)
(3 -5.15322e-16 0)
(3 -3.01044e-16 0)
(3 -6.03559e-16 0)
(3 -8.52606e-16 0)
(3 2.86253e-16 0)
(3 -4.41997e-16 0)
(3 -1.15651e-15 0)
(3 -1.43072e-15 0)
(3 -1.19906e-15 0)
(3 -1.2718e-15 0)
(3 -1.23435e-15 0)
(3 -1.05066e-15 0)
(3 -5.76081e-16 0)
(3 2.48651e-16 0)
(3 5.58321e-16 0)
(3 -1.16691e-15 0)
(3 -2.11763e-15 0)
(3 -1.47715e-15 0)
(3 -2.27099e-16 0)
(3 -1.56704e-16 0)
(3 -2.24351e-16 0)
(3 -1.89666e-15 0)
(3 -4.43966e-15 0)
(3 -3.7714e-15 0)
(3 -2.19573e-15 0)
(3 -1.62184e-15 0)
(3 -1.52737e-15 0)
(3 -1.52892e-15 0)
(3 -1.73762e-15 0)
(3 -1.06129e-15 0)
(3 2.8461e-16 0)
(3 1.00677e-15 0)
(3 1.65284e-15 0)
(3 1.79734e-15 0)
(3 1.70212e-15 0)
(3 1.71418e-15 0)
(3 2.40351e-15 0)
(3 2.84842e-15 0)
(3 3.11881e-15 0)
(3 1.78273e-15 0)
(3 1.70042e-15 0)
(3 1.7619e-15 0)
(3 1.94317e-15 0)
(3 1.71739e-15 0)
(3 1.67417e-15 0)
(3 2.00705e-15 0)
(3 1.582e-15 0)
(3 2.38084e-16 0)
(3 -1.07815e-15 0)
(3 -2.71273e-15 0)
(3 -2.27144e-15 0)
(3 -1.9395e-16 0)
(3 -1.42544e-17 0)
(3 -4.54156e-16 0)
(3 1.44516e-16 0)
(3 6.08462e-16 0)
(3 1.3023e-15 0)
(3 1.12234e-15 0)
(3 9.81323e-16 0)
(3 1.61884e-15 0)
(3 2.73061e-15 0)
(3 2.85935e-15 0)
(3 1.73369e-15 0)
(3 -6.54935e-16 0)
(3 -2.40039e-15 0)
(3 -2.90577e-15 0)
(3 -2.01178e-15 0)
(3 -1.2834e-15 0)
(3 -1.80553e-15 0)
(3 -2.52901e-15 0)
(3 -2.52777e-15 0)
(3 -2.30967e-15 0)
(3 -1.84953e-15 0)
(3 -2.26136e-15 0)
(3 -1.72583e-15 0)
(3 -1.91802e-16 0)
(3 -5.70553e-16 0)
(3 -2.01024e-15 0)
(3 -2.47417e-15 0)
(3 -4.08293e-15 0)
(3 -4.52498e-15 0)
(3 -4.92709e-15 0)
(3 -4.00631e-15 0)
(3 -3.48429e-15 0)
(3 -3.7103e-15 0)
(3 -2.53616e-15 0)
(3 -1.64303e-16 0)
(3 3.27498e-17 0)
(3 -1.30081e-16 0)
(3 -9.59436e-17 0)
(3 -4.15887e-16 0)
(3 -3.32334e-16 0)
(3 -2.98234e-16 0)
(3 -1.63052e-17 0)
(3 -3.55491e-16 0)
(3 1.21478e-16 0)
(3 5.57193e-16 0)
(3 4.86153e-16 0)
(3 -5.20822e-16 0)
(3 -9.76935e-16 0)
(3 -9.74652e-16 0)
(3 -8.20564e-16 0)
(3 -5.68359e-16 0)
(3 -1.11795e-15 0)
(3 -1.01871e-15 0)
(3 -2.04822e-15 0)
(3 -2.52754e-15 0)
(3 -2.97717e-15 0)
(3 -3.80158e-15 0)
(3 -3.49517e-15 0)
(3 -1.86013e-15 0)
(3 1.2434e-15 0)
(3 2.26907e-15 0)
(3 2.1845e-15 0)
(3 2.12492e-15 0)
(3 1.02031e-15 0)
(3 2.14352e-16 0)
(3 -4.69669e-16 0)
(3 -1.40582e-15 0)
(3 -1.74829e-15 0)
(3 -1.6338e-15 0)
(3 -1.10186e-15 0)
(3 -7.06376e-16 0)
(3 -2.95498e-16 0)
(3 1.69245e-15 0)
(3 1.70487e-15 0)
(3 1.80586e-15 0)
(3 8.85226e-16 0)
(3 -2.41366e-15 0)
(3 -3.0512e-15 0)
(3 -2.57139e-15 0)
(3 -1.83209e-15 0)
(3 -1.44479e-15 0)
(3 -1.30442e-15 0)
(3 -1.51023e-15 0)
(3 -9.37363e-16 0)
(3 -7.75637e-16 0)
(3 -2.27746e-15 0)
(3 -3.70667e-15 0)
(3 -2.93182e-15 0)
(3 -1.43473e-15 0)
(3 4.2384e-16 0)
(3 6.27829e-16 0)
(3 6.12798e-16 0)
(3 -9.35938e-17 0)
(3 -7.01332e-16 0)
(3 -6.60094e-16 0)
(3 1.0597e-16 0)
(3 8.41582e-16 0)
(3 4.08482e-15 0)
(3 4.2641e-15 0)
(3 3.62214e-15 0)
(3 4.07462e-15 0)
(3 3.48566e-15 0)
(3 2.81844e-15 0)
(3 2.81453e-15 0)
(3 2.85998e-15 0)
(3 2.7646e-15 0)
(3 1.86264e-15 0)
(3 7.15011e-16 0)
(3 -5.04843e-16 0)
(3 -7.48429e-16 0)
(3 -7.66374e-16 0)
(3 -1.11132e-15 0)
(3 -1.28845e-15 0)
(3 -2.058e-15 0)
(3 -1.70898e-15 0)
(3 -1.88639e-15 0)
(3 -1.35891e-15 0)
(3 -3.7286e-16 0)
(3 1.56506e-15 0)
(3 4.21926e-15 0)
(3 4.69895e-15 0)
(3 4.46713e-15 0)
(3 4.17102e-15 0)
(3 3.65272e-15 0)
(3 3.14231e-15 0)
(3 3.28694e-15 0)
(3 3.29602e-15 0)
(3 2.63736e-15 0)
(3 1.94911e-15 0)
(3 9.5228e-16 0)
(3 6.79725e-16 0)
(3 -1.21023e-16 0)
(3 6.13219e-16 0)
(3 1.07679e-15 0)
(3 1.14086e-15 0)
(3 1.28367e-15 0)
(3 8.50686e-16 0)
(3 1.19577e-16 0)
(3 -3.01654e-16 0)
(3 5.46927e-16 0)
(3 -5.27664e-16 0)
(3 -9.74682e-16 0)
(3 -8.11882e-16 0)
(3 -5.80543e-16 0)
(3 -2.73961e-16 0)
(3 -4.05963e-16 0)
(3 -8.01638e-16 0)
(3 -4.6641e-16 0)
(3 -1.67109e-17 0)
(3 1.35327e-16 0)
(3 -4.17289e-16 0)
(3 -4.76593e-16 0)
(3 -5.97695e-16 0)
(3 -2.37168e-16 0)
(3 4.70264e-17 0)
(3 -1.36426e-16 0)
(3 -6.04651e-16 0)
(3 -1.16205e-15 0)
(3 -4.50727e-16 0)
(3 1.87217e-15 0)
(3 2.29699e-15 0)
(3 7.85868e-16 0)
(3 -7.32222e-16 0)
(3 -1.72796e-15 0)
(3 -1.88504e-15 0)
(3 -1.48455e-15 0)
(3 -1.26012e-15 0)
(3 -2.38778e-15 0)
(3 -2.57385e-15 0)
(3 -2.72875e-15 0)
(3 -1.95684e-15 0)
(3 -9.69882e-16 0)
(3 -1.06789e-15 0)
(3 -5.63892e-16 0)
(3 -3.00538e-16 0)
(3 -1.75163e-16 0)
(3 -2.36729e-16 0)
(3 7.33477e-16 0)
(3 1.81705e-15 0)
(3 1.07289e-15 0)
(3 9.9831e-16 0)
(3 9.08016e-16 0)
(3 7.2055e-16 0)
(3 3.2612e-15 0)
(3 4.2852e-15 0)
(3 3.87001e-15 0)
(3 2.36357e-15 0)
(3 1.74534e-15 0)
(3 1.1295e-15 0)
(3 5.85138e-16 0)
(3 1.51257e-16 0)
(3 1.15805e-15 0)
(3 1.10511e-15 0)
(3 -6.66862e-16 0)
(3 -9.81829e-16 0)
(3 -4.99802e-16 0)
(3 -6.24501e-16 0)
(3 -1.09643e-15 0)
(3 -1.06852e-15 0)
(3 2.52641e-16 0)
(3 2.25817e-15 0)
(3 3.3594e-15 0)
(3 2.35356e-15 0)
(3 9.234e-16 0)
(3 -2.15237e-15 0)
(3 -2.58075e-15 0)
(3 -2.3886e-15 0)
(3 -3.0584e-15 0)
(3 -2.89934e-15 0)
(3 -3.32289e-15 0)
(3 -4.01906e-15 0)
(3 -2.59036e-15 0)
(3 -1.55507e-15 0)
(3 -2.12201e-15 0)
(3 -1.68754e-15 0)
(3 7.87834e-16 0)
(3 1.16829e-15 0)
(3 8.15114e-16 0)
(3 4.66664e-17 0)
(3 -7.17325e-16 0)
(3 -8.05568e-17 0)
(3 -1.6452e-15 0)
(3 -1.70345e-15 0)
(3 -1.57747e-15 0)
(3 -1.64276e-15 0)
(3 -6.28914e-16 0)
(3 9.9153e-16 0)
(3 2.61129e-15 0)
(3 -3.92848e-16 0)
(3 8.50451e-17 0)
(3 4.86401e-17 0)
(3 -5.94157e-16 0)
(3 -2.76106e-16 0)
(3 -2.3328e-16 0)
(3 -7.66382e-16 0)
(3 -1.18595e-15 0)
(3 -4.17913e-16 0)
(3 -7.32499e-16 0)
(3 -5.50475e-16 0)
(3 -8.95875e-16 0)
(3 -9.76488e-16 0)
(3 -7.47137e-16 0)
(3 -7.59833e-16 0)
(3 -1.41528e-15 0)
(3 -1.94261e-15 0)
(3 -2.87495e-15 0)
(3 -3.51026e-15 0)
(3 -3.9563e-15 0)
(3 -3.69611e-15 0)
(3 -2.58027e-15 0)
(3 -3.18413e-16 0)
(3 1.6282e-15 0)
(3 2.15558e-15 0)
(3 2.10055e-15 0)
(3 2.69031e-15 0)
(3 2.39676e-15 0)
(3 1.67348e-15 0)
(3 1.29632e-15 0)
(3 4.81038e-16 0)
(3 -1.59073e-15 0)
(3 -2.95865e-15 0)
(3 -1.14465e-15 0)
(3 1.13167e-15 0)
(3 3.95915e-16 0)
(3 2.78835e-16 0)
(3 3.2156e-16 0)
(3 -8.07018e-17 0)
(3 -7.0589e-16 0)
(3 -2.54788e-15 0)
(3 -3.24549e-15 0)
(3 -2.97716e-15 0)
(3 -3.17645e-15 0)
(3 -3.81319e-15 0)
(3 -3.59041e-15 0)
(3 -2.61914e-15 0)
(3 -1.68247e-15 0)
(3 -1.83277e-15 0)
(3 -1.63356e-15 0)
(3 -1.92382e-15 0)
(3 -1.21168e-15 0)
(3 -5.47535e-16 0)
(3 1.376e-16 0)
(3 2.14197e-17 0)
(3 -2.26927e-16 0)
(3 2.19631e-16 0)
(3 2.87021e-16 0)
(3 -1.25333e-15 0)
(3 -1.18029e-15 0)
(3 2.05258e-16 0)
(3 6.5569e-16 0)
(3 2.40476e-15 0)
(3 3.92946e-15 0)
(3 4.43325e-15 0)
(3 2.9137e-15 0)
(3 3.27621e-15 0)
(3 2.58967e-15 0)
(3 2.29875e-15 0)
(3 1.27329e-15 0)
(3 6.10882e-16 0)
(3 8.47402e-16 0)
(3 2.05167e-16 0)
(3 -1.13738e-15 0)
(3 -1.69061e-15 0)
(3 -2.04378e-15 0)
(3 -1.51685e-15 0)
(3 -1.71506e-15 0)
(3 -1.63648e-15 0)
(3 -8.88701e-16 0)
(3 -4.31665e-16 0)
(3 8.92491e-16 0)
(3 1.52663e-15 0)
(3 4.88897e-15 0)
(3 6.08937e-15 0)
(3 6.46033e-15 0)
(3 4.9261e-15 0)
(3 3.23644e-15 0)
(3 2.81261e-15 0)
(3 2.73259e-15 0)
(3 2.88327e-15 0)
(3 2.77279e-15 0)
(3 3.10137e-15 0)
(3 3.05548e-15 0)
(3 1.62809e-15 0)
(3 1.06108e-15 0)
(3 2.2127e-15 0)
(3 1.88038e-15 0)
(3 1.39194e-15 0)
(3 1.13192e-15 0)
(3 1.91526e-17 0)
(3 -1.55332e-16 0)
(3 2.66805e-16 0)
(3 4.88451e-16 0)
(3 1.6923e-16 0)
(3 -7.47675e-16 0)
(3 -5.5207e-16 0)
(3 -2.76168e-16 0)
(3 -1.02675e-15 0)
(3 -4.69738e-16 0)
(3 -4.55147e-16 0)
(3 -1.15798e-16 0)
(3 1.53358e-16 0)
(3 1.22755e-15 0)
(3 1.55243e-15 0)
(3 -2.71364e-16 0)
(3 -3.95277e-16 0)
(3 -6.42304e-17 0)
(3 1.87419e-16 0)
(3 1.22361e-16 0)
(3 2.94533e-16 0)
(3 3.2704e-16 0)
(3 5.66803e-16 0)
(3 1.88051e-15 0)
(3 2.60336e-15 0)
(3 1.88528e-15 0)
(3 1.80768e-15 0)
(3 1.1054e-15 0)
(3 -4.71605e-16 0)
(3 -4.69228e-16 0)
(3 -5.00115e-16 0)
(3 -2.12457e-15 0)
(3 -2.21471e-15 0)
(3 -2.62034e-15 0)
(3 -3.08696e-15 0)
(3 -3.62229e-15 0)
(3 -3.63323e-15 0)
(3 -3.06883e-15 0)
(3 -2.68164e-15 0)
(3 -2.57089e-15 0)
(3 -2.41105e-15 0)
(3 -1.7491e-15 0)
(3 -1.02901e-15 0)
(3 -1.21837e-16 0)
(3 2.71668e-16 0)
(3 -1.41175e-16 0)
(3 3.33196e-16 0)
(3 1.68916e-15 0)
(3 4.73893e-15 0)
(3 5.40472e-15 0)
(3 5.04268e-15 0)
(3 4.17664e-15 0)
(3 3.46005e-15 0)
(3 3.38058e-15 0)
(3 1.9283e-15 0)
(3 2.0324e-15 0)
(3 1.85217e-15 0)
(3 1.32051e-15 0)
(3 1.14084e-15 0)
(3 1.73306e-16 0)
(3 -1.4311e-15 0)
(3 -1.87785e-15 0)
(3 -1.42747e-15 0)
(3 -1.20814e-15 0)
(3 -1.65038e-15 0)
(3 6.82117e-17 0)
(3 9.9386e-16 0)
(3 5.19839e-16 0)
(3 -3.56884e-16 0)
(3 -7.23993e-16 0)
(3 -2.31773e-15 0)
(3 -4.31044e-15 0)
(3 -4.4335e-15 0)
(3 -3.90606e-15 0)
(3 -3.7415e-15 0)
(3 -1.74785e-15 0)
(3 -1.24305e-15 0)
(3 -1.15838e-15 0)
(3 -3.70944e-16 0)
(3 2.3868e-15 0)
(3 2.9178e-15 0)
(3 3.02602e-15 0)
(3 2.8041e-15 0)
(3 2.85168e-15 0)
(3 3.43604e-15 0)
(3 1.13637e-15 0)
(3 2.59388e-16 0)
(3 9.27052e-16 0)
(3 1.6297e-15 0)
(3 2.25445e-15 0)
(3 3.35886e-15 0)
(3 3.76437e-15 0)
(3 -1.25883e-17 0)
(3 2.79819e-16 0)
(3 2.06328e-16 0)
(3 1.3125e-16 0)
(3 1.61223e-16 0)
(3 2.47773e-16 0)
(3 -9.28767e-17 0)
(3 -1.43814e-15 0)
(3 -2.67922e-15 0)
(3 -1.76891e-15 0)
(3 -7.28237e-16 0)
(3 -5.4526e-16 0)
(3 -5.06513e-16 0)
(3 -4.57468e-16 0)
(3 -1.08166e-15 0)
(3 -1.5153e-15 0)
(3 -1.51355e-15 0)
(3 -1.71014e-15 0)
(3 -2.49293e-15 0)
(3 -2.85772e-15 0)
(3 -2.07442e-15 0)
(3 -5.07139e-16 0)
(3 1.07605e-16 0)
(3 2.92358e-17 0)
(3 -5.60331e-16 0)
(3 2.16326e-15 0)
(3 3.31456e-15 0)
(3 2.98734e-15 0)
(3 1.99168e-15 0)
(3 1.01016e-15 0)
(3 1.17032e-16 0)
(3 -3.57999e-16 0)
(3 -2.90581e-16 0)
(3 1.00125e-15 0)
(3 1.09926e-15 0)
(3 2.62703e-16 0)
(3 -1.88682e-15 0)
(3 -2.1835e-15 0)
(3 -2.52281e-15 0)
(3 -2.30708e-15 0)
(3 -3.35526e-15 0)
(3 -3.87974e-15 0)
(3 -4.35359e-15 0)
(3 -4.13695e-15 0)
(3 -3.79884e-15 0)
(3 -2.858e-15 0)
(3 -2.20263e-15 0)
(3 -2.02886e-15 0)
(3 -1.48137e-15 0)
(3 -2.42946e-16 0)
(3 -2.57919e-16 0)
(3 -7.03729e-16 0)
(3 -8.37035e-16 0)
(3 -3.62356e-16 0)
(3 1.71516e-16 0)
(3 6.92739e-16 0)
(3 1.62453e-15 0)
(3 1.36368e-15 0)
(3 9.47286e-16 0)
(3 3.42379e-16 0)
(3 -5.37624e-16 0)
(3 -7.57984e-16 0)
(3 -3.18277e-16 0)
(3 5.16351e-16 0)
(3 1.8555e-16 0)
(3 8.13902e-16 0)
(3 1.88362e-15 0)
(3 1.60249e-15 0)
(3 7.28443e-16 0)
(3 -5.07729e-17 0)
(3 2.91573e-16 0)
(3 4.01064e-16 0)
(3 -3.05365e-16 0)
(3 -1.78993e-15 0)
(3 -2.41217e-15 0)
(3 -2.60975e-15 0)
(3 -3.05836e-15 0)
(3 -3.16047e-15 0)
(3 -8.46791e-16 0)
(3 -2.33579e-16 0)
(3 4.63154e-17 0)
(3 8.26674e-16 0)
(3 2.66098e-15 0)
(3 4.85474e-15 0)
(3 5.55611e-15 0)
(3 4.291e-15 0)
(3 2.50999e-15 0)
(3 1.6963e-15 0)
(3 1.68361e-15 0)
(3 2.15816e-15 0)
(3 2.33793e-15 0)
(3 3.32039e-15 0)
(3 4.71512e-15 0)
(3 4.00087e-15 0)
(3 2.47423e-15 0)
(3 2.49568e-15 0)
(3 3.29319e-15 0)
(3 2.94405e-15 0)
(3 1.40288e-15 0)
(3 4.98593e-16 0)
(3 8.55029e-17 0)
(3 4.41562e-16 0)
(3 1.08854e-15 0)
(3 8.05711e-16 0)
(3 2.1655e-16 0)
(3 -2.39887e-16 0)
(3 7.83582e-18 0)
(3 -2.3843e-16 0)
(3 -3.06745e-16 0)
(3 -1.44597e-16 0)
(3 8.42169e-16 0)
(3 7.3608e-16 0)
(3 6.49259e-16 0)
(3 9.14449e-16 0)
(3 1.34104e-15 0)
(3 -3.03991e-16 0)
(3 4.3448e-17 0)
(3 3.55966e-16 0)
(3 1.8779e-16 0)
(3 2.41804e-16 0)
(3 1.33358e-15 0)
(3 3.41869e-15 0)
(3 3.8568e-15 0)
(3 3.60843e-15 0)
(3 2.80146e-15 0)
(3 2.2436e-15 0)
(3 2.32417e-15 0)
(3 2.83332e-15 0)
(3 1.05588e-15 0)
(3 -1.03433e-15 0)
(3 -1.27794e-15 0)
(3 -8.02232e-16 0)
(3 -1.63242e-15 0)
(3 -2.09417e-15 0)
(3 -3.10756e-15 0)
(3 -3.51783e-15 0)
(3 -3.91215e-15 0)
(3 -4.37373e-15 0)
(3 -4.34304e-15 0)
(3 -3.73426e-15 0)
(3 -4.03635e-15 0)
(3 -3.41245e-15 0)
(3 -2.77065e-15 0)
(3 -1.60545e-15 0)
(3 -5.26825e-16 0)
(3 -5.30513e-16 0)
(3 -8.81272e-16 0)
(3 -7.30639e-16 0)
(3 3.61371e-16 0)
(3 2.89062e-15 0)
(3 4.05873e-15 0)
(3 6.35801e-15 0)
(3 6.56568e-15 0)
(3 6.63737e-15 0)
(3 4.91898e-15 0)
(3 3.53565e-15 0)
(3 3.85126e-15 0)
(3 3.25272e-15 0)
(3 2.82254e-15 0)
(3 2.13641e-15 0)
(3 1.50181e-15 0)
(3 1.19435e-15 0)
(3 9.79043e-16 0)
(3 8.53098e-17 0)
(3 -1.38794e-15 0)
(3 -9.72115e-16 0)
(3 -1.27739e-15 0)
(3 -1.54055e-15 0)
(3 -3.36069e-16 0)
(3 -1.82132e-15 0)
(3 -2.25471e-15 0)
(3 -2.92496e-15 0)
(3 -3.18668e-15 0)
(3 -2.18536e-15 0)
(3 -5.33915e-16 0)
(3 2.35615e-16 0)
(3 5.1114e-16 0)
(3 6.88822e-16 0)
(3 2.03156e-15 0)
(3 2.74894e-15 0)
(3 3.55308e-15 0)
(3 4.17984e-15 0)
(3 4.96824e-15 0)
(3 5.63133e-15 0)
(3 5.37405e-15 0)
(3 3.79567e-15 0)
(3 3.15794e-15 0)
(3 2.73309e-15 0)
(3 3.52994e-15 0)
(3 4.17735e-15 0)
(3 3.8194e-15 0)
(3 3.55224e-15 0)
(3 -6.3416e-17 0)
(3 -3.89136e-16 0)
(3 -6.53273e-16 0)
(3 -5.88576e-16 0)
(3 -6.69416e-16 0)
(3 -1.02407e-15 0)
(3 -1.35527e-15 0)
(3 -1.28971e-15 0)
(3 -1.69164e-15 0)
(3 -1.58377e-15 0)
(3 -9.8598e-16 0)
(3 -8.19104e-16 0)
(3 -1.49562e-15 0)
(3 -2.45211e-15 0)
(3 -2.73266e-15 0)
(3 -2.47469e-15 0)
(3 -1.80241e-15 0)
(3 -1.55454e-15 0)
(3 -1.63622e-15 0)
(3 -1.18537e-15 0)
(3 -7.26816e-16 0)
(3 -9.27585e-16 0)
(3 -1.14463e-15 0)
(3 -1.7066e-15 0)
(3 -8.17449e-16 0)
(3 2.63506e-15 0)
(3 4.9976e-15 0)
(3 4.08335e-15 0)
(3 2.67559e-15 0)
(3 1.56856e-15 0)
(3 6.37757e-16 0)
(3 4.31756e-16 0)
(3 1.72954e-15 0)
(3 1.91935e-15 0)
(3 1.39854e-15 0)
(3 1.19583e-15 0)
(3 6.96914e-16 0)
(3 -8.91884e-16 0)
(3 -2.51761e-15 0)
(3 -3.22964e-15 0)
(3 -2.92128e-15 0)
(3 -1.57458e-15 0)
(3 -1.97186e-15 0)
(3 -3.09835e-15 0)
(3 -2.74609e-15 0)
(3 -1.48036e-15 0)
(3 -1.27113e-15 0)
(3 -2.00751e-15 0)
(3 -1.67338e-15 0)
(3 -1.66515e-15 0)
(3 -2.11981e-15 0)
(3 -2.6701e-15 0)
(3 -2.08279e-15 0)
(3 -1.29888e-15 0)
(3 2.50802e-17 0)
(3 1.5622e-15 0)
(3 2.59692e-15 0)
(3 2.52352e-15 0)
(3 2.57709e-15 0)
(3 2.02578e-15 0)
(3 1.65404e-16 0)
(3 -7.2315e-16 0)
(3 -2.92763e-15 0)
(3 -3.95003e-15 0)
(3 -2.70049e-15 0)
(3 -7.0307e-16 0)
(3 4.47854e-16 0)
(3 1.26248e-15 0)
(3 1.31023e-15 0)
(3 9.3656e-16 0)
(3 -1.93369e-16 0)
(3 -1.20323e-15 0)
(3 -1.29775e-15 0)
(3 -1.63026e-15 0)
(3 -2.92922e-15 0)
(3 -5.08119e-15 0)
(3 -6.09935e-15 0)
(3 -4.83627e-15 0)
(3 -1.8303e-15 0)
(3 -4.02001e-16 0)
(3 -8.51655e-17 0)
(3 1.17473e-15 0)
(3 2.49224e-15 0)
(3 1.89837e-15 0)
(3 9.16838e-16 0)
(3 9.44964e-16 0)
(3 1.52891e-15 0)
(3 2.02224e-15 0)
(3 2.56047e-15 0)
(3 1.61996e-15 0)
(3 5.81134e-16 0)
(3 1.8569e-15 0)
(3 2.44895e-15 0)
(3 3.45009e-15 0)
(3 3.17971e-15 0)
(3 1.79257e-15 0)
(3 1.047e-15 0)
(3 1.32355e-15 0)
(3 5.22671e-16 0)
(3 -2.45521e-16 0)
(3 -7.61634e-17 0)
(3 7.56379e-16 0)
(3 7.93406e-16 0)
(3 8.37696e-16 0)
(3 1.09857e-15 0)
(3 1.51503e-15 0)
(3 1.46568e-15 0)
(3 7.2181e-16 0)
(3 6.14303e-16 0)
(3 8.17922e-16 0)
(3 1.94314e-15 0)
(3 2.17847e-15 0)
(3 1.67649e-15 0)
(3 1.62889e-15 0)
(3 9.67341e-16 0)
(3 1.52522e-15 0)
(3 7.97016e-16 0)
(3 5.9232e-17 0)
(3 5.78803e-17 0)
(3 5.38992e-16 0)
(3 1.25717e-15 0)
(3 2.1929e-15 0)
(3 2.4252e-15 0)
(3 2.38231e-15 0)
(3 2.48443e-15 0)
(3 2.29663e-15 0)
(3 2.81747e-15 0)
(3 2.6978e-15 0)
(3 1.37158e-15 0)
(3 1.20219e-16 0)
(3 -1.09734e-15 0)
(3 -1.90664e-15 0)
(3 -2.34584e-15 0)
(3 -2.96707e-15 0)
(3 -3.44823e-15 0)
(3 -2.7602e-15 0)
(3 -2.80782e-15 0)
(3 -1.73461e-15 0)
(3 -1.47628e-15 0)
(3 -1.9122e-15 0)
(3 -1.83242e-15 0)
(3 -2.20423e-15 0)
(3 -2.80877e-15 0)
(3 -3.13514e-15 0)
(3 -3.19577e-15 0)
(3 -2.15527e-15 0)
(3 -2.38352e-15 0)
(3 -3.0164e-15 0)
(3 -7.28584e-16 0)
(3 -1.55094e-17 0)
(3 1.28045e-15 0)
(3 4.6958e-15 0)
(3 7.51898e-15 0)
(3 7.82974e-15 0)
(3 7.60928e-15 0)
(3 6.88587e-15 0)
(3 5.27145e-15 0)
(3 4.61104e-15 0)
(3 4.08178e-15 0)
(3 3.7852e-15 0)
(3 3.997e-15 0)
(3 3.58774e-15 0)
(3 2.45423e-15 0)
(3 3.34303e-16 0)
(3 -1.52086e-15 0)
(3 -2.84989e-15 0)
(3 -4.18023e-15 0)
(3 -2.11819e-15 0)
(3 -1.80634e-15 0)
(3 -1.96298e-15 0)
(3 -1.64e-15 0)
(3 -2.0954e-15 0)
(3 -1.53104e-15 0)
(3 -1.13941e-15 0)
(3 -6.8727e-16 0)
(3 -1.16054e-16 0)
(3 1.48701e-15 0)
(3 2.02255e-15 0)
(3 1.911e-15 0)
(3 2.77782e-15 0)
(3 3.53711e-15 0)
(3 4.5053e-15 0)
(3 6.25898e-15 0)
(3 7.38379e-15 0)
(3 6.59944e-15 0)
(3 5.94492e-15 0)
(3 5.87225e-15 0)
(3 6.19765e-15 0)
(3 6.27146e-15 0)
(3 5.03808e-15 0)
(3 2.46402e-15 0)
(3 2.53007e-15 0)
(3 8.2654e-17 0)
(3 5.52018e-17 0)
(3 1.93392e-17 0)
(3 -1.10191e-16 0)
(3 -8.77608e-16 0)
(3 -1.03594e-15 0)
(3 -9.38397e-16 0)
(3 -5.86773e-16 0)
(3 -5.89616e-16 0)
(3 -1.40741e-15 0)
(3 -1.87529e-15 0)
(3 -1.86092e-15 0)
(3 -1.97336e-15 0)
(3 -2.41564e-15 0)
(3 -2.68834e-15 0)
(3 -2.90089e-15 0)
(3 -2.45874e-15 0)
(3 -2.04683e-15 0)
(3 -1.52269e-15 0)
(3 -6.077e-16 0)
(3 -4.63369e-16 0)
(3 -3.9125e-16 0)
(3 -7.17698e-16 0)
(3 -9.8979e-16 0)
(3 -9.57505e-17 0)
(3 2.41207e-15 0)
(3 2.07478e-15 0)
(3 3.66213e-15 0)
(3 3.4534e-15 0)
(3 2.96172e-15 0)
(3 2.93789e-15 0)
(3 2.92261e-15 0)
(3 2.07328e-15 0)
(3 1.92515e-15 0)
(3 2.08245e-15 0)
(3 2.12763e-15 0)
(3 1.82671e-15 0)
(3 4.24109e-16 0)
(3 -9.83251e-16 0)
(3 -1.83527e-15 0)
(3 -9.97624e-16 0)
(3 -5.63296e-16 0)
(3 -1.21487e-15 0)
(3 -4.7594e-16 0)
(3 -5.9197e-16 0)
(3 -5.3515e-16 0)
(3 -9.72911e-18 0)
(3 2.7092e-16 0)
(3 2.83439e-17 0)
(3 -1.02908e-16 0)
(3 -2.14611e-16 0)
(3 -2.29617e-16 0)
(3 -2.53379e-16 0)
(3 -2.96075e-16 0)
(3 4.96312e-16 0)
(3 1.53846e-15 0)
(3 2.00325e-15 0)
(3 3.12469e-15 0)
(3 3.35879e-15 0)
(3 2.95832e-15 0)
(3 1.34806e-15 0)
(3 -1.27469e-15 0)
(3 -3.94226e-15 0)
(3 -4.19163e-15 0)
(3 -2.66083e-15 0)
(3 -1.48772e-15 0)
(3 -1.40797e-15 0)
(3 -1.56123e-15 0)
(3 -1.22386e-15 0)
(3 -6.17313e-16 0)
(3 -8.44623e-16 0)
(3 -1.39017e-15 0)
(3 -2.05255e-15 0)
(3 -2.05792e-15 0)
(3 -2.51806e-15 0)
(3 -3.79302e-15 0)
(3 -4.30207e-15 0)
(3 -3.58867e-15 0)
(3 -1.24742e-15 0)
(3 1.09168e-16 0)
(3 1.26706e-15 0)
(3 1.64788e-15 0)
(3 1.76458e-15 0)
(3 8.71052e-16 0)
(3 7.92658e-16 0)
(3 8.69538e-16 0)
(3 1.96415e-15 0)
(3 3.72816e-15 0)
(3 4.53553e-15 0)
(3 3.69068e-15 0)
(3 3.41225e-15 0)
(3 2.55984e-15 0)
(3 2.05828e-15 0)
(3 2.22627e-15 0)
(3 1.9143e-15 0)
(3 1.00346e-15 0)
(3 -1.75597e-15 0)
(3 -2.13366e-15 0)
(3 -1.08211e-15 0)
(3 -6.27644e-16 0)
(3 -4.52551e-16 0)
(3 2.26475e-16 0)
(3 1.02887e-15 0)
(3 1.14361e-15 0)
(3 2.25334e-15 0)
(3 2.67691e-15 0)
(3 2.38371e-15 0)
(3 2.37836e-15 0)
(3 3.18529e-15 0)
(3 2.67294e-15 0)
(3 2.58101e-15 0)
(3 2.48262e-15 0)
(3 2.37907e-15 0)
(3 2.54621e-15 0)
(3 1.08519e-15 0)
(3 1.44621e-16 0)
(3 -7.1882e-18 0)
(3 -1.44009e-16 0)
(3 9.98998e-16 0)
(3 2.0024e-15 0)
(3 2.08365e-15 0)
(3 1.80994e-15 0)
(3 1.94365e-15 0)
(3 2.49943e-15 0)
(3 2.55297e-15 0)
(3 3.13359e-15 0)
(3 3.32806e-15 0)
(3 2.83915e-15 0)
(3 1.27217e-15 0)
(3 5.05752e-16 0)
(3 -4.77969e-16 0)
(3 -7.81415e-16 0)
(3 -1.10945e-15 0)
(3 -1.68416e-15 0)
(3 -2.60597e-15 0)
(3 -2.27831e-15 0)
(3 -6.84104e-16 0)
(3 1.00421e-15 0)
(3 7.74906e-16 0)
(3 -9.34659e-16 0)
(3 -1.75248e-15 0)
(3 -2.40377e-15 0)
(3 -2.9603e-15 0)
(3 -2.69004e-15 0)
(3 -2.42573e-15 0)
(3 -2.2106e-15 0)
(3 -1.81651e-15 0)
(3 -1.3256e-15 0)
(3 -7.51071e-16 0)
(3 4.46887e-16 0)
(3 1.77336e-15 0)
(3 1.36603e-15 0)
(3 4.14193e-15 0)
(3 5.96894e-15 0)
(3 7.3911e-15 0)
(3 6.75422e-15 0)
(3 5.06589e-15 0)
(3 4.61296e-15 0)
(3 3.13262e-15 0)
(3 2.20764e-15 0)
(3 2.1706e-15 0)
(3 9.49314e-16 0)
(3 -4.78605e-17 0)
(3 -7.98242e-16 0)
(3 -2.54034e-15 0)
(3 -5.01936e-15 0)
(3 -3.30298e-15 0)
(3 -2.06921e-15 0)
(3 -7.42778e-16 0)
(3 2.31873e-16 0)
(3 3.83554e-16 0)
(3 -1.38518e-16 0)
(3 -1.33246e-15 0)
(3 -1.6587e-15 0)
(3 -1.88731e-15 0)
(3 -1.55034e-15 0)
(3 -3.72778e-16 0)
(3 2.18179e-15 0)
(3 2.21676e-15 0)
(3 2.8645e-15 0)
(3 3.51405e-15 0)
(3 4.38019e-15 0)
(3 5.22766e-15 0)
(3 5.68179e-15 0)
(3 5.32913e-15 0)
(3 5.70473e-15 0)
(3 5.42471e-15 0)
(3 5.18508e-15 0)
(3 3.62128e-15 0)
(3 2.15094e-15 0)
(3 1.60577e-15 0)
(3 1.5008e-15 0)
(3 -9.6968e-17 0)
(3 -2.82977e-16 0)
(3 -4.61656e-17 0)
(3 -1.56404e-16 0)
(3 -2.51889e-16 0)
(3 7.9749e-16 0)
(3 8.53284e-16 0)
(3 3.70283e-16 0)
(3 3.17379e-16 0)
(3 3.87049e-16 0)
(3 -8.75511e-16 0)
(3 -1.22275e-15 0)
(3 -9.70762e-16 0)
(3 -8.21139e-16 0)
(3 -1.74189e-15 0)
(3 -2.27497e-15 0)
(3 -2.49823e-15 0)
(3 -2.22888e-15 0)
(3 -1.51769e-15 0)
(3 -1.21939e-15 0)
(3 -8.30041e-16 0)
(3 -5.11236e-16 0)
(3 -5.95344e-16 0)
(3 -3.46963e-16 0)
(3 -3.65048e-16 0)
(3 -2.13276e-16 0)
(3 -2.2433e-16 0)
(3 9.69444e-17 0)
(3 2.5802e-15 0)
(3 3.67238e-15 0)
(3 4.19864e-15 0)
(3 2.97484e-15 0)
(3 1.96152e-15 0)
(3 1.4407e-15 0)
(3 1.19025e-15 0)
(3 7.52151e-16 0)
(3 4.60448e-16 0)
(3 -2.1308e-16 0)
(3 -1.96555e-17 0)
(3 4.40459e-17 0)
(3 2.49629e-16 0)
(3 6.59995e-17 0)
(3 -4.78004e-16 0)
(3 1.06609e-15 0)
(3 8.34561e-16 0)
(3 2.12381e-16 0)
(3 1.68182e-16 0)
(3 6.99906e-16 0)
(3 1.31713e-15 0)
(3 1.64744e-15 0)
(3 9.84471e-16 0)
(3 2.02889e-15 0)
(3 2.45039e-15 0)
(3 2.9329e-15 0)
(3 3.641e-15 0)
(3 3.36785e-15 0)
(3 3.13889e-15 0)
(3 4.29002e-15 0)
(3 3.66875e-15 0)
(3 4.28925e-15 0)
(3 3.45286e-15 0)
(3 -9.89244e-16 0)
(3 -1.45932e-15 0)
(3 -1.66264e-15 0)
(3 -1.59573e-15 0)
(3 -1.89879e-15 0)
(3 -2.60386e-15 0)
(3 -2.22925e-15 0)
(3 -2.32803e-15 0)
(3 -1.98537e-15 0)
(3 -1.64539e-15 0)
(3 -7.50876e-16 0)
(3 -4.03711e-16 0)
(3 1.00042e-16 0)
(3 -3.46657e-16 0)
(3 -1.46544e-15 0)
(3 -1.66399e-15 0)
(3 -9.6796e-17 0)
(3 1.05331e-15 0)
(3 1.89774e-15 0)
(3 1.47262e-15 0)
(3 1.32957e-15 0)
(3 1.14704e-15 0)
(3 1.36979e-15 0)
(3 2.68846e-15 0)
(3 3.07715e-15 0)
(3 4.01718e-15 0)
(3 5.86673e-15 0)
(3 5.69057e-15 0)
(3 5.52446e-15 0)
(3 5.33855e-15 0)
(3 3.79083e-15 0)
(3 3.29108e-15 0)
(3 1.27788e-15 0)
(3 -5.58362e-16 0)
(3 -9.52836e-16 0)
(3 -2.0195e-15 0)
(3 -2.62767e-15 0)
(3 -2.65045e-15 0)
(3 -9.6457e-16 0)
(3 -9.02347e-16 0)
(3 -5.89069e-16 0)
(3 1.3862e-16 0)
(3 6.07949e-17 0)
(3 1.20245e-15 0)
(3 1.83917e-15 0)
(3 2.61679e-15 0)
(3 2.87296e-15 0)
(3 3.98785e-15 0)
(3 4.53738e-15 0)
(3 4.00521e-15 0)
(3 2.35339e-15 0)
(3 2.17675e-15 0)
(3 1.39876e-15 0)
(3 6.64459e-16 0)
(3 1.80196e-16 0)
(3 3.46075e-16 0)
(3 -1.98306e-18 0)
(3 8.21678e-16 0)
(3 2.8395e-15 0)
(3 4.96344e-15 0)
(3 5.20153e-15 0)
(3 4.63494e-15 0)
(3 3.59811e-15 0)
(3 2.26645e-15 0)
(3 2.16254e-15 0)
(3 3.76578e-16 0)
(3 -8.23895e-17 0)
(3 -6.54494e-16 0)
(3 -8.09493e-16 0)
(3 -9.96091e-16 0)
(3 -8.29914e-16 0)
(3 -3.75093e-16 0)
(3 -2.2418e-16 0)
(3 3.19158e-17 0)
(3 9.19707e-16 0)
(3 8.33972e-16 0)
(3 3.40394e-16 0)
(3 4.56023e-17 0)
(3 -2.87975e-16 0)
(3 -1.41679e-15 0)
(3 -2.14652e-15 0)
(3 -2.15743e-15 0)
(3 -1.81338e-15 0)
(3 -1.45043e-15 0)
(3 -1.65519e-15 0)
(3 -1.58201e-15 0)
(3 -1.31918e-15 0)
(3 -1.14057e-15 0)
(3 -2.37488e-16 0)
(3 3.76579e-16 0)
(3 2.42493e-16 0)
(3 2.03474e-15 0)
(3 4.71479e-15 0)
(3 6.4063e-15 0)
(3 6.04293e-15 0)
(3 5.41086e-15 0)
(3 4.69162e-15 0)
(3 3.93924e-15 0)
(3 3.24335e-15 0)
(3 2.22881e-15 0)
(3 1.39133e-15 0)
(3 -3.43094e-16 0)
(3 -8.73681e-16 0)
(3 -1.56569e-15 0)
(3 -3.31507e-15 0)
(3 -3.51109e-15 0)
(3 -3.19765e-15 0)
(3 -2.01015e-15 0)
(3 -5.48592e-16 0)
(3 -4.63866e-17 0)
(3 -4.65303e-16 0)
(3 -6.06259e-16 0)
(3 -1.61174e-15 0)
(3 -3.63806e-15 0)
(3 -4.207e-15 0)
(3 -3.42404e-15 0)
(3 -1.01868e-15 0)
(3 1.1895e-15 0)
(3 1.74903e-15 0)
(3 1.66713e-15 0)
(3 2.67521e-15 0)
(3 3.68242e-15 0)
(3 4.06587e-15 0)
(3 4.79532e-15 0)