/*--------------------------------*- C++ -*----------------------------------*\
  =========                 |
  \\      /  F ield         | OpenFOAM: The Open Source CFD Toolbox
   \\    /   O peration     | Website:  https://openfoam.org
    \\  /    A nd           | Version:  7
     \\/     M anipulation  |
\*---------------------------------------------------------------------------*/
FoamFile
{
    version     2.0;
    format      ascii;
    class       volVectorField;
    location    "3.7";
    object      U;
}
// * * * * * * * * * * * * * * * * * * * * * * * * * * * * * * * * * * * * * //

dimensions      [0 1 -1 0 0 0 0];

internalField   nonuniform List<vector> 
16192
(
(2.61842 -0.326692 0)
(2.61924 -0.326775 0)
(2.61993 -0.326259 0)
(2.62011 -0.323636 0)
(2.6188 -0.318234 0)
(2.61741 -0.31077 0)
(2.61813 -0.305417 0)
(2.62003 -0.302689 0)
(2.62319 -0.300761 0)
(2.6264 -0.300733 0)
(2.62748 -0.301062 0)
(2.62883 -0.301416 0)
(2.63026 -0.301767 0)
(2.63164 -0.302189 0)
(2.63269 -0.302497 0)
(2.63233 -0.301464 0)
(2.62839 -0.297619 0)
(2.62279 -0.292052 0)
(2.6212 -0.289298 0)
(2.62249 -0.288652 0)
(2.62408 -0.288572 0)
(2.62565 -0.288427 0)
(2.62787 -0.288213 0)
(2.63356 -0.287027 0)
(2.64193 -0.283425 0)
(2.64709 -0.280951 0)
(2.6488 -0.280116 0)
(2.6509 -0.278394 0)
(2.65222 -0.276511 0)
(2.65258 -0.274898 0)
(2.65172 -0.273802 0)
(2.64833 -0.275107 0)
(2.64463 -0.27847 0)
(2.64401 -0.280174 0)
(2.6461 -0.280283 0)
(2.64809 -0.280264 0)
(2.64993 -0.279395 0)
(2.65348 -0.276729 0)
(2.65704 -0.272418 0)
(2.65883 -0.269252 0)
(2.66086 -0.267017 0)
(2.66222 -0.264336 0)
(2.66186 -0.261243 0)
(2.66096 -0.259071 0)
(2.66114 -0.258242 0)
(2.6617 -0.258436 0)
(2.66199 -0.258803 0)
(2.66187 -0.258576 0)
(2.66248 -0.258122 0)
(2.66368 -0.258141 0)
(2.66473 -0.258189 0)
(2.6676 -0.258127 0)
(2.6707 -0.256592 0)
(2.67235 -0.254394 0)
(2.67367 -0.252231 0)
(2.6747 -0.24959 0)
(2.67524 -0.24669 0)
(2.67568 -0.244312 0)
(2.67637 -0.243055 0)
(2.67731 -0.242562 0)
(2.6782 -0.242154 0)
(2.67919 -0.241564 0)
(2.67905 -0.239936 0)
(2.67537 -0.236516 0)
(2.67172 -0.233878 0)
(2.67209 -0.233851 0)
(2.67298 -0.234374 0)
(2.67421 -0.234952 0)
(2.67568 -0.235496 0)
(2.67844 -0.236092 0)
(2.68297 -0.235325 0)
(2.68844 -0.231608 0)
(2.69162 -0.226917 0)
(2.69261 -0.223484 0)
(2.69337 -0.219085 0)
(2.69215 -0.214762 0)
(2.6902 -0.212798 0)
(2.68978 -0.213819 0)
(2.68965 -0.216616 0)
(2.68873 -0.220876 0)
(2.68715 -0.224145 0)
(2.68655 -0.224044 0)
(2.68664 -0.221448 0)
(2.68739 -0.217124 0)
(2.68935 -0.212817 0)
(2.69148 -0.209436 0)
(2.69462 -0.205816 0)
(2.69963 -0.201521 0)
(2.7044 -0.201118 0)
(2.70757 -0.203262 0)
(2.70936 -0.205506 0)
(2.71113 -0.207537 0)
(2.71297 -0.209437 0)
(2.71456 -0.211378 0)
(2.71531 -0.213407 0)
(2.71433 -0.214617 0)
(2.71054 -0.212601 0)
(2.70284 -0.205087 0)
(2.69598 -0.195948 0)
(2.69555 -0.19232 0)
(2.69674 -0.19093 0)
(2.6984 -0.189602 0)
(2.7021 -0.187822 0)
(2.70719 -0.186151 0)
(2.71182 -0.186053 0)
(2.7156 -0.187385 0)
(2.71899 -0.188923 0)
(2.72158 -0.189586 0)
(2.72303 -0.189458 0)
(2.72437 -0.189189 0)
(2.72545 -0.18893 0)
(2.72592 -0.188215 0)
(2.72373 -0.185457 0)
(2.71637 -0.179665 0)
(2.71147 -0.175067 0)
(2.71113 -0.174171 0)
(2.71169 -0.173895 0)
(2.71293 -0.17346 0)
(2.71608 -0.173416 0)
(2.72334 -0.173787 0)
(2.73288 -0.172722 0)
(2.7371 -0.171052 0)
(2.73812 -0.170239 0)
(2.73937 -0.168298 0)
(2.73853 -0.165748 0)
(2.73065 -0.161665 0)
(2.71722 -0.15722 0)
(2.71332 -0.156511 0)
(2.71497 -0.15729 0)
(2.71666 -0.157957 0)
(2.7183 -0.158716 0)
(2.72035 -0.159625 0)
(2.72575 -0.161455 0)
(2.73665 -0.163749 0)
(2.74664 -0.16392 0)
(2.74914 -0.16282 0)
(2.75023 -0.161853 0)
(2.75143 -0.159684 0)
(2.74965 -0.155893 0)
(2.73958 -0.148894 0)
(2.72841 -0.144048 0)
(2.72767 -0.144275 0)
(2.72914 -0.145215 0)
(2.73072 -0.146239 0)
(2.73228 -0.147556 0)
(2.73386 -0.148895 0)
(2.73726 -0.150512 0)
(2.74295 -0.151574 0)
(2.74976 -0.151615 0)
(2.75408 -0.150908 0)
(2.75531 -0.150161 0)
(2.75626 -0.149313 0)
(2.75769 -0.147726 0)
(2.75823 -0.145319 0)
(2.75488 -0.140827 0)
(2.74879 -0.134644 0)
(2.74803 -0.1324 0)
(2.74947 -0.132487 0)
(2.75095 -0.132571 0)
(2.75244 -0.132674 0)
(2.75387 -0.132906 0)
(2.75537 -0.133262 0)
(2.75798 -0.133874 0)
(2.76273 -0.135209 0)
(2.76726 -0.136332 0)
(2.76835 -0.136443 0)
(2.77002 -0.136504 0)
(2.77177 -0.13659 0)
(2.77358 -0.136668 0)
(2.77534 -0.136636 0)
(2.7767 -0.13593 0)
(2.7746 -0.132926 0)
(2.76528 -0.125 0)
(2.75381 -0.116429 0)
(2.74983 -0.11388 0)
(2.74962 -0.114114 0)
(2.74991 -0.115039 0)
(2.75139 -0.116959 0)
(2.75439 -0.12018 0)
(2.75897 -0.122402 0)
(2.76271 -0.121807 0)
(2.76575 -0.120086 0)
(2.76923 -0.117168 0)
(2.77309 -0.1143 0)
(2.77463 -0.113428 0)
(2.77564 -0.113137 0)
(2.77643 -0.11296 0)
(2.77703 -0.112878 0)
(2.77738 -0.112904 0)
(2.77654 -0.112667 0)
(2.77143 -0.111298 0)
(2.76141 -0.108672 0)
(2.7568 -0.107298 0)
(2.75745 -0.107142 0)
(2.75832 -0.106971 0)
(2.76047 -0.106433 0)
(2.76747 -0.104931 0)
(2.77926 -0.102206 0)
(2.78485 -0.100539 0)
(2.78594 -0.09969 0)
(2.78759 -0.0980462 0)
(2.78868 -0.0965574 0)
(2.78901 -0.0945959 0)
(2.78632 -0.0907584 0)
(2.78068 -0.0864441 0)
(2.7796 -0.0854499 0)
(2.78075 -0.0862625 0)
(2.78203 -0.0872755 0)
(2.78363 -0.0890434 0)
(2.78562 -0.0914182 0)
(2.7869 -0.0938632 0)
(2.78632 -0.0920016 0)
(2.77949 -0.0783817 0)
(2.76272 -0.0397994 0)
(2.70916 0.0661934 0)
(2.65869 0.169716 0)
(2.61579 0.260829 0)
(2.53241 0.409643 0)
(2.50521 0.433886 0)
(2.50875 0.417532 0)
(2.50501 0.413364 0)
(2.50058 0.415632 0)
(2.4993 0.417745 0)
(2.49916 0.418984 0)
(2.49911 0.41939 0)
(2.49878 0.419991 0)
(2.49868 0.420408 0)
(2.49986 0.420937 0)
(2.50282 0.423186 0)
(2.5067 0.427208 0)
(2.50847 0.429455 0)
(2.51 0.432213 0)
(2.51073 0.43631 0)
(2.50974 0.439757 0)
(2.50757 0.441626 0)
(2.5047 0.442363 0)
(2.50228 0.442105 0)
(2.5004 0.440332 0)
(2.49934 0.437719 0)
(2.49963 0.435482 0)
(2.50096 0.43392 0)
(2.50238 0.431959 0)
(2.50518 0.428355 0)
(2.5078 0.424101 0)
(2.50842 0.422255 0)
(2.50886 0.421171 0)
(2.50896 0.420747 0)
(2.50824 0.422338 0)
(2.50652 0.42735 0)
(2.50481 0.43521 0)
(2.5054 0.439803 0)
(2.50616 0.443322 0)
(2.50827 0.445529 0)
(2.61964 -0.322704 0)
(2.62079 -0.322903 0)
(2.62273 -0.322819 0)
(2.62418 -0.321671 0)
(2.62509 -0.319211 0)
(2.62522 -0.314112 0)
(2.62411 -0.307072 0)
(2.62438 -0.301196 0)
(2.62508 -0.299209 0)
(2.62667 -0.299029 0)
(2.62855 -0.299601 0)
(2.62954 -0.299945 0)
(2.63097 -0.300243 0)
(2.6324 -0.300494 0)
(2.63358 -0.300728 0)
(2.63425 -0.300446 0)
(2.63364 -0.298536 0)
(2.62953 -0.293993 0)
(2.62461 -0.288241 0)
(2.62439 -0.2853 0)
(2.62592 -0.284242 0)
(2.62747 -0.283372 0)
(2.63015 -0.281998 0)
(2.63618 -0.279676 0)
(2.6439 -0.277432 0)
(2.64902 -0.275963 0)
(2.65151 -0.274956 0)
(2.65263 -0.274256 0)
(2.65446 -0.273697 0)
(2.65603 -0.273118 0)
(2.65391 -0.273842 0)
(2.64674 -0.276405 0)
(2.64344 -0.277674 0)
(2.64564 -0.277263 0)
(2.64797 -0.276866 0)
(2.65017 -0.276307 0)
(2.65309 -0.275348 0)
(2.65866 -0.272294 0)
(2.66231 -0.268383 0)
(2.66388 -0.265985 0)
(2.66567 -0.263879 0)
(2.66658 -0.261404 0)
(2.66557 -0.258371 0)
(2.66293 -0.256343 0)
(2.66163 -0.256488 0)
(2.66189 -0.257364 0)
(2.6625 -0.257588 0)
(2.66294 -0.256673 0)
(2.66368 -0.255025 0)
(2.66514 -0.253531 0)
(2.66659 -0.252555 0)
(2.66815 -0.25169 0)
(2.67137 -0.251105 0)
(2.67448 -0.25082 0)
(2.67593 -0.250349 0)
(2.67764 -0.248843 0)
(2.67857 -0.246601 0)
(2.67889 -0.243943 0)
(2.67894 -0.241642 0)
(2.67959 -0.240372 0)
(2.68054 -0.240032 0)
(2.6814 -0.239757 0)
(2.68152 -0.23889 0)
(2.67932 -0.236266 0)
(2.67537 -0.232665 0)
(2.67365 -0.231423 0)
(2.67409 -0.231635 0)
(2.67486 -0.23185 0)
(2.67563 -0.231967 0)
(2.67835 -0.231743 0)
(2.68566 -0.229606 0)
(2.69396 -0.22582 0)
(2.69699 -0.223169 0)
(2.69827 -0.221228 0)
(2.69943 -0.218094 0)
(2.69801 -0.214453 0)
(2.69286 -0.21167 0)
(2.68822 -0.212763 0)
(2.68631 -0.215969 0)
(2.68602 -0.21838 0)
(2.68747 -0.219288 0)
(2.68881 -0.219554 0)
(2.69076 -0.219387 0)
(2.69291 -0.217346 0)
(2.69508 -0.212311 0)
(2.69813 -0.206209 0)
(2.69977 -0.200367 0)
(2.7017 -0.197707 0)
(2.70354 -0.1976 0)
(2.70561 -0.198972 0)
(2.70788 -0.201329 0)
(2.70942 -0.203647 0)
(2.71093 -0.205841 0)
(2.71226 -0.208075 0)
(2.71301 -0.210357 0)
(2.713 -0.212134 0)
(2.71239 -0.21238 0)
(2.71066 -0.209345 0)
(2.70635 -0.201176 0)
(2.70156 -0.191455 0)
(2.70152 -0.187417 0)
(2.70249 -0.185998 0)
(2.70509 -0.183826 0)
(2.70812 -0.182574 0)
(2.71067 -0.18265 0)
(2.71325 -0.183206 0)
(2.71639 -0.184264 0)
(2.71989 -0.185546 0)
(2.72267 -0.186243 0)
(2.72392 -0.1862 0)
(2.72531 -0.186104 0)
(2.72642 -0.185942 0)
(2.72653 -0.184996 0)
(2.72295 -0.181602 0)
(2.71591 -0.176498 0)
(2.71317 -0.173642 0)
(2.71327 -0.172979 0)
(2.71376 -0.172411 0)
(2.71581 -0.171196 0)
(2.72225 -0.169633 0)
(2.73327 -0.168364 0)
(2.73839 -0.167531 0)
(2.73945 -0.167022 0)
(2.74107 -0.165582 0)
(2.74122 -0.16353 0)
(2.73549 -0.1605 0)
(2.72096 -0.156739 0)
(2.71244 -0.155461 0)
(2.71322 -0.156205 0)
(2.71503 -0.156873 0)
(2.71695 -0.157459 0)
(2.71869 -0.158092 0)
(2.72324 -0.159115 0)
(2.73407 -0.160002 0)
(2.74773 -0.158996 0)
(2.75283 -0.158119 0)
(2.75384 -0.157722 0)
(2.75536 -0.156657 0)
(2.75547 -0.154897 0)
(2.74859 -0.150673 0)
(2.73319 -0.143999 0)
(2.72727 -0.141725 0)
(2.72852 -0.142319 0)
(2.73005 -0.142926 0)
(2.73159 -0.143558 0)
(2.73291 -0.144286 0)
(2.73633 -0.145744 0)
(2.74266 -0.147362 0)
(2.74984 -0.147046 0)
(2.7545 -0.145659 0)
(2.75553 -0.145028 0)
(2.75692 -0.144291 0)
(2.75841 -0.14326 0)
(2.75981 -0.142221 0)
(2.75993 -0.14001 0)
(2.75521 -0.13523 0)
(2.74977 -0.130812 0)
(2.75023 -0.129978 0)
(2.75162 -0.130219 0)
(2.75301 -0.130498 0)
(2.7544 -0.130989 0)
(2.75583 -0.131576 0)
(2.75764 -0.132079 0)
(2.76191 -0.132566 0)
(2.76705 -0.132675 0)
(2.76856 -0.132616 0)
(2.77027 -0.132564 0)
(2.77214 -0.132634 0)
(2.77402 -0.132989 0)
(2.7758 -0.13338 0)
(2.7775 -0.133654 0)
(2.77838 -0.133188 0)
(2.77498 -0.130219 0)
(2.76445 -0.122273 0)
(2.75387 -0.113993 0)
(2.75096 -0.111127 0)
(2.75107 -0.110801 0)
(2.75136 -0.111327 0)
(2.75269 -0.112925 0)
(2.75581 -0.116354 0)
(2.76211 -0.118645 0)
(2.76957 -0.116266 0)
(2.77221 -0.113327 0)
(2.77396 -0.112009 0)
(2.77564 -0.111523 0)
(2.77675 -0.111299 0)
(2.7774 -0.1111 0)
(2.7777 -0.11115 0)
(2.77774 -0.111327 0)
(2.77708 -0.111147 0)
(2.77371 -0.109836 0)
(2.76564 -0.106687 0)
(2.7602 -0.103887 0)
(2.76012 -0.102956 0)
(2.7606 -0.102576 0)
(2.76196 -0.101896 0)
(2.76753 -0.10068 0)
(2.77898 -0.0989223 0)
(2.78548 -0.0972713 0)
(2.78684 -0.0960546 0)
(2.78907 -0.0946571 0)
(2.79077 -0.09349 0)
(2.79199 -0.0924152 0)
(2.79126 -0.0902221 0)
(2.78574 -0.0860656 0)
(2.78002 -0.0836235 0)
(2.77985 -0.0846885 0)
(2.78101 -0.0858137 0)
(2.78245 -0.0871674 0)
(2.7841 -0.0885976 0)
(2.78638 -0.0914679 0)
(2.788 -0.0926426 0)
(2.78905 -0.0922085 0)
(2.78819 -0.0882528 0)
(2.78 -0.0712214 0)
(2.75857 -0.023714 0)
(2.71294 0.0636645 0)
(2.6252 0.223683 0)
(2.60842 0.268514 0)
(2.56004 0.351974 0)
(2.51842 0.436068 0)
(2.49847 0.434385 0)
(2.49281 0.42735 0)
(2.49526 0.424584 0)
(2.49688 0.426506 0)
(2.49772 0.427176 0)
(2.49974 0.427833 0)
(2.50362 0.428822 0)
(2.50806 0.42931 0)
(2.51004 0.429346 0)
(2.51131 0.429799 0)
(2.51359 0.432246 0)
(2.5146 0.436201 0)
(2.5136 0.43943 0)
(2.51146 0.440433 0)
(2.50827 0.440273 0)
(2.50278 0.439287 0)
(2.4982 0.437337 0)
(2.49736 0.436024 0)
(2.49791 0.435433 0)
(2.49885 0.434827 0)
(2.5003 0.433802 0)
(2.50269 0.432008 0)
(2.50667 0.428224 0)
(2.50998 0.424672 0)
(2.51143 0.423813 0)
(2.51192 0.424566 0)
(2.51238 0.42653 0)
(2.512 0.429149 0)
(2.51156 0.434836 0)
(2.51001 0.442859 0)
(2.51008 0.449867 0)
(2.51127 0.452271 0)
(2.62049 -0.319818 0)
(2.62155 -0.319972 0)
(2.62377 -0.319911 0)
(2.62726 -0.318641 0)
(2.62968 -0.315889 0)
(2.63043 -0.313132 0)
(2.63096 -0.308705 0)
(2.62985 -0.303364 0)
(2.62798 -0.29865 0)
(2.62795 -0.297499 0)
(2.6289 -0.297714 0)
(2.63025 -0.298324 0)
(2.63144 -0.298914 0)
(2.63281 -0.299099 0)
(2.63428 -0.299013 0)
(2.63546 -0.298704 0)
(2.63629 -0.297869 0)
(2.63581 -0.295196 0)
(2.63185 -0.289245 0)
(2.62879 -0.282786 0)
(2.62985 -0.280065 0)
(2.63136 -0.278693 0)
(2.63411 -0.276997 0)
(2.63974 -0.274881 0)
(2.64741 -0.272725 0)
(2.65125 -0.27127 0)
(2.65237 -0.271073 0)
(2.65408 -0.271053 0)
(2.65601 -0.271199 0)
(2.65681 -0.271623 0)
(2.65266 -0.273323 0)
(2.64524 -0.275571 0)
(2.64421 -0.275546 0)
(2.64626 -0.27486 0)
(2.6487 -0.274127 0)
(2.65134 -0.273025 0)
(2.6561 -0.271062 0)
(2.6623 -0.266866 0)
(2.6656 -0.263628 0)
(2.66772 -0.261846 0)
(2.66946 -0.260457 0)
(2.67028 -0.258415 0)
(2.66888 -0.255207 0)
(2.66445 -0.253357 0)
(2.6615 -0.254878 0)
(2.66166 -0.255963 0)
(2.66294 -0.255641 0)
(2.66443 -0.254302 0)
(2.66556 -0.252199 0)
(2.66698 -0.249991 0)
(2.66884 -0.248101 0)
(2.67072 -0.246263 0)
(2.67238 -0.245056 0)
(2.67463 -0.244721 0)
(2.67722 -0.244815 0)
(2.67879 -0.24486 0)
(2.68013 -0.244739 0)
(2.68148 -0.2438 0)
(2.68161 -0.241807 0)
(2.68147 -0.239921 0)
(2.68193 -0.238584 0)
(2.68259 -0.237826 0)
(2.68295 -0.237124 0)
(2.68195 -0.235945 0)
(2.67854 -0.233804 0)
(2.67523 -0.231329 0)
(2.67475 -0.229679 0)
(2.67518 -0.228696 0)
(2.67605 -0.22766 0)
(2.67933 -0.22581 0)
(2.68748 -0.22344 0)
(2.69634 -0.220944 0)
(2.69892 -0.21982 0)
(2.70071 -0.218686 0)
(2.70268 -0.216949 0)
(2.70235 -0.215095 0)
(2.69633 -0.213518 0)
(2.68699 -0.213965 0)
(2.68463 -0.215263 0)
(2.68608 -0.215366 0)
(2.68791 -0.215243 0)
(2.68959 -0.215051 0)
(2.69202 -0.214388 0)
(2.69737 -0.211522 0)
(2.70158 -0.206745 0)
(2.70318 -0.203463 0)
(2.70483 -0.200182 0)
(2.70513 -0.196342 0)
(2.7045 -0.194068 0)
(2.70573 -0.195014 0)
(2.70703 -0.197031 0)
(2.70822 -0.200252 0)
(2.70918 -0.204061 0)
(2.70997 -0.207442 0)
(2.71095 -0.209262 0)
(2.71227 -0.209329 0)
(2.71356 -0.20848 0)
(2.71429 -0.206953 0)
(2.71376 -0.202514 0)
(2.71055 -0.193479 0)
(2.70576 -0.183523 0)
(2.70565 -0.180042 0)
(2.70666 -0.179633 0)
(2.70818 -0.179306 0)
(2.71046 -0.178883 0)
(2.71279 -0.178983 0)
(2.71525 -0.179643 0)
(2.71821 -0.180792 0)
(2.72143 -0.182341 0)
(2.72339 -0.183428 0)
(2.72468 -0.183624 0)
(2.72624 -0.183694 0)
(2.72732 -0.183636 0)
(2.72654 -0.182503 0)
(2.72147 -0.178295 0)
(2.71675 -0.173013 0)
(2.71622 -0.170304 0)
(2.71661 -0.169064 0)
(2.71849 -0.166973 0)
(2.72464 -0.164346 0)
(2.73463 -0.162544 0)
(2.73908 -0.162248 0)
(2.73983 -0.16227 0)
(2.74126 -0.162305 0)
(2.74225 -0.162177 0)
(2.73881 -0.161123 0)
(2.7259 -0.158584 0)
(2.71416 -0.156715 0)
(2.71298 -0.156324 0)
(2.71434 -0.156115 0)
(2.71579 -0.155826 0)
(2.71726 -0.155266 0)
(2.72222 -0.154057 0)
(2.73438 -0.152428 0)
(2.74901 -0.152775 0)
(2.7543 -0.153101 0)
(2.75532 -0.153068 0)
(2.75715 -0.152859 0)
(2.75837 -0.152598 0)
(2.75475 -0.151246 0)
(2.74081 -0.146023 0)
(2.72877 -0.140869 0)
(2.72854 -0.13986 0)
(2.73023 -0.139992 0)
(2.73175 -0.140131 0)
(2.73287 -0.140477 0)
(2.7358 -0.141528 0)
(2.74338 -0.142811 0)
(2.75272 -0.142222 0)
(2.75606 -0.141128 0)
(2.75697 -0.14091 0)
(2.75834 -0.140571 0)
(2.75972 -0.14021 0)
(2.76123 -0.139421 0)
(2.76242 -0.137829 0)
(2.76067 -0.134958 0)
(2.75439 -0.130463 0)
(2.75145 -0.128013 0)
(2.75269 -0.12792 0)
(2.75412 -0.128023 0)
(2.75558 -0.128105 0)
(2.75692 -0.12811 0)
(2.75851 -0.128025 0)
(2.76257 -0.128102 0)
(2.76752 -0.128449 0)
(2.76899 -0.12859 0)
(2.77058 -0.128864 0)
(2.77226 -0.129232 0)
(2.77406 -0.129527 0)
(2.77579 -0.129876 0)
(2.7773 -0.130433 0)
(2.77833 -0.130937 0)
(2.77797 -0.130263 0)
(2.77342 -0.126908 0)
(2.76356 -0.118961 0)
(2.75468 -0.111352 0)
(2.75206 -0.108645 0)
(2.75215 -0.108001 0)
(2.7525 -0.107861 0)
(2.75424 -0.107276 0)
(2.75996 -0.107542 0)
(2.76914 -0.109905 0)
(2.77325 -0.11137 0)
(2.77454 -0.111363 0)
(2.77641 -0.110759 0)
(2.77764 -0.110167 0)
(2.77841 -0.109707 0)
(2.77886 -0.109501 0)
(2.77892 -0.109504 0)
(2.77828 -0.109401 0)
(2.77585 -0.108414 0)
(2.76984 -0.105239 0)
(2.76445 -0.101225 0)
(2.76408 -0.0991349 0)
(2.76463 -0.0981009 0)
(2.76596 -0.0966476 0)
(2.77014 -0.0949166 0)
(2.77972 -0.0949659 0)
(2.78703 -0.0949831 0)
(2.7885 -0.0938989 0)
(2.79069 -0.0927283 0)
(2.79237 -0.0916243 0)
(2.79392 -0.0906211 0)
(2.79458 -0.0892191 0)
(2.79104 -0.0865035 0)
(2.78265 -0.0825908 0)
(2.77919 -0.0818218 0)
(2.78034 -0.0827678 0)
(2.78167 -0.0837336 0)
(2.7833 -0.0848506 0)
(2.7854 -0.0867313 0)
(2.78864 -0.0893706 0)
(2.7903 -0.0900949 0)
(2.79139 -0.0895085 0)
(2.7921 -0.0882899 0)
(2.78953 -0.081612 0)
(2.78051 -0.0616887 0)
(2.74657 0.000357961 0)
(2.71219 0.0807499 0)
(2.61168 0.253007 0)
(2.57231 0.320827 0)
(2.56899 0.353282 0)
(2.52911 0.398209 0)
(2.50446 0.431418 0)
(2.49912 0.433302 0)
(2.49805 0.438502 0)
(2.49965 0.438449 0)
(2.50375 0.438881 0)
(2.50789 0.437543 0)
(2.51051 0.433848 0)
(2.51247 0.432204 0)
(2.51409 0.43279 0)
(2.51635 0.434971 0)
(2.51713 0.437148 0)
(2.51543 0.437764 0)
(2.51044 0.437374 0)
(2.5024 0.436519 0)
(2.4976 0.436025 0)
(2.49695 0.436353 0)
(2.49713 0.436799 0)
(2.49786 0.436761 0)
(2.49928 0.436456 0)
(2.5011 0.43573 0)
(2.50558 0.433686 0)
(2.51149 0.429608 0)
(2.51454 0.427869 0)
(2.51586 0.428835 0)
(2.51708 0.431248 0)
(2.51794 0.434493 0)
(2.51784 0.437784 0)
(2.51726 0.443558 0)
(2.51515 0.450779 0)
(2.51348 0.456097 0)
(2.62287 -0.314797 0)
(2.62382 -0.31428 0)
(2.62583 -0.313463 0)
(2.62954 -0.312683 0)
(2.63298 -0.311518 0)
(2.63441 -0.310188 0)
(2.63529 -0.30879 0)
(2.63526 -0.305642 0)
(2.6329 -0.301257 0)
(2.62986 -0.297169 0)
(2.62976 -0.296262 0)
(2.63063 -0.296288 0)
(2.63188 -0.296509 0)
(2.63369 -0.29702 0)
(2.63503 -0.297221 0)
(2.63642 -0.297077 0)
(2.63783 -0.296358 0)
(2.63897 -0.29489 0)
(2.63879 -0.291414 0)
(2.63626 -0.284596 0)
(2.63529 -0.277756 0)
(2.63668 -0.274702 0)
(2.63905 -0.272618 0)
(2.64432 -0.269935 0)
(2.64965 -0.268692 0)
(2.6514 -0.268541 0)
(2.653 -0.26867 0)
(2.65476 -0.268871 0)
(2.65605 -0.269189 0)
(2.65513 -0.270228 0)
(2.64954 -0.272406 0)
(2.64513 -0.27336 0)
(2.64605 -0.272633 0)
(2.64797 -0.271774 0)
(2.65022 -0.270659 0)
(2.65306 -0.269133 0)
(2.65886 -0.266254 0)
(2.66495 -0.262421 0)
(2.66841 -0.259996 0)
(2.67065 -0.258267 0)
(2.67244 -0.256833 0)
(2.67324 -0.255645 0)
(2.67152 -0.253904 0)
(2.66558 -0.25233 0)
(2.66246 -0.252083 0)
(2.66344 -0.252339 0)
(2.66465 -0.252379 0)
(2.66626 -0.251785 0)
(2.66851 -0.249898 0)
(2.67026 -0.247496 0)
(2.67182 -0.245154 0)
(2.67334 -0.242963 0)
(2.67464 -0.240948 0)
(2.67574 -0.239842 0)
(2.67691 -0.239971 0)
(2.67899 -0.240145 0)
(2.68061 -0.24026 0)
(2.682 -0.240341 0)
(2.68344 -0.240265 0)
(2.68405 -0.239228 0)
(2.68351 -0.237519 0)
(2.68344 -0.236348 0)
(2.68357 -0.235803 0)
(2.68295 -0.235141 0)
(2.68013 -0.233181 0)
(2.67693 -0.229746 0)
(2.67644 -0.226712 0)
(2.67703 -0.224704 0)
(2.67826 -0.222845 0)
(2.68156 -0.220131 0)
(2.68931 -0.216975 0)
(2.69746 -0.21491 0)
(2.7001 -0.214823 0)
(2.70132 -0.215097 0)
(2.70345 -0.215735 0)
(2.70438 -0.216131 0)
(2.69856 -0.215372 0)
(2.6875 -0.21319 0)
(2.68483 -0.211651 0)
(2.68631 -0.211394 0)
(2.68782 -0.211136 0)
(2.68984 -0.21049 0)
(2.69466 -0.20906 0)
(2.70156 -0.205784 0)
(2.70556 -0.203085 0)
(2.70728 -0.201724 0)
(2.70948 -0.199788 0)
(2.71008 -0.197307 0)
(2.70724 -0.19428 0)
(2.70487 -0.193917 0)
(2.70571 -0.19571 0)
(2.707 -0.197591 0)
(2.7085 -0.199556 0)
(2.70994 -0.201218 0)
(2.71202 -0.203053 0)
(2.71401 -0.204093 0)
(2.71559 -0.203011 0)
(2.71744 -0.200768 0)
(2.7181 -0.198254 0)
(2.71825 -0.194232 0)
(2.71572 -0.186831 0)
(2.71 -0.178698 0)
(2.70876 -0.176188 0)
(2.7097 -0.176306 0)
(2.71111 -0.176776 0)
(2.71303 -0.17699 0)
(2.7151 -0.177067 0)
(2.71755 -0.177397 0)
(2.72037 -0.178516 0)
(2.72293 -0.180384 0)
(2.7242 -0.181406 0)
(2.72583 -0.181747 0)
(2.72735 -0.181835 0)
(2.72795 -0.181433 0)
(2.72672 -0.179022 0)
(2.72287 -0.173082 0)
(2.72088 -0.167525 0)
(2.72109 -0.165253 0)
(2.72289 -0.162492 0)
(2.72826 -0.159138 0)
(2.73561 -0.158261 0)
(2.73873 -0.159439 0)
(2.73928 -0.160284 0)
(2.74036 -0.161639 0)
(2.74148 -0.162901 0)
(2.73965 -0.163451 0)
(2.72933 -0.161635 0)
(2.71704 -0.157127 0)
(2.71488 -0.154122 0)
(2.71595 -0.152587 0)
(2.71704 -0.151282 0)
(2.71886 -0.149766 0)
(2.7243 -0.147329 0)
(2.73597 -0.14477 0)
(2.7487 -0.144021 0)
(2.75369 -0.145116 0)
(2.75481 -0.146258 0)
(2.75581 -0.147391 0)
(2.75711 -0.14893 0)
(2.75629 -0.149874 0)
(2.74778 -0.147989 0)
(2.73312 -0.142188 0)
(2.72907 -0.138818 0)
(2.73086 -0.137623 0)
(2.7327 -0.136841 0)
(2.7344 -0.136168 0)
(2.73745 -0.135707 0)
(2.74489 -0.136038 0)
(2.75403 -0.136925 0)
(2.75728 -0.13714 0)
(2.75846 -0.137063 0)
(2.76008 -0.13695 0)
(2.7616 -0.136814 0)
(2.76307 -0.136416 0)
(2.76429 -0.13564 0)
(2.76427 -0.133865 0)
(2.75987 -0.130241 0)
(2.75427 -0.126555 0)
(2.75412 -0.125397 0)
(2.75553 -0.125279 0)
(2.75686 -0.125259 0)
(2.75804 -0.125221 0)
(2.75929 -0.125076 0)
(2.76274 -0.124882 0)
(2.76751 -0.12477 0)
(2.76913 -0.124812 0)
(2.77082 -0.124901 0)
(2.77261 -0.125024 0)
(2.77407 -0.125356 0)
(2.77517 -0.12609 0)
(2.77606 -0.127023 0)
(2.77684 -0.127853 0)
(2.77707 -0.128302 0)
(2.77617 -0.127568 0)
(2.77233 -0.124308 0)
(2.7642 -0.11608 0)
(2.75587 -0.106915 0)
(2.75386 -0.102728 0)
(2.7544 -0.101076 0)
(2.75562 -0.0998059 0)
(2.7591 -0.0992327 0)
(2.76521 -0.102318 0)
(2.77178 -0.106738 0)
(2.7754 -0.108526 0)
(2.77654 -0.108437 0)
(2.77809 -0.107905 0)
(2.77939 -0.107554 0)
(2.78032 -0.107539 0)
(2.78043 -0.107771 0)
(2.77946 -0.107909 0)
(2.77744 -0.107058 0)
(2.77361 -0.104079 0)
(2.76875 -0.0991977 0)
(2.7674 -0.0958494 0)
(2.76782 -0.0943114 0)
(2.76913 -0.0923109 0)
(2.77235 -0.089696 0)
(2.77931 -0.0891375 0)
(2.78704 -0.0905817 0)
(2.78962 -0.0902844 0)
(2.79102 -0.0893832 0)
(2.79277 -0.0886816 0)
(2.7944 -0.0883801 0)
(2.79582 -0.0879536 0)
(2.79497 -0.0865431 0)
(2.78755 -0.0831973 0)
(2.77942 -0.0807858 0)
(2.77885 -0.0816075 0)
(2.78002 -0.0826007 0)
(2.78152 -0.0834719 0)
(2.7832 -0.0844342 0)
(2.78694 -0.0857504 0)
(2.79072 -0.0870236 0)
(2.79213 -0.086598 0)
(2.79407 -0.0862967 0)
(2.79475 -0.0842993 0)
(2.79509 -0.0830554 0)
(2.78842 -0.069371 0)
(2.77787 -0.0456331 0)
(2.73499 0.0225952 0)
(2.69224 0.102886 0)
(2.61675 0.271408 0)
(2.55724 0.391274 0)
(2.54936 0.378632 0)
(2.53652 0.397905 0)
(2.51836 0.429347 0)
(2.51284 0.440621 0)
(2.51177 0.440246 0)
(2.5107 0.438825 0)
(2.5106 0.436865 0)
(2.5126 0.435634 0)
(2.51415 0.43632 0)
(2.51597 0.437474 0)
(2.51763 0.438094 0)
(2.517 0.437626 0)
(2.51165 0.436782 0)
(2.50329 0.436504 0)
(2.49841 0.437286 0)
(2.49761 0.438558 0)
(2.49787 0.44001 0)
(2.4986 0.441416 0)
(2.49958 0.441728 0)
(2.50058 0.441406 0)
(2.50365 0.440057 0)
(2.50861 0.437783 0)
(2.51535 0.435716 0)
(2.51983 0.436231 0)
(2.52207 0.438139 0)
(2.52308 0.439942 0)
(2.52331 0.441871 0)
(2.52299 0.443902 0)
(2.52094 0.449222 0)
(2.51755 0.456609 0)
(2.62477 -0.311555 0)
(2.6263 -0.310061 0)
(2.62712 -0.309581 0)
(2.62998 -0.308653 0)
(2.6342 -0.307756 0)
(2.63693 -0.306931 0)
(2.6378 -0.306213 0)
(2.63863 -0.305307 0)
(2.63817 -0.302832 0)
(2.63473 -0.298375 0)
(2.63155 -0.294767 0)
(2.63177 -0.294304 0)
(2.63271 -0.294363 0)
(2.63394 -0.294549 0)
(2.63597 -0.294877 0)
(2.63812 -0.294917 0)
(2.63917 -0.294642 0)
(2.64074 -0.293271 0)
(2.64216 -0.291097 0)
(2.64243 -0.286978 0)
(2.64165 -0.27975 0)
(2.64213 -0.272782 0)
(2.64365 -0.269075 0)
(2.64665 -0.266161 0)
(2.64993 -0.264829 0)
(2.65176 -0.265113 0)
(2.65311 -0.265353 0)
(2.65479 -0.265574 0)
(2.65559 -0.266249 0)
(2.65316 -0.268608 0)
(2.64819 -0.270881 0)
(2.64751 -0.270348 0)
(2.64938 -0.269488 0)
(2.65142 -0.268499 0)
(2.65344 -0.267273 0)
(2.6566 -0.265687 0)
(2.66194 -0.262249 0)
(2.66743 -0.259396 0)
(2.67017 -0.25767 0)
(2.67285 -0.256328 0)
(2.67514 -0.255326 0)
(2.67646 -0.254613 0)
(2.6739 -0.254014 0)
(2.66734 -0.252463 0)
(2.66473 -0.250366 0)
(2.66592 -0.249022 0)
(2.66751 -0.248463 0)
(2.66887 -0.248175 0)
(2.67138 -0.247167 0)
(2.67331 -0.244961 0)
(2.67511 -0.242838 0)
(2.67668 -0.240759 0)
(2.67743 -0.238616 0)
(2.67752 -0.236472 0)
(2.67826 -0.235564 0)
(2.67962 -0.23598 0)
(2.68128 -0.236208 0)
(2.68293 -0.236354 0)
(2.68436 -0.236507 0)
(2.68535 -0.236506 0)
(2.68552 -0.236017 0)
(2.68484 -0.235187 0)
(2.68422 -0.234665 0)
(2.68355 -0.234059 0)
(2.68204 -0.232065 0)
(2.68044 -0.228034 0)
(2.68052 -0.224049 0)
(2.68148 -0.221207 0)
(2.68338 -0.218718 0)
(2.68746 -0.215244 0)
(2.69394 -0.212064 0)
(2.69891 -0.211293 0)
(2.70014 -0.211756 0)
(2.70165 -0.212795 0)
(2.70323 -0.214231 0)
(2.70375 -0.215499 0)
(2.69975 -0.215412 0)
(2.69021 -0.212233 0)
(2.68573 -0.208758 0)
(2.68704 -0.207133 0)
(2.68857 -0.206518 0)
(2.69093 -0.205741 0)
(2.69677 -0.203988 0)
(2.70392 -0.201416 0)
(2.70618 -0.200276 0)
(2.70899 -0.199622 0)
(2.7117 -0.199029 0)
(2.71316 -0.197781 0)
(2.71087 -0.195377 0)
(2.7057 -0.193078 0)
(2.70483 -0.193603 0)
(2.70627 -0.195087 0)
(2.70775 -0.196351 0)
(2.70947 -0.19739 0)
(2.7119 -0.198247 0)
(2.71622 -0.198996 0)
(2.72011 -0.197325 0)
(2.7225 -0.194929 0)
(2.7235 -0.193076 0)
(2.72441 -0.191209 0)
(2.72409 -0.187958 0)
(2.71881 -0.180989 0)
(2.71248 -0.173965 0)
(2.71272 -0.172167 0)
(2.7141 -0.172308 0)
(2.71548 -0.172481 0)
(2.71706 -0.172899 0)
(2.71885 -0.173798 0)
(2.72082 -0.174869 0)
(2.72266 -0.176324 0)
(2.72421 -0.178413 0)
(2.72602 -0.179591 0)
(2.72774 -0.179838 0)
(2.72899 -0.179661 0)
(2.72977 -0.179062 0)
(2.72926 -0.176013 0)
(2.72802 -0.169101 0)
(2.72807 -0.162981 0)
(2.72964 -0.158911 0)
(2.73248 -0.155034 0)
(2.73579 -0.15456 0)
(2.73739 -0.155864 0)
(2.73769 -0.156831 0)
(2.73819 -0.158612 0)
(2.73842 -0.161129 0)
(2.73689 -0.163912 0)
(2.73138 -0.164065 0)
(2.72305 -0.158738 0)
(2.7188 -0.152223 0)
(2.71929 -0.149098 0)
(2.72063 -0.147344 0)
(2.72321 -0.145276 0)
(2.72984 -0.141819 0)
(2.7416 -0.137764 0)
(2.75021 -0.136573 0)
(2.75246 -0.138244 0)
(2.75309 -0.139996 0)
(2.75395 -0.142587 0)
(2.75489 -0.145453 0)
(2.75474 -0.147914 0)
(2.75029 -0.148433 0)
(2.73915 -0.144463 0)
(2.73118 -0.138099 0)
(2.73186 -0.135296 0)
(2.73384 -0.133882 0)
(2.73588 -0.132556 0)
(2.73899 -0.131152 0)
(2.7451 -0.130213 0)
(2.75333 -0.131656 0)
(2.75828 -0.133593 0)
(2.75945 -0.133937 0)
(2.76096 -0.13418 0)
(2.76235 -0.134317 0)
(2.76379 -0.134169 0)
(2.76525 -0.133556 0)
(2.76623 -0.132236 0)
(2.76448 -0.129735 0)
(2.75846 -0.126083 0)
(2.75558 -0.124079 0)
(2.75661 -0.123469 0)
(2.758 -0.122989 0)
(2.75936 -0.122419 0)
(2.76075 -0.121769 0)
(2.76397 -0.120979 0)
(2.76798 -0.12051 0)
(2.76927 -0.120668 0)
(2.77078 -0.121243 0)
(2.77217 -0.121965 0)
(2.77326 -0.122476 0)
(2.77401 -0.123011 0)
(2.77451 -0.123493 0)
(2.77492 -0.124235 0)
(2.77541 -0.125137 0)
(2.77571 -0.125436 0)
(2.77556 -0.124612 0)
(2.77332 -0.121156 0)
(2.7671 -0.112042 0)
(2.75937 -0.100725 0)
(2.75794 -0.096143 0)
(2.75879 -0.0948754 0)
(2.75991 -0.094489 0)
(2.76273 -0.0953374 0)
(2.76729 -0.0985338 0)
(2.77248 -0.102591 0)
(2.7762 -0.105191 0)
(2.77767 -0.105898 0)
(2.77904 -0.106021 0)
(2.78049 -0.106247 0)
(2.78096 -0.106589 0)
(2.78028 -0.106602 0)
(2.77919 -0.105769 0)
(2.77745 -0.103382 0)
(2.77412 -0.0984034 0)
(2.77132 -0.092963 0)
(2.77119 -0.0904272 0)
(2.77205 -0.0885576 0)
(2.774 -0.0862224 0)
(2.77849 -0.0849214 0)
(2.78527 -0.0857111 0)
(2.79013 -0.0871233 0)
(2.7913 -0.0872155 0)
(2.79307 -0.0868522 0)
(2.79495 -0.0867869 0)
(2.79661 -0.0869372 0)
(2.79694 -0.0866779 0)
(2.79214 -0.0846159 0)
(2.78207 -0.0809402 0)
(2.77832 -0.0796647 0)
(2.77923 -0.0801849 0)
(2.78025 -0.0805337 0)
(2.78149 -0.080772 0)
(2.78518 -0.0811888 0)
(2.79086 -0.0824227 0)
(2.79361 -0.0829023 0)
(2.79478 -0.0827093 0)
(2.79663 -0.0815391 0)
(2.79777 -0.0803363 0)
(2.79823 -0.0786161 0)
(2.79307 -0.0709258 0)
(2.78578 -0.0584808 0)
(2.77048 -0.0329388 0)
(2.72442 0.0516449 0)
(2.67253 0.157961 0)
(2.63672 0.249296 0)
(2.5522 0.409045 0)
(2.52678 0.445421 0)
(2.53132 0.425026 0)
(2.52707 0.428086 0)
(2.51682 0.432646 0)
(2.51572 0.434924 0)
(2.5159 0.434714 0)
(2.51663 0.434818 0)
(2.51748 0.435026 0)
(2.51781 0.435177 0)
(2.51659 0.435963 0)
(2.51195 0.43681 0)
(2.5044 0.437223 0)
(2.50019 0.438467 0)
(2.49982 0.440627 0)
(2.50054 0.443301 0)
(2.50154 0.445842 0)
(2.50256 0.447171 0)
(2.50362 0.447825 0)
(2.50599 0.448543 0)
(2.50964 0.447876 0)
(2.51437 0.445869 0)
(2.51961 0.444307 0)
(2.52389 0.443831 0)
(2.52507 0.444189 0)
(2.52589 0.445723 0)
(2.52622 0.447092 0)
(2.52553 0.451585 0)
(2.52358 0.456559 0)
(2.62837 -0.309438 0)
(2.62949 -0.306223 0)
(2.63099 -0.304112 0)
(2.63192 -0.303682 0)
(2.63482 -0.303365 0)
(2.63808 -0.303524 0)
(2.63989 -0.303447 0)
(2.64075 -0.303219 0)
(2.64141 -0.302698 0)
(2.63999 -0.300148 0)
(2.63594 -0.295612 0)
(2.6338 -0.292576 0)
(2.63449 -0.292188 0)
(2.63554 -0.292019 0)
(2.63679 -0.291897 0)
(2.63899 -0.291931 0)
(2.6416 -0.291571 0)
(2.6436 -0.290612 0)
(2.64511 -0.289248 0)
(2.64652 -0.287436 0)
(2.64712 -0.283555 0)
(2.64896 -0.275881 0)
(2.65001 -0.268276 0)
(2.65022 -0.263582 0)
(2.65083 -0.261524 0)
(2.65198 -0.261706 0)
(2.65322 -0.262586 0)
(2.65453 -0.263576 0)
(2.65464 -0.265159 0)
(2.6516 -0.267131 0)
(2.65014 -0.267775 0)
(2.65158 -0.267306 0)
(2.65338 -0.266305 0)
(2.65503 -0.26452 0)
(2.65692 -0.261723 0)
(2.66042 -0.258694 0)
(2.66478 -0.256435 0)
(2.6694 -0.254941 0)
(2.67188 -0.253951 0)
(2.67414 -0.2535 0)
(2.67664 -0.253566 0)
(2.67808 -0.253963 0)
(2.67522 -0.254301 0)
(2.66896 -0.252657 0)
(2.66681 -0.249533 0)
(2.66773 -0.247161 0)
(2.66924 -0.245282 0)
(2.671 -0.243763 0)
(2.67311 -0.242384 0)
(2.67613 -0.241039 0)
(2.67768 -0.240328 0)
(2.6797 -0.239094 0)
(2.68119 -0.23716 0)
(2.68102 -0.234854 0)
(2.67997 -0.232362 0)
(2.68075 -0.231715 0)
(2.68202 -0.23233 0)
(2.68347 -0.232786 0)
(2.6851 -0.232875 0)
(2.68649 -0.232925 0)
(2.68727 -0.232974 0)
(2.687 -0.232907 0)
(2.68618 -0.232845 0)
(2.68571 -0.232467 0)
(2.68558 -0.231137 0)
(2.68565 -0.228223 0)
(2.68633 -0.224291 0)
(2.68763 -0.22042 0)
(2.68975 -0.216622 0)
(2.693 -0.2114 0)
(2.69721 -0.207975 0)
(2.69862 -0.207979 0)
(2.69984 -0.208827 0)
(2.70111 -0.21028 0)
(2.70198 -0.211738 0)
(2.70201 -0.213243 0)
(2.70011 -0.214072 0)
(2.69512 -0.211929 0)
(2.69008 -0.206589 0)
(2.68974 -0.202584 0)
(2.69118 -0.200557 0)
(2.69294 -0.199129 0)