/*--------------------------------*- C++ -*----------------------------------*\
  =========                 |
  \\      /  F ield         | OpenFOAM: The Open Source CFD Toolbox
   \\    /   O peration     | Website:  https://openfoam.org
    \\  /    A nd           | Version:  7
     \\/     M anipulation  |
\*---------------------------------------------------------------------------*/
FoamFile
{
    version     2.0;
    format      ascii;
    class       volScalarField;
    location    "2.8";
    object      p;
}
// * * * * * * * * * * * * * * * * * * * * * * * * * * * * * * * * * * * * * //

dimensions      [1 -1 -2 0 0 0 0];

internalField   nonuniform List<scalar> 
4048
(
1
1
1
1
1
1
1
1
1
1
1
1
1
1
1
1.08892
6.84394
10.6686
10.8836
11.1626
11.4192
11.6477
11.8376
12.0055
1
1
1
1
1
1
1
1
1
1
1
1
1
1
1
1.01965
6.59325
10.5949
10.8224
11.0928
11.3447
11.5618
11.715
11.8055
1
1
1
1
1
1
1
1
1
1
1
1
1
1
1
1.00054
6.10437
10.4723
10.713
10.9483
11.1564
11.3063
11.4127
11.549
1
1
1
1
1
1
1
1
1
1
1
1
1
1
1
1
5.38299
10.2555
10.5607
10.766
10.9455
11.0898
11.151
11.4978
1
1
1
1
1
1
1
1
1
1
1
1
1
1
1
1
4.45967
9.90489
10.3665
10.5331
10.6497
10.6947
10.306
9.71808
1
1
1
1
1
1
1
1
1
1
1
1
1
1
1
1
3.41421
9.37057
10.2103
10.354
10.4003
10.3256
10.005
9.59264
1
1
1
1
1
1
1
1
1
1
1
1
1
1
1
1
2.27082
8.50839
10.0666
10.1548
10.1785
10.0418
9.72781
9.35757
1
1
1
1
1
1
1
1
1
1
1
1
1
1
1
1
1.22774
7.40709
10.1619
10.0242
9.89793
9.72535
9.4879
9.21063
1
1
1
1
1
1
1
1
1
1
1
1
1
1
1
1
1.00618
5.78337
9.48367
9.58391
9.56408
9.43203
9.27428
9.07141
1
1
1
1
1
1
1
1
1
1
1
1
1
1
1
1
0.999941
3.71377
8.86822
9.40197
9.40505
9.28182
9.12193
8.92146
1
1
1
1
1
1
1
1
1
1
1
1
1
1
1
1
0.999986
1.84143
7.8457
9.39919
9.23583
9.0894
8.92098
8.7111
1
1
1
1
1
1
1
1
1
1
1
1
1
1
1
1
0.999998
1.07278
6.03126
8.99451
8.94141
8.85844
8.7167
8.51188
1
1
1
1
1
1
1
1
1
1
1
1
1
1
1
1
1
1.00019
3.37755
8.26701
8.84063
8.77415
8.61341
8.35404
1
1
1
1
1
1
1
1
1
1
1
1
1
1
1
1
1
0.999998
1.38448
7.03463
8.86827
8.67495
8.46856
8.18059
1
1
1
1
1
1
1
1
1
1
1
1
1
1
1
1
1
0.999999
1.01275
4.64026
8.31018
8.47161
8.28449
8.02502
1
1
1
1
1
1
1
1
1
1
1
1
1
1
1
1
1
1
0.999961
1.8534
7.4051
8.50405
8.19552
7.9205
1
1
1
1
1
1
1
1
1
1
1
1
1
1
1
1
1
1
0.99999
1.05861
5.29686
8.18137
8.01404
7.78153
1
1
1
1
1
1
1
1
1
1
1
1
1
1
1
1
1
1
0.999998
1.00018
2.23417
7.24824
8.00768
7.72417
1
1
1
1
1
1
1
1
1
1
1
1
1
1
1
1
1
1
1
1
1.11306
5.22332
7.83254
7.62817
1
1
1
1
1
1
1
1
1
1
1
1
1
1
1
1
1
1
1
1
1.00102
2.17972
6.75108
7.60238
1
1
1
1
1
1
1
1
1
1
1
1
1
1
1
1
1
1
1
1
1
1.10169
4.55545
7.42027
1
1
1
1
1
1
1
1
1
1
1
1
1
1
1
1
1
1
1
1
1
1.00107
1.85778
6.07882
1
1
1
1
1
1
1
1
1
1
1
1
1
1
1
1
1
1
1
1
1
1
1.05495
3.4051
1
1
1
1
1
1
1
1
1
1
1
1
1
1
1
1
1
1
1
1
1
1
1.00057
1.40396
1
1
1
1
1
1
1
1
1
1
1
1
1
1
1
1
1
1
1
1
1
1
1
1.0142
1
1
1
1
1
1
1
1
1
1
1
1
1
1
1
1
1
1
1
1
1
1
1
1.00011
1
1
1
1
1
1
1
1
1
1
1
1
1
1
1
1
1
1
1
1
1
1
1
1
1
1
1
1
1
1
1
1
1
1
1
1
1
1
1
1
1
1
1
1
1
1
1
1
1
1
1
1
1
1
1
1
1
1
1
1
1
1
1
1
1
1
1
1
1
1
1
1
1
1
1
1
1
1
1
1
1
1
1
1
1
1
1
1
1
1
1
1
1
1
1
1
1
1
1
1
1
1
1
1
1
1
1
1
1
1
1
1
1
1
1
1
1
1
1
1
1
1
1
1
1
1
1
1
1
1
1
1
1
1
1
1
1
1
1
1
1
1
1
1
1
1
1
1
1
1
1
1
1
1
1
1
1
1
1
1
1
1
1
1
1
1
1
1
1
1
1
1
1
1
1
1
1
1
1
1
1
1
1
1
1
1
1
1
1
1
1
1
1
1
1
1
1
1
1
1
1
1
1
1
1
1
1
1
1
1
1
1
1
1
1
1
1
1
1
1
1
1
1
1
1
1
1
1
1
1
1
1
1
1
1
1
1
1
1
1
1
1
1
1
1
1
1
1
1
1
1
1
1
1
1
1
1
1
1
1
1
1
1
1
1
1
1
1
1
1
1
1
1
1
1
1
1
1
1
1
1
1
1
1
1
1
1
1
1
1
1
1
1
1
1
1
1
1
1
1
1
1
1
1
1
1
1
1
1
1
1
1
1
1
1
1
1
1
1
1
1
1
1
1
1
1
1
1
1
1
1
1
1
1
1
1
7.32321
8.50245
8.89997
9.17238
9.03168
9.50336
9.32636
9.35694
9.06856
9.17616
9.03194
9.12745
9.04664
9.06462
8.97662
9.30715
8.89603
8.76158
8.24969
6.67749
8.6736
8.32712
7.56606
6.06028
8.40782
7.98864
7.15986
5.87315
8.18151
7.71051
6.89235
5.8088
8.00103
7.49302
6.75958
5.85035
7.80116
7.32136
6.67855
5.90079
7.66081
7.2016
6.62689
5.95886
7.56342
7.11904
6.58504
5.99783
7.45894
7.04229
6.55219
6.02849
7.39059
6.9897
6.54766
6.07628
7.30156
6.93508
6.53616
6.10593
7.26761
6.92697
6.54649
6.13951
7.22347
6.89258
6.53128
6.1548
7.21547
6.85315
6.53433
6.1915
6.73168
6.85999
6.56248
6.2399
4.96122
6.88259
6.61139
6.29493
2.23012
5.8318
6.61534
6.33039
1.11063
3.39679
6.1354
6.38036
1.00193
1.4153
4.40149
6.24314
1.00001
1.01605
1.94361
5.05163
1
1.00015
1.07032
2.58369
1
1
1.00112
1.19108
1
1
1
1.00496
1
1
1
1.00003
1
1
1
1
1
1
1
1
1
1
1
1
1
1
1
1
1
1
1
1
1
1
1
1
1
1
1
1
1
1
1
1
1.9821
0.752169
0.455478
0.503519
0.580522
0.650473
0.793909
0.996202
1.11386
1.15187
1.17076
1.20407
1.23806
1.27014
1.30686
1.32778
1.3316
1.33642
1.33288
1.3167
1.301
1.29804
1.30489
1.31515
1.32628
1.33467
1.33853
1.33761
1.33447
1.32786
1.32312
1.32117
1.3226
1.33164
1.34228
1.34209
1.3325
1.32956
1.73366
5.05634
6.54295
6.48788
6.3486
6.18214
6.02772
5.92575
5.86575
5.78
5.6493
5.50632
5.36802
5.24334
5.13794
5.04505
4.95296
4.84879
4.74697
4.65753
4.58066
4.49347
4.39997
4.30089
4.19936
4.11969
4.05699
4.01585
3.99151
3.93418
3.86451
3.77432
3.63828
3.50966
3.44143
3.39423
3.3643
3.3599
3.34615
3.30765
3.25806
3.17701
3.04276
2.9378
2.88949
2.85512
2.83068
2.82337
2.81256
2.78484
2.74975
2.68344
2.57303
2.4684
3.08446
1.9107
1.25085
1.0856
0.974573
0.878705
0.877258
0.877147
0.9068
0.957395
1.01435
1.088
1.14674
1.19336
1.24326
1.27715
1.28568
1.29404
1.29921
1.2946
1.28909
1.29461
1.30569
1.31667
1.32873
1.33945
1.34084
1.33957
1.33596
1.32985
1.3241
1.31988
1.3191
1.32275
1.32498
1.32099
1.32705
1.42192
1.97778
4.56727
6.38898
6.39708
6.21831
6.04417
5.91496
5.81695
5.7532
5.67376
5.59167
5.50525
5.38772
5.2542
5.11188
4.98411
4.87847
4.79397
4.72081
4.65909
4.60176
4.52609
4.43793
4.33953
4.22388
4.1159
4.04341
3.98709
3.94367
3.90332
3.84607
3.77212
3.67823
3.5647
3.46508
3.4074
3.36926
3.34625
3.31532
3.27593
3.22974
3.16728
3.08014
2.98217
2.90619
2.86461
2.83736
2.8188
2.79676
2.76759
2.73055
2.67645
2.59967
2.4904
3.82367
2.70636
1.99328
1.54811
1.28305
1.06918
0.957518
0.896459
0.870308
0.903381
0.979575
1.05266
1.10612
1.14299
1.18783
1.23074
1.25665
1.28394
1.321
1.32975
1.32289
1.32427
1.32961
1.32951
1.32852
1.32951
1.3296
1.32655
1.32346
1.32233
1.32302
1.32482
1.32983
1.33186
1.32714
1.33136
1.41491
1.9491
2.65085
3.5215
5.28256
6.18812
6.31083
6.20856
6.03541
5.85584
5.72424
5.61085
5.53839
5.49879
5.4274
5.32333
5.1859
5.01026
4.85257
4.75255
4.67618
4.62492
4.58548
4.52475
4.45281
4.37688
4.28098
4.15873
4.05014
3.97015
3.90318
3.84242
3.78234
3.72754
3.67118
3.61057
3.53245
3.44437
3.3782
3.32793
3.28143
3.23317
3.17795
3.12192
3.07725
3.03125
2.96758
2.8936
2.84163
2.80671
2.77376
2.73716
2.6938
2.64378
2.60056
2.5278
4.37113
3.32314
2.58291
2.09063
1.71693
1.43736
1.26366
1.16611
1.05086
0.983614
0.991541
0.984395
0.996769
1.02453
1.07664
1.12898
1.17357
1.20947
1.25381
1.29434
1.30667
1.32433
1.34461
1.34815
1.34477
1.3385
1.32888
1.31639
1.31004
1.30865
1.31008
1.31318
1.32044
1.32482
1.33137
1.39664
1.85183
2.77167
3.20383
3.19194
3.69249
4.94383
5.83105
6.17453
6.0904
5.87799
5.6361
5.50592
5.4483
5.42976
5.38695
5.30006
5.18504
5.03241
4.85883
4.72881
4.6517
4.59196
4.548
4.49177
4.42703
4.36052
4.28254
4.17632
4.05003
3.95825
3.89453
3.83201
3.77179
3.72018
3.67263
3.62422
3.56427
3.47533
3.37561
3.30462
3.2478
3.1907
3.14022
3.10389
3.0774
3.04836
3.00755
2.94321
2.86105
2.79814
2.75091
2.70191
2.65073
2.61211
2.58873
2.54193
4.76515
3.8374
3.0974
2.57592
2.15487
1.78865
1.58681
1.41857
1.26896
1.137
1.08017
1.019
0.975307
0.986314
1.00818
1.04209
1.0808
1.11824
1.16539
1.21408
1.24635
1.27567
1.305
1.33386
1.34113
1.3442
1.34235
1.33403
1.32359
1.31551
1.31193
1.30616
1.30732
1.32035
1.38681
1.76699
2.7416
3.19427
3.29631
3.2046
3.21214
3.58546
4.55751
5.48698
5.96146
5.95112
5.67869
5.50962
5.41117
5.36086
5.33184
5.26538
5.16876
5.0401
4.89243
4.74479
4.63833
4.57109
4.51596
4.46704
4.40916
4.3476
4.2783
4.18877
4.06186
3.92858
3.85261
3.80328
3.76075
3.72395
3.68784
3.64302
3.58745
3.49535
3.35908
3.25511
3.19748
3.15653
3.12531
3.10577
3.09355
3.06666
3.03124
2.97922
2.88654
2.78178
2.71179
2.66164
2.62689
2.60323
2.58658
2.54363
5.00949
4.21516
3.52715
2.9909
2.55391
2.16115
1.90741
1.70403
1.52017
1.37172
1.27239
1.18468
1.08313
1.05822
1.0481
1.03033
1.02416
1.03551
1.0726
1.12338
1.17385
1.21309
1.24921
1.28791
1.30006
1.30729
1.3187
1.3355
1.33593
1.3344
1.33143
1.32189
1.32052
1.3913
1.77513
2.62657
3.30651
3.32014
3.2899
3.23628
3.1904
3.17832
3.39825
4.13274
5.13982
5.67578
5.64029
5.52711
5.41462
5.31216
5.23256
5.16039
5.08392
5.00175
4.90701
4.79345
4.65676
4.53843
4.46887
4.41443
4.36934
4.31965
4.26085
4.192
4.09618
3.95784
3.84087
3.78629
3.74457
3.71
3.6766
3.63296
3.58035
3.49461
3.35861
3.23354
3.17591
3.14354
3.11714
3.10328
3.09379
3.06873
3.03838
2.99537
2.90163
2.76092
2.67085
2.63436
2.61102
2.59087
2.58295
2.54275
5.20233
4.49396
3.87871
3.35943
2.89936
2.50885
2.22475
1.99159
1.77364
1.60703
1.47737
1.35277
1.23308
1.15233
1.10808
1.05463
1.02767
1.03533
1.05262
1.06633
1.08915
1.11848
1.15518
1.19538
1.23354
1.25952
1.28111
1.30854
1.31612
1.32313
1.32475
1.32976
1.39175
1.87967
2.65103
3.28382
3.38523
3.33109
3.26501
3.20895
3.15233
3.12006
3.09604
3.20057
3.71971
4.65816
5.29145
5.45673
5.43224
5.30099
5.15989
5.0577
4.99733
4.95444
4.90524
4.82299
4.70505
4.54726
4.42931
4.36831
4.32049
4.28296
4.2324
4.174
4.104
3.99979
3.86233
3.77296
3.72587
3.68416
3.64426
3.59816
3.53918
3.4612
3.36356
3.25912
3.1827
3.14466
3.11942
3.10224
3.0886
3.06626
3.03045
2.97363
2.87865
2.75718
2.67205
2.63566
2.61084
2.58816
2.57623
2.5361
5.33354
4.70058
4.15647
3.65904
3.18928
2.8271
2.52309
2.25915
2.01689
1.84276
1.69367
1.54932
1.4239
1.32573
1.25018
1.17574
1.11226
1.1057
1.0897
1.07038
1.05605
1.0585
1.06667
1.08685
1.12418
1.17419
1.21656
1.25996
1.28545
1.29923
1.31163
1.37284
1.81593
2.80817
3.25932
3.32823
3.34264
3.3045
3.24924
3.19343
3.1274
3.08391
3.05189
3.02134
3.0623
3.3752
4.15605
4.94611
5.25859
5.26284
5.1338
4.99283
4.92341
4.89454
4.88533
4.82261
4.73663
4.59694
4.42302
4.32549
4.26712
4.22458
4.19596
4.14914
4.09437
4.02507
3.91483
3.77934
3.69677
3.64576
3.59549
3.53919
3.47936
3.42303
3.3713
3.31467
3.23701
3.16366
3.12831
3.10095
3.06833
3.02145
2.96366
2.90154
2.8357
2.7694
2.70304
2.64991
2.61971
2.59507
2.57746
2.53681
5.43437
4.88004
4.38658
3.90538
3.45526
3.11244
2.79626
2.50554
2.25211
2.07868
1.90272
1.7453
1.60277
1.51086
1.41191
1.32045
1.23899
1.19082
1.13849
1.09075
1.06142
1.05758
1.05593
1.05473
1.06122
1.08772
1.12758
1.17327
1.21806
1.25758
1.32543
1.72759
2.71997
3.24998
3.37414
3.38871
3.38341
3.33479
3.26668
3.18837
3.0965
3.03265
2.99703
2.96568
2.96098
2.9555
3.11848
3.70844
4.46111
4.95925
5.02993
4.95055
4.88474
4.87037
4.85868
4.79855
4.73534
4.63193
4.46006
4.30971
4.23829
4.18674
4.14907
4.11889
4.07254
4.0177
3.94219
3.81836
3.68187
3.60025
3.54408
3.49046
3.44411
3.40888
3.37793
3.34234
3.28883
3.20677
3.1216
3.06389
3.01738
2.96787
2.91343
2.8552
2.80953
2.77394
2.73068
2.67237
2.63088
2.6089
2.58781
2.52863
5.5315
5.03056
4.57389
4.10289
3.68914
3.356
3.04206
2.72542
2.48833
2.29562
2.10806
1.9323
1.79174
1.68803
1.57703
1.47227
1.38571
1.32153
1.24948
1.17948
1.12444
1.11117
1.08721
1.06208
1.05949
1.06425
1.07295
1.09051
1.131
1.19166
1.60821
2.5105
3.17422
3.31288
3.33787
3.3321
3.33831
3.3183
3.25476
3.16741
3.06721
2.99512
2.95901
2.9296
2.91479
2.90669
2.86776
2.92698
3.2485
3.8862
4.55611
4.74
4.81775
4.86286
4.82714
4.76308
4.69846
4.61453
4.49238
4.33882
4.22412
4.16198
4.11371
4.07404
4.03394
3.98365
3.92609
3.83745
3.69561
3.57181
3.50558
3.45989
3.42367
3.39558
3.37382
3.34337
3.30284
3.23219
3.12007
3.02435
2.9663
2.91911
2.87184
2.83645
2.81082
2.78244
2.74679
2.69773
2.6384
2.58342
2.54522
2.48003
5.61267
5.14932
4.7238
4.27859
3.89708
3.57391
3.25828
2.93572
2.71527
2.50477
2.30995
2.10717
1.9784
1.85813
1.73762
1.62208
1.53196
1.45414
1.36867
1.28317
1.21495
1.17884
1.13599
1.09262
1.07393
1.06744
1.0675
1.07018
1.10267
1.48818
2.33953
2.96626
3.09628
3.15181
3.18018
3.21009
3.25195
3.26159
3.21587
3.13422
3.0408
2.9739
2.93469
2.91049
2.89737
2.87664
2.83189
2.79945
2.76815
2.89333
3.38323
4.01591
4.522
4.67602
4.74375
4.73011
4.65222
4.57074
4.47643
4.3713
4.24762
4.14498
4.08135
4.03153
3.98692
3.94093
3.88915
3.8215
3.71046
3.57068
3.48917
3.44682
3.41097
3.38089
3.3552
3.32541
3.28964
3.23098
3.12134
2.99678
2.92382
2.88115
2.85211
2.83057
2.81244
2.78776
2.75744
2.71265
2.63859
2.55387
2.49987
2.43752
5.68982
5.25957
4.85628
4.44238
4.08038
3.77244
3.44657
3.1411
2.92173
2.70831
2.49033
2.28414
2.15941
2.02028
1.89163
1.76069
1.67725
1.58982
1.49689
1.4069
1.33139
1.28427
1.2298
1.17627
1.14148
1.11256
1.09823
1.13217
1.42296
2.32832
2.85384
2.92197
2.92422
2.94128
2.97395
3.01334
3.05579
3.0783
3.08324
3.0612
3.01364
2.96118
2.91334
2.88362
2.85485
2.82812
2.7986
2.75162
2.71276
2.64639
2.67777
2.93708
3.5266
4.09936
4.47394
4.54918
4.56397
4.53669
4.44415
4.35975
4.26392
4.14991
4.0487
3.98284
3.93542
3.89131
3.84247
3.78487
3.70635
3.59301
3.49211
3.44056
3.40294
3.36577
3.32859
3.29297
3.25362
3.19886
3.10753
2.99285
2.91214
2.87276
2.84728
2.82506
2.8047
2.77919
2.75054
2.71207
2.63733
2.52826
2.45694
2.40148
5.74457
5.35355
4.97798
4.5935
4.24699
3.94608
3.6227
3.3329
3.10854
2.89801
2.65414
2.46312
2.32589
2.1816
2.03351
1.89794
1.81718
1.71996
1.62565
1.52184
1.45544
1.39875
1.33603
1.2756
1.21324
1.16243
1.18001
1.45401
2.30954
2.97319
3.00772
2.95742
2.88124
2.83
2.81448
2.81434
2.82315
2.83108
2.85552
2.89229
2.90169
2.87235
2.83647
2.80805
2.78301
2.77273
2.74728
2.70661
2.67095
2.62676
2.56773
2.52287
2.62674
3.02158
3.62299
4.06774
4.31899
4.42188
4.39532
4.32162
4.24076
4.14523
4.03715
3.94109
3.87889
3.83684
3.79263
3.74232
3.68338
3.60441
3.50566
3.43005
3.38657
3.34905
3.31078
3.26911
3.21792
3.14864
3.06394
2.98628
2.93382
2.89165
2.84907
2.81454
2.78797
2.76507
2.74343
2.70627
2.63017
2.5069
2.4268
2.3865
5.81385
5.45034
5.09647
4.73439
4.40664
4.10499
3.79047
3.50721
3.28173
3.06275
2.81875
2.63558
2.4854
2.33542
2.16607
2.03809
1.95177
1.84893
1.74929
1.63993
1.57784
1.51241
1.44667
1.37168
1.30071
1.31702
1.61706
2.39702
3.16579
3.20467
3.11478
2.99841
2.89429
2.81203
2.76887
2.73494
2.7094
2.6986
2.70116
2.69233
2.71281
2.71236
2.69666
2.67701
2.65343
2.64147
2.64883
2.6592
2.63494
2.59685
2.54713
2.49533
2.41414
2.42796
2.60652
3.05841
3.57931
4.07696
4.20784
4.22368
4.20477
4.12911
4.03269
3.928
3.83882
3.78687
3.74573
3.69928
3.64893
3.59279
3.51548
3.41952
3.35546
3.31805
3.28395
3.24498
3.19325
3.12176
3.03815
2.97153
2.92867
2.89106
2.85297
2.81625
2.77767
2.73548
2.68856
2.63931
2.58406
2.50438
2.44412
2.39631
5.8944
5.54197
5.19415
4.85721
4.54878
4.24681
3.93514
3.66824
3.44146
3.21164
2.96971
2.79624
2.64143
2.48326
2.299
2.17909
2.08164
1.97497
1.86152
1.76023
1.69613
1.62615
1.54644
1.45874
1.46535
1.78026
2.62717
3.36248
3.45355
3.33707
3.20739
3.10164
2.99872
2.8739
2.76524
2.70455
2.65952
2.6339
2.61733
2.61234
2.58551
2.54598
2.49753
2.46689
2.46493
2.48068
2.49776
2.50738
2.52802
2.53943
2.51805
2.4697
2.3981
2.31973
2.28901
2.34711
2.58338
3.08811
3.59941
3.94356
4.04877
4.05539
4.01583
3.91247
3.80894
3.75064
3.70659
3.66501
3.62433
3.5791
3.5176
3.4229
3.32896
3.2825
3.24772
3.20922
3.16424
3.1101
3.04737
2.97434
2.9031
2.85722
2.82618
2.79838
2.76549
2.71753
2.65517
2.58943
2.52562
2.48326
2.46223
2.42092
5.96708
5.62491
5.28681
4.96503
4.66203
4.37021
4.07759
3.82204
3.58874
3.35258
3.12021
2.95403
2.79076
2.62126
2.43662
2.32082
2.21348
2.10156
1.97346
1.88112
1.81195
1.72792
1.63601
1.65462
2.00226
2.95491
3.63845
3.7147
3.58995
3.45144
3.34605
3.25257
3.14
3.0004
2.84796
2.74247
2.68421
2.63528
2.59416
2.55988
2.53019
2.50643
2.46509
2.36674
2.30375
2.29302
2.30457
2.32345
2.35131
2.38532
2.40649
2.3932
2.35139
2.29624
2.23214
2.1921
2.1915
2.28866
2.61593
3.12454
3.56229
3.81756
3.8612
3.8348
3.77706
3.70726
3.65888
3.63402
3.60163
3.56512
3.51948
3.4465
3.33213
3.22468
3.1763
3.14527
3.11512
3.08447
3.04998
2.99702
2.90562
2.82281
2.797
2.77835
2.74673
2.70106
2.63921
2.5694
2.50448
2.46227
2.45131
2.4206
6.00012
5.67944
5.37045
5.06079
4.75854
4.47843
4.21398
3.9602
3.7303
3.48831
3.269
3.09822
2.92735
2.74993
2.57506
2.46129
2.3402
2.21899
2.0859
1.99906
1.91522
1.81573
1.84463
2.30231
3.37488
4.04147
4.02325
3.86107
3.68997
3.58649
3.49486
3.39261
3.28059
3.1506
2.98567
2.84368
2.75541
2.68625
2.62475
2.56999
2.51823
2.46998
2.42562
2.3688
2.28394
2.20809
2.17637
2.16959
2.17273
2.17955
2.19759
2.22022
2.23476
2.22194
2.18184
2.12739
2.09699
2.08891
2.12154
2.27287
2.62285
3.10504
3.44207
3.61604
3.63943
3.62277
3.61252
3.5928
3.56636
3.53848
3.50437
3.44858
3.33501
3.1893
3.12086
3.08848
3.06326
3.04401
3.02363
2.99453
2.93826
2.84509
2.75166
2.69326
2.66173
2.63537
2.60611
2.57159
2.53127
2.47518
2.43395
2.39477
6.09242
5.76358
5.46563
5.17146
4.87531
4.60229
4.34246
4.09195
3.86729
3.62984
3.41377
3.23369
3.07422
2.87582
2.7156
2.59517
2.46424
2.33663
2.20484
2.10841
2.00862
2.04892
2.58762
3.90031
4.55295
4.40339
4.19203
3.9898
3.83583
3.73792
3.63494
3.52678
3.41717
3.2959
3.14286
2.9695
2.83643
2.74656
2.67267
2.60632
2.54365
2.48255
2.42653
2.37258
2.30445
2.21118
2.13755
2.10823
2.07981
2.05426
2.04279
2.03775
2.0439
2.0663
2.0771
2.06172
2.03101
1.99399
1.97375
1.97535
2.02863
2.22397
2.58178
3.00121
3.32077
3.44707
3.47817
3.51628
3.54238
3.50983
3.46452
3.40992
3.32162
3.19345
3.08342
3.03707
3.01425
2.99672
2.98023
2.95902
2.93098
2.87186
2.74588
2.64188
2.60512
2.58833
2.57706
2.56515
2.54602
2.50706
2.44659
2.37093
6.17644
5.87169
5.56085
5.26003
4.98514
4.72303
4.4585
4.20378
3.9829
3.76713
3.54425
3.36126
3.19683
2.9981
2.84375
2.71963
2.5937
2.44072
2.31125
2.2032
2.25829
2.88459
4.20164
4.95693
4.88383
4.63501
4.38467
4.15037
3.98892
3.8738
3.75713
3.64093
3.52734
3.41191
3.28653
3.13502
2.96933
2.84123
2.74944
2.67103
2.59915
2.53053
2.46302
2.39813
2.33264
2.25572
2.16762
2.0889
2.03799
2.00572
1.97585
1.95137
1.93693
1.93173
1.92723
1.92358
1.90598
1.88082
1.8625
1.84678
1.84579
1.87083
1.97147
2.18546
2.52735
2.90389
3.15666
3.33765
3.38707
3.42295
3.40458
3.35892
3.28585
3.20045
3.09895
3.01124
2.97311
2.95507
2.949
2.94312
2.91915
2.87226
2.77794
2.66104
2.58631
2.55335
2.53234
2.5148
2.50184
2.48274
2.45424
2.37691
6.1186
5.95946
5.64895
5.34769
5.08501
4.82515
4.55899
4.31701
4.11098
3.88675
3.659
3.48241
3.32006
3.12969
2.96458
2.82979
2.70696
2.55762
2.41653
2.49875
3.30192
4.60734
5.34881
5.32817
5.10402
4.85291
4.61642
4.35802
4.12917
3.9784
3.8556
3.73661
3.62215
3.51188
3.40078
3.27616
3.12494
2.9621
2.83032
2.73285
2.65092
2.57504
2.50333
2.43801
2.37474
2.30757
2.22704
2.13087
2.05027
1.99258
1.94459
1.91592
1.89721
1.87396
1.85031
1.82965
1.7994
1.76064
1.73506
1.72848
1.73098
1.73715
1.75567
1.80296
1.89448
2.08808
2.40556
2.79029
3.03987
3.23278
3.29016
3.28278
3.25146
3.18563
3.09984
3.02518
2.97583
2.93796
2.89919
2.85465
2.81789
2.78508
2.74864
2.6894
2.59683
2.52329
2.49316
2.47541
2.46518
2.45935
2.44526
2.38
5.40075
5.97833
5.76607
5.44851
5.18497
4.93194
4.66823
4.43547
4.21989
4.0045
3.78411
3.61316
3.43606
3.24422
3.09058
2.95648
2.81489
2.6614
2.78396
3.80816
5.34268
5.72317
5.60968
5.35941
5.14805
4.97718
4.78998
4.57597
4.32438
4.10501
3.95339
3.82532
3.70492
3.59054
3.48061
3.36927
3.24462
3.09687
2.94162
2.81281
2.7148
2.63269
2.55863
2.49174
2.42806
2.36134
2.28248
2.18553
2.08742
2.0047
1.94966
1.91803
1.88535
1.84822
1.81727
1.78635
1.74675
1.70564
1.65962
1.6313
1.62559
1.62899
1.63737
1.64215
1.64366
1.66743
1.74145
1.95523
2.29613
2.6992
3.01638
3.08007
3.12001
3.11357
3.07822
3.04162
2.9907
2.92805
2.86936
2.81361
2.76348
2.72657
2.70677
2.67797
2.61069
2.54013
2.4935
2.45837
2.42635
2.4014
2.39369
2.36493
3.2416
5.51935
5.8257
5.58104
5.29471
5.02378
4.77285
4.56045
4.34152
4.11519
3.89866
3.73273
3.55413
3.37355
3.19611
3.06654
2.92987
3.11607
4.26816
6.02268
6.49234
6.17547
5.73779
5.43122
5.25018
5.10454
4.93778
4.75585
4.54163
4.29825
4.0883
3.9269
3.78783
3.65857
3.53808
3.42653
3.31718
3.1962
3.05301
2.90697
2.7891
2.69694
2.61607
2.54014
2.46736
2.39613
2.32244
2.2366
2.13479
2.03836
1.97237
1.92677
1.88834
1.85387
1.81924
1.77687
1.72618
1.67609
1.62833
1.58644
1.56817
1.55917
1.55464
1.54721
1.53591
1.52034
1.50633
1.52172
1.62458
1.86019
2.26027
2.62086
2.92372
3.00567
2.96747
2.92925
2.91917
2.90157
2.85074
2.80466
2.75825
2.70986
2.65166
2.58866
2.56917
2.55287
2.50823
2.45428
2.40996
2.3777
2.34915
2.2876
1.39356
3.78579
5.53297
5.67293
5.44828
5.12883
4.88081
4.66744
4.45135
4.21095
4.03125
3.85419
3.67098
3.45857
3.31264
3.19879
3.47401
4.8646
6.60297
6.88531
6.62721
6.25102
5.89321
5.63012
5.43294
5.24926
5.06731
4.88208
4.68499
4.4683
4.24367
4.04365
3.87975
3.73874
3.61007
3.49038
3.37693
3.26199
3.13389
2.99143
2.85834
2.75337
2.66797
2.59008
2.51497
2.44258
2.37199
2.29509
2.20083
2.09731
2.01394
1.95767
1.91396
1.87499
1.83515
1.78954
1.74144
1.68788
1.62433
1.57337
1.54729
1.52836
1.51246
1.49638
1.47777
1.45737
1.4266
1.39201
1.39155
1.42433
1.55275
1.82407
2.19829
2.61927
2.80329
2.80851
2.80412
2.80098
2.82238
2.81534
2.77227
2.71184
2.63757
2.57175
2.51178
2.4685
2.46537
2.45213
2.42419
2.37928
2.32906
2.24803
1.01627
1.65981
4.16932
5.47818
5.53703
5.27547
4.99361
4.77368
4.54647
4.32382
4.14037
3.96995
3.76924
3.57199
3.47583
3.8908
5.60454
7.14648
7.61642
7.26578
6.79609
6.4326
6.10837
5.84625
5.61614
5.38549
5.16568
4.96281
4.77002
4.5759
4.37015
4.15966
3.97275
3.82034
3.68819
3.56443
3.44419
3.32428
3.19977
3.0652
2.92691
2.80522
2.70766
2.6242
2.54682
2.47399
2.40539
2.33541
2.25556
2.16792
2.08068
2.00174
1.93985
1.88597
1.83431
1.7921
1.75857
1.71177
1.6441
1.58333
1.54514
1.51717
1.49399
1.47369
1.45003
1.42347
1.3912
1.34703
1.32403
1.31824
1.32425
1.36315
1.48512
1.77322
2.1382
2.47696
2.58901
2.64418
2.6932
2.72344
2.74079
2.72272
2.67273
2.59384
2.50705
2.4324
2.3755
2.3623
2.35821
2.34893
2.31589
2.23755
1.00016
1.03984
1.94937
4.40637
5.39979
5.38763
5.13976
4.88811
4.64109
4.4287
4.26496
4.06721
3.85152
3.79863
4.46559
6.51825
7.96681
7.90485
7.71478
7.38872
7.03014
6.68983
6.35859
6.03878
5.74914
5.493
5.26074
5.04916
4.85331
4.66239
4.46584
4.26051
4.06345
3.89576
3.75418
3.62555
3.50176
3.37845
3.25308
3.12367
2.99046
2.86352
2.7555
2.66522
2.58399
2.50466
2.4239
2.34591
2.27632
2.2069
2.12945
2.05413
1.99126
1.93519
1.88153
1.82679
1.76489
1.69868
1.63806
1.58953
1.54982
1.51589
1.48758
1.46304
1.43867
1.40824
1.37146
1.33045
1.30277
1.28479
1.26965
1.26192
1.26363
1.30529
1.42682
1.67328
2.00718
2.3505
2.49624
2.56367
2.61471
2.61134
2.61104
2.593
2.53764
2.44571
2.35976
2.30188
2.28043
2.27062
2.27824
2.23611
1
1.00055
1.07863
2.21532
4.54674
5.29168
5.2605
5.03381
4.75284
4.55172
4.35979
4.13917
4.16297
5.11971
7.48685
8.95069
8.84518
8.23827
7.72485
7.4357
7.17419
6.85992
6.52367
6.18645
5.87053
5.59872
5.36406
5.15078
4.94955
4.75202
4.55123
4.34684
4.14821
3.96906
3.81342
3.67406
3.54349
3.41737
3.29235
3.16556
3.03899
2.91843
2.80974
2.71462
2.62953
2.55088
2.47349
2.38807
2.28826
2.18658
2.11833
2.07743
2.03476
1.98115
1.9182
1.85141
1.78535
1.72413
1.6664
1.61139
1.57169
1.54166
1.5037
1.46406
1.43565
1.41297
1.38425
1.33791
1.29183
1.26517
1.24933
1.23887
1.22594
1.20838
1.19829
1.23175
1.3389
1.59545
1.92676
2.29734
2.43887
2.46706
2.4988
2.49296
2.48236
2.45302
2.37194
2.2879
2.24846
2.22643
2.21536
2.2049
1
1
1.00148
1.12709
2.44617
4.5981
5.19656
5.15283
4.90815
4.6635
4.42302
4.54402
5.95997
8.37808
9.61925
9.44938
9.07209
8.51776
7.95994
7.58858
7.28972
6.98542
6.66075
6.32648
6.00718
5.72498
5.47764
5.25134
5.03664
4.82707
4.62024
4.41664
4.21912
4.03391
3.86757
3.71904
3.58108
3.44773
3.31973
3.1987
3.07843
2.9583
2.84866
2.75403
2.66867
2.58442
2.49845
2.40937
2.3169
2.22481
2.14419
2.08159
2.03329
1.99001
1.94461
1.89069
1.81874
1.73222
1.67223
1.64249
1.61199
1.57375
1.53095
1.49062
1.45276
1.40884
1.35743
1.30972
1.27451
1.25209
1.23623
1.22162
1.20873
1.18999
1.17493
1.14916
1.12826
1.15468
1.27072
1.54045
1.9012
2.21343
2.33987
2.38138
2.37937
2.37245
2.35134
2.30032
2.24496
2.21366
2.19591
2.16057
1
1
1.00001
1.00298
1.18219
2.62759
4.57222
5.12736
5.03894
4.76514
5.04216
6.98064
9.59941
10.3057
10.1915
9.60612
9.17833
8.71024
8.19846
7.75038
7.39161
7.0767
6.76237
6.44174
6.12859
5.83411
5.56446
5.31809
5.09038
4.87575
4.66971
4.47064
4.27881
4.09497
3.9224
3.76409
3.61981
3.4865
3.35804
3.22585
3.0955
2.98326
2.88689
2.78757
2.69537
2.61291
2.52934
2.43686
2.32854
2.2311
2.1631
2.10658
2.05875
2.01133
1.96018
1.90016
1.82577
1.75229
1.69763
1.64312
1.5938
1.55726
1.53437
1.51315
1.47793
1.42184
1.35484
1.29652
1.27076
1.257
1.23488
1.20902
1.19776
1.18929
1.1725
1.13869
1.09697
1.05691
1.05815
1.09926
1.24038
1.52578
1.85869
2.16413
2.23107
2.24709
2.24671
2.24735
2.25664
2.23946
2.20346
2.14709
1
1
1
1.00002
1.00541
1.23279
2.71165
4.71516
4.87819
5.48641
8.18088
10.6672
11.1072
10.8849
10.3767
9.87291
9.40928
8.95557
8.46189
7.98238
7.57121
7.22749
6.92182
6.62821
6.32364
6.01501
5.72435
5.46339
5.22905
5.01684
4.81767
4.62234
4.42608
4.23113
4.04639
3.87966
3.73149
3.59466
3.45861
3.31533
3.15472
2.99175
2.8921
2.83637
2.77743
2.70048
2.61173
2.50702
2.36925
2.23954
2.19379
2.16332
2.1195
2.06994
2.01772
1.95956
1.88615
1.79742
1.71154
1.6444
1.60573
1.58007
1.55375
1.52044
1.48281
1.43911
1.37957
1.32159
1.28145
1.25191
1.22771
1.20964
1.19246
1.17154
1.14509
1.10805
1.06515
1.03304
1.02206
1.01798
1.02453
1.07558
1.22461
1.50016
1.83622
2.04242
2.07181
2.10976
2.15258
2.19275
2.20086
2.15761
1
1
1
1
1.00004
1.00737
1.28305
2.85303
4.44494
9.04996
11.9041
12.2589
11.5464
11.0867
10.5669
10.0228
9.49416
9.00024
8.5235
8.07439
7.6684
7.30452
6.96667
6.63539
6.30615
5.98419
5.68384
5.41686
5.18104
4.96781
4.76874
4.57364
4.3756
4.1783
3.99393
3.8305
3.68478
3.54834
3.4116
3.2674
3.12321
3.00839
2.9219
2.83118
2.73911
2.65573
2.5691
2.46472
2.35145
2.2685
2.20741
2.1458
2.08908
2.03667
1.98553
1.93216
1.86486
1.76775
1.70055
1.68053
1.65815
1.62809
1.59208
1.55117
1.50117
1.44404
1.383
1.32753
1.28564
1.2546
1.23064
1.21028
1.1901
1.16854
1.14216
1.10445
1.05982
1.02909
1.01751
1.00829
1.00045
0.997138
1.00339
1.05192
1.19315
1.42371
1.72039
1.92652
1.98528
2.06182
2.10215
2.13507
1
1
1
1
1
1.00006
1.00974
1.32748
5.77543
12.8446
13.0426
12.2797
11.5249
11.0161
10.5722
10.0628
9.50337
8.98719
8.54138
8.13922
7.74995
7.37793
7.02387
6.68066
6.34316
6.01374
5.70789
5.43848
5.20192
4.98657
4.78294
4.58327
4.38186
4.18139
3.99475
3.83168
3.68791
3.55306
3.41648
3.27435
3.14294
3.03439
2.93122
2.82689
2.73133
2.64684
2.5625
2.46519
2.36126
2.27955
2.21469
2.1546
2.09434
2.03651
1.98582
1.9336
1.86422
1.7781
1.71218
1.66232
1.62462
1.59183
1.55781
1.5282
1.50633
1.47092
1.41652
1.35512
1.30844
1.27913
1.25714
1.23742
1.21765
1.19473
1.16447
1.12239
1.07599
1.04558
1.03007
1.01616
1.00319
0.985978
0.973758
0.963532
0.976365
1.02135
1.15548
1.40057
1.65129
1.90611
2.00577
2.32247
1
1
1
1
1
1
1.00006
1.01947
6.97687
13.412
13.2242
12.5654
12.0233
11.4431
10.9109
10.3323
9.67783
9.07037
8.57249
8.1674
7.78566
7.41209
7.05061
6.70215
6.36233
6.03117
5.72488
5.45732
5.222
5.0041
4.79388
4.58878
4.38818
4.19279
4.00706
3.83649
3.6822
3.54169
3.41199
3.28997
3.1715
3.05222
2.94018
2.84105
2.74711
2.64605
2.53786
2.43885
2.35926
2.2871
2.21791
2.16035
2.11158
2.06001
1.99019
1.90509
1.83111
1.77693
1.7239
1.66614
1.6164
1.57984
1.5513
1.52399
1.48784
1.44088
1.3791
1.3149
1.27108
1.24359
1.22353
1.20589
1.18645
1.16228
1.1289
1.08349
1.03979
1.0151
1.00175
0.988472
0.976167
0.963243
0.950631
0.937816
0.920738
0.891808
0.900172
0.960984
1.16369
1.52776
2.04951
2.86338
)
;

boundaryField
{
    inlet
    {
        type            fixedValue;
        value           uniform 1;
    }
    outlet
    {
        type            zeroGradient;
    }
    bottom
    {
        type            zeroGradient;
    }
    top
    {
        type            zeroGradient;
    }
    obstacle
    {
        type            zeroGradient;
    }
    defaultFaces
    {
        type            empty;
    }
}


// ************************************************************************* //
