/*--------------------------------*- C++ -*----------------------------------*\
  =========                 |
  \\      /  F ield         | OpenFOAM: The Open Source CFD Toolbox
   \\    /   O peration     | Website:  https://openfoam.org
    \\  /    A nd           | Version:  7
     \\/     M anipulation  |
\*---------------------------------------------------------------------------*/
FoamFile
{
    version     2.0;
    format      ascii;
    class       volScalarField;
    location    "0.4";
    object      T;
}
// * * * * * * * * * * * * * * * * * * * * * * * * * * * * * * * * * * * * * //

dimensions      [0 0 0 1 0 0 0];

internalField   nonuniform List<scalar> 
16192
(
1.20314
1.22204
1.22985
1.22912
1.22609
1.22194
1.21288
1.19145
1.17086
1.16602
1.1653
1.16557
1.16983
1.18374
1.198
1.20015
1.19819
1.19333
1.18684
1.17613
1.16055
1.15176
1.14994
1.14979
1.15278
1.1594
1.16088
1.15977
1.15617
1.14706
1.1338
1.12777
1.12701
1.12748
1.13372
1.14492
1.14712
1.14516
1.1392
1.12714
1.11238
1.10592
1.10494
1.10528
1.10935
1.11168
1.11027
1.10519
1.09578
1.08659
1.08378
1.08358
1.0855
1.09317
1.09754
1.09711
1.09446
1.08732
1.07773
1.07443
1.0741
1.07473
1.08033
1.08985
1.09253
1.09238
1.09122
1.08601
1.07595
1.07086
1.07044
1.0704
1.07133
1.07541
1.07875
1.07863
1.07661
1.07347
1.06951
1.06536
1.0643
1.06422
1.06433
1.06569
1.06968
1.07334
1.0744
1.07488
1.07508
1.07494
1.07243
1.0636
1.05231
1.04603
1.04265
1.04071
1.04125
1.04737
1.0534
1.05386
1.05383
1.05405
1.054
1.05275
1.05114
1.05071
1.0515
1.05339
1.05459
1.0555
1.05668
1.05736
1.05735
1.05622
1.05215
1.04601
1.04019
1.03623
1.03569
1.0358
1.03605
1.03683
1.03876
1.04229
1.04682
1.05011
1.05121
1.05134
1.05126
1.05065
1.0486
1.04313
1.03667
1.03316
1.03209
1.03158
1.03153
1.0326
1.03714
1.04234
1.04408
1.04484
1.04538
1.04521
1.04372
1.04293
1.04309
1.04343
1.04412
1.04586
1.04743
1.04765
1.04762
1.04754
1.04732
1.04709
1.04693
1.04682
1.04676
1.04672
1.04669
1.04623
1.0437
1.0385
1.03571
1.03565
1.03574
1.03635
1.03896
1.04287
1.0442
1.04434
1.04425
1.04285
1.03891
1.03593
1.03587
1.03619
1.03689
1.03818
1.03892
1.03902
1.03908
1.03911
1.03864
1.03654
1.03441
1.03414
1.03419
1.03431
1.035
1.03766
1.04203
1.04369
1.04375
1.0438
1.04386
1.04389
1.04334
1.0407
1.03741
1.03651
1.03655
1.03675
1.03713
1.03781
1.03927
1.04249
1.04631
1.04739
1.04746
1.04748
1.04734
1.04675
1.04542
1.0431
1.04214
1.04225
1.04284
1.04442
1.04787
1.0519
1.05314
1.0529
1.05216
1.0512
1.04786
1.03606
1.0144
1.00145
1.00002
1
1
1
1
1
1
1
1
1
1
1
1
1
1
1
1
1
1
1
1
1
1
1.22056
1.23379
1.23435
1.23145
1.2267
1.21801
1.19784
1.17401
1.16721
1.16635
1.16639
1.16952
1.18179
1.19896
1.20388
1.20292
1.19913
1.1935
1.18416
1.16836
1.15573
1.15235
1.15168
1.15316
1.15986
1.16333
1.16258
1.15968
1.15232
1.13923
1.13085
1.12969
1.12991
1.13433
1.14645
1.15227
1.15144
1.14715
1.13712
1.12167
1.11168
1.11
1.10987
1.1127
1.11664
1.11619
1.11227
1.10366
1.09249
1.087
1.08637
1.08704
1.09314
1.10099
1.10175
1.10019
1.09477
1.08396
1.07611
1.07484
1.07476
1.07744
1.08738
1.09504
1.09561
1.09518
1.09272
1.08437
1.07532
1.07365
1.07357
1.07386
1.07618
1.08042
1.08165
1.08083
1.07799
1.07388
1.06942
1.0674
1.06702
1.06686
1.06724
1.06974
1.07393
1.07593
1.07682
1.07762
1.078
1.07739
1.07188
1.06106
1.05368
1.05099
1.04865
1.04785
1.05046
1.05703
1.05831
1.05729
1.05593
1.05465
1.05264
1.05061
1.05008
1.051
1.05367
1.05631
1.05833
1.05978
1.06066
1.06102
1.06079
1.05917
1.05556
1.05001
1.04442
1.04042
1.03854
1.03829
1.03832
1.03858
1.04012
1.0442
1.04879
1.05177
1.05353
1.05425
1.05438
1.05401
1.05096
1.04415
1.03844
1.03631
1.03508
1.03439
1.03446
1.03667
1.04221
1.04542
1.04629
1.04695
1.04716
1.04639
1.04502
1.04507
1.04568
1.04642
1.04765
1.04952
1.05033
1.05032
1.05012
1.04992
1.04981
1.04964
1.04943
1.04924
1.04914
1.04909
1.04903
1.04819
1.04481
1.03959
1.03797
1.03804
1.03836
1.03977
1.04329
1.04555
1.04577
1.04577
1.04526
1.04278
1.03867
1.03756
1.03775
1.0383
1.03934
1.04074
1.04122
1.0413
1.04136
1.0413
1.0402
1.03739
1.03608
1.03611
1.03621
1.03657
1.03816
1.04201
1.04503
1.04542
1.04543
1.04542
1.04537
1.04518
1.04344
1.04029
1.03838
1.03811
1.0381
1.03824
1.03857
1.03919
1.04064
1.04386
1.047
1.04774
1.04789
1.048
1.04806
1.04779
1.04689
1.04614
1.04612
1.04669
1.0479
1.0494
1.05084
1.05215
1.05309
1.0531
1.05208
1.04665
1.03127
1.00972
1.00065
1
1
1
1
1
1
1
1
1
1
1
1
1
1
1
1
1
1
1
1
1
1
1
1
1.23696
1.23974
1.23739
1.23213
1.22336
1.20441
1.17791
1.16833
1.16715
1.16696
1.16899
1.17914
1.19807
1.20715
1.20708
1.20453
1.20001
1.19226
1.17734
1.16087
1.15505
1.15378
1.15424
1.15976
1.16568
1.16563
1.1631
1.15704
1.14504
1.1343
1.13203
1.13211
1.13512
1.1465
1.15619
1.15668
1.15399
1.14609
1.13157
1.11833
1.11493
1.11463
1.11633
1.12123
1.12187
1.11929
1.11192
1.09994
1.09107
1.08926
1.08924
1.09299
1.10279
1.10632
1.10561
1.10206
1.09243
1.08014
1.076
1.07551
1.07631
1.08318
1.09534
1.09902
1.09889
1.09778
1.0928
1.0823
1.07676
1.07642
1.07644
1.07742
1.08086
1.08386
1.08399
1.08258
1.07911
1.07444
1.0713
1.07043
1.06996
1.06991
1.07107
1.07476
1.07746
1.07826
1.07913
1.08003
1.08019
1.07716
1.06771
1.05918
1.0574
1.05667
1.05615
1.05736
1.06269
1.06505
1.06335
1.05938
1.05626
1.05348
1.05072
1.04985
1.05041
1.05254
1.05564
1.05898
1.06229
1.0635
1.06352
1.06356
1.06342
1.06242
1.05936
1.05436
1.04928
1.0451
1.04227
1.04087
1.04044
1.04049
1.04239
1.04705
1.05083
1.05328
1.05549
1.05686
1.05719
1.05646
1.05191
1.045
1.04145
1.03991
1.03852
1.03793
1.03843
1.04228
1.04694
1.048
1.04835
1.04861
1.04838
1.04704
1.04666
1.04736
1.04847
1.04961
1.05133
1.05269
1.05288
1.05283
1.0526
1.05231
1.05227
1.05225
1.05208
1.05184
1.05166
1.05156
1.05136
1.04997
1.04564
1.04101
1.04032
1.04048
1.04117
1.04367
1.04677
1.04736
1.04735
1.04721
1.04601
1.0426
1.0397
1.03956
1.03992
1.04069
1.04204
1.04325
1.04351
1.04358
1.04362
1.04317
1.04067
1.0381
1.03779
1.03794
1.03829
1.03936
1.04246
1.04625
1.04722
1.04723
1.04718
1.04704
1.04675
1.04556
1.04268
1.04002
1.03974
1.03982
1.03986
1.04004
1.04045
1.04121
1.04298
1.0464
1.04853
1.04879
1.04886
1.04884
1.04859
1.04832
1.04855
1.04932
1.05052
1.05187
1.05264
1.0527
1.05218
1.05094
1.05014
1.04862
1.04231
1.02537
1.00596
1.00024
1
1
1
1
1
1
1
1
1
1
1
1
1
1
1
1
1
1
1
1
1
1
1
1
1
1.24512
1.24354
1.23834
1.22945
1.21149
1.18293
1.1697
1.16789
1.16746
1.16852
1.17619
1.19522
1.20949
1.21075
1.20932
1.20603
1.20003
1.18676
1.16733
1.15818
1.15615
1.15601
1.15978
1.16765
1.16893
1.16693
1.16166
1.1511
1.13859
1.13439
1.13428
1.13611
1.14569
1.15843
1.16088
1.15958
1.15407
1.14152
1.12594
1.11982
1.11928
1.12017
1.12523
1.12744
1.12593
1.12032
1.10865
1.09643
1.09232
1.09192
1.09362
1.1028
1.11056
1.11078
1.10867
1.10137
1.08747
1.07828
1.07679
1.07671
1.08005
1.09227
1.10199
1.10279
1.10227
1.09976
1.09136
1.08099
1.07884
1.07875
1.07893
1.08068
1.08455
1.08637
1.08607
1.08418
1.08046
1.07657
1.07474
1.07381
1.07342
1.07373
1.07625
1.07953
1.0802
1.0805
1.08121
1.0817
1.08029
1.07315
1.0635
1.06106
1.06157
1.06247
1.06483
1.06971
1.0727
1.07165
1.06607
1.05959
1.05542
1.05231
1.05088
1.05098
1.05191
1.05396
1.05715
1.06145
1.06473
1.06581
1.06611
1.06614
1.06604
1.06554
1.0635
1.0591
1.0539
1.04963
1.04625
1.044
1.04314
1.04337
1.04623
1.05063
1.05293
1.05485
1.05706
1.05853
1.0587
1.05719
1.05178
1.04672
1.04519
1.04383
1.04255
1.04229
1.04368
1.04833
1.05054
1.05048
1.05026
1.04995
1.04891
1.04806
1.04855
1.04999
1.0514
1.05288
1.05459
1.05526
1.05529
1.05526
1.05509
1.05484
1.0548
1.05486
1.05481
1.05459
1.05435
1.05417
1.0538
1.05178
1.04629
1.0427
1.04258
1.04287
1.04424
1.04748
1.04918
1.04921
1.04917
1.04876
1.04671
1.04295
1.04162
1.04176
1.04228
1.04328
1.04477
1.04554
1.04565
1.04571
1.04552
1.04381
1.04066
1.03942
1.03948
1.03975
1.04059
1.04305
1.04714
1.04904
1.0491
1.04907
1.04897
1.04871
1.04797
1.04592
1.04256
1.04101
1.04104
1.04105
1.04108
1.04124
1.04168
1.04268
1.04509
1.04907
1.05104
1.05127
1.05139
1.05146
1.05161
1.05208
1.053
1.05375
1.05392
1.05344
1.05286
1.05282
1.05245
1.05136
1.04757
1.03715
1.01795
1.00291
1.00007
1
1
1
1
1
1
1
1
1
1
1
1
1
1
1
1
1
1
1
1
1
1
1
1
1
1
1.24951
1.24492
1.2363
1.21924
1.1894
1.17169
1.16884
1.16812
1.16843
1.1736
1.1908
1.21025
1.2143
1.21354
1.21136
1.207
1.19577
1.17499
1.16178
1.15877
1.15822
1.16052
1.16901
1.17264
1.1712
1.16657
1.15721
1.14389
1.13724
1.13665
1.13753
1.1448
1.15894
1.16423
1.16377
1.16048
1.15066
1.13445
1.12527
1.12395
1.12422
1.12863
1.1329
1.13227
1.12842
1.11816
1.10336
1.09597
1.09487
1.09533
1.10199
1.11352
1.11587
1.11474
1.10973
1.09717
1.08273
1.07851
1.07805
1.07915
1.08772
1.10248
1.10701
1.1068
1.10541
1.10045
1.08883
1.08118
1.0806
1.08057
1.08094
1.08335
1.08737
1.0886
1.08813
1.08612
1.08287
1.08039
1.07884
1.07781
1.07761
1.07864
1.08178
1.08281
1.08265
1.08271
1.08294
1.08218
1.07698
1.06742
1.06349
1.06419
1.06624
1.0702
1.07611
1.07916
1.07881
1.07517
1.06795
1.06049
1.05521
1.05282
1.05275
1.05294
1.05352
1.05515
1.05911
1.06373
1.06621
1.06764
1.0684
1.06867
1.06873
1.06862
1.06752
1.06369
1.05819
1.05394
1.05049
1.04786
1.04702
1.04783
1.05147
1.05401
1.05497
1.05632
1.05819
1.05932
1.05929
1.0568
1.05142
1.04961
1.04904
1.04798
1.04717
1.04732
1.04985
1.05325
1.05354
1.05285
1.05188
1.05088
1.04982
1.04982
1.05091
1.05262
1.05429
1.056
1.05715
1.05751
1.05764
1.05765
1.05757
1.05742
1.0574
1.05757
1.05759
1.05739
1.05706
1.05675
1.05585
1.05226
1.0465
1.04456
1.04465
1.04522
1.04735
1.05051
1.0512
1.05117
1.05109
1.05038
1.04765
1.04442
1.0439
1.0441
1.04468
1.04585
1.04713
1.04749
1.04759
1.04759
1.04672
1.04379
1.04145
1.04132
1.04148
1.04203
1.04385
1.04762
1.05015
1.0505
1.05056
1.05054
1.05048
1.0503
1.04922
1.0464
1.04398
1.04338
1.04316
1.04317
1.04318
1.0432
1.04337
1.04418
1.04685
1.05106
1.05299
1.05333
1.05359
1.05403
1.05487
1.05614
1.05714
1.05749
1.0573
1.05534
1.05204
1.05006
1.04798
1.04276
1.02961
1.01069
1.00105
1.00001
1
1
1
1
1
1
1
1
1
1
1
1
1
1
1
1
1
1
1
1
1
1
1
1
1
1
1
1.25154
1.24371
1.22774
1.19732
1.1747
1.17025
1.16911
1.16892
1.17192
1.18593
1.20898
1.21774
1.21757
1.21611
1.21301
1.2038
1.18313
1.16565
1.16137
1.16064
1.16195
1.16997
1.17644
1.1759
1.17188
1.16355
1.15022
1.14085
1.13927
1.13954
1.14446
1.15825
1.16669
1.16693
1.16515
1.15806
1.14307
1.13135
1.12878
1.12864
1.13181
1.13795
1.13843
1.13591
1.12751
1.11195
1.10049
1.09807
1.09793
1.10174
1.11443
1.12097
1.12054
1.11727
1.10741
1.09041
1.08114
1.07989
1.07999
1.0845
1.09939
1.11066
1.1115
1.11069
1.10784
1.09922
1.08626
1.08199
1.08192
1.08193
1.08256
1.08556
1.08987
1.09099
1.09054
1.08886
1.08672
1.08492
1.08335
1.08254
1.08261
1.08441
1.08603
1.08566
1.08492
1.08457
1.08369
1.07956
1.07079
1.06553
1.06589
1.06827
1.07273
1.07954
1.08386
1.08403
1.08253
1.07831
1.07145
1.06327
1.05695
1.05523
1.05497
1.05497
1.0551
1.05682
1.06164
1.06576
1.06762
1.06927
1.07062
1.07128
1.07159
1.0716
1.07056
1.06667
1.06159
1.0584
1.05547
1.05303
1.05259
1.05419
1.05668
1.05696
1.05712
1.05783
1.05909
1.05966
1.05914
1.05545
1.05246
1.05269
1.05274
1.05233
1.05212
1.05296
1.05578
1.05696
1.0564
1.05479
1.05333
1.05225
1.05193
1.05226
1.05335
1.05504
1.05708
1.05867
1.05925
1.05956
1.05987
1.06004
1.06004
1.06001
1.06009
1.06039
1.0604
1.06013
1.05971
1.05917
1.05742
1.05219
1.04711
1.04646
1.04665
1.04755
1.05048
1.05314
1.05338
1.05337
1.05331
1.05221
1.04887
1.04637
1.04623
1.04646
1.0471
1.04833
1.04911
1.04926
1.04929
1.0489
1.0468
1.04384
1.04327
1.04342
1.04386
1.04523
1.04857
1.05162
1.05212
1.0521
1.0521
1.05208
1.05197
1.05119
1.04898
1.04636
1.04562
1.04564
1.04557
1.04559
1.04568
1.04583
1.04621
1.04748
1.0509
1.05512
1.05656
1.05682
1.05707
1.05751
1.0581
1.05842
1.05855
1.05867
1.05793
1.05586
1.05262
1.04679
1.03619
1.01953
1.00465
1.00026
1
1
1
1
1
1
1
1
1
1
1
1
1
1
1
1
1
1
1
1
1
1
1
1
1
1
1
1
1
1.25109
1.23662
1.20643
1.17892
1.17235
1.17066
1.17002
1.1715
1.18189
1.20578
1.22083
1.22172
1.22067
1.2183
1.21071
1.1911
1.16974
1.16381
1.16295
1.16375
1.17084
1.17996
1.18068
1.17763
1.17022
1.15738
1.14552
1.1423
1.14216
1.14497
1.15703
1.16828
1.16944
1.16837
1.16339
1.15066
1.13724
1.1335
1.13328
1.13529
1.14237
1.14457
1.1429
1.13614
1.12146
1.10599
1.1014
1.10101
1.10273
1.11365
1.12534
1.12624
1.12413
1.11681
1.10085
1.08564
1.08209
1.08186
1.08362
1.09459
1.1116
1.1163
1.11589
1.11399
1.10872
1.09609
1.08455
1.08289
1.0829
1.08296
1.08401
1.08782
1.09261
1.09384
1.09358
1.09262
1.0913
1.08975
1.08837
1.08788
1.08827
1.08972
1.08967
1.08821
1.08684
1.08543
1.08172
1.07376
1.06769
1.06724
1.06901
1.07334
1.08046
1.08621
1.08703
1.08676
1.08556
1.08227
1.07581
1.06744
1.06147
1.05863
1.05741
1.05698
1.05707
1.05949
1.06481
1.06781
1.06919
1.07082
1.07255
1.07388
1.07465
1.07469
1.07326
1.06837
1.0645
1.06275
1.0607
1.05927
1.05952
1.06125
1.06133
1.06003
1.05952
1.0597
1.06019
1.06021
1.05815
1.05434
1.05401
1.05544
1.05664
1.05687
1.05722
1.05874
1.06039
1.06036
1.05893
1.05668
1.05522
1.05479
1.05478
1.05498
1.05574
1.05733
1.05953
1.06081
1.06122
1.06158
1.062
1.06233
1.06248
1.0626
1.06294
1.0632
1.06311
1.06276
1.06226
1.06129
1.05801
1.05177
1.04839
1.0483
1.04859
1.05005
1.05372
1.05586
1.05596
1.05597
1.0558
1.05421
1.0505
1.04856
1.04857
1.04885
1.04964
1.05071
1.05103
1.05109
1.05097
1.04974
1.04675
1.04528
1.04541
1.04579
1.04673
1.04931
1.05279
1.05387
1.05389
1.0539
1.05391
1.05389
1.05362
1.05237
1.0495
1.04731
1.0473
1.04731
1.04727
1.04728
1.04737
1.04763
1.04839
1.05059
1.05502
1.05883
1.05995
1.06038
1.06089
1.06155
1.06198
1.06198
1.06084
1.05789
1.05481
1.0505
1.04206
1.02681
1.00964
1.00125
1.00004
1
1
1
1
1
1
1
1
1
1
1
1
1
1
1
1
1
1
1
1
1
1
1
1
1
1
1
1
1
1
1.24535
1.21624
1.1843
1.17514
1.17292
1.1718
1.17237
1.1795
1.20168
1.22294
1.22621
1.22534
1.22316
1.21668
1.19865
1.17404
1.16594
1.16495
1.1655
1.17164
1.18279
1.18536
1.18341
1.1772
1.16531
1.15152
1.14592
1.1453
1.14662
1.15599
1.16907
1.17162
1.17082
1.16713
1.15679
1.14268
1.13753
1.13737
1.13897
1.14609
1.15053
1.14954
1.14405
1.13093
1.11272
1.10494
1.10414
1.10476
1.11256
1.12773
1.13193
1.13071
1.12552
1.1124
1.09308
1.08485
1.08414
1.08459
1.09088
1.10864
1.12031
1.12092
1.11977
1.11647
1.10765
1.09208
1.08422
1.08377
1.08376
1.0839
1.08559
1.0906
1.09604
1.09732
1.09726
1.09689
1.09606
1.09481
1.09377
1.09356
1.09398
1.0942
1.09289
1.09043
1.08794
1.08403
1.07656
1.06999
1.06887
1.06967
1.07256
1.07874
1.08652
1.08925
1.08928
1.0892
1.08866
1.08633
1.08008
1.07227
1.06702
1.06317
1.06068
1.05974
1.06004
1.06318
1.06811
1.07005
1.0711
1.07259
1.07446
1.07616
1.07706
1.07693
1.07362
1.06902
1.0681
1.06748
1.06653
1.06638
1.06746
1.06804
1.06634
1.06315
1.06179
1.06153
1.06124
1.05971
1.05625
1.05475
1.0558
1.05852
1.06043
1.06137
1.06233
1.06342
1.06374
1.06343
1.06174
1.05946
1.05807
1.05768
1.05765
1.05771
1.0582
1.05962
1.06155
1.06265
1.06321
1.0636
1.06406
1.06456
1.06489
1.06526
1.06576
1.06582
1.06567
1.0653
1.06472
1.06302
1.05794
1.0517
1.05008
1.05015
1.05064
1.05297
1.05726
1.05879
1.05884
1.05886
1.05837
1.05559
1.05159
1.0506
1.0507
1.05107
1.05199
1.05266
1.05275
1.05275
1.05222
1.04992
1.04751
1.04745
1.0478
1.04854
1.05036
1.05361
1.05532
1.05542
1.05542
1.05541
1.05538
1.05528
1.05493
1.05346
1.05087
1.05006
1.05019
1.05028
1.05026
1.05028
1.0504
1.05076
1.05188
1.05495
1.05963
1.0621
1.06263
1.06288
1.0631
1.06331
1.06366
1.0635
1.06196
1.05786
1.04895
1.03383
1.01526
1.00311
1.00019
1
1
1
1
1
1
1
1
1
1
1
1
1
1
1
1
1
1
1
1
1
1
1
1
1
1
1
1
1
1
1
1
1.22594
1.19054
1.17851
1.17577
1.1743
1.17435
1.17905
1.19809
1.22388
1.23099
1.23033
1.2281
1.22218
1.20557
1.17872
1.16791
1.16664
1.16701
1.17237
1.18472
1.18974
1.18871
1.18403
1.17361
1.15865
1.15042
1.14897
1.14937
1.15586
1.16938
1.17373
1.173
1.16989
1.16147
1.1476
1.14092
1.1406
1.14209
1.149
1.15575
1.15574
1.15161
1.14023
1.12076
1.10888
1.10708
1.10724
1.1121
1.12774
1.13712
1.13699
1.13361
1.12363
1.10391
1.08923
1.08676
1.08669
1.08952
1.10343
1.12162
1.12566
1.12512
1.12297
1.11756
1.10435
1.08895
1.08499
1.08479
1.08474
1.08503
1.08756
1.09416
1.10019
1.10135
1.10135
1.10124
1.1008
1.09999
1.09936
1.09925
1.09916
1.09799
1.0953
1.09202
1.08747
1.07985
1.07262
1.07072
1.07093
1.07228
1.07632
1.0837
1.08957
1.09123
1.09174
1.09183
1.09169
1.08982
1.08403
1.07738
1.07284
1.06858
1.06527
1.06415
1.06443
1.06722
1.07121
1.07255
1.0733
1.07454
1.07625
1.07786
1.07844
1.07708
1.0725
1.0709
1.07138
1.07187
1.07244
1.0736
1.07455
1.07407
1.07077
1.06654
1.06422
1.06288
1.06113
1.05841
1.05627
1.05645
1.05849
1.06146
1.06365
1.06517
1.06629
1.06675
1.06676
1.06637
1.06518
1.06334
1.06164
1.06067
1.06043
1.06042
1.06075
1.06194
1.06345
1.06442
1.06509
1.06553
1.06598
1.06667
1.06732
1.06799
1.06832
1.06828
1.06813
1.06783
1.06702
1.06395
1.05728
1.05241
1.05199
1.05211
1.05304
1.0567
1.06111
1.062
1.06206
1.06207
1.06111
1.05672
1.05307
1.05278
1.05296
1.0536
1.05446
1.05465
1.05468
1.05454
1.0532
1.05049
1.04977
1.04997
1.05045
1.05159
1.05416
1.05673
1.05722
1.05726
1.05729
1.0573
1.05724
1.05685
1.05561
1.05351
1.05225
1.05215
1.05223
1.05243
1.05267
1.05296
1.05334
1.05407
1.05587
1.05974
1.06406
1.066
1.06668
1.06697
1.06687
1.06551
1.06283
1.06018
1.05503
1.04286
1.02273
1.00592
1.00056
1.00001
1
1
1
1
1
1
1
1
1
1
1
1
1
1
1
1
1
1
1
1
1
1
1
1
1
1
1
1
1
1
1
1
1
1.19714
1.18215
1.17903
1.17741
1.17716
1.18025
1.19595
1.22396
1.23592
1.23576
1.23326
1.22745
1.21212
1.18394
1.16982
1.16807
1.16833
1.17294
1.18578
1.19352
1.19337
1.19015
1.18162
1.16681
1.15591
1.15324
1.15307
1.15702
1.16961
1.17603
1.17544
1.17242
1.16514
1.15209
1.14399
1.14318
1.14446
1.15103
1.15988
1.16116
1.15886
1.14958
1.13003
1.11355
1.10999
1.10988
1.11252
1.12609
1.1409
1.14271
1.1411
1.13425
1.11712
1.09632
1.08979
1.08933
1.09025
1.09895
1.11911
1.12966
1.12999
1.12874
1.12545
1.11677
1.09943
1.08771
1.08627
1.08602
1.08592
1.08652
1.09036
1.09873
1.10454
1.10546
1.10557
1.10556
1.10541
1.10507
1.10483
1.10458
1.10346
1.10093
1.09753
1.09231
1.08414
1.07602
1.07323
1.07303
1.07316
1.07482
1.08024
1.08777
1.09153
1.09301
1.09413
1.09465
1.09463
1.09299
1.08755
1.08181
1.07844
1.07477
1.07115
1.06969
1.06975
1.07142
1.07438
1.07535
1.07572
1.07655
1.07781
1.07859
1.07817
1.07507
1.07251
1.07331
1.07522
1.07719
1.0792
1.08017
1.08004
1.07852
1.07465
1.06997
1.06615
1.06314
1.06059
1.05887
1.05886
1.05966
1.06137
1.0636
1.06582
1.06768
1.06896
1.06965
1.06977
1.06957
1.06894
1.06765
1.06566
1.06399
1.06331
1.06322
1.06344
1.06439
1.06548
1.06622
1.06682
1.06722
1.06773
1.06869
1.06976
1.0706
1.07073
1.0707
1.07061
1.07036
1.06903
1.06407
1.05674
1.05405
1.05401
1.05428
1.05616
1.06135
1.0649
1.06519
1.06523
1.06486
1.06174
1.05648
1.05472
1.0548
1.05525
1.05619
1.0566
1.05664
1.05665
1.05623
1.05434
1.0525
1.05245
1.05271
1.05329
1.05473
1.05727
1.05867
1.05883
1.05889
1.05894
1.05897
1.05894
1.05853
1.05675
1.05519
1.05514
1.05507
1.05498
1.05509
1.05523
1.05541
1.05584
1.05719
1.06053
1.06505
1.06729
1.06775
1.06808
1.06834
1.06807
1.0666
1.06226
1.05145
1.03201
1.01104
1.00143
1.00005
1
1
1
1
1
1
1
1
1
1
1
1
1
1
1
1
1
1
1
1
1
1
1
1
1
1
1
1
1
1
1
1
1
1
1
1.18551
1.18223
1.18074
1.18042
1.18266
1.19563
1.22372
1.24078
1.2416
1.23907
1.23306
1.21867
1.18994
1.17191
1.16943
1.1695
1.17338
1.18618
1.19652
1.19724
1.19524
1.18867
1.17519
1.16212
1.15798
1.15751
1.15962
1.17026
1.17858
1.17843
1.17535
1.16852
1.15614
1.147
1.14552
1.14642
1.15232
1.16281
1.16589
1.16489
1.15833
1.14027
1.11961
1.1134
1.11268
1.11375
1.12383
1.14261
1.14822
1.14756
1.14373
1.13076
1.1072
1.09412
1.09239
1.09237
1.0968
1.11408
1.13172
1.13449
1.1339
1.13181
1.12672
1.11353
1.09494
1.08839
1.08774
1.08739
1.08731
1.08854
1.09439
1.10421
1.1088
1.10937
1.10959
1.10981
1.10981
1.10977
1.1097
1.10906
1.10712
1.10404
1.09841
1.08949
1.08029
1.07675
1.07591
1.07546
1.07565
1.0781
1.08467
1.09107
1.0933
1.09458
1.09619
1.09723
1.09728
1.09568
1.09033
1.08567
1.08363
1.08109
1.07782
1.0756
1.07524
1.07588
1.07796
1.07852
1.07834
1.07848
1.07887
1.07851
1.07597
1.07309
1.07349
1.07632
1.07982
1.08263
1.08406
1.0842
1.08382
1.08218
1.07866
1.07379
1.0682
1.06384
1.06193
1.06199
1.06239
1.0629
1.06381
1.06523
1.06702
1.06903
1.07095
1.07236
1.07295
1.07295
1.07262
1.07165
1.06989
1.06783
1.06657
1.06628
1.06641
1.0671
1.06764
1.06798
1.06838
1.0687
1.06932
1.07061
1.07211
1.07309
1.07318
1.07317
1.07315
1.07281
1.07027
1.06323
1.05698
1.05614
1.05618
1.05686
1.06036
1.06638
1.06835
1.06838
1.06835
1.06696
1.06161
1.05695
1.05653
1.05672
1.05754
1.0584
1.05845
1.05847
1.05845
1.05779
1.05586
1.05488
1.05497
1.05529
1.05596
1.05761
1.0599
1.06069
1.06078
1.06085
1.06089
1.06088
1.06049
1.0591
1.0574
1.05718
1.05733
1.05739
1.05751
1.05768
1.05787
1.05821
1.05921
1.06223
1.06743
1.07034
1.07054
1.07011
1.06859
1.06661
1.06433
1.05847
1.04337
1.01957
1.00355
1.00019
1
1
1
1
1
1
1
1
1
1
1
1
1
1
1
1
1
1
1
1
1
1
1
1
1
1
1
1
1
1
1
1
1
1
1
1
1
1.18499
1.1838
1.18359
1.18561
1.19678
1.22392
1.24542
1.24771
1.24541
1.23921
1.22555
1.1968
1.17473
1.17108
1.17095
1.17387
1.186
1.19862
1.20042
1.1992
1.19446
1.18299
1.16877
1.16301
1.16232
1.16339
1.17178
1.18147
1.18204
1.17902
1.17218
1.16012
1.15007
1.14786
1.14831
1.15323
1.16474
1.16997
1.16973
1.1655
1.15026
1.12695
1.11768
1.11605
1.11613
1.12216
1.14165
1.15366
1.15385
1.1518
1.1431
1.12127
1.10059
1.09593
1.0955
1.09716
1.10912
1.13081
1.13878
1.13869
1.13729
1.13424
1.1262
1.10802
1.09258
1.08981
1.08923
1.08883
1.08893
1.09152
1.10018
1.11005
1.11277
1.11312
1.11338
1.11374
1.11397
1.114
1.11381
1.11297
1.11093
1.10561
1.09598
1.08537
1.0807
1.07945
1.07886
1.07886
1.07982
1.08314
1.08898
1.09357
1.09506
1.09617
1.09779
1.09912
1.09926
1.09774
1.09267
1.0894
1.08835
1.08675
1.08427
1.08184
1.08077
1.08092
1.08216
1.08232
1.0812
1.08018
1.07922
1.0768
1.07387
1.07371
1.07569
1.07969
1.08417
1.08669
1.08689
1.0868
1.08652
1.08541
1.08252
1.07704
1.07101
1.06698
1.06576
1.06557
1.06551
1.06565
1.06601
1.06662
1.0679
1.07002
1.07258
1.07502
1.07603
1.07607
1.07591
1.07527
1.07394
1.07209
1.07039
1.06965
1.06967
1.06986
1.06978
1.06981
1.06995
1.07014
1.07085
1.07239
1.07436
1.07551
1.07569
1.07575
1.07576
1.07499
1.07042
1.06215
1.05847
1.05838
1.05856
1.0602
1.06572
1.07086
1.07149
1.07148
1.07094
1.06718
1.06077
1.05841
1.05845
1.05889
1.06015
1.06078
1.0608
1.06082
1.06077
1.05993
1.05802
1.0572
1.05727
1.05753
1.05815
1.05974
1.06182
1.06259
1.06274
1.06285
1.06294
1.06295
1.06238
1.06061
1.0596
1.05958
1.05958
1.05956
1.0596
1.0597
1.06007
1.06121
1.06388
1.06766
1.0699
1.0706
1.07095
1.07078
1.06947
1.06506
1.05306
1.03079
1.00864
1.00074
1.00001
1
1
1
1
1
1
1
1
1
1
1
1
1
1
1
1
1
1
1
1
1
1
1
1
1
1
1
1
1
1
1
1
1
1
1
1
1
1
1.18626
1.1862
1.18839
1.19875
1.2248
1.24986
1.25401
1.252
1.24591
1.23286
1.20465
1.17851
1.17305
1.17273
1.17487
1.18578
1.19996
1.20304
1.20221
1.19873
1.18944
1.17527
1.16802
1.16709
1.16774
1.17435
1.18471
1.18621
1.18362
1.17665
1.1644
1.15337
1.15034
1.15038
1.15407
1.16581
1.17346
1.17366
1.1709
1.15891
1.13468
1.1219
1.11976
1.11952
1.12263
1.13897
1.15799
1.16058
1.15926
1.15348
1.13601
1.10992
1.10001
1.09909
1.0995
1.10647
1.12729
1.1424
1.14357
1.14252
1.14011
1.13535
1.1228
1.10178
1.09237
1.09128
1.09069
1.09039
1.09113
1.09614
1.10761
1.11537
1.11649
1.11674
1.117
1.11738
1.1178
1.11782
1.11773
1.11697
1.1128
1.1031
1.09115
1.08534
1.08371
1.08295
1.08291
1.08401
1.08651
1.08924
1.0921
1.09516
1.09689
1.09781
1.09913
1.10043
1.10066
1.0992
1.09484
1.09283
1.0924
1.09153
1.08981
1.0878
1.08672
1.08675
1.08736
1.08666
1.08372
1.0811
1.07842
1.07535
1.07477
1.0757
1.07824
1.08198
1.08661
1.08938
1.08965
1.08968
1.0896
1.08907
1.0864
1.08035
1.07497
1.07233
1.0707
1.06941
1.06843
1.06802
1.06798
1.06819
1.06914
1.07106
1.07392
1.07734
1.07882
1.07896
1.07896
1.07871
1.07786
1.07635
1.07467
1.07349
1.07295
1.07247
1.07187
1.07171
1.07171
1.07185
1.07247
1.07413
1.07659
1.07788
1.07819
1.07835
1.07828
1.07639
1.06931
1.06189
1.06064
1.06071
1.06136
1.06474
1.07149
1.07442
1.07449
1.07433
1.07244
1.06635
1.06079
1.06011
1.06023
1.061
1.06263
1.06316
1.06317
1.06318
1.06312
1.06229
1.06037
1.05957
1.05964
1.05989
1.06055
1.06224
1.06408
1.06452
1.06458
1.06461
1.06459
1.06423
1.06316
1.06186
1.06167
1.06181
1.06192
1.06204
1.06224
1.06276
1.0643
1.06767
1.07094
1.0715
1.07101
1.06967
1.06846
1.06653
1.0602
1.04325
1.0177
1.00256
1.00009
1
1
1
1
1
1
1
1
1
1
1
1
1
1
1
1
1
1
1
1
1
1
1
1
1
1
1
1
1
1
1
1
1
1
1
1
1
1
1
1
1.18819
1.19061
1.20065
1.226
1.25393
1.26047
1.25886
1.25311
1.24073
1.21338
1.18349
1.17575
1.17501
1.1764
1.18587
1.2009
1.20526
1.20468
1.20198
1.19433
1.18096
1.17286
1.1716
1.1721
1.17764
1.18824
1.19085
1.18881
1.18195
1.16934
1.15694
1.15306
1.15271
1.15516
1.16638
1.17632
1.17705
1.17514
1.16582
1.14256
1.12555
1.12285
1.12276
1.12475
1.13723
1.15997
1.16767
1.16682
1.1625
1.14922
1.12265
1.10504
1.10279
1.10278
1.10633
1.12295
1.14417
1.14882
1.14803
1.14563
1.14215
1.13452
1.11621
1.0975
1.09338
1.09272
1.0922
1.09224
1.09448
1.10311
1.11562
1.12005
1.12028
1.12037
1.12057
1.12098
1.12149
1.12176
1.12158
1.11846
1.10931
1.09695
1.09069
1.08883
1.08802
1.08793
1.08904
1.09149
1.09304
1.0936
1.0943
1.09649
1.09885
1.09969
1.10055
1.10152
1.10168
1.10013
1.09644
1.09541
1.09546
1.09531
1.09455
1.09342
1.09303
1.09327
1.09332
1.09091
1.08581
1.08141
1.07811
1.07697
1.07725
1.07824
1.08019
1.08335
1.08803
1.0916
1.09263
1.09303
1.09316
1.0927
1.08833
1.08266
1.0802
1.07832
1.0763
1.07378
1.07145
1.07019
1.07009
1.07022
1.07074
1.07206
1.07524
1.07936
1.08113
1.08173
1.082
1.08201
1.08164
1.08034
1.0788
1.07732
1.07615
1.07518
1.07426
1.07381
1.07375
1.07376
1.0742
1.07611
1.0789
1.0802
1.08065
1.08087
1.08051
1.07653
1.06765
1.06307
1.06299
1.06326
1.06496
1.07056
1.07638
1.07733
1.07728
1.07648
1.07242
1.06528
1.0622
1.06219
1.06246
1.06364
1.06534
1.06568
1.0657
1.06571
1.06543
1.06386
1.06174
1.0613
1.06142
1.06179
1.06283
1.06501
1.0665
1.06671
1.06677
1.06682
1.06677
1.06614
1.06478
1.06392
1.06369
1.06365
1.06372
1.06395
1.06462
1.06616
1.06855
1.07056
1.07155
1.07191
1.07167
1.07037
1.06555
1.05262
1.02916
1.00729
1.00049
1.00001
1
1
1
1
1
1
1
1
1
1
1
1
1
1
1
1
1
1
1
1
1
1
1
1
1
1
1
1
1
1
1
1
1
1
1
1
1
1
1
1
1
1.19217
1.2022
1.22727
1.25751
1.2665
1.26554
1.26059
1.24905
1.22275
1.18983
1.17926
1.17802
1.17884
1.18659
1.20183
1.20742
1.20695
1.20458
1.19808
1.1858
1.1773
1.17567
1.17619
1.18125
1.1919
1.19564
1.19419
1.18778
1.17484
1.161
1.15614
1.15537
1.15684
1.16675
1.17886
1.18037
1.17877
1.1713
1.15008
1.12918
1.12504
1.12506
1.12683
1.13665
1.15983
1.17403
1.17433
1.17083
1.16045
1.13723
1.11207
1.10615
1.10625
1.10807
1.11955
1.14301
1.15382
1.15376
1.15145
1.14807
1.14287
1.13043
1.10796
1.09609
1.09468
1.09418
1.094
1.09479
1.09966
1.11207
1.12284
1.12454
1.12442
1.12434
1.12444
1.12479
1.12521
1.12523
1.12273
1.11401
1.10136
1.09547
1.09432
1.09399
1.09412
1.09566
1.09728
1.09751
1.09697
1.09627
1.09648
1.09886
1.10167
1.10224
1.10274
1.10319
1.10294
1.10021
1.09698
1.09675
1.0976
1.09853
1.09876
1.09908
1.09992
1.10026
1.09904
1.09453
1.08832
1.08259
1.08017
1.08021
1.08037
1.08079
1.08183
1.08462
1.0897
1.0939
1.09557
1.09635
1.09652
1.09393
1.08819
1.0861
1.08546
1.08429
1.08197
1.07844
1.07492
1.07275
1.07236
1.07236
1.07244
1.07326
1.0768
1.08152
1.0835
1.08434
1.08491
1.08518
1.0851
1.0842
1.08242
1.08056
1.07919
1.07803
1.07704
1.07631
1.07594
1.07588
1.0764
1.07865
1.08139
1.08251
1.08301
1.08314
1.08184
1.07513
1.06685
1.06528
1.06544
1.06627
1.06979
1.07669
1.07986
1.07997
1.07969
1.07764
1.07143
1.06512
1.06408
1.06418
1.06472
1.06653
1.06821
1.06844
1.06845
1.06844
1.0679
1.06576
1.06348
1.06322
1.06336
1.06376
1.06513
1.06744
1.06834
1.06839
1.0684
1.06837
1.06806
1.06722
1.06634
1.06627
1.0664
1.06658
1.06706
1.06833
1.07056
1.07216
1.07224
1.07131
1.06978
1.0688
1.06652
1.05895
1.04032
1.01515
1.00193
1.00005
1
1
1
1
1
1
1
1
1
1
1
1
1
1
1
1
1
1
1
1
1
1
1
1
1
1
1
1
1
1
1
1
1
1
1
1
1
1
1
1
1
1
1
1.20331
1.2286
1.26071
1.27188
1.27158
1.2676
1.2573
1.23241
1.1972
1.18368
1.18176
1.18215
1.18834
1.20308
1.20989
1.2095
1.20705
1.20096
1.18962
1.18112
1.17923
1.17979
1.18476
1.19567
1.20027
1.1993
1.19359
1.18077
1.16529
1.1595
1.15833
1.15906
1.16729
1.18118
1.184
1.18245
1.17598
1.15708
1.13325
1.12692
1.12676
1.12817
1.1361
1.15791
1.17839
1.18115
1.17905
1.17097
1.15155
1.12246
1.11027
1.10979
1.11054
1.11761
1.13907
1.15706
1.159
1.1575
1.15422
1.14994
1.14147
1.12228
1.10181
1.09673
1.09617
1.09593
1.09622
1.0987
1.10748
1.12215
1.12898
1.12922
1.12884
1.12853
1.1285
1.12856
1.12845
1.12599
1.11757
1.10488
1.09915
1.09858
1.09915
1.10081
1.10341
1.10449
1.10393
1.10171
1.09961
1.09885
1.09927
1.10269
1.10546
1.10548
1.10549
1.10534
1.10292
1.09837
1.09691
1.09748
1.0995
1.10154
1.1031
1.10504
1.10636
1.10599
1.10345
1.09865
1.09282
1.08695
1.08402
1.08347
1.08328
1.08329
1.08372
1.08673
1.09234
1.09602
1.09766
1.09837
1.09754
1.09303
1.09002
1.09021
1.09008
1.0894
1.08706
1.0833
1.07893
1.07578
1.07483
1.07444
1.0743
1.07511
1.07913
1.0839
1.08585
1.08681
1.08755
1.08793
1.08792
1.08738
1.08574
1.08356
1.08212
1.08106
1.08002
1.07909
1.07855
1.07849
1.0792
1.08185
1.08414
1.08484
1.08514
1.08499
1.08175
1.07292
1.06769
1.06763
1.06811
1.07009
1.0758
1.08156
1.08248
1.08244
1.08169
1.07781
1.07027
1.06635
1.06626
1.06646
1.06756
1.06998
1.07116
1.0712
1.0712
1.07098
1.06943
1.06625
1.06479
1.06482
1.06515
1.06602
1.06815
1.07031
1.07074
1.07082
1.07088
1.07085
1.07012
1.06868
1.06801
1.06798
1.06813
1.06867
1.06997
1.07172
1.07285
1.07315
1.07297
1.07208
1.06963
1.06282
1.0478
1.02417
1.0053
1.00031
1
1
1
1
1
1
1
1
1
1
1
1
1
1
1
1
1
1
1
1
1
1
1
1
1
1
1
1
1
1
1
1
1
1
1
1
1
1
1
1
1
1
1
1
1
1.23001
1.26373
1.27654
1.27672
1.2737
1.26489
1.24176
1.20537
1.18903
1.18637
1.18641
1.19124
1.20513
1.21274
1.21243
1.20975
1.2036
1.19264
1.18444
1.18254
1.18302
1.18783
1.19911
1.20467
1.20406
1.19893
1.18638
1.16956
1.16282
1.1613
1.16164
1.16813
1.1832
1.18825
1.1868
1.18076
1.16393
1.13817
1.12888
1.12828
1.1292
1.13531
1.15487
1.18003
1.18689
1.18624
1.18152
1.1662
1.13585
1.11613
1.11367
1.1139
1.11771
1.13393
1.15646
1.16304
1.16262
1.16044
1.15672
1.15042