/*--------------------------------*- C++ -*----------------------------------*\
  =========                 |
  \\      /  F ield         | OpenFOAM: The Open Source CFD Toolbox
   \\    /   O peration     | Website:  https://openfoam.org
    \\  /    A nd           | Version:  7
     \\/     M anipulation  |
\*---------------------------------------------------------------------------*/
FoamFile
{
    version     2.0;
    format      ascii;
    class       volVectorField;
    location    "3.2";
    object      U;
}
// * * * * * * * * * * * * * * * * * * * * * * * * * * * * * * * * * * * * * //

dimensions      [0 1 -1 0 0 0 0];

internalField   nonuniform List<vector> 
4040
(
(3 -1.02019e-16 0)
(3 4.49374e-17 0)
(3 -1.88583e-17 0)
(3 -2.63867e-16 0)
(3 -1.03021e-16 0)
(3 3.02449e-16 0)
(3 3.94121e-16 0)
(3 3.90634e-16 0)
(3 5.26679e-17 0)
(3 -7.21147e-17 0)
(3 -3.3624e-16 0)
(3 -2.40851e-17 0)
(3 2.97215e-16 0)
(2.97936 -0.00537609 0)
(1.06093 0.0204172 0)
(0.706695 0.018444 0)
(0.652301 0.0232012 0)
(0.589933 0.0263403 0)
(0.524178 0.029445 0)
(0.452688 0.0332879 0)
(0.373834 0.0377677 0)
(0.284879 0.0443671 0)
(0.182208 0.0499392 0)
(0.0718157 0.0610524 0)
(3 -1.87895e-16 0)
(3 -2.79425e-16 0)
(3 -5.66183e-16 0)
(3 -9.44924e-16 0)
(3 -8.3031e-16 0)
(3 -2.34623e-16 0)
(3 1.11024e-16 0)
(3 1.20472e-16 0)
(3 -5.14915e-16 0)
(3 -6.91909e-16 0)
(3 -8.29521e-16 0)
(3 -1.58029e-17 0)
(3 6.76819e-16 0)
(2.99892 0.00213583 0)
(1.08759 0.0805392 0)
(0.706316 0.0685525 0)
(0.645658 0.0757694 0)
(0.580639 0.0841293 0)
(0.51263 0.0925049 0)
(0.439971 0.104532 0)
(0.360937 0.117686 0)
(0.275608 0.138562 0)
(0.176555 0.160343 0)
(0.0679145 0.19201 0)
(3 1.14765e-16 0)
(3 -2.63057e-16 0)
(3 -6.20733e-16 0)
(3 -5.55502e-16 0)
(3 -5.46941e-16 0)
(3 -2.76036e-16 0)
(3 -1.73207e-16 0)
(3 1.68155e-17 0)
(3 -1.6752e-16 0)
(3 -5.6971e-16 0)
(3 -3.87655e-16 0)
(3 6.50273e-18 0)
(3 5.28259e-16 0)
(3.00007 1.05743e-05 0)
(1.15943 0.138396 0)
(0.718547 0.118441 0)
(0.654333 0.12977 0)
(0.589285 0.143243 0)
(0.521455 0.156191 0)
(0.452156 0.174928 0)
(0.37919 0.193231 0)
(0.302845 0.224148 0)
(0.206733 0.262532 0)
(0.0958764 0.320487 0)
(3 1.25847e-16 0)
(3 3.72819e-16 0)
(3 3.38523e-16 0)
(3 3.95017e-16 0)
(3 4.86932e-16 0)
(3 2.80484e-16 0)
(3 3.60761e-16 0)
(3 4.58095e-16 0)
(3 7.38148e-16 0)
(3 6.21652e-16 0)
(3 6.91953e-16 0)
(3 5.39399e-16 0)
(3 2.8275e-16 0)
(3 -2.26416e-08 0)
(1.27981 0.195251 0)
(0.735137 0.170825 0)
(0.66467 0.184135 0)
(0.602106 0.202104 0)
(0.536344 0.217752 0)
(0.471695 0.241637 0)
(0.398261 0.265101 0)
(0.318826 0.317019 0)
(0.194882 0.383768 0)
(0.109758 0.489176 0)
(3 -1.63188e-16 0)
(3 -3.43715e-17 0)
(3 3.53303e-17 0)
(3 -1.05012e-16 0)
(3 -3.27375e-16 0)
(3 -5.65795e-16 0)
(3 1.96528e-16 0)
(3 8.56655e-17 0)
(3 3.44876e-16 0)
(3 1.08521e-15 0)
(3 1.52245e-15 0)
(3 8.63036e-16 0)
(3 2.21608e-16 0)
(3 -1.02731e-08 0)
(1.46319 0.249377 0)
(0.758638 0.227993 0)
(0.675929 0.237934 0)
(0.61846 0.258431 0)
(0.557545 0.274748 0)
(0.501257 0.303603 0)
(0.432341 0.339284 0)
(0.364089 0.417034 0)
(0.289086 0.505739 0)
(0.278405 0.567202 0)
(3 7.66679e-18 0)
(3 -8.05768e-17 0)
(3 -2.30524e-16 0)
(3 -2.77725e-16 0)
(3 -5.60841e-16 0)
(3 -7.52216e-17 0)
(3 -8.39558e-17 0)
(3 -1.82161e-16 0)
(3 -1.04414e-16 0)
(3 1.31886e-16 0)
(3 4.59395e-16 0)
(3 3.2193e-16 0)
(3 3.02476e-16 0)
(3 -2.16389e-09 0)
(1.72729 0.301243 0)
(0.792093 0.295193 0)
(0.684423 0.291261 0)
(0.62847 0.312213 0)
(0.5697 0.328621 0)
(0.521998 0.361752 0)
(0.466422 0.406569 0)
(0.426632 0.486244 0)
(0.396389 0.546979 0)
(0.368649 0.546607 0)
(3 -1.53014e-16 0)
(3 2.27473e-17 0)
(3 4.54104e-16 0)
(3 2.77408e-16 0)
(3 -5.3742e-18 0)
(3 1.3496e-16 0)
(3 -1.86686e-16 0)
(3 3.2188e-16 0)
(3 3.44847e-16 0)
(3 -2.97823e-16 0)
(3 -5.61422e-16 0)
(3 -2.29141e-16 0)
(3 -3.62408e-16 0)
(3 -2.39229e-10 0)
(2.10441 0.34581 0)
(0.846595 0.37928 0)
(0.705063 0.354532 0)
(0.654669 0.373392 0)
(0.601172 0.384219 0)
(0.559598 0.414103 0)
(0.513926 0.456242 0)
(0.492286 0.524145 0)
(0.479725 0.585546 0)
(0.439911 0.604315 0)
(3 -3.64588e-17 0)
(3 2.55737e-16 0)
(3 6.64678e-16 0)
(3 6.47426e-16 0)
(3 -1.24519e-16 0)
(3 -8.87907e-16 0)
(3 -8.55176e-16 0)
(3 -3.26593e-16 0)
(3 4.83018e-16 0)
(3 6.57589e-16 0)
(3 5.07889e-16 0)
(3 -1.18052e-16 0)
(3 -5.04725e-16 0)
(3 -7.67275e-12 0)
(2.65778 0.295722 0)
(0.974341 0.465302 0)
(0.789932 0.391889 0)
(0.742441 0.411327 0)
(0.68244 0.427911 0)
(0.632175 0.459356 0)
(0.586365 0.497011 0)
(0.561591 0.555647 0)
(0.553818 0.619431 0)
(0.514791 0.662301 0)
(3 2.64667e-16 0)
(3 1.49595e-16 0)
(3 -1.45129e-16 0)
(3 -2.23469e-16 0)
(3 -1.15379e-16 0)
(3 -3.36227e-17 0)
(3 1.30704e-16 0)
(3 2.75172e-16 0)
(3 5.96335e-16 0)
(3 8.78731e-16 0)
(3 4.68553e-16 0)
(3 -6.17033e-16 0)
(3 -6.4689e-16 0)
(3 -7.05553e-14 0)
(3.07743 0.0442069 0)
(1.20194 0.46546 0)
(0.86791 0.428625 0)
(0.830117 0.469931 0)
(0.776099 0.484935 0)
(0.725187 0.512403 0)
(0.676159 0.544423 0)
(0.640413 0.591054 0)
(0.626823 0.659893 0)
(0.607251 0.752764 0)
(3 -3.29193e-17 0)
(3 -2.18733e-16 0)
(3 -6.23201e-16 0)
(3 -8.8648e-16 0)
(3 -3.47568e-16 0)
(3 9.09463e-17 0)
(3 2.90474e-16 0)
(3 6.51254e-16 0)
(3 -9.76925e-17 0)
(3 -9.54001e-16 0)
(3 -1.15957e-15 0)
(3 -1.17458e-15 0)
(3 -4.54879e-16 0)
(3 -7.92162e-16 0)
(3.00902 0.00010587 0)
(1.41566 0.459206 0)
(0.869247 0.493848 0)
(0.828895 0.525811 0)
(0.790884 0.545301 0)
(0.76618 0.575193 0)
(0.73986 0.607167 0)
(0.712918 0.644258 0)
(0.708127 0.711207 0)
(0.721378 0.815281 0)
(3 -2.57106e-16 0)
(3 -5.92725e-17 0)
(3 -3.2424e-16 0)
(3 -4.42076e-16 0)
(3 2.58721e-17 0)
(3 8.43347e-17 0)
(3 1.34791e-16 0)
(3 -4.64033e-16 0)
(3 -1.28614e-15 0)
(3 -1.6828e-15 0)
(3 -1.4353e-15 0)
(3 -5.85897e-16 0)
(3 -2.45013e-16 0)
(3 -2.80508e-16 0)
(3.00007 -2.86452e-06 0)
(1.90887 0.498244 0)
(0.913852 0.561327 0)
(0.841369 0.55479 0)
(0.821578 0.576458 0)
(0.808718 0.604857 0)
(0.801646 0.641596 0)
(0.791264 0.677992 0)
(0.798762 0.738439 0)
(0.835653 0.82948 0)
(3 -1.33711e-17 0)
(3 -1.58745e-16 0)
(3 -5.17882e-17 0)
(3 3.95851e-16 0)
(3 2.92105e-16 0)
(3 2.27649e-16 0)
(3 -1.76537e-16 0)
(3 -6.96713e-16 0)
(3 -8.7262e-16 0)
(3 -6.28208e-16 0)
(3 -5.96722e-16 0)
(3 -7.57336e-16 0)
(3 -5.27834e-16 0)
(3 -3.96846e-16 0)
(3.00001 -3.24444e-06 0)
(2.70714 0.338511 0)
(1.08054 0.629017 0)
(0.905386 0.578292 0)
(0.876008 0.596029 0)
(0.858824 0.626065 0)
(0.858363 0.66583 0)
(0.864273 0.708621 0)
(0.88353 0.764033 0)
(0.941189 0.834533 0)
(3 -2.14313e-18 0)
(3 -1.14441e-16 0)
(3 -3.04463e-16 0)
(3 -3.43682e-16 0)
(3 -4.80367e-16 0)
(3 -5.36597e-16 0)
(3 -1.64531e-15 0)
(3 -1.75446e-15 0)
(3 -1.62351e-15 0)
(3 -1.32861e-15 0)
(3 -7.21768e-16 0)
(3 -4.80995e-16 0)
(3 -3.34235e-16 0)
(3 -2.49258e-16 0)
(3 -6.64442e-07 0)
(3.07845 0.03136 0)
(1.42152 0.632375 0)
(0.99491 0.644847 0)
(0.942368 0.644307 0)
(0.913505 0.657782 0)
(0.91063 0.688493 0)
(0.927461 0.727624 0)
(0.958812 0.774655 0)
(1.03058 0.833739 0)
(3 5.85497e-17 0)
(3 1.78211e-16 0)
(3 5.00766e-18 0)
(3 -5.43323e-16 0)
(3 -7.5401e-16 0)
(3 -3.38746e-16 0)
(3 -5.22269e-16 0)
(3 -5.53497e-16 0)
(3 -2.41021e-16 0)
(3 -2.36084e-16 0)
(3 -3.41859e-17 0)
(3 3.95314e-16 0)
(3 -5.29965e-16 0)
(3 -1.24722e-15 0)
(3 -6.45164e-08 0)
(3.00506 0.000101794 0)
(1.94305 0.60123 0)
(1.05267 0.717832 0)
(1.00348 0.698134 0)
(0.982831 0.696703 0)
(0.977645 0.710885 0)
(0.992285 0.741117 0)
(1.03059 0.780108 0)
(1.10274 0.822481 0)
(3 2.41408e-16 0)
(3 -5.7577e-17 0)
(3 -1.52513e-16 0)
(3 -6.83714e-16 0)
(3 -6.93625e-16 0)
(3 -7.62073e-17 0)
(3 -1.448e-17 0)
(3 -3.24073e-16 0)
(3 9.17968e-17 0)
(3 1.28062e-16 0)
(3 -8.97993e-17 0)
(3 -6.47926e-16 0)
(3 -1.06729e-15 0)
(3 -2.02076e-15 0)
(3 -1.90171e-09 0)
(3.00002 -4.21338e-07 0)
(2.88069 0.252543 0)
(1.25607 0.698668 0)
(1.07356 0.71871 0)
(1.0757 0.718 0)
(1.0676 0.735925 0)
(1.07116 0.759455 0)
(1.1013 0.790587 0)
(1.16652 0.823871 0)
(3 -2.66691e-16 0)
(3 -1.73005e-16 0)
(3 -3.31839e-16 0)
(3 -2.99986e-16 0)
(3 -4.29727e-16 0)
(3 -9.52588e-16 0)
(3 -8.40175e-16 0)
(3 -5.2695e-16 0)
(3 -6.33918e-16 0)
(3 -1.32427e-15 0)
(3 -1.61236e-15 0)
(3 -1.4078e-15 0)
(3 -7.24195e-16 0)
(3 -5.20971e-16 0)
(3 -4.17283e-12 0)
(3 -9.97275e-07 0)
(3.04756 0.0097514 0)
(1.54563 0.661349 0)
(1.09359 0.75262 0)
(1.10636 0.764193 0)
(1.10859 0.781579 0)
(1.12733 0.792429 0)
(1.16127 0.804585 0)
(1.21983 0.819558 0)
(3 1.27061e-16 0)
(3 4.13845e-16 0)
(3 7.32643e-16 0)
(3 7.02717e-16 0)
(3 6.7979e-16 0)
(3 1.42712e-16 0)
(3 8.53341e-18 0)
(3 2.39763e-16 0)
(3 -1.96596e-16 0)
(3 -5.19129e-16 0)
(3 -7.30075e-16 0)
(3 -4.0966e-16 0)
(3 6.84071e-16 0)
(3 8.40339e-16 0)
(3 -4.06181e-15 0)
(3 -2.07234e-07 0)
(3.00109 5.85828e-05 0)
(2.32625 0.534247 0)
(1.19077 0.789028 0)
(1.13046 0.793609 0)
(1.14165 0.796618 0)
(1.16726 0.805573 0)
(1.20675 0.817201 0)
(1.26282 0.829084 0)
(3 2.92785e-16 0)
(3 3.68259e-16 0)
(3 7.29891e-16 0)
(3 1.30873e-15 0)
(3 1.50689e-15 0)
(3 8.13657e-16 0)
(3 5.85016e-16 0)
(3 3.75987e-16 0)
(3 2.89638e-16 0)
(3 6.08665e-16 0)
(3 1.01733e-15 0)
(3 7.14332e-16 0)
(3 8.73968e-16 0)
(3 2.70443e-16 0)
(3 2.75631e-16 0)
(3 -1.69161e-08 0)
(3 -8.38974e-09 0)
(3.05204 0.0868091 0)
(1.54445 0.779375 0)
(1.18228 0.787503 0)
(1.19252 0.79327 0)
(1.21421 0.805951 0)
(1.2518 0.818039 0)
(1.30394 0.827768 0)
(3 -9.32573e-17 0)
(3 -2.08167e-16 0)
(3 1.62039e-16 0)
(3 5.57954e-16 0)
(3 4.46274e-16 0)
(3 3.23616e-16 0)
(3 1.771e-16 0)
(3 -3.4688e-16 0)
(3 -6.7071e-17 0)
(3 2.86856e-16 0)
(3 5.60511e-16 0)
(3 3.69818e-16 0)
(3 -3.30338e-16 0)
(3 -5.49233e-16 0)
(3 1.82472e-16 0)
(3 -7.64107e-11 0)
(3 -7.42243e-08 0)
(3.00999 0.00165635 0)
(2.23211 0.65009 0)
(1.2508 0.846882 0)
(1.21745 0.834359 0)
(1.25146 0.834564 0)
(1.28584 0.839923 0)
(1.33448 0.844989 0)
(3 4.25804e-17 0)
(3 -9.85871e-17 0)
(3 -1.21899e-16 0)
(3 -4.64016e-16 0)
(3 -8.99802e-16 0)
(3 -5.9446e-16 0)
(3 -6.20439e-16 0)
(3 -9.37539e-16 0)
(3 -7.53788e-16 0)
(3 -5.36578e-16 0)
(3 -2.69327e-16 0)
(3 -2.45906e-16 0)
(3 -5.78147e-16 0)
(3 3.40515e-17 0)
(3 6.40987e-16 0)
(3 -1.46565e-13 0)
(3 -1.49253e-08 0)
(3.00004 1.37043e-05 0)
(3.02689 0.137725 0)
(1.5982 0.830882 0)
(1.26355 0.830664 0)
(1.30166 0.834664 0)
(1.3287 0.841194 0)
(1.37198 0.844127 0)
(3 -1.83188e-16 0)
(3 -2.65056e-17 0)
(3 -6.88777e-17 0)
(3 -2.76104e-16 0)
(3 -9.04187e-16 0)
(3 -8.74127e-16 0)
(3 -8.1716e-16 0)
(3 -1.00071e-15 0)
(3 -9.04846e-16 0)
(3 -7.95916e-16 0)
(3 -5.59296e-16 0)
(3 -3.87845e-16 0)
(3 5.35731e-16 0)
(3 1.45747e-15 0)
(3 1.10695e-15 0)
(3 -3.27632e-16 0)
(3 -5.28827e-10 0)
(3 -2.74835e-08 0)
(3.01284 0.00399693 0)
(2.29567 0.661274 0)
(1.34178 0.884172 0)
(1.32174 0.877772 0)
(1.35556 0.871617 0)
(1.39318 0.86913 0)
(3 -1.31952e-16 0)
(3 1.92018e-17 0)
(3 -1.0173e-16 0)
(3 -2.82447e-16 0)
(3 -2.83412e-16 0)
(3 -3.52952e-16 0)
(3 -3.79856e-16 0)
(3 -8.14371e-16 0)
(3 -7.57635e-16 0)
(3 -8.55582e-17 0)
(3 -2.17498e-16 0)
(3 3.07718e-16 0)
(3 1.15501e-15 0)
(3 9.11207e-16 0)
(3 -1.59225e-16 0)
(3 -4.66218e-16 0)
(3 -2.48289e-12 0)
(3 -8.67324e-09 0)
(3.00007 5.59046e-05 0)
(3.01811 0.127602 0)
(1.73038 0.847704 0)
(1.35641 0.880519 0)
(1.39731 0.875061 0)
(1.42676 0.869726 0)
(3 9.81308e-18 0)
(3 -3.87245e-17 0)
(3 -2.08762e-16 0)
(3 -6.48758e-16 0)
(3 -4.25033e-16 0)
(3 -3.00707e-16 0)
(3 -6.76585e-16 0)
(3 -8.07814e-16 0)
(3 -5.74287e-16 0)
(3 -2.34841e-16 0)
(3 -2.82479e-17 0)
(3 -5.3294e-17 0)
(3 -1.37028e-16 0)
(3 -3.59973e-16 0)
(3 -3.45296e-16 0)
(3 2.58455e-17 0)
(3 -2.20257e-15 0)
(3 -1.05583e-09 0)
(3 3.87034e-08 0)
(3.00758 0.00532821 0)
(2.56803 0.565868 0)
(1.48456 0.933217 0)
(1.42003 0.904962 0)
(1.45349 0.893191 0)
(3 8.19931e-17 0)
(3 -9.44343e-17 0)
(3 -1.82506e-16 0)
(3 6.4105e-17 0)
(3 5.48911e-16 0)
(3 6.17624e-16 0)
(3 -8.82569e-17 0)
(3 -7.68535e-16 0)
(3 -1.00474e-15 0)
(3 -7.53876e-16 0)
(3 5.45354e-17 0)
(3 -2.19435e-16 0)
(3 -3.04246e-16 0)
(3 -8.83449e-17 0)
(3 1.33211e-16 0)
(3 2.99543e-16 0)
(3 -5.00889e-16 0)
(3 -5.91202e-11 0)
(3 -5.67885e-11 0)
(3.00003 6.73483e-05 0)
(3.03568 0.064403 0)
(1.98054 0.8086 0)
(1.46976 0.916107 0)
(1.49613 0.904801 0)
(3 2.70733e-16 0)
(3 3.46518e-16 0)
(3 -2.60975e-17 0)
(3 3.60805e-16 0)
(3 5.94533e-16 0)
(3 7.00391e-16 0)
(3 7.67172e-16 0)
(3 2.7749e-16 0)
(3 -4.39502e-16 0)
(3 -5.03688e-16 0)
(3 -6.11775e-16 0)
(3 -6.95383e-17 0)
(3 1.05768e-16 0)
(3 -2.03835e-16 0)
(3 -5.75803e-16 0)
(3 -7.50416e-16 0)
(3 -1.02615e-15 0)
(3 -7.30307e-13 0)
(3 -1.8961e-11 0)
(3 6.00741e-08 0)
(3.00214 0.00289224 0)
(2.80564 0.345117 0)
(1.71926 0.912797 0)
(1.51081 0.929877 0)
(3 -3.39069e-16 0)
(3 -9.20728e-17 0)
(3 9.62143e-17 0)
(3 -1.92747e-16 0)
(3 -4.51371e-16 0)
(3 -1.97696e-16 0)
(3 5.03747e-16 0)
(3 1.00484e-15 0)
(3 9.64591e-16 0)
(3 2.64155e-16 0)
(3 -7.05652e-16 0)
(3 -7.22155e-16 0)
(3 -5.6788e-16 0)
(3 -6.7057e-16 0)
(3 -1.17205e-15 0)
(3 -1.29905e-15 0)
(3 -1.06424e-15 0)
(3 -2.48125e-15 0)
(3 -2.83105e-12 0)
(3 1.09796e-11 0)
(3 1.74595e-05 0)
(3.01062 0.0247275 0)
(2.37674 0.671454 0)
(1.59344 0.950294 0)
(3 -1.50448e-16 0)
(3 -3.46656e-16 0)
(3 9.52908e-17 0)
(3 1.01604e-16 0)
(3 1.0367e-16 0)
(3 2.08485e-17 0)
(3 -2.50417e-16 0)
(3 1.34508e-16 0)
(3 3.54289e-16 0)
(3 1.24727e-17 0)
(3 -3.79552e-16 0)
(3 -8.01661e-16 0)
(3 -6.5679e-16 0)
(3 -3.76905e-16 0)
(3 -3.37015e-16 0)
(3 -4.06272e-16 0)
(3 -3.48531e-16 0)
(3 -6.14764e-16 0)
(3 -1.75792e-13 0)
(3 -2.1742e-13 0)
(3 1.03156e-08 0)
(3.0001 0.000778908 0)
(2.97892 0.131456 0)
(2.01777 0.821608 0)
(3 6.43514e-17 0)
(3 -5.18569e-18 0)
(3 -1.09073e-16 0)
(3 -2.68667e-16 0)
(3 -1.43281e-16 0)
(3 -6.19989e-16 0)
(3 -1.0322e-15 0)
(3 -5.83894e-16 0)
(3 -3.54206e-16 0)
(3 -9.83161e-16 0)
(3 -7.65062e-16 0)
(3 -5.5755e-16 0)
(3 -2.39991e-16 0)
(3 -2.02979e-16 0)
(3 -2.08133e-16 0)
(3 -1.92195e-16 0)
(3 5.0365e-17 0)
(3 2.84618e-16 0)
(3 -1.40201e-15 0)
(3 -7.2776e-14 0)
(3 3.07186e-12 0)
(3 1.9928e-06 0)
(3.00164 0.00746133 0)
(2.75943 0.362185 0)
(3 1.0094e-16 0)
(3 1.89093e-16 0)
(3 -4.01154e-16 0)
(3 -5.47955e-16 0)
(3 -7.97462e-16 0)
(3 -6.65753e-16 0)
(3 -1.10454e-16 0)
(3 -2.07801e-16 0)
(3 -3.10882e-16 0)
(3 2.17438e-16 0)
(3 2.21648e-16 0)
(3 6.14758e-16 0)
(3 5.90908e-16 0)
(3 -1.02441e-16 0)
(3 -1.76591e-16 0)
(3 1.3992e-16 0)
(3 3.97488e-16 0)
(3 8.97022e-16 0)
(3 1.52143e-15 0)
(3 -9.39328e-15 0)
(3 -9.42512e-15 0)
(3 1.16758e-09 0)
(2.99999 7.84953e-05 0)
(2.9997 0.0308281 0)
(3 2.95582e-16 0)
(3 -3.46206e-17 0)
(3 -1.99204e-16 0)
(3 4.50872e-16 0)
(3 6.70448e-16 0)
(3 7.20471e-16 0)
(3 1.01882e-15 0)
(3 9.30126e-16 0)
(3 8.14044e-16 0)
(3 8.00515e-16 0)
(3 1.01885e-15 0)
(3 6.8266e-16 0)
(3 -1.37242e-16 0)
(3 -9.53043e-16 0)
(3 1.29784e-16 0)
(3 7.65037e-16 0)
(3 7.33526e-16 0)
(3 1.24979e-15 0)
(3 1.78439e-15 0)
(3 1.21748e-15 0)
(3 -2.32511e-15 0)
(3 2.65376e-13 0)
(3 8.7883e-08 0)
(2.99993 0.000961666 0)
(3 -1.26814e-16 0)
(3 3.18365e-17 0)
(3 2.25523e-16 0)
(3 8.47756e-16 0)
(3 8.48126e-16 0)
(3 7.56971e-16 0)
(3 8.22393e-16 0)
(3 9.78768e-16 0)
(3 9.67601e-16 0)
(3 7.50464e-16 0)
(3 6.12024e-16 0)
(3 6.7732e-16 0)
(3 3.26039e-16 0)
(3 1.37688e-16 0)
(3 3.6407e-17 0)
(3 -5.94754e-16 0)
(3 4.76107e-16 0)
(3 1.25741e-15 0)
(3 1.62443e-15 0)
(3 1.55835e-15 0)
(3 1.11425e-15 0)
(3 2.96601e-18 0)
(3 4.89197e-11 0)
(3 2.6374e-06 0)
(3 -1.34731e-16 0)
(3 -1.75476e-16 0)
(3 5.22231e-16 0)
(3 5.65284e-16 0)
(3 4.90284e-16 0)
(3 5.24872e-16 0)
(3 5.65751e-16 0)
(3 7.85025e-16 0)
(3 1.03957e-15 0)
(3 1.6558e-15 0)
(3 1.54902e-15 0)
(3 1.61185e-15 0)
(3 1.37849e-15 0)
(3 1.36171e-15 0)
(3 2.97167e-16 0)
(3 -4.84903e-16 0)
(3 -8.24656e-16 0)
(3 -4.24512e-16 0)
(3 3.88102e-16 0)
(3 2.2374e-16 0)
(3 -2.85064e-16 0)
(3 -4.66726e-16 0)
(3 4.53027e-15 0)
(3 2.38019e-09 0)
(3 1.55703e-16 0)
(3 2.28787e-16 0)
(3 1.75265e-17 0)
(3 -7.96861e-17 0)
(3 -3.26677e-17 0)
(3 -1.01248e-16 0)
(3 -3.38068e-17 0)
(3 2.52189e-16 0)
(3 8.94223e-16 0)
(3 7.98201e-16 0)
(3 8.70144e-16 0)
(3 5.8349e-16 0)
(3 5.53474e-16 0)
(3 1.01486e-15 0)
(3 2.21089e-15 0)
(3 1.36223e-15 0)
(3 7.457e-16 0)
(3 3.36614e-16 0)
(3 6.25725e-16 0)
(3 9.2763e-16 0)
(3 2.53963e-16 0)
(3 3.49127e-16 0)
(3 3.16962e-16 0)
(3 5.00763e-13 0)
(3 5.95954e-17 0)
(3 3.77666e-16 0)
(3 -3.76085e-16 0)
(3 -5.49089e-16 0)
(3 -2.80799e-16 0)
(3 -7.14379e-16 0)
(3 -1.09286e-15 0)
(3 -1.42444e-15 0)
(3 -1.04465e-15 0)
(3 -1.11122e-15 0)
(3 -6.14106e-16 0)
(3 -3.22455e-16 0)
(3 3.54534e-16 0)
(3 1.21529e-15 0)
(3 1.82871e-15 0)
(3 2.10746e-15 0)
(3 2.30167e-15 0)
(3 1.80076e-15 0)
(3 1.31591e-15 0)
(3 1.89132e-15 0)
(3 2.0128e-15 0)
(3 1.53694e-15 0)
(3 1.64238e-15 0)
(3 2.00876e-15 0)
(3 -2.19211e-16 0)
(3 -3.10119e-16 0)
(3 1.38394e-16 0)
(3 -5.9904e-17 0)
(3 -7.34253e-17 0)
(3 -6.34204e-16 0)
(3 -8.52049e-16 0)
(3 -4.62865e-16 0)
(3 -3.75808e-16 0)
(3 -3.15442e-16 0)
(3 -5.65597e-16 0)
(3 -6.92901e-17 0)
(3 6.03435e-16 0)
(3 6.60821e-16 0)
(3 9.20257e-16 0)
(3 1.32828e-15 0)
(3 1.52195e-15 0)
(3 1.35117e-15 0)
(3 5.06221e-16 0)
(3 1.09718e-16 0)
(3 9.80483e-16 0)
(3 1.56683e-15 0)
(3 1.80736e-15 0)
(3 1.45613e-15 0)
(3 2.02511e-17 0)
(3 -5.08953e-17 0)
(3 2.52301e-16 0)
(3 2.04941e-16 0)
(3 2.93011e-17 0)
(3 3.14125e-16 0)
(3 7.63105e-16 0)
(3 1.58805e-15 0)
(3 2.31309e-15 0)
(3 1.75473e-15 0)
(3 4.32837e-16 0)
(3 -3.45632e-16 0)
(3 -1.68767e-16 0)
(3 1.70449e-16 0)
(3 1.262e-16 0)
(3 2.74869e-16 0)
(3 1.01705e-15 0)
(3 8.2722e-16 0)
(3 4.8133e-16 0)
(3 3.39872e-17 0)
(3 4.1055e-16 0)
(3 1.36553e-15 0)
(3 1.263e-15 0)
(3 1.63586e-15 0)
(3 1.46576e-16 0)
(3 3.53874e-16 0)
(3 1.80425e-16 0)
(3 2.78892e-16 0)
(3 -1.97805e-17 0)
(3 -3.13282e-17 0)
(3 5.41939e-16 0)
(3 8.56692e-16 0)
(3 5.71832e-16 0)
(3 2.50604e-16 0)
(3 3.11468e-16 0)
(3 -4.52439e-17 0)
(3 -2.95398e-16 0)
(3 -1.01426e-17 0)
(3 2.48458e-16 0)
(3 7.17515e-16 0)
(3 1.01024e-15 0)
(3 5.56606e-16 0)
(3 3.97954e-16 0)
(3 5.24117e-16 0)
(3 2.58853e-16 0)
(3 5.12732e-16 0)
(3 1.10682e-15 0)
(3 1.87884e-15 0)
(3 -3.07985e-16 0)
(3 1.13869e-17 0)
(3 2.15194e-16 0)
(3 1.82886e-16 0)
(3 3.92778e-18 0)
(3 -3.00107e-17 0)
(3 1.36031e-16 0)
(3 -2.6254e-17 0)
(3 -7.90014e-16 0)
(3 -7.16287e-16 0)
(3 -2.75566e-16 0)
(3 1.46974e-16 0)
(3 1.49422e-16 0)
(3 3.86203e-16 0)
(3 1.33305e-15 0)
(3 2.01324e-15 0)
(3 1.78661e-15 0)
(3 1.20595e-15 0)
(3 1.29115e-15 0)
(3 1.22263e-15 0)
(3 9.58435e-16 0)
(3 9.95895e-17 0)
(3 8.67482e-16 0)
(3 1.67739e-15 0)
(3 -6.44763e-17 0)
(3 4.08119e-17 0)
(3 1.07516e-17 0)
(3 -1.72944e-17 0)
(3 -1.43062e-16 0)
(3 8.8263e-16 0)
(3 7.79043e-16 0)
(3 5.20854e-16 0)
(3 3.08043e-16 0)
(3 3.39017e-16 0)
(3 7.33486e-16 0)
(3 6.75556e-16 0)
(3 1.92054e-16 0)
(3 2.07006e-16 0)
(3 1.37979e-15 0)
(3 2.06197e-15 0)
(3 1.56754e-15 0)
(3 1.47735e-15 0)
(3 1.56245e-15 0)
(3 1.29303e-15 0)
(3 9.92275e-16 0)
(3 1.36852e-15 0)
(3 2.07121e-15 0)
(3 1.96201e-15 0)
(3 1.62886e-16 0)
(3 2.05624e-16 0)
(3 1.70203e-16 0)
(3 1.48447e-16 0)
(3 -2.5947e-18 0)
(3 3.54981e-16 0)
(3 4.47962e-16 0)
(3 2.71115e-16 0)
(3 5.13959e-16 0)
(3 5.78871e-16 0)
(3 8.73824e-16 0)
(3 5.65466e-16 0)
(3 -9.63808e-17 0)
(3 -4.84547e-17 0)
(3 5.80268e-16 0)
(3 8.54037e-16 0)
(3 5.31696e-16 0)
(3 5.01429e-16 0)
(3 3.2565e-16 0)
(3 3.88246e-16 0)
(3 3.04725e-16 0)
(3 8.60354e-16 0)
(3 1.2393e-15 0)
(3 1.08848e-15 0)
(0.230253 0.302109 0)
(0.0382262 0.0676375 0)
(0.325369 0.370298 0)
(0.146615 0.165467 0)
(0.37152 0.518667 0)
(0.196779 0.40706 0)
(0.395002 0.662017 0)
(0.210246 0.742102 0)
(0.577167 0.871121 0)
(0.668141 1.0953 0)
(0.789015 0.930204 0)
(1.04557 1.05897 0)
(0.957683 0.930286 0)
(1.23461 1.01215 0)
(1.07563 0.909906 0)
(1.3108 0.95463 0)
(1.16164 0.889592 0)
(1.3583 0.918783 0)
(1.21799 0.860129 0)
(1.37356 0.877953 0)
(1.26454 0.849336 0)
(1.39186 0.859604 0)
(1.30301 0.833406 0)
(1.41046 0.838168 0)
(1.33793 0.837744 0)
(1.42792 0.838732 0)
(1.37066 0.833535 0)
(1.44778 0.832263 0)
(1.394 0.846842 0)
(1.4636 0.84134 0)
(1.42383 0.843696 0)
(1.48641 0.837709 0)
(1.44014 0.863241 0)
(1.49399 0.855554 0)
(1.46713 0.86083 0)
(1.51238 0.852262 0)
(1.48588 0.883803 0)
(1.52689 0.871155 0)
(1.52146 0.893506 0)
(1.55683 0.878869 0)
(1.54966 0.918643 0)
(1.58244 0.90359 0)
(1.5682 0.943321 0)
(1.60097 0.924627 0)
(1.6206 0.945297 0)
(1.62531 0.93898 0)
(1.85491 0.901224 0)
(1.65093 0.95777 0)
(2.46965 0.586569 0)
(1.78706 0.950623 0)
(2.96485 0.0950632 0)
(2.26042 0.741104 0)
(2.99951 0.00494428 0)
(2.87747 0.225024 0)
(2.99999 3.48436e-05 0)
(2.99716 0.0160345 0)
(3 4.41715e-08 0)
(2.99993 0.000263637 0)
(3 2.09302e-11 0)
(3 4.95691e-07 0)
(3 3.1588e-15 0)
(3 4.16903e-10 0)
(3 1.81211e-15 0)
(3 4.1247e-14 0)
(3 2.33077e-15 0)
(3 1.50956e-15 0)
(3 1.21145e-15 0)
(3 4.1164e-16 0)
(3 1.10291e-15 0)
(3 -8.89678e-17 0)
(3 5.1225e-16 0)
(3 4.29966e-16 0)
(1.56064 1.18087 0)
(2.13334 1.09227 0)
(2.52 1.1521 0)
(2.55115 0.70921 0)
(2.57595 0.322097 0)
(2.58889 0.00840034 0)
(2.57399 -0.176381 0)
(2.5557 -0.20052 0)
(2.50607 -0.182121 0)
(2.46988 -0.248459 0)
(2.47374 -0.247739 0)
(2.49206 -0.177542 0)
(2.46948 -0.115639 0)
(2.44411 -0.0806184 0)
(2.42252 -0.0565884 0)
(2.40356 -0.0545043 0)
(2.40359 -0.0577366 0)
(2.43641 -0.0331051 0)
(2.449 -0.0112726 0)
(2.43286 -0.0119242 0)
(2.42819 -0.015335 0)
(2.42529 -0.0150991 0)
(2.41983 -0.00378712 0)
(2.41307 0.00110939 0)
(2.40296 0.00187483 0)
(2.40255 -0.00201163 0)
(2.41479 -0.00459715 0)
(2.42472 -0.00466455 0)
(2.42493 -0.00342016 0)
(2.42321 -0.00244987 0)
(2.41653 -0.00294311 0)
(2.41393 -0.00249748 0)
(2.30082 0.0121723 0)
(0.991669 0.0330735 0)
(0.749911 -0.00279559 0)
(0.778401 -0.0198608 0)
(0.831702 -0.0342561 0)
(0.887064 -0.0411675 0)
(0.938689 -0.0430237 0)
(0.98847 -0.0430895 0)
(1.03941 -0.0411711 0)
(1.08931 -0.0382026 0)
(1.13859 -0.0337623 0)
(1.1851 -0.028893 0)
(1.229 -0.0252659 0)
(1.27136 -0.0233737 0)
(1.31165 -0.0230246 0)
(1.34755 -0.022377 0)
(1.37806 -0.019804 0)
(1.40344 -0.0159612 0)
(1.42886 -0.0116715 0)
(1.45584 -0.00783927 0)
(1.48647 -0.00537103 0)
(1.52316 -0.00478231 0)
(1.56199 -0.00740155 0)
(1.59414 -0.0118119 0)
(1.61851 -0.0123201 0)
(1.63974 -0.00863789 0)
(1.65478 -0.00110882 0)
(1.67066 0.00508166 0)
(1.68955 0.00688357 0)
(1.71312 0.00653685 0)
(1.74272 0.00416415 0)
(1.77066 -0.00182868 0)
(1.79466 -0.00494011 0)
(1.81789 -0.00446614 0)
(1.83466 -0.00111929 0)
(1.84617 0.00399624 0)
(1.85848 0.00783511 0)
(1.87403 0.00900663 0)
(1.89065 0.00930046 0)
(1.91099 0.00870294 0)
(1.93343 0.00459827 0)
(1.95241 0.000875206 0)
(1.97282 -0.000117756 0)
(1.98904 0.00109837 0)
(1.9981 0.00431899 0)
(2.0081 0.00772787 0)
(2.02372 0.00922079 0)
(2.0414 0.0096246 0)
(2.05924 0.00989682 0)
(2.0792 0.00790728 0)
(2.09461 0.00526315 0)
(2.10964 0.00412152 0)
(2.118 0.00422457 0)
(2.11924 0.00652828 0)
(2.12602 0.00907072 0)
(2.1408 0.0101542 0)
(2.15847 0.0107769 0)
(2.17616 0.0109745 0)
(2.195 0.00856483 0)
(2.21129 0.00640099 0)
(2.22447 0.00540661 0)
(2.23093 0.00776783 0)
(1.77455 1.00067 0)
(2.26443 0.65133 0)
(2.49738 0.282297 0)
(2.60355 0.10764 0)
(2.68869 -0.204292 0)
(2.65083 -0.493499 0)
(2.64085 -0.529027 0)
(2.67129 -0.46405 0)
(2.64329 -0.365087 0)
(2.60004 -0.317256 0)
(2.5592 -0.261919 0)
(2.51653 -0.186959 0)
(2.47719 -0.152623 0)
(2.4543 -0.12331 0)
(2.44591 -0.0788882 0)
(2.4449 -0.0427911 0)
(2.44599 -0.0381772 0)
(2.45194 -0.0123145 0)
(2.4528 0.0149919 0)
(2.44042 0.0106906 0)
(2.42615 -0.00223075 0)
(2.42297 -0.0101605 0)
(2.42297 -0.00315972 0)
(2.41784 0.0095941 0)
(2.40941 0.00928111 0)
(2.40799 -7.40605e-05 0)
(2.42066 -0.00778179 0)
(2.43501 -0.00780431 0)
(2.43762 -0.00683143 0)
(2.4361 -0.00531045 0)
(2.43299 -0.00208937 0)
(2.42909 0.00370925 0)
(2.42062 -0.0079496 0)
(1.18028 0.072161 0)
(0.876621 -0.0234694 0)
(0.92145 -0.0808584 0)
(0.986765 -0.0829123 0)
(1.02827 -0.0632662 0)
(1.0618 -0.048295 0)
(1.0957 -0.042947 0)
(1.1331 -0.0414256 0)
(1.17462 -0.0408369 0)
(1.21966 -0.0353776 0)
(1.26093 -0.023286 0)
(1.29488 -0.00984312 0)
(1.32268 -0.00444595 0)
(1.34942 -0.00972761 0)
(1.38164 -0.0226566 0)
(1.41565 -0.0336989 0)
(1.44684 -0.0346927 0)
(1.47346 -0.0268461 0)
(1.49876 -0.0119044 0)
(1.5236 0.00428138 0)
(1.5468 0.0113013 0)
(1.57132 0.00569172 0)
(1.60284 -0.00971143 0)
(1.63323 -0.0228128 0)
(1.65691 -0.0264576 0)
(1.6775 -0.0220842 0)
(1.69714 -0.00653333 0)
(1.71355 0.0112739 0)
(1.73022 0.0222645 0)
(1.74936 0.0219489 0)
(1.7719 0.0133354 0)
(1.79795 0.000730323 0)
(1.82112 -0.0107971 0)
(1.84204 -0.0143519 0)
(1.86165 -0.00858516 0)
(1.87672 0.00648314 0)
(1.88643 0.0220443 0)
(1.89666 0.0294716 0)
(1.91192 0.0290713 0)
(1.93057 0.0225703 0)
(1.95178 0.012399 0)
(1.97135 0.000525192 0)
(1.98999 -0.00681882 0)
(2.00832 -0.00514272 0)
(2.02352 0.00623793 0)
(2.03427 0.0208298 0)
(2.04341 0.0292032 0)
(2.05785 0.0299701 0)
(2.07424 0.0268972 0)
(2.09132 0.0187935 0)
(2.10638 0.00756668 0)
(2.11935 -0.000376872 0)
(2.13003 0.00108695 0)
(2.14015 0.0115793 0)
(2.14989 0.0239733 0)
(2.1596 0.031471 0)
(2.17316 0.032157 0)
(2.19028 0.0298453 0)
(2.20674 0.022346 0)
(2.2182 0.00999178 0)
(2.23366 0.00562854 0)
(1.71246 0.944564 0)
(1.9795 0.855737 0)
(2.27833 0.58185 0)
(2.50324 0.279425 0)
(2.57615 0.144746 0)
(2.60607 -0.067298 0)
(2.62848 -0.11848 0)
(2.64118 -0.135564 0)
(2.67752 -0.243809 0)
(2.68705 -0.328102 0)
(2.68846 -0.356266 0)
(2.64751 -0.35041 0)
(2.60306 -0.32735 0)
(2.57801 -0.275702 0)
(2.55815 -0.202846 0)
(2.54501 -0.133235 0)
(2.53441 -0.108061 0)
(2.50693 -0.0605449 0)
(2.48753 -0.0192932 0)
(2.47643 -0.0160273 0)
(2.47192 -0.0144622 0)
(2.47101 -0.0105757 0)
(2.46472 -0.00536846 0)
(2.45561 0.00300253 0)
(2.44894 -0.000395877 0)
(2.44863 -0.0155996 0)
(2.45801 -0.0258544 0)
(2.46565 -0.0247674 0)
(2.46862 -0.0205175 0)
(2.47131 -0.0157323 0)
(2.46831 -0.00479415 0)
(2.46133 -0.015584 0)
(2.37398 -0.160772 0)
(1.66742 -0.113555 0)
(1.16913 -0.0226379 0)
(1.18692 -0.0606737 0)
(1.23982 -0.093783 0)
(1.26185 -0.0963849 0)
(1.27465 -0.0887104 0)
(1.29232 -0.0765518 0)
(1.31201 -0.0743362 0)
(1.33678 -0.0781611 0)
(1.36998 -0.0823932 0)
(1.40175 -0.0787894 0)
(1.42618 -0.0699843 0)
(1.44453 -0.0524171 0)
(1.45663 -0.0325283 0)
(1.47417 -0.0258109 0)
(1.49453 -0.027467 0)
(1.52249 -0.0357365 0)
(1.55307 -0.0413859 0)
(1.57687 -0.0394336 0)
(1.59841 -0.0323913 0)
(1.61546 -0.0170072 0)
(1.6268 0.000789311 0)
(1.64479 0.00682491 0)
(1.66507 0.00344212 0)
(1.69137 -0.00628278 0)
(1.72185 -0.0122492 0)
(1.74488 -0.0105847 0)
(1.76474 -0.00417785 0)
(1.78094 0.00990265 0)
(1.78655 0.0253035 0)
(1.79418 0.0291997 0)
(1.81199 0.0228162 0)
(1.83313 0.0121057 0)
(1.86052 0.00316992 0)
(1.88469 0.000900269 0)
(1.90354 0.00363349 0)
(1.92018 0.0153551 0)
(1.92873 0.0324957 0)
(1.92998 0.0428185 0)
(1.94057 0.0393199 0)
(1.95672 0.0301902 0)
(1.97481 0.0203417 0)
(1.9971 0.0122615 0)
(2.02076 0.00862535 0)
(2.04003 0.00987491 0)
(2.05773 0.0186021 0)
(2.06833 0.0343231 0)
(2.07105 0.046072 0)
(2.07857 0.0437644 0)
(2.09159 0.035138 0)
(2.10601 0.0255603 0)
(2.12292 0.0181091 0)
(2.14034 0.0133779 0)
(2.15678 0.0152321 0)
(2.17192 0.0250282 0)
(2.18085 0.0389755 0)
(2.18367 0.0481598 0)
(2.18926 0.0459234 0)
(2.20084 0.0368528 0)
(2.21216 0.0283589 0)
(2.23379 0.0226129 0)
(1.61496 0.937501 0)
(1.88788 0.818952 0)
(2.15491 0.601763 0)
(2.29227 0.495327 0)
(2.37293 0.388277 0)
(2.51925 0.144679 0)
(2.5965 -0.0434667 0)
(2.60862 -0.106121 0)
(2.66429 -0.262955 0)
(2.68784 -0.346429 0)
(2.71436 -0.371258 0)
(2.71669 -0.400214 0)
(2.70642 -0.395527 0)
(2.67984 -0.370569 0)
(2.64648 -0.316324 0)
(2.62926 -0.269547 0)
(2.61877 -0.232663 0)
(2.58687 -0.167479 0)
(2.56631 -0.119059 0)
(2.55631 -0.094469 0)
(2.55491 -0.0920302 0)
(2.53214 -0.0700952 0)
(2.51103 -0.0372231 0)
(2.50553 0.00323443 0)
(2.50471 0.0105965 0)
(2.50375 0.00828426 0)
(2.4997 0.00891347 0)
(2.50095 0.00891597 0)
(2.50558 0.00815695 0)
(2.5127 0.00679518 0)
(2.50445 -0.0163989 0)
(2.47177 -0.0712142 0)
(2.13959 -0.380584 0)
(1.98579 -0.553846 0)
(1.48961 -0.250542 0)
(1.39014 -0.110594 0)
(1.4005 -0.0438378 0)
(1.42617 -0.0563096 0)
(1.43891 -0.074091 0)
(1.46062 -0.0778515 0)
(1.47431 -0.0743879 0)
(1.49007 -0.0652974 0)
(1.51218 -0.0577921 0)
(1.53466 -0.0568254 0)
(1.55286 -0.0570862 0)
(1.56896 -0.0513501 0)
(1.5762 -0.0355725 0)
(1.57968 -0.0183456 0)
(1.59469 -0.0118987 0)
(1.61478 -0.0096573 0)
(1.64123 -0.0140848 0)
(1.66458 -0.0212941 0)
(1.68338 -0.0248329 0)
(1.70052 -0.0252238 0)
(1.7105 -0.0164096 0)
(1.71588 -0.00103381 0)
(1.73198 0.00769802 0)
(1.75247 0.0121717 0)
(1.77857 0.011438 0)
(1.80322 0.00451271 0)
(1.82184 -0.00116307 0)
(1.83815 -0.00489568 0)
(1.84765 -0.00257637 0)
(1.84949 0.00926345 0)
(1.85736 0.0207247 0)
(1.87514 0.0249745 0)
(1.89467 0.0260277 0)
(1.91716 0.0225575 0)
(1.93722 0.0187433 0)
(1.95509 0.0171379 0)
(1.96913 0.018842 0)
(1.97257 0.0282129 0)
(1.97084 0.0380866 0)
(1.98083 0.0394109 0)
(1.99759 0.0384159 0)
(2.01713 0.0360153 0)
(2.04132 0.0318011 0)
(2.06156 0.0295634 0)
(2.08037 0.0292421 0)
(2.09723 0.0319377 0)
(2.1035 0.0410309 0)
(2.10001 0.0503252 0)
(2.10553 0.0502144 0)
(2.12037 0.0477955 0)
(2.13605 0.0444537 0)
(2.1572 0.039278 0)
(2.17558 0.0368062 0)
(2.19215 0.0369382 0)
(2.20686 0.041372 0)
(2.20926 0.052117 0)
(2.20006 0.0591387 0)
(2.20491 0.0558871 0)
(2.21774 0.0523481 0)
(2.23983 0.0503089 0)
(1.57581 0.906321 0)
(1.81777 0.809249 0)
(2.01893 0.667759 0)
(2.12265 0.612224 0)
(2.28141 0.46299 0)
(2.42085 0.251869 0)
(2.47579 0.190039 0)
(2.50834 0.115103 0)
(2.57711 -0.0365363 0)
(2.61839 -0.148294 0)
(2.62838 -0.158474 0)
(2.6566 -0.222418 0)
(2.68697 -0.284865 0)
(2.69868 -0.300998 0)
(2.69427 -0.304878 0)
(2.68469 -0.324286 0)
(2.67784 -0.324907 0)
(2.6535 -0.282595 0)
(2.6366 -0.238708 0)
(2.62489 -0.194061 0)
(2.61712 -0.17672 0)
(2.58501 -0.133129 0)
(2.56999 -0.104214 0)
(2.55619 -0.0603669 0)
(2.56193 -0.0410982 0)
(2.54652 -0.0189573 0)
(2.53444 -0.00972771 0)
(2.5276 -0.00381165 0)
(2.53391 0.0102874 0)
(2.52894 -0.000551536 0)
(2.48669 -0.0715822 0)
(2.27285 -0.305849 0)
(1.97737 -0.494103 0)
(1.96196 -0.665544 0)
(1.83568 -0.55457 0)
(1.61315 -0.292223 0)
(1.51684 -0.128444 0)
(1.5062 -0.0760402 0)
(1.5156 -0.0576676 0)
(1.54336 -0.0667071 0)
(1.56218 -0.072841 0)
(1.58085 -0.0704351 0)
(1.5979 -0.0638159 0)
(1.61607 -0.0584526 0)
(1.63069 -0.0545942 0)