/*--------------------------------*- C++ -*----------------------------------*\
  =========                 |
  \\      /  F ield         | OpenFOAM: The Open Source CFD Toolbox
   \\    /   O peration     | Website:  https://openfoam.org
    \\  /    A nd           | Version:  7
     \\/     M anipulation  |
\*---------------------------------------------------------------------------*/
FoamFile
{
    version     2.0;
    format      ascii;
    class       volScalarField;
    location    "1.7";
    object      rho;
}
// * * * * * * * * * * * * * * * * * * * * * * * * * * * * * * * * * * * * * //

dimensions      [1 -3 0 0 0 0 0];

internalField   nonuniform List<scalar> 
16192
(
1.9705
1.96365
1.94173
1.91194
1.90187
1.89974
1.899
1.89913
1.9038
1.92154
1.94793
1.9596
1.96111
1.95928
1.95164
1.93327
1.90512
1.89071
1.88526
1.88286
1.88193
1.88339
1.89594
1.922
1.93402
1.93219
1.92812
1.92292
1.9149
1.89987
1.87265
1.84525
1.833
1.8277
1.82593
1.82512
1.82549
1.83085
1.84245
1.85269
1.8539
1.85168
1.84856
1.84097
1.82026
1.78092
1.75608
1.75091
1.74909
1.74815
1.74803
1.75374
1.77554
1.80532
1.81236
1.80982
1.80579
1.79906
1.78137
1.73969
1.70658
1.69916
1.69744
1.6961
1.69497
1.69564
1.70795
1.7302
1.73451
1.73245
1.73078
1.72816
1.72155
1.70354
1.68636
1.68561
1.69229
1.70618
1.72001
1.73718
1.74944
1.75581
1.76302
1.77059
1.77299
1.77266
1.77165
1.76966
1.7658
1.75949
1.75155
1.74306
1.73472
1.72755
1.72103
1.71544
1.71315
1.71158
1.71011
1.7094
1.71038
1.71039
1.70841
1.70512
1.69715
1.67793
1.65614
1.6493
1.64796
1.6467
1.64558
1.64477
1.64502
1.64974
1.65109
1.64906
1.64744
1.64654
1.64511
1.64238
1.63448
1.61809
1.60561
1.60095
1.5981
1.59664
1.59569
1.59506
1.59497
1.59515
1.59517
1.59565
1.59928
1.60289
1.60209
1.60039
1.59856
1.59628
1.59307
1.587
1.5735
1.5567
1.54775
1.54548
1.54414
1.5431
1.54423
1.55486
1.56789
1.57314
1.57292
1.57253
1.57195
1.56962
1.5585
1.53448
1.51984
1.51653
1.51556
1.51465
1.51507
1.52769
1.56008
1.5751
1.57341
1.57043
1.56793
1.56236
1.54696
1.5163
1.49638
1.49507
1.49821
1.51004
1.53432
1.56228
1.57875
1.58403
1.58489
1.58297
1.57243
1.54956
1.5232
1.49824
1.47919
1.4723
1.47118
1.47347
1.48528
1.49642
1.49924
1.49917
1.49797
1.49458
1.48279
1.46601
1.45805
1.45496
1.45301
1.45175
1.45141
1.45355
1.45486
1.45374
1.45045
1.44427
1.43663
1.43194
1.43058
1.42935
1.4278
1.42549
1.42223
1.41801
1.41378
1.41018
1.40599
1.40085
1.39779
1.39694
1.39679
1.39773
1.40027
1.40499
1.40991
1.40957
1.40741
1.40483
1.4008
1.3921
1.37946
1.37214
1.37084
1.37134
1.37416
1.37445
1.37385
1.37247
1.36836
1.35901
1.34506
1.33091
1.32118
1.31551
1.31274
1.3114
1.31029
1.30972
1.31382
1.32693
1.3315
1.32954
1.32077
1.97173
1.96612
1.95243
1.92386
1.90058
1.89524
1.89347
1.89269
1.89332
1.901
1.92037
1.93834
1.9445
1.94578
1.94395
1.9332
1.91002
1.88621
1.87943
1.87766
1.87699
1.87883
1.88663
1.90121
1.91839
1.92615
1.92502
1.92123
1.91522
1.90537
1.88998
1.86535
1.84013
1.82815
1.82277
1.8209
1.82024
1.82044
1.82385
1.83281
1.84416
1.84684
1.84474
1.84168
1.83469
1.81635
1.7801
1.7551
1.75055
1.74928
1.74884
1.74967
1.75533
1.77353
1.79881
1.8055
1.80326
1.79977
1.79286
1.77145
1.72714
1.70111
1.69553
1.69351
1.69172
1.69038
1.69175
1.70801
1.72945
1.73098
1.72899
1.72749
1.72399
1.71556
1.6965
1.67917
1.67832
1.68411
1.69423
1.71024
1.73001
1.74148
1.75199
1.76529
1.76952
1.76923
1.76787
1.76555
1.7614
1.75449
1.74567
1.73644
1.72802
1.72121
1.71657
1.71352
1.71139
1.7102
1.71036
1.71216
1.71226
1.71047
1.70808
1.70438
1.69629
1.67859
1.65719
1.64728
1.64464
1.64358
1.64236
1.64133
1.64102
1.64549
1.65172
1.65064
1.64867
1.64741
1.6456
1.6429
1.63662
1.62244
1.60588
1.59877
1.5977
1.59731
1.59639
1.59508
1.59406
1.59406
1.59543
1.59747
1.59996
1.60237
1.60184
1.60024
1.59874
1.5971
1.59481
1.59041
1.58005
1.56113
1.54751
1.54309
1.54172
1.54078
1.54074
1.54658
1.55922
1.56838
1.57336
1.5742
1.5733
1.57142
1.56617
1.54896
1.52452
1.51516
1.51277
1.51177
1.51115
1.51287
1.5287
1.55812
1.56798
1.5663
1.56378
1.56115
1.55558
1.5416
1.51783
1.50719
1.5087
1.5191
1.53703
1.55075
1.55805
1.56117
1.56102
1.55576
1.54376
1.53203
1.52411
1.51643
1.50473
1.48986
1.48286
1.48244
1.48698
1.49166
1.49266
1.49238
1.49074
1.48632
1.47411
1.45979
1.45497
1.45331
1.45202
1.4511
1.45177
1.45579
1.45602
1.45494
1.45355
1.45055
1.44306
1.43305
1.4264
1.42254
1.41904
1.41543
1.413
1.41195
1.41151
1.41087
1.41019
1.40821
1.40431
1.40207
1.40125
1.4004
1.39961
1.39913
1.40121
1.4055
1.40544
1.40349
1.40119
1.39837
1.39271
1.38425
1.37741
1.37448
1.37272
1.37139
1.36886
1.36325
1.35347
1.34295
1.33578
1.33092
1.32413
1.31404
1.3074
1.30591
1.30512
1.30434
1.30454
1.31048
1.32239
1.3249
1.31998
1.96256
1.96163
1.9553
1.93912
1.91359
1.89649
1.89231
1.89079
1.89006
1.89174
1.902
1.91608
1.92362
1.92585
1.92636
1.92391
1.9124
1.89149
1.87568
1.87347
1.87391
1.87608
1.88127
1.88902
1.89786
1.90774
1.91472
1.91444
1.91089
1.90513
1.89617
1.88342
1.86339
1.839
1.82418
1.81764
1.81522
1.81444
1.81409
1.81572
1.82332
1.83626
1.84032
1.83841
1.83647
1.83166
1.81652
1.78297
1.75643
1.75117
1.74985
1.74898
1.74826
1.75193
1.76992
1.79525
1.80138
1.79941
1.79555
1.78601
1.75937
1.7157
1.69616
1.69165
1.68956
1.6877
1.68652
1.68974
1.70879
1.72372
1.72323
1.72174
1.721
1.71811
1.70934
1.68891
1.67228
1.67174
1.67607
1.68516
1.70574
1.72229
1.73254
1.74936
1.76248
1.76391
1.76281
1.76052
1.75667
1.74929
1.73927
1.73132
1.72538
1.71997
1.71577
1.71328
1.71275
1.71191
1.70928
1.70741
1.70639
1.70477
1.70274
1.69959
1.69338
1.68218
1.66541
1.64972
1.64348
1.64179
1.64099
1.63997
1.63913
1.63943
1.64375
1.64626
1.64458
1.64266
1.64091
1.63882
1.63533
1.62731
1.61351
1.60012
1.5931
1.59127
1.59076
1.59041
1.59047
1.59155
1.59391
1.59669
1.60029
1.60285
1.60195
1.60045
1.59932
1.59767
1.59548
1.59221
1.58576
1.57203
1.55293
1.54328
1.5409
1.54011
1.54002
1.5433
1.5508
1.56097
1.56997
1.5725
1.57177
1.57078
1.5688
1.5614
1.54065
1.51884
1.51251
1.51055
1.50966
1.50887
1.51096
1.52663
1.55439
1.56375
1.56263
1.5611
1.56022
1.55769
1.54832
1.53068
1.5234
1.52456
1.52996
1.53281
1.53287
1.53124
1.52754
1.52486
1.52309
1.52173
1.52114
1.52024
1.51836
1.51281
1.50137
1.49101
1.48709
1.4858
1.48466
1.48345
1.48114
1.4764
1.46806
1.45908
1.45494
1.45347
1.45249
1.4524
1.45756
1.46169
1.46051
1.45941
1.45815
1.45502
1.4466
1.43201
1.41974
1.41371
1.41074
1.40924
1.40849
1.4085
1.41062
1.41392
1.41469
1.41399
1.41146
1.4045
1.39793
1.39612
1.39478
1.39373
1.39407
1.40004
1.40561
1.40659
1.40662
1.40538
1.40202
1.39561
1.38589
1.37493
1.36753
1.36126
1.35266
1.34118
1.33319
1.33103
1.3303
1.32922
1.32638
1.31922
1.30835
1.30198
1.30113
1.30053
1.30002
1.30082
1.30782
1.31883
1.3178
1.9439
1.94944
1.94871
1.94331
1.93173
1.91551
1.89911
1.89157
1.88987
1.8899
1.89332
1.90004
1.9045
1.90643
1.90733
1.9074
1.90546
1.89878
1.88499
1.87247
1.8708
1.87249
1.87647
1.88109
1.88432
1.88721
1.89327
1.902
1.90354
1.90043
1.89567
1.8889
1.87942
1.86317
1.83862
1.8201
1.81254
1.80972
1.80867
1.80777
1.80795
1.81489
1.83042
1.83674
1.83621
1.83495
1.83125
1.81812
1.78548
1.75628
1.74937
1.74762
1.74674
1.74629
1.7503
1.76812
1.78985
1.79325
1.79087
1.78715
1.7767
1.74699
1.70634
1.69234
1.68885
1.6867
1.6848
1.68389
1.69076
1.71204
1.72002
1.71788
1.71579
1.71417
1.71085
1.70095
1.68073
1.66727
1.66702
1.67067
1.68212
1.70154
1.71312
1.72656
1.74666
1.75604
1.75595
1.75438
1.75142
1.74396
1.73327
1.72815
1.72518
1.72158
1.71825
1.71506
1.71157
1.70813
1.70586
1.70399
1.70194
1.69951
1.69646
1.69259
1.68821
1.68312
1.67496
1.66101
1.6466
1.64078
1.63931
1.63847
1.63791
1.63758
1.63797
1.64111
1.6422
1.63994
1.63727
1.63487
1.63215
1.62826
1.62064
1.60707
1.59438
1.58941
1.58839
1.58819
1.58946
1.59255
1.59519
1.5977
1.60164
1.60404
1.60282
1.60113
1.59988
1.59836
1.59629
1.59333
1.58902
1.5818
1.56814
1.55069
1.54336
1.54273
1.54226
1.54178
1.54241
1.54744
1.55889
1.56906
1.57068
1.57011
1.56908
1.5666
1.55796
1.53711
1.51748
1.51135
1.50908
1.50755
1.50623
1.5068
1.52187
1.55262
1.56455
1.56685
1.56834
1.5695
1.56874
1.56182
1.54326
1.52658
1.52055
1.51609
1.50825
1.49903
1.49625
1.49856
1.50845
1.51635
1.51904
1.52233
1.52522
1.52512
1.52013
1.50543
1.4875
1.47868
1.47487
1.47134
1.46739
1.46409
1.46214
1.46
1.45806
1.45653
1.45599
1.45843
1.46271
1.46168
1.45904
1.45665
1.45456
1.45116
1.4426
1.42626
1.41398
1.41041
1.40878
1.40767
1.40695
1.40735
1.41321
1.41882
1.41895
1.41745
1.41438
1.40748
1.39739
1.39185
1.39034
1.38962
1.39037
1.398
1.41048
1.41708
1.41771
1.41662
1.41319
1.4048
1.38735
1.36714
1.35083
1.33821
1.3291
1.32536
1.32461
1.3251
1.32742
1.32774
1.32685
1.32368
1.31463
1.30267
1.29745
1.29661
1.29584
1.29523
1.29597
1.30444
1.3148
1.92565
1.9292
1.93557
1.93725
1.93446
1.92969
1.92068
1.90601
1.89435
1.89095
1.88977
1.88967
1.88976
1.88974
1.89093
1.89347
1.89517
1.89524
1.89224
1.88241
1.87064
1.8687
1.8701
1.87221
1.87281
1.87248
1.87307
1.87869
1.89013
1.89433
1.89217
1.88878
1.88416
1.87706
1.86332
1.8385
1.8163
1.80717
1.80366
1.80233
1.80111
1.801
1.80945
1.83025
1.83824
1.83745
1.83595
1.83217
1.81913
1.78547
1.7546
1.74705
1.74532
1.74418
1.74358
1.74817
1.76646
1.78477
1.78608
1.78349
1.77944
1.76786
1.73669
1.69967
1.68925
1.68682
1.6851
1.68397
1.6846
1.69444
1.711
1.7136
1.71078
1.70842
1.70652
1.70303
1.69368
1.67567
1.66441
1.66415
1.66832
1.68222
1.6954
1.70501
1.7215
1.73848
1.74574
1.746
1.74458
1.73811
1.72915
1.72629
1.72515
1.725
1.7215
1.71657
1.71182
1.70759
1.70364
1.69958
1.69604
1.69304
1.69025
1.68746
1.68461
1.68205
1.67852
1.6714
1.65846
1.64427
1.6381
1.63677
1.63542
1.63407
1.63295
1.63256
1.63488
1.63579
1.6338
1.63181
1.63007
1.6279
1.6248
1.61897
1.60695
1.59289
1.58663
1.58545
1.58491
1.58499
1.58631
1.58826
1.59159
1.59568
1.59774
1.59777
1.59814
1.59837
1.59688
1.59529
1.59321
1.58986
1.58343
1.56892
1.54735
1.53655
1.53572
1.53535
1.53521
1.53669
1.54363
1.55767
1.56864
1.57015
1.56993
1.5693
1.5667
1.55697
1.5348
1.51339
1.5038
1.5007
1.49882
1.49761
1.50036
1.52523
1.56307
1.57528
1.57827
1.57994
1.58025
1.57793
1.56642
1.53825
1.51111
1.49469
1.48278
1.47663
1.47584
1.47792
1.48938
1.50917
1.52232
1.5293
1.53133
1.5305
1.52699
1.51705
1.49375
1.47125
1.46209
1.45787
1.4553
1.45468
1.45609
1.45992
1.46098
1.46127
1.46409
1.46709
1.46594
1.46288
1.46016
1.45684
1.45183
1.44541
1.43617
1.42339
1.41292
1.40961
1.4087
1.40792
1.4074
1.40747
1.40916
1.4126
1.41581
1.41584
1.41408
1.40935
1.39917
1.39212
1.39027
1.38952
1.39054
1.40211
1.42368
1.42984
1.42882
1.42596
1.41983
1.40503
1.37616
1.34318
1.32615
1.32063
1.3187
1.31786
1.31792
1.32175
1.32617
1.32731
1.3273
1.32644
1.32193
1.30973
1.29642
1.29193
1.29059
1.28961
1.28916
1.29186
1.3067
1.91342
1.91133
1.91363
1.92581
1.93346
1.93325
1.93099
1.92541
1.91342
1.89757
1.88685
1.88156
1.87921
1.87803
1.87772
1.87993
1.88582
1.88945
1.88985
1.88832
1.87982
1.86533
1.8614
1.86093
1.8602
1.85914
1.85829
1.85906
1.86684
1.88095
1.88814
1.88766
1.88514
1.88106
1.87497
1.86188
1.83548
1.81139
1.80215
1.79867
1.79722
1.79595
1.79618
1.80775
1.83174
1.83928
1.8386
1.83699
1.83261
1.81789
1.78149
1.75093
1.74406
1.74249
1.74147
1.74116
1.74575
1.76261
1.77818
1.77835
1.77554
1.7713
1.75986
1.72975
1.69644
1.68831
1.6866
1.68518
1.6841
1.68441
1.69267
1.70584
1.70717
1.7042
1.70152
1.69958
1.69657
1.68905
1.67233
1.66273
1.66295
1.66925
1.68057
1.68754
1.69766
1.71352
1.72431
1.73286
1.7345
1.73161
1.72523
1.72331
1.7238
1.72437
1.72035
1.71589
1.71167
1.707
1.70074
1.69304
1.68901
1.6873
1.68595
1.68485
1.68337
1.68081
1.67813
1.67523
1.66853
1.65455
1.63971
1.63358
1.63157
1.62976
1.62809
1.62673
1.62631
1.62936
1.63104
1.6302
1.62893
1.62815
1.62689
1.62433
1.61794
1.6026
1.58803
1.58392
1.58337
1.58276
1.58225
1.58195
1.58251
1.58588
1.59153
1.59581
1.59749
1.59773
1.59884
1.60024
1.59943
1.59734
1.59372
1.58503
1.56334
1.53782
1.52936
1.52844
1.52759
1.52726
1.52922
1.53948
1.55864
1.57083
1.57392
1.57459
1.5737
1.5689
1.55372
1.52447
1.50443
1.498
1.49596
1.49494
1.49471
1.50533
1.54462
1.58164
1.58724
1.58654
1.58532
1.58294
1.57509
1.54468
1.49648
1.471
1.46504
1.46368
1.46354
1.4649
1.47354
1.4976
1.52339
1.52972
1.52954
1.52799
1.52509
1.51927
1.50092
1.4691
1.45342
1.45009
1.44928
1.44919
1.45073
1.45527
1.46085
1.46793
1.47255
1.47226
1.47009
1.46698
1.4616
1.45411
1.44551
1.43697
1.42947
1.42163
1.41431
1.41166
1.41098
1.41028
1.40956
1.40915
1.40883
1.40865
1.41002
1.41314
1.413
1.41075
1.40493
1.39733
1.39427
1.39383
1.3976
1.41041
1.42058
1.42388
1.42387
1.42183
1.41446
1.39047
1.34653
1.32058
1.31559
1.31433
1.31355
1.31305
1.31382
1.31957
1.32708
1.33022
1.33051
1.33007
1.32731
1.3169
1.29801
1.28745
1.28544
1.28431
1.28345
1.28341
1.29502
1.90274
1.89972
1.89909
1.90723
1.92902
1.93772
1.93752
1.93512
1.92952
1.91428
1.88994
1.87498
1.87126
1.86982
1.86889
1.8696
1.87652
1.88574
1.88893
1.88784
1.88293
1.8695
1.85352
1.84896
1.84748
1.84634
1.84555
1.84531
1.84946
1.86183
1.87522
1.88179
1.88284
1.88145
1.87782
1.87117
1.85714
1.82941
1.80598
1.79781
1.79473
1.79327
1.79219
1.79384
1.80759
1.8317
1.83957
1.83831
1.83652
1.83172
1.81502
1.77599
1.74728
1.74138
1.73971
1.73819
1.73727
1.74052
1.75737
1.77206
1.77159
1.76935
1.76636
1.75593
1.72597
1.69417
1.68616
1.68431
1.68301
1.68202
1.68238
1.68913
1.70023
1.70193
1.69962
1.69788
1.69674
1.69389
1.68621
1.67025
1.66176
1.66265
1.66873
1.67345
1.67791
1.68821
1.69944
1.70996
1.72109
1.72327
1.72155
1.72133
1.72516
1.72583
1.72229
1.71646
1.71031
1.70416
1.69597
1.68722
1.68423
1.68296
1.68215
1.68232
1.68306
1.68159
1.67941
1.6772
1.67332
1.66328
1.64482
1.63107
1.6269
1.62443
1.62208
1.62038
1.6194
1.62129
1.6269
1.62903
1.62986
1.62961
1.62819
1.62644
1.6236
1.61617
1.59981
1.58496
1.57934
1.57779
1.57646
1.57534
1.57467
1.57543
1.58116
1.59026
1.59669
1.60044
1.60437
1.6054
1.60405
1.60223
1.59966
1.59453
1.58035
1.54999
1.52687
1.52212
1.52093
1.51992
1.51963
1.52352
1.54016
1.56472
1.57521
1.57652
1.57607
1.57379
1.56638
1.54553
1.51307
1.49862
1.49617
1.49535
1.49515
1.49943
1.51924
1.55839
1.58295
1.58515
1.58355
1.58072
1.57325
1.54628
1.49274
1.46641
1.46203
1.46115
1.46093
1.46182
1.46727
1.48311
1.50787
1.52077
1.5221
1.52172
1.52059
1.51608
1.50322
1.47541
1.45174
1.44629
1.44573
1.44601
1.44803
1.45418
1.46787
1.47799
1.47823
1.47652
1.47324
1.4672
1.45871
1.44877
1.44013
1.43334
1.42673
1.42124
1.41734
1.41185
1.4078
1.40698
1.40641
1.40592
1.40543
1.40488
1.40489
1.40765
1.41081
1.41066
1.40903
1.40607
1.40475
1.40624
1.41267
1.41821
1.41793
1.41651
1.41447
1.40837
1.39074
1.35627
1.32781
1.3187
1.31537
1.31338
1.31238
1.31191
1.31277
1.3202
1.33203
1.33576
1.33536
1.33388
1.33093
1.32192
1.30092
1.28462
1.28154
1.28048
1.27935
1.27869
1.2858
1.89528
1.893
1.8918
1.89384
1.9136
1.93957
1.94142
1.93922
1.93542
1.92537
1.90031
1.87656
1.86905
1.86692
1.86554
1.86515
1.86985
1.87938
1.88155
1.88082
1.87845
1.86897
1.84996
1.83872
1.83583
1.83456
1.83398
1.83412
1.83781
1.84792
1.86012
1.86848
1.8728
1.87391
1.8729
1.87019
1.86399
1.84962
1.82203
1.80053
1.79449
1.79249
1.79148
1.79109
1.79481
1.80947
1.83151
1.83903
1.83799
1.83599
1.8305
1.81044
1.76838
1.74222
1.73669
1.73478
1.73304
1.73206
1.73583
1.75495
1.76936
1.76874
1.76686
1.76387
1.75287
1.72002
1.69004
1.68395
1.68248
1.68082
1.67931
1.67865
1.68289
1.69543
1.69884
1.69643
1.69421
1.69267
1.69054
1.68448
1.67016
1.66074
1.6608
1.6631
1.66603
1.67066
1.67894
1.68829
1.70018
1.71213
1.71627
1.71839
1.7209
1.72066
1.71802
1.71328
1.70737
1.70012
1.69136
1.68385
1.6813
1.68021
1.67962
1.68104
1.68534
1.68483
1.68282
1.68038
1.67617
1.66738
1.64878
1.62921
1.62223
1.61953
1.61696
1.61513
1.61401
1.61531
1.6249
1.63112
1.63139
1.63035
1.62918
1.6278
1.62605
1.62256
1.61119
1.59096
1.5786
1.57368
1.57045
1.56767
1.56608
1.56554
1.56868
1.58208
1.59782
1.60624
1.60914
1.60854
1.60712
1.60554
1.60347
1.60006
1.59162
1.56867
1.53366
1.51695
1.51386
1.51248
1.51156
1.51206
1.52203
1.55024
1.57409
1.57818
1.57805
1.57724
1.5745
1.56603
1.54242
1.51029
1.49968
1.49819
1.49771
1.49785
1.50338
1.52663
1.56132
1.57317
1.57229
1.57011
1.56513
1.54948
1.51132
1.47142
1.46211
1.46119
1.46103
1.46207
1.46612
1.47383
1.48852
1.50529
1.51006
1.50937
1.50813
1.50603
1.49894
1.48389
1.46007
1.44632
1.44463
1.44498
1.44786
1.45584
1.46849
1.47414
1.4735
1.47171
1.46879
1.463
1.45362
1.44485
1.43881
1.43289
1.42754
1.42351
1.41903
1.41295
1.40655
1.40367
1.40276
1.40188
1.40109
1.40048
1.40057
1.40425
1.40951
1.41293
1.41611
1.41976
1.42343
1.42511
1.42381
1.42023
1.41548
1.40919
1.39825
1.37759
1.34935
1.33172
1.32626
1.32252
1.318
1.31432
1.31313
1.31281
1.31449
1.32267
1.33243
1.33446
1.33395
1.33334
1.33164
1.32535
1.3068
1.28531
1.27924
1.27855
1.27773
1.27716
1.28093
1.8935
1.89163
1.89023
1.89
1.89851
1.92264
1.94187
1.94234
1.93835
1.9304
1.91391
1.88607
1.87066
1.86711
1.86552
1.8647
1.86566
1.86952
1.87084
1.86977
1.86794
1.86315
1.849
1.83338
1.82792
1.82568
1.82478
1.8252
1.82878
1.83733
1.84703
1.85347
1.85769
1.86135
1.86368
1.86351
1.86183
1.85709
1.84499
1.8203
1.7995
1.7937
1.79204
1.79141
1.79163
1.79602
1.81014
1.83299
1.84158
1.83979
1.83549
1.82613
1.80032
1.75712
1.73665
1.7323
1.73022
1.72842
1.7275
1.73318
1.75646
1.76925
1.76824
1.76652
1.76259
1.74846
1.71286
1.68569
1.67921
1.67713
1.67501
1.67308
1.67203
1.67708
1.69322
1.69647
1.69445
1.69284
1.69204
1.69079
1.68486
1.66706
1.65477
1.65455
1.65744
1.66087
1.66566
1.67251
1.68198
1.69486
1.70604
1.71249
1.71577
1.71524
1.71324
1.70941
1.70384
1.69588
1.68719
1.68182
1.67957
1.67848
1.67816
1.67911
1.68154
1.68131
1.67939
1.67715
1.67451
1.66774
1.65088
1.62976
1.62082
1.61807
1.61595
1.61398
1.61273
1.61281
1.62178
1.63512
1.63553
1.63391
1.63276
1.63152
1.62964
1.62643
1.61837
1.60017
1.58017
1.56938
1.56454
1.56172
1.56038
1.55983
1.56119
1.57553
1.6036
1.61386
1.61323
1.61184
1.61014
1.60804
1.60552
1.6019
1.59545
1.58063
1.54783
1.51719
1.50812
1.50651
1.50564
1.50516
1.50904
1.53055
1.56667
1.5818
1.58358
1.58334
1.58197
1.5784
1.56798
1.54009
1.50807
1.49964
1.49846
1.49703
1.49647
1.50133
1.52452
1.55288
1.55791
1.55568
1.55182
1.5454
1.53078
1.49996
1.47012
1.46325
1.46262
1.46311
1.46469
1.4669
1.4716
1.48207
1.49464
1.49779
1.49672
1.49467
1.49177
1.48687
1.47542
1.45561
1.44595
1.44607
1.44986
1.46013
1.46937
1.4711
1.47011
1.46741
1.4629
1.45624
1.44913
1.44351
1.43891
1.43523
1.43176
1.42797
1.4229
1.41444
1.40417
1.39937
1.39809
1.39733
1.39668
1.39625
1.39652
1.40083
1.40989
1.42126
1.43221
1.43858
1.43938
1.43728
1.43134
1.42043
1.40622
1.38645
1.35977
1.33596
1.32687
1.32481
1.32377
1.32288
1.32084
1.31801
1.31677
1.3168
1.31972
1.32686
1.33255
1.33336
1.33252
1.3314
1.32966
1.32577
1.31515
1.2941
1.28015
1.27748
1.27671
1.27561
1.27702
1.89483
1.89259
1.89095
1.89031
1.89466
1.90672
1.92131
1.93176
1.93339
1.93073
1.92205
1.90638
1.88521
1.87102
1.86711
1.86567
1.86561
1.86518
1.86286
1.86035
1.85758
1.85377
1.84705
1.83658
1.82771
1.82362
1.82129
1.82052
1.82278
1.82869
1.83487
1.83851
1.84111
1.84466
1.84994
1.85462
1.85592
1.85538
1.8526
1.84341
1.82175
1.80059
1.794
1.79236
1.7919
1.79194
1.79586
1.809
1.82854
1.83541
1.83389
1.82977
1.81907
1.78813
1.74642
1.73198
1.7286
1.72654
1.72475
1.72423
1.73402
1.75993
1.76836
1.76675
1.76455
1.75983
1.74028
1.70057
1.67924
1.67395
1.67142
1.66892
1.66704
1.66675
1.67775
1.69639
1.6975
1.69552
1.69454
1.69342
1.69049
1.6779
1.65652
1.64997
1.65123
1.65447
1.65815
1.66337
1.66984
1.67896
1.69084
1.70017
1.70587
1.70716
1.70623
1.70388
1.69965
1.69285
1.68525
1.68098
1.679
1.67739
1.67646
1.67775
1.68074
1.67963
1.67714
1.67434
1.67089
1.66536
1.6531
1.6337
1.62132
1.61789
1.61623
1.61468
1.61341
1.613
1.61561
1.62599
1.63369
1.63297
1.63111
1.62956
1.62779
1.6253
1.6206
1.60764
1.58455
1.56872
1.56269
1.56034
1.55941
1.55909
1.56061
1.56856
1.58695
1.60617
1.61104
1.6097
1.60751
1.60534
1.60309
1.60041
1.59617
1.58685
1.56472
1.52845
1.5088
1.50504
1.50419
1.50398
1.50629
1.51775
1.54765
1.58206
1.58896
1.58873
1.58746
1.58514
1.5805
1.56724
1.53397
1.49909
1.48951
1.48833
1.48685
1.48608
1.49146
1.51581
1.54075
1.54332
1.54115
1.53842
1.53428
1.52457
1.49896
1.47082
1.46415
1.46336
1.46307
1.46304
1.46261
1.46321
1.46975
1.48101
1.48524
1.48493
1.48448
1.48379
1.48119
1.47263
1.45729
1.45211
1.45413
1.45945
1.46373
1.46477
1.46404
1.46074
1.45538
1.44935
1.44533
1.4438
1.44266
1.44051
1.43648
1.4314
1.42364
1.41133
1.40126
1.39766
1.39623
1.39536
1.39491
1.39477
1.39572
1.40088
1.41618
1.43998
1.45171
1.45176
1.44937
1.4433
1.43075
1.40875
1.3756
1.34285
1.32715
1.32387
1.32314
1.32313
1.3234
1.32309
1.32228
1.32098
1.32039
1.32088
1.32333
1.3263
1.32914
1.33069
1.33022
1.32898
1.32738
1.32509
1.32007
1.30666
1.28584
1.27647
1.27488
1.27368
1.27415
1.89883
1.8958
1.89374
1.89283
1.89627
1.90433
1.90958
1.914
1.91998
1.92155
1.91918
1.91431
1.90472
1.89088
1.87637
1.86881
1.86456
1.86116
1.85783
1.85378
1.84872
1.84413
1.84097
1.83743
1.83209
1.82609
1.82147
1.81896
1.81816
1.8193
1.82203
1.82405
1.82521
1.82725
1.83225
1.84092
1.84866
1.85175
1.85214
1.85091
1.84344
1.8229
1.80039
1.79211
1.78999
1.78931
1.78928
1.79368
1.80791
1.82708
1.83202
1.83007
1.82453
1.80994
1.77287
1.7365
1.72846
1.72631
1.72463
1.72339
1.72431
1.73927
1.76487
1.77004
1.76761
1.76342
1.7535
1.72608
1.688
1.67376
1.66975
1.66718
1.66516
1.66379
1.66546
1.68038
1.69168
1.69106
1.69001
1.69049
1.69055
1.68626
1.66841
1.65114
1.64911
1.65077
1.65336
1.65709
1.66301
1.6688
1.67525
1.68258
1.68821
1.69296
1.69615
1.69615
1.69424
1.68939
1.68335
1.68002
1.67868
1.67794
1.67688
1.67637
1.67696
1.67599
1.67337
1.66984
1.66532
1.65977
1.65253
1.64143
1.62767
1.6196
1.6177
1.61675
1.61562
1.61483
1.61549
1.61956
1.6287
1.63393
1.63247
1.62985
1.62784
1.62558
1.62167
1.61335
1.59462
1.57193
1.56386
1.56223
1.56142
1.56117
1.56307
1.5683
1.57558
1.58851
1.60455
1.60907
1.60715
1.60428
1.60145
1.59804
1.5934
1.58649
1.5747
1.55316
1.52334
1.5078
1.50558
1.50555
1.50797
1.51603
1.53189
1.56059
1.5889
1.5936
1.59193
1.58924
1.58539
1.5783
1.55952
1.51916
1.48518
1.4767
1.47496
1.47342
1.47311
1.48114
1.5079
1.53203
1.5353
1.53455
1.53466
1.53276
1.52348
1.49722
1.46725
1.45781
1.45565
1.45418
1.45266
1.45182
1.45219
1.45855
1.47011
1.47725
1.47977
1.48071
1.48204
1.482
1.4759
1.46182
1.45607
1.45613
1.45684
1.45723
1.45606
1.45173
1.44741
1.44545
1.44469
1.44459
1.44558
1.44398
1.44026
1.4349
1.42533
1.41032
1.4004
1.39772
1.39647
1.39578
1.39545
1.39542
1.39809
1.4093
1.43218
1.44834
1.45008
1.44939
1.44742
1.4415
1.41951
1.37127
1.33249
1.32318
1.32146
1.32046
1.31974
1.32018
1.32396
1.32717
1.32721
1.3261
1.32564
1.32612
1.32672
1.32641
1.32658
1.32695
1.32697
1.32662
1.32587
1.32476
1.32228
1.31558
1.29986
1.28065
1.27174
1.26993
1.27024
1.90689
1.90375
1.90161
1.90086
1.90308
1.90627
1.90661
1.90564
1.90624
1.91104
1.91354
1.9123
1.91045
1.9056
1.89423
1.87745
1.86675
1.86068
1.85488
1.8478
1.84128
1.8377
1.83581
1.83519
1.83479
1.83281
1.82901
1.82193
1.81405
1.81156
1.81125
1.8113
1.81135
1.81197
1.81483
1.82264
1.83598
1.84675
1.84989
1.85048
1.84959
1.84174
1.81915
1.79594
1.78863
1.787
1.78635
1.78641
1.79131
1.80603
1.82311
1.82544
1.82259
1.81613
1.79917
1.76152
1.7326
1.72728
1.72571
1.7245
1.72395
1.72687
1.74237
1.76004
1.76194
1.75973
1.75615
1.74442
1.71169
1.67807
1.66962
1.66716
1.66549
1.66407
1.66353
1.66809
1.6828
1.68851
1.68724
1.68672
1.68746
1.68787
1.68236
1.66323
1.64987
1.64957
1.65179
1.65441
1.65775
1.66192
1.66349
1.66552
1.66975
1.67372
1.67834
1.68365
1.68527
1.68415
1.68131
1.67894
1.67851
1.67945
1.67777
1.67478
1.67324
1.67219
1.66924
1.66393
1.65848
1.65391
1.64964
1.64491
1.63727
1.62569
1.61911
1.61798
1.61755
1.61722
1.61713
1.61727
1.61849
1.62336
1.62811
1.62701
1.62416
1.62167
1.61902
1.61496
1.60645
1.58942
1.57183
1.56713
1.5667
1.5672
1.56824
1.56897
1.5703
1.57398
1.58376
1.59881
1.60447
1.60247
1.59883
1.59497
1.59032
1.58457
1.57821
1.56905
1.55154
1.52553
1.51221
1.51105
1.5123
1.51685
1.52456
1.53824
1.56245
1.58552
1.58974
1.58799
1.58477
1.57988
1.57006
1.54484
1.49957
1.47032
1.46465
1.46347
1.4625
1.46375
1.47611
1.5045
1.52738
1.5314
1.53093
1.53009
1.52697
1.51618
1.48958
1.46075
1.45021
1.44718
1.44574
1.44447
1.4437
1.44487
1.45265
1.46545
1.47533
1.4817
1.48629
1.48789
1.48655
1.47637
1.45692
1.44857
1.4481
1.44806
1.44692
1.44451
1.44321
1.44266
1.44374
1.44757
1.4479
1.44532
1.44148
1.43617
1.42611
1.41017
1.4008
1.399
1.39815
1.39766
1.39764
1.40013
1.40938
1.42696
1.44127
1.44338
1.44229
1.44045
1.4366
1.42273
1.38223
1.33732
1.32443
1.3219
1.32036
1.31911
1.31836
1.31972
1.32588
1.33066
1.33138
1.33113
1.33026
1.32797
1.32453
1.32363
1.32304
1.32244
1.32227
1.32349
1.32455
1.32423
1.32302
1.3197
1.3108
1.29216
1.27231
1.26454
1.26476
1.91227
1.91029
1.90998
1.91204
1.91154
1.90884
1.90451
1.89999
1.89768
1.89814
1.90787
1.91359
1.91244
1.90999
1.90554
1.89373
1.87357
1.85689
1.84789
1.84265
1.83896
1.83651
1.835
1.83465
1.8359
1.83555
1.83318
1.82816
1.81664
1.80439
1.80174
1.80113
1.80068
1.80045
1.8011
1.80527
1.81682
1.83443
1.84633
1.84911
1.84905
1.84673
1.83709
1.81302
1.7903
1.78376
1.78261
1.78213
1.78299
1.78851
1.80281
1.81773
1.8184
1.81544
1.80832
1.79018
1.75405
1.73093
1.72718
1.72607
1.72526
1.7248
1.72806
1.74357
1.75744
1.75713
1.75442
1.74928
1.73412
1.69983
1.67412
1.66959
1.66804
1.666
1.66412
1.66331
1.66805
1.68031
1.68404
1.68374
1.68439
1.68571
1.68595
1.68057
1.66234
1.65082
1.65061
1.65322
1.65538
1.65621
1.65576
1.65379
1.65402
1.65572
1.6586
1.66415
1.67116
1.6764
1.67818
1.67907
1.68197
1.68198
1.67944
1.67519
1.67034
1.66607
1.6619
1.65671
1.65363
1.65142
1.6493
1.64708
1.64343
1.63609
1.62503
1.61866
1.61741
1.61701
1.61648
1.61572
1.61477
1.61458
1.61877
1.6235
1.62187
1.61905
1.61681
1.61476
1.61251
1.60698
1.59234
1.57338
1.56699
1.56584
1.56562
1.56647
1.5672
1.5675
1.56943
1.57686
1.59123
1.59868
1.59709
1.59374
1.59002
1.58587
1.58237
1.57835
1.5712
1.55459
1.5294
1.51919
1.51859
1.51867
1.52037
1.52535
1.53638
1.55927
1.58205
1.58513
1.58259
1.57816
1.5714
1.55844
1.52799
1.48219
1.45951
1.45594
1.4551
1.45473
1.45811
1.4722
1.49948
1.52221
1.52662
1.52595
1.52406
1.51966
1.50825
1.48253
1.45512
1.44379
1.43925
1.43634
1.4348
1.43449
1.43983
1.45628
1.47626
1.48754
1.49018
1.49005
1.488
1.48141
1.46225
1.44271
1.43902
1.43925
1.43923
1.43886
1.43866
1.43996
1.44487
1.45183
1.45213
1.45007
1.44616
1.43917
1.42658
1.41073
1.40408
1.40249
1.40131
1.40067
1.40174
1.4093
1.4245
1.43598
1.43881
1.43792
1.43528
1.42955
1.41584
1.38715
1.35164
1.33135
1.32437
1.32246
1.32139
1.32056
1.32043
1.32447
1.33342
1.33745
1.33679
1.33526
1.33344
1.3301
1.32337
1.31917
1.31824
1.31769
1.31752
1.31842
1.32146
1.32356
1.32362
1.32216
1.31722
1.30428
1.28065
1.26137
1.25962
1.91803
1.9207
1.92227
1.92016
1.91499
1.9075
1.89919
1.89408
1.89205
1.89107
1.89714
1.91426
1.91629
1.91429
1.91067
1.90094
1.87773
1.85459
1.84533
1.84191
1.83944
1.83703
1.83552
1.83604
1.83825
1.8375
1.83513
1.83093
1.82015
1.80278
1.79408
1.79259
1.79202
1.79143
1.79137
1.79321
1.79995
1.81493
1.8342
1.84382
1.8453
1.84453
1.8407
1.82931
1.80414
1.78403
1.77938
1.77878
1.77862
1.77965
1.78509
1.80045
1.81312
1.81233
1.80892
1.8019
1.78391
1.74947
1.72949
1.72593
1.72487
1.72378
1.7231
1.72685
1.74347
1.75346
1.75179
1.74859
1.74281
1.72638
1.69274
1.67025
1.66526
1.66383
1.66213
1.66074
1.66048
1.66611
1.67688
1.68116
1.68297
1.68599
1.68779
1.68791
1.68148
1.66265
1.65136
1.65024
1.65129
1.65124
1.64944
1.64545
1.64415
1.64437
1.64603
1.64981
1.65588
1.66332
1.67095
1.67851
1.68219
1.6814
1.67777
1.67313
1.66753
1.65981
1.65337
1.65175
1.65117
1.65025
1.64955
1.64869
1.6461
1.64248
1.63556
1.62416
1.61654
1.61498
1.61428
1.61305
1.61143
1.60996
1.60942
1.61417
1.61941
1.61789
1.6164
1.61651
1.61619
1.61441
1.60904
1.59268
1.57241
1.56593
1.56468
1.56413
1.56333
1.56265
1.56242
1.56395
1.57026
1.58465
1.59456
1.59363
1.59189
1.59071
1.58959
1.58779
1.58466
1.57731
1.55737
1.52728
1.5148
1.51406
1.51439
1.51573
1.51899
1.52904
1.55354
1.57662
1.57835
1.57529
1.57085
1.56398
1.5492
1.51378
1.46818
1.45171
1.45004
1.44952
1.44968
1.45302
1.46507
1.49119
1.51587
1.52078
1.52002
1.5182
1.51422
1.50127
1.47153
1.44446
1.43472
1.43155
1.43025
1.42974
1.43449
1.454
1.47234
1.47903
1.48137
1.48236
1.48215
1.47823
1.46649
1.44353
1.43224
1.43181
1.4326
1.43337
1.43508
1.43928
1.44934
1.45524
1.4544
1.4515
1.44615
1.43768
1.42563
1.41317
1.40968
1.40899
1.4086
1.40866
1.411
1.41707
1.42344
1.42807
1.42851
1.42638
1.41944
1.40299
1.37602
1.35288
1.34262
1.33547
1.32894
1.32545
1.3247
1.32453
1.32667
1.3327
1.33495
1.33461
1.33377
1.33264
1.33119
1.32867
1.32239
1.3155
1.31413
1.31373
1.31364
1.31442
1.31789
1.32352
1.32498
1.32433
1.32138
1.31328
1.29418
1.26498
1.25515
1.92574
1.93133
1.93112
1.92767
1.91996
1.90734
1.89641
1.89253
1.8909
1.88963
1.89042
1.90267
1.91783
1.9177
1.91343
1.90329
1.88042
1.85511
1.84634
1.84368
1.84176
1.84053
1.84123
1.84296
1.84228
1.8402
1.83747
1.83252
1.82103
1.80325
1.79131
1.7867
1.78535
1.78478
1.7845
1.78542
1.78935
1.79772
1.81195
1.82814
1.83668
1.83854
1.83804
1.83417
1.82221
1.7966
1.77888
1.77531
1.7745
1.77381
1.77443
1.78205
1.79963
1.80932
1.80838
1.80519
1.79736
1.77828
1.74475
1.72652
1.72232
1.72098
1.71963
1.71914
1.72574
1.74408
1.75036
1.74821
1.74516
1.73797
1.71728
1.68243
1.66564
1.66217
1.66054
1.65894
1.65782
1.65823
1.66558
1.6771
1.68331
1.68784
1.69008
1.69076
1.6899
1.67929
1.65853
1.64937
1.64793
1.64756
1.64556
1.64091
1.63864
1.63806
1.63826
1.64003
1.64408
1.65041
1.65996
1.67157
1.67633
1.67607
1.67313
1.66871
1.66319
1.65563
1.64902
1.64737
1.64705
1.64763
1.65112
1.65105
1.64937
1.64662
1.64181
1.63215
1.61872
1.61108
1.61004
1.60904
1.60734
1.60567
1.60436
1.60478
1.6124
1.61962
1.62113
1.62083
1.61897
1.61755
1.61519
1.60846
1.59033
1.56999
1.56251
1.56053
1.55985
1.55943
1.55907
1.55855
1.55884
1.56415
1.57995
1.59413
1.59655
1.59717
1.59685
1.5957
1.5936
1.58956
1.57866
1.54979
1.51826
1.51011
1.50933
1.50825
1.5076
1.50901
1.52017
1.54978
1.57328
1.57393
1.57112
1.56693
1.5596
1.54169
1.50013
1.45539
1.44253
1.44149
1.44007
1.43937