/*--------------------------------*- C++ -*----------------------------------*\
  =========                 |
  \\      /  F ield         | OpenFOAM: The Open Source CFD Toolbox
   \\    /   O peration     | Website:  https://openfoam.org
    \\  /    A nd           | Version:  7
     \\/     M anipulation  |
\*---------------------------------------------------------------------------*/
FoamFile
{
    version     2.0;
    format      ascii;
    class       volVectorField;
    location    "2.6";
    object      U;
}
// * * * * * * * * * * * * * * * * * * * * * * * * * * * * * * * * * * * * * //

dimensions      [0 1 -1 0 0 0 0];

internalField   nonuniform List<vector> 
16192
(
(1.07203 -0.0092455 0)
(1.08318 -0.00869348 0)
(1.0908 -0.00808167 0)
(1.09681 -0.00700063 0)
(1.10379 -0.00595398 0)
(1.11374 -0.00541911 0)
(1.12647 -0.00555743 0)
(1.1397 -0.00663047 0)
(1.15163 -0.00738247 0)
(1.16329 -0.00796448 0)
(1.1736 -0.00784782 0)
(1.1818 -0.00641264 0)
(1.18723 -0.00516685 0)
(1.1901 -0.00409141 0)
(1.19066 -0.00255994 0)
(1.18997 -0.000896073 0)
(1.18746 0.000387258 0)
(1.18378 0.0011798 0)
(1.17862 0.00273926 0)
(1.17253 0.00485486 0)
(1.16746 0.00663202 0)
(1.16163 0.00756557 0)
(1.15488 0.0077091 0)
(1.14754 0.00777964 0)
(1.13886 0.00781715 0)
(1.12833 0.00789185 0)
(1.11531 0.00800132 0)
(1.09887 0.00826939 0)
(1.07968 0.00877026 0)
(1.06128 0.00940663 0)
(1.04925 0.00981289 0)
(1.04327 0.00978404 0)
(1.03939 0.00950602 0)
(1.03693 0.00885861 0)
(1.03632 0.00776809 0)
(1.0357 0.00640632 0)
(1.0332 0.00524525 0)
(1.02696 0.00359819 0)
(1.01241 0.00225148 0)
(0.997148 0.00146841 0)
(0.994333 0.000841224 0)
(0.99701 -0.00061865 0)
(1.00716 -0.00371161 0)
(1.02815 -0.00767164 0)
(1.05869 -0.0123568 0)
(1.09478 -0.0177617 0)
(1.13122 -0.0224721 0)
(1.16579 -0.0257938 0)
(1.19738 -0.0279787 0)
(1.22391 -0.0291371 0)
(1.24571 -0.0282405 0)
(1.26502 -0.0262345 0)
(1.28409 -0.0233998 0)
(1.3046 -0.019366 0)
(1.32672 -0.014613 0)
(1.34859 -0.0108807 0)
(1.37196 -0.00881088 0)
(1.39949 -0.00826766 0)
(1.42912 -0.00858563 0)
(1.44889 -0.00896656 0)
(1.45894 -0.00932913 0)
(1.46673 -0.00929639 0)
(1.46993 -0.00823122 0)
(1.46686 -0.00543002 0)
(1.4668 -0.00179907 0)
(1.47147 0.00030635 0)
(1.47754 0.00195962 0)
(1.48864 0.0029339 0)
(1.50203 0.00296428 0)
(1.50914 0.00258242 0)
(1.51322 0.00228202 0)
(1.5169 0.00191717 0)
(1.52054 0.00116184 0)
(1.52466 -0.000245113 0)
(1.52967 -0.00231058 0)
(1.53468 -0.0042984 0)
(1.53883 -0.00511485 0)
(1.54128 -0.0051624 0)
(1.53995 -0.00367894 0)
(1.53888 -0.00111105 0)
(1.5398 0.00166818 0)
(1.5421 0.00334673 0)
(1.54485 0.00411048 0)
(1.5492 0.00437328 0)
(1.55448 0.00416101 0)
(1.55908 0.00366194 0)
(1.5621 0.00204575 0)
(1.56381 -0.000558803 0)
(1.56503 -0.00214195 0)
(1.56498 -0.00256606 0)
(1.56375 -0.00120157 0)
(1.56523 0.000444381 0)
(1.56807 0.00113751 0)
(1.57249 0.00116778 0)
(1.57973 0.000125523 0)
(1.58625 -0.00139646 0)
(1.59079 -0.00268231 0)
(1.59475 -0.00298518 0)
(1.59821 -0.00245838 0)
(1.60079 -0.000963775 0)
(1.60379 0.000873065 0)
(1.60712 0.00225872 0)
(1.61077 0.00294942 0)
(1.61484 0.00312239 0)
(1.61965 0.00295532 0)
(1.62476 0.0024804 0)
(1.62953 0.00119101 0)
(1.63427 -0.00136972 0)
(1.63897 -0.00351983 0)
(1.64344 -0.00420655 0)
(1.64533 -0.00302118 0)
(1.64596 4.5768e-07 0)
(1.64775 0.0025935 0)
(1.64936 0.00406744 0)
(1.65068 0.00433238 0)
(1.65244 0.00384373 0)
(1.65449 0.00308557 0)
(1.65608 0.00202737 0)
(1.65589 -0.00099177 0)
(1.65555 -0.00467854 0)
(1.65695 -0.0066289 0)
(1.65906 -0.00649093 0)
(1.66212 -0.00446279 0)
(1.66719 -0.0030093 0)
(1.67318 -0.00196435 0)
(1.68537 -0.000907517 0)
(1.70212 -0.000192587 0)
(1.71118 0.000301858 0)
(1.71509 0.000566175 0)
(1.71662 0.000830954 0)
(1.71582 0.00113142 0)
(1.7119 0.00179887 0)
(1.70026 0.00280936 0)
(1.68538 0.00379348 0)
(1.67949 0.00394975 0)
(1.67739 0.00379489 0)
(1.67742 0.00325259 0)
(1.68078 0.00173457 0)
(1.68708 -0.000596984 0)
(1.69436 -0.00178383 0)
(1.70154 -0.00130892 0)
(1.70925 4.84942e-05 0)
(1.71432 0.00104284 0)
(1.71573 0.0012982 0)
(1.71648 0.00132754 0)
(1.71641 0.00106614 0)
(1.71575 -0.000140855 0)
(1.71598 -0.00269364 0)
(1.71795 -0.00457865 0)
(1.72091 -0.00512552 0)
(1.72376 -0.00471768 0)
(1.72672 -0.002779 0)
(1.73025 -0.000326837 0)
(1.73617 0.00223177 0)
(1.74527 0.00344124 0)
(1.75422 0.00327715 0)
(1.76068 0.00269021 0)
(1.76475 0.00150895 0)
(1.76725 -0.000225462 0)
(1.76792 -0.000906788 0)
(1.76717 -0.000876036 0)
(1.76434 -0.000449395 0)
(1.76315 2.42905e-05 0)
(1.76427 -0.000165119 0)
(1.7664 -0.000791938 0)
(1.77036 -0.00138962 0)
(1.77672 -0.00191533 0)
(1.78448 -0.00293162 0)
(1.79316 -0.00394895 0)
(1.80346 -0.00491498 0)
(1.81719 -0.00503095 0)
(1.83428 -0.00506548 0)
(1.84573 -0.0050877 0)
(1.85132 -0.00489917 0)
(1.85654 -0.00439567 0)
(1.86154 -0.00359774 0)
(1.86664 -0.0026302 0)
(1.87169 -0.00163929 0)
(1.87705 -0.000962772 0)
(1.88451 -0.000810332 0)
(1.89642 -0.00162416 0)
(1.90998 -0.0031343 0)
(1.91626 -0.00360784 0)
(1.9213 -0.00353388 0)
(1.92467 -0.00312952 0)
(1.925 -0.00215861 0)
(1.92443 -0.000452825 0)
(1.92651 0.000403062 0)
(1.92979 0.000519467 0)
(1.93326 0.000519732 0)
(1.93744 0.000192388 0)
(1.94235 -0.000962241 0)
(1.94652 -0.00199127 0)
(1.95056 -0.00224608 0)
(1.9538 -0.00204745 0)
(1.95466 -0.000963712 0)
(1.95684 0.000458142 0)
(1.96015 0.00112641 0)
(1.96377 0.00154556 0)
(1.96864 0.00164411 0)
(1.97343 0.0014259 0)
(1.97727 0.00106935 0)
(1.98058 0.000726872 0)
(1.9836 0.000425097 0)
(1.98475 0.000234064 0)
(1.98052 0.00086018 0)
(1.97321 0.00193778 0)
(1.97201 0.00247359 0)
(1.97428 0.00258589 0)
(1.97701 0.00265392 0)
(1.98053 0.0027218 0)
(1.98606 0.00260393 0)
(1.99055 0.00187694 0)
(1.99307 0.00124542 0)
(1.99577 0.000956039 0)
(1.99725 0.000690238 0)
(1.99556 0.00082636 0)
(1.99221 0.00157682 0)
(1.99012 0.00238077 0)
(1.98987 0.00277354 0)
(1.99079 0.00317939 0)
(1.99178 0.00337861 0)
(1.99267 0.00229938 0)
(1.99429 0.000247829 0)
(1.99647 -0.000832502 0)
(1.99767 -0.000349523 0)
(1.996 0.000502846 0)
(1.99267 0.00101609 0)
(1.99049 0.00222532 0)
(1.99036 0.00322486 0)
(1.99316 0.00290515 0)
(1.99881 0.00286525 0)
(2.00528 0.00359995 0)
(2.01089 0.00305606 0)
(2.01132 0.000230156 0)
(2.00546 -0.00176302 0)
(2.00024 -0.00146505 0)
(1.99867 -9.05058e-05 0)
(1.99947 0.00125092 0)
(2.00033 0.00209447 0)
(2.00097 0.00245964 0)
(2.00242 0.00239981 0)
(2.00367 0.0029808 0)
(2.00247 0.00424176 0)
(1.99914 0.00505985 0)
(1.99565 0.00537637 0)
(1.99164 0.00587732 0)
(1.99002 0.00523805 0)
(1.98559 0.00416793 0)
(1.98249 0.0040185 0)
(1.98003 0.00403916 0)
(1.97645 0.00489867 0)
(1.96831 0.00625264 0)
(1.09167 -0.00982859 0)
(1.1011 -0.0139955 0)
(1.10782 -0.0169381 0)
(1.11448 -0.0179995 0)
(1.12292 -0.0168927 0)
(1.13434 -0.0131885 0)
(1.1472 -0.00841302 0)
(1.15916 -0.0073327 0)
(1.17097 -0.00834731 0)
(1.18115 -0.00852424 0)
(1.18845 -0.00481553 0)
(1.1922 0.000152079 0)
(1.1938 0.00239203 0)
(1.19419 0.00387067 0)
(1.19352 0.00607983 0)
(1.19225 0.00838932 0)
(1.19054 0.0100441 0)
(1.18822 0.0110534 0)
(1.18578 0.0114935 0)
(1.18219 0.012077 0)
(1.17885 0.0126304 0)
(1.17481 0.0132601 0)
(1.16883 0.014024 0)
(1.16204 0.0149772 0)
(1.15384 0.0152654 0)
(1.14377 0.0146135 0)
(1.1315 0.0135545 0)
(1.11633 0.0130263 0)
(1.09858 0.0138218 0)
(1.08108 0.0159954 0)
(1.06917 0.0186091 0)
(1.06314 0.0202482 0)
(1.05939 0.0205796 0)
(1.05647 0.0198807 0)
(1.0552 0.0171334 0)
(1.05424 0.0127858 0)
(1.05143 0.00835474 0)
(1.04567 0.00332174 0)
(1.03415 -0.00191159 0)
(1.02283 -0.00533025 0)
(1.02247 -0.00672602 0)
(1.02785 -0.00833824 0)
(1.04093 -0.0105348 0)
(1.06407 -0.0141735 0)
(1.09679 -0.0195198 0)
(1.13601 -0.0265382 0)
(1.17568 -0.0352907 0)
(1.21145 -0.0440387 0)
(1.24215 -0.0512376 0)
(1.26804 -0.0554803 0)
(1.28955 -0.0566302 0)
(1.30758 -0.0531727 0)
(1.32358 -0.0452766 0)
(1.33935 -0.0338366 0)
(1.35587 -0.0214318 0)
(1.37369 -0.0110439 0)
(1.39251 -0.00503274 0)
(1.41517 -0.00448211 0)
(1.44262 -0.00899094 0)
(1.46202 -0.0152559 0)
(1.46997 -0.0196728 0)
(1.47559 -0.0233726 0)
(1.47912 -0.0258556 0)
(1.47966 -0.0240089 0)
(1.48011 -0.0179157 0)
(1.48448 -0.0113889 0)
(1.49149 -0.00425736 0)
(1.50099 0.00283602 0)
(1.51084 0.00789065 0)
(1.51575 0.0100769 0)
(1.51911 0.0107004 0)
(1.52161 0.0102543 0)
(1.52422 0.00863246 0)
(1.52772 0.00617795 0)
(1.53199 0.0027317 0)
(1.53639 -0.00186882 0)
(1.5402 -0.00783654 0)
(1.54325 -0.0133537 0)
(1.54555 -0.0158653 0)
(1.54787 -0.0139544 0)
(1.55002 -0.00884949 0)
(1.55259 -0.00258047 0)
(1.55573 0.00405146 0)
(1.55916 0.0101158 0)
(1.56161 0.0137234 0)
(1.56307 0.0139152 0)
(1.56444 0.0113062 0)
(1.56576 0.00690232 0)
(1.56676 0.000294285 0)
(1.56786 -0.0065454 0)
(1.56992 -0.00933116 0)
(1.5729 -0.00849406 0)
(1.5769 -0.00491381 0)
(1.58179 -0.0008517 0)
(1.58583 0.000387891 0)
(1.58927 -0.00242885 0)
(1.59446 -0.00780089 0)
(1.59953 -0.0110198 0)
(1.60338 -0.0119324 0)
(1.60737 -0.0109441 0)
(1.61172 -0.00726082 0)
(1.61592 -0.00210555 0)
(1.61953 0.00333117 0)
(1.62263 0.00799273 0)
(1.6254 0.0106154 0)
(1.62854 0.0106963 0)
(1.63168 0.00853286 0)
(1.63496 0.00505672 0)
(1.63851 -2.46269e-05 0)
(1.64255 -0.00695922 0)
(1.64753 -0.0114803 0)
(1.65226 -0.0108701 0)
(1.65724 -0.00588107 0)
(1.66056 0.000946601 0)
(1.66216 0.00761204 0)
(1.66206 0.0124844 0)
(1.6612 0.01382 0)
(1.65965 0.0113403 0)
(1.65662 0.00635172 0)
(1.65387 -0.000699823 0)
(1.65508 -0.00816539 0)
(1.65992 -0.0140223 0)
(1.66599 -0.0165511 0)
(1.6727 -0.0145627 0)
(1.6808 -0.00987393 0)
(1.69287 -0.0048772 0)
(1.70615 -0.00150439 0)
(1.71373 -8.80335e-05 0)
(1.71746 -2.67471e-06 0)
(1.71938 -0.000554953 0)
(1.71906 -0.00107726 0)
(1.71679 -0.00104903 0)
(1.70852 0.0018617 0)
(1.69367 0.00823039 0)
(1.68356 0.0121401 0)
(1.68092 0.0125521 0)
(1.68013 0.0117323 0)
(1.68254 0.00919664 0)
(1.68767 0.00450085 0)
(1.69528 -0.00182086 0)
(1.70548 -0.00522717 0)
(1.71638 -0.00408747 0)
(1.72158 -0.0015473 0)
(1.72333 0.000423816 0)
(1.72398 0.00313397 0)
(1.72244 0.00475246 0)
(1.71892 0.004074 0)
(1.71731 0.00136664 0)
(1.71863 -0.00248557 0)
(1.72104 -0.00763121 0)
(1.72549 -0.0122509 0)
(1.73159 -0.0133368 0)
(1.73896 -0.0099025 0)
(1.74694 -0.00313359 0)
(1.75436 0.00399968 0)
(1.76028 0.00812835 0)
(1.76451 0.00873295 0)
(1.76768 0.00732367 0)
(1.76967 0.00449544 0)
(1.77067 0.000512417 0)
(1.77047 -0.00306137 0)
(1.77004 -0.00391688 0)
(1.76973 -0.00339121 0)
(1.77033 -0.00308832 0)
(1.77247 -0.00327169 0)
(1.77585 -0.00404487 0)
(1.78072 -0.00522363 0)
(1.78663 -0.00636569 0)
(1.7943 -0.00834154 0)
(1.80506 -0.0106502 0)
(1.82007 -0.0121599 0)
(1.83811 -0.0131043 0)
(1.85187 -0.0136226 0)
(1.85754 -0.0128712 0)
(1.86251 -0.0115593 0)
(1.86707 -0.00941636 0)
(1.87128 -0.00651857 0)
(1.87578 -0.00333034 0)
(1.88096 -0.000873825 0)
(1.88676 0.000399283 0)
(1.89571 -0.000362171 0)
(1.9085 -0.00402224 0)
(1.91753 -0.00702502 0)
(1.92212 -0.00835049 0)
(1.92656 -0.00909233 0)
(1.92973 -0.00795846 0)
(1.93028 -0.00414909 0)
(1.92999 0.000137166 0)
(1.93186 0.00225493 0)
(1.93506 0.00276725 0)
(1.93851 0.00250521 0)
(1.94254 0.00132621 0)
(1.94634 -0.000614095 0)
(1.94955 -0.00314208 0)
(1.95268 -0.00562039 0)
(1.95598 -0.0062087 0)
(1.9595 -0.0046177 0)
(1.96326 -0.00169109 0)
(1.96739 0.00137847 0)
(1.97141 0.00408227 0)
(1.97471 0.00510355 0)
(1.97789 0.00492911 0)
(1.98094 0.00365712 0)
(1.98358 0.00174972 0)
(1.98474 -0.000867737 0)
(1.98304 -0.00204569 0)
(1.97821 0.000994741 0)
(1.97506 0.00511502 0)
(1.97594 0.00709444 0)
(1.97836 0.00767366 0)
(1.9812 0.00812666 0)
(1.9853 0.007802 0)
(1.98924 0.00646473 0)
(1.99257 0.00496046 0)
(1.99546 0.00299836 0)
(1.99757 0.000437564 0)
(1.99822 -0.00132214 0)
(1.997 0.000173271 0)
(1.99479 0.00391978 0)
(1.99258 0.00722146 0)
(1.99139 0.00879174 0)
(1.99118 0.00875345 0)
(1.99209 0.00686485 0)
(1.99382 0.00366516 0)
(1.99587 0.00029473 0)
(1.99792 -0.00334169 0)
(1.99941 -0.00627604 0)
(2.00015 -0.00707015 0)
(2.00061 -0.00468571 0)
(2.00126 0.000776143 0)
(2.00219 0.00556491 0)
(2.0045 0.00959078 0)
(2.00767 0.0130698 0)
(2.00919 0.0121985 0)
(2.00501 0.00615807 0)
(2.00021 -0.000920608 0)
(1.99937 -0.00476369 0)
(2.00083 -0.00488701 0)
(2.00222 -0.00244908 0)
(2.0025 0.0023279 0)
(2.00292 0.00559572 0)
(2.0033 0.00691018 0)
(2.00374 0.00795538 0)
(2.00322 0.00949291 0)
(2.00108 0.0100957 0)
(1.99715 0.00846316 0)
(1.99264 0.00726127 0)
(1.99181 0.00699363 0)
(1.99052 0.00593136 0)
(1.98693 0.0057905 0)
(1.98442 0.0068883 0)
(1.97997 0.0104382 0)
(1.96987 0.0172856 0)
(1.1491 -0.0261259 0)
(1.15348 -0.0225991 0)
(1.1575 -0.021336 0)
(1.16367 -0.0213948 0)
(1.17198 -0.0214871 0)
(1.18332 -0.0210074 0)
(1.19502 -0.020908 0)
(1.20529 -0.0205791 0)
(1.21425 -0.0193521 0)
(1.21987 -0.0172704 0)
(1.22173 -0.0136259 0)
(1.22061 -0.00669555 0)
(1.2178 0.00143196 0)
(1.21548 0.00793191 0)
(1.21364 0.0140821 0)
(1.21079 0.0198129 0)
(1.20754 0.0245665 0)
(1.20409 0.027231 0)
(1.19977 0.0284172 0)
(1.1956 0.029572 0)
(1.19397 0.0312598 0)
(1.19519 0.0322437 0)
(1.19279 0.032642 0)
(1.18785 0.0327464 0)
(1.18175 0.0325536 0)
(1.17339 0.0315649 0)
(1.16303 0.029501 0)
(1.15069 0.027037 0)
(1.13641 0.0256877 0)
(1.12187 0.0263641 0)
(1.11215 0.0287957 0)
(1.10764 0.0315737 0)
(1.10541 0.0331979 0)
(1.10397 0.0333442 0)
(1.10426 0.0313428 0)
(1.10634 0.0266146 0)
(1.10698 0.0205096 0)
(1.10512 0.0125274 0)
(1.09991 0.00212897 0)
(1.09857 -0.00634925 0)
(1.10336 -0.0135751 0)
(1.11448 -0.0232196 0)
(1.13299 -0.0335364 0)
(1.1591 -0.0439688 0)
(1.19215 -0.0551232 0)
(1.22946 -0.0647254 0)
(1.26602 -0.0721157 0)
(1.29759 -0.0768694 0)
(1.32301 -0.0800322 0)
(1.34384 -0.0828711 0)
(1.36141 -0.0833851 0)
(1.37654 -0.0809316 0)
(1.38963 -0.0749893 0)
(1.40211 -0.0655831 0)
(1.41523 -0.0535172 0)
(1.42943 -0.0407051 0)
(1.4447 -0.028357 0)
(1.46223 -0.0187929 0)
(1.48301 -0.0139045 0)
(1.49555 -0.0130308 0)
(1.50075 -0.0138158 0)
(1.50455 -0.015344 0)
(1.50782 -0.0168097 0)
(1.51018 -0.0179696 0)
(1.51285 -0.0180277 0)
(1.51678 -0.0163562 0)
(1.52292 -0.0123493 0)
(1.53079 -0.00709985 0)
(1.53656 -0.00334286 0)
(1.54098 -0.000794938 0)
(1.54436 0.00246853 0)
(1.54609 0.00612412 0)
(1.54707 0.00915913 0)
(1.54859 0.0104342 0)
(1.55097 0.00968154 0)
(1.5536 0.00702653 0)
(1.55617 0.00324224 0)
(1.55964 -0.000993494 0)
(1.56496 -0.00494632 0)
(1.56973 -0.00778491 0)
(1.57342 -0.0081686 0)
(1.57714 -0.0059639 0)
(1.58118 -0.0011738 0)
(1.58451 0.00455349 0)
(1.58618 0.0101379 0)
(1.58537 0.0149779 0)
(1.58265 0.0169802 0)
(1.58039 0.0149559 0)
(1.57991 0.011266 0)
(1.58168 0.00698369 0)
(1.58715 0.000619163 0)
(1.5943 -0.00392568 0)
(1.60085 -0.00556662 0)
(1.60478 -0.00556543 0)
(1.60782 -0.0052114 0)
(1.61024 -0.00394794 0)
(1.61287 -0.00323979 0)
(1.61616 -0.00438752 0)
(1.62043 -0.00660095 0)
(1.62556 -0.00780087 0)
(1.63062 -0.00757954 0)
(1.63502 -0.00620047 0)
(1.63903 -0.00376687 0)
(1.64273 5.7886e-05 0)
(1.64537 0.00465533 0)
(1.64639 0.00880171 0)
(1.64598 0.011304 0)
(1.64579 0.010968 0)
(1.64721 0.00818234 0)
(1.65029 0.00481504 0)
(1.65671 -0.0003706 0)
(1.66749 -0.00478404 0)
(1.67582 -0.00514256 0)
(1.68001 -0.00341545 0)
(1.68332 -0.000167818 0)
(1.68512 0.00497695 0)
(1.68389 0.0101657 0)
(1.67733 0.0125779 0)
(1.66819 0.0101485 0)
(1.66353 0.00503631 0)
(1.66477 0.000640473 0)
(1.66859 -0.00333546 0)
(1.67668 -0.00891702 0)
(1.68826 -0.0113818 0)
(1.69963 -0.00758819 0)
(1.71021 -0.000883787 0)
(1.71901 0.00450724 0)
(1.72354 0.00765657 0)
(1.72585 0.00957601 0)
(1.72666 0.00981829 0)
(1.72628 0.00842077 0)
(1.72437 0.00613114 0)
(1.72002 0.00517837 0)
(1.71082 0.00763094 0)
(1.70114 0.0122635 0)
(1.69616 0.0146259 0)
(1.69479 0.0150334 0)
(1.69494 0.0142901 0)
(1.69652 0.0114263 0)
(1.70241 0.00645393 0)
(1.71588 -0.00031184 0)
(1.73085 -0.00510493 0)
(1.73871 -0.00624255 0)
(1.74054 -0.00570119 0)
(1.74164 -0.00426218 0)
(1.74059 -0.00186637 0)
(1.73562 0.00052717 0)
(1.73033 0.000882877 0)
(1.72938 -0.00102382 0)
(1.73076 -0.00305866 0)
(1.73498 -0.00686977 0)
(1.74484 -0.0111982 0)
(1.75702 -0.0113178 0)
(1.7679 -0.00668633 0)
(1.77476 -0.000496915 0)
(1.77735 0.00418822 0)
(1.77858 0.00750407 0)
(1.77879 0.00836955 0)
(1.77897 0.00730719 0)
(1.7794 0.0053276 0)
(1.78175 0.00219122 0)
(1.78585 -0.00124398 0)
(1.78771 -0.00351689 0)
(1.7889 -0.00538169 0)
(1.79083 -0.00804994 0)
(1.79393 -0.0112787 0)
(1.7982 -0.0141837 0)
(1.80416 -0.0167648 0)
(1.81197 -0.0186503 0)
(1.82275 -0.0191702 0)
(1.83748 -0.018126 0)
(1.85394 -0.0166642 0)
(1.86574 -0.0160716 0)
(1.87052 -0.0157984 0)
(1.8743 -0.015331 0)
(1.878 -0.0142189 0)
(1.8818 -0.012323 0)
(1.88615 -0.0100147 0)
(1.89119 -0.00758449 0)
(1.89707 -0.00562808 0)
(1.90448 -0.00477985 0)
(1.91465 -0.00603706 0)
(1.92414 -0.00838049 0)
(1.92861 -0.00924 0)
(1.93259 -0.00944044 0)
(1.93579 -0.00944279 0)
(1.93756 -0.00828108 0)
(1.93793 -0.00518773 0)
(1.93904 -0.00167173 0)
(1.94116 0.00073938 0)
(1.94355 0.00203583 0)
(1.94615 0.0019901 0)
(1.9489 0.000647039 0)
(1.95187 -0.00107403 0)
(1.95522 -0.00264805 0)
(1.95986 -0.00386797 0)
(1.9653 -0.00363034 0)
(1.96993 -0.00171701 0)
(1.97401 0.000539608 0)
(1.97761 0.00236453 0)
(1.98076 0.00431092 0)
(1.9829 0.00614467 0)
(1.98405 0.00668176 0)
(1.9847 0.00534538 0)
(1.98468 0.00313149 0)
(1.98431 0.00119762 0)
(1.98335 0.0015553 0)
(1.98192 0.004753 0)
(1.98146 0.00835646 0)
(1.98286 0.010588 0)
(1.98555 0.0116821 0)
(1.98849 0.0119564 0)
(1.99137 0.0114315 0)
(1.99413 0.00983846 0)
(1.99646 0.00768112 0)
(1.99829 0.00526257 0)
(2.00009 0.00313747 0)
(2.00172 0.00289021 0)
(2.00184 0.00546293 0)
(1.99927 0.00970673 0)
(1.99559 0.0128118 0)
(1.9935 0.0131787 0)
(1.99389 0.0109909 0)
(1.99538 0.00780486 0)
(1.99679 0.00514204 0)
(1.99827 0.00301195 0)
(2.00185 -0.00035447 0)
(2.00609 -0.00396674 0)
(2.0094 -0.00589273 0)
(2.0122 -0.00411665 0)
(2.01338 -0.000572827 0)
(2.01312 0.00579996 0)
(2.0125 0.0138703 0)
(2.00813 0.0170574 0)
(1.99984 0.0122523 0)
(1.99775 0.00558427 0)
(1.99995 0.00408165 0)
(2.00326 0.00309543 0)
(2.00608 0.0029032 0)
(2.00655 0.00522433 0)
(2.00577 0.0105919 0)
(2.00533 0.0122782 0)
(2.00427 0.013303 0)
(2.00313 0.0157092 0)
(2.00175 0.0172492 0)
(1.9993 0.0156341 0)
(1.99502 0.0133561 0)
(1.99345 0.0117022 0)
(1.99624 0.0115541 0)
(1.99363 0.0123933 0)
(1.99085 0.0140739 0)
(1.98727 0.017748 0)
(1.97777 0.0262882 0)
(1.24074 -0.03148 0)
(1.24248 -0.026919 0)
(1.24548 -0.0212538 0)
(1.25071 -0.0147931 0)
(1.25808 -0.00896465 0)
(1.26587 -0.00652071 0)
(1.27247 -0.00795796 0)
(1.27786 -0.0127596 0)
(1.28073 -0.0177633 0)
(1.28087 -0.0210961 0)
(1.27825 -0.0231827 0)
(1.27358 -0.0236407 0)
(1.26866 -0.0215134 0)
(1.26473 -0.0179318 0)
(1.2613 -0.0142576 0)
(1.25893 -0.00749271 0)
(1.25555 0.00343628 0)
(1.2518 0.0172373 0)
(1.24832 0.0296748 0)
(1.24539 0.0373621 0)
(1.24361 0.0400045 0)
(1.24403 0.040324 0)
(1.24283 0.0412633 0)
(1.23879 0.0420243 0)
(1.23396 0.0425921 0)
(1.22731 0.0417234 0)
(1.21902 0.0396944 0)
(1.2098 0.037706 0)
(1.19974 0.0359718 0)
(1.19027 0.0352576 0)
(1.18535 0.0359601 0)
(1.18432 0.0368201 0)
(1.18527 0.0371335 0)
(1.18813 0.035888 0)
(1.19367 0.033054 0)
(1.20211 0.0281027 0)
(1.20965 0.0206221 0)
(1.21422 0.0117784 0)
(1.21981 0.00308253 0)
(1.22932 -0.00647007 0)
(1.24302 -0.0198442 0)
(1.26136 -0.0357061 0)
(1.28436 -0.0511724 0)
(1.31164 -0.0641735 0)
(1.34215 -0.073962 0)
(1.37261 -0.0830968 0)
(1.39979 -0.0899662 0)
(1.42179 -0.0923893 0)
(1.43842 -0.0907842 0)
(1.45111 -0.086938 0)
(1.46226 -0.0826603 0)
(1.47274 -0.0774111 0)
(1.48224 -0.0703249 0)
(1.49125 -0.0616296 0)
(1.50029 -0.0516751 0)
(1.50946 -0.0413569 0)
(1.51933 -0.0328899 0)
(1.53047 -0.0268071 0)
(1.54394 -0.022798 0)
(1.55326 -0.0205218 0)
(1.55791 -0.0189257 0)
(1.56164 -0.0159095 0)
(1.56423 -0.0128362 0)
(1.56575 -0.00940046 0)
(1.5675 -0.00595271 0)
(1.57068 -0.00413962 0)
(1.57547 -0.00308766 0)
(1.58112 -0.00370904 0)
(1.58503 -0.00524781 0)
(1.58837 -0.0070448 0)
(1.59072 -0.00870781 0)
(1.59163 -0.00989931 0)
(1.59195 -0.0105152 0)
(1.59337 -0.0105583 0)
(1.59597 -0.00981468 0)
(1.59899 -0.00797936 0)
(1.6024 -0.0048859 0)
(1.60593 -0.000744288 0)
(1.60925 0.0026456 0)
(1.61226 0.00423394 0)
(1.61536 0.00458158 0)
(1.61891 0.00385066 0)
(1.62168 0.00217635 0)
(1.6236 -8.36321e-05 0)
(1.62457 -0.00240285 0)
(1.62413 -0.00351014 0)
(1.6224 -0.00238815 0)
(1.62082 0.000849649 0)
(1.6224 0.00427984 0)
(1.62554 0.00698736 0)
(1.62954 0.00865444 0)
(1.63532 0.00754306 0)
(1.64153 0.0044103 0)
(1.64555 0.000964754 0)
(1.64809 -0.00196906 0)
(1.65052 -0.00376126 0)
(1.65301 -0.00343002 0)
(1.65569 -0.00176287 0)
(1.65887 0.000165937 0)
(1.66259 0.00176634 0)
(1.66633 0.00218874 0)
(1.66934 0.00138095 0)
(1.67206 -0.000515942 0)
(1.6742 -0.00306301 0)
(1.67538 -0.00568899 0)
(1.67552 -0.00783851 0)
(1.67536 -0.00849748 0)
(1.67601 -0.00667653 0)
(1.67873 -0.00286772 0)
(1.68343 0.00166734 0)
(1.68995 0.00711082 0)
(1.69823 0.0102295 0)
(1.70584 0.00947361 0)
(1.71166 0.00687902 0)
(1.7153 0.00398497 0)
(1.71753 0.00110267 0)
(1.71569 -0.00271094 0)
(1.70592 -0.00810303 0)
(1.6963 -0.012774 0)
(1.69508 -0.012892 0)
(1.69766 -0.0106068 0)
(1.70129 -0.00772393 0)
(1.7065 -0.00488392 0)
(1.71609 -0.00303003 0)
(1.72887 -0.000487909 0)
(1.73805 0.00291382 0)
(1.74282 0.00484747 0)
(1.74724 0.00697769 0)
(1.7502 0.0110885 0)
(1.75011 0.0166013 0)
(1.74733 0.0202985 0)
(1.74377 0.0195268 0)
(1.73972 0.015444 0)
(1.7338 0.0104539 0)
(1.72778 0.00725161 0)
(1.7249 0.00631564 0)
(1.72481 0.00641068 0)
(1.7254 0.00717233 0)
(1.72709 0.00886382 0)
(1.73263 0.0106702 0)
(1.74454 0.010355 0)
(1.75906 0.00609057 0)
(1.7685 0.000762426 0)
(1.77078 -0.00310584 0)
(1.77071 -0.00645306 0)
(1.7689 -0.010395 0)
(1.76451 -0.0128582 0)
(1.76012 -0.0118706 0)
(1.75917 -0.00837724 0)
(1.7612 -0.00491082 0)
(1.76487 -0.00185443 0)
(1.77253 0.00068187 0)
(1.78533 0.00125421 0)
(1.79766 0.000772573 0)
(1.80318 -0.00051327 0)
(1.80497 -0.00123497 0)
(1.80647 -0.00132968 0)
(1.8065 0.000453782 0)
(1.80687 0.00357273 0)
(1.8096 0.00583038 0)
(1.8132 0.00705883 0)
(1.81794 0.00575911 0)
(1.82155 0.00190437 0)
(1.82362 -0.00277849 0)
(1.82584 -0.00852361 0)
(1.82928 -0.0148244 0)
(1.8342 -0.0206295 0)
(1.84042 -0.0249771 0)
(1.8481 -0.0271941 0)
(1.85791 -0.0267903 0)
(1.87078 -0.0237791 0)
(1.88436 -0.0194603 0)
(1.89228 -0.0165131 0)
(1.89515 -0.0155295 0)
(1.89826 -0.0142003 0)
(1.90112 -0.0123673 0)
(1.9038 -0.0105024 0)
(1.90717 -0.00977329 0)
(1.91101 -0.0098063 0)
(1.91545 -0.00996276 0)
(1.92087 -0.0100049 0)
(1.92949 -0.00977059 0)
(1.93914 -0.00882627 0)
(1.94313 -0.00803648 0)
(1.94653 -0.00683138 0)
(1.94916 -0.00536882 0)
(1.95068 -0.00424316 0)
(1.95084 -0.00344132 0)
(1.95066 -0.00312878 0)
(1.95157 -0.00331194 0)
(1.95338 -0.00360768 0)
(1.95555 -0.00366084 0)
(1.95816 -0.00323653 0)
(1.96157 -0.00264501 0)
(1.96508 -0.00169279 0)
(1.9694 -0.000480872 0)
(1.97508 0.000368631 0)
(1.97955 0.000590745 0)
(1.9829 0.000405298 0)
(1.98621 0.00028705 0)
(1.9893 0.000477471 0)
(1.99146 0.00133782 0)
(1.99227 0.00281847 0)
(1.99182 0.00450318 0)
(1.99111 0.00592923 0)
(1.99093 0.0067526 0)
(1.99097 0.00704071 0)
(1.99027 0.00742687 0)
(1.98964 0.0082234 0)
(1.9906 0.00914231 0)
(1.99281 0.00996615 0)
(1.99529 0.0107103 0)
(1.99759 0.0111648 0)
(1.99949 0.0110363 0)
(2.00132 0.0103515 0)
(2.00371 0.0097152 0)
(2.00601 0.00933994 0)
(2.00828 0.00920348 0)
(2.00971 0.00960768 0)
(2.0077 0.0111165 0)
(2.00256 0.0128148 0)
(1.99867 0.0127659 0)
(1.99814 0.0109622 0)
(1.99937 0.0089485 0)
(2.00108 0.00789711 0)
(2.00387 0.00781901 0)
(2.00805 0.00748292 0)
(2.01309 0.0059801 0)
(2.01821 0.00308069 0)
(2.02245 0.00096193 0)
(2.02377 0.00133033 0)
(2.02047 0.00364639 0)
(2.01538 0.00675367 0)
(2.00772 0.00748316 0)
(1.99933 0.00467627 0)
(2.00148 0.00298184 0)
(2.00672 0.00345575 0)
(2.012 0.00629544 0)
(2.01473 0.00898832 0)
(2.0146 0.0122765 0)
(2.01093 0.0166018 0)
(2.00831 0.0182841 0)
(2.00743 0.0185193 0)
(2.00687 0.0204263 0)
(2.00708 0.0223986 0)
(2.00561 0.0204166 0)
(2.00218 0.0180404 0)
(2.00089 0.015712 0)
(2.00539 0.0158645 0)
(2.00483 0.0179611 0)
(2.0017 0.0202683 0)
(1.99876 0.0229934 0)
(1.9903 0.0310497 0)
(1.34666 -0.0359671 0)
(1.34683 -0.0326917 0)
(1.35087 -0.0284991 0)
(1.35767 -0.0219831 0)
(1.36462 -0.0154711 0)
(1.36912 -0.0127079 0)
(1.3718 -0.0112852 0)
(1.37227 -0.011174 0)
(1.37035 -0.012076 0)
(1.36652 -0.0126791 0)
(1.36137 -0.0122539 0)
(1.35556 -0.0103605 0)
(1.3501 -0.00637995 0)
(1.34536 -0.00113152 0)
(1.34043 0.00449328 0)
(1.33575 0.00906403 0)
(1.33184 0.0113694 0)
(1.3294 0.0155471 0)
(1.32982 0.0230907 0)
(1.32938 0.0337078 0)
(1.32892 0.0451385 0)
(1.32656 0.0534601 0)
(1.32335 0.0554858 0)
(1.32044 0.0550973 0)
(1.31719 0.053903 0)
(1.3128 0.0521515 0)
(1.30706 0.0493314 0)
(1.30078 0.0455603 0)
(1.29489 0.0417905 0)
(1.29211 0.0397381 0)
(1.29296 0.0402165 0)
(1.29613 0.0398257 0)
(1.30191 0.0376372 0)
(1.31023 0.0342038 0)
(1.32152 0.0294402 0)
(1.3353 0.0220129 0)
(1.34883 0.0117102 0)
(1.36161 0.000493263 0)
(1.37621 -0.0115017 0)
(1.39369 -0.0256991 0)
(1.41365 -0.0416318 0)
(1.43498 -0.0584251 0)
(1.45717 -0.0756073 0)
(1.48 -0.0926939 0)
(1.50248 -0.107569 0)
(1.52276 -0.116934 0)
(1.5384 -0.119613 0)
(1.54874 -0.11732 0)
(1.55495 -0.11213 0)
(1.55915 -0.105692 0)
(1.5632 -0.0987558 0)
(1.56758 -0.0915111 0)
(1.57236 -0.0838056 0)
(1.57779 -0.0752639 0)
(1.58434 -0.0656095 0)
(1.59094 -0.0544607 0)
(1.59664 -0.0430672 0)
(1.60344 -0.0338811 0)
(1.61189 -0.027435 0)
(1.61952 -0.0227412 0)
(1.62406 -0.0191377 0)
(1.62783 -0.0159048 0)
(1.63106 -0.0123251 0)
(1.63367 -0.00809244 0)
(1.6355 -0.00383112 0)
(1.63727 -0.00113198 0)
(1.6409 -0.000430395 0)
(1.64478 -0.00108119 0)
(1.6484 -0.00244835 0)
(1.65151 -0.00321272 0)
(1.65382 -0.00362318 0)
(1.65502 -0.00337962 0)
(1.65545 -0.00226597 0)
(1.65617 -0.000941313 0)
(1.65801 -0.000289073 0)
(1.6606 -0.000193925 0)
(1.66374 2.31142e-05 0)
(1.66727 0.000805919 0)
(1.67027 0.00222359 0)
(1.6732 0.00440838 0)
(1.67597 0.0068383 0)
(1.67822 0.00848931 0)
(1.67961 0.00878911 0)
(1.68019 0.00742149 0)
(1.68042 0.00463916 0)
(1.68054 0.00170556 0)
(1.68091 0.000415488 0)
(1.68233 0.00151179 0)
(1.68445 0.00410688 0)
(1.68708 0.00725584 0)
(1.69068 0.0102966 0)
(1.69457 0.011629 0)
(1.69694 0.00999068 0)
(1.6988 0.0038576 0)
(1.70094 -0.00282025 0)
(1.70408 -0.00689281 0)
(1.70797 -0.00842425 0)
(1.71188 -0.00713183 0)
(1.71535 -0.00371106 0)
(1.71811 0.000105549 0)
(1.72 0.00345115 0)
(1.72077 0.00609884 0)
(1.72067 0.00700999 0)
(1.72035 0.00589268 0)
(1.72028 0.00332713 0)
(1.72052 0.00028153 0)
(1.72181 -0.00198338 0)
(1.72487 -0.00256798 0)
(1.72865 -0.00172613 0)
(1.73422 0.00111456 0)
(1.74167 0.00538455 0)
(1.74853 0.00873491 0)
(1.75398 0.00996899 0)
(1.75829 0.00956747 0)
(1.76168 0.00838416 0)
(1.7638 0.00537282 0)
(1.76051 4.97555e-05 0)
(1.7495 -0.00550795 0)
(1.74246 -0.00808006 0)
(1.74337 -0.00803956 0)
(1.74516 -0.0070515 0)
(1.74729 -0.00528937 0)
(1.75074 -0.00314594 0)
(1.75807 -0.00106198 0)
(1.76923 5.24895e-05 0)
(1.77521 0.000212305 0)
(1.77911 0.00021778 0)
(1.78316 0.00154922 0)
(1.78678 0.0052716 0)
(1.78895 0.0114348 0)
(1.78811 0.0192819 0)
(1.78384 0.0261046 0)
(1.77595 0.0273583 0)
(1.7691 0.0218317 0)
(1.76707 0.0151793 0)
(1.76761 0.0103095 0)
(1.76925 0.00580794 0)
(1.77215 0.00186269 0)
(1.77718 -7.87558e-05 0)
(1.78548 0.000914975 0)
(1.79679 0.00358139 0)
(1.80772 0.00442141 0)
(1.81326 0.00211509 0)
(1.81425 -0.000418271 0)
(1.81372 -0.00461299 0)
(1.81096 -0.0093521 0)
(1.80708 -0.0127025 0)
(1.80512 -0.0133136 0)
(1.80599 -0.0119457 0)
(1.8081 -0.00929897 0)
(1.81241 -0.00451367 0)
(1.82047 0.00254298 0)
(1.83093 0.00778391 0)
(1.83884 0.00715178 0)
(1.84253 0.0035605 0)
(1.84486 -0.00062642 0)
(1.84691 -0.0044784 0)
(1.84957 -0.00644603 0)
(1.85302 -0.00623415 0)
(1.85729 -0.00337157 0)
(1.86227 0.000575521 0)
(1.86641 0.00238177 0)
(1.86928 0.00183414 0)
(1.8717 -0.00208121 0)
(1.87393 -0.00900255 0)
(1.87699 -0.0166877 0)
(1.88119 -0.0235029 0)
(1.88686 -0.0283105 0)
(1.89355 -0.0300365 0)
(1.90204 -0.0283619 0)
(1.91291 -0.0245125 0)
(1.92274 -0.0215422 0)
(1.92665 -0.0209995 0)
(1.92855 -0.0207837 0)
(1.93057 -0.0195852 0)
(1.93212 -0.0176676 0)
(1.93294 -0.0156253 0)
(1.93367 -0.0141285 0)
(1.93584 -0.0132634 0)
(1.93888 -0.0127107 0)
(1.94267 -0.011879 0)
(1.95058 -0.0106062 0)
(1.96007 -0.00932476 0)
(1.96373 -0.00885604 0)
(1.96669 -0.00824933 0)
(1.96916 -0.00684491 0)
(1.97031 -0.0049442 0)
(1.96929 -0.0033952 0)
(1.96749 -0.00294051 0)
(1.96744 -0.00317068 0)
(1.96895 -0.00348924 0)
(1.97135 -0.00360173 0)
(1.97424 -0.00337796 0)
(1.97723 -0.00232437 0)
(1.98088 -0.000171927 0)
(1.98551 0.00254305 0)
(1.98948 0.00426839 0)
(1.99267 0.00455624 0)
(1.99577 0.00445838 0)
(1.99875 0.00415832 0)
(2.00144 0.00363918 0)
(2.0035 0.003062 0)
(2.00462 0.00310078 0)
(2.00499 0.00461498 0)
(2.00504 0.00754169 0)
(2.00462 0.0105957 0)
(2.00335 0.0124985 0)
(2.00143 0.0126913 0)
(2.0004 0.0116931 0)
(2.00121 0.0105696 0)
(2.00325 0.0097325 0)
(2.00566 0.00929812 0)
(2.00805 0.00940165 0)
(2.01043 0.0101531 0)
(2.01294 0.0113425 0)
(2.01543 0.0123723 0)
(2.01775 0.0131516 0)
(2.0197 0.0139973 0)
(2.0203 0.0144739 0)
(2.01744 0.0138782 0)
(2.01175 0.0129708 0)
(2.00782 0.0119287 0)
(2.00739 0.0105923 0)
(2.00914 0.00990263 0)
(2.01192 0.0103943 0)
(2.01547 0.0113785 0)
(2.01978 0.0119423 0)
(2.02478 0.011598 0)
(2.02984 0.0104046 0)
(2.03371 0.00865178 0)
(2.03426 0.00767579 0)
(2.02959 0.00652548 0)
(2.0212 0.00241558 0)
(2.01146 -0.00144172 0)
(2.00639 0.00086656 0)
(2.01121 0.00542142 0)
(2.0179 0.00834726 0)
(2.02343 0.0121127 0)
(2.02726 0.0168657 0)
(2.02709 0.0222635 0)
(2.0197 0.0250893 0)
(2.01399 0.0241248 0)
(2.01412 0.0235697 0)
(2.01473 0.0227781 0)
(2.01589 0.0224393 0)
(2.01578 0.0249751 0)
(2.01372 0.0247911 0)
(2.01299 0.0230951 0)
(2.01797 0.0228043 0)
(2.01737 0.0231605 0)
(2.01345 0.0237533 0)
(2.01036 0.024412 0)
(2.00302 0.0315933 0)
(1.4464 -0.0381773 0)
(1.44753 -0.0309696 0)
(1.45204 -0.0243378 0)
(1.45988 -0.0172684 0)
(1.46554 -0.0126546 0)
(1.46873 -0.0110055 0)
(1.46926 -0.00964047 0)
(1.46705 -0.00808541 0)
(1.46299 -0.00584914 0)