/*--------------------------------*- C++ -*----------------------------------*\
  =========                 |
  \\      /  F ield         | OpenFOAM: The Open Source CFD Toolbox
   \\    /   O peration     | Website:  https://openfoam.org
    \\  /    A nd           | Version:  7
     \\/     M anipulation  |
\*---------------------------------------------------------------------------*/
FoamFile
{
    version     2.0;
    format      ascii;
    class       volScalarField;
    location    "1.8";
    object      p;
}
// * * * * * * * * * * * * * * * * * * * * * * * * * * * * * * * * * * * * * //

dimensions      [1 -1 -2 0 0 0 0];

internalField   nonuniform List<scalar> 
16512
(
3.15606
3.15812
3.1543
3.14458
3.13309
3.12002
3.10578
3.08868
3.06092
3.00495
2.92298
2.87564
2.86633
2.85587
2.84521
2.83544
2.82507
2.81282
2.79684
2.773
2.72982
2.67969
2.66275
2.65422
2.64537
2.63474
2.62372
2.61237
2.59814
2.5771
2.53863
2.47221
2.43621
2.42976
2.42027
2.40701
2.39818
2.39169
2.38551
2.37743
2.36693
2.35417
2.33613
2.30358
2.25127
2.21725
2.20827
2.20064
2.1893
2.17837
2.16847
2.15718
2.14357
2.12364
2.08985
2.06548
2.06025
2.05593
2.05181
2.04596
2.03817
2.02855
2.01532
1.99275
1.9539
1.90661
1.87937
1.87554
1.87777
1.89351
1.91319
1.91594
1.91009
1.90237
1.88681
1.85553
1.79972
1.74121
1.71411
1.70633
1.70473
1.71073
1.73217
1.75804
1.76771
1.76409
1.75683
1.74193
1.71159
1.66294
1.61429
1.59118
1.58403
1.58279
1.58765
1.60456
1.622
1.6241
1.62039
1.61406
1.59682
1.56304
1.51575
1.4823
1.46984
1.4669
1.4697
1.48679
1.51294
1.52209
1.51927
1.51409
1.50085
1.4701
1.41908
1.38216
1.37208
1.37069
1.37416
1.39272
1.42055
1.43036
1.42703
1.4197
1.40289
1.36612
1.31336
1.28674
1.28337
1.28346
1.29348
1.32142
1.34504
1.3466
1.34253
1.33305
1.30899
1.26158
1.22022
1.20936
1.2085
1.2119
1.23151
1.26368
1.27629
1.27409
1.26867
1.25504
1.22268
1.17612
1.15368
1.15085
1.15072
1.15903
1.18306
1.20351
1.20467
1.20193
1.19548
1.17666
1.1399
1.11129
1.10571
1.10435
1.10559
1.11671
1.13142
1.13365
1.13112
1.12721
1.11782
1.09512
1.06763
1.05831
1.05711
1.05626
1.06045
1.07584
1.0878
1.11439
1.28041
1.67054
1.9903
2.28384
2.32896
2.37339
2.40029
2.41686
2.41291
2.39325
2.37735
2.3522
2.30596
2.26756
2.25667
2.25285
2.26744
2.28806
2.28614
2.2761
2.25218
2.21205
2.18212
2.17176
2.16499
2.16744
2.18559
2.19798
2.19067
2.17363
2.1429
2.10613
2.08798
2.0823
2.08023
2.0887
2.10019
2.09661
2.08736
2.07174
2.04552
2.025
2.0174
2.0114
2.00789
2.00935
2.00873
2.00895
2.02771
2.09129
2.22163
2.38122
2.482
2.55348
2.58975
2.58522
2.57117
2.54983
2.51606
2.49033
2.48047
2.4753
2.47645
2.4787
2.47118
2.46015
2.4438
2.41654
2.39359
2.38242
2.37427
2.37306
2.38275
2.38323
2.37131
2.35475
2.33253
2.31455
3.20027
3.19847
3.18969
3.17886
3.16542
3.14963
3.13144
3.10584
3.05706
2.97819
2.91407
2.89885
2.89094
2.88199
2.87262
2.86364
2.8539
2.84167
2.82346
2.79197
2.737
2.69881
2.68822
2.67971
2.66913
2.6572
2.6449
2.63136
2.61404
2.58832
2.54218
2.47988
2.45795
2.45189
2.44178
2.42922
2.42046
2.41378
2.40765
2.39977
2.38935
2.3759
2.35439
2.30917
2.253
2.22884
2.22093
2.21536
2.2065
2.19518
2.1848
2.17344
2.15908
2.14058
2.11643
2.09254
2.08069
2.07403
2.06712
2.05917
2.04974
2.03736
2.01845
1.98647
1.94396
1.91487
1.91028
1.91144
1.92377
1.93895
1.93926
1.93315
1.92531
1.90997
1.8795
1.82409
1.7658
1.73922
1.73274
1.73166
1.73996
1.76434
1.78887
1.79466
1.79023
1.783
1.76747
1.73531
1.68234
1.63264
1.61085
1.60508
1.60429
1.61147
1.63137
1.64923
1.65061
1.64695
1.63988
1.62058
1.58326
1.53262
1.50034
1.48893
1.48589
1.48899
1.50693
1.53435
1.54444
1.54156
1.53604
1.52244
1.49148
1.43956
1.40072
1.38959
1.38815
1.39096
1.40839
1.43675
1.4489
1.44612
1.43928
1.424
1.39021
1.33679
1.30517
1.29981
1.2995
1.30738
1.33354
1.35971
1.36305
1.35934
1.35123
1.33013
1.28616
1.24011
1.22489
1.22354
1.22562
1.24196
1.2739
1.29076
1.28945
1.2847
1.27331
1.24529
1.19846
1.16955
1.16453
1.16385
1.1696
1.19111
1.21579
1.22016
1.21769
1.21246
1.19718
1.16351
1.12803
1.11774
1.11631
1.11637
1.12466
1.14139
1.14744
1.14547
1.14195
1.13503
1.11627
1.08673
1.07059
1.06884
1.06784
1.06907
1.08171
1.10284
1.15577
1.33769
1.83901
2.17728
2.34283
2.39935
2.37277
2.3854
2.42138
2.43318
2.42934
2.40388
2.37343
2.3448
2.30946
2.28228
2.27235
2.2758
2.29911
2.30755
2.29976
2.27812
2.23482
2.1986
2.18799
2.18274
2.18542
2.20445
2.22052
2.21524
2.19898
2.17175
2.1336
2.10807
2.10042
2.097
2.10287
2.1172
2.11704
2.10877
2.0956
2.07201
2.04583
2.03487
2.02863
2.02415
2.02304
2.02431
2.02823
2.0488
2.11763
2.24917
2.40402
2.51522
2.57144
2.60367
2.60843
2.59893
2.5798
2.55239
2.51875
2.50124
2.49448
2.49194
2.49851
2.49634
2.48447
2.46922
2.44638
2.42139
2.40772
2.39879
2.39447
2.40175
2.40803
2.39818
2.38132
2.35832
2.33595
2.32491
3.24365
3.23577
3.2257
3.21273
3.19583
3.17532
3.14956
3.10716
3.03659
2.96038
2.93306
2.925
2.91776
2.91136
2.90324
2.89498
2.88566
2.8731
2.8513
2.80273
2.74182
2.72061
2.71224
2.70249
2.69072
2.67835
2.66489
2.64902
2.62864
2.59829
2.54688
2.49363
2.47939
2.4729
2.46219
2.45109
2.44336
2.43707
2.43102
2.4233
2.41278
2.39675
2.36205
2.30072
2.25597
2.24395
2.23737
2.23255
2.22644
2.21681
2.20674
2.19645
2.18411
2.16675
2.14057
2.11066
2.09554
2.08749
2.08016
2.07164
2.06092
2.04555
2.01993
1.98163
1.95156
1.94606
1.94569
1.95302
1.96234
1.96099
1.955
1.9471
1.93239
1.90348
1.85071
1.79319
1.76602
1.7604
1.75977
1.77033
1.79672
1.81822
1.81975
1.81489
1.80785
1.79234
1.75934
1.70357
1.65226
1.63116
1.62611
1.62582
1.63562
1.65872
1.67697
1.67761
1.67369
1.6658
1.64492
1.60434
1.55022
1.51863
1.50815
1.50518
1.50863
1.5276
1.55653
1.56778
1.56484
1.5588
1.54471
1.51343
1.46021
1.41899
1.40709
1.40562
1.4079
1.42438
1.45331
1.46746
1.46528
1.45899
1.44502
1.41364
1.36062
1.32419
1.31636
1.3158
1.32176
1.34588
1.37413
1.37972
1.37643
1.36947
1.35061
1.30994
1.26102
1.24125
1.23918
1.24027
1.25367
1.2842
1.30496
1.30486
1.30068
1.29096
1.26665
1.22142
1.18642
1.17828
1.1773
1.18104
1.19961
1.22684
1.23544
1.23342
1.229
1.2168
1.18711
1.14709
1.13049
1.12852
1.12792
1.13347
1.1501
1.16064
1.15959
1.15637
1.15094
1.13607
1.1076
1.08474
1.08056
1.07962
1.07976
1.08982
1.11917
1.22795
1.4856
1.91821
2.33508
2.41557
2.42865
2.40136
2.38102
2.39232
2.42533
2.44215
2.43813
2.41315
2.37156
2.33216
2.31542
2.30862
2.30962
2.32659
2.33664
2.32695
2.30509
2.264
2.21709
2.19934
2.19466
2.19805
2.21967
2.24146
2.24024
2.22584
2.20088
2.16283
2.1324
2.12298
2.11806
2.11971
2.13275
2.13672
2.12981
2.11933
2.1002
2.07227
2.05607
2.04892
2.04285
2.03974
2.0395
2.04432
2.06714
2.13321
2.27383
2.44367
2.53271
2.58476
2.61924
2.63338
2.63021
2.6138
2.58336
2.55053
2.52768
2.51834
2.51385
2.51883
2.52333
2.51366
2.49832
2.47376
2.44261
2.42703
2.41833
2.41269
2.41713
2.42804
2.42413
2.41079
2.39055
2.36442
2.34856
2.33936
3.28411
3.27442
3.26215
3.24447
3.22029
3.19204
3.15506
3.095
3.01502
2.97117
2.96169
2.95348
2.9489
2.9442
2.93648
2.92796
2.91765
2.90204
2.86506
2.79692
2.75296
2.74211
2.73443
2.72383
2.7117
2.69957
2.68588
2.66908
2.64679
2.61092
2.55105
2.50901
2.5
2.49258
2.48225
2.47379
2.46756
2.46166
2.45532
2.44738
2.43541
2.41022
2.35455
2.29123
2.26917
2.26262
2.2582
2.25481
2.24988
2.24334
2.23498
2.22584
2.2138
2.1887
2.14794
2.12032
2.1086
2.10017
2.09209
2.08333
2.07196
2.0533
2.02064
1.98921
1.98256
1.98098
1.98276
1.9852
1.98197
1.97606
1.96805
1.95418
1.92741
1.87915
1.82335
1.79463
1.78928
1.78916
1.8014
1.82818
1.8453
1.84351
1.83832
1.83136
1.81617
1.78351
1.72652
1.67376
1.6524
1.64766
1.6479
1.66
1.68605
1.70453
1.70442
1.70007
1.69135
1.66936
1.6265
1.56926
1.53743
1.52765
1.52488
1.52869
1.54878
1.57938
1.59163
1.58852
1.58201
1.56746
1.53589
1.48141
1.43774
1.42491
1.42336
1.42523
1.44092
1.47032
1.48616
1.48456
1.47862
1.46569
1.43628
1.38396
1.34326
1.33295
1.3321
1.33666
1.35868
1.38853
1.39652
1.39352
1.38722
1.3704
1.33295
1.28224
1.25834
1.25529
1.25564
1.26661
1.29537
1.31895
1.32018
1.31649
1.30837
1.28715
1.24451
1.20432
1.19229
1.1909
1.1932
1.20872
1.2369
1.25023
1.24894
1.24509
1.23532
1.21005
1.16832
1.14453
1.14126
1.14019
1.14344
1.15837
1.17283
1.17361
1.17054
1.16606
1.15469
1.12906
1.10118
1.09263
1.09118
1.09085
1.10036
1.13962
1.29892
1.70254
2.10412
2.42255
2.46775
2.43417
2.44611
2.44447
2.44392
2.46234
2.47655
2.47409
2.45528
2.40931
2.35154
2.3254
2.3165
2.32132
2.34766
2.36379
2.356
2.33376
2.29318
2.24486
2.22292
2.21839
2.22016
2.23853
2.26228
2.26463
2.25201
2.22883
2.19178
2.15544
2.14209
2.13601
2.1348
2.14539
2.15465
2.14925
2.13965
2.12478
2.0994
2.07771
2.06919
2.06347
2.05994
2.05947
2.06478
2.08891
2.15817
2.29032
2.474
2.56028
2.60709
2.64509
2.65958
2.65467
2.64082
2.61384
2.57336
2.54984
2.54147
2.53756
2.54215
2.54833
2.54097
2.52627
2.50348
2.46996
2.44545
2.43545
2.42857
2.4299
2.44244
2.4455
2.434
2.4169
2.39389
2.37362
2.36345
2.35563
3.32667
3.31433
3.29526
3.2656
3.23298
3.19911
3.1503
3.07588
3.01545
3.00137
2.99248
2.98628
2.98404
2.97856
2.96999
2.96002
2.9466
2.91911
2.85616
2.79117
2.7711
2.76284
2.75601
2.74565
2.73403
2.72259
2.7094
2.69283
2.66778
2.61667
2.55109
2.5269
2.51988
2.51195
2.50407
2.49822
2.49301
2.48709
2.48005
2.47079
2.45345
2.40871
2.33775
2.29717
2.28961
2.28511
2.28397
2.28228
2.27768
2.27245
2.26507
2.25475
2.23145
2.18504
2.14703
2.13151
2.12237
2.11399
2.10495
2.09511
2.08275
2.06255
2.03102
2.01826
2.01547
2.01262
2.00908
2.00332
1.99652
1.98829
1.97566
1.95151
1.90881
1.85591
1.82523
1.8196
1.81964
1.83226
1.85783
1.87023
1.86636
1.86101
1.85402
1.83922
1.80758
1.75112
1.69703
1.67471
1.67007
1.67084
1.6849
1.71324
1.73116
1.73018
1.7254
1.71613
1.69391
1.65014
1.59021
1.55685
1.54755
1.54519
1.54945
1.57054
1.60233
1.61544
1.61218
1.60513
1.5903
1.5587
1.50316
1.4571
1.44329
1.44162
1.44331
1.45833
1.48815
1.50544
1.50423
1.4987
1.48659
1.45836
1.40668
1.36268
1.34991
1.3486
1.35198
1.37202
1.40287
1.41365
1.4111
1.40535
1.39004
1.35509
1.30387
1.27611
1.27151
1.27146
1.28038
1.30714
1.33293
1.33587
1.33227
1.32523
1.30662
1.26725
1.22323
1.20674
1.20468
1.20587
1.21852
1.24629
1.26436
1.26416
1.2608
1.25284
1.23167
1.19111
1.16026
1.15424
1.15306
1.15462
1.16709
1.1842
1.18748
1.1847
1.18059
1.17187
1.14985
1.11919
1.10508
1.10302
1.10289
1.11336
1.18125
1.3762
1.86072
2.29415
2.49254
2.51883
2.46063
2.42503
2.44362
2.48403
2.51281
2.50777
2.49141
2.47041
2.44025
2.39672
2.35529
2.34301
2.34356
2.36479
2.38713
2.38258
2.36273
2.32319
2.27093
2.24259
2.2366
2.23635
2.25311
2.28016
2.28642
2.27573
2.25615
2.2219
2.18214
2.16448
2.15788
2.15471
2.16201
2.17435
2.17102
2.16142
2.14804
2.1248
2.09754
2.08589
2.07996
2.0766
2.07776
2.0864
2.11189
2.18872
2.32016
2.49002
2.59285
2.63778
2.6721
2.68657
2.67809
2.66054
2.63794
2.60673
2.57474
2.5619
2.55579
2.55927
2.56788
2.56304
2.55162
2.53459
2.505
2.4751
2.46126
2.45263
2.44956
2.45903
2.46647
2.45677
2.44082
2.41898
2.39557
2.38364
2.37531
2.3694
3.37043
3.34816
3.31049
3.27169
3.23925
3.20152
3.13956
3.0679
3.04209
3.03362
3.02611
3.02283
3.01972
3.01195
3.0021
2.98964
2.96796
2.91441
2.83819
2.80069
2.79114
2.78416
2.77882
2.76976
2.75918
2.7484
2.7359
2.71806
2.6794
2.60809
2.5571
2.54681
2.53986
2.53357
2.52885
2.52439
2.51914
2.51262
2.50429
2.49129
2.45803
2.39115
2.33224
2.3187
2.31374
2.31195
2.31457
2.31233
2.3069
2.3002
2.29099
2.27243
2.22828
2.17318
2.1531
2.14684
2.13895
2.12996
2.12092
2.1109
2.098
2.08081
2.06149
2.04863
2.04043
2.0333
2.0253
2.01668
2.00759
1.996
1.97577
1.93948
1.89063
1.85791
1.85151
1.85134
1.86286
1.88505
1.89331
1.88878
1.8833
1.87619
1.86202
1.83195
1.7772
1.72212
1.69825
1.69363
1.69487
1.71027
1.73995
1.75669
1.75446
1.74904
1.73979
1.71855
1.67532
1.61356
1.57759
1.56828
1.5665
1.57112
1.59286
1.62522
1.6387
1.63516
1.62762
1.61274
1.58155
1.52551
1.47712
1.46219
1.46044
1.46209
1.47683
1.5072
1.52555
1.52455
1.5193
1.50767
1.48014
1.4287
1.38189
1.36695
1.36516
1.36772
1.38615
1.41782
1.43108
1.4289
1.42342
1.40934
1.37654
1.32492
1.29365
1.28757
1.2873
1.29464
1.31966
1.34713
1.35168
1.34829
1.34214
1.32549
1.28917
1.24274
1.22166
1.2187
1.21901
1.22906
1.25538
1.27766
1.27925
1.27614
1.26962
1.2518
1.21432
1.17762
1.16744
1.16623
1.16674
1.17662
1.19501
1.20138
1.19898
1.19492
1.18809
1.16982
1.13834
1.11797
1.11501
1.11548
1.13055
1.24006
1.54319
1.98353
2.452
2.5513
2.53028
2.50058
2.46671
2.45738
2.48448
2.525
2.53262
2.51986
2.49416
2.45746
2.41803
2.39265
2.38414
2.38142
2.39326
2.40864
2.40237
2.38481
2.35366
2.30524
2.26795
2.2585
2.25487
2.26529
2.29423
2.30678
2.29844
2.28175
2.25251
2.21114
2.18535
2.17745
2.17287
2.17675
2.19247
2.19572
2.18689
2.1742
2.15306
2.1227
2.10478
2.09793
2.09377
2.09405
2.10393
2.1327
2.21134
2.35363
2.51266
2.62933
2.66233
2.68729
2.70409
2.70596
2.69273
2.6708
2.63934
2.60348
2.58751
2.58021
2.57965
2.58985
2.59014
2.57867
2.56191
2.53289
2.50088
2.48619
2.47785
2.47286
2.47879
2.48914
2.48415
2.46975
2.44691
2.41789
2.40253
2.39377
2.38705
2.38582
3.40047
3.35379
3.30873
3.27671
3.2469
3.2005
3.12861
3.08396
3.07477
3.067
3.0624
3.05968
3.0531
3.04362
3.03181
3.01392
2.9707
2.89206
2.83327
2.82011
2.8125
2.80825
2.80479
2.79675
2.78699
2.77675
2.76339
2.73588
2.67213
2.59805
2.57451
2.56755
2.56232
2.55926
2.55611
2.55155
2.54546
2.53784
2.527
2.50259
2.44467
2.3744
2.34935
2.34404
2.34115
2.3434
2.34581
2.34085
2.33386
2.32457
2.30901
2.27126
2.2117
2.17578
2.16897
2.16446
2.15833
2.15023
2.14161
2.13331
2.12357
2.11147
2.09482
2.07151
2.05613
2.04691
2.03739
2.02724
2.01573
1.99938
1.97002
1.92675
1.89214
1.88471
1.88418
1.89344
1.91059
1.91515
1.91069
1.90543
1.89838
1.88515
1.85684
1.80501
1.7492
1.7232
1.71849
1.71996
1.73593
1.76555
1.7805
1.77726
1.77127
1.76218
1.74236
1.70182
1.63966
1.60012
1.59018
1.58895
1.5939
1.61602
1.6479
1.66093
1.6571
1.64913
1.63436
1.60406
1.54834
1.49781
1.48154
1.4797
1.48144
1.49633
1.52739
1.54668
1.54575
1.54054
1.52918
1.50212
1.45062
1.40114
1.38422
1.38194
1.38384
1.40092
1.43312
1.44905
1.44732
1.44214
1.42903
1.39779
1.34616
1.31153
1.30372
1.30326
1.30926
1.3325
1.36142
1.36804
1.36483
1.359
1.34388
1.3103
1.26263
1.23716
1.23275
1.2325
1.24032
1.26445
1.29003
1.29422
1.29129
1.28563
1.27061
1.23703
1.19622
1.18103
1.1795
1.17942
1.18697
1.20537
1.21519
1.21339
1.20936
1.20339
1.18852
1.15881
1.13224
1.12695
1.12965
1.15536
1.29981
1.72931
2.17014
2.51939
2.60878
2.5885
2.56063
2.54142
2.52431
2.52274
2.54113
2.54813
2.54078
2.52241
2.48443
2.43969
2.41278
2.40308
2.40112
2.41691
2.43497
2.4297
2.41246
2.38124
2.33381
2.29755
2.28761
2.28265
2.28522
2.30662
2.32594
2.3219
2.30753
2.28278
2.24257
2.20801
2.19702
2.19127
2.19174
2.20569
2.2166
2.2112
2.20059
2.18346
2.15331
2.12746
2.11856
2.11385
2.11331
2.12278
2.15466
2.23352
2.37663
2.55146
2.65631
2.6877
2.70115
2.71905
2.73129
2.72532
2.70656
2.67314
2.63235
2.6107
2.60306
2.6021
2.61352
2.61902
2.60875
2.59243
2.5657
2.52705
2.50445
2.49543
2.4894
2.49315
2.50631
2.50665
2.49417
2.47683
2.45193
2.42704
2.41464
2.40643
2.40217
2.40687
3.39561
3.34489
3.31204
3.28858
3.25663
3.19452
3.13068
3.11537
3.10746
3.102
3.09931
3.09366
3.08468
3.07353
3.05804
3.0234
2.95113
2.87429
2.84976
2.84203
2.83739
2.83699
2.83376
2.82591
2.8167
2.80554
2.78572
2.73427
2.65103
2.60491
2.59625
2.59064
2.58937
2.58872
2.58461
2.57897
2.57191
2.56246
2.54448
2.49633
2.42086
2.38038
2.37412
2.3707
2.37169
2.37603
2.37307
2.36669
2.35775
2.34393
2.31225
2.25391
2.20499
2.19353
2.18963
2.18623
2.1816
2.17601
2.16896
2.16313
2.15692
2.14508
2.11502
2.07978
2.06637
2.05846
2.04888
2.03741
2.02274
1.99938
1.96293
1.92727
1.91833
1.91732
1.92404
1.93573
1.93653
1.9324
1.92748
1.92076
1.90884
1.88268
1.83438
1.77843
1.74993
1.74484
1.74597
1.76147
1.78975
1.80254
1.79846
1.79204
1.78316
1.7652
1.72858
1.66841
1.62509
1.61345
1.61259
1.61789
1.63998
1.67047
1.682
1.67775
1.66962
1.65522
1.62624
1.57176
1.51932
1.50121
1.49917
1.50104
1.51639
1.54848
1.56869
1.56766
1.56239
1.55125
1.52441
1.47255
1.42044
1.4018
1.39911
1.40047
1.41635
1.44911
1.46769
1.46636
1.46118
1.44866
1.41894
1.36733
1.32926
1.31973
1.31907
1.32414
1.34599
1.37621
1.38494
1.38195
1.37652
1.36267
1.3308
1.28208
1.25303
1.24687
1.24625
1.2523
1.27405
1.30167
1.30898
1.30638
1.30127
1.28853
1.25873
1.21573
1.19501
1.19276
1.19227
1.19799
1.21555
1.22858
1.22786
1.2239
1.21836
1.2058
1.17931
1.14814
1.13991
1.14507
1.20068
1.41326
1.88113
2.33392
2.5728
2.66051
2.6428
2.57756
2.53064
2.53375
2.54126
2.56711
2.58526
2.57494
2.55863
2.52741
2.47596
2.4378
2.42596
2.42053
2.43255
2.45728
2.46183
2.44918
2.42068
2.36764
2.31632
2.30059
2.29584
2.2966
2.31643
2.34301
2.34628
2.33498
2.31435
2.2759
2.23436
2.21851
2.21205
2.21021
2.22087
2.23524
2.23275
2.22313
2.20785
2.18113
2.15181
2.13843
2.13339
2.13346
2.14378
2.17755
2.26272
2.40112
2.58093
2.68869
2.71241
2.72709
2.74196
2.7547
2.75046
2.73466
2.70696
2.66456
2.63307
2.62345
2.62096
2.63215
2.64307
2.63587
2.62065
2.59683
2.55973
2.52975
2.51913
2.51237
2.51125
2.52218
2.52843
2.51841
2.50219
2.47729
2.45021
2.43801
2.42961
2.42341
2.42466
2.42875
3.38219
3.34675
3.32818
3.30673
3.25999
3.18784
3.15531
3.14727
3.14094
3.13827
3.13445
3.12611
3.11532
3.1014
3.07347
3.00992
2.9219
2.88154
2.87291
2.86732
2.86715
2.8699
2.86435
2.85623
2.84648
2.83105
2.79083
2.71052
2.64178
2.62622
2.61978
2.61793
2.622
2.61944
2.61349
2.60684
2.59829
2.58396
2.54501
2.47117
2.41413
2.40346
2.39945
2.39955
2.40443
2.40366
2.39808
2.39029
2.37819
2.35225
2.29908
2.24039
2.2199
2.21559
2.21428
2.21371
2.2101
2.20718
2.20182
2.19572
2.18636
2.15897
2.11232
2.08463
2.0765
2.06978
2.06067
2.04823
2.0295
1.99833
1.96278
1.95185
1.95055
1.95403
1.96081
1.95856
1.95423
1.94949
1.94309
1.9326
1.90963
1.86566
1.80977
1.7785
1.77278
1.77333
1.78686
1.81247
1.8231
1.8185
1.81191
1.80339
1.78744
1.7552
1.69935
1.65254
1.63832
1.63759
1.64294
1.66446
1.69266
1.70194
1.69733
1.68943
1.67574
1.64853
1.59595
1.54173
1.52142
1.51899
1.52075
1.53663
1.56979
1.59084
1.58984
1.58454
1.5735
1.54705
1.49507
1.44028
1.41965
1.41661
1.41763
1.43254
1.46558
1.48679
1.48604
1.48083
1.46881
1.44027
1.38897
1.34761
1.33604
1.33509
1.33926
1.35958
1.39112
1.40262
1.39996
1.39453
1.38137
1.35092
1.30172
1.26929
1.26135
1.26035
1.26492
1.28437
1.31312
1.3237
1.3216
1.31688
1.30594
1.27951
1.23608
1.20981
1.20584
1.20522
1.20934
1.22565
1.24146
1.24235
1.23838
1.23326
1.22249
1.1985
1.16574
1.15389
1.1635
1.25573
1.57585
2.04787
2.49879
2.70033
2.70762
2.67682
2.60885
2.54799
2.52721
2.52818
2.56197
2.61346
2.61884
2.60243
2.56675
2.51221
2.46613
2.45038
2.44182
2.44754
2.47409
2.48822
2.4791
2.45593
2.41214
2.35313
2.32103
2.31313
2.31101
2.32648
2.35795
2.36881
2.36016
2.34201
2.30828
2.26435
2.2407
2.23345
2.23021
2.23885
2.25556
2.25533
2.24563
2.23154
2.20626
2.17432
2.15874
2.15302
2.1529
2.1654
2.20072
2.28874
2.43079
2.60932
2.71901
2.73804
2.75262
2.77
2.78233
2.77556
2.75789
2.73379
2.70005
2.66668
2.65465
2.64805
2.65209
2.663
2.658
2.64477
2.62539
2.59304
2.55925
2.54432
2.53608
2.53201
2.53889
2.54899
2.54308
2.52863
2.50752
2.47888
2.45819
2.44835
2.4411
2.43986
2.44623
2.44275
3.38248
3.36738
3.35281
3.32008
3.25201
3.19747
3.18678
3.17963
3.17624
3.17508
3.16862
3.15806
3.14496
3.12197
3.06704
2.97552
2.91718
2.90536
2.89881
2.89736
2.90451
2.90355
2.8957
2.88696
2.87431
2.84305
2.77103
2.68537
2.65601
2.64927
2.64626
2.65294
2.65644
2.64987
2.6432
2.63531
2.62345
2.5929
2.52523
2.45331
2.43234
2.42779
2.4265
2.43179
2.43367
2.4288
2.42211
2.41196
2.39195
2.3449
2.28059
2.24895
2.24377
2.24139
2.24555
2.24626
2.24247
2.23925
2.23376
2.22343
2.19644
2.14885
2.10864
2.09564
2.08852
2.0811
2.07231
2.05908
2.03514
2.00009
1.98548
1.98387
1.98462
1.98585
1.98199
1.97705
1.97185
1.96531
1.95577
1.93671
1.89802
1.84362
1.80865
1.80178
1.80166
1.81279
1.83439
1.84249
1.83784
1.83157
1.82347
1.80955
1.78154
1.73089
1.68204
1.66483
1.66396
1.66898
1.68914
1.71399
1.72057
1.71603
1.70876
1.69621
1.67105
1.6215
1.56572
1.54269
1.53968
1.54105
1.55707
1.59093
1.61254
1.61157
1.60631
1.59556
1.56985
1.51848
1.4611
1.43815
1.43478
1.43546
1.44934
1.48238
1.50627
1.50632
1.50095
1.48913
1.46163
1.41067
1.36616
1.35256
1.35126
1.35477
1.37383
1.40639
1.42091
1.4188
1.41359
1.40098
1.37113
1.32093
1.28551
1.27619
1.27484
1.2782
1.29564
1.32484
1.33864
1.33717
1.33273
1.32314
1.29964
1.25705
1.22531
1.21878
1.21822
1.22112
1.23581
1.25376
1.25674
1.25293
1.24779
1.23873
1.21721
1.18346
1.16972
1.19345
1.32288
1.73539
2.22999
2.59832
2.74639
2.74602
2.70579
2.64905
2.60543
2.57821
2.5714
2.58894
2.63076
2.64232
2.62889
2.59894
2.54297
2.48821
2.46932
2.46298
2.46971
2.49686
2.51549
2.50681
2.48437
2.44362
2.38593
2.3517
2.34388
2.34044
2.35035
2.37873
2.39172
2.38369
2.36726
2.33745
2.29491
2.26515
2.25663
2.25236
2.25786
2.27534
2.27934
2.27034
2.25614
2.23132
2.19759
2.17767
2.17146
2.17128
2.18511
2.2259
2.31687
2.46321
2.63956
2.74724
2.77455
2.78185
2.79004
2.80135
2.80023
2.78458
2.76253
2.73189
2.69857
2.68462
2.6764
2.67498
2.68455
2.68462
2.67209
2.65473
2.62373
2.58464
2.56641
2.55875
2.55414
2.55967
2.57171
2.56952
2.55659
2.53684
2.50517
2.48159
2.47204
2.46449
2.461
2.46604
2.46434
2.45239
3.40623
3.39592
3.37331
3.31614
3.24653
3.22585
3.21834
3.21393
3.21427
3.21164
3.20207
3.18938
3.16956
3.12187
3.03292
2.95787
2.93858
2.93165
2.92879
2.93702
2.94354
2.93599
2.92777
2.91685
2.8922
2.8297
2.73455
2.68693
2.67835
2.67435
2.68085
2.69321
2.68797
2.68086
2.67335
2.6631
2.63958
2.58056
2.49847
2.46255
2.45675
2.4539
2.45812
2.46373
2.45981
2.45381
2.44525
2.42979
2.39037
2.32477
2.28076
2.27335
2.27047
2.27405
2.28219
2.27856
2.27389
2.26827
2.25928
2.2342
2.18447
2.1353
2.1167
2.11034
2.10269
2.0936
2.08396
2.07057
2.04539
2.02039
2.01642
2.0146
2.01235
2.00655
2.00061
1.99485
1.98797
1.97883
1.96352
1.93083
1.87994
1.84034
1.83174
1.83065
1.83813
1.85613
1.86177
1.85703
1.8514
1.84396
1.83201
1.8077
1.76308
1.71375
1.69266
1.69128
1.69568
1.71399
1.73485
1.73826
1.73405
1.72788
1.71675
1.69366
1.64808
1.59178
1.56549
1.56168
1.56261
1.57831
1.61217
1.63349
1.6324
1.62729
1.61712
1.59255
1.54232
1.4828
1.45742
1.45351
1.45403
1.46692
1.49959
1.52586
1.52685
1.52144
1.50971
1.48303
1.43262
1.3854
1.36954
1.36778
1.37064
1.38838
1.42173
1.43991
1.4386
1.43354
1.42113
1.39176
1.34047
1.30208
1.29147
1.28981
1.29218
1.30785
1.33712
1.35397
1.35332
1.3491
1.34051
1.31936
1.27843
1.24175
1.23199
1.23132
1.23335
1.2464
1.26578
1.27108
1.2678
1.26237
1.25445
1.23506
1.20124
1.19061
1.23424
1.45568
1.91292
2.44112
2.61482
2.73669
2.77201
2.75728
2.71172
2.64592
2.62276
2.61434
2.61996
2.65175
2.66182
2.64884
2.6231
2.57684
2.5224
2.49541
2.48815
2.49271
2.51914
2.5434
2.53726
2.51466
2.47428
2.4152
2.37326
2.36258
2.35929
2.36922
2.39944
2.4171
2.41027
2.3945
2.36545
2.32137
2.28679
2.27698
2.27243
2.27566
2.29226
2.30023
2.29288
2.27997
2.25868
2.22489
2.19861
2.19041
2.18884
2.2019
2.2457
2.34589
2.4933
2.66647
2.791
2.8061
2.8111
2.81187
2.82044
2.82386
2.81172
2.79297
2.76419
2.72617
2.70655
2.69829
2.69638
2.70737
2.71331
2.70246
2.68449
2.65645
2.61758
2.58948
2.57906
2.57288
2.5763
2.59076
2.59347
2.58204
2.56455
2.53829
2.50976
2.49549
2.48711
2.48189
2.48482
2.48818
2.47931
2.46518
3.43684
3.42042
3.37475
3.30168
3.26444
3.25699
3.25175
3.25182
3.25433
3.24694
3.23453
3.21687
3.17495
3.09145
3.00261
2.9728
2.96582
2.9616
2.96842
2.98252
2.97729
2.96915
2.95952
2.93974
2.88605
2.78891
2.72219
2.70813
2.70285
2.70658
2.7262
2.72744
2.71944
2.71214
2.70282
2.68473
2.63509
2.54999
2.49715
2.48778
2.48325
2.48487
2.49345
2.4921
2.48636
2.47885
2.46647
2.43484
2.37256
2.31655
2.30302
2.29965
2.30209
2.31351
2.31302
2.3076
2.30109
2.29187
2.27113
2.2242
2.16469
2.13823
2.13226
2.12636
2.11859
2.10913
2.09845
2.08605
2.06895
2.05071
2.0421
2.03774
2.03187
2.02449
2.01775
2.01079
2.00198
1.98893
1.9633
1.91789
1.87371
1.86153
1.86014
1.86332
1.87634
1.88148
1.8766
1.87143
1.86486
1.85465
1.83424
1.79567
1.74722
1.72221
1.71975
1.72256
1.73823
1.75537
1.75596
1.75185
1.74666
1.73722
1.71643
1.6753
1.61995
1.58985
1.58486
1.58554
1.6005
1.63376
1.65407
1.65255
1.6474
1.63793
1.61476
1.5666
1.50544
1.47734
1.47278
1.47318
1.4853
1.51731
1.54523
1.54736
1.54204
1.53054
1.50471
1.45496
1.40495
1.38697
1.38466
1.38693
1.4036
1.43767
1.45923
1.45871
1.45397
1.4419
1.41287
1.36027
1.31861
1.30696
1.30516
1.30684
1.3211
1.35036
1.36991
1.37019
1.36594
1.35818
1.33896
1.30019
1.25918
1.24565
1.24468
1.24605
1.25752
1.27789
1.28566
1.28302
1.27774
1.27018
1.25299
1.2191
1.21372
1.29983
1.62199
2.10361
2.53992
2.79413
2.82182
2.80988
2.77874
2.73278
2.68267
2.64298
2.63076
2.63601
2.66935
2.69508
2.68696
2.66048
2.60877
2.54822
2.52358
2.51715
2.51851
2.54071
2.56656
2.56436
2.54538
2.50847
2.4504
2.40282
2.3899
2.38639
2.3935
2.42055
2.44056
2.43539
2.4204
2.39454
2.35394
2.31314
2.29754
2.29151
2.29176
2.30569
2.31803
2.31276
2.30181
2.28398
2.25282
2.22356
2.21386
2.21158
2.22387
2.26791
2.37238
2.52926
2.69255
2.8249
2.83876
2.8345
2.8315
2.8404
2.85064
2.8442
2.82643
2.79957
2.75896
2.72779
2.71774
2.71383
2.72454
2.73788
2.73123
2.71544
2.69044
2.65112
2.61905
2.6081
2.60109
2.59983
2.61025
2.61642
2.60696
2.59115
2.56521
2.53201
2.51654
2.50853
2.5026
2.50341
2.50926
2.50233
2.48904
2.47217
3.46327
3.42689
3.35806
3.30537
3.29547
3.29013
3.28928
3.29545
3.29267
3.2804
3.26362
3.22594
3.1486
3.05067
3.00906
3.00108
2.99604
3.00042
3.01936
3.01943
3.01075
3.002
2.98589
2.93963
2.84629
2.76178
2.73811
2.73229
2.73277
2.75325
2.7673
2.75902
2.75159
2.74273
2.72796
2.68726
2.60583
2.53631
2.51981
2.51442
2.51373
2.52269
2.5258
2.52028
2.5133
2.50259
2.47756
2.42127
2.35601
2.33278
2.32864
2.3289
2.34123
2.34448
2.33892
2.33264
2.32346
2.30619
2.26524
2.2007
2.16212
2.15446
2.15079
2.1451
2.13733
2.12855
2.11892
2.1091
2.09747
2.07858
2.06165
2.05421
2.04804
2.04101
2.03336
2.02492
2.01363
1.99463
1.95756
1.91088
1.89143
1.88955
1.88946
1.89551
1.90091
1.89685
1.89172
1.88566
1.87699
1.86097
1.82802
1.78172
1.75288
1.74924
1.7504
1.76172
1.77497
1.77429
1.77007
1.76525
1.75719
1.73923
1.7029
1.64936
1.61578
1.6092
1.60961
1.62338
1.65522
1.67442
1.6725
1.66715
1.65811
1.63647
1.59119
1.52939
1.49828
1.49282
1.49307
1.50432
1.53557
1.56442
1.56742
1.56228
1.55125
1.52637
1.47751
1.42517
1.40493
1.402
1.40372
1.41935
1.45371
1.47876
1.47936
1.47477
1.46303
1.43452
1.38075
1.33547
1.32253
1.32066
1.32182
1.33496
1.36439
1.38663
1.38805
1.38373
1.3764
1.3587
1.32211
1.27749
1.25979
1.25828
1.25911
1.26918
1.29031
1.30091
1.29887
1.29406
1.28619
1.27213
1.23785
1.25055
1.37244
1.79851
2.32444
2.66418
2.85365
2.87684
2.85484
2.80052
2.73979
2.68721
2.66486
2.65782
2.66413
2.69231
2.72063
2.71671
2.69647
2.65392
2.58881
2.54408
2.533
2.53134
2.55232
2.58385
2.58878
2.57408
2.54261
2.48785
2.43515
2.41777
2.41266
2.41659
2.44192
2.46445
2.46106
2.44817
2.42518
2.38508
2.34346
2.32599
2.31918
2.31641
2.32495
2.33751
2.33376
2.32313
2.307
2.27882
2.24704
2.23489
2.23171
2.24305
2.29116
2.39832
2.56178
2.7278
2.86065
2.8666
2.85619
2.85295
2.8639
2.87607
2.87212
2.85565
2.83283
2.79644
2.75924
2.74555
2.73827
2.74283
2.75778
2.75636
2.7427
2.72162
2.68499
2.64555
2.62892
2.62129
2.61834
2.62734
2.63734
2.63051
2.61604
2.59422
2.5632
2.5392
2.52855
2.52121
2.51909
2.52521
2.52385
2.51217
2.49664
2.47397
3.47337
3.41249
3.35118
3.33454
3.32942
3.3282
3.33577
3.33873
3.32726
3.31058
3.27537
3.20297
3.10022
3.04727
3.03708
3.03168
3.03427
3.05488
3.06216
3.05309
3.04447
3.0302
2.98998
2.90327
2.8047
2.76949
2.76272
2.76089
2.77732
2.80339
2.80005
2.79174
2.78314
2.77022
2.737
2.66305
2.57957
2.55219
2.5467
2.54457
2.55204
2.55962
2.55552
2.54903
2.53945
2.51945
2.46952
2.39857
2.36314
2.35757
2.35569
2.36461
2.37382
2.36873
2.3628
2.35431
2.33977
2.30579
2.24396
2.19184
2.17819
2.17394
2.17288
2.1676
2.16011
2.15297
2.14555
2.13715
2.12227
2.09507
2.07677
2.0693
2.06309
2.05634
2.04811
2.03822
2.02365
1.99592
1.95203
1.92328
1.91915
1.91654
1.91618
1.91943
1.91778
1.91267
1.90657
1.89869
1.88629
1.85965
1.81741
1.78455
1.77901
1.77879
1.78584
1.7939
1.7928
1.78895
1.78409
1.77672
1.76143
1.72998
1.68007
1.64358
1.6348
1.63489
1.64677
1.67605
1.69396
1.6918
1.68625
1.67755
1.65775
1.61642
1.55543
1.52054
1.51376
1.51387
1.52416
1.55433
1.58333
1.58686
1.58191
1.57151
1.54786
1.50047
1.44615
1.4233
1.41972
1.42094
1.43581
1.47052
1.49833
1.49996
1.49545
1.48419
1.45654
1.40235
1.35292
1.33809
1.3362
1.33703
1.34921
1.37883
1.40389
1.4067
1.40246
1.39541
1.37879
1.34374
1.29649
1.27464
1.27219
1.27256
1.28122
1.30263
1.3169
1.3157
1.31139
1.30373
1.2876
1.2625
1.30119
1.52225
1.95737
2.53653
2.7663
2.85694
2.87537
2.86658
2.84191
2.78963
2.72728
2.69344
2.68099
2.6859
2.71872
2.74577
2.74
2.72123
2.68326
2.62516
2.58196
2.5707
2.56675
2.5803
2.60834
2.61333
2.59845
2.57071
2.52208
2.46668
2.44199
2.43583
2.43682
2.45869
2.48652
2.48723
2.47545
2.45416
2.41564
2.37068
2.34712
2.33962
2.33566
2.34244
2.35761
2.35692
2.34694
2.33225
2.30577
2.27201
2.25697
2.25336
2.26403
2.31278
2.42979
2.59087
2.77142
2.88806
2.895
2.8891
2.88124
2.88913
2.90075
2.89754
2.88199
2.8612
2.8279
2.79
2.77316
2.76446
2.76391
2.77718
2.78123
2.76877
2.75009
2.71969
2.67837
2.65567
2.64694
2.64209
2.64692
2.6583
2.65488
2.64141
2.62201
2.59066
2.56533
2.55539
2.54793
2.54399
2.54791
2.54672
2.5351
2.51963
2.49891
2.47811
3.46279
3.40043
3.37525
3.37072
3.36956
3.37735
3.38424
3.37508
3.35788
3.32337
3.25467
3.1503
3.08779
3.074
3.06858
3.07008
3.09099
3.10492
3.09646
3.08783
3.07477
3.03883
2.95806
2.84995
2.80259
2.79374
2.79055
2.8019
2.83334
2.84082
2.83234
2.82406
2.81237
2.78509
2.72001
2.62746
2.58583
2.57925
2.57639
2.58268
2.59202
2.59091
2.58529
2.57691
2.56059
2.51754
2.44463
2.39537
2.38671
2.38332
2.38719
2.39826
2.39739
2.39221
2.38486
2.3729
2.3457
2.29017
2.22858
2.20538
2.20007
2.19753
2.19915
2.19409
2.18752
2.18206
2.17564
2.16383
2.13378
2.10224
2.09102
2.08444
2.0778
2.07064
2.062
2.05087
2.03222
1.99555
1.95784
1.9495
1.94421
1.9394
1.93773
1.93833
1.9346
1.92843
1.92051
1.90953
1.88899
1.85251
1.81681
1.80837
1.80711
1.81013
1.81365
1.81151
1.80808
1.80349
1.79648
1.78321
1.75608
1.71155
1.67269
1.66142
1.66139
1.67122
1.69688
1.71259