/*--------------------------------*- C++ -*----------------------------------*\
  =========                 |
  \\      /  F ield         | OpenFOAM: The Open Source CFD Toolbox
   \\    /   O peration     | Website:  https://openfoam.org
    \\  /    A nd           | Version:  7
     \\/     M anipulation  |
\*---------------------------------------------------------------------------*/
FoamFile
{
    version     2.0;
    format      ascii;
    class       volScalarField;
    location    "1.8";
    object      T;
}
// * * * * * * * * * * * * * * * * * * * * * * * * * * * * * * * * * * * * * //

dimensions      [0 0 0 1 0 0 0];

internalField   nonuniform List<scalar> 
16512
(
1.76553
1.76745
1.76826
1.76825
1.76785
1.76702
1.76603
1.76472
1.76184
1.75399
1.74144
1.73539
1.73525
1.73504
1.73516
1.73533
1.73526
1.73474
1.73329
1.73004
1.72278
1.71377
1.71062
1.70896
1.70726
1.70551
1.70426
1.70363
1.70316
1.70205
1.69757
1.68682
1.68176
1.68173
1.68101
1.67955
1.67887
1.6784
1.67776
1.67661
1.67491
1.67282
1.6697
1.66359
1.6531
1.64631
1.64493
1.64389
1.64224
1.64086
1.63977
1.63842
1.63662
1.63349
1.62714
1.62215
1.62141
1.62085
1.62041
1.61974
1.61877
1.61758
1.61571
1.61167
1.60355
1.59334
1.5875
1.58663
1.58748
1.59174
1.59654
1.5972
1.59613
1.59484
1.59165
1.58431
1.57105
1.55788
1.55259
1.55155
1.55165
1.55433
1.561
1.56779
1.57
1.56872
1.56611
1.5613
1.55219
1.53841
1.52561
1.52008
1.51881
1.51896
1.5218
1.52879
1.53546
1.53704
1.53715
1.53679
1.53267
1.52237
1.50787
1.49773
1.49336
1.49158
1.49186
1.49617
1.50378
1.50688
1.50673
1.50693
1.50537
1.49798
1.48369
1.47334
1.47039
1.46971
1.47051
1.47535
1.48258
1.48463
1.48301
1.48016
1.47497
1.46411
1.44869
1.44131
1.44068
1.44112
1.4454
1.45499
1.46225
1.46268
1.46135
1.45808
1.4496
1.43381
1.42052
1.41702
1.41676
1.41814
1.42524
1.43617
1.44034
1.43973
1.43812
1.43338
1.42165
1.4052
1.39704
1.39556
1.39538
1.39802
1.40643
1.41391
1.41468
1.41456
1.41387
1.4088
1.3965
1.38667
1.38456
1.38391
1.38415
1.38754
1.392
1.39239
1.39097
1.38919
1.38602
1.37822
1.3686
1.36519
1.36472
1.36438
1.36579
1.37119
1.37503
1.38431
1.44526
1.57163
1.65613
1.72359
1.73247
1.74085
1.74566
1.74821
1.74685
1.74101
1.7352
1.7271
1.71468
1.70421
1.70043
1.69878
1.70078
1.70462
1.70416
1.70226
1.69752
1.68914
1.68245
1.67925
1.67619
1.67516
1.67616
1.67633
1.67192
1.66441
1.655
1.64557
1.64061
1.63886
1.63806
1.63964
1.64201
1.64101
1.63827
1.63372
1.62655
1.62053
1.61734
1.61443
1.61201
1.61075
1.60896
1.60635
1.60931
1.62223
1.64897
1.68022
1.69828
1.70855
1.71235
1.7111
1.7079
1.70271
1.69465
1.6884
1.68547
1.68356
1.68294
1.68198
1.67814
1.67329
1.66786
1.66083
1.65453
1.65028
1.64656
1.64456
1.64433
1.64277
1.63823
1.63347
1.62801
1.62321
1.76748
1.7687
1.76885
1.76864
1.76773
1.76634
1.76471
1.7621
1.75569
1.74382
1.73495
1.73407
1.73415
1.7346
1.73512
1.7354
1.73536
1.73486
1.73303
1.7284
1.71896
1.7122
1.71031
1.70869
1.70669
1.70475
1.70336
1.70247
1.70167
1.69985
1.69382
1.6837
1.68123
1.68109
1.68018
1.67877
1.67801
1.67746
1.67685
1.67587
1.67445
1.67253
1.66903
1.66038
1.64895
1.64439
1.64333
1.64281
1.64176
1.64025
1.63897
1.63752
1.63544
1.63243
1.62796
1.62336
1.62132
1.62033
1.61931
1.6182
1.61703
1.61546
1.61253
1.60643
1.59764
1.59152
1.59053
1.59108
1.59446
1.59809
1.59817
1.59699
1.59551
1.59223
1.58512
1.57211
1.55913
1.55405
1.55334
1.5537
1.55728
1.56481
1.57142
1.57294
1.57181
1.56959
1.56472
1.55496
1.53994
1.52676
1.52128
1.51997
1.52004
1.52326
1.53084
1.53775
1.5395
1.54
1.53977
1.53559
1.52471
1.50961
1.49994
1.49584
1.49392
1.49414
1.49829
1.50581
1.50885
1.50848
1.5083
1.50654
1.49942
1.48545
1.4751
1.47231
1.4718
1.47263
1.47747
1.4849
1.48752
1.48604
1.48315
1.47815
1.46797
1.45231
1.4434
1.44219
1.44239
1.44583
1.45496
1.46318
1.46422
1.46317
1.46067
1.4534
1.43871
1.42395
1.41911
1.41863
1.4195
1.42541
1.43628
1.44189
1.44161
1.44035
1.43665
1.42661
1.41012
1.39981
1.39748
1.39702
1.39868
1.40589
1.41461
1.41646
1.41622
1.41577
1.41209
1.40126
1.38936
1.38584
1.38518
1.38509
1.38759
1.39275
1.39429
1.39318
1.39143
1.38901
1.38274
1.37263
1.36709
1.36651
1.36622
1.36671
1.37131
1.37871
1.39766
1.46165
1.61396
1.69814
1.73327
1.74394
1.73746
1.73879
1.74514
1.74646
1.74476
1.73682
1.72792
1.72004
1.71095
1.7032
1.69912
1.69886
1.70243
1.70371
1.70193
1.6974
1.6884
1.68093
1.67853
1.67683
1.6763
1.67789
1.67868
1.67501
1.66735
1.65847
1.64869
1.64186
1.63922
1.63799
1.63898
1.6418
1.64162
1.63926
1.63545
1.62899
1.62177
1.61796
1.61533
1.61287
1.61124
1.61012
1.60887
1.61199
1.6258
1.6526
1.68248
1.70192
1.70937
1.71159
1.71148
1.70907
1.70469
1.69832
1.69046
1.68596
1.68376
1.68229
1.68242
1.68071
1.67605
1.6708
1.66427
1.65741
1.65272
1.64895
1.64629
1.64594
1.64536
1.64115
1.63568
1.62985
1.6243
1.62073
1.76912
1.76946
1.76946
1.76876
1.76715
1.76497
1.76216
1.75686
1.74671
1.73582
1.73316
1.73317
1.73364
1.73476
1.73547
1.73588
1.73593
1.73544
1.73307
1.72538
1.71479
1.71124
1.70984
1.70805
1.70589
1.704
1.70252
1.70136
1.70012
1.69741
1.69017
1.68174
1.68047
1.6801
1.67896
1.67776
1.67714
1.67665
1.67614
1.67537
1.67424
1.67222
1.66634
1.65407
1.64524
1.64344
1.64268
1.6423
1.64175
1.64053
1.63922
1.63783
1.63601
1.63323
1.62858
1.62278
1.62001
1.61876
1.61777
1.61673
1.61544
1.61333
1.60895
1.60157
1.59553
1.59447
1.59463
1.59682
1.5991
1.59884
1.59765
1.59594
1.59267
1.58597
1.57374
1.56101
1.55582
1.55526
1.55583
1.56018
1.56822
1.5742
1.57487
1.57413
1.57241
1.56782
1.55788
1.54214
1.52844
1.52285
1.52136
1.52137
1.52487
1.53287
1.53985
1.54157
1.54237
1.54229
1.53825
1.52703
1.51141
1.50217
1.49841
1.4965
1.49671
1.50084
1.50829
1.5113
1.51064
1.50992
1.50778
1.50074
1.48688
1.47633
1.47377
1.4735
1.4744
1.47934
1.48711
1.49029
1.48907
1.48631
1.48151
1.47182
1.45619
1.4458
1.44383
1.44386
1.44644
1.45489
1.46385
1.46563
1.46483
1.46293
1.45668
1.44315
1.42756
1.42134
1.4206
1.42111
1.42596
1.43637
1.44328
1.44342
1.44245
1.43957
1.43106
1.41524
1.40294
1.3995
1.3988
1.39973
1.40564
1.41495
1.41818
1.41793
1.41754
1.41495
1.40585
1.39266
1.38721
1.38642
1.38613
1.38781
1.39297
1.39589
1.39514
1.39344
1.39138
1.38647
1.37688
1.36929
1.36805
1.36791
1.36815
1.372
1.38251
1.42239
1.50906
1.6308
1.72978
1.74308
1.74423
1.7392
1.73469
1.73651
1.74168
1.74305
1.74083
1.73287
1.72163
1.71185
1.70688
1.70386
1.70276
1.7044
1.70578
1.70332
1.69811
1.68945
1.68043
1.67676
1.67527
1.67531
1.67824
1.68032
1.67806
1.67094
1.66197
1.65163
1.64376
1.64068
1.63899
1.63896
1.64128
1.64193
1.63998
1.63696
1.63183
1.62442
1.61936
1.61655
1.61401
1.61203
1.61078
1.61031
1.61392
1.62709
1.65571
1.68841
1.70285
1.70938
1.71198
1.71258
1.71168
1.70757
1.70021
1.69279
1.68749
1.6848
1.68295
1.68279
1.68235
1.67869
1.67388
1.66734
1.65934
1.65407
1.65039
1.64746
1.64674
1.64677
1.64416
1.63904
1.63331
1.62686
1.62227
1.61902
1.77025
1.77042
1.77001
1.76839
1.76551
1.76211
1.75759
1.74947
1.73815
1.73297
1.73275
1.73284
1.73402
1.73541
1.73606
1.73646
1.73651
1.73576
1.73091
1.71929
1.71188
1.7103
1.70911
1.70722
1.7051
1.70343
1.70215
1.70101
1.69944
1.69554
1.68638
1.67998
1.67932
1.67866
1.6775
1.67679
1.67644
1.67607
1.67564
1.67506
1.67401
1.67059
1.6602
1.64762
1.64392
1.64322
1.64291
1.64279
1.64248
1.64189
1.64082
1.63952
1.63778
1.63353
1.62567
1.62023
1.61833
1.61719
1.61625
1.61531
1.61399
1.6112
1.60519
1.59915
1.59819
1.59821
1.59902
1.59984
1.59931
1.59813
1.59627
1.59309
1.58694
1.57584
1.56357
1.55797
1.55742
1.55816
1.563
1.57105
1.576
1.5761
1.57571
1.57443
1.57029
1.5607
1.54483
1.53074
1.52488
1.52319
1.52317
1.52678
1.53496
1.54169
1.54322
1.54413
1.54415
1.54039
1.5292
1.5133
1.50436
1.50098
1.49925
1.49955
1.50378
1.51124
1.5141
1.51311
1.51181
1.50919
1.50207
1.48823
1.4774
1.47493
1.47485
1.4759
1.48102
1.48912
1.49287
1.49192
1.48939
1.48487
1.47559
1.46005
1.44835
1.44558
1.44545
1.44735
1.45499
1.46445
1.46697
1.46628
1.46476
1.45947
1.44713
1.43107
1.42366
1.42261
1.42284
1.42683
1.43665
1.44449
1.4451
1.44442
1.4423
1.43514
1.42034
1.40642
1.40167
1.40067
1.40108
1.40571
1.41504
1.41974
1.41961
1.4192
1.41738
1.41005
1.39655
1.3889
1.38776
1.38734
1.38832
1.39295
1.39709
1.39697
1.39527
1.39336
1.38957
1.38108
1.37193
1.36939
1.36928
1.36942
1.37334
1.38762
1.44454
1.57282
1.67652
1.74566
1.75074
1.74179
1.74286
1.74262
1.7427
1.7464
1.74862
1.74711
1.74005
1.7269
1.71273
1.70557
1.70199
1.70161
1.70494
1.70721
1.70504
1.69957
1.69097
1.68147
1.67695
1.67573
1.67577
1.67861
1.68156
1.68037
1.6741
1.66537
1.65491
1.64569
1.64154
1.63937
1.63866
1.64038
1.64192
1.64031
1.63743
1.63336
1.62684
1.62087
1.61776
1.61528
1.6134
1.61216
1.61223
1.61618
1.63014
1.65694
1.69248
1.70649
1.71127
1.71422
1.71473
1.71326
1.70914
1.70206
1.69303
1.68767
1.68535
1.68392
1.68399
1.68399
1.68093
1.67606
1.67024
1.66246
1.65572
1.65169
1.64839
1.64711
1.64731
1.64618
1.64133
1.63579
1.62977
1.62431
1.62071
1.61759
1.77177
1.77156
1.76995
1.76617
1.7619
1.75776
1.75156
1.74139
1.73372
1.73289
1.73274
1.73334
1.73508
1.73607
1.73649
1.73675
1.73664
1.73424
1.7243
1.71324
1.71031
1.70923
1.70825
1.70649
1.70457
1.70323
1.70225
1.70134
1.69944
1.69254
1.68177
1.67844
1.67782
1.67696
1.67627
1.67609
1.67598
1.67572
1.67535
1.67483
1.67318
1.66585
1.65208
1.64471
1.64396
1.64378
1.6442
1.6444
1.64419
1.64381
1.64277
1.64115
1.63718
1.62814
1.62063
1.6181
1.61693
1.61604
1.61508
1.61405
1.61258
1.60945
1.60343
1.60121
1.60113
1.60096
1.60058
1.59965
1.59831
1.59644
1.59356
1.5881
1.57833
1.56672
1.56059
1.55991
1.56067
1.56554
1.57323
1.57703
1.57685
1.57674
1.57576
1.57208
1.56315
1.54778
1.5335
1.52731
1.52546
1.52546
1.52919
1.53732
1.54333
1.54442
1.54527
1.54531
1.54191
1.53116
1.51524
1.50637
1.50345
1.50208
1.5026
1.50709
1.5145
1.51717
1.51585
1.5139
1.51077
1.50347
1.48959
1.47841
1.47594
1.476
1.47728
1.48257
1.49102
1.49529
1.49461
1.49241
1.48821
1.47922
1.4638
1.45112
1.44757
1.44722
1.44857
1.45538
1.46507
1.46841
1.46783
1.4665
1.46189
1.45056
1.43448
1.426
1.42451
1.42458
1.42786
1.43699
1.44557
1.44681
1.44621
1.44472
1.43879
1.42527
1.4102
1.40402
1.40264
1.40267
1.40614
1.415
1.42108
1.42122
1.42079
1.41944
1.41367
1.40083
1.39104
1.38913
1.38871
1.38916
1.39304
1.39803
1.3986
1.39705
1.39506
1.39201
1.38481
1.37487
1.37057
1.37045
1.37072
1.37517
1.40036
1.4681
1.61305
1.7165
1.75516
1.7577
1.74512
1.73566
1.73803
1.74527
1.75126
1.75013
1.74605
1.7403
1.73179
1.72017
1.70864
1.70349
1.70239
1.70465
1.70788
1.70635
1.70145
1.69299
1.68264
1.67708
1.67555
1.67517
1.67792
1.68193
1.68174
1.67653
1.66865
1.65852
1.64843
1.64327
1.6409
1.63959
1.64055
1.64248
1.64131
1.63831
1.63443
1.62843
1.62158
1.61796
1.61561
1.61373
1.61314
1.6141
1.61844
1.63396
1.66057
1.69331
1.71071
1.71516
1.7166
1.71686
1.71441
1.7095
1.70338
1.69582
1.68872
1.68551
1.68364
1.6836
1.68415
1.68205
1.67804
1.67323
1.66613
1.65886
1.65433
1.6508
1.64862
1.64854
1.64803
1.64375
1.63809
1.63192
1.62577
1.62179
1.61855
1.61577
1.77355
1.77178
1.7668
1.76132
1.75731
1.7529
1.74493
1.73557
1.73318
1.73302
1.73326
1.73455
1.73587
1.73631
1.73659
1.73669
1.73569
1.72851
1.71598
1.71019
1.70902
1.7082
1.70754
1.7061
1.70452
1.70352
1.70296
1.70215
1.69799
1.68655
1.67817
1.67702
1.67622
1.67563
1.6756
1.67572
1.67572
1.67553
1.67517
1.67435
1.66983
1.65755
1.64665
1.64484
1.64469
1.64509
1.6465
1.6465
1.64612
1.64527
1.64373
1.6405
1.63179
1.62059
1.61743
1.61694
1.61619
1.61535
1.61456
1.61359
1.61202
1.60938
1.60586
1.60362
1.6023
1.60115
1.59977
1.59808
1.59619
1.59374
1.58934
1.5812
1.57047
1.56376
1.56282
1.56344
1.56784
1.57465
1.5775
1.57737
1.57737
1.57655
1.57336
1.56529
1.55079
1.53657
1.53004
1.52812
1.52816
1.53194
1.53995
1.54504
1.54536
1.54587
1.5459
1.5429
1.53286
1.51721
1.50823
1.50574
1.50487
1.50574
1.51064
1.51796
1.5204
1.51873
1.51614
1.51247
1.50497
1.49104
1.47947
1.47686
1.47702
1.47854
1.48407
1.49288
1.49762
1.49715
1.4953
1.49145
1.48271
1.46734
1.45387
1.44965
1.44908
1.45007
1.45616
1.46598
1.46997
1.46943
1.46815
1.46405
1.45357
1.4375
1.42805
1.42619
1.42614
1.42888
1.43745
1.44656
1.44838
1.44794
1.44698
1.44209
1.42985
1.41414
1.40653
1.40474
1.40448
1.40692
1.41495
1.42216
1.4228
1.42227
1.42124
1.41668
1.40513
1.39362
1.39055
1.39014
1.39028
1.39337
1.39879
1.4002
1.39882
1.39667
1.39405
1.38801
1.37791
1.37172
1.37143
1.37194
1.37819
1.41866
1.51962
1.64287
1.74896
1.76082
1.75429
1.7473
1.74004
1.73742
1.74188
1.749
1.75012
1.74699
1.74052
1.73147
1.722
1.71441
1.70965
1.70691
1.70722
1.70839
1.70608
1.70151
1.69521
1.68613
1.67867
1.67641
1.67534
1.677
1.68162
1.68264
1.67866
1.67154
1.66229
1.65155
1.64457
1.64185
1.64018
1.64047
1.64293
1.64317
1.64026
1.63625
1.63056
1.62308
1.61829
1.61598
1.61415
1.61337
1.61481
1.62012
1.63595
1.66461
1.69506
1.7153
1.71741
1.71738
1.71731
1.71675
1.71256
1.70634
1.69874
1.69104
1.68698
1.68458
1.68365
1.68431
1.68353
1.67979
1.67515
1.6683
1.66076
1.65627
1.65307
1.65049
1.65017
1.6502
1.64733
1.6417
1.63517
1.62788
1.62294
1.61945
1.61649
1.61482
1.77343
1.76716
1.76045
1.75638
1.75315
1.74781
1.73861
1.73361
1.73343
1.73346
1.73425
1.73543
1.73592
1.73616
1.73628
1.73593
1.73142
1.71951
1.71049
1.70879
1.70788
1.70753
1.70726
1.70612
1.70496
1.70444
1.70404
1.7019
1.69253
1.67994
1.67646
1.67566
1.67514
1.67515
1.67541
1.67563
1.67562
1.67545
1.67499
1.6724
1.66255
1.64967
1.64587
1.64565
1.6459
1.64737
1.64857
1.64815
1.64739
1.64588
1.64314
1.63574
1.62352
1.61694
1.61634
1.61619
1.61598
1.61551
1.61493
1.61437
1.61345
1.61187
1.60911
1.60449
1.60142
1.59962
1.59769
1.59568
1.59347
1.59026
1.58402
1.57463
1.56738
1.56611
1.56654
1.57011
1.57557
1.57764
1.57772
1.57776
1.57705
1.57435
1.56719
1.55386
1.53983
1.53297
1.53107
1.53116
1.53491
1.54247
1.54665
1.54641
1.54638
1.54611
1.5433
1.53435
1.51927
1.50997
1.50779
1.50742
1.50879
1.51424
1.52142
1.5236
1.52168
1.51852
1.5143
1.50657
1.49266
1.48062
1.47774
1.47795
1.47965
1.48552
1.49472
1.49988
1.49958
1.49804
1.49454
1.48607
1.47073
1.45658
1.45182
1.45106
1.45177
1.45728
1.46711
1.47177
1.47132
1.47001
1.46621
1.45634
1.44041
1.43007
1.42773
1.42758
1.42983
1.43782
1.44741
1.44996
1.44963
1.44902
1.44505
1.43403
1.41812
1.40924
1.40692
1.40641
1.40807
1.41504
1.42301
1.42438
1.42371
1.42276
1.41915
1.40913
1.39649
1.392
1.39155
1.39155
1.39397
1.39943
1.4018
1.40065
1.39835
1.39578
1.39072
1.38113
1.37314
1.37221
1.37352
1.38371
1.43615
1.57016
1.68503
1.76178
1.76906
1.76369
1.75578
1.75007
1.74524
1.74482
1.7483
1.74943
1.74735
1.7425
1.73347
1.72295
1.71556
1.71133
1.70894
1.7094
1.71048
1.70791
1.70253
1.69571
1.68684
1.68047
1.67861
1.67738
1.67757
1.68089
1.6831
1.68057
1.67414
1.66575
1.65508
1.64623
1.64267
1.64067
1.64033
1.64249
1.64417
1.64236
1.63874
1.63357
1.62567
1.61908
1.61635
1.61483
1.61387
1.61536
1.6215
1.63753
1.66633
1.7
1.71757
1.71981
1.71788
1.71768
1.71838
1.71629
1.71047
1.70174
1.69276
1.6879
1.68559
1.68452
1.68512
1.68512
1.6818
1.6774
1.67123
1.66278
1.65692
1.6537
1.65106
1.65052
1.65094
1.64957
1.64461
1.63894
1.6322
1.62559
1.62132
1.61792
1.61539
1.61464
1.76714
1.75942
1.75513
1.75274
1.74962
1.74231
1.73464
1.73386
1.73379
1.73416
1.73505
1.73544
1.73556
1.7356
1.7355
1.73286
1.72311
1.71175
1.70858
1.70772
1.70731
1.70749
1.70726
1.70648
1.70591
1.70558
1.70449
1.69787
1.68393
1.67639
1.67532
1.67477
1.67492
1.6753
1.6755
1.67569
1.67568
1.67548
1.6742
1.66685
1.65322
1.64673
1.64639
1.64653
1.64773
1.64966
1.64961
1.64913
1.64784
1.64544
1.63933
1.62739
1.61802
1.61638
1.61619
1.61632
1.61667
1.61699
1.61686
1.61687
1.61668
1.61525
1.60947
1.60191
1.59902
1.59742
1.59551
1.59335
1.59068
1.5862
1.5787
1.57125
1.56959
1.56982
1.5725
1.57647
1.57762
1.57798
1.57802
1.57742
1.57519
1.56898
1.55694
1.54327
1.53607
1.53419
1.53426
1.53787
1.54482
1.5481
1.54748
1.54692
1.54618
1.54344
1.53562
1.52156
1.51178
1.50959
1.50959
1.51157
1.51756
1.52459
1.52651
1.52448
1.52103
1.51635
1.50844
1.49461
1.48203
1.47864
1.47878
1.48056
1.48676
1.49646
1.50203
1.50186
1.50062
1.4975
1.48929
1.47394
1.45918
1.454
1.45311
1.45363
1.45868
1.46854
1.47387
1.47347
1.47206
1.4684
1.45906
1.44322
1.43189
1.42907
1.42882
1.43069
1.43819
1.44818
1.45147
1.45127
1.451
1.44787
1.43781
1.42184
1.41199
1.40917
1.40845
1.40956
1.41546
1.42375
1.42593
1.42519
1.42415
1.42119
1.41263
1.39952
1.39345
1.39292
1.39283
1.39478
1.40007
1.40335
1.40255
1.40017
1.39746
1.39295
1.38425
1.37502
1.37316
1.37526
1.39628
1.47128
1.60785
1.71572
1.76708
1.77758
1.77238
1.75585
1.74345
1.74299
1.7433
1.7479
1.75163
1.74975
1.7467
1.73947
1.72749
1.71772
1.71303
1.70996
1.7101
1.71192
1.71138
1.70664
1.69926
1.68844
1.67908
1.67657
1.67592
1.67593
1.67938
1.68313
1.68244
1.67711
1.66938
1.65872
1.64852
1.64384
1.64162
1.64069
1.6423
1.64461
1.64358
1.64033
1.63559
1.62826
1.62052
1.61647
1.61477
1.61443
1.61616
1.62272
1.64006
1.66788
1.70265
1.72127
1.72182
1.72036
1.71944
1.71986
1.7182
1.71298
1.70509
1.69568
1.68887
1.68598
1.6847
1.68548
1.68606
1.68341
1.67895
1.67355
1.66587
1.65883
1.65525
1.6526
1.65116
1.65144
1.65115
1.6471
1.64157
1.63502
1.62805
1.62365
1.62018
1.61719
1.61583
1.61491
1.75861
1.75377
1.75195
1.7503
1.74568
1.73714
1.73419
1.7342
1.73429
1.7349
1.73521
1.73511
1.73493
1.7348
1.73334
1.7259
1.71345
1.70831
1.70747
1.70697
1.70721
1.70801
1.70754
1.70719
1.70698
1.70642
1.702
1.68905
1.67752
1.67522
1.67446
1.67443
1.67567
1.67572
1.67583
1.67596
1.67593
1.67534
1.67023
1.65732
1.64775
1.6468
1.6468
1.64778
1.65005
1.6505
1.6503
1.64947
1.64749
1.64263
1.63192
1.62037
1.61696
1.61665
1.61699
1.61792
1.6187
1.61977
1.61991
1.61987
1.61914
1.61428
1.60431
1.59821
1.59659
1.59529
1.59356
1.5913
1.58796
1.5821
1.57506
1.57303
1.57318
1.57488
1.57751
1.57788
1.57824
1.57826
1.57769
1.57586
1.57074
1.56014
1.54682
1.53927
1.5374
1.53743
1.54066
1.54684
1.54943
1.54855
1.54761
1.54647
1.54373
1.53688
1.52414
1.51382
1.5113
1.51153
1.51397
1.5203
1.52712
1.52882
1.52694
1.5236
1.51878
1.51085
1.49713
1.48384
1.47972
1.47969
1.4813
1.48772
1.49792
1.50387
1.50385
1.50293
1.5002
1.49235
1.4771
1.46176
1.45612
1.45516
1.45557
1.46031
1.47016
1.47615
1.47588
1.47438
1.4708
1.46184
1.44615
1.43388
1.43043
1.43001
1.43149
1.43838
1.44878
1.45298
1.4529
1.45282
1.45035
1.44122
1.42544
1.41479
1.41151
1.41059
1.41132
1.41628
1.42457
1.42752
1.42679
1.42559
1.42301
1.41563
1.40267
1.39503
1.39411
1.39406
1.39562
1.40071
1.40483
1.40454
1.40211
1.39931
1.39508
1.38699
1.37726
1.37436
1.37793
1.41153
1.51722
1.64831
1.74967
1.7841
1.78304
1.77457
1.75929
1.74476
1.73817
1.73742
1.74233
1.75206
1.75337
1.75043
1.74302
1.73142
1.72077
1.71517
1.71091
1.71015
1.71232
1.7131
1.70953
1.70273
1.69327
1.68225
1.67627
1.67471
1.67425
1.67729
1.68266
1.68341
1.67951
1.67245
1.66254
1.65164
1.64524
1.64267
1.64132
1.64252
1.64522
1.64478
1.64169
1.63734
1.63041
1.62208
1.6172
1.61495
1.61448
1.61665
1.62363
1.64159
1.67008
1.70437
1.72428
1.72407
1.72269
1.72188
1.72213
1.71965
1.71384
1.70685
1.69897
1.69169
1.68827
1.68598
1.68578
1.68629
1.68409
1.67984
1.67506
1.66818
1.66099
1.65691
1.65405
1.65199
1.65203
1.65217
1.64946
1.64437
1.63834
1.63127
1.62562
1.6219
1.61862
1.61675
1.6161
1.61368
1.75262
1.75101
1.75016
1.74784
1.74056
1.73475
1.73463
1.73461
1.73491
1.73537
1.73512
1.73458
1.73422
1.73334
1.72787
1.71555
1.70811
1.70711
1.70657
1.70664
1.70831
1.70849
1.70813
1.70812
1.70795
1.70523
1.69429
1.6798
1.67518
1.67427
1.67399
1.67558
1.67667
1.6763
1.67647
1.67654
1.67633
1.67309
1.6619
1.64958
1.64697
1.64689
1.64747
1.64992
1.65113
1.65103
1.65066
1.64925
1.64569
1.63643
1.62375
1.61803
1.61746
1.61758
1.61962
1.6209
1.62162
1.62252
1.62258
1.6218
1.61729
1.60727
1.59861
1.59601
1.59463
1.59325
1.59171
1.58945
1.58519
1.57866
1.57626
1.57648
1.57743
1.57858
1.5787
1.57878
1.57863
1.57793
1.5763
1.57229
1.5633
1.55059
1.54246
1.54051
1.54047
1.54332
1.54858
1.55055
1.54963
1.54856
1.54713
1.54444
1.53838
1.52685
1.51614
1.51307
1.51337
1.51601
1.52241
1.52874
1.5302
1.52879
1.52605
1.52152
1.5138
1.50047
1.48646
1.4813
1.48099
1.48218
1.48847
1.49901
1.50528
1.50538
1.50477
1.5025
1.49515
1.48024
1.46437
1.45823
1.45724
1.45757
1.46203
1.47185
1.47854
1.47849
1.47692
1.47336
1.46471
1.44913
1.43593
1.43182
1.43122
1.43236
1.43865
1.44925
1.4544
1.45451
1.45461
1.4527
1.44432
1.42866
1.41738
1.41387
1.41282
1.41328
1.41752
1.42564
1.42931
1.42861
1.42717
1.42476
1.41832
1.40585
1.39671
1.39516
1.39519
1.39649
1.40131
1.40621
1.40652
1.40426
1.40126
1.39731
1.3897
1.3795
1.37613
1.38467
1.43026
1.55733
1.68466
1.7689
1.78909
1.78644
1.77573
1.76138
1.75018
1.7434
1.7412
1.74372
1.75083
1.75297
1.75024
1.74417
1.7329
1.72172
1.71641
1.71301
1.71225
1.71406
1.71521
1.71149
1.70461
1.69552
1.68418
1.67798
1.67664
1.67592
1.67783
1.68281
1.68419
1.68084
1.67446
1.66546
1.6548
1.64714
1.64409
1.64242
1.64298
1.64574
1.6462
1.6435
1.6392
1.63247
1.62382
1.61783
1.61523
1.61463
1.61687
1.62467
1.64304
1.67227
1.70604
1.72535
1.72783
1.72543
1.72303
1.72288
1.72139
1.71573
1.70869
1.70111
1.694
1.69035
1.68764
1.68631
1.68661
1.68552
1.68145
1.677
1.67035
1.66225
1.65757
1.65507
1.65307
1.653
1.65356
1.65192
1.64717
1.64147
1.63408
1.62789
1.62431
1.62117
1.61881
1.61791
1.61585
1.61137
1.75001
1.74945
1.74852
1.74355
1.73608
1.73497
1.73503
1.73513
1.73559
1.73551
1.73474
1.73403
1.73326
1.72912
1.71783
1.70818
1.70656
1.70609
1.706
1.70784
1.70935
1.70883
1.70899
1.70911
1.70768
1.69902
1.68315
1.67541
1.6741
1.6736
1.67501
1.67768
1.6772
1.67722
1.67737
1.67736
1.67555
1.66653
1.65244
1.64723
1.64698
1.64719
1.64933
1.65164
1.65159
1.65149
1.65065
1.6482
1.64071
1.62774
1.61962
1.61854
1.61846
1.62016
1.62335
1.62366
1.6243
1.62452
1.62402
1.62
1.60971
1.59938
1.59574
1.59456
1.59316
1.59157
1.59006
1.58801
1.58351
1.57916
1.57926
1.57969
1.58002
1.57976
1.57954
1.57919
1.57837
1.57679
1.57364
1.5663
1.55462
1.54564
1.54347
1.54328
1.54542
1.55007
1.55154
1.55074
1.54978
1.54825
1.54567
1.54024
1.52997
1.51903
1.51503
1.51518
1.51771
1.52396
1.52964
1.53066
1.52986
1.52805
1.52425
1.51706
1.50446
1.49003
1.48368
1.48294
1.48369
1.48942
1.49988
1.50623
1.50639
1.50605
1.50428
1.49757
1.4832
1.46695
1.46031
1.45926
1.45958
1.46382
1.47356
1.4809
1.48113
1.47959
1.47609
1.46768
1.45226
1.43826
1.43342
1.43256
1.43337
1.43897
1.44964
1.45585
1.45615
1.45631
1.45478
1.44712
1.43163
1.41983
1.41619
1.41511
1.41538
1.41914
1.42705
1.43133
1.43076
1.42906
1.42663
1.42081
1.40903
1.39855
1.39618
1.39623
1.39735
1.40192
1.40748
1.40847
1.4066
1.40345
1.39964
1.3924
1.38187
1.37957
1.39502
1.47003
1.5999
1.72415
1.76313
1.7849
1.78897
1.78477
1.7725
1.7555
1.74783
1.74456
1.74478
1.74963
1.75121
1.74853
1.74352
1.73483
1.7244
1.718
1.71495
1.71444
1.71644
1.71823
1.7149
1.70723
1.69747
1.68586
1.67823
1.67605
1.6754
1.67749
1.68311
1.68554
1.68286
1.67694
1.66805
1.65672
1.64814
1.64492
1.64319
1.64324
1.64574
1.64693
1.64475
1.64082
1.635
1.62647
1.61923
1.61585
1.61461
1.61669
1.62482
1.64464
1.67365
1.7069
1.72875
1.7296
1.72768
1.72437
1.7236
1.72295
1.71842
1.71173
1.7037
1.69537
1.69077
1.68819
1.68677
1.6872
1.68712
1.68355
1.67878
1.67283
1.66512
1.65886
1.65571
1.65338
1.65308
1.654
1.65343
1.64934
1.64407
1.63743
1.63067
1.62644
1.62329
1.62068
1.61965
1.61847
1.61473
1.61016
1.74846
1.74803
1.74507
1.73789
1.73504
1.73533
1.73542
1.73575
1.73623
1.73532
1.73422
1.73337
1.73004
1.72008
1.70866
1.70595
1.70561
1.7054
1.70693
1.70974
1.70941
1.70957
1.70997
1.70942
1.70301
1.6873
1.67633
1.67415
1.67338
1.67419
1.67807
1.67855
1.67816
1.67834
1.67844
1.67761
1.67084
1.65646
1.64818
1.64735
1.64727
1.64861
1.65182
1.65226
1.65223
1.65179
1.65016
1.64453
1.63233
1.62177
1.61957
1.61935
1.62057
1.6244
1.62538
1.62582
1.626
1.62557
1.62256
1.61303
1.60058
1.59549
1.59441
1.59339
1.59211
1.59064
1.58912
1.58744
1.58475
1.58182
1.5812
1.58116
1.58078
1.58018
1.57969
1.57896
1.57751
1.57479
1.56904
1.55875
1.54892
1.54608
1.54586
1.54704
1.55086
1.55245
1.55182
1.55114
1.54977
1.54735
1.54254
1.53348
1.52256
1.51745
1.51727
1.51911
1.52489
1.53002
1.53052
1.53025
1.52931
1.52653
1.52027
1.50876
1.49438
1.4868
1.48553
1.486
1.49098
1.50093
1.50696
1.50706
1.50683
1.50544
1.49942
1.48591
1.46949
1.46232
1.4612
1.46152
1.46563
1.47524
1.48305
1.48365
1.48225
1.47892
1.47082
1.45558
1.44075
1.4352
1.43408
1.43458
1.43955
1.45015
1.45723
1.45771
1.45791
1.45665
1.4496
1.43429
1.42193
1.41831
1.41733
1.41754
1.42105
1.42884
1.43367
1.43327
1.43126
1.42874
1.4233
1.41221
1.40059
1.39722
1.39722
1.3982
1.40254
1.40869
1.41046
1.40899
1.406
1.40217
1.39538
1.38451
1.38374
1.41383
1.51604
1.64274
1.73887
1.7913
1.79528
1.79284
1.78487
1.77275
1.76013
1.75027
1.74525
1.74451
1.74822
1.75221
1.75043
1.74522
1.73551
1.72432
1.71926
1.71705
1.71624
1.7181
1.72023
1.71785
1.71069
1.70083
1.6889
1.67988
1.67725
1.67655
1.67809
1.68333
1.68638
1.68429
1.67887
1.67098
1.66057
1.65063
1.64579
1.6435
1.64307
1.64506
1.647
1.64541
1.64207
1.63705
1.62905
1.62128
1.61756
1.61593
1.61781
1.6257
1.64582
1.6761
1.70715
1.73069
1.73097
1.72833
1.72482
1.72413
1.72455
1.72197
1.71565
1.70761
1.69835
1.69153
1.68843
1.68656
1.68704
1.68784
1.68539
1.68084
1.67524
1.66737
1.66063
1.65754
1.65524
1.65408
1.65458
1.65458
1.65115
1.64622
1.63987
1.63233
1.62776
1.62487
1.62236
1.62116
1.62062
1.61743
1.61283
1.6081
1.74693
1.74514
1.73933
1.73509
1.73539
1.73572
1.73595
1.73687
1.73634
1.73478
1.73363
1.73068
1.72195
1.70958
1.70544
1.7052
1.70496
1.70604
1.70961
1.70998
1.7099
1.71049
1.71055
1.70601
1.69167
1.67786
1.67425
1.67335
1.67355
1.67746
1.68021
1.67933
1.67946
1.67958
1.67924
1.67449
1.66109
1.64984
1.64793
1.64765
1.64829
1.65157
1.65312
1.65299
1.65278
1.65165
1.64759
1.63689
1.62451
1.62051
1.62007
1.62067
1.62459
1.62638
1.62669
1.62703
1.62676
1.62471
1.61678
1.60322
1.59562
1.59426
1.59372
1.59286
1.5917
1.59054
1.58942
1.58844
1.5872
1.58436
1.5818
1.58117
1.58071
1.58012
1.57937
1.57818
1.57599
1.57169
1.56313
1.55265
1.54846
1.54827
1.54856
1.55097
1.55308
1.55274
1.5524
1.55141
1.54931
1.54527
1.53725
1.52655
1.52034
1.51977
1.52074
1.52522
1.52988
1.53028
1.53025
1.52985
1.52802
1.52305
1.51303
1.49907
1.49048
1.48865
1.48888
1.4931
1.50224
1.50777
1.50774
1.50738
1.50608
1.50069
1.48834
1.47206
1.46432
1.46308
1.4634
1.46738
1.47685
1.48497
1.48587
1.48469
1.4817
1.47398
1.45902
1.44351
1.43723
1.4358
1.43605
1.44041
1.45074
1.45866
1.45937
1.45944
1.45831
1.45179
1.43671
1.42379
1.42013
1.41933
1.41953
1.42299
1.43086
1.4363
1.43615
1.43389
1.43119
1.42593
1.41542
1.40281
1.39829
1.39819
1.399
1.40312
1.40982
1.41257
1.4115
1.40887
1.40482
1.39894
1.38778
1.39282
1.43409
1.5602
1.68826
1.76008
1.7959
1.80022
1.79633
1.78545
1.77049
1.75702
1.75
1.74667
1.7463
1.74879
1.75251
1.75122
1.7468
1.73883
1.72741
1.71904
1.716
1.71493
1.71735
1.72076
1.71994
1.71394
1.70466
1.69256
1.68232
1.6788
1.67761
1.67837
1.68327
1.68706
1.68569
1.68122
1.67399
1.66339
1.65336
1.64831
1.64582
1.64451
1.64552
1.64736
1.64617
1.64305
1.6386
1.63143
1.62322
1.61888
1.61677
1.61846
1.62693
1.64702
1.67802
1.70875
1.73225
1.73183
1.72836
1.72517
1.72494
1.72558
1.7237
1.71796
1.71087
1.70223
1.6942
1.6902
1.68752
1.68719
1.68795
1.6865
1.68224
1.67719
1.66978
1.6619
1.65785
1.65559
1.65414
1.65467
1.65515
1.65261
1.64805
1.64241
1.63542
1.62964
1.62626
1.62345
1.62182
1.62145
1.61972
1.61541
1.61075
1.60513
1.74425
1.73998
1.73536
1.73529
1.736
1.73639
1.73746
1.73759
1.73573
1.73411
1.73117
1.72329
1.71061
1.70509
1.70481
1.70465
1.70546
1.7092
1.71066
1.71023
1.71079
1.71108
1.70791
1.69544
1.67975
1.6745
1.67345
1.67324
1.67639
1.68126
1.68098
1.68072
1.68079
1.68064
1.67744
1.66584
1.65211
1.64856
1.64823
1.64846
1.65111
1.65385
1.65383
1.65374
1.65295
1.65009
1.64102
1.62769
1.62152
1.6207
1.62072
1.62363
1.62698
1.62715
1.62761
1.62753
1.62628
1.62033
1.60752
1.59694
1.59437
1.59373
1.5938
1.59311
1.5922
1.59165
1.59124
1.59073
1.58899
1.58435
1.58146
1.58074
1.58024
1.57966
1.57869
1.57707
1.57398
1.56745
1.55741
1.55087
1.55019
1.55027
1.55099
1.5531
1.55352
1.55339
1.55284
1.55127
1.54806
1.54122
1.53105
1.52365
1.52252
1.52282
1.5257
1.52917
1.52996
1.53015
1.52996
1.52878
1.5251
1.51679
1.5039
1.49461
1.49214
1.49218
1.49559
1.50365
1.50861
1.50843
1.50783
1.50643
1.5016
1.49061
1.47487
1.46635
1.46492
1.46524
1.46908
1.47835
1.48658
1.48774
1.48677
1.48423
1.47706
1.4626
1.44655
1.43948
1.43775
1.43777
1.44161
1.45167
1.4601
1.461
1.46092
1.4598
1.45373
1.43902
1.42537
1.42158
1.42101
1.42128
1.4248
1.4329
1.43907
1.43924
1.43695
1.43403
1.42881
1.41857
1.40516
1.39949
1.39918
1.3998
1.4036
1.41072
1.41475
1.41413
1.41194
1.40816
1.40165
1.39326
1.40708
1.47844
1.59618
1.72674
1.77381
1.7909
1.79426
1.79299
1.78859
1.77784
1.7629
1.75243
1.74715
1.74631
1.74948
1.75248
1.75032
1.74572
1.73883
1.72899
1.72142
1.71892
1.71755
1.71903
1.72216
1.72149
1.71572
1.70735
1.69616
1.68504
1.67976
1.67822
1.67834
1.68248
1.68729
1.68689
1.68306
1.67672
1.66666
1.65574
1.64926
1.64658
1.64492
1.64561
1.64779
1.6473
1.64446
1.64047
1.63382
1.6255
1.62057
1.61813
1.61965
1.62803
1.64951
1.67938
1.7124
1.73195
1.73219
1.73003
1.72615
1.72572
1.72627
1.72462
1.71929
1.7127
1.70461
1.6966
1.69215
1.68912
1.68779
1.68829
1.68771
1.68356
1.67871
1.67243
1.66444
1.65933
1.65677
1.65498
1.65506
1.65577
1.65408
1.64971
1.64461
1.63772
1.63167
1.62842
1.62583
1.62384
1.62325
1.62168
1.61757
1.61303
1.60774
1.60256
1.73978
1.73568
1.73519
1.73636
1.73715
1.73835
1.73883
1.73709
1.73484
1.73155
1.72417
1.71163
1.70502
1.70452
1.70449
1.70523
1.70899
1.71137
1.71076
1.71115
1.71151
1.70911
1.69828
1.68166
1.67477
1.67353
1.67314
1.67538
1.68122
1.68277
1.68208
1.6821
1.68196
1.67981
1.67034
1.65516
1.64928
1.64881
1.64887
1.65099
1.65394
1.65464
1.65463
1.65413
1.65215
1.6448
1.63128
1.62272
1.62141
1.62108
1.62251
1.62619
1.62737
1.62794
1.62801
1.62738
1.62331
1.61229
1.59982
1.59522
1.59433
1.59414
1.59483
1.59425
1.59399
1.59406
1.59396
1.59291
1.58791
1.58214
1.5807
1.58011
1.57955
1.57885
1.57768
1.57566
1.57147
1.56279
1.55425
1.55228
1.55152
1.55159
1.55238
1.55401
1.55413
1.55388
1.5529
1.55048
1.54508
1.53578
1.52727
1.52526
1.52518
1.52655
1.52865
1.52943
1.52992
1.52989
1.52916
1.52652