/*--------------------------------*- C++ -*----------------------------------*\
  =========                 |
  \\      /  F ield         | OpenFOAM: The Open Source CFD Toolbox
   \\    /   O peration     | Website:  https://openfoam.org
    \\  /    A nd           | Version:  7
     \\/     M anipulation  |
\*---------------------------------------------------------------------------*/
FoamFile
{
    version     2.0;
    format      ascii;
    class       volScalarField;
    location    "1.5";
    object      p;
}
// * * * * * * * * * * * * * * * * * * * * * * * * * * * * * * * * * * * * * //

dimensions      [1 -1 -2 0 0 0 0];

internalField   nonuniform List<scalar> 
16512
(
1.92917
1.91523
1.88883
1.83982
1.77517
1.72721
1.70979
1.70192
1.69453
1.68517
1.67419
1.66174
1.64795
1.63085
1.60771
1.57824
1.5497
1.53241
1.51972
1.50483
1.48998
1.47856
1.46466
1.45235
1.4426
1.42837
1.41206
1.39765
1.37875
1.35883
1.35005
1.34019
1.33066
1.32217
1.31061
1.29716
1.28157
1.26131
1.24573
1.23839
1.22943
1.22125
1.21549
1.20805
1.19684
1.1816
1.16128
1.14687
1.14236
1.13912
1.13552
1.13113
1.12654
1.12131
1.11387
1.10003
1.07742
1.05967
1.0546
1.05161
1.04881
1.04543
1.04148
1.03671
1.03094
1.02195
1.00606
0.989187
0.982112
0.97854
0.975055
0.972514
0.970487
0.967195
0.961815
0.952926
0.937341
0.92097
0.916175
0.914506
0.913574
0.909925
0.906297
0.904088
0.901837
0.898341
0.891692
0.881003
0.868873
0.862981
0.860758
0.859237
0.857065
0.855082
0.852448
0.847874
0.840094
0.827599
0.817214
0.814701
0.81352
0.81151
0.808623
0.805601
0.802645
0.799548
0.795352
0.788381
0.777735
0.771341
0.768565
0.766232
0.76444
0.763557
0.76282
0.761081
0.758596
0.754848
0.747646
0.73774
0.733059
0.731745
0.730476
0.728866
0.726698
0.72566
0.725528
0.724098
0.7263
0.737919
0.767815
0.828626
0.9184
1.00884
1.07762
1.11138
1.14372
1.15613
1.16663
1.17366
1.17399
1.1716
1.17171
1.17342
1.17856
1.18686
1.195
1.19763
1.19782
1.19787
1.19641
1.19442
1.1949
1.19493
1.19454
1.19468
1.19694
1.20111
1.20262
1.20302
1.20241
1.19854
1.19153
1.1894
1.19075
1.19344
1.19637
1.19861
1.19899
1.19751
1.19476
1.19008
1.18375
1.17682
1.17273
1.17268
1.17516
1.18243
1.19524
1.20672
1.20962
1.20867
1.20554
1.19992
1.1895
1.18131
1.17917
1.17928
1.18182
1.18874
1.19566
1.19666
1.1947
1.18829
1.17635
1.16576
1.16326
1.16271
1.16273
1.16611
1.17697
1.19143
1.19624
1.19501
1.18943
1.17854
1.16656
1.16285
1.16241
1.16254
1.1656
1.1733
1.17824
1.17812
1.17607
1.16902
1.15556
1.14469
1.14206
1.14155
1.14211
1.14666
1.15688
1.1649
1.16559
1.16464
1.16198
1.15502
1.14522
1.1385
1.13566
1.13474
1.13461
1.13442
1.13402
1.13357
1.13326
1.13365
1.13621
1.13897
1.13912
1.13839
1.13548
1.12992
1.12601
1.12495
1.1243
1.12379
1.12351
1.12297
1.12202
1.12098
1.11992
1.11844
1.11577
1.11148
1.10747
1.10612
1.96701
1.93873
1.8866
1.81749
1.7671
1.7486
1.74182
1.73506
1.725
1.71481
1.7034
1.68923
1.67091
1.6468
1.6172
1.58898
1.56869
1.55536
1.54381
1.52973
1.51183
1.49597
1.48229
1.46838
1.45829
1.44776
1.43319
1.41848
1.40168
1.37854
1.36494
1.3563
1.34511
1.33493
1.32417
1.31147
1.29861
1.28349
1.26673
1.25603
1.24669
1.237
1.22904
1.22004
1.20631
1.18831
1.17522
1.16828
1.1634
1.15929
1.15442
1.14833
1.14172
1.13398
1.12203
1.10234
1.08294
1.07631
1.07284
1.07033
1.06708
1.06275
1.05814
1.05197
1.04279
1.02711
1.01038
1.00094
0.99689
0.993786
0.989988
0.986587
0.983995
0.980462
0.974258
0.962588
0.944061
0.931282
0.928008
0.926116
0.925529
0.922633
0.918556
0.915734
0.912853
0.908685
0.900605
0.889647
0.8803
0.874802
0.872161
0.870378
0.867785
0.865253
0.862245
0.8571
0.847885
0.834598
0.827165
0.825566
0.824483
0.822781
0.820089
0.817002
0.81381
0.810075
0.803884
0.792954
0.783971
0.780589
0.778339
0.776012
0.77408
0.77289
0.772006
0.770095
0.76692
0.761779
0.753133
0.745472
0.743424
0.742478
0.741634
0.739942
0.737477
0.734258
0.730644
0.726488
0.72077
0.717691
0.719026
0.728328
0.760891
0.818803
0.909751
0.997951
1.08246
1.1278
1.14558
1.15994
1.15901
1.1582
1.16232
1.16587
1.1724
1.18268
1.18909
1.19036
1.191
1.19139
1.19054
1.18898
1.18895
1.18856
1.188
1.18853
1.1925
1.1971
1.1985
1.19894
1.19835
1.19603
1.19232
1.19053
1.1911
1.19203
1.1925
1.19297
1.19343
1.1924
1.19011
1.18633
1.18025
1.17586
1.17566
1.17782
1.18454
1.19594
1.20461
1.20606
1.20521
1.20268
1.19751
1.1876
1.18037
1.17833
1.17836
1.18104
1.18852
1.19636
1.1979
1.19619
1.19017
1.17816
1.16543
1.16198
1.16155
1.16196
1.16607
1.17801
1.19385
1.19931
1.19805
1.19242
1.18139
1.16734
1.16238
1.16178
1.16181
1.16428
1.17221
1.17945
1.18003
1.17863
1.17304
1.16097
1.14775
1.14341
1.1429
1.14333
1.14732
1.15727
1.1668
1.16837
1.16729
1.16468
1.15848
1.14836
1.13954
1.13598
1.13434
1.13368
1.1335
1.13327
1.133
1.13298
1.13402
1.13796
1.14288
1.14406
1.14327
1.13948
1.13256
1.1283
1.12734
1.12686
1.12656
1.12654
1.12625
1.125
1.12344
1.12178
1.11972
1.11718
1.11406
1.11029
1.10809
1.10772
1.98852
1.93276
1.85996
1.80712
1.78699
1.77984
1.77754
1.76957
1.75811
1.74687
1.73407
1.71607
1.6874
1.65234
1.62417
1.6054
1.59216
1.5802
1.56749
1.552
1.53216
1.51368
1.5002
1.4879
1.47727
1.46799
1.45558
1.43767
1.4175
1.39614
1.37958
1.37109
1.36145
1.35004
1.34049
1.33048
1.31916
1.30462
1.28548
1.27086
1.26088
1.25094
1.24144
1.23097
1.21623
1.20072
1.19502
1.19081
1.18489
1.17822
1.17128
1.16356
1.15461
1.14241
1.12403
1.10578
1.09898
1.09573
1.09202
1.0889
1.08536
1.08068
1.07481
1.06554
1.0483
1.02818
1.0201
1.01583
1.01168
1.00876
1.00516
1.00088
0.99754
0.99313
0.985249
0.970642
0.953025
0.943901
0.940894
0.938718
0.937563
0.935073
0.93061
0.926733
0.923021
0.917376
0.907621
0.898086
0.892395
0.887389
0.883992
0.881776
0.879056
0.87589
0.872033
0.865585
0.853876
0.841191
0.83717
0.835802
0.834867
0.83358
0.831155
0.827936
0.824118
0.818819
0.809633
0.798068
0.793479
0.791552
0.788665
0.786183
0.784101
0.782454
0.781005
0.778941
0.774853
0.767688
0.758556
0.753989
0.752411
0.751443
0.751012
0.749701
0.747647
0.744544
0.739617
0.73254
0.723033
0.718715
0.718694
0.719327
0.722485
0.732286
0.762572
0.818924
0.895598
0.985082
1.05652
1.11688
1.13819
1.15232
1.16724
1.16694
1.17166
1.18144
1.18561
1.18705
1.18823
1.18773
1.18427
1.18191
1.18198
1.18187
1.18262
1.18627
1.19269
1.19564
1.19626
1.19612
1.19485
1.19227
1.1887
1.1858
1.18535
1.18575
1.18621
1.18757
1.18918
1.18879
1.18711
1.18384
1.18064
1.18038
1.18216
1.18716
1.19496
1.20012
1.20068
1.20007
1.19831
1.19405
1.1854
1.17906
1.17728
1.17735
1.18016
1.18813
1.19645
1.19825
1.19696
1.19176
1.18037
1.16627
1.16147
1.16098
1.1617
1.16638
1.17915
1.19601
1.20215
1.20094
1.19551
1.1847
1.1686
1.1617
1.16072
1.16058
1.16262
1.17055
1.18009
1.18203
1.18093
1.17639
1.16597
1.15165
1.14554
1.145
1.14524
1.14852
1.15748
1.16732
1.16988
1.16906
1.16694
1.16223
1.1527
1.14145
1.13611
1.13431
1.13328
1.13275
1.13241
1.13221
1.13247
1.13438
1.13998
1.14674
1.14885
1.14809
1.14365
1.13502
1.12932
1.12836
1.12809
1.12802
1.12804
1.12793
1.12714
1.12553
1.12372
1.12159
1.11892
1.11613
1.11367
1.1115
1.11
1.10956
1.97833
1.90132
1.8471
1.82619
1.81879
1.81762
1.81533
1.80665
1.79557
1.78205
1.75973
1.72498
1.68943
1.65804
1.63807
1.62714
1.61704
1.60528
1.59113
1.57336
1.55109
1.53238
1.5202
1.50918
1.49873
1.48815
1.47435
1.45299
1.42856
1.41122
1.39719
1.38773
1.37982
1.36952
1.35999
1.35188
1.34036
1.32199
1.29895
1.2835
1.2741
1.26476
1.25437
1.243
1.23023
1.22131
1.2168
1.21193
1.20441
1.19399
1.18387
1.1743
1.16296
1.14721
1.12934
1.12151
1.11859
1.11614
1.11209
1.10762
1.10306
1.09701
1.08737
1.07087
1.04936
1.03752
1.03485
1.03203
1.02744
1.02409
1.02067
1.01542
1.00999
1.00355
0.99285
0.976074
0.9637
0.958991
0.955075
0.952158
0.950386
0.947776
0.943241
0.938196
0.93308
0.925393
0.914243
0.907704
0.904242
0.900118
0.896008
0.893338
0.890609
0.886933
0.881895
0.873543
0.86038
0.850497
0.84802
0.846517
0.845365
0.844164
0.842081
0.838968
0.83441
0.826533
0.813576
0.805031
0.802957
0.801749
0.799267
0.796572
0.794347
0.792422
0.790648
0.788135
0.782923
0.773927
0.766504
0.763228
0.761409
0.76024
0.759606
0.758369
0.756351
0.753403
0.748083
0.739394
0.731383
0.726852
0.724855
0.723876
0.724746
0.726221
0.728857
0.737038
0.757156
0.803953
0.866809
0.947163
1.02528
1.08792
1.13239
1.14673
1.16491
1.18241
1.18498
1.18686
1.18802
1.18697
1.18174
1.17873
1.17966
1.1805
1.18324
1.19032
1.19529
1.19575
1.19526
1.19416
1.1918
1.1874
1.18243
1.18038
1.18066
1.18144
1.18294
1.18692
1.18966
1.18965
1.18848
1.18671
1.18606
1.18665
1.18863
1.19249
1.19549
1.19545
1.19441
1.19296
1.18945
1.18226
1.17723
1.17581
1.17619
1.17936
1.18779
1.19634
1.19802
1.19679
1.19218
1.1817
1.1671
1.16114
1.16049
1.16137
1.16656
1.17993
1.19728
1.20396
1.2029
1.19808
1.18848
1.17171
1.16164
1.1599
1.15957
1.16106
1.16862
1.18
1.18381
1.18305
1.17928
1.17032
1.15588
1.14799
1.14723
1.14746
1.14994
1.15748
1.16694
1.17017
1.16968
1.16808
1.16502
1.1584
1.14674
1.13729
1.1345
1.1334
1.13251
1.13182
1.13138
1.13169
1.13449
1.14187
1.15015
1.15288
1.15224
1.14783
1.13864
1.13027
1.12844
1.12827
1.12828
1.12863
1.12853
1.12784
1.1268
1.12522
1.12327
1.12102
1.11885
1.11709
1.11572
1.11441
1.11269
1.11138
1.94211
1.88728
1.86571
1.85818
1.85811
1.86072
1.85473
1.84517
1.83285
1.80786
1.76187
1.71812
1.69172
1.67499
1.66219
1.65153
1.64129
1.62949
1.61458
1.59496
1.57068
1.5519
1.54108
1.53064
1.51939
1.50678
1.48922
1.46371
1.43985
1.42748
1.41752
1.40777
1.40021
1.39219
1.38237
1.37221
1.35825
1.33383
1.30904
1.2962
1.28835
1.27967
1.26938
1.2584
1.24991
1.2445
1.23908
1.2314
1.21927
1.20502
1.19325
1.18215
1.16865
1.15354
1.14549
1.14185
1.13881
1.13615
1.13196
1.12636
1.11926
1.10803
1.09083
1.07082
1.05781
1.05381
1.05149
1.04893
1.04452
1.03994
1.03585
1.02995
1.02148
1.0111
0.997297
0.982556
0.976594
0.974261
0.970863
0.966865
0.963803
0.960376
0.955365
0.949091
0.94158
0.931338
0.921822
0.918702
0.916134
0.912347
0.908205
0.904944
0.902075
0.897771
0.890499
0.879237
0.866725
0.860935
0.858958
0.85745
0.855916
0.854294
0.852157
0.848695
0.842725
0.832168
0.8199
0.815253
0.813331
0.811903
0.810049
0.807262
0.804698
0.802204
0.799839
0.796426
0.78976
0.779743
0.774886
0.77269
0.770394
0.768763
0.767841
0.766494
0.764363
0.760614
0.754355
0.745895
0.740639
0.737767
0.735424
0.733567
0.732574
0.731319
0.731033
0.730401
0.728241
0.730483
0.741399
0.773527
0.843082
0.923584
1.0075
1.07232
1.12802
1.16027
1.16824
1.17519
1.17809
1.17791
1.17419
1.17377
1.17617
1.17908
1.18468
1.19191
1.19396
1.19393
1.19296
1.19076
1.18744
1.18251
1.17887
1.17827
1.17921
1.1809
1.1857
1.19269
1.19535
1.1954
1.19363
1.19064
1.18925
1.1885
1.18872
1.19044
1.19117
1.19029
1.18863
1.18512
1.17994
1.17607
1.17476
1.17535
1.17873
1.1873
1.19613
1.19785
1.19651
1.19213
1.18271
1.16793
1.16064
1.15985
1.16101
1.16668
1.18052
1.19759
1.20407
1.20324
1.19922
1.19112
1.17536
1.16231
1.15945
1.15908
1.16026
1.1671
1.17946
1.18534
1.18493
1.18192
1.17409
1.16013
1.15072
1.14926
1.14958
1.15112
1.15687
1.16604
1.17011
1.1698
1.16871
1.16676
1.16283
1.15402
1.14172
1.13541
1.13381
1.13278
1.13188
1.13115
1.13123
1.13459
1.14358
1.15305
1.15571
1.15503
1.1509
1.14228
1.13155
1.12786
1.12756
1.12772
1.12809
1.12909
1.12882
1.12783
1.12668
1.12521
1.12341
1.12163
1.12051
1.11996
1.11911
1.11789
1.11527
1.11254
1.92786
1.90615
1.89851
1.89903
1.90647
1.90353
1.8941
1.8821
1.85758
1.80829
1.75094
1.71923
1.70741
1.69882
1.68861
1.67746
1.66592
1.65329
1.63755
1.61605
1.59111
1.57261
1.56094
1.55014
1.5372
1.52121
1.50018
1.47399
1.45592
1.44745
1.43976
1.43112
1.42331
1.41622
1.40645
1.3912
1.36756
1.34058
1.3213
1.31202
1.30464
1.29643
1.28766
1.27966
1.27366
1.26773
1.25958
1.24556
1.22704
1.21254
1.20171
1.19026
1.17766
1.1704
1.16718
1.16367
1.15928
1.15479
1.14864
1.13944
1.12667
1.10981
1.09113
1.07961
1.07578
1.0725
1.06946
1.06654
1.06213
1.0561
1.04909
1.0407
1.0289
1.01528
1.00267
0.994454
0.991579
0.989531
0.986381
0.98229
0.978005
0.973288
0.967347
0.959691
0.949271
0.937288
0.931652
0.92973
0.927839
0.924355
0.920459
0.91683
0.913361
0.907942
0.898043
0.885886
0.87632
0.872207
0.870208
0.868645
0.866613
0.864498
0.862104
0.857947
0.849139
0.835473
0.827508
0.825626
0.82384
0.82223
0.82081
0.818248
0.815528
0.812743
0.809491
0.804635
0.796035
0.78708
0.783962
0.78227
0.779885
0.777682
0.776239
0.774597
0.772232
0.767565
0.759839
0.753408
0.749594
0.747491
0.745778
0.744149
0.74275
0.741195
0.738715
0.735047
0.730124
0.723715
0.720882
0.722459
0.733985
0.765163
0.829752
0.921708
1.00871
1.07306
1.1084
1.13877
1.15368
1.15968
1.16287
1.16392
1.16724
1.17531
1.18296
1.18582
1.18682
1.18707
1.18599
1.183
1.17942
1.17646
1.17491
1.17537
1.17705
1.18211
1.19152
1.19797
1.19908
1.19829
1.1942
1.1893
1.18726
1.18606
1.1856
1.18667
1.18665
1.18553
1.18375
1.18013
1.17598
1.17476
1.17527
1.17833
1.18629
1.195
1.197
1.19588
1.19219
1.18439
1.17008
1.16134
1.16002
1.16127
1.16699
1.181
1.19768
1.20352
1.2028
1.19928
1.19218
1.17774
1.16312
1.15899
1.15854
1.15984
1.16622
1.17879
1.18652
1.18651
1.18416
1.17728
1.16446
1.1537
1.15125
1.15155
1.15247
1.15561
1.16354
1.16994
1.1702
1.16941
1.16823
1.16598
1.16029
1.149
1.13805
1.13472
1.13357
1.13249
1.13163
1.13165
1.13526
1.14511
1.15538
1.15776
1.15678
1.15256
1.14446
1.13222
1.12637
1.12567
1.12603
1.1265
1.12801
1.1301
1.12991
1.12905
1.12792
1.12664
1.12519
1.12421
1.12426
1.12391
1.12273
1.12033
1.11551
1.11203
1.94781
1.94016
1.94118
1.95253
1.95314
1.9437
1.9314
1.9067
1.8556
1.78956
1.75043
1.73759
1.73152
1.72508
1.7152
1.70413
1.69193
1.67811
1.66059
1.63565
1.60889
1.59169
1.57936
1.56707
1.55208
1.53246
1.50951
1.48877
1.4777
1.47107
1.46431
1.45674
1.44873
1.43994
1.42549
1.39833
1.36847
1.34969
1.33858
1.33108
1.32446
1.31744
1.31093
1.30534
1.29928
1.29025
1.27274
1.24931
1.23172
1.22074
1.21108
1.20178
1.19585
1.19246
1.18963
1.18552
1.17992
1.17251
1.16068
1.14429
1.12661
1.10981
1.10048
1.09724
1.09521
1.09195
1.08813
1.0845
1.07891
1.0703
1.05989
1.04757
1.0323
1.01974
1.0141
1.00985
1.00693
1.00483
1.00152
0.997063
0.991888
0.985363
0.977841
0.968827
0.956837
0.946592
0.943272
0.941428
0.939518
0.936242
0.932257
0.928175
0.923508
0.916041
0.903248
0.893488
0.887729
0.883866
0.881613
0.87963
0.877243
0.874592
0.871297
0.865505
0.853725
0.841279
0.837804
0.83678
0.834972
0.83285
0.831405
0.82924
0.826309
0.823029
0.818262
0.811231
0.802071
0.795572
0.793241
0.791547
0.789282
0.78674
0.784845
0.782875
0.779887
0.774197
0.76545
0.760948
0.758287
0.755972
0.754502
0.75332
0.752028
0.750735
0.748208
0.743466
0.73594
0.726433
0.722059
0.721912
0.722139
0.724889
0.735769
0.767244
0.818566
0.898682
0.980632
1.06511
1.10254
1.12372
1.14457
1.14496
1.15574
1.17407
1.17782
1.1779
1.17882
1.179
1.17743
1.17381
1.17073
1.16987
1.17037
1.17186
1.17674
1.18673
1.19494
1.19658
1.19598
1.19314
1.18823
1.18471
1.18349
1.18245
1.18242
1.18321
1.18231
1.1809
1.17867
1.17563
1.17456
1.17501
1.17751
1.18431
1.19249
1.1948
1.19412
1.19118
1.1847
1.17214
1.16308
1.16124
1.16241
1.1677
1.18097
1.19691
1.20241
1.20177
1.19885
1.19292
1.1796
1.16407
1.15876
1.15792
1.15926
1.16554
1.17813
1.18731
1.1879
1.18596
1.17998
1.16854
1.15673
1.1532
1.15324
1.15399
1.1553
1.15983
1.168
1.17114
1.17065
1.16994
1.16878
1.16516
1.15617
1.14314
1.13611
1.13449
1.13337
1.13244
1.13267
1.13632
1.14626
1.15711
1.15928
1.1579
1.15354
1.14593
1.13316
1.12456
1.12302
1.12367
1.12436
1.12584
1.12976
1.13234
1.13221
1.13156
1.1306
1.12956
1.12857
1.12826
1.1281
1.12663
1.12402
1.11878
1.11303
1.1108
1.98346
1.9851
1.99949
2.00347
1.99395
1.98141
1.95625
1.90388
1.83116
1.7842
1.76914
1.76254
1.76
1.75366
1.74394
1.7333
1.7213
1.70587
1.68268
1.64988
1.62305
1.60788
1.59552
1.58178
1.56461
1.54345
1.52347
1.51092
1.50365
1.49735
1.49079
1.48312
1.47316
1.45654
1.42894
1.39519
1.37496
1.36713
1.35969
1.35345
1.34813
1.3428
1.33762
1.3318
1.32224
1.3011
1.27204
1.25089
1.23991
1.23231
1.22612
1.22195
1.21938
1.21645
1.21225
1.20705
1.19773
1.18057
1.16141
1.14407
1.12961
1.12252
1.11915
1.11687
1.11462
1.11086
1.10671
1.10122
1.0929
1.07966
1.06607
1.05217
1.03813
1.03184
1.0298
1.02645
1.02278
1.0202
1.0164
1.0104
1.00378
0.996132
0.986914
0.976912
0.966612
0.958635
0.955391
0.953443
0.951488
0.948236
0.943879
0.938974
0.932858
0.92285
0.909104
0.903116
0.899777
0.896072
0.893159
0.890673
0.888018
0.884816
0.880069
0.870845
0.856703
0.849601
0.847907
0.847104
0.846414
0.84395
0.841994
0.840085
0.837234
0.833266
0.826314
0.816165
0.808596
0.804797
0.802718
0.800928
0.79875
0.796021
0.793682
0.791346
0.787709
0.780769
0.772075
0.769058
0.767006
0.764344
0.762737
0.761662
0.760419
0.75903
0.756672
0.751417
0.74222
0.734102
0.729157
0.726689
0.725486
0.726172
0.727669
0.730848
0.738417
0.759486
0.802014
0.866517
0.95394
1.0283
1.09519
1.12291
1.14485
1.16953
1.17646
1.17633
1.17639
1.17324
1.16869
1.1661
1.16551
1.16618
1.16799
1.17301
1.18289
1.19116
1.19331
1.19307
1.1906
1.18538
1.18088
1.17986
1.17956
1.17978
1.18096
1.18103
1.17957
1.17737
1.1748
1.17398
1.17442
1.17638
1.18186
1.18905
1.19151
1.19121
1.189
1.18371
1.1727
1.16377
1.16165
1.16299
1.16811
1.18053
1.19475
1.19941
1.19874
1.1967
1.19243
1.18172
1.1666
1.15993
1.15857
1.1595
1.16536
1.17774
1.1877
1.18908
1.18767
1.18243
1.17216
1.15978
1.15503
1.15449
1.15483
1.15569
1.15768
1.16408
1.17134
1.17259
1.17223
1.17157
1.16928
1.16204
1.14907
1.13832
1.13531
1.13407
1.13309
1.13352
1.13723
1.14685
1.15815
1.16076
1.15921
1.1546
1.14698
1.13418
1.12358
1.12084
1.12171
1.12295
1.12474
1.12954
1.13499
1.13613
1.13577
1.13464
1.13326
1.13236
1.13164
1.13106
1.12931
1.12622
1.12093
1.11446
1.11074
1.10978
2.03107
2.04802
2.05483
2.04525
2.03222
2.00608
1.95253
1.87506
1.82017
1.8019
1.79433
1.79252
1.79204
1.78538
1.77632
1.76642
1.7543
1.73419
1.69567
1.65581
1.63549
1.62297
1.61036
1.59538
1.57684
1.55797
1.54594
1.53874
1.53235
1.52586
1.51818
1.50701
1.48674
1.45659
1.42312
1.40055
1.39342
1.3886
1.38377
1.37924
1.37481
1.36988
1.36397
1.35395
1.33116
1.2971
1.27088
1.26021
1.25465
1.25045
1.24788
1.24651
1.24392
1.23953
1.23381
1.2233
1.20263
1.17776
1.15902
1.14875
1.14412
1.14232
1.14038
1.13687
1.13365
1.12936
1.12283
1.11269
1.09934
1.08467
1.07034
1.05874
1.05149
1.04841
1.04655
1.04349
1.03904
1.03524
1.03014
1.02152
1.01239
1.00444
0.995639
0.98598
0.978737
0.973616
0.968983
0.965699
0.963196
0.959748
0.954826
0.94878
0.940804
0.928404
0.916858
0.913799
0.91148
0.907993
0.904777
0.901824
0.898721
0.894443
0.887409
0.875349
0.863727
0.86023
0.858496
0.857457
0.857488
0.855732
0.853204
0.850869
0.847639
0.842149
0.83235
0.821479
0.816898
0.814474
0.812457
0.810172
0.8079
0.805251
0.802531
0.799618
0.79496
0.786597
0.77917
0.777179
0.775605
0.772796
0.77083
0.769508
0.768176
0.766568
0.763734
0.757346
0.74819
0.743164
0.74008
0.737006
0.734826
0.733411
0.732311
0.73246
0.73218
0.730775
0.733334
0.744666
0.782808
0.846673
0.930424
1.02129
1.09195
1.13977
1.15706
1.16983
1.17404
1.1728
1.16817
1.16568
1.1661
1.16722
1.16987
1.17861
1.18858
1.19138
1.19181
1.19042
1.18616
1.18015
1.17749
1.1775
1.17843
1.18067
1.18246
1.18184
1.17972
1.17659
1.17465
1.17448
1.17547
1.1795
1.18595
1.18876
1.18868
1.18686
1.1824
1.17281
1.16464
1.16237
1.16376
1.16849
1.17967
1.19199
1.19571
1.19521
1.19342
1.18944
1.18069
1.16788
1.16131
1.16003
1.16093
1.16631
1.17808
1.18797
1.18967
1.18868
1.18465
1.17587
1.16285
1.1566
1.15538
1.15501
1.15543
1.15664
1.1609
1.16979
1.17472
1.17506
1.17479
1.17305
1.16689
1.1545
1.14077
1.13593
1.13449
1.13339
1.1337
1.13744
1.14682
1.15878
1.16245
1.16112
1.15645
1.14822
1.13477
1.12326
1.1196
1.12025
1.12212
1.12486
1.1312
1.13894
1.14115
1.14032
1.1383
1.1359
1.13424
1.13349
1.13267
1.13118
1.12824
1.12275
1.11588
1.11115
1.10947
1.10889
2.09876
2.10719
2.09759
2.08409
2.05616
2.00056
1.91906
1.85814
1.83649
1.82803
1.82483
1.82815
1.82805
1.82089
1.81199
1.80152
1.7838
1.74359
1.69233
1.66286
1.64951
1.63792
1.62487
1.60925
1.59282
1.58204
1.57582
1.56997
1.56342
1.55524
1.54096
1.51585
1.48328
1.45002
1.42705
1.41985
1.41631
1.41415
1.41109
1.40694
1.40208
1.39615
1.38547
1.3609
1.32418
1.2941
1.28226
1.27752
1.27502
1.27437
1.27354
1.27093
1.26654
1.26052
1.24859
1.22527
1.1976
1.17791
1.16958
1.16606
1.16493
1.16499
1.16188
1.15751
1.15313
1.14712
1.13434
1.11615
1.10124
1.08966
1.07867
1.07304
1.07002
1.06634
1.06364
1.06074
1.05548
1.04889
1.04102
1.03001
1.01932
1.01162
1.00477
0.997609
0.992114
0.988415
0.984119
0.978928
0.974403
0.970277
0.964935
0.957903
0.948419
0.935211
0.92672
0.924542
0.922719
0.919596
0.916363
0.91312
0.909184
0.90293
0.891872
0.880418
0.874154
0.87147
0.869477
0.868299
0.868251
0.866944
0.864325
0.86148
0.857393
0.84929
0.836255
0.828387
0.826218
0.824163
0.822198
0.819738
0.817172
0.814633
0.811606
0.807886
0.80179
0.792498
0.786993
0.785449
0.784176
0.781648
0.779079
0.77755
0.775919
0.773887
0.770327
0.762658
0.755042
0.751939
0.749573
0.746902
0.744944
0.743346
0.741347
0.739272
0.736191
0.731452
0.727233
0.725796
0.728117
0.740862
0.775413
0.848617
0.929956
1.01293
1.07321
1.12374
1.14916
1.15344
1.1565
1.1592
1.16206
1.16463
1.17099
1.18131
1.18655
1.18751
1.18702
1.18429
1.18031
1.17732
1.17629
1.17667
1.1791
1.18229
1.18325
1.18236
1.17992
1.17689
1.17569
1.17556
1.17743
1.18254
1.18624
1.18667
1.18595
1.18238
1.17403
1.1667
1.16431
1.16565
1.16972
1.17901
1.18958
1.19259
1.19198
1.19045
1.18702
1.17895
1.16725
1.16093
1.16012
1.16169
1.16738
1.17869
1.18817
1.18963
1.18821
1.18513
1.17884
1.16673
1.15811
1.15596
1.15509
1.15479
1.15552
1.15864
1.16745
1.17607
1.17785
1.17795
1.17661
1.1712
1.15939
1.14333
1.13662
1.13494
1.13373
1.13364
1.13705
1.14611
1.15901
1.16436
1.16341
1.15914
1.1506
1.13597
1.12346
1.11942
1.11952
1.12159
1.12547
1.13364
1.14243
1.14483
1.14328
1.13986
1.13697
1.13538
1.13433
1.13342
1.1322
1.12989
1.12523
1.11815
1.1122
1.10961
1.10863
1.10833
2.16069
2.1508
2.13639
2.10583
2.04762
1.96258
1.89703
1.87243
1.86347
1.85957
1.86358
1.87014
1.8667
1.85863
1.84858
1.83164
1.79151
1.73222
1.6913
1.67611
1.6653
1.65365
1.64073
1.62815
1.61956
1.61423
1.60934
1.60301
1.59409
1.57541
1.54438
1.50861
1.47591
1.45416
1.4469
1.44398
1.44388
1.44334
1.43967
1.43454
1.4283
1.41702
1.39097
1.35147
1.31836
1.30585
1.30154
1.29972
1.30068
1.30107
1.29785
1.29313
1.28695
1.2743
1.2493
1.21833
1.19765
1.19109
1.18873
1.1888
1.18891
1.18672
1.18331
1.17884
1.17102
1.15539
1.13467
1.11665
1.10619
1.09955
1.09412
1.09094
1.08848
1.08481
1.08078
1.0773
1.07063
1.0591
1.04751
1.03688
1.02703
1.02051
1.0158
1.01134
1.00683
1.00288
0.998277
0.991789
0.984916
0.979645
0.974365
0.966935
0.956712
0.944559
0.937756
0.935522
0.933807
0.931069
0.927695
0.924041
0.918979
0.909888
0.896394
0.889588
0.886397
0.883346
0.880978
0.879545
0.87911
0.877837
0.875282
0.87174
0.865769
0.854266
0.841647
0.837675
0.836049
0.833964
0.831859
0.829593
0.826766
0.823927
0.820425
0.815065
0.807382
0.799017
0.795308
0.79389
0.792678
0.790541
0.7876
0.785442
0.783484
0.780588
0.775884
0.768589
0.762945
0.76067
0.75822
0.755771
0.753996
0.752613
0.750968
0.748033
0.74342
0.736177
0.728991
0.726176
0.726447
0.727539
0.731032
0.744324
0.775863
0.832618
0.915445
0.996287
1.0587
1.08954
1.12496
1.13938
1.14454
1.15682
1.16854
1.17598
1.1793
1.18033
1.17951
1.17515
1.17178
1.17137
1.17153
1.17444
1.17932
1.18129
1.1814
1.18038
1.17777
1.17555
1.17487
1.17544
1.17904
1.18315
1.18391
1.18353
1.18121
1.17581
1.16922
1.16644
1.1675
1.17069
1.17735
1.18584
1.18925
1.18931
1.18844
1.18553
1.17829
1.16877
1.16329
1.16195
1.16317
1.16885
1.17896
1.18678
1.18811
1.18632
1.18356
1.17928
1.17049
1.1604
1.15643
1.15543
1.15474
1.15488
1.15729
1.16548
1.17637
1.18016
1.18032
1.17917
1.17439
1.16371
1.14636
1.13714
1.13535
1.13437
1.13404
1.13682
1.14532
1.15898
1.16653
1.1661
1.16231
1.15411
1.13903
1.12486
1.12064
1.12024
1.12183
1.12673
1.13644
1.14494
1.14664
1.14429
1.13916
1.13586
1.13513
1.13455
1.13373
1.13276
1.13126
1.12809
1.12184
1.11464
1.11071
1.10914
1.10841
1.10922
2.20444
2.18881
2.15504
2.0934
2.00468
1.9365
1.9098
1.90036
1.89638
1.90136
1.91267
1.91291
1.90531
1.89555
1.87877
1.83907
1.77494
1.72179
1.70282
1.69299
1.6829
1.67278
1.66397
1.65781
1.65406
1.64996
1.64351
1.63346
1.61037
1.57375
1.5335
1.50101
1.48191
1.47507
1.47249
1.47359
1.47559
1.47288
1.46762
1.4611
1.44896
1.4211
1.37914
1.34379
1.33028
1.3262
1.32486
1.32687
1.32835
1.3251
1.32004
1.31348
1.30034
1.27433
1.24128
1.21932
1.21308
1.21117
1.21272
1.21397
1.21148
1.20784
1.2035
1.19622
1.17885
1.15258
1.13265
1.12316
1.11817
1.11519
1.11286
1.10956
1.10655
1.1031
1.09777
1.09123
1.08137
1.06489
1.05208
1.04481
1.03753
1.03209
1.02898
1.02582
1.02176
1.01694
1.01091
1.00259
0.994457
0.988685
0.983602
0.976516
0.966104
0.955736
0.949704
0.946896
0.944808
0.94223
0.938739
0.934345
0.927594
0.915374
0.903754
0.900611
0.89844
0.895363
0.892796
0.890904
0.889665
0.888163
0.885504
0.881031
0.872173
0.857626
0.849116
0.847121
0.84579
0.843977
0.841684
0.839492
0.836754
0.833371
0.828945
0.821162
0.812322
0.806865
0.804094
0.802527
0.801392
0.799421
0.796566
0.793745
0.79113
0.787083
0.780725
0.775269
0.771812
0.769502
0.766813
0.764041
0.762178
0.760615
0.758861
0.755452
0.748995
0.742722
0.738107
0.733924
0.731492
0.730519
0.731439
0.73281
0.735973
0.744426
0.767823
0.810145
0.88283
0.966113
1.04417
1.09454
1.11477
1.142
1.16234
1.16713
1.16977
1.17087
1.16885
1.16546
1.16475
1.16545
1.1684
1.17516
1.17834
1.17843
1.17749
1.17478
1.17259
1.17208
1.17268
1.17598
1.18068
1.18145
1.1807
1.17873
1.17453
1.16878
1.16663
1.16749
1.16963
1.17372
1.18018
1.18456
1.18487
1.18436
1.18293
1.17888
1.17197
1.16721
1.16621
1.16719
1.17242
1.18065
1.18569
1.18599
1.18403
1.18141
1.17775
1.17109
1.16182
1.15677
1.15584
1.15544
1.1554
1.15756
1.16518
1.17665
1.18188
1.18206
1.1807
1.17617
1.16696
1.14959
1.13718
1.13512
1.13467
1.13449
1.13682
1.14467
1.15875
1.16862
1.16915
1.16572
1.15817
1.14402
1.12814
1.12281
1.12229
1.12354
1.12928
1.1396
1.14694
1.14812
1.14515
1.13863
1.1335
1.13291
1.13324
1.13339
1.13277
1.13184
1.13027
1.12633
1.11907
1.11323
1.11099
1.10979
1.10991
1.11312
2.2406
2.20317
2.13786
2.04518
1.97585
1.94824
1.93863
1.93501
1.94171
1.95701
1.96043
1.95237
1.94212
1.92429
1.88427
1.81857
1.75511
1.73006
1.7212
1.71294
1.70593
1.70063
1.69734
1.69514
1.6913
1.68458
1.67265
1.64502
1.60294
1.55804
1.52645
1.51018
1.50403
1.50209
1.50462
1.50835
1.50648
1.50122
1.49444
1.48102
1.45111
1.40667
1.36941
1.35514
1.35121
1.35041
1.35383
1.35564
1.35232
1.34718
1.34055
1.32701
1.29991
1.26508
1.24189
1.23568
1.23377
1.23604
1.23901
1.23637
1.23238
1.22789
1.22048
1.20268
1.1748
1.15122
1.14117
1.13751
1.13562
1.13398
1.13184
1.12868
1.12501
1.12106
1.11414
1.10038
1.08457
1.0697
1.05994
1.05561
1.05092
1.04646
1.04335
1.04022
1.03591
1.02913
1.02053
1.01146
1.00403
0.998938
0.994076
0.987295
0.976582
0.967243
0.962208
0.958694
0.955925
0.953127
0.949468
0.944359
0.935855
0.922315
0.914031
0.912038
0.910251
0.907424
0.904759
0.902497
0.900283
0.898242
0.895061
0.888728
0.877048
0.863528
0.858768
0.856985
0.855727
0.854386
0.852006
0.849563
0.846752
0.842732
0.836364
0.826048
0.818205
0.815697
0.813319
0.811424
0.810191
0.808327
0.8055
0.80222
0.798489
0.792782
0.785868
0.782908
0.780931
0.778648
0.775892
0.772718
0.770183
0.768155
0.76555
0.760581
0.753407
0.750026
0.747999
0.744589
0.740434
0.738188
0.736962
0.735762
0.736435
0.73572
0.733145
0.735942
0.751932
0.797233
0.864027
0.955799
1.03663
1.10172
1.14119
1.15718
1.16632
1.16783
1.16196
1.16138
1.16423
1.16684
1.17331
1.17881
1.17861
1.17686
1.17329
1.17048
1.16981
1.17042
1.17347
1.1793
1.18177
1.18103
1.17882
1.17382
1.16697
1.16395
1.16435
1.16593
1.1686
1.17345
1.17905
1.18103
1.18088
1.17932
1.17569
1.17076
1.16768
1.16746
1.16899
1.174
1.18023
1.18311
1.18336
1.18191
1.17956
1.17597
1.17007
1.16227
1.15682
1.15588
1.15615
1.15664
1.15907
1.16646
1.17767
1.18319
1.18338
1.18192
1.1775
1.16938
1.15302
1.13762
1.13423
1.13419
1.13446
1.13653
1.14402
1.15821
1.17003
1.17196
1.16896
1.1623
1.14947
1.13264
1.12566
1.1249
1.12605
1.13216
1.14266
1.14889
1.14954
1.14661
1.13966
1.13199
1.13021
1.13085
1.13187
1.13295
1.13235
1.13123
1.12924
1.12428
1.11716
1.11362
1.11237
1.11199
1.11398
1.12009
2.25027
2.18129
2.08478
2.01534
1.9876
1.97802
1.97512
1.98445
2.00355
2.00901
2.0004
1.98926
1.96877
1.9264
1.85912
1.79074
1.7602
1.75072
1.74388
1.73978
1.73833
1.73847
1.7372
1.73312
1.72594
1.71151
1.67942
1.63181
1.58266
1.55228
1.53867
1.53349
1.53256
1.53733
1.54253
1.54085
1.53544
1.52843
1.51351
1.48138
1.43417
1.39513
1.38026
1.37633
1.37611
1.38139
1.38392
1.3801
1.37481
1.36819
1.35429
1.32608
1.28927
1.26488
1.25856
1.2567
1.2593
1.26348
1.2613
1.25709
1.25233
1.24482
1.22704
1.19757
1.17106
1.16079
1.15744
1.15596
1.15599
1.15384
1.15083
1.14789
1.14385
1.13736
1.12339
1.10075
1.08551
1.07857
1.07296
1.06942
1.06607
1.06219
1.05845
1.05439
1.04858
1.03808
1.02701
1.02017
1.01497
1.01049
1.00584
0.999076
0.987816
0.978715
0.974452
0.970638
0.967108
0.963779
0.959775
0.953886
0.943768
0.930635
0.925104
0.923514
0.922056
0.919443
0.916491
0.913761
0.910945
0.907836
0.903269
0.893777
0.88089
0.872318
0.86913
0.867224
0.865885
0.864511
0.862248
0.859567
0.856404
0.851338
0.842311
0.830972
0.826057
0.82461
0.822748
0.820618
0.819158
0.817363
0.814565
0.810842
0.805598
0.797736
0.792184
0.791066
0.789622
0.787493
0.78483
0.781514
0.778169
0.775046
0.770677
0.763765
0.759004
0.757822
0.756599
0.754022
0.750275
0.748013
0.74649
0.74465
0.742252
0.738524
0.733012
0.728157
0.727702
0.731554
0.74768
0.792114
0.865402
0.946008
1.02675
1.08735
1.13109
1.14262
1.14622
1.15618
1.16352
1.17047
1.17797
1.17947
1.17779
1.17408
1.17108
1.17117
1.17131
1.17318
1.17819
1.18177
1.18174
1.18059
1.17715
1.17099
1.1646
1.16251
1.16293
1.16446
1.16767
1.17341
1.17786
1.17866
1.17811
1.17556
1.17084
1.16758
1.16774
1.16967
1.17435
1.17911
1.18006
1.17904
1.17769
1.17621
1.17382
1.16953
1.16382
1.15823
1.15589
1.15628
1.15771
1.16109
1.16851
1.17901
1.18404
1.18397
1.18239
1.17849
1.1716
1.15672
1.13924
1.13381
1.13356
1.1342
1.13607
1.14316
1.1573
1.17024
1.17352
1.17129
1.16588
1.15501
1.13806
1.12909
1.12776
1.12863
1.13467
1.14488
1.15015
1.15032