/*--------------------------------*- C++ -*----------------------------------*\
  =========                 |
  \\      /  F ield         | OpenFOAM: The Open Source CFD Toolbox
   \\    /   O peration     | Website:  https://openfoam.org
    \\  /    A nd           | Version:  7
     \\/     M anipulation  |
\*---------------------------------------------------------------------------*/
FoamFile
{
    version     2.0;
    format      ascii;
    class       volScalarField;
    location    "2.4";
    object      rho;
}
// * * * * * * * * * * * * * * * * * * * * * * * * * * * * * * * * * * * * * //

dimensions      [1 -3 0 0 0 0 0];

internalField   nonuniform List<scalar> 
16192
(
1.40001
1.40001
1.40001
1.40001
1.40001
1.40001
1.40001
1.40001
1.40001
1.40001
1.40001
1.40014
1.5193
2.99022
3.92297
4.04527
4.02924
3.9949
3.95092
3.91026
1.40001
1.40001
1.40001
1.40001
1.40001
1.40001
1.40001
1.40001
1.40001
1.40001
1.40001
1.40001
1.40807
2.1407
3.71714
4.06765
4.05463
4.01993
3.96926
3.9261
1.40001
1.40001
1.40001
1.40001
1.40001
1.40001
1.40001
1.40001
1.40001
1.40001
1.40001
1.40001
1.40028
1.56698
3.10818
3.92991
4.03609
4.02132
3.98328
3.94016
1.40001
1.40001
1.40001
1.40001
1.40001
1.40001
1.40001
1.40001
1.40001
1.40001
1.40001
1.40001
1.40001
1.41323
2.2565
3.75044
4.05779
4.0447
4.00576
3.95761
1.40001
1.40001
1.40001
1.40001
1.40001
1.40001
1.40001
1.40001
1.40001
1.40001
1.40001
1.40001
1.40001
1.40051
1.62095
3.1968
3.96349
4.02957
4.01003
3.97051
1.40001
1.40001
1.40001
1.40001
1.40001
1.40001
1.40001
1.40001
1.40001
1.40001
1.40001
1.40001
1.40001
1.40002
1.42026
2.35754
3.78832
4.04509
4.02782
3.9893
1.40001
1.40001
1.40001
1.40001
1.40001
1.40001
1.40001
1.40001
1.40001
1.40001
1.40001
1.40001
1.40001
1.40001
1.40086
1.67479
3.26589
3.99926
4.0288
4.00152
1.40001
1.40001
1.40001
1.40001
1.40001
1.40001
1.40001
1.40001
1.40001
1.40001
1.40001
1.40001
1.40001
1.40001
1.40003
1.42828
2.44176
3.83454
4.02672
4.01622
1.40001
1.40001
1.40001
1.40001
1.40001
1.40001
1.40001
1.40001
1.40001
1.40001
1.40001
1.40001
1.40001
1.40001
1.40001
1.40127
1.72453
3.33851
3.99524
4.02277
1.40001
1.40001
1.40001
1.40001
1.40001
1.40001
1.40001
1.40001
1.40001
1.40001
1.40001
1.40001
1.40001
1.40001
1.40001
1.40004
1.43732
2.51672
3.87577
4.01718
1.40001
1.40001
1.40001
1.40001
1.40001
1.40001
1.40001
1.40001
1.40001
1.40001
1.40001
1.40001
1.40001
1.40001
1.40001
1.40001
1.40172
1.77624
3.43631
3.94823
1.40001
1.40001
1.40001
1.40001
1.40001
1.40001
1.40001
1.40001
1.40001
1.40001
1.40001
1.40001
1.40001
1.40001
1.40001
1.40001
1.40005
1.45002
2.60266
3.79501
1.40001
1.40001
1.40001
1.40001
1.40001
1.40001
1.40001
1.40001
1.40001
1.40001
1.40001
1.40001
1.40001
1.40001
1.40001
1.40001
1.40001
1.40256
1.82511
3.40759
1.40001
1.40001
1.40001
1.40001
1.40001
1.40001
1.40001
1.40001
1.40001
1.40001
1.40001
1.40001
1.40001
1.40001
1.40001
1.40001
1.40001
1.40008
1.46318
2.61434
1.40001
1.40001
1.40001
1.40001
1.40001
1.40001
1.40001
1.40001
1.40001
1.40001
1.40001
1.40001
1.40001
1.40001
1.40001
1.40001
1.40001
1.40001
1.40372
1.83201
1.40001
1.40001
1.40001
1.40001
1.40001
1.40001
1.40001
1.40001
1.40001
1.40001
1.40001
1.40001
1.40001
1.40001
1.40001
1.40001
1.40001
1.40001
1.40012
1.46709
1.40001
1.40001
1.40001
1.40001
1.40001
1.40001
1.40001
1.40001
1.40001
1.40001
1.40001
1.40001
1.40001
1.40001
1.40001
1.40001
1.40001
1.40001
1.40001
1.40479
1.40001
1.40001
1.40001
1.40001
1.40001
1.40001
1.40001
1.40001
1.40001
1.40001
1.40001
1.40001
1.40001
1.40001
1.40001
1.40001
1.40001
1.40001
1.40001
1.40018
1.40001
1.40001
1.40001
1.40001
1.40001
1.40001
1.40001
1.40001
1.40001
1.40001
1.40001
1.40001
1.40001
1.40001
1.40001
1.40001
1.40001
1.40001
1.40001
1.40001
1.40001
1.40001
1.40001
1.40001
1.40001
1.40001
1.40001
1.40001
1.40001
1.40001
1.40001
1.40001
1.40001
1.40001
1.40001
1.40001
1.40001
1.40001
1.40001
1.40001
1.40001
1.40001
1.40001
1.40001
1.40001
1.40001
1.40001
1.40001
1.40001
1.40001
1.40001
1.40001
1.40001
1.40001
1.40001
1.40001
1.40001
1.40001
1.40001
1.40001
1.40001
1.40001
1.40001
1.40001
1.40001
1.40001
1.40001
1.40001
1.40001
1.40001
1.40001
1.40001
1.40001
1.40001
1.40001
1.40001
1.40001
1.40001
1.40001
1.40001
1.40001
1.40001
1.40001
1.40001
1.40001
1.40001
1.40001
1.40001
1.40001
1.40001
1.40001
1.40001
1.40001
1.40001
1.40001
1.40001
1.40001
1.40001
1.40001
1.40001
1.40001
1.40001
1.40001
1.40001
1.40001
1.40001
1.40001
1.40001
1.40001
1.40001
1.40001
1.40001
1.40001
1.40001
1.40001
1.40001
1.40001
1.40001
1.40001
1.40001
1.40001
1.40001
1.40001
1.40001
1.40001
1.40001
1.40001
1.40001
1.40001
1.40001
1.40001
1.40001
1.40001
1.40001
1.40001
1.40001
1.40001
1.40001
1.40001
1.40001
1.40001
1.40001
1.40001
1.40001
1.40001
1.40001
1.40001
1.40001
1.40001
1.40001
1.40001
1.40001
1.40001
1.40001
1.40001
1.40001
1.40001
1.40001
1.40001
1.40001
1.40001
1.40001
1.40001
1.40001
1.40001
1.40001
1.40001
1.40001
1.40001
1.40001
1.40001
1.40001
1.40001
1.40001
1.40001
1.40001
1.40001
1.40001
1.40001
1.40001
1.40001
1.40001
1.40001
1.40001
1.40001
1.40001
1.40001
1.40001
1.40001
1.40001
1.40001
1.40001
1.40001
1.40001
1.40001
1.40001
1.40001
1.40001
1.40001
1.40001
1.40001
1.40001
1.40001
1.40001
1.40001
1.40001
1.40001
1.40001
1.40001
1.40001
1.40001
1.40001
1.40001
1.40001
1.40001
1.40001
1.40001
1.40001
1.40001
1.40001
1.40001
1.40001
1.40001
1.40001
1.40001
1.40001
1.40001
1.40001
1.40001
1.40001
1.40001
1.40001
1.40001
1.40001
1.40001
1.40001
1.40001
1.40001
1.40001
1.40001
1.40001
1.40001
1.40001
1.40001
1.40001
1.40001
1.40001
1.40001
1.40001
1.40001
1.40001
1.40001
1.40001
1.40001
1.40001
1.40001
1.40001
1.40001
1.40001
1.40001
1.40001
1.40001
1.40001
1.40001
1.40001
1.40001
1.40001
1.40001
1.40001
1.40001
1.40001
1.40001
1.40001
1.40001
1.40001
1.40001
1.40001
1.40001
1.40001
1.40001
1.40001
1.40001
1.40001
1.40001
1.40001
1.40001
1.40001
1.40001
1.40001
1.40001
1.40001
1.40001
1.40001
1.40001
1.40001
1.40001
1.40001
1.40001
1.40001
1.40001
1.40001
1.40001
1.40001
1.40001
1.40001
1.40001
1.40001
1.40001
1.40001
1.40001
1.40001
1.40001
1.40001
1.40001
1.40001
1.40001
1.40001
1.40001
1.40001
1.40001
1.40001
1.40001
1.40001
1.40001
1.40001
1.40001
1.40001
1.40001
1.40001
1.40001
1.40001
1.40001
1.40001
1.40001
1.40001
1.40001
1.40001
1.40001
1.40001
1.40001
1.40001
1.40001
1.40001
1.40001
1.40001
1.40001
1.40001
1.40001
1.40001
1.40001
1.40001
1.40001
1.40001
1.40001
1.40001
1.40001
1.40001
1.40001
1.40001
1.40001
1.40001
1.40001
1.40001
1.40001
1.40001
1.40001
1.40001
1.40001
1.40001
1.40001
1.40001
1.40001
1.40001
1.40001
1.40001
1.40001
1.40001
1.40001
1.40001
1.40001
1.40001
1.40001
1.40001
1.40001
1.40001
1.40001
1.40001
1.40001
1.40001
1.40001
1.40001
1.40001
1.40001
1.40001
1.40001
1.40001
1.40001
1.40001
1.40001
1.40001
1.40001
1.40001
1.40001
1.40001
1.40001
1.40001
1.40001
1.40001
1.40001
1.40001
1.40001
1.40001
1.40001
1.40001
1.40001
1.40001
1.40001
1.40001
1.40001
1.40001
1.40001
1.40001
1.40001
1.40001
1.40001
1.40001
1.40001
1.40001
1.40001
1.40001
1.40001
1.40001
1.40001
1.40001
1.40001
1.40001
1.40001
1.40001
1.40001
1.40001
1.40001
1.40001
1.40001
1.40001
1.40001
1.40001
1.40001
1.40001
1.40001
1.40001
1.40001
1.40001
1.40001
1.40001
1.40001
1.40001
1.40001
1.40001
1.40001
1.40001
1.40001
1.40001
1.40001
1.40001
1.40001
1.40001
1.40001
1.40001
1.40001
1.40001
1.40001
1.40001
1.40001
1.40001
1.40001
1.40001
1.40001
1.40001
1.40001
1.40001
1.40001
1.40001
1.40001
1.40001
1.40001
1.40001
1.40001
1.40001
1.40001
1.40001
1.40001
1.40001
1.40001
1.40001
1.40001
1.40001
1.40001
1.40001
1.40001
1.40001
1.40001
1.40001
1.40001
1.40001
1.40001
1.40001
1.40001
1.40001
1.40001
1.40001
1.40001
1.40001
1.40001
1.40001
1.40001
1.40001
1.40001
1.40001
1.40001
1.40001
1.40001
1.40001
1.40001
1.40001
1.40001
1.40001
1.40001
1.40001
1.40001
1.40001
1.40001
1.40001
1.40001
1.40001
1.40001
1.40001
1.40001
1.40001
1.40001
1.40001
1.40001
1.40001
1.40001
1.40001
1.40001
1.40001
1.40001
1.40001
1.40001
1.40001
1.40001
1.40001
1.40001
1.40001
1.40001
1.40001
1.40001
1.40001
1.40001
1.40001
1.40001
1.40001
1.40001
1.40001
1.40001
1.40001
1.40001
1.40001
1.40001
1.40001
1.40001
1.40001
1.40001
1.40001
1.40001
1.40001
1.40001
1.40001
1.40001
1.40001
1.40001
1.40001
1.40001
1.40001
1.40001
1.40001
1.40001
1.40001
1.40001
1.40001
1.40001
1.40001
1.40001
1.40001
1.40001
1.40001
1.40001
1.40001
1.40001
1.40001
1.40001
1.40001
1.40001
1.40001
1.40001
1.40001
1.40001
1.40001
1.40001
1.40001
1.40001
1.40001
1.40001
1.40001
1.40001
1.40001
1.40001
1.40001
1.40001
1.40001
1.40001
1.40001
1.40001
1.40001
1.40001
1.40001
1.40001
1.40001
1.40001
1.40001
1.40001
1.40001
1.40001
1.40001
1.40001
1.40001
1.40001
1.40001
1.40001
1.40001
1.40001
1.40001
1.40001
1.40001
1.40001
1.40001
1.40001
1.40001
1.40001
1.40001
1.40001
1.40001
1.40001
1.40001
1.40001
1.40001
1.40001
1.40001
1.40001
1.40001
1.40001
1.40001
1.40001
1.40001
1.40001
1.40001
1.40001
1.40001
1.40001
1.40001
1.40001
1.40001
1.40001
1.40001
1.40001
1.40001
1.40001
1.40001
1.40001
1.40001
1.40001
1.40001
1.40001
1.40001
1.40001
1.40001
1.40001
1.40001
1.40001
1.40001
1.40001
1.40001
1.40001
1.40001
1.40001
1.40001
1.40001
1.40001
1.40001
1.40001
1.40001
1.40001
1.40001
1.40001
1.40001
1.40001
1.40001
1.40001
1.40001
1.40001
1.40001
1.40001
1.40001
1.40001
1.40001
1.40001
1.40001
1.40001
1.40001
1.40001
1.40001
1.40001
1.40001
1.40001
1.40001
1.40001
1.40001
1.40001
1.40001
1.40001
1.40001
1.40001
1.40001
1.40001
1.40001
1.40001
1.40001
1.40001
1.40001
1.40001
1.40001
1.40001
1.40001
1.40001
1.40001
1.40001
1.40001
1.40001
1.40001
1.40001
1.40001
1.40001
1.40001
1.40001
1.40001
1.40001
1.40001
1.40001
1.40001
1.40001
1.40001
1.40001
1.40001
1.40001
1.40001
1.40001
1.40001
1.40001
1.40001
1.40001
1.40001
1.40001
1.40001
1.40001
1.40001
1.40001
1.40001
1.40001
1.40001
1.40001
1.40001
1.40001
1.40001
1.40001
1.40001
1.40001
1.40001
1.40001
1.40001
1.40001
1.40001
1.40001
1.40001
1.40001
1.40001
1.40001
1.40001
1.40001
1.40001
1.40001
1.40001
1.40001
1.40001
1.40001
1.40001
1.40001
1.40001
1.40001
1.40001
1.40001
1.40001
1.40001
1.40001
1.40001
1.40001
1.40001
1.40001
1.40001
1.40001
1.40001
1.40001
1.40001
1.40001
1.40001
1.40001
1.40001
1.40001
1.40001
1.40001
1.40001
1.40001
1.40001
1.40001
1.40001
1.40001
1.40001
1.40001
1.40001
1.40001
1.40001
1.40001
1.40001
1.40001
1.40001
1.40001
1.40001
1.40001
1.40001
1.40001
1.40001
1.40001
1.40001
1.40001
1.40001
1.40001
1.40001
1.40001
1.40001
1.40001
1.40001
1.40001
1.40001
1.40001
1.40001
1.40001
1.40001
1.40001
1.40001
1.40001
1.40001
1.40001
1.40001
1.40001
1.40001
1.40001
1.40001
1.40001
1.40001
1.40001
1.40001
1.40001
1.40001
1.40001
1.40001
1.40001
1.40001
1.40001
1.40001
1.40001
1.40001
1.40001
1.40001
1.40001
1.40001
1.40001
1.40001
1.40001
1.40001
1.40001
1.40001
1.40001
1.40001
1.40001
1.40001
1.40001
1.40001
1.40001
1.40001
1.40001
1.40001
1.40001
1.40001
1.40001
1.40001
1.40001
1.40001
1.40001
1.40001
1.40001
1.40001
1.40001
1.40001
1.40001
1.40001
1.40001
1.40001
1.40001
1.40001
1.40001
1.40001
1.40001
1.40001
1.40001
1.40001
1.40001
1.40001
1.40001
1.40001
1.40001
1.40001
2.56788
2.55888
2.54562
2.53014
2.51785
2.49865
2.48428
2.4709
2.45376
2.43998
2.4255
2.408
2.39761
2.38664
2.37379
2.36237
2.35236
2.33907
2.31608
2.28997
2.2725
2.26691
2.26518
2.26139
2.25253
2.23148
2.20505
2.19029
2.1868
2.1841
2.17882
2.17111
2.15356
2.12413
2.09894
2.0922
2.09074
2.09042
2.08626
2.07941
2.06446
2.04092
2.01729
2.00341
2.00047
2.00132
1.99983
1.99255
1.97963
1.96894
1.96152
1.95365
1.93987
1.91332
1.88543
1.87622
1.8719
1.86642
1.86157
1.85844
1.85731
1.85984
1.86502
1.86547
1.86119
1.85055
1.82717
1.78563
1.75147
1.74019
1.73852
1.74282
1.76293
1.77933
1.77795
1.77132
1.756
1.72606
1.69208
1.67858
1.67707
1.67999
1.69172
1.69558
1.69144
1.682
1.66417
1.647
1.6415
1.64009
1.63695
1.63106
1.61726
1.59804
1.59069
1.58952
1.59012
1.59268
1.59072
1.58777
1.58421
1.57714
1.56063
1.54281
1.53819
1.53745
1.53616
1.53324
1.52891
1.52209
1.51111
1.50045
1.49403
1.48953
1.4871
1.48539
1.48356
1.48243
1.4815
1.47961
1.47742
1.47454
1.46674
1.44797
1.42673
1.42012
1.41963
1.41917
1.41749
1.41549
1.41304
1.40861
1.4042
1.4021
3.88125
3.86211
3.8445
3.82621
3.80748
3.78792
3.77029
3.7531
3.73361
3.71478
3.69403
3.67703
3.65944
3.63975
3.61942
3.59837
3.5837
3.56551
3.54822
3.52839
3.51118
3.49663
3.47935
3.46203
3.43985
3.42587
3.41099
3.39318
3.37426
3.35112
3.33826
3.32287
3.30385
3.28877
3.26714
3.25138
3.24
3.22211
3.20777
3.18833
3.16772
3.15512
3.13635
3.12039
3.10334
3.08538
3.07081
3.05019
3.03196
3.01245
2.9943
2.98403
2.96749
2.94904
2.92466
2.9054
2.89953
2.90238
2.90954
2.947
3.03054
3.10444
3.15015
3.15566
3.15094
3.14007
3.1197
3.09711
3.07359
3.04568
3.01897
3
2.98084
2.95912
2.93952
2.92423
2.9075
2.88839
2.86568
2.85199
2.84113
2.82582
2.81318
2.80014
2.78523
2.77195
2.75435
2.7307
2.71041
2.69114
2.66871
2.6568
2.64307
2.62644
2.61216
2.59459
2.58493
2.57546
2.56086
2.54895
2.53096
2.51326
2.50092
2.48472
2.47016
2.45778
2.44031
2.42829
2.41749
2.40383
2.3914
2.38067
2.36681
2.34419
2.31914
2.30268
2.29725
2.29472
2.28996
2.28034
2.25873
2.23201
2.21643
2.21264
2.21038
2.20542
2.19805
2.18138
2.15257
2.12686
2.11956
2.11825
2.11805
2.11371
2.10597
2.08917
2.06496
2.04309
2.03274
2.03064
2.03088
2.02726
2.01593
1.99831
1.98601
1.9787
1.97191
1.96237
1.94239
1.913
1.89793
1.89373
1.88918
1.88563
1.88392
1.88484
1.88875
1.89184
1.88985
1.88394
1.87111
1.84712
1.80562
1.772
1.76083
1.75921
1.76324
1.783
1.79962
1.79829
1.79168
1.77653
1.74702
1.71223
1.69791
1.6962
1.69867
1.71049
1.7157
1.71194
1.70249
1.68388
1.66477
1.65836
1.65725
1.65466
1.64958
1.63796
1.61848
1.6077
1.60613
1.60586
1.60901
1.60849
1.60544
1.60196
1.59607
1.58079
1.56052
1.55251
1.55129
1.55013
1.54807
1.54475
1.53961
1.53134
1.51976
1.50918
1.50329
1.5011
1.50015
1.49907
1.49798
1.49736
1.49587
1.49364
1.49079
1.48383
1.46654
1.44349
1.43377
1.43288
1.43319
1.43246
1.43039
1.42822
1.42487
1.41932
1.41607
1.41404
3.89618
3.87771
3.86041
3.84259
3.82291
3.80206
3.78491
3.76696
3.74933
3.72797
3.70807
3.69138
3.67272
3.6546
3.6324
3.61619
3.59964
3.5814
3.56438
3.54388
3.52966
3.51274
3.49587
3.47585
3.45627
3.44269
3.42484
3.40724
3.38543
3.36704
3.35467
3.33582
3.31991
3.30257
3.28076
3.26965
3.25412
3.23712
3.22105
3.19719
3.18273
3.16789
3.149
3.13429
3.11453
3.09908
3.08253
3.0625
3.0468
3.02667
3.0152
3.00465
2.98808
2.9717
2.94722
2.92829
2.91511
2.90929
2.91103
2.92375
2.98253
3.06236
3.13848
3.16936
3.16868
3.16275
3.14569
3.12246
3.09623
3.06297
3.03635
3.01706
2.99707
2.97396
2.95536
2.94037
2.92406
2.90299
2.88242
2.87004
2.85474
2.8399
2.82678
2.81149
2.79921
2.78384
2.76152
2.73844
2.71911
2.69599
2.68019
2.66871
2.65225
2.63871
2.62274
2.611
2.60396
2.59114
2.57818
2.56144
2.5406
2.5289
2.51489
2.49984
2.48918
2.4735
2.45911
2.44783
2.43333
2.41923
2.40708
2.39312
2.37162
2.34848
2.33319
2.3278
2.3238
2.3183
2.30813
2.28624
2.25914
2.24275
2.2386
2.23676
2.23222
2.22522
2.20898
2.18066
2.15469
2.14674
2.14546
2.1454
2.14097
2.1321
2.11367
2.08929
2.06934
2.06196
2.06069
2.05996
2.05418
2.03871
2.01724
2.0034
1.99672
1.9909
1.98334
1.96879
1.94282
1.92218
1.91755
1.91402
1.91175
1.91206
1.91522
1.91809
1.91724
1.91278
1.90385
1.88955
1.86659
1.82659
1.79362
1.78231
1.78075
1.78449
1.80362
1.8201
1.81875
1.8121
1.79735
1.76836
1.73272
1.71741
1.71546
1.71761
1.72956
1.73616
1.73287
1.72376
1.70474
1.68332
1.67536
1.67429
1.6722
1.6679
1.65844
1.63967
1.62566
1.62333
1.62245
1.62495
1.62628
1.62362
1.62029
1.6152
1.60166
1.57961
1.56741
1.56584
1.56433
1.56215
1.55967
1.55601
1.54986
1.53956
1.52639
1.51818
1.51587
1.5152
1.51478
1.51361
1.51264
1.51169
1.50973
1.50704
1.50078
1.48448
1.46068
1.44841
1.44697
1.44683
1.44751
1.44598
1.44383
1.44106
1.43586
1.43057
1.42815
1.42605
3.91032
3.89221
3.87355
3.85478
3.83514
3.8175
3.79891
3.77956
3.75926
3.73942
3.72454
3.70633
3.68791
3.667
3.64889
3.63433
3.6155
3.59926
3.57883
3.5623
3.54725
3.52914
3.51071
3.4879
3.47331
3.45745
3.43875
3.41959
3.39739
3.38451
3.36859
3.34965
3.33465
3.3128
3.29713
3.28466
3.26626
3.2507
3.22928
3.20923
3.19738
3.17914
3.16319
3.14596
3.12614
3.1122
3.09333
3.07727
3.06094
3.04373
3.03583
3.0224
3.00752
2.99153
2.96977
2.95304
2.93537
2.91951
2.91715
2.92644
2.95427
3.0171
3.10524
3.16497
3.18149
3.17877
3.16652
3.14445
3.11754
3.08411
3.055
3.03352
3.01259
2.9905
2.97345
2.95814
2.94051
2.91866
2.90193
2.88587
2.86866
2.85439
2.83728
2.8239
2.8119
2.79333
2.77052
2.75039
2.72659
2.70501
2.69408
2.6789
2.66468
2.65149
2.6386
2.63193
2.62081
2.60611
2.58948
2.56701
2.55398
2.54291
2.52825
2.5184
2.50606
2.48968
2.4771
2.46229
2.44682
2.43372
2.41973
2.39841
2.37739
2.36287
2.35639
2.3512
2.34541
2.33542
2.3142
2.28716
2.27002
2.26528
2.2633
2.25902
2.25216
2.23595
2.20823
2.18246
2.17394
2.17255
2.17242
2.16779
2.15777
2.13752
2.11344
2.09615
2.09098
2.09005
2.08853
2.08163
2.06306
2.03719
2.02176
2.01611
2.0112
2.00472
1.99397
1.97199
1.94862
1.9428
1.94038
1.9403
1.9439
1.94698
1.94614
1.94151
1.93242
1.92051
1.90683
1.8857
1.84884
1.81661
1.80471
1.80312
1.80646
1.82462
1.84067
1.83927
1.83279
1.81861
1.79015
1.75367
1.7372
1.73496
1.73684
1.74897
1.7566
1.75361
1.74516
1.72631
1.70267
1.69261
1.69128
1.68944
1.68572
1.67843
1.66138
1.64457
1.64114
1.63972
1.641
1.64391
1.64207
1.63902
1.63465
1.62303
1.60014
1.58298
1.58021
1.5792
1.57757
1.57459
1.57127
1.56663
1.55833
1.54529
1.53456
1.53166
1.53087
1.53089
1.5297
1.52817
1.52717
1.52538
1.52279
1.51722
1.5023
1.47835
1.46356
1.4615
1.46111
1.46239
1.46182
1.4599
1.45733
1.45258
1.44611
1.44255
1.44036
1.43809
3.92574
3.90716
3.88868
3.86864
3.84937
3.83205
3.81392
3.79495
3.77235
3.7559
3.73963
3.72212
3.70373
3.68306
3.66827
3.65035
3.63338
3.61586
3.59517
3.57975
3.5616
3.54412
3.52247
3.50294
3.48837
3.46929
3.45173
3.43062
3.41334
3.40051
3.38116
3.36545
3.3471
3.32542
3.31359
3.29668
3.27898
3.26124
3.2376
3.22495
3.21003
3.19141
3.17685
3.15622
3.14083
3.12598
3.10812
3.09501
3.07662
3.0653
3.05559
3.03937
3.02589
3.00807
2.99155
2.97701
2.95756
2.93606
2.92716
2.93172
2.94656
2.98332
3.05973
3.14116
3.18204
3.1894
3.18196
3.16365
3.13818
3.10556
3.0761
3.0541
3.03114
3.00782
2.99105
2.97706
2.95853
2.93782
2.91975
2.90107
2.88526
2.86725
2.84923
2.83833
2.8233
2.80228
2.78283
2.76193
2.73578
2.72203
2.70823
2.69234
2.68099
2.66813
2.66002
2.64974
2.63353
2.6158
2.59369
2.57746
2.56901
2.55588
2.54546
2.53568
2.51905
2.50467
2.49
2.47364
2.45999
2.44664
2.4261
2.40571
2.39189
2.38306
2.37623
2.3699
2.36057
2.34136
2.31601
2.29835
2.29293
2.29059
2.28626
2.27925
2.26263
2.23514
2.2101
2.20113
2.19955
2.19921
2.19427
2.18282
2.16129
2.13771
2.12292
2.11912
2.11896
2.11666
2.10857
2.08846
2.05954
2.04151
2.03665
2.03283
2.02702
2.01795
1.99976
1.97674
1.96935
1.96768
1.96991
1.97637
1.97724
1.97232
1.96162
1.94803
1.93598
1.92341
1.90477
1.87263
1.84127
1.82827
1.82652
1.82923
1.84597
1.86127
1.85978
1.85348
1.83995
1.81248
1.77543
1.75739
1.75474
1.75607
1.76816
1.77718
1.77455
1.76662
1.74836
1.72307
1.71025
1.70854
1.70674
1.70321
1.69735
1.68285
1.6644
1.65916
1.6576
1.65783
1.66107
1.66041
1.65781
1.65415
1.64447
1.62203
1.6004
1.59526
1.59371
1.59221
1.59031
1.58739
1.58266
1.5753
1.56446
1.55274
1.54856
1.54743
1.54736
1.54626
1.54418
1.54271
1.54079
1.53811
1.53311
1.51973
1.49643
1.47915
1.47627
1.47573
1.47773
1.47792
1.4762
1.47394
1.46915
1.46179
1.45734
1.45491
1.4526
1.45005
3.94
3.92066
3.90134
3.88215
3.8651
3.84687
3.82812
3.80642
3.7888
3.774
3.75582
3.73765
3.71692
3.70147
3.68533
3.66633
3.64887
3.6276
3.6117
3.59454
3.57533
3.55519
3.53286
3.51867
3.50102
3.48193
3.46317
3.44201
3.42922
3.41241
3.3939
3.37854
3.35593
3.34086
3.32712
3.30811
3.29177
3.26933
3.25255
3.24092
3.22226
3.20684
3.18904
3.16954
3.15772
3.14115
3.12763
3.11264
3.09598
3.08746
3.07289
3.05697
3.04216
3.02349
3.01222
2.99824
2.97914
2.95852
2.93915
2.93857
2.94494
2.96473
3.01682
3.0924
3.16307
3.19368
3.19033
3.17921
3.15775
3.12746
3.09932
3.07703
3.05351
3.03039
3.01235
2.9965
2.9771
2.9568
2.93682
2.91947
2.90334
2.88082
2.86571
2.85234
2.83333
2.81446
2.79687
2.77127
2.75346
2.74061
2.72384
2.71237
2.7001
2.68926
2.67807
2.66055
2.64106
2.61984
2.60128
2.59397
2.5832
2.57188
2.56307
2.54709
2.53071
2.51608
2.49935
2.48508
2.4727
2.45389
2.43384
2.42028
2.40946
2.40031
2.39234
2.38324
2.36656
2.34393
2.32684
2.32101
2.31841
2.31388
2.30668
2.28948
2.26215
2.23758
2.22837
2.22653
2.2257
2.2202
2.20706
2.18488
2.16208
2.1496
2.14673
2.14698
2.14412
2.13493
2.11351
2.08292
2.06323
2.05806
2.05509
2.05009
2.04213
2.02652
2.00521
1.99707
1.99574
1.99953
2.00604
2.00446
1.99622
1.98059
1.96403
1.95113
1.93924
1.9237
1.89755
1.8677
1.85309
1.85112
1.85301
1.86787
1.8821
1.88043
1.87426
1.86129
1.83492
1.79754
1.7779
1.77485
1.77572
1.78737
1.79766
1.79541
1.78795
1.7703
1.74357
1.72819
1.72609
1.72445
1.72091
1.71571
1.70425
1.68524
1.67715
1.6755
1.67542
1.67833
1.67867
1.67648
1.67356
1.66576
1.64462
1.61895
1.61033
1.60885
1.60736
1.60529
1.60266
1.59891
1.59206
1.58197
1.57249
1.56778
1.56609
1.56478
1.5632
1.56054
1.55805
1.55559
1.55259
1.54791
1.53629
1.51533
1.49595
1.49148
1.49086
1.49321
1.49486
1.49303
1.49073
1.48604
1.47711
1.47181
1.46955
1.46725
1.46468
1.46145
3.95824
3.93766
3.91593
3.89757
3.8814
3.86432
3.84422
3.82222
3.80673
3.79005
3.77343
3.75333
3.73355
3.71729
3.69822
3.68189
3.6614
3.64153
3.62483
3.60558
3.58756
3.56473
3.54784
3.53288
3.51302
3.49613
3.47452
3.45782
3.44374
3.42405
3.40878
3.38912
3.36919
3.35721
3.33923
3.32188
3.30303
3.28215
3.27142
3.25547
3.23782
3.22324
3.20192
3.18898
3.17583
3.16037
3.1483
3.13037
3.11899
3.10712
3.08893
3.0739
3.05501
3.03966
3.0298
3.01482
2.99849
2.97947
2.95493
2.94635
2.94913
2.95832
2.98319
3.03895
3.11567
3.18248
3.1968
3.18938
3.17257
3.14943
3.12596
3.10344
3.07921
3.05508
3.03492
3.01804
2.99752
2.97511
2.95519
2.9395
2.91926
2.89871
2.88394
2.86599
2.84705
2.8303
2.80782
2.78782
2.77505
2.75834
2.7458
2.73486
2.72145
2.70737
2.6881
2.66607
2.64493
2.62536
2.61765
2.60971
2.59802
2.58943
2.57525
2.55718
2.54191
2.5252
2.50963
2.49713
2.48017
2.46025
2.44742
2.43594
2.42482
2.41507
2.4054
2.39055
2.37022
2.35457
2.34874
2.34595
2.34136
2.33404
2.3163
2.28925
2.2651
2.25576
2.25347
2.25205
2.24559
2.23059
2.20816
2.18686
2.17609
2.17384
2.17426
2.17088
2.16065
2.13801
2.1065
2.08612
2.08065
2.07807
2.07347
2.06628
2.05286
2.03401
2.02577
2.02446
2.02854
2.03338
2.02965
2.0181
1.99946
1.98037
1.96645
1.95527
1.9428
1.92294
1.89561
1.87897
1.87664
1.87768
1.89027
1.9032
1.90126
1.89501
1.8826
1.85721
1.81956
1.79852
1.79511
1.79571
1.8069
1.81826
1.81633
1.80911
1.79198
1.76467
1.74632
1.74346
1.74235
1.73909
1.73414
1.72492
1.7069
1.69544
1.69349
1.69301
1.69645
1.69734
1.69535
1.69284
1.68626
1.66675
1.63861
1.62582
1.62373
1.62211
1.62029
1.61782
1.61441
1.60878
1.60003
1.59219
1.58863
1.58671
1.58499
1.58237
1.57764
1.57291
1.56951
1.56614
1.56159
1.5518
1.53363
1.51372
1.50742
1.50678
1.50882
1.51227
1.51069
1.5079
1.50305
1.49289
1.48572
1.48373
1.48175
1.47934
1.47628
1.47037
3.97209
3.949
3.92678
3.91031
3.89311
3.87457
3.85414
3.83812
3.82276
3.80444
3.78518
3.76529
3.74942
3.73033
3.71114
3.69129
3.67039
3.65518
3.63646
3.61746
3.5958
3.5756
3.56276
3.54411
3.52673
3.50881
3.48824
3.47428
3.45593
3.43843
3.42186
3.39962
3.38733
3.37248
3.35393
3.33726
3.31544
3.30233
3.28945
3.2709
3.25699
3.2379
3.22036
3.20986
3.19436
3.18159
3.16538
3.14962
3.13948
3.1223
3.10495
3.08842
3.0674
3.05627
3.04374
3.0285
3.01524
2.99502
2.97305
2.96151
2.9551
2.95747
2.96573
2.99611
3.05647
3.14615
3.18423
3.19072
3.1864
3.17242
3.15196
3.1295
3.10538
3.07849
3.05806
3.04032
3.01784
2.9955
2.97704
2.95764
2.93579
2.91828
2.90056
2.8824
2.8669
2.8472
2.82545
2.80976
2.79265
2.77834
2.76749
2.75461
2.73913
2.71915
2.69537
2.67246
2.65116
2.64185
2.63561
2.62405
2.61454
2.60232
2.58468
2.56857
2.55194
2.53523
2.52214
2.50658
2.48562
2.47303
2.4618
2.44976
2.43869
2.42778
2.4136
2.39572
2.3815
2.37544
2.37171
2.36732
2.36006
2.3423
2.31629
2.29257
2.28307
2.2804
2.27808
2.27052
2.25378
2.23148
2.21148
2.20254
2.20052
2.20075
2.1967
2.18533
2.16174
2.12997
2.10983
2.10414
2.10165
2.09732
2.09061
2.07878
2.06274
2.0553
2.05398
2.05743
2.05928
2.05341
2.03919
2.01766
1.99595
1.98201
1.97187
1.96198
1.94755
1.92418
1.9056
1.90261
1.90281
1.91307
1.92475
1.92265
1.91639
1.9044
1.87973
1.84184
1.8192
1.81511
1.81566
1.8265
1.83886
1.83722
1.83023
1.81359
1.78553
1.76467
1.76075
1.75991
1.75748
1.75312
1.74558
1.72931
1.71463
1.71198
1.71083
1.71429
1.71739
1.71499
1.71228
1.70653
1.68814
1.65801
1.64172
1.63905
1.63663
1.63464
1.63249
1.62958
1.6252
1.61876
1.61313
1.61072
1.60913
1.60706
1.60368
1.59619
1.58743
1.58258
1.57892
1.57459
1.56689
1.5514
1.532
1.52394
1.52321
1.52478
1.52929
1.52863
1.52573
1.52036
1.50893
1.4997
1.49757
1.49594
1.4938
1.49107
1.48609
1.47323
3.99222
3.96723
3.9442
3.92571
3.90767
3.8872
3.86776
3.85311
3.83591
3.81856
3.79707
3.77975
3.76203
3.7423
3.72406
3.70078
3.68388
3.66697
3.64806
3.62942
3.60636
3.59182
3.57539
3.55634
3.54153
3.52152
3.50634
3.49
3.47057
3.45475
3.43314
3.41768
3.40596
3.38807
3.37244
3.35301
3.33599
3.32404
3.30613
3.29038
3.27486
3.25347
3.24165
3.22888
3.21447
3.19972
3.18001
3.16829
3.15403
3.13481
3.11983
3.10015
3.08341
3.07139
3.05511
3.04218
3.02834
3.0073
2.99388
2.97971
2.96477
2.95826
2.95729
2.968
3.00314
3.08765
3.15039
3.18458
3.19614
3.19048
3.1758
3.15555
3.13015
3.10132
3.08233
3.06244
3.03952
3.01937
2.99795
2.97449
2.95506
2.93648
2.91861
2.90419
2.88856
2.86939
2.84925
2.82858
2.81096
2.7967
2.78324
2.76916
2.75125
2.72934
2.70596
2.68191
2.66953
2.66215
2.65058
2.6396
2.62805
2.61223
2.59655
2.58022
2.56285
2.54855
2.5336
2.5114
2.49773
2.48742
2.47502
2.46371
2.45205
2.43698
2.42042
2.40905
2.4017
2.39604
2.39069
2.38318
2.36673
2.34277
2.31973
2.30999
2.30688
2.30346
2.29429
2.27622
2.25444
2.23636
2.22887
2.22689
2.22654
2.22149
2.20881
2.18432
2.15304
2.13379
2.12803
2.12567
2.12158
2.11499
2.1044
2.09122
2.08484
2.08343
2.08617
2.08543
2.07704
2.05934
2.03438
2.0115
1.99824
1.98946
1.98193
1.97142
1.95208
1.93245
1.92853
1.92801
1.9361
1.94665
1.9445
1.9383
1.92658
1.90243
1.86441
1.84046
1.83544
1.83571
1.84569
1.85927
1.85841
1.85155
1.83508
1.80712
1.78382
1.77806
1.77718
1.7756
1.77196
1.76607
1.75268
1.73538
1.73112
1.72958
1.73146
1.73743
1.73597
1.73254
1.72681
1.70974
1.67817
1.65723
1.65371
1.6517
1.64913
1.64698
1.64456
1.64152
1.63792
1.63506
1.63362
1.63268
1.63062
1.62576
1.61369
1.60152
1.59541
1.59148
1.58733
1.58129
1.56876
1.55078
1.54084
1.53986
1.54091
1.5456
1.54566
1.54301
1.53775
1.52548
1.51397
1.51135
1.51005
1.50817
1.50572
1.50143
1.48986
1.47118
4.00807
3.98379
3.96057
3.93907
3.918
3.89741
3.88205
3.86424
3.84448
3.82234
3.80334
3.78995
3.77192
3.75499
3.73342
3.71267
3.69677
3.6783
3.66151
3.64027
3.62334
3.60851
3.58833
3.57178
3.55232
3.5358
3.52334
3.50549
3.48966
3.47009
3.45054
3.43956
3.42325
3.40665
3.39008
3.37138
3.35901
3.34272
3.32461
3.30898
3.28927
3.27187
3.25931
3.24622
3.23292
3.21262
3.19546
3.18324
3.16465
3.1475
3.13087
3.11196
3.09963
3.0841
3.06842
3.05583
3.03658
3.02306
3.01369
2.99641
2.97789
2.96264
2.95412
2.95594
2.97094
3.02909
3.10502
3.16667
3.20092
3.20188
3.19551
3.17969
3.15356
3.12565
3.10581
3.08313
3.06186
3.04134
3.01591
2.99553
2.97637
2.9574
2.94188
2.92765
2.91322
2.89346
2.86915
2.84801
2.8305
2.81304
2.79834
2.78168
2.76261
2.74238
2.71833
2.70198
2.69152
2.67867
2.66601
2.65336
2.63886
2.62523
2.61032
2.59341
2.5779
2.56238
2.53851
2.5218
2.51306
2.5008
2.48975
2.47898
2.46368
2.44718
2.43684
2.42847
2.42114
2.41353
2.40411
2.38884
2.3675
2.34596
2.33617
2.33265
2.32811
2.31698
2.29748
2.27656
2.26048
2.25446
2.25277
2.25158
2.24539
2.23107
2.20578
2.17553
2.15759
2.15211
2.14975
2.14585
2.13951
2.12979
2.11931
2.11423
2.11274
2.11401
2.11103
2.10119
2.08049
2.05019
2.02651
2.01482
2.00813
2.00255
1.99475
1.97897
1.95913
1.95393
1.95287
1.95899
1.96863
1.9667
1.96064
1.94923
1.92559
1.88767
1.86208
1.85607
1.85608
1.86512
1.87934
1.87956
1.87301
1.85665
1.82849
1.80336
1.79611
1.7948
1.79353
1.79057
1.78593
1.77581
1.75811
1.75086
1.74915
1.74974
1.75647
1.7572
1.75365
1.74775
1.73127
1.69946
1.67387
1.66801
1.66613
1.66404
1.66195
1.66007
1.65835
1.65695
1.65649
1.65693
1.65563
1.65309
1.64647
1.63069
1.61509
1.60799
1.60433
1.60053
1.59533
1.58542
1.56932
1.55816
1.55676
1.55732
1.5617
1.56233
1.55967
1.55443
1.54191
1.52866
1.52522
1.52415
1.52257
1.5203
1.51666
1.50645
1.48768
1.47352
4.01321
3.99977
3.9746
3.94974
3.92459
3.90601
3.89084
3.8729
3.85306
3.82971
3.81564
3.79985
3.78252
3.76543
3.74548
3.72863
3.70955
3.69174
3.67309
3.65538
3.64321
3.6249
3.60742
3.58897
3.56713
3.55499
3.54004
3.52412
3.5085
3.48869
3.47597
3.46
3.44118
3.42482
3.40463
3.39085
3.37707
3.3589
3.34381
3.32348
3.30605
3.29002
3.27307
3.26077
3.24615
3.22441
3.20982
3.19494
3.1763
3.15929
3.13989
3.12642
3.11349
3.09629
3.08339
3.066
3.0491
3.04187
3.02915
3.01127
2.99116
2.96985
2.95458
2.95468
2.96316
2.99416
3.05984
3.13064
3.19029
3.20765
3.20676
3.19768
3.17609
3.15056
3.12721
3.10264
3.08132
3.05533
3.03424
3.01833
2.99989
2.98415
2.9681
2.95446
2.9376
2.91305
2.88816
2.8672
2.84717
2.83116
2.81426
2.79587
2.77776
2.75684
2.73804
2.72323
2.70791
2.69415
2.68049
2.66592
2.65422
2.64137
2.626
2.61071
2.59453
2.56891
2.54621
2.53823
2.52741
2.51579
2.50741
2.49443
2.47777
2.46631
2.45588
2.44635
2.43682
2.42551
2.41155
2.39196
2.37084
2.36076
2.35691
2.35147
2.33818
2.31844
2.29842
2.28392
2.27866
2.27748
2.27568
2.26832
2.25241
2.22631
2.19735
2.1808
2.17582
2.17371
2.16994
2.16358
2.15495
2.14711
2.14305
2.14177
2.1413
2.13618
2.12381
2.10078
2.0676
2.04296
2.03243
2.02809
2.02388
2.01773
2.00515
1.98592
1.97888
1.9774
1.98143
1.99045
1.98889
1.98305
1.97199
1.94883
1.91091
1.88402
1.87719
1.87692
1.88507
1.89949
1.90035
1.89433
1.87852
1.85019
1.82342
1.81479
1.81325
1.8121
1.80947
1.80556
1.79793
1.78179
1.77131
1.76923
1.76893
1.77511
1.77792
1.77463
1.7688
1.75306
1.72155
1.69168
1.68315
1.6811
1.67916
1.67758