/*--------------------------------*- C++ -*----------------------------------*\
  =========                 |
  \\      /  F ield         | OpenFOAM: The Open Source CFD Toolbox
   \\    /   O peration     | Website:  https://openfoam.org
    \\  /    A nd           | Version:  7
     \\/     M anipulation  |
\*---------------------------------------------------------------------------*/
FoamFile
{
    version     2.0;
    format      ascii;
    class       volScalarField;
    location    "1.8";
    object      T;
}
// * * * * * * * * * * * * * * * * * * * * * * * * * * * * * * * * * * * * * //

dimensions      [0 0 0 1 0 0 0];

internalField   nonuniform List<scalar> 
16512
(
1
1
1
1
1
1
1
1
1
1
1
1
1
1
1
1
1
1
1
1
1
1
1
1
1
1
1
1
1
1
1
1
1
1
1
1
1
1
1
1
1
1
1
1
1
1
1
1
1
1
1
1
1
1
1
1
1
1
1
1
1
1
1
1
1
1
1
1
1
1
1
1
1
1
1
1
1
1
1
1
1
1
1
1
1
1
1
1
1
1
1
1
1
1
1
1
1
1
1
1
1
1
1
1
1
1
1
1
1
1
1
1
1
1
1
1
1
1
1
1
1
1
1
1
1
1
1
1
1
1
1
1
1
1
1
1
1
1
1
1
1
1
1
1
1
2.29178
2.68558
2.69209
2.6967
2.70187
2.70669
2.71128
2.7156
2.7197
2.7236
2.72718
2.7303
2.73296
2.73537
2.73792
2.74101
2.7449
2.74948
2.7542
2.75836
2.76153
2.76376
2.76553
2.76736
2.76974
2.77288
2.7765
2.77996
2.78277
2.78481
2.78632
2.78769
2.78915
2.79074
2.79243
2.7943
2.79638
2.79868
2.80105
2.80321
2.80489
2.80611
2.80711
2.80811
2.80909
2.8099
2.81029
1
1
1
1
1
1
1
1
1
1
1
1
1
1
1
1
1
1
1
1
1
1
1
1
1
1
1
1
1
1
1
1
1
1
1
1
1
1
1
1
1
1
1
1
1
1
1
1
1
1
1
1
1
1
1
1
1
1
1
1
1
1
1
1
1
1
1
1
1
1
1
1
1
1
1
1
1
1
1
1
1
1
1
1
1
1
1
1
1
1
1
1
1
1
1
1
1
1
1
1
1
1
1
1
1
1
1
1
1
1
1
1
1
1
1
1
1
1
1
1
1
1
1
1
1
1
1
1
1
1
1
1
1
1
1
1
1
1
1
1
1
1
1
1
1
2.28677
2.68501
2.692
2.6967
2.70186
2.70669
2.71129
2.7156
2.71969
2.72354
2.72709
2.73019
2.73284
2.73527
2.73785
2.74096
2.74486
2.74942
2.7541
2.75823
2.76139
2.76362
2.76542
2.76726
2.76964
2.77276
2.77634
2.77977
2.78258
2.78465
2.78618
2.78754
2.78898
2.79054
2.79225
2.79414
2.79625
2.79856
2.80089
2.80299
2.80462
2.80583
2.80686
2.80789
2.80887
2.80968
2.81005
1
1
1
1
1
1
1
1
1
1
1
1
1
1
1
1
1
1
1
1
1
1
1
1
1
1
1
1
1
1
1
1
1
1
1
1
1
1
1
1
1
1
1
1
1
1
1
1
1
1
1
1
1
1
1
1
1
1
1
1
1
1
1
1
1
1
1
1
1
1
1
1
1
1
1
1
1
1
1
1
1
1
1
1
1
1
1
1
1
1
1
1
1
1
1
1
1
1
1
1
1
1
1
1
1
1
1
1
1
1
1
1
1
1
1
1
1
1
1
1
1
1
1
1
1
1
1
1
1
1
1
1
1
1
1
1
1
1
1
1
1
1
1
1
1
2.27545
2.68457
2.69186
2.69668
2.70182
2.70665
2.71124
2.71553
2.71957
2.72336
2.72685
2.72993
2.73258
2.73505
2.7377
2.74089
2.74482
2.74936
2.75398
2.75803
2.76114
2.76335
2.76518
2.76706
2.76946
2.77256
2.77609
2.77949
2.78229
2.78438
2.78594
2.7873
2.78871
2.79025
2.79196
2.79389
2.79605
2.79836
2.80064
2.80265
2.80421
2.80539
2.80644
2.80751
2.80852
2.80932
2.80968
1
1
1
1
1
1
1
1
1
1
1
1
1
1
1
1
1
1
1
1
1
1
1
1
1
1
1
1
1
1
1
1
1
1
1
1
1
1
1
1
1
1
1
1
1
1
1
1
1
1
1
1
1
1
1
1
1
1
1
1
1
1
1
1
1
1
1
1
1
1
1
1
1
1
1
1
1
1
1
1
1
1
1
1
1
1
1
1
1
1
1
1
1
1
1
1
1
1
1
1
1
1
1
1
1
1
1
1
1
1
1
1
1
1
1
1
1
1
1
1
1
1
1
1
1
1
1
1
1
1
1
1
1
1
1
1
1
1
1
1
1
1
1
1
1
2.25867
2.68363
2.69178
2.69673
2.70189
2.70672
2.71126
2.71547
2.71939
2.72306
2.72647
2.72951
2.73218
2.73471
2.73747
2.74077
2.74477
2.74931
2.75384
2.75776
2.76077
2.76294
2.76478
2.7667
2.76913
2.77223
2.77573
2.77909
2.78188
2.78398
2.78556
2.78691
2.78828
2.78981
2.79156
2.79355
2.79576
2.79806
2.80026
2.80214
2.8036
2.80475
2.80584
2.80696
2.80799
2.80878
2.8091
1
1
1
1
1
1
1
1
1
1
1
1
1
1
1
1
1
1
1
1
1
1
1
1
1
1
1
1
1
1
1
1
1
1
1
1
1
1
1
1
1
1
1
1
1
1
1
1
1
1
1
1
1
1
1
1
1
1
1
1
1
1
1
1
1
1
1
1
1
1
1
1
1
1
1
1
1
1
1
1
1
1
1
1
1
1
1
1
1
1
1
1
1
1
1
1
1
1
1
1
1
1
1
1
1
1
1
1
1
1
1
1
1
1
1
1
1
1
1
1
1
1
1
1
1
1
1
1
1
1
1
1
1
1
1
1
1
1
1
1
1
1
1
1
1
2.23645
2.68209
2.69163
2.69669
2.70193
2.70678
2.71127
2.71536
2.71912
2.72262
2.72591
2.72892
2.73162
2.73425
2.73716
2.74062
2.7447
2.74926
2.7537
2.75746
2.76034
2.76241
2.76424
2.76617
2.76865
2.77177
2.77527
2.77861
2.78139
2.78347
2.78502
2.78633
2.78768
2.78922
2.79104
2.79311
2.79536
2.79764
2.79973
2.80147
2.80283
2.80396
2.80509
2.80627
2.80732
2.80808
2.80839
1
1
1
1
1
1
1
1
1
1
1
1
1
1
1
1
1
1
1
1
1
1
1
1
1
1
1
1
1
1
1
1
1
1
1
1
1
1
1
1
1
1
1
1
1
1
1
1
1
1
1
1
1
1
1
1
1
1
1
1
1
1
1
1
1
1
1
1
1
1
1
1
1
1
1
1
1
1
1
1
1
1
1
1
1
1
1
1
1
1
1
1
1
1
1
1
1
1
1
1
1
1
1
1
1
1
1
1
1
1
1
1
1
1
1
1
1
1
1
1
1
1
1
1
1
1
1
1
1
1
1
1
1
1
1
1
1
1
1
1
1
1
1
1
1
2.20839
2.67983
2.69129
2.69648
2.70188
2.70681
2.71128
2.71524
2.71879
2.72205
2.72516
2.72811
2.73087
2.73363
2.73674
2.74039
2.7446
2.74919
2.75355
2.75713
2.75984
2.76177
2.76354
2.76546
2.76799
2.77117
2.77473
2.77808
2.78082
2.78283
2.7843
2.78556
2.78692
2.78852
2.79043
2.79257
2.79484
2.79705
2.79903
2.80063
2.80191
2.80302
2.80419
2.80541
2.80648
2.80723
2.80751
1
1
1
1
1
1
1
1
1
1
1
1
1
1
1
1
1
1
1
1
1
1
1
1
1
1
1
1
1
1
1
1
1
1
1
1
1
1
1
1
1
1
1
1
1
1
1
1
1
1
1
1
1
1
1
1
1
1
1
1
1
1
1
1
1
1
1
1
1
1
1
1
1
1
1
1
1
1
1
1
1
1
1
1
1
1
1
1
1
1
1
1
1
1
1
1
1
1
1
1
1
1
1
1
1
1
1
1
1
1
1
1
1
1
1
1
1
1
1
1
1
1
1
1
1
1
1
1
1
1
1
1
1
1
1
1
1
1
1
1
1
1
1
1
1
2.17413
2.67661
2.69056
2.696
2.70174
2.70683
2.71132
2.71514
2.71844
2.72139
2.72424
2.72708
2.72986
2.73278
2.73613
2.74004
2.74441
2.74905
2.75334
2.75675
2.75927
2.76102
2.76268
2.76457
2.76716
2.77045
2.7741
2.77746
2.78013
2.78202
2.78338
2.78461
2.78601
2.78772
2.78973
2.79193
2.79417
2.79629
2.79814
2.79963
2.80084
2.80195
2.80314
2.80439
2.80547
2.80619
2.80646
1
1
1
1
1
1
1
1
1
1
1
1
1
1
1
1
1
1
1
1
1
1
1
1
1
1
1
1
1
1
1
1
1
1
1
1
1
1
1
1
1
1
1
1
1
1
1
1
1
1
1
1
1
1
1
1
1
1
1
1
1
1
1
1
1
1
1
1
1
1
1
1
1
1
1
1
1
1
1
1
1
1
1
1
1
1
1
1
1
1
1
1
1
1
1
1
1
1
1
1
1
1
1
1
1
1
1
1
1
1
1
1
1
1
1
1
1
1
1
1
1
1
1
1
1
1
1
1
1
1
1
1
1
1
1
1
1
1
1
1
1
1
1
1
1
2.13319
2.67234
2.68914
2.69511
2.70142
2.70681
2.71139
2.71512
2.71816
2.72076
2.72325
2.72585
2.72858
2.73161
2.73521
2.73943
2.74404
2.7488
2.75307
2.75631
2.75862
2.76016
2.76168
2.76351
2.76618
2.76961
2.77337
2.77673
2.77928
2.78101
2.78227
2.78347
2.78496
2.7868
2.78891
2.79111
2.79328
2.79529
2.79702
2.79843
2.79961
2.80072
2.80194
2.80322
2.80432
2.80503
2.80529
1
1
1
1
1
1
1
1
1
1
1
1
1
1
1
1
1
1
1
1
1
1
1
1
1
1
1
1
1
1
1
1
1
1
1
1
1
1
1
1
1
1
1
1
1
1
1
1
1
1
1
1
1
1
1
1
1
1
1
1
1
1
1
1
1
1
1
1
1
1
1
1
1
1
1
1
1
1
1
1
1
1
1
1
1
1
1
1
1
1
1
1
1
1
1
1
1
1
1
1
1
1
1
1
1
1
1
1
1
1
1
1
1
1
1
1
1
1
1
1
1
1
1
1
1
1
1
1
1
1
1
1
1
1
1
1
1
1
1
1
1
1
1
1
1
2.08476
2.66713
2.68669
2.69344
2.70056
2.70655
2.71141
2.71514
2.71798
2.72023
2.7223
2.72455
2.72711
2.73013
2.73391
2.73844
2.74339
2.74836
2.75268
2.75579
2.7579
2.75922
2.76058
2.76235
2.76508
2.76866
2.77251
2.77585
2.77827
2.77984
2.78099
2.78221
2.78379
2.78577
2.78793
2.7901
2.79216
2.79403
2.79567
2.79703
2.7982
2.79933
2.80057
2.80187
2.803
2.80371
2.804
1
1
1
1
1
1
1
1
1
1
1
1
1
1
1
1
1
1
1
1
1
1
1
1
1
1
1
1
1
1
1
1
1
1
1
1
1
1
1
1
1
1
1
1
1
1
1
1
1
1
1
1
1
1
1
1
1
1
1
1
1
1
1
1
1
1
1
1
1
1
1
1
1
1
1
1
1
1
1
1
1
1
1
1
1
1
1
1
1
1
1
1
1
1
1
1
1
1
1
1
1
1
1
1
1
1
1
1
1
1
1
1
1
1
1
1
1
1
1
1
1
1
1
1
1
1
1
1
1
1
1
1
1
1
1
1
1
1
1
1
1
1
1
1
1
2.02779
2.66087
2.68304
2.69065
2.69866
2.70546
2.71099
2.71501
2.7178
2.71979
2.72145
2.72328
2.72551
2.72835
2.73214
2.73695
2.74229
2.7476
2.7521
2.75515
2.75708
2.75818
2.75937
2.76106
2.76384
2.76752
2.77146
2.77479
2.7771
2.77855
2.77965
2.78089
2.78258
2.78464
2.78682
2.7889
2.79082
2.79256
2.79411
2.79545
2.79662
2.79776
2.799
2.80033
2.80149
2.80222
2.80253
1
1
1
1
1
1
1
1
1
1
1
1
1
1
1
1
1
1
1
1
1
1
1
1
1
1
1
1
1
1
1
1
1
1
1
1
1
1
1
1
1
1
1
1
1
1
1
1
1
1
1
1
1
1
1
1
1
1
1
1
1
1
1
1
1
1
1
1
1
1
1
1
1
1
1
1
1
1
1
1
1
1
1
1
1
1
1
1
1
1
1
1
1
1
1
1
1
1
1
1
1
1
1
1
1
1
1
1
1
1
1
1
1
1
1
1
1
1
1
1
1
1
1
1
1
1
1
1
1
1
1
1
1
1
1
1
1
1
1
1
1
1
1
1
1
1.96089
2.65274
2.67831
2.68671
2.69556
2.70324
2.70964
2.71438
2.71749
2.71943
2.72081
2.7222
2.72397
2.7264
2.72997
2.73487
2.74058
2.74633
2.75118
2.75431
2.75613
2.75705
2.75805
2.75962
2.76236
2.76611
2.77012
2.77347
2.77573
2.77712
2.7782
2.77948
2.78123
2.78334
2.7855
2.78748
2.78926
2.79089
2.79237
2.79369
2.79486
2.79601
2.79725
2.7986
2.79978
2.80054
2.8009
1
1
1
1
1
1
1
1
1
1
1
1
1
1
1
1
1
1
1
1
1
1
1
1
1
1
1
1
1
1
1
1
1
1
1
1
1
1
1
1
1
1
1
1
1
1
1
1
1
1
1
1
1
1
1
1
1
1
1
1
1
1
1
1
1
1
1
1
1
1
1
1
1
1
1
1
1
1
1
1
1
1
1
1
1
1
1
1
1
1
1
1
1
1
1
1
1
1
1
1
1
1
1
1
1
1
1
1
1
1
1
1
1
1
1
1
1
1
1
1
1
1
1
1
1
1
1
1
1
1
1
1
1
1
1
1
1
1
1
1
1
1
1
1
1
1.8818
2.64083
2.6733
2.68212
2.69148
2.69986
2.70714
2.71282
2.7167
2.71898
2.72032
2.72136
2.72264
2.72452
2.72761
2.73235
2.73833
2.74455
2.74992
2.75334
2.75517
2.75593
2.75669
2.75805
2.76065
2.76437
2.76845
2.77188
2.77419
2.77557
2.77664
2.77794
2.7797
2.78181
2.78393
2.78581
2.78748
2.78901
2.79043
2.79174
2.79291
2.79406
2.79529
2.79664
2.79785
2.79865
2.79904
1
1
1
1
1
1
1
1
1
1
1
1
1
1
1
1
1
1
1
1
1
1
1
1
1
1
1
1
1
1
1
1
1
1
1
1
1
1
1
1
1
1
1
1
1
1
1
1
1
1
1
1
1
1
1
1
1
1
1
1
1
1
1
1
1
1
1
1
1
1
1
1
1
1
1
1
1
1
1
1
1
1
1
1
1
1
1
1
1
1
1
1
1
1
1
1
1
1
1
1
1
1
1
1
1
1
1
1
1
1
1
1
1
1
1
1
1
1
1
1
1
1
1
1
1
1
1
1
1
1
1
1
1
1
1
1
1
1
1
1
1
1
1
1
1
1.78989
2.62279
2.67005
2.6782
2.6871
2.69552
2.70341
2.70997
2.71492
2.71803
2.71964
2.72049
2.72135
2.72262
2.72503
2.72932
2.73533
2.742
2.74807
2.75204
2.75407
2.75476
2.75528
2.75637
2.75871
2.76235
2.76653
2.77012
2.77254
2.77396
2.77501
2.77626
2.77798
2.78004
2.78209
2.7839
2.78548
2.78692
2.7883
2.78959
2.79075
2.79189
2.79313
2.79447
2.79572
2.79656
2.79698
1
1
1
1
1
1
1
1
1
1
1
1
1
1
1
1
1
1
1
1
1
1
1
1
1
1
1
1
1
1
1
1
1
1
1
1
1
1
1
1
1
1
1
1
1
1
1
1
1
1
1
1
1
1
1
1
1
1
1
1
1
1
1
1
1
1
1
1
1
1
1
1
1
1
1
1
1
1
1
1
1
1
1
1
1
1
1
1
1
1
1
1
1
1
1
1
1
1
1
1
1
1
1
1
1
1
1
1
1
1
1
1
1
1
1
1
1
1
1
1
1
1
1
1
1
1
1
1
1
1
1
1
1
1
1
1
1
1
1
1
1
1
1
1
1
1.68451
2.59707
2.66967
2.67597
2.68352
2.69107
2.69872
2.70578
2.71172
2.71592
2.71827
2.71934
2.72003
2.72086
2.72256
2.72612
2.73182
2.73874
2.7455
2.75024
2.75268
2.75339
2.75367
2.75445
2.75648
2.76002
2.76433
2.76817
2.77079
2.77226
2.77326
2.77441
2.776
2.77798
2.77998
2.78175
2.78326
2.78464
2.78597
2.78722
2.78836
2.78949
2.79073
2.79207
2.79334
2.79422
2.79466
1
1
1
1
1
1
1
1
1
1
1
1
1
1
1
1
1
1
1
1
1
1
1
1
1
1
1
1
1
1
1
1
1
1
1
1
1
1
1
1
1
1
1
1
1
1
1
1
1
1
1
1
1
1
1
1
1
1
1
1
1
1
1
1
1
1
1
1
1
1
1
1
1
1
1
1
1
1
1
1
1
1
1
1
1
1
1
1
1
1
1
1
1
1
1
1
1
1
1
1
1
1
1
1
1
1
1
1
1
1
1
1
1
1
1
1
1
1
1
1
1
1
1
1
1
1
1
1
1
1
1
1
1
1
1
1
1
1
1
1
1
1
1
1
1
1.56479
2.56138
2.67132
2.6751
2.6809
2.68699
2.69375
2.70077
2.70733
2.71261
2.71609
2.71786
2.71869
2.71926
2.7203
2.72297
2.72801
2.73489
2.74219
2.74781
2.75089
2.75179
2.75188
2.75238
2.75406
2.75744
2.76186
2.766
2.76887
2.77042
2.77134
2.77233
2.77377
2.77565
2.77761
2.77935
2.78082
2.78213
2.78339
2.78459
2.78572
2.78684
2.78808
2.78943
2.79074
2.79164
2.79211
1
1
1
1
1
1
1
1
1
1
1
1
1
1
1
1
1
1
1
1
1
1
1
1
1
1
1
1
1
1
1
1
1
1
1
1
1
1
1
1
1
1
1
1
1
1
1
1
1
1
1
1
1
1
1
1
1
1
1
1
1
1
1
1
1
1
1
1
1
1
1
1
1
1
1
1
1
1
1
1
1
1
1
1
1
1
1
1
1
1
1
1
1
1
1
1
1
1
1
1
1
1
1
1
1
1
1
1
1
1
1
1
1
1
1
1
1
1
1
1
1
1
1
1
1
1
1
1
1
1
1
1
1
1
1
1
1
1
1
1
1
1
1
1
1
1.43245
2.5137
2.67309
2.67464
2.67896
2.68362
2.68929
2.69543
2.7019
2.708
2.71276
2.71563
2.71698
2.71757
2.71819
2.72004
2.72422
2.73072
2.73825
2.74471
2.74856
2.74984
2.74983
2.75012
2.75146
2.75461
2.7591
2.76352
2.76667
2.76833
2.76919
2.77002
2.77129
2.77305
2.775
2.77674
2.77817
2.77941
2.78058
2.78172
2.78281
2.78392
2.78516
2.78651
2.78783
2.78875
2.78924
1
1
1
1
1
1
1
1
1
1
1
1
1
1
1
1
1
1
1
1
1
1
1
1
1
1
1
1
1
1
1
1
1
1
1
1
1
1
1
1
1
1
1
1
1
1
1
1
1
1
1
1
1
1
1
1
1
1
1
1
1
1
1
1
1
1
1
1
1
1
1
1
1
1
1
1
1
1
1
1
1
1
1
1
1
1
1
1
1
1
1
1
1
1
1
1
1
1
1
1
1
1
1
1
1
1
1
1
1
1
1
1
1
1
1
1
1
1
1
1
1
1
1
1
1
1
1
1
1
1
1
1
1
1
1
1
1
1
1
1
1
1
1
1
1
1.29055
2.45239
2.67477
2.6736
2.67734
2.68079
2.6853
2.6904
2.69629
2.70264
2.70836
2.71242
2.71461
2.71556
2.71606
2.71735
2.72065
2.72645
2.73384
2.74087
2.74552
2.74741
2.74753
2.74774
2.74878
2.75164
2.75607
2.76069
2.76413
2.76594
2.76675
2.76744
2.76854
2.7702
2.77212
2.77387
2.77528
2.77643
2.77749
2.77854
2.77958
2.78068
2.78192
2.78329
2.78464
2.78558
2.78608
1
1
1
1
1
1
1
1
1
1
1
1
1
1
1
1
1
1
1
1
1
1
1
1
1
1
1
1
1
1
1
1
1
1
1
1
1
1
1
1
1
1
1
1
1
1
1
1
1
1
1
1
1
1
1
1
1
1
1
1
1
1
1
1
1
1
1
1
1
1
1
1
1
1
1
1
1
1
1
1
1
1
1
1
1
1
1
1
1
1
1
1
1
1
1
1
1
1
1
1
1
1
1
1
1
1
1
1
1
1
1
1
1
1
1
1
1
1
1
1
1
1
1
1
1
1
1
1
1
1
1
1
1
1
1
1
1
1
1
1
1
1
1
1
1
1.14245
2.3818
2.67485
2.67296
2.67618
2.67902
2.68254
2.68682
2.69204
2.69793
2.7038
2.70852
2.71153
2.7131
2.71383
2.71487
2.7174
2.72228
2.72911
2.73634
2.74171
2.74442
2.74493
2.74518
2.74604
2.74857
2.75278
2.75747
2.76116
2.76317
2.764
2.76458
2.76554
2.76709
2.76898
2.77075
2.77213
2.77319
2.77413
2.77507
2.77605
2.77713
2.77835
2.77971
2.78106
2.78201
2.78251
1
1
1
1
1
1
1
1
1
1
1
1
1
1
1
1
1
1
1
1
1
1
1
1
1
1
1
1
1
1
1
1
1
1
1
1
1
1
1
1
1
1
1
1
1
1
1
1
1
1
1
1
1
1
1
1
1
1
1
1
1
1
1
1
1
1
1
1
1
1
1
1
1
1
1
1
1
1
1
1
1
1
1
1
1
1
1
1
1
1
1
1
1
1
1
1
1
1
1
1
1
1
1
1
1
1
1
1
1
1
1
1
1
1
1
1
1
1
1
1
1
1
1
1
1
1
1
1
1
1
1
1
1
1
1
1
1
1
1
1
1
1
1
1
1
1.0181
2.31805
2.67519
2.67384
2.67685
2.67975
2.6833
2.68713
2.6911
2.69538
2.70001
2.70447
2.70798
2.71022
2.71144
2.7125
2.71453
2.71845
2.72438
2.73132
2.73716
2.74075
2.7419
2.74236
2.74315
2.74534
2.74922
2.75383
2.75771
2.75997
2.7609
2.76144
2.76228
2.76372
2.76556
2.76732
2.76868
2.76965
2.77045
2.77126
2.77215
2.77318
2.77438
2.77574
2.7771
2.77806
2.77856
1
1
1
1
1
1
1
1
1
1
1
1
1
1
1
1
1
1
1
1
1
1
1
1
1
1
1
1
1
1
1
1
1
1
1
1
1
1
1
1
1
1
1
1
1
1
1
1
1
1
1
1
1
1
1
1
1
1
1
1
1
1
1
1
1
1
1
1
1
1
1
1
1
1
1
1
1
1
1
1
1
1
1
1
1
1
1
1
1
1
1
1
1
1
1
1
1
1
1
1
1
1
1
1
1
1
1
1
1
1
1
1
1
1
1
1
1
1
1
1
1
1
1
1
1
1
1
1
1
1
1
1
1
1
1
1
1
1
1
1
1
1
1
1
1
1.00023
2.23093
2.67397
2.67587
2.67836
2.6813
2.68427
2.68734
2.69048
2.69377
2.69744
2.70119
2.70461
2.70729
2.70907
2.71037
2.71212
2.71517
2.71997
2.72616
2.73208
2.73639
2.73834
2.73916
2.74001
2.74192
2.74539
2.7498
2.75379
2.75634
2.75744
2.758
2.75876
2.76007
2.76183
2.76357
2.7649
2.7658
2.76646
2.76712
2.76789
2.76884
2.76999
2.77131
2.77265
2.77358
2.77407
1
1
1
1
1
1
1
1
1
1
1
1
1
1
1
1
1
1
1
1
1
1
1
1
1
1
1
1
1
1
1
1
1
1
1
1
1
1
1
1
1
1
1
1
1
1
1
1
1
1
1
1
1
1
1
1
1
1
1
1
1
1
1
1
1
1
1
1
1
1
1
1
1
1
1
1
1
1
1
1
1
1
1
1
1
1
1
1
1
1
1
1
1
1
1
1
1
1
1
1
1
1
1
1
1
1
1
1
1
1
1
1
1
1
1
1
1
1
1
1
1
1
1
1
1
1
1
1
1
1
1
1
1
1
1
1
1
1
1
1
1
1
1
1
1
1
2.12219
2.66716
2.67565
2.67969
2.68359
2.6867
2.6893
2.69174
2.69432
2.69715
2.70004
2.70291
2.70541
2.70731
2.70873
2.71027
2.7126
2.71622
2.7213
2.72684
2.7315
2.73424
2.73553
2.73653
2.73824
2.74128
2.74539
2.7494
2.75222
2.75359
2.75423
2.75494
2.75613
2.75778
2.75945
2.76074
2.76156
2.76207
2.76255
2.76316
2.76399
2.76508
2.76638
2.76769
2.7686
2.76908
1
1
1
1
1
1
1
1
1
1
1
1
1
1
1
1
1
1
1
1
1
1
1
1
1
1
1
1
1
1
1
1
1
1
1
1
1
1
1
1
1
1
1
1
1
1
1
1
1
1
1
1
1
1
1
1
1
1
1
1
1
1
1
1
1
1
1
1
1
1
1
1
1
1
1
1
1
1
1
1
1
1
1
1
1
1
1
1
1
1
1
1
1
1
1
1
1
1
1
1
1
1
1
1
1
1
1
1
1
1
1
1
1
1
1
1
1
1
1
1
1
1
1
1
1
1
1
1
1
1
1
1
1
1
1
1
1
1
1
1
1
1
1
1
1
1
1.98422
2.64309
2.67363
2.67892
2.68314
2.68665
2.68956
2.69215
2.69467
2.69725
2.69978
2.70217
2.70437
2.7062
2.70764
2.70898
2.71071
2.71331
2.71714
2.72187
2.7264
2.72968
2.73146
2.73268
2.73425
2.73688
2.74062
2.74457
2.74763
2.74931
2.7501
2.7508
2.75187
2.75336
2.75494
2.75617
2.75692
2.7573
2.75759
2.75802
2.75868
2.75963
2.76084
2.76207
2.76288
2.76332
1
1
1
1
1
1
1
1
1
1
1
1
1
1
1
1
1
1
1
1
1
1
1
1
1
1
1
1
1
1
1
1
1
1
1
1
1
1
1
1
1
1
1
1
1
1
1
1
1
1
1
1
1
1
1
1
1
1
1
1
1
1
1
1
1
1
1
1
1
1
1
1
1
1
1
1
1
1
1
1
1
1
1
1
1
1
1
1
1
1
1
1
1
1
1
1
1
1
1
1
1
1
1
1
1
1
1
1
1
1
1
1
1
1
1
1
1
1
1
1
1
1
1
1
1
1
1
1
1
1
1
1
1
1
1
1
1
1
1
1
1
1
1
1
1
1
1.82219
2.60011
2.66487
2.67401
2.68123
2.68581
2.68909
2.69172
2.69404
2.69643
2.69896
2.70141
2.70369
2.70564
2.70713
2.70827
2.70961
2.71127
2.71393
2.71761
2.72155
2.72496
2.72709
2.72852
2.72999
2.73224
2.73555
2.73934
2.74256
2.74457
2.74556
2.74627
2.74722
2.74854
2.74998
2.75114
2.75181
2.75203
2.75209
2.75225
2.7527
2.75348
2.75456
2.7557
2.75648
2.75689
1
1
1
1
1
1
1
1
1
1
1
1
1
1
1
1
1
1
1
1
1
1
1
1
1
1
1
1
1
1
1
1
1
1
1
1
1
1
1
1
1
1
1
1
1
1
1
1
1
1
1
1
1
1
1
1
1
1
1
1
1
1
1
1
1
1
1
1
1
1
1
1
1
1
1
1
1
1
1
1
1
1
1
1
1
1
1
1
1
1
1
1
1
1
1
1
1
1
1
1
1
1
1
1
1
1
1
1
1
1
1
1
1
1
1
1
1
1
1
1
1
1
1
1
1
1
1
1
1
1
1
1
1
1
1
1
1
1
1
1
1
1
1
1
1
1
1.6342
2.5342
2.65058
2.66393
2.67367
2.67962
2.68462
2.68863
2.69171
2.69457
2.69738
2.70007
2.70259
2.7048
2.70651
2.70768
2.70869
2.71007
2.7116
2.71419
2.71728
2.72039
2.72264
2.72418
2.72554
2.72743
2.73026
2.73377
2.73704
2.73932
2.74055
2.7413
2.74215
2.74328
2.74457
2.74563
2.74615
2.74622
2.74607
2.74597
2.74613
2.74662
2.74745
2.74838
2.74903
2.74932
1
1
1
1
1
1
1
1
1
1
1
1
1
1
1
1
1
1
1
1
1
1
1
1
1
1
1
1
1
1
1
1
1
1
1
1
1
1
1
1
1
1
1
1
1
1
1
1
1
1
1
1
1
1
1
1
1
1
1
1
1
1
1
1
1
1
1
1
1
1
1
1
1
1
1
1
1
1
1
1
1
1
1
1
1
1
1
1
1
1
1
1
1
1
1
1
1
1
1
1
1
1
1
1
1
1
1
1
1
1
1
1
1
1
1
1
1
1
1
1
1
1
1
1
1
1
1
1
1
1
1
1
1
1
1
1
1
1
1
1
1
1
1
1
1
1
1.3855
2.44477
2.6442
2.64857
2.65948
2.66879
2.67602
2.68127
2.68548
2.6895
2.69345
2.69725
2.70063
2.7034
2.70541
2.70674
2.70764
2.70862
2.70991
2.71155
2.71374
2.71621
2.71835
2.71983
2.72103
2.72254
2.72483
2.72793
2.73113
2.73357
2.73503
2.73585
2.7366
2.73754
2.73863
2.73953
2.73991
2.73977
2.73932
2.73882
2.73858
2.73871
2.73922
2.73998
2.74052
2.74079
1
1
1
1
1
1
1
1
1
1
1
1
1
1
1
1
1
1
1
1
1
1
1
1
1
1
1
1
1
1
1
1
1
1
1
1
1
1
1
1
1
1
1
1
1
1
1
1
1
1
1
1
1
1
1
1
1
1
1
1
1
1
1
1
1
1
1
1
1
1
1
1
1
1
1
1
1
1
1
1
1
1
1
1
1
1
1
1
1
1
1
1
1
1
1
1
1
1
1
1
1
1
1
1
1
1
1
1
1
1
1
1
1
1
1
1
1
1
1
1
1
1
1
1
1
1
1
1
1
1
1
1
1
1
1
1
1
1
1
1
1
1
1
1
1
1
1.11363
2.35561
2.6472
2.64304
2.64786
2.6555
2.66371
2.67063
2.67641
2.68161
2.68672
2.69176
2.69646
2.70044
2.70335
2.70518
2.70633
2.70716
2.70809
2.70928
2.71075
2.7126
2.71436
2.71565
2.71662
2.7177
2.71939
2.72193
2.72489
2.72734
2.72896
2.72986
2.73052
2.73126
2.73212
2.73279
2.73298
2.73262
2.73184
2.73093
2.73019
2.72986
2.7299
2.73016
2.73037
2.7304
1
1
1
1
1
1
1
1
1
1
1
1
1
1
1
1
1
1
1
1
1
1
1
1
1
1
1
1
1
1
1
1
1
1
1
1
1
1
1
1
1
1
1
1
1
1
1
1
1
1
1
1
1
1
1
1
1
1
1
1
1
1
1
1
1
1
1
1
1
1
1
1
1
1
1
1
1
1
1
1
1
1
1
1
1
1
1
1
1
1
1
1
1
1
1
1
1
1
1
1
1
1
1
1
1
1
1
1
1
1
1
1
1
1
1
1
1
1
1
1
1
1
1
1
1
1
1
1
1
1
1
1
1
1
1
1
1
1
1
1
1
1
1
1
1
1
1.00355
2.28269
2.64687
2.63979
2.64496
2.65011
2.65592
2.66128
2.66683
2.67234
2.67802
2.68394
2.68981
2.69507
2.69922
2.70208
2.70392
2.70513
2.70611
2.70707
2.70815
2.70932
2.71071
2.71178
2.71242
2.71304
2.71408
2.71593
2.71844
2.72066
2.72235
2.7233
2.72386
2.7244
2.72498
2.72536
2.72527
2.72465
2.72345
2.72195
2.72043
2.71925
2.71862
2.71845
2.71841
2.71843
1
1
1
1
1
1
1
1
1
1
1
1
1
1
1
1
1
1
1
1
1
1
1
1
1
1
1
1
1
1
1
1
1
1
1
1
1
1
1
1
1
1
1
1
1
1
1
1
1
1
1
1
1
1
1
1
1
1
1
1
1
1
1
1
1
1
1
1
1
1
1
1
1
1
1
1
1
1
1
1
1
1
1
1
1
1
1
1
1
1
1
1
1
1
1
1
1
1
1
1
1
1
1
1
1
1
1
1
1
1
1
1
1
1
1
1
1
1
1
1
1
1
1
1
1
1
1
1
1
1
1
1
1
1
1
1
1
1
1
1
1
1
1
1
1
1
1
2.15353
2.65052
2.64879
2.65005
2.65152
2.65402
2.65718
2.66051
2.66425
2.66922
2.67513
2.68143
2.6875
2.69278
2.69688
2.69978
2.70177
2.70322
2.7044
2.70545
2.70641
2.70731
2.70811
2.70849
2.70864
2.70903
2.71009
2.71191
2.71367
2.71524
2.71617
2.71661
2.71691
2.71714
2.71719
2.71679
2.71574
2.71401
2.71183
2.7095
2.70742
2.70581
2.70455
2.70349
2.70267
1
1
1
1
1
1
1
1
1
1
1
1
1
1
1
1
1
1
1
1
1
1
1
1
1
1
1
1
1
1
1
1
1
1
1
1
1
1
1
1
1
1
1
1
1
1
1
1
1
1
1
1
1
1
1
1
1
1
1
1
1
1
1
1
1
1
1
1
1
1
1
1
1
1
1
1
1
1
1
1
1
1
1
1
1
1
1
1
1
1
1
1
1
1
1
1
1
1
1
1
1
1
1
1
1
1
1
1
1
1
1
1
1
1
1
1
1
1
1
1
1
1
1
1
1
1
1
1
1
1
1
1
1
1
1
1
1
1
1
1
1
1
1
1
1
1
1
1.98351
2.6384
2.65367
2.65368
2.65529
2.65618
2.65721
2.65847
2.66057
2.6635
2.66762
2.67301
2.6789
2.68458
2.68956
2.69356
2.6966
2.6989
2.70068
2.70208
2.70321
2.70404
2.7046
2.7047
2.70451
2.70431
2.70457
2.70552
2.70658
2.70776
2.7085
2.70875
2.70874
2.70861
2.70823
2.70737
2.7058
2.70343
2.70035
2.69674
2.69293
2.68939
2.68652
2.6844
2.68365
1
1
1
1
1
1
1
1
1
1
1
1
1
1
1
1
1
1
1
1
1
1
1
1
1
1
1
1
1
1
1
1
1
1
1
1
1
1
1
1
1
1
1
1
1
1
1
1
1
1
1
1
1
1
1
1
1
1
1
1
1
1
1
1
1
1
1
1
1
1
1
1
1
1
1
1
1
1
1
1
1
1
1
1
1
1
1
1
1
1
1
1
1
1
1
1
1
1
1
1
1
1
1
1
1
1
1
1
1
1
1
1
1
1
1
1
1
1
1
1
1
1
1
1
1
1
1
1
1
1
1
1
1
1
1
1
1
1
1
1
1
1
1
1
1
1
1
1.76952
2.57729
2.65177
2.65463
2.65707
2.65828
2.65886
2.65904
2.65948
2.66066
2.66306
2.66653
2.671
2.67604
2.68108
2.68568
2.6896
2.69284
2.69547
2.69756
2.69918
2.70029
2.70092
2.70089
2.70048
2.6998
2.69936
2.69947
2.69958
2.70007
2.70038
2.70032
2.69999
2.69938
2.69844
2.69699
2.69477
2.69152
2.68719
2.68195
2.67629
2.67074
2.6655
2.65973
2.65448
1
1
1
1
1
1
1
1
1
1
1
1
1
1
1
1
1
1
1
1
1
1
1
1
1
1
1
1
1
1
1
1
1
1
1
1
1
1
1
1
1
1
1
1
1
1
1
1
1
1
1
1
1
1
1
1
1
1
1
1
1
1
1
1
1
1
1
1
1
1
1
1
1
1
1
1
1
1
1
1
1
1
1
1
1
1
1
1
1
1
1
1
1
1
1
1
1
1
1
1
1
1
1
1
1
1
1
1
1
1
1
1
1
1
1
1
1
1
1
1
1
1
1
1
1
1
1
1
1
1
1
1
1
1
1
1
1
1
1
1
1
1
1
1
1
1
1
1.47734
2.46022
2.64302
2.6475
2.65194
2.65502
2.65728
2.65872
2.65948
2.66022
2.66122
2.66292
2.66558
2.66902
2.67305
2.67732
2.68149
2.68533
2.68872
2.69158
2.69392
2.69561
2.69664
2.69677
2.69635
2.69542
2.69442
2.69359
2.6928
2.69241
2.69204
2.69148
2.69063
2.68942
2.68781
2.68562
2.68255
2.67821
2.67243
2.66516
2.65649
2.64618
2.63415
2.622
2.61292
1
1
1
1
1
1
1
1
1
1
1
1
1
1
1
1
1
1
1
1
1
1
1
1
1
1
1
1
1
1
1
1
1
1
1
1
1
1
1
1
1
1
1
1
1
1
1
1
1
1
1
1
1
1
1
1
1
1
1
1
1
1
1
1
1
1
1
1
1
1
1
1
1
1
1
1
1
1
1
1
1
1
1
1
1
1
1
1
1
1
1
1
1
1
1
1
1
1
1
1
1
1
1
1
1
1
1
1
1
1
1
1
1
1
1
1
1
1
1
1
1
1
1
1
1
1
1
1
1
1
1
1
1
1
1
1
1
1
1
1
1
1
1
1
1
1
1
1.13219
2.34267
2.63454
2.63188
2.63732
2.64445
2.65079
2.65507
2.65757
2.65906
2.66014
2.6612
2.66248
2.66432
2.66682
2.66991
2.67344
2.67719
2.68084
2.68419
2.68721
2.68968
2.69135
2.6919
2.6917
2.69085
2.68955
2.68788
2.68628
2.68491
2.68366
2.68235
2.68078
2.67883
2.6764
2.67329
2.66917
2.66351
2.65585
2.64573
2.63277
2.61677
2.59779
2.57951
2.57185
1
1
1
1
1
1
1
1
1
1
1
1
1
1
1
1
1
1
1
1
1
1
1
1
1
1
1
1
1
1
1
1
1
1
1
1
1
1
1
1
1
1
1
1
1
1
1
1
1
1
1
1
1
1
1
1
1
1
1
1
1
1
1
1
1
1
1
1
1
1
1
1
1
1
1
1
1
1
1
1
1
1
1
1
1
1
1
1
1
1
1
1
1
1
1
1
1
1
1
1
1
1
1
1
1
1
1
1
1
1
1
1
1
1
1
1
1
1
1
1
1
1
1
1
1
1
1
1
1
1
1
1
1
1
1
1
1
1
1
1
1
1
1
1
1
1
1
1.00458
2.25272
2.62204
2.61998
2.62642
2.6335
2.64086
2.64744
2.65227
2.65558
2.65774
2.65922
2.66035
2.66141
2.66271
2.66445
2.66676
2.66963
2.67283
2.67606
2.67929
2.68233
2.68476
2.68608
2.68626
2.68569
2.68432
2.68228
2.67996
2.67764
2.67539
2.67311
2.67062
2.66773
2.6643
2.66008
2.65468
2.64742
2.63759
2.62434
2.60675
2.5825
2.54601
2.48048
2.34084
1
1
1
1
1
1
1
1
1
1
1
1
1
1
1
1
1
1
1
1
1
1
1
1
1
1
1
1
1
1
1
1
1
1
1
1
1
1
1
1
1
1
1
1
1
1
1
1
1
1
1
1
1
1
1
1
1
1
1
1
1
1
1
1
1
1
1
1
1
1
1
1
1
1
1
1
1
1
1
1
1
1
1
1
1
1
1
1
1
1
1
1
1
1
1
1
1
1
1
1
1
1
1
1
1
1
1
1
1
1
1
1
1
1
1
1
1
1
1
1
1
1
1
1
1
1
1
1
1
1
1
1
1
1
1
1
1
1
1
1
1
1
1
1
1
1
1
0.999996
2.08702
2.61469
2.62322
2.62696
2.62984
2.63388
2.63924
2.64457
2.64922
2.65289
2.65556
2.65737
2.6586
2.65956
2.66052
2.66172
2.6634
2.66563
2.66805
2.67085
2.67392
2.67683
2.679
2.67987
2.67961
2.67848
2.67643
2.67367
2.67057
2.66733
2.66396
2.66035
2.65634
2.65171
2.64617
2.63927
2.63021
2.61796
2.60116
2.57751
2.543
2.48749
2.40593
2.19134
1
1
1
1
1
1
1
1
1
1
1
1
1
1
1
1
1
1
1
1
1
1
1
1
1
1
1
1
1
1
1
1
1
1
1
1
1
1
1
1
1
1
1
1
1
1
1
1
1
1
1
1
1
1
1
1
1
1
1
1
1
1
1
1
1
1
1
1
1
1
1
1
1
1
1
1
1
1
1
1
1
1
1
1
1
1
1
1
1
1
1
1
1
1
1
1
1
1
1
1
1
1
1
1
1
1
1
1
1
1
1
1
1
1
1
1
1
1
1
1
1
1
1
1
1
1
1
1
1
1
1
1
1
1
1
1
1
1
1
1
1
1
1
1
1
1
1
0.999998
1.86256
2.58473
2.62861
2.62829
2.62978
2.63189
2.63401
2.63745
2.64171
2.64601
2.64976
2.65271
2.6548
2.65619
2.65711
2.65779
2.65857
2.65965
2.66104
2.6628
2.66521
2.66798
2.67063
2.67226
2.67251
2.67178
2.66999
2.66714
2.66352
2.65944
2.65499
2.65018
2.64486
2.63884
2.63179
2.6232
2.61216
2.59744
2.57707
2.54851
2.50559
2.44631
2.32381
2.11578
1
1
1
1
1
1
1
1
1
1
1
1
1
1
1
1
1
1
1
1
1
1
1
1
1
1
1
1
1
1
1
1
1
1
1
1
1
1
1
1
1
1
1
1
1
1
1
1
1
1
1
1
1
1
1
1
1
1
1
1
1
1
1
1
1
1
1
1
1
1
1
1
1
1
1
1
1
1
1
1
1
1
1
1
1
1
1
1
1
1
1
1
1
1
1
1
1
1
1
1
1
1
1
1
1
1
1
1
1
1
1
1
1
1
1
1
1
1
1
1
1
1
1
1
1
1
1
1
1
1
1
1
1
1
1
1
1
1
1
1
1
1
1
1
1
1
1
1
1.54206
2.47931
2.62491
2.62517
2.62748
2.62907
2.63075
2.63296
2.63581
2.63931
2.64304
2.64656
2.64951
2.65173
2.65321
2.65403
2.65443
2.65474
2.65519
2.65575
2.65703
2.659
2.66143
2.66351
2.66439
2.66405
2.66267
2.66005
2.65626
2.65159
2.64623
2.64025
2.63356
2.62602
2.61729
2.60686
2.59374
2.57669
2.55318
2.52089
2.47299
2.40291
2.27406
2.08671
1
1
1
1
1
1
1
1
1
1
1
1
1
1
1
1
1
1
1
1
1
1
1
1
1
1
1
1
1
1
1
1
1
1
1
1
1
1
1
1
1
1
1
1
1
1
1
1
1
1
1
1
1
1
1
1
1
1
1
1
1
1
1
1
1
1
1
1
1
1
1
1
1
1
1
1
1
1
1
1
1
1
1
1
1
1
1
1
1
1
1
1
1
1
1
1
1
1
1
1
1
1
1
1
1
1
1
1
1
1
1
1
1
1
1
1
1
1
1
1
1
1
1
1
1
1
1
1
1
1
1
1
1
1
1
1
1
1
1
1
1
1
1
1
1
1
1
1
1.15209
2.34791
2.62126
2.61717
2.61922
2.62279
2.62636
2.62883
2.63107
2.6336
2.63655
2.6398
2.64304
2.64593
2.6482
2.64968
2.65027
2.65029
2.65012
2.64976
2.64992
2.65065
2.65217
2.65404
2.65526
2.65525
2.65435
2.65213
2.64848
2.64355
2.63753
2.63057
2.62257
2.61348
2.60298
2.59067
2.57548
2.55623
2.5303
2.49475
2.44473
2.36913
2.25013
2.1
1
1
1
1
1
1
1
1
1
1
1
1
1
1
1
1
1
1
1
1
1
1
1
1
1
1
1
1
1
1
1
1
1
1
1
1
1
1
1
1
1
1
1
1
1
1
1
1
1
1
1
1
1
1
1
1
1
1
1
1
1
1
1
1
1
1
1
1
1
1
1
1
1
1
1
1
1
1
1
1
1
1
1
1
1
1
1
1
1
1
1
1
1
1
1
1
1
1
1
1
1
1
1
1
1
1
1
1
1
1
1
1
1
1
1
1
1
1
1
1
1
1
1
1
1
1
1
1
1
1
1
1
1
1
1
1
1
1
1
1
1
1
1
1
1
1
1
1
1.006
2.2342
2.60297
2.6037
2.60903
2.61482
2.62013
2.62371
2.62631
2.62854
2.63083
2.63341
2.63631
2.63931
2.64203
2.64421
2.64543
2.64567
2.64524
2.64441
2.64367
2.6433
2.64363
2.64458
2.64555
2.64572
2.64508
2.64326
2.63994
2.63508
2.62874
2.62106
2.61198
2.60148
2.58925
2.57505
2.5579
2.53661
2.50888
2.47135
2.42007
2.34598
2.24319
2.11885
1
1
1
1
1
1
1
1
1
1
1
1
1
1
1
1
1
1
1
1
1
1
1
1
1
1
1
1
1
1
1
1
1
1
1
1
1
1
1
1
1
1
1
1
1
1
1
1
1
1
1
1
1
1
1
1
1
1
1
1
1
1
1
1
1
1
1
1
1
1
1
1
1
1
1
1
1
1
1
1
1
1
1
1
1
1
1
1
1
1
1
1
1
1
1
1
1
1
1
1
1
1
1
1
1
1
1
1
1
1
1
1
1
1
1
1
1
1
1
1
1
1
1
1
1
1
1
1
1
1
1
1
1
1
1
1
1
1
1
1
1
1
1
1
1
1
1
1
0.999993
2.02995
2.58516
2.60424
2.60793
2.6111
2.61439
2.61796
2.621
2.62345
2.62555
2.62764
2.62998
2.63258
2.63522
2.63771
2.63956
2.64034
2.64008
2.63922
2.63802
2.63681
2.636
2.63579
2.63591
2.63579
2.6351
2.63345
2.63045
2.62588
2.61957
2.61153
2.60166
2.59006
2.5763
2.56035
2.54139
2.51834
2.48929
2.45108
2.39962
2.33165
2.24293
2.1363
1
1
1
1
1
1
1
1
1
1
1
1
1
1
1
1
1
1
1
1
1
1
1
1
1
1
1
1
1
1
1
1
1
1
1
1
1
1
1
1
1
1
1
1
1
1
1
1
1
1
1
1
1
1
1
1
1
1
1
1
1
1
1
1
1
1
1
1
1
1
1
1
1
1
1
1
1
1
1
1
1
1
1
1
1
1
1
1
1
1
1
1
1
1
1
1
1
1
1
1
1
1
1
1
1
1
1
1
1
1
1
1
1
1
1
1
1
1
1
1
1
1
1
1
1
1
1
1
1
1
1
1
1
1
1
1
1
1
1
1
1
1
1
1
1
1
1
1
0.999997
1.73125
2.52563
2.60176
2.60467
2.60712
2.60978
2.61261
2.61545
2.61801
2.62018
2.62211
2.62406
2.62613
2.62833
2.63066
2.63275
2.63407
2.63422
2.63365
2.63243
2.63083
2.62921
2.6279
2.62693
2.62602
2.62483
2.62302
2.62014
2.61584
2.60978
2.60175
2.59153
2.57914
2.56428
2.54685
2.5263
2.50177
2.47184
2.4336
2.384
2.32201
2.24458
2.15422
1
1
1
1
1
1
1
1
1
1
1
1
1
1
1
1
1
1
1
1
1
1
1
1
1
1
1
1
1
1
1
1
1
1
1
1
1
1
1
1
1
1
1
1
1
1
1
1
1
1
1
1
1
1
1
1
1
1
1
1
1
1
1
1
1
1
1
1
1
1
1
1
1
1
1
1
1
1
1
1
1
1
1
1
1
1
1
1
1
1
1
1
1
1
1
1
1
1
1
1
1
1
1
1
1
1
1
1
1
1
1
1
1
1
1
1
1
1
1
1
1
1
1
1
1
1
1
1
1
1
1
1
1
1
1
1
1
1
1
1
1
1
1
1
1
1
1
1
0.999999
1.33388
2.40042
2.59702
2.59637
2.59997
2.60425
2.60738
2.61014
2.61263
2.61483
2.61676
2.61853
2.62015
2.62185
2.62369
2.62553
2.62705
2.62766
2.62738
2.62642
2.62484
2.62286
2.62075
2.61876
2.61682
2.61477
2.61237
2.60926
2.60505
2.59924
2.59145
2.58131
2.56857
2.55305
2.53462
2.51285
2.48714
2.45678
2.41869
2.37198
2.31577
2.24735
2.17101
1
1
1
1
1
1
1
1
1
1
1
1
1
1
1
1
1
1
1
1
1
1
1
1
1
1
1
1
1
1
1
1
1
1
1
1
1
1
1
1
1
1
1
1
1
1
1
1
1
1
1
1
1
1
1
1
1
1
1
1
1
1
1
1
1
1
1
1
1
1
1
1
1
1
1
1
1
1
1
1
1
1
1
1
1
1
1
1
1
1
1
1
1
1
1
1
1
1
1
1
1
1
1
1
1
1
1
1
1
1
1
1
1
1
1
1
1
1
1
1
1
1
1
1
1
1
1
1
1
1
1
1
1
1
1
1
1
1
1
1
1
1
1
1
1
1
1
1
1
1.0307
2.26531
2.59779
2.5934
2.59458
2.59827
2.60157
2.60439
2.60687
2.60911
2.61114
2.6128
2.61427
2.61563
2.617
2.61837
2.6197
2.6205
2.62044
2.61981
2.61847
2.61647
2.61399
2.61126
2.60841
2.60536
2.60207
2.59835
2.59384
2.58806
2.58052
2.57069
2.55809
2.54244
2.52351
2.50106
2.47456
2.44403
2.4063
2.36283
2.31204
2.25054
2.18557
1
1
1
1
1
1
1
1
1
1
1
1
1
1
1
1
1
1
1
1
1
1
1
1
1
1
1
1
1
1
1
1
1
1
1
1
1
1
1
1
1
1
1
1
1
1
1
1
1
1
1
1
1
1
1
1
1
1
1
1
1
1
1
1
1
1
1
1
1
1
1
1
1
1
1
1
1
1
1
1
1
1
1
1
1
1
1
1
1
1
1
1
1
1
1
1
1
1
1
1
1
1
1
1
1
1
1
1
1
1
1
1
1
1
1
1
1
1
1
1
1
1
1
1
1
1
1
1
1
1
1
1
1
1
1
1
1
1
1
1
1
1
1
1
1
1
1
1
1
1.00016
2.06196
2.56865
2.5819
2.58881
2.59271
2.59555
2.59841
2.60094
2.60325
2.60525
2.6069
2.60835
2.60953
2.61058
2.61151
2.61239
2.61302
2.61304
2.6126
2.61149
2.60966
2.60714
2.60405
2.60054
2.59666
2.59244
2.58782
2.58268
2.5766
2.5691
2.55958
2.54739
2.53209
2.51326
2.4907
2.46396
2.43361
2.39652
2.35617
2.30937
2.25351
2.19699
1
1
1
1
1
1
1
1
1
1
1
1
1
1
1
1
1
1
1
1
1
1
1
1
1
1
1
1
1
1
1
1
1
1
1
1
1
1
1
1
1
1
1
1
1
1
1
1
1
1
1
1
1
1
1
1
1
1
1
1
1
1
1
1
1
1
1
1
1
1
1
1
1
1
1
1
1
1
1
1
1
1
1
1
1
1
1
1
1
1
1
1
1
1
1
1
1
1
1
1
1
1
1
1
1
1
1
1
1
1
1
1
1
1
1
1
1
1
1
1
1
1
1
1
1
1
1
1
1
1
1
1
1
1
1
1
1
1
1
1
1
1
1
1
1
1
1
1
1
0.999999
1.73223
2.50559
2.58202
2.58438
2.58639
2.58961
2.59251
2.59508
2.59741
2.59927
2.6009
2.60234
2.60346
2.60433
2.60496
2.6054
2.60565
2.60554
2.60507
2.60405
2.60237
2.59996
2.59681
2.59299
2.58856
2.5836
2.57807
2.57204
2.56531
2.55751
2.54807
2.53631
2.52162
2.50342
2.48135
2.45514
2.4251
2.3892
2.35171
2.30711
2.25657
2.20597
1
1
1
1
1
1
1
1
1
1
1
1
1
1
1
1
1
1
1
1
1
1
1
1
1
1
1
1
1
1
1
1
1
1
1
1
1
1
1
1
1
1
1
1
1
1
1
1
1
1
1
1
1
1
1
1
1
1
1
1
1
1
1
1
1
1
1
1
1
1
1
1
1
1
1
1
1
1
1
1
1
1
1
1
1
1
1
1
1
1
1
1
1
1
1
1
1
1
1
1
1
1
1
1
1
1
1
1
1
1
1
1
1
1
1
1
1
1
1
1
1
1
1
1
1
1
1
1
1
1
1
1
1
1
1
1
1
1
1
1
1
1
1
1
1
1
1
1
1
1
1.29228
2.37753
2.57624
2.57332
2.57643
2.58173
2.5856
2.58863
2.59103
2.59294
2.59458
2.59601
2.59715
2.59797
2.59845
2.59856
2.59845
2.59809
2.5974
2.59628
2.59462
2.59231
2.58924
2.58538
2.58071
2.57527
2.56908
2.56221
2.55464
2.54623