/*--------------------------------*- C++ -*----------------------------------*\
  =========                 |
  \\      /  F ield         | OpenFOAM: The Open Source CFD Toolbox
   \\    /   O peration     | Website:  https://openfoam.org
    \\  /    A nd           | Version:  7
     \\/     M anipulation  |
\*---------------------------------------------------------------------------*/
FoamFile
{
    version     2.0;
    format      ascii;
    class       volScalarField;
    location    "3.2";
    object      rho;
}
// * * * * * * * * * * * * * * * * * * * * * * * * * * * * * * * * * * * * * //

dimensions      [1 -3 0 0 0 0 0];

internalField   nonuniform List<scalar> 
16192
(
1.08857
1.0901
1.09273
1.09412
1.09345
1.09015
1.08554
1.08323
1.08283
1.08315
1.08507
1.08876
1.09309
1.09427
1.09374
1.09202
1.08724
1.08149
1.07853
1.07787
1.07785
1.07882
1.08108
1.08246
1.08261
1.08192
1.07936
1.07333
1.0682
1.06686
1.06659
1.06695
1.06789
1.06767
1.06677
1.06412
1.05909
1.05492
1.05327
1.05261
1.0523
1.05296
1.05451
1.05518
1.0553
1.05517
1.05324
1.05003
1.04866
1.04849
1.04837
1.04797
1.04725
1.04616
1.04363
1.03873
1.03379
1.0323
1.03244
1.03314
1.0353
1.03901
1.04185
1.04316
1.04388
1.04388
1.04151
1.03847
1.03707
1.03661
1.03688
1.03895
1.04076
1.04109
1.04128
1.04163
1.04247
1.04341
1.04434
1.04472
1.04426
1.04392
1.0442
1.04474
1.04546
1.04652
1.04836
1.05181
1.05615
1.0582
1.05786
1.05546
1.05116
1.04791
1.04693
1.04702
1.04805
1.05121
1.05706
1.06373
1.06618
1.06581
1.0641
1.05932
1.05457
1.05294
1.05238
1.0529
1.05624
1.05912
1.06023
1.0607
1.06062
1.05981
1.05832
1.0568
1.05616
1.05675
1.06036
1.06315
1.06335
1.0632
1.06286
1.06174
1.0601
1.05856
1.05745
1.05696
1.05728
1.05885
1.05991
1.06028
1.06075
1.06186
1.0637
1.0648
1.06477
1.06429
1.06294
1.06013
1.05729
1.05593
1.05512
1.05458
1.05436
1.05535
1.05775
1.05832
1.05807
1.05765
1.05683
1.05473
1.0506
1.0467
1.04547
1.04528
1.04519
1.04535
1.046
1.04641
1.0463
1.04609
1.04606
1.0463
1.04728
1.04765
1.04754
1.04705
1.04528
1.04086
1.03447
1.03086
1.03003
1.02964
1.02935
1.02945
1.03009
1.02999
1.02961
1.02921
1.02879
1.02836
1.02791
1.02707
1.02479
1.0201
1.01747
1.27133
2.37433
2.6359
2.66902
2.69532
2.7086
2.71516
2.72246
2.72876
2.73879
2.75031
2.77109
2.78969
2.8086
2.82738
2.83764
2.84047
2.84053
2.84063
2.84328
2.84858
2.85848
2.86895
2.87496
2.87767
2.87984
2.88293
2.88549
2.88174
2.86752
2.84621
2.82519
2.80827
2.79888
2.79946
2.80437
2.79982
2.77861
2.75044
2.71703
2.6913
2.67856
2.67329
2.67621
2.68631
2.70306
2.72103
2.72815
2.72802
2.72364
2.71591
2.70896
2.70492
2.70329
2.70381
2.70605
2.70987
2.71604
2.72236
2.7256
2.72577
2.71898
2.70105
2.68045
2.67094
2.66666
1.08859
1.08861
1.08929
1.09056
1.09164
1.09193
1.09155
1.0901
1.08807
1.0871
1.08711
1.08857
1.09092
1.09226
1.09214
1.09126
1.09016
1.08832
1.085
1.08193
1.08063
1.08046
1.08127
1.08159
1.0808
1.07983
1.07835
1.07594
1.07379
1.07184
1.07025
1.06906
1.06847
1.06799
1.0672
1.06561
1.06318
1.06083
1.05881
1.05708
1.05595
1.05559
1.05566
1.05554
1.05533
1.05407
1.05056
1.04739
1.04682
1.04711
1.04811
1.04877
1.04864
1.04818
1.04707
1.04422
1.03975
1.03696
1.03627
1.03634
1.03753
1.0402
1.04169
1.04195
1.04173
1.04064
1.03967
1.03988
1.0404
1.04108
1.04238
1.04342
1.04331
1.04281
1.0421
1.04122
1.04067
1.04101
1.04218
1.04451
1.04718
1.04888
1.04936
1.0491
1.04859
1.0484
1.04868
1.05011
1.05248
1.05466
1.05609
1.05627
1.05602
1.05474
1.05236
1.05087
1.05067
1.05189
1.05574
1.0601
1.06243
1.06267
1.06191
1.06046
1.05975
1.05896
1.05818
1.05802
1.05907
1.05955
1.05917
1.05851
1.05783
1.0575
1.05781
1.05876
1.06013
1.06236
1.06407
1.06398
1.0635
1.06262
1.06077
1.05919
1.05868
1.059
1.06006
1.06153
1.06262
1.06248
1.06178
1.06106
1.06081
1.06084
1.06119
1.06197
1.06207
1.06166
1.06081
1.05947
1.05811
1.05745
1.05714
1.05689
1.05691
1.05826
1.06048
1.06112
1.06095
1.06057
1.05979
1.05802
1.05408
1.04896
1.04637
1.04556
1.04521
1.04506
1.04499
1.04498
1.04538
1.0462
1.04694
1.04794
1.04933
1.05
1.04993
1.04945
1.04817
1.04507
1.03923
1.03407
1.03253
1.03208
1.03174
1.03166
1.03223
1.03227
1.03178
1.03118
1.03052
1.02986
1.02916
1.02797
1.02515
1.01973
1.01642
1.24123
2.34472
2.63342
2.67056
2.69901
2.71484
2.72485
2.73312
2.73686
2.74295
2.7521
2.77045
2.79074
2.81198
2.83179
2.84141
2.84391
2.84402
2.84591
2.84916
2.85565
2.8656
2.8747
2.87878
2.87908
2.87818
2.87708
2.87547
2.872
2.86468
2.85284
2.83805
2.82336
2.81129
2.80228
2.7942
2.7831
2.76611
2.74702
2.72893
2.71156
2.69332
2.6811
2.67686
2.68063
2.6915
2.70763
2.72324
2.72847
2.72846
2.7221
2.71125
2.70368
2.70164
2.70308
2.70574
2.71032
2.71599
2.71985
2.72192
2.72169
2.71584
2.70093
2.68468
2.6776
2.6733
1.09724
1.09328
1.09067
1.08967
1.09012
1.09324
1.09692
1.09859
1.09903
1.09869
1.09725
1.09511
1.09315
1.09184
1.09119
1.0915
1.09322
1.09394
1.09389
1.09339
1.09206
1.08996
1.08741
1.08455
1.08138
1.07848
1.07708
1.07761
1.07934
1.0807
1.081
1.08031
1.07822
1.07481
1.07129
1.06924
1.0685
1.06803
1.06748
1.06684
1.06621
1.0653
1.06392
1.06203
1.05928
1.05515
1.05011
1.04673
1.04587
1.04584
1.04645
1.04792
1.04881
1.04906
1.04917
1.04836
1.04592
1.04504
1.04537
1.04627
1.0467
1.04607
1.04486
1.04339
1.04143
1.03896
1.03769
1.03832
1.04068
1.04453
1.04918
1.05208
1.05249
1.05198
1.04967
1.04471
1.04082
1.04017
1.04068
1.04246
1.04695
1.05223
1.05531
1.05682
1.05747
1.05732
1.05613
1.05446
1.05341
1.05318
1.05432
1.05707
1.05932
1.06038
1.06068
1.06063
1.0605
1.06041
1.0603
1.06031
1.06068
1.06035
1.06011
1.06113
1.06275
1.06458
1.06691
1.0686
1.06838
1.06708
1.06474
1.06085
1.05716
1.05617
1.05651
1.05897
1.06431
1.07045
1.07263
1.07226
1.07099
1.06778
1.0623
1.05864
1.05807
1.05864
1.06153
1.06649
1.06993
1.0704
1.07002
1.06872
1.0661
1.06361
1.06229
1.06149
1.06089
1.06021
1.05938
1.05856
1.05822
1.05818
1.05823
1.05851
1.05939
1.0614
1.06341
1.06433
1.06483
1.06506
1.06499
1.06434
1.06198
1.05754
1.05348
1.0509
1.04886
1.04687
1.04549
1.04501
1.04491
1.04515
1.04635
1.04821
1.04979
1.05095
1.05155
1.05156
1.05117
1.04947
1.0451
1.04027
1.03841
1.03784
1.03745
1.03723
1.03751
1.03774
1.03742
1.03711
1.03684
1.03638
1.03545
1.03322
1.02844
1.02119
1.01648
1.18644
2.29996
2.64536
2.67773
2.70493
2.72102
2.73345
2.7428
2.7454
2.74875
2.75599
2.7702
2.78898
2.81268
2.83505
2.84484
2.84591
2.84628
2.84808
2.8531
2.86291
2.87605
2.88651
2.8903
2.88875
2.88466
2.87983
2.87518
2.87104
2.86694
2.86204
2.85509
2.84653
2.83632
2.82336
2.80741
2.78889
2.7708
2.75513
2.74341
2.73248
2.72004
2.70502
2.69135
2.68487
2.6851
2.69441
2.70904
2.72313
2.72812
2.7278
2.71847
2.70465
2.69924
2.70003
2.70374
2.71134
2.71694
2.71848
2.71864
2.71569
2.70738
2.69416
2.68468
2.68196
2.68066
1.10975
1.10715
1.10554
1.10481
1.10468
1.10676
1.10908
1.10983
1.11003
1.10992
1.1091
1.10787
1.10679
1.1061
1.10548
1.1048
1.1041
1.10379
1.10385
1.10389
1.1033
1.10213
1.10051
1.09834
1.09533
1.09176
1.08954
1.08891
1.08892
1.0899
1.09113
1.09131
1.09022
1.0872
1.08349
1.08083
1.07906
1.07768
1.07677
1.07619
1.07573
1.07534
1.07482
1.07376
1.07152
1.06791
1.06383
1.06086
1.0592
1.05847
1.05814
1.0579
1.05757
1.05708
1.05612
1.05413
1.05225
1.05227
1.05318
1.05522
1.05721
1.0577
1.05743
1.05621
1.05331
1.04991
1.04843
1.04824
1.0489
1.05119
1.05547
1.05904
1.06029
1.06055
1.05965
1.05662
1.05331
1.05162
1.05094
1.05114
1.05384
1.05811
1.06137
1.06338
1.06476
1.06584
1.0665
1.06642
1.06579
1.06515
1.06545
1.06621
1.0662
1.06633
1.06714
1.0686
1.07012
1.07127
1.07176
1.07195
1.07184
1.07106
1.0703
1.07005
1.07016
1.07142
1.0745
1.07722
1.07749
1.07687
1.07556
1.07276
1.06912
1.06724
1.06673
1.06773
1.07208
1.07773
1.08031
1.08063
1.0802
1.07829
1.07464
1.07138
1.0698
1.06937
1.07039
1.07331
1.07593
1.07686
1.07703
1.07659
1.07516
1.07333
1.07243
1.07215
1.07178
1.07121
1.07042
1.06923
1.06777
1.06676
1.06644
1.06638
1.06679
1.06788
1.06864
1.06888
1.06914
1.06936
1.06923
1.06852
1.06697
1.0646
1.0624
1.06085
1.05947
1.05796
1.05646
1.05529
1.05463
1.05446
1.0549
1.05511
1.05497
1.05505
1.0554
1.05544
1.0549
1.05297
1.04912
1.04534
1.04376
1.04311
1.04262
1.04228
1.04229
1.04234
1.04213
1.04211
1.04241
1.04259
1.04235
1.0413
1.03773
1.03184
1.02647
1.11536
2.22959
2.67711
2.70064
2.72078
2.73339
2.7472
2.75601
2.75892
2.7619
2.76723
2.77701
2.79279
2.81487
2.83618
2.84646
2.8488
2.84938
2.85099
2.85621
2.86687
2.88123
2.89362
2.90009
2.90172
2.9003
2.89623
2.89014
2.88374
2.87914
2.87586
2.87279
2.86863
2.8613
2.84897
2.8323
2.81451
2.79803
2.78269
2.76815
2.75503
2.74275
2.73
2.71553
2.70206
2.69544
2.69466
2.70239
2.71595
2.72363
2.7255
2.72146
2.70892
2.69998
2.69849
2.70148
2.70958
2.71501
2.71623
2.7158
2.71144
2.70182
2.6909
2.68687
2.6858
2.68661
1.12399
1.12367
1.12405
1.12608
1.12955
1.13185
1.13204
1.1312
1.12865
1.12501
1.12285
1.12235
1.12249
1.12409
1.12684
1.12783
1.12762
1.12656
1.12428
1.12075
1.11738
1.11523
1.11389
1.11315
1.11287
1.11289
1.1132
1.11282
1.11161
1.10983
1.10757
1.10505
1.10273
1.10116
1.10065
1.10065
1.10012
1.09841
1.09595
1.09313
1.09032
1.08825
1.08684
1.0854
1.0836
1.08181
1.08052
1.08019
1.08028
1.08067
1.08091
1.08075
1.0803
1.07939
1.07734
1.07376
1.06986
1.06765
1.06721
1.06728
1.06817
1.06944
1.06996
1.06981
1.06943
1.0696
1.06983
1.07009
1.07061
1.07145
1.07226
1.07228
1.07187
1.07079
1.0692
1.06824
1.06823
1.06857
1.06985
1.07232
1.075
1.07637
1.07658
1.07638
1.07589
1.07603
1.07687
1.07859
1.08163
1.08514
1.08703
1.08695
1.0856
1.08283
1.081
1.08059
1.08055
1.08149
1.0836
1.08613
1.08833
1.08957
1.08988
1.08969
1.08941
1.08931
1.08912
1.0889
1.0887
1.08787
1.08662
1.08566
1.0854
1.0853
1.08581
1.08757
1.09008
1.09189
1.09215
1.09176
1.09067
1.08908
1.08826
1.0882
1.08839
1.08913
1.08964
1.0893
1.08869
1.08794
1.08668
1.08537
1.08467
1.08451
1.0846
1.08538
1.08639
1.0867
1.08669
1.08621
1.08459
1.08311
1.08292
1.08304
1.08365
1.08399
1.08352
1.0829
1.08214
1.0809
1.07895
1.07657
1.07447
1.07297
1.07196
1.07112
1.07025
1.06958
1.06944
1.06952
1.07006
1.07115
1.07164
1.07136
1.0709
1.07033
1.06959
1.0685
1.06662
1.06351
1.05937
1.05625
1.05498
1.05442
1.05405
1.05389
1.05374
1.05324
1.05258
1.05191
1.05139
1.05092
1.05028
1.04916
1.04635
1.04212
1.03912
1.05067
2.09635
2.71173
2.74259
2.75569
2.76087
2.76958
2.77657
2.77819
2.77988
2.78387
2.79163
2.80438
2.82164
2.83837
2.84957
2.85568
2.85915
2.8628
2.8691
2.87925
2.89122
2.90117
2.90799
2.91293
2.91701
2.91986
2.91927
2.91369
2.90626
2.90026
2.89661
2.89403
2.89026
2.88226
2.87097
2.85965
2.84885
2.83495
2.81722
2.79697
2.77578
2.75585
2.73986
2.72895
2.72105
2.71558
2.71509
2.71574
2.71825
2.71948
2.71791
2.71137
2.70392
2.70176
2.70418
2.70963
2.71239
2.71179
2.70939
2.7036
2.69483
2.68966
2.68882
2.68975
2.69286
1.14907
1.14896
1.14982
1.15282
1.15585
1.15646
1.15624
1.15485
1.15162
1.14817
1.14664
1.1463
1.14659
1.14872
1.1513
1.15196
1.15196
1.15107
1.14815
1.14407
1.14103
1.13918
1.13795
1.13734
1.13729
1.13752
1.13752
1.13724
1.13635
1.13454
1.13196
1.12905
1.12692
1.12611
1.12591
1.12582
1.12557
1.1246
1.12259
1.11969
1.11624
1.1128
1.10981
1.10751
1.10609
1.10535
1.1047
1.1039
1.10368
1.10387
1.10414
1.10409
1.10364
1.10258
1.10061
1.09792
1.09507
1.09334
1.09275
1.09237
1.092
1.09157
1.09108
1.09089
1.09114
1.09174
1.0926
1.09378
1.09517
1.09609
1.09618
1.09584
1.09483
1.09277
1.09046
1.08981
1.08986
1.09074
1.09322
1.09631
1.09819
1.0987
1.09855
1.0977
1.09664
1.09626
1.0965
1.09807
1.10288
1.10801
1.10928
1.10906
1.10783
1.1053
1.10319
1.10212
1.10152
1.10152
1.10347
1.10642
1.10811
1.10889
1.1094
1.10989
1.11029
1.11039
1.11027
1.11013
1.10977
1.10888
1.10704
1.1059
1.10583
1.1061
1.10717
1.10909
1.11117
1.11188
1.11162
1.11097
1.10973
1.1084
1.10802
1.10817
1.10881
1.10975
1.10995
1.10954
1.10871
1.10743
1.10563
1.10383
1.10299
1.10285
1.10297
1.10369
1.10421
1.10426
1.10428
1.10389
1.10226
1.10041
1.10011
1.10029
1.10086
1.10121
1.10098
1.10074
1.10036
1.09949
1.09783
1.09561
1.09364
1.09249
1.0918
1.09107
1.09003
1.08887
1.0883
1.08834
1.08881
1.08941
1.08945
1.08927
1.08898
1.08842
1.08744
1.08582
1.08357
1.08073
1.07749
1.07492
1.07373
1.07327
1.07302
1.07314
1.07328
1.07291
1.07237
1.07169
1.07084
1.06981
1.06863
1.06697
1.06383
1.05913
1.05637
1.05844
1.88129
2.72428
2.80148
2.81
2.81136
2.81224
2.81058
2.80711
2.80704
2.81064
2.81773
2.82853
2.84127
2.85321
2.86312
2.87
2.87489
2.88012
2.88761
2.89772
2.90833
2.91684
2.92287
2.92783
2.93309
2.93926
2.94513
2.94619
2.93952
2.93023
2.9228
2.91881
2.9175
2.91606
2.91275
2.90741
2.89905
2.8857
2.86855
2.84736
2.82204
2.79632
2.7768
2.76429
2.75598
2.74872
2.74022
2.73013
2.72285
2.71926
2.71633
2.71325
2.70994
2.70783
2.70805
2.70913
2.70891
2.70658
2.70285
2.69738
2.69244
2.69064
2.69132
2.69369
2.69789
1.17357
1.17433
1.17672
1.17945
1.18023
1.18015
1.17903
1.17636
1.17353
1.17222
1.17193
1.17196
1.17332
1.17576
1.17658
1.17647
1.17544
1.17242
1.16833
1.16604
1.16528
1.16494
1.16493
1.16548
1.16549
1.16479
1.16328
1.16114
1.15884
1.15671
1.15488
1.15376
1.1536
1.15392
1.15425
1.15395
1.15272
1.15042
1.14736
1.14415
1.14114
1.13849
1.13679
1.13624
1.1361
1.13579
1.1348
1.13273
1.13092
1.13025
1.12992
1.12953
1.12871
1.12723
1.12518
1.12257
1.12066
1.12028
1.12011
1.1201
1.12044
1.12068
1.12057
1.12042
1.12024
1.1197
1.119
1.11901
1.11908
1.11928
1.11978
1.12015
1.11991
1.11908
1.11835
1.11813
1.11815
1.11893
1.12036
1.12134
1.1215
1.12122
1.12037
1.1196
1.11967
1.12028
1.12144
1.12419
1.12868
1.131
1.13111
1.13057
1.12883
1.12713
1.12647
1.12606
1.12586
1.12677
1.12898
1.13037
1.13063
1.13057
1.13045
1.1303
1.13006
1.12989
1.13013
1.13126
1.13166
1.1315
1.13066
1.12931
1.12892
1.12894
1.12929
1.12987
1.1306
1.13142
1.13159
1.13132
1.13099
1.13093
1.13074
1.13013
1.12945
1.12895
1.12849
1.12802
1.12753
1.12692
1.12617
1.12544
1.12505
1.12497
1.12515
1.12552
1.1256
1.12556
1.1254
1.1247
1.12283
1.12023
1.11899
1.11887
1.11882
1.1189
1.11874
1.11836
1.11797
1.11735
1.11631
1.11504
1.11408
1.11373
1.11365
1.11357
1.11324
1.11256
1.11175
1.11118
1.11079
1.11036
1.10985
1.10926
1.10842
1.10705
1.10513
1.10299
1.10091
1.09893
1.09682
1.09466
1.09333
1.09289
1.09269
1.09266
1.0929
1.09293
1.09267
1.09238
1.09208
1.09175
1.09131
1.09045
1.08797
1.0833
1.08014
1.0788
1.6254
2.71849
2.89773
2.89253
2.88632
2.87344
2.86474
2.85636
2.85206
2.85198
2.85483
2.86036
2.86703
2.87564
2.88626
2.89532
2.9011
2.9055
2.91077
2.91817
2.9276
2.93749
2.94524
2.94992
2.9531
2.95674
2.96251
2.96957
2.97093
2.96415
2.95459
2.94779
2.94537
2.94648
2.94936
2.95114
2.94377
2.92946
2.91207
2.89242
2.87143
2.85194
2.83542
2.82104
2.80648
2.79068
2.77383
2.7567
2.7426
2.73306
2.72724
2.7238
2.72171
2.71993
2.71702
2.71307
2.70837
2.7035
2.69827
2.69394
2.69182
2.6921
2.69438
2.69826
2.70326
1.19375
1.19772
1.2015
1.20285
1.20274
1.20094
1.19717
1.19312
1.19089
1.19026
1.19032
1.19215
1.19606
1.19853
1.19898
1.19838
1.19505
1.18985
1.18649
1.18543
1.1851
1.18533
1.18714
1.18889
1.18922
1.18868
1.18637
1.18332
1.18089
1.17899
1.17779
1.17745
1.17765
1.17837
1.17859
1.17815
1.17589
1.1722
1.16852
1.1654
1.16332
1.16243
1.1621
1.16227
1.16268
1.16261
1.1621
1.16037
1.15838
1.1577
1.15736
1.15676
1.15554
1.154
1.15236
1.15003
1.14764
1.14669
1.14625
1.14598
1.14617
1.14706
1.14775
1.14803
1.14815
1.14774
1.14633
1.1454
1.14485
1.14436
1.14396
1.14388
1.1442
1.14435
1.1444
1.14475
1.14589
1.14763
1.14867
1.14856
1.14789
1.14616
1.14344
1.14206
1.14206
1.14293
1.14504
1.14858
1.1516
1.15239
1.15237
1.15167
1.15003
1.14882
1.14836
1.14818
1.14894
1.15093
1.15224
1.15239
1.15207
1.15114
1.15008
1.14925
1.14876
1.14861
1.14905
1.15076
1.15188
1.15224
1.15239
1.15205
1.15136
1.15113
1.1509
1.15048
1.15
1.14986
1.15017
1.15023
1.15036
1.15068
1.1507
1.14998
1.14864
1.14775
1.14721
1.14662
1.14603
1.14558
1.14525
1.14503
1.14502
1.14539
1.14591
1.14627
1.14633
1.14617
1.1457
1.1446
1.14265
1.1399
1.13801
1.13762
1.13752
1.13762
1.13783
1.13759
1.13707
1.13626
1.13517
1.13416
1.13376
1.13374
1.13411
1.13448
1.13462
1.13452
1.13397
1.13325
1.13275
1.13237
1.13196
1.13136
1.13023
1.12824
1.12562
1.12325
1.12145
1.1198
1.11781
1.11565
1.11426
1.11378
1.11365
1.11372
1.11403
1.11438
1.1146
1.11446
1.11413
1.11383
1.1135
1.11276
1.11053
1.10598
1.10278
1.10197
1.36599
2.67028
3.02382
2.99362
2.97678
2.951
2.93437
2.92196
2.91353
2.9101
2.90935
2.90898
2.90819
2.91107
2.92028
2.93136
2.93703
2.93783
2.93767
2.93926
2.94508
2.95587
2.96746
2.97346
2.97441
2.97402
2.97504
2.98042
2.98931
2.99266
2.98762
2.97864
2.97197
2.96928
2.97042
2.97459
2.97371
2.96256
2.947
2.93041
2.9157
2.9034
2.89244
2.87932
2.86185
2.84105
2.81715
2.79272
2.77455
2.76345
2.75597
2.75213
2.74886
2.74404
2.73724
2.72872
2.71915
2.71043
2.70321
2.69817
2.69604
2.6967
2.69964
2.70443
2.71048
1.21644
1.21906
1.21909
1.21722
1.21348
1.20878
1.20488
1.20296
1.20271
1.20369
1.20707
1.21246
1.21615
1.21648
1.21486
1.21039
1.2043
1.20036
1.19922
1.19912
1.20046
1.20403
1.2073
1.20789
1.20677
1.20342
1.19876
1.19536
1.19372
1.19303
1.19296
1.19441
1.19697
1.19799
1.19803
1.1967
1.19293
1.18899
1.18642
1.18508
1.18454
1.18451
1.18533
1.1864
1.18668
1.18636
1.18491
1.18141
1.17769
1.17532
1.17356
1.17224
1.17149
1.17109
1.17084
1.17021
1.16914
1.16879
1.16889
1.16962
1.17115
1.17296
1.17376
1.17362
1.17247
1.16937
1.16559
1.16328
1.16213
1.16169
1.16182
1.16329
1.16582
1.16825
1.17027
1.17166
1.17203
1.17162
1.17026
1.16768
1.16455
1.16175
1.16035
1.16027
1.16124
1.16399
1.16759
1.16944
1.16956
1.16882
1.1673
1.16601
1.16537
1.16522
1.16592
1.16822
1.17102
1.17199
1.1713
1.16885
1.16553
1.1629
1.16148
1.16099
1.16107
1.1625
1.16565
1.16913
1.17124
1.17193
1.17171
1.17005
1.16716
1.16468
1.1632
1.16245
1.16225
1.1629
1.16492
1.16687
1.1679
1.16814
1.16723
1.16452
1.16178
1.16032
1.15964
1.15936
1.15947
1.16047
1.16172
1.16232
1.16213
1.16141
1.16061
1.15951
1.15841
1.15757
1.15691
1.15642
1.15577
1.15424
1.15242
1.15199
1.15201
1.15218
1.15236
1.15238
1.1521
1.15168
1.15152
1.15181
1.15267
1.15389
1.15491
1.15523
1.15505
1.15429
1.15277
1.15075
1.14916
1.14799
1.14676
1.14525
1.14351
1.14171
1.14015
1.13913
1.13847
1.13758
1.13592
1.13447
1.13401
1.13401
1.13419
1.13439
1.13449
1.13454
1.13452
1.13428
1.13394
1.13361
1.13324
1.13256
1.13082
1.12697
1.12395
1.12254
1.17176
2.53575
3.14466
3.10139
3.06473
3.03728
3.01581
2.99989
2.98707
2.97939
2.9734
2.96446
2.95449
2.95017
2.95568
2.96699
2.97204
2.96932
2.9646
2.96199
2.96351
2.97226
2.98564
2.99365
2.99479
2.99306
2.99082
2.9914
2.99916
3.01166
3.01638
3.01115
3.00053
2.99187
2.98724
2.98749
2.9913
2.99058
2.98141
2.9694
2.95806
2.94818
2.93852
2.92599
2.90945
2.8897
2.86639
2.84214
2.8235
2.81038
2.80163
2.79698
2.79144
2.78174
2.7704
2.75761
2.745
2.73475
2.72644
2.72024
2.71672
2.71568
2.71676
2.7196
2.72368
1.22708
1.2246
1.22145
1.21755
1.21383
1.21196
1.21161
1.21246
1.21568
1.22086
1.22486
1.2254
1.22387
1.22083
1.21657
1.21196
1.2095
1.2091
1.20986
1.21308
1.21738
1.21886
1.21797
1.21498
1.21045
1.20552
1.20282
1.20194
1.20181
1.20332
1.20718
1.21135
1.2131
1.21307
1.21128
1.20729
1.20314
1.20108
1.20024
1.19985
1.20006
1.20134
1.20205
1.20167
1.20076
1.19856
1.1942
1.1893
1.18613
1.18465
1.18416
1.1845
1.1866
1.18907
1.19032
1.19056
1.19061
1.19083
1.19118
1.19165
1.1918
1.19127
1.1898
1.18691
1.18263
1.17811
1.17514
1.1742
1.1743
1.17574
1.17927
1.18442
1.18908
1.19085
1.19059
1.18889
1.18535
1.18147
1.17841
1.17623
1.17514
1.17512
1.17645
1.17955
1.18297
1.18442
1.18407
1.18209
1.17892
1.1768
1.17603
1.17597
1.1773
1.18055
1.18444
1.18643
1.18615
1.18346
1.17876
1.17395
1.1712
1.17019
1.17008
1.17114
1.17427
1.17909
1.18354
1.18518
1.18493
1.18346
1.18029
1.17615
1.17292
1.17137
1.171
1.17138
1.17332
1.17688
1.18043
1.18169
1.18134
1.17925
1.17518
1.17109
1.16901
1.16844
1.16851
1.16984
1.17248
1.1743
1.17435
1.1732
1.17061
1.16762
1.16573
1.16491
1.1646
1.1652
1.1672
1.16817
1.16834
1.16761
1.16548
1.16469
1.16471
1.16477
1.16487
1.16517
1.16585
1.16664
1.16713
1.16745
1.16767
1.16764
1.16734
1.16681
1.16584
1.16391
1.16098
1.15832
1.15666
1.1555
1.15455
1.15384
1.15351
1.15361
1.15439
1.15503
1.15515
1.15491
1.15372
1.15302
1.15267
1.15233
1.15192
1.15139
1.15066
1.14994
1.14957
1.14943
1.14943
1.14963
1.14962
1.14909
1.14688
1.14228
1.13826
1.13535
1.13605
2.28214
3.19377
3.18388
3.14433
3.12295
3.09656
3.075
3.05576
3.04192
3.03009
3.01512
3.00125
2.99526
2.99707
3.00089
2.99895
2.9927
2.98764
2.98562
2.98579
2.99133
3.00027
3.00685
3.01132
3.01338
3.012
3.0103
3.01309
3.02275
3.03365
3.0363
3.02984
3.01793
3.00818
3.00296
3.00414
3.00962
3.01176
3.00634
2.99648
2.98476
2.97214
2.95935
2.94634
2.93177
2.91506
2.89735
2.88085
2.86729
2.85713
2.84958
2.84199
2.83164
2.81909
2.80478
2.79093
2.77951
2.7695
2.76167
2.75632
2.75328
2.75222
2.75258
2.75374
1.22803
1.22391
1.2191
1.21688
1.21643
1.21704
1.21997
1.22543
1.22996
1.2308
1.2297
1.22738
1.22428
1.21963
1.21598
1.21496
1.2152
1.21751
1.22218
1.2249
1.22457
1.22241
1.21909
1.21438
1.20989
1.20811
1.20779
1.20869
1.21235
1.21766
1.2206
1.22059
1.21879
1.21568
1.21205
1.2078
1.2056
1.20488
1.20455
1.20485
1.20628
1.2067
1.20618
1.20514
1.20325
1.20024
1.19665
1.1945
1.19414
1.19493
1.19792
1.20234
1.2055
1.20612
1.20542
1.20316
1.20086
1.19993
1.19923
1.19812
1.19649
1.19448
1.19209
1.18932
1.1864
1.18482
1.18489
1.18626
1.18948
1.19429
1.1986
1.19983
1.19915
1.19728
1.19405
1.19005
1.18726
1.18584
1.18548
1.18608
1.18858
1.19205
1.19431
1.19458
1.19287
1.18973
1.18617
1.18344
1.18232
1.18212
1.18307
1.18668
1.19222
1.1957
1.19592
1.19379
1.18927
1.18349
1.17917
1.17754
1.17733
1.17811
1.18083
1.18528
1.18919
1.19027
1.18974
1.18859
1.18689
1.18404
1.18127
1.17924
1.17852
1.17873
1.18021
1.18323
1.1866
1.18778
1.18729
1.18573
1.18329
1.17978
1.1767
1.17532
1.17514
1.17594
1.17841
1.18077
1.18101
1.17979
1.17726
1.17386
1.1712
1.16994
1.16957
1.16992
1.17244
1.17699
1.18013
1.18091
1.18098
1.1794
1.17623
1.175
1.17486
1.17466
1.17436
1.17397
1.17347
1.17287
1.17216
1.1711
1.17054
1.17036
1.17016
1.16989
1.16941
1.16795
1.16538
1.16383
1.16349
1.16352
1.16413
1.16541
1.16704
1.16837
1.16876
1.16832
1.16666
1.16452
1.16283
1.16162
1.16062
1.1596
1.15869
1.15815
1.15787
1.15785
1.15842
1.1592
1.15953
1.15942
1.15877
1.15662
1.15243
1.14757
1.14436
1.14295
1.14262
2.02692
3.21372
3.26947
3.21689
3.1943
3.16425
3.1379
3.11083
3.0878
3.06772
3.04948
3.03883
3.03559
3.03251
3.02418
3.01343
3.00607
3.00555
3.01015
3.01651
3.02036
3.01989
3.0195
3.02282
3.03061
3.03869
3.0406
3.04014
3.0421
3.04706
3.05335
3.05565
3.0497
3.03927
3.03065
3.02667
3.02883
3.03467
3.03793
3.03294
3.02132
3.00677
2.99306
2.9816
2.97175
2.96292
2.95312
2.94142
2.92916
2.91742
2.90618
2.89531
2.88491
2.87368
2.86188
2.85052
2.83986
2.83007
2.82139
2.81407
2.8087
2.80579
2.80508
2.80589
1.22481
1.22067
1.21959
1.21967
1.22168
1.22666
1.23249
1.23468
1.23441
1.23298
1.23029
1.22589
1.22087
1.21856
1.21821
1.21914
1.22286
1.2276
1.22884
1.22796
1.22581
1.22213
1.21691
1.21365
1.21279
1.2131
1.21574
1.2209
1.22468
1.22504
1.22394
1.22195
1.21909
1.21454
1.20965
1.20787
1.20724
1.20693
1.20755
1.20912
1.20935
1.20882
1.20807
1.20689
1.20502
1.20301
1.2024
1.20297
1.2054
1.20929
1.21198
1.21206
1.21086
1.20858
1.2061
1.20373
1.20144
1.19964
1.1984
1.19747
1.19664
1.19564
1.19437
1.19345
1.19361
1.19497
1.19772
1.20093
1.20292
1.20306
1.20244
1.20149
1.19977
1.19636
1.19351
1.19216
1.19201
1.19299
1.19584
1.19972
1.2019
1.2019
1.20021
1.19709
1.19312
1.18832
1.18618
1.18576
1.1861
1.18844
1.19399
1.20017
1.20209
1.20141
1.19883
1.1942
1.18746
1.18349
1.18268
1.18306
1.18506
1.18894
1.19246
1.19315
1.19246
1.19144
1.19012
1.18784
1.18576
1.18478
1.18447
1.18493
1.18653
1.18851
1.18987
1.19004
1.18953
1.18881
1.18769
1.18549
1.18211
1.18015
1.17978
1.18028
1.18232
1.18473
1.18533
1.18459
1.18277
1.18001
1.17632
1.17404
1.17337
1.17343
1.17502
1.1792
1.18388
1.18552
1.18536
1.18426
1.18227
1.17997
1.17811
1.17694
1.17647
1.1761
1.1756
1.17491
1.17389
1.17246
1.17131
1.171
1.17097
1.17155
1.17314
1.17415
1.17437
1.17416
1.17308
1.17261
1.1729
1.17358
1.17434
1.17448
1.17399
1.1729
1.17115
1.16933
1.1672
1.1645
1.16326
1.16283
1.16253
1.16236
1.16248
1.16279
1.16331
1.16416
1.16505
1.16518
1.16471
1.1635
1.16113
1.15785
1.15456
1.15229
1.15143
1.15169
1.15202
1.82255
3.19559
3.34239
3.27938
3.25122
3.21552
3.1841
3.15288
3.12462
3.10028
3.08174
3.07292
3.07149
3.06377
3.04775
3.03066
3.02148
3.02147
3.03356
3.05296
3.06126
3.05648
3.04863
3.04476
3.0477
3.06169
3.07865
3.08428
3.08158
3.0782
3.07674
3.07892
3.08235
3.07984
3.07302
3.06663
3.06309
3.06306
3.0656
3.06698
3.06096
3.04934
3.0354
3.02372
3.01524
3.00926
3.00444
2.99776
2.98774
2.97548
2.9626
2.95003
2.9387
2.92949
2.92239
2.91622
2.90955
2.90179
2.89325
2.88471
2.87728
2.87212
2.86992
2.87102
1.22242
1.22203
1.22275
1.22619
1.23252
1.23715
1.23781
1.23718
1.23526
1.2314
1.22583
1.22145
1.22039
1.2203
1.22193
1.22671
1.23115
1.23162
1.23065
1.22829
1.22387
1.21883
1.21661
1.21625
1.21751
1.22185
1.22713
1.22861
1.22794
1.22657
1.22435
1.22059
1.21548
1.21146
1.21024
1.20989
1.21028
1.21229
1.21429
1.21426
1.21347
1.21243
1.21125
1.21022
1.20972
1.20985
1.2112
1.21333
1.21459
1.21437
1.21366
1.21276
1.21115
1.20801
1.2035
1.20043
1.19951
1.19928
1.19925
1.1995
1.19982
1.20014
1.20084
1.20234
1.20449
1.20614
1.20643
1.20563
1.20445
1.20375
1.20257
1.20031
1.19816
1.19699
1.19679
1.19788
1.20056
1.20387
1.20576
1.20575
1.20483
1.20322
1.20041
1.19531
1.19023
1.18861
1.18853
1.1897
1.19351
1.20011
1.20486
1.20536
1.20444
1.20232
1.1978
1.19118
1.18769
1.18734
1.18824
1.19099
1.1945
1.19572
1.19527
1.19431
1.19277
1.19025
1.18815
1.18744
1.18728
1.18823
1.19091
1.19347
1.19431
1.1941
1.19262
1.1909
1.18967
1.18802
1.18569
1.18345
1.18257
1.18275
1.18451
1.18751
1.18889
1.18866
1.18731
1.18505
1.18183
1.17841
1.17667
1.17636
1.17686
1.17944
1.1838
1.1862
1.1863
1.18613
1.18567
1.18407
1.18081
1.17815
1.17715
1.1765
1.17581
1.17526
1.17471
1.17392
1.1729
1.1722
1.17199
1.17218
1.17342
1.17632
1.17973
1.18131
1.18172
1.18171
1.18036
1.17808
1.17699
1.17653
1.17607
1.17547
1.17461
1.17324
1.17103
1.16771
1.16515
1.16445
1.16427
1.16447
1.16558
1.16736
1.16899
1.17003
1.1704
1.17018
1.16949
1.16834
1.16688
1.16496
1.16243
1.1602
1.15971
1.1601
1.16071
1.16096
1.16031
1.6796
3.14981
3.4033
3.33398
3.30033
3.25773
3.22029
3.18682
3.15646
3.12967
3.10987
3.09992
3.09724
3.0942
3.08333
3.06841
3.05621
3.05147
3.0613
3.08411
3.10396
3.10793
3.10152
3.09276
3.08816
3.09379
3.11474
3.13333
3.1344
3.12751
3.12011
3.11579
3.11748
3.12304
3.12408
3.11975
3.11296
3.10688
3.10321
3.10338
3.10395
3.09866
3.08865
3.07691
3.0671
3.05933
3.05318
3.04742
3.04015
3.0304
3.0192
3.00809
2.99809
2.9902
2.98498
2.98166
2.97775
2.97144
2.96343
2.9551
2.94733
2.9409
2.93702
2.93722
1.22393
1.2257
1.23074
1.23728
1.24001
1.23999
1.23907
1.23651
1.23122
1.2248
1.2219
1.22152
1.22174
1.22414
1.22982
1.2339
1.23401
1.23297
1.23015
1.22492
1.22035
1.21898
1.21898
1.22095
1.22612
1.2302
1.23039
1.22975
1.22861
1.22596
1.22115
1.21567
1.21301
1.2123
1.21233
1.21392
1.21708
1.21857
1.21821
1.21724
1.21644
1.21579
1.21516
1.21485
1.21514
1.21592
1.21608
1.21573
1.2153
1.21477
1.21373
1.21139
1.20732
1.20289
1.20117
1.20083
1.20072
1.20184
1.20404
1.20583
1.20703
1.20807
1.20908
1.20968
1.20963
1.20893
1.20767
1.20613
1.20412
1.202
1.20069
1.19999
1.1998
1.20089
1.20388
1.20701
1.20848
1.20847
1.20778
1.20666
1.20489
1.20161
1.19645
1.19226
1.19107
1.19141
1.19353
1.19856
1.20467
1.20706
1.20683
1.20615
1.20445
1.20023
1.1943
1.19143
1.19137
1.19273
1.19564
1.19779
1.19785
1.19715
1.19566
1.19296
1.19005
1.18892
1.1887
1.18913
1.19183
1.19628
1.19876
1.19896
1.19803
1.19522
1.19185
1.18909
1.1869
1.18527
1.1844
1.18416
1.18506
1.18819
1.19118
1.19168
1.19113
1.18949
1.18671
1.18302
1.18009
1.17892
1.17882
1.17984
1.18289
1.18603
1.18672
1.18664
1.18644
1.18574
1.18379
1.18037
1.17829
1.17791
1.17758
1.17708
1.17632
1.17562
1.17503
1.17432
1.17367
1.17355
1.17419
1.17659
1.18068
1.18408
1.18519
1.18529
1.18499
1.18367
1.18098
1.17853
1.17744
1.17685
1.17618
1.17517
1.17349
1.17101
1.16845
1.16699
1.16637
1.16644
1.16779
1.17042
1.17329
1.17507
1.17536
1.17484
1.17323
1.17138
1.17025
1.16943
1.16827
1.16691
1.16606
1.16597
1.16641
1.16653
1.1659
1.16383
1.16151
1.56043
3.08649
3.45055
3.3786
3.34107
3.29586
3.25621
3.22352
3.19547
3.16918
3.14713
3.13219
3.125
3.12497
3.12938
3.13037
3.12338
3.11656
3.11652
3.12488
3.13958
3.15527
3.16323
3.16032
3.1557
3.15647
3.16641
3.17988
3.18534
3.18216
3.17693
3.17309
3.1738
3.17899
3.17973
3.17405
3.16619
3.15842
3.15329
3.15274
3.15472
3.15143
3.14288
3.13166
3.12034
3.11069
3.10292
3.09693
3.09124
3.08437
3.07623
3.06746
3.05864
3.05031
3.04307
3.03708
3.03171
3.02631
3.02073
3.01511
3.00949
3.00397
2.99978
2.99929
1.22853
1.23442
1.24013
1.24155
1.24127
1.24007
1.2368
1.23044
1.22437
1.2225
1.22231
1.22283
1.22586
1.232
1.23578
1.23583
1.23476
1.23184
1.22627
1.22199
1.22095
1.22115
1.22344
1.22856
1.23153
1.23142
1.23083
1.22943
1.22601
1.22028
1.216
1.21479
1.2144
1.21477
1.21733
1.22057
1.22111
1.22037
1.21896
1.21751
1.21672
1.2164
1.21622
1.21639
1.2169
1.2168
1.21642
1.21595
1.21514
1.21344
1.21026
1.20617
1.20354
1.20274
1.20257
1.20353
1.20629
1.2095
1.21123
1.21165
1.21153
1.21113
1.2108
1.21056
1.21018
1.20926
1.20708
1.20414
1.20251
1.20204
1.20189
1.20268
1.20555
1.20911
1.21084
1.21089
1.21039
1.2092
1.2074
1.20481
1.2012
1.19734
1.19485
1.19418
1.19494
1.19785
1.20295
1.20712
1.20798
1.20775
1.20715
1.20544
1.20165
1.19709
1.19507
1.19524
1.19692
1.19943
1.20026
1.19988
1.19858
1.19606
1.19256
1.19037
1.18991
1.18989
1.19131
1.19557
1.20064
1.20238
1.20224
1.20085
1.19751
1.19244
1.188
1.18604
1.18541
1.18514
1.18529
1.1872
1.19103
1.19332
1.19335
1.19266
1.19093
1.18779
1.18415
1.18199
1.18122
1.18128
1.18264
1.18548
1.18724
1.18721
1.18689
1.18616
1.18473
1.1824
1.18015
1.17924
1.17915
1.17957
1.17966
1.17918
1.17803
1.17695
1.17643
1.17625
1.17624
1.17693
1.17949
1.18326
1.18539
1.18573
1.18573
1.18567
1.18527
1.18355
1.18033
1.17776
1.17645
1.1754
1.17423
1.17286
1.17144
1.17018
1.16942
1.16933
1.17044
1.17327
1.17666
1.17876
1.17912
1.17874
1.17774