/*--------------------------------*- C++ -*----------------------------------*\
  =========                 |
  \\      /  F ield         | OpenFOAM: The Open Source CFD Toolbox
   \\    /   O peration     | Website:  https://openfoam.org
    \\  /    A nd           | Version:  7
     \\/     M anipulation  |
\*---------------------------------------------------------------------------*/
FoamFile
{
    version     2.0;
    format      ascii;
    class       volScalarField;
    location    "3.2";
    object      T;
}
// * * * * * * * * * * * * * * * * * * * * * * * * * * * * * * * * * * * * * //

dimensions      [0 0 0 1 0 0 0];

internalField   nonuniform List<scalar> 
16192
(
1.68475
1.68505
1.68588
1.68606
1.68492
1.6822
1.67903
1.67726
1.67675
1.67673
1.67757
1.67989
1.68272
1.68347
1.68327
1.68253
1.68007
1.67731
1.67635
1.67657
1.67774
1.68015
1.68363
1.68703
1.68971
1.6917
1.69242
1.69132
1.68979
1.68995
1.6909
1.69235
1.69406
1.69509
1.69595
1.69608
1.69508
1.69457
1.69569
1.69881
1.70237
1.70626
1.70988
1.7123
1.71383
1.7147
1.7146
1.71394
1.71404
1.71521
1.71693
1.71836
1.71943
1.72005
1.72004
1.71885
1.71667
1.71626
1.71699
1.71816
1.71971
1.72176
1.72286
1.72287
1.72212
1.72
1.71623
1.71284
1.71092
1.70973
1.70918
1.70933
1.70944
1.70877
1.70746
1.70621
1.70505
1.70357
1.70168
1.69916
1.6959
1.69269
1.68971
1.68707
1.68523
1.68425
1.68407
1.68471
1.68599
1.68607
1.6842
1.68043
1.67572
1.67148
1.6685
1.66653
1.66531
1.66515
1.66625
1.66851
1.66877
1.66693
1.66386
1.65964
1.65584
1.65394
1.65284
1.65261
1.65351
1.6541
1.65381
1.65275
1.65104
1.64925
1.64738
1.64558
1.6444
1.6442
1.64538
1.64649
1.64638
1.64592
1.64542
1.6446
1.64359
1.64268
1.64206
1.64181
1.64198
1.64279
1.64309
1.64305
1.64307
1.64343
1.6442
1.64458
1.64438
1.64377
1.64268
1.64086
1.6393
1.63877
1.63866
1.63878
1.63939
1.64116
1.64329
1.64395
1.64406
1.64418
1.64414
1.64338
1.64126
1.6395
1.63937
1.64006
1.64159
1.64348
1.64539
1.6469
1.64789
1.64874
1.64944
1.65015
1.65101
1.6516
1.65202
1.65234
1.65228
1.65098
1.64823
1.64731
1.6479
1.64954
1.65126
1.65309
1.65522
1.65691
1.6586
1.6605
1.66244
1.66426
1.66578
1.66651
1.66647
1.66498
1.66366
1.92127
2.61487
2.7154
2.74027
2.76855
2.79637
2.81495
2.81986
2.81615
2.80603
2.79125
2.78022
2.7714
2.76696
2.76497
2.76052
2.75144
2.73947
2.72639
2.71458
2.70607
2.70275
2.70267
2.7031
2.70368
2.70514
2.70806
2.71147
2.71316
2.71265
2.711
2.71102
2.71455
2.72451
2.74221
2.76437
2.78347
2.79626
2.8032
2.80294
2.80107
2.79989
2.79886
2.79944
2.79998
2.79982
2.79761
2.78746
2.7715
2.75455
2.73857
2.72486
2.71391
2.70503
2.69775
2.69122
2.68518
2.68006
2.67538
2.67037
2.66533
2.65892
2.64986
2.64051
2.63569
2.63322
1.68045
1.6798
1.67973
1.67991
1.68014
1.68013
1.67938
1.67784
1.67623
1.67546
1.67542
1.67619
1.67762
1.67877
1.67892
1.67892
1.6789
1.67833
1.67685
1.67602
1.67625
1.67762
1.68021
1.68271
1.68476
1.68721
1.68915
1.6899
1.68997
1.68985
1.68984
1.69013
1.69091
1.69185
1.69292
1.69384
1.69431
1.69484
1.69612
1.69849
1.70158
1.70484
1.7077
1.70958
1.7107
1.71087
1.71019
1.70938
1.70983
1.71177
1.71429
1.71639
1.7178
1.71899
1.71966
1.71941
1.71774
1.71667
1.71673
1.71734
1.71845
1.7197
1.71993
1.71949
1.71799
1.71535
1.71286
1.7116
1.7107
1.70996
1.70966
1.70946
1.7086
1.7071
1.70532
1.70324
1.70117
1.69972
1.69832
1.69704
1.69562
1.69353
1.69059
1.68725
1.68442
1.68237
1.68107
1.68062
1.68066
1.6807
1.68025
1.67875
1.67626
1.673
1.66931
1.66619
1.66398
1.66302
1.66305
1.66356
1.66364
1.66244
1.66009
1.65796
1.65638
1.65474
1.65325
1.65251
1.65244
1.65195
1.65038
1.64845
1.64682
1.6456
1.64495
1.64455
1.64441
1.64464
1.64511
1.64475
1.6438
1.64263
1.64125
1.64043
1.64022
1.64049
1.64122
1.642
1.64253
1.64237
1.64177
1.64109
1.64056
1.64028
1.64027
1.64053
1.64052
1.64011
1.63944
1.63861
1.63802
1.63794
1.63803
1.6383
1.63903
1.64086
1.64288
1.64369
1.64387
1.64394
1.64386
1.64318
1.64115
1.63867
1.638
1.6383
1.63938
1.64091
1.64246
1.64397
1.64554
1.6471
1.6484
1.6496
1.65075
1.65152
1.65187
1.65212
1.65217
1.65151
1.64915
1.64744
1.64765
1.64902
1.65075
1.65244
1.65453
1.65632
1.65794
1.65978
1.66163
1.66333
1.66467
1.6652
1.66492
1.66269
1.66099
1.89422
2.59662
2.71102
2.73916
2.76964
2.79899
2.81807
2.82247
2.8181
2.80639
2.79066
2.77892
2.77125
2.7677
2.76609
2.76137
2.75208
2.7401
2.72769
2.71584
2.70746
2.70369
2.70284
2.70244
2.70197
2.7019
2.70264
2.7043
2.70634
2.70818
2.70947
2.71119
2.71538
2.72374
2.73656
2.75256
2.76943
2.78434
2.79574
2.80241
2.80381
2.80195
2.79934
2.79714
2.79579
2.79444
2.79163
2.78508
2.77243
2.75767
2.74179
2.72668
2.71437
2.70531
2.69839
2.69198
2.68624
2.68095
2.6753
2.66967
2.66402
2.65762
2.64935
2.64113
2.63684
2.63403
1.67229
1.66938
1.66743
1.66665
1.66678
1.66833
1.67007
1.6707
1.67078
1.67048
1.66957
1.66834
1.66749
1.66718
1.66713
1.66785
1.66954
1.67051
1.6711
1.67156
1.67186
1.67215
1.67241
1.67284
1.67374
1.67506
1.67672
1.67934
1.68188
1.68367
1.68471
1.68508
1.68505
1.68435
1.68364
1.68378
1.68533
1.68782
1.69062
1.69387
1.69747
1.70063
1.70246
1.70298
1.70288
1.70192
1.69999
1.69907
1.6995
1.70119
1.70344
1.70592
1.70809
1.7099
1.71159
1.71235
1.71229
1.71251
1.71352
1.71454
1.71477
1.71417
1.71294
1.71114
1.70844
1.70503
1.7025
1.7018
1.70175
1.70244
1.70445
1.70563
1.70532
1.70379
1.70107
1.69681
1.69293
1.69079
1.68924
1.6879
1.68766
1.68759
1.68644
1.68383
1.68103
1.67836
1.67568
1.67314
1.67125
1.67008
1.66964
1.66961
1.6692
1.66785
1.66591
1.66367
1.66152
1.65939
1.65715
1.65531
1.65381
1.65176
1.64997
1.64926
1.64884
1.64877
1.64907
1.64947
1.64873
1.6469
1.64444
1.64124
1.63815
1.63662
1.63618
1.6364
1.63807
1.64092
1.64178
1.641
1.63924
1.63671
1.63341
1.63138
1.63109
1.63145
1.63317
1.63617
1.63831
1.63859
1.63833
1.63745
1.63574
1.63412
1.63329
1.63283
1.63246
1.63203
1.6315
1.63104
1.63096
1.63102
1.63125
1.63181
1.63303
1.63514
1.63727
1.6386
1.63946
1.64001
1.64019
1.6401
1.63901
1.6367
1.63502
1.63453
1.63451
1.6347
1.63547
1.63685
1.63824
1.63964
1.64136
1.64321
1.64472
1.64592
1.64686
1.64746
1.64784
1.64781
1.64657
1.64498
1.64494
1.64594
1.64754
1.64911
1.651
1.65296
1.65473
1.65682
1.65897
1.66072
1.66173
1.66185
1.66074
1.65707
1.6548
1.83325
2.55509
2.70159
2.73578
2.76945
2.79949
2.81807
2.82196
2.81724
2.80447
2.78858
2.77607
2.76869
2.76643
2.76595
2.76137
2.75124
2.73907
2.7265
2.71511
2.70733
2.7037
2.70211
2.70045
2.69811
2.69605
2.69478
2.69452
2.69543
2.6976
2.70042
2.70391
2.70899
2.71606
2.72508
2.73608
2.74917
2.7636
2.77756
2.78937
2.79684
2.79998
2.79923
2.79552
2.79115
2.78685
2.78324
2.77853
2.77108
2.75932
2.7464
2.73168
2.71692
2.70645
2.69952
2.6938
2.6893
2.6841
2.67746
2.67069
2.66328
2.65508
2.64607
2.63889
2.63501
2.63227
1.65282
1.65098
1.64963
1.64876
1.64845
1.64932
1.65078
1.65157
1.65191
1.65195
1.65177
1.6516
1.65159
1.65157
1.65151
1.65149
1.65158
1.65206
1.65294
1.65379
1.65444
1.65515
1.65606
1.65713
1.65786
1.65813
1.65882
1.6602
1.66192
1.66393
1.66573
1.66679
1.66693
1.66638
1.66522
1.6651
1.66615
1.66872
1.67222
1.67631
1.6806
1.68424
1.68655
1.68772
1.68801
1.68751
1.68614
1.68555
1.6857
1.6866
1.68803
1.68958
1.69105
1.69245
1.69363
1.69429
1.6947
1.69589
1.69782
1.69968
1.70088
1.70109
1.70069
1.699
1.69542
1.69122
1.68839
1.6866
1.68564
1.68568
1.68734
1.68895
1.68909
1.68866
1.6873
1.68486
1.6818
1.67915
1.67679
1.67485
1.67396
1.67337
1.67195
1.66909
1.6659
1.66336
1.66148
1.65969
1.65785
1.65612
1.65515
1.65435
1.65307
1.6517
1.65051
1.6495
1.64849
1.64732
1.64584
1.64395
1.64159
1.63886
1.63638
1.63435
1.63318
1.63299
1.63351
1.63425
1.63392
1.63281
1.63169
1.62976
1.62689
1.62476
1.62344
1.62318
1.6243
1.6267
1.62732
1.62685
1.62561
1.62407
1.62193
1.61981
1.61866
1.61834
1.61897
1.62102
1.62297
1.62385
1.62421
1.62422
1.62389
1.6232
1.62289
1.6228
1.62261
1.62228
1.62177
1.62095
1.61994
1.61939
1.61935
1.61961
1.62064
1.6224
1.62417
1.62546
1.62647
1.62711
1.62723
1.62713
1.62641
1.62513
1.62456
1.62457
1.62476
1.62519
1.62585
1.62671
1.62772
1.62897
1.6306
1.632
1.63298
1.63393
1.63492
1.63561
1.63585
1.63575
1.63461
1.63332
1.63328
1.63407
1.63545
1.63688
1.63852
1.64038
1.64226
1.64448
1.64698
1.64925
1.65098
1.65188
1.65152
1.64914
1.64649
1.73956
2.48355
2.68727
2.7325
2.7692
2.79856
2.81614
2.81861
2.8136
2.80103
2.786
2.77362
2.7664
2.76422
2.76333
2.75837
2.74823
2.73591
2.72303
2.71125
2.70264
2.69763
2.69445
2.69159
2.68881
2.68624
2.6839
2.68167
2.68026
2.6803
2.68188
2.68499
2.6894
2.69482
2.70116
2.70905
2.71941
2.73217
2.74615
2.75978
2.77191
2.78111
2.78623
2.78675
2.78442
2.78022
2.77569
2.77207
2.7674
2.75881
2.74772
2.73509
2.72139
2.7099
2.70208
2.69651
2.6924
2.68726
2.68034
2.67286
2.66457
2.65479
2.64468
2.63782
2.63274
2.62883
1.62001
1.6192
1.61904
1.61958
1.62147
1.62316
1.62364
1.62364
1.623
1.6217
1.62121
1.62142
1.62218
1.62369
1.62567
1.62676
1.627
1.627
1.62649
1.62525
1.62447
1.62447
1.62516
1.62671
1.62863
1.6306
1.63248
1.63377
1.63472
1.63521
1.63529
1.63514
1.63483
1.63475
1.63522
1.63688
1.63901
1.64145
1.64446
1.64798
1.65149
1.65431
1.65611
1.65696
1.65727
1.65747
1.65796
1.65903
1.66054
1.66232
1.66411
1.66563
1.66705
1.66825
1.6688
1.66875
1.66844
1.66869
1.66992
1.67117
1.67209
1.67254
1.6725
1.6716
1.66973
1.66798
1.66624
1.66466
1.66339
1.66242
1.66185
1.66127
1.66052
1.65956
1.6584
1.65739
1.65672
1.65614
1.6558
1.6557
1.65524
1.65324
1.64947
1.64481
1.64009
1.63642
1.63391
1.63268
1.63255
1.63302
1.63334
1.63254
1.63062
1.62805
1.62577
1.62421
1.62288
1.622
1.62135
1.62075
1.61984
1.61825
1.61615
1.61403
1.61228
1.61073
1.60942
1.60853
1.60783
1.60701
1.6063
1.60556
1.60492
1.60435
1.60422
1.6043
1.60454
1.60455
1.60389
1.60248
1.60094
1.59945
1.59848
1.59818
1.59819
1.59862
1.59919
1.59931
1.59948
1.59969
1.59969
1.59973
1.60005
1.60066
1.60141
1.60237
1.60324
1.60361
1.60365
1.60341
1.60241
1.60161
1.6016
1.60197
1.60311
1.60452
1.60557
1.60653
1.60692
1.60688
1.60632
1.60509
1.6038
1.60316
1.60308
1.60311
1.60329
1.60387
1.60512
1.60686
1.60893
1.6113
1.61345
1.61506
1.61645
1.61735
1.61781
1.61796
1.61777
1.61674
1.61488
1.61388
1.61393
1.61468
1.61601
1.61749
1.61896
1.62033
1.62185
1.62353
1.62542
1.62736
1.62898
1.62985
1.62979
1.6285
1.62724
1.63663
2.37408
2.67088
2.7287
2.76704
2.79395
2.808
2.80881
2.80371
2.79257
2.77993
2.76941
2.76272
2.75927
2.75612
2.75019
2.7409
2.72936
2.71684
2.70486
2.69487
2.68709
2.68071
2.67542
2.67146
2.66881
2.66696
2.66473
2.66163
2.65897
2.65788
2.65839
2.66068
2.66442
2.66879
2.67443
2.68274
2.69401
2.70654
2.71933
2.73173
2.74293
2.75234
2.76001
2.76565
2.76782
2.76716
2.765
2.76045
2.75347
2.74424
2.73416
2.72336
2.71299
2.70515
2.69957
2.69501
2.68933
2.6818
2.6736
2.66436
2.65397
2.64493
2.63799
2.63191
2.62646
1.58583
1.58525
1.5853
1.58643
1.58824
1.58894
1.58913
1.5891
1.58843
1.58762
1.58763
1.58829
1.5895
1.59133
1.5931
1.59387
1.59413
1.59403
1.59299
1.59138
1.59066
1.59065
1.59119
1.59246
1.59409
1.59569
1.59693
1.59799
1.59888
1.59953
1.59979
1.59974
1.59971
1.60012
1.60125
1.60292
1.60493
1.60729
1.61022
1.61365
1.61678
1.61873
1.61953
1.61988
1.6203
1.62108
1.62208
1.62302
1.62413
1.62567
1.62729
1.62865
1.62985
1.6309
1.63168
1.63231
1.63289
1.6339
1.63545
1.63647
1.63651
1.63626
1.63575
1.63506
1.63421
1.63302
1.63172
1.63068
1.6299
1.6291
1.6281
1.62716
1.62614
1.62479
1.62343
1.62299
1.623
1.62335
1.62422
1.62481
1.62451
1.62253
1.6189
1.6144
1.60947
1.60493
1.60162
1.60021
1.60051
1.60177
1.60178
1.60066
1.59911
1.59726
1.59547
1.59403
1.59265
1.5915
1.59124
1.59117
1.5904
1.58849
1.5864
1.58465
1.58311
1.58168
1.58046
1.57952
1.57863
1.57774
1.57679
1.57626
1.57617
1.57623
1.57653
1.57695
1.57724
1.57713
1.57607
1.5745
1.57285
1.57133
1.57059
1.57052
1.57064
1.57113
1.57143
1.57148
1.57159
1.57161
1.57151
1.57144
1.57175
1.57274
1.57398
1.57529
1.5763
1.5769
1.57722
1.5772
1.57651
1.57552
1.57542
1.57578
1.57673
1.57789
1.57883
1.57989
1.58061
1.58076
1.58049
1.57945
1.57825
1.57771
1.57759
1.57758
1.57759
1.57779
1.57862
1.58025
1.5823
1.58442
1.5863
1.58812
1.58987
1.5912
1.59195
1.5921
1.59191
1.59103
1.5897
1.58898
1.58901
1.58972
1.59103
1.59263
1.59414
1.59532
1.59661
1.59794
1.59929
1.6006
1.60171
1.60216
1.60201
1.6006
1.59954
1.60021
2.22351
2.64433
2.71417
2.75206
2.77749
2.78982
2.78973
2.78522
2.77721
2.76843
2.76045
2.75436
2.74927
2.74351
2.73608
2.72661
2.71548
2.70375
2.69255
2.68253
2.67356
2.6652
2.6576
2.6514
2.64699
2.64424
2.64246
2.64002
2.63565
2.63159
2.62913
2.62882
2.63038
2.63376
2.63841
2.64463
2.65232
2.66095
2.67096
2.68195
2.69299
2.70405
2.71614
2.72832
2.73853
2.7451
2.74714
2.74573
2.74126
2.73544
2.72852
2.72066
2.71301
2.7061
2.70027
2.6948
2.68864
2.68132
2.67299
2.66347
2.65405
2.646
2.63885
2.63198
2.62524
1.55362
1.55366
1.55441
1.55564
1.55604
1.55607
1.55584
1.55518
1.55465
1.55472
1.55548
1.55673
1.55843
1.56014
1.56088
1.56098
1.56077
1.55948
1.55759
1.55692
1.55702
1.55763
1.55879
1.56034
1.56137
1.56183
1.56194
1.56184
1.56179
1.56198
1.56268
1.5638
1.56518
1.56676
1.56822
1.56936
1.57039
1.57142
1.57278
1.5749
1.57742
1.57937
1.58075
1.58203
1.58325
1.58421
1.58474
1.58481
1.58486
1.58541
1.58648
1.58752
1.58836
1.58909
1.58984
1.59051
1.59139
1.59306
1.59474
1.59599
1.59687
1.59709
1.59699
1.59671
1.596
1.59452
1.59266
1.59129
1.59012
1.58907
1.58833
1.5879
1.58734
1.58674
1.58648
1.58649
1.58665
1.5872
1.58766
1.58766
1.58688
1.58487
1.58193
1.5785
1.57521
1.57202
1.56924
1.56804
1.56811
1.56803
1.56692
1.56543
1.56403
1.56288
1.56213
1.56139
1.56065
1.56048
1.56051
1.56021
1.5588
1.55673
1.55483
1.55304
1.55132
1.54988
1.549
1.54859
1.54814
1.54752
1.54688
1.54637
1.54622
1.54619
1.54626
1.54634
1.54634
1.54633
1.54602
1.54512
1.54418
1.5435
1.54288
1.54215
1.5415
1.54111
1.54094
1.54093
1.54102
1.54127
1.54166
1.54218
1.54295
1.54397
1.54522
1.54644
1.54738
1.54811
1.54862
1.54874
1.54835
1.54714
1.54661
1.54672
1.54713
1.5478
1.54834
1.54888
1.5494
1.54954
1.54945
1.54904
1.54872
1.54873
1.54898
1.54942
1.54981
1.55021
1.55076
1.55161
1.55273
1.55393
1.5552
1.55656
1.5579
1.559
1.55979
1.55997
1.55989
1.55966
1.55926
1.55882
1.55878
1.55932
1.56057
1.56196
1.56337
1.56455
1.56557
1.56665
1.56781
1.56905
1.57023
1.57102
1.57104
1.56986
1.56868
1.56848
2.018
2.59043
2.68972
2.71944
2.74236
2.75618
2.76158
2.75978
2.75506
2.74844
2.74116
2.73378
2.72622
2.71886
2.71176
2.7038
2.69421
2.68381
2.67374
2.66454
2.65626
2.64872
2.64131
2.6339
2.6272
2.62202
2.61879
2.61692
2.61411
2.60915
2.60453
2.60182
2.60144
2.60324
2.60738
2.61275
2.61645
2.62045
2.62574
2.63293
2.64233
2.65427
2.66822
2.68263
2.69549
2.70543
2.71198
2.71549
2.71631
2.71556
2.71351
2.7103
2.70646
2.70201
2.69673
2.69064
2.68405
2.67698
2.66903
2.66076
2.65295
2.64582
2.63892
2.6317
2.62403
1.52852
1.53006
1.53173
1.53235
1.53233
1.53144
1.52967
1.528
1.52739
1.52749
1.5283
1.5301
1.53243
1.53394
1.53444
1.5344
1.53307
1.53054
1.52906
1.52888
1.52907
1.52993
1.53166
1.53324
1.53409
1.53432
1.53402
1.53318
1.53272
1.5327
1.53322
1.53457
1.53631
1.53793
1.53906
1.53974
1.53986
1.53973
1.5398
1.54062
1.5423
1.54423
1.54581
1.54727
1.54854
1.54939
1.54992
1.54996
1.54983
1.55014
1.55094
1.55162
1.55206
1.55255
1.55321
1.55367
1.55404
1.55499
1.55626
1.55725
1.55813
1.55892
1.5593
1.55933
1.55914
1.55823
1.5566
1.55526
1.55418
1.55311
1.55211
1.55154
1.55142
1.55138
1.55141
1.55167
1.55239
1.55338
1.55385
1.55361
1.55259
1.5505
1.5475
1.54481
1.54277
1.54094
1.53954
1.53898
1.53858
1.53766
1.53638
1.53509
1.53384
1.53289
1.53231
1.53197
1.53205
1.53247
1.53253
1.53192
1.5305
1.52874
1.52694
1.52526
1.52375
1.52256
1.52204
1.522
1.52188
1.52147
1.52111
1.52074
1.52043
1.5203
1.52014
1.51985
1.51946
1.51923
1.51923
1.51903
1.51875
1.51854
1.51816
1.51733
1.51635
1.51572
1.51541
1.51519
1.51514
1.51528
1.51576
1.51638
1.51715
1.51824
1.51944
1.52053
1.52135
1.52191
1.5222
1.52224
1.52197
1.52099
1.52021
1.52019
1.52041
1.52084
1.52122
1.52133
1.52139
1.52136
1.52124
1.52114
1.52124
1.52162
1.52226
1.52287
1.52346
1.52394
1.52432
1.52475
1.52537
1.52617
1.52705
1.52796
1.52876
1.52933
1.52973
1.53013
1.5304
1.53041
1.53023
1.52979
1.52968
1.53006
1.53109
1.53237
1.53366
1.53486
1.53589
1.53659
1.53721
1.53789
1.5386
1.53903
1.53896
1.53773
1.53669
1.53678
1.76567
2.49458
2.6639
2.67798
2.69974
2.7163
2.72634
2.72694
2.72496
2.71993
2.71238
2.70328
2.69357
2.68553
2.67978
2.67489
2.66843
2.65999
2.65123
2.64323
2.63635
2.63085
2.6257
2.61904
2.61109
2.60355
2.59775
2.59441
2.59296
2.59086
2.58646
2.58203
2.57931
2.57874
2.58027
2.58423
2.58744
2.58885
2.59078
2.59418
2.60054
2.61021
2.62239
2.6351
2.64669
2.65655
2.66398
2.66936
2.6745
2.67968
2.68354
2.68604
2.68652
2.68548
2.68223
2.6773
2.67136
2.66509
2.65876
2.65248
2.64619
2.64012
2.63381
2.62682
2.61912
1.51641
1.51742
1.51725
1.51596
1.514
1.51174
1.50988
1.50911
1.50913
1.5098
1.51165
1.51446
1.51636
1.51658
1.51587
1.51382
1.51098
1.50929
1.50907
1.50929
1.51044
1.51267
1.51481
1.51553
1.51537
1.51433
1.51247
1.51121
1.51092
1.51106
1.51179
1.51349
1.51558
1.51691
1.51751
1.51753
1.5168
1.51595
1.5159
1.51662
1.51799
1.51934
1.52086
1.52226
1.52321
1.52365
1.52361
1.52257
1.52119
1.52061
1.52046
1.52056
1.52117
1.52211
1.52305
1.52377
1.52437
1.52522
1.52634
1.5276
1.52899
1.53031
1.53092
1.53092
1.53029
1.52832
1.52589
1.52424
1.52322
1.52266
1.52257
1.52292
1.52382
1.52488
1.52588
1.52671
1.52701
1.52679
1.52596
1.52435
1.52229
1.52019
1.51854
1.51749
1.51688
1.51675
1.51689
1.51673
1.5155
1.51367
1.51202
1.51076
1.51002
1.50972
1.5098
1.51055
1.51166
1.51196
1.51138
1.50953
1.50713
1.50506
1.50354
1.5025
1.50202
1.50199
1.50252
1.50354
1.50393
1.5039
1.50335
1.50202
1.50035
1.49896
1.49811
1.49771
1.49766
1.49805
1.49899
1.49985
1.50026
1.50034
1.49978
1.49813
1.49647
1.49556
1.49519
1.49513
1.4953
1.49606
1.49709
1.49801
1.49854
1.49889
1.49912
1.49913
1.49909
1.49907
1.499
1.49901
1.49903
1.49874
1.49812
1.49804
1.49825
1.49859
1.49883
1.49899
1.49903
1.49914
1.49943
1.50015
1.50117
1.50227
1.50319
1.50369
1.50385
1.50386
1.50356
1.50299
1.50276
1.50274
1.50273
1.50274
1.50285
1.50319
1.50385
1.50482
1.50571
1.50598
1.50586
1.50561
1.50565
1.50612
1.507
1.50795
1.5089
1.50985
1.51063
1.51106
1.51134
1.51159
1.51179
1.5119
1.51175
1.5106
1.50975
1.50978
1.5437
2.37288
2.64204
2.65905
2.67253
2.68518
2.69266
2.69365
2.69166
2.68656
2.67858
2.66807
2.65721
2.64923
2.64612
2.64481
2.64207
2.63609
2.62935
2.62291
2.61743
2.61341
2.6102
2.60505
2.59733
2.58901
2.58143
2.57584
2.57366
2.57366
2.57253
2.56821
2.56336
2.56003
2.55876
2.55973
2.56308
2.56563
2.56658
2.56809
2.57118
2.57655
2.58391
2.59201
2.60005
2.60765
2.61404
2.61951
2.62589
2.63298
2.63991
2.6463
2.65019
2.65085
2.6501
2.6473
2.64335
2.63963
2.63589
2.63185
2.62749
2.62257
2.61714
2.61081
2.60351
1.5072
1.50564
1.50381
1.50168
1.49972
1.4989
1.4989
1.4995
1.50103
1.50338
1.50499
1.50512
1.50407
1.50234
1.50019
1.49801
1.49713
1.49724
1.49814
1.50025
1.50272
1.50374
1.50355
1.50242
1.50054
1.49843
1.49745
1.49742
1.49781
1.49898
1.50106
1.50332
1.5045
1.50468
1.50413
1.50257
1.50109
1.50076
1.50094
1.50161
1.5027
1.50405
1.50493
1.50516
1.50523
1.50474
1.50304
1.50097
1.49998
1.4999
1.5003
1.50127
1.50306
1.505
1.50638
1.5072
1.50786
1.50861
1.50943
1.51023
1.51069
1.51071
1.5103
1.50895
1.50675
1.50435
1.50275
1.50226
1.50228
1.50281
1.50444
1.50703
1.50928
1.51007
1.50984
1.50884
1.50703
1.50502
1.50332
1.50203
1.50119
1.50086
1.501
1.50188
1.5028
1.50286
1.50175
1.49967
1.49729
1.49557
1.49477
1.4946
1.49496
1.49624
1.49793
1.4987
1.49841
1.49672
1.4941
1.49142
1.48969
1.48889
1.48864
1.48877
1.48974
1.49164
1.49317
1.49347
1.4928
1.49134
1.4893
1.48695
1.48507
1.48413
1.4839
1.484
1.48488
1.48677
1.48856
1.48915
1.48892
1.48777
1.48567
1.48354
1.48244
1.48219
1.48224
1.48292
1.48439
1.48559
1.48582
1.48561
1.48483
1.48382
1.48334
1.48333
1.48355
1.48413
1.4848
1.48485
1.48479
1.48437
1.48357
1.48338
1.48349
1.48376
1.48412
1.48463
1.4854
1.48632
1.48716
1.48791
1.48851
1.48882
1.48889
1.48882
1.48849
1.48771
1.48649
1.48553
1.48516
1.48507
1.48509
1.48528
1.48573
1.48658
1.48793
1.4893
1.49021
1.49054
1.49047
1.49032
1.49013
1.49
1.49003
1.49011
1.49023
1.49053
1.49109
1.49162
1.49202
1.49244
1.4927
1.49274
1.49216
1.49034
1.48889
1.4882
1.48833
2.23632
2.61873
2.66552
2.66229
2.66714
2.66792
2.66662
2.66174
2.65503
2.64722
2.63766
2.62878
2.6235
2.62203
2.62132
2.61874
2.61436
2.60993
2.60577
2.60138
2.59752
2.5936
2.58835
2.58205
2.5752
2.56766
2.56076
2.55636
2.55506
2.55502
2.55346
2.54896
2.54396
2.54034
2.53874
2.53977
2.54304
2.54589
2.5468
2.54765
2.54879
2.55078
2.55407
2.55859
2.56364
2.56854
2.57324
2.5782
2.58374
2.58975
2.59571
2.6004
2.60273
2.60318
2.60226
2.60016
2.59813
2.5958
2.59327
2.59049
2.58715
2.58301
2.57785
2.57169
1.4981
1.49586
1.49355
1.49265
1.49257
1.49295
1.49439
1.49703
1.49889
1.49911
1.49821
1.49644
1.49448
1.49202
1.49037
1.49009
1.49046
1.49209
1.49485
1.49658
1.49669
1.49602
1.49464
1.49253
1.49066
1.49025
1.49034
1.49113
1.49329
1.49592
1.49719
1.49717
1.49622
1.4946
1.49285
1.4909
1.4901
1.49005
1.49026
1.49094
1.49206
1.49255
1.49254
1.49244
1.49189
1.49069
1.48932
1.48887
1.48907
1.49008
1.49235
1.4952
1.49724
1.49793
1.49793
1.49723
1.49635
1.49623
1.4962
1.49599
1.49549
1.49476
1.49374
1.49248
1.49122
1.49062
1.49069
1.49138
1.49309
1.49551
1.49755
1.49813
1.49777
1.49679
1.49515
1.49307
1.49157
1.49089
1.4907
1.49083
1.49183
1.49321
1.49383
1.49365
1.49211
1.4899
1.48752
1.48557
1.48465
1.48452
1.485
1.48663
1.48918
1.49065
1.49068
1.48939
1.48684
1.48373
1.48139
1.48052
1.48044
1.48077
1.48198
1.48398
1.48546
1.48568
1.48495
1.48371
1.48228
1.48044
1.47876
1.47762
1.4772
1.47721
1.4778
1.47925
1.48081
1.4813
1.48101
1.48009
1.47876
1.47694
1.47538
1.47486
1.47487
1.47538
1.4767
1.47795
1.47816
1.47772
1.47669
1.4753
1.4743
1.47408
1.47429
1.47498
1.47646
1.47851
1.47942
1.47936
1.47875
1.47721
1.47564
1.47528
1.47534
1.47549
1.47581
1.47628
1.47677
1.47715
1.47736
1.47735
1.47739
1.47762
1.47773
1.47768
1.47752
1.47693
1.47587
1.47536
1.47542
1.47586
1.47675
1.47796
1.47932
1.48052
1.48119
1.48132
1.48096
1.48009
1.47931
1.4786
1.47782
1.47696
1.47626
1.47596
1.47595
1.47617
1.47703
1.47807
1.47879
1.47911
1.47915
1.47859
1.47689
1.47491
1.47398
1.47386
1.47398
2.09194
2.6091
2.67502
2.66175
2.66168
2.65712
2.65076
2.64186
2.6329
2.62447
2.61644
2.61091
2.6082
2.60584
2.60183
2.59711
2.59309
2.59076
2.58931
2.58699
2.58255
2.57522
2.5673
2.56072
2.55562
2.55096
2.54505
2.53888
2.53442
2.53196
2.53078
2.52923
2.52533
2.52094
2.51761
2.51619
2.51717
2.51993
2.52246
2.52257
2.52176
2.52063
2.52046
2.52158
2.52425
2.52789
2.53146
2.53452
2.53734
2.54014
2.54278
2.54512
2.54686
2.54742
2.5473
2.54658
2.54523
2.54337
2.54107
2.53832
2.53518
2.53168
2.52766
2.52331
1.49046
1.48873
1.48847
1.48861
1.48961
1.49205
1.49475
1.49566
1.4954
1.49421
1.49237
1.48985
1.48735
1.48635
1.48628
1.48674
1.48875
1.49141
1.49238
1.49222
1.49153
1.49004
1.48781
1.48671
1.48661
1.48693
1.48852
1.49125
1.49301
1.49318
1.49258
1.49131
1.48964
1.48726
1.48501
1.48437
1.48431
1.4843
1.48477
1.48566
1.48583
1.48572
1.48561
1.48533
1.48467
1.48396
1.48384
1.48446
1.48631
1.48867
1.49036
1.49074
1.49063
1.48982
1.48876
1.48776
1.48681
1.48612
1.48574
1.48552
1.48537
1.48518
1.48483
1.48452
1.48467
1.48548
1.48695
1.48852
1.48947
1.48957
1.48923
1.48862
1.48769
1.48605
1.48479
1.48434
1.48432
1.48475
1.48612
1.48779
1.48849
1.48828
1.48694
1.48481
1.4823
1.47958
1.47832
1.47809
1.47827
1.47932
1.48203
1.48497
1.48579
1.48537
1.48381
1.48123
1.47779
1.47585
1.47542
1.47561
1.47656
1.47849
1.48007
1.4803
1.4797
1.47868
1.47751
1.47595
1.47467
1.47407
1.47382
1.47391
1.47454
1.47544
1.47607
1.47615
1.47578
1.47515
1.4744
1.47318
1.47152
1.4707
1.4706
1.47092
1.47208
1.47338
1.47377
1.47352
1.4727
1.47143
1.46983
1.46908
1.46905
1.46945
1.47073
1.47311
1.47513
1.47555
1.47509
1.47371
1.47182
1.47
1.46885
1.46843
1.4684
1.46847
1.46875
1.46924
1.46966
1.46976
1.46979
1.47004
1.47042
1.47109
1.47198
1.47244
1.47254
1.47247
1.47214
1.47209
1.47243
1.47311
1.4739
1.47439
1.47457
1.47451
1.47391
1.47318
1.47224
1.47087
1.47002
1.46952
1.46905
1.46858
1.46824
1.46804
1.46802
1.46829
1.46905
1.4697
1.47
1.47003
1.46956
1.46843
1.46739
1.46697
1.46695
1.46758
1.46822
1.97273
2.6055
2.68814
2.66946
2.66292
2.65262
2.64258
2.63191
2.62194
2.61316
2.6059
2.60113
2.59838
2.59311
2.58499
2.57647
2.57038
2.56743
2.56717
2.56747
2.56412
2.55376
2.54228
2.53234
2.52543
2.52225
2.52046
2.51643
2.50963
2.50383
2.49975
2.49777
2.49669
2.4942
2.4909
2.48819
2.4868
2.48691
2.48829
2.48984
2.48942
2.48807
2.48621
2.48545
2.48581
2.48741
2.48969
2.49134
2.49188
2.49175
2.49124
2.49067
2.49021
2.49
2.49003
2.48993
2.48907
2.48703
2.48398
2.48015
2.47591
2.47159
2.46739
2.46394
1.48563
1.48559
1.48595
1.48762
1.49066
1.49302
1.49336
1.49283
1.49156
1.48944
1.48663
1.48453
1.48405
1.484
1.48462
1.48691
1.48929
1.48973
1.48946
1.48867
1.48689
1.48488
1.48423
1.4842
1.48495
1.48721
1.48998
1.49084
1.49048
1.48962
1.48836
1.48639
1.48387
1.48211
1.48171
1.48162
1.48188
1.48302
1.48394
1.4839
1.48353
1.48308
1.48266
1.48238
1.48226
1.48243
1.48332
1.48457
1.48548
1.48562
1.4855
1.48517
1.48465
1.48343
1.48146
1.48031
1.48018
1.48031
1.48052
1.4808
1.48104
1.48131
1.48181
1.48268
1.48376
1.48454
1.48473
1.48436
1.4836
1.48307
1.4824
1.48136
1.4806
1.48033
1.48032
1.48089
1.48227
1.48379
1.48452
1.48441
1.48356
1.4822
1.48033
1.47745
1.47493
1.47417
1.47415
1.47464
1.47647
1.47971
1.48193
1.48215
1.48151
1.4802
1.47778
1.4746
1.473
1.47277
1.47309
1.4744
1.4761
1.47667
1.47635
1.47553
1.47446
1.47296
1.47179
1.47139
1.47123
1.47142
1.47244
1.47355
1.47395
1.47389
1.47311
1.47211
1.47139
1.4705
1.46935
1.4684
1.46811
1.46817
1.46899
1.47053
1.47129
1.47126
1.47067
1.46962
1.46812
1.46673
1.46624
1.46627
1.46682
1.46851
1.47083
1.47192
1.47182
1.47121
1.47025
1.4687
1.46647
1.46478
1.46406
1.46372
1.46363
1.46366
1.46384
1.46425
1.46478
1.4654
1.46608
1.46675
1.46758
1.46897
1.47058
1.47128
1.47145
1.47144
1.47081
1.46984
1.4696
1.46962
1.46964
1.46958
1.46945
1.46908
1.46821
1.46677
1.46569
1.4654
1.46519
1.46504
1.46508
1.46544
1.46574
1.46578
1.46568
1.46525
1.46493
1.46473
1.46461
1.46442
1.46398
1.46356
1.46373
1.46464
1.46549
1.46604
1.46596
1.8923
2.60999
2.70381
2.67991
2.66605
2.64984
2.63616
2.62441
2.6138
2.60385
2.5951
2.58808
2.58219
2.57522
2.56515
2.55409
2.54421
2.53664
2.5337
2.53283
2.53067
2.52264
2.51021
2.49789
2.48734
2.48153
2.48054
2.47995
2.47488
2.46741
2.46142
2.45713
2.45557
2.45527
2.4543
2.45176
2.44927
2.44742
2.44675
2.44757
2.44913
2.44898
2.44812
2.4465
2.44544
2.44514
2.44526
2.4455
2.4453
2.44411
2.44225
2.44036
2.43865
2.43731
2.43645
2.43581
2.43451
2.4318
2.42792
2.42329
2.4182
2.41296
2.40801
2.40427
1.4835
1.48423
1.48659
1.48994
1.49152
1.49154
1.49091
1.4895
1.48692
1.48393
1.48262
1.48246
1.48246
1.48336
1.48598
1.48822
1.48839
1.48797
1.48682
1.48466
1.48294
1.48258
1.48265
1.4837
1.48628
1.48853
1.48872
1.48832
1.48759
1.48631
1.48408
1.48157
1.48038
1.4801
1.48007
1.48083
1.48243
1.48321
1.48309
1.48266
1.48226
1.48194
1.48168
1.48162
1.48182
1.48231
1.48251
1.48243
1.48214
1.48187
1.48155
1.48075
1.47916
1.4775
1.4771
1.47718
1.47726
1.4779
1.47897
1.47987
1.48051
1.48106
1.48158
1.48193
1.48195
1.48156
1.48075
1.47986
1.47881
1.47785
1.47742
1.47734
1.47735
1.47795
1.47948
1.48096
1.4816
1.48155
1.48091
1.47996
1.47876
1.47685
1.47419
1.47221
1.47162
1.47167
1.47252
1.47492
1.47807
1.47937
1.47919
1.47861
1.47763
1.47553
1.47282
1.47147
1.47134
1.47177
1.4731
1.47414
1.47414
1.47354
1.4726
1.47116
1.46971
1.46917
1.46905
1.4691
1.47012
1.47199
1.47312
1.47323
1.47273
1.47128
1.46962
1.46833
1.46736
1.46672
1.46645
1.46637
1.46674
1.46816
1.46965
1.46994
1.46965
1.46886
1.46759
1.46595
1.46482
1.46451
1.46454
1.46524
1.46701
1.46875
1.4691
1.46883
1.46833
1.46761
1.46623
1.46423
1.463
1.4626
1.46223
1.46181
1.46163
1.46162
1.46171
1.462
1.46254
1.46334
1.4644
1.46592
1.46798
1.46959
1.47005
1.47005
1.4698
1.46905
1.46772
1.46662
1.46627
1.46618
1.46609
1.46588
1.46532
1.4644
1.46352
1.46312
1.46293
1.46289
1.46338
1.46431
1.46522
1.46561
1.46544
1.46467
1.4635
1.46239
1.4619
1.46174
1.46162
1.46163
1.46191
1.46256
1.4634
1.46395
1.46402
1.46336
1.46219
1.81879
2.5972
2.70505
2.67736
2.65948
2.63958
2.62248
2.60884
2.59714
2.58534
2.57324
2.56126
2.54986
2.53962
2.5308
2.52112
2.50972
2.49888
2.4902
2.48375
2.4786
2.47338
2.46611
2.45549
2.4452
2.43768
2.43358
2.43137
2.42818
2.42266
2.41779
2.41416
2.41256
2.41226
2.41113
2.40824
2.40569
2.40374
2.40285
2.40346
2.40559
2.40596
2.4055
2.40399
2.40228
2.40111
2.40044
2.40018
2.39983
2.39884
2.39724
2.39531
2.39313
2.39075
2.38836
2.386
2.38347
2.3805
2.377
2.37299
2.36849
2.3636
2.35869
2.35481
1.48355
1.48633
1.48934
1.49018
1.49006
1.4894
1.48788
1.48505
1.48229
1.48143
1.48132
1.48148
1.48276
1.48567
1.48769
1.48778
1.48731
1.48604
1.48366
1.48195
1.48161
1.48173
1.48288
1.48547
1.48711
1.48709
1.48665
1.48588
1.48435
1.4818
1.47991
1.47944
1.47927
1.47937
1.48049
1.48211
1.48249
1.48214
1.48146
1.48082
1.48048
1.48035
1.48028
1.4804
1.48072
1.48067
1.48037
1.48003
1.47963
1.47895
1.47767
1.47609
1.47526
1.47516
1.47518
1.47581
1.47717
1.47868
1.47951
1.47973
1.47972
1.47959
1.4794
1.47918
1.47887
1.47833
1.47717
1.47581
1.47522
1.47516
1.47515
1.47559
1.477
1.47876
1.47965
1.47966
1.47919
1.47829
1.47715
1.47568
1.47379
1.47196
1.47073
1.47028
1.47044
1.47159
1.47409
1.47644
1.47699
1.47678
1.47639
1.47562
1.47391
1.47187
1.47084
1.47079
1.47131
1.47239
1.47279
1.47245
1.47156
1.47022
1.46852
1.46755
1.46738
1.46733
1.46782
1.46962
1.47194
1.47283
1.47274
1.47192
1.47018
1.4678
1.46586
1.46513
1.46503
1.46503
1.46513
1.46603
1.46781
1.46895
1.46894
1.46846
1.46754
1.46609
1.46455
1.46377
1.46355
1.46361
1.46441
1.46599
1.46705
1.46703
1.46669
1.46617
1.46535
1.46409
1.46285
1.46217
1.46194
1.46195
1.46191
1.46166
1.4612
1.46093
1.46097
1.4613
1.46196
1.463
1.46466
1.46673
1.46789
1.46807
1.46797
1.46776
1.46737
1.46642
1.46497
1.46394
1.4635
1.4632
1.46291
1.46256
1.46218
1.4618
1.46157
1.46156
1.46216
1.46343
1.46493
1.46574
1.46575
1.46518
1.46418
1.46275