/*--------------------------------*- C++ -*----------------------------------*\
  =========                 |
  \\      /  F ield         | OpenFOAM: The Open Source CFD Toolbox
   \\    /   O peration     | Website:  https://openfoam.org
    \\  /    A nd           | Version:  7
     \\/     M anipulation  |
\*---------------------------------------------------------------------------*/
FoamFile
{
    version     2.0;
    format      ascii;
    class       volVectorField;
    location    "2.3";
    object      U;
}
// * * * * * * * * * * * * * * * * * * * * * * * * * * * * * * * * * * * * * //

dimensions      [0 1 -1 0 0 0 0];

internalField   nonuniform List<vector> 
16512
(
(2.59646 0.507762 0)
(2.58173 0.526091 0)
(2.49807 0.612047 0)
(2.35392 0.752476 0)
(2.23343 0.90941 0)
(2.20887 0.920421 0)
(2.20484 0.911762 0)
(2.20802 0.898814 0)
(2.21053 0.886982 0)
(2.20062 0.883423 0)
(2.18534 0.877498 0)
(2.18513 0.871702 0)
(2.19079 0.867459 0)
(2.20455 0.862741 0)
(2.22302 0.865401 0)
(2.23362 0.870656 0)
(2.23675 0.872564 0)
(2.23711 0.871254 0)
(2.23145 0.862385 0)
(2.22392 0.846688 0)
(2.22421 0.837517 0)
(2.22899 0.834613 0)
(2.23451 0.833111 0)
(2.24031 0.831651 0)
(2.24607 0.830757 0)
(2.25165 0.830519 0)
(2.25693 0.830518 0)
(2.25985 0.82713 0)
(2.26211 0.822149 0)
(2.26664 0.819123 0)
(2.27161 0.816567 0)
(2.27697 0.813105 0)
(2.28135 0.807917 0)
(2.28165 0.799825 0)
(2.27545 0.788445 0)
(2.27308 0.780522 0)
(2.27672 0.780037 0)
(2.28172 0.779852 0)
(2.28898 0.779681 0)
(2.29852 0.779643 0)
(2.30495 0.778041 0)
(2.31167 0.77737 0)
(2.31725 0.776313 0)
(2.32161 0.772857 0)
(2.32176 0.764256 0)
(2.31535 0.750813 0)
(2.31259 0.740392 0)
(2.31632 0.738674 0)
(2.32187 0.739623 0)
(2.33301 0.742784 0)
(2.34537 0.74656 0)
(2.35147 0.746841 0)
(2.35745 0.744415 0)
(2.35956 0.737997 0)
(2.35478 0.727266 0)
(2.34192 0.709528 0)
(2.33372 0.695644 0)
(2.33569 0.69072 0)
(2.33981 0.691101 0)
(2.34742 0.692464 0)
(2.36309 0.698556 0)
(2.38122 0.706886 0)
(2.38972 0.709087 0)
(2.39513 0.707413 0)
(2.39904 0.7024 0)
(2.39673 0.692562 0)
(2.38384 0.67337 0)
(2.36956 0.652697 0)
(2.36899 0.64477 0)
(2.37283 0.645005 0)
(2.37913 0.646988 0)
(2.39335 0.653196 0)
(2.41068 0.665025 0)
(2.42462 0.670382 0)
(2.42481 0.661468 0)
(2.41128 0.626463 0)
(2.33264 0.472262 0)
(2.22417 0.277078 0)
(2.11026 0.0850278 0)
(2.00501 -0.0565459 0)
(1.9946 -0.0952691 0)
(1.99976 -0.0737804 0)
(2.03015 -0.0482658 0)
(2.05437 -0.0354723 0)
(2.0614 -0.0342163 0)
(2.06731 -0.0380282 0)
(2.06446 -0.0510965 0)
(2.05242 -0.0729892 0)
(2.04346 -0.0912028 0)
(2.04598 -0.0979736 0)
(2.05241 -0.0990933 0)
(2.05916 -0.0967442 0)
(2.06971 -0.0904992 0)
(2.08178 -0.0807929 0)
(2.09206 -0.0731876 0)
(2.09787 -0.0714144 0)
(2.10407 -0.0731585 0)
(2.10697 -0.0789655 0)
(2.10775 -0.0874371 0)
(2.10776 -0.0970174 0)
(2.10814 -0.104568 0)
(2.11111 -0.108727 0)
(2.11622 -0.10893 0)
(2.12172 -0.107057 0)
(2.12745 -0.105516 0)
(2.13359 -0.10533 0)
(2.13984 -0.10612 0)
(2.14582 -0.107574 0)
(2.15185 -0.108997 0)
(2.15763 -0.110201 0)
(2.16283 -0.111235 0)
(2.16674 -0.112776 0)
(2.16753 -0.116505 0)
(2.16385 -0.123588 0)
(2.16499 -0.127915 0)
(2.17106 -0.12842 0)
(2.1774 -0.128124 0)
(2.18534 -0.1264 0)
(2.19281 -0.124496 0)
(2.19901 -0.12447 0)
(2.20485 -0.124887 0)
(2.2082 -0.127268 0)
(2.20518 -0.13454 0)
(2.20081 -0.144224 0)
(2.20363 -0.148625 0)
(2.20881 -0.148296 0)
(2.2164 -0.145904 0)
(2.22862 -0.140286 0)
(2.23763 -0.136277 0)
(2.24288 -0.136566 0)
(2.24736 -0.139043 0)
(2.24544 -0.145345 0)
(2.23701 -0.157284 0)
(2.23493 -0.166668 0)
(2.23457 -0.169177 0)
(2.22858 -0.178905 0)
(2.20151 -0.223014 0)
(2.16723 -0.271958 0)
(2.12131 -0.322853 0)
(2.07998 -0.363753 0)
(2.0676 -0.382491 0)
(2.0682 -0.384002 0)
(2.07338 -0.387799 0)
(2.07589 -0.392149 0)
(2.07622 -0.39204 0)
(2.08098 -0.391403 0)
(2.08752 -0.391746 0)
(2.09657 -0.391651 0)
(2.10565 -0.391054 0)
(2.11214 -0.391549 0)
(2.11819 -0.392506 0)
(2.12286 -0.393741 0)
(2.12483 -0.396716 0)
(2.12409 -0.401321 0)
(2.12614 -0.40387 0)
(2.13142 -0.404227 0)
(2.13692 -0.403947 0)
(2.14253 -0.404251 0)
(2.14825 -0.405235 0)
(2.15378 -0.406393 0)
(2.15815 -0.408224 0)
(2.15991 -0.41109 0)
(2.16152 -0.413513 0)
(2.1665 -0.414024 0)
(2.17173 -0.413897 0)
(2.17752 -0.413323 0)
(2.18374 -0.412564 0)
(2.18936 -0.412977 0)
(2.19496 -0.413887 0)
(2.1998 -0.415157 0)
(2.20292 -0.417812 0)
(2.20246 -0.422832 0)
(2.20113 -0.426933 0)
(2.20509 -0.427652 0)
(2.2102 -0.426804 0)
(2.2164 -0.424911 0)
(2.22337 -0.422459 0)
(2.229 -0.421621 0)
(2.23465 -0.421984 0)
(2.2393 -0.422801 0)
(2.2418 -0.425161 0)
(2.24109 -0.429434 0)
(2.24185 -0.43207 0)
(2.24698 -0.43174 0)
(2.25228 -0.43062 0)
(2.25766 -0.429606 0)
(2.26281 -0.428967 0)
(2.26753 -0.428548 0)
(2.27139 -0.428692 0)
(2.27362 -0.430097 0)
(2.27318 -0.432966 0)
(2.27437 -0.434917 0)
(2.27928 -0.435024 0)
(2.2844 -0.434745 0)
(2.28968 -0.434149 0)
(2.29462 -0.433921 0)
(2.29941 -0.434095 0)
(2.30392 -0.434431 0)
(2.30778 -0.435026 0)
(2.31016 -0.436465 0)
(2.31045 -0.438993 0)
(2.31095 -0.441042 0)
(2.31449 -0.440943 0)
(2.31888 -0.440393 0)
(2.32337 -0.440017 0)
(2.32782 -0.439831 0)
(2.33206 -0.44002 0)
(2.33587 -0.44097 0)
(2.33897 -0.442707 0)
(2.34093 -0.445208 0)
(2.34196 -0.447952 0)
(2.34517 -0.44919 0)
(2.3498 -0.449392 0)
(2.35456 -0.449118 0)
(2.35921 -0.448465 0)
(2.36356 -0.447731 0)
(2.3674 -0.446813 0)
(2.37032 -0.44522 0)
(2.37177 -0.442898 0)
(2.37209 -0.441335 0)
(2.37251 -0.441291 0)
(2.37408 -0.441487 0)
(2.37697 -0.441512 0)
(2.38056 -0.441909 0)
(2.38485 -0.442875 0)
(2.38925 -0.444297 0)
(2.39341 -0.445602 0)
(2.3975 -0.446814 0)
(2.4011 -0.448463 0)
(2.40417 -0.450697 0)
(2.40684 -0.452475 0)
(2.40987 -0.452949 0)
(2.41374 -0.45283 0)
(2.41772 -0.452826 0)
(2.42059 -0.452408 0)
(2.42087 -0.45043 0)
(2.42055 -0.447916 0)
(2.42317 -0.446794 0)
(2.42694 -0.4466 0)
(2.43083 -0.446864 0)
(2.43512 -0.447246 0)
(2.43935 -0.447635 0)
(2.4432 -0.448312 0)
(2.44742 -0.449052 0)
(2.45174 -0.450215 0)
(2.45499 -0.452794 0)
(2.45599 -0.455584 0)
(2.45396 -0.456432 0)
(2.45264 -0.454484 0)
(2.45418 -0.451606 0)
(2.45684 -0.449161 0)
(2.46055 -0.447918 0)
(2.46508 -0.447685 0)
(2.46906 -0.447428 0)
(2.47286 -0.447366 0)
(2.4765 -0.447207 0)
(2.47981 -0.447337 0)
(2.48335 -0.448489 0)
(2.59859 0.510473 0)
(2.60127 0.514273 0)
(2.58483 0.541462 0)
(2.48453 0.656665 0)
(2.35188 0.821463 0)
(2.26159 0.919123 0)
(2.21106 0.900767 0)
(2.20777 0.895019 0)
(2.19857 0.888394 0)
(2.18028 0.881556 0)
(2.17847 0.876723 0)
(2.18274 0.873326 0)
(2.19696 0.86863 0)
(2.21904 0.871583 0)
(2.23227 0.877915 0)
(2.2359 0.880285 0)
(2.23571 0.879956 0)
(2.2282 0.872198 0)
(2.21868 0.855027 0)
(2.21944 0.842951 0)
(2.22487 0.839682 0)
(2.23047 0.839609 0)
(2.23734 0.840001 0)
(2.24325 0.840188 0)
(2.24873 0.83968 0)
(2.25395 0.838382 0)
(2.2567 0.834356 0)
(2.25757 0.828436 0)
(2.26153 0.824581 0)
(2.26634 0.822265 0)
(2.27143 0.819317 0)
(2.27636 0.814866 0)
(2.27876 0.807715 0)
(2.27464 0.797205 0)
(2.27045 0.788046 0)
(2.27304 0.786341 0)
(2.27778 0.786764 0)
(2.28435 0.786512 0)
(2.29381 0.787359 0)
(2.30032 0.786787 0)
(2.30672 0.786052 0)
(2.31246 0.785108 0)
(2.31667 0.781656 0)
(2.31683 0.773536 0)
(2.31138 0.760854 0)
(2.30903 0.749931 0)
(2.31226 0.74684 0)
(2.31762 0.747422 0)
(2.32893 0.750042 0)
(2.34128 0.753943 0)
(2.34755 0.754291 0)
(2.35371 0.751773 0)
(2.35579 0.745007 0)
(2.35112 0.733976 0)
(2.33838 0.71636 0)
(2.32996 0.702801 0)
(2.33136 0.697847 0)
(2.33519 0.698369 0)
(2.34276 0.700267 0)
(2.35806 0.706844 0)
(2.3756 0.715019 0)
(2.38393 0.716858 0)
(2.38967 0.715143 0)
(2.3937 0.710118 0)
(2.39189 0.701063 0)
(2.38041 0.682795 0)
(2.36687 0.662246 0)
(2.36545 0.653016 0)
(2.36947 0.652975 0)
(2.37581 0.653743 0)
(2.38889 0.661529 0)
(2.40579 0.670391 0)
(2.41662 0.674882 0)
(2.41291 0.6554 0)
(2.365 0.556316 0)
(2.25219 0.35165 0)
(2.16379 0.166411 0)
(2.03421 0.0095066 0)
(1.99388 -0.0770702 0)
(1.98774 -0.0833069 0)
(2.00074 -0.0651672 0)
(2.03135 -0.0424463 0)
(2.05216 -0.0278677 0)
(2.05889 -0.0261314 0)
(2.06434 -0.0310431 0)
(2.06264 -0.0460877 0)
(2.05095 -0.069031 0)
(2.04072 -0.084354 0)
(2.04283 -0.0883087 0)
(2.04882 -0.0883487 0)
(2.05791 -0.0855403 0)
(2.07144 -0.0780976 0)
(2.0852 -0.0680414 0)
(2.09325 -0.0629981 0)
(2.09909 -0.0629092 0)
(2.10351 -0.0663146 0)
(2.10419 -0.0733317 0)
(2.10402 -0.0824611 0)
(2.10425 -0.0910748 0)
(2.10638 -0.0970388 0)
(2.11086 -0.0997206 0)
(2.11631 -0.0992071 0)
(2.12186 -0.0978006 0)
(2.12731 -0.0979251 0)
(2.13211 -0.0992624 0)
(2.13693 -0.101024 0)
(2.14282 -0.101965 0)
(2.14891 -0.102417 0)
(2.15491 -0.102621 0)
(2.16063 -0.102859 0)
(2.16538 -0.103833 0)
(2.16759 -0.107295 0)
(2.16423 -0.114294 0)
(2.16141 -0.119912 0)
(2.16674 -0.121083 0)
(2.17319 -0.120987 0)
(2.18165 -0.119447 0)
(2.19123 -0.116416 0)
(2.19722 -0.115802 0)
(2.20326 -0.116426 0)
(2.20681 -0.119336 0)
(2.20496 -0.126569 0)
(2.19954 -0.134593 0)
(2.19983 -0.13755 0)
(2.20495 -0.137152 0)
(2.21244 -0.136178 0)
(2.22557 -0.132123 0)
(2.23706 -0.127417 0)
(2.2423 -0.127281 0)
(2.24705 -0.129475 0)
(2.24647 -0.135849 0)
(2.23842 -0.147194 0)
(2.23296 -0.155275 0)
(2.23174 -0.158588 0)
(2.2255 -0.16942 0)
(2.19675 -0.215829 0)
(2.16156 -0.267395 0)
(2.11588 -0.31611 0)
(2.08395 -0.35105 0)
(2.07159 -0.373677 0)
(2.06623 -0.37832 0)
(2.06943 -0.37966 0)
(2.07377 -0.382526 0)
(2.07496 -0.384993 0)
(2.07875 -0.386029 0)
(2.08468 -0.38617 0)
(2.0925 -0.385522 0)
(2.103 -0.384398 0)
(2.11056 -0.383979 0)
(2.11702 -0.385122 0)
(2.12226 -0.386641 0)
(2.12461 -0.3898 0)
(2.12343 -0.394594 0)
(2.12446 -0.397581 0)
(2.12986 -0.398205 0)
(2.13566 -0.397729 0)
(2.14156 -0.397607 0)
(2.14718 -0.398429 0)
(2.15252 -0.399401 0)
(2.15715 -0.400723 0)
(2.16019 -0.402662 0)
(2.16144 -0.404653 0)
(2.16498 -0.405177 0)
(2.17042 -0.405324 0)
(2.17604 -0.405452 0)
(2.18189 -0.405378 0)
(2.18752 -0.405905 0)
(2.19306 -0.406808 0)
(2.19799 -0.408001 0)
(2.20153 -0.410257 0)
(2.20195 -0.414521 0)
(2.20054 -0.419087 0)
(2.20394 -0.42075 0)
(2.20903 -0.420197 0)
(2.21498 -0.41838 0)
(2.22185 -0.415983 0)
(2.22754 -0.414868 0)
(2.23307 -0.415183 0)
(2.23788 -0.41583 0)
(2.24089 -0.417847 0)
(2.24044 -0.422499 0)
(2.24037 -0.426657 0)
(2.24543 -0.427644 0)
(2.25089 -0.42655 0)
(2.25654 -0.424655 0)
(2.26187 -0.423431 0)
(2.26685 -0.422572 0)
(2.271 -0.422058 0)
(2.2734 -0.422555 0)
(2.27287 -0.424663 0)
(2.27251 -0.427374 0)
(2.27682 -0.428076 0)
(2.28189 -0.427868 0)
(2.28732 -0.426966 0)
(2.29258 -0.426096 0)
(2.29758 -0.426024 0)
(2.30239 -0.426319 0)
(2.30668 -0.427021 0)
(2.30982 -0.428698 0)
(2.31101 -0.431487 0)
(2.31107 -0.434233 0)
(2.31399 -0.434998 0)
(2.31835 -0.434751 0)
(2.32292 -0.43438 0)
(2.32738 -0.433889 0)
(2.33147 -0.433314 0)
(2.33501 -0.432803 0)
(2.33775 -0.43304 0)
(2.33907 -0.434618 0)
(2.33919 -0.437646 0)
(2.34273 -0.440371 0)
(2.34723 -0.441366 0)
(2.35165 -0.441895 0)
(2.35648 -0.441988 0)
(2.36138 -0.441607 0)
(2.36605 -0.441157 0)
(2.37054 -0.440802 0)
(2.37436 -0.440185 0)
(2.37629 -0.439229 0)
(2.37595 -0.438509 0)
(2.37564 -0.438079 0)
(2.37725 -0.437352 0)
(2.38022 -0.436494 0)
(2.38367 -0.435624 0)
(2.38706 -0.435031 0)
(2.3906 -0.435617 0)
(2.39446 -0.436846 0)
(2.39854 -0.437852 0)
(2.40262 -0.438589 0)
(2.40587 -0.440072 0)
(2.40855 -0.442621 0)
(2.41171 -0.445023 0)
(2.41554 -0.446787 0)
(2.41958 -0.447947 0)
(2.42312 -0.448309 0)
(2.42518 -0.447329 0)
(2.42575 -0.444445 0)
(2.42719 -0.441316 0)
(2.43027 -0.439399 0)
(2.43347 -0.438183 0)
(2.43675 -0.437661 0)
(2.44077 -0.438311 0)
(2.44516 -0.439474 0)
(2.44936 -0.44107 0)
(2.45333 -0.442442 0)
(2.45642 -0.44454 0)
(2.4565 -0.447848 0)
(2.45488 -0.450259 0)
(2.45573 -0.449962 0)
(2.45881 -0.448481 0)
(2.46225 -0.446055 0)
(2.46495 -0.442305 0)
(2.4669 -0.439046 0)
(2.46988 -0.438171 0)
(2.47372 -0.438497 0)
(2.47748 -0.438965 0)
(2.48102 -0.439106 0)
(2.4842 -0.439211 0)
(2.60184 0.518934 0)
(2.60722 0.519273 0)
(2.60778 0.526224 0)
(2.58633 0.560072 0)
(2.4777 0.69441 0)
(2.37223 0.828402 0)
(2.24904 0.878775 0)
(2.2138 0.875483 0)
(2.18261 0.884485 0)
(2.16569 0.887376 0)
(2.16932 0.883615 0)
(2.18721 0.877824 0)
(2.21437 0.877792 0)
(2.22932 0.882535 0)
(2.23396 0.88532 0)
(2.23435 0.886604 0)
(2.22652 0.881696 0)
(2.21386 0.865758 0)
(2.2126 0.851281 0)
(2.21894 0.84664 0)
(2.22545 0.846284 0)
(2.23419 0.848082 0)
(2.24041 0.84885 0)
(2.24516 0.848022 0)
(2.25024 0.845657 0)
(2.2531 0.840605 0)
(2.25289 0.834049 0)
(2.25574 0.829421 0)
(2.26084 0.827621 0)
(2.26588 0.825449 0)
(2.27108 0.821792 0)
(2.27483 0.815766 0)
(2.27358 0.806392 0)
(2.2687 0.796363 0)
(2.26965 0.792711 0)
(2.27396 0.793563 0)
(2.28007 0.793423 0)
(2.28938 0.794383 0)
(2.297 0.795147 0)
(2.30254 0.794773 0)
(2.30851 0.793679 0)
(2.31212 0.790127 0)
(2.31168 0.782318 0)
(2.3067 0.77027 0)
(2.3047 0.759712 0)
(2.30788 0.755867 0)
(2.31292 0.756025 0)
(2.3244 0.757986 0)
(2.33715 0.7615 0)
(2.34341 0.761769 0)
(2.3497 0.759139 0)
(2.35184 0.752045 0)
(2.34741 0.740678 0)
(2.3353 0.722942 0)
(2.32716 0.709902 0)
(2.32807 0.705164 0)
(2.3314 0.705699 0)
(2.33888 0.708255 0)
(2.35384 0.715152 0)
(2.37043 0.723342 0)
(2.37797 0.724566 0)
(2.38391 0.722487 0)
(2.38766 0.717022 0)
(2.38624 0.708068 0)
(2.37611 0.691417 0)
(2.3638 0.671657 0)
(2.36234 0.662312 0)
(2.3661 0.660898 0)
(2.37212 0.662941 0)
(2.38485 0.66645 0)
(2.40033 0.680007 0)
(2.40578 0.672255 0)
(2.38248 0.617171 0)
(2.2844 0.428011 0)
(2.18404 0.233504 0)
(2.08525 0.0716603 0)
(2.00143 -0.0298475 0)
(1.98433 -0.0754302 0)
(1.98226 -0.0690648 0)
(1.99917 -0.0516181 0)
(2.0305 -0.0303811 0)
(2.05033 -0.019674 0)
(2.05793 -0.0201031 0)
(2.06254 -0.0265279 0)
(2.05865 -0.039998 0)
(2.04664 -0.0621961 0)
(2.03873 -0.0785478 0)
(2.04258 -0.0838076 0)
(2.04866 -0.0830871 0)
(2.05859 -0.0777901 0)
(2.07328 -0.0670626 0)
(2.08715 -0.05742 0)
(2.09377 -0.0546871 0)
(2.09981 -0.0555809 0)
(2.10222 -0.0600999 0)
(2.10121 -0.0682272 0)
(2.10035 -0.078014 0)
(2.10162 -0.0852486 0)
(2.10527 -0.0895508 0)
(2.11049 -0.0904146 0)
(2.1159 -0.0891056 0)
(2.12116 -0.0879414 0)
(2.12603 -0.088213 0)
(2.12891 -0.0902813 0)
(2.13266 -0.0932854 0)
(2.13891 -0.0944716 0)
(2.14545 -0.0947598 0)
(2.15244 -0.0945283 0)
(2.15851 -0.0945343 0)
(2.16405 -0.0949846 0)
(2.16705 -0.0978081 0)
(2.16385 -0.105553 0)
(2.15963 -0.114215 0)
(2.1637 -0.116955 0)
(2.16989 -0.116476 0)
(2.1781 -0.114246 0)
(2.18936 -0.109882 0)
(2.19586 -0.10796 0)
(2.20224 -0.108265 0)
(2.20637 -0.11029 0)
(2.2037 -0.117203 0)
(2.19796 -0.128176 0)
(2.19914 -0.134803 0)
(2.20441 -0.135242 0)
(2.21114 -0.132855 0)
(2.22342 -0.126704 0)
(2.23602 -0.119734 0)
(2.24169 -0.118717 0)
(2.24728 -0.120394 0)
(2.24779 -0.125584 0)
(2.23925 -0.13682 0)
(2.233 -0.150649 0)
(2.23093 -0.156659 0)
(2.22187 -0.167814 0)
(2.19391 -0.210867 0)
(2.16121 -0.260749 0)
(2.10664 -0.316426 0)
(2.0824 -0.341591 0)
(2.07435 -0.358213 0)
(2.06942 -0.367488 0)
(2.0698 -0.371962 0)
(2.07181 -0.375711 0)
(2.07254 -0.37924 0)
(2.07615 -0.381283 0)
(2.08243 -0.381505 0)
(2.08978 -0.380568 0)
(2.10025 -0.37889 0)
(2.10972 -0.376927 0)
(2.11574 -0.37753 0)
(2.1214 -0.378927 0)
(2.12417 -0.382039 0)
(2.12313 -0.387986 0)
(2.12335 -0.39223 0)
(2.12858 -0.392795 0)
(2.13432 -0.391845 0)
(2.14043 -0.390608 0)
(2.14599 -0.390596 0)
(2.15134 -0.391223 0)
(2.15611 -0.39253 0)
(2.15982 -0.394737 0)
(2.16232 -0.397228 0)
(2.16508 -0.398417 0)
(2.16953 -0.39831 0)
(2.17477 -0.398214 0)
(2.18026 -0.398403 0)
(2.18579 -0.398928 0)
(2.19113 -0.399689 0)
(2.19604 -0.400778 0)
(2.19996 -0.402662 0)
(2.20135 -0.406192 0)
(2.20019 -0.410778 0)
(2.20269 -0.412881 0)
(2.2077 -0.412563 0)
(2.21344 -0.41104 0)
(2.22017 -0.409108 0)
(2.226 -0.408094 0)
(2.23158 -0.408425 0)
(2.23654 -0.409011 0)
(2.23979 -0.410782 0)
(2.23983 -0.41474 0)
(2.23862 -0.418549 0)
(2.24263 -0.419448 0)
(2.24802 -0.418951 0)
(2.25422 -0.417561 0)
(2.26008 -0.416431 0)
(2.2655 -0.415972 0)
(2.27036 -0.415648 0)
(2.27374 -0.415868 0)
(2.27419 -0.417674 0)
(2.2723 -0.420767 0)
(2.27482 -0.421752 0)
(2.27988 -0.421368 0)
(2.28522 -0.420694 0)
(2.29078 -0.419629 0)
(2.29594 -0.419226 0)
(2.30098 -0.419336 0)
(2.3055 -0.419724 0)
(2.30898 -0.420741 0)
(2.31024 -0.423018 0)
(2.30981 -0.426455 0)
(2.31299 -0.428291 0)
(2.31752 -0.428367 0)
(2.32205 -0.428215 0)
(2.32664 -0.42788 0)
(2.33105 -0.427349 0)
(2.33494 -0.426688 0)
(2.33783 -0.426141 0)
(2.33893 -0.426375 0)
(2.33821 -0.428326 0)
(2.33955 -0.430556 0)
(2.3437 -0.431036 0)
(2.34816 -0.431462 0)
(2.35278 -0.432109 0)
(2.35796 -0.432628 0)
(2.36351 -0.432966 0)
(2.3683 -0.433796 0)
(2.37308 -0.434963 0)
(2.37707 -0.436441 0)
(2.37876 -0.437849 0)
(2.37885 -0.438026 0)
(2.38015 -0.436598 0)
(2.38258 -0.434283 0)
(2.38494 -0.431747 0)
(2.38727 -0.429499 0)
(2.39008 -0.427829 0)
(2.39294 -0.426776 0)
(2.39535 -0.426884 0)
(2.39731 -0.428389 0)
(2.39949 -0.430379 0)
(2.40221 -0.43234 0)
(2.4063 -0.434283 0)
(2.411 -0.436056 0)
(2.4156 -0.437774 0)
(2.42006 -0.439478 0)
(2.42431 -0.440744 0)
(2.4281 -0.44093 0)
(2.43093 -0.439293 0)
(2.43237 -0.435991 0)
(2.43386 -0.433103 0)
(2.43688 -0.431937 0)
(2.44046 -0.431373 0)
(2.444 -0.430839 0)
(2.44716 -0.430803 0)
(2.44978 -0.432107 0)
(2.45152 -0.434885 0)
(2.45225 -0.437818 0)
(2.4526 -0.440287 0)
(2.4545 -0.442183 0)
(2.45809 -0.442752 0)
(2.46207 -0.442359 0)
(2.46605 -0.441175 0)
(2.46965 -0.438938 0)
(2.47227 -0.435592 0)
(2.47347 -0.431941 0)
(2.47489 -0.430105 0)
(2.47821 -0.430248 0)
(2.48215 -0.430839 0)
(2.48595 -0.431606 0)
(2.60407 0.527988 0)
(2.60891 0.527266 0)
(2.61495 0.524383 0)
(2.60974 0.529907 0)
(2.581 0.562863 0)
(2.48475 0.678117 0)
(2.38324 0.768787 0)
(2.22058 0.83226 0)
(2.16535 0.894826 0)
(2.15561 0.899356 0)
(2.16976 0.891498 0)
(2.20867 0.889246 0)
(2.22885 0.888249 0)
(2.23567 0.889511 0)
(2.23471 0.892662 0)
(2.22472 0.890265 0)
(2.21062 0.875324 0)
(2.20677 0.857866 0)
(2.2131 0.85057 0)
(2.22024 0.850113 0)
(2.22966 0.853522 0)
(2.23623 0.856905 0)
(2.24061 0.857012 0)
(2.2454 0.85437 0)
(2.24902 0.847688 0)
(2.24919 0.839676 0)
(2.24977 0.833675 0)
(2.25493 0.832019 0)
(2.26005 0.830733 0)
(2.26542 0.828 0)
(2.27017 0.823143 0)
(2.27166 0.81508 0)
(2.268 0.805163 0)
(2.26706 0.799631 0)
(2.27067 0.800491 0)
(2.27593 0.80082 0)
(2.28466 0.801976 0)
(2.29383 0.803123 0)
(2.299 0.803168 0)
(2.30507 0.801741 0)
(2.3081 0.797635 0)
(2.30699 0.789914 0)
(2.30196 0.778648 0)
(2.30035 0.769041 0)
(2.30342 0.765086 0)
(2.30806 0.765 0)
(2.31918 0.766716 0)
(2.33252 0.769704 0)
(2.33882 0.769614 0)
(2.34506 0.766543 0)
(2.34746 0.759191 0)
(2.34342 0.747464 0)
(2.33206 0.7295 0)
(2.32485 0.716775 0)
(2.32565 0.712363 0)
(2.32881 0.713225 0)
(2.33623 0.71628 0)
(2.35064 0.72385 0)
(2.3659 0.73131 0)
(2.37241 0.732351 0)
(2.37833 0.729877 0)
(2.38147 0.723743 0)
(2.37979 0.714718 0)
(2.37078 0.698384 0)
(2.35999 0.680845 0)
(2.35919 0.671394 0)
(2.36327 0.670294 0)
(2.36894 0.67055 0)
(2.37989 0.678299 0)
(2.3916 0.682336 0)
(2.38528 0.651028 0)
(2.32432 0.526548 0)
(2.19094 0.284869 0)
(2.11856 0.127113 0)
(2.03364 0.0223665 0)
(1.99716 -0.0424592 0)
(1.9841 -0.06207 0)
(1.98624 -0.0561438 0)
(2.00176 -0.0421978 0)
(2.02941 -0.0208226 0)
(2.04676 -0.0112947 0)
(2.05454 -0.0127756 0)
(2.05995 -0.0207676 0)
(2.05626 -0.0351486 0)
(2.04362 -0.0561481 0)
(2.03598 -0.0689312 0)
(2.03992 -0.0722192 0)
(2.0462 -0.0707714 0)
(2.05816 -0.0655552 0)
(2.07429 -0.0552973 0)
(2.08723 -0.0480132 0)
(2.09317 -0.0470637 0)
(2.099 -0.0493139 0)
(2.10031 -0.0551209 0)
(2.09823 -0.0640593 0)
(2.09655 -0.0730699 0)
(2.09886 -0.0785344 0)
(2.10409 -0.0808159 0)
(2.10967 -0.0804281 0)
(2.11563 -0.0785947 0)
(2.12092 -0.0779973 0)
(2.12547 -0.079143 0)
(2.12728 -0.0839156 0)
(2.13017 -0.0881589 0)
(2.13614 -0.0890352 0)
(2.14269 -0.0883504 0)
(2.15056 -0.0867495 0)
(2.15685 -0.0861022 0)
(2.16267 -0.0865302 0)
(2.16626 -0.089284 0)
(2.16352 -0.0968661 0)
(2.15783 -0.105847 0)
(2.16002 -0.109233 0)
(2.16589 -0.10877 0)
(2.17429 -0.107039 0)
(2.18672 -0.102339 0)
(2.1947 -0.0993434 0)
(2.20061 -0.0998913 0)
(2.20496 -0.102866 0)
(2.20346 -0.110126 0)
(2.19707 -0.119577 0)
(2.1954 -0.124082 0)
(2.20041 -0.123831 0)
(2.20719 -0.122552 0)
(2.22039 -0.118207 0)
(2.23462 -0.111296 0)
(2.24091 -0.109656 0)
(2.24639 -0.111225 0)
(2.24784 -0.116668 0)
(2.24126 -0.127822 0)
(2.23239 -0.138237 0)
(2.22886 -0.145192 0)
(2.2199 -0.156006 0)
(2.18738 -0.204848 0)
(2.15396 -0.260355 0)
(2.11441 -0.304202 0)
(2.07988 -0.332318 0)
(2.07072 -0.35197 0)
(2.06632 -0.359695 0)
(2.06837 -0.363406 0)
(2.07198 -0.367663 0)
(2.07309 -0.372172 0)
(2.07427 -0.374758 0)
(2.07995 -0.374784 0)
(2.0869 -0.373727 0)
(2.09705 -0.372041 0)
(2.10811 -0.36966 0)
(2.11435 -0.369677 0)
(2.12042 -0.371242 0)
(2.12371 -0.374143 0)
(2.12276 -0.379955 0)
(2.12188 -0.38456 0)
(2.1268 -0.385434 0)
(2.13259 -0.38447 0)
(2.13883 -0.383604 0)
(2.14474 -0.384191 0)
(2.15044 -0.385228 0)
(2.1555 -0.386479 0)
(2.15975 -0.387915 0)
(2.16305 -0.38925 0)
(2.16585 -0.390058 0)
(2.16924 -0.390393 0)
(2.17357 -0.39085 0)
(2.17857 -0.391525 0)
(2.18386 -0.39229 0)
(2.18917 -0.393076 0)
(2.19418 -0.394003 0)
(2.19839 -0.395465 0)
(2.20061 -0.398157 0)
(2.20004 -0.402357 0)
(2.20173 -0.405109 0)
(2.20659 -0.40517 0)
(2.21198 -0.403912 0)
(2.21847 -0.402165 0)
(2.22433 -0.401145 0)
(2.2299 -0.401593 0)
(2.23502 -0.402258 0)
(2.2388 -0.403588 0)
(2.23952 -0.406731 0)
(2.23767 -0.411274 0)
(2.24066 -0.413227 0)
(2.24589 -0.413047 0)
(2.25185 -0.411698 0)
(2.25808 -0.410221 0)
(2.26373 -0.409641 0)
(2.26905 -0.409438 0)
(2.27334 -0.409551 0)
(2.27509 -0.410896 0)
(2.27303 -0.413845 0)
(2.27347 -0.415835 0)
(2.27828 -0.415501 0)
(2.28346 -0.414511 0)
(2.28898 -0.41286 0)
(2.29413 -0.411836 0)
(2.29918 -0.411653 0)
(2.30389 -0.411772 0)
(2.30773 -0.412567 0)
(2.30974 -0.4149 0)
(2.30909 -0.418786 0)
(2.31113 -0.421525 0)
(2.31586 -0.421735 0)
(2.32041 -0.421051 0)
(2.32507 -0.420523 0)
(2.32964 -0.420345 0)
(2.33411 -0.420233 0)
(2.3381 -0.420176 0)
(2.34062 -0.420542 0)
(2.34038 -0.421735 0)
(2.33913 -0.423179 0)
(2.34169 -0.423236 0)
(2.34603 -0.422949 0)
(2.35085 -0.422916 0)
(2.35579 -0.423179 0)
(2.36092 -0.423606 0)
(2.36576 -0.424252 0)
(2.37029 -0.425268 0)
(2.37468 -0.427028 0)
(2.37818 -0.429378 0)
(2.37934 -0.432058 0)
(2.38031 -0.433208 0)
(2.38361 -0.432376 0)
(2.3875 -0.430691 0)
(2.39079 -0.428014 0)
(2.39254 -0.424328 0)
(2.3933 -0.421014 0)
(2.395 -0.41947 0)
(2.39765 -0.419167 0)
(2.39984 -0.420234 0)
(2.40128 -0.422764 0)
(2.40324 -0.4247 0)
(2.40668 -0.426132 0)
(2.41092 -0.427367 0)
(2.41542 -0.428489 0)
(2.42006 -0.429508 0)
(2.42479 -0.430455 0)
(2.42934 -0.431161 0)
(2.43359 -0.431372 0)
(2.43685 -0.430137 0)
(2.43821 -0.427513 0)
(2.43955 -0.425224 0)
(2.44224 -0.42434 0)
(2.44562 -0.424239 0)
(2.44894 -0.424499 0)
(2.45151 -0.425192 0)
(2.45276 -0.426637 0)
(2.45253 -0.429531 0)
(2.45224 -0.432179 0)
(2.45582 -0.433376 0)
(2.46024 -0.433912 0)
(2.46462 -0.433953 0)
(2.46895 -0.433689 0)
(2.47305 -0.432943 0)
(2.47659 -0.431307 0)
(2.47911 -0.428481 0)
(2.48055 -0.424933 0)
(2.48149 -0.422542 0)
(2.48253 -0.422461 0)
(2.48436 -0.423985 0)
(2.60318 0.53336 0)
(2.60858 0.531031 0)
(2.61352 0.526978 0)
(2.61386 0.519411 0)
(2.59858 0.521123 0)
(2.5727 0.546291 0)
(2.49253 0.627043 0)
(2.33461 0.73476 0)
(2.18903 0.872955 0)
(2.1679 0.911778 0)
(2.19127 0.899442 0)
(2.22481 0.889756 0)
(2.23232 0.888192 0)
(2.2359 0.891993 0)
(2.22729 0.896204 0)
(2.20747 0.888556 0)
(2.19905 0.870743 0)
(2.20541 0.859086 0)
(2.21495 0.853869 0)
(2.22737 0.855441 0)
(2.23438 0.86097 0)
(2.23774 0.864214 0)
(2.24159 0.864208 0)
(2.24471 0.857397 0)
(2.24557 0.847266 0)
(2.24485 0.83962 0)
(2.24865 0.836547 0)
(2.25376 0.835623 0)
(2.25888 0.833605 0)
(2.26409 0.829595 0)
(2.26753 0.822663 0)
(2.26669 0.813654 0)
(2.26514 0.806876 0)
(2.26826 0.807209 0)
(2.27263 0.808209 0)
(2.28032 0.809776 0)
(2.29002 0.811491 0)
(2.29545 0.811407 0)
(2.3015 0.809526 0)
(2.30417 0.804342 0)
(2.30255 0.796459 0)
(2.29759 0.785683 0)
(2.29625 0.777013 0)
(2.29925 0.773568 0)
(2.30363 0.773669 0)
(2.31402 0.775449 0)
(2.32731 0.778368 0)
(2.33375 0.77812 0)
(2.33985 0.774669 0)
(2.34256 0.766837 0)
(2.33866 0.754703 0)
(2.3284 0.736523 0)
(2.32225 0.723823 0)
(2.32346 0.719395 0)
(2.32663 0.720402 0)
(2.33451 0.724424 0)
(2.3486 0.732418 0)
(2.36195 0.739326 0)
(2.36757 0.739634 0)
(2.37311 0.736874 0)
(2.37547 0.730419 0)
(2.37343 0.721201 0)
(2.36488 0.705619 0)
(2.35582 0.689884 0)
(2.35543 0.680897 0)
(2.36056 0.679473 0)
(2.36511 0.680799 0)
(2.37412 0.687365 0)
(2.37798 0.673177 0)
(2.3451 0.596897 0)
(2.22629 0.3745 0)
(2.12608 0.183736 0)
(2.06401 0.068116 0)
(2.01624 -0.000830412 0)
(1.98972 -0.0422023 0)
(1.98403 -0.0489515 0)
(1.99042 -0.0439265 0)
(2.00519 -0.0318745 0)
(2.02825 -0.0130062 0)
(2.04365 -0.00572559 0)
(2.05132 -0.00743139 0)
(2.05637 -0.0144799 0)
(2.0532 -0.0285997 0)
(2.04108 -0.0497109 0)
(2.03449 -0.062307 0)
(2.03905 -0.0651442 0)
(2.04547 -0.0630511 0)
(2.05791 -0.056242 0)
(2.07438 -0.0455082 0)
(2.086 -0.0397582 0)
(2.09198 -0.0395782 0)
(2.09729 -0.0425733 0)
(2.09748 -0.049322 0)
(2.09442 -0.0596786 0)
(2.09297 -0.0683782 0)
(2.09658 -0.0724993 0)
(2.10255 -0.0729862 0)
(2.10874 -0.0712646 0)
(2.11517 -0.0690954 0)
(2.12064 -0.0688281 0)
(2.12471 -0.0705301 0)
(2.12485 -0.0754988 0)
(2.12614 -0.0793809 0)
(2.13212 -0.0802535 0)
(2.13905 -0.0797278 0)
(2.14847 -0.0779323 0)
(2.15516 -0.0770076 0)
(2.1614 -0.0776044 0)
(2.16544 -0.0802809 0)
(2.16294 -0.0879083 0)
(2.15675 -0.0985395 0)
(2.15796 -0.103664 0)
(2.16359 -0.103441 0)
(2.17135 -0.101135 0)
(2.18399 -0.0956749 0)
(2.19368 -0.0914546 0)
(2.19947 -0.0915639 0)
(2.20434 -0.0938179 0)
(2.2023 -0.100718 0)
(2.19533 -0.11281 0)
(2.19457 -0.120886 0)
(2.19985 -0.122065 0)
(2.20612 -0.11968 0)
(2.21826 -0.113237 0)
(2.23291 -0.104153 0)
(2.24017 -0.101424 0)
(2.24611 -0.102477 0)
(2.24854 -0.106636 0)
(2.24136 -0.116481 0)
(2.23239 -0.133079 0)
(2.22788 -0.144643 0)
(2.21778 -0.155521 0)
(2.18386 -0.200777 0)
(2.1453 -0.262445 0)
(2.11405 -0.298543 0)
(2.08186 -0.322374 0)
(2.07038 -0.341912 0)
(2.06362 -0.353616 0)
(2.06484 -0.35769 0)
(2.06955 -0.361204 0)
(2.07294 -0.364808 0)
(2.07425 -0.367237 0)
(2.0789 -0.367467 0)
(2.08503 -0.366908 0)
(2.09383 -0.365468 0)
(2.10552 -0.362953 0)
(2.11262 -0.362286 0)
(2.11908 -0.363821 0)
(2.12322 -0.36633 0)
(2.12282 -0.371406 0)
(2.12075 -0.376752 0)
(2.12495 -0.378451 0)
(2.1308 -0.378159 0)
(2.13712 -0.377495 0)
(2.14315 -0.377608 0)
(2.14885 -0.377863 0)
(2.15399 -0.378297 0)
(2.15856 -0.379267 0)
(2.16264 -0.380659 0)
(2.16631 -0.382038 0)
(2.1697 -0.383139 0)
(2.17318 -0.384058 0)
(2.17726 -0.38493 0)
(2.18203 -0.385768 0)
(2.18715 -0.386609 0)
(2.19227 -0.387536 0)
(2.19693 -0.388769 0)
(2.20012 -0.390735 0)
(2.20037 -0.393987 0)
(2.20089 -0.396941 0)
(2.20545 -0.397108 0)
(2.21057 -0.396328 0)
(2.21663 -0.394987 0)
(2.22255 -0.393932 0)
(2.22806 -0.394335 0)
(2.23332 -0.394988 0)
(2.23746 -0.396271 0)
(2.23914 -0.399106 0)
(2.2374 -0.403409 0)
(2.2386 -0.405587 0)
(2.24359 -0.405481 0)
(2.2492 -0.404316 0)
(2.25562 -0.402725 0)
(2.26134 -0.402108 0)
(2.26696 -0.402312 0)
(2.27193 -0.402705 0)
(2.27497 -0.404017 0)
(2.27429 -0.406915 0)
(2.27282 -0.409704 0)
(2.27685 -0.409651 0)
(2.28196 -0.40873 0)
(2.28754 -0.406971 0)
(2.29283 -0.405393 0)
(2.29788 -0.404796 0)
(2.30265 -0.404545 0)
(2.30667 -0.404862 0)
(2.30932 -0.406509 0)
(2.30905 -0.410203 0)
(2.30919 -0.413736 0)
(2.31364 -0.414563 0)
(2.31838 -0.414529 0)
(2.32349 -0.413974 0)
(2.32831 -0.413539 0)
(2.3329 -0.413493 0)
(2.33724 -0.413715 0)
(2.34083 -0.414378 0)
(2.34228 -0.415995 0)
(2.3411 -0.417923 0)
(2.34167 -0.418022 0)
(2.34516 -0.417159 0)
(2.3497 -0.41636 0)
(2.3543 -0.415553 0)
(2.35867 -0.414734 0)
(2.36295 -0.414622 0)
(2.36726 -0.415386 0)
(2.3714 -0.416512 0)
(2.375 -0.418356 0)
(2.37646 -0.421714 0)
(2.37774 -0.424265 0)
(2.3819 -0.425303 0)
(2.38628 -0.425534 0)
(2.39064 -0.425323 0)
(2.39482 -0.424262 0)
(2.39809 -0.421762 0)
(2.39927 -0.417836 0)
(2.39795 -0.414401 0)
(2.39652 -0.413665 0)
(2.3973 -0.4143 0)
(2.40048 -0.415335 0)
(2.40513 -0.416758 0)
(2.40958 -0.417939 0)
(2.41395 -0.419086 0)
(2.41833 -0.420175 0)
(2.4228 -0.42094 0)
(2.42744 -0.421403 0)
(2.43177 -0.422026 0)
(2.43581 -0.422905 0)
(2.43945 -0.42375 0)
(2.44168 -0.42365 0)
(2.44341 -0.422503 0)
(2.4457 -0.420929 0)
(2.44794 -0.419246 0)
(2.44944 -0.418005 0)
(2.45012 -0.418074 0)
(2.44998 -0.419692 0)
(2.45015 -0.42238 0)
(2.45379 -0.42479 0)
(2.45794 -0.425423 0)
(2.46198 -0.425288 0)
(2.46648 -0.424883 0)
(2.47097 -0.424473 0)
(2.47528 -0.423963 0)
(2.47952 -0.423141 0)
(2.48341 -0.421748 0)
(2.48574 -0.419715 0)
(2.4859 -0.417929 0)
(2.48534 -0.417652 0)
(2.48516 -0.418444 0)
(2.60311 0.536464 0)
(2.60677 0.534015 0)
(2.60933 0.528763 0)
(2.60652 0.518931 0)
(2.59728 0.511573 0)
(2.59375 0.512934 0)
(2.56942 0.535727 0)
(2.46074 0.628818 0)
(2.28107 0.808535 0)
(2.21983 0.910721 0)
(2.22087 0.899662 0)
(2.23094 0.890237 0)
(2.23324 0.890939 0)
(2.22952 0.898185 0)
(2.21112 0.897953 0)
(2.194 0.881307 0)
(2.19807 0.867753 0)
(2.20739 0.861099 0)
(2.22168 0.860148 0)
(2.233 0.865482 0)
(2.23651 0.869146 0)
(2.23911 0.872954 0)
(2.24145 0.868972 0)
(2.24154 0.857058 0)
(2.24048 0.846957 0)
(2.24226 0.842432 0)
(2.24683 0.841302 0)
(2.25165 0.839449 0)
(2.25672 0.835721 0)
(2.26125 0.829507 0)
(2.26321 0.821522 0)
(2.26304 0.814447 0)
(2.26591 0.813974 0)
(2.26988 0.815427 0)
(2.27713 0.817497 0)
(2.28631 0.81961 0)
(2.29183 0.819456 0)
(2.29769 0.816652 0)
(2.29984 0.810455 0)
(2.29785 0.802312 0)
(2.29316 0.791615 0)
(2.29232 0.783917 0)
(2.29536 0.781113 0)
(2.2998 0.78138 0)
(2.3096 0.783482 0)
(2.32236 0.786722 0)
(2.32872 0.786701 0)
(2.3347 0.783125 0)
(2.3371 0.775137 0)
(2.33296 0.762269 0)
(2.32375 0.744248 0)
(2.31928 0.731886 0)
(2.3209 0.72742 0)
(2.32403 0.728185 0)
(2.33271 0.732388 0)
(2.3469 0.740902 0)
(2.35842 0.74694 0)
(2.36341 0.746954 0)
(2.36816 0.743069 0)
(2.3698 0.736227 0)
(2.36747 0.726811 0)
(2.35973 0.713017 0)
(2.35239 0.698834 0)
(2.35277 0.691158 0)
(2.35668 0.689023 0)
(2.36038 0.692443 0)
(2.36633 0.689319 0)
(2.34701 0.63415 0)
(2.27223 0.484727 0)