/*--------------------------------*- C++ -*----------------------------------*\
  =========                 |
  \\      /  F ield         | OpenFOAM: The Open Source CFD Toolbox
   \\    /   O peration     | Website:  https://openfoam.org
    \\  /    A nd           | Version:  7
     \\/     M anipulation  |
\*---------------------------------------------------------------------------*/
FoamFile
{
    version     2.0;
    format      ascii;
    class       volScalarField;
    location    "3.4";
    object      rho;
}
// * * * * * * * * * * * * * * * * * * * * * * * * * * * * * * * * * * * * * //

dimensions      [1 -3 0 0 0 0 0];

internalField   nonuniform List<scalar> 
16512
(
2.07477
2.07073
2.06791
2.06547
2.0637
2.06297
2.06282
2.06088
2.05756
2.05349
2.04695
2.03655
2.02664
2.01963
2.01445
2.01112
2.009
2.00739
2.0053
2.00257
1.99884
1.99256
1.98493
1.97938
1.97474
1.96995
1.96535
1.96172
1.95894
1.95662
1.95449
1.95209
1.94907
1.94451
1.93804
1.92999
1.92205
1.91736
1.91501
1.91352
1.91259
1.91234
1.91248
1.9126
1.91324
1.91647
1.92547
1.94396
1.97291
2.01435
2.06809
2.12556
2.18463
2.24482
2.28888
2.3152
2.33166
2.34581
2.35198
2.35683
2.36709
2.38712
2.41565
2.44651
2.49615
2.57728
2.6848
2.79397
2.88504
2.97502
3.05326
3.13076
3.16961
3.18169
3.18077
3.16227
3.14235
3.13881
3.14237
3.14849
3.14688
3.14263
3.13643
3.12365
3.10952
3.10449
3.10564
3.11433
3.13427
3.16048
3.17391
3.17605
3.17472
3.16929
3.15837
3.1426
3.12401
3.10547
3.09299
3.08784
3.08483
3.08225
3.0799
3.0776
3.07656
3.08063
3.09224
3.10098
3.10143
3.10051
3.10019
3.10045
3.09966
3.09707
3.0919
3.08533
3.07504
3.06137
3.04941
3.04229
3.03991
3.04185
3.0508
3.06139
3.06958
3.07336
3.07256
3.06936
3.06467
3.05659
3.03818
3.01208
2.99534
2.99179
2.9924
2.99881
3.00866
3.01872
3.02647
3.02788
3.02544
3.01864
3.00591
2.98464
2.96634
2.96115
2.96167
2.97224
2.98799
2.99283
2.99128
2.98783
2.98119
2.96928
2.95597
2.94627
2.9397
2.93472
2.93299
2.93673
2.94383
2.94641
2.94622
2.94222
2.93302
2.92372
2.91822
2.91499
2.91447
2.91964
2.92728
2.9312
2.93337
2.93301
2.93051
2.92456
2.91407
2.90132
2.89011
2.88376
2.88196
2.88294
2.8851
2.88548
2.88409
2.88041
2.87372
2.86537
2.86157
2.86021
2.85974
2.86238
2.86764
2.86937
2.86631
2.85984
2.84942
2.83396
2.81706
2.80676
2.80226
2.8001
2.79964
2.80595
2.81811
2.82604
2.82901
2.82888
2.82595
2.81614
2.79984
2.7888
2.78475
2.78289
2.78415
2.79084
2.79406
2.79239
2.78957
2.78307
2.77196
2.7579
2.7462
2.73783
2.73126
2.72759
2.72625
2.72765
2.7345
2.74403
2.74553
2.74222
2.73683
2.73389
2.73292
2.73341
2.73361
2.73294
2.7311
2.72432
2.70986
2.6954
2.68735
2.68189
2.67663
2.67272
2.67069
2.66956
2.66915
2.67052
2.67413
2.67522
2.67398
2.67136
2.66806
2.66418
2.66144
2.65836
2.08447
2.08032
2.07724
2.07463
2.07281
2.07181
2.07056
2.06805
2.06486
2.06112
2.05601
2.04891
2.04236
2.03719
2.03176
2.02638
2.021
2.01574
2.0117
2.00854
2.00474
1.99967
1.99515
1.99213
1.98912
1.98541
1.98037
1.97395
1.96811
1.96431
1.96161
1.95954
1.9576
1.95504
1.9515
1.94652
1.94078
1.93484
1.92875
1.92246
1.91656
1.91321
1.91111
1.90885
1.90793
1.90891
1.90725
1.90331
1.89992
1.89991
1.90611
1.92263
1.95097
1.99303
2.04787
2.11068
2.17678
2.23226
2.27599
2.30251
2.31672
2.32796
2.33917
2.36165
2.38498
2.39853
2.42255
2.47685
2.56858
2.68891
2.80732
2.91787
3.01999
3.11061
3.15226
3.17029
3.16692
3.14153
3.13252
3.13283
3.13586
3.1394
3.13843
3.13216
3.12459
3.11537
3.10839
3.1085
3.11139
3.12466
3.1504
3.17016
3.17466
3.17482
3.17241
3.16331
3.14674
3.12434
3.10206
3.08811
3.08306
3.08056
3.07873
3.07868
3.08379
3.09602
3.10258
3.10026
3.0961
3.09203
3.08691
3.08251
3.08042
3.08015
3.08064
3.07962
3.07724
3.07335
3.06732
3.06023
3.05486
3.05464
3.05762
3.05726
3.0555
3.05527
3.05736
3.05822
3.05612
3.05203
3.04602
3.03536
3.01862
3.00301
2.99848
2.99856
3.00079
3.00262
3.00536
3.00952
3.01025
3.00784
3.0031
2.9953
2.98455
2.97682
2.97703
2.98462
2.99012
2.98906
2.98562
2.97866
2.96773
2.9577
2.95136
2.94882
2.94781
2.94982
2.95287
2.95306
2.95002
2.94574
2.9408
2.93596
2.931
2.9282
2.92651
2.92604
2.92794
2.92883
2.92687
2.92485
2.92304
2.92134
2.91896
2.91574
2.91174
2.90843
2.90405
2.89919
2.89373
2.88821
2.88318
2.87792
2.87107
2.8633
2.85788
2.85604
2.85693
2.86169
2.87015
2.87891
2.8819
2.8801
2.87435
2.86324
2.84734
2.82895
2.81623
2.80944
2.80557
2.80328
2.80381
2.8101
2.81536
2.81671
2.81758
2.81784
2.81555
2.80861
2.79894
2.79407
2.79244
2.79348
2.79854
2.7995
2.7963
2.79166
2.78393
2.77426
2.7624
2.75143
2.74315
2.73857
2.7372
2.73814
2.74314
2.75195
2.75802
2.75625
2.7503
2.74064
2.73183
2.72801
2.72689
2.72676
2.72979
2.73241
2.73136
2.72645
2.71617
2.70168
2.69039
2.68353
2.67885
2.67604
2.67385
2.67165
2.67038
2.66992
2.66899
2.66828
2.66809
2.66852
2.66686
2.66623
2.66801
2.67123
2.09713
2.09178
2.08789
2.08479
2.08236
2.08061
2.07778
2.07481
2.07155
2.06768
2.06306
2.05872
2.05555
2.0529
2.05004
2.04565
2.03853
2.0284
2.0185
2.01254
2.00784
2.00476
2.00258
2.00092
1.99961
1.99752
1.99451
1.99024
1.98398
1.97661
1.97084
1.96716
1.96443
1.96195
1.95932
1.95621
1.95222
1.94775
1.94338
1.93882
1.93343
1.92677
1.91982
1.91436
1.91084
1.90818
1.90646
1.90489
1.90295
1.90008
1.89172
1.88499
1.88398
1.88612
1.89598
1.9156
1.94731
1.99162
2.04653
2.10925
2.17218
2.21909
2.24642
2.26615
2.28388
2.31245
2.33961
2.35577
2.37786
2.41705
2.49113
2.59795
2.7252
2.85627
2.96729
3.07536
3.13556
3.15277
3.14252
3.1227
3.11987
3.11912
3.11937
3.1236
3.1272
3.1253
3.1209
3.11016
3.10622
3.1047
3.11001
3.1283
3.15539
3.17001
3.17033
3.16762
3.16026
3.1465
3.12602
3.10372
3.09045
3.08722
3.08655
3.08952
3.10008
3.10845
3.10733
3.10264
3.0949
3.08592
3.07833
3.07169
3.0657
3.06266
3.06225
3.06475
3.07047
3.07457
3.07902
3.08294
3.0814
3.07296
3.06074
3.05105
3.04399
3.04017
3.03833
3.03893
3.04333
3.04643
3.04763
3.0466
3.04202
3.02954
3.01094
3.00013
2.99621
2.99361
2.99141
2.99093
2.99403
2.99634
2.99726
2.9993
3.00125
3.00113
2.99638
2.99014
2.98597
2.98252
2.97708
2.96854
2.96004
2.95435
2.95259
2.95378
2.96114
2.96913
2.96962
2.96569
2.95766
2.94586
2.9361
2.93161
2.93
2.929
2.93044
2.9362
2.93817
2.93536
2.92995
2.92202
2.91444
2.90915
2.90623
2.90518
2.90629
2.90872
2.91086
2.91106
2.90784
2.90019
2.88815
2.87324
2.85806
2.84841
2.84548
2.84438
2.84683
2.86035
2.87815
2.88688
2.88762
2.88563
2.87988
2.86472
2.84251
2.82661
2.81846
2.81385
2.8107
2.81013
2.81321
2.81378
2.81176
2.8098
2.80731
2.80444
2.80217
2.80065
2.79999
2.79996
2.8034
2.8096
2.81009
2.80539
2.79781
2.78745
2.77514
2.76244
2.75342
2.74728
2.74481
2.74465
2.74778
2.75584
2.76613
2.76987
2.76733
2.76115
2.75108
2.73867
2.72892
2.72415
2.72224
2.72192
2.72281
2.72524
2.7253
2.72334
2.71742
2.70742
2.69611
2.68739
2.68224
2.679
2.67624
2.67375
2.67199
2.66994
2.66649
2.66328
2.66168
2.66131
2.66247
2.66651
2.6758
2.68202
2.11198
2.10589
2.10072
2.09673
2.09253
2.08858
2.0851
2.08171
2.0783
2.07377
2.07003
2.06755
2.0659
2.06548
2.0646
2.06149
2.05683
2.04881
2.03304
2.01768
2.01246
2.00962
2.00755
2.00684
2.0068
2.00576
2.00376
2.00107
1.99742
1.99215
1.98592
1.98001
1.97454
1.96968
1.96575
1.96233
1.95884
1.95519
1.9516
1.94811
1.94444
1.94032
1.93556
1.93006
1.92384
1.91762
1.91307
1.91006
1.90743
1.90435
1.89954
1.89126
1.88344
1.8811
1.8794
1.8788
1.88069
1.8875
1.89868
1.91581
1.94218
1.97667
2.02118
2.06914
2.11401
2.16043
2.19863
2.23328
2.28033
2.30839
2.33023
2.36567
2.42411
2.52002
2.63838
2.7689
2.90477
3.02052
3.08618
3.12463
3.12858
3.10568
3.09413
3.09724
3.10954
3.12448
3.12628
3.12158
3.11046
3.0981
3.09386
3.09395
3.10598
3.13427
3.1582
3.16058
3.15751
3.15367
3.14442
3.12638
3.10476
3.09425
3.09293
3.09635
3.10419
3.10707
3.10537
3.10198
3.09702
3.08907
3.0793
3.06964
3.06188
3.05643
3.0535
3.05278
3.05501
3.06539
3.0809
3.08993
3.0907
3.08753
3.07591
3.0568
3.04156
3.03414
3.03096
3.02985
3.03388
3.04663
3.05343
3.05302
3.05034
3.04474
3.03104
3.00854
2.99193
2.98466
2.98087
2.97904
2.98022
2.98883
2.99938
3.00937
3.01627
3.01776
3.0137
2.99924
2.98242
2.97271
2.9663
2.96091
2.95729
2.95617
2.95858
2.96789
2.9771
2.97726
2.97399
2.96831
2.95937
2.94733
2.9358
2.93038
2.9286
2.92856
2.93503
2.94112
2.93917
2.93495
2.92838
2.91852
2.90636
2.89943
2.89758
2.89717
2.8995
2.90658
2.91549
2.91782
2.91601
2.90839
2.89075
2.86642
2.84776
2.84053
2.83828
2.83791
2.84196
2.85764
2.88023
2.89008
2.88925
2.88611
2.87903
2.86327
2.8423
2.83036
2.82557
2.82279
2.82163
2.82094
2.8184
2.81426
2.80885
2.80221
2.79559
2.79161
2.7909
2.79306
2.79866
2.80789
2.81803
2.82092
2.81837
2.81053
2.79688
2.78029
2.76482
2.75495
2.74968
2.74821
2.74913
2.75469
2.76488
2.7754
2.77825
2.77596
2.76952
2.76022
2.74993
2.73952
2.73071
2.72414
2.71933
2.71715
2.71677
2.71741
2.71761
2.71614
2.7126
2.70696
2.70082
2.69433
2.68829
2.68303
2.67888
2.67541
2.67095
2.66466
2.65892
2.65542
2.65413
2.6537
2.65683
2.66701
2.68418
2.69093
2.1278
2.12263
2.1172
2.11127
2.10471
2.09793
2.09276
2.0882
2.083
2.07934
2.07686
2.07503
2.07462
2.07576
2.07581
2.07384
2.07025
2.06411
2.05155
2.03407
2.02271
2.01763
2.01462
2.01267
2.01195
2.01137
2.00962
2.00737
2.00479
2.00168
1.99784
1.99367
1.98907
1.98376
1.97771
1.97145
1.96576
1.96092
1.9567
1.95281
1.94923
1.94633
1.9437
1.94068
1.937
1.93251
1.92705
1.92108
1.91601
1.91274
1.90994
1.90603
1.89924
1.88863
1.88068
1.87834
1.87786
1.87691
1.87576
1.87604
1.8782
1.8824
1.88861
1.90159
1.92421
1.9571
1.99957
2.04231
2.08687
2.12654
2.17299
2.22339
2.25543
2.28982
2.34594
2.42571
2.53133
2.67721
2.8139
2.93028
3.0416
3.09764
3.10099
3.07355
3.07633
3.09345
3.11234
3.11849
3.1185
3.10876
3.09299
3.0888
3.08885
3.09329
3.11295
3.13981
3.14927
3.15094
3.15077
3.14286
3.12425
3.10354
3.09539
3.09536
3.09626
3.09646
3.096
3.0948
3.0919
3.08809
3.08318
3.07725
3.06812
3.05781
3.05177
3.04992
3.05083
3.05542
3.06336
3.07538
3.08541
3.08643
3.08247
3.07142
3.05165
3.03451
3.02909
3.02764
3.02855
3.03382
3.0426
3.04762
3.04691
3.04411
3.03834
3.02329
3.00036
2.98374
2.97768
2.97521
2.97556
2.98648
3.00744
3.01947
3.02219
3.02098
3.01756
3.00665
2.98428
2.96696
2.95974
2.95693
2.95654
2.95991
2.97138
2.98277
2.98318
2.97949
2.97279
2.96436
2.95561
2.94688
2.93825
2.93189
2.92954
2.93012
2.93491
2.93692
2.93495
2.93134
2.92471
2.9127
2.90092
2.89549
2.89364
2.89325
2.89741
2.91039
2.9175
2.91678
2.91403
2.90626
2.88759
2.86056
2.84446
2.83812
2.83546
2.83512
2.84201
2.86217
2.87822
2.88138
2.88164
2.87941
2.87256
2.8586
2.8466
2.84215
2.83971
2.8373
2.83339
2.82776
2.82111
2.81387
2.80529
2.7958
2.78865
2.78551
2.78505
2.7884
2.80292
2.82143
2.82684
2.82553
2.82097
2.81052
2.79317
2.77304
2.75956
2.7533
2.75131
2.75173
2.75821
2.77015
2.78008
2.78231
2.78097
2.7758
2.76669
2.75647
2.74712
2.73947
2.7329
2.7262
2.71893
2.71266
2.70972
2.70877
2.7077
2.70601
2.70476
2.70433
2.70294
2.70065
2.69643
2.69003
2.68252
2.67466
2.66602
2.65741
2.65214
2.65016
2.6494
2.64925
2.65342
2.66807
2.69208
2.69801
2.14319
2.13896
2.13406
2.12803
2.12085
2.11206
2.10169
2.09336
2.0884
2.08551
2.08311
2.08139
2.08134
2.0844
2.08512
2.08223
2.07865
2.074
2.06589
2.05375
2.04268
2.03482
2.02865
2.02382
2.02032
2.01741
2.01457
2.01182
2.00921
2.00683
2.00449
2.00195
1.999
1.99555
1.99144
1.98648
1.98073
1.97404
1.96653
1.95929
1.95317
1.94886
1.9462
1.94429
1.94266
1.94043
1.93755
1.93386
1.92918
1.92389
1.92005
1.91725
1.91413
1.90921
1.9005
1.88878
1.88087
1.87695
1.87391
1.8718
1.87009
1.86917
1.86906
1.8713
1.87599
1.87834
1.88336
1.8934
1.90803
1.93067
1.95974
1.99634
2.04086
2.09571
2.14132
2.1899
2.24416
2.32756
2.44645
2.56823
2.70745
2.84389
2.97646
3.0502
3.04899
3.04492
3.06297
3.09216
3.10796
3.10989
3.10828
3.10004
3.0903
3.08664
3.08917
3.10868
3.1402
3.15053
3.15076
3.14942
3.14229
3.12773
3.11059
3.09763
3.09
3.08452
3.07931
3.07601
3.07575
3.07805
3.08034
3.07904
3.07517
3.07024
3.06387
3.05682
3.05296
3.05282
3.05665
3.0611
3.06615
3.0737
3.07753
3.07437
3.06762
3.05374
3.0364
3.0274
3.02536
3.02515
3.02756
3.03291
3.03718
3.03726
3.03437
3.02872
3.01664
2.99928
2.98492
2.97959
2.98055
2.98808
2.99579
3.00373
3.01131
3.01449
3.01272
3.00662
2.99243
2.97047
2.95824
2.95602
2.95662
2.96615
2.98268
2.98629
2.98369
2.97837
2.96938
2.95769
2.94795
2.94211
2.93787
2.93538
2.93499
2.93656
2.93518
2.9313
2.92693
2.92184
2.9147
2.90597
2.89824
2.8939
2.8922
2.89301
2.8998
2.9076
2.90922
2.90822
2.90603
2.89895
2.88197
2.86249
2.85068
2.84516
2.84224
2.84333
2.85436
2.86962
2.87194
2.8705
2.86946
2.86618
2.85865
2.85227
2.85146
2.85326
2.85392
2.85075
2.84431
2.83511
2.82438
2.81365
2.8032
2.79324
2.78663
2.78492
2.78495
2.79004
2.80273
2.81535
2.82001
2.8196
2.8165
2.80645
2.78743
2.77041
2.76202
2.75863
2.75756
2.7614
2.77282
2.78244
2.78363
2.78213
2.77822
2.77086
2.76135
2.75159
2.7439
2.73819
2.7331
2.72748
2.72008
2.71102
2.70383
2.70044
2.69923
2.69875
2.69868
2.69961
2.70228
2.70342
2.70145
2.6961
2.68659
2.67414
2.66205
2.65363
2.6493
2.64806
2.64733
2.64832
2.65832
2.67827
2.69823
2.70166
2.15731
2.15334
2.14918
2.14449
2.13815
2.12851
2.11437
2.10147
2.09588
2.09253
2.08964
2.08763
2.08783
2.09158
2.09109
2.08791
2.08459
2.08083
2.07499
2.06725
2.06055
2.05491
2.04877
2.04134
2.03352
2.02704
2.02211
2.01811
2.01465
2.01172
2.00922
2.00696
2.00469
2.00238
1.99991
1.99718
1.99399
1.9899
1.98392
1.97481
1.96402
1.95566
1.95055
1.94705
1.94432
1.94244
1.94159
1.94026
1.93787
1.93474
1.93156
1.92901
1.9266
1.92371
1.91905
1.90965
1.89431
1.88295
1.87743
1.87317
1.86938
1.86685
1.86584
1.86611
1.86854
1.87142
1.8735
1.87462
1.87199
1.86748
1.86303
1.86053
1.86939
1.89243
1.92516
1.9668
2.01679
2.06456
2.12877
2.21964
2.32186
2.43669
2.5794
2.73312
2.89728
2.97409
2.99141
3.01125
3.04654
3.0843
3.10073
3.11198
3.10762
3.08875
3.08716
3.09345
3.10946
3.13462
3.14871
3.14967
3.1485
3.14648
3.13812
3.12223
3.10348
3.08601
3.07302
3.06507
3.06099
3.06
3.06113
3.06491
3.06918
3.07063
3.07036
3.06916
3.06592
3.06046
3.05725
3.05785
3.06037
3.06199
3.06576
3.07242
3.07064
3.06457
3.05232
3.03361
3.02059
3.01732
3.01568
3.01514
3.01818
3.02458
3.02795
3.02777
3.0258
3.02094
3.01306
3.00325
2.9953
2.99195
2.99043
2.98979
2.99195
2.99731
3.00069
2.99996
2.99493
2.98474
2.97169
2.96444
2.96423
2.97045
2.97614
2.97826
2.97712
2.97365
2.96586
2.95297
2.94197
2.93734
2.9363
2.93725
2.93929
2.93827
2.93427
2.92741
2.91914
2.91083
2.90436
2.89999
2.89761
2.89562
2.89581
2.90049
2.90444
2.90425
2.903
2.90075
2.89562
2.88629
2.87428
2.86417
2.85934
2.8574
2.85853
2.86578
2.87332
2.87275
2.8693
2.86549
2.85966
2.85162
2.847
2.84701
2.85082
2.85697
2.86004
2.85837
2.85379
2.84479
2.83049
2.81447
2.80156
2.79386
2.79075
2.78977
2.79125
2.79727
2.80501
2.80916
2.81074
2.81005
2.80597
2.79573
2.78217
2.77375
2.77047
2.76901
2.77118
2.77829
2.78206
2.7808
2.77864
2.77618
2.77187
2.76433
2.75455
2.7463
2.74092
2.7365
2.73199
2.72713
2.72083
2.71171
2.70203
2.69677
2.69499
2.69448
2.69433
2.69647
2.70197
2.70423
2.7032
2.69926
2.68986
2.67393
2.65865
2.6512
2.64926
2.64827
2.64855
2.65493
2.67388
2.69583
2.7029
2.69902
2.16892
2.16563
2.16232
2.15822
2.15243
2.14337
2.13014
2.11655
2.10772
2.10253
2.09897
2.09666
2.0968
2.09817
2.0959
2.09287
2.08937
2.08525
2.08035
2.07678
2.074
2.07067
2.06593
2.05885
2.04961
2.04075
2.03371
2.02798
2.02306
2.0192
2.01575
2.01231
2.00931
2.0067
2.00466
2.0032
2.00164
1.99947
1.99643
1.99131
1.98281
1.97169
1.96147
1.95432
1.94968
1.9464
1.94379
1.94248
1.94226
1.94119
1.93972
1.93853
1.93715
1.93498
1.93183
1.92648
1.91495
1.89666
1.88297
1.87611
1.87242
1.86975
1.86752
1.8668
1.86846
1.86972
1.86983
1.87056
1.87086
1.86905
1.86727
1.86168
1.84453
1.83443
1.8339
1.83954
1.85384
1.87618
1.90559
1.94504
1.99677
2.06821
2.16258
2.27524
2.42571
2.59135
2.7719
2.86429
2.91176
2.96728
3.02964
3.07925
3.08668
3.08705
3.08829
3.08731
3.08637
3.09215
3.10825
3.13191
3.14601
3.14637
3.14272
3.13693
3.12763
3.11206
3.08969
3.06801
3.05702
3.05407
3.05195
3.04965
3.04828
3.05027
3.05836
3.0681
3.07097
3.07093
3.06982
3.06588
3.06171
3.06059
3.06194
3.06487
3.0666
3.06335
3.05662
3.04245
3.02104
3.00766
3.00366
3.00208
3.00257
3.0098
3.02087
3.02818
3.03307
3.03562
3.03443
3.0282
3.01526
2.99774
2.98642
2.98224
2.97981
2.97844
2.97969
2.98444
2.98846
2.98797
2.98774
2.98729
2.98424
2.97761
2.97094
2.9668
2.96484
2.96243
2.95769
2.95013
2.94426
2.9412
2.94021
2.94022
2.93869
2.93552
2.93017
2.92169
2.91268
2.9059
2.90035
2.89702
2.89567
2.89735
2.90382
2.90631
2.90428
2.90112
2.8967
2.89058
2.88225
2.87475
2.87066
2.86979
2.87079
2.87603
2.88412
2.88689
2.88329
2.8764
2.86899
2.85977
2.84864
2.83996
2.8377
2.83757
2.8409
2.85089
2.85998
2.8606
2.85808
2.85187
2.83876
2.81984
2.80408
2.79757
2.79593
2.79623
2.79863
2.80126
2.80103
2.80052
2.79963
2.79676
2.79077
2.78325
2.77916
2.77786
2.77838
2.78328
2.78843
2.78706
2.78248
2.77748
2.77325
2.769
2.76325
2.75512
2.7469
2.74101
2.73663
2.73285
2.72901
2.72471
2.71944
2.71223
2.70298
2.69595
2.69349
2.6927
2.69287
2.69745
2.70558
2.70717
2.70534
2.70002
2.68869
2.67175
2.65802
2.65332
2.65152
2.65088
2.65459
2.66959
2.69077
2.69867
2.6984
2.69363
2.1793
2.17655
2.17315
2.16882
2.16312
2.15481
2.14401
2.13365
2.1249
2.11757
2.11242
2.10898
2.10686
2.10487
2.10172
2.09868
2.0952
2.09093
2.0883
2.0866
2.08533
2.08297
2.07914
2.07287
2.06316
2.05325
2.04604
2.04042
2.03543
2.03065
2.02585
2.0208
2.01621
2.01274
2.00986
2.00737
2.00574
2.00458
2.00294
2.00066
1.99628
1.98878
1.97902
1.96902
1.96035
1.95399
1.94994
1.94699
1.9449
1.94452
1.94535
1.94576
1.94542
1.94411
1.94191
1.93853
1.93143
1.91432
1.8922
1.88209
1.87821
1.87536
1.87278
1.87057
1.87039
1.87325
1.87284
1.87115
1.87012
1.86979
1.86842
1.86536
1.85936
1.84794
1.8353
1.82737
1.8242
1.82337
1.82516
1.83193
1.84372
1.86148
1.88996
1.93536
2.00169
2.09694
2.2359
2.3998
2.59282
2.72356
2.81457
2.90788
2.9813
3.0564
3.08533
3.07217
3.05546
3.05988
3.05924
3.06922
3.09779
3.12036
3.13257
3.13379
3.13045
3.12167
3.10843
3.09132
3.07398
3.06068
3.05095
3.0446
3.04164
3.03979
3.03836
3.04247
3.05643
3.07066
3.07512
3.07498
3.07286
3.06719
3.06175
3.06028
3.0602
3.05814
3.0518
3.04199
3.02597
3.00751
3.00023
2.99844
2.9982
3.00307
3.01758
3.03531
3.04382
3.04488
3.04255
3.0373
3.02814
3.01282
2.99297
2.97675
2.96905
2.96493
2.96326
2.96369
2.97044
2.98476
2.99568
3.00032
2.99914
2.99165
2.97539
2.95913
2.95012
2.9464
2.94544
2.94645
2.94829
2.94937
2.94769
2.94412
2.93906
2.93289
2.92528
2.91594
2.90747
2.90314
2.90122
2.90031
2.90315
2.91096
2.91333
2.91012
2.90352
2.89427
2.88492
2.87676
2.87138
2.86912
2.86956
2.87436
2.88559
2.89782
2.90142
2.89836
2.89023
2.87876
2.86549
2.85069
2.83674
2.83113
2.82979
2.82918
2.83291
2.84624
2.85748
2.8578
2.85573
2.85207
2.84534
2.83557
2.82427
2.81325
2.80609
2.80336
2.8016
2.79821
2.79451
2.79066
2.7854
2.77941
2.77611
2.7755
2.77652
2.7801
2.78849
2.79667
2.79617
2.79154
2.78373
2.7748
2.76717
2.75989
2.75227
2.74526
2.74015
2.73593
2.7319
2.72825
2.72464
2.72038
2.7159
2.71103
2.70544
2.70094
2.69753
2.69587
2.69674
2.70164
2.70342
2.70231
2.69969
2.69379
2.68299
2.66982
2.66303
2.66031
2.65895
2.66043
2.67052
2.6879
2.69555
2.6947
2.69325
2.68683
2.18893
2.18589
2.18215
2.17773
2.17169
2.16324
2.1538
2.14722
2.14176
2.13625
2.13098
2.12465
2.11685
2.11144
2.10791
2.10401
2.10108
2.09886
2.09698
2.09634
2.09625
2.09405
2.09047
2.0851
2.0752
2.06334
2.05585
2.05103
2.04663
2.042
2.03699
2.03179
2.02675
2.0223
2.01834
2.01454
2.0112
2.00873
2.00683
2.00517
2.00311
1.99917
1.99268
1.98465
1.97586
1.96686
1.95929
1.95424
1.95099
1.94864
1.94764
1.9493
1.95126
1.95106
1.94909
1.94621
1.94199
1.93279
1.91366
1.89331
1.88463
1.88119
1.87866
1.87652
1.87483
1.8748
1.87631
1.87486
1.87314
1.87179
1.87102
1.87034
1.86805
1.86356
1.85433
1.83883
1.8257
1.82166
1.82045
1.81891
1.81793
1.81803
1.82104
1.82883
1.84029
1.85816
1.88999
1.94442
2.03834
2.17578
2.3364
2.51096
2.6698
2.80333
2.95141
3.01167
3.02016
3.03672
3.0334
3.03595
3.05178
3.05942
3.07807
3.10324
3.11395
3.11425
3.10794
3.09698
3.08755
3.07743
3.06637
3.05545
3.04581
3.03848
3.03342
3.03072
3.03195
3.04276
3.06027
3.07071
3.07158
3.06885
3.06081
3.05435
3.05095
3.04745
3.04292
3.03675
3.02875
3.0166
3.00542
3.00008
2.99939
3.00453
3.01416
3.02322
3.03125
3.03543
3.03518
3.03217
3.02487
3.01325
2.99805
2.98139
2.96844
2.96252
2.96007
2.9597
2.96348
2.97674
2.99537
3.00154
3.00054
2.99588
2.98481
2.96497
2.94788
2.94109
2.93868
2.9394
2.9481
2.9528
2.95092
2.94824
2.94358
2.93507
2.92282
2.91091
2.90352
2.90145
2.90126
2.90546
2.91555
2.9199
2.91782
2.91276
2.90328
2.88923
2.87591
2.868
2.86532
2.86567
2.87052
2.88384
2.90242
2.91047
2.90904
2.90426
2.89478
2.87853
2.8577
2.83607
2.82391
2.82115
2.81999
2.81949
2.82336
2.83599
2.84894
2.85196
2.85129
2.8509
2.85082
2.84947
2.84532
2.83632
2.8217
2.80649
2.79661
2.79008
2.78378
2.77674
2.77071
2.76769
2.76696
2.76813
2.77374
2.78686
2.79992
2.80054
2.7974
2.7918
2.78308
2.77191
2.75986
2.74995
2.74396
2.73978
2.73572
2.73177
2.728
2.7244
2.7211
2.71752
2.71306
2.70938
2.70755
2.70579
2.70395
2.70346
2.70454
2.70396
2.70168
2.69912
2.69558
2.68915
2.67948
2.67364
2.67109
2.66944
2.66998
2.67608
2.68689
2.69197
2.69119
2.68979
2.68795
2.67844
2.19868
2.19516
2.19114
2.18636
2.17946
2.1699
2.16229
2.15867
2.15595
2.15319
2.14873
2.14206
2.1323
2.12064
2.11309
2.10907
2.10637
2.1044
2.10352
2.10497
2.10636
2.10402
2.10056
2.09627
2.08828
2.07626
2.06711
2.06125
2.05623
2.05127
2.04606
2.04069
2.0358
2.03181
2.02829
2.02476
2.02098
2.01676
2.01251
2.00918
2.00673
2.00438
2.00096
1.99573
1.98903
1.98116
1.97286
1.96552
1.96001
1.95624
1.9537
1.95239
1.95377
1.95527
1.95344
1.95086
1.94778
1.94298
1.93368
1.91761
1.89967
1.88947
1.88557
1.88334
1.88153
1.87986
1.87839
1.87782
1.87766
1.8773
1.87669
1.87588
1.87417
1.87204
1.8683
1.86076
1.84722
1.83036
1.82127
1.81809
1.81637
1.81579
1.81583
1.81693
1.82011
1.82381
1.82722
1.83132
1.83844
1.8542
1.89094
1.96651
2.09065
2.24589
2.44441
2.63854
2.78073
2.9296
3.00022
3.01344
3.03309
3.03279
3.03553
3.0526
3.06043
3.07319
3.08599
3.08976
3.08775
3.07797
3.0673
3.06132
3.05825
3.05302
3.04192
3.03004
3.02678
3.02701
3.03067
3.04064
3.05137
3.05382
3.05088
3.04243
3.03398
3.02982
3.02798
3.02657
3.02357
3.01839
3.0139
3.01122
3.01059
3.01252
3.01533
3.01717
3.01931
3.02148
3.02091
3.01877
3.01443
3.00598
2.99488
2.9848
2.97596
2.96816
2.96335
2.96237
2.96564
2.97118
2.97576
2.98227
2.98839
2.98907
2.9853
2.97541
2.95868
2.94331
2.9378
2.93694
2.93722
2.94196
2.94764
2.94714
2.94397
2.93748
2.92562
2.91343
2.90732
2.90535
2.90716
2.91507
2.9203
2.91938
2.91672
2.91165
2.90189
2.88782
2.87475
2.86777
2.86565
2.86582
2.87247
2.89121
2.90665
2.90868
2.90635
2.90253
2.89449
2.87642
2.8464
2.82248
2.81516
2.81269
2.81145
2.81149
2.81591
2.82673
2.84094
2.85025
2.85251
2.85498
2.85743
2.85766
2.85522
2.84927
2.83632
2.8141
2.79229
2.77984
2.77232
2.7675
2.76435
2.76303
2.76277
2.76498
2.77551
2.79173
2.79625
2.79547
2.79339
2.78902
2.78011
2.76624
2.75381
2.74707
2.74141
2.73678
2.73285
2.72922
2.72571
2.72228
2.71927
2.71569
2.71248
2.71121
2.71075
2.71132
2.71261
2.71219
2.71018
2.70711
2.70312
2.69801
2.69171
2.68495
2.68196
2.68113
2.68068
2.68184
2.68612
2.68971
2.6893
2.68752
2.68588
2.68416
2.68091
2.66486
2.20821
2.20421
2.19961
2.19395
2.18599
2.17738
2.1732
2.17035
2.16868
2.16709
2.16388
2.15878
2.14988
2.13523
2.12167
2.11555
2.11231
2.10984
2.10855
2.11063
2.1129
2.11096
2.10801
2.10453
2.09927
2.09143
2.08334
2.07631
2.06958
2.0627
2.05582
2.04908
2.04296
2.03841
2.03504
2.03236
2.02991
2.02693
2.02241
2.01632
2.01145
2.00837
2.00567
2.00255
1.99814
1.99221
1.98532
1.97849
1.97252
1.96751
1.96351
1.96064
1.9586
1.95702
1.95542
1.95342
1.95101
1.94797
1.94339
1.93622
1.925
1.90963
1.89675
1.89152
1.889
1.88657
1.88379
1.88097
1.87857
1.87668
1.87534
1.87526
1.87818
1.87853
1.87647
1.87331
1.86704
1.85396
1.83603
1.82484
1.82047
1.81799
1.81647
1.81606
1.81722
1.81911
1.82031
1.8204
1.8208
1.82222
1.82144
1.81914
1.82441
1.8444
1.90323
2.02745
2.19307
2.41172
2.62588
2.7784
2.93287
2.99698
3.00686
3.02519
3.02401
3.02624
3.04903
3.05783
3.06007
3.0598
3.05856
3.05777
3.05852
3.05729
3.0518
3.04512
3.03552
3.02165
3.01506
3.01407
3.01664
3.02358
3.02487
3.02276
3.01674
3.01338
3.01202
3.01104
3.0133
3.01782
3.01923
3.01934
3.01808
3.01504
3.01186
3.01084
3.01059
3.01033
3.00858
3.0055
3.00042
2.99284
2.98515
2.98042
2.97767
2.97657
2.97752
2.97802
2.97594
2.97166
2.96765
2.96563
2.96609
2.97113
2.97576
2.97478
2.97056
2.96234
2.9495
2.9383
2.93345
2.9313
2.93157
2.93451
2.93568
2.93326
2.92892
2.92559
2.92291
2.92111
2.91927
2.91617
2.91223
2.90967
2.90807
2.90505
2.89828
2.88828
2.88035
2.87492
2.87232
2.87304
2.87933
2.88691
2.89251
2.89779
2.89992
2.8976
2.88975
2.86824
2.83563
2.81779
2.81204
2.80916
2.80744
2.8074
2.81244
2.824
2.8343
2.84267
2.85458
2.862
2.86218
2.86016
2.85691
2.85137
2.84139
2.82252
2.79678
2.77675
2.76761
2.76304
2.76115
2.76048
2.76181
2.76981
2.78354
2.78859
2.7888
2.78777
2.78546
2.78072
2.77126
2.76013
2.75341
2.74822
2.74414
2.74095
2.73786
2.73468
2.73071
2.72429
2.7172
2.71471
2.71377
2.71309
2.71304
2.71584
2.71864
2.71754
2.71519
2.71204
2.70709
2.6986
2.68937
2.68652
2.68663
2.68805
2.69105
2.69412
2.69364
2.69091
2.6874
2.68338
2.6796
2.67537
2.66707
2.64313
2.21809
2.213
2.20743
2.19935
2.19047
2.1858
2.18266
2.18076
2.18023
2.17875
2.17537
2.17105
2.16461
2.15368
2.13981
2.12915
2.12262
2.11855
2.11606
2.11514
2.11541
2.11406
2.11199
2.10935
2.10618
2.10238
2.09796
2.09301
2.08712
2.07963
2.07091
2.06235
2.0544
2.04686
2.04089
2.03739
2.03498
2.03305
2.03062
2.02648
2.02028
2.01456
2.01047
2.0071
2.0037
1.99949
1.99401
1.98817
1.98332
1.97955
1.97595
1.9717
1.9666
1.96179
1.95812
1.95488
1.95216
1.95025
1.94865
1.94622
1.94213
1.93434
1.92062
1.90421
1.89437
1.88995
1.88669
1.88371
1.88124
1.87926
1.87783
1.87716
1.87866
1.88177
1.88183
1.88
1.87727
1.87184
1.85954
1.84166
1.83051
1.82594
1.82306
1.82076
1.81883
1.81791
1.81855
1.81822
1.8172
1.81654
1.8162
1.81656
1.8162
1.80872
1.79551
1.79519
1.81566
1.87786
2.00553
2.16925
2.38374
2.59386
2.75149
2.90773
2.98109
2.99594
3.02215
3.03254
3.03196
3.03695
3.03701
3.03219
3.03199
3.03779
3.04316
3.0442
3.04279
3.03021
3.00854
3.00288
3.00308
3.00469
3.00725
3.0083
3.0081
3.00723
3.00649
3.00582
3.00646
3.00765
3.00883
3.01128
3.01242
3.01146
3.00817
3.00353
3.00105
2.99927
2.99687
2.99346
2.98948
2.98513
2.97914
2.97488
2.97499
2.9804
2.98381
2.98315
2.97987
2.97386
2.96406
2.95584
2.95236
2.9518
2.95532
2.96502
2.96966
2.96775
2.96266
2.95175
2.93646
2.92572
2.92047
2.91814
2.91768
2.92151
2.9288
2.93277
2.93569
2.93449
2.92952
2.92055
2.90997
2.90244
2.89675
2.89157
2.88698
2.88486
2.88306
2.88191
2.88257
2.88513
2.88488
2.88233
2.88038
2.87961
2.88115
2.88044
2.8739
2.85812
2.83933
2.82452
2.81471
2.80911
2.80685
2.80753
2.81472
2.82489
2.83229
2.83942
2.8465
2.85315
2.85567
2.85468
2.85252
2.84824
2.83895
2.82458
2.80449
2.78183
2.76675
2.76233
2.76114
2.76154
2.76696
2.77672
2.78046
2.78028
2.77937
2.77746
2.77357
2.7669
2.75934
2.7549
2.75226
2.75027
2.75028
2.75176
2.75088
2.74722
2.74073
2.73019
2.71866
2.71332
2.71216
2.71161
2.71241
2.71609
2.72005
2.72148
2.72055
2.71815
2.71364
2.70461
2.69353
2.69005
2.6897
2.6913
2.69498
2.69419
2.69139
2.68821
2.68442
2.67944
2.67265
2.66248
2.6446
2.6232
2.22858
2.22108
2.21328
2.20483
2.19837
2.19459
2.19173
2.19031
2.19007
2.18766
2.18404
2.18003
2.1747
2.16657
2.15715
2.14936
2.14274
2.13656
2.13031
2.12426
2.11986
2.11679
2.11375
2.11096
2.10942
2.10863
2.10689
2.10413
2.10047
2.09516
2.08758
2.07905
2.07136
2.06362
2.05433
2.04492
2.03949
2.03674
2.0348
2.03294
2.03009
2.02535
2.0193
2.01362
2.00883
2.00429
1.99938
1.9943
1.99008
1.98678
1.98362
1.97994
1.97521
1.96894
1.96254
1.95883
1.95615
1.95397
1.95307
1.95303
1.95172
1.94912
1.94357
1.9306
1.91096
1.89775
1.89131
1.88719
1.88445
1.88212
1.87996
1.87853
1.87905
1.88257
1.8852
1.88481
1.88309
1.8805
1.87528
1.86387
1.84668
1.835
1.83009
1.82717
1.82481
1.82289
1.82114
1.81979
1.81879
1.81724
1.81571
1.81482
1.8143
1.81246
1.80834
1.79642
1.78198
1.77775
1.78136
1.8009
1.85454
1.9735
2.13301
2.34626
2.56258
2.73137
2.88287
2.98552
3.00829
3.02677
3.0371
3.02626
3.00962
3.00091
3.00333
3.02264
3.03286
3.02614
3.01046
2.99962
2.99612
2.99582
2.99763
3.00237
3.00688
3.00699
3.0058
3.00681
3.00709
3.00639
3.00662
3.00613
3.00458
3.00211
2.99749
2.98995
2.98409
2.98217
2.98131
2.98189
2.98397
2.98369
2.98157
2.97899
2.97595
2.97256
2.97167
2.97314
2.97314
2.9694
2.9623
2.95323
2.94608
2.94298
2.94236
2.94509
2.95425
2.96252
2.96211
2.95744
2.94658
2.9292
2.91497
2.90948
2.9079
2.9087
2.9171
2.93126
2.93571
2.93434
2.93068
2.92468
2.91409
2.89906
2.88719
2.88006
2.87723
2.87642
2.87757
2.88363
2.88869
2.88731
2.88431
2.88043
2.87439
2.86815
2.86319
2.85828
2.85123
2.84281
2.83443
2.82834
2.82379
2.82032
2.81974
2.8237
2.82872
2.8315
2.83339
2.83465
2.83672
2.84099
2.84557
2.84667
2.84476
2.84078
2.83389
2.82379
2.81107
2.79601
2.78076
2.77117
2.76896
2.77124
2.77644
2.7762
2.77417
2.77208
2.76864
2.76357
2.75761
2.75367
2.75219
2.75126
2.75148
2.75607
2.76382
2.76674
2.76453
2.7585
2.74786
2.73318
2.71981
2.71268
2.71025
2.70934
2.70904
2.71232
2.72267
2.72835
2.72747
2.7252
2.72079
2.71138
2.69833
2.69167
2.6904
2.69039
2.69101
2.68931
2.68695
2.68442
2.68079
2.67467
2.66402
2.64656
2.62552
2.61588
2.24149
2.23117
2.21838
2.21156
2.20808
2.20481
2.20247
2.20165
2.19975
2.19605
2.19207
2.18725
2.18058
2.17302
2.16735
2.16352
2.15989
2.15525
2.14849
2.13918
2.1293
2.12178
2.11701
2.11404
2.11192
2.11141
2.11235
2.11113
2.10852
2.10518
2.10022
2.0932
2.08589
2.07947
2.07259
2.06292
2.0503
2.04209
2.03889
2.03691
2.03587
2.03387
2.03052
2.02535
2.01859
2.01161
2.00576
2.00072
1.99578
1.99069
1.98593
1.98208
1.97896
1.97409
1.96774
1.96426
1.96185
1.95963
1.95815
1.95822
1.9592
1.95817
1.95554
1.9502
1.93619
1.91315
1.89808
1.89204
1.88898
1.88665
1.88461
1.88291
1.88196
1.88256
1.88413
1.88527
1.88552
1.88448
1.88212
1.87782
1.86839
1.85299
1.83964
1.83241
1.82868
1.82651
1.82523
1.82541
1.825
1.82264
1.82072
1.81978
1.81942
1.81812
1.81541
1.80929
1.79667
1.78112
1.77302
1.76959
1.76765
1.77121