/*--------------------------------*- C++ -*----------------------------------*\
  =========                 |
  \\      /  F ield         | OpenFOAM: The Open Source CFD Toolbox
   \\    /   O peration     | Website:  https://openfoam.org
    \\  /    A nd           | Version:  7
     \\/     M anipulation  |
\*---------------------------------------------------------------------------*/
FoamFile
{
    version     2.0;
    format      ascii;
    class       volScalarField;
    location    "1.9";
    object      rho;
}
// * * * * * * * * * * * * * * * * * * * * * * * * * * * * * * * * * * * * * //

dimensions      [1 -3 0 0 0 0 0];

internalField   nonuniform List<scalar> 
16192
(
2.35934
2.30667
2.25089
2.18261
2.10339
2.01763
1.92896
1.83686
1.72854
1.67591
1.6956
1.76278
1.8299
1.89573
1.97607
2.07626
2.19812
2.32298
2.45653
2.5348
2.60152
2.35759
2.3035
2.24659
2.17788
2.09893
2.01411
1.92658
1.83685
1.73187
1.67882
1.69369
1.75579
1.8191
1.87897
1.95155
2.04799
2.17737
2.30279
2.43394
2.51384
2.578
2.35499
2.29843
2.24003
2.17071
2.09155
2.00676
1.92033
1.83313
1.73404
1.68095
1.68883
1.74268
1.80146
1.8617
1.93388
2.02669
2.14822
2.27014
2.39678
2.47845
2.54091
2.34977
2.2898
2.229
2.15869
2.07906
1.99482
1.90992
1.82663
1.73567
1.6828
1.68283
1.72481
1.77034
1.8247
1.89424
1.98663
2.10629
2.22734
2.34971
2.43286
2.49387
2.34463
2.27938
2.21501
2.14363
2.0634
1.97908
1.89537
1.81633
1.73484
1.68154
1.67366
1.70705
1.74007
1.78888
1.85328
1.94216
2.05717
2.1772
2.29618
2.38104
2.4408
2.33747
2.26562
2.19554
2.12206
2.0422
1.95895
1.87726
1.80231
1.72928
1.67775
1.66123
1.68273
1.70443
1.74566
1.80521
1.89049
2.00245
2.12103
2.23759
2.32272
2.3812
2.3335
2.25358
2.17525
2.09941
2.01912
1.93742
1.85851
1.78757
1.72152
1.67431
1.65106
1.66205
1.6753
1.70924
1.76234
1.83946
1.94541
2.06005
2.17441
2.2587
2.31494
2.3306
2.24219
2.15503
2.07347
1.99391
1.91487
1.83849
1.77121
1.71044
1.66715
1.63819
1.6403
1.64619
1.67368
1.72158
1.79127
1.89044
1.99794
2.10943
2.19201
2.24527
2.33092
2.23659
2.14129
2.05332
1.97114
1.89402
1.8217
1.75874
1.70167
1.66153
1.63035
1.62565
1.62734
1.64822
1.68893
1.74844
1.83928
1.93708
2.04466
2.12528
2.17468
2.33208
2.23498
2.13161
2.03758
1.95372
1.87781
1.80814
1.7473
1.69244
1.65381
1.62178
1.61166
1.60938
1.62522
1.66171
1.71392
1.79741
1.88341
1.98549
2.06213
2.10726
2.33158
2.23998
2.13529
2.03142
1.9417
1.86571
1.79892
1.74089
1.68774
1.64964
1.61748
1.60589
1.6013
1.61183
1.64319
1.68689
1.76216
1.83502
1.93162
2.00334
2.04473
2.32252
2.24222
2.14115
2.03547
1.93941
1.85951
1.79211
1.73504
1.6836
1.64497
1.61314
1.60088
1.59545
1.6025
1.63133
1.67089
1.74231
1.80477
1.89521
1.95963
1.99989
2.31548
2.24079
2.15071
2.04907
1.95126
1.86682
1.79517
1.73574
1.68437
1.64475
1.61395
1.60054
1.59504
1.60066
1.62838
1.66348
1.72939
1.78064
1.86481
1.92157
1.95941
2.30213
2.22936
2.14978
2.05848
1.96422
1.87739
1.80325
1.74206
1.6902
1.64964
1.61883
1.60323
1.59834
1.60435
1.63366
1.66819
1.73324
1.78025
1.86004
1.91085
1.95874
2.29658
2.22259
2.14485
2.06348
1.97971
1.8975
1.82231
1.75745
1.70421
1.66125
1.63015
1.61182
1.60746
1.61482
1.64826
1.68578
1.75263
1.79612
1.871
1.91825
1.96947
2.31578
2.21852
2.13616
2.05858
1.98322
1.90785
1.83684
1.77339
1.72006
1.67591
1.64474
1.62438
1.62143
1.63143
1.67051
1.71275
1.78154
1.82232
1.8942
1.93957
1.99506
2.3349
2.22435
2.13396
2.05445
1.98197
1.91246
1.84803
1.78883
1.7374
1.69336
1.66274
1.64194
1.64051
1.65436
1.69976
1.74878
1.82149
1.86417
1.93472
1.97692
2.03427
2.41916
2.27329
2.15455
2.05471
1.97872
1.91045
1.84992
1.79472
1.74671
1.70514
1.67628
1.65697
1.65837
1.67973
1.73226
1.78893
1.86606
1.91174
1.98147
2.02192
2.08281
2.51725
2.32244
2.17342
2.06759
1.98302
1.91128
1.85227
1.7983
1.75201
1.71241
1.6859
1.66957
1.67476
1.70669
1.76798
1.83472
1.9185
1.97018
2.04181
2.0796
2.14138
2.63105
2.4288
2.25639
2.11889
2.00804
1.92075
1.85587
1.80065
1.75504
1.71631
1.69175
1.67762
1.68815
1.72906
1.80179
1.88028
1.97185
2.03084
2.10332
2.13785
2.20368
2.73799
2.54567
2.34647
2.17107
2.03931
1.94152
1.8673
1.8074
1.76085
1.72133
1.69746
1.68454
1.69922
1.7513
1.83481
1.92675
2.0283
2.096
2.1735
2.20636
2.27448
2.82161
2.65369
2.46298
2.2793
2.12722
2.0069
1.90967
1.83144
1.77588
1.73192
1.70736
1.69217
1.70883
1.76949
1.8667
1.97187
2.08516
2.16299
2.24445
2.27357
2.34471
2.88276
2.73712
2.57033
2.39348
2.22703
2.07691
1.95898
1.86816
1.80596
1.75536
1.72561
1.70574
1.72227
1.78654
1.89638
2.02006
2.14438
2.23155
2.31799
2.34746
2.42477
2.92483
2.80161
2.65337
2.49633
2.33937
2.18829
2.05635
1.9472
1.86952
1.80445
1.76351
1.73631
1.74639
1.81024
1.92529
2.06609
2.20513
2.303
2.39594
2.42296
2.5056
2.95637
2.8481
2.72369
2.58253
2.43738
2.29649
2.16072
2.03789
1.9437
1.868
1.81799
1.78072
1.77999
1.84077
1.96211
2.11634
2.26702
2.37534
2.47586
2.50036
2.59783
2.9787
2.88265
2.77382
2.65078
2.52111
2.39363
2.26666
2.14123
2.04159
1.9581
1.89636
1.85005
1.83282
1.88612
2.00945
2.18046
2.33532
2.45244
2.55852
2.58643
2.69433
2.99503
2.90473
2.8075
2.70114
2.58236
2.4692
2.36069
2.24376
2.1375
2.04683
1.98027
1.92804
1.89126
1.93376
2.05842
2.25323
2.41965
2.54355
2.64721
2.67691
2.8055
3.01019
2.92208
2.83126
2.73483
2.62412
2.51837
2.42588
2.32565
2.2227
2.13218
2.06502
2.00813
1.95855
1.9796
2.10715
2.33048
2.52194
2.65179
2.74831
2.78056
2.92749
3.02601
2.93837
2.85125
2.7626
2.65799
2.55693
2.46938
2.38432
2.28981
2.20096
2.13391
2.08058
2.0223
2.02858
2.13789
2.3838
2.62674
2.77658
2.86578
2.90397
3.04855
3.04278
2.9552
2.86828
2.7854
2.68969
2.59065
2.50074
2.42719
2.3382
2.25244
2.18264
2.13831
2.07634
2.07496
2.14244
2.40818
2.71689
2.90966
3.00023
3.03968
3.17099
3.05991
2.97309
2.88641
2.80624
2.71683
2.61948
2.53288
2.46652
2.38464
2.29557
2.22011
2.17729
2.12053
2.10531
2.1427
2.39897
2.76084
3.03359
3.13968
3.19264
3.24992
3.07663
2.99134
2.90484
2.82528
2.74174
2.64864
2.55785
2.4865
2.41952
2.33937
2.25234
2.2047
2.15495
2.12971
2.14774
2.34367
2.76935
3.12959
3.27651
3.30916
3.30603
3.09138
3.0086
2.92236
2.84316
2.76282
2.67541
2.58206
2.50948
2.4447
2.37747
2.28585
2.23722
2.18882
2.15056
2.1578
2.28149
2.74627
3.1768
3.38394
3.38397
2.94373
3.10449
3.0244
2.93878
2.85905
2.78024
2.69855
2.6076
2.53045
2.46443
2.40642
2.32414
2.25882
2.21085
2.16774
2.16607
2.23792
2.6686
3.19312
3.45485
3.42731
3.0236
3.11761
3.03906
2.95477
2.87419
2.79575
2.7173
2.63246
2.55158
2.48313
2.42725
2.35734
2.282
2.23109
2.1885
2.17316
2.21172
2.55532
3.19623
3.48565
3.45573
3.10348
3.1319
3.05396
2.97088
2.88932
2.81127
2.73341
2.65466
2.57425
2.50091
2.44305
2.38295
2.30993
2.24877
2.20655
2.18232
2.1994
2.4452
3.14954
3.49512
3.46822
3.17372
3.14752
3.06969
2.98787
2.90656
2.82793
2.74934
2.67429
2.59801
2.52115
2.45748
2.40195
2.3357
2.26954
2.21679
2.19085
2.19919
2.35723
3.04504
3.51166
3.48624
3.2242
3.16381
3.08667
3.00584
2.92459
2.84665
2.76841
2.69167
2.61936
2.54464
2.47392
2.41617
2.3584
2.29461
2.23102
2.19817
2.20211
2.295
2.91734
3.50875
3.48001
3.24657
3.18004
3.10384
3.0245
2.94419
2.86708
2.78965
2.71106
2.64021
2.56991
2.49467
2.42998
2.37764
2.32098
2.25206
2.20443
2.20417
2.25467
2.78918
3.48295
3.45133
3.25289
3.19515
3.12012
3.04309
2.96397
2.88728
2.8126
2.73399
2.6583
2.59183
2.52043
2.44859
2.39079
2.34196
2.27789
2.21801
2.20551
2.23113
2.65806
3.4181
3.41806
3.26126
3.20892
3.13486
3.0599
2.98245
2.90618
2.83389
2.75699
2.6786
2.61095
2.54644
2.47096
2.40696
2.3596
2.30522
2.23687
2.20853
2.22126
2.52652
3.31728
3.40443
3.27001
3.2218
3.14829
3.07488
2.99939
2.92308
2.85216
2.77901
2.70122
2.6277
2.56899
2.49836
2.42816
2.37252
2.32828
2.26086
2.2148
2.22059
2.41729
3.19301
3.39161
3.27467
3.23451
3.16129
3.08869
3.01502
2.93877
2.86762
2.79754
2.72291
2.64649
2.585
2.52279
2.45222
2.38843
2.34424
2.28517
2.22648
2.22444
2.3375
3.05954
3.37593
3.27467
3.24742
3.17455
3.10207
3.02986
2.95431
2.88196
2.81352
2.74335
2.66635
2.59974
2.54341
2.47836
2.40751
2.35851
2.30749
2.24616
2.22849
2.28734
2.91134
3.35451
3.26822
3.26077
3.18848
3.11595
3.04471
2.97059
2.89709
2.82811
2.76188
2.6876
2.61601
2.55828
2.50136
2.43138
2.3742
2.32527
2.26651
2.23627
2.26357
2.75993
3.32694
3.25279
3.2743
3.20301
3.13063
3.05987
2.98737
2.91382
2.84334
2.77863
2.70912
2.63459
2.57314
2.5207
2.45767
2.39188
2.34356
2.28758
2.24707
2.2569
2.61775
3.29316
3.22381
3.28761
3.21755
3.1458
3.07553
3.00466
2.93233
2.86042
2.79492
2.73019
2.65713
2.58959
2.53689
2.48261
2.41514
2.36124
2.30635
2.26105
2.25959
2.49585
3.22564
3.18839
3.30056
3.23163
3.16105
3.09146
3.02189
2.95114
2.87937
2.81183
2.74939
2.68044
2.60962
2.55232
2.50288
2.43975
2.38097
2.32432
2.27546
2.26465
2.40388
3.11119
3.16913
3.31338
3.24526
3.17585
3.10682
3.03815
2.96941
2.89885
2.82893
2.76728
2.70349
2.63205
2.56819
2.52072
2.46459
2.40185
2.34225
2.29085
2.27073
2.34427
2.96467
3.16004
3.32627
3.25851
3.19014
3.12173
3.05333
2.98577
2.91717
2.84694
2.78285
2.72247
2.65438
2.58677
2.53424
2.48422
2.42333
2.36117
2.30585
2.27834
2.31362
2.81053
3.1444
3.33963
3.27198
3.20426
3.13619
3.06766
3.00069
2.93392
2.86381
2.79771
2.73874
2.67526
2.60538
2.54768
2.50105
2.44429
2.38077
2.32173
2.28805
2.30109
2.66021
3.12962
3.35333
3.28582
3.2184
3.15058
3.08209
3.01474
2.94903
2.88052
2.81304
2.75237
2.69268
2.62568
2.56207
2.51419
2.4628
2.40337
2.33825
2.29834
2.30228
2.53197
3.09039
3.36731
3.30002
3.2329
3.16525
3.09693
3.02933
2.96377
2.89679
2.82879
2.7666
2.70831
2.64515
2.57804
2.52728
2.48022
2.42537
2.35912
2.31179
2.30416
2.4379
3.00194
3.38126
3.31442
3.24766
3.18029
3.11236
3.04483
2.97877
2.91311
2.84629
2.78199
2.72291
2.66401
2.59819
2.54092
2.49669
2.44709
2.38332
2.32515
2.30749
2.38002
2.86825
3.3949
3.3288
3.26242
3.19564
3.1282
3.06109
2.99495
2.92988
2.86405
2.79942
2.73864
2.68118
2.61941
2.55904
2.51214
2.46686
2.40861
2.34228
2.31296
2.34824
2.72132
3.40829
3.34304
3.27716
3.21093
3.14419
3.07773
3.01171
2.94704
2.8823
2.81796
2.75581
2.69825
2.641
2.58012
2.52922
2.48376
2.43224
2.36356
2.31999
2.33157
2.59245
3.42144
3.35704
3.29164
3.22607
3.16
3.09399
3.02848
2.96458
2.89968
2.83633
2.77464
2.71575
2.6603
2.60116
2.54777
2.4992
2.45105
2.38491
2.3311
2.33172
2.49077
3.43463
3.37099
3.30603
3.2408
3.17564
3.10995
3.04446
2.98154
2.91712
2.85355
2.79303
2.73365
2.67816
2.62069
2.56509
2.5148
2.46739
2.40602
2.34595
2.33206
2.42101
3.44792
3.38486
3.32034
3.25549
3.19101
3.12572
3.06014
2.9977
2.93411
2.86989
2.81065
2.75123
2.69463
2.6376
2.5824
2.53016
2.48162
2.42653
2.36105
2.33544
2.38129
3.46144
3.39879
3.33472
3.27021
3.20633
3.14147
3.07589
3.01343
2.95084
2.88635
2.82717
2.76766
2.71105
2.65385
2.59767
2.54595
2.4965
2.44479
2.37991
2.34224
2.36127
3.47499
3.41272
3.34916
3.28517
3.22179
3.15743
3.09225
3.02954
2.96764
2.90301
2.84398
2.78425
2.72619
2.67075
2.61315
2.56182
2.5112
2.4633
2.40041
2.35279
2.35825
3.48843
3.42654
3.36363
3.30026
3.23742
3.17352
3.10918
3.04612
2.98466
2.92046
2.86079
2.80133
2.74205
2.68768
2.62944
2.57789
2.52762
2.48046
2.42399
2.36647
2.35937
3.50158
3.44024
3.37806
3.31539
3.25312
3.18983
3.12626
3.06344
3.00198
2.93845
2.8783
2.81968
2.75848
2.7049
2.64815
2.59428
2.54534
2.49714
2.44758
2.38256
2.36475
3.51429
3.45364
3.39228
3.3303
3.26861
3.20606
3.14324
3.08046
3.01931
2.95702
2.89578
2.83798
2.7769
2.72242
2.66638
2.61284
2.56361
2.5154
2.46792
2.40311
2.37469
3.52672
3.46682
3.40637
3.34508
3.28387
3.22202
3.15983
3.09723
3.03613
2.97517
2.91396
2.85596
2.79597
2.74062
2.68564
2.63108
2.58263
2.53388
2.48649
2.42613
2.38331
3.53875
3.47971
3.41997
3.35945
3.29871
3.23739
3.17589
3.11338
3.05248
2.99247
2.93191
2.87342
2.81464
2.759
2.70456
2.64939
2.59971
2.55287
2.50484
2.44789
2.39408
3.55075
3.4924
3.43346
3.37366
3.31347
3.25248
3.19167
3.12952
3.06862
3.00915
2.94938
2.89105
2.83242
2.77692
2.72266
2.66787
2.61648
2.56916
2.52382
2.47121
2.4113
3.56248
3.50472
3.44637
3.38748
3.32787
3.26718
3.2071
3.14546
3.08477
3.02551
2.96657
2.90785
2.84991
2.79422
2.74018
2.68464
2.63408
2.58593
2.54099
2.49486
2.43728
3.57446
3.51706
3.45933
3.40119
3.34228
3.28206
3.22268
3.1618
3.10127
3.04224
2.98358
2.92504
2.867
2.81106
2.75735
2.70205
2.65151
2.60402
2.56079
2.5174
2.4631
3.58622
3.5292
3.47198
3.41462
3.35635
3.29674
3.23829
3.17818
3.11791
3.0591
3.0008
2.94186
2.88385
2.82859
2.77442
2.72008
2.67107
2.62425
2.58205
2.5404
2.4897
3.59827
3.54168
3.48499
3.42808
3.37047
3.31167
3.25399
3.19472
3.13482
3.07616
3.01774
2.95913
2.90121
2.84632
2.79338
2.74022
2.69278
2.64707
2.60513
2.56224
2.51476
3.61021
3.55414
3.49799
3.44144
3.38439
3.32648
3.26945
3.21075
3.15127
3.09301
3.03446
2.97602
2.91905
2.86552
2.81386
2.76267
2.71669
2.6713
2.62708
2.58309
2.535
3.6222
3.56685
3.51118
3.45494
3.39843
3.34144
3.28457
3.22631
3.16735
3.10929
3.05112
2.99357
2.93824
2.88645
2.83647
2.78718
2.74098
2.69494
2.64713
2.60185
2.55066
3.63402
3.57952
3.52434
3.46845
3.41248
3.3561
3.29918
3.24104
3.18279
3.12533
3.06801
3.01191
2.95922
2.90915
2.86033
2.81159
2.76419
2.7148
2.66463
2.61661
2.56445
3.6455
3.59194
3.53743
3.48192
3.42647
3.37038
3.3133
3.25541
3.19816
3.14178
3.08583
3.03201
2.98221
2.93312
2.88379
2.83374
2.78412
2.73161
2.67914
2.62778
2.5773
3.65672
3.60405
3.55033
3.49524
3.4402
3.38421
3.32711
3.26971
3.21422
3.15953
3.1057
3.05451
3.00588
2.95623
2.90504
2.85313
2.80015
2.74549
2.69021
2.63752
2.58739
3.66717
3.61551
3.56263
3.50817
3.45341
3.39773
3.34107
3.28512
3.23205
3.17953
3.12742
3.07778
3.02881
2.97711
2.92352
2.869
2.81274
2.75672
2.70055
2.64687
2.5976
3.67693
3.62629
3.5741
3.52045
3.4663
3.41156
3.35625
3.30282
3.25227
3.20178
3.15092
3.1011
3.0491
2.99477
2.93874
2.88189
2.82387
2.76637
2.71125
2.65754
2.60823
3.68582
3.63594
3.58454
3.53205
3.47934
3.42637
3.37374
3.32348
3.27504
3.22496
3.17341
3.1215
3.06651
3.00879
2.95062
2.89245
2.83414
2.77639
2.7225
2.67077
2.62335
3.69414
3.64458
3.59419
3.54341
3.49321
3.44329
3.39446
3.34685
3.29826
3.24647
3.19291
3.13737
3.07924
3.01956
2.96088
2.9024
2.84444
2.78831
2.73601
2.68633
2.64129
3.7021
3.65267
3.60377
3.55592
3.50931
3.46295
3.41708
3.37003
3.31961
3.26475
3.20748
3.14921
3.08947
3.02919
2.97039
2.91243
2.85553
2.8021
2.75224
2.70542
2.66177
3.71014
3.66136
3.61502
3.57091
3.52777
3.48403
3.43919
3.39008
3.33594
3.2781
3.21874
3.15868
3.09795
3.03799
2.98016
2.92356
2.8689
2.8184
2.77116
2.7265
2.68356
3.71974
3.67275
3.62973
3.5891
3.54806
3.50414
3.45642
3.4038
3.347
3.28765
3.22747
3.16691
3.10626
3.04775
2.99151
2.93702
2.88484
2.83742
2.79215
2.7479
2.70421
3.7326
3.68877
3.64887
3.60927
3.5661
3.51899
3.46747
3.41176
3.35343
3.29437
3.23505
3.17529
3.11574
3.05919
3.00555
2.95364
2.90394
2.85834
2.81326
2.76774
2.72247
3.75105
3.7101
3.67004
3.62713
3.57942
3.52756
3.47256
3.41569
3.35758
3.29969
3.2421
3.18447
3.12756
3.07396
3.02297
2.97312
2.92515
2.8796
2.83366
2.78646
2.7398
3.77427
3.73298
3.68895
3.6394
3.58619
3.53106
3.47468
3.41784
3.36089
3.30508
3.25036
3.19593
3.1425
3.09186
3.04274
2.99385
2.94612
2.89977
2.85273
2.80455
2.75705
3.79906
3.75224
3.70045
3.64512
3.5883
3.53173
3.47566
3.41993
3.36517
3.31246
3.26115
3.21003
3.16019
3.11188
3.06334
3.0141
2.96557
2.91784
2.86987
2.82195
2.77458
3.81774
3.76321
3.70493
3.64624
3.58862
3.53225
3.47744
3.42392
3.37222
3.32312
3.27515
3.22692
3.17914
3.13156
3.08264
3.03245
2.98323
2.93486
2.88666
2.83902
2.79261
3.82794
3.76678
3.70566
3.64647
3.58946
3.53455
3.48197
3.43153
3.38363
3.33778
3.29177
3.24461
3.19715
3.14939
3.09995
3.04946
3.00009
2.95167
2.90358
2.85661
2.81107
3.83039
3.76763
3.70659
3.64799
3.59245
3.54069
3.4916
3.4444
3.39876
3.35398
3.30808
3.26062
3.21292
3.16495
3.11536
3.06523
3.01675
2.96902
2.92135
2.87474
2.82931
3.83019
3.76792
3.70855
3.65297
3.60115
3.55292
3.50621
3.46033
3.41493
3.36967
3.32295
3.27457
3.22663
3.17892
3.12978
3.08076
3.03365
2.98682
2.93957
2.8931
2.84755
3.82925
3.76947
3.71472
3.66392
3.61587
3.56975
3.52343
3.47667
3.43015
3.38354
3.33559
3.28707
3.23953
3.1923
3.14385
3.09605
3.05026
3.00431
2.95749
2.91107
2.86523
3.83096
3.77665
3.72708
3.6804
3.63461
3.58837
3.5402
3.49137
3.44348
3.39603
3.34747
3.29912
3.25238
3.20581
3.15816
3.11149
3.06676
3.02111
2.97437
2.92812
2.88208
3.83944
3.792
3.74618
3.7001
3.65331
3.60526
3.5552
3.50532
3.45657
3.40807
3.35931
3.31154
3.26591
3.21968
3.17271
3.12671
3.08226
3.03652
2.99002
2.94397
2.89781
1.41538
0.943692
0.708998
0.691792
0.730315
0.784913
0.831977
0.879826
0.910345
0.925581
0.932076
0.930022
0.921839
0.922235
0.929972
0.939251
0.951254
0.960008
0.967029
0.971626
0.977964
0.987148
0.993654
0.995377
0.996847
0.998694
1.00011
1.0012
1.00294
1.00453
1.00357
1.00253
1.00379
1.0048
1.00534
1.00587
1.00578
1.0052
1.0054
1.00623
1.00743
1.00806
1.00824
1.009
1.01135
1.01547
1.01961
1.02176
1.02239
1.02304
1.02394
1.0245
1.02548
1.02829
1.03363
1.0401
1.0457
1.05045
1.05444
1.0577
1.06082
1.06445
1.06859
1.07297
1.07673
1.07954
1.08173
1.08369
1.08598
1.08944
1.09456
1.10077
1.10597
1.10627
1.10446
1.10211
1.1003
1.09914
1.09878
1.10124
1.10806
1.11334
1.11254
1.11057
1.10721
1.10252
1.10034
1.09969
1.09971
1.10346
1.1112
1.11479
1.1146
1.11371
1.11151
1.10862
1.10648
1.10502
1.10416
1.10421
1.10721
1.11091
1.11189
1.11159
1.11126
1.11131
1.11128
1.11049
1.10963
1.10886
1.10788
1.10672
1.10566
1.10495
1.1047
1.10459
1.10365
1.10179
1.09827
1.093
1.08829
1.08492
1.08282
1.0818
1.08138
1.08236
1.08531
1.08803
1.0898
1.09092
1.0909
1.08996
1.08743
1.08176
1.07425
1.06974
1.06732
1.06626
1.06629
1.06699
1.06884
1.07197
1.07522
1.07655
1.07697
1.07497
1.07173
1.06973
1.06852
1.06761
1.06736
1.06787
1.06879
1.06982
1.0701
1.06727
1.06319
1.0608
1.05926
1.05774
1.05597
1.05454
1.0538
1.05307
1.0513
1.04665
1.03964
1.03471
1.03317
1.03316
1.03371
1.03443
1.03503
1.03425
1.0322
1.0322
1.03298
1.03475
1.03853
1.04284
1.04637
1.04979
1.05383
1.05809
1.06142
1.06266
1.06245
1.06227
1.06343
1.06585
1.06824
1.07068
1.07415
1.07992
1.08738
1.09353
1.09628
1.09692
1.09773
1.09828
1.09793
1.09783
1.09915
1.10219
1.10712
1.11473
1.12414
1.12992
1.12944
1.12546
1.12097
1.11883
1.11758
1.11858
1.12538
1.13212
1.13328
1.13281
1.13198
1.13083
1.12894
1.12774
1.12735
1.12998
1.13547
1.13677
1.13606
1.13475
1.13249
1.13068
1.90953
1.46633
1.17287
1.01879
0.971807
0.91261
0.886172
0.889144
0.894117
0.90605
0.921033
0.928272
0.927396
0.930257
0.938867
0.951709
0.964321
0.972624
0.979394
0.988258
0.998723
1.00702
1.01183
1.01208
1.01132
1.01112
1.01172
1.01262
1.01329
1.01262
1.01048
1.01082
1.01176
1.01211
1.01226
1.01121
1.00995
1.00916
1.0096
1.01125
1.01341
1.01569
1.01763
1.01869
1.01939
1.01977
1.01949
1.02001
1.0223
1.0253
1.02877
1.03275
1.03647
1.03934
1.04141
1.04302
1.04483
1.04773
1.05207
1.05746
1.06356
1.07011
1.07664
1.08208
1.08537
1.08615
1.0862
1.08636
1.08719
1.08974
1.09472
1.10203
1.10934
1.11128
1.11009
1.10789
1.10544
1.10357
1.10263
1.10297
1.10647
1.11084
1.11316
1.1128
1.11141
1.10933
1.10775
1.10698
1.10682
1.10921
1.11463
1.11788
1.11799
1.11716
1.11576
1.11505
1.11451
1.11394
1.11322
1.11302
1.11379
1.11318
1.11179
1.11055
1.10967
1.10923
1.10926
1.11031
1.11084
1.1096
1.1079
1.10628
1.10473
1.10341
1.10273
1.10239
1.10131
1.10016
1.09891
1.09759
1.09627
1.09451
1.09243
1.09049
1.08917
1.08859
1.08884
1.08944
1.08916
1.08832
1.0875
1.08608
1.08352
1.08073
1.07973
1.07875
1.07688
1.07446
1.07174
1.06976
1.06995
1.07126
1.07282
1.07492
1.07624
1.07668
1.07718
1.07724
1.07626
1.0745
1.07229
1.07035
1.06951
1.06922
1.06834
1.06708
1.06584
1.06529
1.06489
1.06405
1.06229
1.05965
1.05724
1.05514
1.05261
1.0491
1.04529
1.04253
1.04039
1.03857
1.03702
1.03594
1.0348
1.03405
1.03489
1.03602
1.03722
1.03894
1.04178
1.04502
1.04703
1.04874
1.05082
1.05382
1.05779
1.06259
1.06694
1.07022
1.07195
1.07219
1.07191
1.07199
1.07341
1.07654
1.08083
1.08625
1.09273
1.09915
1.10348
1.10547
1.10581
1.10527
1.10487
1.10552
1.10795
1.11163
1.116
1.12082
1.12481
1.12634
1.12568
1.12494
1.1248
1.12679
1.13164
1.13382
1.13318
1.13176
1.13002
1.12905
1.12875
1.12874
1.13026
1.13465
1.13754
1.13715
1.13612
1.13392
1.13129
1.1303
2.24456
1.79829
1.47965
1.24614
1.12199
1.02799
0.943952
0.903364
0.911626
0.931501
0.950532
0.96011
0.971279
0.980809
0.995603
1.01417
1.02212
1.02581
1.02522
1.02791
1.0338
1.0388
1.04198
1.04432
1.04695
1.04904
1.05037
1.05027
1.0454
1.03459
1.0279
1.02769
1.02858
1.0318
1.03668
1.03852
1.03845
1.03622
1.03114
1.02784
1.02709
1.0281
1.03269
1.03941
1.04331
1.0434
1.04191
1.03879
1.03699
1.03642
1.0377
1.04354
1.05295
1.06133
1.065
1.06562
1.06592
1.06646
1.06753
1.06995
1.07496
1.08339
1.09318
1.10055
1.10435
1.10567
1.10594
1.1057
1.10562
1.1065
1.10907
1.11452
1.12191
1.12554
1.12558
1.12518
1.12482
1.12416
1.12338
1.12294
1.12327
1.12449
1.12413
1.123
1.12137
1.12049
1.12033
1.12051
1.12178
1.12543
1.12942
1.12995
1.12923
1.12747
1.12545
1.12488
1.125
1.12624
1.12903
1.13247
1.13338
1.13206
1.12963
1.12584
1.12135
1.11865
1.11728
1.11714
1.11923
1.12071
1.12019
1.11897
1.11736
1.11475
1.11094
1.10744
1.10497
1.10333
1.10256
1.10294
1.10392
1.10427
1.10437
1.10476
1.10546
1.10563
1.10477
1.10296
1.09967
1.09496
1.08993
1.08562
1.08309
1.08272
1.08473
1.08751
1.08878
1.089
1.08845
1.0866
1.08328
1.07873
1.07484
1.07392
1.07533
1.07876
1.08309
1.08643
1.08861
1.09016
1.09058
1.08797
1.08147
1.07375
1.06845
1.06739
1.06838
1.06942
1.07046
1.07133
1.07152
1.06991
1.06531
1.05848
1.05139
1.04872
1.04934
1.05105
1.05263
1.05313
1.05103
1.04457
1.03619
1.03389
1.03554
1.03919
1.04434
1.04968
1.05307
1.05397
1.05355
1.05072
1.04944
1.05091
1.05366
1.05842
1.06733
1.07674
1.0823
1.0846
1.08494
1.08445
1.08391
1.08315
1.08242
1.08405
1.09164
1.10205
1.10948
1.11343
1.11576
1.11749
1.11915
1.12072
1.12166
1.12143
1.12049
1.1209
1.12464
1.12893
1.13115
1.13257
1.13497
1.14014
1.1449
1.14487
1.14332
1.14041
1.1359
1.13293
1.13211
1.13218
1.13629
1.14385
1.14612
1.1454
1.14355
1.13908
1.13385
1.13195
2.49024
2.08576
1.76584
1.50039
1.33455
1.22215
1.10424
1.01059
0.99561
0.969944
0.960951
0.965777
0.98451
1.00642
1.02784
1.05999
1.07623
1.07791
1.07878
1.08307
1.0837
1.08474
1.08928
1.09375
1.09794
1.10096
1.10287
1.10263
1.09631
1.08324
1.075
1.07338
1.07281
1.07329
1.07403
1.07402
1.07356
1.07102
1.06583
1.06225
1.06117
1.06104
1.06392
1.06952
1.07242
1.07237
1.07129
1.07044
1.0698
1.06896
1.06885
1.07284
1.08181
1.08829
1.09074
1.09241
1.09413
1.09592
1.09791
1.10036
1.1045
1.11235
1.1214
1.1267
1.12908
1.13047
1.13157
1.13267
1.13377
1.13507
1.13748
1.14241
1.14808
1.14955
1.14904
1.14745
1.14642
1.14627
1.14638
1.14691
1.14881
1.15195
1.15267
1.15208
1.1503
1.1475
1.1464
1.14623
1.1471
1.15077
1.15517
1.1563
1.15574
1.15415
1.15162
1.14965
1.14879
1.1484
1.14967
1.15273
1.15324
1.15221
1.1506
1.14799
1.14474
1.14207
1.14007
1.13883
1.13852
1.13842
1.13789
1.13719
1.13618
1.13456
1.1322
1.12982
1.12819
1.12702
1.12644
1.12594
1.12485
1.1237
1.12295
1.12261
1.12228
1.12188
1.12092
1.1192
1.11662
1.11316
1.10922
1.10634
1.10501
1.10462
1.10512
1.10578
1.10606
1.10617
1.10631
1.10613
1.10441
1.10071
1.09643
1.09432
1.09476
1.09629
1.09812
1.10005
1.10242
1.1047
1.10636
1.10671
1.10409
1.09909
1.09546
1.09377
1.09232
1.09058
1.08895
1.08796
1.08725
1.08551
1.0812
1.07365
1.06517
1.06135
1.06135
1.0624
1.06511
1.06717
1.06743
1.06335
1.0544
1.05046
1.05039
1.05167
1.0558
1.06193
1.06558
1.0666
1.06673
1.06463
1.06192
1.0611
1.06137
1.06454
1.07363
1.08417
1.09082
1.09389
1.09543
1.09645
1.09701
1.09694
1.09692
1.09943
1.10698
1.11658
1.12268
1.12562
1.12756
1.1294
1.13129
1.13302
1.13422
1.13519
1.1366
1.13906
1.14218
1.14468
1.14606
1.14724
1.14969
1.15418
1.15694
1.15649
1.15518
1.15304
1.14985
1.14741
1.14633
1.1463
1.15019
1.15586
1.15665
1.15597
1.15436
1.15071
1.14663
1.14459
2.66817
2.31141
2.00391
1.73441
1.54185
1.40209
1.26051
1.14123
1.08948
1.03919
0.993485
0.986655
0.995809
1.01163
1.03474
1.06703
1.09707
1.11039
1.13062
1.14936
1.14868
1.14395
1.14171
1.14458
1.14958
1.15311
1.15474
1.15298
1.14375
1.13205
1.12445
1.12204
1.12115
1.12064
1.11961
1.11833
1.11556
1.11032
1.10674
1.10561
1.10516
1.10639
1.1108
1.11399
1.11332
1.11148
1.10824
1.10611
1.10546
1.10561
1.10803
1.11569
1.12491
1.12793
1.12844
1.12873
1.129
1.12974
1.13146
1.13499
1.14211
1.15362
1.16215
1.16408
1.16452
1.16476
1.16488
1.16507
1.16535
1.16638
1.17014
1.17751
1.18323
1.18404
1.18359
1.18161
1.17909
1.1781
1.17776
1.17785
1.17977
1.18343
1.185
1.18522
1.18507
1.18381
1.18331
1.18333
1.18373
1.18517
1.18649
1.18689
1.18655
1.18499
1.1828
1.18204
1.1816
1.1814
1.18198
1.18168
1.18043
1.17899
1.17681
1.17347
1.17102
1.16982
1.16887
1.16794
1.16637
1.16464
1.16282
1.16053
1.15794
1.15586
1.15449
1.15362
1.15317
1.154
1.15609
1.15698
1.15661
1.1557
1.15396
1.15091
1.14675
1.14254
1.13892
1.13583
1.13327
1.13166
1.13109
1.13122
1.13266
1.13413
1.13451
1.13436
1.13399
1.13334
1.13211
1.13016
1.12738
1.12366
1.12179
1.1228
1.12479
1.12655
1.12774
1.12845
1.1286
1.12779
1.12627
1.12496
1.12452
1.12545
1.12695
1.12803
1.1283
1.12785
1.12663
1.1245
1.12104
1.11546
1.10759
1.09996
1.09635
1.09545
1.09419
1.09199
1.09003
1.08877
1.08679
1.08162
1.0767
1.07642
1.07722
1.07906
1.08194
1.08387
1.08408
1.08363
1.08197
1.08066
1.08037
1.08071
1.08295
1.08885
1.09754
1.10489
1.10896
1.11079
1.11152
1.1118
1.11217
1.11329
1.1165
1.12342
1.13302
1.14069
1.14419
1.14577
1.1469
1.14778
1.14838
1.14887
1.14973
1.15198
1.15676
1.16244
1.16603
1.16795
1.16936
1.17061
1.17191
1.1731
1.17318
1.17247
1.17113
1.16876
1.16644
1.16576
1.16543
1.16655
1.17094
1.17289
1.17214
1.1707
1.16796
1.16344
1.16073
1.16006
2.79493
2.48468
2.20247
1.93789
1.7417
1.58603
1.43716
1.30398
1.23467
1.17107
1.10545
1.05699
1.05112
1.04088
1.04108
1.05242
1.07743
1.10081
1.12652
1.16209
1.18919
1.19769
1.1989
1.19961
1.19843
1.19582
1.19373
1.18911
1.1811
1.17587
1.17109
1.16862
1.16757
1.16693
1.16519
1.16258
1.15744
1.15045
1.14797
1.14707
1.14659
1.14836
1.15222
1.15358
1.15248
1.14995
1.14617
1.14392
1.14349
1.14371
1.14702
1.15579
1.16308
1.16478
1.16509
1.16488
1.16492
1.1654
1.16662
1.17003
1.17832
1.18993
1.19526
1.19581
1.19576
1.19511
1.19493
1.19479
1.19453
1.19532
1.20037
1.20838
1.21174
1.21166
1.21088
1.20836
1.20581
1.20523
1.20521
1.20611
1.20983
1.21522
1.21714
1.21749
1.21742
1.21615
1.21595
1.21642
1.21723
1.21864
1.21941
1.21922
1.2186
1.21704
1.21446
1.21313
1.21259
1.21264
1.21255
1.21146
1.21023
1.20872
1.20657
1.20383
1.20159
1.20007
1.19875
1.19722
1.19538
1.19307
1.19007
1.18676
1.18423
1.1829
1.18214
1.1818
1.18238
1.18409
1.18517
1.1849
1.18405
1.18279
1.18006
1.17495
1.16947
1.16562
1.16303
1.16124
1.16016
1.15974
1.15994
1.16068
1.1612
1.16106
1.1607
1.16031
1.16002
1.15985
1.15945
1.15846
1.15649
1.15281
1.15008
1.15059
1.152
1.15384
1.15579
1.15752
1.1588
1.15925
1.15861
1.15846
1.15972
1.16117
1.16251
1.16375
1.16478
1.16543
1.16525
1.1628
1.15681
1.1468
1.13637
1.13215
1.13185
1.13208
1.13202
1.13101
1.12851
1.12511
1.1203
1.11371
1.11034
1.11038
1.11148
1.11442
1.11734
1.11763
1.11668
1.11385
1.10987
1.10824
1.10778
1.10857
1.11251
1.11877
1.12476
1.12926
1.13249
1.13481
1.13633
1.13733
1.13841
1.1409
1.14648
1.15435
1.16095
1.1641
1.16471
1.16491
1.16549
1.1663
1.16718
1.16856
1.17135
1.17623
1.18249
1.18809
1.19091
1.19159
1.1915
1.19101
1.19013
1.18943
1.18924
1.189
1.18846
1.18662
1.18471
1.18448
1.1855
1.18886
1.19202
1.19178
1.19058
1.18868
1.18512
1.18013
1.1777
1.17707
2.89308
2.62198
2.36529
2.11627
1.92279
1.76616
1.60247
1.46641
1.385
1.30791
1.22033
1.14741
1.12375
1.09163
1.06008
1.05608
1.06822
1.08725
1.10959
1.14357
1.18767
1.21414
1.23877
1.2501
1.24665
1.23695
1.22176
1.20916
1.20676
1.20734
1.20753
1.20804
1.20855
1.20791
1.20505
1.19948
1.18941
1.18247
1.18167
1.18144
1.18231
1.18525
1.1875
1.18752
1.18631
1.18304
1.17882
1.17727
1.17733
1.17931
1.18555
1.19361
1.19677
1.19732
1.19669
1.19493
1.19461
1.19522
1.19694
1.20196
1.21175
1.2197
1.22131
1.22136
1.21994
1.21746
1.21681
1.21681
1.21703
1.21935
1.22645
1.23289
1.23361
1.23305
1.23121
1.22766
1.22564
1.22548
1.22597
1.22851
1.23491
1.24137
1.2431
1.24371
1.24382
1.24278
1.24278
1.24344
1.24428
1.24584
1.2469
1.24681
1.24617
1.24468
1.24209
1.23956
1.23862
1.23788
1.23657
1.23474
1.23292
1.23106
1.22904
1.22737
1.22625
1.22514
1.22383
1.22227
1.22027
1.21716
1.2125
1.2092
1.20812
1.20748
1.20713
1.20726
1.20796
1.2076
1.20651
1.20534
1.20403
1.20195
1.19754
1.19137
1.18722
1.18535
1.18447
1.18419
1.18444
1.18487
1.18464
1.18416
1.18376
1.18348
1.18329
1.18305
1.18275
1.1825
1.18231
1.18202
1.18098
1.17837
1.17599
1.17632
1.17789
1.17938
1.18052
1.18152
1.18206
1.18226
1.18357
1.18588
1.18972
1.19405
1.19751
1.20059
1.20299
1.20368
1.20115
1.19524
1.18707
1.17758
1.17175
1.17068
1.17049
1.17034
1.16993
1.16912
1.16691
1.16315
1.15889
1.15484
1.15204
1.1512
1.15095
1.15113
1.15152
1.15082
1.14906
1.14711
1.14624
1.14586
1.14594
1.14746
1.14997
1.1519
1.15326
1.15492
1.15711
1.15956
1.16215
1.16495
1.16857
1.17403
1.18064
1.18536
1.18654
1.18588
1.18358
1.18129
1.18072
1.18137
1.1833
1.18765
1.19526
1.20402
1.20985
1.21158
1.21127
1.20903
1.20528
1.20211
1.20068
1.20037
1.20124
1.20351
1.20445
1.20457
1.20451
1.20524
1.20687
1.20813
1.20759
1.20621
1.20438
1.20188
1.19806
1.19409
1.19265
1.19236
2.97688
2.73864
2.50523
2.27975
2.08724
1.92706
1.76371
1.62547
1.53
1.44382
1.34549
1.26759
1.22562
1.17984
1.12661
1.0997
1.1002
1.09948
1.1049
1.12582
1.16802
1.20671
1.23467
1.26444
1.27157
1.26746
1.25286
1.2377
1.23435
1.23503
1.23686
1.23805
1.24023
1.24114
1.23864
1.22954
1.21619
1.21021
1.20883
1.20859
1.21003
1.21251
1.21407
1.21448
1.21364
1.2094
1.20529
1.20444
1.205
1.20932
1.21757
1.22262
1.22335
1.22322
1.22076
1.21805
1.218
1.21885
1.22146
1.2283
1.23673
1.23995
1.24028
1.23976
1.23608
1.23203
1.23095
1.23075
1.23125
1.23517
1.24274
1.24641
1.24633
1.24547
1.24258
1.23883
1.23791
1.23826
1.23976
1.24397
1.252
1.25689
1.25798
1.25874
1.25882
1.25912
1.26035
1.2618
1.26363
1.2664
1.26792
1.2679
1.2673
1.26551
1.26261
1.25893
1.25598
1.25444
1.25273
1.25054
1.24842
1.24711
1.24611
1.2453
1.2448
1.24409
1.24298
1.24157
1.23928
1.2353
1.23019
1.22623
1.22407
1.22287
1.22196
1.22132
1.2211
1.22088
1.22018
1.21917
1.2177