/*--------------------------------*- C++ -*----------------------------------*\
  =========                 |
  \\      /  F ield         | OpenFOAM: The Open Source CFD Toolbox
   \\    /   O peration     | Website:  https://openfoam.org
    \\  /    A nd           | Version:  7
     \\/     M anipulation  |
\*---------------------------------------------------------------------------*/
FoamFile
{
    version     2.0;
    format      ascii;
    class       volVectorField;
    location    "2";
    object      U;
}
// * * * * * * * * * * * * * * * * * * * * * * * * * * * * * * * * * * * * * //

dimensions      [0 1 -1 0 0 0 0];

internalField   nonuniform List<vector> 
16192
(
(3 3.2104e-15 0)
(3 3.01567e-15 0)
(3 2.61503e-15 0)
(3 2.11816e-15 0)
(3 3.22327e-15 0)
(3 3.47765e-15 0)
(3 3.42043e-15 0)
(3 3.75215e-15 0)
(3 4.06473e-15 0)
(3 3.95184e-15 0)
(3 3.36008e-15 0)
(3 1.59479e-15 0)
(3 1.1087e-15 0)
(3 1.1782e-15 0)
(3 1.74863e-15 0)
(3 1.70288e-15 0)
(3 1.75929e-15 0)
(3 2.83977e-15 0)
(3 2.4558e-15 0)
(3 2.54314e-15 0)
(3 1.82924e-15 0)
(3 1.6651e-15 0)
(3 1.16996e-15 0)
(3 1.49996e-15 0)
(3 3.05727e-15 0)
(3 3.10385e-15 0)
(3 2.31067e-15 0)
(3 1.52651e-15 0)
(3 1.61576e-15 0)
(3 -2.33502e-16 0)
(3 -2.49227e-16 0)
(3 -7.01046e-16 0)
(3 -9.19434e-16 0)
(3 -2.05213e-16 0)
(3 4.86033e-16 0)
(3 1.70496e-15 0)
(3 2.75635e-15 0)
(3 2.64116e-15 0)
(3 2.00805e-15 0)
(3 1.95374e-15 0)
(3 1.88915e-15 0)
(3 2.34176e-15 0)
(3 1.10425e-15 0)
(3 2.49114e-16 0)
(3 6.78511e-17 0)
(3 5.71321e-16 0)
(3 8.55622e-16 0)
(3 -1.02597e-16 0)
(3 -1.12877e-15 0)
(3 -2.07481e-15 0)
(3 -3.03359e-15 0)
(3 -4.11105e-15 0)
(3 -4.97365e-15 0)
(3 -3.4759e-15 0)
(3 -2.10514e-15 0)
(3 -1.42513e-15 0)
(3 -1.4456e-15 0)
(3 -1.7518e-15 0)
(3 -1.64303e-15 0)
(3 -8.87056e-16 0)
(3 -6.27667e-16 0)
(3 -8.69437e-16 0)
(3 -1.13032e-15 0)
(3 -1.36856e-15 0)
(3 -1.04038e-15 0)
(3 -1.33679e-15 0)
(3 -2.86584e-16 0)
(3 1.01679e-15 0)
(3 1.37512e-15 0)
(3 9.54772e-16 0)
(3 7.70624e-16 0)
(3 1.10727e-15 0)
(3 1.1597e-15 0)
(3 8.11216e-16 0)
(3 5.39785e-16 0)
(3 2.33818e-15 0)
(3 3.04208e-15 0)
(3 4.43361e-15 0)
(3 5.02367e-15 0)
(3 4.904e-15 0)
(3 3.7123e-15 0)
(3 2.72737e-15 0)
(3 8.81178e-16 0)
(3 -1.76938e-16 0)
(3 -7.84925e-16 0)
(3 -1.17873e-15 0)
(3 -1.55833e-15 0)
(3 -9.66821e-16 0)
(3 1.37934e-15 0)
(3 3.09861e-15 0)
(3 3.41492e-15 0)
(3 2.77177e-15 0)
(3 2.55926e-15 0)
(3 6.84566e-16 0)
(3 2.08259e-16 0)
(3 -2.07078e-15 0)
(3 -5.04773e-15 0)
(3 -6.20611e-15 0)
(3 -5.72723e-15 0)
(3 -4.38197e-15 0)
(3 -2.04977e-15 0)
(3 -1.9567e-15 0)
(3 -2.7142e-15 0)
(3 -5.91848e-15 0)
(3 -6.0945e-15 0)
(3 -5.39229e-15 0)
(3 -5.60961e-15 0)
(3 -3.12298e-15 0)
(3 -1.57495e-15 0)
(3 -1.33247e-15 0)
(3 -4.35438e-16 0)
(3 8.57401e-17 0)
(3 5.9116e-16 0)
(3 2.83189e-17 0)
(3 -1.15115e-15 0)
(3 -2.38155e-15 0)
(3 -2.36481e-15 0)
(3 -2.24612e-15 0)
(3 -8.362e-16 0)
(3 -1.3231e-16 0)
(3 3.01503e-16 0)
(3 -2.07287e-16 0)
(3 -1.42877e-15 0)
(3 -3.89037e-15 0)
(3 -4.41297e-15 0)
(3 -5.06278e-15 0)
(3 -4.59043e-15 0)
(3 -4.41113e-15 0)
(3 -4.42182e-15 0)
(3 -4.81434e-15 0)
(3 -4.70868e-15 0)
(3 -4.57937e-15 0)
(3 -2.28704e-15 0)
(3 -1.5174e-15 0)
(3 -3.18163e-15 0)
(3 -5.00473e-15 0)
(3 -4.82679e-15 0)
(3 -2.36491e-15 0)
(3 -1.45675e-15 0)
(3 8.94709e-16 0)
(3 -3.22672e-16 0)
(3 -4.58877e-16 0)
(3 -4.67355e-16 0)
(3 -1.16965e-15 0)
(3 -1.10138e-15 0)
(3 -6.84931e-16 0)
(3 -7.61734e-16 0)
(3 -6.06973e-16 0)
(3 -1.70192e-16 0)
(3 -1.03818e-16 0)
(3 7.44936e-17 0)
(3 1.524e-16 0)
(3 3.85842e-17 0)
(3 1.57222e-16 0)
(3 6.75238e-16 0)
(3 8.35086e-16 0)
(3 8.13398e-16 0)
(3 1.1233e-15 0)
(3 1.63776e-15 0)
(3 1.46723e-15 0)
(3 1.53806e-15 0)
(3 1.76102e-15 0)
(3 6.38027e-16 0)
(3 -1.49043e-16 0)
(3 2.60567e-16 0)
(3 4.27377e-16 0)
(3 -3.21353e-18 0)
(3 8.00875e-16 0)
(3 1.31781e-15 0)
(3 1.33523e-15 0)
(3 1.43612e-15 0)
(3 4.30464e-16 0)
(3 8.62642e-17 0)
(3 -1.40117e-16 0)
(3 6.31472e-16 0)
(3 1.04567e-15 0)
(3 8.50071e-16 0)
(3 7.5625e-16 0)
(3 -9.09355e-16 0)
(3 -4.68789e-16 0)
(3 -1.96101e-15 0)
(3 -2.55572e-15 0)
(3 -2.62871e-15 0)
(3 -2.61482e-15 0)
(3 -2.65779e-15 0)
(3 -2.19105e-15 0)
(3 -3.32869e-15 0)
(3 -3.55723e-15 0)
(3 -9.29708e-16 0)
(3 3.11197e-15 0)
(3 4.1604e-15 0)
(3 4.77036e-15 0)
(3 4.17074e-15 0)
(3 2.53538e-15 0)
(3 1.69017e-15 0)
(3 1.66157e-15 0)
(3 1.47197e-15 0)
(3 9.35076e-16 0)
(3 6.86694e-16 0)
(3 5.49358e-16 0)
(3 7.86812e-16 0)
(3 1.16026e-15 0)
(3 1.38952e-15 0)
(3 2.04386e-15 0)
(3 2.38483e-15 0)
(3 2.55872e-15 0)
(3 2.55708e-15 0)
(3 1.98758e-15 0)
(3 1.2973e-15 0)
(3 1.32355e-15 0)
(3 1.03765e-15 0)
(3 5.50656e-16 0)
(3 8.24658e-16 0)
(3 7.59091e-16 0)
(3 1.03247e-15 0)
(3 1.2046e-15 0)
(3 1.32362e-15 0)
(3 1.1565e-15 0)
(3 -6.3121e-17 0)
(3 -1.67718e-16 0)
(3 3.7639e-16 0)
(3 1.91375e-16 0)
(3 -4.181e-16 0)
(3 -9.34831e-16 0)
(3 -1.04693e-15 0)
(3 -5.04881e-16 0)
(3 1.49127e-15 0)
(3 3.53404e-15 0)
(3 2.64033e-15 0)
(3 2.38297e-15 0)
(3 2.84853e-15 0)
(3 2.53074e-15 0)
(3 1.4233e-15 0)
(3 6.32131e-16 0)
(3 6.8556e-16 0)
(3 7.21816e-16 0)
(3 1.1329e-15 0)
(3 6.30378e-16 0)
(3 -3.64755e-16 0)
(3 -1.53268e-15 0)
(3 -2.44003e-15 0)
(3 -2.59487e-15 0)
(3 -2.34259e-15 0)
(3 -2.00052e-15 0)
(3 -3.27119e-15 0)
(3 -3.97589e-15 0)
(3 -3.94233e-15 0)
(3 -3.03709e-15 0)
(3 -2.42586e-15 0)
(3 -1.98671e-15 0)
(3 -1.94249e-15 0)
(3 -2.20178e-15 0)
(3 -1.82638e-15 0)
(3 -6.63637e-16 0)
(3 -5.55319e-17 0)
(3 -7.13377e-17 0)
(3 6.24854e-16 0)
(3 2.61856e-15 0)
(3 3.43667e-15 0)
(3 1.34606e-15 0)
(3 5.92708e-16 0)
(3 2.97763e-17 0)
(3 -1.33448e-15 0)
(3 -1.25186e-15 0)
(3 -2.03877e-15 0)
(3 -2.02923e-15 0)
(3 -1.39072e-15 0)
(3 5.9717e-16 0)
(3 1.81056e-15 0)
(3 3.79068e-15 0)
(3 4.3485e-15 0)
(3 5.1112e-15 0)
(3 4.93374e-15 0)
(3 3.50908e-15 0)
(3 1.17385e-15 0)
(3 -6.6757e-16 0)
(3 -1.03421e-15 0)
(3 -1.33825e-15 0)
(3 -2.76661e-15 0)
(3 -1.04296e-15 0)
(3 1.44872e-15 0)
(3 2.3883e-15 0)
(3 3.16839e-15 0)
(3 3.03568e-15 0)
(3 2.69094e-15 0)
(3 1.27432e-15 0)
(3 -1.02989e-15 0)
(3 -3.05536e-15 0)
(3 -4.23445e-15 0)
(3 -3.91905e-15 0)
(3 -4.17339e-15 0)
(3 -4.2759e-15 0)
(3 -2.49386e-15 0)
(3 -1.29827e-15 0)
(3 -9.67027e-16 0)
(3 -2.12182e-15 0)
(3 -3.06331e-15 0)
(3 -4.79654e-15 0)
(3 -6.32229e-15 0)
(3 -3.64236e-15 0)
(3 -1.54914e-15 0)
(3 -9.39632e-16 0)
(3 -5.68021e-16 0)
(3 -2.3431e-16 0)
(3 -5.07734e-16 0)
(3 -2.02912e-15 0)
(3 -2.18473e-15 0)
(3 -2.14241e-15 0)
(3 -1.55769e-15 0)
(3 -3.11147e-15 0)
(3 -2.77248e-15 0)
(3 -1.97807e-15 0)
(3 -1.80405e-15 0)
(3 -3.15413e-15 0)
(3 -4.34543e-15 0)
(3 -5.31689e-15 0)
(3 -5.76845e-15 0)
(3 -6.40847e-15 0)
(3 -6.88081e-15 0)
(3 -4.834e-15 0)
(3 -2.92694e-15 0)
(3 -2.33928e-15 0)
(3 -2.10341e-15 0)
(3 -2.30227e-15 0)
(3 -2.29255e-15 0)
(3 -2.15322e-15 0)
(3 -2.80212e-15 0)
(3 -3.4079e-15 0)
(3 -3.69681e-15 0)
(3 -3.71451e-15 0)
(3 -3.82672e-15 0)
(3 -1.11895e-16 0)
(3 4.37394e-16 0)
(3 -1.90299e-16 0)
(3 -2.90705e-17 0)
(3 1.65095e-16 0)
(3 7.63803e-16 0)
(3 1.58966e-15 0)
(3 1.7876e-15 0)
(3 1.39615e-15 0)
(3 1.37685e-15 0)
(3 1.30441e-15 0)
(3 4.57058e-16 0)
(3 4.93956e-17 0)
(3 -2.31736e-16 0)
(3 -3.79323e-16 0)
(3 -5.47213e-17 0)
(3 -2.07297e-17 0)
(3 3.63582e-17 0)
(3 3.05804e-16 0)
(3 8.03143e-16 0)
(3 7.53005e-16 0)
(3 8.45381e-16 0)
(3 8.92288e-16 0)
(3 7.86302e-16 0)
(3 8.80118e-16 0)
(3 8.82124e-16 0)
(3 6.96974e-16 0)
(3 -1.32746e-16 0)
(3 -7.66938e-16 0)
(3 8.95587e-17 0)
(3 2.44482e-15 0)
(3 4.03137e-15 0)
(3 2.07591e-15 0)
(3 1.12059e-15 0)
(3 1.06136e-15 0)
(3 1.30508e-15 0)
(3 1.10816e-15 0)
(3 -5.82533e-16 0)
(3 -2.17724e-15 0)
(3 -1.88391e-15 0)
(3 -1.24524e-15 0)
(3 -1.1193e-15 0)
(3 -1.32265e-15 0)
(3 -1.92602e-15 0)
(3 -1.85017e-15 0)
(3 -1.78352e-15 0)
(3 -1.04521e-15 0)
(3 -8.05101e-16 0)
(3 -5.60525e-16 0)
(3 1.2467e-15 0)
(3 2.19881e-15 0)
(3 2.92043e-15 0)
(3 2.37946e-15 0)
(3 1.14634e-15 0)
(3 -5.08499e-17 0)
(3 -4.3142e-16 0)
(3 -5.87845e-16 0)
(3 -2.02079e-15 0)
(3 -2.23686e-15 0)
(3 -1.76766e-15 0)
(3 -1.36146e-15 0)
(3 -7.52424e-16 0)
(3 -4.28441e-16 0)
(3 -3.84815e-16 0)
(3 2.64169e-16 0)
(3 8.70923e-16 0)
(3 1.16821e-15 0)
(3 9.15455e-16 0)
(3 8.00901e-16 0)
(3 1.94253e-16 0)
(3 -7.96966e-16 0)
(3 -8.27954e-16 0)
(3 -7.32082e-16 0)
(3 -1.03618e-15 0)
(3 -1.14494e-15 0)
(3 -8.98466e-16 0)
(3 -6.91242e-16 0)
(3 -6.47031e-16 0)
(3 -1.35461e-15 0)
(3 -1.6989e-15 0)
(3 -2.15081e-15 0)
(3 -2.59775e-15 0)
(3 -9.30758e-16 0)
(3 -3.69e-16 0)
(3 -6.44873e-16 0)
(3 -8.84301e-16 0)
(3 -1.01554e-15 0)
(3 6.05938e-16 0)
(3 1.96545e-15 0)
(3 2.2906e-15 0)
(3 2.12377e-15 0)
(3 1.85046e-15 0)
(3 1.59241e-15 0)
(3 1.71137e-15 0)
(3 1.63809e-15 0)
(3 1.00215e-15 0)
(3 4.92577e-16 0)
(3 -6.55568e-17 0)
(3 -1.39494e-15 0)
(3 -2.06765e-15 0)
(3 -2.94392e-15 0)
(3 -3.28105e-15 0)
(3 -3.06138e-15 0)
(3 -2.59977e-15 0)
(3 -2.53495e-15 0)
(3 -2.70425e-15 0)
(3 -5.02008e-15 0)
(3 -5.13483e-15 0)
(3 -3.82338e-15 0)
(3 -3.22941e-15 0)
(3 -3.32194e-15 0)
(3 -2.88976e-15 0)
(3 -2.19956e-15 0)
(3 -7.53031e-16 0)
(3 5.4096e-16 0)
(3 2.40891e-16 0)
(3 2.95525e-16 0)
(3 6.86345e-16 0)
(3 4.91944e-15 0)
(3 4.64561e-15 0)
(3 3.45682e-15 0)
(3 8.78095e-16 0)
(3 -7.11651e-16 0)
(3 -1.17675e-15 0)
(3 -1.74045e-15 0)
(3 -1.8131e-15 0)
(3 -2.07169e-15 0)
(3 -1.43938e-15 0)
(3 5.37909e-16 0)
(3 2.16256e-15 0)
(3 3.03604e-15 0)
(3 4.00376e-15 0)
(3 3.57916e-15 0)
(3 2.8997e-15 0)
(3 4.10496e-16 0)
(3 -6.56971e-16 0)
(3 -7.10054e-16 0)
(3 -1.09071e-15 0)
(3 -1.53383e-15 0)
(3 -1.76846e-15 0)
(3 -2.70939e-16 0)
(3 2.44496e-15 0)
(3 2.58843e-15 0)
(3 2.3068e-15 0)
(3 2.11176e-15 0)
(3 1.31654e-15 0)
(3 8.00321e-16 0)
(3 1.91346e-16 0)
(3 -1.57009e-15 0)
(3 -2.47123e-15 0)
(3 -2.202e-15 0)
(3 -2.863e-15 0)
(3 -2.30198e-15 0)
(3 -1.00641e-15 0)
(3 2.24454e-16 0)
(3 1.40588e-17 0)
(3 -6.44876e-16 0)
(3 -2.04253e-15 0)
(3 -3.79944e-15 0)
(3 -3.8242e-15 0)
(3 -2.65686e-15 0)
(3 -1.63485e-15 0)
(3 -9.98334e-16 0)
(3 -8.24563e-16 0)
(3 -7.88703e-16 0)
(3 -2.16976e-15 0)
(3 -2.56834e-15 0)
(3 -1.8631e-15 0)
(3 -9.66638e-16 0)
(3 -1.06035e-15 0)
(3 -2.54195e-15 0)
(3 -4.22535e-15 0)
(3 -5.64594e-15 0)
(3 -6.03459e-15 0)
(3 -5.49393e-15 0)
(3 -6.26782e-15 0)
(3 -6.58854e-15 0)
(3 -6.09908e-15 0)
(3 -4.82675e-15 0)
(3 -5.196e-15 0)
(3 -3.82914e-15 0)
(3 -1.56588e-15 0)
(3 4.88439e-16 0)
(3 1.54749e-15 0)
(3 1.53286e-15 0)
(3 5.0876e-16 0)
(3 -3.98928e-16 0)
(3 -1.60003e-15 0)
(3 -2.71721e-15 0)
(3 -2.93622e-15 0)
(3 -4.01825e-15 0)
(3 -5.79853e-15 0)
(3 -2.50651e-15 0)
(3 2.75799e-16 0)
(3 5.16498e-16 0)
(3 7.85314e-16 0)
(3 1.63093e-15 0)
(3 1.96357e-15 0)
(3 2.30756e-15 0)
(3 2.23403e-15 0)
(3 2.0561e-15 0)
(3 8.18119e-16 0)
(3 4.22127e-16 0)
(3 5.19124e-16 0)
(3 -9.62038e-17 0)
(3 -9.85361e-16 0)
(3 -6.71994e-16 0)
(3 2.9199e-16 0)
(3 5.2851e-17 0)
(3 -1.04277e-15 0)
(3 -2.23809e-15 0)
(3 -1.90942e-15 0)
(3 -6.33721e-16 0)
(3 -2.92466e-17 0)
(3 4.38575e-16 0)
(3 4.97567e-16 0)
(3 7.23501e-16 0)
(3 -1.386e-16 0)
(3 -3.78739e-16 0)
(3 2.82799e-17 0)
(3 7.40904e-16 0)
(3 2.65961e-15 0)
(3 4.52084e-15 0)
(3 3.93806e-15 0)
(3 6.95871e-16 0)
(3 -1.34569e-15 0)
(3 -1.60186e-15 0)
(3 -1.42191e-15 0)
(3 -1.94781e-15 0)
(3 -3.21951e-15 0)
(3 -3.7928e-15 0)
(3 -2.80385e-15 0)
(3 -1.2446e-15 0)
(3 -8.38835e-16 0)
(3 -4.45359e-16 0)
(3 -4.83502e-16 0)
(3 -2.81755e-16 0)
(3 -7.25545e-17 0)
(3 -5.87609e-16 0)
(3 1.4874e-15 0)
(3 2.94256e-15 0)
(3 2.99393e-15 0)
(3 2.32145e-15 0)
(3 2.07458e-15 0)
(3 1.60046e-16 0)
(3 -3.41571e-16 0)
(3 -8.4683e-16 0)
(3 -1.70779e-15 0)
(3 -2.16699e-15 0)
(3 -2.36839e-15 0)
(3 -1.30895e-15 0)
(3 -1.30562e-15 0)
(3 -1.36189e-15 0)
(3 -1.91621e-15 0)
(3 -1.94793e-15 0)
(3 -1.6762e-15 0)
(3 -1.59071e-15 0)
(3 -8.68458e-16 0)
(3 -5.15951e-16 0)
(3 -1.81213e-16 0)
(3 -5.14362e-16 0)
(3 -8.72139e-16 0)
(3 -1.73964e-15 0)
(3 -2.04689e-15 0)
(3 -2.40228e-15 0)
(3 -2.61732e-15 0)
(3 -2.0741e-15 0)
(3 -2.13252e-15 0)
(3 -2.53152e-15 0)
(3 -2.62958e-15 0)
(3 -4.0741e-15 0)
(3 -3.74997e-15 0)
(3 -3.25185e-15 0)
(3 -3.05158e-15 0)
(3 -2.54885e-15 0)
(3 -1.72486e-15 0)
(3 -9.20601e-16 0)
(3 -7.10678e-16 0)
(3 -7.22165e-16 0)
(3 3.53322e-16 0)
(3 5.67315e-16 0)
(3 4.71094e-16 0)
(3 6.6338e-16 0)
(3 4.59749e-16 0)
(3 -2.7492e-17 0)
(3 1.38406e-16 0)
(3 6.23012e-16 0)
(3 1.11837e-15 0)
(3 4.34032e-16 0)
(3 -1.35239e-15 0)
(3 -1.55742e-15 0)
(3 -2.60057e-15 0)
(3 -2.98635e-15 0)
(3 -2.62427e-15 0)
(3 -2.40311e-15 0)
(3 -2.53106e-15 0)
(3 -2.86376e-15 0)
(3 -2.85754e-15 0)
(3 -4.25399e-15 0)
(3 -4.59498e-15 0)
(3 -4.27654e-15 0)
(3 -3.91327e-15 0)
(3 -3.71696e-15 0)
(3 -3.07116e-15 0)
(3 -1.45591e-15 0)
(3 -3.97745e-16 0)
(3 -1.5163e-16 0)
(3 -4.12941e-16 0)
(3 -6.79789e-16 0)
(3 8.58455e-16 0)
(3 2.32087e-15 0)
(3 2.56041e-15 0)
(3 1.17573e-15 0)
(3 -1.25153e-15 0)
(3 -1.43353e-15 0)
(3 -8.80085e-16 0)
(3 -5.76917e-16 0)
(3 -2.37797e-16 0)
(3 3.63721e-16 0)
(3 -6.89344e-17 0)
(3 6.05957e-16 0)
(3 1.83172e-15 0)
(3 1.2634e-15 0)
(3 2.31236e-15 0)
(3 2.05443e-15 0)
(3 4.2272e-16 0)
(3 -1.53617e-16 0)
(3 1.42426e-16 0)
(3 2.12479e-15 0)
(3 2.10846e-15 0)
(3 3.82816e-16 0)
(3 7.36107e-16 0)
(3 1.07032e-15 0)
(3 2.29654e-15 0)
(3 2.68948e-15 0)
(3 1.93986e-15 0)
(3 1.62025e-15 0)
(3 1.61009e-15 0)
(3 1.3038e-15 0)
(3 1.27478e-15 0)
(3 1.92575e-16 0)
(3 -2.0922e-15 0)
(3 -2.77473e-15 0)
(3 -2.68811e-15 0)
(3 -1.55525e-15 0)
(3 1.44017e-16 0)
(3 1.41265e-16 0)
(3 2.00725e-16 0)
(3 -1.48843e-15 0)
(3 -1.74553e-15 0)
(3 -2.18138e-15 0)
(3 -2.17307e-15 0)
(3 -2.57914e-15 0)
(3 -2.93836e-15 0)
(3 -3.09e-15 0)
(3 -2.46558e-15 0)
(3 -2.46601e-15 0)
(3 -2.61265e-15 0)
(3 -2.62188e-15 0)
(3 -1.94032e-15 0)
(3 -1.09025e-15 0)
(3 -1.14459e-15 0)
(3 -1.62918e-15 0)
(3 -3.18199e-15 0)
(3 -4.43377e-15 0)
(3 -5.33409e-15 0)
(3 -4.61034e-15 0)
(3 -5.13693e-15 0)
(3 -5.17394e-15 0)
(3 -5.03753e-15 0)
(3 -3.54101e-15 0)
(3 -3.29681e-15 0)
(3 -3.68233e-15 0)
(3 -6.13916e-16 0)
(3 2.03982e-15 0)
(3 2.47384e-15 0)
(3 2.58282e-15 0)
(3 2.04334e-15 0)
(3 1.78515e-15 0)
(3 7.69765e-16 0)
(3 -5.5422e-16 0)
(3 -1.57109e-15 0)
(3 -3.18403e-15 0)
(3 -3.77898e-15 0)
(3 -2.50997e-15 0)
(3 -1.5996e-16 0)
(3 -1.23732e-16 0)
(3 -3.55062e-16 0)
(3 -3.53172e-17 0)
(3 -2.00453e-16 0)
(3 2.24188e-16 0)
(3 7.97816e-17 0)
(3 -7.02986e-17 0)
(3 -2.89175e-16 0)
(3 -7.17826e-17 0)
(3 2.22568e-16 0)
(3 5.66893e-16 0)
(3 5.18023e-16 0)
(3 1.2745e-16 0)
(3 -1.31896e-15 0)
(3 -1.47738e-15 0)
(3 -1.01641e-15 0)
(3 -3.98077e-16 0)
(3 -4.63676e-16 0)
(3 -1.96753e-17 0)
(3 4.70582e-16 0)
(3 4.16917e-16 0)
(3 4.67421e-16 0)
(3 -6.74743e-17 0)
(3 -1.02973e-15 0)
(3 -1.256e-15 0)
(3 7.48642e-16 0)
(3 1.99275e-15 0)
(3 4.20808e-15 0)
(3 4.44103e-15 0)
(3 4.54421e-15 0)
(3 3.17479e-15 0)
(3 3.01071e-16 0)
(3 -8.11464e-16 0)
(3 -2.18675e-15 0)
(3 -2.87069e-15 0)
(3 -3.99555e-15 0)
(3 -4.25718e-15 0)
(3 -2.38522e-15 0)
(3 4.38466e-16 0)
(3 1.3814e-15 0)
(3 1.31246e-15 0)
(3 2.90262e-15 0)
(3 3.15281e-15 0)
(3 2.01513e-15 0)
(3 1.19397e-15 0)
(3 2.6271e-15 0)
(3 2.62049e-15 0)
(3 2.0613e-15 0)
(3 2.01395e-15 0)
(3 1.13003e-15 0)
(3 3.67403e-16 0)
(3 2.18332e-16 0)
(3 -3.96098e-16 0)
(3 -4.90609e-16 0)
(3 -5.02214e-16 0)
(3 -2.9224e-16 0)
(3 -5.53726e-16 0)
(3 -6.7088e-16 0)
(3 -1.31075e-15 0)
(3 -1.74114e-15 0)
(3 -1.88672e-15 0)
(3 -2.18052e-15 0)
(3 -2.36115e-15 0)
(3 -2.03221e-15 0)
(3 -1.31258e-15 0)
(3 -2.51428e-16 0)
(3 -2.63248e-16 0)
(3 -1.93933e-16 0)
(3 -6.95155e-16 0)
(3 -1.4479e-15 0)
(3 -2.12309e-15 0)
(3 -2.31549e-15 0)
(3 -2.25634e-15 0)
(3 -2.20075e-15 0)
(3 -3.13608e-15 0)
(3 -4.73296e-15 0)
(3 -4.43987e-15 0)
(3 -3.86709e-15 0)
(3 -3.58869e-15 0)
(3 -3.87192e-15 0)
(3 -3.88216e-15 0)
(3 -3.26974e-15 0)
(3 -2.26157e-15 0)
(3 -1.16626e-15 0)
(3 -1.85325e-16 0)
(3 -3.13073e-16 0)
(3 -3.11957e-16 0)
(3 -9.3623e-16 0)
(3 -1.1703e-15 0)
(3 -1.0855e-15 0)
(3 -1.21146e-15 0)
(3 -1.7409e-15 0)
(3 -1.6151e-15 0)
(3 -7.81522e-16 0)
(3 -7.97914e-16 0)
(3 -1.54653e-15 0)
(3 -2.27338e-15 0)
(3 -3.53176e-15 0)
(3 -3.23243e-15 0)
(3 -2.39552e-15 0)
(3 -2.34977e-15 0)
(3 -2.29679e-15 0)
(3 -2.09237e-15 0)
(3 -2.27988e-15 0)
(3 -1.96585e-15 0)
(3 -1.25126e-15 0)
(3 -2.17034e-15 0)
(3 -3.42529e-15 0)
(3 -3.25918e-15 0)
(3 -2.60496e-15 0)
(3 -1.56654e-15 0)
(3 1.60551e-16 0)
(3 7.50089e-16 0)
(3 1.12515e-15 0)
(3 9.14939e-16 0)
(3 -6.2275e-17 0)
(3 -7.08802e-16 0)
(3 -9.1457e-16 0)
(3 -1.76858e-15 0)
(3 -1.46957e-15 0)
(3 -1.68472e-15 0)
(3 -2.14733e-15 0)
(3 -7.50549e-16 0)
(3 -4.05516e-16 0)
(3 9.62952e-17 0)
(3 5.0234e-16 0)
(3 7.36405e-16 0)
(3 7.1212e-16 0)
(3 2.22716e-16 0)
(3 -4.16023e-16 0)
(3 -4.7703e-16 0)
(3 -5.51164e-16 0)
(3 -3.78686e-16 0)
(3 -4.55165e-16 0)
(3 4.18393e-16 0)
(3 1.43117e-15 0)
(3 1.60334e-15 0)
(3 2.70276e-15 0)
(3 2.23178e-15 0)
(3 1.50548e-15 0)
(3 1.79657e-15 0)
(3 1.02239e-15 0)
(3 1.37915e-15 0)
(3 1.27838e-15 0)
(3 1.36196e-15 0)
(3 1.51336e-15 0)
(3 1.06679e-15 0)
(3 -7.83034e-16 0)
(3 -1.97585e-15 0)
(3 -2.15294e-15 0)
(3 -4.54586e-16 0)
(3 -7.07405e-16 0)
(3 -9.47894e-16 0)
(3 -5.51475e-16 0)
(3 -7.51179e-16 0)
(3 -1.72936e-15 0)
(3 -2.24834e-15 0)
(3 -2.41343e-15 0)
(3 -2.68535e-15 0)
(3 -3.05953e-15 0)
(3 -3.52626e-15 0)
(3 -3.84685e-15 0)
(3 -4.04274e-15 0)
(3 -3.8405e-15 0)
(3 -3.57703e-15 0)
(3 -3.8226e-15 0)
(3 -3.88057e-15 0)
(3 -3.4706e-15 0)
(3 -2.77654e-15 0)
(3 -2.38139e-15 0)
(3 -2.22023e-15 0)
(3 -3.30664e-15 0)
(3 -3.24765e-15 0)
(3 -2.96786e-15 0)
(3 -2.48327e-15 0)
(3 -2.27892e-15 0)
(3 -2.54874e-15 0)
(3 -3.0657e-15 0)
(3 -2.50173e-15 0)
(3 -5.30339e-16 0)
(3 1.31179e-15 0)
(3 2.07091e-15 0)
(3 2.36008e-15 0)
(3 3.55266e-15 0)
(3 3.55023e-15 0)
(3 2.81373e-15 0)
(3 2.10001e-15 0)
(3 1.07258e-15 0)
(3 6.39119e-16 0)
(3 6.06564e-16 0)
(3 -3.60352e-16 0)
(3 -3.39866e-16 0)
(3 -3.23614e-16 0)
(3 -3.50187e-16 0)
(3 -4.63941e-17 0)
(3 2.13223e-16 0)
(3 4.25933e-16 0)
(3 9.90731e-17 0)
(3 6.72416e-18 0)
(3 9.35369e-16 0)
(3 8.46874e-16 0)
(3 3.91397e-16 0)
(3 1.24966e-15 0)
(3 1.61868e-15 0)
(3 6.90167e-16 0)
(3 -7.70221e-16 0)
(3 -1.28086e-15 0)
(3 -1.43364e-16 0)
(3 1.51814e-15 0)
(3 1.14453e-15 0)
(3 8.42241e-16 0)
(3 4.67376e-16 0)
(3 2.97491e-16 0)
(3 3.73476e-16 0)
(3 6.02092e-16 0)
(3 1.31482e-15 0)
(3 1.39756e-15 0)
(3 1.05874e-15 0)
(3 1.37634e-15 0)
(3 1.24736e-15 0)
(3 2.08191e-15 0)
(3 2.65599e-15 0)
(3 2.40724e-15 0)
(3 1.6414e-15 0)
(3 2.61807e-16 0)
(3 -1.08687e-15 0)
(3 -1.43017e-15 0)
(3 -2.05352e-15 0)
(3 -2.85675e-15 0)
(3 -1.61073e-15 0)
(3 6.84667e-16 0)
(3 1.17601e-15 0)
(3 1.59498e-15 0)
(3 2.0889e-15 0)
(3 2.54191e-15 0)
(3 2.55298e-15 0)
(3 3.60691e-15 0)
(3 3.52029e-15 0)
(3 1.24981e-15 0)
(3 2.71368e-16 0)
(3 2.53587e-16 0)
(3 -3.81659e-17 0)
(3 -7.53646e-17 0)
(3 -1.39145e-16 0)
(3 2.75368e-16 0)
(3 1.26356e-16 0)
(3 1.86362e-16 0)
(3 4.33998e-16 0)
(3 7.70319e-17 0)
(3 -3.69325e-16 0)
(3 -1.4992e-15 0)
(3 -1.85074e-15 0)
(3 -2.53149e-15 0)
(3 -2.53655e-15 0)
(3 -2.22589e-15 0)
(3 -2.31863e-15 0)
(3 -2.82862e-15 0)
(3 -3.09702e-15 0)
(3 -2.75097e-15 0)
(3 -1.6797e-15 0)
(3 -1.79241e-15 0)
(3 -2.20576e-15 0)
(3 -2.13679e-15 0)
(3 -2.18556e-15 0)
(3 -2.59184e-15 0)
(3 -2.77581e-15 0)
(3 -3.22346e-15 0)
(3 -3.12743e-15 0)
(3 -1.84741e-15 0)
(3 -2.33702e-15 0)
(3 -2.99022e-15 0)
(3 -3.01028e-15 0)
(3 -3.00419e-15 0)
(3 -2.69447e-15 0)
(3 -2.62416e-15 0)
(3 -9.72781e-16 0)
(3 1.31882e-16 0)
(3 -1.23964e-15 0)
(3 -2.30575e-15 0)
(3 -2.14894e-15 0)
(3 -2.16999e-15 0)
(3 -2.12365e-15 0)
(3 -1.72427e-15 0)
(3 -1.48229e-15 0)
(3 -2.20532e-15 0)
(3 -2.68817e-15 0)
(3 -2.36666e-15 0)
(3 -1.77245e-15 0)
(3 -2.62031e-15 0)
(3 -4.31629e-15 0)
(3 -5.07308e-15 0)
(3 -4.29666e-15 0)
(3 -2.66467e-15 0)
(3 -1.5872e-15 0)
(3 -2.24872e-15 0)
(3 -2.84237e-15 0)
(3 -2.6356e-15 0)
(3 -2.40463e-15 0)
(3 -1.98348e-15 0)
(3 -2.23945e-15 0)
(3 -1.90544e-15 0)
(3 -8.39926e-16 0)
(3 -6.7831e-16 0)
(3 6.15668e-16 0)
(3 1.37965e-15 0)
(3 1.49237e-15 0)
(3 1.3399e-15 0)
(3 -5.0081e-16 0)
(3 -2.78292e-15 0)
(3 -3.32096e-15 0)
(3 -2.13303e-15 0)
(3 -9.02226e-16 0)
(3 -1.06554e-15 0)
(3 -6.55943e-16 0)
(3 1.16418e-15 0)
(3 1.74121e-15 0)
(3 1.22731e-15 0)
(3 1.35564e-15 0)
(3 5.46803e-16 0)
(3 1.49534e-16 0)
(3 -3.54003e-16 0)
(3 4.05668e-17 0)
(3 2.33e-16 0)
(3 -4.58135e-16 0)
(3 -9.76992e-16 0)
(3 -1.04905e-15 0)
(3 -9.72259e-16 0)
(3 2.72199e-16 0)
(3 1.61498e-15 0)
(3 2.65082e-15 0)
(3 2.28401e-15 0)
(3 1.4699e-15 0)
(3 1.54045e-15 0)
(3 4.29014e-16 0)
(3 -2.11203e-16 0)
(3 1.78683e-16 0)
(3 6.31499e-17 0)
(3 1.25591e-17 0)
(3 -8.02735e-16 0)
(3 -5.96196e-16 0)
(3 -4.40499e-16 0)
(3 7.47041e-16 0)
(3 2.75629e-15 0)
(3 2.49414e-15 0)
(3 1.04687e-15 0)
(3 1.0724e-15 0)
(3 3.97945e-16 0)
(3 -1.6547e-15 0)
(3 -3.06548e-15 0)
(3 -3.52085e-15 0)
(3 -3.67249e-15 0)
(3 -4.04958e-15 0)
(3 -4.40512e-15 0)
(3 -4.55725e-15 0)
(3 -4.39003e-15 0)
(3 -3.96894e-15 0)
(3 -3.03183e-15 0)
(3 -4.05105e-15 0)
(3 -4.84637e-15 0)
(3 -4.64289e-15 0)
(3 -4.06236e-15 0)
(3 -2.88002e-15 0)
(3 -2.64209e-15 0)
(3 -2.91919e-15 0)
(3 -4.05489e-15 0)
(3 -1.82979e-15 0)
(3 -8.70254e-16 0)
(3 -3.93254e-16 0)
(3 -6.4452e-16 0)
(3 -1.83075e-15 0)
(3 -2.05943e-15 0)
(3 -7.19747e-16 0)
(3 5.0335e-16 0)
(3 1.37474e-15 0)
(3 2.15874e-15 0)
(3 2.83495e-15 0)
(3 2.38918e-15 0)
(3 2.48551e-15 0)
(3 3.23572e-15 0)
(3 3.58216e-15 0)
(3 3.51394e-15 0)
(3 1.64221e-15 0)
(3 -7.64993e-17 0)
(3 -2.74717e-16 0)
(3 -2.15822e-16 0)
(3 3.57632e-17 0)
(3 1.69709e-16 0)
(3 8.61041e-17 0)
(3 -3.08401e-16 0)
(3 -1.49727e-16 0)
(3 2.99861e-16 0)
(3 1.05419e-15 0)
(3 1.04092e-15 0)
(3 1.05686e-15 0)
(3 1.07235e-15 0)
(3 9.8891e-16 0)
(3 2.81557e-16 0)
(3 -6.46801e-16 0)
(3 -8.61042e-16 0)
(3 -1.02932e-15 0)
(3 1.01131e-16 0)
(3 3.21771e-16 0)
(3 1.07667e-16 0)
(3 4.22273e-16 0)
(3 5.91273e-16 0)
(3 7.09961e-16 0)
(3 1.08871e-15 0)
(3 1.52308e-15 0)
(3 1.06361e-15 0)
(3 7.20389e-16 0)
(3 6.85709e-16 0)
(3 2.44478e-16 0)
(3 -1.61803e-17 0)
(3 -6.55827e-16 0)
(3 3.86785e-16 0)
(3 1.22617e-16 0)
(3 -5.28006e-16 0)
(3 -2.04596e-15 0)
(3 -1.9651e-15 0)
(3 -2.06971e-15 0)
(3 -2.71613e-15 0)
(3 -2.29115e-15 0)
(3 -1.02629e-15 0)
(3 -9.56055e-16 0)
(3 1.1461e-15 0)
(3 2.04614e-15 0)
(3 2.63856e-15 0)
(3 3.2294e-15 0)
(3 3.06532e-15 0)
(3 3.13469e-15 0)
(3 1.10936e-15 0)
(3 6.61323e-17 0)
(3 2.22142e-16 0)
(3 2.8636e-16 0)
(3 3.68929e-16 0)
(3 1.1932e-16 0)
(3 6.19803e-16 0)
(3 6.3087e-16 0)
(3 2.29376e-16 0)
(3 1.65863e-16 0)
(3 1.14577e-15 0)
(3 9.86899e-16 0)
(3 -9.15579e-16 0)
(3 -1.729e-15 0)
(3 -2.29968e-15 0)
(3 -2.20479e-15 0)
(3 -2.36065e-15 0)
(3 -2.15722e-15 0)
(3 -2.59614e-15 0)
(3 -4.35272e-15 0)
(3 -4.54194e-15 0)
(3 -4.30466e-15 0)
(3 -3.37823e-15 0)
(3 -2.16796e-15 0)
(3 -1.77631e-15 0)
(3 -1.77398e-15 0)
(3 -1.97551e-15 0)
(3 -2.61849e-15 0)
(3 -1.25271e-15 0)
(3 -2.59685e-16 0)
(3 -4.47244e-16 0)
(3 -1.40843e-15 0)
(3 -2.28591e-15 0)
(3 -1.50715e-15 0)
(3 -1.35192e-15 0)
(3 -9.67792e-16 0)
(3 -7.3079e-16 0)
(3 -1.14859e-16 0)
(3 -3.87797e-16 0)
(3 -2.42058e-15 0)
(3 -2.65781e-15 0)
(3 -2.20388e-15 0)
(3 -1.85335e-15 0)
(3 -2.0511e-15 0)
(3 -2.40586e-15 0)
(3 -2.70722e-15 0)
(3 -3.6237e-15 0)
(3 -4.01899e-15 0)
(3 -3.13644e-15 0)
(3 -1.86383e-15 0)
(3 -2.08531e-15 0)
(3 -4.63821e-15 0)
(3 -6.41021e-15 0)
(3 -6.55473e-15 0)
(3 -6.21079e-15 0)
(3 -5.38496e-15 0)
(3 -5.02787e-15 0)
(3 -5.09218e-15 0)
(3 -4.44735e-15 0)
(3 -3.58256e-15 0)
(3 -2.89885e-15 0)
(3 -1.42295e-15 0)
(3 -3.78657e-16 0)
(3 -1.77185e-16 0)
(3 -3.05334e-16 0)
(3 -4.91685e-16 0)
(3 8.97858e-16 0)
(3 1.57068e-15 0)
(3 2.58392e-15 0)
(3 1.03803e-15 0)
(3 -7.41242e-16 0)
(3 -9.82323e-16 0)
(3 -8.44801e-16 0)
(3 3.09168e-16 0)
(3 1.13685e-15 0)
(3 1.30956e-15 0)
(3 2.89203e-15 0)
(3 2.99613e-15 0)
(3 3.12188e-15 0)
(3 2.246e-15 0)
(3 -5.17378e-16 0)
(3 -4.62219e-16 0)
(3 -6.11669e-16 0)
(3 -6.21496e-16 0)
(3 2.51503e-16 0)
(3 -1.20193e-15 0)
(3 -2.02876e-15 0)
(3 -1.79627e-15 0)
(3 -1.81725e-15 0)
(3 -1.15476e-15 0)
(3 1.40778e-15 0)
(3 2.00961e-15 0)
(3 3.64037e-16 0)
(3 -8.87127e-17 0)
(3 -3.06781e-16 0)
(3 -3.1804e-16 0)
(3 -5.91102e-16 0)
(3 -8.54908e-16 0)
(3 -2.45897e-15 0)
(3 -2.76708e-15 0)
(3 -2.02049e-15 0)
(3 -1.43692e-15 0)
(3 -6.48757e-16 0)
(3 1.84134e-15 0)
(3 3.06365e-15 0)
(3 2.76554e-15 0)
(3 1.81302e-15 0)
(3 -4.90136e-16 0)
(3 -1.36361e-15 0)
(3 -2.25456e-15 0)
(3 -2.3681e-15 0)
(3 -3.37357e-15 0)
(3 -3.6752e-15 0)
(3 -3.96265e-15 0)
(3 -3.71247e-15 0)
(3 -3.77849e-15 0)
(3 -3.43603e-15 0)
(3 -2.7338e-15 0)
(3 -3.00762e-15 0)
(3 -2.61898e-15 0)
(3 -2.58599e-15 0)
(3 -2.05084e-15 0)
(3 -2.32648e-15 0)
(3 -4.04251e-15 0)
(3 -4.06058e-15 0)
(3 -4.88325e-15 0)
(3 -5.29424e-15 0)
(3 -1.55769e-15 0)
(3 -7.58908e-16 0)
(3 2.77978e-16 0)
(3 1.25156e-15 0)
(3 5.04573e-16 0)
(3 -8.11352e-16 0)
(3 -6.79369e-16 0)
(3 6.89009e-16 0)
(3 1.77135e-15 0)
(3 1.88231e-15 0)
(3 7.69992e-16 0)
(3 1.93795e-15 0)
(3 4.0211e-15 0)
(3 5.09546e-15 0)
(3 5.50749e-15 0)
(3 5.30288e-15 0)
(3 1.70455e-15 0)
(3 -1.34745e-15 0)
(3 5.606e-19 0)
(3 -8.5982e-17 0)
(3 -6.84012e-17 0)
(3 -2.46382e-16 0)
(3 -5.15502e-16 0)
(3 -3.50573e-16 0)
(3 3.49685e-16 0)
(3 8.56256e-16 0)
(3 1.06057e-15 0)
(3 1.38069e-15 0)
(3 1.54073e-15 0)
(3 1.09639e-15 0)
(3 1.14666e-15 0)
(3 1.22678e-15 0)
(3 8.19685e-16 0)
(3 5.13092e-16 0)
(3 3.51648e-16 0)
(3 3.11291e-16 0)
(3 3.61501e-16 0)
(3 1.82057e-16 0)
(3 9.62407e-17 0)
(3 6.31958e-16 0)
(3 8.48867e-16 0)
(3 1.52244e-15 0)
(3 1.87737e-15 0)
(3 1.78737e-15 0)
(3 1.9061e-15 0)
(3 1.42265e-15 0)
(3 6.11287e-16 0)
(3 -3.25575e-16 0)
(3 -4.37601e-16 0)
(3 5.00633e-16 0)
(3 5.92578e-16 0)
(3 -1.74769e-15 0)
(3 -4.27378e-15 0)
(3 -3.69186e-15 0)
(3 -3.84061e-15 0)
(3 -2.6582e-15 0)
(3 -1.86506e-15 0)
(3 -2.62056e-15 0)
(3 -2.65136e-15 0)
(3 -1.38666e-15 0)
(3 6.98274e-16 0)
(3 9.95302e-16 0)
(3 2.23555e-15 0)
(3 2.28095e-15 0)
(3 2.50435e-15 0)
(3 1.13007e-15 0)
(3 3.64408e-16 0)
(3 2.7175e-17 0)
(3 3.4153e-16 0)
(3 1.37934e-15 0)
(3 1.63116e-15 0)
(3 1.2123e-15 0)
(3 8.2636e-16 0)
(3 4.15274e-16 0)
(3 5.90311e-16 0)
(3 1.42052e-15 0)
(3 1.89084e-15 0)
(3 1.10425e-15 0)
(3 6.1056e-16 0)
(3 2.33995e-16 0)
(3 -6.40262e-16 0)
(3 -1.18151e-15 0)
(3 -1.05835e-15 0)
(3 -1.25888e-15 0)
(3 -1.81636e-15 0)
(3 -2.50468e-15 0)
(3 -3.13608e-15 0)
(3 -2.51768e-15 0)
(3 -1.13659e-15 0)
(3 -6.14745e-16 0)
(3 -8.49703e-16 0)
(3 -6.35702e-16 0)
(3 -4.82761e-16 0)
(3 -2.13389e-17 0)
(3 5.28828e-16 0)
(3 1.1936e-16 0)
(3 -6.8288e-16 0)
(3 -1.48848e-15 0)
(3 -1.33645e-15 0)
(3 -1.23186e-15 0)
(3 -1.02562e-15 0)
(3 -8.99943e-16 0)
(3 -1.75303e-15 0)
(3 -3.22044e-15 0)
(3 -4.17633e-15 0)
(3 -4.0172e-15 0)
(3 -3.76686e-15 0)
(3 -3.13407e-15 0)
(3 -2.9192e-15 0)
(3 -3.20443e-15 0)
(3 -3.44991e-15 0)
(3 -3.98298e-15 0)
(3 -4.62556e-15 0)
(3 -3.35631e-15 0)
(3 -3.16058e-15 0)
(3 -3.74057e-15 0)
(3 -6.55975e-15 0)
(3 -7.15042e-15 0)
(3 -7.3081e-15 0)
(3 -8.02446e-15 0)
(3 -7.80129e-15 0)
(3 -7.24187e-15 0)
(3 -6.47532e-15 0)
(3 -5.3976e-15 0)
(3 -2.81332e-15 0)
(3 -1.63765e-15 0)
(3 -8.35147e-16 0)
(3 -5.9539e-16 0)
(3 -9.77828e-16 0)
(3 -1.91726e-15 0)
(3 -2.87466e-15 0)
(3 -1.73934e-15 0)
(3 -4.04182e-16 0)
(3 1.01006e-15 0)
(3 2.03905e-15 0)
(3 2.35563e-15 0)
(3 2.17039e-15 0)
(3 1.52689e-15 0)
(3 1.94425e-15 0)
(3 2.81651e-15 0)
(3 3.35984e-15 0)
(3 3.31873e-15 0)
(3 2.57314e-15 0)
(3 1.61453e-15 0)
(3 -1.3353e-15 0)
(3 -2.71974e-15 0)
(3 -2.65004e-15 0)
(3 -2.20484e-15 0)
(3 -2.42921e-15 0)
(3 -2.67457e-15 0)
(3 -2.4752e-15 0)
(3 -2.71963e-15 0)
(3 -3.64986e-15 0)
(3 -3.29447e-15 0)
(3 -9.4704e-16 0)
(3 3.1771e-16 0)
(3 -1.22513e-16 0)
(3 -5.81265e-16 0)
(3 -1.06425e-15 0)
(3 -1.11391e-15 0)
(3 -7.21513e-16 0)
(3 -1.08813e-15 0)
(3 -2.54927e-15 0)
(3 -3.27705e-15 0)
(3 -3.44627e-15 0)
(3 -1.92648e-15 0)
(3 -9.89939e-16 0)
(3 -1.20352e-16 0)
(3 5.76186e-16 0)
(3 4.88943e-16 0)
(3 4.46322e-16 0)
(3 9.10766e-16 0)
(3 3.83236e-16 0)
(3 -1.79197e-16 0)
(3 -1.04817e-15 0)
(3 -1.46672e-15 0)
(3 -2.38642e-15 0)
(3 -1.63067e-15 0)
(3 -2.42654e-16 0)
(3 -2.24154e-16 0)
(3 -1.25711e-15 0)
(3 -3.5015e-16 0)
(3 5.44548e-16 0)
(3 7.8356e-16 0)
(3 4.36121e-16 0)
(3 2.09921e-16 0)
(3 1.47324e-16 0)
(3 1.14778e-15 0)
(3 -1.13207e-15 0)
(3 -3.61186e-15 0)
(3 -4.34268e-15 0)
(3 -3.04343e-15 0)
(3 -2.23638e-15 0)
(3 4.03193e-16 0)
(3 1.40918e-15 0)
(3 1.93949e-15 0)
(3 1.40331e-15 0)
(3 3.3385e-16 0)
(3 -3.23731e-16 0)
(3 2.10051e-15 0)
(3 2.95797e-15 0)
(3 2.23902e-15 0)
(3 1.76884e-15 0)
(3 1.87662e-15 0)
(3 2.06726e-15 0)
(3 1.81529e-15 0)
(3 3.17065e-15 0)
(3 4.48275e-15 0)
(3 4.01453e-15 0)
(3 -6.10487e-16 0)
(3 3.40155e-16 0)
(3 8.62285e-16 0)
(3 7.65075e-16 0)
(3 3.71698e-16 0)
(3 7.5418e-16 0)
(3 1.87209e-15 0)
(3 2.7153e-15 0)
(3 2.45274e-15 0)
(3 1.87411e-15 0)
(3 2.01268e-15 0)
(3 2.04837e-15 0)
(3 1.19441e-15 0)
(3 1.1044e-15 0)
(3 1.1383e-15 0)
(3 3.89217e-16 0)
(3 1.42566e-16 0)
(3 2.00001e-16 0)
(3 -5.51382e-16 0)
(3 -4.9762e-16 0)
(3 -1.09228e-16 0)
(3 6.27494e-17 0)
(3 -5.42523e-17 0)
(3 5.42958e-16 0)
(3 1.25133e-15 0)
(3 1.09522e-15 0)
(3 1.2162e-15 0)
(3 9.402e-16 0)
(3 6.16342e-16 0)
(3 5.31677e-16 0)
(3 2.61251e-16 0)
(3 2.26362e-16 0)
(3 -6.18843e-16 0)
(3 -1.41264e-15 0)
(3 -1.03937e-15 0)
(3 -7.72723e-16 0)
(3 -1.47645e-15 0)
(3 -1.518e-15 0)
(3 -5.86905e-16 0)
(3 -2.04021e-16 0)
(3 -1.38433e-15 0)
(3 -1.93015e-15 0)
(3 -1.9366e-15 0)
(3 -1.4099e-15 0)
(3 -5.36377e-16 0)
(3 -1.83712e-16 0)
(3 5.19895e-16 0)
(3 3.5312e-16 0)
(3 -2.18297e-16 0)
(3 -9.15807e-16 0)
(3 -8.36812e-16 0)
(3 1.5668e-17 0)
(3 2.14132e-16 0)
(3 1.19305e-16 0)
(3 -6.58376e-16 0)
(3 -6.43669e-17 0)
(3 1.11497e-15 0)
(3 1.24427e-15 0)
(3 7.93868e-16 0)
(3 -4.46826e-16 0)
(3 -1.03141e-15 0)
(3 -1.28838e-15 0)
(3 -7.6293e-16 0)
(3 -1.12418e-15 0)
(3 -8.13641e-16 0)
(3 -1.48056e-15 0)
(3 -9.54406e-16 0)
(3 -5.40163e-16 0)
(3 -5.62279e-16 0)
(3 -8.82767e-16 0)
(3 -1.71382e-15 0)
(3 -2.63461e-15 0)
(3 -1.86208e-15 0)
(3 -1.9392e-17 0)
(3 6.48789e-16 0)
(3 9.04345e-16 0)
(3 4.71006e-16 0)
(3 5.28574e-16 0)
(3 6.23672e-16 0)
(3 4.66096e-16 0)
(3 -2.68862e-17 0)
(3 -1.73625e-15 0)
(3 -1.36131e-15 0)
(3 -1.02433e-15 0)
(3 -1.15621e-15 0)
(3 -1.93078e-15 0)
(3 -3.40498e-15 0)
(3 -4.40595e-15 0)
(3 -4.92994e-15 0)
(3 -5.12737e-15 0)
(3 -4.99231e-15 0)
(3 -4.26382e-15 0)
(3 -3.84126e-15 0)
(3 -3.5795e-15 0)
(3 -3.22752e-15 0)
(3 -3.5215e-15 0)
(3 -3.76432e-15 0)
(3 -3.44861e-15 0)
(3 -3.84835e-15 0)
(3 -6.71688e-15 0)
(3 -7.81027e-15 0)
(3 -7.04027e-15 0)
(3 -7.24402e-15 0)
(3 -7.364e-15 0)