/*--------------------------------*- C++ -*----------------------------------*\
  =========                 |
  \\      /  F ield         | OpenFOAM: The Open Source CFD Toolbox
   \\    /   O peration     | Website:  https://openfoam.org
    \\  /    A nd           | Version:  7
     \\/     M anipulation  |
\*---------------------------------------------------------------------------*/
FoamFile
{
    version     2.0;
    format      ascii;
    class       volVectorField;
    location    "2.7";
    object      U;
}
// * * * * * * * * * * * * * * * * * * * * * * * * * * * * * * * * * * * * * //

dimensions      [0 1 -1 0 0 0 0];

internalField   nonuniform List<vector> 
4128
(
(2.18118 0.662737 0)
(2.20126 0.644278 0)
(2.21731 0.637128 0)
(2.23389 0.612051 0)
(2.24962 0.576219 0)
(2.26225 0.562901 0)
(2.27225 0.55856 0)
(2.29072 0.532282 0)
(2.31101 0.490833 0)
(2.32575 0.469059 0)
(2.33926 0.472042 0)
(2.34958 0.463781 0)
(2.37018 0.429673 0)
(2.38319 0.389944 0)
(2.39562 0.379877 0)
(2.40433 0.385187 0)
(2.41728 0.368973 0)
(2.43889 0.332515 0)
(2.44965 0.299466 0)
(2.46096 0.293511 0)
(2.46613 0.297002 0)
(2.47018 0.277421 0)
(2.48886 0.242669 0)
(2.49838 0.212433 0)
(2.51178 0.205982 0)
(2.52285 0.214428 0)
(2.53179 0.205387 0)
(2.54611 0.171584 0)
(2.55019 0.13735 0)
(2.55832 0.13159 0)
(2.56474 0.137583 0)
(2.5724 0.126003 0)
(2.58837 0.104724 0)
(2.59602 0.0783823 0)
(2.6054 0.0657493 0)
(2.61332 0.0682133 0)
(2.62077 0.0550952 0)
(2.62227 0.0400584 0)
(2.61377 -0.00115738 0)
(2.58916 -0.0556184 0)
(2.50038 -0.205442 0)
(2.27252 -0.526044 0)
(2.22207 -0.583282 0)
(2.19563 -0.608325 0)
(2.19917 -0.619211 0)
(2.20708 -0.639286 0)
(2.21456 -0.642996 0)
(2.22342 -0.661768 0)
(2.2201 -0.672388 0)
(2.20373 -0.698181 0)
(2.15568 -0.758114 0)
(2.13004 -0.802617 0)
(2.12351 -0.848322 0)
(2.13098 -0.853037 0)
(2.14414 -0.856806 0)
(2.15654 -0.864897 0)
(2.17281 -0.864079 0)
(2.19461 -0.849075 0)
(2.21155 -0.833461 0)
(2.22448 -0.831992 0)
(2.23763 -0.833221 0)
(2.25382 -0.834912 0)
(2.26314 -0.830227 0)
(2.27344 -0.822482 0)
(2.28781 -0.814077 0)
(2.29906 -0.788539 0)
(2.31063 -0.770518 0)
(2.3246 -0.744377 0)
(2.33509 -0.70125 0)
(2.33834 -0.66975 0)
(2.33569 -0.649784 0)
(2.33728 -0.64115 0)
(2.33709 -0.633043 0)
(2.34064 -0.62066 0)
(2.35136 -0.609387 0)
(2.36837 -0.597203 0)
(2.39312 -0.588353 0)
(2.40406 -0.58569 0)
(2.41127 -0.5856 0)
(2.41712 -0.583148 0)
(2.41759 -0.573451 0)
(2.41748 -0.562769 0)
(2.42481 -0.557532 0)
(2.43202 -0.556809 0)
(2.44458 -0.555121 0)
(2.46586 -0.549537 0)
(2.47845 -0.544501 0)
(2.49099 -0.541565 0)
(2.49946 -0.538656 0)
(2.49833 -0.532962 0)
(2.48965 -0.524748 0)
(2.49346 -0.518971 0)
(2.5017 -0.514575 0)
(2.50937 -0.510276 0)
(2.52389 -0.505321 0)
(2.53448 -0.504114 0)
(2.54537 -0.507141 0)
(2.55674 -0.509562 0)
(2.56556 -0.509984 0)
(2.57214 -0.504338 0)
(2.57543 -0.491475 0)
(2.57269 -0.473164 0)
(2.56628 -0.457632 0)
(2.56854 -0.453736 0)
(2.57587 -0.455519 0)
(2.5842 -0.457931 0)
(2.5956 -0.460261 0)
(2.61304 -0.463958 0)
(2.62723 -0.465146 0)
(2.63488 -0.465748 0)
(2.64006 -0.461602 0)
(2.64383 -0.457636 0)
(2.63559 -0.432516 0)
(2.61922 -0.380642 0)
(2.60068 -0.332929 0)
(2.56704 -0.246482 0)
(2.52758 -0.123363 0)
(2.53141 -0.0777036 0)
(2.48874 0.0263915 0)
(2.48587 0.0684111 0)
(2.47998 0.103091 0)
(2.46819 0.126348 0)
(2.46171 0.135756 0)
(2.45582 0.142165 0)
(2.45331 0.15544 0)
(2.45156 0.166002 0)
(2.45474 0.170249 0)
(2.4623 0.170561 0)
(2.46924 0.167492 0)
(2.19046 0.678647 0)
(2.20825 0.664863 0)
(2.22031 0.658384 0)
(2.23595 0.63182 0)
(2.24922 0.600373 0)
(2.26076 0.592518 0)
(2.27406 0.58331 0)
(2.29972 0.54859 0)
(2.31669 0.507148 0)
(2.3278 0.495891 0)
(2.3374 0.505115 0)
(2.34885 0.493749 0)
(2.37277 0.453303 0)
(2.38573 0.411784 0)
(2.39768 0.405796 0)
(2.40376 0.413128 0)
(2.41746 0.396132 0)
(2.43858 0.357056 0)
(2.44907 0.32314 0)
(2.46028 0.318825 0)
(2.46401 0.320721 0)
(2.46939 0.300283 0)
(2.48852 0.269171 0)
(2.49882 0.240949 0)
(2.51303 0.235972 0)
(2.52282 0.244103 0)
(2.53125 0.232109 0)
(2.54424 0.195327 0)
(2.54797 0.161318 0)
(2.55718 0.157235 0)
(2.56428 0.164152 0)
(2.57313 0.153031 0)
(2.58865 0.129576 0)
(2.59552 0.101908 0)
(2.6043 0.0944703 0)
(2.61193 0.092028 0)
(2.61701 0.0822434 0)
(2.60383 0.0390195 0)
(2.57955 -0.02023 0)
(2.43866 -0.24032 0)
(2.24534 -0.479342 0)
(2.20027 -0.532308 0)
(2.18295 -0.581383 0)
(2.19357 -0.589094 0)
(2.21011 -0.588722 0)
(2.2239 -0.605602 0)
(2.22359 -0.626266 0)
(2.22077 -0.650939 0)
(2.20943 -0.674806 0)
(2.16563 -0.726153 0)
(2.133 -0.761953 0)
(2.12822 -0.780955 0)
(2.13892 -0.819155 0)
(2.1486 -0.827995 0)
(2.1616 -0.841565 0)
(2.17368 -0.851057 0)
(2.19494 -0.852906 0)
(2.2187 -0.846067 0)
(2.24045 -0.827726 0)
(2.255 -0.81752 0)
(2.26558 -0.82295 0)
(2.27635 -0.831961 0)
(2.28387 -0.837637 0)
(2.29209 -0.835379 0)
(2.3033 -0.827796 0)
(2.32648 -0.815754 0)
(2.34813 -0.803359 0)
(2.35981 -0.792279 0)
(2.36914 -0.775586 0)
(2.3705 -0.753225 0)
(2.36546 -0.731082 0)
(2.36516 -0.714675 0)
(2.36499 -0.698238 0)
(2.36777 -0.673346 0)
(2.38085 -0.645236 0)
(2.40659 -0.619747 0)
(2.43329 -0.598239 0)
(2.44021 -0.592029 0)
(2.4421 -0.589716 0)
(2.44018 -0.586191 0)
(2.43113 -0.577979 0)
(2.42653 -0.563503 0)
(2.43336 -0.549906 0)
(2.44297 -0.542344 0)
(2.45694 -0.53824 0)
(2.47297 -0.538112 0)
(2.4843 -0.538251 0)
(2.49701 -0.538199 0)
(2.50752 -0.536199 0)
(2.51228 -0.530047 0)
(2.51006 -0.518016 0)
(2.50837 -0.504098 0)
(2.5119 -0.492937 0)
(2.52111 -0.485821 0)
(2.52914 -0.48534 0)
(2.539 -0.488553 0)
(2.55033 -0.494725 0)
(2.56225 -0.500602 0)
(2.57227 -0.501091 0)
(2.58198 -0.497846 0)
(2.59066 -0.48924 0)
(2.59545 -0.476745 0)
(2.58985 -0.458568 0)
(2.57775 -0.443234 0)
(2.5818 -0.441509 0)
(2.59018 -0.443546 0)
(2.59888 -0.445025 0)
(2.60999 -0.445028 0)
(2.63223 -0.44847 0)
(2.64375 -0.448843 0)
(2.65124 -0.447402 0)
(2.65822 -0.447914 0)
(2.65881 -0.441515 0)
(2.6477 -0.424057 0)
(2.63688 -0.39786 0)
(2.63332 -0.384658 0)
(2.62492 -0.35298 0)
(2.60817 -0.284554 0)
(2.56788 -0.162459 0)
(2.57247 -0.108763 0)
(2.53961 0.000698597 0)
(2.51013 0.0889656 0)
(2.50379 0.1241 0)
(2.48294 0.13594 0)
(2.47381 0.150187 0)
(2.46093 0.162051 0)
(2.45858 0.174643 0)
(2.46802 0.181669 0)
(2.47627 0.183094 0)
(2.19496 0.695926 0)
(2.20812 0.687114 0)
(2.21597 0.681967 0)
(2.23235 0.656218 0)
(2.25263 0.620765 0)
(2.27022 0.603547 0)
(2.28348 0.598219 0)
(2.29859 0.576432 0)
(2.31413 0.541356 0)
(2.32689 0.526835 0)
(2.33985 0.52817 0)
(2.35581 0.510442 0)
(2.37635 0.470188 0)
(2.38603 0.437108 0)
(2.39606 0.437442 0)
(2.40137 0.441859 0)
(2.41996 0.41917 0)
(2.43943 0.376722 0)
(2.44831 0.346183 0)
(2.45845 0.346148 0)
(2.4607 0.346312 0)
(2.47144 0.324442 0)
(2.4905 0.293513 0)
(2.50057 0.267597 0)
(2.51449 0.266111 0)
(2.52167 0.274016 0)
(2.52965 0.257069 0)
(2.54215 0.217262 0)
(2.54617 0.185629 0)
(2.55665 0.184045 0)
(2.56383 0.191905 0)
(2.57395 0.180446 0)
(2.58948 0.151849 0)
(2.59598 0.126765 0)
(2.60145 0.123682 0)
(2.60675 0.110273 0)
(2.59714 0.0758916 0)
(2.55014 -0.0196233 0)
(2.3979 -0.24519 0)
(2.28919 -0.406096 0)
(2.1546 -0.534641 0)
(2.14225 -0.580191 0)
(2.16121 -0.580127 0)
(2.19467 -0.571543 0)
(2.22491 -0.576612 0)
(2.24285 -0.589556 0)
(2.23996 -0.602945 0)
(2.22564 -0.626467 0)
(2.19185 -0.670572 0)
(2.1416 -0.723758 0)
(2.12372 -0.739094 0)
(2.13592 -0.786 0)
(2.14723 -0.796429 0)
(2.16466 -0.805131 0)
(2.18012 -0.811705 0)
(2.19852 -0.815488 0)
(2.21967 -0.81624 0)
(2.2425 -0.807689 0)
(2.26091 -0.803017 0)
(2.27446 -0.804538 0)
(2.27922 -0.80962 0)
(2.28485 -0.81428 0)
(2.29805 -0.817847 0)
(2.31016 -0.821464 0)
(2.32559 -0.81933 0)
(2.34813 -0.813986 0)
(2.37073 -0.808335 0)
(2.38203 -0.804137 0)
(2.39181 -0.801301 0)
(2.3992 -0.795669 0)
(2.38965 -0.781343 0)
(2.38751 -0.763817 0)
(2.39409 -0.750234 0)
(2.40484 -0.733709 0)
(2.41409 -0.697691 0)
(2.43271 -0.66477 0)
(2.45243 -0.642124 0)
(2.45694 -0.624915 0)
(2.45527 -0.616813 0)
(2.45667 -0.60967 0)
(2.45637 -0.597559 0)
(2.45161 -0.57567 0)
(2.4555 -0.550447 0)
(2.46552 -0.535055 0)
(2.4789 -0.52694 0)
(2.48981 -0.530748 0)
(2.49446 -0.533846 0)
(2.50263 -0.536096 0)
(2.51536 -0.532924 0)
(2.5256 -0.524674 0)
(2.5299 -0.514554 0)
(2.53084 -0.49894 0)
(2.52924 -0.482169 0)
(2.52969 -0.472564 0)
(2.53605 -0.470047 0)
(2.54315 -0.47221 0)
(2.55021 -0.477995 0)
(2.56354 -0.485696 0)
(2.58228 -0.489532 0)
(2.59368 -0.484446 0)
(2.60304 -0.47815 0)
(2.61177 -0.470711 0)
(2.61283 -0.458963 0)
(2.59648 -0.441798 0)
(2.58406 -0.433176 0)
(2.59089 -0.433503 0)
(2.59891 -0.434488 0)
(2.60876 -0.433985 0)
(2.6273 -0.433394 0)
(2.65112 -0.431345 0)
(2.65922 -0.429174 0)
(2.66743 -0.428235 0)
(2.67272 -0.427797 0)
(2.66663 -0.42232 0)
(2.64698 -0.404311 0)
(2.64562 -0.393425 0)
(2.65227 -0.391006 0)
(2.65609 -0.383345 0)
(2.65631 -0.360379 0)
(2.64979 -0.301375 0)
(2.62246 -0.198209 0)
(2.60614 -0.112493 0)
(2.60164 -0.0270319 0)
(2.53029 0.0936369 0)
(2.50489 0.139519 0)
(2.48976 0.144199 0)
(2.47972 0.156032 0)
(2.47894 0.177347 0)
(2.48826 0.188852 0)
(2.19479 0.716487 0)
(2.20082 0.715459 0)
(2.21036 0.703806 0)
(2.23676 0.668439 0)
(2.25867 0.63325 0)
(2.27363 0.626711 0)
(2.28054 0.626705 0)
(2.29736 0.601644 0)
(2.31582 0.563692 0)
(2.32999 0.549208 0)
(2.34254 0.551581 0)
(2.35689 0.534593 0)
(2.37604 0.494292 0)
(2.38633 0.461844 0)
(2.39718 0.461569 0)
(2.40346 0.464458 0)
(2.42134 0.441225 0)
(2.43821 0.399628 0)
(2.44677 0.37158 0)
(2.45673 0.372846 0)
(2.4596 0.370745 0)
(2.47568 0.349375 0)
(2.49314 0.318006 0)
(2.5028 0.294484 0)
(2.51555 0.295097 0)
(2.52041 0.300357 0)
(2.52778 0.278234 0)
(2.54018 0.238767 0)
(2.5453 0.210801 0)
(2.55694 0.21142 0)
(2.56315 0.219439 0)
(2.57682 0.205622 0)
(2.59154 0.172762 0)
(2.59156 0.161451 0)
(2.59547 0.137043 0)
(2.58607 0.0982532 0)
(2.50875 -0.0257037 0)
(2.3621 -0.249709 0)
(2.23499 -0.425461 0)
(2.16571 -0.520343 0)
(2.16859 -0.540206 0)
(2.17578 -0.548732 0)
(2.18924 -0.547419 0)
(2.21956 -0.548499 0)
(2.24032 -0.551169 0)
(2.25152 -0.557395 0)
(2.2444 -0.578859 0)
(2.2137 -0.621824 0)
(2.17731 -0.674818 0)
(2.11888 -0.73916 0)
(2.1208 -0.76632 0)
(2.13911 -0.768461 0)
(2.15968 -0.772713 0)
(2.18031 -0.776038 0)
(2.20181 -0.77691 0)
(2.22249 -0.782016 0)
(2.24341 -0.784741 0)
(2.26294 -0.78446 0)
(2.28133 -0.781886 0)
(2.29138 -0.777233 0)
(2.28687 -0.780161 0)
(2.29477 -0.788877 0)
(2.3094 -0.793343 0)
(2.3229 -0.793001 0)
(2.34061 -0.789324 0)
(2.36119 -0.790242 0)
(2.38136 -0.793867 0)
(2.39713 -0.796582 0)
(2.4112 -0.800224 0)
(2.42092 -0.799275 0)
(2.4218 -0.786831 0)
(2.42063 -0.772625 0)
(2.42478 -0.76293 0)
(2.43298 -0.753471 0)
(2.44504 -0.74199 0)
(2.45719 -0.729784 0)
(2.46617 -0.713777 0)
(2.47484 -0.7022 0)
(2.4796 -0.689858 0)
(2.47979 -0.668759 0)
(2.47957 -0.638394 0)
(2.481 -0.609836 0)
(2.48399 -0.581915 0)
(2.4896 -0.556017 0)
(2.49684 -0.541572 0)
(2.50339 -0.535027 0)
(2.51024 -0.534373 0)
(2.51918 -0.5344 0)
(2.52797 -0.531341 0)
(2.53642 -0.521669 0)
(2.54311 -0.508801 0)
(2.55026 -0.495733 0)
(2.55227 -0.481246 0)
(2.54769 -0.467674 0)
(2.54471 -0.459785 0)
(2.54605 -0.45813 0)
(2.55191 -0.460229 0)
(2.55958 -0.463545 0)
(2.58198 -0.470647 0)
(2.60352 -0.470489 0)
(2.61172 -0.46702 0)
(2.62227 -0.461139 0)
(2.62863 -0.452051 0)
(2.6188 -0.437374 0)
(2.59626 -0.423468 0)
(2.59384 -0.420949 0)
(2.60101 -0.421633 0)
(2.60919 -0.421332 0)
(2.62382 -0.4186 0)
(2.64912 -0.415208 0)
(2.66339 -0.413034 0)
(2.67162 -0.412629 0)
(2.68068 -0.412591 0)
(2.6839 -0.411194 0)
(2.66958 -0.402072 0)
(2.65246 -0.386672 0)
(2.65804 -0.380628 0)
(2.66539 -0.378671 0)
(2.67381 -0.374757 0)
(2.68632 -0.369533 0)
(2.69324 -0.350278 0)
(2.69067 -0.311506 0)
(2.67193 -0.237375 0)
(2.63785 -0.141275 0)
(2.61715 -0.058493 0)
(2.55934 0.0491222 0)
(2.50788 0.157689 0)
(2.4973 0.168871 0)
(2.50304 0.187776 0)
(2.19166 0.743146 0)
(2.19407 0.741496 0)
(2.21294 0.718956 0)
(2.24275 0.679632 0)
(2.26209 0.650759 0)
(2.27273 0.651918 0)
(2.27587 0.651309 0)
(2.29541 0.624056 0)
(2.31586 0.585936 0)
(2.33137 0.57292 0)
(2.34245 0.573982 0)
(2.35816 0.55268 0)
(2.37642 0.511784 0)
(2.38616 0.485068 0)
(2.39658 0.489139 0)
(2.40248 0.490445 0)
(2.42198 0.462829 0)
(2.43777 0.419423 0)
(2.44668 0.395007 0)
(2.45642 0.399094 0)
(2.45998 0.396639 0)
(2.47898 0.375857 0)
(2.4951 0.343116 0)
(2.50454 0.321229 0)
(2.51581 0.322721 0)
(2.51821 0.323805 0)
(2.52608 0.297615 0)
(2.53908 0.260807 0)
(2.54515 0.237142 0)
(2.55769 0.239464 0)
(2.56307 0.24752 0)
(2.58336 0.224509 0)
(2.58592 0.208916 0)
(2.57986 0.171989 0)
(2.56617 0.11051 0)
(2.50027 -0.00651697 0)
(2.29123 -0.275376 0)
(2.16599 -0.472497 0)
(2.16429 -0.495763 0)
(2.18014 -0.487656 0)
(2.20519 -0.486955 0)
(2.22011 -0.498137 0)
(2.22359 -0.504727 0)
(2.23843 -0.512429 0)
(2.2453 -0.522975 0)
(2.24638 -0.549543 0)
(2.2332 -0.588528 0)
(2.18081 -0.654586 0)
(2.15209 -0.690507 0)
(2.13792 -0.724258 0)
(2.14106 -0.739117 0)
(2.15482 -0.747657 0)
(2.17404 -0.748353 0)
(2.19423 -0.743076 0)
(2.21916 -0.741791 0)
(2.24118 -0.747586 0)
(2.26187 -0.754698 0)
(2.27878 -0.760051 0)
(2.29543 -0.764136 0)
(2.30662 -0.76435 0)
(2.30234 -0.757892 0)
(2.30526 -0.752271 0)
(2.32074 -0.752628 0)
(2.33603 -0.755217 0)
(2.35459 -0.758398 0)
(2.37138 -0.761933 0)
(2.38834 -0.766081 0)
(2.40367 -0.769082 0)
(2.41708 -0.772614 0)
(2.42765 -0.778506 0)
(2.43466 -0.781464 0)
(2.44087 -0.769881 0)
(2.44562 -0.750619 0)
(2.45073 -0.741449 0)
(2.45784 -0.740878 0)
(2.46731 -0.739926 0)
(2.47886 -0.735784 0)
(2.49041 -0.729973 0)
(2.50116 -0.719444 0)
(2.50832 -0.708309 0)
(2.51606 -0.695712 0)
(2.51416 -0.668906 0)
(2.51254 -0.634577 0)
(2.51513 -0.608791 0)
(2.51489 -0.589719 0)
(2.51713 -0.573205 0)
(2.52215 -0.559001 0)
(2.52942 -0.550948 0)
(2.5444 -0.540477 0)
(2.56229 -0.522954 0)
(2.56724 -0.512565 0)
(2.56697 -0.505833 0)
(2.56505 -0.494298 0)
(2.56172 -0.478683 0)
(2.5588 -0.458172 0)
(2.56085 -0.445342 0)
(2.56677 -0.439345 0)
(2.57067 -0.439148 0)
(2.58129 -0.443975 0)
(2.60274 -0.451213 0)
(2.61423 -0.453554 0)
(2.62417 -0.452502 0)
(2.63457 -0.44641 0)
(2.63394 -0.434314 0)
(2.62005 -0.417789 0)
(2.61293 -0.40785 0)
(2.6163 -0.406269 0)
(2.62207 -0.405899 0)
(2.62906 -0.404924 0)
(2.64774 -0.401624 0)
(2.66164 -0.396081 0)
(2.67352 -0.395687 0)
(2.68382 -0.397185 0)
(2.69117 -0.398837 0)
(2.69093 -0.397193 0)
(2.67705 -0.384586 0)
(2.66963 -0.368998 0)
(2.67703 -0.362449 0)
(2.68515 -0.358712 0)
(2.69416 -0.357186 0)
(2.70532 -0.359225 0)
(2.71465 -0.359114 0)
(2.71986 -0.351627 0)
(2.71699 -0.327764 0)
(2.69737 -0.26532 0)
(2.66537 -0.182468 0)
(2.63279 -0.0882099 0)
(2.57307 0.037143 0)
(2.54168 0.15907 0)
(2.18792 0.769935 0)
(2.19516 0.758307 0)
(2.22346 0.727233 0)
(2.24936 0.688955 0)
(2.263 0.674597 0)
(2.26565 0.683885 0)
(2.27057 0.675576 0)
(2.29738 0.639839 0)
(2.31833 0.600012 0)
(2.33337 0.591494 0)
(2.34061 0.594637 0)
(2.35463 0.573798 0)
(2.37275 0.534129 0)
(2.38392 0.510292 0)
(2.39533 0.514893 0)
(2.40282 0.512062 0)
(2.42317 0.48045 0)
(2.43707 0.438306 0)
(2.44648 0.42 0)
(2.45497 0.427252 0)
(2.45976 0.423252 0)
(2.481 0.400993 0)
(2.49638 0.36623 0)
(2.50616 0.345656 0)
(2.51573 0.34737 0)
(2.51538 0.344256 0)
(2.52505 0.317232 0)
(2.53845 0.284866 0)
(2.54591 0.263159 0)
(2.55754 0.270426 0)
(2.57108 0.266719 0)
(2.58148 0.256504 0)
(2.56555 0.205991 0)
(2.53224 0.116987 0)
(2.45683 -0.0331987 0)
(2.26174 -0.283866 0)
(2.16469 -0.432704 0)
(2.1492 -0.491501 0)
(2.16366 -0.486456 0)
(2.19668 -0.472323 0)
(2.22475 -0.451164 0)
(2.23766 -0.452637 0)
(2.24916 -0.47618 0)
(2.24572 -0.50283 0)
(2.24581 -0.529636 0)
(2.23684 -0.560009 0)
(2.19168 -0.61994 0)
(2.15713 -0.662844 0)
(2.14782 -0.684688 0)
(2.15431 -0.703175 0)
(2.16746 -0.711831 0)
(2.17864 -0.720982 0)
(2.18799 -0.719612 0)
(2.20848 -0.714373 0)
(2.23194 -0.717226 0)
(2.25432 -0.723948 0)
(2.27551 -0.731149 0)
(2.29136 -0.735678 0)
(2.3075 -0.739605 0)
(2.32053 -0.741086 0)
(2.32105 -0.7366 0)
(2.32025 -0.730406 0)
(2.33475 -0.727722 0)
(2.34952 -0.724618 0)
(2.36466 -0.724823 0)
(2.38037 -0.72951 0)
(2.39534 -0.734327 0)
(2.40893 -0.739169 0)
(2.42101 -0.74314 0)
(2.43219 -0.744775 0)
(2.44302 -0.744731 0)
(2.45245 -0.744083 0)
(2.45901 -0.741243 0)
(2.46337 -0.734545 0)
(2.46807 -0.730427 0)
(2.47493 -0.727754 0)
(2.48851 -0.725782 0)
(2.49997 -0.72376 0)
(2.51096 -0.718769 0)
(2.52312 -0.711895 0)
(2.53162 -0.704473 0)
(2.53734 -0.697906 0)
(2.53777 -0.685002 0)
(2.53439 -0.660345 0)
(2.53436 -0.642392 0)
(2.53878 -0.633352 0)
(2.54328 -0.616832 0)
(2.54957 -0.592923 0)
(2.55994 -0.569695 0)
(2.57611 -0.549477 0)
(2.58939 -0.534908 0)
(2.59147 -0.529268 0)
(2.59082 -0.524225 0)
(2.58368 -0.505177 0)
(2.57322 -0.477335 0)
(2.57347 -0.452771 0)
(2.58327 -0.43605 0)
(2.59328 -0.426399 0)
(2.60447 -0.422136 0)
(2.61272 -0.426646 0)
(2.62064 -0.434013 0)
(2.62478 -0.436076 0)
(2.63202 -0.436549 0)
(2.6372 -0.431698 0)
(2.63477 -0.419444 0)
(2.63494 -0.404995 0)
(2.63636 -0.394924 0)
(2.64164 -0.388235 0)
(2.64675 -0.386046 0)
(2.65187 -0.38673 0)
(2.66013 -0.38808 0)
(2.6736 -0.388994 0)
(2.68517 -0.388683 0)
(2.69423 -0.387912 0)
(2.69987 -0.384773 0)
(2.69858 -0.377569 0)
(2.69085 -0.363249 0)
(2.68515 -0.348441 0)
(2.69176 -0.342175 0)
(2.70176 -0.342389 0)
(2.71105 -0.344612 0)
(2.71992 -0.347605 0)
(2.72795 -0.348971 0)
(2.73397 -0.347 0)
(2.7392 -0.341697 0)
(2.73512 -0.320699 0)
(2.71837 -0.266562 0)
(2.69328 -0.194312 0)
(2.6375 -0.0306629 0)
(2.1859 0.790993 0)
(2.20507 0.769448 0)
(2.23525 0.734535 0)
(2.25409 0.704777 0)
(2.2612 0.706096 0)
(2.25842 0.713906 0)
(2.27297 0.693075 0)
(2.30207 0.650039 0)
(2.31994 0.615846 0)
(2.33134 0.615926 0)
(2.33378 0.618972 0)
(2.35006 0.594695 0)
(2.36936 0.553852 0)
(2.38211 0.533114 0)
(2.39417 0.539123 0)
(2.40252 0.532932 0)
(2.42274 0.498404 0)
(2.43485 0.458549 0)
(2.4447 0.447165 0)
(2.45098 0.45635 0)
(2.45858 0.44889 0)
(2.48179 0.423109 0)
(2.49658 0.386622 0)
(2.50682 0.368361 0)
(2.51368 0.371087 0)
(2.511 0.364927 0)
(2.52374 0.340044 0)
(2.53798 0.309311 0)
(2.54808 0.292685 0)
(2.55897 0.29665 0)
(2.56953 0.29191 0)
(2.55558 0.240231 0)
(2.50893 0.138315 0)
(2.35312 -0.103916 0)
(2.2108 -0.338234 0)
(2.18374 -0.35418 0)
(2.18166 -0.409267 0)
(2.18151 -0.437335 0)
(2.19105 -0.449031 0)
(2.21406 -0.44166 0)
(2.23488 -0.433495 0)
(2.25529 -0.447156 0)
(2.26009 -0.465648 0)
(2.2537 -0.485599 0)
(2.24086 -0.516217 0)
(2.19996 -0.571856 0)
(2.15566 -0.639034 0)
(2.14804 -0.659295 0)
(2.15837 -0.673465 0)
(2.17193 -0.672452 0)
(2.19001 -0.682201 0)
(2.19938 -0.692445 0)
(2.20389 -0.690201 0)
(2.22258 -0.686983 0)
(2.24356 -0.68805 0)
(2.26487 -0.69263 0)
(2.28524 -0.699231 0)
(2.30103 -0.704649 0)
(2.31747 -0.710615 0)
(2.33176 -0.715676 0)
(2.33864 -0.715252 0)
(2.33946 -0.704851 0)
(2.34671 -0.697072 0)
(2.35983 -0.697569 0)
(2.37443 -0.700276 0)
(2.38853 -0.702517 0)
(2.40159 -0.703644 0)
(2.41334 -0.703799 0)
(2.4238 -0.704591 0)
(2.43524 -0.70745 0)
(2.44791 -0.710667 0)
(2.4601 -0.711983 0)
(2.46985 -0.709055 0)
(2.4733 -0.703075 0)
(2.47018 -0.701429 0)
(2.48189 -0.709448 0)
(2.49482 -0.713204 0)
(2.50678 -0.714003 0)
(2.52046 -0.711708 0)
(2.53594 -0.706505 0)
(2.54989 -0.6994 0)
(2.5605 -0.693306 0)
(2.56286 -0.685078 0)
(2.55017 -0.670878 0)
(2.54609 -0.657146 0)
(2.55633 -0.650315 0)
(2.56241 -0.642706 0)
(2.57083 -0.631399 0)
(2.58132 -0.614639 0)
(2.59348 -0.597717 0)
(2.60564 -0.586208 0)
(2.61253 -0.574132 0)
(2.6099 -0.556744 0)
(2.60184 -0.53983 0)
(2.59477 -0.517723 0)
(2.60206 -0.496527 0)
(2.60471 -0.472324 0)
(2.60622 -0.442228 0)
(2.61722 -0.42111 0)
(2.62829 -0.414287 0)
(2.63367 -0.418323 0)
(2.63504 -0.423633 0)
(2.63586 -0.425464 0)
(2.63757 -0.425527 0)
(2.64099 -0.414813 0)
(2.64409 -0.397503 0)
(2.65064 -0.382192 0)
(2.65508 -0.370641 0)
(2.65736 -0.366054 0)
(2.66216 -0.36741 0)
(2.66614 -0.372576 0)
(2.67334 -0.377699 0)
(2.68359 -0.378796 0)
(2.69463 -0.376029 0)
(2.70393 -0.370169 0)
(2.7108 -0.36331 0)
(2.71324 -0.354948 0)
(2.70816 -0.344401 0)
(2.70018 -0.335292 0)
(2.70315 -0.333319 0)
(2.71265 -0.33475 0)
(2.72087 -0.336221 0)
(2.72927 -0.336567 0)
(2.73787 -0.335204 0)
(2.7479 -0.331496 0)
(2.75535 -0.324618 0)
(2.76031 -0.321742 0)
(2.7562 -0.297483 0)
(2.73455 -0.230712 0)
(2.18942 0.802782 0)
(2.21943 0.774707 0)
(2.24338 0.742018 0)
(2.25426 0.729284 0)
(2.25341 0.741482 0)
(2.25321 0.738336 0)
(2.2807 0.705461 0)
(2.30759 0.658655 0)
(2.3225 0.633876 0)
(2.32911 0.641361 0)
(2.32838 0.64159 0)
(2.34779 0.613649 0)
(2.3669 0.572373 0)
(2.38064 0.555778 0)
(2.39258 0.56295 0)
(2.40217 0.552705 0)
(2.42187 0.515499 0)
(2.43193 0.479051 0)
(2.44131 0.475749 0)
(2.44464 0.484872 0)
(2.45752 0.472365 0)
(2.48195 0.441463 0)
(2.49607 0.404016 0)
(2.50613 0.38964 0)
(2.50878 0.395181 0)
(2.50543 0.387125 0)
(2.52443 0.363127 0)
(2.53933 0.331672 0)
(2.54514 0.328273 0)
(2.55463 0.309261 0)
(2.53944 0.261476 0)
(2.46426 0.111719 0)
(2.31473 -0.117182 0)
(2.15811 -0.339337 0)
(2.13929 -0.379814 0)
(2.16097 -0.400734 0)
(2.18638 -0.3918 0)
(2.21096 -0.398642 0)
(2.22486 -0.41749 0)
(2.235 -0.426083 0)
(2.24657 -0.430564 0)
(2.26067 -0.445203 0)
(2.26037 -0.453727 0)
(2.24718 -0.479984 0)
(2.21779 -0.52286 0)
(2.16006 -0.597895 0)
(2.14453 -0.633118 0)
(2.1539 -0.659343 0)
(2.16789 -0.658245 0)
(2.18906 -0.658781 0)
(2.207 -0.664678 0)
(2.21385 -0.665492 0)
(2.22039 -0.659331 0)
(2.23808 -0.657397 0)
(2.25723 -0.658582 0)
(2.27682 -0.662556 0)
(2.29407 -0.669029 0)
(2.30995 -0.675314 0)
(2.32569 -0.68245 0)
(2.33919 -0.689264 0)
(2.34925 -0.692167 0)
(2.35698 -0.688161 0)
(2.36407 -0.680116 0)
(2.37175 -0.67286 0)
(2.38153 -0.669346 0)
(2.39295 -0.669615 0)
(2.4049 -0.672014 0)
(2.4171 -0.675044 0)
(2.4293 -0.676872 0)
(2.44197 -0.676448 0)
(2.45454 -0.674692 0)
(2.46657 -0.673835 0)
(2.47717 -0.673944 0)
(2.48207 -0.673381 0)
(2.47917 -0.67471 0)
(2.4846 -0.674638 0)
(2.4976 -0.674893 0)
(2.51055 -0.676301 0)
(2.5244 -0.677805 0)
(2.53956 -0.680908 0)
(2.55434 -0.684583 0)
(2.56888 -0.68621 0)
(2.58014 -0.680733 0)
(2.57909 -0.66735 0)
(2.5669 -0.651181 0)
(2.56445 -0.641084 0)
(2.57099 -0.636217 0)
(2.58136 -0.632748 0)
(2.59339 -0.627491 0)
(2.60302 -0.617529 0)
(2.61401 -0.608739 0)
(2.62398 -0.603902 0)
(2.63005 -0.601458 0)
(2.63199 -0.593869 0)
(2.62593 -0.575397 0)
(2.6218 -0.542455 0)
(2.62648 -0.515196 0)
(2.62628 -0.489913 0)
(2.63094 -0.46702 0)
(2.63744 -0.448743 0)
(2.64342 -0.4354 0)
(2.6481 -0.421343 0)
(2.65218 -0.41616 0)
(2.65359 -0.416365 0)
(2.65559 -0.412144 0)
(2.65478 -0.398916 0)
(2.65897 -0.377411 0)
(2.66477 -0.364599 0)
(2.67144 -0.355978 0)
(2.67749 -0.349699 0)
(2.68022 -0.352381 0)
(2.68216 -0.357995 0)
(2.68756 -0.360674 0)
(2.69494 -0.360785 0)
(2.70586 -0.356209 0)
(2.71613 -0.34915 0)
(2.72642 -0.342526 0)
(2.72983 -0.334885 0)
(2.7193 -0.328185 0)
(2.70879 -0.323887 0)
(2.71489 -0.322567 0)
(2.72326 -0.323329 0)
(2.73144 -0.322971 0)
(2.74037 -0.320445 0)
(2.75132 -0.315641 0)
(2.76194 -0.312148 0)
(2.77087 -0.310118 0)
(2.77397 -0.311101 0)
(2.77116 -0.294181 0)
(2.19695 0.810442 0)
(2.2264 0.782695 0)
(2.24062 0.759161 0)
(2.24411 0.762973 0)
(2.24114 0.772339 0)
(2.25625 0.752589 0)
(2.29092 0.709978 0)
(2.31301 0.666519 0)
(2.3241 0.656983 0)
(2.32432 0.66988 0)
(2.32355 0.664267 0)
(2.34716 0.632229 0)
(2.36662 0.59075 0)
(2.38183 0.576801 0)
(2.39349 0.583793 0)
(2.40368 0.57083 0)
(2.42047 0.532782 0)
(2.42764 0.5026 0)
(2.43512 0.506757 0)
(2.43791 0.511142 0)
(2.45893 0.49197 0)
(2.48226 0.455189 0)
(2.49471 0.419707 0)
(2.50167 0.415363 0)
(2.50075 0.422491 0)
(2.50208 0.412087 0)
(2.52613 0.381437 0)
(2.53651 0.367271 0)
(2.53167 0.330398 0)
(2.50695 0.255426 0)
(2.38706 0.0461761 0)
(2.27636 -0.145576 0)
(2.18948 -0.268213 0)
(2.14467 -0.365402 0)
(2.13803 -0.38041 0)
(2.16225 -0.373354 0)
(2.19294 -0.356591 0)
(2.22579 -0.361569 0)
(2.24779 -0.381722 0)
(2.25592 -0.387981 0)
(2.26317 -0.403477 0)
(2.25736 -0.421922 0)
(2.25108 -0.443714 0)
(2.22352 -0.482621 0)
(2.17185 -0.54656 0)
(2.14986 -0.58743 0)
(2.15014 -0.63295 0)
(2.16106 -0.638095 0)
(2.18271 -0.63778 0)
(2.20529 -0.635295 0)
(2.22087 -0.636825 0)
(2.22814 -0.63634 0)
(2.23851 -0.63121 0)
(2.25373 -0.628465 0)
(2.27034 -0.629116 0)
(2.28665 -0.632269 0)
(2.30196 -0.637743 0)
(2.31632 -0.644608 0)
(2.32937 -0.651767 0)
(2.34166 -0.6571 0)
(2.35528 -0.659384 0)
(2.36903 -0.659161 0)
(2.38054 -0.656162 0)
(2.38759 -0.650752 0)
(2.39176 -0.645388 0)
(2.3989 -0.644762 0)
(2.40952 -0.647545 0)
(2.42189 -0.649503 0)
(2.43611 -0.64947 0)
(2.4501 -0.648264 0)
(2.46336 -0.646841 0)
(2.47605 -0.645436 0)
(2.48646 -0.643931 0)
(2.48891 -0.642748 0)
(2.48264 -0.641306 0)
(2.48775 -0.639302 0)
(2.50029 -0.637745 0)
(2.51414 -0.638078 0)
(2.52765 -0.640723 0)
(2.54115 -0.644815 0)
(2.55449 -0.649935 0)
(2.56833 -0.654469 0)
(2.58169 -0.657907 0)
(2.58916 -0.657646 0)
(2.58785 -0.65049 0)
(2.58549 -0.635477 0)
(2.58798 -0.621639 0)
(2.59334 -0.614798 0)
(2.59971 -0.610869 0)
(2.60652 -0.608449 0)
(2.61695 -0.606012 0)
(2.62842 -0.603035 0)
(2.63612 -0.598641 0)
(2.64394 -0.595882 0)
(2.65026 -0.594766 0)
(2.65365 -0.592659 0)
(2.65445 -0.575022 0)
(2.65105 -0.546698 0)
(2.6506 -0.518514 0)
(2.65429 -0.498084 0)
(2.65763 -0.480769 0)
(2.66097 -0.464122 0)
(2.66824 -0.448511 0)
(2.67642 -0.426114 0)
(2.6759 -0.408842 0)
(2.67346 -0.402864 0)
(2.67612 -0.388455 0)
(2.67714 -0.376174 0)
(2.67973 -0.363541 0)
(2.68498 -0.346055 0)
(2.6904 -0.337497 0)
(2.69525 -0.337413 0)
(2.69894 -0.339123 0)
(2.70701 -0.340888 0)
(2.71325 -0.339072 0)
(2.71946 -0.337595 0)
(2.73053 -0.333442 0)
(2.73979 -0.326063 0)
(2.73694 -0.318939 0)
(2.725 -0.311944 0)
(2.72305 -0.307057 0)
(2.729 -0.306588 0)
(2.7356 -0.306847 0)
(2.74567 -0.306328 0)
(2.75911 -0.302185 0)
(2.76948 -0.298947 0)
(2.77886 -0.295885 0)
(2.78273 -0.297849 0)
(2.78175 -0.290765 0)
(2.19479 0.825982 0)
(2.21584 0.80487 0)
(2.22507 0.787727 0)
(2.22762 0.794474 0)
(2.23488 0.789262 0)
(2.26631 0.757757 0)
(2.29773 0.711922 0)
(2.31372 0.680822 0)
(2.31885 0.687539 0)
(2.31365 0.699637 0)
(2.32107 0.683438 0)
(2.35019 0.646245 0)
(2.36972 0.606472 0)
(2.38584 0.596941 0)
(2.39487 0.605478 0)
(2.4024 0.59288 0)
(2.41661 0.554513 0)
(2.42284 0.529216 0)
(2.42959 0.535073 0)
(2.43702 0.531593 0)
(2.46274 0.506139 0)
(2.48171 0.466931 0)
(2.49145 0.440105 0)
(2.49378 0.44618 0)
(2.49009 0.453262 0)
(2.50602 0.433706 0)
(2.51713 0.406179 0)
(2.5114 0.350473 0)
(2.46402 0.233498 0)
(2.31354 -0.00465388 0)
(2.18763 -0.22066 0)
(2.15399 -0.288191 0)
(2.16362 -0.332316 0)
(2.1731 -0.347898 0)
(2.16916 -0.354996 0)
(2.18346 -0.352018 0)
(2.20933 -0.345779 0)
(2.23867 -0.345274 0)
(2.2605 -0.35115 0)
(2.27215 -0.359871 0)
(2.26754 -0.3797 0)
(2.25293 -0.416585 0)
(2.23216 -0.452278 0)
(2.17121 -0.515914 0)
(2.14296 -0.558743 0)
(2.14352 -0.600723 0)
(2.15582 -0.60566 0)
(2.17509 -0.609626 0)
(2.19841 -0.610636 0)
(2.22073 -0.610419 0)
(2.23728 -0.611422 0)
(2.24606 -0.608586 0)
(2.25385 -0.60461 0)
(2.26672 -0.605393 0)
(2.28248 -0.608138 0)
(2.29766 -0.6103 0)
(2.3106 -0.612263 0)
(2.3216 -0.615792 0)
(2.33189 -0.620776 0)
(2.3452 -0.624997 0)
(2.36138 -0.627739 0)
(2.37701 -0.629305 0)
(2.39122 -0.628876 0)
(2.4017 -0.626004 0)
(2.40491 -0.621618 0)
(2.40282 -0.619409 0)
(2.41284 -0.621703 0)
(2.42841 -0.623244 0)
(2.4435 -0.62234 0)
(2.45812 -0.618972 0)
(2.47164 -0.616933 0)
(2.48458 -0.61741 0)
(2.495 -0.619056 0)
(2.49654 -0.619396 0)
(2.48956 -0.617194 0)
(2.49772 -0.614045 0)
(2.51072 -0.610979 0)
(2.52307 -0.607338 0)
(2.53501 -0.605717 0)
(2.54692 -0.608163 0)
(2.55778 -0.613026 0)
(2.56775 -0.618916 0)
(2.57928 -0.623566 0)
(2.58985 -0.625176 0)
(2.59577 -0.624332 0)
(2.59972 -0.621044 0)
(2.6041 -0.615265 0)
(2.60815 -0.604852 0)
(2.61118 -0.593201 0)
(2.61572 -0.58783 0)
(2.62221 -0.586317 0)
(2.62922 -0.584857 0)
(2.63774 -0.582499 0)
(2.64863 -0.58117 0)
(2.65873 -0.581414 0)
(2.66751 -0.580202 0)
(2.67306 -0.577717 0)
(2.6753 -0.574152 0)
(2.67156 -0.562253 0)
(2.67367 -0.540777 0)
(2.67589 -0.520294 0)
(2.68168 -0.506034 0)
(2.68645 -0.486477 0)
(2.69316 -0.469476 0)
(2.70076 -0.453963 0)
(2.70286 -0.434696 0)
(2.69873 -0.419747 0)
(2.69029 -0.396426 0)
(2.69491 -0.378203 0)
(2.69679 -0.366077 0)
(2.69707 -0.349436 0)
(2.70527 -0.332126 0)
(2.715 -0.323316 0)
(2.72401 -0.317455 0)
(2.72672 -0.317175 0)
(2.73 -0.318122 0)
(2.73474 -0.31921 0)
(2.74029 -0.316865 0)
(2.74373 -0.311163 0)
(2.74091 -0.303058 0)
(2.74024 -0.294669 0)
(2.74229 -0.289975 0)
(2.74701 -0.28937 0)
(2.75295 -0.289463 0)
(2.76029 -0.28963 0)
(2.77023 -0.288243 0)
(2.77918 -0.284415 0)
(2.7843 -0.283059 0)
(2.78698 -0.277292 0)
(2.18245 0.849099 0)
(2.18991 0.836243 0)
(2.20442 0.817749 0)
(2.21563 0.814322 0)
(2.23876 0.794069 0)
(2.27568 0.755059 0)
(2.29831 0.715635 0)
(2.30743 0.704228 0)
(2.30558 0.720987 0)
(2.30122 0.723353 0)
(2.32363 0.697564 0)
(2.35475 0.656269 0)
(2.3742 0.621118 0)
(2.38915 0.618845 0)
(2.39273 0.629215 0)
(2.39782 0.615712 0)
(2.41275 0.576089 0)
(2.42024 0.554719 0)
(2.42849 0.558628 0)
(2.44243 0.548018 0)
(2.46696 0.517155 0)
(2.48016 0.478815 0)
(2.48514 0.47059 0)
(2.48574 0.477507 0)
(2.48897 0.478384 0)
(2.49122 0.441512 0)
(2.47519 0.360023 0)
(2.39566 0.182661 0)
(2.28071 -0.0218254 0)
(2.14388 -0.231321 0)
(2.1319 -0.289777 0)
(2.14724 -0.276851 0)
(2.16735 -0.274972 0)
(2.19789 -0.287858 0)
(2.20458 -0.297264 0)
(2.20295 -0.304924 0)
(2.22399 -0.313755 0)
(2.248 -0.325464 0)
(2.26639 -0.333348 0)
(2.27272 -0.342394 0)
(2.2592 -0.372092 0)
(2.23982 -0.418187 0)
(2.18735 -0.480144 0)
(2.14025 -0.530425 0)
(2.13775 -0.56105 0)
(2.14675 -0.569356 0)
(2.16707 -0.574009 0)
(2.19026 -0.576047 0)
(2.21317 -0.576131 0)
(2.23405 -0.577912 0)
(2.25147 -0.580517 0)
(2.26167 -0.582717 0)
(2.2672 -0.584902 0)
(2.27721 -0.586371 0)
(2.29201 -0.586561 0)
(2.30703 -0.586142 0)
(2.31978 -0.586352 0)
(2.32975 -0.588244 0)
(2.33916 -0.590613 0)
(2.35142 -0.591751 0)
(2.36654 -0.592476 0)
(2.38229 -0.593496 0)
(2.39735 -0.595655 0)
(2.40988 -0.599502 0)
(2.41556 -0.603613 0)
(2.41422 -0.603005 0)
(2.42095 -0.597735 0)
(2.43556 -0.593568 0)
(2.45059 -0.590209 0)
(2.46504 -0.588261 0)
(2.47858 -0.58887 0)
(2.49077 -0.591419 0)
(2.49997 -0.594565 0)