/*--------------------------------*- C++ -*----------------------------------*\
  =========                 |
  \\      /  F ield         | OpenFOAM: The Open Source CFD Toolbox
   \\    /   O peration     | Website:  https://openfoam.org
    \\  /    A nd           | Version:  7
     \\/     M anipulation  |
\*---------------------------------------------------------------------------*/
FoamFile
{
    version     2.0;
    format      ascii;
    class       volScalarField;
    location    "3.7";
    object      p;
}
// * * * * * * * * * * * * * * * * * * * * * * * * * * * * * * * * * * * * * //

dimensions      [1 -1 -2 0 0 0 0];

internalField   nonuniform List<scalar> 
4080
(
1
1
1
1
1
1
1
1
1
1
1
1
1
1
1
1
1
1.8757
8.64149
10.8031
11.0702
11.4036
11.6594
11.8736
1
1
1
1
1
1
1
1
1
1
1
1
1
1
1
1
1
1.74712
8.32588
10.7156
10.982
11.2834
11.4978
11.5926
1
1
1
1
1
1
1
1
1
1
1
1
1
1
1
1
1
1.44213
7.71894
10.5792
10.7872
10.9976
11.0862
11.2089
1
1
1
1
1
1
1
1
1
1
1
1
1
1
1
1
1
1.04878
6.72076
10.3242
10.4802
10.6591
10.7007
10.9658
1
1
1
1
1
1
1
1
1
1
1
1
1
1
1
1
1
1.00053
5.29471
9.77587
9.99461
10.0319
9.46263
7.87221
1
1
1
1
1
1
1
1
1
1
1
1
1
1
1
1
1
0.999993
3.60272
9.05471
9.62254
9.36566
8.699
7.11384
1
1
1
1
1
1
1
1
1
1
1
1
1
1
1
1
1
0.999998
1.93801
7.8856
9.34234
8.87927
8.19947
6.60544
1
1
1
1
1
1
1
1
1
1
1
1
1
1
1
1
1
1
1.09475
5.93109
8.8009
8.32113
7.7104
6.37178
1
1
1
1
1
1
1
1
1
1
1
1
1
1
1
1
1
1
1.00046
3.30815
7.86652
8.10832
7.40603
6.35118
1
1
1
1
1
1
1
1
1
1
1
1
1
1
1
1
1
1
0.999995
1.37084
6.16097
8.04636
7.27066
6.35928
1
1
1
1
1
1
1
1
1
1
1
1
1
1
1
1
1
1
0.999999
1.01157
3.49095
7.37637
7.10351
6.3123
1
1
1
1
1
1
1
1
1
1
1
1
1
1
1
1
1
1
1
1.00002
1.42505
5.5639
7.16591
6.35715
1
1
1
1
1
1
1
1
1
1
1
1
1
1
1
1
1
1
1
1
1.01483
2.71364
6.30878
6.36831
1
1
1
1
1
1
1
1
1
1
1
1
1
1
1
1
1
1
1
1
1.00009
1.21759
4.22722
6.31993
1
1
1
1
1
1
1
1
1
1
1
1
1
1
1
1
1
1
1
1
1
1.00495
1.79568
4.97067
1
1
1
1
1
1
1
1
1
1
1
1
1
1
1
1
1
1
1
1
1
1.00003
1.05171
2.50843
1
1
1
1
1
1
1
1
1
1
1
1
1
1
1
1
1
1
1
1
1
1
1.00072
1.17774
1
1
1
1
1
1
1
1
1
1
1
1
1
1
1
1
1
1
1
1
1
1
1
1.00466
1
1
1
1
1
1
1
1
1
1
1
1
1
1
1
1
1
1
1
1
1
1
1
1.00003
1
1
1
1
1
1
1
1
1
1
1
1
1
1
1
1
1
1
1
1
1
1
1
1
1
1
1
1
1
1
1
1
1
1
1
1
1
1
1
1
1
1
1
1
1
1
1
1
1
1
1
1
1
1
1
1
1
1
1
1
1
1
1
1
1
1
1
1
1
1
1
1
1
1
1
1
1
1
1
1
1
1
1
1
1
1
1
1
1
1
1
1
1
1
1
1
1
1
1
1
1
1
1
1
1
1
1
1
1
1
1
1
1
1
1
1
1
1
1
1
1
1
1
1
1
1
1
1
1
1
1
1
1
1
1
1
1
1
1
1
1
1
1
1
1
1
1
1
1
1
1
1
1
1
1
1
1
1
1
1
1
1
1
1
1
1
1
1
1
1
1
1
1
1
1
1
1
1
1
1
1
1
1
1
1
1
1
1
1
1
1
1
1
1
1
1
1
1
1
1
1
1
1
1
1
1
1
1
1
1
1
1
1
1
1
1
1
1
1
1
1
1
1
1
1
1
1
1
1
1
1
1
1
1
1
1
1
1
1
1
1
1
1
1
1
1
1
1
1
1
1
1
1
1
1
1
1
1
1
1
1
1
1
1
1
1
1
1
1
1
1
1
1
1
1
1
1
1
1
1
1
1
1
1
1
1
1
1
1
1
1
1
1
1
1
1
1
1
1
1
1
1
1
1
1
1
1
1
1
1
1
1
1
1
1
1
1
1
1
1
1
1
1
1
1
1
1
1
1
1
1
1
1
1
1
1
1
1
1
1
1
1
1
1
1
1
1
1
1
1
1
1
1
1
1
1
1
1
1
1
1
1
1
1
1
1
1
1
1
1
1
1
1
1
1
1
1
1
1
1
1
1
1
1
1
1
1
1
1
1
1
1
1
1
1
1
1
1
1
1
1
1
1
1
1
1
1
1
1
1
1
1
1
1
1
1
1
1
1
1
1
1
1
1
1
1
1
1
1
1
1
1
1
1
1
1
1
1
1
1
1
1
1
1
1
1
1
1
1
1
1
1
1
1
1
1
1
1
1
1
1
1
1
1
1
1
1
1
1
1
1
1
1
1
1
1
1
1
1
1
1
1
1
1
1
1
1
1
1
1
1
1
1
1
1
1
1
1
1
1
1
1
1
1
2.10645
0.607483
1.56287
3.36196
4.01794
4.35748
4.52421
4.5973
4.62292
4.64713
4.66183
4.68108
3.32767
1.6835
2.46279
4.12847
4.39925
4.48883
4.56532
4.61816
4.63664
4.66497
4.67758
4.69926
4.27216
2.59472
2.48606
3.6852
4.28796
4.34335
4.47582
4.5717
4.61625
4.66106
4.66692
4.70342
4.8381
3.40845
2.73762
3.31636
4.25052
4.49281
4.66822
4.71366
4.69721
4.69057
4.67896
4.82779
5.20272
4.05384
3.07287
3.15422
3.86269
4.48731
4.71056
4.64754
4.61595
4.57516
4.42492
3.81385
5.41007
4.45172
3.48395
3.17469
3.51267
4.24369
4.71843
4.64882
4.64715
4.58957
4.42455
3.89837
5.51937
4.73439
3.88946
3.2915
3.35741
3.92759
4.61932
4.67853
4.6477
4.58467
4.41675
3.98042
5.6534
4.97982
4.23703
3.54776
3.37858
3.59542
4.37601
4.64336
4.63727
4.59411
4.45042
4.14593
5.77988
5.15061
4.52584
3.84279
3.43502
3.49187
4.00881
4.52967
4.63022
4.61077
4.4864
4.27293
5.95759
5.33967
4.7828
4.15126
3.61219
3.48738
3.68893
4.32753
4.58998
4.61359
4.52094
4.355
5.94496
5.54138
4.96886
4.42023
3.8434
3.51578
3.56996
3.97984
4.44653
4.61229
4.55356
4.42424
5.13867
5.64163
5.21163
4.67182
4.11529
3.65189
3.55877
3.72426
4.24245
4.56237
4.58035
4.48045
3.13098
5.13615
5.35454
4.95046
4.42298
3.86294
3.6034
3.64286
3.93663
4.39793
4.56569
4.52386
1.38209
3.51311
5.02476
5.12389
4.73221
4.17568
3.71187
3.62206
3.74405
4.15835
4.48997
4.54588
1.01649
1.58818
3.6881
4.87249
4.91545
4.53423
3.96102
3.66438
3.68137
3.86754
4.30833
4.52161
1.00017
1.03567
1.74406
3.73957
4.71165
4.73519
4.33902
3.83043
3.68503
3.76486
4.06053
4.39858
1
1.0005
1.05602
1.84126
3.71146
4.55286
4.56619
4.17146
3.7895
3.72724
3.84575
4.20222
1
1
1.00097
1.07262
1.88129
3.61812
4.40647
4.39223
4.06053
3.78327
3.78953
3.95271
1
1
1
1.00144
1.08182
1.86651
3.48824
4.24753
4.23338
3.98321
3.81813
3.8617
1
1
1
1.00001
1.00176
1.08208
1.80975
3.32246
4.09228
4.09055
3.94279
3.85761
1
1
1
1
1.00001
1.00181
1.07521
1.71805
3.15362
3.92366
3.97113
3.90358
1
1
1
1
1
1.00001
1.0016
1.06357
1.6159
2.93328
3.80889
3.8572
1
1
1
1
1
1
1.00001
1.00133
1.04869
1.50914
2.68426
3.68384
1
1
1
1
1
1
1
1.00001
1.00085
1.03863
1.37202
2.51079
1
1
1
1
1
1
1
1
1
1.00068
1.02221
1.29404
1
1
1
1
1
1
1
1
1
1
1.00034
1.01423
1
1
1
1
1
1
1
1
1
1
1
1.00017
1
1
1
1
1
1
1
1
1
1
1
1
1
1
1
1
1
1
1
1
1
1
1
1
1
1
1
1
1
1
1
1
1
1
1
1
1
1
1
1
1
1
1
1
1
1
1
1
1
1
1
1
1
1
1
1
1
1
1
1
1
1
1
1
1
1
1
1
1
1
1
1
1
1
1
1
1
1
1
1
1
1
1
1
1
1
1
1
1
1
1
1
1
1
1
1
1
1
1
1
1
1
1
1
1
1
1
1
1.62499
1.04345
1.09184
1.20235
1.32858
1.45657
1.47373
1.45242
1.41769
1.37396
1.35958
1.35842
1.36462
1.35762
1.3475
1.34211
1.33427
1.32381
1.31626
1.31115
1.31013
1.31462
1.31681
1.31138
1.30392
1.29584
1.28552
1.27577
1.26993
1.26622
1.26476
1.2681
1.27308
1.27322
1.26868
1.26268
1.25402
1.24189
1.23109
1.22582
1.22356
1.22532
1.32778
3.38227
4.47094
4.5832
4.61123
4.67131
4.70747
4.71738
4.6973
4.66145
4.6171
4.57459
4.53873
4.50701
4.47554
4.44247
4.40994
4.38473
4.36738
4.34498
4.29737
4.2215
4.13141
4.04412
3.97402
3.9289
3.90791
3.91066
3.93262
3.93913
3.87696
3.77339
3.63706
3.50595
3.42128
3.36555
3.35184
3.37078
3.40462
3.43448
3.42487
3.30717
2.55138
1.77756
1.51717
1.39688
1.3312
1.35539
1.35072
1.34148
1.35021
1.36082
1.36631
1.366
1.3587
1.35371
1.34612
1.33999
1.33552
1.33054
1.32427
1.31953
1.31382
1.30712
1.3019
1.29695
1.29433
1.29272
1.2902
1.28697
1.28288
1.27707
1.27065
1.26458
1.26031
1.25804
1.25832
1.25782
1.25509
1.25165
1.2458
1.2364
1.22693
1.22125
1.2681
3.18321
4.43644
4.60745
4.66632
4.72052
4.73534
4.72425
4.70462
4.67933
4.6528
4.62689
4.59728
4.55467
4.49493
4.4241
4.35649
4.3063
4.28025
4.26888
4.25515
4.22901
4.18825
4.13211
4.05671
3.97139
3.89524
3.83726
3.80607
3.79869
3.78049
3.74848
3.69518
3.62618
3.53665
3.44689
3.37804
3.32999
3.30282
3.28847
3.27526
3.21767
3.01776
2.27074
1.70977
1.47715
1.34353
1.24142
1.25896
1.30513
1.35717
1.4068
1.41325
1.40527
1.39565
1.37556
1.3542
1.33103
1.32156
1.31937
1.31932
1.32461
1.32656
1.32416
1.31677
1.30462
1.29155
1.28421
1.28218
1.28239
1.28466
1.28529
1.28255
1.27697
1.26564
1.2531
1.2471
1.24451
1.24408
1.24755
1.25093
1.24958
1.24648
1.23891
1.2304
2.78932
4.44673
4.69444
4.75645
4.77378
4.76062
4.74229
4.71429
4.68026
4.65551
4.64216
4.6339
4.61826
4.5827
4.51978
4.43393
4.33741
4.24888
4.181
4.1423
4.13211
4.13162
4.13103
4.12635
4.09198
4.02357
3.93004
3.80423
3.68405
3.61896
3.59655
3.61431
3.63578
3.63716
3.59814
3.52467
3.41651
3.28737
3.17626
3.11133
3.07382
3.4284
2.77541
2.15962
1.76152
1.6068
1.41462
1.3142
1.30879
1.30709
1.32073
1.34057
1.36076
1.36947
1.36917
1.35992
1.33875
1.3226
1.31941
1.3183
1.31672
1.31668
1.31744
1.31091
1.30024
1.29271
1.28859
1.28533
1.28394
1.28287
1.28082
1.27836
1.27471
1.26537
1.25535
1.25124
1.24864
1.2466
1.24468
1.24322
1.24203
1.24034
1.23644
1.22178
2.23907
4.45866
4.98678
4.97229
4.92094
4.8628
4.79389
4.72327
4.66398
4.61925
4.58441
4.55729
4.53338
4.50867
4.4815
4.44788
4.39672
4.31895
4.23081
4.15446
4.09573
4.05156
4.02825
4.02736
4.03473
4.00728
3.95267
3.88061
3.76869
3.65224
3.59289
3.57063
3.56957
3.57787
3.56494
3.51733
3.447
3.34878
3.22617
3.13508
3.076
3.75789
3.15767
2.61619
2.11794
1.84543
1.62867
1.41249
1.34132
1.29959
1.27351
1.28556
1.31274
1.33364
1.356
1.36567
1.36299
1.35637
1.35205
1.34326
1.33133
1.31992
1.30834
1.29508
1.2853
1.28444
1.28602
1.2901
1.29393
1.29273
1.28946
1.28395
1.27432
1.25802
1.24895
1.24776
1.24769
1.24821
1.24799
1.24691
1.24507
1.24092
1.23081
1.21567
1.56412
4.26425
5.47249
5.27009
5.04374
4.92116
4.82431
4.74683
4.6886
4.63945
4.58835
4.53618
4.48812
4.44582
4.40953
4.38504
4.37215
4.34483
4.28954
4.21964
4.1433
4.07342
4.01949
3.98373
3.97021
3.94462
3.89969
3.85333
3.79453
3.71513
3.63801
3.58937
3.55404
3.51806
3.47729
3.43154
3.3783
3.3187
3.25183
3.19095
3.13449
3.99702
3.49711
2.98277
2.49194
2.1542
1.92343
1.65888
1.49316
1.43006
1.35641
1.29711
1.29992
1.30184
1.29773
1.30061
1.31803
1.34147
1.36411
1.36777
1.36064
1.34476
1.31813
1.29142
1.27864
1.27746
1.27784
1.28247
1.29276
1.298
1.2958
1.2887
1.27517
1.25708
1.24751
1.24516
1.24402
1.24411
1.24563
1.24692
1.24615
1.23969
1.22775
1.2171
1.29396
3.71949
6.07455
5.75313
5.15704
4.9018
4.781
4.72008
4.68472
4.6494
4.59668
4.52104
4.43967
4.36941
4.31949
4.2929
4.29229
4.29407
4.26406
4.21118
4.14194
4.05449
3.97311
3.92643
3.89918
3.8861
3.86163
3.82972
3.79295
3.74203
3.67068
3.58455
3.51474
3.46981
3.42994
3.39134
3.35515
3.32253
3.29138
3.25907
3.17666
4.15533
3.7558
3.31662
2.84828
2.45957
2.19215
1.93093
1.71072
1.59738
1.48412
1.34677
1.30848
1.29882
1.27267
1.2697
1.28802
1.31199
1.32593
1.33819
1.34698
1.34666
1.33794
1.31974
1.30368
1.29438
1.2857
1.28159
1.28413
1.28585
1.28323
1.27469
1.2636
1.25637
1.2536
1.25204
1.25247
1.25232
1.25206
1.25096
1.24509
1.22895
1.22216
1.2439
1.44468
3.04984
6.06909
6.34399
5.56198
5.04089
4.74087
4.64334
4.6093
4.59804
4.57916
4.52504
4.44015
4.34604
4.26722
4.21521
4.19575
4.20198
4.20013
4.16937
4.12261
4.05879
3.97332
3.89256
3.84762
3.82221
3.80731
3.79242
3.76843
3.73196
3.67856
3.59882
3.50044
3.42426
3.38345
3.35508
3.33388
3.31872
3.29752
3.26975
3.18747
4.27579
3.95916
3.57109
3.13934
2.77186
2.48962
2.19009
1.93285
1.79008
1.66578
1.50123
1.41187
1.37784
1.32153
1.2842
1.28556
1.29302
1.29145
1.29439
1.30527
1.31604
1.32696
1.33512
1.3341
1.32766
1.31622
1.30055
1.28778
1.27876
1.26854
1.25816
1.25257
1.25291
1.25593
1.26092
1.26476
1.2628
1.25946
1.25322
1.23691
1.22316
1.24351
1.47424
2.19778
2.82453
4.5379
5.86059
5.72105
5.35805
4.97419
4.71806
4.5757
4.52637
4.50033
4.47335
4.42362
4.3461
4.26042
4.19798
4.15789
4.13231
4.11521
4.09617
4.07238
4.0384
3.98806
3.92117
3.84546
3.7864
3.75439
3.7309
3.71107
3.68456
3.64696
3.59684
3.52508
3.43388
3.35824
3.32031
3.29521
3.27561
3.25312
3.22656
3.15968
4.36646
4.10503
3.7868
3.41437
3.02927
2.73754
2.45785
2.18888
2.00611
1.85519
1.66314
1.53949
1.48363
1.41994
1.33146
1.28996
1.29248
1.27767
1.26963
1.27626
1.29248
1.30241
1.3113
1.31868
1.32353
1.32203
1.31529
1.30316
1.28745
1.2727
1.26054
1.25241
1.25191
1.25382
1.25873
1.2626
1.26224
1.25794
1.24843
1.23352
1.24816
1.49182
2.2264
3.08321
3.09686
3.30862
4.31566
5.20778
5.31444
5.14213
4.90881
4.681
4.52713
4.43627
4.38561
4.34629
4.3099
4.25766
4.1874
4.12077
4.07639
4.04454
4.02044
4.00485
3.99287
3.97208
3.93327
3.87045
3.78131
3.7029
3.66704
3.64193
3.621
3.60012
3.5686
3.52746
3.46733
3.38083
3.29324
3.24525
3.21651
3.19057
3.1661
3.11495
4.44135
4.23491
3.95549
3.61657
3.27986
2.99085
2.69595
2.40741
2.21611
2.055
1.87451
1.70227
1.61928
1.53769
1.42667
1.36115
1.34906
1.31555
1.28079
1.27448
1.27891
1.28103
1.28353
1.28771
1.29692
1.30423
1.30701
1.30537
1.29896
1.28871
1.27788
1.26783
1.26059
1.2572
1.25591
1.25436
1.25058
1.24309
1.23929
1.25455
1.45573
2.35017
2.98555
3.25009
3.24682
3.16074
3.26832
3.89973
4.62807
4.94424
4.90173
4.77355
4.62538
4.46236
4.34743
4.28005
4.24136
4.21317
4.16682
4.08903
4.01352
3.96936
3.94112
3.92135
3.91546
3.90884
3.89001
3.85442
3.78688
3.68241
3.60337
3.57198
3.54966
3.53696
3.52286
3.49515
3.46064
3.40664
3.31603
3.21677
3.16019
3.12926
3.10839
3.07146
4.49723
4.33794
4.10617
3.81207
3.48102
3.20041
2.92666
2.64082
2.42474
2.25344
2.04982
1.87805
1.78117
1.69494
1.55493
1.44397
1.41694
1.37021
1.31332
1.28006
1.28094
1.27658
1.26778
1.26925
1.27821
1.28723
1.2877
1.28691
1.29055
1.29488
1.29423
1.29025
1.28183
1.27253
1.26294
1.25117
1.2367
1.23468
1.25742
1.46817
2.23246
3.18507
3.29658
3.26039
3.211
3.13302
3.06974
3.12686
3.47053
4.07468
4.53153
4.59527
4.59127
4.49611
4.36828
4.26895
4.19757
4.14917
4.11716
4.07267
3.98887
3.89777
3.85564
3.83324
3.82159
3.81934
3.81373
3.79553
3.76214
3.69384
3.58682
3.51287
3.4855
3.46866
3.45984
3.44157
3.41609
3.38686
3.3364
3.24245
3.13608
3.08104
3.06186
3.03176
4.50384
4.42077
4.23563
3.97624
3.67991
3.40389
3.13461
2.85016
2.62603
2.44453
2.25198
2.05153
1.93239
1.83703
1.70464
1.58048
1.52388
1.4661
1.37498
1.31409
1.31715
1.30506
1.28072
1.272
1.27348
1.27492
1.27021
1.26671
1.27025
1.28102
1.2924
1.29468
1.29087
1.28327
1.27147
1.25097
1.24027
1.26433
1.54615
2.25513
3.16235
3.41268
3.35366
3.23299
3.13224
3.0663
3.02285
3.02228
3.03494
3.18062
3.58151
4.03286
4.27759
4.30533
4.30517
4.27063
4.21614
4.14348
4.08109
4.01753
3.95111
3.85998
3.78288
3.74729
3.73017
3.72699
3.72927
3.71734
3.6972
3.66573
3.6017
3.50155
3.43136
3.40508
3.38835
3.37317
3.35254
3.33135
3.30584
3.25842
3.17033
3.06734
3.02378
2.99055
4.44895
4.47049
4.34571
4.12853
3.85837
3.59483
3.3287
3.04832
2.82248
2.63915
2.42729
2.22048
2.10186
1.99843
1.85181
1.70713
1.64518
1.5786
1.48376
1.3895
1.36523
1.3392
1.29597
1.26895
1.26802
1.27023
1.26058
1.25456
1.25882
1.27025
1.27664
1.28294
1.28753
1.28572
1.27856
1.26138
1.27325
1.5618
2.43291
3.14862
3.44643
3.38049
3.27404
3.17165
3.09748
3.04527
3.0152
3.01709
3.00034
2.95083
2.95521
3.12323
3.44015
3.8026
4.00892
4.07595
4.12744
4.14061
4.08257
3.99034
3.91049
3.82502
3.74165
3.67731
3.645
3.63409
3.63432
3.63794
3.62664
3.60733
3.57629
3.51573
3.42184
3.34797
3.32005
3.30102
3.28352
3.26587
3.24794
3.22595
3.18622
3.10725
3.01638
2.94702
4.29149
4.46832
4.43147
4.26878
4.02633
3.7685
3.5166
3.25119
3.00208
2.81377
2.61471
2.40582
2.25255
2.14395
2.00315
1.85792
1.77871
1.7037
1.59148
1.47572
1.4456
1.41374
1.36234
1.30034
1.28894
1.28776
1.26601
1.25289
1.25393
1.26104
1.26167
1.26227
1.26686
1.27105
1.27513
1.3013
1.53909
2.53165
3.21627
3.46099
3.49905
3.3962
3.24913
3.12815
3.06069
3.02021
2.98547
2.97064
2.92199
2.8521
2.82062
2.76984
2.80058
2.96855
3.29124
3.60962
3.82521
3.89564
3.93482
3.91945
3.88173
3.80986
3.73865
3.66257
3.59467
3.54968
3.53602
3.53555
3.53816
3.53234
3.51585
3.4862
3.42801
3.33486
3.25556
3.22774
3.2129
3.19962
3.18581
3.17178
3.15418
3.11803
3.04813
2.92941
4.07795
4.35747
4.44227
4.35951
4.1724
3.93912
3.69127
3.41854
3.19097
3.00282
2.78798
2.56289
2.42585
2.29866
2.14382
1.99134
1.91647
1.83335
1.72214
1.59305
1.53021
1.49543
1.43691
1.36219
1.33813
1.32764
1.29511
1.26037
1.24677
1.24787
1.2459
1.24292
1.24459
1.25403
1.30405
1.60808
2.47339
3.38683
3.51694
3.52139
3.44871
3.34604
3.22972
3.12224
3.05568
3.00057
2.94483
2.89725
2.84305
2.78641
2.74853
2.71966
2.70823
2.6555
2.69762
2.85506
3.11921
3.36794
3.58475
3.67373
3.70383
3.74572
3.73242
3.66683
3.58891
3.50659
3.44701
3.43226
3.42668
3.42513
3.42791
3.41489
3.38719
3.33629
3.24337
3.16411
3.14066
3.12767
3.12192
3.11312
3.10124
3.08217
3.04559
2.93728
3.93122
4.19065
4.39537
4.41639
4.29064
4.07813
3.85238
3.61307
3.36576
3.16568
2.96557
2.75007
2.58681
2.45767
2.2846
2.12637
2.04484
1.96878
1.85448
1.70785
1.64773
1.60277
1.53865
1.43373
1.39087
1.38495
1.35056
1.29998
1.2684
1.26552
1.25509
1.24012
1.24501
1.29191
1.67408
2.53823
3.44646
3.56047
3.47589
3.40239
3.3473
3.30755
3.25557
3.1711
3.09
3.01229
2.93122
2.85295
2.79398
2.74578
2.71079
2.68445
2.63954
2.59523
2.54418
2.49407
2.51758
2.62994
2.86412
3.11483
3.33509
3.50601
3.56297
3.58356
3.56606
3.4964
3.39901
3.33624
3.31602
3.31067
3.32244
3.32384
3.31257
3.29176
3.24066
3.14957
3.08842
3.08039
3.07599
3.05903
3.03971
3.02548
3.00655
2.9361
3.88731
4.00038
4.26093
4.4176
4.38842
4.23496
4.01428
3.75405
3.5454
3.35106
3.13509
2.91384
2.75919
2.60907
2.4376
2.26012
2.1693
2.0935
1.98088
1.84979
1.76394
1.71303
1.64034
1.53328
1.47318
1.45272
1.41255
1.34232
1.30085
1.29056
1.27567
1.26249
1.31103
1.68426
2.71291
3.43633
3.61587
3.52093
3.36911
3.29275
3.26271
3.26156
3.23343
3.16314
3.08395
2.99285
2.89661
2.82038
2.77149
2.72104
2.67818
2.63768
2.585
2.53125
2.4857
2.44585
2.38813
2.33924
2.36156
2.47258
2.68255
2.93079
3.17156
3.35404
3.38248
3.38237
3.35017
3.28444
3.23179
3.21594
3.2204
3.21922
3.2204
3.21378
3.19359
3.14943
3.06716
2.98667
2.96283
2.95214
2.94881
2.95494
2.94588
2.90513
3.87431
3.93906
4.10302
4.32359
4.40929
4.34545
4.18717
3.93684
3.69483
3.50022
3.28673
3.08347
2.93115
2.78528
2.58825
2.39314
2.30356
2.22224
2.10686
1.96565
1.89895
1.83741
1.75564
1.62907
1.56084
1.53715
1.48932
1.4234
1.36738
1.33021
1.31613
1.37721
1.81917
2.86087
3.62344
3.6416
3.51346
3.37829
3.29691
3.26427
3.24852
3.21185
3.15177
3.08084
3.01723
2.94665
2.87822
2.82561
2.76324
2.68707
2.63009
2.58479
2.52413
2.4764
2.44542
2.40863
2.36213
2.30513
2.23463
2.19821
2.22467
2.32591
2.50617
2.74873
2.96414
3.13857
3.1802
3.16994
3.14349
3.11579
3.10774
3.1206
3.13171
3.13894
3.12751
3.09888
3.03495
2.9289
2.87282
2.8664
2.88107
2.91656
2.91857
2.88162
3.77332
3.83244
3.94742
4.1544
4.33831
4.37763
4.30968
4.1159
3.86898
3.6643
3.44254
3.22771
3.07797
2.93963
2.76006
2.57505
2.4396
2.34168
2.22465
2.0969
2.01417
1.95205
1.86813
1.73959
1.66466
1.62389
1.57522
1.49641
1.43587
1.41286
1.49436
2.01384
3.03273
3.78355
3.80267
3.68125
3.51002
3.37133
3.29951
3.2428
3.19874
3.14908
3.07488
2.99496
2.9417
2.89556
2.86122
2.8269
2.75441
2.64357
2.57555
2.52944
2.47356
2.43823
2.4186
2.39315
2.35154
2.28905
2.20879
2.12898
2.08964
2.08253
2.10267
2.18287
2.33443
2.56025
2.73883
2.8665
2.98082
2.99501
2.9748
2.99995
3.04202
3.03737
3.03181
3.02217
2.97708
2.90058
2.81892
2.78506
2.77828
2.78476
2.79621
2.77618
3.35313
3.70199
3.97319
4.11856
4.23273
4.34606
4.36465
4.25913
4.058
3.85243
3.61054
3.38502
3.23741
3.08267
2.89323
2.7255
2.61651
2.48925
2.34558
2.19507
2.1344
2.07024
1.97539
1.85274
1.76975
1.72363
1.66252
1.58305
1.54278
1.64299
2.30409
3.35808
4.02243
4.04879
3.8732
3.65132
3.53219
3.43371
3.32819
3.22148
3.1321
3.05914
2.98396
2.92423
2.88368
2.8493
2.81422
2.77235
2.70198
2.58211
2.51165
2.47112
2.43639
2.41797
2.39902
2.36777
2.32799
2.27431
2.19767
2.10973
2.03476
2.01154
2.00551
2.00578
2.01784
2.0704
2.19838
2.327
2.47033
2.6471
2.74487
2.82986
2.89002
2.92045
2.94069
2.93537
2.91951
2.87234
2.80369
2.74082
2.7102
2.70402
2.70733
2.70327
2.1847
3.0439
3.749
4.03279
4.1086
4.27147
4.35934
4.32635
4.18901
4.00603
3.77687
3.55354
3.40109
3.24528
3.03505
2.87066
2.75361
2.62825
2.47339
2.31669
2.25639
2.1835
2.09037
1.96176
1.88248
1.82252
1.74294
1.72275
1.91651
2.69351
3.9177
4.26709
4.23726
4.0878
3.86478
3.69796
3.59963
3.50252
3.38669
3.25656
3.11858
3.00783
2.93364
2.88015
2.83316
2.78976
2.74416
2.69265
2.63589
2.54136
2.461
2.41896
2.37492
2.34062
2.32006
2.28758
2.25348
2.22224
2.17449
2.1024
2.01715
1.97433
1.96317
1.95666
1.93703
1.91955
1.91503
1.94453
1.98845
2.08402
2.24217
2.43302
2.59355
2.69357
2.79129
2.82208
2.82273
2.81846
2.78522
2.73145
2.68167
2.64278
2.63155
2.62521
1.19418
1.7938
2.90525
3.78076
3.90293
4.13471
4.3049
4.32067
4.23612
4.11232
3.94833
3.72254
3.55264
3.39087
3.18105
3.01301
2.8991
2.77055
2.6059
2.43797
2.37313
2.30225
2.20118
2.08157
1.99644
1.91144
1.92966
2.26141
3.31368
4.43669
4.73505
4.58084
4.34474
4.13595
3.94501
3.80782
3.69838
3.58193
3.45699
3.32193
3.18137
3.05732
2.96185
2.88261
2.81381
2.7519
2.69256
2.63133
2.56235
2.49292
2.43868
2.38234
2.33499
2.29294
2.25926
2.22213
2.18227
2.16113
2.13625
2.08652
2.00496
1.94573
1.92789
1.91154
1.8836
1.85942
1.84051
1.82818
1.80194
1.79268
1.8201
1.90565
2.103
2.29427
2.46588
2.60958
2.67445
2.68876
2.6898
2.6809
2.65421
2.60588
2.56892
2.55902
1.00731
1.09758
1.56223
2.79504
3.50531
3.92294
4.26332
4.32351
4.33563
4.24722
4.0893
3.88864
3.73303
3.5627
3.31529
3.14989
3.04159
2.91794
2.7399
2.58979
2.51058
2.42128
2.29066
2.18386
2.10187
2.1739
2.69268
3.98156
5.08282
5.18988
4.98176
4.69374
4.43344
4.22773
4.05322
3.90684
3.77853
3.6566
3.53411
3.40238
3.257
3.11102
2.98801
2.89083
2.80872
2.73505
2.67001
2.60999
2.54832
2.48433
2.41822
2.33175
2.25609
2.2154
2.17863
2.14707
2.11481
2.09797
2.08577
2.05831
1.99855
1.91029
1.86451
1.84891
1.82693
1.80074
1.78421
1.76761
1.7541
1.7356
1.69302
1.67543
1.70213
1.80098
1.94955
2.13965
2.3877
2.48655
2.545
2.57544
2.57473
2.54838
2.4952
2.47699
1.00006
1.00299
1.04871
1.48383
2.50054
3.29555
4.06154
4.30043
4.33074
4.2545
4.19072
4.07861
3.91148
3.72514
3.49694
3.29804
3.17485
3.04226
2.85642
2.73123
2.64946
2.53879
2.41751
2.31982
2.47922
3.34533
4.65483
5.66352
5.70941
5.50646
5.16235
4.82885
4.55695
4.33911
4.16107
4.00995
3.8726
3.74229
3.61695
3.48779
3.34187
3.17946
3.02527
2.90278
2.80733
2.72838
2.6641
2.60898
2.55588
2.49524
2.4177
2.3151
2.21704
2.16876
2.12855
2.09196
2.06083
2.04444
2.03211
2.00377
1.95382
1.87949
1.81879
1.79416
1.7679
1.74373
1.73223
1.72486
1.7134
1.6931
1.6669
1.62625
1.56575
1.55166
1.57977
1.66211
1.82794
2.04131
2.22891
2.41121
2.48024
2.46895
2.42168
2.40621
1
1.00002
1.00119
1.0378
1.35717
2.00299
3.22722
4.12185
4.20063
4.26097
4.25003
4.17827
4.00609
3.82367
3.63137
3.45101
3.3293
3.17799
2.98568
2.85673
2.75466
2.64497
2.63321
2.97582
4.2697
5.61261
6.133
6.08016
5.82483
5.53299
5.24254
4.97251
4.71126
4.47405
4.277
4.11021
3.95944
3.8193
3.68745
3.55562
3.40959
3.2455
3.08624
2.95591
2.85148
2.76347
2.68547
2.61516
2.54368
2.47081
2.39467
2.30024
2.19675
2.14744
2.1085
2.06635
2.0303
2.00718
1.99098
1.96513
1.91728
1.84367
1.77764
1.74531
1.7158
1.69409
1.68891
1.68702
1.67505
1.64893
1.6198
1.58838
1.54628
1.48834
1.46853
1.47616
1.5117
1.60872
1.74815
1.9592
2.12303
2.2401
2.35787
2.37064
1
1
1.00001
1.00073
1.02016
1.14423
1.75371
3.23267
3.83624
4.16286
4.32749
4.25973
4.12868
4.00138
3.80281
3.59254
3.4716
3.32393
3.11124
2.99486
2.88141
2.97554
3.69589
5.28435
6.6865
6.7939
6.59092
6.23408
5.87406
5.5546
5.30072
5.08278
4.85549
4.62089
4.40631
4.2224
4.05932
3.90615
3.75552
3.60357
3.44993
3.29515
3.13948
3.00022
2.90047
2.82856
2.75719
2.67468
2.5884
2.50214
2.41482
2.31477
2.19919
2.14437
2.11925
2.08264
2.03798
1.99649
1.96096
1.92775
1.88209
1.81292
1.75814
1.71992
1.67955
1.64641
1.63726
1.63336
1.61976
1.58886
1.57046
1.55612
1.52689
1.48207
1.44283
1.43026
1.42735
1.42984
1.44834
1.51776
1.65239
1.82096
1.99254
2.18782
1
1
1
1
1.00022
1.00506
1.07514
1.75662
2.89742
3.74614
4.2675
4.32528
4.26753
4.13498
3.94576
3.78368
3.6414
3.44406
3.24468
3.15647
3.42926
4.76103
6.6396
7.4234
7.33741
6.99409
6.64098
6.3155
5.99505
5.69272
5.43374
5.20196
4.97235
4.73537
4.50187
4.29424
4.12031
3.96727
3.81864
3.6647
3.50575
3.35227
3.2121
3.08176
2.9567
2.83693
2.72829
2.63655
2.56355
2.49816
2.42799
2.34457
2.25651
2.179
2.10702
2.03972
1.98161
1.94265
1.91096
1.87466
1.83472
1.79971
1.76181
1.71184
1.65583
1.611
1.59133
1.57929
1.56037
1.53094
1.52087
1.51546
1.50242
1.47746
1.43648
1.40491
1.38673
1.36835
1.36272
1.36602
1.38739
1.45834
1.56668
1.81851
1
1
1
1
1
1.00004
1.00213
1.08122
1.57622
2.41842
3.80568
4.24666
4.22953
4.16672
4.08121
3.92977
3.7314
3.51814
3.46972
4.0978
6.02495
7.93611
8.32838
8.16064
7.66389
7.12305
6.70778
6.39993
6.12105
5.84732
5.57874
5.31204
5.04905
4.80045
4.57193
4.36194
4.17174
4.00162
3.8463
3.69956
3.55705
3.41069
3.25751
3.11894
2.99699
2.87679
2.76247
2.66558
2.58894
2.51643
2.43514
2.33915
2.25214
2.18715
2.11769
2.03755
1.97131
1.9308
1.89535
1.85521
1.81396
1.77129
1.73345
1.69721
1.65062
1.60055
1.56493
1.53927
1.51392
1.48755
1.47904
1.47707
1.47107
1.455
1.42661
1.38568
1.35258
1.33511
1.32929
1.32671
1.32488
1.32549
1.34156
1.45311
1
1
1
1
1
1
1.00002
1.00225
1.04495
1.25094
2.37499
3.68638
4.06767
4.2129
4.19038
4.03935
3.80793
3.84675
4.8961
7.75166
8.97677
8.90424
8.60322
8.22626
7.78591
7.29124
6.83731
6.47793
6.18131
5.9167
5.66232
5.40386
5.13845
4.87353
4.62104
4.39579
4.20634
4.04632
3.90221
3.76573
3.63153
3.49192
3.33884
3.17275
3.00987
2.88787
2.80996
2.73881
2.65305
2.56384
2.48038
2.39672
2.30444
2.19784
2.11665
2.06592
2.01706
1.96837
1.92479
1.87149
1.8059
1.76208
1.7321
1.69703
1.64411
1.58473
1.53416
1.49996
1.47355
1.45049
1.44166
1.44086
1.43612
1.42179
1.40105
1.36019
1.3197
1.31064
1.30875
1.30833
1.30184
1.29479
1.28968
1.30493
1
1
1
1
1
1
1
1.00001
1.00066
1.01102
1.22691
2.36068
3.36667
4.10991
4.16932
4.13483
4.21251
5.91629
9.04971
10.3664
10.0837
9.28791
8.61477
8.1787
7.81368
7.40811
6.9658
6.56329
6.23193
5.94858
5.68569
5.43365
5.18918
4.94666
4.70234
4.46262
4.24346
4.05965
3.90289
3.75702
3.61447
3.48271
3.35685
3.213
3.06985
2.94349
2.8222
2.7105
2.6146
2.52318
2.43459
2.3745
2.3139
2.23916
2.1559
2.0671
1.9859
1.91591
1.85562
1.81436
1.77603
1.74676
1.71657
1.67906
1.63068
1.57833
1.52306
1.48111
1.45435
1.43536
1.42651
1.42177
1.41171
1.39647
1.37637
1.335
1.29307
1.28494
1.28389
1.28667
1.28338
1.27912
1.27587
1.27082
1
1
1
1
1
1
1
1
1
1.00014
1.01061
1.2522
1.96419
3.13778
3.90044
4.59408
6.77392
10.53
11.0022
10.2269
9.82665
9.3716
8.80535
8.28283
7.85633
7.45398
7.04383
6.6408
6.28285
5.97894
5.71526
5.47605
5.24445
5.00694
4.76466
4.53349
4.31469
4.10136
3.91206
3.75702
3.62627
3.50191
3.38238
3.28721
3.1786
3.03596
2.87866
2.74148
2.63653
2.54779
2.45278
2.38472
2.35599
2.3103
2.22758
2.11528
2.00569
1.91501
1.82824
1.79245
1.78137
1.76546
1.73814
1.70422
1.6641
1.61097
1.54252
1.48976
1.46096
1.44509
1.43621
1.42339
1.40235
1.38094
1.35723
1.31844
1.28138
1.27433
1.27264
1.27477
1.27526
1.2725
1.27044
1.2637
1
1
1
1
1
1
1
1
1
1
1.00016
1.0124
1.11533
1.73658
3.98207
7.25518
12.399
15.8157
12.858
10.4552
9.54983
9.26896
8.86678
8.36902
7.89156
7.46367
7.05025
6.6484
6.29255
5.98694
5.72194
5.48359
5.26134
5.04697
4.8245
4.56988
4.29849
4.0639
3.87812
3.72697
3.60183
3.49601
3.39383
3.27044
3.12181
2.96041
2.80571
2.68033
2.58307
2.50276
2.44222
2.39642
2.34004
2.26632
2.172
2.06663
1.97249
1.88763
1.82526
1.78437
1.74991
1.72363
1.69388
1.65503
1.60893
1.55321
1.49272
1.44479
1.41453
1.40197
1.3956
1.38574
1.37016
1.35079
1.32584
1.28416
1.25584
1.25148
1.25002
1.25194
1.25703
1.25814
1.25815
1.25408
)
;

boundaryField
{
    inlet
    {
        type            fixedValue;
        value           uniform 1;
    }
    outlet
    {
        type            zeroGradient;
    }
    bottom
    {
        type            zeroGradient;
    }
    top
    {
        type            zeroGradient;
    }
    obstacle
    {
        type            zeroGradient;
    }
    defaultFaces
    {
        type            empty;
    }
}


// ************************************************************************* //
