/*--------------------------------*- C++ -*----------------------------------*\
  =========                 |
  \\      /  F ield         | OpenFOAM: The Open Source CFD Toolbox
   \\    /   O peration     | Website:  https://openfoam.org
    \\  /    A nd           | Version:  7
     \\/     M anipulation  |
\*---------------------------------------------------------------------------*/
FoamFile
{
    version     2.0;
    format      ascii;
    class       volScalarField;
    location    "2";
    object      rho;
}
// * * * * * * * * * * * * * * * * * * * * * * * * * * * * * * * * * * * * * //

dimensions      [1 -3 0 0 0 0 0];

internalField   nonuniform List<scalar> 
4128
(
1.40001
1.40001
1.40001
1.40001
1.40001
1.40001
1.40001
1.40001
1.40001
1.40001
1.40012
1.41071
1.63788
2.60087
3.6573
3.80498
3.80411
3.77598
3.74274
3.69097
3.61618
3.56005
3.51426
3.45886
3.41244
3.40303
3.37988
3.32491
3.28209
3.24177
3.17639
3.11737
3.09181
3.06407
3.03042
2.99414
2.95844
2.92276
2.8864
2.85569
2.81554
2.77669
2.75199
2.71555
2.67887
2.65517
2.61558
2.58652
2.56647
2.53483
2.51106
2.48241
2.45107
2.43183
2.40344
2.3754
2.35316
2.31773
2.29824
2.27806
2.25498
2.23423
2.20754
2.1921
2.17223
2.14724
2.12677
2.09691
2.07516
2.05638
2.03614
2.0178
1.99755
1.98784
1.97442
1.95591
1.93779
1.91602
1.90294
1.88889
1.86899
1.83442
1.82608
1.84728
1.40001
1.40001
1.40001
1.40001
1.40001
1.40001
1.40001
1.40001
1.40001
1.40001
1.40001
1.40001
1.40001
1.40001
1.40001
1.40012
1.41192
1.65145
2.69706
3.58361
3.78542
3.80642
3.78462
3.71554
3.63731
3.59434
3.54996
3.49394
3.47049
3.46368
3.41891
3.36071
3.31891
3.27068
3.20355
3.15537
3.1317
3.10311
3.06804
3.03114
2.99458
2.95917
2.92774
2.88718
2.84472
2.82067
2.78723
2.74343
2.71536
2.68579
2.64427
2.62636
2.60056
2.57092
2.54411
2.51194
2.49037
2.46545
2.43453
2.41411
2.38177
2.3497
2.33307
2.30829
2.28686
2.26184
2.24119
2.22583
2.20083
2.17824
2.15449
2.12242
2.1037
2.08346
2.06539
2.04533
2.02849
2.01862
2.00141
1.98344
1.96375
1.94588
1.93179
1.91315
1.89253
1.86125
1.84258
1.84813
1.40001
1.40001
1.40001
1.40001
1.40001
1.40001
1.40001
1.40001
1.40001
1.40001
1.40001
1.40001
1.40001
1.40001
1.40001
1.40001
1.40015
1.41432
1.67696
2.71967
3.49223
3.78997
3.81125
3.74777
3.68695
3.64192
3.58063
3.5322
3.5249
3.50844
3.44943
3.39643
3.35161
3.29821
3.23157
3.19344
3.17494
3.14607
3.10794
3.06824
3.02995
2.99654
2.9593
2.91282
2.88767
2.86101
2.81733
2.77839
2.75244
2.70736
2.67579
2.66059
2.6349
2.60856
2.57664
2.54936
2.52476
2.49339
2.46855
2.44625
2.40588
2.38688
2.36554
2.33951
2.31868
2.29291
2.27704
2.25675
2.22994
2.20867
2.17612
2.15082
2.1336
2.11312
2.09641
2.07442
2.06034
2.04761
2.02807
2.01057
1.99078
1.97627
1.95857
1.93598
1.91419
1.88859
1.87567
1.86676
1.40001
1.40001
1.40001
1.40001
1.40001
1.40001
1.40001
1.40001
1.40001
1.40001
1.40001
1.40001
1.40001
1.40001
1.40001
1.40001
1.40001
1.4002
1.41545
1.69351
2.62599
3.43769
3.80127
3.80417
3.75408
3.67915
3.6068
3.57633
3.57795
3.544
3.47761
3.42689
3.37968
3.32404
3.26138
3.2369
3.22122
3.18802
3.14559
3.10408
3.0683
3.03207
2.98271
2.95024
2.93073
2.89472
2.8489
2.82169
2.78594
2.73247
2.71176
2.69411
2.66908
2.64144
2.61383
2.58818
2.55881
2.52999
2.50675
2.46458
2.43655
2.42179
2.39359
2.371
2.34876
2.32705
2.31112
2.28556
2.26162
2.23534
2.20041
2.18325
2.16426
2.14535
2.12819
2.10461
2.0913
2.07453
2.05496
2.03524
2.01721
2.00307
1.9814
1.95872
1.93739
1.91835
1.91228
1.90135
1.40001
1.40001
1.40001
1.40001
1.40001
1.40001
1.40001
1.40001
1.40001
1.40001
1.40001
1.40001
1.40001
1.40001
1.40001
1.40001
1.40001
1.40001
1.40021
1.41545
1.6498
2.42052
3.4317
3.79814
3.77043
3.70381
3.64609
3.63397
3.63519
3.57564
3.50469
3.45506
3.40671
3.34712
3.29731
3.2872
3.2693
3.22803
3.18184
3.14308
3.10722
3.05854
3.01305
2.99383
2.96691
2.92137
2.88403
2.85999
2.81258
2.76765
2.75203
2.73086
2.70301
2.6747
2.64794
2.61964
2.59161
2.57112
2.53489
2.49254
2.47881
2.45357
2.42252
2.40329
2.37904
2.36134
2.3417
2.31498
2.29125
2.25497
2.23144
2.21595
2.19461
2.17895
2.16011
2.13736
2.12231
2.10215
2.08228
2.06005
2.04437
2.02788
2.00364
1.98495
1.96482
1.95244
1.94599
1.93341
1.40001
1.40001
1.40001
1.40001
1.40001
1.40001
1.40001
1.40001
1.40001
1.40001
1.40001
1.40001
1.40001
1.40001
1.40001
1.40001
1.40001
1.40001
1.40001
1.40018
1.41025
1.56896
2.3278
3.48364
3.70083
3.72011
3.70306
3.70179
3.67509
3.58671
3.5237
3.48232
3.43568
3.37473
3.34856
3.34571
3.31475
3.26082
3.21565
3.18159
3.13956
3.08281
3.05577
3.03779
3.00134
2.95404
2.92613
2.88952
2.833
2.8032
2.78765
2.76641
2.74105
2.71499
2.68734
2.65631
2.62841
2.59521
2.54777
2.53118
2.51402
2.4789
2.45663
2.43968
2.41179
2.39265
2.36882
2.34468
2.31345
2.28067
2.26572
2.24635
2.22674
2.21358
2.1888
2.16873
2.15145
2.12991
2.10748
2.08592
2.07117
2.05145
2.02888
2.01433
1.99514
1.98531
1.97439
1.95702
1.40001
1.40001
1.40001
1.40001
1.40001
1.40001
1.40001
1.40001
1.40001
1.40001
1.40001
1.40001
1.40001
1.40001
1.40001
1.40001
1.40001
1.40001
1.40001
1.40001
1.40009
1.40621
1.54755
2.40259
3.4064
3.64487
3.7328
3.74977
3.69351
3.59429
3.55305
3.51714
3.46199
3.41191
3.40649
3.39858
3.34925
3.2948
3.25696
3.21597
3.15663
3.11163
3.09938
3.07538
3.02972
2.99521
2.96762
2.91491
2.86476
2.84202
2.81917
2.79663
2.775
2.75126
2.72445
2.69768
2.66417
2.60922
2.58223
2.57147
2.53948
2.50396
2.49247
2.47395
2.44562
2.42326
2.39787
2.37015
2.33347
2.31383
2.29708
2.27536
2.26274
2.24722
2.21597
2.19945
2.17924
2.15594
2.13121
2.11323
2.09827
2.07691
2.06046
2.04543
2.02589
2.01385
1.99652
1.97536
1.40001
1.40001
1.40001
1.40001
1.40001
1.40001
1.40001
1.40001
1.40001
1.40001
1.40001
1.40001
1.40001
1.40001
1.40001
1.40001
1.40001
1.40001
1.40001
1.40001
1.40001
1.40006
1.40637
1.5689
2.44924
3.275
3.67092
3.76647
3.7115
3.63879
3.60038
3.5462
3.48776
3.46421
3.46958
3.4407
3.37643
3.32945
3.29179
3.24171
3.17804
3.15804
3.14609
3.10909
3.06117
3.03381
2.99417
2.93548
2.90592
2.88221
2.85667
2.83643
2.81598
2.7887
2.75915
2.72934
2.67755
2.63461
2.6261
2.60398
2.56388
2.54438
2.53231
2.49921
2.4735
2.45223
2.42765
2.39215
2.36443
2.34688
2.32473
2.30745
2.29831
2.27154
2.24464
2.23003
2.20641
2.18049
2.15661
2.14192
2.12615
2.10669
2.09397
2.0745
2.05502
2.038
2.01604
1.99366
1.40001
1.40001
1.40001
1.40001
1.40001
1.40001
1.40001
1.40001
1.40001
1.40001
1.40001
1.40001
1.40001
1.40001
1.40001
1.40001
1.40001
1.40001
1.40001
1.40001
1.40001
1.40001
1.40008
1.40771
1.58838
2.35209
3.17855
3.70934
3.75179
3.71048
3.63342
3.56449
3.52769
3.52952
3.532
3.47219
3.40871
3.36735
3.31897
3.25218
3.21091
3.20877
3.18794
3.13845
3.1045
3.07029
3.00919
2.96564
2.94517
2.91673
2.8938
2.8782
2.85809
2.82869
2.79525
2.74755
2.6912
2.67292
2.66182
2.62841
2.59606
2.59063
2.56917
2.5259
2.50131
2.47984
2.45119
2.41903
2.39829
2.37635
2.35496
2.34572
2.3282
2.28976
2.27554
2.25826
2.2311
2.20542
2.18573
2.17241
2.15591
2.14051
2.12508
2.09918
2.07899
2.05791
2.03601
2.01512
1.40001
1.40001
1.40001
1.40001
1.40001
1.40001
1.40001
1.40001
1.40001
1.40001
1.40001
1.40001
1.40001
1.40001
1.40001
1.40001
1.40001
1.40001
1.40001
1.40001
1.40001
1.40001
1.40001
1.40009
1.40807
1.55145
2.11505
3.09494
3.71924
3.70254
3.64069
3.60443
3.59439
3.61212
3.56735
3.48311
3.43441
3.39573
3.3399
3.27753
3.26578
3.26029
3.21965
3.17198
3.14122
3.09001
3.03174
3.01107
2.98705
2.95712
2.93577
2.91708
2.89142
2.86085
2.81912
2.75839
2.72318
2.71359
2.69173
2.6558
2.642
2.62668
2.58938
2.55722
2.53275
2.50674
2.47663
2.45299
2.42989
2.40449
2.39088
2.3802
2.34469
2.31786
2.30759
2.2827
2.25586
2.23397
2.21842
2.2051
2.18867
2.17382
2.15089
2.12203
2.09985
2.07681
2.05934
2.04279
1.40001
1.40001
1.40001
1.40001
1.40001
1.40001
1.40001
1.40001
1.40001
1.40001
1.40001
1.40001
1.40001
1.40001
1.40001
1.40001
1.40001
1.40001
1.40001
1.40001
1.40001
1.40001
1.40001
1.40001
1.40008
1.40456
1.47941
1.96789
3.13264
3.57321
3.63528
3.65862
3.66297
3.65205
3.56688
3.49699
3.46686
3.41828
3.35131
3.32045
3.32541
3.3029
3.24856
3.2118
3.16754
3.10199
3.06974
3.05508
3.02713
3.0033
2.98281
2.95626
2.92348
2.88634
2.8321
2.78142
2.76281
2.74653
2.71928
2.7005
2.69163
2.65582
2.61142
2.58289
2.55953
2.53411
2.51102
2.4879
2.46076
2.44027
2.42934
2.40122
2.36051
2.35047
2.33477
2.30491
2.2835
2.26599
2.25267
2.23826
2.2227
2.20302
2.17042
2.14163
2.11772
2.09647
2.08603
2.07429
1.40001
1.40001
1.40001
1.40001
1.40001
1.40001
1.40001
1.40001
1.40001
1.40001
1.40001
1.40001
1.40001
1.40001
1.40001
1.40001
1.40001
1.40001
1.40001
1.40001
1.40001
1.40001
1.40001
1.40001
1.40001
1.40003
1.40183
1.45715
1.9843
3.07832
3.4954
3.65249
3.69695
3.66157
3.56633
3.52882
3.49668
3.4355
3.37891
3.37479
3.3746
3.33008
3.28149
3.2433
3.18309
3.12865
3.1168
3.09766
3.07049
3.04904
3.02174
2.9864
2.94759
2.90072
2.85106
2.82029
2.79926
2.77693
2.75754
2.74628
2.72119
2.67933
2.63877
2.60825
2.58317
2.56529
2.54749
2.52154
2.49477
2.47977
2.45767
2.41247
2.39168
2.38278
2.35716
2.33131
2.31596
2.29953
2.28547
2.26994
2.2538
2.22622
2.18975
2.16138
2.13694
2.12156
2.11729
2.10777
1.40001
1.40001
1.40001
1.40001
1.40001
1.40001
1.40001
1.40001
1.40001
1.40001
1.40001
1.40001
1.40001
1.40001
1.40001
1.40001
1.40001
1.40001
1.40001
1.40001
1.40001
1.40001
1.40001
1.40001
1.40001
1.40001
1.40002
1.40156
1.46161
2.02999
2.97387
3.48346
3.69853
3.67824
3.61371
3.57919
3.51835
3.45154
3.42548
3.43563
3.41231
3.35328
3.31326
3.26618
3.19945
3.17041
3.16455
3.14245
3.11721
3.09109
3.05336
3.00727
2.96333
2.92099
2.88431
2.85719
2.83493
2.81875
2.80568
2.78102
2.74114
2.69705
2.66136
2.63218
2.61503
2.60528
2.58605
2.55779
2.53722
2.51601
2.47162
2.4354
2.42649
2.40849
2.37812
2.36334
2.35052
2.33365
2.31715
2.30162
2.28021
2.24434
2.20859
2.18176
2.16027
2.15336
2.15091
2.13902
1.40001
1.40001
1.40001
1.40001
1.40001
1.40001
1.40001
1.40001
1.40001
1.40001
1.40001
1.40001
1.40001
1.40001
1.40001
1.40001
1.40001
1.40001
1.40001
1.40001
1.40001
1.40001
1.40001
1.40001
1.40001
1.40001
1.40001
1.40002
1.40188
1.47051
1.9629
2.7637
3.48681
3.6867
3.67375
3.60596
3.52951
3.48999
3.49643
3.49745
3.43793
3.3791
3.33839
3.28368
3.22996
3.22154
3.21519
3.18941
3.15927
3.12229
3.06983
3.02035
2.98683
2.95184
2.91973
2.89554
2.8793
2.864
2.83866
2.80134
2.75574
2.7177
2.68581
2.6612
2.65337
2.64504
2.6214
2.5956
2.57454
2.53669
2.48763
2.4731
2.46162
2.43261
2.40706
2.39668
2.38102
2.36437
2.34799
2.33034
2.30084
2.26204
2.22931
2.20453
2.19048
2.18933
2.18376
2.16821
1.40001
1.40001
1.40001
1.40001
1.40001
1.40001
1.40001
1.40001
1.40001
1.40001
1.40001
1.40001
1.40001
1.40001
1.40001
1.40001
1.40001
1.40001
1.40001
1.40001
1.40001
1.40001
1.40001
1.40001
1.40001
1.40001
1.40001
1.40001
1.40002
1.40186
1.45015
1.76535
2.5534
3.50408
3.63676
3.58465
3.55994
3.55581
3.57201
3.52117
3.4432
3.40502
3.36687
3.30745
3.27767
3.27993
3.26591
3.22961
3.1891
3.13942
3.07706
3.04498
3.01976
2.98596
2.95901
2.94299
2.92554
2.89382
2.85899
2.81544
2.77329
2.74392
2.71536
2.70164
2.69892
2.68486
2.65578
2.62951
2.59764
2.54549
2.51546
2.50986
2.49128
2.45926
2.44407
2.42829
2.4112
2.39437
2.37915
2.35569
2.31843
2.2808
2.25126
2.23092
2.22648
2.22576
2.21299
2.19766
1.40001
1.40001
1.40001
1.40001
1.40001
1.40001
1.40001
1.40001
1.40001
1.40001
1.40001
1.40001
1.40001
1.40001
1.40001
1.40001
1.40001
1.40001
1.40001
1.40001
1.40001
1.40001
1.40001
1.40001
1.40001
1.40001
1.40001
1.40001
1.40001
1.40001
1.40081
1.42174
1.64164
2.55973
3.41527
3.51478
3.5833
3.6181
3.60381
3.51945
3.46237
3.44591
3.40097
3.33977
3.32958
3.33232
3.30173
3.2542
3.20767
3.14598
3.09628
3.08154
3.05559
3.02416
3.00701
2.99062
2.95274
2.91303
2.87597
2.8305
2.79976
2.77666
2.75535
2.75032
2.74524
2.72019
2.68627
2.65401
2.60968
2.55998
2.54833
2.54102
2.51594
2.49163
2.47619
2.45974
2.44292
2.4278
2.40859
2.37682
2.33735
2.30233
2.27494
2.26178
2.26106
2.25657
2.23805
2.22708
1.40001
1.40001
1.40001
1.40001
1.40001
1.40001
1.40001
1.40001
1.40001
1.40001
1.40001
1.40001
1.40001
1.40001
1.40001
1.40001
1.40001
1.40001
1.40001
1.40001
1.40001
1.40001
1.40001
1.40001
1.40001
1.40001
1.40001
1.40001
1.40001
1.40001
1.40001
1.40027
1.41387
1.63677
2.55785
3.23509
3.52607
3.65276
3.62092
3.54582
3.52577
3.4895
3.41705
3.37966
3.38479
3.37097
3.31879
3.27
3.22178
3.15886
3.13373
3.12301
3.09463
3.07214
3.05537
3.01943
2.96734
2.93526
2.89568
2.85469
2.83648
2.81498
2.80108
2.79742
2.78098
2.74566
2.70877
2.67291
2.62435
2.58867
2.58213
2.56915
2.54424
2.52381
2.5057
2.48854
2.47409
2.46012
2.4367
2.39955
2.36055
2.32866
2.30405
2.29616
2.29274
2.27881
2.26211
2.25454
1.40001
1.40001
1.40001
1.40001
1.40001
1.40001
1.40001
1.40001
1.40001
1.40001
1.40001
1.40001
1.40001
1.40001
1.40001
1.40001
1.40001
1.40001
1.40001
1.40001
1.40001
1.40001
1.40001
1.40001
1.40001
1.40001
1.40001
1.40001
1.40001
1.40001
1.40001
1.40001
1.40023
1.41359
1.65136
2.4558
3.12454
3.5793
3.64931
3.62357
3.56361
3.48449
3.43835
3.43689
3.44232
3.39364
3.32922
3.28611
3.23713
3.18854
3.18026
3.1691
3.14203
3.11805
3.08485
3.0262
2.98723
2.96151
2.92013
2.89541
2.88012
2.85642
2.84535
2.83564
2.80622
2.76385
2.72519
2.69082
2.64742
2.6207
2.61197
2.59867
2.57789
2.55546
2.53553
2.52085
2.50843
2.4902
2.45799
2.41808
2.38428
2.35518
2.33677
2.33342
2.32485
2.30281
2.29175
2.28253
1.40001
1.40001
1.40001
1.40001
1.40001
1.40001
1.40001
1.40001
1.40001
1.40001
1.40001
1.40001
1.40001
1.40001
1.40001
1.40001
1.40001
1.40001
1.40001
1.40001
1.40001
1.40001
1.40001
1.40001
1.40001
1.40001
1.40001
1.40001
1.40001
1.40001
1.40001
1.40001
1.40001
1.40023
1.41448
1.6141
2.17883
3.00457
3.61418
3.61604
3.53296
3.49673
3.49042
3.51137
3.47303
3.39397
3.3437
3.30924
3.25941
3.23213
3.23291
3.22001
3.19095
3.15523
3.09913
3.03438
3.01357
2.9902
2.95306
2.94218
2.9269
2.90077
2.88392
2.86094
2.82262
2.78025
2.7455
2.7165
2.68136
2.65127
2.63891
2.62803
2.60765
2.58286
2.56791
2.55926
2.54612
2.5189
2.47673
2.43825
2.40781
2.38012
2.37002
2.36561
2.35064
2.33263
2.32604
2.31304
1.40001
1.40001
1.40001
1.40001
1.40001
1.40001
1.40001
1.40001
1.40001
1.40001
1.40001
1.40001
1.40001
1.40001
1.40001
1.40001
1.40001
1.40001
1.40001
1.40001
1.40001
1.40001
1.40001
1.40001
1.40001
1.40001
1.40001
1.40001
1.40001
1.40001
1.40001
1.40001
1.40001
1.40001
1.4002
1.40883
1.50314
1.94469
3.03466
3.46757
3.48832
3.53036
3.55813
3.54612
3.46589
3.39809
3.38108
3.34882
3.2963
3.28449
3.28554
3.26086
3.22136
3.178
3.11366
3.0638
3.04882
3.02248
2.99635
2.98408
2.96448
2.93897
2.91555
2.88242
2.83878
2.79818
2.76919
2.74631
2.71473
2.68361
2.6747
2.66272
2.63529
2.61199
2.60399
2.5959
2.57797
2.53877
2.49384
2.46311
2.43622
2.4118
2.4041
2.39474
2.37497
2.36261
2.35627
2.34023
1.40001
1.40001
1.40001
1.40001
1.40001
1.40001
1.40001
1.40001
1.40001
1.40001
1.40001
1.40001
1.40001
1.40001
1.40001
1.40001
1.40001
1.40001
1.40001
1.40001
1.40001
1.40001
1.40001
1.40001
1.40001
1.40001
1.40001
1.40001
1.40001
1.40001
1.40001
1.40001
1.40001
1.40001
1.40001
1.40006
1.40269
1.45514
1.92366
2.92148
3.32118
3.5174
3.60273
3.56059
3.48012
3.46025
3.43633
3.37355
3.34299
3.34867
3.33701
3.28929
3.24085
3.19239
3.12846
3.09889
3.08571
3.06104
3.04227
3.01963
2.98752
2.96183
2.9386
2.90442
2.86221
2.82585
2.79851
2.77222
2.73523
2.71526
2.71255
2.6957
2.66345
2.64969
2.64319
2.62975
2.59598
2.54597
2.51391
2.49148
2.46476
2.44443
2.4366
2.42361
2.40225
2.39372
2.38593
2.36452
1.40001
1.40001
1.40001
1.40001
1.40001
1.40001
1.40001
1.40001
1.40001
1.40001
1.40001
1.40001
1.40001
1.40001
1.40001
1.40001
1.40001
1.40001
1.40001
1.40001
1.40001
1.40001
1.40001
1.40001
1.40001
1.40001
1.40001
1.40001
1.40001
1.40001
1.40001
1.40001
1.40001
1.40001
1.40001
1.40001
1.40002
1.40151
1.45008
1.93785
2.76842
3.29941
3.58637
3.5918
3.55501
3.49899
3.43284
3.39904
3.40155
3.40438
3.35969
3.30361
3.2595
3.21149
3.15516
3.13815
3.1265
3.10578
3.08441
3.0529
3.00859
2.97938
2.95925
2.92806
2.89049
2.8603
2.83315
2.7978
2.76115
2.75201
2.74882
2.72416
2.69798
2.68971
2.67955
2.65481
2.60056
2.55859
2.53956
2.51883
2.49081
2.47745
2.47051
2.45468
2.43411
2.42744
2.41572
2.38923
1.40001
1.40001
1.40001
1.40001
1.40001
1.40001
1.40001
1.40001
1.40001
1.40001
1.40001
1.40001
1.40001
1.40001
1.40001
1.40001
1.40001
1.40001
1.40001
1.40001
1.40001
1.40001
1.40001
1.40001
1.40001
1.40001
1.40001
1.40001
1.40001
1.40001
1.40001
1.40001
1.40001
1.40001
1.40001
1.40001
1.40001
1.40002
1.40147
1.45639
1.8439
2.49312
3.28373
3.5783
3.55535
3.48775
3.44997
3.44759
3.46224
3.41702
3.35733
3.31933
3.29031
3.24213
3.19146
3.1802
3.16597
3.14059
3.11408
3.08084
3.03084
3.00354
2.98536
2.95455
2.92012
2.89198
2.86226
2.82203
2.79855
2.79443
2.78395
2.75371
2.73856
2.73161
2.71371
2.66208
2.60743
2.58609
2.56904
2.54267
2.5169
2.50984
2.50283
2.48281
2.4667
2.46069
2.44312
2.41293
1.40001
1.40001
1.40001
1.40001
1.40001
1.40001
1.40001
1.40001
1.40001
1.40001
1.40001
1.40001
1.40001
1.40001
1.40001
1.40001
1.40001
1.40001
1.40001
1.40001
1.40001
1.40001
1.40001
1.40001
1.40001
1.40001
1.40001
1.40001
1.40001
1.40001
1.40001
1.40001
1.40001
1.40001
1.40001
1.40001
1.40001
1.40001
1.40002
1.40138
1.43415
1.62964
2.28472
3.30385
3.45118
3.47091
3.48487
3.50632
3.47431
3.40828
3.37393
3.36433
3.32535
3.26559
3.24226
3.23235
3.20489
3.17099
3.13947
3.09812
3.04813
3.02765
3.01297
2.98579
2.95505
2.92465
2.88651
2.85033
2.83931
2.83661
2.81863
2.79152
2.77626
2.75796
2.7192
2.66071
2.6321
2.61817
2.59751
2.56824
2.5485
2.54384
2.53457
2.51261
2.49987
2.49125
2.46817
2.43206
1.40001
1.40001
1.40001
1.40001
1.40001
1.40001
1.40001
1.40001
1.40001
1.40001
1.40001
1.40001
1.40001
1.40001
1.40001
1.40001
1.40001
1.40001
1.40001
1.40001
1.40001
1.40001
1.40001
1.40001
1.40001
1.40001
1.40001
1.40001
1.40001
1.40001
1.40001
1.40001
1.40001
1.40001
1.40001
1.40001
1.40001
1.40001
1.40001
1.40001
1.40044
1.4109
1.54005
2.32623
3.09061
3.36202
3.53968
3.55244
3.49223
3.45984
3.44034
3.38451
3.33488
3.31366
3.30818
3.27558
3.23416
3.19818
3.16481
3.12024
3.07578
3.0558
3.03993
3.01618
2.99075
2.95892
2.91364
2.88843
2.88162
2.87435
2.85076
2.8278
2.81103
2.78234
2.72346
2.67606
2.65893
2.64191
2.62015
2.5947
2.58571
2.58048
2.5687
2.54607
2.53228
2.51968
2.492
2.44637
1.40001
1.40001
1.40001
1.40001
1.40001
1.40001
1.40001
1.40001
1.40001
1.40001
1.40001
1.40001
1.40001
1.40001
1.40001
1.40001
1.40001
1.40001
1.40001
1.40001
1.40001
1.40001
1.40001
1.40001
1.40001
1.40001
1.40001
1.40001
1.40001
1.40001
1.40001
1.40001
1.40001
1.40001
1.40001
1.40001
1.40001
1.40001
1.40001
1.40001
1.40001
1.40013
1.40624
1.55172
2.24552
2.88958
3.40059
3.56379
3.55329
3.50117
3.42949
3.38701
3.37259
3.37493
3.34082
3.29516
3.25498
3.22433
3.1895
3.14449
3.10873
3.0852
3.06546
3.04398
3.02514
2.99314
2.94459
2.92623
2.92036
2.90395
2.87457
2.84976
2.82644
2.79069
2.74429
2.71245
2.68932
2.66553
2.63866
2.62429
2.62024
2.61346
2.60084
2.57963
2.56317
2.54494
2.50705
2.4552
1.40001
1.40001
1.40001
1.40001
1.40001
1.40001
1.40001
1.40001
1.40001
1.40001
1.40001
1.40001
1.40001
1.40001
1.40001
1.40001
1.40001
1.40001
1.40001
1.40001
1.40001
1.40001
1.40001
1.40001
1.40001
1.40001
1.40001
1.40001
1.40001
1.40001
1.40001
1.40001
1.40001
1.40001
1.40001
1.40001
1.40001
1.40001
1.40001
1.40001
1.40001
1.40001
1.40009
1.40668
1.54347
1.97646
2.68819
3.4682
3.51948
3.4746
3.42981
3.41121
3.42282
3.39007
3.34731
3.31978
3.29964
3.26103
3.2079
3.16912
3.13848
3.11532
3.09625
3.07618
3.05652
3.02754
2.98182
2.95857
2.9474
2.92598
2.89532
2.87136
2.83963
2.80094
2.76933
2.74289
2.71849
2.68921
2.66651
2.6615
2.65669
2.64767
2.6336
2.61121
2.58621
2.56059
2.51676
2.47487
1.40001
1.40001
1.40001
1.40001
1.40001
1.40001
1.40001
1.40001
1.40001
1.40001
1.40001
1.40001
1.40001
1.40001
1.40001
1.40001
1.40001
1.40001
1.40001
1.40001
1.40001
1.40001
1.40001
1.40001
1.40001
1.40001
1.40001
1.40001
1.40001
1.40001
1.40001
1.40001
1.40001
1.40001
1.40001
1.40001
1.40001
1.40001
1.40001
1.40001
1.40001
1.40001
1.40001
1.40009
1.40511
1.46023
1.73269
2.71727
3.29976
3.38536
3.44898
3.47875
3.44975
3.40349
3.39305
3.37836
3.32536
3.2776
3.23838
3.20125
3.16971
3.14834
3.13199
3.11014
3.0855
3.0577
3.01708
2.98474
2.9684
2.94548
2.91755
2.89079
2.85224
2.82628
2.80332
2.77597
2.74318
2.71193
2.70126
2.69812
2.69267
2.68291
2.6674
2.64226
2.60169
2.56187
2.52461
2.50577
1.40001
1.40001
1.40001
1.40001
1.40001
1.40001
1.40001
1.40001
1.40001
1.40001
1.40001
1.40001
1.40001
1.40001
1.40001
1.40001
1.40001
1.40001
1.40001
1.40001
1.40001
1.40001
1.40001
1.40001
1.40001
1.40001
1.40001
1.40001
1.40001
1.40001
1.40001
1.40001
1.40001
1.40001
1.40001
1.40001
1.40001
1.40001
1.40001
1.40001
1.40001
1.40001
1.40001
1.40001
1.40003
1.40117
1.42395
1.72487
2.59692
3.09047
3.39137
3.52309
3.50163
3.48617
3.43925
3.37025
3.33272
3.31227
3.27517
3.23014
3.20187
3.18533
3.167
3.14028
3.11361
3.08258
3.0452
3.00968
2.98914
2.96523
2.94032
2.91226
2.87839
2.85579
2.83381
2.80302
2.76555
2.74624
2.73953
2.73469
2.72934
2.71732
2.69252
2.65458
2.61102
2.57002
2.54639
2.54
1.40001
1.40001
1.40001
1.40001
1.40001
1.40001
1.40001
1.40001
1.40001
1.40001
1.40001
1.40001
1.40001
1.40001
1.40001
1.40001
1.40001
1.40001
1.40001
1.40001
1.40001
1.40001
1.40001
1.40001
1.40001
1.40001
1.40001
1.40001
1.40001
1.40001
1.40001
1.40001
1.40001
1.40001
1.40001
1.40001
1.40001
1.40001
1.40001
1.40001
1.40001
1.40001
1.40001
1.40001
1.40001
1.40001
1.40052
1.4224
1.71272
2.33794
2.95525
3.48086
3.52757
3.49098
3.42226
3.37804
3.36544
3.33637
3.28838
3.25572
3.2417
3.22205
3.19077
3.16479
3.13822
3.10683
3.07199
3.03511
3.01084
2.98847
2.9677
2.94113
2.91048
2.8857
2.86038
2.82768
2.79542
2.78218
2.77648
2.7724
2.76496
2.74474
2.70657
2.66112
2.6194
2.58953
2.57899
2.57623
1.40001
1.40001
1.40001
1.40001
1.40001
1.40001
1.40001
1.40001
1.40001
1.40001
1.40001
1.40001
1.40001
1.40001
1.40001
1.40001
1.40001
1.40001
1.40001
1.40001
1.40001
1.40001
1.40001
1.40001
1.40001
1.40001
1.40001
1.40001
1.40001
1.40001
1.40001
1.40001
1.40001
1.40001
1.40001
1.40001
1.40001
1.40001
1.40001
1.40001
1.40001
1.40001
1.40001
1.40001
1.40001
1.40001
1.40001
1.40047
1.42078
1.5827
2.01299
2.9709
3.43468
3.41836
3.42031
3.41834
3.39159
3.33953
3.31243
3.30596
3.28914
3.24301
3.21528
3.19495
3.16526
3.1338
3.10063
3.06294
3.03605
3.01934
3.00086
2.97373
2.94094
2.90853
2.88152
2.8572
2.83097
2.82037
2.81617
2.80915
2.79173
2.757
2.71389
2.67269
2.64314
2.62271
2.61535
2.61025
1.40001
1.40001
1.40001
1.40001
1.40001
1.40001
1.40001
1.40001
1.40001
1.40001
1.40001
1.40001
1.40001
1.40001
1.40001
1.40001
1.40001
1.40001
1.40001
1.40001
1.40001
1.40001
1.40001
1.40001
1.40001
1.40001
1.40001
1.40001
1.40001
1.40001
1.40001
1.40001
1.40001
1.40001
1.40001
1.40001
1.40001
1.40001
1.40001
1.40001
1.40001
1.40001
1.40001
1.40001
1.40001
1.40001
1.40001
1.40001
1.40028
1.40713
1.47298
1.936
2.89478
3.22137
3.38177
3.46944
3.42911
3.3887
3.38918
3.36399
3.30391
3.27027
3.26335
3.23622
3.19545
3.16221
3.12829
3.08929
3.06909
3.05621
3.03357
3.00196
2.96339
2.92531
2.90837
2.89024
2.86785
2.86085
2.85427
2.83823
2.8084
2.76742
2.72507
2.69418
2.67451
2.65776
2.64983
2.64178
1.40001
1.40001
1.40001
1.40001
1.40001
1.40001
1.40001
1.40001
1.40001
1.40001
1.40001
1.40001
1.40001
1.40001
1.40001
1.40001
1.40001
1.40001
1.40001
1.40001
1.40001
1.40001
1.40001
1.40001
1.40001
1.40001
1.40001
1.40001
1.40001
1.40001
1.40001
1.40001
1.40001
1.40001
1.40001
1.40001
1.40001
1.40001
1.40001
1.40001
1.40001
1.40001
1.40001
1.40001
1.40001
1.40001
1.40001
1.40001
1.40001
1.40005
1.40223
1.45497
1.91301
2.66067
3.1157
3.43825
3.48768
3.46747
3.40677
3.34941
3.32641
3.32914
3.31054
3.26017
3.21789
3.18854
3.15399
3.1175
3.10605
3.09072
3.06128
3.02472
2.97856
2.94861
2.94084
2.9229
2.9064
2.89972
2.88647
2.85789
2.82182
2.78194
2.74686
2.7251
2.70672
2.68947
2.6806
2.66987
1.40001
1.40001
1.40001
1.40001
1.40001
1.40001
1.40001
1.40001
1.40001
1.40001
1.40001
1.40001
1.40001
1.40001
1.40001
1.40001
1.40001
1.40001
1.40001
1.40001
1.40001
1.40001
1.40001
1.40001
1.40001
1.40001
1.40001
1.40001
1.40001
1.40001
1.40001
1.40001
1.40001
1.40001
1.40001
1.40001
1.40001
1.40001
1.40001
1.40001
1.40001
1.40001
1.40001
1.40001
1.40001
1.40001
1.40001
1.40001
1.40001
1.40001
1.40002
1.40165
1.45221
1.78896
2.33184
3.07571
3.46772
3.44981
3.38508
3.36465
3.37151
3.37484
3.31618
3.26557
3.24341
3.22434
3.17906
3.15056
3.14337
3.12053
3.08496
3.04363
2.99618
2.98103
2.9742
2.95598
2.94548
2.93405
2.90906
2.87333
2.83882
2.80456
2.77623
2.75587
2.73593
2.71897
2.71005
2.69711
1.40001
1.40001
1.40001
1.40001
1.40001
1.40001
1.40001
1.40001
1.40001
1.40001
1.40001
1.40001
1.40001
1.40001
1.40001
1.40001
1.40001
1.40001
1.40001
1.40001
1.40001
1.40001
1.40001
1.40001
1.40001
1.40001
1.40001
1.40001
1.40001
1.40001
1.40001
1.40001
1.40001
1.40001
1.40001
1.40001
1.40001
1.40001
1.40001
1.40001
1.40001
1.40001
1.40001
1.40001
1.40001
1.40001
1.40001
1.40001
1.40001
1.40001
1.40001
1.40002
1.40129
1.4282
1.5786
2.10493
3.09075
3.30742
3.34501
3.38901
3.41827
3.38123
3.31776
3.29962
3.28961
3.24402
3.20001
3.19346
3.18184
3.14557
3.1075
3.06328
3.02457
3.01702
3.00734
2.99259
2.98053
2.96034
2.92671
2.89252
2.86128
2.83049
2.80379
2.78366
2.76367
2.7483
2.73899
2.72355
1.40001
1.40001
2.13855
2.95654
3.36435
3.36566
3.33614
3.2837
3.24146
3.21372
3.1807
3.14525
3.10346
3.06178
3.01845
2.97522
2.93357
2.8915
2.84586
2.79362
2.74598
2.70181
2.65984
2.63635
2.6117
2.58191
2.55534
2.52601
2.49738
2.46002
2.40991
2.34577
1.89571
2.32114
3.10204
3.33067
3.36389
3.33198
3.28817
3.25205
3.21677
3.17955
3.13987
3.10224
3.0576
3.00898
2.96209
2.92144
2.87595
2.82918
2.78808
2.74038
2.70683
2.68367
2.65288
2.6251
2.59899
2.57267
2.53803
2.48881
2.42467
2.35389
1.8702
1.95562
2.4968
3.13014
3.36483
3.36889
3.33852
3.29876
3.25893
3.21355
3.178
3.14369
3.09795
3.04187
2.99095
2.94929
2.90584
2.86882
2.82826
2.78602
2.76104
2.72972
2.69657
2.6674
2.64162
2.61153
2.56577
2.50393
2.43239
2.3778
1.88036
1.8831
2.02353
2.58619
3.22641
3.39604
3.38306
3.34229
3.29309
3.24564
3.21599
3.18041
3.13238
3.07541
3.02251
2.97761
2.94017
2.90656
2.86717
2.83917
2.81043
2.77354
2.74118
2.70898
2.68166
2.64169
2.58336
2.51496
2.44885
2.42217
1.90433
1.88683
1.8963
2.08469
2.71143
3.33461
3.38291
3.36212
3.32913
3.28437
3.25189
3.2116
3.1624
3.10943
3.05906
3.01563
2.98024
2.9441
2.91522
2.89066
2.85426
2.81938
2.78093
2.74607
2.71192
2.66063
2.59721
2.53355
2.48998
2.47525
1.9306
1.90176
1.90082
1.92041
2.1632
2.93633
3.3083
3.3711
3.36297
3.32269
3.28306
3.24026
3.19306
3.14484
3.09966
3.05935
3.01896
2.98728
2.96433
2.93242
2.89603
2.86317
2.8186
2.77893
2.73285
2.67302
2.61573
2.56825
2.54502
2.52902
1.95105
1.93053
1.9192
1.92264
1.9603
2.32409
3.0343
3.30176
3.39025
3.36442
3.31816
3.27019
3.22298
3.18129
3.14429
3.1027
3.06375
3.03936
3.00978
2.97118
2.93551
2.89505
2.84816
2.80392
2.74901
2.69123
2.64779
2.6178
2.59978
2.57872
1.97138
1.96234
1.95339
1.94054
1.9376
2.00415
2.46157
3.04377
3.36046
3.39404
3.3603
3.31415
3.2654
3.22316
3.18963
3.15237
3.12033
3.08802
3.0484
3.00786
2.96917
2.91969
2.87088
2.82261
2.7681
2.72492
2.69443
2.67199
2.65079
2.62609
1.99803
1.99345
1.9873
1.97295
1.94769
1.94541
2.05209
2.51404
3.13967
3.38949
3.37716
3.34078
3.30738
3.27501
3.24405
3.2078
3.16757
3.1252
3.08289
3.04155
2.99435
2.93835
2.89404
2.8463
2.80298
2.7727
2.74768
2.72525
2.69985
2.67252
2.03042
2.02646
2.01867
2.0053
1.97294
1.95243
1.95705
2.08765
2.59169
3.25433
3.35481
3.37125
3.35819
3.32646
3.29209
3.25238
3.20584
3.15512
3.10543
3.06266
3.00809
2.96262
2.92447
2.88191
2.85058
2.82367
2.79902
2.77533
2.74843
2.71998
2.06508
2.05944
2.04937
2.03137
2.00248
1.97547
1.96123
1.97011
2.1273
2.77021
3.25541
3.35906
3.38505
3.37004
3.32945
3.28538
3.23715
3.18313
3.13116
3.07601
3.02751
2.99917
2.9622
2.92828
2.90291
2.87358
2.84683
2.82229
2.79616
2.76602
2.09874
2.09029
2.07586
2.05106
2.02785
2.00412
1.97984
1.96983
1.98587
2.23171
2.88712
3.25958
3.40881
3.40511
3.36839
3.32319
3.2738
3.21657
3.15268
3.09283
3.06642
3.03963
3.00284
2.98203
2.95584
2.92506
2.89733
2.86808
2.83771
2.80485
2.13017
2.11928
2.09929
2.07244
2.0515
2.03121
2.00615
1.97998
1.97999
2.01966
2.35131
2.91889
3.34848
3.41905
3.40728
3.3601
3.30411
3.24163
3.17173
3.1338
3.11382
3.07829
3.05453
3.03456
3.00433
2.97758
2.94484
2.90761
2.87291
2.832
2.15908
2.14491
2.12122
2.09632
2.07612
2.05453
2.03244
2.00624
1.98789
1.99137
2.06048
2.38885
3.02191
3.37904
3.39847
3.37833
3.33502
3.26642
3.20791
3.18662
3.15699
3.12611
3.10567
3.0763
3.04944
3.02021
2.98225
2.94126
2.8948
2.83785
2.18665
2.16837
2.14373
2.12122
2.09927
2.07591
2.05727
2.03935
2.01521
2.00658
2.01353
2.08557
2.47541
3.09946
3.34689
3.40505
3.37779
3.31369
3.26438
3.23382
3.20057
3.17527
3.14375
3.11388
3.08741
3.05322
3.01402
2.96626
2.90752
2.84335
2.21443
2.19308
2.16765
2.14456
2.11937
2.09668
2.08336
2.0678
2.05142
2.04027
2.02926
2.03255
2.12292
2.58762
3.09494
3.38502
3.41166
3.3819
3.33274
3.28349
3.24444
3.20833
3.17329
3.14712
3.11918
3.08549
3.04456
2.98734
2.91892
2.85429
2.24073
2.21905
2.19467
2.1691
2.14074
2.1217
2.10992
2.09167
2.08319
2.07616
2.05478
2.03929
2.04447
2.18046
2.61649
3.19544
3.41139
3.4053
3.37052
3.32813
3.28057
3.23155
3.20442
3.1807
3.14954
3.11209
3.06516
3.00446
2.9393
2.89906
2.26434
2.24039
2.2164
2.18993
2.16669
2.15452
2.1375
2.11782
2.11311
2.10447
2.07909
2.05542
2.04738
2.05957
2.21213
2.70959
3.29045
3.38637
3.37377
3.35627
3.30882
3.25798
3.23576
3.21192
3.18067
3.13785
3.08339
3.0246
2.98379
2.9623
2.29017
2.264
2.23659
2.20831
2.19379
2.18383
2.16053
2.14824
2.14298
2.12646
2.10388
2.07956
2.06137
2.05895
2.0761
2.26413
2.84237
3.27951
3.38011
3.37343
3.34161
3.29641
3.26672
3.24117
3.208
3.16189
3.1097
3.0666
3.0409
3.01913
2.31486
2.28755
2.25745
2.23426
2.22391
2.20588
2.18415
2.17793
2.16574
2.14381
2.12574
2.10812
2.08978
2.07417
2.07433
2.10368
2.35049
2.87313
3.29033
3.36987
3.3552
3.32888
3.30249
3.27375
3.23884
3.19781
3.15557
3.12032
3.09034
3.06466
2.33664
2.30818
2.27902
2.26551
2.25235
2.22588
2.21372
2.20646
2.18635
2.16202
2.14569
2.13281
2.12089
2.10938
2.09275
2.08384
2.12335
2.37327
2.87511
3.31707