/*--------------------------------*- C++ -*----------------------------------*\
  =========                 |
  \\      /  F ield         | OpenFOAM: The Open Source CFD Toolbox
   \\    /   O peration     | Website:  https://openfoam.org
    \\  /    A nd           | Version:  7
     \\/     M anipulation  |
\*---------------------------------------------------------------------------*/
FoamFile
{
    version     2.0;
    format      ascii;
    class       volScalarField;
    location    "2";
    object      rho;
}
// * * * * * * * * * * * * * * * * * * * * * * * * * * * * * * * * * * * * * //

dimensions      [1 -3 0 0 0 0 0];

internalField   nonuniform List<scalar> 
4128
(
2.55332
2.52324
2.50294
2.48582
2.45714
2.40675
2.3399
2.27226
2.24772
2.23748
2.22274
2.20764
2.19143
2.17649
2.16214
2.13934
2.10081
2.03865
1.98248
1.96581
1.95811
1.95034
1.93871
1.92402
1.91076
1.89534
1.86477
1.81368
1.78179
1.76862
1.75497
1.74354
1.73377
1.7191
1.69819
1.68047
1.66779
1.65511
1.64138
1.62317
1.59018
1.54847
1.5322
1.52532
1.52027
1.51533
1.51116
1.50789
1.50199
1.49229
1.47543
1.44074
1.40031
1.38907
1.38552
1.38407
1.37924
1.37434
1.37025
1.36529
1.35936
1.34913
1.32533
1.29211
1.28194
1.27863
1.27249
1.26741
1.26444
1.26096
1.25537
1.24814
1.24055
1.22977
1.21305
1.19299
1.1817
1.17855
1.17514
1.17012
1.16298
1.15411
1.14857
1.14802
1.15896
1.23218
1.45466
1.72228
1.91085
1.96419
1.98537
1.99535
1.99427
1.98813
1.97601
1.96178
1.93896
1.90789
1.89211
1.88504
1.88253
1.88806
1.88637
1.87716
1.86311
1.84104
1.82784
1.82787
1.83636
1.87575
1.96639
2.07375
2.16636
2.20782
2.20113
2.1756
2.15104
2.13822
2.12975
2.12795
2.12924
2.12404
2.11553
2.10408
2.08396
2.06437
2.05682
2.05095
2.04707
2.59781
2.56987
2.55029
2.52416
2.47714
2.41084
2.34616
2.30755
2.2961
2.28409
2.26504
2.24872
2.2343
2.21946
2.202
2.16959
2.11025
2.05274
2.01968
2.00699
1.99812
1.98779
1.97558
1.96001
1.94367
1.92197
1.87949
1.83316
1.81739
1.8074
1.79365
1.7799
1.7672
1.74874
1.72214
1.70299
1.69124
1.67837
1.66365
1.64423
1.61261
1.57782
1.56284
1.5568
1.55251
1.54553
1.53945
1.53492
1.52814
1.51573
1.48939
1.44497
1.42107
1.41637
1.4127
1.41125
1.40627
1.40054
1.39568
1.39002
1.38199
1.36588
1.33292
1.30823
1.30479
1.30185
1.29552
1.29072
1.28645
1.28242
1.27729
1.26999
1.26093
1.24678
1.22784
1.20957
1.2003
1.1971
1.19329
1.18751
1.17943
1.17179
1.17259
1.19376
1.2939
1.56612
1.83293
1.97612
2.04898
2.03963
2.03117
2.0252
2.02038
2.01333
2.00182
1.98108
1.95102
1.93351
1.92576
1.92134
1.92363
1.92141
1.91216
1.89944
1.88009
1.86019
1.85701
1.86477
1.89814
1.98596
2.09829
2.19013
2.24608
2.24446
2.22321
2.19226
2.17349
2.16479
2.16024
2.16063
2.16054
2.15372
2.14451
2.12918
2.1063
2.09023
2.08295
2.0784
2.07759
2.64358
2.6172
2.58916
2.54527
2.48089
2.41564
2.37394
2.35867
2.34715
2.32956
2.30789
2.29125
2.27782
2.261
2.23268
2.17888
2.11539
2.0825
2.06511
2.05068
2.03874
2.0261
2.01265
1.9959
1.97356
1.93768
1.89071
1.86587
1.85612
1.84592
1.83161
1.81586
1.79939
1.77427
1.74215
1.7246
1.71422
1.70256
1.68771
1.66843
1.6417
1.60972
1.59369
1.58787
1.58353
1.5756
1.56793
1.56134
1.55239
1.53471
1.49733
1.45821
1.44904
1.44436
1.44006
1.43758
1.43308
1.42673
1.42069
1.41381
1.40273
1.37813
1.34227
1.32964
1.32735
1.32499
1.31918
1.31444
1.3094
1.30391
1.29857
1.29106
1.28039
1.26305
1.24205
1.22707
1.21841
1.21504
1.21123
1.20513
1.19849
1.20098
1.23648
1.39363
1.65992
1.95296
2.05737
2.05858
2.05765
2.04927
2.04566
2.0479
2.04285
2.03451
2.02245
1.99751
1.97091
1.96083
1.95469
1.95466
1.95778
1.9503
1.93863
1.92303
1.89949
1.88835
1.89408
1.92665
2.00542
2.1277
2.22672
2.27896
2.27598
2.26183
2.24004
2.21585
2.20127
2.19404
2.19233
2.1932
2.18714
2.17854
2.16751
2.14802
2.12688
2.11837
2.11249
2.10928
2.10896
2.69086
2.65783
2.61112
2.54623
2.47933
2.43917
2.4242
2.41228
2.3968
2.37642
2.35457
2.33757
2.32163
2.29297
2.23999
2.17731
2.13765
2.12393
2.11065
2.09575
2.08157
2.067
2.05111
2.02991
1.99198
1.94334
1.91531
1.90528
1.89461
1.88308
1.86854
1.851
1.8278
1.79333
1.76247
1.74829
1.73898
1.72898
1.71516
1.69669
1.67245
1.6422
1.6244
1.61761
1.61265
1.60511
1.59632
1.58721
1.57443
1.54843
1.50517
1.48392
1.47951
1.47386
1.46763
1.46348
1.45913
1.45265
1.44506
1.43615
1.42047
1.38723
1.35875
1.353
1.35042
1.34822
1.34352
1.33844
1.33282
1.32626
1.3198
1.31147
1.29777
1.27626
1.25611
1.24412
1.23679
1.23382
1.23012
1.22641
1.23431
1.28717
1.49098
1.82728
2.04708
2.06963
2.08003
2.09126
2.09915
2.10484
2.10728
2.10005
2.08841
2.07199
2.04133
2.00831
1.99682
1.99041
1.98861
1.99321
1.98888
1.97946
1.96591
1.94378
1.92719
1.93121
1.96148
2.03693
2.15708
2.25871
2.31438
2.31337
2.30382
2.28607
2.26204
2.24122
2.23155
2.22624
2.22482
2.22239
2.21402
2.20422
2.19009
2.16844
2.15164
2.1436
2.13787
2.13544
2.134
2.73179
2.68467
2.61634
2.54272
2.49792
2.48512
2.47541
2.4632
2.44522
2.42568
2.40574
2.38631
2.35722
2.30282
2.23347
2.19055
2.1783
2.16718
2.15409
2.14019
2.1262
2.1106
2.08939
2.05176
1.99692
1.96087
1.95153
1.94372
1.93211
1.91893
1.90337
1.88256
1.84916
1.80879
1.78793
1.77597
1.76663
1.75776
1.74527
1.7274
1.70204
1.67345
1.6561
1.64601
1.63997
1.63354
1.62392
1.61246
1.59455
1.5596
1.522
1.51266
1.5089
1.50417
1.49593
1.48963
1.48491
1.47825
1.46946
1.45741
1.43384
1.39686
1.38114
1.37746
1.37424
1.37172
1.36829
1.36286
1.35653
1.34955
1.34167
1.33114
1.31152
1.2863
1.27138
1.26181
1.25655
1.25396
1.25433
1.26725
1.37334
1.61092
1.94362
2.11405
2.17121
2.16285
2.1449
2.13855
2.14494
2.1487
2.14233
2.13173
2.11394
2.08383
2.04897
2.032
2.02484
2.02129
2.02595
2.0262
2.01656
2.00548
1.99095
1.96948
1.96808
1.99335
2.0694
2.18789
2.28419
2.3466
2.35825
2.34998
2.33193
2.30368
2.27744
2.26732
2.26189
2.26114
2.26056
2.25272
2.24269
2.22947
2.20963
2.18868
2.17794
2.17097
2.16738
2.1668
2.16103
2.76171
2.69416
2.61484
2.56084
2.54654
2.53589
2.52545
2.50994
2.49336
2.47631
2.45697
2.42653
2.37001
2.29523
2.2434
2.2288
2.22024
2.20928
2.19761
2.18549
2.17165
2.15237
2.1165
2.056
2.00832
1.99596
1.98841
1.9813
1.96939
1.95457
1.93679
1.90785
1.86401
1.82926
1.81795
1.80779
1.79711
1.78751
1.77544
1.75788
1.73016
1.70253
1.68717
1.67498
1.66652
1.66047
1.65056
1.63638
1.6133
1.57387
1.54671
1.54058
1.53701
1.53359
1.52532
1.51678
1.51093
1.50371
1.49352
1.47656
1.44315
1.4124
1.40589
1.4022
1.39859
1.39635
1.39321
1.38766
1.38107
1.37376
1.36426
1.34823
1.31869
1.29758
1.2892
1.28201
1.27872
1.28136
1.31008
1.44458
1.76458
2.06362
2.22597
2.24083
2.21741
2.18424
2.16632
2.15903
2.16612
2.17448
2.16835
2.15723
2.13479
2.09346
2.0712
2.06296
2.05727
2.05805
2.06157
2.05431
2.04466
2.03215
2.014
2.00699
2.03238
2.10302
2.22319
2.31882
2.38856
2.40378
2.3929
2.37273
2.346
2.31701
2.30349
2.29663
2.29431
2.29606
2.29165
2.28283
2.27191
2.25253
2.22545
2.21157
2.20391
2.19837
2.19838
2.19678
2.18856
2.7712
2.69431
2.63108
2.61288
2.60092
2.58792
2.57167
2.55673
2.54252
2.52574
2.4983
2.44266
2.36282
2.30131
2.28182
2.27298
2.26304
2.25329
2.24356
2.23134
2.2142
2.18434
2.12354
2.06009
2.0415
2.03329
2.02563
2.01909
2.00635
1.98975
1.96715
1.92731
1.87968
1.85798
1.85063
1.84099
1.82933
1.81817
1.80509
1.78617
1.75507
1.72972
1.71681
1.70476
1.69397
1.68634
1.67623
1.65871
1.6312
1.59409
1.57393
1.56802
1.56479
1.56231
1.55475
1.54516
1.53763
1.52906
1.51603
1.49168
1.45307
1.43474
1.43068
1.42689
1.42395
1.42216
1.41835
1.41288
1.40648
1.39834
1.38491
1.35656
1.32449
1.31501
1.30941
1.30568
1.31154
1.36288
1.54987
1.88972
2.19419
2.30764
2.30042
2.23625
2.19919
2.19078
2.19483
2.21424
2.22607
2.21876
2.20671
2.18635
2.14877
2.11182
2.09969
2.09279
2.09037
2.09533
2.08997
2.0793
2.07026
2.05897
2.0471
2.06566
2.13424
2.24998
2.36052
2.41957
2.44326
2.43538
2.41888
2.39385
2.3644
2.34385
2.33427
2.32893
2.32854
2.32733
2.31933
2.30957
2.29544
2.2721
2.2484
2.23756
2.23067
2.22714
2.23009
2.22761
2.219
2.76973
2.70333
2.68034
2.67111
2.65711
2.6371
2.62034
2.60575
2.59039
2.56631
2.51554
2.43713
2.3649
2.33737
2.32804
2.31794
2.30852
2.30048
2.29039
2.27394
2.24917
2.19813
2.12336
2.08683
2.07987
2.07016
2.06357
2.05591
2.04195
2.023
1.99328
1.94509
1.90382
1.89081
1.88474
1.87489
1.86155
1.84823
1.83351
1.81158
1.77722
1.75618
1.74584
1.73425
1.72236
1.71223
1.70081
1.68002
1.64844
1.61883
1.60255
1.59591
1.59263
1.59059
1.58364
1.57403
1.56501
1.55419
1.53556
1.50249
1.46956
1.46007
1.4559
1.45242
1.45098
1.44861
1.4438
1.43855
1.43201
1.4213
1.39745
1.3588
1.33968
1.33562
1.33488
1.3469
1.43024
1.68594
2.03123
2.31426
2.34623
2.32851
2.30228
2.26122
2.2411
2.23928
2.25597
2.2734
2.26741
2.25387
2.23485
2.20093
2.15707
2.13904
2.13165
2.12594
2.12597
2.12752
2.11918
2.11132
2.10235
2.09177
2.1046
2.17149
2.28565
2.38545
2.45348
2.48426
2.48005
2.46707
2.44478
2.41249
2.38468
2.37373
2.36617
2.36346
2.36353
2.35649
2.34743
2.33619
2.31592
2.28658
2.2702
2.26232
2.25651
2.25547
2.25982
2.25479
2.24575
2.77665
2.74726
2.73866
2.72957
2.70927
2.68916
2.6705
2.65267
2.6292
2.58644
2.51604
2.4341
2.39523
2.38464
2.37409
2.36441
2.35576
2.34784
2.33232
2.30977
2.27175
2.19909
2.13706
2.12608
2.11771
2.10842
2.10149
2.09073
2.07526
2.05307
2.01573
1.96714
1.93612
1.92582
1.91985
1.90899
1.89325
1.87761
1.86071
1.83387
1.79837
1.78335
1.77475
1.76351
1.75118
1.73912
1.72485
1.70031
1.66554
1.64613
1.63338
1.62488
1.6208
1.61865
1.61228
1.60287
1.59246
1.57787
1.54981
1.51241
1.49312
1.48679
1.48218
1.4794
1.47895
1.47521
1.46986
1.46435
1.4561
1.43798
1.39987
1.36753
1.36215
1.36391
1.38625
1.51921
1.84363
2.17268
2.35719
2.41679
2.40928
2.37553
2.33402
2.31282
2.3027
2.30179
2.3047
2.30059
2.28996
2.27499
2.24803
2.20721
2.18249
2.17419
2.16847
2.16702
2.16366
2.15499
2.14733
2.14415
2.13966
2.15201
2.21254
2.32491
2.41987
2.49167
2.52746
2.52259
2.50926
2.48979
2.46137
2.42762
2.41296
2.40372
2.39892
2.40062
2.39642
2.38642
2.37574
2.36031
2.3343
2.30716
2.29508
2.28786
2.28383
2.28631
2.28728
2.27902
2.2684
2.81818
2.80549
2.79774
2.78184
2.76194
2.741
2.71586
2.68873
2.6517
2.59247
2.5123
2.45809
2.44398
2.43184
2.42032
2.41143
2.40516
2.39128
2.36734
2.33707
2.28035
2.2043
2.17394
2.16604
2.15716
2.14744
2.13708
2.12347
2.10631
2.07923
2.03648
1.99615
1.97292
1.96281
1.95499
1.94209
1.92441
1.90682
1.8864
1.85231
1.8218
1.81186
1.80357
1.79268
1.78018
1.76688
1.74942
1.71936
1.68445
1.67428
1.66586
1.65499
1.64936
1.6467
1.64074
1.63141
1.61904
1.59772
1.55777
1.52799
1.51992
1.51453
1.50991
1.50774
1.5065
1.50195
1.49633
1.48954
1.47658
1.44403
1.40185
1.39099
1.39536
1.44431
1.63097
1.9871
2.28625
2.45818
2.48803
2.47614
2.44188
2.3877
2.34748
2.33745
2.33343
2.33991
2.33782
2.32553
2.31382
2.29713
2.26526
2.2288
2.21452
2.20597
2.19939
2.19635
2.18914
2.18235
2.18071
2.18199
2.19512
2.25505
2.36826
2.47021
2.52751
2.56505
2.5625
2.55108
2.53248
2.5071
2.47848
2.4559
2.44433
2.43695
2.4362
2.4382
2.42941
2.41741
2.40238
2.37842
2.34769
2.33101
2.32269
2.31674
2.31604
2.31827
2.31131
2.30112
2.28824
2.8809
2.86639
2.85148
2.83128
2.80833
2.77911
2.74681
2.71147
2.66213
2.59416
2.52934
2.50792
2.49441
2.47713
2.46594
2.45941
2.45112
2.42647
2.39461
2.34968
2.28626
2.22914
2.2159
2.20739
2.19776
2.18481
2.1706
2.15544
2.1356
2.09997
2.05822
2.03092
2.01241
2.00104
1.98929
1.97397
1.95543
1.93581
1.90864
1.86876
1.84991
1.84172
1.83286
1.82207
1.8097
1.79533
1.77425
1.7375
1.70776
1.70212
1.6972
1.68601
1.67857
1.6748
1.66864
1.65884
1.6426
1.60949
1.56603
1.55162
1.54708
1.54247
1.5387
1.53647
1.53324
1.52843
1.52224
1.51222
1.48756
1.44218
1.42239
1.43439
1.52317
1.78201
2.14373
2.43874
2.55022
2.55057
2.52033
2.46984
2.41732
2.3803
2.37192
2.36893
2.37627
2.38511
2.37629
2.36528
2.35168
2.3241
2.28435
2.25993
2.24929
2.2405
2.2337
2.2258
2.21819
2.21618
2.22248
2.24086
2.2988
2.41628
2.51277
2.57249
2.60816
2.60708
2.59435
2.57786
2.55586
2.52599
2.49667
2.48539
2.47688
2.47335
2.47805
2.4741
2.46246
2.44813
2.42609
2.39323
2.36895
2.35909
2.35211
2.34922
2.35102
2.34602
2.33647
2.32482
2.30454
2.94263
2.92409
2.90251
2.87745
2.84426
2.80306
2.76422
2.72343
2.67186
2.60951
2.57731
2.56359
2.54345
2.5224
2.51254
2.50615
2.48647
2.45338
2.40952
2.35829
2.30172
2.27097
2.26032
2.25172
2.2382
2.22096
2.20437
2.18763
2.1613
2.1147
2.08447
2.06813
2.05173
2.03777
2.0228
2.00578
1.9865
1.9627
1.92413
1.8901
1.88164
1.87285
1.86295
1.85205
1.83953
1.82386
1.79771
1.75627
1.73451
1.73018
1.72759
1.71768
1.70845
1.70249
1.69546
1.68377
1.66055
1.61618
1.58484
1.57856
1.57407
1.57067
1.56804
1.5643
1.55957
1.55384
1.54585
1.52858
1.48701
1.46047
1.48263
1.62752
1.95806
2.30506
2.55866
2.61068
2.59665
2.55797
2.50915
2.45998
2.42596
2.4141
2.41521
2.42857
2.44295
2.43553
2.42022
2.40031
2.36779
2.32646
2.29731
2.28625
2.2787
2.27408
2.26792
2.25972
2.25903
2.26551
2.28797
2.34494
2.459
2.56056
2.61721
2.65475
2.65987
2.64584
2.62616
2.60454
2.57479
2.54028
2.52233
2.51316
2.50783
2.51195
2.51646
2.50776
2.4959
2.47762
2.44353
2.4095
2.3967
2.38924
2.38556
2.38679
2.38217
2.37236
2.36135
2.34503
2.31974
2.9975
2.97488
2.94733
2.91044
2.8642
2.81782
2.77897
2.73909
2.69144
2.64926
2.63625
2.61949
2.58839
2.56761
2.55848
2.54122
2.51084
2.4687
2.42014
2.37423
2.33718
2.31878
2.30876
2.29616
2.27767
2.25791
2.24046
2.21976
2.17617
2.13059
2.1172
2.10511
2.08886
2.07289
2.05683
2.03928
2.01736
1.98297
1.93777
1.92052
1.91484
1.90518
1.89353
1.88281
1.86944
1.85089
1.81829
1.77748
1.76351
1.75943
1.75752
1.74894
1.7384
1.72978
1.72045
1.70411
1.67003
1.62827
1.61224
1.6064
1.60168
1.59912
1.59656
1.59144
1.58535
1.57748
1.5654
1.53259
1.5085
1.55422
1.76359
2.16376
2.43955
2.58318
2.65959
2.65694
2.63424
2.584
2.52565
2.49022
2.48026
2.4776
2.48065
2.48483
2.47756
2.46234
2.44052
2.40934
2.36955
2.33932
2.32895
2.32181
2.31736
2.31341
2.30676
2.3036
2.31028
2.33551
2.40059
2.50838
2.61866
2.66745
2.69623
2.70276
2.69492
2.67793
2.65388
2.62647
2.59589
2.5659
2.55225
2.54384
2.54163
2.54997
2.54789
2.53684
2.52183
2.49708
2.46022
2.43611
2.42698
2.42108
2.41999
2.41933
2.41128
2.40149
2.38787
2.36142
2.33306
3.04303
3.01692
2.97924
2.93196
2.8811
2.83293
2.79758
2.76377
2.72656
2.7048
2.69371
2.67231
2.63289
2.61023
2.5907
2.56103
2.52312
2.47829
2.43632
2.40794
2.38538
2.37126
2.35774
2.3392
2.3182
2.29722
2.27392
2.23334
2.18211
2.15996
2.15334
2.14124
2.12516
2.10913
2.09332
2.07447
2.04332
1.99366
1.96214
1.9547
1.94852
1.93839
1.92558
1.91392
1.89948
1.87412
1.83603
1.80351
1.79372
1.78949
1.78672
1.77891
1.76768
1.75655
1.74337
1.71865
1.67626
1.6531
1.64359
1.63552
1.62993
1.62748
1.62394
1.61772
1.6096
1.59997
1.57378
1.57089
1.66294
1.95146
2.3136
2.56951
2.70319
2.73108
2.7238
2.701
2.66262
2.60591
2.55045
2.53078
2.52187
2.5217
2.521
2.51064
2.50033
2.48358
2.45353
2.41549
2.39027
2.38031
2.37295
2.36794
2.36046
2.35119
2.34638
2.35397
2.38104
2.44725
2.57131
2.67308
2.71747
2.74059
2.74839
2.74175
2.72715
2.70978
2.68648
2.64914
2.61116
2.59755
2.58763
2.58131
2.58406
2.58534
2.57562
2.56356
2.54474
2.51005
2.47892
2.46743
2.4601
2.45703
2.45539
2.44723
2.43724
2.42616
2.40947
2.38256
2.35841
3.08446
3.04725
2.99777
2.94901
2.89888
2.8556
2.83111
2.80405
2.7755
2.76234
2.74862
2.71999
2.67559
2.64101
2.60893
2.57396
2.53325
2.49298
2.47086
2.45486
2.43844
2.42381
2.40479
2.38186
2.35713
2.32682
2.28449
2.23596
2.20457
2.19743
2.19069
2.17796
2.16271
2.14801
2.13139
2.10327
2.05172
2.00874
1.9965
1.98906
1.98226
1.97191
1.95895
1.94526
1.92714
1.89197
1.85366
1.83558
1.82528
1.81876
1.81455
1.80748
1.79605
1.7824
1.76389
1.72852
1.69051
1.68173
1.67572
1.66583
1.65891
1.65506
1.65022
1.64201
1.63516
1.62019
1.64791
1.80923
2.17397
2.49844
2.70483
2.78884
2.79342
2.77801
2.74111
2.69657
2.64858
2.60375
2.5781
2.56611
2.56042
2.56297
2.55654
2.54408
2.52957
2.50663
2.46809
2.43618
2.42527
2.41642
2.40713
2.39808
2.38894
2.3829
2.39083
2.42509
2.49619
2.62231
2.73018
2.77691
2.79553
2.80277
2.79441
2.77698
2.75884
2.73871
2.71001
2.66964
2.64005
2.62843
2.62086
2.62
2.62294
2.61445
2.60307
2.58912
2.56397
2.52779
2.50835
2.49969
2.49385
2.49134
2.48452
2.47429
2.46342
2.44884
2.42593
2.40011
2.38514
3.11599
3.06689
3.01563
2.97032
2.92068
2.89215
2.87646
2.85043
2.82905
2.81708
2.79816
2.75801
2.70288
2.65997
2.62344
2.58651
2.54799
2.52879
2.51907
2.50534
2.49121
2.47393
2.44975
2.41947
2.38019
2.3341
2.2872
2.25343
2.24416
2.23852
2.22982
2.21695
2.20266
2.18757
2.16309
2.11136
2.05724
2.04077
2.03231
2.02288
2.0159
2.0059
1.99216
1.9763
1.95152
1.90684
1.87573
1.8685
1.85898
1.84807
1.8411
1.83424
1.82309
1.80714
1.7821
1.74016
1.71547
1.71033
1.70591
1.69685
1.68817
1.68127
1.67565
1.66865
1.68241
1.75695
2.00266
2.41357
2.68308
2.76676
2.80922
2.8233
2.80717
2.78283
2.74973
2.70123
2.64843
2.62343
2.61552
2.61351
2.62094
2.61661
2.60382
2.58897
2.56125
2.51697
2.48069
2.46688
2.45713
2.44605
2.43495
2.4245
2.41884
2.42632
2.4653
2.55482
2.67062
2.79008
2.83746
2.84339
2.84103
2.83881
2.82724
2.80831
2.78766
2.76461
2.73214
2.69529
2.67811
2.66701
2.66025
2.66023
2.65305
2.64042
2.62637
2.60654
2.5768
2.5506
2.53957
2.53213
2.5277
2.52247
2.51304
2.50221
2.48849
2.46827
2.44161
2.42171
2.41142
3.13662
3.0835
3.0399
2.9957
2.95505
2.94236
2.92526
2.89815
2.8821
2.867
2.83796
2.77716
2.71834
2.67746
2.64046
2.60476
2.58553
2.57969
2.56919
2.55678
2.54241
2.51881
2.48405
2.43607
2.38419
2.33681
2.30422
2.29386
2.28802
2.28134
2.27137
2.25827
2.24327
2.22202
2.17467
2.11026
2.08177
2.07692
2.06787
2.05752
2.04993
2.04081
2.02623
2.00676
1.97311
1.92326
1.90311
1.89842
1.89124
1.87864
1.86831
1.85991
1.84878
1.83067
1.7993
1.75901
1.744
1.73937
1.73498
1.72767
1.71555
1.70985
1.70991
1.75033
1.92433
2.2463
2.61288
2.80198
2.86082
2.8881
2.8872
2.86525
2.84251
2.82005
2.78515
2.72538
2.68833
2.67658
2.67058
2.67393
2.67143
2.65907
2.64254
2.61434
2.56992
2.52701
2.51014
2.50023
2.48906
2.4775
2.46749
2.46294
2.4722
2.5134
2.6061
2.73224
2.85652
2.88591
2.88103
2.87368
2.87581
2.87521
2.86368
2.84698
2.82673
2.79501
2.75167
2.72636
2.71424
2.70558
2.70258
2.69572
2.68286
2.66882
2.65081
2.62103
2.58931
2.57717
2.56847
2.56256
2.55773
2.54863
2.53849
2.52703
2.50953
2.48362
2.46327
2.45239
2.44259
3.15488
3.10984
3.07167
3.02573
3.00297
2.99456
2.96949
2.94598
2.92978
2.90694
2.85707
2.78621
2.73698
2.69987
2.66417
2.6433
2.63813
2.63046
2.61933
2.60722
2.58609
2.54985
2.49679
2.43764
2.3861
2.3547
2.34521
2.33914
2.33377
2.3259
2.31457
2.30009
2.28026
2.2384
2.17053
2.12459
2.11734
2.11361
2.10357
2.0935
2.08537
2.07682
2.06201
2.03516
1.98948
1.94538
1.93185
1.92742
1.92206
1.90981
1.8966
1.8856
1.87338
1.85279
1.81654
1.78339
1.77396
1.76906
1.7631
1.75479
1.74738
1.76292
1.85141
2.136
2.51217
2.79751
2.94372
2.93826
2.93173
2.93623
2.93
2.9103
2.88815
2.85718
2.79975
2.74724
2.72914
2.71892
2.71804
2.71748
2.70605
2.69245
2.6677
2.62061
2.57497
2.55579
2.54586
2.5352
2.52435
2.51591
2.51135
2.51906
2.56308
2.65586
2.79891
2.91106
2.94041
2.94088
2.92874
2.9236
2.91965
2.91096
2.89645
2.8781
2.85112
2.8113
2.77302
2.75781
2.74909
2.74545
2.74086
2.72958
2.71719
2.70129
2.67386
2.63543
2.61286
2.60272
2.59474
2.58973
2.58251
2.57229
2.56112
2.54657
2.52342
2.50231
2.49218
2.48364
2.47451
3.18005
3.14561
3.10479
3.06637
3.05533
3.03867
3.00926
2.9895
2.96819
2.93168
2.86287
2.80251
2.76494
2.72997
2.70278
2.69506
2.68829
2.67859
2.66794
2.65021
2.61632
2.56315
2.49765
2.43826
2.40539
2.3972
2.39146
2.38627
2.3809
2.37088
2.35747
2.33899
2.30204
2.23534
2.17431
2.15926
2.15444
2.15022
2.14061
2.13134
2.12309
2.11368
2.09507
2.04902
2.0015
1.97513
1.96302
1.95714
1.95235
1.94119
1.92666
1.91305
1.8981
1.87268
1.8334
1.8108
1.80486
1.79836
1.79088
1.79236
1.83354
2.01777
2.35154
2.78342
2.9852
2.98386
2.97934
2.95819
2.95984
2.96049
2.95493
2.94284
2.9179
2.86549
2.7978
2.76802
2.75707
2.75501
2.76394
2.75659
2.74209
2.7222
2.68195
2.62972
2.60625
2.59528
2.58212
2.56971
2.56073
2.55497
2.56082
2.60374
2.70977
2.84223
2.97089
3.01585
2.99935
2.9887
2.97563
2.96662
2.95286
2.93715
2.92168
2.90231
2.86912
2.82493
2.80623
2.79602
2.78885
2.78519
2.77526
2.76176
2.74624
2.72533
2.69335
2.66095
2.64545
2.63577
2.62789
2.61771
2.60557
2.59318
2.57811
2.55691
2.53298
2.52197
2.51482
2.50768
2.49973
3.21481
3.18218
3.13847
3.11435
3.10169
3.07363
3.04669
3.02522
2.9949
2.93807
2.87153
2.83411
2.80241
2.76811
2.75228
2.7459
2.73518
2.72455
2.71116
2.68071
2.63175
2.5659
2.49732
2.45799
2.45024
2.44509
2.43954
2.43548
2.42717
2.41435
2.39759
2.3653
2.30187
2.23098
2.20388
2.19709
2.19271
2.18732
2.17955
2.17111
2.16215
2.14937
2.11535
2.05246
2.02047
2.00874
1.99667
1.9889
1.98302
1.97322
1.95935
1.94423
1.92493
1.88913
1.85091
1.83912
1.83421
1.83003
1.84324
1.94301
2.25403
2.66933
2.94652
3.03112
3.05784
3.04907
3.0299
3.02307
3.02909
3.01994
3.00477
2.98347
2.93522
2.86068
2.81921
2.80726
2.80211
2.81103
2.81146
2.79709
2.77759
2.74105
2.68746
2.65947
2.649
2.63658
2.62201
2.60805
2.59807
2.60186
2.6403
2.74798
2.89401
3.03313
3.07922
3.06023
3.03643
3.02128
3.01135
2.99998
2.9851
2.96975
2.95313
2.9286
2.88907
2.85313
2.83895
2.83007
2.82507
2.81805
2.80611
2.79268
2.77464
2.74493
2.71078
2.69341
2.68265
2.67262
2.66101
2.64754
2.63262
2.61571
2.59344
2.56512
2.55023
2.54229
2.53553
2.52942
2.52162
3.25309
3.21473
3.17677
3.16089
3.1387
3.10582
3.08091
3.05355
3.0106
2.94217
2.90101
2.87644
2.84202
2.81351
2.80394
2.79242
2.77794
2.76649
2.74345
2.69711
2.63665
2.567
2.51405
2.50439
2.49941
2.49333
2.48987
2.48317
2.47032
2.45427
2.42654
2.36862
2.2927
2.25201
2.24317
2.2364
2.23229
2.22652
2.21986
2.21147
2.19993
2.17497
2.11743
2.06191
2.04903
2.0424
2.0322
2.02317
2.01534
2.00627
1.99403
1.97777
1.94906
1.90044
1.87302
1.86801
1.87253
1.92011
2.10494
2.52176
2.91879
3.11316
3.19233
3.1772
3.13892
3.11594
3.10534
3.09779
3.07929
3.0592
3.03632
2.99693
2.93343
2.87947
2.86472
2.85744
2.86205
2.8658
2.85208
2.83302
2.79949
2.74395
2.7076
2.69661
2.68637
2.67523
2.66372
2.65315
2.6531
2.68922
2.7976
2.95376
3.07789
3.13279
3.13137
3.10686
3.07853
3.05722
3.04322
3.03254
3.01676
2.99916
2.97771
2.94769
2.90884
2.88408
2.87229
2.86313
2.85733
2.84902
2.83672
2.82151
2.7988
2.76414
2.73808
2.72594
2.71541
2.70394
2.69103
2.67714
2.6604
2.63509
2.60251
2.58289
2.57339
2.56577
2.55914
2.55137
2.54238
3.29624
3.24834
3.21908
3.20271
3.17139
3.13898
3.11236
3.07764
3.01805
2.96458
2.94676
2.91745
2.87948
2.86313
2.85296
2.83398
2.81866
2.80116
2.76218
2.70386
2.63902
2.5788
2.55978
2.55473
2.54832
2.54432
2.53921
2.52571
2.50926
2.48489
2.43314
2.35651
2.30404
2.29194
2.28362
2.27852
2.2744
2.26805
2.26072
2.25074
2.22912
2.17968
2.11487
2.08804
2.08153
2.07677
2.07015
2.06028
2.05061
2.04013
2.02683
2.00177
1.95542
1.91368
1.90672
1.92415
2.03434
2.37101
2.79184
3.16374
3.28494
3.27466
3.23669
3.19459
3.16457
3.14836
3.13438
3.12199
3.10496
3.08295
3.05169
2.9996
2.94341
2.92557
2.9166
2.91611
2.91769
2.90453
2.8858
2.8556
2.8026
2.75494
2.74041
2.73147
2.72348
2.71567
2.71135
2.71498
2.7527
2.86757
3.0083
3.13494
3.20537
3.20205
3.17435
3.13628
3.1109
3.08855
3.07308
3.06029
3.04576
3.02952
3.00611
2.96656
2.93209
2.9162
2.90461
2.89635
2.88855
2.87694
2.86351
2.84593
2.81756
2.78646
2.77181
2.76076
2.74929
2.73633
2.7215
2.70318
2.67913
2.64772
2.61984
2.60761
2.59851
2.58949
2.57997
2.56953
2.55863
3.33918
3.29251
3.26821
3.24257
3.20436
3.17318
3.14259
3.09625
3.03434
3.01301
2.99177
2.95163
2.92151
2.91153
2.89317
2.87286
2.85632
2.82473
2.77216
2.70811
2.65175
2.6174
2.60861
2.6024
2.59803
2.59484
2.58144
2.56399
2.54109
2.49441
2.42074
2.35902
2.34199
2.33301
2.32706
2.32422
2.31864
2.31139
2.30149
2.28241
2.23725
2.17064
2.12904
2.12132
2.11637
2.11406
2.10998
2.09992
2.08793
2.07349
2.04994
2.00528
1.95823
1.95601
2.00213
2.21482
2.63748
3.11714
3.33511
3.35224
3.32156
3.2746
3.24179
3.21372
3.19349
3.18171
3.16894
3.15086
3.13253
3.10889
3.06378
3.00449
2.98207
2.9716
2.9666
2.96515
2.95327
2.93642
2.91236
2.86894
2.81152
2.78857
2.7778
2.76947
2.76435
2.76385
2.77362
2.81618
2.9288
3.07705
3.20292
3.27029
3.26573
3.22947
3.18359
3.15859
3.14194
3.12824
3.11572
3.10072
3.08366
3.06057
3.02534
2.98269
2.95737
2.94439
2.93418
2.92666
2.91663
2.90418
2.88967
2.86703
2.83453
2.81546
2.80457
2.79395
2.78207
2.76889
2.75337
2.73075
2.69329
2.65965
2.64787
2.63871
2.62844
2.61709
2.60452
2.58975
2.57225
3.37789
3.34795
3.31874
3.27589
3.23313
3.20397
3.17085
3.11429
3.08023
3.06394
3.02676
2.98306
2.96675
2.95083
2.92732
2.91037
2.88575
2.84001
2.77852
2.7232
2.68764
2.66372
2.65473
2.64978
2.64791
2.6363
2.61887
2.59713
2.55422
2.48418
2.41656
2.3927
2.38385
2.37716
2.37524
2.37167
2.36477
2.35522
2.33647
2.29198
2.22474
2.17446
2.16274
2.15819
2.15538
2.15448
2.15011
2.13985
2.12502
2.10045
2.05309
2.00481
2.01118
2.14666
2.48163
2.96646
3.2703
3.41653
3.447
3.42097
3.3504
3.298
3.27812
3.26451
3.25386
3.24339
3.22678
3.2079
3.18646
3.15008
3.08521
3.03833
3.02346
3.01157
3.0053
2.99616
2.98109
2.96279
2.93416
2.88555
2.84547
2.82986
2.81948
2.8131
2.81427
2.82995
2.88138
2.99724
3.13905
3.27555
3.32142
3.31707
3.29184
3.25123
3.21491
3.19529
3.18395
3.17351
3.15749
3.13899
3.11703
3.08604
3.04126
3.00723
2.99224
2.98024
2.96971
2.95765
2.94372
2.92892
2.91012
2.88172
2.85387
2.84065
2.83051
2.82107
2.81042
2.79788
2.78086
2.75164
2.71008
2.68843
2.67902
2.66923
2.65824
2.64557
2.63053
2.61244
2.58963
3.3912
3.38455
3.3505
3.29814
3.26246
3.23714
3.1935
3.1448
3.12932
3.09931
3.05147
3.02109
3.00579
2.97974
2.96066
2.94358
2.90833
2.85249
2.79531
2.76025
2.72895
2.70723
2.69994
2.69795
2.689
2.67305
2.65335
2.61414
2.54765
2.47549
2.44385
2.43519
2.42895
2.42728
2.42606
2.42015
2.41104
2.39272
2.34887
2.27729
2.21971
2.20369
2.19991
2.19924
2.19967
2.19662
2.18933
2.17747
2.15572
2.10493
2.06149
2.1116
2.34461
2.81618
3.21651
3.49255
3.56598
3.55439
3.52333
3.47168
3.40217
3.35462
3.33343
3.31585
3.305
3.29885
3.2823
3.26245
3.23417
3.17767
3.10507
3.07552
3.06114
3.05093
3.04308
3.02836
3.01229
2.9915
2.95621
2.90861
2.88214
2.86916
2.86169
2.86462
2.88573
2.94419
3.07575
3.20125
3.30934
3.385
3.38351
3.36232
3.32158
3.2781
3.25379
3.23547
3.22098
3.20663
3.19014
3.17172
3.14662
3.1072
3.06539
3.04519
3.03299
3.02078
3.00573
2.98859
2.97097
2.95189
2.92619
2.89549
2.87856
2.86773
2.85813
2.84751
2.83478
2.82041
2.8007
2.76755
2.73157
2.71655
2.70693
2.69697
2.68628
2.67354
2.65543
2.62837
2.59847
3.38053
3.40096
3.37046
3.3289
3.30351
3.26544
3.20781
3.18452
3.16644
3.12188
3.07742
3.06095
3.035
3.00686
2.99382
2.97361
2.92984
2.87056
2.83372
2.80196
2.76553
2.75007
2.74511
2.73836
2.7247
2.70841
2.67411
2.61146
2.53661
2.49659
2.48657
2.4807
2.47978
2.48081
2.47662
2.46798
2.45035
2.40783
2.33454
2.26557
2.24357
2.24024
2.24032
2.2472
2.24514
2.23804
2.22611
2.21141
2.15908
2.1568
2.27751
2.65629
3.1304
3.5032
3.65773
3.67211
3.64047
3.57194
3.50832
3.45354
3.40859
3.38351
3.36507
3.35155
3.3459
3.33654
3.32102
3.29894
3.25427
3.17912
3.12576
3.10818
3.0963
3.09316
3.08624
3.07005
3.05144
3.02327
2.97447
2.93117
2.9152
2.90804
2.91288
2.94258
3.01079
3.14722
3.27959
3.37052
3.43333
3.43897
3.4238
3.39071
3.34408
3.30129
3.28224
3.26846
3.25466
3.23904
3.2212
3.20018
3.17138
3.13042
3.09719
3.0828
3.07066
3.05635
3.03961
3.02116
2.99983
2.97143
2.93767
2.9181
2.90739
2.8973
2.88621
2.87344
2.85957
2.8431
2.8189
2.78302
2.75411
2.7405
2.73023
2.7199
2.70831
2.69405
2.6733
2.64448
2.61888
3.2582
3.39974
3.39847
3.37146
3.3311
3.27794
3.23968
3.23259
3.19662
3.13999
3.11418
3.09435
3.057
3.03597
3.02991
3.0055
2.95309
2.90884
2.87843
2.83452
2.80322
2.79261
2.78449
2.77276
2.75906
2.73126
2.67483
2.60083
2.55225
2.53905
2.53236
2.5309
2.53363
2.53312
2.52512
2.50771
2.46698
2.39425
2.31586
2.28556
2.2814
2.2799
2.28844
2.29694
2.28922
2.2788
2.26215
2.23347
2.28611
2.55095
3.03266
3.42915
3.64736
3.73839
3.73855
3.71052
3.64866
3.5725
3.49944
3.4433
3.41572
3.40067
3.39503
3.39524
3.39162
3.37923
3.36204
3.32808
3.25515
3.18091
3.15683
3.14427
3.13913
3.1416
3.13022
3.11297
3.08898
3.04515
2.98842
2.96414
2.95685
2.96384
3.00047
3.08482
3.2229
3.36408
3.43571
3.48022
3.48971
3.47427
3.44613
3.41131
3.3676
3.33036
3.31228
3.29822
3.28414
3.26887
3.25228
3.23044
3.19682
3.15802
3.13641
3.12236
3.10798
3.09164
3.07293
3.05107
3.0233
2.98618
2.9543
2.94103
2.93111
2.92178
2.9104
2.89831
2.8853
2.8687
2.84362
2.81019
2.78379
2.76716
2.75288
2.73868
2.72368
2.70618
2.6847
2.66357
2.6485
2.90991
3.305
3.39244
3.37702
3.34688
3.30652
3.29651
3.2767
3.21668
3.17058
3.15089
3.1174
3.08066
3.07376
3.07124
3.03748
2.98534
2.9546
2.91482
2.86658
2.84417
2.83111
2.81847
2.80605
2.78371
2.73612
2.66706
2.61178
2.59388
2.58539
2.58215
2.58322
2.5867
2.58175
2.56492
2.52529
2.45428
2.3701
2.33137
2.32511
2.32283
2.32649
2.34319
2.34096
2.33631
2.31884
2.35428
2.53198
2.92056
3.36204
3.61955
3.75729
3.8376
3.82857
3.79535
3.74872
3.67917
3.58959
3.5113
3.48074
3.4655
3.45861
3.4678
3.46488
3.44867
3.43086
3.40312
3.33849
3.25168
3.21205
3.19803
3.18968
3.19116
3.1847
3.16848
3.14633
3.10568
3.04679
3.01535
3.00934
3.01997
3.06862
3.16493
3.31297
3.4468
3.50639
3.52956
3.53531
3.52703
3.50717
3.47815
3.44147
3.3951
3.36141
3.34458
3.3302
3.31559
3.29969
3.28112
3.2541
3.21352
3.18369
3.17022
3.15735
3.14263
3.1262
3.10778
3.08435
3.04878
3.00358
2.97814
2.96609
2.9553
2.94299
2.93053
2.91848
2.90583
2.8904
2.86873
2.84098
2.81556
2.79607
2.77835
2.75954
2.73812
2.71312
2.6936
2.68345
2.67402
2.49598
2.95341
3.31638
3.33712
3.35807
3.35021
3.34518
3.30084
3.23503
3.20858
3.18245
3.13969
3.11644
3.11977
3.11055
3.06556
3.02622
2.99226
2.94425
2.9049
2.88117
2.86502
2.85224
2.83255
2.79466
2.73494
2.6751
2.65121
2.64094
2.63445
2.6326
2.63508
2.63527
2.62135
2.58298
2.51429
2.4269
2.38035
2.37208
2.36805
2.36971
2.38326
2.39414
2.39342
2.41179
2.52705
2.86689
3.32101
3.63523
3.81918
3.88592
3.91337
3.91519
3.886
3.8489
3.79743
3.71561
3.61235
3.55978
3.53873
3.52513
3.52512
3.53187
3.51821
3.4991
3.47343
3.41745
3.33127
3.27357
3.25715
3.2456
3.24211
3.23645
3.22068
3.20064
3.16582
3.10751
3.06713
3.06302
3.07572
3.13555
3.24741
3.40173
3.53256
3.57168
3.58623
3.58814
3.58425
3.56628
3.54219
3.51145
3.46457
3.41915
3.39786
3.3822
3.36586
3.34767
3.32747
3.3025
3.26781
3.22923
3.2109
3.19978
3.18905