/*--------------------------------*- C++ -*----------------------------------*\
  =========                 |
  \\      /  F ield         | OpenFOAM: The Open Source CFD Toolbox
   \\    /   O peration     | Website:  https://openfoam.org
    \\  /    A nd           | Version:  7
     \\/     M anipulation  |
\*---------------------------------------------------------------------------*/
FoamFile
{
    version     2.0;
    format      ascii;
    class       volVectorField;
    location    "11.5";
    object      U;
}
// * * * * * * * * * * * * * * * * * * * * * * * * * * * * * * * * * * * * * //

dimensions      [0 1 -1 0 0 0 0];

internalField   nonuniform List<vector> 
3328
(
(-2.8542 0.000146083 0)
(-0.569579 -0.000111502 0)
(0.48612 0.00259366 0)
(0.480734 0.00277972 0)
(0.473803 0.00317084 0)
(0.465984 0.00364467 0)
(0.457374 0.00413884 0)
(0.447855 0.00471965 0)
(0.437248 0.00534903 0)
(0.425596 0.0060265 0)
(0.412747 0.00671423 0)
(0.398166 0.00740416 0)
(0.381136 0.00811432 0)
(0.36157 0.00893185 0)
(0.340274 0.0099362 0)
(0.317766 0.0111385 0)
(0.29331 0.0124997 0)
(0.265538 0.0139726 0)
(0.233036 0.015458 0)
(0.195517 0.0170679 0)
(0.154348 0.018868 0)
(0.111192 0.0208848 0)
(0.0669272 0.0223813 0)
(0.0239755 0.0242025 0)
(-2.85436 0.000721955 0)
(-0.569789 0.000712195 0)
(0.486005 0.00784676 0)
(0.480659 0.00839959 0)
(0.473761 0.0095466 0)
(0.465965 0.0109801 0)
(0.457344 0.0125114 0)
(0.447826 0.014355 0)
(0.4372 0.0163738 0)
(0.42548 0.0186416 0)
(0.412493 0.0209695 0)
(0.397796 0.0233511 0)
(0.380762 0.0258358 0)
(0.361305 0.0286327 0)
(0.340051 0.0318471 0)
(0.317376 0.0353492 0)
(0.292627 0.0389913 0)
(0.26456 0.0426843 0)
(0.232028 0.0470135 0)
(0.194844 0.0518684 0)
(0.154243 0.0581395 0)
(0.111388 0.0652679 0)
(0.0669129 0.0704192 0)
(0.0234775 0.0757406 0)
(-2.85449 0.00149651 0)
(-0.570117 0.00182167 0)
(0.486472 0.0129092 0)
(0.481367 0.0138092 0)
(0.474741 0.0156294 0)
(0.467255 0.017938 0)
(0.458911 0.0203942 0)
(0.449708 0.023356 0)
(0.439367 0.0266033 0)
(0.427905 0.0302588 0)
(0.4151 0.0341259 0)
(0.400634 0.0382466 0)
(0.383996 0.0426614 0)
(0.365067 0.0476011 0)
(0.344238 0.0531731 0)
(0.321806 0.0591789 0)
(0.297336 0.0654188 0)
(0.269813 0.0719024 0)
(0.238258 0.0791473 0)
(0.202202 0.0876036 0)
(0.162213 0.0977445 0)
(0.118685 0.109275 0)
(0.0718695 0.117441 0)
(0.0249397 0.124989 0)
(-2.85465 0.00187915 0)
(-0.570503 0.00259348 0)
(0.486998 0.0178647 0)
(0.482226 0.0191141 0)
(0.475924 0.0215344 0)
(0.468836 0.024673 0)
(0.460843 0.0279644 0)
(0.452063 0.0319079 0)
(0.442106 0.0362122 0)
(0.43102 0.0411185 0)
(0.418573 0.04643 0)
(0.40459 0.0522808 0)
(0.388668 0.0586899 0)
(0.37065 0.0658612 0)
(0.350635 0.0738915 0)
(0.328692 0.0825719 0)
(0.304508 0.0917322 0)
(0.277357 0.101426 0)
(0.246495 0.112379 0)
(0.211238 0.12501 0)
(0.171745 0.139357 0)
(0.127797 0.155723 0)
(0.0784885 0.167075 0)
(0.02718 0.176064 0)
(-2.85493 0.00249725 0)
(-0.571065 0.00370031 0)
(0.487269 0.0227289 0)
(0.482987 0.0243869 0)
(0.477057 0.0273436 0)
(0.470478 0.0313233 0)
(0.462861 0.0353735 0)
(0.454604 0.0401981 0)
(0.445171 0.0453882 0)
(0.434659 0.0513622 0)
(0.422777 0.057945 0)
(0.409515 0.065376 0)
(0.39456 0.0736815 0)
(0.377716 0.0830434 0)
(0.358798 0.0935678 0)
(0.337616 0.105138 0)
(0.314085 0.117668 0)
(0.288108 0.131114 0)
(0.259648 0.145989 0)
(0.227745 0.162469 0)
(0.190385 0.17997 0)
(0.147443 0.201501 0)
(0.0932735 0.219103 0)
(0.0333798 0.232339 0)
(-2.85508 0.00303004 0)
(-0.571579 0.00473962 0)
(0.48765 0.0272887 0)
(0.484126 0.0295541 0)
(0.478525 0.0329752 0)
(0.472667 0.0378145 0)
(0.465526 0.0425504 0)
(0.458009 0.0481838 0)
(0.449327 0.0541944 0)
(0.439671 0.0611205 0)
(0.4286 0.0687759 0)
(0.416238 0.0775686 0)
(0.402341 0.0875604 0)
(0.386748 0.0989324 0)
(0.369153 0.111784 0)
(0.349239 0.126105 0)
(0.327047 0.141833 0)
(0.30279 0.158901 0)
(0.276269 0.177709 0)
(0.246129 0.199693 0)
(0.207919 0.224289 0)
(0.162017 0.255256 0)
(0.103672 0.282693 0)
(0.033886 0.298393 0)
(-2.85498 0.00359856 0)
(-0.57208 0.00605398 0)
(0.488513 0.0312636 0)
(0.486371 0.0343707 0)
(0.480664 0.0381937 0)
(0.475758 0.0439344 0)
(0.469219 0.049295 0)
(0.462724 0.0556992 0)
(0.455036 0.0625109 0)
(0.446477 0.0703626 0)
(0.436415 0.0790367 0)
(0.425056 0.0890294 0)
(0.412216 0.100478 0)
(0.397845 0.113589 0)
(0.381703 0.128375 0)
(0.363518 0.145002 0)
(0.34306 0.16348 0)
(0.320839 0.184329 0)
(0.296473 0.207846 0)
(0.270645 0.236112 0)
(0.238882 0.267478 0)
(0.200953 0.3055 0)
(0.14262 0.34431 0)
(0.0617244 0.374338 0)
(-2.8546 0.00419014 0)
(-0.572316 0.0069093 0)
(0.492241 0.0336677 0)
(0.490683 0.0380702 0)
(0.48434 0.0430119 0)
(0.479731 0.0494212 0)
(0.473738 0.0552359 0)
(0.468443 0.0622244 0)
(0.461926 0.0698998 0)
(0.454584 0.0788985 0)
(0.445629 0.0888555 0)
(0.435384 0.100114 0)
(0.423689 0.112779 0)
(0.410667 0.12723 0)
(0.396063 0.143398 0)
(0.380034 0.16178 0)
(0.361825 0.182414 0)
(0.342886 0.206334 0)
(0.322488 0.232966 0)
(0.30233 0.264679 0)
(0.276021 0.303152 0)
(0.239546 0.362615 0)
(0.15994 0.432646 0)
(0.106291 0.51305 0)
(-2.85423 0.00483726 0)
(-0.572349 0.00536299 0)
(0.497599 0.0338425 0)
(0.496032 0.0400528 0)
(0.489213 0.0475795 0)
(0.483652 0.0542925 0)
(0.478483 0.0601775 0)
(0.474551 0.0673932 0)
(0.469244 0.0759549 0)
(0.463015 0.0863653 0)
(0.455164 0.0979912 0)
(0.446216 0.110799 0)
(0.435892 0.124626 0)
(0.424561 0.140058 0)
(0.411638 0.157073 0)
(0.398113 0.176523 0)
(0.382963 0.198288 0)
(0.368258 0.22347 0)
(0.352158 0.251636 0)
(0.336949 0.28719 0)
(0.316149 0.337496 0)
(0.296732 0.415907 0)
(0.270877 0.493578 0)
(0.321691 0.55319 0)
(-2.85467 0.00580803 0)
(-0.572374 0.00195923 0)
(0.500356 0.0332727 0)
(0.499367 0.0411528 0)
(0.493284 0.0517544 0)
(0.487495 0.0585413 0)
(0.483454 0.0641247 0)
(0.480694 0.0712545 0)
(0.476378 0.0806557 0)
(0.470945 0.0923726 0)
(0.464138 0.10568 0)
(0.456748 0.120226 0)
(0.4482 0.135438 0)
(0.438846 0.151821 0)
(0.427913 0.169451 0)
(0.41689 0.189228 0)
(0.40537 0.211278 0)
(0.394367 0.236584 0)
(0.383362 0.265652 0)
(0.372704 0.303518 0)
(0.363992 0.358931 0)
(0.358273 0.430956 0)
(0.367869 0.474893 0)
(0.415544 0.46875 0)
(-2.85633 0.00654463 0)
(-0.572037 0.000288435 0)
(0.500254 0.0331201 0)
(0.499227 0.0413799 0)
(0.496442 0.0539873 0)
(0.492809 0.0612525 0)
(0.489229 0.066805 0)
(0.486683 0.0743429 0)
(0.482707 0.0847509 0)
(0.477562 0.0976123 0)
(0.471895 0.112103 0)
(0.466368 0.127744 0)
(0.460229 0.144396 0)
(0.452993 0.161805 0)
(0.444496 0.180138 0)
(0.43561 0.199965 0)
(0.427516 0.222058 0)
(0.419889 0.246919 0)
(0.414532 0.275735 0)
(0.408097 0.31211 0)
(0.411898 0.363282 0)
(0.416626 0.427434 0)
(0.443839 0.468216 0)
(0.477939 0.464699 0)
(-2.85865 0.00693152 0)
(-0.571635 0.00201671 0)
(0.500193 0.0319215 0)
(0.499584 0.0399435 0)
(0.498876 0.0542747 0)
(0.497239 0.063633 0)
(0.494963 0.0702606 0)
(0.492375 0.0783653 0)
(0.488877 0.088988 0)
(0.484231 0.101642 0)
(0.479918 0.116268 0)
(0.475921 0.132737 0)
(0.472226 0.150467 0)
(0.466942 0.169034 0)
(0.461051 0.188432 0)
(0.453822 0.208621 0)
(0.448708 0.230774 0)
(0.443992 0.254933 0)
(0.443638 0.282389 0)
(0.441396 0.315155 0)
(0.451589 0.357907 0)
(0.463736 0.411776 0)
(0.494523 0.449691 0)
(0.519542 0.447773 0)
(-2.86112 0.00717994 0)
(-0.571072 0.00415562 0)
(0.503164 0.0309847 0)
(0.500716 0.0389006 0)
(0.500064 0.0537389 0)
(0.500107 0.0649882 0)
(0.5006 0.0734455 0)
(0.499114 0.0826641 0)
(0.495972 0.0931477 0)
(0.491619 0.104926 0)
(0.488326 0.118893 0)
(0.485407 0.13536 0)
(0.483806 0.154048 0)
(0.480591 0.173608 0)
(0.477029 0.193934 0)
(0.471392 0.214701 0)
(0.468689 0.23685 0)
(0.466512 0.260451 0)
(0.469615 0.286466 0)
(0.471523 0.315611 0)
(0.481991 0.349528 0)
(0.49795 0.391885 0)
(0.52565 0.431432 0)
(0.550595 0.441359 0)
(-2.86385 0.00741969 0)
(-0.57073 0.00619372 0)
(0.506024 0.0301593 0)
(0.502095 0.0373891 0)
(0.500775 0.0519892 0)
(0.502065 0.0650484 0)
(0.505992 0.0757454 0)
(0.506898 0.086901 0)
(0.504132 0.097481 0)
(0.499878 0.108276 0)
(0.49692 0.120986 0)
(0.494839 0.136503 0)
(0.495052 0.154989 0)
(0.493895 0.175318 0)
(0.492365 0.196589 0)
(0.488336 0.217742 0)
(0.487408 0.239874 0)
(0.487445 0.263011 0)
(0.49285 0.28768 0)
(0.498176 0.314578 0)
(0.508226 0.343193 0)
(0.522617 0.376047 0)
(0.545741 0.409435 0)
(0.57287 0.430904 0)
(-2.86676 0.0075198 0)
(-0.570843 0.00849452 0)
(0.507607 0.0294429 0)
(0.502702 0.0362929 0)
(0.501901 0.0506112 0)
(0.504262 0.0647123 0)
(0.510978 0.0777102 0)
(0.514445 0.0906781 0)
(0.512668 0.101756 0)
(0.508639 0.111891 0)
(0.505642 0.123347 0)
(0.504465 0.13744 0)
(0.505768 0.154761 0)
(0.506622 0.174815 0)
(0.506896 0.196482 0)
(0.504565 0.218308 0)
(0.504867 0.240242 0)
(0.506672 0.262667 0)
(0.513752 0.28592 0)
(0.521685 0.31117 0)
(0.532202 0.337375 0)
(0.544519 0.365319 0)
(0.563153 0.392804 0)
(0.584708 0.418672 0)
(-2.86953 0.00746146 0)
(-0.571456 0.010977 0)
(0.509349 0.0283529 0)
(0.50404 0.0360216 0)
(0.504258 0.0501533 0)
(0.507914 0.064722 0)
(0.515818 0.0794437 0)
(0.52019 0.0935164 0)
(0.520056 0.105254 0)
(0.517021 0.115254 0)
(0.514579 0.125862 0)
(0.514331 0.138554 0)
(0.51636 0.154322 0)
(0.518761 0.173287 0)
(0.520452 0.194538 0)
(0.519812 0.216539 0)
(0.521112 0.238516 0)
(0.524322 0.260497 0)
(0.532577 0.282589 0)
(0.542595 0.305906 0)
(0.554172 0.330275 0)
(0.566258 0.356381 0)
(0.581917 0.382124 0)
(0.599784 0.407086 0)
(-2.87197 0.00741899 0)
(-0.572526 0.0121984 0)
(0.512728 0.027355 0)
(0.50707 0.0363377 0)
(0.508336 0.0503301 0)
(0.513331 0.0654772 0)
(0.520535 0.0803274 0)
(0.524682 0.09389 0)
(0.525624 0.106223 0)
(0.524156 0.117379 0)
(0.523345 0.127981 0)
(0.52441 0.139722 0)
(0.527147 0.154144 0)
(0.530756 0.171723 0)
(0.533332 0.191957 0)
(0.533896 0.213485 0)
(0.536093 0.235167 0)
(0.54051 0.256605 0)
(0.549475 0.277583 0)
(0.561152 0.299338 0)
(0.574231 0.32238 0)
(0.587296 0.346859 0)
(0.601913 0.371898 0)
(0.618513 0.397366 0)
(-2.87411 0.00745226 0)
(-0.573948 0.0126495 0)
(0.516116 0.0258625 0)
(0.51203 0.037779 0)
(0.515472 0.0530433 0)
(0.519652 0.0674064 0)
(0.523851 0.0801935 0)
(0.527664 0.092406 0)
(0.529787 0.104653 0)
(0.530299 0.116623 0)
(0.531605 0.128036 0)
(0.534546 0.139936 0)
(0.538236 0.153965 0)
(0.542808 0.170467 0)
(0.545849 0.189392 0)
(0.547088 0.209796 0)
(0.549856 0.230703 0)
(0.555276 0.251615 0)
(0.564769 0.271961 0)
(0.577635 0.292219 0)
(0.592267 0.313312 0)
(0.606957 0.336321 0)
(0.622342 0.361013 0)
(0.639279 0.386768 0)
(-2.87595 0.00756594 0)
(-0.57552 0.0109236 0)
(0.520751 0.0217866 0)
(0.520166 0.0453749 0)
(0.525014 0.0572605 0)
(0.525051 0.0686007 0)
(0.526187 0.0790963 0)
(0.528817 0.0895733 0)
(0.532 0.100974 0)
(0.535095 0.113247 0)
(0.539212 0.125871 0)
(0.544758 0.139085 0)
(0.549712 0.153667 0)
(0.554904 0.169477 0)
(0.557929 0.186892 0)
(0.559577 0.205703 0)
(0.562705 0.22542 0)
(0.568837 0.245652 0)
(0.578741 0.265647 0)
(0.592365 0.285112 0)
(0.608395 0.304599 0)
(0.624893 0.325632 0)
(0.642035 0.348744 0)
(0.660576 0.374257 0)
(-2.87763 0.00788641 0)
(-0.576507 0.00567533 0)
(0.527895 0.0280218 0)
(0.531156 0.0472257 0)
(0.532497 0.0585166 0)
(0.529853 0.0680411 0)
(0.52803 0.076648 0)
(0.529529 0.0850845 0)
(0.533445 0.0953528 0)
(0.539221 0.107946 0)
(0.546684 0.122198 0)
(0.555046 0.137377 0)
(0.561283 0.152759 0)
(0.566728 0.168076 0)
(0.569512 0.184067 0)
(0.571541 0.201278 0)
(0.575049 0.219643 0)
(0.581525 0.238915 0)
(0.591768 0.258457 0)
(0.605712 0.277633 0)
(0.622792 0.296279 0)
(0.641007 0.315752 0)
(0.660233 0.336789 0)
(0.681021 0.360481 0)
(-2.87968 0.00833931 0)
(-0.575995 0.00104631 0)
(0.536503 0.0346041 0)
(0.538438 0.0461826 0)
(0.538481 0.0568439 0)
(0.533471 0.065808 0)
(0.529945 0.0727143 0)
(0.531006 0.0797696 0)
(0.5361 0.0893897 0)
(0.544265 0.102623 0)
(0.554776 0.11819 0)
(0.564691 0.134318 0)
(0.571992 0.149942 0)
(0.577608 0.164945 0)
(0.580638 0.180114 0)
(0.583293 0.196276 0)
(0.587239 0.213491 0)
(0.593759 0.231634 0)
(0.603985 0.250388 0)
(0.617919 0.269261 0)
(0.635605 0.28754 0)
(0.655324 0.306085 0)
(0.676661 0.325542 0)
(0.699853 0.347175 0)
(-2.88227 0.00862645 0)
(-0.574679 -0.00191972 0)
(0.542923 0.0366196 0)
(0.543262 0.042481 0)
(0.542055 0.0539822 0)
(0.535409 0.0621602 0)
(0.532185 0.0684886 0)
(0.534589 0.075362 0)
(0.541138 0.0856367 0)
(0.551499 0.0994672 0)
(0.562986 0.114696 0)
(0.572926 0.129967 0)
(0.580914 0.144911 0)
(0.587093 0.159482 0)
(0.591293 0.174248 0)
(0.595033 0.189896 0)
(0.599573 0.206455 0)
(0.60612 0.223712 0)
(0.615891 0.241612 0)
(0.629442 0.259941 0)
(0.647153 0.277897 0)
(0.667987 0.295784 0)
(0.691223 0.314117 0)
(0.716711 0.334147 0)
(-2.88524 0.00875059 0)
(-0.572718 -0.00152881 0)
(0.5474 0.0333041 0)
(0.545922 0.0385785 0)
(0.542959 0.0497414 0)
(0.535932 0.058316 0)
(0.53606 0.0652014 0)
(0.540018 0.0738193 0)
(0.548425 0.0852124 0)
(0.559439 0.0984432 0)
(0.570101 0.111614 0)
(0.579535 0.124839 0)
(0.587903 0.138414 0)
(0.595064 0.152131 0)
(0.601142 0.166291 0)
(0.606592 0.181465 0)
(0.612121 0.197692 0)
(0.61892 0.214592 0)
(0.628184 0.231992 0)
(0.640974 0.24976 0)
(0.658108 0.26729 0)
(0.679354 0.284555 0)
(0.704037 0.301909 0)
(0.731593 0.320509 0)
(-2.88845 0.00864374 0)
(-0.571105 0.00190413 0)
(0.550185 0.0279062 0)
(0.546639 0.0329577 0)
(0.541962 0.0440784 0)
(0.537681 0.0550333 0)
(0.541074 0.0640434 0)
(0.547271 0.0744356 0)
(0.556572 0.0862998 0)
(0.566205 0.097785 0)
(0.575286 0.108382 0)
(0.584281 0.119364 0)
(0.593001 0.131177 0)
(0.601293 0.143601 0)
(0.609527 0.156724 0)
(0.617379 0.171214 0)
(0.624573 0.187202 0)
(0.632032 0.204059 0)
(0.641009 0.221231 0)
(0.652918 0.238473 0)
(0.669003 0.255505 0)
(0.689855 0.272196 0)
(0.715234 0.288693 0)
(0.744397 0.305809 0)
(-2.8917 0.00820624 0)
(-0.570598 0.00632178 0)
(0.551172 0.0214509 0)
(0.546007 0.02624 0)
(0.541646 0.0389007 0)
(0.541666 0.0525411 0)
(0.547342 0.0642039 0)
(0.55525 0.0754864 0)
(0.563306 0.0863464 0)
(0.570807 0.0959309 0)
(0.578807 0.104845 0)
(0.58737 0.113899 0)
(0.59635 0.123646 0)
(0.605691 0.134443 0)
(0.616064 0.146388 0)
(0.626849 0.16023 0)
(0.636312 0.176052 0)
(0.644723 0.192595 0)
(0.653761 0.209208 0)
(0.665192 0.225751 0)
(0.680349 0.2422 0)
(0.700409 0.258352 0)
(0.725615 0.274239 0)
(0.755554 0.289981 0)
(-2.89457 0.00758296 0)
(-0.571102 0.0110255 0)
(0.550916 0.0146336 0)
(0.54594 0.0205518 0)
(0.544719 0.0356106 0)
(0.548246 0.0520838 0)
(0.555027 0.0646112 0)
(0.561705 0.0750054 0)
(0.567753 0.0843076 0)
(0.573984 0.0927933 0)
(0.581188 0.100362 0)
(0.589526 0.107739 0)
(0.598821 0.115591 0)
(0.609165 0.124856 0)
(0.621512 0.136254 0)
(0.635322 0.150033 0)
(0.646779 0.165387 0)
(0.655881 0.180729 0)
(0.665291 0.19606 0)
(0.676861 0.211485 0)
(0.691616 0.227109 0)
(0.711004 0.242533 0)
(0.735503 0.257939 0)
(0.76536 0.272627 0)
(-2.89662 0.00686779 0)
(-0.572866 0.0146314 0)
(0.552641 0.00944834 0)
(0.549363 0.0185089 0)
(0.552997 0.0351624 0)
(0.557439 0.0516633 0)
(0.562152 0.0634413 0)
(0.566085 0.0722031 0)
(0.570439 0.0801843 0)
(0.575608 0.0874696 0)
(0.582432 0.0940214 0)
(0.590979 0.10016 0)
(0.601176 0.107071 0)
(0.613809 0.116106 0)
(0.628631 0.128326 0)
(0.643684 0.141799 0)
(0.65561 0.155488 0)
(0.665026 0.16874 0)
(0.675084 0.182244 0)
(0.687322 0.196169 0)
(0.702281 0.210639 0)
(0.721431 0.224966 0)
(0.745202 0.239707 0)
(0.774486 0.253536 0)
(-2.89798 0.00638931 0)
(-0.575399 0.0122519 0)
(0.557378 0.00673809 0)
(0.557657 0.0235824 0)
(0.563839 0.0371227 0)
(0.566559 0.0500871 0)
(0.567027 0.0592657 0)
(0.568397 0.0663976 0)
(0.57124 0.0729903 0)
(0.575756 0.0795703 0)
(0.582762 0.0855863 0)
(0.592598 0.0922276 0)
(0.605109 0.100286 0)
(0.620883 0.111022 0)
(0.636624 0.123042 0)
(0.651073 0.13454 0)
(0.662282 0.145575 0)
(0.672032 0.156209 0)
(0.682835 0.167615 0)
(0.696012 0.179805 0)
(0.711615 0.192994 0)
(0.73106 0.206191 0)
(0.754623 0.220306 0)
(0.783584 0.233498 0)
(-2.89925 0.00638371 0)
(-0.576746 0.00471304 0)
(0.564787 0.0141284 0)
(0.567768 0.0249471 0)
(0.572218 0.0353438 0)
(0.572208 0.0455295 0)
(0.570064 0.051542 0)
(0.568945 0.0565636 0)
(0.570702 0.0624485 0)
(0.574849 0.069707 0)
(0.583654 0.0774455 0)
(0.596183 0.0868251 0)
(0.611826 0.0977273 0)
(0.628568 0.10849 0)
(0.643375 0.118534 0)
(0.656679 0.127326 0)
(0.666952 0.135322 0)
(0.676985 0.142959 0)
(0.688502 0.151911 0)
(0.702774 0.162008 0)
(0.719453 0.173932 0)
(0.739849 0.186542 0)
(0.763812 0.200776 0)
(0.792624 0.213814 0)
(-2.90116 0.00654587 0)
(-0.576362 0.00196635 0)
(0.571344 0.0180859 0)
(0.573502 0.0239262 0)
(0.576242 0.0315846 0)
(0.574688 0.0378358 0)
(0.570544 0.0405251 0)
(0.56791 0.0442388 0)
(0.569755 0.0503797 0)
(0.576412 0.0600338 0)
(0.588055 0.0726399 0)
(0.603081 0.0850888 0)
(0.619414 0.0964902 0)
(0.634977 0.105763 0)
(0.648467 0.113626 0)
(0.66044 0.119794 0)
(0.669821 0.12485 0)
(0.679938 0.129403 0)
(0.692125 0.135558 0)
(0.707682 0.143141 0)
(0.726039 0.153737 0)
(0.748178 0.166096 0)
(0.773059 0.181204 0)
(0.801547 0.19475 0)
(-2.9035 0.00652128 0)
(-0.575351 0.00124849 0)
(0.575031 0.0183309 0)
(0.576079 0.0204334 0)
(0.577192 0.0255618 0)
(0.573791 0.0286367 0)
(0.568695 0.0295623 0)
(0.568105 0.0333879 0)
(0.572822 0.0417182 0)
(0.582638 0.0544154 0)
(0.596465 0.0685523 0)
(0.611944 0.0822207 0)
(0.626385 0.0932583 0)
(0.639776 0.101562 0)
(0.652129 0.107554 0)
(0.662122 0.111218 0)
(0.670759 0.11377 0)
(0.680859 0.116161 0)
(0.693957 0.120054 0)
(0.711507 0.125578 0)
(0.732574 0.135151 0)
(0.756974 0.147051 0)
(0.782609 0.16185 0)
(0.810182 0.174884 0)
(-2.90592 0.00624717 0)
(-0.57376 0.00328594 0)
(0.576769 0.0148068 0)
(0.576135 0.0158196 0)
(0.574825 0.0192549 0)
(0.57033 0.0206989 0)
(0.567703 0.0227117 0)
(0.570279 0.0274007 0)
(0.577531 0.0366483 0)
(0.590205 0.0483743 0)
(0.605795 0.0617043 0)
(0.620096 0.0747489 0)
(0.633048 0.0860812 0)
(0.643979 0.0946896 0)
(0.653358 0.0998385 0)
(0.661405 0.102068 0)
(0.669566 0.103331 0)
(0.680113 0.10443 0)
(0.694527 0.10733 0)
(0.714188 0.111687 0)
(0.737891 0.119482 0)
(0.764636 0.128831 0)
(0.791355 0.141187 0)
(0.818173 0.152845 0)
(-2.90814 0.00568513 0)
(-0.572777 0.00433472 0)
(0.576339 0.0102223 0)
(0.57418 0.0112523 0)
(0.570666 0.0144889 0)
(0.566985 0.0171632 0)
(0.568151 0.0203761 0)
(0.57317 0.0263629 0)
(0.58283 0.0348935 0)
(0.59762 0.044743 0)
(0.613771 0.0550221 0)
(0.627649 0.0645826 0)
(0.639201 0.0742568 0)
(0.647068 0.0824851 0)
(0.653531 0.087946 0)
(0.660095 0.0908311 0)
(0.667823 0.0930596 0)
(0.678839 0.0950075 0)
(0.694592 0.0981583 0)
(0.715635 0.10176 0)
(0.740605 0.107368 0)
(0.768528 0.112817 0)
(0.796849 0.120938 0)
(0.824572 0.129188 0)
(-2.91016 0.0048581 0)
(-0.571898 0.00333179 0)
(0.575724 0.00704344 0)
(0.572287 0.00846561 0)
(0.567761 0.0125188 0)
(0.565657 0.0168014 0)
(0.569016 0.0202732 0)
(0.575443 0.0261529 0)
(0.586984 0.0328504 0)
(0.602361 0.0399814 0)
(0.618319 0.0466276 0)
(0.631558 0.0526611 0)
(0.642806 0.0588385 0)
(0.648965 0.0649362 0)
(0.653546 0.0711425 0)
(0.659164 0.0772162 0)
(0.667024 0.0827863 0)
(0.6783 0.0873161 0)
(0.69438 0.0912946 0)
(0.715654 0.0941379 0)
(0.740821 0.0975121 0)
(0.768738 0.100098 0)
(0.798046 0.103751 0)
(0.827275 0.106525 0)
(-2.91197 0.00387623 0)
(-0.571348 0.00330157 0)
(0.575975 0.00319028 0)
(0.57155 0.00497439 0)
(0.566997 0.0102725 0)
(0.565903 0.0155875 0)
(0.570277 0.0197276 0)
(0.577837 0.0255497 0)
(0.5904 0.0313478 0)
(0.605771 0.036602 0)
(0.620603 0.040568 0)
(0.632873 0.0430978 0)
(0.643967 0.0449637 0)
(0.651246 0.0481942 0)
(0.656828 0.0539804 0)
(0.662532 0.0622366 0)
(0.669839 0.0701999 0)
(0.680104 0.0772427 0)
(0.694848 0.0835592 0)
(0.715058 0.0869436 0)
(0.739515 0.0888042 0)
(0.767002 0.088944 0)
(0.796152 0.0893969 0)
(0.825854 0.0888452 0)
(-2.91384 0.00282637 0)
(-0.571277 0.00553937 0)
(0.57701 -0.00156683 0)
(0.572024 -0.000260391 0)
(0.5678 0.00556749 0)
(0.567061 0.0117863 0)
(0.571828 0.0170035 0)
(0.579934 0.0235143 0)
(0.592615 0.029199 0)
(0.607169 0.0330627 0)
(0.620529 0.0352225 0)
(0.631686 0.03564 0)
(0.642402 0.0352021 0)
(0.651797 0.0358409 0)
(0.659855 0.0389646 0)
(0.667126 0.0448067 0)
(0.674413 0.0541048 0)
(0.683703 0.0632234 0)
(0.696752 0.0705904 0)
(0.7148 0.0765262 0)
(0.737532 0.0801855 0)
(0.763433 0.0798994 0)
(0.791625 0.0783045 0)
(0.821335 0.0750988 0)
(-2.91477 0.00218204 0)
(-0.57193 0.0105118 0)
(0.577252 -0.00623262 0)
(0.572279 -0.00529432 0)
(0.568932 -0.000170712 0)
(0.569321 0.00639311 0)
(0.574476 0.013022 0)
(0.582517 0.020218 0)
(0.593942 0.0266225 0)
(0.606655 0.0306169 0)
(0.618186 0.0316196 0)
(0.628492 0.0309877 0)
(0.638888 0.0294388 0)
(0.649306 0.027655 0)
(0.659942 0.0270172 0)
(0.670371 0.0291123 0)
(0.679964 0.0345532 0)
(0.689971 0.0438641 0)
(0.702085 0.053834 0)
(0.717483 0.0620398 0)
(0.736492 0.0681693 0)
(0.759381 0.0707793 0)
(0.785428 0.0692639 0)
(0.814216 0.0645305 0)
(-2.91543 0.00159951 0)
(-0.573642 0.0134957 0)
(0.576428 -0.00797906 0)
(0.571906 -0.00768246 0)
(0.569862 -0.00439857 0)
(0.572333 0.000389331 0)
(0.578172 0.00717355 0)
(0.586049 0.015229 0)
(0.595745 0.0220797 0)
(0.605316 0.0263311 0)
(0.615066 0.0282058 0)
(0.624456 0.0276958 0)
(0.634001 0.0255727 0)
(0.64444 0.0224231 0)
(0.656384 0.0190117 0)
(0.670147 0.0170739 0)
(0.684405 0.0192509 0)
(0.697141 0.0253928 0)
(0.709363 0.0342088 0)
(0.723252 0.043553 0)
(0.739107 0.0519997 0)
(0.757664 0.056678 0)
(0.779739 0.0579771 0)
(0.806023 0.0545569 0)
(-2.91588 0.00120005 0)
(-0.575068 0.00929508 0)
(0.573753 -0.00500444 0)
(0.570084 -0.00645605 0)
(0.570781 -0.0055299 0)
(0.574543 -0.00274601 0)
(0.581466 0.00195487 0)
(0.589184 0.00837138 0)
(0.598104 0.0142181 0)
(0.606731 0.0187221 0)
(0.6143 0.0204032 0)
(0.621541 0.0195579 0)
(0.629859 0.0165648 0)
(0.640098 0.0128347 0)
(0.652275 0.00989032 0)
(0.66623 0.00805851 0)
(0.682397 0.00724029 0)
(0.699045 0.00933196 0)
(0.715322 0.016261 0)
(0.730729 0.0250797 0)
(0.745885 0.0329499 0)
(0.761613 0.0383607 0)
(0.779178 0.0401802 0)
(0.800831 0.0377807 0)
(-2.91614 0.000519689 0)
(-0.57557 0.00317999 0)
(0.570177 -0.00624945 0)
(0.565761 -0.00291388 0)
(0.569571 -0.00143694 0)
(0.576238 0.00123115 0)
(0.585225 0.00378089 0)
(0.593722 0.00508828 0)
(0.601709 0.006123 0)
(0.608197 0.00675925 0)
(0.612737 0.00651703 0)
(0.617407 0.00564716 0)
(0.623815 0.00451903 0)
(0.634282 0.0036807 0)
(0.648689 0.00386013 0)
(0.666273 0.00510926 0)
(0.685286 0.00651886 0)
(0.705147 0.00790672 0)
(0.72332 0.00925508 0)
(0.736876 0.0110259 0)
(0.748578 0.0129297 0)
(0.760728 0.0140469 0)
(0.774489 0.0139485 0)
(0.792598 0.0123638 0)
(0.388532 0.347332 0)
(0.1139 0.177793 0)
(0.0548607 0.0488294 0)
(0.0242289 0.0138534 0)
(0.00808106 0.00685642 0)
(0.00205658 0.00234191 0)
(-0.00224533 0.00131095 0)
(-0.00172061 -0.000437632 0)
(0.41035 0.300344 0)
(0.255904 0.176252 0)
(0.1741 0.0729201 0)
(0.0881838 0.0423139 0)
(0.0372382 0.0249897 0)
(0.0142457 0.00558317 0)
(0.000726328 -0.00161482 0)
(-0.000236529 -0.00684441 0)
(0.452835 0.390797 0)
(0.350477 0.319831 0)
(0.258663 0.21213 0)
(0.154472 0.141369 0)
(0.0831492 0.0822476 0)
(0.0430112 0.0317597 0)
(0.0148306 0.00781845 0)
(0.00460473 -0.00459415 0)
(0.513268 0.424804 0)
(0.465149 0.377306 0)
(0.39344 0.292521 0)
(0.288543 0.213272 0)
(0.191709 0.13891 0)
(0.110976 0.0809451 0)
(0.0455523 0.0473671 0)
(0.0145393 0.0163537 0)
(0.554915 0.438716 0)
(0.534067 0.427569 0)
(0.491682 0.381989 0)
(0.403903 0.325722 0)
(0.29759 0.253587 0)
(0.191771 0.176475 0)
(0.0925808 0.118794 0)
(0.0344153 0.0618441 0)
(0.583416 0.443214 0)
(0.580282 0.44658 0)
(0.560959 0.432036 0)
(0.504927 0.40441 0)
(0.418487 0.351407 0)
(0.301811 0.288994 0)
(0.17349 0.226015 0)
(0.070104 0.152061 0)
(0.604633 0.437376 0)
(0.610644 0.454235 0)
(0.60474 0.461467 0)
(0.575148 0.462841 0)
(0.517106 0.443077 0)
(0.419301 0.411343 0)
(0.305782 0.344883 0)
(0.144163 0.321596 0)
(0.618237 0.430914 0)
(0.63238 0.452969 0)
(0.636859 0.473601 0)
(0.62759 0.493622 0)
(0.595653 0.505708 0)
(0.530181 0.50761 0)
(0.388386 0.516636 0)
(0.197682 0.637627 0)
(0.635755 0.423241 0)
(0.652029 0.450518 0)
(0.662326 0.480298 0)
(0.667928 0.512865 0)
(0.659325 0.547731 0)
(0.634267 0.602457 0)
(0.596378 0.693219 0)
(0.674732 0.899376 0)
(0.657125 0.413828 0)
(0.674677 0.443858 0)
(0.690063 0.477801 0)
(0.705251 0.519253 0)
(0.721998 0.573588 0)
(0.741717 0.653117 0)
(0.804703 0.741144 0)
(1.0264 0.833555 0)
(0.680839 0.402205 0)
(0.701232 0.433302 0)
(0.722405 0.469107 0)
(0.743928 0.512632 0)
(0.778204 0.567289 0)
(0.828813 0.645431 0)
(0.948264 0.730345 0)
(1.18829 0.774342 0)
(0.70439 0.387262 0)
(0.728927 0.418459 0)
(0.756059 0.453749 0)
(0.784959 0.496024 0)
(0.828167 0.545658 0)
(0.893905 0.609948 0)
(1.02464 0.679499 0)
(1.24078 0.702391 0)
(0.726288 0.371425 0)
(0.755269 0.39998 0)
(0.787743 0.433156 0)
(0.823992 0.472482 0)
(0.872565 0.515349 0)
(0.942238 0.563194 0)
(1.06113 0.614676 0)
(1.24333 0.626047 0)
(0.745887 0.356021 0)
(0.778734 0.38092 0)
(0.815611 0.409661 0)
(0.857174 0.443316 0)
(0.908896 0.479678 0)
(0.977966 0.512542 0)
(1.08091 0.550268 0)
(1.22313 0.554736 0)
(0.762991 0.340556 0)
(0.798586 0.362269 0)
(0.838765 0.386122 0)
(0.883522 0.412968 0)
(0.936469 0.442113 0)
(1.00267 0.46524 0)
(1.09237 0.489146 0)
(1.20401 0.489032 0)
(0.777478 0.32416 0)
(0.814775 0.343197 0)
(0.85672 0.363151 0)
(0.903255 0.383553 0)
(0.95653 0.406031 0)
(1.01948 0.419942 0)
(1.09683 0.434587 0)
(1.18877 0.432415 0)
(0.78961 0.306635 0)
(0.827798 0.323106 0)
(0.870142 0.340256 0)
(0.91683 0.355523 0)
(0.969301 0.371944 0)
(1.02863 0.380167 0)
(1.09675 0.3878 0)
(1.17506 0.383945 0)
(0.799656 0.287894 0)
(0.838109 0.302049 0)
(0.879955 0.317153 0)
(0.925547 0.328642 0)
(0.975969 0.340446 0)
(1.03198 0.344614 0)
(1.09327 0.347668 0)
(1.16186 0.342377 0)
(0.808343 0.267925 0)
(0.846326 0.280344 0)
(0.886938 0.293922 0)
(0.930588 0.302636 0)
(0.978162 0.311095 0)
(1.0304 0.312369 0)
(1.08698 0.312919 0)
(1.14855 0.306313 0)
(0.816797 0.247412 0)
(0.853684 0.258483 0)
(0.892349 0.270665 0)
(0.93344 0.277228 0)
(0.977716 0.283132 0)
(1.02611 0.28304 0)
(1.07878 0.281299 0)
(1.13546 0.274104 0)
(0.824809 0.227337 0)
(0.859998 0.237022 0)
(0.896243 0.247499 0)
(0.934506 0.252172 0)
(0.97544 0.256022 0)
(1.02041 0.255268 0)
(1.0694 0.252404 0)
(1.12252 0.244664 0)
(0.831931 0.207954 0)
(0.864745 0.216285 0)
(0.898365 0.224808 0)
(0.933826 0.227751 0)
(0.971668 0.229897 0)
(1.01357 0.228718 0)
(1.05966 0.225166 0)
(1.10983 0.217636 0)
(0.838279 0.187914 0)
(0.868309 0.195679 0)
(0.899255 0.202683 0)
(0.932159 0.204444 0)
(0.967427 0.205378 0)
(1.00676 0.203783 0)
(1.05049 0.199816 0)
(1.09842 0.193048 0)
(0.844033 0.165209 0)
(0.871217 0.173194 0)
(0.899426 0.180046 0)
(0.929959 0.182166 0)
(0.963075 0.183146 0)
(1.00029 0.181608 0)
(1.04183 0.177619 0)
(1.08761 0.171371 0)
(0.849251 0.139468 0)
(0.874193 0.147811 0)
(0.899813 0.155243 0)
(0.928174 0.159095 0)
(0.959435 0.162053 0)
(0.994689 0.162068 0)
(1.03386 0.159167 0)
(1.07705 0.153646 0)
(0.853703 0.112789 0)
(0.878542 0.119785 0)
(0.902836 0.128967 0)
(0.929352 0.135814 0)
(0.958391 0.140783 0)
(0.991096 0.142867 0)
(1.02743 0.142358 0)
(1.06754 0.13853 0)
(0.854734 0.0898593 0)
(0.882072 0.0930568 0)
(0.907257 0.0993212 0)
(0.933094 0.107768 0)
(0.960301 0.116185 0)
(0.990271 0.121468 0)
(1.02341 0.123404 0)
(1.06032 0.122179 0)
(0.851651 0.0727934 0)
(0.88235 0.0714782 0)
(0.911652 0.0740404 0)
(0.939083 0.0788305 0)
(0.965343 0.0865827 0)
(0.992988 0.0938091 0)
(1.02284 0.099625 0)
(1.05606 0.103066 0)
(0.844994 0.0594904 0)
(0.877059 0.0546431 0)
(0.909626 0.0512704 0)
(0.940861 0.0510586 0)
(0.96986 0.0546537 0)
(0.998346 0.0623909 0)
(1.02812 0.0708225 0)
(1.05969 0.0785229 0)
(0.835877 0.0486153 0)
(0.868122 0.0415418 0)
(0.902114 0.0343874 0)
(0.938292 0.0291212 0)
(0.974088 0.0299267 0)
(1.0059 0.0361393 0)
(1.03525 0.0449595 0)
(1.06533 0.0542749 0)
(0.828364 0.031518 0)
(0.860147 0.0234719 0)
(0.893987 0.0168928 0)
(0.930865 0.0130015 0)
(0.969632 0.0110543 0)
(1.00697 0.0134021 0)
(1.04125 0.0223394 0)
(1.07218 0.0314925 0)
(0.818436 0.00964422 0)
(0.852742 0.00719445 0)
(0.89212 0.00676898 0)
(0.933084 0.00783287 0)
(0.974736 0.00924358 0)
(1.01682 0.011382 0)
(1.0524 0.0129936 0)
(1.07932 0.0141823 0)
(1.55905 0.89677 0)
(2.12161 1.05589 0)
(2.28148 0.757408 0)
(2.27117 0.397334 0)
(2.26202 0.0355701 0)
(2.2376 -0.167434 0)
(2.08629 -0.212912 0)
(1.95774 -0.21708 0)
(1.87165 -0.167126 0)
(1.7848 -0.11385 0)
(1.64071 -0.080368 0)
(1.5846 -0.0411615 0)
(1.53397 -0.0113056 0)
(1.36041 0.000901568 0)
(1.30441 -7.55935e-05 0)
(1.27222 -0.000403797 0)
(1.24975 -0.000222949 0)
(1.24372 -0.00256251 0)
(1.25855 -0.00898342 0)
(1.28021 -0.0160209 0)
(1.29948 -0.0217644 0)
(1.31413 -0.024749 0)
(1.33003 -0.0244347 0)
(1.35015 -0.0232505 0)
(1.37642 -0.0202562 0)
(1.40083 -0.0177406 0)
(1.42225 -0.0143615 0)
(1.4389 -0.0072012 0)
(1.45572 0.00144674 0)
(1.47459 0.00858229 0)
(1.49422 0.0127829 0)
(1.51398 0.0140604 0)
(1.53494 0.0141243 0)
(1.55832 0.0136555 0)
(1.58673 0.0124489 0)
(1.62051 0.0101338 0)
(1.65097 0.00610581 0)
(1.67437 0.00131617 0)
(1.6956 -0.00343636 0)
(1.71606 -0.00807636 0)
(1.73453 -0.0117357 0)
(1.74945 -0.012351 0)
(1.75899 -0.00969163 0)
(1.76394 -0.00321294 0)
(1.76658 0.00581779 0)
(1.77067 0.0140248 0)
(1.78361 0.0167864 0)
(1.80565 0.0171878 0)
(1.83195 0.0175512 0)
(1.86598 0.0172443 0)
(1.89226 0.0150883 0)
(1.89601 0.0116078 0)
(1.86128 -0.0019551 0)
(1.76807 -0.0260459 0)
(1.65354 -0.0373669 0)
(1.48391 -0.0327191 0)
(1.49283 -0.0329296 0)
(1.52667 -0.0298821 0)
(1.53246 -0.0196897 0)
(1.51604 -0.00693096 0)
(1.51387 0.00456705 0)
(1.52314 0.0107613 0)
(1.5331 0.0147112 0)
(1.54964 0.0167902 0)
(1.57161 0.0161202 0)
(1.59623 0.0144427 0)
(1.62382 0.0114145 0)
(1.64926 0.005465 0)
(1.66601 -0.0025194 0)
(1.67916 -0.00955233 0)
(1.68995 -0.0143546 0)
(1.68668 -0.0169103 0)
(1.66572 -0.0136423 0)
(1.64948 -0.00662881 0)
(1.65 0.00285139 0)
(1.65689 0.00954225 0)
(1.66558 0.0120717 0)
(1.67749 0.0132964 0)
(1.69998 0.0127872 0)
(1.73163 0.011538 0)
(1.76287 0.010169 0)
(1.7831 0.00795272 0)
(1.79395 0.00445746 0)
(1.8032 -0.000321504 0)
(1.81346 -0.00465899 0)
(1.8185 -0.00897961 0)
(1.81152 -0.00959838 0)