/*--------------------------------*- C++ -*----------------------------------*\
  =========                 |
  \\      /  F ield         | OpenFOAM: The Open Source CFD Toolbox
   \\    /   O peration     | Website:  https://openfoam.org
    \\  /    A nd           | Version:  7
     \\/     M anipulation  |
\*---------------------------------------------------------------------------*/
FoamFile
{
    version     2.0;
    format      ascii;
    class       volScalarField;
    location    "3.9";
    object      rho;
}
// * * * * * * * * * * * * * * * * * * * * * * * * * * * * * * * * * * * * * //

dimensions      [1 -3 0 0 0 0 0];

internalField   nonuniform List<scalar> 
16192
(
2.69582
2.68368
2.67506
2.67324
2.67446
2.67976
2.68879
2.69522
2.69516
2.69093
2.68216
2.67122
2.66179
2.65289
2.64641
2.6439
2.64489
2.64759
2.6503
2.65148
2.64998
2.64559
2.63933
2.63265
2.62736
2.62505
2.62553
2.62123
2.60893
2.59484
2.58116
2.56943
2.55962
2.55109
2.54336
2.53654
2.53075
2.52643
2.52486
2.52701
2.52919
2.52603
2.51978
2.51197
2.50115
2.49075
2.48381
2.47948
2.47683
2.47665
2.47885
2.48219
2.48447
2.48517
2.4854
2.48583
2.48622
2.48547
2.48309
2.48001
2.47721
2.47647
2.47816
2.48005
2.47902
2.47753
2.47642
2.47633
2.47642
2.47553
2.47376
2.47087
2.4656
2.45666
2.44578
2.43528
2.42615
2.42093
2.4195
2.41962
2.42342
2.43195
2.44299
2.45274
2.45859
2.45525
2.44423
2.43089
2.4156
2.39975
2.38652
2.37706
2.37139
2.37027
2.37509
2.38706
2.39886
2.3983
2.39088
2.38228
2.37099
2.35253
2.32963
2.31351
2.30489
2.29929
2.29887
2.30667
2.31767
2.3223
2.32008
2.31504
2.30765
2.29401
2.27027
2.24775
2.23792
2.23364
2.23178
2.23538
2.24586
2.25796
2.26628
2.27112
2.27363
2.27294
2.26847
2.25842
2.24476
2.23142
2.22206
2.21703
2.21538
2.21842
2.22537
2.23237
2.23946
2.24711
2.25141
2.25082
2.24482
2.2317
2.2156
2.204
2.199
2.19804
2.1989
2.20189
2.20679
2.21077
2.21306
2.21301
2.20976
2.2083
2.20767
2.20741
2.20505
2.20101
2.19546
2.1891
2.18194
2.17412
2.16709
2.1616
2.15665
2.15321
2.1523
2.15499
2.16409
2.17717
2.18227
2.17741
2.17016
2.15938
2.14332
2.1249
2.11217
2.10652
2.1028
2.10085
2.10339
2.11477
2.12843
2.12943
2.12343
2.11468
2.09911
2.07878
2.06151
2.05257
2.04837
2.04525
2.04347
2.04374
2.04743
2.05329
2.05378
2.04996
2.04544
2.03821
2.02492
2.00651
1.99119
1.98453
1.98194
1.98037
1.9819
1.98913
1.9998
2.00428
2.00244
1.99871
1.99082
1.97274
1.95193
1.94226
1.94001
1.93937
1.94256
1.95359
1.97338
1.9951
2.00582
2.00716
2.00515
2.00126
1.993
1.97579
1.95017
1.9297
1.91951
1.91526
1.91378
1.91746
1.93022
1.94901
1.96808
1.98253
1.98946
1.98976
1.98558
1.97184
1.94626
1.91816
1.905
1.90219
1.90283
1.9106
1.92506
1.93743
1.9414
1.94111
1.93232
2.69768
2.69021
2.68201
2.67688
2.67584
2.67651
2.67869
2.68234
2.6864
2.68577
2.68111
2.67513
2.66819
2.66079
2.65473
2.65199
2.65307
2.65558
2.65682
2.65499
2.6502
2.64398
2.63783
2.63273
2.62915
2.6264
2.62215
2.61558
2.60797
2.59959
2.59094
2.5824
2.57309
2.56254
2.55138
2.54091
2.53234
2.52583
2.52258
2.52315
2.52406
2.52115
2.5162
2.51067
2.50496
2.49858
2.49187
2.48595
2.48137
2.47874
2.47847
2.4802
2.48177
2.48196
2.48155
2.48117
2.48113
2.48142
2.48223
2.48316
2.48422
2.48576
2.48738
2.48674
2.48381
2.48004
2.47604
2.47156
2.46686
2.46383
2.46302
2.46336
2.46287
2.46128
2.45826
2.45156
2.4419
2.43212
2.42641
2.42382
2.42263
2.42437
2.42943
2.43585
2.4395
2.44047
2.43893
2.43226
2.42252
2.41206
2.40091
2.39059
2.38257
2.37765
2.37763
2.38512
2.39507
2.39373
2.38528
2.37569
2.3641
2.35106
2.33818
2.32564
2.315
2.30782
2.3049
2.30907
2.31735
2.3193
2.31576
2.31067
2.30314
2.28847
2.26844
2.25451
2.24806
2.24385
2.24191
2.24429
2.25218
2.26223
2.26838
2.2689
2.26687
2.26346
2.25733
2.24846
2.23977
2.23582
2.23386
2.2318
2.23035
2.2313
2.23487
2.2382
2.23832
2.23629
2.23501
2.23423
2.23167
2.22631
2.2212
2.2181
2.21433
2.21117
2.20975
2.20957
2.20963
2.20891
2.20609
2.19969
2.19622
2.19696
2.19867
2.19991
2.20212
2.20503
2.20292
2.19716
2.19032
2.18218
2.17351
2.16628
2.16041
2.15545
2.15228
2.1525
2.15793
2.16798
2.17341
2.1709
2.16515
2.1587
2.15081
2.13916
2.12424
2.11239
2.10651
2.10318
2.103
2.10778
2.11591
2.12075
2.1169
2.11052
2.10307
2.09267
2.07706
2.06094
2.0526
2.04882
2.04612
2.04513
2.04622
2.04937
2.0504
2.04692
2.04239
2.03614
2.02741
2.01636
2.00314
1.99223
1.98788
1.98595
1.98608
1.98945
1.99374
1.99703
1.99642
1.99318
1.98753
1.97898
1.9676
1.95537
1.94905
1.94704
1.94857
1.95707
1.97145
1.98615
1.99609
1.99854
1.99735
1.99368
1.98496
1.96967
1.95421
1.94265
1.93474
1.9292
1.92617
1.92769
1.93786
1.95517
1.96726
1.97067
1.97174
1.97182
1.96826
1.95757
1.94075
1.92894
1.92085
1.91449
1.91253
1.9164
1.92645
1.93307
1.93555
1.9367
1.93087
2.6928
2.69236
2.69041
2.68644
2.68151
2.67663
2.67234
2.67052
2.67202
2.67398
2.67474
2.67453
2.67299
2.67021
2.66732
2.66623
2.66883
2.67413
2.67785
2.67511
2.66596
2.65516
2.64587
2.6394
2.63521
2.63164
2.62765
2.62269
2.61768
2.61299
2.608
2.60117
2.59256
2.58298
2.57274
2.56233
2.55208
2.5427
2.53489
2.52926
2.52434
2.51914
2.51461
2.51122
2.50829
2.50489
2.50138
2.49772
2.49422
2.49072
2.4882
2.48719
2.48655
2.48421
2.48126
2.47828
2.47646
2.47607
2.47753
2.48069
2.48558
2.49193
2.49686
2.49696
2.4938
2.4878
2.47851
2.46759
2.45836
2.45296
2.45036
2.44953
2.45214
2.4577
2.46199
2.46247
2.46028
2.45406
2.44451
2.4357
2.42986
2.42472
2.42173
2.42214
2.42599
2.43099
2.43429
2.43376
2.42966
2.42357
2.41662
2.40922
2.40229
2.39681
2.39372
2.39448
2.39836
2.39861
2.39132
2.38135
2.37009
2.3597
2.35065
2.34134
2.33294
2.32645
2.32252
2.32202
2.32316
2.32102
2.31643
2.30988
2.30064
2.28842
2.27412
2.26396
2.25847
2.25543
2.25512
2.25917
2.26669
2.27204
2.27167
2.26887
2.26367
2.25587
2.24694
2.23938
2.23585
2.23541
2.23779
2.24209
2.24767
2.25177
2.25126
2.24636
2.23859
2.2304
2.22225
2.21486
2.21091
2.21192
2.217
2.222
2.22609
2.22887
2.22862
2.22429
2.21673
2.20857
2.1998
2.18984
2.18416
2.18283
2.18443
2.18985
2.19759
2.20568
2.20887
2.20524
2.19968
2.19256
2.18363
2.17503
2.16899
2.16403
2.15994
2.15747
2.15742
2.16159
2.169
2.16975
2.16504
2.16006
2.15514
2.14873
2.13929
2.12784
2.11897
2.11335
2.10893
2.10539
2.1059
2.11112
2.11467
2.11194
2.10806
2.10353
2.09532
2.08103
2.06536
2.05786
2.05389
2.05049
2.04818
2.04859
2.05017
2.04675
2.04201
2.0363
2.03066
2.02508
2.0175
2.00744
2.00107
1.99825
1.99606
1.99408
1.99298
1.99425
1.9935
1.9902
1.98621
1.98295
1.97885
1.97159
1.96558
1.96342
1.96331
1.96583
1.97117
1.98001
1.98837
1.99064
1.98848
1.98363
1.97621
1.96726
1.95842
1.95134
1.94624
1.94303
1.94206
1.94565
1.95498
1.96484
1.96663
1.96501
1.96099
1.95409
1.94496
1.93599
1.9321
1.93167
1.93103
1.92952
1.92864
1.92959
1.93148
1.9318
1.9303
1.92893
1.92344
2.69206
2.69175
2.6903
2.68764
2.68393
2.67963
2.67534
2.67205
2.6706
2.67046
2.67134
2.67328
2.67605
2.67839
2.67934
2.68008
2.68314
2.68984
2.69757
2.70055
2.69442
2.68326
2.67046
2.65874
2.64947
2.64252
2.63912
2.63969
2.64286
2.64354
2.63829
2.62887
2.61711
2.60488
2.59381
2.58458
2.57672
2.56919
2.56288
2.5569
2.54895
2.54006
2.53162
2.52464
2.51884
2.51386
2.5101
2.50763
2.50596
2.50395
2.5013
2.49926
2.49721
2.49373
2.48934
2.48459
2.48132
2.47954
2.47896
2.48064
2.48611
2.49419
2.49963
2.50014
2.49791
2.4933
2.4843
2.4716
2.45853
2.44912
2.44447
2.44272
2.44564
2.45249
2.4596
2.46457
2.46559
2.46344
2.45695
2.44758
2.43856
2.42979
2.42157
2.41631
2.41766
2.42451
2.43142
2.43555
2.43667
2.43536
2.43244
2.42821
2.42296
2.4174
2.41195
2.40689
2.40299
2.40173
2.39893
2.3921
2.38528
2.37911
2.37241
2.36535
2.35885
2.35339
2.34904
2.34403
2.33716
2.33012
2.32265
2.31444
2.30558
2.29735
2.29145
2.28545
2.27938
2.2761
2.27586
2.27919
2.28349
2.28331
2.2799
2.27483
2.26662
2.25478
2.24339
2.23742
2.23542
2.23572
2.23996
2.24832
2.25868
2.26433
2.26298
2.25826
2.24856
2.23296
2.21565
2.20419
2.19975
2.19978
2.20484
2.21643
2.22951
2.23781
2.23948
2.23782
2.23172
2.21995
2.20243
2.18411
2.17396
2.17058
2.17005
2.17439
2.18531
2.19945
2.21008
2.21202
2.20845
2.20287
2.19505
2.1852
2.17691
2.17155
2.1669
2.16274
2.16013
2.16179
2.16949
2.17324
2.16957
2.16513
2.16046
2.15562
2.14948
2.14069
2.13122
2.12369
2.11718
2.11128
2.10672
2.1078
2.11431
2.11785
2.11698
2.11455
2.11088
2.10186
2.08449
2.06952
2.06305
2.05869
2.05525
2.05427
2.05754
2.05896
2.05526
2.05071
2.046
2.04071
2.03386
2.02422
2.01534
2.01163
2.00888
2.00635
2.0042
2.00313
2.00124
1.99764
1.99422
1.99178
1.98984
1.98726
1.98378
1.98164
1.98015
1.97879
1.97742
1.9774
1.98212
1.98404
1.98164
1.97763
1.97265
1.96764
1.96388
1.9617
1.96037
1.96087
1.96469
1.97096
1.97323
1.96962
1.96443
1.95789
1.94832
1.93575
1.92648
1.92233
1.92269
1.9276
1.93393
1.94008
1.94533
1.94576
1.94157
1.93486
1.92822
1.92384
1.91803
2.69706
2.69332
2.68902
2.68511
2.68201
2.6802
2.67946
2.67925
2.67834
2.67639
2.67512
2.67652
2.68127
2.68786
2.69408
2.69844
2.7021
2.70746
2.71538
2.72216
2.72131
2.71457
2.70377
2.68867
2.67364
2.66453
2.65969
2.66273
2.67316
2.6786
2.67406
2.66589
2.65338
2.63777
2.62352
2.61324
2.60556
2.59954
2.59631
2.59235
2.5852
2.57653
2.56675
2.55666
2.54683
2.53764
2.53086
2.52592
2.52275
2.52142
2.52004
2.51708
2.51271
2.50803
2.50242
2.496
2.49157
2.48917
2.48753
2.4878
2.49126
2.49599
2.49829
2.49747
2.49498
2.49103
2.48502
2.47672
2.46748
2.45903
2.45294
2.4499
2.44921
2.45056
2.45446
2.45913
2.46199
2.46113
2.45743
2.45234
2.44692
2.44116
2.43457
2.42878
2.42669
2.42957
2.43498
2.4402
2.44395
2.446
2.4464
2.4451
2.44191
2.43698
2.43087
2.42413
2.4179
2.41433
2.41263
2.40899
2.40447
2.4002
2.39619
2.39239
2.38885
2.38517
2.37975
2.37169
2.36088
2.34825
2.33525
2.3239
2.31669
2.31356
2.31264
2.31111
2.30863
2.30662
2.30562
2.30424
2.30042
2.29568
2.28987
2.28272
2.27385
2.26398
2.25625
2.25166
2.24825
2.24658
2.24745
2.252
2.25949
2.26458
2.26491
2.26218
2.25676
2.24511
2.22688
2.20951
2.20061
2.19789
2.19885
2.2057
2.21768
2.22938
2.2358
2.23763
2.23642
2.23009
2.21631
2.19735
2.18121
2.17225
2.16786
2.16668
2.17165
2.1843
2.20094
2.21174
2.21309
2.20991
2.20495
2.19717
2.18733
2.17878
2.17295
2.16821
2.16474
2.16662
2.17647
2.18298
2.18081
2.17701
2.17239
2.16649
2.15837
2.14793
2.13832
2.13173
2.12658
2.12168
2.11837
2.11923
2.12545
2.13022
2.13042
2.12869
2.12589
2.11878
2.10238
2.08372
2.07391
2.06874
2.06487
2.06296
2.06724
2.07477
2.07673
2.07537
2.07265
2.06746
2.05762
2.04165
2.02844
2.02373
2.02089
2.01931
2.01968
2.02302
2.02652
2.02495
2.02185
2.01784
2.01246
2.00557
2.00007
1.9971
1.99487
1.99294
1.99067
1.9889
1.98829
1.98542
1.98138
1.97635
1.97224
1.97023
1.96943
1.96953
1.97179
1.97711
1.98443
1.98818
1.98571
1.98015
1.97051
1.95536
1.93972
1.92761
1.9199
1.91795
1.91778
1.92018
1.92834
1.94208
1.95243
1.95433
1.95217
1.94644
1.936
1.92377
1.91577
2.70972
2.70404
2.69725
2.69021
2.6849
2.68313
2.68613
2.69193
2.69421
2.69083
2.6863
2.68424
2.6864
2.69332
2.70317
2.71252
2.71958
2.72551
2.7323
2.73846
2.73931
2.73572
2.72921
2.71778
2.70345
2.69288
2.6883
2.69099
2.69964
2.70323
2.69948
2.69297
2.6821
2.66773
2.65532
2.64703
2.6409
2.63797
2.63794
2.63419
2.62683
2.61821
2.60785
2.59542
2.58139
2.56767
2.55779
2.55142
2.5474
2.54739
2.55053
2.54919
2.54373
2.53733
2.52952
2.51987
2.51065
2.50549
2.50269
2.50174
2.50238
2.50269
2.50075
2.49704
2.49262
2.48838
2.48497
2.48226
2.47957
2.47621
2.47169
2.46679
2.4622
2.45834
2.45497
2.45408
2.45478
2.45403
2.45178
2.44999
2.45026
2.4523
2.45341
2.45139
2.449
2.4477
2.4476
2.44853
2.45016
2.45173
2.45264
2.45268
2.45174
2.4495
2.4459
2.44158
2.43772
2.43575
2.43458
2.43103
2.42659
2.42225
2.41872
2.4158
2.41293
2.40984
2.4051
2.39831
2.38877
2.37649
2.36261
2.35024
2.34267
2.33922
2.33776
2.33791
2.33897
2.33997
2.33843
2.33355
2.32621
2.31659
2.30579
2.2947
2.28448
2.27794
2.27465
2.27226
2.27068
2.26926
2.2675
2.2659
2.26437
2.26334
2.26283
2.26102
2.25761
2.25239
2.24416
2.23314
2.22116
2.21127
2.20601
2.20419
2.20601
2.21177
2.22031
2.22661
2.22867
2.22721
2.22259
2.21357
2.20104
2.18879
2.17993
2.17475
2.1716
2.17473
2.18623
2.20091
2.21026
2.21153
2.20892
2.20414
2.19627
2.18746
2.1808
2.17639
2.17381
2.1766
2.18664
2.19408
2.19316
2.18994
2.18531
2.17756
2.16552
2.15253
2.14429
2.13993
2.1365
2.13463
2.13594
2.14084
2.1463
2.14721
2.14493
2.14234
2.13849
2.13024
2.11524
2.09953
2.09048
2.08568
2.08259
2.08204
2.08762
2.09711
2.10246
2.10307
2.10144
2.09751
2.08582
2.0644
2.04835
2.04199
2.03841
2.03662
2.03923
2.04925
2.05984
2.06173
2.0595
2.05547
2.0468
2.03203
2.02089
2.0159
2.01216
2.00915
2.00697
2.00617
2.00588
2.00216
1.99757
1.99252
1.98714
1.98275
1.98062
1.98028
1.98287
1.98903
1.99479
1.9956
1.99289
1.98859
1.98034
1.96551
1.94585
1.92944
1.92185
1.91925
1.9179
1.91885
1.92541
1.93687
1.948
1.95428
1.95549
1.95387
1.94918
1.93988
1.92386
2.7226
2.71869
2.71375
2.70737
2.70108
2.69755
2.70016
2.70776
2.71227
2.70985
2.70487
2.7009
2.70009
2.70363
2.71197
2.72264
2.73213
2.73935
2.7452
2.74904
2.74867
2.74671
2.74361
2.73874
2.73254
2.72704
2.72396
2.72388
2.72428
2.72123
2.71637
2.70937
2.69981
2.68961
2.68212
2.67671
2.67328
2.67297
2.67389
2.67167
2.66609
2.65898
2.65001
2.63745
2.62031
2.60184
2.58824
2.5801
2.57448
2.57345
2.57819
2.58139
2.57808
2.57236
2.56531
2.5558
2.54424
2.53409
2.52776
2.5231
2.51873
2.51433
2.51
2.50583
2.50146
2.49742
2.49482
2.49374
2.49327
2.49198
2.48905
2.48482
2.4796
2.47359
2.46764
2.46195
2.45718
2.45366
2.45128
2.45075
2.45347
2.46026
2.46843
2.4728
2.47279
2.47114
2.46797
2.46388
2.46012
2.45735
2.45548
2.45467
2.45443
2.45475
2.45561
2.45681
2.45855
2.4605
2.45976
2.45606
2.45099
2.44487
2.43816
2.43175
2.42693
2.42318
2.41969
2.4155
2.41046
2.40405
2.39621
2.38797
2.37992
2.37298
2.36876
2.36641
2.36509
2.36487
2.36369
2.35994
2.35395
2.34594
2.33627
2.32576
2.31536
2.30634
2.30026
2.29632
2.29352
2.29246
2.29234
2.28994
2.28454
2.27851
2.2723
2.26641
2.2616
2.25782
2.25403
2.24915
2.24257
2.23482
2.22593
2.21777
2.21204
2.20832
2.21015
2.2139
2.21663
2.21881
2.21911
2.21728
2.21305
2.20692
2.19976
2.19251
2.18688
2.1832
2.18306
2.19123
2.20212
2.20888
2.20962
2.20731
2.20328
2.19827
2.19419
2.19145
2.19069
2.19369
2.2008
2.20654
2.20582
2.20273
2.19758
2.18766
2.17292
2.16063
2.15531
2.15267
2.1517
2.15449
2.16183
2.16871
2.16931
2.16613
2.16144
2.15466
2.14555
2.13403
2.12174
2.11262
2.10793
2.10548
2.10493
2.10834
2.116
2.12353
2.12737
2.128
2.1264
2.12124
2.10686
2.08634
2.07409
2.06913
2.06639
2.06543
2.07057
2.08373
2.09648
2.09986
2.09769
2.09303
2.08193
2.06526
2.05305
2.04564
2.03956
2.03427
2.02995
2.02811
2.02915
2.02668
2.0224
2.01848
2.01421
2.00892
2.00393
2.00132
2.00072
2.00138
2.00137
1.99988
1.99716
1.99294
1.98665
1.97737
1.96507
1.951
1.9382
1.93124
1.92914
1.92937
1.93172
1.93517
1.9403
1.94742
1.95328
1.95484
1.9538
1.95162
1.93911
2.74445
2.7389
2.7357
2.7332
2.73007
2.72749
2.72797
2.73126
2.73351
2.73189
2.72804
2.72389
2.72185
2.72249
2.72585
2.73244
2.74013
2.74765
2.75346
2.75513
2.75477
2.7528
2.75151
2.75173
2.7532
2.75537
2.7556
2.75049
2.74089
2.73038
2.7215
2.71375
2.70716
2.70272
2.69968
2.69832
2.6984
2.69894
2.69858
2.69699
2.69391
2.68843
2.68113
2.67078
2.65535
2.63728
2.62265
2.61302
2.60645
2.60321
2.60472
2.60845
2.60934
2.60531
2.59895
2.59114
2.58089
2.56931
2.55829
2.54846
2.53966
2.53207
2.52595
2.52194
2.51964
2.51785
2.51622
2.51461
2.51266
2.50943
2.50528
2.50119
2.49707
2.4923
2.4866
2.48023
2.47392
2.46841
2.46434
2.46258
2.46404
2.47
2.47947
2.48741
2.49072
2.49054
2.48817
2.48298
2.47584
2.46835
2.46228
2.45911
2.45792
2.45897
2.46304
2.46961
2.47701
2.48149
2.48079
2.47735
2.47128
2.46195
2.45057
2.44049
2.43407
2.43003
2.42745
2.42702
2.42747
2.42691
2.42555
2.42304
2.41801
2.4098
2.39994
2.39154
2.38625
2.38251
2.38012
2.3787
2.37595
2.37201
2.36772
2.36267
2.35563
2.34554
2.33461
2.32671
2.32106
2.31652
2.31482
2.3152
2.31195
2.30616
2.29947
2.29174
2.28359
2.27558
2.26793
2.26075
2.25591
2.25142
2.24613
2.23933
2.2317
2.22559
2.22125
2.21689
2.21391
2.21356
2.21456
2.2148
2.21417
2.21353
2.21281
2.21092
2.20711
2.20169
2.19781
2.19577
2.19836
2.20471
2.20903
2.21006
2.20982
2.20934
2.20895
2.20909
2.21014
2.21208
2.21465
2.21727
2.21629
2.21309
2.20745
2.19725
2.18397
2.17491
2.17132
2.17024
2.17226
2.17874
2.18725
2.19069
2.18847
2.18461
2.1782
2.16691
2.15151
2.13721
2.12908
2.1264
2.12543
2.12669
2.13152
2.13911
2.14561
2.14839
2.1483
2.14667
2.14264
2.13341
2.11854
2.10508
2.09879
2.09653
2.09603
2.09925
2.10775
2.11845
2.12739
2.13095
2.12875
2.12235
2.11098
2.099
2.09056
2.08354
2.07664
2.07056
2.066
2.06287
2.06317
2.0632
2.05923
2.05516
2.05104
2.0462
2.03994
2.03207
2.02416
2.01798
2.01298
2.00855
2.00436
2.00007
1.99566
1.99152
1.98736
1.98019
1.96749
1.95376
1.94792
1.94654
1.94532
1.94397
1.94354
1.94636
1.95153
1.95531
1.9564
1.95614
1.94792
2.77724
2.76731
2.76095
2.75955
2.7618
2.76354
2.76307
2.76128
2.75875
2.75555
2.75219
2.74927
2.74769
2.74681
2.74505
2.74505
2.74753
2.75231
2.75765
2.75972
2.76057
2.75976
2.75915
2.76129
2.76538
2.76972
2.76978
2.76561
2.75571
2.74166
2.72854
2.72033
2.71647
2.71511
2.71564
2.71678
2.71717
2.71623
2.71447
2.71254
2.70991
2.70521
2.69864
2.69021
2.6793
2.66681
2.65507
2.64542
2.63829
2.6337
2.6315
2.63161
2.63326
2.63302
2.62832
2.62132
2.61259
2.60163
2.58944
2.57787
2.56781
2.55944
2.55283
2.54916
2.54789
2.54612
2.54312
2.53909
2.53389
2.52781
2.52179
2.51706
2.51351
2.51081
2.5085
2.50558
2.50073
2.49552
2.49018
2.48561
2.48317
2.48438
2.48962
2.49631
2.50125
2.50326
2.50268
2.50034
2.49558
2.48867
2.48045
2.47303
2.46949
2.46964
2.47337
2.4803
2.48803
2.49264
2.49236
2.48924
2.483
2.47225
2.45953
2.44914
2.44234
2.43846
2.43745
2.43964
2.44298
2.44577
2.44726
2.4466
2.44373
2.43613
2.42405
2.41229
2.40419
2.39929
2.39616
2.39551
2.39694
2.39801
2.39749
2.39518
2.3908
2.38205
2.37054
2.36115
2.354
2.34807
2.34452
2.34557
2.34498
2.33985
2.33394
2.32707
2.31792
2.3056
2.29205
2.28219
2.27564
2.27042
2.26702
2.26432
2.2614
2.25704
2.24985
2.24082
2.23169
2.22489
2.22035
2.21698
2.21523
2.21597
2.21953
2.22435
2.22676
2.22505
2.22162
2.2174
2.21503
2.21399
2.21511
2.21795
2.22072
2.2231
2.22525
2.22731
2.22881
2.22906
2.22839
2.22783
2.2264
2.22338
2.21853
2.21137
2.20399
2.19897
2.19654
2.19667
2.19935
2.20334
2.20554
2.20485
2.2022
2.19773
2.19043
2.17868
2.16297
2.14947
2.14395
2.14284
2.14454
2.15037
2.15905
2.16596
2.16795
2.1665
2.16342
2.15742
2.14823
2.13738
2.12852
2.1249
2.12401
2.12495
2.12891
2.13561
2.1421
2.14577
2.14763
2.14876
2.14704
2.14203
2.13567
2.13089
2.12708
2.12253
2.11667
2.11061
2.10599
2.10252
2.10097
2.10206
2.1013
2.09815
2.09445
2.08969
2.08243
2.07002
2.05412
2.04129
2.03319
2.02734
2.02276
2.01979
2.01864
2.01915
2.01865
2.01576
2.00874
1.99464
1.97697
1.96619
1.96218
1.95948
1.95783
1.95797
1.95936
1.96093
1.96126
1.96075
1.95293
2.80674
2.79587
2.78897
2.78901
2.79543
2.79961
2.79593
2.78923
2.7821
2.77662
2.77405
2.77316
2.77282
2.77207
2.76738
2.75957
2.75687
2.7582
2.76143
2.76494
2.76736
2.76856
2.76763
2.76723
2.76804
2.76916
2.76937
2.768
2.76439
2.75705
2.74779
2.74001
2.73478
2.73161
2.72923
2.72656
2.72356
2.7208
2.71888
2.71748
2.71502
2.7105
2.70502
2.69962
2.69444
2.68927
2.68409
2.67781
2.67065
2.66359
2.65752
2.6527
2.64994
2.64907
2.64669
2.64104
2.63357
2.62489
2.61516
2.60593
2.59778
2.59072
2.58572
2.58361
2.58167
2.57667
2.56995
2.56287
2.55451
2.54519
2.53783
2.53263
2.53
2.53093
2.53447
2.53617
2.5334
2.52885
2.52321
2.51556
2.50811
2.50388
2.50267
2.50386
2.50687
2.51079
2.51455
2.51656
2.51592
2.51358
2.50873
2.50129
2.49304
2.48839
2.48748
2.48841
2.49121
2.49392
2.49462
2.49217
2.48704
2.47913
2.47086
2.46482
2.46053
2.4582
2.45777
2.45826
2.45875
2.45862
2.45756
2.45537
2.45136
2.44497
2.43671
2.42848
2.4218
2.41732
2.41507
2.41541
2.41814
2.42071
2.42104
2.41894
2.41427
2.40714
2.40046
2.39467
2.38847
2.38302
2.37983
2.38035
2.38123
2.37745
2.37167
2.36487
2.35454
2.33936
2.32404
2.31366
2.30597
2.29931
2.29544
2.29552
2.29714
2.29462
2.28794
2.27954
2.2687
2.25563
2.24321
2.23458
2.22945
2.22745
2.22934
2.23583
2.24405
2.24919
2.24974
2.24859
2.24636
2.24246
2.23812
2.23627
2.23694
2.2385
2.24069
2.24295
2.2442
2.24356
2.24189
2.24051
2.23997
2.23824
2.23555
2.23299
2.23141
2.23007
2.22888
2.22756
2.22556
2.22273
2.21905
2.21527
2.21136
2.2064
2.19995
2.19184
2.18269
2.17454
2.16903
2.16726
2.16948
2.17539
2.18132
2.18311
2.18144
2.1778
2.17098
2.16084
2.15018
2.14369
2.14246
2.14365
2.14755
2.15288
2.15889
2.16323
2.16327
2.16099
2.15775
2.15551
2.155
2.15569
2.15674
2.1577
2.15803
2.15672
2.15411
2.15028
2.14629
2.14311
2.14093
2.14102
2.14276
2.14103
2.13691
2.13181
2.12374
2.10862
2.08846
2.0716
2.0614
2.05531
2.05113
2.04856
2.04909
2.05229
2.05391
2.05262
2.04941
2.04182
2.02517
2.00372
1.98872
1.98254
1.97935
1.97743
1.97651
1.97519
1.97261
1.97024
1.96198
2.83771
2.83083
2.82635
2.82399
2.82165
2.81771
2.81112
2.8032
2.79642
2.79273
2.79209
2.79322
2.79395
2.79296
2.78675
2.77665
2.76954
2.76727
2.76816
2.77115
2.77438
2.77594
2.77485
2.77004
2.76596
2.76488
2.76465
2.76618
2.76893
2.76993
2.76861
2.76462
2.75728
2.7473
2.7374
2.72998
2.72446
2.7202
2.71817
2.71799
2.71677
2.71336
2.70933
2.70624
2.70523
2.70643
2.70761
2.70511
2.69872
2.68996
2.6803
2.67188
2.66462
2.65965
2.65681
2.65355
2.64903
2.64354
2.63746
2.63145
2.62622
2.62232
2.62055
2.61906
2.61366
2.60552
2.59627
2.5857
2.57396
2.56352
2.55611
2.55059
2.54847
2.55204
2.55886
2.56271
2.5624
2.5592
2.55397
2.54592
2.53659
2.52843
2.5218
2.51769
2.51683
2.51918
2.52475
2.53171
2.53759
2.54008
2.53946
2.53616
2.52853
2.51637
2.50445
2.4978
2.49425
2.4922
2.49158
2.4909
2.48933
2.48721
2.48576
2.48675
2.4886
2.48857
2.48506
2.47848
2.47032
2.46298
2.45747
2.45259
2.448
2.44475
2.44296
2.44174
2.44137
2.44123
2.44123
2.44192
2.44209
2.44044
2.43751
2.43191
2.42599
2.4231
2.42233
2.42261
2.42196
2.41971
2.41768
2.41652
2.41528
2.41176
2.40594
2.39857
2.38754
2.37301
2.36013
2.35074
2.34312
2.33666
2.33304
2.33542
2.34083
2.33904
2.33217
2.32413
2.31394
2.29879
2.28054
2.2672
2.2596
2.25469
2.25277
2.25609
2.2655
2.2765
2.28387
2.28677
2.28684
2.28477
2.27856
2.26822
2.2595
2.25707
2.25684
2.25734
2.25809
2.25843
2.25848
2.2596
2.26251
2.2639
2.26416
2.2647
2.26492
2.26375
2.26038
2.2543
2.24629
2.23849
2.23174
2.22586
2.22098
2.21733
2.21401
2.21135
2.20941
2.20767
2.20477
2.20127
2.1993
2.19827
2.19618
2.19314
2.1885
2.18216
2.17416
2.1654
2.15977
2.15861
2.16028
2.16537
2.1713
2.17593
2.17733
2.17584
2.17201
2.16686
2.16291
2.16134
2.16253
2.1674
2.17349
2.17791
2.1806
2.1823
2.18336
2.18296
2.18089
2.17827
2.17609
2.17531
2.17651
2.17571
2.1716
2.1663
2.15767
2.14326
2.12557
2.11003
2.09956
2.09361
2.08987
2.08788
2.08825
2.08994
2.0905
2.08908
2.0861
2.08187
2.07337
2.05719
2.03695
2.02
2.01017
2.00507
2.00112
1.99728
1.99319
1.98946
1.98183
2.86842
2.86289
2.85331
2.84196
2.82908
2.81993
2.81587
2.81395
2.81189
2.8105
2.81017
2.80982
2.80814
2.80425
2.79825
2.7923
2.78709
2.78268
2.78041
2.78049
2.78131
2.7815
2.77985
2.77404
2.76729
2.76442
2.76369
2.7656
2.77126
2.77708
2.77991
2.7784
2.77334
2.76361
2.75136
2.74009
2.73154
2.72551
2.7217
2.72111
2.72107
2.71986
2.71793
2.71651
2.71704
2.71953
2.72182
2.72141
2.71718
2.71007
2.70093
2.69088
2.6821
2.67491
2.66958
2.66603
2.6629
2.65953
2.65602
2.65278
2.65045
2.64995
2.65075
2.64785
2.64057
2.63195
2.62147
2.60865
2.59577
2.58593
2.57884
2.57373
2.57273
2.57645
2.58069
2.58257
2.58278
2.58106
2.57697
2.57081
2.56367
2.55653
2.54917
2.54201
2.53762
2.53669
2.53887
2.54641
2.55686
2.56476
2.56706
2.56527
2.5601
2.54812
2.53062
2.51466
2.50376
2.49761
2.49411
2.49307
2.49518
2.49943
2.50545
2.51252
2.5168
2.51546
2.50985
2.49955
2.48515
2.47064
2.45915
2.45137
2.44707
2.44537
2.44722
2.45262
2.45962
2.4658
2.4684
2.46703
2.46369
2.45816
2.44965
2.44073
2.43593
2.43439
2.436
2.44165
2.4493
2.45444
2.4539
2.45004
2.44522
2.44012
2.43398
2.4263
2.41677
2.40647
2.39768
2.39033
2.3837
2.37819
2.37513
2.37713
2.38265
2.3826
2.37692
2.36951
2.36059
2.3469
2.32737
2.30989
2.29984
2.29358
2.28958
2.28892
2.29555
2.30976
2.32349
2.32997
2.33113
2.33013
2.32454
2.30903
2.28931
2.27949
2.27636
2.27471
2.27449
2.27645
2.28072
2.28726
2.29457
2.29934
2.30154
2.30169
2.29947
2.29446
2.28558
2.27348
2.26219
2.25384
2.24739
2.24213
2.23837
2.23612
2.2365
2.23914
2.24221
2.24407
2.24292
2.23856
2.23039
2.21933
2.20921
2.20116
2.19396
2.18705
2.18116
2.17801
2.17718
2.17939
2.18432
2.18893
2.19051
2.18927
2.18555
2.17949
2.17391
2.17027
2.16878
2.16933
2.1736
2.18171
2.18933
2.19408
2.19727
2.20023
2.20335
2.20627
2.20739
2.20621
2.20448
2.20288
2.20145
2.19944
2.19566
2.19027
2.18243
2.17207
2.16101
2.15073
2.14172
2.13531
2.13162
2.12963
2.12851
2.12723
2.12587
2.1245
2.122
2.11824
2.11333
2.10518
2.09109
2.07222
2.05369
2.03996
2.03108
2.02444
2.01875
2.01385
2.0092
2.87964
2.87384
2.86355
2.84878
2.83578
2.82802
2.82545
2.82787
2.82834
2.82525
2.82131
2.81652
2.81073
2.80538
2.80356
2.80361
2.80375
2.80276
2.7999
2.79545
2.79046
2.78627
2.78243
2.77766
2.77334
2.77141
2.77106
2.77279
2.77627
2.77939
2.78098
2.78006
2.77664
2.77106
2.76462
2.75737
2.74923
2.74213
2.73712
2.73399
2.73227
2.73169
2.73191
2.73216
2.73199
2.73129
2.7302
2.72903
2.72746
2.72448
2.71912
2.71227
2.70504
2.69791
2.69147
2.68599
2.68133
2.67738
2.67419
2.67214
2.67176
2.67321
2.67391
2.67029
2.66368
2.65588
2.64627
2.63449
2.62311
2.61417
2.60749
2.60349
2.60257
2.60249
2.60049
2.59785
2.59549
2.59357
2.59235
2.5911
2.58873
2.58591
2.5819
2.5763
2.57051
2.56692
2.5657
2.56775
2.57487
2.58376
2.58833
2.58722
2.58289
2.57401
2.55985
2.54297
2.52769
2.51728
2.51199
2.51016
2.51322
2.52119
2.53005
2.53577
2.53616
2.53263
2.52619
2.515
2.501
2.48694
2.47401
2.46434
2.45931
2.45823
2.46183
2.46881
2.47636
2.48272
2.48587
2.48459
2.48052
2.473
2.46272
2.45521
2.45194
2.45022
2.45167
2.45877
2.46933
2.47827
2.48031
2.4765
2.47095
2.46449
2.45768
2.45056
2.44343
2.43702
2.43162
2.42685
2.42269
2.41951
2.4178
2.41815
2.42002
2.42009
2.41619
2.40994
2.40197
2.39081
2.37467
2.35735
2.34597
2.33954
2.33526
2.33293
2.33681
2.35022
2.36515
2.3724
2.37319
2.37142
2.36498
2.34777
2.32374
2.30805
2.30229
2.29993
2.29897
2.30236
2.31246
2.32549
2.33508
2.33931
2.33975
2.3375
2.33096
2.31817
2.30177
2.28769
2.27862
2.27282
2.26864
2.26543
2.26373
2.26537
2.27025
2.27521
2.27864
2.27926
2.27666
2.27088
2.25865
2.24106
2.22547
2.21454
2.20677
2.20167
2.19891
2.19879
2.20233
2.20706
2.20966
2.20883
2.20532
2.19732
2.18788
2.18154
2.17818
2.17689
2.17757
2.18185
2.19075
2.20049
2.20609
2.20879
2.21078
2.21331
2.21677
2.22052
2.22343
2.2238
2.2221
2.21962
2.21639
2.21315
2.20968
2.2054
2.20046
2.19624
2.19252
2.18828
2.183
2.17675
2.17079
2.16606
2.16214
2.15846
2.15524
2.15317
2.15202
2.15008
2.14664
2.14199
2.13428
2.12128
2.10339
2.08361
2.0675
2.05719
2.05075
2.04613
2.04261
2.87776
2.87097
2.86445
2.85717
2.85027
2.84627
2.84565
2.84498
2.84038
2.83468
2.82743
2.81864
2.81067
2.8068
2.8065
2.80994
2.81611
2.82026
2.81979
2.81545
2.8067
2.79532
2.78655
2.78294
2.78149
2.78171
2.78403
2.78713
2.7884
2.78637
2.78283
2.77893
2.77578
2.77431
2.77427
2.77458
2.77315
2.76936
2.76429
2.75909
2.75466
2.75173
2.75122
2.7522
2.75085
2.7465
2.74157
2.73778
2.73609
2.73629
2.73698
2.73636
2.73318
2.72791
2.72125
2.7139
2.70712
2.70147
2.697
2.69458
2.69488
2.69573
2.6938
2.68971
2.68463
2.67827
2.67084
2.66279
2.65502
2.64854
2.64388
2.64032
2.6353
2.62877
2.62203
2.615
2.60907
2.60567
2.60574
2.6094
2.61391
2.61575
2.61462
2.6123
2.6083
2.60321
2.59946
2.59732
2.59655
2.59904
2.60251
2.60296
2.60007
2.59475
2.58713
2.57687
2.56461
2.55265
2.54457
2.54175
2.54361
2.54933
2.55361
2.55301
2.54945
2.54395
2.53602
2.52643
2.51722
2.50925
2.50155
2.49435
2.48927
2.48743
2.48844
2.49044
2.49149
2.49195
2.49282
2.49296
2.4903
2.48525
2.47925
2.47555
2.47344
2.47257
2.47431
2.47912
2.48505
2.49065
2.49463
2.49476
2.49128
2.48646
2.4816
2.47663
2.47129
2.4663
2.46243
2.45955
2.4577
2.45672
2.45577
2.45389
2.45128
2.44872
2.44516
2.43979
2.4331
2.42453
2.4133
2.40077
2.39138
2.38604
2.38261
2.38164
2.38615
2.39572
2.40391
2.4073
2.40661
2.4028
2.39415
2.37881
2.35965
2.34324
2.33466
2.33188
2.33151
2.33786
2.3532
2.3677
2.374
2.37462
2.37248
2.36749
2.35509
2.3345
2.31508
2.30444
2.29948
2.29649
2.29438
2.29448
2.29864
2.30534
2.3107
2.31322
2.3128
2.3099
2.30498
2.29511
2.2792
2.26159
2.2475
2.23769
2.2314
2.2278
2.22688
2.23015
2.23453
2.23517
2.23263
2.22751
2.21638
2.20267
2.19402
2.19012
2.18827
2.18818
2.19209
2.20157
2.21347
2.22077
2.22235
2.22235
2.22235
2.22323
2.22513
2.22767
2.23042
2.2321
2.23118
2.22923
2.22642
2.22295
2.21991
2.2177
2.21651
2.21743
2.2185
2.21782
2.21526
2.21059
2.20357
2.19541
2.18834
2.18321
2.17952
2.17649
2.17461
2.17362
2.17185
2.16841
2.16318
2.15528
2.14377
2.12821
2.11012
2.09441
2.08548
2.0808
2.07791
2.87921
2.87101
2.86713
2.86743
2.86998
2.87134
2.86809
2.86157
2.85404
2.84546
2.83642
2.82726
2.82035
2.81705
2.81607
2.81878
2.82503
2.83172
2.83464
2.83266
2.82669
2.81501
2.80295
2.79685
2.79471
2.79508
2.79794
2.80137
2.80254
2.80027
2.79556
2.79052
2.78673
2.78547
2.78781
2.79324
2.79864
2.8002
2.79685
2.7913
2.78556
2.78061
2.77739
2.77621
2.77377
2.76797
2.7618
2.75637
2.75305
2.7538
2.75814
2.76229
2.76318
2.76001
2.75453
2.74753
2.73942
2.73228
2.72706
2.72419
2.72356
2.72128
2.71623
2.71089
2.70575
2.70096
2.6965
2.69233
2.68901
2.68692
2.68414
2.67824
2.66983
2.65917
2.64771
2.6374
2.63
2.62569
2.62495
2.63036
2.63859
2.64445
2.64673
2.64604
2.64381
2.63969
2.63419
2.62876
2.62416
2.6206
2.61803
2.61668
2.61649
2.61656
2.61519
2.61226
2.60825
2.60228
2.59441
2.58688
2.58219
2.57876
2.57463
2.56904
2.56203
2.55463
2.54836
2.54403
2.54097
2.54021
2.5408
2.54
2.53676
2.53059
2.52234
2.5147
2.50859
2.50332
2.49964
2.4982
2.49896
2.50006
2.50012
2.4997
2.49955
2.50011
2.50122
2.50193
2.50171
2.50171
2.50292
2.50494
2.50636
2.50685
2.50633
2.50386
2.50005
2.49563
2.49178
2.48919
2.48756
2.48626
2.48416
2.48029
2.4756
2.47129
2.467
2.46195
2.45638
2.45039
2.444
2.43775
2.43284
2.42948
2.42784
2.42907
2.43375
2.43769
2.43683
2.43391
2.42923
2.4221
2.41304
2.40311
2.39312
2.38239
2.37376
2.37109
2.37321
2.3827
2.39622
2.40375
2.40377
2.40086
2.39553