/*--------------------------------*- C++ -*----------------------------------*\
  =========                 |
  \\      /  F ield         | OpenFOAM: The Open Source CFD Toolbox
   \\    /   O peration     | Website:  https://openfoam.org
    \\  /    A nd           | Version:  7
     \\/     M anipulation  |
\*---------------------------------------------------------------------------*/
FoamFile
{
    version     2.0;
    format      ascii;
    class       volScalarField;
    location    "4.8";
    object      T;
}
// * * * * * * * * * * * * * * * * * * * * * * * * * * * * * * * * * * * * * //

dimensions      [0 0 0 1 0 0 0];

internalField   nonuniform List<scalar> 
3328
(
3.69858
2.77724
2.61157
2.61661
2.61984
2.62437
2.62865
2.63161
2.6335
2.63486
2.63637
2.6407
2.6496
2.66392
2.6834
2.70812
2.73968
2.78054
2.83223
2.89252
2.95325
3.00185
3.02956
3.03907
3.69873
2.77799
2.61091
2.61512
2.61769
2.62166
2.62573
2.62888
2.63113
2.63313
2.63533
2.64018
2.64929
2.66362
2.68302
2.70762
2.73913
2.78002
2.83179
2.89199
2.95225
3
3.02676
3.03556
3.69854
2.77912
2.61003
2.61299
2.61474
2.6182
2.62239
2.62624
2.62917
2.63186
2.63499
2.64016
2.64921
2.66311
2.68192
2.70595
2.73707
2.77769
2.8293
2.88943
2.94958
2.99692
3.02299
3.03111
3.69851
2.78051
2.60948
2.6112
2.6118
2.61467
2.61932
2.62414
2.62794
2.63116
2.63483
2.64034
2.64924
2.66235
2.68014
2.70315
2.73343
2.77335
2.82446
2.88451
2.94497
2.99227
3.01774
3.02498
3.69861
2.7816
2.60919
2.61016
2.61014
2.61268
2.6177
2.62342
2.62792
2.63144
2.63529
2.64081
2.64927
2.66138
2.6778
2.69934
2.72812
2.76642
2.81589
2.87469
2.93516
2.98425
3.01152
3.02012
3.6993
2.78212
2.60953
2.6102
2.61
2.61214
2.61716
2.62338
2.62838
2.63212
2.63604
2.64142
2.64921
2.66011
2.67504
2.69475
2.72148
2.7574
2.80448
2.86159
2.92247
2.97491
3.00653
3.01653
3.70082
2.78272
2.61122
2.61195
2.61193
2.61397
2.61873
2.62473
2.62965
2.63333
2.6371
2.64209
2.6489
2.65861
2.672
2.6898
2.71422
2.74723
2.79078
2.84407
2.9026
2.95614
2.99587
3.01664
3.70308
2.78326
2.61425
2.61581
2.61645
2.61851
2.6227
2.62789
2.63215
2.63534
2.63864
2.64281
2.64832
2.65696
2.66891
2.68492
2.70691
2.73653
2.77546
2.82374
2.87967
2.93892
2.9906
3.03708
3.70586
2.78389
2.61822
2.62096
2.62232
2.62437
2.62773
2.63185
2.63531
2.63785
2.64038
2.64322
2.6477
2.65524
2.6659
2.68035
2.69993
2.72622
2.7605
2.80418
2.8549
2.91013
2.94491
2.97168
3.7088
2.78476
2.62265
2.62653
2.62825
2.63013
2.63282
2.63594
2.63822
2.63992
2.64144
2.64328
2.64704
2.6537
2.66321
2.67626
2.69352
2.71673
2.74649
2.78481
2.82851
2.87463
2.91767
2.94896
3.71157
2.78586
2.6269
2.63166
2.63363
2.63526
2.63687
2.63847
2.63956
2.64064
2.64161
2.64322
2.64655
2.65248
2.66092
2.67256
2.68764
2.70775
2.7334
2.76577
2.80345
2.84048
2.88089
2.91178
3.71389
2.7873
2.63031
2.63521
2.63707
2.63785
2.63822
2.63874
2.63946
2.64051
2.64162
2.64335
2.64643
2.65162
2.65894
2.66898
2.68196
2.69888
2.72064
2.74749
2.77943
2.81216
2.84632
2.87588
3.71558
2.78894
2.63242
2.6366
2.63782
2.63762
2.63759
2.6383
2.63938
2.64082
2.64231
2.64406
2.64668
2.65085
2.65687
2.66506
2.67588
2.68968
2.70745
2.72938
2.75571
2.78483
2.81296
2.84255
3.71664
2.79045
2.63299
2.6364
2.63737
2.63738
2.63756
2.63859
2.64013
2.64199
2.64377
2.64545
2.64712
2.64983
2.65418
2.66028
2.66874
2.67969
2.6938
2.71152
2.7331
2.75845
2.7843
2.81076
3.71728
2.79156
2.63305
2.63595
2.63709
2.63772
2.63839
2.63968
2.64157
2.64371
2.64554
2.64669
2.64717
2.64811
2.65038
2.65426
2.66039
2.66904
2.68052
2.69529
2.71333
2.73477
2.7586
2.78339
3.71788
2.79219
2.63339
2.63603
2.63769
2.6389
2.63998
2.64144
2.64335
2.64532
2.64669
2.64698
2.64629
2.64547
2.64564
2.64739
2.65158
2.65863
2.66866
2.68179
2.69782
2.71637
2.73696
2.7598
3.71875
2.79271
2.63424
2.63688
2.63932
2.64112
2.6424
2.64363
2.64483
2.6459
2.64636
2.64595
2.64449
2.6425
2.64138
2.6418
2.64438
2.65014
2.65927
2.67148
2.68624
2.70267
2.72078
2.74081
3.7198
2.79312
2.63567
2.63849
2.6417
2.64411
2.64521
2.64538
2.64511
2.64485
2.64449
2.64368
2.64235
2.64081
2.63981
2.63999
2.64164
2.64604
2.65345
2.66397
2.67719
2.69196
2.70784
2.725
3.72075
2.79295
2.63744
2.64055
2.64439
2.64689
2.64707
2.64584
2.64387
2.64229
2.64124
2.64069
2.64066
2.64108
2.64167
2.64241
2.64364
2.64648
2.65154
2.65917
2.66974
2.68223
2.69605
2.70991
3.7212
2.79233
2.63929
2.64244
2.64642
2.6486
2.64767
2.6452
2.64185
2.63919
2.63805
2.63836
2.63986
2.64249
2.64541
2.64743
2.64852
2.64976
2.65249
2.657
2.66383
2.67282
2.68365
2.69456
3.72118
2.79069
2.64055
2.64342
2.64714
2.64909
2.6477
2.64458
2.64082
2.63799
2.63706
2.63784
2.64032
2.64438
2.64914
2.65277
2.65465
2.65519
2.65541
2.65663
2.65961
2.66442
2.67097
2.67827
3.72101
2.78863
2.64031
2.64357
2.64676
2.64848
2.64747
2.64507
2.64209
2.63962
2.63903
2.63993
2.64231
2.64627
2.65106
2.65516
2.65769
2.6585
2.65792
2.65705
2.65699
2.65797
2.66046
2.6639
3.7208
2.78668
2.63958
2.64283
2.64533
2.6472
2.64736
2.64702
2.64618
2.64494
2.64439
2.64465
2.6459
2.64831
2.65142
2.65426
2.65634
2.65729
2.65693
2.65596
2.65468
2.6538
2.65383
2.65415
3.72058
2.78512
2.63788
2.641
2.64318
2.6458
2.64827
2.65072
2.65243
2.65306
2.65284
2.65195
2.65111
2.65096
2.65133
2.65205
2.65281
2.65323
2.65298
2.65255
2.65195
2.65114
2.64979
2.64829
3.72047
2.78413
2.63511
2.63906
2.64187
2.6455
2.64979
2.65477
2.65897
2.6612
2.66101
2.65966
2.6572
2.6545
2.65218
2.65057
2.6494
2.6488
2.6485
2.64852
2.64855
2.64843
2.64722
2.64496
3.72054
2.78386
2.63387
2.6388
2.64236
2.64632
2.6518
2.65834
2.66379
2.66694
2.66652
2.66501
2.66226
2.65856
2.65477
2.65175
2.64924
2.64769
2.64681
2.64626
2.64578
2.64546
2.64463
2.64265
3.72114
2.78451
2.63529
2.64041
2.64409
2.64812
2.65392
2.66038
2.66538
2.66814
2.66745
2.66598
2.66398
2.66161
2.65861
2.65538
2.65231
2.64999
2.64825
2.64658
2.64484
2.64319
2.64157
2.63946
3.72256
2.78619
2.63923
2.64421
2.64815
2.65222
2.6569
2.66145
2.6645
2.6659
2.66494
2.66334
2.6625
2.66253
2.66204
2.66019
2.65716
2.65413
2.65153
2.64888
2.64588
2.64247
2.63895
2.63561
3.72442
2.78969
2.64544
2.64919
2.65379
2.65867
2.66189
2.66334
2.66348
2.66265
2.66115
2.6599
2.66041
2.66229
2.66412
2.66429
2.66246
2.65929
2.65588
2.6523
2.64805
2.64319
2.63782
2.63253
3.7262
2.79272
2.65008
2.6537
2.65859
2.66401
2.66638
2.66594
2.66405
2.66163
2.65931
2.65835
2.65966
2.66278
2.66572
2.667
2.66644
2.66405
2.66027
2.65585
2.65083
2.64497
2.63838
2.63144
3.72706
2.79279
2.65157
2.6576
2.66207
2.66618
2.66778
2.66714
2.66497
2.66249
2.66094
2.66087
2.66236
2.66506
2.66755
2.66874
2.66847
2.6667
2.66325
2.65874
2.65342
2.6473
2.64027
2.63253
3.72684
2.79232
2.65237
2.65925
2.66245
2.66444
2.66564
2.66604
2.6656
2.66502
2.6655
2.66685
2.66847
2.66977
2.67028
2.66998
2.66914
2.6674
2.66437
2.6603
2.6552
2.64933
2.6426
2.63477
3.726
2.79299
2.6538
2.65839
2.66016
2.66079
2.66159
2.66296
2.66518
2.66825
2.6718
2.67487
2.67626
2.67593
2.67436
2.67182
2.66934
2.66699
2.66417
2.66056
2.65593
2.6505
2.64423
2.6369
3.72513
2.79544
2.65351
2.65695
2.65627
2.65634
2.65732
2.66033
2.66551
2.67181
2.6777
2.68185
2.68307
2.68206
2.67912
2.67479
2.67031
2.66657
2.6633
2.65989
2.65576
2.65075
2.64488
2.63806
3.72462
2.79885
2.65329
2.65594
2.65342
2.65305
2.65502
2.66014
2.66742
2.67529
2.68203
2.6862
2.68728
2.68621
2.68303
2.67794
2.67229
2.66717
2.6629
2.6591
2.65508
2.65042
2.64493
2.63843
3.72451
2.80322
2.65298
2.65413
2.65153
2.6523
2.65629
2.6626
2.67029
2.67797
2.68379
2.68708
2.68792
2.68722
2.68485
2.68054
2.67495
2.66914
2.66385
2.65904
2.65448
2.64971
2.64444
2.63824
3.72378
2.80425
2.64955
2.65109
2.65137
2.65511
2.66065
2.6668
2.67337
2.67935
2.68345
2.68558
2.68606
2.68576
2.68448
2.68188
2.67759
2.67212
2.66625
2.66033
2.65476
2.64935
2.64391
2.63785
3.72234
2.80025
2.6477
2.65083
2.65503
2.66148
2.66693
2.67169
2.67599
2.6795
2.68195
2.68277
2.68277
2.68297
2.68324
2.68264
2.68011
2.67539
2.66926
2.66247
2.6558
2.64952
2.64357
2.63734
3.72025
2.79265
2.64678
2.65261
2.66088
2.66846
2.67325
2.67625
2.67815
2.67944
2.67999
2.67941
2.67858
2.67895
2.68077
2.68202
2.68132
2.67783
2.67188
2.66468
2.65732
2.6503
2.6438
2.63715
3.71913
2.78621
2.6465
2.65569
2.6652
2.67274
2.67674
2.67835
2.67874
2.67865
2.67811
2.67722
2.67691
2.6779
2.68022
2.68215
2.68207
2.67911
2.6732
2.66578
2.65807
2.65064
2.64377
2.63689
2.88144
2.97139
3.01104
3.03644
3.05143
3.06372
3.071
3.07273
2.99193
3.03372
3.02898
3.03901
3.0499
3.06233
3.06849
3.07174
2.95429
2.99797
3.01165
3.02825
3.04169
3.0569
3.06514
3.07066
2.91372
2.95861
2.99072
3.01669
3.03453
3.0508
3.05965
3.06528
2.8735
2.91371
2.9506
2.98373
3.00982
3.03354
3.04986
3.06042
2.83913
2.87057
2.90575
2.94103
2.97604
3.01124
3.04215
3.05679
2.80988
2.83748
2.86656
2.89781
2.93137
2.97045
3.01345
3.04714
2.78425
2.80957
2.83478
2.85918
2.88524
2.92267
2.98455
3.0772
2.76249
2.78496
2.80671
2.82684
2.84329
2.85843
2.86048
2.81419
2.74393
2.76393
2.78275
2.79615
2.80129
2.79345
2.76468
2.6497
2.72516
2.74205
2.75867
2.76893
2.76649
2.74661
2.70087
2.57068
2.70633
2.71926
2.73275
2.7409
2.73624
2.71478
2.66443
2.55766
2.68639
2.6953
2.70493
2.7113
2.70715
2.6887
2.64484
2.56355
2.66776
2.67251
2.67773
2.68155
2.67803
2.66439
2.63256
2.57437
2.65444
2.65511
2.65534
2.65541
2.65156
2.64196
2.62005
2.57999
2.64631
2.64393
2.63996
2.63625
2.63017
2.62149
2.60576
2.57757
2.64148
2.63718
2.6309
2.62401
2.61496
2.60475
2.59162
2.57102
2.63868
2.63323
2.62574
2.6167
2.6056
2.59311
2.58017
2.56315
2.63564
2.63013
2.62234
2.61236
2.60055
2.58658
2.57287
2.55703
2.63145
2.6261
2.61893
2.60926
2.59787
2.5838
2.56964
2.55401
2.62719
2.62146
2.6148
2.60625
2.59598
2.5829
2.56893
2.5536
2.62464
2.61782
2.61099
2.60299
2.59391
2.58226
2.56909
2.55439
2.62455
2.61648
2.60871
2.60032
2.59156
2.58105
2.56884
2.55502
2.62629
2.61729
2.60834
2.59899
2.58959
2.57934
2.56783
2.55478
2.6286
2.61911
2.60931
2.59899
2.58859
2.57772
2.5663
2.55389
2.63028
2.6211
2.611
2.59995
2.58866
2.57692
2.56495
2.55258
2.63104
2.62238
2.61252
2.60134
2.58945
2.57708
2.56454
2.55184
2.6311
2.62278
2.6133
2.60245
2.59056
2.57796
2.56517
2.55224
2.63084
2.62261
2.61328
2.60283
2.59136
2.57908
2.56644
2.55358
2.63035
2.62223
2.61305
2.60288
2.59187
2.58009
2.56782
2.55522
2.62992
2.62171
2.6126
2.60266
2.59206
2.58076
2.56887
2.55654
2.62957
2.62141
2.61243
2.60271
2.59239
2.58138
2.56969
2.5575
2.06394
1.62596
1.5713
1.60554
1.731
1.93555
2.14099
2.2751
2.31726
2.36368
2.4275
2.49594
2.62463
2.74582
2.73598
2.72258
2.72608
2.74257
2.74718
2.7326
2.71093
2.69463
2.68472
2.68003
2.66331
2.64413
2.62544
2.61
2.59719
2.58408
2.56758
2.54835
2.52892
2.51357
2.50037
2.48798
2.47538
2.46084
2.44418
2.42924
2.4159
2.40256
2.38885
2.37468
2.35894
2.34249
2.32609
2.31172
2.29874
2.29467
2.30122
2.32657
2.38467
2.46381
2.56902
2.59617
2.57758
2.56308
2.5515
2.53965
2.52954
2.52186
2.51595
2.51152
2.50661
2.50123
2.4949
2.48794
2.48046
2.47409
2.46803
2.45979
2.45062
2.43962
2.42473
2.41213
2.40161
2.3893
2.37505
2.35956
2.34374
2.32797
2.31295
2.30075
2.29067
2.28222
2.27762
2.26479
2.25849
2.03719
1.91612
1.83078
1.81
1.82986
1.88367
1.96362
2.06607
2.17395
2.28034
2.3579
2.48936
2.65102
2.68145
2.67854
2.68751
2.70319
2.70889
2.69886
2.68214
2.66759
2.65679
2.65116
2.63756
2.62113
2.60321
2.58868
2.57689
2.5652
2.55103
2.53399
2.51509
2.50006
2.48784
2.47636
2.46481
2.45171
2.43589
2.41998
2.40585
2.39205
2.37773
2.36283
2.34676
2.33003
2.31437
2.30209
2.29714
2.30027
2.31155
2.33999
2.38679
2.44375
2.54271
2.57743
2.56297
2.55327
2.54643
2.53876
2.53027
2.52143
2.51399
2.50839
2.5036
2.49836
2.49207
2.48418
2.47558
2.46752
2.45929
2.45116
2.44312
2.43333
2.42177
2.41059
2.40018
2.38828
2.3749
2.36054
2.34581
2.33147
2.31734
2.30416
2.2935
2.28412
2.27774
2.26569
2.34111
2.17134
2.06605
1.97629
1.88115
1.81596
1.80122
1.83055
1.89628
1.97706
2.06798
2.16623
2.28788
2.47859
2.57785
2.60484
2.60974
2.61991
2.62191
2.61732
2.60789
2.59823
2.59028
2.58509
2.57514
2.56238
2.54646
2.5338
2.52448
2.51533
2.50497
2.49143
2.47512
2.46097
2.44944
2.43917
2.42939
2.41883
2.40606
2.39169
2.37765
2.36356
2.34883
2.33344
2.31748
2.3013
2.28605
2.27876
2.2804
2.2925
2.31328
2.33914
2.36513
2.39685
2.47819
2.54158
2.53896
2.531
2.524
2.51989
2.51485
2.5076
2.49773
2.48846
2.48238
2.47719
2.4732
2.46859
2.46287
2.45519
2.44485
2.43373
2.42329
2.41421
2.4061
2.39729
2.38705
2.37577
2.36344
2.35089
2.33809
2.32578
2.31447
2.30347
2.29387
2.28472
2.27661
2.26231
2.41383
2.28067
2.17484
2.09988
2.01766
1.9318
1.88369
1.872
1.87558
1.89196
1.92047
1.98844
2.0883
2.25919
2.45092
2.53619
2.54781
2.5417
2.53743
2.53625
2.53381
2.52946
2.5247
2.51706
2.50712
2.49394
2.48048
2.47015
2.46088
2.45158
2.4412
2.42892
2.4164
2.4053
2.39493
2.38489
2.3751
2.36507
2.35397
2.3419
2.3294
2.31627
2.3023
2.28777
2.27333
2.26008
2.25175
2.25238
2.26223
2.28531
2.30894
2.32526
2.33288
2.34381
2.38713
2.46794
2.49733
2.49331
2.48505
2.48235
2.48082
2.47674
2.46893
2.45853
2.45043
2.4441
2.43902
2.43524
2.43147
2.42732
2.42047
2.4097
2.398
2.38988
2.38314
2.37561
2.36686
2.35699
2.34657
2.33578
2.32507
2.31491
2.30546
2.29613
2.28712
2.27736
2.26851
2.25317
2.46752
2.37028
2.27529
2.19557
2.12837
2.06342
1.99478
1.95165
1.93325
1.92403
1.91915
1.92237
1.95558
2.06306
2.2902
2.46696
2.51602
2.51393
2.50465
2.49821
2.49418
2.48898
2.4796
2.46708
2.45634
2.44764
2.44012
2.43072
2.41907
2.40525
2.39128
2.37962
2.37033
2.36152
2.35205
2.34113
2.32877
2.31632
2.30479
2.29382
2.28267
2.27045
2.25731
2.24278
2.22898
2.21921
2.21947
2.22848
2.25163
2.28254
2.29578
2.30114
2.29778
2.2962
2.31175
2.36951
2.42934
2.45403
2.44933
2.44291
2.43965
2.43534
2.4294
2.42197
2.41432
2.40737
2.40016
2.39386
2.38911
2.38457
2.3785
2.37127
2.36413
2.35756
2.35115
2.34402
2.33624
2.32855
2.32105
2.31358
2.30631
2.29911
2.29168
2.28321
2.27418
2.26357
2.25469
2.24038
2.50714
2.43159
2.35806
2.28739
2.21866
2.16298
2.11192
2.05448
2.0206
2.00126
1.97728
1.95652
1.95576
1.97324
2.08179
2.33157
2.48929
2.51477
2.50574
2.49503
2.48517
2.47525
2.46217
2.4475
2.43592
2.42666
2.41735
2.40652
2.39183
2.37472
2.36119
2.3511
2.34205
2.33262
2.3219
2.30886
2.29378
2.28003
2.26899
2.25883
2.24747
2.23505
2.22141
2.20792
2.19631
2.19571
2.20352
2.22332
2.25466
2.2781
2.27897
2.27436
2.2677
2.2609
2.26345
2.28741
2.34524
2.39325
2.41584
2.4098
2.40288
2.39586
2.39077
2.38685
2.38182
2.37531
2.36736
2.35901
2.35115
2.34394
2.33847
2.33495
2.33187
2.32753
2.32156
2.31437
2.3071
2.30102
2.29553
2.29021
2.28509
2.27976
2.27353
2.26454
2.2547
2.24543
2.23833
2.22677
2.53198
2.47525
2.41437
2.35936
2.30147
2.24148
2.19787
2.15721
2.10869
2.07164
2.04796
2.02466
1.9991
1.99008
1.99897
2.10104
2.36264
2.50079
2.51136
2.5011
2.48585
2.47354
2.46106
2.44806
2.43396
2.4198
2.40664
2.39346
2.37845
2.36314
2.35133
2.34046
2.32904
2.3171
2.30431
2.28976
2.27453
2.26177
2.25114
2.24012
2.22728
2.21201
2.19686
2.1839
2.18238
2.19046
2.21111
2.24008
2.26512
2.27106
2.26346
2.25361
2.24756
2.24053
2.23716
2.24265
2.27397
2.32703
2.36605
2.38422
2.37998
2.37394
2.36764
2.36258
2.35749
2.35105
2.34191
2.33039
2.31854
2.30984
2.30632
2.30482
2.30321
2.30039
2.29583
2.29
2.28408
2.27883
2.27428
2.26997
2.26517
2.25922
2.25064
2.23997
2.23185
2.22619
2.22169
2.21326
2.54307
2.5018
2.45447
2.40813
2.36436
2.31296
2.26372
2.23041
2.19409
2.14929
2.11289
2.09414
2.07185
2.04381
2.01864
2.02587
2.13399
2.39155
2.52001
2.51553
2.48948
2.4769
2.46708
2.45527
2.44052
2.42445
2.4062
2.38869
2.37439
2.3624
2.35075
2.33689
2.32117
2.30585
2.29187
2.279
2.26747
2.25627
2.24368
2.22756
2.20699
2.18887
2.17879
2.17734
2.18445
2.20671
2.23794
2.26266
2.26702
2.2604
2.25206
2.24549
2.23987
2.23436
2.22797
2.2251
2.23146
2.26507
2.3152
2.34685
2.36296
2.36115
2.35644
2.34858
2.34033
2.33224
2.32212
2.30904
2.29644
2.2889
2.28619
2.28522
2.28435
2.28224
2.27867
2.27399
2.26851
2.26291
2.25797
2.25308
2.24621
2.23556
2.22381
2.21709
2.21278
2.21003
2.20742
2.20199
2.54503
2.51483
2.47891
2.44062
2.40573
2.36694
2.32236
2.28276
2.25439
2.22158
2.18304
2.1497
2.12668
2.10634
2.07752
2.04803
2.0561
2.17366
2.42014
2.49528
2.49155
2.48439
2.47487
2.46094
2.44548
2.42857
2.40926
2.39119
2.37607
2.36408
2.35154
2.33765
2.32154
2.30441
2.28959
2.27736
2.26659
2.2546
2.23725
2.21536
2.19658
2.18176
2.1784
2.18413
2.20565
2.23943
2.26331
2.26676
2.26251
2.25549
2.25098
2.24661
2.24183
2.23674
2.22965
2.22006
2.21808
2.22597
2.26188
2.30786
2.33689
2.34732
2.34463
2.33767
2.32806
2.31804
2.30781
2.2961
2.28599
2.28035
2.27729
2.2763
2.2751
2.27224
2.2681
2.26248
2.25557
2.24914
2.24322
2.23678
2.22816
2.21584
2.20581
2.20184
2.19929
2.19762
2.19515
2.1903
2.543
2.51935
2.4913
2.46115
2.43197
2.40144
2.36758
2.33037
2.29747
2.27192
2.24391
2.21208
2.17852
2.15574
2.13631
2.10283
2.07516
2.08488
2.2036
2.4068
2.48916
2.49463
2.48203
2.46769
2.44943
2.42956
2.41254
2.39716
2.38321
2.36868
2.35254
2.33563
2.31948
2.30551
2.29281
2.28055
2.26672
2.24911
2.22684
2.20481
2.1912
2.18548
2.19175
2.21239
2.24582
2.26916
2.27042
2.26635
2.26223
2.26052
2.25847
2.2546
2.24997
2.24251
2.23219
2.22075
2.21419
2.21598
2.22771
2.26289
2.30627
2.32712
2.32892
2.32535
2.3176
2.30803
2.29841
2.28962
2.28292
2.27837
2.27524
2.27274
2.26879
2.26298
2.25575
2.24821
2.24168
2.23602
2.23077
2.22464
2.21599
2.20448
2.19575
2.19276
2.19056
2.18878
2.18633
2.18273
2.53998
2.52038
2.49727
2.47255
2.44903
2.42427
2.39649
2.36736
2.3369
2.30882
2.28506
2.26191
2.23416
2.20081
2.17505
2.15242
2.12106
2.09979
2.11017
2.22312
2.40424
2.47398
2.48123
2.47142
2.45089
2.42898
2.41345
2.40138
2.38973
2.37412
2.35633
2.33597
2.31933
2.30677
2.29564
2.28299
2.26684
2.245
2.22004
2.2024
2.19564
2.20153
2.22269
2.25703
2.28085
2.28121
2.27351
2.2692
2.26909
2.27137
2.26875
2.2641
2.2561
2.24415
2.2342
2.22603
2.2186
2.21444
2.21388
2.2245
2.25591
2.29567
2.3118
2.31405
2.30924
2.30278
2.29516
2.28842
2.28237
2.27787
2.27437
2.26982
2.26318
2.25468
2.24491
2.23642
2.2306
2.22641
2.22241
2.21756
2.21001
2.19921
2.19113
2.18795
2.18524
2.18283
2.18101
2.17953
2.53818
2.52088
2.50087
2.47978
2.45992
2.43975
2.41559
2.39029
2.36617
2.34186
2.3166
2.29382
2.2729
2.24589
2.21501
2.18912
2.16454
2.13768
2.11893
2.13041
2.23839
2.3965
2.47351
2.47166
2.44938
2.42668
2.41153
2.39989
2.3901
2.37575
2.3581
2.33636
2.31942
2.30675
2.2952
2.28076
2.26289
2.23963
2.21838
2.20848
2.21269
2.23439
2.2697
2.2958
2.29728
2.28826
2.28043
2.27794
2.28155
2.2813
2.27576
2.26806
2.25654
2.24539
2.23872
2.23287
2.22597
2.21758
2.20752
2.20154
2.21129
2.24237
2.27895
2.29714
2.30033
2.29926
2.29574
2.28991
2.2841
2.27787
2.27222
2.26622
2.25878
2.24842
2.23635
2.22765
2.22267
2.21928
2.21638
2.21287
2.20678
2.19748
2.18947
2.18551
2.18297
2.17996
2.17948
2.1827
2.53804
2.52157
2.50359
2.48537
2.46768
2.44851
2.42777
2.4054
2.38407
2.36458
2.34391
2.31983
2.29556
2.27457
2.25084
2.22681
2.20115
2.17296
2.14539
2.12949
2.14055
2.242
2.39849
2.44838
2.43899
2.42362
2.40824
2.39728
2.38749
2.37326
2.35595
2.33415
2.3171
2.30472
2.29231
2.276
2.25616
2.23678
2.22329
2.22342
2.24219
2.27904
2.31058
2.31475
2.30786
2.29728
2.29135
2.2893
2.28831
2.28332
2.27692
2.26774
2.25702
2.25041
2.24452
2.23841
2.23106
2.21996
2.20446
2.1937
2.19294
2.20303
2.23198
2.26773
2.28973
2.29423
2.2916
2.28664
2.28
2.27278
2.2664
2.26093
2.25376
2.24267
2.23095
2.22363
2.21879
2.21487
2.21147
2.20767
2.20254
2.19553
2.18902
2.1847
2.18276
2.18137
2.18336
2.1969
2.53902
2.5226
2.50545
2.48901
2.47266
2.45455
2.43471
2.41554
2.39702
2.37866
2.3611
2.3414
2.31749
2.29255
2.27244
2.25439
2.23458
2.20874
2.17684
2.14253
2.13105
2.1453
2.24696
2.38233
2.42467
2.41842
2.40334
2.39099
2.37868
2.36484
2.34809
2.32794
2.31273
2.30114
2.28667
2.2678
2.2485
2.23481
2.23289
2.25013
2.28748
2.32222
2.33291
2.32865
2.31798
2.31007
2.30384
2.2995
2.29337
2.2863
2.2767
2.26561
2.25944
2.2554
2.24971
2.24296
2.23497
2.22281
2.20605
2.19426
2.19001
2.19057
2.2009
2.22943
2.26671
2.28428
2.28641
2.28337
2.27739
2.27012
2.26258
2.25586
2.24803
2.23726
2.22812
2.22213
2.21728
2.21272
2.20843
2.20431
2.19958
2.19444
2.19002
2.18759
2.18823
2.1907
2.19668
2.22435
2.54011
2.52389
2.50728
2.49139
2.47528
2.45808
2.43971
2.42251
2.40647
2.39012
2.37203
2.35365
2.33382
2.31206
2.291
2.27167
2.2548
2.2353
2.20822
2.17118
2.13508
2.13318
2.14892
2.24505
2.36079
2.39021
2.39129
2.38059
2.36616
2.35204
2.33548
2.3185
2.30668
2.29404
2.27728
2.25696
2.24263
2.24029
2.25335
2.29264
2.33221
2.34949
2.34799
2.33822
2.32849
2.32147
2.3156
2.30862
2.30002
2.28931
2.27611
2.2674
2.26226
2.25916
2.25421
2.24754
2.23973
2.22774
2.21235
2.20113
2.19442
2.1901
2.19083
2.20046
2.22726
2.25853
2.27485
2.2798
2.27674
2.27038
2.26208
2.25352
2.24365
2.23273
2.22645
2.22199
2.21748
2.21249
2.20747
2.20244
2.19689
2.1939
2.19448
2.19698
2.2028
2.21454
2.22898
2.25829
2.54054
2.52494
2.50892
2.49326
2.47709
2.46051
2.44413
2.42845
2.41368
2.39863
2.38207
2.36282
2.34344
2.32594
2.30855
2.29027
2.26995
2.2491
2.22637
2.19866
2.16298
2.13429
2.13288
2.14715
2.23462
2.32897
2.37218
2.36892
2.3543
2.33821
2.32089
2.30732
2.29674
2.28258
2.26357
2.24797
2.24297
2.25133
2.29169
2.337
2.36203
2.36465
2.35836
2.34633
2.33816
2.33198
2.32654
2.31756
2.30652
2.29272
2.28128
2.27446
2.26835
2.26382
2.25897
2.25245
2.24475
2.23481
2.22491
2.21692
2.20848
2.19924
2.18881
2.18642
2.19349
2.21821
2.24741
2.27033
2.27714
2.2743
2.26632
2.25405
2.24092
2.23265
2.22739
2.2232
2.21941
2.21433
2.20765
2.2001
2.19808
2.19935
2.20358
2.2158
2.2353
2.25804
2.27255
2.28554
2.54027
2.52541
2.5102
2.49495
2.47892
2.46293
2.44811
2.43402
2.41998
2.40543
2.38934
2.37189
2.35384
2.33666
2.32088
2.30447
2.28526
2.2626
2.23801
2.21324
2.18779
2.15585
2.13324
2.1237
2.13771
2.21488
2.30675
2.3455
2.3409
2.32612
2.30836
2.29517
2.28351
2.26714
2.2497
2.24325
2.24817
2.28573
2.34012
2.36913
2.37681
2.37364
2.36555
2.35604
2.34876
2.34206
2.33458
2.3245
2.31303
2.30204
2.29332
2.28597
2.2789
2.27247
2.26579
2.25852
2.25168
2.2462
2.24091
2.23323
2.22205
2.20787
2.19247
2.18237
2.18171
2.1904
2.21525
2.24683
2.27431
2.2779
2.272
2.25688
2.24343
2.23703
2.2319
2.22834
2.22411
2.21806
2.20932
2.20331
2.2041
2.207
2.21971
2.24607
2.274
2.29624
2.30465
2.30105
2.53947
2.52553
2.51131
2.49661
2.48093
2.46583
2.45221
2.43929
2.4261
2.41204
2.39648
2.3802
2.36425
2.34857
2.33214
2.31412
2.29469
2.27318
2.24997
2.22684
2.20348
2.17607
2.14491
2.12243
2.10934
2.12611
2.19998
2.29102
2.32128
2.31329
2.29623
2.28232
2.26767
2.24847
2.23904
2.24242
2.272
2.33871
2.37598
2.3838
2.38386
2.37943
2.37347
2.36678
2.35884
2.35014
2.34108
2.33203
2.32386
2.3165
2.30882
2.30059
2.2922
2.28369
2.27573
2.26906
2.26339
2.25783
2.25129
2.24303
2.23135
2.21695
2.20318
2.19215
2.1864
2.18635
2.19621
2.21971
2.25503
2.27455
2.27331
2.26174
2.25176
2.24582
2.24049
2.23519
2.22933
2.22226
2.21241
2.21134
2.2126
2.22332
2.24881
2.27576
2.29913
2.31283
2.31561
2.30868
2.5389
2.52567
2.51225
2.49819
2.48339
2.46945
2.45678
2.44438
2.43186
2.41849
2.40419
2.38941
2.37438
2.35894
2.34235
2.32374
2.30277
2.28055
2.2588
2.23808
2.21688
2.19262
2.16034
2.1267
2.10249
2.09505
2.11535
2.19057
2.27234
2.29091
2.28057
2.26679
2.24799
2.23105
2.23257
2.25215
2.32393
2.38309
2.39154
2.38814
2.38727
2.38474
2.38076
2.37552
2.36685
2.35701
2.34971
2.34325
2.33756
2.3314
2.32436
2.31632
2.30711
2.298
2.29011
2.28305
2.27614
2.26897
2.26108
2.25176
2.24087
2.22925
2.21793
2.20788
2.19918
2.19349
2.19442
2.20153
2.22259
2.25307
2.26388
2.26405
2.2619
2.25781
2.25077
2.24269
2.23454
2.22457
2.21948
2.22211
2.23351
2.2556
2.28248
2.29964
2.31007
2.31451
2.31451
2.30687
2.53924
2.52631
2.51329
2.49983
2.48602
2.47314
2.46153
2.44958
2.43769
2.42515
2.41212
2.39857
2.38416
2.36828
2.35061
2.33122
2.3105
2.28904
2.26749
2.2463
2.22521
2.20256
2.17462
2.13979
2.10644
2.08536
2.08094
2.10315
2.17945
2.2426
2.25793
2.24831
2.2275
2.22065
2.23185
2.29263
2.38204
2.40449
2.39742
2.39253
2.39018
2.38858
2.3863
2.38182
2.37284
2.36474
2.35997
2.35511
2.35016
2.34446
2.338
2.33052
2.32185
2.31332
2.30521
2.29676
2.2875
2.2778
2.26825
2.25937
2.25137
2.24358
2.23544
2.22636
2.21671
2.207
2.19656
2.19154
2.1967
2.21741
2.24277
2.25982
2.26775
2.26761
2.26036
2.24975
2.23802
2.22969
2.23417
2.24835
2.2688
2.29314
2.30964
2.31268
2.31072
2.31019
2.31162
2.30575
2.54063
2.52774
2.51471
2.50161
2.48876
2.47661
2.46573
2.4542
2.44262
2.43125
2.41942
2.40668
2.39252
2.3764
2.35815
2.33815
2.3174
2.2966
2.2757
2.25424
2.23169
2.20771
2.18157
2.15229
2.12014
2.0915
2.07159
2.06715
2.08771
2.15382
2.20634
2.22408
2.2139
2.21766
2.25889
2.36108
2.41202
2.40657
2.40117
2.39629
2.39367
2.39179
2.38984
2.38533
2.37713
2.3718
2.3685
2.36473
2.36001
2.35454
2.34837
2.34108
2.33296
2.32478
2.31631
2.30679
2.29585
2.28511
2.27634
2.26852
2.26134
2.25574
2.24889
2.24053
2.23077
2.21839
2.20326
2.19069
2.18793
2.19368
2.21542
2.24241
2.26521
2.26832
2.26411
2.25434
2.24432
2.24858
2.26454
2.28321
2.30411
2.31956
2.32036
2.31436
2.30876
2.30434
2.30423
2.29666
2.5424
2.5295
2.51642
2.50358
2.49111
2.47938
2.46913
2.45835
2.4477
2.43713
2.42621
2.41358
2.3993
2.38284
2.36427
2.34429
2.32386
2.30311
2.28183
2.25955
2.23607
2.21157
2.18652
2.16091
2.13325
2.10429
2.07673
2.05696
2.04465
2.06143
2.11775
2.17572
2.19448
2.22749
2.32597
2.40689
2.42347
2.41469
2.40753
2.40216
2.39842
2.39549
2.39146
2.38493
2.37915
2.37648
2.37442
2.37157
2.36724
2.36138
2.35426
2.34638
2.33871
2.33118
2.32316
2.31445
2.30465
2.29418
2.28491
2.27685
2.26877
2.2615
2.25464
2.24657
2.23779
2.22672
2.2118
2.19692
2.1896
2.1865
2.19326
2.21395
2.24116
2.26087
2.26299
2.26407
2.2695
2.28341
2.30166
2.31489
2.32565
2.32737
2.3241
2.31461
2.30579
2.29876
2.29389
2.28336
2.5439
2.53102
2.51804
2.50543
2.49291
2.48067
2.46995
2.46013
2.4506
2.44093
2.43029
2.41817
2.40408
2.38757
2.36904
2.34921
2.32868
2.30742
2.28535
2.26228
2.23837
2.21411
2.19049
2.16762
2.1437
2.1162
2.08481
2.05296
2.02744
2.01208
2.0355
2.10086
2.1704
2.26771
2.39334
2.42433
2.42244
2.41623
2.41107
2.40671
2.40285
2.39766
2.38951
2.38213
2.37933
2.37842
2.37748
2.37562
2.37176
2.3651
2.35602
2.34734
2.34052
2.33396
2.32693
2.31932
2.31115
2.3024
2.29263
2.2824
2.2731
2.26404
2.25595
2.24815
2.23981
2.23041
2.219
2.2071
2.19638
2.18778
2.18244
2.18726
2.20362
2.22995
2.25469
2.27909
2.30283
2.32231
2.33573
2.33612
2.33347
2.32746
2.32134
2.31271
2.30467
2.29618
2.28799
2.27444
2.54501
2.5322
2.51945
2.50695
2.49454
2.48307
2.47352
2.46372
2.45445
2.44476
2.4338
2.4216
2.40711
2.39049
2.3721
2.35239
2.33163
2.30977
2.28693
2.26327
2.23938
2.21596
2.19363
2.17214
2.14992
2.1245
2.09174
2.05514
2.01745
1.99274
1.99617
2.03381
2.1427
2.30732
2.44224
2.44046
2.43212
2.423
2.41704
2.4122
2.40728
2.399
2.38622
2.38024
2.37929
2.37872
2.37825
2.37708
2.37396
2.36662
2.35536
2.34687
2.34046
2.33382
2.32755
2.32142
2.3145
2.30613
2.29402
2.28221
2.27266
2.2634
2.25454
2.24659
2.23861
2.23077
2.22309
2.21454
2.20359
2.19023
2.17605
2.16846
2.17416
2.1966
2.24046
2.28791
2.32708
2.35215
2.35677
2.35539
2.34477
2.33083
2.32057
2.31239
2.3041
2.29288
2.2817
2.26771
)
;

boundaryField
{
    inlet
    {
        type            fixedValue;
        value           uniform 1;
    }
    outlet
    {
        type            inletOutlet;
        inletValue      uniform 1;
        value           nonuniform List<scalar> 
24
(
2.26451
2.26544
2.26208
2.25293
2.2403
2.22699
2.21376
2.20295
2.1907
2.18305
2.1799
2.18331
2.19748
2.22417
2.25684
2.28391
2.29972
2.30804
2.30708
2.30644
2.29734
2.28368
2.27421
2.26765
)
;
    }
    bottom
    {
        type            zeroGradient;
    }
    top
    {
        type            zeroGradient;
    }
    obstacle
    {
        type            zeroGradient;
    }
    defaultFaces
    {
        type            empty;
    }
}


// ************************************************************************* //
