/*--------------------------------*- C++ -*----------------------------------*\
  =========                 |
  \\      /  F ield         | OpenFOAM: The Open Source CFD Toolbox
   \\    /   O peration     | Website:  https://openfoam.org
    \\  /    A nd           | Version:  7
     \\/     M anipulation  |
\*---------------------------------------------------------------------------*/
FoamFile
{
    version     2.0;
    format      ascii;
    class       volVectorField;
    location    "0.2";
    object      U;
}
// * * * * * * * * * * * * * * * * * * * * * * * * * * * * * * * * * * * * * //

dimensions      [0 1 -1 0 0 0 0];

internalField   nonuniform List<vector> 
16512
(
(3 9.02486e-17 0)
(3 2.04724e-17 0)
(3 -3.89962e-17 0)
(3 -3.61065e-16 0)
(3 -2.51607e-16 0)
(3 -4.84112e-17 0)
(3 4.26949e-16 0)
(3 3.27504e-16 0)
(3 5.11327e-17 0)
(3 -1.48427e-16 0)
(3 -6.53203e-16 0)
(3 -1.61023e-15 0)
(3 -2.19306e-15 0)
(3 -2.39521e-15 0)
(3 -2.39993e-15 0)
(3 -2.10232e-15 0)
(3 -1.80123e-15 0)
(3 -1.18233e-15 0)
(3 -7.8754e-16 0)
(3 -1.61752e-16 0)
(3 -2.04245e-16 0)
(3 -3.94906e-16 0)
(3 -2.71141e-16 0)
(3 8.28348e-17 0)
(3 8.95105e-16 0)
(3 1.35528e-15 0)
(3 1.49392e-15 0)
(3 1.51945e-15 0)
(3 1.93027e-15 0)
(3 1.56042e-15 0)
(3 1.05762e-15 0)
(3 7.56624e-16 0)
(3 6.3076e-16 0)
(3 5.23976e-16 0)
(3 -1.585e-15 0)
(3 -2.49653e-15 0)
(3 2.45723e-16 0)
(3 8.95032e-16 0)
(3 1.39637e-15 0)
(3 3.34562e-16 0)
(3 -3.1304e-16 0)
(3 -5.56302e-16 0)
(3 -1.7795e-15 0)
(3 -1.89527e-15 0)
(3 -1.58842e-15 0)
(3 -1.24167e-15 0)
(3 -1.86111e-16 0)
(3 1.0076e-16 0)
(3 -6.55579e-16 0)
(3 -5.31238e-16 0)
(3 -1.78453e-16 0)
(3 -2.92905e-16 0)
(3 -1.17318e-15 0)
(3 4.22275e-16 0)
(3 1.25824e-15 0)
(3 1.47329e-15 0)
(3 1.95592e-15 0)
(3 4.99792e-16 0)
(3 -7.49456e-16 0)
(3 -9.06648e-16 0)
(3 -4.73653e-16 0)
(3 9.90243e-17 0)
(3 2.5792e-16 0)
(3 3.43112e-16 0)
(3 5.66899e-16 0)
(3 5.46963e-16 0)
(3 1.11418e-15 0)
(3 1.3415e-15 0)
(3 9.75622e-16 0)
(3 1.34152e-15 0)
(3 1.39098e-15 0)
(3 9.32431e-16 0)
(3 4.50995e-16 0)
(3 1.27468e-15 0)
(3 2.0452e-15 0)
(3 2.53029e-15 0)
(3 2.14474e-15 0)
(3 7.09629e-16 0)
(3 8.62216e-16 0)
(3 3.74851e-16 0)
(3 -7.09869e-16 0)
(3 -9.57791e-16 0)
(3 -1.06795e-15 0)
(3 -1.15905e-15 0)
(3 -1.46847e-15 0)
(3 -9.14189e-16 0)
(3 2.19034e-16 0)
(3 3.87108e-16 0)
(3 2.19949e-16 0)
(3 -3.24414e-16 0)
(3 -5.61498e-16 0)
(3 4.99465e-16 0)
(3 1.97005e-15 0)
(3 2.87956e-15 0)
(3 3.2014e-15 0)
(3 7.70735e-16 0)
(3 -6.69447e-16 0)
(3 -1.46063e-15 0)
(3 -7.97648e-16 0)
(3 -5.35965e-16 0)
(3 -2.35583e-16 0)
(3 -2.36146e-16 0)
(3 -1.26992e-16 0)
(3 -4.41198e-16 0)
(3 -7.42743e-16 0)
(3 -8.75418e-16 0)
(3 -4.92195e-16 0)
(3 3.82177e-16 0)
(3 3.2775e-16 0)
(3 -4.66134e-16 0)
(3 -8.5392e-16 0)
(3 -1.16914e-15 0)
(3 -1.15645e-15 0)
(3 -1.65474e-15 0)
(3 -1.8071e-15 0)
(3 -1.33391e-15 0)
(3 -4.23876e-16 0)
(3 -1.53152e-16 0)
(3 6.215e-16 0)
(3 1.1272e-15 0)
(3 8.35041e-16 0)
(3 -2.91152e-16 0)
(3 -4.04488e-16 0)
(3 -8.70665e-17 0)
(3 1.7563e-16 0)
(3 2.63559e-16 0)
(3 -2.5877e-16 0)
(3 -6.27017e-16 0)
(3 -5.60097e-16 0)
(3 -1.05888e-16 0)
(3 5.39579e-16 0)
(3 6.49936e-16 0)
(3 2.94286e-16 0)
(3 1.04257e-16 0)
(3 -1.8909e-16 0)
(3 -1.30403e-16 0)
(3 1.42084e-16 0)
(3 -1.19148e-15 0)
(3 -1.38079e-15 0)
(3 -6.65663e-16 0)
(3 1.59895e-17 0)
(3 1.62889e-16 0)
(3 -4.64491e-16 0)
(3 -2.16442e-16 0)
(3 -1.50758e-16 0)
(3 -1.30269e-15 0)
(3 -1.37993e-15 0)
(3 -6.64836e-16 0)
(3 -3.19015e-17 0)
(3 6.26265e-16 0)
(3 9.16232e-16 0)
(3 6.97013e-16 0)
(3 1.15918e-15 0)
(3 1.13512e-15 0)
(3 6.78769e-16 0)
(3 -1.64036e-17 0)
(3 -9.54245e-16 0)
(3 -4.63043e-16 0)
(3 -3.06489e-15 0)
(1.61337 0.00583242 0)
(0.67788 0.00677858 0)
(0.611248 0.0106209 0)
(0.590995 0.00897822 0)
(0.562648 0.00885115 0)
(0.531635 0.00898732 0)
(0.503323 0.00848988 0)
(0.483297 0.0084271 0)
(0.469341 0.00889257 0)
(0.45952 0.00928116 0)
(0.451051 0.0095813 0)
(0.4426 0.00980274 0)
(0.429987 0.00982811 0)
(0.41311 0.00987536 0)
(0.389537 0.00991804 0)
(0.362727 0.00976888 0)
(0.337381 0.00988029 0)
(0.315259 0.00969041 0)
(0.293196 0.00962364 0)
(0.267946 0.00930655 0)
(0.240078 0.010354 0)
(0.213378 0.0108009 0)
(0.195858 0.011364 0)
(0.188501 0.0116295 0)
(0.186517 0.0112408 0)
(0.182509 0.0105253 0)
(0.167841 0.0101333 0)
(0.135295 0.00975058 0)
(0.0861198 0.00960146 0)
(0.0382451 0.00962807 0)
(0.00768948 0.00976886 0)
(-0.00599913 0.00981955 0)
(-0.00149519 0.00990401 0)
(3 -1.20859e-16 0)
(3 2.68133e-16 0)
(3 3.7856e-16 0)
(3 5.56696e-17 0)
(3 -1.85234e-16 0)
(3 1.46602e-16 0)
(3 5.66401e-16 0)
(3 1.66074e-16 0)
(3 -5.45044e-16 0)
(3 -9.13486e-16 0)
(3 -1.59687e-15 0)
(3 -3.41502e-15 0)
(3 -3.64023e-15 0)
(3 -2.45775e-15 0)
(3 -2.03419e-15 0)
(3 -1.21803e-15 0)
(3 -1.03132e-15 0)
(3 2.10037e-16 0)
(3 9.80239e-16 0)
(3 1.79843e-15 0)
(3 6.91398e-16 0)
(3 3.76688e-17 0)
(3 2.29931e-16 0)
(3 7.99056e-16 0)
(3 1.33713e-15 0)
(3 8.32915e-16 0)
(3 1.47765e-15 0)
(3 2.11546e-15 0)
(3 3.47797e-15 0)
(3 2.50534e-15 0)
(3 1.75612e-15 0)
(3 8.98003e-16 0)
(3 5.47107e-17 0)
(3 -6.56514e-16 0)
(3 -3.80672e-15 0)
(3 -3.82937e-15 0)
(3 -4.00925e-16 0)
(3 1.17683e-15 0)
(3 9.63838e-16 0)
(3 6.13425e-16 0)
(3 3.40261e-16 0)
(3 -1.40533e-15 0)
(3 -2.83421e-15 0)
(3 -3.11599e-15 0)
(3 -1.57882e-15 0)
(3 -3.55019e-16 0)
(3 6.34303e-16 0)
(3 -1.72817e-16 0)
(3 -2.06743e-15 0)
(3 -1.64523e-15 0)
(3 -7.24427e-16 0)
(3 -7.88477e-16 0)
(3 -4.30629e-16 0)
(3 1.05876e-15 0)
(3 1.87252e-15 0)
(3 2.32732e-15 0)
(3 2.49466e-15 0)
(3 1.67284e-15 0)
(3 -5.879e-16 0)
(3 -8.39818e-16 0)
(3 1.96667e-16 0)
(3 8.50417e-16 0)
(3 1.4922e-15 0)
(3 1.97192e-15 0)
(3 7.75246e-16 0)
(3 -2.86506e-17 0)
(3 1.35197e-15 0)
(3 2.2325e-15 0)
(3 1.54855e-15 0)
(3 1.83968e-15 0)
(3 1.33564e-15 0)
(3 1.96855e-16 0)
(3 2.71531e-16 0)
(3 1.04452e-15 0)
(3 1.30556e-15 0)
(3 1.89834e-15 0)
(3 3.14464e-15 0)
(3 1.52508e-15 0)
(3 1.47739e-15 0)
(3 1.35365e-15 0)
(3 -6.74082e-16 0)
(3 -8.60837e-16 0)
(3 -5.49761e-16 0)
(3 -1.59215e-15 0)
(3 -2.40646e-15 0)
(3 -2.4322e-15 0)
(3 -1.21642e-15 0)
(3 -2.92469e-16 0)
(3 -8.35031e-16 0)
(3 -1.08844e-15 0)
(3 -7.05474e-17 0)
(3 1.09165e-15 0)
(3 1.87004e-15 0)
(3 2.52657e-15 0)
(3 2.9701e-15 0)
(3 2.4243e-15 0)
(3 5.49646e-17 0)
(3 -8.37974e-16 0)
(3 -1.18043e-15 0)
(3 -9.38231e-16 0)
(3 -6.62979e-16 0)
(3 -3.7276e-16 0)
(3 -7.13085e-16 0)
(3 -1.8793e-15 0)
(3 -1.9618e-15 0)
(3 -1.66496e-15 0)
(3 -1.50386e-15 0)
(3 -9.94931e-16 0)
(3 -1.47364e-15 0)
(3 -1.64721e-15 0)
(3 -1.10844e-15 0)
(3 -9.17931e-16 0)
(3 -5.54117e-16 0)
(3 -7.05095e-16 0)
(3 -8.2601e-16 0)
(3 9.76068e-17 0)
(3 6.33193e-16 0)
(3 9.75531e-16 0)
(3 2.78216e-15 0)
(3 3.71843e-15 0)
(3 3.58591e-15 0)
(3 2.2176e-15 0)
(3 6.2726e-16 0)
(3 2.9761e-16 0)
(3 1.42204e-15 0)
(3 1.30153e-15 0)
(3 -5.68844e-16 0)
(3 -6.33826e-16 0)
(3 -4.96781e-16 0)
(3 5.42381e-16 0)
(3 1.35971e-15 0)
(3 5.33789e-16 0)
(3 5.21333e-17 0)
(3 -1.46227e-16 0)
(3 -8.5761e-16 0)
(3 -1.21705e-15 0)
(3 -1.46839e-15 0)
(3 -2.09369e-15 0)
(3 -2.49153e-15 0)
(3 -1.74533e-15 0)
(3 -7.74472e-16 0)
(3 -4.48948e-16 0)
(3 -8.1557e-16 0)
(3 -1.21624e-15 0)
(3 -5.70821e-16 0)
(3 -4.08432e-16 0)
(3 -7.07873e-16 0)
(3 -9.09423e-16 0)
(3 -8.98136e-19 0)
(3 2.44681e-15 0)
(3 2.34555e-15 0)
(3 6.80203e-16 0)
(3 2.97103e-16 0)
(3 3.80671e-16 0)
(3 -1.25357e-15 0)
(3 -2.19385e-15 0)
(3 -3.19822e-15 0)
(3 -2.48199e-15 0)
(3 -3.74197e-15 0)
(1.62301 0.02518 0)
(0.675658 0.0265938 0)
(0.604779 0.0326599 0)
(0.584017 0.0250282 0)
(0.555944 0.0242309 0)
(0.525876 0.0252041 0)
(0.498944 0.0245292 0)
(0.47933 0.0244267 0)
(0.465714 0.025633 0)
(0.455752 0.0268451 0)
(0.446804 0.0278813 0)
(0.437733 0.028645 0)
(0.424751 0.0286971 0)
(0.407725 0.0287229 0)
(0.384205 0.0288135 0)
(0.357354 0.028512 0)
(0.331754 0.0289393 0)
(0.309198 0.0284172 0)
(0.286732 0.0279427 0)
(0.261108 0.0270606 0)
(0.233197 0.0293194 0)
(0.207001 0.0308137 0)
(0.190092 0.0324812 0)
(0.183599 0.0332021 0)
(0.182612 0.03245 0)
(0.179436 0.030984 0)
(0.165378 0.0301786 0)
(0.133356 0.0294759 0)
(0.0846222 0.0292035 0)
(0.0371327 0.0293015 0)
(0.00684689 0.0293776 0)
(-0.00647657 0.0292265 0)
(-0.00168042 0.0293503 0)
(3 1.58349e-16 0)
(3 3.53769e-16 0)
(3 3.71403e-16 0)
(3 2.9122e-18 0)
(3 1.70629e-16 0)
(3 3.63601e-16 0)
(3 3.01604e-16 0)
(3 1.43241e-16 0)
(3 -1.48088e-17 0)
(3 -6.80737e-16 0)
(3 -1.38981e-15 0)
(3 -2.11366e-15 0)
(3 -1.07233e-15 0)
(3 -5.59954e-16 0)
(3 -5.96128e-16 0)
(3 -1.1872e-15 0)
(3 -1.06721e-15 0)
(3 -5.22594e-16 0)
(3 -3.21005e-16 0)
(3 9.3268e-16 0)
(3 -5.80619e-16 0)
(3 -8.23389e-16 0)
(3 -8.58787e-16 0)
(3 -2.32458e-17 0)
(3 1.75092e-15 0)
(3 2.87769e-15 0)
(3 3.1962e-15 0)
(3 3.35676e-15 0)
(3 3.01574e-15 0)
(3 9.61685e-16 0)
(3 8.82159e-16 0)
(3 1.04531e-15 0)
(3 3.21066e-17 0)
(3 -3.52548e-15 0)
(3 -4.37602e-15 0)
(3 -3.88419e-15 0)
(3 -3.04219e-15 0)
(3 -1.80075e-15 0)
(3 -1.48053e-15 0)
(3 -3.59295e-16 0)
(3 -1.876e-16 0)
(3 -2.29829e-16 0)
(3 -3.15535e-16 0)
(3 -8.69185e-17 0)
(3 -1.78666e-16 0)
(3 6.38634e-16 0)
(3 1.1412e-15 0)
(3 1.492e-16 0)
(3 -4.57635e-16 0)
(3 -1.48165e-15 0)
(3 -1.44371e-15 0)
(3 -1.64826e-15 0)
(3 -1.19091e-15 0)
(3 -1.61984e-15 0)
(3 -9.37366e-16 0)
(3 1.09259e-15 0)
(3 9.54559e-16 0)
(3 6.59046e-16 0)
(3 6.0529e-16 0)
(3 2.98738e-16 0)
(3 6.08586e-16 0)
(3 2.28006e-16 0)
(3 -1.92575e-16 0)
(3 1.58607e-15 0)
(3 1.88021e-15 0)
(3 1.69714e-15 0)
(3 2.07069e-15 0)
(3 1.95044e-15 0)
(3 1.32363e-15 0)
(3 6.26171e-16 0)
(3 2.09545e-16 0)
(3 -6.58123e-16 0)
(3 2.86979e-16 0)
(3 9.5799e-17 0)
(3 -2.04169e-16 0)
(3 9.76111e-17 0)
(3 5.5671e-16 0)
(3 1.1982e-15 0)
(3 1.30809e-15 0)
(3 1.89563e-15 0)
(3 1.08824e-15 0)
(3 7.87366e-16 0)
(3 8.56473e-16 0)
(3 2.63523e-16 0)
(3 2.11343e-16 0)
(3 1.78587e-16 0)
(3 -8.94296e-16 0)
(3 -1.11042e-15 0)
(3 -1.88673e-15 0)
(3 -1.46645e-15 0)
(3 6.81673e-16 0)
(3 1.24922e-15 0)
(3 1.26141e-15 0)
(3 1.91092e-15 0)
(3 2.01595e-15 0)
(3 1.32291e-15 0)
(3 7.96894e-16 0)
(3 -3.65076e-16 0)
(3 -9.09805e-16 0)
(3 -1.24753e-15 0)
(3 -1.53868e-15 0)
(3 -9.34293e-16 0)
(3 -2.16472e-15 0)
(3 -2.80775e-15 0)
(3 -2.20409e-15 0)
(3 -2.07235e-15 0)
(3 -3.58917e-15 0)
(3 -4.1986e-15 0)
(3 -3.65735e-15 0)
(3 -2.81438e-15 0)
(3 -2.23611e-15 0)
(3 -9.00938e-16 0)
(3 -9.30738e-16 0)
(3 -2.68038e-17 0)
(3 6.36913e-16 0)
(3 4.52194e-16 0)
(3 -1.25663e-16 0)
(3 5.19994e-16 0)
(3 2.06605e-15 0)
(3 2.15831e-15 0)
(3 3.20705e-15 0)
(3 3.92604e-15 0)
(3 3.48811e-15 0)
(3 2.01391e-15 0)
(3 -1.02056e-17 0)
(3 -1.83591e-16 0)
(3 2.01854e-16 0)
(3 -5.03852e-16 0)
(3 -8.59799e-16 0)
(3 -2.15655e-16 0)
(3 3.54346e-16 0)
(3 1.60908e-16 0)
(3 2.49692e-16 0)
(3 -2.2744e-16 0)
(3 -1.0644e-15 0)
(3 -1.74743e-15 0)
(3 -3.53926e-15 0)
(3 -2.86425e-15 0)
(3 -3.07179e-15 0)
(3 -3.12321e-15 0)
(3 -2.58538e-15 0)
(3 -2.42095e-15 0)
(3 -1.69145e-15 0)
(3 -1.39874e-15 0)
(3 -5.77594e-16 0)
(3 1.39932e-15 0)
(3 2.26677e-15 0)
(3 9.26058e-16 0)
(3 -3.68607e-16 0)
(3 1.70493e-16 0)
(3 7.55634e-16 0)
(3 5.54349e-16 0)
(3 -7.89113e-16 0)
(3 -1.17723e-15 0)
(3 -1.17321e-15 0)
(3 -1.36734e-15 0)
(3 -6.28246e-16 0)
(3 -5.3656e-16 0)
(3 1.50795e-15 0)
(1.65742 0.0453832 0)
(0.680579 0.0474602 0)
(0.604697 0.0548747 0)
(0.583727 0.0426913 0)
(0.554718 0.0405238 0)
(0.524831 0.0419261 0)
(0.498901 0.041492 0)
(0.479549 0.0416934 0)
(0.466284 0.0435974 0)
(0.45601 0.0454504 0)
(0.446238 0.0469992 0)
(0.436033 0.0481338 0)
(0.422371 0.0482452 0)
(0.404973 0.0483712 0)
(0.381408 0.0485389 0)
(0.354392 0.0480493 0)
(0.328276 0.0486206 0)
(0.304953 0.04775 0)
(0.281846 0.0471075 0)
(0.255831 0.0459486 0)
(0.22775 0.0494494 0)
(0.201449 0.0515005 0)
(0.184507 0.0535316 0)
(0.178227 0.0539803 0)
(0.177843 0.0526187 0)
(0.175344 0.0504498 0)
(0.161955 0.0493155 0)
(0.130661 0.0484442 0)
(0.0825219 0.0480935 0)
(0.0355576 0.0483528 0)
(0.00569265 0.0484711 0)
(-0.00707421 0.0483957 0)
(-0.00185335 0.0485404 0)
(3 1.72464e-16 0)
(3 -3.50076e-16 0)
(3 -6.95169e-16 0)
(3 -3.49225e-16 0)
(3 2.61167e-16 0)
(3 7.08203e-17 0)
(3 -6.05077e-16 0)
(3 -8.80959e-16 0)
(3 -5.11802e-16 0)
(3 -4.79965e-16 0)
(3 -1.23289e-15 0)
(3 -1.62165e-15 0)
(3 -2.02614e-15 0)
(3 -1.89647e-15 0)
(3 -1.42339e-15 0)
(3 -1.13862e-15 0)
(3 -1.25313e-15 0)
(3 -1.34704e-15 0)
(3 -1.52811e-15 0)
(3 -2.0997e-15 0)
(3 -2.08522e-15 0)
(3 -2.20699e-15 0)
(3 -1.85565e-15 0)
(3 -7.46853e-16 0)
(3 1.11876e-15 0)
(3 1.58378e-15 0)
(3 1.98707e-15 0)
(3 2.17727e-15 0)
(3 1.85493e-15 0)
(3 2.95692e-16 0)
(3 1.45837e-16 0)
(3 5.45149e-16 0)
(3 -5.36549e-16 0)
(3 -2.96404e-15 0)
(3 -3.54793e-15 0)
(3 -4.58983e-15 0)
(3 -3.8095e-15 0)
(3 -1.83627e-15 0)
(3 -1.90132e-15 0)
(3 -2.09659e-15 0)
(3 -1.75929e-15 0)
(3 -1.4539e-15 0)
(3 -8.62475e-16 0)
(3 -1.45146e-16 0)
(3 -2.67061e-16 0)
(3 -3.58723e-16 0)
(3 -8.28781e-17 0)
(3 9.42689e-16 0)
(3 2.22127e-15 0)
(3 8.61162e-16 0)
(3 1.03123e-16 0)
(3 -1.72692e-16 0)
(3 -1.46672e-15 0)
(3 -2.64043e-15 0)
(3 -1.55143e-15 0)
(3 -7.22488e-16 0)
(3 -1.81325e-15 0)
(3 -1.82608e-15 0)
(3 -1.79755e-15 0)
(3 -1.04201e-15 0)
(3 -4.90828e-16 0)
(3 -1.13982e-15 0)
(3 -1.35021e-15 0)
(3 -6.71803e-16 0)
(3 1.18246e-15 0)
(3 2.89989e-15 0)
(3 3.28985e-15 0)
(3 1.38386e-15 0)
(3 -8.60761e-16 0)
(3 -2.47503e-15 0)
(3 -2.03934e-15 0)
(3 4.61416e-17 0)
(3 -1.52911e-16 0)
(3 -1.08781e-15 0)
(3 -1.70056e-15 0)
(3 -1.67106e-15 0)
(3 -6.51527e-16 0)
(3 9.00565e-17 0)
(3 1.15457e-15 0)
(3 3.06585e-15 0)
(3 2.9736e-15 0)
(3 2.63766e-15 0)
(3 2.32276e-15 0)
(3 1.88622e-15 0)
(3 1.83581e-15 0)
(3 2.09706e-15 0)
(3 1.17271e-15 0)
(3 -2.14365e-17 0)
(3 1.81632e-16 0)
(3 2.63084e-16 0)
(3 5.88965e-16 0)
(3 -3.91321e-16 0)
(3 -1.01242e-15 0)
(3 -7.4907e-16 0)
(3 1.65057e-17 0)
(3 -2.6671e-16 0)
(3 -8.26126e-16 0)
(3 -3.76449e-15 0)
(3 -3.53068e-15 0)
(3 -2.30116e-15 0)
(3 -1.8334e-15 0)
(3 -1.52752e-15 0)
(3 -1.69667e-15 0)
(3 -1.94352e-15 0)
(3 -2.03005e-15 0)
(3 -2.60967e-15 0)
(3 -2.75764e-15 0)
(3 -2.65843e-15 0)
(3 -1.15576e-15 0)
(3 -9.92123e-17 0)
(3 -3.47355e-16 0)
(3 -4.39911e-16 0)
(3 -1.28846e-15 0)
(3 -1.28678e-15 0)
(3 -1.165e-15 0)
(3 -1.00804e-15 0)
(3 -1.66736e-15 0)
(3 -1.5935e-15 0)
(3 2.80962e-16 0)
(3 1.51194e-15 0)
(3 2.73064e-15 0)
(3 4.10484e-15 0)
(3 4.58516e-15 0)
(3 3.84174e-15 0)
(3 8.08239e-16 0)
(3 -6.22422e-16 0)
(3 -7.8872e-16 0)
(3 -9.66233e-16 0)
(3 -1.40165e-15 0)
(3 -2.02338e-15 0)
(3 -1.24212e-15 0)
(3 6.62089e-16 0)
(3 1.44761e-15 0)
(3 7.82844e-16 0)
(3 -1.0517e-15 0)
(3 -1.1959e-15 0)
(3 -1.30118e-15 0)
(3 -1.63992e-15 0)
(3 -2.20914e-15 0)
(3 -2.44376e-15 0)
(3 -2.07596e-15 0)
(3 -1.84921e-15 0)
(3 -4.32013e-16 0)
(3 1.85045e-15 0)
(3 2.00796e-15 0)
(3 2.10768e-15 0)
(3 3.00388e-15 0)
(3 2.31483e-15 0)
(3 -9.51148e-16 0)
(3 -3.57497e-15 0)
(3 -1.39366e-15 0)
(3 3.5891e-16 0)
(3 -1.26227e-15 0)
(3 -2.54367e-15 0)
(3 -8.99705e-16 0)
(3 -5.55828e-17 0)
(3 1.63698e-15 0)
(3 2.20312e-15 0)
(3 -6.90335e-16 0)
(1.70826 0.0622844 0)
(0.686633 0.0683595 0)
(0.604069 0.0760724 0)
(0.584968 0.0598054 0)
(0.555996 0.0562895 0)
(0.526928 0.0580977 0)
(0.502422 0.0582586 0)
(0.483895 0.0589044 0)
(0.471427 0.0614117 0)
(0.461002 0.0639014 0)
(0.450387 0.0660207 0)
(0.43892 0.0676221 0)
(0.424533 0.0679105 0)
(0.406748 0.068212 0)
(0.383142 0.0684802 0)
(0.355897 0.0678977 0)
(0.329078 0.0686301 0)
(0.304789 0.0676018 0)
(0.281018 0.0670197 0)
(0.25487 0.0659009 0)
(0.226958 0.0705287 0)
(0.200601 0.0732711 0)
(0.183294 0.0753106 0)
(0.176591 0.0748798 0)
(0.176175 0.0724799 0)
(0.173781 0.0694146 0)
(0.160676 0.0679073 0)
(0.129878 0.066989 0)
(0.0821173 0.0666094 0)
(0.0354391 0.0671237 0)
(0.00567473 0.0673363 0)
(-0.00685322 0.0674578 0)
(-0.00153409 0.0676045 0)
(3 -1.1414e-16 0)
(3 1.97241e-16 0)
(3 1.2264e-16 0)
(3 4.69089e-16 0)
(3 2.91278e-16 0)
(3 2.17425e-16 0)
(3 -1.54002e-15 0)
(3 -1.79845e-15 0)
(3 -6.80217e-16 0)
(3 -3.78408e-16 0)
(3 -6.91685e-16 0)
(3 -6.51776e-16 0)
(3 -1.61997e-15 0)
(3 -2.13883e-15 0)
(3 -2.71875e-15 0)
(3 -1.62494e-15 0)
(3 -1.64047e-15 0)
(3 -2.29143e-15 0)
(3 -3.21949e-15 0)
(3 -3.28759e-15 0)
(3 -2.34042e-15 0)
(3 -2.3135e-15 0)
(3 -1.25482e-15 0)
(3 1.32517e-17 0)
(3 2.97063e-16 0)
(3 8.54171e-16 0)
(3 9.34669e-16 0)
(3 1.93822e-15 0)
(3 1.18242e-15 0)
(3 -9.79151e-16 0)
(3 -1.33115e-15 0)
(3 -1.28155e-15 0)
(3 -1.58672e-15 0)
(3 -1.78034e-15 0)
(3 -3.01594e-15 0)
(3 -2.4997e-15 0)
(3 -3.02421e-15 0)
(3 -3.15252e-15 0)
(3 -2.65954e-15 0)
(3 -1.53571e-15 0)
(3 -7.97475e-16 0)
(3 -5.7457e-16 0)
(3 3.86195e-17 0)
(3 -5.1066e-17 0)
(3 -6.48069e-17 0)
(3 -5.99556e-16 0)
(3 3.2296e-16 0)
(3 1.9477e-15 0)
(3 3.53958e-15 0)
(3 2.73993e-15 0)
(3 1.18888e-15 0)
(3 7.31105e-16 0)
(3 -1.73399e-15 0)
(3 -2.21707e-15 0)
(3 -1.76382e-15 0)
(3 -2.99371e-15 0)
(3 -3.09185e-15 0)
(3 -3.09482e-15 0)
(3 -3.62564e-15 0)
(3 -3.72514e-15 0)
(3 -1.56835e-15 0)
(3 -8.98096e-16 0)
(3 -3.12584e-16 0)
(3 -4.77091e-16 0)
(3 6.24199e-16 0)
(3 1.45933e-15 0)
(3 5.27965e-16 0)
(3 -9.56956e-17 0)
(3 -5.29027e-16 0)
(3 -1.45561e-15 0)
(3 -1.42609e-15 0)
(3 -6.20007e-16 0)
(3 1.04793e-16 0)
(3 -5.66156e-16 0)
(3 -1.214e-15 0)
(3 -1.44371e-15 0)
(3 -1.54022e-15 0)
(3 -5.63419e-16 0)
(3 8.56711e-17 0)
(3 1.00373e-15 0)
(3 2.23801e-15 0)
(3 2.72101e-15 0)
(3 3.43152e-15 0)
(3 3.1947e-15 0)
(3 2.47238e-15 0)
(3 1.3422e-15 0)
(3 6.24919e-16 0)
(3 2.29481e-16 0)
(3 2.8382e-16 0)
(3 5.05923e-16 0)
(3 -6.66656e-16 0)
(3 -7.86813e-16 0)
(3 -5.72369e-16 0)
(3 -1.63654e-15 0)
(3 -2.02155e-15 0)
(3 -2.38937e-15 0)
(3 -2.50861e-15 0)
(3 -2.05685e-15 0)
(3 -1.61529e-15 0)
(3 -1.00017e-15 0)
(3 6.93587e-16 0)
(3 1.04322e-15 0)
(3 1.88166e-16 0)
(3 -5.13433e-16 0)
(3 -2.55844e-15 0)
(3 -1.93763e-15 0)
(3 -7.97091e-16 0)
(3 -2.18686e-16 0)
(3 2.35407e-16 0)
(3 1.15991e-15 0)
(3 7.24283e-16 0)
(3 -2.31101e-16 0)
(3 -1.30829e-15 0)
(3 -1.50778e-15 0)
(3 -8.75366e-16 0)
(3 -6.75115e-16 0)
(3 -7.87416e-16 0)
(3 -1.07491e-15 0)
(3 -7.81942e-16 0)
(3 3.43302e-16 0)
(3 1.57463e-15 0)
(3 1.52664e-15 0)
(3 2.19253e-15 0)
(3 2.3398e-15 0)
(3 1.3013e-15 0)
(3 -1.12572e-16 0)
(3 -9.13529e-16 0)
(3 -1.02189e-16 0)
(3 3.29052e-16 0)
(3 -8.74299e-16 0)
(3 -2.06694e-15 0)
(3 -2.4641e-15 0)
(3 -2.15579e-15 0)
(3 -1.19398e-15 0)
(3 -1.10952e-15 0)
(3 -1.51539e-15 0)
(3 -7.72457e-16 0)
(3 -5.10135e-16 0)
(3 -4.24036e-16 0)
(3 -7.6949e-16 0)
(3 -5.58859e-16 0)
(3 6.00256e-16 0)
(3 1.77988e-15 0)
(3 3.02317e-15 0)
(3 2.81486e-15 0)
(3 1.66153e-15 0)
(3 9.59633e-16 0)
(3 7.03889e-16 0)
(3 -2.96206e-17 0)
(3 -7.95221e-16 0)
(3 4.08911e-17 0)
(3 1.48317e-15 0)
(3 4.84273e-16 0)
(3 -8.81801e-16 0)
(3 -1.01922e-15 0)
(3 1.71475e-16 0)
(3 1.43397e-15 0)
(3 2.3485e-15 0)
(3 -1.11398e-15 0)
(1.7733 0.0794795 0)
(0.69242 0.0909713 0)
(0.60244 0.0955701 0)
(0.585635 0.0759484 0)
(0.556282 0.0715226 0)
(0.527891 0.0741258 0)
(0.504849 0.0753385 0)
(0.487803 0.0766811 0)
(0.476473 0.0796901 0)
(0.466017 0.0826813 0)
(0.454635 0.0852479 0)
(0.441912 0.0871786 0)
(0.426966 0.0875701 0)
(0.409086 0.0880142 0)
(0.385793 0.088376 0)
(0.358634 0.0877976 0)
(0.331345 0.0886984 0)
(0.306368 0.0876325 0)
(0.282466 0.0871976 0)
(0.257086 0.0863856 0)
(0.230237 0.0919076 0)
(0.204255 0.0950255 0)
(0.186476 0.0967899 0)
(0.17887 0.0953237 0)
(0.177626 0.0921174 0)
(0.174796 0.0881644 0)
(0.161447 0.0861752 0)
(0.130683 0.0853085 0)
(0.0828924 0.084965 0)
(0.0361994 0.08591 0)
(0.00625141 0.0863964 0)
(-0.00624736 0.0866838 0)
(-0.00096188 0.0869264 0)
(3 -3.9028e-17 0)
(3 9.69884e-17 0)
(3 4.65748e-16 0)
(3 3.2032e-16 0)
(3 1.46642e-16 0)
(3 8.50257e-17 0)
(3 6.13131e-16 0)
(3 9.43044e-16 0)
(3 6.4534e-16 0)
(3 1.04536e-15 0)
(3 1.3249e-15 0)
(3 8.69782e-16 0)
(3 -7.6698e-16 0)
(3 -2.59108e-15 0)
(3 -2.83686e-15 0)
(3 -1.6099e-15 0)
(3 -1.99131e-15 0)
(3 -3.28164e-15 0)
(3 -4.57883e-15 0)
(3 -3.07319e-15 0)
(3 -2.56289e-15 0)
(3 -1.00009e-15 0)
(3 7.54359e-16 0)
(3 8.12939e-16 0)
(3 -7.78187e-16 0)
(3 -1.25341e-15 0)
(3 -6.67388e-16 0)
(3 4.09071e-16 0)
(3 4.52594e-16 0)
(3 4.94254e-16 0)
(3 2.11331e-16 0)
(3 -4.81047e-16 0)
(3 -4.28091e-17 0)
(3 6.58375e-17 0)
(3 -4.48918e-16 0)
(3 -1.1773e-15 0)
(3 -1.80431e-15 0)
(3 -1.05449e-15 0)
(3 -5.36243e-16 0)
(3 8.33311e-17 0)
(3 5.66342e-16 0)
(3 1.40006e-15 0)
(3 1.3289e-15 0)
(3 -8.09275e-17 0)
(3 -8.88472e-16 0)
(3 2.10012e-16 0)
(3 1.25581e-15 0)
(3 1.50477e-15 0)
(3 2.70667e-15 0)
(3 3.12391e-15 0)
(3 2.6919e-15 0)
(3 1.20989e-15 0)
(3 3.4078e-17 0)
(3 -1.75285e-15 0)
(3 -2.68776e-15 0)
(3 -2.93075e-15 0)
(3 -2.53913e-15 0)
(3 -2.91586e-15 0)
(3 -2.54652e-15 0)
(3 -2.15732e-15 0)
(3 -1.75938e-15 0)
(3 -6.75629e-16 0)
(3 1.17871e-17 0)
(3 9.50207e-17 0)
(3 6.10662e-16 0)
(3 3.19989e-16 0)
(3 3.94456e-17 0)
(3 -4.13022e-16 0)
(3 -4.72728e-16 0)
(3 -5.18461e-16 0)
(3 -1.12048e-15 0)
(3 -7.73157e-16 0)
(3 -4.6964e-16 0)
(3 -2.83504e-16 0)
(3 -9.92821e-16 0)
(3 -1.80162e-15 0)
(3 -1.96342e-15 0)
(3 -2.10074e-15 0)
(3 -1.8679e-15 0)
(3 -6.50389e-16 0)
(3 4.14893e-16 0)
(3 5.20003e-17 0)
(3 -4.41777e-16 0)
(3 -6.80744e-16 0)
(3 -3.60649e-16 0)
(3 2.31879e-16 0)
(3 1.06047e-15 0)
(3 1.18101e-15 0)
(3 8.41466e-16 0)
(3 6.87116e-16 0)
(3 4.88383e-16 0)
(3 2.73913e-16 0)
(3 3.57826e-16 0)
(3 -2.36472e-16 0)
(3 -1.37683e-15 0)
(3 -1.60691e-15 0)
(3 -1.32742e-15 0)
(3 -8.49802e-16 0)
(3 3.38441e-16 0)
(3 5.61892e-16 0)
(3 -3.6858e-16 0)
(3 -1.03766e-15 0)
(3 -1.4616e-15 0)
(3 -7.57783e-16 0)
(3 -1.06864e-16 0)
(3 9.61839e-17 0)
(3 1.74449e-15 0)
(3 2.49063e-15 0)
(3 2.63442e-15 0)
(3 3.18117e-15 0)
(3 2.38909e-15 0)
(3 6.08633e-16 0)
(3 -1.13121e-15 0)
(3 -3.73569e-16 0)
(3 6.11414e-16 0)
(3 9.55744e-16 0)
(3 1.08257e-15 0)
(3 9.08453e-16 0)
(3 9.5738e-16 0)
(3 1.89583e-15 0)
(3 1.84529e-15 0)
(3 1.50961e-15 0)
(3 6.90023e-16 0)
(3 5.60667e-16 0)
(3 1.31396e-15 0)
(3 1.22391e-15 0)
(3 1.2813e-15 0)
(3 1.33521e-15 0)
(3 1.42797e-15 0)
(3 5.37892e-16 0)
(3 -6.2258e-16 0)
(3 -2.34596e-15 0)
(3 -3.19993e-15 0)
(3 -3.0235e-15 0)
(3 -2.13129e-15 0)
(3 -1.9167e-15 0)
(3 -1.29715e-15 0)
(3 -5.67792e-16 0)
(3 5.19259e-16 0)
(3 1.31071e-15 0)
(3 1.66955e-15 0)
(3 1.45297e-15 0)
(3 1.09203e-15 0)
(3 1.52377e-15 0)
(3 1.49701e-15 0)
(3 1.43942e-15 0)
(3 1.51545e-15 0)
(3 9.77949e-16 0)
(3 4.33923e-16 0)
(3 -5.33018e-16 0)
(3 -1.63955e-15 0)
(3 -9.00016e-16 0)
(3 -4.97693e-16 0)
(3 -7.58601e-17 0)
(3 1.8936e-16 0)
(3 -1.9818e-16 0)
(3 -1.82843e-16 0)
(3 -3.48104e-16 0)
(3 5.56204e-16 0)
(1.85716 0.0964094 0)
(0.700529 0.115019 0)
(0.600829 0.113336 0)
(0.585727 0.0910135 0)
(0.555805 0.0863272 0)
(0.529116 0.090053 0)
(0.507571 0.0925293 0)
(0.492553 0.0946497 0)
(0.482018 0.0981473 0)
(0.471211 0.101666 0)
(0.458843 0.104602 0)
(0.444678 0.106695 0)
(0.429171 0.107041 0)
(0.411325 0.107588 0)
(0.388502 0.108057 0)
(0.361519 0.107609 0)
(0.333775 0.108704 0)
(0.308219 0.107658 0)
(0.2846 0.10734 0)
(0.260676 0.107 0)
(0.235498 0.113414 0)
(0.210046 0.117086 0)
(0.191616 0.118756 0)
(0.182709 0.116317 0)
(0.179996 0.112236 0)
(0.176207 0.107253 0)
(0.162182 0.104657 0)
(0.131206 0.103814 0)
(0.0832961 0.103486 0)
(0.0366942 0.104932 0)
(0.00665434 0.105768 0)
(-0.00576146 0.106136 0)
(-0.000352418 0.106497 0)
(3 -6.63645e-17 0)
(3 -7.80872e-16 0)
(3 -9.45843e-16 0)
(3 -3.43845e-16 0)
(3 1.22988e-16 0)
(3 8.55823e-16 0)
(3 1.80087e-15 0)
(3 1.51345e-15 0)
(3 9.89597e-16 0)
(3 1.20956e-15 0)
(3 1.5299e-15 0)
(3 1.44909e-15 0)
(3 1.393e-15 0)
(3 4.04189e-16 0)
(3 -4.65302e-16 0)
(3 3.66652e-16 0)
(3 -3.32115e-16 0)
(3 -2.7661e-15 0)
(3 -3.12208e-15 0)
(3 -1.11581e-15 0)
(3 4.97621e-16 0)
(3 1.24316e-15 0)
(3 1.40608e-15 0)
(3 1.32968e-16 0)
(3 -1.55267e-15 0)
(3 -2.0827e-15 0)
(3 -1.40767e-15 0)
(3 -5.70103e-16 0)
(3 -2.11258e-16 0)
(3 8.3348e-16 0)
(3 6.33068e-16 0)
(3 7.0617e-16 0)
(3 8.201e-16 0)
(3 1.0624e-15 0)
(3 1.41572e-15 0)
(3 1.12772e-15 0)
(3 6.19323e-16 0)
(3 1.54077e-15 0)
(3 2.10971e-15 0)
(3 1.9889e-15 0)
(3 2.26634e-15 0)
(3 8.51007e-16 0)
(3 -1.14721e-15 0)
(3 -1.62918e-15 0)
(3 -1.06461e-15 0)
(3 9.73553e-17 0)
(3 7.02344e-16 0)
(3 1.81948e-15 0)
(3 2.04867e-15 0)
(3 2.33845e-15 0)
(3 2.0818e-15 0)
(3 1.31268e-15 0)
(3 2.0006e-16 0)
(3 2.52287e-16 0)
(3 -1.53392e-15 0)
(3 -1.52357e-15 0)
(3 -1.70723e-15 0)
(3 -1.97766e-15 0)
(3 -1.90626e-15 0)
(3 -1.61427e-15 0)
(3 -1.89646e-15 0)
(3 -1.03677e-15 0)
(3 -7.44153e-16 0)
(3 -2.9895e-16 0)
(3 1.28019e-16 0)
(3 -1.31535e-16 0)
(3 -9.75683e-16 0)
(3 -1.28768e-15 0)
(3 -9.71044e-16 0)
(3 2.09629e-17 0)
(3 -2.53303e-16 0)
(3 -1.34507e-15 0)
(3 -2.0138e-15 0)
(3 -1.52529e-15 0)
(3 -1.45517e-15 0)
(3 -1.45031e-15 0)
(3 -2.19608e-15 0)
(3 -3.25893e-15 0)
(3 -3.2285e-15 0)
(3 -2.81139e-15 0)
(3 -2.41512e-15 0)
(3 -2.64544e-15 0)
(3 -3.71747e-15 0)
(3 -4.3051e-15 0)
(3 -3.62112e-15 0)
(3 -1.64392e-15 0)
(3 8.97872e-16 0)
(3 2.19899e-15 0)
(3 1.90364e-15 0)
(3 1.33775e-15 0)
(3 2.41445e-15 0)
(3 2.52852e-15 0)
(3 2.07312e-15 0)
(3 1.8301e-15 0)
(3 5.46964e-16 0)
(3 5.89131e-17 0)
(3 -8.54595e-16 0)
(3 -1.31624e-15 0)
(3 -7.556e-16 0)
(3 -3.77987e-16 0)
(3 -1.65862e-15 0)
(3 -2.19032e-15 0)
(3 -2.01561e-15 0)
(3 -1.15237e-15 0)
(3 7.77748e-16 0)
(3 2.12676e-15 0)
(3 2.01789e-15 0)
(3 3.56201e-15 0)
(3 4.36655e-15 0)
(3 3.53935e-15 0)
(3 -1.56046e-16 0)
(3 -8.43335e-16 0)
(3 -6.80119e-16 0)
(3 1.04769e-16 0)
(3 5.42552e-16 0)
(3 1.15337e-15 0)
(3 2.16638e-15 0)
(3 3.09473e-15 0)
(3 2.92206e-15 0)
(3 2.85434e-15 0)
(3 2.41875e-15 0)
(3 2.1566e-15 0)
(3 4.72424e-16 0)
(3 -1.92033e-16 0)
(3 1.26286e-17 0)
(3 2.17612e-15 0)
(3 2.60589e-15 0)
(3 1.13757e-15 0)
(3 -1.20342e-16 0)
(3 -3.24017e-16 0)
(3 -7.52147e-16 0)
(3 -2.35449e-15 0)
(3 -2.7067e-15 0)
(3 -3.45411e-15 0)
(3 -3.44896e-15 0)
(3 -2.1726e-15 0)
(3 -1.60827e-15 0)
(3 -1.86104e-15 0)
(3 -1.22037e-15 0)
(3 -2.34244e-18 0)
(3 5.19172e-16 0)
(3 3.02403e-16 0)
(3 -3.9114e-16 0)
(3 -4.68296e-16 0)
(3 -4.70291e-16 0)
(3 -6.05234e-16 0)
(3 9.12754e-16 0)
(3 1.4621e-15 0)
(3 9.28096e-16 0)
(3 6.03006e-17 0)
(3 -1.60929e-15 0)
(3 -1.85565e-15 0)
(3 6.73968e-16 0)
(3 3.63047e-15 0)
(3 2.3677e-15 0)
(3 1.12337e-15 0)
(3 -5.00557e-16 0)
(3 4.22835e-16 0)
(3 3.33216e-16 0)
(1.96077 0.112408 0)
(0.711324 0.140545 0)
(0.599935 0.129028 0)
(0.586051 0.10475 0)
(0.555783 0.100825 0)
(0.531452 0.106397 0)
(0.511276 0.110281 0)
(0.498062 0.113214 0)
(0.487852 0.117097 0)
(0.476454 0.121015 0)
(0.462862 0.124103 0)
(0.44699 0.126093 0)
(0.430811 0.126257 0)
(0.413075 0.126876 0)
(0.390832 0.127448 0)
(0.364034 0.127199 0)
(0.335733 0.128497 0)
(0.30961 0.127482 0)
(0.286602 0.127253 0)
(0.264728 0.127516 0)
(0.241875 0.134711 0)
(0.21712 0.139166 0)
(0.197822 0.141101 0)
(0.187195 0.138107 0)
(0.182538 0.133209 0)
(0.177571 0.127006 0)
(0.162762 0.123587 0)
(0.131645 0.122579 0)
(0.0837731 0.122172 0)
(0.0374498 0.124118 0)
(0.00730638 0.125343 0)
(-0.00514274 0.125792 0)
(0.000476739 0.126292 0)
(3 1.29047e-16 0)
(3 -1.02568e-16 0)
(3 -8.21896e-16 0)
(3 -6.25236e-16 0)
(3 2.24073e-16 0)
(3 1.09318e-15 0)
(3 6.36985e-16 0)
(3 1.22984e-16 0)
(3 2.26867e-16 0)
(3 1.83829e-16 0)
(3 1.52853e-16 0)
(3 5.07487e-16 0)
(3 4.00396e-16 0)
(3 9.95198e-17 0)
(3 2.46902e-17 0)
(3 5.57303e-16 0)
(3 -1.06918e-15 0)
(3 -1.39565e-15 0)
(3 -8.24739e-16 0)
(3 2.15612e-16 0)
(3 5.31718e-16 0)
(3 5.47652e-16 0)
(3 2.92526e-16 0)
(3 -9.04616e-16 0)
(3 -9.94936e-16 0)
(3 -4.09681e-16 0)
(3 -2.59057e-16 0)
(3 3.20142e-16 0)
(3 1.51086e-15 0)
(3 2.24991e-15 0)
(3 2.96384e-15 0)
(3 3.29396e-15 0)
(3 2.72296e-15 0)
(3 1.90148e-15 0)
(3 1.98079e-15 0)
(3 1.47858e-15 0)
(3 1.27402e-15 0)
(3 1.60779e-15 0)
(3 8.79197e-16 0)
(3 1.3009e-15 0)
(3 2.67434e-15 0)
(3 4.40604e-16 0)
(3 -3.70692e-17 0)
(3 6.70916e-16 0)
(3 4.42762e-16 0)
(3 -5.20448e-16 0)
(3 1.45512e-16 0)
(3 1.05019e-15 0)
(3 3.35868e-16 0)
(3 1.18889e-15 0)
(3 1.8258e-15 0)
(3 1.65506e-15 0)
(3 9.79136e-16 0)
(3 5.17865e-16 0)
(3 -6.43423e-16 0)
(3 -1.26406e-15 0)
(3 -1.78211e-15 0)
(3 -1.77738e-15 0)
(3 -1.94839e-15 0)
(3 -9.88552e-16 0)
(3 -6.62885e-16 0)
(3 -8.11261e-16 0)
(3 -5.31241e-16 0)
(3 5.50053e-16 0)
(3 4.06821e-17 0)
(3 -2.05436e-15 0)
(3 -2.96384e-15 0)
(3 -2.06999e-15 0)
(3 -8.82652e-16 0)
(3 1.82877e-16 0)
(3 5.25046e-17 0)
(3 -5.59296e-16 0)
(3 -9.48014e-16 0)
(3 -7.81292e-16 0)
(3 1.33077e-17 0)
(3 -5.62619e-16 0)
(3 -1.23947e-15 0)
(3 -1.53218e-15 0)
(3 -1.88315e-15 0)
(3 -3.31046e-15 0)
(3 -3.96163e-15 0)
(3 -3.66079e-15 0)
(3 -3.63642e-15 0)
(3 -3.05547e-15 0)
(3 -2.39058e-15 0)
(3 -1.78357e-15 0)
(3 -2.84112e-16 0)
(3 1.13311e-15 0)
(3 1.41066e-15 0)
(3 1.77685e-15 0)
(3 3.7019e-15 0)
(3 3.8957e-15 0)
(3 2.26525e-15 0)
(3 1.43689e-15 0)
(3 3.82586e-16 0)
(3 -5.52054e-16 0)
(3 -2.5164e-16 0)
(3 -1.72288e-16 0)
(3 -1.09779e-15 0)
(3 -7.27493e-16 0)
(3 1.93773e-16 0)
(3 8.84701e-16 0)
(3 1.32734e-15 0)
(3 1.02052e-15 0)
(3 5.50939e-16 0)
(3 6.22555e-16 0)
(3 2.81982e-16 0)
(3 4.17599e-16 0)
(3 8.92459e-16 0)
(3 -2.30894e-16 0)
(3 -2.37303e-15 0)
(3 -2.82843e-15 0)
(3 -2.43785e-15 0)
(3 -1.40245e-15 0)
(3 -8.69191e-16 0)
(3 4.09361e-16 0)
(3 2.58862e-15 0)
(3 3.47975e-15 0)
(3 3.36126e-15 0)
(3 2.15811e-15 0)
(3 2.3719e-15 0)
(3 1.49825e-15 0)
(3 8.5658e-16 0)
(3 5.19889e-16 0)
(3 4.9505e-16 0)
(3 6.77449e-16 0)
(3 1.30962e-15 0)
(3 3.24657e-16 0)
(3 -2.06072e-15 0)
(3 -2.40278e-15 0)
(3 -2.27305e-15 0)
(3 -2.51708e-15 0)
(3 -2.08268e-15 0)
(3 -2.54376e-15 0)
(3 -2.03926e-15 0)
(3 -1.43751e-15 0)
(3 -1.48557e-15 0)
(3 -2.28472e-15 0)
(3 -2.6426e-15 0)
(3 -2.89754e-15 0)
(3 -3.05703e-15 0)
(3 -2.77023e-15 0)
(3 -2.78342e-15 0)
(3 -3.20151e-15 0)
(3 -1.37942e-15 0)
(3 -3.54142e-16 0)
(3 1.28284e-16 0)
(3 1.25227e-15 0)
(3 1.03516e-15 0)
(3 3.3681e-16 0)
(3 1.31948e-16 0)
(3 -3.4705e-16 0)
(3 7.60826e-16 0)
(3 3.58458e-15 0)
(3 2.80613e-15 0)
(3 2.35973e-15 0)
(3 1.65029e-15 0)
(3 2.57271e-16 0)
(3 4.93695e-15 0)
(2.08547 0.126772 0)
(0.725389 0.166287 0)
(0.600685 0.142056 0)
(0.586988 0.117241 0)
(0.557252 0.115788 0)
(0.534999 0.124133 0)
(0.516351 0.129066 0)
(0.50448 0.132321 0)
(0.494253 0.136504 0)
(0.482002 0.140661 0)
(0.466881 0.14363 0)
(0.449125 0.145319 0)
(0.432229 0.145215 0)
(0.414717 0.145913 0)
(0.39311 0.14656 0)
(0.366414 0.146515 0)
(0.337325 0.147997 0)
(0.31051 0.146982 0)
(0.288284 0.146857 0)
(0.268857 0.147885 0)
(0.248684 0.15591 0)
(0.224605 0.161363 0)
(0.204205 0.163945 0)
(0.191559 0.160774 0)
(0.184817 0.155083 0)
(0.178672 0.147478 0)