/*--------------------------------*- C++ -*----------------------------------*\
  =========                 |
  \\      /  F ield         | OpenFOAM: The Open Source CFD Toolbox
   \\    /   O peration     | Website:  https://openfoam.org
    \\  /    A nd           | Version:  7
     \\/     M anipulation  |
\*---------------------------------------------------------------------------*/
FoamFile
{
    version     2.0;
    format      ascii;
    class       volScalarField;
    location    "1.9";
    object      p;
}
// * * * * * * * * * * * * * * * * * * * * * * * * * * * * * * * * * * * * * //

dimensions      [1 -1 -2 0 0 0 0];

internalField   nonuniform List<scalar> 
16192
(
6.32883
6.15095
5.88581
5.7851
5.78983
5.93182
6.10577
6.11142
6.04807
5.90807
5.69159
5.57407
5.54619
5.56914
5.68164
5.75302
5.72744
5.65783
5.52506
5.38733
5.32887
5.30907
5.31688
5.35574
5.35857
5.33195
5.27936
5.2165
5.164
5.13688
5.12073
5.11046
5.0902
5.05738
4.99696
4.93264
4.89633
4.8803
4.8773
4.89066
4.88085
4.85806
4.8108
4.73571
4.67262
4.6445
4.6288
4.62869
4.65245
4.65681
4.63449
4.5943
4.52489
4.44292
4.38552
4.3634
4.35033
4.34724
4.37193
4.40998
4.41298
4.393
4.3652
4.31067
4.22655
4.15615
4.12692
4.11686
4.1186
4.14905
4.1651
4.15448
4.13994
4.10078
4.03572
3.97748
3.95337
3.94232
3.93798
3.95193
3.96492
3.95434
3.93788
3.92016
3.8909
3.83794
3.78359
3.76478
3.7573
3.7514
3.74914
3.75738
3.76426
3.75316
3.73074
3.69824
3.65131
3.59991
3.56401
3.5492
3.54188
3.53777
3.54799
3.55928
3.55109
3.53846
3.51984
3.47771
3.4299
3.406
3.39495
3.38822
3.37891
3.36821
3.36133
3.35361
3.34293
3.32373
3.30049
3.29025
3.28162
3.27043
3.25275
3.22348
3.18321
3.14222
3.10656
3.08353
3.07368
3.07167
3.09396
3.12546
3.13136
3.12665
3.11791
3.10292
3.0673
3.00234
2.94309
2.91819
2.90954
2.9042
2.90394
2.92882
2.94912
2.94615
2.93808
2.92751
2.90571
2.8612
2.8214
2.80355
2.7931
2.78624
2.78122
2.7783
2.7775
2.77503
2.7698
2.76226
2.74334
2.71013
2.66987
2.64867
2.64122
2.63689
2.63557
2.64435
2.6534
2.64878
2.64156
2.62991
2.60289
2.55235
2.51099
2.49833
2.49255
2.48872
2.48873
2.49671
2.49728
2.49257
2.48606
2.47397
2.44885
2.41724
2.39975
2.39306
2.38963
2.38867
2.39142
2.39167
2.3892
2.38773
2.38381
2.37575
2.3619
2.3402
2.31694
2.29499
2.2793
2.27016
2.26544
2.262
2.25815
2.25352
2.2453
2.23064
2.21705
2.21114
2.20536
2.19972
2.19562
2.19294
2.18965
2.18785
2.18386
2.17828
2.17143
2.15852
2.1365
2.11546
2.09695
2.08261
2.07626
2.07361
2.0723
2.07176
2.07163
2.07083
2.0689
2.06558
2.06125
2.05522
2.04701
2.03258
2.01239
1.99774
1.99091
1.98612
1.9812
1.97568
1.9729
1.97151
1.9708
1.9708
1.97101
1.97085
1.96932
1.96438
1.9509
1.92506
1.90733
6.18571
5.92981
5.83775
5.84379
5.98166
6.15723
6.16592
6.10023
5.94526
5.72622
5.63321
5.60783
5.62685
5.73422
5.80391
5.77672
5.70591
5.56909
5.43074
5.37354
5.35364
5.36371
5.40528
5.40641
5.37751
5.32041
5.25141
5.20169
5.17893
5.16548
5.15428
5.13093
5.09208
5.028
4.961
4.91684
4.89878
4.89602
4.91822
4.91666
4.89826
4.85563
4.77968
4.7071
4.67154
4.65696
4.66173
4.69121
4.69788
4.67687
4.63896
4.56475
4.46752
4.41314
4.39659
4.38627
4.38251
4.40235
4.43819
4.44184
4.42216
4.39586
4.3456
4.27067
4.20207
4.1744
4.16259
4.15932
4.1801
4.1953
4.18423
4.16966
4.1315
4.06316
4.00221
3.97888
3.96813
3.96293
3.97475
3.9968
3.99329
3.9794
3.96066
3.92398
3.86117
3.79966
3.77412
3.76796
3.76194
3.76019
3.776
3.8007
3.80019
3.78415
3.75633
3.70173
3.6288
3.57963
3.55825
3.55055
3.54654
3.55524
3.57346
3.57449
3.56401
3.54631
3.51793
3.48058
3.45703
3.44423
3.4305
3.4141
3.39399
3.37412
3.35243
3.3293
3.30681
3.2959
3.29305
3.2971
3.30293
3.30066
3.28954
3.26884
3.22124
3.14628
3.09131
3.07246
3.0656
3.0609
3.06921
3.11651
3.14468
3.14144
3.1331
3.12078
3.09055
3.01764
2.94562
2.91987
2.91081
2.90469
2.90402
2.92263
2.95016
2.95325
2.94558
2.93496
2.91671
2.88528
2.84626
2.81529
2.79751
2.78604
2.77887
2.77254
2.76503
2.75762
2.75168
2.74804
2.74375
2.73283
2.71106
2.67901
2.65603
2.64763
2.64376
2.64138
2.63743
2.63131
2.6236
2.61272
2.59139
2.55489
2.52308
2.50767
2.50013
2.49591
2.4944
2.49383
2.48859
2.48309
2.47811
2.47065
2.45591
2.43556
2.41981
2.40646
2.39583
2.39
2.38665
2.38386
2.3798
2.37489
2.36906
2.361
2.35127
2.34559
2.33822
2.32486
2.30151
2.27606
2.26375
2.25978
2.25408
2.24353
2.22994
2.22293
2.22102
2.21874
2.21742
2.2155
2.21036
2.2019
2.19034
2.18083
2.17565
2.16707
2.15437
2.14479
2.13921
2.13295
2.12451
2.11038
2.09044
2.07845
2.07371
2.07054
2.06713
2.06405
2.06122
2.05752
2.0527
2.04682
2.04185
2.03837
2.03085
2.01303
1.9941
1.98387
1.97854
1.97378
1.96966
1.96732
1.96569
1.9654
1.96626
1.96575
1.96431
1.96175
1.95415
1.93418
1.90464
5.97878
5.90359
5.91146
6.04768
6.21286
6.21897
6.15218
5.99686
5.77707
5.67051
5.64366
5.67092
5.78549
5.85261
5.82482
5.75422
5.62073
5.47968
5.41993
5.40043
5.41349
5.45541
5.45213
5.42146
5.36472
5.29414
5.24159
5.2191
5.20628
5.19545
5.17128
5.13072
5.06056
4.98695
4.9454
4.92847
4.92857
4.95311
4.95196
4.93073
4.88602
4.81938
4.74884
4.71231
4.69708
4.69885
4.72933
4.74273
4.72168
4.68116
4.61029
4.51992
4.45144
4.42354
4.41074
4.40629
4.42807
4.46501
4.46673
4.44755
4.42373
4.37615
4.29685
4.23151
4.20698
4.19742
4.19769
4.22246
4.23589
4.22388
4.20347
4.15844
4.08822
4.02354
3.99368
3.98248
3.97579
3.98818
4.02177
4.02858
4.01678
4.00025
3.96739
3.90129
3.8259
3.78583
3.7749
3.76898
3.77116
3.79035
3.82138
3.82806
3.81533
3.7986
3.76364
3.69972
3.62602
3.59057
3.57725
3.56711
3.56295
3.56505
3.56062
3.55242
3.54125
3.52358
3.49745
3.48589
3.47902
3.47176
3.46131
3.4457
3.42023
3.37976
3.33284
3.30207
3.2889
3.28299
3.28441
3.30484
3.32379
3.32238
3.31091
3.2932
3.2491
3.16139
3.0973
3.07686
3.06767
3.06187
3.06142
3.0824
3.12954
3.14957
3.14323
3.1288
3.10058
3.04427
2.97825
2.94111
2.9242
2.91582
2.91198
2.91269
2.91732
2.92113
2.92202
2.91911
2.91206
2.89797
2.87597
2.85099
2.82168
2.79563
2.77476
2.76156
2.75285
2.74535
2.73898
2.73582
2.73962
2.73893
2.7315
2.71916
2.69515
2.66469
2.64684
2.63698
2.63169
2.62371
2.61068
2.59253
2.57532
2.55943
2.54302
2.52625
2.51482
2.50887
2.50211
2.49539
2.48947
2.48209
2.47257
2.46131
2.44952
2.4424
2.43621
2.42786
2.41432
2.3968
2.38584
2.38178
2.37767
2.37013
2.36026
2.35437
2.35042
2.34909
2.34598
2.33956
2.32835
2.30545
2.27687
2.25493
2.24033
2.22871
2.22182
2.21854
2.21647
2.21962
2.22534
2.2242
2.21919
2.21204
2.19856
2.17847
2.16504
2.15731
2.14723
2.13934
2.13715
2.13766
2.13702
2.13331
2.12027
2.09507
2.07732
2.06856
2.0626
2.05726
2.05254
2.04915
2.04729
2.04757
2.04685
2.04377
2.03847
2.02689
2.00618
1.98599
1.97821
1.97333
1.96873
1.96593
1.96416
1.96279
1.96174
1.96122
1.96006
1.95712
1.95229
1.93971
1.91035
5.95219
5.96605
6.11515
6.2747
6.27099
6.1986
6.03555
5.81441
5.72119
5.6988
5.72598
5.84192
5.90763
5.87528
5.79749
5.65481
5.52279
5.47181
5.45222
5.46728
5.50939
5.50313
5.46879
5.40439
5.33202
5.28642
5.26587
5.25437
5.24032
5.21305
5.16866
5.10105
5.02604
4.97761
4.95838
4.95819
4.98891
4.99507
4.97461
4.92622
4.84174
4.77386
4.7454
4.7316
4.7332
4.76278
4.77746
4.75835
4.72309
4.65334
4.55107
4.48629
4.4661
4.4548
4.45014
4.46689
4.4976
4.49719
4.47745
4.45133
4.4035
4.3345
4.26793
4.23111
4.22001
4.21954
4.24894
4.27823
4.26931
4.24959
4.20606
4.11984
4.03569
4.00502
3.99494
3.98892
3.99524
4.02963
4.06097
4.0552
4.04097
4.01597
3.95705
3.87733
3.82204
3.80233
3.7915
3.78327
3.78476
3.81424
3.84121
3.83799
3.82141
3.79095
3.74459
3.69322
3.65179
3.62958
3.61655
3.60445
3.59451
3.58382
3.57143
3.54858
3.51896
3.49925
3.49196
3.4892
3.49369
3.49007
3.47925
3.4651
3.43611
3.38223
3.32689
3.29716
3.28604
3.27958
3.27929
3.30709
3.33766
3.33625
3.32328
3.30392
3.26474
3.196
3.13096
3.09674
3.07989
3.07165
3.06868
3.0754
3.08917
3.10208
3.10886
3.10464
3.0879
3.05673
3.02232
2.99435
2.9672
2.94178
2.92663
2.91737
2.90961
2.90321
2.89677
2.89316
2.89553
2.8951
2.8871
2.8748
2.8536
2.81612
2.77691
2.75407
2.74457
2.73834
2.73292
2.73054
2.73784
2.74592
2.74278
2.73584
2.725
2.69959
2.66273
2.63781
2.62269
2.60955
2.59222
2.57486
2.56399
2.55957
2.55581
2.54976
2.53943
2.52421
2.50696
2.49191
2.48083
2.472
2.46208
2.45233
2.44832
2.44641
2.44439
2.44043
2.434
2.42047
2.39769
2.37646
2.36542
2.35809
2.35241
2.34894
2.35184
2.35788
2.35532
2.34941
2.34234
2.32658
2.29038
2.24838
2.23003
2.2246
2.22189
2.21929
2.21761
2.22165
2.22856
2.22681
2.22224
2.21683
2.20561
2.18015
2.1558
2.14916
2.14774
2.14782
2.14876
2.14913
2.14696
2.14356
2.1356
2.11929
2.09188
2.07019
2.06078
2.05536
2.05101
2.04587
2.04054
2.03711
2.03429
2.03213
2.03094
2.02846
2.01898
1.99983
1.98285
1.97556
1.97023
1.96572
1.96256
1.95978
1.95746
1.95606
1.95615
1.95419
1.9498
1.94131
1.91875
6.02792
6.17227
6.32784
6.32461
6.25042
6.07853
5.85508
5.75848
5.73527
5.76812
5.88883
5.95621
5.92713
5.85118
5.70668
5.56611
5.50942
5.49205
5.51473
5.56205
5.55487
5.52045
5.45601
5.37681
5.32563
5.30535
5.29488
5.28323
5.25599
5.20945
5.13042
5.05447
5.01592
4.99695
4.9961
5.02489
5.03091
5.01218
4.9671
4.89267
4.81549
4.77224
4.75564
4.75711
4.79246
4.81266
4.79349
4.75587
4.6907
4.60167
4.52788
4.49637
4.48325
4.47923
4.50001
4.52919
4.52342
4.50416
4.48008
4.43252
4.35475
4.28956
4.26356
4.2539
4.25302
4.27874
4.3069
4.29893
4.28444
4.24876
4.17376
4.0791
4.02722
4.00877
3.99754
3.99565
4.02576
4.07122
4.07568
4.06716
4.05064
4.00952
3.93159
3.8625
3.8414
3.83162
3.82219
3.81911
3.83206
3.83482
3.82281
3.81098
3.79159
3.75367
3.70729
3.68678
3.67871
3.67123
3.66258
3.65035
3.63144
3.60172
3.56146
3.52428
3.50055
3.48997
3.48477
3.49568
3.50816
3.50097
3.49119
3.47722
3.44441
3.38496
3.33268
3.3075
3.29457
3.28728
3.28514
3.2909
3.29985
3.30478
3.30132
3.28752
3.26088
3.22007
3.18412
3.15479
3.12718
3.10534
3.09357
3.0862
3.07879
3.07256
3.064
3.05563
3.04984
3.04661
3.03982
3.03114
3.01803
2.99742
2.96525
2.93101
2.90552
2.88992
2.88151
2.87611
2.87598
2.88653
2.88634
2.87818
2.86686
2.83989
2.78914
2.75547
2.74314
2.73656
2.73223
2.73426
2.74903
2.75944
2.75623
2.74767
2.73663
2.72014
2.69063
2.64629
2.61015
2.59052
2.57774
2.56948
2.56486
2.56159
2.56108
2.55793
2.5511
2.53937
2.51939
2.49534
2.4749
2.4624
2.45528
2.4514
2.4502
2.45305
2.45198
2.44888
2.44444
2.43602
2.41349
2.37911
2.35952
2.35348
2.34907
2.34518
2.34623
2.35808
2.36109
2.35547
2.34887
2.3358
2.29883
2.24843
2.22972
2.22587
2.22289
2.22026
2.22101
2.23077
2.23457
2.23163
2.22706
2.22115
2.20873
2.18328
2.15867
2.14804
2.14366
2.14119
2.13941
2.13786
2.13695
2.13644
2.13474
2.12996
2.11713
2.09129
2.06692
2.05518
2.04804
2.04235
2.03769
2.03413
2.03107
2.02875
2.02699
2.02323
2.01915
2.01298
1.99867
1.98127
1.97227
1.96764
1.96385
1.95998
1.95668
1.9542
1.9522
1.9513
1.94875
1.94239
1.92621
6.24671
6.38657
6.37319
6.29667
6.12357
5.89728
5.80035
5.77936
5.81629
5.94124
6.00513
5.97342
5.89358
5.74819
5.61263
5.56188
5.54299
5.56621
5.6152
5.60792
5.5705
5.50069
5.42096
5.37456
5.35364
5.34132
5.32606
5.29762
5.25137
5.18224
5.10246
5.04718
5.02618
5.02871
5.06623
5.07613
5.05326
5.00185
4.9189
4.8459
4.81358
4.79868
4.79626
4.82343
4.84435
4.82696
4.79391
4.72958
4.62644
4.55752
4.53658
4.52695
4.52531
4.54772
4.57146
4.56339
4.54352
4.51363
4.46027
4.38925
4.3266
4.28632
4.27163
4.26624
4.2912
4.33353
4.33244
4.31728
4.28179
4.21278
4.12085
4.0651
4.04377
4.02968
4.02142
4.03244
4.07297
4.09349
4.08612
4.06388
4.02616
3.96806
3.91135
3.88332
3.87398
3.86773
3.86728
3.87647
3.87282
3.85546
3.83112
3.79294
3.74457
3.7076
3.6953
3.69047
3.69706
3.71099
3.70535
3.69088
3.6637
3.61357
3.55607
3.51752
3.50019
3.48993
3.48386
3.49194
3.50745
3.50457
3.49153
3.47253
3.43994
3.39912
3.37106
3.34993
3.32775
3.31295
3.30232
3.29216
3.28327
3.27489
3.26436
3.25041
3.23261
3.22024
3.21079
3.19993
3.18476
3.16259
3.13211
3.1022
3.07926
3.05608
3.03096
3.01454
3.01106
3.02882
3.05031
3.05379
3.04817
3.03642
3.01249
2.96263
2.91068
2.88367
2.87255
2.8664
2.86196
2.86622
2.88333
2.88472
2.8743
2.85413
2.82002
2.77671
2.75107
2.74101
2.73519
2.7308
2.72868
2.73282
2.73866
2.73995
2.73522
2.72561
2.7037
2.65873
2.60728
2.58231
2.57379
2.56882
2.5659
2.5683
2.56893
2.56389
2.55765
2.54862
2.52807
2.49165
2.46764
2.46044
2.45617
2.45286
2.45154
2.45425
2.45547
2.45256
2.44853
2.44216
2.42602
2.39016
2.36132
2.3524
2.348
2.34465
2.34598
2.35961
2.3669
2.36161
2.35367
2.34071
2.31028
2.26322
2.23654
2.22984
2.22659
2.22417
2.22325
2.22818
2.22948
2.22359
2.21887
2.21406
2.20668
2.19188
2.17034
2.15257
2.14361
2.13932
2.13699
2.13537
2.13505
2.13449
2.13257
2.1301
2.12574
2.11235
2.08364
2.05842
2.04805
2.04273
2.03875
2.03545
2.03271
2.03121
2.03021
2.02732
2.0237
2.01868
2.0084
1.99277
1.97938
1.97251
1.96826
1.9645
1.96119
1.95758
1.95287
1.94689
1.94021
1.93258
1.9232
6.44941
6.42712
6.34287
6.15832
5.93538
5.84693
5.82562
5.86442
5.99388
6.05845
6.0244
5.93925
5.77998
5.64802
5.59898
5.58295
5.61348
5.66761
5.66079
5.62169
5.54874
5.46363
5.41455
5.39494
5.38415
5.37139
5.34346
5.29496
5.21367
5.13822
5.10003
5.07939
5.07841
5.11069
5.12026
5.09947
5.04854
4.95974
4.87765
4.83831
4.82392
4.82507
4.85597
4.87633
4.85812
4.82415
4.76539
4.67909
4.59974
4.5602
4.54703
4.54328
4.56958
4.60488
4.59943
4.58224
4.55891
4.50897
4.42353
4.35126
4.31787
4.30503
4.2976
4.31121
4.34988
4.35608
4.34267
4.31243
4.24849
4.14992
4.09297
4.07582
4.0649
4.05963
4.0751
4.10672
4.10792
4.09257
4.07342
4.039
3.97369
3.92085
3.90805
3.90541
3.90478
3.91586
3.9308
3.92669
3.90697
3.86889
3.81063
3.74754
3.71139
3.69677
3.69148
3.69897
3.7282
3.73741
3.72879
3.71401
3.68065
3.61928
3.5594
3.52865
3.5121
3.50053
3.49318
3.4869
3.48123
3.47357
3.46358
3.44659
3.42001
3.40624
3.39845
3.38944
3.376
3.35355
3.32266
3.29534
3.27503
3.25495
3.22999
3.21281
3.20788
3.2165
3.23033
3.23321
3.22558
3.21159
3.18597
3.13973
3.08215
3.03225
3.00447
2.99309
2.98774
2.99731
3.04437
3.0681
3.06353
3.05384
3.0387
3.00182
2.93486
2.88927
2.87298
2.86335
2.85707
2.85238
2.85121
2.85512
2.85849
2.85467
2.83928
2.81364
2.78051
2.75335
2.73983
2.73208
2.72692
2.72625
2.72921
2.72713
2.72161
2.71388
2.70078
2.66923
2.6202
2.58823
2.57734
2.57153
2.56757
2.56789
2.57308
2.57116
2.56536
2.55671
2.53277
2.48921
2.46705
2.46157
2.45728
2.45335
2.45193
2.45768
2.45626
2.45187
2.4478
2.44295
2.43534
2.41657
2.38196
2.35837
2.35075
2.34626
2.34251
2.34188
2.34639
2.3441
2.33776
2.32933
2.31474
2.28984
2.2626
2.24155
2.23229
2.22861
2.22697
2.23033
2.23086
2.22377
2.21634
2.21027
2.20367
2.19521
2.18252
2.16935
2.15425
2.14253
2.13739
2.13497
2.13625
2.13721
2.13554
2.1328
2.12795
2.11787
2.10194
2.08328
2.06363
2.0499
2.04161
2.03404
2.02697
2.02209
2.01812
2.01443
2.01099
2.00764
2.00429
1.9998
1.99329
1.98402
1.97327
1.96621
1.96137
1.95653
1.95082
1.94296
1.93227
1.92274
1.91608
6.47875
6.39042
6.20136
5.97847
5.88732
5.86679
5.91126
6.04355
6.10608
6.07362
5.99165
5.83646
5.69011
5.63414
5.61859
5.65464
5.71641
5.71134
5.6712
5.59599
5.50756
5.45759
5.43741
5.42571
5.41061
5.38381
5.34028
5.27211
5.19118
5.13559
5.11416
5.11888
5.15975
5.16949
5.14485
5.09046
5.00653
4.92106
4.8785
4.86312
4.861
4.88717
4.90913
4.89251
4.8628
4.80698
4.70985
4.62925
4.59882
4.58675
4.58269
4.60363
4.63308
4.6246
4.60661
4.58698
4.54448
4.47505
4.40258
4.35789
4.33997
4.33147
4.34215
4.36696
4.35942
4.33894
4.30938
4.25692
4.17537
4.11701
4.09893
4.08968
4.08746
4.1064
4.14904
4.16056
4.14434
4.11278
4.05906
3.98783
3.93548
3.91681
3.91121
3.9095
3.92954
3.96562
3.96957
3.95589
3.92449
3.86135
3.78585
3.73716
3.71308
3.70276
3.69909
3.72276
3.7556
3.75376
3.74138
3.71895
3.6786
3.63173
3.60096
3.57793
3.55253
3.52686
3.504
3.48226
3.46641
3.45037
3.42874
3.41606
3.41416
3.4155
3.41704
3.41314
3.40505
3.39111
3.36241
3.31493
3.2637
3.22513
3.20343
3.19416
3.19144
3.20706
3.24375
3.26228
3.25882
3.2473
3.22545
3.17009
3.08007
3.01904
2.99719
2.98821
2.98214
2.9852
3.01678
3.06147
3.07244
3.06496
3.05089
3.02646
2.9865
2.93139
2.88786
2.86703
2.85491
2.84715
2.83993
2.83402
2.83224
2.83763
2.8377
2.82849
2.81334
2.7886
2.75989
2.74159
2.73167
2.72558
2.71883
2.71088
2.70338
2.69507
2.68471
2.67053
2.64746
2.61937
2.59493
2.58346
2.579
2.58097
2.58551
2.58132
2.57461
2.56419
2.53827
2.49526
2.47083
2.46336
2.45888
2.45635
2.4589
2.46492
2.46362
2.45961
2.45505
2.44996
2.44296
2.43015
2.40915
2.38005
2.35754
2.34886
2.34376
2.3409
2.33792
2.33215
2.32294
2.31286
2.30492
2.29772
2.2871
2.27349
2.25436
2.23716
2.22785
2.2215
2.21719
2.21218
2.20573
2.19786
2.19017
2.18553
2.18401
2.18087
2.17369
2.16047
2.14475
2.13371
2.12778
2.12435
2.12047
2.11648
2.11332
2.11206
2.10936
2.10133
2.08858
2.06903
2.04903
2.03612
2.02768
2.02108
2.0155
2.01091
2.00742
2.00489
2.00374
2.00205
1.99876
1.99269
1.98195
1.97054
1.96315
1.95724
1.95014
1.94121
1.92891
1.91879
1.91508
6.43251
6.23649
6.01944
5.93655
5.91715
5.96578
6.1047
6.16351
6.12548
6.03416
5.86413
5.72965
5.68438
5.66636
5.69682
5.75912
5.7589
5.71709
5.63847
5.54877
5.49803
5.47846
5.4687
5.45555
5.42835
5.38053
5.29941
5.22861
5.19417
5.17475
5.17775
5.21546
5.22476
5.19903
5.14286
5.04197
4.9535
4.91789
4.90312
4.89802
4.91858
4.93742
4.92063
4.89444
4.84719
4.76629
4.67975
4.63009
4.61386
4.60626
4.62294
4.65752
4.65466
4.63935
4.61839
4.57461
4.50033
4.4278
4.39892
4.3865
4.37797
4.38567
4.41206
4.40874
4.3861
4.34718
4.2721
4.17191
4.12207
4.1075
4.10229
4.11111
4.14207
4.19251
4.21064
4.19795
4.16833
4.10741
4.01546
3.9513
3.92611
3.92017
3.91851
3.93971
3.99022
4.00164
3.98925
3.96766
3.92385
3.85067
3.78277
3.75169
3.73665
3.72648
3.72737
3.73502
3.73081
3.72413
3.71099
3.68649
3.65405
3.63939
3.62909
3.6166
3.59889
3.57049
3.53122
3.49234
3.45334
3.42222
3.4056
3.39933
3.40075
3.42565
3.43768
3.4341
3.42611
3.4148
3.38973
3.32904
3.25245
3.21099
3.19586
3.1881
3.18444
3.20159
3.25028
3.28072
3.27729
3.26679
3.24394
3.18822
3.08962
3.02187
3.00221
2.99333
2.98736
2.98874
3.0014
3.01608
3.02827
3.03953
3.04263
3.03385
3.01192
2.9828
2.94082
2.89087
2.85914
2.8413
2.83149
2.82462
2.81901
2.81944
2.83053
2.83288
2.82613
2.81539
2.79417
2.7606
2.73452
2.71773
2.7083
2.69873
2.68721
2.67592
2.66556
2.65963
2.65575
2.64691
2.63322
2.61605
2.59843
2.58566
2.57466
2.56619
2.55917
2.55086
2.53678
2.51083
2.48647
2.47202
2.46321
2.45753
2.45342
2.44997
2.44786
2.44637
2.44276
2.43791
2.43241
2.42754
2.42179
2.41051
2.38807
2.36098
2.34379
2.33323
2.32726
2.32024
2.3101
2.30033
2.29578
2.29342
2.29242
2.28858
2.27991
2.2615
2.23729
2.22094
2.21184
2.20738
2.20215
2.19347
2.18789
2.18559
2.18351
2.18185
2.18017
2.17599
2.16385
2.14286
2.12605
2.11739
2.11214
2.10762
2.10476
2.10324
2.10331
2.1019
2.09813
2.08964
2.07345
2.05112
2.03165
2.02065
2.01511
2.01047
2.00589
2.00247
1.99945
1.9956
1.99139
1.98828
1.98528
1.97832
1.96614
1.95844
1.9527
1.94257
1.92943
1.92096
1.9169
6.26326
6.05525
5.9795
5.96163
6.01613
6.156
6.21333
6.17797
6.09129
5.92552
5.77167
5.71438
5.70043
5.74055
5.80896
5.80597
5.76022
5.67896
5.58672
5.53317
5.51351
5.50504
5.49365
5.46973
5.42999
5.35823
5.2767
5.22443
5.20478
5.21275
5.26015
5.27336
5.25016
5.19948
5.10823
5.00593
4.94973
4.93228
4.92638
4.94867
4.9673
4.95149
4.92688
4.88263
4.80567
4.71868
4.67245
4.65715
4.64919
4.66163
4.68968
4.68191
4.66353
4.64412
4.60547
4.53426
4.46274
4.4212
4.40532
4.39661
4.40738
4.44126
4.44397
4.42738
4.39501
4.32426
4.21236
4.14351
4.12022
4.10974
4.10388
4.12706
4.20074
4.24772
4.24139
4.21811
4.16944
4.08231
3.99953
3.95939
3.94743
3.94184
3.94801
3.9803
3.98653
3.97931
3.96651
3.93781
3.89023
3.84275
3.81185
3.79634
3.78767
3.78131
3.76844
3.75068
3.73364
3.70923
3.67513
3.65079
3.64252
3.64096
3.64125
3.63511
3.62361
3.60597
3.57027
3.50878
3.44863
3.41445
3.40121
3.39415
3.39023
3.40542
3.44656
3.45214
3.44202
3.42839
3.40204
3.34045
3.25618
3.2132
3.1997
3.19188
3.18866
3.20815
3.26224
3.28796
3.28226
3.26611
3.242
3.19161
3.12258
3.06892
3.03674
3.01744
3.00721
3.00249
3.00358
3.00253
2.99808
2.99714
3.00578
3.01677
3.0142
3.00206
2.98196
2.94298
2.88221
2.8429
2.82804
2.82113
2.81609
2.81325
2.82033
2.8381
2.83915
2.82732
2.81032
2.78517
2.75012
2.71982
2.69852
2.68474
2.67267
2.66356
2.65842
2.65505
2.65466
2.65625
2.65338
2.64483
2.62704
2.59907
2.57739
2.56409
2.55152
2.53818
2.52626
2.51551
2.50442
2.49231
2.47706
2.46149
2.45226
2.44761
2.44343
2.43989
2.4368
2.43316
2.42997
2.42786
2.4261
2.42161
2.41062
2.38675
2.35492
2.33201
2.31618
2.3036
2.29602
2.29351
2.29257
2.29248
2.29298
2.29253
2.28951
2.28214
2.26077
2.22993
2.2107
2.2014
2.19731
2.19551
2.19534
2.19499
2.19406
2.19235
2.18943
2.18501
2.17479
2.15437
2.12877
2.11215
2.10605
2.10319
2.10095
2.10004
2.10244
2.10097
2.09855
2.09639
2.09127
2.073
2.04147
2.0233
2.01679
2.01153
2.00559
1.99972
1.99594
1.99373
1.99169
1.98967
1.98788
1.98356
1.97283
1.95848
1.94485
1.93377
1.92538
1.92153
1.9188
6.09866
6.02535
6.00971
6.07314
6.22031
6.26957
6.22718
6.13116
5.95326
5.81459
5.77027
5.7541
5.78891
5.85779
5.85797
5.81152
5.7223
5.62209
5.56825
5.54827
5.54127
5.53201
5.50848
5.46939
5.39826
5.32224
5.28088
5.26213
5.26561
5.30508
5.31617
5.29253
5.24461
5.15857
5.05567
5.00042
4.98101
4.96929
4.97703
4.99779
4.98678
4.96403
4.92607
4.85462
4.76132
4.70663
4.68816
4.67789
4.68218
4.71503
4.72337
4.70725
4.68434
4.64025
4.56791
4.49566
4.45505
4.43998
4.43168
4.43831
4.46791
4.47089
4.45314
4.42348
4.36569
4.2676
4.18417
4.14649
4.13374
4.12762
4.1425
4.20633
4.25667
4.24837
4.23178
4.20169
4.1368
4.05786
4.01648
4.00218
3.99374
3.99449
4.00729
4.00233
3.98783
3.96928
3.93601
3.88338
3.84767
3.83692
3.8349
3.83847
3.84159
3.83165
3.81004
3.77414
3.72433
3.67692
3.6501
3.6393
3.6331
3.63797
3.65319
3.64993
3.63797
3.62355
3.59473
3.5295
3.45498
3.42035
3.40655
3.39813
3.39312
3.39272
3.40458
3.42231
3.42544
3.41742
3.39894
3.35669
3.29537
3.24783
3.22391
3.21406
3.21336
3.22822
3.24196
3.24713
3.2432
3.2282
3.20421
3.17102
3.13747
3.11239
3.09003
3.0652
3.03919
3.01896
3.00455
2.99359
2.98418
2.97718
2.97501
2.98799
3.0052
3.00143
2.9921
2.97665
2.93856
2.87625
2.83595
2.81991
2.8117
2.80532
2.79985
2.80056
2.81329
2.81703
2.80776
2.79637
2.7742
2.73338
2.69503
2.67325
2.66388
2.65894
2.65548
2.65466
2.65862
2.6638
2.66171
2.6554
2.64559
2.62523
2.59279
2.56295
2.5427
2.52864
2.51991
2.51568
2.51232
2.50709
2.49839
2.48258
2.46077
2.44601
2.43953
2.43463
2.43061
2.42845
2.42875
2.42829
2.42615
2.42252
2.41714
2.40612
2.37783
2.33445
2.3037
2.2936
2.2901
2.28779
2.28881
2.29769
2.30166
2.30056
2.29781
2.29226
2.27713
2.24421
2.21495
2.20255
2.19445
2.18926
2.18638
2.1844
2.18341
2.18253
2.18022
2.17685
2.17205
2.16123
2.13804
2.11443
2.10526
2.10213
2.10122
2.10357
2.10903
2.11048
2.10815
2.10548
2.10024
2.08523
2.06048
2.03575
2.02243
2.01496
2.0087
2.00282
1.99732
1.99325
1.98966
1.98551
1.98145
1.97911
1.97581
1.96113
1.93749
1.92773
1.92418
1.92154
1.92072
6.08553
6.0694
6.13465
6.27688
6.32132
6.27987
6.1852
6.00866
5.85553
5.80125
5.78995
5.83426
5.90894
5.90945
5.86397
5.77961
5.67371
5.60714
5.58402
5.57667
5.5712
5.54862
5.5134
5.44079
5.36078
5.31394
5.29708
5.30285
5.34547
5.36147
5.33875
5.29164
5.20917
5.10425
5.04171
5.02244
5.01516
5.02772
5.03575
5.01635
4.9889
4.95143
4.8928
4.81423
4.75056
4.72661
4.71614
4.71921
4.74708
4.74999
4.73074
4.70809
4.67418
4.60706
4.52462
4.48014
4.46567
4.45912
4.4664
4.49543
4.50199
4.48725
4.45897
4.40409
4.31174
4.23017
4.19501
4.1809
4.17178
4.17923
4.22137
4.24752
4.23825
4.2241
4.19912
4.15017
4.08741
4.05539
4.04726
4.04522
4.05406
4.05728
4.04593
4.02431
3.9879
3.93558
3.88085
3.8528
3.84354
3.83973
3.85233
3.88012
3.88092
3.86728
3.83857
3.77847
3.70906
3.66748
3.64972
3.64
3.63194
3.63242
3.65013
3.65697
3.6486
3.63326
3.60626
3.55807
3.50341
3.4603
3.43049
3.41303
3.40173
3.39344
3.38874
3.38825
3.38767
3.38302
3.37182
3.35206
3.32593
3.30171
3.27729
3.2592
3.25398
3.24912
3.23821
3.22735
3.21387
3.18947
3.15869
3.1459
3.14102
3.13736
3.13115
3.11658
3.08823
3.04597
3.00936
2.98653
2.97507
2.96787
2.96235
2.96165
2.97981
3.005
3.00364
2.99056
2.96753
2.92766
2.86767
2.82526
2.80912
2.80066
2.79459
2.78956
2.79104
2.80543
2.81225
2.80254
2.78309
2.74791
2.70021
2.67342
2.66406
2.65853
2.65422
2.65335
2.66539
2.67304
2.66947
2.66337
2.65558
2.64058
2.60544
2.56086
2.53661
2.5269
2.52146
2.517
2.51479
2.51276
2.50763
2.49788
2.47559
2.4483
2.4366
2.4316
2.42729
2.42404
2.42342
2.42865
2.42856
2.42514
2.42007
2.41233
2.39015
2.33981
2.3016
2.29162
2.28849
2.28619
2.28486
2.28821
2.29508
2.29726
2.29607
2.29207
2.28486
2.26681
2.23294
2.20724
2.1955
2.18874
2.18455
2.18171
2.17972
2.17838
2.17628
2.17375
2.17066
2.16572
2.15447
2.13689
2.11571
2.10238
2.09721
2.09532
2.09474
2.09602
2.09503
2.09291
2.09011
2.08483
2.07001
2.05282
2.04127
2.03074
2.01958
2.00858
1.99872
1.99221
1.98879
1.98527
1.98102
1.97608
1.96654
1.94855
1.93207
1.92542
1.92148
1.91827
1.91707
6.12197
6.20438
6.35205
6.37841
6.3269
6.22069
6.03342
5.89709
5.85522
5.84309
5.88528
5.96134
5.96438
5.91808
5.82717
5.71678
5.65654
5.63233
5.62366
5.61951
5.59664
5.56034
5.49377
5.41511
5.36121
5.34258
5.34214
5.381
5.40309
5.38045
5.33977
5.26625
5.15446
5.08472
5.06154
5.05173
5.061
5.08174
5.07006
5.04511
5.01075
4.94175
4.84147
4.78267
4.76373
4.75176
4.74767
4.76909
4.7903
4.77566
4.75389
4.71638
4.64696
4.57011
4.52165
4.50072
4.48888
4.48667
4.51087
4.5278
4.51557
4.48714
4.437
4.34576
4.26705
4.23197
4.22088
4.21712
4.23408
4.27322
4.28243
4.26673
4.2443
4.20129
4.13488
4.08119
4.06311
4.05928
4.06861
4.09856
4.11545
4.10687
4.08447
4.03735
3.96233
3.89499
3.86198
3.8497
3.84308
3.85041
3.8899
3.91359
3.90632
3.88789
3.85061
3.78065
3.70908
3.6755
3.65997
3.64867
3.63992
3.63513
3.63711
3.63766
3.62984
3.6181
3.60059
3.57154
3.54028
3.51517
3.48607
3.44819
3.41325
3.39047
3.37873
3.36823
3.3522
3.3378
3.33173
3.33452
3.33961
3.33911
3.33365
3.32015
3.29653
3.26825
3.24091
3.20957
3.17299
3.14331
3.1326
3.134
3.14633
3.16007
3.16001
3.14871
3.13015
3.08912
3.02615
2.9875
2.97135
2.96227
2.95495
2.94902
2.94675
2.95535
2.97405
2.97894
2.9695
2.95142
2.92025
2.86678
2.81994
2.80143
2.79265
2.78665
2.78108
2.77779
2.78087
2.78242
2.77448
2.75848
2.72989
2.6945
2.67166
2.66233
2.65735
2.65458
2.65719
2.67051
2.67332
2.6679
2.66084
2.64739
2.6118
2.56029
2.53825
2.53141
2.52618
2.5222
2.51876
2.51386
2.50858
2.50277
2.49244
2.46792
2.44003
2.42769
2.42257
2.41821
2.41493
2.41784
2.4304
2.42982
2.42426
2.41625
2.39784
2.35789
2.31289
2.29442
2.28902
2.28637
2.28524
2.28927
2.29747
2.30003
2.29848
2.29537
2.28973
2.2775
2.25355
2.2228
2.20393
2.19505
2.18784
2.18187
2.17762
2.17379
2.16967
2.16592
2.16248
2.15868
2.15538
2.1496
2.13552
2.11142
2.09697
2.09303
2.0928
2.09095
2.0874
2.08241
2.07641
2.06984
2.06256
2.05897
2.05578
2.04962
2.03893
2.02492
2.00906
1.99532
1.99026
1.98882
1.98625
1.97671
1.95717
1.9367
1.92826
1.92468
1.92114
1.91787
1.91663
6.27648
6.42251
6.44086
6.38663
6.27069
6.0717
5.93441
5.88658
5.87781
5.92747
6.00958
6.0159
5.96901
5.88189
5.77038
5.69961
5.67337
5.66655
5.67178
5.65127
5.61605
5.54165
5.45215
5.40579
5.38881
5.38533
5.41154
5.41957
5.39401
5.36169
5.3075
5.22018
5.14104
5.10742
5.0923
5.0902
5.11135
5.10889
5.08885
5.0654
5.01248
4.91297
4.82326
4.78393
4.76889
4.76186
4.78198
4.81593
4.8076
4.79239
4.76306
4.69704
4.6026
4.5516
4.53633
4.52841
4.53011
4.54895
4.54924
4.52926
4.49942
4.44999
4.37203
4.29992
4.26412
4.25471
4.25308
4.27651
4.32599
4.34129
4.32532
4.29119
4.22836
4.14047
4.08474
4.06672
4.06039
4.06365
4.10026
4.1463
4.14845
4.13416
4.10206
4.03518
3.94934
3.89236
3.87003
3.8613
3.86085
3.89001
3.91559
3.90795
3.89624
3.87767
3.83917
3.78161
3.73703
3.71035
3.6864
3.66805
3.65591
3.64476
3.63348
3.62276
3.61072
3.59594
3.57784
3.56434
3.55376
3.541
3.5244
3.49826
3.45518
3.40744
3.36892
3.34033
3.32003
3.30901
3.30592
3.32013
3.35057
3.37035
3.37464
3.36617
3.34572
3.3038
3.23779
3.17197
3.13634
3.12272
3.11652
3.12277
3.15784
3.18167
3.17632
3.16388
3.1497
3.12222
3.06371
3.0017
2.97399
2.9606
2.95148
2.94434
2.93841
2.93471
2.93838
2.95593
2.96686
2.95999
2.94258
2.9159
2.86976
2.81772
2.79247
2.78087
2.7739
2.76672
2.76048
2.75743
2.75672
2.75318
2.7442
2.72555
2.69901
2.67693
2.66705
2.66228
2.66105
2.66747
2.67289
2.66735
2.65842
2.64586
2.61732
2.57596
2.54973
2.53772
2.53047
2.52521
2.52114
2.51781
2.51409
2.51004
2.50283
2.48288
2.44782
2.42738
2.42106
2.41698
2.41349
2.41139
2.41085
2.40964
2.40641
2.40123
2.39268
2.37431
2.34648
2.31618
2.29731
2.28933
2.28487
2.28173
2.27988
2.28136
2.28218
2.27966
2.27683
2.27321
2.26522
2.24864
2.22443
2.20351
2.18979
2.17906
2.17279
2.16871
2.16533
2.16225
2.15979
2.15863
2.15723
2.15361
2.14754
2.13401
2.11046
2.09194
2.08594
2.08383
2.07966
2.07184
2.06179
2.05682
2.05525
2.05735
2.06061
2.0575
2.0514
2.04334
2.03104
2.01374
1.99842
1.98734
1.9774
1.96189
1.94017
1.93032
1.92682
1.9235
1.92084
1.91937
1.9207
6.49037
6.5
6.44128
6.32092
6.1216
5.98134
5.93719
5.9282
5.97907
6.06281
6.06606
6.01593
5.92324
5.80608
5.74433
5.72037
5.71279
5.72378
5.7088
5.67581
5.60774
5.51749
5.4533
5.4301
5.42029
5.4415
5.4628
5.4409
5.40742
5.35161
5.25452
5.17603
5.15101
5.1393
5.1374
5.15501
5.15329
5.1304
5.1031
5.05948
4.98074
4.88968
4.83663
4.81337
4.79853
4.79819
4.83053
4.84504
4.82917
4.79434
4.73542
4.65471
4.59465
4.5693
4.55691
4.55314
4.57508
4.59053
4.57401
4.54472
4.487
4.38696
4.31052
4.28459
4.27717
4.27738
4.30397
4.36077
4.38526
4.37232
4.34484
4.28947
4.19072
4.11201
4.07995
4.06846
4.06305
4.08657
4.1521
4.17055
4.16092
4.14172
4.09886
4.02229
3.96086
3.93183
3.91218
3.90028
3.9016
3.90687
3.89678
3.88527
3.86888
3.8415
3.8042
3.77322
3.75794
3.74587
3.73134
3.71022
3.68169
3.65519
3.63661
3.61816
3.59338
3.57001
3.5592
3.55508
3.55506
3.55046
3.54124
3.528
3.50047
3.43969
3.36671
3.32205
3.30503
3.29775
3.29499
3.31218
3.36156
3.40126
3.40412
3.39323
3.37062
3.31689
3.2263
3.15759
3.13058
3.11999
3.11308
3.12028
3.1591
3.18286
3.17946
3.1692
3.15595
3.13465
3.10156
3.05292
2.99987
2.96718
2.95127
2.94178
2.93484
2.92839
2.92332
2.92352
2.93681
2.94652
2.9408
2.9307
2.91118
2.86499
2.8083
2.78041
2.76649
2.75771
2.749
2.74189
2.73847
2.73982
2.73944
2.73389
2.7235
2.70765
2.68995
2.67568
2.66599
2.65908
2.65357
2.64785
2.63869
2.62404
2.60719