/*--------------------------------*- C++ -*----------------------------------*\
  =========                 |
  \\      /  F ield         | OpenFOAM: The Open Source CFD Toolbox
   \\    /   O peration     | Website:  https://openfoam.org
    \\  /    A nd           | Version:  7
     \\/     M anipulation  |
\*---------------------------------------------------------------------------*/
FoamFile
{
    version     2.0;
    format      ascii;
    class       volScalarField;
    location    "1.9";
    object      T;
}
// * * * * * * * * * * * * * * * * * * * * * * * * * * * * * * * * * * * * * //

dimensions      [0 0 0 1 0 0 0];

internalField   nonuniform List<scalar> 
16192
(
2.02907
2.01087
1.98442
1.97389
1.9738
1.98653
2.00207
2.00232
1.99557
1.98159
1.96017
1.94797
1.9445
1.9462
1.95647
1.96281
1.95965
1.95145
1.93703
1.9223
1.9155
1.9125
1.91265
1.91577
1.9159
1.91301
1.90738
1.90074
1.89515
1.89157
1.88871
1.88631
1.88268
1.87726
1.86901
1.86097
1.85659
1.85462
1.85416
1.85552
1.85474
1.85287
1.84776
1.83882
1.83106
1.82695
1.82385
1.82295
1.82421
1.82398
1.82049
1.81527
1.80738
1.79838
1.79212
1.78948
1.7876
1.78685
1.78891
1.79207
1.7916
1.78762
1.78251
1.77464
1.76414
1.75579
1.75214
1.75093
1.75126
1.75531
1.75758
1.75665
1.75512
1.7495
1.7401
1.73162
1.72732
1.72484
1.72355
1.72461
1.72582
1.7244
1.72258
1.72115
1.71811
1.71195
1.70536
1.70291
1.70168
1.70041
1.69957
1.7
1.70024
1.69796
1.6942
1.68971
1.68364
1.67699
1.67255
1.67086
1.66996
1.66922
1.6703
1.6714
1.66965
1.66698
1.66367
1.65732
1.65037
1.64681
1.64522
1.64439
1.64328
1.64191
1.64103
1.63995
1.63831
1.6352
1.63137
1.62918
1.62713
1.62447
1.62074
1.61539
1.60864
1.6019
1.59606
1.59221
1.59042
1.58996
1.59283
1.59708
1.59769
1.59661
1.59475
1.59206
1.58642
1.57642
1.56711
1.563
1.56143
1.56042
1.56024
1.56373
1.56648
1.56584
1.56422
1.56225
1.55864
1.55147
1.54485
1.54167
1.53966
1.53832
1.53731
1.53647
1.53586
1.53475
1.53302
1.53085
1.52688
1.5209
1.5138
1.50995
1.50852
1.50767
1.50737
1.5088
1.51031
1.50956
1.50833
1.50628
1.50167
1.49313
1.48594
1.48359
1.48242
1.4816
1.4815
1.48268
1.48274
1.48186
1.48066
1.47857
1.47455
1.46972
1.46738
1.467
1.46707
1.46765
1.46911
1.46947
1.46934
1.46915
1.46806
1.46569
1.46208
1.45732
1.4526
1.44847
1.44589
1.44479
1.44471
1.44509
1.44548
1.44553
1.44487
1.44255
1.44008
1.43906
1.43799
1.43673
1.43555
1.43459
1.43367
1.43321
1.43237
1.43161
1.43101
1.42954
1.42623
1.42296
1.41991
1.41757
1.41669
1.41636
1.4163
1.41628
1.41631
1.41623
1.41591
1.41532
1.41456
1.41338
1.41169
1.40863
1.40418
1.40068
1.39886
1.39769
1.39665
1.39583
1.39583
1.39599
1.39624
1.39662
1.39699
1.39712
1.39689
1.39563
1.39218
1.38613
1.38185
2.01292
1.98754
1.9778
1.97776
1.98983
2.0053
2.00573
1.99859
1.98303
1.96155
1.95219
1.94906
1.95039
1.96013
1.96629
1.96288
1.95437
1.93932
1.92453
1.91777
1.91463
1.915
1.91843
1.91843
1.91536
1.90939
1.90248
1.89738
1.89443
1.89194
1.88942
1.88523
1.87893
1.87011
1.86172
1.85634
1.85394
1.85352
1.85605
1.85624
1.85481
1.8503
1.84154
1.83291
1.82784
1.82484
1.82443
1.82602
1.82592
1.82252
1.81733
1.80866
1.79791
1.79222
1.79054
1.78926
1.78849
1.79022
1.79335
1.79296
1.78893
1.78388
1.77651
1.7669
1.75846
1.75495
1.75342
1.75311
1.756
1.75839
1.75749
1.75617
1.75111
1.74168
1.73294
1.72877
1.7263
1.72476
1.72539
1.72739
1.7268
1.72507
1.72329
1.71938
1.7121
1.70474
1.70185
1.70111
1.70009
1.69946
1.7009
1.70341
1.70287
1.69995
1.69587
1.68865
1.67944
1.67341
1.67072
1.6698
1.66932
1.6705
1.67289
1.67282
1.67062
1.66714
1.66237
1.65666
1.65299
1.65104
1.64915
1.64697
1.6443
1.64159
1.63862
1.63546
1.63223
1.63029
1.62942
1.62953
1.62962
1.62846
1.62563
1.62159
1.61393
1.60251
1.59391
1.59064
1.58929
1.58836
1.58931
1.5958
1.59949
1.59868
1.5968
1.59435
1.58945
1.57841
1.56722
1.56294
1.5613
1.56014
1.55988
1.56245
1.56629
1.56653
1.56492
1.56282
1.55956
1.55439
1.54799
1.5427
1.53949
1.53724
1.53574
1.53435
1.53256
1.53059
1.52883
1.52751
1.52597
1.52339
1.51933
1.51393
1.51016
1.50877
1.50807
1.50768
1.50704
1.50604
1.5047
1.50273
1.49901
1.49282
1.48731
1.48453
1.4831
1.48225
1.48193
1.4818
1.48079
1.47969
1.47871
1.4774
1.47505
1.47206
1.46998
1.4683
1.46718
1.46682
1.46678
1.46681
1.46652
1.4657
1.46423
1.46204
1.4594
1.45752
1.45547
1.4527
1.44873
1.44492
1.44367
1.44376
1.44365
1.44271
1.44066
1.43962
1.43944
1.43901
1.43858
1.43795
1.43662
1.43469
1.43229
1.43057
1.42976
1.42839
1.42654
1.42566
1.42542
1.42494
1.4239
1.42167
1.41812
1.41598
1.41513
1.41465
1.4142
1.41379
1.41341
1.41283
1.412
1.41084
1.40969
1.40872
1.40688
1.40301
1.39883
1.39649
1.3954
1.39463
1.39429
1.39433
1.39444
1.39475
1.39525
1.3953
1.39508
1.39428
1.3921
1.38732
1.38064
1.99103
1.98308
1.98315
1.99481
2.0091
2.00908
2.00157
1.98602
1.96462
1.95399
1.95095
1.95325
1.96375
1.96957
1.96602
1.95745
1.94278
1.9275
1.92019
1.91702
1.91757
1.92095
1.9205
1.91735
1.91167
1.90481
1.89953
1.89675
1.89452
1.89223
1.88801
1.88125
1.87138
1.86206
1.85676
1.85437
1.85414
1.85667
1.85691
1.85546
1.85103
1.84351
1.83525
1.83014
1.82713
1.82633
1.82789
1.82829
1.82466
1.81887
1.81068
1.80088
1.79357
1.79048
1.78894
1.78832
1.79058
1.79407
1.7936
1.78987
1.78513
1.77782
1.76744
1.75932
1.75608
1.7547
1.75476
1.75807
1.76013
1.7592
1.75757
1.75209
1.74281
1.73395
1.72918
1.72667
1.72487
1.7255
1.72861
1.72913
1.72741
1.72562
1.72234
1.71494
1.70628
1.70167
1.70042
1.69966
1.69978
1.70169
1.70494
1.70539
1.70324
1.70064
1.69581
1.6875
1.67797
1.67347
1.67183
1.6707
1.67035
1.67072
1.67008
1.66859
1.66631
1.66295
1.6586
1.65651
1.6552
1.65396
1.65247
1.65042
1.64711
1.64172
1.63532
1.63104
1.62905
1.628
1.62798
1.63027
1.6322
1.63141
1.62864
1.62505
1.61795
1.60479
1.59485
1.59137
1.58966
1.5885
1.58823
1.59085
1.59728
1.59967
1.59825
1.59531
1.59049
1.58179
1.57165
1.56568
1.56282
1.56126
1.56037
1.5602
1.56055
1.56076
1.56061
1.55964
1.55801
1.55531
1.5515
1.54722
1.54214
1.5375
1.53361
1.53104
1.52906
1.52706
1.52509
1.52385
1.52391
1.52321
1.52128
1.51898
1.51517
1.5104
1.50761
1.506
1.50518
1.50386
1.50162
1.49849
1.49544
1.49267
1.48989
1.48699
1.4849
1.48379
1.48265
1.48157
1.48036
1.47874
1.47689
1.47492
1.47308
1.47231
1.47184
1.47107
1.46938
1.46682
1.46531
1.46495
1.46453
1.46327
1.4612
1.45964
1.45828
1.45729
1.45589
1.45427
1.45246
1.44917
1.44501
1.44194
1.44009
1.43861
1.43779
1.43737
1.43698
1.43748
1.43833
1.43789
1.43651
1.43483
1.43227
1.42885
1.42688
1.42581
1.42438
1.42371
1.42386
1.42452
1.42492
1.42481
1.42286
1.41813
1.41473
1.41305
1.41208
1.41136
1.41073
1.41031
1.41013
1.41028
1.41008
1.40918
1.4077
1.40495
1.40059
1.39645
1.3949
1.39395
1.39328
1.39321
1.3933
1.39348
1.39362
1.39372
1.39356
1.39273
1.3912
1.38794
1.38134
1.98661
1.98727
2
2.01343
2.01232
2.00402
1.98758
1.96613
1.95714
1.95469
1.95703
1.96773
1.97351
1.96954
1.96011
1.94416
1.92961
1.92326
1.91991
1.92046
1.92366
1.92292
1.91941
1.91296
1.90622
1.90198
1.89957
1.89766
1.89514
1.89052
1.8834
1.87387
1.86415
1.85763
1.8546
1.85421
1.85728
1.85836
1.85699
1.8523
1.84307
1.83525
1.83135
1.8286
1.82775
1.82924
1.82967
1.82614
1.82057
1.81204
1.80077
1.79412
1.79219
1.79094
1.79033
1.79217
1.79529
1.79471
1.79119
1.7864
1.77922
1.77009
1.76159
1.75661
1.75491
1.75484
1.75856
1.76251
1.7619
1.76049
1.75563
1.74488
1.73388
1.72928
1.72709
1.72542
1.72533
1.72824
1.7316
1.73064
1.72888
1.72632
1.71976
1.71067
1.70441
1.70222
1.70094
1.69991
1.70008
1.70366
1.70663
1.70575
1.70274
1.69823
1.6921
1.6855
1.68012
1.67734
1.67587
1.67454
1.67344
1.6721
1.67017
1.66653
1.662
1.65871
1.65709
1.65635
1.65673
1.65597
1.65436
1.65255
1.64888
1.64183
1.63432
1.63016
1.62847
1.62737
1.62714
1.63052
1.63408
1.63332
1.63035
1.62656
1.62022
1.60984
1.59986
1.59437
1.59152
1.58993
1.58917
1.58972
1.59119
1.59243
1.59279
1.59151
1.5881
1.58293
1.57749
1.57294
1.56847
1.5642
1.56151
1.55969
1.55817
1.55694
1.55559
1.55459
1.55463
1.55414
1.55227
1.54984
1.54606
1.53966
1.53282
1.52839
1.52621
1.52461
1.52302
1.52196
1.52228
1.52285
1.52189
1.52031
1.51855
1.51472
1.50901
1.50502
1.50261
1.50046
1.49749
1.49446
1.49251
1.4916
1.49082
1.48969
1.48793
1.48538
1.48248
1.47984
1.47776
1.47604
1.47419
1.47252
1.47203
1.47202
1.47217
1.4722
1.47192
1.47026
1.46659
1.46302
1.46124
1.45992
1.45855
1.45744
1.45759
1.45789
1.45684
1.45517
1.45402
1.45199
1.44662
1.43993
1.43741
1.4369
1.43668
1.43632
1.43589
1.43646
1.43751
1.43695
1.43568
1.43445
1.43254
1.42839
1.42444
1.42376
1.42396
1.42461
1.42548
1.42606
1.4261
1.42596
1.42478
1.42191
1.41675
1.41259
1.41088
1.41005
1.40952
1.40879
1.40789
1.40731
1.40672
1.40607
1.4055
1.40463
1.40248
1.39867
1.39533
1.3939
1.39303
1.39259
1.3924
1.39221
1.39206
1.392
1.39212
1.39163
1.39028
1.38786
1.38272
1.99217
2.00439
2.01714
2.01584
2.00695
1.98942
1.96782
1.95856
1.95612
1.95919
1.97056
1.97669
1.97314
1.96397
1.94781
1.93219
1.92478
1.92152
1.92265
1.92612
1.92521
1.92164
1.91535
1.90807
1.90339
1.90128
1.89979
1.89773
1.89326
1.88576
1.87463
1.86462
1.85913
1.85585
1.85518
1.85774
1.8587
1.85755
1.85351
1.84588
1.8375
1.83199
1.8289
1.8281
1.83013
1.83094
1.82737
1.82131
1.81328
1.80342
1.79545
1.79206
1.79067
1.79034
1.79295
1.79613
1.79525
1.79222
1.78799
1.7809
1.77072
1.7624
1.75875
1.75706
1.75674
1.7598
1.76365
1.76313
1.76229
1.75862
1.74968
1.73804
1.73123
1.7281
1.72572
1.72473
1.72714
1.73183
1.73222
1.73107
1.72911
1.72458
1.7157
1.7077
1.70544
1.70449
1.7035
1.70316
1.70476
1.70492
1.70297
1.70073
1.69748
1.69223
1.68624
1.68364
1.68267
1.68192
1.68111
1.67981
1.6775
1.67355
1.66786
1.66241
1.65877
1.65688
1.65586
1.65701
1.65832
1.65711
1.65567
1.65393
1.64973
1.64184
1.63478
1.63135
1.6295
1.62828
1.62775
1.62811
1.62861
1.62861
1.62725
1.62419
1.61963
1.61324
1.60749
1.60272
1.59834
1.59472
1.59244
1.59079
1.58909
1.58748
1.58542
1.58338
1.5818
1.58065
1.57914
1.57748
1.57506
1.57149
1.56619
1.5606
1.55628
1.55364
1.55217
1.55106
1.55081
1.55192
1.55147
1.54954
1.54719
1.54248
1.53393
1.52777
1.52503
1.52331
1.52209
1.52203
1.52347
1.52437
1.52339
1.52141
1.51938
1.51684
1.5124
1.50537
1.49938
1.49608
1.49388
1.49243
1.49155
1.4908
1.49047
1.48969
1.48846
1.48654
1.48323
1.47909
1.47551
1.47337
1.47224
1.47172
1.47163
1.47234
1.47243
1.47258
1.47266
1.47217
1.46891
1.46297
1.45943
1.45826
1.45725
1.45609
1.45587
1.45701
1.45709
1.45557
1.45446
1.45291
1.44764
1.43957
1.43689
1.43655
1.43622
1.43575
1.4358
1.43735
1.43785
1.43706
1.43589
1.43467
1.43259
1.42848
1.42444
1.42292
1.42257
1.42258
1.42277
1.42297
1.42322
1.4235
1.42353
1.42308
1.42094
1.41612
1.41147
1.40941
1.40832
1.40752
1.40681
1.40618
1.40556
1.4049
1.40421
1.40306
1.40187
1.40049
1.39776
1.39448
1.39303
1.39254
1.3922
1.3918
1.39146
1.39117
1.3908
1.39047
1.38958
1.38767
1.38377
2.01025
2.02153
2.01907
2.00956
1.99159
1.9696
1.96023
1.95804
1.96154
1.97339
1.97932
1.97574
1.96646
1.9503
1.93492
1.92803
1.92438
1.92522
1.92852
1.92745
1.92335
1.91646
1.9093
1.90538
1.90339
1.90192
1.8997
1.89525
1.88813
1.87848
1.86804
1.86017
1.85624
1.85577
1.85889
1.86004
1.85827
1.85358
1.84523
1.8376
1.83385
1.83133
1.8301
1.83137
1.83222
1.82879
1.82301
1.81467
1.80303
1.79567
1.79358
1.79259
1.79248
1.79531
1.79815
1.79713
1.79452
1.79031
1.78298
1.77354
1.76541
1.75996
1.75758
1.7567
1.7595
1.76474
1.76504
1.76419
1.76069
1.75268
1.74153
1.73454
1.73135
1.72887
1.7271
1.72778
1.73177
1.73377
1.73258
1.72953
1.72518
1.71876
1.71241
1.70929
1.70847
1.70804
1.70812
1.70933
1.70869
1.70608
1.70233
1.697
1.69048
1.68556
1.68398
1.6834
1.68438
1.68647
1.686
1.68454
1.68125
1.67468
1.66679
1.66121
1.65847
1.65671
1.65558
1.65634
1.65803
1.65745
1.65548
1.65294
1.6487
1.64332
1.63967
1.63691
1.63387
1.63162
1.62979
1.62781
1.62594
1.624
1.62159
1.61872
1.61552
1.61309
1.61112
1.60897
1.60622
1.6025
1.5975
1.59244
1.58832
1.58406
1.57944
1.5762
1.57523
1.57712
1.57951
1.57974
1.57848
1.57626
1.57233
1.56449
1.55622
1.55168
1.54972
1.54866
1.5478
1.54821
1.55034
1.55014
1.54771
1.54364
1.53767
1.53018
1.52528
1.52293
1.52129
1.51997
1.51918
1.5194
1.51975
1.51969
1.51862
1.51705
1.51366
1.50661
1.49825
1.49393
1.49227
1.49123
1.49056
1.4908
1.49072
1.48954
1.4883
1.48681
1.48348
1.47738
1.47338
1.47221
1.47157
1.47116
1.47108
1.47177
1.47222
1.47225
1.47235
1.47221
1.47039
1.46452
1.4593
1.45758
1.45656
1.45555
1.45541
1.45699
1.45775
1.4564
1.45494
1.45326
1.44898
1.44161
1.43745
1.4367
1.43635
1.43593
1.43564
1.43628
1.43626
1.43465
1.43351
1.43269
1.43168
1.42957
1.42631
1.42343
1.42212
1.42171
1.42166
1.42175
1.42211
1.42233
1.42231
1.42215
1.4216
1.41938
1.41422
1.40964
1.40793
1.40713
1.40654
1.40608
1.40562
1.40516
1.40462
1.40357
1.40238
1.40105
1.39886
1.39599
1.39383
1.393
1.3926
1.39225
1.39192
1.39131
1.39021
1.38869
1.38687
1.38477
1.38237
2.02619
2.02272
2.01217
1.99273
1.9708
1.96218
1.95985
1.96346
1.97581
1.98205
1.97847
1.96889
1.95138
1.93641
1.92963
1.92614
1.92739
1.93087
1.92967
1.92507
1.91769
1.90998
1.90591
1.90436
1.9034
1.90174
1.89766
1.89031
1.87919
1.86939
1.86368
1.85965
1.85852
1.86078
1.86169
1.85986
1.85499
1.84618
1.83798
1.83361
1.83127
1.83074
1.83264
1.83352
1.83006
1.82426
1.81661
1.80677
1.79792
1.79342
1.79199
1.7917
1.79513
1.79952
1.79912
1.79726
1.79403
1.78727
1.77667
1.7677
1.76281
1.76054
1.75933
1.76079
1.76544
1.76646
1.7653
1.76234
1.75531
1.7438
1.73675
1.7342
1.73224
1.73105
1.73231
1.73538
1.73517
1.73278
1.73001
1.72572
1.71821
1.71238
1.7114
1.71142
1.71153
1.7133
1.7153
1.71475
1.712
1.70675
1.69885
1.69055
1.68582
1.68379
1.68304
1.68402
1.68801
1.68942
1.68862
1.68715
1.68314
1.67511
1.66691
1.66243
1.65986
1.65793
1.65647
1.65517
1.65406
1.65273
1.65122
1.64895
1.64549
1.64382
1.64297
1.64194
1.64018
1.63694
1.63223
1.6278
1.62425
1.62069
1.61629
1.61295
1.6117
1.61235
1.61348
1.6135
1.61171
1.60895
1.60459
1.59715
1.58788
1.5796
1.57453
1.57204
1.57069
1.57156
1.57769
1.58064
1.57963
1.57772
1.57519
1.56956
1.55918
1.55177
1.54891
1.54713
1.546
1.54504
1.54458
1.54463
1.54451
1.54299
1.53945
1.53462
1.52863
1.52355
1.52073
1.5189
1.51761
1.5173
1.51748
1.51695
1.51586
1.5146
1.51253
1.5075
1.49958
1.49412
1.49209
1.49088
1.48997
1.48981
1.49033
1.48983
1.48864
1.48718
1.48346
1.47637
1.47265
1.47177
1.47115
1.47059
1.47043
1.47163
1.47159
1.47138
1.47129
1.47108
1.47053
1.46811
1.46233
1.45796
1.45633
1.45513
1.45386
1.45329
1.45351
1.45278
1.45157
1.45064
1.44898
1.4455
1.44146
1.43813
1.43671
1.43608
1.4357
1.43605
1.43571
1.43351
1.43176
1.43103
1.43051
1.42966
1.42793
1.42612
1.42377
1.42193
1.42133
1.4212
1.42187
1.4223
1.42223
1.42196
1.42121
1.41944
1.41672
1.41367
1.41018
1.40772
1.40628
1.40486
1.40346
1.40236
1.40132
1.40025
1.39919
1.39816
1.39724
1.39637
1.39556
1.39444
1.39294
1.39193
1.39116
1.3902
1.38881
1.38686
1.3842
1.38168
1.37988
2.02621
2.01495
1.99479
1.97257
1.96334
1.96093
1.96499
1.97746
1.98356
1.98033
1.97156
1.95507
1.93884
1.93114
1.92764
1.92911
1.93299
1.93176
1.92668
1.91889
1.91076
1.90655
1.90498
1.90414
1.9026
1.899
1.89272
1.88354
1.87311
1.86511
1.86092
1.86044
1.86338
1.86403
1.86153
1.8563
1.84816
1.83967
1.83509
1.83291
1.83218
1.8339
1.83512
1.83202
1.82682
1.81931
1.8082
1.7994
1.79592
1.79441
1.79403
1.7967
1.80043
1.79975
1.79815
1.7959
1.79042
1.78169
1.77265
1.76674
1.76396
1.76258
1.76363
1.76645
1.76575
1.76373
1.76064
1.75483
1.74548
1.73848
1.73614
1.73462
1.73404
1.73574
1.7401
1.74099
1.73853
1.73429
1.72771
1.71932
1.71333
1.71153
1.7112
1.71124
1.71429
1.71904
1.71955
1.71782
1.71365
1.70523
1.69533
1.68886
1.68557
1.68416
1.6837
1.68686
1.6914
1.69132
1.69006
1.68752
1.68247
1.67629
1.67202
1.66866
1.66485
1.66091
1.65733
1.65393
1.65144
1.64904
1.64597
1.64437
1.64428
1.64458
1.64498
1.6447
1.64379
1.64182
1.63748
1.63021
1.62224
1.616
1.61209
1.61001
1.60916
1.61059
1.61494
1.61702
1.61609
1.61356
1.60962
1.60099
1.5871
1.57707
1.5729
1.57077
1.56914
1.56905
1.57294
1.57897
1.58016
1.57857
1.57592
1.57193
1.56583
1.55722
1.55017
1.54658
1.54431
1.5429
1.54147
1.53999
1.53918
1.53919
1.53831
1.5356
1.53223
1.52762
1.52247
1.51903
1.51709
1.516
1.5148
1.51344
1.5122
1.51087
1.50921
1.50688
1.50313
1.49855
1.49432
1.49217
1.49123
1.49138
1.49199
1.49114
1.48975
1.48789
1.48359
1.47661
1.47266
1.47156
1.47098
1.47074
1.47137
1.47265
1.47258
1.47228
1.47191
1.47145
1.47072
1.46901
1.46582
1.46084
1.45655
1.45457
1.45317
1.45218
1.45111
1.44965
1.44807
1.44696
1.44639
1.44586
1.4447
1.44298
1.4398
1.43652
1.43453
1.43292
1.43169
1.4302
1.42866
1.42754
1.42698
1.42692
1.42726
1.42735
1.42671
1.42469
1.42194
1.42
1.41904
1.41856
1.41797
1.4174
1.41709
1.41717
1.41704
1.41594
1.41396
1.41049
1.40672
1.40424
1.40245
1.40098
1.39968
1.3985
1.39754
1.3968
1.39643
1.39612
1.39581
1.39524
1.39383
1.39206
1.39079
1.38961
1.38803
1.38588
1.38286
1.38018
1.3789
2.01727
1.99622
1.97421
1.96549
1.96294
1.967
1.97989
1.98578
1.98211
1.97258
1.95478
1.94008
1.93394
1.93017
1.93107
1.93471
1.93379
1.92814
1.91974
1.91131
1.90691
1.90541
1.9048
1.9036
1.90038
1.89408
1.8837
1.87474
1.86949
1.86551
1.86467
1.86703
1.86754
1.86463
1.85884
1.84885
1.84033
1.83676
1.83474
1.83374
1.83534
1.83647
1.83358
1.82901
1.82253
1.81313
1.8034
1.79762
1.79566
1.79492
1.79706
1.80145
1.80143
1.80018
1.79796
1.79272
1.78389
1.77514
1.77113
1.769
1.76762
1.76829
1.77107
1.77065
1.76821
1.76407
1.75578
1.74424
1.73837
1.73658
1.73583
1.73663
1.73984
1.74523
1.74687
1.74484
1.74073
1.73326
1.72235
1.7148
1.71201
1.71159
1.71162
1.71488
1.72164
1.72318
1.72173
1.71894
1.71311
1.70348
1.69447
1.6902
1.68809
1.68677
1.68695
1.6881
1.68771
1.6871
1.6857
1.68276
1.6786
1.67665
1.67518
1.67324
1.67041
1.66605
1.66027
1.65464
1.64907
1.6447
1.64245
1.64168
1.64199
1.64563
1.64744
1.64712
1.64627
1.64477
1.64109
1.63206
1.62048
1.61376
1.61084
1.60903
1.60795
1.60954
1.61548
1.6192
1.6182
1.61579
1.61167
1.603
1.58803
1.57688
1.57294
1.57079
1.56912
1.56879
1.5697
1.57129
1.57263
1.57376
1.57386
1.57198
1.56816
1.56357
1.55698
1.54901
1.54369
1.54042
1.53856
1.5371
1.53563
1.53517
1.53572
1.53514
1.53284
1.5301
1.52613
1.52049
1.51608
1.51324
1.51182
1.51035
1.50857
1.50682
1.50515
1.50417
1.50351
1.50205
1.49971
1.49666
1.49351
1.49119
1.48911
1.48756
1.48631
1.48486
1.4825
1.47828
1.47449
1.47229
1.47101
1.4702
1.46969
1.46931
1.46916
1.46912
1.46874
1.46815
1.46751
1.46698
1.46632
1.46469
1.46077
1.45551
1.45195
1.44959
1.44819
1.44676
1.44505
1.44379
1.44358
1.44368
1.44419
1.44422
1.44324
1.4398
1.43478
1.43126
1.42936
1.4285
1.42748
1.42611
1.4258
1.42598
1.42627
1.42661
1.42689
1.42669
1.42479
1.42076
1.41742
1.41583
1.4149
1.41419
1.41395
1.414
1.4145
1.4147
1.41468
1.4136
1.41065
1.40632
1.40243
1.40007
1.3987
1.39746
1.39622
1.39539
1.3948
1.39417
1.3937
1.39361
1.39362
1.393
1.39097
1.38946
1.38818
1.38571
1.38239
1.38003
1.37875
1.99683
1.97556
1.9671
1.96445
1.96875
1.98133
1.98689
1.98348
1.97474
1.95809
1.94184
1.93428
1.93112
1.93293
1.93712
1.93579
1.9296
1.92084
1.91202
1.90716
1.90544
1.90491
1.90403
1.90147
1.89646
1.88776
1.87794
1.87071
1.86699
1.8668
1.87018
1.87092
1.8681
1.86272
1.85364
1.84357
1.83781
1.83578
1.83492
1.83685
1.83803
1.83558
1.83167
1.82564
1.81661
1.80687
1.80146
1.79947
1.79857
1.8001
1.80347
1.80285
1.80135
1.79963
1.79533
1.78716
1.77878
1.77353
1.77124
1.7699
1.77081
1.77429
1.77447
1.7725
1.76896
1.76119
1.74847
1.74055
1.73787
1.73658
1.73572
1.73817
1.74636
1.75143
1.75029
1.74683
1.7406
1.73016
1.72033
1.71567
1.71448
1.71406
1.71519
1.71969
1.72067
1.71994
1.71838
1.71457
1.70822
1.70183
1.69753
1.69531
1.69409
1.69324
1.69165
1.68953
1.68754
1.68462
1.68038
1.67736
1.67637
1.67611
1.67605
1.67498
1.67301
1.67017
1.66495
1.65638
1.64809
1.64335
1.64157
1.64069
1.64025
1.64262
1.6485
1.64936
1.64819
1.64637
1.64251
1.63352
1.62088
1.61382
1.61111
1.60932
1.60836
1.61024
1.61697
1.62
1.61858
1.61515
1.6107
1.60263
1.59176
1.58283
1.57702
1.57321
1.57084
1.56931
1.56873
1.56802
1.56683
1.56638
1.56714
1.56831
1.56752
1.56511
1.56174
1.55565
1.54609
1.53951
1.53663
1.5351
1.53385
1.53289
1.53327
1.53479
1.53412
1.53086
1.52711
1.52266
1.517
1.5121
1.50871
1.50665
1.50484
1.5035
1.50277
1.50222
1.50207
1.50221
1.50157
1.49991
1.49678
1.49201
1.48825
1.48592
1.48382
1.48163
1.47971
1.47803
1.4764
1.47466
1.47232
1.46989
1.46847
1.46786
1.46734
1.4669
1.46655
1.46614
1.46583
1.46573
1.46566
1.46506
1.46308
1.45856
1.45245
1.44798
1.44508
1.44296
1.44195
1.4418
1.4419
1.44227
1.44297
1.44346
1.44343
1.44243
1.43812
1.43187
1.42813
1.42657
1.42628
1.42635
1.42676
1.42727
1.42777
1.42808
1.42811
1.42782
1.42611
1.42217
1.41722
1.41397
1.41289
1.41254
1.41237
1.41244
1.41338
1.41351
1.41372
1.41393
1.41345
1.41006
1.40378
1.39999
1.39843
1.39706
1.39547
1.39403
1.39339
1.3933
1.39334
1.39348
1.39373
1.39351
1.39184
1.38905
1.38599
1.38326
1.38094
1.37954
1.37849
1.97783
1.96922
1.96659
1.97128
1.98412
1.98878
1.98463
1.9749
1.9572
1.94299
1.93736
1.93402
1.93541
1.93967
1.93868
1.93228
1.92248
1.913
1.90805
1.90606
1.90548
1.90473
1.90242
1.89795
1.88962
1.88082
1.87524
1.87168
1.87107
1.87369
1.87421
1.8712
1.866
1.85739
1.84722
1.84159
1.8394
1.83801
1.83871
1.84043
1.83864
1.83506
1.82983
1.82147
1.8111
1.80476
1.80245
1.80127
1.80179
1.80561
1.80672
1.80522
1.80308
1.79843
1.79045
1.78227
1.77739
1.77529
1.77404
1.77457
1.7775
1.77763
1.77536
1.77193
1.76552
1.75443
1.74485
1.74055
1.73911
1.73835
1.74003
1.74729
1.75276
1.75134
1.74867
1.74454
1.73658
1.72713
1.72225
1.72071
1.71996
1.72028
1.72227
1.72184
1.72028
1.718
1.71367
1.70675
1.70193
1.70024
1.69972
1.70005
1.70032
1.69899
1.69637
1.6921
1.68596
1.67997
1.67663
1.67529
1.67449
1.67511
1.67687
1.67617
1.67411
1.67177
1.66765
1.65875
1.6485
1.64369
1.64182
1.64077
1.64026
1.6404
1.64241
1.64502
1.64549
1.6444
1.6416
1.63521
1.62593
1.61828
1.61396
1.61183
1.61132
1.61245
1.61325
1.61329
1.61204
1.6087
1.60424
1.59849
1.59258
1.58788
1.58354
1.57886
1.57411
1.5703
1.56743
1.56531
1.56347
1.56201
1.56139
1.56285
1.56492
1.56388
1.56194
1.55929
1.55338
1.54352
1.53664
1.53346
1.53162
1.53005
1.52841
1.52794
1.52866
1.5284
1.52567
1.52304
1.51934
1.51305
1.50694
1.50351
1.50215
1.50146
1.50096
1.50083
1.50133
1.50202
1.5015
1.50013
1.49827
1.49481
1.48947
1.48452
1.48114
1.47887
1.47753
1.47693
1.47651
1.47584
1.4747
1.47238
1.46887
1.46649
1.46563
1.46499
1.4645
1.46434
1.46452
1.46453
1.46426
1.46364
1.46263
1.46054
1.45529
1.44731
1.44177
1.44033
1.44012
1.44002
1.44047
1.44255
1.44369
1.44384
1.44381
1.44307
1.44008
1.43359
1.42808
1.42593
1.42481
1.42447
1.42453
1.42477
1.42527
1.42573
1.42578
1.42558
1.42482
1.42274
1.41836
1.41382
1.41216
1.41182
1.41191
1.41278
1.41438
1.415
1.41503
1.4152
1.41476
1.41198
1.40706
1.40206
1.39907
1.39716
1.39545
1.39391
1.39288
1.39257
1.39241
1.39219
1.39206
1.39219
1.39202
1.38919
1.38388
1.38133
1.38016
1.37913
1.37845
1.97283
1.96994
1.97455
1.98657
1.99053
1.98625
1.97675
1.95974
1.94434
1.93761
1.93512
1.93761
1.94263
1.94175
1.93564
1.92637
1.9161
1.90971
1.90736
1.90663
1.90614
1.90396
1.90013
1.89215
1.88337
1.87731
1.87429
1.87412
1.87722
1.87817
1.8753
1.87003
1.86172
1.85128
1.84487
1.84274
1.84189
1.84308
1.84366
1.84117
1.83753
1.83257
1.82545
1.81663
1.80944
1.80658
1.80534
1.80566
1.80878
1.80921
1.80741
1.8053
1.80187
1.7946
1.78541
1.78024
1.77837
1.77743
1.77801
1.78088
1.7814
1.77938
1.77594
1.76969
1.75919
1.74983
1.7458
1.74419
1.74312
1.74398
1.7488
1.75156
1.75016
1.74782
1.74424
1.73809
1.73043
1.72657
1.72574
1.72563
1.72697
1.7276
1.72652
1.72413
1.71973
1.71307
1.70586
1.70199
1.70056
1.69983
1.7012
1.70455
1.70465
1.703
1.69958
1.69229
1.68372
1.67853
1.67632
1.67509
1.67399
1.67397
1.67605
1.67661
1.67501
1.67239
1.66834
1.66173
1.6543
1.64834
1.64426
1.64201
1.64065
1.63978
1.63946
1.63952
1.63949
1.63877
1.63687
1.63354
1.62922
1.62502
1.62066
1.61723
1.6157
1.6142
1.61169
1.60919
1.60625
1.60171
1.5964
1.59354
1.5918
1.5903
1.58833
1.58505
1.5799
1.57292
1.56685
1.56282
1.56073
1.55935
1.55823
1.55793
1.56023
1.56347
1.56291
1.5603
1.55626
1.54995
1.54044
1.53321
1.52991
1.52783
1.52618
1.52462
1.52425
1.52543
1.52586
1.5235
1.51983
1.51436
1.50709
1.50286
1.50141
1.50053
1.4998
1.49961
1.50146
1.50244
1.50163
1.5002
1.4986
1.49604
1.49037
1.4831
1.47922
1.47767
1.4768
1.47611
1.47588
1.47573
1.47519
1.47395
1.47053
1.46608
1.46424
1.4636
1.46305
1.46263
1.46258
1.46354
1.46349
1.46287
1.46197
1.46056
1.45667
1.44775
1.4409
1.43935
1.43912
1.4391
1.43919
1.4403
1.44189
1.4425
1.44244
1.44175
1.44016
1.43662
1.43045
1.42604
1.42433
1.42366
1.42355
1.42368
1.42401
1.42437
1.4244
1.4243
1.42394
1.42297
1.42064
1.41723
1.41323
1.4109
1.41037
1.41049
1.4109
1.41177
1.41207
1.41228
1.41225
1.41153
1.40861
1.40504
1.40241
1.39976
1.39693
1.39438
1.39261
1.39192
1.3918
1.39164
1.39146
1.39123
1.38985
1.38603
1.38214
1.38031
1.379
1.37775
1.37714
1.97285
1.97866
1.99096
1.9931
1.98775
1.97717
1.95928
1.9459
1.94085
1.93835
1.94069
1.94609
1.94557
1.93945
1.92959
1.919
1.91314
1.91054
1.90959
1.90922
1.90697
1.90314
1.89599
1.88766
1.88142
1.87857
1.878
1.88094
1.88247
1.87948
1.8748
1.86729
1.85608
1.84888
1.84635
1.84521
1.84608
1.84796
1.84638
1.84316
1.83894
1.831
1.81991
1.81318
1.81086
1.80942
1.80893
1.81123
1.81358
1.81213
1.81005
1.80631
1.79895
1.79051
1.78505
1.78257
1.78105
1.78065
1.78298
1.78452
1.78288
1.77927
1.77338
1.7629
1.75381
1.74975
1.74846
1.74801
1.75
1.75447
1.75532
1.75313
1.74997
1.74435
1.73606
1.72937
1.72711
1.72666
1.72781
1.73163
1.73392
1.73314
1.73076
1.72523
1.71586
1.70736
1.70299
1.70113
1.70002
1.70064
1.7052
1.70823
1.70741
1.70533
1.70091
1.69229
1.68334
1.6792
1.67729
1.67587
1.67467
1.67385
1.67387
1.67364
1.6719
1.66965
1.66677
1.66253
1.65827
1.65488
1.65096
1.64592
1.64138
1.63848
1.63704
1.63574
1.63356
1.6313
1.62988
1.62986
1.62991
1.62921
1.62751
1.62455
1.62024
1.61542
1.61071
1.60535
1.59912
1.5937
1.59111
1.59073
1.59132
1.59219
1.59146
1.58855
1.58484
1.57812
1.56826
1.56183
1.55883
1.55713
1.55578
1.55463
1.55405
1.55498
1.55712
1.55741
1.55522
1.5519
1.54696
1.53843
1.53039
1.52666
1.52456
1.52302
1.52141
1.52024
1.52021
1.5199
1.51792
1.51511
1.51093
1.50564
1.50199
1.50051
1.4997
1.4992
1.49949
1.50124
1.50143
1.50013
1.49867
1.49631
1.4906
1.48234
1.47871
1.47756
1.4767
1.47611
1.47565
1.47503
1.47441
1.47385
1.47267
1.46891
1.46418
1.46216
1.46147
1.46089
1.46045
1.46111
1.46335
1.46319
1.46214
1.46064
1.45733
1.4504
1.44249
1.43943
1.43882
1.43867
1.43875
1.44006
1.44191
1.44246
1.4422
1.4415
1.4401
1.43746
1.43311
1.42799
1.42517
1.42411
1.42338
1.42307
1.423
1.42284
1.42248
1.42205
1.42157
1.42083
1.41997
1.41866
1.41597
1.41161
1.40938
1.40915
1.40974
1.41004
1.41002
1.40974
1.40905
1.40801
1.4066
1.40572
1.40483
1.40309
1.40029
1.39708
1.39399
1.3919
1.39167
1.39194
1.39204
1.39091
1.38735
1.38292
1.38079
1.37967
1.3784
1.37712
1.37653
1.98348
1.99543
1.99673
1.99084
1.97937
1.96079
1.94759
1.94194
1.94018
1.94356
1.94971
1.94951
1.94349
1.9341
1.92329
1.91636
1.91361
1.91287
1.91336
1.91133
1.90779
1.90013
1.89087
1.88557
1.88316
1.88245
1.88445
1.88478
1.88141
1.87749
1.87172
1.86288
1.85469
1.85104
1.84931
1.84897
1.85088
1.85039
1.84783
1.84489
1.83886
1.82797
1.81807
1.81355
1.81172
1.81084
1.81289
1.81654
1.81567
1.81416
1.81127
1.80438
1.79411
1.78845
1.78668
1.78567
1.78573
1.78752
1.78727
1.78452
1.78074
1.77487
1.76576
1.75733
1.75314
1.752
1.75178
1.75447
1.76015
1.7618
1.75967
1.75534
1.74751
1.7366
1.72954
1.72722
1.72641
1.72677
1.73115
1.73686
1.73724
1.73584
1.73238
1.72435
1.71368
1.70636
1.70327
1.70192
1.70171
1.70506
1.70814
1.70704
1.70552
1.70336
1.6988
1.69171
1.68619
1.68296
1.68002
1.67765
1.67592
1.67418
1.67233
1.67044
1.66822
1.66564
1.66277
1.66066
1.65909
1.65743
1.65537
1.65203
1.64636
1.63996
1.63471
1.63081
1.62789
1.62605
1.62531
1.62679
1.63028
1.63224
1.63233
1.63013
1.62605
1.61931
1.60931
1.59902
1.59277
1.58973
1.58799
1.5881
1.59166
1.59415
1.59258
1.58942
1.5864
1.58183
1.57276
1.56295
1.55819
1.55564
1.55387
1.55251
1.55129
1.55038
1.55059
1.55258
1.55371
1.55213
1.54873
1.54422
1.53675
1.52802
1.52326
1.52076
1.51917
1.51749
1.51597
1.51501
1.51448
1.5136
1.51217
1.50957
1.5057
1.50222
1.50061
1.49979
1.4995
1.50034
1.50092
1.49963
1.49768
1.49533
1.49063
1.48397
1.47963
1.47766
1.47657
1.47585
1.47533
1.47498
1.47464
1.47434
1.47364
1.47077
1.46503
1.4616
1.46061
1.46005
1.45954
1.45926
1.45919
1.45895
1.45827
1.45724
1.45568
1.45251
1.44791
1.44286
1.43985
1.43874
1.43823
1.43804
1.43791
1.43825
1.43837
1.43769
1.43683
1.43584
1.4343
1.43174
1.42809
1.42497
1.42314
1.42183
1.42135
1.42111
1.42085
1.42052
1.42019
1.41998
1.4196
1.41865
1.41732
1.41492
1.41099
1.40824
1.40785
1.40802
1.40791
1.40706
1.40544
1.40468
1.40443
1.40478
1.40514
1.40413
1.40222
1.40013
1.39767
1.39472
1.39246
1.39104
1.38977
1.38731
1.38317
1.38103
1.38008
1.37899
1.3779
1.37698
1.37681
2.00028
2.00061
1.99425
1.98248
1.96398
1.9506
1.94565
1.94405
1.94772
1.95439
1.95395
1.94782
1.93799
1.92664
1.92046
1.91787
1.91702
1.91804
1.91651
1.91317
1.90636
1.89729
1.89053
1.88772
1.88642
1.88813
1.88966
1.88685
1.88282
1.87686
1.86688
1.85862
1.85579
1.85434
1.854
1.8555
1.85506
1.85226
1.84906
1.8442
1.83565
1.82571
1.81974
1.81704
1.81524
1.81506
1.81832
1.81983
1.81817
1.81458
1.80845
1.79977
1.79321
1.79034
1.78884
1.7883
1.79048
1.79189
1.78964
1.78589
1.77896
1.7673
1.75838
1.75519
1.75419
1.75416
1.75718
1.76363
1.76631
1.76471
1.76134
1.75451
1.7425
1.73288
1.72872
1.72712
1.72637
1.72914
1.73715
1.73941
1.73834
1.7362
1.73115
1.72176
1.71401
1.71007
1.70728
1.70547
1.70546
1.70597
1.70458
1.70296
1.70088
1.69763
1.69314
1.6894
1.68767
1.68635
1.68463
1.68189
1.67795
1.6741
1.6712
1.66827
1.66452
1.66097
1.6592
1.65842
1.6583
1.65772
1.65676
1.65536
1.65203
1.64394
1.63386
1.6275
1.62497
1.62377
1.62316
1.625
1.63101
1.63572
1.63565
1.63318
1.62904
1.62065
1.60718
1.59649
1.59151
1.58893
1.58701
1.58714
1.59117
1.59345
1.59209
1.5892
1.58625
1.58238
1.57701
1.56937
1.56093
1.5555
1.55257
1.5507
1.54936
1.54803
1.54684
1.54657
1.54791
1.54871
1.54706
1.5447
1.54127
1.53387
1.52449
1.51934
1.51649
1.51466
1.51286
1.51137
1.51061
1.51069
1.51051
1.50968
1.50838
1.50616
1.50334
1.50093
1.49922
1.49796
1.49687
1.49559
1.49366
1.49096
1.48811
1.48532