/*--------------------------------*- C++ -*----------------------------------*\
  =========                 |
  \\      /  F ield         | OpenFOAM: The Open Source CFD Toolbox
   \\    /   O peration     | Website:  https://openfoam.org
    \\  /    A nd           | Version:  7
     \\/     M anipulation  |
\*---------------------------------------------------------------------------*/
FoamFile
{
    version     2.0;
    format      ascii;
    class       volScalarField;
    location    "3.5";
    object      p;
}
// * * * * * * * * * * * * * * * * * * * * * * * * * * * * * * * * * * * * * //

dimensions      [1 -1 -2 0 0 0 0];

internalField   nonuniform List<scalar> 
16512
(
1
1
1
1
1
1
1
1
1
1
1
1
1
1
1.00001
1.00145
1.10731
2.04694
3.58495
4.82921
5.00984
4.93936
4.80688
4.79274
4.80235
4.81812
4.80909
4.73881
4.66535
4.60282
4.55899
4.51679
4.47072
4.45342
4.43773
4.40528
4.36486
4.32293
4.29053
4.26812
4.23703
4.19573
4.15494
4.10977
4.05805
4.01564
3.98563
3.96675
3.95077
3.93246
3.91497
3.88443
3.84178
3.79562
3.74314
3.69877
3.68514
3.67232
3.64038
3.6014
3.58064
3.56222
3.52979
3.48946
3.46153
3.43973
3.4148
3.39
3.36976
3.35153
3.32532
3.28965
3.25067
3.2247
3.21228
3.19489
3.17029
3.14632
3.12713
3.09857
3.07248
3.05769
3.04392
3.02614
2.99742
2.95649
2.91432
2.89399
2.88742
2.88563
2.87644
2.86213
2.83347
2.78779
2.74828
2.73333
2.73171
2.72874
2.7207
2.70529
2.66948
2.62681
2.60225
2.59692
2.59533
2.59008
2.57972
2.55593
2.51742
2.48352
2.47429
2.47107
2.46824
2.46236
2.44892
2.41503
2.3749
2.35911
2.354
2.34722
2.3403
2.32974
2.30523
2.27347
2.26108
2.25721
2.25173
2.24259
2.22963
2.20152
2.16712
2.15507
2.15431
2.15228
2.14739
2.13803
2.11697
2.08716
2.07292
2.0679
2.06218
2.05536
2.04429
2.02084
1.99486
1.98864
1.98697
1.98468
1.97867
1.96913
1.94813
1.92464
1.90775
1.90298
1.9167
2.16979
3.47958
4.64913
4.80926
4.82334
1
1
1
1
1
1
1
1
1
1
1
1
1
1
1
1
1
1
1
1
1
1
1
1
1
1
1
1
1
1
1
1.00001
1.00279
1.10694
1.80705
3.59274
4.93367
4.9072
4.82315
4.82617
4.83569
4.87736
4.81066
4.7264
4.6649
4.62323
4.5794
4.52704
4.49956
4.49564
4.46921
4.4323
4.39937
4.36769
4.33627
4.29215
4.24413
4.20033
4.15859
4.11187
4.0662
4.03472
4.02058
4.00944
3.99152
3.97409
3.94466
3.88939
3.84363
3.79985
3.75431
3.73248
3.7238
3.70023
3.66269
3.62735
3.6057
3.57877
3.54037
3.5049
3.4874
3.46709
3.4394
3.4118
3.3893
3.36839
3.33844
3.30011
3.26482
3.25344
3.23887
3.21037
3.18012
3.16703
3.15178
3.12268
3.10178
3.08684
3.07035
3.04134
3.00026
2.95798
2.93791
2.93182
2.92976
2.91852
2.90285
2.8723
2.8263
2.7864
2.77175
2.77108
2.76896
2.75926
2.74139
2.70436
2.6612
2.63622
2.63066
2.62887
2.62402
2.61352
2.58984
2.55166
2.51717
2.50667
2.50336
2.50002
2.49475
2.48321
2.45202
2.41169
2.39232
2.3871
2.38036
2.37327
2.36337
2.34027
2.30666
2.29093
2.28683
2.28214
2.2731
2.2612
2.23618
2.19964
2.18166
2.1802
2.17856
2.1739
2.16561
2.1469
2.11748
2.1005
2.09466
2.08885
2.08208
2.07202
2.05101
2.0226
2.01289
2.01104
2.00944
2.00396
1.99517
1.97667
1.94988
1.93775
1.93006
1.92096
1.91837
1.94665
2.40772
3.90832
4.64012
4.83703
1
1
1
1
1
1
1
1
1
1
1
1
1
1
1
1
1
1
1
1
1
1
1
1
1
1
1
1
1
1
1
1
1.00002
1.00218
1.06715
1.72993
3.83221
4.67668
4.81023
4.83329
4.86541
4.85894
4.78382
4.73345
4.69339
4.63721
4.58547
4.55182
4.54795
4.53794
4.4999
4.47354
4.44941
4.40586
4.34304
4.29139
4.24626
4.20424
4.16068
4.1169
4.08911
4.07445
4.07041
4.05916
4.03986
4.00865
3.94625
3.87938
3.84547
3.81235
3.78224
3.77141
3.75548
3.72875
3.68875
3.65367
3.62738
3.59434
3.55303
3.53051
3.51792
3.49382
3.46327
3.43093
3.40897
3.38478
3.35141
3.30974
3.28968
3.27962
3.25458
3.21895
3.20076
3.19523
3.17137
3.14292
3.12367
3.10482
3.07769
3.04237
3.00265
2.98419
2.98014
2.97633
2.96094
2.9422
2.91001
2.86522
2.82539
2.81139
2.81201
2.81249
2.80158
2.77996
2.74077
2.69705
2.67148
2.6658
2.66391
2.65942
2.6486
2.62396
2.58549
2.55036
2.53889
2.53584
2.53208
2.52685
2.51614
2.48685
2.44724
2.42568
2.41981
2.41347
2.4064
2.39716
2.37546
2.34066
2.32115
2.31676
2.31313
2.30448
2.29306
2.271
2.23416
2.21016
2.20713
2.20584
2.20153
2.19394
2.17702
2.14783
2.12853
2.12167
2.11573
2.10896
2.09979
2.08143
2.05212
2.0377
2.03561
2.03433
2.02976
2.02163
2.00548
1.97892
1.96169
1.95647
1.95175
1.94286
1.92938
1.91886
1.98729
2.7654
4.09155
4.72662
1
1
1
1
1
1
1
1
1
1
1
1
1
1
1
1
1
1
1
1
1
1
1
1
1
1
1
1
1
1
1
1
1
1.00001
1.00125
1.05862
1.85546
3.82335
4.56015
4.79948
4.89296
4.85989
4.8152
4.7869
4.71224
4.632
4.5973
4.59137
4.60355
4.57026
4.54445
4.52474
4.48182
4.40666
4.33576
4.29083
4.25146
4.21106
4.16829
4.14272
4.13126
4.12839
4.12412
4.10519
4.067
4.00962
3.9296
3.87828
3.86077
3.83498
3.81691
3.80312
3.7831
3.75658
3.71202
3.67718
3.64826
3.61193
3.57748
3.56639
3.54819
3.51954
3.48241
3.44886
3.42794
3.401
3.36225
3.32981
3.32138
3.30175
3.26561
3.23419
3.22852
3.21478
3.18423
3.16028
3.14116
3.11735
3.08324
3.04519
3.02803
3.02701
3.02319
3.00356
2.98055
2.94723
2.9048
2.86527
2.85175
2.85371
2.85728
2.84599
2.82016
2.77839
2.73402
2.708
2.70236
2.70036
2.6966
2.6856
2.65915
2.61947
2.58402
2.57163
2.56866
2.56508
2.55969
2.54935
2.52046
2.48136
2.45855
2.4523
2.44599
2.4391
2.43066
2.4104
2.37502
2.3516
2.3467
2.34407
2.33651
2.3255
2.30597
2.26988
2.24047
2.23542
2.23418
2.23021
2.22329
2.20786
2.17877
2.15648
2.14897
2.1427
2.136
2.12761
2.1118
2.08299
2.06334
2.06055
2.0593
2.0559
2.04831
2.03422
2.00863
1.98891
1.98229
1.97686
1.97069
1.9614
1.94087
1.91761
1.92016
2.09053
3.07331
4.28675
1
1
1
1
1
1
1
1
1
1
1
1
1
1
1
1
1
1
1
1
1
1
1
1
1
1
1
1
1
1
1
1
1
1
1.00001
1.00127
1.07809
2.00501
3.58479
4.55509
4.92336
4.91181
4.87129
4.78605
4.6836
4.63772
4.62816
4.65813
4.64221
4.61054
4.58298
4.53284
4.46938
4.38623
4.33577
4.30197
4.26635
4.23295
4.20368
4.19191
4.1879
4.18532
4.16556
4.12052
4.06117
3.99093
3.92221
3.898
3.8866
3.86607
3.8506
3.83269
3.81023
3.77103
3.72511
3.69766
3.66871
3.63269
3.61592
3.60503
3.57913
3.54394
3.49674
3.46911
3.44725
3.4149
3.37528
3.36151
3.3496
3.32042
3.27789
3.26016
3.25288
3.22853
3.19687
3.17403
3.15404
3.12614
3.08817
3.06878
3.06724
3.06539
3.04368
3.01747
2.98427
2.94529
2.90722
2.89396
2.89663
2.90212
2.89068
2.86064
2.817
2.7727
2.74606
2.74055
2.73859
2.73484
2.72377
2.69536
2.65408
2.61833
2.6053
2.60248
2.59901
2.59371
2.58367
2.55403
2.51421
2.491
2.48473
2.47861
2.47131
2.46325
2.4446
2.40936
2.382
2.37638
2.37473
2.36874
2.35807
2.3408
2.30677
2.27307
2.26474
2.26357
2.26021
2.25375
2.23966
2.21056
2.1846
2.17624
2.16962
2.16302
2.15534
2.14201
2.11477
2.09014
2.08577
2.08423
2.08181
2.07492
2.0627
2.03856
2.01646
2.00895
2.00385
1.99692
1.98784
1.97296
1.9474
1.92894
1.92366
1.93983
2.22146
3.2831
1
1
1
1
1
1
1
1
1
1
1
1
1
1
1
1
1
1
1
1
1
1
1
1
1
1
1
1
1
1
1
1
1
1
1
1.00001
1.00201
1.09972
1.86038
3.31931
4.73128
4.95459
4.87341
4.74418
4.68752
4.67255
4.70525
4.70957
4.65908
4.62077
4.57785
4.52727
4.45604
4.38129
4.34712
4.32191
4.29692
4.28007
4.26448
4.25334
4.24517
4.22336
4.17431
4.11145
4.04465
3.97824
3.93971
3.93038
3.91826
3.90081
3.88446
3.8637
3.83091
3.77286
3.73845
3.71725
3.68745
3.66326
3.65584
3.63938
3.60915
3.56083
3.5147
3.49268
3.46703
3.42955
3.40243
3.39376
3.3726
3.33331
3.29659
3.28792
3.27199
3.24134
3.21085
3.1888
3.16848
3.13616
3.10798
3.10193
3.1008
3.08105
3.05345
3.02035
2.9853
2.95088
2.93832
2.94042
2.94484
2.93327
2.90108
2.8559
2.81231
2.78738
2.78203
2.77927
2.77482
2.76251
2.73166
2.68907
2.65347
2.64033
2.63725
2.63382
2.62901
2.61883
2.58816
2.54725
2.52321
2.51681
2.51187
2.5038
2.49559
2.47807
2.44348
2.41244
2.40557
2.40464
2.40116
2.39087
2.37493
2.34305
2.30726
2.29533
2.2938
2.29103
2.28514
2.27246
2.24324
2.21347
2.20336
2.19666
2.19002
2.18283
2.17149
2.14676
2.11837
2.11126
2.10926
2.10721
2.10103
2.09032
2.06835
2.04428
2.03521
2.03062
2.02443
2.01549
2.00064
1.9769
1.95739
1.95041
1.94258
1.94204
1.97294
2.34677
1
1
1
1
1
1
1
1
1
1
1
1
1
1
1
1
1
1
1
1
1
1
1
1
1
1
1
1
1
1
1
1
1
1
1
1
1.00001
1.00219
1.07187
1.63687
3.37004
4.83685
4.79529
4.72725
4.71728
4.73127
4.76971
4.71126
4.65914
4.62544
4.5868
4.52363
4.44674
4.40261
4.38318
4.35836
4.34542
4.33921
4.32712
4.31201
4.28149
4.22869
4.16189
4.09604
4.03473
3.98865
3.97625
3.97114
3.95836
3.93963
3.91839
3.88806
3.83125
3.77269
3.75581
3.7387
3.71184
3.70145
3.69193
3.66896
3.62976
3.56845
3.53623
3.51581
3.48624
3.45127
3.43905
3.4235
3.3922
3.3439
3.32254
3.31227
3.28789
3.25549
3.22801
3.20867
3.18662
3.15388
3.13564
3.13077
3.11604
3.08848
3.05568
3.02256
2.99475
2.98444
2.98508
2.98498
2.97195
2.93957
2.89468
2.85244
2.83054
2.82698
2.82318
2.81765
2.80245
2.76767
2.72414
2.69018
2.67704
2.67343
2.6699
2.66515
2.65436
2.62273
2.58102
2.55574
2.549
2.5459
2.53718
2.5283
2.51113
2.47684
2.44345
2.43431
2.43355
2.43337
2.42411
2.40834
2.37826
2.34192
2.32646
2.32462
2.32239
2.31699
2.3055
2.27679
2.24323
2.23062
2.22416
2.21713
2.2103
2.20059
2.17891
2.14838
2.13702
2.13472
2.13244
2.1268
2.11711
2.09725
2.07206
2.06113
2.05675
2.05136
2.04332
2.03037
2.00609
1.98305
1.97612
1.97234
1.96683
1.95676
1.94889
2.00215
1
1
1
1
1
1
1
1
1
1
1
1
1
1
1
1
1
1
1
1
1
1
1
1
1
1
1
1
1
1
1
1
1
1
1
1
1
1.00001
1.00117
1.04608
1.60122
3.55903
4.53096
4.68873
4.74109
4.7789
4.76303
4.70383
4.67149
4.63582
4.57677
4.51076
4.45835
4.45047
4.42483
4.40375
4.39779
4.39235
4.37297
4.33748
4.28948
4.21953
4.14829
4.08821
4.03804
4.02061
4.01798
4.01774
4.00211
3.97894
3.94618
3.88829
3.821
3.78519
3.7807
3.76284
3.74648
3.73919
3.72331
3.69467
3.63589
3.57955
3.55962
3.53782
3.50532
3.48412
3.47349
3.44966
3.40521
3.36366
3.35213
3.33418
3.3043
3.27379
3.25071
3.23158
3.20722
3.17541
3.15977
3.14852
3.12501
3.09402
3.05993
3.03569
3.03003
3.02946
3.02391
3.00673
2.97501
2.93165
2.89265
2.87463
2.87205
2.86964
2.86265
2.84477
2.80475
2.75838
2.72804
2.71584
2.71156
2.70733
2.70253
2.69031
2.65746
2.61531
2.58905
2.58175
2.58091
2.57251
2.56204
2.54417
2.50997
2.47527
2.46324
2.46231
2.46461
2.45782
2.44176
2.41199
2.37571
2.35764
2.35541
2.35372
2.34902
2.33882
2.31132
2.27448
2.25828
2.25221
2.24494
2.23817
2.22966
2.21112
2.18001
2.16338
2.16078
2.15814
2.15273
2.14367
2.12556
2.09938
2.08653
2.08234
2.07762
2.07045
2.05931
2.03754
2.01045
2.00011
1.99658
1.99329
1.98781
1.97577
1.95403
1.95023
1
1
1
1
1
1
1
1
1
1
1
1
1
1
1
1
1
1
1
1
1
1
1
1
1
1
1
1
1
1
1
1
1
1
1
1
1
1
1
1.0008
1.04345
1.67345
3.54568
4.39304
4.68062
4.80071
4.77127
4.73488
4.72196
4.66118
4.56952
4.50259
4.49348
4.49117
4.46373
4.45708
4.45816
4.43796
4.38472
4.33724
4.27755
4.20617
4.1464
4.09571
4.06964
4.06463
4.0666
4.06286
4.04062
4.0055
3.94428
3.87484
3.82236
3.81056
3.80919
3.79282
3.78354
3.77248
3.75085
3.70419
3.63194
3.60022
3.58509
3.5601
3.53123
3.5193
3.50122
3.46766
3.41418
3.39139
3.37863
3.35471
3.32503
3.30023
3.27907
3.25633
3.22513
3.19399
3.18019
3.16177
3.13521
3.10403
3.07961
3.07087
3.06712
3.05876
3.0346
3.00583
2.96827
2.93187
2.9177
2.91618
2.91514
2.90728
2.88735
2.84446
2.79477
2.76643
2.75584
2.75116
2.74583
2.7407
2.72603
2.69162
2.65025
2.62373
2.61575
2.61653
2.61015
2.59785
2.57787
2.54318
2.5078
2.49307
2.49202
2.49505
2.49123
2.47547
2.44506
2.40828
2.38837
2.38567
2.38456
2.38091
2.37217
2.34664
2.30753
2.28672
2.28079
2.27388
2.26699
2.25914
2.24325
2.21262
2.19061
2.18735
2.18472
2.17943
2.17076
2.1542
2.12675
2.11146
2.10744
2.10329
2.09693
2.08727
2.06857
2.03981
2.0252
2.02036
2.01745
2.01297
2.00492
1.9887
1.96134
1.95221
1
1
1
1
1
1
1
1
1
1
1
1
1
1
1
1
1
1
1
1
1
1
1
1
1
1
1
1
1
1
1
1
1
1
1
1
1
1
1
1
1.00087
1.05354
1.79332
3.35622
4.34923
4.78982
4.81999
4.78577
4.72461
4.64111
4.57174
4.55254
4.56014
4.5175
4.49941
4.4965
4.47744
4.43411
4.36323
4.31602
4.26281
4.20209
4.16438
4.13823
4.12231
4.11771
4.11575
4.09934
4.06391
4.00461
3.93544
3.87314
3.84572
3.84491
3.8396
3.82852
3.81821
3.80097
3.76377
3.69293
3.63937
3.62854
3.61275
3.58567
3.56747
3.55203
3.52384
3.47258
3.42975
3.41754
3.40071
3.37501
3.35116
3.33119
3.30773
3.2776
3.23803
3.21548
3.19922
3.17606
3.14973
3.12689
3.11459
3.10367
3.09089
3.06369
3.03004
3.00465
2.97239
2.95799
2.95738
2.95783
2.94993
2.92722
2.88456
2.83435
2.80637
2.79851
2.79129
2.78433
2.77816
2.76067
2.72549
2.68528
2.65912
2.65128
2.65285
2.64887
2.63561
2.61294
2.57681
2.54128
2.52477
2.52349
2.52611
2.52397
2.50874
2.47791
2.44017
2.41853
2.41523
2.41461
2.41223
2.40522
2.38219
2.3419
2.31617
2.30966
2.30419
2.29696
2.28956
2.27547
2.24577
2.21884
2.21404
2.21183
2.20698
2.19871
2.18368
2.15511
2.13626
2.1322
2.12862
2.123
2.11446
2.09884
2.07062
2.05075
2.04477
2.04158
2.03733
2.03092
2.01634
1.99518
1.97502
1.96652
1
1
1
1
1
1
1
1
1
1
1
1
1
1
1
1
1
1
1
1
1
1
1
1
1
1
1
1
1
1
1
1
1
1
1
1
1
1
1
1
1.00001
1.00125
1.06808
1.69496
3.00105
4.45403
4.86001
4.81018
4.7037
4.64207
4.62653
4.64041
4.57719
4.5376
4.53019
4.52212
4.49259
4.43277
4.35962
4.30871
4.25001
4.2073
4.1964
4.18693
4.17684
4.17403
4.16372
4.12681
4.06275
3.99185
3.93137
3.89196
3.88572
3.88979
3.87856
3.86297
3.84382
3.81019
3.74815
3.681
3.66233
3.65967
3.64069
3.6186
3.60547
3.58244
3.53719
3.47694
3.45473
3.44278
3.42274
3.39952
3.38045
3.3587
3.33018
3.28923
3.25638
3.23877
3.21744
3.19308
3.17225
3.1592
3.1459
3.1272
3.09863
3.05738
3.03439
3.01748
2.998
2.99434
2.99514
2.98827
2.96373
2.92118
2.8733
2.84635
2.84187
2.83491
2.82383
2.81431
2.79482
2.75928
2.72028
2.6951
2.68752
2.68984
2.68793
2.67339
2.64836
2.61118
2.57525
2.55806
2.55685
2.55897
2.55666
2.54122
2.5103
2.47215
2.44883
2.44454
2.4439
2.44271
2.43726
2.41708
2.37717
2.34673
2.33874
2.33499
2.32819
2.32112
2.30809
2.27882
2.24811
2.24068
2.23902
2.23539
2.22769
2.21412
2.18534
2.16151
2.15651
2.1535
2.14881
2.14127
2.1283
2.1024
2.07763
2.06983
2.0656
2.06197
2.0564
2.04503
2.02219
2.00252
1.99605
1.98961
1
1
1
1
1
1
1
1
1
1
1
1
1
1
1
1
1
1
1
1
1
1
1
1
1
1
1
1
1
1
1
1
1
1
1
1
1
1
1
1
1
1.00001
1.00133
1.04786
1.45828
2.89478
4.63286
4.69388
4.66955
4.64728
4.67683
4.68325
4.59572
4.56986
4.55106
4.50934
4.47397
4.42424
4.38399
4.33376
4.27544
4.24835
4.23155
4.22187
4.21816
4.21866
4.19798
4.14101
4.06047
3.99051
3.94022
3.92748
3.93125
3.93341
3.91558
3.89414
3.86172
3.79986
3.7273
3.69293
3.69284
3.68936
3.66831
3.65486
3.63948
3.60376
3.53639
3.49613
3.48441
3.4702
3.44929
3.42915
3.40746
3.37905
3.34058
3.30101
3.28161
3.26318
3.23997
3.21823
3.20258
3.18682
3.1652
3.13378
3.09277
3.06301
3.05631
3.04311
3.03204
3.02867
3.02101
2.99834
2.95724
2.90982
2.88172
2.87791
2.87706
2.86397
2.85119
2.8306
2.79556
2.75696
2.73197
2.72473
2.72719
2.72648
2.71099
2.68371
2.64581
2.60977
2.59232
2.59136
2.59331
2.58996
2.57341
2.54176
2.50397
2.47989
2.4747
2.4734
2.47258
2.46847
2.45008
2.41202
2.37853
2.36871
2.36556
2.3604
2.35334
2.34085
2.31183
2.27872
2.26735
2.26588
2.26386
2.2574
2.24534
2.21727
2.18814
2.18077
2.17783
2.174
2.16766
2.15687
2.13414
2.10614
2.09567
2.0904
2.08648
2.0817
2.07282
2.05303
2.0284
2.01976
2.01627
2.01096
1
1
1
1
1
1
1
1
1
1
1
1
1
1
1
1
1
1
1
1
1
1
1
1
1
1
1
1
1
1
1
1
1
1
1
1
1
1
1
1
1
1
1
1.00063
1.02467
1.38342
3.09637
4.45972
4.59705
4.63791
4.6542
4.65761
4.62748
4.62847
4.60645
4.54525
4.46539
4.41804
4.40651
4.35942
4.31999
4.30183
4.27974
4.26206
4.2539
4.24527
4.20707
4.13459
4.06409
4.00476
3.97568
3.97223
3.97562
3.96739
3.94395
3.91282
3.85834
3.78463
3.73267
3.72352
3.72968
3.71783
3.69924
3.68519
3.65819
3.59694
3.54124
3.52598
3.51615
3.49996
3.48026
3.45865
3.42791
3.38919
3.34812
3.32523
3.31064
3.29043
3.26803
3.24968
3.2317
3.20676
3.17111
3.12819
3.09616
3.08939
3.08526
3.07259
3.06418
3.05483
3.03373
2.99524
2.94915
2.9166
2.90695
2.90785
2.89978
2.88615
2.86599
2.83328
2.79595
2.7715
2.76391
2.76476
2.76378
2.74786
2.71908
2.68059
2.64457
2.62724
2.62662
2.62878
2.6247
2.60699
2.57326
2.53508
2.51166
2.50607
2.50383
2.50284
2.49947
2.48142
2.44512
2.41123
2.39962
2.39635
2.39326
2.38584
2.37328
2.34422
2.30966
2.29478
2.29317
2.29202
2.28696
2.27643
2.25048
2.21682
2.20541
2.20229
2.19876
2.19353
2.18453
2.16514
2.13584
2.12177
2.11594
2.11141
2.10689
2.09999
2.08327
2.0577
2.04434
2.04001
2.03567
2.029
1
1
1
1
1
1
1
1
1
1
1
1
1
1
1
1
1
1
1
1
1
1
1
1
1
1
1
1
1
1
1
1
1
1
1
1
1
1
1
1
1
1
1
1
1.00031
1.02234
1.45176
3.17392
4.18354
4.60681
4.74311
4.68199
4.66402
4.65842
4.6215
4.54984
4.47065
4.44736
4.42007
4.37089
4.35169
4.34598
4.32501
4.29549
4.27797
4.25341
4.19242
4.12634
4.07891
4.03729
4.01801
4.01519
4.01122
3.99399
3.96444
3.91724
3.85036
3.78615
3.76332
3.76492
3.76472
3.74656
3.72814
3.70116
3.64938
3.58816
3.56255
3.55781
3.54861
3.53165
3.51025
3.478
3.43775
3.39677
3.37066
3.3584
3.34227
3.32159
3.30055
3.27859
3.24963
3.21096
3.16824
3.13371
3.12205
3.12174
3.11264
3.10194
3.09157
3.07211
3.03538
2.98998
2.95799
2.9426
2.93482
2.92807
2.91732
2.9001
2.87157
2.83501
2.81137
2.80466
2.80297
2.79921
2.78354
2.75453
2.71604
2.67992
2.66266
2.66249
2.66511
2.66039
2.64172
2.60571
2.56631
2.54402
2.53864
2.53595
2.53446
2.53046
2.51086
2.4763
2.44397
2.43151
2.42817
2.4266
2.41858
2.40486
2.37554
2.34054
2.32314
2.32121
2.32083
2.31664
2.30729
2.28427
2.24774
2.23074
2.22737
2.22373
2.21936
2.21168
2.19531
2.16609
2.14796
2.14182
2.13693
2.1319
2.12616
2.11234
2.08683
2.06924
2.06471
2.06013
2.05372
2.04386
1
1
1
1
1
1
1
1
1
1
1
1
1
1
1
1
1
1
1
1
1
1
1
1
1
1
1
1
1
1
1
1
1
1
1
1
1
1
1
1
1
1
1
1
1
1.00039
1.0287
1.53671
2.93156
4.11494
4.69297
4.77449
4.72825
4.67056
4.60103
4.52692
4.49019
4.47285
4.43027
4.4009
4.3951
4.38258
4.35229
4.31646
4.29318
4.25213
4.18252
4.1341
4.10736
4.07726
4.05449
4.04665
4.03729
4.01307
3.97305
3.91674
3.85068
3.81135
3.80611
3.80681
3.79312
3.7714
3.7445
3.70207
3.6434
3.60088
3.59362
3.59049
3.57882
3.55764
3.52171
3.48229
3.44582
3.41802
3.40528
3.39303
3.37538
3.35474
3.3309
3.29705
3.25162
3.20783
3.1763
3.16075
3.15624
3.14959
3.13964
3.12927
3.11254
3.08088
3.03232
2.99729
2.98219
2.96848
2.95678
2.94527
2.93199
2.90958
2.87535
2.85042
2.84401
2.84057
2.83304
2.81775
2.78986
2.75189
2.71606
2.69898
2.69879
2.70165
2.69716
2.6778
2.63945
2.59905
2.57762
2.57262
2.56965
2.56754
2.56272
2.5403
2.50569
2.47587
2.46392
2.4611
2.46038
2.45111
2.43525
2.40501
2.37032
2.35194
2.34994
2.35043
2.34715
2.33826
2.31771
2.28069
2.25758
2.25346
2.24966
2.24561
2.23905
2.22508
2.19662
2.17416
2.16754
2.16316
2.15744
2.15144
2.13944
2.11492
2.09374
2.08842
2.08454
2.07885
2.0698
2.05295
1
1
1
1
1
1
1
1
1
1
1
1
1
1
1
1
1
1
1
1
1
1
1
1
1
1
1
1
1
1
1
1
1
1
1
1
1
1
1
1
1
1
1
1
1
1
1.00052
1.03498
1.43525
2.55495
4.14262
4.73245
4.74114
4.69811
4.63425
4.53459
4.4853
4.47332
4.4503
4.44642
4.44578
4.42113
4.38128
4.33189
4.29692
4.24578
4.18652
4.15895
4.14063
4.11952
4.09373
4.07551
4.05712
4.02086
3.97033
3.91929
3.86893
3.85417
3.85252
3.84021
3.81604
3.78451
3.74534
3.70127
3.65436
3.63544
3.63134
3.62178
3.59912
3.55944
3.51564
3.48582
3.46341
3.44909
3.43984
3.42651
3.40889
3.38619
3.35082
3.29803
3.24741
3.21774
3.20451
3.19448
3.18628
3.17684
3.16725
3.15332
3.1284
3.08133
3.03658
3.0197
3.00512
2.9901
2.97611
2.96144
2.94506
2.91844
2.88971
2.88173
2.876
2.86566
2.8492
2.82347
2.78837
2.7533
2.73663
2.73624
2.73838
2.73371
2.71402
2.6742
2.63392
2.61306
2.60815
2.60496
2.60216
2.59509
2.56985
2.5351
2.50711
2.49647
2.49493
2.49438
2.4835
2.46478
2.43312
2.39898
2.38024
2.37856
2.38063
2.37843
2.36987
2.35079
2.31439
2.28614
2.28065
2.277
2.27302
2.26733
2.25479
2.22721
2.20113
2.1932
2.18878
2.18394
2.17746
2.16611
2.14169
2.11759
2.11113
2.10802
2.10308
2.0954
2.08127
2.05752
1
1
1
1
1
1
1
1
1
1
1
1
1
1
1
1
1
1
1
1
1
1
1
1
1
1
1
1
1
1
1
1
1
1
1
1
1
1
1
1
1
1
1
1
1
1
1
1.0005
1.02153
1.25714
2.5174
4.09705
4.54392
4.70564
4.68565
4.58461
4.53455
4.49432
4.47546
4.48324
4.47583
4.45582
4.42204
4.35653
4.29574
4.23971
4.19895
4.18174
4.16769
4.15514
4.13484
4.10688
4.06933
4.01893
3.97063
3.93375
3.90865
3.89975
3.88906
3.86531
3.82856
3.78555
3.74603
3.71178
3.68617
3.67821
3.67172
3.65099
3.60741
3.5516
3.51533
3.49979
3.4874
3.4792
3.47068
3.45816
3.43933
3.40631
3.35132
3.29353
3.25879
3.24717
3.23703
3.22615
3.21582
3.20604
3.19402
3.17419
3.13257
3.07997
3.05682
3.04307
3.02691
3.01149
2.99558
2.97924
2.96095
2.93672
2.91861
2.90892
2.89687
2.87899
2.855
2.82459
2.7916
2.77591
2.77524
2.77578
2.7696
2.74833
2.7089
2.67003
2.65043
2.64501
2.6415
2.63712
2.62736
2.60007
2.56469
2.53858
2.52937
2.52933
2.52849
2.5159
2.49375
2.46033
2.42682
2.40804
2.40668
2.41038
2.41038
2.40202
2.38352
2.34828
2.31612
2.30847
2.30547
2.30207
2.2969
2.28459
2.25715
2.22884
2.21956
2.21485
2.20996
2.20364
2.19393
2.16998
2.14192
2.13277
2.13088
2.12656
2.12
2.10854
2.08677
2.06571
1
1
1
1
1
1
1
1
1
1
1
1
1
1
1
1
1
1
1
1
1
1
1
1
1
1
1
1
1
1
1
1
1
1
1
1
1
1
1
1
1
1
1
1
1
1
1
1
1.00021
1.00994
1.2402
2.56281
3.96565
4.64818
4.68451
4.61522
4.52609
4.502
4.51775
4.53535
4.51809
4.49049
4.4463
4.36474
4.29517
4.24806
4.224
4.20787
4.19948
4.19188
4.17424
4.13737
4.07616
4.01916
3.98554
3.96424
3.94767
3.93434
3.91505
3.88205
3.83406
3.79064
3.76178
3.74021
3.72733
3.72096
3.70419
3.66323
3.60163
3.55201
3.53463
3.52594
3.51637
3.50818
3.50039
3.48633
3.45749
3.40486
3.34384
3.30359
3.28939
3.27985
3.26966
3.25874
3.24806
3.23603
3.21855
3.18346
3.1275
3.09285
3.0799
3.06505
3.05022
3.03477
3.02018
3.0032
2.98446
2.96182
2.9413
2.92569
2.908
2.88508
2.85989
2.8326
2.81715
2.8153
2.81402
2.80506
2.78027
2.7425
2.70599
2.68779
2.6831
2.67852
2.67226
2.65911
2.62968
2.59491
2.57064
2.56296
2.56406
2.56256
2.54874
2.52357
2.4883
2.45493
2.43611
2.43491
2.43958
2.44204
2.43446
2.41602
2.38162
2.34741
2.3373
2.33454
2.33183
2.32772
2.31507
2.2871
2.25708
2.24618
2.24181
2.23717
2.23014
2.22128
2.19979
2.16916
2.15467
2.15319
2.14993
2.14433
2.13495
2.11617
2.09188
2.08194
1
1
1
1
1
1
1
1
1
1
1
1
1
1
1
1
1
1
1
1
1
1
1
1
1
1
1
1
1
1
1
1
1
1
1
1
1
1
1
1
1
1
1
1
1
1
1
1
1
1.0001
1.00989
1.28933
2.38707
3.89178
4.63947
4.67143
4.5791
4.53525
4.5328
4.54582
4.53363
4.49882
4.44808
4.35868
4.296
4.27044
4.25518
4.24485
4.2426
4.2356
4.21211
4.15845
4.08383
4.03424
4.01293
3.99551
3.97683
3.95655
3.93152
3.89081
3.84458
3.81343
3.79425
3.77987
3.77107
3.7543
3.71607
3.65509
3.59448
3.5705
3.56108
3.55882
3.54812
3.54017
3.52937
3.50425
3.45465
3.39066
3.34661
3.33255
3.32146
3.31134
3.30265
3.29304
3.28064
3.26386
3.23419
3.17838
3.12931
3.11572
3.10313
3.0892
3.0761
3.0636
3.05103
3.03375
3.00504
2.97388
2.95277
2.93567
2.91578
2.89357
2.87468
2.86146
2.85642
2.85137
2.83878
2.81157
2.77496
2.74112
2.72451
2.72061
2.71619
2.7074
2.69071
2.65936
2.62456
2.6026
2.5966
2.59844
2.5967
2.58203
2.55516
2.51795
2.48421
2.46558
2.46414
2.46896
2.47293
2.46634
2.44791
2.41429
2.37949
2.36727
2.36469
2.36211
2.3588
2.34594
2.31702
2.28567
2.27312
2.26885
2.2654
2.25829
2.24967
2.22981
2.19811
2.17862
2.17629
2.17395
2.16929
2.1614
2.14552
2.11972
2.10474
2.10041
1
1
1
1
1
1
1
1
1
1
1
1
1
1
1
1
1
1
1
1
1
1
1
1
1
1
1
1
1
1
1
1
1
1
1
1
1
1
1
1
1
1
1
1
1
1
1
1
1
1
1.00013
1.01318
1.22234
2.14407
3.98555
4.44253
4.51272
4.55028
4.5756
4.58749
4.54743
4.51074
4.45556
4.34917
4.29606
4.2841
4.28077
4.28984
4.29257
4.28171
4.24644
4.15724
4.0886
4.05215
4.03047
4.01514
3.99986
3.9775
3.94487
3.90436
3.87061
3.84942
3.83559
3.82109
3.79952
3.76519
3.7127
3.64656
3.60984
3.59697
3.59421
3.59175
3.58357
3.57461
3.55161
3.50504
3.43765
3.38452
3.36894
3.36211
3.35111
3.34313
3.33658
3.32595
3.30973
3.2832
3.23091
3.17085
3.14882
3.14149
3.12992
3.11704
3.1071
3.09635
3.08036
3.04986
3.00636
2.97758
2.96173
2.94616
2.92829
2.9142
2.90517
2.89828
2.88848
2.8704
2.84119
2.8065
2.77583
2.76129
2.75683
2.75347
2.74356
2.72393
2.69039
2.6547
2.63398
2.62929
2.63151
2.63029
2.61638
2.58867
2.54945
2.5148
2.49669
2.4948
2.49868
2.5025
2.49683
2.47877
2.4461
2.41174
2.39818
2.39583
2.39316
2.38989
2.37597
2.34642
2.31477
2.30043
2.29603
2.29393
2.28753
2.27939
2.26123
2.22859
2.20451
2.20074
2.19915
2.19511
2.18849
2.1751
2.14906
2.1285
2.12267
2.11894
1
1
1
1
1
1
1
1
1
1
1
1
1
1
1
1
1
1
1
1
1
1
1
1
1
1
1
1
1
1
1
1
1
1
1
1
1
1
1
1
1
1
1
1
1
1
1
1
1
1
1
1.00013
1.00794
1.14144
2.1937
3.8575
4.33037
4.49505
4.58906
4.61504
4.59493
4.55364
4.45212
4.35026
4.32421
4.31489
4.32191
4.33571
4.33172
4.31863
4.2658
4.15874
4.10492
4.07402
4.04885
4.03308
4.01872
3.99837
3.96967
3.94052
3.91405
3.88965
3.86092
3.83188
3.80338
3.76527
3.70918
3.66314
3.64522
3.63637
3.63549
3.62897
3.6206
3.59754
3.55537
3.49062
3.42841
3.40474
3.39825
3.39048
3.38098
3.37635
3.3688
3.35455
3.33085
3.28308
3.2197
3.18279
3.17588
3.17144
3.16028
3.14983
3.14033
3.12442
3.09297
3.04589
3.00409
2.98718
2.97641
2.96343
2.9535
2.94675
2.93931
2.9266
2.90269
2.86926
2.83545
2.8088
2.79768
2.79345
2.78954
2.77988
2.75901
2.72305
2.68655
2.66637
2.66179
2.66311
2.66231
2.6513
2.62502
2.58368
2.5465
2.52883
2.52649
2.52874
2.53112
2.52556
2.5083
2.47698
2.44433
2.4299
2.42759
2.42492
2.42093
2.40523
2.37474
2.34302
2.32822
2.32365
2.32273
2.31755
2.30956
2.29309
2.26061
2.23264
2.22683
2.22558
2.22227
2.21652
2.20474
2.17911
2.15364
2.14575
2.14175
2.13801
1
1
1
1
1
1
1
1
1
1
1
1
1
1
1
1
1
1
1
1
1
1
1
1
1
1
1
1
1
1
1
1
1
1
1
1
1
1
1
1
1
1
1
1
1
1
1
1
1
1
1
1
1.00005
1.00478
1.14782
2.21652
3.49329
4.32204
4.6642
4.66899
4.62636
4.52513
4.40927
4.36608
4.36024
4.37088
4.37137
4.36365
4.35317
4.33397
4.26219
4.15753
4.12497
4.09834
4.0724
4.05769
4.04353
4.02801
4.01148
3.98748
3.94553
3.89666
3.86253
3.83367
3.80405
3.76367
3.72156
3.70309
3.69051
3.68512
3.67802
3.66531
3.63914
3.60132
3.54386
3.47839
3.44417
3.43516
3.43042
3.41918
3.41348
3.40866
3.39617
3.3753
3.33331
3.27154
3.22206
3.21145
3.20947
3.20281
3.19326
3.18387
3.16831
3.1371
3.08726
3.03844
3.01543
3.00728
2.99886
2.9921
2.98755
2.9802
2.96608
2.93733
2.89874
2.86316
2.83943
2.83165
2.82991
2.82623
2.81572
2.79374
2.75638
2.71891
2.69948
2.69526
2.69549
2.69327
2.68447
2.66174
2.62088
2.58076
2.56174
2.55894
2.55931
2.55985
2.55383
2.53646
2.50692
2.47663
2.46352
2.4599
2.45733
2.4518
2.43349
2.40142
2.37057
2.35631
2.35185
2.35191
2.34844
2.34017
2.32431
2.29272
2.2624
2.25438
2.25347
2.25045
2.24499
2.23392
2.20815
2.18041
2.16949
2.16558
2.16201
2.15705
1
1
1
1
1
1
1
1
1
1
1
1
1
1
1
1
1
1
1
1
1
1
1
1
1
1
1
1
1
1
1
1
1
1
1
1
1
1
1
1
1
1
1
1
1
1
1
1
1
1
1
1
1
1.00004
1.00485
1.1528
1.93529
3.24569
4.52544
4.67441
4.61992
4.4982
4.41858
4.39311
4.39639
4.40819
4.40247
4.38768
4.36996
4.33401
4.23962
4.15998
4.14189
4.11955
4.10132
4.09343
4.08252
4.07181
4.05334
4.00575
3.94394
3.90048
3.86993
3.84321
3.81255
3.77943
3.76213
3.75363
3.74276
3.73045
3.70531
3.67659
3.6424
3.59235
3.53044
3.48837
3.47615
3.47124
3.4607
3.45188
3.44785
3.43731
3.41814
3.38171
3.32288
3.26551
3.24932
3.2466
3.24339
3.23495
3.22627
3.21168
3.18201
3.13122
3.07689
3.04785
3.03989
3.03538
3.03055
3.02731
3.02139
3.00686
2.975
2.93113
2.89187
2.86969
2.86366
2.86425
2.8626
2.8525
2.82908
2.78973
2.75119
2.73241
2.72863
2.72883
2.72547
2.71674
2.69668
2.65817
2.61757
2.59609
2.59228
2.58999
2.58855
2.58247
2.56478
2.53657
2.50939
2.49791
2.49409
2.4904
2.48224
2.45989
2.42669
2.39743
2.38447
2.38057
2.38175
2.37964
2.37069
2.35461
2.32349
2.2929
2.28279
2.2823
2.2799
2.27413
2.26162
2.23459
2.20721
2.19502
2.19061
2.18703
2.18302
2.174
1
1
1
1
1
1
1
1
1
1
1
1
1
1
1
1
1
1
1
1
1
1
1
1
1
1
1
1
1
1
1
1
1
1
1
1
1
1
1
1
1
1
1
1
1
1
1
1
1
1
1
1
1
1
1.00004
1.00431
1.09662
1.66207
3.35441
4.5016
4.51035
4.48586
4.4405
4.40703
4.42396
4.43623
4.44031
4.42138
4.38652
4.3092
4.20459
4.17239
4.1588
4.14182
4.1363
4.13786
4.1358
4.11882
4.06694
3.99186
3.93796
3.90653
3.88232
3.85738
3.83517
3.82242
3.81695
3.80378
3.7834
3.74471
3.71075
3.67922
3.63684
3.58178
3.53543
3.51937
3.51278
3.50359
3.49321
3.48835
3.4792
3.46169
3.43025
3.37529
3.31353
3.28763
3.28389
3.28253
3.27458
3.26626
3.25342
3.22783
3.17866
3.11963
3.08425
3.07468
3.07313
3.07
3.06632
3.06169
3.04805
3.01538
2.96711
2.92359
2.90108
2.89593
2.89739
2.89733
2.88898
2.86618
2.82466
2.78372
2.76488
2.76153
2.76158
2.75816
2.75012
2.73226
2.69476
2.65336
2.63149
2.62627
2.62199
2.61704
2.60997
2.59301
2.56701
2.54323
2.53367
2.52967
2.52435
2.51112
2.48469
2.45162
2.42428
2.41296
2.41013
2.41234
2.4107
2.40121
2.3837
2.35253
2.32233
2.31139
2.31172
2.31005
2.30403
2.28984
2.26069
2.23212
2.22131
2.21744
2.21336
2.20999
2.20255
2.18324
1
1
1
1
1
1
1
1
1
1
1
1
1
1
1
1
1
1
1
1
1
1
1
1
1
1
1
1
1
1
1
1
1
1
1
1
1
1
1
1
1
1
1
1
1
1
1
1
1
1
1
1
1
1
1
1.00002
1.00206
1.05496
1.6285
3.37199
4.18713
4.44777
4.47744
4.46562
4.45976
4.46283
4.46405
4.43405
4.37463
4.2704
4.21615
4.20387
4.19153
4.18299
4.18417
4.18982
4.17775
4.13075
4.04924
3.97773
3.94058
3.91532
3.89802
3.8864
3.88009
3.8813
3.86704
3.83653
3.78536
3.73936
3.70886
3.67732
3.63412
3.58668
3.56538
3.55571
3.54616
3.53567
3.53105
3.52383
3.50672
3.47807
3.42828
3.36559
3.32709
3.31981
3.31807
3.31313
3.30404
3.29204
3.27097
3.22825
3.16754
3.12419
3.11231
3.11042
3.10965
3.10495
3.10046
3.08811
3.0567
3.00682
2.95904
2.93504
2.92995
2.93137
2.93114
2.92421
2.90358
2.86124
2.81797
2.79776
2.79375
2.79298
2.78923
2.78247
2.76833
2.73403
2.68941
2.66459
2.65915
2.65408
2.64717
2.63781
2.62176
2.59835
2.57832
2.57028
2.56586
2.55794
2.53773
2.50832
2.47648
2.45176
2.44238
2.44088
2.44386
2.44132
2.43141
2.4113
2.37962
2.35075
2.33968
2.34082
2.34058
2.33435
2.31853
2.28775
2.25737
2.2465
2.24446
2.24121
2.23796
2.23196
2.21462
2.18338
1
1
1
1
1
1
1
1
1
1
1
1
1
1
1
1
1
1
1
1
1
1
1
1
1
1
1
1
1
1
1
1
1
1
1
1
1
1
1
1
1
1
1
1
1
1
1
1
1
1
1
1
1
1
1
1
1.00001
1.00116
1.04859
1.65875
3.21894
4.06476
4.42872
4.5722
4.55235
4.54959
4.49894
4.39472
4.28913
4.23608
4.23718
4.25767
4.25807
4.26114
4.24976
4.22897
4.18336
4.10222
4.01801
3.97345
3.9488
3.93505
3.93387
3.93543
3.94125
3.92592
3.89378
3.83547
3.76872
3.73596
3.71295
3.67994
3.63776
3.614
3.60054
3.58945
3.57977
3.57374
3.57013
3.5539
3.52543
3.4792
3.41985
3.37176
3.35873
3.35225
3.34897
3.34152
3.32932
3.31058
3.27612
3.21981
3.1678
3.15252
3.14812
3.14739
3.1422
3.13726
3.12603
3.0975
3.04855
2.99767
2.97152
2.96609
2.96705
2.96587
2.95934
2.94111
2.90001
2.85391
2.8317
2.82693
2.8242
2.81904
2.81268
2.8018
2.77539
2.72985
2.69757
2.69053
2.68549
2.67715
2.66681
2.65202
2.63182
2.61432
2.60754
2.60209
2.58946
2.56269
2.53163
2.5018
2.48045
2.4731
2.47315