/*--------------------------------*- C++ -*----------------------------------*\
  =========                 |
  \\      /  F ield         | OpenFOAM: The Open Source CFD Toolbox
   \\    /   O peration     | Website:  https://openfoam.org
    \\  /    A nd           | Version:  7
     \\/     M anipulation  |
\*---------------------------------------------------------------------------*/
FoamFile
{
    version     2.0;
    format      ascii;
    class       volScalarField;
    location    "1.5";
    object      p;
}
// * * * * * * * * * * * * * * * * * * * * * * * * * * * * * * * * * * * * * //

dimensions      [1 -1 -2 0 0 0 0];

internalField   nonuniform List<scalar> 
16512
(
0.205553
0.249087
0.299588
0.359383
0.426851
0.497014
0.523471
0.529191
0.544236
0.568347
0.577571
0.585042
0.614937
0.672288
0.726773
0.75116
0.754463
0.751718
0.756131
0.77384
0.794626
0.818129
0.853881
0.885669
0.911164
0.928789
0.939517
0.94476
0.94984
0.965663
0.992368
1.01695
1.02913
1.03745
1.04133
1.04253
1.04752
1.0592
1.0843
1.11084
1.12614
1.13233
1.13309
1.13453
1.13691
1.14436
1.15477
1.17529
1.20024
1.20855
1.20848
1.20344
1.19405
1.19258
1.19996
1.21411
1.23767
1.25645
1.25913
1.25861
1.25491
1.24988
1.24805
1.24845
1.25281
1.26646
1.28348
1.28887
1.28993
1.28982
1.28829
1.2868
1.28592
1.28758
1.29561
1.30973
1.31667
1.31754
1.31795
1.3158
1.31307
1.31313
1.31335
1.31471
1.31872
1.32273
1.325
1.32716
1.3298
1.33332
1.33604
1.33665
1.33675
1.33631
1.33456
1.33286
1.33228
1.33194
1.33244
1.335
1.33832
1.33935
1.33939
1.33923
1.33904
1.3383
1.33694
1.33616
1.3374
2.47226
5.47258
5.96221
6.09784
6.20954
6.30093
6.37431
6.42571
6.46568
6.5041
6.5486
6.59124
6.62773
6.65459
6.681
6.70603
6.72699
6.74495
6.75824
6.77051
6.7856
6.80724
6.83581
6.86634
6.89195
6.90716
6.91022
6.90918
6.91177
6.92148
6.93712
6.95317
6.96609
6.97518
6.98068
6.98095
6.9767
6.97235
6.97286
6.98058
6.99391
7.00805
7.01697
7.01623
7.00675
6.99322
6.98095
6.97576
6.97836
6.99145
7.00734
7.01522
7.0109
6.99985
6.9889
6.98772
6.99409
7.00694
7.01349
7.01358
7.00408
6.99168
6.98768
6.99454
7.0043
7.01007
7.01203
0.163027
0.184468
0.210483
0.242642
0.283189
0.332543
0.391108
0.425753
0.443116
0.465237
0.502013
0.555585
0.609757
0.649136
0.676196
0.714682
0.730195
0.737097
0.750396
0.770345
0.787818
0.80916
0.839695
0.862163
0.879871
0.900669
0.918301
0.928953
0.936379
0.951927
0.978236
1.0076
1.02433
1.03372
1.0379
1.03803
1.04329
1.05486
1.07726
1.10134
1.11838
1.13114
1.13632
1.13863
1.13967
1.13794
1.14279
1.15662
1.17407
1.18408
1.19285
1.19863
1.20193
1.20708
1.21392
1.22067
1.23186
1.24188
1.24454
1.24567
1.24585
1.24594
1.24766
1.25119
1.25697
1.26911
1.28195
1.28483
1.28513
1.28376
1.28294
1.28368
1.28556
1.2902
1.29891
1.30967
1.31335
1.31349
1.3127
1.3106
1.31032
1.31195
1.31464
1.31884
1.32264
1.32395
1.32377
1.3231
1.32448
1.32677
1.32976
1.33196
1.33328
1.33423
1.33435
1.33397
1.33345
1.33299
1.33335
1.33528
1.33718
1.33795
1.33854
1.33927
1.34034
1.34146
1.34127
1.3403
1.3397
2.36758
5.40097
5.98031
6.11545
6.22586
6.31128
6.38018
6.42884
6.4733
6.51488
6.55683
6.59538
6.62755
6.65032
6.67306
6.69813
6.7235
6.74691
6.76657
6.78183
6.79519
6.81289
6.83828
6.86728
6.89275
6.90874
6.91337
6.91322
6.91515
6.92375
6.939
6.95567
6.9691
6.97799
6.98291
6.98256
6.97784
6.97289
6.97258
6.97941
6.99237
7.00704
7.01765
7.01955
7.01245
7.00019
6.98768
6.98034
6.97988
6.98787
7.00249
7.01269
7.01287
7.00537
6.99647
6.99233
6.99515
7.00157
7.00917
7.0121
7.00678
6.99662
6.9906
6.99211
7.00069
7.00865
7.01584
0.179596
0.187688
0.19478
0.192675
0.193877
0.206118
0.234614
0.277762
0.323388
0.363294
0.407949
0.466727
0.53324
0.576234
0.609978
0.662878
0.70489
0.717188
0.738315
0.761196
0.780861
0.812898
0.843873
0.862497
0.884849
0.909915
0.934823
0.952519
0.958098
0.965803
0.980258
0.994901
1.00576
1.01516
1.02376
1.03314
1.05056
1.07535
1.09789
1.11204
1.1223
1.12839
1.13048
1.13138
1.13372
1.14003
1.1521
1.17077
1.18605
1.19586
1.20261
1.20625
1.20719
1.20681
1.21057
1.21535
1.22433
1.23304
1.23804
1.24344
1.24856
1.25225
1.25548
1.2592
1.26533
1.27522
1.28129
1.28291
1.28376
1.28219
1.28243
1.2852
1.28946
1.29751
1.31012
1.31567
1.31552
1.3145
1.31133
1.3065
1.30532
1.30768
1.31218
1.31963
1.32475
1.32618
1.32685
1.32616
1.32693
1.32906
1.332
1.334
1.33464
1.3346
1.33368
1.33263
1.33218
1.33255
1.33465
1.33838
1.33958
1.33934
1.33843
1.33704
1.3367
1.33746
1.33924
1.34264
1.34338
2.13344
5.26835
6.01603
6.13524
6.24527
6.32785
6.39143
6.43402
6.46803
6.50433
6.54753
6.59136
6.62816
6.65071
6.66772
6.68453
6.70831
6.73675
6.76348
6.78538
6.80339
6.82004
6.83905
6.8617
6.88408
6.90003
6.90748
6.91079
6.91478
6.92309
6.93728
6.95441
6.96899
6.97849
6.98309
6.98233
6.97757
6.97232
6.9709
6.97574
6.98647
6.99952
7.00985
7.01405
7.01161
7.00429
6.9954
6.98786
6.98557
6.98809
6.99363
7.00349
7.00872
7.00777
7.0051
7.00298
7.00077
7.0003
7.00064
7.00079
7.00011
7.00006
6.99662
6.9948
6.99931
7.0039
7.01379
0.209817
0.206392
0.201891
0.200325
0.202144
0.211078
0.231277
0.242715
0.253717
0.269009
0.297291
0.333262
0.381985
0.437645
0.489062
0.555506
0.625071
0.650153
0.669199
0.687158
0.712945
0.761123
0.802952
0.829697
0.860593
0.888622
0.911268
0.935189
0.943046
0.950295
0.965468
0.980988
0.993903
1.00726
1.02306
1.03795
1.06235
1.0919
1.10252
1.1028
1.10365
1.10443
1.10457
1.10859
1.11814
1.13361
1.15423
1.17322
1.18401
1.19169
1.1968
1.19832
1.19652
1.19453
1.19896
1.20984
1.22502
1.23379
1.23875
1.24358
1.24512
1.24526
1.24595
1.2476
1.2534
1.26683
1.27758
1.28184
1.28468
1.28535
1.28412
1.2855
1.28926
1.29688
1.30871
1.31347
1.31443
1.31507
1.31302
1.30758
1.30508
1.30678
1.31035
1.31675
1.32132
1.32354
1.32517
1.32578
1.32727
1.32942
1.33194
1.33342
1.33369
1.33322
1.33167
1.3307
1.33081
1.33173
1.33419
1.3381
1.33982
1.33985
1.33887
1.33662
1.33455
1.33445
1.33554
1.33907
1.3417
1.81407
5.03407
6.09861
6.19065
6.28568
6.35204
6.40301
6.44006
6.47139
6.50887
6.55439
6.60131
6.64021
6.66342
6.6769
6.68696
6.70191
6.72485
6.75443
6.78385
6.80901
6.82895
6.84624
6.8643
6.88231
6.8966
6.90545
6.91068
6.91583
6.92371
6.93655
6.95364
6.96906
6.97894
6.98323
6.98239
6.97845
6.97409
6.97236
6.97549
6.98383
6.99509
7.00523
7.011
7.0113
7.00699
7.00074
6.99426
6.99128
6.99154
6.99135
6.99809
7.00428
7.00701
7.00933
7.01063
7.0087
7.00328
6.99645
6.99308
6.99506
6.99974
7.00149
6.99833
6.99982
6.99999
7.01122
0.279394
0.268456
0.260323
0.26024
0.26304
0.268828
0.277422
0.286233
0.288887
0.291314
0.285941
0.277825
0.279907
0.291508
0.315625
0.350586
0.4076
0.47725
0.528284
0.568147
0.615197
0.681737
0.74925
0.786496
0.815758
0.841842
0.861621
0.888918
0.903435
0.914816
0.934
0.954456
0.974827
0.999061
1.02666
1.04849
1.06924
1.08446
1.08567
1.08119
1.08001
1.08286
1.08767
1.10188
1.12433
1.1436
1.15811
1.16624
1.17023
1.17416
1.17961
1.18296
1.187
1.19629
1.2106
1.22594
1.23919
1.24374
1.2441
1.24209
1.23778
1.23519
1.23614
1.24048
1.25167
1.26859
1.27863
1.28242
1.2841
1.28292
1.28048
1.28036
1.28289
1.28989
1.29996
1.30524
1.30754
1.30918
1.30871
1.30514
1.30509
1.30857
1.31516
1.32332
1.32721
1.32793
1.32733
1.32464
1.3224
1.32238
1.32339
1.3257
1.32903
1.33203
1.33428
1.33569
1.33611
1.33557
1.33489
1.33489
1.33517
1.33526
1.33563
1.33646
1.33796
1.34009
1.34257
1.3449
1.34494
1.51275
4.69901
6.20047
6.24116
6.30971
6.36242
6.40977
6.44706
6.4755
6.50402
6.54198
6.58639
6.62668
6.65806
6.67824
6.69246
6.70746
6.72554
6.7474
6.77094
6.79418
6.817
6.83991
6.86183
6.88057
6.89396
6.90214
6.9066
6.91112
6.91897
6.93181
6.9494
6.96579
6.97643
6.9808
6.98021
6.97765
6.97559
6.97555
6.97857
6.98523
6.99458
7.00378
7.00948
7.01007
7.00648
7.00149
6.9971
6.99482
6.99543
6.99547
6.99755
7.00144
7.0034
7.0067
7.01067
7.01168
7.00615
6.99641
6.98996
6.99106
6.99629
7.00159
7.00115
7.00115
6.99801
7.00624
0.382113
0.359875
0.338672
0.33716
0.333372
0.327998
0.328638
0.336085
0.336288
0.330521
0.321188
0.316734
0.318233
0.324235
0.336505
0.33987
0.343744
0.354096
0.368132
0.387381
0.41783
0.464896
0.541307
0.618189
0.673411
0.723692
0.759623
0.801691
0.841218
0.868935
0.90075
0.931569
0.957188
0.98691
1.01849
1.04156
1.0604
1.06709
1.06559
1.06024
1.06297
1.07153
1.08173
1.10123
1.12132
1.13551
1.1475
1.15263
1.15425
1.15656
1.16116
1.16752
1.17887
1.19414
1.20977
1.22289
1.23352
1.23779
1.23883
1.23766
1.23554
1.23446
1.23654
1.24372
1.25628
1.26898
1.27471
1.27792
1.27933
1.27886
1.27898
1.2793
1.28026
1.28571
1.29509
1.30022
1.30305
1.3054
1.30715
1.30822
1.31082
1.31464
1.31855
1.32062
1.32091
1.31951
1.31749
1.31641
1.31703
1.31903
1.32285
1.32808
1.33325
1.33663
1.33738
1.33544
1.33101
1.32864
1.32822
1.32898
1.33235
1.33661
1.34057
1.34338
1.34429
1.34375
1.34288
1.34232
1.3407
1.35668
4.2287
6.23659
6.3018
6.33739
6.3796
6.42299
6.45752
6.48516
6.51353
6.5494
6.59029
6.6292
6.66197
6.6826
6.69689
6.70967
6.72583
6.74732
6.77016
6.79266
6.81518
6.83883
6.86194
6.88229
6.89675
6.90457
6.90767
6.91016
6.91612
6.9276
6.94427
6.96083
6.97222
6.97736
6.97767
6.97653
6.9764
6.97805
6.98168
6.98775
6.99604
7.00451
7.00977
7.00991
7.00578
7.00019
6.9964
6.99508
6.99719
7.00178
7.00233
7.00184
7.00043
7.0013
7.00384
7.00702
7.0062
7.00051
6.99394
6.99179
6.99397
6.99775
7.00072
7.002
6.9996
7.00162
0.49063
0.450157
0.423461
0.425644
0.422248
0.407241
0.40097
0.406675
0.407865
0.39792
0.383095
0.375147
0.37451
0.377897
0.377696
0.375244
0.376674
0.378781
0.37971
0.379884
0.37937
0.38198
0.394364
0.421552
0.458032
0.500495
0.546708
0.5973
0.670354
0.740487
0.801405
0.870278
0.916537
0.955662
1.00042
1.02155
1.03046
1.03356
1.02722
1.02631
1.03899
1.06358
1.0917
1.1157
1.12632
1.12814
1.12731
1.12627
1.12722
1.12966
1.14183
1.15982
1.17803
1.19582
1.20947
1.21814
1.22576
1.22904
1.22926
1.22932
1.22838
1.22945
1.23503
1.24594
1.25767
1.2667
1.27055
1.27216
1.27264
1.2719
1.27284
1.27498
1.27872
1.28756
1.29896
1.30341
1.30525
1.30619
1.30589
1.30537
1.30585
1.30752
1.31012
1.31198
1.31294
1.31408
1.31617
1.31983
1.32449
1.3292
1.33249
1.33392
1.33428
1.33342
1.33111
1.32784
1.32624
1.32635
1.32864
1.33413
1.33882
1.34035
1.34057
1.33921
1.337
1.33468
1.334
1.33433
1.33538
1.33725
3.66869
6.21123
6.35632
6.37884
6.41475
6.44598
6.47133
6.49269
6.51482
6.54425
6.58061
6.61848
6.65142
6.67675
6.69379
6.70797
6.72269
6.73917
6.75825
6.77873
6.80189
6.82772
6.85119
6.87225
6.88857
6.89883
6.90352
6.90564
6.91012
6.91997
6.93463
6.95048
6.96284
6.97014
6.97339
6.97521
6.97752
6.98064
6.98444
6.98954
6.99635
7.00378
7.00911
7.01019
7.00695
7.00143
6.99651
6.99443
6.99503
7.00146
7.00735
7.00582
7.00162
6.99839
6.99708
6.99845
7.00217
7.00402
7.00202
6.99758
6.99347
6.99216
6.99529
7.00057
7.00137
6.99989
0.610455
0.556176
0.516876
0.518164
0.520729
0.504644
0.479259
0.47824
0.47993
0.468054
0.447319
0.435412
0.43294
0.434052
0.434649
0.431458
0.426419
0.41863
0.412634
0.409415
0.408861
0.408844
0.412834
0.423302
0.423524
0.422973
0.424826
0.432295
0.454585
0.498218
0.558282
0.645418
0.743283
0.813409
0.884143
0.924691
0.947865
0.972674
0.985125
0.998272
1.02938
1.0785
1.11161
1.12346
1.12717
1.12312
1.10496
1.09699
1.09954
1.10695
1.12913
1.1623
1.18406
1.19954
1.20505
1.20587
1.20749
1.20741
1.20699
1.21228
1.2201
1.22807
1.23778
1.24958
1.25919
1.2639
1.26516
1.26483
1.26259
1.263
1.26719
1.27261
1.27954
1.29009
1.30098
1.30355
1.30362
1.30313
1.30202
1.30164
1.30208
1.30245
1.30338
1.30576
1.30972
1.31448
1.31948
1.32374
1.32699
1.32907
1.33021
1.33063
1.33067
1.32906
1.32547
1.32481
1.32584
1.32859
1.3336
1.33644
1.33667
1.33657
1.33596
1.3334
1.33
1.33011
1.33131
1.33346
1.3372
1.33778
3.15245
6.12827
6.41204
6.42169
6.45285
6.47527
6.49393
6.50852
6.52588
6.55004
6.58107
6.61448
6.6443
6.66831
6.68758
6.70377
6.71913
6.7351
6.75444
6.77526
6.7987
6.82389
6.84777
6.86891
6.88457
6.89414
6.89891
6.90173
6.90619
6.915
6.92821
6.94327
6.95626
6.96499
6.97036
6.97454
6.97878
6.98301
6.98702
6.99128
6.99632
7.00175
7.00622
7.0084
7.00763
7.00443
6.9996
6.99543
6.99321
6.99554
7.00426
7.00629
7.00421
6.99913
6.99505
6.99309
6.99732
7.00429
7.00815
7.00433
6.99518
6.98791
6.9896
6.99531
7.00148
7.00076
0.740687
0.693213
0.626491
0.602615
0.605241
0.598519
0.566969
0.54608
0.548153
0.542427
0.51719
0.502433
0.502152
0.504139
0.504368
0.499303
0.488465
0.472581
0.457737
0.456269
0.454949
0.451787
0.451976
0.452608
0.452424
0.448935
0.442722
0.442693
0.443218
0.446231
0.453899
0.47203
0.509322
0.556631
0.61031
0.678915
0.745762
0.815465
0.890486
0.946258
0.997407
1.05479
1.0902
1.09726
1.0993
1.09193
1.07801
1.07783
1.08378
1.10782
1.14248
1.17355
1.19033
1.19217
1.18859
1.18106
1.181
1.1843
1.18972
1.19909
1.21911
1.23395
1.24199
1.24971
1.25376
1.25412
1.25483
1.25485
1.25429
1.25667
1.26213
1.26984
1.27998
1.2922
1.29995
1.30044
1.30013
1.29868
1.29697
1.29718
1.29834
1.30013
1.30284
1.3064
1.31132
1.31566
1.31848
1.32158
1.32527
1.32724
1.32793
1.32824
1.32717
1.32348
1.32231
1.32339
1.32654
1.33164
1.33466
1.3352
1.33489
1.33398
1.33167
1.32863
1.32819
1.32981
1.33301
1.33683
1.33856
1.33845
2.67872
5.9851
6.46242
6.45246
6.46627
6.47463
6.48542
6.4975
6.51739
6.54255
6.5712
6.60171
6.63244
6.6611
6.68426
6.69966
6.71254
6.72567
6.7425
6.76232
6.78523
6.80974
6.83288
6.85179
6.86682
6.87784
6.88485
6.88959
6.8947
6.90317
6.91615
6.93203
6.9471
6.95861
6.9662
6.97125
6.97556
6.98016
6.98511
6.99041
6.99566
7.00004
7.00299
7.00491
7.00609
7.00613
7.00379
6.99883
6.99376
6.99021
6.99436
6.99957
7.00413
7.00286
6.99812
6.99414
6.99525
7.00185
7.00789
7.00663
6.99712
6.98692
6.98658
6.99093
6.99987
7.00123
0.854277
0.826675
0.774206
0.708727
0.687094
0.686701
0.671791
0.634359
0.617897
0.614094
0.599085
0.576835
0.567307
0.560557
0.558436
0.556847
0.547168
0.529394
0.514926
0.512894
0.512975
0.508576
0.501697
0.498633
0.494803
0.485986
0.476036
0.474453
0.473768
0.473404
0.47494
0.481143
0.4807
0.477456
0.475632
0.482724
0.506004
0.551363
0.633196
0.73442
0.829477
0.924696
0.96819
1.00028
1.02555
1.03437
1.05233
1.06965
1.08751
1.12131
1.15297
1.17053
1.17495
1.16957
1.15691
1.14984
1.1567
1.16891
1.18544
1.20884
1.22964
1.23787
1.24026
1.23863
1.23544
1.23699
1.24244
1.24947
1.25372
1.25678
1.26241
1.26869
1.27815
1.2898
1.29481
1.29454
1.29402
1.29324
1.29188
1.2926
1.29401
1.29574
1.29979
1.3075
1.31311
1.31508
1.31652
1.31897
1.3225
1.3239
1.32433
1.32418
1.32244
1.3213
1.32177
1.32375
1.32831
1.3322
1.33359
1.3335
1.33273
1.33062
1.32804
1.32752
1.32897
1.33235
1.33634
1.33798
1.33846
1.33793
2.25718
5.785
6.48819
6.47133
6.47744
6.48032
6.4843
6.49148
6.51074
6.53739
6.56665
6.59672
6.62647
6.65456
6.67431
6.68686
6.69579
6.70695
6.72448
6.74737
6.77317
6.79824
6.82143
6.8402
6.85472
6.86533
6.87284
6.87829
6.88315
6.89065
6.90299
6.92062
6.94006
6.95653
6.9674
6.97285
6.97492
6.9765
6.98016
6.98643
6.99371
6.99939
7.00179
7.00216
7.00278
7.00429
7.0048
7.00145
6.99511
6.98814
6.98642
6.98993
6.99912
7.00486
7.00463
7.00067
6.99824
6.99882
7.00239
7.00248
6.99673
6.98873
6.98724
6.99045
6.99842
6.9994
0.969987
0.939837
0.90642
0.842089
0.779091
0.766679
0.764337
0.746911
0.708379
0.681019
0.669572
0.656459
0.644473
0.628803
0.611691
0.608332
0.603695
0.587209
0.572106
0.570352
0.570771
0.567936
0.559812
0.552743
0.543092
0.52709
0.515443
0.514604
0.516728
0.515565
0.513655
0.512366
0.509667
0.502062
0.489972
0.485611
0.486362
0.490359
0.502487
0.532531
0.5812
0.650884
0.728781
0.798671
0.871268
0.933806
0.991983
1.02934
1.05679
1.09899
1.13407
1.14066
1.14075
1.13493
1.12584
1.12598
1.13774
1.157
1.18384
1.21455
1.2281
1.22976
1.22604
1.21809
1.21792
1.22299
1.23438
1.24814
1.25599
1.25962
1.26132
1.26513
1.27189
1.28059
1.28662
1.28933
1.29087
1.28989
1.2877
1.28805
1.28899
1.29035
1.29654
1.30679
1.31153
1.3138
1.31564
1.31693
1.31773
1.31773
1.31732
1.31637
1.31642
1.31814
1.3218
1.32695
1.33028
1.3312
1.33118
1.33053
1.32875
1.32691
1.32648
1.32752
1.33095
1.33476
1.33639
1.33698
1.33736
1.33679
1.90803
5.52494
6.49982
6.49163
6.49055
6.48938
6.49335
6.50537
6.52633
6.55298
6.5806
6.60574
6.62679
6.63995
6.64722
6.65684
6.67064
6.68876
6.70965
6.73343
6.75807
6.78073
6.79891
6.81523
6.83135
6.84684
6.85826
6.8653
6.86914
6.87432
6.88429
6.9024
6.92504
6.9477
6.96389
6.97171
6.9724
6.97043
6.97063
6.97623
6.98622
6.9959
7.00078
7.00073
6.99924
6.99953
7.00102
7.00041
6.9959
6.98865
6.9842
6.98442
6.99224
7.00367
7.0077
7.0065
7.00161
6.9976
6.99603
6.99561
6.99435
6.99144
6.99097
6.99217
6.99618
6.9949
1.13171
1.04999
1.01551
0.974895
0.908991
0.852065
0.843232
0.842885
0.822705
0.782002
0.741261
0.72805
0.721318
0.708016
0.68252
0.660487
0.655221
0.647135
0.631008
0.626212
0.624193
0.620168
0.61035
0.600753
0.588746
0.570049
0.560565
0.559824
0.561692
0.563074
0.559051
0.552483
0.54719
0.537768
0.522171
0.514584
0.514044
0.514965
0.517415
0.521195
0.524654
0.529683
0.540258
0.557988
0.593568
0.658376
0.734428
0.828328
0.908338
0.998152
1.04576
1.07264
1.0923
1.1054
1.1188
1.12821
1.14254
1.16159
1.18291
1.20674
1.2102
1.20634
1.20281
1.20579
1.21045
1.21724
1.22769
1.24143
1.25026
1.25393
1.25503
1.25661
1.26361
1.27162
1.27965
1.28703
1.28924
1.28943
1.28684
1.28294
1.28302
1.28521
1.29311
1.3044
1.30962
1.31171
1.31284
1.31223
1.31022
1.30882
1.30812
1.30887
1.31241
1.31853
1.32508
1.3283
1.32922
1.32926
1.32822
1.32578
1.3242
1.32415
1.32544
1.32917
1.33273
1.33391
1.33445
1.33485
1.335
1.33431
1.63418
5.19557
6.50707
6.5074
6.5039
6.50233
6.50516
6.51488
6.53522
6.55987
6.58254
6.59884
6.60816
6.61218
6.62054
6.6366
6.65791
6.68009
6.70065
6.71981
6.73786
6.75459
6.77172
6.79228
6.81218
6.82856
6.84311
6.85304
6.85748
6.86049
6.86751
6.88338
6.90672
6.93299
6.95578
6.96927
6.97268
6.9693
6.96576
6.96795
6.97726
6.9898
6.99872
7.00064
6.99774
6.99505
6.9949
6.99568
6.99448
6.99023
6.98665
6.98548
6.98827
6.99855
7.00798
7.00788
7.0033
6.99697
6.992
6.99065
6.99178
6.99376
6.99521
6.99433
6.9936
6.98867
1.30626
1.19105
1.10893
1.08077
1.04284
0.982151
0.935469
0.923994
0.914186
0.887984
0.842998
0.797912
0.782812
0.775849
0.762364
0.734683
0.71036
0.702052
0.693138
0.686915
0.6813
0.674623
0.663304
0.64522
0.629925
0.616442
0.60844
0.605738
0.605854
0.609363
0.608454
0.601506
0.590133
0.574004
0.557203
0.551947
0.551344
0.551989
0.550475
0.546596
0.544014
0.542246
0.53861
0.532361
0.532266
0.537865
0.55353
0.594138
0.662806
0.747406
0.84526
0.929391
1.00034
1.05388
1.09271
1.10235
1.11521
1.14134
1.16106
1.16949
1.17664
1.17778
1.18066
1.18964
1.19693
1.20502
1.21412
1.22453
1.2339
1.24219
1.24641
1.25039
1.25883
1.26829
1.27509
1.28012
1.28168
1.28182
1.2791
1.27652
1.27774
1.28264
1.29395
1.30524
1.30859
1.30921
1.30883
1.30556
1.30244
1.30167
1.3017
1.30468
1.31266
1.32173
1.32563
1.3268
1.32671
1.32489
1.3217
1.32029
1.32048
1.32223
1.32677
1.33158
1.33268
1.33275
1.33236
1.33113
1.33033
1.33064
1.41748
4.81967
6.50562
6.51665
6.511
6.51122
6.51558
6.52395
6.53937
6.55736
6.57316
6.58261
6.58555
6.58859
6.60158
6.62512
6.65235
6.67592
6.6932
6.70502
6.71384
6.72349
6.7405
6.76508
6.79141
6.81193
6.82555
6.83573
6.84244
6.84597
6.85084
6.86267
6.88431
6.91149
6.9381
6.95678
6.96474
6.96388
6.95928
6.95762
6.96371
6.97631
6.98916
6.99614
6.99572
6.99185
6.98918
6.98933
6.99043
6.99079
6.98993
6.98991
6.99215
6.99213
7.00083
7.00277
7.00077
6.99518
6.99136
6.98917
6.99136
6.99517
6.99714
6.99511
6.99036
6.98294
1.44619
1.3491
1.23795
1.18111
1.156
1.11645
1.06479
1.01851
0.992228
0.974823
0.945063
0.893462
0.843653
0.832637
0.830651
0.817924
0.791855
0.76415
0.751487
0.746827
0.740194
0.729273
0.714615
0.692737
0.67164
0.664945
0.659969
0.652708
0.64941
0.649983
0.650327
0.644645
0.627793
0.610011
0.597986
0.593448
0.592642
0.593045
0.591856
0.587088
0.580552
0.572502
0.558976
0.547988
0.546669
0.547489
0.552912
0.557034
0.562913
0.574906
0.603845
0.647706
0.708005
0.785882
0.875857
0.950603
1.00417
1.07118
1.1055
1.13367
1.15918
1.17431
1.18673
1.2003
1.20204
1.20111
1.19869
1.19935
1.20982
1.22499
1.23982
1.25154
1.26136
1.26748
1.26952
1.26798
1.26607
1.26521
1.26472
1.26768
1.27564
1.28761
1.29976
1.30583
1.30583
1.30452
1.30201
1.29839
1.29768
1.29863
1.30074
1.30652
1.3164
1.32166
1.32301
1.32334
1.32163
1.31773
1.31599
1.31603
1.31778
1.32298
1.32927
1.33102
1.33101
1.3303
1.32787
1.32533
1.32572
1.32648
1.33211
4.3567
6.47242
6.5179
6.51321
6.51389
6.51848
6.52603
6.53756
6.55049
6.56173
6.56781
6.56852
6.57281
6.59013
6.61806
6.6472
6.66922
6.68125
6.68485
6.68562
6.6931
6.71346
6.74054
6.76679
6.78791
6.80436
6.81817
6.82918
6.83691
6.84175
6.84798
6.86094
6.88341
6.91111
6.93615
6.95124
6.95586
6.9536
6.95114
6.95335
6.96278
6.97656
6.98807
6.99245
6.99028
6.98633
6.98464
6.98625
6.98906
6.99199
6.99331
6.99401
6.99308
6.99307
6.99568
6.9974
6.99561
6.99176
6.99098
6.99169
6.99546
6.99653
6.99378
6.98618
6.97946
1.57334
1.47804
1.38266
1.31944
1.2677
1.23121
1.19764
1.14405
1.07497
1.04493
1.02715
0.993239
0.93964
0.896352
0.88705
0.885121
0.871633
0.847277
0.820969
0.803928
0.794722
0.783256
0.765867
0.744166
0.7203
0.710861
0.7103
0.706074
0.697679
0.693517
0.691102
0.683896
0.662168
0.643679
0.63907
0.633716
0.630322
0.630825
0.631624
0.629193
0.623191
0.612541
0.595849
0.582447
0.577942
0.575286
0.574122
0.575691
0.575149
0.575703
0.575484
0.575625
0.577732
0.590672
0.625463
0.69492
0.779408
0.880895
0.989249
1.06557
1.12722
1.15203
1.16265
1.17827
1.18505
1.1825
1.17532
1.17923
1.19318
1.21231
1.23358
1.25253
1.26231
1.26088
1.25423
1.24752
1.24669
1.24929
1.25315
1.26033
1.27787
1.29434
1.29916
1.29949
1.2961
1.29163
1.2896
1.29087
1.29448
1.29887
1.30426
1.31285
1.31852
1.31907
1.31891
1.31731
1.31375
1.31234
1.31245
1.31365
1.31841
1.32584
1.32896
1.32903
1.32813
1.32526
1.32104
1.32011
1.32152
1.32386
1.32733
3.84292
6.41963
6.51459
6.50897
6.5117
6.51949
6.52921
6.53576
6.54302
6.54979
6.5539
6.5548
6.56202
6.58094
6.60694
6.63178
6.64943
6.65737
6.65751
6.65837
6.66999
6.69352
6.72102
6.74403
6.76055
6.77546
6.79136
6.80753
6.82093
6.82883
6.83335
6.84014
6.85724
6.88322
6.91007
6.93149
6.94001
6.94158
6.93927
6.93974
6.94601
6.95762
6.97134
6.9811
6.98411
6.9823
6.98045
6.98171
6.98568
6.99063
6.99333
6.9944
6.99124
6.98931
6.98634
6.98965
6.99399
6.99278
6.99201
6.99266
6.9943
6.99386
6.99081
6.98213
6.97804
1.71426
1.60358
1.52479
1.46897
1.40069
1.33432
1.30728
1.27004
1.1987
1.11673
1.08821
1.07009
1.03634
0.989054
0.958306
0.949466
0.94207
0.925844
0.89994
0.867922
0.842891
0.830695
0.818399
0.802157
0.783896
0.765633
0.756978
0.755656
0.749691
0.739834
0.73058
0.71827
0.696682
0.681071
0.679187
0.676752
0.670354
0.666555
0.665098
0.662409
0.656625
0.644461
0.626974
0.619009
0.617565
0.615586
0.611555
0.607949
0.6042
0.598417
0.591671
0.585414
0.580168
0.577738
0.578602
0.584565
0.600277
0.633758
0.703005
0.783962
0.877044
0.961801
1.01712
1.07445
1.11031
1.13907
1.16014
1.17909
1.20339
1.2268
1.23631
1.24449
1.24842
1.24426
1.23639
1.23094
1.23537
1.24224
1.25023
1.26586
1.28724
1.29346
1.29352
1.29049
1.28293
1.27824
1.27891
1.28221
1.28781
1.29643
1.30711
1.31471
1.31602
1.31547
1.31353
1.30923
1.30783
1.30962
1.31175
1.31534
1.32248
1.32704
1.32713
1.3261
1.32323
1.31811
1.31531
1.31577
1.31782
1.32283
1.32779
3.35775
6.31995
6.51476
6.50811
6.51127
6.5176
6.52692
6.53318
6.53769
6.54109
6.54195
6.5433
6.55118
6.56734
6.58671
6.60382
6.61704
6.62474
6.62884
6.63727
6.65489
6.67837
6.70163
6.71916
6.7321
6.74619
6.76225
6.78013
6.79704
6.80921
6.81536
6.8197
6.83127
6.85279
6.88021
6.90482
6.91914
6.92163
6.92292
6.92377
6.92902
6.93986
6.95349
6.96632
6.97453
6.97695
6.97654
6.97738
6.98144
6.98673
6.99084
6.99104
6.98931
6.98603
6.98125
6.98474
6.99025
6.99352
6.99165
6.99051
6.9902
6.98963
6.98667
6.97908
6.97796
1.8549
1.73972
1.67136
1.60445
1.53598
1.46008
1.41076
1.36526
1.30632
1.2256
1.15718
1.1376
1.12108
1.0919
1.05355
1.01768
1.00149
0.991192
0.974392
0.946686
0.903549
0.871119
0.861699
0.854079
0.844667
0.833785
0.816855
0.802395
0.796242
0.786929
0.77367
0.757474
0.735541
0.719718
0.717459
0.717162
0.713314
0.708152
0.703371
0.697885
0.688334
0.66978
0.653945
0.650723
0.649846
0.650258
0.649249
0.646455
0.642274
0.635628
0.624866
0.607729
0.59622
0.59491
0.59464
0.595431
0.598795
0.601422
0.607093
0.61852
0.642912
0.694596
0.762453
0.852671
0.954832
1.0476
1.1242
1.15555
1.18075
1.20944
1.21649
1.21705
1.21523
1.2164
1.21644
1.21678
1.22618
1.23866
1.25289
1.27363
1.28844
1.2888
1.28739
1.28511
1.27918
1.27459
1.27404
1.27475
1.27973
1.29404
1.30777
1.31119
1.31125
1.31016
1.30563
1.30078
1.30187
1.30485
1.30916
1.31763
1.32615
1.32738
1.32664
1.32376
1.31763
1.3119
1.31086
1.31125
1.31424
1.3224
1.32851
2.89532
6.18069
6.52184
6.50949
6.51026
6.51473
6.52269
6.52845
6.53147
6.53227
6.53032
6.53027
6.53649
6.54785
6.56
6.57079
6.58151
6.59249
6.60589
6.62377
6.64394
6.66313
6.67984
6.69245
6.70392
6.71959
6.73782
6.75541
6.76992
6.78046
6.78757
6.79522
6.8081
6.82836
6.85348
6.8764
6.89355
6.89962
6.8994
6.90163
6.90771
6.91802
6.93235
6.94688
6.95775
6.96388
6.96646
6.969
6.97388
6.98051
6.98515
6.98616
6.98433
6.98094
6.98208
6.98276
6.98796
6.99267
6.99066
6.98717
6.98583
6.98363
6.98174
6.97693
6.97796
1.98936
1.88864
1.81195
1.73803
1.65671
1.58726
1.52458
1.45187
1.38936
1.33061
1.25913
1.21175
1.19623
1.18407
1.16046
1.11835
1.06522
1.03981
1.03001
1.01297
0.982422
0.941426
0.911411
0.903298
0.899703
0.893243
0.881304
0.86254
0.842417
0.827959
0.814695
0.800041
0.782426
0.766238
0.759304
0.754529
0.750175
0.747265
0.743485
0.736546
0.72328
0.701183
0.686736
0.684062
0.681943
0.680477
0.680548
0.679475
0.676811
0.671505
0.659066
0.638043
0.625412
0.623891
0.623753
0.621485
0.619214
0.618056
0.617015
0.615808
0.610453
0.608278
0.614461
0.636406
0.689721
0.765837
0.877323
0.974411
1.05444
1.11817
1.13934
1.15856
1.17447
1.19657
1.20988
1.21453
1.22588
1.23717
1.25253
1.27109
1.27942
1.27901
1.28125
1.28203
1.27482
1.27138
1.27043
1.26889
1.27597
1.29273
1.30321
1.30619
1.30787
1.30618
1.29715
1.29277
1.29395
1.2977
1.30644
1.3201
1.32725
1.32794
1.32719
1.32183
1.31217
1.30738
1.30671
1.30713
1.31187
1.32325
1.32833
2.46742
5.99414
6.52995
6.51591
6.51403
6.51643
6.52239
6.52613
6.52427
6.51997
6.51318
6.51022
6.51525
6.52466
6.53421
6.54279
6.55347
6.5688
6.58929
6.61209
6.63157
6.6447
6.65284
6.66059
6.67374
6.69318
6.71305
6.7291
6.74151
6.75185
6.76018
6.76935
6.78297
6.80361
6.82948
6.85334
6.8686
6.8759
6.87528
6.87564
6.88231
6.89494
6.9105
6.92591
6.93903
6.94804
6.9535
6.95798
6.96418
6.97218
6.97857
6.98106
6.97934
6.97851
6.9779
6.98446
6.98802
6.99272
6.98972
6.98234
6.97762
6.97665
6.97651
6.9747
6.97657
2.13733
2.03244
1.94305
1.86541
1.77123
1.70107
1.63007
1.5493
1.46662
1.42277
1.37724
1.32078
1.2699
1.25382
1.2438
1.21687
1.17053
1.10796
1.06638
1.05377
1.04058
1.01712
0.985467
0.960839
0.952632
0.946396
0.937154
0.922486
0.898451
0.86715
0.846405
0.83724
0.829809
0.81835
0.808193
0.799819
0.789047
0.78309
0.778993
0.771237
0.757679
0.737936
0.72095
0.716813
0.716121
0.713185
0.710295
0.709361
0.707373
0.702053
0.687551
0.665963
0.657757
0.656153
0.656113
0.65517
0.651486
0.648196
0.644359
0.636695
0.623076
0.612936
0.612875
0.614412
0.619055
0.63031
0.660787
0.723207
0.799826
0.892172
0.981968
1.05821
1.11628
1.15748
1.18736
1.19146
1.20576
1.22382
1.23584
1.2494
1.25982
1.26458
1.26726
1.26302
1.25731
1.25742
1.2578
1.2627
1.2791
1.29417
1.30168
1.30624
1.30733
1.29969
1.28667
1.28298
1.2839
1.29129
1.30752
1.32287
1.32733
1.3275
1.32552
1.31689
1.30599
1.3032
1.30293
1.30519
1.31402
1.32474
1.32714
2.09038
5.75297
6.54508
6.52464
6.5181
6.51999
6.52427
6.52288
6.51637
6.50441
6.48991
6.48526
6.49124
6.50281
6.51446
6.52482
6.53722
6.55464
6.57547
6.59477
6.60818
6.6156
6.62051
6.62942
6.64622
6.66792
6.68777
6.70233
6.71326
6.72299
6.73227
6.74322
6.75787
6.77792
6.80231
6.82569
6.84196
6.84922
6.84843
6.84819
6.85402
6.86694
6.88471
6.90288
6.91752
6.92778
6.93494
6.94118
6.94872
6.95841
6.96826
6.97365
6.97506
6.97341
6.97654
6.98186
6.98857
6.9857
6.98199
6.97698
6.97141
6.97103
6.97124
6.9715
6.97259
2.27874
2.16573
2.07124
1.97976
1.87907
1.80302
1.73626
1.65007
1.5525
1.50638
1.47832
1.44104
1.38832
1.33165
1.30058
1.28392
1.25488
1.20266
1.13548
1.09872
1.08987
1.08148
1.06309
1.03423
1.00614
0.994835
0.987259
0.975176
0.954695
0.920851
0.88357
0.872706
0.871496
0.867048
0.859013
0.849678
0.836829
0.820321
0.80827
0.799581
0.789137
0.776853
0.763323
0.75313
0.750213
0.748173
0.743749
0.739331
0.734803
0.727616
0.714437
0.697404
0.688563
0.685807
0.684561
0.68458
0.682704
0.678871
0.673495
0.66412
0.648333
0.63597
0.633147
0.632575
0.631562
0.63259
0.634908
0.639976
0.649367
0.668566
0.708363
0.767945
0.856337
0.942611
1.03527
1.09237
1.13985
1.18794
1.22246
1.24589
1.26317
1.26439
1.25521
1.24037
1.23379
1.23621
1.24633
1.26432
1.28612
1.29681
1.30069
1.30191
1.29442
1.2785
1.27165
1.27092
1.27589
1.29406
1.31536
1.32369
1.32484
1.32458
1.31895
1.30626
1.29863
1.29851
1.30035
1.30739
1.3199
1.32577
1.32589
1.78073
5.44275
6.54912
6.52631
6.51812
6.52122
6.52162
6.51616
6.50294
6.48082
6.4639
6.46041
6.46884
6.48564
6.50289
6.51647
6.52695
6.53697
6.54905
6.56295
6.57537
6.58387
6.5914
6.60348
6.6211
6.64052
6.65826
6.67285
6.68519
6.69636
6.70748
6.71888
6.73159
6.74899
6.77165
6.79503
6.81328
6.82203
6.82338
6.82261
6.82765
6.84055
6.85825
6.87684
6.89356
6.90692
6.91625
6.92309
6.93103
6.94202
6.95424
6.96425
6.96901
6.97017
6.97358
6.97706
6.9863
6.98097
6.97588
6.96938
6.9633
6.96264
6.96479
6.96556
6.96459
2.40472
2.28452
2.18563
2.09631
1.98597
1.89562
1.8318
1.75449
1.67359
1.60678
1.56107
1.53458
1.50114
1.44889
1.37931
1.32727
1.30333
1.27366
1.22668
1.17203
1.14359
1.13734
1.13114
1.11368
1.08398
1.04691
1.02629
1.01499
0.999157
0.976186
0.947472
0.920398
0.909001
0.907181
0.905104
0.898481
0.888682
0.871785
0.843978
0.822949
0.813992
0.808708
0.803576
0.797226
0.789016
0.782915
0.777845
0.770691
0.76197
0.75103
0.736835
0.726883
0.722494
0.719102
0.715225
0.712718
0.710252
0.706371
0.699058
0.684603
0.669149
0.664922
0.663912
0.662182
0.659247
0.655567
0.652248
0.648715
0.644259
0.638101
0.638367
0.64374
0.664685
0.710829
0.787887
0.895903
0.995143
1.10682
1.18279
1.22819
1.2418
1.24029
1.23059
1.21213