/*--------------------------------*- C++ -*----------------------------------*\
  =========                 |
  \\      /  F ield         | OpenFOAM: The Open Source CFD Toolbox
   \\    /   O peration     | Website:  https://openfoam.org
    \\  /    A nd           | Version:  7
     \\/     M anipulation  |
\*---------------------------------------------------------------------------*/
FoamFile
{
    version     2.0;
    format      ascii;
    class       volVectorField;
    location    "2.7";
    object      U;
}
// * * * * * * * * * * * * * * * * * * * * * * * * * * * * * * * * * * * * * //

dimensions      [0 1 -1 0 0 0 0];

internalField   nonuniform List<vector> 
16192
(
(2.61424 -0.326262 0)
(2.61911 -0.323459 0)
(2.62601 -0.317323 0)
(2.62873 -0.312765 0)
(2.6296 -0.310164 0)
(2.62963 -0.306233 0)
(2.6253 -0.30157 0)
(2.62054 -0.298565 0)
(2.61944 -0.298187 0)
(2.61999 -0.298636 0)
(2.62103 -0.299486 0)
(2.62282 -0.30023 0)
(2.62476 -0.30075 0)
(2.62722 -0.301477 0)
(2.63201 -0.301964 0)
(2.63833 -0.299783 0)
(2.64177 -0.296494 0)
(2.6437 -0.293845 0)
(2.64573 -0.291228 0)
(2.64642 -0.287807 0)
(2.64416 -0.283105 0)
(2.64356 -0.2808 0)
(2.64565 -0.281396 0)
(2.64779 -0.282928 0)
(2.6497 -0.284892 0)
(2.65118 -0.287161 0)
(2.65232 -0.289682 0)
(2.65305 -0.291237 0)
(2.65326 -0.29098 0)
(2.65205 -0.288099 0)
(2.65013 -0.282773 0)
(2.65051 -0.278234 0)
(2.6526 -0.275838 0)
(2.65481 -0.274136 0)
(2.65946 -0.272681 0)
(2.66627 -0.271911 0)
(2.67191 -0.273071 0)
(2.67503 -0.275576 0)
(2.67688 -0.278251 0)
(2.67899 -0.281229 0)
(2.68024 -0.284065 0)
(2.67883 -0.28598 0)
(2.67113 -0.283132 0)
(2.65852 -0.272035 0)
(2.65237 -0.262296 0)
(2.65229 -0.258795 0)
(2.65355 -0.255978 0)
(2.65791 -0.250972 0)
(2.66825 -0.246529 0)
(2.68138 -0.246269 0)
(2.68796 -0.249358 0)
(2.68902 -0.252292 0)
(2.68903 -0.254205 0)
(2.68855 -0.255834 0)
(2.68621 -0.256739 0)
(2.6785 -0.253416 0)
(2.66751 -0.244721 0)
(2.66435 -0.238925 0)
(2.66635 -0.237069 0)
(2.66866 -0.235829 0)
(2.67287 -0.234158 0)
(2.68173 -0.232183 0)
(2.68991 -0.232222 0)
(2.69233 -0.232427 0)
(2.69626 -0.232818 0)
(2.70005 -0.233229 0)
(2.70262 -0.234104 0)
(2.70148 -0.235733 0)
(2.69408 -0.23668 0)
(2.68862 -0.23564 0)
(2.69028 -0.235092 0)
(2.69217 -0.234854 0)
(2.69477 -0.234316 0)
(2.69785 -0.233714 0)
(2.70089 -0.232761 0)
(2.70312 -0.232029 0)
(2.70534 -0.231466 0)
(2.70663 -0.229476 0)
(2.70668 -0.226847 0)
(2.70858 -0.225579 0)
(2.71045 -0.225599 0)
(2.71292 -0.225409 0)
(2.71623 -0.225515 0)
(2.71849 -0.226505 0)
(2.72009 -0.227507 0)
(2.72198 -0.228435 0)
(2.72393 -0.229259 0)
(2.7256 -0.229903 0)
(2.72604 -0.229383 0)
(2.72435 -0.226552 0)
(2.72141 -0.222238 0)
(2.71895 -0.218264 0)
(2.71899 -0.215654 0)
(2.72113 -0.214392 0)
(2.72309 -0.213873 0)
(2.72556 -0.212895 0)
(2.72844 -0.211808 0)
(2.73271 -0.211573 0)
(2.7382 -0.211978 0)
(2.74281 -0.213058 0)
(2.74457 -0.21389 0)
(2.74637 -0.214505 0)
(2.74788 -0.215027 0)
(2.74572 -0.214227 0)
(2.73744 -0.211085 0)
(2.7324 -0.208143 0)
(2.73316 -0.206945 0)
(2.73504 -0.206552 0)
(2.73731 -0.206359 0)
(2.73969 -0.205999 0)
(2.74439 -0.205728 0)
(2.75184 -0.205724 0)
(2.75661 -0.205569 0)
(2.75883 -0.204897 0)
(2.76032 -0.203701 0)
(2.76069 -0.201667 0)
(2.75948 -0.199549 0)
(2.75781 -0.197471 0)
(2.75255 -0.19191 0)
(2.74314 -0.181689 0)
(2.73751 -0.174669 0)
(2.73474 -0.169818 0)
(2.73416 -0.164572 0)
(2.73566 -0.161584 0)
(2.73854 -0.160839 0)
(2.74297 -0.162232 0)
(2.74524 -0.163406 0)
(2.74588 -0.163913 0)
(2.74676 -0.165891 0)
(2.74728 -0.167819 0)
(2.74781 -0.168133 0)
(2.7471 -0.166627 0)
(2.74336 -0.163022 0)
(2.74257 -0.16105 0)
(2.74468 -0.161009 0)
(2.74666 -0.161018 0)
(2.74927 -0.161045 0)
(2.75243 -0.160773 0)
(2.75519 -0.160397 0)
(2.75822 -0.15994 0)
(2.76075 -0.159869 0)
(2.763 -0.159678 0)
(2.76195 -0.158557 0)
(2.75811 -0.156607 0)
(2.75775 -0.156008 0)
(2.75884 -0.156029 0)
(2.76105 -0.156149 0)
(2.76431 -0.157109 0)
(2.7661 -0.157567 0)
(2.76827 -0.15883 0)
(2.76917 -0.160573 0)
(2.76904 -0.162026 0)
(2.76771 -0.162009 0)
(2.76307 -0.158005 0)
(2.75544 -0.148734 0)
(2.7526 -0.14203 0)
(2.75389 -0.139712 0)
(2.75533 -0.138397 0)
(2.75811 -0.137353 0)
(2.76242 -0.13805 0)
(2.76986 -0.141644 0)
(2.7766 -0.14493 0)
(2.77828 -0.145341 0)
(2.77968 -0.145185 0)
(2.78075 -0.144809 0)
(2.7807 -0.14377 0)
(2.77678 -0.140512 0)
(2.76794 -0.134457 0)
(2.76273 -0.129695 0)
(2.76188 -0.127888 0)
(2.76178 -0.12661 0)
(2.76242 -0.124743 0)
(2.76663 -0.123999 0)
(2.77742 -0.125853 0)
(2.78666 -0.127285 0)
(2.78865 -0.126838 0)
(2.78967 -0.125713 0)
(2.79074 -0.123151 0)
(2.78899 -0.119816 0)
(2.77908 -0.115779 0)
(2.76753 -0.114952 0)
(2.76639 -0.118099 0)
(2.76788 -0.120764 0)
(2.76996 -0.123067 0)
(2.77199 -0.125004 0)
(2.7755 -0.127045 0)
(2.77979 -0.128382 0)
(2.78354 -0.127988 0)
(2.78711 -0.125515 0)
(2.78994 -0.119519 0)
(2.79051 -0.113774 0)
(2.79167 -0.108615 0)
(2.79268 -0.105595 0)
(2.79287 -0.104459 0)
(2.79333 -0.104979 0)
(2.79409 -0.106464 0)
(2.79421 -0.109558 0)
(2.79333 -0.114443 0)
(2.79184 -0.119232 0)
(2.79219 -0.121511 0)
(2.79359 -0.121884 0)
(2.79488 -0.121193 0)
(2.79567 -0.118423 0)
(2.79579 -0.113355 0)
(2.79552 -0.106536 0)
(2.79526 -0.101636 0)
(2.79587 -0.0999033 0)
(2.79734 -0.0997973 0)
(2.79908 -0.100492 0)
(2.80217 -0.102517 0)
(2.80407 -0.105702 0)
(2.80502 -0.108645 0)
(2.80656 -0.111407 0)
(2.80751 -0.112989 0)
(2.80764 -0.113524 0)
(2.8084 -0.113284 0)
(2.80958 -0.112517 0)
(2.8104 -0.110411 0)
(2.80948 -0.105245 0)
(2.80634 -0.0966592 0)
(2.80576 -0.0907553 0)
(2.80692 -0.0887818 0)
(2.80878 -0.0871821 0)
(2.81253 -0.0861386 0)
(2.81633 -0.0886313 0)
(2.81914 -0.0919774 0)
(2.82014 -0.0931209 0)
(2.8214 -0.0945048 0)
(2.82256 -0.096518 0)
(2.82343 -0.0983032 0)
(2.82411 -0.0997276 0)
(2.82417 -0.100925 0)
(2.82281 -0.101657 0)
(2.81904 -0.10041 0)
(2.81259 -0.0957132 0)
(2.80899 -0.0902562 0)
(2.81003 -0.0876289 0)
(2.81152 -0.0860165 0)
(2.81319 -0.084437 0)
(2.81726 -0.0825862 0)
(2.82567 -0.0813716 0)
(2.83654 -0.082643 0)
(2.84275 -0.0858031 0)
(2.84468 -0.0883866 0)
(2.8451 -0.0900728 0)
(2.84563 -0.0927135 0)
(2.84519 -0.0945512 0)
(2.84093 -0.0931156 0)
(2.82955 -0.0875077 0)
(2.81558 -0.0798788 0)
(2.81076 -0.0755601 0)
(2.81251 -0.0755181 0)
(2.81175 -0.0759483 0)
(2.61777 -0.323299 0)
(2.62244 -0.31871 0)
(2.63131 -0.314282 0)
(2.63447 -0.312189 0)
(2.63504 -0.310954 0)
(2.63487 -0.30816 0)
(2.63182 -0.304318 0)
(2.62468 -0.300076 0)
(2.62057 -0.297694 0)
(2.62016 -0.296961 0)
(2.62073 -0.29692 0)
(2.62204 -0.297351 0)
(2.62356 -0.297901 0)
(2.62632 -0.298702 0)
(2.63388 -0.298306 0)
(2.64237 -0.295634 0)
(2.64561 -0.292876 0)
(2.64831 -0.290617 0)
(2.65069 -0.288398 0)
(2.65191 -0.285845 0)
(2.64977 -0.281986 0)
(2.64531 -0.278253 0)
(2.64504 -0.278496 0)
(2.64697 -0.280366 0)
(2.64857 -0.282543 0)
(2.64955 -0.2849 0)
(2.65097 -0.287085 0)
(2.65281 -0.287991 0)
(2.65479 -0.287841 0)
(2.65661 -0.286726 0)
(2.65716 -0.283296 0)
(2.65707 -0.277527 0)
(2.65834 -0.272177 0)
(2.66065 -0.269132 0)
(2.66361 -0.267359 0)
(2.66744 -0.267971 0)
(2.66963 -0.269596 0)
(2.67229 -0.27132 0)
(2.67465 -0.273853 0)
(2.67629 -0.277089 0)
(2.67705 -0.280467 0)
(2.67651 -0.28333 0)
(2.67426 -0.283777 0)
(2.66987 -0.279337 0)
(2.66456 -0.268599 0)
(2.66172 -0.257562 0)
(2.66223 -0.252308 0)
(2.66506 -0.247405 0)
(2.67172 -0.242287 0)
(2.68015 -0.240909 0)
(2.68479 -0.243384 0)
(2.68599 -0.24708 0)
(2.68604 -0.250773 0)
(2.68543 -0.253485 0)
(2.68415 -0.25588 0)
(2.68186 -0.255493 0)
(2.67729 -0.250183 0)
(2.67228 -0.240659 0)
(2.67199 -0.234935 0)
(2.67351 -0.232863 0)
(2.67796 -0.229729 0)
(2.68686 -0.226517 0)
(2.69193 -0.226126 0)
(2.69407 -0.226847 0)
(2.69739 -0.228251 0)
(2.70041 -0.229413 0)
(2.7024 -0.230725 0)
(2.70169 -0.232553 0)
(2.69623 -0.233753 0)
(2.6902 -0.232052 0)
(2.69142 -0.230667 0)
(2.69433 -0.230279 0)
(2.6965 -0.229778 0)
(2.69902 -0.228986 0)
(2.70168 -0.228328 0)
(2.70457 -0.227725 0)
(2.70714 -0.227136 0)
(2.70918 -0.226905 0)
(2.71009 -0.22523 0)
(2.71024 -0.222503 0)
(2.71235 -0.221397 0)
(2.71419 -0.221612 0)
(2.71644 -0.222356 0)
(2.71857 -0.223284 0)
(2.72051 -0.22419 0)
(2.7223 -0.224864 0)
(2.72397 -0.225533 0)
(2.72506 -0.226739 0)
(2.72563 -0.227651 0)
(2.72618 -0.226836 0)
(2.72658 -0.223808 0)
(2.7259 -0.21877 0)
(2.72387 -0.212657 0)
(2.724 -0.209171 0)
(2.72585 -0.208173 0)
(2.72724 -0.20798 0)
(2.73075 -0.207167 0)
(2.73579 -0.206217 0)
(2.73986 -0.207163 0)
(2.74262 -0.209318 0)
(2.74401 -0.210959 0)
(2.7456 -0.212404 0)
(2.74675 -0.213678 0)
(2.74595 -0.214278 0)
(2.74091 -0.212152 0)
(2.73477 -0.207588 0)
(2.73372 -0.204488 0)
(2.73561 -0.202837 0)
(2.73787 -0.20202 0)
(2.74019 -0.201304 0)
(2.74424 -0.200631 0)
(2.75097 -0.200627 0)
(2.75619 -0.201529 0)
(2.75905 -0.20177 0)
(2.761 -0.201214 0)
(2.76228 -0.200009 0)
(2.76206 -0.198616 0)
(2.76096 -0.197391 0)
(2.75865 -0.195167 0)
(2.75282 -0.188582 0)
(2.74424 -0.178506 0)
(2.74094 -0.173328 0)
(2.73806 -0.167795 0)
(2.73805 -0.161905 0)
(2.73996 -0.158482 0)
(2.74295 -0.157884 0)
(2.74563 -0.159195 0)
(2.74644 -0.160028 0)
(2.74694 -0.16081 0)
(2.74728 -0.162753 0)
(2.74768 -0.163786 0)
(2.74827 -0.163419 0)
(2.74772 -0.161625 0)
(2.74517 -0.158651 0)
(2.74622 -0.157843 0)
(2.74824 -0.157906 0)
(2.75055 -0.157805 0)
(2.75318 -0.157469 0)
(2.75614 -0.157487 0)
(2.759 -0.157352 0)
(2.76156 -0.157335 0)
(2.76383 -0.157268 0)
(2.76446 -0.156826 0)
(2.76107 -0.154714 0)
(2.75852 -0.152879 0)
(2.75942 -0.15289 0)
(2.7609 -0.153074 0)
(2.76382 -0.154034 0)
(2.76608 -0.155432 0)
(2.76791 -0.156064 0)
(2.76935 -0.157197 0)
(2.76954 -0.158222 0)
(2.76923 -0.158403 0)
(2.76789 -0.156989 0)
(2.76396 -0.151484 0)
(2.75795 -0.141767 0)
(2.75681 -0.136111 0)
(2.75827 -0.13449 0)
(2.7596 -0.133895 0)
(2.76265 -0.133973 0)
(2.76758 -0.135838 0)
(2.77396 -0.140192 0)
(2.77776 -0.142788 0)
(2.77882 -0.143093 0)
(2.77998 -0.143188 0)
(2.78039 -0.142919 0)
(2.77862 -0.141494 0)
(2.77272 -0.136995 0)
(2.76616 -0.130288 0)
(2.76464 -0.125994 0)
(2.765 -0.123741 0)
(2.76624 -0.120887 0)
(2.76948 -0.118774 0)
(2.77798 -0.118601 0)
(2.7875 -0.120063 0)
(2.79075 -0.12125 0)
(2.79126 -0.121675 0)
(2.79214 -0.121844 0)
(2.79199 -0.121059 0)
(2.78451 -0.118561 0)
(2.77004 -0.115419 0)
(2.76538 -0.115298 0)
(2.76696 -0.116801 0)
(2.76851 -0.118424 0)
(2.77037 -0.120354 0)
(2.77364 -0.122664 0)
(2.77848 -0.124634 0)
(2.78427 -0.123067 0)
(2.79047 -0.117914 0)
(2.79451 -0.112619 0)
(2.79598 -0.110677 0)
(2.79735 -0.106627 0)
(2.7966 -0.101945 0)
(2.79472 -0.0989894 0)
(2.79326 -0.0992909 0)
(2.79195 -0.102802 0)
(2.7904 -0.108282 0)
(2.7898 -0.113237 0)
(2.79096 -0.115533 0)
(2.79222 -0.116742 0)
(2.79541 -0.117832 0)
(2.79898 -0.116984 0)
(2.8008 -0.114641 0)
(2.80124 -0.112353 0)
(2.80157 -0.108245 0)
(2.80075 -0.102216 0)
(2.79821 -0.0962391 0)
(2.79687 -0.0937569 0)
(2.79837 -0.0947411 0)
(2.79974 -0.0969715 0)
(2.80096 -0.100813 0)
(2.80248 -0.104851 0)
(2.8046 -0.108125 0)
(2.8072 -0.110512 0)
(2.80923 -0.110671 0)
(2.81092 -0.110198 0)
(2.81226 -0.109128 0)
(2.81357 -0.107514 0)
(2.81442 -0.104588 0)
(2.81357 -0.0984743 0)
(2.81093 -0.0890146 0)
(2.81068 -0.0833156 0)
(2.81161 -0.0820344 0)
(2.81297 -0.0818978 0)
(2.81499 -0.0831626 0)
(2.81703 -0.0865319 0)
(2.81858 -0.0903007 0)
(2.81919 -0.0921841 0)
(2.82053 -0.0939904 0)
(2.82172 -0.0955545 0)
(2.82233 -0.0970358 0)
(2.82212 -0.0988691 0)
(2.82153 -0.100767 0)
(2.82071 -0.101519 0)
(2.81916 -0.0991844 0)
(2.81656 -0.0928209 0)
(2.815 -0.0859759 0)
(2.81592 -0.0829029 0)
(2.81719 -0.0811766 0)
(2.82115 -0.0781325 0)
(2.82886 -0.0750965 0)
(2.83692 -0.076461 0)
(2.84113 -0.0804804 0)
(2.84256 -0.0837731 0)
(2.84247 -0.0860306 0)
(2.84214 -0.0895836 0)
(2.84143 -0.0926297 0)
(2.83937 -0.0936583 0)
(2.83356 -0.0920749 0)
(2.82274 -0.0849334 0)
(2.81335 -0.0765966 0)
(2.8134 -0.0732602 0)
(2.81253 -0.0728237 0)
(2.62492 -0.320706 0)
(2.62853 -0.315692 0)
(2.63593 -0.312432 0)
(2.63963 -0.311068 0)
(2.6397 -0.310481 0)
(2.63937 -0.309662 0)
(2.63696 -0.30708 0)
(2.63076 -0.302423 0)
(2.62421 -0.298059 0)
(2.62235 -0.296036 0)
(2.62268 -0.294595 0)
(2.62366 -0.293359 0)
(2.62475 -0.293003 0)
(2.62724 -0.292868 0)
(2.63514 -0.29225 0)
(2.64407 -0.290614 0)
(2.64686 -0.289279 0)
(2.65012 -0.288123 0)
(2.65298 -0.286697 0)
(2.65524 -0.284847 0)
(2.6556 -0.282398 0)
(2.65085 -0.279144 0)
(2.64539 -0.277804 0)
(2.64573 -0.279376 0)
(2.64732 -0.280714 0)
(2.64911 -0.281668 0)
(2.65076 -0.282246 0)
(2.65339 -0.283257 0)
(2.65629 -0.28376 0)
(2.65884 -0.282677 0)
(2.6613 -0.280374 0)
(2.66304 -0.276112 0)
(2.6643 -0.270788 0)
(2.66464 -0.265963 0)
(2.66546 -0.263735 0)
(2.66759 -0.26383 0)
(2.66938 -0.265674 0)
(2.67119 -0.26766 0)
(2.6731 -0.269612 0)
(2.67474 -0.272565 0)
(2.67553 -0.276328 0)
(2.67553 -0.279115 0)
(2.67592 -0.27986 0)
(2.67627 -0.27859 0)
(2.67557 -0.2733 0)
(2.6735 -0.262512 0)
(2.67185 -0.249878 0)
(2.67269 -0.243022 0)
(2.67498 -0.239764 0)
(2.67839 -0.239002 0)
(2.68076 -0.240705 0)
(2.68188 -0.243671 0)
(2.68264 -0.247858 0)
(2.68307 -0.252062 0)
(2.68328 -0.253925 0)
(2.68335 -0.253939 0)
(2.68325 -0.251591 0)
(2.6817 -0.244903 0)
(2.67987 -0.234503 0)
(2.68017 -0.226719 0)
(2.68251 -0.222681 0)
(2.68734 -0.22016 0)
(2.6909 -0.221273 0)
(2.6929 -0.222635 0)
(2.69586 -0.22469 0)
(2.69865 -0.226237 0)
(2.70071 -0.227818 0)
(2.70123 -0.230013 0)
(2.69898 -0.232037 0)
(2.695 -0.230566 0)
(2.6937 -0.227025 0)
(2.69677 -0.225838 0)
(2.69922 -0.225244 0)
(2.70163 -0.224477 0)
(2.70415 -0.223809 0)
(2.70654 -0.223263 0)
(2.70871 -0.223041 0)
(2.71111 -0.222931 0)
(2.71325 -0.222712 0)
(2.71359 -0.221136 0)
(2.71316 -0.219125 0)
(2.71504 -0.218558 0)
(2.71722 -0.218805 0)
(2.71972 -0.219235 0)
(2.72181 -0.219711 0)
(2.72358 -0.22053 0)
(2.72441 -0.22216 0)
(2.72467 -0.223954 0)
(2.72577 -0.22423 0)
(2.72774 -0.223585 0)
(2.72954 -0.222521 0)
(2.73073 -0.219497 0)
(2.73058 -0.214024 0)
(2.72832 -0.206724 0)
(2.72774 -0.202589 0)
(2.72995 -0.201743 0)
(2.73187 -0.202031 0)
(2.73521 -0.202325 0)
(2.7392 -0.203723 0)
(2.74187 -0.206096 0)
(2.74305 -0.207705 0)
(2.74454 -0.209354 0)
(2.74532 -0.211222 0)
(2.7449 -0.212859 0)
(2.74326 -0.212404 0)
(2.7399 -0.208359 0)
(2.73665 -0.202348 0)
(2.7374 -0.198818 0)
(2.73968 -0.197217 0)
(2.74197 -0.196136 0)
(2.74554 -0.194994 0)
(2.75099 -0.194558 0)
(2.75531 -0.19614 0)
(2.75851 -0.197782 0)
(2.76109 -0.198482 0)
(2.7629 -0.198261 0)
(2.76338 -0.197535 0)
(2.76305 -0.196646 0)
(2.76199 -0.195404 0)
(2.75924 -0.192063 0)
(2.75393 -0.184733 0)
(2.74717 -0.175101 0)
(2.74466 -0.170323 0)
(2.74237 -0.164172 0)
(2.74278 -0.158773 0)
(2.74425 -0.156108 0)
(2.74581 -0.155462 0)
(2.747 -0.156404 0)
(2.74762 -0.15734 0)
(2.74803 -0.157912 0)
(2.74836 -0.158965 0)
(2.74874 -0.159248 0)
(2.74923 -0.158622 0)
(2.74869 -0.15673 0)
(2.74793 -0.15459 0)
(2.74972 -0.154349 0)
(2.75161 -0.154335 0)
(2.75424 -0.154317 0)
(2.75752 -0.154329 0)
(2.76019 -0.15441 0)
(2.76249 -0.154551 0)
(2.7645 -0.154684 0)
(2.76587 -0.154404 0)
(2.7647 -0.153012 0)
(2.76105 -0.150201 0)
(2.76067 -0.148918 0)
(2.76194 -0.149285 0)
(2.76343 -0.150174 0)
(2.76552 -0.151914 0)
(2.76713 -0.153813 0)
(2.76868 -0.154198 0)
(2.76989 -0.154242 0)
(2.77016 -0.154006 0)
(2.77051 -0.153172 0)
(2.76997 -0.15077 0)
(2.76675 -0.144177 0)
(2.76142 -0.13467 0)
(2.76106 -0.130733 0)
(2.76261 -0.130304 0)
(2.76451 -0.130082 0)
(2.7669 -0.13129 0)
(2.77104 -0.134725 0)
(2.77564 -0.139642 0)
(2.77782 -0.141473 0)
(2.77883 -0.141678 0)
(2.77958 -0.1415 0)
(2.77926 -0.140618 0)
(2.77723 -0.137934 0)
(2.77224 -0.13171 0)
(2.76856 -0.124642 0)
(2.76847 -0.121271 0)
(2.77006 -0.118018 0)
(2.77414 -0.114182 0)
(2.78216 -0.112368 0)
(2.78974 -0.113981 0)
(2.79194 -0.116546 0)
(2.79218 -0.118092 0)
(2.79222 -0.119382 0)
(2.79184 -0.120756 0)
(2.78752 -0.120203 0)
(2.77577 -0.115785 0)
(2.76661 -0.111878 0)
(2.7659 -0.112268 0)
(2.76728 -0.114076 0)
(2.76882 -0.116054 0)
(2.7711 -0.117933 0)
(2.77701 -0.120104 0)
(2.78742 -0.119108 0)
(2.79711 -0.113743 0)
(2.80002 -0.111145 0)
(2.80158 -0.108448 0)
(2.80286 -0.10454 0)
(2.80222 -0.100285 0)
(2.79849 -0.0974211 0)
(2.79249 -0.0993661 0)
(2.78786 -0.10494 0)
(2.78699 -0.108979 0)
(2.78815 -0.110667 0)
(2.78921 -0.111675 0)
(2.79093 -0.112773 0)
(2.79497 -0.113572 0)
(2.80074 -0.112173 0)
(2.8049 -0.109543 0)
(2.80643 -0.107579 0)
(2.80697 -0.105761 0)
(2.80701 -0.101594 0)
(2.80449 -0.0955181 0)
(2.79945 -0.0919255 0)
(2.79672 -0.0936347 0)
(2.79712 -0.0967518 0)
(2.79844 -0.0991758 0)
(2.79975 -0.101085 0)
(2.80123 -0.102726 0)
(2.80508 -0.105473 0)
(2.81073 -0.107483 0)
(2.81471 -0.106518 0)
(2.81567 -0.105049 0)
(2.81699 -0.102993 0)
(2.81866 -0.0999882 0)
(2.81977 -0.0960425 0)
(2.81947 -0.0897593 0)
(2.81543 -0.0815783 0)
(2.81244 -0.0777864 0)
(2.81318 -0.0779955 0)
(2.814 -0.0800018 0)
(2.81527 -0.0821733 0)
(2.81703 -0.0846844 0)
(2.8183 -0.0882098 0)
(2.81888 -0.0909798 0)
(2.81983 -0.0936387 0)
(2.82051 -0.0961635 0)
(2.82028 -0.0982846 0)
(2.82058 -0.0991909 0)
(2.82158 -0.0986794 0)
(2.82285 -0.0971518 0)
(2.82329 -0.0934056 0)
(2.82172 -0.0857403 0)
(2.8207 -0.0779575 0)
(2.82151 -0.0748431 0)
(2.82396 -0.072288 0)
(2.82902 -0.0705929 0)
(2.83459 -0.0720682 0)
(2.8381 -0.0764468 0)
(2.8394 -0.0803513 0)
(2.8391 -0.0827095 0)
(2.83857 -0.0864392 0)
(2.83785 -0.089879 0)
(2.83664 -0.0922849 0)
(2.83396 -0.093362 0)
(2.82939 -0.0889885 0)
(2.82124 -0.0818867 0)
(2.81788 -0.071449 0)
(2.8159 -0.068283 0)
(2.63065 -0.321297 0)
(2.63432 -0.314868 0)
(2.63876 -0.310747 0)
(2.64117 -0.309251 0)
(2.64122 -0.308977 0)
(2.64089 -0.308999 0)
(2.63997 -0.308571 0)
(2.63633 -0.305729 0)
(2.63012 -0.300318 0)
(2.62644 -0.2958 0)
(2.62609 -0.292984 0)
(2.62715 -0.290052 0)
(2.62879 -0.287651 0)
(2.63178 -0.285941 0)
(2.63819 -0.285167 0)
(2.64544 -0.285435 0)
(2.64809 -0.284769 0)
(2.65106 -0.284325 0)
(2.65385 -0.284093 0)
(2.65691 -0.284151 0)
(2.65896 -0.283673 0)
(2.65636 -0.281491 0)
(2.64861 -0.277431 0)
(2.64591 -0.275569 0)
(2.64727 -0.276022 0)
(2.64861 -0.277223 0)
(2.65008 -0.278075 0)
(2.65203 -0.278905 0)
(2.65659 -0.280136 0)
(2.66224 -0.278591 0)
(2.66564 -0.275259 0)
(2.66751 -0.272484 0)
(2.66983 -0.269736 0)
(2.67096 -0.26653 0)
(2.66956 -0.262688 0)
(2.66813 -0.260893 0)
(2.66923 -0.261878 0)
(2.67074 -0.26355 0)
(2.67204 -0.266442 0)
(2.67282 -0.270539 0)
(2.67454 -0.273271 0)
(2.67621 -0.274312 0)
(2.67766 -0.27466 0)
(2.68058 -0.273271 0)
(2.68256 -0.269207 0)
(2.683 -0.263 0)
(2.68257 -0.253334 0)
(2.6795 -0.242389 0)
(2.67714 -0.236584 0)
(2.67779 -0.236494 0)
(2.67833 -0.238834 0)
(2.67885 -0.241651 0)
(2.68 -0.244092 0)
(2.68176 -0.247391 0)
(2.68474 -0.250131 0)
(2.68723 -0.250047 0)
(2.68793 -0.249154 0)
(2.68782 -0.247627 0)
(2.68966 -0.240225 0)
(2.68978 -0.229872 0)
(2.68899 -0.22122 0)
(2.689 -0.216133 0)
(2.69085 -0.215377 0)
(2.69294 -0.217422 0)
(2.69454 -0.22041 0)
(2.69632 -0.22272 0)
(2.69806 -0.22431 0)
(2.6994 -0.225986 0)
(2.69968 -0.227584 0)
(2.69839 -0.227682 0)
(2.69686 -0.225095 0)
(2.69865 -0.221966 0)
(2.70159 -0.220606 0)
(2.70361 -0.220213 0)
(2.70597 -0.219869 0)
(2.70852 -0.219603 0)
(2.71108 -0.219547 0)
(2.71368 -0.219497 0)
(2.71607 -0.219409 0)
(2.71737 -0.218723 0)
(2.71673 -0.216498 0)
(2.71665 -0.214631 0)
(2.71831 -0.214638 0)
(2.72017 -0.215598 0)
(2.72179 -0.217209 0)
(2.72284 -0.219141 0)
(2.72324 -0.220621 0)
(2.72501 -0.220516 0)
(2.72711 -0.219791 0)
(2.72912 -0.218431 0)
(2.73156 -0.216517 0)
(2.73365 -0.214829 0)
(2.73523 -0.2125 0)
(2.73514 -0.20798 0)
(2.73221 -0.201441 0)
(2.73121 -0.197825 0)
(2.73357 -0.197333 0)
(2.73594 -0.197827 0)
(2.73878 -0.198863 0)
(2.74092 -0.200999 0)
(2.74211 -0.203493 0)
(2.74335 -0.206297 0)
(2.74411 -0.208636 0)
(2.74447 -0.209985 0)
(2.74488 -0.210272 0)
(2.74485 -0.208772 0)
(2.74348 -0.203956 0)
(2.74149 -0.197119 0)
(2.7426 -0.193246 0)
(2.7449 -0.19167 0)
(2.74707 -0.190918 0)
(2.75037 -0.190517 0)
(2.75452 -0.190581 0)
(2.75768 -0.191791 0)
(2.76028 -0.193895 0)
(2.76277 -0.195604 0)
(2.76415 -0.196072 0)
(2.76443 -0.195706 0)
(2.76439 -0.19423 0)
(2.76338 -0.191963 0)
(2.76128 -0.188087 0)
(2.75672 -0.180663 0)
(2.7508 -0.171544 0)
(2.74875 -0.167356 0)
(2.74698 -0.161293 0)
(2.74714 -0.155994 0)
(2.7476 -0.153506 0)
(2.74769 -0.153482 0)
(2.74825 -0.154729 0)
(2.74887 -0.155767 0)
(2.74915 -0.15594 0)
(2.74944 -0.155546 0)
(2.74994 -0.154613 0)
(2.75049 -0.153474 0)
(2.7499 -0.151366 0)
(2.75014 -0.150006 0)
(2.75225 -0.150604 0)
(2.75453 -0.151321 0)
(2.75783 -0.15144 0)
(2.76104 -0.151343 0)
(2.7635 -0.15115 0)
(2.76556 -0.151244 0)
(2.76714 -0.151491 0)
(2.76771 -0.151127 0)
(2.76506 -0.14895 0)
(2.7617 -0.14665 0)
(2.76219 -0.146426 0)
(2.76347 -0.146997 0)
(2.76493 -0.147623 0)
(2.76698 -0.148609 0)
(2.76946 -0.150216 0)
(2.77042 -0.150319 0)
(2.77201 -0.149653 0)
(2.77341 -0.148219 0)
(2.77444 -0.14643 0)
(2.77433 -0.143222 0)
(2.77059 -0.136481 0)
(2.76429 -0.129237 0)
(2.76369 -0.127149 0)
(2.76498 -0.127645 0)
(2.76676 -0.128791 0)
(2.76928 -0.130474 0)
(2.77297 -0.133909 0)
(2.77671 -0.138071 0)
(2.7785 -0.139585 0)
(2.77946 -0.139614 0)
(2.78014 -0.138889 0)
(2.77996 -0.137427 0)
(2.77837 -0.13374 0)
(2.77529 -0.126232 0)
(2.77421 -0.119507 0)
(2.77527 -0.116129 0)
(2.77867 -0.111469 0)
(2.78474 -0.108255 0)
(2.7896 -0.109378 0)
(2.79075 -0.112069 0)
(2.7908 -0.11421 0)
(2.79033 -0.116299 0)
(2.7897 -0.118829 0)
(2.78746 -0.119962 0)
(2.78094 -0.117767 0)
(2.77067 -0.113176 0)
(2.76532 -0.111103 0)
(2.76577 -0.111508 0)
(2.767 -0.112083 0)
(2.76845 -0.112666 0)
(2.77442 -0.112956 0)
(2.78871 -0.111213 0)
(2.80105 -0.108002 0)
(2.80396 -0.105561 0)
(2.80562 -0.103332 0)
(2.80749 -0.101105 0)
(2.80788 -0.0990098 0)
(2.80188 -0.0981501 0)
(2.78927 -0.101235 0)
(2.78431 -0.104626 0)
(2.78553 -0.105691 0)
(2.78685 -0.106241 0)
(2.78805 -0.106843 0)
(2.79004 -0.107588 0)
(2.79555 -0.108468 0)
(2.80408 -0.108407 0)
(2.80973 -0.105895 0)
(2.8115 -0.103859 0)
(2.81213 -0.102217 0)
(2.81269 -0.0999316 0)
(2.81154 -0.0965433 0)
(2.80506 -0.092592 0)
(2.79678 -0.0913815 0)
(2.79576 -0.09266 0)
(2.79722 -0.0938159 0)
(2.79852 -0.094825 0)
(2.79956 -0.0960097 0)
(2.80235 -0.0984029 0)
(2.80887 -0.102147 0)
(2.81687 -0.103127 0)
(2.8202 -0.100974 0)
(2.82162 -0.0987335 0)
(2.82369 -0.0960446 0)
(2.82534 -0.0934278 0)
(2.82656 -0.0903678 0)
(2.82408 -0.0845705 0)
(2.81609 -0.07714 0)
(2.81304 -0.0749017 0)
(2.81383 -0.075548 0)
(2.81456 -0.0772689 0)
(2.81569 -0.0796037 0)
(2.81669 -0.0831531 0)
(2.8173 -0.0884133 0)
(2.81773 -0.0937586 0)
(2.81826 -0.0967309 0)
(2.81947 -0.097248 0)
(2.82152 -0.0970122 0)
(2.82368 -0.096544 0)
(2.82542 -0.0956799 0)
(2.82654 -0.0933993 0)
(2.8266 -0.0878757 0)
(2.82673 -0.0792655 0)
(2.82783 -0.0719899 0)
(2.82958 -0.0681381 0)
(2.83105 -0.0671622 0)
(2.8324 -0.068115 0)
(2.83504 -0.0710346 0)
(2.83633 -0.0755967 0)
(2.8362 -0.0780524 0)
(2.83595 -0.0812099 0)
(2.83539 -0.0852729 0)
(2.8342 -0.0894999 0)
(2.83243 -0.0931013 0)
(2.83158 -0.0915147 0)
(2.82913 -0.0890655 0)
(2.82713 -0.0799056 0)
(2.82354 -0.0681415 0)
(2.63857 -0.321478 0)
(2.64043 -0.314736 0)
(2.64075 -0.310997 0)
(2.64138 -0.309617 0)
(2.64125 -0.308851 0)
(2.64091 -0.308735 0)
(2.64052 -0.308786 0)
(2.63925 -0.308161 0)
(2.63599 -0.304285 0)
(2.63213 -0.297597 0)
(2.63074 -0.29223 0)
(2.6315 -0.288301 0)
(2.63345 -0.284674 0)
(2.63684 -0.281991 0)
(2.64186 -0.280711 0)
(2.64805 -0.28108 0)
(2.65021 -0.281262 0)
(2.65244 -0.281511 0)
(2.65528 -0.282031 0)
(2.65804 -0.282616 0)
(2.66011 -0.282929 0)
(2.65981 -0.28185 0)
(2.65408 -0.277916 0)
(2.64752 -0.273714 0)
(2.64707 -0.273152 0)
(2.64832 -0.273966 0)
(2.64963 -0.274207 0)
(2.65105 -0.274331 0)
(2.65515 -0.274872 0)
(2.66328 -0.274745 0)
(2.66888 -0.272662 0)
(2.67112 -0.270882 0)
(2.67416 -0.268595 0)
(2.6761 -0.266236 0)
(2.67531 -0.262816 0)
(2.67107 -0.259357 0)
(2.66824 -0.259431 0)
(2.66855 -0.261854 0)
(2.66975 -0.264612 0)
(2.67178 -0.266724 0)
(2.67349 -0.267925 0)
(2.67568 -0.268928 0)
(2.67943 -0.268943 0)
(2.68454 -0.266148 0)
(2.6889 -0.261528 0)
(2.69084 -0.257792 0)
(2.6918 -0.253615 0)
(2.69074 -0.246595 0)
(2.68315 -0.239044 0)
(2.67637 -0.237635 0)
(2.67607 -0.239695 0)
(2.67661 -0.241096 0)
(2.67736 -0.242348 0)
(2.6792 -0.244576 0)
(2.68342 -0.247536 0)
(2.68885 -0.248535 0)
(2.69221 -0.245927 0)
(2.69544 -0.240589 0)
(2.69793 -0.233131 0)
(2.69838 -0.228228 0)
(2.69729 -0.223369 0)
(2.69459 -0.216255 0)
(2.69146 -0.21259 0)
(2.69176 -0.213692 0)
(2.69297 -0.216169 0)
(2.69419 -0.218301 0)
(2.69563 -0.219915 0)
(2.69731 -0.221093 0)
(2.6991 -0.222454 0)
(2.70037 -0.223846 0)
(2.7008 -0.223583 0)
(2.70093 -0.221045 0)
(2.70146 -0.217895 0)
(2.70369 -0.215664 0)
(2.7063 -0.214946 0)
(2.70829 -0.215151 0)
(2.71088 -0.21548 0)
(2.71369 -0.215922 0)
(2.71659 -0.216117 0)
(2.71933 -0.21615 0)
(2.72087 -0.215253 0)
(2.7198 -0.21266 0)
(2.71862 -0.211556 0)
(2.71949 -0.212744 0)
(2.72099 -0.21403 0)
(2.7232 -0.214896 0)
(2.72528 -0.215627 0)
(2.72747 -0.216482 0)
(2.73015 -0.215818 0)
(2.7323 -0.213976 0)
(2.73478 -0.211828 0)
(2.73728 -0.21009 0)
(2.7395 -0.208795 0)
(2.74079 -0.20674 0)
(2.73929 -0.202487 0)
(2.73487 -0.196458 0)
(2.73358 -0.193525 0)
(2.73562 -0.193735 0)
(2.7377 -0.194895 0)
(2.73911 -0.197134 0)
(2.7399 -0.200725 0)
(2.74151 -0.204058 0)
(2.74328 -0.206196 0)
(2.74476 -0.206775 0)
(2.74653 -0.206377 0)
(2.74815 -0.205237 0)
(2.74908 -0.202745 0)
(2.74864 -0.197444 0)
(2.74651 -0.190662 0)
(2.74721 -0.18647 0)
(2.74974 -0.186006 0)
(2.75202 -0.185888 0)
(2.75407 -0.186538 0)
(2.75624 -0.188344 0)
(2.75834 -0.190591 0)
(2.76108 -0.192831 0)
(2.76401 -0.195055 0)
(2.76584 -0.195013 0)
(2.76671 -0.193241 0)
(2.76707 -0.190689 0)
(2.7665 -0.188107 0)
(2.76478 -0.183766 0)
(2.75968 -0.175727 0)
(2.75383 -0.167779 0)
(2.75246 -0.164344 0)
(2.75091 -0.158577 0)
(2.75083 -0.153837 0)
(2.75039 -0.15256 0)
(2.74948 -0.153736 0)
(2.74946 -0.154401 0)
(2.75067 -0.152563 0)
(2.75114 -0.152122 0)
(2.75141 -0.151239 0)
(2.75172 -0.149915 0)
(2.75179 -0.148012 0)
(2.75139 -0.145909 0)
(2.75344 -0.145597 0)
(2.75552 -0.146897 0)
(2.75786 -0.147637 0)
(2.76119 -0.147711 0)
(2.76392 -0.147618 0)
(2.76616 -0.147804 0)
(2.76782 -0.148167 0)
(2.76891 -0.148123 0)
(2.76815 -0.14725 0)
(2.76452 -0.14468 0)
(2.76264 -0.142747 0)
(2.76351 -0.14288 0)
(2.76459 -0.143539 0)
(2.76588 -0.144146 0)
(2.76867 -0.145209 0)
(2.77236 -0.146317 0)
(2.774 -0.145595 0)
(2.77609 -0.144563 0)
(2.77795 -0.143359 0)
(2.77922 -0.141561 0)
(2.77843 -0.13788 0)
(2.77257 -0.130545 0)
(2.76618 -0.124543 0)
(2.76627 -0.123471 0)
(2.76757 -0.124627 0)
(2.76909 -0.12703 0)
(2.77102 -0.129575 0)
(2.77429 -0.133443 0)
(2.77791 -0.137597 0)
(2.78085 -0.138242 0)
(2.78229 -0.136806 0)
(2.78265 -0.135124 0)
(2.78253 -0.132894 0)
(2.78149 -0.127849 0)
(2.7803 -0.119408 0)
(2.78075 -0.113802 0)
(2.78256 -0.109882 0)
(2.78531 -0.107156 0)
(2.78735 -0.107651 0)
(2.78793 -0.109562 0)
(2.78802 -0.111828 0)
(2.78746 -0.113991 0)
(2.78671 -0.116757 0)
(2.78551 -0.11877 0)
(2.78263 -0.118406 0)
(2.77564 -0.114081 0)
(2.76762 -0.108089 0)
(2.76635 -0.105571 0)
(2.76752 -0.104929 0)
(2.76899 -0.104396 0)
(2.7755 -0.103476 0)
(2.79026 -0.102505 0)
(2.80288 -0.10197 0)
(2.80544 -0.10156 0)
(2.80796 -0.100919 0)
(2.81066 -0.100538 0)
(2.8109 -0.100916 0)
(2.80258 -0.101941 0)
(2.78658 -0.102418 0)
(2.78224 -0.102404 0)
(2.7837 -0.102577 0)
(2.78522 -0.102805 0)
(2.78656 -0.103183 0)
(2.78841 -0.10374 0)
(2.79397 -0.103974 0)
(2.80432 -0.102639 0)
(2.81259 -0.101182 0)
(2.8151 -0.0996898 0)
(2.81604 -0.0983923 0)
(2.81705 -0.0970374 0)
(2.81685 -0.0952796 0)
(2.81063 -0.092628 0)
(2.79866 -0.0907232 0)
(2.79426 -0.0912776 0)
(2.79521 -0.091966 0)
(2.79661 -0.0924462 0)
(2.79779 -0.0931368 0)
(2.79916 -0.0944453 0)
(2.80458 -0.0970181 0)
(2.81548 -0.0975572 0)
(2.82268 -0.0960224 0)
(2.82522 -0.0946011 0)
(2.82758 -0.0931573 0)
(2.82977 -0.0914242 0)
(2.83164 -0.0895087 0)
(2.83141 -0.0862807 0)
(2.82424 -0.0791203 0)
(2.81437 -0.0725238 0)
(2.81288 -0.0721703 0)
(2.81368 -0.0738904 0)
(2.81425 -0.0767132 0)
(2.81437 -0.0813829 0)
(2.8148 -0.0858525 0)
(2.8158 -0.0882933 0)
(2.81833 -0.0915772 0)
(2.82079 -0.0944015 0)
(2.82234 -0.0940964 0)
(2.8248 -0.0920738 0)
(2.82747 -0.0889555 0)
(2.82917 -0.085013 0)
(2.83106 -0.0809728 0)
(2.8334 -0.0761128 0)
(2.83414 -0.0709724 0)
(2.83215 -0.066515 0)
(2.83055 -0.0649505 0)
(2.83149 -0.065309 0)
(2.83268 -0.0672939 0)
(2.83333 -0.0706961 0)
(2.83297 -0.0742141 0)
(2.83329 -0.0792534 0)
(2.83306 -0.0846994 0)
(2.83239 -0.0884981 0)
(2.83204 -0.0906441 0)
(2.83369 -0.0891724 0)
(2.83472 -0.0880884 0)
(2.83491 -0.0835543 0)
(2.83343 -0.0692514 0)
(2.64585 -0.32334 0)
(2.64576 -0.317739 0)
(2.64411 -0.312229 0)
(2.64267 -0.310015 0)
(2.64222 -0.309512 0)
(2.64202 -0.309198 0)
(2.64168 -0.308906 0)
(2.64111 -0.308297 0)
(2.64022 -0.306505 0)
(2.63864 -0.301199 0)
(2.63711 -0.293638 0)
(2.63697 -0.287824 0)
(2.63813 -0.283277 0)
(2.6409 -0.279578 0)
(2.64462 -0.277923 0)
(2.64929 -0.278111 0)
(2.65196 -0.278663 0)
(2.65367 -0.279053 0)
(2.65611 -0.279928 0)
(2.65825 -0.280619 0)
(2.66006 -0.28079 0)
(2.66095 -0.280124 0)
(2.65936 -0.277769 0)
(2.653 -0.273341 0)
(2.64869 -0.270003 0)
(2.6494 -0.269451 0)
(2.65072 -0.269445 0)
(2.6523 -0.269177 0)
(2.65581 -0.269097 0)
(2.66344 -0.269288 0)
(2.67088 -0.268841 0)
(2.67313 -0.268263 0)
(2.67603 -0.267104 0)
(2.67872 -0.265494 0)
(2.67975 -0.263107 0)
(2.67575 -0.25971 0)
(2.66844 -0.257936 0)
(2.66662 -0.259744 0)
(2.66799 -0.26143 0)
(2.66955 -0.26256 0)
(2.67097 -0.263519 0)
(2.67388 -0.264538 0)
(2.68077 -0.263971 0)
(2.68991 -0.260455 0)
(2.69529 -0.256342 0)
(2.69693 -0.254233 0)
(2.69916 -0.251867 0)
(2.69974 -0.248712 0)
(2.69219 -0.242805 0)
(2.67881 -0.237774 0)
(2.67456 -0.238242 0)
(2.6749 -0.239829 0)
(2.67534 -0.24104 0)
(2.6764 -0.242442 0)
(2.67995 -0.244549 0)
(2.6881 -0.245231 0)
(2.69687 -0.242012 0)
(2.7012 -0.236375 0)
(2.70316 -0.231175 0)
(2.70354 -0.227817 0)
(2.70348 -0.224191 0)
(2.70199 -0.219445 0)
(2.69661 -0.212908 0)
(2.69198 -0.210185 0)
(2.69151 -0.211579 0)
(2.69222 -0.213786 0)
(2.69341 -0.215696 0)
(2.69562 -0.216821 0)
(2.6984 -0.217404 0)
(2.70109 -0.218103 0)