/*--------------------------------*- C++ -*----------------------------------*\
  =========                 |
  \\      /  F ield         | OpenFOAM: The Open Source CFD Toolbox
   \\    /   O peration     | Website:  https://openfoam.org
    \\  /    A nd           | Version:  7
     \\/     M anipulation  |
\*---------------------------------------------------------------------------*/
FoamFile
{
    version     2.0;
    format      ascii;
    class       volScalarField;
    location    "1.3";
    object      T;
}
// * * * * * * * * * * * * * * * * * * * * * * * * * * * * * * * * * * * * * //

dimensions      [0 0 0 1 0 0 0];

internalField   nonuniform List<scalar> 
16192
(
1.35124
1.35036
1.34678
1.3397
1.33329
1.33087
1.33034
1.33072
1.33255
1.33333
1.33317
1.33285
1.3316
1.32684
1.31913
1.31475
1.31377
1.31315
1.31266
1.31199
1.31136
1.31063
1.30896
1.30519
1.30117
1.29994
1.29985
1.30068
1.30178
1.3015
1.30026
1.29898
1.29769
1.29562
1.29188
1.28979
1.28956
1.28943
1.28964
1.28999
1.2899
1.28928
1.28815
1.28669
1.28554
1.28507
1.28477
1.28465
1.28464
1.28451
1.2844
1.28417
1.28345
1.28135
1.2789
1.27792
1.27748
1.27722
1.277
1.27706
1.27765
1.27731
1.27619
1.27512
1.27437
1.27361
1.27235
1.27162
1.27163
1.27155
1.27143
1.2713
1.27122
1.27173
1.27267
1.27233
1.27112
1.26989
1.26924
1.26895
1.2683
1.26603
1.26485
1.26747
1.27502
1.28544
1.2931
1.29748
1.30011
1.30202
1.30409
1.30448
1.30352
1.30197
1.30029
1.29789
1.29365
1.29144
1.29142
1.2914
1.29166
1.2935
1.2964
1.29724
1.2969
1.29602
1.29432
1.29161
1.28856
1.28659
1.2857
1.2857
1.28589
1.28641
1.28701
1.28714
1.28679
1.28535
1.284
1.28311
1.28236
1.28143
1.28036
1.27984
1.27951
1.27881
1.27658
1.27453
1.27411
1.27407
1.27391
1.27484
1.28375
1.32366
1.41089
1.52417
1.62755
1.68038
1.69126
1.69899
1.70892
1.71372
1.71445
1.71301
1.71
1.70847
1.70749
1.70644
1.7061
1.70581
1.70487
1.70311
1.7007
1.69798
1.69557
1.69387
1.69249
1.69153
1.69072
1.68971
1.68827
1.68669
1.6855
1.68434
1.68323
1.68177
1.68084
1.68081
1.68105
1.6822
1.68327
1.684
1.68431
1.68408
1.68345
1.68227
1.68049
1.67814
1.67623
1.67455
1.67221
1.66871
1.66485
1.66127
1.65817
1.6549
1.65169
1.64987
1.64919
1.64886
1.64885
1.64918
1.64941
1.64904
1.64714
1.64344
1.63803
1.63139
1.6251
1.62044
1.61701
1.61479
1.6135
1.61336
1.61274
1.61048
1.60756
1.60379
1.59894
1.59382
1.58958
1.58616
1.58409
1.58299
1.58195
1.58101
1.57982
1.57773
1.57418
1.5672
1.55706
1.54953
1.54475
1.54101
1.5383
1.5365
1.53556
1.53533
1.53603
1.5383
1.54109
1.54196
1.54097
1.53761
1.53299
1.52772
1.52156
1.51492
1.50806
1.50368
1.50241
1.50206
1.50192
1.50192
1.50185
1.50119
1.49928
1.49593
1.49169
1.488
1.4855
1.48377
1.48265
1.35335
1.34925
1.34149
1.33473
1.33232
1.33175
1.33212
1.33416
1.33548
1.33544
1.33534
1.3346
1.33047
1.32269
1.31748
1.31629
1.31555
1.31477
1.31403
1.31341
1.31272
1.31127
1.30756
1.3033
1.30203
1.30202
1.3029
1.30399
1.3038
1.30254
1.3012
1.3001
1.29886
1.29615
1.29213
1.29085
1.29049
1.2903
1.29047
1.2906
1.2904
1.28957
1.28831
1.28703
1.28615
1.28578
1.2855
1.28528
1.28514
1.28502
1.28477
1.28408
1.28192
1.27913
1.27793
1.27745
1.27727
1.27726
1.27735
1.27801
1.27807
1.27709
1.27597
1.27512
1.2743
1.273
1.27156
1.27139
1.27138
1.27127
1.27115
1.27113
1.27144
1.27248
1.27307
1.27243
1.27106
1.26978
1.26871
1.26714
1.26409
1.25985
1.25898
1.26047
1.26548
1.27493
1.2847
1.29151
1.29644
1.30009
1.30184
1.30176
1.30089
1.29913
1.29687
1.29319
1.28964
1.28938
1.2894
1.28953
1.29087
1.29398
1.29547
1.29529
1.29467
1.29337
1.29092
1.28761
1.28581
1.28455
1.28394
1.28395
1.28419
1.28474
1.2851
1.28494
1.28384
1.28264
1.28179
1.28099
1.2803
1.27917
1.2782
1.27775
1.27723
1.27555
1.2731
1.27276
1.27291
1.2737
1.28039
1.31219
1.39081
1.50554
1.60919
1.66503
1.68451
1.69895
1.71134
1.71339
1.71274
1.70942
1.70639
1.70495
1.70366
1.70324
1.70413
1.70441
1.70324
1.70154
1.6996
1.69756
1.69545
1.69335
1.69171
1.69043
1.68945
1.68855
1.68747
1.68589
1.68385
1.68252
1.68147
1.68026
1.67877
1.67772
1.6776
1.67739
1.67681
1.67689
1.67751
1.67826
1.67937
1.6801
1.68004
1.67997
1.67985
1.6787
1.67708
1.67492
1.67165
1.66752
1.66319
1.65894
1.65503
1.65201
1.64984
1.64918
1.64876
1.64858
1.64879
1.64921
1.64868
1.64686
1.64348
1.6385
1.63257
1.62635
1.62116
1.61722
1.61482
1.6136
1.61352
1.61247
1.60987
1.60663
1.60248
1.59744
1.59216
1.58761
1.58354
1.58045
1.57936
1.57856
1.57739
1.57615
1.57456
1.57212
1.56865
1.56306
1.55465
1.54617
1.53993
1.53564
1.53261
1.53051
1.52933
1.5294
1.53238
1.53743
1.54009
1.53988
1.53724
1.5331
1.52798
1.52104
1.5132
1.50622
1.50189
1.49985
1.49917
1.4988
1.4988
1.49946
1.49966
1.49891
1.4968
1.49344
1.48831
1.48295
1.4802
1.47909
1.47839
1.35216
1.34377
1.33649
1.33394
1.33332
1.33366
1.33573
1.33734
1.33739
1.33741
1.33708
1.33372
1.32611
1.32013
1.3187
1.31808
1.31726
1.31634
1.31561
1.31497
1.31375
1.31031
1.30571
1.30403
1.30398
1.30483
1.30616
1.30594
1.30497
1.30384
1.30273
1.3017
1.30005
1.29623
1.29266
1.29191
1.29144
1.29127
1.29137
1.29138
1.29108
1.29013
1.28894
1.28785
1.28706
1.28663
1.2863
1.28607
1.28591
1.28566
1.28502
1.28293
1.27976
1.27825
1.27775
1.27753
1.27765
1.27792
1.27849
1.27887
1.27821
1.27701
1.27608
1.27529
1.27409
1.27212
1.27131
1.27134
1.2713
1.27119
1.27116
1.27149
1.2725
1.27346
1.27336
1.2724
1.27114
1.26978
1.26749
1.26352
1.25834
1.25649
1.25669
1.2574
1.25975
1.26611
1.27517
1.28343
1.29095
1.29708
1.29856
1.2985
1.2979
1.29618
1.29294
1.28863
1.28729
1.2874
1.28767
1.28867
1.29163
1.29383
1.2938
1.29327
1.29228
1.29023
1.28673
1.28454
1.28372
1.28278
1.28228
1.28232
1.2826
1.28307
1.28307
1.28228
1.28118
1.28048
1.27973
1.27901
1.27819
1.27689
1.27606
1.27549
1.27429
1.27197
1.27156
1.27208
1.2772
1.30187
1.37259
1.48559
1.59078
1.6532
1.67886
1.69822
1.71061
1.7117
1.70984
1.70643
1.70386
1.70192
1.70093
1.70115
1.70252
1.70253
1.70109
1.69967
1.69826
1.69676
1.69501
1.69301
1.69178
1.69073
1.6894
1.68796
1.68665
1.68533
1.68383
1.68197
1.6802
1.67888
1.6775
1.67606
1.6751
1.67498
1.67492
1.67362
1.67254
1.67183
1.67175
1.6726
1.67402
1.67543
1.67647
1.67764
1.67907
1.6792
1.67785
1.67536
1.67139
1.66651
1.66153
1.65657
1.6523
1.64949
1.64823
1.64795
1.64805
1.64862
1.64895
1.64866
1.64729
1.64425
1.63895
1.63201
1.62581
1.62109
1.61726
1.61431
1.61312
1.61331
1.61277
1.61054
1.60762
1.60314
1.59696
1.5908
1.58572
1.58134
1.57752
1.57453
1.57345
1.57325
1.57265
1.57079
1.56856
1.56579
1.56216
1.55728
1.55137
1.54509
1.53867
1.53304
1.52941
1.52716
1.52587
1.52618
1.53001
1.5353
1.53695
1.53636
1.53357
1.52927
1.52301
1.51419
1.50464
1.49989
1.49803
1.49706
1.49634
1.49621
1.49684
1.49729
1.49737
1.49603
1.49353
1.49051
1.48608
1.48003
1.47633
1.47535
1.47511
1.34639
1.33875
1.33606
1.33539
1.33571
1.33775
1.33913
1.33918
1.33923
1.339
1.33615
1.32923
1.32283
1.32097
1.32038
1.31986
1.31892
1.31805
1.31738
1.31639
1.31342
1.30846
1.30622
1.30609
1.30639
1.30803
1.30838
1.30747
1.30649
1.30565
1.30482
1.30381
1.30109
1.2957
1.29351
1.293
1.29248
1.29245
1.2925
1.29246
1.29199
1.29094
1.28988
1.28885
1.28803
1.28755
1.28723
1.28701
1.28674
1.28614
1.28418
1.28077
1.27892
1.27838
1.27808
1.27825
1.27872
1.27917
1.27968
1.27941
1.2783
1.27723
1.27645
1.27545
1.27342
1.2716
1.27149
1.27152
1.27147
1.27141
1.27169
1.27269
1.27395
1.27405
1.27333
1.27237
1.27123
1.26884
1.26421
1.25793
1.25496
1.2548
1.25492
1.25569
1.25724
1.26042
1.267
1.27449
1.28328
1.2923
1.29484
1.29496
1.29468
1.2927
1.28843
1.28559
1.28553
1.28597
1.28686
1.2895
1.29229
1.29256
1.29204
1.29118
1.28951
1.28619
1.28322
1.28246
1.28193
1.28112
1.28075
1.28082
1.28113
1.28127
1.28074
1.27961
1.27902
1.27844
1.27767
1.27706
1.27594
1.27464
1.2737
1.2729
1.2711
1.27075
1.27402
1.2926
1.35534
1.4659
1.57479
1.64015
1.67375
1.69915
1.70899
1.7089
1.70613
1.70339
1.70128
1.70019
1.69998
1.70076
1.70106
1.69981
1.69843
1.69753
1.69652
1.69534
1.69422
1.69321
1.69193
1.69055
1.68904
1.6876
1.68629
1.68506
1.68394
1.68279
1.68109
1.67881
1.67718
1.67614
1.67478
1.67294
1.67188
1.67163
1.6706
1.66895
1.66786
1.66709
1.66688
1.66736
1.66875
1.67069
1.6726
1.67446
1.67666
1.67723
1.67616
1.67388
1.67008
1.66505
1.65965
1.65473
1.65136
1.64917
1.64748
1.64663
1.64647
1.64655
1.64635
1.64566
1.64352
1.63917
1.63282
1.62562
1.61952
1.61478
1.6121
1.61181
1.6125
1.61251
1.61054
1.60827
1.60515
1.59996
1.59324
1.58668
1.58068
1.57564
1.57178
1.569
1.56771
1.56646
1.56476
1.56291
1.56054
1.55767
1.55419
1.55034
1.5465
1.54251
1.53785
1.53242
1.52847
1.52629
1.52491
1.52544
1.52921
1.5327
1.53291
1.53087
1.52752
1.52343
1.51711
1.5077
1.50052
1.49758
1.49626
1.49519
1.49416
1.49367
1.49448
1.49534
1.4942
1.49179
1.48937
1.48691
1.48372
1.47939
1.47536
1.47325
1.47237
1.34129
1.33859
1.33795
1.33825
1.34042
1.34146
1.34119
1.34112
1.34075
1.33794
1.33144
1.32524
1.32316
1.32257
1.32222
1.32158
1.32066
1.31991
1.31904
1.31673
1.3118
1.3087
1.30844
1.30836
1.30922
1.31062
1.31023
1.30925
1.30838
1.30767
1.30694
1.30521
1.30001
1.29546
1.29475
1.29423
1.29381
1.29386
1.29387
1.29375
1.29301
1.29196
1.29096
1.28989
1.28907
1.28863
1.28833
1.28802
1.28743
1.28559
1.28206
1.27988
1.27935
1.27902
1.27908
1.27964
1.28009
1.28048
1.28058
1.27982
1.27863
1.27778
1.27691
1.27519
1.27254
1.27191
1.27198
1.272
1.27195
1.27211
1.27298
1.27443
1.2748
1.27415
1.27329
1.27229
1.2702
1.2656
1.25859
1.25456
1.25393
1.25386
1.25396
1.25473
1.25593
1.25756
1.26093
1.26687
1.27415
1.28449
1.28954
1.29042
1.2903
1.28814
1.28443
1.2837
1.28415
1.28516
1.28764
1.29088
1.29161
1.2911
1.29025
1.28883
1.28594
1.28225
1.28107
1.28075
1.28029
1.27962
1.27935
1.27945
1.27962
1.27928
1.27806
1.27739
1.27698
1.27633
1.27567
1.27495
1.27363
1.2722
1.27137
1.27021
1.2721
1.28488
1.33897
1.44214
1.55685
1.63054
1.67329
1.70118
1.70599
1.70468
1.70282
1.70081
1.69915
1.69908
1.69995
1.70051
1.69974
1.69783
1.69635
1.69547
1.69457
1.69386
1.69332
1.69278
1.69194
1.69037
1.68861
1.68754
1.68649
1.68525
1.68393
1.68275
1.68156
1.6799
1.678
1.67608
1.67473
1.67353
1.67221
1.67089
1.66923
1.66719
1.66554
1.66412
1.6628
1.66238
1.66244
1.66284
1.66414
1.66621
1.6686
1.67098
1.67297
1.67317
1.67217
1.67022
1.66689
1.66214
1.65728
1.65382
1.65165
1.64997
1.64863
1.64723
1.64571
1.64414
1.64255
1.64059
1.63743
1.63225
1.62593
1.61989
1.61427
1.6102
1.60906
1.60945
1.60974
1.60847
1.60678
1.60449
1.60081
1.59596
1.59059
1.5846
1.57834
1.5724
1.56771
1.56421
1.56188
1.56006
1.55824
1.55602
1.55309
1.54968
1.54647
1.5438
1.54123
1.53827
1.53538
1.53181
1.52842
1.52672
1.5264
1.52638
1.52649
1.5259
1.52455
1.5224
1.51963
1.5158
1.50982
1.50313
1.49925
1.49732
1.49587
1.49456
1.49318
1.49245
1.4925
1.49119
1.48841
1.48585
1.48382
1.482
1.48028
1.47806
1.4757
1.47348
1.47124
1.34126
1.34071
1.34118
1.3434
1.34426
1.34375
1.34339
1.34272
1.33968
1.33313
1.32714
1.32507
1.3246
1.32447
1.32418
1.32332
1.32254
1.32176
1.32006
1.31553
1.31145
1.31096
1.31079
1.31092
1.31227
1.3128
1.3121
1.31115
1.31032
1.3096
1.30831
1.304
1.29813
1.29651
1.29615
1.29559
1.29547
1.29554
1.29551
1.29506
1.29406
1.29308
1.29206
1.29094
1.29022
1.28983
1.28948
1.28887
1.2872
1.28368
1.28111
1.28057
1.28029
1.28026
1.28071
1.28115
1.28136
1.28159
1.28133
1.28028
1.27924
1.27845
1.27715
1.27434
1.27266
1.27269
1.27279
1.27278
1.2728
1.27339
1.27479
1.27553
1.27504
1.27418
1.27319
1.27124
1.26704
1.25978
1.25497
1.25396
1.25383
1.25387
1.25408
1.25448
1.25523
1.25608
1.25774
1.26154
1.26671
1.27339
1.28083
1.28401
1.28442
1.28301
1.28168
1.28199
1.28309
1.28569
1.28965
1.29101
1.29053
1.28966
1.28833
1.28576
1.28182
1.27982
1.27945
1.27922
1.27883
1.27827
1.27809
1.27815
1.27793
1.27671
1.27573
1.27539
1.27493
1.27423
1.27371
1.27249
1.27133
1.26982
1.27136
1.28034
1.32445
1.41594
1.53942
1.61948
1.67385
1.70067
1.70059
1.69937
1.69956
1.69914
1.69992
1.70096
1.70073
1.69945
1.69748
1.69599
1.69512
1.69419
1.69309
1.69262
1.6928
1.69242
1.69136
1.69006
1.68865
1.68724
1.6861
1.68521
1.68436
1.68325
1.68184
1.68021
1.67855
1.67677
1.675
1.674
1.67298
1.67165
1.66998
1.66792
1.66552
1.66304
1.66095
1.65937
1.65822
1.6582
1.65846
1.65898
1.66026
1.66211
1.66431
1.66662
1.66753
1.66722
1.66598
1.66411
1.66115
1.65694
1.65318
1.6515
1.65031
1.64955
1.64901
1.64769
1.64571
1.64261
1.63803
1.63321
1.62887
1.62426
1.61876
1.6133
1.60902
1.6072
1.60733
1.60696
1.60519
1.60364
1.60164
1.5985
1.59472
1.59064
1.58624
1.5812
1.57613
1.57112
1.56608
1.56124
1.55718
1.55436
1.55186
1.5491
1.54597
1.54266
1.53945
1.5373
1.53585
1.53416
1.53255
1.5309
1.52977
1.5302
1.53044
1.52844
1.52463
1.52111
1.51803
1.51507
1.5114
1.50678
1.50224
1.49951
1.49829
1.4971
1.49582
1.49458
1.49332
1.49193
1.48984
1.48697
1.48409
1.48132
1.47896
1.4774
1.47663
1.4762
1.47554
1.47453
1.47271
1.34346
1.34416
1.34659
1.34731
1.34664
1.34606
1.34509
1.34176
1.33494
1.32876
1.32672
1.32631
1.32654
1.32671
1.32599
1.32519
1.32447
1.32322
1.31949
1.31462
1.31357
1.31337
1.31322
1.31394
1.31511
1.3148
1.31386
1.31298
1.31221
1.31109
1.3074
1.3012
1.29829
1.2979
1.29748
1.29731
1.29748
1.2975
1.29718
1.29626
1.29523
1.29427
1.29313
1.29208
1.29148
1.29103
1.29041
1.28891
1.28557
1.2827
1.28209
1.28183
1.28171
1.28203
1.28237
1.28246
1.28253
1.28258
1.28202
1.28096
1.28003
1.27901
1.27674
1.27397
1.27374
1.27381
1.27386
1.27382
1.27409
1.27518
1.27609
1.27584
1.27502
1.27407
1.27234
1.26844
1.26128
1.25593
1.25463
1.2544
1.25443
1.25454
1.2546
1.25474
1.25501
1.25545
1.25618
1.25823
1.26136
1.26411
1.26905
1.27466
1.27722
1.278
1.27898
1.28038
1.28296
1.28758
1.29056
1.29041
1.28955
1.28816
1.28576
1.28183
1.27891
1.27826
1.27798
1.27786
1.27753
1.27707
1.27693
1.27674
1.27567
1.27422
1.27379
1.27346
1.27286
1.27229
1.27166
1.27017
1.27052
1.27668
1.3124
1.3953
1.51388
1.60504
1.67687
1.6949
1.69307
1.69437
1.69686
1.70076
1.70237
1.702
1.70031
1.69829
1.69671
1.69537
1.69404
1.69288
1.69226
1.6922
1.69264
1.69191
1.69065
1.68938
1.68814
1.68696
1.68568
1.68513
1.68466
1.68387
1.68256
1.68088
1.67911
1.67729
1.67552
1.674
1.67288
1.67207
1.67118
1.66988
1.66795
1.66528
1.66222
1.65932
1.65655
1.65469
1.65416
1.65421
1.65447
1.65498
1.6562
1.65795
1.65988
1.66122
1.66125
1.66052
1.65892
1.65671
1.65397
1.6506
1.64835
1.64755
1.64803
1.64851
1.64783
1.64673
1.64506
1.64185
1.63527
1.62683
1.62096
1.61622
1.6109
1.6063
1.60405
1.60428
1.60421
1.60242
1.60078
1.59844
1.59505
1.59166
1.58807
1.58405
1.58035
1.57718
1.57393
1.56946
1.56509
1.56095
1.55593
1.55001
1.54518
1.54223
1.53967
1.53658
1.53347
1.53094
1.52908
1.52886
1.52916
1.52989
1.53152
1.53262
1.5314
1.52832
1.52394
1.51849
1.51299
1.50787
1.50233
1.49796
1.49633
1.49559
1.49511
1.49492
1.49486
1.4946
1.49331
1.49084
1.48741
1.48391
1.4808
1.47773
1.47509
1.4743
1.47416
1.47425
1.47438
1.47395
1.47281
1.34715
1.34968
1.35041
1.34968
1.34894
1.34781
1.34429
1.3371
1.3305
1.32831
1.32789
1.32832
1.32921
1.32871
1.3279
1.32721
1.32624
1.32343
1.31827
1.3163
1.3161
1.31584
1.31601
1.31722
1.31739
1.31655
1.31565
1.31482
1.3138
1.31072
1.30451
1.30027
1.29965
1.29928
1.29913
1.29947
1.29965
1.29946
1.29863
1.29753
1.29656
1.29546
1.29419
1.29329
1.2927
1.292
1.29061
1.2876
1.28464
1.28396
1.28369
1.28353
1.28365
1.28382
1.28377
1.28368
1.28369
1.28353
1.28272
1.2818
1.28079
1.27909
1.27612
1.27505
1.27509
1.27514
1.27511
1.27512
1.27582
1.27667
1.27656
1.27587
1.27494
1.27329
1.26985
1.26313
1.25721
1.25573
1.25534
1.25528
1.25532
1.25527
1.25523
1.25531
1.25546
1.25546
1.25555
1.25616
1.25702
1.25793
1.25941
1.26376
1.2688
1.27257
1.2757
1.27901
1.28386
1.2889
1.28997
1.28954
1.28836
1.28613
1.2824
1.27851
1.27724
1.27689
1.27669
1.27672
1.27634
1.27597
1.27574
1.27483
1.27302
1.27225
1.272
1.27158
1.27097
1.27082
1.27044
1.27448
1.30315
1.37317
1.48804
1.59454
1.67091
1.68484
1.68918
1.69494
1.70184
1.70289
1.70282
1.70167
1.69989
1.69787
1.69604
1.69464
1.69346
1.69261
1.69211
1.69205
1.69169
1.69078
1.69009
1.68924
1.68822
1.68694
1.68554
1.68448
1.68382
1.68319
1.68247
1.68152
1.68013
1.6784
1.67632
1.67444
1.67323
1.67214
1.67102
1.67005
1.66896
1.66751
1.66544
1.66269
1.6593
1.65577
1.65262
1.65037
1.64989
1.64992
1.65025
1.65098
1.65255
1.65366
1.65388
1.65385
1.65345
1.6522
1.65058
1.64869
1.64621
1.64388
1.64282
1.64314
1.64504
1.64512
1.64426
1.64321
1.64168
1.63877
1.63354
1.62583
1.61761
1.61028
1.60405
1.60027
1.60017
1.60054
1.59948
1.59747
1.59542
1.59251
1.58896
1.58548
1.58167
1.57767
1.57477
1.57312
1.57098
1.56689
1.56336
1.56024
1.55597
1.54868
1.54082
1.53671
1.53412
1.53119
1.52805
1.52587
1.52557
1.52574
1.52721
1.53054
1.53278
1.53209
1.52984
1.52717
1.52304
1.51573
1.50726
1.49979
1.49496
1.49291
1.49212
1.49169
1.49163
1.49266
1.49374
1.4935
1.49222
1.4896
1.48579
1.48152
1.47799
1.47485
1.47239
1.47189
1.47191
1.47207
1.47234
1.47204
1.47121
1.35285
1.35349
1.35275
1.35196
1.35077
1.34718
1.33973
1.33253
1.33005
1.3296
1.32991
1.33148
1.33149
1.33072
1.33001
1.32919
1.32717
1.32232
1.31914
1.31886
1.31861
1.31852
1.31946
1.32001
1.31921
1.31832
1.31751
1.31653
1.31403
1.30813
1.30262
1.3015
1.30118
1.30101
1.30146
1.30187
1.30178
1.30113
1.30001
1.29896
1.2979
1.29657
1.29537
1.29458
1.29376
1.29234
1.2896
1.28675
1.28609
1.28586
1.28572
1.28568
1.28564
1.28534
1.28505
1.28495
1.28488
1.2844
1.28357
1.28267
1.28123
1.27865
1.2769
1.27664
1.2766
1.27656
1.27644
1.27673
1.27742
1.27738
1.27674
1.27592
1.27446
1.27104
1.265
1.25901
1.25697
1.2566
1.25633
1.25615
1.25603
1.256
1.25606
1.2563
1.25639
1.25582
1.25506
1.25463
1.25433
1.25311
1.25198
1.25457
1.26024
1.26612
1.27162
1.27774
1.28484
1.28824
1.28837
1.28804
1.28663
1.28349
1.27898
1.2766
1.27602
1.2757
1.27574
1.27575
1.27529
1.27492
1.27414
1.27219
1.27088
1.27063
1.27034
1.27012
1.27023
1.27325
1.29357
1.35583
1.46931
1.5771
1.65471
1.67612
1.69155
1.70483
1.70553
1.70437
1.70249
1.70037
1.69828
1.69664
1.69553
1.69478
1.69429
1.69374
1.69269
1.69162
1.69069
1.68995
1.6894
1.68873
1.68785
1.68707
1.68624
1.6852
1.68389
1.68257
1.68126
1.68039
1.6797
1.67883
1.67748
1.67563
1.67352
1.67217
1.67133
1.67032
1.66914
1.66788
1.66638
1.66457
1.66239
1.6596
1.65627
1.65257
1.6497
1.64789
1.64677
1.64638
1.6463
1.64636
1.64722
1.64755
1.64684
1.64546
1.64429
1.64296
1.64133
1.63981
1.63824
1.63699
1.637
1.63906
1.64128
1.6407
1.63943
1.63774
1.63562
1.63278
1.62923
1.62464
1.61798
1.60947
1.60162
1.59648
1.59429
1.59299
1.59177
1.59053
1.58858
1.58635
1.58377
1.58021
1.57609
1.57247
1.57039
1.56941
1.56714
1.56362
1.56088
1.55825
1.55474
1.54898
1.54053
1.53375
1.52988
1.527
1.52436
1.52237
1.52183
1.52293
1.52716
1.53148
1.53238
1.53107
1.52865
1.52552
1.52023
1.51164
1.50098
1.49444
1.4917
1.49032
1.48961
1.48917
1.48921
1.49084
1.49153
1.49119
1.49011
1.4879
1.48372
1.47854
1.47524
1.47287
1.47067
1.4697
1.46973
1.46973
1.46962
1.46924
1.46854
1.3567
1.35593
1.35512
1.3539
1.35042
1.34281
1.33481
1.33193
1.33145
1.33165
1.33352
1.3342
1.33356
1.3329
1.33218
1.33071
1.32657
1.32225
1.32165
1.32142
1.32126
1.32191
1.32282
1.32208
1.32102
1.32024
1.31931
1.31723
1.31188
1.30552
1.30349
1.30322
1.30307
1.30361
1.30422
1.30421
1.30367
1.3026
1.30151
1.30047
1.29912
1.29762
1.29656
1.29564
1.29425
1.29169
1.289
1.28829
1.2881
1.28814
1.2881
1.28781
1.28733
1.28681
1.2865
1.28632
1.28595
1.2853
1.28458
1.28345
1.28109
1.27902
1.27856
1.27827
1.27812
1.27797
1.27797
1.27834
1.27831
1.27777
1.27708
1.27594
1.2728
1.2664
1.26082
1.25856
1.25804
1.25776
1.25731
1.25693
1.25686
1.25691
1.25716
1.25753
1.25721
1.25623
1.25504
1.25388
1.25199
1.2483
1.2467
1.24851
1.25336
1.25957
1.26695
1.2764
1.28432
1.28597
1.28606
1.2859
1.28433
1.28023
1.27654
1.27547
1.275
1.27488
1.27521
1.27487
1.27431
1.27353
1.2717
1.26974
1.26944
1.26947
1.26949
1.27174
1.28592
1.339
1.44284
1.56161
1.63634
1.67134
1.69949
1.70736
1.70539
1.70337
1.70153
1.69913
1.69745
1.69644
1.69567
1.69512
1.69452
1.69365
1.69249
1.69145
1.69055
1.68957
1.68866
1.68793
1.6876
1.68709
1.68622
1.68525
1.68408
1.68277
1.68143
1.68011
1.67904
1.67787
1.67668
1.67533
1.67383
1.6722
1.6709
1.67019
1.66944
1.66862
1.66754
1.66588
1.66359
1.66083
1.65803
1.65523
1.65234
1.64981
1.64818
1.64671
1.64515
1.64424
1.64346
1.64229
1.64083
1.63946
1.63822
1.63646
1.6346
1.63312
1.63163
1.63024
1.62922
1.62909
1.63078
1.63435
1.63481
1.63399
1.63247
1.63019
1.62751
1.62539
1.62313
1.62033
1.61588
1.60968
1.60298
1.59644
1.59083
1.5874
1.58532
1.58353
1.58187
1.57974
1.5774
1.57492
1.57136
1.56811
1.56642
1.56524
1.56254
1.56004
1.55802
1.55575
1.55271
1.54853
1.54247
1.53449
1.52814
1.52439
1.5216
1.51973
1.51953
1.52221
1.52817
1.53032
1.5295
1.52748
1.52515
1.52227
1.51719
1.50758
1.49707
1.49216
1.49046
1.48932
1.48849
1.48802
1.4882
1.48912
1.48912
1.48847
1.487
1.48428
1.48017
1.47575
1.47261
1.47025
1.46859
1.46783
1.46754
1.46727
1.46687
1.46634
1.46562
1.35929
1.35849
1.35736
1.35416
1.34656
1.33761
1.33401
1.33345
1.3335
1.33539
1.33689
1.33636
1.33577
1.33515
1.33405
1.33072
1.32581
1.3245
1.3243
1.32411
1.32453
1.32571
1.32527
1.32401
1.32306
1.32218
1.32043
1.31564
1.30873
1.30567
1.30538
1.30525
1.30591
1.30678
1.30684
1.30638
1.30537
1.30425
1.30321
1.30192
1.30017
1.29867
1.29756
1.29619
1.29384
1.29137
1.29067
1.29045
1.29052
1.29076
1.29025
1.28959
1.28902
1.28855
1.28812
1.2876
1.28709
1.28651
1.28561
1.28366
1.28117
1.28053
1.28016
1.27984
1.27963
1.27947
1.27957
1.27937
1.27885
1.27837
1.2776
1.27494
1.26864
1.26227
1.26013
1.25951
1.25914
1.25879
1.25839
1.25798
1.25793
1.25804
1.25848
1.25857
1.25795
1.2568
1.25539
1.25298
1.24855
1.2445
1.24417
1.24541
1.24915
1.25526
1.26322
1.27389
1.28205
1.28326
1.28339
1.2831
1.28087
1.27711
1.27514
1.2745
1.27428
1.27479
1.27469
1.27399
1.27306
1.27129
1.269
1.26854
1.26867
1.2701
1.27917
1.32409
1.41848
1.54233
1.61794
1.67235
1.7018
1.70147
1.70081
1.70163
1.7004
1.69885
1.69915
1.69896
1.69703
1.69509
1.69345
1.69232
1.69188
1.69152
1.69066
1.6895
1.68852
1.68779
1.68744
1.68691
1.68592
1.6849
1.6839
1.68275
1.68147
1.68005
1.67909
1.67826
1.67723
1.67575
1.6737
1.67152
1.66986
1.66873
1.6681
1.66769
1.66727
1.66663
1.66548
1.66349
1.6604
1.65612
1.65217
1.64939
1.64723
1.64565
1.64482
1.64411
1.64311
1.64209
1.64087
1.63913
1.63633
1.63238
1.62943
1.62725
1.62489
1.62296
1.62141
1.62023
1.62001
1.62067
1.62381
1.62687
1.62688
1.62623
1.62501
1.62282
1.6203
1.61803
1.61573
1.61386
1.61157
1.60792
1.60294
1.59793
1.59241
1.58552
1.57981
1.5769
1.57536
1.57359
1.57118
1.56889
1.56672
1.56459
1.56329
1.56089
1.55803
1.55606
1.5543
1.55237
1.55001
1.54688
1.54263
1.53683
1.52962
1.52392
1.52053
1.51872
1.51873
1.52084
1.52345
1.52386
1.52366
1.52212
1.51997
1.51714
1.51224
1.50355
1.49519
1.49168
1.49004
1.48876
1.48788
1.48777
1.48825
1.48779
1.48711
1.48607
1.48425
1.48099
1.47659
1.47285
1.47002
1.46728
1.46518
1.46446
1.46439
1.46437
1.46422
1.46376
1.46317
1.36202
1.36104
1.35825
1.35111
1.34113
1.33651
1.33578
1.33566
1.33715
1.33946
1.33923
1.3386
1.33805
1.33721
1.33469
1.32981
1.32745
1.32726
1.32708
1.32737
1.32861
1.32856
1.32735
1.3262
1.32521
1.32371
1.31949
1.31229
1.30809
1.30767
1.30756
1.30828
1.30951
1.30965
1.30924
1.30833
1.3072
1.30615
1.30495
1.30315
1.30113
1.2996
1.29813
1.29601
1.29383
1.29314
1.29289
1.29288
1.29338
1.29304
1.29221
1.29149
1.29094
1.29037
1.28969
1.28908
1.28854
1.28777
1.28611
1.28352
1.28251
1.28213
1.28171
1.28141
1.28123
1.28111
1.2807
1.28015
1.27974
1.27919
1.27715
1.27148
1.26421
1.26159
1.2611
1.26067
1.26029
1.25998
1.25965
1.25925
1.25921
1.25937
1.25971
1.25949
1.25868
1.25744
1.25544
1.25087
1.24481
1.24294
1.24304
1.24396
1.24715
1.2533
1.26095
1.26999
1.27777
1.27924
1.27934
1.27866
1.27662
1.27491
1.27398
1.2737
1.27439
1.2748
1.27405
1.27284
1.27094
1.26854
1.26787
1.26853
1.27401
1.30904
1.38888
1.51495
1.6072
1.67598
1.69665
1.69339
1.69649
1.69924
1.70079
1.70287
1.70297
1.70103
1.69822
1.6958
1.69372
1.69207
1.69094
1.69015
1.68981
1.68974
1.68943
1.68844
1.68733
1.68669
1.68605
1.68493
1.68388
1.68281
1.68162
1.6802
1.6788
1.6778
1.67687
1.67596
1.67486
1.6732
1.67064
1.66789
1.66639
1.66556
1.665
1.66466
1.66436
1.66387
1.6625
1.66006
1.65651
1.65162
1.64691
1.64403
1.64188
1.64045
1.64041
1.64053
1.63951
1.63817
1.63693
1.63527
1.63281
1.62848
1.62273
1.61866
1.61584
1.6134
1.61197
1.6111
1.61096
1.61249
1.61585
1.61727
1.61781
1.61788
1.61728
1.61589
1.61366
1.61075
1.60814
1.6065
1.60573
1.60463
1.60114
1.59702
1.59323
1.58764
1.57913
1.57288
1.56972
1.56759
1.56521
1.56205
1.55929
1.55861
1.55884
1.55737
1.55466
1.55266
1.55084
1.54892
1.54671
1.54408
1.54098
1.53715
1.53193
1.52604
1.52167
1.51953
1.5195
1.52047
1.52015
1.51888
1.51786
1.51622
1.51385
1.51055
1.50565
1.49943
1.49395
1.49059
1.48868
1.48745
1.48685
1.48725
1.48725
1.48634
1.48539
1.48405
1.48181
1.47787
1.47337
1.4705
1.4679
1.46508
1.46258
1.46076
1.46034
1.46034
1.46044
1.46071
1.46092
1.36479
1.36254
1.35619
1.34562
1.33969
1.33862
1.33836
1.3392
1.34183
1.3422
1.34149
1.34093
1.34021
1.33832
1.33392
1.33056
1.33025
1.3301
1.33041
1.3317
1.33185
1.3308
1.32966
1.32859
1.32721
1.32356
1.31636
1.31089
1.31004
1.30992
1.31068
1.31236
1.31272
1.31225
1.31142
1.31043
1.30936
1.30823
1.30647
1.30407
1.30195
1.30013
1.29811
1.29634
1.29576
1.29544
1.29529
1.29581
1.29594
1.29516
1.2943
1.29359
1.29293
1.29223
1.29146
1.29073
1.28998
1.28858
1.28591
1.28445
1.28419
1.28373
1.28332
1.28308
1.28293
1.28238
1.28174
1.28125
1.28077
1.27925
1.27442
1.26669
1.26315
1.26273
1.26243
1.26203
1.26162
1.26153
1.26122
1.26068
1.26061
1.26076
1.26078
1.26028
1.25935
1.25791
1.25428
1.24737
1.24309
1.24271
1.24278
1.24387
1.24712
1.25318
1.25982
1.26463
1.26905
1.27298
1.2737
1.27317
1.27283
1.27277
1.27264
1.27356
1.27491
1.27442
1.27299
1.2709
1.26834
1.26778
1.27088
1.29404
1.36316
1.48601
1.59076
1.67425
1.68506
1.69271
1.70151
1.70569
1.70424
1.70281
1.70177
1.70137
1.70019
1.69765
1.69497
1.69261
1.69077
1.68964
1.68897
1.68875
1.68875
1.68863
1.68813
1.68717
1.68601
1.68512
1.68407
1.68279
1.68181
1.68078
1.67936
1.67796
1.67687
1.67574
1.67449
1.67315
1.67163
1.66978
1.66752
1.66536
1.66393
1.66287
1.66195
1.66113
1.66016
1.65874
1.65684
1.65436
1.65109
1.647
1.64288
1.63974
1.63746
1.6358
1.63527
1.63527
1.63447
1.6329
1.63139
1.62967
1.62759
1.62432
1.61922
1.61371
1.60922
1.60567
1.60376
1.60343
1.6037
1.60528
1.6064
1.60677
1.60712
1.60771
1.60806
1.6079
1.60648
1.60381
1.60141
1.60079
1.601
1.60089
1.59807
1.5944
1.59159
1.58847
1.58319
1.57491
1.56733
1.56288
1.55982
1.55703
1.55436
1.55199
1.55036
1.5494
1.54892
1.54848
1.54747
1.54596
1.54404
1.54161
1.53891
1.53611
1.5329
1.52883
1.52436
1.52119
1.51893
1.51674
1.51506
1.5134
1.51183
1.50984
1.50672
1.50277
1.49884
1.49554
1.49315
1.49068
1.48852
1.48715
1.4864
1.48628
1.48543
1.48409
1.48292
1.48166
1.47894
1.47449
1.47087
1.46851
1.46607
1.46335
1.46055
1.45813
1.4572
1.45699
1.45685
1.45686
1.45723
1.36676
1.36135
1.35089
1.34361
1.34206
1.34171
1.34203
1.34432
1.34524
1.34456
1.34397
1.34328
1.34174
1.33778
1.3338
1.33321
1.33307
1.33349
1.335
1.33528
1.33433
1.33332
1.33229
1.331
1.32795
1.32108
1.31423
1.31255
1.31244
1.31292
1.31504
1.31591
1.31546
1.31458
1.31384
1.31292
1.31186
1.31025
1.30759
1.30474
1.30237
1.30029
1.29886
1.2984
1.29813
1.2979
1.29809
1.29868
1.29826
1.29737
1.29655
1.29578
1.29501
1.29419
1.29333
1.29243
1.29114
1.28857
1.28638
1.28606
1.28583
1.28545
1.28508
1.28487
1.2844
1.28364
1.28303
1.28251
1.2813
1.2773
1.26962
1.26506
1.26448
1.26431
1.26401
1.26356
1.26346
1.26346
1.26292
1.26221
1.26208
1.26204
1.26167
1.26099
1.25996
1.25729
1.25118
1.24493
1.2436
1.24355
1.24373
1.24557
1.24989
1.25476
1.25808
1.25977
1.26137
1.26443
1.26721
1.26793
1.26884
1.27017
1.27192
1.27396
1.27421
1.27319
1.27154
1.26874
1.26981
1.28259
1.33783
1.45144
1.57816
1.65188
1.68463
1.708
1.71061
1.70683
1.70294
1.70298
1.7021
1.70025
1.69884
1.69853
1.69736
1.69478
1.69248
1.69048
1.68891
1.68812
1.68774
1.68747
1.68719
1.68703
1.68667
1.68588
1.68483
1.68375
1.68217
1.6807
1.6795
1.67834
1.67714
1.67595
1.67469
1.67333
1.67176
1.66996
1.66795
1.66592
1.66421
1.66266
1.6613
1.66021
1.65907
1.65753
1.65546
1.65275
1.6496
1.6467
1.64394
1.64097
1.63802
1.63541
1.6331
1.63122
1.63002
1.62945
1.62826
1.62639
1.62458
1.62277
1.62069
1.61821
1.61515
1.61115
1.60628
1.60143
1.59811
1.59737
1.59761
1.59781
1.59752
1.5973
1.59744
1.59786
1.59823
1.59807
1.59748
1.59622
1.59554
1.59584
1.59711
1.59696
1.59424
1.59124
1.58893
1.58667
1.58366
1.57893
1.57169
1.56287
1.5567
1.55289
1.55014
1.54787
1.54538
1.54296
1.54142
1.54107
1.54173
1.54259
1.54202
1.53955
1.53717
1.535
1.53361
1.5318
1.52867
1.52428
1.5184
1.51318
1.51004
1.50779
1.50523
1.50217
1.49813
1.49453
1.49297
1.49274
1.49242
1.49132
1.49032
1.48936
1.48786
1.48578
1.48335
1.48143
1.47967
1.47724
1.47415
1.47089
1.46859
1.46663
1.46451
1.46209
1.45939
1.45661
1.45504
1.45453
1.45413
1.45378
1.45364
1.36628
1.35643
1.3479
1.3458
1.34546
1.34564
1.34758
1.3486
1.34795
1.3473
1.34661
1.34524
1.3415
1.33714
1.33597
1.33586
1.33638
1.3383
1.33888
1.33804
1.33713
1.33622
1.33509
1.33261
1.32641
1.31845
1.31539
1.31517
1.31527
1.31731
1.31908
1.31874
1.31774
1.31703
1.31638
1.31551
1.31424
1.31191
1.30839
1.30513
1.30281
1.30162
1.30114
1.30082
1.3007
1.30078
1.30106
1.3012
1.30056
1.29969
1.29886
1.29802
1.29711
1.29615
1.29517
1.2939
1.29156
1.28867
1.28797
1.28779
1.28761
1.28734
1.28698
1.28661
1.28585
1.2851
1.28448
1.28344
1.28011
1.27284
1.26728
1.26635
1.26629
1.26611
1.26577
1.2656
1.26574
1.26549
1.26454
1.26385
1.26354
1.26309
1.26252
1.26176
1.25985
1.25473
1.24773
1.24525
1.24516
1.24514
1.2462
1.24963
1.2534
1.25545
1.25632
1.25686
1.25702
1.25738
1.25984
1.2623
1.26459
1.26814
1.2717
1.27293
1.27284
1.27157
1.27067
1.27704
1.32113
1.41443
1.54531
1.63133
1.69239
1.71352
1.71314
1.70758
1.70674
1.70432
1.70157
1.7007
1.70099
1.70026
1.69873
1.6968
1.6944
1.69195
1.68987
1.68834
1.68714
1.68642
1.68608
1.68595
1.68567
1.6853
1.68469
1.68389
1.68317
1.68188
1.67996
1.6784
1.67713
1.67574
1.67442
1.67311
1.67171
1.67007
1.66816
1.6659
1.66328
1.66108
1.65947
1.65809
1.65698
1.65607
1.65486
1.65307
1.65073
1.64753
1.6432
1.63928
1.63649
1.63402
1.63182
1.63003
1.62836
1.62656
1.62516
1.6233
1.6211
1.61912
1.61716
1.61515
1.6131
1.61141