/*--------------------------------*- C++ -*----------------------------------*\
  =========                 |
  \\      /  F ield         | OpenFOAM: The Open Source CFD Toolbox
   \\    /   O peration     | Website:  https://openfoam.org
    \\  /    A nd           | Version:  7
     \\/     M anipulation  |
\*---------------------------------------------------------------------------*/
FoamFile
{
    version     2.0;
    format      ascii;
    class       volVectorField;
    location    "1.3";
    object      U;
}
// * * * * * * * * * * * * * * * * * * * * * * * * * * * * * * * * * * * * * //

dimensions      [0 1 -1 0 0 0 0];

internalField   nonuniform List<vector> 
16192
(
(2.71936 0.143316 0)
(2.72231 0.140735 0)
(2.72212 0.133959 0)
(2.71659 0.122469 0)
(2.71185 0.11252 0)
(2.7138 0.109012 0)
(2.71648 0.108727 0)
(2.72231 0.10765 0)
(2.72975 0.106154 0)
(2.73316 0.104764 0)
(2.73491 0.103747 0)
(2.73753 0.102271 0)
(2.73945 0.0995352 0)
(2.73637 0.092476 0)
(2.72757 0.0824109 0)
(2.72551 0.0776611 0)
(2.72812 0.0778146 0)
(2.73149 0.0777582 0)
(2.73513 0.0766431 0)
(2.73758 0.0751391 0)
(2.73992 0.0732849 0)
(2.74142 0.0707851 0)
(2.741 0.0660943 0)
(2.73773 0.0573117 0)
(2.73409 0.0492514 0)
(2.735 0.0470765 0)
(2.737 0.047142 0)
(2.74175 0.0482589 0)
(2.74656 0.051163 0)
(2.74851 0.0522105 0)
(2.75092 0.0517512 0)
(2.75386 0.0502098 0)
(2.7564 0.0485289 0)
(2.75802 0.0458422 0)
(2.75687 0.0399177 0)
(2.75633 0.0359038 0)
(2.7574 0.0355032 0)
(2.75828 0.0347821 0)
(2.75992 0.0338623 0)
(2.76145 0.0323596 0)
(2.76208 0.0314348 0)
(2.76219 0.0312094 0)
(2.76219 0.0307402 0)
(2.76172 0.0296614 0)
(2.7616 0.0291471 0)
(2.76284 0.0295326 0)
(2.76438 0.0300573 0)
(2.76657 0.0306623 0)
(2.76941 0.0309778 0)
(2.77245 0.0305876 0)
(2.77575 0.029673 0)
(2.77857 0.0286334 0)
(2.7802 0.0268549 0)
(2.77952 0.0233062 0)
(2.77786 0.0196491 0)
(2.77838 0.0185616 0)
(2.7792 0.0180154 0)
(2.78094 0.0175098 0)
(2.78299 0.0185747 0)
(2.78611 0.0213295 0)
(2.7901 0.0241607 0)
(2.79173 0.0247194 0)
(2.79468 0.0243005 0)
(2.79786 0.0233505 0)
(2.80069 0.0222392 0)
(2.80208 0.0204409 0)
(2.80061 0.0176755 0)
(2.79965 0.0161203 0)
(2.8004 0.0154711 0)
(2.80129 0.0140772 0)
(2.80307 0.0120393 0)
(2.80505 0.0112016 0)
(2.80752 0.0110737 0)
(2.81167 0.0113306 0)
(2.81666 0.0118407 0)
(2.81852 0.0116977 0)
(2.8217 0.0108994 0)
(2.82506 0.0107001 0)
(2.82745 0.0110734 0)
(2.82796 0.0110934 0)
(2.82549 0.00990691 0)
(2.81661 0.00812719 0)
(2.80816 0.00855114 0)
(2.80085 0.0107051 0)
(2.78482 0.0163649 0)
(2.7672 0.0301592 0)
(2.75415 0.0476252 0)
(2.74741 0.056804 0)
(2.74605 0.0607437 0)
(2.74857 0.0641792 0)
(2.75477 0.0680362 0)
(2.75809 0.0695706 0)
(2.76054 0.0702045 0)
(2.76346 0.070447 0)
(2.76463 0.0687539 0)
(2.76316 0.0649568 0)
(2.75778 0.0581111 0)
(2.7559 0.0545723 0)
(2.7578 0.0545612 0)
(2.75949 0.0548387 0)
(2.76141 0.0556699 0)
(2.76609 0.0583148 0)
(2.77205 0.0628385 0)
(2.77485 0.0648248 0)
(2.77567 0.0650484 0)
(2.77684 0.0650694 0)
(2.77701 0.0643526 0)
(2.77517 0.062002 0)
(2.77311 0.0584632 0)
(2.77317 0.0575246 0)
(2.77586 0.058039 0)
(2.77851 0.0581568 0)
(2.7806 0.058204 0)
(2.7823 0.0582062 0)
(2.78386 0.0582207 0)
(2.78499 0.0580893 0)
(2.78506 0.0573001 0)
(2.78443 0.055581 0)
(2.78499 0.0545095 0)
(2.78619 0.0543648 0)
(2.78788 0.0543509 0)
(2.78939 0.0545 0)
(2.79141 0.0545396 0)
(2.79361 0.0543148 0)
(2.79516 0.0534612 0)
(2.79504 0.0514896 0)
(2.79206 0.0472553 0)
(2.78945 0.0444495 0)
(2.79017 0.0443257 0)
(2.79178 0.044616 0)
(2.79239 0.0447237 0)
(2.79282 0.0433903 0)
(2.78591 0.0270467 0)
(2.75463 -0.0394743 0)
(2.69572 -0.185336 0)
(2.55376 -0.424746 0)
(2.5502 -0.500955 0)
(2.44796 -0.610633 0)
(2.38779 -0.704902 0)
(2.37391 -0.70322 0)
(2.37731 -0.687377 0)
(2.38141 -0.687282 0)
(2.3835 -0.690548 0)
(2.38443 -0.691768 0)
(2.38397 -0.694411 0)
(2.38361 -0.697321 0)
(2.3854 -0.69793 0)
(2.38764 -0.697204 0)
(2.39082 -0.694855 0)
(2.39258 -0.692748 0)
(2.39403 -0.691745 0)
(2.39593 -0.690751 0)
(2.39702 -0.690323 0)
(2.39696 -0.689834 0)
(2.39858 -0.689363 0)
(2.40092 -0.689505 0)
(2.40341 -0.688464 0)
(2.40583 -0.686515 0)
(2.40833 -0.68526 0)
(2.41077 -0.685097 0)
(2.41308 -0.685029 0)
(2.41401 -0.684541 0)
(2.41567 -0.683725 0)
(2.4174 -0.682414 0)
(2.4191 -0.68006 0)
(2.41998 -0.677368 0)
(2.42048 -0.674246 0)
(2.42003 -0.668397 0)
(2.4194 -0.661845 0)
(2.41973 -0.657393 0)
(2.41868 -0.655164 0)
(2.41822 -0.655086 0)
(2.41801 -0.655641 0)
(2.41898 -0.6559 0)
(2.42113 -0.655049 0)
(2.42248 -0.654937 0)
(2.42296 -0.655281 0)
(2.42481 -0.653801 0)
(2.42883 -0.651131 0)
(2.4328 -0.646737 0)
(2.43581 -0.641831 0)
(2.43827 -0.639372 0)
(2.4407 -0.638947 0)
(2.44285 -0.639339 0)
(2.44481 -0.64022 0)
(2.44642 -0.641176 0)
(2.44691 -0.642389 0)
(2.44958 -0.643107 0)
(2.45302 -0.643316 0)
(2.45665 -0.642998 0)
(2.4611 -0.641585 0)
(2.46683 -0.639418 0)
(2.47269 -0.638289 0)
(2.47748 -0.638109 0)
(2.48071 -0.638407 0)
(2.48316 -0.639008 0)
(2.48481 -0.639259 0)
(2.48367 -0.639336 0)
(2.48309 -0.639061 0)
(2.48431 -0.6385 0)
(2.48671 -0.637086 0)
(2.49043 -0.635427 0)
(2.49481 -0.633428 0)
(2.50089 -0.630249 0)
(2.5059 -0.627001 0)
(2.51079 -0.627532 0)
(2.51523 -0.628648 0)
(2.51843 -0.62963 0)
(2.51965 -0.631758 0)
(2.52153 -0.633685 0)
(2.52415 -0.634804 0)
(2.52692 -0.636017 0)
(2.53206 -0.636999 0)
(2.53837 -0.637048 0)
(2.54328 -0.636783 0)
(2.54774 -0.63632 0)
(2.55161 -0.635579 0)
(2.55509 -0.635594 0)
(2.55769 -0.635695 0)
(2.55523 -0.633904 0)
(2.54831 -0.629463 0)
(2.54645 -0.627219 0)
(2.54789 -0.626717 0)
(2.55074 -0.62684 0)
(2.55415 -0.627492 0)
(2.55761 -0.628398 0)
(2.56133 -0.629876 0)
(2.56615 -0.631341 0)
(2.57387 -0.631832 0)
(2.58327 -0.629103 0)
(2.59244 -0.622375 0)
(2.59939 -0.615473 0)
(2.60259 -0.610986 0)
(2.60451 -0.608749 0)
(2.6061 -0.608042 0)
(2.60697 -0.607787 0)
(2.60662 -0.609552 0)
(2.60315 -0.615846 0)
(2.59883 -0.623193 0)
(2.59837 -0.628914 0)
(2.60192 -0.631613 0)
(2.60605 -0.632911 0)
(2.61056 -0.633361 0)
(2.61575 -0.632153 0)
(2.62076 -0.629396 0)
(2.62475 -0.625961 0)
(2.62757 -0.622023 0)
(2.6288 -0.617224 0)
(2.6283 -0.613077 0)
(2.62797 -0.611858 0)
(2.62867 -0.613419 0)
(2.6305 -0.615684 0)
(2.6331 -0.617786 0)
(2.72004 0.150799 0)
(2.71887 0.143956 0)
(2.71195 0.131475 0)
(2.70682 0.120691 0)
(2.70877 0.117279 0)
(2.71143 0.117286 0)
(2.71747 0.116875 0)
(2.72589 0.116155 0)
(2.73085 0.114486 0)
(2.73245 0.113049 0)
(2.73467 0.111046 0)
(2.73663 0.108177 0)
(2.73475 0.101499 0)
(2.72644 0.0911687 0)
(2.72299 0.0849521 0)
(2.7255 0.0846775 0)
(2.72888 0.0845147 0)
(2.73283 0.0837376 0)
(2.73596 0.0824242 0)
(2.73832 0.080901 0)
(2.73994 0.0790315 0)
(2.73977 0.075235 0)
(2.73636 0.0673622 0)
(2.73216 0.0587804 0)
(2.73261 0.0558838 0)
(2.73478 0.0556028 0)
(2.73998 0.0565499 0)
(2.74532 0.0581669 0)
(2.74756 0.0588439 0)
(2.74961 0.0588134 0)
(2.75246 0.0581446 0)
(2.75502 0.0569165 0)
(2.75681 0.055297 0)
(2.75716 0.0512193 0)
(2.75538 0.0442341 0)
(2.75624 0.0417016 0)
(2.75735 0.0410774 0)
(2.75837 0.0402856 0)
(2.76017 0.0391982 0)
(2.76169 0.0375453 0)
(2.76245 0.0366723 0)
(2.76263 0.0364625 0)
(2.76278 0.0357466 0)
(2.76239 0.0349089 0)
(2.76233 0.0351445 0)
(2.76392 0.0355443 0)
(2.76598 0.0356476 0)
(2.76857 0.0355887 0)
(2.77156 0.0350642 0)
(2.77448 0.034261 0)
(2.77711 0.0333021 0)
(2.77886 0.0315348 0)
(2.77847 0.0279792 0)
(2.77668 0.0238059 0)
(2.77732 0.0223953 0)
(2.77832 0.0218947 0)
(2.7802 0.0212 0)
(2.78256 0.0216062 0)
(2.78538 0.02378 0)
(2.78937 0.0268551 0)
(2.79157 0.0280002 0)
(2.79363 0.0278355 0)
(2.7967 0.0269756 0)
(2.79962 0.0259044 0)
(2.80192 0.0244869 0)
(2.80182 0.0219528 0)
(2.79987 0.0193291 0)
(2.80022 0.0186523 0)
(2.80092 0.0178927 0)
(2.80213 0.0160416 0)
(2.80396 0.0143242 0)
(2.80609 0.0140471 0)
(2.80943 0.0150884 0)
(2.8144 0.0159975 0)
(2.81845 0.015957 0)
(2.82021 0.0156492 0)
(2.82347 0.0147749 0)
(2.82687 0.0144643 0)
(2.82926 0.0139129 0)
(2.82896 0.0118018 0)
(2.82307 0.00688719 0)
(2.81363 0.00147334 0)
(2.81008 0.000592761 0)
(2.80688 0.00190494 0)
(2.79773 0.00621629 0)
(2.78355 0.016488 0)
(2.76811 0.0358365 0)
(2.757 0.051209 0)
(2.75233 0.0581967 0)
(2.75474 0.0640243 0)
(2.75929 0.0676753 0)
(2.76031 0.0683016 0)
(2.762 0.0690886 0)
(2.76368 0.0696842 0)
(2.76388 0.0676659 0)
(2.75995 0.0615477 0)
(2.75537 0.05469 0)
(2.75703 0.0532781 0)
(2.75903 0.0532132 0)
(2.76108 0.053674 0)
(2.7657 0.0560748 0)
(2.77243 0.0613381 0)
(2.77635 0.0643918 0)
(2.77714 0.0647072 0)
(2.7782 0.0649306 0)
(2.77868 0.0644699 0)
(2.77706 0.0624937 0)
(2.77396 0.0588839 0)
(2.77367 0.0569261 0)
(2.77523 0.0569966 0)
(2.77814 0.0573651 0)
(2.78054 0.0574486 0)
(2.78249 0.057516 0)
(2.78411 0.0575792 0)
(2.78542 0.0575863 0)
(2.78556 0.0570641 0)
(2.78481 0.055712 0)
(2.7852 0.0547738 0)
(2.78623 0.0546339 0)
(2.7875 0.0544492 0)
(2.78968 0.0546367 0)
(2.79106 0.0547543 0)
(2.79329 0.0546892 0)
(2.79532 0.0540301 0)
(2.79599 0.0522657 0)
(2.794 0.0488312 0)
(2.79032 0.0453972 0)
(2.79112 0.0448747 0)
(2.79147 0.0447842 0)
(2.79184 0.0437097 0)
(2.78674 0.0318271 0)
(2.76241 -0.0200463 0)
(2.70234 -0.155623 0)
(2.57953 -0.379572 0)
(2.56858 -0.468409 0)
(2.44196 -0.617873 0)
(2.39258 -0.703052 0)
(2.38647 -0.686951 0)
(2.38833 -0.676814 0)
(2.38682 -0.682945 0)
(2.38649 -0.686929 0)
(2.38381 -0.691066 0)
(2.38097 -0.695436 0)
(2.38136 -0.697465 0)
(2.38324 -0.697707 0)
(2.38566 -0.69621 0)
(2.38957 -0.694006 0)
(2.39246 -0.691758 0)
(2.39437 -0.690704 0)
(2.39643 -0.689936 0)
(2.39724 -0.689504 0)
(2.39753 -0.689613 0)
(2.39856 -0.689147 0)
(2.40043 -0.688341 0)
(2.40268 -0.687258 0)
(2.4049 -0.685459 0)
(2.40717 -0.683664 0)
(2.40951 -0.682578 0)
(2.41201 -0.682131 0)
(2.41398 -0.682116 0)
(2.41501 -0.682166 0)
(2.4171 -0.681889 0)
(2.41854 -0.681338 0)
(2.41973 -0.680016 0)
(2.42138 -0.677817 0)
(2.42389 -0.675725 0)
(2.4263 -0.671774 0)
(2.42606 -0.666308 0)
(2.42516 -0.661597 0)
(2.42433 -0.657786 0)
(2.4228 -0.656893 0)
(2.42081 -0.655935 0)
(2.42034 -0.654929 0)
(2.42072 -0.654733 0)
(2.42236 -0.654249 0)
(2.42492 -0.653081 0)
(2.42721 -0.651791 0)
(2.42923 -0.65087 0)
(2.43328 -0.647102 0)
(2.43663 -0.641593 0)
(2.43907 -0.63826 0)
(2.44143 -0.636739 0)
(2.44326 -0.635989 0)
(2.44436 -0.636291 0)
(2.44497 -0.637759 0)
(2.44607 -0.638607 0)
(2.44884 -0.637682 0)
(2.45273 -0.637511 0)
(2.45619 -0.637151 0)
(2.46028 -0.636524 0)
(2.46555 -0.635764 0)
(2.47142 -0.634169 0)
(2.47606 -0.633051 0)
(2.48034 -0.633063 0)
(2.48328 -0.633916 0)
(2.48476 -0.635257 0)
(2.48445 -0.636797 0)
(2.48461 -0.636823 0)
(2.48592 -0.636312 0)
(2.48806 -0.635847 0)
(2.49132 -0.6353 0)
(2.49557 -0.633441 0)
(2.50208 -0.629555 0)
(2.50669 -0.626109 0)
(2.51137 -0.625494 0)
(2.51546 -0.625061 0)
(2.51788 -0.625199 0)
(2.51877 -0.626426 0)
(2.52059 -0.627557 0)
(2.52323 -0.628487 0)
(2.52565 -0.629474 0)
(2.52876 -0.630794 0)
(2.53488 -0.632445 0)
(2.54139 -0.632626 0)
(2.54625 -0.63264 0)
(2.55056 -0.632914 0)
(2.5545 -0.633632 0)
(2.55818 -0.634729 0)
(2.56113 -0.635993 0)
(2.5607 -0.636332 0)
(2.55569 -0.633033 0)
(2.55151 -0.627679 0)
(2.55089 -0.624406 0)
(2.55227 -0.62333 0)
(2.55514 -0.623165 0)
(2.55892 -0.623548 0)
(2.5624 -0.624109 0)
(2.56767 -0.62476 0)
(2.57781 -0.623481 0)
(2.59037 -0.618417 0)
(2.6002 -0.613298 0)
(2.60452 -0.610332 0)
(2.60693 -0.608404 0)
(2.60943 -0.606293 0)
(2.61002 -0.604045 0)
(2.60772 -0.604099 0)
(2.60276 -0.60976 0)
(2.59866 -0.618063 0)
(2.59793 -0.623784 0)
(2.60078 -0.626163 0)
(2.60403 -0.627213 0)
(2.6076 -0.627998 0)
(2.61302 -0.628289 0)
(2.61962 -0.627092 0)
(2.62498 -0.624482 0)
(2.62861 -0.621591 0)
(2.63167 -0.619216 0)
(2.63367 -0.616849 0)
(2.6319 -0.613582 0)
(2.62846 -0.611605 0)
(2.62873 -0.61208 0)
(2.63063 -0.613274 0)
(2.63345 -0.614037 0)
(2.7161 0.152974 0)
(2.70799 0.140335 0)
(2.70205 0.128983 0)
(2.70385 0.12526 0)
(2.70651 0.125433 0)
(2.71245 0.125902 0)
(2.72129 0.126331 0)
(2.72763 0.12492 0)
(2.72964 0.122975 0)
(2.73189 0.12065 0)
(2.73374 0.117476 0)
(2.73235 0.110705 0)
(2.72468 0.099955 0)
(2.72042 0.0924393 0)
(2.72278 0.0916111 0)
(2.72615 0.0914028 0)
(2.73017 0.0905349 0)
(2.73385 0.0895703 0)
(2.73669 0.0883831 0)
(2.73861 0.0868328 0)
(2.73881 0.0839139 0)
(2.73564 0.0770127 0)
(2.73054 0.068503 0)
(2.73049 0.0650185 0)
(2.73224 0.064667 0)
(2.73734 0.0646613 0)
(2.74333 0.066268 0)
(2.74611 0.0664265 0)
(2.74869 0.0657472 0)
(2.75096 0.0653408 0)
(2.7537 0.06486 0)
(2.75598 0.0641422 0)
(2.75687 0.0621082 0)
(2.75548 0.055464 0)
(2.7543 0.048549 0)
(2.75579 0.0473895 0)
(2.75676 0.0467369 0)
(2.75804 0.0459011 0)
(2.76001 0.0446034 0)
(2.76188 0.0430094 0)
(2.76277 0.0423936 0)
(2.76301 0.042214 0)
(2.76322 0.0418724 0)
(2.7629 0.0416699 0)
(2.76338 0.0414484 0)
(2.7653 0.0411696 0)
(2.76771 0.0408084 0)
(2.77047 0.0402348 0)
(2.77323 0.0395162 0)
(2.77575 0.0385793 0)
(2.7775 0.0368212 0)
(2.77728 0.0331851 0)
(2.77524 0.0286458 0)
(2.77602 0.0268733 0)
(2.77736 0.026497 0)
(2.77926 0.0256584 0)
(2.78196 0.0256492 0)
(2.78469 0.0272163 0)
(2.78839 0.0297885 0)
(2.79141 0.0315118 0)
(2.7928 0.0316629 0)
(2.79549 0.0310195 0)
(2.79833 0.0300324 0)
(2.80092 0.0289156 0)
(2.80214 0.0269175 0)
(2.80047 0.0236552 0)
(2.79999 0.0220684 0)
(2.80081 0.0218204 0)
(2.80164 0.0206698 0)
(2.80311 0.0186414 0)
(2.80504 0.0175154 0)
(2.80793 0.0178874 0)
(2.81224 0.0203171 0)
(2.81735 0.0210731 0)
(2.81952 0.0205039 0)
(2.82172 0.0197153 0)
(2.8249 0.0188517 0)
(2.828 0.0181912 0)
(2.82956 0.0156744 0)
(2.8257 0.00964329 0)
(2.81672 0.00128466 0)
(2.81238 -0.00157699 0)
(2.81174 -0.00156139 0)
(2.81038 -0.000985635 0)
(2.80662 0.00101397 0)
(2.79803 0.0070315 0)
(2.78434 0.0232047 0)
(2.77141 0.0414845 0)
(2.76317 0.0544389 0)
(2.7622 0.0620962 0)
(2.76274 0.0657201 0)
(2.76283 0.066233 0)
(2.7629 0.0674806 0)
(2.7631 0.0683306 0)
(2.76146 0.0655594 0)
(2.75605 0.0581321 0)
(2.75551 0.0536786 0)
(2.75791 0.0531321 0)
(2.7602 0.0527787 0)
(2.76456 0.054083 0)
(2.77202 0.059213 0)
(2.77748 0.0637835 0)
(2.77862 0.0644794 0)
(2.7796 0.0647378 0)
(2.78024 0.0647022 0)
(2.77915 0.0631666 0)
(2.77553 0.0594114 0)
(2.77403 0.0569434 0)
(2.77549 0.0565079 0)
(2.77754 0.0568321 0)
(2.78038 0.057014 0)
(2.78264 0.0570434 0)
(2.7844 0.0570687 0)
(2.78586 0.0571069 0)
(2.78623 0.0567667 0)
(2.78521 0.0556891 0)
(2.78526 0.0548842 0)
(2.78631 0.054839 0)
(2.78731 0.0547348 0)
(2.78915 0.0546107 0)
(2.79094 0.0548218 0)
(2.79268 0.0548404 0)
(2.79502 0.0545441 0)
(2.79647 0.053251 0)
(2.7956 0.0504225 0)
(2.79207 0.0467914 0)
(2.79143 0.0449229 0)
(2.79152 0.0443111 0)
(2.78786 0.0357385 0)
(2.76975 -0.00471646 0)
(2.71095 -0.126792 0)
(2.60329 -0.331636 0)
(2.5758 -0.43986 0)
(2.44104 -0.629889 0)
(2.40278 -0.691942 0)
(2.40355 -0.668699 0)
(2.39735 -0.668789 0)
(2.39323 -0.676594 0)
(2.38859 -0.684302 0)
(2.38291 -0.69193 0)
(2.37975 -0.695991 0)
(2.37987 -0.696798 0)
(2.381 -0.695954 0)
(2.3833 -0.694217 0)
(2.38743 -0.691999 0)
(2.39074 -0.689766 0)
(2.39299 -0.689095 0)
(2.39534 -0.689634 0)
(2.39648 -0.690164 0)
(2.39748 -0.689737 0)
(2.39828 -0.688767 0)
(2.39953 -0.687033 0)
(2.40207 -0.68604 0)
(2.40438 -0.684972 0)
(2.40639 -0.683292 0)
(2.40835 -0.681338 0)
(2.41025 -0.679936 0)
(2.41216 -0.679458 0)
(2.41379 -0.679709 0)
(2.41491 -0.679969 0)
(2.41583 -0.679766 0)
(2.41829 -0.679028 0)
(2.42052 -0.678058 0)
(2.42245 -0.677108 0)
(2.42471 -0.675519 0)
(2.42787 -0.672543 0)
(2.43041 -0.66801 0)
(2.43139 -0.665307 0)
(2.43062 -0.662811 0)
(2.42845 -0.659673 0)
(2.42694 -0.657942 0)
(2.42551 -0.657223 0)
(2.4238 -0.65592 0)
(2.4232 -0.654413 0)
(2.42402 -0.652049 0)
(2.42695 -0.649238 0)
(2.43212 -0.647169 0)
(2.43553 -0.646155 0)
(2.43826 -0.644593 0)
(2.44152 -0.641204 0)
(2.4434 -0.637386 0)
(2.44435 -0.634641 0)
(2.44509 -0.633852 0)
(2.44532 -0.634971 0)
(2.44601 -0.636118 0)
(2.44938 -0.635613 0)
(2.45365 -0.634423 0)
(2.45777 -0.633171 0)
(2.462 -0.632464 0)
(2.46689 -0.631834 0)
(2.47172 -0.631142 0)
(2.47636 -0.630751 0)
(2.4805 -0.630482 0)
(2.48363 -0.630681 0)
(2.48537 -0.631139 0)
(2.48435 -0.632749 0)
(2.4852 -0.633743 0)
(2.48672 -0.634025 0)
(2.48897 -0.63356 0)
(2.49232 -0.632649 0)
(2.49718 -0.630925 0)
(2.5035 -0.627877 0)
(2.5084 -0.625742 0)
(2.51318 -0.625693 0)
(2.51773 -0.625238 0)
(2.51975 -0.624224 0)
(2.51999 -0.623496 0)
(2.52179 -0.623021 0)
(2.52445 -0.623016 0)
(2.5268 -0.623163 0)
(2.52916 -0.623479 0)
(2.53214 -0.623724 0)
(2.53764 -0.624956 0)
(2.54357 -0.626552 0)
(2.54831 -0.628072 0)
(2.55166 -0.629345 0)
(2.55576 -0.631062 0)
(2.5593 -0.632872 0)
(2.56192 -0.634704 0)
(2.56231 -0.636256 0)
(2.56085 -0.635899 0)
(2.5593 -0.632806 0)
(2.55799 -0.627716 0)
(2.55723 -0.622968 0)
(2.55882 -0.620306 0)
(2.56208 -0.61848 0)
(2.5656 -0.616614 0)
(2.57147 -0.614579 0)
(2.58284 -0.611911 0)
(2.59622 -0.609269 0)
(2.60371 -0.607269 0)
(2.60737 -0.605616 0)
(2.60968 -0.604656 0)
(2.61231 -0.6043 0)
(2.61231 -0.605003 0)
(2.60648 -0.608686 0)
(2.59862 -0.614962 0)
(2.59716 -0.619116 0)
(2.60033 -0.620482 0)
(2.60395 -0.621412 0)
(2.60726 -0.62249 0)
(2.61135 -0.623865 0)
(2.61747 -0.623376 0)
(2.62366 -0.620834 0)
(2.62835 -0.618862 0)
(2.63127 -0.617379 0)
(2.63454 -0.617032 0)
(2.63747 -0.616706 0)
(2.63675 -0.615076 0)
(2.63142 -0.61176 0)
(2.63074 -0.609617 0)
(2.63405 -0.609185 0)
(2.63719 -0.609488 0)
(2.70459 0.148277 0)
(2.69799 0.136776 0)
(2.69963 0.132883 0)
(2.70231 0.132955 0)
(2.70799 0.134049 0)
(2.71677 0.136137 0)
(2.72341 0.135647 0)
(2.72632 0.133366 0)
(2.72885 0.130705 0)
(2.73083 0.127356 0)
(2.72974 0.120438 0)
(2.72231 0.109248 0)
(2.71724 0.100299 0)
(2.71971 0.098703 0)
(2.72315 0.0986164 0)
(2.72763 0.0976179 0)
(2.73127 0.0967143 0)
(2.73471 0.0957589 0)
(2.73718 0.0945484 0)
(2.73806 0.0922247 0)
(2.73531 0.0864991 0)
(2.72949 0.0778502 0)
(2.72861 0.0738754 0)
(2.73028 0.0736371 0)
(2.73388 0.0733409 0)
(2.74052 0.0742888 0)
(2.74446 0.074732 0)
(2.74713 0.0742286 0)
(2.75013 0.0734624 0)
(2.75231 0.07289 0)
(2.75481 0.0723441 0)
(2.75616 0.0717845 0)
(2.75547 0.068053 0)
(2.75261 0.0586212 0)
(2.75337 0.0541831 0)
(2.75479 0.0536887 0)
(2.75595 0.0526404 0)
(2.7579 0.0513734 0)
(2.76019 0.0497575 0)
(2.76222 0.0488475 0)
(2.76286 0.0487516 0)
(2.76319 0.0487257 0)
(2.76344 0.0486769 0)
(2.7634 0.0483792 0)
(2.76444 0.0476257 0)
(2.76667 0.0468296 0)
(2.76926 0.0460711 0)
(2.77198 0.0452644 0)
(2.77451 0.0443367 0)
(2.77629 0.0426568 0)
(2.77617 0.0390213 0)
(2.77382 0.0338627 0)
(2.77448 0.0316597 0)
(2.77632 0.0314852 0)
(2.77825 0.0308698 0)
(2.78125 0.0306342 0)
(2.78409 0.0316849 0)
(2.78729 0.0335047 0)
(2.7909 0.0352388 0)
(2.79219 0.0356815 0)
(2.79428 0.0353893 0)
(2.79693 0.0344157 0)
(2.79951 0.0334508 0)
(2.80146 0.0320177 0)
(2.8009 0.0289894 0)
(2.79955 0.0260586 0)
(2.80056 0.025672 0)
(2.80146 0.025273 0)
(2.80264 0.0237724 0)
(2.80424 0.0221707 0)
(2.80673 0.0218004 0)
(2.81058 0.0234362 0)
(2.81569 0.0259246 0)
(2.81859 0.0261211 0)
(2.82054 0.0249344 0)
(2.82319 0.0235479 0)
(2.82582 0.0226162 0)
(2.82773 0.0205453 0)
(2.82584 0.0142004 0)
(2.81804 0.00391246 0)
(2.81347 -0.00138532 0)
(2.81338 -0.00221909 0)
(2.81364 -0.00256286 0)
(2.81326 -0.00178073 0)
(2.81173 9.72373e-05 0)
(2.80835 0.00299522 0)
(2.79957 0.0127478 0)
(2.78735 0.0304762 0)
(2.7788 0.0470908 0)
(2.77336 0.0598888 0)
(2.767 0.0627094 0)
(2.7655 0.0636737 0)
(2.76381 0.0654691 0)
(2.76163 0.066215 0)
(2.75747 0.0623008 0)
(2.75433 0.0562425 0)
(2.75639 0.0541155 0)
(2.75883 0.0533022 0)
(2.76269 0.053234 0)
(2.77053 0.0567899 0)
(2.77775 0.0626055 0)
(2.77992 0.0642751 0)
(2.78085 0.0646607 0)
(2.78169 0.0648576 0)
(2.78111 0.0639908 0)
(2.77768 0.0606685 0)
(2.77472 0.0571417 0)
(2.77573 0.056572 0)
(2.7775 0.05668 0)
(2.77985 0.0569591 0)
(2.78264 0.057037 0)
(2.78475 0.0569774 0)
(2.78634 0.0569273 0)
(2.78705 0.0566677 0)
(2.78594 0.0556975 0)
(2.78515 0.0547836 0)
(2.78615 0.0547921 0)
(2.78715 0.0548842 0)
(2.78838 0.0548159 0)
(2.79068 0.0548166 0)
(2.79194 0.0549311 0)
(2.79425 0.0547932 0)
(2.79639 0.0540389 0)
(2.79654 0.0521157 0)
(2.79399 0.0481072 0)
(2.79178 0.0445467 0)
(2.78888 0.0387296 0)
(2.77539 0.00845356 0)
(2.72098 -0.101596 0)
(2.63118 -0.282465 0)
(2.57685 -0.42227 0)
(2.43798 -0.639826 0)
(2.41459 -0.669383 0)
(2.41816 -0.652512 0)
(2.40513 -0.663184 0)
(2.39854 -0.672548 0)
(2.38911 -0.684688 0)
(2.38225 -0.69103 0)
(2.3797 -0.693866 0)
(2.37963 -0.694103 0)
(2.38043 -0.693132 0)
(2.38309 -0.691477 0)
(2.38609 -0.689567 0)
(2.38801 -0.688282 0)
(2.39023 -0.68828 0)
(2.39215 -0.688833 0)
(2.3943 -0.688977 0)
(2.39645 -0.68864 0)
(2.39815 -0.687762 0)
(2.39939 -0.687101 0)
(2.40119 -0.686087 0)
(2.40296 -0.68421 0)
(2.4044 -0.682047 0)
(2.40651 -0.680823 0)
(2.409 -0.68017 0)
(2.41136 -0.67936 0)
(2.41356 -0.678372 0)
(2.41506 -0.677948 0)
(2.41592 -0.677789 0)
(2.41555 -0.677472 0)
(2.41737 -0.676619 0)
(2.41993 -0.675652 0)
(2.4224 -0.673862 0)
(2.42462 -0.671721 0)
(2.42696 -0.670337 0)
(2.4308 -0.667432 0)
(2.4334 -0.665422 0)
(2.43476 -0.664787 0)
(2.43441 -0.663265 0)
(2.43237 -0.661134 0)
(2.43123 -0.659208 0)
(2.43063 -0.658504 0)
(2.42933 -0.656737 0)
(2.42794 -0.654177 0)
(2.42753 -0.650522 0)
(2.43036 -0.646367 0)
(2.43642 -0.643694 0)
(2.43995 -0.642792 0)
(2.44216 -0.641657 0)
(2.44529 -0.638778 0)
(2.44699 -0.635894 0)
(2.44743 -0.634038 0)
(2.44749 -0.633894 0)
(2.44777 -0.634712 0)
(2.44973 -0.634103 0)
(2.45326 -0.631401 0)
(2.45719 -0.627729 0)
(2.46166 -0.625462 0)
(2.46648 -0.624226 0)
(2.47158 -0.623444 0)
(2.47603 -0.624116 0)
(2.47978 -0.625317 0)
(2.4832 -0.626226 0)
(2.48587 -0.627276 0)
(2.48577 -0.628704 0)
(2.4857 -0.628876 0)
(2.48696 -0.628593 0)
(2.48869 -0.628553 0)
(2.4914 -0.62844 0)
(2.49742 -0.627562 0)
(2.50511 -0.625029 0)
(2.51118 -0.62377 0)
(2.51501 -0.624649 0)
(2.51989 -0.625948 0)
(2.52402 -0.626447 0)
(2.52555 -0.626093 0)
(2.52562 -0.62446 0)
(2.52697 -0.621765 0)
(2.52884 -0.619172 0)
(2.53121 -0.617817 0)
(2.53387 -0.617499 0)
(2.53709 -0.617468 0)
(2.5423 -0.61787 0)
(2.54576 -0.619488 0)
(2.54937 -0.621674 0)
(2.55329 -0.624088 0)
(2.55665 -0.626476 0)
(2.55937 -0.629386 0)
(2.56115 -0.632305 0)
(2.5627 -0.634059 0)
(2.56414 -0.634154 0)
(2.56539 -0.632949 0)
(2.56597 -0.630029 0)
(2.56527 -0.624895 0)
(2.56616 -0.620241 0)
(2.56904 -0.616724 0)
(2.57293 -0.612201 0)
(2.58062 -0.606264 0)
(2.59111 -0.6006 0)
(2.60025 -0.599289 0)
(2.60486 -0.600536 0)
(2.60723 -0.601517 0)
(2.61061 -0.603367 0)
(2.61298 -0.605818 0)
(2.61125 -0.609609 0)
(2.60297 -0.614569 0)
(2.59721 -0.616478 0)
(2.59897 -0.616149 0)
(2.60244 -0.616093 0)
(2.60608 -0.616408 0)
(2.60976 -0.616668 0)
(2.61404 -0.616633 0)
(2.62088 -0.616315 0)
(2.62675 -0.614247 0)
(2.62939 -0.613343 0)
(2.63228 -0.614031 0)
(2.63575 -0.615024 0)
(2.63898 -0.615927 0)
(2.64025 -0.616015 0)
(2.63807 -0.614023 0)
(2.63632 -0.610359 0)
(2.63834 -0.607542 0)
(2.64148 -0.605859 0)
(2.6945 0.144251 0)
(2.69592 0.140498 0)
(2.69859 0.140665 0)
(2.70424 0.141668 0)
(2.71321 0.14452 0)
(2.71921 0.145673 0)
(2.72254 0.14401 0)
(2.72573 0.141073 0)
(2.72773 0.137339 0)
(2.72668 0.130098 0)
(2.71968 0.118711 0)
(2.714 0.109069 0)
(2.71592 0.106396 0)
(2.71951 0.10629 0)
(2.72474 0.105318 0)
(2.72871 0.104144 0)
(2.73234 0.10325 0)
(2.73538 0.10221 0)
(2.73714 0.100421 0)
(2.73536 0.0957893 0)
(2.72912 0.0872948 0)
(2.72685 0.0821956 0)
(2.72868 0.081973 0)
(2.73107 0.0818686 0)
(2.73635 0.0826026 0)
(2.74248 0.0836927 0)
(2.745 0.0830739 0)
(2.74852 0.0825213 0)
(2.75144 0.0816227 0)
(2.75389 0.0807628 0)
(2.75582 0.0799767 0)
(2.75557 0.077913 0)
(2.75184 0.0696788 0)
(2.75024 0.0616876 0)
(2.75249 0.0606261 0)
(2.75394 0.0599172 0)
(2.75566 0.0587695 0)
(2.75811 0.0571695 0)
(2.76063 0.0556961 0)
(2.76235 0.0553481 0)
(2.76269 0.0553735 0)
(2.76316 0.055448 0)
(2.76348 0.0554317 0)
(2.76381 0.0547121 0)
(2.76539 0.0534388 0)
(2.76792 0.052274 0)
(2.77062 0.0512895 0)
(2.77326 0.0502836 0)
(2.77522 0.048739 0)
(2.77527 0.0453318 0)
(2.77266 0.0399087 0)
(2.77283 0.0369713 0)
(2.7749 0.0368375 0)
(2.77716 0.0365359 0)
(2.78036 0.0364052 0)
(2.78361 0.0371172 0)
(2.78633 0.0382734 0)
(2.7896 0.0393721 0)
(2.79199 0.0399258 0)
(2.79315 0.0399139 0)
(2.79548 0.0391147 0)
(2.79793 0.0380284 0)
(2.80009 0.0369998 0)
(2.80063 0.0348399 0)
(2.7989 0.0311487 0)
(2.79986 0.0299419 0)
(2.80105 0.0299114 0)
(2.80226 0.0291911 0)
(2.80378 0.0276936 0)
(2.80593 0.026729 0)
(2.80907 0.0275082 0)
(2.81385 0.0300869 0)
(2.8172 0.0312198 0)
(2.81902 0.0306283 0)
(2.82185 0.0285718 0)
(2.82416 0.0268719 0)
(2.82531 0.0249911 0)
(2.82361 0.0195858 0)
(2.81773 0.00840594 0)
(2.81318 0.00112977 0)
(2.81332 -0.000440638 0)
(2.81389 -0.000720275 0)
(2.81502 -0.00148034 0)
(2.81631 -0.00186659 0)
(2.81563 0.000976373 0)
(2.81411 0.00319566 0)
(2.81071 0.00749301 0)
(2.80203 0.0205424 0)
(2.79438 0.0361554 0)
(2.78918 0.0526563 0)
(2.77428 0.059308 0)
(2.76835 0.0599982 0)
(2.76468 0.0619665 0)
(2.75925 0.0625667 0)
(2.75444 0.0593745 0)
(2.75492 0.0565183 0)
(2.75726 0.0556862 0)
(2.76016 0.0546897 0)
(2.76769 0.0561065 0)
(2.77669 0.0612964 0)
(2.78057 0.0639816 0)
(2.78173 0.0646612 0)
(2.78289 0.065127 0)
(2.78292 0.064709 0)
(2.78 0.0622898 0)
(2.77576 0.0581562 0)
(2.77604 0.0568462 0)
(2.7776 0.0569846 0)
(2.77954 0.057211 0)
(2.78217 0.0574487 0)
(2.78488 0.0574294 0)
(2.78682 0.0572633 0)
(2.78793 0.0569714 0)
(2.78709 0.0559871 0)
(2.78528 0.0547223 0)
(2.78569 0.0545385 0)
(2.78665 0.0547019 0)
(2.78775 0.0548781 0)
(2.78964 0.0549545 0)
(2.79155 0.0550924 0)
(2.79301 0.0549746 0)
(2.79545 0.0549146 0)
(2.79696 0.0532546 0)
(2.79484 0.0486752 0)
(2.79083 0.0408165 0)
(2.78039 0.0186424 0)
(2.732 -0.0755398 0)
(2.65258 -0.235198 0)
(2.57758 -0.410369 0)
(2.4458 -0.635311 0)
(2.43543 -0.639106 0)
(2.4269 -0.64115 0)
(2.40909 -0.657654 0)
(2.3985 -0.675787 0)
(2.38965 -0.686792 0)
(2.38297 -0.690095 0)
(2.38014 -0.690612 0)
(2.37986 -0.689671 0)
(2.38101 -0.688802 0)
(2.38349 -0.688023 0)
(2.38514 -0.687204 0)
(2.38639 -0.687142 0)
(2.3872 -0.687849 0)
(2.38886 -0.688213 0)
(2.39136 -0.687713 0)
(2.39435 -0.686295 0)
(2.39658 -0.685388 0)
(2.3985 -0.685268 0)
(2.40049 -0.685167 0)
(2.40156 -0.684945 0)
(2.40258 -0.683563 0)
(2.40535 -0.682116 0)
(2.40754 -0.680681 0)
(2.40952 -0.678929 0)
(2.41166 -0.677261 0)
(2.41376 -0.676202 0)
(2.41554 -0.675735 0)
(2.41684 -0.675531 0)
(2.41698 -0.675703 0)
(2.41789 -0.674824 0)
(2.4202 -0.673637 0)
(2.42301 -0.672644 0)
(2.42582 -0.671131 0)
(2.42882 -0.66854 0)
(2.43091 -0.665327 0)
(2.43255 -0.664263 0)
(2.4345 -0.66454 0)
(2.43609 -0.664582 0)
(2.43604 -0.663829 0)
(2.43545 -0.662302 0)
(2.43545 -0.660714 0)
(2.43568 -0.659646 0)
(2.43545 -0.657697 0)
(2.43466 -0.653862 0)
(2.43447 -0.648656 0)
(2.4368 -0.643346 0)
(2.44161 -0.640183 0)
(2.44373 -0.63963 0)
(2.44468 -0.639305 0)
(2.44694 -0.637181 0)
(2.44903 -0.634108 0)
(2.45033 -0.633271 0)
(2.45048 -0.635432 0)
(2.45205 -0.637054 0)
(2.45599 -0.636239 0)
(2.46112 -0.633656 0)
(2.4664 -0.628674 0)
(2.47059 -0.623672 0)
(2.47414 -0.620903 0)
(2.47765 -0.619339 0)
(2.48087 -0.618619 0)
(2.48357 -0.619574 0)
(2.48541 -0.62196 0)
(2.48574 -0.624081 0)
(2.48716 -0.625628 0)
(2.48858 -0.626084 0)
(2.4905 -0.625452 0)
(2.49335 -0.624083 0)
(2.49822 -0.622413 0)
(2.50518 -0.620028 0)
(2.51178 -0.618871 0)
(2.51638 -0.620413 0)
(2.5213 -0.622683 0)
(2.52487 -0.62499 0)
(2.52776 -0.627411 0)
(2.52983 -0.628245 0)
(2.532 -0.627043 0)
(2.53407 -0.624485 0)
(2.53596 -0.620964 0)
(2.53766 -0.617194 0)
(2.5403 -0.613719 0)
(2.54215 -0.611806 0)
(2.54459 -0.611875 0)
(2.5478 -0.613542 0)
(2.55142 -0.616441 0)
(2.55448 -0.619313 0)
(2.55655 -0.622095 0)
(2.55875 -0.625032 0)
(2.56116 -0.626853 0)
(2.56429 -0.628512 0)
(2.5676 -0.62981 0)
(2.56943 -0.630545 0)
(2.5722 -0.63017 0)
(2.57411 -0.625754 0)
(2.57663 -0.617739 0)
(2.58002 -0.611195 0)
(2.58424 -0.604405 0)
(2.59078 -0.595341 0)
(2.59819 -0.590041 0)
(2.60275 -0.590276 0)
(2.60493 -0.592634 0)
(2.60608 -0.595827 0)
(2.60764 -0.599807 0)
(2.60828 -0.604954 0)
(2.60538 -0.611914 0)
(2.60031 -0.617088 0)
(2.60041 -0.617221 0)
(2.60389 -0.615731 0)
(2.60755 -0.614466 0)
(2.61129 -0.61392 0)
(2.61458 -0.613684 0)
(2.61889 -0.612506 0)
(2.62475 -0.609687 0)
(2.6273 -0.608727 0)
(2.63008 -0.609025 0)
(2.63315 -0.609623 0)
(2.63587 -0.610806 0)
(2.63829 -0.612749 0)
(2.64032 -0.614597 0)
(2.6415 -0.614541 0)
(2.64223 -0.611479 0)
(2.64334 -0.606297 0)
(2.64459 -0.600984 0)
(2.69246 0.148483 0)
(2.69495 0.148674 0)
(2.7009 0.149846 0)
(2.70977 0.152995 0)
(2.71548 0.154449 0)
(2.71903 0.153493 0)
(2.72269 0.151012 0)
(2.72472 0.147417 0)
(2.72329 0.139721 0)
(2.71613 0.127713 0)
(2.7108 0.117756 0)
(2.71232 0.11477 0)
(2.71543 0.114534 0)
(2.72096 0.113421 0)
(2.72599 0.112157 0)
(2.7298 0.111118 0)
(2.7332 0.110069 0)
(2.73564 0.108555 0)
(2.73522 0.105021 0)
(2.7295 0.0972049 0)
(2.72528 0.0906367 0)
(2.72696 0.08988 0)
(2.72902 0.0898003 0)
(2.73258 0.0905242 0)
(2.7387 0.0923577 0)
(2.74346 0.0923759 0)
(2.74628 0.0915307 0)
(2.74969 0.090742 0)
(2.7526 0.0897626 0)
(2.75509 0.0882752 0)
(2.7557 0.0859541 0)
(2.75195 0.0793593 0)
(2.7473 0.0702032 0)
(2.74941 0.0675553 0)
(2.7515 0.0672335 0)
(2.75336 0.0663125 0)
(2.75593 0.0650511 0)
(2.7588 0.0632456 0)
(2.76117 0.0623128 0)
(2.76202 0.0623068 0)
(2.76229 0.0623648 0)
(2.76282 0.0624012 0)
(2.76332 0.0618785 0)
(2.76416 0.0604023 0)
(2.76632 0.0587621 0)
(2.76902 0.0574769 0)
(2.77171 0.0563172 0)
(2.77392 0.0547604 0)
(2.7743 0.0517118 0)
(2.7718 0.0463082 0)
(2.77138 0.0428666 0)
(2.77348 0.0426615 0)
(2.77584 0.0424062 0)
(2.7791 0.0423952 0)
(2.78288 0.0432262 0)
(2.78566 0.0441885 0)
(2.78819 0.0446137 0)
(2.79117 0.0446556 0)
(2.79244 0.0445014 0)
(2.79408 0.0441623 0)
(2.79637 0.0430269 0)
(2.79847 0.0417029 0)
(2.79959 0.0401935 0)
(2.79813 0.0370504 0)
(2.79845 0.0347259 0)
(2.80029 0.0347573 0)
(2.80171 0.0345829 0)
(2.80329 0.0335049 0)
(2.80533 0.032344 0)
(2.80813 0.0323357 0)
(2.81199 0.0343495 0)
(2.81558 0.0360761 0)
(2.81703 0.036032 0)
(2.8199 0.0344044 0)
(2.82241 0.0315479 0)
(2.82356 0.0286065 0)
(2.821 0.0241705 0)
(2.81537 0.0136003 0)
(2.81205 0.00521108 0)
(2.81253 0.003423 0)
(2.8132 0.00330173 0)
(2.81463 0.00233897 0)