/*--------------------------------*- C++ -*----------------------------------*\
  =========                 |
  \\      /  F ield         | OpenFOAM: The Open Source CFD Toolbox
   \\    /   O peration     | Website:  https://openfoam.org
    \\  /    A nd           | Version:  7
     \\/     M anipulation  |
\*---------------------------------------------------------------------------*/
FoamFile
{
    version     2.0;
    format      ascii;
    class       volVectorField;
    location    "2.3";
    object      U;
}
// * * * * * * * * * * * * * * * * * * * * * * * * * * * * * * * * * * * * * //

dimensions      [0 1 -1 0 0 0 0];

internalField   nonuniform List<vector> 
16192
(
(1.09968 -0.00973495 0)
(1.11765 -0.0126 0)
(1.13905 -0.0163393 0)
(1.16332 -0.0202704 0)
(1.18916 -0.0234914 0)
(1.21501 -0.0252068 0)
(1.24016 -0.0253176 0)
(1.26422 -0.0240595 0)
(1.28625 -0.0219479 0)
(1.30599 -0.0192165 0)
(1.32484 -0.016444 0)
(1.34464 -0.0143033 0)
(1.36674 -0.0130452 0)
(1.39103 -0.012357 0)
(1.41118 -0.0116332 0)
(1.42183 -0.0102948 0)
(1.42956 -0.00879573 0)
(1.43735 -0.00745564 0)
(1.44628 -0.00649267 0)
(1.45669 -0.00633176 0)
(1.46451 -0.00647552 0)
(1.46999 -0.00642797 0)
(1.47468 -0.00591816 0)
(1.47814 -0.00488881 0)
(1.48176 -0.00362229 0)
(1.48601 -0.00305904 0)
(1.49173 -0.0027439 0)
(1.50243 -0.00290213 0)
(1.51583 -0.00345977 0)
(1.52253 -0.00365631 0)
(1.52691 -0.00363096 0)
(1.53067 -0.00339349 0)
(1.53101 -0.00259174 0)
(1.52605 -0.000975806 0)
(1.52217 0.000782543 0)
(1.5228 0.00156856 0)
(1.52505 0.00177688 0)
(1.52771 0.00174905 0)
(1.53038 0.0017749 0)
(1.53295 0.00197021 0)
(1.53486 0.00235839 0)
(1.53543 0.00283159 0)
(1.53453 0.00347571 0)
(1.53265 0.00450621 0)
(1.5311 0.00562745 0)
(1.53101 0.00650343 0)
(1.53274 0.00673102 0)
(1.53629 0.0062244 0)
(1.54106 0.00533634 0)
(1.54636 0.0040386 0)
(1.55117 0.00232244 0)
(1.55337 -0.000112381 0)
(1.54915 -0.00160657 0)
(1.53395 -0.000263145 0)
(1.52258 0.00122664 0)
(1.52398 0.00164119 0)
(1.52697 0.00202861 0)
(1.53164 0.00254754 0)
(1.5368 0.00310481 0)
(1.53847 0.00370311 0)
(1.53424 0.00421996 0)
(1.52723 0.0041706 0)
(1.51885 0.00400038 0)
(1.51034 0.00426479 0)
(1.50528 0.00460288 0)
(1.50878 0.00355078 0)
(1.51714 0.000318292 0)
(1.51792 -0.00112104 0)
(1.51467 -0.000856469 0)
(1.50828 0.000905986 0)
(1.49709 0.00436145 0)
(1.48293 0.0075811 0)
(1.46954 0.00955554 0)
(1.45976 0.0105644 0)
(1.45147 0.0110774 0)
(1.44353 0.0110138 0)
(1.43602 0.0106635 0)
(1.42857 0.00974184 0)
(1.42037 0.00831777 0)
(1.4106 0.00627599 0)
(1.4039 0.0032633 0)
(1.40215 0.000649397 0)
(1.40457 -0.00470026 0)
(1.41519 -0.011144 0)
(1.43672 -0.0174678 0)
(1.46772 -0.0222941 0)
(1.50584 -0.0238715 0)
(1.54599 -0.0207171 0)
(1.58528 -0.0152346 0)
(1.62515 -0.0137442 0)
(1.66008 -0.0139267 0)
(1.67703 -0.013672 0)
(1.68729 -0.0132227 0)
(1.69436 -0.0117864 0)
(1.70141 -0.0097112 0)
(1.70983 -0.00763057 0)
(1.71827 -0.00538853 0)
(1.72656 -0.00288655 0)
(1.73493 -0.000410074 0)
(1.74668 0.00147343 0)
(1.76341 0.00225936 0)
(1.7795 0.00186779 0)
(1.78954 0.000606997 0)
(1.79494 -0.00146193 0)
(1.7982 -0.00308283 0)
(1.80086 -0.00416088 0)
(1.8001 -0.00446186 0)
(1.79131 -0.00347389 0)
(1.78389 -0.00214654 0)
(1.78459 -0.000765371 0)
(1.78724 0.000198581 0)
(1.79003 0.000854161 0)
(1.79511 0.00130979 0)
(1.8067 0.0011214 0)
(1.82457 0.00033365 0)
(1.83609 -0.000259301 0)
(1.83954 -0.000354585 0)
(1.84246 -0.000312089 0)
(1.84457 -0.000185281 0)
(1.84445 2.62856e-05 0)
(1.84029 0.000477869 0)
(1.83646 0.000940624 0)
(1.83793 0.00100716 0)
(1.84044 0.000731408 0)
(1.84368 -0.000245934 0)
(1.84834 -0.0016514 0)
(1.8551 -0.00241682 0)
(1.86175 -0.00292437 0)
(1.86589 -0.00259784 0)
(1.8693 -0.00124209 0)
(1.87137 0.000354787 0)
(1.872 0.00189408 0)
(1.87134 0.00297936 0)
(1.87016 0.00336341 0)
(1.86972 0.00306292 0)
(1.87109 0.00282621 0)
(1.87274 0.00219154 0)
(1.87517 0.000394639 0)
(1.87873 -0.00149202 0)
(1.88291 -0.00275727 0)
(1.88689 -0.00283051 0)
(1.89034 -0.00135179 0)
(1.89339 0.000703242 0)
(1.89749 0.00241991 0)
(1.90182 0.00369811 0)
(1.90387 0.0039057 0)
(1.90555 0.0040397 0)
(1.90645 0.00415191 0)
(1.90655 0.00402183 0)
(1.9057 0.00330141 0)
(1.90432 0.00163686 0)
(1.90452 -0.0006754 0)
(1.90684 -0.00274103 0)
(1.90982 -0.00406199 0)
(1.91285 -0.00448377 0)
(1.91379 -0.00424248 0)
(1.91228 -0.003342 0)
(1.91102 -0.00144376 0)
(1.91074 0.000768131 0)
(1.91085 0.00220608 0)
(1.91164 0.0026655 0)
(1.9128 0.00298038 0)
(1.91336 0.00347418 0)
(1.91274 0.00368493 0)
(1.91177 0.00346293 0)
(1.9122 0.00339871 0)
(1.91452 0.00341119 0)
(1.91846 0.00311407 0)
(1.92382 0.00237631 0)
(1.92994 0.00115034 0)
(1.93441 -0.000743679 0)
(1.93247 -0.000928479 0)
(1.92526 0.000937577 0)
(1.92209 0.0027618 0)
(1.923 0.00339737 0)
(1.92423 0.00348913 0)
(1.92647 0.00335447 0)
(1.93011 0.00289582 0)
(1.9337 0.00202232 0)
(1.93506 0.00103151 0)
(1.9353 -0.000942705 0)
(1.93658 -0.00269153 0)
(1.93898 -0.00370839 0)
(1.94267 -0.0044753 0)
(1.94605 -0.00410688 0)
(1.94814 -0.00181284 0)
(1.949 0.00242075 0)
(1.95038 0.0059246 0)
(1.95671 0.00725319 0)
(1.96548 0.00781693 0)
(1.95699 0.00825078 0)
(1.9451 0.00902421 0)
(1.93198 0.0106053 0)
(1.9157 0.0105855 0)
(1.89398 0.00906637 0)
(1.86546 0.00873011 0)
(1.84677 0.00871062 0)
(1.84263 0.00820076 0)
(1.8406 0.00715441 0)
(1.84265 0.00433128 0)
(1.85099 0.000334774 0)
(1.86607 -0.00337722 0)
(1.8861 -0.00760749 0)
(1.90768 -0.0107513 0)
(1.92932 -0.0126112 0)
(1.95148 -0.0134328 0)
(1.97351 -0.013922 0)
(1.99404 -0.0131418 0)
(2.01106 -0.0105196 0)
(2.02527 -0.00712823 0)
(2.03724 -0.00437418 0)
(2.04881 -0.00287445 0)
(2.05914 -0.00217029 0)
(2.06683 -0.00196079 0)
(2.07188 -0.00177107 0)
(2.07697 -0.00133443 0)
(2.08608 -0.000349306 0)
(2.1022 0.000538609 0)
(2.11851 0.00044843 0)
(2.12392 -0.00022636 0)
(2.12731 -0.00110302 0)
(2.13032 -0.00281893 0)
(2.13196 -0.00450719 0)
(2.12985 -0.00530906 0)
(2.12637 -0.00500649 0)
(2.12653 -0.00377595 0)
(2.13011 -0.00209485 0)
(2.13441 -0.000108217 0)
(2.13836 0.00156419 0)
(2.14334 0.00280283 0)
(2.14945 0.00344253 0)
(2.1519 0.00351575 0)
(2.15462 0.00355756 0)
(2.15692 0.00350843 0)
(2.15902 0.00332624 0)
(2.16085 0.00300702 0)
(2.16214 0.00219557 0)
(2.16416 0.00182142 0)
(2.16662 0.00169372 0)
(2.16985 0.00160743 0)
(2.17363 0.00140866 0)
(2.17652 0.00110184 0)
(2.17958 0.000765265 0)
(2.18269 0.000210628 0)
(2.18568 -0.000502866 0)
(2.18752 -0.00128283 0)
(2.18682 -0.00184043 0)
(2.18357 -0.00114797 0)
(2.17963 0.000717556 0)
(2.17858 0.00323911 0)
(2.1793 0.00487169 0)
(2.18041 0.0055419 0)
(2.18217 0.00552254 0)
(1.13164 -0.0137256 0)
(1.15171 -0.017566 0)
(1.17616 -0.0232618 0)
(1.20368 -0.0293995 0)
(1.23202 -0.0341395 0)
(1.2585 -0.036333 0)
(1.28144 -0.0370793 0)
(1.30166 -0.0363155 0)
(1.32029 -0.0334695 0)
(1.33755 -0.0279644 0)
(1.35354 -0.0205947 0)
(1.3698 -0.014261 0)
(1.38748 -0.01195 0)
(1.40798 -0.0145646 0)
(1.42866 -0.0192568 0)
(1.44235 -0.0200461 0)
(1.45026 -0.0175728 0)
(1.45749 -0.0124409 0)
(1.46523 -0.00670547 0)
(1.47177 -0.00356104 0)
(1.47693 -0.00353538 0)
(1.48142 -0.00488739 0)
(1.48539 -0.00649881 0)
(1.48915 -0.0065527 0)
(1.49265 -0.00421925 0)
(1.49686 -0.00127424 0)
(1.50233 0.000665715 0)
(1.51072 0.000518497 0)
(1.52309 -0.00271063 0)
(1.53145 -0.00608033 0)
(1.53569 -0.00776057 0)
(1.53913 -0.00897673 0)
(1.54041 -0.00863434 0)
(1.53696 -0.00452679 0)
(1.53073 0.00093037 0)
(1.5286 0.00257552 0)
(1.53017 0.00206639 0)
(1.53305 0.00107048 0)
(1.53608 -0.000328251 0)
(1.5392 -0.00126648 0)
(1.5423 -0.00189664 0)
(1.54468 -0.00203257 0)
(1.54574 -0.000861326 0)
(1.54526 0.00258026 0)
(1.54389 0.00769918 0)
(1.54309 0.0129234 0)
(1.54388 0.0170443 0)
(1.54616 0.0194711 0)
(1.54906 0.0205709 0)
(1.5518 0.0195273 0)
(1.55353 0.0155681 0)
(1.55268 0.00949959 0)
(1.54654 0.00171445 0)
(1.53509 -0.00500774 0)
(1.52893 -0.00463433 0)
(1.53137 -0.00401464 0)
(1.53408 -0.00251768 0)
(1.53751 -0.000418281 0)
(1.5411 0.00112886 0)
(1.54306 0.002388 0)
(1.54049 0.00494426 0)
(1.53396 0.00825544 0)
(1.52502 0.0111779 0)
(1.51558 0.0141983 0)
(1.5093 0.0171056 0)
(1.50905 0.0166934 0)
(1.51336 0.010505 0)
(1.51713 0.00159165 0)
(1.51568 -0.00310527 0)
(1.51158 -0.00404176 0)
(1.50523 -0.00211545 0)
(1.49586 0.00536889 0)
(1.48423 0.0164302 0)
(1.47297 0.0252964 0)
(1.46478 0.0293387 0)
(1.45848 0.0303749 0)
(1.45261 0.029281 0)
(1.4462 0.0254797 0)
(1.43844 0.0204884 0)
(1.4287 0.0150579 0)
(1.42088 0.00823462 0)
(1.42033 0.00203205 0)
(1.42666 -0.00890689 0)
(1.4425 -0.0262735 0)
(1.46848 -0.0436531 0)
(1.50131 -0.0556279 0)
(1.53747 -0.0616802 0)
(1.57417 -0.059022 0)
(1.60492 -0.0438415 0)
(1.63107 -0.0291032 0)
(1.65577 -0.0278421 0)
(1.67988 -0.0326978 0)
(1.69572 -0.0325252 0)
(1.70496 -0.030791 0)
(1.71237 -0.0262825 0)
(1.71956 -0.0218959 0)
(1.72676 -0.0172851 0)
(1.73441 -0.0118863 0)
(1.74323 -0.00602402 0)
(1.75483 0.000196568 0)
(1.76967 0.0056971 0)
(1.78295 0.00744231 0)
(1.79119 0.00555766 0)
(1.79563 0.00304368 0)
(1.79883 0.000258913 0)
(1.80066 -0.0032807 0)
(1.79861 -0.00833592 0)
(1.79246 -0.0119997 0)
(1.78819 -0.0105662 0)
(1.78886 -0.00771441 0)
(1.79139 -0.00501013 0)
(1.79467 -0.0020361 0)
(1.79965 0.000968841 0)
(1.80945 0.00276515 0)
(1.82487 0.00129696 0)
(1.83732 -0.00116096 0)
(1.84192 -0.00205072 0)
(1.84509 -0.00224717 0)
(1.84809 -0.00248003 0)
(1.84951 -0.00231554 0)
(1.84658 -0.000290214 0)
(1.84039 0.00315352 0)
(1.83902 0.00428435 0)
(1.84139 0.00389222 0)
(1.84436 0.00289833 0)
(1.84829 0.00129769 0)
(1.85332 -0.000919581 0)
(1.86048 -0.00559289 0)
(1.86845 -0.00876403 0)
(1.87245 -0.0083121 0)
(1.87569 -0.00620542 0)
(1.87784 -0.00259465 0)
(1.87829 0.00193824 0)
(1.87675 0.00663236 0)
(1.87412 0.00971877 0)
(1.87243 0.00982105 0)
(1.87297 0.00771567 0)
(1.87521 0.00527283 0)
(1.87784 0.00243058 0)
(1.88108 -0.00148734 0)
(1.88594 -0.00640292 0)
(1.8915 -0.00855184 0)
(1.89784 -0.00620964 0)
(1.90412 -0.000561898 0)
(1.90712 0.00348395 0)
(1.90954 0.00653513 0)
(1.91076 0.0094087 0)
(1.91083 0.0115864 0)
(1.91 0.0123345 0)
(1.9082 0.0113881 0)
(1.90535 0.00862799 0)
(1.9045 0.00498547 0)
(1.90644 0.00159757 0)
(1.90939 -0.0029215 0)
(1.91221 -0.00871336 0)
(1.91472 -0.0125451 0)
(1.91695 -0.0130563 0)
(1.91814 -0.010869 0)
(1.91826 -0.00601771 0)
(1.91758 0.000511932 0)
(1.91641 0.00596203 0)
(1.9157 0.00876501 0)
(1.91583 0.00997984 0)
(1.9159 0.0106591 0)
(1.91551 0.0109019 0)
(1.91562 0.0113301 0)
(1.91729 0.0118906 0)
(1.92055 0.0117176 0)
(1.92493 0.00998847 0)
(1.92925 0.00794396 0)
(1.93133 0.00314553 0)
(1.93063 -0.00375769 0)
(1.92777 -0.0051886 0)
(1.92702 -0.00178661 0)
(1.92755 0.00226126 0)
(1.92884 0.00562226 0)
(1.93067 0.00787079 0)
(1.93329 0.00888409 0)
(1.93564 0.00772534 0)
(1.9363 0.00552786 0)
(1.93578 0.0023183 0)
(1.93593 -0.00109314 0)
(1.93728 -0.00406749 0)
(1.94039 -0.00789226 0)
(1.9451 -0.010919 0)
(1.94857 -0.0090679 0)
(1.95101 -0.00139359 0)
(1.95366 0.00921919 0)
(1.95969 0.0187666 0)
(1.96665 0.0242646 0)
(1.95804 0.0253522 0)
(1.94713 0.0256058 0)
(1.93647 0.0249892 0)
(1.92364 0.0218152 0)
(1.9058 0.0159325 0)
(1.88086 0.0129914 0)
(1.8595 0.0139001 0)
(1.85358 0.0132551 0)
(1.85093 0.0113959 0)
(1.85174 0.00690985 0)
(1.85849 8.50121e-05 0)
(1.87132 -0.00827575 0)
(1.88788 -0.0152189 0)
(1.90611 -0.0207059 0)
(1.92492 -0.0244999 0)
(1.94435 -0.0266158 0)
(1.96511 -0.0286231 0)
(1.98508 -0.0306187 0)
(2.00339 -0.0304064 0)
(2.02069 -0.0262399 0)
(2.03667 -0.0185005 0)
(2.04951 -0.0105027 0)
(2.05944 -0.00519916 0)
(2.06658 -0.00298974 0)
(2.0721 -0.00240727 0)
(2.07873 -0.00177399 0)
(2.08987 -4.5966e-05 0)
(2.10606 0.00259859 0)
(2.12004 0.00325988 0)
(2.12446 0.00255683 0)
(2.1282 0.00187715 0)
(2.13069 0.00113028 0)
(2.13024 -0.00125604 0)
(2.12621 -0.00628605 0)
(2.12394 -0.0106449 0)
(2.12737 -0.0116866 0)
(2.13131 -0.0109103 0)
(2.13607 -0.00886762 0)
(2.14183 -0.00496421 0)
(2.14805 0.00175158 0)
(2.15118 0.00598315 0)
(2.15387 0.0077209 0)
(2.15593 0.00867733 0)
(2.15751 0.00909332 0)
(2.15842 0.00882797 0)
(2.15875 0.00743543 0)
(2.1604 0.00638772 0)
(2.16274 0.00606497 0)
(2.16575 0.00576106 0)
(2.16956 0.00535059 0)
(2.17273 0.00475214 0)
(2.17583 0.00459705 0)
(2.17889 0.00431428 0)
(2.18167 0.00355288 0)
(2.18399 0.00230734 0)
(2.18504 0.000108637 0)
(2.1841 -0.00362679 0)
(2.18231 -0.00733041 0)
(2.18148 -0.00720971 0)
(2.18233 -0.00434641 0)
(2.18321 0.000176584 0)
(2.18448 0.00657111 0)
(2.18463 0.0119836 0)
(1.21586 -0.0385362 0)
(1.23502 -0.0461736 0)
(1.25785 -0.0561155 0)
(1.28338 -0.0664954 0)
(1.30969 -0.0745906 0)
(1.3342 -0.0776843 0)
(1.35367 -0.0743036 0)
(1.36801 -0.0669865 0)
(1.38069 -0.0592989 0)
(1.39419 -0.0529428 0)
(1.40915 -0.0471691 0)
(1.4245 -0.0404002 0)
(1.43923 -0.0329426 0)
(1.4538 -0.0271447 0)
(1.46764 -0.0255623 0)
(1.47953 -0.0273477 0)
(1.48832 -0.0284615 0)
(1.49582 -0.0277484 0)
(1.50254 -0.0258685 0)
(1.50822 -0.0230681 0)
(1.51201 -0.0189165 0)
(1.51338 -0.0145792 0)
(1.5138 -0.011517 0)
(1.51623 -0.0105442 0)
(1.52018 -0.0102756 0)
(1.52484 -0.00878953 0)
(1.53071 -0.00618785 0)
(1.53822 -0.00332678 0)
(1.54746 -0.0015211 0)
(1.55299 -0.00202163 0)
(1.55647 -0.00297514 0)
(1.55904 -0.00418982 0)
(1.5604 -0.00466528 0)
(1.55945 -0.00326341 0)
(1.5553 0.00155983 0)
(1.55067 0.00773221 0)
(1.54942 0.0110421 0)
(1.55142 0.011506 0)
(1.55464 0.0106927 0)
(1.55838 0.00861921 0)
(1.56189 0.00609408 0)
(1.56489 0.00305515 0)
(1.56694 0.000634407 0)
(1.5676 0.000433187 0)
(1.56685 0.00269403 0)
(1.56602 0.00629123 0)
(1.56662 0.00951511 0)
(1.56884 0.0115174 0)
(1.57174 0.0134147 0)
(1.57361 0.0157777 0)
(1.57179 0.0183954 0)
(1.56424 0.0193989 0)
(1.55166 0.0165633 0)
(1.54258 0.0111895 0)
(1.54488 0.00790383 0)
(1.54852 0.00700205 0)
(1.55173 0.00661173 0)
(1.55326 0.00802041 0)
(1.55436 0.00958424 0)
(1.55529 0.0100026 0)
(1.55513 0.0111388 0)
(1.55079 0.0145624 0)
(1.54215 0.0197219 0)
(1.53303 0.0240164 0)
(1.52599 0.0264046 0)
(1.52247 0.0269979 0)
(1.5219 0.0234048 0)
(1.52232 0.0163672 0)
(1.52381 0.00963591 0)
(1.52499 0.00718271 0)
(1.52288 0.00834437 0)
(1.51844 0.0108195 0)
(1.51152 0.0169455 0)
(1.50226 0.0268376 0)
(1.49403 0.0363223 0)
(1.48852 0.0417048 0)
(1.48409 0.0432726 0)
(1.48065 0.0422769 0)
(1.47779 0.0373848 0)
(1.47343 0.02896 0)
(1.46986 0.0169453 0)
(1.47257 0.00220383 0)
(1.48343 -0.0198247 0)
(1.50357 -0.0478438 0)
(1.53173 -0.072995 0)
(1.56392 -0.0880247 0)
(1.59521 -0.0929937 0)
(1.6227 -0.0884546 0)
(1.6468 -0.0763119 0)
(1.66642 -0.0615515 0)
(1.68486 -0.0531241 0)
(1.70504 -0.0484408 0)
(1.72181 -0.0422563 0)
(1.72874 -0.0360946 0)
(1.7339 -0.0289028 0)
(1.73929 -0.0241145 0)
(1.74519 -0.0214611 0)
(1.75185 -0.0186674 0)
(1.76014 -0.014879 0)
(1.77275 -0.00873092 0)
(1.78724 -0.00011333 0)
(1.79513 0.00492807 0)
(1.79994 0.00599475 0)
(1.80371 0.00553469 0)
(1.80578 0.00291574 0)
(1.80586 -0.00156934 0)
(1.80377 -0.00593671 0)
(1.80143 -0.00773984 0)
(1.80016 -0.00691854 0)
(1.80108 -0.00555991 0)
(1.80367 -0.00420238 0)
(1.80678 -0.0020091 0)
(1.81133 0.000931131 0)
(1.81939 0.00367704 0)
(1.83119 0.00365226 0)
(1.84276 0.00036252 0)
(1.84874 -0.0027168 0)
(1.85172 -0.00448232 0)
(1.85442 -0.00568097 0)
(1.8565 -0.00643426 0)
(1.85616 -0.00568657 0)
(1.85208 -0.00203361 0)
(1.84769 0.00238103 0)
(1.84708 0.00439383 0)
(1.84922 0.00456656 0)
(1.85226 0.00415441 0)
(1.85573 0.0024117 0)
(1.86205 -0.000262938 0)
(1.87211 -0.00420999 0)
(1.88038 -0.00627489 0)
(1.88404 -0.00586821 0)
(1.88682 -0.00462439 0)
(1.8891 -0.00171517 0)
(1.88956 0.00317618 0)
(1.88636 0.0089819 0)
(1.88015 0.0123646 0)
(1.87682 0.0115338 0)
(1.87791 0.00909739 0)
(1.88009 0.00632691 0)
(1.8829 0.00296343 0)
(1.88708 -0.000383576 0)
(1.89537 -0.00396374 0)
(1.90702 -0.00408298 0)
(1.91478 -0.00109472 0)
(1.91749 0.00116878 0)
(1.92022 0.00414212 0)
(1.92181 0.00798204 0)
(1.92116 0.0120412 0)
(1.91742 0.0141474 0)
(1.91131 0.0127069 0)
(1.90681 0.00952681 0)
(1.90656 0.00654512 0)
(1.90852 0.0036127 0)
(1.91135 -2.92343e-05 0)
(1.9148 -0.00443028 0)
(1.91995 -0.00943765 0)
(1.92321 -0.0124352 0)
(1.92607 -0.0133202 0)
(1.92846 -0.0117712 0)
(1.92938 -0.00625021 0)
(1.92818 0.00188113 0)
(1.92515 0.00949374 0)
(1.92258 0.0138774 0)
(1.92209 0.0151614 0)
(1.92281 0.0147661 0)
(1.92403 0.0142118 0)
(1.92601 0.0140851 0)
(1.92862 0.0143044 0)
(1.93098 0.0141707 0)
(1.9319 0.0146611 0)
(1.93059 0.0117867 0)
(1.93044 0.0065868 0)
(1.93276 0.00387247 0)
(1.93538 0.00225011 0)
(1.93652 0.0030958 0)
(1.93761 0.00621207 0)
(1.93914 0.00845848 0)
(1.94074 0.00875803 0)
(1.94195 0.00786448 0)
(1.94198 0.00497061 0)
(1.94035 0.000290852 0)
(1.93973 -0.00363662 0)
(1.94069 -0.00644595 0)
(1.94312 -0.00890416 0)
(1.94652 -0.00832553 0)
(1.95064 -0.00317669 0)
(1.95535 0.00557014 0)
(1.96104 0.0161257 0)
(1.96981 0.0272502 0)
(1.97418 0.0376759 0)
(1.96505 0.0405036 0)
(1.95423 0.0423276 0)
(1.9415 0.0428596 0)
(1.92682 0.0399647 0)
(1.91091 0.0349075 0)
(1.89607 0.0296219 0)
(1.88305 0.0246939 0)
(1.87834 0.0214046 0)
(1.87532 0.0160976 0)
(1.87543 0.00614219 0)
(1.88079 -0.0060467 0)
(1.89159 -0.0179027 0)
(1.90704 -0.0285721 0)
(1.92504 -0.0373571 0)
(1.94337 -0.0441697 0)
(1.9608 -0.0482844 0)
(1.97693 -0.0498409 0)
(1.99354 -0.0501004 0)
(2.01173 -0.049113 0)
(2.03206 -0.0457401 0)
(2.05137 -0.0374903 0)
(2.06323 -0.0258621 0)
(2.0697 -0.01703 0)
(2.07464 -0.0108341 0)
(2.07933 -0.00674118 0)
(2.08547 -0.00358878 0)
(2.09739 0.00102641 0)
(2.11261 0.00513769 0)
(2.12219 0.00496261 0)
(2.12549 0.00335572 0)
(2.12905 0.000936047 0)
(2.13112 -0.0021213 0)
(2.12861 -0.00657826 0)
(2.12431 -0.010706 0)
(2.12636 -0.0114546 0)
(2.13012 -0.0109385 0)
(2.13442 -0.0101044 0)
(2.14052 -0.00777915 0)
(2.14876 -0.00214226 0)
(2.15322 0.00249484 0)
(2.15612 0.00563282 0)
(2.15823 0.00953043 0)
(2.15868 0.0125902 0)
(2.1584 0.0133806 0)
(2.15807 0.0124126 0)
(2.15893 0.0110975 0)
(2.16128 0.0104626 0)
(2.16381 0.00995544 0)
(2.167 0.00932432 0)
(2.17003 0.00868455 0)
(2.17273 0.00814305 0)
(2.17542 0.00766627 0)
(2.17805 0.00744101 0)
(2.18036 0.00705639 0)
(2.18186 0.00565724 0)
(2.18209 0.00261242 0)
(2.18099 -0.000913125 0)
(2.18196 -0.00308029 0)
(2.18461 -0.0033837 0)
(2.18744 -0.0012445 0)
(2.18911 0.00317264 0)
(2.19024 0.0097169 0)
(2.18979 0.0156453 0)
(1.34888 -0.0361971 0)
(1.36515 -0.0446768 0)
(1.38266 -0.0559294 0)
(1.40123 -0.0677 0)
(1.41974 -0.0770701 0)
(1.43677 -0.0814204 0)
(1.45026 -0.0793044 0)
(1.45863 -0.0719937 0)
(1.46482 -0.0621878 0)
(1.47232 -0.0526244 0)
(1.48222 -0.0455321 0)
(1.49401 -0.0401398 0)
(1.50634 -0.0353486 0)
(1.51787 -0.030483 0)
(1.52797 -0.0254042 0)
(1.53623 -0.0218738 0)
(1.54257 -0.0212903 0)
(1.54803 -0.0222451 0)
(1.55295 -0.0236671 0)
(1.55729 -0.0244028 0)
(1.56052 -0.023748 0)
(1.56165 -0.020782 0)
(1.56116 -0.0158042 0)
(1.56157 -0.0108903 0)
(1.56454 -0.00820131 0)
(1.56861 -0.00694042 0)
(1.57359 -0.00565318 0)
(1.58043 -0.00508612 0)
(1.58742 -0.00562433 0)
(1.59076 -0.0066311 0)
(1.59346 -0.00761595 0)
(1.59523 -0.00808813 0)
(1.59596 -0.00789242 0)
(1.59524 -0.00692251 0)
(1.59235 -0.00440196 0)
(1.5888 0.000302384 0)
(1.58737 0.00579022 0)
(1.58884 0.010457 0)
(1.5916 0.014025 0)
(1.59439 0.0164627 0)
(1.59712 0.0176049 0)
(1.59985 0.0173959 0)
(1.60209 0.016323 0)
(1.60338 0.015253 0)
(1.60352 0.014452 0)
(1.6031 0.0137336 0)
(1.60316 0.0123413 0)
(1.6039 0.00947856 0)
(1.60449 0.00516663 0)
(1.60368 0.000110879 0)
(1.60014 -0.00415477 0)
(1.59346 -0.00515895 0)
(1.58548 -0.000364755 0)
(1.58045 0.00963769 0)
(1.57895 0.0174094 0)
(1.58009 0.0190081 0)
(1.58233 0.0175276 0)
(1.58345 0.0145333 0)
(1.58339 0.0135426 0)
(1.58361 0.0134118 0)
(1.58443 0.0138894 0)
(1.58362 0.0167814 0)
(1.57818 0.0213524 0)
(1.5686 0.0263087 0)
(1.55876 0.0300993 0)
(1.55122 0.0312089 0)
(1.54582 0.0307258 0)
(1.54273 0.0289698 0)
(1.54589 0.0252728 0)
(1.55273 0.0218202 0)
(1.55535 0.0212113 0)
(1.55341 0.02216 0)
(1.54986 0.0235012 0)
(1.54546 0.026474 0)
(1.54076 0.0309045 0)
(1.53883 0.0350937 0)
(1.53976 0.0376519 0)
(1.543 0.0389355 0)
(1.54901 0.0384789 0)
(1.55268 0.034836 0)
(1.55556 0.0246585 0)
(1.56246 0.00441231 0)
(1.57646 -0.0273981 0)
(1.59808 -0.0645351 0)
(1.62461 -0.0948371 0)
(1.6513 -0.112198 0)
(1.67446 -0.115433 0)
(1.69412 -0.108479 0)
(1.71158 -0.0965162 0)
(1.72402 -0.0820795 0)
(1.7331 -0.068612 0)
(1.74549 -0.0565743 0)
(1.75919 -0.0442989 0)
(1.76513 -0.0359914 0)
(1.76867 -0.0280919 0)
(1.77211 -0.0199325 0)
(1.77668 -0.0151132 0)
(1.78203 -0.0121802 0)
(1.78944 -0.00919551 0)
(1.80204 -0.0049401 0)
(1.81245 -0.00294647 0)
(1.81732 -0.00324372 0)
(1.82169 -0.00337912 0)
(1.82389 -0.00339859 0)
(1.82316 -0.00448889 0)
(1.82143 -0.00715059 0)
(1.82162 -0.00944677 0)
(1.82247 -0.00977574 0)
(1.82272 -0.00857917 0)
(1.82333 -0.00615373 0)
(1.82568 -0.00370704 0)
(1.82894 -0.000501764 0)
(1.83351 0.0033517 0)
(1.84022 0.00680253 0)
(1.84869 0.00847923 0)
(1.85737 0.00747132 0)
(1.86285 0.00468692 0)
(1.86597 0.00148382 0)
(1.86848 -0.00192381 0)
(1.87009 -0.00493069 0)
(1.87025 -0.00720919 0)
(1.86769 -0.00801032 0)
(1.86304 -0.00692691 0)
(1.86088 -0.00532016 0)
(1.86224 -0.00371772 0)
(1.865 -0.0020175 0)
(1.86853 -0.000421096 0)
(1.87401 0.000933521 0)
(1.88333 0.00119109 0)
(1.89224 0.000237753 0)
(1.8974 -0.00029891 0)
(1.90049 -0.00033068 0)
(1.9032 -0.000277217 0)
(1.90515 0.000428271 0)
(1.90263 0.00266949 0)
(1.8939 0.00543529 0)
(1.8875 0.00698532 0)
(1.88736 0.00718773 0)
(1.88951 0.0067491 0)
(1.89216 0.00625676 0)
(1.89618 0.0052868 0)
(1.90611 0.00486689 0)
(1.92053 0.0053055 0)
(1.92915 0.00541826 0)
(1.93202 0.00571825 0)
(1.93475 0.0062221 0)
(1.93704 0.00745545 0)
(1.93623 0.00959529 0)
(1.92881 0.0107338 0)
(1.91829 0.0092995 0)
(1.91368 0.00753081 0)
(1.91427 0.00642576 0)
(1.91661 0.00532465 0)
(1.91963 0.0040665 0)
(1.92335 0.00189303 0)
(1.92975 -0.00195679 0)
(1.93576 -0.00512522 0)
(1.93886 -0.00636307 0)
(1.94154 -0.00676454 0)
(1.94419 -0.0060069 0)
(1.94553 -0.00180144 0)
(1.94357 0.00568968 0)
(1.93937 0.0132268 0)
(1.93604 0.0175617 0)
(1.93535 0.0177765 0)
(1.93632 0.0153288 0)
(1.93771 0.0118861 0)
(1.9391 0.00891776 0)
(1.9405 0.00755651 0)
(1.94089 0.00790348 0)
(1.93924 0.0103852 0)
(1.94175 0.012619 0)
(1.94528 0.0134868 0)
(1.9483 0.0137019 0)
(1.9503 0.0137902 0)
(1.95125 0.0136587 0)
(1.95207 0.0124101 0)
(1.95218 0.00896651 0)
(1.95148 0.00338928 0)
(1.95025 -0.00401239 0)
(1.94979 -0.0109222 0)
(1.95106 -0.0147139 0)
(1.95297 -0.0163115 0)
(1.95477 -0.015788 0)
(1.9568 -0.0126766 0)
(1.96064 -0.00609157 0)
(1.96663 0.00349042 0)
(1.97433 0.0164068 0)
(1.98336 0.0334441 0)
(1.98443 0.0455129 0)
(1.97867 0.0499537 0)
(1.96905 0.0551441 0)
(1.95616 0.0572575 0)
(1.94381 0.0551984 0)
(1.93327 0.0509607 0)
(1.92477 0.045432 0)
(1.92015 0.0398447 0)
(1.9174 0.0353383 0)
(1.91645 0.0262503 0)
(1.91809 0.0118637 0)
(1.92396 -0.00600084 0)
(1.93511 -0.0257708 0)
(1.95019 -0.0428178 0)
(1.9659 -0.0546369 0)
(1.98061 -0.0611458 0)
(1.99402 -0.0630602 0)
(2.00662 -0.0620439 0)
(2.01981 -0.0593071 0)
(2.03466 -0.0547078 0)
(2.05268 -0.0485181 0)
(2.07263 -0.0411624 0)
(2.08446 -0.0348175 0)
(2.08815 -0.0296467 0)
(2.09059 -0.0213513 0)
(2.09336 -0.0128791 0)
(2.09844 -0.00373281 0)
(2.10827 0.00595788 0)
(2.11922 0.00967224 0)
(2.12367 0.00824816 0)
(2.12681 0.00564863 0)
(2.12921 0.00178561 0)
(2.12905 -0.00399815 0)
(2.12604 -0.0103513 0)
(2.12692 -0.0127596 0)
(2.13018 -0.0129237 0)
(2.13367 -0.012775 0)
(2.13921 -0.0112843 0)
(2.14851 -0.00632336 0)
(2.15649 -0.000309302 0)
(2.15945 0.00271213 0)
(2.16276 0.00595554 0)
(2.16465 0.00990706 0)
(2.16361 0.0138238 0)
(2.15945 0.014903 0)
(2.15764 0.0127787 0)
(2.15993 0.0117481 0)
(2.16256 0.0117288 0)
(2.16516 0.0117753 0)
(2.16797 0.0116565 0)
(2.17071 0.0114845 0)
(2.17319 0.0111905 0)
(2.17532 0.010937 0)
(2.17711 0.010741 0)
(2.17821 0.0100048 0)
(2.17822 0.0080422 0)
(2.17849 0.00469517 0)
(2.18094 0.00198325 0)
(2.18296 0.00147782 0)
(2.18626 0.00124128 0)
(2.19128 0.00363507 0)
(2.1946 0.00682221 0)
(2.19598 0.0108141 0)
(2.19724 0.015403 0)
(1.48555 -0.0609036 0)
(1.49747 -0.0704571 0)
(1.50774 -0.0813037 0)
(1.51706 -0.0911251 0)
(1.52551 -0.0969504 0)
(1.53284 -0.0979592 0)
(1.53903 -0.0950642 0)
(1.54243 -0.0887548 0)
(1.54445 -0.0795899 0)
(1.5474 -0.067268 0)
(1.55248 -0.055615 0)
(1.5594 -0.0474874 0)
(1.56787 -0.0423792 0)
(1.57838 -0.0376412 0)
(1.58881 -0.0308485 0)
(1.59491 -0.0254691 0)
(1.59874 -0.0228788 0)
(1.60162 -0.0217756 0)
(1.60418 -0.0224703 0)
(1.60691 -0.023527 0)
(1.60952 -0.023806 0)
(1.61157 -0.0227881 0)
(1.6127 -0.0198447 0)
(1.61315 -0.0154919 0)
(1.61452 -0.0113845 0)
(1.61792 -0.00885138 0)
(1.62237 -0.00754116 0)
(1.62803 -0.00602519 0)
(1.63351 -0.00444426 0)
(1.63586 -0.00405493 0)
(1.63791 -0.00357604 0)
(1.63927 -0.00283917 0)
(1.63966 -0.00212233 0)
(1.63844 -0.0015517 0)
(1.63541 -0.00110073 0)
(1.63221 9.05593e-05 0)
(1.63166 0.00325523 0)
(1.63411 0.00724782 0)
(1.63729 0.0103813 0)
(1.64038 0.0126336 0)
(1.64333 0.0143556 0)
(1.64602 0.015237 0)
(1.64811 0.015558 0)
(1.64932 0.0157406 0)
(1.64966 0.0158534 0)
(1.64957 0.0161245 0)
(1.6497 0.0169441 0)
(1.64973 0.0180094 0)
(1.64891 0.0176158 0)
(1.64661 0.0145237 0)
(1.64286 0.0095351 0)
(1.63863 0.00517868 0)
(1.63541 0.00486647 0)
(1.63335 0.00934091 0)
(1.63167 0.015895 0)
(1.63052 0.0219301 0)
(1.62979 0.0257629 0)
(1.62908 0.0267598 0)
(1.6283 0.0255158 0)
(1.62833 0.0248322 0)
(1.63078 0.0248427 0)
(1.63168 0.0249304 0)
(1.62985 0.0258276 0)
(1.62242 0.0274332 0)
(1.61152 0.027652 0)
(1.60269 0.028756 0)
(1.59687 0.0320566 0)
(1.59415 0.0357382 0)
(1.59523 0.0382869 0)
(1.59947 0.0383746 0)
(1.60269 0.0365857 0)
(1.60374 0.0347519 0)
(1.60421 0.0324408 0)
(1.60504 0.0304197 0)
(1.60726 0.0302245 0)
(1.61226 0.0310433 0)
(1.62068 0.031762 0)
(1.63245 0.031519 0)
(1.64581 0.0277853 0)
(1.65581 0.0198992 0)
(1.66515 0.00630897 0)
(1.67577 -0.0172159 0)
(1.68839 -0.0519383 0)
(1.70644 -0.0905713 0)
(1.72745 -0.117994 0)
(1.7463 -0.128961 0)
(1.7605 -0.127772 0)
(1.76996 -0.1191 0)
(1.77644 -0.106803 0)
(1.78002 -0.0917087 0)
(1.78297 -0.0739939 0)
(1.7911 -0.0571497 0)
(1.80204 -0.0439704 0)
(1.80564 -0.0383991 0)
(1.80771 -0.0334403 0)
(1.81034 -0.0269664 0)
(1.81467 -0.0220711 0)
(1.81952 -0.0183534 0)
(1.82677 -0.0143416 0)
(1.83789 -0.00993063 0)
(1.84417 -0.00808755 0)
(1.84923 -0.00720255 0)
(1.85271 -0.00596064 0)
(1.8537 -0.00466523 0)
(1.85147 -0.00350482 0)
(1.84879 -0.00238201 0)
(1.84888 -0.00151807 0)
(1.85002 -0.00145132 0)
(1.85093 -0.00197895 0)
(1.8526 -0.002238 0)
(1.85504 -0.0019235 0)
(1.85849 -0.000774168 0)
(1.86334 0.00101228 0)
(1.8691 0.00262727 0)
(1.87567 0.00350078 0)
(1.88226 0.00352477 0)
(1.886 0.00297717 0)
(1.88873 0.00236999 0)
(1.89063 0.00115199 0)
(1.89169 -0.000303901 0)
(1.89187 -0.00157053 0)
(1.89039 -0.00246413 0)
(1.88659 -0.0028445 0)
(1.88395 -0.00277368 0)
(1.88525 -0.00233867 0)
(1.8878 -0.00184064 0)
(1.89088 -0.000775618 0)
(1.89606 0.00100632 0)
(1.90419 0.00314133 0)
(1.91198 0.00434561 0)
(1.91663 0.00443362 0)
(1.91957 0.00419881 0)
(1.92242 0.00401698 0)
(1.92476 0.00351056 0)
(1.92287 0.00248476 0)
(1.9139 0.00187426 0)
(1.90664 0.00214073 0)
(1.90663 0.00294466 0)
(1.90901 0.00401666 0)
(1.91171 0.00538592 0)
(1.91656 0.00782943 0)
(1.92771 0.0113188 0)
(1.94103 0.0128815 0)
(1.9481 0.0116188 0)
(1.95106 0.0101859 0)
(1.95367 0.00940351 0)
(1.95612 0.00878207 0)
(1.95529 0.00772169 0)
(1.94577 0.00589082 0)
(1.93343 0.00373036 0)
(1.93021 0.00289272 0)
(1.93188 0.0029804 0)
(1.9348 0.0030923 0)
(1.93786 0.00316182 0)
(1.94147 0.00279777 0)
(1.94783 0.0010599 0)
(1.95506 -0.0012041 0)
(1.95905 -0.00183536 0)
(1.96125 -0.00155808 0)
(1.96352 -0.00113747 0)
(1.96571 -4.91501e-05 0)
(1.96672 0.00317454 0)
(1.96484 0.00883543 0)
(1.96084 0.0148578 0)
(1.95774 0.0186533 0)
(1.95638 0.0196907 0)
(1.95618 0.0185078 0)
(1.95636 0.0161374 0)
(1.95677 0.013168 0)
(1.95674 0.010191 0)
(1.95695 0.0111001 0)
(1.9618 0.0143959 0)
(1.96685 0.0169422 0)
(1.9707 0.0198001 0)
(1.97254 0.0215249 0)
(1.97329 0.0225278 0)
(1.97269 0.0214819 0)
(1.97093 0.0171276 0)
(1.9692 0.0104101 0)
(1.96849 0.00336815 0)
(1.9693 -0.00256131 0)
(1.97098 -0.00911229 0)
(1.97317 -0.0132093 0)
(1.97458 -0.0123005 0)
(1.97604 -0.00892752 0)
(1.97942 -0.00360056 0)
(1.98485 0.00407545 0)
(1.992 0.0155695 0)
(1.99876 0.0312211 0)
(1.99882 0.0436607 0)
(1.99362 0.0549409 0)
(1.984 0.0640377 0)
(1.97382 0.0667084 0)
(1.96731 0.0649617 0)
(1.96534 0.0631684 0)
(1.9648 0.0605515 0)
(1.96497 0.0568312 0)
(1.96658 0.0495954 0)
(1.97038 0.0350082 0)
(1.97494 0.012927 0)
(1.98068 -0.0151575 0)
(1.99093 -0.0440912 0)
(2.00555 -0.0652021 0)
(2.01963 -0.0757288 0)
(2.03054 -0.0784484 0)
(2.0388 -0.0769511 0)
(2.0461 -0.0731592 0)
(2.05329 -0.0676733 0)
(2.06161 -0.0606497 0)
(2.07306 -0.0528709 0)
(2.08771 -0.0470812 0)
(2.09973 -0.0430647 0)
(2.10505 -0.0383613 0)
(2.10777 -0.0315349 0)
(2.11253 -0.0196152 0)
(2.11843 -0.00322562 0)
(2.12124 0.00743234 0)
(2.12413 0.0104368 0)
(2.12707 0.0095892 0)
(2.12892 0.00599572 0)
(2.12895 -0.000198568 0)
(2.12742 -0.00690862 0)
(2.12809 -0.00990744 0)
(2.13092 -0.00994725 0)
(2.13377 -0.00917611 0)
(2.13818 -0.00757801 0)
(2.14657 -0.00361852 0)
(2.15676 0.00108379 0)
(2.16259 0.00327364 0)
(2.16551 0.00473913 0)
(2.16858 0.00647832 0)
(2.17086 0.00849137 0)
(2.16881 0.0107468 0)
(2.16064 0.0117364 0)
(2.15789 0.0115194 0)
(2.1604 0.0114846 0)
(2.16302 0.0115101 0)
(2.16586 0.0117069 0)
(2.16879 0.0117691 0)
(2.1716 0.0119238 0)
(2.17395 0.0123572 0)
(2.17554 0.0129522 0)
(2.17634 0.013464 0)
(2.17631 0.0135696 0)
(2.1754 0.0128263 0)
(2.17534 0.011645 0)
(2.17705 0.0113565 0)
(2.17935 0.0113562 0)
(2.18544 0.0112649 0)
(2.19297 0.0128888 0)
(2.19702 0.0135081 0)
(2.19828 0.0140001 0)
(2.20084 0.0147289 0)
(1.5905 -0.0601838 0)
(1.5988 -0.0659418 0)
(1.60296 -0.0751037 0)
(1.60494 -0.0843908 0)
(1.60581 -0.0886387 0)
(1.60611 -0.0883108 0)
(1.60642 -0.0859195 0)
(1.60612 -0.0827636 0)
(1.60575 -0.0782029 0)
(1.60655 -0.0704095 0)
(1.60782 -0.0600858 0)
(1.61073 -0.0507411 0)
(1.61631 -0.0434666 0)
(1.62566 -0.0364611 0)
(1.63544 -0.0318319 0)
(1.63974 -0.031358 0)