/*--------------------------------*- C++ -*----------------------------------*\
  =========                 |
  \\      /  F ield         | OpenFOAM: The Open Source CFD Toolbox
   \\    /   O peration     | Website:  https://openfoam.org
    \\  /    A nd           | Version:  7
     \\/     M anipulation  |
\*---------------------------------------------------------------------------*/
FoamFile
{
    version     2.0;
    format      ascii;
    class       volVectorField;
    location    "2.5";
    object      U;
}
// * * * * * * * * * * * * * * * * * * * * * * * * * * * * * * * * * * * * * //

dimensions      [0 1 -1 0 0 0 0];

internalField   nonuniform List<vector> 
16512
(
(3 -1.01424e-17 0)
(3 -5.69573e-17 0)
(3 -3.04451e-16 0)
(3 -4.75517e-16 0)
(3 -2.19428e-16 0)
(3 -2.02605e-16 0)
(3 -2.88205e-16 0)
(3 -3.85282e-17 0)
(3 -5.50205e-16 0)
(3 -6.03558e-16 0)
(3 1.56958e-16 0)
(3 2.99255e-16 0)
(3 5.69547e-16 0)
(3 2.33512e-16 0)
(3 7.55973e-16 0)
(3 1.16256e-15 0)
(3 1.13847e-15 0)
(3 1.62331e-15 0)
(3 1.38919e-15 0)
(3 1.47306e-15 0)
(3 1.37591e-15 0)
(3 1.6676e-15 0)
(3 8.79209e-16 0)
(3 5.85515e-16 0)
(3 3.42568e-16 0)
(3 4.48815e-16 0)
(3 5.9367e-16 0)
(3 1.08897e-15 0)
(3 1.19902e-15 0)
(3 1.27156e-15 0)
(3 1.05903e-15 0)
(3 4.58968e-16 0)
(3 -3.03614e-16 0)
(3 -5.31264e-16 0)
(3 -2.76043e-16 0)
(2.9086 0.00311065 0)
(0.992638 0.0163017 0)
(0.709375 0.0191484 0)
(0.657611 0.0238205 0)
(0.597894 0.0253218 0)
(0.539027 0.0265801 0)
(0.478391 0.0279518 0)
(0.415987 0.0294881 0)
(0.351122 0.031311 0)
(0.283262 0.0333386 0)
(0.210814 0.036425 0)
(0.132071 0.0390943 0)
(0.0494373 0.0445323 0)
(3 -2.2544e-16 0)
(3 -2.74822e-16 0)
(3 -2.56938e-16 0)
(3 -3.97602e-16 0)
(3 -2.74931e-16 0)
(3 -5.15262e-16 0)
(3 -6.51153e-16 0)
(3 1.85579e-17 0)
(3 -3.47293e-16 0)
(3 -2.8176e-16 0)
(3 6.11635e-16 0)
(3 9.09684e-16 0)
(3 3.17586e-16 0)
(3 1.72962e-16 0)
(3 1.00064e-15 0)
(3 1.08303e-15 0)
(3 1.49786e-15 0)
(3 2.25648e-15 0)
(3 2.60993e-15 0)
(3 2.43498e-15 0)
(3 2.60448e-15 0)
(3 2.73216e-15 0)
(3 1.75559e-15 0)
(3 6.08365e-16 0)
(3 -1.35053e-16 0)
(3 9.49186e-17 0)
(3 1.19618e-15 0)
(3 2.10307e-15 0)
(3 2.10146e-15 0)
(3 2.1762e-15 0)
(3 1.95816e-15 0)
(3 1.23633e-15 0)
(3 3.40622e-16 0)
(3 3.97355e-17 0)
(3 9.77797e-16 0)
(2.91917 0.0202626 0)
(1.00002 0.0748786 0)
(0.69673 0.0665885 0)
(0.642641 0.0708473 0)
(0.583827 0.0754087 0)
(0.525011 0.0797935 0)
(0.463967 0.0844306 0)
(0.400907 0.0891881 0)
(0.335677 0.0947061 0)
(0.268291 0.100692 0)
(0.198094 0.110421 0)
(0.122657 0.119087 0)
(0.0461036 0.134716 0)
(3 -2.69861e-16 0)
(3 -9.40552e-17 0)
(3 1.25408e-16 0)
(3 -1.11224e-16 0)
(3 -4.08819e-16 0)
(3 -6.54342e-16 0)
(3 -1.97405e-16 0)
(3 -3.22332e-17 0)
(3 3.50733e-16 0)
(3 5.39352e-17 0)
(3 -6.30816e-16 0)
(3 1.57262e-17 0)
(3 -1.81625e-16 0)
(3 1.59105e-16 0)
(3 -1.63527e-16 0)
(3 -2.88326e-16 0)
(3 4.7428e-16 0)
(3 4.82846e-16 0)
(3 1.24574e-15 0)
(3 1.47318e-15 0)
(3 1.3786e-15 0)
(3 1.33514e-15 0)
(3 4.06302e-16 0)
(3 -2.70015e-16 0)
(3 -7.22743e-16 0)
(3 -9.27754e-16 0)
(3 -7.9055e-16 0)
(3 -1.09487e-16 0)
(3 2.88498e-16 0)
(3 4.80458e-16 0)
(3 9.51389e-18 0)
(3 -8.2699e-17 0)
(3 2.00773e-16 0)
(3 8.92735e-16 0)
(3 1.27987e-15 0)
(2.96196 0.0338955 0)
(1.03836 0.137176 0)
(0.712699 0.114996 0)
(0.65801 0.121926 0)
(0.597062 0.129587 0)
(0.536024 0.137197 0)
(0.472784 0.145273 0)
(0.407131 0.153253 0)
(0.338829 0.16197 0)
(0.26791 0.170203 0)
(0.19528 0.183904 0)
(0.118321 0.195625 0)
(0.0440706 0.217955 0)
(3 6.79622e-17 0)
(3 5.14818e-17 0)
(3 1.20675e-16 0)
(3 -3.60782e-19 0)
(3 1.83743e-16 0)
(3 3.62896e-16 0)
(3 7.91138e-16 0)
(3 9.20669e-16 0)
(3 9.39327e-16 0)
(3 6.78819e-17 0)
(3 -8.7855e-16 0)
(3 -8.42683e-16 0)
(3 -1.51118e-16 0)
(3 1.75423e-16 0)
(3 -4.03099e-18 0)
(3 1.52765e-16 0)
(3 3.04083e-16 0)
(3 5.32014e-16 0)
(3 1.11709e-15 0)
(3 1.19675e-15 0)
(3 4.08535e-16 0)
(3 -4.34759e-16 0)
(3 -9.19119e-16 0)
(3 -7.30672e-16 0)
(3 1.58378e-17 0)
(3 -6.74501e-16 0)
(3 -1.33496e-15 0)
(3 -9.00917e-16 0)
(3 -4.15114e-16 0)
(3 1.44781e-16 0)
(3 -4.46128e-16 0)
(3 -6.48924e-16 0)
(3 -1.46272e-17 0)
(3 2.83485e-16 0)
(3 1.31582e-15 0)
(3.00694 0.0052783 0)
(1.11468 0.1813 0)
(0.742905 0.152799 0)
(0.691137 0.166946 0)
(0.632006 0.178912 0)
(0.571209 0.190299 0)
(0.50765 0.20298 0)
(0.440199 0.216241 0)
(0.368084 0.231274 0)
(0.290736 0.244565 0)
(0.211167 0.263312 0)
(0.126868 0.277716 0)
(0.0459071 0.303171 0)
(3 -2.63472e-18 0)
(3 -4.29199e-16 0)
(3 -4.72507e-16 0)
(3 3.47337e-16 0)
(3 6.61145e-16 0)
(3 7.21923e-16 0)
(3 5.37996e-16 0)
(3 1.08593e-16 0)
(3 -8.20924e-17 0)
(3 1.56502e-16 0)
(3 5.77698e-16 0)
(3 -3.54553e-16 0)
(3 -4.70181e-16 0)
(3 -6.7147e-16 0)
(3 -6.9488e-16 0)
(3 -1.40918e-16 0)
(3 1.00242e-16 0)
(3 7.13103e-16 0)
(3 1.1212e-15 0)
(3 1.53969e-15 0)
(3 1.35702e-15 0)
(3 -3.31794e-16 0)
(3 -5.2221e-16 0)
(3 -8.79485e-16 0)
(3 -7.82209e-16 0)
(3 -8.29458e-16 0)
(3 -5.95892e-16 0)
(3 -2.69772e-17 0)
(3 9.04122e-17 0)
(3 4.15252e-16 0)
(3 7.54748e-16 0)
(3 7.57929e-16 0)
(3 3.85243e-16 0)
(3 5.25882e-16 0)
(3 1.18093e-15 0)
(3.00045 2.29019e-05 0)
(1.22679 0.22451 0)
(0.749918 0.196962 0)
(0.694418 0.217178 0)
(0.638953 0.233713 0)
(0.581065 0.248702 0)
(0.521153 0.266305 0)
(0.457482 0.285332 0)
(0.389652 0.307157 0)
(0.314983 0.325335 0)
(0.235925 0.348826 0)
(0.145754 0.368356 0)
(0.0550566 0.399989 0)
(3 3.08808e-17 0)
(3 3.20211e-16 0)
(3 2.70835e-16 0)
(3 3.28689e-17 0)
(3 1.97718e-16 0)
(3 1.73729e-16 0)
(3 -3.45697e-16 0)
(3 -1.73326e-16 0)
(3 1.47725e-16 0)
(3 9.75215e-16 0)
(3 1.37588e-15 0)
(3 1.19594e-15 0)
(3 3.66962e-16 0)
(3 -7.7635e-16 0)
(3 -9.37223e-16 0)
(3 -1.00859e-15 0)
(3 -6.86431e-16 0)
(3 5.00427e-16 0)
(3 9.16113e-16 0)
(3 1.09549e-15 0)
(3 1.14176e-15 0)
(3 3.56482e-16 0)
(3 9.91111e-17 0)
(3 -2.88628e-16 0)
(3 -1.30752e-15 0)
(3 -1.48049e-15 0)
(3 -5.24507e-16 0)
(3 4.46304e-16 0)
(3 4.95408e-16 0)
(3 5.23375e-16 0)
(3 1.39432e-15 0)
(3 1.35448e-15 0)
(3 6.57858e-16 0)
(3 1.01933e-15 0)
(3 1.12452e-15 0)
(3 -8.30097e-08 0)
(1.41014 0.274723 0)
(0.766231 0.246249 0)
(0.695666 0.261574 0)
(0.646525 0.280431 0)
(0.596383 0.298118 0)
(0.546206 0.319787 0)
(0.491168 0.344381 0)
(0.429655 0.37509 0)
(0.35447 0.405465 0)
(0.267839 0.443431 0)
(0.165839 0.478953 0)
(0.0560671 0.51789 0)
(3 -2.87151e-17 0)
(3 2.89586e-17 0)
(3 1.94609e-16 0)
(3 -4.14574e-16 0)
(3 -1.86412e-16 0)
(3 -7.51989e-18 0)
(3 -2.96382e-17 0)
(3 7.37482e-16 0)
(3 6.73671e-16 0)
(3 6.145e-16 0)
(3 8.75662e-16 0)
(3 1.47936e-15 0)
(3 1.07489e-15 0)
(3 -1.93564e-16 0)
(3 -8.96948e-16 0)
(3 -1.03659e-15 0)
(3 -4.48794e-16 0)
(3 1.43293e-16 0)
(3 4.07866e-16 0)
(3 4.21062e-16 0)
(3 -1.74357e-16 0)
(3 -3.18159e-16 0)
(3 -4.29763e-16 0)
(3 -8.55224e-17 0)
(3 -5.91769e-16 0)
(3 -8.26981e-16 0)
(3 -7.44843e-16 0)
(3 -1.3948e-16 0)
(3 6.06889e-16 0)
(3 8.03452e-16 0)
(3 8.85806e-16 0)
(3 6.48247e-16 0)
(3 9.03718e-16 0)
(3 3.67418e-16 0)
(3 1.88603e-15 0)
(3 -7.92306e-08 0)
(1.68731 0.325996 0)
(0.797353 0.311041 0)
(0.696314 0.309135 0)
(0.645114 0.324959 0)
(0.596837 0.34294 0)
(0.553415 0.369048 0)
(0.507304 0.401644 0)
(0.458327 0.44449 0)
(0.39716 0.491698 0)
(0.325949 0.543599 0)
(0.233061 0.595076 0)
(0.101216 0.660794 0)
(3 4.57217e-17 0)
(3 -5.51629e-16 0)
(3 -6.24692e-16 0)
(3 -3.62954e-16 0)
(3 -5.91752e-16 0)
(3 -4.06821e-17 0)
(3 8.51965e-16 0)
(3 4.16803e-16 0)
(3 -2.55357e-16 0)
(3 -4.34858e-16 0)
(3 -3.39914e-16 0)
(3 -2.01012e-16 0)
(3 -3.62618e-16 0)
(3 -8.66746e-17 0)
(3 -5.20347e-16 0)
(3 -5.62305e-16 0)
(3 -7.25448e-17 0)
(3 -8.95216e-16 0)
(3 -9.36934e-16 0)
(3 -1.19643e-15 0)
(3 -8.96644e-16 0)
(3 -5.81898e-16 0)
(3 -4.62089e-16 0)
(3 1.84234e-16 0)
(3 2.59848e-16 0)
(3 -4.12355e-16 0)
(3 -1.2714e-15 0)
(3 -6.92223e-16 0)
(3 2.38975e-16 0)
(3 9.95218e-16 0)
(3 6.2397e-16 0)
(3 4.14647e-16 0)
(3 1.00974e-16 0)
(3 1.49002e-16 0)
(3 7.57964e-16 0)
(3 -1.64644e-08 0)
(2.0946 0.365734 0)
(0.855489 0.396328 0)
(0.718195 0.370553 0)
(0.667834 0.379257 0)
(0.620097 0.392066 0)
(0.578753 0.416042 0)
(0.539489 0.451522 0)
(0.501018 0.500641 0)
(0.456846 0.560235 0)
(0.394779 0.641505 0)
(0.274752 0.757979 0)
(0.151086 0.924226 0)
(3 4.45696e-17 0)
(3 2.5739e-17 0)
(3 6.8186e-17 0)
(3 3.84431e-17 0)
(3 -1.93295e-16 0)
(3 -8.57718e-17 0)
(3 2.18361e-16 0)
(3 -3.25519e-16 0)
(3 -4.7135e-16 0)
(3 -3.99786e-16 0)
(3 -5.21709e-16 0)
(3 -6.14358e-16 0)
(3 -2.60215e-16 0)
(3 1.18324e-16 0)
(3 7.80134e-16 0)
(3 9.86264e-16 0)
(3 6.52799e-16 0)
(3 -4.9215e-16 0)
(3 -1.24e-15 0)
(3 -1.74736e-15 0)
(3 -8.34589e-16 0)
(3 7.86043e-17 0)
(3 8.66052e-17 0)
(3 1.21586e-16 0)
(3 2.28736e-16 0)
(3 5.35605e-16 0)
(3 5.28982e-16 0)
(3 8.39185e-16 0)
(3 8.90219e-16 0)
(3 4.94917e-16 0)
(3 2.94616e-16 0)
(3 3.35254e-16 0)
(3 3.4773e-16 0)
(3 -4.87168e-17 0)
(3 -2.97968e-16 0)
(3 -1.69705e-09 0)
(2.68028 0.293481 0)
(0.991478 0.478128 0)
(0.805537 0.407276 0)
(0.753064 0.415808 0)
(0.694457 0.433944 0)
(0.64223 0.459297 0)
(0.59905 0.496048 0)
(0.562622 0.549252 0)
(0.528999 0.626291 0)
(0.496199 0.750711 0)
(0.464515 0.92296 0)
(0.575942 1.19977 0)
(3 1.3582e-16 0)
(3 2.81793e-16 0)
(3 6.60607e-16 0)
(3 5.58962e-16 0)
(3 4.71452e-16 0)
(3 -1.93978e-16 0)
(3 -2.87545e-16 0)
(3 -7.61617e-16 0)
(3 -4.70592e-16 0)
(3 -4.39377e-16 0)
(3 -4.43235e-16 0)
(3 -1.97962e-16 0)
(3 -1.21452e-16 0)
(3 4.19141e-17 0)
(3 2.75789e-16 0)
(3 4.88083e-16 0)
(3 -5.60131e-16 0)
(3 -1.19508e-15 0)
(3 -1.33453e-15 0)
(3 -1.28231e-15 0)
(3 -6.84471e-16 0)
(3 -3.74693e-17 0)
(3 2.90165e-16 0)
(3 2.17905e-16 0)
(3 -9.83769e-17 0)
(3 -2.4508e-16 0)
(3 6.04576e-16 0)
(3 -3.94237e-17 0)
(3 -1.30625e-16 0)
(3 -1.23561e-15 0)
(3 -5.37371e-16 0)
(3 1.65555e-16 0)
(3 1.01755e-15 0)
(3 1.09352e-15 0)
(3 1.21916e-15 0)
(3 -6.76726e-11 0)
(3.07481 0.0388431 0)
(1.22625 0.469562 0)
(0.8823 0.44853 0)
(0.838704 0.476133 0)
(0.785007 0.491186 0)
(0.730289 0.511704 0)
(0.681687 0.54464 0)
(0.64253 0.596522 0)
(0.623315 0.681235 0)
(0.622555 0.816551 0)
(0.685489 0.966288 0)
(0.969369 1.13686 0)
(3 3.86979e-17 0)
(3 1.24678e-16 0)
(3 9.18972e-17 0)
(3 4.01449e-16 0)
(3 3.95822e-16 0)
(3 -1.47884e-16 0)
(3 -6.61209e-16 0)
(3 -9.4678e-16 0)
(3 -8.7491e-16 0)
(3 -8.29895e-16 0)
(3 -8.14009e-16 0)
(3 -9.56409e-16 0)
(3 -7.8427e-16 0)
(3 -4.08881e-16 0)
(3 -4.90727e-16 0)
(3 -7.06455e-16 0)
(3 -1.20162e-15 0)
(3 -9.18905e-16 0)
(3 -2.51798e-16 0)
(3 4.50901e-16 0)
(3 5.00926e-16 0)
(3 7.6021e-16 0)
(3 6.38821e-16 0)
(3 7.37997e-16 0)
(3 7.2555e-16 0)
(3 9.43866e-16 0)
(3 4.8225e-16 0)
(3 -2.37218e-16 0)
(3 -1.46732e-15 0)
(3 -1.92061e-15 0)
(3 -1.5558e-15 0)
(3 -6.25409e-16 0)
(3 -9.582e-17 0)
(3 1.04317e-15 0)
(3 2.02181e-15 0)
(3 -1.39119e-12 0)
(3.00768 6.12828e-05 0)
(1.44814 0.462534 0)
(0.882854 0.51321 0)
(0.835674 0.532637 0)
(0.800799 0.551986 0)
(0.772602 0.575982 0)
(0.744822 0.607414 0)
(0.719827 0.650807 0)
(0.722356 0.72439 0)
(0.750202 0.838934 0)
(0.872079 0.963117 0)
(1.182 1.06659 0)
(3 -6.94638e-17 0)
(3 -6.07821e-16 0)
(3 -1.16842e-15 0)
(3 -1.20942e-15 0)
(3 -4.34786e-16 0)
(3 -1.70348e-16 0)
(3 -3.12027e-16 0)
(3 -1.76933e-16 0)
(3 -3.18824e-16 0)
(3 -3.73242e-16 0)
(3 -8.26838e-16 0)
(3 -1.43733e-15 0)
(3 -7.72629e-16 0)
(3 -2.91751e-16 0)
(3 3.5131e-16 0)
(3 4.1571e-16 0)
(3 2.11266e-16 0)
(3 7.17445e-16 0)
(3 1.44304e-15 0)
(3 1.62357e-15 0)
(3 1.60331e-15 0)
(3 1.672e-15 0)
(3 1.83245e-15 0)
(3 2.18856e-15 0)
(3 2.62388e-15 0)
(3 2.47995e-15 0)
(3 1.87523e-15 0)
(3 8.49476e-16 0)
(3 1.04598e-17 0)
(3 -9.14561e-16 0)
(3 -8.47309e-16 0)
(3 -1.3243e-15 0)
(3 -1.8469e-15 0)
(3 -1.76585e-16 0)
(3 1.22417e-15 0)
(3 -1.09693e-14 0)
(3.00005 -2.09605e-06 0)
(1.96614 0.493684 0)
(0.930792 0.578777 0)
(0.853462 0.560625 0)
(0.834818 0.582654 0)
(0.820721 0.608452 0)
(0.810382 0.642882 0)
(0.802116 0.68272 0)
(0.817173 0.745829 0)
(0.86666 0.836841 0)
(1.01024 0.939601 0)
(1.27594 1.0063 0)
(3 1.49216e-16 0)
(3 -5.14524e-16 0)
(3 -9.2383e-16 0)
(3 -5.38651e-16 0)
(3 -4.86859e-16 0)
(3 -4.10861e-16 0)
(3 -3.64951e-16 0)
(3 -6.29097e-17 0)
(3 1.07545e-16 0)
(3 -4.76802e-16 0)
(3 -5.95111e-16 0)
(3 -3.36374e-16 0)
(3 -2.11236e-16 0)
(3 -5.47804e-17 0)
(3 1.48905e-16 0)
(3 1.44081e-16 0)
(3 6.56271e-16 0)
(3 1.42399e-15 0)
(3 1.67614e-15 0)
(3 1.37929e-15 0)
(3 1.20076e-15 0)
(3 1.1835e-15 0)
(3 1.72955e-15 0)
(3 2.02711e-15 0)
(3 2.03218e-15 0)
(3 1.57275e-15 0)
(3 4.30934e-16 0)
(3 -6.99061e-16 0)
(3 -9.69888e-16 0)
(3 -5.74693e-16 0)
(3 -8.92231e-17 0)
(3 -5.62551e-16 0)
(3 -2.42322e-16 0)
(3 3.18721e-16 0)
(3 7.63258e-16 0)
(3 7.61317e-16 0)
(3.00001 -2.64334e-06 0)
(2.77321 0.30782 0)
(1.10318 0.634563 0)
(0.923228 0.578979 0)
(0.894537 0.601118 0)
(0.876938 0.630842 0)
(0.872552 0.669296 0)
(0.878099 0.710966 0)
(0.902038 0.765116 0)
(0.966563 0.833822 0)
(1.10582 0.905808 0)
(1.31871 0.946844 0)
(3 -6.9068e-17 0)
(3 9.68083e-17 0)
(3 1.81758e-16 0)
(3 1.1966e-16 0)
(3 -1.20017e-16 0)
(3 2.43855e-16 0)
(3 2.48896e-16 0)
(3 1.21672e-16 0)
(3 -7.96949e-17 0)
(3 -2.27115e-16 0)
(3 2.82414e-16 0)
(3 1.13035e-15 0)
(3 1.23074e-15 0)
(3 1.18791e-15 0)
(3 5.30914e-16 0)
(3 5.81865e-16 0)
(3 8.19638e-16 0)
(3 5.9354e-16 0)
(3 3.54029e-16 0)
(3 5.01147e-16 0)
(3 1.02092e-15 0)
(3 1.61651e-15 0)
(3 2.234e-15 0)
(3 1.83222e-15 0)
(3 1.01369e-15 0)
(3 7.17936e-17 0)
(3 -3.39867e-16 0)
(3 -3.32476e-16 0)
(3 -6.5844e-16 0)
(3 5.17397e-16 0)
(3 -1.38793e-16 0)
(3 4.20542e-16 0)
(3 7.83201e-16 0)
(3 7.86634e-16 0)
(3 -2.83856e-16 0)
(3 2.10715e-16 0)
(3 -5.57015e-07 0)
(3.07231 0.0232761 0)
(1.44063 0.628894 0)
(0.999905 0.654042 0)
(0.949407 0.653298 0)
(0.925033 0.668714 0)
(0.924257 0.696297 0)
(0.94098 0.732195 0)
(0.975897 0.775101 0)
(1.04889 0.828116 0)
(1.17535 0.879076 0)
(1.34836 0.905449 0)
(3 9.63299e-17 0)
(3 4.44752e-16 0)
(3 5.78128e-16 0)
(3 1.92924e-16 0)
(3 3.78536e-17 0)
(3 1.76756e-16 0)
(3 7.0232e-16 0)
(3 7.9969e-16 0)
(3 9.54881e-17 0)
(3 5.02975e-16 0)
(3 9.8225e-16 0)
(3 1.70082e-15 0)
(3 1.83707e-15 0)
(3 1.53263e-15 0)
(3 1.08563e-15 0)
(3 5.71724e-16 0)
(3 5.16339e-17 0)
(3 -3.56166e-16 0)
(3 -3.36318e-16 0)
(3 1.09747e-16 0)
(3 2.37514e-16 0)
(3 1.34818e-15 0)
(3 1.04359e-15 0)
(3 1.04693e-15 0)
(3 1.01039e-15 0)
(3 1.20938e-15 0)
(3 1.49296e-15 0)
(3 1.98304e-15 0)
(3 1.8266e-15 0)
(3 2.62356e-15 0)
(3 1.61113e-15 0)
(3 1.34422e-15 0)
(3 9.32344e-16 0)
(3 -5.92841e-16 0)
(3 -2.02263e-15 0)
(3 -1.53393e-15 0)
(3 -5.64807e-08 0)
(3.00364 5.98715e-05 0)
(2.00867 0.598435 0)
(1.06306 0.725084 0)
(1.00969 0.700976 0)
(0.994495 0.697711 0)
(0.991601 0.714756 0)
(1.00732 0.742073 0)
(1.04599 0.778515 0)
(1.11686 0.817376 0)
(1.22361 0.850559 0)
(1.36154 0.866059 0)
(3 1.34966e-16 0)
(3 4.12857e-16 0)
(3 8.00151e-16 0)
(3 8.04802e-16 0)
(3 2.27053e-16 0)
(3 -2.99785e-16 0)
(3 -5.20238e-16 0)
(3 -5.30001e-16 0)
(3 -2.31016e-16 0)
(3 2.07718e-16 0)
(3 4.91434e-16 0)
(3 6.69458e-16 0)
(3 5.47036e-16 0)
(3 8.08398e-17 0)
(3 4.60951e-16 0)
(3 3.53378e-16 0)
(3 4.61589e-16 0)
(3 2.27128e-16 0)
(3 1.86414e-16 0)
(3 -2.67649e-16 0)
(3 1.64896e-16 0)
(3 8.03368e-16 0)
(3 2.13485e-16 0)
(3 5.59759e-16 0)
(3 8.36536e-16 0)
(3 1.51706e-15 0)
(3 1.90805e-15 0)
(3 2.59309e-15 0)
(3 3.23228e-15 0)
(3 3.1777e-15 0)
(3 2.23872e-15 0)
(3 1.35995e-15 0)
(3 6.84381e-16 0)
(3 -1.32047e-16 0)
(3 -1.04956e-15 0)
(3 -1.5945e-15 0)
(3 -1.78418e-09 0)
(3.00001 -2.88643e-07 0)
(2.95125 0.210731 0)
(1.28836 0.696069 0)
(1.08257 0.717785 0)
(1.08685 0.720012 0)
(1.08186 0.740474 0)
(1.08758 0.763025 0)
(1.11615 0.78941 0)
(1.17744 0.818868 0)
(1.26577 0.840604 0)
(1.3793 0.849319 0)
(3 6.29322e-17 0)
(3 1.20667e-16 0)
(3 9.87516e-17 0)
(3 1.45172e-16 0)
(3 4.76525e-18 0)
(3 5.62645e-17 0)
(3 -2.51131e-16 0)
(3 -2.90794e-16 0)
(3 2.68264e-16 0)
(3 2.63133e-16 0)
(3 2.225e-16 0)
(3 -9.32175e-17 0)
(3 -2.16161e-17 0)
(3 3.05777e-16 0)
(3 3.3494e-16 0)
(3 4.50565e-16 0)
(3 1.21315e-15 0)
(3 1.11979e-15 0)
(3 1.83819e-16 0)
(3 -1.02458e-15 0)
(3 -2.68676e-16 0)
(3 2.01073e-16 0)
(3 1.68284e-16 0)
(3 -2.3273e-16 0)
(3 -1.12947e-16 0)
(3 6.26869e-16 0)
(3 2.3793e-15 0)
(3 2.91356e-15 0)
(3 2.3299e-15 0)
(3 1.85422e-15 0)
(3 1.29063e-15 0)
(3 2.09977e-15 0)
(3 1.65734e-15 0)
(3 1.17048e-15 0)
(3 5.82015e-17 0)
(3 -9.46307e-16 0)
(3 -3.92783e-12 0)
(3 -6.32035e-07 0)
(3.03896 0.00552656 0)
(1.58031 0.658477 0)
(1.09971 0.757024 0)
(1.10964 0.764984 0)
(1.11636 0.782756 0)
(1.13966 0.795508 0)
(1.17423 0.807088 0)
(1.22939 0.819041 0)
(1.30402 0.829818 0)
(1.39895 0.83306 0)
(3 -1.13828e-17 0)
(3 -3.5446e-16 0)
(3 -8.95574e-16 0)
(3 -7.28937e-16 0)
(3 -6.93667e-16 0)
(3 -2.8228e-16 0)
(3 -1.08583e-16 0)
(3 -2.15491e-16 0)
(3 -3.00657e-17 0)
(3 -7.44092e-17 0)
(3 -2.12997e-16 0)
(3 -6.74627e-17 0)
(3 3.27014e-16 0)
(3 4.71159e-16 0)
(3 7.67199e-17 0)
(3 3.47099e-16 0)
(3 6.47912e-16 0)
(3 9.52835e-16 0)
(3 -3.27444e-16 0)
(3 -5.22817e-16 0)
(3 -1.10726e-15 0)
(3 -1.59324e-15 0)
(3 -1.632e-15 0)
(3 -1.54628e-15 0)
(3 -6.18424e-16 0)
(3 4.43666e-16 0)
(3 1.15447e-15 0)
(3 1.52952e-15 0)
(3 1.90094e-15 0)
(3 2.10479e-15 0)
(3 2.24473e-15 0)
(3 1.65089e-15 0)
(3 1.22383e-15 0)
(3 4.28676e-16 0)
(3 -3.66583e-16 0)
(3 -7.43367e-16 0)
(3 -4.71107e-15 0)
(3 -1.20659e-07 0)
(3.00071 2.95365e-05 0)
(2.40878 0.502517 0)
(1.20885 0.788022 0)
(1.1342 0.790942 0)
(1.1481 0.794662 0)
(1.1766 0.804887 0)
(1.21681 0.817012 0)
(1.27045 0.828159 0)
(1.33878 0.835577 0)
(1.41928 0.835024 0)
(3 -1.3364e-16 0)
(3 -4.87381e-16 0)
(3 -4.73827e-16 0)
(3 -3.35944e-16 0)
(3 2.29275e-16 0)
(3 2.4899e-16 0)
(3 4.53205e-17 0)
(3 -8.29717e-16 0)
(3 -5.32641e-16 0)
(3 -2.55322e-16 0)
(3 1.03232e-16 0)
(3 1.64315e-16 0)
(3 1.90806e-16 0)
(3 -3.34335e-16 0)
(3 -2.29912e-16 0)
(3 1.99752e-16 0)
(3 -1.25033e-16 0)
(3 -4.32574e-16 0)
(3 2.25825e-17 0)
(3 -1.71117e-16 0)
(3 -6.75286e-16 0)
(3 -1.10628e-15 0)
(3 -9.69025e-16 0)
(3 -1.32461e-16 0)
(3 -1.864e-16 0)
(3 -2.11503e-16 0)
(3 -2.22776e-16 0)
(3 1.13602e-16 0)
(3 1.42302e-15 0)
(3 1.70319e-15 0)
(3 1.76499e-15 0)
(3 9.43542e-16 0)
(3 3.17418e-16 0)
(3 -2.13913e-16 0)
(3 -1.10133e-16 0)
(3 -4.45905e-17 0)
(3 5.24489e-16 0)
(3 -3.81527e-09 0)
(3.00002 -7.08667e-06 0)
(3.05921 0.068235 0)
(1.57144 0.774947 0)
(1.18391 0.786236 0)
(1.19801 0.794457 0)
(1.22068 0.806805 0)
(1.25835 0.818174 0)
(1.30846 0.827869 0)
(1.37044 0.833069 0)
(1.4425 0.830687 0)
(3 1.33204e-16 0)
(3 6.65084e-16 0)
(3 5.75902e-16 0)
(3 2.59507e-16 0)
(3 1.69743e-16 0)
(3 4.96251e-16 0)
(3 1.65762e-16 0)
(3 -4.86256e-16 0)
(3 -8.32336e-16 0)
(3 -5.34265e-16 0)
(3 -2.98396e-16 0)
(3 -4.7957e-16 0)
(3 -1.04671e-15 0)
(3 -6.45793e-16 0)
(3 -9.22336e-17 0)
(3 -2.69746e-16 0)
(3 -1.0404e-15 0)
(3 -9.80712e-16 0)
(3 -8.96556e-16 0)
(3 -6.71777e-16 0)
(3 -6.41457e-16 0)
(3 -4.0946e-16 0)
(3 -4.66401e-16 0)
(3 -2.18923e-16 0)
(3 1.16262e-16 0)
(3 3.06531e-16 0)
(3 3.12659e-16 0)
(3 3.20389e-16 0)
(3 9.21965e-16 0)
(3 8.23261e-16 0)
(3 9.09859e-16 0)
(3 2.97904e-16 0)
(3 -7.32216e-16 0)
(3 -7.32205e-16 0)
(3 -5.53179e-16 0)
(3 -6.44985e-16 0)
(3 1.84446e-16 0)
(3 -1.37818e-11 0)
(3 -1.7846e-06 0)
(3.00764 0.00129682 0)
(2.31225 0.624731 0)
(1.2664 0.849666 0)
(1.22308 0.83441 0)
(1.25562 0.833668 0)
(1.28931 0.838184 0)
(1.33654 0.843157 0)
(1.39385 0.844201 0)
(1.45818 0.840798 0)
(3 2.88013e-16 0)
(3 6.08619e-16 0)
(3 2.91092e-16 0)
(3 1.04268e-16 0)
(3 5.46664e-19 0)
(3 2.43053e-16 0)
(3 4.05378e-16 0)
(3 2.81957e-16 0)
(3 -3.08737e-16 0)
(3 -8.47012e-17 0)
(3 -1.52104e-16 0)
(3 -3.83081e-16 0)
(3 -4.61145e-16 0)
(3 -1.68091e-16 0)
(3 7.52608e-16 0)
(3 1.09464e-15 0)
(3 6.63985e-16 0)
(3 2.5483e-16 0)
(3 -5.43542e-16 0)
(3 -7.85414e-16 0)
(3 -8.98485e-16 0)
(3 -8.84564e-16 0)
(3 -1.00314e-15 0)
(3 -8.35394e-16 0)
(3 4.80982e-17 0)
(3 -3.91836e-16 0)
(3 -3.57868e-16 0)
(3 4.91994e-16 0)
(3 3.11881e-16 0)
(3 -5.67271e-18 0)
(3 6.98401e-17 0)
(3 -9.48673e-17 0)
(3 8.99117e-17 0)
(3 -2.79932e-18 0)
(3 -2.24995e-16 0)
(3 -2.18231e-16 0)
(3 2.53306e-16 0)
(3 -5.37944e-15 0)
(3 -1.52109e-07 0)
(3.00003 8.29863e-06 0)
(3.04245 0.111961 0)
(1.63505 0.826893 0)
(1.26912 0.832035 0)
(1.30408 0.833698 0)
(1.32944 0.83906 0)
(1.37167 0.841511 0)
(1.42271 0.84119 0)
(1.47844 0.838543 0)
(3 1.20909e-17 0)
(3 5.42371e-17 0)
(3 4.00481e-17 0)
(3 1.62754e-17 0)
(3 3.90335e-16 0)
(3 1.53068e-16 0)
(3 4.12411e-16 0)
(3 6.8836e-16 0)
(3 9.26452e-16 0)
(3 1.04568e-15 0)
(3 1.12775e-15 0)
(3 1.29992e-15 0)
(3 1.5453e-15 0)
(3 1.37524e-15 0)
(3 1.67896e-15 0)
(3 1.84365e-15 0)
(3 1.68411e-15 0)
(3 1.04159e-15 0)
(3 9.64675e-16 0)
(3 1.05414e-15 0)
(3 8.15992e-16 0)
(3 6.44016e-16 0)
(3 6.61317e-16 0)
(3 2.5336e-16 0)
(3 -3.49482e-16 0)
(3 -9.27562e-16 0)
(3 -7.98646e-16 0)
(3 -5.14735e-16 0)
(3 -5.80999e-16 0)
(3 -7.34761e-16 0)
(3 -1.29487e-15 0)
(3 -6.04052e-16 0)
(3 -1.72525e-16 0)
(3 -2.93442e-16 0)
(3 -1.60705e-16 0)
(3 7.73042e-17 0)
(3 1.76226e-16 0)
(3 -4.84953e-16 0)
(3 -1.86682e-09 0)
(3 -1.34085e-07 0)
(3.00996 0.00329959 0)
(2.396 0.628998 0)
(1.36018 0.887954 0)
(1.32658 0.876157 0)
(1.359 0.868484 0)
(1.39468 0.865293 0)
(1.43796 0.861389 0)
(1.48742 0.854802 0)
(3 2.58684e-17 0)
(3 2.05771e-16 0)
(3 1.59178e-16 0)
(3 4.27483e-17 0)
(3 -2.71488e-16 0)
(3 -3.16567e-16 0)
(3 -1.98311e-16 0)
(3 7.2836e-16 0)
(3 9.74451e-16 0)
(3 5.34879e-16 0)
(3 1.08238e-15 0)
(3 1.57656e-15 0)
(3 1.37073e-15 0)
(3 1.48181e-15 0)
(3 9.06224e-16 0)
(3 -2.06525e-16 0)
(3 -3.92117e-16 0)
(3 -1.84581e-16 0)
(3 1.39928e-15 0)
(3 1.64468e-15 0)
(3 1.51946e-15 0)
(3 1.32275e-15 0)
(3 8.62537e-16 0)
(3 6.03477e-17 0)
(3 -7.99645e-16 0)
(3 -6.95975e-16 0)
(3 -5.04103e-16 0)
(3 -7.78329e-16 0)
(3 -7.86641e-16 0)
(3 -1.24674e-15 0)
(3 -1.55417e-15 0)
(3 -6.63703e-16 0)
(3 -1.10223e-16 0)
(3 -1.13619e-16 0)
(3 2.35228e-16 0)
(3 8.80194e-16 0)
(3 5.75759e-16 0)
(3 6.86482e-17 0)
(3 -4.21533e-12 0)
(3 -3.34046e-08 0)
(3.00004 3.82157e-05 0)
(3.03606 0.0984842 0)
(1.77106 0.833104 0)
(1.36391 0.88252 0)
(1.40367 0.875606 0)
(1.43079 0.8691 0)
(1.46561 0.860882 0)
(1.5085 0.850398 0)
(3 5.45471e-17 0)
(3 -4.60886e-17 0)
(3 6.85447e-17 0)
(3 4.81959e-16 0)
(3 4.31713e-16 0)
(3 2.97895e-16 0)
(3 5.27854e-16 0)
(3 1.50284e-15 0)
(3 1.47238e-15 0)
(3 9.49385e-16 0)
(3 1.05296e-15 0)
(3 1.31497e-15 0)
(3 1.76695e-16 0)
(3 3.8002e-17 0)
(3 -1.13453e-15 0)
(3 -1.62057e-15 0)
(3 -1.37769e-15 0)
(3 -6.75901e-16 0)
(3 -2.99493e-16 0)
(3 -2.61278e-16 0)
(3 -2.24926e-16 0)
(3 1.09452e-17 0)
(3 2.36839e-16 0)
(3 7.09801e-16 0)
(3 -5.31044e-16 0)
(3 -1.13148e-15 0)
(3 -1.32157e-15 0)
(3 -1.52756e-15 0)
(3 -1.50584e-15 0)
(3 -1.11202e-15 0)
(3 -3.30956e-16 0)
(3 -7.29746e-17 0)
(3 4.4305e-16 0)
(3 7.70641e-16 0)
(3 7.17865e-16 0)
(3 8.42564e-16 0)
(3 -2.53013e-16 0)
(3 -3.52901e-16 0)
(3 -2.15718e-15 0)
(3 -3.14161e-09 0)
(3 2.00264e-08 0)
(3.00569 0.0040117 0)
(2.62905 0.516467 0)
(1.5166 0.933803 0)
(1.42455 0.904776 0)
(1.45594 0.894308 0)
(1.4864 0.882991 0)
(1.52483 0.868692 0)
(3 1.07825e-16 0)
(3 8.7171e-17 0)
(3 4.20386e-16 0)
(3 6.50792e-16 0)
(3 6.85119e-16 0)
(3 4.22427e-16 0)
(3 6.35057e-16 0)
(3 8.75276e-16 0)
(3 1.18772e-15 0)
(3 1.2103e-15 0)
(3 3.84308e-16 0)
(3 -1.01664e-16 0)
(3 1.86057e-16 0)
(3 -3.6095e-16 0)
(3 -7.22236e-16 0)
(3 -1.02694e-15 0)
(3 -8.51104e-16 0)
(3 -8.46514e-16 0)
(3 -9.18006e-16 0)
(3 -8.25706e-16 0)
(3 -6.46048e-16 0)
(3 -8.18911e-16 0)
(3 -3.15394e-17 0)
(3 1.7196e-15 0)
(3 1.56116e-15 0)
(3 2.56903e-16 0)
(3 -1.16415e-15 0)
(3 -1.64296e-15 0)
(3 -2.11502e-15 0)
(3 -1.74034e-15 0)
(3 -5.37965e-16 0)
(3 7.71895e-16 0)
(3 7.78748e-16 0)
(3 6.43903e-16 0)
(3 1.45546e-16 0)
(3 -2.79359e-16 0)
(3 -8.01566e-17 0)
(3 1.74667e-16 0)
(3 5.1274e-16 0)
(3 -1.25086e-10 0)
(3 -1.23274e-10 0)
(3.00002 3.99769e-05 0)
(3.03379 0.0498269 0)
(2.03474 0.794688 0)
(1.47981 0.91598 0)
(1.49639 0.905345 0)
(1.52227 0.891455 0)
(1.55389 0.877734 0)
(3 1.67324e-17 0)
(3 -9.33956e-17 0)
(3 1.7134e-16 0)
(3 -2.27063e-16 0)
(3 -2.55642e-16 0)
(3 4.66157e-17 0)
(3 -1.77724e-16 0)
(3 -4.55589e-16 0)
(3 -6.96166e-16 0)
(3 -9.33803e-16 0)
(3 -1.35044e-15 0)
(3 -1.44276e-15 0)
(3 -8.82725e-16 0)
(3 -9.95153e-16 0)
(3 -3.32829e-16 0)
(3 4.79525e-16 0)
(3 6.09476e-16 0)
(3 4.33444e-16 0)
(3 -2.93522e-16 0)
(3 -9.44952e-16 0)
(3 -2.3057e-16 0)
(3 5.72869e-16 0)
(3 1.52341e-15 0)
(3 2.10584e-15 0)
(3 8.79815e-16 0)
(3 -7.449e-17 0)
(3 -8.44142e-16 0)
(3 -4.76753e-16 0)
(3 -2.00041e-16 0)
(3 -3.36133e-16 0)
(3 -2.40214e-16 0)
(3 1.05297e-15 0)
(3 1.41956e-15 0)
(3 9.79582e-16 0)
(3 3.26157e-16 0)
(3 -9.56448e-17 0)
(3 -2.62231e-16 0)
(3 -2.10308e-16 0)
(3 -3.66172e-16 0)
(3 -1.098e-12 0)
(3 -3.89885e-11 0)
(3 2.89896e-08 0)
(3.00148 0.0021671 0)
(2.84986 0.302194 0)
(1.74904 0.900384 0)
(1.51372 0.928942 0)
(1.55012 0.917129 0)
(1.57972 0.904072 0)
(3 -1.43594e-16 0)
(3 -4.08592e-16 0)
(3 -2.82926e-16 0)
(3 -4.16175e-16 0)
(3 -1.71667e-16 0)
(3 2.08223e-16 0)
(3 -3.32044e-16 0)
(3 -1.14389e-15 0)
(3 -1.68371e-15 0)
(3 -1.94112e-15 0)
(3 -1.97562e-15 0)
(3 -2.57856e-15 0)
(3 -2.92877e-15 0)
(3 -2.21212e-15 0)
(3 -1.53152e-15 0)
(3 3.31091e-16 0)
(3 1.59686e-15 0)
(3 1.51464e-15 0)
(3 6.93063e-16 0)
(3 -7.12946e-16 0)
(3 -1.3369e-15 0)
(3 -6.76457e-16 0)
(3 7.89501e-17 0)
(3 4.68547e-16 0)
(3 1.07546e-15 0)
(3 1.88835e-15 0)
(3 1.42127e-15 0)
(3 6.72322e-16 0)
(3 1.59585e-16 0)
(3 3.76856e-16 0)
(3 7.50765e-16 0)
(3 8.17023e-16 0)
(3 6.54645e-16 0)
(3 1.98733e-16 0)
(3 1.87133e-16 0)
(3 -2.2108e-16 0)
(3 -6.31254e-16 0)
(3 -1.41708e-15 0)
(3 -1.64323e-15 0)
(3 -4.35036e-15 0)
(3 -5.09779e-12 0)
(3 4.15789e-13 0)
(3 1.07909e-05 0)
(3.00934 0.0201125 0)
(2.43133 0.63286 0)
(1.61608 0.951335 0)
(1.56499 0.942326 0)
(1.59653 0.925919 0)
(3 -8.85893e-17 0)
(3 1.29899e-16 0)
(3 -6.00914e-17 0)
(3 6.82598e-18 0)
(3 -2.32194e-16 0)
(3 -3.55404e-16 0)
(3 -4.03427e-16 0)
(3 -1.26938e-15 0)
(3 -1.59756e-15 0)
(3 -1.94872e-15 0)
(3 -2.55897e-15 0)
(3 -3.56551e-15 0)
(3 -4.24982e-15 0)
(3 -2.2541e-15 0)
(3 -6.17053e-16 0)
(3 3.24891e-16 0)
(3 9.13496e-16 0)
(3 7.48415e-16 0)
(3 1.10508e-15 0)
(3 8.5366e-16 0)
(3 -5.55347e-16 0)
(3 -1.03223e-15 0)
(3 -1.16394e-15 0)
(3 -7.92006e-16 0)
(3 4.27814e-16 0)
(3 1.60625e-15 0)
(3 1.56705e-15 0)
(3 1.03552e-15 0)
(3 9.07447e-16 0)
(3 7.10102e-16 0)
(3 -9.47392e-17 0)
(3 -7.46821e-16 0)
(3 -1.18612e-15 0)
(3 -1.14006e-15 0)
(3 -1.14219e-15 0)
(3 -4.46763e-16 0)
(3 -1.43835e-16 0)
(3 -4.92649e-16 0)
(3 -6.81107e-16 0)
(3 -1.00822e-15 0)
(3 -3.23343e-13 0)
(3 -3.26063e-13 0)
(3 5.72742e-09 0)
(3.00006 0.000565281 0)
(2.98954 0.106736 0)
(2.05769 0.807489 0)
(1.62352 0.943965 0)
(1.62111 0.939213 0)
(3 -2.67068e-16 0)
(3 -1.89079e-16 0)
(3 -2.62281e-16 0)
(3 -3.95214e-18 0)
(3 -2.29417e-16 0)
(3 -6.98088e-16 0)
(3 -7.69314e-16 0)
(3 -1.14669e-15 0)
(3 -1.43872e-15 0)
(3 -2.19265e-15 0)
(3 -2.66749e-15 0)
(3 -2.45508e-15 0)
(3 -1.07522e-15 0)
(3 1.25109e-16 0)
(3 5.30277e-16 0)
(3 1.39929e-15 0)
(3 8.77161e-16 0)
(3 9.50485e-16 0)
(3 5.16109e-16 0)
(3 1.46043e-15 0)
(3 1.03896e-15 0)
(3 -3.82921e-16 0)
(3 -1.11138e-15 0)
(3 -1.58694e-15 0)
(3 -1.00382e-15 0)
(3 -1.86677e-16 0)
(3 -9.93215e-17 0)
(3 8.28185e-16 0)
(3 1.08208e-15 0)
(3 5.44062e-16 0)
(3 1.27052e-16 0)
(3 -1.02559e-15 0)
(3 -1.39302e-15 0)
(3 -1.70941e-15 0)
(3 -1.62894e-15 0)
(3 -7.55157e-16 0)
(3 -4.07066e-16 0)
(3 5.60899e-18 0)
(3 -4.46836e-16 0)
(3 -1.12601e-15 0)
(3 -5.97882e-15 0)
(3 -1.10564e-13 0)
(3 1.5891e-12 0)
(3 1.24666e-06 0)
(3.00127 0.00581535 0)
(2.79768 0.326684 0)
(1.87385 0.891433 0)
(1.65183 0.955954 0)
(3 5.31157e-17 0)
(3 -3.43768e-17 0)
(3 8.67617e-17 0)
(3 2.86916e-16 0)
(3 3.52453e-16 0)
(3 2.32964e-17 0)
(3 -1.76514e-16 0)
(3 -1.31834e-16 0)
(3 -4.57897e-16 0)
(3 -1.17385e-15 0)
(3 -1.39071e-15 0)
(3 -7.88608e-16 0)
(3 -4.84834e-16 0)
(3 -3.96132e-16 0)
(3 2.226e-16 0)
(3 6.03819e-16 0)
(3 6.36834e-16 0)
(3 8.58681e-16 0)
(3 4.87037e-16 0)
(3 4.47466e-16 0)
(3 1.14451e-15 0)
(3 7.39609e-16 0)
(3 -2.08923e-16 0)
(3 -1.56566e-15 0)
(3 -8.70997e-16 0)
(3 8.46986e-16 0)
(3 2.43373e-15 0)
(3 2.28141e-15 0)
(3 1.67346e-15 0)
(3 1.03033e-15 0)
(3 5.56584e-16 0)
(3 -2.12387e-16 0)
(3 -4.24113e-16 0)
(3 -1.58428e-16 0)
(3 2.30911e-16 0)
(3 3.59417e-16 0)
(3 -1.94478e-16 0)
(3 -2.91347e-16 0)
(3 -5.00972e-16 0)
(3 -9.67029e-16 0)
(3 -6.98795e-16 0)
(3 -1.58307e-14 0)
(3 -1.68053e-14 0)
(3 7.20315e-10 0)
(2.99999 5.16798e-05 0)
(3.00064 0.0259656 0)
(2.50819 0.556913 0)
(1.7985 0.942353 0)
(3 3.25298e-16 0)
(3 3.48651e-16 0)
(3 1.25251e-16 0)
(3 2.54593e-16 0)
(3 2.3997e-16 0)
(3 1.0294e-16 0)
(3 9.57778e-17 0)
(3 3.41256e-16 0)
(3 4.25137e-16 0)
(3 5.4502e-16 0)
(3 5.99357e-16 0)
(3 8.49293e-16 0)
(3 1.59991e-16 0)
(3 -4.78131e-16 0)
(3 -5.91084e-16 0)
(3 -1.28518e-15 0)
(3 -1.67448e-15 0)
(3 -3.283e-16 0)
(3 7.09111e-16 0)
(3 5.11788e-16 0)
(3 6.16255e-16 0)
(3 4.86292e-16 0)
(3 -4.7754e-16 0)
(3 -1.50174e-15 0)
(3 -7.37534e-16 0)
(3 7.85087e-16 0)
(3 2.41501e-15 0)
(3 2.59029e-15 0)
(3 2.72752e-15 0)
(3 5.41545e-16 0)
(3 -5.20652e-16 0)
(3 5.96338e-17 0)
(3 3.13419e-16 0)
(3 3.55898e-16 0)
(3 7.7979e-16 0)
(3 5.67689e-16 0)
(3 2.49169e-16 0)
(3 -1.59915e-16 0)
(3 -2.96351e-16 0)
(3 -7.15741e-16 0)
(3 -1.05522e-15 0)
(3 -1.55843e-15 0)
(3 -6.42021e-15 0)
(3 1.45522e-13 0)
(3 5.27688e-08 0)
(2.99994 0.000732151 0)
(2.97203 0.0820053 0)
(2.28976 0.719859 0)
(3 1.79658e-17 0)
(3 -1.111e-16 0)
(3 -1.30983e-17 0)
(3 -2.8134e-16 0)
(3 -1.6303e-16 0)
(3 -7.66509e-17 0)
(3 1.58753e-17 0)
(3 1.48821e-16 0)
(3 2.87389e-16 0)
(3 5.07744e-16 0)
(3 1.53659e-15 0)
(3 1.81743e-15 0)
(3 1.0305e-15 0)
(3 -2.22839e-16 0)
(3 -1.25048e-15 0)
(3 -3.01876e-15 0)
(3 -3.00036e-15 0)
(3 -2.1612e-15 0)
(3 5.43637e-16 0)
(3 1.50706e-15 0)
(3 1.26576e-15 0)
(3 3.78619e-16 0)
(3 -4.73503e-16 0)
(3 -1.51679e-15 0)
(3 -5.74471e-16 0)
(3 -1.30906e-16 0)
(3 5.46021e-16 0)
(3 1.03287e-15 0)
(3 1.10259e-15 0)
(3 -3.66658e-16 0)
(3 -6.44335e-16 0)
(3 -1.32224e-16 0)
(3 -2.06294e-16 0)
(3 -4.89704e-16 0)
(3 -8.66934e-16 0)
(3 -1.07369e-15 0)
(3 -3.48297e-16 0)
(3 -3.57618e-16 0)
(3 -8.4788e-17 0)
(3 -2.41049e-16 0)
(3 -1.11526e-15 0)
(3 -4.25408e-16 0)
(3 -8.51704e-16 0)
(3 -1.9387e-16 0)
(3 2.80977e-11 0)
(3 1.79495e-06 0)
(2.9996 0.00405627 0)
(2.89389 0.202749 0)
(3 -3.22502e-17 0)
(3 -3.2435e-16 0)
(3 -2.37771e-16 0)
(3 -8.57949e-17 0)
(3 -2.74608e-17 0)
(3 4.08835e-16 0)