/*--------------------------------*- C++ -*----------------------------------*\
  =========                 |
  \\      /  F ield         | OpenFOAM: The Open Source CFD Toolbox
   \\    /   O peration     | Website:  https://openfoam.org
    \\  /    A nd           | Version:  7
     \\/     M anipulation  |
\*---------------------------------------------------------------------------*/
FoamFile
{
    version     2.0;
    format      ascii;
    class       volScalarField;
    location    "2.9";
    object      T;
}
// * * * * * * * * * * * * * * * * * * * * * * * * * * * * * * * * * * * * * //

dimensions      [0 0 0 1 0 0 0];

internalField   nonuniform List<scalar> 
16192
(
2.72839
2.71118
2.69644
2.68498
2.67626
2.66969
2.66478
2.66082
2.65661
2.65061
2.64201
2.63055
2.6184
2.60821
2.60098
2.59645
2.59313
2.58964
2.585
2.57801
2.56924
2.56236
2.55856
2.55638
2.55638
2.55873
2.56323
2.56831
2.57311
2.57686
2.57897
2.57953
2.5794
2.57866
2.57807
2.57819
2.57923
2.58087
2.58279
2.58504
2.5876
2.59023
2.59128
2.58887
2.58433
2.57999
2.57666
2.57476
2.57445
2.57526
2.57622
2.57621
2.57543
2.57478
2.57501
2.57725
2.58267
2.58888
2.59412
2.6001
2.60628
2.61193
2.61565
2.61723
2.62016
2.62596
2.63225
2.63869
2.64601
2.6537
2.65967
2.66319
2.6653
2.66483
2.66138
2.65695
2.65254
2.64668
2.6386
2.62866
2.61814
2.60628
2.59297
2.57775
2.56081
2.54383
2.52976
2.51864
2.5085
2.49706
2.48564
2.47652
2.46938
2.46282
2.45677
2.45073
2.44436
2.43819
2.43176
2.42217
2.40919
2.39689
2.38868
2.38275
2.37736
2.37355
2.37148
2.36969
2.36636
2.36112
2.35076
2.33529
2.32397
2.3156
2.30774
2.30054
2.29611
2.29505
2.29643
2.3005
2.30795
2.31712
2.31801
2.30903
2.29985
2.29064
2.28179
2.27456
2.26933
2.2692
2.27453
2.28038
2.28094
2.27847
2.27617
2.27467
2.27419
2.274
2.27281
2.27057
2.26545
2.2595
2.25625
2.2559
2.25706
2.26011
2.26625
2.27404
2.27928
2.28405
2.28866
2.29137
2.29368
2.29929
2.30938
2.32313
2.33937
2.35741
2.37708
2.39672
2.41454
2.42766
2.43608
2.4385
2.4345
2.43029
2.43296
2.44534
2.45925
2.46932
2.47756
2.48257
2.48361
2.48138
2.47173
2.45419
2.43054
2.40082
2.37128
2.34943
2.33493
2.32291
2.31283
2.30265
2.28985
2.27222
2.25338
2.23784
2.22646
2.21985
2.21871
2.21994
2.22294
2.2233
2.21275
2.19425
2.18546
2.18309
2.18047
2.17919
2.17964
2.18157
2.18359
2.18394
2.18276
2.17854
2.17183
2.16323
2.15582
2.15056
2.14496
2.13871
2.13334
2.12939
2.1284
2.13161
2.1408
2.14737
2.14559
2.14063
2.13479
2.12455
2.11234
2.10579
2.10372
2.10281
2.10275
2.10662
2.11512
2.12042
2.12155
2.12321
2.12501
2.12651
2.12704
2.12629
2.12275
2.11783
2.11562
2.11563
2.11672
2.11874
2.12117
2.12426
2.13006
2.13775
2.14392
2.14676
2.14793
2.14807
2.14507
2.13526
2.12644
2.72938
2.71241
2.69809
2.68704
2.67841
2.67139
2.66564
2.66085
2.65621
2.65047
2.64268
2.63232
2.62082
2.61017
2.60143
2.59454
2.58955
2.58576
2.58173
2.57596
2.56784
2.56137
2.55586
2.55104
2.54809
2.54738
2.5489
2.55307
2.55818
2.5625
2.56528
2.56639
2.56701
2.5673
2.56756
2.56825
2.56972
2.57162
2.57326
2.57471
2.5765
2.57913
2.58134
2.58124
2.57904
2.57598
2.57328
2.5715
2.57092
2.57132
2.57223
2.57257
2.57234
2.57195
2.57211
2.57385
2.57803
2.58221
2.58666
2.59177
2.5973
2.6028
2.60873
2.61505
2.62202
2.62805
2.63316
2.63829
2.64403
2.64924
2.65237
2.65398
2.65368
2.65076
2.64655
2.64388
2.64153
2.63892
2.6351
2.6291
2.62049
2.60904
2.59505
2.57905
2.56093
2.54342
2.52822
2.51563
2.50539
2.49597
2.48708
2.48027
2.47394
2.46765
2.46121
2.45386
2.44597
2.43784
2.42922
2.41992
2.40958
2.39925
2.39166
2.38573
2.38049
2.37619
2.37271
2.36855
2.3629
2.35556
2.34507
2.33213
2.32244
2.31466
2.30858
2.30409
2.30111
2.2998
2.30005
2.30167
2.30228
2.30212
2.30147
2.29729
2.2899
2.28294
2.27675
2.27182
2.26929
2.27024
2.27463
2.27796
2.27576
2.27224
2.26879
2.26572
2.26373
2.26292
2.26234
2.2614
2.26057
2.25972
2.25778
2.25548
2.25493
2.2563
2.25972
2.26483
2.27022
2.27552
2.28088
2.28653
2.29307
2.3007
2.30998
2.32176
2.33624
2.35263
2.36998
2.38667
2.40087
2.41294
2.42245
2.42797
2.43083
2.43321
2.43682
2.44436
2.45541
2.46539
2.47228
2.47536
2.47505
2.47276
2.46629
2.45302
2.43157
2.40397
2.37601
2.35495
2.33857
2.32502
2.31256
2.30042
2.28757
2.27304
2.25766
2.24429
2.23408
2.22695
2.22192
2.21918
2.21834
2.21709
2.21102
2.19858
2.19027
2.18846
2.18645
2.18462
2.18349
2.18208
2.18013
2.17804
2.17488
2.17002
2.16281
2.15419
2.14729
2.14481
2.14383
2.14237
2.13627
2.13089
2.12762
2.12821
2.13335
2.13864
2.13711
2.13242
2.12744
2.12152
2.11399
2.10736
2.10389
2.10225
2.10179
2.10404
2.11117
2.11591
2.11675
2.11822
2.11986
2.12123
2.12193
2.1217
2.11956
2.11652
2.11588
2.11676
2.11856
2.12021
2.1219
2.12416
2.12864
2.13501
2.13902
2.14035
2.14156
2.14187
2.13928
2.13183
2.12755
2.72952
2.71289
2.69953
2.68919
2.68167
2.6751
2.66879
2.66254
2.6563
2.64976
2.64236
2.63381
2.62415
2.61402
2.60424
2.59512
2.58653
2.57946
2.57315
2.56634
2.55936
2.55321
2.54726
2.54129
2.53525
2.52955
2.52547
2.52421
2.52494
2.52716
2.52942
2.5307
2.53128
2.53232
2.53377
2.53569
2.53829
2.54159
2.54487
2.54706
2.5483
2.5494
2.55086
2.55225
2.55233
2.55164
2.55064
2.55008
2.5501
2.55075
2.55194
2.55281
2.55322
2.55361
2.55472
2.55753
2.56169
2.56527
2.56902
2.57288
2.57648
2.57992
2.58567
2.59551
2.6059
2.61566
2.62451
2.63148
2.63555
2.6367
2.63602
2.63346
2.62891
2.62271
2.61764
2.61552
2.61427
2.61402
2.61381
2.61272
2.60911
2.60259
2.59268
2.57823
2.5603
2.54147
2.52424
2.50984
2.49813
2.48913
2.48319
2.47878
2.47593
2.47297
2.46753
2.45997
2.45044
2.4395
2.42747
2.41582
2.40685
2.40051
2.39456
2.38929
2.38449
2.38012
2.37585
2.37058
2.36296
2.35342
2.3411
2.32927
2.32017
2.31242
2.30713
2.30405
2.30259
2.30173
2.30047
2.29795
2.29353
2.28817
2.28349
2.27928
2.27328
2.26738
2.26252
2.25937
2.25894
2.26098
2.26621
2.26831
2.26567
2.26207
2.25783
2.25273
2.24812
2.24501
2.24343
2.24328
2.24472
2.24622
2.24716
2.24807
2.24858
2.24874
2.24881
2.24928
2.25138
2.25508
2.26042
2.26793
2.27692
2.28725
2.29899
2.31164
2.32526
2.33919
2.35224
2.36348
2.37395
2.38394
2.39178
2.39871
2.40702
2.41525
2.42329
2.43171
2.44147
2.44992
2.45442
2.45602
2.45682
2.45611
2.4528
2.44387
2.42748
2.40556
2.38366
2.36318
2.34498
2.32989
2.31501
2.2992
2.28517
2.27251
2.26128
2.25201
2.2446
2.23811
2.23057
2.22447
2.21947
2.21203
2.20278
2.19571
2.19319
2.19335
2.1925
2.19114
2.18996
2.18938
2.18943
2.18926
2.1876
2.1827
2.17334
2.16018
2.1496
2.14189
2.13956
2.13871
2.13607
2.12989
2.12491
2.12294
2.12343
2.12578
2.12471
2.12047
2.1164
2.11253
2.10707
2.10131
2.09893
2.09779
2.0975
2.09874
2.1036
2.10662
2.10691
2.10791
2.10877
2.10945
2.10984
2.10967
2.10828
2.10662
2.10715
2.10968
2.11277
2.11577
2.11868
2.12222
2.12579
2.1271
2.12844
2.12967
2.13025
2.12968
2.12661
2.12093
2.12061
2.73349
2.7153
2.70146
2.69079
2.68345
2.67774
2.67146
2.66449
2.65734
2.6502
2.64273
2.63478
2.626
2.61638
2.60652
2.59666
2.587
2.57789
2.56918
2.55991
2.55071
2.54156
2.53219
2.5226
2.51259
2.50221
2.49231
2.48419
2.47902
2.47717
2.4772
2.47718
2.47645
2.47589
2.47631
2.47784
2.48027
2.48365
2.48766
2.49131
2.49413
2.49647
2.49894
2.50127
2.50224
2.50228
2.50184
2.5014
2.50129
2.50152
2.50254
2.50412
2.50556
2.50737
2.50995
2.51341
2.51667
2.52012
2.52385
2.52784
2.53143
2.53477
2.54051
2.5498
2.56088
2.5723
2.58377
2.59306
2.59835
2.60131
2.60164
2.59907
2.5925
2.58417
2.57931
2.57754
2.57607
2.57548
2.57605
2.57702
2.57708
2.57609
2.57209
2.56295
2.55025
2.53539
2.51873
2.50203
2.48919
2.48202
2.47774
2.4756
2.4751
2.47386
2.46951
2.46305
2.45482
2.44342
2.42996
2.41834
2.41016
2.40354
2.3972
2.39113
2.38517
2.37949
2.37452
2.37016
2.36334
2.35266
2.34127
2.33133
2.3223
2.31409
2.3073
2.30175
2.29769
2.29469
2.29127
2.28514
2.27639
2.26664
2.25906
2.25416
2.24982
2.2454
2.24174
2.23984
2.24
2.24174
2.2441
2.24322
2.24025
2.23727
2.23406
2.23062
2.22732
2.22417
2.22134
2.2195
2.21896
2.2192
2.22028
2.22193
2.22343
2.22512
2.22722
2.22906
2.23031
2.23156
2.23385
2.23825
2.2452
2.2545
2.2655
2.27776
2.29094
2.3046
2.31774
2.32871
2.33612
2.34077
2.34565
2.35303
2.36216
2.37146
2.38061
2.3898
2.39956
2.40899
2.41649
2.42136
2.42436
2.42712
2.42707
2.42463
2.41688
2.40386
2.38845
2.37042
2.35378
2.3373
2.31889
2.30024
2.2872
2.27624
2.26782
2.261
2.25447
2.24868
2.24154
2.23191
2.22052
2.20786
2.19892
2.19614
2.19579
2.19546
2.1946
2.19453
2.19474
2.19463
2.19426
2.19319
2.19043
2.18504
2.17591
2.16105
2.14689
2.13652
2.13157
2.12987
2.12843
2.12291
2.11523
2.11002
2.10734
2.10723
2.1069
2.10354
2.10029
2.09733
2.09302
2.08752
2.0851
2.08423
2.08393
2.08463
2.08879
2.09256
2.09305
2.09419
2.09479
2.0947
2.09416
2.09286
2.09019
2.08863
2.0899
2.09333
2.097
2.1011
2.10642
2.11234
2.11526
2.11642
2.11674
2.11581
2.11335
2.11011
2.10581
2.10394
2.10513
2.73767
2.71886
2.70356
2.69233
2.68409
2.6783
2.67251
2.66541
2.65804
2.65084
2.64348
2.63558
2.62679
2.61691
2.60644
2.59643
2.5864
2.57672
2.56688
2.55645
2.5454
2.53327
2.5203
2.50691
2.49323
2.4792
2.465
2.45146
2.44006
2.43213
2.42772
2.42496
2.4217
2.41826
2.41536
2.41482
2.41567
2.41814
2.42132
2.42372
2.42586
2.42827
2.43147
2.43526
2.4377
2.43914
2.43957
2.43923
2.43849
2.43843
2.4392
2.44102
2.44352
2.44663
2.44997
2.45293
2.45535
2.45732
2.4591
2.461
2.46343
2.46772
2.47524
2.485
2.49551
2.50576
2.51539
2.52313
2.52882
2.53207
2.53288
2.53157
2.5275
2.52198
2.51828
2.51799
2.51827
2.51929
2.52126
2.5241
2.52648
2.52708
2.52568
2.52238
2.51754
2.51077
2.50111
2.4891
2.47936
2.47384
2.47084
2.46914
2.46756
2.46511
2.46149
2.45671
2.45022
2.4415
2.43185
2.42315
2.41556
2.40846
2.40104
2.39302
2.38476
2.37653
2.36994
2.36479
2.35872
2.34956
2.34017
2.33097
2.32211
2.31358
2.30482
2.29572
2.28717
2.27964
2.27255
2.26443
2.25393
2.24226
2.23244
2.22572
2.22135
2.21848
2.21655
2.21597
2.21632
2.21688
2.21482
2.21156
2.20823
2.20467
2.20142
2.19916
2.19735
2.19561
2.19388
2.192
2.18999
2.18803
2.18648
2.18601
2.18638
2.18785
2.19073
2.19413
2.19706
2.19977
2.20188
2.20401
2.20732
2.21222
2.21876
2.22694
2.23667
2.24769
2.25928
2.27025
2.27949
2.28684
2.29327
2.29949
2.3055
2.31146
2.3175
2.32408
2.33192
2.34108
2.35094
2.36088
2.37127
2.382
2.39061
2.39508
2.39506
2.39113
2.38285
2.37156
2.35802
2.345
2.32776
2.30697
2.29256
2.28285
2.27401
2.26727
2.26045
2.25368
2.24729
2.23778
2.22514
2.21209
2.20584
2.20519
2.20436
2.20214
2.19993
2.19972
2.20016
2.19976
2.19838
2.1957
2.19146
2.18546
2.17635
2.16246
2.14541
2.13126
2.1221
2.117
2.11461
2.10976
2.10036
2.09298
2.08874
2.08759
2.08694
2.08392
2.08099
2.07835
2.07474
2.0695
2.06586
2.06445
2.06365
2.06364
2.06678
2.07123
2.07203
2.07307
2.07414
2.0745
2.07407
2.07139
2.06652
2.06492
2.06658
2.07011
2.07362
2.07851
2.08552
2.09103
2.0932
2.09546
2.09714
2.09714
2.0943
2.08733
2.08151
2.08126
2.08334
2.73153
2.71811
2.70379
2.6923
2.68323
2.67634
2.67075
2.66502
2.65794
2.65074
2.64323
2.6348
2.62537
2.61555
2.60516
2.59434
2.58349
2.57322
2.56256
2.55136
2.53915
2.52522
2.50955
2.49283
2.47585
2.45901
2.44235
2.42606
2.41095
2.39833
2.38925
2.38304
2.3773
2.37059
2.36422
2.35899
2.35713
2.35776
2.36006
2.36063
2.36109
2.362
2.36358
2.36631
2.36837
2.36961
2.37021
2.37
2.36913
2.36886
2.36961
2.37164
2.37451
2.3777
2.38091
2.38382
2.38625
2.38806
2.38938
2.39064
2.39281
2.3971
2.4034
2.41116
2.41971
2.42837
2.43632
2.44275
2.44707
2.44923
2.45005
2.45028
2.45012
2.44881
2.44506
2.44232
2.4425
2.44333
2.44535
2.44905
2.45323
2.45517
2.45734
2.45931
2.46056
2.46067
2.45932
2.4552
2.45222
2.45252
2.45382
2.45398
2.4519
2.44817
2.44426
2.43945
2.43433
2.42969
2.42491
2.41986
2.41421
2.40754
2.39998
2.39145
2.38202
2.37256
2.36429
2.35782
2.351
2.34274
2.33348
2.32392
2.31422
2.30415
2.29297
2.28092
2.26903
2.25811
2.24841
2.23926
2.22922
2.21829
2.20835
2.20079
2.19609
2.19352
2.19211
2.19119
2.18961
2.18672
2.18343
2.17978
2.17618
2.17355
2.17172
2.17049
2.16932
2.16789
2.1663
2.164
2.16053
2.15652
2.15322
2.1516
2.15137
2.15192
2.15469
2.15903
2.16246
2.16534
2.16775
2.16876
2.16878
2.16922
2.17137
2.17577
2.18194
2.18934
2.19765
2.20668
2.21622
2.22548
2.23284
2.23746
2.24003
2.24195
2.24446
2.24856
2.2548
2.26296
2.27296
2.28533
2.30049
2.31806
2.33628
2.35091
2.36005
2.36239
2.36177
2.35873
2.3534
2.34582
2.33579
2.32038
2.30296
2.29252
2.28477
2.27653
2.26594
2.25587
2.24756
2.23912
2.22995
2.22317
2.2209
2.21972
2.2162
2.20847
2.20359
2.20321
2.202
2.20012
2.19763
2.19322
2.18699
2.1802
2.17208
2.15851
2.13991
2.12234
2.10953
2.10089
2.09545
2.09011
2.08197
2.07393
2.06973
2.06897
2.06738
2.06384
2.06114
2.05861
2.05518
2.05016
2.04671
2.04514
2.04399
2.0437
2.0463
2.05084
2.0518
2.05225
2.053
2.05319
2.0519
2.04644
2.04004
2.03886
2.04019
2.04313
2.04634
2.0517
2.05926
2.06337
2.06525
2.06762
2.06942
2.06982
2.06798
2.06158
2.05569
2.05506
2.05694
2.69576
2.69321
2.68722
2.6803
2.67331
2.66703
2.66214
2.65763
2.6519
2.64517
2.63769
2.62923
2.62
2.61033
2.60003
2.58889
2.57707
2.56511
2.55257
2.53963
2.52627
2.51179
2.49531
2.47678
2.45718
2.43775
2.41916
2.40165
2.38541
2.37116
2.35987
2.35168
2.34478
2.33689
2.32825
2.32048
2.31482
2.31274
2.3129
2.31243
2.31103
2.31047
2.31052
2.31195
2.31391
2.31407
2.31399
2.31307
2.31098
2.30907
2.3088
2.30927
2.3108
2.31322
2.31573
2.31811
2.32029
2.32224
2.32393
2.32587
2.32894
2.33286
2.33689
2.34089
2.34496
2.34936
2.35398
2.35826
2.3616
2.36411
2.36678
2.37022
2.3734
2.37453
2.37293
2.3684
2.36617
2.36615
2.36647
2.36744
2.36988
2.37284
2.37657
2.38131
2.38671
2.39233
2.39674
2.39875
2.40025
2.40412
2.40967
2.41434
2.41675
2.41676
2.41496
2.41165
2.40853
2.40545
2.40312
2.40057
2.39642
2.39051
2.3837
2.37619
2.36805
2.35961
2.3518
2.34485
2.33666
2.32641
2.31509
2.30386
2.29247
2.28034
2.26748
2.25469
2.24229
2.2309
2.22116
2.21277
2.2044
2.19542
2.18702
2.18072
2.17681
2.17401
2.17034
2.16609
2.16194
2.1577
2.15406
2.15188
2.15112
2.15174
2.15292
2.15338
2.15243
2.14998
2.14558
2.13999
2.1343
2.12921
2.12587
2.12487
2.12491
2.1272
2.13171
2.13627
2.13892
2.14003
2.14052
2.1391
2.13434
2.13027
2.12973
2.13137
2.13545
2.14082
2.14749
2.15506
2.16349
2.1718
2.17837
2.18106
2.18012
2.17731
2.17668
2.17856
2.18366
2.19087
2.20024
2.21264
2.22821
2.24658
2.26651
2.28616
2.30409
2.31834
2.3275
2.33306
2.33516
2.33489
2.33248
2.3275
2.31528
2.30311
2.2943
2.28382
2.2717
2.26009
2.24993
2.24126
2.23508
2.23317
2.23315
2.23081
2.22411
2.21331
2.20789
2.20901
2.20689
2.20011
2.19416
2.18662
2.17689
2.16789
2.15982
2.14661
2.12711
2.10783
2.09314
2.08229
2.07405
2.06756
2.06174
2.05706
2.05542
2.05499
2.05242
2.04955
2.047
2.04383
2.03893
2.03284
2.0292
2.02739
2.02597
2.02591
2.02918
2.03357
2.03542
2.03554
2.03553
2.03526
2.03236
2.0244
2.01788
2.01675
2.01705
2.01844
2.0205
2.02426
2.03032
2.03498
2.03691
2.03875
2.04036
2.04098
2.04025
2.03702
2.03264
2.02988
2.03021
2.62383
2.62958
2.63301
2.63631
2.6377
2.63758
2.63638
2.63373
2.62946
2.6236
2.61661
2.60882
2.60051
2.59175
2.58235
2.5719
2.55987
2.54586
2.53003
2.51355
2.49727
2.48171
2.46595
2.44833
2.42877
2.40882
2.38988
2.37261
2.35703
2.34342
2.33249
2.32455
2.31816
2.3108
2.30218
2.29372
2.28667
2.28235
2.28055
2.27946
2.27769
2.27654
2.27603
2.27654
2.27772
2.27685
2.27511
2.27261
2.26866
2.26513
2.26395
2.26398
2.26522
2.26788
2.27069
2.27308
2.27508
2.27651
2.27762
2.27913
2.28114
2.28288
2.28414
2.2849
2.28541
2.28633
2.2881
2.29046
2.29317
2.29646
2.30024
2.30412
2.30741
2.30934
2.30888
2.30487
2.30071
2.2988
2.29763
2.29673
2.2967
2.29804
2.30061
2.30443
2.30953
2.31577
2.32222
2.32764
2.33205
2.33687
2.34228
2.34787
2.35284
2.35649
2.35946
2.36192
2.36333
2.36372
2.36346
2.3616
2.3576
2.35242
2.34665
2.34033
2.33349
2.32705
2.32144
2.31536
2.30633
2.29395
2.28087
2.26894
2.25733
2.24441
2.232
2.22093
2.21051
2.20122
2.19383
2.1879
2.1816
2.17451
2.16845
2.16421
2.16001
2.15452
2.14882
2.14315
2.13864
2.13591
2.13472
2.13544
2.13946
2.1438
2.14433
2.14235
2.1375
2.13055
2.12409
2.11808
2.11385
2.11171
2.11078
2.11127
2.11389
2.11764
2.11939
2.11926
2.11885
2.11774
2.1161
2.11358
2.10993
2.10657
2.10555
2.10603
2.10861
2.11378
2.12007
2.12641
2.13181
2.13601
2.13814
2.1374
2.13304
2.12768
2.12555
2.1262
2.12985
2.13573
2.14313
2.15261
2.16497
2.17984
2.19574
2.21276
2.23222
2.25397
2.2752
2.29258
2.30552
2.31564
2.3211
2.32112
2.31772
2.30823
2.29697
2.28619
2.27489
2.26409
2.25354
2.24517
2.24273
2.2427
2.24177
2.23608
2.22642
2.21533
2.21133
2.21334
2.21133
2.19876
2.18691
2.17533
2.16074
2.14739
2.13751
2.12446
2.10612
2.08818
2.0737
2.06272
2.0544
2.04866
2.04622
2.04637
2.04735
2.0459
2.04202
2.03833
2.03412
2.02903
2.02325
2.01799
2.0152
2.01377
2.01333
2.01537
2.02032
2.0245
2.02568
2.02499
2.02364
2.02105
2.01553
2.00735
2.00246
2.00096
2.00028
2.00019
2.00075
2.00293
2.00707
2.01113
2.01379
2.01505
2.01601
2.01626
2.01587
2.01489
2.0136
2.01144
2.0082
2.52674
2.53744
2.54617
2.55519
2.56421
2.57195
2.57632
2.57734
2.57634
2.57292
2.56774
2.56147
2.55429
2.54647
2.53793
2.52856
2.51761
2.50366
2.48661
2.46833
2.45032
2.43394
2.41928
2.40427
2.38744
2.36966
2.35288
2.33801
2.32475
2.31345
2.30489
2.29936
2.29488
2.28862
2.28118
2.27402
2.26772
2.26332
2.26105
2.25949
2.25731
2.25565
2.2542
2.25311
2.25277
2.25175
2.24952
2.24696
2.24351
2.24081
2.24024
2.24058
2.24275
2.2451
2.24588
2.24634
2.24632
2.24571
2.24547
2.24606
2.24709
2.24765
2.24774
2.24746
2.24655
2.24562
2.24547
2.24583
2.24697
2.24917
2.25166
2.25398
2.25575
2.25639
2.25505
2.25082
2.24689
2.24459
2.24327
2.24277
2.24276
2.24366
2.24598
2.24892
2.25188
2.25556
2.25977
2.26359
2.26685
2.27043
2.27466
2.27943
2.28404
2.28839
2.29333
2.298
2.30213
2.3049
2.30516
2.30424
2.30149
2.29748
2.29277
2.28735
2.28161
2.27751
2.27414
2.26933
2.26108
2.25014
2.23763
2.22676
2.21679
2.20527
2.19548
2.1874
2.18015
2.17414
2.16981
2.16608
2.16091
2.15554
2.15149
2.1483
2.14378
2.13844
2.13266
2.12771
2.12541
2.12488
2.12652
2.1323
2.1375
2.13758
2.13551
2.13074
2.12272
2.11317
2.10731
2.10499
2.10361
2.10383
2.10632
2.10945
2.11011
2.10906
2.10746
2.1053
2.10357
2.10231
2.10121
2.10026
2.09959
2.09916
2.09912
2.0993
2.10014
2.10199
2.10382
2.10495
2.10578
2.10608
2.10516
2.10226
2.09902
2.09681
2.0962
2.09686
2.09985
2.10517
2.11131
2.11771
2.12463
2.13184
2.13893
2.14839
2.16266
2.18232
2.20576
2.23062
2.25477
2.276
2.29186
2.30162
2.30353
2.2996
2.29108
2.28324
2.2745
2.26546
2.25728
2.25203
2.25092
2.25006
2.24379
2.23316
2.22041
2.21035
2.20857
2.21007
2.20749
2.19052
2.17192
2.15607
2.13701
2.12017
2.1094
2.0976
2.08212
2.06737
2.05511
2.04602
2.03996
2.03772
2.0387
2.04099
2.03961
2.03491
2.03027
2.02587
2.02132
2.01574
2.01046
2.0076
2.00649
2.00621
2.0082
2.01346
2.01765
2.01807
2.01648
2.01417
2.01129
2.00727
2.00085
1.99463
1.99183
1.99069
1.99006
1.9898
1.98997
1.99135
1.99318
1.99473
1.99565
1.99639
1.9967
1.99668
1.9966
1.99664
1.99681
1.9966
1.99326
2.42845
2.43888
2.4487
2.45828
2.46854
2.47781
2.48492
2.49013
2.49258
2.4925
2.49112
2.48809
2.48324
2.47673
2.4687
2.45995
2.45078
2.43913
2.42397
2.40684
2.39003
2.37461
2.36165
2.35013
2.33756
2.32386
2.31179
2.30114
2.29181
2.28427
2.27936
2.27697
2.27398
2.26843
2.26284
2.25799
2.25354
2.2502
2.24848
2.24628
2.24328
2.24105
2.23925
2.23778
2.2373
2.23739
2.23694
2.23544
2.23367
2.23177
2.23071
2.23039
2.22998
2.22917
2.22814
2.22682
2.22536
2.22456
2.22448
2.22496
2.22583
2.22598
2.22537
2.22365
2.221
2.2183
2.21622
2.21532
2.21559
2.2166
2.21763
2.21809
2.21824
2.21783
2.21596
2.21322
2.21232
2.21236
2.21286
2.21429
2.21639
2.2187
2.22073
2.2216
2.2218
2.22173
2.22091
2.22032
2.2205
2.22135
2.22309
2.22541
2.22762
2.2298
2.23266
2.236
2.23921
2.24131
2.24153
2.24086
2.23912
2.23658
2.23347
2.2299
2.22672
2.22543
2.22432
2.22131
2.21494
2.20657
2.19696
2.18772
2.18015
2.17201
2.1648
2.1596
2.15526
2.15222
2.14994
2.14688
2.14314
2.13958
2.13699
2.13485
2.13186
2.12812
2.12378
2.1207
2.12004
2.12138
2.12578
2.12986
2.1299
2.12854
2.12624
2.12091
2.11083
2.10357
2.1008
2.09967
2.10098
2.10481
2.10722
2.10638
2.10422
2.1011
2.09832
2.09684
2.09612
2.09589
2.09612
2.0972
2.09776
2.09767
2.09697
2.0954
2.09297
2.09079
2.08966
2.08853
2.08706
2.08533
2.08391
2.08307
2.08311
2.08427
2.08638
2.08836
2.08998
2.0912
2.09188
2.0918
2.0921
2.09312
2.0944
2.09871
2.10873
2.12385
2.14271
2.16489
2.18938
2.21422
2.23738
2.25598
2.26648
2.26911
2.27075
2.27055
2.2682
2.2639
2.26011
2.25771
2.2539
2.24659
2.23664
2.22264
2.20796
2.19945
2.1988
2.19892
2.1921
2.1704
2.14642
2.12759
2.10742
2.09117
2.08164
2.07151
2.05968
2.04852
2.0397
2.0338
2.03102
2.03136
2.03344
2.03241
2.02789
2.02346
2.01901
2.01397
2.00853
2.00468
2.00286
2.00201
2.00213
2.0047
2.00939
2.01221
2.01145
2.00949
2.00728
2.00463
2.00092
1.99555
1.98974
1.98665
1.98559
1.98515
1.98569
1.9868
1.98702
1.98628
1.98493
1.98355
1.98271
1.98254
1.98288
1.98383
1.9849
1.98586
1.98633
1.98613
1.98281
2.35204
2.35797
2.36532
2.37284
2.38004
2.38712
2.39394
2.39988
2.40363
2.40553
2.40595
2.40542
2.40344
2.39943
2.39319
2.38537
2.3773
2.36808
2.35555
2.34108
2.32786
2.31634
2.30725
2.29995
2.29202
2.28393
2.27643
2.27008
2.26513
2.26168
2.26037
2.25958
2.25704
2.25236
2.24803
2.24518
2.2424
2.24037
2.23962
2.23823
2.23547
2.23296
2.2314
2.2305
2.23072
2.23175
2.23176
2.23015
2.22809
2.22588
2.22391
2.22225
2.22055
2.2189
2.21732
2.21616
2.2156
2.21556
2.21564
2.21523
2.21406
2.2125
2.21025
2.20715
2.20417
2.20221
2.20116
2.20075
2.2011
2.2026
2.20267
2.20236
2.20164
2.20008
2.19888
2.199
2.19978
2.2021
2.20451
2.20602
2.2062
2.20541
2.20355
2.20056
2.19708
2.19311
2.18917
2.18671
2.18598
2.18602
2.18644
2.1869
2.18717
2.1873
2.18794
2.18914
2.19054
2.19184
2.1926
2.19243
2.19178
2.19085
2.18962
2.18815
2.18773
2.18768
2.18676
2.1834
2.17765
2.17136
2.16515
2.1595
2.15446
2.14959
2.14494
2.14062
2.13779
2.13596
2.13432
2.13236
2.13016
2.1283
2.127
2.12616
2.12513
2.123
2.12038
2.11936
2.11982
2.12155
2.12286
2.12254
2.12175
2.12063
2.11782
2.11168
2.10489
2.10091
2.09967
2.10037
2.10309
2.10414
2.10254
2.10043
2.09805
2.09553
2.0942
2.09345
2.09327
2.09356
2.094
2.09387
2.09308
2.09175
2.09068
2.08952
2.08742
2.08413
2.08094
2.07902
2.07763
2.07654
2.07628
2.07756
2.08143
2.0849
2.08577
2.08539
2.08283
2.07822
2.07444
2.07127
2.06811
2.06672
2.06765
2.07166
2.07998
2.09068
2.10308
2.1182
2.13525
2.15373
2.17341
2.19191
2.20544
2.21565
2.22824
2.23759
2.2431
2.24753
2.24958
2.24836
2.24287
2.2332
2.21997
2.20387
2.18914
2.18146
2.17846
2.17539
2.16214
2.13864
2.115
2.09617
2.07857
2.06638
2.05922
2.05077
2.04219
2.03391
2.02873
2.02577
2.02541
2.0266
2.02614
2.02224
2.01765
2.01285
2.00732
2.0023
1.99971
1.99864
1.99833
2.00011
2.0037
2.00728
2.00769
2.00631
2.00437
2.00231
1.99992
1.9967
1.9924
1.98766
1.9843
1.98308
1.98289
1.9837
1.98515
1.98558
1.98441
1.98272
1.98052
1.97798
1.97599
1.97508
1.9751
1.97659
1.97797
1.97808
1.97734
1.97548
1.97218
2.30578
2.30952
2.31548
2.32197
2.32676
2.32963
2.33148
2.33207
2.33158
2.33082
2.33028
2.33015
2.33008
2.32886
2.32491
2.31893
2.31235
2.30557
2.29725
2.28834
2.28129
2.27527
2.27057
2.26616
2.26129
2.25643
2.25205
2.24951
2.24764
2.24727
2.24769
2.24757
2.24585
2.24152
2.23736
2.23527
2.23409
2.23365
2.23399
2.23405
2.23237
2.22989
2.22832
2.22763
2.22779
2.22761
2.22606
2.224
2.22148
2.21912
2.21757
2.21684
2.21633
2.2153
2.21411
2.21295
2.21198
2.21095
2.20953
2.20773
2.2058
2.2034
2.20067
2.19876
2.19751
2.19669
2.19679
2.19802
2.19971
2.20015
2.19941
2.19828
2.19609
2.19341
2.19252
2.19214
2.19215
2.19262
2.19341
2.19338
2.19259
2.19107
2.18787
2.18301
2.17796
2.17402
2.17146
2.16992
2.16892
2.16884
2.16962
2.16965
2.16919
2.16864
2.16834
2.1683
2.16836
2.16851
2.16837
2.16761
2.16662
2.16571
2.16465
2.16353
2.16244
2.16073
2.15768
2.15361
2.14981
2.1465
2.14378
2.14159
2.13934
2.13698
2.13423
2.13104
2.12754
2.12437
2.12252
2.12193
2.12144
2.121
2.12093
2.12147
2.12179
2.12123
2.1199
2.11897
2.11852
2.11792
2.11708
2.11612
2.11472
2.11255
2.10975
2.10658
2.10421
2.10297
2.10295
2.10294
2.10135
2.09904
2.09678
2.09464
2.09336
2.09281
2.09292
2.09356
2.09313
2.09204
2.09002
2.08787
2.0861
2.08477
2.08383
2.08313
2.08252
2.08137
2.07875
2.07574
2.07438
2.07414
2.07568
2.0792
2.08164
2.08172
2.08106
2.07941
2.07555
2.06881
2.06199
2.05795
2.05617
2.05594
2.05729
2.0639
2.07445
2.0831
2.08869
2.09522
2.10203
2.10782
2.11466
2.12413
2.13541
2.15083
2.16899
2.18394
2.19652
2.20943
2.21438
2.21412
2.21128
2.20191
2.18765
2.17214
2.15957
2.15245
2.14736
2.13925
2.12223
2.10051
2.08233
2.06745
2.05503
2.04812
2.04272
2.03662
2.02971
2.02287
2.02041
2.01954
2.02003
2.0206
2.01843
2.01442
2.0093
2.00304
1.9982
1.99586
1.99471
1.99535
1.99898
2.00396
2.00549
2.00465
2.00254
2.00047
1.99851
1.99595
1.99284
1.99002
1.98699
1.98404
1.98255
1.98207
1.98203
1.98195
1.98163
1.98108
1.98015
1.97864
1.97731
1.97602
1.97454
1.97306
1.97203
1.97141
1.97062
1.96874
1.96627
1.96461
1.96388
2.28879
2.29192
2.29344
2.29355
2.29329
2.29178
2.28778
2.28406
2.28253
2.28198
2.28191
2.28302
2.28468
2.28419
2.28152
2.27709
2.27248
2.26833
2.264
2.26097
2.25857
2.256
2.25299
2.24969
2.24467
2.23867
2.2373
2.2373
2.23763
2.23897
2.2403
2.2406
2.23975
2.23597
2.23167
2.22953
2.22903
2.22929
2.23041
2.23089
2.23007
2.22807
2.22626
2.22544
2.22487
2.2233
2.221
2.2186
2.21655
2.21507
2.21429
2.21484
2.21588
2.21564
2.2145
2.21245
2.20937
2.20633
2.20424
2.2022
2.1999
2.19808
2.19686
2.19604
2.19633
2.19743
2.19893
2.19984
2.19922
2.19769
2.19572
2.19283
2.18918
2.18621
2.18477
2.18367
2.18268
2.18206
2.18181
2.18098
2.17952
2.17818
2.17681
2.17478
2.1714
2.16797
2.16613
2.16519
2.16513
2.16574
2.16646
2.1663
2.16498
2.1633
2.16152
2.15943
2.15706
2.15474
2.15296
2.15178
2.15077
2.14964
2.1483
2.14683
2.14516
2.14298
2.13988
2.13625
2.13338
2.13278
2.13272
2.13255
2.13197
2.13083
2.12881
2.12635
2.12341
2.11996
2.11717
2.11627
2.11625
2.11633
2.11731
2.11905
2.11952
2.11903
2.11738
2.11556
2.11428
2.1131
2.11174
2.11042
2.10922
2.10772
2.10618
2.10586
2.10718
2.10767
2.10577
2.10198
2.09787
2.09448
2.09205
2.09095
2.09049
2.09158
2.09343
2.09311
2.09201
2.08966
2.08598
2.08219
2.08021
2.07925
2.07884
2.07897
2.07988
2.07981
2.07867
2.07724
2.07625
2.07619
2.07684
2.07709
2.07649
2.07555
2.07452
2.0725
2.06871
2.06326
2.05739
2.0535
2.05221
2.05279
2.05766
2.06606
2.07168
2.07297
2.07414
2.07523
2.07521
2.07358
2.07093
2.07144
2.07842
2.09281
2.10878
2.12471
2.14134
2.15452
2.16027
2.16231
2.16033
2.15184
2.13984
2.1286
2.12134
2.11608
2.11003
2.09783
2.08122
2.06421
2.05417
2.04427
2.03828
2.03561
2.032
2.02801
2.02141
2.01507
2.01366
2.01362
2.0143
2.01429
2.01215
2.00834
2.00257
1.99706
1.99416
1.9929
1.99384
1.99817
2.00299
2.00322
2.00198
1.99972
1.99703
1.99413
1.99175
1.9902
1.98893
1.98689
1.98491
1.98342
1.98169
1.98003
1.97844
1.97672
1.97532
1.97447
1.97395
1.97418
1.9749
1.97578
1.97543
1.974
1.97161
1.96817
1.96417
1.96018
1.95713
1.95609
1.95532
2.28344
2.28115
2.27837
2.27448
2.27012
2.26707
2.26526
2.2641
2.264
2.26526
2.26684
2.26744
2.26681
2.26479
2.26133
2.25732
2.2541
2.25149
2.24933
2.24867
2.24781
2.24599
2.24321
2.23955
2.23403
2.22906
2.22883
2.22927
2.23108
2.2345
2.23643
2.23694
2.23653
2.23338
2.22976
2.22785
2.22711
2.2272
2.22764
2.22764
2.22669
2.22496
2.22358
2.22298
2.22246
2.22096
2.21846
2.21547
2.2136
2.21278
2.21313
2.21465
2.21562
2.21494
2.21362
2.21162
2.20795
2.20303
2.19954
2.19766
2.19638
2.19533
2.19536
2.19694
2.199
2.19971
2.19902
2.19761
2.19569
2.1936
2.19116
2.18784
2.18341
2.18
2.17831
2.17694
2.17568
2.17471
2.17406
2.17384
2.17378
2.1734
2.17286
2.17209
2.17089
2.16882
2.16666
2.16525
2.16412
2.163
2.16185
2.16056
2.15879
2.15679
2.15459
2.15208
2.14926
2.146
2.143
2.14144
2.14096
2.14072
2.14001
2.13888
2.13736
2.13527
2.13204
2.12867
2.12767
2.12795
2.12869
2.12879
2.12789
2.12632
2.12448
2.12286
2.12135
2.11925
2.11639
2.1144
2.11419
2.11467
2.11625
2.11701
2.11611
2.11416
2.11211
2.11057
2.10944
2.10862
2.10799
2.10726
2.10647
2.10622
2.10675
2.1084
2.10885
2.10739
2.10431
2.09975
2.09454
2.09128
2.08975
2.08896
2.08951
2.0915
2.09153
2.0909
2.08988
2.08719
2.08217
2.07907
2.07785
2.07689
2.07635
2.07794
2.08044
2.08131
2.08119
2.08058
2.07936
2.07734
2.07451
2.07186
2.07008
2.06838
2.06608
2.06294
2.05987
2.05744
2.05568
2.05436
2.0545
2.05712
2.06136
2.06332
2.06289
2.06214
2.06153
2.06001
2.05551
2.04848
2.04618
2.04696
2.0515
2.06071
2.07385
2.08745
2.09811
2.10399
2.10633
2.10613
2.10378
2.09728
2.0908
2.08649
2.08428
2.08156
2.07485
2.06379
2.04602
2.03648
2.03168
2.02852
2.02864
2.02801
2.02588
2.02275
2.0157
2.00913
2.00794
2.00814
2.00911
2.00916
2.00789
2.00443
1.99867
1.99479
1.99335
1.99378
1.99726
2.00091
2.00051
1.99883
1.99658
1.99337
1.99001
1.98836
1.98772
1.98732
1.98715
1.98686
1.98569
1.98356
1.97963
1.97508
1.97248
1.97057
1.96883
1.96785
1.96856
1.971
1.97496
1.97727
1.97693
1.97548
1.97184
1.96554
1.95837
1.95272
1.9503
1.94937
1.94817
2.27722
2.27401
2.26893
2.26493
2.2623
2.26028
2.25983
2.26171
2.2637
2.26363
2.26128
2.2584
2.2553
2.25238
2.24927
2.24606
2.24373
2.24212
2.24126
2.24112
2.24096
2.23986
2.23765
2.2344
2.22922
2.226
2.22629
2.227
2.22872
2.23177
2.23413
2.23499
2.23421
2.23116
2.22908
2.22846
2.22816
2.22693
2.22513
2.22339
2.2218
2.22089
2.2202
2.21995
2.2203
2.21974
2.21803
2.21521
2.21309
2.21239
2.21267
2.2134
2.21331
2.21227
2.21099
2.20931
2.20628
2.20152
2.19776
2.19571
2.19455
2.19464
2.19673
2.19904
2.19897
2.19773
2.19595
2.194
2.19185
2.18919
2.18578
2.18225
2.17986
2.17771
2.17583
2.17442
2.17316
2.17206
2.17137
2.17132
2.17227
2.17342
2.17383
2.17345
2.17239
2.17046
2.16712
2.16321
2.16046
2.1584
2.15663
2.15486
2.15285
2.15064
2.1482
2.14533
2.14223
2.14014
2.13891
2.13792
2.13755
2.13781
2.13769
2.137
2.13572
2.1338
2.13119
2.12873
2.12678
2.12471
2.12264
2.12136
2.12072
2.12039
2.12013
2.11995
2.11979
2.11948
2.1185
2.1164
2.11445
2.11414
2.11365
2.11231
2.11071
2.10884
2.10724
2.10608
2.10552
2.10549
2.10567
2.10622
2.10702
2.10816
2.10873
2.10853
2.10662
2.10353
2.10006
2.09641
2.09333
2.09075
2.08916
2.08874
2.08921
2.08894
2.08845
2.08793
2.08663
2.08381
2.08079
2.07853
2.07718
2.07658
2.0773
2.07967
2.08147
2.08155
2.08067
2.07938
2.07787
2.07588
2.07252
2.06837
2.06466
2.06147
2.05875
2.05675
2.05516
2.0546
2.05609
2.05934
2.06211
2.06229
2.06058
2.05769