/*--------------------------------*- C++ -*----------------------------------*\
  =========                 |
  \\      /  F ield         | OpenFOAM: The Open Source CFD Toolbox
   \\    /   O peration     | Website:  https://openfoam.org
    \\  /    A nd           | Version:  7
     \\/     M anipulation  |
\*---------------------------------------------------------------------------*/
FoamFile
{
    version     2.0;
    format      ascii;
    class       volScalarField;
    location    "1.9";
    object      rho;
}
// * * * * * * * * * * * * * * * * * * * * * * * * * * * * * * * * * * * * * //

dimensions      [1 -3 0 0 0 0 0];

internalField   nonuniform List<scalar> 
16512
(
2.54325
2.53912
2.53158
2.52248
2.50824
2.47707
2.41901
2.36592
2.35069
2.34601
2.34646
2.35412
2.35248
2.34595
2.33893
2.32981
2.3095
2.267
2.21615
2.19699
2.19332
2.19294
2.18934
2.18377
2.1792
2.17326
2.16427
2.14469
2.10415
2.06472
2.05443
2.0492
2.04522
2.04389
2.04099
2.03499
2.02831
2.01962
2.00316
1.96844
1.93846
1.93288
1.92782
1.92219
1.91853
1.91646
1.91247
1.90642
1.89805
1.88175
1.84882
1.81237
1.80039
1.79789
1.79604
1.79654
1.79586
1.79184
1.78714
1.78128
1.77206
1.75285
1.72042
1.69144
1.6838
1.68243
1.68466
1.69256
1.6953
1.6919
1.68747
1.68133
1.66928
1.64633
1.60861
1.57794
1.56728
1.56611
1.56987
1.58554
1.60295
1.60586
1.60173
1.59518
1.58251
1.55845
1.51742
1.48319
1.47104
1.4694
1.47082
1.4814
1.50156
1.51437
1.51371
1.50968
1.5015
1.48489
1.45738
1.42451
1.40601
1.39989
1.39883
1.40141
1.41238
1.42382
1.42497
1.42215
1.41774
1.40777
1.38984
1.36474
1.34553
1.33878
1.33793
1.33968
1.34858
1.35856
1.35901
1.35583
1.3506
1.33907
1.3172
1.28894
1.27434
1.27222
1.27236
1.27904
1.29554
1.30821
1.3084
1.30514
1.29681
1.27763
1.24374
1.21819
1.21186
1.21134
1.21434
1.22934
1.2512
1.25846
1.25678
1.25202
1.23939
1.21018
1.17441
1.16074
1.15935
1.15972
1.1677
1.18925
1.20856
1.21042
1.20778
1.20172
1.18652
1.15552
1.12695
1.11954
1.11897
1.12037
1.13068
1.15047
1.16085
1.16017
1.15763
1.15231
1.13882
1.11569
1.10007
1.09799
1.09701
1.09996
1.11976
1.20331
1.46681
1.71061
1.89591
1.95089
1.93823
1.95039
1.95498
1.95471
1.95468
1.94984
1.94523
1.93872
1.92301
1.89754
1.88348
1.87969
1.88112
1.89515
1.90731
1.90561
1.8998
1.88704
1.86482
1.8466
1.8414
1.83921
1.84233
1.8549
1.86062
1.85757
1.84963
1.83254
1.81292
1.80547
1.80253
1.80155
1.80735
1.81378
1.81077
1.80524
1.79752
1.78582
1.78368
1.79929
1.8501
1.96822
2.06082
2.12794
2.16693
2.16414
2.14986
2.14355
2.14011
2.14068
2.14081
2.13628
2.13152
2.12349
2.11007
2.10118
2.09691
2.09453
2.09672
2.09834
2.09479
2.09007
2.08309
2.07306
2.06663
2.06331
2.06095
2.06069
2.0623
2.05978
2.05488
2.04773
2.03804
2.03067
2.02633
2.02323
2.02128
2.01896
2.57202
2.5646
2.55598
2.5436
2.51743
2.46592
2.40402
2.37961
2.37467
2.3736
2.38315
2.3873
2.38093
2.37383
2.36524
2.3482
2.31001
2.25409
2.22385
2.21801
2.21586
2.21714
2.21256
2.20679
2.20097
2.1935
2.17993
2.14734
2.10053
2.07921
2.07401
2.06971
2.06727
2.06648
2.06283
2.05659
2.04905
2.03709
2.00951
1.97046
1.95629
1.95259
1.94663
1.94063
1.9372
1.93478
1.93006
1.92293
1.91103
1.88487
1.84582
1.82594
1.82341
1.82063
1.81777
1.81602
1.81384
1.80934
1.80359
1.79589
1.78146
1.75245
1.7202
1.70919
1.70774
1.7081
1.7123
1.71325
1.70977
1.70557
1.69979
1.68907
1.66871
1.63461
1.60346
1.59169
1.59051
1.59413
1.60885
1.62372
1.62494
1.62063
1.61421
1.60191
1.5785
1.53776
1.50268
1.48995
1.4883
1.48999
1.50121
1.52209
1.535
1.53424
1.53007
1.52118
1.50315
1.47274
1.43925
1.42268
1.41754
1.41657
1.42
1.43214
1.44312
1.44363
1.44065
1.43564
1.42422
1.40451
1.37853
1.36059
1.35439
1.35357
1.3556
1.36503
1.37545
1.37605
1.3728
1.36733
1.35539
1.33306
1.30414
1.28894
1.28633
1.28635
1.29259
1.30898
1.323
1.32392
1.32089
1.31304
1.29461
1.26112
1.23342
1.22568
1.22501
1.22729
1.24082
1.2631
1.27207
1.27059
1.26625
1.25498
1.22839
1.19088
1.17375
1.17164
1.17162
1.17802
1.19799
1.21999
1.22406
1.22168
1.21644
1.20329
1.17477
1.14212
1.13077
1.12985
1.13043
1.13829
1.15729
1.17165
1.17213
1.16984
1.16542
1.1542
1.13274
1.11263
1.10727
1.10651
1.10931
1.13985
1.24826
1.52426
1.81876
1.92678
1.9835
1.97479
1.94807
1.94584
1.95997
1.97055
1.97559
1.97072
1.96086
1.94853
1.9284
1.90827
1.90229
1.90005
1.90708
1.92173
1.92329
1.91888
1.90781
1.88536
1.86294
1.85593
1.85357
1.85623
1.86925
1.87776
1.87517
1.8689
1.85496
1.83297
1.82082
1.81742
1.81559
1.81915
1.82902
1.82973
1.82458
1.81726
1.80556
1.79887
1.81248
1.86266
1.95968
2.08594
2.14765
2.17665
2.17728
2.16966
2.16126
2.15853
2.15706
2.15914
2.15928
2.1539
2.1461
2.13384
2.12272
2.11823
2.11499
2.11416
2.11681
2.11429
2.10892
2.10213
2.09239
2.08362
2.07934
2.07658
2.07555
2.07736
2.07661
2.07207
2.0656
2.05672
2.0485
2.04425
2.04093
2.0387
2.03737
2.03457
2.59819
2.58984
2.57864
2.55643
2.51174
2.44601
2.41092
2.40424
2.40185
2.41024
2.42112
2.41626
2.40904
2.40066
2.38608
2.35202
2.29489
2.25385
2.24401
2.23991
2.24086
2.24159
2.23601
2.22991
2.22279
2.21239
2.18784
2.14176
2.1063
2.09926
2.09491
2.09223
2.09091
2.08923
2.08478
2.07815
2.06872
2.04929
2.00996
1.97995
1.97467
1.97138
1.96479
1.95909
1.95609
1.95278
1.94719
1.93809
1.91926
1.88317
1.85308
1.84793
1.84554
1.84125
1.83693
1.83454
1.83205
1.82699
1.8198
1.80858
1.78552
1.7517
1.73403
1.73194
1.73106
1.73206
1.73172
1.72798
1.7236
1.71808
1.70889
1.69098
1.66102
1.63019
1.61705
1.6158
1.6189
1.63181
1.64344
1.64317
1.63904
1.6332
1.62166
1.5992
1.55931
1.52363
1.5101
1.5083
1.51
1.52175
1.54273
1.55513
1.55429
1.55003
1.54081
1.52186
1.48903
1.45489
1.43939
1.43524
1.43452
1.43917
1.45284
1.46366
1.46336
1.46003
1.45417
1.44097
1.41902
1.39182
1.37522
1.36977
1.36904
1.37155
1.38186
1.39299
1.3938
1.3905
1.3847
1.37205
1.34883
1.31902
1.30337
1.3003
1.30028
1.30631
1.32288
1.33818
1.33987
1.33699
1.32946
1.31164
1.27833
1.24872
1.23968
1.23882
1.24054
1.25273
1.27513
1.28601
1.28486
1.28076
1.27042
1.24605
1.20773
1.18704
1.18382
1.18363
1.18875
1.2071
1.23107
1.23784
1.23577
1.23107
1.21965
1.19393
1.15867
1.14296
1.14138
1.14136
1.14713
1.16445
1.18189
1.18424
1.18209
1.17824
1.16899
1.14958
1.12645
1.11713
1.11628
1.11992
1.1632
1.3295
1.60086
1.89742
2.00907
2.00531
1.98297
1.96444
1.95434
1.95287
1.96751
1.98462
1.98933
1.98524
1.97131
1.9472
1.92887
1.9231
1.921
1.92612
1.94073
1.94344
1.93759
1.92745
1.90763
1.88189
1.87124
1.86884
1.87072
1.88371
1.89639
1.89529
1.88933
1.87531
1.85293
1.83666
1.83259
1.83056
1.83265
1.84286
1.84688
1.84297
1.83724
1.82709
1.81691
1.82586
1.87693
1.968
2.09179
2.1703
2.18957
2.20002
2.19616
2.18676
2.17813
2.17339
2.17132
2.17219
2.17156
2.16664
2.15757
2.14409
2.13604
2.13228
2.13028
2.13259
2.135
2.13125
2.12527
2.11498
2.10213
2.0964
2.09356
2.09234
2.09468
2.09509
2.09078
2.08415
2.07478
2.06544
2.06088
2.0577
2.05558
2.05428
2.05169
2.04799
2.62386
2.61342
2.5942
2.55541
2.49086
2.44548
2.43518
2.43166
2.43728
2.45267
2.45151
2.44406
2.43593
2.42293
2.39272
2.33743
2.28632
2.27067
2.2657
2.26414
2.26846
2.26606
2.26001
2.25324
2.24432
2.22594
2.1854
2.13921
2.12478
2.12038
2.11767
2.11667
2.11489
2.11163
2.10656
2.09901
2.08528
2.0527
2.01027
1.99593
1.99265
1.99003
1.9831
1.97805
1.97515
1.97071
1.96393
1.95121
1.92221
1.88456
1.87202
1.86925
1.86577
1.86024
1.85593
1.85315
1.85018
1.84456
1.83534
1.81844
1.78715
1.76031
1.75576
1.75338
1.75198
1.75014
1.74664
1.74218
1.73652
1.72826
1.71319
1.68741
1.65783
1.64332
1.64168
1.64382
1.65417
1.66237
1.66089
1.65698
1.65179
1.64138
1.62045
1.58238
1.54623
1.53187
1.5298
1.53138
1.54328
1.56369
1.57454
1.57333
1.56911
1.56009
1.54116
1.50682
1.4716
1.45658
1.45312
1.45273
1.45881
1.47419
1.48487
1.48399
1.48013
1.47307
1.4581
1.43356
1.40515
1.38965
1.38495
1.38437
1.3876
1.39903
1.41107
1.41214
1.40878
1.40267
1.3892
1.36478
1.33362
1.31752
1.31418
1.31412
1.32012
1.33717
1.3538
1.35613
1.35333
1.34608
1.32875
1.29558
1.26417
1.25381
1.25277
1.25408
1.26515
1.2876
1.30025
1.29939
1.29544
1.2858
1.2632
1.22472
1.2007
1.1961
1.19584
1.19987
1.21649
1.24173
1.25163
1.25002
1.24581
1.23594
1.21303
1.17657
1.15612
1.15316
1.15287
1.15699
1.17234
1.19174
1.19651
1.19454
1.19102
1.18331
1.166
1.14137
1.12757
1.12698
1.13354
1.1879
1.41096
1.70797
1.95319
2.05217
2.03481
2.01247
2.00169
1.99228
1.9863
1.98932
2.00091
2.00492
2.00178
1.99138
1.96811
1.94253
1.93359
1.93206
1.93997
1.96033
1.96728
1.96139
1.94948
1.92763
1.90086
1.88798
1.88521
1.88552
1.89619
1.91194
1.91399
1.90921
1.89815
1.87671
1.85469
1.84803
1.84529
1.84567
1.85503
1.86337
1.86056
1.85493
1.84594
1.83517
1.84214
1.88519
1.98878
2.09881
2.17568
2.21886
2.22301
2.2208
2.2111
2.19892
2.19209
2.19001
2.19098
2.19023
2.18641
2.17973
2.16682
2.15509
2.1504
2.14766
2.14858
2.15369
2.15196
2.14615
2.13679
2.12398
2.11503
2.11149
2.10956
2.11063
2.1139
2.11143
2.10548
2.09541
2.083
2.07663
2.0732
2.07114
2.0711
2.06918
2.06531
2.0608
2.64809
2.63106
2.59666
2.53623
2.48286
2.4667
2.46284
2.46565
2.48228
2.48642
2.4788
2.47085
2.45909
2.43247
2.38074
2.32086
2.298
2.2924
2.28948
2.29341
2.29635
2.29096
2.2845
2.27653
2.26258
2.22853
2.17687
2.15071
2.14597
2.143
2.14271
2.14186
2.13824
2.13373
2.12779
2.11785
2.09383
2.04937
2.01842
2.01283
2.01128
2.00883
2.00185
1.99756
1.99418
1.98868
1.97999
1.96035
1.92225
1.89589
1.89204
1.88999
1.88457
1.87906
1.87552
1.87191
1.86801
1.86189
1.8497
1.82536
1.79138
1.77878
1.77528
1.77219
1.76941
1.76559
1.76106
1.75562
1.74802
1.73557
1.71364
1.68586
1.67021
1.66798
1.66877
1.67599
1.68098
1.67846
1.67466
1.66993
1.6607
1.6418
1.60676
1.5705
1.55503
1.55281
1.55426
1.56608
1.58509
1.59325
1.5913
1.58706
1.57869
1.5606
1.52623
1.48966
1.47431
1.47128
1.47124
1.47868
1.49566
1.50638
1.50499
1.50065
1.4924
1.47581
1.4485
1.41884
1.40442
1.40038
1.39991
1.40389
1.41659
1.42954
1.43084
1.42742
1.42099
1.4068
1.38123
1.34841
1.33169
1.32819
1.32811
1.33411
1.35168
1.36964
1.37268
1.36992
1.36274
1.34567
1.31258
1.27951
1.26799
1.26673
1.26778
1.27792
1.30026
1.31492
1.31455
1.31073
1.30148
1.28011
1.24181
1.21456
1.20846
1.20811
1.21136
1.22634
1.25211
1.26529
1.26435
1.26061
1.25201
1.23175
1.19547
1.17028
1.16539
1.16498
1.16778
1.18111
1.20146
1.20892
1.20727
1.2039
1.19742
1.18224
1.15697
1.13909
1.13801
1.15125
1.23817
1.47595
1.82242
1.9877
2.0771
2.07612
2.05049
2.01588
2.01095
2.01039
2.01037
2.01967
2.02278
2.01806
2.00936
1.99145
1.96751
1.95488
1.95167
1.95449
1.97244
1.98765
1.98531
1.97523
1.95284
1.92173
1.90266
1.89897
1.89863
1.90803
1.92512
1.9304
1.92648
1.91701
1.89767
1.87517
1.86593
1.86312
1.86241
1.86973
1.88048
1.87901
1.87377
1.86612
1.85367
1.85695
1.89645
1.99233
2.11478
2.19221
2.23833
2.24621
2.23972
2.22444
2.21544
2.21124
2.21047
2.21444
2.21322
2.20811
2.20073
2.18871
2.17552
2.16909
2.16565
2.16502
2.16951
2.16961
2.16479
2.157
2.14367
2.13237
2.12825
2.12557
2.12533
2.1292
2.12927
2.12495
2.11793
2.10632
2.09514
2.09
2.08695
2.08577
2.0863
2.08383
2.0799
2.07483
2.66756
2.6364
2.58098
2.52171
2.49868
2.49437
2.49512
2.51066
2.52065
2.51352
2.50536
2.49452
2.4711
2.42381
2.35809
2.32671
2.31983
2.31626
2.31894
2.32607
2.32295
2.31659
2.30922
2.29783
2.26977
2.21871
2.17938
2.1716
2.16817
2.16816
2.16917
2.1661
2.16114
2.15547
2.14764
2.13127
2.09345
2.04834
2.03435
2.03054
2.03065
2.02774
2.02126
2.0175
2.01326
2.00659
1.99416
1.96375
1.92518
1.91394
1.91149
1.90968
1.90312
1.89811
1.89559
1.89138
1.88587
1.87865
1.86278
1.83025
1.80429
1.79682
1.79219
1.78841
1.78488
1.78058
1.77531
1.76866
1.75847
1.74031
1.71429
1.69701
1.69425
1.69386
1.69754
1.69973
1.69631
1.6923
1.68777
1.67973
1.6628
1.63168
1.59615
1.57919
1.57686
1.5782
1.58963
1.60652
1.61155
1.60863
1.60436
1.59675
1.57998
1.54696
1.50923
1.49269
1.48983
1.4901
1.49863
1.51686
1.52756
1.52585
1.52106
1.51199
1.49418
1.4642
1.43348
1.41962
1.41622
1.41589
1.42073
1.43471
1.44832
1.44967
1.44614
1.43944
1.42491
1.39836
1.36381
1.34613
1.34241
1.34233
1.34836
1.36644
1.38569
1.38945
1.38668
1.37947
1.36263
1.32936
1.2947
1.2821
1.28064
1.2815
1.291
1.31332
1.32996
1.33028
1.32657
1.31758
1.29702
1.25873
1.22851
1.2209
1.22038
1.22294
1.23653
1.2624
1.27883
1.27879
1.27547
1.26793
1.25002
1.21504
1.18534
1.17798
1.17745
1.17929
1.19065
1.21121
1.22143
1.22029
1.21702
1.21132
1.19811
1.17364
1.15157
1.15004
1.17335
1.30701
1.57882
1.89343
2.06929
2.09963
2.09135
2.07613
2.04659
2.02146
2.01541
2.01708
2.03205
2.04534
2.04412
2.03598
2.01553
1.98694
1.97304
1.96961
1.97007
1.98454
2.00296
2.00335
1.99603
1.97833
1.9471
1.9229
1.91771
1.91644
1.92378
1.94089
1.94771
1.94409
1.93603
1.91906
1.89529
1.88168
1.87809
1.87636
1.88091
1.89415
1.89765
1.89303
1.8864
1.87567
1.87578
1.91539
2.00295
2.12091
2.21491
2.26501
2.26691
2.25557
2.24195
2.23338
2.22915
2.22804
2.23281
2.23385
2.22895
2.22215
2.21049
2.1953
2.18849
2.18498
2.18327
2.18629
2.1889
2.18498
2.17755
2.16451
2.15158
2.14636
2.14344
2.14204
2.14424
2.1458
2.14202
2.13581
2.12631
2.11473
2.10842
2.10482
2.10238
2.10216
2.10112
2.09734
2.09288
2.08644
2.67567
2.62497
2.56188
2.53151
2.52583
2.52494
2.53802
2.55328
2.548
2.53945
2.52922
2.50867
2.46618
2.39812
2.35729
2.34799
2.34393
2.34588
2.3554
2.35586
2.34958
2.34254
2.33268
2.30975
2.26275
2.21259
2.19728
2.19332
2.19254
2.19582
2.19438
2.18952
2.18361
2.1764
2.16464
2.13535
2.08751
2.05809
2.05233
2.04956
2.0508
2.04736
2.04145
2.0376
2.03242
2.02365
2.00277
1.9636
1.93732
1.93218
1.93071
1.92865
1.92192
1.91747
1.91553
1.91108
1.90419
1.89415
1.87101
1.83465
1.81915
1.81356
1.8079
1.80344
1.79931
1.79444
1.789
1.78157
1.76796
1.74419
1.72394
1.71999
1.71857
1.71906
1.71888
1.71491
1.71032
1.70542
1.69834
1.68372
1.6566
1.62247
1.60388
1.60143
1.60249
1.61284
1.62725
1.62969
1.62588
1.62137
1.61431
1.59902
1.56844
1.53018
1.51176
1.5089
1.50935
1.51855
1.53749
1.54802
1.5461
1.54101
1.5315
1.51314
1.48133
1.44926
1.43576
1.43279
1.43258
1.4384
1.45362
1.46734
1.4684
1.46472
1.45783
1.44324
1.41626
1.38013
1.3611
1.35708
1.35697
1.36296
1.38138
1.40182
1.40637
1.40369
1.39649
1.37978
1.34626
1.31
1.29624
1.29451
1.29518
1.30417
1.32654
1.34533
1.34648
1.34285
1.33417
1.31425
1.27608
1.24293
1.23352
1.23278
1.23472
1.2469
1.27248
1.29209
1.29335
1.29034
1.28366
1.26773
1.23477
1.20131
1.19096
1.1902
1.19135
1.20091
1.22106
1.23405
1.23365
1.23062
1.22524
1.21347
1.19047
1.16561
1.16572
1.20414
1.37851
1.70952
1.94782
2.10673
2.13312
2.13011
2.10653
2.06626
2.04643
2.04032
2.04041
2.05124
2.06319
2.06273
2.05593
2.04052
2.01273
1.99004
1.98432
1.98386
1.99814
2.01935
2.02119
2.01469
1.99993
1.97198
1.94498
1.93728
1.93518
1.93927
1.95547
1.9661
1.96346
1.9563
1.94013
1.91512
1.89789
1.89391
1.8919
1.89449
1.90685
1.91419
1.91091
1.90618
1.8978
1.89648
1.92836
2.01943
2.13478
2.23272
2.27375
2.28473
2.28204
2.27129
2.25814
2.25196
2.24845
2.24828
2.2513
2.24854
2.24289
2.23373
2.21833
2.20625
2.20173
2.19906
2.20035
2.20557
2.20327
2.19726
2.18725
2.17307
2.16429
2.1609
2.15899
2.16023
2.16358
2.16095
2.15553
2.1471
2.13474
2.12603
2.12172
2.11877
2.1181
2.1173
2.11345
2.109
2.10343
2.09578
2.66832
2.60352
2.56585
2.55798
2.55551
2.565
2.5835
2.58163
2.57276
2.56285
2.54479
2.50713
2.44038
2.38998
2.37655
2.37248
2.37378
2.38483
2.38918
2.3834
2.37644
2.36744
2.34829
2.30642
2.24937
2.22387
2.21907
2.21694
2.22089
2.22257
2.21816
2.21253
2.20554
2.19568
2.17384
2.13048
2.08841
2.0765
2.07189
2.07016
2.07234
2.06805
2.06244
2.05784
2.05131
2.03743
2.00438
1.96618
1.95447
1.95051
1.94984
1.9476
1.9412
1.93711
1.93479
1.93001
1.92175
1.90553
1.87219
1.84095
1.83292
1.82933
1.82364
1.8182
1.81354
1.80793
1.80184
1.79366
1.77767
1.75332
1.7447
1.74184
1.73981
1.73809
1.73402
1.72895
1.72342
1.71651
1.70424
1.6815
1.64985
1.62897
1.62601
1.6267
1.63518
1.64653
1.64749
1.64345
1.63868
1.63193
1.61793
1.59017
1.55252
1.53169
1.5283
1.52898
1.53843
1.55737
1.56746
1.56534
1.56009
1.55069
1.53266
1.50028
1.46674
1.45273
1.45013
1.45011
1.45699
1.47341
1.48655
1.48685
1.48293
1.476
1.46167
1.4349
1.39755
1.3769
1.37242
1.37225
1.37809
1.3967
1.41802
1.42325
1.42067
1.41362
1.39716
1.3634
1.32532
1.31058
1.30855
1.30897
1.31747
1.33988
1.36078
1.36315
1.35972
1.35134
1.33192
1.29367
1.25752
1.2464
1.24539
1.24678
1.25759
1.28261
1.30499
1.30784
1.30509
1.29921
1.28496
1.25436
1.21801
1.20421
1.20303
1.20365
1.21166
1.23107
1.24671
1.24735
1.24456
1.23966
1.22876
1.20758
1.18047
1.18461
1.25586
1.46821
1.80602
2.0209
2.13669
2.1599
2.14998
2.1239
2.08843
2.06457
2.0596
2.06239
2.07853
2.08832
2.08399
2.07612
2.06024
2.03407
2.01374
2.00911
2.00856
2.01979
2.0409
2.04413
2.03672
2.0213
1.99265
1.96296
1.95308
1.95108
1.95374
1.96814
1.98184
1.98081
1.9751
1.96302
1.94025
1.91755
1.9104
1.90749
1.90792
1.91842
1.93027
1.92895
1.9245
1.91793
1.91624
1.94482
2.03259
2.15862
2.24318
2.28964
2.3049
2.30307
2.29729
2.28414
2.27301
2.26808
2.26664
2.26995
2.26998
2.26485
2.25694
2.24364
2.22861
2.22141
2.21776
2.21681
2.22173
2.22302
2.21772
2.20826
2.1925
2.18119
2.17752
2.17514
2.17527
2.17993
2.18035
2.17604
2.16881
2.1568
2.14516
2.14008
2.13675
2.13556
2.13554
2.13174
2.12637
2.11935
2.10954
2.10317
2.64657
2.60234
2.59094
2.58767
2.5934
2.61232
2.61447
2.60524
2.59525
2.57894
2.54555
2.48332
2.42462
2.40565
2.40157
2.40232
2.41471
2.42253
2.4177
2.41075
2.40224
2.38582
2.34883
2.28891
2.25277
2.24569
2.24222
2.24439
2.25026
2.24698
2.24153
2.2351
2.22633
2.20996
2.1733
2.12457
2.1025
2.09658
2.09279
2.09311
2.09507
2.08971
2.08408
2.07817
2.06833
2.04273
2.00278
1.97805
1.97229
1.969
1.96905
1.9668
1.96083
1.9567
1.95311
1.94759
1.93631
1.90938
1.87065
1.85106
1.84685
1.84469
1.8405
1.83411
1.82898
1.82319
1.81614
1.80702
1.79225
1.77342
1.76285
1.75862
1.75607
1.75279
1.7478
1.74188
1.73486
1.72471
1.70576
1.67773
1.65557
1.65113
1.65072
1.65666
1.66512
1.66448
1.66077
1.65645
1.65006
1.63691
1.61184
1.57555
1.55273
1.54839
1.54902
1.55817
1.57639
1.58565
1.58337
1.57815
1.56933
1.55244
1.52122
1.48618
1.47074
1.46827
1.4685
1.4764
1.49369
1.50575
1.50501
1.50072
1.49373
1.47994
1.45406
1.41615
1.39362
1.38853
1.38829
1.39386
1.41246
1.43435
1.44001
1.43752
1.43073
1.41472
1.38105
1.34115
1.32507
1.32265
1.32293
1.33098
1.35353
1.37639
1.37995
1.37675
1.36876
1.35004
1.31206
1.27294
1.25956
1.2582
1.25911
1.26862
1.29286
1.31766
1.32246
1.31998
1.31468
1.3018
1.27367
1.23524
1.21773
1.21581
1.21607
1.22274
1.24117
1.25926
1.26146
1.25878
1.25429
1.24413
1.22503
1.19734
1.20744
1.31805
1.59055
1.87965
2.09299
2.18135
2.18963
2.17688
2.14041
2.10065
2.08066
2.07763
2.08357
2.10163
2.11395
2.11056
2.10202
2.08453
2.05373
2.02791
2.02183
2.02111
2.03269
2.058
2.0669
2.06096
2.0466
2.0195
1.98571
1.9696
1.96672
1.96793
1.9805
1.99663
1.99816
1.99339
1.98313
1.9619
1.93826
1.92933
1.92668
1.92608
1.93385
1.94707
1.94778
1.94348
1.93778
1.9369
1.96177
2.04565
2.17449
2.25705
2.30902
2.33065
2.32802
2.31931
2.30378
2.2913
2.28675
2.28513
2.28956
2.29279
2.28887
2.28171
2.26842
2.25159
2.24289
2.23864
2.23662
2.23965
2.24273
2.23846
2.23028
2.21665
2.2004
2.19282
2.1894
2.18809
2.19137
2.1953
2.19249
2.18699
2.17813
2.16582
2.15788
2.15394
2.15174
2.15241
2.15084
2.14605
2.13972
2.12941
2.11853
2.11335
2.64073
2.62483
2.62125
2.62392
2.64117
2.64743
2.63813
2.62752
2.61191
2.58152
2.52489
2.46101
2.43576
2.43097
2.43093
2.44439
2.45644
2.45233
2.44534
2.43714
2.42269
2.38963
2.33042
2.28408
2.27247
2.26841
2.26825
2.27578
2.27614
2.27066
2.26457
2.25674
2.24413
2.21459
2.16464
2.13072
2.12297
2.11782
2.11563
2.11854
2.11778
2.11196
2.10575
2.09756
2.07905
2.04089
2.00605
1.99544
1.99062
1.98797
1.98891
1.98615
1.98037
1.97564
1.97049
1.96285
1.94359
1.90631
1.87328
1.86541
1.86208
1.86123
1.85882
1.85228
1.84689
1.84152
1.83455
1.82507
1.81071
1.79109
1.77693
1.77238
1.76995
1.76642
1.76093
1.75398
1.74475
1.72924
1.70489
1.68232
1.67692
1.67564
1.67781
1.68335
1.6819
1.67787
1.67392
1.66843
1.65665
1.63351
1.5989
1.57517
1.56962
1.56968
1.57774
1.59472
1.60256
1.59999
1.59505
1.58732
1.57224
1.54355
1.50776
1.48993
1.48731
1.4877
1.49614
1.51394
1.5247
1.52295
1.51821
1.51105
1.49777
1.47334
1.43573
1.41132
1.40543
1.40513
1.41037
1.42869
1.45072
1.45657
1.45411
1.4476
1.43236
1.39937
1.35772
1.33992
1.33706
1.33718
1.34478
1.36734
1.39206
1.39697
1.39388
1.38615
1.36826
1.3309
1.28884
1.27319
1.2714
1.27185
1.28005
1.30311
1.33002
1.33715
1.33499
1.33008
1.31839
1.29251
1.25289
1.23159
1.22844
1.2285
1.23398
1.25119
1.27141
1.27582
1.27337
1.26916
1.26004
1.24097
1.21751
1.24775
1.39068
1.71126
1.97942
2.13944
2.20281
2.20316
2.19354
2.1669
2.12687
2.10717
2.10292
2.10558
2.12011
2.13183
2.12933
2.12245
2.1094
2.08479
2.05338
2.03742
2.03474
2.04162
2.06643
2.08376
2.08099
2.07049
2.04672
2.01114
1.99114
1.98714
1.9863
1.99527
2.01254
2.01662
2.01226
2.00313
1.98419
1.9588
1.94453
1.94104
1.93965
1.94587
1.96162
1.96686
1.96308
1.95883
1.95854
1.9847
2.06508
2.18779
2.27582
2.33241
2.35539
2.35219
2.34131
2.32506
2.31038
2.30469
2.30281
2.30775
2.31467
2.31199
2.30526
2.29304
2.27514
2.26275
2.2578
2.25527
2.25722
2.26163
2.25855
2.25168
2.23897
2.22165
2.21329
2.2094
2.20694
2.20776
2.21111
2.20875
2.20354
2.19516
2.18265
2.17437
2.17068
2.16787
2.16777
2.1685
2.16446
2.1585
2.14982
2.13811
2.13116
2.12787
2.66029
2.65614
2.65649
2.67059
2.68039
2.672
2.66068
2.64499
2.61616
2.56451
2.49848
2.46707
2.46096
2.45987
2.47215
2.49047
2.48773
2.48022
2.47226
2.4591
2.42911
2.37254
2.31711
2.2994
2.29513
2.29347
2.29979
2.30485
2.30009
2.29417
2.28701
2.27671
2.25406
2.20819
2.16244
2.14956
2.14428
2.14079
2.14116
2.1441
2.14022
2.1341
2.12671
2.11311
2.08022
2.03822
2.02011
2.01397
2.00956
2.00807
2.00956
2.00534
1.99945
1.99385
1.9869
1.97332
1.94247
1.9024
1.88586
1.88215
1.87962
1.87998
1.87874
1.87278
1.86752
1.86294
1.85664
1.84531
1.82394
1.80099
1.78947
1.78573
1.7836
1.78016
1.77441
1.7663
1.75368
1.73214
1.70861
1.70193
1.70045
1.70006
1.70138
1.6998
1.69575
1.69152
1.68644
1.67679
1.65596
1.62302
1.59844
1.59193
1.59155
1.59776
1.61221
1.61854
1.61568
1.61095
1.60438
1.59163
1.56664
1.53153
1.51052
1.50728
1.50765
1.51595
1.53343
1.54311
1.54077
1.53558
1.52824
1.51538
1.49251
1.45621
1.43018
1.42309
1.42274
1.42759
1.44528
1.46695
1.47278
1.47027
1.46408
1.44991
1.41857
1.37563
1.3553
1.35181
1.35181
1.35891
1.38136
1.40771
1.41397
1.41105
1.40365
1.38664
1.35021
1.30558
1.28731
1.28485
1.28501
1.29196
1.31381
1.34231
1.35184
1.35004
1.34548
1.33489
1.31096
1.27079
1.24563
1.24096
1.24091
1.24533
1.26128
1.28303
1.29021
1.2881
1.28443
1.2764
1.25529
1.24165
1.29606
1.50272
1.82115
2.07212
2.15677
2.20524
2.21927
2.20917
2.19063
2.16071
2.13116
2.12507
2.12485
2.13683
2.15141
2.14935
2.14312
2.13153
2.10815
2.08008
2.06726
2.0645
2.06702
2.08436
2.10046
2.09836
2.09004
2.07131
2.03952
2.01311
2.00616
2.0035
2.00769
2.02463
2.03475
2.03171
2.0243
2.00761
1.98075
1.96315
1.9594
1.95771
1.96202
1.97678
1.98581
1.9832
1.97928
1.98065
2.00361
2.08381
2.20467
2.2939
2.35421
2.37517
2.37201
2.36408
2.34908
2.33216
2.32536
2.32278
2.32506
2.33333
2.33291
2.32695
2.31626
2.29865
2.2841
2.2788
2.27567
2.27626
2.28087
2.27835
2.27167
2.26064
2.24472
2.2322
2.22734
2.22432
2.22436
2.22855
2.22723
2.22228
2.21494
2.20285
2.19092
2.18538
2.18206
2.18092
2.18313
2.1814
2.17628
2.1692
2.15839
2.14903
2.14471
2.14188
2.69229
2.69121
2.70188
2.71325
2.70646
2.695
2.67879
2.65061
2.60284
2.53675
2.49993
2.4918
2.48974
2.49949
2.52157
2.5237
2.51561
2.50748
2.49517
2.46785
2.41485
2.35193
2.32712
2.32218
2.31964
2.32395
2.33236
2.32996
2.32412
2.31734
2.30826
2.29113
2.25258
2.19928
2.17575
2.17087
2.16698
2.16599
2.16852
2.16752
2.16226
2.15554
2.14494
2.11903
2.07405
2.04514
2.0387
2.03312
2.02966
2.02969
2.02982
2.02427
2.01816
2.01148
2.00075
1.97583
1.93549
1.90903
1.9038
1.90072
1.89973
1.90198
1.89996
1.8949
1.89002
1.88513
1.87618
1.8547
1.82792
1.81014
1.80283
1.79959
1.79738
1.79377
1.78781
1.7784
1.76117
1.73634
1.72615
1.72442
1.72246
1.72053
1.71807
1.71415
1.70974
1.70458
1.69642
1.67875
1.6489
1.62229
1.61455
1.61393
1.61862
1.62979
1.63379
1.63094
1.62667
1.62088
1.61052
1.58953
1.5565
1.53267
1.5281
1.52823
1.53565
1.5521
1.56082
1.55825
1.55288
1.54548
1.53299
1.51171
1.47747
1.45009
1.44163
1.44114
1.44547
1.46212
1.48283
1.48845
1.48589
1.4801
1.46704
1.43804
1.39471
1.37149
1.36714
1.36702
1.37345
1.39545
1.42314
1.43074
1.42799
1.42093
1.40492
1.36994
1.32332
1.30214
1.29882
1.29874
1.30447
1.3248
1.35433
1.36663
1.36532
1.36107
1.35129
1.32903
1.28905
1.25999
1.25343
1.25319
1.25668
1.27136
1.29429
1.30444
1.30291
1.2996
1.29406
1.27238
1.27456
1.35268
1.63439
1.91868
2.1024
2.22024
2.24756
2.25073
2.24493
2.21862
2.18473
2.15761
2.14577
2.14267
2.148
2.16706
2.17403
2.16883
2.15704
2.13204
2.09799
2.08092
2.07812
2.08114
2.10048
2.12163
2.12235
2.11481
2.09566
2.06267
2.03548
2.02814
2.02557
2.02811
2.04195
2.05314
2.05054
2.04381
2.02938
2.00404
1.98123
1.9747
1.9723
1.97453
1.98894
2.00263
2.00242
2
2.00353
2.02551
2.10293
2.22735
2.31564
2.36835
2.39569
2.39406
2.38798
2.3753
2.35716
2.34678
2.34268
2.34239
2.35001
2.35357
2.34947
2.34098
2.32419
2.30744
2.30089
2.29716
2.29638
2.30098
2.30063
2.29453
2.2839
2.26504
2.24914
2.24416
2.24077
2.23947
2.24323
2.24619
2.24239
2.23578
2.22395
2.21003
2.20398
2.20047
2.19842
2.19982
2.19939
2.19448
2.18735
2.17617
2.16499
2.1603
2.15726
2.15575
2.72713
2.73535
2.74727
2.74197
2.73051
2.71379
2.68538
2.64006
2.57542
2.53472
2.52371
2.52102
2.52775
2.55044
2.55843
2.55065
2.54247
2.53082
2.50596
2.45711
2.38906
2.35615
2.34962
2.34645
2.34882
2.35864
2.35986
2.35436
2.34803
2.33972
2.32612
2.29497
2.24098
2.20402
2.19738
2.19323
2.19159
2.19313
2.19392
2.18969
2.18366
2.175
2.15598
2.11517
2.07335
2.06234
2.05763
2.05328
2.05135
2.05215
2.04926
2.04332
2.03668
2.02772
2.00835
1.97081
1.93577
1.92671
1.92306
1.92143
1.92388
1.92516
1.9215
1.91711
1.91183
1.90407
1.88472
1.85488
1.83274
1.82214
1.81716
1.8144
1.81182
1.80745
1.80074
1.78968
1.76861
1.75106
1.74814
1.74502
1.74069
1.73705
1.73304
1.72838
1.72306
1.7158
1.70136
1.67518
1.64705
1.63697
1.63608
1.63909
1.64785
1.64949
1.64624
1.64255
1.63756
1.62926
1.61194
1.5827
1.55627
1.54941
1.54934
1.55514
1.56981
1.57779
1.5752
1.56996
1.56276
1.55089
1.53119
1.49931
1.47115
1.46131
1.46052
1.46398
1.47916
1.49822
1.50338
1.50086
1.4955
1.48363
1.45737
1.4148
1.38859
1.38304
1.38286
1.3886
1.40965
1.43802
1.4472
1.44471
1.43796
1.42293
1.38963
1.34161
1.31747
1.3132
1.31294
1.31763
1.33652
1.36666
1.38144
1.38061
1.37671
1.36765
1.34691
1.3073
1.27442
1.26593
1.26544
1.26805
1.28137
1.30505
1.31856
1.31794
1.31355
1.31103
1.29254
1.31903
1.44234
1.73601
2.04598
2.1747
2.24583
2.27523
2.27163
2.26321
2.24669
2.20991
2.17416
2.16578
2.16244
2.16713
2.18514
2.19608
2.19239
2.18312
2.16232
2.12702
2.09825
2.09232
2.09314
2.10969
2.13692
2.14423
2.13837
2.12337
2.09146
2.05488
2.04174
2.03878
2.04087
2.05701
2.07322
2.07245
2.06597
2.05155
2.02654
2.002
1.99388
1.99144
1.99243
2.00365
2.0186
2.02077
2.01888
2.0243
2.04854
2.12295
2.24831
2.33788
2.38914
2.4178
2.41829
2.41235
2.40089
2.38134
2.36653
2.36148
2.35978
2.36624
2.37406
2.3714
2.36431
2.35057
2.33181
2.32141
2.31728
2.31575
2.31978
2.32258
2.31767
2.30847
2.29255
2.27262
2.26263
2.25837
2.25587
2.25716
2.26156
2.25899
2.25327
2.24478
2.2322
2.22185
2.2172
2.21442
2.21465
2.21653
2.21304
2.20716
2.19775
2.18427
2.176
2.17214
2.16975
2.17013
2.77009
2.78212
2.7786
2.76732
2.74969
2.72072
2.67677
2.61432
2.57136
2.55726
2.55411
2.55811
2.57872
2.59125
2.58473
2.57645
2.56526
2.54264
2.49849
2.42881
2.38741
2.37805
2.37435
2.37475
2.38405
2.3893
2.3848
2.37884
2.37117
2.3597
2.33466
2.28561
2.23715
2.224
2.21978
2.21751
2.21827
2.21957
2.21668
2.21125
2.20381
2.18998
2.15703
2.10837
2.08568
2.08151
2.07759
2.07498
2.07449
2.07368
2.0687
2.06241
2.05449
2.0399
2.0076
1.9667
1.95043
1.94679
1.944
1.94583
1.95014
1.94646
1.94209
1.93741
1.93035
1.91406
1.88281
1.85604
1.84357
1.83665
1.83259
1.83028
1.82737
1.82222
1.81453
1.80231
1.78172
1.77034
1.76731
1.76205
1.75658
1.75214
1.74744
1.742
1.73507
1.7236
1.70147
1.67361
1.65986
1.65822
1.65869
1.66499
1.66624
1.66249
1.6589
1.65448
1.64772
1.63392
1.60856
1.58062
1.57055
1.57037
1.57441
1.58662
1.59398
1.59152
1.58649
1.57973
1.56898
1.55106
1.52201
1.49357
1.48225
1.48111
1.48347
1.4965
1.51328
1.51757
1.51512
1.51038
1.49978
1.47648
1.43594
1.40698
1.39974
1.3994
1.40435
1.42418
1.45253
1.46295
1.4608
1.45462
1.44082
1.40963
1.36097
1.33364
1.32814
1.32769
1.33143
1.34889
1.37921
1.39642
1.39618
1.39249
1.38408
1.36472
1.32581
1.28938
1.27856
1.27775
1.27957
1.29134
1.31535
1.33212
1.33316
1.3297
1.32331
1.31581
1.36274
1.57186
1.84749
2.135
2.22898
2.27043
2.27968
2.27999
2.2706
2.25445
2.23477
2.20408
2.18236
2.17849
2.18246
2.20346
2.21827
2.21481
2.20605
2.18595
2.15237
2.12386
2.11664
2.11528
2.12484
2.14935
2.16079
2.15742
2.14658
2.12117
2.08602
2.06512
2.06014
2.05912
2.06971
2.08919
2.09286
2.08695
2.07406
2.04858
2.02011
2.00945
2.00711
2.00784
2.01957
2.03594
2.03896
2.03804
2.04418
2.06915
2.14405
2.26681
2.35972
2.4126
2.44141
2.44209
2.43624
2.42461
2.40615
2.38763
2.38045
2.37774
2.38217
2.39289
2.39249
2.3862
2.37411
2.35452
2.34196
2.33751
2.33519
2.33777
2.34281
2.33962
2.33214
2.31809
2.29704
2.28414
2.27928
2.27584
2.27516
2.27821
2.27679
2.27167
2.26336
2.24901
2.23944
2.23569
2.23256
2.23195
2.23434
2.23159
2.2256
2.21654
2.20328
2.19335
2.18939
2.18649
2.18565
2.18813
2.81763
2.81531
2.80442
2.7858
2.7559
2.71264
2.65307
2.60952
2.59333
2.58945
2.59152
2.60912
2.62333
2.61796
2.60945
2.59828
2.57705
2.53762
2.47012
2.42092
2.40744
2.40372
2.40252
2.40983
2.41817
2.41522
2.40943
2.40236
2.39224
2.37207
2.33006
2.27431
2.25094
2.24651
2.24368
2.24408
2.2453
2.24314
2.23841
2.23179
2.22092
2.19562
2.14922
2.11248
2.10569
2.10191
2.0996
2.0983
2.09773
2.09417
2.08846
2.08132
2.07002
2.04392
2.00184
1.97551
1.97116
1.968
1.96737
1.97282
1.97217
1.96656
1.96133
1.95492
1.94231
1.914
1.87831
1.86503
1.85878
1.85304
1.84977
1.8479
1.84461
1.83886
1.83046
1.81809
1.79864
1.78665
1.78275
1.77695
1.77135
1.76647
1.76128
1.7548
1.74504
1.72683
1.70069
1.68366
1.68084
1.67966
1.6813
1.68303
1.67971
1.67596
1.6717
1.66597
1.65564
1.63425
1.60619
1.59182