/*--------------------------------*- C++ -*----------------------------------*\
  =========                 |
  \\      /  F ield         | OpenFOAM: The Open Source CFD Toolbox
   \\    /   O peration     | Website:  https://openfoam.org
    \\  /    A nd           | Version:  7
     \\/     M anipulation  |
\*---------------------------------------------------------------------------*/
FoamFile
{
    version     2.0;
    format      ascii;
    class       volScalarField;
    location    "2.8";
    object      p;
}
// * * * * * * * * * * * * * * * * * * * * * * * * * * * * * * * * * * * * * //

dimensions      [1 -1 -2 0 0 0 0];

internalField   nonuniform List<scalar> 
16192
(
1
1
1
1
1
1
1
1
1
1
1
1
1
1
1
1
1
1
1
1
1
1
1
1
1
1
1
1
1
1
1
1
1
1
1
1
1
1
1
1
1
1
1
1
1
1
1
1
1
1
1
1
1
1
1
1
1
1
1
1
1
1
1
1
1
1
1
1
1
1
1
1
1
1
1
1
1
1
1
1
1
1
1
1
1
1
1
1
1
1
1
1
1
1
1
1
1
1
1
1
1
1
1
1
1
1
1
1
1
1
1
1
1
1
1
1
1
1
1
1
1
1
1
1
1
1
1
1
1
1
1
1
1
1
1
1
1
1
1
1
1
1
1
1.60411
8.1401
10.4408
10.434
10.4995
10.556
10.6205
10.6835
10.7413
10.7955
10.849
10.9026
10.9553
11.0038
11.0462
11.0855
11.1276
11.1761
11.2286
11.2806
11.3297
11.3745
11.4153
11.4535
11.4909
11.5281
11.5649
11.6007
11.6352
11.6683
11.7004
11.7318
11.7626
11.7925
11.8206
11.8461
11.8687
11.8889
11.9079
11.9268
11.9462
11.9658
11.9844
12.0006
12.0132
12.021
12.0239
12.024
12.0237
1
1
1
1
1
1
1
1
1
1
1
1
1
1
1
1
1
1
1
1
1
1
1
1
1
1
1
1
1
1
1
1
1
1
1
1
1
1
1
1
1
1
1
1
1
1
1
1
1
1
1
1
1
1
1
1
1
1
1
1
1
1
1
1
1
1
1
1
1
1
1
1
1
1
1
1
1
1
1
1
1
1
1
1
1
1
1
1
1
1
1
1
1
1
1
1
1
1
1
1
1
1
1
1
1
1
1
1
1
1
1
1
1
1
1
1
1
1
1
1
1
1
1
1
1
1
1
1
1
1
1
1
1
1
1
1
1
1
1
1
1
1
1
1.58924
8.10426
10.4219
10.4391
10.5017
10.557
10.6203
10.683
10.7411
10.7953
10.8488
10.9024
10.9549
11.0036
11.0463
11.0863
11.1285
11.1766
11.2281
11.2792
11.3275
11.3719
11.4125
11.4507
11.4883
11.5257
11.5627
11.5986
11.6332
11.6663
11.6983
11.7297
11.7605
11.7905
11.8187
11.8442
11.8666
11.8864
11.9051
11.9238
11.9434
11.9632
11.982
11.9982
12.0103
12.0177
12.0205
12.0206
12.0204
1
1
1
1
1
1
1
1
1
1
1
1
1
1
1
1
1
1
1
1
1
1
1
1
1
1
1
1
1
1
1
1
1
1
1
1
1
1
1
1
1
1
1
1
1
1
1
1
1
1
1
1
1
1
1
1
1
1
1
1
1
1
1
1
1
1
1
1
1
1
1
1
1
1
1
1
1
1
1
1
1
1
1
1
1
1
1
1
1
1
1
1
1
1
1
1
1
1
1
1
1
1
1
1
1
1
1
1
1
1
1
1
1
1
1
1
1
1
1
1
1
1
1
1
1
1
1
1
1
1
1
1
1
1
1
1
1
1
1
1
1
1
1
1.55428
8.03522
10.4107
10.4379
10.4987
10.5548
10.6179
10.6808
10.7392
10.7937
10.8475
10.9008
10.953
11.0019
11.0449
11.086
11.1286
11.1764
11.2269
11.2768
11.3241
11.3677
11.4079
11.4461
11.4838
11.5215
11.5587
11.5949
11.6296
11.6629
11.695
11.7263
11.7572
11.7872
11.8155
11.841
11.8632
11.8826
11.9007
11.9191
11.9387
11.9588
11.9779
11.9941
12.0058
12.0125
12.015
12.0153
12.0152
1
1
1
1
1
1
1
1
1
1
1
1
1
1
1
1
1
1
1
1
1
1
1
1
1
1
1
1
1
1
1
1
1
1
1
1
1
1
1
1
1
1
1
1
1
1
1
1
1
1
1
1
1
1
1
1
1
1
1
1
1
1
1
1
1
1
1
1
1
1
1
1
1
1
1
1
1
1
1
1
1
1
1
1
1
1
1
1
1
1
1
1
1
1
1
1
1
1
1
1
1
1
1
1
1
1
1
1
1
1
1
1
1
1
1
1
1
1
1
1
1
1
1
1
1
1
1
1
1
1
1
1
1
1
1
1
1
1
1
1
1
1
1
1.50348
7.92969
10.4026
10.4363
10.4954
10.5517
10.6145
10.6775
10.736
10.7906
10.8446
10.8976
10.9494
10.9984
11.0417
11.0836
11.1265
11.174
11.2236
11.2726
11.3188
11.3616
11.4012
11.4392
11.477
11.515
11.5526
11.5891
11.6241
11.6576
11.69
11.7215
11.7524
11.7824
11.8106
11.8359
11.8578
11.877
11.8947
11.9128
11.9321
11.9524
11.9717
11.9877
11.9989
12.0049
12.0069
12.007
12.0068
1
1
1
1
1
1
1
1
1
1
1
1
1
1
1
1
1
1
1
1
1
1
1
1
1
1
1
1
1
1
1
1
1
1
1
1
1
1
1
1
1
1
1
1
1
1
1
1
1
1
1
1
1
1
1
1
1
1
1
1
1
1
1
1
1
1
1
1
1
1
1
1
1
1
1
1
1
1
1
1
1
1
1
1
1
1
1
1
1
1
1
1
1
1
1
1
1
1
1
1
1
1
1
1
1
1
1
1
1
1
1
1
1
1
1
1
1
1
1
1
1
1
1
1
1
1
1
1
1
1
1
1
1
1
1
1
1
1
1
1
1
1
1
1.44067
7.78532
10.3971
10.4336
10.4905
10.5461
10.6078
10.6703
10.729
10.7842
10.8389
10.8921
10.9439
10.9931
11.0365
11.079
11.1219
11.1692
11.218
11.2664
11.3118
11.3538
11.3926
11.4302
11.468
11.5062
11.5441
11.5809
11.6161
11.6499
11.6825
11.7144
11.7456
11.7756
11.8035
11.8285
11.8502
11.8692
11.8869
11.9049
11.9242
11.9444
11.9637
11.9796
11.9903
11.9956
11.9968
11.9964
11.9958
1
1
1
1
1
1
1
1
1
1
1
1
1
1
1
1
1
1
1
1
1
1
1
1
1
1
1
1
1
1
1
1
1
1
1
1
1
1
1
1
1
1
1
1
1
1
1
1
1
1
1
1
1
1
1
1
1
1
1
1
1
1
1
1
1
1
1
1
1
1
1
1
1
1
1
1
1
1
1
1
1
1
1
1
1
1
1
1
1
1
1
1
1
1
1
1
1
1
1
1
1
1
1
1
1
1
1
1
1
1
1
1
1
1
1
1
1
1
1
1
1
1
1
1
1
1
1
1
1
1
1
1
1
1
1
1
1
1
1
1
1
1
1
1.36779
7.60433
10.3943
10.4319
10.4862
10.5408
10.6017
10.6641
10.7232
10.779
10.8342
10.8874
10.9386
10.9874
11.0303
11.0728
11.1155
11.1626
11.211
11.2591
11.3039
11.3451
11.3831
11.42
11.4574
11.4956
11.5337
11.5705
11.6058
11.6398
11.6728
11.7053
11.737
11.7672
11.7948
11.8192
11.8404
11.8593
11.8771
11.8952
11.9144
11.9344
11.9535
11.9693
11.9798
11.9844
11.9849
11.9835
11.9823
1
1
1
1
1
1
1
1
1
1
1
1
1
1
1
1
1
1
1
1
1
1
1
1
1
1
1
1
1
1
1
1
1
1
1
1
1
1
1
1
1
1
1
1
1
1
1
1
1
1
1
1
1
1
1
1
1
1
1
1
1
1
1
1
1
1
1
1
1
1
1
1
1
1
1
1
1
1
1
1
1
1
1
1
1
1
1
1
1
1
1
1
1
1
1
1
1
1
1
1
1
1
1
1
1
1
1
1
1
1
1
1
1
1
1
1
1
1
1
1
1
1
1
1
1
1
1
1
1
1
1
1
1
1
1
1
1
1
1
1
1
1
1
1.28019
7.37725
10.3921
10.4284
10.4799
10.5342
10.5949
10.6572
10.7165
10.7725
10.8277
10.8808
10.9316
10.98
11.0227
11.0652
11.1077
11.1545
11.2025
11.2504
11.2948
11.3353
11.3725
11.4086
11.4457
11.4839
11.5221
11.5589
11.5939
11.6276
11.6607
11.6936
11.726
11.7565
11.7838
11.8075
11.8281
11.8467
11.8647
11.8831
11.9024
11.9222
11.9411
11.9568
11.9672
11.9715
11.9711
11.9687
11.9666
1
1
1
1
1
1
1
1
1
1
1
1
1
1
1
1
1
1
1
1
1
1
1
1
1
1
1
1
1
1
1
1
1
1
1
1
1
1
1
1
1
1
1
1
1
1
1
1
1
1
1
1
1
1
1
1
1
1
1
1
1
1
1
1
1
1
1
1
1
1
1
1
1
1
1
1
1
1
1
1
1
1
1
1
1
1
1
1
1
1
1
1
1
1
1
1
1
1
1
1
1
1
1
1
1
1
1
1
1
1
1
1
1
1
1
1
1
1
1
1
1
1
1
1
1
1
1
1
1
1
1
1
1
1
1
1
1
1
1
1
1
1
1
1.18256
7.12273
10.3843
10.4223
10.4715
10.5255
10.5857
10.6478
10.7073
10.7635
10.8189
10.8718
10.9224
10.9706
11.0132
11.0556
11.0978
11.144
11.1915
11.2393
11.2836
11.3239
11.3607
11.3964
11.4331
11.4711
11.5092
11.5458
11.5804
11.6136
11.6466
11.6798
11.7127
11.7437
11.771
11.7941
11.8139
11.832
11.8499
11.8685
11.8881
11.9079
11.9266
11.9422
11.9523
11.9562
11.9552
11.9516
11.9489
1
1
1
1
1
1
1
1
1
1
1
1
1
1
1
1
1
1
1
1
1
1
1
1
1
1
1
1
1
1
1
1
1
1
1
1
1
1
1
1
1
1
1
1
1
1
1
1
1
1
1
1
1
1
1
1
1
1
1
1
1
1
1
1
1
1
1
1
1
1
1
1
1
1
1
1
1
1
1
1
1
1
1
1
1
1
1
1
1
1
1
1
1
1
1
1
1
1
1
1
1
1
1
1
1
1
1
1
1
1
1
1
1
1
1
1
1
1
1
1
1
1
1
1
1
1
1
1
1
1
1
1
1
1
1
1
1
1
1
1
1
1
1
1.07177
6.86576
10.3617
10.4077
10.4567
10.513
10.5752
10.6388
10.699
10.7555
10.8102
10.8624
10.9122
10.9599
11.0022
11.0444
11.0863
11.1318
11.1786
11.2261
11.2704
11.3107
11.3472
11.3825
11.4186
11.4563
11.4942
11.5307
11.5651
11.598
11.6306
11.6637
11.6969
11.7283
11.7559
11.7787
11.7977
11.815
11.8325
11.8512
11.8711
11.8912
11.9099
11.9252
11.9351
11.9387
11.937
11.9326
11.9294
1
1
1
1
1
1
1
1
1
1
1
1
1
1
1
1
1
1
1
1
1
1
1
1
1
1
1
1
1
1
1
1
1
1
1
1
1
1
1
1
1
1
1
1
1
1
1
1
1
1
1
1
1
1
1
1
1
1
1
1
1
1
1
1
1
1
1
1
1
1
1
1
1
1
1
1
1
1
1
1
1
1
1
1
1
1
1
1
1
1
1
1
1
1
1
1
1
1
1
1
1
1
1
1
1
1
1
1
1
1
1
1
1
1
1
1
1
1
1
1
1
1
1
1
1
1
1
1
1
1
1
1
1
1
1
1
1
1
1
1
1
1
1
1.00313
6.53425
10.3238
10.3942
10.443
10.501
10.5626
10.6255
10.6851
10.7409
10.7947
10.8462
10.8954
10.9429
10.9857
11.0286
11.0714
11.1172
11.1637
11.211
11.2553
11.2956
11.332
11.3669
11.4024
11.4395
11.477
11.5136
11.548
11.5807
11.6129
11.6456
11.6787
11.7104
11.7383
11.7612
11.7797
11.7962
11.813
11.8315
11.8516
11.872
11.8908
11.9058
11.9151
11.9182
11.9161
11.9111
11.9077
1
1
1
1
1
1
1
1
1
1
1
1
1
1
1
1
1
1
1
1
1
1
1
1
1
1
1
1
1
1
1
1
1
1
1
1
1
1
1
1
1
1
1
1
1
1
1
1
1
1
1
1
1
1
1
1
1
1
1
1
1
1
1
1
1
1
1
1
1
1
1
1
1
1
1
1
1
1
1
1
1
1
1
1
1
1
1
1
1
1
1
1
1
1
1
1
1
1
1
1
1
1
1
1
1
1
1
1
1
1
1
1
1
1
1
1
1
1
1
1
1
1
1
1
1
1
1
1
1
1
1
1
1
1
1
1
1
1
1
1
1
1
1
1.00003
6.10935
10.27
10.3793
10.4272
10.4878
10.5499
10.6131
10.6727
10.7281
10.7812
10.8322
10.881
10.9284
10.9713
11.014
11.0565
11.1014
11.1463
11.1921
11.2359
11.2765
11.3133
11.3485
11.3838
11.4201
11.457
11.4933
11.5279
11.5608
11.5929
11.6253
11.6581
11.6898
11.718
11.741
11.7594
11.7753
11.7914
11.8094
11.8294
11.8501
11.869
11.8837
11.8924
11.8949
11.8926
11.8874
11.884
1
1
1
1
1
1
1
1
1
1
1
1
1
1
1
1
1
1
1
1
1
1
1
1
1
1
1
1
1
1
1
1
1
1
1
1
1
1
1
1
1
1
1
1
1
1
1
1
1
1
1
1
1
1
1
1
1
1
1
1
1
1
1
1
1
1
1
1
1
1
1
1
1
1
1
1
1
1
1
1
1
1
1
1
1
1
1
1
1
1
1
1
1
1
1
1
1
1
1
1
1
1
1
1
1
1
1
1
1
1
1
1
1
1
1
1
1
1
1
1
1
1
1
1
1
1
1
1
1
1
1
1
1
1
1
1
1
1
1
1
1
1
1
1
5.62967
10.2099
10.3652
10.4121
10.4747
10.537
10.6001
10.6597
10.7149
10.7672
10.8172
10.8651
10.9113
10.9536
10.9957
11.0382
11.0829
11.1272
11.1722
11.2157
11.2564
11.2935
11.3287
11.3633
11.3985
11.4343
11.4699
11.5047
11.5381
11.5705
11.6027
11.6349
11.6662
11.6944
11.7178
11.7364
11.7522
11.7677
11.785
11.8047
11.8253
11.8442
11.8585
11.8667
11.8686
11.8662
11.8609
11.8576
1
1
1
1
1
1
1
1
1
1
1
1
1
1
1
1
1
1
1
1
1
1
1
1
1
1
1
1
1
1
1
1
1
1
1
1
1
1
1
1
1
1
1
1
1
1
1
1
1
1
1
1
1
1
1
1
1
1
1
1
1
1
1
1
1
1
1
1
1
1
1
1
1
1
1
1
1
1
1
1
1
1
1
1
1
1
1
1
1
1
1
1
1
1
1
1
1
1
1
1
1
1
1
1
1
1
1
1
1
1
1
1
1
1
1
1
1
1
1
1
1
1
1
1
1
1
1
1
1
1
1
1
1
1
1
1
1
1
1
1
1
1
1
1
5.11279
10.1273
10.3501
10.3981
10.4618
10.5238
10.5862
10.6456
10.7008
10.7525
10.8018
10.8488
10.8945
10.9366
10.9783
11.0205
11.0647
11.1078
11.1514
11.1939
11.2338
11.2707
11.3057
11.3402
11.375
11.41
11.4449
11.4794
11.5128
11.5452
11.5771
11.6089
11.6398
11.668
11.6917
11.7107
11.7265
11.7416
11.7582
11.7771
11.7973
11.8159
11.83
11.8377
11.8394
11.8369
11.8317
11.8286
1
1
1
1
1
1
1
1
1
1
1
1
1
1
1
1
1
1
1
1
1
1
1
1
1
1
1
1
1
1
1
1
1
1
1
1
1
1
1
1
1
1
1
1
1
1
1
1
1
1
1
1
1
1
1
1
1
1
1
1
1
1
1
1
1
1
1
1
1
1
1
1
1
1
1
1
1
1
1
1
1
1
1
1
1
1
1
1
1
1
1
1
1
1
1
1
1
1
1
1
1
1
1
1
1
1
1
1
1
1
1
1
1
1
1
1
1
1
1
1
1
1
1
1
1
1
1
1
1
1
1
1
1
1
1
1
1
1
1
1
1
1
1
1
4.56875
10.0093
10.3366
10.3862
10.4499
10.5109
10.5724
10.6312
10.6865
10.7379
10.7863
10.8326
10.8773
10.919
10.9602
11.0018
11.0454
11.0877
11.1299
11.1711
11.2099
11.246
11.2806
11.3148
11.3491
11.3834
11.4175
11.4511
11.484
11.5163
11.5482
11.5799
11.6107
11.6387
11.6625
11.6818
11.6978
11.7127
11.7287
11.7468
11.7661
11.7842
11.7979
11.8053
11.8068
11.8043
11.7992
11.7962
1
1
1
1
1
1
1
1
1
1
1
1
1
1
1
1
1
1
1
1
1
1
1
1
1
1
1
1
1
1
1
1
1
1
1
1
1
1
1
1
1
1
1
1
1
1
1
1
1
1
1
1
1
1
1
1
1
1
1
1
1
1
1
1
1
1
1
1
1
1
1
1
1
1
1
1
1
1
1
1
1
1
1
1
1
1
1
1
1
1
1
1
1
1
1
1
1
1
1
1
1
1
1
1
1
1
1
1
1
1
1
1
1
1
1
1
1
1
1
1
1
1
1
1
1
1
1
1
1
1
1
1
1
1
1
1
1
1
1
1
1
1
1
1
4.00784
9.84035
10.3257
10.376
10.4386
10.4979
10.5585
10.6168
10.672
10.7232
10.7712
10.8169
10.8605
10.9015
10.9418
10.9824
11.0253
11.0675
11.1089
11.1488
11.1858
11.22
11.2527
11.286
11.3201
11.3543
11.3878
11.4205
11.4525
11.484
11.5156
11.5472
11.5779
11.606
11.63
11.6497
11.666
11.6809
11.6962
11.7132
11.7314
11.7485
11.7618
11.7691
11.7706
11.7683
11.7634
11.7607
1
1
1
1
1
1
1
1
1
1
1
1
1
1
1
1
1
1
1
1
1
1
1
1
1
1
1
1
1
1
1
1
1
1
1
1
1
1
1
1
1
1
1
1
1
1
1
1
1
1
1
1
1
1
1
1
1
1
1
1
1
1
1
1
1
1
1
1
1
1
1
1
1
1
1
1
1
1
1
1
1
1
1
1
1
1
1
1
1
1
1
1
1
1
1
1
1
1
1
1
1
1
1
1
1
1
1
1
1
1
1
1
1
1
1
1
1
1
1
1
1
1
1
1
1
1
1
1
1
1
1
1
1
1
1
1
1
1
1
1
1
1
1
1
3.43967
9.60818
10.3169
10.3645
10.4258
10.4829
10.5415
10.5983
10.6527
10.7042
10.7526
10.7986
10.8416
10.882
10.9214
10.961
11.0029
11.0453
11.0865
11.1256
11.1612
11.1937
11.2249
11.257
11.2903
11.3239
11.3566
11.388
11.4183
11.4485
11.4792
11.5106
11.5415
11.5699
11.5942
11.6142
11.6307
11.6455
11.6602
11.6761
11.693
11.7091
11.7218
11.7288
11.7304
11.7283
11.7236
11.721
1
1
1
1
1
1
1
1
1
1
1
1
1
1
1
1
1
1
1
1
1
1
1
1
1
1
1
1
1
1
1
1
1
1
1
1
1
1
1
1
1
1
1
1
1
1
1
1
1
1
1
1
1
1
1
1
1
1
1
1
1
1
1
1
1
1
1
1
1
1
1
1
1
1
1
1
1
1
1
1
1
1
1
1
1
1
1
1
1
1
1
1
1
1
1
1
1
1
1
1
1
1
1
1
1
1
1
1
1
1
1
1
1
1
1
1
1
1
1
1
1
1
1
1
1
1
1
1
1
1
1
1
1
1
1
1
1
1
1
1
1
1
1
1
2.88448
9.2974
10.3198
10.3596
10.4189
10.4725
10.5278
10.5813
10.634
10.6857
10.7344
10.7803
10.8226
10.8621
10.9003
10.9385
10.9791
11.0214
11.0626
11.1012
11.1355
11.1664
11.1959
11.2269
11.2597
11.2928
11.3245
11.3541
11.3824
11.4106
11.4399
11.4707
11.5015
11.5302
11.5547
11.5748
11.5914
11.6059
11.6201
11.6349
11.6504
11.6653
11.6772
11.684
11.6858
11.6841
11.6798
11.6775
1
1
1
1
1
1
1
1
1
1
1
1
1
1
1
1
1
1
1
1
1
1
1
1
1
1
1
1
1
1
1
1
1
1
1
1
1
1
1
1
1
1
1
1
1
1
1
1
1
1
1
1
1
1
1
1
1
1
1
1
1
1
1
1
1
1
1
1
1
1
1
1
1
1
1
1
1
1
1
1
1
1
1
1
1
1
1
1
1
1
1
1
1
1
1
1
1
1
1
1
1
1
1
1
1
1
1
1
1
1
1
1
1
1
1
1
1
1
1
1
1
1
1
1
1
1
1
1
1
1
1
1
1
1
1
1
1
1
1
1
1
1
1
1
2.35344
8.88559
10.3354
10.3559
10.411
10.4587
10.5115
10.564
10.6163
10.6677
10.7162
10.762
10.8037
10.8424
10.8795
10.9164
10.9551
10.9965
11.0369
11.0748
11.1082
11.1378
11.1659
11.1956
11.2275
11.2599
11.2908
11.3189
11.3451
11.3711
11.3986
11.4281
11.4583
11.4868
11.5114
11.5314
11.5479
11.5622
11.5758
11.5896
11.6037
11.6172
11.6281
11.6344
11.6362
11.6348
11.6307
11.6288
1
1
1
1
1
1
1
1
1
1
1
1
1
1
1
1
1
1
1
1
1
1
1
1
1
1
1
1
1
1
1
1
1
1
1
1
1
1
1
1
1
1
1
1
1
1
1
1
1
1
1
1
1
1
1
1
1
1
1
1
1
1
1
1
1
1
1
1
1
1
1
1
1
1
1
1
1
1
1
1
1
1
1
1
1
1
1
1
1
1
1
1
1
1
1
1
1
1
1
1
1
1
1
1
1
1
1
1
1
1
1
1
1
1
1
1
1
1
1
1
1
1
1
1
1
1
1
1
1
1
1
1
1
1
1
1
1
1
1
1
1
1
1
1
1.84522
8.38608
10.3842
10.3532
10.4032
10.4472
10.4969
10.5461
10.5959
10.6464
10.6954
10.7423
10.7846
10.823
10.8592
10.8948
10.9312
10.9708
11.0097
11.0467
11.0795
11.1084
11.1353
11.1636
11.1941
11.2253
11.255
11.2818
11.3061
11.33
11.3554
11.3832
11.4123
11.44
11.4641
11.4837
11.4997
11.5135
11.5264
11.5391
11.5518
11.5637
11.5734
11.5793
11.5812
11.5802
11.5767
11.5752
1
1
1
1
1
1
1
1
1
1
1
1
1
1
1
1
1
1
1
1
1
1
1
1
1
1
1
1
1
1
1
1
1
1
1
1
1
1
1
1
1
1
1
1
1
1
1
1
1
1
1
1
1
1
1
1
1
1
1
1
1
1
1
1
1
1
1
1
1
1
1
1
1
1
1
1
1
1
1
1
1
1
1
1
1
1
1
1
1
1
1
1
1
1
1
1
1
1
1
1
1
1
1
1
1
1
1
1
1
1
1
1
1
1
1
1
1
1
1
1
1
1
1
1
1
1
1
1
1
1
1
1
1
1
1
1
1
1
1
1
1
1
1
1
1.40384
7.77879
10.4238
10.3481
10.3782
10.4175
10.4682
10.5208
10.5729
10.6232
10.6712
10.7178
10.7609
10.7998
10.8361
10.8712
10.9061
10.9436
10.9812
11.0173
11.0496
11.0778
11.1038
11.1307
11.1595
11.1891
11.2173
11.2425
11.2652
11.2871
11.3104
11.3362
11.3635
11.3899
11.4129
11.4317
11.447
11.4601
11.4721
11.4838
11.495
11.5053
11.5135
11.5185
11.52
11.519
11.5157
11.5143
1
1
1
1
1
1
1
1
1
1
1
1
1
1
1
1
1
1
1
1
1
1
1
1
1
1
1
1
1
1
1
1
1
1
1
1
1
1
1
1
1
1
1
1
1
1
1
1
1
1
1
1
1
1
1
1
1
1
1
1
1
1
1
1
1
1
1
1
1
1
1
1
1
1
1
1
1
1
1
1
1
1
1
1
1
1
1
1
1
1
1
1
1
1
1
1
1
1
1
1
1
1
1
1
1
1
1
1
1
1
1
1
1
1
1
1
1
1
1
1
1
1
1
1
1
1
1
1
1
1
1
1
1
1
1
1
1
1
1
1
1
1
1
1
1.1033
7.13353
10.3466
10.3183
10.3517
10.3961
10.4469
10.4971
10.5461
10.595
10.6431
10.6898
10.7332
10.7719
10.8088
10.8444
10.879
10.9151
10.9514
10.9866
11.0183
11.0458
11.071
11.0966
11.1237
11.1514
11.1778
11.2015
11.2224
11.2424
11.2635
11.287
11.312
11.3364
11.3578
11.3752
11.3893
11.4013
11.4121
11.4222
11.4316
11.4399
11.4466
11.4507
11.4519
11.4509
11.448
11.447
1
1
1
1
1
1
1
1
1
1
1
1
1
1
1
1
1
1
1
1
1
1
1
1
1
1
1
1
1
1
1
1
1
1
1
1
1
1
1
1
1
1
1
1
1
1
1
1
1
1
1
1
1
1
1
1
1
1
1
1
1
1
1
1
1
1
1
1
1
1
1
1
1
1
1
1
1
1
1
1
1
1
1
1
1
1
1
1
1
1
1
1
1
1
1
1
1
1
1
1
1
1
1
1
1
1
1
1
1
1
1
1
1
1
1
1
1
1
1
1
1
1
1
1
1
1
1
1
1
1
1
1
1
1
1
1
1
1
1
1
1
1
1
1
1.0031
6.31427
10.194
10.2579
10.3004
10.3487
10.4047
10.4631
10.5189
10.5693
10.6155
10.6596
10.7027
10.7413
10.7778
10.813
10.8479
10.8835
10.9193
10.954
10.9851
11.0121
11.0364
11.0608
11.0864
11.1122
11.1368
11.1587
11.1778
11.1957
11.2144
11.2352
11.2575
11.2793
11.2985
11.3142
11.3268
11.3373
11.3466
11.355
11.3624
11.3687
11.3734
11.3759
11.3759
11.3739
11.3706
11.3694
1
1
1
1
1
1
1
1
1
1
1
1
1
1
1
1
1
1
1
1
1
1
1
1
1
1
1
1
1
1
1
1
1
1
1
1
1
1
1
1
1
1
1
1
1
1
1
1
1
1
1
1
1
1
1
1
1
1
1
1
1
1
1
1
1
1
1
1
1
1
1
1
1
1
1
1
1
1
1
1
1
1
1
1
1
1
1
1
1
1
1
1
1
1
1
1
1
1
1
1
1
1
1
1
1
1
1
1
1
1
1
1
1
1
1
1
1
1
1
1
1
1
1
1
1
1
1
1
1
1
1
1
1
1
1
1
1
1
1
1
1
1
1
1
1.00001
5.45679
10.0624
10.1999
10.265
10.3293
10.3875
10.4417
10.4921
10.5397
10.5852
10.6291
10.6705
10.7075
10.7436
10.7785
10.813
10.8481
10.884
10.9186
10.9495
10.9761
10.9997
11.023
11.0472
11.0714
11.0941
11.1141
11.1312
11.1468
11.1629
11.1806
11.1998
11.2186
11.2352
11.2487
11.2592
11.2677
11.2747
11.2803
11.2848
11.2884
11.2907
11.2913
11.2901
11.2876
11.2842
11.2832
1
1
1
1
1
1
1
1
1
1
1
1
1
1
1
1
1
1
1
1
1
1
1
1
1
1
1
1
1
1
1
1
1
1
1
1
1
1
1
1
1
1
1
1
1
1
1
1
1
1
1
1
1
1
1
1
1
1
1
1
1
1
1
1
1
1
1
1
1
1
1
1
1
1
1
1
1
1
1
1
1
1
1
1
1
1
1
1
1
1
1
1
1
1
1
1
1
1
1
1
1
1
1
1
1
1
1
1
1
1
1
1
1
1
1
1
1
1
1
1
1
1
1
1
1
1
1
1
1
1
1
1
1
1
1
1
1
1
1
1
1
1
1
1
1
4.53081
9.80416
10.1641
10.23
10.2966
10.3573
10.4156
10.4689
10.5171
10.5608
10.6009
10.64
10.6761
10.7085
10.7413
10.7753
10.8103
10.8458
10.8802
10.9111
10.9375
10.9606
10.9828
11.0057
11.0283
11.0492
11.0673
11.0824
11.0956
11.1087
11.1231
11.1387
11.1542
11.1678
11.1786
11.1864
11.1921
11.1962
11.1988
11.2004
11.201
11.2003
11.1979
11.1938
11.1888
11.1838
11.1814
1
1
1
1
1
1
1
1
1
1
1
1
1
1
1
1
1
1
1
1
1
1
1
1
1
1
1
1
1
1
1
1
1
1
1
1
1
1
1
1
1
1
1
1
1
1
1
1
1
1
1
1
1
1
1
1
1
1
1
1
1
1
1
1
1
1
1
1
1
1
1
1
1
1
1
1
1
1
1
1
1
1
1
1
1
1
1
1
1
1
1
1
1
1
1
1
1
1
1
1
1
1
1
1
1
1
1
1
1
1
1
1
1
1
1
1
1
1
1
1
1
1
1
1
1
1
1
1
1
1
1
1
1
1
1
1
1
1
1
1
1
1
1
1
1
3.6066
9.4697
10.1453
10.2268
10.2957
10.346
10.3946
10.4417
10.4865
10.5303
10.5708
10.6084
10.6448
10.6764
10.7057
10.7365
10.7688
10.8043
10.8385
10.869
10.8955
10.9184
10.9397
10.9612
10.9825
11.0018
11.0181
11.0312
11.0419
11.0517
11.0623
11.0741
11.086
11.0962
11.1037
11.1081
11.1102
11.1105
11.1089
11.1061
11.1019
11.0964
11.0898
11.0826
11.0758
11.07
11.0677
1
1
1
1
1
1
1
1
1
1
1
1
1
1
1
1
1
1
1
1
1
1
1
1
1
1
1
1
1
1
1
1
1
1
1
1
1
1
1
1
1
1
1
1
1
1
1
1
1
1
1
1
1
1
1
1
1
1
1
1
1
1
1
1
1
1
1
1
1
1
1
1
1
1
1
1
1
1
1
1
1
1
1
1
1
1
1
1
1
1
1
1
1
1
1
1
1
1
1
1
1
1
1
1
1
1
1
1
1
1
1
1
1
1
1
1
1
1
1
1
1
1
1
1
1
1
1
1
1
1
1
1
1
1
1
1
1
1
1
1
1
1
1
1
1
2.7522
8.95752
10.1686
10.2148
10.2693
10.3172
10.3717
10.4215
10.4656
10.5047
10.5405
10.5747
10.6093
10.642
10.6706
10.6987
10.7296
10.7609
10.7939
10.8247
10.8508
10.8732
10.8935
10.9136
10.9333
10.9512
10.9658
10.977
10.9851
10.9915
10.9983
11.0061
11.0141
11.0204
11.0238
11.0242
11.0221
11.017
11.0104
11.0027
10.9935
10.9828
10.9706
10.9573
10.9444
10.9341
10.9286
1
1
1
1
1
1
1
1
1
1
1
1
1
1
1
1
1
1
1
1
1
1
1
1
1
1
1
1
1
1
1
1
1
1
1
1
1
1
1
1
1
1
1
1
1
1
1
1
1
1
1
1
1
1
1
1
1
1
1
1
1
1
1
1
1
1
1
1
1
1
1
1
1
1
1
1
1
1
1
1
1
1
1
1
1
1
1
1
1
1
1
1
1
1
1
1
1
1
1
1
1
1
1
1
1
1
1
1
1
1
1
1
1
1
1
1
1
1
1
1
1
1
1
1
1
1
1
1
1
1
1
1
1
1
1
1
1
1
1
1
1
1
1
1
1
1.90302
8.30743
10.2708
10.2123
10.2675
10.3099
10.3494
10.3887
10.4323
10.4744
10.5132
10.5467
10.5778
10.6073
10.6338
10.6587
10.6856
10.717
10.7489
10.7772
10.8029
10.8246
10.8437
10.8622
10.8804
10.8968
10.9102
10.9198
10.9251
10.9282
10.9311
10.9344
10.9382
10.9399
10.9389
10.9344
10.9264
10.9156
10.9029
10.8882
10.8706
10.8502
10.8281
10.8066
10.7885
10.7757
10.7708
1
1
1
1
1
1
1
1
1
1
1
1
1
1
1
1
1
1
1
1
1
1
1
1
1
1
1
1
1
1
1
1
1
1
1
1
1
1
1
1
1
1
1
1
1
1
1
1
1
1
1
1
1
1
1
1
1
1
1
1
1
1
1
1
1
1
1
1
1
1
1
1
1
1
1
1
1
1
1
1
1
1
1
1
1
1
1
1
1
1
1
1
1
1
1
1
1
1
1
1
1
1
1
1
1
1
1
1
1
1
1
1
1
1
1
1
1
1
1
1
1
1
1
1
1
1
1
1
1
1
1
1
1
1
1
1
1
1
1
1
1
1
1
1
1
1.20594
7.4876
10.3615
10.2351
10.2281
10.26
10.3077
10.3571
10.402
10.4424
10.4802
10.5141
10.5453
10.574
10.5986
10.6201
10.6431
10.6698
10.7003
10.7297
10.7533
10.7729
10.7904
10.807
10.8234
10.8386
10.8512
10.8588
10.8617
10.8615
10.8601
10.8592
10.8585
10.8552
10.8488
10.8381
10.8236
10.806
10.7855
10.7617
10.7343
10.7037
10.6714
10.6386
10.6064
10.5797
10.5627
1
1
1
1
1
1
1
1
1
1
1
1
1
1
1
1
1
1
1
1
1
1
1
1
1
1
1
1
1
1
1
1
1
1
1
1
1
1
1
1
1
1
1
1
1
1
1
1
1
1
1
1
1
1
1
1
1
1
1
1
1
1
1
1
1
1
1
1
1
1
1
1
1
1
1
1
1
1
1
1
1
1
1
1
1
1
1
1
1
1
1
1
1
1
1
1
1
1
1
1
1
1
1
1
1
1
1
1
1
1
1
1
1
1
1
1
1
1
1
1
1
1
1
1
1
1
1
1
1
1
1
1
1
1
1
1
1
1
1
1
1
1
1
1
1
1.00574
6.53044
10.152
10.1025
10.1789
10.2288
10.2776
10.3205
10.3675
10.4099
10.4477
10.4816
10.512
10.5384
10.5615
10.5819
10.6024
10.6266
10.6535
10.6801
10.7019
10.7195
10.7342
10.7485
10.763
10.7767
10.7881
10.7938
10.7945
10.7911
10.7856
10.7803
10.7745
10.7656
10.753
10.7354
10.7136
10.6879
10.658
10.623
10.582
10.5341
10.48
10.4237
10.3724
10.3328
10.318
1
1
1
1
1
1
1
1
1
1
1
1
1
1
1
1
1
1
1
1
1
1
1
1
1
1
1
1
1
1
1
1
1
1
1
1
1
1
1
1
1
1
1
1
1
1
1
1
1
1
1
1
1
1
1
1
1
1
1
1
1
1
1
1
1
1
1
1
1
1
1
1
1
1
1
1
1
1
1
1
1
1
1
1
1
1
1
1
1
1
1
1
1
1
1
1
1
1
1
1
1
1
1
1
1
1
1
1
1
1
1
1
1
1
1
1
1
1
1
1
1
1
1
1
1
1
1
1
1
1
1
1
1
1
1
1
1
1
1
1
1
1
1
1
1
0.999997
5.32836
9.8749
10.0537
10.1397
10.1893
10.2428
10.2912
10.3315
10.3705
10.4099
10.4453
10.4759
10.5012
10.5223
10.5415
10.5606
10.5827
10.6077
10.6322
10.6513
10.6644
10.6762
10.6881
10.7
10.7116
10.7211
10.7246
10.7231
10.7167
10.7075
10.6976
10.6864
10.6713
10.652
10.6269
10.5969
10.5616
10.5201
10.4705
10.4113
10.3425
10.2667
10.1872
10.1079
10.0235
9.95208
1
1
1
1
1
1
1
1
1
1
1
1
1
1
1
1
1
1
1
1
1
1
1
1
1
1
1
1
1
1
1
1
1
1
1
1
1
1
1
1
1
1
1
1
1
1
1
1
1
1
1
1
1
1
1
1
1
1
1
1
1
1
1
1
1
1
1
1
1
1
1
1
1
1
1
1
1
1
1
1
1
1
1
1
1
1
1
1
1
1
1
1
1
1
1
1
1
1
1
1
1
1
1
1
1
1
1
1
1
1
1
1
1
1
1
1
1
1
1
1
1
1
1
1
1
1
1
1
1
1
1
1
1
1
1
1
1
1
1
1
1
1
1
1
1
0.999999
4.1928
9.57843
10.0107
10.0885
10.1657
10.216
10.2546
10.2915
10.3302
10.3668
10.4026
10.4352
10.4611
10.4812
10.4996
10.5181
10.5384
10.561
10.583
10.6004
10.611
10.6183
10.6269
10.6363
10.6446
10.651
10.6518
10.6478
10.6383
10.6255
10.6111
10.594
10.5724
10.5457
10.5126
10.4733
10.4269
10.3716
10.3048
10.2248
10.1297
10.0168
9.87925
9.71828
9.56204
9.45396
1
1
1
1
1
1
1
1
1
1
1
1
1
1
1
1
1
1
1
1
1
1
1
1
1
1
1
1
1
1
1
1
1
1
1
1
1
1
1
1
1
1
1
1
1
1
1
1
1
1
1
1
1
1
1
1
1
1
1
1
1
1
1
1
1
1
1
1
1
1
1
1
1
1
1
1
1
1
1
1
1
1
1
1
1
1
1
1
1
1
1
1
1
1
1
1
1
1
1
1
1
1
1
1
1
1
1
1
1
1
1
1
1
1
1
1
1
1
1
1
1
1
1
1
1
1
1
1
1
1
1
1
1
1
1
1
1
1
1
1
1
1
1
1
1
1
3.08836
9.02418
9.99573
10.0879
10.1525
10.1985
10.2335
10.2624
10.2929
10.3258
10.3608
10.3923
10.418
10.4382
10.4558
10.4734
10.4921
10.5126
10.5322
10.5476
10.5565
10.5615
10.5662
10.5721
10.5766
10.5788
10.5761
10.5693
10.5565
10.54
10.5209
10.4979
10.4693
10.4348
10.3932
10.3438
10.2849
10.214
10.1273
10.0215
9.89117
9.73035
9.53475
9.30069
9.05115
8.90779
1
1
1
1
1
1
1
1
1
1
1
1
1
1
1
1
1
1
1
1
1
1
1
1
1
1
1
1
1
1
1
1
1
1
1
1
1
1
1
1
1
1
1
1
1
1
1
1
1
1
1
1
1
1
1
1
1
1
1
1
1
1
1
1
1
1
1
1
1
1
1
1
1
1
1
1
1
1
1
1
1
1
1
1
1
1
1
1
1
1
1
1
1
1
1
1
1
1
1
1
1
1
1
1
1
1
1
1
1
1
1
1
1
1
1
1
1
1
1
1
1
1
1
1
1
1
1
1
1
1
1
1
1
1
1
1
1
1
1
1
1
1
1
1
1
1
1.99931
8.281
10.1484
10.0999
10.1246
10.1582
10.1946
10.2304
10.262
10.2916
10.3202
10.3483
10.3725
10.392
10.4095
10.4261
10.4434
10.462
10.4798
10.4933
10.5013
10.5046
10.5061
10.5075
10.5074
10.505
10.4987
10.4881
10.4718
10.4514
10.4272
10.3978
10.3624
10.3199
10.2691
10.2089
10.1364
10.0482
9.93965
9.80599
9.63946
9.43001
9.14876
8.73646
7.95431
6.62817
1
1
1
1
1
1
1
1
1
1
1
1
1
1
1
1
1
1
1
1
1
1
1
1
1
1
1
1
1
1
1
1
1
1
1
1
1
1
1
1
1
1
1
1
1
1
1
1
1
1
1
1
1
1
1
1
1
1
1
1
1
1
1
1
1
1
1
1
1
1
1
1
1
1
1
1
1
1
1
1
1
1
1
1
1
1
1
1
1
1
1
1
1
1
1
1
1
1
1
1
1
1
1
1
1
1
1
1
1
1
1
1
1
1
1
1
1
1
1
1
1
1
1
1
1
1
1
1
1
1
1
1
1
1
1
1
1
1
1
1
1
1
1
1
1
1
1.1371
7.32741
10.261
10.1191
10.0839
10.1122
10.1556
10.1939
10.226
10.2558
10.2837
10.3085
10.3299
10.3475
10.3633
10.3781
10.3932
10.4097
10.4257
10.4374
10.4448
10.4467
10.4456
10.4422
10.4375
10.4298
10.4199
10.4056
10.3856
10.3606
10.3308
10.295
10.2525
10.2018
10.1415
10.07
9.98327
9.87734
9.74638
9.58454
9.3794
9.11244
8.74166
8.1956
7.4273
6.24689
1
1
1
1
1
1
1
1
1
1
1
1
1
1
1
1
1
1
1
1
1
1
1
1
1
1
1
1
1
1
1
1
1
1
1
1
1
1
1
1
1
1
1
1
1
1
1
1
1
1
1
1
1
1
1
1
1
1
1
1
1
1
1
1
1
1
1
1
1
1
1
1
1
1
1
1
1
1
1
1
1
1
1
1
1
1
1
1
1
1
1
1
1
1
1
1
1
1
1
1
1
1
1
1
1
1
1
1
1
1
1
1
1
1
1
1
1
1
1
1
1
1
1
1
1
1
1
1
1
1
1
1
1
1
1
1
1
1
1
1
1
1
1
1
1
1
1.00191
6.12003
9.9316
9.94938
10.0203
10.0681
10.1137
10.1558
10.189
10.2185
10.2455
10.2694
10.2894
10.305
10.3178
10.3296
10.3418
10.3556
10.3693
10.3799
10.3865
10.3876
10.384
10.3763
10.3663
10.354
10.3398
10.3217
10.2982
10.2681
10.2322
10.1898
10.14
10.0813
10.0115
9.92843
9.82751
9.70424
9.55204
9.36364
9.1251
8.81265
8.39185
7.79928
7.04623
5.92768
1
1
1
1
1
1
1
1
1
1
1
1
1
1
1
1
1
1
1
1
1
1
1
1
1
1
1
1
1
1
1
1
1
1
1
1
1
1
1
1
1
1
1
1
1
1
1
1
1
1
1
1
1
1
1
1
1
1
1
1
1
1
1
1
1
1
1
1
1
1
1
1
1
1
1
1
1
1
1
1
1
1
1
1
1
1
1
1
1
1
1
1
1
1
1
1
1
1
1
1
1
1
1
1
1
1
1
1
1
1
1
1
1
1
1
1
1
1
1
1
1
1
1
1
1
1
1
1
1
1
1
1
1
1
1
1
1
1
1
1
1
1
1
1
1
1
0.999979
4.68979
9.55543
9.90509
9.99912
10.0417
10.0789
10.1169
10.1491
10.1777
10.2038
10.227
10.2465
10.2617
10.2729
10.2821
10.291
10.3018
10.3125
10.3218
10.3271
10.3269
10.3214
10.31
10.2951
10.278
10.2595
10.2375
10.2103
10.1755
10.1331
10.0836
10.0264
9.95961
9.88053
9.78623
9.67176
9.53257
9.36213
9.15157
8.88844
8.54891
8.10579
7.51755
6.77546
5.89738
1
1
1
1
1
1
1
1
1
1
1
1
1
1
1
1
1
1
1
1
1
1
1
1
1
1
1
1
1
1
1
1
1
1
1
1
1
1
1
1
1
1
1
1
1
1
1
1
1
1
1
1
1
1
1
1
1
1
1
1
1
1
1
1
1
1
1
1
1
1
1
1
1
1
1
1
1
1
1
1
1
1
1
1
1
1
1
1
1
1
1
1
1
1
1
1
1
1
1
1
1
1
1
1
1
1
1
1
1
1
1
1
1
1
1
1
1
1
1
1
1
1
1
1
1
1
1
1
1
1
1
1
1
1
1
1
1
1
1
1
1
1
1
1
1
1
0.999995
3.35146
9.06763
9.90979
9.96948
10.0197
10.058
10.0816
10.1069
10.1331
10.1584
10.1816
10.2011
10.2167
10.2271
10.2344
10.2402
10.2471
10.2547
10.2621
10.2658
10.2641
10.2568
10.2427
10.2239
10.2021
10.1788
10.1524
10.121
10.0818
10.0335
9.97703
9.91235
9.83781
9.74997
9.64519
9.51861
9.36576
9.18089
8.95448
8.67545
8.32375
7.87845
7.32228
6.6614
6.01144
1
1
1
1
1
1
1
1
1
1
1
1
1
1
1
1
1
1
1
1
1
1
1
1
1
1
1
1
1
1
1
1
1
1
1
1
1
1
1
1
1
1
1
1
1
1
1
1
1
1
1
1
1
1
1
1
1
1
1
1
1
1
1
1
1
1
1
1
1
1
1
1
1
1
1
1
1
1
1
1
1
1
1
1
1
1
1
1
1
1
1
1
1
1
1
1
1
1
1
1
1
1
1
1
1
1
1
1
1
1
1
1
1
1
1
1
1
1
1
1
1
1
1
1
1
1
1
1
1
1
1
1
1
1
1
1
1
1
1
1
1
1
1
1
1
1
0.999999
2.07768
8.29815
10.0077
9.96821
9.9906
10.0198
10.0477
10.073
10.0957
10.1178
10.1388
10.157
10.1715
10.1811
10.187
10.1903
10.1933
10.1976
10.2027
10.2044
10.2008
10.1912
10.1747
10.1527
10.127
10.0988
10.0677
10.0314
9.98778
9.93434
9.8716
9.79967
9.7175
9.62143
9.50724
9.37035
9.20656
9.01111
8.77529
8.48933
8.13867
7.71154
7.20661
6.65152
6.13437
1
1
1
1
1
1
1
1
1
1
1
1
1
1
1
1
1
1
1
1
1
1
1
1
1
1
1
1
1
1
1
1
1
1
1
1
1
1
1
1
1
1
1
1
1
1
1
1
1
1
1
1
1
1
1
1
1
1
1
1
1
1
1
1
1
1
1
1
1
1
1
1
1
1
1
1
1
1
1
1
1
1
1
1
1
1
1
1
1
1
1
1
1
1
1
1
1
1
1
1
1
1
1
1
1
1
1
1
1
1
1
1
1
1
1
1
1
1
1
1
1
1
1
1
1
1
1
1
1
1
1
1
1
1
1
1
1
1
1
1
1
1
1
1
1
1
1
1.13581
7.20367
10.0965
9.98297
9.95344
9.97493
10.0103
10.0355
10.0569
10.0765
10.095
10.1114
10.1244
10.1333
10.1379
10.1394
10.1388
10.1399
10.1422
10.1417
10.1361
10.1242
10.1056
10.081
10.0521
10.0193
9.98306
9.94173
9.8931
9.83481
9.76671
9.68856
9.59951
9.49607
9.37397
9.22893
9.05719
8.85494
8.61528
8.3302
7.99039
7.59182
7.14243
6.67474
6.24049
1
1
1
1
1
1
1
1
1
1
1
1
1
1
1
1
1
1
1
1
1
1
1
1
1
1
1
1
1
1
1
1
1
1
1
1
1
1
1
1
1
1
1
1
1
1
1
1
1
1
1
1
1
1
1
1
1
1
1
1
1
1
1
1
1
1
1
1
1
1
1
1
1
1
1
1
1
1
1
1
1
1
1
1
1
1
1
1
1
1
1
1
1
1
1
1
1
1
1
1
1
1
1
1
1
1
1
1
1
1
1
1
1
1
1
1
1
1
1
1
1
1
1
1
1
1
1
1
1
1
1
1
1
1
1
1
1
1
1
1
1
1
1
1
1
1
1
1.00167
5.77677
9.70928
9.80898
9.88123
9.92394
9.9646
9.9923
10.0151
10.0341
10.0509
10.0657
10.0772
10.0855
10.0886
10.0883
10.0851
10.0829
10.082
10.079
10.0715
10.0573
10.0364
10.0095
9.97734
9.94051
9.89933
9.85272
9.79914
9.73635
9.66347
9.58012
9.48518
9.37523
9.24662
9.09542
8.91848
8.71286
8.4736
8.195
7.87235
7.50589
7.10457
6.69987
6.31036
1
1
1
1
1
1
1
1
1
1
1
1
1
1
1
1
1
1
1
1
1
1
1
1
1
1
1
1
1
1
1
1
1
1
1
1
1
1
1
1
1
1
1
1
1
1
1
1
1
1
1
1
1
1
1
1
1
1
1
1
1
1
1
1
1
1
1
1
1
1
1
1
1
1
1
1
1
1
1
1
1
1
1
1
1
1
1
1
1
1
1
1
1
1
1
1
1
1
1
1
1
1
1
1
1
1
1
1
1
1
1
1
1
1
1
1
1
1
1
1
1
1
1
1
1
1
1
1
1
1
1
1
1
1
1
1
1
1
1
1
1
1
1
1
1
1
1
0.999979
4.18231
9.30175
9.78537
9.86414
9.90772
9.93199
9.9537
9.97433
9.99185
10.0068
10.0196
10.0297
10.0371
10.0385
10.0365
10.0311
10.0257
10.0213
10.0154
10.0057
9.98966
9.96669
9.93769
9.90263
9.8622
9.8166
9.76505
9.70657
9.63944
9.56215
9.47399
9.37401
9.25942
9.12591
8.97062
8.79106
8.58505
8.34937
8.08051
7.77706
7.44097
7.08134
6.72049
6.37002
1
1
1
1
1
1
1
1
1
1
1
1
1
1
1
1
1
1
1
1
1
1
1
1
1
1
1
1
1
1
1
1
1
1
1
1
1
1
1
1
1
1
1
1
1
1
1
1
1
1
1
1
1
1
1
1
1
1
1
1
1
1
1
1
1
1
1
1
1
1
1
1
1
1
1
1
1
1
1
1
1
1
1
1
1
1
1
1
1
1
1
1
1
1
1
1
1
1
1
1
1
1
1
1
1
1
1
1
1
1
1
1
1
1
1
1
1
1
1
1
1
1
1
1
1
1
1
1
1
1
1
1
1
1
1
1
1
1
1
1
1
1
1
1
1
1
1
0.999995
2.61335
8.64132
9.86649
9.86212
9.8734
9.88981
9.9159
9.93493
9.95035
9.96317
9.97397
9.9824
9.98827
9.98863
9.98484
9.97749
9.96904
9.96114
9.952
9.9398
9.92206
9.89731
9.86618
9.8284
9.78453
9.7349
9.67885
9.61571
9.54447
9.46361
9.37173
9.26716
9.1488
9.01253
8.85478
8.67466
8.4707
8.24052
7.98305
7.69825
7.39003
7.06986
6.7407
6.43571
1
1
1
1
1
1
1
1
1
1
1
1
1
1
1
1
1
1
1
1
1
1
1
1
1
1
1
1
1
1
1
1
1
1
1
1
1
1
1
1
1
1
1
1
1
1
1
1
1
1
1
1
1
1
1
1
1
1
1
1
1
1
1
1
1
1
1
1
1
1
1
1
1
1
1
1
1
1
1
1
1
1
1
1
1
1
1
1
1
1
1
1
1
1
1
1
1
1
1
1
1
1
1
1
1
1
1
1
1
1
1
1
1
1
1
1
1
1
1
1
1
1
1
1
1
1
1
1
1
1
1
1
1
1
1
1
1
1
1
1
1
1
1
1
1
1
1
0.999999
1.35825
7.67885
10.018
9.86925
9.82719
9.84445
9.87437
9.89286
9.90731
9.91866
9.92777
9.93461
9.93864
9.93846
9.9332
9.9241
9.91281
9.90129
9.88876
9.87367
9.85392
9.8276
9.79454
9.75466
9.70782
9.65462
9.59473
9.52759
9.45254
9.36843
9.2735
9.16551
9.04331
8.90511
8.74757
8.56882
8.36873
8.14616
7.90011
7.63292
7.35116
7.06253
6.76294
6.5002
1
1
1
1
1
1
1
1
1
1
1
1
1
1
1
1
1
1
1
1
1
1
1
1
1
1
1
1
1
1
1
1
1
1
1
1
1
1
1
1
1
1
1
1
1
1
1
1
1
1
1
1
1
1
1
1
1
1
1
1
1
1
1
1
1
1
1
1
1
1
1
1
1
1
1
1
1
1
1
1
1
1
1
1
1
1
1
1
1
1
1
1
1
1
1
1
1
1
1
1
1
1
1
1
1
1
1
1
1
1
1
1
1
1
1
1
1
1
1
1
1
1
1
1
1
1
1
1
1
1
1
1
1
1
1
1
1
1
1
1
1
1
1
1
1
1
1
1
1.01391
6.23232
9.66191
9.69894
9.75708
9.79398
9.82786
9.84676
9.86156
9.87274
9.88062
9.8858
9.88853
9.88787
9.88158
9.87088
9.85687
9.84182
9.826
9.80785
9.78581
9.75797
9.72328
9.68163
9.63259
9.5761
9.51253
9.44173
9.36323
9.27621
9.17889
9.06884
8.94447
8.80457
8.64771
8.47259
8.27787
8.06322
7.82998
7.57991
7.31925
7.05603
6.7909
6.55499
1
1
1
1
1
1
1
1
1
1
1
1
1
1
1
1
1
1
1
1
1
1
1
1
1
1
1
1
1
1
1
1
1
1
1
1
1
1
1
1
1
1
1
1
1
1
1
1
1
1
1
1
1
1
1
1
1
1
1
1
1
1
1
1
1
1
1
1
1
1
1
1
1
1
1
1
1
1
1
1