/*--------------------------------*- C++ -*----------------------------------*\
  =========                 |
  \\      /  F ield         | OpenFOAM: The Open Source CFD Toolbox
   \\    /   O peration     | Website:  https://openfoam.org
    \\  /    A nd           | Version:  7
     \\/     M anipulation  |
\*---------------------------------------------------------------------------*/
FoamFile
{
    version     2.0;
    format      ascii;
    class       volScalarField;
    location    "2.1";
    object      rho;
}
// * * * * * * * * * * * * * * * * * * * * * * * * * * * * * * * * * * * * * //

dimensions      [1 -3 0 0 0 0 0];

internalField   nonuniform List<scalar> 
4128
(
1.40001
1.40001
1.40001
1.40001
1.40001
1.40001
1.40001
1.40001
1.40001
1.40001
1.40001
1.40001
1.40001
1.40001
1.40001
1.40001
1.40001
1.82972
4.71587
5.51856
5.60168
5.71744
5.8143
5.89746
1.40001
1.40001
1.40001
1.40001
1.40001
1.40001
1.40001
1.40001
1.40001
1.40001
1.40001
1.40001
1.40001
1.40001
1.40001
1.40001
1.40001
1.75905
4.59079
5.48596
5.56777
5.67334
5.75955
5.80213
1.40001
1.40001
1.40001
1.40001
1.40001
1.40001
1.40001
1.40001
1.40001
1.40001
1.40001
1.40001
1.40001
1.40001
1.40001
1.40001
1.40001
1.61252
4.38346
5.44512
5.49831
5.56763
5.60625
5.65384
1.40001
1.40001
1.40001
1.40001
1.40001
1.40001
1.40001
1.40001
1.40001
1.40001
1.40001
1.40001
1.40001
1.40001
1.40001
1.40001
1.40001
1.42871
4.01297
5.36614
5.39279
5.44512
5.43737
5.49267
1.40001
1.40001
1.40001
1.40001
1.40001
1.40001
1.40001
1.40001
1.40001
1.40001
1.40001
1.40001
1.40001
1.40001
1.40001
1.40001
1.40001
1.40032
3.43007
5.20065
5.23335
5.22536
4.97656
4.22042
1.40001
1.40001
1.40001
1.40001
1.40001
1.40001
1.40001
1.40001
1.40001
1.40001
1.40001
1.40001
1.40001
1.40001
1.40001
1.40001
1.40001
1.4
2.70816
4.99601
5.12724
5.00909
4.70953
3.97212
1.40001
1.40001
1.40001
1.40001
1.40001
1.40001
1.40001
1.40001
1.40001
1.40001
1.40001
1.40001
1.40001
1.40001
1.40001
1.40001
1.40001
1.4
1.92839
4.66518
5.08823
4.87086
4.55223
3.83816
1.40001
1.40001
1.40001
1.40001
1.40001
1.40001
1.40001
1.40001
1.40001
1.40001
1.40001
1.40001
1.40001
1.40001
1.40001
1.40001
1.40001
1.4
1.46203
3.83924
4.91469
4.69193
4.40152
3.79899
1.40001
1.40001
1.40001
1.40001
1.40001
1.40001
1.40001
1.40001
1.40001
1.40001
1.40001
1.40001
1.40001
1.40001
1.40001
1.40001
1.40001
1.40001
1.40015
2.65811
4.66604
4.64875
4.32778
3.84446
1.40001
1.40001
1.40001
1.40001
1.40001
1.40001
1.40001
1.40001
1.40001
1.40001
1.40001
1.40001
1.40001
1.40001
1.40001
1.40001
1.40001
1.40001
1.4
1.65696
4.02656
4.69137
4.33719
3.91358
1.40001
1.40001
1.40001
1.40001
1.40001
1.40001
1.40001
1.40001
1.40001
1.40001
1.40001
1.40001
1.40001
1.40001
1.40001
1.40001
1.40001
1.40001
1.4
1.40816
2.77604
4.50061
4.36569
3.97158
1.40001
1.40001
1.40001
1.40001
1.40001
1.40001
1.40001
1.40001
1.40001
1.40001
1.40001
1.40001
1.40001
1.40001
1.40001
1.40001
1.40001
1.40001
1.4
1.40002
1.6835
3.77378
4.46053
4.06524
1.40001
1.40001
1.40001
1.40001
1.40001
1.40001
1.40001
1.40001
1.40001
1.40001
1.40001
1.40001
1.40001
1.40001
1.40001
1.40001
1.40001
1.40001
1.40001
1.40001
1.40999
2.39897
4.17063
4.13365
1.40001
1.40001
1.40001
1.40001
1.40001
1.40001
1.40001
1.40001
1.40001
1.40001
1.40001
1.40001
1.40001
1.40001
1.40001
1.40001
1.40001
1.40001
1.40001
1.40001
1.40007
1.5438
3.19062
4.15258
1.40001
1.40001
1.40001
1.40001
1.40001
1.40001
1.40001
1.40001
1.40001
1.40001
1.40001
1.40001
1.40001
1.40001
1.40001
1.40001
1.40001
1.40001
1.40001
1.40001
1.40001
1.40324
1.90153
3.6023
1.40001
1.40001
1.40001
1.40001
1.40001
1.40001
1.40001
1.40001
1.40001
1.40001
1.40001
1.40001
1.40001
1.40001
1.40001
1.40001
1.40001
1.40001
1.40001
1.40001
1.40001
1.40002
1.43438
2.31309
1.40001
1.40001
1.40001
1.40001
1.40001
1.40001
1.40001
1.40001
1.40001
1.40001
1.40001
1.40001
1.40001
1.40001
1.40001
1.40001
1.40001
1.40001
1.40001
1.40001
1.40001
1.40001
1.40048
1.51659
1.40001
1.40001
1.40001
1.40001
1.40001
1.40001
1.40001
1.40001
1.40001
1.40001
1.40001
1.40001
1.40001
1.40001
1.40001
1.40001
1.40001
1.40001
1.40001
1.40001
1.40001
1.40001
1.40001
1.40301
1.40001
1.40001
1.40001
1.40001
1.40001
1.40001
1.40001
1.40001
1.40001
1.40001
1.40001
1.40001
1.40001
1.40001
1.40001
1.40001
1.40001
1.40001
1.40001
1.40001
1.40001
1.40001
1.40001
1.40002
1.40001
1.40001
1.40001
1.40001
1.40001
1.40001
1.40001
1.40001
1.40001
1.40001
1.40001
1.40001
1.40001
1.40001
1.40001
1.40001
1.40001
1.40001
1.40001
1.40001
1.40001
1.40001
1.40001
1.40001
1.40001
1.40001
1.40001
1.40001
1.40001
1.40001
1.40001
1.40001
1.40001
1.40001
1.40001
1.40001
1.40001
1.40001
1.40001
1.40001
1.40001
1.40001
1.40001
1.40001
1.40001
1.40001
1.40001
1.40001
1.40001
1.40001
1.40001
1.40001
1.40001
1.40001
1.40001
1.40001
1.40001
1.40001
1.40001
1.40001
1.40001
1.40001
1.40001
1.40001
1.40001
1.40001
1.40001
1.40001
1.40001
1.40001
1.40001
1.40001
1.40001
1.40001
1.40001
1.40001
1.40001
1.40001
1.40001
1.40001
1.40001
1.40001
1.40001
1.40001
1.40001
1.40001
1.40001
1.40001
1.40001
1.40001
1.40001
1.40001
1.40001
1.40001
1.40001
1.40001
1.40001
1.40001
1.40001
1.40001
1.40001
1.40001
1.40001
1.40001
1.40001
1.40001
1.40001
1.40001
1.40001
1.40001
1.40001
1.40001
1.40001
1.40001
1.40001
1.40001
1.40001
1.40001
1.40001
1.40001
1.40001
1.40001
1.40001
1.40001
1.40001
1.40001
1.40001
1.40001
1.40001
1.40001
1.40001
1.40001
1.40001
1.40001
1.40001
1.40001
1.40001
1.40001
1.40001
1.40001
1.40001
1.40001
1.40001
1.40001
1.40001
1.40001
1.40001
1.40001
1.40001
1.40001
1.40001
1.40001
1.40001
1.40001
1.40001
1.40001
1.40001
1.40001
1.40001
1.40001
1.40001
1.40001
1.40001
1.40001
1.40001
1.40001
1.40001
1.40001
1.40001
1.40001
1.40001
1.40001
1.40001
1.40001
1.40001
1.40001
1.40001
1.40001
1.40001
1.40001
1.40001
1.40001
1.40001
1.40001
1.40001
1.40001
1.40001
1.40001
1.40001
1.40001
1.40001
1.40001
1.40001
1.40001
1.40001
1.40001
1.40001
1.40001
1.40001
1.40001
1.40001
1.40001
1.40001
1.40001
1.40001
1.40001
1.40001
1.40001
1.40001
1.40001
1.40001
1.40001
1.40001
1.40001
1.40001
1.40001
1.40001
1.40001
1.40001
1.40001
1.40001
1.40001
1.40001
1.40001
1.40001
1.40001
1.40001
1.40001
1.40001
1.40001
1.40001
1.40001
1.40001
1.40001
1.40001
1.40001
1.40001
1.40001
1.40001
1.40001
1.40001
1.40001
1.40001
1.40001
1.40001
1.40001
1.40001
1.40001
1.40001
1.40001
1.40001
1.40001
1.40001
1.40001
1.40001
1.40001
1.40001
1.40001
1.40001
1.40001
1.40001
1.40001
1.40001
1.40001
1.40001
1.40001
1.40001
1.40001
1.40001
1.40001
1.40001
1.40001
1.40001
1.40001
1.40001
1.40001
1.40001
1.40001
1.40001
1.40001
1.40001
1.40001
1.40001
1.40001
1.40001
1.40001
1.40001
1.40001
1.40001
1.40001
1.40001
1.40001
1.40001
1.40001
1.40001
1.40001
1.40001
1.40001
1.40001
1.40001
1.40001
1.40001
1.40001
1.40001
1.40001
1.40001
1.40001
1.40001
1.40001
1.40001
1.40001
1.40001
1.40001
1.40001
1.40001
1.40001
1.40001
1.40001
1.40001
1.40001
1.40001
1.40001
1.40001
1.40001
1.40001
1.40001
1.40001
1.40001
1.40001
1.40001
1.40001
1.40001
1.40001
1.40001
1.40001
1.40001
1.40001
1.40001
1.40001
1.40001
1.40001
1.40001
1.40001
1.40001
1.40001
1.40001
1.40001
1.40001
1.40001
1.40001
1.40001
1.40001
1.40001
1.40001
1.40001
1.40001
1.40001
1.40001
1.40001
1.40001
1.40001
1.40001
1.40001
1.40001
1.40001
1.40001
1.40001
1.40001
1.40001
1.40001
1.40001
1.40001
1.40001
1.40001
1.40001
1.40001
1.40001
1.40001
1.40001
1.40001
1.40001
1.40001
1.40001
1.40001
1.40001
1.40001
1.40001
1.40001
1.40001
1.40001
1.40001
1.40001
1.40001
1.40001
1.40001
1.40001
1.40001
1.40001
1.40001
1.40001
1.40001
1.40001
1.40001
1.40001
1.40001
1.40001
1.40001
1.40001
1.40001
1.40001
1.40001
1.40001
1.40001
1.40001
1.40001
1.40001
1.40001
1.40001
1.40001
1.40001
1.40001
1.40001
1.40001
1.40001
1.40001
1.40001
1.40001
1.40001
1.40001
1.40001
1.40001
1.40001
1.40001
1.40001
1.40001
1.40001
1.40001
1.40001
1.40001
1.40001
1.40001
1.40001
1.40001
1.40001
1.40001
1.40001
1.40001
1.40001
1.40001
1.40001
1.40001
1.40001
1.40001
1.40001
1.40001
1.40001
1.40001
1.40001
1.40001
1.40001
1.40001
1.40001
1.40001
1.40001
1.40001
1.40001
1.40001
1.40001
1.40001
1.40001
1.40001
1.40001
1.40001
1.40001
1.40001
1.40001
1.40001
1.40001
1.40001
1.40001
1.40001
1.40001
1.40001
1.40001
1.40001
1.40001
1.40001
1.40001
1.40001
1.40001
1.40001
1.40001
1.40001
1.40001
1.40001
1.40001
1.40001
1.40001
1.40001
1.40001
1.40001
1.40001
1.40001
1.40001
1.58645
0.803536
0.461946
0.420974
0.473727
0.587844
0.709753
0.851151
0.963478
1.0435
1.0732
1.08826
1.1032
1.09978
1.33803
2.49658
2.83233
2.92245
2.98663
3.02764
3.06556
3.10474
3.14478
3.17784
2.27359
1.55853
1.20559
0.94804
0.901059
0.881462
0.834738
0.834676
0.871188
0.922431
0.967939
1.01283
1.05533
1.07076
1.28322
2.47311
2.86775
2.94207
2.99659
3.03044
3.06124
3.09515
3.12819
3.14355
2.8033
2.10015
1.6991
1.41309
1.21975
1.1037
0.991265
0.889404
0.891625
0.916906
0.959946
1.01291
1.06059
1.08544
1.16973
2.41519
2.95364
2.9912
3.02483
3.04318
3.05603
3.06508
3.06592
3.08029
3.09178
2.54359
2.11828
1.78364
1.54005
1.37421
1.24427
1.10937
1.06557
1.01545
0.97725
0.981811
1.00744
1.03703
1.06957
2.09584
2.98654
3.03128
3.0493
3.05203
3.04961
3.04638
3.0089
3.01301
3.30432
2.83658
2.44812
2.10609
1.8325
1.63849
1.45886
1.30155
1.21879
1.15075
1.05813
1.01348
1.01131
1.02369
1.02878
1.58959
2.91241
3.07515
3.07994
3.07648
3.04833
3.0069
2.83656
2.407
3.44829
3.0308
2.68445
2.36069
2.07172
1.87374
1.69169
1.51731
1.40286
1.32049
1.21334
1.14492
1.10874
1.07936
1.05253
1.14496
2.55316
3.06808
3.07552
3.06987
3.03093
2.95056
2.75849
2.35859
3.56318
3.18572
2.87108
2.5708
2.29434
2.0888
1.90071
1.70495
1.58387
1.48819
1.38159
1.28511
1.22039
1.15515
1.08311
1.08417
1.9201
3.0106
3.07613
3.06304
3.01613
2.9071
2.72454
2.34039
3.70265
3.34118
3.04076
2.77277
2.48989
2.27216
2.10424
1.89966
1.74426
1.65004
1.53267
1.43235
1.35435
1.28371
1.20509
1.14066
1.33762
2.79767
3.09044
3.05803
3.00387
2.87773
2.69267
2.36125
3.82858
3.49265
3.19557
2.93761
2.67224
2.448
2.2746
2.08408
1.90415
1.80441
1.68785
1.56906
1.48552
1.404
1.33023
1.23603
1.24122
2.18077
3.0617
3.053
2.99223
2.86786
2.68163
2.41214
3.98548
3.66259
3.36212
3.10362
2.84713
2.61726
2.44355
2.25938
2.06864
1.94575
1.83961
1.71468
1.61757
1.53479
1.45692
1.37696
1.29194
1.54765
2.85154
3.11523
3.03524
2.90504
2.71381
2.48045
4.0331
3.82835
3.52451
3.26113
3.00075
2.76847
2.59909
2.4204
2.22817
2.08734
1.98337
1.85599
1.74652
1.65111
1.58175
1.51161
1.39006
1.40057
2.21635
3.13261
3.08244
2.93571
2.75054
2.53664
3.74615
3.92874
3.7083
3.43086
3.16429
2.93469
2.75738
2.5814
2.37977
2.24192
2.13148
1.99827
1.87505
1.77758
1.70612
1.63022
1.52892
1.44257
1.64422
2.79886
3.13746
3.01041
2.84269
2.64263
2.66694
3.7656
3.83356
3.63094
3.34927
3.09948
2.91419
2.7414
2.54299
2.39276
2.27326
2.14376
2.00516
1.90018
1.82714
1.7499
1.66006
1.53597
1.54659
2.12426
3.05596
3.10438
2.95859
2.76955
1.64052
2.90411
3.75203
3.75067
3.55581
3.28743
3.07819
2.89528
2.70012
2.54705
2.42192
2.29057
2.13534
2.03107
1.95438
1.86925
1.78006
1.67135
1.60315
1.69495
2.59495
3.16116
3.07207
2.88474
1.41018
1.77115
3.04412
3.70251
3.69343
3.50317
3.25822
3.0502
2.85471
2.69875
2.57704
2.44231
2.26971
2.15632
2.08209
2.00276
1.89445
1.79667
1.71076
1.69592
1.9997
2.90821
3.14939
3.02252
1.4001
1.42234
1.87585
3.09952
3.65606
3.64383
3.4674
3.23925
3.01682
2.84131
2.71965
2.58668
2.43235
2.29706
2.2104
2.12318
2.0099
1.91339
1.84911
1.75518
1.77762
2.32996
3.02763
3.12469
1.40001
1.4003
1.43591
1.93974
3.10614
3.60774
3.59648
3.44655
3.21754
3.00528
2.86537
2.72932
2.56458
2.43917
2.3538
2.26522
2.13194
2.02195
1.97334
1.88721
1.80092
1.89604
2.59665
3.1118
1.40001
1.40001
1.40059
1.4462
1.96596
3.07655
3.56552
3.55886
3.43061
3.19995
3.01684
2.87477
2.7216
2.58011
2.47967
2.38749
2.26758
2.15767
2.09908
2.02092
1.87611
1.88345
2.10992
2.82237
1.40001
1.40001
1.40001
1.40085
1.45209
1.96031
3.03013
3.51811
3.51489
3.40634
3.21489
3.03966
2.85157
2.721
2.62807
2.52372
2.3871
2.27252
2.2187
2.15117
2.01873
1.92201
1.94793
2.30053
1.40001
1.40001
1.40001
1.40001
1.40105
1.45164
1.9372
2.93914
3.47136
3.47863
3.39387
3.23553
3.02992
2.86501
2.75269
2.6441
2.51789
2.40852
2.33914
2.26495
2.15187
2.03773
1.9936
2.04056
1.40001
1.40001
1.40001
1.40001
1.40001
1.40105
1.4482
1.88119
2.83218
3.41798
3.44093
3.38419
3.22089
3.02997
2.90356
2.78137
2.6308
2.53809
2.46445
2.37776
2.27845
2.1686
2.08985
2.05533
1.40001
1.40001
1.40001
1.40001
1.40001
1.40001
1.40097
1.4398
1.80705
2.74106
3.33747
3.39211
3.36439
3.22194
3.07241
2.92838
2.76147
2.67124
2.58355
2.49196
2.37736
2.29248
2.22614
2.12324
1.40001
1.40001
1.40001
1.40001
1.40001
1.40001
1.40001
1.40073
1.43092
1.7426
2.60985
3.21933
3.36947
3.35085
3.24863
3.09597
2.90569
2.79389
2.70378
2.61501
2.48776
2.41449
2.36093
2.25243
1.40001
1.40001
1.40001
1.40001
1.40001
1.40001
1.40001
1.40001
1.40055
1.42211
1.68486
2.42776
3.14971
3.34335
3.32928
3.25042
3.08046
2.93144
2.83768
2.72365
2.59509
2.54303
2.47827
2.38548
1.40001
1.40001
1.40001
1.40001
1.40001
1.40001
1.40001
1.40001
1.40001
1.40034
1.41665
1.60885
2.26916
3.01297
3.28458
3.29751
3.2382
3.09563
2.98117
2.83672
2.71145
2.65312
2.57763
2.49656
1.40001
1.40001
1.40001
1.40001
1.40001
1.40001
1.40001
1.40001
1.40001
1.40001
1.40024
1.41004
1.53716
2.1065
2.8283
3.25284
3.27527
3.23517
3.13217
2.97819
2.834
2.75917
2.68192
2.59816
1.40001
1.40001
1.40001
1.40001
1.40001
1.40001
1.40001
1.40001
1.40001
1.40001
1.40001
1.40011
1.40492
1.4935
1.93454
2.6595
3.21073
3.25096
3.21637
3.12705
2.99179
2.87589
2.78896
2.68291
1.40001
1.40001
1.40001
1.40001
1.40001
1.40001
1.40001
1.40001
1.40001
1.40001
1.40001
1.40001
1.40005
1.40271
1.46002
1.77276
2.55764
3.07773
3.17529
3.18536
3.12966
3.00586
2.90456
2.7789
1.40001
1.40001
1.40001
1.40001
1.40001
1.40001
1.40001
1.40001
1.40001
1.40001
1.40001
1.40001
1.40001
1.40002
1.40149
1.4318
1.67983
2.36012
2.90788
3.16168
3.17434
3.13531
3.05168
2.90872
1.40001
1.40001
1.40001
1.40001
1.40001
1.40001
1.40001
1.40001
1.40001
1.40001
1.40001
1.40001
1.40001
1.40001
1.40001
1.40063
1.41782
1.60009
2.13301
2.71285
3.09355
3.15683
3.14256
3.05491
1.40001
1.40001
1.40001
1.40001
1.40001
1.40001
1.40001
1.40001
1.40001
1.40001
1.40001
1.40001
1.40001
1.40001
1.40001
1.40001
1.40028
1.41053
1.50463
1.885
2.50059
3.0361
3.1274
3.10064
1.40001
1.40001
1.40001
1.40001
1.40001
1.40001
1.40001
1.40001
1.40001
1.40001
1.40001
1.40001
1.40001
1.40001
1.40001
1.40001
1.40001
1.40012
1.40317
1.44886
1.71124
2.33869
2.88901
3.05323
1.40001
1.40001
1.40001
1.40001
1.40001
1.40001
1.40001
1.40001
1.40001
1.40001
1.40001
1.40001
1.40001
1.40001
1.40001
1.40001
1.40001
1.40001
1.40003
1.40116
1.42433
1.6055
2.13716
2.78334
1.40001
1.40001
1.40001
1.40001
1.40001
1.40001
1.40001
1.40001
1.40001
1.40001
1.40001
1.40001
1.40001
1.40001
1.40001
1.40001
1.40001
1.40001
1.40001
1.40001
1.40044
1.41338
1.52478
1.97958
1.40001
1.40001
1.40001
1.40001
1.40001
1.40001
1.40001
1.40001
1.40001
1.40001
1.40001
1.40001
1.40001
1.40001
1.40001
1.40001
1.40001
1.40001
1.40001
1.40001
1.40001
1.40021
1.40546
1.47161
1.40001
1.40001
1.40001
1.40001
1.40001
1.40001
1.40001
1.40001
1.40001
1.40001
1.40001
1.40001
1.40001
1.40001
1.40001
1.40001
1.40001
1.40001
1.40001
1.40001
1.40001
1.40001
1.40006
1.40209
0.986868
0.520544
0.442897
0.466103
0.510515
0.615647
0.741048
0.815669
0.842528
0.863695
0.89089
0.922822
0.945091
0.95369
0.952985
0.944362
0.928352
0.917012
0.914007
0.913159
0.920499
0.93135
0.935137
0.934705
0.928401
0.915387
0.907423
0.904615
0.902836
0.905654
0.908698
0.906567
0.903126
0.896208
0.888525
0.884671
0.88175
0.879805
0.878686
0.87611
0.873062
0.868166
0.85852
0.851734
0.855553
0.913077
1.20061
1.97148
2.3701
2.42061
2.43882
2.43313
2.40161
2.36019
2.34816
2.33034
2.30403
2.27609
2.24421
2.20825
2.17945
2.16396
2.16889
2.165
2.13948
2.1086
2.07636
2.0513
2.03102
2.01956
2.00253
1.95729
1.44871
1.00247
0.846081
0.763527
0.707375
0.706361
0.720482
0.751114
0.793555
0.839101
0.877668
0.919896
0.946031
0.955582
0.957771
0.951403
0.941624
0.935401
0.933739
0.934568
0.941634
0.945368
0.94521
0.943495
0.937113
0.928331
0.922936
0.920469
0.91957
0.92052
0.918514
0.91534
0.910396
0.902465
0.89671
0.893846
0.891431
0.889801
0.887386
0.884581
0.880826
0.874085
0.863902
0.866474
0.910569
1.10109
1.36739
1.73028
2.1758
2.34574
2.39822
2.43231
2.40698
2.37236
2.35132
2.34278
2.34547
2.33341
2.30184
2.25734
2.21629
2.18948
2.17504
2.16217
2.14511
2.12288
2.09761
2.07128
2.04696
2.02875
2.01489
1.97698
1.77838
1.38722
1.1406
0.997661
0.867243
0.80217
0.770825
0.775699
0.810578
0.863716
0.904319
0.946836
0.974203
0.993161
1.00778
1.00786
0.999968
0.987865
0.98419
0.984177
0.986604
0.983283
0.979026
0.972425
0.961173
0.954371
0.952593
0.952373
0.956059
0.958339
0.954825
0.948791
0.937205
0.922563
0.917014
0.91477
0.914175
0.915582
0.913397
0.909527
0.903262
0.892011
0.895242
0.943626
1.11652
1.40486
1.53237
1.60391
1.90379
2.27252
2.47926
2.53722
2.55004
2.53191
2.47287
2.42455
2.40465
2.39376
2.37475
2.35649
2.33566
2.30781
2.27101
2.23358
2.2007
2.17461
2.15322
2.13062
2.10657
2.08229
2.05951
2.02261
1.97975
1.66482
1.40979
1.23875
1.08553
0.982797
0.925801
0.873847
0.842752
0.853405
0.871991
0.906195
0.943584
0.973729
1.0041
1.02892
1.03393
1.03615
1.04018
1.04145
1.03673
1.02684
1.01768
1.00835
0.99803
0.993898
0.991882
0.991941
0.995105
0.996963
0.99453
0.989174
0.97807
0.963318
0.956212
0.953108
0.951135
0.949685
0.946811
0.94191
0.934949
0.938404
0.991948
1.17654
1.45573
1.59312
1.64493
1.65929
1.7232
1.9479
2.26176
2.4585
2.59538
2.66222
2.62581
2.5674
2.50612
2.46568
2.44603
2.44737
2.44482
2.42767
2.39743
2.35473
2.30343
2.26332
2.23605
2.21417
2.19802
2.18002
2.16001
2.12012
2.12827
1.86128
1.62856
1.44186
1.27996
1.15504
1.07043
0.995114
0.912629
0.884854
0.874055
0.875388
0.892875
0.925099
0.964594
1.00021
1.02051
1.04062
1.05857
1.07464
1.07598
1.06958
1.05465
1.04067
1.0317
1.02769
1.02624
1.02673
1.02995
1.03078
1.02837
1.02168
1.01103
1.00047
0.99419
0.99007
0.98612
0.981936
0.978356
0.973811
0.979071
1.02989
1.23777
1.48218
1.65236
1.73169
1.76498
1.76335
1.75775
1.77812
1.8916
2.11767
2.38753
2.59666
2.70788
2.7129
2.65958
2.61441
2.56674
2.54369
2.53129
2.51637
2.49455
2.46539
2.42446
2.38136
2.34339
2.31172
2.28845
2.26833
2.25624
2.22372
2.24312
2.00556
1.79448
1.62029
1.45363
1.31544
1.21719
1.13324
1.04006
0.978834
0.940142
0.907047
0.899561
0.901917
0.916071
0.943352
0.978352
1.01715
1.04417
1.06304
1.07583
1.07619
1.07352
1.07136
1.06832
1.06285
1.05811
1.05323
1.05009
1.04711
1.04208
1.03544
1.02998
1.02733
1.02485
1.0214
1.0156
1.01006
1.00504
1.01292
1.06913
1.27478
1.54984
1.68448
1.76905
1.8092
1.82632
1.82563
1.81132
1.80313
1.82302
1.85909
1.99685
2.25218
2.49767
2.64899
2.70005
2.71886
2.69049
2.6589
2.6321
2.59953
2.56389
2.53827
2.51484
2.48485
2.44956
2.41132
2.37987
2.35706
2.34146
2.30949
2.32906
2.12692
1.93199
1.76667
1.61016
1.46493
1.35362
1.25677
1.15663
1.0775
1.02305
0.971685
0.921148
0.908724
0.915705
0.924111
0.935027
0.96376
0.999648
1.02627
1.05229
1.06446
1.07042
1.08065
1.09135
1.09219
1.08784
1.08
1.06848
1.05505
1.04642
1.04399
1.0432
1.04417
1.04638
1.04406
1.03966
1.03241
1.0379
1.11149
1.3149
1.60842
1.74854
1.77757
1.81223
1.84445
1.87952
1.88433
1.86607
1.84918
1.84191
1.8517
1.85775
1.90207
2.05854
2.29492
2.50793
2.63605
2.69751
2.72417
2.74794
2.71016
2.67656
2.63547
2.59701
2.56177
2.53462
2.49794
2.45718
2.42933
2.41292
2.3829
2.44367
2.25341
2.06705
1.90117
1.75175
1.60318
1.48145
1.38159
1.27772
1.18932
1.12941
1.07516
1.00525
0.97114
0.963316
0.946064
0.941941
0.942389
0.949036
0.963084
0.989975
1.02633
1.05354
1.07105
1.0894
1.10237
1.10256
1.0972
1.0857
1.06874
1.05909
1.05704
1.05654
1.05807
1.05944
1.05821
1.05591
1.06495
1.14302
1.40384
1.62772
1.7768
1.85149
1.86699
1.89011
1.91343
1.91949
1.91935
1.91589
1.89653
1.88279
1.8742
1.86243
1.87055
1.87389
1.92213
2.06787
2.27189
2.49034
2.61648
2.71494
2.73778
2.76368
2.74955
2.71446
2.66725
2.63026
2.58424
2.53513
2.48674
2.46309
2.43424
2.57257
2.38101
2.1914
2.01844
1.87695
1.73503
1.60026
1.49717
1.39962
1.30698
1.23979
1.18211
1.10917
1.04841
1.01989
0.98845
0.958545
0.942376
0.944903
0.953768
0.960299
0.979504
1.0132
1.04419
1.07134
1.09289
1.1004
1.09975
1.09729
1.09042
1.0826
1.07901
1.07637
1.07233
1.07024
1.07136
1.09191
1.18705
1.44996
1.72393
1.83099
1.89813
1.94211
1.97088
1.97308
1.9701
1.95981
1.94786
1.95568
1.95526
1.93925
1.92044
1.89809
1.88271
1.87263
1.88552
1.87915
1.91004
2.03232
2.22546
2.4456
2.61878
2.69355
2.72483
2.75611
2.76903
2.74556
2.70645
2.65381
2.59485
2.53683
2.47951
2.69419
2.50935
2.326
2.14641
1.99713
1.86197
1.72487
1.61675
1.52758
1.42982
1.35138
1.2943
1.22588
1.14896
1.10137
1.06484
1.02036
0.975836
0.972226
0.971088
0.967991
0.968625
0.977707
1.00075
1.03195
1.06175
1.08208
1.09207
1.09942
1.10459
1.10761
1.10641
1.10145
1.09285
1.08922
1.11127
1.2585
1.4947
1.77707
1.89337
1.94067
1.98686
2.02324
2.06177
2.06639
2.04821
2.02285
2.00059
1.99806
2.01207
1.9922
1.9608
1.9328
1.91304
1.89902
1.89359
1.88736
1.89
1.87323
1.89101
1.97658
2.16015
2.36102
2.53146
2.65953
2.7142
2.74928
2.7767
2.76545
2.72211
2.66586
2.57541
2.83053
2.64532
2.468
2.29301
2.13673
2.0038
1.86101
1.73516
1.6495
1.56285
1.47039
1.40249
1.33532
1.25681
1.19775
1.1548
1.1032
1.03657
1.01349
1.0057
0.988971
0.975315
0.980509
0.991321
0.997685
1.01188
1.03499
1.06174
1.08279
1.09753
1.11606
1.12554
1.12446
1.12381
1.14725
1.3021
1.62772
1.80635
1.91132
1.97821
2.02452
2.07825
2.11801
2.1304
2.13269
2.11807
2.09437
2.07915
2.07347
2.05857
2.02402
1.98791
1.96139
1.94433
1.93544
1.93346
1.92048
1.9041
1.88853
1.87246
1.84346
1.85337
1.91202
2.04425
2.23818
2.43215
2.60526
2.70918
2.72847
2.74527
2.74801
2.68656
2.98408
2.7917
2.61295
2.43804
2.27995
2.15069
2.01432
1.87209
1.76797
1.68501
1.58619
1.50747
1.44519
1.3657
1.29696
1.24859
1.19822
1.13138
1.08667
1.07338
1.05035
1.01873
0.99918
1.00359
1.00556
1.00278
1.00152
1.01361
1.04176
1.07517
1.10184
1.11767
1.13836
1.19793
1.3632
1.70796
1.91404
1.98286
2.01286
2.05928
2.11751
2.15402
2.1775
2.17932
2.17366
2.17263
2.16255
2.15405
2.13754
2.10354
2.05352
2.01319
1.99279
1.98162
1.98226
1.9747
1.95668
1.9362
1.91034
1.87406
1.8436
1.83465
1.828
1.83051
1.85908
1.95712
2.12608
2.33176
2.49477
2.63314
2.69842
2.67528
3.09376
2.94595
2.7608
2.5821
2.42697
2.28938
2.15588
2.01611
1.90773
1.816
1.70959
1.6093
1.55008
1.47861
1.40064
1.34934
1.30344
1.23529
1.17544
1.15118
1.12595
1.08775
1.03733
1.0248
1.02054
1.00547
1.00058
1.00918
1.02714
1.04952
1.07634
1.10968
1.20077
1.44536
1.73852
1.99332
2.04357
2.08627
2.12355
2.16147
2.20863
2.21973
2.22763
2.22322
2.21083
2.20732
2.20566
2.19829
2.17579
2.13957
2.08222
2.04033
2.02486
2.01968
2.02129
2.00578
1.98546
1.9624
1.93097
1.89305
1.87018
1.85391
1.83911
1.82775
1.81108
1.79496
1.80665
1.86836
1.98856
2.15943
2.34829
2.53131
3.13059
3.07401
2.91984
2.73013
2.56266
2.42392
2.29634
2.15868
2.03682
1.94298
1.84595
1.73802
1.65844
1.58457
1.49799
1.44526
1.40225
1.34433
1.27627
1.24042
1.21074
1.16698
1.10838
1.07619
1.0648
1.04119
1.02293
1.02318
1.03178
1.04665
1.08083
1.17103
1.45977
1.77214
1.96911
2.06418
2.09535
2.15546
2.22901
2.28759
2.31208
2.29165
2.27482
2.26586
2.25661
2.25395
2.23971
2.21588
2.19058
2.15593
2.10629
2.07137
2.05825
2.05329
2.03908
2.01972
1.99683
1.97199
1.94845
1.92731
1.90957
1.89103
1.86958
1.84421
1.81226
1.78193
1.76181
1.75272
1.75507
1.78394
1.85619
2.08193
2.94011
3.14103
3.07265
2.90622
2.72641
2.57282
2.42353
2.28803
2.17771
2.08091
1.97225
1.85923
1.77883
1.70859
1.61373
1.53972
1.49658
1.44355
1.37355
1.3357
1.30368
1.26012
1.19052
1.14586
1.12849
1.10247
1.07341
1.05172
1.05322
1.0742
1.1748
1.42888
1.79504
1.94805
2.00115
2.03497
2.10919
2.21621
2.31186
2.36381
2.36407
2.3446
2.32651
2.32226
2.32141
2.30448
2.27098
2.23584
2.20338
2.16993
2.14446
2.12434
2.10047
2.07243
2.04176
2.01206
1.98673
1.97178
1.96375
1.95237
1.93833
1.92144
1.89877
1.86635
1.81618
1.77402
1.75338
1.73815
1.73305
1.73183
1.73041
1.75782
2.46045
2.99468
3.15847
3.07748
2.90613
2.74087
2.57984
2.41742
2.30489
2.21118
2.104
1.98926
1.90246
1.82641
1.73223
1.6426
1.59808
1.54637
1.47124
1.41873
1.39115
1.35003
1.28734
1.23304
1.2075
1.17639
1.1409
1.11986
1.14071
1.26213
1.53094
1.844
1.92287
1.96367
2.01206
2.08247
2.17163
2.26797
2.3349
2.35435
2.341
2.32217
2.32354
2.34273
2.33317
2.31119
2.27686
2.23908
2.21668
2.21077
2.20155
2.17449
2.14002
2.10021
2.04943
2.00287
1.9822
1.9743
1.97192
1.9642
1.95159
1.9373
1.91793
1.88197
1.82341
1.78617
1.763
1.74252
1.73326
1.72682
1.71755
1.70167
2.12754
2.57753
3.04975
3.16197
3.07326
2.90766
2.7416
2.56875
2.4464
2.34321
2.22895
2.11064
2.02907
1.95031
1.85476
1.75643
1.7022
1.64703
1.56656
1.51319
1.48308
1.4412
1.37477
1.31934
1.28695
1.25948
1.2328
1.26477
1.41708
1.71563
1.94608
2.06149
2.04646
2.04941
2.09199
2.15905
2.2352
2.27806
2.30251
2.3065
2.29504
2.28432
2.28952
2.29923
2.28158
2.2617
2.24258
2.22491
2.21875
2.22416
2.21605
2.18417
2.14997
2.11517
2.07117
2.03087
1.99995
1.98524
1.98135
1.97484
1.95799
1.93733
1.91581
1.88765
1.84845
1.8052
1.77168
1.75506
1.7421
1.73082
1.71994
1.69207
2.11853
2.23843
2.70216
3.08377
3.15575
3.0707
2.91799
2.73289
2.58835
2.48402
2.36658
2.2341
2.14269
2.0754
1.98361
1.87337
1.80974
1.76002
1.67967
1.60364
1.57064
1.53065
1.4681
1.4121
1.36946
1.36933
1.42067
1.64338
1.94882
2.17861
2.21575
2.18432
2.1629
2.17195
2.21746
2.29122
2.34224
2.3452
2.331
2.3074
2.27546
2.26321
2.26096
2.23489
2.1928
2.17491
2.17101
2.16627
2.16489
2.1805
2.1743
2.15445
2.13678
2.1139
2.08509
2.06266
2.03151
1.99221
1.96303
1.9449
1.92856
1.91131
1.89758
1.88498
1.86551
1.8339
1.79332
1.76183
1.74183
1.72649
1.71445
1.68526
2.15041
2.16016
2.33424
2.79121
3.0928
3.16014
3.08253
2.91551
2.74997
2.62567
2.5004
2.36828
2.27717
2.19478
2.10089
1.99791
1.92825
1.87075
1.78985
1.70918
1.66809
1.62144
1.55756
1.49874
1.51289
1.64818
1.89221
2.23629
2.41377
2.38732
2.34661
2.30206
2.30749
2.34717
2.4253
2.48819
2.47433
2.43937
2.39645
2.3454
2.29297
2.26411
2.24116
2.21398
2.18136
2.14134
2.12047
2.11006
2.09862
2.09603
2.08268
2.07114
2.07257
2.06767
2.05537
2.04375
2.02044
1.98608
1.95429
1.93182
1.91216
1.89922
1.89297
1.88476
1.87068
1.84489
1.80594
1.76622
1.74087
1.72296
1.70903
1.681
2.24429
2.18713
2.21141
2.41015
2.84079
3.10524
3.1674
3.08547
2.92431
2.78372
2.64232
2.49808
2.4074
2.33274
2.22995
2.11687
2.04416
1.98641
1.90412
1.81636
1.75994
1.71919
1.67599
1.70602
1.90792
2.26224
2.50815
2.65559
2.63412
2.55881
2.4943
2.5022
2.53352
2.5954
2.6628
2.65116
2.60446
2.53994
2.47783
2.41965
2.36902
2.32626
2.28211
2.23606
2.18648
2.13496
2.10213
2.08654
2.06598
2.04154
2.02332
2.01132
1.99873
1.98251
1.978
1.98127
1.97858
1.95665
1.91693
1.88933
1.8738
1.87032
1.86418
1.85438
1.84835
1.84108
1.81727
1.77846
1.74324
1.71481
1.7025
1.67893
2.37397
2.28365
2.24957
2.26673
2.46487
2.88684
3.1223
3.17416
3.09169
2.95165
2.80426
2.65024
2.53183
2.45061
2.36048
2.2521
2.16461
2.09736
2.0083
1.929
1.85682
1.87081
1.99301
2.25331
2.64668
2.86603
2.86232
2.81935
2.74365
2.70188
2.7054
2.73683
2.78732
2.84381
2.83349
2.78388
2.71695
2.64697
2.57663
2.51127
2.45652
2.40565
2.34991
2.2879
2.22439
2.16877
2.12629
2.08978
2.05472
2.02436
2.00715
1.99206
1.96276
1.92993
1.91891
1.91455
1.90425
1.88108
1.8447
1.82782
1.82162
1.8213
1.81634
1.80792
1.804
1.79211
1.76042
1.72205
1.71502
1.71523
1.71124
1.68947
2.48291
2.40963
2.34547
2.28752
2.3095
2.53009
2.93227
3.13655
3.17192
3.10439
2.96961
2.80505
2.684
2.58048
2.48478
2.36137
2.28151
2.20782
2.12873
2.05466
2.09476
2.3532
2.73037
3.02867
3.18979
3.16069
3.06376
2.965
2.91129
2.93563
2.99112
3.00977
3.04517
3.02848
2.97214
2.89493
2.81466
2.74211
2.67458
2.61133
2.55407
2.49744
2.43567
2.36793
2.2978
2.23248
2.17711
2.12796
2.08382
2.05125
2.02567
1.99342
1.95232
1.91573
1.89332
1.87427
1.85754
1.84158
1.81299
1.78441
1.7654
1.75619
1.74845
1.74231
1.74385
1.73754
1.70243
1.67219
1.66761
1.6633
1.66129
1.65811
2.57877
2.53151
2.46191
2.35826
2.32139
2.35411
2.58123
2.95851
3.12819
3.17614
3.12028
2.98257
2.83515
2.70028
2.60954
2.49893
2.40326
2.3109
2.32996
2.47488
2.79681
3.22846
3.45094
3.41791
3.34136
3.23777
3.16133
3.14168
3.16076
3.25544
3.3157
3.28749
3.24134
3.17306
3.08716
2.99139
2.90081
2.82322
2.75504
2.69332
2.63522
2.57485
2.50805
2.43673
2.36609
2.3001
2.2402
2.186
2.13803
2.09598
2.05431
2.00846
1.96296
1.92606
1.89641
1.86907
1.84076
1.80636
1.77766
1.76198
1.74451
1.72362
1.70422
1.69246
1.68722
1.67966
1.64889
1.60075
1.59217
1.59059
1.59337
1.60779
2.67624
2.63047
2.56945
2.47279
2.38194
2.36453
2.39348
2.61819
2.94747
3.14284
3.1814
3.11911
2.99631
2.85892
2.71106
2.62186
2.58024
2.68177
3.02772
3.42719
3.74898
3.85589
3.79063
3.63894
3.47044
3.33835
3.33135
3.37545
3.45249
3.56682
3.56337
3.49937
3.39718
3.2929
3.19076
3.08848
2.99095
2.9026
2.82606
2.76179
2.70437
2.64445
2.57671
2.5023
2.42404
2.35154
2.29405
2.24603
2.20138
2.15901
2.11497
2.06515
2.0117
1.95963
1.91362
1.87549
1.83895
1.79808
1.76242
1.74025
1.72575
1.70738
1.68698
1.6753
1.66596
1.65063
1.61853
1.5544
1.52461
1.5218
1.52095
1.53362
2.78049
2.71926
2.6636
2.57969
2.49173
2.41464
2.39726
2.43106
2.64599
2.9529
3.16618
3.17076
3.11802
3.02025
2.88016
2.93562
3.19522
3.69244
4.0844
4.15702
4.12466
4.02562
3.89194
3.78827
3.67469
3.60147
3.64844
3.73273
3.80493
3.79764
3.73166
3.61938
3.49976
3.38522
3.27698
3.17539
3.0775
2.98281
2.89606
2.82071
2.75707
2.69672
2.63332
2.5672
2.49411
2.41193
2.33699
2.28203
2.23709
2.19496
2.15296
2.10959
2.06524
2.01978
1.97243
1.92197
1.86374
1.8041
1.76261
1.72812
1.7074
1.6968
1.68355
1.66694
1.65265
1.63625
1.6042
1.54415
1.48733
1.47601
1.47356
1.47792
2.91438
2.82816
2.75543
2.66858
2.59137
2.50547
2.42678
2.42675
2.46831
2.65563
2.98824
3.14152
3.16198
3.24783
3.52793
4.0167
4.40943
4.71425
4.70009
4.53092
4.31215
4.10674
3.97199
3.91502
3.90631
3.92393
4.01158
4.08063
4.05712
3.97043
3.8466
3.7093
3.58352
3.47049
3.36489
3.26378
3.16214
3.0606
2.96634
2.8826
2.81243
2.74868
2.68357
2.61904
2.55121
2.47245
2.38941
2.32124
2.26702
2.21859