/*--------------------------------*- C++ -*----------------------------------*\
  =========                 |
  \\      /  F ield         | OpenFOAM: The Open Source CFD Toolbox
   \\    /   O peration     | Website:  https://openfoam.org
    \\  /    A nd           | Version:  7
     \\/     M anipulation  |
\*---------------------------------------------------------------------------*/
FoamFile
{
    version     2.0;
    format      ascii;
    class       volVectorField;
    location    "1.1";
    object      U;
}
// * * * * * * * * * * * * * * * * * * * * * * * * * * * * * * * * * * * * * //

dimensions      [0 1 -1 0 0 0 0];

internalField   nonuniform List<vector> 
66048
(
(3 8.86876e-17 0)
(3 2.72493e-16 0)
(3 4.66078e-16 0)
(3 9.75633e-16 0)
(3 4.38215e-16 0)
(3 -1.28803e-16 0)
(3 -4.73265e-16 0)
(3 -2.25872e-16 0)
(3 6.43226e-17 0)
(3 1.49589e-16 0)
(3 3.79672e-16 0)
(3 4.07882e-16 0)
(3 4.15484e-16 0)
(3 7.47788e-16 0)
(3 6.44529e-16 0)
(3 1.78375e-16 0)
(3 9.94338e-17 0)
(3 6.72289e-17 0)
(3 7.66649e-17 0)
(3 -1.60487e-17 0)
(3 1.26662e-16 0)
(3 1.22808e-16 0)
(3 -1.14115e-16 0)
(3 -1.84015e-16 0)
(3 -2.18934e-16 0)
(3 -1.31753e-16 0)
(3 -1.63283e-16 0)
(3 -5.53348e-16 0)
(3 -9.15311e-16 0)
(3 -9.75636e-16 0)
(3 -5.03904e-16 0)
(3 2.12946e-16 0)
(3 6.05938e-16 0)
(3 5.94278e-16 0)
(3 9.17573e-16 0)
(3 -1.98065e-16 0)
(3 -6.37749e-16 0)
(3 -7.4278e-16 0)
(3 -1.11451e-15 0)
(3 -1.60673e-15 0)
(3 -1.43668e-15 0)
(3 -1.04289e-15 0)
(3 -1.05669e-15 0)
(3 -4.53307e-16 0)
(3 7.31474e-17 0)
(3 1.87201e-16 0)
(3 5.69423e-16 0)
(3 8.42315e-17 0)
(3 -7.32712e-17 0)
(3 -1.91685e-16 0)
(3 -2.02337e-16 0)
(3 1.90675e-16 0)
(3 8.34834e-16 0)
(3 9.73979e-16 0)
(3 5.39409e-16 0)
(3 4.87279e-16 0)
(3 3.50383e-16 0)
(3 4.8973e-16 0)
(3 5.05011e-16 0)
(3 -1.15797e-16 0)
(3 -3.87401e-16 0)
(3 -1.41943e-16 0)
(3 8.03188e-17 0)
(3 1.83617e-16 0)
(3 3.15004e-17 0)
(3 -3.77457e-17 0)
(3 1.36569e-16 0)
(3 -4.88583e-16 0)
(3 -6.58628e-16 0)
(3 -7.20459e-17 0)
(3 -4.64499e-16 0)
(3 5.20816e-16 0)
(2.47901 0.00522388 0)
(0.880884 0.00797437 0)
(0.729578 0.0131943 0)
(0.699288 0.0133209 0)
(0.666385 0.0132626 0)
(0.635278 0.0133606 0)
(0.604059 0.0136862 0)
(0.572978 0.0138945 0)
(0.542439 0.013784 0)
(0.512801 0.0135628 0)
(0.483561 0.0138273 0)
(0.453182 0.0148191 0)
(0.420572 0.0158957 0)
(0.386499 0.01627 0)
(0.352619 0.0158978 0)
(0.319724 0.0154201 0)
(0.287543 0.0152827 0)
(0.255382 0.0156286 0)
(0.22239 0.0164193 0)
(0.187666 0.0176788 0)
(0.150248 0.0191537 0)
(0.109845 0.020695 0)
(0.0669736 0.0214643 0)
(0.0233186 0.0222642 0)
(3 3.14445e-17 0)
(3 7.14162e-17 0)
(3 2.01427e-16 0)
(3 2.77698e-16 0)
(3 7.34472e-17 0)
(3 -8.89848e-17 0)
(3 -5.43018e-16 0)
(3 -4.32083e-16 0)
(3 -2.67942e-16 0)
(3 9.62784e-17 0)
(3 9.36056e-16 0)
(3 1.43872e-15 0)
(3 1.55446e-15 0)
(3 1.57924e-15 0)
(3 1.04143e-15 0)
(3 9.55277e-16 0)
(3 3.87728e-16 0)
(3 2.33048e-16 0)
(3 3.52571e-16 0)
(3 -9.30265e-17 0)
(3 3.27087e-16 0)
(3 6.96578e-16 0)
(3 1.14685e-15 0)
(3 1.04058e-15 0)
(3 6.57914e-16 0)
(3 7.48505e-16 0)
(3 5.97052e-16 0)
(3 -5.83379e-16 0)
(3 -1.66991e-15 0)
(3 -1.42942e-15 0)
(3 -6.57938e-16 0)
(3 6.16716e-16 0)
(3 7.45463e-16 0)
(3 6.44655e-16 0)
(3 4.13825e-16 0)
(3 -4.38404e-16 0)
(3 -1.1888e-15 0)
(3 -1.99595e-15 0)
(3 -2.89649e-15 0)
(3 -3.11628e-15 0)
(3 -2.79575e-15 0)
(3 -2.02935e-15 0)
(3 -2.19294e-15 0)
(3 -1.61427e-15 0)
(3 -7.2612e-16 0)
(3 1.41705e-16 0)
(3 7.04218e-16 0)
(3 5.56767e-16 0)
(3 3.29548e-16 0)
(3 3.98271e-16 0)
(3 1.05469e-15 0)
(3 1.82926e-15 0)
(3 1.80217e-15 0)
(3 1.8471e-15 0)
(3 1.12089e-15 0)
(3 3.00369e-16 0)
(3 -1.64863e-16 0)
(3 -3.67464e-16 0)
(3 -3.43224e-16 0)
(3 -4.43387e-16 0)
(3 -5.52398e-16 0)
(3 -3.8574e-16 0)
(3 3.15729e-16 0)
(3 4.67647e-16 0)
(3 -1.89357e-16 0)
(3 -1.46257e-16 0)
(3 1.16382e-16 0)
(3 -9.81748e-16 0)
(3 -1.22539e-15 0)
(3 -4.96762e-16 0)
(3 -9.19966e-16 0)
(3 -2.16368e-15 0)
(2.49574 0.026208 0)
(0.878199 0.0373277 0)
(0.720128 0.0396057 0)
(0.69018 0.0372363 0)
(0.657914 0.0372901 0)
(0.626999 0.0380266 0)
(0.595885 0.0391994 0)
(0.565123 0.0399236 0)
(0.535028 0.0400058 0)
(0.50552 0.0399368 0)
(0.475924 0.0410206 0)
(0.445109 0.0438737 0)
(0.412397 0.0468042 0)
(0.378724 0.0477762 0)
(0.345577 0.0469087 0)
(0.313316 0.0459202 0)
(0.281508 0.0458303 0)
(0.249603 0.0469753 0)
(0.217033 0.0492967 0)
(0.183129 0.0530665 0)
(0.146916 0.0575093 0)
(0.10796 0.0623643 0)
(0.0662101 0.065028 0)
(0.023298 0.0679674 0)
(3 9.80541e-17 0)
(3 1.77989e-16 0)
(3 -8.32688e-17 0)
(3 -8.49977e-17 0)
(3 -2.59538e-17 0)
(3 3.92028e-17 0)
(3 4.23028e-16 0)
(3 2.14417e-16 0)
(3 -6.32011e-16 0)
(3 -7.38633e-16 0)
(3 -5.45184e-16 0)
(3 4.00423e-16 0)
(3 7.17345e-16 0)
(3 4.83477e-16 0)
(3 -2.531e-16 0)
(3 -8.83591e-16 0)
(3 -7.7413e-16 0)
(3 -4.5786e-16 0)
(3 -3.50505e-16 0)
(3 -3.80577e-16 0)
(3 -4.83025e-16 0)
(3 -3.66491e-16 0)
(3 1.89715e-16 0)
(3 5.94641e-16 0)
(3 3.61277e-16 0)
(3 4.09509e-16 0)
(3 4.54931e-16 0)
(3 -4.07026e-16 0)
(3 -8.15901e-16 0)
(3 -8.68388e-16 0)
(3 -7.91318e-16 0)
(3 -4.24986e-16 0)
(3 -3.00894e-17 0)
(3 4.32295e-16 0)
(3 6.25702e-16 0)
(3 4.79603e-16 0)
(3 -3.67218e-16 0)
(3 -1.4979e-15 0)
(3 -2.47064e-15 0)
(3 -2.67497e-15 0)
(3 -3.12472e-15 0)
(3 -3.3197e-15 0)
(3 -2.85775e-15 0)
(3 -2.53108e-15 0)
(3 -2.13858e-15 0)
(3 -1.14963e-15 0)
(3 5.68726e-18 0)
(3 2.68492e-16 0)
(3 2.16342e-16 0)
(3 2.75745e-16 0)
(3 2.36419e-16 0)
(3 3.20979e-16 0)
(3 1.82388e-16 0)
(3 -2.51224e-16 0)
(3 -1.01418e-15 0)
(3 -8.17348e-16 0)
(3 -4.44351e-16 0)
(3 -1.15111e-15 0)
(3 -1.70846e-15 0)
(3 -1.25595e-15 0)
(3 -4.02339e-16 0)
(3 4.04411e-16 0)
(3 7.48499e-16 0)
(3 1.32644e-15 0)
(3 1.10477e-15 0)
(3 2.30305e-16 0)
(3 6.28406e-17 0)
(3 -4.4203e-17 0)
(3 2.29372e-16 0)
(3 -7.35491e-16 0)
(3 -3.04135e-16 0)
(3 -1.36241e-15 0)
(2.5569 0.0483621 0)
(0.894282 0.0676809 0)
(0.725913 0.0668304 0)
(0.694843 0.0638513 0)
(0.660693 0.0643344 0)
(0.628216 0.0655789 0)
(0.59588 0.0669516 0)
(0.564404 0.0674736 0)
(0.533887 0.0673878 0)
(0.503751 0.0675933 0)
(0.473133 0.0696763 0)
(0.441282 0.0741807 0)
(0.407903 0.0783488 0)
(0.374165 0.0793014 0)
(0.341433 0.0777084 0)
(0.309557 0.0763436 0)
(0.27781 0.0764936 0)
(0.245613 0.0784035 0)
(0.212614 0.0818415 0)
(0.178566 0.0875318 0)
(0.142662 0.0943454 0)
(0.104853 0.102304 0)
(0.0642756 0.107035 0)
(0.0227905 0.112502 0)
(3 -8.29111e-18 0)
(3 3.33742e-16 0)
(3 2.34272e-16 0)
(3 3.97935e-16 0)
(3 5.45586e-16 0)
(3 3.14206e-16 0)
(3 6.65861e-16 0)
(3 4.48859e-16 0)
(3 -4.93365e-16 0)
(3 -7.14972e-16 0)
(3 -8.1488e-16 0)
(3 -6.98238e-17 0)
(3 4.73174e-16 0)
(3 4.6538e-16 0)
(3 -4.57631e-17 0)
(3 -4.89583e-16 0)
(3 -5.54059e-16 0)
(3 -6.35384e-16 0)
(3 -3.49756e-16 0)
(3 1.40712e-16 0)
(3 -3.56297e-16 0)
(3 -1.63357e-15 0)
(3 -2.25592e-15 0)
(3 -1.76182e-15 0)
(3 -2.79052e-16 0)
(3 8.69959e-17 0)
(3 -1.78041e-16 0)
(3 -3.06653e-16 0)
(3 -4.14628e-16 0)
(3 -7.74883e-16 0)
(3 -1.45067e-15 0)
(3 -2.10526e-15 0)
(3 -1.59843e-15 0)
(3 -1.02249e-15 0)
(3 -6.47169e-16 0)
(3 -6.24045e-17 0)
(3 -5.12456e-17 0)
(3 -8.9898e-16 0)
(3 -1.66528e-15 0)
(3 -2.00199e-15 0)
(3 -3.07237e-15 0)
(3 -3.67075e-15 0)
(3 -3.92105e-15 0)
(3 -3.13005e-15 0)
(3 -2.61283e-15 0)
(3 -2.02568e-15 0)
(3 -1.85599e-15 0)
(3 -1.39253e-15 0)
(3 -5.45622e-16 0)
(3 -5.7917e-16 0)
(3 -1.21665e-15 0)
(3 -1.04357e-15 0)
(3 -5.24147e-16 0)
(3 -5.86739e-16 0)
(3 -1.43719e-15 0)
(3 -1.70866e-15 0)
(3 -1.37256e-15 0)
(3 -1.04357e-15 0)
(3 -6.70019e-16 0)
(3 -2.88489e-16 0)
(3 9.44753e-16 0)
(3 1.07009e-15 0)
(3 1.33364e-15 0)
(3 1.83078e-15 0)
(3 1.75576e-15 0)
(3 7.24304e-16 0)
(3 9.5037e-16 0)
(3 1.33959e-15 0)
(3 1.00561e-15 0)
(3 6.16008e-16 0)
(3 8.70997e-16 0)
(3 1.3015e-15 0)
(2.63577 0.0590341 0)
(0.915005 0.0943531 0)
(0.733182 0.0922227 0)
(0.703629 0.0899532 0)
(0.669454 0.0910365 0)
(0.636777 0.0928782 0)
(0.603976 0.0944655 0)
(0.571933 0.0947831 0)
(0.540627 0.094849 0)
(0.509277 0.0959381 0)
(0.477145 0.0994506 0)
(0.443993 0.105506 0)
(0.409907 0.110374 0)
(0.376283 0.110829 0)
(0.344151 0.108463 0)
(0.312661 0.107057 0)
(0.280742 0.107961 0)
(0.247708 0.111094 0)
(0.21335 0.11571 0)
(0.177931 0.12298 0)
(0.140951 0.131378 0)
(0.10316 0.141765 0)
(0.062878 0.148259 0)
(0.0224006 0.156148 0)
(3 8.19248e-18 0)
(3 -7.18037e-17 0)
(3 -2.14606e-16 0)
(3 -2.58695e-16 0)
(3 -5.49696e-16 0)
(3 -6.30009e-16 0)
(3 -5.46241e-16 0)
(3 -5.23418e-16 0)
(3 -8.32676e-18 0)
(3 4.24396e-16 0)
(3 6.50794e-16 0)
(3 7.80029e-16 0)
(3 1.00596e-15 0)
(3 8.02734e-16 0)
(3 9.44656e-16 0)
(3 9.31499e-16 0)
(3 -3.66432e-17 0)
(3 -4.29041e-16 0)
(3 -3.67231e-16 0)
(3 -3.16896e-16 0)
(3 -1.06063e-15 0)
(3 -1.52068e-15 0)
(3 -1.34174e-15 0)
(3 -1.22418e-15 0)
(3 -5.73059e-16 0)
(3 -5.21157e-16 0)
(3 -6.40229e-16 0)
(3 -5.06855e-16 0)
(3 -4.11793e-16 0)
(3 -7.93889e-16 0)
(3 -6.3946e-16 0)
(3 1.43126e-16 0)
(3 -3.4432e-16 0)
(3 -3.65761e-16 0)
(3 -7.08913e-16 0)
(3 -2.14501e-16 0)
(3 -1.95966e-17 0)
(3 -1.1294e-15 0)
(3 -1.74416e-15 0)
(3 -1.79043e-15 0)
(3 -1.7139e-15 0)
(3 -1.91007e-15 0)
(3 -2.20527e-15 0)
(3 -1.75102e-15 0)
(3 -1.56679e-15 0)
(3 -1.50205e-15 0)
(3 -1.94578e-15 0)
(3 -1.97037e-15 0)
(3 -1.84482e-15 0)
(3 -1.98907e-15 0)
(3 -1.83213e-15 0)
(3 -1.46133e-15 0)
(3 -1.39717e-15 0)
(3 -7.75625e-16 0)
(3 -4.75203e-17 0)
(3 -7.76131e-16 0)
(3 -1.47159e-15 0)
(3 -1.232e-15 0)
(3 -2.53133e-16 0)
(3 2.74509e-17 0)
(3 2.9355e-16 0)
(3 1.9335e-16 0)
(3 5.76313e-16 0)
(3 1.25037e-15 0)
(3 1.3886e-15 0)
(3 1.09327e-15 0)
(3 1.40883e-15 0)
(3 2.03083e-15 0)
(3 2.3175e-15 0)
(3 2.56007e-15 0)
(3 2.31822e-15 0)
(3 6.17049e-16 0)
(2.72551 0.0668934 0)
(0.940347 0.122223 0)
(0.73725 0.116095 0)
(0.708708 0.116956 0)
(0.674284 0.118918 0)
(0.641828 0.121318 0)
(0.60936 0.12294 0)
(0.577674 0.123026 0)
(0.546408 0.123478 0)
(0.51474 0.125679 0)
(0.482365 0.130424 0)
(0.449705 0.137316 0)
(0.417004 0.141984 0)
(0.385242 0.141429 0)
(0.354364 0.138416 0)
(0.322863 0.137603 0)
(0.289845 0.140121 0)
(0.254881 0.145289 0)
(0.218058 0.151455 0)
(0.180254 0.160224 0)
(0.141089 0.169504 0)
(0.10245 0.181533 0)
(0.0618004 0.189215 0)
(0.0220355 0.199082 0)
(3 2.13656e-17 0)
(3 3.87007e-17 0)
(3 -2.73288e-16 0)
(3 -2.23521e-16 0)
(3 2.75526e-16 0)
(3 2.54047e-16 0)
(3 1.6567e-17 0)
(3 8.47383e-17 0)
(3 5.11151e-16 0)
(3 8.63366e-16 0)
(3 1.06426e-15 0)
(3 9.31163e-16 0)
(3 3.36917e-16 0)
(3 8.48636e-17 0)
(3 1.10125e-16 0)
(3 3.77358e-18 0)
(3 7.62707e-17 0)
(3 -1.74624e-16 0)
(3 -7.05357e-16 0)
(3 -9.2996e-16 0)
(3 -9.39269e-16 0)
(3 2.63562e-16 0)
(3 5.9914e-16 0)
(3 5.95171e-16 0)
(3 -4.55208e-16 0)
(3 -8.30471e-16 0)
(3 -4.89373e-16 0)
(3 2.96715e-17 0)
(3 -2.12062e-16 0)
(3 -2.83444e-16 0)
(3 -4.52602e-16 0)
(3 -3.34813e-16 0)
(3 -3.28326e-16 0)
(3 -8.35413e-16 0)
(3 -1.44904e-15 0)
(3 -1.47506e-15 0)
(3 -7.43143e-16 0)
(3 -5.10882e-16 0)
(3 -1.08354e-15 0)
(3 -1.53632e-15 0)
(3 -1.25306e-15 0)
(3 -8.44968e-16 0)
(3 -1.29415e-15 0)
(3 -1.54059e-15 0)
(3 -1.06135e-15 0)
(3 -5.47091e-16 0)
(3 -7.80526e-16 0)
(3 -1.02293e-15 0)
(3 -9.82421e-16 0)
(3 -8.37911e-16 0)
(3 -8.42515e-16 0)
(3 -1.91724e-15 0)
(3 -2.62599e-15 0)
(3 -2.46517e-15 0)
(3 -6.17069e-16 0)
(3 7.33173e-16 0)
(3 5.98103e-16 0)
(3 7.00032e-17 0)
(3 8.25873e-16 0)
(3 9.39275e-16 0)
(3 4.61881e-16 0)
(3 2.48899e-16 0)
(3 3.8513e-16 0)
(3 1.11354e-15 0)
(3 2.13612e-15 0)
(3 1.85766e-15 0)
(3 9.08891e-16 0)
(3 5.05299e-16 0)
(3 1.88518e-15 0)
(3 2.49451e-15 0)
(3 2.27477e-15 0)
(3 8.96202e-16 0)
(2.82581 0.0725811 0)
(0.978603 0.151975 0)
(0.745318 0.137717 0)
(0.718609 0.14362 0)
(0.684068 0.146457 0)
(0.652165 0.149186 0)
(0.620398 0.150686 0)
(0.589268 0.150741 0)
(0.558175 0.152025 0)
(0.52656 0.155568 0)
(0.494629 0.161082 0)
(0.46328 0.167712 0)
(0.432512 0.171261 0)
(0.402228 0.16999 0)
(0.371176 0.167884 0)
(0.337993 0.16941 0)
(0.302304 0.174795 0)
(0.264279 0.182606 0)
(0.224476 0.190254 0)
(0.184345 0.200111 0)
(0.143046 0.209528 0)
(0.103345 0.222324 0)
(0.0619282 0.230512 0)
(0.0220417 0.241716 0)
(3 -9.30442e-17 0)
(3 -2.13697e-16 0)
(3 -1.81963e-16 0)
(3 1.54922e-16 0)
(3 8.4003e-16 0)
(3 8.53648e-16 0)
(3 7.84474e-16 0)
(3 1.18994e-15 0)
(3 1.00755e-15 0)
(3 1.18108e-15 0)
(3 1.769e-15 0)
(3 1.66897e-15 0)
(3 1.18127e-15 0)
(3 3.5789e-16 0)
(3 -9.053e-16 0)
(3 -9.87965e-16 0)
(3 -8.06856e-16 0)
(3 -7.8842e-16 0)
(3 -1.07428e-15 0)
(3 -9.13603e-16 0)
(3 -4.58694e-16 0)
(3 4.56427e-16 0)
(3 8.13937e-16 0)
(3 7.3539e-16 0)
(3 1.12629e-17 0)
(3 -5.68627e-16 0)
(3 -4.77122e-16 0)
(3 -7.20115e-16 0)
(3 -5.60081e-16 0)
(3 -2.88793e-16 0)
(3 -1.75813e-15 0)
(3 -1.99174e-15 0)
(3 -1.96884e-15 0)
(3 -2.3947e-15 0)
(3 -2.58308e-15 0)
(3 -2.22311e-15 0)
(3 -1.9235e-15 0)
(3 -4.91138e-16 0)
(3 -1.45321e-16 0)
(3 -1.0783e-15 0)
(3 -1.35385e-15 0)
(3 -1.25625e-15 0)
(3 -1.38374e-15 0)
(3 -1.8708e-15 0)
(3 -1.35487e-15 0)
(3 -9.35252e-16 0)
(3 -8.74572e-16 0)
(3 -6.73113e-16 0)
(3 -1.65562e-15 0)
(3 -2.08505e-15 0)
(3 -1.97319e-15 0)
(3 -2.17068e-15 0)
(3 -2.73085e-15 0)
(3 -2.7799e-15 0)
(3 -2.31442e-15 0)
(3 -1.51754e-15 0)
(3 -7.69888e-17 0)
(3 7.27029e-16 0)
(3 7.32745e-16 0)
(3 7.28646e-16 0)
(3 4.66437e-16 0)
(3 -4.7121e-16 0)
(3 -4.01052e-16 0)
(3 1.41937e-15 0)
(3 2.59275e-15 0)
(3 3.36678e-15 0)
(3 2.28458e-15 0)
(3 1.13532e-15 0)
(3 7.90762e-16 0)
(3 1.15844e-15 0)
(3 1.14021e-15 0)
(3 1.40422e-15 0)
(2.92828 0.0577399 0)
(1.02995 0.179124 0)
(0.758268 0.156097 0)
(0.734235 0.168166 0)
(0.700344 0.172675 0)
(0.669218 0.175328 0)
(0.638206 0.176584 0)
(0.607617 0.17694 0)
(0.576854 0.179321 0)
(0.545628 0.18403 0)
(0.514296 0.189578 0)
(0.483741 0.195135 0)
(0.453598 0.197909 0)
(0.422955 0.197697 0)
(0.390521 0.198215 0)
(0.355549 0.203077 0)
(0.317852 0.211716 0)
(0.277789 0.222173 0)
(0.235913 0.231079 0)
(0.193915 0.241784 0)
(0.15071 0.251268 0)
(0.108956 0.264671 0)
(0.0652537 0.27333 0)
(0.0233295 0.285772 0)
(3 9.67817e-17 0)
(3 -9.40257e-17 0)
(3 8.07666e-17 0)
(3 8.93274e-17 0)
(3 -4.94485e-16 0)
(3 -4.19344e-16 0)
(3 -1.72604e-16 0)
(3 3.79805e-16 0)
(3 6.3632e-16 0)
(3 7.6944e-16 0)
(3 5.02326e-16 0)
(3 3.52439e-16 0)
(3 6.33702e-16 0)
(3 2.93545e-16 0)
(3 -4.27744e-16 0)
(3 -9.22392e-17 0)
(3 -5.64647e-16 0)
(3 -2.04619e-16 0)
(3 -9.59468e-16 0)
(3 -1.29831e-15 0)
(3 -1.20431e-15 0)
(3 -4.71909e-16 0)
(3 -3.98939e-16 0)
(3 -3.38809e-16 0)
(3 -5.27649e-16 0)
(3 -8.44904e-16 0)
(3 -1.07234e-15 0)
(3 -1.27458e-15 0)
(3 -1.2838e-15 0)
(3 -1.54064e-15 0)
(3 -2.17495e-15 0)
(3 -2.54868e-15 0)
(3 -2.96469e-15 0)
(3 -3.52024e-15 0)
(3 -3.00247e-15 0)
(3 -2.7232e-15 0)
(3 -2.60786e-15 0)
(3 -1.04027e-15 0)
(3 6.62858e-16 0)
(3 8.07738e-16 0)
(3 8.9402e-16 0)
(3 6.32862e-16 0)
(3 1.92423e-16 0)
(3 -3.21796e-17 0)
(3 -4.32693e-16 0)
(3 -4.37734e-16 0)
(3 -6.01467e-16 0)
(3 -1.48049e-15 0)
(3 -2.30239e-15 0)
(3 -2.29796e-15 0)
(3 -2.50228e-15 0)
(3 -2.92005e-15 0)
(3 -2.92096e-15 0)
(3 -3.01419e-15 0)
(3 -2.19325e-15 0)
(3 -1.0847e-15 0)
(3 -5.70411e-17 0)
(3 1.93612e-16 0)
(3 -6.59683e-16 0)
(3 -8.19796e-16 0)
(3 -1.65722e-16 0)
(3 3.40402e-16 0)
(3 1.16983e-15 0)
(3 1.83099e-15 0)
(3 1.86322e-15 0)
(3 2.50979e-15 0)
(3 1.70403e-15 0)
(3 1.43662e-15 0)
(3 1.4017e-15 0)
(3 1.51219e-15 0)
(3 8.51165e-16 0)
(3 8.07756e-16 0)
(2.99269 0.0139271 0)
(1.08576 0.202342 0)
(0.770077 0.172488 0)
(0.748809 0.190802 0)
(0.717055 0.197562 0)
(0.686731 0.200311 0)
(0.656503 0.201483 0)
(0.626661 0.202319 0)
(0.596537 0.205857 0)
(0.565669 0.211865 0)
(0.534099 0.217865 0)
(0.502623 0.22342 0)
(0.470741 0.227202 0)
(0.437408 0.229317 0)
(0.401969 0.232637 0)
(0.364546 0.240317 0)
(0.325347 0.251451 0)
(0.284793 0.263957 0)
(0.242709 0.273887 0)
(0.200476 0.28546 0)
(0.156519 0.295423 0)
(0.11333 0.309584 0)
(0.0678289 0.318855 0)
(0.0242274 0.332521 0)
(3 5.18345e-17 0)
(3 4.30829e-16 0)
(3 3.28816e-16 0)
(3 1.12281e-16 0)
(3 -2.71727e-16 0)
(3 -4.13683e-16 0)
(3 -1.57104e-16 0)
(3 3.52962e-16 0)
(3 8.7978e-16 0)
(3 8.15789e-16 0)
(3 -2.26709e-16 0)
(3 -5.52378e-16 0)
(3 -7.36983e-16 0)
(3 -4.7913e-16 0)
(3 -5.70199e-16 0)
(3 -2.05808e-16 0)
(3 1.10611e-15 0)
(3 5.62162e-16 0)
(3 6.27765e-16 0)
(3 7.39136e-16 0)
(3 7.60654e-16 0)
(3 -1.34028e-16 0)
(3 -6.65219e-16 0)
(3 -7.56562e-16 0)
(3 -1.27486e-15 0)
(3 -1.17795e-15 0)
(3 -5.85754e-16 0)
(3 -6.24051e-16 0)
(3 -1.03268e-15 0)
(3 -1.87733e-15 0)
(3 -2.11971e-15 0)
(3 -2.53161e-15 0)
(3 -2.7863e-15 0)
(3 -2.71087e-15 0)
(3 -2.55075e-15 0)
(3 -2.36263e-15 0)
(3 -2.02624e-15 0)
(3 -1.2031e-15 0)
(3 -1.09436e-15 0)
(3 1.97803e-16 0)
(3 7.62462e-16 0)
(3 1.12061e-15 0)
(3 9.27227e-16 0)
(3 1.30652e-15 0)
(3 9.47808e-16 0)
(3 -2.48878e-16 0)
(3 -4.11614e-16 0)
(3 -1.43559e-15 0)
(3 -1.64241e-15 0)
(3 -1.45236e-15 0)
(3 -1.64391e-15 0)
(3 -2.39965e-15 0)
(3 -2.24192e-15 0)
(3 -1.38189e-15 0)
(3 -2.23366e-16 0)
(3 -1.91881e-16 0)
(3 2.96413e-16 0)
(3 -7.41813e-17 0)
(3 -5.37393e-16 0)
(3 -1.49033e-15 0)
(3 -4.38934e-16 0)
(3 7.86917e-16 0)
(3 1.41848e-15 0)
(3 9.84813e-16 0)
(3 -5.66592e-17 0)
(3 3.3693e-16 0)
(3 5.64863e-16 0)
(3 9.9549e-16 0)
(3 2.39654e-15 0)
(3 2.13009e-15 0)
(3 2.23804e-15 0)
(3 1.33088e-15 0)
(3.00193 0.00113678 0)
(1.17212 0.220198 0)
(0.769123 0.189674 0)
(0.745218 0.214306 0)
(0.715424 0.224344 0)
(0.685757 0.227604 0)
(0.656436 0.228826 0)
(0.627448 0.230202 0)
(0.598006 0.235067 0)
(0.567557 0.242634 0)
(0.536088 0.249313 0)
(0.504605 0.254922 0)
(0.47282 0.25944 0)
(0.439794 0.263296 0)
(0.404951 0.268602 0)
(0.368459 0.278178 0)
(0.330306 0.290984 0)
(0.290794 0.305225 0)
(0.249076 0.316672 0)
(0.206429 0.329804 0)
(0.161626 0.341268 0)
(0.116838 0.356675 0)
(0.0696201 0.366614 0)
(0.0247592 0.381195 0)
(3 -2.00504e-16 0)
(3 -4.15628e-16 0)
(3 -3.43842e-16 0)
(3 -1.84938e-16 0)
(3 3.30631e-17 0)
(3 -1.9157e-18 0)
(3 7.47336e-17 0)
(3 4.82843e-16 0)
(3 8.67607e-16 0)
(3 -2.4101e-17 0)
(3 -7.82126e-16 0)
(3 -1.05811e-15 0)
(3 -1.3045e-15 0)
(3 -1.10569e-15 0)
(3 3.13241e-16 0)
(3 1.11457e-15 0)
(3 1.48326e-15 0)
(3 1.31606e-15 0)
(3 1.80542e-15 0)
(3 1.86672e-15 0)
(3 1.98787e-15 0)
(3 1.16769e-15 0)
(3 4.42912e-16 0)
(3 3.50412e-17 0)
(3 2.2224e-16 0)
(3 5.79865e-17 0)
(3 -4.59943e-17 0)
(3 -4.97267e-16 0)
(3 -8.31894e-16 0)
(3 -1.25479e-15 0)
(3 -1.40121e-15 0)
(3 -1.30246e-15 0)
(3 -1.61018e-15 0)
(3 -1.35324e-15 0)
(3 -6.56779e-16 0)
(3 -1.48855e-17 0)
(3 -5.12561e-16 0)
(3 -1.06572e-15 0)
(3 -1.03406e-15 0)
(3 -6.51953e-16 0)
(3 -4.39797e-16 0)
(3 -2.57082e-16 0)
(3 2.4853e-16 0)
(3 5.59711e-16 0)
(3 6.66732e-16 0)
(3 2.78923e-17 0)
(3 -4.11891e-16 0)
(3 -1.05879e-15 0)
(3 -1.39415e-15 0)
(3 -1.75048e-15 0)
(3 -1.8783e-15 0)
(3 -1.89945e-15 0)
(3 -1.71826e-15 0)
(3 -9.83758e-16 0)
(3 2.08869e-16 0)
(3 1.33013e-16 0)
(3 4.36466e-17 0)
(3 7.73384e-16 0)
(3 1.29552e-15 0)
(3 6.87661e-16 0)
(3 -1.09394e-16 0)
(3 -4.32895e-16 0)
(3 -1.21614e-15 0)
(3 -1.66531e-15 0)
(3 -1.87064e-15 0)
(3 -9.00969e-16 0)
(3 2.02921e-16 0)
(3 1.3328e-15 0)
(3 1.49814e-15 0)
(3 1.25604e-15 0)
(3 1.48659e-15 0)
(3 1.22354e-15 0)
(3.00003 1.86931e-06 0)
(1.31534 0.251357 0)
(0.773102 0.214477 0)
(0.735322 0.23546 0)
(0.707331 0.246966 0)
(0.678509 0.250935 0)
(0.650748 0.252422 0)
(0.623733 0.254494 0)
(0.597309 0.261017 0)
(0.570478 0.270356 0)
(0.542045 0.277934 0)
(0.512529 0.284037 0)
(0.481648 0.28996 0)
(0.448847 0.296291 0)
(0.413989 0.304093 0)
(0.377663 0.315816 0)
(0.339754 0.330467 0)
(0.300397 0.346862 0)
(0.258051 0.360795 0)
(0.213772 0.37627 0)
(0.167303 0.389908 0)
(0.120487 0.406642 0)
(0.0715392 0.41707 0)
(0.0249255 0.431815 0)
(3 -8.85923e-17 0)
(3 -4.73598e-16 0)
(3 8.9245e-17 0)
(3 1.20273e-16 0)
(3 -1.39706e-16 0)
(3 7.72344e-16 0)
(3 5.35947e-16 0)
(3 -6.93551e-17 0)
(3 -2.34555e-16 0)
(3 -1.01147e-15 0)
(3 -1.59235e-15 0)
(3 -1.78729e-15 0)
(3 -1.96785e-15 0)
(3 -1.78852e-15 0)
(3 4.26198e-17 0)
(3 9.07937e-16 0)
(3 9.71339e-16 0)
(3 3.23454e-16 0)
(3 1.20667e-16 0)
(3 2.81187e-16 0)
(3 -2.03081e-16 0)
(3 3.79333e-16 0)
(3 1.22281e-15 0)
(3 1.19184e-15 0)
(3 1.0407e-15 0)
(3 1.25083e-15 0)
(3 -7.44707e-16 0)
(3 -1.39409e-15 0)
(3 -1.10092e-15 0)
(3 -1.2528e-15 0)
(3 -1.53358e-15 0)
(3 -1.50784e-15 0)
(3 -1.10104e-15 0)
(3 -8.04333e-16 0)
(3 -2.06849e-16 0)
(3 -2.03909e-16 0)
(3 -5.75318e-16 0)
(3 -1.14378e-15 0)
(3 -5.97343e-16 0)
(3 -5.69568e-16 0)
(3 -1.19052e-15 0)
(3 -1.33109e-15 0)
(3 -8.34091e-16 0)
(3 -7.297e-16 0)
(3 -9.26407e-16 0)
(3 -7.46373e-16 0)
(3 -9.01143e-16 0)
(3 -9.16204e-16 0)
(3 -2.04793e-16 0)
(3 2.014e-17 0)
(3 -1.94906e-16 0)
(3 -9.18672e-16 0)
(3 -1.43333e-15 0)
(3 -1.71606e-15 0)
(3 -1.85901e-15 0)
(3 -1.13723e-15 0)
(3 -4.88237e-16 0)
(3 1.03836e-15 0)
(3 1.56156e-15 0)
(3 1.68184e-15 0)
(3 8.80772e-16 0)
(3 6.42257e-16 0)
(3 4.01351e-17 0)
(3 -4.12005e-16 0)
(3 -8.65267e-16 0)
(3 -8.13331e-16 0)
(3 4.59574e-16 0)
(3 9.81913e-16 0)
(3 1.12167e-15 0)
(3 1.69997e-15 0)
(3 1.41398e-15 0)
(3 7.838e-16 0)
(3 -2.01451e-09 0)
(1.53223 0.283477 0)
(0.792572 0.250339 0)
(0.730083 0.260495 0)
(0.700359 0.269715 0)
(0.671161 0.273702 0)
(0.643362 0.275234 0)
(0.616214 0.277023 0)
(0.590415 0.283897 0)
(0.565867 0.294843 0)
(0.540533 0.304192 0)
(0.514377 0.311941 0)
(0.486826 0.320017 0)
(0.457163 0.329061 0)
(0.424944 0.339319 0)
(0.390686 0.353142 0)
(0.354071 0.369891 0)
(0.315368 0.389005 0)
(0.272767 0.406312 0)
(0.22771 0.424745 0)
(0.179803 0.440969 0)
(0.130445 0.459764 0)
(0.0777614 0.471356 0)
(0.0271098 0.48638 0)
(3 -7.57987e-18 0)
(3 2.55655e-17 0)
(3 -2.30859e-18 0)
(3 -4.96458e-16 0)
(3 -5.70823e-16 0)
(3 -2.67366e-16 0)
(3 5.02166e-16 0)
(3 1.01714e-16 0)
(3 -9.06387e-16 0)
(3 -1.35776e-15 0)
(3 -1.61775e-15 0)
(3 -1.75397e-15 0)
(3 -1.79983e-15 0)
(3 -1.12152e-15 0)
(3 -8.21365e-16 0)
(3 -4.33861e-16 0)
(3 -4.55425e-17 0)
(3 -8.17508e-16 0)
(3 -1.42048e-15 0)
(3 -1.37438e-15 0)
(3 -9.40187e-16 0)
(3 -7.65588e-16 0)
(3 1.74279e-16 0)
(3 6.56175e-16 0)
(3 7.62279e-16 0)
(3 2.57821e-16 0)
(3 -5.26958e-16 0)
(3 -1.06642e-15 0)
(3 -1.20706e-15 0)
(3 -1.49524e-15 0)
(3 -1.36101e-15 0)
(3 -1.11656e-15 0)
(3 -1.27729e-15 0)
(3 -9.46183e-16 0)
(3 -1.17048e-15 0)
(3 -1.69159e-15 0)
(3 -1.54478e-15 0)
(3 -1.02532e-15 0)
(3 -2.53275e-16 0)
(3 -1.22579e-16 0)
(3 -1.15547e-15 0)
(3 -1.62101e-15 0)
(3 -1.12615e-15 0)
(3 -1.10746e-15 0)
(3 -1.3659e-15 0)
(3 -1.52188e-15 0)
(3 -1.51645e-15 0)
(3 -1.20708e-15 0)
(3 -4.27686e-17 0)
(3 6.30696e-16 0)
(3 1.15292e-15 0)
(3 1.35991e-15 0)
(3 -2.86086e-16 0)
(3 -1.16225e-15 0)
(3 -1.4319e-15 0)
(3 -7.90886e-16 0)
(3 -2.01199e-16 0)
(3 -3.00755e-16 0)
(3 -3.20577e-17 0)
(3 -1.54957e-16 0)
(3 -7.67751e-16 0)
(3 -3.97062e-16 0)
(3 3.13622e-16 0)
(3 1.5329e-16 0)
(3 1.1456e-16 0)
(3 2.21817e-16 0)
(3 1.06677e-15 0)
(3 1.12315e-15 0)
(3 1.21174e-15 0)
(3 1.80616e-15 0)
(3 1.65329e-15 0)
(3 2.07006e-15 0)
(3 -9.41051e-10 0)
(1.81948 0.308855 0)
(0.820628 0.298105 0)
(0.728255 0.293827 0)
(0.696885 0.295765 0)
(0.668691 0.298789 0)
(0.641369 0.300796 0)
(0.614044 0.302421 0)
(0.587963 0.308318 0)
(0.564196 0.318824 0)
(0.540797 0.328431 0)
(0.517266 0.337146 0)
(0.492738 0.347228 0)
(0.466181 0.359253 0)
(0.436625 0.372718 0)
(0.404563 0.38961 0)
(0.369603 0.40945 0)
(0.332132 0.432088 0)
(0.28982 0.45377 0)
(0.24407 0.476485 0)
(0.193607 0.496859 0)
(0.14114 0.519171 0)
(0.0847078 0.533115 0)
(0.0282671 0.547747 0)
(3 -3.51027e-17 0)
(3 -5.93115e-16 0)
(3 -1.06025e-15 0)
(3 -1.41111e-15 0)
(3 -1.19116e-15 0)
(3 -1.45007e-15 0)
(3 -9.10108e-16 0)
(3 -6.85067e-16 0)
(3 -9.32166e-16 0)
(3 -8.86295e-16 0)
(3 -4.10096e-16 0)
(3 -5.77894e-16 0)
(3 -5.90249e-16 0)
(3 -1.49885e-16 0)
(3 -5.3917e-17 0)
(3 3.40362e-16 0)
(3 3.09838e-16 0)
(3 -2.62091e-16 0)
(3 -4.42816e-16 0)
(3 -1.13435e-15 0)
(3 -9.25031e-16 0)
(3 -6.43577e-16 0)
(3 -8.15475e-16 0)
(3 -8.38506e-17 0)
(3 6.94864e-16 0)
(3 -5.13868e-17 0)
(3 -5.98065e-16 0)
(3 -1.3054e-15 0)
(3 -2.56328e-15 0)
(3 -2.49405e-15 0)
(3 -1.72743e-15 0)
(3 -1.03174e-15 0)
(3 -1.09361e-15 0)
(3 -1.23982e-15 0)
(3 -1.76232e-15 0)
(3 -2.3693e-15 0)
(3 -2.07679e-15 0)
(3 -1.78445e-15 0)
(3 -1.90818e-15 0)
(3 -1.09711e-15 0)
(3 -9.77748e-16 0)
(3 -9.1036e-16 0)
(3 -6.62443e-16 0)
(3 -7.94245e-16 0)
(3 -7.75683e-16 0)
(3 -8.66399e-16 0)
(3 -5.94874e-16 0)
(3 -2.25279e-16 0)
(3 -2.94455e-16 0)
(3 3.99116e-16 0)
(3 9.50895e-16 0)
(3 1.18174e-15 0)
(3 9.0197e-16 0)
(3 4.24802e-16 0)
(3 3.09404e-16 0)
(3 -1.69445e-16 0)
(3 1.8792e-16 0)
(3 4.50139e-16 0)
(3 4.37569e-16 0)
(3 -5.44608e-16 0)
(3 -1.16818e-15 0)
(3 -2.01139e-15 0)
(3 -1.33003e-15 0)
(3 -1.51615e-15 0)
(3 -6.90478e-16 0)
(3 -2.11145e-16 0)
(3 1.13099e-16 0)
(3 6.16301e-16 0)
(3 7.92725e-16 0)
(3 8.95279e-16 0)
(3 1.10178e-15 0)
(3 1.63593e-15 0)
(3 -1.48548e-10 0)
(2.18409 0.32526 0)
(0.869184 0.357742 0)
(0.748821 0.328616 0)
(0.719303 0.32445 0)
(0.689721 0.326084 0)
(0.66061 0.328244 0)
(0.631028 0.329982 0)
(0.602331 0.33477 0)
(0.576352 0.344164 0)
(0.551806 0.353088 0)
(0.527945 0.361944 0)
(0.503843 0.373484 0)
(0.478338 0.3882 0)
(0.450404 0.404864 0)
(0.420451 0.424848 0)
(0.387772 0.448168 0)
(0.352374 0.474977 0)
(0.312796 0.502047 0)
(0.26926 0.530171 0)
(0.220049 0.555025 0)
(0.1669 0.581869 0)
(0.103845 0.602247 0)
(0.036739 0.620494 0)
(3 3.42747e-17 0)
(3 1.13152e-16 0)
(3 -2.04479e-16 0)
(3 -3.77998e-16 0)
(3 -5.96775e-16 0)
(3 -8.80803e-16 0)
(3 -1.47412e-15 0)
(3 -1.61397e-15 0)
(3 -9.03869e-16 0)
(3 -1.4756e-16 0)
(3 5.19395e-16 0)
(3 4.63016e-16 0)
(3 4.92304e-16 0)
(3 4.77438e-16 0)
(3 5.40187e-16 0)
(3 6.88705e-16 0)
(3 -2.88715e-17 0)
(3 1.63346e-16 0)
(3 5.62926e-17 0)
(3 -2.41915e-16 0)
(3 -6.38817e-16 0)
(3 -2.84009e-16 0)
(3 9.01144e-17 0)
(3 4.6304e-16 0)
(3 -5.95132e-16 0)
(3 -1.62616e-15 0)
(3 -1.94969e-15 0)
(3 -1.78547e-15 0)
(3 -1.91409e-15 0)
(3 -1.64802e-15 0)
(3 -1.18849e-15 0)
(3 -7.18024e-16 0)
(3 1.32925e-16 0)
(3 2.02667e-18 0)
(3 -2.94991e-16 0)
(3 -5.89418e-16 0)
(3 -2.08117e-15 0)
(3 -2.17701e-15 0)
(3 -3.13159e-15 0)
(3 -2.50426e-15 0)
(3 -1.62041e-15 0)
(3 -8.20813e-16 0)
(3 -9.9216e-16 0)
(3 -1.23242e-15 0)
(3 -1.3553e-15 0)
(3 -1.55818e-15 0)
(3 -1.49997e-15 0)
(3 -1.57857e-15 0)
(3 -2.08744e-15 0)
(3 -1.49415e-15 0)
(3 -7.42209e-16 0)
(3 -6.02336e-16 0)
(3 1.50108e-17 0)
(3 2.32649e-16 0)
(3 1.18879e-16 0)
(3 -1.88944e-17 0)
(3 5.9715e-17 0)
(3 4.96868e-16 0)
(3 -3.13397e-16 0)
(3 -8.23939e-16 0)
(3 -1.15243e-15 0)
(3 -1.95172e-15 0)
(3 -2.72628e-15 0)
(3 -2.44504e-15 0)
(3 -1.66508e-15 0)
(3 -6.47035e-16 0)
(3 -1.36166e-16 0)
(3 6.30647e-16 0)
(3 1.11657e-15 0)
(3 1.17871e-15 0)
(3 9.97871e-16 0)
(3 8.28988e-16 0)
(3 -1.02763e-11 0)
(2.67163 0.266278 0)
(0.97812 0.40399 0)
(0.809361 0.344297 0)
(0.77976 0.339745 0)
(0.742687 0.34663 0)
(0.707021 0.352747 0)
(0.671876 0.357011 0)
(0.637881 0.361549 0)
(0.6066 0.370014 0)
(0.577491 0.378491 0)
(0.549993 0.387748 0)
(0.523525 0.400669 0)
(0.496829 0.417552 0)
(0.469078 0.436748 0)
(0.440307 0.459266 0)
(0.409773 0.485871 0)
(0.378188 0.516693 0)
(0.34271 0.54904 0)
(0.302313 0.583789 0)
(0.251689 0.618199 0)
(0.191934 0.65732 0)
(0.120254 0.69302 0)
(0.0377075 0.715844 0)
(3 3.13508e-17 0)
(3 4.81232e-16 0)
(3 2.57052e-16 0)
(3 1.71685e-16 0)
(3 1.15053e-16 0)
(3 -7.10544e-16 0)
(3 -1.10608e-15 0)
(3 -9.14618e-16 0)
(3 -2.79321e-16 0)
(3 2.51793e-17 0)
(3 1.29981e-16 0)
(3 2.69852e-16 0)
(3 4.77414e-16 0)
(3 8.48707e-16 0)
(3 6.22559e-16 0)
(3 -5.99037e-16 0)
(3 -1.12569e-15 0)
(3 -1.06474e-15 0)
(3 -6.03472e-16 0)
(3 -3.46471e-16 0)
(3 4.86797e-16 0)
(3 1.24067e-15 0)
(3 1.36616e-15 0)
(3 1.39707e-15 0)
(3 -1.33247e-15 0)
(3 -2.8929e-15 0)
(3 -2.59139e-15 0)
(3 -1.54019e-15 0)
(3 -8.9566e-16 0)
(3 -4.46792e-16 0)
(3 -1.05491e-16 0)
(3 -3.75905e-16 0)
(3 -9.96362e-17 0)
(3 2.04293e-16 0)
(3 4.68817e-16 0)
(3 5.00917e-16 0)
(3 -4.93167e-17 0)
(3 -1.1075e-15 0)
(3 -1.98537e-15 0)
(3 -2.82014e-15 0)
(3 -3.11894e-15 0)
(3 -2.55534e-15 0)
(3 -2.14283e-15 0)
(3 -2.28937e-15 0)
(3 -2.05886e-15 0)
(3 -1.73821e-15 0)
(3 -1.60812e-15 0)
(3 -1.88016e-15 0)
(3 -2.03688e-15 0)
(3 -2.57016e-15 0)
(3 -2.60245e-15 0)
(3 -1.28419e-15 0)
(3 -9.66268e-16 0)
(3 -9.66312e-16 0)
(3 -5.40719e-16 0)
(3 3.98277e-16 0)
(3 4.64323e-16 0)
(3 6.71787e-17 0)
(3 -3.0434e-16 0)
(3 -3.18544e-16 0)
(3 -1.26761e-15 0)
(3 -1.56627e-15 0)
(3 -2.82425e-15 0)
(3 -1.82948e-15 0)
(3 -1.48202e-15 0)
(3 -1.21407e-15 0)
(3 -1.41889e-15 0)
(3 2.71493e-16 0)
(3 1.20608e-15 0)
(3 2.13464e-15 0)
(3 1.6496e-15 0)
(3 2.6569e-16 0)
(3 -5.53376e-13 0)
(3.02735 0.0539764 0)
(1.14296 0.389716 0)
(0.854852 0.367639 0)
(0.830421 0.375003 0)
(0.794262 0.380296 0)
(0.758066 0.384155 0)
(0.721241 0.388987 0)
(0.684606 0.394171 0)
(0.649454 0.402118 0)
(0.615654 0.40948 0)
(0.583717 0.417604 0)
(0.553615 0.430364 0)
(0.524701 0.448097 0)
(0.49617 0.468793 0)
(0.467453 0.49274 0)
(0.439464 0.521194 0)
(0.411195 0.555529 0)
(0.379294 0.594482 0)
(0.342868 0.639914 0)
(0.298007 0.688987 0)
(0.244247 0.739562 0)
(0.17625 0.789887 0)
(0.0686648 0.835244 0)
(3 6.52844e-17 0)
(3 -1.5641e-16 0)
(3 -4.99676e-17 0)
(3 3.84908e-16 0)
(3 5.86905e-16 0)
(3 6.19985e-17 0)
(3 -9.91944e-17 0)
(3 2.97142e-16 0)
(3 -1.96013e-17 0)
(3 -1.49263e-16 0)
(3 -6.05181e-16 0)
(3 -5.22388e-16 0)
(3 -3.8378e-16 0)
(3 1.13697e-16 0)
(3 -3.1524e-16 0)
(3 -1.55754e-15 0)
(3 -1.33055e-15 0)
(3 -1.1233e-15 0)
(3 -6.59902e-16 0)
(3 -2.00336e-16 0)
(3 7.11476e-16 0)
(3 1.32786e-15 0)
(3 1.2849e-15 0)
(3 4.28903e-16 0)
(3 -2.75943e-16 0)
(3 -6.48148e-16 0)
(3 -4.17325e-16 0)
(3 -4.26995e-16 0)
(3 -2.09044e-16 0)
(3 1.64655e-16 0)
(3 -8.05258e-16 0)
(3 -1.46584e-15 0)
(3 -1.2754e-15 0)
(3 -1.04807e-15 0)
(3 -3.42703e-16 0)
(3 2.35698e-16 0)
(3 -2.11943e-17 0)
(3 -1.16338e-15 0)
(3 -1.41549e-15 0)
(3 -2.2513e-15 0)
(3 -2.70074e-15 0)
(3 -2.41438e-15 0)
(3 -2.8387e-15 0)
(3 -2.86789e-15 0)
(3 -2.18616e-15 0)
(3 -1.8022e-15 0)
(3 -1.72725e-15 0)
(3 -1.96404e-15 0)
(3 -1.93732e-15 0)
(3 -1.27378e-15 0)
(3 -9.793e-16 0)
(3 -5.88298e-16 0)
(3 -2.18671e-16 0)
(3 4.44125e-16 0)
(3 1.13923e-15 0)
(3 1.52572e-15 0)
(3 1.02724e-15 0)
(3 -1.02846e-16 0)
(3 -8.29067e-17 0)
(3 3.54107e-16 0)
(3 4.40404e-16 0)
(3 4.80645e-16 0)
(3 -4.21277e-16 0)
(3 -4.45431e-16 0)
(3 -6.88633e-16 0)
(3 -1.34578e-15 0)
(3 -1.96474e-15 0)
(3 -1.41293e-15 0)
(3 -6.00187e-16 0)
(3 -6.15837e-17 0)
(3 5.27449e-16 0)
(3 7.8933e-16 0)
(3 -9.73051e-14 0)
(3.01079 0.00178747 0)