/*--------------------------------*- C++ -*----------------------------------*\
  =========                 |
  \\      /  F ield         | OpenFOAM: The Open Source CFD Toolbox
   \\    /   O peration     | Website:  https://openfoam.org
    \\  /    A nd           | Version:  7
     \\/     M anipulation  |
\*---------------------------------------------------------------------------*/
FoamFile
{
    version     2.0;
    format      ascii;
    class       volVectorField;
    location    "1.7";
    object      U;
}
// * * * * * * * * * * * * * * * * * * * * * * * * * * * * * * * * * * * * * //

dimensions      [0 1 -1 0 0 0 0];

internalField   nonuniform List<vector> 
16512
(
(3 3.83617e-16 0)
(3 3.67757e-16 0)
(3 3.88748e-18 0)
(3 -1.10227e-16 0)
(3 6.53652e-17 0)
(3 -8.58697e-17 0)
(3 -7.77928e-16 0)
(3 -1.70773e-15 0)
(3 -1.90344e-15 0)
(3 -1.52027e-15 0)
(3 -6.6771e-16 0)
(3 -1.00243e-15 0)
(3 -1.76078e-15 0)
(3 -1.67455e-15 0)
(3 -1.11529e-15 0)
(3 -7.12463e-16 0)
(3 -1.37204e-15 0)
(3 -2.39321e-15 0)
(3 -1.92415e-15 0)
(3 -1.21982e-15 0)
(3 -1.88747e-16 0)
(3 2.74483e-16 0)
(3 6.5137e-16 0)
(3 6.37103e-16 0)
(3 1.1312e-17 0)
(3 -6.21109e-16 0)
(3 -5.35289e-17 0)
(3 8.14704e-16 0)
(3 5.82743e-16 0)
(3 2.75471e-16 0)
(3 3.4288e-16 0)
(3 3.8791e-16 0)
(3 -2.63609e-16 0)
(3 -1.06963e-15 0)
(3 -1.24891e-15 0)
(3 -1.23453e-15 0)
(3 -1.271e-15 0)
(3 -1.606e-15 0)
(3 -1.05992e-15 0)
(3 -1.03436e-15 0)
(3 -1.10091e-15 0)
(3 -7.99449e-16 0)
(3 6.33052e-17 0)
(3 1.32174e-16 0)
(3 7.36652e-16 0)
(3 1.36715e-15 0)
(3 8.8775e-16 0)
(3 6.91584e-16 0)
(3 5.78314e-16 0)
(3 2.51419e-16 0)
(3 -1.03391e-16 0)
(3 6.25281e-17 0)
(3 4.12162e-16 0)
(3 7.99993e-16 0)
(3 8.34262e-16 0)
(3 2.98326e-16 0)
(3 -3.36096e-16 0)
(3 -4.77412e-16 0)
(3 4.06823e-17 0)
(3 5.06122e-16 0)
(3 6.11951e-16 0)
(3 4.09038e-16 0)
(3 -1.5335e-16 0)
(3 -1.62139e-15 0)
(3 1.90652e-17 0)
(3 -1.09785e-16 0)
(3 -4.65837e-16 0)
(3 -2.43618e-16 0)
(3 -4.01427e-16 0)
(3 -8.31426e-16 0)
(3 -1.21179e-15 0)
(3 -1.27509e-15 0)
(3 -1.05853e-15 0)
(3 -6.3644e-16 0)
(3 8.52131e-17 0)
(3 -1.2362e-16 0)
(3 -2.07198e-16 0)
(3 -1.86902e-16 0)
(3 4.01215e-17 0)
(3 -5.71897e-16 0)
(3 -8.73853e-16 0)
(3 -3.03501e-16 0)
(3 1.9312e-16 0)
(3 4.30138e-16 0)
(3 -2.8977e-17 0)
(3 5.79924e-16 0)
(3 9.48507e-16 0)
(3 1.04697e-15 0)
(3 1.26124e-15 0)
(3 1.45263e-15 0)
(3 1.30517e-15 0)
(3 1.04171e-15 0)
(3 9.48079e-16 0)
(3 1.29054e-15 0)
(3 2.16022e-15 0)
(3 2.71154e-15 0)
(3 2.22311e-15 0)
(3 1.8533e-15 0)
(3 2.13602e-15 0)
(3 2.24858e-15 0)
(3 2.40249e-15 0)
(3 2.90274e-15 0)
(3 3.09668e-15 0)
(3 2.82029e-15 0)
(3 2.39005e-15 0)
(3 2.21409e-15 0)
(3 2.3492e-15 0)
(3 1.64829e-15 0)
(3 1.6004e-15 0)
(3 1.68961e-15 0)
(3 1.80772e-15 0)
(3 1.53754e-15 0)
(3 1.34815e-15 0)
(3 1.06751e-15 0)
(3 1.03381e-15 0)
(3 3.43855e-16 0)
(3 -6.91477e-16 0)
(3 -9.95179e-16 0)
(3 -1.2256e-15 0)
(3 -1.08239e-15 0)
(3 5.49182e-17 0)
(3 4.23536e-16 0)
(3 7.73188e-16 0)
(3 8.65002e-16 0)
(3 -2.01851e-16 0)
(3 -1.25903e-16 0)
(3 4.37795e-16 0)
(3 5.29007e-16 0)
(3 -2.03031e-16 0)
(3 -6.95829e-16 0)
(3 -1.09325e-15 0)
(3 -7.12005e-16 0)
(3 1.37194e-18 0)
(3 2.10145e-16 0)
(3 1.02489e-16 0)
(3 7.66337e-16 0)
(3 2.05216e-16 0)
(3 -1.07685e-15 0)
(3 -1.08033e-15 0)
(3 -1.08247e-15 0)
(3 -5.20953e-16 0)
(3 -6.34434e-16 0)
(3 6.88268e-17 0)
(3 2.95324e-16 0)
(3 -7.31643e-18 0)
(3 -7.86397e-16 0)
(3 -8.71664e-16 0)
(3 -8.02566e-16 0)
(3 -3.33787e-16 0)
(3 -1.84372e-16 0)
(3 8.3619e-16 0)
(3 8.87402e-16 0)
(3 2.20385e-16 0)
(3 2.40588e-16 0)
(3 5.26566e-16 0)
(3 9.58342e-16 0)
(3 9.04166e-16 0)
(3 8.13898e-16 0)
(3 3.72763e-16 0)
(3 8.11995e-16 0)
(3 1.63568e-15 0)
(3 1.64717e-15 0)
(3 1.59017e-15 0)
(3 1.70222e-15 0)
(3 1.96743e-15 0)
(3 2.9485e-15 0)
(3 3.84808e-15 0)
(3 3.79889e-15 0)
(3 3.47898e-15 0)
(3 2.13224e-15 0)
(3 1.48776e-15 0)
(3 1.04601e-15 0)
(3 1.12601e-15 0)
(3 1.03836e-15 0)
(3 7.00782e-16 0)
(3 1.76009e-16 0)
(3 4.13505e-16 0)
(3 3.09377e-16 0)
(3 1.23392e-16 0)
(3 -1.80179e-16 0)
(3 -1.88163e-16 0)
(3 -5.34461e-16 0)
(3 -1.29234e-16 0)
(3 7.24562e-17 0)
(3 8.34878e-17 0)
(3 2.78629e-16 0)
(3 1.42771e-16 0)
(3 5.28244e-16 0)
(3 3.63702e-16 0)
(3 -1.30986e-16 0)
(3 -4.58876e-16 0)
(3 -3.54642e-16 0)
(3 -5.71828e-16 0)
(3 -3.67993e-16 0)
(3 2.52703e-16 0)
(3 1.31565e-16 0)
(3 -1.53442e-16 0)
(3 -3.15264e-16 0)
(3 2.44909e-16 0)
(3 -2.36947e-17 0)
(3 -8.90642e-16 0)
(3 -1.35493e-15 0)
(3 -1.0673e-15 0)
(3 -4.05854e-16 0)
(3 -3.8674e-18 0)
(3 -4.25356e-16 0)
(3 -9.69388e-16 0)
(3 -1.02484e-15 0)
(3 -7.22273e-16 0)
(3 -7.69607e-16 0)
(3 -6.53293e-16 0)
(3 -7.79064e-16 0)
(3 2.67702e-17 0)
(3 1.50822e-15 0)
(3 1.82661e-15 0)
(3 7.27903e-16 0)
(3 5.78558e-16 0)
(3 1.52269e-16 0)
(3 6.61458e-16 0)
(3 1.36454e-15 0)
(3 1.03233e-15 0)
(3 1.04448e-15 0)
(3 7.93123e-16 0)
(3 1.23965e-15 0)
(3 1.20971e-15 0)
(3 6.84681e-16 0)
(3 7.55183e-16 0)
(3 1.63735e-16 0)
(3 -4.04253e-16 0)
(3 -6.74089e-16 0)
(3 -7.1773e-16 0)
(3 -6.95027e-16 0)
(3 -7.03786e-16 0)
(3 -6.14817e-16 0)
(3 2.72947e-16 0)
(3 5.95933e-16 0)
(3 4.66213e-16 0)
(3 -5.14525e-16 0)
(3 4.28004e-16 0)
(3 9.47702e-16 0)
(3 1.38341e-15 0)
(3 6.24668e-16 0)
(3 6.1364e-17 0)
(3 -2.9234e-16 0)
(3 1.91244e-17 0)
(3 -6.62473e-16 0)
(3 -1.38545e-15 0)
(3 -1.3934e-15 0)
(3 -1.02034e-15 0)
(3 -1.06555e-15 0)
(3 -1.15708e-15 0)
(3 -1.79565e-16 0)
(3 -1.61927e-16 0)
(3 -7.6768e-16 0)
(3 -5.47372e-16 0)
(3 -9.43686e-16 0)
(3 -2.49683e-16 0)
(3 -3.1366e-16 0)
(3 -1.58995e-16 0)
(3 2.02752e-16 0)
(3 2.98722e-16 0)
(3 -5.54793e-16 0)
(3 -8.4201e-16 0)
(3 -1.29465e-15 0)
(3 -1.47825e-15 0)
(3 -1.3016e-15 0)
(3 -7.60725e-16 0)
(3 -3.45635e-16 0)
(3 -6.51271e-16 0)
(3 -9.6541e-16 0)
(3 -8.68941e-16 0)
(3 -5.64977e-16 0)
(3 -5.94892e-16 0)
(3 -4.05124e-16 0)
(3 -2.81354e-16 0)
(3 -1.9054e-16 0)
(3 -3.5297e-16 0)
(3 1.95123e-16 0)
(3 1.86462e-15 0)
(3 2.04513e-15 0)
(3 1.63488e-15 0)
(3 2.52528e-15 0)
(3 2.36428e-15 0)
(3 4.62875e-16 0)
(3 4.17529e-17 0)
(3 6.36536e-16 0)
(3 2.05876e-15 0)
(3 2.46665e-15 0)
(3 2.81393e-15 0)
(3 1.86538e-15 0)
(3 1.39547e-15 0)
(3 1.76782e-15 0)
(3 2.30673e-15 0)
(3 2.44986e-15 0)
(3 2.66995e-15 0)
(3 3.13154e-15 0)
(3 3.44669e-15 0)
(3 3.11466e-15 0)
(3 1.68705e-15 0)
(3 1.05759e-15 0)
(3 9.03629e-16 0)
(3 1.18859e-15 0)
(3 1.69782e-15 0)
(3 1.44106e-15 0)
(3 1.5931e-15 0)
(3 1.71652e-15 0)
(3 1.48796e-15 0)
(3 9.41176e-16 0)
(3 9.04024e-16 0)
(3 5.76352e-16 0)
(3 3.87782e-16 0)
(3 4.89049e-16 0)
(3 5.18555e-16 0)
(3 3.03385e-16 0)
(3 4.11433e-16 0)
(3 6.69368e-16 0)
(3 7.33251e-16 0)
(3 6.8353e-16 0)
(3 5.08037e-16 0)
(3 2.24594e-16 0)
(3 6.891e-16 0)
(3 9.4628e-16 0)
(3 6.02611e-16 0)
(3 -3.55791e-16 0)
(3 -2.53145e-16 0)
(3 9.14278e-16 0)
(3 7.2827e-16 0)
(3 3.60912e-17 0)
(3 -3.50979e-16 0)
(3 -9.70605e-16 0)
(3 -5.48239e-16 0)
(3 -1.8455e-16 0)
(3 -1.78211e-16 0)
(3 -3.04402e-16 0)
(3 -3.5636e-16 0)
(3 -6.71116e-16 0)
(3 -8.36762e-16 0)
(3 -5.18496e-16 0)
(3 -3.5992e-16 0)
(3 -4.66962e-16 0)
(3 -2.68021e-16 0)
(3 -3.30545e-16 0)
(3 -5.16987e-17 0)
(3 3.72233e-16 0)
(3 7.71334e-16 0)
(3 5.58091e-16 0)
(3 4.12409e-16 0)
(3 -2.09774e-17 0)
(3 2.15107e-16 0)
(3 1.11796e-15 0)
(3 1.1927e-15 0)
(3 1.44408e-15 0)
(3 1.90995e-15 0)
(3 2.25568e-15 0)
(3 2.62467e-15 0)
(3 2.2708e-15 0)
(3 1.76702e-15 0)
(3 2.42768e-15 0)
(3 2.34062e-15 0)
(3 2.30319e-15 0)
(3 9.995e-16 0)
(3 8.46395e-16 0)
(3 1.21467e-15 0)
(3 1.8059e-15 0)
(3 1.00881e-15 0)
(3 2.53552e-16 0)
(3 3.91567e-16 0)
(3 -6.28675e-16 0)
(3 -5.78301e-16 0)
(3 -1.06664e-15 0)
(3 -9.70139e-16 0)
(3 -7.76559e-16 0)
(3 -4.25616e-16 0)
(3 5.02684e-16 0)
(3 -5.91694e-16 0)
(3 -1.23447e-15 0)
(3 -1.09141e-15 0)
(3 -1.54051e-15 0)
(3 -1.39645e-15 0)
(3 -1.68706e-15 0)
(3 -7.47538e-16 0)
(3 -5.61682e-16 0)
(3 -2.61837e-16 0)
(3 -1.66498e-16 0)
(3 -2.53551e-16 0)
(3 -3.13912e-16 0)
(3 -1.02116e-16 0)
(3 -7.7169e-17 0)
(3 -1.1893e-16 0)
(3 3.6418e-17 0)
(3 -2.66455e-17 0)
(3 -4.21691e-17 0)
(3 -2.1587e-16 0)
(3 -1.25083e-15 0)
(3 -1.37561e-15 0)
(3 -5.17251e-16 0)
(3 -6.43645e-17 0)
(3 3.41819e-16 0)
(3 6.19534e-16 0)
(3 9.05248e-16 0)
(3 1.33194e-15 0)
(3 1.63407e-15 0)
(3 1.52437e-15 0)
(3 7.73788e-16 0)
(3 7.51069e-16 0)
(3 1.16325e-15 0)
(3 1.44445e-15 0)
(3 1.59624e-15 0)
(3 1.6935e-15 0)
(3 1.63298e-15 0)
(3 1.57643e-15 0)
(3 1.64813e-15 0)
(3 1.31703e-15 0)
(3 1.30262e-15 0)
(3 1.10945e-15 0)
(3 1.22155e-15 0)
(3 2.50585e-15 0)
(3 2.96788e-15 0)
(3 2.84243e-15 0)
(3 2.41727e-15 0)
(3 1.78006e-15 0)
(3 1.11028e-15 0)
(3 4.41703e-16 0)
(3 4.03146e-16 0)
(3 3.54926e-16 0)
(3 1.96321e-16 0)
(3 2.2595e-16 0)
(3 9.85626e-17 0)
(3 1.06366e-16 0)
(3 5.23526e-16 0)
(3 9.77306e-16 0)
(3 1.34052e-15 0)
(3 1.15162e-15 0)
(3 1.31786e-15 0)
(3 1.10829e-15 0)
(3 8.32065e-16 0)
(3 -3.70576e-16 0)
(3 -1.84549e-15 0)
(3 -2.17239e-15 0)
(3 -1.77392e-15 0)
(3 -1.11844e-15 0)
(3 -8.77093e-16 0)
(3 -1.66733e-15 0)
(3 -1.76766e-15 0)
(3 -1.92736e-15 0)
(3 -1.58555e-15 0)
(3 -3.20993e-16 0)
(3 -9.04101e-16 0)
(3 1.113e-16 0)
(3 1.06239e-16 0)
(3 5.63261e-17 0)
(3 -9.2364e-17 0)
(3 -4.38354e-17 0)
(3 -1.08101e-16 0)
(3 -2.08966e-16 0)
(3 -5.53422e-16 0)
(3 -6.26323e-16 0)
(3 -4.93294e-16 0)
(3 1.06014e-16 0)
(3 7.77201e-16 0)
(3 8.06018e-16 0)
(3 5.27438e-16 0)
(3 4.31859e-16 0)
(3 6.88408e-16 0)
(3 6.22888e-16 0)
(3 7.73902e-16 0)
(3 6.18213e-16 0)
(3 1.91835e-16 0)
(3 2.60165e-16 0)
(3 6.71488e-16 0)
(3 1.19645e-15 0)
(3 1.16353e-15 0)
(3 1.34821e-15 0)
(3 1.58922e-15 0)
(3 1.36558e-15 0)
(3 9.55098e-16 0)
(3 1.47897e-16 0)
(3 5.99852e-16 0)
(3 1.40416e-15 0)
(3 2.06816e-15 0)
(3 2.82549e-15 0)
(3 3.51239e-15 0)
(3 2.74029e-15 0)
(3 1.44091e-15 0)
(3 1.82002e-15 0)
(3 1.65874e-15 0)
(3 1.29005e-15 0)
(3 1.28083e-15 0)
(3 1.26613e-15 0)
(3 1.16037e-15 0)
(3 9.99407e-16 0)
(3 1.19419e-15 0)
(3 5.68266e-16 0)
(3 6.55093e-16 0)
(3 8.55417e-16 0)
(3 5.88487e-16 0)
(3 1.49099e-16 0)
(3 6.31267e-16 0)
(3 1.53848e-15 0)
(3 1.66868e-15 0)
(3 1.75756e-15 0)
(3 4.86133e-16 0)
(3 3.90842e-16 0)
(3 7.25491e-16 0)
(3 7.53187e-16 0)
(3 4.48524e-16 0)
(3 2.0924e-16 0)
(3 4.52811e-16 0)
(3 9.86674e-16 0)
(3 6.57673e-16 0)
(3 1.27786e-16 0)
(3 -2.8312e-16 0)
(3 -3.4649e-16 0)
(3 -2.07008e-16 0)
(3 2.17317e-16 0)
(3 4.56049e-16 0)
(3 3.46909e-16 0)
(3 -1.84454e-16 0)
(3 -5.31272e-16 0)
(3 -1.0727e-15 0)
(3 -1.29502e-15 0)
(3 -8.70234e-16 0)
(3 -4.54044e-16 0)
(3 -3.47226e-16 0)
(3 -3.3143e-16 0)
(3 3.57941e-16 0)
(3 2.85015e-16 0)
(3 -3.78765e-16 0)
(3 -4.28901e-16 0)
(3 -5.8589e-17 0)
(3 2.84803e-16 0)
(3 4.60779e-16 0)
(3 3.00383e-16 0)
(3 1.86483e-16 0)
(3 -8.97168e-17 0)
(3 -7.94624e-16 0)
(3 1.60098e-16 0)
(3 1.16192e-16 0)
(3 6.49242e-17 0)
(3 -2.91564e-16 0)
(3 1.19867e-16 0)
(3 9.04844e-16 0)
(3 2.15365e-15 0)
(3 2.13013e-15 0)
(3 2.15096e-15 0)
(3 2.41194e-15 0)
(3 2.53558e-15 0)
(3 2.12388e-15 0)
(3 1.34137e-15 0)
(3 1.53078e-15 0)
(3 1.66472e-16 0)
(3 2.75652e-16 0)
(3 2.87359e-16 0)
(3 2.84733e-16 0)
(3 3.22346e-16 0)
(3 3.46519e-16 0)
(3 8.03998e-17 0)
(3 -2.29356e-16 0)
(3 -1.11792e-15 0)
(3 -4.93606e-16 0)
(3 1.74347e-16 0)
(3 -1.31019e-19 0)
(3 -6.311e-16 0)
(3 -2.4752e-16 0)
(3 1.78549e-16 0)
(3 -1.03292e-16 0)
(3 -1.02456e-15 0)
(3 -2.04284e-15 0)
(3 -2.3797e-15 0)
(3 -2.35713e-15 0)
(3 -1.68793e-15 0)
(3 -1.19058e-15 0)
(3 -1.74928e-16 0)
(3 -7.04383e-16 0)
(3 -4.86051e-16 0)
(3 -2.61913e-16 0)
(3 -1.2201e-18 0)
(3 -4.97651e-16 0)
(3 -1.2674e-15 0)
(3 -1.3625e-15 0)
(3 -1.24667e-15 0)
(3 -8.79718e-16 0)
(3 -1.13127e-15 0)
(3 -1.02905e-15 0)
(3 -3.67032e-16 0)
(3 1.26306e-16 0)
(3 -1.06955e-15 0)
(3 -1.58192e-15 0)
(3 -1.18742e-15 0)
(3 5.34299e-16 0)
(3 1.65224e-15 0)
(3 1.97852e-15 0)
(3 2.04856e-15 0)
(3 2.98896e-15 0)
(3 2.73319e-15 0)
(3 2.30533e-15 0)
(3 2.1842e-15 0)
(3 2.3319e-15 0)
(3 2.17074e-15 0)
(3 2.56387e-15 0)
(3 1.81962e-15 0)
(3 8.00461e-16 0)
(3 6.20662e-16 0)
(3 8.84629e-16 0)
(3 8.42762e-16 0)
(3 2.42009e-17 0)
(3 1.887e-16 0)
(3 6.80994e-16 0)
(3 1.82748e-15 0)
(3 2.18151e-15 0)
(3 2.40424e-15 0)
(3 3.0395e-15 0)
(3 2.54382e-15 0)
(3 1.71573e-15 0)
(3 6.9423e-16 0)
(3 -6.24043e-17 0)
(3 -5.66643e-16 0)
(3 -7.31464e-16 0)
(3 -7.6632e-16 0)
(3 -4.38233e-17 0)
(3 2.48175e-16 0)
(3 6.37894e-16 0)
(3 7.32781e-16 0)
(3 1.11961e-15 0)
(3 9.20949e-16 0)
(3 1.24262e-15 0)
(3 1.60886e-15 0)
(3 1.0327e-15 0)
(3 -2.65371e-16 0)
(3 -4.9097e-16 0)
(3 -1.52712e-15 0)
(3 -1.54076e-15 0)
(3 -1.59469e-15 0)
(3 -2.5403e-15 0)
(3 -2.71548e-15 0)
(3 -2.67512e-15 0)
(3 -2.93029e-15 0)
(3 -1.70243e-15 0)
(3 -1.37e-15 0)
(3 -1.36776e-15 0)
(3 6.73082e-17 0)
(3 1.41681e-16 0)
(3 1.2858e-16 0)
(3 -2.30394e-16 0)
(3 -2.05773e-16 0)
(3 2.72155e-16 0)
(3 3.58932e-16 0)
(3 9.5249e-16 0)
(3 5.09797e-16 0)
(3 1.19005e-16 0)
(3 1.65528e-16 0)
(3 1.54922e-16 0)
(3 7.60094e-16 0)
(3 5.80887e-16 0)
(3 3.9583e-16 0)
(3 5.72468e-16 0)
(3 1.15793e-15 0)
(3 1.20247e-15 0)
(3 1.83066e-15 0)
(3 2.04362e-15 0)
(3 2.31712e-15 0)
(3 1.44156e-15 0)
(3 1.07991e-15 0)
(3 1.07919e-15 0)
(3 1.18997e-15 0)
(3 1.21719e-15 0)
(3 1.66292e-15 0)
(3 1.32023e-15 0)
(3 1.47844e-15 0)
(3 1.87968e-15 0)
(3 1.10281e-15 0)
(3 5.97369e-16 0)
(3 5.09946e-16 0)
(3 1.02112e-15 0)
(3 1.67797e-15 0)
(3 3.97552e-16 0)
(3 3.28648e-16 0)
(3 2.96126e-16 0)
(3 3.57407e-17 0)
(3 -4.22346e-18 0)
(3 1.15965e-16 0)
(3 1.40098e-16 0)
(3 8.3272e-16 0)
(3 1.38663e-15 0)
(3 1.69082e-15 0)
(3 7.86294e-16 0)
(3 9.91929e-17 0)
(3 6.85718e-16 0)
(3 9.9079e-16 0)
(3 -9.17982e-17 0)
(3 -7.33117e-16 0)
(3 -6.70583e-16 0)
(3 -2.95051e-16 0)
(3 1.57536e-16 0)
(3 3.11325e-16 0)
(3 1.4797e-16 0)
(3 -4.72219e-16 0)
(3 -4.95799e-16 0)
(3 -2.12889e-16 0)
(3 -2.5613e-16 0)
(3 -9.58348e-16 0)
(3 -9.74971e-16 0)
(3 -1.82963e-15 0)
(3 -1.89957e-15 0)
(3 -1.47095e-15 0)
(3 -1.74327e-15 0)
(3 -3.62766e-16 0)
(3 1.10199e-16 0)
(3 9.1036e-16 0)
(3 4.86524e-16 0)
(3 -4.96327e-16 0)
(3 -1.09699e-15 0)
(3 -1.57093e-15 0)
(3 -1.05392e-15 0)
(3 -1.03505e-15 0)
(3 -9.33134e-16 0)
(3 -8.93189e-16 0)
(3 -9.48088e-16 0)
(3 -3.6384e-16 0)
(3 4.92509e-16 0)
(3 7.22295e-16 0)
(3 5.81138e-16 0)
(3 7.02504e-16 0)
(3 1.97569e-16 0)
(3 8.58044e-16 0)
(3 1.11076e-15 0)
(3 7.29135e-16 0)
(3 3.05522e-16 0)
(3 1.74841e-16 0)
(3 -1.23586e-16 0)
(3 -1.15714e-16 0)
(3 1.56374e-16 0)
(3 6.49686e-16 0)
(3 1.58088e-15 0)
(3 2.61984e-15 0)
(3 2.54106e-15 0)
(3 1.79669e-15 0)
(3 1.62305e-15 0)
(3 1.9373e-15 0)
(3 1.34577e-15 0)
(3 1.11338e-15 0)
(3 8.27412e-16 0)
(3 -2.16842e-16 0)
(3 -1.81964e-17 0)
(3 -4.85382e-16 0)
(3 -7.18206e-16 0)
(3 -5.19211e-16 0)
(3 -3.63304e-16 0)
(3 7.24018e-18 0)
(3 5.15934e-16 0)
(3 5.78007e-16 0)
(3 3.54825e-16 0)
(3 8.71522e-16 0)
(3 1.71426e-15 0)
(3 1.53296e-15 0)
(3 1.488e-15 0)
(3 1.18324e-15 0)
(3 3.86473e-16 0)
(3 -7.23152e-16 0)
(3 -1.51002e-15 0)
(3 -2.02351e-15 0)
(3 -1.73703e-15 0)
(3 -1.48133e-15 0)
(3 -1.31078e-15 0)
(3 -6.31438e-16 0)
(3 -8.019e-16 0)
(3 -1.18584e-15 0)
(3 -9.04504e-16 0)
(3 -9.30936e-16 0)
(3 -1.25688e-15 0)
(3 -1.99313e-15 0)
(3 -2.2734e-15 0)
(3 -1.6403e-15 0)
(3 -1.5702e-15 0)
(3 -1.44276e-15 0)
(3 -1.37622e-15 0)
(3 -8.2854e-16 0)
(3 7.2025e-17 0)
(3 2.94979e-16 0)
(3 -3.3403e-16 0)
(3 -8.57003e-16 0)
(3 -3.6355e-16 0)
(3 5.14741e-16 0)
(3 5.04788e-16 0)
(3 2.04615e-15 0)
(3 2.43051e-15 0)
(3 1.81818e-15 0)
(3 1.97984e-15 0)
(3 3.06081e-15 0)
(3 3.21909e-15 0)
(3 3.12339e-15 0)
(3 2.41173e-15 0)
(3 1.51261e-15 0)
(3 7.93341e-16 0)
(3 -1.751e-16 0)
(3 6.43955e-17 0)
(3 3.52261e-16 0)
(3 1.99246e-18 0)
(3 7.76096e-16 0)
(3 1.94302e-15 0)
(3 2.65269e-15 0)
(3 3.1861e-15 0)
(3 2.99172e-15 0)
(3 1.10663e-15 0)
(3 4.99945e-16 0)
(3 6.03415e-16 0)
(3 3.9435e-16 0)
(3 5.49816e-16 0)
(3 4.62217e-16 0)
(3 1.60764e-16 0)
(3 1.41401e-16 0)
(3 9.54799e-16 0)
(3 5.76119e-16 0)
(3 2.77005e-16 0)
(3 -2.92272e-17 0)
(3 -2.45202e-16 0)
(3 1.24138e-15 0)
(3 2.01806e-15 0)
(3 1.48269e-15 0)
(3 8.05575e-16 0)
(3 -3.7367e-16 0)
(3 -5.0016e-16 0)
(3 -7.55538e-16 0)
(3 -1.4328e-15 0)
(3 -1.87125e-15 0)
(3 -2.75933e-15 0)
(3 -3.15122e-15 0)
(3 -3.18579e-15 0)
(3 -2.75184e-15 0)
(3 -2.37389e-15 0)
(3 -1.92408e-15 0)
(3 -1.71127e-15 0)
(3 2.39264e-16 0)
(3 2.4872e-16 0)
(3 3.08206e-16 0)
(3 2.57831e-16 0)
(3 1.09795e-16 0)
(3 5.20174e-16 0)
(3 8.85045e-16 0)
(3 1.03178e-15 0)
(3 1.02683e-15 0)
(3 2.39812e-16 0)
(3 -4.65032e-17 0)
(3 -8.37648e-16 0)
(3 -1.34717e-15 0)
(3 -2.56594e-16 0)
(3 1.41574e-16 0)
(3 9.72329e-16 0)
(3 1.8623e-15 0)
(3 1.39653e-15 0)
(3 1.54268e-15 0)
(3 2.59074e-15 0)
(3 2.85378e-15 0)
(3 3.11519e-15 0)
(3 1.32676e-15 0)
(3 -4.91786e-16 0)
(3 -5.41851e-16 0)
(3 6.79366e-16 0)
(3 9.95555e-16 0)
(3 8.71661e-16 0)
(3 1.87864e-15 0)
(3 2.37675e-15 0)
(3 8.38954e-16 0)
(3 -7.71803e-16 0)
(3 -8.62e-16 0)
(3 -1.23537e-15 0)
(3 -7.8072e-16 0)
(3 -1.3719e-16 0)
(3 -8.29778e-16 0)
(3 -1.05943e-15 0)
(3 -6.72213e-16 0)
(3 4.94429e-17 0)
(3 7.14675e-16 0)
(3 1.44123e-15 0)
(3 2.07464e-15 0)
(3 2.26947e-15 0)
(3 1.78427e-15 0)
(3 6.98289e-16 0)
(3 5.2013e-16 0)
(3 1.40296e-15 0)
(3 1.31898e-15 0)
(3 7.58144e-16 0)
(3 1.48659e-16 0)
(3 -1.83968e-16 0)
(3 1.12552e-16 0)
(3 1.36927e-15 0)
(3 1.0233e-15 0)
(3 1.65001e-16 0)
(3 -6.89407e-16 0)
(3 -3.80267e-16 0)
(3 -4.8119e-16 0)
(3 -6.22587e-16 0)
(3 -4.49673e-16 0)
(3 -2.23334e-16 0)
(3 -1.14195e-15 0)
(3 -1.94322e-15 0)
(3 -2.24652e-15 0)
(3 -1.4132e-15 0)
(3 -4.0077e-16 0)
(3 -7.06905e-17 0)
(3 3.36331e-16 0)
(3 -5.35928e-16 0)
(3 -7.96602e-16 0)
(3 -4.00139e-16 0)
(3 -7.21077e-16 0)
(3 -1.44446e-15 0)
(3 -1.94302e-15 0)
(3 -1.54989e-15 0)
(3 -3.81459e-16 0)
(3 -8.74295e-17 0)
(3 3.94245e-16 0)
(3 5.90196e-16 0)
(3 6.24055e-16 0)
(3 1.00292e-15 0)
(3 8.51762e-16 0)
(3 5.00381e-16 0)
(3 6.21356e-16 0)
(3 9.28097e-16 0)
(3 3.17738e-16 0)
(3 2.71772e-16 0)
(3 2.0762e-16 0)
(3 2.62292e-16 0)
(3 5.73148e-16 0)
(3 2.89503e-16 0)
(3 1.71812e-16 0)
(3 6.76339e-16 0)
(3 1.61291e-15 0)
(3 2.20778e-15 0)
(3 2.38977e-15 0)
(3 2.51171e-15 0)
(3 2.06269e-15 0)
(3 1.28993e-15 0)
(3 1.26087e-16 0)
(3 -1.34727e-16 0)
(3 -3.05478e-16 0)
(3 -5.53605e-16 0)
(3 -6.17568e-16 0)
(3 -4.06121e-16 0)
(3 4.12939e-17 0)
(3 7.32856e-16 0)
(3 1.01356e-15 0)
(3 1.32635e-15 0)
(3 1.12147e-15 0)
(3 9.64246e-16 0)
(3 1.12755e-15 0)
(3 1.47078e-15 0)
(3 1.39579e-15 0)
(3 1.0953e-15 0)
(3 7.2944e-16 0)
(3 5.41705e-16 0)
(3 -2.7663e-18 0)
(3 -6.21547e-16 0)
(3 -9.35202e-16 0)
(3 -1.03127e-15 0)
(3 -1.66865e-15 0)
(3 -1.39155e-15 0)
(3 -1.40366e-15 0)
(3 -2.41182e-16 0)
(3 -1.04286e-15 0)
(3 -1.48181e-15 0)
(3 -1.4928e-15 0)
(3 -1.41806e-15 0)
(3 -1.29098e-15 0)
(3 -1.30045e-15 0)
(3 -1.03945e-15 0)
(3 1.09309e-16 0)
(3 -2.53404e-16 0)
(3 -6.76119e-16 0)
(3 8.01294e-17 0)
(3 8.44922e-16 0)
(3 1.31995e-15 0)
(3 1.15545e-15 0)
(3 1.12107e-15 0)
(3 8.1668e-16 0)
(3 -1.37731e-16 0)
(3 -3.97594e-16 0)
(3 1.53226e-16 0)
(3 5.14654e-16 0)
(3 7.96266e-16 0)
(3 1.82855e-15 0)
(3 2.29681e-15 0)
(3 2.1726e-15 0)
(3 1.84176e-15 0)
(3 3.32803e-16 0)
(3 -9.85269e-17 0)
(3 4.70529e-16 0)
(3 8.53721e-16 0)
(3 -3.22651e-17 0)
(3 5.64414e-16 0)
(3 1.31117e-15 0)
(3 2.15391e-15 0)
(3 2.7321e-15 0)
(3 2.73755e-15 0)
(3 3.16853e-15 0)
(3 2.84487e-15 0)
(3 1.08623e-15 0)
(3 5.16824e-16 0)
(3 5.34945e-16 0)
(3 4.79403e-16 0)
(3 1.00464e-15 0)
(3 1.84169e-15 0)
(3 1.91258e-15 0)
(3 1.49091e-15 0)
(3 1.29948e-15 0)
(3 1.57578e-15 0)
(3 1.51832e-15 0)
(3 9.23913e-16 0)
(3 5.30495e-16 0)
(3 4.11285e-16 0)
(3 5.0104e-16 0)
(3 -5.34365e-16 0)
(3 -3.14869e-16 0)
(3 -3.15262e-16 0)
(3 -4.98024e-16 0)
(3 -1.64763e-15 0)
(3 -2.73496e-15 0)
(3 -2.61085e-15 0)
(3 -2.30119e-15 0)
(3 -2.32165e-15 0)
(3 -2.39197e-15 0)
(3 -2.48338e-15 0)
(3 -2.99758e-15 0)
(3 -2.98105e-15 0)
(3 -2.35736e-15 0)
(3 1.28859e-16 0)
(3 1.19969e-16 0)
(3 -2.0291e-17 0)
(3 -1.98508e-16 0)
(3 -5.76759e-17 0)
(3 3.52613e-17 0)
(3 3.00545e-16 0)
(3 1.27021e-16 0)
(3 1.36815e-15 0)
(3 1.4344e-15 0)
(3 1.04208e-15 0)
(3 5.09433e-16 0)
(3 -9.41052e-16 0)
(3 -6.47389e-16 0)
(3 6.48561e-16 0)
(3 1.22693e-15 0)
(3 7.67954e-16 0)
(3 1.50695e-16 0)
(3 1.14133e-16 0)
(3 9.02621e-16 0)
(3 1.61002e-15 0)
(3 1.82302e-15 0)
(3 1.26893e-15 0)
(3 9.21814e-16 0)
(3 4.1876e-16 0)
(3 -4.24406e-18 0)
(3 9.19011e-16 0)
(3 1.70392e-15 0)
(3 1.70772e-15 0)
(3 1.58521e-15 0)
(3 -5.63187e-17 0)
(3 -1.32427e-15 0)
(3 -1.92778e-15 0)
(3 -2.12224e-15 0)
(3 -2.17008e-15 0)
(3 -9.46495e-16 0)
(3 -5.24393e-16 0)
(3 -5.24428e-16 0)
(3 -6.19173e-16 0)
(3 -2.0671e-16 0)
(3 7.65127e-16 0)
(3 1.96066e-15 0)
(3 1.9135e-15 0)
(3 1.16214e-15 0)
(3 3.08639e-16 0)
(3 3.68305e-16 0)
(3 4.28929e-16 0)
(3 4.61484e-16 0)
(3 8.35317e-16 0)
(3 1.25126e-15 0)
(3 1.15572e-15 0)
(3 1.12798e-15 0)
(3 1.49317e-15 0)
(3 7.54121e-16 0)
(3 3.77459e-16 0)
(3 9.0378e-16 0)
(3 1.15064e-15 0)
(3 5.41449e-16 0)
(3 -2.25063e-16 0)
(3 -4.19299e-16 0)
(3 -2.77606e-16 0)
(3 -2.97197e-16 0)
(3 -1.67701e-16 0)
(3 -2.46465e-16 0)
(3 -1.10214e-15 0)
(3 -1.12779e-15 0)
(3 -1.75808e-15 0)
(3 -1.83313e-15 0)
(3 -1.47251e-15 0)
(3 -1.87516e-15 0)
(3 -1.86911e-15 0)
(3 -1.84693e-15 0)
(3 -1.31703e-15 0)
(3 -1.11625e-15 0)
(3 -1.4894e-15 0)
(3 -1.65369e-15 0)
(3 -1.35986e-15 0)
(3 -1.31101e-15 0)
(3 -1.19805e-15 0)
(3 2.12873e-16 0)
(3 6.18313e-16 0)
(3 3.8113e-16 0)
(3 3.3656e-16 0)
(3 5.67494e-16 0)
(3 6.23081e-16 0)
(3 -3.64825e-16 0)
(3 -3.1453e-16 0)
(3 3.53048e-16 0)
(3 3.10903e-16 0)
(3 7.70432e-16 0)
(3 8.42233e-16 0)
(3 7.60854e-16 0)
(3 1.11654e-15 0)
(3 1.53141e-15 0)
(3 2.05311e-15 0)
(3 2.34151e-15 0)
(3 2.67021e-15 0)
(3 2.31598e-15 0)
(3 1.82823e-15 0)
(3 8.07154e-16 0)
(3 -5.99949e-16 0)
(3 -9.49177e-16 0)
(3 -6.64996e-16 0)
(3 -4.2841e-16 0)
(3 1.47605e-16 0)
(3 3.48784e-16 0)
(3 8.78437e-17 0)
(3 -1.65872e-16 0)
(3 9.74839e-17 0)
(3 -1.34798e-16 0)
(3 -1.39397e-16 0)
(3 -3.61402e-18 0)
(3 -3.91928e-16 0)
(3 -4.96879e-16 0)
(3 -3.98047e-16 0)
(3 -1.24571e-16 0)
(3 -3.65134e-16 0)
(3 -1.31346e-16 0)
(3 -1.9358e-16 0)
(3 -7.10234e-17 0)
(3 -3.29438e-16 0)
(3 -6.32942e-16 0)
(3 -1.16183e-15 0)
(3 -7.69452e-16 0)
(3 -1.38456e-15 0)
(3 -1.56834e-15 0)
(3 -1.73452e-15 0)
(3 -2.30619e-15 0)
(3 -2.24977e-15 0)
(3 -1.47163e-15 0)
(3 -3.11308e-16 0)
(3 5.33336e-16 0)
(3 7.49301e-16 0)
(3 9.8232e-16 0)
(3 8.44242e-16 0)
(3 8.07148e-16 0)
(3 7.22805e-16 0)
(3 4.59527e-16 0)
(3 4.05391e-16 0)
(3 1.13608e-15 0)
(3 1.75994e-15 0)
(3 1.27942e-15 0)
(3 -1.19512e-16 0)
(3 -8.15756e-16 0)
(3 -3.26279e-16 0)
(3 5.55111e-16 0)
(3 2.85565e-15 0)
(3 2.65935e-15 0)
(3 1.36424e-15 0)
(3 1.32312e-15 0)
(3 1.20405e-15 0)
(3 -6.63141e-16 0)
(3 -1.2081e-15 0)
(3 3.96507e-16 0)
(3 1.69627e-15 0)
(3 1.47165e-15 0)
(3 2.09787e-15 0)
(3 2.5857e-15 0)
(3 2.27646e-15 0)
(3 1.88753e-15 0)
(3 1.00437e-15 0)
(3 1.90484e-16 0)
(3 6.52539e-17 0)
(3 1.33361e-15 0)
(3 1.73909e-15 0)
(3 2.64071e-15 0)
(3 2.72065e-15 0)
(3 2.02206e-15 0)
(3 1.94029e-15 0)
(3 1.83253e-15 0)
(3 1.4043e-15 0)
(3 1.08135e-15 0)
(3 1.19191e-15 0)
(3 1.03586e-15 0)
(3 1.20036e-15 0)
(3 1.0085e-16 0)
(3 -7.45884e-16 0)
(3 -1.99628e-15 0)
(3 -1.54854e-15 0)
(3 -6.60385e-16 0)
(3 -2.53335e-16 0)
(3 9.19749e-17 0)
(3 -1.18554e-15 0)
(3 -2.35447e-15 0)
(3 -1.83363e-15 0)
(3 -1.4503e-15 0)
(3 -1.65972e-15 0)
(3 -1.85906e-15 0)
(3 -1.98362e-15 0)
(3 -2.18868e-15 0)
(3 -2.23776e-15 0)
(3 -1.95026e-15 0)
(3 -2.38277e-16 0)
(3 -2.24742e-16 0)
(3 7.87084e-17 0)
(3 8.32456e-17 0)
(3 -1.98388e-17 0)
(3 5.6218e-17 0)
(3 2.62571e-17 0)
(3 5.19901e-16 0)
(3 7.20121e-16 0)
(3 9.80095e-16 0)
(3 5.59113e-16 0)
(3 -1.62587e-16 0)
(3 5.03425e-17 0)
(3 4.01639e-17 0)
(3 -6.60913e-16 0)
(3 -9.19089e-16 0)
(3 -1.0265e-15 0)
(3 -8.75073e-16 0)
(3 -5.70537e-16 0)
(3 -5.1281e-16 0)
(3 -9.62399e-17 0)
(3 -5.14445e-16 0)
(3 -3.97402e-16 0)
(3 6.35604e-17 0)
(3 2.14643e-16 0)
(3 -5.50604e-16 0)
(3 1.72602e-16 0)
(3 1.71405e-15 0)
(3 2.08578e-15 0)
(3 1.22895e-15 0)
(3 2.46201e-16 0)
(3 -1.05303e-15 0)
(3 -1.3562e-15 0)
(3 -1.40241e-15 0)
(3 -5.56495e-16 0)
(3 -1.4631e-16 0)
(3 3.1906e-16 0)
(3 7.17616e-16 0)
(3 9.02121e-16 0)
(3 1.59231e-15 0)
(3 2.20597e-15 0)
(3 1.68784e-15 0)
(3 7.75171e-16 0)
(3 7.57586e-16 0)
(3 4.37294e-16 0)
(3 1.0881e-15 0)
(3 1.82483e-15 0)
(3 7.29651e-16 0)
(3 2.28834e-16 0)
(3 4.01579e-16 0)
(3 1.27465e-15 0)
(3 1.19366e-15 0)
(3 8.56511e-16 0)
(3 8.02268e-16 0)
(3 7.31038e-16 0)
(3 6.60094e-16 0)
(3 9.63131e-16 0)
(3 3.11669e-16 0)
(3 1.49576e-16 0)
(3 -2.37745e-16 0)
(3 -6.97384e-17 0)
(3 3.8045e-16 0)
(3 3.08361e-16 0)
(3 3.6383e-16 0)
(3 -4.89485e-16 0)
(3 -1.95359e-15 0)
(3 -1.99836e-15 0)
(3 -1.32009e-15 0)
(3 -1.09862e-15 0)
(3 -6.4057e-16 0)
(3 -7.73641e-16 0)
(3 -1.1518e-15 0)
(3 -1.03857e-15 0)
(3 -6.09796e-16 0)
(3 3.67919e-17 0)
(3 -7.85903e-16 0)
(3 -2.17071e-15 0)
(3 -2.44103e-15 0)
(3 -2.42659e-15 0)
(3 -1.52987e-15 0)
(3 -3.77575e-16 0)
(3 -2.35915e-16 0)
(3 2.57345e-16 0)
(3 -4.78162e-16 0)
(3 -1.32133e-15 0)
(3 -1.78689e-15 0)
(3 -1.37521e-15 0)
(3 -7.05244e-16 0)
(3 -7.50504e-16 0)
(3 -5.70528e-16 0)
(3 -5.4378e-18 0)
(3 6.7707e-16 0)
(3 2.44229e-15 0)
(3 2.93307e-15 0)
(3 2.67155e-15 0)
(3 2.41615e-15 0)
(3 2.08192e-15 0)
(3 1.51963e-15 0)
(3 1.82709e-15 0)
(3 1.22139e-15 0)
(3 -9.08759e-17 0)
(3 -1.29188e-15 0)
(3 -1.62301e-15 0)
(3 -1.05471e-15 0)
(3 -5.5684e-16 0)
(3 -5.5689e-16 0)
(3 -7.60383e-16 0)
(3 -6.5068e-16 0)
(3 -5.19887e-16 0)
(3 -8.87065e-16 0)
(3 -5.89065e-16 0)
(3 9.20161e-17 0)
(3 7.79087e-17 0)
(3 -5.37618e-16 0)
(3 -6.041e-16 0)
(3 -4.82473e-16 0)
(3 7.91937e-18 0)
(3 3.16539e-16 0)
(3 1.12035e-15 0)
(3 1.25086e-15 0)
(3 1.15801e-15 0)
(3 1.8195e-16 0)
(3 -6.03892e-16 0)
(3 -1.58577e-15 0)
(3 -2.00222e-15 0)
(3 -2.90972e-15 0)
(3 -2.65569e-15 0)
(3 -2.54999e-15 0)
(3 -2.54012e-15 0)
(3 -1.63265e-15 0)
(3 -1.07927e-15 0)
(3 2.43941e-16 0)
(3 9.72639e-16 0)
(3 9.91471e-16 0)
(3 1.08949e-15 0)
(3 1.31244e-15 0)
(3 8.7526e-16 0)
(3 3.41063e-16 0)
(3 3.81338e-16 0)
(3 6.80737e-16 0)
(3 5.16735e-16 0)
(3 -1.24892e-16 0)
(3 -5.39491e-16 0)
(3 -3.46773e-16 0)
(3 1.31422e-15 0)
(3 1.45891e-15 0)
(3 1.93376e-15 0)
(3 1.60111e-15 0)
(3 4.89089e-16 0)
(3 -5.42838e-17 0)
(3 1.81215e-16 0)
(3 5.99863e-16 0)
(3 3.72363e-16 0)
(3 6.24213e-16 0)
(3 6.64794e-16 0)
(3 2.09132e-15 0)
(3 2.54556e-15 0)
(3 2.65136e-15 0)
(3 1.53602e-15 0)
(3 6.73457e-16 0)
(3 -4.81496e-16 0)
(3 -6.88277e-16 0)
(3 -8.37344e-17 0)
(3 7.99568e-16 0)
(3 2.34545e-15 0)
(3 3.21037e-15 0)
(3 2.91768e-15 0)
(3 1.92697e-15 0)
(3 1.80374e-15 0)
(3 2.04405e-15 0)
(3 1.95916e-15 0)
(3 1.75628e-15 0)
(3 1.43213e-15 0)
(3 6.10317e-16 0)
(3 -7.70798e-16 0)
(3 -1.48469e-15 0)
(3 -1.90776e-15 0)
(3 -2.17176e-15 0)
(3 -2.10015e-15 0)
(3 -1.74157e-15 0)
(3 -1.18031e-15 0)
(3 -8.31665e-16 0)
(3 -6.15114e-16 0)
(3 -5.919e-16 0)
(3 -9.89929e-16 0)
(3 -1.24539e-15 0)
(3 -1.7347e-15 0)
(3 -1.94174e-15 0)
(3 -1.72075e-15 0)
(3 -1.37106e-15 0)
(3 -9.92184e-16 0)
(3 -1.09129e-15 0)
(3 -1.28214e-17 0)
(3 -2.26461e-17 0)
(3 4.64761e-17 0)
(3 1.50882e-16 0)
(3 6.4833e-17 0)
(3 3.13428e-16 0)
(3 2.89918e-16 0)
(3 7.40853e-17 0)
(3 -8.52493e-17 0)
(3 -1.0118e-16 0)
(3 -7.92379e-16 0)
(3 -1.27239e-15 0)
(3 -1.21277e-15 0)
(3 -1.00909e-15 0)
(3 -1.02056e-15 0)
(3 -1.44067e-15 0)
(3 -1.02994e-15 0)
(3 9.8304e-17 0)
(3 2.45865e-16 0)
(3 1.88725e-16 0)
(3 2.38402e-16 0)
(3 9.75486e-17 0)
(3 -1.34601e-16 0)
(3 -2.75562e-16 0)
(3 -1.20975e-16 0)
(3 8.13792e-17 0)
(3 -1.83779e-16 0)
(3 7.59102e-16 0)
(3 1.09178e-15 0)
(3 6.51047e-16 0)
(3 1.03844e-15 0)
(3 5.38779e-16 0)
(3 1.43818e-16 0)
(3 5.57611e-16 0)
(3 3.68925e-16 0)
(3 -1.37997e-16 0)
(3 -5.04391e-17 0)
(3 -5.42324e-16 0)
(3 -2.95531e-16 0)
(3 3.22314e-16 0)
(3 -1.22805e-16 0)
(3 -2.66158e-16 0)
(3 -1.63716e-16 0)
(3 6.69414e-16 0)
(3 2.13303e-15 0)
(3 2.79531e-15 0)
(3 2.59681e-15 0)
(3 1.08999e-15 0)
(3 6.14116e-16 0)
(3 2.63969e-16 0)
(3 2.44373e-16 0)
(3 -2.96488e-16 0)
(3 -2.05603e-16 0)
(3 3.12661e-16 0)
(3 4.5516e-16 0)
(3 1.04684e-16 0)
(3 9.1501e-17 0)
(3 5.69002e-16 0)
(3 2.55655e-16 0)
(3 -1.93244e-16 0)
(3 -1.7184e-16 0)
(3 1.70572e-17 0)
(3 -1.39666e-16 0)
(3 -2.09078e-16 0)
(3 -5.9091e-16 0)
(3 -1.46862e-15 0)
(3 -8.82346e-16 0)
(3 -5.6883e-16 0)
(3 -5.7247e-16 0)
(3 5.38394e-16 0)
(3 4.51952e-16 0)
(3 3.42724e-16 0)
(3 -2.34077e-16 0)
(3 -2.17922e-16 0)
(3 -9.90491e-17 0)
(3 -4.59518e-17 0)
(3 -1.20132e-15 0)
(3 -2.93087e-15 0)
(3 -3.24e-15 0)
(3 -3.17308e-15 0)
(3 -1.89094e-15 0)
(3 -5.94948e-16 0)
(3 -4.50499e-16 0)
(3 -7.30609e-16 0)
(3 -8.75578e-16 0)
(3 -9.59324e-16 0)
(3 -1.16825e-15 0)
(3 -1.47615e-15 0)
(3 -1.56194e-15 0)
(3 -1.54998e-15 0)
(3 -4.99705e-16 0)
(3 1.44702e-15 0)
(3 1.98885e-15 0)
(3 2.03074e-15 0)
(3 1.64613e-15 0)
(3 2.18939e-15 0)
(3 2.28366e-15 0)
(3 2.11622e-15 0)
(3 1.75226e-15 0)
(3 1.07404e-15 0)
(3 1.06818e-16 0)
(3 -1.72613e-15 0)
(3 -2.96797e-15 0)
(3 -2.81115e-15 0)
(3 -2.87965e-15 0)
(3 -2.65195e-15 0)
(3 -2.13635e-15 0)
(3 -1.99804e-15 0)
(3 -1.77057e-15 0)
(3 -1.31547e-15 0)
(3 -6.22942e-16 0)
(3 2.72685e-16 0)
(3 7.56013e-16 0)
(3 6.11333e-16 0)
(3 5.96643e-16 0)
(3 5.25623e-16 0)
(3 7.02753e-16 0)
(3 1.03823e-15 0)
(3 2.01653e-15 0)
(3 2.28382e-15 0)
(3 1.5161e-15 0)
(3 3.54839e-16 0)
(3 -1.35735e-15 0)
(3 -2.78429e-15 0)
(3 -2.82747e-15 0)
(3 -3.21174e-15 0)
(3 -2.0782e-15 0)
(3 -1.26455e-15 0)
(3 -9.14727e-16 0)
(3 -9.35665e-16 0)
(3 -5.23728e-16 0)
(3 -2.34885e-16 0)
(3 -5.00813e-16 0)
(3 2.7955e-16 0)
(3 -1.38468e-16 0)
(3 5.05733e-18 0)
(3 -1.93793e-17 0)
(3 7.06364e-16 0)
(3 1.67726e-15 0)
(3 4.72644e-16 0)
(3 -3.77949e-16 0)
(3 -6.62516e-16 0)
(3 1.12747e-17 0)
(3 1.03845e-15 0)
(3 1.37975e-15 0)
(3 2.01252e-15 0)
(3 2.35193e-15 0)
(3 2.61239e-15 0)
(3 1.29038e-15 0)
(3 4.18333e-16 0)
(3 2.20672e-16 0)
(3 1.19374e-15 0)
(3 1.20362e-15 0)
(3 7.03744e-16 0)
(3 6.06141e-16 0)
(3 1.64916e-15 0)
(3 1.7646e-15 0)
(3 1.37336e-15 0)
(3 1.17189e-15 0)
(3 2.40662e-16 0)
(3 -1.85894e-15 0)
(3 -2.63603e-15 0)
(3 -2.1929e-15 0)
(3 -7.43547e-16 0)
(3 9.24945e-16 0)
(3 1.51666e-15 0)
(3 1.86938e-15 0)
(3 1.56377e-15 0)
(3 1.25507e-15 0)
(3 1.7621e-15 0)
(3 1.81864e-15 0)
(3 1.33435e-15 0)
(3 1.69277e-15 0)
(3 4.38841e-16 0)
(3 -7.83258e-16 0)
(3 -1.90836e-15 0)
(3 -3.32808e-15 0)
(3 -3.42817e-15 0)
(3 -1.99181e-15 0)
(3 -1.73233e-15 0)
(3 -1.72522e-15 0)
(3 -1.9144e-15 0)
(3 -6.84875e-16 0)
(3 -2.71628e-16 0)
(3 -9.537e-16 0)
(3 -2.22049e-15 0)
(3 -2.60964e-15 0)
(3 -2.69837e-15 0)
(3 -2.2343e-15 0)
(3 -1.05512e-15 0)
(3 -3.40585e-16 0)
(3 -7.62247e-18 0)
(3 9.9205e-17 0)