/*--------------------------------*- C++ -*----------------------------------*\
  =========                 |
  \\      /  F ield         | OpenFOAM: The Open Source CFD Toolbox
   \\    /   O peration     | Website:  https://openfoam.org
    \\  /    A nd           | Version:  7
     \\/     M anipulation  |
\*---------------------------------------------------------------------------*/
FoamFile
{
    version     2.0;
    format      ascii;
    class       volScalarField;
    location    "0.9";
    object      p;
}
// * * * * * * * * * * * * * * * * * * * * * * * * * * * * * * * * * * * * * //

dimensions      [1 -1 -2 0 0 0 0];

internalField   nonuniform List<scalar> 
16192
(
0.804772
0.815657
0.831097
0.838516
0.839067
0.837987
0.831319
0.818884
0.81064
0.808825
0.808406
0.808049
0.807906
0.808617
0.810588
0.813775
0.8153
0.814469
0.812764
0.811155
0.809883
0.808576
0.807543
0.808238
0.812747
0.818276
0.818592
0.816716
0.814266
0.811701
0.81004
0.80849
0.80728
0.807219
0.807166
0.806436
0.805956
0.806996
0.812489
0.82678
0.83623
0.835325
0.833645
0.832136
0.830059
0.82638
0.821622
0.819446
0.819004
0.818876
0.819701
0.822556
0.827237
0.832006
0.833214
0.832836
0.83079
0.826433
0.823245
0.823331
0.824409
0.826777
0.830171
0.833905
0.838939
0.84769
0.857083
0.860482
0.859664
0.857231
0.853766
0.845391
0.838346
0.83759
0.837689
0.838
0.840049
0.846818
0.854928
0.856981
0.857483
0.857563
0.853885
0.85107
0.851555
0.851347
0.850463
0.850448
0.85146
0.851649
0.8542
0.862535
0.867757
0.867601
0.866284
0.863024
0.861062
0.864492
0.870499
0.880448
0.896973
0.907262
0.904118
0.901823
0.898683
0.884491
0.881357
0.883815
0.884412
0.883261
0.88825
0.903113
0.914237
0.923776
0.926907
0.912302
0.902573
0.899792
0.894983
0.888033
0.882024
0.877535
0.874728
0.874045
0.875275
0.878017
0.881639
0.884013
0.87988
0.861008
0.825657
0.807632
0.811632
0.822166
0.836152
0.844061
0.845331
0.835448
0.805659
0.789066
0.788938
0.792874
0.806578
0.83201
0.848203
0.849754
0.846229
0.838572
0.829382
0.825166
0.823852
0.825121
0.833528
0.848708
0.863732
0.872999
0.878078
0.881036
0.88167
0.878283
0.87012
0.853675
0.8379
0.829499
0.824719
0.824982
0.826243
0.826949
0.831635
0.84651
0.875405
0.899797
0.904755
0.901928
0.895913
0.885323
0.870683
0.855435
0.84064
0.830116
0.826269
0.827248
0.832727
0.85036
0.882805
0.919206
0.93903
0.94534
0.944361
0.937296
0.925912
0.906513
0.884833
0.874708
0.869245
0.867374
0.867586
0.864743
0.86094
0.855758
0.850102
0.84804
0.847394
0.848982
0.858935
0.884852
0.919314
0.939521
0.944658
0.945591
0.941301
0.922888
0.894518
0.885154
0.882065
0.878091
0.87398
0.871286
0.874485
0.890142
0.921891
0.949813
0.950385
0.937686
0.927178
0.916859
0.901257
0.891647
0.889425
0.888828
0.89029
0.894378
0.903076
0.916646
0.930005
0.939096
0.944614
0.948792
0.953328
0.963717
0.972123
0.960407
0.946193
0.934606
0.912986
0.875504
0.848608
0.841131
0.839399
0.839842
0.845141
0.864414
0.922212
0.805789
0.814803
0.826753
0.833221
0.835301
0.834541
0.831598
0.826192
0.817948
0.810745
0.808008
0.807208
0.806711
0.80674
0.808015
0.8097
0.811222
0.811441
0.810465
0.809337
0.807941
0.806453
0.805861
0.807203
0.81172
0.81857
0.820931
0.820141
0.818553
0.816486
0.814744
0.813264
0.811761
0.810392
0.808187
0.805399
0.803375
0.803234
0.808044
0.821493
0.83493
0.836923
0.836139
0.835393
0.834105
0.831347
0.825153
0.818323
0.81615
0.815872
0.816138
0.818227
0.824563
0.832795
0.835282
0.835108
0.834241
0.832263
0.828972
0.825928
0.825503
0.827586
0.830887
0.834509
0.839243
0.845937
0.852759
0.856065
0.855761
0.854063
0.851315
0.847022
0.84264
0.841077
0.840712
0.840387
0.841221
0.845764
0.852487
0.855353
0.856158
0.856764
0.856231
0.854088
0.854085
0.853806
0.853325
0.854313
0.856853
0.858093
0.856058
0.857084
0.860281
0.861602
0.862216
0.862315
0.862434
0.865623
0.871018
0.880861
0.896927
0.907759
0.904914
0.902402
0.900532
0.890598
0.888452
0.89166
0.892795
0.891918
0.896162
0.910721
0.923383
0.933653
0.938123
0.923644
0.913576
0.911012
0.907231
0.901091
0.89533
0.89085
0.887525
0.885551
0.885108
0.886327
0.88849
0.888415
0.881431
0.863711
0.833211
0.813826
0.816493
0.825345
0.836595
0.843878
0.845134
0.837974
0.813683
0.79359
0.792909
0.796401
0.804283
0.817035
0.830058
0.836639
0.837276
0.833851
0.828429
0.826887
0.827109
0.830616
0.838016
0.846904
0.853268
0.85743
0.860296
0.86275
0.864493
0.865512
0.863959
0.859547
0.853157
0.84532
0.839796
0.837913
0.837169
0.836872
0.839671
0.848407
0.860616
0.874724
0.887262
0.890918
0.888611
0.881081
0.867153
0.853475
0.847527
0.844229
0.842362
0.842735
0.846973
0.861366
0.883231
0.901467
0.915591
0.926582
0.933595
0.93233
0.923503
0.909412
0.893187
0.878607
0.870402
0.86537
0.863398
0.86211
0.859132
0.855346
0.851499
0.85019
0.850948
0.857422
0.874618
0.904092
0.930511
0.938532
0.939401
0.938276
0.932013
0.913641
0.889287
0.882207
0.8806
0.878866
0.876068
0.873906
0.877846
0.891215
0.913788
0.940479
0.951162
0.93996
0.927829
0.91686
0.90391
0.895237
0.892549
0.891707
0.892903
0.896738
0.90442
0.914774
0.92563
0.93616
0.943652
0.948428
0.953031
0.96046
0.967775
0.95763
0.943153
0.93134
0.910276
0.87705
0.856774
0.849574
0.846448
0.846122
0.850694
0.867919
0.916768
0.810237
0.81627
0.821987
0.824904
0.826358
0.827569
0.828233
0.827974
0.825945
0.821317
0.816506
0.813907
0.812217
0.810472
0.808796
0.807433
0.807027
0.80787
0.807976
0.807057
0.80557
0.803957
0.802905
0.803614
0.80769
0.8153
0.818831
0.818592
0.817629
0.816547
0.815793
0.81511
0.814599
0.814144
0.813304
0.81159
0.809272
0.808295
0.81117
0.819397
0.8304
0.834805
0.835587
0.836014
0.836358
0.836078
0.833415
0.826898
0.820496
0.81833
0.817687
0.817701
0.821596
0.830512
0.834831
0.835559
0.836125
0.836744
0.836728
0.835457
0.833093
0.832699
0.835567
0.838543
0.841382
0.844662
0.84905
0.851986
0.851686
0.849617
0.84738
0.845067
0.843155
0.842787
0.842927
0.843042
0.843835
0.846327
0.849746
0.852232
0.854032
0.855315
0.856162
0.856704
0.857204
0.856661
0.856035
0.856637
0.858776
0.863379
0.865251
0.862185
0.860946
0.860412
0.859956
0.859369
0.859265
0.862581
0.869675
0.880547
0.896023
0.906738
0.905061
0.903063
0.900923
0.886686
0.8804
0.883559
0.884848
0.883943
0.887708
0.901259
0.912561
0.921509
0.926741
0.912842
0.902819
0.900302
0.896334
0.888842
0.881848
0.876917
0.873738
0.871688
0.870965
0.872009
0.874523
0.876461
0.873518
0.860948
0.835287
0.81055
0.805378
0.811592
0.821749
0.832253
0.836862
0.83592
0.823445
0.803725
0.798045
0.7996
0.804423
0.811332
0.815541
0.817775
0.820228
0.822814
0.82529
0.827389
0.830042
0.835463
0.844604
0.852343
0.853132
0.850986
0.84795
0.845355
0.844988
0.849664
0.857471
0.863911
0.868212
0.866993
0.860664
0.853366
0.849535
0.848768
0.851774
0.856187
0.85815
0.859715
0.864097
0.870866
0.873489
0.870707
0.862976
0.854669
0.851954
0.852416
0.854327
0.859065
0.867718
0.87918
0.889415
0.895883
0.899526
0.903087
0.908657
0.91496
0.917069
0.911995
0.902526
0.890713
0.877141
0.867051
0.860222
0.855373
0.852088
0.850507
0.85032
0.851646
0.855765
0.866378
0.890957
0.924606
0.940883
0.941623
0.940713
0.936823
0.926213
0.902953
0.878392
0.87242
0.872755
0.873686
0.873799
0.87588
0.884227
0.898957
0.915727
0.932403
0.947416
0.945132
0.931438
0.919016
0.907801
0.900009
0.897012
0.896068
0.89716
0.900547
0.904768
0.910315
0.920281
0.935077
0.94512
0.949895
0.952942
0.956623
0.963211
0.956494
0.94147
0.927913
0.906254
0.877182
0.862242
0.857317
0.854523
0.854693
0.860657
0.875367
0.912481
0.813331
0.817934
0.820088
0.82073
0.822068
0.823612
0.823519
0.823505
0.822843
0.820072
0.816837
0.815637
0.815324
0.81489
0.814104
0.812829
0.811359
0.810069
0.808486
0.806674
0.805319
0.804417
0.803454
0.803827
0.808385
0.816512
0.819778
0.819183
0.81729
0.813969
0.811823
0.810963
0.810098
0.809633
0.809569
0.80961
0.809783
0.811103
0.814928
0.822057
0.82973
0.831171
0.830428
0.830294
0.830397
0.830313
0.828947
0.824898
0.820428
0.819554
0.820058
0.820972
0.825091
0.8312
0.832669
0.832448
0.832124
0.832521
0.832835
0.83239
0.831861
0.831992
0.835542
0.839852
0.8432
0.846486
0.849094
0.85062
0.850827
0.850264
0.849931
0.847232
0.844994
0.844071
0.84359
0.843417
0.843743
0.844636
0.845131
0.847005
0.849704
0.851349
0.85353
0.855226
0.855505
0.854767
0.854544
0.854493
0.853813
0.858438
0.866353
0.863684
0.862576
0.862449
0.862403
0.862784
0.862923
0.863354
0.868723
0.879097
0.893564
0.902884
0.902433
0.901135
0.899612
0.886613
0.877659
0.880936
0.882842
0.882002
0.88625
0.900366
0.911603
0.919816
0.925253
0.911631
0.901054
0.898524
0.895129
0.887456
0.879504
0.873291
0.868897
0.866029
0.864619
0.864795
0.866149
0.867871
0.867514
0.859719
0.839291
0.811
0.799772
0.803459
0.812234
0.821854
0.828533
0.830814
0.827078
0.817444
0.807331
0.804705
0.805088
0.806715
0.806879
0.806319
0.80783
0.811574
0.816909
0.823683
0.831369
0.839551
0.845839
0.845865
0.842958
0.837181
0.831372
0.82882
0.82899
0.835044
0.8496
0.868205
0.880787
0.885415
0.883592
0.876224
0.866792
0.862438
0.861297
0.85909
0.854922
0.85083
0.848493
0.849366
0.854297
0.859331
0.86002
0.858876
0.858661
0.86146
0.868214
0.878254
0.887167
0.891475
0.89222
0.891018
0.887645
0.885562
0.887153
0.894191
0.903412
0.908687
0.906696
0.898972
0.889178
0.876404
0.864046
0.855847
0.850755
0.847639
0.846828
0.850362
0.859248
0.875782
0.904892
0.937343
0.947123
0.945687
0.942358
0.935975
0.922209
0.897825
0.874342
0.866058
0.866517
0.868643
0.870167
0.872985
0.880485
0.892822
0.90844
0.924271
0.93867
0.943446
0.937018
0.926285
0.915366
0.909746
0.906392
0.903412
0.90148
0.901466
0.90264
0.904677
0.912625
0.931374
0.946642
0.951149
0.95265
0.953497
0.954806
0.951627
0.938151
0.923992
0.907186
0.883248
0.871792
0.868095
0.864802
0.864559
0.87084
0.884482
0.910926
0.813088
0.813845
0.814316
0.816021
0.819743
0.823313
0.823891
0.822057
0.819284
0.815925
0.813646
0.812297
0.811625
0.811898
0.812203
0.812239
0.811895
0.810757
0.808578
0.806307
0.804857
0.804245
0.803849
0.804374
0.809851
0.820269
0.825263
0.824674
0.822786
0.81882
0.813602
0.810828
0.809482
0.808211
0.807398
0.807913
0.810182
0.814559
0.820607
0.827149
0.832216
0.831915
0.830253
0.828544
0.827194
0.825923
0.824127
0.820874
0.817486
0.817854
0.820005
0.822938
0.828838
0.834272
0.834841
0.834122
0.832737
0.830902
0.828384
0.825784
0.825002
0.825816
0.827789
0.833239
0.838298
0.842002
0.845256
0.84772
0.849495
0.851107
0.854193
0.853466
0.850192
0.848788
0.847201
0.844782
0.843895
0.84335
0.841607
0.843739
0.847509
0.850077
0.852695
0.853914
0.85342
0.852816
0.853121
0.850868
0.84726
0.853213
0.866549
0.862108
0.861395
0.861751
0.862724
0.865797
0.869691
0.872307
0.874272
0.881554
0.892197
0.898377
0.898619
0.897631
0.896462
0.886968
0.876382
0.879427
0.882258
0.881538
0.884952
0.90173
0.916658
0.925082
0.929878
0.915974
0.903693
0.900508
0.898424
0.892977
0.885591
0.878752
0.873708
0.869878
0.866262
0.8629
0.860764
0.860544
0.860303
0.85581
0.842476
0.818503
0.799219
0.796485
0.802786
0.811535
0.818669
0.822102
0.823121
0.822674
0.820514
0.815791
0.809836
0.805027
0.801401
0.799615
0.800519
0.804549
0.811873
0.820985
0.830098
0.835856
0.835907
0.832753
0.827117
0.82224
0.820737
0.821112
0.823141
0.830291
0.846097
0.870787
0.891834
0.9003
0.902566
0.900791
0.894343
0.882478
0.866434
0.853921
0.847358
0.84235
0.838744
0.837511
0.84019
0.846967
0.855077
0.861753
0.8673
0.873392
0.884153
0.89438
0.897119
0.897405
0.89506
0.886152
0.874853
0.871161
0.871364
0.87752
0.891556
0.904672
0.908597
0.903617
0.89582
0.885749
0.871202
0.859557
0.853329
0.849245
0.847387
0.850702
0.862401
0.883983
0.914263
0.938568
0.945935
0.944739
0.940264
0.932358
0.918096
0.897577
0.877892
0.866655
0.865186
0.868129
0.871015
0.874529
0.880571
0.888936
0.899546
0.913389
0.928472
0.937081
0.934572
0.9292
0.928227
0.924559
0.916675
0.910507
0.90473
0.90103
0.900282
0.900549
0.906932
0.926644
0.947176
0.952577
0.953638
0.952238
0.948323
0.943006
0.933161
0.91838
0.905064
0.890508
0.881482
0.879258
0.876916
0.876872
0.882442
0.894758
0.911648
0.813439
0.812153
0.811914
0.813715
0.816905
0.819577
0.820745
0.820029
0.817884
0.817245
0.817418
0.816594
0.815619
0.814896
0.814569
0.814002
0.812649
0.810059
0.80668
0.803917
0.802031
0.801632
0.802556
0.804397
0.809419
0.819867
0.825381
0.823607
0.821659
0.818125
0.812875
0.809579
0.808628
0.808198
0.807912
0.809133
0.812611
0.817775
0.823742
0.827951
0.829002
0.827596
0.825536
0.824061
0.823437
0.823274
0.822705
0.82127
0.819492
0.819686
0.822625
0.82627
0.830956
0.83438
0.834488
0.833966
0.833167
0.831755
0.829422
0.827046
0.826323
0.827222
0.827802
0.827949
0.833113
0.837196
0.840326
0.843982
0.847006
0.850213
0.855698
0.856826
0.85235
0.850048
0.84759
0.844416
0.842287
0.839999
0.838163
0.841239
0.847182
0.851088
0.85398
0.855135
0.854925
0.854763
0.85318
0.84873
0.846663
0.85864
0.867306
0.858994
0.859118
0.861394
0.864358
0.868894
0.871936
0.872617
0.879611
0.885888
0.889426
0.893176
0.894786
0.895435
0.894723
0.884033
0.873847
0.877482
0.880956
0.881304
0.885132
0.897974
0.906937
0.911418
0.91796
0.908724
0.897468
0.894859
0.89313
0.887177
0.878169
0.869091
0.861434
0.856318
0.853515
0.852338
0.853174
0.854681
0.855031
0.852305
0.843772
0.826298
0.804227
0.793916
0.79538
0.801242
0.807476
0.813561
0.819428
0.824344
0.827443
0.827098
0.821332
0.810082
0.799704
0.795438
0.795033
0.798044
0.808235
0.821925
0.823826
0.821461
0.817603
0.812781
0.810302
0.811051
0.812964
0.815408
0.819532
0.827989
0.844248
0.871159
0.899945
0.914076
0.916527
0.915035
0.909059
0.894678
0.869385
0.847799
0.838883
0.834469
0.830971
0.829068
0.830531
0.837524
0.849315
0.862782
0.8764
0.890147
0.902141
0.905324
0.904484
0.90131
0.892702
0.875798
0.862143
0.859516
0.859862
0.864719
0.879224
0.897829
0.907174
0.906774
0.901077
0.893778
0.88217
0.867559
0.85939
0.855521
0.853468
0.855914
0.867939
0.892096
0.918572
0.931635
0.935879
0.935257
0.930619
0.922413
0.910404
0.896508
0.883723
0.874262
0.869833
0.87033
0.872538
0.874945
0.878924
0.885121
0.892896
0.902918
0.916085
0.9291
0.933742
0.93199
0.935891
0.941316
0.930725
0.91896
0.909209
0.899064
0.895208
0.895312
0.901523
0.921314
0.945026
0.953738
0.952981
0.948338
0.940857
0.932365
0.926776
0.917104
0.904682
0.8974
0.891976
0.890473
0.890194
0.891479
0.895285
0.902295
0.909842
0.812147
0.812415
0.81453
0.816734
0.817116
0.815956
0.814472
0.813713
0.813773
0.814427
0.817255
0.819435
0.819316
0.818879
0.818687
0.818538
0.81656
0.811161
0.804564
0.801436
0.79974
0.799363
0.801122
0.805282
0.812285
0.822148
0.827068
0.822933
0.818777
0.814018
0.808675
0.806293
0.805994
0.806662
0.809164
0.814185
0.818921
0.822524
0.825213
0.825578
0.823893
0.821998
0.820542
0.819935
0.819389
0.819359
0.820093
0.82133
0.822938
0.824698
0.827471
0.831288
0.834045
0.835093
0.834574
0.833283
0.831526
0.828956
0.826072
0.824427
0.825009
0.827594
0.830704
0.830608
0.83301
0.839769
0.842556
0.845919
0.849124
0.852567
0.858845
0.85853
0.852095
0.848542
0.844842
0.841213
0.83837
0.836293
0.836857
0.839798
0.8451
0.848411
0.851287
0.85318
0.854422
0.85476
0.852087
0.847397
0.847297
0.863456
0.863996
0.858664
0.860099
0.86313
0.867174
0.871766
0.873113
0.873061
0.877226
0.881945
0.884996
0.888469
0.891762
0.894846
0.894609
0.883166
0.871826
0.875253
0.878971
0.879983
0.884705
0.897104
0.905036
0.908917
0.914023
0.907663
0.895272
0.891189
0.889375
0.884131
0.875322
0.866269
0.857404
0.849418
0.845818
0.845833
0.84635
0.847879
0.849234
0.848823
0.844037
0.831604
0.81168
0.796562
0.791511
0.792699
0.797806
0.807197
0.818354
0.826159
0.830134
0.831691
0.827144
0.813419
0.797247
0.791551
0.791379
0.793594
0.801851
0.815632
0.821321
0.820012
0.815748
0.810345
0.80745
0.808131
0.810129
0.812846
0.817333
0.826402
0.843179
0.870853
0.903574
0.922076
0.924874
0.923721
0.920749
0.911133
0.884063
0.848636
0.832374
0.827017
0.823391
0.820628
0.821546
0.8303
0.847361
0.868048
0.886897
0.904539
0.912157
0.912178
0.911184
0.905695
0.887854
0.862629
0.851596
0.85065
0.851558
0.856114
0.86819
0.886926
0.901078
0.906123
0.90481
0.900004
0.89316
0.881144
0.869053
0.863917
0.861562
0.863532
0.875302
0.898797
0.919817
0.92619
0.925729
0.922778
0.917435
0.910486
0.902889
0.89592
0.890861
0.886821
0.88086
0.875396
0.87439
0.874522
0.875418
0.877588
0.881508
0.888631
0.901003
0.918868
0.935268
0.943122
0.947602
0.951151
0.940455
0.925604
0.913197
0.901169
0.894465
0.891944
0.895341
0.913717
0.942039
0.952449
0.949891
0.943081
0.932799
0.923162
0.917519
0.912153
0.906527
0.9015
0.900421
0.900159
0.900727
0.903089
0.906117
0.906867
0.906727
0.810907
0.813245
0.816572
0.817059
0.815855
0.814048
0.812606
0.812143
0.812522
0.813639
0.816963
0.821403
0.8221
0.821536
0.820875
0.820415
0.817474
0.809046
0.800499
0.798354
0.797449
0.797206
0.799856
0.806745
0.815614
0.822697
0.826373
0.822772
0.816105
0.810552
0.806646
0.806082
0.806909
0.810187
0.814941
0.819377
0.821946
0.822638
0.821463
0.819557
0.818155
0.817788
0.817961
0.818388
0.818879
0.820075
0.821813
0.823888
0.826159
0.828211
0.830518
0.833069
0.834904
0.834774
0.833898
0.832965
0.831386
0.828733
0.826117
0.824907
0.825637
0.828061
0.83134
0.831395
0.829339
0.838179
0.843488
0.847472
0.851628
0.855456
0.861645
0.85851
0.850678
0.846742
0.842568
0.838903
0.836702
0.836652
0.837573
0.839282
0.843613
0.846283
0.850004
0.853135
0.854205
0.852608
0.850558
0.848256
0.853155
0.863171
0.858143
0.85823
0.860071
0.863466
0.868093
0.872569
0.873804
0.8746
0.876473
0.878363
0.879847
0.882299
0.888903
0.893139
0.888749
0.874982
0.867229
0.871617
0.875354
0.876929
0.88357
0.899336
0.910847
0.914039
0.918407
0.916101
0.902493
0.896284
0.89319
0.885356
0.875736
0.867485
0.859347
0.849385
0.837851
0.833448
0.838311
0.84382
0.845988
0.845556
0.841905
0.832977
0.816262
0.797067
0.787477
0.786923
0.791951
0.802662
0.818334
0.830147
0.835403
0.837579
0.833085
0.816289
0.794944
0.787691
0.787066
0.788253
0.792973
0.80397
0.812725
0.814396
0.813582
0.811767
0.809941
0.808547
0.80859
0.810762
0.814495
0.822546
0.840368
0.872907
0.910967
0.930426
0.933382
0.933426
0.930963
0.919438
0.888123
0.845248
0.822072
0.815963
0.813117
0.811935
0.815575
0.828653
0.850789
0.875382
0.899645
0.91483
0.917449
0.91627
0.912795
0.900523
0.872029
0.848562
0.845006
0.845827
0.848223
0.854152
0.865356
0.879988
0.892943
0.901091
0.904471
0.90274
0.898157
0.888989
0.876981
0.871367
0.87026
0.8745
0.886445
0.903395
0.914741
0.915951
0.910976
0.905006
0.901989
0.902229
0.903049
0.901252
0.899539
0.897564
0.892171
0.882516
0.873815
0.871613
0.870625
0.869755
0.871114
0.87817
0.894274
0.920435
0.943781
0.956607
0.961262
0.955991
0.942248
0.928653
0.915891
0.905063
0.897448
0.891554
0.890457
0.904403
0.933386
0.951468
0.948245
0.93831
0.925265
0.915313
0.910602
0.906442
0.904512
0.907278
0.910588
0.911433
0.911262
0.910458
0.911245
0.909385
0.906008
0.814364
0.817064
0.816335
0.814475
0.812675
0.81158
0.81143
0.812034
0.812763
0.814099
0.817962
0.824428
0.825769
0.824108
0.822817
0.820458
0.814364
0.803677
0.797576
0.797138
0.796761
0.797424
0.802515
0.811222
0.818612
0.821989
0.822286
0.819542
0.814739
0.810556
0.810102
0.81217
0.815493
0.819064
0.820011
0.8198
0.819346
0.818269
0.816481
0.815177
0.815326
0.816229
0.817441
0.819072
0.821337
0.82343
0.825911
0.826986
0.827665
0.82903
0.830867
0.832532
0.833064
0.832508
0.83283
0.833016
0.832802
0.830937
0.828903
0.827972
0.827956
0.829006
0.831314
0.831618
0.826419
0.835104
0.843573
0.848004
0.85219
0.856194
0.861584
0.856649
0.848895
0.845372
0.841688
0.839077
0.83854
0.838473
0.836084
0.837953
0.841382
0.845375
0.850598
0.852408
0.85142
0.851755
0.854048
0.8557
0.86098
0.857879
0.856555
0.857503
0.858975
0.861592
0.866682
0.871627
0.873036
0.873114
0.874169
0.875825
0.876922
0.87869
0.88624
0.889541
0.883029
0.869663
0.863263
0.867223
0.871602
0.873706
0.883523
0.902705
0.904523
0.902189
0.904166
0.905557
0.892852
0.885445
0.88374
0.879244
0.870645
0.862744
0.856735
0.847686
0.835709
0.824335
0.8218
0.827297
0.833868
0.835756
0.834214
0.828264
0.814877
0.795106
0.785036
0.785254
0.790046
0.801124
0.820217
0.835284
0.841444
0.842935
0.836676
0.818108
0.795106
0.786406
0.784932
0.785598
0.788457
0.796121
0.803941
0.808781
0.812411
0.815196
0.81653
0.815541
0.813134
0.812227
0.814523
0.819905
0.8369
0.874013
0.913151
0.928663
0.932544
0.934596
0.932788
0.918781
0.877632
0.833014
0.819773
0.816851
0.815057
0.81445
0.81815
0.83143
0.854157
0.884098
0.910407
0.920174
0.920703
0.918723
0.911915
0.889948
0.856896
0.845076
0.845509
0.846879
0.849342
0.85547
0.867126
0.878578
0.886408
0.893266
0.899942
0.903685
0.902452
0.898701
0.891493
0.886276
0.88489
0.888637
0.89799
0.906079
0.906376
0.901305
0.894282
0.890191
0.8906
0.895416
0.902517
0.906523
0.907389
0.905465
0.899741
0.887382
0.8722
0.867068
0.86554
0.863924
0.864496
0.872461
0.892646
0.923514
0.949871
0.963966
0.96463
0.953778
0.940275
0.927517
0.917131
0.908226
0.900445
0.894224
0.892344
0.901469
0.925366
0.946439
0.943252
0.930469
0.917543
0.910294
0.906016
0.902573
0.902527
0.909404
0.916325
0.917963
0.917184
0.915048
0.913516
0.910426
0.905722
0.820742
0.818089
0.81508
0.812433
0.810332
0.810323
0.811111
0.811913
0.81376
0.815617
0.818464
0.82364
0.825767
0.822914
0.820179
0.815524
0.806896
0.798785
0.797194
0.797266
0.797324
0.800096
0.808012
0.816272
0.820039
0.820573
0.819811
0.818393
0.816131
0.815123
0.817408
0.818626
0.817881
0.816878
0.815452
0.813748
0.812266
0.811775
0.813457
0.815007
0.815758
0.816795
0.818441
0.820357
0.822394
0.823326
0.822962
0.823234
0.824278
0.825502
0.827708
0.829771
0.831114
0.832689
0.835156
0.836781
0.836477
0.832708
0.827898
0.825237
0.823523
0.822818
0.823549
0.824733
0.822705
0.833211
0.844411
0.849396
0.852915
0.856443
0.86053
0.855622
0.848988
0.845835
0.842803
0.841654
0.841188
0.837514
0.834467
0.837744
0.840917
0.847678
0.849196
0.845893
0.847989
0.853924
0.863149
0.86559
0.856533
0.853297
0.852459
0.853177
0.855143
0.859234
0.86664
0.871849
0.872034
0.8715
0.872844
0.875786
0.87683
0.878679
0.885304
0.884717
0.876605
0.866361
0.860208
0.862356
0.868113
0.872394
0.87973
0.900791
0.902957
0.89759
0.897684
0.901437
0.890124
0.880681
0.878575
0.875413
0.867784
0.859261
0.853447
0.84695
0.835251
0.820507
0.814584
0.817601
0.825845
0.83114
0.830761
0.824897
0.810973
0.792295
0.784518
0.7852
0.789928
0.801457
0.821785
0.835899
0.838836
0.838198
0.832151
0.817229
0.79917
0.791744
0.790342
0.790796
0.792344
0.796547
0.800047
0.801957
0.804458
0.808726
0.813269
0.816386
0.818238
0.819311
0.821824
0.828019
0.845492
0.879278
0.909021
0.919176
0.924334
0.927707
0.924433
0.908899
0.87556
0.838651
0.823304
0.819417
0.818109
0.818539
0.824081
0.838854
0.866167
0.898395
0.914686
0.917876
0.917831
0.915041
0.904253
0.877134
0.851653
0.84671
0.846895
0.848248
0.851344
0.858323
0.869549
0.879038
0.884313
0.888804
0.894744
0.901042
0.903893
0.902945
0.900184
0.897327
0.897213
0.900877
0.904951
0.902026
0.895516
0.887193
0.881146
0.879294
0.882264
0.891625
0.904604
0.912154
0.913284
0.910829
0.905305
0.892459
0.873359
0.864941
0.863198
0.861634
0.86186
0.870107
0.891987
0.928516
0.95796
0.965577
0.960951
0.952427
0.941316
0.926194
0.916785
0.909801
0.903481
0.898934
0.898426
0.905836
0.922284
0.936553
0.93447
0.922784
0.912146
0.905453
0.901755
0.900473
0.902259
0.910136
0.920006
0.922624
0.921252
0.918583
0.915973
0.912442
0.907092
0.818017
0.81239
0.808901
0.807831
0.808327
0.80838
0.810581
0.813603
0.815577
0.817773
0.819896
0.821605
0.821445
0.818215
0.814024
0.807278
0.802064
0.801023
0.800739
0.800677
0.80169
0.806564
0.815172
0.819559
0.819933
0.819604
0.819352
0.819247
0.818829
0.81863
0.817262
0.814017
0.811803
0.810599
0.810141
0.809994
0.81016
0.811403
0.815093
0.817907
0.816494
0.816554
0.817701
0.819044
0.819604
0.818334
0.81678
0.817951
0.821961
0.826922
0.830133
0.832963
0.835977
0.83982
0.841186
0.838911
0.833288
0.825658
0.81991
0.817353
0.816265
0.816591
0.818819
0.821984
0.824345
0.835795
0.847581
0.852014
0.854169
0.85698
0.859672
0.855473
0.850016
0.846721
0.843863
0.842337
0.839703
0.834815
0.835604
0.837723
0.844117
0.846693
0.840764
0.840212
0.851254
0.8694
0.868498
0.857454
0.851901
0.848516
0.84839
0.850416
0.855585
0.863088
0.869796
0.871638
0.87107
0.872374
0.874568
0.873978
0.871149
0.87269
0.881244
0.879393
0.87157
0.864991
0.85876
0.859106
0.865385
0.871339
0.877006
0.894797
0.903072
0.894629
0.891823
0.895765
0.889238
0.876822
0.873253
0.871398
0.865144
0.856469
0.85005
0.845419
0.834376
0.818937
0.811176
0.81298
0.820457
0.826421
0.826072
0.820277
0.80822
0.793289
0.787181
0.787997
0.792336
0.802959
0.819867
0.829044
0.830161
0.828573
0.822677
0.811939
0.803343
0.802504
0.802907
0.803412
0.804953
0.804309
0.802535
0.800859
0.80081
0.802736
0.807697
0.815155
0.821288
0.82519
0.829601
0.838552
0.856394
0.882281
0.902534
0.909815
0.913563
0.914376
0.908465
0.892617
0.868152
0.843367
0.830325
0.825324
0.823578
0.824988
0.832877
0.852479
0.883117
0.904479
0.909661
0.910469
0.909558
0.904827
0.891173
0.869892
0.855812
0.851015
0.850251
0.851337
0.855402
0.864134
0.873944
0.879298
0.882526
0.885739
0.890155
0.896037
0.901556
0.904819
0.905802
0.905972
0.907137
0.907822
0.904118
0.898193
0.888885
0.878768
0.873291
0.871624
0.876933
0.891239
0.908269
0.915662
0.915917
0.91408
0.909611
0.897096
0.875711
0.864899
0.862798
0.861154
0.861136
0.869289
0.892697
0.93351
0.960177
0.963097
0.957881
0.951206
0.940654
0.924674
0.915905
0.911135
0.906868
0.904728
0.906649
0.913566
0.922974
0.92731
0.923129
0.914365
0.905962
0.900763
0.89934
0.900226
0.903885
0.912869
0.922647
0.925956
0.925001
0.92259
0.918968
0.915289
0.909652
0.811884
0.806834
0.804844
0.805657
0.810978
0.812519
0.813483
0.815887
0.818398
0.819383
0.820604
0.819491
0.815931
0.812195
0.808653
0.806151
0.805351
0.805436
0.804787
0.804209
0.805499
0.810548
0.817513
0.819859
0.820479
0.820772
0.819415
0.818092
0.817172
0.815603
0.812505
0.809559
0.809044
0.809936
0.811793
0.812706
0.813437
0.814933
0.817098
0.816913
0.813911
0.813809
0.814679
0.815493
0.815414
0.814561
0.815652
0.82082
0.829433
0.836826
0.839725
0.841769
0.843212
0.843824
0.839991
0.831993
0.82321
0.817547
0.815169
0.814473
0.814746
0.818575
0.823839
0.828658
0.831476
0.840354
0.850266
0.853308
0.854589
0.85686
0.857792
0.85387
0.849548
0.846369
0.843576
0.840411
0.836284
0.835899
0.836776
0.843163
0.847156
0.836912
0.832013
0.846314
0.870572
0.872288
0.860627
0.853872
0.848214
0.846897
0.848001
0.852021
0.859984
0.867128
0.870701
0.871183
0.8721
0.8717
0.869641
0.867056
0.865025
0.869936
0.879469
0.874837
0.867915
0.86579
0.860757
0.857522
0.861976
0.868784
0.874033
0.887453
0.901705
0.893845
0.887745
0.891684
0.89022
0.875908
0.869095
0.8665
0.860245
0.851936
0.8469
0.844264
0.83486
0.818396
0.809442
0.81085
0.817386
0.824614
0.823731
0.818268
0.81007
0.800983
0.795925
0.795546
0.797812
0.803818
0.813603
0.819593
0.819618
0.815947
0.809414
0.806359
0.808106
0.812842
0.817412
0.818038
0.817154
0.814739
0.809324
0.804031
0.802013
0.80123
0.802291
0.808401
0.819401
0.83133
0.842862
0.855138
0.868133
0.880171
0.890097
0.895967
0.897959
0.896115
0.889757
0.877438
0.859456
0.843671
0.83691
0.835015
0.834879
0.838967
0.850909
0.872687
0.892785
0.899221
0.900349
0.900229
0.897141
0.889172
0.876691
0.867332
0.861935
0.858529
0.857262
0.858984
0.864399
0.872452
0.87721
0.878835
0.879707
0.881544
0.88535
0.891202
0.899049
0.907015
0.912451
0.914312
0.91261
0.908867
0.901864
0.889082
0.874479
0.867421
0.863494
0.863836
0.874048
0.894789
0.914039
0.917798
0.917108
0.916155
0.912186
0.899838
0.879473
0.867302
0.86421
0.862619
0.862849
0.871096
0.895681
0.935672
0.957972
0.958479
0.953113
0.947101
0.935814
0.919823
0.913492
0.910783
0.908094
0.907092
0.91082
0.918123
0.923113
0.921331
0.914726
0.906563
0.899542
0.896294
0.895995
0.897301
0.903939
0.917385
0.927308
0.928622
0.927303
0.924907
0.921323
0.917442
0.910418
0.81117
0.80719
0.805591
0.807224
0.812847
0.814534
0.815341
0.816968
0.818196
0.818508
0.817971
0.81628
0.812458
0.809296
0.808028
0.80775
0.806494
0.803768
0.801682
0.80193
0.805261
0.811864
0.8187
0.821535
0.822556
0.822224
0.818874
0.814906
0.812948
0.811636
0.810468
0.809395
0.810234
0.811863
0.812809
0.813053
0.813232
0.813547
0.813046
0.811315
0.810718
0.811052
0.812082
0.813364
0.81431
0.81614
0.822467
0.831926
0.839356
0.841763
0.8422
0.841076
0.838774
0.836534
0.831772
0.823502
0.817438
0.816104
0.815721
0.815754
0.818681
0.824995
0.829494
0.832404
0.833712
0.842716
0.850514
0.853374
0.854923
0.855698
0.854184
0.850045
0.845925
0.843583
0.842066
0.839081
0.837683
0.838817
0.84457
0.849435
0.837577
0.826983
0.838906
0.867411
0.874171
0.863898
0.857005
0.850091
0.847214
0.848069
0.851015
0.856796
0.862605
0.867346
0.869905
0.870305
0.868203
0.865787
0.864732
0.864883
0.861769
0.867076
0.87442
0.871321
0.868476
0.867103
0.862425
0.856744
0.858096
0.864799
0.870683
0.879622
0.897425
0.895093
0.886574
0.885913
0.889319
0.87732
0.866884
0.862715
0.856142
0.846992
0.842445
0.842643
0.836349
0.820063
0.810148
0.810284
0.813727
0.821481
0.823807
0.819141
0.813124
0.809392
0.807236
0.805154
0.804587
0.806377
0.810881
0.81113
0.806772
0.799504
0.798718
0.803582
0.810547
0.817996
0.824873
0.826572
0.824719
0.820822
0.813771
0.807966
0.803986
0.801204
0.800183
0.804442
0.818964
0.841096
0.861016
0.870645
0.872997
0.874337
0.877193
0.880311
0.88025
0.878099
0.873991
0.865963
0.853763
0.843924
0.843562
0.846379
0.850376
0.858752
0.873105
0.887087
0.891941
0.892836
0.892562
0.889761
0.882835
0.871757
0.865146
0.864592
0.865038
0.865208
0.866664
0.870618
0.875312
0.877059
0.876365
0.875713
0.876026
0.877359
0.880965
0.888304
0.900316
0.913223
0.91903
0.918359
0.915163
0.908348
0.892809
0.876261
0.870384
0.86631
0.862442
0.862079
0.873175
0.900042
0.918826
0.919531
0.917792
0.916673
0.911869
0.899002
0.880733
0.871783
0.86963
0.868665
0.869485
0.876624
0.898501
0.932685
0.953317
0.953666
0.948584
0.943342
0.933065
0.9196
0.91543
0.914176
0.913472
0.914244
0.919315
0.924822
0.92305
0.915777
0.907161
0.899275
0.894089
0.89283
0.892668
0.894016
0.903272
0.92124
0.933034
0.933685
0.931572
0.928159
0.923027
0.919377
0.912895
0.80989
0.804791
0.802173
0.803644
0.809407
0.812712
0.814683