/*--------------------------------*- C++ -*----------------------------------*\
  =========                 |
  \\      /  F ield         | OpenFOAM: The Open Source CFD Toolbox
   \\    /   O peration     | Website:  https://openfoam.org
    \\  /    A nd           | Version:  7
     \\/     M anipulation  |
\*---------------------------------------------------------------------------*/
FoamFile
{
    version     2.0;
    format      ascii;
    class       volScalarField;
    location    "0.9";
    object      rho;
}
// * * * * * * * * * * * * * * * * * * * * * * * * * * * * * * * * * * * * * //

dimensions      [1 -3 0 0 0 0 0];

internalField   nonuniform List<scalar> 
16192
(
0.509305
0.514252
0.521171
0.52443
0.524601
0.523993
0.520762
0.515006
0.511279
0.510514
0.510392
0.510343
0.510437
0.510988
0.512234
0.514103
0.515138
0.515227
0.51504
0.514837
0.514783
0.514694
0.514614
0.515172
0.517729
0.520565
0.520845
0.520384
0.519728
0.518952
0.518604
0.518385
0.518422
0.519128
0.519908
0.520241
0.520427
0.521178
0.524178
0.530798
0.534795
0.534237
0.533139
0.532143
0.530934
0.52914
0.527076
0.526214
0.526044
0.525995
0.526399
0.527743
0.5298
0.531593
0.531688
0.531077
0.529379
0.526253
0.523825
0.52339
0.523566
0.524463
0.526119
0.528272
0.531299
0.536238
0.5415
0.543848
0.544701
0.54518
0.545144
0.542517
0.539811
0.539711
0.539975
0.540321
0.541454
0.544556
0.548188
0.549245
0.549598
0.549765
0.548293
0.547335
0.548083
0.54909
0.550851
0.554946
0.562684
0.572593
0.58112
0.587536
0.590687
0.590461
0.589287
0.586722
0.584989
0.585932
0.589659
0.596796
0.608858
0.618784
0.622893
0.625544
0.625849
0.620113
0.620604
0.626556
0.637634
0.65555
0.679781
0.705032
0.723277
0.740601
0.758109
0.767311
0.771478
0.772153
0.769649
0.764006
0.758346
0.752481
0.746259
0.74099
0.737724
0.736448
0.736332
0.735904
0.731698
0.71745
0.693817
0.681489
0.682329
0.685649
0.69191
0.695709
0.696154
0.690009
0.672686
0.66436
0.665558
0.669549
0.680086
0.697364
0.708677
0.71062
0.710165
0.706764
0.701604
0.699318
0.698656
0.699454
0.704322
0.712717
0.720839
0.725733
0.728371
0.73003
0.730524
0.729143
0.725604
0.717525
0.710034
0.707281
0.707062
0.710536
0.715261
0.719524
0.725593
0.738311
0.759608
0.776665
0.780664
0.779982
0.776917
0.769847
0.759658
0.748931
0.738302
0.73007
0.726301
0.725382
0.727184
0.737421
0.757464
0.780293
0.79362
0.798831
0.800343
0.800318
0.798925
0.792998
0.785919
0.785825
0.788004
0.79189
0.79618
0.797405
0.79741
0.795785
0.792934
0.792202
0.792127
0.793453
0.800165
0.816719
0.838323
0.850454
0.852853
0.852722
0.848746
0.834567
0.81483
0.8082
0.806005
0.803677
0.80211
0.801773
0.80558
0.819785
0.846914
0.872434
0.880188
0.882186
0.882848
0.880226
0.870207
0.862352
0.860128
0.858688
0.857321
0.856348
0.857847
0.863636
0.871396
0.878405
0.883537
0.88819
0.89542
0.910942
0.928995
0.934962
0.937816
0.938262
0.927928
0.901723
0.883041
0.879289
0.879136
0.880086
0.8852
0.901068
0.946115
0.510453
0.51464
0.520131
0.523032
0.523907
0.523466
0.521948
0.519382
0.515596
0.512277
0.511056
0.510793
0.510732
0.510983
0.511937
0.51314
0.514251
0.514771
0.514886
0.515014
0.515026
0.514948
0.515051
0.515986
0.518598
0.522013
0.52323
0.523091
0.522783
0.522233
0.521838
0.521637
0.521561
0.521682
0.52151
0.520989
0.520654
0.52093
0.52372
0.530287
0.536133
0.536765
0.536127
0.53542
0.534549
0.533046
0.530147
0.527019
0.525994
0.52586
0.525988
0.526945
0.529754
0.533182
0.533868
0.533381
0.532246
0.53029
0.52775
0.525598
0.52501
0.525593
0.526995
0.52902
0.531923
0.535974
0.540064
0.542336
0.54334
0.544153
0.544414
0.543723
0.542374
0.541966
0.54203
0.542081
0.542592
0.544706
0.547616
0.54889
0.549346
0.549733
0.549635
0.549006
0.549552
0.550491
0.552391
0.556926
0.565419
0.576105
0.583158
0.586412
0.58856
0.589043
0.588747
0.587727
0.586521
0.587136
0.590507
0.597518
0.609184
0.619186
0.623343
0.626017
0.626866
0.623204
0.624071
0.630423
0.6419
0.660133
0.684102
0.709222
0.728369
0.746119
0.764463
0.773883
0.77815
0.778962
0.777024
0.771959
0.766482
0.760614
0.75408
0.747985
0.743623
0.741381
0.740436
0.738722
0.732699
0.719166
0.698437
0.685071
0.685221
0.687543
0.691991
0.695217
0.695537
0.690862
0.676549
0.665862
0.66651
0.670015
0.676558
0.685894
0.695013
0.700167
0.701443
0.700446
0.697666
0.696935
0.697143
0.69931
0.703472
0.708152
0.7112
0.712967
0.714134
0.715355
0.716581
0.717748
0.717979
0.717087
0.715321
0.713197
0.712891
0.715186
0.71866
0.722442
0.727816
0.736368
0.746823
0.757782
0.766963
0.769975
0.769048
0.764368
0.754794
0.744934
0.73991
0.736629
0.73407
0.732926
0.734102
0.742032
0.755338
0.766715
0.776139
0.784538
0.79099
0.793601
0.793572
0.791191
0.787555
0.784876
0.785517
0.787367
0.790269
0.792632
0.79307
0.792432
0.790987
0.790772
0.791634
0.796649
0.808371
0.827241
0.843687
0.847939
0.847799
0.846285
0.840637
0.826363
0.80906
0.803591
0.802146
0.800955
0.799898
0.799953
0.804398
0.817004
0.837635
0.862299
0.877336
0.880274
0.881021
0.878792
0.871128
0.864335
0.8618
0.860369
0.859171
0.858467
0.859708
0.863525
0.869396
0.877039
0.883633
0.888616
0.895501
0.908484
0.925668
0.932672
0.935589
0.936357
0.926734
0.903642
0.889853
0.886094
0.88494
0.885303
0.889734
0.904101
0.943149
0.514837
0.517869
0.520803
0.522441
0.523335
0.523964
0.524183
0.523988
0.522853
0.520472
0.518149
0.516976
0.516288
0.515676
0.515235
0.51505
0.515323
0.516332
0.517127
0.517541
0.51777
0.517953
0.51824
0.519095
0.521591
0.525444
0.527051
0.526988
0.526692
0.52642
0.526372
0.526449
0.52679
0.527378
0.527952
0.528188
0.52822
0.528741
0.530894
0.535623
0.540729
0.542291
0.542264
0.541973
0.541543
0.540947
0.539291
0.535894
0.532749
0.531561
0.53116
0.531107
0.53278
0.536707
0.538263
0.538135
0.537712
0.536986
0.535787
0.533943
0.531656
0.530663
0.531202
0.53253
0.534467
0.536943
0.539882
0.541967
0.542847
0.543491
0.544271
0.544831
0.544869
0.545001
0.545284
0.545531
0.546039
0.5472
0.548361
0.548964
0.549494
0.550074
0.550598
0.551092
0.551777
0.552506
0.55426
0.558492
0.566654
0.579637
0.590843
0.59386
0.593838
0.593434
0.592652
0.590921
0.588717
0.588653
0.591848
0.599173
0.610052
0.61932
0.623522
0.626475
0.627383
0.621621
0.620457
0.626521
0.637774
0.655729
0.679328
0.703814
0.722039
0.738775
0.757316
0.766827
0.771134
0.772019
0.770135
0.764301
0.757972
0.752096
0.746057
0.740195
0.735678
0.733329
0.73261
0.731893
0.728414
0.718336
0.700167
0.683072
0.678452
0.679579
0.682776
0.687288
0.688877
0.687776
0.6798
0.668511
0.665832
0.667258
0.671104
0.676029
0.679246
0.681094
0.682961
0.684825
0.686381
0.687537
0.688953
0.691878
0.696808
0.700707
0.700511
0.698462
0.696002
0.694201
0.694029
0.697193
0.703182
0.708702
0.713176
0.714938
0.714561
0.714053
0.7155
0.718862
0.724369
0.730386
0.734486
0.737768
0.742087
0.747558
0.74977
0.74847
0.7435
0.737493
0.735094
0.734486
0.734311
0.735667
0.739662
0.745624
0.751002
0.754371
0.757073
0.760291
0.76542
0.772173
0.777903
0.780494
0.781111
0.78047
0.778042
0.777004
0.777055
0.777439
0.777999
0.779034
0.780475
0.782436
0.786236
0.794543
0.811257
0.832932
0.843235
0.843444
0.842299
0.838616
0.829636
0.812125
0.794092
0.788812
0.787629
0.787114
0.787242
0.789492
0.797053
0.810461
0.826296
0.843295
0.862014
0.871935
0.874251
0.873961
0.870266
0.865761
0.863439
0.862221
0.861622
0.861641
0.8619
0.86308
0.868044
0.878251
0.88655
0.891285
0.89635
0.905605
0.921432
0.930564
0.933596
0.934311
0.925051
0.905299
0.895568
0.893336
0.892314
0.892937
0.898484
0.910806
0.942465
0.521165
0.52392
0.52553
0.526687
0.528212
0.529675
0.530054
0.530074
0.529554
0.527833
0.525964
0.525164
0.52481
0.524515
0.524193
0.523924
0.523888
0.524166
0.524436
0.524665
0.525238
0.52625
0.527371
0.528803
0.531894
0.536411
0.537851
0.537497
0.536398
0.534603
0.533633
0.533459
0.533477
0.533973
0.534993
0.536342
0.538044
0.540563
0.544106
0.548847
0.553001
0.553374
0.552654
0.551953
0.551093
0.550007
0.548422
0.54571
0.542884
0.542052
0.54186
0.541986
0.543822
0.546584
0.546914
0.546423
0.545595
0.544754
0.543502
0.541474
0.539004
0.53675
0.536365
0.536953
0.538635
0.540887
0.542919
0.544458
0.545675
0.547143
0.549324
0.550408
0.550759
0.550754
0.550684
0.550699
0.550892
0.55107
0.550441
0.549985
0.550206
0.550602
0.551547
0.552599
0.553084
0.553657
0.555525
0.559344
0.566169
0.580339
0.598002
0.603919
0.604461
0.60434
0.603793
0.602204
0.598926
0.595813
0.596515
0.601876
0.611682
0.619213
0.622907
0.625865
0.627226
0.622243
0.619732
0.625541
0.636622
0.654268
0.678116
0.702976
0.721019
0.736951
0.755164
0.764762
0.769324
0.770387
0.768953
0.763238
0.756277
0.74983
0.743491
0.737583
0.732949
0.730188
0.728738
0.727676
0.725562
0.718751
0.703347
0.683722
0.675029
0.675125
0.676822
0.679889
0.68199
0.682049
0.678791
0.672032
0.665824
0.664201
0.664297
0.665073
0.665076
0.664554
0.665051
0.666755
0.669374
0.672676
0.676274
0.680079
0.68277
0.682018
0.679436
0.675098
0.671024
0.669158
0.669126
0.672763
0.682056
0.694363
0.703701
0.708113
0.709608
0.708924
0.70709
0.707793
0.710337
0.712139
0.712623
0.712937
0.713861
0.716241
0.720782
0.725101
0.726121
0.725912
0.725872
0.727343
0.730337
0.734636
0.738213
0.739045
0.737912
0.736158
0.733671
0.732769
0.734562
0.740865
0.749705
0.757186
0.761393
0.76278
0.762906
0.760754
0.758011
0.757135
0.757345
0.758159
0.759915
0.76413
0.772092
0.785035
0.804773
0.825783
0.832243
0.831466
0.829136
0.823922
0.813052
0.794922
0.777139
0.76974
0.767729
0.766588
0.766212
0.768215
0.774916
0.785966
0.800117
0.815707
0.83295
0.847485
0.857467
0.86359
0.865531
0.866639
0.866518
0.864798
0.862823
0.861839
0.861318
0.861326
0.865537
0.878197
0.889786
0.894116
0.897543
0.903601
0.91401
0.924774
0.929345
0.930974
0.926742
0.911795
0.904539
0.903106
0.901726
0.902034
0.907702
0.918771
0.943866
0.529139
0.530476
0.531912
0.534148
0.537487
0.540714
0.542243
0.542312
0.541321
0.539296
0.53777
0.536662
0.535722
0.535256
0.535196
0.535272
0.535425
0.535613
0.535661
0.53579
0.536461
0.537935
0.540006
0.542686
0.547235
0.553902
0.55678
0.556537
0.555347
0.552834
0.549872
0.548474
0.548006
0.547885
0.548321
0.549859
0.552737
0.557115
0.562596
0.56811
0.571862
0.572037
0.571007
0.569601
0.568026
0.566163
0.563854
0.560756
0.557726
0.556862
0.556915
0.557711
0.560455
0.563023
0.563127
0.562479
0.561191
0.559326
0.556669
0.553325
0.549971
0.546383
0.542938
0.542068
0.542726
0.544742
0.547013
0.549034
0.55103
0.553751
0.558269
0.561152
0.561763
0.561923
0.561468
0.560165
0.559497
0.558593
0.556015
0.554408
0.554179
0.554482
0.55561
0.55646
0.556668
0.557485
0.559934
0.56322
0.569571
0.586414
0.610229
0.617353
0.618645
0.61887
0.618779
0.618216
0.615914
0.611578
0.608135
0.609658
0.615778
0.620661
0.623162
0.625116
0.626177
0.622833
0.619579
0.625123
0.636194
0.653518
0.676965
0.703427
0.723534
0.739305
0.756701
0.766138
0.770543
0.771415
0.770699
0.766558
0.760069
0.753196
0.746562
0.740395
0.735006
0.73039
0.726808
0.724446
0.722119
0.717301
0.706456
0.689062
0.674968
0.671473
0.671907
0.67362
0.675325
0.675314
0.673851
0.671662
0.66921
0.665517
0.661198
0.657671
0.654825
0.653185
0.652939
0.65412
0.657325
0.661623
0.665703
0.667486
0.666167
0.662932
0.658269
0.654239
0.652323
0.651526
0.651782
0.655263
0.664216
0.678547
0.691258
0.697279
0.699773
0.700809
0.69998
0.69606
0.689552
0.685098
0.684022
0.683768
0.684226
0.685991
0.689884
0.696051
0.702707
0.708108
0.71236
0.716374
0.722147
0.726432
0.72606
0.724117
0.720903
0.714014
0.706347
0.704002
0.704253
0.70876
0.719205
0.729767
0.735167
0.736944
0.73784
0.737381
0.733875
0.731691
0.732048
0.733088
0.73496
0.739636
0.749882
0.766375
0.786847
0.80297
0.808253
0.807978
0.805719
0.800305
0.789904
0.774904
0.759943
0.75048
0.747502
0.746478
0.746065
0.747564
0.75262
0.760091
0.77003
0.783386
0.799463
0.814394
0.826409
0.839184
0.853907
0.862734
0.864339
0.864174
0.861831
0.859011
0.858216
0.858297
0.862685
0.876455
0.891301
0.896244
0.899278
0.903144
0.908064
0.915323
0.922364
0.925615
0.925521
0.919004
0.913357
0.912798
0.912011
0.91238
0.917286
0.927313
0.94526
0.540998
0.541722
0.543124
0.545711
0.54919
0.552573
0.555336
0.557111
0.557645
0.557852
0.557906
0.557205
0.556064
0.554762
0.553658
0.552841
0.551951
0.550726
0.549802
0.5496
0.549934
0.551458
0.554332
0.558226
0.563967
0.57232
0.57706
0.577202
0.576425
0.574083
0.570727
0.568668
0.56806
0.567889
0.568089
0.569584
0.57277
0.577297
0.58276
0.587506
0.590192
0.590694
0.590043
0.588971
0.588082
0.587004
0.585293
0.582815
0.57998
0.578199
0.577992
0.578597
0.580615
0.582373
0.582385
0.581921
0.581021
0.579484
0.577079
0.574004
0.570597
0.56624
0.560032
0.553422
0.551631
0.552096
0.55404
0.556653
0.55926
0.562896
0.569273
0.574182
0.57522
0.575497
0.574694
0.572743
0.571154
0.568728
0.564751
0.561822
0.561584
0.562237
0.563733
0.56466
0.565371
0.567189
0.570078
0.574298
0.583971
0.606955
0.629898
0.634506
0.635907
0.637349
0.638163
0.637909
0.634667
0.627768
0.623887
0.622266
0.622109
0.623624
0.624933
0.625896
0.626106
0.621589
0.618664
0.624443
0.635359
0.652619
0.676272
0.700832
0.717421
0.730456
0.748396
0.760353
0.765927
0.767623
0.767228
0.762968
0.755189
0.746656
0.738504
0.732154
0.727814
0.72478
0.723057
0.721722
0.719704
0.715885
0.708388
0.694904
0.678972
0.67051
0.668979
0.668886
0.669333
0.670238
0.671254
0.671781
0.671663
0.670109
0.665477
0.657651
0.650654
0.647309
0.646249
0.646607
0.651094
0.657841
0.657841
0.655056
0.651014
0.646391
0.643224
0.641938
0.641312
0.641033
0.641653
0.644877
0.652755
0.666754
0.681872
0.689439
0.691044
0.690732
0.688657
0.682558
0.670618
0.660632
0.657695
0.657227
0.657344
0.658465
0.661631
0.668023
0.677278
0.687075
0.696261
0.704813
0.711334
0.712203
0.710584
0.707145
0.700462
0.689213
0.680632
0.678703
0.678625
0.681426
0.690716
0.703119
0.710375
0.712549
0.713341
0.713757
0.711839
0.707907
0.707401
0.708785
0.710912
0.715234
0.725495
0.743221
0.760973
0.770505
0.77422
0.774888
0.773194
0.768471
0.760722
0.751315
0.74207
0.73457
0.730482
0.729164
0.728834
0.729517
0.732675
0.738085
0.745418
0.755229
0.768349
0.783354
0.796351
0.809706
0.829372
0.849384
0.855502
0.857095
0.856093
0.85161
0.850369
0.85132
0.856952
0.872267
0.889692
0.897161
0.898798
0.900273
0.901666
0.904553
0.913183
0.921742
0.924726
0.924556
0.921926
0.921436
0.921715
0.923105
0.926537
0.932664
0.942127
0.555996
0.55767
0.560211
0.562846
0.564773
0.566284
0.568011
0.570422
0.573376
0.576291
0.579019
0.580397
0.580035
0.579033
0.577611
0.576126
0.574194
0.57066
0.567268
0.566426
0.566486
0.567673
0.570753
0.575769
0.582906
0.592169
0.598554
0.599325
0.598973
0.596677
0.593216
0.591535
0.591124
0.59109
0.592092
0.594968
0.598239
0.601081
0.603946
0.60608
0.607234
0.608028
0.608492
0.608604
0.608235
0.607835
0.607382
0.606675
0.605685
0.604337
0.60332
0.603271
0.603777
0.604296
0.604024
0.603252
0.601981
0.600051
0.59769
0.595505
0.593315
0.590142
0.584565
0.575184
0.568146
0.56745
0.56817
0.570489
0.573138
0.57696
0.584277
0.589568
0.590728
0.590859
0.589268
0.586853
0.584557
0.581287
0.576742
0.571984
0.571087
0.57172
0.573529
0.575271
0.577709
0.581585
0.586806
0.594859
0.609926
0.637683
0.65343
0.655959
0.657345
0.659137
0.660163
0.659572
0.655028
0.64694
0.639932
0.63494
0.63137
0.62923
0.627765
0.627808
0.62744
0.62153
0.617985
0.623599
0.634077
0.650831
0.674695
0.699193
0.714988
0.727038
0.743201
0.756504
0.7627
0.764924
0.76474
0.760688
0.752827
0.743909
0.734898
0.727086
0.722791
0.720869
0.719014
0.717744
0.716379
0.71403
0.709147
0.699097
0.684505
0.672969
0.667861
0.665671
0.665346
0.667735
0.671666
0.673789
0.67402
0.673321
0.669164
0.659186
0.64859
0.644383
0.643387
0.643201
0.64637
0.653087
0.655059
0.653138
0.648957
0.643939
0.640443
0.638903
0.638014
0.637519
0.637883
0.64079
0.648043
0.661134
0.676936
0.68529
0.686085
0.685243
0.68337
0.678435
0.66493
0.647138
0.639463
0.637618
0.636835
0.636685
0.638549
0.645357
0.657078
0.670236
0.682008
0.692561
0.696983
0.697024
0.696251
0.69239
0.681316
0.666573
0.659979
0.659213
0.659385
0.661779
0.668954
0.680265
0.689489
0.69364
0.695033
0.695634
0.695491
0.692389
0.689104
0.689445
0.691116
0.694996
0.704698
0.721364
0.73549
0.740683
0.742036
0.74198
0.740028
0.736567
0.732545
0.728773
0.725828
0.723241
0.719401
0.715917
0.715359
0.715681
0.71707
0.720072
0.72481
0.732083
0.743338
0.759038
0.775261
0.789565
0.80652
0.82556
0.835091
0.839577
0.841224
0.839418
0.838951
0.840557
0.845615
0.861737
0.884377
0.893707
0.894766
0.895306
0.894477
0.895327
0.902092
0.913534
0.923893
0.92685
0.927411
0.927429
0.927952
0.92983
0.932634
0.933727
0.93654
0.575322
0.57811
0.580938
0.582022
0.582485
0.583016
0.584209
0.586578
0.590102
0.594417
0.599506
0.603938
0.60475
0.604224
0.602898
0.600915
0.597762
0.59181
0.586539
0.585486
0.585412
0.586234
0.58941
0.59547
0.60313
0.610644
0.617344
0.620233
0.62059
0.619665
0.617627
0.617209
0.617487
0.618803
0.620852
0.622772
0.623704
0.623862
0.62323
0.622791
0.62309
0.62423
0.625851
0.627605
0.628917
0.629878
0.630799
0.63128
0.631261
0.630528
0.629185
0.627612
0.626542
0.625956
0.625368
0.624804
0.623876
0.622169
0.62017
0.61871
0.617401
0.615226
0.610591
0.600497
0.587819
0.584756
0.584852
0.587054
0.590146
0.594081
0.601587
0.606193
0.607415
0.607414
0.605305
0.602716
0.600306
0.596882
0.590838
0.584858
0.58415
0.585178
0.587898
0.591296
0.59557
0.601631
0.61176
0.626608
0.648622
0.671388
0.676764
0.678153
0.67936
0.680875
0.681514
0.68035
0.675279
0.667493
0.65904
0.651191
0.643915
0.636655
0.631672
0.629464
0.625988
0.61813
0.616296
0.622158
0.63198
0.647854
0.672113
0.698919
0.717096
0.728434
0.743167
0.758168
0.765003
0.767549
0.767129
0.761314
0.752655
0.743966
0.735046
0.725892
0.716471
0.712685
0.71401
0.714831
0.714042
0.711875
0.707761
0.700169
0.687566
0.673688
0.665773
0.663342
0.663177
0.666293
0.673081
0.677628
0.678468
0.678058
0.673854
0.661795
0.648026
0.642791
0.641465
0.640756
0.641944
0.647019
0.650815
0.650529
0.648656
0.64589
0.6429
0.640078
0.638139
0.637341
0.637172
0.639098
0.646342
0.661515
0.679492
0.687564
0.687643
0.686424
0.684183
0.677016
0.660175
0.637982
0.626025
0.623066
0.621903
0.621655
0.624218
0.632419
0.645455
0.65964
0.673591
0.682542
0.684363
0.684216
0.682915
0.676338
0.660499
0.647577
0.64564
0.646095
0.647421
0.6508
0.657278
0.66585
0.673818
0.679454
0.68246
0.683372
0.683503
0.681307
0.677276
0.676676
0.678259
0.683011
0.692463
0.704673
0.71308
0.715264
0.714656
0.712886
0.712119
0.713014
0.714269
0.714025
0.714026
0.713883
0.711745
0.707178
0.703609
0.703871
0.705152
0.707091
0.710469
0.717258
0.730069
0.749097
0.767333
0.780216
0.792359
0.802334
0.808655
0.814431
0.818302
0.820291
0.822092
0.823965
0.828292
0.842666
0.868583
0.885432
0.88807
0.888584
0.886747
0.887012
0.893323
0.904582
0.918114
0.927813
0.931662
0.932448
0.932349
0.93182
0.932532
0.931189
0.931343
0.601543
0.604484
0.604562
0.60366
0.602693
0.602406
0.603081
0.604989
0.607947
0.612226
0.618499
0.625873
0.628981
0.628921
0.627878
0.625347
0.620286
0.612624
0.608229
0.607518
0.607304
0.608188
0.612281
0.618936
0.624902
0.629439
0.6337
0.637263
0.640211
0.642454
0.644037
0.645721
0.64776
0.649335
0.649275
0.648363
0.646783
0.644148
0.640985
0.639627
0.639798
0.640804
0.642597
0.645277
0.648802
0.651878
0.653934
0.654524
0.654402
0.65398
0.652767
0.650449
0.64755
0.645504
0.645206
0.645297
0.645229
0.644329
0.642905
0.641871
0.640782
0.63898
0.635201
0.625927
0.609877
0.603527
0.603096
0.604894
0.607969
0.611872
0.618878
0.622727
0.624029
0.623906
0.621807
0.619683
0.617573
0.613031
0.604595
0.600011
0.600159
0.602795
0.607231
0.61175
0.618032
0.62958
0.647786
0.669664
0.691429
0.698734
0.699439
0.699986
0.70031
0.700351
0.700314
0.698797
0.693588
0.685821
0.677555
0.669107
0.659037
0.646264
0.635687
0.629983
0.624771
0.617004
0.615614
0.620824
0.630051
0.644656
0.669626
0.698886
0.712135
0.720271
0.732632
0.748887
0.757105
0.760326
0.760557
0.756998
0.749201
0.740366
0.731959
0.723273
0.7134
0.704706
0.702245
0.703696
0.70535
0.704741
0.702053
0.696499
0.685972
0.671879
0.663949
0.662361
0.662242
0.665722
0.674746
0.681464
0.683033
0.682364
0.676957
0.663767
0.649048
0.642792
0.640937
0.640021
0.640398
0.643878
0.647432
0.648971
0.649617
0.649675
0.648861
0.646592
0.643399
0.640972
0.640095
0.640428
0.646875
0.664452
0.68251
0.687633
0.687351
0.686353
0.683883
0.674667
0.651786
0.628225
0.621228
0.6196
0.618566
0.618186
0.620151
0.627316
0.639571
0.655738
0.67008
0.675674
0.676175
0.675715
0.672883
0.661671
0.644156
0.63808
0.63846
0.639536
0.641295
0.645038
0.65178
0.658629
0.663697
0.66836
0.67312
0.676278
0.677216
0.677333
0.675511
0.67453
0.67542
0.679432
0.687028
0.693804
0.69595
0.695609
0.694011
0.69329
0.694371
0.69813
0.703083
0.706058
0.707356
0.707562
0.70595
0.700593
0.694158
0.693801
0.695678
0.698051
0.701535
0.708989
0.724308
0.745198
0.763735
0.775534
0.781435
0.784104
0.786803
0.790114
0.794253
0.797954
0.800883
0.803875
0.809352
0.822448
0.846399
0.868271
0.874391
0.876041
0.876242
0.879223
0.886329
0.897232
0.910833
0.9234
0.930407
0.931903
0.931506
0.930042
0.928767
0.926102
0.924583
0.633051
0.633141
0.63135
0.629213
0.627061
0.62559
0.625215
0.625852
0.627906
0.631159
0.636251
0.643496
0.648578
0.6494
0.648925
0.64596
0.639774
0.633907
0.632279
0.631652
0.631492
0.633266
0.638653
0.644552
0.647708
0.649621
0.65197
0.655123
0.659293
0.664933
0.670595
0.672885
0.672674
0.671811
0.67049
0.668536
0.665763
0.662152
0.658899
0.65727
0.657182
0.657938
0.659501
0.662079
0.665947
0.669671
0.67143
0.672116
0.672781
0.672685
0.672048
0.670146
0.667047
0.665051
0.665204
0.665898
0.665777
0.664012
0.661536
0.659537
0.657857
0.655795
0.652164
0.644433
0.629917
0.622732
0.622148
0.623824
0.626447
0.629924
0.635932
0.639356
0.640627
0.640296
0.638282
0.636797
0.634163
0.62726
0.619708
0.618473
0.620001
0.625283
0.629353
0.63405
0.646054
0.665874
0.692577
0.714096
0.718816
0.718685
0.717927
0.717722
0.717354
0.717133
0.717584
0.715985
0.710265
0.70279
0.695228
0.686517
0.672912
0.654586
0.638748
0.63001
0.623972
0.617967
0.616356
0.620078
0.628904
0.642731
0.664722
0.695092
0.708998
0.715283
0.725507
0.742124
0.751811
0.755784
0.756282
0.753948
0.747098
0.737755
0.72849
0.720001
0.709999
0.698839
0.694119
0.694543
0.697113
0.69828
0.696663
0.691369
0.680599
0.667613
0.661587
0.660567
0.660708
0.664846
0.674926
0.681298
0.681324
0.679349
0.674032
0.663276
0.651552
0.646063
0.644223
0.643241
0.643117
0.644752
0.645913
0.646096
0.646534
0.647847
0.649287
0.649886
0.64963
0.648688
0.648307
0.64947
0.656558
0.672263
0.684741
0.686405
0.685761
0.684275
0.680089
0.669192
0.649652
0.629713
0.621409
0.619194
0.618363
0.618447
0.621036
0.628456
0.642582
0.659512
0.668083
0.669746
0.669754
0.66849
0.663219
0.649386
0.636407
0.63418
0.63456
0.635751
0.638022
0.642343
0.648901
0.654783
0.658551
0.661923
0.666203
0.670721
0.673349
0.674353
0.67454
0.67453
0.67591
0.679778
0.684037
0.684445
0.683486
0.681502
0.680582
0.681334
0.684377
0.691228
0.699432
0.704243
0.705371
0.705031
0.703298
0.697552
0.688977
0.687248
0.689336
0.692343
0.696413
0.704478
0.721173
0.745439
0.765204
0.772007
0.773394
0.774568
0.775084
0.773871
0.775741
0.778973
0.782287
0.786388
0.793094
0.805459
0.824796
0.843767
0.853467
0.858278
0.863045
0.869658
0.878781
0.890403
0.903195
0.915743
0.92555
0.928023
0.927329
0.925582
0.923627
0.920754
0.91824
0.660883
0.659479
0.656914
0.65566
0.654421
0.651621
0.649655
0.64937
0.650356
0.652429
0.655495
0.659719
0.663749
0.66554
0.665559
0.662616
0.659303
0.658557
0.6583
0.658141
0.658682
0.661775
0.667264
0.670275
0.670805
0.671354
0.67265
0.675091
0.679087
0.685193
0.690025
0.690547
0.689801
0.688882
0.688215
0.687031
0.684837
0.681508
0.677956
0.675509
0.673851
0.673893
0.674943
0.676968
0.679997
0.683004
0.684863
0.686605
0.689614
0.69194
0.691926
0.690873
0.688603
0.686872
0.685738
0.683719
0.680055
0.676222
0.673381
0.671608
0.670497
0.669251
0.666732
0.66076
0.649216
0.642232
0.641705
0.643099
0.644807
0.6477
0.652506
0.655357
0.656336
0.655562
0.653417
0.651486
0.647526
0.640887
0.638397
0.63905
0.644024
0.648493
0.651386
0.661256
0.682887
0.713583
0.732423
0.73672
0.736001
0.733509
0.732868
0.732772
0.733485
0.734629
0.734612
0.731276
0.725284
0.719126
0.711344
0.697828
0.677142
0.654159
0.638572
0.630586
0.625096
0.621479
0.619244
0.621427
0.629259
0.641817
0.660436
0.688283
0.706364
0.71102
0.718716
0.73394
0.746242
0.750961
0.751981
0.750758
0.745187
0.735994
0.725778
0.715769
0.704568
0.692161
0.686001
0.6857
0.687295
0.688483
0.6869
0.681686
0.672284
0.661946
0.657351
0.656783
0.657264
0.66161
0.670291
0.674233
0.673506
0.670933
0.665927
0.658124
0.652006
0.650826
0.650078
0.649429
0.649593
0.648703
0.646955
0.645323
0.644799
0.645322
0.647611
0.651233
0.653873
0.655066
0.656398
0.659915
0.667946
0.679792
0.687576
0.68796
0.686212
0.682137
0.674792
0.662747
0.646591
0.632175
0.624791
0.621907
0.620863
0.621515
0.625441
0.635358
0.650931
0.661422
0.663549
0.663667
0.662972
0.660196
0.653138
0.642398
0.635507
0.633469
0.633448
0.634464
0.637349
0.642698
0.648608
0.65237
0.65496
0.657729
0.661222
0.665571
0.669728
0.672696
0.674554
0.676084
0.678301
0.680382
0.68024
0.679109
0.676373
0.673448
0.67309
0.674327
0.679175
0.689318
0.699978
0.704852
0.705459
0.705254
0.703534
0.697269
0.686855
0.683631
0.685304
0.688364
0.693
0.701714
0.71981
0.747046
0.765104
0.768802
0.769543
0.769986
0.768448
0.764283
0.764584
0.767287
0.770644
0.775485
0.783154
0.794606
0.808617
0.820842
0.829713
0.837478
0.846382
0.857443
0.870185
0.882797
0.894696
0.906954
0.917128
0.92072
0.920671
0.919746
0.917988
0.915923
0.913611
0.684467
0.683911
0.68267
0.682864
0.684368
0.682069
0.67813
0.675046
0.674415
0.674819
0.676075
0.676899
0.677759
0.679223
0.680369
0.681117
0.682105
0.683276
0.683732
0.683877
0.684984
0.688657
0.692952
0.69404
0.69435
0.694586
0.69414
0.69475
0.696995
0.700719
0.704164
0.705228
0.705492
0.706178
0.706899
0.70618
0.704122
0.700586
0.695621
0.690654
0.687716
0.687655
0.688536
0.690206
0.692737
0.695903
0.699337
0.704
0.710229
0.713866
0.713972
0.712884
0.709713
0.705329
0.700416
0.694031
0.688315
0.685521
0.684479
0.683987
0.683901
0.684607
0.683582
0.678731
0.668002
0.660437
0.659806
0.66067
0.661774
0.66419
0.667427
0.669262
0.669815
0.668722
0.666561
0.66376
0.659639
0.658023
0.658645
0.66389
0.669317
0.669389
0.676126
0.698566
0.731072
0.749018
0.75262
0.751817
0.747937
0.746516
0.746159
0.746684
0.748919
0.749881
0.748554
0.744478
0.739264
0.731169
0.71817
0.699126
0.674477
0.651817
0.64005
0.633257
0.628761
0.627824
0.625603
0.625362
0.630817
0.641501
0.656977
0.680703
0.702651
0.707814
0.713145
0.726736
0.740993
0.746443
0.748
0.747073
0.741745
0.733278
0.724124
0.713785
0.6998
0.684324
0.676003
0.674818
0.675666
0.677321
0.675523
0.670482
0.663694
0.656886
0.653003
0.651868
0.65174
0.653865
0.658792
0.661468
0.660657
0.65732
0.652224
0.649719
0.649957
0.651776
0.653965
0.654195
0.6536
0.652215
0.649094
0.645876
0.644509
0.643982
0.644571
0.648012
0.654037
0.660321
0.666109
0.672046
0.678033
0.683136
0.686459
0.686938
0.684841
0.679441
0.670751
0.658889
0.645143
0.633991
0.629179
0.627612
0.627327
0.629453
0.635871
0.647083
0.656634
0.658806
0.658552
0.657818
0.655514
0.650666
0.644198
0.63962
0.63704
0.63567
0.635438
0.636795
0.640479
0.645499
0.648821
0.650408
0.651859
0.653923
0.657154
0.661609
0.667193
0.672736
0.676863
0.679259
0.680035
0.679768
0.677715
0.672705
0.667037
0.665805
0.666106
0.668556
0.676747
0.691127
0.703321
0.706222
0.706661
0.706756
0.704871
0.698157
0.687632
0.682795
0.683407
0.686061
0.691194
0.700767
0.720158
0.747655
0.763172
0.76555
0.766192
0.766232
0.762816
0.757091
0.75752
0.760386
0.763921
0.768768
0.776793
0.787662
0.797948
0.805486
0.811975
0.819546
0.829881
0.843814
0.858574
0.870957
0.882996
0.897354
0.90768
0.9107
0.911556
0.911638
0.911406
0.910943
0.909263
0.705933
0.707525
0.707407
0.708514
0.710985
0.709268
0.70548
0.701168
0.697626
0.696049
0.695441
0.694589
0.693803
0.694506
0.696785
0.699729
0.701653
0.702126
0.702461
0.703703
0.706745
0.71183
0.716038
0.71724
0.717445
0.716975
0.714564
0.712851
0.713275
0.715042
0.717935
0.719797
0.720931
0.72211
0.722171
0.721049
0.718484
0.714095
0.707941
0.702344
0.700593
0.700792
0.70184
0.7038
0.706739
0.711036
0.717326
0.72506
0.730009
0.730784
0.730048
0.727202
0.721892
0.715413
0.708787
0.701787
0.697448
0.696777
0.696682
0.696739
0.698348
0.700247
0.698641
0.69265
0.681457
0.675744
0.675369
0.676367
0.677638
0.67895
0.680112
0.680613
0.680303
0.679337
0.678324
0.676333
0.675674
0.677158
0.682953
0.689753
0.688951
0.69228
0.711921
0.745205
0.763429
0.766326
0.7656
0.760976
0.758348
0.758017
0.75823
0.759859
0.761119
0.761151
0.759413
0.755024
0.746904
0.734976
0.718796
0.697247
0.669522
0.649389
0.642389
0.6388
0.636899
0.636186
0.633738
0.631508
0.63408
0.642299
0.654946
0.673688
0.697237
0.705531
0.709146
0.718514
0.734221
0.74184
0.744243
0.743793
0.738739
0.73018
0.722134
0.713379
0.698522
0.678783
0.666852
0.663565
0.662842
0.664644
0.664831
0.66098
0.655629
0.652007
0.649687
0.647392
0.645731
0.64541
0.647111
0.646984
0.643887
0.639075
0.638393
0.640778
0.644394
0.648502
0.652661
0.653902
0.653405
0.651973
0.648634
0.64592
0.644187
0.643005
0.642669
0.645482
0.65408
0.666467
0.677149
0.681846
0.682468
0.682464
0.682862
0.682907
0.680595
0.675996
0.669094
0.659096
0.646788
0.637154
0.634551
0.634582
0.636159
0.640829
0.648783
0.655894
0.657698
0.657504
0.656443
0.653912
0.649031
0.642416
0.63865
0.638227
0.638421
0.638678
0.639785
0.642476
0.645684
0.647108
0.647358
0.647807
0.648955
0.650827
0.653999
0.659421
0.667353
0.675616
0.679962
0.681027
0.681197
0.679367
0.672472
0.665409
0.664437
0.664353
0.664622
0.666896
0.675919
0.694535
0.707091
0.708729
0.709265
0.709166
0.706356
0.698712
0.688755
0.685052
0.685347
0.68728
0.692205
0.701927
0.720189
0.745519
0.760647
0.763308
0.763932
0.76379
0.760231
0.755105
0.755815
0.758835
0.763096
0.768759
0.777429
0.786821
0.792431
0.796192
0.800685
0.807394
0.817894
0.832431
0.84672
0.857976
0.87006
0.88699
0.898262
0.901308
0.903104
0.903976
0.904362
0.906215
0.907414
0.721573
0.723439
0.72403
0.725681
0.729615
0.729755
0.727802
0.7251
0.721815
0.718833