/*--------------------------------*- C++ -*----------------------------------*\
  =========                 |
  \\      /  F ield         | OpenFOAM: The Open Source CFD Toolbox
   \\    /   O peration     | Website:  https://openfoam.org
    \\  /    A nd           | Version:  7
     \\/     M anipulation  |
\*---------------------------------------------------------------------------*/
FoamFile
{
    version     2.0;
    format      ascii;
    class       volVectorField;
    location    "0.9";
    object      U;
}
// * * * * * * * * * * * * * * * * * * * * * * * * * * * * * * * * * * * * * //

dimensions      [0 1 -1 0 0 0 0];

internalField   nonuniform List<vector> 
16192
(
(2.90923 0.00688077 0)
(2.91949 0.00538584 0)
(2.9348 0.00249832 0)
(2.94102 -0.000341055 0)
(2.94146 -0.00111612 0)
(2.94073 -0.00161473 0)
(2.93509 -0.00196071 0)
(2.92383 -0.0008004 0)
(2.91643 0.00111164 0)
(2.91542 0.00157423 0)
(2.91586 0.00156458 0)
(2.91627 0.00154603 0)
(2.91706 0.00151071 0)
(2.91872 0.00138294 0)
(2.92165 0.00092665 0)
(2.92557 -0.0003769 0)
(2.92791 -0.00185826 0)
(2.92806 -0.00236205 0)
(2.92761 -0.0031313 0)
(2.92763 -0.00403067 0)
(2.92823 -0.00452756 0)
(2.92979 -0.00557181 0)
(2.93275 -0.00656532 0)
(2.93876 -0.00692586 0)
(2.94847 -0.00659398 0)
(2.95897 -0.00623933 0)
(2.96273 -0.00605295 0)
(2.96472 -0.0056433 0)
(2.96595 -0.00468661 0)
(2.96622 -0.00342606 0)
(2.96751 -0.00296114 0)
(2.9691 -0.00287904 0)
(2.9721 -0.0029263 0)
(2.97689 -0.00305547 0)
(2.98115 -0.00308043 0)
(2.98411 -0.00322752 0)
(2.98699 -0.00361502 0)
(2.99226 -0.00427439 0)
(3.00374 -0.0052969 0)
(3.02632 -0.00627524 0)
(3.04379 -0.0064987 0)
(3.04777 -0.00625645 0)
(3.05271 -0.00526359 0)
(3.05631 -0.00464465 0)
(3.05847 -0.00418883 0)
(3.05816 -0.00348313 0)
(3.05549 -0.0026172 0)
(3.05508 -0.00243147 0)
(3.05598 -0.00259769 0)
(3.05677 -0.00301922 0)
(3.05899 -0.00364053 0)
(3.06319 -0.00381696 0)
(3.06988 -0.0029837 0)
(3.07642 -0.00189208 0)
(3.07804 -0.00158317 0)
(3.07954 -0.00145858 0)
(3.08137 -0.00105432 0)
(3.08171 0.000267421 0)
(3.08119 0.00188047 0)
(3.08091 0.00240626 0)
(3.08043 0.00251229 0)
(3.07852 0.00265692 0)
(3.07558 0.00276415 0)
(3.07331 0.00291907 0)
(3.07371 0.00300191 0)
(3.07949 0.00258672 0)
(3.08648 0.0012529 0)
(3.08764 -0.000194197 0)
(3.08535 -0.00137622 0)
(3.08271 -0.00206248 0)
(3.07939 -0.00222408 0)
(3.06963 -0.00187414 0)
(3.06133 -0.00115748 0)
(3.05963 -0.00095024 0)
(3.05846 -0.000887757 0)
(3.05844 -0.000754719 0)
(3.06183 -0.000617735 0)
(3.07133 -0.000720811 0)
(3.08043 -0.00093414 0)
(3.08062 -0.000785797 0)
(3.07851 -0.000485322 0)
(3.07488 0.000433959 0)
(3.06484 0.00200281 0)
(3.05728 0.00299896 0)
(3.05398 0.00268242 0)
(3.05083 0.00125088 0)
(3.04968 -0.00090818 0)
(3.05071 -0.00325382 0)
(3.05372 -0.00371568 0)
(3.05616 -0.00289115 0)
(3.0607 -0.00346637 0)
(3.07356 -0.00485997 0)
(3.08365 -0.00564034 0)
(3.08574 -0.0055196 0)
(3.08776 -0.00388715 0)
(3.08504 -0.000174628 0)
(3.0788 0.00361517 0)
(3.07572 0.00491929 0)
(3.06983 0.00630263 0)
(3.06469 0.00668512 0)
(3.06498 0.00729025 0)
(3.05342 0.00798186 0)
(3.03269 0.00818841 0)
(3.01285 0.00875213 0)
(2.98883 0.00964914 0)
(2.95316 0.0119667 0)
(2.93924 0.0130051 0)
(2.92236 0.0142345 0)
(2.90465 0.0170192 0)
(2.88391 0.0200402 0)
(2.86471 0.0210385 0)
(2.85493 0.0203171 0)
(2.84379 0.0207254 0)
(2.83224 0.0212999 0)
(2.80615 0.0207444 0)
(2.76968 0.0202368 0)
(2.73944 0.0193223 0)
(2.71228 0.0189499 0)
(2.6811 0.0199014 0)
(2.65135 0.0215151 0)
(2.62162 0.0224507 0)
(2.59212 0.0226057 0)
(2.56437 0.0218138 0)
(2.53958 0.0200569 0)
(2.51864 0.0182142 0)
(2.50148 0.0167349 0)
(2.48692 0.0154887 0)
(2.47112 0.0140751 0)
(2.44846 0.0121873 0)
(2.41269 0.0110194 0)
(2.36317 0.0120547 0)
(2.33193 0.013367 0)
(2.32539 0.0132091 0)
(2.32094 0.0115761 0)
(2.32363 0.00792393 0)
(2.32354 0.00532847 0)
(2.31956 0.00438986 0)
(2.30274 0.00371182 0)
(2.26734 0.0051232 0)
(2.24469 0.00674148 0)
(2.24048 0.00746083 0)
(2.23849 0.00858921 0)
(2.24631 0.0077852 0)
(2.26645 0.00315207 0)
(2.28039 -0.002966 0)
(2.28324 -0.00551025 0)
(2.28234 -0.00614494 0)
(2.27681 -0.00626229 0)
(2.26959 -0.00541718 0)
(2.26935 -0.00408894 0)
(2.27144 -0.0032516 0)
(2.27507 -0.00137266 0)
(2.28383 0.000108431 0)
(2.29864 -0.00132265 0)
(2.31422 -0.00593431 0)
(2.32659 -0.0113606 0)
(2.33674 -0.0158061 0)
(2.34692 -0.0191132 0)
(2.35622 -0.0208055 0)
(2.36223 -0.0213575 0)
(2.36743 -0.0217462 0)
(2.36679 -0.0196346 0)
(2.36756 -0.0134778 0)
(2.3724 -0.00881773 0)
(2.37687 -0.00560838 0)
(2.38486 -0.000208082 0)
(2.3904 0.00443049 0)
(2.39314 0.00702061 0)
(2.39751 0.00762608 0)
(2.40992 0.00553442 0)
(2.43505 0.00115618 0)
(2.45741 -0.00518939 0)
(2.46486 -0.00867546 0)
(2.46608 -0.00926098 0)
(2.46508 -0.00963987 0)
(2.45865 -0.00990943 0)
(2.44795 -0.00991721 0)
(2.4371 -0.00935696 0)
(2.4283 -0.00682371 0)
(2.42387 -0.00136041 0)
(2.42475 0.00448873 0)
(2.42707 0.00751728 0)
(2.43255 0.00964421 0)
(2.44921 0.00958479 0)
(2.47953 0.00513531 0)
(2.51255 -0.00113285 0)
(2.5326 -0.00724727 0)
(2.54335 -0.0107099 0)
(2.54882 -0.0114106 0)
(2.54946 -0.0110965 0)
(2.54619 -0.00987785 0)
(2.53421 -0.00742722 0)
(2.51994 -0.0040889 0)
(2.51541 -0.00333659 0)
(2.5114 -0.00350265 0)
(2.51092 -0.00398396 0)
(2.51328 -0.00478742 0)
(2.51302 -0.00510618 0)
(2.51218 -0.00513902 0)
(2.50949 -0.00478073 0)
(2.50669 -0.00401811 0)
(2.50709 -0.00376392 0)
(2.50838 -0.00336768 0)
(2.51271 -0.000626606 0)
(2.52351 0.00446599 0)
(2.54639 0.00866566 0)
(2.57495 0.00888657 0)
(2.58849 0.00565127 0)
(2.5901 0.00290407 0)
(2.59007 0.00128216 0)
(2.58788 -0.00194676 0)
(2.57523 -0.005781 0)
(2.55636 -0.00819477 0)
(2.55807 -0.00892264 0)
(2.56512 -0.00909794 0)
(2.57285 -0.00892044 0)
(2.57979 -0.00865028 0)
(2.58667 -0.00912805 0)
(2.60178 -0.00802455 0)
(2.62542 -0.00356059 0)
(2.65395 -0.00102835 0)
(2.67213 -0.00236728 0)
(2.66996 -0.00306605 0)
(2.66307 -0.00307416 0)
(2.65668 -0.00294607 0)
(2.64716 -0.00274566 0)
(2.63707 -0.0026366 0)
(2.63519 -0.00166603 0)
(2.63754 -0.000937677 0)
(2.6402 -0.000545678 0)
(2.64427 -0.000428186 0)
(2.64999 -0.000498747 0)
(2.66187 -0.00087533 0)
(2.67786 -0.00155158 0)
(2.69309 -0.00192354 0)
(2.70435 -0.00164953 0)
(2.71155 -0.000822285 0)
(2.71651 -0.000406676 0)
(2.72075 -0.00110217 0)
(2.72843 -0.00291933 0)
(2.73216 -0.00458859 0)
(2.72068 -0.00490134 0)
(2.71008 -0.00493654 0)
(2.6982 -0.00499839 0)
(2.67386 -0.00476823 0)
(2.64152 -0.0032778 0)
(2.62123 4.77067e-05 0)
(2.61669 0.00310447 0)
(2.61617 0.00443506 0)
(2.61639 0.00527517 0)
(2.62086 0.00564049 0)
(2.63805 0.00461457 0)
(2.68722 -0.00104393 0)
(2.91552 0.0154363 0)
(2.92307 0.016739 0)
(2.93594 0.0122101 0)
(2.94286 0.00498858 0)
(2.94366 -0.00115776 0)
(2.94302 -0.0061502 0)
(2.94118 -0.0106269 0)
(2.93581 -0.00925649 0)
(2.92774 -0.0026463 0)
(2.92165 0.00353512 0)
(2.92014 0.00581599 0)
(2.92051 0.00638824 0)
(2.92087 0.00660203 0)
(2.92179 0.00650357 0)
(2.92399 0.00546845 0)
(2.92747 0.00341117 0)
(2.93101 0.00104027 0)
(2.93281 -0.00148652 0)
(2.93368 -0.00336426 0)
(2.93451 -0.00499644 0)
(2.9354 -0.00719388 0)
(2.9368 -0.00973899 0)
(2.93927 -0.0116926 0)
(2.9439 -0.0130224 0)
(2.95305 -0.0146796 0)
(2.96548 -0.0165947 0)
(2.9714 -0.0172125 0)
(2.97252 -0.0171104 0)
(2.9731 -0.0158817 0)
(2.97279 -0.0133006 0)
(2.97383 -0.0111494 0)
(2.9758 -0.0101082 0)
(2.97864 -0.00941502 0)
(2.98321 -0.00821987 0)
(2.98646 -0.00581693 0)
(2.98965 -0.00318205 0)
(2.99266 -0.00138368 0)
(2.99707 -0.000959124 0)
(3.00745 -0.00254897 0)
(3.02866 -0.00712027 0)
(3.05082 -0.0117699 0)
(3.05742 -0.0127348 0)
(3.06082 -0.0123528 0)
(3.06495 -0.0120963 0)
(3.06806 -0.0115965 0)
(3.06852 -0.00962443 0)
(3.06383 -0.00534971 0)
(3.05794 -0.00175852 0)
(3.05729 -0.00125714 0)
(3.05791 -0.00153454 0)
(3.05875 -0.00232728 0)
(3.0615 -0.00383782 0)
(3.06931 -0.00538323 0)
(3.08011 -0.00533128 0)
(3.0841 -0.00485715 0)
(3.08566 -0.00493835 0)
(3.08772 -0.00573536 0)
(3.08837 -0.00495189 0)
(3.087 -0.000660526 0)
(3.08427 0.00420326 0)
(3.0816 0.00638877 0)
(3.07953 0.00669756 0)
(3.07627 0.00688759 0)
(3.07374 0.0075479 0)
(3.07377 0.00855062 0)
(3.07841 0.00849077 0)
(3.08583 0.00628907 0)
(3.08871 0.00364844 0)
(3.08718 0.00131805 0)
(3.08389 -0.00197866 0)
(3.08016 -0.00598054 0)
(3.07362 -0.00826639 0)
(3.06626 -0.0073916 0)
(3.06328 -0.00609249 0)
(3.06251 -0.00467864 0)
(3.06279 -0.00251426 0)
(3.06544 3.89045e-05 0)
(3.07188 0.00167914 0)
(3.07963 0.000731233 0)
(3.08062 -0.000632388 0)
(3.07831 -0.000865875 0)
(3.07539 -0.000836322 0)
(3.06904 0.000924467 0)
(3.06056 0.0028767 0)
(3.05712 0.00267643 0)
(3.05353 0.000760194 0)
(3.05104 -0.00315912 0)
(3.04977 -0.00922154 0)
(3.05256 -0.0143138 0)
(3.06044 -0.0133159 0)
(3.0668 -0.00759233 0)
(3.07409 -0.00463715 0)
(3.08243 -0.00469607 0)
(3.08506 -0.00509368 0)
(3.08516 -0.00539937 0)
(3.08392 -0.00417539 0)
(3.08073 0.00229159 0)
(3.07854 0.00603387 0)
(3.07314 0.0110865 0)
(3.0665 0.0155826 0)
(3.06512 0.0193584 0)
(3.05504 0.0220441 0)
(3.03478 0.022866 0)
(3.01534 0.0246575 0)
(2.99362 0.0252567 0)
(2.95854 0.0252844 0)
(2.94321 0.0246721 0)
(2.92389 0.0243502 0)
(2.90444 0.0255634 0)
(2.8839 0.0285544 0)
(2.86571 0.0313071 0)
(2.85706 0.0326067 0)
(2.84756 0.0336146 0)
(2.83674 0.0348756 0)
(2.81426 0.0361601 0)
(2.77881 0.0359518 0)
(2.74993 0.0354126 0)
(2.72384 0.0358441 0)
(2.69442 0.0384301 0)
(2.66565 0.0419142 0)
(2.63667 0.0440932 0)
(2.60781 0.0449649 0)
(2.5803 0.044424 0)
(2.55469 0.0419258 0)
(2.53174 0.0382801 0)
(2.51274 0.0348556 0)
(2.49762 0.0322754 0)
(2.48268 0.0299629 0)
(2.4637 0.026563 0)
(2.4327 0.0227883 0)
(2.38298 0.0249284 0)
(2.34298 0.0293856 0)
(2.33239 0.0288906 0)
(2.32773 0.0262047 0)
(2.32871 0.0185507 0)
(2.32844 0.00999376 0)
(2.32546 0.00653182 0)
(2.31285 0.00348946 0)
(2.2807 0.00826372 0)
(2.25234 0.0164265 0)
(2.24683 0.0191974 0)
(2.24369 0.0233547 0)
(2.24866 0.0274658 0)
(2.26167 0.0239951 0)
(2.27412 0.0127967 0)
(2.27926 0.00103505 0)
(2.28017 -0.00690807 0)
(2.27849 -0.0117017 0)
(2.2765 -0.0145538 0)
(2.2778 -0.0140896 0)
(2.28066 -0.0118003 0)
(2.28767 -0.00671036 0)
(2.299 0.000481549 0)
(2.31214 0.00726408 0)
(2.32328 0.00905329 0)
(2.33087 0.00490526 0)
(2.33774 -0.00339399 0)
(2.34553 -0.0155952 0)
(2.35498 -0.0304129 0)
(2.36729 -0.0441638 0)
(2.37788 -0.0517786 0)
(2.3832 -0.0523263 0)
(2.38693 -0.0461083 0)
(2.38766 -0.0326978 0)
(2.38999 -0.0198565 0)
(2.39383 -0.0100693 0)
(2.39643 -0.00168554 0)
(2.39892 0.0066873 0)
(2.4038 0.0165151 0)
(2.41382 0.0261458 0)
(2.42842 0.0251946 0)
(2.44405 0.0135207 0)
(2.45593 -0.00109034 0)
(2.46091 -0.0103592 0)
(2.46194 -0.0137325 0)
(2.45964 -0.0175177 0)
(2.45102 -0.0205476 0)
(2.44235 -0.0225694 0)
(2.43854 -0.0210478 0)
(2.43634 -0.0164407 0)
(2.43661 -0.0100447 0)
(2.43948 -0.00305121 0)
(2.44716 0.00670393 0)
(2.46308 0.0195266 0)
(2.48437 0.0279826 0)
(2.50482 0.0233152 0)
(2.51951 0.0111286 0)
(2.52967 -0.00348927 0)
(2.53782 -0.0170823 0)
(2.54188 -0.025121 0)
(2.54152 -0.0274298 0)
(2.53602 -0.0265837 0)
(2.52448 -0.0189816 0)
(2.51514 -0.0102941 0)
(2.51191 -0.00688498 0)
(2.5088 -0.00584102 0)
(2.50882 -0.00795586 0)
(2.50978 -0.0117129 0)
(2.5097 -0.0137181 0)
(2.5092 -0.014991 0)
(2.50846 -0.0153842 0)
(2.50881 -0.0151642 0)
(2.51065 -0.0144903 0)
(2.51769 -0.0126805 0)
(2.53469 -0.00615131 0)
(2.56168 0.00735915 0)
(2.5838 0.0168884 0)
(2.59005 0.0177924 0)
(2.59053 0.016689 0)
(2.58997 0.0130781 0)
(2.58553 0.0068193 0)
(2.57103 -0.00307372 0)
(2.55311 -0.0144721 0)
(2.55373 -0.0199214 0)
(2.55889 -0.02163 0)
(2.56499 -0.0224783 0)
(2.57096 -0.0199846 0)
(2.57753 -0.0170885 0)
(2.5893 -0.0116429 0)
(2.60962 0.000614979 0)
(2.63761 0.00661031 0)
(2.66326 -0.00226343 0)
(2.66968 -0.0105398 0)
(2.66291 -0.0107347 0)
(2.65811 -0.00998846 0)
(2.65087 -0.00996313 0)
(2.64347 -0.00961187 0)
(2.64016 -0.00762066 0)
(2.64163 -0.00562522 0)
(2.64416 -0.00383979 0)
(2.64794 -0.00208313 0)
(2.65343 -8.329e-05 0)
(2.66326 0.00171363 0)
(2.67487 0.0014657 0)
(2.68856 -0.00133891 0)
(2.70275 -0.0023182 0)
(2.71223 -0.000643337 0)
(2.71715 0.00123574 0)
(2.72026 0.00262879 0)
(2.72473 0.00152228 0)
(2.72899 -0.00345272 0)
(2.71841 -0.00531858 0)
(2.70785 -0.00576482 0)
(2.69671 -0.00716959 0)
(2.67289 -0.0102047 0)
(2.64271 -0.0127293 0)
(2.62404 -0.0091965 0)
(2.61991 -0.00383693 0)
(2.61981 0.00111212 0)
(2.6211 0.00480165 0)
(2.62555 0.00973314 0)
(2.63929 0.0166474 0)
(2.68148 0.00885078 0)
(2.93359 0.0189288 0)
(2.9404 0.022562 0)
(2.94668 0.0203383 0)
(2.94886 0.0139225 0)
(2.94953 0.00684101 0)
(2.95009 -0.000972518 0)
(2.94953 -0.00672923 0)
(2.94726 -0.0102125 0)
(2.94423 -0.0108116 0)
(2.94016 -0.00784258 0)
(2.93683 -0.00456286 0)
(2.93646 -0.00232996 0)
(2.93741 -0.000300705 0)
(2.93871 0.00224343 0)
(2.94024 0.00447239 0)
(2.94142 0.00501599 0)
(2.94303 0.00354778 0)
(2.9458 -0.000785502 0)
(2.94802 -0.00445678 0)
(2.94964 -0.00712115 0)
(2.95145 -0.00946389 0)
(2.95329 -0.0109491 0)
(2.95541 -0.0118388 0)
(2.95978 -0.0128705 0)
(2.96918 -0.0140633 0)
(2.98204 -0.0149104 0)
(2.98813 -0.0149063 0)
(2.98876 -0.0147304 0)
(2.98878 -0.0143548 0)
(2.9885 -0.0145476 0)
(2.98906 -0.0149203 0)
(2.99065 -0.0159755 0)
(2.99342 -0.018067 0)
(2.99696 -0.0205906 0)
(3.00083 -0.0225327 0)
(3.00512 -0.0224268 0)
(3.00952 -0.0205317 0)
(3.01586 -0.0176851 0)
(3.02656 -0.0150284 0)
(3.04408 -0.0137085 0)
(3.06246 -0.0147899 0)
(3.07113 -0.0168454 0)
(3.07439 -0.0187371 0)
(3.07707 -0.0205668 0)
(3.0793 -0.0218691 0)
(3.08042 -0.0223024 0)
(3.07807 -0.0211158 0)
(3.07181 -0.0177019 0)
(3.06715 -0.0141218 0)
(3.0679 -0.0118715 0)
(3.06972 -0.0101414 0)
(3.07173 -0.00811043 0)
(3.07798 -0.00605072 0)
(3.08891 -0.00635038 0)
(3.09416 -0.00772923 0)
(3.09479 -0.00827634 0)
(3.09503 -0.00952406 0)
(3.09477 -0.0100958 0)
(3.09449 -0.0083996 0)
(3.09348 -0.00414515 0)
(3.08944 0.00109313 0)
(3.08426 0.00365728 0)
(3.08245 0.00369139 0)
(3.08042 0.00429984 0)
(3.08012 0.00568363 0)
(3.0834 0.00713971 0)
(3.08905 0.00711412 0)
(3.09167 0.0053742 0)
(3.09057 0.00326477 0)
(3.0883 0.00126627 0)
(3.08431 -0.00152252 0)
(3.07948 -0.00410397 0)
(3.07487 -0.00622474 0)
(3.07266 -0.0071678 0)
(3.07131 -0.00728523 0)
(3.07113 -0.00647677 0)
(3.07311 -0.00431016 0)
(3.07748 -0.00126684 0)
(3.0817 -0.000153282 0)
(3.08305 -0.000602265 0)
(3.08177 -0.000145628 0)
(3.07847 0.00103907 0)
(3.07336 0.00290197 0)
(3.06823 0.00319838 0)
(3.06433 0.00241539 0)
(3.06135 -0.000981136 0)
(3.05944 -0.00622857 0)
(3.05869 -0.0124527 0)
(3.06326 -0.0210847 0)
(3.07585 -0.0312749 0)
(3.0867 -0.0320591 0)
(3.08823 -0.0230581 0)
(3.0902 -0.0158312 0)
(3.0898 -0.00982082 0)
(3.08727 -0.0048395 0)
(3.08371 0.00144657 0)
(3.08178 0.0114173 0)
(3.08114 0.0175984 0)
(3.07802 0.0235735 0)
(3.07105 0.0301467 0)
(3.0667 0.0349898 0)
(3.05698 0.0381477 0)
(3.03746 0.0389412 0)
(3.0183 0.0416727 0)
(2.99631 0.0436127 0)
(2.95762 0.0430947 0)
(2.93738 0.0429186 0)
(2.9202 0.0422339 0)
(2.90056 0.0428311 0)
(2.88028 0.0461409 0)
(2.86177 0.049852 0)
(2.85264 0.0523288 0)
(2.84273 0.0546073 0)
(2.83204 0.0572558 0)
(2.81066 0.0585496 0)
(2.77518 0.0580125 0)
(2.74629 0.0574017 0)
(2.7198 0.0581084 0)
(2.68982 0.0613479 0)
(2.66108 0.0667977 0)
(2.63346 0.0712359 0)
(2.60633 0.0735997 0)
(2.5808 0.0740652 0)
(2.55676 0.0721878 0)
(2.53403 0.0678415 0)
(2.51369 0.0620478 0)
(2.4969 0.0562774 0)
(2.48102 0.0515936 0)
(2.46115 0.0492248 0)
(2.4328 0.0499219 0)
(2.39163 0.0519807 0)
(2.35177 0.0518486 0)
(2.33614 0.0492035 0)
(2.33254 0.0463794 0)
(2.33223 0.03732 0)
(2.33233 0.023266 0)
(2.32795 0.0145979 0)
(2.31903 0.00951035 0)
(2.29972 0.0106294 0)
(2.27556 0.0210422 0)
(2.2672 0.0273622 0)
(2.26641 0.0294132 0)
(2.26915 0.0307051 0)
(2.27437 0.0283955 0)
(2.27764 0.0204754 0)
(2.2797 0.00953576 0)
(2.28244 -0.00237777 0)
(2.28651 -0.0121589 0)
(2.29138 -0.0171868 0)
(2.29635 -0.0184998 0)
(2.30278 -0.0171828 0)
(2.31277 -0.0140343 0)
(2.32763 -0.0106507 0)
(2.34173 -0.0115865 0)
(2.34739 -0.0143681 0)
(2.35142 -0.0199676 0)
(2.35507 -0.0289597 0)
(2.35971 -0.0391628 0)
(2.36659 -0.0496535 0)
(2.37834 -0.0617425 0)
(2.39216 -0.0703643 0)
(2.40524 -0.06995 0)
(2.41467 -0.0611312 0)
(2.41807 -0.0473068 0)
(2.41723 -0.0313172 0)
(2.41565 -0.0148395 0)
(2.41559 -0.00454429 0)
(2.41567 0.00309891 0)
(2.42085 0.0116268 0)
(2.42987 0.0191629 0)
(2.43597 0.0220139 0)
(2.44072 0.0182302 0)
(2.44724 0.00716482 0)
(2.4554 -0.00907125 0)
(2.46045 -0.0215842 0)
(2.46151 -0.026853 0)
(2.45889 -0.0305421 0)
(2.45429 -0.0283701 0)
(2.4555 -0.0244441 0)
(2.45821 -0.0198864 0)
(2.46109 -0.0125319 0)
(2.46654 -0.00273477 0)
(2.47332 0.00828495 0)
(2.48359 0.0177176 0)
(2.49639 0.0218441 0)
(2.50502 0.0201779 0)
(2.5107 0.0136937 0)
(2.51653 0.00217354 0)
(2.52383 -0.0133662 0)
(2.53174 -0.0284591 0)
(2.53653 -0.0367422 0)
(2.53519 -0.0377797 0)
(2.53271 -0.0352992 0)
(2.52682 -0.0261233 0)
(2.52007 -0.0154045 0)
(2.51649 -0.00979379 0)
(2.51413 -0.00838167 0)
(2.51207 -0.00933247 0)
(2.51058 -0.0128905 0)
(2.51029 -0.0165275 0)
(2.51094 -0.0186358 0)
(2.51278 -0.0193727 0)
(2.51689 -0.0181915 0)
(2.52665 -0.0140231 0)
(2.54836 -0.00487746 0)
(2.57948 0.00700031 0)
(2.59461 0.0133402 0)
(2.5963 0.0133579 0)
(2.59696 0.0117406 0)
(2.59573 0.00832383 0)
(2.58975 0.00277967 0)
(2.57311 -0.00554354 0)
(2.55509 -0.0144055 0)
(2.55481 -0.0201121 0)
(2.55882 -0.0235916 0)
(2.56352 -0.0272182 0)
(2.56998 -0.0292648 0)
(2.57917 -0.0302251 0)
(2.59143 -0.0308091 0)
(2.60962 -0.0244018 0)
(2.6333 -0.0078893 0)
(2.659 -0.00231299 0)
(2.67483 -0.01276 0)
(2.67013 -0.0189478 0)
(2.66282 -0.0191731 0)
(2.65807 -0.0193619 0)
(2.65311 -0.0170467 0)
(2.65056 -0.0113749 0)
(2.65024 -0.00644646 0)
(2.65206 -0.00304923 0)
(2.65523 -0.000823065 0)
(2.66 0.000808037 0)
(2.6665 0.000594736 0)
(2.67527 -0.00195006 0)
(2.68786 -0.00563445 0)
(2.70398 -0.00654522 0)
(2.71584 -0.00259132 0)
(2.72106 0.000833644 0)
(2.72386 0.00234023 0)
(2.72585 0.000388183 0)
(2.72712 -0.00721458 0)
(2.71662 -0.0116858 0)
(2.70597 -0.0120573 0)
(2.69531 -0.012995 0)
(2.67166 -0.0147612 0)
(2.64408 -0.0148006 0)
(2.631 -0.0109452 0)
(2.62933 -0.00565399 0)
(2.63005 0.00055526 0)
(2.63292 0.00610058 0)
(2.63888 0.0108013 0)
(2.65283 0.018356 0)
(2.68574 0.00882421 0)
(2.96104 0.0217004 0)
(2.96574 0.0202507 0)
(2.96778 0.0161614 0)
(2.96858 0.0112126 0)
(2.97094 0.00597658 0)
(2.97302 0.00217261 0)
(2.97292 0.00034568 0)
(2.97247 -0.00194075 0)
(2.97076 -0.00636985 0)
(2.96796 -0.0108837 0)
(2.96599 -0.0129581 0)
(2.96673 -0.013403 0)
(2.96845 -0.0134312 0)
(2.97023 -0.0130817 0)
(2.9718 -0.0115446 0)
(2.97315 -0.0090928 0)
(2.97473 -0.00706488 0)
(2.9764 -0.00594399 0)
(2.9771 -0.00671364 0)
(2.97806 -0.00915475 0)
(2.97998 -0.0126041 0)
(2.98257 -0.0154646 0)
(2.98554 -0.01707 0)
(2.99041 -0.0181486 0)
(3.00085 -0.0182596 0)
(3.01534 -0.0157583 0)
(3.02186 -0.0130656 0)
(3.023 -0.0117731 0)
(3.02341 -0.00906718 0)
(3.0212 -0.00693843 0)
(3.0203 -0.00749536 0)
(3.02131 -0.00914989 0)
(3.02342 -0.0127475 0)
(3.0267 -0.0166907 0)
(3.03025 -0.0201093 0)
(3.03475 -0.0219584 0)
(3.04104 -0.0217882 0)
(3.04944 -0.0206913 0)
(3.06039 -0.0189667 0)
(3.07497 -0.0156857 0)
(3.08958 -0.0119228 0)
(3.09465 -0.0106847 0)
(3.09784 -0.0112763 0)
(3.10093 -0.0136182 0)
(3.10251 -0.0161795 0)
(3.10267 -0.018753 0)
(3.10043 -0.0208533 0)
(3.09459 -0.0217021 0)
(3.08905 -0.0203519 0)
(3.08927 -0.0188094 0)
(3.09068 -0.0178318 0)
(3.09337 -0.0155942 0)
(3.10029 -0.00988415 0)
(3.10884 -0.00246793 0)
(3.11117 7.60346e-05 0)
(3.11167 0.000964614 0)
(3.11108 0.000474609 0)
(3.10965 -0.00226962 0)
(3.10775 -0.00573013 0)
(3.10528 -0.00679284 0)
(3.10126 -0.00339021 0)
(3.09517 0.000129211 0)
(3.09282 0.000301854 0)
(3.09242 -0.000256116 0)
(3.09188 -0.000184029 0)
(3.09313 0.000962346 0)
(3.09645 0.0027576 0)
(3.0988 0.00240323 0)
(3.09902 -0.000267398 0)
(3.09927 -0.00343797 0)
(3.09956 -0.00420527 0)
(3.09503 -0.00325743 0)
(3.09152 -0.00261326 0)
(3.0884 -0.00292534 0)
(3.08656 -0.00274109 0)
(3.08627 -0.00236532 0)
(3.08715 -0.00160256 0)
(3.08866 0.00024035 0)
(3.08985 0.00119619 0)
(3.09084 0.00180928 0)
(3.09018 0.00297106 0)
(3.08707 0.00695589 0)
(3.08405 0.00880519 0)
(3.07987 0.00891142 0)
(3.07701 0.00755898 0)
(3.07623 0.00450016 0)
(3.07781 -0.000466616 0)
(3.0826 -0.0142791 0)
(3.09401 -0.0327752 0)
(3.11138 -0.0423713 0)
(3.12164 -0.0334504 0)
(3.10888 -0.020896 0)
(3.10383 -0.0157988 0)
(3.10048 -0.0122352 0)
(3.09539 -0.00938313 0)
(3.08937 -0.00442375 0)
(3.08652 0.00863339 0)
(3.08477 0.0299575 0)
(3.08378 0.0408008 0)
(3.07799 0.0472932 0)
(3.07027 0.0532212 0)
(3.05754 0.0560105 0)
(3.04037 0.0565794 0)
(3.02392 0.0582874 0)
(3.00533 0.0600828 0)
(2.96651 0.062005 0)
(2.93988 0.0625591 0)
(2.92323 0.0614382 0)
(2.90197 0.0616981 0)
(2.88086 0.0664404 0)
(2.86163 0.0723536 0)
(2.85182 0.0769693 0)
(2.84182 0.0797717 0)
(2.83075 0.0815137 0)
(2.81264 0.0824267 0)
(2.77838 0.0820069 0)
(2.75023 0.0825464 0)
(2.72347 0.0848162 0)
(2.69344 0.0894384 0)
(2.66479 0.0956765 0)
(2.63914 0.0995964 0)
(2.61469 0.0999098 0)
(2.5923 0.0985871 0)
(2.57141 0.0969029 0)
(2.55059 0.0940551 0)
(2.52965 0.0885827 0)
(2.51104 0.0813097 0)
(2.49507 0.073997 0)
(2.47731 0.0676891 0)
(2.45334 0.0640821 0)
(2.41914 0.0649093 0)
(2.3775 0.0675522 0)
(2.35403 0.0655586 0)
(2.34854 0.061543 0)
(2.34595 0.0530949 0)
(2.34467 0.0385407 0)
(2.34123 0.025396 0)
(2.33519 0.0167071 0)
(2.32475 0.0113285 0)
(2.31169 0.014662 0)
(2.30148 0.0234498 0)
(2.29936 0.0289756 0)
(2.30081 0.0305751 0)
(2.30197 0.0278673 0)
(2.30096 0.0202925 0)
(2.30072 0.00986123 0)
(2.30346 0.000392832 0)
(2.30926 -0.00815744 0)
(2.31878 -0.0143716 0)
(2.32898 -0.0172566 0)
(2.33887 -0.0172299 0)
(2.35118 -0.0146473 0)
(2.3632 -0.0137661 0)
(2.36859 -0.0158791 0)
(2.37334 -0.0228313 0)
(2.37652 -0.0337592 0)
(2.37966 -0.0454584 0)
(2.38368 -0.0541415 0)
(2.38876 -0.0606307 0)
(2.39859 -0.0682062 0)
(2.41505 -0.0746049 0)
(2.43515 -0.0746672 0)
(2.44941 -0.0679691 0)
(2.45595 -0.0579163 0)
(2.45698 -0.0466559 0)
(2.45391 -0.0314716 0)
(2.45001 -0.0109428 0)
(2.45044 0.00406591 0)
(2.4517 0.011528 0)
(2.45309 0.0117439 0)
(2.454 0.00897346 0)
(2.45508 0.00551434 0)
(2.4569 0.000395934 0)
(2.46078 -0.00893372 0)
(2.4677 -0.021734 0)
(2.47469 -0.0324298 0)
(2.47716 -0.0360675 0)
(2.47756 -0.0348467 0)
(2.47914 -0.0293657 0)
(2.4829 -0.0235901 0)
(2.48855 -0.0143913 0)
(2.49604 -0.000883287 0)
(2.50275 0.0126984 0)
(2.5087 0.0201522 0)
(2.51325 0.0209513 0)
(2.51617 0.0174743 0)
(2.51636 0.0069567 0)
(2.51831 -0.00332229 0)
(2.5235 -0.0131725 0)
(2.53145 -0.02586 0)
(2.54159 -0.0363499 0)
(2.54917 -0.0406187 0)
(2.5503 -0.0398719 0)
(2.54751 -0.0384359 0)
(2.54476 -0.0346869 0)
(2.5377 -0.0262022 0)
(2.53129 -0.0185789 0)
(2.52716 -0.0153256 0)
(2.52492 -0.0142944 0)
(2.52251 -0.0143054 0)
(2.52137 -0.0150166 0)
(2.52404 -0.0150747 0)
(2.53087 -0.0124225 0)
(2.5429 -0.00614906 0)
(2.56693 0.00218269 0)
(2.59699 0.00811232 0)
(2.60938 0.00838393 0)
(2.61127 0.00772309 0)
(2.61358 0.00516357 0)
(2.61336 -0.000171931 0)
(2.60628 -0.00814507 0)
(2.58876 -0.0162793 0)
(2.57116 -0.0206441 0)
(2.56918 -0.0231857 0)
(2.57408 -0.024985 0)
(2.57898 -0.0264815 0)
(2.58405 -0.0268603 0)
(2.59224 -0.0253853 0)
(2.60218 -0.0243058 0)
(2.61477 -0.0247782 0)
(2.63331 -0.0245901 0)
(2.65793 -0.018442 0)
(2.68087 -0.0139792 0)
(2.68721 -0.0219078 0)
(2.68254 -0.030459 0)
(2.67258 -0.0298499 0)
(2.66533 -0.025517 0)
(2.66496 -0.0157762 0)
(2.66397 -0.00753931 0)
(2.66269 -0.00295762 0)
(2.66348 -0.000503322 0)
(2.66608 -0.000389751 0)
(2.66926 -0.00151719 0)
(2.67507 -0.00323943 0)
(2.68712 -0.00633343 0)
(2.7074 -0.00791485 0)
(2.72342 -0.00384436 0)
(2.72877 -0.000190095 0)
(2.73055 0.00214081 0)
(2.73044 0.00325026 0)
(2.7278 -0.0023757 0)
(2.7179 -0.0140109 0)
(2.70475 -0.0170808 0)
(2.69487 -0.0190379 0)
(2.67593 -0.0211494 0)
(2.65325 -0.0207623 0)
(2.64423 -0.016049 0)
(2.64392 -0.0107496 0)
(2.64559 -0.00294996 0)
(2.65037 0.00555736 0)
(2.6582 0.0107883 0)
(2.67162 0.0211463 0)
(2.6949 0.0119651 0)
(3.00017 0.0279777 0)
(3.00107 0.0242022 0)
(3.00188 0.0191409 0)
(3.00367 0.0135896 0)
(3.00694 0.00749025 0)
(3.00997 0.00286767 0)
(3.01109 0.00114092 0)
(3.01117 0.000881384 0)
(3.01081 -0.000924759 0)
(3.00957 -0.0037709 0)
(3.00946 -0.0039219 0)
(3.01087 -0.00360106 0)
(3.01336 -0.00425976 0)
(3.01583 -0.00506835 0)
(3.01698 -0.00644177 0)
(3.01778 -0.00816294 0)
(3.01855 -0.00971019 0)
(3.01852 -0.0114149 0)
(3.0182 -0.0137817 0)
(3.01873 -0.0163358 0)
(3.0197 -0.019408 0)
(3.02149 -0.0235074 0)
(3.0248 -0.0268255 0)
(3.03019 -0.0277892 0)
(3.0415 -0.0271661 0)
(3.05912 -0.0249556 0)
(3.06885 -0.0221454 0)
(3.07035 -0.0211772 0)
(3.07158 -0.0188689 0)
(3.06981 -0.0155895 0)
(3.06594 -0.0145796 0)
(3.06573 -0.0171588 0)
(3.06717 -0.0199611 0)
(3.06838 -0.0227164 0)
(3.07036 -0.0265793 0)
(3.0734 -0.0315335 0)
(3.07896 -0.0335486 0)
(3.08788 -0.0314515 0)
(3.09955 -0.0281005 0)
(3.11222 -0.0254129 0)
(3.12283 -0.0242405 0)
(3.12576 -0.0239117 0)
(3.12931 -0.0234754 0)
(3.13268 -0.0226973 0)
(3.13404 -0.0216709 0)
(3.13321 -0.020346 0)
(3.13027 -0.0194728 0)
(3.12496 -0.0197755 0)
(3.11909 -0.0213104 0)
(3.11746 -0.0225178 0)
(3.11783 -0.0226224 0)
(3.11995 -0.0206471 0)
(3.12614 -0.0155169 0)
(3.13294 -0.0102666 0)
(3.13455 -0.00829638 0)
(3.13582 -0.00505747 0)
(3.13599 -0.000134371 0)
(3.13414 0.00288962 0)
(3.13037 0.00435963 0)
(3.12507 0.00650978 0)
(3.11955 0.00932432 0)
(3.11437 0.010277 0)
(3.10939 0.00735652 0)
(3.10795 0.00393406 0)
(3.10811 0.00177186 0)
(3.10821 -0.000144686 0)
(3.11023 0.000341044 0)
(3.11392 6.40855e-05 0)
(3.11663 -0.00262129 0)
(3.11868 -0.00630881 0)
(3.12169 -0.00904179 0)
(3.11925 -0.00858958 0)
(3.11524 -0.00812825 0)
(3.11245 -0.00812516 0)
(3.10883 -0.00851492 0)
(3.1059 -0.00749589 0)
(3.10474 -0.00615464 0)
(3.10397 -0.00540229 0)
(3.10392 -0.0027773 0)
(3.10507 0.00258117 0)
(3.10265 0.00775446 0)
(3.10173 0.0125283 0)
(3.09995 0.0147713 0)
(3.09666 0.0146781 0)
(3.09623 0.0122016 0)
(3.09943 0.00612475 0)
(3.10702 -0.00920672 0)
(3.12275 -0.0306108 0)
(3.14104 -0.0439348 0)
(3.15575 -0.0469676 0)
(3.15477 -0.0331776 0)
(3.13075 -0.0268427 0)
(3.12062 -0.0231235 0)
(3.11407 -0.014094 0)
(3.10675 -0.00260516 0)
(3.09715 0.00442537 0)
(3.09055 0.0113821 0)
(3.09043 0.0272835 0)
(3.08575 0.0536275 0)
(3.08148 0.0664507 0)
(3.07088 0.0723853 0)
(3.05523 0.0732089 0)
(3.04213 0.0726166 0)
(3.02925 0.0732529 0)
(3.01376 0.0755397 0)
(2.98015 0.078946 0)
(2.94886 0.0817273 0)
(2.93106 0.0809558 0)
(2.90679 0.0812434 0)
(2.8834 0.0865671 0)
(2.86492 0.0936528 0)
(2.85882 0.0987325 0)
(2.84939 0.102406 0)
(2.8372 0.104424 0)
(2.82169 0.104722 0)
(2.78906 0.103636 0)
(2.76333 0.104352 0)
(2.73773 0.108022 0)
(2.70859 0.112363 0)
(2.67927 0.117595 0)
(2.65269 0.121614 0)
(2.62699 0.122105 0)
(2.60293 0.120052 0)
(2.58272 0.117357 0)
(2.56586 0.113796 0)
(2.55081 0.108148 0)
(2.53407 0.101634 0)
(2.51597 0.0948953 0)
(2.49836 0.0876062 0)
(2.47832 0.0806508 0)
(2.45067 0.0767941 0)
(2.41298 0.0789832 0)
(2.38048 0.0799451 0)
(2.36843 0.0751032 0)
(2.36674 0.0689028 0)
(2.36644 0.055901 0)
(2.36461 0.0405644 0)
(2.36028 0.028008 0)
(2.35508 0.0177142 0)
(2.35072 0.0136191 0)
(2.3463 0.0166266 0)
(2.34169 0.0225997 0)
(2.33833 0.0255687 0)
(2.33697 0.0241527 0)
(2.33542 0.0178749 0)
(2.33438 0.00900926 0)
(2.33608 0.00126222 0)
(2.34162 -0.00710275 0)
(2.3518 -0.0140879 0)
(2.36626 -0.0149978 0)
(2.38031 -0.0131021 0)
(2.3894 -0.0144913 0)
(2.3942 -0.0187724 0)
(2.39942 -0.0297159 0)
(2.40239 -0.04283 0)
(2.40468 -0.0537884 0)
(2.40857 -0.0596844 0)
(2.41273 -0.0628282 0)
(2.41833 -0.065397 0)
(2.42869 -0.067657 0)
(2.44669 -0.0695109 0)
(2.47302 -0.0695092 0)
(2.49494 -0.0633545 0)
(2.50486 -0.0539076 0)
(2.50914 -0.0440599 0)
(2.51082 -0.0324521 0)
(2.50854 -0.0184335 0)
(2.50227 -0.00373225 0)
(2.49053 0.00588576 0)
(2.48455 0.00489174 0)
(2.48364 0.00042271 0)
(2.48351 -0.00405939 0)
(2.48425 -0.0087779 0)
(2.48558 -0.0144011 0)
(2.48975 -0.0216421 0)
(2.49737 -0.0297493 0)
(2.50547 -0.0344102 0)
(2.51156 -0.0332271 0)
(2.51598 -0.0269899 0)
(2.52066 -0.0166568 0)
(2.52904 -0.00417295 0)
(2.53817 0.00677973 0)
(2.54305 0.0108367 0)
(2.54857 0.0112653 0)
(2.54974 0.0112182 0)
(2.54326 0.00718299 0)
(2.53531 -0.00355314 0)
(2.53475 -0.012062 0)
(2.5373 -0.0175651 0)
(2.5454 -0.0267168 0)
(2.5607 -0.0361946 0)
(2.57532 -0.0410943 0)
(2.58107 -0.0415816 0)
(2.57944 -0.0402539 0)
(2.57625 -0.038768 0)
(2.57063 -0.034948 0)
(2.56096 -0.0276383 0)
(2.55391 -0.0216305 0)
(2.55074 -0.01865 0)
(2.54716 -0.0165966 0)
(2.54437 -0.0145841 0)
(2.54596 -0.0116995 0)
(2.55568 -0.00674728 0)
(2.57472 0.0010979 0)
(2.60229 0.00755786 0)
(2.62567 0.00526233 0)
(2.63572 -0.00124106 0)
(2.63834 -0.00402085 0)
(2.64133 -0.00817198 0)
(2.64152 -0.0154271 0)
(2.63431 -0.0248194 0)
(2.61954 -0.0320519 0)
(2.60452 -0.0331307 0)
(2.59829 -0.0313614 0)
(2.60062 -0.0307983 0)
(2.60472 -0.0309513 0)
(2.60865 -0.0304411 0)
(2.61541 -0.0287 0)
(2.62407 -0.0262874 0)
(2.6346 -0.0240419 0)
(2.64765 -0.0224159 0)
(2.66499 -0.0217417 0)
(2.68679 -0.0200617 0)
(2.7042 -0.0193966 0)
(2.70651 -0.0218041 0)
(2.69719 -0.0267466 0)
(2.68912 -0.0272096 0)
(2.68531 -0.0172989 0)
(2.68184 -0.009626 0)
(2.67799 -0.00521998 0)
(2.67304 -0.00252041 0)
(2.67155 -0.0034258 0)
(2.67301 -0.00535078 0)
(2.67618 -0.00781949 0)
(2.68727 -0.0105503 0)
(2.71036 -0.0101363 0)
(2.73327 -0.00525505 0)
(2.74005 -0.000775001 0)
(2.73993 0.00173586 0)
(2.73707 0.00300766 0)
(2.73248 0.00128559 0)
(2.72493 -0.00831368 0)
(2.71094 -0.0198162 0)
(2.69789 -0.02271 0)
(2.68521 -0.0246722 0)
(2.66829 -0.0242393 0)
(2.66085 -0.0212414 0)
(2.66069 -0.017742 0)
(2.66228 -0.00963534 0)
(2.66898 0.00318315 0)
(2.6791 0.0102161 0)
(2.69152 0.0193623 0)
(2.70625 0.0113096 0)
(3.04634 0.0254091 0)
(3.04685 0.022476 0)
(3.04758 0.0198632 0)
(3.0492 0.0175318 0)
(3.05133 0.0136975 0)
(3.05231 0.00710245 0)
(3.05251 -0.00112113 0)
(3.05284 -0.0084222 0)
(3.05364 -0.0122816 0)
(3.056 -0.0139538 0)
(3.05889 -0.0153405 0)
(3.06158 -0.0151524 0)
(3.0652 -0.0126452 0)