/*--------------------------------*- C++ -*----------------------------------*\
  =========                 |
  \\      /  F ield         | OpenFOAM: The Open Source CFD Toolbox
   \\    /   O peration     | Website:  https://openfoam.org
    \\  /    A nd           | Version:  7
     \\/     M anipulation  |
\*---------------------------------------------------------------------------*/
FoamFile
{
    version     2.0;
    format      ascii;
    class       volScalarField;
    location    "2";
    object      p;
}
// * * * * * * * * * * * * * * * * * * * * * * * * * * * * * * * * * * * * * //

dimensions      [1 -1 -2 0 0 0 0];

internalField   nonuniform List<scalar> 
4040
(
1
1
1
1
1
1
1
1
1
1
1
1
1
1
5.04537
10.4578
10.7744
10.9721
11.1922
11.3883
11.5774
11.7436
11.8809
11.9957
1
1
1
1
1
1
1
1
1
1
1
1
1
1
4.87276
10.3628
10.7431
10.9385
11.1537
11.3417
11.522
11.6752
11.781
11.858
1
1
1
1
1
1
1
1
1
1
1
1
1
1
4.50595
10.2284
10.6875
10.8764
11.0813
11.2468
11.3897
11.5017
11.5932
11.6979
1
1
1
1
1
1
1
1
1
1
1
1
1
1
3.97716
9.99272
10.6043
10.7779
10.9694
11.1228
11.2595
11.378
11.4266
11.7243
1
1
1
1
1
1
1
1
1
1
1
1
1
1
3.32918
9.60957
10.5056
10.6645
10.8428
10.9724
11.054
11.0952
10.8475
10.6112
1
1
1
1
1
1
1
1
1
1
1
1
1
1
2.57293
9.03003
10.4389
10.571
10.7124
10.8054
10.8316
10.7867
10.5586
10.4377
1
1
1
1
1
1
1
1
1
1
1
1
1
1
1.77094
8.20734
10.3784
10.428
10.5553
10.6263
10.6052
10.5214
10.3267
10.1321
1
1
1
1
1
1
1
1
1
1
1
1
1
1
1.08518
7.08803
10.3824
10.3194
10.3639
10.38
10.3229
10.2155
10.0589
9.92366
1
1
1
1
1
1
1
1
1
1
1
1
1
1
1.00083
5.61238
9.80744
9.95642
10.0414
10.0637
10.0037
9.89022
9.72578
9.46801
1
1
1
1
1
1
1
1
1
1
1
1
1
1
0.999991
3.91824
9.24766
9.82544
9.85532
9.83105
9.74708
9.58951
9.33394
8.87796
1
1
1
1
1
1
1
1
1
1
1
1
1
1
0.999998
2.24764
8.36784
9.7252
9.69926
9.62909
9.49444
9.28181
8.94733
8.40607
1
1
1
1
1
1
1
1
1
1
1
1
1
1
1
1.15539
6.77302
9.59381
9.51609
9.40448
9.22584
8.97648
8.6024
8.06354
1
1
1
1
1
1
1
1
1
1
1
1
1
1
1
1.00197
4.72278
9.08449
9.25644
9.1381
8.95344
8.69387
8.31838
7.77329
1
1
1
1
1
1
1
1
1
1
1
1
1
1
1
0.999982
2.37815
8.25294
9.15613
8.94805
8.75517
8.47118
8.11166
7.54154
1
1
1
1
1
1
1
1
1
1
1
1
1
1
1
0.999996
1.14896
6.43205
8.88947
8.6864
8.54316
8.27291
7.90353
7.37186
1
1
1
1
1
1
1
1
1
1
1
1
1
1
1
0.999999
1.00159
3.71533
8.18874
8.5282
8.40408
8.15015
7.76253
7.26738
1
1
1
1
1
1
1
1
1
1
1
1
1
1
1
1
0.999994
1.46782
6.94203
8.57866
8.32906
8.03739
7.64707
7.17788
1
1
1
1
1
1
1
1
1
1
1
1
1
1
1
1
0.999999
1.01815
4.4538
8.03778
8.13875
7.87526
7.52738
7.09523
1
1
1
1
1
1
1
1
1
1
1
1
1
1
1
1
1
1.00001
1.73645
6.86144
8.16827
7.79852
7.44909
7.04012
1
1
1
1
1
1
1
1
1
1
1
1
1
1
1
1
1
1
1.04244
4.47927
7.76004
7.63996
7.33568
6.97376
1
1
1
1
1
1
1
1
1
1
1
1
1
1
1
1
1
1
1.00018
1.77047
6.40345
7.65117
7.30843
6.96937
1
1
1
1
1
1
1
1
1
1
1
1
1
1
1
1
1
1
1
1.04462
3.77302
7.22665
7.24203
6.92539
1
1
1
1
1
1
1
1
1
1
1
1
1
1
1
1
1
1
1
1.00032
1.51439
5.59711
7.29741
6.93369
1
1
1
1
1
1
1
1
1
1
1
1
1
1
1
1
1
1
1
1
1.02095
2.70675
6.3837
6.92516
1
1
1
1
1
1
1
1
1
1
1
1
1
1
1
1
1
1
1
1
1.00016
1.20334
4.26201
6.79318
1
1
1
1
1
1
1
1
1
1
1
1
1
1
1
1
1
1
1
1
1
1.00433
1.77841
5.38857
1
1
1
1
1
1
1
1
1
1
1
1
1
1
1
1
1
1
1
1
1
1.00002
1.04667
2.68955
1
1
1
1
1
1
1
1
1
1
1
1
1
1
1
1
1
1
1
1
1
1
1.00056
1.20277
1
1
1
1
1
1
1
1
1
1
1
1
1
1
1
1
1
1
1
1
1
1
1
1.00499
1
1
1
1
1
1
1
1
1
1
1
1
1
1
1
1
1
1
1
1
1
1
1
1.00003
1
1
1
1
1
1
1
1
1
1
1
1
1
1
1
1
1
1
1
1
1
1
1
1
1
1
1
1
1
1
1
1
1
1
1
1
1
1
1
1
1
1
1
1
1
1
1
1
1
1
1
1
1
1
1
1
1
1
1
1
1
1
1
1
1
1
1
1
1
1
1
1
1
1
1
1
1
1
1
1
1
1
1
1
1
1
1
1
1
1
1
1
1
1
1
1
1
1
1
1
1
1
1
1
1
1
1
1
1
1
1
1
1
1
1
1
1
1
1
1
1
1
1
1
1
1
1
1
1
1
1
1
1
1
1
1
1
1
1
1
1
1
1
1
1
1
1
1
1
1
1
1
1
1
1
1
1
1
1
1
1
1
1
1
1
1
1
1
1
1
1
1
1
1
1
1
1
1
1
1
1
1
1
1
1
1
1
1
1
1
1
1
1
1
1
1
1
1
1
1
1
1
1
1
1
1
1
1
1
1
1
1
1
1
1
1
1
1
1
1
1
1
1
1
1
1
1
1
1
1
1
1
1
1
1
1
1
1
1
1
9.30642
9.88051
10.225
10.6642
9.99941
10.1986
9.88402
10.258
8.7679
6.96061
8.04008
6.17259
7.51323
5.86814
7.1254
5.81564
6.89856
5.84874
6.77568
5.92608
6.71282
5.9812
6.68009
6.04188
6.64081
6.07871
6.6056
6.10557
6.59345
6.13998
6.57498
6.16491
6.59527
6.20955
6.58373
6.22257
6.60831
6.25854
6.60744
6.27774
6.66035
6.34281
6.64263
6.38638
5.89553
6.41575
3.71992
6.04771
1.5508
4.4663
1.02649
2.02488
1.00029
1.08273
1
1.00144
1
1.00001
1
1
1
1
1
1
1
1
1
1
1
1
1
1
1.77325
0.62673
0.260771
0.240269
0.295274
0.415836
0.539077
0.678359
0.849781
0.986222
1.04053
1.04727
1.08321
1.13514
1.18209
1.23712
1.26803
1.26744
1.27692
1.28359
1.27701
1.26218
1.26077
1.27853
1.30005
1.30851
1.3079
1.30726
1.30412
1.29751
1.29289
1.29248
1.29367
1.30175
1.31704
1.32366
1.32024
1.31153
1.29262
1.26442
1.26752
1.38169
1.92762
3.24085
4.97765
6.34679
6.52342
6.17377
5.72747
5.48421
5.36509
5.2625
5.15953
5.0563
4.96413
4.87359
4.78478
4.6932
4.59414
4.49223
4.38443
4.26146
4.12454
4.02119
3.95503
3.90888
3.89886
3.8835
3.82302
3.74803
3.62964
3.44993
3.32032
3.26207
3.22007
3.19539
3.19516
3.17832
3.13912
3.09515
3.02384
2.89041
2.77079
2.72165
2.69219
2.66671
2.65248
2.64849
2.6315
2.60395
2.55471
2.43925
2.30886
2.24894
2.83294
1.69032
1.15551
0.786146
0.730083
0.708641
0.656567
0.655685
0.675564
0.730441
0.794639
0.856057
0.930123
1.00293
1.06491
1.13162
1.18582
1.20507
1.22179
1.24193
1.25142
1.24381
1.24398
1.26041
1.27641
1.29434
1.30915
1.31204
1.30963
1.30291
1.29609
1.29375
1.29169
1.29324
1.30186
1.30692
1.3053
1.29867
1.2825
1.2985
1.41486
1.89304
2.54741
2.98305
3.74767
4.69919
5.41506
5.72385
5.60186
5.51252
5.39725
5.25603
5.14141
5.03491
4.92835
4.81878
4.72696
4.64445
4.57427
4.50277
4.41192
4.31059
4.18705
4.04658
3.94862
3.89074
3.84974
3.81413
3.77421
3.7154
3.63092
3.52258
3.39285
3.28968
3.23689
3.20136
3.1781
3.15048
3.1133
3.06864
3.00942
2.92146
2.81306
2.73361
2.69549
2.67032
2.65229
2.63276
2.60659
2.57493
2.53047
2.45237
2.35505
2.26391
3.70313
2.48147
1.8471
1.41309
1.14011
0.986205
0.820465
0.726244
0.698806
0.695547
0.730438
0.806761
0.877404
0.934951
0.982804
1.03609
1.09914
1.14829
1.18886
1.23093
1.26466
1.26494
1.27094
1.29141
1.30291
1.31164
1.31258
1.30995
1.30167
1.29113
1.28747
1.28728
1.2871
1.29046
1.29926
1.30109
1.29941
1.293
1.31648
1.51342
1.98945
2.69905
3.01035
2.96265
2.97462
3.3485
4.14824
5.10327
5.5312
5.64035
5.48184
5.32579
5.18899
5.05707
4.92876
4.79193
4.66362
4.58342
4.5185
4.46864
4.4051
4.32928
4.24948
4.14198
3.99351
3.86983
3.80358
3.75003
3.6921
3.63453
3.58791
3.53749
3.47548
3.379
3.26768
3.20483
3.16324
3.1226
3.07647
3.02201
2.96375
2.91467
2.86213
2.78986
2.71528
2.67149
2.64029
2.60848
2.57334
2.53039
2.47879
2.42472
2.37872
2.30612
4.29152
3.25011
2.48576
1.95817
1.62076
1.36332
1.16471
1.02457
0.951908
0.872638
0.813354
0.818269
0.816808
0.830723
0.861066
0.912815
0.977452
1.03977
1.08664
1.12866
1.17847
1.20764
1.2342
1.27215
1.30147
1.31997
1.32625
1.32464
1.3117
1.29369
1.28466
1.27958
1.27852
1.28143
1.28254
1.28609
1.29208
1.32074
1.51636
2.16089
2.72742
3.10334
3.10047
3.01572
2.93379
2.88265
3.02374
3.67392
4.53203
5.10161
5.21798
5.30367
5.26326
5.13811
5.00499
4.83135
4.64212
4.51815
4.45094
4.40594
4.37265
4.31792
4.25475
4.17874
4.05458
3.88228
3.75882
3.68561
3.63041
3.59174
3.57026
3.54454
3.49878
3.43474
3.3266
3.20223
3.13332
3.0851
3.03326
2.98014
2.9415
2.91181
2.88041
2.83723
2.76679
2.68433
2.62886
2.58846
2.54396
2.48812
2.43387
2.4015
2.38048
2.33366
4.66663
3.78854
3.06227
2.4581
2.08259
1.77116
1.48892
1.32038
1.18367
1.07472
0.979156
0.924455
0.877016
0.834482
0.841383
0.854293
0.874739
0.914307
0.960595
1.01001
1.07246
1.12774
1.16796
1.20472
1.23733
1.26173
1.28105
1.29786
1.3053
1.30894
1.30664
1.30363
1.29908
1.29102
1.28053
1.28416
1.31914
1.5246
2.20325
2.85434
3.08194
3.13172
3.09441
3.01962
2.95546
2.88771
2.81671
2.85516
3.16532
3.84893
4.49812
4.92974
5.04836
5.08524
5.04415
4.907
4.70686
4.50295
4.39998
4.33958
4.31322
4.28629
4.24038
4.18219
4.08697
3.91495
3.72473
3.63198
3.58565
3.55606
3.55184
3.55208
3.51751
3.46614
3.38501
3.2339
3.08926
3.02133
2.9806
2.95249
2.93573
2.91997
2.89379
2.8607
2.80835
2.71364
2.61178
2.54794
2.49698
2.45103
2.425
2.40699
2.39177
2.34592
4.98957
4.18613
3.52937
2.95195
2.49063
2.15725
1.84677
1.63288
1.46815
1.31564
1.2096
1.1168
1.04709
0.973109
0.934823
0.909831
0.885748
0.879079
0.884173
0.902976
0.936832
0.995742
1.05683
1.10918
1.15236
1.19155
1.22834
1.25565
1.27098
1.28197
1.29314
1.30604
1.30617
1.30124
1.2983
1.34359
1.6271
2.26006
2.97476
3.1129
3.13094
3.09858
3.079
3.01804
2.95338
2.89245
2.80769
2.73309
2.70275
2.81599
3.22123
3.85817
4.43027
4.77767
4.87644
4.83814
4.73658
4.55237
4.40615
4.32302
4.26397
4.23556
4.20059
4.15218
4.08352
3.96205
3.78548
3.64548
3.58249
3.5455
3.53567
3.54362
3.50964
3.45831
3.39154
3.27416
3.10543
3.00207
2.96128
2.93236
2.91808
2.90984
2.88685
2.85905
2.82195
2.74505
2.61216
2.50681
2.45694
2.43129
2.41344
2.40519
2.40401
2.35932
5.21816
4.50639
3.86555
3.34129
2.88662
2.51457
2.19112
1.9332
1.73973
1.57098
1.44062
1.32945
1.2156
1.12049
1.04396
0.984023
0.933805
0.89605
0.894486
0.900303
0.906007
0.91662
0.944239
0.974696
1.01836
1.06698
1.12313
1.178
1.21538
1.24634
1.26878
1.28912
1.28808
1.29408
1.34665
1.7492
2.44494
3.05958
3.20838
3.14275
3.11419
3.07603
3.04264
3.00065
2.94023
2.87625
2.79521
2.70915
2.6464
2.6102
2.63396
2.79788
3.21193
3.76934
4.30975
4.56308
4.61582
4.5366
4.45204
4.34484
4.2596
4.18923
4.13132
4.08265
4.03436
3.9588
3.85624
3.73311
3.61638
3.54488
3.49968
3.45623
3.43464
3.40777
3.36037
3.28248
3.17213
3.05626
2.98212
2.94151
2.91194
2.89367
2.87813
2.84874
2.80689
2.73253
2.61277
2.50922
2.4643
2.44015
2.42122
2.40725
2.40729
2.36848
5.38175
4.73311
4.15829
3.66978
3.21302
2.80521
2.50821
2.23854
2.00821
1.81081
1.66492
1.53402
1.40933
1.31039
1.22452
1.13876
1.06684
1.00431
0.984659
0.960743
0.930374
0.920463
0.919049
0.908765
0.910252
0.926386
0.971311
1.03792
1.11128
1.17383
1.21106
1.24884
1.26192
1.33203
1.72404
2.62154
3.06501
3.24392
3.23387
3.15321
3.08453
3.01594
2.98236
2.95669
2.91334
2.85758
2.7967
2.72779
2.64766
2.57348
2.53806
2.52153
2.55432
2.71721
3.11095
3.65143
4.1327
4.31363
4.37261
4.33055
4.26593
4.17726
4.08972
4.01696
3.96333
3.91114
3.8587
3.79408
3.69723
3.57363
3.47364
3.41897
3.37429
3.33113
3.2889
3.25072
3.20325
3.13484
3.04431
2.96042
2.90311
2.85778
2.81242
2.77058
2.72556
2.66877
2.60172
2.5399
2.49297
2.46425
2.44438
2.42779
2.41646
2.36868
5.49039
4.89976
4.38823
3.92558
3.47041
3.08292
2.78517
2.50373
2.24608
2.0482
1.8913
1.73052
1.58227
1.4769
1.39454
1.29652
1.21057
1.14273
1.09324
1.03776
0.983704
0.9423
0.929862
0.91254
0.905195
0.906697
0.913793
0.933245
0.973908
1.03026
1.09239
1.16523
1.28024
1.73176
2.56196
3.06512
3.25773
3.29863
3.26213
3.1564
3.04473
2.96979
2.92685
2.90069
2.88029
2.83998
2.79483
2.74107
2.65899
2.55427
2.48879
2.45716
2.43889
2.43546
2.48362
2.65776
3.03634
3.50995
3.88494
4.13171
4.16934
4.12964
4.05365
3.96779
3.92024
3.88264
3.84222
3.7838
3.71859
3.6295
3.50846
3.40049
3.32903
3.27695
3.23629
3.20688
3.18046
3.14243
3.0845
3.00169
2.90861
2.83333
2.77783
2.7281
2.67649
2.62564
2.59316
2.56571
2.53222
2.49328
2.46034
2.43347
2.41056
2.33399
5.5749
5.04692
4.57866
4.14185
3.7035
3.34366
3.03182
2.74549
2.47134
2.27735
2.09648
1.92761
1.76349
1.65466
1.55409
1.45293
1.35381
1.28414
1.23025
1.16383
1.10213
1.04258
1.01001
0.974931
0.943027
0.923779
0.923977
0.918553
0.916736
0.927403
0.953508
1.04777
1.58784
2.36157
2.95132
3.03079
3.15688
3.20638
3.17202
3.08552
3.0138
2.95525
2.89799
2.8621
2.84403
2.81954
2.77837
2.72694
2.65402
2.5428
2.45238
2.41355
2.38774
2.37567
2.3849
2.37968
2.40354
2.55189
2.83813
3.26155
3.62237
3.89319
3.95176
3.89071
3.88397
3.869
3.82045
3.75734
3.69668
3.62914
3.5449
3.42854
3.31262
3.24818
3.20721
3.17245
3.13935
3.10764
3.07106
3.01986
2.9367
2.8339
2.75597
2.69861
2.65271
2.62418
2.60059
2.57364
2.54427
2.50965
2.47118
2.43024
2.38278
2.2905
5.65335
5.17217
4.74192
4.3213
3.90657
3.56802
3.25817
2.9576
2.68627
2.48778
2.29176
2.11514
1.94351
1.82537
1.70973
1.60107
1.50165
1.42545
1.35479
1.27871
1.20482
1.14706
1.10164
1.05467
1.00771
0.966683
0.951517
0.931554
0.919889
0.925897
1.00757
1.46564
2.21265
2.59405
2.76805
2.84593
2.89271
2.91821
2.93882
2.96077
2.93814
2.89102
2.85506
2.82834
2.81042
2.78209
2.74322
2.69568
2.63218
2.53949
2.44029
2.38576
2.35554
2.33807
2.33528
2.31375
2.28851
2.26548
2.26305
2.35583
2.60645
3.00741
3.42477
3.62733
3.74747
3.75338
3.74504
3.72863
3.68083
3.61006
3.53716
3.45311
3.34306
3.24785
3.18068
3.13552
3.10197
3.07339
3.04643
3.00709
2.94166
2.8428
2.74493
2.68403
2.65745
2.63817
2.61783
2.59195
2.55958
2.51267
2.44502
2.37298
2.31808
2.24443
5.7218
5.28527
4.88302
4.47564
4.09238
3.77029
3.46281
3.13943
2.891
2.68852
2.48766
2.28263
2.118
1.99742
1.86528
1.74611
1.63393
1.56557
1.4835
1.40429
1.32713
1.2647
1.21015
1.15507
1.10117
1.06147
1.02637
0.994962
0.98449
1.05712
1.46085
2.2448
2.54217
2.5671
2.55858
2.58216
2.59054
2.60101
2.61571
2.6388
2.67753
2.72242
2.72635
2.70497
2.71052
2.71922
2.69501
2.65576
2.59745
2.51977
2.44225
2.38911
2.3441
2.31013
2.28467
2.25867
2.23499
2.2063
2.17618
2.13496
2.12308
2.20841
2.46091
2.83103
3.21626
3.4095
3.5248
3.57543
3.56932
3.55133
3.52229
3.44909
3.36733
3.28244
3.1889
3.11031
3.0593
3.03053
3.00817
2.97786
2.92644
2.85126
2.76768
2.69254
2.65256
2.63126
2.61229
2.58749
2.55482
2.50586
2.42642
2.33436
2.26826
2.20863
5.79599
5.38908
5.00208
4.61131
4.2522
3.94162
3.63517
3.31745
3.07907
2.86728
2.66298
2.44422
2.29412
2.1554
2.01943
1.88029
1.77534
1.69863
1.6059
1.51927
1.43658
1.38263
1.32008
1.25896
1.19857
1.14185
1.09645
1.07218
1.15993
1.62357
2.4085
2.67031
2.67401
2.62686
2.56658
2.51384
2.4687
2.43972
2.40853
2.37915
2.3649
2.38645
2.43053
2.49031
2.52139
2.53863
2.53073
2.53091
2.52606
2.48159
2.43155
2.3882
2.33462
2.27924
2.23681
2.20533
2.17819
2.15705
2.13593
2.10482
2.07158
2.02932
2.01589
2.08796
2.285
2.59325
2.92848
3.18802
3.28202
3.37718
3.37547
3.38361
3.37801
3.32703
3.24182
3.14844
3.05589
2.99384
2.9609
2.9282
2.88701
2.84049
2.79227
2.73943
2.68039
2.62445
2.58664
2.5579
2.52964
2.48777
2.40972
2.29973
2.23874
2.20855
5.84047
5.46909
5.09888
4.72406
4.3909
4.09336
3.78734
3.48818
3.25541
3.03884
2.81981
2.60418
2.45807
2.30997
2.17017
2.01501
1.91516
1.82409
1.72758
1.63338
1.54978
1.49027
1.42118
1.35816
1.29449
1.23674
1.20883
1.31925
1.87329
2.70291
2.99997
2.89063
2.75675
2.65781
2.58251
2.52532
2.47387
2.42488
2.37322
2.34104
2.31846
2.26197
2.20631
2.19939
2.21465
2.23762
2.27014
2.30739
2.35877
2.36544
2.3482
2.33197
2.28724
2.23401
2.19738
2.1571
2.11897
2.09792
2.09185
2.08404
2.05541
2.01151
1.94725
1.90087
1.89289
1.94351
2.08109
2.35877
2.66653
2.96401
3.07113
3.19412
3.24095
3.24694
3.2354
3.19151
3.08771
2.98955
2.93491
2.88628
2.83807
2.80122
2.77001
2.73838
2.69637
2.64402
2.58996
2.53729
2.47942
2.41437
2.35321
2.28818
2.2579
2.22261
5.89499
5.54589
5.1957
4.83752
4.52232
4.23477
3.93423
3.65605
3.42351
3.19909
2.96601
2.76972
2.61932
2.46
2.30495
2.14926
2.05521
1.95079
1.84942
1.73918
1.66251
1.59553
1.52453
1.45406
1.38206
1.35031
1.48708
2.12068
2.98808
3.27028
3.20364
3.0477
2.88648
2.77183
2.69569
2.62042
2.54471
2.47489
2.40992
2.34896
2.29401
2.24345
2.18874
2.12286
2.07327
2.04632
2.03917
2.05239
2.0861
2.13275
2.16746
2.18126
2.17034
2.14533
2.11536
2.07924
2.05734
2.05273
2.06377
2.06032
2.03613
1.99128
1.93941
1.87878
1.83171
1.80981
1.79743
1.83574
1.94961
2.16666
2.44753
2.73031
2.91134
3.03196
3.10347
3.0899
3.05168
2.99704
2.9308
2.87175
2.82792
2.78939
2.73984
2.69137
2.65934
2.62936
2.59068
2.53885
2.45651
2.36388
2.30453
2.2835
2.27163
2.23819
5.93741
5.5997
5.27118
4.949
4.64436
4.356
4.06129
3.80548
3.57681
3.35065
3.09925
2.92148
2.76123
2.6029
2.42936
2.28845
2.18906
2.07118
1.96317
1.84813
1.77603
1.70189
1.61733
1.54228
1.50828
1.67075
2.39103
3.29904
3.55293
3.47841
3.32986
3.17855
3.04546
2.91731
2.80552
2.7116
2.63164
2.5601
2.49238
2.42835
2.35926
2.28433
2.20006
2.1124
2.04049
2.00544
1.99282
1.96742
1.94431
1.9368
1.92477
1.92957
1.9324
1.92038
1.92412
1.95816
1.96346
1.95556
1.95674
1.9497
1.9457
1.94054
1.92065
1.87602
1.82265
1.7805
1.74566
1.72715
1.71787
1.73584
1.81219
1.95988
2.20585
2.4482
2.74581
2.86507
2.90008
2.88664
2.85862
2.85397
2.84294
2.80229
2.74904
2.69294
2.62378
2.57868
2.558
2.51944
2.44797
2.36994
2.31463
2.27608
2.2604
2.23019
6.01767
5.68745
5.36557
5.06219
4.7651
4.47565
4.19796
3.94543
3.71524
3.47958
3.2423
3.06626
2.90683
2.74327
2.54834
2.42301
2.3159
2.20086
2.07692
1.96536
1.8909
1.79849
1.71582
1.68373
1.90418
2.7351
3.69349
3.83533
3.7147
3.57194
3.43887
3.32998
3.21641
3.07268
2.92545
2.81397
2.73102
2.65626
2.58432
2.51438
2.43893
2.35457
2.26081
2.15715
2.06968
2.01999
1.9805
1.94099
1.90913
1.87944
1.84676
1.81673
1.77982
1.74371
1.72907
1.73805
1.77321
1.80006
1.81809
1.81064
1.79564
1.80132
1.81628
1.82123
1.80465
1.78141
1.74383
1.69631
1.65709
1.63821
1.62962
1.62558
1.66188
1.75553
1.95816
2.22465
2.51379
2.6395
2.65617
2.70147
2.71972
2.73467
2.73051
2.70422
2.63618
2.55741
2.49137
2.43959
2.40904
2.38261
2.3537
2.30743
2.25505
2.21577
6.06381
5.75027
5.43477
5.14363
4.8667
4.57917
4.29906
4.0612
3.83868
3.60611
3.37782
3.19735
3.03376
2.86375
2.68656
2.55826
2.437
2.31661
2.17489
2.07935
1.98808
1.89286
1.87842
2.16573
3.18552
4.08093
4.18832
4.04629
3.85558
3.71934
3.6092
3.49644
3.36803
3.22237
3.06442
2.92407
2.82113
2.73829
2.66233
2.58622
2.50738
2.42738
2.34396
2.24642
2.14551
2.06774
2.01004
1.96362
1.92091
1.87373
1.82622
1.78084
1.73426
1.68368
1.64939
1.63612
1.62968
1.62093
1.62255
1.62857
1.61797
1.61532
1.63
1.66132
1.70419
1.72032
1.7084
1.67212
1.63529
1.59817
1.56672
1.55185
1.54422
1.53892
1.55462
1.62297
1.77682
1.99988
2.25512
2.4234
2.47208
2.53847
2.58369
2.59818
2.58625
2.54559
2.4687
2.41613
2.39872
2.38286
2.35791
2.32602
2.28079
2.20286
6.12689
5.80492
5.51441
5.23382
4.95785
4.67736
4.41616
4.18633
3.96091
3.72079
3.50749
3.33962
3.16811
2.98057
2.80798
2.68877
2.55862
2.42955
2.29077
2.1752
2.07802
2.1026
2.51873
3.65527
4.61551
4.61958
4.39716
4.18864
4.00694
3.86539
3.74379
3.6153
3.48074
3.34342
3.19887
3.04998
2.92093
2.81989
2.73506
2.65867
2.58618
2.51235
2.43206
2.33752
2.22762
2.12962
2.06189
2.00818
1.95614
1.90724
1.85984
1.80787
1.7428
1.66892
1.61566
1.58781
1.57001
1.55638
1.54369
1.52525
1.49547
1.47772
1.47089
1.4703
1.49044
1.53071
1.57724
1.59941
1.58808
1.54624
1.5032
1.48875
1.48747
1.49594
1.4917
1.47623
1.4669
1.49982
1.60175
1.77463
1.97965
2.17797
2.27593
2.35186
2.42358
2.44373
2.42609
2.41102
2.4084
2.38784
2.3551
2.32093
2.28096
2.18926
6.19051
5.91733
5.60162
5.32344
5.05486
4.78635
4.52943
4.29583
4.07293
3.84496
3.64198
3.46333
3.28379
3.08895
2.93198
2.81267
2.67646
2.53407
2.39454
2.27152
2.32808
2.9204
4.22931
5.13958
5.053
4.77943
4.53141
4.3128
4.155
4.01335
3.87066
3.72879
3.58948
3.45118
3.30829
3.16287
3.03095
2.92106
2.82541
2.73573
2.64906
2.56603
2.48761
2.40614
2.30982
2.20651
2.11847
2.05009
1.99358
1.94796
1.90561
1.85901
1.80114
1.72889
1.64246
1.58056
1.54369
1.5163
1.49547
1.47987
1.46711
1.44564
1.40756
1.37105
1.35381
1.34833
1.3578
1.3921
1.42082
1.43263
1.42631
1.41089
1.41058
1.42293
1.42949
1.42347
1.41053
1.37972
1.36104
1.37785
1.44062
1.56416
1.74337
1.92467
2.05156
2.15994
2.24342
2.30567
2.33894
2.34444
2.32574
2.28892
2.25518
2.16777
6.05115
6.01295
5.71596
5.42069
5.14975
4.88096
4.63859
4.41455
4.18684
3.95177
3.76239
3.58149
3.40187
3.20632
3.05569
2.92085
2.78597
2.64296
2.4952
2.58129
3.41061
4.79397
5.57537
5.47956
5.18158
4.88609
4.65466
4.47733
4.31191
4.15242
3.99702
3.84384
3.69256
3.54227
3.39348
3.25205
3.12536
3.01553
2.91829
2.8262
2.73269
2.63513
2.5366
2.44423
2.35638
2.27059
2.1903
2.11785
2.05328
1.99557
1.94022
1.88516
1.83132
1.77109
1.69736
1.62161
1.56059
1.51384
1.48066
1.46162
1.44869
1.4298
1.39892
1.36389
1.3236
1.28707
1.26377
1.25679
1.25639
1.274
1.29763
1.30213
1.30504
1.31384
1.32557
1.34023
1.34345
1.32782
1.29441
1.27999
1.27787
1.28939
1.33461
1.41583
1.54442
1.68647
1.8501
1.96651
2.09415
2.2333
2.24598
2.21585
2.17898
2.13642
4.94054
5.93923
5.81918
5.52683
5.23821
4.98922
4.747
4.52211
4.28396
4.06703
3.88362
3.704
3.51038
3.31742
3.17934
3.02975
2.89534
2.74694
2.90691
3.98439
5.49381
6.08956
5.99097
5.68017
5.34472
5.07115
4.82167
4.61862
4.44124
4.27343
4.11093
3.95203
3.79518
3.63718
3.48075
3.33312
3.2001
3.08563
2.98753
2.89813
2.80899
2.71383
2.60978
2.50108
2.39753
2.30736
2.23177
2.16598
2.10599
2.04706
1.98312
1.91389
1.84722
1.79019
1.74019
1.68559
1.62384
1.56277
1.50877
1.46536
1.43521
1.41545
1.39883
1.37255
1.32984
1.28511
1.25012
1.2186
1.19482
1.18406
1.18714
1.18657
1.1846
1.18799
1.1889
1.19633
1.21893
1.23003
1.22613
1.21889
1.21664
1.21834
1.21403
1.21416
1.23533
1.27384
1.35617
1.48586
1.62338
1.8005
1.97532
2.07424
2.08709
2.05935
2.54315
5.20385
5.80927
5.64721
5.34846
5.08779
4.84817
4.62436
4.40127
4.18887
3.98675
3.80483
3.61452
3.45061
3.28422
3.13834
3.02365
3.28966
4.68804
6.31723
6.54946
6.34686
6.01754
5.73792
5.4895
5.25253
5.00783
4.76881
4.55354
4.36538
4.19378
4.03174
3.87716
3.72687
3.57724
3.42727
3.28182
3.15122
3.0394
2.94229
2.8534
2.76524
2.67239
2.57222
2.46721
2.36332
2.27048
2.19638
2.1391
2.08766
2.03153
1.96743
1.89851
1.83015
1.76752
1.71471
1.6643
1.61096
1.55937
1.51285
1.46494
1.41761
1.37806
1.35182
1.33397
1.30837
1.26316
1.21686
1.18688
1.15691
1.134
1.12748
1.12761
1.12211
1.10657
1.09568
1.09135
1.09847
1.10896
1.12041
1.142
1.15319
1.14517
1.13103
1.12901
1.12391
1.12715
1.15031
1.20734
1.30451
1.45418
1.64694
1.79014
1.88624
1.18441
3.0354
5.30912
5.67982
5.48835
5.20127
4.95976
4.72425
4.49853
4.29706
4.11169
3.9211
3.72584
3.53454
3.38952
3.31976
3.78296
5.44059
7.09399
7.31387
6.9796
6.50766
6.09934
5.83729
5.62417
5.39631
5.1517
4.90516
4.67404
4.46959
4.28796
4.12194
3.96617
3.81497
3.66381
3.5101
3.35696
3.21542
3.09186
2.98263
2.88502
2.79695
2.7136
2.62738
2.53307
2.42863
2.318
2.21555
2.13569
2.08382
2.04664
2.00571
1.95598
1.89899
1.82817
1.7424
1.66711
1.62119
1.58617
1.5472
1.5016
1.44973
1.40153
1.3608
1.32818
1.3046
1.28237
1.24938
1.20539
1.15916
1.12373
1.10535
1.09339
1.08164
1.07328
1.06314
1.04187
1.02266
1.01215
1.01281
1.02119
1.03727
1.04933
1.05385
1.04994
1.03723
1.03278
1.03443
1.04481
1.06904
1.11467
1.20243
1.31224
1.4994
1.00476
1.32997
3.44213
5.30897
5.54576
5.34394
5.06823
4.82407
4.60428
4.41147
4.21334
4.02314
3.82778
3.64279
3.62094
4.30035
6.40137
7.82866
7.68871
7.37384
7.00816
6.64448
6.31448
6.02968
5.76891
5.51369
5.25826
5.00715
4.77439
4.56767
4.38281
4.2129
4.05128
3.89258
3.73413
3.57613
3.42177
3.27762
3.14777
3.02958
2.92094
2.8238
2.73847
2.65878
2.57598
2.48412
2.38201
2.275
2.17582
2.09407
2.03796
2.00261
1.97224
1.93588
1.88199
1.81094
1.73172
1.64979
1.57725
1.52067
1.48874
1.46734
1.43914
1.39885
1.35683
1.32171
1.29478
1.2696
1.23109
1.17739
1.13037
1.1053
1.08799
1.07164
1.05789
1.04285
1.02681
0.998704
0.969979
0.958195
0.952042
0.950989
0.953723
0.962221
0.965123
0.956573
0.951489
0.952571
0.957436
0.970344
0.991915
1.01844
1.04675
1.1169
1.00003
1.01216
1.50256
3.74575
5.25984
5.40868
5.21826
4.93572
4.70973
4.50518
4.33038
4.12777
3.8942
3.9587
5.06054
7.26232
8.74928
8.75197
8.08808
7.47714
7.05601
6.77358
6.50775
6.2238
5.92515
5.62652
5.3417
5.08403
4.85788
4.65645
4.47239
4.29997
4.13308
3.96675
3.79928
3.63359
3.47502
3.32798
3.19614
3.07852
2.96972
2.86596
2.76646
2.67162
2.58273
2.50011
2.41719
2.32407
2.22438
2.13427
2.06354
2.00695
1.95733
1.91738
1.88483
1.8416
1.76963
1.67175
1.59143
1.54623
1.50506
1.46901
1.4446
1.42248
1.39748
1.35898
1.30503
1.25539
1.21852
1.18406
1.14877
1.12966
1.11482
1.09494
1.07107
1.04913
1.02251
0.984107
0.956836
0.944318
0.934288
0.925103
0.918638
0.912756
0.902035
0.886051
0.869179
0.865591
0.869541
0.880451
0.900359
0.922547
0.933314
0.939604
1
1.00011
1.02511
1.68034
3.94794
5.18177
5.28587
5.0811
4.8332
4.61803
4.42671
4.19307
4.36129
5.89272
8.58719
9.25037
9.0299
8.68789
8.2207
7.71992
7.29367
6.95619
6.65668
6.35416
6.03845
5.72358
5.42794
5.16462
4.93545
4.7306
4.54062
4.36071
4.18782
4.01859
3.85079
3.68581
3.52663
3.3754
3.23575
3.11152
3.00188
2.90005
2.80109
2.70363
2.60742
2.51325
2.42497
2.3431
2.26195
2.18129
2.1046
2.03506
1.97562
1.92459
1.87544
1.82613
1.77382
1.71336
1.62905
1.56462
1.54252
1.52336
1.49806
1.46734
1.4285
1.3794
1.32235
1.27244
1.22843
1.19063
1.16605
1.14536
1.11812
1.08711
1.06159
1.04077
1.01543
0.979234
0.952025
0.939014
0.927398
0.914314
0.901178
0.889172
0.877213
0.861716
0.833504
0.80952
0.805215
0.806026
0.813362
0.83481
0.847465
0.844264
1
1
1.00029
1.04312
1.8486
4.05
5.09884
5.18297
4.98979
4.74427
4.48913
4.78271
7.01212
9.53225
10.5283
10.163
9.23034
8.6356
8.25586
7.883
7.49324
7.12006
6.77649
6.44825
6.12266
5.80477
5.50905
5.24491
5.01048
4.7977
4.59943
4.41149
4.23141
4.05784
3.89048
3.72934
3.57415
3.42447
3.28148
3.15014
3.03369
2.92924
2.83115
2.73489
2.63841
2.54137
2.4455
2.35766
2.28148
2.20985
2.13754
2.06623
1.99837
1.93436
1.8782
1.83556
1.80073
1.755
1.68498
1.61393
1.55369
1.50623
1.46946
1.43313
1.39275
1.36378
1.34595
1.31825
1.28076
1.24526
1.21397
1.17927
1.13887
1.09655
1.06388
1.03939
1.01852
0.998181
0.974725
0.950165
0.92669
0.90666
0.888521
0.872583
0.859359
0.842232
0.818198
0.792332
0.778754
0.775269
0.775989
0.778294
0.775288
0.769353
1
1
1
1.00061
1.06608
1.96996
4.07934
5.03409
5.05803
4.85011
5.23419
8.14202
10.8667
10.8975
10.7218
10.2461
9.46978
8.77349
8.33771
7.9816
7.623
7.25203
6.88313
6.5296
6.19631
5.88437
5.5938
5.32583
5.08
4.85344
4.64373
4.44974
4.26983
4.1004
3.93763
3.77784
3.61975
3.46507
3.31474
3.17502
3.05425
2.95104
2.85707
2.7614
2.65877
2.55694
2.46302
2.3758
2.29422
2.21784
2.14522
2.07463
2.0091
1.95253
1.90239
1.85168
1.79443
1.73165
1.67769
1.62772
1.56727
1.50715
1.4607
1.42468
1.39607
1.37093
1.33994
1.30572
1.26881
1.22849
1.18544
1.14392
1.11175
1.09305
1.07699
1.05737
1.02916
0.994407
0.966233
0.944805
0.92518
0.904491
0.884908
0.869155
0.853045
0.832236
0.807271
0.783405
0.767859
0.758436
0.751548
0.743376
0.734039
0.72276
1
1
1
1
1.00118
1.08415
2.04792
4.23939
4.68009
5.48806
8.88056
12.0876
12.3096
11.5321
10.8148
10.2558
9.63669
8.99596
8.46069
8.04731
7.68269
7.32203
6.95639
6.59669
6.25638
5.94085
5.64951
5.37972
5.1289
4.89499
4.67747
4.47613
4.29007
4.11659
3.95309
3.79578
3.64107
3.49128
3.34692
3.20418
3.07336
2.96316
2.86468
2.77255
2.67682
2.57582
2.48225
2.40017
2.32293
2.24628
2.16664
2.08747
2.0185
1.96135
1.90905
1.85517
1.79964
1.74851
1.6979
1.63536
1.56657
1.50783
1.46527
1.43342
1.40575
1.37693
1.34707
1.31582
1.27901
1.23346
1.18388
1.14275
1.11905
1.10291
1.08498
1.06289
1.03622
1.00836
0.982174
0.955759
0.929491
0.905744
0.88613
0.868863
0.850634
0.82975
0.805298
0.781163
0.763932
0.752514
0.742961
0.732527
0.722821
0.71037
1
1
1
1
1.00001
1.0015
1.10793
2.17071
3.59859
9.38242
12.9406
12.6709
12.2623
11.7259
10.8537
10.2041
9.65948
9.1301
8.61222
8.14698
7.73615
7.3576
6.9969
6.64975
6.31686
5.99966
5.70034
5.42136
5.16377
4.92562
4.70367
4.49687
4.30764
4.13598
3.97621
3.82218
3.66981
3.51554
3.36996
3.25658
3.14942
3.03157
2.91642
2.79795
2.69098
2.62128
2.56235
2.49009
2.40944
2.32098
2.22758
2.14228
2.07392
2.01691
1.96422
1.91274
1.86104
1.80612
1.74247
1.67049
1.60208
1.54961
1.51255
1.48334
1.4562
1.42861
1.39825
1.36151
1.31489
1.2588
1.20733
1.17576
1.15602
1.13778
1.11846
1.09795
1.07611
1.05097
1.01946
0.98356
0.951054
0.926477
0.907635
0.890692
0.872989
0.852085
0.825913
0.798001
0.775593
0.760144
0.747866
0.736399
0.727368
0.711778
1
1
1
1
1
1.00001
1.00265
1.12508
3.67486
14.6577
16.0352
13.79
12.771
12.1523
10.9829
10.201
9.64521
9.14845
8.67608
8.20723
7.7667
7.36671
7.00499
6.67066
6.34897
6.0318
5.72323
5.43475
5.17426
4.94057
4.72613
4.52225
4.3228
4.12971
3.95228
3.79591
3.65657
3.52874
3.40371
3.26022
3.10428
2.96483
2.84553
2.7506
2.67672
2.60874
2.53121
2.44725
2.3546
2.25556
2.15908
2.07966
2.01862
1.96625
1.91688
1.86809
1.81617
1.75751
1.6911
1.62208
1.55939
1.50927
1.47226
1.44403
1.41974
1.39573
1.36681
1.32789
1.27486
1.21507
1.16883
1.14176
1.12407
1.10876
1.09273
1.07462
1.05255
1.02483
0.990772
0.95548
0.925485
0.90209
0.883194
0.866138
0.848197
0.826671
0.800195
0.773567
0.75273
0.737213
0.722791
0.709926
0.703053
0.690111
)
;

boundaryField
{
    inlet
    {
        type            fixedValue;
        value           uniform 1;
    }
    outlet
    {
        type            zeroGradient;
    }
    bottom
    {
        type            zeroGradient;
    }
    top
    {
        type            zeroGradient;
    }
    obstacle
    {
        type            zeroGradient;
    }
    defaultFaces
    {
        type            empty;
    }
}


// ************************************************************************* //
