/*--------------------------------*- C++ -*----------------------------------*\
  =========                 |
  \\      /  F ield         | OpenFOAM: The Open Source CFD Toolbox
   \\    /   O peration     | Website:  https://openfoam.org
    \\  /    A nd           | Version:  7
     \\/     M anipulation  |
\*---------------------------------------------------------------------------*/
FoamFile
{
    version     2.0;
    format      ascii;
    class       volScalarField;
    location    "1.4";
    object      T;
}
// * * * * * * * * * * * * * * * * * * * * * * * * * * * * * * * * * * * * * //

dimensions      [0 0 0 1 0 0 0];

internalField   nonuniform List<scalar> 
4128
(
1
1
1
1
1
1
1
1
1
1
1
1.00025
1.02038
1.22112
1.50056
1.70576
1.75797
1.75316
1.75303
1.749
1.73726
1.7273
1.72007
1.71218
1.7046
1.69925
1.6973
1.69501
1.68928
1.68434
1.67993
1.66595
1.65469
1.65334
1.6494
1.64542
1.64537
1.64336
1.63768
1.62867
1.61946
1.61072
1.60432
1.60247
1.59781
1.5925
1.59286
1.58857
1.58071
1.57364
1.56497
1.55965
1.5548
1.55104
1.54821
1.54158
1.53943
1.5368
1.53054
1.52565
1.51968
1.51456
1.51028
1.50497
1.50151
1.49601
1.49005
1.48791
1.4829
1.47674
1.47271
1.46689
1.46418
1.46142
1.45752
1.45407
1.44824
1.44142
1.43925
1.43648
1.43264
1.42982
1.42604
1.41913
1
1
1
1
1
1
1
1
1
1
1
1
1
1
1
1
1.00032
1.01632
1.1512
1.49392
1.72331
1.74954
1.74656
1.73982
1.72877
1.72157
1.71794
1.71371
1.70816
1.70449
1.70058
1.695
1.68796
1.68385
1.67571
1.66019
1.65725
1.65689
1.65271
1.64927
1.64718
1.6428
1.63526
1.62591
1.61628
1.60887
1.60685
1.60508
1.598
1.59719
1.59518
1.58698
1.57922
1.57124
1.56431
1.56027
1.55629
1.55398
1.54904
1.54382
1.54174
1.5363
1.53008
1.52547
1.51956
1.51595
1.51156
1.50741
1.50373
1.4967
1.49298
1.4891
1.48209
1.47757
1.47256
1.46845
1.46695
1.46359
1.45973
1.45515
1.44745
1.4434
1.44097
1.43704
1.43393
1.43105
1.42575
1.42097
1
1
1
1
1
1
1
1
1
1
1
1
1
1
1
1
1
1.00018
1.00848
1.14212
1.50949
1.69973
1.74747
1.74392
1.73013
1.71749
1.71428
1.71195
1.7106
1.70883
1.7035
1.69417
1.68702
1.68279
1.67081
1.66041
1.66045
1.65952
1.65629
1.65213
1.64786
1.64207
1.63332
1.62273
1.61379
1.61054
1.60995
1.60524
1.60147
1.60099
1.59451
1.5844
1.57732
1.56905
1.56484
1.56195
1.55947
1.55633
1.54958
1.54636
1.54207
1.53482
1.53033
1.52485
1.52075
1.51801
1.51387
1.51053
1.50505
1.49863
1.49491
1.48849
1.48204
1.47809
1.47259
1.47145
1.46977
1.46587
1.46177
1.45509
1.44827
1.44562
1.44182
1.43789
1.43545
1.43109
1.42593
1.4238
1
1
1
1
1
1
1
1
1
1
1
1
1
1
1
1
1
1
1.0001
1.00818
1.16065
1.47524
1.68625
1.73389
1.73194
1.72503
1.71946
1.71643
1.71383
1.70897
1.70055
1.68961
1.68517
1.68101
1.67072
1.66646
1.6649
1.66225
1.65771
1.65183
1.64698
1.64041
1.63015
1.61976
1.6149
1.61427
1.61191
1.60634
1.6058
1.60185
1.59089
1.58274
1.57563
1.56917
1.56701
1.56487
1.56249
1.55626
1.55081
1.54709
1.54002
1.53386
1.53001
1.52473
1.52324
1.52081
1.5172
1.51321
1.50576
1.50047
1.49485
1.48718
1.48288
1.47764
1.47498
1.47491
1.47244
1.46824
1.46306
1.45474
1.45028
1.44677
1.4422
1.43931
1.4361
1.43096
1.42874
1.42756
1
1
1
1
1
1
1
1
1
1
1
1
1
1
1
1
1
1
1
1.00011
1.00991
1.13709
1.44998
1.67254
1.71077
1.72552
1.72531
1.72136
1.71633
1.70947
1.69829
1.68621
1.68178
1.67762
1.67208
1.67017
1.66811
1.66491
1.65867
1.65129
1.64626
1.63843
1.62674
1.61887
1.6176
1.61669
1.61232
1.6098
1.60811
1.5991
1.58795
1.58317
1.57562
1.57181
1.57024
1.56817
1.56303
1.55585
1.55182
1.54554
1.53774
1.5342
1.52845
1.52638
1.52658
1.52427
1.52056
1.51441
1.50658
1.50086
1.49329
1.48726
1.48291
1.4782
1.47891
1.47851
1.47505
1.47052
1.46342
1.45584
1.45173
1.44709
1.44325
1.44017
1.435
1.4333
1.43277
1.43102
1
1
1
1
1
1
1
1
1
1
1
1
1
1
1
1
1
1
1
1
1.00012
1.00723
1.11224
1.44543
1.6559
1.70118
1.71788
1.71886
1.71449
1.7078
1.69831
1.68817
1.68277
1.67905
1.67548
1.67234
1.66929
1.66517
1.65776
1.65086
1.64581
1.6364
1.62553
1.62196
1.62093
1.61814
1.61424
1.61331
1.60745
1.59389
1.58784
1.58338
1.57777
1.57592
1.57411
1.56996
1.56204
1.55687
1.55102
1.54211
1.53753
1.53393
1.52881
1.53027
1.5302
1.52734
1.52266
1.51428
1.50681
1.49965
1.49225
1.48795
1.48241
1.48198
1.48316
1.48168
1.47754
1.47188
1.46324
1.45714
1.45241
1.44801
1.44466
1.4394
1.43662
1.43692
1.43598
1.43343
1
1
1
1
1
1
1
1
1
1
1
1
1
1
1
1
1
1
1
1
1
1.00007
1.00563
1.10845
1.42568
1.62003
1.70188
1.72033
1.71706
1.70992
1.69905
1.68517
1.68127
1.68027
1.67754
1.67365
1.67006
1.66508
1.65664
1.65087
1.6451
1.63434
1.62636
1.62456
1.62281
1.61938
1.61737
1.61512
1.60394
1.59301
1.58925
1.58392
1.58108
1.57976
1.57686
1.56918
1.56283
1.55706
1.54773
1.5408
1.53869
1.53306
1.53239
1.53459
1.53307
1.52903
1.52249
1.51329
1.50559
1.49763
1.49249
1.48763
1.48473
1.48674
1.48699
1.48424
1.47942
1.47205
1.46306
1.4576
1.45325
1.44974
1.44495
1.44034
1.44075
1.44035
1.43818
1.43462
1
1
1
1
1
1
1
1
1
1
1
1
1
1
1
1
1
1
1
1
1
1
1.00006
1.00487
1.09621
1.36862
1.58772
1.70462
1.71764
1.71449
1.70195
1.68483
1.68183
1.68208
1.67921
1.67481
1.67055
1.66387
1.65511
1.65063
1.64414
1.63405
1.62946
1.62701
1.62369
1.62055
1.61919
1.61367
1.60063
1.59478
1.59055
1.58666
1.58475
1.58238
1.57577
1.56882
1.56337
1.5546
1.54494
1.54282
1.53982
1.53533
1.53807
1.53854
1.53498
1.52925
1.5205
1.51109
1.50308
1.49712
1.49329
1.4885
1.48941
1.49146
1.49022
1.48587
1.47995
1.47084
1.46259
1.45797
1.45477
1.45121
1.44524
1.44464
1.4447
1.44303
1.43955
1.43462
1
1
1
1
1
1
1
1
1
1
1
1
1
1
1
1
1
1
1
1
1
1
1
1.00004
1.00358
1.06697
1.30614
1.59012
1.70689
1.70667
1.69838
1.68574
1.68557
1.68525
1.67943
1.67499
1.67113
1.66348
1.65539
1.65084
1.64279
1.63453
1.63146
1.62881
1.62503
1.62221
1.62006
1.61124
1.60092
1.59593
1.59223
1.59036
1.58876
1.58331
1.57519
1.56968
1.5619
1.54987
1.54549
1.54517
1.54088
1.54111
1.54416
1.54201
1.536
1.52809
1.51696
1.5079
1.50153
1.49818
1.49379
1.49243
1.49483
1.49497
1.49186
1.48626
1.47891
1.46879
1.46242
1.45899
1.45662
1.45244
1.44895
1.44895
1.44773
1.44447
1.43985
1.43276
1
1
1
1
1
1
1
1
1
1
1
1
1
1
1
1
1
1
1
1
1
1
1
1
1.00003
1.00195
1.0454
1.27898
1.60282
1.68266
1.69009
1.69128
1.69085
1.68493
1.67707
1.67418
1.67055
1.66276
1.656
1.65096
1.64202
1.636
1.63339
1.63053
1.62627
1.62311
1.61957
1.61047
1.60166
1.59622
1.5939
1.59318
1.59121
1.58363
1.57699
1.56988
1.55788
1.54848
1.54844
1.5468
1.54445
1.54779
1.54815
1.54319
1.5355
1.52519
1.51336
1.5062
1.50276
1.49998
1.49623
1.4978
1.49906
1.49744
1.4922
1.48589
1.47574
1.46686
1.46329
1.46092
1.45865
1.4556
1.45403
1.45242
1.44921
1.44476
1.43832
1.42853
1
1
1
1
1
1
1
1
1
1
1
1
1
1
1
1
1
1
1
1
1
1
1
1
1
1.00001
1.00121
1.03711
1.27958
1.58184
1.65503
1.6815
1.69023
1.68331
1.67805
1.67815
1.67347
1.66251
1.65592
1.64954
1.64019
1.63586
1.63463
1.63313
1.62905
1.62466
1.61936
1.60983
1.60038
1.59613
1.59554
1.59537
1.59166
1.58467
1.57865
1.56769
1.5537
1.55141
1.55151
1.54901
1.55058
1.55375
1.55073
1.54245
1.53318
1.52087
1.51107
1.50729
1.50603
1.5021
1.50158
1.50281
1.50201
1.4979
1.49174
1.48381
1.47106
1.46689
1.46552
1.46353
1.46146
1.45996
1.45817
1.45474
1.44984
1.44361
1.43433
1.4261
1
1
1
1
1
1
1
1
1
1
1
1
1
1
1
1
1
1
1
1
1
1
1
1
1
1
1.00001
1.00105
1.03408
1.27978
1.53393
1.63807
1.68275
1.68638
1.68417
1.67775
1.67057
1.66306
1.65894
1.65006
1.6396
1.63637
1.6361
1.63574
1.6318
1.62707
1.62051
1.60828
1.59891
1.5967
1.59681
1.59659
1.5922
1.58704
1.57888
1.56298
1.55381
1.55461
1.55394
1.55354
1.55738
1.5574
1.55093
1.54051
1.52962
1.51716
1.51139
1.51086
1.50942
1.50665
1.50713
1.50648
1.50342
1.49733
1.49083
1.47869
1.46854
1.46903
1.46858
1.46683
1.46539
1.46403
1.46095
1.45572
1.44887
1.44
1.43168
1.42881
1
1
1
1
1
1
1
1
1
1
1
1
1
1
1
1
1
1
1
1
1
1
1
1
1
1
1
1.00001
1.00088
1.03377
1.23672
1.45718
1.63265
1.68856
1.68431
1.67586
1.66768
1.66181
1.65955
1.649
1.64188
1.64106
1.63936
1.63591
1.632
1.6289
1.62105
1.60698
1.59959
1.59843
1.59857
1.59739
1.59325
1.58874
1.57669
1.55987
1.55802
1.5584
1.55736
1.55929
1.56231
1.55894
1.54879
1.53797
1.52665
1.51628
1.51442
1.5145
1.513
1.51198
1.51088
1.50846
1.50313
1.49672
1.48822
1.47367
1.47117
1.47252
1.47191
1.47052
1.46937
1.46702
1.46223
1.45521
1.445
1.43635
1.43386
1.43319
1
1
1
1
1
1
1
1
1
1
1
1
1
1
1
1
1
1
1
1
1
1
1
1
1
1
1
1
1.00001
1.00071
1.02211
1.14357
1.42364
1.64568
1.67676
1.67376
1.66459
1.66052
1.65593
1.64773
1.64746
1.64764
1.64284
1.63633
1.6314
1.6281
1.61887
1.60601
1.60244
1.60174
1.60071
1.59726
1.59304
1.58798
1.57218
1.56087
1.56211
1.56238
1.56223
1.56501
1.56499
1.5583
1.54542
1.53507
1.52522
1.51885
1.51849
1.51825
1.51776
1.51622
1.51353
1.50878
1.50196
1.49525
1.48264
1.47374
1.4754
1.47643
1.47575
1.47463
1.4727
1.46837
1.46188
1.45171
1.44039
1.43786
1.43782
1.43763
1
1
1
1
1
1
1
1
1
1
1
1
1
1
1
1
1
1
1
1
1
1
1
1
1
1
1
1
1
1
1.00031
1.00829
1.10864
1.43541
1.61287
1.65964
1.67072
1.66431
1.65585
1.65311
1.65476
1.65161
1.64318
1.63722
1.63203
1.62775
1.61621
1.60664
1.60494
1.60435
1.60192
1.59737
1.59363
1.58638
1.56945
1.56522
1.56586
1.5657
1.5664
1.5684
1.56576
1.55595
1.54238
1.53279
1.52542
1.52255
1.52219
1.52282
1.52213
1.51949
1.51539
1.50843
1.50149
1.49122
1.4787
1.47791
1.48042
1.48059
1.48009
1.47878
1.47488
1.46819
1.45887
1.44607
1.4408
1.44126
1.44174
1.44277
1
1
1
1
1
1
1
1
1
1
1
1
1
1
1
1
1
1
1
1
1
1
1
1
1
1
1
1
1
1
1
1.0001
1.00552
1.11611
1.39149
1.57726
1.65654
1.66509
1.66375
1.66051
1.65512
1.6477
1.64109
1.63567
1.63141
1.62719
1.61713
1.61077
1.60828
1.60569
1.60132
1.59706
1.5942
1.58523
1.57158
1.56987
1.56957
1.56838
1.56865
1.56894
1.56472
1.55272
1.54016
1.53221
1.52755
1.52587
1.52639
1.52704
1.52535
1.52191
1.51585
1.50853
1.49975
1.48597
1.48076
1.48279
1.48468
1.48443
1.48396
1.48187
1.47576
1.46616
1.45357
1.44479
1.44447
1.44514
1.44667
1.44917
1
1
1
1
1
1
1
1
1
1
1
1
1
1
1
1
1
1
1
1
1
1
1
1
1
1
1
1
1
1
1
1
1.00008
1.00628
1.09465
1.31309
1.56724
1.63465
1.65421
1.66243
1.66014
1.64986
1.64087
1.63484
1.62952
1.62562
1.61911
1.61469
1.61173
1.60714
1.60168
1.59793
1.59424
1.58446
1.575
1.57326
1.57362
1.57217
1.57053
1.56894
1.56222
1.54969
1.53881
1.53238
1.53015
1.52943
1.53059
1.53021
1.52766
1.52285
1.5155
1.50798
1.49508
1.48539
1.48596
1.48861
1.48913
1.48882
1.48724
1.4825
1.47349
1.46128
1.45108
1.44877
1.4491
1.45035
1.45308
1.4547
1
1
1
1
1
1
1
1
1
1
1
1
1
1
1
1
1
1
1
1
1
1
1
1
1
1
1
1
1
1
1
1
1
1.00007
1.00407
1.05013
1.28744
1.53767
1.61664
1.65781
1.6577
1.6518
1.64444
1.63576
1.62985
1.62774
1.62284
1.61837
1.6153
1.60969
1.60444
1.60064
1.59476
1.58475
1.57533
1.57469
1.57662
1.57592
1.57272
1.56912
1.56014
1.54762
1.53731
1.5339
1.53358
1.53412
1.53482
1.53337
1.52987
1.52314
1.51525
1.50415
1.49105
1.48944
1.49139
1.49342
1.49375
1.4929
1.48942
1.48116
1.46778
1.45749
1.4543
1.45422
1.45478
1.45711
1.45929
1.4583
1
1
1
1
1
1
1
1
1
1
1
1
1
1
1
1
1
1
1
1
1
1
1
1
1
1
1
1
1
1
1
1
1
1
1.00003
1.00157
1.04062
1.26881
1.46763
1.60829
1.65717
1.65656
1.64503
1.63267
1.63119
1.63092
1.62319
1.61858
1.61669
1.61318
1.60903
1.60402
1.5956
1.58338
1.5759
1.57665
1.5794
1.57886
1.57452
1.56889
1.55871
1.54486
1.53684
1.53653
1.53696
1.53862
1.53854
1.53657
1.53151
1.5235
1.51343
1.49851
1.49318
1.4949
1.49713
1.49822
1.49776
1.49483
1.4885
1.47554
1.46258
1.4599
1.4598
1.46002
1.46185
1.46432
1.46414
1.45736
1
1
1
1
1
1
1
1
1
1
1
1
1
1
1
1
1
1
1
1
1
1
1
1
1
1
1
1
1
1
1
1
1
1
1
1.00001
1.00112
1.03215
1.17705
1.40241
1.62615
1.6453
1.63819
1.63313
1.63435
1.63075
1.62121
1.61933
1.61891
1.61795
1.61271
1.60436
1.59491
1.58139
1.57795
1.57977
1.58297
1.58201
1.57727
1.57018
1.557
1.54178
1.53835
1.53932
1.54093
1.54281
1.54202
1.53854
1.53168
1.52242
1.50811
1.49735
1.49769
1.50049
1.50228
1.5026
1.50057
1.4953
1.48421
1.46908
1.46427
1.46475
1.46526
1.46692
1.46939
1.46965
1.46488
1.44999
1
1
1
1
1
1
1
1
1
1
1
1
1
1
1
1
1
1
1
1
1
1
1
1
1
1
1
1
1
1
1
1
1
1
1
1
1.00001
1.0006
1.01338
1.10884
1.42318
1.59795
1.61668
1.62878
1.63634
1.62814
1.62361
1.62776
1.62745
1.62004
1.61171
1.6046
1.59371
1.58285
1.58306
1.58448
1.58464
1.58237
1.57709
1.56975
1.55411
1.54235
1.54199
1.54279
1.54453
1.54627
1.54467
1.53924
1.53072
1.51838
1.50403
1.50093
1.50307
1.50588
1.50658
1.50555
1.501
1.49256
1.47765
1.46839
1.46859
1.46978
1.47178
1.47455
1.47535
1.47237
1.45977
1.44134
1
1
1
1
1
1
1
1
1
1
1
1
1
1
1
1
1
1
1
1
1
1
1
1
1
1
1
1
1
1
1
1
1
1
1
1
1
1
1.00019
1.00643
1.10893
1.41039
1.54746
1.60523
1.63356
1.63515
1.63633
1.633
1.62647
1.62018
1.61369
1.60553
1.59115
1.58766
1.58875
1.58954
1.58818
1.58325
1.57645
1.56674
1.55121
1.54592
1.54673
1.54755
1.54921
1.54994
1.54678
1.53885
1.52711
1.51275
1.50517
1.50558
1.50851
1.51066
1.51045
1.50672
1.49988
1.48725
1.47365
1.47135
1.47264
1.47519
1.47891
1.48089
1.47964
1.47022
1.45114
1.43618
1
1
1
1
1
1
1
1
1
1
1
1
1
1
1
1
1
1
1
1
1
1
1
1
1
1
1
1
1
1
1
1
1
1
1
1
1
1
1
1.0001
1.00613
1.11358
1.33655
1.49289
1.60822
1.63932
1.63444
1.62881
1.62418
1.61915
1.61319
1.5997
1.59261
1.59339
1.59436
1.59317
1.58832
1.58193
1.57442
1.56231
1.55197
1.5512
1.55243
1.55238
1.55319
1.55332
1.54807
1.53672
1.52171
1.51119
1.50962
1.51075
1.514
1.51507
1.51245
1.50636
1.49706
1.48255
1.47408
1.47447
1.47691
1.48127
1.48519
1.48553
1.48034
1.46345
1.44474
1.43525
1
1
1
1
1
1
1
1
1
1
1
1
1
1
1
1
1
1
1
1
1
1
1
1
1
1
1
1
1
1
1
1
1
1
1
1
1
1
1
1
1.00009
1.00599
1.0657
1.21501
1.48389
1.6124
1.62492
1.62428
1.61903
1.61678
1.60549
1.59793
1.59876
1.5991
1.5975
1.59417
1.58838
1.58075
1.57027
1.56044
1.55652
1.55684
1.55879
1.55896
1.55826
1.55516
1.54644
1.53212
1.51793
1.51384
1.51459
1.51696
1.51954
1.51827
1.51227
1.5046
1.49336
1.4804
1.47687
1.47813
1.4822
1.48768
1.48998
1.48798
1.47638
1.45665
1.44172
1.43796
1
1
1
1
1
1
1
1
1
1
1
1
1
1
1
1
1
1
1
1
1
1
1
1
1
1
1
1
1
1
1
1
1
1
1
1
1
1
1
1
1
1.00005
1.00185
1.02267
1.19048
1.48193
1.57883
1.60867
1.62081
1.61554
1.60841
1.60659
1.60412
1.60067
1.5982
1.59453
1.58799
1.57924
1.56918
1.56283
1.56246
1.56305
1.56467
1.56483
1.56228
1.55528
1.54324
1.52758
1.51802
1.51774
1.51979
1.52318
1.52378
1.51911
1.51138
1.50227
1.48997
1.48072
1.48027
1.48279
1.48846
1.49322
1.49339
1.48697
1.47018
1.45161
1.44246
1.44218
1
1
1
1
1
1
1
1
1
1
1
1
1
1
1
1
1
1
1
1
1
1
1
1
1
1
1
1
1
1
1
1
1
1
1
1
1
1
1
1
1
1
1.00001
1.00051
1.01809
1.19159
1.42561
1.53463
1.60354
1.61865
1.61617
1.60908
1.60663
1.60473
1.59975
1.59295
1.58508
1.57732
1.57095
1.56813
1.56802
1.56794
1.56789
1.56661
1.56184
1.5537
1.54136
1.52671
1.52142
1.52214
1.52471
1.52705
1.52563
1.51853
1.51041
1.49987
1.48755
1.48312
1.48425
1.48888
1.49519
1.4977
1.49504
1.48266
1.46391
1.44896
1.44586
1.44628
1
1
1
1
1
1
1
1
1
1
1
1
1
1
1
1
1
1
1
1
1
1
1
1
1
1
1
1
1
1
1
1
1
1
1
1
1
1
1
1
1
1
1
1
1.00043
1.0177
1.14042
1.31287
1.51646
1.60976
1.61044
1.60834
1.6086
1.60634
1.59549
1.58814
1.58387
1.57839
1.57553
1.57445
1.57282
1.57046
1.56782
1.56394
1.55823
1.55185
1.54126
1.52856
1.52629
1.52706
1.52886
1.52938
1.52555
1.51805
1.5092
1.4975
1.48732
1.48629
1.48896
1.49568
1.5008
1.50089
1.49366
1.47736
1.45922
1.44992
1.44968
1.45055
1
1
1
1
1
1
1
1
1
1
1
1
1
1
1
1
1
1
1
1
1
1
1
1
1
1
1
1
1
1
1
1
1
1
1
1
1
1
1
1
1
1
1
1
1
1.00031
1.00811
1.06164
1.26011
1.52768
1.58667
1.60345
1.60787
1.60416
1.59206
1.58926
1.58901
1.58453
1.58075
1.57965
1.57605
1.57189
1.56838
1.56332
1.55727
1.55102
1.54153
1.53142
1.53029
1.53116
1.53269
1.5318
1.52569
1.51828
1.50802
1.49546
1.48944
1.49017
1.49539
1.50273
1.50471
1.50131
1.48911
1.4721
1.45728
1.45349
1.45408
1.45616
1
1
1
1
1
1
1
1
1
1
1
1
1
1
1
1
1
1
1
1
1
1
1
1
1
1
1
1
1
1
1
1
1
1
1
1
1
1
1
1
1
1
1
1
1
1
1.00007
1.00225
1.03899
1.25946
1.49254
1.56219
1.59365
1.60522
1.60144
1.59993
1.59476
1.5869
1.58449
1.58026
1.57355
1.57031
1.56816
1.5646
1.55938
1.55341
1.54323
1.53348
1.53257
1.5344
1.53576
1.53329
1.5274
1.51921
1.50696
1.49534
1.49359
1.49566
1.50261
1.50664
1.50562
1.49795
1.48379
1.46778
1.4582
1.45755
1.45894
1.46275
1
1
1
1
1
1
1
1
1
1
1
1
1
1
1
1
1
1
1
1
1
1
1
1
1
1
1
1
1
1
1
1
1
1
1
1
1
1
1
1
1
1
1
1
1
1
1
1.00002
1.00131
1.03507
1.23185
1.40594
1.52236
1.59543
1.60665
1.60238
1.59475
1.59068
1.58849
1.5773
1.56944
1.56813
1.56733
1.5655
1.56228
1.55676
1.5452
1.53621
1.535
1.53525
1.5354
1.53306
1.52857
1.52009
1.50615
1.49903
1.49906
1.50203
1.50745
1.50798
1.50417
1.49365
1.47923
1.46571
1.46174
1.4624
1.46542
1.47023
1
1
1
1
1
1
1
1
1
1
1
1
1
1
1
1
1
1
1
1
1
1
1
1
1
1
1
1
1
1
1
1
1
1
1
1
1
1
1
1
1
1
1
1
1
1
1
1
1.00001
1.00101
1.02495
1.13107
1.30485
1.53223
1.59189
1.59393
1.59129
1.59109
1.58581
1.573
1.57076
1.57243
1.57197
1.56897
1.56429
1.55606
1.54485
1.53964
1.53867
1.53798
1.53663
1.53438
1.52989
1.5198
1.50639
1.50477
1.50551
1.50782
1.50966
1.50813
1.50133
1.48974
1.47464
1.46639
1.4662
1.46833
1.47316
1.47666
1
1
1
1
1
1
1
1
1
1
1
1
1
1
1
1
1
1
1
1
1
1
1
1
1
1
1
1
1
1
1
1
1
1
1
1
1
1
1
1
1
1
1
1
1
1
1
1
1
1.00001
1.00041
1.0075
1.06086
1.29855
1.52073
1.56853
1.5824
1.58996
1.58316
1.57867
1.58225
1.58258
1.57726
1.57112
1.56422
1.55264
1.54369
1.54258
1.54185
1.54072
1.53972
1.53764
1.53184
1.51833
1.50959
1.50908
1.50962
1.51156
1.51153
1.50766
1.49964
1.48633
1.47297
1.46982
1.471
1.47537
1.48029
1.48112
1
1
1
1
1
1
1
1
1
1
1
1
1
1
1
1
1
1
1
1
1
1
1
1
1
1
1
1
1
1
1
1
1
1
1
1
1
1
1
1
1
1
1
1
1
1
1
1
1
1
1
1.00007
1.00268
1.05306
1.28184
1.45648
1.53488
1.57392
1.59258
1.59469
1.59194
1.58386
1.57594
1.56903
1.55957
1.54953
1.54668
1.54833
1.54832
1.54746
1.54594
1.54117
1.53047
1.51705
1.51287
1.51287
1.51308
1.51324
1.51178
1.50759
1.49811
1.48332
1.47473
1.47469
1.47695
1.48215
1.48475
1.48418
1
1
1
1
1
1
1
1
1
1
1
1
1
1
1
1
1
1
1
1
1
1
1
1
1
1
1
1
1
1
1
1
1
1
1
1
1
1
1
1
1
1
1
1
1
1
1
1
1
1
1
1
1.00003
1.00207
1.0441
1.19889
1.35894
1.52134
1.57668
1.58913
1.58881
1.58538
1.57827
1.56653
1.55569
1.55081
1.55098
1.55433
1.5565
1.55577
1.55042
1.54039
1.52622
1.51579
1.51467
1.51558
1.51632
1.5157
1.51372
1.50869
1.49683
1.48243
1.47871
1.47951
1.48303
1.48721
1.48752
1.48507
1
1
1
1
1
1
1
1
1
1
1
1
1
1
1
1
1
1
1
1
1
1
1
1
1
1
1
1
1
1
1
1
1
1
1
1
1
1
1
1
1
1
1
1
1
1
1
1
1
1
1
1
1
1.00002
1.00125
1.01902
1.09742
1.32072
1.52358
1.57144
1.58708
1.58289
1.57502
1.56423
1.55739
1.55678
1.55979
1.56276
1.5632
1.55924
1.54751
1.53525
1.52492
1.51834
1.51762
1.51842
1.51903
1.5184
1.51696
1.51074
1.49592
1.48451
1.48265
1.48399
1.48829
1.49066
1.48992
1.48422
1
1
1.41329
1.41194
1.41734
1.5028
1.71332
1.84878
1.8908
1.89527
1.89154
1.88683
1.88386
1.88062
1.87455
1.86322
1.85432
1.85157
1.84986
1.8479
1.84733
1.84641
1.84339
1.83818
1.83208
1.82488
1.81268
1.79873
1.79064
1.78914
1.78874
1.78723
1.41722
1.41427
1.41245
1.42177
1.52335
1.73063
1.85029
1.88262
1.88298
1.87926
1.87458
1.87003
1.8632
1.85367
1.84766
1.84618
1.84497
1.84328
1.84362
1.84303
1.84002
1.83448
1.82568
1.81286
1.79816
1.79062
1.78727
1.78673
1.7861
1.78372
1.42185
1.41868
1.41364
1.40878
1.42301
1.5374
1.75105
1.84224
1.87045
1.86969
1.86442
1.85942
1.85485
1.84921
1.84488
1.84226
1.83914
1.83862
1.83931
1.83854
1.83518
1.82869
1.816
1.79806
1.78829
1.7861
1.78477
1.78479
1.78363
1.78038
1.42545
1.42185
1.41545
1.40495
1.40183
1.42191
1.56074
1.76857
1.83545
1.85909
1.85639
1.85028
1.84743
1.8454
1.84402
1.84075
1.83478
1.8339
1.8332
1.83071
1.82667
1.81993
1.80533
1.78784
1.78402
1.78202
1.78176
1.78207
1.78045
1.77725
1.42802
1.42336
1.41596
1.40298
1.39741
1.3991
1.43032
1.59784
1.7634
1.833
1.85392
1.8483
1.84369
1.84282
1.84231
1.83701
1.83047
1.82839
1.82469
1.8202
1.81609
1.80979
1.79575
1.7846
1.78165
1.77912
1.77887
1.77806
1.77607
1.77382
1.42941
1.42326
1.41355
1.40256
1.39736
1.39883
1.40333
1.44883
1.61291
1.76229
1.8304
1.84806
1.84509
1.84256
1.83799
1.82829
1.82379
1.81956
1.81425
1.8101
1.80642
1.80045
1.78967
1.78258
1.77886
1.77679
1.77551
1.77387
1.77221
1.77108
1.42905
1.42045
1.40907
1.40442
1.40323
1.40247
1.40417
1.40922
1.46154
1.61176
1.77262
1.82873
1.84018
1.83923
1.82916
1.81739
1.81342
1.80916
1.8054
1.80258
1.79909
1.79351
1.78615
1.78014
1.77616
1.77339
1.7715
1.77038
1.76992
1.76909
1.4269
1.4155
1.40895
1.40888
1.40882
1.40829
1.40776
1.4062
1.40957
1.46021
1.63627
1.77119
1.81759
1.83019
1.8217
1.80913
1.80402
1.8017
1.80045
1.79807
1.79423
1.78939
1.78288
1.77636
1.77214
1.76996
1.76794
1.76797
1.7683
1.76586
1.42259
1.41474
1.41342
1.41346
1.41362
1.41361
1.41216
1.40722
1.39879
1.40199
1.47148
1.65657
1.7651
1.81437
1.81327
1.80797
1.80223
1.79786
1.7954
1.79417
1.79203
1.78621
1.77792
1.77175
1.76883
1.76608
1.76513
1.76585
1.76462
1.75718
1.42086
1.4187
1.41839
1.41835
1.4185
1.41793
1.41458
1.40564
1.39434
1.39361
1.40201
1.49601
1.65034
1.76757
1.80488
1.80127
1.79752
1.79575
1.79322
1.79232
1.78945
1.78182
1.77429
1.76919
1.76489
1.76216
1.76249
1.76196
1.75682
1.74537
1.42381
1.42341
1.4233
1.4234
1.4231
1.42047
1.41233
1.40212
1.39495
1.39145
1.39309
1.41084
1.49427
1.64965
1.77364
1.78959
1.79531
1.79468
1.79123
1.78838
1.78274
1.77636
1.77206
1.7674
1.76138
1.75983
1.75871
1.75411
1.74563
1.734
1.42824
1.4281
1.42832
1.42825
1.42597
1.4183
1.40754
1.40109
1.39834
1.39402
1.3944
1.39761
1.41205
1.48933
1.67419
1.75381
1.77743
1.79053
1.78754
1.78101
1.77658
1.77409
1.7709
1.76367
1.75849
1.75599
1.75106
1.74366
1.73504
1.72869
1.43292
1.43329
1.43347
1.4316
1.42389
1.41251
1.40574
1.40234
1.40011
1.39896
1.39854
1.39934
1.39668
1.40763
1.50964
1.67565
1.73787
1.77402
1.78119
1.77773
1.77559
1.77424
1.76814
1.75984
1.75516
1.74907
1.7415
1.73451
1.73059
1.72799
1.43823
1.43922
1.43815
1.43059
1.41737
1.40969
1.40655
1.40422
1.40305
1.40416
1.4046
1.40246
1.39335
1.38939
1.40943
1.52956
1.65527
1.73541
1.77648
1.77924
1.77718
1.77236
1.762
1.7555
1.74896
1.74078
1.73467
1.73228
1.73065
1.72923
1.44435
1.4441
1.43801
1.42379
1.41375
1.41024
1.40841
1.40643
1.40744
1.40955
1.40958
1.40398
1.3929
1.38433
1.38497
1.41463
1.5161
1.65319
1.75276
1.77289
1.7737
1.76818
1.75583
1.74825
1.74111
1.73594
1.73413
1.73337
1.73215
1.73077
1.45
1.44595
1.43163
1.41793
1.41336
1.41247
1.41026
1.4106
1.41319
1.41442
1.41184
1.40293
1.39307
1.38564
1.38122
1.3839
1.41098
1.50976
1.68083
1.74949
1.76076
1.75901
1.74886
1.74
1.73611
1.73514
1.73582
1.73553
1.73459
1.73012
1.45246
1.44074
1.42431
1.41703
1.41545
1.41379
1.41386
1.41633
1.41886
1.41806
1.41107
1.40167
1.39393
1.38744
1.38287
1.38314
1.38482
1.40942
1.53558
1.68631
1.73406
1.74413
1.73996
1.73669
1.73638
1.73808
1.73861
1.73807
1.7346
1.72258
1.44924
1.43191
1.42145
1.41832
1.4168
1.41681
1.4194
1.42312
1.42345
1.41883
1.40933
1.40085
1.39377
1.3891
1.38692
1.38398
1.38319
1.38573
1.42132
1.5572
1.66648
1.71145
1.72928
1.73907
1.74251
1.74266
1.74053
1.73767
1.72848
1.71113
1.44061
1.42705
1.42203
1.41991
1.41957
1.42175
1.42632
1.42819
1.42601
1.41802
1.40901
1.39981
1.39358
1.39129
1.38937
1.38487
1.38412
1.38569
1.3905
1.43205
1.53805
1.64268
1.70479
1.73801
1.74739
1.74508
1.73968
1.73259
1.71686
1.70381
1.43356
1.42618
1.42399
1.42273
1.42419
1.42893
1.4321
1.43135
1.42577
1.41751
1.40825
1.39898
1.39482
1.39326
1.39021
1.38835
1.38867
1.38904
1.38721
1.38902
1.41985
1.51423
1.64656
1.71552
1.74244
1.74306
1.73515
1.72178
1.70587
1.70148
1.43041
1.42791
1.42678
1.42717
1.43081
1.43535
1.43557
1.43222
1.42549
1.41686
1.40646
1.39956
1.39754
1.39462
1.39215
1.39359
1.39475
1.39354
1.38792
1.37777
1.37922
1.40741
1.52361
1.66358
1.72378
1.73127
1.72457
1.7106
1.70118
1.70095
1.43092
1.43103
1.43122
1.43347
1.43823
1.43919
1.43718
1.43205
1.42472
1.41462
1.40523
1.40228
1.40006
1.39659
1.39679
1.39918
1.39917
1.39606
1.38706
1.37433
1.37076
1.37338
1.4129
1.55296
1.66876
1.70943
1.708
1.70256
1.70206
1.70184
1.43452
1.43506
1.43656
1.44074
1.44289
1.4417
1.43807
1.4316
1.42261
1.41169
1.40646
1.40515
1.40228
1.40092
1.40315
1.40377
1.40209
1.39535
1.38507
1.37448
1.36947
1.37153
1.37925
1.43266
1.55478
1.64923
1.6854
1.69494
1.70248
1.70602
1.43856
1.43978
1.44324
1.44661
1.44599
1.44345
1.43815
1.43003
1.41858
1.41092
1.40921
1.40777
1.40561
1.40735
1.40876
1.40775
1.40212
1.39194
1.38348
1.37526
1.37136
1.37419
1.38177
1.39096
1.43398
1.52489
1.63005
1.66994
1.69459
1.70888
1.44289
1.4451
1.4495
1.4502
1.44874
1.44493
1.43742
1.42571
1.41572
1.41285
1.41235
1.41073
1.41158
1.4138
1.41345
1.40914
1.39871
1.3885
1.38132
1.37698
1.37783
1.38259
1.38663
1.38654
1.38543
1.41319
1.51004
1.62359
1.67145
1.70271
1.44769
1.45177
1.45458
1.4536
1.451
1.44463
1.43317
1.42118
1.41618
1.41586
1.41545
1.41572
1.4185
1.41876
1.41591
1.40631
1.39384
1.38588
1.3814
1.38141
1.38694
1.39147
1.39046
1.38479
1.37098
1.37027
1.40339
1.52077
1.62813
1.68317
1.45321
1.45793
1.45845
1.45697
1.45206
1.44157
1.42797
1.42021
1.41901
1.41935
1.42006
1.42303
1.4238
1.42191
1.41397
1.40024
1.38968
1.38578
1.38482
1.38913
1.39618
1.39696
1.39308
1.37973
1.36399
1.36141
1.36599
1.41348
1.53857
1.63361
1.46039
1.46323
1.4625
1.45879
1.44954
1.43557
1.425
1.42238
1.42281
1.42469
1.42756
1.42885
1.42757
1.42111
1.40759
1.39406
1.38931
1.38872
1.39216
1.39951
1.40222
1.40029
1.38995
1.37245
1.36117
1.36055
1.36359
1.37527
1.43074
1.53366
1.46707
1.46774
1.46581
1.45805
1.44402
1.43102
1.42609
1.42611
1.42818
1.43207
1.43369
1.43292
1.42782
1.41537
1.39983
1.39282
1.39237
1.39545
1.40275
1.40701
1.40618
1.39792
1.38007
1.36904
1.36413
1.36442
1.36848
1.37764
1.38866
1.42335
1.47224
1.47145
1.46608
1.45337
1.43836
1.43076
1.43008
1.43161
1.43585
1.43847
1.43808
1.43391
1.42279
1.40693
1.39701
1.39602
1.39879
1.40578
1.41119
1.4113
1.40584
1.38768
1.37357
1.37036
1.3695
1.37254
1.37915
1.38294
1.3829
1.37893
1.47665
1.47331
1.46276
1.44686
1.43611
1.43411
1.4352
1.43911
1.44295
1.44318
1.44015
1.42992
1.41398
1.40234
1.39983
1.40204
1.40844
1.41481
1.41578
1.4124
1.39726
1.37835
1.37429
1.3738
1.37531
1.38251
1.38737
1.3864
1.38148
1.36694
1.47943
1.47161
1.45616
1.44228
1.43812
1.43877
1.44208
1.44687
1.44825
1.44644
1.43768
1.4211
1.40814
1.40433
1.40558
1.41075
1.41788
1.41994
1.41797
1.40635
1.38604
1.37767
1.37752
1.37855
1.38365
1.39043
1.39106
1.3878
1.37745
1.36118
1.4794
1.46624
1.44989
1.44245
1.44237
1.44489
1.44992
1.45299
1.45249
1.44612
1.4297
1.41386
1.40914
1.4096
1.41321
1.42026
1.42395
1.4231
1.41476
1.39536
1.38206
1.38077
1.38165
1.3862
1.39267
1.39431
1.39292
1.38601
1.373
1.36025
1.47576
1.45916
1.44745
1.44591
1.44757
1.45232
1.45704
1.45768
1.45406
1.44037
1.42109
1.41364
1.41371
1.41606
1.42215
1.42746
1.42772
1.42244
1.4056
1.3887
1.38441
1.38464
1.388
1.39508
1.39775
1.39697
1.39225
1.38236
1.37088
1.36116
1.47008
1.45457
1.44948
1.45041
1.45431
1.4601
1.46248
1.46085
1.45103
1.43162
1.41867
1.41773
1.41917
1.42393
1.43019
1.43186
1.42912
1.41634
1.39749
1.38916
1.38842
1.38994
1.39589
1.40102
1.40089
1.39776
1.3897
1.37972
1.36998
1.36152
)
;

boundaryField
{
    inlet
    {
        type            fixedValue;
        value           nonuniform 0();
    }
    outlet
    {
        type            inletOutlet;
        inletValue      nonuniform 0();
        value           nonuniform 0();
    }
    bottom
    {
        type            zeroGradient;
    }
    top
    {
        type            zeroGradient;
    }
    obstacle
    {
        type            zeroGradient;
    }
    defaultFaces
    {
        type            empty;
    }
    procBoundary9to5
    {
        type            processor;
        value           nonuniform List<scalar> 
119
(
1
1
1
1
1
1
1
1
1
1
1.00021
1.01507
1.23689
1.56508
1.70311
1.75313
1.75739
1.75322
1.75192
1.74887
1.74023
1.73045
1.7236
1.71521
1.70548
1.699
1.69605
1.69418
1.68969
1.68304
1.67948
1.67137
1.65577
1.65088
1.64795
1.64286
1.64384
1.64304
1.63856
1.63035
1.62067
1.61273
1.60441
1.59936
1.59761
1.59136
1.58955
1.58807
1.5815
1.57477
1.56653
1.55932
1.55452
1.54894
1.54586
1.54091
1.53601
1.53522
1.53108
1.52548
1.52039
1.51372
1.50922
1.50376
1.49899
1.49523
1.48803
1.48521
1.48263
1.47662
1.47213
1.46699
1.46189
1.4592
1.45543
1.45204
1.44839
1.44124
1.43718
1.4352
1.43174
1.42843
1.42484
1.417
1
1
1
1
1
1.41289
1.41505
1.47874
1.69252
1.84891
1.89424
1.90588
1.90275
1.89689
1.89363
1.8927
1.89072
1.88571
1.87411
1.8622
1.85812
1.85556
1.85323
1.85191
1.85057
1.84736
1.8423
1.83701
1.8324
1.82476
1.81124
1.79711
1.79196
1.79128
1.79008
)
;
    }
    procBoundary9to6
    {
        type            processor;
        value           nonuniform List<scalar> 6(1.78469 1.78052 1.77708 1.77464 1.77217 1.76979);
    }
    procBoundary9to8
    {
        type            processor;
        value           nonuniform List<scalar> 
29
(
1
1
1
1
1
1
1
1
1
1
1
1
1
1
1
1
1
1
1
1
1
1
1
1
1
1
1
1
1
)
;
    }
    procBoundary9to10
    {
        type            processor;
        value           nonuniform List<scalar> 
29
(
1.7647
1.75457
1.74098
1.72953
1.72583
1.72512
1.72606
1.7275
1.72581
1.71791
1.70749
1.70266
1.70148
1.70026
1.69906
1.69945
1.70421
1.71015
1.71028
1.70305
1.67921
1.61465
1.49834
1.40008
1.36444
1.35424
1.35169
1.35557
1.36075
)
;
    }
    procBoundary9to12
    {
        type            processor;
        value           nonuniform List<scalar> 6(1 1 1 1 1 1);
    }
    procBoundary9to13
    {
        type            processor;
        value           nonuniform List<scalar> 
119
(
1
1
1
1
1
1
1
1
1
1
1
1
1
1
1
1
1
1
1
1
1
1
1
1
1
1
1
1
1
1
1
1
1
1
1
1
1
1
1
1
1
1
1
1
1
1
1
1
1
1
1
1
1.00001
1.00027
1.0058
1.07113
1.31318
1.47651
1.55179
1.57717
1.57495
1.5641
1.5603
1.56411
1.57122
1.56962
1.56483
1.55551
1.54078
1.52965
1.52543
1.52222
1.521
1.52219
1.52402
1.52384
1.52133
1.51027
1.49426
1.48678
1.48623
1.48855
1.49292
1.4935
1.49092
1.48092
1
1
1
1.46451
1.45384
1.45308
1.45548
1.46152
1.46635
1.46644
1.46061
1.44403
1.42638
1.42178
1.42268
1.42571
1.43168
1.43544
1.43464
1.42657
1.40866
1.3956
1.39265
1.39314
1.39634
1.40261
1.40418
1.40271
1.39726
1.38828
1.37811
1.36859
1.36373
)
;
    }
}


// ************************************************************************* //
