/*--------------------------------*- C++ -*----------------------------------*\
  =========                 |
  \\      /  F ield         | OpenFOAM: The Open Source CFD Toolbox
   \\    /   O peration     | Website:  https://openfoam.org
    \\  /    A nd           | Version:  7
     \\/     M anipulation  |
\*---------------------------------------------------------------------------*/
FoamFile
{
    version     2.0;
    format      ascii;
    class       volScalarField;
    location    "2.7";
    object      T;
}
// * * * * * * * * * * * * * * * * * * * * * * * * * * * * * * * * * * * * * //

dimensions      [0 0 0 1 0 0 0];

internalField   nonuniform List<scalar> 
16512
(
1
1
1
1
1
1
1
1
1
1
1
1
1
1
1
1.00056
1.0358
1.29194
1.56069
1.74345
1.78795
1.78554
1.77835
1.76902
1.76278
1.76365
1.75968
1.75428
1.75418
1.75385
1.75237
1.74832
1.7437
1.73891
1.73184
1.72935
1.72924
1.72928
1.72751
1.7247
1.72135
1.71602
1.71054
1.70689
1.7046
1.7046
1.70505
1.70426
1.70062
1.69523
1.69055
1.68629
1.68163
1.67918
1.67826
1.67685
1.67491
1.67252
1.66912
1.66469
1.65944
1.65472
1.65346
1.65326
1.65276
1.65131
1.64876
1.64559
1.64044
1.63324
1.6276
1.62748
1.629
1.62865
1.62684
1.62519
1.62427
1.62025
1.613
1.60527
1.60106
1.60073
1.59985
1.59833
1.59912
1.60102
1.60063
1.5969
1.5884
1.57993
1.57684
1.57698
1.57655
1.57665
1.5771
1.57528
1.57101
1.56524
1.56115
1.55972
1.55983
1.55835
1.55428
1.54961
1.54496
1.54268
1.54344
1.54524
1.54554
1.54421
1.53963
1.53061
1.52318
1.52182
1.52233
1.52349
1.52436
1.52368
1.51895
1.51236
1.50923
1.50775
1.50702
1.50536
1.50362
1.50035
1.49576
1.49436
1.49485
1.49496
1.49441
1.49202
1.48617
1.47813
1.47473
1.47468
1.47504
1.47586
1.4759
1.4732
1.46802
1.46603
1.4648
1.4626
1.45977
1.45692
1.45289
1.4492
1.44897
1.44955
1.45016
1.45012
1.44825
1.44198
1.43705
1.44204
1.54402
1.79516
1.89769
1.92898
1
1
1
1
1
1
1
1
1
1
1
1
1
1
1
1
1
1
1
1
1
1
1
1
1
1
1
1
1
1
1
1
1.00072
1.02934
1.21513
1.56278
1.77493
1.78473
1.7753
1.76375
1.76198
1.76076
1.75409
1.75504
1.7576
1.75692
1.75244
1.7462
1.74225
1.73577
1.73135
1.73166
1.73293
1.73249
1.72874
1.72458
1.71889
1.71191
1.70824
1.70641
1.70591
1.70764
1.70823
1.70587
1.70008
1.69356
1.68835
1.68363
1.67989
1.67942
1.67935
1.67878
1.67733
1.67434
1.66938
1.66332
1.65693
1.65352
1.65344
1.65354
1.65315
1.65189
1.64974
1.64574
1.63872
1.63043
1.62808
1.62903
1.63043
1.62954
1.62786
1.62764
1.62535
1.61813
1.60843
1.60261
1.60216
1.6025
1.60137
1.6013
1.60269
1.60265
1.59967
1.59148
1.5823
1.57928
1.5798
1.5795
1.57879
1.57886
1.57711
1.57335
1.56822
1.56449
1.56301
1.56322
1.56179
1.55699
1.55172
1.54714
1.5449
1.54569
1.54787
1.54851
1.54739
1.54284
1.53392
1.52623
1.52431
1.52468
1.52588
1.52714
1.52681
1.52243
1.51558
1.5119
1.51021
1.50956
1.50803
1.5063
1.50352
1.49894
1.49697
1.49757
1.49774
1.49734
1.4953
1.49002
1.48169
1.47722
1.47692
1.47716
1.47801
1.47835
1.47646
1.4714
1.46879
1.46764
1.46562
1.46267
1.45973
1.45598
1.45207
1.45144
1.45203
1.45259
1.4526
1.45144
1.44703
1.4401
1.43589
1.43645
1.45244
1.60356
1.81538
1.91327
1
1
1
1
1
1
1
1
1
1
1
1
1
1
1
1
1
1
1
1
1
1
1
1
1
1
1
1
1
1
1
1
1
1.00043
1.01687
1.20396
1.63358
1.75385
1.76269
1.76151
1.76285
1.7551
1.75337
1.75652
1.75804
1.75573
1.74941
1.74434
1.74018
1.73376
1.73292
1.73353
1.73383
1.73243
1.72815
1.7231
1.715
1.70932
1.70843
1.70782
1.70881
1.71059
1.70967
1.70511
1.69763
1.69096
1.68592
1.68171
1.6804
1.6811
1.68158
1.68122
1.67939
1.67499
1.66826
1.66047
1.65466
1.65356
1.65402
1.65449
1.65424
1.65326
1.6507
1.64485
1.63487
1.62884
1.62878
1.63075
1.63138
1.63041
1.62994
1.62938
1.62439
1.61412
1.60477
1.60284
1.60425
1.6041
1.60368
1.60447
1.60472
1.60239
1.59517
1.5853
1.58165
1.58214
1.58225
1.58102
1.58035
1.5787
1.57573
1.57148
1.56842
1.56693
1.56667
1.56485
1.55961
1.55367
1.54912
1.54706
1.5479
1.55049
1.55148
1.55061
1.54598
1.53698
1.52924
1.52691
1.52713
1.5283
1.52987
1.52984
1.52581
1.51877
1.51463
1.51277
1.5121
1.51082
1.50892
1.50638
1.50209
1.49952
1.50009
1.50051
1.50023
1.49854
1.49386
1.48547
1.47987
1.47917
1.47933
1.48006
1.48062
1.47939
1.4747
1.47141
1.47033
1.46856
1.46563
1.46256
1.45904
1.45501
1.45391
1.45449
1.4551
1.45519
1.45427
1.45038
1.44387
1.43994
1.43738
1.43655
1.43818
1.47042
1.63806
1.85574
1
1
1
1
1
1
1
1
1
1
1
1
1
1
1
1
1
1
1
1
1
1
1
1
1
1
1
1
1
1
1
1
1
1
1.00027
1.01705
1.26071
1.63429
1.72583
1.75311
1.75971
1.75521
1.75733
1.76083
1.75876
1.75285
1.74682
1.74406
1.73738
1.7342
1.73461
1.73527
1.73553
1.73292
1.72776
1.72037
1.71123
1.70914
1.70952
1.71017
1.71178
1.71202
1.70926
1.70189
1.69395
1.68869
1.68455
1.68219
1.68289
1.68403
1.684
1.68295
1.67974
1.67385
1.66561
1.65786
1.65465
1.65471
1.65567
1.65618
1.65599
1.65473
1.65065
1.64117
1.63122
1.62918
1.62988
1.6322
1.63235
1.63176
1.63164
1.6293
1.62149
1.60985
1.60394
1.6045
1.60641
1.60605
1.60617
1.60637
1.60476
1.59936
1.58995
1.58429
1.58412
1.58478
1.58353
1.58229
1.58033
1.57779
1.5743
1.57219
1.57097
1.57003
1.56733
1.56231
1.55606
1.55119
1.54928
1.55028
1.55316
1.55439
1.55375
1.54901
1.53995
1.53223
1.52957
1.5296
1.53072
1.53252
1.53268
1.52898
1.52196
1.51747
1.51545
1.51474
1.51374
1.51169
1.50919
1.50503
1.50198
1.50243
1.50322
1.50309
1.50179
1.4977
1.48942
1.48273
1.48149
1.48159
1.48213
1.48282
1.48211
1.47792
1.47396
1.47282
1.47136
1.46863
1.46547
1.46209
1.45799
1.45633
1.45691
1.4576
1.45776
1.45711
1.45384
1.44714
1.4425
1.441
1.43993
1.43865
1.43922
1.44128
1.48515
1.69883
1
1
1
1
1
1
1
1
1
1
1
1
1
1
1
1
1
1
1
1
1
1
1
1
1
1
1
1
1
1
1
1
1
1
1
1.00035
1.02611
1.29908
1.58485
1.71065
1.7607
1.76558
1.76521
1.76282
1.75597
1.74735
1.74615
1.74251
1.73639
1.7361
1.73693
1.73691
1.73563
1.73165
1.72635
1.71677
1.71057
1.71051
1.71103
1.71179
1.71277
1.71201
1.70665
1.69756
1.6912
1.68716
1.68428
1.68452
1.68649
1.68682
1.6862
1.68362
1.67832
1.6704
1.66213
1.65704
1.65638
1.65688
1.6581
1.65832
1.65787
1.65529
1.6479
1.63605
1.63046
1.63056
1.63189
1.6335
1.63354
1.63331
1.63222
1.62746
1.61754
1.60704
1.60522
1.60729
1.6081
1.60808
1.60816
1.60672
1.60255
1.59564
1.58798
1.58594
1.58681
1.58615
1.58443
1.58238
1.57974
1.57704
1.5756
1.5747
1.57309
1.56951
1.56452
1.55852
1.55379
1.5517
1.55287
1.55584
1.5572
1.55663
1.55182
1.54305
1.53545
1.5324
1.53224
1.53313
1.53496
1.53516
1.53167
1.52502
1.52046
1.51834
1.5176
1.51681
1.51459
1.51193
1.50785
1.50441
1.50457
1.50578
1.50587
1.50498
1.5015
1.49348
1.48581
1.48391
1.48392
1.48431
1.48503
1.48475
1.48113
1.47652
1.47517
1.47397
1.47157
1.46842
1.46512
1.46098
1.45874
1.45924
1.46006
1.4603
1.45985
1.45718
1.45086
1.44522
1.44322
1.44248
1.44221
1.442
1.44019
1.43872
1.44216
1.51938
1
1
1
1
1
1
1
1
1
1
1
1
1
1
1
1
1
1
1
1
1
1
1
1
1
1
1
1
1
1
1
1
1
1
1
1
1.00057
1.03368
1.24964
1.52118
1.7277
1.7712
1.76948
1.76317
1.752
1.74556
1.74369
1.73966
1.73824
1.74049
1.74159
1.7401
1.73528
1.72942
1.72272
1.71402
1.7119
1.71293
1.713
1.713
1.71286
1.71006
1.70178
1.6941
1.69008
1.68695
1.68592
1.68785
1.68923
1.68887
1.68691
1.68237
1.67474
1.66634
1.66049
1.65874
1.65893
1.65994
1.66072
1.6605
1.65883
1.65337
1.64209
1.63309
1.63205
1.63267
1.63433
1.6351
1.635
1.63441
1.63165
1.62445
1.61355
1.60673
1.60735
1.60965
1.60975
1.60971
1.60852
1.60508
1.60046
1.59449
1.58847
1.58811
1.58828
1.58692
1.58481
1.58203
1.57974
1.57884
1.57798
1.57582
1.57175
1.5665
1.56122
1.5567
1.55441
1.55558
1.55856
1.55985
1.55918
1.55444
1.54603
1.53898
1.53547
1.53525
1.5357
1.53732
1.53726
1.53378
1.52772
1.52333
1.52128
1.52072
1.52012
1.51769
1.51466
1.51044
1.50684
1.50663
1.50816
1.50856
1.50803
1.5052
1.49759
1.48908
1.4864
1.48634
1.48658
1.48731
1.48733
1.48436
1.47927
1.47752
1.47643
1.47438
1.47137
1.46817
1.46403
1.46114
1.46142
1.46243
1.46279
1.46251
1.4604
1.45458
1.44817
1.44573
1.44467
1.44447
1.44465
1.44425
1.44053
1.43794
1.43878
1.44976
1
1
1
1
1
1
1
1
1
1
1
1
1
1
1
1
1
1
1
1
1
1
1
1
1
1
1
1
1
1
1
1
1
1
1
1
1
1.00063
1.02033
1.17687
1.5468
1.73927
1.76325
1.76217
1.75355
1.74481
1.73902
1.73727
1.74005
1.7437
1.74341
1.74037
1.73365
1.72632
1.71764
1.7124
1.71291
1.71507
1.71545
1.71486
1.71238
1.70561
1.69705
1.69275
1.69009
1.68767
1.6882
1.69039
1.69068
1.68955
1.68607
1.67937
1.67026
1.66396
1.66162
1.66156
1.66206
1.66314
1.66319
1.66193
1.65769
1.64785
1.6371
1.63397
1.63428
1.63512
1.63687
1.63715
1.63686
1.63533
1.63026
1.62058
1.6108
1.60839
1.60993
1.61131
1.61127
1.61038
1.60711
1.60354
1.59948
1.5941
1.58978
1.58962
1.58905
1.58714
1.58452
1.5821
1.58221
1.58124
1.57843
1.57409
1.56872
1.56421
1.56006
1.55766
1.55826
1.56072
1.5616
1.56072
1.55661
1.54909
1.54242
1.53904
1.53849
1.53849
1.53956
1.53907
1.53558
1.53015
1.5261
1.52424
1.52397
1.52369
1.52092
1.51726
1.51284
1.50911
1.50865
1.51038
1.51126
1.51093
1.50865
1.5017
1.49269
1.48898
1.48875
1.48893
1.48967
1.4899
1.48763
1.48234
1.47991
1.47889
1.47715
1.47427
1.47124
1.46724
1.4636
1.46346
1.46462
1.46519
1.46505
1.46347
1.45838
1.45131
1.4481
1.44704
1.44672
1.44689
1.44681
1.44446
1.44055
1.43915
1.43876
1.43877
1
1
1
1
1
1
1
1
1
1
1
1
1
1
1
1
1
1
1
1
1
1
1
1
1
1
1
1
1
1
1
1
1
1
1
1
1
1
1.00025
1.01197
1.19077
1.56537
1.72468
1.75796
1.75648
1.74548
1.73778
1.73555
1.73839
1.74468
1.74518
1.74109
1.73301
1.72345
1.71552
1.71296
1.71422
1.71713
1.71809
1.71709
1.71176
1.70192
1.69477
1.69219
1.69032
1.68982
1.69143
1.69236
1.69166
1.68894
1.6832
1.67471
1.66722
1.66485
1.66461
1.66482
1.66561
1.66586
1.66498
1.66143
1.6529
1.64209
1.63647
1.63649
1.63689
1.63795
1.63946
1.63954
1.6388
1.63526
1.62655
1.61694
1.61083
1.61073
1.61233
1.61275
1.61218
1.60938
1.60576
1.60275
1.59867
1.59402
1.59132
1.59069
1.58937
1.58688
1.58435
1.58449
1.58438
1.58166
1.57663
1.57099
1.56746
1.56392
1.56096
1.56094
1.56262
1.56325
1.56223
1.55849
1.55187
1.5461
1.54296
1.54215
1.54127
1.54159
1.54058
1.53726
1.53247
1.52896
1.52738
1.52735
1.52726
1.52419
1.51967
1.51486
1.51122
1.51062
1.5125
1.51397
1.51382
1.51188
1.50539
1.49657
1.49192
1.49118
1.49132
1.49208
1.49257
1.49088
1.48567
1.48241
1.48138
1.47994
1.47723
1.47428
1.47053
1.46626
1.4654
1.46655
1.46746
1.46746
1.46633
1.46206
1.45475
1.45055
1.4492
1.44893
1.44916
1.4493
1.44744
1.44347
1.44213
1.44159
1.44008
1.43599
1
1
1
1
1
1
1
1
1
1
1
1
1
1
1
1
1
1
1
1
1
1
1
1
1
1
1
1
1
1
1
1
1
1
1
1
1
1
1
1.00018
1.01467
1.21419
1.54839
1.7216
1.74971
1.74778
1.74193
1.73836
1.74047
1.74332
1.74422
1.73978
1.7312
1.72311
1.71647
1.71439
1.7156
1.71777
1.71859
1.71707
1.71079
1.70177
1.69491
1.69165
1.6908
1.69185
1.69402
1.69393
1.69197
1.68712
1.67925
1.67066
1.66733
1.66769
1.66805
1.66859
1.66877
1.66789
1.66483
1.65733
1.64699
1.63978
1.63888
1.63927
1.64011
1.6413
1.64205
1.64188
1.63928
1.63133
1.62204
1.61586
1.61311
1.61345
1.61434
1.61407
1.61171
1.60762
1.60506
1.60199
1.59809
1.59435
1.59251
1.59138
1.58932
1.58637
1.58592
1.58641
1.58497
1.58048
1.57382
1.57012
1.56792
1.56485
1.56366
1.56435
1.56476
1.56371
1.56026
1.55457
1.54962
1.54714
1.54643
1.54424
1.54333
1.54178
1.53879
1.53466
1.53182
1.53071
1.53086
1.53083
1.52733
1.52183
1.51665
1.51315
1.51248
1.5145
1.51673
1.51684
1.51505
1.50857
1.49993
1.49516
1.49383
1.49382
1.49451
1.49535
1.49409
1.48909
1.48503
1.48388
1.48275
1.48026
1.47735
1.47389
1.46922
1.46733
1.46833
1.46957
1.46975
1.46902
1.46556
1.45839
1.45312
1.45136
1.45104
1.45128
1.45167
1.45058
1.44646
1.44434
1.44421
1.44324
1.44083
1.43555
1
1
1
1
1
1
1
1
1
1
1
1
1
1
1
1
1
1
1
1
1
1
1
1
1
1
1
1
1
1
1
1
1
1
1
1
1
1
1
1
1.00025
1.01876
1.2017
1.53625
1.70712
1.73853
1.74274
1.74254
1.74195
1.74144
1.74127
1.7361
1.72964
1.72379
1.71802
1.71663
1.71763
1.71821
1.71833
1.71595
1.70954
1.70202
1.69536
1.69213
1.69209
1.69329
1.69415
1.69361
1.69062
1.68427
1.67549
1.6694
1.6694
1.67076
1.67151
1.67164
1.67085
1.66801
1.66191
1.65171
1.64365
1.64148
1.64189
1.64283
1.64408
1.64474
1.64471
1.64277
1.63586
1.62597
1.62033
1.61748
1.61629
1.61643
1.61626
1.61422
1.60963
1.60691
1.60475
1.60183
1.59832
1.59533
1.59351
1.59174
1.58878
1.58693
1.58728
1.58674
1.58439
1.57872
1.57309
1.57101
1.56927
1.56695
1.56637
1.56629
1.56518
1.56207
1.55737
1.5533
1.551
1.55052
1.54737
1.54502
1.54315
1.54053
1.53682
1.53445
1.53397
1.53419
1.53418
1.53028
1.52383
1.51835
1.515
1.5143
1.51648
1.5194
1.5199
1.51824
1.51171
1.5027
1.49792
1.49666
1.4966
1.49704
1.49815
1.49725
1.49252
1.4878
1.48639
1.48547
1.48332
1.48043
1.47718
1.47245
1.46945
1.47005
1.4715
1.47198
1.47155
1.46887
1.46219
1.45587
1.45349
1.45309
1.45333
1.45388
1.45338
1.44985
1.44677
1.44653
1.44587
1.44368
1.44017
1.43478
1
1
1
1
1
1
1
1
1
1
1
1
1
1
1
1
1
1
1
1
1
1
1
1
1
1
1
1
1
1
1
1
1
1
1
1
1
1
1
1
1
1.00033
1.01589
1.17718
1.52915
1.6881
1.73261
1.74215
1.74358
1.74364
1.73934
1.73568
1.73164
1.72626
1.71966
1.71842
1.71807
1.7174
1.71707
1.71353
1.70809
1.70226
1.69591
1.69356
1.69392
1.6944
1.69467
1.69313
1.68869
1.68194
1.67384
1.67054
1.67149
1.67324
1.67369
1.67313
1.67088
1.66605
1.65693
1.64786
1.64462
1.64475
1.6458
1.64724
1.64791
1.64786
1.64588
1.63962
1.63012
1.62371
1.62176
1.62074
1.61992
1.61925
1.61707
1.61227
1.6085
1.60694
1.60501
1.60224
1.5992
1.59657
1.59427
1.59182
1.58898
1.58793
1.58732
1.58619
1.58318
1.57795
1.5742
1.57272
1.57081
1.56892
1.56803
1.56675
1.56399
1.56014
1.55717
1.55479
1.55397
1.55038
1.54684
1.54456
1.54247
1.53945
1.53733
1.53736
1.53758
1.53722
1.53296
1.52591
1.52
1.51681
1.51629
1.51865
1.522
1.52298
1.52128
1.51475
1.50568
1.50044
1.49908
1.49938
1.49975
1.50089
1.50031
1.49593
1.49075
1.48898
1.48812
1.48647
1.48356
1.48031
1.47561
1.47187
1.47187
1.47335
1.47415
1.47397
1.47198
1.46607
1.459
1.4558
1.45505
1.45525
1.45594
1.45593
1.45314
1.44941
1.44895
1.44841
1.44651
1.44311
1.43827
1.43382
1
1
1
1
1
1
1
1
1
1
1
1
1
1
1
1
1
1
1
1
1
1
1
1
1
1
1
1
1
1
1
1
1
1
1
1
1
1
1
1
1
1
1.00023
1.0115
1.17298
1.48287
1.69177
1.73962
1.74258
1.74177
1.73842
1.73637
1.73221
1.72693
1.7216
1.72002
1.71846
1.71615
1.71423
1.71033
1.70631
1.70213
1.69683
1.69563
1.69558
1.69495
1.69434
1.69173
1.68689
1.68131
1.67449
1.67275
1.67354
1.67453
1.67449
1.67303
1.66923
1.66192
1.65267
1.64811
1.64808
1.64906
1.65067
1.65106
1.65084
1.64865
1.6428
1.63384
1.62741
1.62522
1.62486
1.62435
1.62316
1.62016
1.61538
1.61026
1.60863
1.60744
1.6059
1.60355
1.60093
1.59783
1.59445
1.59171
1.58957
1.58804
1.58716
1.58542
1.58232
1.57846
1.57602
1.57421
1.57181
1.56988
1.56832
1.56594
1.5628
1.56079
1.55869
1.55719
1.55339
1.54886
1.54614
1.54413
1.54196
1.5404
1.54089
1.54117
1.54016
1.53563
1.52813
1.5218
1.51874
1.51852
1.52122
1.52467
1.52595
1.52408
1.51751
1.50872
1.50325
1.5015
1.50196
1.50241
1.50348
1.50305
1.49912
1.4939
1.49174
1.4908
1.48965
1.4868
1.48347
1.4786
1.47441
1.47385
1.47525
1.47637
1.47636
1.47496
1.46984
1.46244
1.45845
1.45708
1.45714
1.45783
1.45816
1.45622
1.45219
1.4513
1.45094
1.44935
1.44613
1.44158
1.4363
1.43346
1
1
1
1
1
1
1
1
1
1
1
1
1
1
1
1
1
1
1
1
1
1
1
1
1
1
1
1
1
1
1
1
1
1
1
1
1
1
1
1
1
1
1
1.00014
1.01011
1.14087
1.45749
1.70124
1.73841
1.73846
1.73768
1.73688
1.73124
1.72451
1.72113
1.7203
1.71833
1.71563
1.71402
1.71012
1.70651
1.70261
1.69781
1.69669
1.69599
1.69507
1.69397
1.69011
1.68606
1.68154
1.67568
1.67454
1.67496
1.67494
1.6742
1.67142
1.66574
1.65777
1.65203
1.65181
1.65274
1.6542
1.65424
1.65328
1.65057
1.64516
1.63716
1.63097
1.62891
1.62866
1.62842
1.62761
1.62365
1.61795
1.61296
1.61006
1.60936
1.60873
1.60765
1.60574
1.60287
1.59814
1.59403
1.59167
1.58981
1.58828
1.58728
1.58528
1.58245
1.57962
1.57726
1.57482
1.57186
1.56971
1.56773
1.56522
1.56387
1.56231
1.56016
1.55679
1.55163
1.54813
1.54605
1.54412
1.54348
1.54447
1.54476
1.54342
1.5384
1.53069
1.52396
1.52102
1.52117
1.52405
1.52747
1.52863
1.52651
1.51995
1.51167
1.5063
1.50416
1.50463
1.50498
1.50578
1.50539
1.50189
1.49699
1.49469
1.49369
1.49287
1.49014
1.4867
1.48161
1.47693
1.47585
1.47721
1.47874
1.47889
1.47792
1.4735
1.46598
1.4613
1.45933
1.45914
1.45967
1.4603
1.45905
1.45509
1.45358
1.45335
1.45213
1.4492
1.44487
1.43969
1.43577
1.4352
1
1
1
1
1
1
1
1
1
1
1
1
1
1
1
1
1
1
1
1
1
1
1
1
1
1
1
1
1
1
1
1
1
1
1
1
1
1
1
1
1
1
1
1
1.00011
1.00777
1.11726
1.48475
1.68117
1.71486
1.7361
1.739
1.73428
1.72827
1.72268
1.71784
1.71433
1.71291
1.71348
1.71096
1.70798
1.70397
1.69911
1.69765
1.69644
1.69508
1.69254
1.68859
1.68611
1.68307
1.67771
1.67556
1.67515
1.67444
1.67226
1.66794
1.66201
1.65624
1.65556
1.65671
1.65765
1.6573
1.65529
1.65178
1.64653
1.63993
1.63452
1.63254
1.63253
1.63242
1.63161
1.628
1.6203
1.61515
1.61252
1.61106
1.61103
1.61089
1.61014
1.60809
1.60318
1.597
1.59341
1.59156
1.59003
1.589
1.5878
1.58562
1.58321
1.58059
1.57775
1.5744
1.57117
1.56916
1.56732
1.56641
1.56531
1.5628
1.55977
1.55516
1.55075
1.54819
1.54649
1.54653
1.54787
1.54816
1.5468
1.54104
1.53367
1.52709
1.52378
1.52414
1.52706
1.5303
1.53102
1.52862
1.52215
1.51463
1.50949
1.50714
1.5075
1.50746
1.50779
1.50718
1.50414
1.49998
1.49775
1.49683
1.49631
1.49369
1.4899
1.48452
1.47942
1.47787
1.47915
1.48116
1.48161
1.48095
1.47711
1.46956
1.4642
1.46182
1.46125
1.46163
1.46241
1.46177
1.45813
1.45579
1.45561
1.45477
1.45221
1.44817
1.44316
1.43862
1.43736
1.43776
1
1
1
1
1
1
1
1
1
1
1
1
1
1
1
1
1
1
1
1
1
1
1
1
1
1
1
1
1
1
1
1
1
1
1
1
1
1
1
1
1
1
1
1
1
1.0001
1.00595
1.12931
1.48647
1.64829
1.71332
1.73536
1.7334
1.7322
1.72532
1.71744
1.71417
1.71415
1.71462
1.71182
1.70906
1.70451
1.70019
1.69848
1.69637
1.69469
1.69065
1.68788
1.68695
1.68509
1.67985
1.67626
1.67488
1.67293
1.66907
1.66462
1.66069
1.65892
1.66039
1.66117
1.66027
1.65723
1.65253
1.647
1.64177
1.63766
1.63619
1.63653
1.6366
1.63572
1.63181
1.62355
1.61659
1.61454
1.6134
1.61318
1.61356
1.61361
1.61277
1.60882
1.60109
1.59555
1.59315
1.59189
1.59086
1.59014
1.58865
1.58646
1.58402
1.58095
1.57742
1.57349
1.57092
1.56928
1.56859
1.56797
1.56545
1.56179
1.55803
1.55389
1.55079
1.5493
1.54961
1.5514
1.55154
1.54984
1.54379
1.53608
1.53106
1.52725
1.52719
1.52972
1.53283
1.5332
1.53069
1.52457
1.51784
1.51299
1.51061
1.51054
1.50975
1.5094
1.5084
1.50592
1.50266
1.5009
1.5002
1.49998
1.4975
1.49316
1.48728
1.48179
1.47981
1.48103
1.48351
1.48447
1.48406
1.48068
1.47314
1.46719
1.46445
1.46344
1.46371
1.4646
1.4644
1.46119
1.45801
1.45769
1.45719
1.45511
1.45139
1.44667
1.44174
1.43953
1.43983
1.4407
1
1
1
1
1
1
1
1
1
1
1
1
1
1
1
1
1
1
1
1
1
1
1
1
1
1
1
1
1
1
1
1
1
1
1
1
1
1
1
1
1
1
1
1
1
1
1.00007
1.00715
1.1384
1.4349
1.62774
1.72966
1.73774
1.72878
1.7192
1.71529
1.71518
1.71761
1.71493
1.71184
1.70906
1.705
1.70169
1.69912
1.69609
1.69334
1.68899
1.68829
1.68841
1.68706
1.68108
1.67629
1.67366
1.67014
1.66619
1.66386
1.66284
1.66404
1.66505
1.66356
1.6589
1.65299
1.64719
1.64248
1.63968
1.63921
1.64042
1.641
1.64026
1.63582
1.62662
1.61851
1.61613
1.61536
1.61535
1.61612
1.61674
1.61653
1.61405
1.60608
1.59806
1.59485
1.59336
1.59297
1.59233
1.59155
1.5897
1.5873
1.58419
1.58066
1.57643
1.57334
1.57188
1.57105
1.57058
1.56832
1.56379
1.55968
1.5564
1.55362
1.55223
1.55265
1.55465
1.55496
1.55304
1.54663
1.53803
1.53383
1.53142
1.53044
1.53196
1.53477
1.53523
1.53293
1.52731
1.52131
1.51685
1.51448
1.51378
1.51197
1.51076
1.50941
1.50736
1.5049
1.50399
1.50378
1.50386
1.50148
1.49653
1.48993
1.48409
1.48178
1.48283
1.48562
1.48733
1.48717
1.48413
1.47669
1.47023
1.46724
1.46576
1.46582
1.46676
1.46695
1.46431
1.46041
1.45975
1.45942
1.45791
1.45455
1.4501
1.44512
1.44185
1.4418
1.44266
1.44356
1
1
1
1
1
1
1
1
1
1
1
1
1
1
1
1
1
1
1
1
1
1
1
1
1
1
1
1
1
1
1
1
1
1
1
1
1
1
1
1
1
1
1
1
1
1
1
1.0001
1.00703
1.10773
1.35793
1.64275
1.73133
1.72593
1.72001
1.71723
1.71824
1.71795
1.71359
1.71052
1.70837
1.70629
1.70293
1.69867
1.69567
1.69229
1.68942
1.69
1.69041
1.68777
1.68053
1.67557
1.6717
1.66748
1.66575
1.66568
1.66747
1.66918
1.66792
1.66193
1.65395
1.64754
1.6429
1.64072
1.64091
1.64348
1.64527
1.64482
1.64046
1.63023
1.62048
1.61749
1.61726
1.61727
1.61842
1.61987
1.62002
1.61858
1.61143
1.601
1.59657
1.59486
1.5945
1.59453
1.59404
1.59295
1.59069
1.58738
1.58366
1.57967
1.57598
1.57458
1.57428
1.57366
1.57158
1.56693
1.56133
1.5579
1.5559
1.55486
1.55518
1.5571
1.55784
1.55626
1.55006
1.54082
1.53525
1.53452
1.53376
1.53421
1.53633
1.53718
1.53548
1.53043
1.52488
1.52095
1.51861
1.51715
1.51427
1.51203
1.5103
1.50868
1.50699
1.50681
1.50737
1.50783
1.5055
1.49996
1.4926
1.48641
1.48381
1.48466
1.4876
1.49001
1.49017
1.48753
1.48026
1.47329
1.47013
1.46841
1.46804
1.46883
1.46935
1.46727
1.46311
1.46188
1.46154
1.46057
1.45767
1.45349
1.4486
1.4445
1.44377
1.44446
1.44556
1.44587
1
1
1
1
1
1
1
1
1
1
1
1
1
1
1
1
1
1
1
1
1
1
1
1
1
1
1
1
1
1
1
1
1
1
1
1
1
1
1
1
1
1
1
1
1
1
1
1
1.00007
1.00397
1.06486
1.33793
1.65867
1.71233
1.71887
1.71671
1.71885
1.71447
1.70969
1.71
1.71059
1.70841
1.70245
1.69762
1.69628
1.69232
1.69154
1.69268
1.6922
1.68682
1.67943
1.67429
1.66973
1.66701
1.66733
1.66988
1.67255
1.67211
1.66692
1.65678
1.64821
1.64343
1.64165
1.64196
1.64521
1.64881
1.64889
1.64519
1.6346
1.62306
1.61891
1.61861
1.61912
1.62052
1.62272
1.62355
1.62266
1.61661
1.60498
1.59844
1.59655
1.59597
1.59638
1.59637
1.59584
1.59433
1.59112
1.58661
1.58214
1.57856
1.57686
1.57683
1.57681
1.57501
1.57075
1.56494
1.55957
1.55744
1.55693
1.55722
1.55875
1.55989
1.55901
1.55373
1.54479
1.53786
1.53591
1.53625
1.53621
1.53753
1.5389
1.5382
1.53397
1.52849
1.52488
1.52265
1.52063
1.51668
1.51324
1.51114
1.50986
1.50886
1.50951
1.51097
1.51169
1.50946
1.50357
1.49533
1.48876
1.486
1.48663
1.48953
1.49248
1.49301
1.49066
1.48384
1.47661
1.47305
1.47148
1.47054
1.47095
1.47153
1.4699
1.46601
1.46422
1.4639
1.46325
1.46087
1.4571
1.45221
1.44736
1.4458
1.44632
1.44744
1.44808
1.44758
1
1
1
1
1
1
1
1
1
1
1
1
1
1
1
1
1
1
1
1
1
1
1
1
1
1
1
1
1
1
1
1
1
1
1
1
1
1
1
1
1
1
1
1
1
1
1
1
1
1.00003
1.00207
1.0538
1.36492
1.65274
1.69464
1.71157
1.71707
1.71144
1.71177
1.71538
1.71355
1.70656
1.69971
1.69848
1.69746
1.69388
1.69461
1.69491
1.69188
1.68436
1.67831
1.67334
1.66893
1.66863
1.6714
1.67495
1.67512
1.67182
1.66188
1.6504
1.64449
1.64299
1.64321
1.64657
1.6512
1.65204
1.64931
1.6395
1.62645
1.62063
1.61982
1.62088
1.6225
1.62517
1.62686
1.62661
1.62155
1.6098
1.60104
1.59853
1.59771
1.59806
1.59891
1.59867
1.59773
1.59514
1.59046
1.58486
1.58061
1.57881
1.57881
1.57912
1.57828
1.5743
1.56914
1.56346
1.55898
1.55823
1.5587
1.56012
1.56148
1.56133
1.55741
1.549
1.54169
1.53783
1.53754
1.53751
1.53857
1.54033
1.54051
1.53801
1.5323
1.52873
1.52618
1.52395
1.51945
1.51452
1.51194
1.51081
1.51033
1.512
1.51432
1.51519
1.51331
1.50742
1.49835
1.49118
1.48833
1.4888
1.49147
1.49468
1.49553
1.49344
1.48714
1.48009
1.47622
1.47446
1.47363
1.47335
1.47363
1.47208
1.4686
1.46671
1.46642
1.4661
1.4642
1.4608
1.45595
1.45032
1.44787
1.44822
1.44936
1.45026
1.45014
1.44738
1
1
1
1
1
1
1
1
1
1
1
1
1
1
1
1
1
1
1
1
1
1
1
1
1
1
1
1
1
1
1
1
1
1
1
1
1
1
1
1
1
1
1
1
1
1
1
1
1
1
1.00002
1.00191
1.06456
1.39388
1.6043
1.67893
1.71349
1.71856
1.71973
1.7169
1.71036
1.70253
1.69995
1.70115
1.69737
1.69632
1.69641
1.69488
1.68965
1.68281
1.67779
1.67339
1.67021
1.6718
1.67561
1.67657
1.67503
1.66762
1.65546
1.64688
1.64462
1.64498
1.64812
1.65281
1.65443
1.6526
1.64414
1.63067
1.6228
1.6213
1.62217
1.62467
1.6274
1.62979
1.63009
1.62625
1.61487
1.60393
1.60095
1.59994
1.59998
1.60125
1.60191
1.60135
1.59925
1.59479
1.58823
1.58266
1.58038
1.58026
1.58101
1.58103
1.57816
1.57266
1.56762
1.56245
1.55955
1.55967
1.56105
1.56284
1.56329
1.56107
1.55353
1.54595
1.54097
1.53873
1.53846
1.53926
1.54108
1.54202
1.54143
1.53715
1.53269
1.52966
1.52662
1.52227
1.51661
1.51301
1.51163
1.5115
1.51397
1.51708
1.51799
1.51673
1.51132
1.50185
1.49393
1.49086
1.49118
1.49338
1.49661
1.49761
1.49569
1.48993
1.48355
1.47969
1.47771
1.47702
1.47604
1.47571
1.47398
1.47076
1.4691
1.46902
1.46898
1.4676
1.46447
1.45966
1.45334
1.45
1.45014
1.4513
1.45251
1.45263
1.45067
1.44476
1
1
1
1
1
1
1
1
1
1
1
1
1
1
1
1
1
1
1
1
1
1
1
1
1
1
1
1
1
1
1
1
1
1
1
1
1
1
1
1
1
1
1
1
1
1
1
1
1
1
1
1.00002
1.00246
1.0752
1.33885
1.53934
1.68821
1.72682
1.71985
1.7125
1.70667
1.70175
1.70305
1.70064
1.69719
1.69699
1.69643
1.69376
1.6874
1.68218
1.67907
1.67353
1.67279
1.675
1.67707
1.67667
1.67242
1.6625
1.65156
1.64732
1.64737
1.64969
1.65417
1.6564
1.65537
1.64861
1.6354
1.62574
1.62322
1.62327
1.62646
1.62949
1.63224
1.63306
1.63032
1.6202
1.6075
1.60294
1.60262
1.60243
1.60338
1.60515
1.60522
1.60371
1.59928
1.59192
1.58515
1.58208
1.58167
1.58247
1.58324
1.58186
1.57636
1.57098
1.56648
1.56224
1.56116
1.56186
1.56386
1.56508
1.56423
1.55833
1.55015
1.54455
1.54076
1.53948
1.53998
1.54161
1.54312
1.54323
1.54183
1.53784
1.534
1.52963
1.5245
1.51906
1.51488
1.51282
1.51287
1.51562
1.51908
1.52012
1.51938
1.51486
1.50577
1.49711
1.49373
1.49385
1.49543
1.49831
1.49916
1.49734
1.49218
1.48677
1.48329
1.48136
1.4805
1.47895
1.47779
1.47567
1.47269
1.4713
1.47156
1.472
1.47104
1.46804
1.46318
1.45648
1.45223
1.45207
1.45325
1.45475
1.45517
1.45382
1.44831
1.44267
1
1
1
1
1
1
1
1
1
1
1
1
1
1
1
1
1
1
1
1
1
1
1
1
1
1
1
1
1
1
1
1
1
1
1
1
1
1
1
1
1
1
1
1
1
1
1
1
1
1
1
1
1.00002
1.00248
1.0497
1.23175
1.53983
1.71603
1.71204
1.71151
1.70624
1.70362
1.70374
1.69739
1.69676
1.6973
1.6967
1.69179
1.68552
1.68246
1.67886
1.6743
1.6749
1.67696
1.67766
1.67611
1.66934
1.65895
1.65136
1.65019
1.65141
1.65521
1.65773
1.65747
1.65277
1.64116
1.63004
1.62602
1.62565
1.62756
1.63139
1.63429
1.63529
1.63341
1.62507
1.61173
1.60527
1.60471
1.60496
1.60593
1.60809
1.60893
1.60815
1.60417
1.59581
1.58775
1.5841
1.58346
1.58417
1.58537
1.58505
1.58056
1.57412
1.56957
1.56594
1.56333
1.56342
1.56486
1.5667
1.56685
1.56314
1.55453
1.54806
1.54335
1.54086
1.54089
1.54211
1.54415
1.54492
1.5446
1.54278
1.53946
1.53428
1.52741
1.52104
1.51712
1.51494
1.51487
1.51737
1.52052
1.52175
1.52135
1.5177
1.50981
1.50105
1.49696
1.49682
1.49773
1.49991
1.5003
1.49841
1.49394
1.48967
1.48682
1.48531
1.48431
1.48199
1.47986
1.47723
1.47427
1.4732
1.47391
1.47508
1.47458
1.47177
1.46657
1.45945
1.45466
1.45411
1.45516
1.45696
1.45775
1.45681
1.45179
1.44555
1.44236
1
1
1
1
1
1
1
1
1
1
1
1
1
1
1
1
1
1
1
1
1
1
1
1
1
1
1
1
1
1
1
1
1
1
1
1
1
1
1
1
1
1
1
1
1
1
1
1
1
1
1
1
1
1.00001
1.00099
1.0227
1.2078
1.56993
1.69518
1.70177
1.70071
1.70482
1.69948
1.69537
1.69804
1.69995
1.69623
1.68806
1.68314
1.68242
1.67726
1.67623
1.67735
1.67826
1.67786
1.67382
1.66574
1.65803
1.65297
1.65334
1.6559
1.65821
1.65843
1.65555
1.64662
1.63513
1.62952
1.6288
1.62989
1.63336
1.63641
1.63721
1.63575
1.62907
1.61621
1.60777
1.60652
1.60721
1.60839
1.61092
1.61247
1.61216
1.60916
1.60059
1.5904
1.58622
1.58562
1.58637
1.58776
1.58797
1.58466
1.57749
1.57242
1.56898
1.5664
1.56563
1.56643
1.56825
1.56908
1.56735
1.55976
1.55174
1.54616
1.54258
1.54219
1.54276
1.54462
1.54663
1.54689
1.54631
1.54417
1.53964
1.53227
1.52375
1.51928
1.51771
1.51761
1.51931
1.52174
1.52281
1.52259
1.51995
1.51334
1.50573
1.50108
1.50006
1.50039
1.50149
1.50118
1.49903
1.49545
1.49236
1.49024
1.4894
1.48844
1.48528
1.48204
1.47867
1.47558
1.47475
1.47595
1.47796
1.47789
1.47551
1.47008
1.46239
1.45712
1.45627
1.45708
1.45903
1.46033
1.45969
1.45521
1.44855
1.44496
1.44289
1
1
1
1
1
1
1
1
1
1
1
1
1
1
1
1
1
1
1
1
1
1
1
1
1
1
1
1
1
1
1
1
1
1
1
1
1
1
1
1
1
1
1
1
1
1
1
1
1
1
1
1
1
1
1
1.00042
1.0186
1.22217
1.57891
1.66733
1.68615
1.70231
1.69858
1.6995
1.7042
1.70179
1.69263
1.68436
1.68372
1.68093
1.67738
1.6784
1.67976
1.67992
1.67765
1.671
1.66444
1.65782
1.65578
1.65721
1.65881
1.65906
1.65763
1.65161
1.64113
1.63362
1.63196
1.63279
1.6357
1.6388
1.63928
1.63791
1.63239
1.62076
1.61071
1.60843
1.60896
1.61066
1.61351
1.61584
1.61591
1.6138
1.6061
1.59406
1.58835
1.58792
1.58888
1.59045
1.59089
1.58834
1.58129
1.57524
1.57152
1.56958
1.56818
1.56854
1.57008
1.57125
1.57076
1.56533
1.55588
1.54958
1.54478
1.54332
1.54391
1.54538
1.54754
1.54893
1.54888
1.54776
1.54434
1.5376
1.52815
1.52193
1.52053
1.52065
1.52169
1.52314
1.52376
1.52353
1.52155
1.51635
1.51003
1.50603
1.50415
1.50351
1.50315
1.50174
1.49937
1.49668
1.49485
1.49358
1.49344
1.4927
1.48899
1.48456
1.4801
1.4768
1.47603
1.47762
1.48041
1.4807
1.47888
1.47348
1.46543
1.45971
1.45856
1.45914
1.46096
1.46277
1.46244
1.45848
1.45179
1.44776
1.44548
1.44423
1
1
1
1
1
1
1
1
1
1
1
1
1
1
1
1
1
1
1
1
1
1
1
1
1
1
1
1
1
1
1
1
1
1
1
1
1
1
1
1
1
1
1
1
1
1
1
1
1
1
1
1
1
1
1
1
1.0004
1.02229
1.25097
1.5367
1.63267
1.69006
1.70859
1.70773
1.70585
1.69897
1.68843
1.68649
1.68516
1.67972
1.67945
1.68125
1.68173
1.68101
1.67653
1.67083
1.66471
1.65863
1.65843
1.65916
1.66038
1.66033
1.65702
1.64811
1.639
1.63506
1.63519
1.63749
1.64052
1.64101
1.63998
1.63544
1.62527
1.61434
1.61062
1.61078
1.61263
1.61588
1.61876
1.61924
1.61777
1.61128
1.59897
1.59091
1.59022
1.59137
1.59327
1.59393
1.59194
1.58539
1.57832
1.57405
1.57213
1.57101
1.5709
1.57215
1.57365
1.57374
1.57027
1.56089
1.55303
1.54797
1.54507
1.54516
1.54652
1.54874
1.55046
1.55078
1.55027
1.54797
1.54252
1.53343
1.52549
1.52353
1.52366
1.52417
1.5249
1.5251
1.52467
1.52289
1.51877
1.51388
1.51073
1.50895
1.50727
1.50513
1.50245
1.49963
1.49754
1.49688
1.49671
1.49731
1.49681
1.4932
1.48777
1.48193
1.47821
1.47725
1.47895
1.48235
1.48306
1.48169
1.47658
1.46849
1.46247
1.461
1.46143
1.46292
1.46496
1.46489
1.46138
1.45502
1.45074
1.44829
1.4472
1.44586
1
1
1
1
1
1
1
1
1
1
1
1
1
1
1
1
1
1
1
1
1
1
1
1
1
1
1
1
1
1
1
1
1
1
1
1
1
1
1
1
1
1
1
1
1
1
1
1
1
1
1
1
1
1
1
1
1
1.00055
1.02552
1.21263
1.43975
1.63282
1.71282
1.71117
1.70543
1.69484
1.68599
1.68711
1.68313
1.68063
1.68392
1.68626
1.68474
1.6806
1.67515
1.67093
1.66342
1.66059
1.66077
1.66122
1.66164
1.66025
1.65457
1.64594
1.63885
1.63809
1.63882
1.641
1.64218
1.64157
1.63843
1.62996
1.61841
1.61321
1.61315
1.61456
1.61809
1.62125
1.62205
1.62091
1.61557
1.60418
1.59437
1.59262
1.59386
1.59597
1.59699
1.59552
1.58975
1.58195
1.57697
1.57424
1.57358
1.57329
1.57435
1.57616
1.57665
1.57449
1.56644
1.55664
1.55123
1.54768
1.54712
1.54796
1.55013
1.55237
1.55286
1.55231
1.55033
1.54632
1.53901
1.53006
1.52634
1.5265
1.52676
1.52691
1.52681
1.52613
1.52444
1.52105
1.5172
1.51495
1.51362
1.51156
1.50786
1.50363
1.50007
1.49826
1.49826
1.49915
1.50067
1.50047
1.49768
1.49198
1.48471
1.48005
1.47881
1.48029
1.48381
1.48504
1.48393
1.47921
1.47152
1.46541