/*--------------------------------*- C++ -*----------------------------------*\
  =========                 |
  \\      /  F ield         | OpenFOAM: The Open Source CFD Toolbox
   \\    /   O peration     | Website:  https://openfoam.org
    \\  /    A nd           | Version:  7
     \\/     M anipulation  |
\*---------------------------------------------------------------------------*/
FoamFile
{
    version     2.0;
    format      ascii;
    class       volVectorField;
    location    "1.8";
    object      U;
}
// * * * * * * * * * * * * * * * * * * * * * * * * * * * * * * * * * * * * * //

dimensions      [0 1 -1 0 0 0 0];

internalField   nonuniform List<vector> 
4128
(
(2.3882 -0.0361511 0)
(2.37111 -0.0330839 0)
(2.35105 -0.026576 0)
(2.33116 -0.0231664 0)
(2.31677 -0.0204348 0)
(2.32085 -0.0197243 0)
(2.32894 -0.0213708 0)
(2.31837 -0.0224112 0)
(2.30338 -0.021783 0)
(2.28755 -0.0193235 0)
(2.27445 -0.0179588 0)
(2.26814 -0.0163945 0)
(2.27162 -0.0126212 0)
(2.27268 -0.00898365 0)
(2.26259 -0.00912978 0)
(2.25036 -0.00997916 0)
(2.24166 -0.0105009 0)
(2.23693 -0.0108844 0)
(2.24062 -0.0113022 0)
(2.24925 -0.0100976 0)
(2.24948 -0.00941272 0)
(2.2435 -0.0096107 0)
(2.2379 -0.00928073 0)
(2.23125 -0.00780646 0)
(2.2252 -0.00562164 0)
(2.22268 -0.00498758 0)
(2.22169 -0.00484929 0)
(2.22539 -0.00493249 0)
(2.23217 -0.00476858 0)
(2.23647 -0.0039529 0)
(2.23776 -0.00316194 0)
(2.23787 -0.00278519 0)
(2.23745 -0.00209692 0)
(2.23604 -0.000825085 0)
(2.23392 0.000395598 0)
(2.23242 0.000704085 0)
(2.23083 0.000640483 0)
(2.23037 0.000221829 0)
(2.23282 -0.000754465 0)
(2.23817 -0.00218316 0)
(2.24106 -0.00312372 0)
(2.24126 -0.00332335 0)
(2.24062 -0.00341909 0)
(2.23807 -0.00323522 0)
(2.23438 -0.00246901 0)
(2.23292 -0.00115661 0)
(2.23331 0.000405578 0)
(2.23393 0.00226853 0)
(2.23455 0.00401379 0)
(2.23553 0.00510031 0)
(2.2376 0.00544132 0)
(2.24113 0.00472096 0)
(2.24578 0.00333944 0)
(2.25012 0.00174455 0)
(2.25212 0.000154675 0)
(2.25337 -0.00153588 0)
(2.25442 -0.00308743 0)
(2.25556 -0.00366702 0)
(2.25764 -0.00372759 0)
(2.25994 -0.00342292 0)
(2.26172 -0.00251484 0)
(2.2627 -0.000772425 0)
(2.26317 0.0014599 0)
(2.26387 0.0034343 0)
(2.26505 0.00435576 0)
(2.26715 0.00463438 0)
(2.27193 0.00409043 0)
(2.2782 0.00287139 0)
(2.2844 0.00116243 0)
(2.28839 -0.00148807 0)
(2.29044 -0.00223291 0)
(2.2926 -0.00267038 0)
(2.29334 -0.00317824 0)
(2.29268 -0.00287786 0)
(2.29382 -0.00129361 0)
(2.29671 0.00022403 0)
(2.29974 0.00121253 0)
(2.30366 0.00204034 0)
(2.30903 0.00234744 0)
(2.31258 0.00220452 0)
(2.31509 0.00199331 0)
(2.31738 0.00162301 0)
(2.31975 0.000991096 0)
(2.32204 0.000214 0)
(2.3244 -0.00058005 0)
(2.32689 -0.00123769 0)
(2.32959 -0.00159698 0)
(2.33235 -0.00180054 0)
(2.33511 -0.00190851 0)
(2.33796 -0.00179529 0)
(2.34072 -0.00120954 0)
(2.34367 -0.000249404 0)
(2.34668 0.000286939 0)
(2.35016 0.000952023 0)
(2.35318 0.00125001 0)
(2.35653 0.00151715 0)
(2.35959 0.00180723 0)
(2.36208 0.00198886 0)
(2.36364 0.00221885 0)
(2.36323 0.00252722 0)
(2.36251 0.00267163 0)
(2.36352 0.00264985 0)
(2.36472 0.0025247 0)
(2.36735 0.00214321 0)
(2.37145 0.000740376 0)
(2.37522 -0.00123065 0)
(2.37751 -0.00176963 0)
(2.3797 -0.0018228 0)
(2.38074 -0.00152903 0)
(2.37856 -0.000606738 0)
(2.37401 0.00109509 0)
(2.37089 0.00283783 0)
(2.37083 0.00357016 0)
(2.37166 0.00365664 0)
(2.37398 0.00348581 0)
(2.37767 0.00304125 0)
(2.38085 0.0024516 0)
(2.38296 0.00203386 0)
(2.38468 0.00170951 0)
(2.38628 0.00137835 0)
(2.38765 0.000971733 0)
(2.38917 0.000476468 0)
(2.39167 -0.000529914 0)
(2.3935 -0.00131047 0)
(2.39535 -0.00149902 0)
(2.39757 -0.00174943 0)
(2.39936 -0.00186774 0)
(2.39972 -0.00147414 0)
(2.39894 -0.000238457 0)
(2.42077 -0.0492865 0)
(2.41269 -0.0571722 0)
(2.39465 -0.0524708 0)
(2.37706 -0.0385645 0)
(2.3638 -0.0155033 0)
(2.35484 -0.00160107 0)
(2.34582 -0.00978922 0)
(2.34409 -0.0269917 0)
(2.33912 -0.032038 0)
(2.32418 -0.0294385 0)
(2.31118 -0.0259119 0)
(2.30256 -0.0208848 0)
(2.29999 -0.0131159 0)
(2.29768 -0.00593139 0)
(2.28856 -0.00506063 0)
(2.27736 -0.00756653 0)
(2.26884 -0.00922248 0)
(2.26374 -0.00892414 0)
(2.2644 -0.00792878 0)
(2.26933 -0.00706854 0)
(2.27007 -0.00895545 0)
(2.26521 -0.0133121 0)
(2.25821 -0.0158895 0)
(2.25289 -0.0161922 0)
(2.24791 -0.0128325 0)
(2.24382 -0.0079313 0)
(2.24261 -0.00627323 0)
(2.24323 -0.00521292 0)
(2.24721 -0.00539758 0)
(2.25237 -0.00599447 0)
(2.25485 -0.00560877 0)
(2.25523 -0.00488976 0)
(2.25488 -0.00320625 0)
(2.25334 0.000436716 0)
(2.25001 0.00500359 0)
(2.2466 0.00822748 0)
(2.24546 0.0092678 0)
(2.24502 0.0097306 0)
(2.24632 0.00928973 0)
(2.25024 0.00602803 0)
(2.25342 0.00118826 0)
(2.25413 -0.00195995 0)
(2.25369 -0.00382041 0)
(2.25144 -0.00546068 0)
(2.24675 -0.00601337 0)
(2.24442 -0.00599061 0)
(2.24475 -0.00567131 0)
(2.24652 -0.00350125 0)
(2.24914 0.00137526 0)
(2.25095 0.00743678 0)
(2.25289 0.0131092 0)
(2.25486 0.01684 0)
(2.25641 0.0176709 0)
(2.25768 0.0160781 0)
(2.2586 0.0128442 0)
(2.2596 0.00855259 0)
(2.26104 0.00281574 0)
(2.26307 -0.00310447 0)
(2.26514 -0.007547 0)
(2.2671 -0.0105857 0)
(2.26909 -0.0120995 0)
(2.27107 -0.0116037 0)
(2.27308 -0.0088558 0)
(2.27501 -0.00381399 0)
(2.27679 0.00250273 0)
(2.27944 0.00836559 0)
(2.28272 0.012383 0)
(2.28564 0.013522 0)
(2.28862 0.0114104 0)
(2.29261 0.00691581 0)
(2.29617 0.000350049 0)
(2.29763 -0.00489428 0)
(2.29858 -0.00936515 0)
(2.29974 -0.0115564 0)
(2.30184 -0.0111905 0)
(2.30496 -0.00850346 0)
(2.30916 -0.00425923 0)
(2.31366 0.000102686 0)
(2.31731 0.00288399 0)
(2.32033 0.00423819 0)
(2.32282 0.00534769 0)
(2.32432 0.00615676 0)
(2.32539 0.00571731 0)
(2.32696 0.00414023 0)
(2.32899 0.0016803 0)
(2.33157 -0.00112024 0)
(2.33429 -0.00344503 0)
(2.3369 -0.00523022 0)
(2.33959 -0.00689162 0)
(2.34237 -0.00828607 0)
(2.34507 -0.00847576 0)
(2.34825 -0.0074788 0)
(2.35233 -0.00559274 0)
(2.35561 -0.00397519 0)
(2.35879 -0.00339385 0)
(2.3624 -0.00251621 0)
(2.36583 -0.00102254 0)
(2.36876 0.000935807 0)
(2.37033 0.00331992 0)
(2.36926 0.00632076 0)
(2.3669 0.00943473 0)
(2.3668 0.0110435 0)
(2.36833 0.0112135 0)
(2.37 0.0103904 0)
(2.37318 0.00741608 0)
(2.37686 0.00357861 0)
(2.38046 -0.000850396 0)
(2.38212 -0.00436242 0)
(2.38236 -0.00716048 0)
(2.38192 -0.00849376 0)
(2.3803 -0.00696575 0)
(2.3781 -0.00286439 0)
(2.37709 0.00149521 0)
(2.37819 0.00443702 0)
(2.3804 0.00691965 0)
(2.38244 0.00961359 0)
(2.38399 0.0106003 0)
(2.38533 0.0103823 0)
(2.38647 0.0094124 0)
(2.38768 0.00815321 0)
(2.38908 0.00699113 0)
(2.3907 0.00571899 0)
(2.39318 0.00377422 0)
(2.39647 0.000818864 0)
(2.39874 -0.00168816 0)
(2.40038 -0.00377065 0)
(2.4016 -0.00587392 0)
(2.40205 -0.00712635 0)
(2.40218 -0.00633276 0)
(2.45319 -0.0795981 0)
(2.45057 -0.0737935 0)
(2.45059 -0.0704738 0)
(2.44529 -0.0646974 0)
(2.42912 -0.05294 0)
(2.41379 -0.0427859 0)
(2.39992 -0.0416061 0)
(2.38923 -0.0468557 0)
(2.38315 -0.0540271 0)
(2.37864 -0.0567241 0)
(2.37173 -0.052032 0)
(2.36402 -0.0427786 0)
(2.35808 -0.0321747 0)
(2.35204 -0.0244446 0)
(2.34229 -0.0233365 0)
(2.3317 -0.0257626 0)
(2.32373 -0.0281668 0)
(2.31912 -0.0271996 0)
(2.31805 -0.0222032 0)
(2.31798 -0.0168677 0)
(2.31431 -0.0152638 0)
(2.30824 -0.0164428 0)
(2.30173 -0.0206148 0)
(2.2955 -0.0230028 0)
(2.29148 -0.0228316 0)
(2.28889 -0.0197779 0)
(2.28798 -0.0154196 0)
(2.28765 -0.0123491 0)
(2.28828 -0.010891 0)
(2.291 -0.0116442 0)
(2.29271 -0.0130941 0)
(2.29236 -0.0139147 0)
(2.29181 -0.0142433 0)
(2.29024 -0.0136642 0)
(2.28695 -0.0113167 0)
(2.28335 -0.00746065 0)
(2.28155 -0.00416148 0)
(2.28141 -0.00245563 0)
(2.28223 -0.000979917 0)
(2.28414 -0.000122938 0)
(2.2853 -0.000890547 0)
(2.28505 -0.00156897 0)
(2.28455 -0.00170325 0)
(2.28273 -0.0010149 0)
(2.27881 0.000888694 0)
(2.27512 0.00225227 0)
(2.27434 0.00185083 0)
(2.27516 0.000145446 0)
(2.27827 -0.00250446 0)
(2.2813 -0.00320402 0)
(2.28254 -0.00248715 0)
(2.28354 -0.00086088 0)
(2.28391 0.00138177 0)
(2.28381 0.00293939 0)
(2.28402 0.00393231 0)
(2.28435 0.00515666 0)
(2.28442 0.00686263 0)
(2.2841 0.00834227 0)
(2.28454 0.00862936 0)
(2.28579 0.00798202 0)
(2.2878 0.00562683 0)
(2.29204 0.00140003 0)
(2.29611 -0.00178954 0)
(2.29868 -0.00276803 0)
(2.30042 -0.00211739 0)
(2.30205 -0.000466543 0)
(2.30429 0.00156184 0)
(2.3069 0.00360557 0)
(2.30959 0.00592943 0)
(2.31229 0.00797739 0)
(2.31347 0.00846776 0)
(2.3139 0.00672484 0)
(2.3154 0.00472627 0)
(2.31779 0.00261675 0)
(2.32151 0.000109154 0)
(2.32562 -0.00121932 0)
(2.32982 -0.00173411 0)
(2.33239 -0.00213993 0)
(2.33466 -0.0025439 0)
(2.33727 -0.00292427 0)
(2.33965 -0.00296879 0)
(2.34198 -0.00237684 0)
(2.34358 -0.00109715 0)
(2.34481 9.52578e-05 0)
(2.34621 0.00128382 0)
(2.34768 0.00260445 0)
(2.34915 0.00367446 0)
(2.35072 0.00443154 0)
(2.35253 0.00488076 0)
(2.35467 0.00471173 0)
(2.35678 0.00332523 0)
(2.36057 0.000987566 0)
(2.36502 -0.000983341 0)
(2.36845 -0.00251642 0)
(2.3712 -0.00340821 0)
(2.37418 -0.0041827 0)
(2.37683 -0.00473042 0)
(2.37944 -0.00482674 0)
(2.38084 -0.00421352 0)
(2.37999 -0.00262478 0)
(2.37804 -0.000119271 0)
(2.37806 0.00280371 0)
(2.37969 0.00545947 0)
(2.38152 0.00784958 0)
(2.38324 0.00984878 0)
(2.38477 0.0108464 0)
(2.38565 0.0102469 0)
(2.38638 0.00837528 0)
(2.38797 0.00559269 0)
(2.38947 0.00199131 0)
(2.39005 -0.00105452 0)
(2.39013 -0.00242717 0)
(2.39032 -0.00215063 0)
(2.39125 -0.000201183 0)
(2.39246 0.00205737 0)
(2.39372 0.0037714 0)
(2.39479 0.00562399 0)
(2.39483 0.00720084 0)
(2.39491 0.00790209 0)
(2.39599 0.0081176 0)
(2.39754 0.00823083 0)
(2.3992 0.00821662 0)
(2.40144 0.00772076 0)
(2.40432 0.00728882 0)
(2.40528 0.0072339 0)
(2.40613 0.00642155 0)
(2.40687 0.00466625 0)
(2.40792 0.00271397 0)
(2.40965 0.000658931 0)
(2.4991 -0.0964777 0)
(2.49425 -0.090955 0)
(2.50065 -0.0939519 0)
(2.49778 -0.0940485 0)
(2.48019 -0.0880502 0)
(2.46156 -0.0811431 0)
(2.44556 -0.0802861 0)
(2.43382 -0.0797022 0)
(2.43028 -0.0661131 0)
(2.43318 -0.0476954 0)
(2.42948 -0.0432739 0)
(2.41907 -0.0439863 0)
(2.40894 -0.0426538 0)
(2.40044 -0.0408685 0)
(2.39226 -0.0407558 0)
(2.38462 -0.0423177 0)
(2.37879 -0.0405631 0)
(2.37313 -0.0339596 0)
(2.36894 -0.0260117 0)
(2.3641 -0.0214212 0)
(2.35965 -0.0199116 0)
(2.35381 -0.0170617 0)
(2.34814 -0.015189 0)
(2.34242 -0.013535 0)
(2.33877 -0.0109463 0)
(2.33683 -0.00808535 0)
(2.33622 -0.00598108 0)
(2.33577 -0.00549942 0)
(2.3354 -0.00612766 0)
(2.33634 -0.00824762 0)
(2.33689 -0.0112605 0)
(2.33613 -0.0119142 0)
(2.33515 -0.0115579 0)
(2.33305 -0.00992048 0)
(2.3301 -0.00640853 0)
(2.32736 -0.00164664 0)
(2.32589 0.00236027 0)
(2.32538 0.00486488 0)
(2.32525 0.00611707 0)
(2.32499 0.00619953 0)
(2.32435 0.0044689 0)
(2.32372 0.000862417 0)
(2.32274 -0.00229715 0)
(2.32176 -0.00451091 0)
(2.32064 -0.00469886 0)
(2.31887 -0.00165796 0)
(2.31739 0.0037614 0)
(2.31767 0.00858673 0)
(2.31904 0.0109756 0)
(2.32103 0.0117218 0)
(2.32194 0.0115033 0)
(2.32268 0.0106683 0)
(2.32216 0.00876268 0)
(2.3203 0.00536256 0)
(2.31869 0.000854264 0)
(2.31793 -0.00315672 0)
(2.31795 -0.00544319 0)
(2.31922 -0.00584471 0)
(2.32159 -0.00489811 0)
(2.32407 -0.00234677 0)
(2.32667 0.00153624 0)
(2.3295 0.00596457 0)
(2.3314 0.00972952 0)
(2.33201 0.0116804 0)
(2.33262 0.0123139 0)
(2.33288 0.0106388 0)
(2.33354 0.0060394 0)
(2.33542 0.000814935 0)
(2.33779 -0.00385808 0)
(2.34025 -0.00740548 0)
(2.34317 -0.00899413 0)
(2.3463 -0.00854211 0)
(2.34907 -0.00561849 0)
(2.35205 -0.00107281 0)
(2.35495 0.00461044 0)
(2.35675 0.00917883 0)
(2.35866 0.0113796 0)
(2.3603 0.0121158 0)
(2.36122 0.0115608 0)
(2.36262 0.00932097 0)
(2.36428 0.00625568 0)
(2.36578 0.00243968 0)
(2.3671 -0.00185638 0)
(2.36846 -0.00537823 0)
(2.37005 -0.00728099 0)
(2.37181 -0.00786731 0)
(2.37388 -0.00737645 0)
(2.37578 -0.00529373 0)
(2.37736 -0.00225362 0)
(2.37884 0.00115035 0)
(2.38097 0.00469868 0)
(2.38329 0.00782409 0)
(2.38542 0.00940879 0)
(2.38771 0.00944301 0)
(2.38991 0.0085575 0)
(2.39206 0.00721583 0)
(2.39412 0.00572465 0)
(2.3957 0.00415399 0)
(2.39611 0.00242626 0)
(2.39506 0.000243085 0)
(2.39364 -0.00262323 0)
(2.39406 -0.00505594 0)
(2.39591 -0.00620744 0)
(2.39808 -0.00638802 0)
(2.40009 -0.00574773 0)
(2.40171 -0.00403458 0)
(2.40301 -0.001253 0)
(2.40454 0.00213554 0)
(2.40603 0.00519308 0)
(2.40706 0.00725508 0)
(2.40778 0.00825153 0)
(2.40838 0.00841686 0)
(2.40921 0.00768482 0)
(2.40982 0.00627393 0)
(2.40997 0.00467121 0)
(2.40989 0.00226633 0)
(2.4092 -0.000282956 0)
(2.40869 -0.00191323 0)
(2.40972 -0.00267325 0)
(2.41144 -0.00289716 0)
(2.41319 -0.00297008 0)
(2.41537 -0.00259453 0)
(2.41864 -0.00126154 0)
(2.42047 -0.000281548 0)
(2.42163 -3.80397e-05 0)
(2.42298 0.000535154 0)
(2.42385 0.00197439 0)
(2.42472 0.00397973 0)
(2.42618 0.00534959 0)
(2.52515 -0.11545 0)
(2.52144 -0.110063 0)
(2.52836 -0.110408 0)
(2.52536 -0.112447 0)
(2.50954 -0.109306 0)
(2.49248 -0.102663 0)
(2.47793 -0.0964204 0)
(2.46881 -0.0901931 0)
(2.47101 -0.073875 0)
(2.47793 -0.0582613 0)
(2.46948 -0.0554686 0)
(2.45175 -0.0546143 0)
(2.43586 -0.0536683 0)
(2.42311 -0.0528798 0)
(2.41614 -0.0494172 0)
(2.41766 -0.0393574 0)
(2.41719 -0.0316896 0)
(2.40845 -0.032156 0)
(2.39898 -0.0358502 0)
(2.39176 -0.0395791 0)
(2.38616 -0.0385518 0)
(2.38281 -0.0325347 0)
(2.37949 -0.0245167 0)
(2.37415 -0.0210781 0)
(2.37054 -0.0199987 0)
(2.36672 -0.0202723 0)
(2.36355 -0.0219002 0)
(2.36237 -0.0232527 0)
(2.36232 -0.0235792 0)
(2.36428 -0.0212195 0)
(2.367 -0.0156737 0)
(2.36726 -0.00977597 0)
(2.3659 -0.00508056 0)
(2.36396 -0.00172394 0)
(2.36144 -0.000174296 0)
(2.35921 -0.00231291 0)
(2.3576 -0.00515815 0)
(2.35732 -0.00653797 0)
(2.35734 -0.0063846 0)
(2.3566 -0.00573707 0)
(2.35504 -0.00546426 0)
(2.35374 -0.00608066 0)
(2.35322 -0.00685021 0)
(2.35323 -0.00742235 0)
(2.35379 -0.00704021 0)
(2.3543 -0.0045986 0)
(2.35461 0.000469765 0)
(2.355 0.00697192 0)
(2.3556 0.0122881 0)
(2.35645 0.0147887 0)
(2.35766 0.0153548 0)
(2.35835 0.0147501 0)
(2.3567 0.0127247 0)
(2.35284 0.00919269 0)
(2.35009 0.00522435 0)
(2.35019 0.00197536 0)
(2.35193 -0.000260889 0)
(2.35397 -0.00163335 0)
(2.35746 -0.0017995 0)
(2.36136 0.000242426 0)
(2.36443 0.00364907 0)
(2.36674 0.00734989 0)
(2.36756 0.0101764 0)
(2.36784 0.0120439 0)
(2.36711 0.0118519 0)
(2.36489 0.00923627 0)
(2.36376 0.00618533 0)
(2.36507 0.00366834 0)
(2.36749 0.00139557 0)
(2.37017 -0.000882971 0)
(2.37429 -0.00264519 0)
(2.37852 -0.00248752 0)
(2.3817 -0.000747182 0)
(2.38425 0.00144844 0)
(2.38562 0.00284119 0)
(2.38724 0.00373255 0)
(2.38856 0.00433446 0)
(2.38932 0.00476116 0)
(2.38954 0.00556613 0)
(2.38932 0.00625485 0)
(2.38956 0.00555193 0)
(2.39057 0.00415219 0)
(2.39191 0.00315124 0)
(2.39328 0.00281325 0)
(2.39454 0.00257742 0)
(2.3966 0.00215591 0)
(2.39903 0.00160671 0)
(2.40042 0.00144651 0)
(2.40222 0.00169832 0)
(2.40382 0.00261582 0)
(2.4049 0.00355383 0)
(2.40607 0.0037221 0)
(2.40781 0.0037792 0)
(2.40981 0.00406998 0)
(2.41172 0.00441129 0)
(2.41337 0.00484023 0)
(2.41463 0.00550211 0)
(2.41533 0.00630461 0)
(2.41527 0.00678158 0)
(2.41408 0.00645955 0)
(2.41288 0.00535216 0)
(2.41423 0.00454797 0)
(2.41675 0.00423705 0)
(2.41919 0.00390305 0)
(2.42128 0.0033102 0)
(2.42283 0.00274395 0)
(2.42421 0.00282154 0)
(2.42555 0.00372633 0)
(2.42701 0.00520425 0)
(2.42842 0.00675867 0)
(2.42963 0.00802987 0)
(2.43091 0.00869624 0)
(2.43189 0.0086276 0)
(2.43201 0.00782203 0)
(2.43137 0.00670724 0)
(2.42998 0.00563364 0)
(2.42841 0.0044808 0)
(2.4287 0.00393514 0)
(2.43017 0.004021 0)
(2.43176 0.00426789 0)
(2.43356 0.00465411 0)
(2.43644 0.0049031 0)
(2.43956 0.004383 0)
(2.44121 0.00333365 0)
(2.44248 0.0022238 0)
(2.44355 0.000880544 0)
(2.44436 4.98213e-06 0)
(2.44574 -6.71864e-05 0)
(2.4472 0.000567727 0)
(2.53168 -0.163253 0)
(2.5256 -0.158421 0)
(2.5298 -0.155401 0)
(2.53204 -0.145204 0)
(2.52351 -0.134519 0)
(2.51067 -0.125823 0)
(2.49858 -0.121347 0)
(2.4885 -0.119562 0)
(2.48719 -0.112515 0)
(2.49143 -0.102442 0)
(2.47979 -0.0967975 0)
(2.46108 -0.0928006 0)
(2.44279 -0.0863475 0)
(2.43025 -0.0748084 0)
(2.429 -0.0602744 0)
(2.43759 -0.0448807 0)
(2.43247 -0.0385136 0)
(2.42189 -0.0387688 0)
(2.41032 -0.0407268 0)
(2.39985 -0.0412388 0)
(2.39472 -0.036436 0)
(2.39602 -0.0268244 0)
(2.39368 -0.0240629 0)
(2.38974 -0.0255783 0)
(2.38374 -0.0278893 0)
(2.37755 -0.0273247 0)
(2.37431 -0.024754 0)
(2.37278 -0.0207887 0)
(2.37342 -0.0132875 0)
(2.37739 -0.00611872 0)
(2.3802 -0.00293549 0)
(2.38038 -0.00255068 0)
(2.37982 -0.00369151 0)
(2.37758 -0.00789872 0)
(2.3729 -0.0138703 0)
(2.37038 -0.0169539 0)
(2.37082 -0.0168761 0)
(2.37284 -0.013428 0)
(2.37441 -0.007847 0)
(2.37348 -0.00425399 0)
(2.37084 0.00138174 0)
(2.3686 0.00674355 0)
(2.36826 0.00852789 0)
(2.36871 0.00943942 0)
(2.37099 0.0103348 0)
(2.37447 0.0115887 0)
(2.37594 0.0126123 0)
(2.37749 0.0131171 0)
(2.37793 0.0126756 0)
(2.37688 0.0103952 0)
(2.37611 0.00705875 0)
(2.37555 0.00349238 0)
(2.37398 0.000438808 0)
(2.37166 -0.0010788 0)
(2.37117 -0.000604409 0)
(2.37226 0.000650604 0)
(2.37431 0.00312614 0)
(2.37868 0.00708176 0)
(2.38407 0.0114889 0)
(2.38878 0.0153134 0)
(2.39136 0.0178096 0)
(2.39267 0.0187457 0)
(2.39349 0.0177571 0)
(2.3912 0.0124953 0)
(2.38722 0.00577442 0)
(2.3853 0.00188388 0)
(2.38605 0.00092271 0)
(2.38813 0.00116816 0)
(2.3902 0.00195807 0)
(2.39367 0.00424461 0)
(2.39811 0.00717914 0)
(2.4018 0.00851556 0)
(2.40414 0.00858384 0)
(2.40548 0.00836697 0)
(2.40707 0.00770741 0)
(2.4077 0.00678233 0)
(2.40794 0.00650959 0)
(2.40846 0.00689479 0)
(2.4086 0.00723066 0)
(2.40768 0.0070066 0)
(2.40765 0.00619548 0)
(2.40923 0.00573819 0)
(2.41069 0.00563512 0)
(2.41225 0.00546777 0)
(2.41429 0.00507896 0)
(2.41629 0.00481816 0)
(2.41781 0.00491823 0)
(2.41936 0.00520365 0)
(2.42069 0.00538445 0)
(2.42163 0.00548775 0)
(2.42185 0.00572635 0)
(2.42247 0.00604904 0)
(2.42419 0.00626829 0)
(2.42628 0.00630367 0)
(2.42833 0.00616802 0)
(2.42999 0.0060707 0)
(2.43124 0.00566145 0)
(2.43213 0.00513209 0)
(2.43244 0.00433174 0)
(2.43173 0.00253736 0)
(2.43128 0.000485806 0)
(2.43301 -0.00059984 0)
(2.43553 -0.0009726 0)
(2.4382 -0.000925037 0)
(2.44053 0.000222983 0)
(2.44221 0.00265647 0)
(2.4435 0.00505313 0)
(2.44462 0.00681153 0)
(2.44563 0.00778634 0)
(2.44655 0.00775552 0)
(2.44752 0.00669232 0)
(2.44853 0.00491114 0)
(2.44915 0.00294529 0)
(2.44925 0.00123402 0)
(2.44895 0.000104544 0)
(2.44836 -0.000123516 0)
(2.44796 0.000876521 0)
(2.4488 0.00219714 0)
(2.45021 0.00310663 0)
(2.45204 0.003863 0)
(2.45434 0.00455843 0)
(2.45677 0.00495862 0)
(2.45884 0.00484797 0)
(2.46048 0.00443582 0)
(2.46157 0.0042799 0)
(2.46271 0.00437448 0)
(2.46381 0.00458467 0)
(2.46506 0.00519663 0)
(2.46611 0.0056683 0)
(2.54264 -0.208094 0)
(2.53136 -0.197094 0)
(2.52591 -0.194021 0)
(2.52523 -0.184185 0)
(2.52261 -0.170285 0)
(2.51508 -0.159543 0)
(2.50493 -0.151349 0)
(2.49389 -0.145492 0)
(2.48693 -0.140905 0)
(2.4878 -0.132882 0)
(2.47588 -0.121207 0)
(2.45984 -0.114465 0)
(2.44204 -0.10945 0)
(2.43006 -0.101671 0)
(2.43401 -0.086591 0)
(2.44229 -0.0691965 0)
(2.43402 -0.0618788 0)
(2.42351 -0.057736 0)
(2.41089 -0.0571107 0)
(2.40002 -0.0557188 0)
(2.39721 -0.0501769 0)
(2.40077 -0.041039 0)
(2.3979 -0.0352284 0)
(2.39352 -0.031843 0)
(2.38769 -0.0322254 0)
(2.38302 -0.0330664 0)
(2.38017 -0.0300633 0)
(2.38093 -0.0213252 0)
(2.38356 -0.013343 0)
(2.38404 -0.0111473 0)
(2.38323 -0.0115597 0)
(2.38115 -0.0145873 0)
(2.37878 -0.0186583 0)
(2.37604 -0.0222311 0)
(2.37513 -0.0220667 0)
(2.37513 -0.0178161 0)
(2.37743 -0.00856039 0)
(2.38158 -0.000222221 0)
(2.38291 0.00332874 0)
(2.38238 0.00446622 0)
(2.38034 0.00530774 0)
(2.37656 0.0053952 0)
(2.37493 0.00561377 0)
(2.37542 0.00569363 0)
(2.37704 0.00526508 0)
(2.38108 0.00387499 0)
(2.38333 0.00308266 0)
(2.38449 0.00274894 0)
(2.38508 0.00206796 0)
(2.38399 0.00104074 0)
(2.383 6.91927e-05 0)
(2.38265 0.000233002 0)
(2.38215 0.00242551 0)
(2.38166 0.00672987 0)
(2.38263 0.0112478 0)
(2.38486 0.0158632 0)
(2.38851 0.0206039 0)
(2.3941 0.0241587 0)
(2.39939 0.0249373 0)
(2.40225 0.0240579 0)
(2.40526 0.0214715 0)
(2.40606 0.0169063 0)
(2.40299 0.0105911 0)
(2.39862 0.00465758 0)
(2.39717 0.00184845 0)
(2.39826 0.00154748 0)
(2.39992 0.00202263 0)
(2.40166 0.00329009 0)
(2.40486 0.00592966 0)
(2.4089 0.00967494 0)
(2.41178 0.0118432 0)
(2.41318 0.0122005 0)
(2.41481 0.0118041 0)
(2.41607 0.0101505 0)
(2.41655 0.00810817 0)
(2.4169 0.00727721 0)
(2.41781 0.00725146 0)
(2.41905 0.00718554 0)
(2.41964 0.00676313 0)
(2.41843 0.00600432 0)
(2.41742 0.00496314 0)
(2.4184 0.00396637 0)
(2.41968 0.00313483 0)
(2.42119 0.00230008 0)
(2.42373 0.00191496 0)
(2.42697 0.00288532 0)
(2.42871 0.0043704 0)
(2.42972 0.00561945 0)
(2.43084 0.00724369 0)
(2.43128 0.00877104 0)
(2.43108 0.00991987 0)
(2.43154 0.0101951 0)
(2.43347 0.00938808 0)
(2.43586 0.00808448 0)
(2.43812 0.00643039 0)
(2.43998 0.00429433 0)
(2.44127 0.00242032 0)
(2.44216 0.0013824 0)
(2.44233 0.000368082 0)
(2.44187 -0.000647438 0)
(2.44291 -0.000934051 0)
(2.44483 -0.00073585 0)
(2.44683 0.000303723 0)
(2.44987 0.00245395 0)
(2.4531 0.00555887 0)
(2.45525 0.00836941 0)
(2.45682 0.0104692 0)
(2.458 0.0119087 0)
(2.45831 0.0125117 0)
(2.45809 0.0115468 0)
(2.45823 0.00961894 0)
(2.45895 0.00763611 0)
(2.45978 0.00599848 0)
(2.46046 0.00463534 0)
(2.46096 0.00328594 0)
(2.46127 0.00227523 0)
(2.46167 0.00163804 0)
(2.46271 0.00112079 0)
(2.46412 0.000856291 0)
(2.46578 0.000811535 0)
(2.46789 0.00124762 0)
(2.47018 0.00225157 0)
(2.47238 0.00379249 0)
(2.47418 0.00582819 0)
(2.4753 0.00798585 0)
(2.47619 0.00995075 0)
(2.47737 0.0108389 0)
(2.47883 0.010092 0)
(2.47966 0.00756523 0)
(2.57251 -0.277557 0)
(2.55719 -0.252982 0)
(2.54114 -0.234361 0)
(2.52924 -0.214515 0)
(2.52644 -0.202324 0)
(2.53037 -0.194774 0)
(2.52023 -0.180505 0)
(2.50589 -0.16562 0)
(2.49489 -0.155867 0)
(2.48687 -0.153783 0)
(2.48382 -0.149338 0)
(2.47903 -0.138789 0)
(2.46741 -0.128654 0)
(2.45302 -0.120216 0)
(2.44862 -0.107628 0)
(2.44569 -0.090012 0)
(2.43476 -0.0796096 0)
(2.42489 -0.0685946 0)
(2.41331 -0.0655603 0)
(2.40193 -0.0644955 0)
(2.39974 -0.0613019 0)
(2.40176 -0.0539993 0)
(2.39779 -0.0479292 0)
(2.39382 -0.0436807 0)
(2.38976 -0.0411179 0)
(2.38725 -0.037722 0)
(2.38804 -0.0320682 0)
(2.38874 -0.0258996 0)
(2.38751 -0.022883 0)
(2.38519 -0.0212432 0)
(2.38154 -0.020896 0)
(2.37813 -0.0232699 0)
(2.37655 -0.0265076 0)
(2.37652 -0.0264772 0)
(2.3787 -0.0214377 0)
(2.38395 -0.0115637 0)
(2.3879 -0.00387322 0)
(2.38828 -0.00196926 0)
(2.38701 -0.00203667 0)
(2.3844 -0.00334185 0)
(2.38143 -0.00458999 0)
(2.37813 -0.00445725 0)
(2.37672 -0.00274008 0)
(2.37724 -0.00165986 0)
(2.37877 -0.000817913 0)
(2.38324 0.000321371 0)
(2.38679 0.000274313 0)
(2.3874 7.51666e-05 0)
(2.38769 0.000798246 0)
(2.38715 0.00335237 0)
(2.38667 0.0073049 0)
(2.38716 0.0115189 0)
(2.38825 0.0154174 0)
(2.38901 0.0179026 0)
(2.39136 0.0205649 0)
(2.3942 0.0224321 0)
(2.39721 0.0226697 0)
(2.4002 0.0213676 0)
(2.40298 0.0188212 0)
(2.40517 0.016056 0)
(2.40674 0.0130611 0)
(2.40683 0.00968213 0)
(2.40445 0.00611368 0)
(2.40272 0.00399261 0)
(2.40396 0.00390912 0)
(2.40552 0.00448751 0)
(2.4073 0.00557541 0)
(2.41005 0.00734958 0)
(2.41356 0.0103796 0)
(2.41549 0.0121232 0)
(2.41709 0.0128842 0)
(2.41814 0.0132496 0)
(2.41855 0.0124178 0)
(2.41896 0.0104343 0)
(2.41974 0.0084489 0)
(2.42089 0.00668258 0)
(2.42198 0.00493297 0)
(2.42293 0.00364027 0)
(2.42346 0.00293086 0)
(2.42282 0.00290989 0)
(2.42175 0.00368875 0)
(2.42215 0.00437179 0)
(2.42281 0.00474288 0)
(2.42429 0.00588956 0)
(2.42756 0.008179 0)
(2.43142 0.0109553 0)
(2.43337 0.012641 0)
(2.4344 0.013335 0)
(2.43538 0.0138595 0)
(2.43521 0.0130866 0)
(2.43452 0.0107677 0)
(2.43471 0.00768437 0)
(2.43615 0.00504923 0)
(2.4384 0.00313155 0)
(2.44083 0.00149539 0)
(2.44345 0.000955093 0)
(2.44543 0.00124693 0)
(2.4464 0.00201574 0)
(2.44659 0.00401615 0)
(2.44714 0.00703136 0)
(2.44808 0.00943523 0)
(2.44979 0.0112012 0)
(2.45252 0.0130872 0)
(2.45573 0.0148236 0)
(2.45796 0.0157295 0)
(2.46074 0.0160467 0)
(2.46298 0.0157504 0)
(2.46369 0.0140728 0)
(2.46297 0.0110721 0)
(2.46208 0.0075196 0)
(2.46246 0.00491455 0)
(2.46347 0.00333815 0)
(2.46459 0.00224052 0)
(2.46579 0.00137485 0)
(2.46696 0.00096166 0)
(2.46791 0.00121892 0)
(2.469 0.00246189 0)
(2.47019 0.00412753 0)
(2.47154 0.00580975 0)
(2.47299 0.00734673 0)
(2.47481 0.00855252 0)
(2.47688 0.00946233 0)
(2.47895 0.0099926 0)
(2.48131 0.0101441 0)
(2.48309 0.009291 0)
(2.4835 0.00695707 0)
(2.48295 0.00360811 0)
(2.4825 6.09972e-05 0)
(2.48271 -0.00277034 0)
(2.60831 -0.372511 0)
(2.59525 -0.349391 0)
(2.57776 -0.326013 0)
(2.55775 -0.283566 0)
(2.55041 -0.249981 0)
(2.55147 -0.239213 0)
(2.55051 -0.224708 0)
(2.53482 -0.210168 0)
(2.51953 -0.194489 0)
(2.50493 -0.185614 0)
(2.49176 -0.17914 0)
(2.4918 -0.165198 0)
(2.4924 -0.148551 0)
(2.48376 -0.137928 0)
(2.47334 -0.129524 0)
(2.46556 -0.118123 0)
(2.45181 -0.107307 0)
(2.43835 -0.0911773 0)
(2.42795 -0.0757219 0)
(2.41604 -0.0708678 0)
(2.41056 -0.0692238 0)
(2.41312 -0.0648546 0)
(2.4067 -0.0573258 0)
(2.40131 -0.0516326 0)
(2.39639 -0.0475579 0)
(2.39379 -0.0437293 0)
(2.39502 -0.0388447 0)
(2.3946 -0.0341987 0)
(2.39219 -0.0317719 0)
(2.38792 -0.02925 0)
(2.38168 -0.0286428 0)
(2.37833 -0.0292406 0)
(2.3774 -0.0280728 0)
(2.37954 -0.0241939 0)
(2.38757 -0.0166734 0)
(2.39267 -0.0105378 0)
(2.39281 -0.00888884 0)
(2.39128 -0.00756826 0)
(2.3876 -0.00696256 0)
(2.38333 -0.00883794 0)
(2.38002 -0.0113473 0)
(2.37875 -0.0114144 0)
(2.37858 -0.0093495 0)
(2.37915 -0.0055057 0)
(2.38139 -0.000838231 0)
(2.38513 0.00324543 0)
(2.38842 0.00546146 0)
(2.38971 0.00711593 0)
(2.39048 0.00904416 0)
(2.39092 0.0111277 0)
(2.39146 0.0133146 0)
(2.39154 0.0151604 0)
(2.39163 0.0161977 0)
(2.39307 0.0165578 0)
(2.39524 0.0167334 0)
(2.39718 0.0165648 0)
(2.39931 0.0167184 0)
(2.4018 0.0165897 0)
(2.4043 0.0155905 0)
(2.40618 0.0137591 0)
(2.40741 0.0116611 0)
(2.40713 0.00928885 0)
(2.40543 0.00693182 0)
(2.40598 0.00619314 0)
(2.40759 0.00628546 0)
(2.40924 0.00664373 0)
(2.41144 0.00753555 0)
(2.41514 0.00998521 0)
(2.41767 0.0124647 0)
(2.41905 0.0138317 0)
(2.42002 0.0154213 0)
(2.41983 0.015819 0)
(2.41895 0.0142484 0)
(2.41893 0.0116191 0)
(2.42017 0.00922613 0)
(2.42179 0.00703662 0)
(2.4232 0.00513622 0)
(2.42422 0.00355006 0)
(2.42505 0.00284995 0)
(2.42538 0.00370284 0)
(2.42479 0.0068037 0)
(2.42465 0.0104173 0)
(2.42556 0.0125664 0)
(2.42762 0.0144849 0)
(2.43099 0.0155795 0)
(2.43343 0.01533 0)
(2.43518 0.0144412 0)
(2.43654 0.0129088 0)
(2.43613 0.0109043 0)
(2.43415 0.00838747 0)
(2.43306 0.00564602 0)
(2.43432 0.00426276 0)
(2.43662 0.00398376 0)
(2.43926 0.00402106 0)
(2.44179 0.00438901 0)
(2.44493 0.00592185 0)
(2.44787 0.00857124 0)
(2.44927 0.0108305 0)
(2.45051 0.0132194 0)
(2.45128 0.0152146 0)
(2.45184 0.0155699 0)
(2.45331 0.0149249 0)
(2.45541 0.0142508 0)
(2.45752 0.0131038 0)
(2.45937 0.0114386 0)
(2.46108 0.0099844 0)
(2.4621 0.00844426 0)
(2.46189 0.00628353 0)
(2.46152 0.00375765 0)
(2.46215 0.00220243 0)
(2.46348 0.00139639 0)
(2.46493 0.00106082 0)
(2.4661 0.00109323 0)
(2.46738 0.00191682 0)
(2.46928 0.0039376 0)
(2.47129 0.00657986 0)
(2.47316 0.00888532 0)
(2.47407 0.0101321 0)
(2.47548 0.0104167 0)
(2.47696 0.00980418 0)
(2.47809 0.00823208 0)
(2.47938 0.00623717 0)
(2.48076 0.0041855 0)
(2.48196 0.0021799 0)
(2.48248 6.58034e-05 0)
(2.483 -0.00172171 0)
(2.48347 -0.00275412 0)
(2.48371 -0.00291718 0)
(2.48448 -0.00230208 0)
(2.63042 -0.437429 0)
(2.62606 -0.431136 0)
(2.612 -0.414912 0)
(2.59715 -0.389738 0)
(2.58432 -0.347139 0)
(2.57547 -0.302361 0)
(2.56803 -0.285302 0)
(2.55661 -0.271183 0)
(2.534 -0.244216 0)
(2.52152 -0.22497 0)
(2.51125 -0.219674 0)
(2.5131 -0.206542 0)
(2.51701 -0.176586 0)
(2.50846 -0.152976 0)
(2.49477 -0.143418 0)
(2.4791 -0.143056 0)
(2.46874 -0.137277 0)
(2.45556 -0.121691 0)
(2.44415 -0.098378 0)
(2.43524 -0.0844927 0)
(2.42467 -0.0798472 0)
(2.42058 -0.0774927 0)
(2.41941 -0.0708972 0)
(2.41255 -0.0620365 0)
(2.40654 -0.0536797 0)
(2.40318 -0.047096 0)
(2.40205 -0.0425231 0)
(2.3998 -0.0399214 0)
(2.39696 -0.0384726 0)
(2.39298 -0.0371134 0)
(2.38665 -0.0350202 0)
(2.38351 -0.0328134 0)
(2.38156 -0.0299286 0)
(2.38543 -0.024434 0)
(2.39365 -0.0186073 0)
(2.39642 -0.0153815 0)
(2.39606 -0.0143169 0)
(2.39377 -0.012447 0)
(2.38847 -0.0122064 0)
(2.38271 -0.0142073 0)
(2.38089 -0.0150405 0)
(2.38047 -0.0146453 0)
(2.38152 -0.011709 0)
(2.38392 -0.00482034 0)
(2.38611 0.00294381 0)
(2.38815 0.00778532 0)
(2.38996 0.00943473 0)
(2.3914 0.00985967 0)
(2.39212 0.010042 0)
(2.39312 0.0105537 0)
(2.39365 0.0113505 0)
(2.39332 0.0120533 0)
(2.39298 0.0122735 0)
(2.39412 0.0119709 0)
(2.39685 0.0118311 0)
(2.39965 0.0128149 0)
(2.40187 0.0147141 0)
(2.40377 0.0163028 0)
(2.40492 0.0171052 0)
(2.40612 0.0164426 0)
(2.40708 0.0149455 0)
(2.40714 0.0124632 0)
(2.40645 0.00995011 0)
(2.40767 0.00930611 0)
(2.40925 0.00927017 0)
(2.4111 0.00958866 0)
(2.41457 0.0112742 0)
(2.41857 0.0142214 0)
(2.42046 0.0155361 0)
(2.42216 0.0164765 0)
(2.42237 0.0169166 0)
(2.42014 0.0156526 0)
(2.41793 0.0132875 0)
(2.41767 0.0111846 0)
(2.41846 0.00987512 0)
(2.41997 0.00930862 0)
(2.4215 0.00917711 0)
(2.42388 0.0093284 0)
(2.42687 0.0107132 0)
(2.4286 0.0132037 0)
(2.42919 0.0154721 0)
(2.42894 0.0176886 0)
(2.42861 0.0190388 0)
(2.42994 0.0189828 0)
(2.4315 0.0174247 0)
(2.43301 0.0148225 0)
(2.43433 0.0121511 0)
(2.43523 0.00933927 0)
(2.43469 0.00652231 0)
(2.43288 0.00464174 0)
(2.43262 0.00491399 0)
(2.43451 0.00614427 0)
(2.43703 0.00747368 0)
(2.43967 0.00925269 0)
(2.44389 0.0118096 0)
(2.44828 0.014942 0)
(2.45031 0.016548 0)
(2.45229 0.0170313 0)
(2.45395 0.0166611 0)
(2.45296 0.0150439 0)
(2.45204 0.012685 0)
(2.4537 0.0108581 0)
(2.45569 0.00973191 0)
(2.4576 0.00873962 0)
(2.45927 0.00734508 0)
(2.46051 0.00564929 0)
(2.46117 0.00441664 0)
(2.46113 0.00360842 0)
(2.46132 0.00308482 0)
(2.46246 0.00312659 0)
(2.46349 0.0035039 0)
(2.46465 0.00429625 0)
(2.46666 0.0057046 0)
(2.46917 0.00790749 0)
(2.47195 0.00991898 0)
(2.47355 0.0106531 0)
(2.47521 0.0104966 0)
(2.47624 0.00946397 0)
(2.4762 0.00751779 0)
(2.47676 0.00541131 0)
(2.47787 0.00347989 0)