/*--------------------------------*- C++ -*----------------------------------*\
  =========                 |
  \\      /  F ield         | OpenFOAM: The Open Source CFD Toolbox
   \\    /   O peration     | Website:  https://openfoam.org
    \\  /    A nd           | Version:  7
     \\/     M anipulation  |
\*---------------------------------------------------------------------------*/
FoamFile
{
    version     2.0;
    format      ascii;
    class       volScalarField;
    location    "1";
    object      p;
}
// * * * * * * * * * * * * * * * * * * * * * * * * * * * * * * * * * * * * * //

dimensions      [1 -1 -2 0 0 0 0];

internalField   nonuniform List<scalar> 
4048
(
1
1
1
1
1
1
1
1
1
1
1
1
1
1
1
1
1.07822
6.86317
10.8502
11.1438
11.4999
11.7707
11.9982
12.1978
1
1
1
1
1
1
1
1
1
1
1
1
1
1
1
1
1.01163
6.56539
10.7782
11.0957
11.4139
11.6686
11.8499
11.9713
1
1
1
1
1
1
1
1
1
1
1
1
1
1
1
1
1.00016
5.97502
10.6347
10.9623
11.2103
11.3978
11.526
11.6759
1
1
1
1
1
1
1
1
1
1
1
1
1
1
1
1
1
5.11307
10.3603
10.7868
10.9884
11.1755
11.2512
11.5844
1
1
1
1
1
1
1
1
1
1
1
1
1
1
1
1
1
4.06264
9.9013
10.5987
10.7137
10.7797
10.379
9.78944
1
1
1
1
1
1
1
1
1
1
1
1
1
1
1
1
1
2.85801
9.15769
10.4056
10.4494
10.4428
10.0579
9.65462
1
1
1
1
1
1
1
1
1
1
1
1
1
1
1
1
1
1.66579
8.08663
10.2675
10.1957
10.0836
9.7327
9.40788
1
1
1
1
1
1
1
1
1
1
1
1
1
1
1
1
1
1.05117
6.4492
9.78765
9.78564
9.69997
9.49903
9.28036
1
1
1
1
1
1
1
1
1
1
1
1
1
1
1
1
1
1.00022
4.23552
9.17999
9.61261
9.55609
9.39703
9.18409
1
1
1
1
1
1
1
1
1
1
1
1
1
1
1
1
1
0.999999
2.11076
8.23779
9.57603
9.39146
9.22072
9.01368
1
1
1
1
1
1
1
1
1
1
1
1
1
1
1
1
1
1
1.10583
6.40262
9.22783
9.08211
8.99003
8.80691
1
1
1
1
1
1
1
1
1
1
1
1
1
1
1
1
1
1
1.0008
3.58868
8.58559
8.99782
8.88209
8.67225
1
1
1
1
1
1
1
1
1
1
1
1
1
1
1
1
1
1
0.999998
1.40538
7.12404
8.94628
8.73545
8.50821
1
1
1
1
1
1
1
1
1
1
1
1
1
1
1
1
1
1
1
1.01318
4.43798
8.34602
8.51974
8.33316
1
1
1
1
1
1
1
1
1
1
1
1
1
1
1
1
1
1
1
1.00001
1.68767
7.16168
8.49836
8.22116
1
1
1
1
1
1
1
1
1
1
1
1
1
1
1
1
1
1
1
1
1.03533
4.54927
8.02337
8.05342
1
1
1
1
1
1
1
1
1
1
1
1
1
1
1
1
1
1
1
1
1.00013
1.74687
6.72195
8.0716
1
1
1
1
1
1
1
1
1
1
1
1
1
1
1
1
1
1
1
1
1
1.03957
3.92156
7.52528
1
1
1
1
1
1
1
1
1
1
1
1
1
1
1
1
1
1
1
1
1
1.00024
1.52509
5.89903
1
1
1
1
1
1
1
1
1
1
1
1
1
1
1
1
1
1
1
1
1
1
1.01993
2.81974
1
1
1
1
1
1
1
1
1
1
1
1
1
1
1
1
1
1
1
1
1
1
1.00012
1.2129
1
1
1
1
1
1
1
1
1
1
1
1
1
1
1
1
1
1
1
1
1
1
1
1.00421
1
1
1
1
1
1
1
1
1
1
1
1
1
1
1
1
1
1
1
1
1
1
1
1.00002
1
1
1
1
1
1
1
1
1
1
1
1
1
1
1
1
1
1
1
1
1
1
1
1
1
1
1
1
1
1
1
1
1
1
1
1
1
1
1
1
1
1
1
1
1
1
1
1
1
1
1
1
1
1
1
1
1
1
1
1
1
1
1
1
1
1
1
1
1
1
1
1
1
1
1
1
1
1
1
1
1
1
1
1
1
1
1
1
1
1
1
1
1
1
1
1
1
1
1
1
1
1
1
1
1
1
1
1
1
1
1
1
1
1
1
1
1
1
1
1
1
1
1
1
1
1
1
1
1
1
1
1
1
1
1
1
1
1
1
1
1
1
1
1
1
1
1
1
1
1
1
1
1
1
1
1
1
1
1
1
1
1
1
1
1
1
1
1
1
1
1
1
1
1
1
1
1
1
1
1
1
1
1
1
1
1
1
1
1
1
1
1
1
1
1
1
1
1
1
1
1
1
1
1
1
1
1
1
1
1
1
1
1
1
1
1
1
1
1
1
1
1
1
1
1
1
1
1
1
1
1
1
1
1
1
1
1
1
1
1
1
1
1
1
1
1
1
1
1
1
1
1
1
1
1
1
1
1
1
1
1
1
1
1
1
1
1
1
1
1
1
1
1
1
1
1
1
1
1
1
1
1
1
1
1
1
1
1
1
1
1
1
1
1
1
1
1
1
1
1
1
1
1
1
1
1
1
1
1
1
1
1
1
1
1
1
1
1
1
1
1
1
1
1
1
1
1
1
1
1
1
1
1
1
1
1
1
1
1
1
1
1
1
1
1
1
1
1
1
1
1
1
1
1
1
1
1
1
1
1
1
1
1
1
1
1
1
1
1
1
1
1
1
1
1
1
1
1
1
1
1
1
1
1
1
1
1
1
1
1
1
1
1
1
1
1
1
1
1
1
1
1
1
1
1
1
1
1
7.39989
8.53942
8.95403
9.24406
9.08621
9.54657
9.38464
9.4278
9.09945
9.22118
9.08133
9.20162
9.09093
9.1582
9.07397
9.41817
8.99373
8.87917
8.35215
6.82374
8.77137
8.4378
7.67609
6.22298
8.50587
8.10699
7.29066
6.01051
8.32563
7.86572
7.06005
5.96297
8.13652
7.63744
6.90235
5.98044
7.99766
7.50898
6.82874
6.01744
7.88235
7.40536
6.77777
6.057
7.74072
7.30925
6.74111
6.10696
7.67781
7.25884
6.73793
6.16986
7.54114
7.1587
6.7152
6.21383
7.61964
7.19141
6.76108
6.28149
6.66028
7.19603
6.73662
6.29674
4.43582
7.00273
6.77032
6.36424
1.81364
5.55935
6.81741
6.46757
1.04675
2.71934
6.02028
6.50895
1.00048
1.19553
3.65984
6.01734
1
1.00426
1.48802
4.28333
1
1.00002
1.01959
1.85424
1
1
1.00016
1.05531
1
1
1
1.00071
1
1
1
1
1
1
1
1
1
1
1
1
1
1
1
1
1
1
1
1
1
1
1
1
1
1
1
1
1
1
1
1
1
1
1
1
1
1
1
1
1
1
1
1
1
1
1
1
2.0523
0.812892
0.513865
0.548698
0.606951
0.644881
0.733508
0.85989
0.967282
1.07788
1.1886
1.23947
1.24562
1.23126
1.1913
1.17524
1.16766
1.17447
1.19785
1.20119
1.19543
1.18026
1.1482
1.13037
1.12783
1.12731
1.13649
1.14914
1.1493
1.14622
1.13641
1.11371
1.0938
1.08795
1.08375
1.08116
1.08007
1.07447
1.06792
1.05889
1.04236
1.02327
1.00888
0.997004
0.986515
0.977817
0.968521
0.956656
0.943857
0.930268
0.91484
0.900114
0.886915
0.874214
0.862716
0.853221
0.844931
0.836958
0.829951
0.826198
0.824084
0.82215
0.823086
0.821461
0.816441
0.810151
0.803037
0.796373
0.796132
0.800213
0.805442
0.811972
0.81837
0.825088
0.832689
0.841655
0.851129
0.858299
0.855835
0.853357
0.859735
0.865361
0.86859
0.870985
0.873908
0.878887
0.881413
0.881941
0.884198
0.887802
0.895168
0.910326
3.18034
1.88548
1.25837
1.11779
1.01539
0.918932
0.838548
0.828553
0.854798
0.914825
0.997693
1.09039
1.14495
1.15356
1.13984
1.13102
1.13219
1.14992
1.17438
1.17896
1.17968
1.17759
1.1603
1.14436
1.13974
1.13742
1.14139
1.14484
1.14095
1.13747
1.13092
1.11615
1.10183
1.09673
1.09252
1.0855
1.07805
1.07286
1.06728
1.05848
1.04494
1.02913
1.01547
1.00411
0.993698
0.983151
0.971761
0.958543
0.943267
0.927486
0.91325
0.90081
0.890679
0.88189
0.87247
0.862897
0.852864
0.842413
0.832256
0.821775
0.814563
0.810809
0.808228
0.80349
0.80023
0.799553
0.799657
0.800366
0.801883
0.806799
0.812597
0.817542
0.822358
0.827513
0.831747
0.837249
0.846024
0.854651
0.860146
0.863172
0.868974
0.874179
0.877546
0.879601
0.880993
0.884024
0.883637
0.881971
0.881661
0.882968
0.887575
0.900354
3.92115
2.76133
1.92607
1.45204
1.27496
1.13486
0.977448
0.856444
0.859302
0.891345
0.938471
1.00152
1.0647
1.10669
1.11015
1.11358
1.13702
1.17164
1.19436
1.20267
1.19736
1.18241
1.15899
1.14234
1.13595
1.13511
1.13871
1.13758
1.13515
1.13213
1.12373
1.11106
1.10265
1.10161
1.10147
1.096
1.08562
1.07462
1.06363
1.05102
1.03754
1.02487
1.01365
1.00383
0.995518
0.988369
0.979723
0.967941
0.952571
0.933412
0.914526
0.900223
0.889762
0.882099
0.875282
0.86845
0.861397
0.854194
0.845977
0.834115
0.820095
0.811439
0.80492
0.796675
0.790902
0.789498
0.788809
0.78988
0.794213
0.801565
0.81024
0.816164
0.821805
0.827853
0.832877
0.836168
0.836438
0.836459
0.847233
0.859041
0.868179
0.875624
0.881767
0.886654
0.890762
0.896467
0.897198
0.895036
0.892199
0.888479
0.885778
0.887746
4.39278
3.39086
2.64839
1.95431
1.60941
1.46962
1.31393
1.12205
1.03703
0.986602
0.931187
0.921597
0.943427
0.991251
1.02309
1.04324
1.07884
1.1167
1.1392
1.15849
1.17137
1.17468
1.17457
1.16715
1.15665
1.14824
1.14186
1.13382
1.12529
1.11663
1.10833
1.10513
1.10205
1.10122
1.10151
1.09771
1.08952
1.07946
1.06671
1.05053
1.03557
1.02315
1.01272
1.00331
0.993582
0.985193
0.97803
0.969105
0.956222
0.938401
0.920147
0.905688
0.892861
0.881846
0.873452
0.866366
0.859904
0.85222
0.839192
0.820363
0.80937
0.804659
0.800146
0.796844
0.798602
0.798917
0.798445
0.797059
0.796126
0.80116
0.808033
0.814033
0.819803
0.826148
0.833574
0.840921
0.843908
0.845322
0.849191
0.85088
0.854098
0.860966
0.865924
0.869854
0.874292
0.880316
0.885336
0.885765
0.885053
0.886326
0.888612
0.89145
4.78712
3.80982
3.16062
2.57344
2.03666
1.74238
1.59428
1.40957
1.22221
1.11191
1.01858
0.932888
0.931816
0.957748
0.981846
0.996328
1.02012
1.04628
1.06365
1.08035
1.09846
1.12279
1.15596
1.18302
1.18795
1.18315
1.17365
1.15596
1.12666
1.10153
1.0952
1.09488
1.09644
1.09652
1.09812
1.09859
1.09402
1.08198
1.06457
1.04781
1.03567
1.0251
1.01581
1.00676
0.996875
0.988238
0.980453
0.970263
0.954905
0.93711
0.920016
0.904823
0.892193
0.883944
0.879837
0.875692
0.86899
0.855256
0.827941
0.806208
0.800297
0.79585
0.790662
0.788212
0.793781
0.796925
0.799516
0.802955
0.804022
0.806249
0.809824
0.814285
0.818825
0.823085
0.827437
0.83123
0.835751
0.843883
0.851536
0.855285
0.855173
0.857895
0.862577
0.867327
0.871424
0.874124
0.876419
0.878481
0.881055
0.885222
0.890917
0.89658
5.06635
4.19313
3.50024
3.01087
2.52766
2.08708
1.84678
1.68773
1.50337
1.33833
1.21189
1.08401
1.05516
1.04151
1.00682
0.986547
0.977525
0.975025
0.974787
0.985152
1.01859
1.0652
1.10488
1.13629
1.14674
1.1551
1.15682
1.1515
1.13559
1.12027
1.11578
1.11341
1.11365
1.10869
1.10095
1.09344
1.08019
1.05658
1.04172
1.03571
1.03152
1.02919
1.02878
1.02228
1.01064
0.996072
0.980419
0.963757
0.946935
0.931371
0.916029
0.900294
0.891711
0.888077
0.885635
0.878893
0.864913
0.842869
0.818031
0.806784
0.801244
0.795478
0.789995
0.790189
0.798889
0.802465
0.804446
0.805728
0.80578
0.806459
0.807363
0.808994
0.811253
0.813592
0.818102
0.825093
0.837407
0.855614
0.873333
0.888948
0.901669
0.914531
0.928281
0.944303
0.957718
0.964493
0.969119
0.975236
0.985578
0.990804
0.990601
0.994667
5.24649
4.52019
3.8622
3.30559
2.88847
2.51286
2.14849
1.88993
1.73948
1.602
1.45406
1.27263
1.17632
1.13031
1.07391
1.00677
0.974799
0.972907
0.963489
0.960066
0.97175
1.00518
1.03976
1.07232
1.0931
1.11131
1.12409
1.12534
1.1176
1.11552
1.12037
1.12862
1.13263
1.12754
1.11532
1.0953
1.069
1.04273
1.03211
1.02725
1.02579
1.02924
1.02802
1.01945
1.00491
0.988079
0.971968
0.957777
0.945381
0.933614
0.92212
0.912275
0.904841
0.897338
0.88608
0.868187
0.843947
0.826034
0.817338
0.810803
0.805249
0.800615
0.799571
0.806341
0.806188
0.803243
0.800656
0.798649
0.798235
0.800348
0.803249
0.809731
0.819908
0.834456
0.855924
0.885972
0.924479
0.972331
1.01859
1.05967
1.09688
1.13454
1.16777
1.19896
1.23018
1.25093
1.26185
1.26912
1.27946
1.28212
1.2837
1.28619
5.39062
4.75377
4.18085
3.62309
3.14152
2.81266
2.51043
2.1948
1.93679
1.79649
1.65953
1.50295
1.36872
1.29078
1.21232
1.10788
1.05575
1.04422
1.01262
0.981041
0.980326
0.986025
0.986858
0.993312
1.01075
1.03775
1.06607
1.08748
1.09066
1.09336
1.10433
1.11694
1.11832
1.11521
1.10982
1.09707
1.07186
1.05204
1.04107
1.03286
1.02839
1.0271
1.02086
1.00821
0.98821
0.971524
0.963653
0.957815
0.951885
0.944825
0.937245
0.930162
0.921804
0.906049
0.877751
0.847348
0.832152
0.825369
0.820189
0.815224
0.811821
0.813925
0.81425
0.805399
0.796147
0.790795
0.788292
0.791808
0.800209
0.817174
0.847146
0.89495
0.961648
1.03743
1.11608
1.18572
1.24233
1.29295
1.33658
1.37552
1.40794
1.43857
1.47215
1.51125
1.55318
1.5716
1.57716
1.57133
1.55937
1.54365
1.53494
1.52197
5.53752
4.94459
4.40153
3.90393
3.45402
3.06267
2.75327
2.45849
2.19928
2.02054
1.86431
1.67935
1.5356
1.45361
1.37588
1.2573
1.16499
1.12674
1.07749
1.01861
0.98823
0.990862
0.987392
0.97483
0.973867
0.981788
0.998508
1.02123
1.04489
1.06211
1.0791
1.0989
1.10084
1.09768
1.09591
1.09094
1.07792
1.06618
1.06005
1.05134
1.03993
1.03003
1.01895
1.00027
0.97403
0.963411
0.960416
0.958647
0.958588
0.953905
0.94766
0.940647
0.927583
0.901317
0.863692
0.842758
0.83649
0.830969
0.826286
0.823705
0.823762
0.82052
0.812732
0.798414
0.79343
0.802056
0.82635
0.869749
0.935586
1.02702
1.1396
1.26458
1.37376
1.45723
1.51401
1.54756
1.55901
1.55846
1.55936
1.56483
1.57728
1.59792
1.62808
1.66107
1.6849
1.68509
1.67663
1.66042
1.63742
1.61169
1.5951
1.57275
5.64237
5.09714
4.60611
4.14012
3.69364
3.3114
3.00979
2.72906
2.43529
2.21691
2.06085
1.89896
1.73191
1.61803
1.51943
1.39971
1.3045
1.2551
1.20133
1.11836
1.0574
1.049
1.02454
0.991871
0.973775
0.971974
0.969839
0.970236
0.97861
1.00276
1.03439
1.05999
1.07112
1.07318
1.07782
1.07881
1.07017
1.06172
1.06132
1.06025
1.05012
1.03447
1.01795
0.999952
0.980509
0.96951
0.965478
0.962129
0.958528
0.953427
0.946732
0.937356
0.920151
0.88723
0.860055
0.852267
0.847438
0.844462
0.840808
0.837757
0.837506
0.836579
0.843012
0.866494
0.918723
1.01
1.1219
1.23758
1.35714
1.47016
1.56541
1.63443
1.66503
1.68018
1.67342
1.6622
1.6528
1.64164
1.63323
1.63172
1.64285
1.6638
1.67959
1.67832
1.67189
1.65889
1.6389
1.61879
1.6005
1.58202
1.57
1.55166
5.76434
5.24799
4.76203
4.33591
3.93256
3.53724
3.20253
2.94047
2.67597
2.4427
2.24547
2.05659
1.89856
1.78767
1.6933
1.55525
1.43011
1.37126
1.3093
1.2308
1.16013
1.12812
1.08465
1.02442
0.976102
0.969362
0.966922
0.959396
0.959116
0.96768
0.986688
0.999012
1.00839
1.01912
1.03438
1.0573
1.06065
1.0524
1.05118
1.05032
1.04446
1.03327
1.02029
1.00692
0.995802
0.98725
0.979482
0.970829
0.960557
0.94993
0.938453
0.926022
0.90619
0.879978
0.869903
0.866113
0.864467
0.86612
0.874972
0.900779
0.950432
1.025
1.12218
1.22915
1.33952
1.44364
1.52671
1.59134
1.65812
1.7044
1.73011
1.72866
1.71409
1.68285
1.66855
1.66353
1.66207
1.65893
1.65914
1.65638
1.64583
1.63891
1.62548
1.60761
1.59443
1.57951
1.56053
1.55176
1.5425
1.53853
1.53105
1.49954
5.8317
5.35246
4.90334
4.51127
4.12549
3.72195
3.40734
3.15873
2.89653
2.62366
2.42391
2.25265
2.07657
1.93908
1.83564
1.70615
1.58645
1.51044
1.43616
1.33373
1.24985
1.21939
1.1792
1.11273
1.03808
1.02278
1.0135
0.98761
0.967046
0.965453
0.969274
0.960788
0.950219
0.95345
0.969643
1.00309
1.03611
1.04181
1.04037
1.03815
1.03412
1.0234
1.01505
1.01129
1.00657
1.00062
0.993661
0.981921
0.96466
0.947682
0.93151
0.914517
0.896886
0.889714
0.889514
0.902708
0.939656
1.00463
1.11041
1.23992
1.38107
1.49395
1.59061
1.65223
1.68137
1.6817
1.68448
1.70502
1.72638
1.7268
1.71616
1.69395
1.66808
1.64426
1.64542
1.65802
1.65897
1.64648
1.62871
1.60005
1.56905
1.54561
1.52359
1.50524
1.50198
1.50754
1.50409
1.50631
1.50902
1.50166
1.48415
1.44942
5.93242
5.48619
5.04579
4.66225
4.30826
3.93552
3.5839
3.31704
3.08019
2.84194
2.6267
2.4119
2.22507
2.10108
1.99473
1.85502
1.72715
1.641
1.55461
1.45757
1.36401
1.31808
1.26727
1.19339
1.11224
1.09542
1.07803
1.04292
1.00255
0.975936
0.971122
0.955666
0.934429
0.93325
0.939991
0.958433
0.991103
1.00798
1.00746
1.01184
1.01466
1.00965
1.00389
1.00113
0.997726
0.99409
0.990085
0.981261
0.964039
0.946433
0.930996
0.920022
0.927236
0.965845
1.05081
1.18687
1.34858
1.50235
1.62178
1.70456
1.75363
1.79762
1.80636
1.79311
1.77315
1.74046
1.71267
1.69943
1.69232
1.67873
1.65537
1.61649
1.59684
1.60272
1.59829
1.58495
1.57717
1.5648
1.54506
1.51669
1.48292
1.45924
1.45336
1.45073
1.44946
1.45457
1.47596
1.48894
1.48525
1.47129
1.44021
1.40545
6.03984
5.61444
5.19413
4.82738
4.48337
4.12436
3.785
3.51861
3.26627
3.01484
2.80381
2.60636
2.40985
2.24691
2.12968
1.99675
1.8788
1.7845
1.69122
1.56684
1.47068
1.42434
1.37292
1.30012
1.20362
1.173
1.15539
1.11495
1.0652
1.02593
1.00773
0.982939
0.9446
0.934155
0.93641
0.948629
0.953149
0.950761
0.950117
0.958211
0.972089
0.980196
0.98371
0.986288
0.984637
0.982883
0.97872
0.972781
0.958223
0.956408
0.973383
1.03916
1.18822
1.40514
1.5963
1.77116
1.89169
1.93701
1.91828
1.88981
1.86876
1.8574
1.83309
1.80687
1.77723
1.73068
1.66008
1.61554
1.6009
1.58522
1.56533
1.54746
1.53483
1.54142
1.5352
1.51948
1.50457
1.48722
1.46635
1.45161
1.42916
1.40657
1.4016
1.4067
1.42756
1.44881
1.45077
1.44415
1.43459
1.41805
1.3934
1.37704
6.14462
5.71206
5.30485
4.94582
4.61832
4.29064
3.96491
3.66762
3.4151
3.20316
2.99873
2.76967
2.54726
2.40272
2.28374
2.14109
2.00982
1.90869
1.81046
1.69896
1.59944
1.53833
1.47596
1.39537
1.29835
1.26346
1.23731
1.18986
1.1246
1.07682
1.05645
1.02781
0.985018
0.949992
0.946094
0.95038
0.948619
0.932077
0.92494
0.928738
0.936608
0.944606
0.951847
0.957761
0.960268
0.966916
0.966749
0.974255
1.01917
1.13051
1.32255
1.56709
1.83341
1.95694
2.02744
2.06588
2.07531
2.05125
1.9993
1.93061
1.88331
1.85671
1.81807
1.77053
1.71651
1.6519
1.57135
1.52957
1.51792
1.50506
1.49004
1.49413
1.50384
1.49083
1.46541
1.44973
1.44028
1.42538
1.40692
1.39839
1.39314
1.38208
1.38058
1.39648
1.41677
1.41552
1.40443
1.39046
1.37617
1.36478
1.35423
1.34387
6.23593
5.85624
5.43395
5.07702
4.74621
4.43395
4.13521
3.84488
3.56662
3.32727
3.13511
2.94376
2.73941
2.55152
2.40304
2.26208
2.14801
2.04859
1.93921
1.79692
1.70976
1.65431
1.59044
1.50886
1.40109
1.35206
1.31521
1.26235
1.19965
1.15194
1.13079
1.10009
1.05335
0.996573
0.979579
0.980307
0.969048
0.93821
0.923705
0.925184
0.928324
0.925764
0.917211
0.915659
0.920574
0.940152
1.02272
1.18276
1.45537
1.72106
1.9569
2.14815
2.17033
2.1337
2.11854
2.11604
2.10383
2.0577
2.00968
1.95259
1.87506
1.80348
1.74925
1.69941
1.64723
1.5865
1.51909
1.486
1.47224
1.45262
1.44077
1.44105
1.4358
1.41591
1.39426
1.38684
1.38469
1.37279
1.36442
1.37084
1.37094
1.36032
1.35552
1.36271
1.36919
1.364
1.35128
1.33184
1.32027
1.31643
1.31055
1.30481
5.97975
5.95702
5.59103
5.20369
4.86026
4.56517
4.2918
3.99948
3.71111
3.49641
3.30111
3.07892
2.88104
2.71231
2.55681
2.39681
2.26752
2.16347
2.05165
1.92369
1.82339
1.75677
1.6862
1.60639
1.51876
1.46616
1.41374
1.34816
1.26189
1.21818
1.20289
1.17506
1.12972
1.06391
1.0258
1.0159
0.99176
0.950519
0.925422
0.923391
0.924355
0.922028
0.915526
0.936877
1.01995
1.21114
1.51201
1.82389
2.03003
2.169
2.24949
2.23568
2.18009
2.11628
2.07142
2.04605
2.0167
1.97665
1.92838
1.87246
1.8095
1.73953
1.68817
1.64754
1.6021
1.54636
1.48765
1.46246
1.44418
1.42007
1.40405
1.39675
1.38315
1.36149
1.34243
1.33754
1.33392
1.33516
1.34508
1.34707
1.33011
1.31257
1.30559
1.30248
1.30409
1.30645
1.30185
1.29103
1.2808
1.2774
1.27699
1.27884
4.62129
5.83858
5.76392
5.40298
5.01614
4.68688
4.41258
4.14629
3.86988
3.62672
3.4317
3.23303
3.04318
2.87079
2.68524
2.51208
2.40364
2.30203
2.1817
2.02886
1.93465
1.86154
1.78166
1.6949
1.61663
1.57143
1.51261
1.44238
1.35318
1.29799
1.278
1.24365
1.19275
1.13039
1.09424
1.07679
1.04538
0.999116
0.958241
0.954607
0.96171
0.984677
1.05418
1.25239
1.53426
1.88422
2.09594
2.22619
2.22492
2.22394
2.21258
2.16546
2.09629
2.01237
1.92509
1.88841
1.86955
1.85415
1.82559
1.79406
1.74891
1.6788
1.63581
1.60391
1.56822
1.52297
1.48362
1.45623
1.42796
1.39251
1.37188
1.35951
1.34309
1.32215
1.30375
1.29693
1.29909
1.30391
1.30844
1.30113
1.28131
1.26306
1.25049
1.24395
1.24377
1.24769
1.25815
1.2602
1.25348
1.25202
1.25651
1.25389
2.17219
4.78848
5.66046
5.56977
5.2078
4.85409
4.56377
4.28047
4.00819
3.78796
3.57394
3.35256
3.17023
3.01704
2.83941
2.65232
2.51166
2.40595
2.29443
2.16853
2.07178
1.97995
1.88372
1.77361
1.70209
1.65928
1.60242
1.53244
1.43758
1.38711
1.36268
1.32128
1.26656
1.19098
1.15232
1.1341
1.10045
1.06195
1.02415
1.04275
1.12792
1.34547
1.66498
1.95116
2.16015
2.33926
2.32927
2.27065
2.21133
2.17803
2.13633
2.05232
1.96177
1.88673
1.8137
1.76467
1.74693
1.73212
1.72584
1.7126
1.67472
1.61581
1.5766
1.55325
1.52399
1.4914
1.46263
1.43591
1.40238
1.36402
1.34303
1.33132
1.32385
1.30599
1.28036
1.25939
1.24862
1.244
1.24248
1.23774
1.22872
1.21362
1.19492
1.18443
1.18497
1.2045
1.22715
1.22409
1.21946
1.21972
1.22835
1.21948
1.10261
2.428
4.8184
5.47645
5.38269
5.04691
4.71999
4.4091
4.161
3.94621
3.71676
3.46628
3.30408
3.15832
2.9695
2.78382
2.66062
2.53983
2.3942
2.26065
2.18721
2.09825
1.9991
1.88448
1.79589
1.74742
1.68382
1.61016
1.52653
1.47544
1.44475
1.39631
1.33637
1.26204
1.21683
1.2014
1.17321
1.18358
1.26759
1.53552
1.90459
2.2293
2.39833
2.5
2.50747
2.44837
2.32335
2.21335
2.16736
2.11284
2.02312
1.9412
1.87609
1.82152
1.76552
1.69643
1.65593
1.63823
1.63716
1.63107
1.59945
1.55126
1.51654
1.49896
1.4705
1.43339
1.40261
1.37271
1.33999
1.32056
1.30863
1.30798
1.30657
1.28474
1.2529
1.22204
1.20161
1.19091
1.18294
1.17843
1.1787
1.17123
1.15445
1.14232
1.13692
1.14399
1.16731
1.19049
1.19151
1.18782
1.18175
1.16523
1.00181
1.15504
2.59711
4.74238
5.30289
5.22492
4.93392
4.57076
4.29463
4.07318
3.86264
3.6288
3.43717
3.27898
3.09948
2.923
2.79498
2.6704
2.50997
2.37903
2.29604
2.19845
2.09439
1.97169
1.90484
1.85284
1.77823
1.69615
1.60115
1.55867
1.52713
1.47037
1.40477
1.33344
1.29182
1.31487
1.42711
1.70802
2.12291
2.54159
2.75284
2.83377
2.79101
2.71035
2.56481
2.40226
2.2862
2.20935
2.1306
2.045
1.9524
1.89075
1.85818
1.81841
1.76064
1.67284
1.6105
1.58852
1.58287
1.57696
1.55012
1.50955
1.47842
1.45373
1.41762
1.37455
1.34052
1.3126
1.29212
1.27649
1.26688
1.2649
1.25752
1.23667
1.21436
1.18873
1.15687
1.13831
1.12891
1.1223
1.12382
1.12692
1.11943
1.11278
1.10635
1.1059
1.11878
1.1302
1.12677
1.1262
1.12898
1.12383
1.00001
1.00344
1.19982
2.65745
4.61158
5.16412
5.10921
4.78746
4.47453
4.22719
3.97395
3.76353
3.60494
3.42382
3.21439
3.03651
2.92318
2.79323
2.63197
2.50158
2.4075
2.30452
2.19575
2.066
2.00416
1.9473
1.87006
1.78831
1.69292
1.64487
1.59623
1.54052
1.48038
1.47351
1.55482
1.84372
2.34924
2.74768
3.04379
3.19132
3.16201
3.05602
2.85758
2.66679
2.53547
2.44011
2.34591
2.24012
2.1259
2.00458
1.95063
1.92264
1.89783
1.85126
1.78644
1.69919
1.60838
1.56601
1.547
1.53446
1.51135
1.48607
1.46203
1.43275
1.38911
1.32524
1.2803
1.26307
1.25006
1.23973
1.23172
1.23137
1.21495
1.19014
1.17104
1.14762
1.1089
1.08494
1.07638
1.06927
1.06921
1.07985
1.0789
1.07097
1.06497
1.05907
1.06147
1.07585
1.07831
1.07297
1.08105
1.08811
1
1.00002
1.00513
1.225
2.6164
4.503
5.03908
4.96829
4.68395
4.40398
4.10304
3.90585
3.73333
3.54944
3.33394
3.17419
3.05871
2.91466
2.74051
2.62784
2.52528
2.41819
2.28793
2.16538
2.11657
2.04619
1.96109
1.87214
1.77205
1.73421
1.68408
1.67243
1.77379
2.10479
2.63379
3.1464
3.37957
3.45203
3.43291
3.35558
3.19601
2.9921
2.80072
2.6762
2.58466
2.50345
2.41407
2.25991
2.10497
2.04258
2.00795
1.98033
1.94037
1.88789
1.82201
1.74379
1.65868
1.57594
1.53273
1.50918
1.48531
1.46467
1.44359
1.41825
1.37842
1.30261
1.24147
1.22643
1.21564
1.2082
1.21121
1.20228
1.17659
1.15111
1.13152
1.1088
1.06751
1.03696
1.02882
1.02368
1.02485
1.03292
1.02733
1.01961
1.01777
1.01171
1.00402
1.00775
1.01967
1.01817
1.02253
1.04492
1
1
1.00003
1.00625
1.22713
2.53918
4.39778
4.83963
4.81769
4.61285
4.27653
4.04848
3.86296
3.67808
3.45391
3.30874
3.19185
3.04277
2.86972
2.74562
2.63301
2.52412
2.37637
2.28247
2.22831
2.13857
2.05148
1.95726
1.87006
1.86089
1.99734
2.36822
2.98737
3.59183
3.99285
4.02239
3.83446
3.65596
3.49545
3.30594
3.12348
2.97288
2.85605
2.76376
2.67037
2.56687
2.44834
2.29439
2.16981
2.1001
2.05139
2.00686
1.95866
1.90606
1.84468
1.77436
1.70637
1.62468
1.54265
1.50559
1.47855
1.44903
1.42132
1.39281
1.35457
1.2886
1.22855
1.21152
1.203
1.19926
1.18962
1.17022
1.14624
1.12131
1.09802
1.07098
1.03103
1.00555
0.99892
0.994722
0.994499
0.987114
0.97372
0.965602
0.95982
0.954129
0.947943
0.944733
0.953606
0.969735
0.975634
0.997658
1
1
1
1.00004
1.0067
1.21113
2.45905
4.14076
4.66543
4.71621
4.51154
4.22539
4.01313
3.79885
3.57667
3.45476
3.3169
3.15612
2.99375
2.87433
2.75835
2.63177
2.46935
2.39821
2.32747
2.23157
2.15997
2.09723
2.19102
2.57981
3.34924
3.93214
4.45275
4.52558
4.41252
4.15713
3.8644
3.62432
3.42841
3.25908
3.12593
3.01761
2.91351
2.81013
2.70938
2.60719
2.49716
2.38351
2.28867
2.20776
2.13035
2.053
1.97424
1.89802
1.84037
1.79999
1.75642
1.69056
1.60827
1.5441
1.49641
1.45359
1.41979
1.39057
1.35619
1.29881
1.23694
1.21294
1.2009
1.18875
1.16913
1.14791
1.12647
1.10117
1.07329
1.04574
1.01132
0.986863
0.97955
0.977569
0.969908
0.954569
0.937061
0.923247
0.914616
0.910113
0.908528
0.904193
0.904259
0.925718
0.937101
0.947547
1
1
1
1
1.00004
1.00619
1.18715
2.28655
3.84246
4.56869
4.61226
4.43687
4.22033
3.94376
3.71223
3.58964
3.44628
3.27369
3.11957
2.98973
2.87287
2.7291
2.59225
2.51401
2.43568
2.37821
2.49837
2.89485
3.63349
4.4818
4.84801
4.97311
4.94044
4.77298
4.51166
4.21382
3.94498
3.68931
3.45665
3.28736
3.15101
3.04894
2.95862
2.86522
2.76873
2.66273
2.55637
2.45897
2.36079
2.26942
2.18633
2.10282
2.01742
1.93629
1.86821
1.82552
1.78681
1.72688
1.65307
1.59078
1.53983
1.49072
1.44159
1.39254
1.33875
1.2945
1.26649
1.2347
1.20478
1.18192
1.16101
1.13935
1.11692
1.09064
1.05841
1.02887
1.00223
0.9817
0.973168
0.965225
0.952651
0.936565
0.917471
0.900329
0.889704
0.886254
0.886614
0.883136
0.875846
0.876343
0.882604
0.885078
1
1
1
1
1
1.00004
1.00496
1.15274
2.03241
3.64255
4.45701
4.47395
4.37015
4.15666
3.8873
3.72195
3.56281
3.37862
3.23884
3.10068
2.99164
2.81626
2.73104
2.67252
2.78543
3.30281
4.20842
5.16439
5.46677
5.49743
5.29092
5.10202
4.87141
4.63935
4.40796
4.19606
4.0127
3.8101
3.56261
3.3508
3.21114
3.10104
3.00739
2.92223
2.83115
2.71969
2.60177
2.48558
2.37056
2.27831
2.20877
2.14046
2.07307
2.01023
1.93819
1.85996
1.77783
1.70353
1.65967
1.61153
1.55575
1.50783
1.46615
1.42343
1.36988
1.30357
1.25625
1.23656
1.21798
1.19223
1.16827
1.14461
1.11821
1.08786
1.05605
1.0238
0.993531
0.978071
0.969577
0.95896
0.945838
0.929703
0.909097
0.891999
0.88515
0.882636
0.879116
0.867808
0.846804
0.830757
0.826457
0.823186
1
1
1
1
1
1
1.00003
1.00359
1.10642
1.82617
3.4811
4.14275
4.34731
4.31087
4.10167
3.89264
3.70074
3.49343
3.35321
3.22039
3.09172
2.98501
3.07829
3.61081
4.63744
5.86665
6.433
6.51567
6.29863
5.92603
5.48398
5.07481
4.78518
4.55399
4.34795
4.17049
4.02105
3.85804
3.66412
3.46423
3.30689
3.17883
3.07053
2.97611
2.87641
2.75853
2.6346
2.51351
2.40499
2.30716
2.2268
2.18071
2.13041
2.06164
1.97924
1.89331
1.81163
1.72906
1.68043
1.66235
1.62626
1.56982
1.50735
1.45162
1.39831
1.34161
1.28535
1.24867
1.23777
1.22775
1.20724
1.18179
1.15141
1.11265
1.05675
1.01258
1.00684
1.00095
0.989323
0.976222
0.961946
0.944485
0.923684
0.90745
0.898362
0.890211
0.877191
0.858338
0.830874
0.80787
0.801493
0.797561
1
1
1
1
1
1
1
1.00002
1.00227
1.06947
1.71981
3.03232
3.99678
4.27894
4.22693
4.07772
3.86911
3.61707
3.4849
3.37609
3.42888
3.93537
5.11016
6.35723
7.06196
7.15622
6.95147
6.61929
6.25323
5.83416
5.44667
5.11627
4.8482
4.62673
4.42425
4.25341
4.0955
3.90774
3.71557
3.54582
3.40206
3.26905
3.13989
3.01932
2.91606
2.82664
2.7316
2.62121
2.50627
2.39057
2.27662
2.17385
2.09214
2.04303
2.00837
1.96643
1.9025
1.82441
1.74438
1.66355
1.58767
1.51821
1.46102
1.42196
1.40399
1.3885
1.35776
1.3118
1.25682
1.20739
1.1742
1.1465
1.1166
1.08288
1.04749
1.01781
0.994035
0.978172
0.965698
0.953213
0.938375
0.919904
0.899622
0.884426
0.876338
0.871016
0.864239
0.849537
0.821249
0.794999
0.787783
0.783586
1
1
1
1
1
1
1
1
1.00001
1.00128
1.05232
1.51303
2.59774
3.79492
4.18557
4.10001
3.95761
3.81307
3.87813
4.37297
5.6182
7.05789
8.10324
8.35824
8.11774
7.7308
7.19078
6.53859
6.04425
5.70825
5.40841
5.14269
4.92341
4.71433
4.50179
4.30851
4.12079
3.91976
3.73034
3.56502
3.41445
3.27916
3.15399
3.03743
2.93213
2.8319
2.72768
2.61634
2.50475
2.398
2.29125
2.19345
2.12504
2.07528
2.01983
1.95408
1.88278
1.81139
1.7412
1.66243
1.58379
1.51261
1.46674
1.44588
1.42407
1.39086
1.35062
1.30511
1.25394
1.2073
1.17337
1.14493
1.11684
1.08931
1.06115
1.02853
0.999257
0.980202
0.966249
0.953392
0.938294
0.91946
0.899593
0.884368
0.875211
0.868987
0.86148
0.846503
0.816361
0.788094
0.781351
0.777489
1
1
1
1
1
1
1
1
1
1
1.00077
1.03
1.28775
2.22919
3.48392
3.90388
4.46306
5.10727
6.18037
7.53004
8.49945
8.64961
8.67941
8.37362
7.84344
7.32285
6.93377
6.57206
6.2252
5.89862
5.5794
5.29009
5.06122
4.86768
4.68316
4.49936
4.30113
4.09866
3.91044
3.7294
3.55251
3.38873
3.24209
3.11821
3.01171
2.91004
2.80572
2.69529
2.58168
2.46984
2.36345
2.27509
2.20603
2.14235
2.07464
2.00208
1.92723
1.85301
1.77567
1.69315
1.61703
1.56521
1.53699
1.51056
1.4759
1.43358
1.38547
1.33201
1.27969
1.23652
1.20277
1.17492
1.15125
1.12812
1.09824
1.06092
1.03011
1.01085
0.99648
0.982627
0.966583
0.947261
0.927361
0.911018
0.899347
0.890412
0.880354
0.862352
0.828077
0.797792
0.79144
0.787733
1
1
1
1
1
1
1
1
1
1
1
1.00035
1.0105
1.1876
2.07528
4.04533
6.37041
9.03428
11.2563
12.2953
11.8573
10.6511
9.1651
8.10251
7.42481
6.98795
6.64523
6.38466
6.09445
5.7855
5.45364
5.14043
4.88516
4.68489
4.52634
4.38117
4.21076
4.01449
3.81208
3.61607
3.44198
3.28883
3.14758
3.02405
2.91672
2.81288
2.7039
2.59165
2.48664
2.38951
2.2929
2.20315
2.12948
2.06719
2.0056
1.93597
1.86025
1.78458
1.7066
1.62518
1.55559
1.51249
1.48429
1.45781
1.42775
1.38801
1.33501
1.27629
1.22612
1.18777
1.15593
1.12848
1.10547
1.08229
1.05276
1.01962
0.993767
0.975632
0.960846
0.947525
0.932819
0.91481
0.897438
0.884145
0.873927
0.865304
0.854266
0.8292
0.78588
0.76393
0.760173
0.757627
)
;

boundaryField
{
    inlet
    {
        type            fixedValue;
        value           uniform 1;
    }
    outlet
    {
        type            zeroGradient;
    }
    bottom
    {
        type            zeroGradient;
    }
    top
    {
        type            zeroGradient;
    }
    obstacle
    {
        type            zeroGradient;
    }
    defaultFaces
    {
        type            empty;
    }
}


// ************************************************************************* //
