/*--------------------------------*- C++ -*----------------------------------*\
  =========                 |
  \\      /  F ield         | OpenFOAM: The Open Source CFD Toolbox
   \\    /   O peration     | Website:  https://openfoam.org
    \\  /    A nd           | Version:  7
     \\/     M anipulation  |
\*---------------------------------------------------------------------------*/
FoamFile
{
    version     2.0;
    format      ascii;
    class       volVectorField;
    location    "0.5";
    object      U;
}
// * * * * * * * * * * * * * * * * * * * * * * * * * * * * * * * * * * * * * //

dimensions      [0 1 -1 0 0 0 0];

internalField   nonuniform List<vector> 
16192
(
(2.59233 0.0104574 0)
(2.57667 0.00895158 0)
(2.57133 0.00793104 0)
(2.5721 0.00651337 0)
(2.56584 0.0060374 0)
(2.55983 0.00538941 0)
(2.55172 0.00436514 0)
(2.53317 0.00434498 0)
(2.51888 0.00512346 0)
(2.51461 0.00525128 0)
(2.50934 0.00526724 0)
(2.50654 0.00500495 0)
(2.50923 0.00380618 0)
(2.5157 0.000513596 0)
(2.51683 -0.00262895 0)
(2.51569 -0.00371275 0)
(2.51037 -0.00468294 0)
(2.49268 -0.00349387 0)
(2.47354 -0.000192614 0)
(2.46866 0.00149143 0)
(2.46756 0.0019065 0)
(2.46668 0.00223393 0)
(2.46761 0.00221699 0)
(2.47026 0.00178247 0)
(2.47318 0.00122701 0)
(2.47556 0.00059981 0)
(2.47777 -0.000139676 0)
(2.4814 -0.00089356 0)
(2.48917 -0.00120303 0)
(2.49995 -0.00109795 0)
(2.50226 -0.000768058 0)
(2.50095 -0.000557735 0)
(2.4995 -8.51368e-05 0)
(2.49753 0.000360435 0)
(2.49382 0.000898004 0)
(2.48658 0.00206106 0)
(2.47485 0.00402975 0)
(2.46615 0.005036 0)
(2.46423 0.00494989 0)
(2.46309 0.00455443 0)
(2.46314 0.00368003 0)
(2.46217 0.00327756 0)
(2.45966 0.00307358 0)
(2.45249 0.00332054 0)
(2.44376 0.00395498 0)
(2.44065 0.00395699 0)
(2.43969 0.00366948 0)
(2.44006 0.00265674 0)
(2.44409 3.55262e-05 0)
(2.45451 -0.00386413 0)
(2.46802 -0.00671684 0)
(2.47757 -0.00698795 0)
(2.48166 -0.00598429 0)
(2.48424 -0.00506408 0)
(2.48574 -0.00425819 0)
(2.48735 -0.00365698 0)
(2.49011 -0.00332008 0)
(2.49489 -0.00386408 0)
(2.50064 -0.00503487 0)
(2.50487 -0.00595731 0)
(2.50648 -0.00638765 0)
(2.5091 -0.00683943 0)
(2.51207 -0.00703786 0)
(2.51411 -0.00591451 0)
(2.51436 -0.00245318 0)
(2.51393 0.00138937 0)
(2.51398 0.0029672 0)
(2.51517 0.00497222 0)
(2.51816 0.00681687 0)
(2.52255 0.00678596 0)
(2.5295 0.00387254 0)
(2.53846 -0.0010373 0)
(2.54901 -0.00611051 0)
(2.56025 -0.00947505 0)
(2.57041 -0.010302 0)
(2.57865 -0.0104684 0)
(2.58559 -0.00935036 0)
(2.59084 -0.00721991 0)
(2.59463 -0.00567743 0)
(2.59833 -0.00438098 0)
(2.60144 -0.0031275 0)
(2.60216 -0.00264495 0)
(2.60148 -0.00265569 0)
(2.60059 -0.00244535 0)
(2.59911 -0.00222308 0)
(2.59601 -0.00195703 0)
(2.59351 -0.00223265 0)
(2.59321 -0.00263626 0)
(2.59363 -0.00311482 0)
(2.59582 -0.00363221 0)
(2.60256 -0.00397713 0)
(2.6196 -0.00514374 0)
(2.6476 -0.00688062 0)
(2.66715 -0.00852123 0)
(2.67351 -0.00908222 0)
(2.67495 -0.00913388 0)
(2.67597 -0.00898625 0)
(2.67596 -0.00868223 0)
(2.67517 -0.00855649 0)
(2.67421 -0.00873338 0)
(2.67156 -0.00877837 0)
(2.66688 -0.00791896 0)
(2.66217 -0.00487737 0)
(2.6615 -0.000382055 0)
(2.66293 0.00241933 0)
(2.67111 0.00530301 0)
(2.69461 0.00532686 0)
(2.73123 0.00196783 0)
(2.75275 -0.000632399 0)
(2.75794 -0.00188085 0)
(2.75955 -0.00332788 0)
(2.7598 -0.00481541 0)
(2.76037 -0.00731574 0)
(2.76149 -0.0103529 0)
(2.76115 -0.0127707 0)
(2.75295 -0.0139153 0)
(2.73436 -0.0102447 0)
(2.71643 -0.00282852 0)
(2.70748 0.00511367 0)
(2.70519 0.00883263 0)
(2.70668 0.0103559 0)
(2.71574 0.0116586 0)
(2.73897 0.00951202 0)
(2.76859 0.00172708 0)
(2.78723 -0.00719395 0)
(2.79591 -0.0120974 0)
(2.79761 -0.0135378 0)
(2.79334 -0.0132457 0)
(2.77563 -0.0104752 0)
(2.76321 -0.00542201 0)
(2.76413 -0.00280164 0)
(2.76789 -0.00143495 0)
(2.78187 -0.000710356 0)
(2.80192 -0.00109634 0)
(2.80754 -0.00128395 0)
(2.81324 -0.00161506 0)
(2.81506 -0.00265046 0)
(2.80724 -0.00313261 0)
(2.80784 -0.00156 0)
(2.81555 -0.000375469 0)
(2.82041 0.00172174 0)
(2.82726 0.00346678 0)
(2.84209 0.0033299 0)
(2.85304 0.00192644 0)
(2.859 0.000798322 0)
(2.87119 -0.00235522 0)
(2.88535 -0.00512333 0)
(2.893 -0.00631067 0)
(2.88259 -0.00669514 0)
(2.85702 -0.00501676 0)
(2.84441 -0.00273068 0)
(2.84334 -0.00103535 0)
(2.84294 0.0016071 0)
(2.84677 0.00374591 0)
(2.8519 0.00336374 0)
(2.85284 0.00275706 0)
(2.85501 0.000975847 0)
(2.85909 -0.00106729 0)
(2.86515 -0.00180386 0)
(2.86226 -0.000717464 0)
(2.83513 -0.000930944 0)
(2.81824 -0.00117031 0)
(2.81807 -0.00107757 0)
(2.81877 -0.000927553 0)
(2.82164 -0.000566788 0)
(2.8247 -0.000418882 0)
(2.8283 -0.000970928 0)
(2.8355 0.000487957 0)
(2.84191 0.00577905 0)
(2.844 0.00709587 0)
(2.84171 0.00916528 0)
(2.83442 0.0105121 0)
(2.8243 0.0115059 0)
(2.81045 0.01265 0)
(2.7975 0.00895123 0)
(2.77821 0.000780354 0)
(2.76471 -0.00153481 0)
(2.75792 -0.00435108 0)
(2.75191 -0.00633171 0)
(2.74674 -0.00664139 0)
(2.74107 -0.00505235 0)
(2.73433 -0.00156966 0)
(2.72846 0.00288534 0)
(2.73108 0.00494504 0)
(2.73546 0.00534221 0)
(2.74511 0.00576118 0)
(2.76575 0.00606948 0)
(2.78251 0.00682263 0)
(2.78542 0.00674213 0)
(2.78047 0.00558289 0)
(2.7662 0.00413901 0)
(2.74732 0.0023493 0)
(2.72216 -7.07844e-05 0)
(2.69454 -0.000636778 0)
(2.67461 0.000917802 0)
(2.66309 0.0023093 0)
(2.6536 0.00387032 0)
(2.65424 0.00646704 0)
(2.67235 0.00977434 0)
(2.69542 0.00928221 0)
(2.69544 0.00738951 0)
(2.68746 0.00713489 0)
(2.68076 0.00629379 0)
(2.67545 0.00461019 0)
(2.67165 0.00136237 0)
(2.66869 -0.00301131 0)
(2.66287 -0.00737964 0)
(2.6537 -0.00950934 0)
(2.65047 -0.00772847 0)
(2.65348 -0.00751024 0)
(2.65528 -0.00780718 0)
(2.65777 -0.00872347 0)
(2.66486 -0.00699952 0)
(2.68123 -0.00563528 0)
(2.71149 -0.00948154 0)
(2.74107 -0.0156611 0)
(2.74957 -0.0173343 0)
(2.76332 -0.019831 0)
(2.78076 -0.0200627 0)
(2.80247 -0.0162045 0)
(2.81076 -0.00357906 0)
(2.80286 0.0122664 0)
(2.77646 0.0142471 0)
(2.74163 0.00928911 0)
(2.72717 0.00476481 0)
(2.74048 0.0083339 0)
(2.72135 0.0110475 0)
(2.70779 0.0110098 0)
(2.69972 0.00968336 0)
(2.68669 0.00551725 0)
(2.66893 -0.00500044 0)
(2.67198 -0.0127468 0)
(2.68418 -0.014538 0)
(2.69886 -0.018474 0)
(2.71851 -0.0223685 0)
(2.74461 -0.024104 0)
(2.7705 -0.0218095 0)
(2.7946 -0.0173557 0)
(2.81572 -0.0119282 0)
(2.83214 -0.00611215 0)
(2.84206 -0.00137081 0)
(2.84625 0.00155319 0)
(2.84763 0.00243957 0)
(2.84931 0.0017594 0)
(2.84508 -5.09876e-05 0)
(2.83023 -0.00108362 0)
(2.82932 -0.00108943 0)
(2.8407 -0.00120302 0)
(2.84873 -0.00179115 0)
(2.85012 -0.00213615 0)
(2.85167 -0.00279343 0)
(2.85301 -0.00386 0)
(2.8508 -0.00492217 0)
(2.60263 0.0239885 0)
(2.58367 0.0262454 0)
(2.57023 0.0261073 0)
(2.56883 0.0198733 0)
(2.57042 0.0108814 0)
(2.5662 0.00844615 0)
(2.56128 0.00619373 0)
(2.54745 0.00574189 0)
(2.52953 0.0108005 0)
(2.52255 0.0136219 0)
(2.51839 0.0145402 0)
(2.51514 0.0152282 0)
(2.51689 0.0139092 0)
(2.52167 0.00893097 0)
(2.52222 0.00255257 0)
(2.52022 -0.00260741 0)
(2.51501 -0.00854082 0)
(2.50278 -0.0133086 0)
(2.48576 -0.00941632 0)
(2.47693 -0.00311822 0)
(2.47527 0.000393419 0)
(2.47536 0.00284257 0)
(2.47608 0.00505367 0)
(2.47758 0.00641578 0)
(2.48 0.00678612 0)
(2.48151 0.00645823 0)
(2.48231 0.00550524 0)
(2.4847 0.00382639 0)
(2.49256 0.00140948 0)
(2.50462 -0.00186158 0)
(2.51038 -0.00411069 0)
(2.51027 -0.00469172 0)
(2.50892 -0.00503916 0)
(2.50737 -0.00567443 0)
(2.50522 -0.00692734 0)
(2.50011 -0.00702932 0)
(2.49022 -0.00208927 0)
(2.4773 0.00628134 0)
(2.47049 0.00928976 0)
(2.46914 0.00877244 0)
(2.46813 0.00668207 0)
(2.46724 0.00540843 0)
(2.46571 0.00409465 0)
(2.46195 0.00348218 0)
(2.4551 0.00531992 0)
(2.44995 0.00793287 0)
(2.44848 0.00867783 0)
(2.44878 0.00864105 0)
(2.45106 0.00877992 0)
(2.45608 0.00659714 0)
(2.46376 -5.3237e-05 0)
(2.47306 -0.00751346 0)
(2.48095 -0.0109034 0)
(2.4856 -0.010637 0)
(2.48807 -0.0100628 0)
(2.49042 -0.00977995 0)
(2.49325 -0.00916674 0)
(2.49722 -0.00870723 0)
(2.50212 -0.0104386 0)
(2.50728 -0.0138647 0)
(2.51262 -0.017148 0)
(2.51492 -0.0183354 0)
(2.51798 -0.0183508 0)
(2.52047 -0.0164341 0)
(2.52162 -0.0117258 0)
(2.52203 -0.00467985 0)
(2.52247 0.00183439 0)
(2.5228 0.007869 0)
(2.52296 0.0142742 0)
(2.52522 0.018722 0)
(2.52912 0.0175624 0)
(2.53536 0.0116451 0)
(2.54441 0.00300776 0)
(2.55479 -0.00700817 0)
(2.56477 -0.0150796 0)
(2.57365 -0.0216626 0)
(2.58213 -0.0254189 0)
(2.58944 -0.0248802 0)
(2.59569 -0.0222782 0)
(2.60161 -0.0176234 0)
(2.60455 -0.0110445 0)
(2.60446 -0.00749786 0)
(2.60325 -0.00539693 0)
(2.60159 -0.00462789 0)
(2.60004 -0.00501496 0)
(2.59777 -0.00573427 0)
(2.59599 -0.00568125 0)
(2.59581 -0.00504013 0)
(2.5962 -0.00455572 0)
(2.59846 -0.00375612 0)
(2.60489 -0.000810044 0)
(2.61902 0.00361949 0)
(2.64286 0.00121117 0)
(2.66401 -0.0062174 0)
(2.67292 -0.0112863 0)
(2.67606 -0.0128724 0)
(2.67701 -0.0125316 0)
(2.67701 -0.0113049 0)
(2.67566 -0.00955091 0)
(2.67352 -0.00991152 0)
(2.6699 -0.0132347 0)
(2.66642 -0.0179897 0)
(2.66513 -0.0193969 0)
(2.66452 -0.0187367 0)
(2.66949 -0.0119222 0)
(2.68265 0.0012626 0)
(2.70441 0.0128728 0)
(2.73148 0.0135261 0)
(2.75384 0.00492419 0)
(2.76312 -4.91778e-05 0)
(2.76487 -0.000423488 0)
(2.76601 -0.000249022 0)
(2.76585 -0.000396146 0)
(2.76401 -0.00236197 0)
(2.75897 -0.0106524 0)
(2.74875 -0.0236875 0)
(2.73682 -0.0318295 0)
(2.72664 -0.0261547 0)
(2.71837 -0.0128748 0)
(2.71628 0.00189368 0)
(2.71854 0.0110187 0)
(2.72633 0.0214905 0)
(2.74257 0.0298908 0)
(2.76335 0.0261392 0)
(2.77836 0.0129389 0)
(2.78775 -0.0045142 0)
(2.79224 -0.0224731 0)
(2.79039 -0.033576 0)
(2.78481 -0.0369137 0)
(2.77736 -0.0280954 0)
(2.77755 -0.0155903 0)
(2.78175 -0.0073369 0)
(2.79203 0.00141941 0)
(2.8043 0.00196259 0)
(2.80948 -0.000259455 0)
(2.81601 -0.00415584 0)
(2.81975 -0.00977481 0)
(2.81352 -0.0129679 0)
(2.81162 -0.0114415 0)
(2.8193 -0.0081944 0)
(2.8262 -0.00277855 0)
(2.83478 0.00397578 0)
(2.84935 0.0112712 0)
(2.85676 0.0132778 0)
(2.8633 0.0109839 0)
(2.87448 0.00437591 0)
(2.8869 -0.00128087 0)
(2.89238 -0.00431291 0)
(2.87929 -0.00913752 0)
(2.85707 -0.014014 0)
(2.84782 -0.011919 0)
(2.84644 -0.00927775 0)
(2.84701 -0.00240466 0)
(2.85245 0.00578143 0)
(2.85838 0.0102036 0)
(2.8601 0.0106778 0)
(2.86398 0.0100103 0)
(2.86919 0.0089075 0)
(2.87309 0.00803661 0)
(2.86465 0.00587763 0)
(2.83467 0.00386291 0)
(2.81806 0.00181218 0)
(2.81725 0.000849761 0)
(2.81776 -0.000474594 0)
(2.82154 -0.00322461 0)
(2.83088 -0.00747127 0)
(2.83605 -0.00969505 0)
(2.84309 -0.0103857 0)
(2.85027 -0.00127927 0)
(2.85332 0.00999652 0)
(2.84814 0.0179386 0)
(2.8363 0.0247107 0)
(2.82831 0.0300952 0)
(2.81318 0.0339946 0)
(2.79372 0.0304557 0)
(2.7763 0.0178134 0)
(2.765 0.0025377 0)
(2.759 -0.00538878 0)
(2.75527 -0.0107144 0)
(2.75154 -0.0167229 0)
(2.74804 -0.0188865 0)
(2.74364 -0.016196 0)
(2.73793 -0.00739549 0)
(2.73722 0.00270101 0)
(2.74123 0.00656842 0)
(2.74742 0.0102171 0)
(2.76359 0.0144845 0)
(2.7783 0.0166297 0)
(2.78112 0.017031 0)
(2.77665 0.0151011 0)
(2.76419 0.0118826 0)
(2.74665 0.00804657 0)
(2.72186 0.000283081 0)
(2.69631 -0.00253089 0)
(2.67621 -0.00119523 0)
(2.66352 0.00066592 0)
(2.6539 0.00240303 0)
(2.65623 0.00426332 0)
(2.68001 0.00753877 0)
(2.70517 0.0148272 0)
(2.70366 0.0175524 0)
(2.69648 0.017549 0)
(2.69037 0.0170138 0)
(2.68556 0.0158155 0)
(2.67979 0.0142522 0)
(2.67272 0.00946449 0)
(2.66245 -0.00132975 0)
(2.65574 -0.0131863 0)
(2.65676 -0.0174672 0)
(2.65899 -0.0181251 0)
(2.66339 -0.020193 0)
(2.66976 -0.0225741 0)
(2.67871 -0.0208505 0)
(2.69607 -0.0190007 0)
(2.72145 -0.0228326 0)
(2.74 -0.0279971 0)
(2.74685 -0.029076 0)
(2.75918 -0.0306299 0)
(2.77346 -0.0266259 0)
(2.78954 -0.0227353 0)
(2.79448 -0.00746161 0)
(2.78415 0.033226 0)
(2.76753 0.0506506 0)
(2.73248 0.0507653 0)
(2.71211 0.0387319 0)
(2.72695 0.0260658 0)
(2.71637 0.0229684 0)
(2.70749 0.0229416 0)
(2.70274 0.0214596 0)
(2.69161 0.015317 0)
(2.6725 0.000783699 0)
(2.66999 -0.0130117 0)
(2.68067 -0.0174849 0)
(2.69298 -0.0256059 0)
(2.70964 -0.0313526 0)
(2.73183 -0.0325706 0)
(2.75542 -0.0308737 0)
(2.77888 -0.0260437 0)
(2.80038 -0.0193794 0)
(2.81893 -0.012202 0)
(2.83405 -0.00323562 0)
(2.84417 0.00604631 0)
(2.84879 0.0122247 0)
(2.84951 0.0123289 0)
(2.84007 0.00581981 0)
(2.8236 0.000722789 0)
(2.82478 0.000565133 0)
(2.83871 0.000728957 0)
(2.84833 -0.000158536 0)
(2.8498 -0.000693558 0)
(2.85134 -0.00195454 0)
(2.85253 -0.00409013 0)
(2.8506 -0.00620467 0)
(2.60915 0.0431604 0)
(2.5924 0.0426796 0)
(2.58137 0.0402089 0)
(2.57618 0.0352625 0)
(2.57616 0.0267834 0)
(2.57512 0.0174339 0)
(2.57054 0.0133022 0)
(2.56566 0.010793 0)
(2.55656 0.0117511 0)
(2.54685 0.0159384 0)
(2.54237 0.0185164 0)
(2.54024 0.0192243 0)
(2.5401 0.0183515 0)
(2.54178 0.0133605 0)
(2.54035 0.00683599 0)
(2.53711 0.00107328 0)
(2.53129 -0.00424473 0)
(2.52224 -0.00831211 0)
(2.51231 -0.00811792 0)
(2.50381 -0.00468647 0)
(2.50005 -0.00108327 0)
(2.49904 0.00119869 0)
(2.49837 0.00338918 0)
(2.49837 0.00623335 0)
(2.49881 0.008812 0)
(2.49933 0.0103235 0)
(2.49999 0.011419 0)
(2.50216 0.0117028 0)
(2.50861 0.0103865 0)
(2.51939 0.00716825 0)
(2.52783 0.00327355 0)
(2.53034 0.000958371 0)
(2.53009 -4.31615e-05 0)
(2.52818 -0.00064806 0)
(2.52565 -0.000930257 0)
(2.5225 -0.000871362 0)
(2.51701 0.000415944 0)
(2.50614 0.00540985 0)
(2.49216 0.0120306 0)
(2.48324 0.0122552 0)
(2.48039 0.00911792 0)
(2.47943 0.00567036 0)
(2.47923 0.00248826 0)
(2.47905 0.00134434 0)
(2.47812 0.00220444 0)
(2.47626 0.00412097 0)
(2.47338 0.00591378 0)
(2.47178 0.00514145 0)
(2.4714 0.001956 0)
(2.47189 -0.00177794 0)
(2.47416 -0.00498897 0)
(2.47985 -0.00999441 0)
(2.48861 -0.0154829 0)
(2.49691 -0.0172356 0)
(2.50226 -0.0157274 0)
(2.50603 -0.0136914 0)
(2.50944 -0.0124975 0)
(2.51266 -0.0136094 0)
(2.51567 -0.0168592 0)
(2.5192 -0.0209239 0)
(2.52362 -0.0251881 0)
(2.52789 -0.0274164 0)
(2.53038 -0.0264734 0)
(2.53254 -0.0243269 0)
(2.53546 -0.0207591 0)
(2.53781 -0.0139837 0)
(2.5398 -0.00526653 0)
(2.54131 0.00343662 0)
(2.54261 0.0106661 0)
(2.54489 0.014051 0)
(2.54809 0.0140372 0)
(2.55316 0.0115359 0)
(2.55929 0.00560034 0)
(2.56549 -0.00284872 0)
(2.57186 -0.0124174 0)
(2.579 -0.0225677 0)
(2.5873 -0.0313296 0)
(2.59651 -0.0367412 0)
(2.60597 -0.036641 0)
(2.61435 -0.0310566 0)
(2.61924 -0.023294 0)
(2.61919 -0.0184104 0)
(2.61719 -0.0155735 0)
(2.61302 -0.0124772 0)
(2.60914 -0.010537 0)
(2.60735 -0.0109176 0)
(2.60786 -0.0111192 0)
(2.60898 -0.0108465 0)
(2.61057 -0.00999896 0)
(2.61481 -0.00776751 0)
(2.62236 -0.00509836 0)
(2.63467 -0.00518399 0)
(2.65023 -0.00902671 0)
(2.66714 -0.0165738 0)
(2.68009 -0.0228935 0)
(2.68548 -0.0246286 0)
(2.68623 -0.0246146 0)
(2.68581 -0.0242037 0)
(2.68436 -0.0232618 0)
(2.6796 -0.0217582 0)
(2.67465 -0.0205972 0)
(2.67341 -0.0196195 0)
(2.67344 -0.0173106 0)
(2.67883 -0.0127595 0)
(2.69064 -0.00489666 0)
(2.70619 0.00334312 0)
(2.7229 0.00714045 0)
(2.73988 0.0040022 0)
(2.75716 -0.00245426 0)
(2.77208 -0.0066993 0)
(2.77766 -0.00752812 0)
(2.77891 -0.00765762 0)
(2.77851 -0.00907819 0)
(2.77218 -0.0128576 0)
(2.76015 -0.0192135 0)
(2.75018 -0.024152 0)
(2.74448 -0.0246836 0)
(2.73989 -0.0228068 0)
(2.73586 -0.015472 0)
(2.73531 -0.00350466 0)
(2.73947 0.00919528 0)
(2.74804 0.0240957 0)
(2.75804 0.031064 0)
(2.76528 0.0242365 0)
(2.77164 0.0107245 0)
(2.77895 -0.00675397 0)
(2.78745 -0.0255559 0)
(2.79684 -0.0376064 0)
(2.79696 -0.0394316 0)
(2.79381 -0.0377968 0)
(2.79373 -0.03049 0)
(2.79902 -0.0197304 0)
(2.80378 -0.00839298 0)
(2.80593 -0.00568135 0)
(2.81024 -0.0065356 0)
(2.81451 -0.00933978 0)
(2.81576 -0.0136004 0)
(2.81258 -0.017306 0)
(2.81693 -0.017241 0)
(2.82498 -0.0164169 0)
(2.83236 -0.0132733 0)
(2.84398 -0.00640148 0)
(2.85809 0.00390849 0)
(2.8635 0.00573526 0)
(2.87241 0.00309771 0)
(2.88135 -0.000292409 0)
(2.89074 -0.00157027 0)
(2.8922 -0.00295537 0)
(2.87483 -0.00617355 0)
(2.85694 -0.00894895 0)
(2.85352 -0.00884772 0)
(2.85119 -0.00644387 0)
(2.851 -0.00143145 0)
(2.85735 0.00271033 0)
(2.86715 0.00369535 0)
(2.86991 0.0032966 0)
(2.87416 0.00129851 0)
(2.87901 0.000502853 0)
(2.88312 0.00450303 0)
(2.87388 0.0109044 0)
(2.83938 0.0135436 0)
(2.82057 0.011883 0)
(2.81965 0.0111543 0)
(2.81997 0.0105492 0)
(2.82446 0.00759222 0)
(2.83942 -0.000679549 0)
(2.8459 -0.00441386 0)
(2.85066 -0.00345692 0)
(2.85973 0.00391549 0)
(2.86578 0.0136101 0)
(2.86335 0.0216657 0)
(2.85263 0.0275207 0)
(2.83146 0.0367792 0)
(2.81994 0.0393603 0)
(2.80285 0.0349156 0)
(2.7867 0.0254217 0)
(2.77522 0.0126807 0)
(2.76864 -0.00215244 0)
(2.76542 -0.00989292 0)
(2.76238 -0.0146975 0)
(2.75902 -0.0169588 0)
(2.75555 -0.016852 0)
(2.75229 -0.0118896 0)
(2.75168 0.000227618 0)
(2.75513 0.00994938 0)
(2.76063 0.0159177 0)
(2.77188 0.023747 0)
(2.78077 0.0260965 0)
(2.78289 0.0240828 0)
(2.77892 0.0211024 0)
(2.76737 0.0183813 0)
(2.74998 0.0145416 0)
(2.7281 0.00536781 0)
(2.70619 0.00176986 0)
(2.68584 0.00220888 0)
(2.67113 0.00362211 0)
(2.66064 0.00618898 0)
(2.6641 0.0115088 0)
(2.69205 0.0189695 0)
(2.72175 0.0237883 0)
(2.72178 0.0245356 0)
(2.71569 0.0239845 0)
(2.71074 0.0217373 0)
(2.70465 0.0180232 0)
(2.69666 0.0108847 0)
(2.68497 -0.000877993 0)
(2.67368 -0.0130913 0)
(2.67042 -0.019854 0)
(2.67139 -0.0223357 0)
(2.67541 -0.0244564 0)
(2.68208 -0.0268966 0)
(2.69131 -0.0308928 0)
(2.70495 -0.0299495 0)
(2.7252 -0.0265133 0)
(2.74452 -0.0312672 0)
(2.75589 -0.0415527 0)
(2.75886 -0.0460831 0)
(2.76143 -0.0514825 0)
(2.76528 -0.0534585 0)
(2.77319 -0.0417104 0)
(2.77595 -0.0164016 0)
(2.7688 0.0430333 0)
(2.76837 0.0812246 0)
(2.7444 0.0869983 0)
(2.71914 0.0643847 0)
(2.73131 0.0347607 0)
(2.72597 0.0245861 0)
(2.71807 0.023135 0)
(2.71468 0.0191428 0)
(2.70576 0.00925936 0)
(2.68772 -0.00862255 0)
(2.68245 -0.0281181 0)
(2.69582 -0.0359548 0)
(2.70812 -0.0458146 0)
(2.72433 -0.056212 0)
(2.74556 -0.0624282 0)
(2.7666 -0.0608573 0)
(2.78698 -0.0515939 0)
(2.80386 -0.0375067 0)
(2.81716 -0.0225645 0)
(2.8285 -0.0131597 0)
(2.83896 -0.0080711 0)
(2.84921 -0.00148344 0)
(2.85216 0.00319532 0)
(2.83742 -0.000632201 0)
(2.82476 -0.00300035 0)
(2.82801 -0.00270242 0)
(2.84108 -0.00272822 0)
(2.84969 -0.00350712 0)
(2.85106 -0.00387557 0)
(2.8533 -0.00532353 0)
(2.855 -0.0082466 0)
(2.85377 -0.0124901 0)
(2.63687 0.0542492 0)
(2.62245 0.0523262 0)
(2.61006 0.0482567 0)
(2.60138 0.0449417 0)
(2.59658 0.0398351 0)
(2.59719 0.030474 0)
(2.5974 0.0199235 0)
(2.59357 0.0149295 0)
(2.58927 0.0124331 0)
(2.58447 0.0130268 0)
(2.57922 0.0154261 0)
(2.57555 0.0168501 0)
(2.57351 0.0169122 0)
(2.57254 0.0157299 0)
(2.57025 0.0113911 0)
(2.56659 0.00538944 0)
(2.56199 -0.00135776 0)
(2.55697 -0.00626014 0)
(2.55168 -0.00828625 0)
(2.54574 -0.00661275 0)
(2.53981 -0.00317692 0)
(2.5358 -0.000769412 0)
(2.53352 0.00057741 0)
(2.53174 0.00220676 0)
(2.53004 0.00543535 0)
(2.5294 0.0095584 0)
(2.5302 0.0127292 0)
(2.5325 0.0161986 0)
(2.53856 0.0187216 0)
(2.5483 0.0178982 0)
(2.55506 0.0140449 0)
(2.5564 0.0100802 0)
(2.55553 0.00705209 0)
(2.55346 0.00510697 0)
(2.55033 0.00429514 0)
(2.54738 0.00384778 0)
(2.54429 0.00346096 0)
(2.53641 0.00433041 0)
(2.52354 0.00715472 0)
(2.50999 0.00929209 0)
(2.50396 0.00662875 0)
(2.50386 0.00273837 0)
(2.50559 0.000196266 0)
(2.50842 -0.0019913 0)
(2.51105 -0.00353419 0)
(2.51412 -0.00440753 0)
(2.51495 -0.00541311 0)
(2.51064 -0.00562254 0)
(2.50588 -0.00644672 0)
(2.50656 -0.00892171 0)
(2.50856 -0.0109527 0)
(2.51169 -0.0138392 0)
(2.5169 -0.0168823 0)
(2.52427 -0.0195868 0)
(2.53263 -0.0193424 0)
(2.53904 -0.0172562 0)
(2.54382 -0.0159301 0)
(2.54691 -0.0161922 0)
(2.54888 -0.0177838 0)
(2.5508 -0.0205358 0)
(2.55339 -0.0242561 0)
(2.55727 -0.0277322 0)
(2.56121 -0.0290641 0)
(2.5638 -0.0280318 0)
(2.56593 -0.0249006 0)
(2.5684 -0.0191459 0)
(2.57186 -0.0120192 0)
(2.57593 -0.00564432 0)
(2.58019 -0.00157965 0)
(2.58398 -0.000445129 0)
(2.58763 -0.000539733 0)
(2.59203 -0.00116438 0)
(2.59645 -0.00278279 0)
(2.59938 -0.00561391 0)
(2.60159 -0.00918876 0)
(2.6038 -0.013943 0)
(2.60695 -0.020125 0)
(2.614 -0.0280318 0)
(2.62662 -0.0348924 0)
(2.64022 -0.035296 0)
(2.64813 -0.0305759 0)
(2.64832 -0.0271887 0)
(2.64633 -0.0259571 0)
(2.64304 -0.0247947 0)
(2.63864 -0.0232618 0)
(2.63503 -0.0211866 0)
(2.63483 -0.0196888 0)
(2.63592 -0.0190176 0)
(2.63793 -0.01757 0)
(2.64333 -0.0131734 0)
(2.65151 -0.00623906 0)
(2.65969 -0.000963769 0)
(2.66608 -0.000825407 0)
(2.67282 -0.00628642 0)
(2.68263 -0.0171 0)
(2.69343 -0.0279118 0)
(2.69737 -0.0325725 0)
(2.69691 -0.0334293 0)
(2.69439 -0.0348627 0)
(2.69122 -0.0337338 0)
(2.69005 -0.0296274 0)
(2.69106 -0.0250499 0)
(2.69437 -0.0190123 0)
(2.70206 -0.0123712 0)
(2.71314 -0.00657204 0)
(2.72465 -0.00233675 0)
(2.73543 -0.000163289 0)
(2.74546 -0.00167045 0)
(2.75802 -0.00683737 0)
(2.77454 -0.0141477 0)
(2.7845 -0.0176553 0)
(2.78675 -0.0180886 0)
(2.78691 -0.0193579 0)
(2.77723 -0.0235457 0)
(2.76462 -0.0269649 0)
(2.76108 -0.027731 0)
(2.76 -0.0272632 0)
(2.75815 -0.0236902 0)
(2.758 -0.0153352 0)
(2.76048 -0.00270663 0)
(2.7636 0.0101758 0)
(2.76529 0.0180287 0)
(2.76671 0.0196607 0)
(2.7693 0.0163256 0)
(2.7715 0.0067618 0)
(2.77754 -0.0056657 0)
(2.78648 -0.0220827 0)
(2.79965 -0.0372494 0)
(2.8114 -0.0426722 0)
(2.81329 -0.0341589 0)
(2.81133 -0.0223682 0)
(2.81043 -0.0135816 0)
(2.80932 -0.00972512 0)
(2.8077 -0.00795528 0)
(2.80749 -0.0118266 0)
(2.8077 -0.0171585 0)
(2.80787 -0.0219107 0)
(2.81333 -0.0228508 0)
(2.82263 -0.0205294 0)
(2.83144 -0.0161119 0)
(2.84024 -0.0106546 0)
(2.85373 -0.00160739 0)
(2.86135 0.00453431 0)
(2.87173 0.00673404 0)
(2.8805 0.00691092 0)
(2.88505 0.00406026 0)
(2.88704 0.000311313 0)
(2.88465 -0.00444557 0)
(2.87016 -0.00839308 0)
(2.86161 -0.0074914 0)
(2.85975 -0.00594177 0)
(2.8571 -0.00133208 0)
(2.85684 0.00335067 0)
(2.86295 0.00573292 0)
(2.87465 0.00473648 0)
(2.87874 0.003572 0)
(2.88296 0.000558662 0)
(2.88576 -0.00442578 0)
(2.88647 -0.00760916 0)
(2.88051 -0.00670124 0)
(2.85523 0.00166362 0)
(2.83342 0.00848736 0)
(2.83152 0.00985649 0)
(2.83165 0.0115587 0)
(2.83479 0.0139428 0)
(2.84627 0.0134594 0)
(2.85508 0.0125415 0)
(2.85822 0.0131394 0)
(2.86392 0.0198252 0)
(2.87484 0.0264924 0)
(2.8788 0.0291706 0)
(2.87089 0.0322117 0)
(2.84575 0.0363415 0)
(2.82604 0.0370288 0)
(2.81769 0.0345337 0)
(2.8065 0.0264584 0)
(2.79647 0.0168164 0)
(2.78917 0.00579468 0)
(2.78456 -0.00195919 0)
(2.7822 -0.00597414 0)
(2.77895 -0.00893941 0)
(2.77616 -0.00955348 0)
(2.77453 -0.00815588 0)
(2.77285 -0.000255206 0)
(2.77521 0.00996883 0)
(2.78195 0.0175697 0)
(2.79064 0.0282369 0)
(2.79212 0.0330805 0)
(2.79003 0.0314256 0)
(2.78637 0.0263002 0)
(2.77893 0.0221982 0)
(2.75879 0.015057 0)
(2.73728 0.00634776 0)
(2.72341 0.00489616 0)
(2.70534 0.00524926 0)
(2.69003 0.00740233 0)
(2.68052 0.0106315 0)
(2.68506 0.0159972 0)
(2.71575 0.0248381 0)
(2.74633 0.0308537 0)
(2.74716 0.0310992 0)
(2.74159 0.0299755 0)
(2.73699 0.0266074 0)
(2.72909 0.0197918 0)
(2.71697 0.00642415 0)
(2.70139 -0.0107734 0)
(2.69384 -0.0203006 0)
(2.69351 -0.0234791 0)
(2.69556 -0.0273448 0)
(2.70086 -0.0305413 0)
(2.70944 -0.0311848 0)
(2.72139 -0.0305206 0)
(2.73903 -0.0286533 0)
(2.7618 -0.0237958 0)
(2.77906 -0.0279535 0)
(2.78187 -0.0469774 0)
(2.77328 -0.0604738 0)
(2.76781 -0.0628745 0)
(2.76101 -0.0614288 0)
(2.75887 -0.0475363 0)
(2.7576 -0.019257 0)
(2.75577 0.0424148 0)
(2.76459 0.0930957 0)
(2.76675 0.112958 0)
(2.75677 0.0984948 0)
(2.76655 0.0541187 0)
(2.7561 0.0312815 0)
(2.74468 0.02989 0)
(2.74046 0.0233922 0)
(2.73199 0.00758445 0)
(2.71789 -0.0217874 0)
(2.71739 -0.0465544 0)
(2.73213 -0.0510944 0)
(2.74546 -0.0622821 0)
(2.76236 -0.074277 0)
(2.78188 -0.0787337 0)
(2.79555 -0.0750099 0)
(2.80485 -0.0637922 0)
(2.81255 -0.0454708 0)
(2.81904 -0.0263999 0)
(2.82535 -0.0117656 0)
(2.8346 0.000748355 0)
(2.84711 0.0073828 0)
(2.84737 -0.0021112 0)
(2.83435 -0.0104349 0)
(2.83099 -0.00941245 0)
(2.83842 -0.00637113 0)
(2.84932 -0.00418996 0)
(2.85539 -0.00496782 0)
(2.85697 -0.00598456 0)
(2.85955 -0.00829693 0)
(2.86125 -0.0116067 0)
(2.85946 -0.0157408 0)
(2.67052 0.0653639 0)
(2.65864 0.0613378 0)
(2.64819 0.0566046 0)
(2.64059 0.0520875 0)
(2.63569 0.0469102 0)
(2.63394 0.0401608 0)
(2.63499 0.0320378 0)
(2.63639 0.0242989 0)
(2.63496 0.0196851 0)
(2.63172 0.0165381 0)
(2.62889 0.0141067 0)
(2.62555 0.0129338 0)
(2.62112 0.0126186 0)
(2.6168 0.0112836 0)
(2.61351 0.00837642 0)
(2.6114 0.00533909 0)
(2.60866 0.00211047 0)
(2.60474 -0.000647324 0)
(2.60012 -0.00218689 0)
(2.59577 -0.00275204 0)
(2.58996 -0.00195552 0)
(2.58444 -1.25564e-05 0)
(2.58001 0.00174596 0)
(2.57696 0.00324212 0)
(2.57489 0.00546288 0)
(2.57383 0.00901182 0)
(2.57439 0.0136478 0)
(2.5771 0.0197037 0)
(2.58239 0.0262137 0)
(2.58739 0.030119 0)
(2.58871 0.0294731 0)
(2.5875 0.0264386 0)
(2.58581 0.0229459 0)
(2.58356 0.0197083 0)
(2.5805 0.0174513 0)
(2.57758 0.0153873 0)
(2.57452 0.0126178 0)
(2.56851 0.00830557 0)
(2.55963 0.00476352 0)
(2.54941 0.00357831 0)
(2.54213 0.00225156 0)
(2.54174 -0.000323806 0)
(2.54402 -0.00334576 0)
(2.54841 -0.00795818 0)
(2.55357 -0.0127425 0)
(2.55802 -0.0161222 0)
(2.56168 -0.0193038 0)
(2.56152 -0.0227442 0)
(2.55921 -0.0256103 0)
(2.559 -0.0257721 0)
(2.56175 -0.023691 0)
(2.56588 -0.0219354 0)
(2.56883 -0.0211875 0)
(2.57531 -0.0207165 0)
(2.5828 -0.0207106 0)
(2.58926 -0.0205337 0)
(2.59445 -0.0200739 0)
(2.59836 -0.0198065 0)
(2.60141 -0.0205339 0)
(2.60401 -0.0221737 0)
(2.60628 -0.0241971 0)
(2.6088 -0.0256762 0)
(2.612 -0.0262503 0)
(2.61511 -0.0260175 0)
(2.6177 -0.0247059 0)
(2.6205 -0.0216336 0)
(2.62398 -0.0173861 0)
(2.6274 -0.0141055 0)
(2.6304 -0.0125829 0)
(2.63364 -0.0130649 0)
(2.63901 -0.0146787 0)
(2.64575 -0.0155016 0)
(2.64804 -0.015159 0)
(2.64926 -0.0154023 0)
(2.64882 -0.0158947 0)
(2.64812 -0.0157576 0)
(2.6474 -0.0157682 0)
(2.64975 -0.0170573 0)
(2.65923 -0.0205135 0)
(2.67569 -0.0262715 0)
(2.68933 -0.0298349 0)
(2.69342 -0.0300166 0)
(2.69137 -0.030208 0)
(2.68811 -0.0304033 0)
(2.68407 -0.0307111 0)
(2.6796 -0.0298138 0)
(2.67729 -0.0281413 0)
(2.67682 -0.027255 0)
(2.67728 -0.0256753 0)
(2.68067 -0.0212071 0)
(2.68706 -0.01444 0)
(2.69149 -0.00864371 0)
(2.69222 -0.0057008 0)
(2.69174 -0.0058162 0)
(2.69346 -0.0109426 0)
(2.70189 -0.0232904 0)
(2.71499 -0.0383678 0)
(2.72054 -0.045308 0)
(2.71887 -0.0456354 0)
(2.71722 -0.0431181 0)
(2.7178 -0.0364941 0)
(2.72099 -0.0263789 0)
(2.72578 -0.0151021 0)
(2.73119 -0.00683438 0)
(2.73775 -0.00426365 0)
(2.74591 -0.00628586 0)
(2.75318 -0.0112847 0)
(2.75933 -0.0173321 0)
(2.76766 -0.0233558 0)
(2.7808 -0.0300391 0)
(2.78969 -0.0348947 0)
(2.79114 -0.0363635 0)
(2.79094 -0.0370968 0)
(2.78427 -0.0323308 0)
(2.77558 -0.0253148 0)
(2.77353 -0.0222793 0)
(2.77167 -0.0179268 0)
(2.77412 -0.00972347 0)
(2.78245 0.00261448 0)
(2.78724 0.0121711 0)
(2.78525 0.0145678 0)
(2.78259 0.0140565 0)
(2.77521 0.00880112 0)
(2.76939 -0.00410123 0)
(2.7698 -0.01367 0)
(2.77396 -0.0217181 0)
(2.78399 -0.0320215 0)
(2.80181 -0.037879 0)
(2.82231 -0.0341559 0)
(2.83043 -0.024665 0)
(2.82528 -0.0175688 0)
(2.81901 -0.0137079 0)
(2.81327 -0.0108419 0)
(2.80397 -0.010139 0)
(2.80032 -0.0152331 0)
(2.80256 -0.0212754 0)
(2.80666 -0.025829 0)
(2.81363 -0.030085 0)
(2.82836 -0.0303959 0)
(2.84064 -0.0233748 0)
(2.84777 -0.0166922 0)
(2.85654 -0.0115985 0)
(2.86555 -0.00752727 0)
(2.87384 -0.00328055 0)
(2.87925 0.00162362 0)
(2.87721 0.00724636 0)
(2.86822 0.00441989 0)
(2.86394 -0.00240431 0)
(2.86526 -0.00685144 0)
(2.86536 -0.00680753 0)
(2.8641 -0.00323701 0)
(2.86409 0.00185574 0)
(2.86535 0.00431576 0)
(2.8698 0.00239841 0)
(2.87906 -0.002074 0)
(2.88294 -0.00378048 0)
(2.887 -0.00446358 0)
(2.88981 -0.0048816 0)
(2.88942 -0.00507261 0)
(2.88568 -0.00399988 0)
(2.8729 0.00303521 0)
(2.85246 0.012697 0)
(2.84707 0.0143296 0)
(2.84643 0.0139424 0)
(2.84718 0.0124834 0)
(2.85549 0.0118088 0)
(2.86573 0.0153141 0)
(2.86928 0.018507 0)
(2.87545 0.0260851 0)
(2.88419 0.0296717 0)
(2.89136 0.0310919 0)
(2.88435 0.0352205 0)
(2.85962 0.0374469 0)
(2.83775 0.0346273 0)
(2.83202 0.0324586 0)
(2.82415 0.028032 0)
(2.81665 0.02304 0)
(2.81235 0.0145436 0)
(2.81095 0.00470721 0)
(2.80929 -5.60295e-06 0)
(2.80659 -0.00193412 0)
(2.8039 -0.0020822 0)
(2.80143 0.000972046 0)
(2.80018 0.00682767 0)
(2.80203 0.0147036 0)
(2.80737 0.0235557 0)
(2.81157 0.0287542 0)
(2.81148 0.0297217 0)
(2.80955 0.0300598 0)
(2.80498 0.0281474 0)
(2.79451 0.0226361 0)
(2.77042 0.0134069 0)
(2.75376 0.00872156 0)
(2.7449 0.0085484 0)
(2.73339 0.0110065 0)
(2.72258 0.014478 0)
(2.71497 0.0181975 0)
(2.72161 0.0235064 0)
(2.75328 0.0313719 0)
(2.78087 0.0360789 0)
(2.78026 0.0354889 0)
(2.77527 0.0331104 0)
(2.76948 0.0268383 0)
(2.759 0.0149529 0)
(2.74187 -0.00383016 0)
(2.72716 -0.018769 0)
(2.72456 -0.0228351 0)
(2.72549 -0.0263028 0)
(2.72867 -0.031142 0)
(2.73465 -0.0357348 0)
(2.74416 -0.037503 0)
(2.75824 -0.0345865 0)
(2.78014 -0.0269026 0)
(2.80001 -0.0269999 0)
(2.80877 -0.0311136 0)
(2.81041 -0.042152 0)
(2.79731 -0.0622469 0)
(2.78195 -0.067211 0)
(2.77119 -0.0639255 0)
(2.75772 -0.0525165 0)
(2.7496 -0.0222831 0)
(2.75113 0.0315336 0)
(2.76361 0.0838562 0)
(2.78551 0.108835 0)
(2.79862 0.109756 0)
(2.81315 0.0789628 0)
(2.80744 0.0475401 0)
(2.78934 0.0440231 0)
(2.78398 0.0390143 0)
(2.77301 0.019546 0)
(2.75927 -0.0249975 0)
(2.76148 -0.0565792 0)
(2.7718 -0.0704353 0)
(2.78747 -0.0848312 0)
(2.80325 -0.0916363 0)
(2.81377 -0.0865604 0)
(2.8212 -0.0740117 0)
(2.82398 -0.0605244 0)
(2.82427 -0.046854 0)
(2.82416 -0.0286325 0)
(2.82595 -0.00545022 0)
(2.83074 0.00726418 0)
(2.83335 -0.00428174 0)
(2.83364 -0.0164558 0)
(2.83783 -0.0154359 0)
(2.84474 -0.0108983 0)
(2.8543 -0.0060343 0)
(2.8629 -0.00380266 0)
(2.86492 -0.0039988 0)
(2.86809 -0.00755228 0)
(2.8702 -0.0124154 0)
(2.86997 -0.0170616 0)
(2.86674 -0.0217467 0)
(2.71315 0.0731916 0)
(2.70858 0.0692564 0)
(2.70265 0.0637702 0)
(2.69869 0.0582403 0)
(2.69568 0.0526055 0)
(2.69439 0.0469525 0)
(2.69376 0.0407389 0)
(2.69448 0.0339092 0)
(2.69685 0.0260301 0)
(2.69781 0.0192347 0)
(2.6948 0.0157147 0)
(2.69145 0.0134332 0)
(2.68725 0.010525 0)
(2.68137 0.00742892 0)
(2.67816 0.00568232 0)
(2.67423 0.00442411 0)