/*--------------------------------*- C++ -*----------------------------------*\
  =========                 |
  \\      /  F ield         | OpenFOAM: The Open Source CFD Toolbox
   \\    /   O peration     | Website:  https://openfoam.org
    \\  /    A nd           | Version:  7
     \\/     M anipulation  |
\*---------------------------------------------------------------------------*/
FoamFile
{
    version     2.0;
    format      ascii;
    class       volScalarField;
    location    "3.4";
    object      T;
}
// * * * * * * * * * * * * * * * * * * * * * * * * * * * * * * * * * * * * * //

dimensions      [0 0 0 1 0 0 0];

internalField   nonuniform List<scalar> 
4128
(
1
1
1
1
1
1
1
1
1
1
1
1
1
1
1
1
1
1.3751
2.52987
2.74141
2.76714
2.79289
2.80743
2.81831
1
1
1
1
1
1
1
1
1
1
1
1
1
1
1
1
1
1.32707
2.49993
2.73466
2.76079
2.7845
2.79475
2.79645
1
1
1
1
1
1
1
1
1
1
1
1
1
1
1
1
1
1.19742
2.42269
2.71848
2.74463
2.76324
2.76705
2.77486
1
1
1
1
1
1
1
1
1
1
1
1
1
1
1
1
1
1.01671
2.28697
2.68451
2.71564
2.73755
2.75408
2.79517
1
1
1
1
1
1
1
1
1
1
1
1
1
1
1
1
1
1.00012
2.09423
2.62339
2.67409
2.6882
2.66075
2.59121
1
1
1
1
1
1
1
1
1
1
1
1
1
1
1
1
1
0.999999
1.78941
2.52251
2.63077
2.62087
2.5845
2.47391
1
1
1
1
1
1
1
1
1
1
1
1
1
1
1
1
1
1
1.33477
2.33974
2.5767
2.55241
2.51364
2.3825
1
1
1
1
1
1
1
1
1
1
1
1
1
1
1
1
1
1
1.03184
2.12877
2.49637
2.47194
2.43901
2.32635
1
1
1
1
1
1
1
1
1
1
1
1
1
1
1
1
1
1
1.00014
1.68653
2.34478
2.43329
2.38401
2.29606
1
1
1
1
1
1
1
1
1
1
1
1
1
1
1
1
1
1
0.999999
1.1341
2.09929
2.39024
2.33406
2.26388
1
1
1
1
1
1
1
1
1
1
1
1
1
1
1
1
1
1
1
1.00393
1.67482
2.27074
2.26738
2.21731
1
1
1
1
1
1
1
1
1
1
1
1
1
1
1
1
1
1
1
1.00001
1.14361
2.00916
2.24527
2.18119
1
1
1
1
1
1
1
1
1
1
1
1
1
1
1
1
1
1
1
1
1.00455
1.49206
2.07735
2.15177
1
1
1
1
1
1
1
1
1
1
1
1
1
1
1
1
1
1
1
1
1.00002
1.07086
1.76724
2.10398
1
1
1
1
1
1
1
1
1
1
1
1
1
1
1
1
1
1
1
1
1
1.00134
1.24772
1.86798
1
1
1
1
1
1
1
1
1
1
1
1
1
1
1
1
1
1
1
1
1
1.00001
1.01542
1.41677
1
1
1
1
1
1
1
1
1
1
1
1
1
1
1
1
1
1
1
1
1
1
1.00017
1.05435
1
1
1
1
1
1
1
1
1
1
1
1
1
1
1
1
1
1
1
1
1
1
1
1.00115
1
1
1
1
1
1
1
1
1
1
1
1
1
1
1
1
1
1
1
1
1
1
1
1.00001
1
1
1
1
1
1
1
1
1
1
1
1
1
1
1
1
1
1
1
1
1
1
1
1
1
1
1
1
1
1
1
1
1
1
1
1
1
1
1
1
1
1
1
1
1
1
1
1
1
1
1
1
1
1
1
1
1
1
1
1
1
1
1
1
1
1
1
1
1
1
1
1
1
1
1
1
1
1
1
1
1
1
1
1
1
1
1
1
1
1
1
1
1
1
1
1
1
1
1
1
1
1
1
1
1
1
1
1
1
1
1
1
1
1
1
1
1
1
1
1
1
1
1
1
1
1
1
1
1
1
1
1
1
1
1
1
1
1
1
1
1
1
1
1
1
1
1
1
1
1
1
1
1
1
1
1
1
1
1
1
1
1
1
1
1
1
1
1
1
1
1
1
1
1
1
1
1
1
1
1
1
1
1
1
1
1
1
1
1
1
1
1
1
1
1
1
1
1
1
1
1
1
1
1
1
1
1
1
1
1
1
1
1
1
1
1
1
1
1
1
1
1
1
1
1
1
1
1
1
1
1
1
1
1
1
1
1
1
1
1
1
1
1
1
1
1
1
1
1
1
1
1
1
1
1
1
1
1
1
1
1
1
1
1
1
1
1
1
1
1
1
1
1
1
1
1
1
1
1
1
1
1
1
1
1
1
1
1
1
1
1
1
1
1
1
1
1
1
1
1
1
1
1
1
1
1
1
1
1
1
1
1
1
1
1
1
1
1
1
1
1
1
1
1
1
1
1
1
1
1
1
1
1
1
1
1
1
1
1
1
1
1
1
1
1
1
1
1
1
1
1
1
1
1
1
1
1
1
1
1
1
1
1
1
1
1
1
1
1
1
1
1
1
1
1
1
1
1
1
1
1
1
1
1
1
1
1
1
1
1
1
1
1
1
1
1
1
1
1
1
1
1
1
1
1
1
1
1
1
1
1
1
1
1
1
1
1
1
1
1
1
1
1
1
1
1
1
1
1
1
1
1
1
1
1
1
1
1
1
1
1
1
1
1
1
1
1
1
1
1
1
1
1
1
1
1
1
1
1
1
1
1
1
1
1
1
1
1
1
1
1
1
1
1
1
1
1
1
1
1
1
1
1
1
1
1
1
1
1
1
1
1
1
1
1
1
1
1
1
1
1
1
1
1
1.84425
1.41145
1.23687
1.3045
1.39366
1.46759
1.58807
1.70116
1.72798
1.72942
1.74136
1.75427
1.75492
1.75471
2.07474
2.70531
2.79815
2.80828
2.82016
2.83761
2.86096
2.8787
2.88065
2.87681
2.05706
1.8231
1.60593
1.54196
1.51636
1.49352
1.5023
1.50457
1.51688
1.53828
1.57106
1.61209
1.64661
1.65837
1.95617
2.62786
2.76476
2.78841
2.80709
2.82664
2.85112
2.8714
2.87656
2.86925
2.13196
1.95504
1.80905
1.68755
1.60092
1.52424
1.46608
1.43437
1.41019
1.42361
1.45828
1.49578
1.52686
1.5361
1.69531
2.45398
2.68184
2.73645
2.77131
2.79764
2.8247
2.84681
2.85584
2.86583
2.16861
2.02706
1.8992
1.79483
1.69912
1.61606
1.5434
1.50242
1.45349
1.41992
1.42269
1.4253
1.42903
1.43816
1.47773
2.24592
2.59323
2.66414
2.70821
2.74343
2.77629
2.80824
2.8384
2.89363
2.18404
2.07343
1.96315
1.8665
1.77905
1.6875
1.61999
1.5693
1.52094
1.46641
1.44017
1.41589
1.39834
1.40119
1.40392
1.96473
2.51849
2.6004
2.64556
2.68592
2.7166
2.74246
2.7348
2.69807
2.17665
2.08779
1.99664
1.91048
1.83205
1.75405
1.68705
1.63205
1.5807
1.52967
1.49567
1.46201
1.42281
1.41232
1.40069
1.55707
2.38366
2.5479
2.59366
2.62695
2.64564
2.65423
2.63517
2.55769
2.15581
2.08354
2.01154
1.94462
1.87143
1.79575
1.74103
1.68848
1.63596
1.58469
1.54656
1.50538
1.46091
1.43426
1.40551
1.40972
2.1346
2.50095
2.54931
2.575
2.57904
2.5709
2.5467
2.44674
2.13063
2.07336
2.01284
1.95485
1.89331
1.83086
1.77916
1.72757
1.67137
1.62653
1.59117
1.55254
1.50787
1.47546
1.4474
1.41753
1.68813
2.37086
2.50172
2.52764
2.52317
2.50699
2.471
2.38054
2.10786
2.0561
2.00697
1.95767
1.90235
1.84937
1.80229
1.75514
1.70248
1.66042
1.62312
1.58519
1.54173
1.5152
1.49107
1.4434
1.46121
2.10242
2.41252
2.47679
2.46983
2.44996
2.41249
2.34279
2.08557
2.04047
1.99709
1.95376
1.90315
1.85805
1.81924
1.77447
1.72084
1.68481
1.64949
1.61481
1.57152
1.54664
1.52244
1.48245
1.45452
1.67179
2.23208
2.41965
2.41721
2.40169
2.36767
2.31367
2.05065
2.02319
1.97994
1.9412
1.89987
1.85655
1.81898
1.78024
1.73718
1.70195
1.67008
1.63103
1.59068
1.56982
1.54797
1.51568
1.46991
1.48649
1.96621
2.30074
2.35104
2.33652
2.31156
2.27305
1.88014
1.9987
1.96812
1.9264
1.88598
1.85343
1.82157
1.78332
1.74326
1.71324
1.6829
1.64756
1.60974
1.58742
1.56433
1.5353
1.49962
1.47911
1.62746
2.09347
2.279
2.27101
2.2623
2.23898
1.53147
1.86906
1.95141
1.92229
1.87838
1.84295
1.81391
1.78062
1.74852
1.72195
1.69311
1.65298
1.61979
1.60138
1.58035
1.54828
1.51975
1.49002
1.49942
1.81509
2.13686
2.22375
2.20873
2.18918
1.11405
1.58938
1.84622
1.90898
1.87746
1.83938
1.80854
1.77483
1.74495
1.72083
1.69418
1.66312
1.63213
1.61053
1.58821
1.55527
1.53046
1.512
1.48804
1.55936
1.92711
2.14657
2.14586
2.13005
1.00416
1.17152
1.60887
1.81734
1.86547
1.83836
1.80523
1.76699
1.7425
1.72065
1.6937
1.65946
1.63802
1.61935
1.59489
1.56216
1.53651
1.52603
1.49309
1.49289
1.66261
1.97516
2.09703
2.08214
1.00003
1.00937
1.2117
1.60708
1.78238
1.82755
1.8065
1.76631
1.73567
1.7152
1.69154
1.66116
1.64133
1.62085
1.59741
1.56544
1.544
1.53601
1.51123
1.47838
1.50293
1.76108
1.97725
2.04699
1
1.0001
1.01522
1.23194
1.59275
1.75004
1.79379
1.76993
1.73486
1.71175
1.68622
1.65739
1.64219
1.6226
1.60011
1.57016
1.54947
1.54044
1.52135
1.4817
1.48099
1.55202
1.80817
1.9654
1
1
1.00021
1.01955
1.23827
1.57386
1.71949
1.75845
1.73835
1.71288
1.68322
1.65362
1.63959
1.62181
1.60034
1.57022
1.55693
1.54451
1.52614
1.49395
1.47237
1.47991
1.60023
1.82331
1
1
1
1.00031
1.02204
1.23358
1.55018
1.68659
1.72767
1.7156
1.6883
1.65336
1.63469
1.61983
1.59804
1.57032
1.55959
1.54618
1.52944
1.50203
1.47675
1.47074
1.48621
1.63559
1
1
1
1
1.00037
1.02215
1.21881
1.52175
1.65878
1.70226
1.69319
1.6619
1.6346
1.61839
1.59483
1.5699
1.56094
1.54741
1.52968
1.50428
1.48446
1.47259
1.4632
1.49233
1
1
1
1
1
1.0004
1.0198
1.19883
1.49023
1.62979
1.67789
1.66888
1.64097
1.61987
1.59424
1.56954
1.56104
1.54852
1.531
1.50255
1.49048
1.48037
1.45735
1.45769
1
1
1
1
1
1
1.00035
1.01636
1.17959
1.44625
1.60484
1.65509
1.64859
1.62964
1.60232
1.57125
1.55924
1.54829
1.5309
1.50362
1.49456
1.48683
1.46436
1.44176
1
1
1
1
1
1
1
1.00026
1.01379
1.14767
1.40048
1.5825
1.63663
1.63043
1.61456
1.58337
1.56125
1.54935
1.53053
1.505
1.49756
1.48915
1.47317
1.44023
1
1
1
1
1
1
1
1
1.0002
1.00989
1.10931
1.37053
1.55674
1.60942
1.60925
1.59763
1.57111
1.55404
1.53321
1.50932
1.50168
1.49249
1.47901
1.4498
1
1
1
1
1
1
1
1
1
1.00013
1.00602
1.08759
1.32716
1.5224
1.57746
1.59256
1.58465
1.56658
1.54343
1.51649
1.50588
1.49569
1.48128
1.45827
1
1
1
1
1
1
1
1
1
1
1.00007
1.00403
1.06549
1.27412
1.46614
1.55165
1.58057
1.57748
1.56157
1.53206
1.51317
1.50126
1.48093
1.45973
1
1
1
1
1
1
1
1
1
1
1
1.00004
1.00255
1.04065
1.21743
1.4113
1.53057
1.57146
1.57
1.55212
1.52656
1.51061
1.48493
1.46629
1
1
1
1
1
1
1
1
1
1
1
1
1.00002
1.00114
1.0246
1.15924
1.35631
1.52436
1.55989
1.55179
1.53889
1.52552
1.49734
1.47646
1
1
1
1
1
1
1
1
1
1
1
1
1
1.00001
1.00052
1.0139
1.10318
1.33014
1.49774
1.52588
1.53324
1.53123
1.51325
1.48964
1
1
1
1
1
1
1
1
1
1
1
1
1
1
1
1.00024
1.00671
1.07539
1.29227
1.43927
1.49606
1.52439
1.52214
1.5077
1
1
1
1
1
1
1
1
1
1
1
1
1
1
1
1
1.0001
1.00372
1.05547
1.22754
1.36517
1.47782
1.52064
1.51843
1
1
1
1
1
1
1
1
1
1
1
1
1
1
1
1
1
1.00004
1.0021
1.03212
1.12887
1.30419
1.47409
1.50481
1
1
1
1
1
1
1
1
1
1
1
1
1
1
1
1
1
1
1.00002
1.00073
1.01021
1.07549
1.28125
1.42255
1
1
1
1
1
1
1
1
1
1
1
1
1
1
1
1
1
1
1
1
1.00018
1.00413
1.05543
1.23048
1
1
1
1
1
1
1
1
1
1
1
1
1
1
1
1
1
1
1
1
1
1.00006
1.00247
1.04048
1
1
1
1
1
1
1
1
1
1
1
1
1
1
1
1
1
1
1
1
1
1
1.00003
1.00135
2.00645
1.64016
1.62015
1.63999
1.75597
1.86359
1.94435
1.98906
2.01366
2.03184
2.04682
2.0569
2.05823
2.05513
2.04296
2.01829
1.99915
1.99301
1.99346
2.0006
2.00207
1.99737
1.98631
1.97345
1.96597
1.96195
1.96254
1.96385
1.95961
1.95172
1.94128
1.93534
1.9344
2.44926
2.8868
2.90331
2.90565
2.91521
2.93078
2.93844
2.93643
2.92935
2.92145
2.91555
2.91195
2.90811
2.9011
2.89138
2.88145
2.8736
2.86957
2.86955
2.8694
2.8629
2.8438
2.82015
2.79614
2.7748
2.75693
2.74425
2.7358
2.72832
2.72177
2.71854
2.71919
2.72212
2.71903
2.69651
2.6641
2.62772
2.59563
2.57562
2.19427
1.96968
1.87094
1.78745
1.78797
1.77267
1.77138
1.80172
1.85345
1.90111
1.93515
1.96264
1.97696
1.97889
1.97526
1.96397
1.95867
1.95792
1.9607
1.9678
1.96937
1.96599
1.9579
1.94848
1.94137
1.93777
1.93756
1.93838
1.93696
1.933
1.92654
1.92126
1.91795
2.39993
2.8621
2.89443
2.89744
2.912
2.92873
2.93177
2.92705
2.91902
2.91212
2.90865
2.90757
2.90498
2.89697
2.88424
2.87065
2.8584
2.84911
2.8435
2.83836
2.82801
2.81526
2.80345
2.79259
2.78238
2.76924
2.75052
2.72987
2.71001
2.69143
2.67624
2.66723
2.66423
2.66169
2.65904
2.65031
2.63258
2.61168
2.5863
2.24294
2.07392
1.95696
1.85182
1.76599
1.72414
1.67533
1.68505
1.72597
1.76776
1.79774
1.82286
1.84515
1.86523
1.88056
1.88465
1.88553
1.88981
1.89392
1.8932
1.89181
1.88786
1.88118
1.87905
1.87913
1.88083
1.88298
1.88238
1.8815
1.87921
1.8748
1.87259
1.87045
2.27525
2.79573
2.85723
2.86822
2.88607
2.89945
2.89992
2.89342
2.88441
2.87863
2.87785
2.8805
2.88139
2.87593
2.86332
2.84828
2.83326
2.81821
2.80275
2.78451
2.76527
2.74928
2.73917
2.73461
2.73514
2.73899
2.73928
2.72289
2.69431
2.65851
2.62399
2.59561
2.57382
2.56571
2.56973
2.57794
2.57895
2.57308
2.56285
2.2494
2.12677
2.01922
1.92142
1.82516
1.76933
1.71187
1.66968
1.67004
1.66696
1.67
1.68963
1.71743
1.7437
1.77167
1.7925
1.80826
1.8221
1.82362
1.81916
1.81071
1.80157
1.79937
1.80003
1.80243
1.80861
1.81246
1.81269
1.81185
1.80866
1.8059
1.80557
1.80557
2.09039
2.68158
2.797
2.8206
2.84345
2.85284
2.8485
2.83657
2.82558
2.81859
2.81621
2.81685
2.816
2.80865
2.79449
2.78013
2.77054
2.7662
2.75698
2.73598
2.7077
2.67828
2.6503
2.62997
2.62464
2.62908
2.63814
2.63796
2.62038
2.5944
2.56093
2.52602
2.49663
2.47606
2.46936
2.4713
2.47506
2.47808
2.47577
2.25042
2.159
2.06719
1.97382
1.89311
1.82503
1.76149
1.6965
1.66361
1.63783
1.6214
1.62714
1.6406
1.66032
1.68493
1.70981
1.73239
1.75278
1.76699
1.76698
1.76044
1.74985
1.74739
1.74706
1.74806
1.75107
1.75258
1.7518
1.74853
1.74688
1.7476
1.749
1.74908
1.87846
2.53482
2.74065
2.77694
2.79438
2.79571
2.78506
2.76851
2.75717
2.75095
2.74581
2.74004
2.73036
2.71335
2.69186
2.67299
2.66177
2.66148
2.66588
2.66046
2.63975
2.60812
2.5715
2.53599
2.50736
2.49177
2.48999
2.49282
2.4923
2.47909
2.45881
2.43454
2.41009
2.38911
2.37382
2.36437
2.35991
2.35691
2.34909
2.24333
2.16873
2.0935
2.01086
1.93771
1.874
1.81063
1.74605
1.70245
1.66444
1.62986
1.61902
1.61835
1.61262
1.61773
1.64139
1.67135
1.69374
1.71022
1.71897
1.7178
1.7181
1.72129
1.72277
1.72058
1.71692
1.71234
1.70598
1.70347
1.70371
1.70596
1.71053
1.711
1.72564
2.40163
2.71926
2.75942
2.75441
2.74662
2.72641
2.70592
2.69288
2.68609
2.67982
2.66711
2.64687
2.61879
2.5863
2.55733
2.53802
2.53204
2.53541
2.54094
2.53233
2.51051
2.47969
2.44415
2.40934
2.38071
2.36289
2.35894
2.36048
2.36078
2.35294
2.33851
2.32063
2.30011
2.27888
2.25956
2.24383
2.23231
2.22128
2.22378
2.16649
2.10314
2.03328
1.96772
1.90884
1.84767
1.78766
1.74507
1.70385
1.6607
1.61789
1.60734
1.59608
1.59207
1.59714
1.61249
1.62907
1.64681
1.66579
1.67456
1.68211
1.69321
1.70101
1.70044
1.69545
1.68575
1.67784
1.67674
1.67688
1.67907
1.68242
1.6822
1.68005
2.29926
2.72627
2.75022
2.72142
2.69964
2.66706
2.64072
2.62298
2.61231
2.60601
2.59202
2.5667
2.53409
2.49612
2.45913
2.43018
2.41341
2.40973
2.41234
2.4131
2.40227
2.38218
2.35546
2.32466
2.29495
2.27121
2.25631
2.25241
2.25306
2.25319
2.24665
2.23393
2.21756
2.19715
2.17316
2.14971
2.13377
2.11935
2.20218
2.15566
2.10012
2.03874
1.98037
1.92718
1.87335
1.8202
1.78153
1.74246
1.69984
1.6516
1.62879
1.60706
1.58898
1.57824
1.57405
1.57383
1.57867
1.59496
1.62283
1.64228
1.65537
1.66807
1.67028
1.66947
1.66343
1.66023
1.65998
1.65945
1.65932
1.65773
1.65475
1.64877
2.19978
2.73946
2.72773
2.67619
2.64415
2.60345
2.5695
2.54278
2.52407
2.5135
2.50109
2.47811
2.44844
2.41441
2.37903
2.34727
2.32282
2.30853
2.30354
2.30168
2.2977
2.28788
2.27171
2.25022
2.22556
2.20133
2.18185
2.16902
2.16229
2.15973
2.15643
2.14877
2.13794
2.12421
2.10619
2.08405
2.06424
2.04807
2.16042
2.12385
2.07959
2.02936
1.98006
1.93488
1.88696
1.84052
1.80498
1.76955
1.72841
1.68362
1.65398
1.62302
1.59112
1.56225
1.55096
1.54873
1.55145
1.55367
1.56644
1.58964
1.60689
1.62136
1.6284
1.63309
1.63739
1.64324
1.64475
1.64354
1.63984
1.63289
1.62448
1.62449
2.06753
2.70306
2.6796
2.60797
2.56697
2.52634
2.48985
2.45611
2.42898
2.41019
2.39443
2.37568
2.35276
2.32829
2.30212
2.27432
2.24903
2.22926
2.21628
2.20839
2.20254
2.19709
2.1892
2.17577
2.15885
2.1393
2.11887
2.10107
2.0883
2.07932
2.07321
2.06926
2.06393
2.05576
2.04555
2.03172
2.01427
1.9934
2.10831
2.08105
2.0483
2.01183
1.97285
1.93355
1.89339
1.85245
1.81718
1.78353
1.74506
1.703
1.67388
1.64366
1.60903
1.57001
1.55458
1.54981
1.53779
1.53182
1.53273
1.53388
1.53895
1.54977
1.56817
1.58548
1.60026
1.61325
1.6199
1.61928
1.61575
1.60512
1.60065
1.61622
1.93206
2.55938
2.62695
2.5526
2.48351
2.44076
2.40401
2.36777
2.33788
2.31423
2.29524
2.27683
2.2574
2.23964
2.22267
2.2019
2.18069
2.15962
2.14209
2.12908
2.11922
2.11163
2.10672
2.10048
2.08861
2.07475
2.0583
2.03921
2.02154
2.00983
2.00158
1.99636
1.99486
1.99244
1.98585
1.97756
1.96739
1.94523
2.06146
2.03954
2.01351
1.98568
1.95504
1.92193
1.88707
1.85172
1.81756
1.7852
1.75007
1.71024
1.68287
1.65439
1.62248
1.58289
1.56272
1.55189
1.53264
1.51635
1.50645
1.50526
1.5033
1.50212
1.5089
1.52822
1.5504
1.56595
1.57476
1.58203
1.5809
1.57602
1.59139
1.71156
1.92675
2.29326
2.48097
2.46975
2.42008
2.37705
2.32889
2.28902
2.25719
2.2285
2.20587
2.18664
2.16843
2.15364
2.14213
2.12809
2.11175
2.09383
2.07364
2.05632
2.04331
2.03301
2.02577
2.02316
2.01856
2.00791
1.99566
1.98035
1.96145
1.94558
1.93655
1.93036
1.92791
1.92881
1.92687
1.92026
1.91355
1.89628
2.0299
2.00519
1.97977
1.95502
1.92902
1.9001
1.87124
1.84145
1.81038
1.78289
1.75117
1.71231
1.68345
1.65978
1.63389
1.59814
1.57597
1.56326
1.54236
1.51962
1.49757
1.49121
1.48263
1.47236
1.47241
1.47894
1.49243
1.50771
1.52096
1.532
1.53531
1.5537
1.66409
1.90731
1.99736
2.06102
2.21034
2.30196
2.31648
2.30581
2.27829
2.23904
2.19782
2.15944
2.1314
2.10797
2.0858
2.06938
2.06014
2.05286
2.04332
2.02919
2.01137
1.99036
1.97288
1.96063
1.95131
1.94687
1.94704
1.9427
1.93288
1.9214
1.90585
1.88763
1.87645
1.8704
1.86625
1.86607
1.86652
1.86132
1.85611
1.84467
1.99253
1.97495
1.94905
1.92611
1.90279
1.87635
1.8506
1.82515
1.79796
1.77186
1.74368
1.71111
1.6837
1.66204
1.63669
1.60521
1.58391
1.57104
1.54997
1.52302
1.49214
1.47782
1.46764
1.45262
1.44562
1.44826
1.45693
1.46337
1.46601
1.47225
1.49794
1.59787
1.82793
1.97349
2.01285
1.99952
2.00641
2.06481
2.1363
2.1719
2.17653
2.17301
2.14891
2.11548
2.08066
2.04418
2.01741
1.99791
1.98503
1.97869
1.97128
1.96079
1.94786
1.92947
1.90877
1.89502
1.88549
1.87946
1.87916
1.87956
1.87386
1.86477
1.85319
1.83615
1.82047
1.81364
1.80942
1.80768
1.80863
1.80567
1.80092
1.79317
1.9451
1.94132
1.92017
1.89865
1.87666
1.85357
1.83138
1.80765
1.78053
1.75662
1.73351
1.70369
1.68021
1.65938
1.63806
1.60724
1.58734
1.5754
1.55387
1.52704
1.49577
1.48097
1.47024
1.45297
1.43712
1.43362
1.43156
1.42777
1.43063
1.4556
1.55283
1.74392
1.91594
1.95208
1.95734
1.94608
1.92266
1.90286
1.9274
1.97478
2.018
2.04896
2.0495
2.04473
2.02606
1.99576
1.97171
1.9503
1.93038
1.91672
1.90538
1.8955
1.88533
1.87132
1.85074
1.83303
1.82435
1.81998
1.81999
1.82256
1.82
1.81233
1.80277
1.78948
1.77175
1.761
1.75672
1.75436
1.75524
1.75435
1.75035
1.74463
1.82445
1.90784
1.89776
1.8753
1.85236
1.82964
1.81054
1.78839
1.76342
1.74065
1.72045
1.69569
1.6722
1.6548
1.63535
1.6064
1.58586
1.57345
1.55488
1.52944
1.49783
1.48425
1.47361
1.45657
1.43586
1.42254
1.41183
1.40855
1.42085
1.52421
1.70739
1.84445
1.88489
1.87623
1.87166
1.86522
1.85174
1.82713
1.80879
1.81477
1.83568
1.87847
1.9139
1.93041
1.92904
1.92361
1.91467
1.90215
1.88548
1.8737
1.86088
1.84825
1.83436
1.81969
1.80153
1.77987
1.76812
1.76413
1.76373
1.76662
1.7683
1.76414
1.75612
1.74595
1.73027
1.71534
1.71018
1.70784
1.70852
1.70803
1.70461
1.69948
1.66029
1.80868
1.87052
1.85885
1.83529
1.80966
1.79149
1.76995
1.74483
1.72651
1.70861
1.68411
1.66443
1.64822
1.62917
1.60292
1.58243
1.57067
1.55184
1.52801
1.49982
1.48746
1.47729
1.46092
1.43886
1.42345
1.41653
1.43315
1.50587
1.69175
1.79123
1.82896
1.82943
1.82107
1.81083
1.79907
1.78474
1.76119
1.73246
1.71757
1.71582
1.72321
1.74605
1.77834
1.80343
1.82227
1.82396
1.81934
1.81862
1.81778
1.81625
1.80823
1.79762
1.78405
1.76553
1.74208
1.72269
1.71529
1.71296
1.71369
1.71642
1.71483
1.70941
1.70289
1.69219
1.67695
1.66956
1.66741
1.66766
1.66612
1.66345
1.65847
1.50785
1.67023
1.78576
1.83745
1.82638
1.79712
1.77489
1.75554
1.7326
1.7124
1.69688
1.67523
1.65456
1.64003
1.62433
1.59702
1.57667
1.56429
1.54866
1.52628
1.49858
1.4884
1.4783
1.46151
1.4416
1.43376
1.45746
1.55825
1.68223
1.79633
1.80101
1.80107
1.79801
1.78695
1.77127
1.74943
1.72381
1.6989
1.67655
1.65505
1.64136
1.63939
1.62763
1.62978
1.64368
1.66748
1.69439
1.71416
1.73419
1.7436
1.74394
1.74786
1.74776
1.74422
1.73322
1.71418
1.69229
1.67735
1.67225
1.6699
1.67022
1.66789
1.66435
1.66036
1.65439
1.64374
1.63285
1.63052
1.6308
1.62914
1.62643
1.62086
1.44759
1.52048
1.67139
1.76532
1.80544
1.79079
1.76773
1.74248
1.71783
1.70364
1.68745
1.66693
1.64533
1.63263
1.61603
1.59264
1.57111
1.5585
1.54374
1.52289
1.49755
1.48678
1.47721
1.45913
1.46011
1.48734
1.61124
1.73684
1.80152
1.80574
1.7916
1.78358
1.77943
1.76958
1.74942
1.71745
1.68516
1.6574
1.63433
1.61808
1.60164
1.58752
1.57758
1.56238
1.54948
1.5397
1.54626
1.56407
1.59105
1.62191
1.64471
1.66644
1.68162
1.68255
1.68118
1.67616
1.66774
1.65259
1.64003
1.63537
1.63035
1.62661
1.62497
1.62131
1.61713
1.61121
1.60143
1.59533
1.59503
1.59493
1.59361
1.58896
1.43928
1.4502
1.53095
1.66616
1.73945
1.76906
1.7587
1.73839
1.71022
1.69259
1.67768
1.65649
1.63867
1.62644
1.61071
1.58532
1.56638
1.55548
1.54001
1.52026
1.49369
1.48523
1.47728
1.48417
1.53466
1.64654
1.79089
1.81854
1.81229
1.80106
1.78489
1.78018
1.77095
1.75343
1.72678
1.69382
1.66056
1.63222
1.60711
1.58573
1.56886
1.5533
1.54
1.52252
1.50877
1.49932
1.48583
1.46959
1.46735
1.47616
1.49926
1.52841
1.55916
1.58721
1.61235
1.62252
1.62205
1.61889
1.61029
1.60183
1.59698
1.5949
1.59058
1.58667
1.58361
1.57955
1.57306
1.56423
1.56054
1.56167
1.56297
1.56035
1.437
1.43529
1.44741
1.53424
1.65297
1.71197
1.74033
1.73113
1.70561
1.68597
1.67083
1.65088
1.63135
1.61869
1.60359
1.58288
1.56403
1.5509
1.53714
1.5162
1.49559
1.49086
1.5043
1.58999
1.70895
1.81125
1.8419
1.82297
1.81337
1.8085
1.80124
1.79106
1.77175
1.74524
1.71302
1.67892
1.64693
1.61818
1.59251
1.56911
1.54893
1.53133
1.51424
1.496
1.4804
1.46989
1.45921
1.44737
1.43023
1.41233
1.4028
1.40605
1.41953
1.44439
1.48211
1.52112
1.54825
1.56524
1.566
1.56406
1.56051
1.55818
1.55972
1.56133
1.55664
1.55213
1.54765
1.5402
1.52897
1.52443
1.52471
1.52711
1.44412
1.42908
1.42799
1.44568
1.53629
1.63709
1.69395
1.71504
1.70138
1.68222
1.66549
1.64263
1.62673
1.61407
1.597
1.57554
1.55839
1.54808
1.53397
1.51397
1.51407
1.54471
1.6418
1.77749
1.83434
1.83148
1.82615
1.81174
1.81217
1.81236
1.80508
1.78448
1.75748
1.72717
1.69622
1.66709
1.64042
1.61455
1.58831
1.56172
1.53668
1.51566
1.49734
1.48075
1.46596
1.45371
1.44215
1.4297
1.41563
1.3968
1.37578
1.36522
1.35874
1.35873
1.36525
1.3872
1.42087
1.44693
1.46558
1.48685
1.49801
1.50823
1.5229
1.52994
1.53313
1.53301
1.53059
1.52268
1.50882
1.49645
1.49459
1.49596
1.45174
1.43754
1.42234
1.42338
1.4498
1.53367
1.6248
1.67534
1.68625
1.67652
1.662
1.63807
1.6195
1.60576
1.58963
1.5702
1.55306
1.54413
1.53535
1.54656
1.61576
1.7235
1.83093
1.8626
1.85364
1.83844
1.82669
1.83066
1.82811
1.81823
1.79739
1.76975
1.7396
1.70966
1.68155
1.65573
1.63139
1.60791
1.58421
1.55867
1.53267
1.50921
1.48903
1.47278
1.45962
1.44755
1.43513
1.42134
1.40558
1.38483
1.36297
1.35046
1.34226
1.33551
1.32998
1.32674
1.32741
1.33132
1.33794
1.35081
1.37915
1.40728
1.4385
1.46889
1.49404
1.50027
1.49943
1.49878
1.49329
1.47937
1.47117
1.46954
1.4588
1.44764
1.42644
1.41568
1.42022
1.45103
1.52838
1.61301
1.65039
1.66187
1.65545
1.63396
1.61308
1.59634
1.58134
1.56274
1.55102
1.55416
1.58756
1.69969
1.82035
1.87028
1.86506
1.84828
1.82981
1.82879
1.8358
1.84442
1.83854
1.817
1.78484
1.75142
1.72133
1.69481
1.67095
1.64862
1.62645
1.60367
1.5799
1.55362
1.52528
1.50131
1.48385
1.47036
1.45896
1.44746
1.43436
1.4185
1.39902
1.37506
1.35423
1.34222
1.33361
1.32525
1.31801
1.31242
1.30479
1.29622
1.28513
1.27249
1.27421
1.28582
1.314
1.35286
1.40636
1.43685
1.44497
1.45373
1.45945
1.45784
1.44908
1.44377
1.46579
1.4557
1.44077
1.41662
1.41323
1.4179
1.44465
1.52597
1.59562
1.63121
1.64303
1.63015
1.60942
1.5904
1.57257
1.56651
1.58218
1.65527
1.76776
1.89188
1.91523
1.89697
1.86554
1.84119
1.82456
1.83011
1.84932
1.8484
1.83271
1.80416
1.7693
1.73583
1.70739
1.68374
1.66277
1.64282
1.62268
1.6013
1.57845
1.55287
1.5232
1.49867
1.48254
1.46853
1.45509
1.44289
1.43104
1.4177
1.3996
1.37409
1.35082
1.33821
1.3299
1.32236
1.31471
1.30647
1.29657
1.28476
1.26978
1.25225
1.24221
1.23964
1.24134
1.24972
1.27202
1.3099
1.34821
1.36985
1.38753
1.40659
1.4094
1.41381
1.47506
1.46697
1.45199
1.42551
1.41777
1.41117
1.41289
1.4433
1.52297
1.58391
1.62207
1.62108
1.60968
1.59419
1.59799
1.645
1.75927
1.85938
1.90629
1.906
1.89147
1.86657
1.84978
1.84482
1.84995
1.86428
1.8636
1.84811
1.82026
1.78594
1.7518
1.72195
1.69705
1.67601
1.65668
1.63762
1.6183
1.59751
1.57412
1.54836
1.52056
1.49798
1.4832
1.47022
1.4573
1.44438
1.43083
1.41471
1.39365
1.36937
1.34997
1.33797
1.32904
1.32136
1.31437
1.30585
1.29486
1.28172
1.26512
1.24605
1.23348
1.2272
1.22377
1.22163
1.22179
1.22527
1.23526
1.25338
1.27046
1.29596
1.32192
1.36237
1.49269
1.48263
1.46042
1.44019
1.42957
1.41394
1.40332
1.40858
1.45017
1.51614
1.57754
1.60006
1.61248
1.65564
1.75733
1.86622
1.9489
1.95643
1.93894
1.89882
1.86264
1.84314
1.84616
1.85994
1.88331
1.88418
1.87081
1.84521
1.81145
1.77498
1.74121
1.71314
1.68984
1.66934
1.65013
1.631
1.61178
1.59174
1.5689
1.54299
1.51716
1.49651
1.48218
1.46994
1.45769
1.44501
1.43176
1.41641
1.39585
1.37018
1.34856
1.33532
1.32541
1.31709
1.31
1.30326
1.29587
1.28486
1.26707
1.24472
1.22909
1.22177
1.21779
1.21488
1.21278
1.20959
1.20548
1.202
1.19613
1.19736
1.20566
1.25704
1.50317
1.49293
1.47108
1.45165
1.43988
1.4229
1.40798
1.40296
1.40872
1.44353
1.51102
1.58456
1.71697
1.87009
1.96174
1.96827
1.95972
1.93993
1.91758
1.89286
1.86599
1.8645
1.87324
1.88988
1.8995
1.88799
1.86695
1.83909
1.80616
1.77059
1.73666
1.70785
1.68421
1.6636
1.6445
1.62566
1.6067
1.58694
1.56433
1.53911
1.51558
1.49685
1.48267
1.47033
1.45793
1.44449
1.42968
1.41309
1.39384
1.37283
1.35535
1.34324
1.33327
1.32474
1.31654
1.30686
1.29451
1.27953
1.26297
1.24567
1.22703
1.21704
1.21372
1.21065
1.20758
1.2036
1.19863
1.19139
1.18091
1.16573
1.15437
1.16458
1.50199
1.5005
1.48756
1.4642
1.44622
1.43232
1.41569
1.40303
1.40739
1.43087
1.53514
1.73543
1.91015
2.0178
2.04459
2.01101
1.96035
1.9172
1.90176
1.89667
1.89783
1.90963
1.9146
1.91537
1.90381
1.88254
1.85689
1.82896
1.79849
1.76532
1.73227
1.70328
1.6795
1.65904
1.6402
1.6218
1.60309
1.58307
1.55955
1.53339
1.51041
1.49232
1.47833
1.46646
1.45533
1.44385
1.43026
1.4131
1.39247
1.37039
1.35143
1.33791
1.32805
1.3206
1.31377
1.3056
1.2958
1.28448
1.26972
1.24825
1.22748
1.2178
1.21272
1.2083
1.20351
1.19819
1.19283
1.18615
1.17491
1.15985
1.14692
1.13654
1.47485
1.49589
1.49301
1.48198
1.46157
1.45063
1.43336
1.42768
1.47
1.58174
1.73164
1.85276
1.92583
1.98718
2.01141
1.99995
1.96442
1.92247
1.91625
1.92701
1.94879
1.95332
1.94231
1.9231
1.89786
1.87139
1.84481
1.81831
1.79045
1.7601
1.72926
1.70271
1.68104
1.66151
1.64284
1.62464
1.60602
1.58642
1.56582
1.54376
1.52248
1.50412
1.48658
1.47149
1.45881
1.44752
1.43596
1.42061
1.39858
1.37266
1.35103
1.3367
1.32722
1.31992
1.31315
1.30624
1.29895
1.2901
1.27564
1.25259
1.23172
1.22058
1.21387
1.20841
1.20253
1.1957
1.18924
1.18404
1.17714
1.16451
1.14764
1.13002
1.37024
1.4545
1.4796
1.47396
1.47247
1.47781
1.50301
1.57063
1.70115
1.80341
1.84628
1.85582
1.87374
1.89799
1.92241
1.93869
1.93774
1.93487
1.94748
1.97204
1.98659
1.97586
1.9498
1.91838
1.88756
1.85893
1.83147
1.80433
1.77644
1.74799
1.72076
1.69617
1.67419
1.65435
1.63594
1.61819
1.60038
1.58161
1.5597
1.53391
1.50795
1.49039
1.47847
1.46766
1.45667
1.44569
1.43473
1.42089
1.39962
1.37213
1.35053
1.3378
1.32944
1.32264
1.31618
1.30978
1.3026
1.29257
1.27587
1.25159
1.23115
1.22097
1.21462
1.20903
1.20314
1.1971
1.19135
1.18495
1.17534
1.16084
1.14417
1.12706
1.1421
1.29686
1.41843
1.46791
1.54171
1.61465
1.69428
1.77276
1.80963
1.84246
1.83769
1.82135
1.80234
1.8081
1.83022
1.87146
1.91255
1.95873
2.00373
2.00803
1.99911
1.97378
1.9434
1.91276
1.88238
1.8532
1.8254
1.79846
1.77115
1.74348
1.71628
1.69085
1.66897
1.65008
1.6328
1.61613
1.599
1.5798
1.55698
1.53113
1.50287
1.48285
1.47753
1.4718
1.46267
1.45206
1.44079
1.42626
1.40303
1.37896
1.3615
1.35047
1.34286
1.33639
1.32991
1.32279
1.31429
1.30255
1.28438
1.26005
1.2408
1.23152
1.2256
1.22006
1.21442
1.20877
1.2023
1.19393
1.1827
1.16607
1.14792
1.13049
1.01322
1.08685
1.28076
1.50822
1.67753
1.82737
1.94314
1.9885
1.96334
1.91224
1.84178
1.79627
1.76287
1.75393
1.76619
1.81904
1.91107
1.98867
2.04679
2.04219
2.01595
1.97708
1.94272
1.91255
1.88294
1.85394
1.82645
1.79928
1.77073
1.74139
1.71307
1.68787
1.66661
1.64764
1.62995
1.61359
1.5976
1.5799
1.55845
1.53239
1.50674
1.48813
1.47272
1.45996
1.44902
1.43743
1.42447
1.41082
1.39697
1.37704
1.35427
1.34138
1.33352
1.32654
1.31944
1.31151
1.30205
1.28947
1.27115
1.24777
1.22927
1.22021
1.21495
1.20992
1.20457
1.19912
1.19254
1.18367
1.17166
1.15242
1.13301
1.11733
)
;

boundaryField
{
    inlet
    {
        type            fixedValue;
        value           uniform 1;
    }
    outlet
    {
        type            inletOutlet;
        inletValue      uniform 1;
        value           nonuniform List<scalar> 
32
(
2.57512
2.58378
2.56267
2.47631
2.34897
2.22136
2.11973
2.04868
1.9933
1.9432
1.89403
1.84339
1.79293
1.74498
1.69999
1.65886
1.62098
1.58899
1.56036
1.52852
1.49714
1.47019
1.4437
1.41344
1.36197
1.2566
1.1645
1.13672
1.12977
1.12701
1.13066
1.11786
)
;
    }
    bottom
    {
        type            zeroGradient;
    }
    top
    {
        type            zeroGradient;
    }
    obstacle
    {
        type            zeroGradient;
    }
    defaultFaces
    {
        type            empty;
    }
}


// ************************************************************************* //
