/*--------------------------------*- C++ -*----------------------------------*\
  =========                 |
  \\      /  F ield         | OpenFOAM: The Open Source CFD Toolbox
   \\    /   O peration     | Website:  https://openfoam.org
    \\  /    A nd           | Version:  7
     \\/     M anipulation  |
\*---------------------------------------------------------------------------*/
FoamFile
{
    version     2.0;
    format      ascii;
    class       volScalarField;
    location    "0.3";
    object      p;
}
// * * * * * * * * * * * * * * * * * * * * * * * * * * * * * * * * * * * * * //

dimensions      [1 -1 -2 0 0 0 0];

internalField   nonuniform List<scalar> 
4128
(
0.194235
0.271956
0.36757
0.454552
0.536004
0.612134
0.678048
0.700041
0.71445
0.7412
0.794675
0.83476
0.861106
0.864065
0.885775
0.898843
0.906187
0.906437
0.903013
0.907595
0.906581
0.90067
0.908571
0.926171
0.943006
0.950981
0.961292
0.967187
0.961365
0.954704
0.946422
0.944695
0.947181
0.956954
0.974224
0.982768
0.983004
0.981976
0.976597
0.971111
0.970738
0.970497
0.971506
0.97394
0.973415
0.971295
0.966365
0.960826
0.96028
0.961354
0.964961
0.97029
0.968622
0.96162
0.947804
0.929915
0.918013
0.912777
0.914053
3.18558
6.90789
7.3303
7.39728
7.43958
7.4335
7.38617
7.2665
7.08669
6.92976
6.92657
6.80946
6.60493
6.47321
6.41191
6.39043
6.35065
6.28547
6.21577
6.16292
6.12925
6.10567
6.07649
6.0398
6.00491
5.98938
5.98826
6.00842
6.02763
0.21829
0.239756
0.258149
0.282848
0.306292
0.346624
0.42158
0.500488
0.560184
0.602543
0.651792
0.709277
0.76224
0.800924
0.839456
0.859963
0.872103
0.881575
0.893982
0.902858
0.903633
0.905143
0.907755
0.918323
0.929405
0.934868
0.940791
0.949429
0.94987
0.950697
0.951889
0.952535
0.955484
0.964986
0.976392
0.97895
0.978119
0.975842
0.971183
0.966666
0.966678
0.967965
0.97107
0.975597
0.978002
0.977778
0.975719
0.969285
0.958306
0.950959
0.950677
0.952789
0.957752
0.957133
0.953121
0.946833
0.935012
0.92308
0.914302
2.89054
6.69928
7.32829
7.45059
7.48575
7.4433
7.37226
7.25602
7.10325
6.95066
6.91166
6.79475
6.60228
6.46945
6.39656
6.37242
6.33867
6.28577
6.22449
6.17204
6.13442
6.10612
6.07596
6.04181
6.0094
5.99219
5.9867
6.00037
6.01117
0.329332
0.3235
0.306793
0.310159
0.319645
0.3375
0.371431
0.412943
0.454444
0.494861
0.5356
0.584212
0.640574
0.710651
0.771703
0.810993
0.843726
0.861668
0.880954
0.902252
0.923396
0.92623
0.924061
0.936819
0.94982
0.951709
0.947059
0.942859
0.941401
0.94181
0.945701
0.949726
0.957641
0.971733
0.980277
0.98214
0.982134
0.978512
0.971874
0.964789
0.961125
0.961247
0.963067
0.966556
0.970249
0.974327
0.97806
0.979249
0.976826
0.967959
0.953857
0.942557
0.93906
0.938904
0.942506
0.945582
0.943669
0.939907
0.927606
2.30676
6.33436
7.2974
7.4768
7.53843
7.4583
7.34445
7.22582
7.1001
6.97083
6.88994
6.77001
6.60239
6.4738
6.389
6.34979
6.31835
6.27963
6.23048
6.18088
6.14028
6.10758
6.07745
6.04713
6.0179
5.99736
5.98461
5.98637
5.98553
0.534359
0.505206
0.464253
0.436253
0.43206
0.420047
0.396919
0.39795
0.408177
0.422109
0.438692
0.461319
0.502511
0.568452
0.646659
0.704119
0.742517
0.768233
0.788553
0.819458
0.87119
0.891706
0.896611
0.919846
0.952048
0.961938
0.958826
0.949453
0.939339
0.937569
0.939054
0.943142
0.953167
0.963992
0.970243
0.974267
0.976674
0.975703
0.97197
0.968896
0.965329
0.96201
0.96019
0.96041
0.96211
0.965536
0.970554
0.973601
0.973955
0.971431
0.962929
0.948727
0.940777
0.939484
0.939478
0.941424
0.94152
0.938956
0.930838
1.54141
5.60395
7.29602
7.50096
7.56401
7.47075
7.33575
7.21906
7.10586
6.99087
6.8749
6.75876
6.62092
6.49294
6.39021
6.33525
6.30476
6.27409
6.23026
6.18427
6.1425
6.10819
6.08009
6.05485
6.03005
6.00634
5.9843
5.97117
5.95781
0.79027
0.723611
0.660842
0.580351
0.548234
0.533467
0.494997
0.472918
0.473487
0.464976
0.459035
0.470097
0.475976
0.478962
0.493472
0.527494
0.568783
0.616568
0.665093
0.721031
0.792207
0.834619
0.846181
0.862439
0.891331
0.916252
0.920416
0.918375
0.927726
0.944743
0.954154
0.964368
0.968447
0.969881
0.969282
0.96527
0.960322
0.961276
0.965081
0.96955
0.970905
0.968658
0.962756
0.95794
0.957183
0.958383
0.960985
0.965373
0.967493
0.967695
0.965087
0.954882
0.943242
0.940594
0.939706
0.94006
0.940218
0.936505
0.92994
0.978491
4.46705
7.35227
7.568
7.53087
7.45171
7.32262
7.23055
7.11415
6.99572
6.85962
6.73732
6.62814
6.50549
6.39909
6.32712
6.29855
6.26828
6.23181
6.18539
6.14167
6.10579
6.08053
6.06146
6.04221
6.01632
5.98516
5.95864
5.93482
1.05791
0.958088
0.88822
0.798914
0.726231
0.694892
0.641625
0.589388
0.576582
0.560473
0.526425
0.518628
0.512606
0.496886
0.494207
0.496579
0.501213
0.507661
0.524773
0.564084
0.62361
0.693445
0.741967
0.769507
0.799884
0.851169
0.879955
0.887022
0.899929
0.923833
0.946505
0.950079
0.95296
0.955834
0.956744
0.955714
0.9539
0.955976
0.963628
0.96864
0.969923
0.969637
0.964082
0.95353
0.949047
0.949896
0.953866
0.961512
0.967722
0.96868
0.966286
0.957381
0.943291
0.936531
0.934597
0.933159
0.934363
0.932655
0.929493
0.923387
2.96351
7.04239
7.5607
7.48064
7.45131
7.32424
7.23297
7.14114
6.99453
6.84048
6.70908
6.61419
6.50329
6.39675
6.32507
6.28585
6.2667
6.23442
6.18998
6.14139
6.10309
6.07898
6.06468
6.05081
6.02475
5.98613
5.94979
5.91877
1.35128
1.19624
1.10372
0.994406
0.899959
0.848266
0.802311
0.734296
0.696028
0.664739
0.618644
0.598408
0.589502
0.568512
0.533454
0.530386
0.528793
0.52252
0.52517
0.5302
0.539494
0.553525
0.580357
0.61096
0.643672
0.690033
0.753514
0.809303
0.843242
0.88624
0.924278
0.929521
0.934617
0.941284
0.941356
0.937959
0.941584
0.952174
0.966298
0.969021
0.966963
0.966111
0.964092
0.956552
0.950166
0.948966
0.952569
0.95862
0.960752
0.960699
0.958177
0.953184
0.945883
0.939458
0.93633
0.934451
0.934427
0.933712
0.932098
0.924869
1.61547
6.00748
7.50484
7.50061
7.47313
7.36629
7.23457
7.13369
6.99729
6.82344
6.68149
6.5949
6.51275
6.40445
6.31906
6.27292
6.26243
6.2333
6.19903
6.15069
6.10762
6.08009
6.06621
6.05442
6.02914
5.98706
5.9417
5.90465
1.61296
1.45834
1.33925
1.20948
1.07307
1.00299
0.941936
0.878265
0.837952
0.805201
0.755402
0.716473
0.691794
0.659679
0.610157
0.591476
0.581647
0.564144
0.545154
0.545761
0.549953
0.547396
0.535662
0.525423
0.527105
0.539061
0.573903
0.63941
0.71595
0.784919
0.852375
0.881917
0.9013
0.920023
0.923614
0.915036
0.91757
0.933132
0.948831
0.958859
0.96153
0.962393
0.962864
0.960738
0.958271
0.955875
0.951712
0.94692
0.943604
0.942691
0.944284
0.946284
0.94696
0.948093
0.948558
0.945561
0.941231
0.936707
0.930566
0.917733
0.948198
4.32387
7.51217
7.62289
7.45347
7.3751
7.27207
7.13277
6.98871
6.83121
6.6849
6.5765
6.50297
6.42757
6.33417
6.27557
6.24983
6.2382
6.20308
6.16212
6.11952
6.08857
6.07172
6.05567
6.02555
5.98101
5.93573
5.89037
1.88052
1.7053
1.5471
1.397
1.27239
1.19317
1.11611
1.0169
0.961436
0.919547
0.869275
0.832106
0.799756
0.759964
0.70104
0.673639
0.658176
0.636945
0.60665
0.597807
0.590087
0.572878
0.548655
0.533579
0.531414
0.531457
0.530818
0.539709
0.576001
0.627784
0.676774
0.731926
0.780893
0.822173
0.873271
0.890441
0.894965
0.914784
0.929785
0.941683
0.942872
0.947787
0.959709
0.966326
0.966157
0.964121
0.95839
0.944285
0.929047
0.92659
0.929007
0.935525
0.94536
0.956873
0.960414
0.958193
0.950938
0.937294
0.919657
0.905561
0.899376
2.47025
6.89347
7.58131
7.45791
7.45328
7.31312
7.17637
6.99482
6.84103
6.70361
6.59637
6.51188
6.44274
6.36977
6.29667
6.25081
6.23683
6.21022
6.17294
6.13501
6.09846
6.07609
6.05261
6.0145
5.96654
5.92351
5.8792
2.14297
1.93821
1.75928
1.60523
1.46043
1.36609
1.27455
1.18331
1.12243
1.06621
0.977973
0.922169
0.88645
0.848547
0.79612
0.769639
0.749935
0.72586
0.695789
0.679189
0.661543
0.632293
0.586668
0.555817
0.551576
0.542734
0.536444
0.540471
0.551733
0.555485
0.557592
0.571252
0.603078
0.651203
0.717769
0.795513
0.853654
0.884421
0.913213
0.919631
0.911865
0.91735
0.939378
0.962109
0.967456
0.967387
0.963448
0.947418
0.923885
0.91725
0.919203
0.926061
0.941703
0.957655
0.960567
0.959239
0.952552
0.935458
0.9135
0.902721
0.898235
1.172
5.46362
7.62147
7.67996
7.55236
7.3866
7.20942
7.0418
6.88493
6.74502
6.63542
6.54499
6.47156
6.39864
6.33032
6.27251
6.24541
6.22197
6.18392
6.14631
6.10856
6.07823
6.0473
6.00053
5.94752
5.90231
5.85826
2.38655
2.15959
1.96707
1.79547
1.67147
1.54702
1.43479
1.32437
1.26123
1.19847
1.11406
1.04548
0.994375
0.936733
0.872766
0.853139
0.833441
0.806102
0.775806
0.758434
0.736831
0.700665
0.647267
0.614401
0.606431
0.595962
0.572742
0.563777
0.564431
0.561369
0.553885
0.55052
0.552213
0.560863
0.585946
0.637741
0.706093
0.758298
0.805321
0.856617
0.873019
0.883894
0.912753
0.946033
0.955248
0.95694
0.955253
0.944433
0.92418
0.914757
0.916619
0.923572
0.940595
0.953629
0.954158
0.952582
0.94584
0.931565
0.917818
0.91274
0.908699
0.910884
3.48912
7.40179
7.69014
7.55983
7.43541
7.24507
7.10727
6.96727
6.84416
6.72042
6.60958
6.51899
6.44437
6.36813
6.29866
6.25775
6.22826
6.19722
6.15063
6.11178
6.06762
6.0278
5.9756
5.92084
5.87453
5.83317
2.60786
2.38151
2.1574
1.99678
1.8564
1.71493
1.59199
1.49233
1.41079
1.32017
1.21527
1.14915
1.10477
1.04883
0.98119
0.951977
0.923639
0.885931
0.848129
0.831536
0.806389
0.764332
0.709259
0.679939
0.67376
0.663309
0.639031
0.619018
0.609712
0.596837
0.572821
0.55759
0.557488
0.561921
0.562261
0.56692
0.580498
0.607119
0.639055
0.687528
0.756356
0.809413
0.856034
0.907069
0.92396
0.931372
0.935752
0.931495
0.917534
0.914772
0.920697
0.929756
0.942585
0.945488
0.94287
0.937992
0.930392
0.924859
0.922899
0.922316
0.924238
0.91777
1.7357
6.31915
7.58719
7.61391
7.50262
7.32048
7.17678
7.06504
6.95546
6.83274
6.71432
6.59582
6.50271
6.40589
6.33229
6.26974
6.23649
6.20322
6.15917
6.10524
6.05456
6.00373
5.94909
5.88596
5.83075
5.78463
2.81054
2.57306
2.34246
2.1891
2.03011
1.8831
1.74
1.64085
1.54426
1.4478
1.34672
1.26468
1.20515
1.14136
1.08224
1.05446
1.02467
0.978703
0.926883
0.897991
0.86262
0.818153
0.765348
0.746645
0.741925
0.730374
0.708923
0.683625
0.664804
0.644042
0.611704
0.583422
0.580457
0.579559
0.570143
0.567159
0.577088
0.581811
0.582442
0.587775
0.6144
0.668341
0.731045
0.803407
0.850421
0.870728
0.884066
0.902757
0.904711
0.905032
0.920377
0.942497
0.949693
0.947199
0.938788
0.92823
0.920876
0.918936
0.921358
0.929993
0.937249
0.931978
0.964733
4.42757
7.52776
7.6217
7.53359
7.41138
7.26947
7.17633
7.07297
6.95807
6.81473
6.69233
6.57003
6.46862
6.36869
6.29094
6.24496
6.19888
6.15825
6.0909
6.03144
5.9596
5.89698
5.82692
5.76835
5.73309
3.00307
2.75029
2.5375
2.36434
2.19512
2.03909
1.89671
1.79055
1.67328
1.56145
1.46103
1.39341
1.33088
1.25552
1.18161
1.14608
1.11004
1.06117
1.00702
0.968061
0.926524
0.880056
0.830291
0.819493
0.81476
0.800347
0.777552
0.75145
0.725846
0.696803
0.657867
0.629544
0.626713
0.624915
0.614882
0.597153
0.593536
0.593124
0.58445
0.576045
0.577895
0.586581
0.607494
0.641274
0.691735
0.742185
0.780458
0.824431
0.85693
0.876451
0.906577
0.939213
0.948221
0.948106
0.941488
0.926307
0.920611
0.920647
0.924335
0.935868
0.941267
0.937912
0.917376
2.32129
6.7579
7.5291
7.58601
7.54493
7.40446
7.30041
7.19457
7.0686
6.92876
6.78064
6.64474
6.52146
6.40568
6.31609
6.24144
6.18846
6.137
6.06992
5.99538
5.91389
5.84581
5.76817
5.68987
5.61212
3.16195
2.91131
2.71682
2.53023
2.36093
2.17917
2.04637
1.92574
1.80324
1.69144
1.58678
1.51465
1.44098
1.36424
1.29483
1.25127
1.20452
1.13555
1.06623
1.02335
0.985779
0.944004
0.898132
0.889404
0.882499
0.864479
0.840749
0.8154
0.786086
0.750975
0.707098
0.675471
0.671869
0.669929
0.659959
0.640352
0.625049
0.615294
0.601715
0.583409
0.581288
0.586921
0.589764
0.588408
0.591572
0.606456
0.638983
0.686977
0.75039
0.809906
0.858146
0.90844
0.936848
0.939981
0.936227
0.923598
0.923292
0.92551
0.931424
0.94049
0.941595
0.937946
0.914675
1.02862
5.04501
7.55418
7.68936
7.66985
7.55623
7.4078
7.29639
7.17096
7.04137
6.86091
6.71286
6.57393
6.43787
6.32459
6.23441
6.17705
6.1132
6.0394
5.94179
5.85034
5.7515
5.63282
5.51311
5.4354
3.29836
3.07558
2.87816
2.68601
2.50082
2.32207
2.1909
2.05829
1.9374
1.80173
1.71159
1.64224
1.56488
1.46804
1.39264
1.34753
1.292
1.22307
1.14869
1.09439
1.05335
1.0027
0.957423
0.951235
0.942921
0.922533
0.897591
0.876327
0.849609
0.815314
0.771665
0.731861
0.725129
0.720378
0.708554
0.684981
0.666116
0.657267
0.646257
0.630004
0.612794
0.606108
0.600732
0.590883
0.575707
0.571945
0.574651
0.585637
0.620689
0.684799
0.762529
0.823683
0.875537
0.909951
0.914104
0.909861
0.910903
0.921106
0.936178
0.940627
0.940279
0.935946
0.917284
0.881744
2.74804
7.04177
7.66336
7.74296
7.70045
7.51882
7.384
7.26518
7.12336
6.95741
6.76925
6.60651
6.46249
6.33213
6.24716
6.16462
6.07947
5.98151
5.86683
5.76724
5.64209
5.50282
5.36126
5.28135
3.43513
3.22098
3.01607
2.82914
2.6419
2.46917
2.31855
2.18197
2.06764
1.93935
1.84067
1.75475
1.67106
1.57664
1.49965
1.44109
1.37361
1.29327
1.22769
1.18222
1.14405
1.09238
1.03291
1.0139
0.994004
0.963347
0.932213
0.916313
0.898705
0.871914
0.83907
0.80482
0.786847
0.770845
0.751887
0.72364
0.69992
0.691492
0.683733
0.671749
0.656698
0.645589
0.633834
0.610834
0.580972
0.573186
0.573293
0.576155
0.583702
0.599744
0.635243
0.685641
0.737961
0.79284
0.839243
0.863853
0.880855
0.9086
0.937517
0.941537
0.941536
0.936296
0.91301
0.877202
1.13165
5.45358
7.65853
7.84687
7.81089
7.63328
7.46255
7.33544
7.19439
7.03783
6.83023
6.64246
6.48497
6.33912
6.24321
6.14076
6.03755
5.91783
5.79085
5.6668
5.51267
5.28657
4.862
3.83667
3.5702
3.36783
3.16069
2.96054
2.77341
2.61549
2.45225
2.31242
2.18126
2.0585
1.95571
1.86139
1.77433
1.66694
1.58979
1.52226
1.45395
1.37849
1.31323
1.27397
1.23315
1.18334
1.12858
1.09446
1.06406
1.02495
0.967769
0.940861
0.932781
0.915356
0.892586
0.871298
0.855246
0.834398
0.805847
0.766977
0.744593
0.738451
0.730454
0.716525
0.697591
0.683053
0.668173
0.643829
0.612413
0.602218
0.600476
0.598705
0.596642
0.60001
0.60595
0.611177
0.621962
0.648372
0.69742
0.76472
0.815952
0.874509
0.918815
0.923991
0.925545
0.92229
0.901333
0.881639
0.877536
3.05722
7.2713
7.79928
7.83866
7.73709
7.54538
7.40026
7.26216
7.09523
6.89115
6.67716
6.50585
6.36209
6.23954
6.13057
5.98537
5.83816
5.71404
5.54797
5.36151
5.03792
4.58838
3.44045
3.70208
3.49363
3.2889
3.08305
2.91344
2.75279
2.58997
2.43113
2.29408
2.18897
2.07588
1.96434
1.86129
1.7577
1.67588
1.59988
1.52105
1.43962
1.39968
1.36721
1.32652
1.28122
1.23042
1.1841
1.13767
1.08578
1.01782
0.985811
0.977589
0.960244
0.932522
0.913392
0.903664
0.885194
0.8532
0.809528
0.792351
0.787668
0.77855
0.762971
0.74302
0.721125
0.695899
0.666504
0.641113
0.634217
0.632873
0.629472
0.622751
0.618456
0.617896
0.614804
0.603624
0.601748
0.609182
0.639762
0.697809
0.763956
0.834082
0.865449
0.883988
0.88767
0.881315
0.874282
0.872348
1.21283
5.69921
7.72859
7.88683
7.81647
7.62898
7.47122
7.33265
7.15099
6.93553
6.70641
6.52341
6.37928
6.23864
6.10382
5.93341
5.77221
5.63418
5.43759
5.21883
4.86424
4.3615
3.32856
3.82417
3.61829
3.41365
3.21485
3.04326
2.87253
2.71938
2.55974
2.4153
2.29861
2.18269
2.07487
1.96797
1.85712
1.76138
1.67594
1.59814
1.51663
1.47223
1.43872
1.40137
1.36252
1.32446
1.27857
1.22281
1.15217
1.06929
1.04362
1.03491
1.01491
0.98421
0.961083
0.950119
0.930939
0.894768
0.847995
0.836602
0.833896
0.824076
0.805487
0.782791
0.756932
0.728783
0.703884
0.684422
0.678125
0.67604
0.671658
0.662809
0.652582
0.644564
0.631285
0.610788
0.603713
0.604726
0.608216
0.622494
0.651525
0.695979
0.74498
0.783721
0.816867
0.843743
0.850435
0.857557
0.871771
3.16961
7.36392
7.82291
7.82664
7.71781
7.55875
7.4085
7.19581
6.95047
6.73107
6.54881
6.39015
6.25937
6.09053
5.898
5.71812
5.54255
5.3379
5.09345
4.7386
4.23449
3.40038
3.93653
3.72222
3.50801
3.33053
3.15746
2.98385
2.82033
2.66587
2.53713
2.41046
2.28911
2.17717
2.06954
1.97066
1.86903
1.77606
1.6854
1.59462
1.55348
1.51607
1.46882
1.41786
1.38381
1.34829
1.29998
1.23048
1.14569
1.11686
1.10004
1.07184
1.0336
1.00789
0.997702
0.979476
0.944728
0.896019
0.881389
0.875928
0.862259
0.838898
0.812072
0.784588
0.760488
0.742122
0.725284
0.71928
0.716971
0.711528
0.701103
0.688503
0.672142
0.650674
0.626628
0.61526
0.611723
0.612877
0.62101
0.627334
0.630661
0.640196
0.65586
0.687701
0.740246
0.782841
0.822413
0.841783
1.20853
5.74453
7.77295
7.9043
7.8074
7.6487
7.47039
7.22714
6.95904
6.74298
6.5717
6.41249
6.26786
6.09106
5.86709
5.6681
5.4512
5.25069
4.99097
4.65315
4.18606
3.52325
4.06594
3.83606
3.62666
3.44887
3.26403
3.08393
2.9007
2.76141
2.62893
2.48872
2.37503
2.27579
2.1743
2.0736
1.9751
1.89223
1.80093
1.71288
1.65352
1.59527
1.537
1.47921
1.43983
1.40285
1.3521
1.28881
1.22119
1.1962
1.17349
1.14014
1.09219
1.05402
1.04104
1.02168
0.990876
0.950967
0.933251
0.922324
0.901738
0.871773
0.838696
0.81328
0.79901
0.7869
0.769543
0.761538
0.758017
0.751009
0.738481
0.722675
0.703603
0.683201
0.667881
0.655572
0.64859
0.64556
0.642474
0.636128
0.624707
0.609808
0.605212
0.610991
0.632565
0.680691
0.736406
0.797905
0.839539
3.04481
7.35678
7.8434
7.80169
7.73064
7.52341
7.23819
6.95177
6.75048
6.59366
6.45312
6.28754
6.09658
5.84489
5.61509
5.38894
5.1845
4.92361
4.60202
4.17745
3.6398
4.17355
3.94587
3.75227
3.56723
3.38183
3.19312
3.01503
2.87146
2.72351
2.58274
2.45568
2.34883
2.25542
2.16185
2.07886
2.00646
1.91537
1.8319
1.75649
1.68611
1.61128
1.53873
1.50145
1.46102
1.41072
1.35584
1.29745
1.26946
1.23886
1.19942
1.14955
1.10956
1.09354
1.07099
1.03888
0.998315
0.977607
0.963435
0.9406
0.907858
0.867776
0.84718
0.839085
0.829804
0.814183
0.805407
0.799702
0.789894
0.773459
0.748424
0.725961
0.712856
0.703994
0.694409
0.687897
0.683139
0.676683
0.662592
0.633613
0.610004
0.603494
0.604913
0.61123
0.625963
0.655049
0.702296
0.735041
1.04218
5.43929
7.76966
7.85874
7.72851
7.51809
7.2184
6.94605
6.77203
6.62672
6.49268
6.32595
6.11358
5.83711
5.57751
5.34249
5.12626
4.88326
4.57594
4.20614
3.75431
4.24665
4.02763
3.84418
3.66263
3.48744
3.30392
3.15117
2.99755
2.84169
2.69095
2.54372
2.44586
2.35174
2.24954
2.16244
2.09005
2.01573
1.93782
1.85376
1.77713
1.68804
1.61038
1.56998
1.5237
1.4726
1.42272
1.37594
1.34508
1.30902
1.26403
1.199
1.15964
1.1452
1.12054
1.08938
1.05353
1.02733
1.0035
0.973756
0.937453
0.898366
0.88502
0.880809
0.873506
0.860599
0.851285
0.842729
0.828825
0.804475
0.772602
0.75559
0.750494
0.742978
0.73291
0.725789
0.719478
0.709884
0.687917
0.651551
0.631441
0.626953
0.625833
0.627473
0.631078
0.634265
0.643296
0.663267
0.684903
2.5699
7.10448
7.79872
7.73362
7.49822
7.16885
6.92892
6.79298
6.66668
6.54437
6.38136
6.14302
5.84571
5.5515
5.3105
5.08614
4.86401
4.57614
4.24655
3.85209
4.31886
4.11865
3.93299
3.74921
3.56046
3.39811
3.26343
3.11101
2.96441
2.80449
2.67233
2.55748
2.43988
2.34278
2.25983
2.16978
2.09739
2.02364
1.93819
1.86246
1.76867
1.69373
1.6535
1.59635
1.53812
1.48512
1.44026
1.41188
1.37389
1.32397
1.26004
1.21577
1.19687
1.17095
1.1338
1.09621
1.07335
1.04809
1.01616
0.974668
0.936672
0.927631
0.923513
0.914808
0.90252
0.894873
0.885914
0.867133
0.830407
0.798882
0.791966
0.787877
0.77993
0.769977
0.762389
0.754795
0.740064
0.703294
0.667626
0.658338
0.654333
0.652934
0.652204
0.644388
0.638265
0.63983
0.646174
0.648941
0.824591
4.95224
7.64773
7.5625
7.42444
7.17429
6.98431
6.85728
6.73442
6.60511
6.43122
6.18369
5.86697
5.5548
5.30371
5.07974
4.86321
4.59007
4.28976
3.93462
4.42302
4.22209
4.02801
3.83611
3.64797
3.49559
3.34642
3.20338
3.06785
2.92267
2.80967
2.68839
2.55595
2.43556
2.33597
2.24206
2.16989
2.09849
2.0269
1.94889
1.84543
1.78459
1.7328
1.66697
1.61094
1.54796
1.50699
1.47758
1.43089
1.37857
1.31499
1.27404
1.25396
1.22244
1.18053
1.1366
1.1113
1.08775
1.05802
1.01957
0.985864
0.978948
0.97241
0.959897
0.94308
0.932886
0.920035
0.895346
0.854855
0.834681
0.83175
0.827118
0.818
0.807165
0.796908
0.784474
0.761175
0.721619
0.702633
0.698037
0.694537
0.693336
0.690549
0.680499
0.668009
0.661486
0.658108
0.65557
0.652572
1.98522
6.69391
7.48022
7.32795
7.18321
7.0393
6.93094
6.8196
6.67412
6.48492
6.22318
5.90307
5.58945
5.32427
5.09652
4.87838
4.61644
4.34448
4.01339
4.51494
4.32598
4.14475
3.94857
3.75438
3.59479
3.43482
3.28596
3.13733
3.02713
2.92444
2.80211
2.67788
2.53997
2.43739
2.33633
2.23229
2.15857
2.10072
2.03005
1.94351
1.8838
1.81758
1.74738
1.67993
1.60253
1.56719
1.53643
1.48806
1.43899
1.37921
1.33428
1.30807
1.27349
1.22374
1.17714
1.15463
1.13111
1.10252
1.06453
1.03722
1.03225
1.02406
1.00726
0.98669
0.969992
0.950274
0.91794
0.882244
0.873601
0.871671
0.866834
0.857263
0.845344
0.830175
0.806511
0.771514
0.743552
0.736164
0.732206
0.729631
0.730132
0.725303
0.714951
0.701818
0.687703
0.675775
0.667839
0.657427
0.722958
3.98628
7.3471
7.37304
7.21819
7.08249
7.00323
6.90137
6.75402
6.54422
6.26165
5.93956
5.64291
5.38302
5.1473
4.92217
4.66855
4.41203
4.09408
4.60446
4.42431
4.24573
4.05806
3.88366
3.71489
3.54443
3.3576
3.20129
3.1156
3.01348
2.90257
2.7859
2.64918
2.54353
2.43228
2.31319
2.23415
2.17382
2.09029
2.02329
1.97415
1.90207
1.8318
1.75123
1.66116
1.6305
1.59745
1.54218
1.4935
1.44173
1.39948
1.36718
1.32473
1.27187
1.22158
1.19758
1.17787
1.15333
1.11257
1.09087
1.08569
1.07373
1.05374
1.02907
1.0039
0.977796
0.947381
0.921825
0.915844
0.913296
0.906988
0.89512
0.878968
0.85444
0.821884
0.792849
0.778296
0.772086
0.767642
0.765073
0.766411
0.761749
0.749941
0.735945
0.721556
0.708264
0.697739
0.687184
0.67535
1.20412
5.70735
7.3765
7.24196
7.26818
7.19046
7.02528
6.83093
6.59874
6.30173
5.98742
5.70665
5.45481
5.21934
4.98988
4.74348
4.49395
4.18265
4.67541
4.49738
4.32879
4.15422
3.98843
3.82813
3.65875
3.45481
3.29943
3.19414
3.0806
2.98124
2.8756
2.76272
2.64667
2.5261
2.4008
2.30361
2.25056
2.16819
2.09945
2.04664
1.984
1.91331
1.80495
1.72691
1.70292
1.65944
1.60138
1.55302
1.4955
1.45955
1.42285
1.37327
1.31719
1.26763
1.24885
1.23145
1.20787
1.16895
1.14914
1.13863
1.11955
1.09341
1.064
1.03256
1.00628
0.985361
0.967138
0.960266
0.956106
0.946953
0.930208
0.904699
0.866389
0.838235
0.825281
0.814759
0.807972
0.803593
0.801628
0.801092
0.794972
0.780329
0.761984
0.749975
0.740462
0.730488
0.719141
0.695987
0.694147
2.50068
6.6998
7.29815
7.38343
7.36608
7.20472
6.95257
6.66899
6.35205
6.04751
5.78236
5.53775
5.30638
5.0737
4.84457
4.59787
4.2838
4.75703
4.58178
4.40468
4.22352
4.0651
3.91578
3.75069
3.56206
3.42558
3.30255
3.17321
3.04289
2.93724
2.8454
2.73055
2.61973
2.49695
2.39087
2.33539
2.25553
2.16973
2.1132
2.06057
1.98493
1.86239
1.79995
1.77362
1.72263
1.66582
1.61144
1.55272
1.51729
1.47533
1.42328
1.36997
1.3207
1.3036
1.28828
1.26216
1.2209
1.20444
1.19105
1.16749
1.13492
1.09294
1.05796
1.04305
1.03048
1.01505
1.00666
0.998975
0.985155
0.958669
0.917408
0.879454
0.86904
0.86312
0.852197
0.845226
0.842041
0.838516
0.83341
0.824357
0.806238
0.789388
0.781667
0.774575
0.764642
0.750272
0.730049
0.70239
0.823111
3.98675
7.20501
7.46993
7.40051
7.2877
7.05943
6.75875
6.42666
6.12784
5.87068
5.63315
5.40614
5.17347
4.95881
4.70815
4.38987
4.84406
4.65406
4.4749
4.30292
4.15036
3.99563
3.82336
3.65334
3.52918
3.40315
3.26753
3.11684
3.01714
2.92231
2.81135
2.71025
2.58644
2.49266
2.41839
2.3323
2.24322
2.18315
2.13352
2.05508
1.92606
1.86461
1.83758
1.78786
1.73405
1.66696
1.60822
1.57816
1.53232
1.47715
1.42466
1.37483
1.36096
1.34809
1.32038
1.27906
1.2569
1.23742
1.20865
1.17038
1.12408
1.09924
1.0912
1.07906
1.06262
1.05131
1.04019
1.01889
0.976527
0.928094
0.909909
0.907227
0.902827
0.891268
0.883582
0.881019
0.874419
0.864641
0.849845
0.829784
0.81875
0.812766
0.805521
0.794965
0.77798
0.753707
0.730103
0.723305
1.24426
5.41214
7.36265
7.45143
7.31629
7.12771
6.84016
6.51942
6.23137
5.97393
5.74243
5.51951
5.2867
5.07684
4.82438
4.50445
4.94655
4.7424
4.55523
4.39265
4.24641
4.0896
3.91026
3.745
3.61829
3.499
3.36117
3.21229
3.10204
2.99383
2.89739
2.79874
2.69138
2.60133
2.50726
2.41462
2.31626
2.24179
2.19527
2.12572
2.02243
1.94311
1.89847
1.84736
1.78877
1.71091
1.66671
1.64129
1.59446
1.54273
1.48901
1.43504
1.42148
1.40723
1.37363
1.33078
1.30981
1.28787
1.25478
1.20397
1.15695
1.14675
1.14114
1.12693
1.10785
1.0931
1.07682
1.04191
0.985529
0.955878
0.950888
0.95047
0.946189
0.933419
0.923985
0.917728
0.907653
0.891189
0.875054
0.861174
0.852187
0.845343
0.837021
0.824044
0.802204
0.774973
0.762049
0.750571
0.761915
2.08838
6.39106
7.42922
7.3601
7.18727
6.90686
6.58431
6.31807
6.0857
5.87175
5.64994
5.42115
5.21059
4.94531
4.6194
5.07535
4.84589
4.62118
4.46699
4.3377
4.19749
4.03417
3.87072
3.7269
3.5883
3.44188
3.31313
3.19397
3.08089
2.97672
2.88025
2.79386
2.6896
2.58981
2.49798
2.38734
2.32076
2.26501
2.18611
2.09917
2.02318
1.97329
1.92132
1.84987
1.75819
1.7222
1.70239
1.66137
1.6148
1.55711
1.501
1.48684
1.46666
1.42682
1.37821
1.35355
1.33218
1.29917
1.24577
1.2052
1.19948
1.19158
1.17381
1.15068
1.13073
1.10564
1.05668
1.00787
0.998136
0.995506
0.99643
0.990849
0.976511
0.964856
0.953523
0.935551
0.915494
0.904994
0.894614
0.885799
0.877959
0.867789
0.850635
0.822225
0.799945
0.7916
0.784788
0.776079
0.850872
3.08509
6.86126
7.41112
7.19514
6.95793
6.66623
6.40353
6.18004
5.99135
5.78908
5.57165
5.34173
5.05441
4.7289
5.19719
4.98908
4.75987
4.54681
4.38221
4.25739
4.13116
3.9978
3.84603
3.68009
3.52534
3.39532
3.27807
3.1672
3.05347
2.97433
2.88089
2.76722
2.67573
2.56391
2.45678
2.40768
2.33897
2.25445
2.17981
2.09989
2.04243
1.98868
1.91362
1.82097
1.78771
1.76922
1.7313
1.68232
1.61396
1.5617
1.54896
1.52458
1.48071
1.42878
1.40087
1.37837
1.34512
1.28874
1.25532
1.25186
1.24225
1.21981
1.19185
1.16143
1.12457
1.07661
1.05002
1.0442
1.04337
1.04446
1.03588
1.01849
1.00182
0.982668
0.95974
0.94752
0.940744
0.930614
0.92037
0.911345
0.898263
0.87268
0.843114
0.830012
0.822266
0.816138
0.812788
0.816862
1.05677
3.9247
7.06684
7.32378
6.94788
6.71036
6.53108
6.31749
6.12786
5.94077
5.73893
5.49515
5.17092
4.82878
5.30213
5.09321
4.90747
4.70055
4.49081
4.32401
4.20827
4.10589
3.97199
3.80052
3.62117
3.48155
3.37438
3.25279
3.15795
3.08054
2.96708
2.85934
2.75829
2.6162
2.54695
2.49656
2.4122
2.3335
2.25709
2.1725
2.11293
2.05584
1.98333
1.89335
1.85449
1.8379
1.80592
1.75297
1.6701
1.62247
1.60782
1.57678
1.53076
1.47939
1.44892
1.42876
1.39832
1.34157
1.30733
1.30256
1.29003
1.26194
1.22709
1.18404
1.146
1.11915
1.09942
1.0911
1.09075
1.09097
1.07974
1.05807
1.03363
1.00779
0.991532
0.983869
0.977963
0.967031
0.956128
0.945137
0.925747
0.892041
0.869432
0.860913
0.853122
0.847777
0.851403
0.853363
0.858691
1.33222
4.5536
7.08411
7.17796
6.73917
6.56015
6.46086
6.27395
6.07937
5.88531
5.64195
5.30109
4.95902
5.44077
5.22787
5.01934
4.83393
4.62069
4.43188
4.31287
4.19503
4.06586
3.91931
3.75756
3.59942
3.45165
3.33679
3.2695
3.17342
3.05096
2.95743
2.82834
2.69617
2.65427
2.58385
2.48615
2.41261
2.32897
2.23915
2.18455
2.12431
2.05245
1.97775
1.92678
1.90772
1.87515
1.81345
1.7225
1.67969
1.66417
1.63196
1.58478
1.52789
1.49812
1.48008
1.45166
1.39939
1.36344
1.35338
1.33531
1.29962
1.25395
1.20685
1.18441
1.17386
1.15474
1.14216
1.14055
1.13695
1.12066
1.09038
1.05827
1.03912
1.03086
1.02614
1.01737
1.00438
0.992043
0.976323
0.945711
0.913767
0.90176
0.894068
0.88734
0.885743
0.892082
0.894539
0.885394
0.890551
1.62838
4.95455
6.94674
7.07458
6.6519
6.50292
6.42112
6.23311
6.00836
5.73733
5.39495
5.09721
5.41468
5.36683
5.18444
4.95946
4.69744
4.52584
4.43139
4.30499
4.15716
4.0078
3.86438
3.70216
3.53198
3.4437
3.3666
3.24903
3.1443
3.039
2.87993
2.80371
2.7513
2.65311
2.56432
2.49191
2.38245
2.30829
2.26092
2.19142
2.1259
2.05566
1.99879
1.97683
1.94019
1.87161
1.77743
1.73892
1.72333
1.6904
1.64193
1.58192
1.55181
1.53526
1.50666
1.45484
1.41818
1.402
1.37717
1.33237
1.27538
1.2437
1.23646
1.22787
1.20951
1.19228
1.18856
1.1819
1.15778
1.11536
1.08835
1.07838
1.07304
1.06894
1.05745
1.04302
1.02793
1.0031
0.965307
0.94428
0.935668
0.927841
0.923309
0.927733
0.93416
0.930517
0.921855
0.906826
0.924164
1.89572
5.15338
6.83618
7.05907
6.64285
6.45531
6.3654
6.17119
5.85721
5.45531
5.19129
4.86189
5.30328
5.24179
5.07482
4.82025
4.62988
4.51444
4.37437
4.22543
4.09584
3.97184
3.80471
3.63052
3.53351
3.43295
3.31868
3.22942
3.10652
2.97733
2.92227
2.83585
2.72047
2.63704
2.54616
2.43863
2.39867
2.34846
2.27007
2.20297
2.1357
2.07264
2.0407
1.99944
1.92785
1.83447
1.79777
1.78285
1.75476
1.70495
1.63748
1.61117
1.59384
1.5608
1.50961
1.46983
1.44798
1.41698
1.36449
1.30801
1.29379
1.29108
1.28236
1.26674
1.24715
1.2348
1.22025
1.18502
1.14311
1.12919
1.1221
1.12004
1.11286
1.09809
1.08095
1.05851
1.02116
0.990451
0.980051
0.972256
0.964887
0.964219
0.972335
0.972887
0.964683
0.955495
0.943482
0.9177
0.948908
2.09862
5.24252
6.80522
7.07155
6.63111
6.37803
6.26786
6.0151
5.5999
5.28935
2.83994
4.75089
5.04674
5.06229
4.96933
4.76106
4.59084
4.44434
4.2988
4.1639
4.04484
3.89767
3.75169
3.63882
3.51078
3.39544
3.29026
3.15539
3.08572
3.0303
2.91451
2.79942
2.70824
2.58675
2.51283
2.496
2.43913
2.35088
2.28969
2.21673
2.14528
2.10684
2.05428
1.98256
1.9013
1.85747
1.84449
1.81846
1.76647
1.69768
1.67109
1.65208
1.61786
1.56244
1.5196
1.48989
1.45448
1.40557
1.35728
1.34744
1.3456
1.33622
1.31855
1.29768
1.27445
1.251
1.21501
1.18466
1.17427
1.16828
1.16604
1.15614
1.13835
1.11558
1.08135
1.04263
1.02692
1.01948
1.01147
1.00512
1.00845
1.01514
1.00959
0.999391
0.988141
0.973219
0.944409
0.91467
0.969106
2.23924
5.28981
6.79609
7.04289
6.58373
6.25539
6.077
5.78659
5.45976
1.27848
2.69555
4.24423
4.87374
5.02176
4.91648
0.888861
0.219481
0.0842322
0.104077
0.153851
0.199442
0.256976
0.339091
0.438849
0.511732
0.580601
0.651428
0.697815
0.702443
0.725907
0.769569
0.812208
0.828833
0.83997
0.840012
0.853546
0.864563
0.871068
0.877776
0.884691
0.890432
0.898154
0.899362
0.909985
0.920406
1.5412
0.873585
0.499757
0.428038
0.401523
0.349863
0.34558
0.341508
0.334482
0.353579
0.375691
0.409657
0.467549
0.53145
0.585518
0.632754
0.677129
0.716947
0.745276
0.768015
0.800664
0.820523
0.832615
0.853702
0.875253
0.88733
0.895575
0.901219
0.912028
0.916264
2.07919
1.4557
1.0558
0.815919
0.659288
0.536161
0.47405
0.43293
0.388906
0.380921
0.386953
0.400568
0.423368
0.457306
0.493801
0.528553
0.561593
0.59967
0.643305
0.689081
0.738736
0.777568
0.806757
0.835719
0.866469
0.894921
0.907818
0.921965
0.939559
0.93752
2.55772
1.94663