/*--------------------------------*- C++ -*----------------------------------*\
  =========                 |
  \\      /  F ield         | OpenFOAM: The Open Source CFD Toolbox
   \\    /   O peration     | Website:  https://openfoam.org
    \\  /    A nd           | Version:  7
     \\/     M anipulation  |
\*---------------------------------------------------------------------------*/
FoamFile
{
    version     2.0;
    format      ascii;
    class       volScalarField;
    location    "1";
    object      rho;
}
// * * * * * * * * * * * * * * * * * * * * * * * * * * * * * * * * * * * * * //

dimensions      [1 -3 0 0 0 0 0];

internalField   nonuniform List<scalar> 
3328
(
1.40001
1.40001
1.40001
1.40001
1.40001
1.40001
1.40001
1.40001
1.40001
1.40001
1.40001
1.40001
1.98631
4.89624
5.58741
5.6786
5.76852
5.8097
5.81092
5.78074
5.73494
5.66707
5.603
5.58233
1.40001
1.40001
1.40001
1.40001
1.40001
1.40001
1.40001
1.40001
1.40001
1.40001
1.40001
1.40001
1.94018
4.83916
5.5765
5.67429
5.75967
5.79821
5.79935
5.76925
5.72181
5.64999
5.58118
5.55697
1.40001
1.40001
1.40001
1.40001
1.40001
1.40001
1.40001
1.40001
1.40001
1.40001
1.40001
1.40001
1.85134
4.74717
5.56551
5.66181
5.74176
5.77965
5.7823
5.75339
5.70355
5.62635
5.55091
5.52219
1.40001
1.40001
1.40001
1.40001
1.40001
1.40001
1.40001
1.40001
1.40001
1.40001
1.40001
1.40001
1.7309
4.61214
5.56064
5.64037
5.71359
5.75172
5.75796
5.73137
5.67878
5.59414
5.50903
5.47141
1.40001
1.40001
1.40001
1.40001
1.40001
1.40001
1.40001
1.40001
1.40001
1.40001
1.40001
1.40001
1.58127
4.4148
5.55408
5.61644
5.68458
5.71999
5.72438
5.69437
5.63493
5.54401
5.45245
5.41679
1.40001
1.40001
1.40001
1.40001
1.40001
1.40001
1.40001
1.40001
1.40001
1.40001
1.40001
1.40001
1.41742
4.10052
5.52461
5.5833
5.63989
5.66719
5.66663
5.63765
5.5796
5.48872
5.39305
5.33719
1.40001
1.40001
1.40001
1.40001
1.40001
1.40001
1.40001
1.40001
1.40001
1.40001
1.40001
1.40001
1.40023
3.63736
5.41478
5.53659
5.59387
5.61995
5.61203
5.57467
5.50416
5.39098
5.27535
5.22238
1.40001
1.40001
1.40001
1.40001
1.40001
1.40001
1.40001
1.40001
1.40001
1.40001
1.40001
1.40001
1.40001
3.10386
5.26545
5.51754
5.56614
5.58168
5.56126
5.51344
5.43655
5.31779
5.16588
5.08951
1.40001
1.40001
1.40001
1.40001
1.40001
1.40001
1.40001
1.40001
1.40001
1.40001
1.40001
1.40001
1.40001
2.50923
5.05886
5.50497
5.53305
5.54799
5.5222
5.46442
5.36727
5.21611
4.91421
4.42197
1.40001
1.40001
1.40001
1.40001
1.40001
1.40001
1.40001
1.40001
1.40001
1.40001
1.40001
1.40001
1.40001
1.8958
4.82322
5.5392
5.5194
5.51082
5.46933
5.39986
5.28348
5.11685
4.8433
4.45892
1.40001
1.40001
1.40001
1.40001
1.40001
1.40001
1.40001
1.40001
1.40001
1.40001
1.40001
1.40001
1.40001
1.45757
4.25197
5.44725
5.45257
5.44266
5.39727
5.32816
5.21135
5.04193
4.80746
4.49614
1.40001
1.40001
1.40001
1.40001
1.40001
1.40001
1.40001
1.40001
1.40001
1.40001
1.40001
1.40001
1.40001
1.40053
3.38482
5.27184
5.40989
5.40457
5.36194
5.28779
5.16875
5.00174
4.79982
4.56242
1.40001
1.40001
1.40001
1.40001
1.40001
1.40001
1.40001
1.40001
1.40001
1.40001
1.40001
1.40001
1.40001
1.4
2.44027
4.98144
5.3654
5.35654
5.31242
5.2365
5.12268
4.97572
4.80507
4.62837
1.40001
1.40001
1.40001
1.40001
1.40001
1.40001
1.40001
1.40001
1.40001
1.40001
1.40001
1.40001
1.40001
1.4
1.60875
4.49411
5.32873
5.306
5.26467
5.19145
5.07748
4.95041
4.80914
4.66981
1.40001
1.40001
1.40001
1.40001
1.40001
1.40001
1.40001
1.40001
1.40001
1.40001
1.40001
1.40001
1.40001
1.40001
1.40653
3.50971
5.179
5.27025
5.24017
5.17517
5.07253
4.94909
4.82134
4.69687
1.40001
1.40001
1.40001
1.40001
1.40001
1.40001
1.40001
1.40001
1.40001
1.40001
1.40001
1.40001
1.40001
1.40001
1.39998
2.29451
4.95448
5.27909
5.22142
5.15151
5.05623
4.94834
4.83303
4.71338
1.40001
1.40001
1.40001
1.40001
1.40001
1.40001
1.40001
1.40001
1.40001
1.40001
1.40001
1.40001
1.40001
1.40001
1.4
1.52509
4.229
5.2211
5.16372
5.12162
5.04675
4.95425
4.84927
4.73417
1.40001
1.40001
1.40001
1.40001
1.40001
1.40001
1.40001
1.40001
1.40001
1.40001
1.40001
1.40001
1.40001
1.40001
1.4
1.40167
2.89281
5.0325
5.15778
5.12645
5.06182
4.97715
4.87889
4.76882
1.40001
1.40001
1.40001
1.40001
1.40001
1.40001
1.40001
1.40001
1.40001
1.40001
1.40001
1.40001
1.40001
1.40001
1.40001
1.4
1.70131
4.51037
5.1802
5.11744
5.06481
5.00027
4.91255
4.80594
1.40001
1.40001
1.40001
1.40001
1.40001
1.40001
1.40001
1.40001
1.40001
1.40001
1.40001
1.40001
1.40001
1.40001
1.40001
1.4
1.41135
3.19794
5.01355
5.07685
5.05127
5.01272
4.94471
4.84742
1.40001
1.40001
1.40001
1.40001
1.40001
1.40001
1.40001
1.40001
1.40001
1.40001
1.40001
1.40001
1.40001
1.40001
1.40001
1.40001
1.40002
1.81827
4.57013
5.12057
5.05819
5.02723
4.97171
4.88647
1.40001
1.40001
1.40001
1.40001
1.40001
1.40001
1.40001
1.40001
1.40001
1.40001
1.40001
1.40001
1.40001
1.40001
1.40001
1.40001
1.40001
1.42179
3.21376
4.9741
5.02603
5.0072
4.98068
4.9214
1.40001
1.40001
1.40001
1.40001
1.40001
1.40001
1.40001
1.40001
1.40001
1.40001
1.40001
1.40001
1.40001
1.40001
1.40001
1.40001
1.40001
1.40008
1.81234
4.44105
5.07006
5.02266
4.9987
4.95
1.40001
1.40001
1.40001
1.40001
1.40001
1.40001
1.40001
1.40001
1.40001
1.40001
1.40001
1.40001
1.40001
1.40001
1.40001
1.40001
1.40001
1.40001
1.41966
2.92431
4.93375
5.02182
4.99564
4.96868
1.40001
1.40001
1.40001
1.40001
1.40001
1.40001
1.40001
1.40001
1.40001
1.40001
1.40001
1.40001
1.40001
1.40001
1.40001
1.40001
1.40001
1.40001
1.4001
1.67919
4.13488
5.01181
4.99521
4.97569
1.40001
1.40001
1.40001
1.40001
1.40001
1.40001
1.40001
1.40001
1.40001
1.40001
1.40001
1.40001
1.40001
1.40001
1.40001
1.40001
1.40001
1.40001
1.40001
1.4082
2.45365
4.81245
5.03845
4.99057
1.40001
1.40001
1.40001
1.40001
1.40001
1.40001
1.40001
1.40001
1.40001
1.40001
1.40001
1.40001
1.40001
1.40001
1.40001
1.40001
1.40001
1.40001
1.40001
1.40003
1.53094
3.62538
4.95176
4.99132
1.40001
1.40001
1.40001
1.40001
1.40001
1.40001
1.40001
1.40001
1.40001
1.40001
1.40001
1.40001
1.40001
1.40001
1.40001
1.40001
1.40001
1.40001
1.40001
1.40001
1.40199
2.02671
4.4494
4.99881
1.40001
1.40001
1.40001
1.40001
1.40001
1.40001
1.40001
1.40001
1.40001
1.40001
1.40001
1.40001
1.40001
1.40001
1.40001
1.40001
1.40001
1.40001
1.40001
1.40001
1.40001
1.44399
2.90436
4.8793
1.40001
1.40001
1.40001
1.40001
1.40001
1.40001
1.40001
1.40001
1.40001
1.40001
1.40001
1.40001
1.40001
1.40001
1.40001
1.40001
1.40001
1.40001
1.40001
1.40001
1.40001
1.40038
1.66616
3.89622
1.40001
1.40001
1.40001
1.40001
1.40001
1.40001
1.40001
1.40001
1.40001
1.40001
1.40001
1.40001
1.40001
1.40001
1.40001
1.40001
1.40001
1.40001
1.40001
1.40001
1.40001
1.40001
1.40748
2.22797
1.40001
1.40001
1.40001
1.40001
1.40001
1.40001
1.40001
1.40001
1.40001
1.40001
1.40001
1.40001
1.40001
1.40001
1.40001
1.40001
1.40001
1.40001
1.40001
1.40001
1.40001
1.40001
1.40003
1.47572
1.40001
1.40001
1.40001
1.40001
1.40001
1.40001
1.40001
1.40001
1.40001
1.40001
1.40001
1.40001
1.40001
1.40001
1.40001
1.40001
1.40001
1.40001
1.40001
1.40001
1.40001
1.40001
1.40001
1.40089
1.40001
1.40001
1.40001
1.40001
1.40001
1.40001
1.40001
1.40001
1.40001
1.40001
1.40001
1.40001
1.40001
1.40001
1.40001
1.40001
1.40001
1.40001
1.40001
1.40001
1.40001
1.40001
1.40001
1.40001
1.40001
1.40001
1.40001
1.40001
1.40001
1.40001
1.40001
1.40001
1.40001
1.40001
1.40001
1.40001
1.40001
1.40001
1.40001
1.40001
1.40001
1.40001
1.40001
1.40001
1.40001
1.40001
1.40001
1.40001
1.40001
1.40001
1.40001
1.40001
1.40001
1.40001
1.40001
1.40001
1.40001
1.40001
1.40001
1.40001
1.40001
1.40001
1.40001
1.40001
1.40001
1.40001
1.40001
1.40001
1.40001
1.40001
1.40001
1.40001
1.40001
1.40001
1.40001
1.40001
1.40001
1.40001
1.40001
1.40001
1.40001
1.40001
1.40001
1.40001
1.40001
1.40001
1.40001
1.40001
1.40001
1.40001
1.40001
1.40001
1.40001
1.40001
1.40001
1.40001
1.40001
1.40001
1.40001
1.40001
1.40001
1.40001
1.40001
1.40001
1.40001
1.40001
1.40001
1.40001
1.40001
1.40001
1.40001
1.40001
1.40001
1.40001
1.40001
1.40001
1.40001
1.40001
1.40001
1.40001
1.40001
1.40001
1.40001
1.40001
1.40001
1.40001
1.40001
1.40001
1.40001
1.40001
1.40001
1.40001
1.40001
1.40001
1.40001
1.40001
1.40001
1.40001
1.40001
1.40001
1.40001
1.40001
1.40001
1.40001
1.40001
1.40001
1.40001
1.40001
1.40001
1.40001
1.40001
1.40001
1.40001
1.40001
1.40001
1.40001
1.40001
1.40001
1.40001
1.40001
1.40001
1.40001
1.40001
1.40001
1.40001
1.40001
1.40001
1.40001
3.32581
3.55976
3.59527
3.60414
3.58603
3.58781
3.59141
3.58923
4.02724
3.95215
3.72728
3.63147
3.57971
3.56454
3.56903
3.56675
4.18657
3.96732
3.71753
3.61609
3.57231
3.55247
3.54762
3.53939
4.34746
4.12582
3.86003
3.70292
3.5917
3.54155
3.5253
3.52776
4.46437
4.26468
4.00066
3.78397
3.6147
3.54761
3.49938
3.54763
4.53721
4.37705
4.15972
3.93938
3.73556
3.61423
3.54687
3.60801
4.57992
4.45304
4.29029
4.10086
3.88988
3.71419
3.61724
3.64366
4.59972
4.49244
4.37284
4.23613
4.06678
3.88495
3.75796
3.7124
4.62048
4.52067
4.42646
4.32264
4.18613
3.98715
3.70434
3.0416
4.65242
4.54643
4.45158
4.36149
4.23919
4.0419
3.70491
3.10277
4.68638
4.57502
4.47046
4.3749
4.25121
4.06035
3.73705
3.19752
4.73099
4.61451
4.49883
4.38416
4.24801
4.05536
3.75846
3.29692
4.77572
4.65198
4.52354
4.39086
4.24144
4.04371
3.76737
3.36105
4.82258
4.69868
4.56149
4.41559
4.25209
4.04425
3.77519
3.42159
4.86722
4.74552
4.5985
4.4383
4.26192
4.04935
3.79512
3.47978
4.90843
4.7962
4.64689
4.47835
4.29132
4.07371
3.82752
3.54046
4.92461
4.8273
4.68695
4.51972
4.32877
4.10918
3.87064
3.60569
4.94738
4.86169
4.73576
4.57654
4.38664
4.16697
3.93298
3.68283
4.95877
4.889
4.77156
4.61971
4.43628
4.22292
3.99654
3.7634
4.9461
4.88647
4.80199
4.66769
4.49696
4.28803
4.06363
3.83851
4.96995
4.89031
4.81391
4.70334
4.55382
4.35889
4.14147
3.91903
4.89675
4.86457
4.81578
4.73146
4.61745
4.4364
4.22138
3.99309
4.50651
4.90581
4.82076
4.72503
4.61561
4.47641
4.29221
4.082
3.00264
4.78156
4.86563
4.75023
4.62326
4.48814
4.33885
4.16115
1.70597
3.80554
4.80074
4.72585
4.62925
4.52092
4.39635
4.25144
1.40998
2.18857
4.31868
4.73007
4.63047
4.53562
4.43339
4.30176
1.40005
1.46754
2.76891
4.50061
4.6835
4.58069
4.46953
4.35185
1.40001
1.40078
1.61347
3.32681
4.53587
4.61511
4.509
4.54093
1.40001
1.40001
1.40533
1.87161
3.78702
4.44115
4.90047
6.14076
1.40001
1.40001
1.40003
1.42334
2.20445
4.37603
6.89704
7.83026
1.40001
1.40001
1.40001
1.40017
1.48659
5.08024
7.6558
7.72749
1.40001
1.40001
1.40001
1.40001
1.7285
5.12001
7.30754
7.46392
1.28157
0.713023
0.545468
0.491362
0.48923
0.530142
0.602287
0.655105
0.688654
0.698682
0.709954
0.719155
0.7327
0.74676
0.747565
0.744414
0.735744
0.731958
0.731244
0.732643
0.738801
0.743993
0.745637
0.747462
0.752819
0.766328
0.784237
0.822234
0.960109
1.24515
1.65305
2.05417
2.30943
2.47595
2.60639
2.62935
2.60339
2.54207
2.45123
2.36551
2.2807
2.21675
2.15638
2.08745
2.02756
1.98456
1.94717
1.91569
1.88917
1.85776
1.82053
1.78628
1.75541
1.72195
1.70385
1.69733
1.69376
1.69547
1.70641
1.69951
1.68539
1.67103
1.65291
1.62377
1.58858
1.56804
1.55133
1.53294
1.51715
1.50519
1.49756
1.4959
1.5017
1.4986
1.48895
1.47576
1.4564
1.43377
1.42739
1.42859
1.43868
1.4689
1.50163
1.50149
1.48518
1.45954
1.43356
1.39279
1.83988
1.22153
0.988817
0.862965
0.748372
0.713368
0.703451
0.673989
0.669541
0.673246
0.686571
0.704829
0.727534
0.750022
0.752683
0.748404
0.739495
0.733773
0.7339
0.742882
0.757691
0.76412
0.763674
0.760991
0.761623
0.77352
0.842922
1.04297
1.34547
1.563
1.67492
1.76714
1.87654
2.00143
2.11135
2.19538
2.27084
2.31889
2.32782
2.32377
2.29494
2.25854
2.22624
2.18208
2.13002
2.08941
2.05358
2.01573
1.98253
1.94985
1.91171
1.87468
1.83802
1.79591
1.76408
1.75202
1.7453
1.74331
1.74336
1.72745
1.707
1.6841
1.65766
1.62881
1.5951
1.56926
1.55069
1.53178
1.51752
1.50709
1.50072
1.49987
1.5044
1.50106
1.49218
1.48065
1.46289
1.44416
1.43907
1.43982
1.44903
1.47774
1.51203
1.51391
1.50065
1.47901
1.45887
1.41337
2.28432
1.69027
1.33003
1.12027
0.956494
0.828301
0.793334
0.755282
0.707849
0.710218
0.730291
0.75135
0.770216
0.787279
0.791626
0.789331
0.786411
0.78721
0.79358
0.808613
0.819894
0.818997
0.813665
0.80945
0.829924
0.931412
1.20441
1.54318
1.72936
1.79643
1.79884
1.79895
1.78538
1.75187
1.78477
1.87257
2.00002
2.13611
2.23551
2.31004
2.34756
2.35714
2.36936
2.35712
2.31863
2.29581
2.27072
2.23026
2.17828
2.13012
2.07892
2.02145
1.96492
1.90855
1.85641
1.82984
1.82275
1.82053
1.80927
1.78559
1.75733
1.72793
1.69488
1.66069
1.63703
1.62054
1.60434
1.58571
1.57197
1.56228
1.55562
1.55343
1.55422
1.55102
1.54469
1.5364
1.51496
1.48354
1.47284
1.47032
1.47422
1.49865
1.51573
1.51335
1.49643
1.47326
1.45268
1.4136
2.61048
2.06381
1.68429
1.43971
1.23918
1.05742
0.97953
0.935264
0.872177
0.804884
0.796532
0.786594
0.768499
0.770793
0.778264
0.792868
0.806607
0.815116
0.827611
0.839011
0.849449
0.850051
0.853989
0.893749
1.06671
1.39431
1.68595
1.8536
1.91775
1.92001
1.89725
1.851
1.7902
1.73601
1.71082
1.6915
1.70332
1.75293
1.8421
1.96112
2.08584
2.18588
2.26734
2.32216
2.32757
2.32587
2.31999
2.29276
2.25359
2.24526
2.24013
2.21154
2.17994
2.14298
2.09628
2.0529
2.02799
2.01067
1.98883
1.95396
1.90723
1.86777
1.83234
1.79333
1.76305
1.74003
1.71626
1.69244
1.67147
1.65414
1.64273
1.63202
1.62324
1.61786
1.61406
1.60795
1.58485
1.5449
1.52471
1.52028
1.5256
1.54757
1.54914
1.53357
1.50659
1.47797
1.45708
1.42677
2.83442
2.38112
1.98782
1.7083
1.50307
1.32659
1.18775
1.09844
1.01932
0.922978
0.870661
0.84762
0.816126
0.792467
0.794336
0.80365
0.816789
0.819932
0.823991
0.834039
0.848364
0.865223
0.942565
1.19241
1.54219
1.7909
1.86818
1.92789
1.9771
1.98946
1.96984
1.91872
1.85505
1.79815
1.7503
1.71613
1.68133
1.64654
1.62508
1.62272
1.64818
1.69773
1.77718
1.89316
1.99738
2.08094
2.15677
2.20062
2.21707
2.24138
2.25641
2.23662
2.21629
2.19904
2.18182
2.16423
2.14977
2.14664
2.13912
2.11832
2.07758
2.02464
1.979
1.9374
1.89494
1.85383
1.81396
1.7793
1.75025
1.72437
1.70213
1.68054
1.66501
1.65936
1.65517
1.64461
1.62737
1.60677
1.57614
1.56148
1.55688
1.54901
1.54752
1.5378
1.51842
1.49037
1.47372
1.44788
2.99359
2.59468
2.2566
1.97949
1.7445
1.55617
1.39519
1.27819
1.20076
1.11679
1.02272
0.971443
0.936339
0.888383
0.860287
0.854795
0.841469
0.824368
0.819533
0.8165
0.834097
0.965005
1.25772
1.61026
1.78938
1.83626
1.85108
1.87109
1.91774
1.97191
1.975
1.95477
1.92878
1.88614
1.8285
1.77255
1.70952
1.66646
1.64406
1.62649
1.60857
1.5859
1.5657
1.5488
1.54749
1.56933
1.61146
1.67998
1.76055
1.84195
1.93862
2.01405
2.06917
2.10848
2.13875
2.1613
2.15818
2.15257
2.1503
2.13817
2.11624
2.09769
2.08883
2.08288
2.0519
2.00769
1.95939
1.91853
1.88082
1.83858
1.79351
1.75609
1.73151
1.72409
1.71607
1.70195
1.69122
1.67397
1.63928
1.59666
1.57466
1.55923
1.54531
1.5378
1.52479
1.50123
1.4903
1.46679
3.11333
2.77878
2.46575
2.17378
1.95951
1.79176
1.62424
1.44917
1.34677
1.2696
1.18099
1.10983
1.06313
0.998618
0.942381
0.913053
0.883356
0.854834
0.843369
0.887646
1.08317
1.40601
1.67024
1.80759
1.80826
1.78866
1.76653
1.75781
1.77396
1.83029
1.8986
1.94177
1.94989
1.93343
1.88813
1.82358
1.76235
1.71454
1.68183
1.65552
1.62912
1.59844
1.56627
1.52834
1.48548
1.44616
1.41706
1.40236
1.39722
1.40568
1.43416
1.49053
1.55474
1.6254
1.70589
1.78626
1.85809
1.92149
1.96236
2.00601
2.02645
2.01914
2.03106
2.05005
2.06822
2.06523
2.04591
2.01443
1.97381
1.92976
1.8813
1.84464
1.81799
1.80024
1.7818
1.77013
1.75974
1.73948
1.70362
1.64629
1.5954
1.57092
1.5523
1.53791
1.52052
1.50061
1.49271
1.47406
3.21345
2.9113
2.63667
2.37461
2.13852
1.96187
1.8016
1.63133
1.5134
1.42218
1.32414
1.23419
1.17872
1.129
1.06887
1.01214
0.971901
0.964658
1.04066
1.29406
1.63403
1.8003
1.87875
1.85564
1.8167
1.76887
1.72763
1.69476
1.6871
1.69489
1.7434
1.8269
1.9006
1.91397
1.89227
1.83671
1.79635
1.76535
1.72961
1.69071
1.65376
1.61834
1.57369
1.52559
1.48062
1.44982
1.42625
1.39671
1.37002
1.34557
1.32084
1.29705
1.27217
1.25805
1.26232
1.28084
1.31733
1.37371
1.44155
1.51561
1.59614
1.70352
1.78542
1.84258
1.91989
1.99041
1.99204
1.97211
1.94655
1.91659
1.8744
1.83624
1.81099
1.80384
1.80126
1.79801
1.78614
1.76988
1.74433
1.70714
1.65693
1.61845
1.59144
1.56881
1.55281
1.54343
1.53415
1.5129
3.30826
3.03657
2.78028
2.52924
2.30192
2.12429
1.96249
1.79569
1.66157
1.56325
1.4718
1.38529
1.30663
1.23525
1.16438
1.11077
1.11121
1.22921
1.55711
1.9045
2.03981
2.008
1.9644
1.8963
1.82456
1.77127
1.73928
1.71526
1.70719
1.69696
1.68879
1.69699
1.73372
1.80564
1.8275
1.80867
1.80184
1.78072
1.74364
1.70402
1.66079
1.61426
1.56718
1.52411
1.50084
1.4795
1.45306
1.4163
1.37274
1.33238
1.29989
1.27219
1.24768
1.22766
1.21091
1.1991
1.18755
1.1721
1.15483
1.13266
1.13306
1.15725
1.22111
1.31609
1.43996
1.59863
1.72824
1.79143
1.83234
1.83531
1.82245
1.78099
1.75458
1.74903
1.75477
1.75982
1.75576
1.74054
1.71295
1.6858
1.65956
1.63665
1.62295
1.61321
1.60998
1.60658
1.5945
1.57023
3.40654
3.15119
2.90685
2.66489
2.45482
2.27351
2.10702
1.93733
1.81208
1.70305
1.59718
1.50204
1.42121
1.35707
1.27784
1.32367
1.5259
1.89342
2.19423
2.27984
2.23598
2.12239
2.01433
1.9651
1.92225
1.89038
1.86358
1.83077
1.78829
1.7326
1.69632
1.68542
1.68116
1.69111
1.72445
1.74277
1.74854
1.75255
1.73462
1.69163
1.65005
1.60944
1.57069
1.54263
1.52049
1.49589
1.46707
1.429
1.37476
1.32489
1.29007
1.26474
1.24329
1.22535
1.20903
1.193
1.17207
1.14538
1.11676
1.08605
1.0476
1.01979
1.00171
0.996962
1.01715
1.07224
1.1748
1.29786
1.40195
1.4792
1.53836
1.55082
1.55539
1.56388
1.58343
1.60651
1.62585
1.64716
1.65625
1.64889
1.6235
1.59998
1.5914
1.58746
1.58726
1.59041
1.59689
1.57944
3.50397
3.25642
3.02686
2.79871
2.59088
2.39796
2.24192
2.09215
1.94916
1.82076
1.70672
1.61695
1.53549
1.4911
1.61549
1.9753
2.32169
2.53979
2.5098
2.41479
2.30912
2.22573
2.14951
2.09968
2.06386
2.02214
1.97731
1.92772
1.87572
1.81985
1.76346
1.70427
1.6694
1.66853
1.67553
1.6804
1.68179
1.69273
1.67983
1.63808
1.61666
1.61133
1.59234
1.55941
1.52821
1.4975
1.46445
1.42451
1.36985
1.32205
1.2893
1.26887
1.2573
1.24123
1.22017
1.19679
1.16778
1.13433
1.10154
1.07105
1.03959
1.01593
0.99445
0.973342
0.953194
0.941368
0.945156
0.962005
1.00241
1.05051
1.10349
1.15802
1.18358
1.20149
1.22862
1.26277
1.2974
1.33871
1.39515
1.44187
1.45628
1.46041
1.46899
1.48385
1.49657
1.50936
1.5324
1.53197
3.58953
3.35378
3.13702
2.90816
2.71773
2.53753
2.3619
2.21302
2.06799
1.95028
1.82128
1.72602
1.76947
2.01634
2.48177
2.76291
2.84185
2.78898
2.66834
2.54742
2.44759
2.37575
2.31743
2.25661
2.19452
2.13336
2.07678
2.0262
1.97568
1.92164
1.8595
1.78791
1.72248
1.68658
1.67525
1.66385
1.65491
1.64413
1.62209
1.58879
1.57254
1.57131
1.56441
1.54455
1.51983
1.4931
1.46189
1.42208
1.37706
1.34013
1.30826
1.2768
1.25043
1.22604
1.20237
1.17936
1.15358
1.12285
1.09003
1.06344
1.04688
1.02899
1.00477
0.976001
0.952254
0.930577
0.91831
0.916796
0.91919
0.940021
0.954027
0.973577
0.996582
1.00332
1.00934
1.01673
1.02427
1.03606
1.0615
1.10259
1.13598
1.14996
1.15794
1.17094
1.19069
1.21092
1.24385
1.29778
3.68021
3.4507
3.24772
3.02857
2.83632
2.65815
2.48342
2.34877
2.18785
2.05984
1.98742
2.14774
2.55357
3.00143
3.213
3.16528
3.07661
2.9397
2.80618
2.69707
2.59977
2.5197
2.45024
2.38015
2.31583
2.2557
2.1977
2.14082
2.08276
2.02039
1.95378
1.88485
1.82333
1.77163
1.7274
1.68765
1.65197
1.6264
1.60291
1.57328
1.54726
1.53636
1.53133
1.52112
1.50417
1.48328
1.45802
1.42269
1.3812
1.34963
1.32106
1.28744
1.25458
1.22692
1.19884
1.17131
1.1467
1.11941
1.09263
1.07074
1.05298
1.03618
1.01452
0.985498
0.95581
0.93182
0.915841
0.91208
0.912432
0.919139
0.933121
0.937328
0.95262
0.968021
0.974246
0.979733
0.983891
0.982135
0.982046
0.990698
1.00438
1.0085
1.00427
0.998332
1.00201
1.01407
1.03336
1.08011
3.7688
3.54838
3.34244
3.14233
2.96051
2.78979
2.59722
2.45065
2.33564
2.35225
2.64322
3.20298
3.52145
3.64487
3.56991
3.4005
3.23276
3.07435
2.95337
2.85951
2.7705
2.68367
2.60001
2.51475
2.43491
2.36502
2.30032
2.23503
2.16517
2.09124
2.0217
1.96283
1.91003
1.85716
1.79748
1.72583
1.65916
1.61724
1.59158
1.56878
1.54174
1.51688
1.50328
1.49798
1.48747
1.46925
1.44746
1.42009
1.39066
1.35656
1.31831
1.2825
1.25126
1.22014
1.18605
1.16154
1.1434
1.12791
1.11263
1.09214
1.06478
1.03401
1.00957
0.993001
0.972217
0.949585
0.929715
0.917897
0.914451
0.915909
0.924947
0.928671
0.931107
0.945492
0.956958
0.965726
0.975133
0.978183
0.977635
0.982775
0.99352
0.996676
0.994904
0.984773
0.981423
0.988035
1.00683
1.04372
3.8724
3.66318
3.44876
3.26328
3.07641
2.8749
2.734
2.64359
2.89337
3.38644
3.87484
4.04965
3.95363
3.83594
3.66109
3.50183
3.36887
3.24068
3.12977
3.03495
2.94345
2.85109
2.75428
2.65324
2.55721
2.47104
2.3924
2.31601
2.23933
2.16779
2.1062
2.04952
1.99274
1.93513
1.87039
1.79385
1.72492
1.6759
1.63459
1.59283
1.55333
1.52041
1.49705
1.48359
1.46836
1.4489
1.43136
1.41617
1.39402
1.3611
1.32422
1.28668
1.25299
1.21999
1.18149
1.16041
1.15296
1.14431
1.12895
1.10752
1.07972
1.0452
1.00954
0.993048
0.985121
0.972989
0.957363
0.942138
0.927554
0.921788
0.922272
0.92194
0.918713
0.923702
0.933863
0.94309
0.956034
0.97399
0.984292
0.988288
0.993543
0.995333
0.994298
0.986677
0.980102
0.983359
0.996455
1.02942
3.96876
3.77702
3.5535
3.35744
3.20597
3.03815
3.13558
3.58734
4.32928
4.57855
4.55748
4.41025
4.19672
3.98007
3.7974
3.66052
3.54748
3.43189
3.31019
3.19831
3.09439
2.99076
2.88399
2.7726
2.66538
2.56833
2.4802
2.39833
2.32183
2.25131
2.18546
2.12086
2.05235
1.97584
1.89372
1.82287
1.77517
1.73614
1.69371
1.64514
1.59208
1.5394
1.50032
1.48033
1.46402
1.44635
1.42689
1.40542
1.3802
1.35361
1.32791
1.2973
1.26038
1.22226
1.19014
1.17007
1.15388
1.13631
1.12015
1.1064
1.09006
1.05965
1.02141
1.00208
0.992844
0.982751
0.970418
0.955799
0.944452
0.935714
0.92444
0.913412
0.903471
0.90216
0.908804
0.914676
0.924204
0.946847
0.972886
0.980804
0.984802
0.990322
0.993499
0.990957
0.983068
0.98223
0.988259
1.01987
4.07043
3.88047
3.66406
3.48242
3.45157
3.87713
4.58764
5.07053
5.23983
5.0256
4.79348
4.57588
4.39029
4.21329
4.03819
3.87748
3.73846
3.6079
3.47995
3.35619
3.23231
3.10387
2.97623
2.85728
2.74862
2.64944
2.55965
2.47902
2.40437
2.33134
2.25772
2.18322
2.10669
2.02547
1.93949
1.86306
1.81196
1.7739
1.73857
1.70038
1.64544
1.56632
1.50979
1.48561
1.46674
1.44726
1.42431
1.39807
1.37598
1.35954
1.33806
1.30627
1.26709
1.22807
1.19769
1.17927
1.16163
1.13989
1.1216
1.10176
1.07985
1.06274
1.04101
1.01558
1.00622
1.00269
0.993339
0.980742
0.963779
0.941384
0.923057
0.909789
0.894063
0.882331
0.884059
0.886772
0.889631
0.905974
0.945225
0.971397
0.976274
0.977501
0.977019
0.974628
0.970673
0.969032
0.972806
1.00088
4.12746
3.98621
3.85502
4.14568
4.89493
5.63516
5.82118
5.7918
5.59894
5.29063
4.9983
4.74078
4.54116
4.38192
4.2229
4.06734
3.91687
3.7717
3.63145
3.4927
3.35248
3.21232
3.07726
2.95212
2.8371
2.72948
2.62903
2.54086
2.46564
2.39503
2.32206
2.2436
2.15758
2.06806
1.98758
1.92273
1.86917
1.81934
1.77249
1.73072
1.68685
1.62971
1.57189
1.52327
1.48744
1.4596
1.43222
1.40139
1.37201
1.35339
1.3387
1.31855
1.28554
1.23344
1.18982
1.17674
1.16852
1.15228
1.12412
1.0983
1.07715
1.069
1.0616
1.04655
1.02454
0.9972
0.981088
0.972234
0.960489
0.942101
0.923036
0.906826
0.890694
0.872679
0.867547
0.869556
0.870509
0.875768
0.902697
0.945453
0.956262
0.957925
0.961691
0.9642
0.962899
0.958781
0.958985
0.980175
4.20907
4.35961
5.11703
6.05228
6.55617
6.46805
6.1735
5.96191
5.76494
5.53192
5.26064
4.98343
4.72846
4.51903
4.34583
4.19206
4.04924
3.90838
3.76432
3.61468
3.45974
3.30775
3.1691
3.04317
2.92499
2.81277
2.70548
2.60324
2.51118
2.43116
2.35835
2.28633
2.20712
2.11769
2.0334
1.97169
1.92262
1.8722
1.81637
1.75554
1.69676
1.6526
1.61109
1.55947
1.5112
1.47728
1.44769
1.41729
1.3892
1.36272
1.3335
1.29989
1.26529
1.22712
1.19981
1.18453
1.16762
1.14479
1.10841
1.08392
1.07731
1.06974
1.05598
1.03947
1.01979
0.993007
0.978302
0.971783
0.963206
0.947774
0.929497
0.911201
0.893047
0.87447
0.857558
0.855595
0.8561
0.856075
0.864818
0.902042
0.928072
0.931058
0.93512
0.943363
0.946068
0.944249
0.943646
0.961261
5.18013
6.23905
7.052
7.19239
7.12589
6.81302
6.38495
6.0648
5.8724
5.68997
5.46408
5.20589
4.93313
4.68126
4.473
4.29664
4.13905
3.98895
3.8386
3.68635
3.53698
3.39612
3.26431
3.13715
3.00994
2.88322
2.76392
2.65864
2.5667
2.48331
2.40266
2.32302
2.24494
2.16375
2.07851
2.00612
1.95399
1.90603
1.85336
1.79812
1.74417
1.68567
1.62814
1.5881
1.55189
1.51254
1.47643
1.44015
1.4037
1.37206
1.34374
1.30869
1.26544
1.24028
1.22247
1.20244
1.17968
1.15032
1.11349
1.08326
1.07149
1.06397
1.05632
1.04445
1.02595
1.00274
0.980449
0.969133
0.963461
0.95714
0.944861
0.928135
0.907116
0.880942
0.853661
0.842873
0.842899
0.843205
0.845051
0.86342
0.895937
0.906167
0.90777
0.910575
0.917023
0.918635
0.919194
0.938896
7.24839
7.61994
7.56835
7.40597
7.22485
6.89645
6.54691
6.211
5.96876
5.78251
5.5762
5.34337
5.09414
4.84141
4.60573
4.39784
4.21477
4.04843
3.88966
3.73587
3.59131
3.45899
3.33488
3.21087
3.0799
2.94315
2.81409
2.70588
2.61652
2.53637
2.45767
2.37463
2.28282
2.18483
2.09455
2.0177
1.95278
1.90674
1.87428
1.83434
1.78017
1.72336
1.66439
1.60181
1.54349
1.49854
1.46375
1.43907
1.4187
1.39474
1.36167
1.31964
1.27574
1.23697
1.20729
1.18314
1.16017
1.13528
1.10744
1.08708
1.07388
1.06102
1.04376
1.02001
0.994927
0.982907
0.978133
0.973231
0.964894
0.95005
0.931942
0.911933
0.888084
0.862813
0.846009
0.837057
0.834698
0.835151
0.837093
0.843459
0.862366
0.875248
0.877988
0.877201
0.880734
0.888688
0.893672
0.918991
7.97296
7.81598
7.54444
7.34225
7.13565
6.86
6.55421
6.25299
5.98694
5.77168
5.5838
5.37661
5.1562
4.92729
4.69873
4.47935
4.27614
4.09188
3.92495
3.77339
3.63561
3.50733
3.38309
3.25752
3.12382
2.98074
2.84296
2.72593
2.62999
2.54858
2.47569
2.40469
2.32673
2.23495
2.13742
2.05425
1.98688
1.92779
1.88162
1.86105
1.8301
1.77079
1.69334
1.61521
1.55806
1.51882
1.4872
1.45679
1.42531
1.39369
1.35914
1.31879
1.27718
1.24075
1.21215
1.18654
1.16051
1.13411
1.11118
1.09365
1.07826
1.06356
1.04622
1.02029
0.996026
0.989188
0.98502
0.977713
0.966092
0.951289
0.933513
0.912764
0.889248
0.866452
0.850284
0.839206
0.833606
0.832075
0.832652
0.835491
0.84445
0.848049
0.84822
0.846018
0.844201
0.849952
0.858694
0.887793
7.64471
7.43955
7.22268
7.06385
6.91224
6.7094
6.47316
6.22589
5.99139
5.77724
5.55838
5.33752
5.12419
4.91902
4.72136
4.52151
4.32095
4.13155
3.96328
3.81572
3.68178
3.5539
3.42554
3.29093
3.14833
3.00331
2.86498
2.74633
2.65164
2.57209
2.49756
2.42005
2.3361
2.25862
2.19712
2.12909
2.05725
1.99025
1.9307
1.86523
1.79765
1.73377
1.69711
1.6668
1.62711
1.58213
1.53638
1.4935
1.45476
1.41902
1.38263
1.34473
1.30841
1.27567
1.24369
1.21008
1.17894
1.15557
1.13766
1.12126
1.10518
1.08753
1.06367
1.03257
1.01575
1.00936
1.00184
0.991503
0.979399
0.965677
0.948444
0.927672
0.906335
0.886026
0.866024
0.848442
0.840434
0.837331
0.836614
0.83759
0.83808
0.835131
0.831853
0.830522
0.8304
0.834053
0.842058
0.865989
7.50781
7.43288
7.28052
7.13171
6.95953
6.74513
6.5022
6.26078
6.0186
5.78691
5.54499
5.31696
5.10727
4.91535
4.73044
4.54006
4.34318
4.15598
3.99127
3.84639
3.71396
3.58784
3.46156
3.3261
3.17123
2.99992
2.84357
2.72637
2.63825
2.56285
2.4913
2.42037
2.35067
2.27857
2.19057
2.09861
2.01877
1.95177
1.88827
1.82138
1.76349
1.72549
1.68984
1.64347
1.59264
1.54217
1.49655
1.45583
1.41837
1.3825
1.34598
1.30837
1.27311
1.24102
1.20774
1.1737
1.14706
1.12795
1.11223
1.0976
1.08229
1.06245
1.03076
1.00013
0.990781
0.98543
0.978459
0.969717
0.95901
0.945575
0.928709
0.908649
0.887638
0.866243
0.843274
0.823665
0.817137
0.815192
0.8153
0.81969
0.822178
0.818851
0.814342
0.812938
0.81362
0.817426
0.824961
0.843968
)
;

boundaryField
{
    inlet
    {
        type            calculated;
        value           uniform 1.40001;
    }
    outlet
    {
        type            calculated;
        value           nonuniform List<scalar> 
24
(
1.38822
1.40951
1.40982
1.42252
1.44381
1.46345
1.4712
1.51047
1.57041
1.58398
1.53914
1.30582
1.0818
1.04303
1.02877
1.01919
1.00024
0.979615
0.960923
0.938489
0.918644
0.887657
0.866289
0.844619
)
;
    }
    bottom
    {
        type            calculated;
        value           nonuniform List<scalar> 
24
(
1.40001
1.40001
1.40001
1.40001
1.40001
1.40001
1.40001
1.40001
1.40001
1.40001
1.40001
1.40001
1.98631
4.89624
5.58741
5.6786
5.76852
5.8097
5.81092
5.78074
5.73494
5.66707
5.603
5.58233
)
;
    }
    top
    {
        type            calculated;
        value           nonuniform List<scalar> 
120
(
1.40001
1.40001
1.40001
1.40001
1.40001
1.40001
1.40001
1.40001
1.40001
1.40001
1.40001
1.40001
1.40001
1.40001
1.40001
1.40001
1.40001
1.40001
1.40001
1.40001
1.40001
1.40001
1.40001
1.40001
1.40001
1.40001
1.40001
1.40001
1.7285
5.12001
7.30754
7.46392
7.50781
7.43288
7.28052
7.13171
6.95953
6.74513
6.5022
6.26078
6.0186
5.78691
5.54499
5.31696
5.10727
4.91535
4.73044
4.54006
4.34318
4.15598
3.99127
3.84639
3.71396
3.58784
3.46156
3.3261
3.17123
2.99992
2.84357
2.72637
2.63825
2.56285
2.4913
2.42037
2.35067
2.27857
2.19057
2.09861
2.01877
1.95177
1.88827
1.82138
1.76349
1.72549
1.68984
1.64347
1.59264
1.54217
1.49655
1.45583
1.41837
1.3825
1.34598
1.30837
1.27311
1.24102
1.20774
1.1737
1.14706
1.12795
1.11223
1.0976
1.08229
1.06245
1.03076
1.00013
0.990781
0.98543
0.978459
0.969717
0.95901
0.945575
0.928709
0.908649
0.887638
0.866243
0.843274
0.823665
0.817137
0.815192
0.8153
0.81969
0.822178
0.818851
0.814342
0.812938
0.81362
0.817426
0.824961
0.843968
)
;
    }
    obstacle
    {
        type            calculated;
        value           nonuniform List<scalar> 
112
(
5.58233
5.55697
5.52219
5.47141
5.41679
5.33719
5.22238
5.08951
3.32581
3.55976
3.59527
3.60414
3.58603
3.58781
3.59141
3.58923
3.58923
3.56675
3.53939
3.52776
3.54763
3.60801
3.64366
3.7124
1.28157
0.713023
0.545468
0.491362
0.48923
0.530142
0.602287
0.655105
0.688654
0.698682
0.709954
0.719155
0.7327
0.74676
0.747565
0.744414
0.735744
0.731958
0.731244
0.732643
0.738801
0.743993
0.745637
0.747462
0.752819
0.766328
0.784237
0.822234
0.960109
1.24515
1.65305
2.05417
2.30943
2.47595
2.60639
2.62935
2.60339
2.54207
2.45123
2.36551
2.2807
2.21675
2.15638
2.08745
2.02756
1.98456
1.94717
1.91569
1.88917
1.85776
1.82053
1.78628
1.75541
1.72195
1.70385
1.69733
1.69376
1.69547
1.70641