/*--------------------------------*- C++ -*----------------------------------*\
  =========                 |
  \\      /  F ield         | OpenFOAM: The Open Source CFD Toolbox
   \\    /   O peration     | Website:  https://openfoam.org
    \\  /    A nd           | Version:  7
     \\/     M anipulation  |
\*---------------------------------------------------------------------------*/
FoamFile
{
    version     2.0;
    format      ascii;
    class       volScalarField;
    location    "2.9";
    object      p;
}
// * * * * * * * * * * * * * * * * * * * * * * * * * * * * * * * * * * * * * //

dimensions      [1 -1 -2 0 0 0 0];

internalField   nonuniform List<scalar> 
4040
(
1
1
1
1
1
1
1
1
1
1
1
1
1
1
6.41928
10.6037
10.7787
10.997
11.211
11.4135
11.6076
11.7753
11.9135
12.0273
1
1
1
1
1
1
1
1
1
1
1
1
1
1
6.22368
10.5359
10.7434
10.9562
11.1676
11.3636
11.5513
11.7071
11.8156
11.8885
1
1
1
1
1
1
1
1
1
1
1
1
1
1
5.82616
10.4485
10.6798
10.8819
11.0825
11.2553
11.4101
11.5286
11.6224
11.731
1
1
1
1
1
1
1
1
1
1
1
1
1
1
5.25094
10.2993
10.5927
10.7808
10.9714
11.1326
11.2721
11.3933
11.45
11.7589
1
1
1
1
1
1
1
1
1
1
1
1
1
1
4.51816
10.0457
10.4774
10.6485
10.8201
10.9595
11.048
11.0999
10.8687
10.6113
1
1
1
1
1
1
1
1
1
1
1
1
1
1
3.67659
9.64766
10.3583
10.5138
10.6583
10.7633
10.7979
10.7728
10.5515
10.4361
1
1
1
1
1
1
1
1
1
1
1
1
1
1
2.73409
9.03235
10.268
10.399
10.5021
10.5723
10.5613
10.4876
10.3111
10.1217
1
1
1
1
1
1
1
1
1
1
1
1
1
1
1.77477
8.13255
10.2158
10.2546
10.3439
10.3806
10.3285
10.2141
10.0592
9.90839
1
1
1
1
1
1
1
1
1
1
1
1
1
1
1.08199
6.90219
10.1861
10.0896
10.117
10.121
10.0516
9.91767
9.73496
9.47107
1
1
1
1
1
1
1
1
1
1
1
1
1
1
1.00057
5.25642
9.59161
9.79912
9.86556
9.8364
9.7512
9.58843
9.33287
8.87769
1
1
1
1
1
1
1
1
1
1
1
1
1
1
0.999992
3.40891
8.91433
9.6584
9.69476
9.64366
9.52192
9.30588
8.97394
8.42592
1
1
1
1
1
1
1
1
1
1
1
1
1
1
0.999998
1.77991
7.92661
9.64027
9.52269
9.41018
9.25495
9.00278
8.61774
8.08094
1
1
1
1
1
1
1
1
1
1
1
1
1
1
1
1.06618
6.15851
9.2347
9.23695
9.14516
8.98589
8.72835
8.33525
7.78227
1
1
1
1
1
1
1
1
1
1
1
1
1
1
1
1.00015
3.69723
8.59419
9.11351
9.01081
8.81278
8.51245
8.1106
7.52987
1
1
1
1
1
1
1
1
1
1
1
1
1
1
1
0.999998
1.57476
7.6192
9.14735
8.84845
8.59377
8.27262
7.87418
7.33849
1
1
1
1
1
1
1
1
1
1
1
1
1
1
1
0.999999
1.02948
5.57968
8.67207
8.48529
8.31456
8.04147
7.68636
7.21178
1
1
1
1
1
1
1
1
1
1
1
1
1
1
1
1
0.99995
2.80081
7.9216
8.37186
8.21269
7.94315
7.58589
7.13665
1
1
1
1
1
1
1
1
1
1
1
1
1
1
1
1
0.999984
1.22908
6.08337
8.3136
8.10663
7.83035
7.48067
7.06251
1
1
1
1
1
1
1
1
1
1
1
1
1
1
1
1
0.999997
1.00405
3.24771
7.59662
7.97373
7.70977
7.38665
7.00033
1
1
1
1
1
1
1
1
1
1
1
1
1
1
1
1
1
0.999999
1.34461
5.95011
7.93739
7.64802
7.34499
6.97463
1
1
1
1
1
1
1
1
1
1
1
1
1
1
1
1
1
1
1.00953
3.04898
7.19202
7.57188
7.26397
6.91508
1
1
1
1
1
1
1
1
1
1
1
1
1
1
1
1
1
1
1.00003
1.29256
5.40841
7.58338
7.23
6.90778
1
1
1
1
1
1
1
1
1
1
1
1
1
1
1
1
1
1
1
1.00721
2.45539
6.52872
7.19085
6.89144
1
1
1
1
1
1
1
1
1
1
1
1
1
1
1
1
1
1
1
1.00003
1.15156
4.32748
7.11524
6.91851
1
1
1
1
1
1
1
1
1
1
1
1
1
1
1
1
1
1
1
1
1.00248
1.78982
5.73175
6.92159
1
1
1
1
1
1
1
1
1
1
1
1
1
1
1
1
1
1
1
1
1.00001
1.04772
3.00273
6.27018
1
1
1
1
1
1
1
1
1
1
1
1
1
1
1
1
1
1
1
1
1
1.00054
1.281
4.31828
1
1
1
1
1
1
1
1
1
1
1
1
1
1
1
1
1
1
1
1
1
1
1.00791
1.8413
1
1
1
1
1
1
1
1
1
1
1
1
1
1
1
1
1
1
1
1
1
1
1.00005
1.05543
1
1
1
1
1
1
1
1
1
1
1
1
1
1
1
1
1
1
1
1
1
1
1
1.00076
1
1
1
1
1
1
1
1
1
1
1
1
1
1
1
1
1
1
1
1
1
1
1
1
1
1
1
1
1
1
1
1
1
1
1
1
1
1
1
1
1
1
1
1
1
1
1
1
1
1
1
1
1
1
1
1
1
1
1
1
1
1
1
1
1
1
1
1
1
1
1
1
1
1
1
1
1
1
1
1
1
1
1
1
1
1
1
1
1
1
1
1
1
1
1
1
1
1
1
1
1
1
1
1
1
1
1
1
1
1
1
1
1
1
1
1
1
1
1
1
1
1
1
1
1
1
1
1
1
1
1
1
1
1
1
1
1
1
1
1
1
1
1
1
1
1
1
1
1
1
1
1
1
1
1
1
1
1
1
1
1
1
1
1
1
1
1
1
1
1
1
1
1
1
1
1
1
1
1
1
1
1
1
1
1
1
1
1
1
1
1
1
1
1
1
1
1
1
1
1
1
1
1
1
1
1
1
1
1
1
1
1
1
1
1
1
1
1
1
1
1
1
1
1
1
1
1
1
1
1
1
1
1
1
1
1
1
1
1
1
9.28216
9.88214
10.2283
10.6947
10.0026
10.2238
9.88932
10.256
8.76802
6.94965
8.06117
6.16604
7.56447
5.84883
7.14286
5.7764
6.88785
5.82646
6.75284
5.87914
6.68817
5.94979
6.64709
6.00882
6.62273
6.05865
6.59805
6.09064
6.57793
6.12149
6.57497
6.15291
6.54891
6.16521
6.56707
6.21156
6.57372
6.23312
6.61787
6.28408
6.6158
6.2949
6.63006
6.35154
6.50346
6.42162
5.20478
6.37145
2.62304
5.65313
1.19454
3.48483
1.00496
1.47008
1.00003
1.02107
1
1.00022
1
1
1
1
1
1
1
1
1
1
1
1
1
1
1.72272
0.555066
0.346685
0.293752
0.300868
0.375528
0.504357
0.64298
0.791572
0.93467
1.04471
1.12588
1.21259
1.23308
1.22918
1.22694
1.25272
1.25459
1.26582
1.31997
1.34492
1.34346
1.32784
1.29942
1.28619
1.29095
1.3032
1.32649
1.34279
1.34435
1.34489
1.34292
1.33478
1.32124
1.57257
4.7407
6.47562
6.46534
6.39787
6.28361
6.16223
6.06806
6.0068
5.92261
5.82221
5.69698
5.56094
5.43481
5.32426
5.23074
5.15346
5.06219
4.94348
4.82475
4.71365
4.61531
4.52897
4.45844
4.4129
4.40356
4.3574
4.27607
4.18859
4.07168
3.92036
3.80287
3.73955
3.69117
3.67051
3.68307
3.65644
3.59729
3.52159
3.39495
3.25438
3.18017
3.13708
3.10567
3.10022
3.09578
3.06031
3.01614
2.94061
2.8155
2.72615
2.68811
2.65853
2.63755
2.62967
2.6083
2.57836
2.54064
2.4757
2.35426
2.93008
1.52572
1.07952
0.89957
0.724845
0.690481
0.660912
0.640683
0.66681
0.728969
0.792374
0.872015
0.97681
1.07416
1.10651
1.1288
1.16172
1.19625
1.23496
1.28463
1.30783
1.31646
1.30906
1.30031
1.29334
1.29726
1.30421
1.31786
1.33614
1.34262
1.34322
1.33897
1.32516
1.33966
1.59279
4.49342
6.55797
6.48931
6.32364
6.19641
6.07907
5.98992
5.91139
5.83018
5.77848
5.70543
5.57621
5.42107
5.26933
5.14616
5.06747
5.02147
4.96993
4.88576
4.78241
4.65914
4.5366
4.44554
4.37721
4.33914
4.31025
4.2524
4.17757
4.0921
3.9863
3.85743
3.75575
3.69965
3.66436
3.6422
3.60474
3.55815
3.49791
3.41422
3.31645
3.21873
3.15494
3.11884
3.09622
3.07218
3.03619
2.99119
2.93032
2.84089
2.74811
2.69379
2.66166
2.63489
2.61281
2.59418
2.57029
2.53729
2.48657
2.37506
3.75529
2.53251
1.75013
1.39173
1.12246
0.933672
0.847914
0.765722
0.70901
0.730204
0.759097
0.80972
0.874244
0.955585
1.01308
1.05544
1.10663
1.17907
1.23265
1.27205
1.29491
1.31555
1.32158
1.31989
1.31844
1.32591
1.32393
1.32282
1.32169
1.32465
1.32613
1.32342
1.3461
1.54017
2.15201
3.65237
5.98153
6.43994
6.41392
6.2865
6.15944
6.03633
5.90638
5.80201
5.75361
5.70505
5.60735
5.48035
5.31094
5.12932
5.00717
4.93167
4.90404
4.88132
4.81807
4.73551
4.62506
4.48335
4.36595
4.28499
4.22466
4.1777
4.12417
4.06649
4.00826
3.93622
3.83085
3.72216
3.65541
3.60299
3.55215
3.49384
3.437
3.39403
3.34879
3.29421
3.21565
3.13227
3.08134
3.04275
3.00034
2.95174
2.89713
2.84422
2.7873
2.72276
2.66754
2.63072
2.60186
2.57361
2.54207
2.507
2.47323
2.39619
4.28715
3.23022
2.48253
1.95638
1.59227
1.315
1.16711
1.05765
0.94659
0.890134
0.830756
0.803798
0.808934
0.837702
0.880476
0.935254
0.995559
1.07503
1.14172
1.1789
1.20286
1.24205
1.27831
1.30196
1.32015
1.34018
1.34011
1.33771
1.33133
1.32274
1.31492
1.33547
1.50255
2.19281
2.9503
3.19915
4.2661
5.51505
6.21733
6.34142
6.20831
6.04722
5.84751
5.73625
5.68756
5.63184
5.55337
5.45254
5.32902
5.17189
5.01717
4.92239
4.86046
4.82497
4.78196
4.71639
4.63909
4.53038
4.3894
4.27205
4.19893
4.14149
4.0939
4.04896
4.00229
3.9515
3.87976
3.7637
3.64038
3.55707
3.49162
3.43771
3.40003
3.37938
3.35784
3.32201
3.26991
3.18282
3.08175
3.01166
2.95663
2.90576
2.86764
2.83604
2.80232
2.75846
2.69573
2.63241
2.58836
2.55174
2.51397
2.47724
2.44969
2.39835
4.7116
3.73972
3.04911
2.51089
2.05467
1.76553
1.52418
1.32401
1.18165
1.07906
0.981987
0.898872
0.853519
0.835836
0.847723
0.873287
0.906116
0.958896
1.01575
1.05852
1.09668
1.15139
1.20334
1.24095
1.26795
1.2974
1.3139
1.32811
1.33232
1.33138
1.34316
1.48619
2.17259
2.95837
3.31445
3.26858
3.35801
4.01834
5.19431
5.92002
6.16528
6.09251
5.92232
5.75403
5.64065
5.55562
5.49011
5.41148
5.32209
5.21366
5.07974
4.94674
4.85951
4.79433
4.74508
4.69333
4.62781
4.54663
4.43023
4.28346
4.17034
4.10947
4.06463
4.03317
4.00089
3.95415
3.89361
3.78911
3.63345
3.50893
3.44749
3.40726
3.38196
3.37848
3.36433
3.32932
3.28729
3.21578
3.09111
2.97639
2.91572
2.87979
2.8529
2.83225
2.80768
2.77564
2.72782
2.65087
2.57786
2.53027
2.49015
2.45379
2.42851
2.38768
4.98231
4.15617
3.48554
2.96047
2.46963
2.14336
1.90678
1.64065
1.45488
1.31808
1.2104
1.10909
1.04774
0.980675
0.92546
0.920682
0.917907
0.901793
0.903505
0.916477
0.947638
0.997189
1.07303
1.14421
1.19625
1.2427
1.27306
1.29312
1.29522
1.31806
1.47987
2.10573
3.02906
3.32119
3.38636
3.36136
3.28142
3.3121
3.76356
4.72919
5.61074
5.89854
5.94092
5.79535
5.61243
5.46909
5.39427
5.34004
5.291
5.21748
5.11781
4.9838
4.83827
4.74869
4.68687
4.64332
4.59733
4.53448
4.45646
4.34375
4.19474
4.08397
4.02963
3.98968
3.95897
3.91506
3.85643
3.77372
3.65716
3.52871
3.44516
3.4017
3.3713
3.35836
3.34287
3.30984
3.26984
3.20756
3.09684
2.96378
2.89207
2.86229
2.83812
2.82192
2.80722
2.78078
2.74299
2.66926
2.56944
2.50246
2.46597
2.43675
2.41595
2.3799
5.18914
4.48121
3.84387
3.33502
2.86787
2.4823
2.22743
1.96031
1.73555
1.58316
1.42248
1.30703
1.22492
1.14616
1.06591
1.00911
0.962058
0.914984
0.901004
0.90487
0.909289
0.920473
0.954278
1.00545
1.06649
1.12193
1.18037
1.22847
1.25742
1.4149
2.07456
2.89898
3.33159
3.43813
3.42767
3.37632
3.27992
3.18669
3.19373
3.44044
4.24772
5.2425
5.70936
5.7773
5.64125
5.44696
5.31627
5.25459
5.22784
5.20101
5.12657
5.02284
4.87264
4.72275
4.64081
4.58784
4.55943
4.51482
4.45576
4.38243
4.26845
4.1143
3.99897
3.93919
3.8918
3.84656
3.79537
3.7347
3.66701
3.5869
3.49215
3.42106
3.38278
3.35279
3.31797
3.27692
3.22822
3.16867
3.09384
3.00447
2.91593
2.86544
2.84014
2.82556
2.81166
2.78052
2.73395
2.66577
2.5692
2.48132
2.44092
2.41755
2.40145
2.3697
5.34209
4.7172
4.15372
3.6406
3.19762
2.81623
2.50879
2.2464
2.00955
1.82999
1.66281
1.51243
1.41555
1.32251
1.23249
1.16063
1.09581
1.029
0.974845
0.961812
0.941217
0.929109
0.9292
0.936479
0.951842
0.979902
1.02837
1.10661
1.24953
1.91704
2.73495
3.1682
3.33681
3.38835
3.38468
3.34579
3.26531
3.17279
3.13449
3.12261
3.25499
3.92165
4.85575
5.47033
5.56352
5.45641
5.28413
5.2022
5.15826
5.14352
5.09774
5.02297
4.91932
4.76749
4.6222
4.5433
4.48837
4.46099
4.42978
4.37094
4.29782
4.18688
4.03414
3.9024
3.81607
3.75807
3.71723
3.69503
3.6656
3.62222
3.56557
3.48078
3.37697
3.29268
3.23959
3.19766
3.15479
3.11483
3.08227
3.04648
2.9912
2.90847
2.83208
2.78751
2.75316
2.72181
2.69003
2.64631
2.58306
2.50841
2.43782
2.39825
2.3829
2.35395
5.46947
4.91716
4.38946
3.89632
3.48492
3.11821
2.78036
2.50202
2.27353
2.06121
1.87625
1.73002
1.60778
1.49949
1.39529
1.31264
1.23265
1.1514
1.08098
1.03354
0.995983
0.959984
0.943462
0.942236
0.939894
0.941686
0.952752
1.02614
1.55264
2.48782
2.81134
2.99082
3.11883
3.20469
3.23764
3.24297
3.19996
3.14385
3.10402
3.08546
3.07491
3.15453
3.56816
4.407
5.08942
5.33404
5.2861
5.18939
5.12973
5.0768
5.02851
4.97853
4.91307
4.81859
4.67211
4.51864
4.43395
4.37862
4.33256
4.31038
4.26895
4.20302
4.09482
3.9196
3.7777
3.71331
3.67263
3.64591
3.64087
3.62265
3.58101
3.51857
3.3994
3.26837
3.19465
3.14982
3.11625
3.09342
3.07829
3.05338
3.01858
2.95225
2.84273
2.75649
2.70755
2.67087
2.63364
2.59842
2.56977
2.53076
2.46949
2.40405
2.37909
2.34695
5.56621
5.07045
4.57101
4.12197
3.72979
3.3591
3.01877
2.75305
2.50327
2.28255
2.07839
1.93582
1.80308
1.67255
1.55592
1.46745
1.38075
1.29883
1.22531
1.16182
1.10837
1.05708
1.02498
0.999858
0.970805
0.972072
1.04007
1.42803
2.28216
2.54093
2.64079
2.7154
2.80529
2.88333
2.93298
2.99905
3.04486
3.04388
3.04778
3.0554
3.03675
2.9908
3.00369
3.22616
3.87228
4.65317
5.05152
5.18369
5.1243
5.02018
4.9484
4.89746
4.85365
4.79733
4.71117
4.57381
4.41199
4.30812
4.25581
4.22194
4.20412
4.1616
4.09142
3.98314
3.83989
3.71656
3.65026
3.61265
3.59666
3.59647
3.56409
3.50764
3.41566
3.29143
3.1869
3.13226
3.09961
3.08203
3.08045
3.05778
3.02084
2.95993
2.85667
2.74241
2.67297
2.63136
2.60021
2.57356
2.54757
2.52088
2.48691
2.43339
2.38721
2.35246
5.65159
5.18856
4.73072
4.31979
3.93599
3.56788
3.24887
2.9761
2.72255
2.49009
2.29395
2.12595
1.98037
1.845
1.72328
1.6225
1.52725
1.43174
1.35178
1.29093
1.23295
1.17608
1.1159
1.06234
1.02238
1.06763
1.4629
2.22204
2.69623
2.6804
2.63758
2.58036
2.55242
2.54738
2.56292
2.61015
2.70434
2.80229
2.90212
2.93781
2.91619
2.87698
2.85686
2.83994
2.95664
3.44417
4.21774
4.80555
5.03761
4.97935
4.88528
4.81013
4.75517
4.71685
4.66527
4.59477
4.48129
4.33207
4.20902
4.14479
4.09702
4.06159
4.025
3.97232
3.89861
3.80158
3.69251
3.60397
3.54985
3.50446
3.46619
3.42772
3.38335
3.31791
3.23776
3.15993
3.10324
3.06406
3.0256
2.98986
2.95707
2.91768
2.85064
2.75167
2.65632
2.60656
2.5805
2.55818
2.53651
2.51397
2.49072
2.45906
2.41278
2.34236
5.72105
5.28116
4.8684
4.48539
4.11087
3.7516
3.45657
3.17943
2.92735
2.68195
2.49482
2.31295
2.15447
2.00294
1.88104
1.76859
1.66798
1.57775
1.48663
1.41001
1.34503
1.28374
1.22129
1.1686
1.20511
1.5826
2.36109
2.84174
2.84081
2.75692
2.65811
2.58291
2.52262
2.49397
2.47611
2.46544
2.47309
2.50595
2.55446
2.61922
2.65875
2.68582
2.68132
2.67011
2.67779
2.76785
3.12829
3.76313
4.45304
4.75562
4.78302
4.71432
4.65335
4.61624
4.58917
4.54627
4.48531
4.39828
4.26344
4.11393
4.02328
3.97454
3.93888
3.9111
3.87531
3.82808
3.7569
3.64926
3.52727
3.44491
3.39683
3.35884
3.32447
3.29298
3.25604
3.20284
3.12959
3.05133
2.98831
2.9382
2.89455
2.85262
2.81003
2.75609
2.68613
2.61394
2.56913
2.54561
2.52599
2.50859
2.48903
2.46505
2.42519
2.33246
5.76601
5.36812
4.99345
4.62768
4.26127
3.93745
3.6442
3.36605
3.09525
2.87574
2.67618
2.48731
2.31352
2.16342
2.03767
1.91218
1.79911
1.70151
1.62176
1.53656
1.46706
1.38994
1.3175
1.35385
1.74216
2.54965
3.06653
3.06045
2.96204
2.86702
2.78801
2.70772
2.61351
2.52748
2.47057
2.43416
2.41389
2.40264
2.3849
2.36692
2.35395
2.36761
2.39789
2.4337
2.46725
2.49461
2.55596
2.75725
3.23455
3.86215
4.39523
4.58354
4.54109
4.53282
4.49175
4.47566
4.42826
4.37514
4.30133
4.17951
4.02472
3.92095
3.86992
3.83376
3.81513
3.79156
3.74827
3.68281
3.5727
3.43509
3.34597
3.30617
3.27882
3.25506
3.22806
3.19511
3.14357
3.06199
2.97025
2.89779
2.84477
2.80298
2.76967
2.73962
2.70469
2.65424
2.5876
2.53673
2.51246
2.49518
2.48026
2.45853
2.4227
2.32281
5.83241
5.46174
5.1062
4.74868
4.40322
4.1
3.807
3.52326
3.26186
3.05071
2.83916
2.65184
2.46469
2.32528
2.17954
2.05486
1.93332
1.83604
1.74403
1.6529
1.57023
1.49658
1.5466
2.00119
2.87149
3.33809
3.30779
3.20618
3.09932
3.0311
2.95684
2.86639
2.76544
2.65175
2.54947
2.47636
2.41757
2.37446
2.33736
2.31466
2.30629
2.27591
2.2321
2.19974
2.19952
2.218
2.23387
2.26256
2.3686
2.68262
3.25528
3.92234
4.29716
4.36863
4.37054
4.35718
4.36214
4.31959
4.25975
4.19444
4.0857
3.93825
3.82966
3.77792
3.74676
3.72626
3.69584
3.65323
3.58963
3.47687
3.34446
3.2789
3.24681
3.21719
3.18752
3.15637
3.11664
3.05403
2.96419
2.87509
2.81422
2.77605
2.74752
2.72302
2.6982
2.66573
2.61506
2.55342
2.5047
2.47243
2.44693
2.42393
2.39639
2.30801
5.88336
5.53436
5.18516
4.84384
4.53502
4.23569
3.94591
3.66113
3.42923
3.20442
2.99731
2.79085
2.62407
2.47245
2.32437
2.188
2.06769
1.9632
1.86019
1.76913
1.67582
1.73128
2.2586
3.2848
3.75046
3.64069
3.45986
3.33086
3.25408
3.18322
3.0997
3.01237
2.9217
2.81596
2.68996
2.57429
2.49193
2.42856
2.36941
2.32203
2.28286
2.25296
2.22623
2.18353
2.09364
2.03398
2.01498
2.01612
2.02864
2.07845
2.24595
2.67588
3.26589
3.8701
4.13387
4.16387
4.19076
4.19656
4.20988
4.14461
4.08144
3.98487
3.87212
3.76511
3.70168
3.66591
3.64286
3.61334
3.56459
3.48466
3.38007
3.28302
3.22314
3.18332
3.14887
3.1155
3.07789
3.02584
2.95077
2.86617
2.80105
2.76
2.73134
2.70757
2.6838
2.65575
2.61908
2.56687
2.50305
2.44937
2.41076
2.37729
2.34454
2.28069
5.94761
5.61386
5.27092
4.9473
4.65241
4.36169
4.07046
3.8112
3.58126
3.35299
3.13972
2.93852
2.77969
2.61002
2.46682
2.31741
2.2015
2.08744
1.9783
1.87638
1.94415
2.52589
3.59884
4.13517
4.06985
3.86864
3.65104
3.48624
3.39667
3.31068
3.2268
3.14283
3.05749
2.96338
2.84484
2.69568
2.56988
2.50202
2.44412
2.38735
2.33092
2.28284
2.23938
2.19143
2.12244
2.02729
1.96044
1.93031
1.91451
1.90856
1.91351
1.96287
2.13932
2.55741
3.1605
3.68181
3.96854
4.02541
4.05606
4.0847
4.03395
3.97675
3.90998
3.81879
3.71474
3.62994
3.57573
3.52742
3.47391
3.42638
3.37417
3.30262
3.2224
3.15743
3.11135
3.07398
3.03831
2.99568
2.93686
2.86553
2.79973
2.74984
2.71269
2.68311
2.65734
2.63185
2.6023
2.55942
2.49839
2.43206
2.37892
2.3351
2.30012
2.25657
5.97826
5.65486
5.3345
5.04113
4.75417
4.46221
4.17971
3.95202
3.71772
3.49238
3.26158
3.08867
2.914
2.74808
2.58993
2.44902
2.32452
2.20174
2.09282
2.17681
2.85266
3.92008
4.42324
4.37454
4.21674
4.06681
3.88952
3.67395
3.52547
3.43097
3.34545
3.26014
3.17428
3.08766
2.99076
2.85942
2.69789
2.58191
2.51076
2.45074
2.39371
2.33959
2.28728
2.23423
2.17304
2.08238
1.96411
1.90293
1.87827
1.86011
1.84074
1.83114
1.82658
1.85522
2.01534
2.40301
3.0122
3.50438
3.77201
3.87778
3.96191
3.96169
3.91779
3.83592
3.73017
3.60686
3.52201
3.47184
3.42379
3.37607
3.32945
3.28172
3.21933
3.14521
3.08379
3.03714
2.99766
2.95823
2.91177
2.85686
2.79898
2.74693
2.70441
2.66712
2.63162
2.59781
2.56438
2.52797
2.47933
2.4154
2.35218
2.30207
2.27755
2.24697
6.03857
5.72873
5.425
5.1391
4.85938
4.57242
4.31257
4.07846
3.84613
3.60704
3.39792
3.22995
3.04693
2.87939
2.70844
2.57293
2.44122
2.32778
2.4538
3.30779
4.40464
4.75685
4.70062
4.53999
4.39632
4.27533
4.11998
3.90829
3.67756
3.54678
3.45673
3.36941
3.28066
3.19346
3.10305
2.99197
2.83599
2.68026
2.58911
2.52296
2.46132
2.40155
2.34438
2.28834
2.22907
2.15313
2.04405
1.94197
1.88339
1.83849
1.80626
1.78643
1.76719
1.76059
1.7419
1.74933
1.88187
2.29098
2.913
3.38237
3.68664
3.81199
3.81727
3.78232
3.6993
3.57589
3.48365
3.43922
3.40021
3.36204
3.32071
3.26528
3.19439
3.12852
3.07705
3.02261
2.96946
2.92231
2.87843
2.833
2.78319
2.73132
2.6862
2.64743
2.61143
2.57933
2.55034
2.51372
2.46086
2.39197
2.33776
2.3059
2.28833
2.25097
6.1219
5.80827
5.51571
5.23688
4.95574
4.67232
4.42885
4.19221
3.96289
3.72106
3.53374
3.35036
3.17382
2.98966
2.82831
2.69197
2.57315
2.75416
3.75496
5.13187
5.25064
4.99988
4.80927
4.66808
4.57057
4.45305
4.30302
4.12237
3.88392
3.67683
3.56023
3.46551
3.37526
3.28732
3.19903
3.10245
2.97691
2.80451
2.66025
2.58052
2.51773
2.45927
2.40386
2.35041
2.2952
2.22995
2.14319
2.03131
1.9274
1.85878
1.81642
1.78205
1.75051
1.72104
1.69301
1.67389
1.62628
1.64033
1.80012
2.24732
2.83795
3.39449
3.60663
3.62234
3.56715
3.48579
3.4335
3.39795
3.37537
3.34956
3.31558
3.26311
3.19147
3.10354
3.01466
2.95337
2.91098
2.87236
2.83711
2.80404
2.76572
2.71446
2.65788
2.61632
2.58611
2.55286
2.50502
2.44502
2.39127
2.35313
2.32961
2.31179
2.29965
2.26059
6.18374
5.87303
5.59121
5.3171
5.03005
4.7723
4.54128
4.30553
4.06133
3.84193
3.66466
3.47202
3.29499
3.09159
2.94357
2.83738
3.10008
4.2298
5.62049
5.91309
5.62271
5.19354
4.95286
4.81963
4.72418
4.60953
4.4612
4.29409
4.08596
3.85342
3.67807
3.55917
3.46055
3.36896
3.28045
3.19071
3.08827
2.95378
2.79439
2.66226
2.57175
2.49889
2.43449
2.37692
2.32442
2.27343
2.2139
2.13389
2.03731
1.94646
1.87373
1.81655
1.76861
1.72873
1.69236
1.6516
1.60897
1.56489
1.53278
1.56734
1.74752
2.20209
2.76728
3.26194
3.4292
3.37809
3.3683
3.34346
3.3258
3.30946
3.28521
3.24729
3.18165
3.07612
2.96249
2.90051
2.86759
2.84132
2.81652
2.78467
2.73673
2.68824
2.65239
2.62254
2.58969
2.54917
2.4902
2.41732
2.35854
2.33939
2.33303
2.32972
2.31781
2.27594
6.20855
5.9643
5.66627
5.39632
5.12355
4.87939
4.64844
4.41236
4.16158
3.97364
3.77756
3.59758
3.37793
3.20443
3.11788
3.47536
4.80583
6.10526
6.33353
6.10087
5.77836
5.43527
5.17802
5.01994
4.88558
4.7416
4.58432
4.41761
4.23224
4.02704
3.83393
3.68061
3.55656
3.44647
3.34311
3.24383
3.14551
3.04077
2.91952
2.78943
2.67423
2.57979
2.49742
2.42067
2.34785
2.28183
2.22502
2.16992
2.10226
2.02147
1.94378
1.8792
1.82304
1.77449
1.72816
1.68338
1.63464
1.57397
1.52219
1.49254
1.47481
1.5132
1.69739
2.13065
2.65959
3.06155
3.24388
3.27489
3.29741
3.28959
3.24586
3.19045
3.12539
3.01913
2.90131
2.86314
2.85097
2.83267
2.80563
2.76906
2.72187
2.67184
2.62004
2.56596
2.52128
2.48593
2.45115
2.40653
2.37432
2.34842
2.31669
2.28079
2.26567
2.22515
5.79527
6.03526
5.78474
5.48685
5.21813
4.97282
4.74919
4.51568
4.27975
4.07916
3.89225
3.68444
3.48262
3.42685
3.95533
5.53463
6.69211
6.83906
6.53763
6.20746
5.95726
5.70139
5.43639
5.23029
5.0443
4.86274
4.6855
4.51275
4.34219
4.16914
3.99259
3.82504
3.67801
3.54647
3.42155
3.30051
3.18736
3.08488
2.98597
2.88108
2.77141
2.66842
2.5766
2.4914
2.40768
2.3261
2.25243
2.18689
2.12496
2.05745
1.98214
1.91168
1.85479
1.80957
1.76816
1.7255
1.67853
1.62776
1.57185
1.51012
1.4666
1.43921
1.42644
1.46892
1.65948
2.06318
2.56078
2.89081
3.12106
3.17898
3.17931
3.16345
3.11331
3.0025
2.90074
2.8407
2.79992
2.77377
2.75076
2.73056
2.71039
2.68255
2.62193
2.54354
2.48601
2.44695
2.41149
2.391
2.3741
2.34741
2.30399
2.25673
2.23008
2.18121
4.17137
5.8186
5.8669
5.60183
5.31076
5.07717
4.84424
4.60574
4.38223
4.19104
3.99699
3.76499
3.80374
4.55072
6.41299
7.4164
7.2899
6.96417
6.63914
6.38974
6.17705
5.94151
5.67814
5.41808
5.18833
4.98279
4.79258
4.61554
4.44751
4.28089
4.10861
3.93476
3.77468
3.63389
3.50502
3.38159
3.26203
3.14685
3.03609
2.92968
2.82628
2.72661
2.63331
2.54653
2.46253
2.37874
2.29909
2.22849
2.16754
2.10608
2.03678
1.96164
1.88849
1.82401
1.77039
1.72646
1.69204
1.66101
1.61749
1.5569
1.4943
1.44528
1.41411
1.39447
1.38111
1.42416
1.60291
1.97217
2.45037
2.76912
2.97035
3.03262
3.01813
2.98319
2.92041
2.83776
2.77361
2.74954
2.73304
2.71475
2.69083
2.64371
2.56276
2.49797
2.4643
2.43755
2.42021
2.40578
2.38577
2.35567
2.30378
2.23095
2.17897
2.1312
1.85965
4.61391
5.75523
5.6995
5.43047
5.16803
4.93409
4.71352
4.48229
4.2961
4.09581
4.23828
5.32791
7.06442
8.20211
8.04201
7.551
7.11087
6.80744
6.59547
6.37812
6.13273
5.87047
5.59688
5.3395
5.11556
4.91593
4.73306
4.55944
4.38684
4.21027
4.03043
3.85768
3.70421
3.57063
3.45026
3.33591
3.22165
3.10392
2.98531
2.8727
2.76949
2.67326
2.5822
2.49825
2.41928
2.33927
2.25957
2.19152
2.1363
2.07912
2.00981
1.93295
1.86166
1.80552
1.75874
1.70977
1.65815
1.60991
1.56951
1.52527
1.4752
1.43007
1.39016
1.36429
1.34422
1.31999
1.3567
1.5231
1.9021
2.35831
2.76815
2.84198
2.83752
2.81455
2.79035
2.78293
2.76989
2.74673
2.71622
2.67698
2.61473
2.5324
2.46025
2.41744
2.39238
2.37435
2.35748
2.338
2.30931
2.26647
2.20514
2.15183
2.09552
1.062
2.28065
4.88691
5.64647
5.54487
5.28773
5.04142
4.77335
4.58379
4.46584
4.85806
6.39916
7.99553
8.60993
8.50998
8.1567
7.78341
7.38506
7.04088
6.79317
6.54795
6.29079
6.02917
5.75989
5.4928
5.25016
5.0351
4.83987
4.65757
4.47964
4.30149
4.12317
3.94872
3.78572
3.63914
3.50769
3.38652
3.27065
3.15577
3.03915
2.9242
2.8161
2.71639
2.62133
2.52816
2.44447
2.37395
2.30392
2.22481
2.15333
2.09517
2.04213
1.98614
1.91313
1.83043
1.7594
1.71582
1.68196
1.64191
1.60486
1.55668
1.49921
1.45002
1.40871
1.37548
1.34096
1.31132
1.27098
1.25213
1.30505
1.49659
1.91288
2.30783
2.63491
2.71976
2.69904
2.70955
2.70102
2.6712
2.64097
2.60025
2.54446
2.48412
2.42387
2.38597
2.3664
2.34874
2.33096
2.31263
2.28626
2.23791
2.16923
2.11513
2.06353
1.00101
1.13309
2.6875
5.02784
5.54
5.41755
5.13403
4.8615
4.87721
5.66332
7.60652
9.1798
9.19485
8.96877
8.57607
8.30689
8.03264
7.6748
7.29321
6.9855
6.71646
6.44914
6.17811
5.90101
5.62318
5.36419
5.13382
4.92311
4.73008
4.55027
4.37585
4.20277
4.02947
3.85959
3.70103
3.55759
3.42614
3.30269
3.18652
3.07694
2.97129
2.86658
2.76251
2.66333
2.57272
2.48648
2.40316
2.33257
2.27234
2.20688
2.13916
2.06873
2.00536
1.94936
1.88185
1.79764
1.72954
1.70641
1.68913
1.65694
1.60661
1.55286
1.5104
1.47203
1.42983
1.37633
1.32134
1.27041
1.24209
1.23215
1.23001
1.29282
1.51131
1.89117
2.23211
2.46476
2.61195
2.64612
2.64633
2.6356
2.5902
2.51796
2.43994
2.36858
2.3381
2.32782
2.3266
2.3157
2.29485
2.2647
2.21697
2.15417
2.09726
2.04328
1
1.00308
1.23332
3.02226
5.13141
5.38236
5.22397
5.50507
6.8556
8.7631
10.0351
9.9773
9.45876
9.05057
8.74008
8.49248
8.21729
7.87595
7.49462
7.14979
6.8558
6.57485
6.29811
6.02472
5.74925
5.4769
5.2282
5.00617
4.80221
4.61506
4.43908
4.2696
4.10156
3.93193
3.76437
3.60847
3.47058
3.34905
3.23703
3.12511
3.00901
2.89573
2.79124
2.68957
2.59918
2.52284
2.4537
2.379
2.28865
2.19679
2.14165
2.10357
2.05112
1.98356
1.9142
1.84581
1.78758
1.72705
1.66477
1.61546
1.57273
1.53648
1.5028
1.4666
1.42303
1.36872
1.3254
1.30323
1.2806
1.24201
1.20401
1.18708
1.19715
1.26693
1.48226
1.80059
2.12127
2.31839
2.51047
2.55364
2.54516
2.51817
2.44304
2.36659
2.33353
2.31501
2.29105
2.26001
2.2279
2.19263
2.15223
2.10746
2.07226
2.03709
1
1.00002
1.00704
1.35259
3.4347
4.69319
5.79174
8.5652
10.1466
10.477
10.6036
10.2622
9.77088
9.36672
9.07492
8.78449
8.46964
8.13763
7.77031
7.39543
7.06154
6.76999
6.49451
6.22343
5.9516
5.67145
5.39491
5.15739
4.95589
4.77021
4.59497
4.42305
4.24851
4.06965
3.893
3.73098
3.59033
3.46712
3.3521
3.23477
3.10718
2.97402
2.85086
2.73924
2.63149
2.53853
2.46311
2.4045
2.33574
2.24525
2.15838
2.08996
2.03563
1.98226
1.92735
1.8708
1.80426
1.72846
1.66657
1.61425
1.57493
1.54518
1.51474
1.4787
1.43038
1.38079
1.34422
1.3075
1.26996
1.23148
1.20012
1.17137
1.15191
1.14336
1.15399
1.21773
1.41028
1.71105
2.07761
2.24995
2.3565
2.41441
2.40441
2.37816
2.3556
2.32692
2.2839
2.24549
2.21064
2.1726
2.12992
2.08148
2.06186
2.10073
1
1
1.00005
1.0159
1.49491
3.34311
8.87313
11.8317
11.4906
11.0276
10.7756
10.4425
10.0193
9.62675
9.27095
8.93396
8.577
8.22413
7.85371
7.47476
7.11889
6.79587
6.49993
6.2206
5.9464
5.67149
5.40369
5.15711
4.93889
4.74362
4.55946
4.37763
4.19331
4.00949
3.83778
3.68675
3.55368
3.43134
3.31359
3.19508
3.07041
2.93706
2.82115
2.74602
2.68205
2.60599
2.52677
2.4358
2.33828
2.23893
2.14524
2.08584
2.05146
2.01884
1.97497
1.91751
1.83495
1.73732
1.67408
1.64471
1.61765
1.58971
1.55763
1.51867
1.47018
1.41727
1.36535
1.31612
1.27161
1.23315
1.20265
1.17167
1.14781
1.12623
1.1145
1.10542
1.1099
1.17192
1.35845
1.67564
2.02272
2.25868
2.27432
2.27358
2.26338
2.24344
2.22635
2.21495
2.20008
2.17551
2.13686
2.13271
2.18055
2.54351
1
1
1
1.00018
1.0251
4.14961
11.8241
12.447
11.6308
11.1053
10.7703
10.5004
10.1975
9.88368
9.51973
9.15358
8.77156
8.35953
7.97061
7.60345
7.24786
6.91602
6.60895
6.31413
6.02108
5.73159
5.4601
5.21758
5.00335
4.8063
4.61441
4.41904
4.21834
4.02332
3.85208
3.70927
3.5841
3.46394
3.33983
3.20836
3.07724
2.95867
2.84708
2.73536
2.63736
2.56193
2.49293
2.41865
2.33434
2.24975
2.17247
2.09662
2.02402
1.96871
1.92397
1.87614
1.82087
1.76033
1.70072
1.6383
1.58701
1.54952
1.51694
1.48526
1.45231
1.41517
1.37244
1.32853
1.28205
1.24012
1.20877
1.18272
1.16112
1.13902
1.11999
1.09723
1.07701
1.04848
1.05442
1.1339
1.35539
1.67183
1.98445
2.19982
2.20772
2.15862
2.14514
2.15986
2.21302
2.31113
2.45882
2.67473
2.97632
3.5191
1
1
1
1
1.00073
5.46266
11.5749
11.6927
11.3382
11.1959
10.9351
10.63
10.2773
9.91491
9.53801
9.15712
8.76324
8.31762
7.91882
7.59499
7.27711
6.96765
6.66308
6.3546
6.04252
5.74315
5.47637
5.24466
5.03617
4.83752
4.63899
4.43543
4.23058
4.0395
3.87439
3.73164
3.60142
3.47567
3.34927
3.22113
3.0927
2.96557
2.84313
2.73356
2.64229
2.56331
2.4889
2.41532
2.34175
2.2666
2.18496
2.09872
2.02388
1.96172
1.90732
1.86109
1.82208
1.78127
1.72278
1.65185
1.58983
1.54254
1.50668
1.47615
1.44966
1.43042
1.40564
1.36398
1.31051
1.26842
1.24351
1.22499
1.20647
1.18549
1.15969
1.1267
1.08882
1.04646
1.00908
1.00271
1.03078
1.143
1.38378
1.68748
1.92202
2.08163
2.24855
2.45383
2.69822
2.97148
3.26278
3.47846
3.70489
3.91998
1
1
1
1
1.00001
6.20779
11.2042
11.4227
11.3711
11.2938
11.0872
10.8397
10.539
10.1702
9.78855
9.37857
8.93092
8.45691
8.03051
7.68798
7.36312
7.03933
6.71511
6.38046
6.04757
5.74364
5.48346
5.25915
5.05414
4.85496
4.6526
4.44364
4.23578
4.04586
3.88228
3.7391
3.60771
3.48181
3.35683
3.2287
3.09482
2.96174
2.84349
2.74495
2.6578
2.57209
2.48572
2.40371
2.32962
2.26282
2.19827
2.12527
2.03696
1.95238
1.88884
1.84269
1.80661
1.77414
1.73878
1.68761
1.60895
1.53783
1.49938
1.47409
1.45123
1.42425
1.38663
1.3321
1.27172
1.23796
1.21867
1.20224
1.18536
1.16635
1.14195
1.10444
1.06053
1.01546
0.979545
0.965858
0.952585
0.954614
0.995237
1.15467
1.44093
1.91508
2.50236
3.06412
3.57411
4.08594
4.41119
4.60092
4.65283
4.50473
)
;

boundaryField
{
    inlet
    {
        type            fixedValue;
        value           uniform 1;
    }
    outlet
    {
        type            zeroGradient;
    }
    bottom
    {
        type            zeroGradient;
    }
    top
    {
        type            zeroGradient;
    }
    obstacle
    {
        type            zeroGradient;
    }
    defaultFaces
    {
        type            empty;
    }
}


// ************************************************************************* //
