/*--------------------------------*- C++ -*----------------------------------*\
  =========                 |
  \\      /  F ield         | OpenFOAM: The Open Source CFD Toolbox
   \\    /   O peration     | Website:  https://openfoam.org
    \\  /    A nd           | Version:  7
     \\/     M anipulation  |
\*---------------------------------------------------------------------------*/
FoamFile
{
    version     2.0;
    format      ascii;
    class       volScalarField;
    location    "3.1";
    object      T;
}
// * * * * * * * * * * * * * * * * * * * * * * * * * * * * * * * * * * * * * //

dimensions      [0 0 0 1 0 0 0];

internalField   nonuniform List<scalar> 
16192
(
1
1
1
1
1
1
1
1
1
1
1
1
1
1
1
1
1
1
1
1
1
1
1
1
1
1
1
1
1
1
1
1
1
1
1
1
1
1
1
1
1
1
1
1
1
1
1
1
1
1
1
1
1
1
1
1
1
1
1
1
1
1
1
1
1
1
1
1
1
1
1
1
1
1
1
1
1
1
1
1
1
1
1
1
1
1
1
1
1
1
1
1
1
1
1
1
1
1
1
1
1
1
1
1
1
1
1
1
1
1
1
1
1
1
1
1
1
1
1
1
1
1
1
1
1
1
1
1
1
1
1
1
1
1
1
1
1
1
1
1
1
1
1
1
1
1
1
1
1
1
1
1
1
1
1
1
1
1
1
1
1
1
1
1
1
1
1
1
1
1
1
1
1
1
1
1
1
1
1
1
1
1
1
1
1
1
1
1
1
1
1
1
1
1
1
1
1
1
1
1
1
1
1
1
1
1
1
1
1
1
1
1
1
1
1
1
1
1
1
1
1
1
1
1
1
1
1
1
1
1
1
1
1
1
1
1
1
1
1
1
1
1
1
1
1
1
1
1
1
1
1
1
1
1
1
1
1
1
1
1
1
1
1
1
1
1
1
1
1
1
1
1
1
1
1
1
1
1
1
1
1
1
1
1
1
1
1
1
1
1
1
1
1
1
1
1
1
1
1
1
1
1
1
1
1
1
1
1
1
1
1
1
1
1
1
1
1
1
1
1
1
1
1
1
1
1
1
1
1
1
1
1
1
1
1
1
1
1
1
1
1
1
1
1
1
1
1
1
1
1
1
1
1
1
1
1
1
1
1
1
1
1
1
1
1
1
1
1
1
1
1
1
1
1
1
1
1
1
1
1
1
1
1
1
1
1
1
1
1
1
1
1
1
1
1
1
1
1
1
1
1
1
1
1
1
1
1
1
1
1
1
1
1
1
1
1
1
1
1
1
1
1
1
1
1
1
1
1
1
1
1
1
1
1
1
1
1
1
1
1
1
1
1
1
1
1
1
1
1
1
1
1
1
1
1
1
1
1
1
1
1
1
1
1
1
1
1
1
1
1
1
1
1
1
1
1
1
1
1
1
1
1
1
1
1
1
1
1
1
1
1
1
1
1
1
1
1
1
1
1
1
1
1
1
1
1
1
1
1
1
1
1
1
1
1
1
1
1
1
1
1
1
1
1
1
1
1
1
1
1
1
1
1
1
1
1
1
1
1
1
1
1
1
1
1
1
1
1
1
1
1
1
1
1
1
1
1
1
1
1
1
1
1
1
1
1
1
1
1
1
1
1
1
1
1
1
1
1
1
1
1
1
1
1
1
1
1
1
1
1
1
1
1
1
1
1
1
1
1
1
1
1
1
1
1
1
1
1
1
1
1
1
1
1
1
1
1
1
1
1
1
1
1
1
1
1
1
1
1
1
1
1
1
1
1
1
1
1
1
1
1
1
1
1
1
1
1
1
1
1
1
1
1
1
1
1
1
1
1
1
1
1
1
1
1
1
1
1
1
1
1
1
1
1
1
1
1
1
1
1
1
1
1
1
1
1
1
1
1
1
1
1
1
1
1
1
1
1
1
1
1
1
1
1
1
1
1
1
1
1
1
1
1
1
1
1
1
1
1
1
1
1
1
1
1
1
1
1
1
1
1
1
1
1
1
1
1
1
1
1
1
1
1
1
1
1
1
1
1
1
1
1
1
1
1
1
1
1
1
1
1
1
1
1
1
1
1
1
1
1
1
1
1
1
1
1
1
1
1
1
1
1
1
1
1
1
1
1
1
1
1
1
1
1
1
1
1
1
1
1
1
1
1
1
1
1
1
1
1
1
1
1
1
1
1
1
1
1
1
1
1
1
1
1
1
1
1
1
1
1
1
1
1
1
1
1
1
1
1
1
1
1
1
1
1
1
1
1
1
1
1
1
1
1
1
1
1
1
1
1
1
1
1
1
1
1
1
1
1
1
1
1
1
1
1
1
1
1
1
1
1
1
1
1
1
1
1
1
1
1
1
1
1
1
1
1
1
1
1
1
1
1
1
1
1
1
1
1
1
1
1
1
1
1
1
1
1
1
1
1
1
1
1
1
1
1
1
1
1
1
1
1
1
1
1
1
1
1
1
1
1
1
1
1
1
1
1
1
1
1
1
1
1
1
1
1
1
1
1
1
1
1
1
1
1
1
1
1
1
1
1
1
1
1
1
1
1
1
1
1
1
1
1
1
1
1
1
1
1
1
1
1
1
1
1
1
1
1
1
1
1
1
1
1
1
1
1
1
1
1
1
1
1
1
1
1
1
1
1
1
1
1
1
1
1
1
1
1
1
1
1
1
1
1
1
1
1
1
1
1
1
1
1
1
1
1
1
1
1
1
1
1
1
1
1
1
1
1
1
1
1
1
1
1
1
1
1
1
1
1
1
1
1
1
1
1
1
1
1
1
1
1
1
1
1
1
1
1
1
1
1
1
1
1
1
1
1
1
1
1
1
1
1
1
1
1
1
1
1
1
1
1
1
1
1
1
1
1
1
1
1
1
1
1
1
1
1
1
1
1
1
1
1
1
1
1
1
1
1
1
1
1
1
1
1
1
1
1
1
1
1
1
1
1
1
1
1
1
1
1
1
1
1
1
1
1
1
1
1
1
1
1
1
1
1
1
1
1
1
1
1
1
1
1
1
1
1
1
1
1
1
1
1
1
1
1
1
1
1
1
1
1
1
1
1
1
1
1
1
1
1
1
1
1
1
1
1
1
1
1
1
1
1
1
1
1
1
1
1
1
1
1
1
1
1
1
1
1
1
1
1
1
1
1
1
1
1
1
1
1
1
1
1
1
1
1
1
1
1
1
1
1
1
1
1
1
1
1
1
1
1
1
1
1
1
1
1
1
1
1
1
1
1
1
1
1
1
1
1
1
1
1
1.00003
1.00118
1.02534
1.24979
1.5865
1.68543
1.70141
1.70211
1.69941
1.70138
1.71004
1.71379
1.71053
1.70365
1.69736
1.69467
1.69006
1.68985
1.69083
1.68979
1.68834
1.68723
1.68597
1.68527
1.6812
1.67872
1.6786
1.67758
1.6765
1.67555
1.67313
1.66841
1.66279
1.65801
1.65675
1.65741
1.65904
1.65993
1.65941
1.6581
1.65627
1.65289
1.64796
1.6427
1.64013
1.63908
1.63913
1.63921
1.63945
1.63976
1.63939
1.63678
1.63056
1.62467
1.62408
1.62489
1.62843
1.63767
1.64823
1.65876
1.66411
1.66397
1.66391
1.66298
1.66082
1.65676
1.65091
1.64536
1.64062
1.63758
1.63743
1.63863
1.63838
1.63737
1.63341
1.62705
1.62352
1.62238
1.62238
1.62236
1.62264
1.6228
1.62077
1.61398
1.60627
1.60356
1.6033
1.60546
1.60953
1.61018
1.60985
1.60625
1.5988
1.59491
1.59453
1.59438
1.59422
1.59288
1.58786
1.58319
1.58242
1.58276
1.5845
1.58454
1.58392
1.58106
1.57374
1.56639
1.5639
1.5636
1.56409
1.56445
1.56429
1.56339
1.55995
1.55489
1.55178
1.55122
1.55144
1.55105
1.54904
1.54347
1.53612
1.53257
1.53191
1.53314
1.53741
1.53891
1.53821
1.53739
1.53536
1.52983
1.51752
1.50697
1.50385
1.50348
1.50381
1.50791
1.51624
1.5208
1.52061
1.52004
1.51858
1.51447
1.50459
1.49071
1.48402
1.48222
1.48182
1.48363
1.4911
1.49744
1.49766
1.4952
1.48831
1.47843
1.47397
1.4726
1.47247
1.47287
1.47281
1.4724
1.47147
1.46906
1.46422
1.46073
1.46022
1.46063
1.4634
1.49037
1.62323
1.85338
1.97641
2.02811
2.03399
2.03157
2.02197
2.01033
2.00431
2.00131
1
1
1
1
1
1
1
1
1
1
1
1
1
1
1
1
1
1
1
1
1
1
1
1
1
1
1
1
1
1
1
1
1
1
1
1
1
1
1
1
1
1
1
1
1
1
1
1
1
1
1
1.00001
1.00059
1.0268
1.27733
1.54716
1.64171
1.68971
1.70978
1.71012
1.71261
1.71051
1.70556
1.69788
1.69099
1.69008
1.69033
1.69194
1.69111
1.69009
1.68943
1.68907
1.68881
1.68499
1.68148
1.68041
1.67996
1.67829
1.67685
1.67461
1.67009
1.66487
1.66083
1.65935
1.66029
1.66213
1.66269
1.66177
1.6598
1.65748
1.65391
1.64934
1.64455
1.64199
1.64119
1.64136
1.64216
1.64234
1.64249
1.64204
1.63974
1.63399
1.62536
1.62381
1.62396
1.62482
1.62796
1.63564
1.64503
1.6541
1.66112
1.66305
1.66454
1.66418
1.66196
1.65748
1.65216
1.64754
1.64442
1.64393
1.64429
1.64325
1.64171
1.63744
1.63074
1.62656
1.62475
1.62417
1.62335
1.62324
1.62329
1.62188
1.61646
1.60897
1.60559
1.60513
1.60696
1.61035
1.61089
1.61049
1.60698
1.59987
1.59544
1.59483
1.59484
1.595
1.59432
1.58981
1.58494
1.58408
1.58433
1.58587
1.58589
1.58555
1.58307
1.57591
1.56835
1.56589
1.56562
1.56616
1.56658
1.56653
1.56587
1.56266
1.55756
1.55468
1.55425
1.55453
1.55422
1.55234
1.54681
1.5392
1.53561
1.53491
1.53584
1.53976
1.54114
1.54047
1.53977
1.538
1.53299
1.52148
1.51076
1.50723
1.5068
1.50707
1.51101
1.51939
1.52366
1.52335
1.52271
1.52108
1.51667
1.506
1.492
1.48612
1.48452
1.48428
1.48658
1.49492
1.5014
1.50145
1.49877
1.49115
1.4801
1.47594
1.475
1.47504
1.47528
1.47518
1.47476
1.474
1.47219
1.46806
1.46407
1.4636
1.46407
1.46866
1.52064
1.70129
1.90493
2.01779
2.03985
2.03825
2.03075
2.02131
2.01152
2.00566
2.00246
2.001
1
1
1
1
1
1
1
1
1
1
1
1
1
1
1
1
1
1
1
1
1
1
1
1
1
1
1
1
1
1
1
1
1
1
1
1
1
1
1
1
1
1
1
1
1
1
1
1
1
1
1
1
1
1.00066
1.03319
1.22178
1.42322
1.6295
1.71295
1.71397
1.71075
1.70615
1.69791
1.68766
1.6883
1.69058
1.69294
1.69313
1.69217
1.69155
1.69152
1.69133
1.68676
1.68309
1.68223
1.68255
1.68089
1.67826
1.67624
1.67204
1.66677
1.66376
1.66233
1.6631
1.66472
1.66519
1.66392
1.66153
1.65868
1.65487
1.65075
1.64669
1.64423
1.64346
1.64367
1.64454
1.64468
1.64458
1.64399
1.64188
1.63722
1.62908
1.62436
1.62405
1.62422
1.62513
1.62838
1.63438
1.64137
1.64716
1.65431
1.65901
1.66281
1.66281
1.66116
1.6581
1.6541
1.65185
1.65194
1.65143
1.64938
1.64725
1.64279
1.63559
1.63067
1.62821
1.62743
1.62622
1.62523
1.62513
1.62421
1.61996
1.61287
1.6086
1.60789
1.60921
1.61128
1.61159
1.61094
1.60752
1.60119
1.59658
1.59556
1.59562
1.59586
1.59532
1.59125
1.58633
1.58532
1.58553
1.58686
1.5869
1.58673
1.58463
1.57774
1.56998
1.56749
1.56726
1.56802
1.56849
1.56852
1.5681
1.56506
1.55991
1.55723
1.55694
1.5573
1.55707
1.5554
1.54994
1.54208
1.53842
1.53769
1.53836
1.54202
1.54356
1.54295
1.54237
1.54085
1.53617
1.52531
1.51445
1.51066
1.51015
1.51035
1.51403
1.52227
1.52656
1.52616
1.52538
1.52354
1.51873
1.50737
1.49347
1.48817
1.48681
1.48665
1.48949
1.49865
1.50535
1.50527
1.50242
1.49434
1.48212
1.47736
1.47647
1.47676
1.47823
1.47789
1.47752
1.47698
1.47565
1.4724
1.46746
1.46679
1.46757
1.47822
1.56639
1.78041
1.952
2.03612
2.04763
2.0442
2.03107
2.01576
2.00979
2.00749
2.00653
2.00803
2.0087
1
1
1
1
1
1
1
1
1
1
1
1
1
1
1
1
1
1
1
1
1
1
1
1
1
1
1
1
1
1
1
1
1
1
1
1
1
1
1
1
1
1
1
1
1
1
1
1
1
1
1
1
1
1
1.00067
1.01602
1.10738
1.39936
1.66804
1.7063
1.70577
1.70158
1.68836
1.6877
1.68958
1.69508
1.69837
1.69592
1.69344
1.69228
1.69239
1.68722
1.68395
1.68397
1.68493
1.68308
1.67947
1.67713
1.67382
1.66896
1.66621
1.66575
1.66586
1.66689
1.66739
1.66598
1.66309
1.6597
1.65595
1.65235
1.64905
1.64689
1.64624
1.64646
1.64689
1.64669
1.6461
1.64538
1.64346
1.63915
1.63245
1.62743
1.62559
1.62549
1.62564
1.6269
1.62998
1.63353
1.63665
1.63901
1.64328
1.65053
1.65629
1.65871
1.65961
1.65823
1.65744
1.6589
1.65865
1.65631
1.65364
1.6493
1.64175
1.63587
1.63261
1.63103
1.63068
1.62884
1.62848
1.62798
1.62485
1.61821
1.6127
1.61147
1.612
1.61256
1.6126
1.61154
1.60837
1.60308
1.59865
1.59711
1.59708
1.59702
1.59608
1.59204
1.58742
1.58635
1.58652
1.58779
1.58782
1.58768
1.58584
1.5793
1.57137
1.56872
1.56849
1.56949
1.57028
1.57033
1.57003
1.56707
1.56183
1.55935
1.55915
1.5596
1.55949
1.55814
1.55292
1.54471
1.54079
1.54005
1.54059
1.54426
1.54624
1.5457
1.54524
1.54382
1.53922
1.52868
1.51792
1.51406
1.5135
1.5136
1.51691
1.52493
1.52949
1.52908
1.52815
1.52606
1.52081
1.50865
1.49508
1.49028
1.48911
1.48904
1.49237
1.50227
1.50919
1.50906
1.50615
1.49777
1.48421
1.47868
1.47768
1.47757
1.47981
1.48135
1.48084
1.48062
1.48011
1.47828
1.47201
1.46943
1.47091
1.49553
1.62998
1.85189
1.98941
2.04596
2.05108
2.0476
2.03418
2.0163
2.00886
2.00656
2.00844
2.01474
2.01616
2.01306
1
1
1
1
1
1
1
1
1
1
1
1
1
1
1
1
1
1
1
1
1
1
1
1
1
1
1
1
1
1
1
1
1
1
1
1
1
1
1
1
1
1
1
1
1
1
1
1
1
1
1
1
1
1
1
1.00016
1.00499
1.0916
1.43699
1.63909
1.68427
1.69676
1.69062
1.69158
1.69767
1.7023
1.69959
1.69695
1.69265
1.69062
1.68724
1.68565
1.68616
1.68654
1.68453
1.68092
1.67856
1.67605
1.67108
1.66806
1.66824
1.66864
1.66895
1.6693
1.66809
1.66477
1.66082
1.65721
1.65422
1.65156
1.64991
1.64951
1.64968
1.64954
1.64854
1.64744
1.64643
1.64454
1.64052
1.63462
1.63064
1.62859
1.62825
1.62821
1.62861
1.6298
1.63091
1.63148
1.63204
1.63073
1.63217
1.63951
1.64792
1.65362
1.65711
1.65937
1.66284
1.66378
1.66221
1.65985
1.65619
1.64899
1.64174
1.63798
1.63542
1.63503
1.63386
1.63285
1.63252
1.63065
1.62488
1.61828
1.61589
1.61529
1.61469
1.61401
1.61279
1.61015
1.60587
1.60175
1.59976
1.5994
1.59876
1.59705
1.59277
1.58844
1.58739
1.58753
1.58889
1.58892
1.58864
1.58682
1.5806
1.57268
1.56983
1.56953
1.57061
1.57195
1.57197
1.57172
1.56868
1.5633
1.56097
1.56083
1.56141
1.56144
1.56047
1.55561
1.54715
1.54286
1.54209
1.54244
1.54615
1.54907
1.54869
1.54831
1.54684
1.54199
1.53143
1.52101
1.51727
1.51668
1.51673
1.51969
1.52745
1.53241
1.53206
1.53102
1.52865
1.52288
1.50995
1.49672
1.49245
1.49135
1.49143
1.49526
1.50578
1.51288
1.51272
1.50982
1.50125
1.48646
1.48002
1.47886
1.47856
1.4799
1.48411
1.4849
1.48463
1.48462
1.48372
1.47784
1.47204
1.47527
1.52541
1.70773
1.912
2.0168
2.05202
2.05408
2.05009
2.03721
2.01924
2.01095
2.00887
2.01177
2.0204
2.02257
2.01846
2.00944
1
1
1
1
1
1
1
1
1
1
1
1
1
1
1
1
1
1
1
1
1
1
1
1
1
1
1
1
1
1
1
1
1
1
1
1
1
1
1
1
1
1
1
1
1
1
1
1
1
1
1
1
1
1
1
1
1.00006
1.00407
1.10245
1.41009
1.57094
1.65902
1.6994
1.70003
1.69998
1.69983
1.69934
1.69619
1.68761
1.68584
1.68694
1.68783
1.68733
1.68506
1.68218
1.68019
1.67887
1.67446
1.67069
1.67036
1.67113
1.67081
1.67048
1.66974
1.66664
1.66247
1.65915
1.65646
1.65409
1.65302
1.65297
1.65293
1.65208
1.65053
1.64896
1.64742
1.64538
1.64169
1.63652
1.63311
1.6314
1.63103
1.63132
1.63193
1.63165
1.63148
1.63093
1.62984
1.62694
1.62356
1.62481
1.63083
1.63995
1.64833
1.65509
1.66174
1.66522
1.66514
1.66404
1.66168
1.65632
1.64815
1.64342
1.64096
1.63958
1.63906
1.63798
1.63768
1.63677
1.63254
1.62504
1.62135
1.61932
1.61755
1.61622
1.61488
1.61287
1.60954
1.6058
1.6036
1.60288
1.60144
1.59873
1.59393
1.58977
1.58871
1.58883
1.59036
1.59051
1.58992
1.5879
1.58189
1.57409
1.571
1.57059
1.57168
1.57353
1.57352
1.5732
1.56992
1.56439
1.56217
1.56207
1.56276
1.5629
1.56225
1.55792
1.54932
1.54459
1.54382
1.54405
1.54776
1.55178
1.55172
1.55135
1.54969
1.54438
1.53354
1.5236
1.52014
1.51958
1.51962
1.52235
1.52985
1.53521
1.53503
1.53396
1.53132
1.52494
1.51122
1.49841
1.4945
1.49357
1.49377
1.49808
1.50923
1.51636
1.51616
1.51328
1.50465
1.48897
1.48152
1.48008
1.47967
1.48023
1.48489
1.48939
1.48941
1.48941
1.48851
1.48284
1.47494
1.48328
1.57204
1.78865
1.96133
2.0321
2.05576
2.05711
2.05205
2.04026
2.02346
2.01474
2.0124
2.01546
2.02435
2.02623
2.02244
2.01405
2.00024
1
1
1
1
1
1
1
1
1
1
1
1
1
1
1
1
1
1
1
1
1
1
1
1
1
1
1
1
1
1
1
1
1
1
1
1
1
1
1
1
1
1
1
1
1
1
1
1
1
1
1
1
1
1
1
1
1
1.00005
1.00486
1.09079
1.27603
1.51375
1.68168
1.69906
1.70145
1.70091
1.69689
1.68486
1.68341
1.6865
1.68818
1.68737
1.68524
1.68306
1.68135
1.68051
1.67682
1.67374
1.6734
1.67408
1.67354
1.67251
1.67146
1.66873
1.6644
1.66143
1.65902
1.65667
1.65589
1.65613
1.65572
1.65416
1.65235
1.65048
1.64851
1.64638
1.64304
1.63858
1.63548
1.63396
1.63349
1.63372
1.63496
1.63459
1.63363
1.63252
1.63034
1.62612
1.62113
1.62023
1.62132
1.62533
1.63303
1.6427
1.65343
1.66171
1.66476
1.6652
1.66445
1.6614
1.6544
1.64839
1.64616
1.6449
1.64423
1.64343
1.64323
1.64261
1.64017
1.6333
1.62692
1.62369
1.62112
1.6194
1.61806
1.61636
1.61364
1.61071
1.60866
1.6076
1.60519
1.60154
1.5961
1.59191
1.59073
1.5908
1.59234
1.59272
1.5918
1.58939
1.58352
1.57588
1.57257
1.572
1.573
1.57524
1.57521
1.57449
1.5709
1.56529
1.56311
1.56303
1.56377
1.56397
1.56355
1.55968
1.55116
1.54606
1.5452
1.54543
1.54915
1.55416
1.55461
1.55421
1.55224
1.54632
1.53495
1.52562
1.52254
1.52204
1.52214
1.5248
1.53211
1.53784
1.53792
1.5369
1.53406
1.52699
1.51246
1.50013
1.49656
1.49577
1.49606
1.50089
1.51254
1.51963
1.51946
1.51659
1.50789
1.49143
1.48308
1.48143
1.48091
1.48112
1.48521
1.49273
1.49482
1.49462
1.49334
1.48691
1.47859
1.49962
1.63509
1.86457
1.99536
2.04506
2.05943
2.05948
2.05448
2.04368
2.0276
2.01835
2.01604
2.01902
2.0275
2.02899
2.02518
2.01632
2.00165
1.9926
1
1
1
1
1
1
1
1
1
1
1
1
1
1
1
1
1
1
1
1
1
1
1
1
1
1
1
1
1
1
1
1
1
1
1
1
1
1
1
1
1
1
1
1
1
1
1
1
1
1
1
1
1
1
1
1
1
1
1.00005
1.00291
1.03182
1.20116
1.55078
1.67492
1.69866
1.69722
1.68906
1.68388
1.68462
1.69022
1.69082
1.68788
1.68493
1.68183
1.68086
1.67789
1.67606
1.67624
1.67793
1.67727
1.67543
1.67385
1.67186
1.66723
1.6637
1.66159
1.65943
1.65846
1.65876
1.6582
1.65596
1.65371
1.65163
1.64961
1.64757
1.64461
1.64083
1.63811
1.63675
1.6362
1.63622
1.63687
1.63704
1.63625
1.63494
1.63251
1.6279
1.62063
1.61826
1.61835
1.61902
1.62194
1.62838
1.63806
1.65016
1.65851
1.66276
1.66408
1.6627
1.65783
1.65262
1.65047
1.64972
1.64992
1.64873
1.64851
1.6481
1.64642
1.64124
1.63318
1.62807
1.62504
1.62324
1.62211
1.6208
1.61877
1.61654
1.61479
1.61346
1.61009
1.60555
1.59939
1.59514
1.59386
1.59383
1.59522
1.5957
1.59441
1.59157
1.58576
1.57832
1.57482
1.57407
1.57496
1.57728
1.57715
1.57589
1.57191
1.56626
1.56404
1.56393
1.56467
1.56489
1.56454
1.56101
1.55274
1.54724
1.54628
1.54657
1.55053
1.55624
1.55711
1.55667
1.55435
1.54767
1.53575
1.52709
1.5244
1.52397
1.52415
1.52694
1.53423
1.54028
1.5406
1.53969
1.5367
1.52892
1.51361
1.5018
1.49856
1.49785
1.49826
1.50362
1.51575
1.52265
1.52247
1.51969
1.51091
1.49371
1.48474
1.48296
1.48233
1.48239
1.48615
1.49533
1.49986
1.49969
1.49804
1.48919
1.48492
1.53076
1.71112
1.92655
2.01912
2.05422
2.06434
2.06347
2.05763
2.04635
2.03086
2.02212
2.01962
2.02215
2.03017
2.03162
2.02782
2.0194
2.00487
1.99412
1.98977
1
1
1
1
1
1
1
1
1
1
1
1
1
1
1
1
1
1
1
1
1
1
1
1
1
1
1
1
1
1
1
1
1
1
1
1
1
1
1
1
1
1
1
1
1
1
1
1
1
1
1
1
1
1
1
1
1
1
1
1.00001
1.00061
1.0186
1.22423
1.55132
1.65612
1.68108
1.6898
1.68839
1.68994
1.69361
1.69056
1.68776
1.68383
1.67954
1.6781
1.67751
1.67846
1.68132
1.68071
1.67823
1.6761
1.6741
1.67004
1.66591
1.66386
1.66273
1.66128
1.66112
1.66046
1.65768
1.65458
1.65225
1.65066
1.64904
1.64652
1.64333
1.64082
1.63973
1.63918
1.6389
1.63879
1.63874
1.63826
1.63707
1.63482
1.63074
1.62341
1.61764
1.61693
1.61693
1.61754
1.6204
1.62633
1.63508
1.6458
1.6528
1.65737
1.6594
1.65712
1.65376
1.65266
1.65274
1.65479
1.65449
1.65344
1.65285
1.6514
1.64752
1.6401
1.63269
1.62914
1.62724
1.6262
1.62531
1.62423
1.6227
1.62169
1.62006
1.61594
1.61053
1.60365
1.59937
1.59816
1.59801
1.59916
1.59958
1.59775
1.59446
1.58874
1.58158
1.57793
1.57705
1.57784
1.57998
1.57959
1.5777
1.5733
1.56766
1.56529
1.56509
1.56576
1.56594
1.56552
1.56211
1.55417
1.54841
1.54727
1.5476
1.55188
1.55811
1.55918
1.55866
1.5559
1.54838
1.53602
1.528
1.52577
1.5254
1.52569
1.52878
1.53626
1.5425
1.54298
1.54223
1.53903
1.53051
1.51455
1.5034
1.50045
1.49979
1.50037
1.50628
1.5188
1.5254
1.52519
1.52253
1.51356
1.49579
1.48642
1.48458
1.48394
1.48397
1.48775
1.49788
1.50439
1.50436
1.50249
1.49243
1.49558
1.58038
1.7948
1.97172
2.03634
2.06081
2.06899
2.06764
2.06137
2.04914
2.03342
2.02522
2.02259
2.02491
2.03281
2.03463
2.03065
2.02176
2.00678
1.99664
1.99269
1.99175
1
1
1
1
1
1
1
1
1
1
1
1
1
1
1
1
1
1
1
1
1
1
1
1
1
1
1
1
1
1
1
1
1
1
1
1
1
1
1
1
1
1
1
1
1
1
1
1
1
1
1
1
1
1
1
1
1
1
1
1
1
1.00041
1.02229
1.23803
1.47326
1.60241
1.6777
1.69305
1.69365
1.69278
1.6912
1.68703
1.67778
1.6758
1.67782
1.68005
1.68364
1.68337
1.68019
1.67766
1.67578
1.67159
1.66729
1.66588
1.66595
1.66481
1.66318
1.66222
1.65942
1.65537
1.65296
1.65193
1.65073
1.64881
1.64617
1.64362
1.6426
1.64206
1.64143
1.6407
1.64042
1.63988
1.63868
1.63669
1.63308
1.6267
1.6201
1.61731
1.61688
1.61694
1.61804
1.62129
1.62648
1.63252
1.63823
1.64253
1.64723
1.6505
1.65082
1.6513
1.65267
1.65635
1.65902
1.65804
1.6568
1.65535
1.65248
1.64652
1.63807
1.63277
1.63073
1.62974
1.62942
1.62917
1.62858
1.62847
1.62667
1.62218
1.61619
1.60874
1.60437
1.60331
1.60306
1.60399
1.60426
1.60184
1.5981
1.59248
1.58561
1.58196
1.58108
1.58167
1.58357
1.58278
1.58016
1.5754
1.56974
1.56716
1.56686
1.5674
1.56748
1.5668
1.56333
1.55577
1.5499
1.54848
1.54885
1.55343
1.55982
1.56078
1.56005
1.55686
1.54857
1.53589
1.52868
1.52677
1.52642
1.52686
1.53043
1.53832
1.54452
1.54503
1.54435
1.54095
1.53159
1.51521
1.50484
1.50219
1.50156
1.50236
1.50888
1.52172
1.52786
1.5276
1.525
1.51575
1.49755
1.48799
1.48617
1.4856
1.48573
1.48987
1.50079
1.50837
1.5083
1.50671
1.49725
1.51448
1.6454
1.8748
2.00146
2.04938
2.06803
2.07346
2.07134
2.06444
2.05203
2.03587
2.02759
2.02494
2.02734
2.03522
2.03715
2.03329
2.0247
2.00972
1.99836
1.99396
1.99331
1.99798
1
1
1
1
1
1
1
1
1
1
1
1
1
1
1
1
1
1
1
1
1
1
1
1
1
1
1
1
1
1
1
1
1
1
1
1
1
1
1
1
1
1
1
1
1
1
1
1
1
1
1
1
1
1
1
1
1
1
1
1
1
1
1.0005
1.02198
1.14187
1.34994
1.60737
1.69148
1.69612
1.69529
1.68857
1.67452
1.67314
1.67689
1.68114
1.6871
1.68669
1.68187
1.67781
1.67645
1.67143
1.66814
1.66771
1.66792
1.6667
1.66486
1.6635
1.66125
1.65674
1.65413
1.65317
1.65243
1.651
1.6491
1.64663
1.64528
1.64461
1.64373
1.6425
1.64195
1.64143
1.64022
1.63826
1.63492
1.62912
1.62291
1.61974
1.61883
1.61871
1.6194
1.62151
1.62419
1.62664
1.62874
1.62937
1.62981
1.63467
1.64092
1.64568
1.64912
1.65367
1.65973
1.66071
1.65989
1.65835
1.6561
1.65177
1.64409
1.63674
1.63374
1.63293
1.63293
1.63337
1.63399
1.63423
1.63254
1.62826
1.622
1.6141
1.60968
1.60877
1.60847
1.60928
1.60945
1.60658
1.60239
1.59683
1.59032
1.58676
1.58601
1.58645
1.58797
1.5868
1.5835
1.57836
1.5727
1.56993
1.56951
1.56994
1.56984
1.56872
1.56502
1.55784
1.552
1.55026
1.55065
1.55542
1.56154
1.56207
1.56109
1.55743
1.54832
1.53567
1.52928
1.5276
1.52727
1.52789
1.53219
1.54058
1.5464
1.54676
1.54597
1.54228
1.53204
1.51548
1.50608
1.5037
1.50314
1.50421
1.51142
1.52449
1.53005
1.52968
1.52705
1.51742
1.49883
1.48934
1.48762
1.48716
1.48749
1.49225
1.50403
1.512
1.5119
1.5103
1.50462
1.54847
1.72395
1.93693
2.02383
2.05842
2.07515
2.07931
2.07619
2.06756
2.05293
2.03641
2.02962
2.02703
2.02954
2.03778
2.03976
2.03563
2.02643
2.01098
2.00027
1.99611
1.99519
1.99959
2.00343
1
1
1
1
1
1
1
1
1
1
1
1
1
1
1
1
1
1
1
1
1
1
1
1
1
1
1
1
1
1
1
1
1
1
1
1
1
1
1
1
1
1
1
1
1
1
1
1
1
1
1
1
1
1
1
1
1
1
1
1
1
1
1
1.00029
1.00658
1.06738
1.35195
1.62683
1.68272
1.68709
1.68128
1.6747
1.67635
1.68281
1.6908
1.68949
1.68438
1.67809
1.67472
1.67073
1.66911
1.66931
1.66895
1.66761
1.66643
1.66486
1.66333
1.65901
1.65607
1.65509
1.6544
1.65299
1.65161
1.64978
1.64779
1.64669
1.64597
1.64426
1.6431
1.64282
1.64191
1.6399
1.63648
1.63118
1.6255
1.62237
1.62182
1.62224
1.62301
1.62412
1.62562
1.62607
1.62585
1.62443
1.62022
1.6196
1.6242
1.63241
1.64042
1.64712
1.65496
1.66064
1.66099
1.66038
1.65863
1.65529
1.64936
1.64158
1.63711
1.63616
1.63617
1.63699
1.63842
1.63877
1.63737
1.63365
1.62737
1.61917
1.61475
1.61396
1.61372
1.61438
1.61462
1.6117
1.60721
1.60167
1.59549
1.59214
1.59159
1.59193
1.59305
1.59162
1.58776
1.58221
1.57652
1.57364
1.57317
1.57347
1.57319
1.57156
1.56755
1.56062
1.55497
1.55294
1.55333
1.55814
1.56338
1.56341
1.56191
1.55772
1.54791
1.53566
1.53007
1.52852
1.52816
1.52918
1.53446
1.54329
1.54813
1.54822
1.54711
1.54288
1.53173
1.51543
1.50717
1.50509
1.50457
1.50599
1.51405
1.52706
1.53193
1.53142
1.52865
1.51849
1.49966
1.49035
1.48884
1.48851
1.48916
1.49467
1.50726
1.51527
1.51558
1.50977
1.51589
1.60247
1.81297
1.98014
2.03926
2.06413
2.0805
2.08411
2.08032
2.07083
2.05412
2.0363
2.02987
2.02745
2.03081
2.03988
2.04195
2.03776
2.02858
2.01285
2.00133
1.99688
1.99622
2.00095
2.00472
2.00217
1
1
1
1
1
1
1
1
1
1
1
1
1
1
1
1
1
1
1
1
1
1
1
1
1
1
1
1
1
1
1
1
1
1
1
1
1
1
1
1
1
1
1
1
1
1
1
1
1
1
1
1
1
1
1
1
1
1
1
1
1
1
1
1
1.00005
1.00257
1.06351
1.37232
1.59013
1.651
1.67264
1.6826
1.68449
1.68878
1.68901
1.68626
1.6808
1.67235
1.66951
1.6697
1.67039
1.66939
1.66823
1.66773
1.6664
1.66579
1.66262
1.65886
1.65781
1.65719
1.65599
1.65429
1.65319
1.65055
1.64854
1.64762
1.64583
1.644
1.64386
1.64339
1.64164
1.63816
1.63314
1.62793
1.62492
1.62449
1.62558
1.62747
1.62756
1.62801
1.62775
1.62625
1.62325
1.61792
1.61392
1.61442
1.61792
1.62528
1.63475
1.64527
1.65509
1.65939
1.66018
1.6596
1.65734
1.65282
1.64591
1.64124
1.63977
1.63952
1.64018
1.64199
1.64226
1.64125
1.63807
1.63195
1.62355
1.61916
1.61845
1.61831
1.61884
1.61919
1.61681
1.61243
1.60679
1.60084
1.59785
1.59752
1.59778
1.5986
1.59698
1.59278
1.58692
1.58115
1.57821
1.57773
1.57794
1.57752
1.57543
1.57105
1.56431
1.55892
1.55668
1.55706
1.56158
1.56559
1.56499
1.56295
1.55817
1.54777
1.5363
1.53146
1.52991
1.52954
1.53118
1.53777
1.54651
1.54984
1.54946
1.54775
1.54273
1.53075
1.51519
1.50819
1.5064
1.50597
1.50787
1.51689
1.52963
1.53354
1.53285
1.52982
1.51902
1.49999
1.4911
1.48974
1.48955
1.49062
1.49705
1.51043
1.51785
1.51895
1.51489
1.53781
1.67268
1.89729
2.00803
2.0496
2.06992
2.08518
2.08766
2.08342
2.07344
2.05507
2.0362
2.02995
2.02775
2.0318
2.0418
2.04393
2.03943
2.02958
2.01352
2.00275
1.99859
1.99782
2.00242
2.00607
2.00337
1.99702
1
1
1
1
1
1
1
1
1
1
1
1
1
1
1
1
1
1
1
1
1
1
1
1
1
1
1
1
1
1
1
1
1
1
1
1
1
1
1
1
1
1
1
1
1
1
1
1
1
1
1
1
1
1
1
1
1
1
1
1
1
1
1
1
1
1.00003
1.0023
1.07271
1.32144
1.49142
1.63123
1.68978
1.68902
1.6864
1.68518
1.68184
1.67095
1.66712
1.66913
1.67131
1.67019
1.66908
1.66908
1.66839
1.66862
1.66596
1.6619
1.66088
1.66095
1.66001
1.65779
1.6564
1.65379
1.65032
1.64841
1.64677
1.64515
1.64485
1.64463
1.64324
1.63992
1.63511
1.63029
1.62748
1.62723
1.6288
1.6307
1.63074
1.63054
1.62947
1.62756
1.62406
1.61785
1.6124
1.61188
1.61248
1.61513
1.62113
1.63024
1.64237
1.65218
1.6561
1.65753
1.6571
1.65446
1.64872
1.64438
1.64319
1.6429
1.64362
1.6449
1.64516
1.64453
1.64173
1.63577
1.62723
1.62279
1.62198
1.62196
1.62252
1.62287
1.62127
1.61759
1.61203
1.60601
1.60335
1.60329
1.60363
1.60414
1.60252
1.59829
1.59226
1.58639
1.58343
1.58298
1.58316
1.5826
1.58011
1.57537
1.56893
1.56372
1.56151
1.56182
1.56585
1.56838
1.56717
1.56456
1.55909
1.54831
1.53797
1.53367
1.53212
1.53185
1.53446
1.54231
1.55012
1.5516
1.55057
1.54807
1.54205
1.52922
1.51496
1.50934
1.50777
1.50747
1.51009
1.5201
1.53222
1.53499
1.53405
1.53059
1.51901
1.49993
1.49161
1.4904
1.49028
1.49183
1.49939
1.51347
1.52016
1.52129
1.52343
1.57753
1.75456
1.96021
2.02847
2.05589
2.07465
2.09007
2.09161
2.08635
2.0748
2.0541
2.03549
2.02996
2.02796
2.033
2.04396
2.04598
2.0412
2.03075
2.01417
2.00329
1.99925
1.99894
2.00412
2.00752
2.00466
1.99821
1.98808
1
1
1
1
1
1
1
1
1
1
1
1
1
1
1
1
1
1
1
1
1
1
1
1
1
1
1
1
1
1
1
1
1
1
1
1
1
1
1
1
1
1
1
1
1
1
1
1
1
1
1
1
1
1
1
1
1
1
1
1
1
1
1
1
1
1
1.00003
1.00266
1.04492
1.17847
1.46152
1.66004
1.68486
1.68725
1.68361
1.67136
1.66591
1.66734
1.67119
1.67456
1.67227
1.6708
1.67011
1.67107
1.6676
1.66345
1.6631
1.66443
1.66342
1.66033
1.65834
1.65629
1.65211
1.64935
1.64829
1.6466
1.64611
1.64604
1.64478
1.64175
1.63708
1.63257
1.63025
1.63038
1.63241
1.63322
1.63308
1.63215
1.63074
1.6289
1.62562
1.62008
1.61296
1.6111
1.61114
1.61158
1.61396
1.61919
1.62761
1.63845
1.64721
1.65164
1.65365
1.65314
1.64944
1.6457
1.64486
1.64511
1.64716
1.64832
1.64791
1.64736
1.64494
1.63933
1.63057
1.6257
1.62477
1.62481
1.62547
1.62579
1.62483
1.62212
1.61702
1.6109
1.60808
1.60811
1.6086
1.60894
1.6076
1.6037
1.59785
1.59203
1.58908
1.58868
1.58888
1.58808
1.5852
1.5802
1.57406
1.56917
1.56719
1.56747
1.57078
1.57206
1.57024
1.567
1.5607
1.54975
1.54083
1.53696
1.53545
1.53552
1.53942
1.54813
1.55385
1.55371
1.55181
1.5484
1.54111
1.52757
1.51526
1.51081
1.50944
1.50932
1.5129
1.52398
1.53479
1.53639
1.53515
1.53101
1.51859
1.49967
1.49198
1.49093
1.49084
1.49287
1.50159
1.51595
1.5238
1.52112
1.53487
1.63882
1.84851
2.00045
2.04129
2.05836
2.07828
2.0938
2.09438
2.08867
2.07596
2.05303
2.03442
2.02922
2.0279
2.03426
2.04626
2.0481
2.04305
2.03216
2.01512
2.0045
2.00067
2.00059
2.0061
2.00924
2.00618
1.99954
1.9895
1.98052
1
1
1
1
1
1
1
1
1
1
1
1
1
1
1
1
1
1
1
1
1
1
1
1
1
1
1
1
1
1
1
1
1
1
1
1
1
1
1
1
1
1
1
1
1
1
1
1
1
1
1
1
1
1
1
1
1
1
1
1
1
1
1
1
1
1
1
1.00002
1.00083
1.01333
1.14815
1.48822
1.64418
1.6765
1.67882
1.67073
1.66779
1.67142
1.67884
1.67658
1.67371
1.67005
1.67099
1.6687
1.66464
1.66488
1.66641
1.66523
1.66197
1.65942
1.65786
1.65379
1.64986
1.64929
1.6488
1.64748
1.64754
1.64663
1.64364
1.63925
1.63501
1.6333
1.63389
1.63569
1.6358
1.63485
1.63329
1.63161
1.62968
1.62689
1.62264
1.61602
1.61206
1.61155
1.61155
1.61206
1.61472
1.61961
1.62599
1.63342
1.63945
1.64396
1.64705
1.64632
1.6442
1.64424
1.6457
1.64928
1.65184
1.65105
1.65011
1.64785
1.64276
1.63389
1.62821
1.62706
1.62709
1.62806
1.62844
1.62777
1.62586
1.62149
1.61525
1.61194
1.61191
1.61246
1.6126
1.61146
1.60831
1.60317
1.59774
1.59487
1.59459
1.59472
1.59352
1.59014
1.58509
1.57949
1.57507
1.5734
1.57363
1.57623
1.57647
1.57411
1.57019
1.56296
1.55229
1.54484
1.54129
1.5401
1.54069
1.54611
1.5547
1.5578
1.55633
1.55345
1.54898
1.54013
1.52644
1.51643
1.51282
1.51164
1.51188
1.51658
1.52846
1.53747
1.53792
1.53624
1.53126
1.51791
1.49946
1.49249
1.49149
1.49146
1.49401
1.50416
1.51759
1.52617
1.52758
1.56108
1.71536
1.93451
2.02402
2.04933
2.0619
2.08214
2.09643
2.09631
2.09031
2.07691
2.05272
2.03413
2.02905
2.0283
2.03607
2.04899
2.05045
2.04505
2.03349
2.01624
2.00603
2.0024
2.00261
2.00843
2.01132
2.00815
2.00147
1.99157
1.98288
1.97872
1
1
1
1
1
1
1
1
1
1
1
1
1
1
1
1
1
1
1
1
1
1
1
1
1
1
1
1
1
1
1
1
1
1
1
1
1
1
1
1
1
1
1
1
1
1
1
1
1
1
1
1
1
1
1
1
1
1
1
1
1
1
1
1
1
1
1
1
1
1.00021
1.00995
1.15752
1.47328
1.59917
1.65028
1.6745
1.67637
1.67809
1.67789
1.67677
1.67343
1.66949
1.66729
1.66571
1.66634
1.66752
1.66664
1.6628
1.65943
1.65884
1.6561
1.65122
1.64995
1.65023
1.64967
1.64888
1.64853
1.64596
1.64154
1.63801
1.63666
1.63741
1.63838
1.63801
1.63634
1.6343
1.6322
1.63009
1.6276
1.62442
1.61933
1.61504
1.6137
1.61366
1.61373
1.61507
1.61765
1.62045
1.62343
1.62681
1.62884
1.63251
1.63653
1.63819
1.64047
1.64377
1.64934
1.65403
1.65384
1.65261
1.65041
1.64612
1.6379
1.63092
1.62907
1.62901
1.63022
1.63129
1.63066
1.62928
1.62548
1.61891
1.61502
1.61475
1.61513
1.61532
1.61455
1.61207
1.60779
1.60295
1.60038
1.6003
1.60013
1.59828
1.59457
1.58977
1.58479
1.58096
1.57959
1.57989
1.58188
1.58128
1.57853
1.57394
1.56583
1.5559
1.54978
1.54669
1.54588
1.54734
1.5542
1.56147
1.56229
1.5596
1.55586
1.54996
1.53944
1.5264
1.51873
1.51566
1.5147
1.51539
1.52146
1.53364
1.54027
1.53982
1.53738
1.53153
1.51719
1.49949
1.4934
1.49237
1.4924
1.49554
1.50684
1.52205
1.52626
1.53453
1.61179
1.80312
1.99451
2.0393
2.05557
2.06543
2.08657
2.09983
2.09835
2.09156
2.0762
2.05067
2.03452
2.03016
2.02983
2.03889
2.0522
2.05316
2.04763
2.03573
2.01819
2.00794
2.00465
2.00526
2.01148
2.01393
2.01067
2.00395
1.99421
1.98602
1.98217
1.98077
1
1
1
1
1
1
1
1
1
1
1
1
1
1
1
1
1
1
1
1
1
1
1
1
1
1
1
1
1
1
1
1
1
1
1
1
1
1
1
1
1
1
1
1
1
1
1
1
1
1
1
1
1
1
1
1
1
1
1
1
1
1
1
1
1
1
1
1
1
1
1.00017
1.01134
1.14976
1.35275
1.53576
1.6616
1.67913
1.67974
1.68033
1.67779
1.66781
1.6632
1.66567
1.66796
1.66825
1.66768
1.66398
1.66003
1.65924
1.65742
1.65309
1.65143
1.65199
1.65175
1.65106
1.65055
1.64882
1.64423
1.64119
1.64054
1.64058
1.6403
1.63947
1.63781
1.6354
1.6328
1.63058
1.62832
1.62564
1.62198
1.6185
1.61687
1.61685
1.61696
1.61773
1.61881
1.61922
1.61959
1.62036
1.61991
1.61821
1.62106
1.62628
1.63176
1.63788
1.64576
1.65338
1.65478
1.65424
1.65238
1.64882
1.64174
1.63413
1.63132
1.63108
1.63195
1.63431
1.63389
1.63275
1.62925
1.62239
1.61763
1.61692
1.61713
1.61714
1.6165
1.61484
1.61178
1.60732
1.60505
1.60504
1.60428
1.60183
1.59837
1.59406
1.58972
1.58645
1.58532
1.58584
1.58723
1.58615
1.58309
1.57787
1.56911
1.56039
1.55535
1.55288
1.55246
1.55513
1.56291
1.56816
1.56719
1.56361
1.5589
1.55127
1.53934
1.52803
1.52225
1.51948
1.51882
1.52014
1.52758
1.53924
1.54342
1.54212
1.53893
1.53202
1.51657
1.50012
1.49488
1.49385
1.49395
1.49779
1.50978
1.52623
1.5293
1.55065
1.68555
1.89834
2.03123
2.04969
2.05788
2.06952
2.09176
2.10287
2.10043
2.09319
2.07665
2.05031
2.03486
2.03093
2.03176
2.0429
2.05632
2.05655
2.05066
2.03818
2.02064
2.01113
2.00813
2.00896
2.01531
2.01732
2.01396
2.00715
1.99747
1.98974
1.98617
1.98492
1.98512
1
1
1
1
1
1
1
1
1
1
1
1
1
1
1
1
1
1
1
1
1
1
1
1
1
1
1
1
1
1
1
1
1
1
1
1
1
1
1
1
1
1
1
1
1
1
1
1
1
1
1
1
1
1
1
1
1
1
1
1
1
1
1
1
1
1
1
1
1
1
1
1.00018
1.00784
1.06354
1.25006
1.56137
1.66375
1.68148
1.67939
1.67007
1.66246
1.66398
1.66772
1.67183
1.67055
1.66617
1.66195
1.65971
1.65787
1.65441
1.6537
1.65438
1.65426
1.65367
1.65327
1.65251
1.64811
1.6441
1.64361
1.64338
1.64169
1.64048
1.63916
1.63664
1.63368
1.63132
1.62943
1.6271
1.62434
1.62172
1.62039
1.62035
1.62054
1.62072
1.62043
1.6198
1.61915
1.61841