/*--------------------------------*- C++ -*----------------------------------*\
  =========                 |
  \\      /  F ield         | OpenFOAM: The Open Source CFD Toolbox
   \\    /   O peration     | Website:  https://openfoam.org
    \\  /    A nd           | Version:  7
     \\/     M anipulation  |
\*---------------------------------------------------------------------------*/
FoamFile
{
    version     2.0;
    format      ascii;
    class       volScalarField;
    location    "1.5";
    object      p;
}
// * * * * * * * * * * * * * * * * * * * * * * * * * * * * * * * * * * * * * //

dimensions      [1 -1 -2 0 0 0 0];

internalField   nonuniform List<scalar> 
16512
(
3.75491
3.71267
3.66067
3.60029
3.53177
3.47364
3.44732
3.42203
3.38766
3.34102
3.27155
3.19661
3.14792
3.12966
3.11801
3.09592
3.05765
2.99338
2.92219
2.86821
2.84578
2.83702
2.82517
2.79989
2.74843
2.68199
2.62435
2.59561
2.58649
2.58192
2.56833
2.53827
2.48488
2.42499
2.37907
2.36046
2.35426
2.34778
2.33214
2.29739
2.2466
2.20251
2.18382
2.17783
2.17257
2.16093
2.13676
2.09321
2.04854
2.0167
2.00078
1.98928
1.97729
1.9619
1.93503
1.90466
1.8878
1.87799
1.86873
1.85829
1.84161
1.80842
1.773
1.75403
1.74442
1.735
1.72317
1.70574
1.67943
1.65915
1.65105
1.64425
1.63716
1.62941
1.61979
1.60307
1.5733
1.54116
1.52126
1.51682
1.51326
1.5083
1.50374
1.49857
1.49207
1.48214
1.46053
1.4283
1.40098
1.39455
1.39264
1.38794
1.3852
1.38374
1.37948
1.37189
1.35982
1.33694
1.31204
1.29631
1.29179
1.2891
1.28817
1.28535
1.28058
1.26918
1.26265
1.77981
4.62537
5.47518
5.48165
5.47951
5.45394
5.42368
5.41313
5.4228
5.43733
5.45008
5.45559
5.44085
5.38907
5.31941
5.29113
5.29872
5.30871
5.31294
5.30568
5.28117
5.22419
5.14226
5.08844
5.06898
5.06059
5.0502
5.03174
4.9995
4.94328
4.85539
4.78301
4.74905
4.72151
4.69252
4.65826
4.61722
4.56327
4.48645
4.39641
4.32892
4.27925
4.23051
4.17775
4.12
5.2278
5.15812
5.09174
5.02904
4.96298
4.89789
4.83155
4.76705
4.70613
4.64217
4.57918
4.51665
4.45506
4.39744
4.33691
4.27572
4.2177
4.16089
4.10706
4.05033
3.98943
3.93112
3.87699
3.83314
3.7908
3.74
3.68215
3.61774
3.55566
3.52379
3.49548
3.45845
3.41195
3.3463
3.272
3.22189
3.20272
3.18873
3.16536
3.12618
3.06116
2.98857
2.93567
2.91457
2.90614
2.89238
2.86484
2.80984
2.74188
2.68425
2.65781
2.64944
2.64454
2.62932
2.59558
2.53916
2.47849
2.43431
2.41745
2.41175
2.40483
2.38768
2.34943
2.29619
2.25159
2.23471
2.22975
2.22509
2.21281
2.18495
2.13876
2.09255
2.06107
2.04834
2.04168
2.03259
2.01627
1.98264
1.94518
1.9269
1.91953
1.91227
1.90293
1.88715
1.85267
1.8104
1.78829
1.78151
1.77362
1.76303
1.74771
1.7225
1.69672
1.6855
1.67834
1.67125
1.66365
1.65421
1.63712
1.60637
1.57232
1.55142
1.54777
1.54734
1.54246
1.53569
1.52871
1.52065
1.50969
1.48997
1.45956
1.42922
1.41925
1.41886
1.41698
1.41127
1.40798
1.40542
1.40035
1.38958
1.36602
1.33695
1.32282
1.31733
1.31223
1.3093
1.30726
1.30349
1.29801
1.28817
1.26862
1.30366
2.98606
5.23984
5.46176
5.45775
5.43842
5.41718
5.41307
5.4236
5.43784
5.44831
5.44515
5.41353
5.34991
5.29853
5.29177
5.30256
5.31255
5.31457
5.3036
5.26824
5.19656
5.12133
5.08707
5.07241
5.06255
5.05031
5.02928
4.99069
4.92272
4.83111
4.77696
4.74978
4.72416
4.69489
4.65957
4.61613
4.55663
4.47247
4.38498
4.32655
4.28246
4.23974
4.19399
4.14489
5.24818
5.18079
5.11827
5.05215
4.98635
4.91956
4.85386
4.79394
4.73079
4.66745
4.60453
4.54075
4.48303
4.4233
4.36212
4.30376
4.24532
4.19134
4.13523
4.07486
4.01647
3.95968
3.91151
3.86825
3.81849
3.76286
3.70274
3.63945
3.60133
3.56974
3.53106
3.48458
3.42237
3.34848
3.29727
3.27719
3.25937
3.23419
3.19485
3.12938
3.05618
3.00363
2.98357
2.97496
2.96
2.93013
2.8732
2.80324
2.74583
2.72116
2.71316
2.70728
2.69037
2.65309
2.59355
2.53214
2.49051
2.47577
2.47085
2.46299
2.44375
2.40171
2.3468
2.3029
2.28669
2.28194
2.27684
2.26322
2.23226
2.18371
2.13626
2.1075
2.09768
2.09337
2.08547
2.06854
2.03063
1.98892
1.96861
1.96156
1.95565
1.94646
1.9302
1.89478
1.85158
1.82481
1.81801
1.81247
1.80387
1.79104
1.76678
1.73555
1.72093
1.71386
1.70668
1.6989
1.68914
1.67077
1.63943
1.6049
1.58249
1.57829
1.57862
1.57697
1.57015
1.5616
1.55065
1.53679
1.51771
1.4913
1.46088
1.44615
1.44415
1.44445
1.44086
1.4345
1.43049
1.42629
1.41868
1.39789
1.36557
1.34431
1.34153
1.3389
1.33321
1.32953
1.32638
1.32239
1.31524
1.30478
1.28159
1.27341
1.6303
4.35402
5.44997
5.44985
5.43952
5.42664
5.42527
5.4336
5.44467
5.44896
5.43168
5.38084
5.31823
5.29267
5.29771
5.3075
5.31498
5.3155
5.29801
5.2489
5.16618
5.10789
5.08809
5.07536
5.06338
5.04922
5.02507
4.97862
4.89697
4.81029
4.77261
4.74896
4.72567
4.69646
4.66078
4.6152
4.54948
4.45988
4.38226
4.33479
4.29609
4.25927
4.22007
4.17676
5.27021
5.20766
5.14199
5.07564
5.00869
4.94078
4.88056
4.81826
4.75451
4.69214
4.62722
4.56868
4.50922
4.44755
4.38879
4.32882
4.27469
4.22007
4.16066
4.10287
4.04474
3.99219
3.94669
3.89661
3.84213
3.78525
3.7228
3.67893
3.64411
3.60377
3.55852
3.50011
3.42708
3.37459
3.35215
3.33027
3.30336
3.26418
3.19893
3.12487
3.07159
3.05161
3.04252
3.02658
2.99547
2.93742
2.86629
2.80939
2.78585
2.77797
2.77064
2.75204
2.71148
2.64888
2.58669
2.54712
2.53404
2.53035
2.52176
2.50034
2.45515
2.39876
2.35573
2.34059
2.33571
2.32934
2.31416
2.27971
2.22882
2.18146
2.15514
2.14742
2.14436
2.13621
2.11722
2.07666
2.03297
2.01204
2.00547
2.00003
1.99067
1.97381
1.93706
1.89223
1.86296
1.85593
1.8523
1.84531
1.83427
1.81228
1.77696
1.757
1.75056
1.74386
1.73589
1.72514
1.70477
1.67225
1.63806
1.61558
1.61047
1.60972
1.60939
1.60423
1.59564
1.58273
1.56589
1.54567
1.52094
1.4934
1.47633
1.4723
1.47049
1.46981
1.46469
1.45779
1.45259
1.44608
1.42911
1.3968
1.36925
1.36333
1.3615
1.35987
1.35494
1.34939
1.34494
1.33993
1.33142
1.31745
1.29591
1.27779
1.29595
2.58114
5.18771
5.43634
5.4215
5.41906
5.42445
5.43595
5.44529
5.43812
5.40115
5.33892
5.29833
5.29457
5.30295
5.31132
5.31717
5.31442
5.28749
5.22309
5.14107
5.10421
5.09098
5.07969
5.06644
5.05029
5.02165
4.96453
4.87126
4.79863
4.77092
4.75071
4.72926
4.69997
4.66382
4.61519
4.54133
4.44982
4.38696
4.34761
4.31297
4.27958
4.24233
4.19788
5.29576
5.23137
5.16512
5.09901
5.02964
4.96759
4.90549
4.84117
4.77899
4.71394
4.65522
4.59623
4.5338
4.47429
4.41221
4.35625
4.30306
4.24492
4.18817
4.1308
4.07575
4.02779
3.97652
3.92219
3.86689
3.80553
3.7571
3.71854
3.67584
3.63095
3.57579
3.50608
3.45415
3.42671
3.40075
3.37224
3.334
3.27065
3.19584
3.14087
3.11979
3.10888
3.09142
3.05962
3.00095
2.93011
2.87357
2.8513
2.84357
2.83517
2.81493
2.77165
2.70638
2.64274
2.60466
2.59267
2.58936
2.58012
2.55627
2.50831
2.45109
2.40953
2.39563
2.39118
2.38378
2.36659
2.32858
2.27508
2.2276
2.20399
2.19749
2.19469
2.18572
2.16429
2.12178
2.0773
2.05621
2.05024
2.04531
2.03578
2.01843
1.98093
1.93435
1.90286
1.89508
1.89224
1.88665
1.87679
1.85571
1.81895
1.79457
1.78761
1.78191
1.77423
1.76308
1.74067
1.7057
1.67118
1.65036
1.64524
1.6436
1.64225
1.63744
1.62951
1.61546
1.59596
1.57518
1.55118
1.52376
1.50691
1.50286
1.49953
1.49746
1.49496
1.48901
1.48126
1.47301
1.45725
1.4283
1.39701
1.38684
1.38472
1.38227
1.38003
1.37586
1.36933
1.36309
1.35629
1.34559
1.32678
1.3067
1.29079
1.2919
1.50568
4.02934
5.38476
5.44067
5.43637
5.43723
5.44454
5.44631
5.42238
5.36443
5.30635
5.29219
5.29946
5.30795
5.31505
5.31912
5.31151
5.27196
5.19162
5.12274
5.103
5.09296
5.08462
5.07086
5.05236
5.01682
4.94523
4.84664
4.79284
4.77062
4.7537
4.73311
4.70393
4.66679
4.61323
4.53038
4.44477
4.39575
4.35992
4.32688
4.2933
4.25372
4.20448
5.31887
5.25234
5.18727
5.11877
5.05585
4.99356
4.92831
4.86545
4.7997
4.74085
4.68378
4.62168
4.56216
4.49918
4.43953
4.38552
4.32734
4.27052
4.21387
4.15791
4.1091
4.05757
4.00332
3.94923
3.88942
3.83869
3.79569
3.74988
3.70363
3.65002
3.58218
3.53173
3.50053
3.47123
3.44125
3.40439
3.344
3.26911
3.21227
3.18977
3.17647
3.15712
3.12426
3.06472
2.99337
2.93727
2.91557
2.90829
2.89946
2.87795
2.83325
2.76644
2.70202
2.66474
2.65305
2.64911
2.63826
2.61197
2.56094
2.5032
2.46347
2.45053
2.44708
2.43932
2.42059
2.37966
2.32367
2.2758
2.25432
2.24861
2.24534
2.23495
2.21067
2.16599
2.12133
2.10065
2.09533
2.09122
2.08156
2.06364
2.02566
1.97807
1.94514
1.93655
1.93338
1.92801
1.91804
1.89637
1.85911
1.83222
1.82502
1.81992
1.81254
1.80146
1.77793
1.74124
1.7058
1.68669
1.68248
1.68166
1.67945
1.67368
1.66434
1.64664
1.62438
1.60409
1.5826
1.55561
1.53682
1.53281
1.53075
1.52742
1.52427
1.52036
1.5137
1.50263
1.48238
1.45545
1.42766
1.41237
1.40935
1.40774
1.40379
1.39961
1.39485
1.38818
1.37953
1.37064
1.35731
1.33559
1.31759
1.30942
1.30143
1.31041
2.25221
4.96973
5.43904
5.43958
5.44553
5.44993
5.43839
5.39567
5.32959
5.29341
5.29514
5.3049
5.31325
5.31946
5.32114
5.30547
5.25002
5.16233
5.1157
5.10503
5.09893
5.09268
5.07809
5.05538
5.00842
4.92074
4.83087
4.79451
4.77578
4.75976
4.73815
4.70837
4.6687
4.60736
4.51771
4.4453
4.40476
4.3698
4.33601
4.29995
4.25718
4.20311
5.33891
5.27416
5.20618
5.144
5.08264
5.01699
4.95362
4.88636
4.82443
4.76878
4.70825
4.64941
4.5884
4.52743
4.47199
4.41242
4.35383
4.29618
4.23762
4.18774
4.1366
4.08239
4.02951
3.97183
3.92175
3.87702
3.829
3.78131
3.72768
3.65925
3.60716
3.57266
3.54052
3.50857
3.47318
3.41842
3.34547
3.28403
3.26006
3.24507
3.2243
3.19075
3.13169
3.059
3.00131
2.97932
2.97167
2.96187
2.93948
2.89355
2.82746
2.76313
2.72735
2.71599
2.71089
2.69795
2.66885
2.61453
2.55532
2.51679
2.5048
2.50196
2.494
2.47436
2.43154
2.37432
2.32609
2.3065
2.30116
2.29723
2.28561
2.25833
2.21058
2.16492
2.14451
2.1398
2.13686
2.12733
2.10879
2.07031
2.0223
1.98895
1.98011
1.97687
1.97097
1.96014
1.93696
1.89836
1.86952
1.86217
1.85796
1.85059
1.83911
1.81503
1.77808
1.74237
1.72512
1.72161
1.7217
1.71954
1.71315
1.70069
1.6765
1.65135
1.63152
1.6131
1.58972
1.56914
1.56392
1.56189
1.56004
1.55548
1.55093
1.54553
1.53466
1.51053
1.47923
1.45339
1.4413
1.43696
1.43261
1.43017
1.4256
1.41926
1.41281
1.40475
1.3947
1.38283
1.36674
1.34574
1.33136
1.32733
1.32056
1.31437
1.43535
3.60176
5.33922
5.43451
5.43691
5.43484
5.41364
5.36366
5.31164
5.29786
5.30448
5.31253
5.3192
5.32354
5.32024
5.29078
5.21751
5.13785
5.11335
5.10829
5.10653
5.09971
5.0832
5.05164
4.98837
4.89232
4.82713
4.80275
4.78526
4.767
4.7431
4.71139
4.66648
4.594
4.50491
4.44998
4.414
4.37934
4.34391
4.30495
4.25888
4.19997
5.35973
5.29137
5.22883
5.17023
5.10628
5.04385
4.97753
4.91161
4.85325
4.79188
4.73179
4.67215
4.61225
4.55871
4.50056
4.44158
4.38416
4.3226
4.26921
4.21564
4.15935
4.1056
4.04813
3.9994
3.95709
3.90969
3.86236
3.81068
3.7431
3.68654
3.64615
3.61036
3.57664
3.53967
3.49008
3.4225
3.3551
3.32747
3.31247
3.29148
3.2583
3.20179
3.129
3.0686
3.04522
3.03586
3.024
3.00005
2.95268
2.88686
2.82443
2.79046
2.78002
2.77462
2.76023
2.72808
2.67076
2.60922
2.57096
2.55921
2.5563
2.54778
2.52649
2.48176
2.42471
2.37778
2.36
2.35515
2.35095
2.33832
2.30858
2.2575
2.20964
2.18873
2.18405
2.18171
2.17244
2.1532
2.11391
2.066
2.03292
2.02426
2.0216
2.0158
2.00426
1.97923
1.93845
1.9076
1.89967
1.89597
1.88875
1.8767
1.85127
1.81403
1.7797
1.76545
1.7625
1.76242
1.75951
1.75219
1.73511
1.70566
1.67849
1.65893
1.64353
1.62445
1.60383
1.597
1.59439
1.59327
1.58918
1.58327
1.57661
1.56463
1.53937
1.50595
1.47795
1.4674
1.46581
1.46214
1.45612
1.45137
1.44515
1.43682
1.42932
1.42064
1.40898
1.39349
1.3763
1.35956
1.34935
1.34447
1.33931
1.32798
1.33157
1.98579
4.69125
5.46685
5.43572
5.41602
5.37918
5.33202
5.30914
5.31268
5.32004
5.3257
5.32914
5.32858
5.31405
5.2653
5.1818
5.12793
5.11895
5.11786
5.11652
5.106
5.08409
5.03841
4.95541
4.87069
4.83401
4.81557
4.79731
4.77592
4.74903
4.71373
4.65957
4.57318
4.49456
4.45497
4.42248
4.38933
4.35324
4.31215
4.26272
4.19738
5.37776
5.3116
5.25346
5.19185
5.13064
5.06788
5.00331
4.94315
4.87953
4.81643
4.75407
4.6907
4.63811
4.58411
4.52667
4.47214
4.41307
4.35839
4.30202
4.24246
4.18587
4.1243
4.07162
4.03147
3.98616
3.93976
3.89169
3.82907
3.77032
3.72432
3.68438
3.64933
3.60994
3.56148
3.49879
3.43107
3.39099
3.37532
3.35588
3.3239
3.27199
3.20144
3.13862
3.11399
3.10294
3.08837
3.06208
3.01282
2.94575
2.88409
2.85203
2.84266
2.83765
2.82236
2.78824
2.72951
2.66658
2.62812
2.61613
2.61191
2.60178
2.57852
2.53089
2.47295
2.42854
2.4128
2.40893
2.40509
2.39197
2.3606
2.30742
2.25735
2.23521
2.2299
2.227
2.21756
2.19745
2.1569
2.10872
2.07616
2.0679
2.0661
2.06103
2.0492
2.02292
1.9803
1.94719
1.93843
1.93482
1.92779
1.9153
1.88853
1.84992
1.81662
1.80506
1.80337
1.804
1.79912
1.7898
1.76856
1.73565
1.70629
1.68743
1.67503
1.6602
1.64065
1.63125
1.62808
1.6266
1.62335
1.61711
1.60901
1.59361
1.5664
1.53342
1.50492
1.49414
1.49291
1.49169
1.48695
1.47897
1.46981
1.46174
1.45328
1.44505
1.43569
1.42155
1.40306
1.38783
1.37663
1.36869
1.36222
1.35588
1.34672
1.33734
1.40189
3.11689
5.29516
5.411
5.37772
5.33579
5.31179
5.31506
5.32372
5.3314
5.33687
5.33795
5.32928
5.29586
5.22511
5.15302
5.12988
5.12884
5.12981
5.12475
5.10961
5.07573
5.00928
4.91844
4.86364
4.8437
4.82804
4.80932
4.78628
4.75707
4.7163
4.64674
4.55032
4.491
4.45934
4.43042
4.40039
4.36576
4.32424
4.27159
4.19753
5.40012
5.33737
5.27326
5.21002
5.14828
5.08678
5.0308
4.96987
4.90708
4.84507
4.77641
4.71796
4.66284
4.60447
4.55024
4.49459
4.44388
4.39111
4.3317
4.2749
4.212
4.15123
4.10693
4.06046
4.0126
3.96536
3.90703
3.85065
3.8033
3.76068
3.72512
3.68667
3.63954
3.57879
3.51126
3.46121
3.43394
3.41504
3.38604
3.33955
3.27295
3.20893
3.18341
3.17173
3.15559
3.12769
3.07725
3.00783
2.94437
2.9126
2.90335
2.89826
2.8822
2.84678
2.78788
2.72571
2.6881
2.67625
2.67098
2.65899
2.63326
2.58199
2.52151
2.47804
2.4639
2.46113
2.45757
2.44385
2.41153
2.35825
2.30745
2.28459
2.27863
2.27472
2.26462
2.24333
2.20063
2.15128
2.11907
2.11094
2.10972
2.10535
2.09344
2.06638
2.02304
1.98819
1.97871
1.97503
1.96819
1.95556
1.92776
1.8871
1.85403
1.84391
1.84253
1.84351
1.83828
1.82757
1.80233
1.76603
1.73531
1.71787
1.70842
1.69719
1.67931
1.66659
1.66246
1.6599
1.65669
1.65051
1.64155
1.6236
1.59366
1.56011
1.53314
1.52296
1.52157
1.5208
1.51653
1.50933
1.49759
1.48509
1.47726
1.47012
1.46174
1.45003
1.4313
1.4135
1.40285
1.39531
1.38705
1.37968
1.37131
1.36366
1.35233
1.35432
1.75759
4.38575
5.36924
5.36149
5.31979
5.31775
5.32821
5.33756
5.34558
5.34963
5.3456
5.32103
5.2604
5.18237
5.14364
5.1397
5.14039
5.13938
5.13164
5.10977
5.06021
4.97256
4.89445
4.86675
4.8516
4.83918
4.82163
4.79835
4.76759
4.71819
4.62736
4.53454
4.4932
4.46411
4.43739
4.41017
4.37815
4.33762
4.28234
4.199
5.42692
5.36121
5.29464
5.22803
5.16143
5.10748
5.05275
4.99294
4.93576
4.87187
4.80979
4.74939
4.68714
4.62857
4.56834
4.51733
4.47099
4.41616
4.36167
4.30395
4.24147
4.1911
4.14085
4.08995
4.04024
3.97997
3.92369
3.87784
3.83411
3.79813
3.76252
3.72046
3.66413
3.59654
3.54043
3.5008
3.47334
3.44554
3.40257
3.34243
3.27703
3.24948
3.23815
3.22151
3.19322
3.14444
3.07487
3.00833
2.97526
2.96493
2.95764
2.93992
2.90274
2.84349
2.78299
2.74746
2.73667
2.73204
2.71927
2.69189
2.63797
2.57386
2.52936
2.51547
2.51238
2.50847
2.49413
2.46012
2.40699
2.35708
2.33467
2.32898
2.32507
2.31441
2.29188
2.24686
2.19537
2.16285
2.15452
2.15311
2.1486
2.13651
2.10865
2.06512
2.02977
2.01965
2.01615
2.00967
1.99725
1.96891
1.92643
1.89266
1.88299
1.88144
1.88165
1.87577
1.86407
1.83706
1.7984
1.76545
1.75024
1.74349
1.73502
1.71927
1.70294
1.69718
1.69355
1.68941
1.68302
1.67366
1.65419
1.62217
1.58756
1.56197
1.55322
1.55171
1.5512
1.54718
1.53924
1.52578
1.5121
1.50196
1.49462
1.48771
1.47741
1.46064
1.44042
1.4277
1.42089
1.41386
1.40391
1.39499
1.38627
1.37951
1.37267
1.36291
1.39199
2.6399
5.07213
5.31207
5.31041
5.32424
5.33748
5.3483
5.35727
5.3608
5.34607
5.29485
5.21193
5.15704
5.14818
5.14928
5.14911
5.1452
5.13502
5.10618
5.03825
4.9405
4.89031
4.87269
4.86007
4.85064
4.83432
4.81093
4.77635
4.70937
4.60238
4.53319
4.50215
4.47389
4.4467
4.41962
4.3888
4.34889
4.29101
4.2021
5.44869
5.38473
5.32083
5.24798
5.18452
5.12872
5.0698
5.01401
4.95671
4.90052
4.84153
4.77796
4.71798
4.65327
4.59281
4.54499
4.49236
4.438
4.38388
4.32642
4.27713
4.22613
4.17361
4.12327
4.06112
3.99847
3.95003
3.90425
3.86592
3.83056
3.7946
3.74721
3.68445
3.62394
3.57904
3.54067
3.50954
3.4675
3.41279
3.34666
3.31066
3.29993
3.2835
3.25522
3.21023
3.14329
3.07531
3.04105
3.02974
3.01964
2.99948
2.95978
2.89795
2.83767
2.80385
2.79427
2.79113
2.77856
2.75076
2.69696
2.63108
2.58486
2.57034
2.566
2.56022
2.54444
2.50773
2.45349
2.40497
2.38339
2.37838
2.37549
2.36482
2.34187
2.29571
2.24225
2.20878
2.20001
2.19777
2.19252
2.17965
2.15023
2.10624
2.07113
2.06079
2.05764
2.05156
2.03935
2.01111
1.96773
1.93303
1.92319
1.92109
1.92006
1.91326
1.9002
1.8709
1.83162
1.79857
1.78443
1.77954
1.77285
1.75933
1.74028
1.73194
1.72745
1.72211
1.7152
1.70528
1.68497
1.6521
1.61633
1.59183
1.58518
1.58403
1.58279
1.57818
1.57005
1.55556
1.5391
1.52932
1.5229
1.51581
1.50643
1.48908
1.46694
1.45351
1.44606
1.4395
1.43101
1.41842
1.40882
1.4025
1.39607
1.39129
1.38235
1.37427
1.58147
3.8105
5.25182
5.33569
5.34276
5.35276
5.36192
5.37051
5.36764
5.33233
5.25292
5.17921
5.15899
5.15814
5.15927
5.15751
5.15257
5.13961
5.09922
5.0083
4.92208
4.8952
4.88123
4.87227
4.86435
4.84656
4.82039
4.77392
4.67893
4.58123
4.54221
4.51626
4.48848
4.45945
4.42961
4.39651
4.35449
4.29291
4.20408
5.46909
5.40947
5.34479
5.27822
5.2139
5.14965
5.08856
5.02814
4.97549
4.92529
4.8666
4.80891
4.74828
4.68272
4.62711
4.57055
4.51291
4.4564
4.39844
4.35363
4.3079
4.25675
4.20862
4.15085
4.08399
4.02786
3.97719
3.93499
3.89554
3.85985
3.82075
3.76711
3.70672
3.65894
3.61578
3.58143
3.53967
3.48651
3.42811
3.37465
3.35764
3.34108
3.31345
3.27253
3.20967
3.14256
3.10762
3.09622
3.08478
3.06288
3.02196
2.95684
2.89322
2.85909
2.84957
2.84658
2.83415
2.80628
2.75375
2.68958
2.64346
2.62872
2.62351
2.61566
2.59806
2.55803
2.50076
2.45191
2.43109
2.42642
2.42424
2.4137
2.39045
2.34452
2.29077
2.25677
2.24776
2.24483
2.23846
2.22452
2.19262
2.14714
2.11226
2.10197
2.09912
2.09345
2.08126
2.05327
2.00976
1.97458
1.96447
1.96193
1.95975
1.95198
1.93736
1.90573
1.86564
1.83303
1.82066
1.81667
1.81071
1.7987
1.77819
1.76652
1.76128
1.75505
1.74749
1.73699
1.71623
1.68278
1.64718
1.62377
1.61788
1.61706
1.61627
1.61111
1.60128
1.58454
1.56837
1.55829
1.55229
1.54663
1.5369
1.51682
1.49421
1.47898
1.47172
1.4652
1.45678
1.44504
1.43112
1.42389
1.41996
1.4142
1.40869
1.40164
1.38239
1.38323
2.13894
4.68698
5.36588
5.34897
5.36298
5.3743
5.37652
5.35326
5.29029
5.21161
5.17524
5.17222
5.17207
5.17276
5.16917
5.16248
5.13977
5.07295
4.97121
4.9195
4.90531
4.89604
4.89138
4.87992
4.85828
4.8233
4.74776
4.63847
4.5785
4.55531
4.53364
4.50656
4.47592
4.44195
4.40315
4.35462
4.28739
4.2038
5.48631
5.43019
5.37319
5.30963
5.24213
5.17709
5.10862
5.04748
4.99921
4.94562
4.88939
4.83415
4.77416
4.71605
4.65546
4.595
4.53615
4.47073
4.42316
4.38203
4.33309
4.28646
4.23581
4.17468
4.11413
4.05759
4.01122
3.96823
3.92547
3.88741
3.83997
3.78225
3.73218
3.68762
3.65359
3.61596
3.56524
3.51338
3.45557
3.42062
3.39933
3.36883
3.32861
3.27028
3.20603
3.17179
3.16163
3.1502
3.12736
3.08736
3.02154
2.95353
2.9174
2.9067
2.90145
2.88747
2.85848
2.80606
2.74442
2.70073
2.68671
2.68245
2.67384
2.65495
2.61263
2.55165
2.50038
2.47951
2.47447
2.47207
2.46126
2.43703
2.39118
2.33871
2.30544
2.29668
2.29381
2.2867
2.27172
2.23706
2.18913
2.1537
2.14348
2.14081
2.13533
2.12301
2.09498
2.05155
2.01622
2.00609
2.00346
2.00054
1.9921
1.97613
1.9423
1.90047
1.86877
1.85823
1.8548
1.84918
1.83787
1.81625
1.80053
1.79474
1.78828
1.7802
1.76923
1.74823
1.71441
1.67929
1.6577
1.65257
1.65138
1.64968
1.64448
1.63349
1.61354
1.59684
1.58855
1.58282
1.57667
1.56702
1.54552
1.51858
1.50505
1.49875
1.49163
1.4829
1.47087
1.45629
1.44689
1.44233
1.43894
1.43363
1.42631
1.4162
1.39358
1.37368
1.45787
3.18802
5.19481
5.36617
5.3787
5.38378
5.36625
5.31388
5.23972
5.19176
5.18598
5.18696
5.1902
5.1901
5.1841
5.16893
5.11756
5.02192
4.9462
4.92548
4.91824
4.91581
4.91182
4.8954
4.86866
4.81157
4.70428
4.61524
4.58637
4.56857
4.54951
4.52378
4.49293
4.45598
4.40985
4.35009
4.27574
4.20183
5.50019
5.44792
5.39545
5.33539
5.27512
5.20844
5.13424
5.07408
5.01804
4.96077
4.90614
4.85243
4.80205
4.74479
4.6836
4.62549
4.55686
4.49688
4.45247
4.40355
4.35593
4.30743
4.2543
4.20055
4.14383
4.09428
4.05159
4.00396
3.95969
3.91016
3.85222
3.79849
3.75021
3.71638
3.68622
3.64258
3.59472
3.54643
3.49511
3.46581
3.42999
3.38776
3.33253
3.26686
3.23029
3.2208
3.2109
3.18875
3.15219
3.0891
3.0188
2.98023
2.96836
2.96012
2.94358
2.91234
2.85703
2.79576
2.75445
2.74152
2.73887
2.73076
2.71155
2.669
2.60646
2.55232
2.53056
2.52451
2.52076
2.50915
2.48331
2.43642
2.38495
2.35343
2.34534
2.34319
2.33588
2.32003
2.28349
2.23315
2.19648
2.1861
2.18331
2.17784
2.16516
2.13652
2.09278
2.0575
2.0474
2.04482
2.04168
2.03272
2.01589
1.98052
1.93731
1.90597
1.8966
1.8937
1.88831
1.87728
1.85459
1.83407
1.82744
1.82124
1.81328
1.80232
1.78145
1.74684
1.71152
1.69205
1.68815
1.6877
1.68484
1.67826
1.66567
1.6423
1.62485
1.61845
1.61331
1.60671
1.59605
1.57408
1.54598
1.53013
1.52547
1.51976
1.51073
1.49707
1.48123
1.47146
1.46791
1.46454
1.46075
1.45431
1.4424
1.42186
1.39722
1.38107
1.38584
1.82543
4.30807
5.38095
5.39969
5.37785
5.33668
5.2707
5.21044
5.19855
5.20175
5.20761
5.21229
5.20836
5.19674
5.15655
5.07105
4.97945
4.94485
4.93751
4.9363
4.93769
4.9284
4.90867
4.86873
4.77996
4.66932
4.62078
4.60057
4.58399
4.5648
4.5397
4.50878
4.46941
4.41458
4.34096
4.26386
4.20406
5.51701
5.46902
5.41304
5.35467
5.29843
5.23447
5.16671
5.10065
5.03664
4.97455
4.91525
4.87064
4.82528
4.76974
4.71628
4.65564
4.59014
4.53378
4.47872
4.42657
4.37337
4.31741
4.27157
4.22322
4.17494
4.13511
4.09172
4.04496
3.99019
3.92862
3.87038
3.81409
3.77286
3.74665
3.71124
3.66708
3.62646
3.57639
3.53939
3.50038
3.45505
3.40368
3.33663
3.29022
3.27672
3.26524
3.24419
3.21188
3.154
3.08597
3.04619
3.03384
3.0236
3.00481
2.97168
2.91259
2.8481
2.80674
2.79397
2.79184
2.78425
2.76506
2.7234
2.66184
2.60672
2.58424
2.57738
2.57209
2.55939
2.53171
2.4821
2.43032
2.40057
2.39309
2.39165
2.3843
2.36781
2.33043
2.2789
2.24112
2.23041
2.22732
2.22169
2.20869
2.17886
2.13384
2.09826
2.08813
2.08573
2.08247
2.07326
2.05565
2.0193
1.97515
1.94441
1.93597
1.93329
1.92801
1.91714
1.89357
1.86791
1.85943
1.85383
1.84623
1.8357
1.8157
1.78075
1.74458
1.72621
1.72309
1.72317
1.72011
1.71301
1.69816
1.67147
1.65236
1.64679
1.64272
1.63637
1.62555
1.60306
1.57384
1.55672
1.55236
1.5473
1.53922
1.52559
1.50727
1.49678
1.49376
1.49206
1.48908
1.48308
1.47019
1.44701
1.4224
1.40796
1.40143
1.39611
1.43097
2.65837
5.03327
5.40737
5.34826
5.28305
5.22579
5.20551
5.20915
5.21726
5.22741
5.23045
5.22362
5.19518
5.12055
5.02061
4.9687
4.95792
4.95535
4.95845
4.95513
4.94097
4.91256
4.84763
4.7381
4.66194
4.63786
4.6194
4.60182
4.58098
4.55489
4.52207
4.47715
4.40982
4.32674
4.25877
4.21358
5.53307
5.48071
5.42515
5.36956
5.31673
5.2613
5.19693
5.13098
5.06613
4.99233
4.93194
4.88884
4.84062
4.79198
4.74047
4.68591
4.62947
4.56917
4.51163
4.45405
4.3866
4.33444
4.28936
4.2421
4.20352
4.16654
4.12706
4.07624
4.01404
3.95309
3.89339
3.83926
3.8084
3.77473
3.73155
3.692
3.64626
3.60837
3.57327
3.52767
3.48188
3.42087
3.3601
3.3401
3.3209
3.29424
3.26171
3.21062
3.14827
3.11008
3.09866
3.08835
3.06859
3.03566
2.97536
2.90641
2.86189
2.84797
2.84415
2.8356
2.81584
2.77421
2.7145
2.66074
2.63859
2.63194
2.62631
2.61285
2.58351
2.53076
2.47701
2.44762
2.44036
2.4391
2.43148
2.41432
2.3761
2.32478
2.28686
2.276
2.27291
2.26712
2.25391
2.22293
2.17596
2.13916
2.12861
2.12617
2.12296
2.1135
2.0953
2.05822
2.01317
1.983
1.97538
1.97349
1.9684
1.9575
1.93315
1.90282
1.89132
1.88619
1.87917
1.86931
1.85068
1.81606
1.77872
1.76019
1.75727
1.75735
1.75405
1.74664
1.73035
1.70107
1.67979
1.67441
1.67126
1.66538
1.65514
1.6332
1.60288
1.5843
1.57995
1.57534
1.56779
1.55488
1.5356
1.52343
1.52008
1.51893
1.51677
1.51152
1.49667
1.47265
1.4476
1.43179
1.42756
1.42436
1.41568
1.41725
1.63712
3.83371
5.2751
5.31026
5.26177
5.22799
5.22887
5.23273
5.23918
5.24532
5.24436
5.22633
5.16749
5.06945
4.99981
4.9836
4.97835
4.9798
4.97881
4.96843
4.94742
4.90211
4.80933
4.70986
4.67521
4.65758
4.64121
4.62237
4.59965
4.57088
4.53288
4.47579
4.39352
4.31462
4.26495
4.22928
5.55326
5.48873
5.42656
5.36831
5.32569
5.28086
5.22658
5.171
5.10534
5.03204
4.96868
4.90941
4.85163
4.79795
4.75043
4.70876
4.65844
4.6046
4.55113
4.48316
4.41787
4.36364
4.31081
4.26519
4.22411
4.18996
4.1509
4.09649
4.0375
3.98171
3.92236
3.88283
3.84545
3.80062
3.75763
3.70825
3.66594
3.6375
3.59785
3.55494
3.50906
3.44486
3.41127
3.38502
3.35197
3.31582
3.26786
3.20646
3.16732
3.15659
3.1476
3.12844
3.0978
3.04039
2.97025
2.92236
2.90693
2.90044
2.88909
2.86772
2.82388
2.76411
2.71253
2.69139
2.68567
2.68115
2.66765
2.63806
2.58359
2.5269
2.49661
2.48893
2.48681
2.47844
2.46016
2.42038
2.36948
2.33229
2.32163
2.31908
2.31353
2.30014
2.26837
2.21979
2.1812
2.16978
2.16682
2.16338
2.15376
2.13507
2.09711
2.05148
2.02159
2.01435
2.01303
2.00861
1.99814
1.97311
1.93895
1.92396
1.91887
1.9125
1.90328
1.88601
1.85214
1.814
1.79445
1.79124
1.79098
1.78745
1.77966
1.76243
1.7315
1.70787
1.7022
1.69969
1.69442
1.6849
1.66416
1.63341
1.61299
1.60827
1.60393
1.59667
1.58444
1.56513
1.55142
1.54747
1.54563
1.54309
1.53803
1.52331
1.4972
1.47246
1.45787
1.45327
1.44994
1.44488
1.43729
1.42675
1.43797
2.21012
4.69204
5.27236
5.24882
5.24364
5.25033
5.25797
5.26308
5.26482
5.25204
5.20486
5.116
5.0334
5.00863
5.00356
5.00419
5.00388
4.995
4.97876
4.94602
4.87502
4.76842
4.70899
4.69147
4.67787
4.66266
4.64294
4.61832
4.58554
4.53752
4.46131
4.37367
4.31463
4.27963
4.24776
5.58885
5.51742
5.44545
5.38923
5.33784
5.28402
5.2377
5.19249
5.13638
5.07036
5.00383
4.9399
4.87251
4.81061
4.76916
4.72635
4.67683
4.63131
4.57742
4.51324
4.45125
4.39355
4.34496
4.29332
4.25077
4.21412
4.16571
4.10932
4.05872
4.00534
3.96326
3.92388
3.87744
3.83291
3.78137
3.726
3.69526
3.66072
3.61837
3.58135
3.52933
3.48667
3.4556
3.41844
3.38028
3.33304
3.27024
3.22687
3.21357
3.20037
3.18096
3.15275
3.1
3.03413
2.98556
2.96932
2.96133
2.94801
2.92516
2.87783
2.81461
2.76324
2.74282
2.73748
2.73386
2.72091
2.69208
2.63824
2.58003
2.54845
2.54022
2.53691
2.5273
2.5074
2.46529
2.41351
2.37708
2.36675
2.36477
2.35967
2.34619
2.31412
2.26463
2.22444
2.21207
2.20852
2.20457
2.19463
2.17534
2.13641
2.09025
2.0606
2.05348
2.05225
2.048
2.03767
2.01255
1.97602
1.95774
1.95242
1.94659
1.93781
1.92171
1.88861
1.8499
1.82929
1.82563
1.82475
1.82088
1.81286
1.79517
1.76315
1.73738
1.73112
1.72882
1.72397
1.71511
1.69555
1.66471
1.64266
1.63737
1.63326
1.62629
1.61444
1.59502
1.57993
1.57525
1.57271
1.56947
1.56369
1.54917
1.52287
1.49681
1.48383
1.47973
1.47579
1.47055
1.46206
1.45593
1.44691
1.44173
1.53299
3.15431
5.01194
5.25062
5.26349
5.27568
5.28131
5.28454
5.2771
5.23919
5.16015
5.06888
5.0299
5.02493
5.02545
5.02808
5.0214
5.00835
4.98486
4.93492
4.83791
4.74795
4.72295
4.70933
4.69827
4.68226
4.66096
4.63308
4.59359
4.52827
4.43703
4.36519
4.32806
4.29829
4.26714
5.61747
5.54829
5.48333
5.42699
5.36725
5.30632
5.24799
5.19971
5.15074
5.09369
5.0354
4.9738
4.89924
4.8447
4.79744
4.74427
4.69319
4.64374
4.59384
4.539
4.47987
4.42981
4.38151
4.32917
4.28617
4.2367
4.17914
4.12464
4.07248
4.03501
4.00088
3.956
3.91156
3.86456
3.80292
3.76153
3.72547
3.6817
3.64296
3.59715
3.5537
3.52403
3.48617
3.44859
3.40596
3.34611
3.29746
3.27572
3.25482
3.23055
3.20081
3.15252
3.09202
3.04593
3.03022
3.02263
3.00871
2.98555
2.93737
2.87015
2.81605
2.79516
2.78915
2.78512
2.77221
2.74375
2.69132
2.63359
2.60155
2.59326
2.58952
2.57908
2.55766
2.51278
2.45863
2.42218
2.41196
2.41013
2.40527
2.39173
2.35947
2.30959
2.26831
2.25518
2.25126
2.2468
2.23653
2.21661
2.17656
2.12967
2.10007
2.09305
2.09182
2.0874
2.07674
2.05132
2.01331
1.99251
1.9871
1.98179
1.97327
1.95804
1.92554
1.88634
1.86457
1.86046
1.85916
1.85481
1.84647
1.8286
1.79588
1.7684
1.76156
1.75934
1.75476
1.74618
1.72733
1.6963
1.67286
1.66701
1.663
1.65628
1.64512
1.62544
1.60843
1.60301
1.59992
1.59609
1.59002
1.57561
1.54896
1.52214
1.5098
1.50593
1.50194
1.49601
1.48713
1.47892
1.47412
1.46834
1.45787
1.4524
1.82689
4.04576
5.21317
5.30159
5.30584
5.30304
5.29483
5.26434
5.19787
5.1077
5.05258
5.04564
5.04436
5.04681
5.04438
5.03412
5.01764
4.98396
4.90813
4.80276
4.75509
4.74052
4.73017
4.71812
4.69928
4.67435
4.6405
4.5875
4.50294
4.41857
4.3756
4.34783
4.31874
4.28651
5.63487
5.56497
5.5041
5.44662
5.39145
5.33163
5.27109
5.22357
5.17109
5.11351
5.05883
4.995
4.93064
4.87608
4.82126
4.76922
4.71202
4.66029
4.61313
4.55958
4.50952
4.46507
4.41503
4.36767
4.31535
4.25732
4.20161
4.14172
4.09925
4.06878
4.02849
3.98498
3.94337
3.88702
3.83745
3.79726
3.75229
3.71112
3.66504
3.61423
3.58496
3.55026
3.51181
3.47539
3.42379
3.37419
3.3431
3.31531
3.28663
3.25489
3.20859
3.14807
3.10323
3.08773
3.08034
3.06675
3.04479
2.99882
2.93024
2.87239
2.85014
2.84302
2.83741
2.82369
2.79452
2.74198
2.68528
2.65358
2.64567
2.64251
2.63195
2.6098
2.56329
2.50658
2.46892
2.45843
2.45617
2.45107
2.43726
2.40456
2.35443
2.31244
2.29876
2.29474
2.29007
2.27951
2.25908
2.21789
2.16997
2.14032
2.13329
2.13187
2.12728
2.11619
2.09009
2.05105
2.02835
2.02287
2.01805
2.00965
1.99486
1.96249
1.92292
1.90016
1.89567
1.89409
1.88939
1.88078
1.86273
1.82961
1.80066
1.79311
1.79112
1.7869
1.77848
1.76006
1.72849
1.70366
1.69722
1.69304
1.68646
1.67591
1.65621
1.63696
1.63053
1.6271
1.62304
1.61701
1.60359
1.57681
1.54839
1.53566
1.53197
1.5279
1.52218
1.51205
1.50237
1.4978
1.49304
1.48736
1.47698
1.45514
1.4739
2.45124
4.71488
5.32471
5.31184
5.30935
5.28886
5.22805
5.13983
5.07426
5.06174
5.06195
5.06469
5.06535
5.05793
5.04543
5.02253
4.96852
4.86873
4.79144
4.77252
4.76091
4.75074
4.73531
4.71307
4.68275
4.63823
4.56452
4.4747
4.4203
4.39436
4.36879
4.33907
4.30463
5.66221
5.59569
5.52828
5.46431
5.40486
5.34278
5.29361
5.2451
5.18874
5.1332
5.07618
5.01696
4.95847
4.90065
4.84872
4.79372
4.73602
4.68796
4.63512
4.58155
4.53419
4.48654
4.44296
4.39425
4.33729
4.28412
4.22618
4.17218
4.13846
4.09883
4.05315
4.01034
3.95951
3.91238
3.87176
3.82595
3.78345
3.74102
3.68358
3.64642
3.61293
3.57216
3.53768
3.49328
3.44759