/*--------------------------------*- C++ -*----------------------------------*\
  =========                 |
  \\      /  F ield         | OpenFOAM: The Open Source CFD Toolbox
   \\    /   O peration     | Website:  https://openfoam.org
    \\  /    A nd           | Version:  7
     \\/     M anipulation  |
\*---------------------------------------------------------------------------*/
FoamFile
{
    version     2.0;
    format      ascii;
    class       volScalarField;
    location    "0.4";
    object      rho;
}
// * * * * * * * * * * * * * * * * * * * * * * * * * * * * * * * * * * * * * //

dimensions      [1 -3 0 0 0 0 0];

internalField   nonuniform List<scalar> 
16192
(
0.7563
0.755562
0.757992
0.764757
0.775296
0.791619
0.812508
0.828715
0.837781
0.840381
0.838712
0.83096
0.809799
0.780899
0.765663
0.763001
0.76568
0.779779
0.809052
0.846765
0.870218
0.873462
0.872063
0.86653
0.852902
0.826228
0.790932
0.77301
0.770615
0.770709
0.773673
0.784062
0.803932
0.829346
0.848339
0.852287
0.851767
0.848723
0.839841
0.821118
0.803684
0.797905
0.796405
0.795638
0.7964
0.796814
0.795044
0.790982
0.784002
0.772722
0.765718
0.765053
0.766204
0.772242
0.783025
0.791931
0.792868
0.790619
0.782974
0.766152
0.739632
0.70195
0.673711
0.669034
0.668628
0.669442
0.67246
0.676677
0.681227
0.683923
0.68497
0.68785
0.695521
0.698675
0.696626
0.682384
0.650636
0.630903
0.631565
0.635789
0.64238
0.652719
0.664602
0.673279
0.680046
0.688516
0.702247
0.724751
0.750164
0.762171
0.763823
0.761418
0.744024
0.698848
0.661974
0.659115
0.662407
0.669616
0.682719
0.704232
0.738628
0.768213
0.774458
0.77577
0.778428
0.784539
0.794314
0.798775
0.799502
0.797618
0.797928
0.799648
0.803178
0.807777
0.809401
0.809397
0.80925
0.808776
0.808436
0.808637
0.810871
0.810012
0.805903
0.800607
0.796225
0.793508
0.792585
0.790127
0.787143
0.788163
0.799282
0.831917
0.912217
1.05394
1.12212
1.12569
1.12443
1.12272
1.12189
1.12152
1.12136
1.12129
1.122
1.12426
1.12628
1.1258
1.12599
1.13528
1.16095
1.20478
1.27087
1.36951
1.47463
1.50871
1.50981
1.50722
1.49659
1.47609
1.44416
1.40093
1.36139
1.34681
1.34268
1.33973
1.33818
1.34368
1.37263
1.41423
1.44256
1.45095
1.4499
1.44738
1.44574
1.44384
1.4416
1.44038
1.43986
1.44197
1.45219
1.46182
1.46348
1.46338
1.46352
1.46344
1.46286
1.46222
1.46113
1.45775
1.45173
1.44909
1.44872
1.44853
1.44989
1.45927
1.48107
1.49654
1.49804
1.49753
1.49597
1.49118
1.47743
1.45741
1.44987
1.44938
1.44924
1.44927
1.4509
1.45531
1.45748
1.45741
1.45683
1.4549
1.4483
1.43402
1.42327
1.42167
1.42154
1.42144
1.42141
1.42202
1.42484
1.42848
1.4296
1.42975
1.42976
1.42969
1.42959
1.42951
1.42943
1.4293
1.42905
1.42863
1.42833
1.42822
1.42816
1.42814
1.42841
1.42982
1.43188
1.43254
1.43253
1.43249
1.43244
1.43234
1.43202
1.43111
1.42976
1.42911
1.42898
1.42891
1.42883
1.42873
1.42861
0.771152
0.768697
0.768327
0.771674
0.779454
0.787706
0.794181
0.799118
0.803703
0.808647
0.812484
0.812615
0.811926
0.810816
0.804045
0.796559
0.795187
0.801583
0.819246
0.839246
0.852853
0.859853
0.859559
0.854307
0.84129
0.820232
0.801408
0.790925
0.788046
0.78784
0.789646
0.79637
0.810445
0.830136
0.844626
0.848463
0.847548
0.843598
0.835565
0.827087
0.819083
0.812037
0.809191
0.808055
0.806697
0.804123
0.800447
0.795455
0.787715
0.775902
0.764803
0.762339
0.762916
0.765873
0.771556
0.779448
0.783916
0.782802
0.778006
0.769604
0.754253
0.728055
0.694747
0.678007
0.676467
0.676882
0.679276
0.682877
0.68688
0.688706
0.6873
0.685304
0.684981
0.686561
0.684544
0.672918
0.657055
0.645743
0.641628
0.643963
0.649743
0.6584
0.669133
0.678744
0.68651
0.694816
0.707581
0.728286
0.745085
0.74972
0.751237
0.749241
0.735101
0.706186
0.677686
0.667348
0.668416
0.673525
0.685258
0.706501
0.732891
0.758755
0.773408
0.776123
0.778415
0.783804
0.792811
0.797516
0.798756
0.797365
0.796903
0.797899
0.800121
0.804104
0.807217
0.80856
0.809987
0.810661
0.810545
0.810573
0.812736
0.813733
0.81
0.803378
0.795494
0.791026
0.789165
0.789342
0.788106
0.787251
0.797794
0.833955
0.918674
1.05498
1.1035
1.10539
1.10069
1.09739
1.0965
1.0957
1.09682
1.10035
1.1038
1.10773
1.11398
1.1231
1.13383
1.14789
1.17195
1.21235
1.27594
1.3708
1.46793
1.50157
1.50285
1.50012
1.48971
1.47072
1.44045
1.40001
1.36883
1.35457
1.34866
1.34533
1.34372
1.34836
1.37231
1.40666
1.43403
1.44564
1.44581
1.44413
1.44303
1.442
1.44028
1.43923
1.43885
1.44102
1.45052
1.46011
1.46205
1.46197
1.46199
1.46192
1.46149
1.46101
1.46024
1.4574
1.45194
1.44975
1.44944
1.44937
1.45104
1.45981
1.47976
1.49544
1.49738
1.49688
1.4953
1.49049
1.47688
1.45711
1.44961
1.44915
1.44905
1.44908
1.45036
1.4542
1.45686
1.45689
1.45638
1.45447
1.44791
1.43372
1.42308
1.42152
1.42144
1.42138
1.42137
1.42197
1.42439
1.42793
1.42933
1.42943
1.42944
1.42939
1.4293
1.42921
1.42913
1.42903
1.42884
1.42849
1.42831
1.42827
1.42824
1.42825
1.42856
1.4298
1.43168
1.43242
1.43243
1.43239
1.43234
1.43223
1.4319
1.431
1.42968
1.42904
1.42891
1.42885
1.42878
1.42869
1.42858
0.783848
0.784054
0.783615
0.78349
0.784157
0.785016
0.782675
0.777803
0.774709
0.774764
0.778912
0.789013
0.803997
0.816472
0.824517
0.830805
0.836951
0.840838
0.84208
0.842272
0.844225
0.849846
0.851749
0.847151
0.835188
0.822501
0.814925
0.810446
0.809594
0.811255
0.816395
0.825283
0.837107
0.84692
0.854451
0.859303
0.858699
0.854056
0.847312
0.842371
0.837668
0.832737
0.828743
0.826156
0.823608
0.820589
0.81711
0.812093
0.804052
0.791917
0.775651
0.765023
0.763872
0.764267
0.766832
0.771922
0.778918
0.782381
0.78072
0.776126
0.76654
0.748735
0.721415
0.695845
0.688366
0.688447
0.690286
0.694496
0.700183
0.700514
0.696245
0.689461
0.683267
0.676488
0.667333
0.660471
0.659286
0.659129
0.655912
0.654266
0.657518
0.662461
0.668323
0.676915
0.688531
0.701566
0.717872
0.736253
0.744421
0.745129
0.743307
0.734928
0.720564
0.706097
0.692266
0.68084
0.678641
0.682087
0.691186
0.707619
0.728433
0.747372
0.764923
0.775121
0.778051
0.782025
0.788607
0.792706
0.794521
0.794077
0.793244
0.793807
0.795941
0.801062
0.806106
0.807988
0.808798
0.809529
0.81029
0.812725
0.817912
0.823632
0.823118
0.820159
0.815594
0.807412
0.801063
0.7983
0.793414
0.790532
0.799141
0.826355
0.892164
1.01369
1.07416
1.07786
1.07355
1.06206
1.05369
1.04989
1.04887
1.05141
1.05886
1.06973
1.08683
1.11294
1.14208
1.17267
1.20803
1.25085
1.30522
1.37945
1.46033
1.49241
1.494
1.49168
1.48128
1.461
1.4302
1.39377
1.37209
1.36457
1.36066
1.35779
1.35631
1.35821
1.37261
1.40085
1.428
1.43962
1.4415
1.44161
1.44268
1.44551
1.44541
1.44382
1.44312
1.44499
1.45338
1.46047
1.46153
1.4614
1.46141
1.46126
1.46089
1.46052
1.45989
1.45754
1.45276
1.45066
1.45033
1.45022
1.45183
1.46054
1.48021
1.49538
1.49716
1.49671
1.49522
1.49053
1.47711
1.45752
1.45002
1.44955
1.44944
1.44944
1.45067
1.45458
1.45721
1.45723
1.45671
1.45478
1.44813
1.43385
1.4233
1.42181
1.42172
1.42165
1.42165
1.42222
1.42465
1.42817
1.42944
1.42948
1.42943
1.42942
1.4294
1.42933
1.42925
1.42917
1.42902
1.42874
1.42853
1.42847
1.42842
1.42842
1.42873
1.42998
1.43176
1.43238
1.43238
1.43234
1.43229
1.43218
1.43184
1.43095
1.42972
1.42917
1.42905
1.42899
1.42892
1.42883
1.42872
0.781453
0.785538
0.787828
0.787035
0.781212
0.768015
0.757973
0.754712
0.754728
0.757684
0.76509
0.778154
0.796904
0.825625
0.85421
0.87027
0.875123
0.874647
0.863631
0.84582
0.838248
0.837299
0.83947
0.842229
0.841692
0.840767
0.84064
0.839893
0.840337
0.84485
0.851927
0.860361
0.869659
0.873424
0.873432
0.874443
0.879678
0.88169
0.880617
0.878789
0.875008
0.868923
0.861904
0.855385
0.850039
0.845726
0.841342
0.83526
0.826169
0.813066
0.794678
0.777991
0.773754
0.773522
0.773969
0.776135
0.781349
0.789351
0.791615
0.788985
0.781376
0.766947
0.746296
0.723465
0.710014
0.708573
0.70975
0.713501
0.717134
0.716147
0.710705
0.699843
0.684868
0.666346
0.656198
0.656375
0.661995
0.669867
0.673756
0.674441
0.672483
0.673341
0.676237
0.681841
0.694583
0.711617
0.725051
0.733618
0.739057
0.739614
0.73482
0.724095
0.712832
0.705364
0.70257
0.698307
0.693143
0.694199
0.699599
0.709818
0.724399
0.739374
0.753378
0.767669
0.776209
0.780316
0.78358
0.785738
0.787598
0.788276
0.787907
0.788751
0.790668
0.795928
0.804099
0.807501
0.807787
0.807994
0.809106
0.811818
0.817355
0.828144
0.835477
0.835298
0.834327
0.829816
0.821213
0.812854
0.805277
0.799908
0.803986
0.8225
0.864662
0.941472
1.01078
1.02461
1.02441
1.0132
1.00066
0.997954
0.998737
1.00491
1.01813
1.03782
1.06717
1.10792
1.15892
1.21167
1.25474
1.29038
1.33112
1.38899
1.44985
1.47197
1.47325
1.4719
1.46378
1.44505
1.4171
1.39263
1.38016
1.37423
1.37063
1.36821
1.36656
1.36605
1.37154
1.39249
1.41824
1.43261
1.43692
1.43866
1.44086
1.44402
1.44678
1.44655
1.44612
1.44863
1.45627
1.46027
1.46018
1.4598
1.45978
1.46008
1.45982
1.45942
1.45886
1.45716
1.4536
1.45174
1.45142
1.4513
1.45285
1.46143
1.4807
1.49512
1.49673
1.49628
1.49479
1.49014
1.47692
1.45755
1.45002
1.44954
1.44942
1.44941
1.45064
1.45458
1.45721
1.45723
1.45671
1.45479
1.44814
1.43378
1.42331
1.42185
1.42176
1.42169
1.42168
1.42225
1.42468
1.4282
1.42942
1.42941
1.42936
1.42934
1.42932
1.42929
1.42923
1.42915
1.42901
1.42878
1.42865
1.42858
1.42853
1.42853
1.42889
1.43022
1.43187
1.43231
1.43228
1.43223
1.43216
1.43202
1.43166
1.43078
1.42964
1.42918
1.4291
1.42905
1.42898
1.4289
1.42879
0.768354
0.776938
0.780195
0.77984
0.777719
0.77173
0.761341
0.755097
0.75353
0.754985
0.761921
0.776204
0.802759
0.838708
0.865657
0.877382
0.880798
0.881069
0.872596
0.848579
0.832394
0.827754
0.827186
0.831209
0.843608
0.857173
0.86735
0.875028
0.880924
0.885454
0.889498
0.892398
0.893258
0.894575
0.897128
0.899924
0.906141
0.91692
0.921271
0.921274
0.919961
0.915108
0.906858
0.898096
0.890934
0.884907
0.878013
0.868111
0.853976
0.836668
0.818488
0.801957
0.792376
0.790807
0.79116
0.792463
0.796051
0.804556
0.81041
0.808591
0.80196
0.790036
0.772711
0.75207
0.739336
0.738477
0.740127
0.740854
0.739555
0.736464
0.730203
0.716159
0.691844
0.665466
0.655311
0.656066
0.662848
0.676519
0.685865
0.68827
0.687838
0.686563
0.688827
0.695221
0.709558
0.724716
0.729648
0.731022
0.730937
0.728409
0.724294
0.718933
0.711684
0.709219
0.709911
0.710263
0.707261
0.705507
0.708122
0.713972
0.721944
0.73259
0.744313
0.757978
0.771814
0.779039
0.780767
0.781023
0.780817
0.780995
0.781584
0.78261
0.784427
0.789741
0.801105
0.808845
0.809005
0.807701
0.807331
0.808402
0.813312
0.82378
0.842114
0.851272
0.851864
0.851736
0.847935
0.836087
0.821805
0.81463
0.815362
0.823828
0.846477
0.883096
0.924297
0.948041
0.952587
0.948743
0.9466
0.950792
0.961756
0.977375
0.998475
1.02736
1.06702
1.12334
1.19986
1.26335
1.29489
1.316
1.34745
1.39871
1.43991
1.44977
1.45033
1.44849
1.44048
1.42356
1.40273
1.39119
1.38585
1.38119
1.37749
1.37523
1.37384
1.37336
1.37687
1.38999
1.41083
1.42665
1.43387
1.43696
1.43929
1.44245
1.44611
1.44911
1.45159
1.45515
1.45888
1.45954
1.45889
1.45844
1.45844
1.45913
1.45912
1.4587
1.45815
1.45706
1.45455
1.45278
1.45243
1.45234
1.45395
1.46258
1.48148
1.49494
1.49628
1.49575
1.49414
1.48949
1.47656
1.45746
1.44992
1.44943
1.44931
1.44929
1.45041
1.45426
1.45691
1.45694
1.45643
1.45451
1.44787
1.43369
1.42338
1.4219
1.42179
1.42172
1.4217
1.42221
1.42458
1.42803
1.42914
1.42911
1.42903
1.42899
1.42898
1.429
1.429
1.42896
1.4289
1.42884
1.42876
1.42871
1.42867
1.42869
1.42913
1.43054
1.43201
1.43227
1.43223
1.43216
1.43207
1.4319
1.43147
1.43052
1.42955
1.42925
1.42919
1.42914
1.42907
1.42898
1.42888
0.733096
0.73898
0.74888
0.758419
0.761503
0.761662
0.762323
0.762855
0.764008
0.766985
0.773993
0.78782
0.806151
0.823996
0.845005
0.866057
0.8744
0.874263
0.867533
0.845929
0.821708
0.817507
0.819551
0.82645
0.841596
0.869201
0.89815
0.912786
0.916729
0.917333
0.91641
0.911624
0.90755
0.907949
0.911674
0.916791
0.924212
0.939169
0.951456
0.953434
0.953475
0.951008
0.944639
0.937756
0.931514
0.924108
0.913589
0.899265
0.882195
0.865081
0.850777
0.838436
0.825599
0.817654
0.8165
0.816386
0.817429
0.822616
0.830589
0.830889
0.826752
0.817675
0.801105
0.77956
0.769933
0.769927
0.771803
0.772249
0.769421
0.762164
0.750514
0.731431
0.70168
0.675485
0.669722
0.669235
0.67271
0.68433
0.696707
0.701207
0.702115
0.702549
0.705926
0.713764
0.724871
0.730307
0.731376
0.728631
0.718866
0.714211
0.716601
0.720314
0.721707
0.722053
0.721727
0.721204
0.720236
0.717009
0.71617
0.718544
0.722496
0.727989
0.736477
0.748843
0.765998
0.776748
0.778646
0.779362
0.778762
0.776634
0.776443
0.777243
0.77887
0.783955
0.796485
0.807774
0.808954
0.807846
0.8047
0.804321
0.807841
0.81787
0.838693
0.864982
0.871372
0.872653
0.872358
0.8653
0.845221
0.829958
0.829898
0.833629
0.844064
0.856973
0.873778
0.891216
0.902231
0.911463
0.922586
0.936905
0.954647
0.975662
1.00072
1.03247
1.07893
1.15563
1.24534
1.29632
1.31749
1.33674
1.36975
1.40844
1.42724
1.42953
1.42827
1.42369
1.41451
1.40006
1.38924
1.38695
1.38635
1.38494
1.38311
1.38161
1.38054
1.38037
1.38368
1.39378
1.40842
1.42158
1.42981
1.43412
1.43678
1.43947
1.4442
1.45328
1.46111
1.46129
1.45908
1.45809
1.4577
1.45736
1.45717
1.45739
1.45805
1.45798
1.45761
1.45682
1.45501
1.45368
1.45337
1.45333
1.45516
1.46395
1.4824
1.49475
1.49576
1.49517
1.49353
1.48887
1.47596
1.45691
1.4494
1.44892
1.44882
1.44888
1.45038
1.45456
1.4572
1.45722
1.4567
1.45478
1.44819
1.43399
1.42349
1.42196
1.42185
1.42179
1.42179
1.42241
1.42484
1.42818
1.42919
1.42915
1.42907
1.42902
1.429
1.429
1.42897
1.42894
1.42892
1.42892
1.42888
1.42882
1.42879
1.42886
1.42944
1.4309
1.43212
1.43226
1.43221
1.43214
1.43204
1.43183
1.43127
1.43025
1.42947
1.42929
1.42924
1.42919
1.42912
1.42904
1.42895
0.705178
0.706367
0.710996
0.722953
0.740072
0.752197
0.759437
0.766418
0.774581
0.784264
0.794511
0.803025
0.808598
0.814086
0.820844
0.831365
0.846311
0.853826
0.853896
0.849178
0.832987
0.818022
0.818312
0.825152
0.845064
0.884071
0.919246
0.933814
0.93848
0.938087
0.933007
0.921505
0.914506
0.914961
0.91816
0.924163
0.933877
0.952301
0.974048
0.981012
0.981815
0.981801
0.979972
0.975555
0.967692
0.954613
0.938387
0.922594
0.908376
0.896067
0.885145
0.874258
0.862298
0.849509
0.844502
0.84312
0.842591
0.845334
0.85151
0.85128
0.847249
0.838902
0.825045
0.810444
0.802283
0.799249
0.798355
0.797212
0.79316
0.780383
0.759424
0.735837
0.71267
0.695667
0.690472
0.689318
0.69041
0.696067
0.70481
0.71233
0.717471
0.722201
0.728508
0.734636
0.736708
0.736911
0.73222
0.719417
0.709029
0.709394
0.712419
0.719296
0.730675
0.737468
0.738828
0.738986
0.737675
0.733849
0.726943
0.722057
0.723375
0.726582
0.731475
0.740806
0.757494
0.77331
0.777739
0.778937
0.779315
0.777381
0.774513
0.774447
0.775738
0.780194
0.792715
0.80645
0.80915
0.808828
0.805241
0.801737
0.805071
0.814316
0.833268
0.867114
0.889297
0.891806
0.892715
0.89152
0.877471
0.849475
0.842912
0.843078
0.842717
0.84575
0.857859
0.871445
0.884229
0.898768
0.914889
0.933379
0.95442
0.977049
1.00177
1.03428
1.08745
1.17745
1.26808
1.31053
1.33365
1.36154
1.39112
1.40715
1.41402
1.41608
1.4134
1.40504
1.39315
1.3843
1.38279
1.38269
1.38287
1.38392
1.38463
1.38441
1.38393
1.38473
1.38944
1.39797
1.40868
1.41924
1.42591
1.42936
1.43206
1.4363
1.44593
1.46066
1.46604
1.46466
1.46151
1.45797
1.4569
1.45656
1.45628
1.45622
1.4568
1.45674
1.45647
1.45613
1.45521
1.45451
1.45429
1.45435
1.45653
1.46555
1.48331
1.49434
1.49505
1.49444
1.49281
1.48822
1.47562
1.457
1.44959
1.44909
1.44898
1.44899
1.45037
1.45449
1.45713
1.45715
1.45664
1.45473
1.44817
1.43409
1.42362
1.4221
1.42199
1.42192
1.42191
1.42247
1.42485
1.42814
1.42912
1.42907
1.42898
1.42893
1.42892
1.42893
1.42892
1.42888
1.42885
1.42885
1.42892
1.42898
1.42901
1.42919
1.4299
1.43131
1.43222
1.43226
1.43219
1.4321
1.43197
1.43169
1.431
1.42991
1.42935
1.42928
1.42925
1.42921
1.42916
1.42909
1.42901
0.682687
0.684691
0.688635
0.698284
0.717536
0.740009
0.757798
0.771175
0.782695
0.792939
0.800059
0.803397
0.80504
0.805711
0.805104
0.807204
0.813496
0.827633
0.838666
0.84024
0.839172
0.831355
0.830399
0.83816
0.858028
0.88542
0.911447
0.929809
0.937828
0.939845
0.936372
0.925365
0.918092
0.918691
0.921918
0.928542
0.941216
0.965753
0.995219
1.00432
1.00515
1.00539
1.00308
0.995367
0.982991
0.967447
0.952426
0.940673
0.931888
0.924739
0.915859
0.90562
0.895989
0.884282
0.874643
0.87191
0.870739
0.871161
0.869987
0.86622
0.860509
0.852541
0.844624
0.83977
0.83487
0.829252
0.82405
0.816498
0.803191
0.783755
0.758724
0.739826
0.730569
0.723974
0.71817
0.716009
0.716014
0.716577
0.71886
0.725337
0.73504
0.744429
0.750608
0.752335
0.751492
0.743044
0.726685
0.710849
0.707749
0.708756
0.71213
0.720277
0.73618
0.752949
0.760133
0.761103
0.760178
0.756094
0.746168
0.732109
0.72575
0.726164
0.729421
0.736837
0.750383
0.768932
0.778484
0.780315
0.781132
0.780167
0.775796
0.774331
0.775326
0.779227
0.790198
0.803864
0.807706
0.80802
0.806851
0.802654
0.805264
0.813451
0.828983
0.858961
0.897264
0.908036
0.909339
0.909703
0.904319
0.879473
0.858754
0.855898
0.855106
0.855968
0.860912
0.868082
0.879514
0.89448
0.912124
0.932817
0.95677
0.982366
1.00906
1.04292
1.09631
1.183
1.28003
1.32904
1.35522
1.3823
1.39929
1.3991
1.39823
1.40071
1.39803
1.38843
1.37871
1.37609
1.37599
1.37594
1.37673
1.37936
1.3821
1.38421
1.38587
1.38819
1.39313
1.40187
1.41255
1.42011
1.42317
1.42439
1.42639
1.43249
1.44788
1.46583
1.46921
1.46747
1.46413
1.45904
1.45579
1.45525
1.45497
1.45482
1.45499
1.45603
1.45662
1.45645
1.45572
1.45515
1.45495
1.45516
1.4579
1.46746
1.48449
1.49391
1.49433
1.49366
1.49196
1.48737
1.47502
1.45679
1.44951
1.44902
1.44892
1.44891
1.45013
1.45412
1.45678
1.45681
1.45632
1.45443
1.448
1.4342
1.4238
1.42223
1.42212
1.42204
1.422
1.42247
1.4247
1.42787
1.42883
1.42879
1.42871
1.42868
1.42869
1.42876
1.42879
1.42877
1.42875
1.42879
1.42892
1.42905
1.42918
1.42951
1.43047
1.43184
1.43226
1.43221
1.43212
1.43203
1.43187
1.43148
1.4306
1.4296
1.42931
1.42927
1.42925
1.42922
1.42918
1.42913
1.42907
0.673953
0.676569
0.681022
0.690805
0.709419
0.734777
0.756721
0.769069
0.777682
0.786296
0.793113
0.795221
0.796012
0.793485
0.790781
0.792529
0.795528
0.80316
0.821352
0.834753
0.837769
0.838625
0.842479
0.854647
0.871708
0.886471
0.897745
0.909111
0.922979
0.932631
0.933358
0.93028
0.924672
0.92383
0.92649
0.932831
0.946146
0.971571
0.999009
1.00649
1.00709
1.00717
1.00506
0.997873
0.984881
0.972282
0.963414
0.957368
0.954959
0.952556
0.946589
0.940155
0.933276
0.924267
0.91251
0.899525
0.892303
0.887718
0.883472
0.879078
0.873822
0.869447
0.86875
0.867788
0.862578
0.852134
0.837005
0.821532
0.804775
0.78278
0.760923
0.752273
0.749416
0.745856
0.741057
0.73737
0.735009
0.733583
0.734284
0.74296
0.759029
0.768932
0.770942
0.770462
0.762376
0.741181
0.718476
0.712108
0.711899
0.713442
0.716977
0.724892
0.742047
0.767083
0.781761
0.783813
0.783385
0.779677
0.768542
0.748944
0.735964
0.733956
0.7343
0.737424
0.747493
0.764931
0.777971
0.782353
0.784142
0.784642
0.782193
0.780048
0.780435
0.782546
0.790354
0.802285
0.806762
0.807713
0.808451
0.806582
0.807995
0.815652
0.828318
0.850302
0.88865
0.917402
0.921267
0.922937
0.922424
0.910214
0.885159
0.877077
0.874905
0.873635
0.872818
0.874465
0.882315
0.896368
0.916682
0.943893
0.975952
1.0074
1.03593
1.06698
1.11162
1.18375
1.27986
1.35344
1.382
1.39228
1.39458
1.39017
1.38465
1.38335
1.38191
1.3781
1.37551
1.37506
1.37502
1.3751
1.37582
1.37815
1.38155
1.38409
1.38603
1.38935
1.39654
1.4068
1.4148
1.41836
1.41848
1.41839
1.42029
1.42897
1.44979
1.46987
1.47249
1.47068
1.46713
1.46096
1.45522
1.45402
1.45371
1.45347
1.45354
1.4549
1.4562
1.45613
1.45575
1.4554
1.45528
1.45601
1.45971
1.46973
1.48573
1.49352
1.49369
1.49298
1.49127
1.48666
1.47433
1.45639
1.44932
1.44885
1.44875
1.44878
1.45026
1.45449
1.45713
1.45715
1.45661
1.45468
1.44817
1.4342
1.4238
1.42232
1.42223
1.42216
1.42215
1.42275
1.42509
1.42809
1.4289
1.42883
1.42875
1.42872
1.42869
1.42866
1.42864
1.42862
1.42862
1.42872
1.42888
1.42902
1.42924
1.42983
1.43113
1.43233
1.4325
1.43243
1.43231
1.43216
1.43188
1.43124
1.4301
1.42938
1.42928
1.42925
1.42923
1.42922
1.4292
1.42916
1.42911
0.674207
0.674878
0.679634
0.689816
0.707676
0.728899
0.743951
0.754582
0.764957
0.775418
0.781367
0.782956
0.78338
0.77956
0.77864
0.781179
0.784057
0.789665
0.804974
0.827943
0.843482
0.851084
0.857567
0.865464
0.873567
0.880843
0.885894
0.891405
0.899562
0.915549
0.929769
0.932336
0.932464
0.931256
0.933214
0.939513
0.951337
0.972887
0.997712
1.0052
1.00591
1.00519
1.00052
0.991496
0.983595
0.978774
0.97673
0.977476
0.982558
0.985235
0.983184
0.978952
0.971987
0.958414
0.938639
0.917517
0.905795
0.901169
0.898106
0.895685
0.894246
0.895155
0.896444
0.892589
0.879967
0.859752
0.837976
0.81671
0.79572
0.776486
0.766115
0.761824
0.758616
0.755581
0.752382
0.749225
0.747026
0.746799
0.753788
0.771696
0.786234
0.788729
0.787632
0.782073
0.76557
0.736156
0.720249
0.718272
0.718786
0.720503
0.724183
0.732465
0.751643
0.782311
0.800805
0.803432
0.803482
0.800984
0.790151
0.768711
0.752333
0.748446
0.747442
0.747591
0.753208
0.766173
0.776848
0.783873
0.788321
0.790742
0.791236
0.790797
0.791112
0.792504
0.797924
0.805198
0.809708
0.811706
0.813171
0.813716
0.814874
0.820871
0.831225
0.846828
0.872705
0.908688
0.932876
0.93836
0.938565
0.934808
0.92019
0.908589
0.906185
0.904423
0.902001
0.90155
0.905374
0.916953
0.939185
0.974249
1.01573
1.05206
1.07943
1.10285
1.13185
1.18082
1.26162
1.35061
1.38819
1.39135
1.38643
1.37701
1.37092
1.36927
1.37338
1.37633
1.37593
1.37612
1.37608
1.37606
1.37631
1.37769
1.3805
1.38328
1.3865
1.39285
1.40361
1.41276
1.41488
1.41391
1.41278
1.41245
1.41453
1.42579
1.45166
1.47331
1.47574
1.47413
1.47033
1.46282
1.45506
1.45314
1.45279
1.45253
1.45241
1.45288
1.45455
1.45592
1.45616
1.45612
1.45627
1.45754
1.46167
1.47178
1.48671
1.4931
1.49309
1.49226
1.49043
1.48573
1.47347
1.45592
1.44905
1.4486
1.44851
1.44858
1.45014
1.45447
1.4572
1.45722
1.45667
1.45472
1.44823
1.4343
1.42388
1.42238
1.4223
1.42224
1.42223
1.42285
1.42526
1.4282
1.42887
1.42879
1.42869
1.42864
1.4286
1.42856
1.42852
1.4285
1.42852
1.42865
1.42881
1.42901
1.42938
1.43029
1.43184
1.43263
1.43264
1.43256
1.43244
1.43225
1.43185
1.43096
1.42974
1.42927
1.42923
1.42921
1.4292
1.42922
1.4292
1.42917
1.42913
0.681818
0.682922
0.68743
0.696821
0.711829
0.727328
0.736506
0.741922
0.747048
0.752793
0.759374
0.767601
0.774105
0.777253
0.777572
0.7786
0.781888
0.787429
0.800963
0.825937
0.84988
0.861137
0.86608
0.867978
0.869306
0.871367
0.874516
0.877221
0.882394
0.89472
0.91825
0.934237
0.937724
0.939828
0.941926
0.946816
0.955564
0.969955
0.989403
0.996072
0.99668
0.99156
0.985714
0.986237
0.987973
0.990176
0.99576
1.00785
1.01975
1.02107
1.01591
1.00473
0.990235
0.971535
0.948805
0.932674
0.926254
0.923193
0.921267
0.920374
0.922974
0.925802
0.922641
0.909016
0.884012
0.853163
0.82337
0.796925
0.777183
0.771079
0.76926
0.767633
0.765017
0.762308
0.760341
0.759098
0.759963
0.767418
0.782569
0.795233
0.797629
0.796284
0.793131
0.785329
0.763765
0.739532
0.730987
0.729494
0.729646
0.730944
0.734386
0.743318
0.765032
0.798132
0.815463
0.817773
0.818068
0.816563
0.806519
0.785764
0.770717
0.765853
0.763784
0.762699
0.764872
0.775888
0.783477
0.788042
0.794269
0.798704
0.800784
0.801855
0.803268
0.807026
0.810828
0.812201
0.815334
0.819901
0.822811
0.825549
0.827121
0.830089
0.83638
0.846894
0.863865
0.891397
0.923923
0.947853
0.958893
0.959136
0.95571
0.949709
0.944806
0.93992
0.937304
0.936444
0.936133
0.94319
0.970719
1.02239
1.07956
1.11373
1.13039
1.14327
1.15903
1.18598
1.24201
1.33315
1.37977
1.38145
1.37337
1.36442
1.36163
1.36372
1.37302
1.37761
1.37777
1.37637
1.37568
1.37568
1.37592
1.37699
1.3793
1.38304
1.39028
1.4027
1.41249
1.41378
1.41231
1.40822
1.40652
1.40616
1.4085
1.42274
1.45434
1.47696
1.47894
1.4774
1.47337
1.46444
1.45373
1.45074
1.45033
1.45006
1.44993
1.45038
1.45249
1.45515
1.45652
1.45707
1.45771
1.45935
1.46365
1.47355
1.48738
1.49276
1.49264
1.49173
1.48979
1.48487
1.47248
1.45525
1.44874
1.44833
1.44824
1.44831
1.44975
1.45402
1.45724
1.45741
1.45694
1.45502
1.44843
1.4343
1.42386
1.42237
1.42228
1.42222
1.42224
1.42296
1.42546
1.42822
1.42875
1.42866
1.42857
1.42853
1.42848
1.42843
1.42839
1.42838
1.42842
1.42855
1.42871
1.42896
1.42954
1.43088
1.43244
1.43285
1.43281
1.43273
1.43259
1.43234
1.43178
1.43065
1.42952
1.42923
1.42919
1.42916
1.42915
1.42915
1.42919
1.42919
1.42916
0.687241
0.69119
0.69696
0.705319
0.716443
0.725843
0.72908
0.731187
0.733695
0.737062
0.742356
0.750884
0.762509
0.773769
0.779513
0.782755
0.786191
0.791392
0.803127
0.828873
0.851706
0.859837
0.863501
0.864742
0.861852
0.860277
0.86229
0.864892
0.869912
0.88034
0.901825
0.93047
0.944389
0.948595
0.950076
0.950581
0.954139
0.963188
0.975952
0.982173
0.98169
0.979682
0.981093
0.986713
0.997224
1.01095
1.0285
1.04264
1.04532
1.04316
1.03477
1.01692
0.993784
0.974425
0.961345
0.955042
0.952162
0.94993
0.948831
0.95067
0.952142
0.948465
0.934533
0.913504
0.884551
0.845607
0.803552
0.776681
0.770287
0.768689
0.769482
0.771682
0.771586
0.770982
0.771374
0.774252
0.78092
0.789271
0.794881
0.798977
0.799995
0.798465
0.794351
0.783245
0.762504
0.748482
0.743708
0.741888
0.741815
0.743298
0.747278
0.757532
0.780352
0.810324
0.824523
0.826824
0.827168
0.825267
0.814928
0.79715
0.787231
0.783951
0.782262
0.781604
0.784661
0.79385
0.797171
0.798451
0.802046
0.806243
0.809429
0.812723
0.817632
0.823821
0.82533
0.825221
0.827005
0.831828
0.837475
0.842127
0.844961
0.845928
0.846117
0.851386
0.863112
0.882603
0.910844
0.944519
0.973928
0.987035
0.988098
0.98705
0.982282
0.973963
0.97115
0.967628
0.963849
0.97127
1.00786
1.07761
1.14392
1.16641
1.17298
1.17876
1.18879
1.20723
1.24104
1.29504
1.34871
1.36056
1.35952
1.35782
1.36105
1.37016
1.37674
1.3778
1.37675
1.37436
1.3735
1.37338
1.37357
1.37499
1.37866
1.38688
1.40178
1.41473
1.41715
1.41544
1.40731
1.3992
1.3979
1.39777
1.40216
1.42271
1.46013
1.48076
1.48175
1.48013
1.47578
1.46636
1.45452
1.45044
1.44986
1.44944
1.44922
1.44956
1.4516
1.45456
1.45664
1.45789
1.45914
1.46127
1.46572
1.47509
1.48769
1.49235
1.49219
1.49128
1.48935
1.48432
1.47161
1.45442
1.4483
1.44794
1.44784
1.44791
1.4495
1.45413
1.45752
1.45773
1.45729
1.45538
1.44865
1.43424
1.42376
1.42233
1.42224
1.42218
1.42221
1.42306
1.42567
1.42807
1.42841
1.42833
1.42826
1.42823
1.42823
1.42822
1.42821
1.42822
1.4283
1.42841
1.42855
1.42888
1.42976
1.43151
1.43288
1.43305
1.43301
1.43291
1.43274
1.43241
1.43168
1.43035
1.4293
1.4291
1.42907
1.42905
1.42904
1.42907
1.42917
1.42923
1.42922
0.691095
0.694655
0.699254
0.705612
0.714346
0.71933
0.7222
0.724885
0.727436
0.730873
0.736251
0.744821
0.756394
0.769581
0.782153
0.791077
0.796882
0.802555
0.811547
0.828418
0.847636
0.855638
0.857858
0.858882
0.858647
0.85927
0.860275
0.860945
0.864005
0.872265
0.889197
0.92051
0.943492
0.948194
0.950227
0.95028
0.949302
0.952628
0.960779
0.970863
0.977314
0.981353
0.98715
1.00045
1.02049
1.03817
1.04639
1.04813
1.04777
1.04498
1.03749
1.01909
0.998965
0.98846
0.983883
0.982129
0.981894
0.983684
0.983473
0.981073
0.973748
0.957686
0.938245
0.911189
0.874815
0.831383
0.785644
0.770489
0.767778
0.766935
0.768988
0.775141
0.779755
0.783541
0.789068
0.794897
0.797056
0.796472
0.796806
0.799039
0.798632
0.795437
0.787892
0.77438
0.764147
0.759337
0.75721
0.756298
0.756824
0.75894
0.763871
0.775445
0.796223
0.8185
0.829432
0.83238
0.832341
0.829288
0.819068
0.808209
0.804179
0.802797
0.802646
0.805866
0.810741
0.812035
0.810593
0.807871
0.808781
0.811936
0.816865
0.824365
0.833524
0.837278
0.838009
0.837663
0.840526
0.846787
0.85431
0.86102
0.863686
0.86435
0.862642
0.86287
0.868184
0.880463
0.90423
0.940442
0.984084
1.01101
1.01482
1.01423
1.00692
0.999761
0.995582
0.987419
0.98417
0.997527
1.04251
1.12126
1.187
1.20483
1.20914
1.21317
1.2211
1.23355
1.24852
1.26923
1.29975
1.32794
1.34281
1.35286
1.36683
1.37733
1.37758
1.37634
1.37431
1.37086
1.36933
1.36903
1.36932
1.37243
1.38199
1.39999
1.4175
1.42207
1.4216
1.41575
1.39974
1.39023
1.38932
1.38968
1.39755
1.42609
1.46704
1.48209
1.48218
1.48062
1.47638
1.46696
1.45472
1.45004
1.44937
1.44891
1.4486
1.4487
1.45042
1.4537
1.4567
1.45876
1.46057
1.46302
1.46749
1.47632
1.48773
1.49188
1.49171
1.49082
1.48887
1.48371
1.47067
1.45353
1.44775
1.44742
1.44732
1.4474
1.44907
1.45398
1.45784
1.45813
1.45773
1.45582
1.4489
1.43411
1.4236
1.42222
1.42214
1.42208
1.42212
1.42307
1.42594
1.42825
1.42847
1.42839
1.42832
1.4283
1.4283
1.42833
1.42833
1.42831
1.42827
1.42824
1.42829
1.42873
1.43002
1.43209
1.4332
1.43326
1.43321
1.43309
1.43289
1.43246
1.43155
1.43011
1.42929
1.42915
1.42911
1.42908
1.42906
1.42905
1.42915
1.42925
1.42925
0.691951
0.69459
0.697983
0.703193
0.709679
0.716899
0.722646
0.728075
0.733302
0.735985
0.7386
0.744284
0.755076
0.769684
0.784971
0.798169
0.807259
0.813611
0.819877
0.82857
0.841934
0.853501
0.856434
0.857406
0.85817
0.860104
0.861767
0.862607
0.864038
0.869065
0.882685
0.909805
0.937544
0.944957
0.946987
0.946376
0.941411
0.942536
0.950171
0.965004
0.979766
0.992299
1.00905
1.02955
1.04259
1.04602
1.04725
1.04755
1.04657
1.04148
1.02763
1.01739
1.01323
1.01211
1.0123
1.01613
1.01947
1.01931
1.01476
1.00151
0.98274
0.959092
0.925918
0.889429
0.853135
0.812564
0.787002
0.7766
0.773068
0.772068
0.7742
0.782819
0.793666
0.802386
0.805308
0.804024
0.800762
0.798141
0.795872
0.793794
0.790283
0.783577
0.775782
0.772438
0.771085
0.770434
0.771186
0.772574
0.774576
0.77793
0.784502
0.795915
0.809107
0.82055
0.830303
0.835101
0.835226
0.831913
0.825327
0.822085
0.82227
0.824435
0.829347
0.831774
0.831235
0.825546
0.818112
0.815233
0.815422
0.817297
0.824169
0.837312
0.846021
0.847701
0.84876
0.850062
0.85581
0.863912
0.870736
0.876173
0.879728
0.880735
0.880197
0.879534
0.881301
0.887721
0.903321
0.936903
0.987387
1.01729
1.02043
1.01997
1.01704
1.01702
1.01124
1.00105
1.00299
1.02433
1.07397
1.15172
1.21079
1.22886
1.23619
1.24384
1.2518
1.25569
1.25755
1.26203
1.27502
1.29799
1.32407
1.34799
1.36903
1.37659
1.37645
1.37491
1.37062
1.36415
1.36198
1.36178
1.3638
1.37388
1.39559
1.41928
1.42707
1.4273
1.42418
1.41024
1.38913
1.38247
1.38213
1.38393
1.39701
1.43291
1.47237
1.48193
1.48172
1.48018
1.47606
1.46654
1.4545
1.45002
1.44924
1.44876
1.44852
1.44883
1.45076
1.45418