/*--------------------------------*- C++ -*----------------------------------*\
  =========                 |
  \\      /  F ield         | OpenFOAM: The Open Source CFD Toolbox
   \\    /   O peration     | Website:  https://openfoam.org
    \\  /    A nd           | Version:  7
     \\/     M anipulation  |
\*---------------------------------------------------------------------------*/
FoamFile
{
    version     2.0;
    format      ascii;
    class       volScalarField;
    location    "3.3";
    object      rho;
}
// * * * * * * * * * * * * * * * * * * * * * * * * * * * * * * * * * * * * * //

dimensions      [1 -3 0 0 0 0 0];

internalField   nonuniform List<scalar> 
16192
(
1.40001
1.40001
1.40001
1.40001
1.40001
1.40001
1.40001
1.40001
1.40001
1.40001
1.40001
1.40001
1.40001
1.40001
1.40001
1.40001
1.40001
1.40001
1.40001
1.40001
1.40001
1.40001
1.40001
1.40001
1.40001
1.40001
1.40001
1.40001
1.40001
1.40001
1.40001
1.40001
1.40001
1.40001
1.40001
1.40001
1.40001
1.40001
1.40001
1.40001
1.40001
1.40001
1.40001
1.40001
1.40001
1.40001
1.40001
1.40001
1.40001
1.40001
1.40001
1.40001
1.40001
1.40001
1.40001
1.40001
1.40001
1.40001
1.40001
1.40001
1.40001
1.40001
1.40001
1.40001
1.40001
1.40001
1.40001
1.40001
1.40001
1.40001
1.40001
1.40001
1.40001
1.40001
1.40001
1.40001
1.40001
1.40001
1.40001
1.40001
1.40001
1.40001
1.40001
1.40001
1.40001
1.40001
1.40001
1.40001
1.40001
1.40001
1.40001
1.40001
1.40001
1.40001
1.40001
1.40001
1.40001
1.40001
1.40001
1.40001
1.40001
1.40001
1.40001
1.40001
1.40001
1.40001
1.40001
1.40001
1.40001
1.40001
1.40001
1.40001
1.40001
1.40001
1.40001
1.40001
1.40001
1.40001
1.40001
1.40001
1.40001
1.40001
1.40001
1.40001
1.40001
1.40001
1.40001
1.40001
1.40001
1.40001
1.40001
1.40001
1.40001
1.40001
1.40001
1.40001
1.40001
1.40001
1.40001
1.40001
1.40001
1.40001
1.40001
1.40001
1.40001
1.40001
1.40001
1.40001
1.40001
1.40001
1.40001
1.40001
1.40001
1.40001
1.40001
1.40001
1.40001
1.40001
1.40001
1.40001
1.40001
1.40001
1.40001
1.40001
1.40001
1.40001
1.40001
1.40001
1.40001
1.40001
1.40001
1.40001
1.40001
1.40001
1.40001
1.40001
1.40001
1.40001
1.40001
1.40001
1.40001
1.40001
1.40001
1.40001
1.40001
1.40001
1.40001
1.40001
1.40001
1.40001
1.40001
1.40001
1.40001
1.40001
1.40001
1.40001
1.40001
1.40001
1.40001
1.40001
1.40001
1.40001
1.40001
1.40001
1.40001
1.40001
1.40001
1.40001
1.40001
1.40001
1.40001
1.40001
1.40001
1.40001
1.40001
1.40001
1.40001
1.40001
1.40001
1.40001
1.40001
1.40001
1.40001
1.40001
1.40001
1.40001
1.40001
1.40001
1.40001
1.40001
1.40001
1.40001
1.40001
1.40001
1.40001
1.40001
1.40001
1.40001
1.40001
1.40001
1.40001
1.40001
1.40001
1.40001
1.40001
1.40001
1.40001
1.40001
1.40001
1.40001
1.40001
1.40001
1.40001
1.40001
1.40001
1.40001
1.40001
1.40001
1.40001
1.40001
1.40001
1.40001
1.40001
1.40001
1.40001
1.40001
1.40001
1.40001
1.40001
1.40001
1.40001
1.40001
1.40001
1.40001
1.40001
1.40001
1.40001
1.40001
1.40001
1.40001
1.40001
1.40001
1.40001
1.40001
1.40001
1.40001
1.40001
1.40001
1.40001
1.40001
1.40001
1.40001
1.40001
1.40001
1.40001
1.40001
1.40001
1.40001
1.40001
1.40001
1.40001
1.40001
1.40001
1.40001
1.40001
1.40001
1.40001
1.40001
1.40001
1.40001
1.40001
1.40001
1.40001
1.40001
1.40001
1.40001
1.40001
1.40001
1.40001
1.40001
1.40001
1.40001
1.40001
1.40001
1.40001
1.40001
1.40001
1.40001
1.40001
1.40001
1.40001
1.40001
1.40001
1.40001
1.40001
1.40001
1.40001
1.40001
1.40001
1.40001
1.40001
1.40001
1.40001
1.40001
1.40001
1.40001
1.40001
1.40001
1.40001
1.40001
1.40001
1.40001
1.40001
1.40001
1.40001
1.40001
1.40001
1.40001
1.40001
1.40001
1.40001
1.40001
1.40001
1.40001
1.40001
1.40001
1.40001
1.40001
1.40001
1.40001
1.40001
1.40001
1.40001
1.40001
1.40001
1.40001
1.40001
1.40001
1.40001
1.40001
1.40001
1.40001
1.40001
1.40001
1.40001
1.40001
1.40001
1.40001
1.40001
1.40001
1.40001
1.40001
1.40001
1.40001
1.40001
1.40001
1.40001
1.40001
1.40001
1.40001
1.40001
1.40001
1.40001
1.40001
1.40001
1.40001
1.40001
1.40001
1.40001
1.40001
1.40001
1.40001
1.40001
1.40001
1.40001
1.40001
1.40001
1.40001
1.40001
1.40001
1.40001
1.40001
1.40001
1.40001
1.40001
1.40001
1.40001
1.40001
1.40001
1.40001
1.40001
1.40001
1.40001
1.40001
1.40001
1.40001
1.40001
1.40001
1.40001
1.40001
1.40001
1.40001
1.40001
1.40001
1.40001
1.40001
1.40001
1.40001
1.40001
1.40001
1.40001
1.40001
1.40001
1.40001
1.40001
1.40001
1.40001
1.40001
1.40001
1.40001
1.40001
1.40001
1.40001
1.40001
1.40001
1.40001
1.40001
1.40001
1.40001
1.40001
1.40001
1.40001
1.40001
1.40001
1.40001
1.40001
1.40001
1.40001
1.40001
1.40001
1.40001
1.40001
1.40001
1.40001
1.40001
1.40001
1.40001
1.40001
1.40001
1.40001
1.40001
1.40001
1.40001
1.40001
1.40001
1.40001
1.40001
1.40001
1.40001
1.40001
1.40001
1.40001
1.40001
1.40001
1.40001
1.40001
1.40001
1.40001
1.40001
1.40001
1.40001
1.40001
1.40001
1.40001
1.40001
1.40001
1.40001
1.40001
1.40001
1.40001
1.40001
1.40001
1.40001
1.40001
1.40001
1.40001
1.40001
1.40001
1.40001
1.40001
1.40001
1.40001
1.40001
1.40001
1.40001
1.40001
1.40001
1.40001
1.40001
1.40001
1.40001
1.40001
1.40001
1.40001
1.40001
1.40001
1.40001
1.40001
1.40001
1.40001
1.40001
1.40001
1.40001
1.40001
1.40001
1.40001
1.40001
1.40001
1.40001
1.40001
1.40001
1.40001
1.40001
1.40001
1.40001
1.40001
1.40001
1.40001
1.40001
1.40001
1.40001
1.40001
1.40001
1.40001
1.40001
1.40001
1.40001
1.40001
1.40001
1.40001
1.40001
1.40001
1.40001
1.40001
1.40001
1.40001
1.40001
1.40001
1.40001
1.40001
1.40001
1.40001
1.40001
1.40001
1.40001
1.40001
1.40001
1.40001
1.40001
1.40001
1.40001
1.40001
1.40001
1.40001
1.40001
1.40001
1.40001
1.40001
1.40001
1.40001
1.40001
1.40001
1.40001
1.40001
1.40001
1.40001
1.40001
1.40001
1.40001
1.40001
1.40001
1.40001
1.40001
1.40001
1.40001
1.40001
1.40001
1.40001
1.40001
1.40001
1.40001
1.40001
1.40001
1.40001
1.40001
1.40001
1.40001
1.40001
1.40001
1.40001
1.40001
1.40001
1.40001
1.40001
1.40001
1.40001
1.40001
1.40001
1.40001
1.40001
1.40001
1.40001
1.40001
1.40001
1.40001
1.40001
1.40001
1.40001
1.40001
1.40001
1.40001
1.40001
1.40001
1.40001
1.40001
1.40001
1.40001
1.40001
1.40001
1.40001
1.40001
1.40001
1.40001
1.40001
1.40001
1.40001
1.40001
1.40001
1.40001
1.40001
1.40001
1.40001
1.40001
1.40001
1.40001
1.40001
1.40001
1.40001
1.40001
1.40001
1.40001
1.40001
1.40001
1.40001
1.40001
1.40001
1.40001
1.40001
1.40001
1.40001
1.40001
1.40001
1.40001
1.40001
1.40001
1.40001
1.40001
1.40001
1.40001
1.40001
1.40001
1.40001
1.40001
1.40001
1.40001
1.40001
1.40001
1.40001
1.40001
1.40001
1.40001
1.40001
1.40001
1.40001
1.40001
1.40001
1.40001
1.40001
1.40001
1.40001
1.40001
1.40001
1.40001
1.40001
1.40001
1.40001
1.40001
1.40001
1.40001
1.40001
1.40001
1.40001
1.40001
1.40001
1.40001
1.40001
1.40001
1.40001
1.40001
1.40001
1.40001
1.40001
1.40001
1.40001
1.40001
1.40001
1.40001
1.40001
1.40001
1.40001
1.40001
1.40001
1.40001
1.40001
1.40001
1.40001
1.40001
1.40001
1.40001
1.40001
1.40001
1.40001
1.40001
1.40001
1.40001
1.40001
1.40001
1.40001
1.40001
1.40001
1.40001
1.40001
1.40001
1.40001
1.40001
1.40001
1.40001
1.40001
1.40001
1.40001
1.40001
1.40001
1.40001
1.40001
1.40001
1.40001
1.40001
1.40001
1.40001
1.40001
1.40001
1.40001
1.40001
1.40001
1.40001
1.40001
1.40001
1.40001
1.40001
1.40001
1.40001
1.40001
1.40001
1.40001
1.40001
1.40001
1.40001
1.40001
1.40001
1.40001
1.40001
1.40001
1.40001
1.40001
1.40001
1.40001
1.40001
1.40001
1.40001
1.40001
1.40001
1.40001
1.40001
1.40001
1.40001
1.40001
1.40001
1.40001
1.40001
1.40001
1.40001
1.40001
1.40001
1.40001
1.40001
1.40001
1.40001
1.40001
1.40001
1.40001
1.40001
1.40001
1.40001
1.40001
1.40001
1.40001
1.40001
1.40001
1.40001
1.40001
1.40001
1.40001
1.40001
1.40001
1.40001
1.40001
1.40001
1.40001
1.40001
1.40001
1.40001
1.40001
1.40001
1.40001
1.40001
1.40001
1.40001
1.40001
1.40001
1.40001
1.40001
1.40001
1.40001
1.40001
1.40001
1.40001
1.40001
1.40001
1.40001
1.40001
1.40001
1.40001
1.40001
1.40001
1.40001
1.40001
1.40001
1.40001
1.40001
1.40001
1.40001
1.40001
1.40001
1.40001
1.40001
1.40001
1.40001
1.40001
1.40001
1.40001
1.40001
1.40001
1.40001
1.40001
1.40001
1.40001
1.40001
1.40001
1.40001
1.40001
1.40001
1.40001
1.40001
1.40001
1.40001
1.40001
1.40001
1.40001
1.40001
1.40001
1.40001
1.40001
1.40001
1.40001
1.40001
1.40001
1.40001
1.40001
1.40001
1.40001
1.40001
1.40001
1.40001
1.40001
1.40001
1.40001
1.40001
1.40001
1.40001
1.40001
1.40001
1.40001
1.40001
1.40001
1.40001
1.40001
1.40001
1.40001
1.40001
1.40001
1.40001
1.40001
1.40001
1.40001
1.40001
1.40001
1.40001
1.40001
1.40001
1.40001
1.40001
1.40001
1.40001
1.40001
1.40001
1.40001
1.40001
1.40001
1.40001
1.40001
1.40001
1.40001
1.40001
1.40001
1.40001
1.40001
1.40001
1.40001
1.40001
1.40001
1.40001
1.40001
1.40001
1.40001
1.40001
1.40001
1.40001
1.40001
1.40001
1.40001
1.40001
1.40001
1.40001
1.40001
1.40001
1.40001
1.40001
1.40001
1.40001
1.40001
1.40001
1.40001
1.40001
1.40001
1.40001
1.40001
1.40001
1.40001
1.40001
1.40001
1.40001
1.40001
1.40001
1.40001
1.40001
1.40001
1.40001
1.40001
1.40001
1.40001
1.40001
1.40001
1.40001
1.40001
1.40001
1.40001
1.40001
1.40001
1.40001
1.40001
1.40001
1.40001
1.40001
1.40001
1.40001
1.40001
1.40001
1.40001
1.40001
1.40001
1.40001
1.40001
1.40001
1.40001
1.40001
1.40001
1.40001
1.40001
1.40001
1.40001
1.40001
1.40001
1.40001
1.40001
1.40001
1.40001
1.40001
1.40001
1.40001
1.40001
1.40001
1.40001
1.40001
1.40001
1.40001
1.40001
1.40001
1.40001
1.40001
1.40001
1.40001
1.40001
1.40001
1.40001
1.40001
1.40001
1.40001
1.40001
1.40001
1.40001
1.40001
1.40001
1.40001
1.40001
1.40001
1.40001
1.40001
1.40001
1.40001
1.40001
1.40001
1.40001
1.40001
1.40001
1.40001
1.40001
1.40001
1.40001
1.40001
1.40001
1.40001
1.40001
1.40001
1.40001
1.40001
1.40001
1.40001
1.40001
1.40001
1.40001
1.40001
1.40001
1.40001
1.40001
1.40001
1.40001
1.40001
1.40001
1.40001
1.40001
1.40001
1.40001
1.40001
1.40001
1.40001
1.40001
1.40001
1.40001
1.40001
1.40001
1.40001
1.40001
1.40001
1.40001
1.40001
1.40001
1.40001
1.40001
1.40001
1.40001
1.40001
1.40001
1.40001
1.40001
1.40001
1.40001
1.40001
1.40001
1.40001
1.40001
1.40001
1.40001
1.40001
1.40001
1.40001
1.40001
1.40001
1.40001
1.40001
1.40001
1.40001
1.40001
1.40001
1.40001
1.40001
1.40001
1.40001
1.40001
1.40001
1.40001
1.40001
1.40001
1.40001
1.40001
1.40001
1.40001
1.40001
1.40001
1.40001
1.40001
1.40001
1.40001
1.40001
1.40001
1.40001
1.40001
1.40001
1.40001
1.40001
1.40001
1.40001
1.40001
1.40001
1.40001
1.40001
1.40001
1.40001
1.40001
1.40001
1.40001
1.40001
1.40001
1.40001
1.40001
1.40001
1.40001
1.40001
1.40001
1.40001
1.40001
1.40001
1.40001
1.40001
1.40001
1.40001
1.40001
1.40001
1.40001
1.40001
1.40001
1.40001
1.40001
1.40001
1.40001
1.40001
1.40001
1.40001
1.40001
1.40001
1.40001
1.40001
1.40001
1.40001
1.40001
1.40001
1.40001
1.40001
1.40001
1.40001
1.40001
1.40001
1.40001
1.40001
1.40001
1.40001
1.40001
1.40001
1.40001
1.40001
1.40001
1.40001
1.40001
1.40001
1.40001
1.40001
1.40001
1.40001
1.40001
1.40001
1.40001
1.40001
1.40001
1.40001
1.40001
1.40001
1.40001
1.40001
1.40001
1.40001
1.40001
1.40001
1.40001
1.40001
1.40001
1.40001
1.40001
1.40001
1.40001
1.40001
1.40001
1.40001
1.40001
1.40009
1.40782
1.51788
1.92679
3.02688
3.71856
3.67224
3.70078
3.70787
3.68744
3.66982
3.68312
3.68338
3.6847
3.68019
3.64422
3.62578
3.62383
3.6128
3.58987
3.57302
3.56908
3.55509
3.52835
3.51109
3.51089
3.50177
3.48709
3.47749
3.46345
3.43899
3.41564
3.40433
3.39442
3.39071
3.38815
3.38166
3.36237
3.33513
3.31373
3.30189
3.2944
3.28748
3.27786
3.25915
3.24047
3.22984
3.22623
3.22183
3.21305
3.20429
3.18954
3.16454
3.15017
3.14913
3.15077
3.15843
3.17654
3.21569
3.25202
3.28679
3.32025
3.32953
3.32886
3.3226
3.30993
3.29473
3.27946
3.26378
3.24595
3.22386
3.19733
3.17251
3.15355
3.14409
3.13941
3.14167
3.14965
3.15102
3.14268
3.12579
3.10158
3.0641
3.0229
3.00197
2.99031
2.98165
2.97222
2.95759
2.93446
2.92426
2.91886
2.91161
2.90466
2.89786
2.89211
2.88694
2.88074
2.8711
2.84877
2.80397
2.7612
2.74711
2.74481
2.7474
2.76025
2.76203
2.75676
2.75144
2.74276
2.72125
2.67609
2.62633
2.6073
2.60356
2.60307
2.61702
2.64676
2.65625
2.65099
2.64153
2.62222
2.58583
2.52241
2.47773
2.46345
2.45917
2.45775
2.46461
2.49247
2.52365
2.52797
2.51774
2.48969
2.44343
2.41412
2.40664
2.4042
2.40167
2.3977
2.39252
2.38371
2.3663
2.34929
2.34551
2.34755
2.36428
2.3777
2.3745
2.36253
2.33812
2.28909
2.24181
2.22341
2.21571
2.21312
2.2137
2.22616
2.25683
2.28438
2.2884
2.28135
2.26606
2.24248
2.20168
2.15452
2.12342
2.11118
2.12078
2.27404
2.87075
3.78621
4.33922
4.37123
4.35793
4.34575
4.34187
4.32621
4.30683
4.27419
1.40001
1.40001
1.40001
1.40001
1.40001
1.40001
1.40001
1.40001
1.40001
1.40001
1.40001
1.40001
1.40001
1.40001
1.40001
1.40001
1.40001
1.40001
1.40001
1.40001
1.40001
1.40001
1.40001
1.40001
1.40001
1.40001
1.40001
1.40001
1.40001
1.40001
1.40001
1.40001
1.40001
1.40001
1.40001
1.40001
1.40001
1.40001
1.40001
1.40001
1.40001
1.40001
1.40001
1.40001
1.40001
1.40001
1.40001
1.40001
1.40001
1.40001
1.40001
1.40006
1.40279
1.44505
1.86235
3.00707
3.44165
3.65037
3.75403
3.72907
3.7194
3.72166
3.72892
3.7142
3.66307
3.64156
3.64206
3.62559
3.60786
3.5986
3.59539
3.5792
3.55438
3.53575
3.53329
3.52949
3.51262
3.50119
3.48643
3.46309
3.4386
3.42889
3.42256
3.4154
3.41297
3.40584
3.38434
3.35621
3.33711
3.32712
3.31962
3.31223
3.30221
3.28307
3.263
3.25336
3.25083
3.24931
3.24153
3.23245
3.21702
3.19323
3.168
3.15232
3.14859
3.14857
3.15142
3.16281
3.19263
3.23776
3.27842
3.31918
3.3289
3.32814
3.32161
3.31115
3.29839
3.28307
3.26545
3.24455
3.22132
3.19842
3.18171
3.17471
3.17317
3.17864
3.18269
3.17786
3.16583
3.14853
3.12383
3.08626
3.04918
3.0261
3.01419
3.00874
3.00298
2.99525
2.98401
2.96786
2.95334
2.94278
2.93355
2.92491
2.91741
2.91123
2.90516
2.897
2.87891
2.84005
2.7935
2.77502
2.77221
2.77315
2.78424
2.78693
2.78178
2.77657
2.76853
2.74792
2.70467
2.65275
2.63128
2.62713
2.6265
2.64016
2.67151
2.68306
2.67799
2.66733
2.64586
2.60429
2.53727
2.49617
2.48266
2.47891
2.47807
2.48787
2.52087
2.55329
2.55603
2.54453
2.5157
2.46627
2.43292
2.42398
2.42166
2.41987
2.41644
2.41147
2.4033
2.38824
2.37273
2.36859
2.37037
2.38604
2.3978
2.39403
2.38155
2.35561
2.30323
2.2567
2.24017
2.23431
2.2326
2.23575
2.25466
2.28981
2.31159
2.31076
2.30049
2.28118
2.25107
2.20587
2.16402
2.13985
2.13257
2.16476
2.4309
3.22087
4.06618
4.40544
4.44018
4.42005
4.40386
4.38924
4.35675
4.31949
4.28452
4.25476
1.40001
1.40001
1.40001
1.40001
1.40001
1.40001
1.40001
1.40001
1.40001
1.40001
1.40001
1.40001
1.40001
1.40001
1.40001
1.40001
1.40001
1.40001
1.40001
1.40001
1.40001
1.40001
1.40001
1.40001
1.40001
1.40001
1.40001
1.40001
1.40001
1.40001
1.40001
1.40001
1.40001
1.40001
1.40001
1.40001
1.40001
1.40001
1.40001
1.40001
1.40001
1.40001
1.40001
1.40001
1.40001
1.40001
1.40001
1.40001
1.40001
1.40001
1.40001
1.40001
1.40001
1.40092
1.43515
1.88462
2.82918
3.39716
3.73443
3.79718
3.77948
3.75814
3.7299
3.68165
3.65818
3.65724
3.64018
3.62619
3.62154
3.61988
3.59969
3.57445
3.56034
3.55891
3.56123
3.544
3.52579
3.51097
3.49008
3.46531
3.45343
3.45153
3.4425
3.43701
3.42822
3.40657
3.37881
3.36092
3.35252
3.34437
3.33606
3.32607
3.30761
3.28739
3.27829
3.27555
3.27499
3.26823
3.25965
3.24599
3.22114
3.19581
3.17342
3.15709
3.15142
3.14974
3.15115
3.16054
3.18605
3.22646
3.26399
3.30695
3.32219
3.32056
3.31555
3.31023
3.3001
3.28582
3.26911
3.24839
3.22502
3.21007
3.20505
3.20666
3.21179
3.20884
3.19922
3.18508
3.16718
3.13969
3.10454
3.07569
3.05496
3.04454
3.04003
3.03936
3.03564
3.02885
3.01544
2.99138
2.97156
2.96015
2.9512
2.94331
2.93647
2.93007
2.92269
2.90828
2.8757
2.82835
2.80456
2.80112
2.80095
2.80969
2.81276
2.80762
2.80236
2.79443
2.77492
2.73412
2.68054
2.65622
2.65168
2.65101
2.66451
2.6966
2.70972
2.70481
2.69317
2.66985
2.62281
2.55341
2.51603
2.50364
2.50004
2.49952
2.51215
2.54973
2.5822
2.5834
2.57096
2.54092
2.48816
2.45149
2.44159
2.43939
2.43797
2.43481
2.42996
2.42222
2.40903
2.39546
2.39129
2.39284
2.40751
2.41735
2.41307
2.40012
2.37301
2.31843
2.27325
2.2577
2.25324
2.25233
2.25948
2.28597
2.32284
2.33713
2.33315
2.3192
2.29591
2.25597
2.20978
2.17814
2.15791
2.15662
2.23578
2.66997
3.55056
4.33513
4.45071
4.45364
4.4479
4.44421
4.42623
4.39384
4.3427
4.30538
4.28691
4.27621
1.40001
1.40001
1.40001
1.40001
1.40001
1.40001
1.40001
1.40001
1.40001
1.40001
1.40001
1.40001
1.40001
1.40001
1.40001
1.40001
1.40001
1.40001
1.40001
1.40001
1.40001
1.40001
1.40001
1.40001
1.40001
1.40001
1.40001
1.40001
1.40001
1.40001
1.40001
1.40001
1.40001
1.40001
1.40001
1.40001
1.40001
1.40001
1.40001
1.40001
1.40001
1.40001
1.40001
1.40001
1.40001
1.40001
1.40001
1.40001
1.40001
1.40001
1.40001
1.40001
1.40001
1.40001
1.40076
1.44199
1.8511
2.57107
3.39623
3.79832
3.78542
3.73572
3.69351
3.67971
3.66857
3.64779
3.64536
3.64389
3.64311
3.62149
3.59227
3.58176
3.58409
3.59115
3.57354
3.55023
3.53783
3.52271
3.49667
3.48079
3.48008
3.47239
3.46079
3.44974
3.43072
3.40351
3.38475
3.37823
3.37025
3.36089
3.34996
3.33097
3.31204
3.30454
3.30245
3.30028
3.2931
3.28406
3.27175
3.25013
3.22169
3.19807
3.17869
3.16488
3.15904
3.15642
3.15701
3.16725
3.19044
3.21394
3.23663
3.26998
3.29634
3.30264
3.30557
3.30442
3.29889
3.28943
3.27543
3.25587
3.24203
3.23772
3.23999
3.24027
3.2318
3.21761
3.20147
3.18107
3.15268
3.12282
3.10008
3.08345
3.07601
3.07406
3.07801
3.07731
3.06988
3.05207
3.027
3.00214
2.98559
2.97615
2.9687
2.96208
2.95554
2.94827
2.93617
2.90929
2.865
2.83586
2.83124
2.83011
2.83629
2.83953
2.83445
2.82896
2.82116
2.80256
2.76395
2.70983
2.68242
2.67746
2.67675
2.69014
2.72271
2.73666
2.73178
2.71911
2.69366
2.64178
2.57117
2.5373
2.5259
2.52257
2.52281
2.53852
2.57936
2.6097
2.60986
2.59692
2.56584
2.50952
2.47006
2.45945
2.45715
2.45597
2.4528
2.44785
2.44038
2.42886
2.4178
2.41394
2.41532
2.42892
2.43679
2.4319
2.41845
2.39039
2.3347
2.29107
2.2764
2.27296
2.27308
2.28558
2.31985
2.35462
2.36143
2.35453
2.33777
2.30883
2.26022
2.21653
2.19273
2.17891
2.18822
2.34669
2.98262
3.89549
4.47518
4.50441
4.48803
4.48377
4.47482
4.45239
4.42201
4.37577
4.33381
4.31811
4.31642
4.34056
1.40001
1.40001
1.40001
1.40001
1.40001
1.40001
1.40001
1.40001
1.40001
1.40001
1.40001
1.40001
1.40001
1.40001
1.40001
1.40001
1.40001
1.40001
1.40001
1.40001
1.40001
1.40001
1.40001
1.40001
1.40001
1.40001
1.40001
1.40001
1.40001
1.40001
1.40001
1.40001
1.40001
1.40001
1.40001
1.40001
1.40001
1.40001
1.40001
1.40001
1.40001
1.40001
1.40001
1.40001
1.40001
1.40001
1.40001
1.40001
1.40001
1.40001
1.40001
1.40001
1.40001
1.40001
1.40001
1.40094
1.43423
1.64554
2.32168
3.47822
3.6762
3.68706
3.6964
3.68463
3.6578
3.66516
3.66766
3.66901
3.65079
3.6125
3.60349
3.60882
3.61722
3.59511
3.5719
3.56394
3.55839
3.53289
3.50782
3.50515
3.50054
3.48526
3.47128
3.45566
3.4308
3.40924
3.40307
3.39679
3.38575
3.37489
3.3573
3.33791
3.33156
3.33007
3.32518
3.31601
3.30611
3.29493
3.27636
3.24897
3.22041
3.20186
3.18771
3.18011
3.17523
3.17344
3.17732
3.18757
3.19251
3.19551
3.19579
3.21582
3.25159
3.27735
3.29018
3.2977
3.29983
3.29589
3.28848
3.28101
3.27614
3.27344
3.26705
3.25337
3.23567
3.21604
3.19216
3.16573
3.14235
3.12293
3.10962
3.10466
3.10746
3.11479
3.1117
3.09878
3.0771
3.05454
3.03214
3.01146
3.0001
2.99366
2.98806
2.98199
2.97464
2.96328
2.93994
2.90065
2.86793
2.86155
2.85964
2.86362
2.86691
2.86217
2.85651
2.84844
2.83015
2.79379
2.74043
2.7105
2.70456
2.704
2.7174
2.7501
2.76444
2.75932
2.74544
2.7179
2.66108
2.59058
2.55942
2.54923
2.54627
2.54734
2.56684
2.61082
2.63685
2.63525
2.62167
2.59003
2.53058
2.48913
2.47786
2.47534
2.47373
2.47057
2.46554
2.45831
2.44838
2.43988
2.43657
2.43833
2.4508
2.45652
2.45078
2.43677
2.40754
2.352
2.31049
2.29639
2.29359
2.2955
2.31431
2.35466
2.38306
2.3839
2.37469
2.35545
2.32033
2.26567
2.22604
2.2078
2.20101
2.23544
2.52048
3.31108
4.23154
4.56585
4.54054
4.51186
4.50669
4.5099
4.4945
4.45573
4.4022
4.36791
4.35395
4.3561
4.38481
4.40376
1.40001
1.40001
1.40001
1.40001
1.40001
1.40001
1.40001
1.40001
1.40001
1.40001
1.40001
1.40001
1.40001
1.40001
1.40001
1.40001
1.40001
1.40001
1.40001
1.40001
1.40001
1.40001
1.40001
1.40001
1.40001
1.40001
1.40001
1.40001
1.40001
1.40001
1.40001
1.40001
1.40001
1.40001
1.40001
1.40001
1.40001
1.40001
1.40001
1.40001
1.40001
1.40001
1.40001
1.40001
1.40001
1.40001
1.40001
1.40001
1.40001
1.40001
1.40001
1.40001
1.40001
1.40001
1.40001
1.40001
1.40042
1.4105
1.53654
2.36233
3.28529
3.54629
3.71781
3.7231
3.70769
3.70426
3.704
3.6842
3.63708
3.62518
3.62992
3.63728
3.61437
3.59594
3.58941
3.58431
3.55932
3.53512
3.52855
3.52749
3.5111
3.49259
3.4779
3.45804
3.43397
3.42609
3.42331
3.413
3.40084
3.38621
3.3658
3.35772
3.35517
3.34864
3.33731
3.32631
3.31597
3.30001
3.27497
3.2438
3.22341
3.21188
3.20574
3.20275
3.20176
3.20285
3.20518
3.20125
3.19034
3.16753
3.16113
3.17574
3.21058
3.24687
3.2722
3.29548
3.30764
3.31492
3.3187
3.31552
3.30648
3.29255
3.27468
3.25504
3.23122
3.20448
3.18115
3.16191
3.14472
3.13502
3.13207
3.13834
3.14441
3.13874
3.12244
3.09966
3.07712
3.05789
3.03772
3.02255
3.01631
3.01259
3.00829
3.00136
2.99069
2.96911
2.93389
2.90016
2.89057
2.88852
2.89109
2.89472
2.89053
2.88477
2.87615
2.85758
2.82317
2.77165
2.74031
2.73332
2.73283
2.74673
2.77946
2.79296
2.78745
2.77225
2.74261
2.68172
2.61137
2.5828
2.57359
2.57098
2.5732
2.59633
2.64232
2.66481
2.6615
2.64602
2.61215
2.55039
2.50879
2.49703
2.49393
2.49191
2.48839
2.48338
2.47657
2.46833
2.46231
2.45953
2.46219
2.47357
2.47652
2.46984
2.45508
2.4246
2.3697
2.3311
2.31777
2.31547
2.31971
2.34504
2.38773
2.40741
2.40433
2.39283
2.37268
2.33018
2.2728
2.23976
2.22414
2.22401
2.31028
2.77894
3.66724
4.46415
4.63812
4.57186
4.54451
4.53485
4.54251
4.53076
4.49965
4.44574
4.40299
4.38838
4.39438
4.42666
4.43789
4.4221
1.40001
1.40001
1.40001
1.40001
1.40001
1.40001
1.40001
1.40001
1.40001
1.40001
1.40001
1.40001
1.40001
1.40001
1.40001
1.40001
1.40001
1.40001
1.40001
1.40001
1.40001
1.40001
1.40001
1.40001
1.40001
1.40001
1.40001
1.40001
1.40001
1.40001
1.40001
1.40001
1.40001
1.40001
1.40001
1.40001
1.40001
1.40001
1.40001
1.40001
1.40001
1.40001
1.40001
1.40001
1.40001
1.40001
1.40001
1.40001
1.40001
1.40001
1.40001
1.40001
1.40001
1.40001
1.40001
1.40001
1.40001
1.40009
1.40529
1.54214
2.31539
3.07662
3.57777
3.77096
3.77196
3.73684
3.69349
3.65646
3.64783
3.65016
3.64874
3.63385
3.62125
3.61934
3.61076
3.58151
3.55693
3.54974
3.55302
3.53784
3.51389
3.49839
3.48378
3.4608
3.44804
3.44795
3.44139
3.42794
3.41508
3.3992
3.38375
3.37742
3.36937
3.35762
3.34608
3.33645
3.32246
3.29953
3.2684
3.24576
3.23573
3.23121
3.23054
3.234
3.23507
3.23144
3.22224
3.20327
3.16893
3.14821
3.14966
3.1594
3.18563
3.22304
3.26184
3.29948
3.32863
3.33856
3.33941
3.33348
3.31739
3.29709
3.27553
3.24874
3.22077
3.19964
3.18199
3.1675
3.16047
3.16045
3.1689
3.17007
3.1599
3.14124
3.1183
3.09625
3.07899
3.06185
3.04519
3.03768
3.03459
3.0321
3.02611
3.016
2.99724
2.96677
2.93304
2.91958
2.91727
2.91869
2.92259
2.9189
2.91268
2.90263
2.88378
2.85165
2.80349
2.77164
2.76377
2.76351
2.77818
2.81059
2.8221
2.81538
2.79884
2.76768
2.70363
2.63382
2.60681
2.59889
2.59665
2.60025
2.62747
2.67432
2.6929
2.68846
2.67254
2.63645
2.56825
2.52553
2.51555
2.51345
2.51092
2.50686
2.50213
2.49611
2.48958
2.48542
2.48378
2.48765
2.49656
2.49647
2.48881
2.47325
2.44183
2.38841
2.35259
2.34031
2.33863
2.34565
2.37658
2.41717
2.42828
2.42271
2.4098
2.38786
2.34123
2.28276
2.25342
2.24337
2.25518
2.43072
3.09647
4.03527
4.62767
4.68504
4.60379
4.57023
4.56569
4.57211
4.55819
4.53013
4.48461
4.44827
4.43529
4.44055
4.47025
4.47365
4.45347
4.4197
1.40001
1.40001
1.40001
1.40001
1.40001
1.40001
1.40001
1.40001
1.40001
1.40001
1.40001
1.40001
1.40001
1.40001
1.40001
1.40001
1.40001
1.40001
1.40001
1.40001
1.40001
1.40001
1.40001
1.40001
1.40001
1.40001
1.40001
1.40001
1.40001
1.40001
1.40001
1.40001
1.40001
1.40001
1.40001
1.40001
1.40001
1.40001
1.40001
1.40001
1.40001
1.40001
1.40001
1.40001
1.40001
1.40001
1.40001
1.40001
1.40001
1.40001
1.40001
1.40001
1.40001
1.40001
1.40001
1.40001
1.40001
1.40001
1.40006
1.40545
1.54908
2.1043
2.86005
3.67211
3.77339
3.70697
3.67043
3.6688
3.66915
3.65466
3.65023
3.64573
3.64581
3.6359
3.60377
3.57514
3.566
3.57337
3.56209
3.53572
3.51928
3.5108
3.49169
3.47343
3.47127
3.47025
3.45755
3.44312
3.43078
3.41448
3.40011
3.38958
3.37757
3.36543
3.35575
3.34343
3.32321
3.29443
3.27009
3.25974
3.25632
3.25714
3.26306
3.26593
3.26093
3.24854
3.2259
3.18445
3.15006
3.14615
3.1476
3.15599
3.17683
3.21188
3.25636
3.31081
3.3405
3.34374
3.34325
3.3367
3.32048
3.29687
3.26727
3.24072
3.22084
3.20395
3.19272
3.18776
3.19164
3.19884
3.19528
3.1808
3.15785
3.13122
3.11232
3.09766
3.08259
3.06783
3.0592
3.05618
3.05343
3.04836
3.03936
3.0233
2.99829
2.96673
2.9497
2.94698
2.94748
2.9503
2.94582
2.93787
2.92575
2.90756
2.87885
2.83521
2.80413
2.7958
2.79566
2.81167
2.84278
2.85081
2.84243
2.82441
2.79251
2.72643
2.6577
2.63173
2.62479
2.62307
2.6287
2.65983
2.70704
2.72138
2.71569
2.69923
2.66302
2.591
2.54244
2.53101
2.5287
2.53057
2.5283
2.52311
2.51819
2.51364
2.5107
2.50996
2.51386
2.51875
2.51586
2.50725
2.4911
2.4592
2.40806
2.3751
2.36377
2.36278
2.37276
2.40769
2.4428
2.44719
2.43982
2.42637
2.40108
2.35063
2.29599
2.27034
2.26446
2.30499
2.62286
3.44024
4.35397
4.73238
4.72559
4.63007
4.59553
4.59478
4.60665
4.59224
4.55965
4.51335
4.48044
4.47014
4.48035
4.50998
4.50916
4.48743
4.45082
4.39573
1.40001
1.40001
1.40001
1.40001
1.40001
1.40001
1.40001
1.40001
1.40001
1.40001
1.40001
1.40001
1.40001
1.40001
1.40001
1.40001
1.40001
1.40001
1.40001
1.40001
1.40001
1.40001
1.40001
1.40001
1.40001
1.40001
1.40001
1.40001
1.40001
1.40001
1.40001
1.40001
1.40001
1.40001
1.40001
1.40001
1.40001
1.40001
1.40001
1.40001
1.40001
1.40001
1.40001
1.40001
1.40001
1.40001
1.40001
1.40001
1.40001
1.40001
1.40001
1.40001
1.40001
1.40001
1.40001
1.40001
1.40001
1.40001
1.40001
1.40006
1.40528
1.47858
1.81161
2.86239
3.62035
3.60365
3.6664
3.68554
3.66828
3.66901
3.67273
3.67446
3.66753
3.62956
3.59808
3.58302
3.58297
3.5781
3.55791
3.54401
3.53978
3.52425
3.50413
3.49965
3.50125
3.49033
3.47215
3.45859
3.44367
3.42533
3.41142
3.39961
3.3866
3.37524
3.36315
3.3451
3.32104
3.29694
3.28569
3.2825
3.28416
3.28919
3.29119
3.28713
3.275
3.25164
3.21023
3.1644
3.15028
3.14829
3.14903
3.15711
3.17703
3.20905
3.25446
3.30762
3.33558
3.34144
3.34186
3.33583
3.31561
3.28449
3.26073
3.24392
3.23017
3.22169
3.22033
3.22729
3.22896
3.22056
3.20128
3.17364
3.14503
3.12628
3.11324
3.10205
3.09132
3.08322
3.07982
3.07679
3.06951
3.05883
3.04643
3.02841
3.00113
2.98029
2.97671
2.97601
2.97475
2.96823
2.95793
2.94481
2.92858
2.9035
2.86647
2.83706
2.8283
2.82874
2.84582
2.87448
2.87831
2.86779
2.84871
2.81589
2.74887
2.68278
2.65764
2.65164
2.65024
2.65858
2.69426
2.73987
2.75033
2.74322
2.72601
2.69034
2.61699
2.56143
2.54808
2.54498
2.54484
2.55098
2.54959
2.5452
2.54188
2.5397
2.53869
2.5394
2.53901
2.53424
2.5247
2.50854
2.47739
2.429
2.39815
2.38778
2.38757
2.40008
2.43697
2.46544
2.46551
2.45664
2.44182
2.4128
2.35957
2.31123
2.29032
2.29095
2.3891
2.90249
3.8128
4.5935
4.80254
4.75049
4.66102
4.63191
4.63028
4.64141
4.62674
4.59568
4.54856
4.51708
4.5078
4.52181
4.55142
4.54669
4.52149
4.47855
4.42134
4.38023
1.40001
1.40001
1.40001
1.40001
1.40001
1.40001
1.40001
1.40001
1.40001
1.40001
1.40001
1.40001
1.40001
1.40001
1.40001
1.40001
1.40001
1.40001
1.40001
1.40001
1.40001
1.40001
1.40001
1.40001
1.40001
1.40001
1.40001
1.40001
1.40001
1.40001
1.40001
1.40001
1.40001
1.40001
1.40001
1.40001
1.40001
1.40001
1.40001
1.40001
1.40001
1.40001
1.40001
1.40001
1.40001
1.40001
1.40001
1.40001
1.40001
1.40001
1.40001
1.40001
1.40001
1.40001
1.40001
1.40001
1.40001
1.40001
1.40001
1.40001
1.40004
1.40146
1.43024
1.75908
2.8062
3.34819
3.59722
3.72936
3.72221
3.71173
3.70802
3.69763
3.65188
3.62184
3.61048
3.59754
3.58917
3.57872
3.56923
3.56942
3.56235
3.53876
3.53
3.53268
3.52373
3.50174
3.48456
3.47118
3.45146
3.43334
3.42257
3.41088
3.3981
3.38461
3.36693
3.3456
3.32486
3.31435
3.31118
3.31251
3.31453
3.31348
3.30865
3.29699
3.27594
3.23749
3.18998
3.16606
3.16102
3.1586
3.16002
3.1701
3.18948
3.21657
3.25112
3.29449
3.31769
3.32837
3.32952
3.31903
3.29355
3.27594
3.26557
3.25814
3.25571
3.26127
3.26518
3.26066
3.24713
3.22341
3.18994
3.15839
3.14162
3.12913
3.12067
3.11532
3.11048
3.10702
3.10261
3.09069
3.07654
3.06468
3.05133
3.03333
3.01261
3.00659
3.00194
2.99414
2.98447
2.97362
2.96141
2.9466
2.92531
2.89598
2.86958
2.86096
2.86188
2.88001
2.90462
2.90429
2.89189
2.87181
2.83687
2.76947
2.70847
2.68499
2.67946
2.6787
2.69091
2.731
2.77308
2.7788
2.77034
2.75252
2.71769
2.64446
2.58315
2.56681
2.5635
2.56256
2.5703
2.58033
2.57944
2.57672
2.57371
2.56821
2.5619
2.55721
2.55092
2.54122
2.52576
2.49664
2.45183
2.42223
2.41264
2.41296
2.42738
2.46423
2.4861
2.48398
2.47374
2.45722
2.42387
2.36902
2.32874
2.31314
2.32802
2.52873
3.23532
4.17403
4.77267
4.85517
4.77392
4.68542
4.66335
4.66606
4.67625
4.65996
4.62912
4.58688
4.56039
4.55139
4.56553
4.59115
4.58313
4.55824
4.51548
4.4552
4.41327
4.39519
1.40001
1.40001
1.40001
1.40001
1.40001
1.40001
1.40001
1.40001
1.40001
1.40001
1.40001
1.40001
1.40001
1.40001
1.40001
1.40001
1.40001
1.40001
1.40001
1.40001
1.40001
1.40001
1.40001
1.40001
1.40001
1.40001
1.40001
1.40001
1.40001
1.40001
1.40001
1.40001
1.40001
1.40001
1.40001
1.40001
1.40001
1.40001
1.40001
1.40001
1.40001
1.40001
1.40001
1.40001
1.40001
1.40001
1.40001
1.40001
1.40001
1.40001
1.40001
1.40001
1.40001
1.40001
1.40001
1.40001
1.40001
1.40001
1.40001
1.40001
1.40001
1.40001
1.40055
1.42313
1.76094
2.64995
3.26668
3.67905
3.76911
3.75502
3.7129
3.65953
3.63796
3.63398
3.62144
3.60209
3.60153
3.59483
3.59535
3.59512
3.57343
3.55795
3.55974
3.55164
3.52876
3.50703
3.49627
3.47915
3.45473
3.444
3.43571
3.4231
3.40878
3.39038
3.36898
3.3517
3.34469
3.34282
3.34129
3.33881
3.33529
3.32861
3.31548
3.29596
3.26121
3.21856
3.19114
3.18419
3.18114
3.18019
3.18608
3.19756
3.21052
3.22428
3.24389
3.26444
3.27587
3.28859
3.29297
3.28368
3.27909
3.27894
3.2813
3.29362
3.30527
3.30277
3.29304
3.27462
3.24792
3.20941
3.17457
3.15814
3.14738
3.14091
3.13928
3.13885
3.13578
3.12971
3.11193
3.09321
3.08136
3.07063
3.05823
3.0456
3.03783
3.02752
3.0107
2.9984