/*--------------------------------*- C++ -*----------------------------------*\
  =========                 |
  \\      /  F ield         | OpenFOAM: The Open Source CFD Toolbox
   \\    /   O peration     | Website:  https://openfoam.org
    \\  /    A nd           | Version:  7
     \\/     M anipulation  |
\*---------------------------------------------------------------------------*/
FoamFile
{
    version     2.0;
    format      ascii;
    class       volScalarField;
    location    "3.3";
    object      T;
}
// * * * * * * * * * * * * * * * * * * * * * * * * * * * * * * * * * * * * * //

dimensions      [0 0 0 1 0 0 0];

internalField   nonuniform List<scalar> 
16192
(
1
1
1
1
1
1
1
1
1
1
1
1
1
1
1
1
1
1
1
1
1
1
1
1
1
1
1
1
1
1
1
1
1
1
1
1
1
1
1
1
1
1
1
1
1
1
1
1
1
1
1
1
1
1
1
1
1
1
1
1
1
1
1
1
1
1
1
1
1
1
1
1
1
1
1
1
1
1
1
1
1
1
1
1
1
1
1
1
1
1
1
1
1
1
1
1
1
1
1
1
1
1
1
1
1
1
1
1
1
1
1
1
1
1
1
1
1
1
1
1
1
1
1
1
1
1
1
1
1
1
1
1
1
1
1
1
1
1
1
1
1
1
1
1
1
1
1
1
1
1
1
1
1
1
1
1
1
1
1
1
1
1
1
1
1
1
1
1
1
1
1
1
1
1
1
1
1
1
1
1
1
1
1
1
1
1
1
1
1
1
1
1
1
1
1
1
1
1
1
1
1
1
1
1
1
1
1
1
1
1
1
1
1
1
1
1
1
1
1
1
1
1
1
1
1
1
1
1
1
1
1
1
1
1
1
1
1
1
1
1
1
1
1
1
1
1
1
1
1
1
1
1
1
1
1
1
1
1
1
1
1
1
1
1
1
1
1
1
1
1
1
1
1
1
1
1
1
1
1
1
1
1
1
1
1
1
1
1
1
1
1
1
1
1
1
1
1
1
1
1
1
1
1
1
1
1
1
1
1
1
1
1
1
1
1
1
1
1
1
1
1
1
1
1
1
1
1
1
1
1
1
1
1
1
1
1
1
1
1
1
1
1
1
1
1
1
1
1
1
1
1
1
1
1
1
1
1
1
1
1
1
1
1
1
1
1
1
1
1
1
1
1
1
1
1
1
1
1
1
1
1
1
1
1
1
1
1
1
1
1
1
1
1
1
1
1
1
1
1
1
1
1
1
1
1
1
1
1
1
1
1
1
1
1
1
1
1
1
1
1
1
1
1
1
1
1
1
1
1
1
1
1
1
1
1
1
1
1
1
1
1
1
1
1
1
1
1
1
1
1
1
1
1
1
1
1
1
1
1
1
1
1
1
1
1
1
1
1
1
1
1
1
1
1
1
1
1
1
1
1
1
1
1
1
1
1
1
1
1
1
1
1
1
1
1
1
1
1
1
1
1
1
1
1
1
1
1
1
1
1
1
1
1
1
1
1
1
1
1
1
1
1
1
1
1
1
1
1
1
1
1
1
1
1
1
1
1
1
1
1
1
1
1
1
1
1
1
1
1
1
1
1
1
1
1
1
1
1
1
1
1
1
1
1
1
1
1
1
1
1
1
1
1
1
1
1
1
1
1
1
1
1
1
1
1
1
1
1
1
1
1
1
1
1
1
1
1
1
1
1
1
1
1
1
1
1
1
1
1
1
1
1
1
1
1
1
1
1
1
1
1
1
1
1
1
1
1
1
1
1
1
1
1
1
1
1
1
1
1
1
1
1
1
1
1
1
1
1
1
1
1
1
1
1
1
1
1
1
1
1
1
1
1
1
1
1
1
1
1
1
1
1
1
1
1
1
1
1
1
1
1
1
1
1
1
1
1
1
1
1
1
1
1
1
1
1
1
1
1
1
1
1
1
1
1
1
1
1
1
1
1
1
1
1
1
1
1
1
1
1
1
1
1
1
1
1
1
1
1
1
1
1
1
1
1
1
1
1
1
1
1
1
1
1
1
1
1
1
1
1
1
1
1
1
1
1
1
1
1
1
1
1
1
1
1
1
1
1
1
1
1
1
1
1
1
1
1
1
1
1
1
1
1
1
1
1
1
1
1
1
1
1
1
1
1
1
1
1
1
1
1
1
1
1
1
1
1
1
1
1
1
1
1
1
1
1
1
1
1
1
1
1
1
1
1
1
1
1
1
1
1
1
1
1
1
1
1
1
1
1
1
1
1
1
1
1
1
1
1
1
1
1
1
1
1
1
1
1
1
1
1
1
1
1
1
1
1
1
1
1
1
1
1
1
1
1
1
1
1
1
1
1
1
1
1
1
1
1
1
1
1
1
1
1
1
1
1
1
1
1
1
1
1
1
1
1
1
1
1
1
1
1
1
1
1
1
1
1
1
1
1
1
1
1
1
1
1
1
1
1
1
1
1
1
1
1
1
1
1
1
1
1
1
1
1
1
1
1
1
1
1
1
1
1
1
1
1
1
1
1
1
1
1
1
1
1
1
1
1
1
1
1
1
1
1
1
1
1
1
1
1
1
1
1
1
1
1
1
1
1
1
1
1
1
1
1
1
1
1
1
1
1
1
1
1
1
1
1
1
1
1
1
1
1
1
1
1
1
1
1
1
1
1
1
1
1
1
1
1
1
1
1
1
1
1
1
1
1
1
1
1
1
1
1
1
1
1
1
1
1
1
1
1
1
1
1
1
1
1
1
1
1
1
1
1
1
1
1
1
1
1
1
1
1
1
1
1
1
1
1
1
1
1
1
1
1
1
1
1
1
1
1
1
1
1
1
1
1
1
1
1
1
1
1
1
1
1
1
1
1
1
1
1
1
1
1
1
1
1
1
1
1
1
1
1
1
1
1
1
1
1
1
1
1
1
1
1
1
1
1
1
1
1
1
1
1
1
1
1
1
1
1
1
1
1
1
1
1
1
1
1
1
1
1
1
1
1
1
1
1
1
1
1
1
1
1
1
1
1
1
1
1
1
1
1
1
1
1
1
1
1
1
1
1
1
1
1
1
1
1
1
1
1
1
1
1
1
1
1
1
1
1
1
1
1
1
1
1
1
1
1
1
1
1
1
1
1
1
1
1
1
1
1
1
1
1
1
1
1
1
1
1
1
1
1
1
1
1
1
1
1
1
1
1
1
1
1
1
1
1
1
1
1
1
1
1
1
1
1
1
1
1
1
1
1
1
1
1
1
1
1
1
1
1
1
1
1
1
1
1
1
1
1.00002
1.00277
1.04996
1.20531
1.50692
1.69173
1.71019
1.71396
1.70993
1.69875
1.69265
1.69453
1.69693
1.7024
1.70519
1.70217
1.69843
1.69548
1.6922
1.68864
1.68722
1.68774
1.6869
1.68448
1.68216
1.68069
1.67682
1.67347
1.67302
1.67274
1.67107
1.66853
1.66681
1.66444
1.66257
1.66132
1.66016
1.65792
1.6545
1.65227
1.6512
1.65048
1.64927
1.64719
1.64332
1.63988
1.63823
1.63804
1.63816
1.63796
1.63755
1.63543
1.63114
1.62748
1.62647
1.6267
1.62821
1.6321
1.64048
1.64864
1.65707
1.66137
1.6613
1.66063
1.659
1.65673
1.65427
1.65157
1.64824
1.64373
1.63769
1.63111
1.62593
1.62279
1.62207
1.62235
1.62465
1.62754
1.62797
1.62619
1.62312
1.61885
1.61241
1.60636
1.60446
1.60374
1.60319
1.60239
1.60039
1.59712
1.59676
1.59738
1.59778
1.59814
1.59823
1.59828
1.5982
1.59761
1.59601
1.59149
1.58207
1.57408
1.57226
1.57234
1.57415
1.57841
1.57941
1.57936
1.57941
1.57858
1.57438
1.56375
1.55236
1.54838
1.54758
1.5477
1.55173
1.55965
1.56252
1.56211
1.56134
1.55805
1.54976
1.53472
1.52445
1.52153
1.52046
1.5202
1.52211
1.52931
1.53715
1.5384
1.53657
1.53075
1.5199
1.51337
1.51205
1.51183
1.51165
1.51099
1.50987
1.50791
1.50391
1.4999
1.4991
1.49994
1.50477
1.50844
1.50799
1.5057
1.49996
1.48733
1.4753
1.47087
1.46903
1.46832
1.46864
1.47238
1.48103
1.48867
1.49004
1.48882
1.48564
1.47963
1.4688
1.45645
1.44839
1.44554
1.44862
1.4982
1.68136
1.90681
2.01755
2.02775
2.0249
2.02222
2.02154
2.01825
2.01395
2.00696
1
1
1
1
1
1
1
1
1
1
1
1
1
1
1
1
1
1
1
1
1
1
1
1
1
1
1
1
1
1
1
1
1
1
1
1
1
1
1
1
1
1
1
1
1
1
1
1
1
1
1
1.00002
1.00094
1.01674
1.17708
1.53046
1.67876
1.70467
1.7043
1.69712
1.69527
1.69775
1.70664
1.70893
1.70472
1.69963
1.69594
1.69047
1.68897
1.68907
1.68974
1.68868
1.68641
1.68394
1.68233
1.6799
1.6755
1.6747
1.67429
1.673
1.67074
1.66904
1.6669
1.66414
1.66286
1.66169
1.65927
1.65614
1.65457
1.65389
1.65305
1.65135
1.64881
1.64458
1.64119
1.64029
1.64059
1.64151
1.64137
1.64091
1.63852
1.63405
1.62863
1.62534
1.6253
1.62547
1.62649
1.62954
1.63655
1.64636
1.65535
1.66129
1.66115
1.661
1.6603
1.65909
1.65707
1.65371
1.64908
1.64328
1.6369
1.63112
1.62772
1.62719
1.62803
1.63097
1.63253
1.63134
1.62806
1.62388
1.61864
1.61224
1.60726
1.60486
1.60362
1.60323
1.60273
1.60182
1.60037
1.59881
1.59842
1.5984
1.59831
1.59823
1.59817
1.59806
1.59759
1.59633
1.59283
1.58479
1.57609
1.57367
1.57374
1.57521
1.57938
1.58089
1.58102
1.58128
1.58091
1.57744
1.56745
1.55562
1.5512
1.55027
1.55034
1.55421
1.56236
1.56571
1.5653
1.56429
1.56065
1.55126
1.53569
1.52655
1.52386
1.52301
1.52292
1.52563
1.53399
1.54198
1.54277
1.54064
1.53459
1.52303
1.51552
1.51387
1.51368
1.51369
1.51325
1.5122
1.51035
1.50695
1.50339
1.50255
1.50336
1.50796
1.51125
1.51068
1.50831
1.50212
1.48867
1.47691
1.47302
1.47155
1.4711
1.47217
1.47765
1.48736
1.49337
1.49349
1.4916
1.48727
1.47945
1.46764
1.45683
1.45068
1.44919
1.45932
1.54531
1.76915
1.96364
2.03018
2.03467
2.03096
2.02861
2.02661
2.02053
2.01272
2.00582
1.99979
1
1
1
1
1
1
1
1
1
1
1
1
1
1
1
1
1
1
1
1
1
1
1
1
1
1
1
1
1
1
1
1
1
1
1
1
1
1
1
1
1
1
1
1
1
1
1
1
1
1
1
1
1
1.00028
1.01306
1.18894
1.52842
1.6446
1.68178
1.70216
1.70411
1.70863
1.71056
1.70683
1.7008
1.6956
1.68919
1.68851
1.68978
1.69116
1.68988
1.68763
1.68544
1.68408
1.68343
1.67916
1.67669
1.67625
1.67535
1.67346
1.67147
1.66976
1.66612
1.66423
1.66305
1.66078
1.65808
1.65697
1.65664
1.65558
1.65336
1.65045
1.64621
1.64292
1.64232
1.64298
1.64451
1.64443
1.64371
1.64132
1.63648
1.63147
1.62678
1.62435
1.62458
1.62497
1.62586
1.62873
1.63476
1.64317
1.65075
1.65814
1.65976
1.66049
1.66099
1.66068
1.65875
1.65495
1.65004
1.64415
1.63803
1.63466
1.63417
1.63545
1.63789
1.63786
1.63539
1.63096
1.62567
1.61936
1.61341
1.60951
1.60709
1.60589
1.60526
1.6052
1.60449
1.60357
1.6023
1.59996
1.59865
1.59832
1.59804
1.59781
1.59753
1.59698
1.59595
1.59345
1.58704
1.57812
1.57478
1.57475
1.5759
1.57973
1.58168
1.58201
1.58252
1.58243
1.57978
1.57073
1.55861
1.55371
1.55273
1.5528
1.55663
1.56488
1.56856
1.5682
1.56705
1.56304
1.55246
1.53663
1.52863
1.5264
1.52571
1.52582
1.52939
1.53875
1.54655
1.54693
1.54454
1.53821
1.52595
1.51769
1.51586
1.51566
1.51573
1.51537
1.51436
1.5126
1.50965
1.5066
1.50582
1.50658
1.51094
1.51382
1.51319
1.5108
1.5043
1.49038
1.47902
1.47537
1.47414
1.47394
1.4761
1.48353
1.49355
1.49755
1.49698
1.49426
1.48875
1.47835
1.46643
1.45838
1.45345
1.45348
1.47877
1.61627
1.84548
2.01195
2.03637
2.0343
2.03241
2.03165
2.02878
2.02316
2.01331
2.00634
2.00216
1.99914
1
1
1
1
1
1
1
1
1
1
1
1
1
1
1
1
1
1
1
1
1
1
1
1
1
1
1
1
1
1
1
1
1
1
1
1
1
1
1
1
1
1
1
1
1
1
1
1
1
1
1
1
1
1
1.00023
1.01573
1.19755
1.42749
1.58922
1.69326
1.71252
1.71081
1.70807
1.70325
1.69478
1.68678
1.68691
1.6896
1.69258
1.6913
1.6886
1.68665
1.68585
1.68597
1.68252
1.67907
1.67876
1.67838
1.67663
1.67435
1.67281
1.66919
1.66569
1.66436
1.66274
1.66036
1.65935
1.65936
1.65826
1.65562
1.65217
1.64776
1.64502
1.64475
1.64594
1.6473
1.6472
1.64595
1.64338
1.63879
1.63325
1.62933
1.62598
1.62441
1.62461
1.625
1.62592
1.62895
1.63391
1.63859
1.64303
1.64955
1.65468
1.65784
1.66057
1.66049
1.65879
1.65554
1.65131
1.64629
1.6432
1.64266
1.6437
1.64456
1.64347
1.63986
1.63484
1.62853
1.62175
1.61643
1.61307
1.61104
1.61035
1.61018
1.61074
1.60989
1.60768
1.60492
1.60199
1.59958
1.59856
1.59818
1.59773
1.59717
1.59635
1.5953
1.59349
1.58878
1.58054
1.57602
1.57576
1.5764
1.57965
1.58186
1.58235
1.58309
1.58324
1.58135
1.5733
1.56124
1.55584
1.55486
1.55494
1.5588
1.56718
1.57104
1.57076
1.56952
1.56508
1.55343
1.53755
1.53064
1.52879
1.52836
1.52884
1.53345
1.54364
1.55075
1.55087
1.54827
1.54154
1.52853
1.51986
1.51798
1.51774
1.51783
1.51742
1.51636
1.51463
1.51205
1.50964
1.50898
1.50973
1.51381
1.51622
1.51556
1.51315
1.50646
1.49239
1.48151
1.47806
1.47704
1.47713
1.48064
1.48997
1.49925
1.5013
1.50016
1.49685
1.48975
1.4772
1.46602
1.46004
1.45691
1.45996
1.51027
1.70218
1.92276
2.03526
2.04143
2.03724
2.03571
2.03366
2.02987
2.02431
2.01572
2.00799
2.00423
2.00327
2.00655
1
1
1
1
1
1
1
1
1
1
1
1
1
1
1
1
1
1
1
1
1
1
1
1
1
1
1
1
1
1
1
1
1
1
1
1
1
1
1
1
1
1
1
1
1
1
1
1
1
1
1
1
1
1
1
1.00029
1.01356
1.10283
1.31714
1.61861
1.70849
1.70857
1.70597
1.69573
1.68481
1.68589
1.68838
1.69423
1.69435
1.69076
1.6883
1.68763
1.68779
1.68359
1.68106
1.68124
1.68186
1.67975
1.67673
1.67511
1.67238
1.66769
1.6658
1.66484
1.66299
1.66176
1.66184
1.66088
1.65783
1.65414
1.6499
1.64741
1.64756
1.64934
1.65007
1.64961
1.64779
1.64499
1.64058
1.63518
1.6308
1.62845
1.62647
1.62612
1.62616
1.62643
1.6279
1.63031
1.63175
1.63263
1.63284
1.63733
1.6456
1.65283
1.65742
1.65869
1.65805
1.65617
1.65407
1.65251
1.65188
1.65195
1.65137
1.64884
1.64452
1.63901
1.63212
1.62559
1.62092
1.6179
1.61656
1.61631
1.61711
1.61787
1.61558
1.61113
1.6069
1.60376
1.60139
1.59952
1.59892
1.59857
1.59791
1.59669
1.5952
1.59347
1.58993
1.58309
1.57773
1.57708
1.57727
1.57959
1.58178
1.58234
1.58319
1.58348
1.58201
1.57495
1.56335
1.55764
1.55658
1.55672
1.56069
1.56915
1.57315
1.57292
1.57163
1.56678
1.55404
1.53839
1.53235
1.5309
1.53068
1.53161
1.53746
1.54846
1.55465
1.55447
1.55184
1.54471
1.53072
1.5218
1.52
1.51982
1.51988
1.51951
1.51835
1.51658
1.51434
1.51256
1.51211
1.51293
1.51675
1.51859
1.51785
1.5154
1.50848
1.49461
1.48441
1.48111
1.48027
1.48084
1.48594
1.49661
1.504
1.50447
1.50295
1.49901
1.49036
1.47645
1.46641
1.4619
1.46057
1.47121
1.56083
1.7813
1.98959
2.05128
2.04479
2.03789
2.03633
2.03683
2.0342
2.02668
2.01695
2.01064
2.00726
2.00705
2.01147
2.01466
1
1
1
1
1
1
1
1
1
1
1
1
1
1
1
1
1
1
1
1
1
1
1
1
1
1
1
1
1
1
1
1
1
1
1
1
1
1
1
1
1
1
1
1
1
1
1
1
1
1
1
1
1
1
1
1
1.00013
1.0037
1.0523
1.34265
1.63643
1.68852
1.69626
1.69154
1.68663
1.68814
1.6959
1.69813
1.69435
1.69127
1.68906
1.68827
1.68358
1.68258
1.68314
1.68383
1.68172
1.67882
1.67679
1.67512
1.67031
1.66733
1.66668
1.66575
1.66408
1.66378
1.66325
1.66023
1.65631
1.65259
1.64984
1.65022
1.6522
1.65268
1.65172
1.64946
1.64633
1.64201
1.63706
1.63247
1.63024
1.62916
1.62903
1.6292
1.62943
1.62989
1.63046
1.63014
1.62891
1.62508
1.62405
1.62778
1.63646
1.64559
1.65181
1.65588
1.65767
1.65919
1.66038
1.66003
1.65904
1.65719
1.6539
1.64934
1.64321
1.63608
1.63019
1.62606
1.62364
1.62308
1.62318
1.62478
1.62513
1.62162
1.61558
1.60979
1.60608
1.60402
1.60209
1.6008
1.60036
1.59968
1.59832
1.59634
1.59435
1.59119
1.58557
1.58011
1.5788
1.57879
1.58021
1.58213
1.58248
1.58324
1.58351
1.58209
1.57575
1.56495
1.55917
1.55799
1.55817
1.56238
1.57093
1.57484
1.57466
1.57333
1.56805
1.5544
1.53905
1.53382
1.53266
1.53258
1.53404
1.54101
1.55256
1.55804
1.55773
1.55512
1.54762
1.53288
1.52358
1.52169
1.52152
1.52167
1.52145
1.52046
1.51868
1.5167
1.51553
1.51522
1.51631
1.51977
1.52094
1.52011
1.51754
1.51036
1.49683
1.48753
1.48447
1.48383
1.48505
1.49181
1.50278
1.50774
1.50722
1.50511
1.50083
1.49042
1.47612
1.46793
1.46425
1.4645
1.49126
1.63481
1.86259
2.02958
2.0615
2.04844
2.04118
2.03854
2.03969
2.03756
2.03164
2.02145
2.0132
2.00976
2.01039
2.01565
2.01756
2.01428
1
1
1
1
1
1
1
1
1
1
1
1
1
1
1
1
1
1
1
1
1
1
1
1
1
1
1
1
1
1
1
1
1
1
1
1
1
1
1
1
1
1
1
1
1
1
1
1
1
1
1
1
1
1
1
1
1
1.00002
1.00178
1.05633
1.36201
1.58163
1.65314
1.68425
1.69586
1.69552
1.69753
1.69603
1.695
1.69146
1.68738
1.68387
1.68363
1.68529
1.6857
1.68329
1.6796
1.67758
1.67718
1.67337
1.66897
1.66822
1.66801
1.66676
1.66569
1.66514
1.66254
1.65833
1.65557
1.65318
1.65282
1.65421
1.6546
1.65349
1.65104
1.64767
1.64344
1.63886
1.6345
1.6322
1.63162
1.6318
1.63244
1.63328
1.63335
1.63248
1.631
1.62837
1.62288
1.61944
1.62001
1.62292
1.62958
1.63838
1.64694
1.65385
1.65961
1.66341
1.66412
1.66346
1.66138
1.65824
1.6539
1.64737
1.64014
1.63491
1.63133
1.62965
1.6295
1.63042
1.63253
1.63208
1.62764
1.62077
1.61378
1.60934
1.60743
1.60619
1.60475
1.60383
1.6027
1.60102
1.59863
1.5963
1.5934
1.58886
1.58354
1.58134
1.58117
1.58191
1.58347
1.58341
1.58371
1.58365
1.58191
1.57616
1.56643
1.56064
1.55931
1.55951
1.56396
1.5726
1.5761
1.57592
1.57456
1.56883
1.55452
1.53951
1.53488
1.53401
1.53403
1.53609
1.54414
1.55592
1.56062
1.56035
1.55817
1.55053
1.53454
1.52499
1.52324
1.52303
1.52301
1.5229
1.52239
1.52104
1.51939
1.51863
1.51852
1.51995
1.52273
1.52312
1.52225
1.51952
1.51214
1.49917
1.49074
1.488
1.4876
1.48963
1.49782
1.50803
1.51074
1.50959
1.50703
1.502
1.4906
1.47635
1.4693
1.46723
1.47082
1.52504
1.71827
1.94156
2.0567
2.06522
2.05088
2.04313
2.04136
2.04216
2.03942
2.03379
2.02506
2.01811
2.01463
2.01498
2.01971
2.02037
2.01639
2.00923
1
1
1
1
1
1
1
1
1
1
1
1
1
1
1
1
1
1
1
1
1
1
1
1
1
1
1
1
1
1
1
1
1
1
1
1
1
1
1
1
1
1
1
1
1
1
1
1
1
1
1
1
1
1
1
1
1
1
1.00002
1.00186
1.06216
1.28859
1.47679
1.64623
1.70245
1.69866
1.69858
1.69851
1.6943
1.68535
1.68284
1.68366
1.68675
1.68743
1.68532
1.68082
1.6775
1.67792
1.67566
1.6709
1.66974
1.67028
1.66957
1.66817
1.66703
1.66509
1.66065
1.65795
1.65696
1.65624
1.65636
1.6563
1.65493
1.65232
1.64881
1.64483
1.64084
1.63697
1.63459
1.63421
1.63456
1.63544
1.63637
1.63649
1.63516
1.63321
1.62995
1.62288
1.61771
1.6174
1.61798
1.62032
1.62527
1.63313
1.64298
1.65378
1.66048
1.66356
1.66416
1.66345
1.66137
1.6574
1.65077
1.64414
1.63946
1.63619
1.63518
1.63527
1.63742
1.63943
1.63834
1.63367
1.62613
1.61821
1.61389
1.61215
1.61121
1.61021
1.60911
1.60751
1.60493
1.60199
1.59931
1.59658
1.59301
1.58811
1.58518
1.58477
1.58499
1.58584
1.58536
1.58481
1.58394
1.58192
1.57685
1.56823
1.56249
1.5609
1.56106
1.56573
1.57416
1.57699
1.57673
1.57524
1.56915
1.55444
1.53991
1.53562
1.53495
1.53509
1.53784
1.54687
1.55862
1.56245
1.56216
1.56036
1.55306
1.53651
1.52595
1.52412
1.52374
1.52458
1.5245
1.52407
1.52345
1.52255
1.52207
1.52211
1.52353
1.52522
1.52506
1.52406
1.52121
1.51377
1.5016
1.49404
1.49162
1.49143
1.49435
1.50353
1.51223
1.51329
1.51176
1.50892
1.50272
1.49037
1.47725
1.4714
1.47045
1.48266
1.57994
1.79994
2.00289
2.07251
2.06961
2.05174
2.04451
2.04377
2.0454
2.04248
2.03566
2.02694
2.02035
2.01739
2.01855
2.02301
2.02276
2.01842
2.01115
2.00043
1
1
1
1
1
1
1
1
1
1
1
1
1
1
1
1
1
1
1
1
1
1
1
1
1
1
1
1
1
1
1
1
1
1
1
1
1
1
1
1
1
1
1
1
1
1
1
1
1
1
1
1
1
1
1
1
1
1
1
1.00002
1.00183
1.03192
1.1596
1.46393
1.67021
1.69652
1.70074
1.69556
1.68361
1.68177
1.68299
1.68752
1.69072
1.68833
1.68387
1.67869
1.67692
1.67562
1.67259
1.67196
1.67275
1.67222
1.67105
1.66987
1.66848
1.66398
1.66036
1.65981
1.65968
1.65923
1.65841
1.65666
1.65364
1.64972
1.64596
1.6427
1.63978
1.63747
1.63719
1.63764
1.63856
1.63895
1.63855
1.63719
1.6355
1.63248
1.62559
1.61794
1.61622
1.61612
1.61636
1.61828
1.62264
1.62975
1.64019
1.65174
1.65797
1.6612
1.66225
1.6616
1.65849
1.65239
1.64715
1.64364
1.64092
1.64021
1.64104
1.64399
1.64503
1.6436
1.63871
1.63091
1.62309
1.61864
1.61732
1.61685
1.61631
1.61546
1.61385
1.61078
1.60665
1.6031
1.60052
1.59783
1.59382
1.59027
1.58955
1.58923
1.5888
1.58759
1.58619
1.58469
1.58262
1.57822
1.57095
1.56518
1.56313
1.56327
1.56789
1.57576
1.57763
1.57729
1.57552
1.56902
1.55419
1.54038
1.53632
1.53574
1.53594
1.53949
1.54954
1.56083
1.56372
1.56334
1.56165
1.55471
1.53828
1.52651
1.52464
1.5243
1.52465
1.52672
1.52662
1.5262
1.52601
1.52593
1.52603
1.5266
1.52692
1.52657
1.52535
1.52247
1.51532
1.50407
1.49728
1.49512
1.49521
1.49889
1.50851
1.51549
1.51559
1.51382
1.51057
1.50325
1.49023
1.47868
1.47416
1.47478
1.50468
1.65692
1.88429
2.04551
2.08086
2.07092
2.05391
2.04751
2.04666
2.04826
2.04538
2.03893
2.02981
2.02322
2.02049
2.02204
2.02643
2.02537
2.02009
2.01131
2.00049
1.99309
1
1
1
1
1
1
1
1
1
1
1
1
1
1
1
1
1
1
1
1
1
1
1
1
1
1
1
1
1
1
1
1
1
1
1
1
1
1
1
1
1
1
1
1
1
1
1
1
1
1
1
1
1
1
1
1
1
1
1
1
1.00001
1.00047
1.01091
1.13994
1.48025
1.65817
1.6851
1.68739
1.68345
1.68286
1.68761
1.69421
1.69168
1.6877
1.68277
1.67599
1.67401
1.67335
1.67366
1.6759
1.67601
1.67433
1.6728
1.67172
1.6681
1.6634
1.66218
1.66219
1.66157
1.66022
1.65857
1.65556
1.65118
1.64727
1.6445
1.64236
1.64063
1.64054
1.6411
1.64175
1.64156
1.6401
1.63861
1.63707
1.63456
1.62878
1.62095
1.61709
1.61621
1.6157
1.61596
1.61803
1.62247
1.6292
1.63788
1.64781
1.6528
1.65602
1.6569
1.65537
1.65081
1.64785
1.64652
1.64532
1.64538
1.64763
1.64967
1.64981
1.64794
1.64275
1.63437
1.62691
1.62339
1.62206
1.62195
1.62199
1.62171
1.62055
1.61754
1.61239
1.6079
1.60515
1.60309
1.60059
1.59712
1.59561
1.59397
1.59173
1.58972
1.58802
1.58638
1.5843
1.58056
1.57467
1.56903
1.5665
1.56654
1.57096
1.57771
1.57863
1.57805
1.57576
1.56861
1.55382
1.54114
1.53733
1.53668
1.53706
1.54157
1.55258
1.56286
1.56463
1.56408
1.56216
1.55536
1.53951
1.52696
1.52478
1.5246
1.52483
1.52768
1.53043
1.53037
1.5303
1.5303
1.5296
1.52851
1.52798
1.52728
1.52602
1.52319
1.51671
1.50664
1.50037
1.49854
1.49885
1.50314
1.51267
1.51804
1.51769
1.51576
1.51205
1.50366
1.4903
1.48077
1.47758
1.48211
1.54292
1.74046
1.95909
2.07496
2.08614
2.07137
2.05454
2.04934
2.04906
2.05039
2.04724
2.04095
2.03278
2.02708
2.02417
2.0256
2.02921
2.02737
2.02193
2.01324
2.00216
1.99433
1.9904
1
1
1
1
1
1
1
1
1
1
1
1
1
1
1
1
1
1
1
1
1
1
1
1
1
1
1
1
1
1
1
1
1
1
1
1
1
1
1
1
1
1
1
1
1
1
1
1
1
1
1
1
1
1
1
1
1
1
1
1
1
1
1.00017
1.00845
1.14307
1.47306
1.60663
1.65787
1.68635
1.69129
1.69336
1.69248
1.69066
1.68718
1.67886
1.6724
1.67315
1.67449
1.67817
1.67997
1.67789
1.67518
1.67393
1.6708
1.66619
1.66406
1.66435
1.66378
1.66175
1.66018
1.65759
1.65303
1.64902
1.64636
1.6445
1.64367
1.64415
1.64491
1.6449
1.64371
1.64179
1.63989
1.638
1.6358
1.63115
1.62457
1.62001
1.61839
1.61743
1.617
1.61797
1.6206
1.62455
1.62935
1.63518
1.64014
1.64255
1.64515
1.64666
1.64544
1.64518
1.64646
1.64795
1.65119
1.6542
1.65437
1.65373
1.65124
1.6461
1.63718
1.62976
1.62704
1.62613
1.62612
1.62676
1.62711
1.62642
1.62383
1.61812
1.61297
1.61035
1.60876
1.60716
1.60512
1.60306
1.59968
1.59504
1.59216
1.5903
1.58869
1.58681
1.58391
1.57937
1.57394
1.57109
1.57108
1.57526
1.5804
1.58054
1.57938
1.57638
1.56823
1.55365
1.54266
1.53903
1.53825
1.53897
1.54477
1.55649
1.56466
1.56525
1.56452
1.56205
1.55534
1.54031
1.52744
1.52498
1.52481
1.52504
1.52829
1.53359
1.5354
1.53528
1.53516
1.53277
1.52948
1.52821
1.5273
1.52599
1.5234
1.51792
1.5092
1.50336
1.5017
1.50224
1.50698
1.51604
1.5201
1.5195
1.51751
1.51316
1.50395
1.49102
1.48305
1.48157
1.496
1.6042
1.82622
2.01657
2.0878
2.08984
2.07159
2.05573
2.05107
2.05166
2.05294
2.04922
2.04218
2.03428
2.02926
2.02705
2.02905
2.03198
2.02921
2.02297
2.01346
2.00329
1.99698
1.99354
1.99131
1
1
1
1
1
1
1
1
1
1
1
1
1
1
1
1
1
1
1
1
1
1
1
1
1
1
1
1
1
1
1
1
1
1
1
1
1
1
1
1
1
1
1
1
1
1
1
1
1
1
1
1
1
1
1
1
1
1
1
1
1
1
1
1.00013
1.00933
1.14021
1.35838
1.54269
1.67499
1.69493
1.693
1.6936
1.691
1.68067
1.67068
1.6722
1.67492
1.68023
1.68279
1.68022
1.6767
1.67534
1.67306
1.66784
1.66537
1.66591
1.66563
1.66349
1.66137
1.65934
1.65482
1.65051
1.6485
1.64682
1.64645
1.64761
1.6488
1.64785
1.64571
1.64339
1.64106
1.63885
1.63674
1.63282
1.62762
1.62346
1.62153
1.62061
1.62043
1.62122
1.62285
1.62476
1.62656
1.62845
1.63015
1.62913
1.62781
1.63111
1.63477
1.63844
1.64306
1.648
1.65464
1.6587
1.65831
1.65668
1.65388
1.64905
1.64015
1.63245
1.62974
1.62916
1.62926
1.63084
1.63202
1.6314
1.62937
1.62392
1.6177
1.61512
1.61418
1.61329
1.61207
1.61022
1.60643
1.60013
1.59554
1.59328
1.59172
1.59016
1.588
1.58455
1.57964
1.57677
1.57674
1.5806
1.584
1.58342
1.58162
1.57771
1.56833
1.55439
1.54529
1.54166
1.54082
1.54222
1.54955
1.56094
1.56608
1.56578
1.56456
1.56157
1.55512
1.54117
1.52826
1.52545
1.52527
1.52563
1.52941
1.53621
1.53929
1.53932
1.53894
1.53532
1.53006
1.52771
1.52663
1.52539
1.52325
1.5189
1.51165
1.50605
1.50458
1.50529
1.51028
1.5186
1.5216
1.52097
1.519
1.51396
1.50388
1.4921
1.48589
1.48654
1.5205
1.6835
1.9093
2.06008
2.09371
2.0891
2.0703
2.05805
2.05431
2.05519
2.05605
2.05181
2.04385
2.03547
2.03091
2.02937
2.03207
2.03441
2.03115
2.02427
2.01424
2.00414
1.99817
1.99525
1.99392
1.99215
1
1
1
1
1
1
1
1
1
1
1
1
1
1
1
1
1
1
1
1
1
1
1
1
1
1
1
1
1
1
1
1
1
1
1
1
1
1
1
1
1
1
1
1
1
1
1
1
1
1
1
1
1
1
1
1
1
1
1
1
1
1
1
1
1.00014
1.00677
1.06361
1.25249
1.56589
1.68149
1.69382
1.69135
1.68333
1.67087
1.67138
1.67407
1.6825
1.68603
1.68232
1.67749
1.67647
1.67519
1.6687
1.66624
1.66683
1.66698
1.66497
1.66252
1.66047
1.65695
1.65208
1.65043
1.64976
1.64956
1.65087
1.6519
1.65057
1.64768
1.64472
1.64215
1.63987
1.63787
1.63442
1.63013
1.6266
1.62464
1.6238
1.62402
1.62552
1.62618
1.6266
1.62716
1.62702
1.62605
1.62259
1.61644
1.6166
1.62067
1.62726
1.63527
1.64382
1.65425
1.65963
1.65985
1.6587
1.65593
1.65135
1.64317
1.6356
1.63249
1.63178
1.63184
1.63418
1.63645
1.63593
1.63401
1.62893
1.62218
1.61924
1.61885
1.61855
1.61788
1.61617
1.61259
1.60648
1.60009
1.59697
1.59555
1.59431
1.59266
1.58984
1.58589
1.58328
1.58342
1.58681
1.58842
1.58711
1.58464
1.57966
1.56911
1.55647
1.54909
1.54554
1.54469
1.547
1.55575
1.56517
1.56734
1.5664
1.56454
1.56118
1.55504
1.54236
1.52973
1.52639
1.52618
1.52677
1.53124
1.53897
1.54224
1.5421
1.54127
1.5373
1.53048
1.52694
1.52582
1.52477
1.52314
1.51977
1.51383
1.50859
1.50718
1.50797
1.51298
1.52042
1.52256
1.522
1.5201
1.51472
1.50375
1.49328
1.48911
1.49454
1.56385
1.76932
1.97797
2.08678
2.09759
2.08766
2.06783
2.05844
2.05601
2.05865
2.05932
2.05441
2.0454
2.03677
2.03238
2.03106
2.03421
2.03643
2.03295
2.02577
2.01544
2.00577
2.00026
1.99743
1.99609
1.99415
1.99109
1
1
1
1
1
1
1
1
1
1
1
1
1
1
1
1
1
1
1
1
1
1
1
1
1
1
1
1
1
1
1
1
1
1
1
1
1
1
1
1
1
1
1
1
1
1
1
1
1
1
1
1
1
1
1
1
1
1
1
1
1
1
1
1
1
1.00005
1.00167
1.03054
1.25139
1.57284
1.66658
1.67767
1.67786
1.67264
1.67398
1.68316
1.68815
1.6843
1.67846
1.67738
1.67697
1.66871
1.66636
1.66743
1.66779
1.66612
1.66374
1.66146
1.65943
1.65483
1.6528
1.65325
1.6534
1.65406
1.65431
1.65283
1.64934
1.6457
1.64298
1.64101
1.63921
1.63621
1.63261
1.62946
1.62754
1.62668
1.6271
1.62876
1.62916
1.62914
1.6289
1.62773
1.62558
1.62057
1.61248
1.60962
1.61115
1.61601
1.62378
1.63408
1.64799
1.65692
1.65839
1.65834
1.65678
1.65277
1.64556
1.6388
1.63572
1.63479
1.63479
1.63757
1.64016
1.63984
1.63806
1.63308
1.626
1.62282
1.62258
1.62259
1.62231
1.62084
1.61768
1.61232
1.60547
1.6011
1.59937
1.59833
1.59707
1.59503
1.59236
1.59027
1.59093
1.59357
1.59347
1.59142
1.58813
1.5819
1.57067
1.56009
1.55394
1.5506
1.55008
1.55346
1.56262
1.56913
1.56912
1.56752
1.56496
1.56139
1.55552
1.54404
1.53203
1.52819
1.52788
1.52854
1.53336
1.54149
1.54471
1.54415
1.5427
1.53864
1.53091
1.5264
1.52528
1.52443
1.52317
1.5206
1.51582
1.51094
1.50955
1.51033
1.51513
1.52154
1.52304
1.52256
1.52075
1.51505
1.50389
1.49443
1.4926
1.50921
1.62899
1.8589
2.03579
2.09633
2.09802
2.08374
2.06628
2.05969
2.05843
2.06221
2.06291
2.05731
2.0472
2.03763
2.03323
2.0321
2.03556
2.03775
2.0342
2.02725
2.01732
2.00799
2.00267
1.99997
1.99829
1.99591
1.99212
1.98692
1
1
1
1
1
1
1
1
1
1
1
1
1
1
1
1
1
1
1
1
1
1
1
1
1
1
1
1
1
1
1
1
1
1
1
1
1
1
1
1
1
1
1
1
1
1
1
1
1
1
1
1
1
1
1
1
1
1
1
1
1
1
1
1
1
1
1.00001
1.00076
1.02779
1.26478
1.53187
1.61533
1.66012
1.68374
1.68356
1.68651
1.6852
1.68146
1.67788
1.67748
1.66816
1.66611
1.66755
1.66821
1.66706
1.66505
1.66278
1.66188
1.6587
1.65628
1.657
1.658
1.65785
1.65675
1.6548
1.65104
1.64663
1.64357
1.64201
1.6407
1.63819
1.63526
1.63238
1.63044
1.62927
1.62957
1.63093
1.63148
1.63152
1.6309
1.62915
1.62658
1.62144
1.61195
1.60751
1.60754
1.60906
1.61409
1.62248
1.63523
1.64891
1.65349
1.65464
1.65487
1.65254
1.64628
1.64096
1.6388
1.63809
1.63872
1.64186
1.64366
1.64323
1.64159
1.63659
1.62895
1.6257
1.62541
1.62543
1.62513
1.62394
1.6215
1.61717
1.61067
1.60514
1.60286
1.6018
1.60087
1.59972
1.59819
1.59755
1.59888
1.60037
1.59884
1.59601
1.59194
1.58432
1.57313
1.56477
1.55944
1.55658
1.55648
1.56121
1.5699
1.57307
1.57204
1.56948
1.5663
1.56248
1.55677
1.54639
1.53532
1.53106
1.53062
1.53126
1.53612
1.54392
1.5466
1.5458
1.54395
1.53969
1.53148
1.52619
1.52503
1.52446
1.52346
1.52149
1.51753
1.51313
1.51178
1.5125
1.51697
1.5222
1.52299
1.52277
1.52072
1.51513
1.50434
1.4958
1.49685
1.53635
1.70965
1.93766
2.07991
2.10143
2.09492
2.0775
2.065
2.06091
2.06166
2.06669
2.0664
2.06004
2.04894
2.0386
2.03438
2.03313
2.03661
2.03881
2.03522
2.02846
2.01903
2.01042
2.00577
2.00322
2.00107
1.99822
1.99327
1.98729
1.98355
1
1
1
1
1
1
1
1
1
1
1
1
1
1
1
1
1
1
1
1
1
1
1
1
1
1
1
1
1
1
1
1
1
1
1
1
1
1
1
1
1
1
1
1
1
1
1
1
1
1
1
1
1
1
1
1
1
1
1
1
1
1
1
1
1
1
1
1.00001
1.00071
1.03071
1.21048
1.4018
1.59227
1.68723
1.68914
1.68772
1.68603
1.67936
1.67403
1.66726
1.6664
1.66864
1.6704
1.66904
1.66691
1.66466
1.66476
1.66247
1.65985
1.6606
1.66194
1.6613
1.65885
1.65669
1.653
1.64763
1.64415
1.64294
1.6421
1.64049
1.63808
1.6354
1.63353
1.63208
1.63177
1.63248
1.63327
1.63338
1.6326
1.63083
1.62806
1.62317
1.61464
1.60752
1.60678
1.60699
1.60905
1.61513
1.62461
1.63565
1.64424
1.6468
1.6488
1.64883
1.64456
1.641
1.64064
1.64078
1.64311
1.64683
1.64746
1.64647
1.64459
1.63979
1.63169
1.6279
1.62741
1.6273
1.62677
1.62572
1.62399
1.62082
1.61542
1.60918
1.60593
1.60485
1.60427
1.60375
1.60349
1.60459
1.6065
1.60643
1.60394
1.60066
1.59565
1.5867
1.57649
1.56998
1.56532
1.56305
1.56349
1.5694
1.57687
1.5778
1.57607
1.57246
1.56855
1.56425
1.55856
1.54949
1.53969
1.53508
1.53452
1.53502
1.53968
1.54681
1.54876
1.54759
1.54528
1.54079
1.5326
1.52666
1.52527
1.52481
1.52406
1.52245
1.51908
1.51523
1.51404
1.51475
1.51873
1.52258
1.52276
1.52245
1.52033
1.51452
1.50476
1.49845
1.50538
1.58541
1.80126
2.00407
2.09935
2.1057
2.0922
2.07239
2.06387
2.06155
2.06566
2.07207
2.07055
2.06287
2.04959
2.03868
2.03461
2.03355
2.03762
2.04027
2.03694
2.03031
2.02109
2.01278
2.0085
2.00633
2.00428
2.00076
1.9948
1.98857
1.9846
1.98208
1
1
1
1
1
1
1
1
1
1
1
1
1
1
1
1
1
1
1
1
1
1
1
1
1
1
1
1
1
1
1
1
1
1
1
1
1
1
1
1
1
1
1
1
1
1
1
1
1
1
1
1
1
1
1
1
1
1
1
1
1
1
1
1
1
1
1
1
1.00001
1.00063
1.01478
1.09969
1.35458
1.632
1.68407
1.68691
1.68159
1.67079
1.66622
1.66639
1.67102
1.67581
1.67335
1.66994
1.66713
1.66761
1.66454
1.66226
1.66311
1.665
1.66369
1.66075
1.65793
1.65475
1.64915
1.64511
1.64393
1.64344
1.64264
1.64091
1.63867
1.63674
1.63567
1.63456
1.63427
1.63474
1.63478
1.634
1.63229
1.62953
1.62476
1.61755
1.61054
1.60779
1.6078
1.60885
1.61335
1.62016
1.62622
1.63166
1.63461
1.6363
1.63795
1.63788
1.63768
1.64009
1.6422
1.64648
1.65109
1.65114
1.64952
1.64729
1.64318
1.63486
1.62962
1.62876
1.6284
1.62769
1.6268
1.62555
1.62346
1.61938
1.61356
1.60928
1.60793
1.60758
1.60746
1.60863
1.61108
1.61245
1.61106
1.60833
1.60478
1.59886
1.58895
1.58031
1.5752
1.57138
1.56958
1.57084
1.57754
1.58317
1.58307
1.58063
1.57609
1.57102
1.56612
1.56072
1.55325
1.5449
1.54017
1.53951
1.53984
1.54394
1.55021
1.55136
1.54974
1.54713
1.54246
1.53406
1.52812
1.52632
1.52562
1.52489
1.52366
1.52095
1.51765
1.51678
1.51741
1.52052
1.52262
1.52249
1.52187
1.51951
1.514
1.50515
1.50203
1.52239
1.65691
1.89032
2.06137
2.10699
2.10439
2.0859
2.07022
2.06499
2.06459
2.07163
2.07758
2.07483
2.06627
2.05163
2.03893
2.03437
2.03317
2.03788
2.0422
2.03957
2.0337
2.0246
2.01595
2.01167
2.00948
2.00711
2.00303
1.99694
1.99073
1.98672
1.98432
1.98419
1
1
1
1
1
1
1
1
1
1
1
1
1
1
1
1
1
1
1
1
1
1
1
1
1
1
1
1
1
1
1
1
1
1
1
1
1
1
1
1
1
1
1
1
1
1
1
1
1
1
1
1
1
1
1
1
1
1
1
1
1
1
1
1
1
1
1
1
1
1
1.00014
1.00447
1.07284
1.37838
1.61967
1.66279
1.66915
1.66797
1.66696
1.67267
1.67893
1.67662
1.67282
1.66982
1.6706
1.66603
1.66263
1.66373
1.66646
1.66532
1.66208
1.65862
1.65627
1.65135
1.64675
1.64525
1.64487
1.64449
1.64351
1.64203
1.64046
1.63917
1.63799
1.63698
1.63604
1.63595
1.6353
1.63368
1.63083
1.62629
1.62004
1.6141
1.61096
1.61082
1.61183
1.61602
1.62037
1.62245
1.62374
1.62411
1.62278
1.62149
1.62465
1.6295
1.63501
1.64051
1.6473
1.65296
1.65334
1.65188
1.64959
1.64628
1.63927
1.63184
1.62997
1.62937
1.62837
1.6275
1.6266
1.62531
1.62274
1.61802
1.61324
1.61152
1.61126
1.61148
1.61363
1.61608
1.61607
1.61422
1.61164
1.60813
1.60142
1.59117
1.5841
1.58007
1.57718
1.57598
1.57825
1.58526
1.58889
1.58828
1.58533
1.57957
1.57313
1.56803
1.56331
1.55749
1.55068
1.54601
1.54531
1.5455
1.54895
1.5541
1.55474
1.55251
1.54952
1.54495
1.53688
1.53042
1.52828
1.52763
1.52678
1.52548
1.52335
1.52072
1.52018
1.5207
1.52227
1.52268
1.5224
1.52116
1.51862
1.514
1.50638
1.50763
1.55649
1.7436
1.96719
2.09757
2.11249
2.10349
2.08077
2.06802
2.06496
2.06874
2.07938
2.08325
2.07878
2.06883
2.05271
2.03992
2.03566
2.034
2.03846
2.04423
2.04248
2.03796
2.02974
2.02065
2.01604
2.01362
2.01015
2.00445
1.99787
1.9931
1.98974
1.98757
1.98788
1.98843
1
1
1
1
1
1
1
1
1
1
1
1
1
1
1
1
1
1
1
1
1
1
1
1
1
1
1
1
1
1
1
1
1
1
1
1
1
1
1
1
1
1
1
1
1
1
1
1
1
1
1
1
1
1
1
1
1
1
1
1
1
1
1
1
1
1
1
1
1
1
1
1.00005
1.00298
1.07309
1.36774
1.54638
1.62285
1.66587
1.67616
1.67605
1.67623
1.67542
1.6723
1.67271
1.66669
1.66152
1.66301
1.66667
1.66634
1.66296
1.65911
1.65744
1.65409
1.64894
1.64685
1.64667
1.6465
1.64624
1.64553
1.64469
1.64253
1.64091
1.63941
1.63721
1.63671
1.63637
1.63507
1.63215
1.62774
1.62231
1.61732
1.61463
1.61462
1.61612
1.6198
1.62235
1.62246
1.62119
1.61922
1.61536