/*--------------------------------*- C++ -*----------------------------------*\
  =========                 |
  \\      /  F ield         | OpenFOAM: The Open Source CFD Toolbox
   \\    /   O peration     | Website:  https://openfoam.org
    \\  /    A nd           | Version:  7
     \\/     M anipulation  |
\*---------------------------------------------------------------------------*/
FoamFile
{
    version     2.0;
    format      ascii;
    class       volScalarField;
    location    "7.8";
    object      rho;
}
// * * * * * * * * * * * * * * * * * * * * * * * * * * * * * * * * * * * * * //

dimensions      [1 -3 0 0 0 0 0];

internalField   nonuniform List<scalar> 
3328
(
70.1482
11.823
7.39347
7.40808
7.41593
7.42516
7.43531
7.44706
7.46023
7.47478
7.49035
7.50675
7.52337
7.54004
7.55653
7.57368
7.59102
7.60818
7.62019
7.62503
7.61384
7.58938
7.56645
7.5611
70.1412
11.8211
7.39274
7.40735
7.41521
7.42426
7.43407
7.44532
7.45787
7.47166
7.48637
7.5019
7.51777
7.53398
7.55021
7.5672
7.58425
7.60099
7.61261
7.61703
7.6051
7.57948
7.5549
7.54855
70.1254
11.8137
7.39057
7.40486
7.41254
7.42116
7.4304
7.44093
7.45263
7.46543
7.47899
7.49326
7.50796
7.52327
7.5388
7.55513
7.57135
7.58719
7.59837
7.60291
7.59119
7.56523
7.53938
7.53241
70.0935
11.8029
7.38635
7.40004
7.40738
7.41536
7.42384
7.43345
7.44413
7.45578
7.46802
7.48079
7.49391
7.50779
7.52208
7.53737
7.55274
7.56813
7.57975
7.58497
7.57289
7.54405
7.51371
7.50348
70.0422
11.786
7.37971
7.39242
7.39929
7.40644
7.41394
7.42246
7.432
7.44249
7.45349
7.46486
7.47634
7.48849
7.50111
7.51471
7.5284
7.54155
7.5511
7.55347
7.53877
7.50906
7.47681
7.47003
69.9709
11.7628
7.37047
7.38176
7.38807
7.39434
7.40083
7.40811
7.41641
7.42569
7.43556
7.44576
7.45585
7.46624
7.4769
7.48796
7.49909
7.50905
7.51755
7.51994
7.50839
7.47819
7.43634
7.40595
69.8853
11.7338
7.35876
7.3681
7.37387
7.37932
7.38494
7.39097
7.39798
7.40588
7.41461
7.42371
7.43271
7.44147
7.45026
7.45859
7.46706
7.47331
7.47841
7.47455
7.45305
7.40163
7.34427
7.32188
69.7915
11.7003
7.34525
7.35194
7.35704
7.36159
7.36657
7.37156
7.3774
7.38389
7.39137
7.39919
7.40718
7.41451
7.4217
7.42761
7.43273
7.43482
7.43397
7.42359
7.39724
7.34742
7.26564
7.31457
69.7023
11.6624
7.33144
7.33496
7.33908
7.34223
7.34662
7.35084
7.35587
7.36104
7.36709
7.37327
7.37993
7.3858
7.39124
7.39497
7.3965
7.39577
7.38908
7.3743
7.33335
7.26284
7.04619
6.77028
69.6269
11.6134
7.31898
7.31814
7.32078
7.32244
7.32596
7.32955
7.33409
7.33835
7.34296
7.34725
7.35188
7.35587
7.35908
7.36072
7.35899
7.35547
7.34472
7.32428
7.27873
7.19346
7.06296
6.80738
69.5688
11.5532
7.30633
7.30183
7.30253
7.30284
7.30469
7.30761
7.31194
7.31585
7.31922
7.32175
7.32388
7.32559
7.32611
7.32515
7.32088
7.31338
7.29995
7.27427
7.23371
7.14336
7.04035
6.83968
69.5093
11.4959
7.29477
7.28413
7.28393
7.28297
7.28275
7.28494
7.28925
7.29314
7.29557
7.29651
7.29639
7.29581
7.29387
7.28958
7.28209
7.26994
7.25409
7.22622
7.18834
7.11796
7.03709
6.89776
69.4129
11.4638
7.2762
7.26875
7.2657
7.2615
7.25956
7.26132
7.26567
7.26937
7.27068
7.27026
7.26871
7.26636
7.26237
7.25477
7.24401
7.22761
7.20777
7.17937
7.14188
7.09223
7.01697
6.9364
69.2665
11.4502
7.25457
7.24849
7.24198
7.23559
7.23334
7.23575
7.24066
7.24373
7.24359
7.24157
7.23896
7.23544
7.22993
7.22035
7.20699
7.1877
7.1637
7.13349
7.09652
7.05444
6.99847
6.93298
69.0801
11.452
7.22908
7.22249
7.21278
7.20499
7.20442
7.20881
7.21427
7.21611
7.21385
7.20955
7.20562
7.20092
7.1945
7.18418
7.16945
7.14893
7.12294
7.09151
7.05456
7.01361
6.9662
6.91146
68.8877
11.4453
7.19875
7.19012
7.17926
7.17243
7.17452
7.18204
7.18793
7.18776
7.18218
7.17473
7.16859
7.16262
7.1554
7.14457
7.12914
7.1084
7.08255
7.05176
7.0159
6.97529
6.92882
6.88014
68.7189
11.4284
7.16393
7.15464
7.1426
7.13882
7.14469
7.15522
7.16122
7.15872
7.14929
7.13877
7.13033
7.12273
7.11422
7.10233
7.08563
7.06418
7.039
7.0103
6.97755
6.93991
6.89515
6.84482
68.5729
11.4001
7.13032
7.11749
7.10469
7.10564
7.11609
7.12814
7.13265
7.12695
7.11416
7.10191
7.09255
7.08416
7.07446
7.06048
7.04128
7.01784
6.99195
6.96438
6.93474
6.90143
6.86172
6.81311
68.437
11.3715
7.09889
7.07878
7.06764
7.07611
7.09125
7.10155
7.10145
7.09066
7.0754
7.063
7.0545
7.04768
7.03868
7.02314
7.00049
6.97311
6.94443
6.9159
6.88704
6.85609
6.82123
6.77746
68.3025
11.3462
7.06451
7.0383
7.03857
7.05652
7.07092
7.07424
7.06641
7.04973
7.03301
7.02156
7.01525
7.01165
7.00594
6.99135
6.96624
6.93479
6.90186
6.86958
6.8382
6.80617
6.77163
6.73069
68.1738
11.3074
7.0174
7.00768
7.02349
7.04414
7.05007
7.04394
7.02744
7.00616
6.98854
6.9786
6.9755
6.97587
6.97383
6.96086
6.93571
6.90323
6.86768
6.83178
6.79587
6.75868
6.71897
6.67498
68.0579
11.2421
6.96875
6.99323
7.01678
7.02859
7.02559
7.01083
6.98715
6.96292
6.94542
6.93777
6.9385
6.94198
6.94073
6.92715
6.9024
6.87194
6.83876
6.80354
6.76475
6.72155
6.67318
6.62013
67.946
11.1591
6.94228
6.98525
7.00398
7.0068
6.99675
6.97436
6.94662
6.92289
6.90867
6.90568
6.90913
6.91169
6.90566
6.88763
6.86226
6.83456
6.80602
6.77575
6.74046
6.69678
6.6417
6.57765
67.8327
11.0814
6.9345
6.97442
6.98367
6.97885
6.96076
6.93249
6.90586
6.88813
6.88224
6.88555
6.88954
6.88489
6.86826
6.84305
6.81534
6.78903
6.76452
6.74059
6.71254
6.67454
6.6209
6.55195
67.7145
11.0386
6.93375
6.95798
6.95632
6.94244
6.9146
6.88567
6.86591
6.85963
6.86566
6.8745
6.87516
6.86056
6.83206
6.79849
6.76618
6.73888
6.71655
6.69742
6.67545
6.64395
6.59636
6.53208
67.5934
11.0308
6.92925
6.93449
6.92173
6.89517
6.86233
6.83988
6.83158
6.84035
6.85569
6.86428
6.85849
6.83562
6.80024
6.76074
6.72294
6.69206
6.66975
6.6532
6.63331
6.60313
6.5586
6.50208
67.4715
11.0542
6.91406
6.90329
6.8794
6.8433
6.81543
6.80479
6.81187
6.83065
6.84541
6.84668
6.83295
6.80463
6.76849
6.73009
6.69348
6.66295
6.63863
6.61745
6.59098
6.5551
6.50876
6.45664
67.3491
11.0897
6.88864
6.86628
6.83065
6.79955
6.78588
6.79021
6.80704
6.82271
6.8268
6.81751
6.79404
6.76288
6.73031
6.70046
6.67588
6.65456
6.62903
6.59567
6.55353
6.50544
6.45334
6.40069
67.2239
11.1189
6.85277
6.8195
6.78471
6.77341
6.77752
6.79461
6.80899
6.8106
6.79899
6.77462
6.74283
6.7107
6.68453
6.66917
6.66394
6.65637
6.63269
6.58876
6.52997
6.46536
6.40185
6.34324
67.1034
11.1318
6.80765
6.77009
6.75298
6.76428
6.78566
6.80475
6.80921
6.79552
6.76393
6.72536
6.688
6.65642
6.64035
6.64352
6.65214
6.65232
6.63138
6.58527
6.52063
6.44581
6.37007
6.30081
67.0048
11.1027
6.75319
6.73883
6.74199
6.77039
6.79624
6.80614
6.80047
6.7726
6.72806
6.67966
6.63936
6.61739
6.6178
6.62904
6.63798
6.63537
6.61417
6.57163
6.51164
6.43863
6.35909
6.28278
66.9454
11.0462
6.70601
6.72719
6.75147
6.77935
6.79122
6.7917
6.77258
6.73569
6.69173
6.65075
6.62369
6.61409
6.61537
6.61851
6.61579
6.60162
6.57268
6.53155
6.48173
6.42613
6.36497
6.2992
66.9139
10.9663
6.6931
6.73998
6.76311
6.77279
6.77237
6.75449
6.72267
6.68817
6.65801
6.6409
6.63546
6.63258
6.62603
6.61217
6.58955
6.55592
6.51338
6.46952
6.42997
6.39566
6.36295
6.3263
66.8818
10.8989
6.71314
6.75412
6.76139
6.75618
6.73477
6.7032
6.66703
6.63779
6.62455
6.63631
6.65313
6.6591
6.64614
6.61341
6.56697
6.51112
6.45285
6.40277
6.3708
6.35727
6.35202
6.34082
66.8272
10.8736
6.74202
6.76054
6.75425
6.72943
6.69107
6.65041
6.6218
6.60642
6.61649
6.642
6.66473
6.67332
6.66011
6.61534
6.54874
6.47592
6.40662
6.35287
6.32969
6.3312
6.33844
6.33538
66.7598
10.8799
6.75062
6.75188
6.7346
6.70057
6.65182
6.61673
6.59848
6.60125
6.61898
6.6427
6.66039
6.66523
6.65019
6.60335
6.53413
6.45722
6.38762
6.34187
6.323
6.31864
6.31825
6.31104
66.6871
10.9195
6.73806
6.72611
6.70593
6.67205
6.63965
6.61765
6.60712
6.6106
6.62387
6.63661
6.64
6.63018
6.6041
6.5649
6.51487
6.45729
6.40592
6.36903
6.3426
6.31858
6.29569
6.26987
66.614
10.9775
6.70198
6.68806
6.66829
6.65224
6.64039
6.63622
6.63601
6.63708
6.6351
6.62709
6.60754
6.57629
6.54105
6.51062
6.48963
6.47053
6.44565
6.416
6.38083
6.33966
6.29075
6.23507
66.5516
11.0437
6.6643
6.64955
6.63782
6.6371
6.64593
6.66267
6.67304
6.6696
6.65205
6.61612
6.56914
6.52085
6.48267
6.46145
6.45941
6.46869
6.47593
6.46359
6.42492
6.36502
6.28994
6.20636
66.5126
11.1006
6.6264
6.63012
6.62092
6.63524
6.66337
6.68988
6.70248
6.69438
6.65658
6.59965
6.53515
6.48608
6.45454
6.45072
6.46327
6.48713
6.50837
6.50616
6.46402
6.38253
6.28311
6.17955
5.81745
6.21294
6.34642
6.3123
6.19418
6.08182
6.00253
5.97308
6.57136
6.60525
6.47879
6.37101
6.21659
6.09967
6.02199
6.00072
6.66954
6.59037
6.46654
6.37655
6.24453
6.13554
6.07494
6.06708
6.78421
6.68949
6.57428
6.4868
6.3527
6.23373
6.148
6.13455
6.84718
6.77325
6.66324
6.56952
6.43457
6.30725
6.21108
6.19878
6.87129
6.8124
6.74293
6.66348
6.54638
6.41989
6.30205
6.25271
6.86113
6.81435
6.76512
6.70994
6.61237
6.47035
6.29908
6.23663
6.82762
6.78411
6.73963
6.69023
6.61075
6.49753
6.28205
6.19512
6.78803
6.73126
6.68057
6.63148
6.55303
6.41179
6.01332
4.90999
6.75404
6.68579
6.61484
6.53386
6.43409
6.2348
5.82394
4.83039
6.72119
6.64758
6.56002
6.45054
6.31218
6.07354
5.67849
4.8614
6.67977
6.61024
6.51761
6.39306
6.2258
5.9793
5.59624
4.94028
6.62391
6.55906
6.47125
6.34928
6.17599
5.93517
5.58781
5.06675
6.56139
6.4944
6.41039
6.29929
6.139
5.9182
5.62001
5.21491
6.50592
6.42893
6.34121
6.2368
6.09553
5.90582
5.66332
5.34519
6.46934
6.37933
6.2804
6.17296
6.04359
5.88195
5.68446
5.4341
6.45017
6.35443
6.24585
6.12984
6.00142
5.85234
5.68468
5.48277
6.43062
6.34414
6.23955
6.11973
5.98707
5.83775
5.68174
5.50535
6.39692
6.32757
6.23921
6.12966
6.00082
5.85041
5.69223
5.52233
6.34711
6.29206
6.22562
6.13808
6.02812
5.8882
5.73045
5.5561
6.2907
6.24345
6.19346
6.12879
6.04343
5.92647
5.78465
5.61718
6.24283
6.19646
6.15563
6.10416
6.03457
5.93868
5.81873
5.67601
6.21972
6.16877
6.12419
6.07224
6.00741
5.92192
5.82143
5.70283
6.23451
6.1707
6.1078
6.039
5.96562
5.88295
5.79395
5.69614
6.27245
6.199
6.11507
6.0202
5.92415
5.8323
5.74688
5.66494
6.30605
6.23525
6.13656
6.02209
5.90456
5.79408
5.70043
5.6224
6.31186
6.25212
6.15659
6.03783
5.91069
5.78639
5.67864
5.59351
6.28616
6.23358
6.15436
6.0518
5.93218
5.80846
5.69369
5.59425
6.23356
6.1837
6.1201
6.04076
5.94755
5.8424
5.73719
5.6377
6.17747
6.11959
6.06175
6.00609
5.94916
5.8786
5.79081
5.69326
6.12768
6.06128
6.00469
5.95835
5.92215
5.88315
5.82536
5.74061
6.08518
6.01875
5.98557
5.964
5.93853
5.90927
5.86324
5.78566
1.91202
0.969061
0.700116
0.727509
0.830149
1.09423
1.52231
1.94565
2.22142
2.40056
2.67856
2.86189
3.24323
3.66971
3.76003
3.79413
3.86447
3.94781
4.011
4.00564
3.96223
3.8999
3.84948
3.81546
3.77256
3.71237
3.64465
3.59
3.54922
3.52706
3.51407
3.49882
3.4812
3.46227
3.43961
3.40947
3.36866
3.3171
3.24325
3.13533
3.02795
2.94517
2.89109
2.85632
2.8288
2.81156
2.80228
2.78888
2.76551
2.73067
2.69585
2.65821
2.63397
2.62523
2.71132
2.94547
3.25904
3.45246
3.46544
3.44846
3.44681
3.46217
3.48543
3.49906
3.49042
3.47101
3.43286
3.35792
3.26578
3.20937
3.18116
3.16303
3.15766
3.17069
3.18837
3.19681
3.19129
3.17554
3.15239
3.11099
3.04031
2.97147
2.93908
2.91923
2.90366
2.89411
2.89201
2.86955
2.86395
2.00099
1.65509
1.48237
1.39476
1.40241
1.49485
1.69327
1.98952
2.29475
2.59621
2.85409
3.2097
3.65009
3.79477
3.86726
3.92421
3.97205
4.01166
4.02245
4.00583
3.97454
3.94065
3.91372
3.87526
3.82417
3.76343
3.69158
3.62268
3.57052
3.53022
3.49745
3.46997
3.44136
3.40645
3.36482
3.32054
3.27515
3.2192
3.1625
3.10505
3.03525
2.9586
2.8969
2.85932
2.83448
2.81814
2.79564
2.76121
2.72087
2.67733
2.65172
2.65811
2.71566
2.8571
3.04021
3.25507
3.44249
3.48269
3.47626
3.47535
3.47591
3.47573
3.47321
3.46137
3.43891
3.3989
3.34413
3.30338
3.26604
3.22883
3.2017
3.1879
3.18916
3.1974
3.19755
3.1848
3.16493
3.13661
3.09517
3.04013
2.99645
2.96432
2.93941
2.92172
2.90939
2.90263
2.87652
3.66439
2.86281
2.39559
2.13932
1.94331
1.78547
1.72122
1.78971
1.95237
2.24625
2.54221
2.88513
3.30132
3.73852
3.96554
4.11701
4.13848
4.12738
4.09259
4.07664
4.07234
4.07049
4.05503
4.02289
3.98208
3.94294
3.90983
3.87389
3.81703
3.72929
3.63264
3.5606
3.50737
3.45946
3.40869
3.35533
3.30198
3.24976
3.21107
3.18565
3.1553
3.11706
3.06816
3.00894
2.94773
2.89614
2.85384
2.81125
2.76832
2.72788
2.68991
2.67958
2.74096
2.86702
3.00609
3.09734
3.22797
3.43563
3.55578
3.58779
3.56532
3.52316
3.49191
3.47458
3.45576
3.42415
3.3812
3.35085
3.33554
3.31645
3.29533
3.27611
3.25904
3.24449
3.22947
3.21405
3.19602
3.17012
3.13433
3.08769
3.0489
3.02371
2.99989
2.97654
2.95792
2.94293
2.93056
2.90181
4.19059
3.58355
3.06035
2.74682
2.55601
2.3848
2.20479
2.11059
2.11379
2.19732
2.34041
2.59996
2.97113
3.47378
3.95343
4.3298
4.36608
4.31633
4.23545
4.20941
4.20104
4.1975
4.17541
4.14221
4.10624
4.07429
4.04791
4.00847
3.95052
3.86107
3.76034
3.67161
3.59072
3.51562
3.44715
3.38437
3.3312
3.29096
3.26648
3.24888
3.22194
3.19198
3.15991
3.12003
3.0657
2.9952
2.91117
2.841
2.78853
2.74189
2.73204
2.78457
2.91418
3.04209
3.13243
3.16782
3.2207
3.3732
3.56609
3.66571
3.65366
3.59134
3.52121
3.48328
3.45835
3.44069
3.42111
3.40544
3.39462
3.38588
3.37727
3.36561
3.34608
3.31638
3.28035
3.24868
3.21871
3.18426
3.14657
3.11778
3.0995
3.082
3.06275
3.04032
3.01399
2.98578
2.96712
2.93499
4.52494
4.07117
3.63304
3.26314
3.02124
2.85599
2.67534
2.50226
2.39069
2.34303
2.38217
2.44156
2.57484
2.91947
3.58059
4.22442
4.46581
4.4571
4.3747
4.32953
4.30652
4.27598
4.2383
4.20013
4.16331
4.12412
4.07569
4.01938
3.95424
3.88311
3.81352
3.74186
3.65935
3.56593
3.48156
3.423
3.3838
3.35649
3.34351
3.33195
3.31074
3.28368
3.25147
3.21069
3.15511
3.07528
2.97266
2.86819
2.7967
2.77611
2.81872
2.95173
3.09304
3.184
3.23944
3.2444
3.24386
3.31544
3.47574
3.62478
3.67949
3.63568
3.55377
3.49617
3.4663
3.45665
3.46153
3.46516
3.46973
3.47551
3.47281
3.45734
3.42996
3.38699
3.33211
3.27768
3.22977
3.19205
3.16739
3.15151
3.14438
3.14019
3.12784
3.10958
3.08412
3.05049
3.01868
2.96892
4.79893
4.39806
4.0427
3.71395
3.41763
3.21013
3.06259
2.90507
2.75847
2.62669
2.56626
2.53827
2.56406
2.61389
2.9216
3.67083
4.33828
4.50246
4.47671
4.41153
4.33453
4.2641
4.20361
4.15672
4.11701
4.08755
4.05314
4.0031
3.94845
3.9014
3.85268
3.79668
3.72964
3.6478
3.5664
3.50684
3.46584
3.43769
3.41469
3.3858
3.35207
3.31329
3.2686
3.21549
3.15144
3.07481
2.98667
2.88903
2.83712
2.86594
2.99581
3.14871
3.25538
3.30494
3.3367
3.32035
3.29217
3.29684
3.35998
3.48269
3.60696
3.63418
3.58516
3.5319
3.50458
3.49794
3.51599
3.53889
3.55437
3.55352
3.53818
3.50912
3.45922
3.40231
3.3471
3.29006
3.24282
3.21383
3.19541
3.1831
3.18451
3.19424
3.19088
3.17691
3.15378
3.11344
3.05163
2.97608
5.01222
4.67524
4.34718
4.05309
3.78161
3.53197
3.33948
3.20407
3.07947
2.93109
2.79331
2.68642
2.65387
2.66913
2.6937
2.94891
3.68737
4.35669
4.509
4.47019
4.38056
4.27352
4.18784
4.12791
4.07303
4.02478
3.98686
3.96761
3.96523
3.94156
3.89609
3.84386
3.78571
3.72168
3.6529
3.58286
3.51673
3.45143
3.38987
3.34194
3.30177
3.26221
3.21845
3.16806
3.11065
3.04656
2.98305
2.93107
2.95587
3.07866
3.24527
3.34048
3.38775
3.40047
3.40104
3.36893
3.3244
3.28605
3.26956
3.30388
3.42052
3.55884
3.59354
3.57597
3.56512
3.56844
3.58613
3.59469
3.58441
3.56788
3.54571
3.511
3.45689
3.39199
3.33713
3.29448
3.26148
3.23964
3.22406
3.21925
3.23227
3.24446
3.23629
3.21688
3.18615
3.13282
3.05162
2.9714
5.16474
4.88283
4.60476
4.32649
4.07531
3.84854
3.62674
3.43453
3.31196
3.20214
3.05708
2.90903
2.8268
2.78414
2.74043
2.75325
2.97648
3.73403
4.35628
4.46133
4.40285
4.31707
4.22055
4.12557
4.05699
3.99979
3.95461
3.92135
3.90269
3.89159
3.87128
3.83527
3.78835
3.73467
3.66821
3.59167
3.51029
3.42938
3.35054
3.28246
3.23095
3.18781
3.14103
3.09244
3.04727
3.00123
3.00011
3.05359
3.19296
3.37203
3.47112
3.47487
3.45823
3.42735
3.3917
3.35226
3.30675
3.25741
3.20782
3.19779
3.24555
3.40418
3.5369
3.59673
3.62119
3.6314
3.61973
3.59586
3.57187
3.55196
3.52631
3.4823
3.41981
3.37048
3.33552
3.30918
3.28975
3.27422
3.26593
3.26884
3.27496
3.26623
3.24628
3.22044
3.18375
3.12649
3.04326
2.97844
5.26153
5.02838
4.79108
4.55411
4.32343
4.11017
3.91007
3.7064
3.51874
3.39049
3.28381
3.16089
3.01424
2.90447
2.82532
2.76685
2.79958
3.04498
3.77139
4.3127
4.37728
4.32539
4.24688
4.15851
4.06488
3.99132
3.93721
3.89437
3.85923
3.83028
3.80705
3.77987
3.74282
3.70043
3.647
3.57396
3.48582
3.39413
3.31911
3.25365
3.19061
3.13488
3.08307
3.04021
3.01105
3.00922
3.08491
3.26862
3.47775
3.57781
3.58405
3.54895
3.48704
3.42597
3.36747
3.31699
3.27369
3.2303
3.18664
3.17019
3.18501
3.2729
3.43128
3.56485
3.632
3.63395
3.62015
3.58687
3.54952
3.51569
3.47704
3.42989
3.3927
3.36596
3.34745
3.33716
3.3305
3.32468
3.31705
3.30277
3.2816
3.25352
3.2248
3.19016
3.14253
3.08929
3.03651
3.01135
5.31834
5.1236
4.92328
4.71469
4.51756
4.32807
4.14325
3.96159
3.76918
3.58681
3.45594
3.35327
3.2307
3.08037
2.96353
2.8729
2.81096
2.84922
3.09804
3.77846
4.25857
4.30651
4.24533
4.16899
4.0904
4.01052
3.93222
3.87024
3.81867
3.77255
3.73242
3.70202
3.67304
3.63436
3.59136
3.53506
3.45874
3.38297
3.31318
3.24462
3.17444
3.10471
3.05316
3.02811
3.03266
3.08477
3.25827
3.49573
3.62176
3.63016
3.61012
3.56013
3.49266
3.40865
3.33359
3.29257
3.26195
3.22642
3.19361
3.17426
3.17609
3.22239
3.32943
3.47232
3.58118
3.60916
3.60249
3.56452
3.51225
3.46383
3.42783
3.4063
3.38742
3.37511
3.3747
3.37725
3.37095
3.35709
3.33676
3.30524
3.26778
3.2293
3.18697
3.13787
3.08915
3.05621
3.03715
3.05023
5.35102
5.17879
5.00621
4.831
4.65831
4.49525
4.32805
4.16178
3.99682
3.81892
3.64306
3.50688
3.39623
3.27328
3.14044
3.01025
2.89672
2.83201
2.87168
3.1315
3.78043
4.17974
4.22135
4.16838
4.10017
4.03168
3.94994
3.85638
3.77771
3.71863
3.67168
3.63246
3.60019
3.56468
3.52522
3.47972
3.42249
3.3681
3.31922
3.26136
3.18928
3.10687
3.06051
3.05972
3.08748
3.24105
3.46643
3.62147
3.65339
3.63391
3.59315
3.53988
3.4732
3.39801
3.33431
3.294
3.26575
3.2408
3.22505
3.21508
3.20899
3.21879
3.25437
3.33479
3.44338
3.5189
3.55045
3.52751
3.46877
3.42802
3.41033
3.39979
3.39661
3.40437
3.41583
3.40757
3.38946
3.36368
3.32662
3.28168
3.23101
3.17938
3.13006
3.08892
3.06133
3.04585
3.04372
3.10614
5.38166
5.21512
5.05693
4.90117
4.75252
4.61103
4.46868
4.31871
4.16654
4.01249
3.84795
3.6811
3.54006
3.42194
3.30107
3.17486
3.04258
2.91547
2.8516
2.88973
3.15451
3.74248
4.08747
4.14376
4.10213
4.03265
3.95234
3.85563
3.76144
3.69263
3.63783
3.58929
3.5455
3.50591
3.4683
3.43455
3.40788
3.38149
3.33884
3.27667
3.20736
3.12452
3.07584
3.09044
3.21881
3.45765
3.60946
3.65009
3.6279
3.59083
3.54507
3.50603
3.46459
3.41527
3.36302
3.32076
3.29645
3.28221
3.2794
3.26701
3.23661
3.20735
3.19293
3.19865
3.24216
3.33009
3.42822
3.45769
3.43022
3.41198
3.40225
3.40528
3.42514
3.44351
3.43283
3.41201
3.38708
3.35156
3.2987
3.23705
3.18452
3.14401
3.10764
3.07364
3.05611
3.05174
3.08174
3.19065
5.43604
5.2584
5.09834
4.95018
4.81059
4.68403
4.55538
4.41629
4.28619
4.15425
4.00697
3.85279
3.6982
3.56134
3.43764
3.31745
3.19525
3.06501
2.92991
2.86928
2.89637
3.15003
3.67067
4.00343
4.06178
4.01632
3.93816
3.84421
3.75402
3.68322
3.6246
3.56611
3.50742
3.46174
3.42584
3.39434
3.36889
3.34425
3.30712
3.25704
3.20047
3.13102
3.11708
3.21802
3.44634
3.62492
3.65467
3.62003
3.58909
3.56173
3.52959
3.49695
3.46235
3.43852
3.41605
3.38091
3.34553
3.32184
3.29632
3.26613
3.23174
3.19325
3.15232
3.1116
3.10674
3.14963
3.25984
3.36611
3.39338
3.3998
3.41061
3.43601
3.44668
3.43305
3.41554
3.39696
3.37047
3.32151
3.25114
3.19778
3.16322
3.1313
3.09939
3.07958
3.07703
3.09696
3.14966
3.2696
5.51543
5.3398
5.16108
5.00001
4.85988
4.73291
4.61395
4.48435
4.34935
4.23111
4.11823
3.98359
3.84
3.69911
3.56844
3.44249
3.32129
3.20256
3.07493
2.94243
2.87099
2.88848
3.12712
3.60622
3.92916
3.95757
3.9012
3.81918
3.74686
3.68567
3.62331
3.55263
3.48135
3.42756
3.39033
3.3572
3.32853
3.29228
3.24496
3.20131
3.17115
3.16291
3.25134
3.45969
3.64535
3.67394
3.63702
3.60599
3.57793
3.55296
3.53246
3.51415
3.49892
3.48515
3.46446
3.42539
3.37053
3.3233
3.28672
3.25179
3.21368
3.1708
3.12544
3.08374
3.06935
3.07761
3.12917
3.25666
3.34917
3.40038
3.43942
3.45494
3.44011
3.41428
3.38987
3.36787
3.33346
3.27469
3.21975
3.18367
3.15151
3.12628
3.11018
3.10995
3.13103
3.16547
3.24049
3.35257
5.57093
5.42486
5.26384
5.08707
4.9196
4.78565
4.65969
4.53148
4.39966
4.27357
4.1659
4.06713
3.9468
3.8121
3.68143
3.55738
3.43567
3.31575
3.19431
3.0639
2.93778
2.85595
2.86837
3.09235
3.5459
3.81142
3.8472
3.79989
3.74008
3.68111
3.61739
3.54083
3.45572
3.39293
3.35158
3.31578
3.27278
3.22217
3.17365
3.15802
3.1766
3.27168
3.50815
3.69323
3.71938
3.67221
3.63101
3.60562
3.58698
3.57492
3.55774
3.54192
3.52508
3.49908
3.46559
3.42269
3.3699
3.31802
3.27241
3.2311
3.19176
3.15301
3.11254
3.07675
3.05678
3.05591
3.08427
3.16546
3.27787
3.36666
3.43117
3.43773
3.42303
3.39153
3.35529
3.3192
3.27447
3.23174
3.20364
3.1759
3.15113
3.13859
3.14279
3.16023
3.19337
3.25604
3.36748
3.41729
5.58924
5.4711
5.34243
5.20262
5.03518
4.86062
4.7127
4.5749
4.43911
4.31101
4.19529
4.09464
4.00003
3.89003
3.76873
3.6493
3.53415
3.4188
3.29737
3.16438
3.02734
2.90238
2.83375
2.84804
3.05734
3.45578
3.69477
3.75723
3.72549
3.67214
3.60597
3.52338
3.42718
3.36129
3.31742
3.26916
3.21116
3.15421
3.12513
3.14328
3.25335
3.50084
3.73567
3.78509
3.75495
3.6866
3.64848
3.62805
3.6166
3.60164
3.57601
3.54661
3.5149
3.48116
3.44434
3.40394
3.36022
3.31498
3.27059
3.22583
3.18331
3.14568
3.11227
3.0878
3.0688
3.06638
3.0741
3.10115
3.17832
3.28225
3.36859
3.399
3.39175
3.36002
3.30972
3.25797
3.22372
3.20359
3.18442
3.16892
3.16619
3.17455
3.18702
3.21124
3.27815
3.38064
3.46285
3.44415
5.5793
5.48433
5.38198
5.27366
5.13571
4.97138
4.79228
4.62653
4.48549
4.35086
4.22659
4.11761
4.02374
3.92862
3.82396
3.71484
3.60595
3.49711
3.38207
3.25402
3.11227
2.97358
2.86248
2.8119
2.82323
3.01266
3.36894
3.59808
3.66241
3.63265
3.58172
3.50339
3.40653
3.33505
3.2784
3.21486
3.15362
3.11534
3.12366
3.21765
3.47095
3.73651
3.82969
3.81852
3.77
3.7122
3.67937
3.65736
3.63279
3.60112
3.56953
3.53544
3.49759
3.45754
3.41689
3.37943
3.34513
3.31124
3.27281
3.22862
3.18553
3.15363
3.13378
3.12478
3.11278
3.08742
3.06043
3.04566
3.06575
3.13067
3.2193
3.30406
3.33263
3.31564
3.26759
3.22993
3.20763
3.18906
3.17977
3.19225
3.20388
3.20616
3.22427
3.28605
3.38117
3.45601
3.47446
3.42977
5.55172
5.47718
5.39758
5.30706
5.19295
5.04969
4.88707
4.71024
4.53853
4.39735
4.26753
4.14746
4.0443
3.95277
3.85718
3.75743
3.65517
3.54922
3.43785
3.31716
3.18842
3.05817
2.92991
2.83192
2.78046
2.7861
2.95909
3.27934
3.51091
3.56008
3.52751
3.46451
3.38114
3.30768
3.23242
3.16572
3.1243
3.1215
3.19323
3.4411
3.7139
3.84657
3.84992
3.82078
3.77728
3.73651
3.70246
3.6677
3.62804
3.58849
3.55198
3.51612
3.47935
3.44146
3.40371
3.3688
3.33724
3.30731
3.27759
3.24608
3.2163
3.18768
3.15678
3.12778
3.09923
3.06845
3.03203
3.00223
2.98875
3.0018
3.04938
3.14138
3.2318
3.25583
3.24103
3.22063
3.20758
3.20112
3.1962
3.19531
3.20142
3.22266
3.2763
3.37176
3.4495
3.46559
3.44488
3.41247
5.52377
5.46082
5.39481
5.31438
5.21028
5.08473
4.94171
4.78648
4.62256
4.4568
4.31447
4.1923
4.07855
3.97808
3.88466
3.7864
3.6847
3.58059
3.47223
3.35839
3.24159
3.12717
3.01101
2.89251
2.79781
2.73278
2.7366
2.89279
3.18895
3.42121
3.44761
3.40503
3.33385
3.26522
3.18588
3.14361
3.13041
3.1852
3.41973
3.71584
3.83506
3.8631
3.84686
3.8172
3.78299
3.75047
3.71422
3.66673
3.61312
3.5707
3.53856
3.50712
3.47335
3.43749
3.40206
3.37094
3.34428
3.31837
3.29379
3.27275
3.24962
3.21955
3.17653
3.12397
3.07588
3.03592
3.00088
2.97314
2.95272
2.94622
2.95646
3.00295
3.10554
3.18056
3.22161
3.22869
3.24148
3.23313
3.21538
3.20356
3.21576
3.2593
3.34604
3.43892
3.45798
3.4328
3.41198
3.39358
5.51449
5.44777
5.37966
5.29853
5.20004
5.08809
4.96191
4.82539
4.67994
4.52882
4.37785
4.24385
4.12392
4.01177
3.91072
3.81218
3.70923
3.60117
3.48891
3.37807
3.27342
3.17333
3.0725
2.96061
2.84343
2.74519
2.67939
2.68447
2.81953
3.10328
3.30704
3.31362
3.27687
3.21073
3.15438
3.14162
3.18949
3.40927
3.72054
3.86988
3.86363
3.85235
3.8342
3.81245
3.78715
3.75686
3.71666
3.66188
3.60497
3.5623
3.53171
3.50393
3.47513
3.44711
3.42112
3.39396
3.36004
3.33302
3.31157
3.28796
3.2608
3.22538
3.17574
3.1119
3.05508
3.01298
2.98121
2.95533
2.93493
2.92056
2.92257
2.9362
2.99734
3.09464
3.17226
3.23378
3.25981
3.24678
3.22589
3.2247
3.25281
3.32495
3.43242
3.45733
3.43964
3.41604
3.39712
3.38456
5.54264
5.45209
5.36417
5.27036
5.17156
5.06892
4.96047
4.83906
4.70488
4.56661
4.43184
4.30152
4.17628
4.05378
3.93653
3.82714
3.7195
3.61181
3.50312
3.39511
3.29354
3.20059
3.11014
3.01224
2.89925
2.78233
2.68023
2.62393
2.63041
2.7426
3.00547
3.15055
3.18895
3.14995
3.1485
3.19528
3.39214
3.73888
3.88569
3.88028
3.85662
3.83586
3.81789
3.79785
3.77545
3.74764
3.70951
3.65833
3.605
3.56397
3.53293
3.50886
3.48938
3.46511
3.43491
3.39837
3.36166
3.3306
3.30392
3.27912
3.25231
3.21832
3.16939
3.10786
3.053
3.01257
2.98065
2.95201
2.92797
2.91113
2.90431
2.90774
2.93
2.99347
3.08636
3.17509
3.23071
3.23478
3.24491
3.27943
3.35957
3.44884
3.47692
3.46684
3.44447
3.41795
3.39665
3.38979
5.59078
5.48111
5.36488
5.2524
5.1468
5.04297
4.93457
4.82321
4.7185
4.60203
4.47847
4.35272
4.22483
4.09383
3.96231
3.83937
3.72511
3.61572
3.51001
3.4078
3.30826
3.21269
3.12314
3.03618
2.94192
2.83273
2.71865
2.62577
2.56286
2.55043
2.64994
2.86616
3.02818
3.08511
3.18035
3.38619
3.70298
3.91498
3.95225
3.9024
3.85845
3.83319
3.80742
3.78105
3.75738
3.73167
3.69773
3.65777
3.62264
3.58876
3.55148
3.51376
3.47884
3.44735
3.41713
3.38752
3.3577
3.32743
3.2961
3.26522
3.23496
3.19932
3.15536
3.10965
3.06779
3.03292
3.00154
2.97274
2.94599
2.92176
2.89936
2.87949
2.87364
2.89316
2.95541
3.05237
3.14105
3.20132
3.2635
3.35089
3.46525
3.53353
3.53995
3.51664
3.48303
3.45456
3.43171
3.41307
5.63271
5.51037
5.38119
5.25318
5.13162
5.01665
4.90594
4.80589
4.71982
4.62304
4.50312
4.38084
4.25696
4.12787
3.98982
3.85308
3.72705
3.61411
3.50966
3.41084
3.31544
3.2234
3.1348
3.04882
2.96215
2.86784
2.76082
2.64645
2.54978
2.46897
2.46088
2.56123
2.78655
3.0217
3.32199
3.67599
3.91811
3.95577
3.93654
3.89712
3.86267
3.83004
3.79527
3.76372
3.73401
3.71026
3.6901
3.66741
3.64825
3.61994
3.57752
3.51697
3.46165
3.42474
3.39682
3.37367
3.34887
3.32131
3.29085
3.25573
3.21673
3.17623
3.1373
3.10867
3.08767
3.06652
3.041
3.01021
2.97672
2.94249
2.9071
2.86971
2.84087
2.83017
2.84572
2.89954
3.00065
3.13656
3.27606
3.40138
3.50504
3.57089
3.58026
3.55812
3.5304
3.50944
3.49073
3.44054
5.67258
5.53555
5.39089
5.24448
5.10602
4.98621
4.88962
4.80736
4.73075
4.6439
4.52803
4.40759
4.28453
4.15284
4.00782
3.85634
3.72296
3.60942
3.50647
3.41001
3.31821
3.22972
3.14275
3.05744
2.97383
2.88987
2.79419
2.68062
2.55989
2.44243
2.38661
2.40675
2.55494
2.96753
3.47181
3.87629
4.09683
4.03617
3.95292
3.90215
3.8651
3.82512
3.78171
3.74734
3.71968
3.6972
3.68962
3.68933
3.66735
3.63449
3.58323
3.5028
3.43871
3.40842
3.38355
3.362
3.34203
3.31644
3.28799
3.24882
3.19488
3.15338
3.13227
3.12166
3.114
3.09526
3.06893
3.02879
2.98026
2.93724
2.89864
2.86004
2.82496
2.79543
2.77838
2.79191
2.86897
3.04495
3.26341
3.45164
3.57031
3.62675
3.63829
3.61713
3.59009
3.5607
3.52929
3.45811
)
;

boundaryField
{
    inlet
    {
        type            calculated;
        value           uniform 1.40001;
    }
    outlet
    {
        type            calculated;
        value           nonuniform List<scalar> 
24
(
2.86896
2.876
2.90119
2.93424
2.96954
2.97772
2.97282
2.97931
3.0116
3.04892
3.10213
3.18686
3.2677
3.35258
3.41988
3.44902
3.43347
3.41233
3.3913
3.3814
3.38526
3.4117
3.44204
3.4608
)
;
    }
    bottom
    {
        type            calculated;
        value           nonuniform List<scalar> 
24
(
70.1482
11.823
7.39347
7.40808
7.41593
7.42516
7.43531
7.44706
7.46023
7.47478
7.49035
7.50675
7.52337
7.54004
7.55653
7.57368
7.59102
7.60818
7.62019
7.62503
7.61384
7.58938
7.56645
7.5611
)
;
    }
    top
    {
        type            calculated;
        value           nonuniform List<scalar> 
120
(
66.5126
11.1006
6.6264
6.63012
6.62092
6.63524
6.66337
6.68988
6.70248
6.69438
6.65658
6.59965
6.53515
6.48608
6.45454
6.45072
6.46327
6.48713
6.50837
6.50616
6.46402
6.38253
6.28311
6.17955
6.08518
6.01875
5.98557
5.964
5.93853
5.90927
5.86324
5.78566
5.67258
5.53555
5.39089
5.24448
5.10602
4.98621
4.88962
4.80736
4.73075
4.6439
4.52803
4.40759
4.28453
4.15284
4.00782
3.85634
3.72296
3.60942
3.50647
3.41001
3.31821
3.22972
3.14275
3.05744
2.97383
2.88987
2.79419
2.68062
2.55989
2.44243
2.38661
2.40675
2.55494
2.96753
3.47181
3.87629
4.09683
4.03617
3.95292
3.90215
3.8651
3.82512
3.78171
3.74734
3.71968
3.6972
3.68962
3.68933
3.66735
3.63449
3.58323
3.5028
3.43871
3.40842
3.38355
3.362
3.34203
3.31644
3.28799
3.24882
3.19488
3.15338
3.13227
3.12166
3.114
3.09526
3.06893
3.02879
2.98026
2.93724
2.89864
2.86004
2.82496
2.79543
2.77838
2.79191
2.86897
3.04495
3.26341
3.45164
3.57031
3.62675
3.63829
3.61713
3.59009
3.5607
3.52929
3.45811
)
;
    }
    obstacle
    {
        type            calculated;
        value           nonuniform List<scalar> 
112
(
7.5611
7.54855
7.53241
7.50348
7.47003
7.40595
7.32188
7.31457
5.81745
6.21294
6.34642
6.3123
6.19418
6.08182
6.00253
5.97308
5.97308
6.00072
6.06708
6.13455
6.19878
6.25271
6.23663
6.19512
1.91202
0.969061
0.700116
0.727509
0.830149
1.09423
1.52231
1.94565
2.22142
2.40056
2.67856
2.86189
3.24323
3.66971
3.76003
3.79413
3.86447
3.94781
4.011
4.00564
3.96223
3.8999
3.84948
3.81546
3.77256
3.71237
3.64465
3.59
3.54922
3.52706
3.51407
3.49882
3.4812
3.46227
3.43961
3.40947
3.36866
3.3171
3.24325
3.13533
3.02795
2.94517
2.89109
2.85632
2.8288
2.81156
2.80228
2.78888
2.76551
2.73067
2.69585
2.65821
2.63397
2.62523
2.71132
2.94547
3.25904
3.45246
3.46544
3.44846
3.44681
3.46217
3.48543
3.49906
3.49042
3.47101
3.43286
3.35792
3.26578
3.20937
3.18116
3.16303
3.15766
3.17069
3.18837
3.19681
3.19129
3.17554
3.15239
3.11099
3.04031
2.97147
2.93908
2.91923
2.90366
2.89411
2.89201
2.86955
)
;
    }
    defaultFaces
    {
        type            empty;
    }
}


// ************************************************************************* //
