/*--------------------------------*- C++ -*----------------------------------*\
  =========                 |
  \\      /  F ield         | OpenFOAM: The Open Source CFD Toolbox
   \\    /   O peration     | Website:  https://openfoam.org
    \\  /    A nd           | Version:  7
     \\/     M anipulation  |
\*---------------------------------------------------------------------------*/
FoamFile
{
    version     2.0;
    format      ascii;
    class       volScalarField;
    location    "0.6";
    object      p;
}
// * * * * * * * * * * * * * * * * * * * * * * * * * * * * * * * * * * * * * //

dimensions      [1 -1 -2 0 0 0 0];

internalField   nonuniform List<scalar> 
4128
(
1
1
1
1
1
1
1
1
1
1
1
1
1
1
1
1
1
1
1
1
1
1
1
1
1
1
1
1
1
1
1
1
1
1
1
1
1
1
1
1
1
1
1
1
1
1
1
1
1
1
1
1
1
1
1
1
1
1
1
1
1
1
1
1
1
1
1
1
1
1
1
1
1
1
5.03132
10.5401
10.8573
10.9314
11.0304
11.1314
11.249
11.375
11.4874
11.5808
11.6526
11.7019
11.745
11.7936
11.8433
11.8964
11.9533
12.0063
12.045
12.0799
12.1089
12.1282
1
1
1
1
1
1
1
1
1
1
1
1
1
1
1
1
1
1
1
1
1
1
1
1
1
1
1
1
1
1
1
1
1
1
1
1
1
1
1
1
1
1
1
1
1
1
1
1
1
1
1
1
1
1
1
1
1
1
1
1
1
1
1
1
1
1
1
1
1
1
1
1
1
1
4.96254
10.4968
10.8418
10.9189
11.0206
11.1237
11.2428
11.3691
11.4811
11.5747
11.6468
11.6981
11.7437
11.7939
11.8427
11.8918
11.9428
11.9902
12.0276
12.0619
12.089
12.1073
1
1
1
1
1
1
1
1
1
1
1
1
1
1
1
1
1
1
1
1
1
1
1
1
1
1
1
1
1
1
1
1
1
1
1
1
1
1
1
1
1
1
1
1
1
1
1
1
1
1
1
1
1
1
1
1
1
1
1
1
1
1
1
1
1
1
1
1
1
1
1
1
1
1
4.80322
10.4358
10.8157
10.8965
11.0055
11.112
11.2322
11.3576
11.4681
11.5616
11.634
11.6877
11.7375
11.7923
11.842
11.8874
11.9314
11.9708
12.0052
12.0361
12.0583
12.0731
1
1
1
1
1
1
1
1
1
1
1
1
1
1
1
1
1
1
1
1
1
1
1
1
1
1
1
1
1
1
1
1
1
1
1
1
1
1
1
1
1
1
1
1
1
1
1
1
1
1
1
1
1
1
1
1
1
1
1
1
1
1
1
1
1
1
1
1
1
1
1
1
1
1
4.56134
10.3458
10.7858
10.8704
10.9855
11.095
11.216
11.3391
11.4464
11.5386
11.6115
11.6672
11.7208
11.7797
11.8306
11.8737
11.9122
11.9445
11.9753
12.0012
12.0171
12.0284
1
1
1
1
1
1
1
1
1
1
1
1
1
1
1
1
1
1
1
1
1
1
1
1
1
1
1
1
1
1
1
1
1
1
1
1
1
1
1
1
1
1
1
1
1
1
1
1
1
1
1
1
1
1
1
1
1
1
1
1
1
1
1
1
1
1
1
1
1
1
1
1
1
1
4.2418
10.219
10.7548
10.8423
10.9627
11.0746
11.195
11.3119
11.4136
11.5031
11.5763
11.6335
11.6904
11.7527
11.8049
11.8482
11.8841
11.9114
11.9388
11.9597
11.9698
11.9784
1
1
1
1
1
1
1
1
1
1
1
1
1
1
1
1
1
1
1
1
1
1
1
1
1
1
1
1
1
1
1
1
1
1
1
1
1
1
1
1
1
1
1
1
1
1
1
1
1
1
1
1
1
1
1
1
1
1
1
1
1
1
1
1
1
1
1
1
1
1
1
1
1
1
3.84693
10.047
10.725
10.8127
10.9364
11.0489
11.1661
11.2728
11.3686
11.4543
11.529
11.5875
11.6465
11.7103
11.7628
11.8071
11.8426
11.8675
11.8923
11.9099
11.9168
11.9244
1
1
1
1
1
1
1
1
1
1
1
1
1
1
1
1
1
1
1
1
1
1
1
1
1
1
1
1
1
1
1
1
1
1
1
1
1
1
1
1
1
1
1
1
1
1
1
1
1
1
1
1
1
1
1
1
1
1
1
1
1
1
1
1
1
1
1
1
1
1
1
1
1
1
3.39516
9.80988
10.6953
10.7783
10.9014
11.0116
11.1249
11.224
11.3138
11.3981
11.4737
11.5303
11.5885
11.6519
11.7036
11.7485
11.7839
11.8079
11.832
11.8497
11.8578
11.8666
1
1
1
1
1
1
1
1
1
1
1
1
1
1
1
1
1
1
1
1
1
1
1
1
1
1
1
1
1
1
1
1
1
1
1
1
1
1
1
1
1
1
1
1
1
1
1
1
1
1
1
1
1
1
1
1
1
1
1
1
1
1
1
1
1
1
1
1
1
1
1
1
1
1
2.90921
9.48373
10.6661
10.7387
10.8582
10.965
11.0731
11.1695
11.2569
11.34
11.4147
11.4666
11.5212
11.5824
11.6326
11.6764
11.7101
11.7319
11.755
11.7738
11.7854
11.7962
1
1
1
1
1
1
1
1
1
1
1
1
1
1
1
1
1
1
1
1
1
1
1
1
1
1
1
1
1
1
1
1
1
1
1
1
1
1
1
1
1
1
1
1
1
1
1
1
1
1
1
1
1
1
1
1
1
1
1
1
1
1
1
1
1
1
1
1
1
1
1
1
1
1
2.37226
9.03091
10.641
10.7002
10.8142
10.9157
11.0219
11.118
11.2049
11.2867
11.3604
11.4038
11.4502
11.5041
11.5489
11.5885
11.6192
11.6381
11.66
11.6805
11.6964
11.7102
1
1
1
1
1
1
1
1
1
1
1
1
1
1
1
1
1
1
1
1
1
1
1
1
1
1
1
1
1
1
1
1
1
1
1
1
1
1
1
1
1
1
1
1
1
1
1
1
1
1
1
1
1
1
1
1
1
1
1
1
1
1
1
1
1
1
1
1
1
1
1
1
1
1
1.82795
8.43132
10.6286
10.6488
10.7558
10.8569
10.9612
11.057
11.1471
11.2273
11.2961
11.3355
11.3751
11.4227
11.4619
11.4958
11.5209
11.5333
11.5495
11.5655
11.5798
11.5927
1
1
1
1
1
1
1
1
1
1
1
1
1
1
1
1
1
1
1
1
1
1
1
1
1
1
1
1
1
1
1
1
1
1
1
1
1
1
1
1
1
1
1
1
1
1
1
1
1
1
1
1
1
1
1
1
1
1
1
1
1
1
1
1
1
1
1
1
1
1
1
1
1
1
1.34724
7.67975
10.6423
10.6229
10.7307
10.828
10.9266
11.0169
11.1016
11.1747
11.232
11.2616
11.2908
11.3267
11.355
11.3805
11.3985
11.4028
11.4132
11.4255
11.4367
11.4499
1
1
1
1
1
1
1
1
1
1
1
1
1
1
1
1
1
1
1
1
1
1
1
1
1
1
1
1
1
1
1
1
1
1
1
1
1
1
1
1
1
1
1
1
1
1
1
1
1
1
1
1
1
1
1
1
1
1
1
1
1
1
1
1
1
1
1
1
1
1
1
1
1
1
1.02126
6.76041
10.4841
10.5145
10.6348
10.7378
10.8369
10.9283
11.0117
11.0826
11.1342
11.1622
11.1889
11.217
11.2366
11.2541
11.2661
11.2659
11.2687
11.2653
11.2548
11.2473
1
1
1
1
1
1
1
1
1
1
1
1
1
1
1
1
1
1
1
1
1
1
1
1
1
1
1
1
1
1
1
1
1
1
1
1
1
1
1
1
1
1
1
1
1
1
1
1
1
1
1
1
1
1
1
1
1
1
1
1
1
1
1
1
1
1
1
1
1
1
1
1
1
1
1.00016
5.5892
10.2762
10.4508
10.5682
10.6749
10.7679
10.8566
10.935
10.9993
11.0375
11.057
11.0734
11.0884
11.1001
11.1098
11.1106
11.0973
11.0753
11.0488
11.0165
11.0099
1
1
1
1
1
1
1
1
1
1
1
1
1
1
1
1
1
1
1
1
1
1
1
1
1
1
1
1
1
1
1
1
1
1
1
1
1
1
1
1
1
1
1
1
1
1
1
1
1
1
1
1
1
1
1
1
1
1
1
1
1
1
1
1
1
1
1
1
1
1
1
1
1
1
1
4.38719
9.95489
10.4022
10.5091
10.5965
10.6795
10.7641
10.8395
10.9003
10.9275
10.9385
10.9416
10.9416
10.9418
10.9396
10.9241
10.8989
10.8604
10.8146
10.739
10.6505
1
1
1
1
1
1
1
1
1
1
1
1
1
1
1
1
1
1
1
1
1
1
1
1
1
1
1
1
1
1
1
1
1
1
1
1
1
1
1
1
1
1
1
1
1
1
1
1
1
1
1
1
1
1
1
1
1
1
1
1
1
1
1
1
1
1
1
1
1
1
1
1
1
1
1
3.18485
9.42026
10.3512
10.4442
10.5143
10.5809
10.6549
10.7294
10.7916
10.8147
10.8172
10.8008
10.7805
10.761
10.7387
10.7041
10.6552
10.5673
10.4294
10.2773
10.1595
1
1
1
1
1
1
1
1
1
1
1
1
1
1
1
1
1
1
1
1
1
1
1
1
1
1
1
1
1
1
1
1
1
1
1
1
1
1
1
1
1
1
1
1
1
1
1
1
1
1
1
1
1
1
1
1
1
1
1
1
1
1
1
1
1
1
1
1
1
1
1
1
1
1
1
2.04074
8.65251
10.3924
10.368
10.4104
10.4601
10.5233
10.5937
10.655
10.6783
10.6752
10.6455
10.6068
10.565
10.516
10.4485
10.3513
10.2066
10.0109
9.79545
9.70329
1
1
1
1
1
1
1
1
1
1
1
1
1
1
1
1
1
1
1
1
1
1
1
1
1
1
1
1
1
1
1
1
1
1
1
1
1
1
1
1
1
1
1
1
1
1
1
1
1
1
1
1
1
1
1
1
1
1
1
1
1
1
1
1
1
1
1
1
1
1
1
1
1
1
1
1.17684
7.48784
10.4138
10.3687
10.3875
10.4018
10.4391
10.4852
10.5276
10.5375
10.5232
10.4829
10.4263
10.3583
10.2767
10.1684
10.0232
9.80053
9.41886
8.51292
6.59902
1
1
1
1
1
1
1
1
1
1
1
1
1
1
1
1
1
1
1
1
1
1
1
1
1
1
1
1
1
1
1
1
1
1
1
1
1
1
1
1
1
1
1
1
1
1
1
1
1
1
1
1
1
1
1
1
1
1
1
1
1
1
1
1
1
1
1
1
1
1
1
1
1
1
1
1.00355
5.93393
9.95648
10.1378
10.2153
10.2689
10.309
10.3456
10.3775
10.3854
10.3647
10.315
10.2385
10.1424
10.0269
9.87498
9.66046
9.32296
8.71748
7.74407
5.59634
1
1
1
1
1
1
1
1
1
1
1
1
1
1
1
1
1
1
1
1
1
1
1
1
1
1
1
1
1
1
1
1
1
1
1
1
1
1
1
1
1
1
1
1
1
1
1
1
1
1
1
1
1
1
1
1
1
1
1
1
1
1
1
1
1
1
1
1
1
1
1
1
1
1
1
1
4.29265
9.60641
10.1136
10.1697
10.2154
10.2374
10.2521
10.2606
10.2507
10.2129
10.1452
10.0435
9.91783
9.76697
9.57278
9.29682
8.8745
8.20492
7.11369
5.1876
1
1
1
1
1
1
1
1
1
1
1
1
1
1
1
1
1
1
1
1
1
1
1
1
1
1
1
1
1
1
1
1
1
1
1
1
1
1
1
1
1
1
1
1
1
1
1
1
1
1
1
1
1
1
1
1
1
1
1
1
1
1
1
1
1
1
1
1
1
1
1
1
1
1
1
0.999999
2.61313
8.85194
10.046
10.0777
10.1345
10.1502
10.1489
10.1386
10.1158
10.0663
9.98444
9.86222
9.70838
9.52107
9.28263
8.96119
8.47577
7.82258
6.65439
5.15055
1
1
1
1
1
1
1
1
1
1
1
1
1
1
1
1
1
1
1
1
1
1
1
1
1
1
1
1
1
1
1
1
1
1
1
1
1
1
1
1
1
1
1
1
1
1
1
1
1
1
1
1
1
1
1
1
1
1
1
1
1
1
1
1
1
1
1
1
1
1
1
1
1
1
1
1
1.28294
7.60846
10.1201
10.0178
10.0282
10.0361
10.0302
10.0117
9.97807
9.91415
9.81638
9.67925
9.50294
9.28553
9.00973
8.65715
8.15998
7.4967
6.42021
5.22345
1
1
1
1
1
1
1
1
1
1
1
1
1
1
1
1
1
1
1
1
1
1
1
1
1
1
1
1
1
1
1
1
1
1
1
1
1
1
1
1
1
1
1
1
1
1
1
1
1
1
1
1
1
1
1
1
1
1
1
1
1
1
1
1
1
1
1
1
1
1
1
1
1
1
1
1
1.00771
5.81054
9.61898
9.84523
9.90956
9.90086
9.89242
9.87088
9.82832
9.75514
9.64823
9.50345
9.31295
9.07306
8.77056
8.39208
7.90033
7.24614
6.31368
5.33991
1
1
1
1
1
1
1
1
1
1
1
1
1
1
1
1
1
1
1
1
1
1
1
1
1
1
1
1
1
1
1
1
1
1
1
1
1
1
1
1
1
1
1
1
1
1
1
1
1
1
1
1
1
1
1
1
1
1
1
1
1
1
1
1
1
1
1
1
1
1
1
1
1
1
1
1
0.999982
3.63493
9.0768
9.78785
9.79541
9.80016
9.78379
9.74999
9.68875
9.59923
9.47896
9.3273
9.1295
8.87755
8.55971
8.17057
7.6885
7.06455
6.27898
5.45908
1
1
1
1
1
1
1
1
1
1
1
1
1
1
1
1
1
1
1
1
1
1
1
1
1
1
1
1
1
1
1
1
1
1
1
1
1
1
1
1
1
1
1
1
1
1
1
1
1
1
1
1
1
1
1
1
1
1
1
1
1
1
1
1
1
1
1
1
1
1
1
1
1
1
1
1
0.999995
1.75793
8.18476
9.90067
9.74327
9.68077
9.65835
9.62014
9.55135
9.4557
9.3278
9.16873
8.96124
8.70207
8.37758
7.99611
7.51053
6.93554
6.27035
5.56292
1
1
1
1
1
1
1
1
1
1
1
1
1
1
1
1
1
1
1
1
1
1
1
1
1
1
1
1
1
1
1
1
1
1
1
1
1
1
1
1
1
1
1
1
1
1
1
1
1
1
1
1
1
1
1
1
1
1
1
1
1
1
1
1
1
1
1
1
1
1
1
1
1
1
1
1
0.999999
1.05133
6.40098
9.45857
9.51351
9.53917
9.52775
9.49096
9.41952
9.32033
9.18994
9.02639
8.8126
8.54919
8.2282
7.85417
7.37367
6.8512
6.26626
5.65046
1
1
1
1
1
1
1
1
1
1
1
1
1
1
1
1
1
1
1
1
1
1
1
1
1
1
1
1
1
1
1
1
1
1
1
1
1
1
1
1
1
1
1
1
1
1
1
1
1
1
1
1
1
1
1
1
1
1
1
1
1
1
1
1
1
1
1
1
1
1
1
1
1
1
1
1
1
1.00017
3.83204
8.87464
9.43903
9.46551
9.4579
9.40638
9.31836
9.20941
9.07087
8.90038
8.68029
8.40982
8.09492
7.72155
7.27648
6.7983
6.2698
5.73534
1
1
1
1
1
1
1
1
1
1
1
1
1
1
1
1
1
1
1
1
1
1
1
1
1
1
1
1
1
1
1
1
1
1
1
1
1
1
1
1
1
1
1
1
1
1
1
1
1
1
1
1
1
1
1
1
1
1
1
1
1
1
1
1
1
1
1
1
1
1
1
1
1
1
1
1
1
0.999999
1.67719
7.96995
9.56344
9.4263
9.35995
9.28678
9.19064
9.08025
8.94083
8.77033
8.55241
8.28863
7.97989
7.6157
7.21273
6.76914
6.28485
5.80064
1
1
1
1
1
1
1
1
1
1
1
1
1
1
1
1
1
1
1
1
1
1
1
1
1
1
1
1
1
1
1
1
1
1
1
1
1
1
1
1
1
1
1
1
1
1
1
1
1
1
1
1
1
1
1
1
1
1
1
1
1
1
1
1
1
1
1
1
1
1
1
1
1
1
1
1
1
1
1.03848
5.97759
9.16671
9.23829
9.23359
9.164
9.07159
8.95898
8.817
8.64799
8.42792
8.17511
7.86533
7.52096
7.15396
6.74367
6.30541
5.8555
1
1
1
1
1
1
1
1
1
1
1
1
1
1
1
1
1
1
1
1
1
1
1
1
1
1
1
1
1
1
1
1
1
1
1
1
1
1
1
1
1
1
1
1
1
1
1
1
1
1
1
1
1
1
1
1
1
1
1
1
1
1
1
1
1
1
1
1
1
1
1
1
1
1
1
1
1
1
1.00006
3.22061
8.58537
9.17776
9.13352
9.06285
8.97126
8.85089
8.704
8.53191
8.31559
8.07469
7.77941
7.45812
7.11287
6.73038
6.32952
5.90415
1
1
1
1
1
1
1
1
1
1
1
1
1
1
1
1
1
1
1
1
1
1
1
1
1
1
1
1
1
1
1
1
1
1
1
1
1
1
1
1
1
1
1
1
1
1
1
1
1
1
1
1
1
1
1
1
1
1
1
1
1
1
1
1
1
1
1
1
1
1
1
1
1
1
1
1
1
1
0.999997
1.31978
7.13447
9.16007
9.01274
8.94368
8.86091
8.74428
8.59321
8.41449
8.20686
7.97149
7.6978
7.39993
7.07194
6.715
6.34225
5.94828
1
1
1
1
1
1
1
1
1
1
1
1
1
1
1
1
1
1
1
1
1
1
1
1
1
1
1
1
1
1
1
1
1
1
1
1
1
1
1
1
1
1
1
1
1
1
1
1
1
1
1
1
1
1
1
1
1
1
1
1
1
1
1
1
1
1
1
1
1
1
1
1
1
1
1
1
1
1
0.999999
1.00831
4.4746
8.60383
8.85402
8.83068
8.77312
8.65938
8.5107
8.33162
8.12552
7.89064
7.63105
7.35134
7.04135
6.70734
6.35314
5.98602
1
1
1
1
1
1
1
1
1
1
1
1
1
1
1
1
1
1
1
1
1
1
1
1
1
1
1
1
1
1
1
1
1
1
1
1
1
1
1
1
1
1
1
1
1
1
1
1
1
1
1
1
1
1
1
1
1
1
1
1
1
1
1
1
1
1
1
1
1
1
1
1
1
1
1
1
1
1
1
0.999992
1.73015
7.6481
8.99751
8.81465
8.69668
8.56393
8.40928
8.23424
8.03653
7.81311
7.56652
7.29864
7.00274
6.68754
6.35581
6.01671
1
1
1
1
1
1
1
1
1
1
1
1
1
1
1
1
1
1
1
1
1
1
1
1
1
1
1
1
1
1
1
1
1
1
1
1
1
1
1
1
1
1
1
1
1
1
1
1
1
1
1
1
1
1
1
1
1
1
1
1
1
1
1
1
1
1
1
1
1
1
1
1
1
1
1
1
1
1
1
0.999998
1.04019
5.35577
8.5357
8.61797
8.57636
8.47225
8.33185
8.15975
7.96432
7.74808
7.5114
7.25339
6.97171
6.6737
6.36231
6.043
1
1
1
1
1
1
1
1
1
1
1
1
1
1
1
1
1
1
1
1
1
1
1
1
1
1
1
1
1
1
1
1
1
1
1
1
1
1
1
1
1
1
1
1
1
1
1
1
1
1
1
1
1
1
1
1
1
1
1
1
1
1
1
1
1
1
1
1
1
1
1
1
1
1
1
1
1
1
1
1
1.00008
2.26758
7.81372
8.66977
8.52324
8.39719
8.25644
8.08717
7.89493
7.68476
7.45804
7.21124
6.94297
6.65964
6.36558
6.0655
1
1
1
1
1
1
1
1
1
1
1
1
1
1
1
1
1
1
1
1
1
1
1
1
1
1
1
1
1
1
1
1
1
1
1
1
1
1
1
1
1
1
1
1
1
1
1
1
1
1
1
1
1
1
1
1
1
1
1
1
1
1
1
1
1
1
1
1
1
1
1
1
1
1
1
1
1
1
1
1
1
1.10921
5.74277
8.44091
8.39482
8.29559
8.168
8.01201
7.82947
7.62604
7.4066
7.17169
6.91951
6.65245
6.37402
6.09029
1
1
1
1
1
1
1
1
1
1
1
1
1
1
1
1
1
1
1
1
1
1
1
1
1
1
1
1
1
1
1
1
1
1
1
1
1
1
1
1
1
1
1
1
1
1
1
1
1
1
1
1
1
1
1
1
1
1
1
1
1
1
1
1
1
1
1
1
1
1
1
1
1
1
1
1
1
1
1
1
1
1.00086
2.51953
7.7054
8.39623
8.26099
8.12046
7.96146
7.78146
7.58301
7.3687
7.14087
6.89968
6.64503
6.37973
6.10928
1
1
1
1
1
1
1
1
1
1
1
1
1
1
1
1
1
1
1
1
1
1
1
1
1
1
1
1
1
1
1
1
1
1
1
1
1
1
1
1
1
1
1
1
1
1
1
1
1
1
1
1
1
1
1
1
1
1
1
1
1
1
1
1
1
1
1
1
1
1
1
1
1
1
1
1
1
1
1
1
1
1
1.15038
5.69843
8.24089
8.17224
8.04515
7.8958
7.72391
7.53681
7.33335
7.11445
6.88205
6.63695
6.38414
6.12762
1
1
1
1
1
1
1
1
1
1
1
1
1
1
1
1
1
1
1
1
1
1
1
1
1
1
1
1
1
1
1
1
1
1
1
1
1
1
1
1
1
1
1
1
1
1
1
1
1
1
1
1
1
1
1
1
1
1
1
1
1
1
1
1
1
1
1
1
1
1
1
1
1
1
1
1
1
1
1
1
1
1
1.00174
2.39927
7.42649
8.16962
8.01583
7.86311
7.68892
7.50363
7.30674
7.09649
6.87289
6.63681
6.39349
6.14727
1
1
1
1
1
1
1
1
1
1
1
1
1
1
1
1
1
1
1
1
1
1
1
1
1
1
1
1
1
1
1
1
1
1
1
1
1
1
1
1
1
1
1
1
1
1
1
1
1
1
1
1
1
1
1
1
1
1
1
1
1
1
1
1
1
1
1
1
1
1
1
1
1
1
1
1
1
1
1
1
1
1
1
1.12929
5.30004
7.97459
7.94967
7.80426
7.63917
7.45986
7.27015
7.06803
6.85449
6.63088
6.39963
6.16375
1
1
1
1
1
1
1
1
1
1
1
1
1
1
1
1
1
1
1
1
1
1
1
1
1
1
1
1
1
1
1
1
1
1
1
1
1
1
1
1
1
1
1
1
1
1
1
1
1
1
1
1
1
1
1
1
1
1
1
1
1
1
1
1
1
1
1
1
1
1
1
1
1
1
1
1
1
1
1
1
1
1
1
1.0014
2.16144
6.95432
7.93708
7.77256
7.61794
7.44242
7.25485
7.05428
6.84495
6.62992
6.411
6.18732
1
1
1
1
1
1
1
1
1
1
1
1
1
1
1
1
1
1
1
1
1
1
1
1
1
1
1
1
1
1
1
1
1
1
1
1
1
1
1
1
1
1
1
1
1
1
1
1
1
1
1
1
1
1
1
1
1
1
1
1
1
1
1
1
1
1
1
1
1
1
1
1
1
1
1
1
1
1
1
1
1
1
1
1
1.09026
4.48056
7.62545
7.72685
7.57339
7.40353
7.22081
7.02808
6.82642
6.61899
6.4096
6.19749
1.27557
0.197534
0.0361717
0.0665092
0.0968403
0.0860516
0.0923601
0.139187
2.21841
0.892603
0.319778
0.30917
0.314487
0.261087
0.202026
0.190918
2.83686
1.80134
1.12758
0.68255
0.5722
0.495322
0.381091
0.312485
3.47863
2.47953
1.80921
1.26055
0.974316
0.842363
0.702078
0.553431
3.94527
3.04881
2.40044
1.86614
1.44468
1.18774
1.04942
0.931828
4.33859
3.52612
2.85652
2.37293
1.98687
1.59882
1.33457
1.22403
4.59694
3.90048
3.2938
2.76229
2.36933
2.02977
1.73884
1.51906
4.84371
4.21175
3.63201
3.15336
2.73963
2.35097
2.05603
1.84399
5.02234
4.44241
3.927
3.45808
3.04022
2.67033
2.3683
2.12427
5.16987
4.63944
4.17443
3.71564
3.30711
2.97406
2.64899
2.38096
5.28271
4.80366
4.37104
3.93077
3.55078
3.22771
2.91701
2.64301
5.38292
4.9473
4.52643
4.12184
3.77725
3.45101
3.13168
2.87316
5.47447
5.06585
4.66011
4.29917
3.96322
3.63336
3.3341
3.08228
5.55427
5.16326
4.78921
4.44871
4.11654
3.79565
3.52391
3.26029
5.61608
5.24877
4.90671
4.57451
4.24565
3.95884
3.68618
3.42113
5.67117
5.33229
5.00715
4.68417
4.37956
4.09891
3.82654
3.56053
5.71946
5.40626
5.09272
4.78685
4.50441
4.22575
3.94988
3.70447
5.76328
5.46761
5.17281
4.8861
4.61032
4.33955
4.07998
3.84082
5.80507
5.52082
5.24389
4.97391
4.70279
4.44202
4.20108
3.96275
5.83851
5.5706
5.30657
5.04658
4.78993
4.5419
4.30073
4.06753
5.87008
5.61708
5.36393
5.10934
4.86569
4.62812
4.39
4.161
5.9014
5.65707
5.41396
5.17309
4.9347
4.69916
4.47081
4.25684
5.92838
5.69354
5.45962
5.23126
5.00118
4.76795
4.54847
4.34388
5.96003
5.73282
5.50669
5.28077
5.05781
4.8409
4.6296
4.42161
)
;

boundaryField
{
    inlet
    {
        type            fixedValue;
        value           uniform 1;
    }
    outlet
    {
        type            zeroGradient;
    }
    bottom
    {
        type            zeroGradient;
    }
    top
    {
        type            zeroGradient;
    }
    obstacle
    {
        type            zeroGradient;
    }
    defaultFaces
    {
        type            empty;
    }
    procBoundary0to1
    {
        type            processor;
        value           nonuniform List<scalar> 
24
(
0.205503
0.197998
0.321242
0.507571
0.786867
1.10974
1.35147
1.65678
1.91738
2.17824
2.40645
2.64915
2.84041
3.01042
3.16653
3.33218
3.48172
3.61032
3.72746
3.84193
3.95259
4.04995
4.14208
4.21983
)
;
    }
    procBoundary0to4
    {
        type            processor;
        value           nonuniform List<scalar> 
105
(
1
1
1
1
1
1
1
1
1
1
1
1
1
1
1
1
1
1
1
1
1
1
1
1
1
1
1
1
1
1
1
1
1
1
1
1
1
1
1
1
1
1
1
1
1
1
1
1
1
1
1
1
1
1
1
1
1
1
1
1
1
1
1
1
1
1
1
1
1
1
1
1
1
1
1
1
1
1
1
1
1
1
1
1
1.00091
1.75952
6.27536
7.76634
7.55428
7.39078
7.208
7.02232
6.82781
6.62593
6.42186
6.21772
5.98015
5.98015
5.76141
5.54357
5.32367
5.10885
4.9072
4.70682
4.50086
)
;
    }
}


// ************************************************************************* //
