/*--------------------------------*- C++ -*----------------------------------*\
  =========                 |
  \\      /  F ield         | OpenFOAM: The Open Source CFD Toolbox
   \\    /   O peration     | Website:  https://openfoam.org
    \\  /    A nd           | Version:  7
     \\/     M anipulation  |
\*---------------------------------------------------------------------------*/
FoamFile
{
    version     2.0;
    format      ascii;
    class       volScalarField;
    location    "3.6";
    object      rho;
}
// * * * * * * * * * * * * * * * * * * * * * * * * * * * * * * * * * * * * * //

dimensions      [1 -3 0 0 0 0 0];

internalField   nonuniform List<scalar> 
4128
(
3.15741
3.09142
3.02539
2.96262
2.90462
2.84382
2.78646
2.72457
2.66977
2.61948
2.56585
2.51645
2.46026
2.41707
2.37077
2.32634
2.27696
2.23496
2.19791
2.15895
2.11492
2.07638
2.04606
2.01347
1.97353
1.93871
1.91176
1.88287
1.84764
1.81538
1.79393
1.76903
1.74066
1.70935
1.68922
1.66632
1.64183
1.61016
1.58915
1.5725
1.5545
1.53308
1.51363
1.49887
1.48101
1.46214
1.4409
1.42113
1.40024
1.3808
1.36494
1.35923
1.35282
1.3426
1.32822
1.31551
1.29384
1.28388
1.78807
3.06711
3.20534
3.19946
3.20013
3.19892
3.18949
3.16852
3.13599
3.09388
3.04895
3.00846
2.97583
2.94936
2.92337
2.89264
2.85384
2.80671
2.75248
2.69489
2.63848
2.58259
2.52433
2.46115
3.6227
3.54781
3.47307
3.40186
3.33371
3.26502
3.19778
3.13083
3.06651
3.0068
2.94554
2.88678
2.82627
2.76739
2.71562
2.66012
2.6097
2.55319
2.50499
2.46009
2.41227
2.36709
2.31698
2.27971
2.239
2.19926
2.15366
2.11898
2.0862
2.0514
2.00984
1.97766
1.94961
1.91975
1.8827
1.85378
1.83063
1.80461
1.7732
1.74404
1.72336
1.6992
1.6727
1.64128
1.62441
1.60717
1.58816
1.56383
1.54545
1.52934
1.51062
1.4895
1.46613
1.44587
1.42727
1.41087
1.39864
1.39243
1.38319
1.36971
1.35257
1.33929
1.32012
1.2899
1.35417
2.48006
3.20606
3.22919
3.22733
3.22203
3.20747
3.18109
3.14415
3.10107
3.05991
3.0261
2.99857
2.97353
2.94628
2.91291
2.87134
2.8226
2.76807
2.7118
2.65772
2.6045
2.54915
2.48962
3.66467
3.589
3.5156
3.44598
3.37596
3.30719
3.23831
3.17192
3.10963
3.04705
2.98661
2.9265
2.86657
2.8127
2.75644
2.70343
2.64846
2.59477
2.55014
2.50014
2.45569
2.40413
2.36188
2.32222
2.28021
2.23835
2.19439
2.1615
2.12553
2.08866
2.04688
2.01712
1.98751
1.95616
1.91854
1.8919
1.86679
1.83962
1.80583
1.77925
1.75716
1.73239
1.70354
1.67587
1.66046
1.64169
1.62036
1.59413
1.57694
1.55952
1.54017
1.51605
1.4917
1.47315
1.45793
1.44314
1.43251
1.42452
1.41196
1.39487
1.37563
1.35939
1.34257
1.30845
1.30635
1.7053
3.00185
3.25727
3.2505
3.24544
3.2258
3.19197
3.15077
3.1096
3.07453
3.04663
3.0225
2.99802
2.96928
2.93315
2.88881
2.83821
2.78322
2.72826
2.6764
2.62619
2.57449
2.51959
3.70419
3.63017
3.5606
3.48925
3.41855
3.34801
3.28079
3.21677
3.15145
3.08794
3.02568
2.96534
2.91028
2.85343
2.79816
2.74405
2.68729
2.64067
2.59053
2.54328
2.49468
2.44535
2.40672
2.36203
2.32205
2.27527
2.2377
2.20196
2.16444
2.12475
2.08558
2.05656
2.02511
1.99173
1.95496
1.92952
1.90263
1.87397
1.83905
1.81443
1.79082
1.76587
1.73536
1.71237
1.69574
1.6751
1.65054
1.62485
1.60839
1.58964
1.56874
1.54021
1.51901
1.50442
1.49117
1.47612
1.46494
1.45386
1.43732
1.41779
1.39875
1.37999
1.36209
1.33603
1.31847
1.36603
2.35033
3.23102
3.27107
3.25768
3.23345
3.19692
3.15659
3.12085
3.09313
3.06991
3.04741
3.02244
2.99181
2.95303
2.90667
2.85505
2.80056
2.74758
2.6978
2.64975
2.60073
2.54945
3.74641
3.67557
3.60397
3.53255
3.46077
3.39142
3.32652
3.25952
3.19416
3.12927
3.06633
3.00925
2.95107
2.89414
2.83972
2.78231
2.73284
2.68244
2.63203
2.58523
2.53203
2.49123
2.44674
2.40353
2.36026
2.31485
2.28038
2.24019
2.20341
2.16015
2.1264
2.09513
2.06243
2.02646
1.99244
1.96679
1.93843
1.90774
1.87332
1.84988
1.82517
1.79978
1.76895
1.74886
1.7297
1.70744
1.67998
1.65694
1.63987
1.61974
1.59602
1.56594
1.55088
1.5382
1.52435
1.50775
1.49511
1.48062
1.46132
1.44015
1.42078
1.40168
1.38342
1.36568
1.34965
1.35509
1.65564
2.92811
3.29152
3.27573
3.24427
3.20071
3.16305
3.13522
3.1144
3.09441
3.07256
3.0461
3.0127
2.97138
2.92377
2.87233
2.81997
2.76995
2.72214
2.67515
2.62733
2.57803
3.79046
3.71998
3.64799
3.57506
3.50231
3.43705
3.37001
3.3034
3.237
3.171
3.1122
3.05223
2.99302
2.93672
2.87852
2.82684
2.77542
2.7228
2.6756
2.62194
2.57691
2.53292
2.48597
2.44478
2.39529
2.35835
2.31908
2.27921
2.24027
2.19802
2.16752
2.13249
2.09957
2.06081
2.03101
2.00341
1.97407
1.94085
1.90885
1.88556
1.86022
1.8335
1.80352
1.78412
1.76231
1.73869
1.70985
1.68963
1.67083
1.64942
1.62198
1.59644
1.58534
1.57208
1.55618
1.53736
1.52237
1.50451
1.48436
1.46271
1.4428
1.4248
1.40902
1.39481
1.38616
1.37596
1.40497
2.20224
3.18801
3.28507
3.25596
3.21413
3.18057
3.15856
3.14074
3.12121
3.09859
3.06942
3.03271
2.98884
2.93983
2.88934
2.84035
2.79381
2.748
2.70151
2.65374
2.60492
3.83296
3.76085
3.68891
3.61439
3.54766
3.48139
3.41409
3.34787
3.2796
3.21899
3.15734
3.09556
3.03707
2.97706
2.92387
2.87092
2.81603
2.76652
2.71286
2.66437
2.62002
2.57105
2.52881
2.4799
2.43695
2.39931
2.35601
2.31925
2.27439
2.24003
2.20619
2.1702
2.13544
2.09697
2.07006
2.03936
2.00957
1.97382
1.94581
1.92138
1.89557
1.86661
1.8384
1.81799
1.79431
1.7693
1.74106
1.72218
1.7013
1.67886
1.64952
1.63152
1.62008
1.6049
1.5858
1.56487
1.54782
1.52837
1.50833
1.4854
1.46657
1.45183
1.43918
1.42558
1.42026
1.41043
1.40353
1.58951
2.77403
3.28925
3.2607
3.22643
3.20327
3.18625
3.1679
3.14656
3.12168
3.08951
3.05031
3.00496
2.95578
2.90757
2.86226
2.81858
2.77438
2.72821
2.68011
2.63104
3.8725
3.80117
3.72677
3.65826
3.59252
3.52418
3.45801
3.38906
3.32788
3.26645
3.20249
3.14196
3.07819
3.02269
2.96928
2.91233
2.86026
2.80544
2.75383
2.70834
2.6581
2.61299
2.56636
2.51835
2.48043
2.43617
2.39686
2.35484
2.31335
2.28134
2.24258
2.20904
2.16903
2.13671
2.1078
2.07535
2.04419
2.00816
1.98361
1.9569
1.93059
1.899
1.87316
1.85079
1.82634
1.79964
1.77316
1.75392
1.73151
1.70825
1.68073
1.66722
1.6533
1.63591
1.61292
1.59106
1.57275
1.55344
1.53301
1.50904
1.49382
1.482
1.47048
1.45711
1.45165
1.44344
1.41774
1.42561
1.99107
3.12756
3.2633
3.24706
3.23383
3.21721
3.19615
3.1717
3.1429
3.10749
3.06605
3.02007
2.97248
2.92764
2.88551
2.84372
2.8003
2.75411
2.7058
2.65683
3.91171
3.8392
3.76962
3.70486
3.63641
3.56934
3.49863
3.43505
3.37533
3.31084
3.24992
3.18441
3.1243
3.0704
3.01181
2.95737
2.9016
2.84638
2.79922
2.74767
2.69924
2.65333
2.60254
2.56292
2.51903
2.47589
2.43681
2.39016
2.35686
2.31869
2.28132
2.24548
2.20521
2.17722
2.14335
2.11221
2.07685
2.04567
2.02085
1.99212
1.96456
1.93154
1.90798
1.88336
1.85881
1.83017
1.80571
1.785
1.7622
1.73799
1.71448
1.70147
1.68438
1.66443
1.63824
1.61761
1.59921
1.58074
1.55837
1.53626
1.52484
1.51384
1.50114
1.48858
1.48066
1.46996
1.44689
1.42167
1.51204
2.53051
3.2491
3.28045
3.26632
3.24628
3.22254
3.19514
3.16315
3.1255
3.08268
3.03748
2.9931
2.95181
2.91189
2.87072
2.82687
2.78009
2.73182
2.68385
3.951
3.87905
3.81489
3.74815
3.6812
3.61074
3.54218
3.48248
3.41838
3.35665
3.29239
3.22812
3.17323
3.11368
3.05662
3.00043
2.94197
2.89372
2.84139
2.78945
2.74249
2.6892
2.64696
2.60371
2.55739
2.51873
2.47122
2.43353
2.39719
2.35597
2.32203
2.27899
2.24683
2.21479
2.1794
2.14811
2.11012
2.08475
2.05602
2.02744
1.99656
1.96576
1.94279
1.91637
1.89145
1.86114
1.83856
1.81611
1.79369
1.76841
1.74841
1.73316
1.71325
1.69037
1.66352
1.64541
1.62746
1.60939
1.58473
1.56774
1.55736
1.54551
1.53078
1.51828
1.50689
1.49242
1.47057
1.43292
1.43261
1.79199
2.98192
3.313
3.28761
3.26701
3.24211
3.21288
3.17896
3.13997
3.09741
3.05524
3.01544
2.9776
2.93906
2.89777
2.85299
2.80543
2.75766
2.71149
3.99025
3.92388
3.85851
3.79077
3.72192
3.65087
3.58946
3.52559
3.46153
3.39832
3.33189
3.27636
3.21748
3.15796
3.10179
3.0399
2.98989
2.93823
2.88349
2.83552
2.78039
2.73391
2.69094
2.64227
2.60147
2.55509
2.51205
2.47696
2.43417
2.39809
2.35777
2.31839
2.28799
2.25013
2.21819
2.18066
2.14844
2.12223
2.09016
2.06224
2.02742
2.00203
1.97688
1.95027
1.92335
1.89339
1.87193
1.84805
1.8258
1.79972
1.78125
1.76249
1.74071
1.71489
1.69087
1.67478
1.65716
1.63839
1.61356
1.60098
1.58946
1.57604
1.55941
1.54599
1.53071
1.51198
1.48781
1.45786
1.44224
1.48309
2.28128
3.22929
3.30596
3.28853
3.26601
3.23583
3.19949
3.15889
3.11744
3.07889
3.04268
3.00633
2.96773
2.92572
2.87989
2.83185
2.78507
2.74071
4.03202
3.96799
3.90076
3.83196
3.75909
3.6953
3.63268
3.56722
3.50423
3.43597
3.37858
3.32114
3.25959
3.20351
3.14023
3.0868
3.03676
2.98045
2.93094
2.87592
2.82434
2.78142
2.73129
2.68675
2.64179
2.5933
2.55765
2.51513
2.47486
2.43793
2.39336
2.36208
2.32497
2.28871
2.25548
2.21548
2.18905
2.15685
2.12608
2.09432
2.06133
2.03845
2.01006
1.98454
1.95369
1.92758
1.90537
1.88106
1.85785
1.83174
1.81289
1.79059
1.76786
1.74035
1.72097
1.70514
1.68747
1.66668
1.64465
1.63356
1.62007
1.60472
1.5866
1.5711
1.5525
1.53022
1.50302
1.48687
1.47096
1.47526
1.67984
2.80177
3.32555
3.3128
3.28393
3.25018
3.21371
3.17559
3.13833
3.10371
3.06956
3.03371
2.99472
2.95175
2.90529
2.858
2.81314
2.7703
4.07401
4.00904
3.94311
3.87062
3.80175
3.73946
3.67349
3.61028
3.54204
3.4812
3.425
3.36263
3.30519
3.24212
3.18379
3.13523
3.07883
3.02678
2.97359
2.91723
2.8739
2.82408
2.77552
2.73174
2.67916
2.64038
2.59875
2.55415
2.51777
2.47122
2.43612
2.40184
2.36174
2.33006
2.28891
2.25711
2.22715
2.19191
2.16291
2.12542
2.09946
2.07314
2.04407
2.01725
1.98455
1.96285
1.93828
1.91484
1.88903
1.86435
1.8435
1.81918
1.79584
1.7691
1.7531
1.73592
1.71769
1.69441
1.67658
1.66451
1.64911
1.63144
1.61206
1.59387
1.57287
1.54955
1.52519
1.51855
1.50936
1.49201
1.50786
2.05265
3.14975
3.33071
3.30025
3.26228
3.22647
3.19251
3.16036
3.12917
3.09648
3.06055
3.02035
2.97606
2.92956
2.88435
2.84195
2.80008
4.1226
4.05106
3.98065
3.91045
3.84702
3.78114
3.71643
3.64905
3.58461
3.52864
3.46664
3.40739
3.34624
3.28244
3.23316
3.17799
3.12298
3.0717
3.01191
2.96643
2.91845
2.86654
2.82285
2.76956
2.72593
2.68558
2.63796
2.59925
2.55348
2.51133
2.47892
2.43758
2.40309
2.36562
2.32681
2.29876
2.26228
2.23105
2.19684
2.16234
2.13807
2.10668
2.07957
2.04701
2.01918
1.99764
1.97132
1.94827
1.91945
1.89705
1.87351
1.84957
1.82507
1.8015
1.78591
1.76668
1.74714
1.72273
1.70806
1.6938
1.6769
1.65646
1.63576
1.61532
1.59449
1.57295
1.5558
1.5508
1.5428
1.52265
1.51502
1.60998
2.54222
3.26772
3.31162
3.28293
3.25003
3.21849
3.18876
3.1587
3.12551
3.08781
3.04576
3.0003
2.95446
2.91144
2.87036
2.82885
4.15495
4.09644
4.01702
3.95087
3.8873
3.82243
3.75635
3.68873
3.63228
3.57144
3.50932
3.44958
3.38329
3.3318
3.27855
3.2207
3.16954
3.10895
3.05849
3.01217
2.95834
2.9129
2.86126
2.81211
2.7736
2.72572
2.68308
2.64056
2.59133
2.5575
2.51679
2.47709
2.44279
2.39852
2.36937
2.33561
2.29962
2.26985
2.23028
2.20377
2.17393
2.14234
2.11414
2.07846
2.0566
2.03115
2.00567
1.97953
1.95086
1.92973
1.90424
1.88196
1.85575
1.83583
1.81789
1.79718
1.77541
1.75239
1.73874
1.722
1.70362
1.68014
1.65895
1.6383
1.62038
1.60136
1.58912
1.5821
1.57181
1.55492
1.53257
1.5365
1.84181
2.93499
3.32512
3.30535
3.27268
3.24241
3.21361
3.18366
3.14965
3.11107
3.06866
3.0239
2.98019
2.93851
2.89739
2.85538
4.15755
4.1442
4.06725
3.99454
3.92819
3.86229
3.79219
3.7343
3.67728
3.61428
3.55453
3.48685
3.43013
3.37869
3.31989
3.2675
3.20908
3.15371
3.10777
3.05308
3.00302
2.95296
2.89759
2.85925
2.81398
2.76739
2.72801
2.67679
2.63888
2.59991
2.55559
2.52098
2.47536
2.43989
2.40958
2.37063
2.3405
2.30288
2.26981
2.24309
2.20835
2.18059
2.14561
2.11629
2.0936
2.06476
2.04053
2.00898
1.98494
1.96247
1.93733
1.91501
1.88816
1.86998
1.84863
1.82749
1.80311
1.78338
1.76846
1.74965
1.72921
1.70341
1.68396
1.66556
1.65043
1.63249
1.62138
1.61171
1.59844
1.58133
1.56181
1.5452
1.57368
2.20303
3.18745
3.32477
3.29906
3.27123
3.24261
3.21043
3.17317
3.13257
3.09045
3.04848
3.0081
2.96806
2.92682
2.883
3.94364
4.15987
4.12139
4.04365
3.97101
3.89683
3.83264
3.78005
3.7198
3.6604
3.595
3.52999
3.47632
3.41825
3.36449
3.3088
3.24942
3.20364
3.15067
3.09686
3.04821
2.98785
2.94447
2.9017
2.85189
2.81207
2.76302
2.7202
2.68411
2.6382
2.60054
2.55852
2.51395
2.48453
2.44589
2.41091
2.37745
2.33708
2.31138
2.27807
2.24585
2.21655
2.17933
2.15639
2.12806
2.10054
2.07304
2.04104
2.02094
1.9956
1.97263
1.94701
1.92237
1.90291
1.87917
1.85765
1.8318
1.81485
1.79718
1.7772
1.75366
1.72877
1.71269
1.69664
1.68193
1.66355
1.65221
1.63967
1.62396
1.60428
1.5898
1.56698
1.55772
1.68969
2.63114
3.28916
3.32636
3.30317
3.27417
3.24017
3.19979
3.15617
3.11317
3.07342
3.03579
2.99805
2.95771
2.91194
2.90194
4.04638
4.1207
4.07593
4.01028
3.93184
3.87527
3.82305
3.76628
3.70605
3.64013
3.58081
3.51951
3.45885
3.40203
3.34083
3.29543
3.24715
3.19196
3.14459
3.08544
3.03356
2.99088
2.9392
2.89546
2.84921
2.80039
2.76661
2.72272
2.68017
2.64267
2.59305
2.56034
2.52416
2.4841
2.45281
2.40934
2.37911
2.34978
2.31324
2.28563
2.24809
2.21917
2.19386
2.16218
2.13707
2.10289
2.07811
2.05655
2.03006
2.00777
1.97851
1.95724
1.93453
1.91089
1.88753
1.86292
1.84638
1.8257
1.80505
1.77828
1.75857
1.74438
1.72898
1.71253
1.69395
1.68147
1.66639
1.64896
1.62715
1.61436
1.59511
1.56748
1.57359
1.93165
2.99338
3.35166
3.33531
3.29902
3.26071
3.22029
3.17873
3.13885
3.10125
3.06407
3.02632
2.986
2.93978
1.74505
3.15663
4.03684
4.08196
4.05309
3.97876
3.91774
3.86436
3.80873
3.74619
3.68595
3.62592
3.5637
3.50415
3.43615
3.38648
3.3415
3.28591
3.23696
3.18331
3.12614
3.08219
3.03037
2.98155
2.93778
2.88305
2.84753
2.80807
2.76132
2.7245
2.67587
2.63662
2.60312
2.5605
2.52731
2.48709
2.44807
2.42163
2.38484
2.35352
2.32094
2.28381
2.25988
2.22792
2.19924
2.17017
2.13611
2.11652
2.09035
2.066
2.03987
2.01183
1.99157
1.96599
1.9439
1.91745
1.89611
1.87735
1.85494
1.8331
1.80615
1.79174
1.77674
1.76094
1.74159
1.72371
1.70943
1.69247
1.67309
1.6515
1.63721
1.62125
1.59284
1.58114
1.62975
2.30494
3.22231
3.35226
3.32342
3.2833
3.24218
3.20352
3.16852
3.13371
3.09627
3.05627
3.01305
2.96527
1.41947
1.88286
3.34835
3.98825
4.07677
4.03227
3.96387
3.90308
3.84392
3.78593
3.7279
3.66553
3.60674
3.53899
3.47804
3.43395
3.38014
3.32861
3.27853
3.21924
3.17352
3.12314
3.06966
3.02681
2.97133
2.92864
2.8932
2.84553
2.80587
2.76114
2.71452
2.68217
2.64009
2.60156
2.56626
2.52013
2.49253
2.45912
2.42247
2.39363
2.35306
2.32573
2.29697
2.26317
2.2373
2.20024
2.17524
2.15266
2.12418
2.10104
2.06957
2.04708
2.02452
1.99907
1.97679
1.94881
1.9298
1.90759
1.8854
1.86107
1.83843
1.82562
1.80865
1.79186
1.76994
1.75323
1.73666
1.71853
1.69691
1.67617
1.66077
1.64555
1.62575
1.60493
1.60903
1.77384
2.7057
3.30616
3.34348
3.31402
3.27485
3.23604
3.2006
3.16535
3.12727
3.0859
3.04117
2.99355
1.40026
1.43471
2.0468
3.43541
4.01317
4.0667
4.01424
3.94234
3.87713
3.82471
3.76849
3.71086
3.64688
3.57709
3.52929
3.47619
3.41993
3.37047
3.31311
3.26615
3.21886
3.16262
3.11655
3.06368
3.01092
2.97607
2.93026
2.88603
2.84638
2.79551
2.76157
2.72271
2.67924
2.64549
2.598
2.56317
2.53357
2.49399
2.46378
2.42634
2.39195
2.36668
2.33156
2.30305
2.271
2.23576
2.21469
2.18557
2.1596
2.13168
2.10173
2.08262
2.05679
2.03417
2.00831
1.98273
1.96288
1.93801
1.91653
1.88974
1.87258
1.85795
1.83982
1.82111
1.79873
1.78267
1.76395
1.7449
1.7211
1.70174
1.68658
1.67213
1.65551
1.63929
1.62529
1.63721
2.007
3.00813
3.35247
3.34109
3.30613
3.26712
3.22867
3.19023
3.15113
3.11153
3.06978
3.02554
1.40001
1.40058
1.45836
2.17045
3.50125
4.04565
4.0489
3.99521
3.91946
3.85978
3.808
3.75727
3.69091
3.62994
3.57217
3.51069
3.4612
3.40449
3.35375
3.31356
3.26064
3.2104
3.15994
3.10014
3.06048
3.01657
2.96773
2.92871
2.87773
2.83953
2.80554
2.76031
2.7243
2.68159
2.63651
2.60783
2.56886
2.53328
2.50042
2.4591
2.43474
2.40328
2.36955
2.34271
2.30321
2.27729
2.25023
2.21892
2.19413
2.15934
2.13766
2.11654
2.09042
2.06901
2.03956
2.01801
1.99461
1.96984
1.9472
1.92053
1.9062
1.88856
1.87036
1.84854
1.82823
1.81162
1.79148
1.77154
1.74646
1.72981
1.71511
1.70107
1.68314
1.6711
1.65622
1.64344
1.6918
2.31761
3.20862
3.36301
3.3363
3.29506
3.25468
3.21575
3.17677
3.13721
3.09779
3.05874
1.40001
1.40001
1.40114
1.48243
2.24868
3.61961
4.0284
4.00733
3.95115
3.8929
3.84785
3.80223
3.74717
3.68509
3.61576
3.55386
3.49134
3.43093
3.39632
3.35394
3.30483
3.26008
3.20145
3.15137
3.10416
3.05077
3.00885
2.9609
2.91435
2.88542
2.84367
2.80353
2.76697
2.71668
2.68348
2.64632
2.60464
2.57318
2.52943
2.49974
2.4746
2.43879
2.41166
2.37673
2.3427
2.31685
2.28263
2.25524
2.22388
2.1922
2.17474
2.14902
2.1261
2.10064
2.07312
2.05248
2.02553
2.00311
1.97666
1.95412
1.93891
1.91881
1.89982
1.87531
1.85782
1.83959
1.81936
1.79822
1.77459
1.76033
1.74569
1.73087
1.71057
1.69985
1.68703
1.66061
1.65776
1.80509
2.65945
3.30607
3.35982
3.32743
3.28726
3.24911
3.20994
3.1701
3.13069
3.0918
1.40001
1.40001
1.40001
1.40183
1.50278
2.36075
3.70816
3.98268
3.97979
3.94665
3.88782
3.83372
3.7848
3.72336
3.65946
3.60049
3.52508
3.47556
3.43939
3.39243
3.34877
3.29945
3.24755
3.19819
3.14298
3.09516
3.04833
2.98978
2.95971
2.92483
2.88085
2.84731
2.80153
2.76186
2.72639
2.68128
2.64626
2.60571
2.56389
2.54241
2.50988
2.47826
2.44964
2.41171
2.38474
2.35145
2.31807
2.29132
2.25258
2.23142
2.20998
2.18275
2.16066
2.12996
2.10792
2.08416
2.05739
2.0359
2.00668
1.98904
1.97045
1.94973
1.92781
1.90346
1.88747
1.86721
1.84796
1.825
1.80555
1.79194
1.77651
1.75991
1.73882
1.72637
1.71363
1.68918
1.66673
1.67727
1.99893
2.958
3.35621
3.35181
3.31847
3.28063
3.24227
3.20249
3.16223
3.12233
1.40001
1.40001
1.40001
1.40001
1.4027
1.53135
2.5388
3.69516
3.97964
3.99767
3.94464
3.88013
3.82383
3.7562
3.69407
3.62561
3.55594
3.52244
3.48358
3.43667
3.38695
3.33875
3.29255
3.23826
3.18507
3.1406
3.07824
3.03555
3.00525
2.96036
2.92329
2.88248
2.83915
2.80679
2.76303
2.72178
2.68609
2.63522
2.60838
2.58133
2.54547
2.51805
2.48101
2.45124
2.4219
2.38448
2.35716
2.32218
2.29005
2.27131
2.24322
2.21896
2.19096
2.16227
2.14207
2.11429
2.09142
2.06605
2.0401
2.02352
2.00116
1.98059
1.95448
1.93375
1.91686
1.89576
1.87728
1.85345
1.83827
1.82335
1.8069
1.78717
1.7669
1.75237
1.73728
1.71899
1.69175
1.68495
1.72618
2.26984
3.17141
3.37164
3.34982
3.30733
3.26637
3.22888
3.19179
3.15372
1.40001
1.40001
1.40001
1.40001
1.40002
1.40406
1.58903
2.64899
3.70373
3.99315
3.99007
3.93565
3.86776
3.80277
3.7386
3.6615
3.60145
3.56144
3.51976
3.47256
3.42303
3.37975
3.33227
3.28025
3.23723
3.17907
3.11916
3.08699
3.04332
3.00001
2.96199
2.91424
2.88293
2.84574
2.80055
2.76667
2.71835
2.67708
2.65227
2.61568
2.58434
2.55027
2.51506
2.49043
2.45515
2.423
2.39432
2.35406
2.33225
2.30651
2.27703
2.25292
2.21931
2.19778
2.17415
2.1467
2.12579
2.09564
2.07582
2.05551
2.03154
2.00957
1.98154
1.96479
1.94571
1.92622
1.90645
1.88471
1.8713
1.85378
1.83593
1.81304
1.79407
1.77808
1.76212
1.74419
1.72531
1.70526
1.70717
1.82321
2.5761
3.28897
3.376
3.34353
3.2977
3.25766
3.22148
3.18686
1.40001
1.40001
1.40001
1.40001
1.40001
1.40004
1.40719
1.63828
2.68466
3.7719
3.97407
3.9538
3.90498
3.84805
3.78251
3.70548
3.64724
3.6036
3.55899
3.50961
3.46465
3.41771
3.36538
3.32192
3.27651
3.21248
3.17092
3.12727
3.07855
3.04242
2.99274
2.95482
2.9253
2.88092
2.84363
2.80454
2.75307
2.72419
2.68931
2.65239
2.62113
2.57887
2.55385
2.5256
2.48939
2.4634
2.42604
2.39509
2.37135
2.33863
2.3127
2.28075
2.25152
2.23254
2.20485
2.18262
2.15747
2.13036
2.11179
2.08609
2.063
2.03618
2.01131
1.99564
1.97482
1.95739
1.9351
1.918
1.90315
1.88349
1.86385
1.83903
1.82162
1.80451
1.78879
1.76835
1.75388
1.73986
1.72028
1.72727
1.97599
2.8553
3.33889
3.37002
3.33673
3.29472
3.25576
3.22077
1.40001
1.40001
1.40001
1.40001
1.40001
1.40001
1.40007
1.41034
1.65244
2.76655
3.74869
3.94755
3.94283
3.89578
3.82649
3.7584
3.69591
3.63758
3.58577
3.54457
3.50389
3.45475
3.4097
3.36851
3.31157
3.26319
3.21735
3.16245
3.11934
3.07255
3.0236
2.99968
2.9639
2.92317
2.88932
2.83886
2.80014
2.76487
2.72245
2.69062
2.6492
2.61437
2.5931
2.55889
2.52966
2.49927
2.46142
2.43713
2.40465
2.37245
2.345
2.30744
2.28748
2.26489
2.23855
2.21837
2.18899
2.16845
2.14512
2.1172
2.09421
2.06276
2.04371
2.02578
2.00563
1.98744
1.96456
1.95081
1.9328
1.91249
1.89041
1.8667
1.84997
1.83232
1.81607
1.79343
1.78154
1.77132
1.75047
1.73526
1.76228
2.17959
3.06267
3.37036
3.36744
3.33566
3.29333
3.2533
1.40001
1.40001
1.40001
1.40001
1.40001
1.40001
1.40001
1.40011
1.4111
1.68274
2.82244
3.71077
3.94167
3.93492
3.87986
3.81739
3.75326
3.68098
3.6284
3.5881
3.53793
3.48717
3.44781
3.40155
3.35379
3.31068
3.25454
3.20332
3.15933
3.09877
3.06532
3.03776
2.99774
2.96741
2.92735
2.88249
2.84486
2.79968
2.76241
2.72628
2.67775
2.65597
2.62863
2.59401
2.56789
2.53053
2.50213
2.47333
2.43639
2.40904
2.37224
2.34172
2.3236
2.29641
2.27475
2.24901
2.22384
2.20434
2.17549
2.15055
2.12345
2.09385
2.07742
2.05625
2.03774
2.01515
1.99594
1.98193
1.96072
1.94104
1.91669
1.8964
1.879
1.86128
1.84285
1.8201
1.80993
1.79954
1.78239
1.7578
1.75572
1.82652
2.41923
3.21378
3.38946
3.37201
3.32859
3.28375
1.40001
1.40001
1.40001
1.40001
1.40001
1.40001
1.40001
1.40001
1.40012
1.41315
1.72844
2.80386
3.7831
3.93392
3.90599
3.85071
3.78868
3.71516
3.67292
3.63229
3.57951
3.53332
3.48468
3.43549
3.39931
3.34987
3.29056
3.24444
3.18585
3.13725
3.11175
3.07541
3.04039
3.00533
2.9656
2.92815
2.88108
2.83454
2.80096
2.75189
2.71857
2.69825
2.66326
2.63476
2.60134
2.56647
2.54099
2.50417
2.47082
2.44086
2.40034
2.38095
2.35805
2.33216
2.30993
2.27985
2.26088
2.23646
2.20657
2.18369
2.15106
2.12918
2.11008
2.088
2.069
2.04305
2.02809
2.0108
1.98881
1.96888
1.94432
1.92724
1.90836
1.89054
1.8684
1.84907
1.83884
1.82634
1.81068
1.78893
1.76807
1.76968
1.92246
2.66891
3.31189
3.39777
3.36647
3.31767
1.40001
1.40001
1.40001
1.40001
1.40001
1.40001
1.40001
1.40001
1.40001
1.40016
1.41769
1.73959
2.84961
3.82057
3.9068
3.87891
3.83521
3.76458
3.71963
3.67011
3.61765
3.5697
3.51568
3.47788
3.44395
3.38924
3.34031
3.2874
3.21983
3.1783
3.1445
3.11155
3.08011
3.04357
3.01079
2.96865
2.91841
2.87994
2.83329
2.78265
2.76354
2.73351
2.69884
2.67154
2.63327
2.60661
2.57555
2.53682
2.50854
2.4684
2.4379
2.4191
2.39142
2.36853
2.33886
2.31408
2.2954
2.26573
2.24086
2.21418
2.18326
2.1647
2.14108
2.12048
2.09651
2.07322
2.05944
2.03811
2.01825
1.99631
1.97495
1.95811
1.93772
1.9189
1.89367
1.87922
1.86742
1.85306
1.83657
1.81575
1.79665
1.77796
1.78824
2.06727
2.91601
3.35522
3.38861
3.35496
1.40001
1.40001
1.40001
1.40001
1.40001
1.40001
1.40001
1.40001
1.40001
1.40001
1.40022
1.42049
1.75093
2.99703
3.7204
3.87078
3.87588
3.82872
3.76543
3.70391
3.65616
3.61011
3.55504
3.51427
3.47071
3.42273
3.38063
3.32748
3.27026
3.22401
3.1832
3.1452
3.10758
3.08059
3.04813
3.00077
2.95928
2.92026
2.86118
2.83171
2.80729
2.76844
2.73933
2.70301
2.66987
2.64446
2.60642
2.57346
2.54078
2.49902
2.47911
2.45411
2.42715
2.40217
2.3685
2.35035
2.32651
2.29686
2.27465
2.24273
2.21993
2.19795
2.17255
2.15194
2.12266
2.10518
2.08844
2.06594
2.0477
2.02396
2.00712
1.98827
1.9674
1.94624
1.92177
1.9096
1.89519
1.87989
1.85923
1.84041
1.82626
1.80425
1.79289
1.83003
2.26205
3.1052
3.3717
3.37304
1.40001
1.40001
1.40001
1.40001
1.40001
1.40001
1.40001
1.40001
1.40001
1.40001
1.40001
1.40029
1.42251
1.81913
3.00312
3.66874
3.88627
3.87851
3.81389
3.74332
3.69615
3.63922
3.59308
3.56071
3.51555
3.46443
3.40859
3.35316
3.30565
3.2666
3.2279
3.1813
3.15372
3.12742
3.0823
3.03315
2.99663
2.94514
2.89905
2.87887
2.84277
2.8078
2.77687
2.73508
2.70955
2.67812
2.64062
2.61241
2.56978
2.54039
2.51829
2.48777
2.46291
2.42926
2.40223
2.3848
2.35562
2.33161
2.30569
2.27692
2.25646
2.22919
2.20548
2.17924
2.15094
2.13658
2.11563
2.09601
2.07589
2.05471
2.03949
2.01769
1.99727
1.97266
1.95224
1.9389
1.92208
1.9056
1.88104
1.86619
1.85541
1.83765
1.8138
1.8122
1.8946
2.48057
3.22403
3.38522
1.40001
1.40001
1.40001
1.40001
1.40001
1.40001
1.40001
1.40001
1.40001
1.40001
1.40001
1.40001
1.40036
1.42781
1.86458
2.88714
3.71821
3.89199
3.86384
3.80353
3.72144
3.65563
3.62993
3.61336
3.5692
3.51024
3.44886
3.39075
3.3395
3.2977
3.25408
3.22393
3.20663
3.16737
3.11555
3.07478
3.02689
2.96589
2.94369
2.91674
2.87669
2.8484
2.80781
2.77381
2.74683
2.70958
2.67942
2.64372
2.60487
2.58293
2.55264
2.52326
2.49643
2.45768
2.43872
2.41583
2.38668
2.36459
2.33504
2.31374
2.28981
2.26093
2.23784
2.20451
2.18328
2.16628
2.14377
2.12608
2.1025
2.08678
2.06996
2.04676
2.02669
2.00068
1.98365
1.96708
1.94927
1.92939
1.90525
1.8947
1.88343
1.86834
1.84581
1.82488
1.82839
1.98455
2.70167
3.28974
1.40001
1.40001
1.40001
1.40001
1.40001
1.40001
1.40001
1.40001
1.40001
1.40001
1.40001
1.40001
1.40001
1.40045
1.43278
1.80658
2.81545
3.76157
3.87316
3.82641
3.74748
3.69863
3.68235
3.65508
3.59855
3.53878
3.48353
3.43097
3.38259
3.33096
3.29242
3.27959
3.25203
3.20005
3.15331
3.11189
3.04739
3.00863
2.9903
2.95169
2.91833
2.88415
2.84093
2.81125
2.77767
2.74546
2.71697
2.67486
2.64899
2.62059
2.5856
2.56006
2.52415
2.49175
2.47428
2.44538
2.42122
2.39547
2.37017
2.35025
2.32109
2.29458
2.26584
2.2318
2.21553
2.19436
2.17461
2.15426
2.13269
2.1199
2.09912
2.07707
2.0548
2.02983
2.01329
1.99369
1.97578
1.95208
1.93479
1.92556
1.91143
1.89676
1.8754
1.85389
1.83698
1.84797
2.11375
2.87837
1.40001
1.40001
1.40001
1.40001
2.39312
2.3224
2.2573
2.20483
2.15991
2.11804
2.07153
2.01659
1.95644
1.89252
1.83023
1.77453
1.72209
1.67941
1.64613
1.61904
1.5938
1.56601
1.53211
1.48903
1.43713
1.37983
1.33369
1.31332
1.29914
1.27859
1.26134
1.24427
1.22306
1.20104
2.42683
2.36329
2.30363
2.25242
2.20493
2.15536
2.1005
2.03805
1.97129
1.90757
1.84981
1.79908
1.75411
1.71486
1.68228
1.65398
1.62466
1.59183
1.55389
1.50727
1.45316
1.39735
1.3583
1.34012
1.32581
1.30579
1.28751
1.26947
1.24694
1.22388
2.46259
2.40584
2.35152
2.30031
2.24843
2.19231
2.13057
2.06285
1.9941
1.93034
1.87487
1.83161
1.79487
1.75976
1.72513
1.69106
1.65636
1.61927
1.57813
1.52944
1.47481
1.4226
1.39024
1.37164
1.35483
1.33522
1.31608
1.29677
1.27395
1.24922
2.4969
2.44468
2.3927
2.34009
2.28452
2.22364
2.15771
2.08876
2.02204
1.96312
1.91387
1.87501
1.841
1.80711
1.77009
1.72909
1.68625
1.64469
1.60248
1.55476
1.50299
1.4567
1.42754
1.40672
1.38694
1.3674
1.34747
1.32702
1.30434
1.27818
2.52797
2.47781
2.42634
2.37222
2.31405
2.25053
2.18398
2.11895
2.05946
2.00906
1.96655
1.92925
1.89283
1.85426
1.8124
1.76546
1.71604
1.66996
1.62683
1.58328
1.53868
1.49691
1.46606
1.44246
1.42136
1.40182
1.38156
1.36028
1.33715
1.3099
2.55587
2.50653
2.45524
2.40042
2.34078
2.27608
2.21168
2.15399
2.10457
2.0627
2.02349
1.98515
1.94535
1.90064
1.8509
1.79751
1.7457
1.69954
1.65732
1.61784
1.57953
1.54025
1.50425
1.47707
1.45566
1.43611
1.41637
1.39517
1.37121
1.34223
2.58224
2.53341
2.48254
2.42751
2.36705
2.30276
2.2434
2.19468
2.15349
2.11564
2.07664
2.03563
1.99079
1.93827
1.88118
1.826
1.77655
1.7348
1.69717
1.66035
1.62396
1.58559
1.54507
1.51347
1.49058
1.46976
1.45012
1.42945
1.40492
1.37359
2.60851
2.56017
2.50946
2.45407
2.39307
2.33119
2.27944
2.23815
2.20048
2.16275
2.12222
2.07729
2.02571
1.96504
1.90448
1.85445
1.81204
1.77605
1.74314
1.70814
1.67134
1.63271
1.58965
1.55364
1.52855
1.50614
1.4852
1.46386
1.43846
1.40413
2.63665
2.58874
2.53764
2.48114
2.41993
2.36298
2.31862
2.28082
2.24363
2.20454
2.16149
2.11176
2.05263
1.98595
1.92891
1.88825
1.85287
1.82101
1.79092
1.75706
1.71895
1.6787
1.63506
1.596
1.5682
1.54517
1.52289
1.49979
1.47288
1.43572
2.66586
2.61838
2.56643
2.50832
2.44819
2.39753
2.35768
2.32074
2.28309
2.24258
2.19658
2.14118
2.07476
2.00732
1.96044
1.9275
1.8961
1.86646
1.83691
1.80339
1.76414
1.72062
1.67665
1.63744
1.6078
1.58454
1.56148
1.53648
1.50781
1.46947
2.69629
2.64876
2.59541
2.53602
2.47904
2.43387
2.39579
2.35854
2.32016
2.27815
2.22833
2.16656
2.09617
2.03612
2.00029
1.97019
1.93992
1.9114
1.88114
1.84696
1.80588
1.75739
1.71224
1.67528
1.64602
1.62272
1.59905
1.57223
1.54172
1.50409
2.72617
2.67779
2.62252
2.56304
2.5109
2.46969
2.43245
2.39476
2.35531
2.31086
2.25578
2.18832
2.12049
2.07368
2.04363
2.01356
1.98361
1.95571
1.92432
1.88757
1.84199
1.789
1.74393
1.70982
1.68234
1.65851
1.63367
1.60556
1.57417
1.53852
2.75565
2.70563
2.64793
2.59002
2.54303
2.5047
2.46826
2.4304
2.38956
2.34145
2.2795
2.20948
2.15177
2.1159
2.08738
2.05685
2.02763
1.99945
1.96609
1.92504
1.87269
1.81695
1.77478
1.74374
1.71761
1.69259
1.66632
1.63746
1.60644
1.57379
2.784
2.73229
2.6736
2.61895
2.57596
2.53924
2.50327
2.46534
2.42272
2.36914
2.30049
2.23451
2.18922
2.15867
2.13043
2.1001
2.0712
2.0417
2.00595
1.95777
1.89706
1.8438
1.80666
1.77804
1.75256
1.72666
1.69954
1.67055
1.64062
1.61083
2.80975
2.75708
2.70038
2.65095
2.61101
2.57492
2.5388
2.49985
2.45353
2.39311
2.32186
2.26611
2.23028
2.20152
2.17308
2.14301
2.11372
2.08182
2.04126
1.98353
1.91845
1.87245
1.84027
1.81362
1.78863
1.76185
1.73467
1.70756
1.67983
1.65126
2.8343
2.78052
2.72871
2.6852
2.64805
2.61291
2.57616
2.53438
2.48222
2.41446
2.34723
2.30351
2.27272
2.24424
2.21465
2.18472
2.15378
2.11794
2.07096
2.00281
1.94118
1.90555
1.87636
1.85067
1.82576
1.79902
1.7733
1.74878
1.72264
1.69342
2.85993
2.80606
2.75835
2.71888
2.68456
2.65099
2.61376
2.56888
2.50912
2.43643
2.37914
2.34408
2.3148
2.28518
2.2554
2.2251
2.19151
2.15115
2.09454
2.01879
1.97025
1.94194
1.91409
1.8893
1.86554
1.83991
1.81557
1.79194
1.7658
1.73395
2.88757
2.83618
2.79202
2.75431
2.72082
2.68739
2.6489
2.59949
2.53325
2.4628
2.41679
2.38511
2.35555
2.3253
2.29527
2.26389
2.22661
2.17949
2.11296
2.03892
2.0051
1.98052
1.95291
1.92977
1.90794
1.88327
1.8597
1.83596
1.80635
1.76624
2.91596
2.87042
2.82942
2.79248
2.75808
2.72181
2.67918
2.62432
2.55463
2.49329
2.45665
2.42647
2.39512
2.36387
2.33372
2.30013
2.25872
2.20414
2.1282
2.06945
2.04498
2.02051
1.99238
1.97028
1.95012
1.92639
1.90248
1.87589
1.83925
1.78941
2.94671
2.90418
2.8654
2.83029
2.79481
2.75453
2.70685
2.64542
2.57612
2.52847
2.49607
2.46484
2.43314
2.40283
2.3714
2.33456
2.28877
2.22457
2.14788
2.11089
2.0868
2.06022
2.03272
2.01166
1.99117
1.96618
1.94017
1.90975
1.86494
1.80638
2.98189
2.94041
2.9015
2.86493
2.82638
2.78257
2.73009
2.66597
2.60469
2.56517
2.53413
2.50343
2.47282
2.44217
2.40834
2.36764
2.31466
2.24109
2.1786
2.15306
2.12851
2.10059
2.07518
2.0541
2.0307
2.00384
1.97334
1.93407
1.88055
1.82248
3.01928
2.97859
2.93822
2.89705
2.85316