/*--------------------------------*- C++ -*----------------------------------*\
  =========                 |
  \\      /  F ield         | OpenFOAM: The Open Source CFD Toolbox
   \\    /   O peration     | Website:  https://openfoam.org
    \\  /    A nd           | Version:  7
     \\/     M anipulation  |
\*---------------------------------------------------------------------------*/
FoamFile
{
    version     2.0;
    format      ascii;
    class       volScalarField;
    location    "1.6";
    object      p;
}
// * * * * * * * * * * * * * * * * * * * * * * * * * * * * * * * * * * * * * //

dimensions      [1 -1 -2 0 0 0 0];

internalField   nonuniform List<scalar> 
16192
(
1.90282
1.90162
1.90046
1.89966
1.8996
1.89947
1.89731
1.89213
1.8844
1.87942
1.87711
1.87654
1.87773
1.87571
1.8722
1.86773
1.86079
1.84464
1.81224
1.79225
1.78853
1.78755
1.7874
1.7938
1.81596
1.84007
1.84792
1.85002
1.8505
1.8478
1.83197
1.78688
1.75103
1.74433
1.7437
1.74471
1.75132
1.77734
1.83756
1.89284
1.90751
1.90983
1.90589
1.88701
1.83836
1.77175
1.7469
1.73883
1.7361
1.73562
1.73434
1.73379
1.74077
1.75843
1.77594
1.78789
1.7951
1.80025
1.80436
1.8016
1.79548
1.78729
1.77164
1.74115
1.71203
1.69448
1.68184
1.66936
1.65888
1.65364
1.65143
1.65022
1.65276
1.66753
1.68345
1.68711
1.68241
1.67362
1.65891
1.62464
1.56577
1.53403
1.5258
1.52259
1.52025
1.51882
1.51893
1.52432
1.54527
1.55991
1.55926
1.55685
1.55388
1.54701
1.52997
1.49829
1.47179
1.4634
1.46049
1.45883
1.45918
1.46796
1.48938
1.50128
1.5005
1.49885
1.49682
1.49196
1.47851
1.44558
1.41652
1.40973
1.40926
1.40889
1.41079
1.42282
1.44392
1.45256
1.45092
1.44707
1.44245
1.43501
1.42417
1.41357
1.40546
1.4014
1.40026
1.39932
1.39791
1.39517
1.39277
1.3928
1.39353
1.39536
1.39888
1.40397
1.40763
1.40855
1.40832
1.40386
1.39317
1.3872
1.38597
1.38732
1.39308
1.40313
1.4108
1.41526
1.42151
1.42638
1.4256
1.42186
1.42009
1.41919
1.41807
1.41501
1.40816
1.38937
1.34361
1.29306
1.27649
1.27287
1.27075
1.26863
1.26672
1.26902
1.28446
1.31715
1.33295
1.33287
1.33194
1.33093
1.32735
1.31983
1.30716
1.29301
1.28169
1.27119
1.25604
1.23471
1.22514
1.22362
1.22277
1.22216
1.2243
1.23429
1.24072
1.23986
1.23704
1.23615
1.23716
1.23543
1.23209
1.2283
1.22393
1.21991
1.21707
1.21491
1.21014
1.1981
1.17838
1.17033
1.16891
1.16743
1.16543
1.16284
1.16084
1.16283
1.1659
1.16421
1.16149
1.15867
1.15505
1.1496
1.14025
1.12387
1.10822
1.10006
1.09859
1.09976
1.10118
1.10171
1.10191
1.10216
1.1022
1.10219
1.10224
1.1003
1.09494
1.087
1.07296
1.06162
1.05983
1.05909
1.05821
1.05684
1.05657
1.06004
1.06421
1.06809
1.07098
1.07087
1.07007
1.06827
1.06089
1.04376
1.03168
1.02685
1.0226
1.01844
1.01524
1.01506
1.02343
1.88777
1.88617
1.88456
1.88333
1.88282
1.88312
1.88316
1.88073
1.87634
1.8701
1.86547
1.86366
1.86401
1.86312
1.86085
1.85857
1.85442
1.84659
1.82786
1.79422
1.77805
1.77542
1.7747
1.77512
1.78442
1.81124
1.8372
1.84452
1.84479
1.8421
1.83181
1.80112
1.74585
1.72325
1.71874
1.71732
1.71797
1.72637
1.75687
1.81137
1.84845
1.85774
1.86075
1.85803
1.83264
1.77967
1.7296
1.71444
1.70817
1.70541
1.70471
1.70461
1.71342
1.74188
1.77474
1.78749
1.7899
1.79055
1.79089
1.78809
1.78399
1.77816
1.76455
1.73617
1.69298
1.66246
1.64945
1.64175
1.63703
1.63471
1.63343
1.63286
1.63611
1.64701
1.65755
1.66176
1.65909
1.65216
1.64132
1.6195
1.58213
1.53367
1.51391
1.5096
1.50769
1.50637
1.50607
1.50704
1.51387
1.53373
1.54426
1.54311
1.54008
1.53621
1.52898
1.51392
1.48739
1.46486
1.45815
1.45639
1.45531
1.45652
1.46687
1.48774
1.49621
1.49468
1.49264
1.4901
1.48462
1.46939
1.43454
1.40742
1.40205
1.40155
1.401
1.40282
1.41395
1.43451
1.44387
1.44225
1.43785
1.4323
1.42403
1.41331
1.40404
1.39726
1.39333
1.39164
1.39026
1.38844
1.38569
1.38426
1.38442
1.38509
1.38643
1.38907
1.39392
1.39902
1.40044
1.40001
1.39524
1.39042
1.3906
1.39315
1.39684
1.40069
1.40336
1.40597
1.41076
1.41607
1.41635
1.41428
1.41176
1.40891
1.40441
1.39676
1.38403
1.36381
1.33582
1.30748
1.28648
1.27554
1.27158
1.26959
1.26897
1.27611
1.30075
1.32557
1.32723
1.32488
1.32255
1.31962
1.31447
1.30611
1.29457
1.28372
1.27739
1.27348
1.26641
1.25181
1.23281
1.22567
1.22444
1.2241
1.22624
1.23161
1.23451
1.23262
1.22961
1.22833
1.22857
1.22685
1.22375
1.22124
1.21837
1.21562
1.21374
1.21276
1.21084
1.20439
1.18839
1.17103
1.1661
1.16457
1.16244
1.1597
1.15702
1.15706
1.16092
1.16083
1.15849
1.15621
1.15337
1.1497
1.14388
1.13324
1.11403
1.09946
1.09662
1.09732
1.09849
1.09891
1.09923
1.10009
1.10049
1.10013
1.10002
1.10041
1.09584
1.08789
1.07473
1.06113
1.05838
1.05768
1.05672
1.0549
1.05334
1.05665
1.06092
1.06462
1.06764
1.06784
1.0672
1.0661
1.06134
1.04635
1.03115
1.02485
1.02026
1.01608
1.01269
1.01165
1.01708
1.87515
1.87338
1.87127
1.86936
1.86802
1.86706
1.86629
1.86573
1.86376
1.86023
1.85513
1.85085
1.84958
1.84851
1.84642
1.84485
1.84319
1.8395
1.83055
1.80949
1.77732
1.76398
1.7614
1.76107
1.76381
1.7784
1.80423
1.82305
1.82825
1.82837
1.82236
1.80193
1.7649
1.71894
1.70178
1.69714
1.69516
1.69529
1.70352
1.73009
1.7684
1.79005
1.79534
1.79718
1.79356
1.76923
1.7264
1.69045
1.6764
1.6729
1.67323
1.67527
1.68629
1.71565
1.75609
1.77711
1.77859
1.77462
1.76978
1.76568
1.76102
1.75495
1.74379
1.71613
1.66651
1.63264
1.62283
1.61989
1.6178
1.61639
1.61597
1.61748
1.62346
1.62837
1.63013
1.63119
1.62884
1.6223
1.61453
1.604
1.5855
1.55763
1.52086
1.50178
1.49693
1.49543
1.49507
1.49543
1.4965
1.50306
1.52023
1.52917
1.5281
1.52501
1.52133
1.51553
1.50356
1.48078
1.45914
1.45219
1.45084
1.44996
1.45113
1.4613
1.48184
1.48936
1.48766
1.48566
1.48297
1.47727
1.46036
1.42281
1.39734
1.393
1.39225
1.39132
1.39258
1.40325
1.42496
1.435
1.43302
1.42838
1.42292
1.4152
1.40503
1.39566
1.38855
1.38517
1.38401
1.38297
1.38088
1.37744
1.37642
1.37635
1.37654
1.37735
1.37987
1.38555
1.39297
1.39589
1.39629
1.39339
1.39186
1.39403
1.39576
1.39649
1.39742
1.39966
1.40434
1.40757
1.40729
1.40527
1.40166
1.3965
1.38876
1.37654
1.35868
1.33894
1.32412
1.31408
1.30344
1.29014
1.27998
1.27683
1.27743
1.28818
1.31228
1.32124
1.31928
1.31567
1.3116
1.30646
1.30069
1.29437
1.28719
1.27944
1.27334
1.26941
1.26606
1.26052
1.24846
1.23353
1.22883
1.22842
1.22789
1.22725
1.22627
1.2238
1.22146
1.21998
1.22014
1.21989
1.21712
1.21533
1.21377
1.21199
1.21022
1.20876
1.207
1.20367
1.19419
1.1754
1.16415
1.16185
1.1601
1.15786
1.15527
1.15381
1.15603
1.15739
1.15537
1.1528
1.14995
1.14674
1.14348
1.13782
1.1232
1.1025
1.09495
1.09496
1.09606
1.09635
1.09653
1.09711
1.09739
1.09695
1.09612
1.09655
1.09381
1.08711
1.07731
1.06297
1.0578
1.05647
1.05517
1.05342
1.05114
1.05378
1.0582
1.06193
1.06463
1.06455
1.06391
1.06293
1.06005
1.0489
1.03236
1.02406
1.01897
1.01428
1.01036
1.00855
1.01194
1.8636
1.86178
1.85968
1.85769
1.85617
1.85516
1.85443
1.85441
1.85366
1.85085
1.84688
1.84231
1.8382
1.83542
1.83286
1.83063
1.82896
1.82717
1.82294
1.8131
1.79259
1.76389
1.75079
1.74838
1.7495
1.75612
1.77049
1.78643
1.79691
1.79998
1.79847
1.78932
1.77134
1.74431
1.70832
1.68617
1.67966
1.6771
1.67679
1.68259
1.69826
1.71985
1.7334
1.73626
1.73667
1.73229
1.71342
1.67101
1.64231
1.64126
1.64609
1.65314
1.66737
1.69366
1.72196
1.73925
1.74621
1.74652
1.74182
1.73491
1.7255
1.7127
1.69735
1.67978
1.65851
1.62572
1.60571
1.60246
1.60095
1.59966
1.59948
1.60225
1.60613
1.6059
1.60362
1.60164
1.60096
1.59667
1.59061
1.58461
1.57655
1.56341
1.54303
1.51187
1.49096
1.48549
1.48444
1.48477
1.48515
1.48583
1.49168
1.50669
1.51591
1.51559
1.513
1.5098
1.50493
1.49425
1.47185
1.4505
1.44446
1.4432
1.44211
1.44276
1.45347
1.47526
1.482
1.48039
1.47892
1.47645
1.47021
1.44992
1.40893
1.3859
1.38259
1.38145
1.38033
1.3816
1.39289
1.4161
1.42665
1.42501
1.42136
1.41636
1.40856
1.3974
1.3878
1.38198
1.37923
1.37762
1.37547
1.37097
1.36815
1.36767
1.36753
1.36766
1.36857
1.37224
1.38096
1.3907
1.39491
1.39613
1.39367
1.39041
1.39082
1.39099
1.39067
1.39245
1.39656
1.39646
1.39507
1.39358
1.39019
1.38424
1.37516
1.36012
1.33848
1.3218
1.31449
1.31055
1.3076
1.30241
1.29425
1.28994
1.2909
1.30006
1.31096
1.31238
1.30966
1.30562
1.30041
1.2943
1.28819
1.28343
1.2795
1.27546
1.27177
1.26886
1.2669
1.26494
1.26011
1.24727
1.23005
1.22312
1.2218
1.22024
1.21848
1.21616
1.21412
1.21272
1.21216
1.21344
1.21261
1.21063
1.20932
1.20719
1.20465
1.20335
1.20224
1.20001
1.19538
1.18355
1.16644
1.1598
1.15788
1.15546
1.15244
1.14986
1.15013
1.15303
1.15208
1.14945
1.14719
1.14551
1.14376
1.14004
1.1309
1.11124
1.0953
1.09265
1.09336
1.09341
1.09316
1.09335
1.09348
1.09309
1.09232
1.09305
1.09213
1.0865
1.07927
1.06741
1.05889
1.05558
1.05322
1.05207
1.05075
1.05107
1.05523
1.05872
1.0609
1.06066
1.05991
1.05899
1.05706
1.05055
1.03668
1.02478
1.01844
1.01298
1.00852
1.00641
1.00837
1.85426
1.85201
1.85002
1.84838
1.84726
1.8468
1.84667
1.84767
1.84777
1.84455
1.84043
1.83632
1.82947
1.82326
1.81992
1.81689
1.81462
1.8128
1.81061
1.80615
1.7985
1.78332
1.75828
1.7416
1.73841
1.7401
1.74536
1.75212
1.75983
1.76784
1.77084
1.76936
1.76295
1.75369
1.73681
1.7064
1.67574
1.66356
1.66002
1.65753
1.65659
1.6608
1.67318
1.68713
1.69239
1.69341
1.69184
1.68639
1.66154
1.62694
1.6226
1.63176
1.65033
1.67151
1.68433
1.68926
1.69247
1.69727
1.69816
1.69268
1.68287
1.67131
1.66186
1.65487
1.64708
1.63311
1.60496
1.58857
1.58626
1.5852
1.5852
1.58755
1.58654
1.58415
1.58171
1.57909
1.57734
1.57468
1.57027
1.56608
1.56201
1.55618
1.54679
1.53155
1.50411
1.48102
1.47489
1.47429
1.4749
1.47516
1.47578
1.48117
1.49422
1.50472
1.50599
1.50348
1.49985
1.49456
1.48314
1.45913
1.43958
1.43505
1.43376
1.43267
1.43374
1.44706
1.46932
1.47459
1.47352
1.47261
1.47001
1.46211
1.43638
1.39252
1.37321
1.37085
1.36959
1.3685
1.37029
1.38341
1.4094
1.4207
1.41926
1.41555
1.41079
1.40339
1.39241
1.38289
1.37682
1.37276
1.36866
1.36335
1.36027
1.35945
1.35908
1.35889
1.35911
1.36164
1.3704
1.38379
1.39224
1.39509
1.39547
1.39015
1.3827
1.38101
1.38101
1.38265
1.38537
1.38457
1.38202
1.37973
1.37652
1.37105
1.36195
1.34591
1.32387
1.31315
1.31182
1.31146
1.31115
1.30975
1.30628
1.30365
1.30715
1.31099
1.30879
1.30423
1.30039
1.29533
1.2886
1.28141
1.27489
1.27167
1.27158
1.2723
1.27217
1.27172
1.27145
1.27009
1.26651
1.25807
1.23978
1.22173
1.21633
1.21448
1.21194
1.20953
1.20763
1.20622
1.20526
1.20546
1.20731
1.20584
1.20368
1.20131
1.19949
1.19923
1.1989
1.19782
1.1955
1.18796
1.17121
1.15841
1.15518
1.1529
1.15005
1.14737
1.14663
1.14916
1.14891
1.14666
1.14509
1.14426
1.14248
1.1393
1.13386
1.12095
1.10002
1.09158
1.09089
1.09066
1.08985
1.08928
1.08889
1.08831
1.08788
1.08944
1.09005
1.08529
1.07957
1.07223
1.0628
1.05624
1.05269
1.05084
1.04947
1.04803
1.05158
1.05478
1.0566
1.05651
1.05564
1.05453
1.05281
1.04951
1.04189
1.02976
1.01981
1.01259
1.00764
1.00578
1.00682
1.84995
1.84564
1.84317
1.84114
1.83992
1.83943
1.8405
1.84352
1.84408
1.84066
1.8371
1.83288
1.82534
1.81435
1.80847
1.80477
1.80235
1.80085
1.80034
1.7999
1.79762
1.79258
1.78009
1.75387
1.73033
1.72461
1.72446
1.72416
1.72608
1.73259
1.74435
1.75341
1.75483
1.75332
1.74838
1.73387
1.70273
1.66397
1.6425
1.63464
1.62918
1.62561
1.62562
1.63704
1.65883
1.67158
1.67574
1.6768
1.67392
1.65713
1.62668
1.6193
1.62571
1.63636
1.64129
1.64155
1.64018
1.64153
1.64823
1.6519
1.64966
1.64672
1.64463
1.64184
1.63776
1.63004
1.61299
1.58648
1.57598
1.57369
1.57278
1.57197
1.57005
1.5678
1.56533
1.56266
1.55978
1.55609
1.55186
1.54851
1.546
1.54368
1.54004
1.53362
1.52159
1.49609
1.47156
1.46506
1.4649
1.46551
1.46561
1.4661
1.47122
1.48477
1.49602
1.49675
1.49357
1.48943
1.48323
1.46986
1.44443
1.42843
1.4254
1.42427
1.42341
1.42598
1.44292
1.46405
1.46782
1.46685
1.46544
1.462
1.45162
1.41859
1.37484
1.3611
1.35947
1.35821
1.35699
1.35975
1.3783
1.40798
1.41549
1.41383
1.41126
1.4078
1.4013
1.39032
1.37668
1.36532
1.35899
1.35551
1.35362
1.35262
1.35196
1.35142
1.35128
1.35373
1.36354
1.37989
1.38917
1.39113
1.39099
1.38787
1.377
1.36948
1.36917
1.37032
1.37156
1.3707
1.36802
1.36476
1.36137
1.35662
1.3487
1.33492
1.31777
1.3104
1.30883
1.30741
1.30596
1.30727
1.31287
1.31897
1.32118
1.31735
1.30982
1.30075
1.29237
1.28458
1.27552
1.26773
1.26444
1.26476
1.26594
1.26822
1.27052
1.2726
1.27272
1.27095
1.26815
1.26329
1.25134
1.22852
1.21291
1.2084
1.20516
1.2022
1.2004
1.19916
1.19825
1.19774
1.19987
1.20134
1.19916
1.19726
1.19699
1.197
1.19632
1.19466
1.19222
1.18786
1.17614
1.15984
1.1536
1.15135
1.14871
1.14577
1.14366
1.14437
1.14496
1.14323
1.14236
1.14235
1.14196
1.1401
1.13579
1.12688
1.10859
1.0923
1.0883
1.08735
1.08633
1.08551
1.08488
1.08403
1.08335
1.08532
1.0873
1.08348
1.07958
1.07594
1.06876
1.05913
1.05318
1.05013
1.04855
1.04622
1.04813
1.0507
1.05168
1.05171
1.05094
1.04996
1.04878
1.04685
1.04328
1.03599
1.02502
1.01464
1.00792
1.00616
1.00631
1.85076
1.84283
1.83963
1.83739
1.83532
1.83362
1.83472
1.84062
1.84252
1.84055
1.83772
1.83403
1.82514
1.80744
1.79755
1.79477
1.7928
1.7916
1.79195
1.79574
1.79642
1.79413
1.7899
1.77752
1.74669
1.71563
1.70386
1.70103
1.70083
1.70394
1.71421
1.73346
1.74827
1.75336
1.75244
1.74633
1.72978
1.69082
1.63939
1.6134
1.60534
1.60071
1.59823
1.6002
1.61907
1.64781
1.66215
1.66785
1.6704
1.6701
1.65772
1.62537
1.60862
1.60611
1.60509
1.60331
1.6006
1.59922
1.6024
1.61527
1.63293
1.63714
1.63589
1.63348
1.63022
1.62464
1.61283
1.59152
1.57214
1.564
1.55987
1.55807
1.55647
1.55479
1.5526
1.54942
1.54556
1.54084
1.5358
1.53266
1.53104
1.5314
1.53055
1.52793
1.52333
1.51307
1.48791
1.46264
1.45651
1.45647
1.45686
1.45667
1.45709
1.46279
1.4774
1.48732
1.48681
1.48301
1.47844
1.47109
1.4554
1.43072
1.41897
1.41704
1.41611
1.41567
1.42095
1.4418
1.45939
1.46031
1.45883
1.45706
1.45298
1.43876
1.39801
1.35916
1.35028
1.34881
1.34707
1.34592
1.35198
1.37883
1.40695
1.41234
1.4123
1.41042
1.40693
1.39839
1.37797
1.35556
1.35
1.34861
1.34709
1.34597
1.34523
1.34462
1.3448
1.34919
1.36027
1.37419
1.38176
1.38393
1.38427
1.38198
1.3726
1.35818
1.35446
1.355
1.35519
1.35451
1.35273
1.34969
1.34589
1.34131
1.3349
1.32505
1.31331
1.30841
1.30732
1.30626
1.30524
1.3075
1.31808
1.32822
1.32743
1.32133
1.31328
1.30167
1.28541
1.26996
1.2617
1.25804
1.25726
1.25817
1.25889
1.26099
1.26876
1.27363
1.27372
1.27244
1.2705
1.26724
1.26011
1.24156
1.21546
1.20189
1.19709
1.19429
1.19275
1.19185
1.19123
1.19074
1.19219
1.19669
1.19609
1.19422
1.19399
1.19426
1.19377
1.19235
1.19023
1.18694
1.17916
1.16309
1.15226
1.14927
1.14672
1.14379
1.14133
1.14087
1.14206
1.14124
1.14008
1.13907
1.13765
1.13578
1.13327
1.12824
1.11655
1.0973
1.08739
1.08525
1.0842
1.08324
1.0823
1.08106
1.07963
1.08139
1.08516
1.08264
1.07918
1.07665
1.07151
1.06233
1.05492
1.05161
1.0489
1.04333
1.04291
1.04522
1.04568
1.04566
1.0457
1.04589
1.04592
1.04509
1.04309
1.03787
1.02966
1.02003
1.0107
1.00534
1.00457
1.85805
1.84361
1.83828
1.83583
1.83368
1.83202
1.83307
1.84251
1.84575
1.84293
1.839
1.83442
1.82421
1.8039
1.79051
1.78727
1.78528
1.78385
1.78441
1.7918
1.79777
1.79809
1.79646
1.79182
1.77199
1.72441
1.68974
1.68218
1.68187
1.6834
1.6896
1.70972
1.74236
1.75685
1.7566
1.75249
1.74329
1.71734
1.65811
1.60562
1.5876
1.5816
1.57807
1.57672
1.58437
1.61669
1.64901
1.66295
1.67074
1.67386
1.67177
1.65223
1.60525
1.58172
1.57716
1.57495
1.57261
1.57127
1.57327
1.58589
1.61492
1.62954
1.62919
1.62711
1.62362
1.61768
1.60756
1.59274
1.57456
1.5587
1.55119
1.54874
1.54732
1.54568
1.5431
1.53918
1.53351
1.5267
1.52186
1.51913
1.51738
1.51794
1.52222
1.52246
1.52015
1.5163
1.50587
1.47808
1.45279
1.44771
1.44769
1.44751
1.44687
1.44735
1.45471
1.47068
1.47837
1.47666
1.47241
1.4676
1.4593
1.44186
1.41945
1.41111
1.40991
1.40915
1.40942
1.41827
1.44094
1.45257
1.45181
1.45059
1.44905
1.4431
1.42198
1.37573
1.34591
1.34013
1.33823
1.33632
1.33629
1.34821
1.38563
1.41521
1.41778
1.41568
1.41097
1.40195
1.37966
1.35046
1.34218
1.34142
1.34039
1.33946
1.33885
1.33851
1.33994
1.3466
1.35945
1.37106
1.3755
1.37685
1.37673
1.37492
1.36849
1.352
1.3386
1.3373
1.33734
1.33699
1.33583
1.33375
1.33068
1.32669
1.3217
1.31551
1.31026
1.30749
1.30635
1.30536
1.30586
1.31342
1.32798
1.33404
1.32948
1.32207
1.31438
1.30158
1.27953
1.25914
1.25407
1.25261
1.2522
1.25264
1.25286
1.25335
1.25896
1.27065
1.27479
1.27445
1.27324
1.27085
1.26617
1.25328
1.2239
1.1972
1.1887
1.18577
1.18413
1.18304
1.18221
1.18203
1.18577
1.19275
1.193
1.19187
1.19173
1.19235
1.19262
1.19204
1.19077
1.18817
1.18133
1.16541
1.15126
1.14737
1.14501
1.14237
1.14002
1.13888
1.13887
1.13769
1.13633
1.13518
1.13377
1.13191
1.12978
1.12687
1.12083
1.10688
1.08992
1.08359
1.08228
1.08125
1.08017
1.07881
1.07705
1.07805
1.08318
1.08248
1.07908
1.07655
1.07246
1.06563
1.05824
1.05223
1.04634
1.03871
1.03763
1.04024
1.0411
1.04121
1.04143
1.0421
1.04306
1.04392
1.04416
1.04093
1.03368
1.02558
1.01578
1.00388
0.999783
1.86663
1.84869
1.83864
1.83602
1.83457
1.83333
1.83335
1.83628
1.83611
1.83278
1.82953
1.82595
1.81872
1.80277
1.78905
1.78349
1.78067
1.77889
1.77879
1.7881
1.80225
1.8039
1.8013
1.79661
1.78316
1.73908
1.68651
1.67125
1.66991
1.67102
1.67414
1.68795
1.72921
1.76021
1.761
1.75764
1.75063
1.73211
1.67957
1.6061
1.57495
1.56687
1.56339
1.56139
1.56289
1.58746
1.64205
1.67239
1.67662
1.67562
1.67233
1.66192
1.62356
1.57272
1.55769
1.55497
1.55392
1.5538
1.55666
1.56649
1.59111
1.61618
1.62046
1.61886
1.61526
1.609
1.59988
1.58944
1.57732
1.56297
1.55022
1.54353
1.54088
1.53863
1.53545
1.5303
1.52214
1.51392
1.50925
1.5065
1.5046
1.50489
1.51147
1.51758
1.51744
1.51509
1.50985
1.49587
1.46374
1.44211
1.43864
1.4384
1.43772
1.43704
1.43872
1.44886
1.46464
1.46941
1.46674
1.46235
1.45735
1.44807
1.42943
1.41044
1.40458
1.40381
1.4034
1.40513
1.4172
1.43812
1.44486
1.44402
1.44255
1.43944
1.42949
1.40026
1.35451
1.33523
1.33141
1.32958
1.32832
1.33241
1.35611
1.39625
1.41126
1.41067
1.40785
1.40092
1.3826
1.35242
1.33713
1.33491
1.33444
1.33372
1.33319
1.3334
1.33718
1.34749
1.36115
1.36779
1.37008
1.37074
1.36973
1.36747
1.36234
1.34686
1.32547
1.31931
1.31921
1.3194
1.31895
1.3177
1.31586
1.31338
1.31009
1.30723
1.30707
1.30664
1.3059
1.30541
1.30974
1.32299
1.33445
1.33338
1.32687
1.32045
1.31349
1.30016
1.27861
1.25765
1.24889
1.24737
1.24693
1.24706
1.24675
1.24643
1.24845
1.25937
1.27185
1.27602
1.27563
1.27342
1.26989
1.26169
1.2363
1.19857
1.18119
1.17729
1.17505
1.17329
1.17226
1.17293
1.18158
1.19172
1.1917
1.19053
1.19025
1.1901
1.18948
1.18845
1.18708
1.18487
1.17963
1.16777
1.15254
1.14562
1.14271
1.13983
1.13712
1.13546
1.1352
1.13411
1.13257
1.13139
1.1302
1.12876
1.12753
1.12662
1.12325
1.11411
1.0962
1.08351
1.08081
1.07973
1.07872
1.07754
1.07573
1.07523
1.07889
1.08139
1.0787
1.07563
1.07232
1.06719
1.05989
1.05228
1.04416
1.03471
1.03293
1.03589
1.03718
1.03749
1.03831
1.04021
1.04198
1.04354
1.04524
1.04418
1.0376
1.02944
1.02039
1.00695
0.995812
1.87099
1.86377
1.84907
1.83821
1.83505
1.83335
1.83445
1.83491
1.83132
1.82739
1.82419
1.82056
1.81423
1.80277
1.78983
1.78336
1.77981
1.77777
1.77759
1.78875
1.80196
1.8015
1.79888
1.79471
1.78297
1.75281
1.70282
1.67365
1.6687
1.66858
1.67078
1.67931
1.70653
1.74938
1.76276
1.75926
1.75053
1.7334
1.69502
1.62495
1.57698
1.56512
1.56067
1.5585
1.55906
1.57433
1.61722
1.65289
1.66261
1.66418
1.66339
1.65777
1.63558
1.58535
1.54826
1.54158
1.5411
1.54261
1.54663
1.55433
1.56913
1.5911
1.60588
1.60735
1.60503
1.60031
1.59352
1.58584
1.57784
1.56738
1.55344
1.54163
1.53568
1.53192
1.52749
1.52069
1.51118
1.503
1.49857
1.49592
1.49421
1.49548
1.5042
1.50986
1.50933
1.50859
1.50708
1.50077
1.48202
1.44909
1.43309
1.43037
1.42975
1.42893
1.42836
1.43193
1.44401
1.45781
1.46023
1.45692
1.45277
1.44773
1.43784
1.41893
1.40326
1.39916
1.39878
1.39876
1.4018
1.4153
1.4329
1.4361
1.43426
1.43159
1.42645
1.41288
1.37857
1.3406
1.32987
1.32732
1.32606
1.32796
1.34038
1.36903
1.39542
1.39964
1.39781
1.39361
1.38261
1.36049
1.33833
1.33082
1.32947
1.32888
1.32829
1.32895
1.33676
1.3532
1.36158
1.36359
1.36449
1.36392
1.36182
1.35918
1.3545
1.34064
1.31626
1.304
1.30268
1.30241
1.30203
1.30126
1.30071
1.30017
1.29919
1.30014
1.30113
1.3015
1.30336
1.30811
1.31758
1.32786
1.33212
1.32963
1.32282
1.31624
1.30994
1.29916
1.28046
1.25903
1.24466
1.24088
1.2407
1.24139
1.24148
1.24126
1.24282
1.25365
1.27246
1.27967
1.27883
1.27605
1.27227
1.26538
1.24662
1.20641
1.17637
1.16889
1.1662
1.16444
1.16364
1.16484
1.17597
1.18935
1.19019
1.18931
1.18897
1.18863
1.18789
1.18699
1.18584
1.18415
1.18086
1.17076
1.15278
1.14328
1.13987
1.13669
1.13372
1.13191
1.13149
1.13068
1.129
1.12786
1.12694
1.12582
1.12449
1.12319
1.12125
1.11642
1.10453
1.08703
1.08064
1.07941
1.0782
1.07654
1.07419
1.07267
1.07626
1.08179
1.08014
1.07668
1.07316
1.06804
1.06056
1.05182
1.04194
1.03099
1.02905
1.03242
1.03416
1.03464
1.03572
1.03954
1.04331
1.04555
1.047
1.04668
1.04038
1.03212
1.02334
1.00997
0.993487
1.87173
1.86938
1.86316
1.84947
1.83836
1.8345
1.83242
1.83038
1.82738
1.82345
1.81867
1.81221
1.80377
1.79571
1.79076
1.78674
1.78318
1.78124
1.78107
1.78485
1.78949
1.78867
1.78558
1.78159
1.77362
1.75677
1.73165
1.70089
1.67749
1.67185
1.67321
1.68082
1.69758
1.72207
1.73908
1.7406
1.73536
1.72354
1.69975
1.65826
1.60468
1.57336
1.56574
1.56341
1.56362
1.5756
1.6042
1.63141
1.64184
1.64397
1.64327
1.64048
1.63057
1.60562
1.56505
1.54024
1.53678
1.53715
1.54086
1.54772
1.5563
1.56639
1.57838
1.58895
1.59217
1.59121
1.58849
1.58396
1.57803
1.56994
1.55727
1.54161
1.5307
1.52408
1.51764
1.50986
1.50214
1.49626
1.49222
1.48955
1.4882
1.49069
1.4998
1.50238
1.50115
1.50025
1.49959
1.49687
1.48814
1.46681
1.4377
1.42588
1.42328
1.42255
1.42165
1.42195
1.4269
1.4385
1.4499
1.45099
1.44772
1.44431
1.43934
1.42917
1.4106
1.39737
1.39458
1.39445
1.39486
1.39851
1.41114
1.42466
1.42536
1.42285
1.41952
1.41399
1.39941
1.36522
1.33381
1.32748
1.32639
1.32791
1.3345
1.34831
1.36971
1.38453
1.38527
1.38238
1.37681
1.36554
1.34709
1.33184
1.3273
1.32611
1.32554
1.32637
1.33627
1.35169
1.35741
1.35845
1.35825
1.35621
1.35364
1.35103
1.3473
1.338
1.31696
1.29429
1.28704
1.28618
1.28594
1.286
1.28659
1.28777
1.28882
1.29093
1.29314
1.29671
1.30307
1.3137
1.32411
1.32769
1.32836
1.32505
1.3188
1.31235
1.30593
1.2969
1.2819
1.26193
1.24461
1.2369
1.23618
1.23723
1.23795
1.23814
1.23979
1.24837
1.26236
1.27111
1.27286
1.27167
1.26854
1.26409
1.25186
1.21846
1.17811
1.16315
1.15985
1.15845
1.15774
1.15823
1.16793
1.18549
1.18944
1.18897
1.18918
1.1886
1.18775
1.18697
1.18596
1.18429
1.17998
1.1686
1.15002
1.14048
1.13716
1.13396
1.1305
1.12834
1.12747
1.1272
1.12549
1.12421
1.12346
1.12289
1.12216
1.12115
1.12014
1.11745
1.11065
1.09577
1.08203
1.07893
1.07756
1.07589
1.07354
1.07168
1.07313
1.07754
1.07734
1.07431
1.0714
1.06714
1.06026
1.051
1.04024
1.02908
1.02688
1.03055
1.03249
1.03275
1.03301
1.035
1.03852
1.04183
1.04509
1.04721
1.0419
1.0336
1.02502
1.01183
0.993187
1.87362
1.87036
1.86704
1.86124
1.84912
1.83539
1.8287
1.82598
1.82363
1.82065
1.81553
1.80737
1.79961
1.79332
1.78968
1.7882
1.78845
1.78716
1.78366
1.78063
1.77935
1.77755
1.77268
1.76451
1.75544
1.74781
1.74165
1.7343
1.72042
1.70091
1.6921
1.69265
1.69791
1.7056
1.71368
1.71606
1.71238
1.70294
1.68837
1.66901
1.64431
1.61311
1.58804
1.58053
1.57931
1.58361
1.59705
1.61191
1.61976
1.62227
1.62197
1.61963
1.61581
1.60827
1.59055
1.55924
1.53731
1.53482
1.53678
1.5413
1.54637
1.54995
1.5533
1.56029
1.57282
1.58199
1.58278
1.58135
1.57826
1.57267
1.56197
1.54197
1.52208
1.51259
1.50719
1.50232
1.49737
1.49297
1.48931
1.48685
1.4857
1.48843
1.49473
1.49521
1.49372
1.49245
1.49121
1.48905
1.48476
1.47515
1.45522
1.43058
1.42025
1.41727
1.41638
1.41529
1.41629
1.42149
1.43203
1.44218
1.44281
1.43998
1.43719
1.43247
1.42233
1.40357
1.39173
1.3899
1.38971
1.38996
1.3926
1.40386
1.41529
1.41521
1.41262
1.40977
1.40472
1.39085
1.36039
1.33432
1.32939
1.32905
1.3313
1.33637
1.34504
1.35887
1.36982
1.37012
1.36743
1.3632
1.35512
1.34083
1.3284
1.32531
1.32479
1.32661
1.33632
1.34674
1.35082
1.35239
1.35148
1.34879
1.34633
1.34389
1.34097
1.33515
1.31861
1.28852
1.27217
1.27126
1.27141
1.27197
1.2727
1.27402
1.27607
1.27938
1.28508
1.29368
1.30617
1.31691
1.32114
1.32298
1.32249
1.31922
1.3139
1.30761
1.30083
1.29276
1.28216
1.26757
1.24888
1.23664
1.23393
1.2345
1.23539
1.23585
1.23758
1.2458
1.2585
1.2657
1.26702
1.26644
1.2639
1.25981
1.25121
1.22675
1.18444
1.16145
1.15656
1.15474
1.15381
1.15347
1.1587
1.17685
1.1898
1.1925
1.19205
1.19089
1.19001
1.18909
1.18771
1.18486
1.17921
1.16758
1.14889
1.13758
1.134
1.13082
1.12723
1.12487
1.12377
1.12373
1.12279
1.12132
1.12062
1.1203
1.11963
1.11824
1.11659
1.11545
1.11259
1.10411
1.0875
1.07902
1.07734
1.07584
1.07359
1.07106
1.07098
1.07468
1.07597
1.07384
1.07141
1.0672
1.06065
1.0521
1.04044
1.02677
1.02381
1.02773
1.0301
1.03049
1.03063
1.03249
1.0358
1.0391
1.04364
1.04713
1.04209
1.0337
1.02598
1.01513
0.995295
1.87605
1.87422
1.8717
1.8677
1.8601
1.84508
1.82935
1.8216
1.81815
1.81481
1.81028
1.80365
1.79974
1.7981
1.79698
1.79487
1.79153
1.78693
1.78089
1.77479
1.77028
1.76555
1.75636
1.74347
1.73935
1.73899
1.74199
1.7458
1.74677
1.74218
1.72576
1.70601
1.69685
1.69417
1.69296
1.69048
1.68621
1.68134
1.67415
1.6668
1.65951
1.64739
1.62507
1.60115
1.5935
1.5923
1.59355
1.59697
1.59903
1.60005
1.60161
1.60179
1.59954
1.59687
1.5937
1.58364
1.55987
1.53838
1.53476
1.53602
1.53815
1.53803
1.53754
1.53891
1.54723
1.56383
1.57732
1.58034
1.57891
1.57457
1.56486
1.54055
1.51089
1.50225
1.50016
1.49791
1.49461
1.4908
1.48796
1.4858
1.48604
1.49016
1.48999
1.48832
1.48668
1.48482
1.48256
1.47976
1.47694
1.47322
1.46553
1.44887
1.42563
1.41496
1.41193
1.41094
1.41011
1.41086
1.41519
1.42576
1.436
1.43619
1.43393
1.43177
1.42713
1.41577
1.39545
1.38404
1.38265
1.38235
1.38239
1.38454
1.39544
1.40679
1.40711
1.40562
1.40385
1.39985
1.38735
1.35856
1.33472
1.33019
1.32932
1.32903
1.32999
1.33415
1.34543
1.35713
1.35846
1.35713
1.35541
1.35074
1.34082
1.33115
1.32872
1.32952
1.33382
1.33859
1.34186
1.34448
1.34431
1.3418
1.33937
1.33709
1.33452
1.32988
1.31551
1.28452
1.26109
1.25814
1.25839
1.25901
1.25965
1.26069
1.26343
1.26838
1.27784
1.29328
1.307
1.31328
1.31594
1.31684
1.31533
1.31206
1.30782
1.30211
1.2949
1.28707
1.27978
1.2711
1.2578
1.24099
1.23376
1.23297
1.23361
1.23417
1.23655
1.24428
1.25398
1.25872
1.25921
1.25816
1.25598
1.25255
1.24638
1.22984
1.19361
1.16327
1.15604
1.1535
1.1519
1.1511
1.15228
1.165
1.18305
1.18736
1.18687
1.18691
1.18633
1.18534
1.1842
1.18234
1.17838
1.16837
1.14922
1.13511
1.13109
1.12799
1.12444
1.12187
1.12076
1.12058
1.12019
1.11868
1.11762
1.11715
1.11645
1.11561
1.11474
1.11376
1.11223
1.10839
1.09696
1.08189
1.07747
1.07592
1.07377
1.07082
1.0697
1.07292
1.07391
1.07133
1.06854
1.06489
1.06005
1.05298
1.04085
1.0256
1.02135
1.02503
1.02812
1.02928
1.03031
1.03151
1.0328
1.03377
1.03656
1.04226
1.04092
1.03308
1.02602
1.01852
1.00017
1.87598
1.87384
1.87331
1.8713
1.86628
1.85448
1.83513
1.82037
1.81336
1.80847
1.80471
1.80234
1.80353
1.80718
1.80572
1.80228
1.79785
1.79181
1.78358
1.7733
1.75829
1.74162
1.73058
1.72808
1.72973
1.73588
1.74698
1.75916
1.76692
1.76944
1.76446
1.73818
1.70329
1.6849
1.67545
1.66584
1.65962
1.65937
1.66591
1.66859
1.66728
1.66398
1.65706
1.64007
1.61277
1.59599
1.59048
1.58731
1.58359
1.58104
1.58048
1.58446
1.59082
1.59091
1.59026
1.58943
1.58225
1.55712
1.53328
1.52804
1.52651
1.5249
1.52419
1.52433
1.52978
1.54604
1.56323
1.56978
1.57072
1.56919
1.56184
1.53915
1.50668
1.4958
1.49433
1.49259
1.49124
1.48991
1.48761
1.48829
1.49194
1.49154
1.48746
1.48253
1.47987
1.47754
1.47452
1.47119
1.46888
1.46773
1.46567
1.46061
1.44628
1.4225
1.40994
1.40645
1.40511
1.40377
1.4042
1.40893
1.42164
1.43125
1.43061
1.42865
1.42654
1.42113
1.40611
1.38437
1.37524
1.37443
1.37401
1.37377
1.37572
1.38771
1.40153
1.40467
1.40538
1.40471
1.40077
1.38737
1.35472
1.32705
1.32136
1.32028
1.319
1.31891
1.32326
1.33533
1.34787
1.3524
1.35188
1.35067
1.34844
1.34368
1.33801
1.33495
1.3335
1.33296
1.33354
1.33539
1.33632
1.33491
1.33235
1.32966
1.32643
1.32092
1.30926
1.28636
1.2587
1.24796
1.24772
1.24828
1.24906
1.25012
1.25307
1.25916
1.26988
1.28599
1.30005
1.30559
1.30728
1.30786
1.30676
1.30363
1.30058
1.29659
1.29037
1.28278
1.27628
1.27128
1.26413
1.2523
1.2385
1.23368
1.2332
1.23338
1.23408
1.23931
1.24711
1.25038
1.25062
1.24875
1.24586
1.24258
1.23801
1.22829
1.20547
1.17252
1.15709
1.15402
1.15233
1.15128
1.15134
1.15633
1.17256
1.18413
1.18454
1.1841
1.18439
1.18334
1.18203
1.18042
1.17675
1.16781
1.15056
1.13451
1.12886
1.12574
1.12228
1.11963
1.11835
1.11793
1.11774
1.11638
1.11491
1.11408
1.11342
1.11335
1.11419
1.1146
1.11383
1.11108
1.10364
1.08833
1.07831
1.07599
1.07391
1.07095
1.069
1.07106
1.07258
1.07005
1.06701
1.06361
1.06021
1.0548
1.04358
1.02706
1.01913
1.02157
1.02472
1.02553
1.02616
1.02791
1.02962
1.03033
1.03161
1.03706
1.03972
1.03327
1.02672
1.02121
1.00472
1.87969
1.87667
1.873
1.86856
1.86388
1.85743
1.84369
1.82153
1.80939
1.80637
1.80478
1.80524
1.81095
1.81475
1.81291
1.81092
1.80836
1.80335
1.79177
1.76608
1.73595
1.72013
1.71621
1.71549
1.71829
1.73325
1.75556
1.77453
1.78461
1.78766
1.7869
1.77224
1.72695
1.67844
1.65618
1.64783
1.6437
1.64223
1.65016
1.66911
1.67725
1.67684
1.67276
1.66566
1.64834
1.61357
1.58653
1.57658
1.57218
1.56934
1.56812
1.56931
1.5813
1.59346
1.59475
1.5933
1.58855
1.57461
1.54327
1.52068
1.51582
1.51471
1.51424
1.51455
1.52008
1.53616
1.55248
1.55748
1.55803
1.5572
1.55325
1.53791
1.50872
1.49225
1.48918
1.48754
1.48535
1.48471
1.48798
1.49371
1.49537
1.49228
1.4872
1.47933
1.47203
1.46902
1.46671
1.46465
1.46387
1.46389
1.46413
1.46257
1.45731
1.44161
1.41594
1.40365
1.40055
1.39909
1.39743
1.39736
1.40353
1.41923
1.42669
1.42533
1.42349
1.42096
1.41338
1.39421
1.37396
1.36732
1.36628
1.36564
1.36544
1.36969
1.3888
1.40541
1.40865
1.4088
1.40672
1.4007
1.38118
1.33979
1.31344
1.30916
1.30757
1.3064
1.30685
1.31384
1.32943
1.34466
1.35042
1.35158
1.35261
1.35273
1.35051
1.34421
1.33436
1.32807
1.32697
1.32638
1.32719
1.32766
1.32553
1.32199
1.31697
1.30926
1.29928
1.2862
1.26597
1.24569
1.23952
1.23976
1.24055
1.24184
1.24447
1.2503
1.26128
1.2765
1.28813
1.29292
1.2953
1.29697
1.29805
1.29566
1.29338
1.29141
1.28729
1.28057
1.27394
1.26932
1.2656
1.25974
1.24863
1.23675
1.23272