/*--------------------------------*- C++ -*----------------------------------*\
  =========                 |
  \\      /  F ield         | OpenFOAM: The Open Source CFD Toolbox
   \\    /   O peration     | Website:  https://openfoam.org
    \\  /    A nd           | Version:  7
     \\/     M anipulation  |
\*---------------------------------------------------------------------------*/
FoamFile
{
    version     2.0;
    format      ascii;
    class       volScalarField;
    location    "19";
    object      rho;
}
// * * * * * * * * * * * * * * * * * * * * * * * * * * * * * * * * * * * * * //

dimensions      [1 -3 0 0 0 0 0];

internalField   nonuniform List<scalar> 
3328
(
254.048
22.7838
9.84081
9.44057
8.71898
8.6984
8.83018
7.10363
5.89638
5.70872
5.83562
6.0847
6.34939
6.55727
6.7696
7.88107
10.3361
11.487
10.2987
7.48476
5.04518
4.42145
4.44695
4.53446
253.322
22.6615
9.75937
9.36173
8.64784
8.59998
8.73286
7.08803
5.88559
5.7168
5.8427
6.0982
6.36626
6.57429
6.77296
7.81227
10.1188
11.2352
10.2966
7.63524
5.12344
4.43008
4.42856
4.51837
252.314
22.416
9.67377
9.2886
8.57597
8.4642
8.56626
7.05454
5.86431
5.73748
5.85776
6.1202
6.38635
6.60034
6.79509
7.72753
9.79483
10.9032
10.2761
7.89064
5.33911
4.50267
4.42338
4.51093
251.256
22.0147
9.62405
9.2525
8.53134
8.3328
8.37692
7.00634
5.78946
5.73584
5.84281
6.111
6.37478
6.5981
6.79066
7.62059
9.41497
10.5425
10.2194
8.19664
5.72055
4.60096
4.41571
4.49226
250.537
21.5607
9.64108
9.27241
8.54744
8.27027
8.23946
7.0105
5.69241
5.73108
5.78704
6.05129
6.31286
6.55444
6.76199
7.51994
9.0243
10.2128
10.1025
8.47032
6.23981
4.72768
4.43349
4.4832
249.976
21.1125
9.66892
9.30405
8.61115
8.28598
8.20188
7.15942
5.64453
5.72077
5.68405
5.94438
6.21726
6.48445
6.71556
7.41341
8.63996
9.94468
9.97502
8.73462
6.83529
4.92171
4.48851
4.45486
249.356
20.733
9.66221
9.30138
8.68013
8.32664
8.20539
7.51157
5.79948
5.64429
5.60306
5.85445
6.13699
6.41734
6.67357
7.26853
8.2976
9.63946
9.85165
8.99678
7.4283
5.24809
4.54142
4.41959
248.746
20.4546
9.61707
9.24077
8.68508
8.34815
8.15223
7.9399
6.22052
5.61468
5.5797
5.80219
6.08736
6.36516
6.6488
7.10492
8.05978
9.25962
9.6622
9.22486
7.94857
5.78894
4.631
4.41123
248.259
20.1355
9.51697
9.14927
8.63276
8.35102
8.08497
8.17768
6.91208
5.69001
5.66296
5.78938
6.05899
6.32723
6.612
6.97386
7.77196
8.80821
9.39374
9.29753
8.33933
6.48873
4.8643
4.35671
248.161
19.5282
9.36704
9.0921
8.61871
8.37014
8.06688
8.15362
7.61223
6.00882
5.88274
5.79997
6.03237
6.28875
6.55475
6.84987
7.47601
8.31158
9.0875
9.18888
8.56116
7.15558
5.28092
4.52984
248.651
18.2396
9.23719
9.0997
8.67391
8.41243
8.09457
8.01347
8.00134
6.63029
5.98593
5.86411
6.02426
6.26344
6.5028
6.74952
7.16137
7.85005
8.68373
9.00122
8.71547
7.65486
5.90746
4.76783
250.691
15.8068
9.10473
9.11842
8.76256
8.44885
8.09441
7.87515
7.98971
7.235
6.17729
6.0341
6.05059
6.25764
6.46053
6.65689
6.89726
7.46177
8.2457
8.87443
8.84025
8.01352
6.61793
5.20345
255.734
11.0306
8.99337
9.12757
8.84133
8.47816
8.07793
7.75195
7.74361
7.58667
6.52801
6.21553
6.11972
6.25839
6.43397
6.592
6.75085
7.1394
7.84928
8.73774
8.97366
8.43012
7.29258
5.79208
261.716
5.99735
8.66125
9.08994
8.90944
8.5223
8.08955
7.71641
7.55231
7.6489
6.97137
6.33481
6.24886
6.29209
6.43264
6.56872
6.6963
6.90891
7.53491
8.47241
9.04989
8.90189
7.87287
6.45232
265.102
4.14548
8.08048
8.98864
8.91184
8.54496
8.14599
7.7863
7.52654
7.57384
7.32533
6.52278
6.4039
6.33429
6.43526
6.5531
6.68372
6.81318
7.23365
8.06513
9.0786
9.14129
8.38182
7.09979
266.919
3.4667
7.57714
8.73634
8.85567
8.61056
8.27684
7.95575
7.65043
7.55978
7.52796
6.82284
6.47654
6.40964
6.45658
6.55317
6.6766
6.77981
6.96676
7.58508
8.69164
9.22033
8.82087
7.64151
267.687
3.05769
7.16078
8.50673
8.81419
8.73431
8.45224
8.22894
7.93292
7.71088
7.60448
7.03983
6.54641
6.50397
6.4822
6.56295
6.66362
6.76599
6.84266
7.19163
7.97153
8.9427
8.96303
8.04461
267.673
2.86821
6.86536
8.32022
8.80828
8.89029
8.74899
8.50847
8.24102
7.93943
7.6215
7.05065
6.49215
6.5578
6.49448
6.56578
6.66596
6.77318
6.81629
6.95952
7.33061
8.33375
8.77402
8.28906
267.048
2.82004
6.60746
8.19944
8.8262
9.10566
9.05615
8.80859
8.5041
8.11231
7.61198
6.79841
6.32396
6.46941
6.48695
6.57069
6.68788
6.80135
6.85509
6.86079
7.05603
7.61318
8.32432
8.33167
265.434
2.73665
6.36108
8.06597
8.87394
9.33554
9.37253
9.10836
8.69887
8.21983
7.51801
6.40685
5.98372
6.23974
6.44957
6.5995
6.7574
6.88335
6.96192
6.94297
7.01732
7.18182
7.86004
8.19265
263.701
2.71411
6.20221
7.90999
8.91535
9.50562
9.63012
9.40024
8.85276
8.26416
7.31902
5.92963
5.51056
5.87334
6.33967
6.61894
6.86066
7.0337
7.13397
7.12554
7.13501
7.15345
7.53175
7.97113
262.049
2.77083
6.16971
7.75938
8.86387
9.49164
9.76656
9.60652
9.02205
8.36129
7.11725
5.49824
5.08917
5.45943
6.1259
6.61878
6.95591
7.19913
7.33028
7.37978
7.37564
7.35661
7.46775
7.80024
260.323
2.94152
6.19116
7.65222
8.64396
9.24509
9.68309
9.69782
9.20139
8.47665
6.98191
5.20027
4.81093
5.09426
5.82294
6.55595
7.0125
7.3381
7.52215
7.58877
7.58656
7.58331
7.52054
7.70272
258.764
3.37557
6.27272
7.61995
8.36073
8.83613
9.38474
9.60775
9.3093
8.6451
6.99778
5.08128
4.69085
4.8626
5.49607
6.35763
6.98798
7.38502
7.61072
7.69331
7.70983
7.7496
7.64568
7.65218
257.775
3.49913
6.36224
7.61455
8.09763
8.44111
8.91486
9.31333
9.32884
8.75628
7.14818
5.10882
4.68208
4.75301
5.21289
6.00152
6.77991
7.31924
7.60832
7.71038
7.72426
7.76265
7.7555
7.64485
257.361
3.33053
6.47707
7.65548
7.97495
8.11475
8.46245
8.9528
9.20982
8.8207
7.3909
5.24312
4.7168
4.71355
5.00865
5.59726
6.39371
7.07582
7.49675
7.69367
7.74564
7.76454
7.79913
7.67593
257.568
3.26594
6.59186
7.69801
7.92523
7.93413
8.1586
8.61858
8.98819
8.84825
7.65721
5.47129
4.77389
4.70953
4.89893
5.29336
5.92621
6.6756
7.26706
7.60038
7.72725
7.78072
7.83636
7.7693
258.384
3.25
6.5536
7.66434
7.92944
7.89255
7.99773
8.34725
8.72827
8.82811
7.84338
5.73639
4.86457
4.75
4.86776
5.13473
5.5582
6.21342
6.9142
7.4143
7.7123
7.82744
7.92583
7.91147
259.411
3.13411
6.48721
7.64098
7.99063
7.95053
7.98095
8.12077
8.46142
8.68751
7.8833
5.9775
4.99881
4.82582
4.90508
5.0977
5.38935
5.84286
6.53459
7.19312
7.61683
7.88267
8.04531
8.02724
260.103
3.13804
6.43014
7.6944
8.13438
8.08619
8.04532
8.00503
8.19168
8.40711
7.80051
6.17998
5.17864
4.97
5.00979
5.17632
5.41269
5.74003
6.26628
6.96214
7.58084
7.97012
8.20318
8.19514
260.495
2.88053
6.491
7.88918
8.3251
8.25401
8.09701
7.90012
7.89325
8.00064
7.62054
6.34148
5.37632
5.16645
5.19293
5.36269
5.5953
5.88074
6.26717
6.83206
7.50653
8.04818
8.34758
8.32103
260.656
2.34914
6.62828
8.14304
8.49521
8.39552
8.15481
7.86733
7.65791
7.5707
7.33172
6.41237
5.5856
5.43521
5.47672
5.65984
5.91863
6.18842
6.48103
6.85689
7.36621
7.93218
8.30339
8.2943
260.514
2.11078
6.77255
8.31337
8.60688
8.46744
8.16044
7.8465
7.52514
7.26654
7.01972
6.40387
5.78231
5.74293
5.80183
5.99884
6.27185
6.52043
6.73079
6.95632
7.25078
7.68456
8.04229
8.08565
259.661
2.12077
6.70977
8.29721
8.56719
8.45012
8.18061
7.86064
7.51433
7.16154
6.85337
6.36378
5.90539
5.9257
6.0735
6.29404
6.5427
6.75206
6.92353
7.07853
7.25222
7.47146
7.6741
7.73535
258.994
2.27275
6.54366
8.09073
8.45184
8.42929
8.25181
7.93919
7.62556
7.28972
6.93459
6.29477
5.84137
5.92746
6.15741
6.39039
6.62889
6.82811
6.97642
7.09908
7.22448
7.35917
7.42698
7.40894
258.306
2.36366
6.18808
7.73896
8.30042
8.40637
8.34435
8.11039
7.88824
7.62307
7.20789
6.29573
5.57626
5.63207
5.89462
6.18035
6.4685
6.71706
6.89759
7.03803
7.16599
7.27559
7.32845
7.26767
256.825
2.58274
5.80172
7.24623
8.103
8.34451
8.41726
8.36139
8.25163
8.08398
7.57085
6.26231
5.21007
5.15649
5.36084
5.73625
6.12014
6.45432
6.72312
6.94226
7.12824
7.26728
7.32602
7.26068
254.696
3.65573
5.49516
6.83676
7.86283
8.22599
8.42663
8.59942
8.63187
8.51911
7.887
6.17308
4.89079
4.71801
4.84424
5.18578
5.62991
6.0869
6.49856
6.83043
7.10686
7.30707
7.38652
7.31138
253.96
3.83843
5.32719
6.6131
7.61159
8.09472
8.43411
8.78295
8.92664
8.78649
8.05705
6.05189
4.64856
4.43895
4.54285
4.83158
5.24381
5.74475
6.27838
6.76013
7.14684
7.4092
7.48011
7.37411
253.321
3.84893
5.23419
6.54389
7.482
8.01938
8.46336
8.91956
9.15537
8.98322
8.1367
5.95824
4.51588
4.31201
4.40611
4.65904
5.02773
5.4972
6.07562
6.69886
7.1949
7.50463
7.5591
7.44216
3.95475
4.18126
4.21668
4.44654
5.19046
6.41703
7.00906
7.69526
4.31009
4.35039
4.33372
4.47795
5.24008
6.45283
7.01372
7.68416
4.38619
4.30944
4.29776
4.45856
5.26166
6.47742
7.033
7.69941
4.61189
4.40697
4.36846
4.51664
5.3075
6.4991
6.99987
7.65627
4.91024
4.5556
4.45224
4.57905
5.31019
6.44129
6.89619
7.52906
5.2591
4.74943
4.55365
4.68792
5.33957
6.39311
6.74173
7.31254
5.68821
4.96255
4.66583
4.77681
5.30093
6.23163
6.44782
6.91213
6.19018
5.21528
4.80542
4.8427
5.25322
6.06861
6.13568
6.45773
6.72131
5.5397
4.99071
4.85917
5.15623
5.69517
5.63121
4.88159
7.14159
5.87882
5.17876
4.90161
4.96301
5.26477
5.37413
4.74094
7.46676
6.26124
5.37582
4.96248
4.84882
4.95944
5.01425
4.76422
7.69388
6.62871
5.62058
5.12278
4.85883
4.79644
4.80933
4.78798
7.81922
6.94837
5.89524
5.32228
4.97097
4.80652
4.7694
4.79125
7.85273
7.18299
6.13258
5.48557
5.10503
4.89448
4.79978
4.7957
7.84823
7.32748
6.25703
5.55417
5.18232
4.97483
4.86901
4.82444
7.77931
7.38942
6.30402
5.53719
5.19285
4.99771
4.9165
4.87307
7.66101
7.39536
6.3307
5.4805
5.16392
4.97792
4.93008
4.92741
7.56912
7.34106
6.33694
5.39881
5.12407
4.95534
4.92517
4.95336
7.57102
7.28431
6.31632
5.3087
5.08024
4.9522
4.9439
4.99509
7.65552
7.29675
6.27468
5.21555
5.03741
4.95665
4.97573
5.0422
7.78314
7.37826
6.28969
5.11804
4.94232
4.92797
4.98511
5.07139
7.93827
7.48708
6.35441
5.07184
4.8176
4.83587
4.93962
5.05382
8.04269
7.55802
6.39594
5.07438
4.74811
4.715
4.82419
4.97132
8.02363
7.53861
6.41048
5.11648
4.74609
4.66111
4.73359
4.86917
7.90026
7.46014
6.4143
5.18002
4.79049
4.68442
4.72225
4.83025
7.67202
7.33542
6.42071
5.25935
4.86776
4.75286
4.762
4.84716
7.40728
7.20463
6.43317
5.33407
4.94074
4.82314
4.81477
4.88385
7.22015
7.0781
6.4256
5.37526
4.977
4.86317
4.85231
4.92065
7.16058
6.9864
6.38427
5.36807
4.96375
4.8618
4.8592
4.937
7.16343
6.93258
6.32223
5.32143
4.91299
4.8265
4.83904
4.93689
7.19019
6.9178
6.27766
5.2596
4.84227
4.77236
4.80516
4.92186
7.24224
6.94143
6.27813
5.24164
4.80257
4.73417
4.78431
4.92761
2.03124
1.15293
1.08858
1.13739
1.23059
1.42655
1.80767
2.22251
2.69848
3.32131
3.69554
3.88652
3.48285
3.03198
3.05642
3.14923
3.24423
3.29869
3.36996
3.43694
3.50072
3.58291
3.66764
3.7455
3.836
3.94031
4.02086
4.06948
4.12171
4.2162
4.32454
4.34211
4.2686
3.88324
3.03231
2.67951
2.61538
2.5758
2.56357
2.5603
2.54722
2.52891
2.5184
2.52234
2.54559
2.58336
2.62772
2.67082
2.7138
2.78809
3.00107
3.48009
4.21784
4.40272
4.35127
4.24174
3.91068
3.37662
3.20486
3.18058
3.2068
3.30231
3.369
3.3545
3.31832
3.28313
3.26864
3.26946
3.28971
3.3195
3.354
3.40297
3.47431
3.57576
3.66186
3.66478
3.64081
3.55345
3.25979
2.87998
2.78387
2.77582
2.80223
2.87045
2.97124
3.08249
3.09558
3.14421
2.97036
2.14138
1.84636
1.74985
1.68194
1.6482
1.76806
2.06691
2.36502
2.80756
3.28665
3.71577
3.77587
3.36166
3.2274
3.29557
3.35471
3.38627
3.44131
3.50861
3.57441
3.66198
3.76291
3.84788
3.91268
3.97322
4.02803
4.06901
4.11575
4.18901
4.24673
4.25176
4.17701
3.83759
3.11639
2.7392
2.67383
2.64194
2.63645
2.64561
2.64184
2.61638
2.59418
2.58484
2.59079
2.61603
2.65478
2.69334
2.73918
2.84847
3.09555
3.53521
4.18227
4.39113
4.35673
4.2521
3.91478
3.36629
3.18783
3.16654
3.18946
3.25507
3.31305
3.33319
3.32912
3.32043
3.31736
3.32664
3.34755
3.36974
3.39221
3.42887
3.49145
3.58776
3.67411
3.6736
3.64551
3.55492
3.25299
2.8661
2.76689
2.75745
2.77781
2.83629
2.92736
3.04024
3.07786
3.13971
3.62958
2.94052
2.4843
2.20705
2.08518
1.95921
1.9353
2.04488
2.25315
2.46629
2.85412
3.43141
3.96061
3.81423
3.48679
3.48747
3.51502
3.5268
3.53425
3.56642
3.62737
3.72503
3.85914
3.98528
4.06841
4.11228
4.14583
4.18463
4.23479
4.25222
4.20467
4.14955
4.05905
3.82193
3.26902
2.84629
2.76456
2.73173
2.72262
2.73591
2.75056
2.73069
2.70244
2.68392
2.68035
2.6955
2.72674
2.75942
2.82166
3.00048
3.24562
3.57963
4.11707
4.40948
4.41237
4.31596
3.96358
3.39896
3.20638
3.18658
3.19654
3.23629
3.27666
3.30165
3.32471
3.34336
3.35541
3.37449
3.40437
3.43281
3.45261
3.4804
3.53912
3.63717
3.71616
3.70341
3.66549
3.56237
3.25135
2.85917
2.75626
2.74551
2.76107
2.81574
2.90338
3.01254
3.08448
3.18301
4.00007
3.53605
3.13417
2.75851
2.55691
2.45671
2.30049
2.23952
2.25296
2.29346
2.46529
2.96364
3.62293
4.06567
3.85537
3.72747
3.722
3.73391
3.72947
3.72962
3.76391
3.84227
3.96328
4.09405
4.18396
4.21983
4.22755
4.25135
4.30749
4.27872
4.18647
4.09605
3.99186
3.82172
3.43704
2.99103
2.8698
2.83906
2.83079
2.84888
2.88236
2.89488
2.87201
2.84466
2.82533
2.82538
2.85087
2.89591
3.0048
3.24208
3.45096
3.65613
4.02641
4.36816
4.44537
4.37828
4.03768
3.47229
3.24233
3.22566
3.22554
3.2493
3.28231
3.30917
3.33995
3.3755
3.40502
3.4308
3.46386
3.4984
3.52214
3.54544
3.59951
3.70201
3.7739
3.74884
3.70128
3.58689
3.27526
2.88074
2.76829
2.75494
2.76214
2.80959
2.89713
3.00272
3.10226
3.2351
4.3446
3.96737
3.6587
3.28863
2.99894
2.85365
2.70539
2.56272
2.49467
2.46004
2.5034
2.67225
3.07123
3.70142
4.04508
3.91872
3.8891
3.8525
3.84075
3.84155
3.86781
3.94932
4.06855
4.16328
4.2145
4.21998
4.21845
4.24015
4.3024
4.27784
4.17913
4.08044
3.96996
3.83791
3.56461
3.12147
2.9312
2.90349
2.89642
2.9158
2.95215
2.99925
3.02526
3.01285
2.98668
2.99124
3.02904
3.11938
3.30357
3.53455
3.67484
3.76865
3.94941
4.23779
4.40409
4.39189
4.11415
3.58393
3.30353
3.27753
3.27428
3.2878
3.3117
3.34146
3.37727
3.41905
3.46041
3.49224
3.52123
3.55551
3.5873
3.61625
3.66949
3.76961
3.82986
3.79653
3.7392
3.61754
3.31724
2.92363
2.79662
2.7826
2.7849
2.82345
2.90798
3.01378
3.14586
3.29998
4.57442
4.31769
4.07857
3.78295
3.49332
3.2788
3.10394
2.94258
2.83865
2.77583
2.71093
2.71227
2.79175
3.11015
3.71773
3.95743
3.94874
3.89411
3.8706
3.87929
3.92066
4.00511
4.10143
4.1561
4.16062
4.16169
4.15883
4.17327
4.22897
4.25032
4.18023
4.09441
4.0033
3.88992
3.66335
3.2373
2.96577
2.92705
2.91412
2.9226
2.97637
3.08053
3.17125
3.18172
3.16265
3.18791
3.25722
3.42716
3.64055
3.77894
3.84314
3.89073
3.91649
4.04277
4.24169
4.32398
4.16273
3.70405
3.3762
3.32564
3.32284
3.33274
3.35417
3.38916
3.43417
3.48185
3.52418
3.55557
3.57909
3.60432
3.6351
3.67207
3.73107
3.82586
3.87039
3.83477
3.77401
3.65605
3.37854
2.98364
2.83118
2.81613
2.81595
2.8508
2.94029
3.06954
3.23194
3.38086
4.70375
4.53997
4.36915
4.17408
3.96078
3.74425
3.53
3.34807
3.2017
3.09188
2.99718
2.91099
2.85719
2.82968
3.06386
3.65794
3.90167
3.91092
3.88463
3.89158
3.92279
3.97568
4.03189
4.06308
4.06297
4.05772
4.06071
4.07976
4.14032
4.20347
4.15851
4.08793
4.01161
3.90827
3.71593
3.33972
3.01205
2.94571
2.93207
2.94978
3.04136
3.19932
3.30929
3.30842
3.30064
3.35151
3.50762
3.71708
3.84593
3.88533
3.91791
3.96043
3.91817
3.87974
3.99233
4.15674
4.14165
3.82526
3.46755
3.37963
3.37462
3.38059
3.402
3.44177
3.49495
3.54714
3.58828
3.61483
3.6316
3.64583
3.66834
3.70822
3.77638
3.86889
3.89407
3.85746
3.80137
3.69554
3.44435
3.05014
2.86721
2.84917
2.854
2.9065
3.01753
3.17887
3.34171
3.46081
4.81374
4.7143
4.60122
4.45815
4.30722
4.15898
3.96965
3.76803
3.59452
3.44957
3.3244
3.20358
3.07966
2.93717
2.73473
2.9298
3.58073
3.86766
3.89801
3.93013
3.95172
3.9706
3.9877
3.99617
3.98817
3.97988
3.98379
4.00675
4.06559
4.141
4.12905
4.07984
4.01724
3.92992
3.78248
3.47578
3.11433
3.00586
2.98901
2.99536
3.03807
3.1211
3.22237
3.28074
3.34224
3.48729
3.71502
3.84209
3.88474
3.88558
3.91835
3.95814
3.9053
3.8278
3.81044
3.94415
4.04344
3.89369
3.56051
3.43245
3.41884
3.4164
3.42963
3.4604
3.50747
3.5653
3.6175
3.65054
3.66483
3.67206
3.6852
3.71973
3.7979
3.909
3.93416
3.90013
3.84781
3.74968
3.51617
3.11725
2.90024
2.88132
2.90617
2.99691
3.13454
3.29663
3.41648
3.51781
4.90096
4.84813
4.77551
4.67367
4.55625
4.45345
4.33587
4.17716
4.00324
3.83757
3.68248
3.5268
3.36613
3.16093
2.82872
2.54468
2.88959
3.57913
3.89395
3.96252
3.9844
3.97965
3.97289
3.96843
3.95978
3.95153
3.95235
3.96534
3.99987
4.05751
4.09493
4.07784
4.03004
3.96369
3.85836
3.62437
3.25358
3.08125
3.0547
3.04224
3.04043
3.05937
3.11092
3.20251
3.36023
3.60463
3.79533
3.83789
3.85082
3.85844
3.89725
3.92177
3.88688
3.82399
3.76813
3.78866
3.90078
3.89091
3.63853
3.46756
3.44447
3.43532
3.4347
3.45493
3.49905
3.55962
3.61809
3.65578
3.67179
3.67858
3.68819
3.71969
3.80141
3.93875
3.99359
3.96749
3.92225
3.83272
3.6085
3.19095
2.93691
2.92564
2.97883
3.09366
3.22601
3.36043
3.46502
3.56319
4.95561
4.93695
4.89622
4.82247
4.71676
4.62112
4.58178
4.50784
4.37293
4.21927
4.06704
3.90917
3.73348
3.48773
3.04779
2.58842
2.55833
2.99319
3.67874
3.9604
4.00056
3.99025
3.97204
3.97272
3.96898
3.96045
3.9481
3.942
3.95206
3.99217
4.05073
4.08548
4.07434
4.03126
3.95243
3.75987
3.37301
3.09968
3.03988
3.00498
2.98918
2.99951
3.04797
3.17187
3.39451
3.62242
3.73136
3.78247
3.80399
3.81641
3.84024
3.86185
3.85699
3.81243
3.75002
3.72243
3.77311
3.83158
3.69113
3.47565
3.42002
3.40357
3.39679
3.41232
3.45977
3.52957
3.60109
3.64581
3.66131
3.66241
3.66636
3.69498
3.78784
3.94757
4.05122
4.04831
4.01457
3.9431
3.74596
3.30328
2.96527
2.96152
3.04617
3.1647
3.27476
3.38611
3.49418
3.59928
5.01575
5.0204
4.98886
4.93426
4.85021
4.75362
4.69117
4.70731
4.68048
4.55929
4.41998
4.28203
4.12118
3.87524
3.37833
2.77715
2.58983
2.65779
3.08953
3.73869
4.00422
4.03012
4.00529
3.98815
3.99413
3.98992
3.95627
3.9316
3.92335
3.94808
4.01891
4.09862
4.12511
4.09439
4.02151
3.83878
3.42813
3.06643
2.97364
2.93397
2.90863
2.92188
3.00327
3.19452
3.42584
3.56801
3.66199
3.74004
3.78369
3.80237
3.8064
3.80745
3.81509
3.79917
3.74869
3.69722
3.6978
3.74123
3.68029
3.48125
3.38891
3.37223
3.35636
3.3587
3.40435
3.48412
3.56358
3.61112
3.62433
3.62429
3.63024
3.65987
3.7486
3.93032
4.09685
4.13126
4.10603
4.0513
3.90535
3.47635
3.03353
3.02347
3.11422
3.19712
3.27589
3.38032
3.50825
3.62155
5.08373
5.09166
5.07435
5.03221
4.94982
4.86775
4.81845
4.81735
4.87459
4.85524
4.73681
4.60285
4.45346
4.2242
3.70844
3.00432
2.67528
2.62117
2.68577
3.07917
3.70811
4.00834
4.06045
4.07969
4.07605
4.01274
3.96163
3.9308
3.91485
3.92693
4.00221
4.1086
4.12798
4.085
4.01667
3.84605
3.42993
2.99746
2.85934
2.82095
2.81739
2.86826
3.07251
3.31118
3.47313
3.57714
3.65207
3.74357
3.82231
3.82173
3.80187
3.7821
3.77251
3.78066
3.76403
3.71667
3.68057
3.6705
3.60096
3.4268
3.34197
3.33412
3.32078
3.31798
3.36046
3.44195
3.52626
3.57874
3.59719
3.60188
3.61141
3.64928
3.73994
3.89579
4.10243
4.19354
4.16733
4.12314
4.03793
3.71224
3.18555
3.09809
3.16274
3.20249
3.26097
3.3622
3.48515
3.58829
5.12748
5.14097
5.12911
5.09024
5.03199
4.97672
4.93748
4.94445
5.01976
5.07193
4.98837
4.85396
4.7052
4.47271
3.92263
3.1197
2.75787
2.65748
2.62335
2.66958
3.04502
3.67877
3.99886
4.09334
4.14037
4.08351
3.99209
3.92574
3.89132
3.89266
3.96369
4.06908
4.08546
4.0436
3.97783
3.81574
3.39443
2.91071
2.76941
2.75745
2.80736
3.01717
3.27868
3.4608
3.56156
3.62197
3.70728
3.82305
3.86968
3.84857
3.81758
3.78335
3.7643
3.7673
3.78713
3.75723
3.70623
3.65156
3.52362
3.2977
3.25323
3.2815
3.29158
3.30186
3.35148
3.42863
3.49974
3.54502
3.57267
3.59571
3.62484
3.67209
3.73608
3.82401
3.96238
4.12372
4.17081
4.14832
4.1286
3.99677
3.51544
3.20002
3.19351
3.19951
3.23093
3.30969
3.41471
3.50579
5.12796
5.15925
5.14986
5.11572
5.07674
5.03941
5.01307
5.02318
5.11984
5.22202
5.16222
5.02439
4.86462
4.61033
4.00566
3.14046
2.79285
2.69458
2.63132
2.63838
2.71614
3.08012
3.6524
3.96417
4.08436
4.09984
4.02388
3.93212
3.88359
3.86523
3.90948
4.01178
4.02434
3.97782
3.9107
3.75955
3.37606
2.8859
2.75164
2.78402
2.94581
3.19638
3.40639
3.56186
3.66404
3.74471
3.84092
3.9198
3.91386
3.88124
3.83552
3.78953
3.76647
3.76809
3.80421
3.79298
3.74196
3.67008
3.5106
3.18604
3.11126
3.20002
3.26198
3.30058
3.35718
3.43543
3.50271
3.54001
3.55978
3.58473
3.6289
3.68795
3.74095
3.77718
3.82284
3.92368
4.06514
4.15401
4.19801
4.20894
3.96573
3.42845
3.2197
3.19828
3.21039
3.26979
3.35877
3.41442
5.07823
5.12959
5.13487
5.11964
5.09809
5.06991
5.04503
5.04055
5.10324
5.2548
5.25595
5.11753
4.9459
4.65219
3.98389
3.10913
2.80654
2.72837
2.665
2.64077
2.66984
2.78144
3.12944
3.60044
3.89679
4.01609
3.99678
3.92484
3.87512
3.8575
3.8783
3.95726
3.96819
3.92033
3.84913
3.70951
3.37368
2.91281
2.80984
2.9316
3.14187
3.34323
3.50526
3.66077
3.79047
3.87775
3.93463
3.9588
3.93479
3.89483
3.83929
3.80162
3.77828
3.78276
3.83225
3.82469
3.77498
3.69712
3.52613
3.18871
2.99385
3.08815
3.20452
3.30146
3.37404
3.45279
3.51262
3.54986
3.57351
3.59846
3.63708
3.68361
3.70454
3.70322
3.70238
3.7419
3.87043
4.08939
4.23285
4.27295
4.21525
3.8283
3.33992
3.21756
3.2064
3.2363
3.28767
3.30794
4.98695
5.05811
5.08815
5.09437
5.09104
5.07796
5.05524
5.03865
5.08192
5.21135
5.22253
5.09145
4.92093
4.62571
3.91654
3.0731
2.82076
2.7542
2.70508
2.68631
2.70455
2.73941
2.82641
3.12596
3.53123
3.83343
3.92186
3.89216
3.85609
3.84636
3.87044
3.93615
3.93671
3.87824
3.79801
3.66597
3.39742
3.0201
2.99335
3.15663
3.31311
3.45335
3.61421
3.77954
3.88993
3.93327
3.95721
3.96156
3.93245
3.88844
3.84625
3.81725
3.80075
3.82195
3.8748
3.85853
3.81056
3.73248
3.56414
3.21919
2.96658
2.99274
3.12708
3.26695
3.3807
3.46659
3.52603
3.56796
3.60404
3.64192
3.67156
3.66428
3.63545
3.59664
3.57101
3.59055
3.70166
3.96309
4.20968
4.27824
4.27403
4.09764
3.65732
3.30268
3.22745
3.21587
3.21245
3.20698
4.94148
5.01586
5.05096
5.05775
5.05301
5.03869
5.01794
5.00433
5.04333
5.15818
5.14834
5.01518
4.84773
4.54317
3.8339
3.05658
2.83955
2.77584
2.73732
2.73119
2.74165
2.75051
2.76575
2.8478
3.11556
3.49857
3.75949
3.83565
3.83015
3.81959
3.85071
3.91754
3.91512
3.85469
3.77688
3.67705
3.50994
3.24172
3.21573
3.33071
3.41714
3.52641
3.6903
3.83689
3.89193
3.90129
3.89107
3.87229
3.85372
3.83519
3.8185
3.80625
3.81532
3.87499
3.9317
3.9057
3.85971
3.78862
3.63025
3.29307
2.98284
2.95271
3.03997
3.19735
3.34792
3.4653
3.54738
3.599
3.63437
3.64965
3.63915
3.60378
3.54541
3.47369
3.44339
3.47718
3.60795
3.86582
4.15429
4.23548
4.23219
4.13455
3.88372
3.51794
3.28968
3.20847
3.15584
3.13587
4.9476
5.02075
5.05756
5.06254
5.03877
4.99836
4.96701
4.95879
4.99965
5.09831
5.06611
4.93138
4.76461
4.46069
3.77179
3.05617
2.86195
2.79886
2.76008
2.76405
2.78516
2.78511
2.76549
2.77053
2.84546
3.10726
3.48498
3.70462
3.78333
3.79013
3.82458
3.90011
3.91202
3.86155
3.8091
3.78805
3.76353
3.51858
3.37503
3.4181
3.46512
3.56732
3.70374
3.80565
3.82581
3.79569
3.75307
3.72599
3.71497
3.72395
3.74681
3.7719
3.80963
3.88849
3.97343
3.96332
3.92576
3.86761
3.73362
3.41549
3.044
2.9493
2.97421
3.08765
3.2617
3.42886
3.55662
3.61188
3.62961
3.60759
3.55352
3.47368
3.37184
3.30512
3.32329
3.40776
3.57175
3.82906
4.08316
4.16371
4.16129
4.12313
3.9492
3.62576
3.39591
3.28612
3.19367
3.14073
4.97542
5.04728
5.08961
5.10094
5.08353
5.04877
5.00731
4.98347
5.0224
5.09707
5.03053
4.89309
4.72323
4.40913
3.72121
3.06213
2.89073
2.82524
2.78574
2.78731
2.81664
2.81503
2.78461
2.7494
2.76185
2.85553
3.14213
3.47695
3.68433
3.76201
3.80904
3.89251
3.91717
3.88772
3.89827
4.01606
4.09482
3.7043
3.4343
3.43652
3.45987
3.54711
3.66562
3.72092
3.6873
3.63138
3.59978
3.58589
3.58872
3.61537
3.65921
3.71121
3.77514
3.87174
3.98753
4.01538
3.99087
3.94761
3.83971
3.54163
3.11049
2.94663
2.93434
2.97738
3.12187
3.32944
3.51897
3.58948
3.58072
3.52742
3.42872
3.30261
3.21529
3.2159
3.28079
3.41875
3.60891
3.84218
4.04536
4.11198
4.11233
4.07086
3.90841
3.58357
3.38772
3.34958
3.31048
3.23795
5.01613
5.09992
5.15851
5.18943
5.19033
5.16214
5.11258
5.07481
5.09838
5.15701
5.07089
4.92476
4.73681
4.38451
3.6729
3.07709
2.93155
2.86559
2.82696
2.82365
2.84383
2.84576
2.82163
2.78493
2.75834
2.77412
2.86391
3.15951
3.47751
3.69766
3.79076
3.89036
3.92648
3.93631
4.06899
4.32669
4.3524
3.78161
3.43351
3.40383
3.42241
3.49088
3.55182
3.55125
3.52004
3.4999
3.4939
3.49868
3.51483
3.54466
3.58936
3.646
3.71763
3.82668
3.98262
4.06197
4.05083
4.01705
3.92529
3.63414
3.14733
2.93729
2.90219
2.90035
2.97291
3.15068
3.36116
3.4412
3.43199
3.37079
3.26594
3.20436
3.21417
3.26885
3.3769
3.51134
3.67373
3.8793
4.04332
4.06621
4.04847
3.98108
3.80046
3.51273
3.38563
3.36736
3.37904
3.35781
5.04722
5.14462
5.21724
5.27124
5.30923
5.32086
5.29663
5.26689
5.27997
5.2741
5.14441
4.99107
4.79006
4.38831
3.63899
3.10814
2.98494
2.91642
2.87471
2.86748
2.88257
2.89561
2.87885
2.83948
2.79395
2.75362
2.76246
2.86549
3.16896
3.50005
3.7376
3.85838
3.93525
4.04711
4.35627
4.6137
4.45631
3.77312
3.37735
3.33559
3.34038
3.36909
3.39004
3.40239
3.41706
3.43161
3.4464
3.46368
3.48494
3.51131
3.54787
3.59852
3.67177
3.79189
3.97417
4.10337
4.10344
4.07135
3.9863
3.69018
3.14804
2.90279
2.85701
2.8319
2.84798
2.93734
3.07161
3.17637
3.23058
3.24189
3.24456
3.25538
3.30149
3.40157
3.51488
3.62218
3.75452
3.94045
4.04634
4.03929
4.00737
3.92355
3.70439
3.43711
3.36416
3.35489
3.36125
3.41064
5.0687
5.18614
5.28057
5.3561
5.42171
5.47299
5.49863
5.52262
5.55559
5.47174
5.3107
5.12986
4.88449
4.41406
3.63127
3.16234
3.0504
2.97836
2.92738
2.90661
2.90873
2.91829
2.91024
2.88032
2.83588
2.78205
2.73984
2.74657
2.86355
3.19242
3.53636
3.74483
3.94419
4.31953
4.65912
4.75293
4.46161
3.71733
3.29582
3.25168
3.24488
3.26004
3.2964
3.34187
3.37878
3.40902
3.43595
3.46086
3.48581
3.50905
3.53605
3.5767
3.64814
3.78078
3.99448
4.15976
4.15886
4.11751
4.02293
3.69745
3.1017
2.83785
2.79256
2.75884
2.75487
2.80139
2.87624
2.96513
3.06226
3.15638
3.2385
3.31783
3.43036
3.56022
3.66955
3.76163
3.87054
4.00774
4.05694
4.03232
3.98111
3.86386
3.5987
3.33972
3.29135
3.29466
3.33394
3.47248
5.07643
5.22587
5.34071
5.42214
5.48588
5.53781
5.61284
5.72694
5.77027
5.65121
5.4907
5.30959
5.03311
4.45876
3.62801
3.21157
3.10739
3.03107
2.9721
2.94316
2.9391
2.94611
2.94589
2.92587
2.88742
2.83553
2.77419
2.72082
2.72361
2.86566
3.2304
3.55396
4.00353
4.63078
4.8513
4.78796
4.40487
3.64052
3.23041
3.19104
3.18678
3.21651
3.26794
3.31898
3.36229
3.40167
3.44202
3.47922
3.50536
3.52506
3.54741
3.58132
3.64661
3.78448
4.02449
4.19819
4.18817
4.13817
4.02383
3.6543
3.02116
2.76697
2.72998
2.70306
2.70607
2.74942
2.79996
2.85483
2.93931
3.06931
3.22989
3.39614
3.55317
3.68077
3.77769
3.87076
3.97679
4.06363
4.06029
4.02733
3.96631
3.82097
3.53232
3.2816
3.24115
3.24757
3.30589
3.50211
5.10625
5.26627
5.3974
5.49688
5.56406
5.63534
5.76297
5.93591
5.95495
5.80831
5.64305
5.45151
5.14238
4.50552
3.63335
3.24988
3.14486
3.0614
2.99192
2.94937
2.93473
2.93575
2.93171
2.91037
2.87339
2.82437
2.76548
2.7095
2.67876
2.71259
2.92777
3.40468
4.11454
4.85663
4.99805
4.83887
4.40451
3.62906
3.2215
3.1879
3.18285
3.20653
3.25609
3.31181
3.36433
3.4115
3.44542
3.47299
3.50209
3.53154
3.55906
3.59259
3.65622
3.80238
4.063
4.22662
4.204
4.15044
4.03345
3.61512
2.94639
2.72807
2.70017
2.68321
2.69365
2.73298
2.77036
2.79614
2.85622
2.9912
3.2015
3.45807
3.68766
3.8211
3.90047
3.97926
4.06992
4.10557
4.07744
4.03281
3.95757
3.79166
3.47504
3.24208
3.21615
3.22309
3.28789
3.50294
)
;

boundaryField
{
    inlet
    {
        type            calculated;
        value           uniform 1.40001;
    }
    outlet
    {
        type            calculated;
        value           nonuniform List<scalar> 
24
(
3.14126
3.13664
3.17975
3.23175
3.29695
3.37788
3.45765
3.51414
3.55843
3.59316
3.61532
3.58107
3.49926
3.41017
3.30625
3.20712
3.13585
3.14401
3.2442
3.36121
3.40779
3.46298
3.48902
3.48764
)
;
    }
    bottom
    {
        type            calculated;
        value           nonuniform List<scalar> 
24
(
254.048
22.7838
9.84081
9.44057
8.71898
8.6984
8.83018
7.10363
5.89638
5.70872
5.83562
6.0847
6.34939
6.55727
6.7696
7.88107
10.3361
11.487
10.2987
7.48476
5.04518
4.42145
4.44695
4.53446
)
;
    }
    top
    {
        type            calculated;
        value           nonuniform List<scalar> 
120
(
253.321
3.84893
5.23419
6.54389
7.482
8.01938
8.46336
8.91956
9.15537
8.98322
8.1367
5.95824
4.51588
4.31201
4.40611
4.65904
5.02773
5.4972
6.07562
6.69886
7.1949
7.50463
7.5591
7.44216
7.24224
6.94143
6.27813
5.24164
4.80257
4.73417
4.78431
4.92761
5.10625
5.26627
5.3974
5.49688
5.56406
5.63534
5.76297
5.93591
5.95495
5.80831
5.64305
5.45151
5.14238
4.50552
3.63335
3.24988
3.14486
3.0614
2.99192
2.94937
2.93473
2.93575
2.93171
2.91037
2.87339
2.82437
2.76548
2.7095
2.67876
2.71259
2.92777
3.40468
4.11454
4.85663
4.99805
4.83887
4.40451
3.62906
3.2215
3.1879
3.18285
3.20653
3.25609
3.31181
3.36433
3.4115
3.44542
3.47299
3.50209
3.53154
3.55906
3.59259
3.65622
3.80238
4.063
4.22662
4.204
4.15044
4.03345
3.61512
2.94639
2.72807
2.70017
2.68321
2.69365
2.73298
2.77036
2.79614
2.85622
2.9912
3.2015
3.45807
3.68766
3.8211
3.90047
3.97926
4.06992
4.10557
4.07744
4.03281
3.95757
3.79166
3.47504
3.24208
3.21615
3.22309
3.28789
3.50294
)
;
    }
    obstacle
    {
        type            calculated;
        value           nonuniform List<scalar> 
112
(
4.53446
4.51837
4.51093
4.49226
4.4832
4.45486
4.41959
4.41123
3.95475
4.18126
4.21668
4.44654
5.19046
6.41703
7.00906
7.69526
7.69526
7.68416
7.69941
7.65627
7.52906
7.31254
6.91213
6.45773
2.03124
1.15293
1.08858
1.13739
1.23059
1.42655
1.80767
2.22251
2.69848
3.32131
3.69554
3.88652
3.48285
3.03198
3.05642
3.14923
3.24423
3.29869
3.36996
3.43694
3.50072
3.58291
3.66764
3.7455
3.836
3.94031
4.02086
4.06948
4.12171
4.2162
4.32454
4.34211
4.2686
3.88324
3.03231
2.67951
2.61538
2.5758
2.56357
2.5603
2.54722
2.52891
2.5184
2.52234
2.54559
2.58336
2.62772
2.67082
2.7138
2.78809
3.00107
3.48009
4.21784
4.40272
4.35127
4.24174
3.91068
3.37662
3.20486
3.18058
3.2068
3.30231
3.369
3.3545
3.31832
3.28313
3.26864
3.26946
3.28971
3.3195
3.354
3.40297
3.47431
3.57576
3.66186
3.66478
3.64081
3.55345
3.25979
2.87998
2.78387
2.77582
2.80223
2.87045
2.97124
3.08249
3.09558
3.14421
)
;
    }
    defaultFaces
    {
        type            empty;
    }
}


// ************************************************************************* //
