/*--------------------------------*- C++ -*----------------------------------*\
  =========                 |
  \\      /  F ield         | OpenFOAM: The Open Source CFD Toolbox
   \\    /   O peration     | Website:  https://openfoam.org
    \\  /    A nd           | Version:  7
     \\/     M anipulation  |
\*---------------------------------------------------------------------------*/
FoamFile
{
    version     2.0;
    format      ascii;
    class       volScalarField;
    location    "3.7";
    object      T;
}
// * * * * * * * * * * * * * * * * * * * * * * * * * * * * * * * * * * * * * //

dimensions      [0 0 0 1 0 0 0];

internalField   nonuniform List<scalar> 
16192
(
2.01079
2.00492
1.99726
1.98966
1.98563
1.9843
1.98528
1.98396
1.9793
1.9715
1.96232
1.9565
1.95306
1.95195
1.95266
1.95102
1.94749
1.94188
1.93625
1.9317
1.9285
1.92571
1.92244
1.91731
1.91185
1.90872
1.90634
1.90534
1.90427
1.9012
1.89786
1.89197
1.88394
1.87754
1.87493
1.87386
1.87549
1.87802
1.87647
1.87317
1.86815
1.85892
1.84606
1.83785
1.83447
1.83277
1.83341
1.83742
1.83988
1.83782
1.83447
1.82953
1.82072
1.80983
1.8025
1.7997
1.7984
1.79938
1.80175
1.80121
1.7984
1.7952
1.78964
1.78035
1.77094
1.76643
1.76463
1.76331
1.76405
1.76747
1.7686
1.76664
1.76365
1.75779
1.74914
1.74185
1.73832
1.73644
1.73522
1.73462
1.73309
1.73101
1.72892
1.72628
1.72137
1.71524
1.7099
1.70721
1.70558
1.70439
1.70357
1.70281
1.70107
1.69848
1.69531
1.69179
1.68852
1.68658
1.6848
1.68214
1.67734
1.67199
1.66884
1.66693
1.66544
1.66422
1.66306
1.6622
1.66176
1.66057
1.65861
1.65625
1.6533
1.6508
1.64835
1.64518
1.64101
1.63669
1.63257
1.62895
1.62589
1.62399
1.62282
1.62172
1.6211
1.62133
1.62101
1.62019
1.61909
1.61721
1.61409
1.61011
1.60693
1.60396
1.60041
1.59607
1.59278
1.59148
1.59096
1.59013
1.58868
1.5864
1.58323
1.58028
1.57814
1.57649
1.57518
1.57374
1.57195
1.56942
1.56596
1.5627
1.56048
1.55921
1.55768
1.55532
1.55189
1.54846
1.5464
1.54536
1.54431
1.54312
1.54179
1.54016
1.53824
1.53585
1.53287
1.53024
1.52857
1.52701
1.52527
1.52386
1.52302
1.52263
1.52177
1.52083
1.51932
1.51714
1.51351
1.50882
1.50529
1.50233
1.49988
1.4983
1.49743
1.49678
1.49635
1.49633
1.49603
1.4952
1.49426
1.49302
1.49075
1.48621
1.47994
1.47555
1.47358
1.47246
1.47181
1.47151
1.47191
1.47341
1.47381
1.47316
1.47185
1.46882
1.46327
1.45903
1.45771
1.4571
1.45664
1.45642
1.45714
1.4585
1.45839
1.45787
1.4569
1.45442
1.44981
1.44612
1.44438
1.44318
1.44222
1.44162
1.44194
1.4437
1.44428
1.44367
1.44297
1.44244
1.44198
1.44147
1.44031
1.43788
1.43378
1.42902
1.42613
1.4248
1.42401
1.42311
1.42209
1.42101
1.42017
1.41931
1.41803
1.41661
1.41556
1.41541
1.41461
1.41347
1.41295
1.41281
1.41284
2.00572
1.99979
1.99387
1.99075
1.98955
1.98882
1.98594
1.98046
1.97229
1.96422
1.95888
1.95594
1.95576
1.95622
1.95394
1.94992
1.94385
1.93794
1.9338
1.93125
1.92865
1.92572
1.92127
1.9155
1.91189
1.90931
1.90769
1.90656
1.90365
1.90035
1.89463
1.88664
1.88012
1.87738
1.87605
1.8771
1.87918
1.87771
1.87462
1.87025
1.86257
1.85091
1.84092
1.83666
1.83471
1.8348
1.83829
1.84099
1.83908
1.83587
1.83156
1.82408
1.81378
1.80555
1.80233
1.80056
1.80092
1.80304
1.80271
1.79978
1.79644
1.79115
1.78324
1.77426
1.76756
1.76476
1.76323
1.76398
1.76812
1.77005
1.76833
1.76556
1.76011
1.75192
1.74409
1.73983
1.73789
1.73666
1.73596
1.73438
1.73243
1.73056
1.72812
1.72359
1.71823
1.7136
1.71145
1.70983
1.70807
1.706
1.70359
1.70094
1.698
1.69481
1.69161
1.68955
1.68843
1.68701
1.68512
1.68266
1.67859
1.67403
1.67083
1.66855
1.6666
1.6647
1.66276
1.66121
1.65988
1.65809
1.65559
1.65362
1.65255
1.65149
1.65012
1.64815
1.64476
1.63894
1.63209
1.62714
1.62493
1.62365
1.62242
1.62146
1.6212
1.62167
1.62201
1.6217
1.62078
1.6195
1.61741
1.61352
1.60768
1.6012
1.59617
1.5934
1.59191
1.59101
1.59065
1.59082
1.59027
1.58916
1.58734
1.58376
1.57923
1.57617
1.57419
1.57258
1.57043
1.56705
1.56319
1.56071
1.55947
1.55869
1.55824
1.55746
1.55604
1.55353
1.55011
1.54673
1.54397
1.54172
1.53987
1.53736
1.53369
1.53028
1.52883
1.52834
1.52868
1.52906
1.52896
1.52792
1.52606
1.52353
1.52079
1.51792
1.51536
1.51288
1.51054
1.50861
1.50683
1.50465
1.50128
1.49786
1.49599
1.49504
1.49447
1.494
1.49367
1.49331
1.49268
1.49181
1.49042
1.48717
1.48069
1.47406
1.47131
1.47038
1.46977
1.46952
1.47085
1.47344
1.47363
1.47293
1.47192
1.46949
1.46328
1.45709
1.45535
1.45488
1.45443
1.45427
1.4549
1.45532
1.45512
1.45492
1.45454
1.4531
1.44924
1.4454
1.44335
1.44187
1.44066
1.44003
1.44027
1.44104
1.44105
1.44032
1.43974
1.43931
1.43888
1.4384
1.43782
1.43657
1.43419
1.43012
1.42514
1.422
1.42033
1.4191
1.41811
1.41742
1.41666
1.41632
1.4166
1.41678
1.41654
1.41518
1.41323
1.41096
1.40903
1.40853
1.40855
2.00158
1.99827
1.99637
1.99549
1.99353
1.98902
1.98124
1.97227
1.96575
1.96166
1.95938
1.95997
1.96022
1.95741
1.95254
1.94575
1.93971
1.93604
1.93392
1.93173
1.92918
1.92515
1.91894
1.91422
1.91137
1.90956
1.90895
1.90622
1.90287
1.89768
1.88979
1.88243
1.87921
1.87766
1.87835
1.88034
1.87909
1.87592
1.87157
1.86418
1.85309
1.84402
1.83995
1.83751
1.83691
1.83927
1.84191
1.84035
1.8372
1.83316
1.826
1.81593
1.80836
1.80508
1.80309
1.80305
1.80451
1.80397
1.80117
1.79806
1.79329
1.78503
1.7756
1.76998
1.76769
1.76601
1.76621
1.76936
1.77102
1.76935
1.76695
1.762
1.75381
1.74597
1.74197
1.73996
1.7386
1.73784
1.73623
1.73411
1.73208
1.72945
1.72493
1.72012
1.71622
1.71464
1.71341
1.71188
1.70992
1.70736
1.70408
1.70009
1.6961
1.69279
1.69037
1.68897
1.68785
1.68711
1.68569
1.68277
1.679
1.67597
1.67394
1.67191
1.66933
1.66648
1.66403
1.66155
1.65842
1.6554
1.65352
1.65247
1.65186
1.65142
1.65058
1.64936
1.6473
1.64199
1.63294
1.62741
1.6253
1.62375
1.62241
1.62125
1.62041
1.621
1.62327
1.62356
1.6227
1.62145
1.61956
1.61523
1.60667
1.59861
1.59472
1.59314
1.59207
1.59107
1.5906
1.59089
1.59069
1.58968
1.58842
1.58633
1.5821
1.57697
1.57346
1.57067
1.56745
1.56392
1.5614
1.56022
1.55928
1.55858
1.5585
1.55864
1.55804
1.55664
1.55392
1.54933
1.54475
1.54123
1.53763
1.53337
1.52946
1.52749
1.52664
1.52637
1.52734
1.5298
1.53028
1.52929
1.5278
1.52517
1.52081
1.51578
1.51182
1.50962
1.50839
1.50761
1.50678
1.50553
1.50369
1.50051
1.49648
1.49395
1.49278
1.49205
1.49137
1.49103
1.49078
1.48983
1.48855
1.48654
1.48172
1.47444
1.4708
1.46963
1.46894
1.46872
1.47052
1.47312
1.47324
1.47257
1.47151
1.46923
1.46392
1.45693
1.45403
1.45303
1.45245
1.4523
1.45306
1.4528
1.45214
1.4517
1.45119
1.44997
1.4477
1.4453
1.44346
1.44172
1.44019
1.43917
1.4388
1.43836
1.4373
1.4364
1.43584
1.43555
1.43533
1.43496
1.43453
1.43404
1.43294
1.43054
1.42587
1.42017
1.41704
1.41569
1.415
1.41445
1.41404
1.41413
1.41526
1.41648
1.41616
1.41474
1.41292
1.40998
1.40631
1.40461
1.40443
2.00109
2.0019
2.00141
1.99872
1.99224
1.98258
1.97293
1.96775
1.9642
1.96287
1.96415
1.96416
1.9608
1.95522
1.94789
1.9416
1.93819
1.93626
1.9343
1.93192
1.92799
1.92186
1.91696
1.91396
1.91185
1.91105
1.90848
1.90513
1.90009
1.89226
1.88498
1.88152
1.87952
1.87963
1.88127
1.88014
1.87706
1.87315
1.86634
1.85569
1.84603
1.84103
1.83872
1.8381
1.8402
1.84287
1.84152
1.83844
1.83486
1.82844
1.81881
1.81038
1.80641
1.80451
1.80439
1.80597
1.80569
1.80287
1.7999
1.79553
1.78828
1.7795
1.77226
1.76898
1.76725
1.76733
1.77037
1.77219
1.77059
1.76807
1.76327
1.75604
1.74832
1.74362
1.74176
1.7406
1.73992
1.73833
1.73626
1.73414
1.73127
1.72655
1.72183
1.71823
1.71684
1.71603
1.71495
1.71338
1.7114
1.70863
1.70475
1.69983
1.69517
1.69237
1.69072
1.68939
1.68817
1.68615
1.68302
1.67977
1.67804
1.67709
1.67616
1.67488
1.67289
1.66978
1.66548
1.66073
1.65671
1.65432
1.65303
1.65194
1.65155
1.65237
1.65194
1.65046
1.64833
1.64424
1.63744
1.63032
1.62643
1.62423
1.62254
1.62127
1.62048
1.62082
1.62291
1.62442
1.62389
1.62279
1.62078
1.61588
1.60627
1.59767
1.59476
1.59348
1.59239
1.59144
1.59094
1.59098
1.5904
1.58937
1.58831
1.58698
1.58452
1.57967
1.57302
1.56757
1.56416
1.562
1.56076
1.55984
1.55921
1.55906
1.55953
1.55967
1.55886
1.55769
1.55585
1.55226
1.54657
1.54011
1.53437
1.53054
1.52793
1.52655
1.52548
1.52523
1.52794
1.53111
1.53065
1.52955
1.52831
1.52595
1.52071
1.51418
1.51017
1.50838
1.50733
1.50639
1.5057
1.50504
1.50395
1.50216
1.49844
1.49394
1.49161
1.49047
1.48974
1.48897
1.48834
1.48778
1.48666
1.48515
1.48218
1.47729
1.47238
1.46992
1.4691
1.46879
1.4692
1.47026
1.47056
1.47001
1.46916
1.4678
1.46427
1.45887
1.45436
1.45219
1.45104
1.45054
1.4505
1.44978
1.44895
1.44823
1.44717
1.44545
1.44402
1.44331
1.44245
1.44153
1.44046
1.43899
1.43719
1.43525
1.43376
1.43276
1.43205
1.43153
1.43129
1.43128
1.43111
1.4308
1.43038
1.42926
1.42606
1.42013
1.41537
1.4134
1.41242
1.41184
1.41149
1.41202
1.41448
1.41555
1.41493
1.41353
1.41191
1.40944
1.40553
1.40232
1.40112
2.00787
2.00687
2.00251
1.99349
1.98129
1.9734
1.96989
1.96682
1.96669
1.96858
1.96787
1.96392
1.95737
1.94953
1.94346
1.94031
1.93843
1.93674
1.93459
1.9309
1.92473
1.91917
1.91588
1.91367
1.91301
1.91055
1.90691
1.90191
1.89433
1.88686
1.88304
1.88098
1.88087
1.8821
1.88091
1.87785
1.87414
1.86791
1.85858
1.84897
1.84372
1.84122
1.84
1.84132
1.84377
1.8427
1.83965
1.83634
1.8307
1.82174
1.81309
1.80889
1.80672
1.80589
1.807
1.80703
1.80448
1.80176
1.79798
1.7908
1.7815
1.7754
1.77273
1.77087
1.77072
1.77309
1.77423
1.7724
1.76999
1.76518
1.75714
1.74953
1.74571
1.74394
1.74281
1.74238
1.74115
1.73917
1.7369
1.7338
1.72866
1.72391
1.7204
1.71894
1.71794
1.71699
1.71576
1.71408
1.71211
1.7094
1.70484
1.69997
1.69661
1.69423
1.69196
1.68956
1.68687
1.68391
1.68086
1.67898
1.67797
1.67754
1.67727
1.67639
1.67502
1.67236
1.66701
1.66083
1.65681
1.65472
1.65331
1.65214
1.65096
1.64994
1.64927
1.6483
1.64704
1.64506
1.64047
1.63521
1.63059
1.6268
1.62422
1.62271
1.62185
1.6219
1.62375
1.62452
1.62364
1.62194
1.61959
1.61484
1.60663
1.59982
1.59648
1.59466
1.59353
1.59273
1.59228
1.59147
1.59018
1.5889
1.58769
1.58635
1.58451
1.58051
1.57289
1.56607
1.56298
1.56156
1.56034
1.55925
1.55877
1.55956
1.56044
1.56012
1.55918
1.55804
1.55651
1.55342
1.54701
1.53886
1.53325
1.52979
1.52797
1.52654
1.5255
1.52559
1.5277
1.53027
1.53106
1.53031
1.52883
1.52615
1.52014
1.5132
1.50994
1.50822
1.50671
1.50562
1.50482
1.50392
1.50292
1.50184
1.50018
1.49663
1.49196
1.48927
1.48777
1.48664
1.48542
1.48415
1.48283
1.48138
1.4799
1.47785
1.47508
1.47215
1.47003
1.46906
1.4686
1.46796
1.46716
1.46641
1.46544
1.46379
1.46168
1.45891
1.45603
1.45344
1.45106
1.44895
1.44751
1.4469
1.44628
1.44528
1.44354
1.4418
1.44119
1.44088
1.44104
1.441
1.43996
1.43833
1.43594
1.43321
1.43111
1.42966
1.42868
1.42812
1.42769
1.42756
1.42753
1.42726
1.427
1.42658
1.42516
1.42102
1.41568
1.41255
1.41108
1.41008
1.40952
1.40971
1.41108
1.41188
1.41173
1.41087
1.40987
1.40842
1.4056
1.40183
1.39938
2.01187
2.00613
1.99528
1.98123
1.97336
1.96983
1.96809
1.97
1.97288
1.97147
1.9669
1.95954
1.95129
1.94519
1.94214
1.94034
1.93863
1.93643
1.93288
1.92706
1.92166
1.91837
1.91598
1.915
1.9125
1.90876
1.90368
1.89606
1.88853
1.88459
1.88245
1.88209
1.88305
1.88186
1.87878
1.87524
1.86917
1.85978
1.85083
1.84592
1.84344
1.84201
1.84285
1.84486
1.84379
1.84085
1.83779
1.83283
1.82446
1.81556
1.81087
1.80871
1.8078
1.80876
1.80856
1.80602
1.80322
1.79945
1.79329
1.78545
1.77819
1.77464
1.7729
1.77272
1.77538
1.77708
1.77538
1.77278
1.76786
1.76035
1.75253
1.74734
1.74553
1.74454
1.74435
1.74359
1.74183
1.73992
1.73728
1.73201
1.72648
1.72267
1.72131
1.72049
1.71934
1.71781
1.71632
1.71523
1.71286
1.70865
1.70432
1.70126
1.69904
1.69663
1.69363
1.68985
1.68569
1.68243
1.68069
1.67952
1.67839
1.67779
1.67756
1.67677
1.6756
1.67341
1.66855
1.6627
1.65899
1.65636
1.65417
1.65233
1.6507
1.64932
1.64796
1.64652
1.64464
1.64226
1.63988
1.63739
1.63491
1.63174
1.62813
1.6254
1.62396
1.62306
1.62203
1.62105
1.61989
1.61837
1.6157
1.61159
1.60729
1.60393
1.60062
1.59732
1.59516
1.59387
1.59282
1.59189
1.59083
1.58977
1.58863
1.58713
1.58482
1.58037
1.57275
1.56599
1.56316
1.5617
1.56051
1.55948
1.55891
1.55936
1.56012
1.55989
1.55901
1.5579
1.55664
1.55403
1.54689
1.53751
1.53297
1.53118
1.5296
1.52826
1.52744
1.52754
1.52892
1.52885
1.52758
1.52627
1.52482
1.52251
1.51837
1.51373
1.51107
1.50887
1.50665
1.50485
1.50372
1.50308
1.50244
1.50149
1.50007
1.49761
1.49353
1.48903
1.48613
1.48414
1.48244
1.48073
1.47915
1.47757
1.47634
1.47556
1.47484
1.47386
1.47235
1.47025
1.46781
1.46572
1.46444
1.46317
1.46162
1.45965
1.45796
1.45709
1.45622
1.45489
1.45265
1.4493
1.44635
1.44467
1.44332
1.44161
1.44011
1.43954
1.43926
1.43947
1.44038
1.44016
1.43904
1.43745
1.43526
1.43202
1.4289
1.42711
1.426
1.42531
1.42484
1.42446
1.42413
1.42368
1.42349
1.42321
1.4226
1.42055
1.41673
1.41367
1.41144
1.40969
1.40863
1.40814
1.40827
1.40856
1.40829
1.4076
1.40689
1.40611
1.40485
1.40244
1.39947
2.00912
1.99704
1.98164
1.97428
1.9712
1.9701
1.9731
1.97645
1.97472
1.96967
1.96134
1.95267
1.94693
1.94407
1.94228
1.94051
1.93816
1.93449
1.92871
1.92337
1.92017
1.91786
1.91679
1.91422
1.91058
1.90571
1.89832
1.89055
1.88621
1.88392
1.88325
1.88389
1.88255
1.87951
1.87619
1.87069
1.86247
1.85342
1.84745
1.84486
1.84339
1.84394
1.84594
1.84526
1.84247
1.83956
1.83506
1.82722
1.81817
1.81274
1.81045
1.8092
1.8099
1.8107
1.80874
1.80609
1.80261
1.79581
1.78658
1.78076
1.77826
1.77659
1.77632
1.77858
1.78008
1.77838
1.77606
1.77153
1.76344
1.75509
1.75038
1.74853
1.74743
1.7472
1.74647
1.74473
1.74291
1.74042
1.73553
1.73013
1.72589
1.72426
1.7232
1.72209
1.72067
1.71924
1.71757
1.71412
1.71018
1.70659
1.70421
1.70274
1.701
1.69871
1.69527
1.69028
1.68538
1.68265
1.68127
1.68031
1.68008
1.68004
1.67921
1.67805
1.67639
1.67331
1.66892
1.66527
1.66277
1.66018
1.6572
1.65423
1.65146
1.64896
1.64705
1.64468
1.64155
1.63903
1.63789
1.6373
1.63634
1.63501
1.63315
1.6305
1.62689
1.62328
1.62062
1.619
1.61718
1.61447
1.61074
1.60773
1.60664
1.60565
1.60418
1.60177
1.59837
1.5954
1.59348
1.59184
1.59029
1.58854
1.58628
1.58369
1.58115
1.57815
1.57394
1.56912
1.56474
1.56233
1.56104
1.56012
1.56002
1.56158
1.56224
1.56127
1.55993
1.55848
1.55638
1.55224
1.54469
1.53665
1.5334
1.53192
1.53069
1.52988
1.53006
1.53008
1.52876
1.52721
1.52553
1.52335
1.52037
1.51712
1.51471
1.51322
1.5118
1.5102
1.50817
1.50558
1.50318
1.50162
1.50053
1.49948
1.49841
1.49686
1.49434
1.49076
1.48611
1.48239
1.47991
1.47779
1.4757
1.47428
1.47352
1.47333
1.47389
1.47398
1.47291
1.47144
1.46881
1.465
1.46173
1.45953
1.45772
1.45671
1.45607
1.4558
1.45574
1.45491
1.45365
1.4513
1.44698
1.44256
1.44036
1.43912
1.43848
1.43813
1.43798
1.43821
1.43881
1.43879
1.43805
1.43676
1.43441
1.43047
1.42684
1.42508
1.42404
1.42312
1.42262
1.42214
1.42148
1.42072
1.42017
1.41965
1.41877
1.41755
1.41585
1.41416
1.41265
1.41092
1.40907
1.40745
1.40621
1.40559
1.40505
1.40447
1.40394
1.40334
1.40276
1.4019
1.40031
1.99691
1.98161
1.9751
1.97198
1.97152
1.97587
1.97948
1.97758
1.97225
1.96316
1.95399
1.94833
1.94551
1.94393
1.94223
1.93969
1.93595
1.93028
1.92514
1.92209
1.91985
1.91859
1.9159
1.91228
1.90747
1.90022
1.8928
1.8883
1.88579
1.88471
1.88492
1.88332
1.88037
1.87717
1.87184
1.86384
1.85548
1.85032
1.84771
1.84587
1.84577
1.8472
1.84656
1.84403
1.84141
1.8376
1.83026
1.8209
1.81483
1.81237
1.81093
1.81132
1.81238
1.81076
1.80828
1.8055
1.79988
1.7916
1.78402
1.78005
1.7783
1.77786
1.78051
1.78285
1.78139
1.77926
1.77505
1.76794
1.75952
1.75364
1.7516
1.75057
1.75025
1.74942
1.74775
1.74593
1.7433
1.73854
1.73325
1.72931
1.72789
1.72686
1.7256
1.72404
1.72256
1.72025
1.71614
1.71154
1.7081
1.70616
1.70497
1.70367
1.70209
1.69987
1.69644
1.6911
1.68713
1.68498
1.6831
1.68143
1.67985
1.67812
1.67645
1.67469
1.67262
1.66996
1.6676
1.66659
1.66547
1.66379
1.6611
1.65718
1.65297
1.64933
1.64549
1.64139
1.63836
1.63706
1.63619
1.63581
1.63637
1.63654
1.63548
1.6338
1.63096
1.6262
1.621
1.61668
1.61288
1.60906
1.60663
1.60563
1.60528
1.60547
1.60496
1.60361
1.60146
1.59757
1.59385
1.59184
1.59014
1.58794
1.58496
1.58112
1.57724
1.57461
1.57288
1.57093
1.56787
1.56425
1.56208
1.56094
1.56025
1.55978
1.55937
1.55841
1.55691
1.55509
1.55251
1.54805
1.54198
1.53731
1.53477
1.53309
1.53203
1.53191
1.53158
1.52993
1.52809
1.52626
1.52372
1.51987
1.51582
1.51315
1.51179
1.51113
1.51085
1.51007
1.5087
1.50643
1.50361
1.50106
1.49882
1.4968
1.49527
1.49421
1.49322
1.49163
1.48834
1.48285
1.47756
1.47466
1.47312
1.47203
1.47129
1.47177
1.4738
1.47387
1.47288
1.47177
1.46982
1.46517
1.45927
1.45665
1.45575
1.45512
1.45485
1.45533
1.45577
1.45512
1.45405
1.45234
1.44785
1.44115
1.43808
1.43747
1.43702
1.4367
1.43682
1.43747
1.43763
1.43751
1.43696
1.4356
1.43292
1.42899
1.4256
1.42373
1.42256
1.42167
1.4209
1.42008
1.4192
1.4183
1.41731
1.41618
1.41464
1.41362
1.41329
1.41291
1.41233
1.41158
1.41025
1.40796
1.40487
1.40266
1.40205
1.40149
1.40098
1.40057
1.40024
1.40021
1.39975
1.98115
1.97508
1.9721
1.97243
1.97818
1.98234
1.98025
1.97463
1.96507
1.95546
1.95001
1.94707
1.94541
1.94351
1.94087
1.93727
1.93179
1.92663
1.9237
1.92157
1.92029
1.91764
1.91403
1.9094
1.90246
1.89509
1.8904
1.88794
1.88667
1.88612
1.88419
1.88154
1.87851
1.87342
1.86582
1.85771
1.85197
1.8494
1.84775
1.84762
1.84903
1.84849
1.84595
1.84337
1.8398
1.83328
1.82456
1.8176
1.81472
1.81304
1.81302
1.8146
1.81374
1.81129
1.80844
1.80271
1.79456
1.78763
1.78422
1.78249
1.78181
1.7837
1.78557
1.784
1.78195
1.7782
1.77127
1.76262
1.75759
1.75571
1.75468
1.75435
1.75343
1.75166
1.74948
1.74639
1.74144
1.7365
1.73261
1.73115
1.73032
1.7293
1.72775
1.72598
1.72273
1.71814
1.71406
1.71051
1.70832
1.70696
1.70552
1.70405
1.70269
1.70104
1.69731
1.69284
1.6902
1.6881
1.68565
1.6828
1.67997
1.67754
1.67524
1.67252
1.66957
1.66804
1.66734
1.66696
1.66665
1.66568
1.66399
1.66105
1.65571
1.64854
1.64237
1.63869
1.6369
1.63577
1.63483
1.63472
1.63623
1.63707
1.63633
1.63496
1.63314
1.62963
1.62246
1.61373
1.60861
1.60614
1.60491
1.60406
1.60401
1.60508
1.605
1.60376
1.60222
1.59961
1.59474
1.59021
1.5874
1.58514
1.58237
1.57884
1.5753
1.57301
1.57171
1.57057
1.56919
1.56684
1.56366
1.56108
1.55922
1.55791
1.55692
1.55601
1.55467
1.55266
1.54928
1.54484
1.5408
1.53874
1.53719
1.53583
1.53478
1.53357
1.53181
1.52999
1.5283
1.52561
1.52091
1.51628
1.51355
1.51214
1.51107
1.51012
1.50947
1.50894
1.50786
1.50649
1.50419
1.5007
1.49755
1.49539
1.49403
1.49313
1.49224
1.49104
1.48895
1.48369
1.47678
1.47349
1.47223
1.47122
1.4704
1.47059
1.47256
1.47324
1.47247
1.47152
1.46996
1.46526
1.45855
1.45591
1.455
1.45426
1.45396
1.45511
1.45579
1.45514
1.4541
1.45257
1.4484
1.44115
1.43755
1.4365
1.43594
1.43554
1.43554
1.43622
1.43609
1.43567
1.43511
1.4341
1.4316
1.4277
1.42478
1.42321
1.42195
1.42073
1.41951
1.41837
1.41729
1.41613
1.41461
1.41253
1.41112
1.41061
1.41032
1.41071
1.4115
1.41116
1.41006
1.40827
1.40513
1.40117
1.39886
1.39852
1.39821
1.39788
1.39761
1.39759
1.39781
1.97582
1.97296
1.97373
1.98034
1.98465
1.98253
1.97673
1.96658
1.95636
1.95135
1.94861
1.94688
1.9448
1.94197
1.93851
1.93336
1.92811
1.92523
1.92318
1.92177
1.91932
1.91586
1.91138
1.90482
1.89788
1.89335
1.89085
1.88932
1.88812
1.88571
1.883
1.87984
1.87491
1.86812
1.8605
1.85471
1.85212
1.8503
1.84959
1.85062
1.85093
1.84868
1.84628
1.84324
1.83679
1.82701
1.82034
1.81751
1.81577
1.81535
1.81694
1.81693
1.81474
1.81244
1.8073
1.79824
1.79044
1.7867
1.78523
1.78468
1.7866
1.78888
1.78754
1.78521
1.78125
1.77472
1.76682
1.76094
1.75866
1.75769
1.75758
1.75698
1.75533
1.75336
1.75053
1.74539
1.73996
1.73601
1.73458
1.7338
1.73273
1.73122
1.72964
1.72602
1.72072
1.71622
1.71264
1.7108
1.70956
1.70814
1.70638
1.70465
1.70286
1.69947
1.69564
1.69358
1.69227
1.69069
1.68854
1.68562
1.68193
1.67757
1.67286
1.66947
1.66788
1.66709
1.66671
1.66702
1.6674
1.66672
1.66531
1.66306
1.65785
1.64872
1.64123
1.63798
1.63645
1.63522
1.63424
1.63413
1.63554
1.63682
1.63647
1.63529
1.63365
1.63064
1.62339
1.61314
1.60738
1.60553
1.60428
1.60341
1.60391
1.60545
1.60537
1.60397
1.60219
1.59969
1.59572
1.59003
1.58555
1.58267
1.57996
1.57671
1.57432
1.57283
1.57152
1.57041
1.56938
1.56811
1.56595
1.56227
1.55842
1.55604
1.55474
1.55364
1.55199
1.54948
1.54587
1.54252
1.5412
1.54033
1.53956
1.53833
1.53648
1.53417
1.53224
1.53048
1.52777
1.52385
1.51909
1.51479
1.51293
1.51197
1.51126
1.51113
1.51104
1.51031
1.50913
1.5074
1.50431
1.49984
1.49684
1.49527
1.49398
1.4928
1.49202
1.49129
1.4893
1.48448
1.47772
1.47373
1.47217
1.47112
1.47042
1.4711
1.47348
1.47385
1.47292
1.47166
1.46974
1.46548
1.45977
1.45632
1.45497
1.4542
1.45382
1.45459
1.45589
1.45541
1.45413
1.45231
1.44867
1.44301
1.43836
1.4362
1.43528
1.4349
1.43532
1.43584
1.43525
1.43433
1.43331
1.43148
1.42818
1.42537
1.42393
1.42277
1.42151
1.42013
1.41869
1.41726
1.41593
1.4142
1.41149
1.40929
1.4086
1.40827
1.40806
1.40845
1.40989
1.41001
1.40919
1.40788
1.40567
1.40144
1.39719
1.39583
1.39567
1.39546
1.39525
1.39518
1.39541
1.9742
1.97538
1.98311
1.98803
1.98575
1.97908
1.96782
1.95636
1.95103
1.94884
1.9478
1.94661
1.94365
1.9405
1.93614
1.93043
1.92707
1.92473
1.92277
1.92043
1.91743
1.91352
1.90782
1.90091
1.89638
1.894
1.89222
1.8904
1.88792
1.88518
1.88194
1.87731
1.87072
1.86332
1.8575
1.85482
1.85303
1.85205
1.85262
1.85308
1.85099
1.84873
1.84641
1.84123
1.83266
1.82417
1.81989
1.81809
1.81739
1.81921
1.81984
1.81774
1.81548
1.81082
1.80326
1.79518
1.79044
1.78875
1.78803
1.78954
1.79182
1.79065
1.78852
1.78513
1.77847
1.7695
1.76414
1.76219
1.76121
1.76099
1.76047
1.75881
1.7569
1.75433
1.74949
1.74409
1.74022
1.73875
1.73758
1.73608
1.73424
1.73219
1.72846
1.72367
1.71905
1.71548
1.71378
1.71249
1.71101
1.70936
1.70762
1.70542
1.70138
1.6972
1.69515
1.69397
1.69283
1.69159
1.68999
1.68771
1.68396
1.67808
1.67209
1.66881
1.66749
1.66654
1.66607
1.66733
1.66869
1.66797
1.66641
1.66385
1.65852
1.64997
1.64256
1.63881
1.63672
1.63532
1.63442
1.63456
1.63691
1.6381
1.63732
1.63588
1.63391
1.63048
1.62361
1.6145
1.60864
1.60613
1.6047
1.60357
1.60274
1.60215
1.60171
1.60093
1.59991
1.59843
1.59576
1.59133
1.58534
1.58039
1.57722
1.5753
1.57391
1.57267
1.57169
1.57089
1.57005
1.56886
1.56707
1.56383
1.55917
1.55556
1.55319
1.55082
1.54811
1.54502
1.54312
1.54207
1.54196
1.54242
1.54187
1.54034
1.5383
1.53532
1.53158
1.5277
1.52417
1.52091
1.51746
1.51535
1.51419
1.51309
1.51187
1.51048
1.50869
1.50686
1.50552
1.50392
1.50137
1.49839
1.49655
1.49543
1.49429
1.49289
1.49131
1.48966
1.48758
1.48437
1.48
1.47589
1.47321
1.47182
1.47088
1.47025
1.47009
1.4697
1.46895
1.46806
1.46657
1.46446
1.46143
1.45873
1.45653
1.45513
1.45438
1.45356
1.45262
1.45171
1.45059
1.44908
1.44678
1.44343
1.44053
1.43824
1.43581
1.43391
1.43273
1.43195
1.43134
1.43071
1.42983
1.428
1.42534
1.42377
1.42274
1.42171
1.42057
1.41935
1.41807
1.41671
1.41486
1.41161
1.40817
1.40683
1.40652
1.40636
1.40629
1.4069
1.40808
1.40813
1.40752
1.40658
1.40511
1.40235
1.39754
1.39435
1.39346
1.39328
1.39306
1.39292
1.39305
1.9755
1.98518
1.99104
1.98905
1.98271
1.97083
1.95704
1.95052
1.94807
1.94683
1.94759
1.94607
1.94295
1.93935
1.93462
1.92955
1.92624
1.92353
1.92077
1.91784
1.91462
1.91041
1.90466
1.90007
1.8976
1.89562
1.89332
1.89048
1.88714
1.88348
1.87952
1.87478
1.8682
1.86105
1.85782
1.85595
1.85454
1.8543
1.85524
1.854
1.85162
1.84932
1.84457
1.83653
1.82836
1.82408
1.82217
1.82117
1.82222
1.82359
1.82189
1.81943
1.81465
1.80621
1.79762
1.79407
1.79264
1.79185
1.79295
1.79526
1.79425
1.79195
1.78862
1.78263
1.77469
1.76828
1.76524
1.76403
1.76362
1.76325
1.76166
1.75989
1.75752
1.75275
1.74745
1.74405
1.74275
1.74178
1.74034
1.73832
1.7355
1.73083
1.72541
1.72115
1.71823
1.71668
1.71575
1.71474
1.71326
1.71133
1.70861
1.70343
1.69845
1.6961
1.69496
1.6938
1.69278
1.69172
1.69025
1.68833
1.6851
1.67902
1.67305
1.67
1.66812
1.66684
1.66602
1.66557
1.66528
1.66448
1.66326
1.66113
1.65739
1.65191
1.64721
1.64279
1.63884
1.6364
1.63505
1.63424
1.63375
1.63354
1.63281
1.63159
1.62987
1.6269
1.62221
1.61683
1.61245
1.60848
1.60544
1.60358
1.60206
1.60074
1.59958
1.59833
1.59708
1.59578
1.59422
1.59122
1.58587
1.57951
1.57605
1.57456
1.57346
1.57257
1.57168
1.57089
1.57004
1.56894
1.5676
1.56558
1.562
1.55642
1.55038
1.546
1.54322
1.54168
1.541
1.54147
1.54312
1.54406
1.54341
1.54215
1.54032
1.53673
1.53042
1.52372
1.5197
1.51762
1.51668
1.51598
1.51521
1.51416
1.51264
1.51039
1.50776
1.5053
1.50305
1.50116
1.49906
1.49693
1.49568
1.4947
1.49372
1.49264
1.49107
1.48858
1.48545
1.48272
1.48034
1.47809
1.47561
1.47302
1.47124
1.46974
1.46833
1.46723
1.46612
1.46481
1.46302
1.4613
1.4606
1.45991
1.45889
1.45736
1.45516
1.45251
1.45054
1.44922
1.44749
1.44523
1.44295
1.44174
1.44101
1.43998
1.43807
1.43478
1.43141
1.4297
1.42883
1.42786
1.42631
1.42449
1.42357
1.42287
1.4222
1.42131
1.42018
1.41898
1.41768
1.41584
1.41265
1.40853
1.40601
1.40516
1.40486
1.40476
1.40474
1.40589
1.40731
1.40679
1.40584
1.40502
1.40413
1.40236
1.39883
1.39443
1.39204
1.39119
1.39102
1.39091
1.39096
1.98806
1.99357
1.99139
1.98478
1.97346
1.95995
1.95197
1.94873
1.94676
1.94765
1.94884
1.94678
1.94398
1.94002
1.93366
1.92851
1.92523
1.92233
1.91941
1.91625
1.91264
1.90868
1.90499
1.90199
1.89884
1.89538
1.89222
1.8892
1.886
1.88234
1.87811
1.87294
1.8667
1.86239
1.8603
1.85856
1.85752
1.85774
1.85657
1.85423
1.85213
1.84817
1.84076
1.83223
1.82709
1.82533
1.82448
1.82577
1.82719
1.82557
1.82332
1.81894
1.81094
1.80196
1.79668
1.79467
1.79365
1.79481
1.79795
1.7976
1.79566
1.7928
1.78688
1.77802
1.77199
1.7695
1.76818
1.76756
1.76679
1.76503
1.76293
1.76028
1.75555
1.7503
1.7466
1.74533
1.7446
1.74334
1.74152
1.73925
1.73471
1.72875
1.72358
1.72025
1.71875
1.71797
1.71744
1.71612
1.71454
1.71259
1.70769
1.70153
1.69733
1.69568
1.69437
1.69338
1.6926
1.69144
1.69014
1.68845
1.68518
1.68022
1.67608
1.67306
1.67022
1.66756
1.66543
1.6641
1.66298
1.66125
1.6588
1.65587
1.65293
1.65095
1.64904
1.64665
1.64319
1.63895
1.63544
1.63304
1.63154
1.6306
1.62945
1.62762
1.62507
1.62185
1.61858
1.61655
1.61464
1.61205
1.6084
1.60449
1.60185
1.60006
1.59821
1.59601
1.59385
1.59187
1.59002
1.58816
1.58568
1.58209
1.57785
1.5746
1.57298
1.57181
1.57123
1.57073
1.56987
1.56897
1.56793
1.56646
1.56346
1.55679
1.54841
1.54358
1.54149
1.54026
1.53938
1.54
1.5429
1.5445
1.54402
1.54276
1.54108
1.53705
1.52881
1.52095
1.5173
1.51595
1.5152
1.51511
1.51472
1.51398
1.51305
1.51152
1.5089
1.50495
1.50081
1.49813
1.49689
1.49619
1.49539
1.49432
1.49303
1.49148
1.48929
1.48621
1.4832
1.48079
1.47951
1.47852
1.47738
1.47559
1.47296
1.46976
1.46716
1.46524
1.46322
1.46105
1.46002
1.45966
1.45968
1.45991
1.45931
1.45823
1.4564
1.45315
1.44928
1.44622
1.44382
1.44166
1.44062
1.44027
1.44034
1.43993
1.43902
1.4373
1.43386
1.42939
1.42595
1.42398
1.4229
1.42235
1.422
1.42198
1.422
1.42165
1.4207
1.41947
1.41796
1.4155
1.41047
1.40599
1.40451
1.40387
1.40357
1.40356
1.40361
1.40398
1.40439
1.40388
1.40295
1.4021
1.40126
1.40042
1.39887
1.39575
1.39217
1.39021
1.3895
1.38934
1.38905
1.99723
1.99461
1.98754
1.97426
1.95864
1.95251
1.95017
1.94832
1.94937
1.95228
1.95131
1.94896
1.94471
1.93649
1.92908
1.92582
1.92353
1.92126
1.91885
1.91625
1.9135
1.91067
1.90743
1.90256
1.89809
1.89451
1.89132
1.88829
1.88532
1.88205
1.87803
1.87199
1.86654
1.86434
1.86254
1.86123
1.86109
1.86042
1.8581
1.85565
1.85138
1.84462
1.83699
1.83141
1.82938
1.82839
1.82932
1.83143
1.83019
1.82772
1.82309
1.81513
1.80602
1.80043
1.79832
1.79717
1.79763
1.8003
1.80001
1.7979
1.7954
1.79066
1.78301
1.77595
1.77254
1.77124
1.77088
1.77053
1.76886
1.76677
1.76365
1.75832
1.75303
1.74923
1.74767
1.74667
1.74553
1.74416
1.7424
1.73861
1.73304
1.72731
1.72384
1.72216
1.7211
1.71991
1.71833
1.71699
1.71536
1.71124
1.70538
1.70039
1.69791
1.69599
1.69436
1.69289
1.69146
1.68998
1.68821
1.68576
1.68253
1.67963
1.67787
1.6761
1.67354
1.66963
1.66541
1.66221
1.65977
1.65711
1.65379
1.65108
1.64937
1.64858
1.64827
1.64697
1.64522
1.64259
1.63821
1.63314
1.62966
1.62733
1.62541
1.62281
1.61955
1.61752
1.61646
1.61587
1.61513
1.61365
1.61138
1.60734
1.60225
1.59826
1.59541
1.59291
1.59067
1.58873
1.58679
1.58492
1.58345
1.58212
1.5802
1.57709
1.57367
1.57182
1.57069
1.57004
1.57004
1.56931
1.56801
1.5666
1.56379
1.5569
1.54769
1.54303
1.54129
1.54002
1.53918
1.53971
1.54317
1.54529
1.54439
1.54265
1.54051
1.5362
1.52785
1.52002
1.51701
1.51564
1.51473
1.51435
1.51404
1.51362
1.51301
1.51173
1.50924
1.50463
1.49998
1.49734
1.49554
1.49411
1.49306
1.49251
1.4918
1.49038
1.48779
1.48415
1.48138
1.48037
1.47954
1.4791
1.47848
1.47718
1.4752
1.47186
1.46702
1.46242
1.45988
1.45877
1.45827
1.45816
1.45913
1.46003
1.45952
1.45855
1.45714
1.45422
1.44846
1.44298
1.44081
1.43999
1.43949
1.43929
1.43978
1.43967
1.43907
1.43817
1.43547
1.42945
1.42436
1.42247
1.42172
1.42118
1.42076
1.42081
1.42168
1.42205
1.4214
1.42014
1.41842
1.41467
1.40837
1.4047
1.40379
1.40308
1.40268
1.40261
1.40261
1.40288
1.40258
1.40184
1.40097
1.4
1.39899
1.39795
1.39702
1.39581
1.39386
1.39097
1.38831
1.38719
1.38684
1.99789
1.99075
1.97797
1.96237
1.95368
1.95003
1.94816
1.95016
1.95596
1.95646
1.95406
1.94893
1.94041
1.93198
1.92733
1.92468
1.92239
1.9207
1.91921
1.91743
1.91561
1.91236
1.90636
1.90089
1.89716
1.89439
1.89184
1.88926
1.88656
1.88388
1.87881
1.87201
1.86807
1.86599
1.86434
1.86409
1.86404
1.86194
1.85967
1.85603
1.84866
1.83974
1.835
1.83323
1.83224
1.83299
1.83512
1.83406
1.83199
1.82797
1.81979
1.80945
1.80374
1.80159
1.80043
1.80074
1.80312
1.80287
1.80072
1.79829
1.79331
1.7853
1.7789
1.77606
1.77475
1.77429
1.77402
1.77248
1.77033
1.76739
1.7622
1.75606
1.75156
1.7498
1.74866
1.74721
1.74562
1.74407
1.74068
1.73539
1.73063
1.72787
1.72632
1.72511
1.72352
1.7215
1.71931
1.71665
1.71232
1.70711
1.70274
1.70077
1.69929
1.6976
1.69556
1.69308
1.69052
1.68836
1.68586
1.68265
1.68046
1.67903
1.67794
1.6766
1.6749
1.67226
1.6674
1.66099
1.65537
1.65199
1.64987
1.64847
1.64713
1.6463
1.64665
1.64657
1.64501
1.6432
1.64064
1.63606
1.62997
1.62459
1.62035
1.61732
1.61547
1.6144
1.61438
1.61552
1.61565
1.61427
1.61246
1.6095
1.60328
1.59617
1.59217
1.58989
1.58792
1.58606
1.58459
1.58341
1.58245
1.58128
1.57989
1.57805
1.5754
1.5727
1.57085
1.5696
1.56864
1.56785
1.56734
1.56585
1.56262
1.55701
1.55059
1.54556
1.54243
1.54072
1.53975
1.53985
1.54008
1.54002
1.53959
1.53826
1.53628
1.5331
1.5284
1.52378
1.51996
1.517
1.5153
1.51423
1.51336