/*--------------------------------*- C++ -*----------------------------------*\
  =========                 |
  \\      /  F ield         | OpenFOAM: The Open Source CFD Toolbox
   \\    /   O peration     | Website:  https://openfoam.org
    \\  /    A nd           | Version:  7
     \\/     M anipulation  |
\*---------------------------------------------------------------------------*/
FoamFile
{
    version     2.0;
    format      ascii;
    class       volScalarField;
    location    "1.1";
    object      p;
}
// * * * * * * * * * * * * * * * * * * * * * * * * * * * * * * * * * * * * * //

dimensions      [1 -1 -2 0 0 0 0];

internalField   nonuniform List<scalar> 
3328
(
1
1
1
1
1
1
1
1
1
1
1
1
3.55392
10.3423
11.1416
11.2549
11.4684
11.6561
11.8306
11.9903
12.1125
12.2136
12.2741
12.3079
1
1
1
1
1
1
1
1
1
1
1
1
3.42754
10.232
11.1298
11.2532
11.4579
11.6379
11.8048
11.9596
12.0771
12.1713
12.2236
12.2545
1
1
1
1
1
1
1
1
1
1
1
1
3.13985
10.0415
11.1002
11.225
11.4228
11.5956
11.7574
11.9106
12.0224
12.1117
12.1558
12.1852
1
1
1
1
1
1
1
1
1
1
1
1
2.78084
9.74812
11.0611
11.1773
11.3639
11.5266
11.6839
11.8422
11.9491
12.0297
12.0594
12.0715
1
1
1
1
1
1
1
1
1
1
1
1
2.33588
9.26829
10.9987
11.1043
11.2739
11.4229
11.5696
11.7188
11.8072
11.8771
11.9009
11.9293
1
1
1
1
1
1
1
1
1
1
1
1
1.83147
8.57893
10.9169
10.9942
11.1541
11.2922
11.4293
11.5661
11.6423
11.6915
11.6847
11.6326
1
1
1
1
1
1
1
1
1
1
1
1
1.32297
7.6712
10.8582
10.9127
11.047
11.1534
11.2502
11.3325
11.3579
11.323
11.2617
11.2221
1
1
1
1
1
1
1
1
1
1
1
1
1.01715
6.47296
10.6618
10.7427
10.8628
10.9623
11.044
11.0903
11.0822
11.0211
10.9091
10.9146
1
1
1
1
1
1
1
1
1
1
1
1
1.00012
5.01161
10.3233
10.648
10.7368
10.794
10.8409
10.8613
10.7909
10.6099
10.0458
9.06172
1
1
1
1
1
1
1
1
1
1
1
1
1
3.48635
9.73406
10.5331
10.586
10.6255
10.6393
10.6228
10.4827
10.2133
9.72147
8.95567
1
1
1
1
1
1
1
1
1
1
1
1
1
2.05589
8.82023
10.4478
10.4193
10.4193
10.3893
10.3379
10.1754
9.87149
9.47501
8.87379
1
1
1
1
1
1
1
1
1
1
1
1
1
1.10646
7.28953
10.2989
10.2371
10.1885
10.1166
10.043
9.88839
9.61332
9.29338
8.8515
1
1
1
1
1
1
1
1
1
1
1
1
1
1.00123
5.16543
9.88286
10.1121
10.0558
9.95754
9.84888
9.68417
9.43022
9.16174
8.85371
1
1
1
1
1
1
1
1
1
1
1
1
1
0.999998
2.95504
9.14313
9.97352
9.87703
9.77227
9.6451
9.49341
9.28444
9.05747
8.82998
1
1
1
1
1
1
1
1
1
1
1
1
1
1
1.29416
7.60347
9.86298
9.70255
9.58353
9.44533
9.31496
9.15906
8.97562
8.79762
1
1
1
1
1
1
1
1
1
1
1
1
1
1
1.00744
5.18221
9.41344
9.52448
9.46346
9.35378
9.21257
9.07527
8.92408
8.76999
1
1
1
1
1
1
1
1
1
1
1
1
1
1
0.999988
2.49128
8.63546
9.46959
9.33438
9.21951
9.08597
8.96319
8.84292
8.71871
1
1
1
1
1
1
1
1
1
1
1
1
1
1
0.999998
1.15001
6.69371
9.29176
9.21111
9.11538
8.99102
8.87721
8.767
8.65621
1
1
1
1
1
1
1
1
1
1
1
1
1
1
1
1.00174
3.59891
8.67048
9.19842
9.07917
8.94506
8.82393
8.70454
8.58725
1
1
1
1
1
1
1
1
1
1
1
1
1
1
1
1
1.38734
7.22944
9.09735
8.98568
8.89085
8.7718
8.64102
8.52145
1
1
1
1
1
1
1
1
1
1
1
1
1
1
1
1
1.01114
4.15653
8.5307
8.91034
8.85437
8.73208
8.59466
8.47562
1
1
1
1
1
1
1
1
1
1
1
1
1
1
1
1
1.00002
1.53961
7.24449
8.91962
8.808
8.69886
8.55159
8.4187
1
1
1
1
1
1
1
1
1
1
1
1
1
1
1
1
1
1.02001
4.16937
8.45329
8.67326
8.60731
8.50111
8.37622
1
1
1
1
1
1
1
1
1
1
1
1
1
1
1
1
1
1.00006
1.53555
7.05121
8.71183
8.60148
8.48702
8.33969
1
1
1
1
1
1
1
1
1
1
1
1
1
1
1
1
1
1
1.01908
3.76245
8.25665
8.53935
8.43703
8.31017
1
1
1
1
1
1
1
1
1
1
1
1
1
1
1
1
1
1
1.00007
1.40473
6.50067
8.55361
8.4691
8.30112
1
1
1
1
1
1
1
1
1
1
1
1
1
1
1
1
1
1
1
1.01076
2.98588
7.98238
8.46449
8.29396
1
1
1
1
1
1
1
1
1
1
1
1
1
1
1
1
1
1
1
1.00003
1.21569
5.71261
8.25655
8.23452
1
1
1
1
1
1
1
1
1
1
1
1
1
1
1
1
1
1
1
1
1.00332
2.28307
7.35443
8.32509
1
1
1
1
1
1
1
1
1
1
1
1
1
1
1
1
1
1
1
1
1.00001
1.09607
4.35909
8.04228
1
1
1
1
1
1
1
1
1
1
1
1
1
1
1
1
1
1
1
1
1
1.00096
1.61108
6.40013
1
1
1
1
1
1
1
1
1
1
1
1
1
1
1
1
1
1
1
1
1
1
1.0228
2.92613
1
1
1
1
1
1
1
1
1
1
1
1
1
1
1
1
1
1
1
1
1
1
1.00012
1.20489
1
1
1
1
1
1
1
1
1
1
1
1
1
1
1
1
1
1
1
1
1
1
1
1.00345
1
1
1
1
1
1
1
1
1
1
1
1
1
1
1
1
1
1
1
1
1
1
1
1.00001
1
1
1
1
1
1
1
1
1
1
1
1
1
1
1
1
1
1
1
1
1
1
1
1
1
1
1
1
1
1
1
1
1
1
1
1
1
1
1
1
1
1
1
1
1
1
1
1
1
1
1
1
1
1
1
1
1
1
1
1
1
1
1
1
1
1
1
1
1
1
1
1
1
1
1
1
1
1
1
1
1
1
1
1
1
1
1
1
1
1
1
1
1
1
1
1
1
1
1
1
1
1
1
1
1
1
1
1
1
1
1
1
1
1
1
1
1
1
1
1
6.34796
7.40476
8.00212
8.24348
8.31502
8.3357
8.36173
8.33889
8.31936
8.61567
8.37899
8.3435
8.31493
8.31317
8.34569
8.33253
8.49179
8.43602
8.22324
8.26186
8.24779
8.30892
8.3355
8.327
8.60007
8.49476
8.34824
8.3979
8.32221
8.35221
8.32221
8.36483
8.67245
8.55236
8.38715
8.36572
8.26953
8.30065
8.25196
8.40355
8.66017
8.52609
8.39565
8.37492
8.3375
8.36803
8.33845
8.52728
8.64732
8.52518
8.42216
8.39458
8.34699
8.32425
8.32238
8.50322
8.62846
8.50913
8.4089
8.35327
8.291
8.25422
8.3606
8.63104
8.59632
8.48917
8.39708
8.32839
8.22869
8.05405
7.69474
6.30695
8.55224
8.45299
8.34473
8.23708
8.06621
7.76069
7.15811
5.82794
8.48353
8.38124
8.25691
8.11492
7.88819
7.52139
6.87635
5.70618
8.41495
8.30798
8.16886
7.99438
7.72641
7.31636
6.67
5.64557
8.36262
8.23887
8.07594
7.86536
7.5687
7.14774
6.53698
5.66399
8.29775
8.16505
7.98496
7.75727
7.4545
7.02853
6.45329
5.69683
8.2449
8.10707
7.91992
7.68013
7.36492
6.93693
6.40244
5.72883
8.18232
8.02194
7.83856
7.60655
7.29666
6.88033
6.3816
5.7808
8.15024
7.97573
7.78334
7.54929
7.24776
6.85016
6.38103
5.82869
8.11307
7.93094
7.73179
7.48627
7.19091
6.81724
6.38156
5.88232
8.11342
7.91321
7.70624
7.45513
7.16383
6.80594
6.39014
5.93081
8.0867
7.87123
7.64252
7.40025
7.13044
6.80809
6.42545
5.99633
8.12317
7.91481
7.6611
7.39167
7.10935
6.80342
6.45153
6.04966
8.13367
7.93372
7.70069
7.43352
7.14367
6.83762
6.49671
6.11673
8.1209
7.96498
7.74455
7.47727
7.16835
6.83941
6.50659
6.16652
7.49077
8.00462
7.7722
7.50426
7.20922
6.88616
6.54217
6.21141
4.82827
7.73275
7.74559
7.49272
7.23915
6.94097
6.60447
6.29107
1.83291
6.26511
7.74006
7.5131
7.26242
6.97644
6.69909
6.6021
1.04006
2.94031
7.03492
7.54647
7.30843
7.14718
7.75212
9.65335
1.00028
1.20563
4.35245
6.93731
7.75268
9.67319
12.218
13.8919
1
1.00353
1.64955
5.57863
12.0245
14.7214
15.3443
15.1153
1
1.00001
1.04554
7.38906
16.4005
16.636
15.7676
15.1792
1
1
1.51182
9.15024
15.6466
15.5496
14.9716
14.7506
1
1
2.2036
10.6296
14.5032
14.9577
15.0994
15.1345
1.9234
0.88296
0.581406
0.516294
0.537634
0.62202
0.729121
0.839486
0.941949
0.997541
1.02219
1.03702
1.02787
1.01402
1.00826
1.01317
1.01203
1.00911
1.02702
1.04012
1.03523
1.02048
0.996421
0.989405
1.05242
1.42142
2.28879
3.64673
5.1176
6.75649
7.30962
7.25224
6.88048
6.33484
5.87219
5.64598
5.46702
5.3045
5.1366
4.94284
4.74407
4.54899
4.43639
4.36925
4.30696
4.22896
4.14631
4.05886
3.95576
3.82605
3.71242
3.63494
3.56066
3.48167
3.40227
3.32528
3.24758
3.16457
3.07567
2.98165
2.88834
2.81762
2.77187
2.73477
2.6963
2.65537
2.61788
2.57983
2.53794
2.48965
2.43063
2.35913
2.27031
2.1892
2.15618
2.1356
2.11901
2.11627
2.09896
2.06146
2.02935
1.99109
1.91804
1.84269
1.80742
1.77737
1.75028
1.72796
2.9101
1.77094
1.36692
1.09616
0.919316
0.853668
0.805408
0.805329
0.831636
0.871028
0.905599
0.94339
0.966248
0.973392
0.983623
0.988283
0.986501
0.9828
0.999299
1.01094
1.00686
0.9938
1.01591
1.16265
1.57661
2.18506
2.6094
2.87109
3.47401
4.22803
5.03071
5.65553
5.94312
5.89455
5.7585
5.60834
5.48015
5.3473
5.18886
5.01697
4.84066
4.64221
4.46924
4.38282
4.30124
4.21238
4.12338
4.0295
3.9208
3.79449
3.65351
3.56038
3.49138
3.42061
3.35362
3.28986
3.22422
3.15628
3.08376
2.99959
2.90844
2.83918
2.79543
2.75823
2.71548
2.67216
2.64048
2.60637
2.5625
2.51157
2.45276
2.38346
2.30058
2.20935
2.15905
2.13632
2.11723
2.10794
2.09252
2.05687
2.02523
1.99352
1.94129
1.86409
1.81624
1.78394
1.75524
1.72759
3.69009
2.48241
1.81143
1.45106
1.20665
1.0077
0.895219
0.826695
0.809564
0.822913
0.858811
0.91228
0.958033
0.970854
0.974439
0.980418
0.99647
1.01004
1.02079
1.01669
1.01269
1.0553
1.32277
1.89676
2.43879
2.75601
2.82532
2.77129
2.7148
2.85022
3.33897
4.13297
4.89901
5.38795
5.53115
5.50712
5.46569
5.41571
5.30118
5.14178
4.94669
4.72865
4.51214
4.35124
4.24109
4.13508
4.03583
3.94529
3.85502
3.75913
3.64151
3.54815
3.48994
3.43052
3.37666
3.3278
3.27455
3.21889
3.1593
3.08034
2.97434
2.87822
2.82035
2.77853
2.73333
2.68179
2.63976
2.59892
2.54875
2.49076
2.43031
2.36955
2.30573
2.2298
2.15162
2.11087
2.0873
2.06564
2.0426
2.01206
1.9847
1.96078
1.92945
1.87477
1.81326
1.77661
1.75037
1.72022
4.14807
3.11852
2.36359
1.85326
1.58136
1.33158
1.12828
1.04946
0.997289
0.919773
0.879607
0.888424
0.894039
0.896102
0.904921
0.923922
0.956238
0.984213
0.994156
1.00672
1.06951
1.41148
2.1833
2.60193
2.84822
2.8981
2.85851
2.78705
2.69058
2.65427
2.66702
2.8272
3.26243
3.91282
4.45702
4.79279
4.94671
5.003
5.00778
4.93435
4.87511
4.80567
4.68084
4.50644
4.36138
4.24286
4.11821
3.99962
3.88595
3.76488
3.63498
3.5203
3.4332
3.35799
3.29389
3.24243
3.19501
3.146
3.09163
3.02804
2.94478
2.85648
2.7898
2.74538
2.70815
2.66487
2.61666
2.57286
2.52362
2.46458
2.40793
2.36086
2.31585
2.26369
2.19388
2.12083
2.08439
2.05871
2.04006
2.01361
1.98419
1.9598
1.93514
1.90314
1.85516
1.80399
1.77483
1.73349
4.51325
3.59478
2.84701
2.27893
1.94347
1.69889
1.42777
1.21433
1.14181
1.06109
0.958488
0.931187
0.912988
0.883464
0.882552
0.890934
0.913185
0.941507
0.976975
1.08837
1.47755
2.27861
2.71999
2.82167
2.85528
2.85362
2.79501
2.73475
2.66423
2.61809
2.62152
2.62505
2.64925
2.76047
2.99424
3.34251
3.72026
4.05902
4.33891
4.46914
4.53672
4.54365
4.48084
4.36171
4.27716
4.24392
4.18584
4.1045
4.0012
3.88228
3.73463
3.58232
3.44271
3.32535
3.23422
3.16369
3.10359
3.04604
2.98805
2.93244
2.88296
2.82288
2.74802
2.71614
2.70262
2.67377
2.62821
2.5839
2.53439
2.47125
2.41633
2.37756
2.34413
2.30452
2.24963
2.17599
2.09631
2.05389
2.02828
2.00233
1.97383
1.94789
1.92586
1.90545
1.87904
1.83661
1.7902
1.72925
4.74787
3.95086
3.29178
2.72318
2.28292
2.00027
1.7589
1.52762
1.36468
1.25557
1.12575
1.05468
1.03649
0.988745
0.938207
0.911039
0.910195
0.936588
1.09506
1.60713
2.30095
2.74474
2.72415
2.7156
2.72648
2.69662
2.62589
2.58899
2.56254
2.53055
2.52172
2.52838
2.50692
2.51875
2.54386
2.5598
2.61727
2.7599
2.99797
3.29102
3.58113
3.83468
3.98572
4.04024
4.03363
4.03242
3.99183
3.93235
3.87543
3.80174
3.71592
3.63283
3.532
3.41247
3.30291
3.21601
3.13824
3.05879
2.9824
2.91429
2.85725
2.79427
2.71709
2.66598
2.63805
2.60515
2.56238
2.52203
2.48285
2.42236
2.38679
2.36277
2.33171
2.29597
2.25641
2.20389
2.12354
2.05131
2.01033
1.97927
1.95422
1.92987
1.91212
1.90117
1.88737
1.85778
1.80479
1.7239
4.94771
4.26031
3.60539
3.05943
2.67291
2.3427
2.0238
1.7888
1.60469
1.45856
1.33399
1.21532
1.1627
1.0942
1.01104
0.957657
0.974058
1.17732
1.86535
2.47226
2.78062
2.75596
2.66671
2.57048
2.51584
2.47033
2.42653
2.39971
2.39391
2.38453
2.34909
2.32332
2.31427
2.30585
2.32422
2.36475
2.38885
2.3947
2.3743
2.38107
2.45542
2.61593
2.83635
3.07808
3.29024
3.46261
3.5513
3.59448
3.62371
3.59127
3.53169
3.47754
3.42587
3.36475
3.27679
3.20026
3.14844
3.09027
3.0318
2.96764
2.90182
2.82699
2.74269
2.6618
2.59467
2.54151
2.49143
2.44446
2.39501
2.3465
2.32683
2.3016
2.26874
2.24373
2.22703
2.198
2.14523
2.072
2.01968
1.99288
1.97515
1.95041
1.91741
1.89837
1.88058
1.85671
1.82691
1.75934
5.09685
4.48267
3.91016
3.3969
2.96042
2.61132
2.31035
2.06446
1.86427
1.66866
1.50635
1.3949
1.31884
1.24662
1.14466
1.19145
1.50466
2.22086
2.90738
2.99468
2.93086
2.79792
2.63659
2.52526
2.45734
2.41447
2.39979
2.36978
2.30631
2.23901
2.17683
2.10982
2.06066
2.05169
2.06505
2.12218
2.19013
2.21284
2.22606
2.22257
2.185
2.13449
2.11392
2.13043
2.20611
2.33796
2.50756
2.6785
2.84796
2.97514
3.08046
3.1496
3.15904
3.15752
3.12243
3.07588
3.02646
2.96199
2.92489
2.91161
2.88867
2.8531
2.80882
2.72344
2.61746
2.54588
2.48646
2.42421
2.36215
2.32263
2.30419
2.27558
2.24596
2.22309
2.2087
2.18881
2.14497
2.05507
1.95594
1.92187
1.90273
1.8918
1.9067
1.90834
1.89559
1.87916
1.86063
1.79248
5.22657
4.67363
4.13076
3.65124
3.24782
2.8812
2.56207
2.29327
2.08834
1.89748
1.73144
1.56876
1.45965
1.40614
1.5367
2.04487
2.77743
3.36224
3.37267
3.22536
3.0411
2.87307
2.73038
2.60994
2.54377
2.49018
2.4316
2.36631
2.2898
2.20832
2.12344
2.05138
2.01062
1.96514
1.91042
1.89343
1.91142
1.96103
2.02194
2.04451
2.05017
2.05328
2.01876
1.96622
1.91902
1.87208
1.83689
1.84007
1.88194
1.96166
2.08446
2.24429
2.41623
2.52399
2.59386
2.65267
2.71707
2.75753
2.75967
2.72581
2.70506
2.7197
2.71445
2.67752
2.61104
2.55122
2.51507
2.46542
2.37504
2.32039
2.30639
2.28844
2.26128
2.23762
2.20703
2.15737
2.09739
2.019
1.93123
1.88757
1.86914
1.85941
1.86069
1.85279
1.83985
1.82931
1.81688
1.76137
5.34357
4.82909
4.3314
3.88728
3.49333
3.11229
2.80456
2.54373
2.3068
2.09752
1.89146
1.7704
1.71812
1.96092
2.77202
3.51113
3.8729
3.78884
3.58082
3.38629
3.23023
3.0803
2.9374
2.81238
2.71103
2.61265
2.51094
2.41286
2.31755
2.22996
2.14964
2.0762
2.00799
1.93852
1.87801
1.84219
1.80127
1.77378
1.77223
1.79978
1.86009
1.90402
1.93128
1.9154
1.86302
1.80271
1.75539
1.71059
1.66362
1.62538
1.59463
1.58846
1.60724
1.64688
1.71383
1.80904
1.89693
2.0079
2.13796
2.24677
2.31958
2.41063
2.48499
2.50466
2.48097
2.46766
2.46429
2.45153
2.3884
2.34204
2.30464
2.2893
2.29605
2.26407
2.19809
2.12512
2.0625
2.00133
1.92871
1.87252
1.85394
1.84561
1.84456
1.83141
1.81866
1.80837
1.79447
1.74417
5.44005
4.95489
4.51318
4.08503
3.69266
3.32623
3.02751
2.76952
2.4957
2.28122
2.11742
2.15127
2.61105
3.65015
4.41107
4.37105
4.2189
3.99547
3.79176
3.62046
3.47949
3.33169
3.16918
3.00949
2.86381
2.73433
2.62308
2.51902
2.42452
2.3441
2.26733
2.1899
2.10783
2.01353
1.91829
1.83806
1.77835
1.73483
1.70711
1.68143
1.68416
1.72143
1.78898
1.79921
1.76095
1.73862
1.71931
1.67719
1.62353
1.5749
1.53526
1.49799
1.45798
1.41493
1.3649
1.31242
1.28503
1.298
1.33447
1.42301
1.54327
1.67909
1.83438
1.96164
2.04547
2.13087
2.1791
2.21828
2.27837
2.30087
2.29027
2.27708
2.271
2.25178
2.2127
2.14436
2.05917
1.9924
1.93771
1.88217
1.8527
1.84322
1.83263
1.81737
1.80702
1.79724
1.78175
1.73091
5.54965
5.07833
4.66448
4.26381
3.8771
3.55336
3.21674
2.93291
2.72138
2.53861
2.84041
3.69472
4.69063
5.24128
5.10316
4.8249
4.48748
4.23762
4.07093
3.90967
3.73413
3.5454
3.36011
3.19365
3.04527
2.90587
2.77293
2.65064
2.54386
2.4492
2.35959
2.27104
2.17258
2.06499
1.96822
1.88144
1.80747
1.74626
1.68999
1.64847
1.62975
1.62554
1.63313
1.63614
1.63147
1.63354
1.64072
1.63697
1.60037
1.54245
1.49055
1.44448
1.4024
1.36659
1.32585
1.27389
1.2254
1.17202
1.1304
1.1187
1.11817
1.13026
1.16356
1.21643
1.28508
1.37615
1.50739
1.63129
1.77129
1.92709
2.04972
2.10683
2.15175
2.17183
2.17034
2.1385
2.07658
2.03285
1.99315
1.9499
1.9073
1.86787
1.83714
1.81754
1.80242
1.78873
1.77268
1.72454
5.6398
5.19298
4.79096
4.42296
4.01672
3.70865
3.42181
3.15819
3.19483
3.86418
5.11268
5.87382
5.98487
5.73489
5.35146
5.02721
4.69447
4.47415
4.30833
4.12467
3.94078
3.7638
3.58622
3.4021
3.21768
3.04663
2.89572
2.76514
2.65388
2.5548
2.4622
2.3703
2.26995
2.16122
2.05949
1.96989
1.89038
1.81641
1.73919
1.67199
1.62415
1.5971
1.57675
1.54899
1.53555
1.5322
1.54315
1.55799
1.54143
1.4928
1.43847
1.39422
1.35953
1.33326
1.30629
1.2717
1.22294
1.16373
1.11471
1.09214
1.07394
1.04864
1.02441
1.0062
0.988241
0.984373
0.993752
1.0266
1.10214
1.21246
1.37765
1.54258
1.68721
1.79934
1.90818
1.98628
1.96644
1.94233
1.94634
1.95037
1.93934
1.91022
1.88563
1.85741
1.83311
1.81016
1.78565
1.73329
5.72129
5.30168
4.90734
4.56459
4.16796
3.87108
3.75176
4.2872
5.3672
6.62543
7.01747
6.74652
6.43523
6.00947
5.63312
5.30826
4.97982
4.72442
4.51721
4.32411
4.1387
3.96168
3.78385
3.5978
3.39921
3.19604
3.01464
2.87013
2.75442
2.65439
2.56109
2.46834
2.37053
2.26629
2.16107
2.0614
1.97092
1.88557
1.80101
1.72222
1.64969
1.59591
1.5499
1.50402
1.48475
1.47725
1.4757
1.4789
1.46697
1.42852
1.37325
1.33973
1.3195
1.29823
1.27296
1.24884
1.22297
1.17511
1.11913
1.08219
1.05665
1.02786
0.99798
0.978352
0.958825
0.943982
0.932474
0.918526
0.893629
0.860893
0.869038
0.901237
0.978318
1.1038
1.25256
1.43337
1.63333
1.71202
1.7476
1.81081
1.82725
1.80402
1.79441
1.79981
1.80781
1.79742
1.7806
1.7472
5.78936
5.40012
5.0173
4.69617
4.43075
4.65147
5.7104
7.39117
7.91639
7.95196
7.53268
7.00128
6.61162
6.27813
5.9927
5.69078
5.35371
5.00551
4.72647
4.50975
4.31211
4.12406
3.94051
3.75346
3.55518
3.34915
3.15749
2.99659
2.86124
2.74034
2.62751
2.52105
2.42087
2.32703
2.23893
2.15332
2.06161
1.95823
1.85397
1.7681
1.69712
1.62976
1.56222
1.49517
1.46262
1.44699
1.43976
1.43295
1.41475
1.37895
1.32221
1.2897
1.27865
1.26756
1.25024
1.22419
1.19521
1.16234
1.1077
1.0615
1.03839
1.01636
0.987628
0.965215
0.953288
0.940137
0.923306
0.901552
0.870398
0.834166
0.795705
0.767464
0.758951
0.763428
0.785149
0.844537
0.96008
1.10877
1.23319
1.34267
1.46202
1.55607
1.57717
1.61967
1.66387
1.6608
1.66607
1.6597
5.8383
5.47148
5.22632
5.27988
6.29094
7.7985
8.8742
9.32634
9.02585
8.438
7.80303
7.27202
6.83283
6.53631
6.26921
5.9542
5.61215
5.26889
4.95666
4.69288
4.46586
4.26148
4.07082
3.88603
3.69884
3.50486
3.31152
3.1324
2.97388
2.83169
2.69892
2.57426
2.46371
2.37109
2.29279
2.21964
2.14086
2.04861
1.94417
1.8401
1.75083
1.66983
1.59736
1.53621
1.4858
1.45319
1.43469
1.4154
1.38819
1.34569
1.2913
1.2556
1.23613
1.2261
1.21745
1.1978
1.16893
1.13651
1.08878
1.0468
1.02568
1.00953
0.98862
0.96467
0.938596
0.916536
0.898166
0.879216
0.856763
0.825929
0.785577
0.755955
0.741415
0.729648
0.715214
0.70281
0.700737
0.710881
0.736394
0.784974
0.85388
0.953445
1.05781
1.14808
1.25347
1.33139
1.38099
1.43513
6.0116
5.93019
6.77466
8.47475
10.1685
10.4176
10.0447
9.69863
9.19355
8.64503
8.09711
7.60595
7.17196
6.82583
6.4904
6.14771
5.80722
5.46279
5.13033
4.84543
4.60687
4.39685
4.20146
4.01294
3.82683
3.63842
3.44496
3.25085
3.06942
2.90871
2.76715
2.64238
2.5321
2.43152
2.33813
2.25006
2.16701
2.09051
2.00844
1.91062
1.8031
1.69434
1.60492
1.55186
1.51855
1.48469
1.44988
1.42113
1.38598
1.32953
1.26773
1.22977
1.2044
1.18781
1.18367
1.17402
1.14871
1.11276
1.07545
1.04714
1.01611
0.98424
0.958822
0.934218
0.91598
0.901777
0.888011
0.870271
0.843582
0.808422
0.772614
0.747522
0.734415
0.7221
0.706089
0.68995
0.673551
0.657816
0.648935
0.642522
0.64167
0.650738
0.676799
0.716908
0.772856
0.840815
0.899135
0.992923
7.36903
9.21757
10.9667
11.7769
11.8844
11.306
10.5465
9.85754
9.28811
8.82495
8.36777
7.92018
7.49255
7.08592
6.7006
6.33619
5.98922
5.64801
5.31081
4.99928
4.73161
4.50372
4.30287
4.11736
3.93803
3.75694
3.56613
3.36112
3.15071
2.96286
2.81727
2.70542
2.6074
2.51248
2.41829
2.32114
2.21483
2.10554
2.01085
1.93329
1.85229
1.76008
1.66994
1.58714
1.52389
1.48755
1.46354
1.43695
1.39141
1.3203
1.24972
1.21086
1.18564
1.16331
1.15429
1.15116
1.14137
1.11685
1.08212
1.04257
1.00558
0.973199
0.945821
0.9191
0.902447
0.891551
0.878411
0.859925
0.833588
0.799582
0.769726
0.753969
0.744176
0.731862
0.712419
0.687467
0.663848
0.646332
0.635975
0.627168
0.621934
0.617116
0.609258
0.609383
0.61625
0.630076
0.648028
0.691283
11.8139
13.1735
12.9521
12.5964
12.1638
11.521
10.8177
10.1669
9.60187
9.09749
8.59816
8.12616
7.69463
7.28323
6.89205
6.51935
6.16272
5.814
5.4744
5.1516
4.86122
4.60984
4.38839
4.18661
3.99995
3.82118
3.63834
3.44116
3.23154
3.0315
2.86557
2.73811
2.64077
2.56005
2.48278
2.39372
2.28493
2.16807
2.05521
1.94156
1.8351
1.76153
1.69981
1.62942
1.56492
1.51294
1.47392
1.43628
1.38989
1.33418
1.26982
1.21567
1.17543
1.15312
1.14248
1.132
1.11163
1.08352
1.05455
1.02532
0.994655
0.964405
0.936733
0.913736
0.8968
0.883788
0.869133
0.848906
0.822436
0.791442
0.762359
0.73875
0.720347
0.708507
0.696283
0.679572
0.660705
0.647584
0.637168
0.626599
0.617631
0.609067
0.587955
0.576684
0.576896
0.581431
0.586955
0.606269
14.3173
14.2161
13.5682
12.9069
12.2965
11.6888
11.087
10.562
10.008
9.43454
8.84163
8.26907
7.7917
7.3841
7.0079
6.64944
6.30687
5.97251
5.64266
5.31737
5.00379
4.7213
4.47287
4.25078
4.04766
3.85712
3.67209
3.4858
3.29649
3.11347
2.95174
2.81483
2.69884
2.59863
2.49754
2.39548
2.29811
2.20234
2.09976
1.99351
1.88793
1.78748
1.72017
1.67145
1.61707
1.55586
1.49465
1.44125
1.38418
1.32928
1.2879
1.24524
1.20161
1.17144
1.15094
1.12613
1.0972
1.06577
1.0414
1.02638
1.00535
0.976851
0.948099
0.923005
0.902306
0.881864
0.860593
0.83704
0.810223
0.787434
0.766825
0.742213
0.710683
0.694125
0.688939
0.682465
0.67401
0.664722
0.65315
0.639638
0.62408
0.605426
0.578897
0.560165
0.55886
0.561411
0.568296
0.586293
14.9545
14.4153
13.7383
13.0825
12.4271
11.8195
11.2687
10.7553
10.2879
9.74478
9.13192
8.50755
7.97195
7.54424
7.19037
6.87233
6.54683
6.21168
5.86321
5.50023
5.14839
4.83365
4.56325
4.32706
4.11337
3.91543
3.72677
3.53862
3.34673
3.16419
3.01678
2.90729
2.80379
2.68616
2.56456
2.44204
2.31713
2.19382
2.09319
2.01565
1.94151
1.85063
1.7414
1.64257
1.58119
1.54957
1.51865
1.47118
1.41776
1.36243
1.30174
1.2426
1.18881
1.14545
1.1175
1.10004
1.08116
1.05736
1.03748
1.0129
0.979867
0.945228
0.916232
0.894573
0.878294
0.863224
0.845096
0.824778
0.804168
0.779835
0.752811
0.727182
0.700161
0.682335
0.674835
0.667968
0.660532
0.651424
0.639877
0.626267
0.608483
0.586654
0.56653
0.548751
0.544765
0.545711
0.552234
0.569075
14.8748
14.3499
13.8341
13.3091
12.6802
12.0298
11.4333
10.8899
10.4221
9.87253
9.2654
8.67273
8.13771
7.67418
7.26391
6.88499
6.52935
6.18292
5.83573
5.49336
5.16871
4.87417
4.6123
4.37637
4.15773
3.94968
3.75149
3.5669
3.39553
3.23349
3.07672
2.91857
2.76443
2.62944
2.51408
2.41302
2.31866
2.22638
2.14614
2.06469
1.97082
1.85939
1.73991
1.65097
1.59835
1.55018
1.49344
1.44062
1.40088
1.36246
1.31459
1.25655
1.19692
1.1492
1.11648
1.08964
1.07629
1.0672
1.04818
1.01445
0.975744
0.93934
0.910291
0.889762
0.874737
0.860597
0.844318
0.825193
0.803277
0.778212
0.751684
0.723265
0.693208
0.677484
0.671981
0.666568
0.660218
0.651422
0.639932
0.626315
0.608393
0.584246
0.561595
0.546343
0.540048
0.539746
0.542384
0.54926
14.6042
14.3128
13.951
13.4584
12.8109
12.1058
11.4367
10.8657
10.406
9.93776
9.38229
8.8232
8.28743
7.80317
7.36356
6.95474
6.57289
6.20873
5.85641
5.51727
5.20031
4.91469
4.65976
4.42638
4.20624
3.99476
3.79165
3.60115
3.4293
3.27117
3.11013
2.93706
2.76679
2.61775
2.50144
2.41158
2.34061
2.29548
2.23635
2.15575
2.05464
1.93457
1.81263
1.71673
1.64557
1.57913
1.51493
1.47704
1.44283
1.40398
1.35867
1.30646
1.24963
1.19986
1.16195
1.12598
1.0807
1.0377
1.01595
1.00509
0.986291
0.957358
0.929445
0.90958
0.895363
0.881401
0.863907
0.841341
0.815813
0.7899
0.762942
0.728861
0.69614
0.687007
0.68274
0.678504
0.672902
0.663499
0.651116
0.636071
0.616457
0.591089
0.568599
0.552722
0.544825
0.54209
0.540694
0.540839
15.016
14.7969
14.3991
13.821
13.1098
12.3602
11.6593
11.0422
10.5159
10.0001
9.44011
8.89696
8.36919
7.87603
7.42342
7.00334
6.60817
6.23135
5.86797
5.52213
5.20686
4.92948
4.68332
4.45647
4.23851
4.02419
3.81619
3.62195
3.44464
3.28024
3.12203
2.96252
2.79922
2.64222
2.50732
2.40322
2.32322
2.24834
2.17781
2.10167
2.00558
1.88196
1.7543
1.65701
1.58961
1.53935
1.49661
1.45025
1.40485
1.35945
1.30951
1.25432
1.20161
1.16297
1.13435
1.10292
1.06146
1.0194
0.990657
0.969958
0.947867
0.921694
0.897068
0.880098
0.868337
0.855939
0.839192
0.81702
0.791523
0.766106
0.737282
0.69695
0.671538
0.666051
0.66247
0.659396
0.655239
0.646456
0.635039
0.620323
0.598636
0.571627
0.549952
0.534746
0.530198
0.527883
0.526723
0.52715
)
;

boundaryField
{
    inlet
    {
        type            fixedValue;
        value           uniform 1;
    }
    outlet
    {
        type            zeroGradient;
    }
    bottom
    {
        type            zeroGradient;
    }
    top
    {
        type            zeroGradient;
    }
    obstacle
    {
        type            zeroGradient;
    }
    defaultFaces
    {
        type            empty;
    }
}


// ************************************************************************* //
