/*--------------------------------*- C++ -*----------------------------------*\
  =========                 |
  \\      /  F ield         | OpenFOAM: The Open Source CFD Toolbox
   \\    /   O peration     | Website:  https://openfoam.org
    \\  /    A nd           | Version:  7
     \\/     M anipulation  |
\*---------------------------------------------------------------------------*/
FoamFile
{
    version     2.0;
    format      ascii;
    class       volScalarField;
    location    "1.1";
    object      rho;
}
// * * * * * * * * * * * * * * * * * * * * * * * * * * * * * * * * * * * * * //

dimensions      [1 -3 0 0 0 0 0];

internalField   nonuniform List<scalar> 
3328
(
1.40001
1.40001
1.40001
1.40001
1.40001
1.40001
1.40001
1.40001
1.40001
1.40001
1.40001
1.40001
2.64649
5.20716
5.56888
5.64284
5.74892
5.83937
5.89369
5.89671
5.84521
5.75065
5.65652
5.61976
1.40001
1.40001
1.40001
1.40001
1.40001
1.40001
1.40001
1.40001
1.40001
1.40001
1.40001
1.40001
2.58794
5.17193
5.5635
5.64259
5.74624
5.83351
5.8844
5.88526
5.83177
5.7351
5.63904
5.60185
1.40001
1.40001
1.40001
1.40001
1.40001
1.40001
1.40001
1.40001
1.40001
1.40001
1.40001
1.40001
2.46112
5.12084
5.55282
5.63377
5.73601
5.81984
5.86836
5.86852
5.81272
5.71417
5.61552
5.57803
1.40001
1.40001
1.40001
1.40001
1.40001
1.40001
1.40001
1.40001
1.40001
1.40001
1.40001
1.40001
2.29861
5.03974
5.54386
5.62118
5.71861
5.79765
5.84489
5.84795
5.79098
5.68879
5.58403
5.54027
1.40001
1.40001
1.40001
1.40001
1.40001
1.40001
1.40001
1.40001
1.40001
1.40001
1.40001
1.40001
2.08443
4.89589
5.53416
5.60431
5.6917
5.76385
5.80795
5.8102
5.74901
5.64341
5.53561
5.49698
1.40001
1.40001
1.40001
1.40001
1.40001
1.40001
1.40001
1.40001
1.40001
1.40001
1.40001
1.40001
1.84281
4.69656
5.52356
5.5758
5.65457
5.72019
5.76109
5.76172
5.69885
5.58759
5.47263
5.41218
1.40001
1.40001
1.40001
1.40001
1.40001
1.40001
1.40001
1.40001
1.40001
1.40001
1.40001
1.40001
1.59004
4.41562
5.51667
5.55266
5.6204
5.67281
5.69891
5.68326
5.60658
5.47168
5.33983
5.28352
1.40001
1.40001
1.40001
1.40001
1.40001
1.40001
1.40001
1.40001
1.40001
1.40001
1.40001
1.40001
1.41374
3.9478
5.43553
5.49164
5.55975
5.60773
5.62663
5.60103
5.51965
5.38266
5.21543
5.13657
1.40001
1.40001
1.40001
1.40001
1.40001
1.40001
1.40001
1.40001
1.40001
1.40001
1.40001
1.40001
1.40012
3.3247
5.2889
5.46544
5.5249
5.55339
5.55798
5.52603
5.42995
5.26572
4.93986
4.42339
1.40001
1.40001
1.40001
1.40001
1.40001
1.40001
1.40001
1.40001
1.40001
1.40001
1.40001
1.40001
1.40001
2.66322
5.09736
5.44133
5.4817
5.5015
5.49434
5.45252
5.3399
5.15921
4.87798
4.45857
1.40001
1.40001
1.40001
1.40001
1.40001
1.40001
1.40001
1.40001
1.40001
1.40001
1.40001
1.40001
1.40001
2.0006
4.85932
5.43721
5.43345
5.43665
5.41684
5.36847
5.25601
5.07451
4.84379
4.51282
1.40001
1.40001
1.40001
1.40001
1.40001
1.40001
1.40001
1.40001
1.40001
1.40001
1.40001
1.40001
1.40001
1.48193
4.31798
5.39351
5.37708
5.36497
5.3341
5.28432
5.18329
5.02182
4.83264
4.58465
1.40001
1.40001
1.40001
1.40001
1.40001
1.40001
1.40001
1.40001
1.40001
1.40001
1.40001
1.40001
1.40001
1.40111
3.42871
5.22734
5.3479
5.33056
5.2938
5.23603
5.14113
4.99713
4.83791
4.65643
1.40001
1.40001
1.40001
1.40001
1.40001
1.40001
1.40001
1.40001
1.40001
1.40001
1.40001
1.40001
1.40001
1.4
2.45575
4.99933
5.31104
5.2768
5.23834
5.1807
5.0981
4.98177
4.84859
4.70871
1.40001
1.40001
1.40001
1.40001
1.40001
1.40001
1.40001
1.40001
1.40001
1.40001
1.40001
1.40001
1.40001
1.4
1.61008
4.49174
5.28318
5.221
5.17765
5.122
5.05509
4.96817
4.86111
4.74788
1.40001
1.40001
1.40001
1.40001
1.40001
1.40001
1.40001
1.40001
1.40001
1.40001
1.40001
1.40001
1.40001
1.40001
1.40631
3.48204
5.12169
5.16408
5.14362
5.10406
5.042
4.96716
4.87885
4.77989
1.40001
1.40001
1.40001
1.40001
1.40001
1.40001
1.40001
1.40001
1.40001
1.40001
1.40001
1.40001
1.40001
1.40001
1.39999
2.26796
4.90585
5.16874
5.11453
5.07127
5.01625
4.95136
4.87893
4.79577
1.40001
1.40001
1.40001
1.40001
1.40001
1.40001
1.40001
1.40001
1.40001
1.40001
1.40001
1.40001
1.40001
1.40001
1.4
1.51693
4.14168
5.12025
5.09007
5.05414
5.00252
4.94237
4.87688
4.80289
1.40001
1.40001
1.40001
1.40001
1.40001
1.40001
1.40001
1.40001
1.40001
1.40001
1.40001
1.40001
1.40001
1.40001
1.4
1.40152
2.8106
4.93518
5.11423
5.06643
5.00889
4.94628
4.87819
4.80495
1.40001
1.40001
1.40001
1.40001
1.40001
1.40001
1.40001
1.40001
1.40001
1.40001
1.40001
1.40001
1.40001
1.40001
1.40001
1.4
1.67966
4.42849
5.10193
5.05486
5.0105
4.95078
4.87968
4.80843
1.40001
1.40001
1.40001
1.40001
1.40001
1.40001
1.40001
1.40001
1.40001
1.40001
1.40001
1.40001
1.40001
1.40001
1.40001
1.40001
1.40948
3.09575
4.92445
5.04597
5.01835
4.95979
4.88907
4.82059
1.40001
1.40001
1.40001
1.40001
1.40001
1.40001
1.40001
1.40001
1.40001
1.40001
1.40001
1.40001
1.40001
1.40001
1.40001
1.40001
1.40002
1.77674
4.47727
5.07144
5.01968
4.9687
4.89945
4.83008
1.40001
1.40001
1.40001
1.40001
1.40001
1.40001
1.40001
1.40001
1.40001
1.40001
1.40001
1.40001
1.40001
1.40001
1.40001
1.40001
1.40001
1.41685
3.11946
4.92125
4.98385
4.95333
4.90423
4.84399
1.40001
1.40001
1.40001
1.40001
1.40001
1.40001
1.40001
1.40001
1.40001
1.40001
1.40001
1.40001
1.40001
1.40001
1.40001
1.40001
1.40001
1.40006
1.77432
4.40611
5.0193
4.96978
4.91952
4.85568
1.40001
1.40001
1.40001
1.40001
1.40001
1.40001
1.40001
1.40001
1.40001
1.40001
1.40001
1.40001
1.40001
1.40001
1.40001
1.40001
1.40001
1.40001
1.41607
2.942
4.87986
4.9625
4.91922
4.8665
1.40001
1.40001
1.40001
1.40001
1.40001
1.40001
1.40001
1.40001
1.40001
1.40001
1.40001
1.40001
1.40001
1.40001
1.40001
1.40001
1.40001
1.40001
1.40007
1.69259
4.18235
4.98496
4.94926
4.88152
1.40001
1.40001
1.40001
1.40001
1.40001
1.40001
1.40001
1.40001
1.40001
1.40001
1.40001
1.40001
1.40001
1.40001
1.40001
1.40001
1.40001
1.40001
1.40001
1.40919
2.57385
4.81655
4.96913
4.89824
1.40001
1.40001
1.40001
1.40001
1.40001
1.40001
1.40001
1.40001
1.40001
1.40001
1.40001
1.40001
1.40001
1.40001
1.40001
1.40001
1.40001
1.40001
1.40001
1.40004
1.56577
3.84521
4.89045
4.88696
1.40001
1.40001
1.40001
1.40001
1.40001
1.40001
1.40001
1.40001
1.40001
1.40001
1.40001
1.40001
1.40001
1.40001
1.40001
1.40001
1.40001
1.40001
1.40001
1.40001
1.40292
2.21031
4.57471
4.93932
1.40001
1.40001
1.40001
1.40001
1.40001
1.40001
1.40001
1.40001
1.40001
1.40001
1.40001
1.40001
1.40001
1.40001
1.40001
1.40001
1.40001
1.40001
1.40001
1.40001
1.40001
1.4776
3.24412
4.83545
1.40001
1.40001
1.40001
1.40001
1.40001
1.40001
1.40001
1.40001
1.40001
1.40001
1.40001
1.40001
1.40001
1.40001
1.40001
1.40001
1.40001
1.40001
1.40001
1.40001
1.40001
1.40089
1.82323
4.17232
1.40001
1.40001
1.40001
1.40001
1.40001
1.40001
1.40001
1.40001
1.40001
1.40001
1.40001
1.40001
1.40001
1.40001
1.40001
1.40001
1.40001
1.40001
1.40001
1.40001
1.40001
1.40001
1.41923
2.55856
1.40001
1.40001
1.40001
1.40001
1.40001
1.40001
1.40001
1.40001
1.40001
1.40001
1.40001
1.40001
1.40001
1.40001
1.40001
1.40001
1.40001
1.40001
1.40001
1.40001
1.40001
1.40001
1.40012
1.55861
1.40001
1.40001
1.40001
1.40001
1.40001
1.40001
1.40001
1.40001
1.40001
1.40001
1.40001
1.40001
1.40001
1.40001
1.40001
1.40001
1.40001
1.40001
1.40001
1.40001
1.40001
1.40001
1.40001
1.4031
1.40001
1.40001
1.40001
1.40001
1.40001
1.40001
1.40001
1.40001
1.40001
1.40001
1.40001
1.40001
1.40001
1.40001
1.40001
1.40001
1.40001
1.40001
1.40001
1.40001
1.40001
1.40001
1.40001
1.40002
1.40001
1.40001
1.40001
1.40001
1.40001
1.40001
1.40001
1.40001
1.40001
1.40001
1.40001
1.40001
1.40001
1.40001
1.40001
1.40001
1.40001
1.40001
1.40001
1.40001
1.40001
1.40001
1.40001
1.40001
1.40001
1.40001
1.40001
1.40001
1.40001
1.40001
1.40001
1.40001
1.40001
1.40001
1.40001
1.40001
1.40001
1.40001
1.40001
1.40001
1.40001
1.40001
1.40001
1.40001
1.40001
1.40001
1.40001
1.40001
1.40001
1.40001
1.40001
1.40001
1.40001
1.40001
1.40001
1.40001
1.40001
1.40001
1.40001
1.40001
1.40001
1.40001
1.40001
1.40001
1.40001
1.40001
1.40001
1.40001
1.40001
1.40001
1.40001
1.40001
1.40001
1.40001
1.40001
1.40001
1.40001
1.40001
1.40001
1.40001
1.40001
1.40001
1.40001
1.40001
1.40001
1.40001
1.40001
1.40001
1.40001
1.40001
1.40001
1.40001
1.40001
1.40001
1.40001
1.40001
1.40001
1.40001
1.40001
1.40001
1.40001
1.40001
1.40001
1.40001
1.40001
1.40001
1.40001
1.40001
1.40001
1.40001
1.40001
1.40001
1.40001
1.40001
1.40001
1.40001
1.40001
1.40001
1.40001
1.40001
3.24989
3.54947
3.63703
3.6361
3.62565
3.62184
3.62815
3.6213
4.02981
3.99107
3.7835
3.67737
3.62634
3.61284
3.61912
3.61446
4.21753
4.0223
3.78797
3.68105
3.61489
3.61075
3.60978
3.60446
4.38284
4.18672
3.95205
3.80494
3.67248
3.63059
3.6027
3.61216
4.51137
4.35083
4.12717
3.93109
3.73469
3.64482
3.58846
3.62875
4.58458
4.453
4.28233
4.10259
3.89236
3.74162
3.64442
3.68115
4.63972
4.53199
4.40642
4.26334
4.06087
3.85511
3.70345
3.69302
4.67951
4.58216
4.47935
4.36399
4.19784
3.99555
3.81589
3.72983
4.70598
4.61768
4.52914
4.4342
4.29515
4.07919
3.74834
3.03689
4.72362
4.64108
4.55119
4.45408
4.31428
4.09037
3.72056
3.07522
4.72935
4.64834
4.55483
4.45011
4.3037
4.08646
3.74606
3.18495
4.736
4.65646
4.55911
4.44348
4.28885
4.07197
3.75281
3.27152
4.75016
4.66814
4.56373
4.43471
4.27158
4.05587
3.7613
3.35371
4.75961
4.67874
4.57087
4.43695
4.27127
4.05441
3.77652
3.42183
4.77421
4.69488
4.58786
4.45187
4.28065
4.06176
3.80007
3.48016
4.78227
4.69776
4.59525
4.46595
4.29844
4.08354
3.83498
3.54401
4.7968
4.71176
4.60976
4.48309
4.32169
4.11549
3.87839
3.60592
4.80388
4.72153
4.62178
4.49366
4.33781
4.14417
3.92187
3.67109
4.82296
4.73595
4.63729
4.51155
4.36267
4.18029
3.96839
3.73452
4.8283
4.73531
4.63049
4.51465
4.38188
4.22014
4.02558
3.80598
4.85251
4.76074
4.64977
4.53175
4.40233
4.25426
4.07808
3.87326
4.86516
4.77892
4.68005
4.56613
4.43936
4.30004
4.13706
3.94764
4.86759
4.80147
4.70848
4.59605
4.46495
4.32258
4.17195
4.00871
4.65214
4.83184
4.73008
4.61466
4.48953
4.35205
4.20279
4.05267
3.48199
4.7298
4.72627
4.6164
4.50892
4.38348
4.23925
4.10055
1.95911
4.14297
4.7357
4.63438
4.52399
4.40036
4.28308
4.24553
1.43333
2.57762
4.4873
4.66248
4.55247
4.47858
4.73779
5.52835
1.40028
1.55893
3.29215
4.42669
4.76331
5.54566
6.54566
7.17726
1.40001
1.40319
1.85545
3.89084
6.44164
7.39664
7.59784
7.52045
1.40001
1.40002
1.43583
4.26934
7.39027
7.62636
7.38667
7.23543
1.40001
1.40001
1.61361
4.4735
6.57415
6.76692
6.72411
6.75045
1.40001
1.40001
1.87103
4.78969
6.0402
6.36146
6.57053
6.717
1.23429
0.69749
0.486183
0.4385
0.45426
0.511731
0.581386
0.646844
0.696601
0.730391
0.752903
0.771315
0.772292
0.762747
0.757631
0.761391
0.766566
0.774508
0.789019
0.796936
0.793501
0.784363
0.772193
0.772275
0.805607
0.98744
1.38477
1.94427
2.49788
3.05761
3.24767
3.23085
3.11076
2.92849
2.7753
2.70181
2.6424
2.58507
2.52163
2.44555
2.3655
2.28577
2.23631
2.20549
2.17704
2.14211
2.10351
2.06146
2.01316
1.95708
1.91081
1.88002
1.85156
1.82189
1.7916
1.76114
1.72942
1.69506
1.65851
1.62077
1.58407
1.55597
1.53703
1.52134
1.50564
1.49045
1.4786
1.46793
1.4557
1.43933
1.4162
1.38594
1.34753
1.31298
1.30001
1.29301
1.28962
1.29323
1.29147
1.28049
1.27029
1.25696
1.22875
1.20267
1.19705
1.19459
1.19286
1.19829
1.77176
1.20319
0.972793
0.821133
0.726359
0.694191
0.668273
0.666973
0.677755
0.698006
0.72235
0.751025
0.766808
0.76618
0.767374
0.771968
0.777141
0.78211
0.794753
0.801128
0.798124
0.790694
0.802415
0.881
1.09543
1.40372
1.61199
1.74909
2.02114
2.31851
2.61872
2.83916
2.92539
2.88911
2.8336
2.77659
2.72765
2.67684
2.61361
2.54129
2.46427
2.37784
2.3021
2.26188
2.22533
2.18573
2.14336
2.09681
2.04401
1.98646
1.92752
1.88992
1.86262
1.83491
1.80735
1.77943
1.74985
1.71917
1.68737
1.65267
1.6168
1.58892
1.56985
1.55282
1.53364
1.516
1.50572
1.49627
1.48344
1.4662
1.44267
1.41195
1.37416
1.33337
1.31218
1.304
1.2991
1.30017
1.2996
1.28974
1.27966
1.26866
1.24895
1.22057
1.20907
1.20557
1.20283
1.20525
2.25705
1.65412
1.29751
1.09495
0.951461
0.833253
0.76886
0.725311
0.70959
0.717443
0.742481
0.781913
0.812577
0.812995
0.81149
0.8168
0.831836
0.844657
0.85356
0.851339
0.848461
0.872158
1.01665
1.31628
1.607
1.77126
1.82876
1.82223
1.82068
1.89101
2.11069
2.446
2.75165
2.92984
2.96425
2.93444
2.89789
2.86574
2.81177
2.73882
2.64996
2.55001
2.45012
2.37598
2.32533
2.277
2.22881
2.18078
2.13191
2.08216
2.02766
1.98758
1.96323
1.9388
1.91299
1.88592
1.85633
1.82582
1.79495
1.75954
1.71699
1.6771
1.64941
1.62711
1.60308
1.57784
1.56039
1.54672
1.53115
1.51153
1.48577
1.45474
1.42048
1.38115
1.3437
1.32681
1.31948
1.31487
1.31125
1.30415
1.29616
1.28773
1.27563
1.25453
1.23379
1.22778
1.22543
1.22443
2.5707
2.0577
1.66229
1.37974
1.2215
1.07564
0.955731
0.904059
0.867926
0.814829
0.79443
0.80436
0.810241
0.811591
0.816926
0.829791
0.853203
0.87542
0.885472
0.893797
0.932156
1.12284
1.52548
1.75842
1.8882
1.92541
1.91794
1.90024
1.86786
1.86335
1.87886
1.96529
2.17591
2.47167
2.70457
2.83605
2.88122
2.88569
2.87162
2.82856
2.78827
2.74476
2.67852
2.59336
2.52468
2.46974
2.41181
2.35356
2.29492
2.23343
2.17067
2.11814
2.07988
2.04734
2.01536
1.98409
1.9535
1.92162
1.88875
1.85548
1.81928
1.7807
1.74582
1.71841
1.69415
1.66786
1.64259
1.62474
1.6086
1.58902
1.56234
1.53221
1.50192
1.46806
1.42711
1.39134
1.37828
1.37197
1.37065
1.36601
1.35739
1.34802
1.33719
1.32353
1.30468
1.28836
1.28366
1.27355
2.81444
2.36139
1.97522
1.66847
1.47748
1.33412
1.17286
1.04344
0.997841
0.944834
0.876188
0.859846
0.849505
0.830948
0.830943
0.837494
0.855827
0.879279
0.904578
0.975387
1.19922
1.61939
1.85682
1.91543
1.94752
1.9574
1.94085
1.92388
1.89893
1.88401
1.89226
1.90348
1.92084
1.98132
2.09926
2.2678
2.44273
2.59415
2.71349
2.76243
2.78392
2.77325
2.73676
2.67189
2.62412
2.60436
2.57451
2.53336
2.48066
2.42097
2.34984
2.2791
2.21509
2.16088
2.1161
2.07714
2.04027
2.00375
1.96788
1.93631
1.91217
1.88509
1.8452
1.82234
1.80701
1.78545
1.75723
1.73527
1.71703
1.69327
1.66329
1.63591
1.60875
1.57774
1.54034
1.4971
1.45999
1.4466
1.44139
1.43576
1.42715
1.41644
1.40532
1.39492
1.38313
1.36654
1.35009
1.32478
2.97684
2.58758
2.25226
1.95114
1.70828
1.54627
1.40529
1.26698
1.16631
1.09737
1.01296
0.966408
0.955071
0.922978
0.888421
0.871166
0.873763
0.892998
0.993125
1.29008
1.66231
1.89359
1.89624
1.90977
1.92897
1.92147
1.89098
1.88084
1.87698
1.8692
1.87011
1.87801
1.87127
1.87933
1.89691
1.90922
1.94179
2.0157
2.13461
2.27723
2.41817
2.53811
2.60734
2.62842
2.62068
2.61579
2.59468
2.56202
2.52936
2.49006
2.4464
2.40498
2.35576
2.29829
2.2442
2.19755
2.15323
2.10742
2.06375
2.02574
1.99574
1.96538
1.92599
1.89292
1.87158
1.84807
1.81937
1.79678
1.78077
1.75398
1.73141
1.7126
1.68695
1.65715
1.62693
1.59152
1.54757
1.51593
1.50117
1.49068
1.48289
1.47351
1.46396
1.45713
1.44956
1.43577
1.41115
1.36826
3.11029
2.77564
2.44743
2.16376
1.95448
1.76918
1.58629
1.44754
1.33642
1.24615
1.16635
1.08974
1.0561
1.0124
0.9575
0.922386
0.932615
1.05454
1.44282
1.77732
1.94635
1.93691
1.9009
1.86521
1.84737
1.83019
1.81032
1.80205
1.8053
1.80759
1.79671
1.78758
1.78833
1.78697
1.79922
1.82534
1.84461
1.85146
1.84324
1.84706
1.88644
1.96938
2.08368
2.20935
2.31963
2.4094
2.45552
2.47552
2.48659
2.46938
2.43686
2.40591
2.37755
2.34571
2.30014
2.25739
2.22676
2.19289
2.15805
2.12005
2.0834
2.04503
2.00131
1.95462
1.91278
1.87861
1.84658
1.81869
1.79263
1.76863
1.75563
1.73731
1.71225
1.69002
1.67154
1.64926
1.61465
1.57606
1.55431
1.5453
1.54013
1.53021
1.51222
1.49988
1.4886
1.4749
1.45845
1.41751
3.21558
2.91507
2.62898
2.36505
2.13313
1.94156
1.77223
1.62921
1.50953
1.3912
1.29121
1.22118
1.17297
1.1271
1.06138
1.08907
1.27017
1.65057
2.00471
2.07644
2.05
1.98692
1.90756
1.85778
1.82987
1.81394
1.81315
1.80368
1.77681
1.74889
1.72295
1.69189
1.6698
1.66813
1.6766
1.71158
1.75214
1.77051
1.78279
1.78302
1.76413
1.73644
1.72539
1.7345
1.7769
1.85083
1.94509
2.03912
2.13112
2.20027
2.25598
2.29151
2.29447
2.28945
2.26926
2.24258
2.21402
2.17686
2.15024
2.13796
2.12248
2.1011
2.07502
2.02483
1.96201
1.91772
1.88079
1.84307
1.80663
1.78427
1.7729
1.75486
1.73218
1.71226
1.69606
1.6782
1.6474
1.59537
1.5455
1.53259
1.52632
1.52165
1.53006
1.53037
1.52119
1.50874
1.49516
1.44948
3.3112
3.03784
2.76528
2.51839
2.3053
2.10724
1.92997
1.77647
1.65662
1.54388
1.44313
1.34296
1.27452
1.24056
1.31557
1.58877
1.95832
2.23774
2.26075
2.20839
2.13126
2.05153
1.98172
1.92618
1.90056
1.87983
1.85577
1.82716
1.79192
1.75286
1.71045
1.6749
1.65782
1.63541
1.60516
1.59815
1.61007
1.64294
1.68077
1.69866
1.70606
1.71101
1.69166
1.66045
1.63311
1.60647
1.5862
1.58819
1.61265
1.65908
1.73037
1.82153
1.91795
1.97555
2.0117
2.04263
2.07614
2.09604
2.09381
2.07383
2.05785
2.05812
2.05078
2.02507
1.98269
1.94287
1.91804
1.88672
1.83346
1.79881
1.78767
1.77444
1.75511
1.73577
1.71172
1.67643
1.63664
1.58993
1.54314
1.52355
1.51718
1.51426
1.51568
1.51079
1.5
1.48892
1.47752
1.43789
3.40211
3.14361
2.891
2.66102
2.45297
2.24853
2.07879
1.93187
1.796
1.67383
1.5515
1.47901
1.44208
1.57006
1.97655
2.33635
2.5163
2.48234
2.39222
2.31143
2.24961
2.18447
2.11707
2.05852
2.01366
1.96993
1.92321
1.87618
1.82833
1.78404
1.74377
1.70661
1.67051
1.63233
1.59903
1.58159
1.56084
1.54794
1.54856
1.56766
1.60693
1.63711
1.65548
1.64614
1.61505
1.57886
1.55004
1.52262
1.49375
1.4708
1.45283
1.44941
1.45921
1.47981
1.51487
1.56797
1.61846
1.68338
1.75897
1.82209
1.8611
1.90721
1.94272
1.94602
1.92762
1.91307
1.90405
1.89401
1.85535
1.82322
1.79534
1.78118
1.78059
1.75912
1.71502
1.66622
1.62556
1.58833
1.54725
1.5186
1.51205
1.51005
1.51148
1.5034
1.49202
1.48109
1.46883
1.43213
3.48497
3.23711
3.0097
2.78676
2.57893
2.38159
2.21692
2.07188
1.91719
1.79248
1.69724
1.70748
1.92733
2.4199
2.76811
2.77332
2.71913
2.62146
2.52991
2.4557
2.39891
2.33724
2.26403
2.18938
2.12122
2.06118
2.0095
1.9598
1.91332
1.87344
1.83493
1.79522
1.7514
1.69932
1.64505
1.5979
1.56175
1.53633
1.52217
1.50905
1.51162
1.53644
1.58041
1.58779
1.56455
1.55151
1.53982
1.51271
1.47764
1.4468
1.42296
1.40059
1.37496
1.34526
1.30916
1.27085
1.24871
1.25565
1.27689
1.33128
1.40559
1.48765
1.57798
1.64933
1.6935
1.73695
1.75914
1.77755
1.80757
1.81221
1.80017
1.78454
1.77329
1.75783
1.72973
1.68425
1.63188
1.59263
1.56112
1.53031
1.51618
1.51326
1.50952
1.4994
1.49012
1.48033
1.46708
1.43006
3.576
3.33283
3.11623
2.90539
2.6992
2.52261
2.33862
2.17954
2.05876
1.94654
2.09116
2.4859
2.93191
3.17649
3.12451
3.0193
2.88242
2.77507
2.70308
2.63344
2.55745
2.47459
2.39162
2.31568
2.24723
2.18207
2.11836
2.05841
2.00535
1.95759
1.91121
1.86405
1.80967
1.74868
1.69305
1.64196
1.59739
1.55926
1.52278
1.49774
1.48901
1.48731
1.49263
1.49515
1.49306
1.49477
1.49965
1.49702
1.47265
1.43456
1.4013
1.37205
1.34465
1.32022
1.29116
1.25338
1.21815
1.17976
1.14901
1.13934
1.13732
1.14427
1.16433
1.19677
1.23882
1.29383
1.3722
1.44597
1.52781
1.61526
1.68157
1.7071
1.72636
1.72736
1.72069
1.69783
1.65739
1.62939
1.60509
1.58035
1.55778
1.5376
1.52161
1.51013
1.49912
1.48714
1.47325
1.43803
3.6606
3.42763
3.21404
3.01658
2.79981
2.63008
2.46954
2.32102
2.32275
2.61567
3.16483
3.48332
3.55374
3.45161
3.29289
3.15948
3.01951
2.92822
2.85896
2.7793
2.69863
2.62097
2.54192
2.45745
2.3701
2.28713
2.21278
2.14772
2.09186
2.04154
1.99333
1.94394
1.88798
1.82542
1.76578
1.71222
1.66393
1.61845
1.57035
1.52705
1.49566
1.47899
1.46655
1.44847
1.43997
1.43787
1.44501
1.45473
1.44357
1.41069
1.37423
1.34501
1.32221
1.3045
1.2854
1.26017
1.22466
1.18081
1.14417
1.12707
1.1134
1.09449
1.07664
1.06339
1.05047
1.04582
1.05041
1.07024
1.11803
1.18706
1.28977
1.39084
1.47839
1.54133
1.60124
1.64001
1.62345
1.60332
1.60079
1.60305
1.59845
1.58505
1.57274
1.55654
1.54102
1.52396
1.50477
1.46752
3.74343
3.52248
3.31073
3.12288
2.90758
2.74364
2.65473
2.89249
3.3535
3.86512
4.03089
3.92449
3.80642
3.63413
3.47711
3.34009
3.20097
3.09357
3.00493
2.92013
2.83765
2.75906
2.67967
2.59436
2.49956
2.39879
2.30687
2.23304
2.17349
2.12122
2.07178
2.02162
1.96725
1.90733
1.84469
1.78429
1.72865
1.67558
1.6226
1.57231
1.5245
1.48888
1.45882
1.42849
1.41512
1.40999
1.40891
1.41111
1.40298
1.37655
1.3385
1.31572
1.3021
1.28756
1.26983
1.25236
1.23303
1.19731
1.1554
1.1275
1.10801
1.08642
1.06464
1.05102
1.03735
1.02643
1.01725
1.00565
0.984981
0.957028
0.961051
0.981175
1.0333
1.11898
1.21927
1.33564
1.45969
1.50793
1.52874
1.56492
1.57655
1.56375
1.55903
1.56154
1.56504
1.5574
1.54304
1.51504
3.81795
3.61307
3.40609
3.22658
3.06551
3.15149
3.58939
4.27212
4.47485
4.4992
4.33148
4.1147
3.95587
3.81997
3.70178
3.57494
3.43095
3.27889
3.15527
3.05822
2.96887
2.88349
2.79946
2.71196
2.61613
2.51322
2.41496
2.33089
2.25901
2.19382
2.13203
2.07266
2.01562
1.96096
1.90867
1.85665
1.79998
1.73537
1.66907
1.61351
1.56723
1.52255
1.47568
1.42852
1.40692
1.39719
1.393
1.38868
1.37612
1.35127
1.31187
1.2895
1.28201
1.27433
1.26204
1.24335
1.22238
1.19829
1.15728
1.12171
1.10332
1.08614
1.06457
1.04887
1.04144
1.03257
1.01977
1.00212
0.976308
0.94644
0.915419
0.893153
0.886283
0.889678
0.906228
0.950637
1.03456
1.14156
1.23206
1.31004
1.39182
1.45758
1.47463
1.50229
1.52885
1.52498
1.52663
1.51334
3.8734
3.68653
3.54321
3.53807
3.94765
4.56376
4.97365
5.13274
5.01369
4.78252
4.52637
4.31164
4.13089
4.00896
3.89736
3.76313
3.61428
3.46147
3.31987
3.19852
3.09304
2.99728
2.9069
2.81784
2.72556
2.62728
2.52682
2.43184
2.34625
2.26813
2.19385
2.12271
2.05837
2.0036
1.95634
1.91144
1.86285
1.80573
1.7397
1.67236
1.6135
1.55906
1.50935
1.46716
1.43263
1.40959
1.3966
1.3837
1.36577
1.33682
1.29868
1.27382
1.26045
1.25348
1.24726
1.23291
1.21209
1.18875
1.15289
1.12008
1.10313
1.09014
1.0739
1.05626
1.03763
1.02221
1.00879
0.99351
0.974265
0.947907
0.914944
0.891725
0.880471
0.871054
0.859129
0.849417
0.849552
0.859409
0.882438
0.924174
0.981082
1.05913
1.14021
1.20861
1.28409
1.33918
1.37883
1.41089
3.97383
3.91451
4.27544
4.96548
5.61499
5.70009
5.54772
5.39891
5.18938
4.96396
4.74192
4.54245
4.36232
4.21619
4.07193
3.92217
3.7704
3.6129
3.45778
3.32306
3.20894
3.10734
3.01162
2.91805
2.82417
2.72673
2.62429
2.51985
2.42069
2.33151
2.25179
2.1805
2.11598
2.05568
1.9981
1.94264
1.89021
1.84241
1.79154
1.7305
1.66051
1.58635
1.52471
1.48796
1.46404
1.43957
1.4151
1.39551
1.37212
1.33389
1.29063
1.26391
1.24639
1.23444
1.23091
1.22334
1.20441
1.17815
1.15062
1.12897
1.10462
1.07908
1.05852
1.03914
1.0258
1.01634
1.00706
0.993575
0.971243
0.940663
0.909785
0.889014
0.878717
0.869097
0.856388
0.843952
0.831519
0.820246
0.816302
0.816017
0.820577
0.829901
0.852478
0.886108
0.930804
0.983394
1.03168
1.10225
4.57691
5.34058
6.0468
6.35534
6.38069
6.15764
5.8509
5.56488
5.32798
5.13608
4.94843
4.76284
4.58168
4.40526
4.23503
4.07154
3.91291
3.75283
3.59116
3.43973
3.30849
3.19586
3.09552
3.00138
2.90878
2.81379
2.71197
2.60049
2.48433
2.3793
2.29712
2.23302
2.17572
2.11874
2.06057
1.99905
1.93083
1.86085
1.80138
1.75322
1.70179
1.64121
1.58014
1.52208
1.47647
1.45012
1.43261
1.41393
1.38253
1.33262
1.28338
1.25742
1.24036
1.22429
1.21646
1.21337
1.20557
1.18728
1.16205
1.13244
1.10312
1.07669
1.05419
1.03251
1.01969
1.01229
1.00347
0.989823
0.96837
0.938795
0.911683
0.897336
0.889453
0.880241
0.86551
0.845917
0.826833
0.813871
0.808835
0.8063
0.806806
0.805608
0.797064
0.796258
0.801312
0.81197
0.827049
0.866816
6.3935
6.92876
6.86348
6.74069
6.57206
6.31638
6.03224
5.7654
5.53149
5.32241
5.11304
4.91386
4.72853
4.54788
4.37251
4.20183
4.03531
3.86985
3.70542
3.54616
3.40111
3.27473
3.16281
3.05965
2.96226
2.86739
2.76892
2.66133
2.54579
2.43415
2.33991
2.2658
2.20809
2.1592
2.11102
2.05447
1.98521
1.91082
1.83812
1.7648
1.69708
1.65063
1.61032
1.5618
1.51552
1.477
1.44794
1.42081
1.38795
1.3488
1.30416
1.26604
1.23678
1.22056
1.21274
1.20501
1.18962
1.16777
1.14516
1.12206
1.09722
1.07254
1.05005
1.03157
1.01847
1.00919
0.99893
0.983753
0.962439
0.936036
0.910246
0.889221
0.873515
0.863994
0.854463
0.841304
0.826752
0.818591
0.813807
0.809419
0.805402
0.799997
0.780055
0.766646
0.766284
0.769217
0.7737
0.794484
7.35024
7.32086
7.09596
6.8579
6.63226
6.39969
6.16309
5.9537
5.73183
5.49954
5.2539
5.01051
4.80265
4.62285
4.45394
4.28946
4.12856
3.96829
3.80736
3.64652
3.48994
3.34824
3.22279
3.10884
3.00234
2.90051
2.80041
2.6987
2.59429
2.49239
2.40125
2.32308
2.25487
2.19385
2.13078
2.066
2.00343
1.9417
1.87523
1.80661
1.73909
1.6743
1.62925
1.59592
1.55806
1.51457
1.47028
1.43083
1.38927
1.35044
1.32163
1.29084
1.25864
1.2369
1.22307
1.20579
1.18408
1.15917
1.13845
1.12464
1.10672
1.08374
1.061
1.04154
1.02595
1.01061
0.994565
0.976536
0.955233
0.936322
0.918605
0.897159
0.869257
0.854689
0.850428
0.845435
0.840316
0.836183
0.830939
0.823821
0.813238
0.797861
0.773559
0.752684
0.750442
0.75184
0.757353
0.777398
7.47744
7.30071
7.06966
6.84228
6.6111
6.39174
6.18858
5.99255
5.81239
5.60007
5.35385
5.09281
4.86299
4.67656
4.52005
4.37754
4.22923
4.07322
3.90829
3.73456
3.56434
3.41023
3.27575
3.1559
3.0451
2.94037
2.83914
2.73695
2.63114
2.52898
2.44566
2.38321
2.32264
2.25228
2.17838
2.10283
2.02372
1.94406
1.87914
1.82882
1.78042
1.72065
1.6469
1.57892
1.5366
1.51453
1.49186
1.45697
1.41834
1.37862
1.33459
1.29153
1.25267
1.22147
1.20164
1.18893
1.17437
1.1553
1.13858
1.1179
1.0907
1.06232
1.03862
1.02127
1.00876
0.997435
0.98375
0.968618
0.953019
0.933159
0.909663
0.886529
0.861793
0.845924
0.839931
0.835045
0.831002
0.827007
0.821817
0.814571
0.801895
0.782626
0.763505
0.744386
0.738487
0.738418
0.743057
0.76167
7.19272
7.06432
6.91456
6.7502
6.54469
6.32966
6.12852
5.9387
5.77
5.56398
5.32827
5.0915
4.87244
4.67822
4.50418
4.34179
4.1873
4.03403
3.87725
3.71962
3.56767
3.4272
3.29995
3.18307
3.07236
2.96439
2.85898
2.7589
2.66458
2.57401
2.48496
2.39363
2.30384
2.22374
2.1535
2.09081
2.03114
1.97148
1.91955
1.86657
1.80483
1.73054
1.64981
1.58863
1.55178
1.51757
1.47698
1.43925
1.411
1.38353
1.34867
1.30623
1.26269
1.2276
1.20308
1.18235
1.17158
1.16414
1.14894
1.12199
1.09035
1.06003
1.03565
1.01864
1.00674
0.996159
0.984386
0.97056
0.953871
0.933094
0.909586
0.883591
0.85606
0.84229
0.838402
0.835288
0.832618
0.829209
0.824283
0.817053
0.804036
0.782097
0.759994
0.743577
0.734896
0.733351
0.734298
0.742665
6.79578
6.78024
6.72286
6.60181
6.41542
6.20172
5.9924
5.80893
5.6582
5.49795
5.29702
5.08675
4.87794
4.68462
4.50675
4.33924
4.18027
4.02557
3.87219
3.72065
3.57573
3.44255
3.32147
3.20832
3.09893
2.99085
2.88394
2.78121
2.68698
2.59914
2.50831
2.40896
2.30974
2.22088
2.14959
2.09301
2.04759
2.01786
1.97925
1.92701
1.86118
1.78207
1.70087
1.63591
1.58638
1.53942
1.4941
1.46726
1.44301
1.41545
1.38291
1.345
1.30344
1.26686
1.23879
1.21183
1.17708
1.14303
1.12505
1.11541
1.09914
1.07476
1.05136
1.03496
1.02383
1.01362
1.00121
0.984737
0.964897
0.943245
0.919379
0.888483
0.858849
0.851042
0.848077
0.846094
0.844297
0.840655
0.835219
0.826834
0.812136
0.788947
0.76662
0.750193
0.740186
0.735814
0.73271
0.733704
6.78988
6.81177
6.76321
6.63286
6.43959
6.22162
6.01018
5.81821
5.65074
5.48035
5.28512
5.08757
4.88764
4.69551
4.51589
4.34668
4.18488
4.02721
3.87094
3.71798
3.5752
3.44732
3.3318
3.22301
3.11558
3.00667
2.89779
2.79358
2.69671
2.60568
2.51692
2.42581
2.33029
2.23647
2.1541
2.08879
2.03739
1.98866
1.9424
1.89248
1.82963
1.74826
1.66277
1.59606
1.54876
1.51302
1.48252
1.44922
1.4164
1.3835
1.34718
1.30678
1.26806
1.23981
1.21889
1.19542
1.1634
1.12967
1.10574
1.08795
1.06894
1.04659
1.02561
1.01141
1.0022
0.993166
0.981183
0.964791
0.944736
0.923248
0.897508
0.860786
0.837539
0.832801
0.83028
0.829319
0.828711
0.82549
0.820768
0.812573
0.79571
0.770518
0.748814
0.732869
0.726418
0.722231
0.719065
0.720175
)
;

boundaryField
{
    inlet
    {
        type            calculated;
        value           uniform 1.40001;
    }
    outlet
    {
        type            calculated;
        value           nonuniform List<scalar> 
24
(
1.19819
1.20539
1.22493
1.27452
1.32571
1.36913
1.41772
1.45099
1.43889
1.43272
1.4308
1.43869
1.46766
1.51611
1.5153
1.41606
1.11026
0.868704
0.793893
0.776939
0.761319
0.742426
0.733594
0.720126
)
;
    }
    bottom
    {
        type            calculated;
        value           nonuniform List<scalar> 
24
(
1.40001
1.40001
1.40001
1.40001
1.40001
1.40001
1.40001
1.40001
1.40001
1.40001
1.40001
1.40001
2.64649
5.20716
5.56888
5.64284
5.74892
5.83937
5.89369
5.89671
5.84521
5.75065
5.65652
5.61976
)
;
    }
    top
    {
        type            calculated;
        value           nonuniform List<scalar> 
120
(
1.40001
1.40001
1.40001
1.40001
1.40001
1.40001
1.40001
1.40001
1.40001
1.40001
1.40001
1.40001
1.40001
1.40001
1.40001
1.40001
1.40001
1.40001
1.40001
1.40001
1.40001
1.40001
1.40001
1.40001
1.40001
1.40001
1.87103
4.78969
6.0402
6.36146
6.57053
6.717
6.78988
6.81177
6.76321
6.63286
6.43959
6.22162
6.01018
5.81821
5.65074
5.48035
5.28512
5.08757
4.88764
4.69551
4.51589
4.34668
4.18488
4.02721
3.87094
3.71798
3.5752
3.44732
3.3318
3.22301
3.11558
3.00667
2.89779
2.79358
2.69671
2.60568
2.51692
2.42581
2.33029
2.23647
2.1541
2.08879
2.03739
1.98866
1.9424
1.89248
1.82963
1.74826
1.66277
1.59606
1.54876
1.51302
1.48252
1.44922
1.4164
1.3835
1.34718
1.30678
1.26806
1.23981
1.21889
1.19542
1.1634
1.12967
1.10574
1.08795
1.06894
1.04659
1.02561
1.01141
1.0022
0.993166
0.981183
0.964791
0.944736
0.923248
0.897508
0.860786
0.837539
0.832801
0.83028
0.829319
0.828711
0.82549
0.820768
0.812573
0.79571
0.770518
0.748814
0.732869
0.726418
0.722231
0.719065
0.720175
)
;
    }
    obstacle
    {
        type            calculated;
        value           nonuniform List<scalar> 
112
(
5.61976
5.60185
5.57803
5.54027
5.49698
5.41218
5.28352
5.13657
3.24989
3.54947
3.63703
3.6361
3.62565
3.62184
3.62815
3.6213
3.6213
3.61446
3.60446
3.61216
3.62875
3.68115
3.69302
3.72983
1.23429
0.69749
0.486183
0.4385
0.45426
0.511731
0.581386
0.646844
0.696601
0.730391
0.752903
0.771315
0.772292
0.762747
0.757631
0.761391
0.766566
0.774508
0.789019
0.796936
0.793501
0.784363
0.772193
0.772275
0.805607
0.98744
1.38477
1.94427
2.49788
3.05761
3.24767
3.23085
3.11076
2.92849
2.7753
2.70181
2.6424
2.58507
2.52163
2.44555
2.3655
2.28577
2.23631
2.20549
2.17704
2.14211
2.10351
2.06146
2.01316
1.95708
1.91081
1.88002
1.85156
1.82189
1.7916
1.76114
1.72942
1.69506
1.65851
1.62077
1.58407
1.55597
1.53703
1.52134
1.50564
1.49045
1.4786
1.46793
1.4557
1.43933