/*--------------------------------*- C++ -*----------------------------------*\
  =========                 |
  \\      /  F ield         | OpenFOAM: The Open Source CFD Toolbox
   \\    /   O peration     | Website:  https://openfoam.org
    \\  /    A nd           | Version:  7
     \\/     M anipulation  |
\*---------------------------------------------------------------------------*/
FoamFile
{
    version     2.0;
    format      ascii;
    class       volScalarField;
    location    "2.9";
    object      T;
}
// * * * * * * * * * * * * * * * * * * * * * * * * * * * * * * * * * * * * * //

dimensions      [0 0 0 1 0 0 0];

internalField   nonuniform List<scalar> 
16192
(
1.55925
1.56028
1.55938
1.55771
1.55575
1.55287
1.54809
1.54144
1.53677
1.53448
1.53328
1.53253
1.53211
1.53286
1.53631
1.53988
1.53966
1.53832
1.53662
1.53377
1.52806
1.51982
1.51443
1.51188
1.51043
1.50938
1.50885
1.50975
1.51484
1.52177
1.52293
1.52236
1.52117
1.51835
1.51134
1.50105
1.49584
1.49416
1.49331
1.49261
1.49225
1.4935
1.49966
1.50674
1.50785
1.50771
1.50691
1.50435
1.49703
1.48809
1.48494
1.48403
1.48314
1.48204
1.48145
1.4823
1.48732
1.49268
1.49282
1.49169
1.49003
1.48653
1.47846
1.47016
1.46735
1.46643
1.46583
1.46513
1.46457
1.46468
1.46753
1.47354
1.47632
1.4754
1.47321
1.46939
1.46124
1.45128
1.44688
1.44525
1.44446
1.44386
1.44353
1.44458
1.4495
1.45654
1.45865
1.45767
1.45523
1.44939
1.43884
1.43227
1.4305
1.42965
1.42885
1.42799
1.42754
1.42856
1.43399
1.44246
1.44514
1.44426
1.44255
1.43881
1.42944
1.41876
1.41549
1.41493
1.41493
1.41482
1.41472
1.41523
1.41793
1.4247
1.43119
1.43231
1.43165
1.42968
1.42536
1.41644
1.40994
1.40922
1.40974
1.41102
1.41299
1.41766
1.4266
1.43117
1.43054
1.42929
1.42706
1.42324
1.41388
1.40968
1.41586
1.44378
1.49797
1.57243
1.63347
1.68694
1.70844
1.71861
1.72515
1.72949
1.72957
1.7279
1.72252
1.71457
1.70929
1.70716
1.70673
1.707
1.70876
1.71193
1.71277
1.71245
1.71232
1.71157
1.71125
1.71175
1.71219
1.71253
1.71274
1.712
1.71003
1.70668
1.70148
1.69719
1.69626
1.69638
1.69699
1.69871
1.70289
1.70713
1.70712
1.70516
1.70231
1.69757
1.68999
1.68392
1.6822
1.6822
1.68263
1.68544
1.68983
1.69125
1.69166
1.69175
1.69102
1.68823
1.68445
1.68153
1.6799
1.67897
1.67859
1.67901
1.67964
1.67931
1.67859
1.67715
1.67396
1.6702
1.66911
1.66906
1.66905
1.66891
1.66907
1.67101
1.67267
1.6726
1.67259
1.67242
1.67082
1.66659
1.66309
1.66198
1.66102
1.66009
1.66009
1.66117
1.6617
1.66128
1.66045
1.65884
1.65624
1.65539
1.65579
1.65779
1.66166
1.66372
1.66393
1.664
1.6634
1.66049
1.65412
1.648
1.64554
1.64465
1.64407
1.64381
1.64382
1.64426
1.6457
1.64815
1.65121
1.65306
1.65331
1.65316
1.65263
1.65127
1.64836
1.64258
1.63487
1.55109
1.5528
1.55526
1.55538
1.55417
1.55289
1.55098
1.54721
1.54009
1.53324
1.53007
1.52844
1.52751
1.52686
1.52719
1.53079
1.53631
1.53724
1.53636
1.53491
1.53267
1.52746
1.5178
1.51039
1.50733
1.50581
1.50501
1.50457
1.50554
1.5111
1.51896
1.52079
1.51987
1.5181
1.51478
1.50709
1.49621
1.49122
1.48983
1.48936
1.48897
1.48894
1.49115
1.49857
1.50576
1.50658
1.50585
1.50455
1.50123
1.4929
1.48361
1.4805
1.47955
1.47873
1.47779
1.4774
1.47854
1.48397
1.4901
1.49073
1.48949
1.48771
1.48401
1.47564
1.46692
1.46401
1.4631
1.46255
1.46194
1.46149
1.4616
1.46389
1.46911
1.47257
1.47218
1.47016
1.46665
1.45957
1.44948
1.44404
1.44228
1.44146
1.44094
1.44065
1.44147
1.44535
1.45177
1.45472
1.4541
1.45172
1.44646
1.43662
1.42934
1.42723
1.42627
1.4255
1.42471
1.42435
1.42535
1.43002
1.43801
1.4419
1.44152
1.43976
1.43621
1.42761
1.41665
1.41285
1.41219
1.41219
1.41207
1.41199
1.4126
1.41531
1.42158
1.42735
1.42828
1.42762
1.42574
1.42159
1.4129
1.40666
1.40615
1.40708
1.40883
1.41126
1.41643
1.42518
1.42957
1.42901
1.42691
1.42395
1.41918
1.41025
1.40409
1.40495
1.41257
1.44291
1.49624
1.5712
1.63675
1.68321
1.70842
1.72284
1.72656
1.72641
1.72278
1.71659
1.7107
1.70578
1.70328
1.70225
1.70201
1.70337
1.70713
1.70948
1.70945
1.70911
1.70834
1.70813
1.70857
1.70914
1.70946
1.70944
1.70839
1.7065
1.70368
1.69923
1.69439
1.69281
1.69287
1.6931
1.69459
1.69896
1.70339
1.70351
1.7014
1.69836
1.69296
1.68477
1.67961
1.67843
1.67851
1.67921
1.68234
1.68738
1.6892
1.68935
1.68931
1.68817
1.68466
1.67995
1.677
1.67582
1.67515
1.67498
1.6756
1.67606
1.67595
1.67551
1.67402
1.67093
1.66711
1.66584
1.66579
1.66574
1.66566
1.66613
1.66884
1.67117
1.67121
1.67123
1.6707
1.66781
1.66184
1.65805
1.65653
1.65535
1.65439
1.65436
1.65592
1.65742
1.6574
1.65739
1.65697
1.6558
1.65575
1.6571
1.65834
1.6591
1.65994
1.66019
1.65986
1.65766
1.6527
1.64603
1.64207
1.6407
1.64038
1.64037
1.64091
1.64321
1.64686
1.65001
1.65102
1.6511
1.65081
1.64963
1.6477
1.64464
1.63987
1.63535
1.63192
1.54604
1.54572
1.54713
1.55097
1.55245
1.55152
1.5503
1.54873
1.54539
1.5381
1.52964
1.52557
1.52371
1.52279
1.52224
1.52259
1.52666
1.53357
1.53534
1.53429
1.53281
1.5305
1.52498
1.51436
1.50639
1.50372
1.50242
1.50177
1.50155
1.50271
1.50737
1.51384
1.51648
1.51594
1.51386
1.50979
1.50182
1.49187
1.48789
1.48684
1.4865
1.48638
1.48694
1.48977
1.49587
1.50192
1.50334
1.50254
1.50071
1.4968
1.48808
1.47914
1.47638
1.47561
1.47499
1.4745
1.47453
1.47595
1.48082
1.48664
1.48801
1.48688
1.48469
1.48077
1.47243
1.46367
1.46086
1.46009
1.45959
1.45909
1.45877
1.45879
1.46016
1.46413
1.46806
1.46832
1.46659
1.46369
1.45803
1.44847
1.44171
1.43972
1.43885
1.43837
1.43813
1.43863
1.44123
1.44649
1.45003
1.44985
1.44783
1.44333
1.43445
1.42671
1.42443
1.42348
1.42276
1.42214
1.42204
1.42297
1.42639
1.43296
1.4376
1.43784
1.43649
1.43332
1.42564
1.41468
1.41041
1.40969
1.40962
1.40945
1.40944
1.4101
1.41236
1.41775
1.42305
1.42389
1.42327
1.42159
1.41792
1.41008
1.40446
1.40414
1.40546
1.4076
1.4103
1.41511
1.42224
1.42583
1.42552
1.4235
1.42038
1.41522
1.40605
1.39952
1.399
1.40074
1.40929
1.43905
1.50086
1.57306
1.63324
1.67707
1.70612
1.71542
1.71734
1.71775
1.71628
1.71079
1.7043
1.7002
1.69948
1.6996
1.70109
1.70401
1.70524
1.70542
1.70545
1.70506
1.70512
1.70556
1.70575
1.70603
1.70604
1.7053
1.70363
1.70063
1.69506
1.68989
1.68855
1.68855
1.68871
1.69028
1.6947
1.69943
1.69988
1.69808
1.69482
1.68878
1.68045
1.67602
1.6752
1.67532
1.67597
1.67931
1.68503
1.68695
1.68686
1.68668
1.68497
1.68043
1.67546
1.6733
1.67236
1.67215
1.67228
1.67252
1.67246
1.67226
1.67176
1.67065
1.66842
1.6649
1.66313
1.66292
1.66275
1.66276
1.66361
1.66613
1.66787
1.66814
1.6682
1.66693
1.6622
1.65574
1.65256
1.65131
1.65039
1.6499
1.65107
1.65468
1.65666
1.65716
1.65714
1.65691
1.65556
1.65395
1.6538
1.65427
1.65488
1.65506
1.6548
1.65351
1.65093
1.64696
1.6415
1.63846
1.638
1.63799
1.63997
1.64479
1.64757
1.64793
1.64803
1.64792
1.64715
1.64478
1.64066
1.63605
1.63261
1.63119
1.63003
1.54263
1.54176
1.54142
1.54283
1.54705
1.54983
1.54955
1.54815
1.54604
1.54214
1.53481
1.52631
1.52197
1.52017
1.51923
1.51887
1.51967
1.52375
1.52972
1.5324
1.53184
1.53004
1.52693
1.52108
1.51144
1.50396
1.50127
1.49999
1.49926
1.4992
1.50031
1.50314
1.50717
1.50997
1.51019
1.50858
1.50477
1.49809
1.48962
1.48561
1.48469
1.48438
1.48447
1.4853
1.48741
1.49148
1.49652
1.4986
1.49812
1.49611
1.49197
1.48361
1.47534
1.47298
1.4724
1.47209
1.47211
1.47238
1.47368
1.4771
1.48193
1.48403
1.48339
1.48109
1.47721
1.46965
1.46112
1.45807
1.45729
1.45679
1.45627
1.4558
1.45552
1.45599
1.45895
1.46338
1.46456
1.46332
1.4609
1.45657
1.44826
1.44022
1.43747
1.43643
1.43586
1.43544
1.43547
1.43687
1.44096
1.44515
1.44557
1.44405
1.44041
1.43297
1.42497
1.42221
1.42125
1.4206
1.42012
1.42003
1.42039
1.42252
1.42794
1.43324
1.43404
1.43303
1.4304
1.42372
1.413
1.4081
1.40726
1.40712
1.40689
1.40674
1.40689
1.4084
1.41333
1.41875
1.41971
1.4194
1.41838
1.41547
1.40846
1.40286
1.40263
1.40411
1.40613
1.40837
1.41237
1.41877
1.42212
1.42164
1.41957
1.41648
1.41098
1.40172
1.39585
1.39506
1.39525
1.39713
1.40871
1.43957
1.50397
1.5731
1.63776
1.66808
1.69547
1.7095
1.70952
1.70889
1.70635
1.70213
1.69828
1.6975
1.69796
1.70033
1.70228
1.70237
1.70241
1.7021
1.7018
1.70201
1.70229
1.70269
1.70358
1.70367
1.70257
1.70031
1.69647
1.69031
1.68549
1.68439
1.68436
1.68472
1.68652
1.69083
1.69539
1.69584
1.69408
1.69098
1.68519
1.677
1.67274
1.67222
1.67235
1.67302
1.67614
1.68165
1.68394
1.68375
1.68329
1.6815
1.6775
1.6728
1.67056
1.66953
1.66856
1.66791
1.66787
1.66862
1.6686
1.66838
1.66776
1.66599
1.66244
1.66029
1.66005
1.65999
1.66009
1.66107
1.66316
1.66401
1.66423
1.66397
1.66177
1.6563
1.65085
1.64891
1.6482
1.64782
1.64819
1.65137
1.65624
1.65715
1.6567
1.656
1.65427
1.65089
1.64918
1.64912
1.6492
1.64916
1.64892
1.64848
1.64775
1.64642
1.64384
1.6401
1.63804
1.63788
1.63969
1.64243
1.64321
1.64331
1.64361
1.64358
1.64218
1.638
1.63336
1.63093
1.62942
1.62896
1.62888
1.54119
1.53964
1.53864
1.53826
1.53901
1.54156
1.54439
1.5451
1.5441
1.54174
1.53798
1.53231
1.52507
1.5198
1.51782
1.51688
1.51674
1.51755
1.51982
1.52325
1.52634
1.52701
1.52582
1.5228
1.51817
1.51153
1.50432
1.49988
1.49818
1.49734
1.4972
1.4975
1.49831
1.50019
1.5029
1.50409
1.50327
1.5006
1.49607
1.48937
1.48444
1.48307
1.48269
1.48273
1.48322
1.4843
1.48675
1.49089
1.49354
1.49337
1.49151
1.48769
1.48039
1.47281
1.47056
1.47012
1.47007
1.47013
1.47031
1.4711
1.47335
1.47723
1.47963
1.47938
1.47727
1.47358
1.46689
1.45866
1.45525
1.45427
1.45362
1.45306
1.45254
1.45214
1.4522
1.45436
1.45879
1.46086
1.46008
1.45822
1.45504
1.44813
1.4393
1.43518
1.43365
1.43287
1.43231
1.432
1.43255
1.43566
1.44035
1.44161
1.44052
1.43777
1.43194
1.42399
1.4203
1.41917
1.4185
1.41789
1.41741
1.41739
1.41865
1.42334
1.42922
1.43049
1.42969
1.42759
1.42196
1.41165
1.40576
1.40452
1.40422
1.40378
1.40322
1.40309
1.40428
1.40943
1.41527
1.41631
1.41626
1.41587
1.4137
1.40733
1.40136
1.40089
1.40198
1.40346
1.40505
1.40828
1.41442
1.41802
1.41752
1.41546
1.41245
1.40704
1.39805
1.39337
1.39276
1.39295
1.39397
1.39786
1.41221
1.44176
1.49967
1.56964
1.63736
1.6784
1.68756
1.69782
1.70056
1.6993
1.69672
1.69393
1.6934
1.69466
1.69709
1.69799
1.69832
1.69862
1.69848
1.6986
1.69902
1.6995
1.70029
1.70058
1.69974
1.69812
1.69598
1.69264
1.68734
1.68226
1.68081
1.68075
1.68122
1.68287
1.68666
1.69104
1.69158
1.68998
1.68738
1.68208
1.6742
1.66986
1.66924
1.66933
1.66978
1.6725
1.67773
1.68031
1.68027
1.68002
1.67868
1.67449
1.66891
1.66572
1.66447
1.66377
1.66341
1.66389
1.6656
1.66574
1.66563
1.66515
1.66327
1.65953
1.65765
1.65745
1.65729
1.65732
1.65795
1.65895
1.65923
1.65937
1.659
1.65691
1.65272
1.64843
1.64694
1.64648
1.64663
1.6479
1.6508
1.65365
1.6539
1.65319
1.65186
1.64922
1.64551
1.64377
1.6435
1.64373
1.64418
1.64437
1.64463
1.64473
1.64452
1.64322
1.63999
1.63821
1.63801
1.63781
1.63802
1.63837
1.63853
1.63807
1.63572
1.63236
1.63011
1.62874
1.62817
1.62845
1.63091
1.54215
1.5394
1.53743
1.53572
1.53475
1.53456
1.53532
1.53702
1.53845
1.53838
1.53689
1.5348
1.53165
1.52676
1.52078
1.51677
1.51525
1.51449
1.51444
1.51482
1.51616
1.51894
1.52109
1.52087
1.5189
1.51607
1.51212
1.50613
1.49993
1.49669
1.49499
1.49394
1.4932
1.49296
1.49359
1.49627
1.49891
1.49875
1.49713
1.49431
1.48927
1.48356
1.48135
1.48075
1.48056
1.48047
1.48069
1.48203
1.48555
1.48874
1.48891
1.48712
1.48387
1.47773
1.47072
1.46852
1.4682
1.46803
1.46793
1.46797
1.46843
1.46996
1.47294
1.47522
1.47527
1.47344
1.46984
1.4634
1.4555
1.45216
1.45109
1.45037
1.44985
1.44938
1.44901
1.4491
1.45103
1.45498
1.45786
1.4577
1.45597
1.45297
1.44689
1.43786
1.43244
1.43039
1.42939
1.42886
1.4285
1.42864
1.43092
1.43583
1.43809
1.43729
1.43535
1.43094
1.42329
1.41828
1.41664
1.41579
1.41506
1.4144
1.41412
1.41502
1.41941
1.42558
1.4272
1.42657
1.42476
1.41969
1.40956
1.40292
1.40135
1.40086
1.40024
1.39943
1.39909
1.40044
1.4068
1.41325
1.41417
1.41425
1.41399
1.41197
1.40552
1.39884
1.398
1.39882
1.39981
1.40081
1.40351
1.40973
1.41363
1.41325
1.41162
1.40919
1.40462
1.39651
1.39162
1.39112
1.39126
1.39205
1.39386
1.39789
1.41008
1.44301
1.49847
1.57023
1.62685
1.67497
1.69008
1.69068
1.69285
1.69043
1.68898
1.6895
1.68968
1.68996
1.69142
1.69313
1.69393
1.69506
1.69583
1.69589
1.69592
1.69646
1.69637
1.69532
1.69399
1.69251
1.69003
1.68541
1.67973
1.67715
1.67678
1.67678
1.67782
1.68161
1.68682
1.68815
1.68693
1.68444
1.67927
1.67148
1.66701
1.66632
1.66634
1.66662
1.66916
1.67485
1.67851
1.67851
1.67757
1.67472
1.66849
1.66293
1.66101
1.66039
1.65984
1.65964
1.66094
1.66377
1.66409
1.66364
1.66274
1.66031
1.65633
1.65423
1.65369
1.65332
1.6532
1.65344
1.65449
1.65475
1.65483
1.65474
1.65372
1.65055
1.64676
1.64533
1.64479
1.64457
1.64492
1.6469
1.64941
1.64952
1.64902
1.64771
1.6446
1.64135
1.64037
1.64037
1.64097
1.64187
1.6437
1.64522
1.6454
1.64493
1.64274
1.63831
1.63482
1.6337
1.63315
1.63269
1.63207
1.63097
1.62974
1.62892
1.62857
1.62849
1.62859
1.63088
1.63505
1.54641
1.54319
1.53886
1.53473
1.53168
1.52991
1.52881
1.52822
1.52878
1.53127
1.53364
1.53321
1.53227
1.53099
1.52839
1.52329
1.51661
1.51255
1.5106
1.50971
1.50915
1.50939
1.51162
1.51544
1.51653
1.51544
1.51405
1.51185
1.50766
1.5006
1.49402
1.49069
1.48912
1.48815
1.48754
1.48777
1.49057
1.49463
1.49511
1.49435
1.49266
1.48896
1.48306
1.47935
1.4781
1.47762
1.47714
1.47693
1.47766
1.48077
1.48451
1.48499
1.48348
1.48057
1.47506
1.46835
1.46622
1.46596
1.46571
1.46556
1.46563
1.46597
1.46696
1.46906
1.47088
1.47086
1.46917
1.46557
1.45918
1.452
1.44919
1.44824
1.44766
1.44723
1.44692
1.44687
1.44761
1.44914
1.45144
1.4539
1.45442
1.45306
1.44987
1.44439
1.43594
1.42951
1.42702
1.42586
1.42545
1.42516
1.42513
1.42688
1.43193
1.43525
1.43472
1.43308
1.42938
1.42197
1.41579
1.41363
1.41265
1.41194
1.41128
1.41098
1.41178
1.41613
1.42221
1.42387
1.42333
1.42155
1.41667
1.4067
1.39957
1.39765
1.39699
1.39635
1.39562
1.39549
1.39791
1.40622
1.4125
1.41295
1.41256
1.41178
1.40933
1.40183
1.3948
1.394
1.39465
1.39529
1.39596
1.39861
1.40542
1.4095
1.40944
1.40848
1.40686
1.40345
1.39628
1.39022
1.38906
1.38923
1.3893
1.38985
1.3916
1.39632
1.40713
1.43941
1.49321
1.56837
1.62317
1.66521
1.68437
1.68622
1.68784
1.68909
1.68713
1.68685
1.68756
1.68863
1.6893
1.69023
1.6911
1.69153
1.69139
1.69167
1.69275
1.69278
1.69213
1.69099
1.68958
1.68712
1.68167
1.67493
1.6722
1.67197
1.67195
1.67291
1.6768
1.68245
1.68426
1.68343
1.68153
1.67729
1.67023
1.66485
1.66379
1.66376
1.66428
1.66676
1.67151
1.67439
1.67426
1.67278
1.66895
1.66253
1.65828
1.6572
1.65682
1.65659
1.65694
1.65895
1.66105
1.66111
1.66078
1.65961
1.65662
1.65237
1.65021
1.64953
1.64928
1.64925
1.64949
1.65077
1.65169
1.65224
1.65231
1.65162
1.64849
1.64409
1.64219
1.64142
1.64096
1.64111
1.64266
1.64479
1.64496
1.64479
1.6439
1.64158
1.63917
1.63891
1.63946
1.64157
1.64474
1.6455
1.6454
1.64487
1.64273
1.63793
1.63211
1.62871
1.627
1.62568
1.62497
1.62492
1.6253
1.62612
1.62706
1.62878
1.63167
1.6351
1.63542
1.54785
1.54586
1.5425
1.5368
1.53029
1.52585
1.52348
1.52217
1.52142
1.5218
1.52547
1.53046
1.53144
1.53147
1.53066
1.52865
1.52357
1.51439
1.50791
1.50547
1.50431
1.50363
1.50352
1.50558
1.51112
1.51392
1.5137
1.51266
1.51082
1.50699
1.49868
1.4896
1.4855
1.48385
1.48303
1.48251
1.48279
1.4863
1.49172
1.49251
1.49209
1.491
1.48815
1.48207
1.47659
1.4747
1.4741
1.47357
1.47318
1.47366
1.47665
1.48074
1.48133
1.47999
1.47739
1.47235
1.46576
1.46367
1.46346
1.46328
1.4633
1.46344
1.46357
1.46392
1.4651
1.46623
1.4659
1.46425
1.46084
1.45504
1.44916
1.44697
1.44619
1.44574
1.44545
1.44538
1.44601
1.44665
1.44705
1.44781
1.44916
1.44971
1.44877
1.44598
1.44136
1.4341
1.42691
1.4238
1.42254
1.42218
1.42204
1.42202
1.42362
1.4284
1.43222
1.43202
1.43025
1.42664
1.41962
1.41291
1.41046
1.40945
1.40879
1.40823
1.408
1.40895
1.41331
1.41874
1.41997
1.41954
1.41776
1.41278
1.40295
1.39605
1.39425
1.39361
1.39304
1.39258
1.39298
1.39673
1.40523
1.40972
1.40988
1.40942
1.40849
1.40535
1.39699
1.39028
1.38959
1.39014
1.39064
1.39129
1.39464
1.40289
1.40688
1.40682
1.40653
1.40553
1.40255
1.39496
1.38759
1.3858
1.38587
1.38572
1.38566
1.38695
1.38956
1.39329
1.40316
1.43358
1.49225
1.56307
1.61939
1.65284
1.67686
1.68174
1.68306
1.68587
1.68644
1.68585
1.68613
1.68679
1.68773
1.68852
1.68846
1.68839
1.68861
1.68964
1.69022
1.68996
1.68866
1.68665
1.68278
1.6754
1.66891
1.6669
1.66669
1.66667
1.66789
1.67236
1.67886
1.6809
1.68033
1.67907
1.67595
1.66975
1.66354
1.66186
1.66175
1.66202
1.66335
1.6662
1.66844
1.66834
1.66689
1.66371
1.65883
1.65481
1.65384
1.65365
1.65378
1.65475
1.65658
1.65747
1.65729
1.65705
1.65581
1.65255
1.64828
1.64662
1.64631
1.64623
1.64628
1.64713
1.64992
1.65101
1.65093
1.65054
1.64875
1.64403
1.63925
1.63741
1.63659
1.63605
1.636
1.63753
1.64025
1.64082
1.6411
1.64108
1.6404
1.63947
1.63974
1.64122
1.64213
1.64266
1.6428
1.6424
1.6404
1.63575
1.62873
1.6232
1.62106
1.62043
1.62033
1.62062
1.62176
1.6241
1.6276
1.6319
1.63489
1.63517
1.63377
1.54804
1.54612
1.54369
1.53966
1.53236
1.52428
1.51979
1.51773
1.51681
1.51631
1.51718
1.52291
1.53039
1.53157
1.53069
1.52925
1.52684
1.52105
1.51057
1.50327
1.50063
1.4995
1.49907
1.4991
1.50183
1.50898
1.51304
1.5126
1.51077
1.50824
1.50358
1.49432
1.48487
1.48098
1.4794
1.47874
1.47837
1.47891
1.48327
1.48954
1.49054
1.48996
1.48882
1.48584
1.47925
1.47299
1.47103
1.47044
1.46986
1.46933
1.46966
1.47271
1.47692
1.47748
1.47635
1.47405
1.46926
1.46303
1.46116
1.46098
1.46099
1.46108
1.46095
1.4605
1.46029
1.46074
1.46127
1.46069
1.45919
1.4562
1.45133
1.447
1.44544
1.44493
1.44472
1.44471
1.44481
1.44474
1.44451
1.44414
1.44405
1.44444
1.44471
1.44404
1.44172
1.43786
1.43206
1.42493
1.42091
1.41963
1.41927
1.41927
1.41936
1.42074
1.42441
1.42804
1.42841
1.42677
1.4233
1.41702
1.41015
1.40734
1.40632
1.40578
1.40538
1.40528
1.4065
1.41069
1.41488
1.41539
1.41506
1.41339
1.40878
1.39982
1.39308
1.39139
1.39078
1.39028
1.39018
1.39104
1.39539
1.40279
1.40569
1.40565
1.40532
1.40433
1.4007
1.392
1.38597
1.38546
1.38598
1.38656
1.38758
1.39214
1.40206
1.40643
1.40637
1.40563
1.40393
1.40007
1.39128
1.38352
1.38198
1.38192
1.38162
1.38155
1.38306
1.38643
1.3875
1.3893
1.39944
1.42815
1.49058
1.55734
1.62111
1.64286
1.66135
1.67258
1.67843
1.68011
1.68124
1.68401
1.68539
1.68609
1.68616
1.68589
1.68616
1.68783
1.68901
1.68814
1.68606
1.68419
1.68169
1.67689
1.66896
1.66308
1.66206
1.66213
1.66234
1.66383
1.66868
1.67594
1.6781
1.67785
1.67708
1.67464
1.66877
1.66174
1.65894
1.65842
1.65805
1.6582
1.66
1.66233
1.66234
1.66138
1.6594
1.65585
1.65201
1.65106
1.65104
1.65099
1.65111
1.65227
1.65289
1.65295
1.65304
1.6522
1.64926
1.64525
1.64389
1.6438
1.64383
1.64433
1.64606
1.6474
1.64773
1.64781
1.64696
1.64394
1.63846
1.63389
1.632
1.63146
1.63115
1.63143
1.63428
1.6376
1.6395
1.64026
1.64078
1.6408
1.63972
1.63858
1.63851
1.63873
1.63876
1.63836
1.6367
1.63312
1.62736
1.62103
1.61815
1.61745
1.6174
1.61773
1.61959
1.62471
1.63126
1.63434
1.63452
1.63407
1.63126
1.54739
1.54591
1.5434
1.54013
1.53486
1.52636
1.51912
1.51595
1.51423
1.51349
1.51344
1.51535
1.52144
1.52796
1.52929
1.52816
1.52631
1.52341
1.51716
1.50696
1.49993
1.49759
1.49657
1.4963
1.49688
1.49979
1.50485
1.5085
1.50882
1.50702
1.5039
1.49874
1.49012
1.48144
1.47767
1.47617
1.47555
1.47543
1.4768
1.48144
1.48704
1.48843
1.48765
1.48577
1.4822
1.47547
1.46919
1.46718
1.4665
1.46587
1.46533
1.46582
1.46928
1.47334
1.47376
1.47265
1.4703
1.46577
1.46027
1.45878
1.45854
1.45837
1.45813
1.45747
1.45664
1.45637
1.45659
1.45655
1.4556
1.45427
1.45159
1.44767
1.44492
1.44408
1.44388
1.44369
1.44323
1.44271
1.44219
1.44164
1.44103
1.44038
1.43995
1.43965
1.43905
1.43722
1.43417
1.43001
1.42418
1.41917
1.41736
1.41685
1.41683
1.41695
1.41775
1.42017
1.42332
1.42414
1.42286
1.41975
1.41438
1.40765
1.40445
1.40342
1.40301
1.40276
1.40276
1.40402
1.40762
1.4107
1.41084
1.41056
1.40909
1.40544
1.39801
1.39101
1.38889
1.38823
1.38782
1.38774
1.38868
1.39316
1.39954
1.40124
1.40108
1.40084
1.39978
1.39602
1.38768
1.38221
1.38188
1.38263
1.38354
1.38542
1.3915
1.40141
1.40511
1.40465
1.40297
1.40057
1.39602
1.38639
1.37911
1.37803
1.3779
1.3776
1.37781
1.38056
1.38423
1.38478
1.38416
1.38551
1.3964
1.42605
1.48188
1.55045
1.61194
1.64798
1.65801
1.66532
1.66928
1.674
1.67824
1.67934
1.68095
1.68349
1.68427
1.68406
1.68444
1.68413
1.68219
1.68062
1.67903
1.67648
1.67173
1.66438
1.65904
1.65829
1.6584
1.65863
1.66033
1.6661
1.67413
1.67603
1.67591
1.67531
1.67263
1.66523
1.65705
1.65411
1.65326
1.65285
1.65295
1.65472
1.6581
1.65859
1.65762
1.65585
1.65257
1.64842
1.64653
1.64624
1.64621
1.64645
1.64787
1.64916
1.64936
1.64951
1.64891
1.6463
1.64265
1.64182
1.64186
1.64199
1.64262
1.64359
1.64362
1.64361
1.64338
1.64203
1.63861
1.63302
1.62943
1.62855
1.62838
1.62841
1.63023
1.63592
1.63978
1.64005
1.64029
1.64026
1.63866
1.63565
1.63463
1.6344
1.63409
1.6334
1.63205
1.62983
1.62627
1.62108
1.6169
1.61593
1.61581
1.61636
1.62055
1.62823
1.63138
1.63158
1.63159
1.63105
1.62726
1.54094
1.54211
1.5413
1.53887
1.53503
1.52962
1.52252
1.51653
1.51347
1.51205
1.51139
1.51164
1.51316
1.51659
1.5217
1.52451
1.52404
1.52205
1.51896
1.51406
1.50622
1.49859
1.49555
1.49465
1.4945
1.49498
1.49604
1.49821
1.50123
1.50259
1.50164
1.49871
1.4943
1.48784
1.48004
1.47549
1.47416
1.47366
1.47402
1.47565
1.4786
1.48211
1.48387
1.48352
1.48162
1.47783
1.4713
1.46538
1.46351
1.46283
1.46224
1.4618
1.46258
1.46626
1.4694
1.4696
1.46869
1.46651
1.46199
1.457
1.4558
1.45543
1.45493
1.45428
1.45354
1.453
1.453
1.45306
1.45247
1.45134
1.4503
1.4483
1.44546
1.44355
1.44254
1.44176
1.4411
1.44047
1.43984
1.43923
1.43857
1.4378
1.43682
1.43562
1.4345
1.43391
1.43279
1.43059
1.42778
1.42383
1.41891
1.41567
1.41459
1.41434
1.41439
1.41451
1.41588
1.41855
1.41978
1.41887
1.41619
1.4117
1.40543
1.40182
1.40072
1.40037
1.40016
1.40013
1.40119
1.40424
1.4067
1.40672
1.40651
1.40546
1.40259
1.39627
1.38896
1.38622
1.38536
1.38477
1.38454
1.38546
1.38978
1.39537
1.39649
1.39634
1.39626
1.39553
1.39231
1.38481
1.37973
1.37952
1.38041
1.38195
1.38452
1.39018
1.3978
1.40063
1.40037
1.39904
1.39651
1.39108
1.38065
1.3744
1.37372
1.37372
1.37358
1.37456
1.37908
1.38236
1.38224
1.3813
1.3804
1.38222
1.39164
1.42352
1.47667
1.54497
1.60106
1.6473
1.66025
1.66538
1.67137
1.67271
1.67586
1.67838
1.67789
1.67661
1.67625
1.67643
1.67697
1.67699
1.67606
1.67451
1.67209
1.66748
1.66019
1.65523
1.65458
1.65465
1.65488
1.657
1.66389
1.6726
1.6748
1.67419
1.67254
1.66825
1.6591
1.65139
1.64948
1.64905
1.64876
1.64882
1.65075
1.65468
1.6554
1.65424
1.65197
1.64783
1.64333
1.64195
1.6419
1.64218
1.64304
1.64569
1.64737
1.64729
1.64726
1.64641
1.6436
1.64021
1.63925
1.63911
1.63909
1.6392
1.63937
1.63928
1.63903
1.63849
1.63707
1.6342
1.6299
1.6271
1.62658
1.62657
1.62774
1.63067
1.6348
1.63694
1.63701
1.63695
1.63618
1.63364
1.63053
1.62935
1.62881
1.6282
1.62734
1.62615
1.62422
1.62101
1.61747
1.61598
1.61585
1.61759
1.62301
1.62634
1.62675
1.62731
1.62751
1.62675
1.62127
1.53236
1.53368
1.53478
1.53495
1.53347
1.53034
1.52682
1.52292
1.51812
1.51323
1.51051
1.50937
1.50881
1.50882
1.51003
1.51362
1.51788
1.51879
1.51758
1.51564
1.51295
1.5081
1.5006
1.49493
1.49283
1.49175
1.491
1.4906
1.49093
1.49286
1.49551
1.49589
1.49406
1.49131
1.48739
1.48132
1.47547
1.47323
1.47268
1.47291
1.47367
1.47477
1.47683
1.47862
1.47847
1.47685
1.47349
1.46766
1.46214
1.46019
1.45941
1.45885
1.45873
1.46037
1.46433
1.46625
1.46609
1.46502
1.46232
1.4571
1.45276
1.45184
1.45142
1.45091
1.45037
1.45014
1.45022
1.45051
1.4505
1.44985
1.44885
1.44761
1.44516
1.44114
1.43954
1.43923
1.43894
1.43841
1.43777
1.43715
1.43649
1.43562
1.43445
1.43287
1.43098
1.42958
1.42901
1.42879
1.42735
1.42552
1.42306
1.41902
1.41435
1.41216
1.41145
1.41137
1.41124
1.41177
1.41393
1.4156
1.41502
1.41276
1.40904
1.40343
1.39933
1.398
1.39768
1.39749
1.39745
1.39823
1.40095
1.4032
1.40314
1.40293
1.40218
1.39991
1.3944
1.3866
1.38295
1.38186
1.38117
1.3808
1.38161
1.38593
1.39125
1.39218
1.39223
1.39257
1.39235
1.38998
1.38338
1.37822
1.37798
1.37894
1.38028
1.38224
1.38684
1.39355
1.39609
1.39577
1.39436
1.39157
1.3852
1.37491
1.37054
1.37015
1.37025
1.37038
1.37278
1.37857
1.38072
1.37985
1.37824
1.37736
1.37631
1.37827
1.38555
1.41592
1.46979
1.54394
1.59831
1.6383
1.65978
1.66641
1.67308
1.67572
1.67436
1.67324
1.6726
1.67221
1.67224
1.67248
1.672
1.67054
1.66912
1.66729
1.6633
1.65642
1.65154
1.6508
1.65084
1.65177
1.65508
1.66167
1.66864
1.6709
1.67015
1.66761
1.6626
1.65393
1.64713
1.64575
1.64545
1.64526
1.64551
1.6472
1.65
1.65043
1.64943
1.64716
1.64311
1.63907
1.63842
1.63869
1.6394
1.64088
1.643
1.64464
1.64484
1.64465
1.64344
1.64042
1.63716
1.63609
1.63568
1.63531
1.63516
1.63508
1.63486
1.63451
1.63408
1.63323
1.63127
1.62794
1.62574
1.62546
1.62571
1.62649
1.62801
1.6306
1.63249
1.63268
1.63253
1.63151
1.62857
1.62549
1.62442
1.62406
1.62366
1.62289
1.62208
1.62099
1.61919
1.61781
1.61797
1.61987
1.62128
1.62134
1.62184
1.62234
1.62226
1.62051
1.61521
1.52673
1.52628
1.5261
1.52675
1.52832
1.52851
1.52693
1.52542
1.52333
1.5198
1.51394
1.50839
1.50552
1.50426
1.50353
1.50354
1.50591
1.51144
1.51445
1.51398
1.51317
1.512
1.50908
1.50228
1.49358
1.48894
1.48674
1.48539
1.4843
1.48397
1.48515
1.48905
1.49125
1.49037
1.48895
1.48674
1.48261
1.47649
1.47226
1.47082
1.4703
1.46992
1.46999
1.4712
1.47325
1.47361
1.47226
1.4695
1.46463
1.45949
1.45759
1.45684
1.45666
1.45725
1.45949
1.46173
1.46191
1.46117
1.45995
1.45702
1.45158
1.44837
1.44774
1.44734
1.44697
1.44705
1.44774
1.44893
1.44926
1.44861
1.44746
1.44594
1.4431
1.43853
1.43563
1.43546
1.43552
1.43619
1.43631
1.43582
1.43504
1.43397
1.43254
1.43067
1.42843
1.42621
1.425
1.42466
1.4251
1.42457
1.42327
1.42158
1.41821
1.41268
1.4093
1.40826
1.40803
1.40781
1.40796
1.40965
1.41169
1.41141
1.40951
1.40638
1.40123
1.39667
1.39521
1.39492
1.39469
1.3946
1.3952
1.39788
1.39995
1.39986
1.39971
1.39908
1.39708
1.39167
1.38324
1.37896
1.37778
1.37709
1.37673
1.37764
1.38227
1.38768
1.38897
1.38937
1.3897
1.38969
1.38819
1.38246
1.37667
1.37608
1.37665
1.37723
1.37843
1.38227
1.38856
1.39103
1.39072
1.38931
1.38651
1.38008
1.37083
1.36782
1.36769
1.36783
1.36846
1.37123
1.37626
1.37821
1.37722
1.37556
1.3741
1.37249
1.36908
1.3697
1.37871
1.41057
1.47354
1.54117
1.59673
1.63056
1.65725
1.66567
1.6689
1.671
1.67081
1.66999
1.66936
1.66914
1.6689
1.66752
1.66646
1.66562
1.66353
1.65874
1.65225
1.64837
1.64798
1.64858
1.65066
1.65335
1.65798
1.6639
1.66581
1.665
1.6626
1.6581
1.65063
1.64404
1.64225
1.64177
1.64117
1.64114
1.6428
1.64508
1.64504
1.64417
1.64256
1.63947
1.63634
1.63593
1.63622
1.63704
1.63905
1.64063
1.64068
1.64078
1.64078
1.63986
1.6373
1.63394
1.63243
1.63186
1.63126
1.63077
1.6307
1.63122
1.63121
1.63109
1.63073
1.62953
1.62665
1.62356
1.62284
1.62276
1.62275
1.62331
1.62563
1.6281
1.62858
1.62855
1.6277
1.62451
1.62152
1.62072
1.62055
1.62055
1.6208
1.62128
1.62141
1.62131
1.62026
1.6188
1.61745
1.61708
1.61697
1.61662
1.61529
1.61306
1.61105
1.52187
1.52102
1.5199
1.51921
1.51991
1.52401
1.52625
1.52571
1.52453
1.5229
1.51955
1.51232
1.50452
1.50068
1.499
1.49823
1.49804
1.5003
1.50763
1.513
1.51305
1.51219
1.51084
1.50782
1.50056
1.49
1.48376
1.48105
1.47956
1.47852
1.47801
1.47914
1.48436
1.48861
1.48855
1.4877
1.48626
1.48308
1.47613
1.46943
1.46687
1.46599
1.46538
1.465
1.46564
1.46806
1.46915
1.46822
1.46634
1.46273
1.45808
1.45599
1.45534
1.45548
1.45619
1.45734
1.45783
1.45721
1.45607
1.45451
1.45115
1.44623
1.44413
1.44374
1.44351
1.44371
1.44543
1.44758
1.44777
1.447
1.44582
1.44424
1.44173
1.43757
1.43295
1.43062
1.43046
1.43115
1.43365
1.43479
1.43427
1.43328
1.43186
1.42968
1.4268
1.42395
1.42184
1.42094
1.42077
1.42173
1.422
1.42084
1.41942
1.41634
1.41044
1.40619
1.40497
1.40466
1.40437
1.40428
1.40573
1.40813
1.40802
1.40638
1.40354
1.39841
1.3936
1.39222
1.39191
1.39162
1.39147
1.39211
1.39504
1.39691
1.39679
1.39653
1.3958
1.39368
1.38772
1.37884
1.37465
1.37358
1.37299
1.37268
1.37381
1.37935
1.38574
1.38714
1.38766
1.38808
1.38815
1.38686
1.38087
1.37387
1.37271
1.37293
1.37299
1.37364
1.37696
1.38311
1.38581
1.38562
1.38466
1.38253
1.37745
1.36926
1.36595
1.36577
1.36578
1.36597
1.36777
1.37199
1.37422
1.37362
1.37213
1.3704
1.36797
1.36466
1.36359
1.36538
1.37782
1.4086
1.47234
1.54356
1.60498
1.62667
1.64457
1.65616
1.6614
1.66237
1.66222
1.66311
1.66571
1.66622
1.66486
1.66322
1.6615
1.65882
1.65499
1.6505
1.64733
1.64711
1.64774
1.64894
1.65023
1.65315
1.65835
1.66037
1.65946
1.65732
1.65397
1.64722
1.64033
1.63811
1.63735
1.63673
1.63683
1.63868
1.64062
1.64067
1.64015
1.63905
1.63683
1.63394
1.63325
1.63352
1.63415
1.63499
1.63627
1.63694
1.63724
1.63731
1.6366
1.63343
1.62991
1.6287
1.62807
1.62756
1.62729
1.62806
1.62879
1.62905
1.62911
1.62875
1.62701
1.62274
1.61926
1.61821
1.61797
1.61801
1.61855
1.6209
1.62404
1.62495
1.62498
1.62412
1.62141
1.61919
1.61894
1.61912
1.6206
1.6226
1.62326
1.62258
1.62067
1.61739
1.61387
1.61203
1.61082
1.60949
1.60849
1.60825
1.6084
1.51764
1.51596
1.5152
1.51427
1.5138
1.51571
1.52295
1.52614
1.52505
1.52334
1.52124
1.51708
1.50862
1.50015
1.49648
1.49488
1.49438
1.49447
1.49722
1.50446
1.51062
1.5113
1.50993
1.50775
1.50395
1.49654
1.48589
1.479
1.47616
1.47472
1.47401
1.47372
1.47541
1.48204
1.48775
1.48785
1.48654
1.48474
1.48104
1.4732
1.46536
1.46234
1.4612
1.46053
1.46002
1.4605
1.4636
1.46546
1.46483
1.46357
1.46091
1.45688
1.45456
1.45376
1.4532
1.45304
1.45314
1.45299
1.45196
1.45091
1.44931
1.44589
1.44179
1.44045
1.44027
1.44039
1.44206
1.44497
1.44574
1.44522
1.44405
1.4427
1.44097
1.43802
1.43284
1.42781
1.42569
1.42571
1.42694
1.43067
1.433
1.43252
1.43136
1.4297
1.42696
1.42321
1.42009
1.41801
1.41711
1.41699
1.41818
1.41916
1.41831
1.41673
1.41372
1.40787
1.40313
1.40165
1.40124
1.40093
1.40084
1.40256
1.4052
1.40498
1.40314
1.40008
1.3946
1.39008
1.38898
1.38864
1.38827
1.3881
1.38925
1.39275
1.39386
1.39358
1.39324
1.39232
1.38976
1.38307
1.37412
1.37046
1.36963
1.36916
1.36903
1.37093
1.37821
1.38509
1.38613
1.38643
1.3867
1.38663
1.38463
1.37724
1.36949
1.36825
1.36829
1.36807
1.36836
1.37131
1.37793
1.38139
1.3814
1.38121
1.38006
1.37582
1.36757
1.3637
1.36326
1.36297
1.36264
1.36382
1.36799
1.37035
1.36972
1.36816
1.36661
1.36447
1.36186
1.36091
1.36087
1.36323
1.37701
1.41084
1.47027
1.5364
1.59896
1.63201
1.63895
1.64575
1.64711
1.64909
1.65495
1.65833
1.66015
1.66053
1.65892
1.6571