/*--------------------------------*- C++ -*----------------------------------*\
  =========                 |
  \\      /  F ield         | OpenFOAM: The Open Source CFD Toolbox
   \\    /   O peration     | Website:  https://openfoam.org
    \\  /    A nd           | Version:  7
     \\/     M anipulation  |
\*---------------------------------------------------------------------------*/
FoamFile
{
    version     2.0;
    format      ascii;
    class       volScalarField;
    location    "2.6";
    object      p;
}
// * * * * * * * * * * * * * * * * * * * * * * * * * * * * * * * * * * * * * //

dimensions      [1 -1 -2 0 0 0 0];

internalField   nonuniform List<scalar> 
16512
(
1
1
1
1
1
1
1
1
1
1
1
1
1
1
1
1
1
1
1
1
1
1
1
1
1
1
1
1
1
1
1
1
1
1
1
1
1
1
1
1
1
1
1
1
1
1
1
1
1
1
1
1
1
1
1
1
1
1
1
1
1
1
1
1
1
1
1
1
1
1
1
1
1
1
1
1
1
1
1
1
1
1
1
1
1
1
1
1
1
1
1
1
1
1
1
1
1
1
1
1
1.00006
1.00265
1.0456
1.34368
2.30262
3.53865
3.77865
3.89535
3.95273
3.98141
3.91769
3.86683
3.87461
3.86259
3.83138
3.81016
3.80085
3.77132
3.73431
3.70679
3.67969
3.64809
3.62977
3.6165
3.61403
3.61373
3.60327
3.5887
3.57127
3.54546
3.51265
3.47206
3.4246
3.38385
3.37125
3.37068
3.37858
3.38656
3.38389
3.37452
3.35351
3.31247
3.25295
3.20411
3.18705
3.18699
3.19047
3.20108
3.20932
3.20158
3.18354
3.14962
3.0883
3.01948
2.99105
2.9869
2.9863
3.00131
3.04344
3.07482
3.07242
3.05597
3.02139
2.9481
2.85185
2.80722
2.79413
2.78909
1
1
1
1
1
1
1
1
1
1
1
1
1
1
1
1
1
1
1
1
1
1
1
1
1
1
1
1
1
1
1
1
1
1
1
1
1
1
1
1
1
1
1
1
1
1
1
1
1
1
1
1
1
1
1
1
1
1
1
1
1
1
1
1
1
1
1
1
1
1
1
1
1
1
1
1
1
1
1
1
1
1
1
1
1
1
1
1
1
1
1
1
1
1
1
1
1
1
1
1
1
1
1
1
1
1
1
1
1
1.00001
1.00074
1.0202
1.22522
2.13016
3.353
3.74483
3.90727
3.96016
3.93139
3.9138
3.9068
3.8729
3.83969
3.82887
3.82041
3.77911
3.74247
3.71757
3.69176
3.67513
3.66501
3.65878
3.65189
3.63937
3.61818
3.59851
3.57324
3.54383
3.50866
3.46471
3.42426
3.41086
3.4099
3.41797
3.42596
3.42002
3.40855
3.38575
3.34436
3.28933
3.23984
3.21949
3.21963
3.22443
3.23425
3.24092
3.23278
3.21412
3.18046
3.12287
3.05566
3.02355
3.0185
3.01854
3.03517
3.07796
3.10726
3.10348
3.08593
3.05228
2.97994
2.88216
2.83487
2.82021
2.81456
2.81881
1
1
1
1
1
1
1
1
1
1
1
1
1
1
1
1
1
1
1
1
1
1
1
1
1
1
1
1
1
1
1
1
1
1
1
1
1
1
1
1
1
1
1
1
1
1
1
1
1
1
1
1
1
1
1
1
1
1
1
1
1
1
1
1
1
1
1
1
1
1
1
1
1
1
1
1
1
1
1
1
1
1
1
1
1
1
1
1
1
1
1
1
1
1
1
1
1
1
1
1
1
1
1
1
1
1
1
1
1
1
1
1.00029
1.01115
1.17973
2.0079
3.12725
3.63105
3.90838
3.97692
3.9602
3.91005
3.86984
3.85639
3.86513
3.83992
3.79156
3.75944
3.73636
3.71729
3.70958
3.7028
3.69281
3.67471
3.64904
3.62467
3.59982
3.57306
3.54299
3.50383
3.46594
3.45249
3.45111
3.45607
3.46429
3.45776
3.44325
3.4193
3.37806
3.32616
3.27766
3.25375
3.25273
3.25906
3.2681
3.2723
3.26373
3.24454
3.21076
3.15614
3.09224
3.05788
3.05177
3.05314
3.07157
3.11409
3.13927
3.13346
3.11416
3.08047
3.00911
2.91216
2.86376
2.84803
2.84195
2.84685
2.8825
1
1
1
1
1
1
1
1
1
1
1
1
1
1
1
1
1
1
1
1
1
1
1
1
1
1
1
1
1
1
1
1
1
1
1
1
1
1
1
1
1
1
1
1
1
1
1
1
1
1
1
1
1
1
1
1
1
1
1
1
1
1
1
1
1
1
1
1
1
1
1
1
1
1
1
1
1
1
1
1
1
1
1
1
1
1
1
1
1
1
1
1
1
1
1
1
1
1
1
1
1
1
1
1
1
1
1
1
1
1
1
1
1.00016
1.00871
1.1357
1.77247
2.70172
3.54529
3.97368
3.94524
3.87949
3.88831
3.89191
3.8997
3.85082
3.79566
3.78096
3.76588
3.75095
3.74041
3.73215
3.71186
3.68262
3.65274
3.62985
3.60426
3.57596
3.54302
3.51033
3.49642
3.49408
3.49407
3.49962
3.49398
3.47639
3.45099
3.41272
3.36465
3.3176
3.29048
3.28755
3.2942
3.30134
3.30209
3.29319
3.27368
3.24025
3.18962
3.12996
3.09423
3.08708
3.0894
3.10932
3.15016
3.17047
3.16226
3.14122
3.107
3.03619
2.94172
2.89369
2.87739
2.87113
2.87708
2.91515
2.97451
1
1
1
1
1
1
1
1
1
1
1
1
1
1
1
1
1
1
1
1
1
1
1
1
1
1
1
1
1
1
1
1
1
1
1
1
1
1
1
1
1
1
1
1
1
1
1
1
1
1
1
1
1
1
1
1
1
1
1
1
1
1
1
1
1
1
1
1
1
1
1
1
1
1
1
1
1
1
1
1
1
1
1
1
1
1
1
1
1
1
1
1
1
1
1
1
1
1
1
1
1
1
1
1
1
1
1
1
1
1
1
1
1
1.0001
1.00461
1.07248
1.45734
2.33942
3.55017
3.85058
3.8606
3.90118
3.90969
3.91697
3.8431
3.80781
3.80817
3.79484
3.7751
3.76068
3.75078
3.72286
3.68791
3.66095
3.63651
3.60943
3.58069
3.55592
3.54049
3.53786
3.53248
3.53365
3.52841
3.50808
3.4821
3.44798
3.40266
3.35748
3.32912
3.32455
3.33111
3.33525
3.33092
3.32083
3.30114
3.26836
3.22263
3.16906
3.13297
3.12481
3.12779
3.14749
3.18439
3.1999
3.18918
3.16696
3.1325
3.06266
2.97184
2.92477
2.9082
2.90224
2.90944
2.95023
3.01038
3.02876
1
1
1
1
1
1
1
1
1
1
1
1
1
1
1
1
1
1
1
1
1
1
1
1
1
1
1
1
1
1
1
1
1
1
1
1
1
1
1
1
1
1
1
1
1
1
1
1
1
1
1
1
1
1
1
1
1
1
1
1
1
1
1
1
1
1
1
1
1
1
1
1
1
1
1
1
1
1
1
1
1
1
1
1
1
1
1
1
1
1
1
1
1
1
1
1
1
1
1
1
1
1
1
1
1
1
1
1
1
1
1
1
1
1
1.00003
1.00142
1.02994
1.26637
2.11169
3.36875
3.71184
3.8476
3.91259
3.92716
3.86007
3.84114
3.84184
3.81379
3.78463
3.77605
3.76716
3.73144
3.69691
3.67237
3.64589
3.61864
3.59951
3.58435
3.58106
3.57277
3.56671
3.56077
3.54008
3.51346
3.48231
3.44133
3.39642
3.36676
3.36156
3.36781
3.36983
3.36244
3.34936
3.32834
3.2956
3.2545
3.2079
3.17319
3.1648
3.16835
3.18685
3.21767
3.22764
3.21424
3.19104
3.15629
3.08863
3.00312
2.95756
2.94098
2.93545
2.94406
2.9875
3.04651
3.06172
3.05209
1
1
1
1
1
1
1
1
1
1
1
1
1
1
1
1
1
1
1
1
1
1
1
1
1
1
1
1
1
1
1
1
1
1
1
1
1
1
1
1
1
1
1
1
1
1
1
1
1
1
1
1
1
1
1
1
1
1
1
1
1
1
1
1
1
1
1
1
1
1
1
1
1
1
1
1
1
1
1
1
1
1
1
1
1
1
1
1
1
1
1
1
1
1
1
1
1
1
1
1
1
1
1
1
1
1
1
1
1
1
1
1
1
1
1
1.00001
1.00044
1.01356
1.16865
1.97604
3.18488
3.63531
3.8471
3.92675
3.90937
3.88809
3.85038
3.80995
3.79818
3.80493
3.78034
3.73799
3.7083
3.6866
3.6616
3.64359
3.63179
3.62443
3.61449
3.60024
3.58826
3.56927
3.54434
3.51669
3.4809
3.43794
3.40458
3.39781
3.40302
3.40471
3.39496
3.37951
3.35694
3.32493
3.28723
3.24643
3.21384
3.2056
3.20998
3.22678
3.25048
3.25464
3.23862
3.21417
3.17848
3.11353
3.03504
2.99219
2.9757
2.97084
2.9812
3.02643
3.08235
3.09268
3.08202
3.05769
1
1
1
1
1
1
1
1
1
1
1
1
1
1
1
1
1
1
1
1
1
1
1
1
1
1
1
1
1
1
1
1
1
1
1
1
1
1
1
1
1
1
1
1
1
1
1
1
1
1
1
1
1
1
1
1
1
1
1
1
1
1
1
1
1
1
1
1
1
1
1
1
1
1
1
1
1
1
1
1
1
1
1
1
1
1
1
1
1
1
1
1
1
1
1
1
1
1
1
1
1
1
1
1
1
1
1
1
1
1
1
1
1
1
1
1
1
1.00018
1.00777
1.1357
1.85398
2.86735
3.49344
3.88986
3.93686
3.87716
3.83283
3.83584
3.84169
3.836
3.78205
3.73823
3.72245
3.70748
3.68853
3.67889
3.67282
3.65896
3.63712
3.61431
3.59513
3.57185
3.54744
3.51895
3.48407
3.44921
3.43441
3.4361
3.43746
3.426
3.40837
3.38622
3.3566
3.32138
3.28508
3.25485
3.24732
3.25225
3.26639
3.28219
3.28042
3.26211
3.23661
3.2001
3.1379
3.06804
3.02825
3.01247
3.00863
3.02053
3.06737
3.11741
3.12225
3.11
3.08536
3.03336
1
1
1
1
1
1
1
1
1
1
1
1
1
1
1
1
1
1
1
1
1
1
1
1
1
1
1
1
1
1
1
1
1
1
1
1
1
1
1
1
1
1
1
1
1
1
1
1
1
1
1
1
1
1
1
1
1
1
1
1
1
1
1
1
1
1
1
1
1
1
1
1
1
1
1
1
1
1
1
1
1
1
1
1
1
1
1
1
1
1
1
1
1
1
1
1
1
1
1
1
1
1
1
1
1
1
1
1
1
1
1
1
1
1
1
1
1
1
1.0001
1.00553
1.09693
1.57918
2.39594
3.46761
3.91147
3.8182
3.83435
3.86089
3.88132
3.84764
3.77267
3.75399
3.752
3.73344
3.71863
3.71349
3.7082
3.68061
3.64888
3.62413
3.60128
3.57622
3.55124
3.52608
3.49923
3.47905
3.47012
3.46799
3.45641
3.43664
3.41388
3.38603
3.35436
3.32234
3.29656
3.29044
3.29633
3.30701
3.31287
3.30482
3.28464
3.25793
3.22136
3.16365
3.10242
3.06544
3.05073
3.04801
3.062
3.10931
3.15171
3.15126
3.13713
3.11172
3.05871
2.96544
1
1
1
1
1
1
1
1
1
1
1
1
1
1
1
1
1
1
1
1
1
1
1
1
1
1
1
1
1
1
1
1
1
1
1
1
1
1
1
1
1
1
1
1
1
1
1
1
1
1
1
1
1
1
1
1
1
1
1
1
1
1
1
1
1
1
1
1
1
1
1
1
1
1
1
1
1
1
1
1
1
1
1
1
1
1
1
1
1
1
1
1
1
1
1
1
1
1
1
1
1
1
1
1
1
1
1
1
1
1
1
1
1
1
1
1
1
1
1
1.00005
1.00251
1.04333
1.2997
2.11936
3.389
3.67453
3.78284
3.85679
3.90542
3.84082
3.79762
3.80318
3.79082
3.75412
3.74178
3.74491
3.72369
3.68911
3.65956
3.63488
3.6099
3.58256
3.56362
3.54229
3.52234
3.50751
3.49933
3.48802
3.46787
3.44415
3.41643
3.38588
3.35744
3.3377
3.33433
3.3413
3.34624
3.34154
3.32871
3.30534
3.2777
3.24203
3.19043
3.13829
3.10326
3.09039
3.08887
3.10449
3.15095
3.18409
3.1795
3.16324
3.13703
3.08329
2.99096
2.92236
1
1
1
1
1
1
1
1
1
1
1
1
1
1
1
1
1
1
1
1
1
1
1
1
1
1
1
1
1
1
1
1
1
1
1
1
1
1
1
1
1
1
1
1
1
1
1
1
1
1
1
1
1
1
1
1
1
1
1
1
1
1
1
1
1
1
1
1
1
1
1
1
1
1
1
1
1
1
1
1
1
1
1
1
1
1
1
1
1
1
1
1
1
1
1
1
1
1
1
1
1
1
1
1
1
1
1
1
1
1
1
1
1
1
1
1
1
1
1
1
1.00001
1.00065
1.01604
1.17194
1.95477
3.15917
3.58123
3.7992
3.89196
3.87025
3.85421
3.83222
3.78852
3.77239
3.77391
3.76457
3.72698
3.69363
3.66948
3.64688
3.62085
3.60165
3.58669
3.56467
3.54506
3.52722
3.51673
3.49919
3.47636
3.45089
3.42205
3.39502
3.37941
3.37802
3.38562
3.38286
3.37108
3.35316
3.32777
3.29813
3.26309
3.21772
3.17379
3.14187
3.13114
3.13085
3.1486
3.19207
3.21506
3.20639
3.18787
3.16072
3.10683
3.01716
2.95066
2.92401
1
1
1
1
1
1
1
1
1
1
1
1
1
1
1
1
1
1
1
1
1
1
1
1
1
1
1
1
1
1
1
1
1
1
1
1
1
1
1
1
1
1
1
1
1
1
1
1
1
1
1
1
1
1
1
1
1
1
1
1
1
1
1
1
1
1
1
1
1
1
1
1
1
1
1
1
1
1
1
1
1
1
1
1
1
1
1
1
1
1
1
1
1
1
1
1
1
1
1
1
1
1
1
1
1
1
1
1
1
1
1
1
1
1
1
1
1
1
1
1
1
1
1.0002
1.00747
1.12949
1.86562
2.86776
3.46607
3.84269
3.89746
3.85416
3.80194
3.80662
3.81393
3.81351
3.76604
3.71916
3.69837
3.68454
3.66161
3.64066
3.63014
3.61144
3.58687
3.56324
3.54365
3.52758
3.50693
3.484
3.46052
3.43804
3.42255
3.42079
3.42451
3.41638
3.39813
3.3772
3.35223
3.32174
3.28803
3.2477
3.20942
3.18042
3.17162
3.17313
3.19353
3.23284
3.24596
3.23263
3.21167
3.18265
3.1282
3.04307
2.98066
2.95391
2.94537
1
1
1
1
1
1
1
1
1
1
1
1
1
1
1
1
1
1
1
1
1
1
1
1
1
1
1
1
1
1
1
1
1
1
1
1
1
1
1
1
1
1
1
1
1
1
1
1
1
1
1
1
1
1
1
1
1
1
1
1
1
1
1
1
1
1
1
1
1
1
1
1
1
1
1
1
1
1
1
1
1
1
1
1
1
1
1
1
1
1
1
1
1
1
1
1
1
1
1
1
1
1
1
1
1
1
1
1
1
1
1
1
1
1
1
1
1
1
1
1
1
1
1
1.0001
1.00551
1.10569
1.61116
2.40371
3.42279
3.87934
3.8007
3.80702
3.83038
3.84958
3.82732
3.74692
3.72092
3.72136
3.7038
3.67678
3.66566
3.65818
3.631
3.60502
3.58137
3.55933
3.53783
3.51694
3.49824
3.48109
3.46767
3.46151
3.45927
3.44554
3.42417
3.40193
3.37735
3.34708
3.31514
3.27975
3.24576
3.21962
3.2127
3.21571
3.2373
3.27074
3.27596
3.25856
3.2355
3.20419
3.14903
3.0692
3.01178
2.98517
2.97696
2.97796
1
1
1
1
1
1
1
1
1
1
1
1
1
1
1
1
1
1
1
1
1
1
1
1
1
1
1
1
1
1
1
1
1
1
1
1
1
1
1
1
1
1
1
1
1
1
1
1
1
1
1
1
1
1
1
1
1
1
1
1
1
1
1
1
1
1
1
1
1
1
1
1
1
1
1
1
1
1
1
1
1
1
1
1
1
1
1
1
1
1
1
1
1
1
1
1
1
1
1
1
1
1
1
1
1
1
1
1
1
1
1
1
1
1
1
1
1
1
1
1
1
1
1
1
1.00006
1.00308
1.04949
1.30743
2.11605
3.37204
3.65661
3.75628
3.82842
3.87002
3.80898
3.75631
3.75572
3.74425
3.71045
3.69611
3.69888
3.6811
3.64869
3.62244
3.59907
3.57446
3.55309
3.53763
3.52294
3.51173
3.50182
3.49013
3.47342
3.45205
3.42777
3.40292
3.37363
3.34191
3.31111
3.28224
3.25979
3.25551
3.25979
3.28032
3.30506
3.30335
3.28359
3.25923
3.22607
3.17079
3.09718
3.04443
3.01836
3.01053
3.01413
3.03972
1
1
1
1
1
1
1
1
1
1
1
1
1
1
1
1
1
1
1
1
1
1
1
1
1
1
1
1
1
1
1
1
1
1
1
1
1
1
1
1
1
1
1
1
1
1
1
1
1
1
1
1
1
1
1
1
1
1
1
1
1
1
1
1
1
1
1
1
1
1
1
1
1
1
1
1
1
1
1
1
1
1
1
1
1
1
1
1
1
1
1
1
1
1
1
1
1
1
1
1
1
1
1
1
1
1
1
1
1
1
1
1
1
1
1
1
1
1
1
1
1
1
1
1
1
1.00002
1.00078
1.01682
1.17611
1.95076
3.13217
3.55277
3.76191
3.8474
3.8254
3.80206
3.77836
3.7408
3.72406
3.72671
3.72105
3.68712
3.66078
3.64076
3.61839
3.59474
3.57997
3.56726
3.55216
3.53835
3.51846
3.49973
3.4791
3.45603
3.43076
3.40217
3.37099
3.34177
3.31662
3.30028
3.29972
3.30611
3.3229
3.33718
3.32893
3.30764
3.28233
3.24763
3.1933
3.12696
3.07941
3.05389
3.04644
3.05253
3.08261
3.1267
1
1
1
1
1
1
1
1
1
1
1
1
1
1
1
1
1
1
1
1
1
1
1
1
1
1
1
1
1
1
1
1
1
1
1
1
1
1
1
1
1
1
1
1
1
1
1
1
1
1
1
1
1
1
1
1
1
1
1
1
1
1
1
1
1
1
1
1
1
1
1
1
1
1
1
1
1
1
1
1
1
1
1
1
1
1
1
1
1
1
1
1
1
1
1
1
1
1
1
1
1
1
1
1
1
1
1
1
1
1
1
1
1
1
1
1
1
1
1
1
1
1
1
1
1
1
1
1.00022
1.00773
1.12893
1.83557
2.82833
3.4149
3.7871
3.84836
3.80408
3.75143
3.75808
3.77014
3.77122
3.72319
3.68457
3.67374
3.66166
3.63905
3.62197
3.61227
3.59396
3.56978
3.54438
3.52278
3.50346
3.4834
3.46079
3.43408
3.40382
3.37425
3.3493
3.33927
3.34306
3.35327
3.36418
3.36711
3.35449
3.33192
3.30569
3.26929
3.21646
3.15818
3.11572
3.09141
3.08448
3.09264
3.12521
3.16325
3.17191
1
1
1
1
1
1
1
1
1
1
1
1
1
1
1
1
1
1
1
1
1
1
1
1
1
1
1
1
1
1
1
1
1
1
1
1
1
1
1
1
1
1
1
1
1
1
1
1
1
1
1
1
1
1
1
1
1
1
1
1
1
1
1
1
1
1
1
1
1
1
1
1
1
1
1
1
1
1
1
1
1
1
1
1
1
1
1
1
1
1
1
1
1
1
1
1
1
1
1
1
1
1
1
1
1
1
1
1
1
1
1
1
1
1
1
1
1
1
1
1
1
1
1
1
1
1
1
1
1.0001
1.00542
1.09861
1.57673
2.3591
3.34519
3.83217
3.75841
3.74739
3.78337
3.80927
3.79009
3.71567
3.69339
3.69638
3.68076
3.65596
3.64508
3.6349
3.60469
3.57458
3.5497
3.52884
3.50741
3.48762
3.46596
3.43947
3.41073
3.38673
3.38043
3.38836
3.39914
3.40111
3.39459
3.37919
3.3556
3.32981
3.29346
3.24273
3.19093
3.15201
3.12959
3.12343
3.13363
3.16663
3.19588
3.19837
3.18834
1
1
1
1
1
1
1
1
1
1
1
1
1
1
1
1
1
1
1
1
1
1
1
1
1
1
1
1
1
1
1
1
1
1
1
1
1
1
1
1
1
1
1
1
1
1
1
1
1
1
1
1
1
1
1
1
1
1
1
1
1
1
1
1
1
1
1
1
1
1
1
1
1
1
1
1
1
1
1
1
1
1
1
1
1
1
1
1
1
1
1
1
1
1
1
1
1
1
1
1
1
1
1
1
1
1
1
1
1
1
1
1
1
1
1
1
1
1
1
1
1
1
1
1
1
1
1
1
1
1.00006
1.00279
1.04463
1.29217
2.05861
3.29483
3.61553
3.70146
3.7785
3.82502
3.77757
3.72437
3.72501
3.72392
3.68844
3.66727
3.66315
3.64384
3.60923
3.58037
3.55779
3.53648
3.51409
3.49457
3.47585
3.45409
3.43062
3.42409
3.43492
3.44312
3.43574
3.42154
3.40192
3.37689
3.35261
3.31917
3.27259
3.22606
3.18927
3.16908
3.16335
3.17513
3.20648
3.22539
3.22359
3.21125
3.19319
1
1
1
1
1
1
1
1
1
1
1
1
1
1
1
1
1
1
1
1
1
1
1
1
1
1
1
1
1
1
1
1
1
1
1
1
1
1
1
1
1
1
1
1
1
1
1
1
1
1
1
1
1
1
1
1
1
1
1
1
1
1
1
1
1
1
1
1
1
1
1
1
1
1
1
1
1
1
1
1
1
1
1
1
1
1
1
1
1
1
1
1
1
1
1
1
1
1
1
1
1
1
1
1
1
1
1
1
1
1
1
1
1
1
1
1
1
1
1
1
1
1
1
1
1
1
1
1
1
1
1.00002
1.00069
1.01557
1.16459
1.87707
3.0658
3.5022
3.70984
3.80203
3.7881
3.76662
3.75966
3.72085
3.68892
3.68292
3.68272
3.64732
3.61122
3.5883
3.5688
3.54815
3.52755
3.51018
3.49728
3.48325
3.4706
3.47448
3.4788
3.46741
3.44849
3.42568
3.39839
3.37373
3.34497
3.30456
3.26177
3.22711
3.20959
3.20383
3.21677
3.24434
3.25367
3.24783
3.23335
3.21423
3.19003
1
1
1
1
1
1
1
1
1
1
1
1
1
1
1
1
1
1
1
1
1
1
1
1
1
1
1
1
1
1
1
1
1
1
1
1
1
1
1
1
1
1
1
1
1
1
1
1
1
1
1
1
1
1
1
1
1
1
1
1
1
1
1
1
1
1
1
1
1
1
1
1
1
1
1
1
1
1
1
1
1
1
1
1
1
1
1
1
1
1
1
1
1
1
1
1
1
1
1
1
1
1
1
1
1
1
1
1
1
1
1
1
1
1
1
1
1
1
1
1
1
1
1
1
1
1
1
1
1
1
1
1
1.0002
1.00702
1.11322
1.77545
2.7993
3.36301
3.72744
3.8067
3.78295
3.72542
3.70858
3.7184
3.72627
3.69146
3.63898
3.61377
3.60132
3.58493
3.56684
3.55238
3.54215
3.53202
3.52223
3.51569
3.50347
3.48973
3.47396
3.45164
3.42359
3.39561
3.36966
3.33646
3.2986
3.26571
3.25111
3.24465
3.2575
3.27964
3.28108
3.27133
3.25541
3.23467
3.2082
3.17845
1
1
1
1
1
1
1
1
1
1
1
1
1
1
1
1
1
1
1
1
1
1
1
1
1
1
1
1
1
1
1
1
1
1
1
1
1
1
1
1
1
1
1
1
1
1
1
1
1
1
1
1
1
1
1
1
1
1
1
1
1
1
1
1
1
1
1
1
1
1
1
1
1
1
1
1
1
1
1
1
1
1
1
1
1
1
1
1
1
1
1
1
1
1
1
1
1
1
1
1
1
1
1
1
1
1
1
1
1
1
1
1
1
1
1
1
1
1
1
1
1
1
1
1
1
1
1
1
1
1
1
1
1
1.00009
1.0046
1.08882
1.56352
2.3261
3.23519
3.78361
3.7485
3.69961
3.73585
3.75763
3.74996
3.67567
3.63864
3.63497
3.62614
3.60563
3.59494
3.59217
3.58156
3.56393
3.55011
3.53239
3.50841
3.49402
3.47778
3.45106
3.42137
3.39514
3.36718
3.3356
3.30615
3.29387
3.28801
3.2975
3.31186
3.30778
3.29468
3.27751
3.25467
3.22817
3.20175
3.17228
1
1
1
1
1
1
1
1
1
1
1
1
1
1
1
1
1
1
1
1
1
1
1
1
1
1
1
1
1
1
1
1
1
1
1
1
1
1
1
1
1
1
1
1
1
1
1
1
1
1
1
1
1
1
1
1
1
1
1
1
1
1
1
1
1
1
1
1
1
1
1
1
1
1
1
1
1
1
1
1
1
1
1
1
1
1
1
1
1
1
1
1
1
1
1
1
1
1
1
1
1
1
1
1
1
1
1
1
1
1
1
1
1
1
1
1
1
1
1
1
1
1
1
1
1
1
1
1
1
1
1
1
1
1
1.00005
1.00253
1.0432
1.27871
1.96714
3.2157
3.57943
3.64522
3.72052
3.78127
3.7463
3.68359
3.68025
3.67967
3.64673
3.63116
3.63212
3.62678
3.59877
3.57686
3.5619
3.53968
3.51434
3.50071
3.48111
3.45085
3.4236
3.39758
3.37115
3.3473
3.33812
3.3328
3.33895
3.34305
3.33429
3.31876
3.29967
3.27489
3.24891
3.22493
3.19834
3.16606
1
1
1
1
1
1
1
1
1
1
1
1
1
1
1
1
1
1
1
1
1
1
1
1
1
1
1
1
1
1
1
1
1
1
1
1
1
1
1
1
1
1
1
1
1
1
1
1
1
1
1
1
1
1
1
1
1
1
1
1
1
1
1
1
1
1
1
1
1
1
1
1
1
1
1
1
1
1
1
1
1
1
1
1
1
1
1
1
1
1
1
1
1
1
1
1
1
1
1
1
1
1
1
1
1
1
1
1
1
1
1
1
1
1
1
1
1
1
1
1
1
1
1
1
1
1
1
1
1
1
1
1
1
1
1
1.00001
1.00065
1.01413
1.14143
1.80104
2.96074
3.41887
3.6547
3.76665
3.75689
3.73368
3.70963
3.67182
3.66663
3.66957
3.66745
3.63273
3.60184
3.5843
3.57159
3.54764
3.52341
3.51023
3.48426
3.45512
3.42882
3.40372
3.38733
3.38144
3.37847
3.38048
3.37527
3.36107
3.34389
3.32306
3.29639
3.27081
3.248
3.22351
3.19468
3.16143
1
1
1
1
1
1
1
1
1
1
1
1
1
1
1
1
1
1
1
1
1
1
1
1
1
1
1
1
1
1
1
1
1
1
1
1
1
1
1
1
1
1
1
1
1
1
1
1
1
1
1
1
1
1
1
1
1
1
1
1
1
1
1
1
1
1
1
1
1
1
1
1
1
1
1
1
1
1
1
1
1
1
1
1
1
1
1
1
1
1
1
1
1
1
1
1
1
1
1
1
1
1
1
1
1
1
1
1
1
1
1
1
1
1
1
1
1
1
1
1
1
1
1
1
1
1
1
1
1
1
1
1
1
1
1
1
1
1.00016
1.00566
1.09293
1.71116
2.66181
3.27489
3.6939
3.76523
3.72655
3.68112
3.70221
3.70928
3.71209
3.67125
3.62076
3.60326
3.60082
3.58299
3.5529
3.53672
3.5203
3.49083
3.46522
3.43869
3.42424
3.42327
3.42206
3.42043
3.40857
3.38876
3.36931
3.34713
3.31959
3.29452
3.27246
3.24963
3.22301
3.19243
3.166
1
1
1
1
1
1
1
1
1
1
1
1
1
1
1
1
1
1
1
1
1
1
1
1
1
1
1
1
1
1
1
1
1
1
1
1
1
1
1
1
1
1
1
1
1
1
1
1
1
1
1
1
1
1
1
1
1
1
1
1
1
1
1
1
1
1
1
1
1
1
1
1
1
1
1
1
1
1
1
1
1
1
1
1
1
1
1
1
1
1
1
1
1
1
1
1
1
1
1
1
1
1
1
1
1
1
1
1
1
1
1
1
1
1
1
1
1
1
1
1
1
1
1
1
1
1
1
1
1
1
1
1
1
1
1
1
1
1
1.00007
1.00347
1.07818
1.49782
2.17847
3.18773
3.72113
3.65991
3.68747
3.7124
3.74027
3.71615
3.64787
3.6291
3.63401
3.61324
3.58522
3.56839
3.56147
3.53479
3.50632
3.48305
3.46225
3.46095
3.45997
3.45577
3.44034
3.4167
3.39276
3.36962
3.3432
3.32014
3.29868
3.27702
3.25206
3.22392
3.20021
3.19209
1
1
1
1
1
1
1
1
1
1
1
1
1
1
1
1
1
1
1
1
1
1
1
1
1
1
1
1
1
1
1
1
1
1
1
1
1
1
1
1
1
1
1
1
1
1
1
1
1
1
1
1
1
1
1
1
1
1
1
1
1
1
1
1
1
1
1
1
1
1
1
1
1
1
1
1
1
1
1
1
1
1
1
1
1
1
1
1
1
1
1
1
1
1
1
1
1
1
1
1
1
1
1
1
1
1
1
1
1
1
1
1
1
1
1
1
1
1
1
1
1
1
1
1
1
1
1
1
1
1
1
1
1
1
1
1
1
1
1
1.00004
1.00209
1.03673
1.21946
1.89071
3.11933
3.45983
3.61492
3.73531
3.76792
3.7084
3.67893
3.67243
3.63742
3.61438
3.6048
3.60647
3.58079
3.54694
3.52871
3.51484
3.49763
3.49133
3.48659
3.47127
3.44587
3.41688
3.39062
3.36686
3.34608
3.32485
3.3042
3.28115
3.25619
3.23624
3.22968
3.23224
1
1
1
1
1
1
1
1
1
1
1
1
1
1
1
1
1
1
1
1
1
1
1
1
1
1
1
1
1
1
1
1
1
1
1
1
1
1
1
1
1
1
1
1
1
1
1
1
1
1
1
1
1
1
1
1
1
1
1
1
1
1
1
1
1
1
1
1
1
1
1
1
1
1
1
1
1
1
1
1
1
1
1
1
1
1
1
1
1
1
1
1
1
1
1
1
1
1
1
1
1
1
1
1
1
1
1
1
1
1
1
1
1
1
1
1
1
1
1
1
1
1
1
1
1
1
1
1
1
1
1
1
1
1
1
1
1
1
1
1
1.00001
1.00051
1.01026
1.11444
1.78122
2.80286
3.32735
3.67116
3.75062
3.73711
3.69986
3.65528
3.643
3.63938
3.64686
3.61581
3.57732
3.56349
3.56567
3.54764
3.52354
3.51379
3.50002
3.47624
3.44744
3.41803
3.39347
3.3737
3.35262
3.33171
3.30988
3.28833
3.27297
3.26816
3.27105
3.27814
1
1
1
1
1
1
1
1
1
1
1
1
1
1
1
1
1
1
1
1
1
1
1
1
1
1
1
1
1
1
1
1
1
1
1
1
1
1
1
1
1
1
1
1
1
1
1
1
1
1
1
1
1
1
1
1
1
1
1
1
1
1
1
1
1
1
1
1
1
1
1
1
1
1
1
1
1
1
1
1
1
1
1
1
1
1
1
1
1
1
1
1
1
1
1
1
1
1
1
1
1
1
1
1
1
1
1
1
1
1
1
1
1
1
1
1
1
1
1
1
1
1
1
1
1
1
1
1
1
1
1
1
1
1
1
1
1
1
1
1
1
1
1.00011
1.00427
1.09159
1.64091
2.37933
3.18836
3.69092
3.71701
3.6765
3.67246
3.66194
3.67015
3.64257
3.60557
3.59598
3.60306
3.58346
3.55856
3.54673
3.5346
3.50503
3.4767
3.45033
3.42235
3.40079
3.38166
3.36114
3.33999
3.32149
3.31001
3.30694
3.31052
3.31397
3.31053
1
1
1
1
1
1
1
1
1
1
1
1
1
1
1
1
1
1
1
1
1
1
1
1
1
1
1
1
1
1
1
1
1
1
1
1
1
1
1
1
1
1
1
1
1
1
1
1
1
1
1
1
1
1
1
1
1
1
1
1
1
1
1
1
1
1
1
1
1
1
1
1
1
1
1
1
1
1
1
1
1
1
1
1
1
1
1
1
1
1
1
1
1
1
1
1
1
1
1
1
1
1
1
1
1
1
1
1
1
1
1
1
1
1
1
1
1
1
1
1
1
1
1
1
1
1
1
1
1
1
1
1
1
1
1
1
1
1
1
1
1
1
1
1.00005
1.00312
1.06377
1.32157
1.95107
3.18374
3.53632
3.63236
3.6667
3.69662
3.68611
3.64562
3.64642
3.64852
3.6139
3.58554
3.57567
3.56967
3.53922
3.50522
3.48083
3.4584
3.43174
3.41116
3.39356
3.37319
3.35571
3.34586
3.34424
3.34856
3.34927
3.34112
3.33038
1
1
1
1
1
1
1
1
1
1
1
1
1
1
1
1
1
1
1
1
1
1
1
1
1
1
1
1
1
1
1
1
1
1
1
1
1
1
1
1
1
1
1
1
1
1
1
1
1
1
1
1
1
1
1
1
1
1
1
1
1
1
1
1
1
1
1
1
1
1
1
1
1
1
1
1
1
1
1
1
1
1
1
1
1
1
1
1
1
1
1
1
1
1
1
1
1
1
1
1
1
1
1
1
1
1
1
1
1
1
1
1
1
1
1
1
1
1
1
1
1
1
1
1
1
1
1
1
1
1
1
1
1
1
1
1
1
1
1
1
1
1
1
1
1.00003
1.00126
1.01795
1.13765
1.85263
2.91555
3.36324
3.62695
3.74394
3.72281
3.70756
3.67288
3.63617
3.60646
3.59337
3.59939
3.56934
3.53385
3.51214
3.49619
3.47264
3.44352
3.42867
3.41198
3.39453
3.38284
3.37705
3.38051
3.3812
3.37084
3.3565
3.34125
1
1
1
1
1
1
1
1
1
1
1
1
1
1
1
1
1
1
1
1
1
1
1
1
1
1
1
1
1
1
1
1
1
1
1
1
1
1
1
1
1
1
1
1
1
1
1
1
1
1
1
1
1
1
1
1
1
1
1
1
1
1
1
1
1
1
1
1
1
1
1
1
1
1
1
1
1
1
1
1
1
1
1
1
1
1
1
1
1
1
1
1
1
1
1
1
1
1
1
1
1
1
1
1
1
1
1
1
1
1
1
1
1
1
1
1
1
1
1
1
1
1
1
1
1
1
1
1
1
1
1
1
1
1
1
1
1
1
1
1
1
1
1
1
1
1
1.00021
1.00579
1.10467
1.73997
2.53313
3.19783
3.67583
3.74618
3.70302
3.65488
3.61924
3.59878
3.61728
3.58788
3.55875
3.54621
3.53721
3.51387
3.48727
3.47198
3.45917
3.43599
3.42275
3.41134
3.40523
3.40718
3.3995
3.38325
3.36477
3.34283
1
1
1
1
1
1
1
1
1
1
1
1
1
1
1
1
1
1
1
1
1
1
1
1
1
1
1
1
1
1
1
1
1
1
1
1
1
1
1
1
1
1
1
1
1
1
1
1
1
1
1
1
1
1
1
1
1
1
1
1
1
1
1
1
1
1
1
1
1
1
1
1
1
1
1
1
1
1
1
1
1
1
1
1
1
1
1
1
1
1
1
1
1
1
1
1
1
1
1
1
1
1
1
1
1
1
1
1
1
1
1
1
1
1
1
1
1
1
1
1
1
1
1
1
1
1
1
1
1
1
1
1
1
1
1
1
1
1
1
1
1
1
1
1
1
1
1
1.00008
1.004
1.08663
1.43325
2.04246
3.17926
3.63285
3.64641
3.65216
3.6294
3.62089
3.60916
3.58859
3.58986
3.58711
3.55467
3.53268
3.523
3.51535
3.48371
3.46021
3.45118
3.43788
3.42651
3.42284
3.41146
3.39177
3.36878
3.34149
1
1
1
1
1
1
1
1
1
1
1
1
1
1
1
1
1
1
1
1
1
1
1
1
1
1
1
1
1
1
1
1
1
1
1
1
1
1
1
1
1
1
1
1
1
1
1
1
1
1
1
1
1
1
1
1
1
1
1
1
1
1
1
1
1
1
1
1
1
1
1
1
1
1
1
1
1
1
1
1
1
1
1
1
1
1
1
1
1
1
1
1
1
1
1
1
1
1
1
1
1
1
1
1
1
1
1
1
1
1
1
1
1
1
1
1
1
1
1
1
1
1
1
1
1
1
1
1
1
1
1
1
1
1
1
1
1
1
1
1
1
1
1
1
1
1
1
1
1.00005
1.00225
1.02963
1.17263
1.86618
3.03651
3.42024
3.59024
3.67381
3.67412
3.64404
3.64172
3.62684
3.58741
3.56523
3.55854
3.55967
3.52251
3.49115
3.48821
3.48485
3.45763
3.44117
3.43464
3.41897
3.39598
3.37184
3.34291
1
1
1
1
1
1
1
1
1
1
1
1
1
1
1
1
1
1
1
1
1
1
1
1
1
1
1
1
1
1
1
1
1
1
1
1
1
1
1
1
1
1
1
1
1
1
1
1
1
1
1
1
1
1
1
1
1
1
1
1
1
1
1
1
1
1
1
1
1
1
1
1
1
1
1
1
1
1
1
1
1
1
1
1
1
1
1
1
1
1
1
1
1
1
1
1
1
1
1
1
1
1
1
1
1
1
1
1
1
1
1
1
1
1
1
1
1
1
1
1
1
1
1
1
1
1
1
1
1
1
1
1
1
1
1
1
1
1
1
1
1
1
1
1
1
1
1
1
1
1.00001
1.00037
1.00776
1.10991
1.77466
2.71899
3.23526
3.60098
3.70928
3.69708
3.64546
3.59895
3.57981
3.57498
3.59338
3.55383
3.51998
3.51568
3.51486
3.48997
3.46636
3.45762
3.44803
3.42365
3.40056
3.37613
3.34839
1
1
1
1
1
1
1
1
1
1
1
1
1
1
1
1
1
1
1
1
1
1
1
1
1
1
1
1
1
1
1
1
1
1
1
1
1
1
1
1
1
1
1
1
1
1
1
1
1
1
1
1
1
1
1
1
1
1
1
1
1
1
1
1
1
1
1
1
1
1
1
1
1
1
1
1
1
1
1
1
1
1
1
1
1
1
1
1
1
1
1
1
1
1
1
1
1
1
1
1
1
1
1
1
1
1
1
1
1
1
1
1
1
1
1
1
1
1
1
1
1
1
1
1
1
1
1
1
1
1
1
1
1
1
1
1
1
1
1
1
1
1
1
1
1
1
1
1
1
1
1
1.0001
1.00441
1.09441
1.57396
2.22547
3.08305
3.6647
3.68363
3.61826
3.60644
3.59971
3.61062
3.57507
3.54695
3.54469
3.54669
3.51764
3.49264
3.48262
3.48144
3.45852
3.42922
3.4092
3.38573
3.36688
1
1
1
1
1
1
1
1
1
1
1
1
1
1
1
1
1
1
1
1
1
1
1
1
1
1
1
1
1
1
1
1
1
1
1
1
1
1
1
1
1
1
1
1
1
1
1
1
1
1
1
1
1
1
1
1
1
1
1
1
1
1
1
1
1
1
1
1
1
1
1
1
1
1
1
1
1
1
1
1
1
1
1
1
1
1
1
1
1
1
1
1
1
1
1
1
1
1
1
1
1
1
1
1
1
1
1
1
1
1
1
1
1
1
1
1
1
1
1
1
1
1
1
1
1
1
1
1
1
1
1
1
1
1
1
1
1
1
1
1
1
1
1
1
1
1
1
1
1
1
1
1
1.00006
1.00312
1.0494
1.25195
1.85365
3.10497
3.48064
3.55264
3.60929
3.64682
3.61707
3.58106
3.58594
3.5905
3.55135
3.51682
3.5053
3.51066
3.4913
3.45778
3.44146
3.43269
3.40851
3.39839
1
1
1
1
1
1
1
1
1
1
1
1
1
1
1
1
1
1
1
1
1
1
1
1
1
1
1
1
1
1
1
1
1
1
1
1
1
1
1
1
1
1
1
1
1
1
1
1
1
1
1
1
1
1
1
1
1
1
1
1
1
1
1
1
1
1
1
1
1
1
1
1
1
1
1
1
1
1
1
1
1
1
1
1
1
1
1
1
1
1
1
1
1
1
1
1
1
1
1
1
1
1
1
1
1
1
1
1
1
1
1
1
1
1
1
1
1
1
1
1
1
1
1
1
1
1
1
1
1
1
1
1
1
1
1
1
1
1
1
1
1
1
1
1
1
1
1
1
1
1
1
1
1
1.00002
1.00079
1.01241
1.1177
1.75465
2.83046
3.28996
3.54016
3.66347
3.64596
3.6338
3.6154
3.57354
3.53751
3.5248
3.53794
3.51395
3.48244
3.47394
3.47754
3.45864
3.43273
3.42627
1
1
1
1
1
1
1
1
1
1
1
1
1
1
1
1
1
1
1
1
1
1
1
1
1
1
1
1
1
1
1
1
1
1
1
1
1
1
1
1
1
1
1
1
1
1
1
1
1
1
1
1
1
1
1
1
1
1
1
1
1
1
1
1
1
1
1
1
1
1
1
1
1
1
1
1
1
1
1
1
1
1
1
1
1
1
1
1
1
1
1
1
1
1
1
1
1
1
1
1
1
1
1
1
1
1
1
1
1
1
1
1
1
1
1
1
1
1
1
1
1
1
1
1
1
1
1
1
1
1
1
1
1
1
1
1
1
1
1
1
1
1
1
1
1
1
1
1
1
1
1
1
1
1
1
1.00014
1.00478
1.08478
1.64187
2.47591
3.07647
3.56715
3.67432
3.64136
3.58933
3.56201
3.55037
3.55711
3.53374
3.50486
3.50041
3.50705
3.49224
3.47019
3.46067
3.45781
1
1
1
1
1
1
1
1
1
1
1
1
1
1
1
1
1
1
1
1
1
1
1
1
1
1
1
1
1
1
1
1
1
1
1
1
1
1
1
1
1
1
1
1
1
1
1
1
1
1
1
1
1
1
1
1
1
1
1
1
1
1
1
1
1
1
1
1
1
1
1
1
1
1
1
1
1
1
1
1
1
1
1
1
1
1
1
1
1
1
1
1
1
1
1
1
1
1
1
1
1
1
1
1
1
1
1
1
1
1
1
1
1
1
1
1
1
1
1
1
1
1
1
1
1
1
1
1
1
1
1
1
1
1
1
1
1
1
1
1
1
1
1
1
1
1
1
1
1
1
1
1
1
1
1
1
1.00006
1.00303
1.06665
1.3952
1.95328
2.96562
3.58754
3.56924
3.5648
3.57953
3.58685
3.55895
3.52981
3.52902
3.54476
3.53167
3.50384
3.49378
3.49381
3.47488
1
1
1
1
1
1
1
1
1
1
1
1
1
1
1
1
1
1
1
1
1
1
1
1
1
1
1
1
1
1
1
1
1
1
1
1
1
1
1
1
1
1
1
1
1
1
1
1
1
1
1
1
1
1
1
1
1
1
1
1
1
1
1
1
1
1
1
1
1
1
1
1
1
1
1
1
1
1
1
1
1
1
1
1
1
1
1
1
1
1
1
1
1
1
1
1
1
1
1
1
1
1
1
1
1
1
1
1
1
1
1
1
1
1
1
1
1
1
1
1
1
1
1
1
1
1
1
1
1
1
1
1
1
1
1
1
1
1
1
1
1
1
1
1
1
1
1
1
1
1
1
1
1
1
1
1
1
1.00003
1.0016
1.02467
1.14831
1.69936
2.8929
3.30015
3.48848
3.61801
3.63846
3.58891
3.58138
3.59009
3.57405
3.53431
3.51181
3.51544
3.50302
3.46634
1
1
1
1
1
1
1
1
1
1
1
1
1
1
1
1
1
1
1
1
1
1
1
1
1
1
1
1
1
1
1
1
1
1
1
1
1
1
1
1
1
1
1
1
1
1
1
1
1
1
1
1
1
1
1
1
1
1
1
1
1
1
1
1
1
1
1
1
1
1
1
1
1
1
1
1
1
1
1
1
1
1
1
1
1
1
1
1
1
1
1
1
1
1
1
1
1
1
1
1
1
1
1
1
1
1
1
1
1
1
1
1
1
1
1
1
1
1
1
1
1
1
1
1
1
1
1
1
1
1
1
1
1
1
1
1
1
1
1
1
1
1
1
1
1
1
1
1
1
1
1
1
1
1
1
1
1
1
1.00001
1.00028
1.00592
1.07779
1.60994
2.5659
3.11306
3.50942
3.6292
3.64125
3.62243
3.59016
3.5483
3.51697
3.51728
3.51666
3.48944
3.47427
1
1
1
1
1
1
1
1
1
1
1
1
1
1
1
1
1
1
1
1
1
1
1
1
1
1
1
1
1
1
1
1
1
1
1
1
1
1
1
1
1
1
1
1
1
1
1
1
1
1
1
1
1
1
1
1
1
1
1
1
1
1
1
1
1
1
1
1
1
1
1
1
1
1
1
1
1
1
1
1
1
1
1
1
1
1
1
1
1
1
1
1
1
1
1
1
1
1
1
1
1
1
1
1
1
1
1
1
1
1
1
1
1
1
1
1
1
1
1
1
1
1
1
1
1
1
1
1
1
1
1
1
1
1
1
1
1
1
1
1
1
1
1
1
1
1
1
1
1
1
1
1
1
1
1
1
1
1
1
1
1.00006
1.00266
1.06069
1.47848
2.10912
2.88904
3.53537
3.61479
3.60535
3.57081
3.5355
3.51715
3.51765
3.51157
3.50486
3.49729
1
1
1
1
1
1
1
1
1
1
1
1
1
1
1
1
1
1
1
1
1
1
1
1
1
1
1
1
1
1
1
1
1
1
1
1
1
1
1
1
1
1
1
1
1
1
1
1
1
1
1
1
1
1
1
1
1
1
1
1
1
1
1
1
1
1
1
1
1
1
1
1
1
1
1
1
1
1
1
1
1
1
1
1
1
1
1
1
1
1
1
1
1
1
1
1
1
1
1
1
1
1
1
1
1
1
1
1
1
1
1
1
1
1
1
1
1
1
1
1
1
1
1
1
1
1
1
1
1
1
1
1
1
1
1
1
1
1
1
1
1
1
1
1
1
1
1
1
1
1
1
1
1
1
1
1
1
1
1
1
1
1.00003
1.00178
1.03825
1.21046
1.67831
2.84573
3.34963
3.50524
3.57563
3.57409
3.55571
3.55991
3.56427
3.55099
3.51612
1
1
1
1
1
1
1
1
1
1
1
1
1
1
1
1
1
1
1
1
1
1
1
1
1
1
1
1
1
1
1
1
1
1
1
1
1
1
1
1
1
1
1
1
1
1
1
1
1
1
1
1
1
1
1
1
1
1
1
1
1
1
1
1
1
1
1
1
1
1
1
1
1
1
1
1
1
1
1
1
1
1
1
1
1
1
1
1
1
1
1
1
1
1
1
1
1
1
1
1
1
1
1
1
1
1
1
1
1
1
1
1
1
1
1
1
1
1
1
1
1
1
1
1
1
1
1
1
1
1
1
1
1
1
1
1
1
1
1
1
1
1
1
1
1
1
1
1
1
1
1
1
1
1
1
1
1
1
1
1
1
1
1.00001
1.00058
1.00902
1.07618
1.56387
2.58827
3.13229
3.4586
3.61248
3.63047
3.62325
3.58248
3.54463
3.50409
1
1
1
1
1
1
1
1
1
1
1
1
1
1
1
1
1
1
1
1
1
1
1
1
1
1
1
1
1
1
1
1
1
1
1
1
1
1
1
1
1
1
1
1
1
1
1
1
1
1
1
1
1
1
1
1
1
1
1
1
1
1
1
1
1
1
1
1
1
1
1
1
1
1
1
1
1
1
1
1
1
1
1
1
1
1
1
1
1
1
1
1
1
1
1
1
1
1
1
1
1
1
1
1
1
1
1
1
1
1
1
1
1
1
1
1
1
1
1
1
1
1
1
1
1
1
1
1
1
1
1
1
1
1
1
1
1
1
1
1
1
1
1
1
1
1
1
1
1
1
1
1
1
1
1
1
1
1
1
1
1
1
1
1
1.00008
1.0025
1.05205
1.48079
2.19582
2.84319
3.48784
3.62092
3.61663
3.56907
3.51764
3.4904
1
1
1
1
1
1
1
1
1
1
1
1
1
1
1
1
1
1
1
1
1
1
1
1
1
1
1
1
1
1
1
1
1
1
1
1
1
1
1
1
1
1
1
1
1
1
1
1
1
1
1
1
1
1
1
1
1
1
1
1
1
1
1
1
1
1
1
1
1
1
1
1
1
1
1
1
1
1
1
1
1
1
1
1
1
1
1
1
1
1
1
1
1
1
1
1
1
1
1
1
1
1
1
1
1
1
1
1
1
1
1
1
1
1
1
1
1
1
1
1
1
1
1
1
1
1
1
1
1
1
1
1
1
1
1
1
1
1
1
1
1
1
1
1
1
1
1
1
1
1
1
1
1
1
1
1
1
1
1
1
1
1
1
1
1
1.00003
1.00155
1.04045
1.25118
1.6897
2.77465
3.40423
3.49244
3.55669
3.54595
3.50769
1
1
1
1
1
1
1
1
1
1
1
1
1
1
1
1
1
1
1
1
1
1
1
1
1
1
1
1
1
1
1
1
1
1
1
1
1
1
1
1
1
1
1
1
1
1
1
1
1
1
1
1
1
1
1
1
1
1
1
1
1
1
1
1
1
1
1
1
1
1
1
1
1
1
1
1
1
1
1
1
1
1
1
1
1
1
1
1
1
1
1
1
1
1
1
1
1
1
1
1
1
1
1
1
1
1
1
1
1
1
1
1
1
1
1
1
1
1
1
1
1
1
1
1
1
1
1
1
1
1
1
1
1
1
1
1
1
1
1
1
1
1
1
1
1
1
1
1
1
1
1
1
1
1
1
1
1
1
1
1
1
1
1
1
1
1
1.00001
1.00073
1.01165
1.08179
1.52193
2.58059
3.14119
3.43733
3.56548
3.58393
1
1
1
1
1
1
1
1
1
1
1
1
1
1
1
1
1
1
1
1
1
1
1
1
1
1
1
1
1
1
1
1
1
1
1
1
1
1
1
1
1
1
1
1
1
1
1
1
1
1
1
1
1
1
1
1
1
1
1
1
1
1
1
1
1
1
1
1
1
1
1
1
1
1
1
1
1
1
1
1
1
1
1
1
1
1
1
1
1
1
1
1
1
1
1
1
1
1
1
1
1
1
1
1
1
1
1
1
1
1
1
1
1
1
1
1
1
1
1
1
1
1
1
1
1
1
1
1
1
1
1
1
1
1
1
1
1
1
1
1
1
1
1
1
1
1
1
1
1
1
1
1
1
1
1
1
1
1
1
1
1
1
1
1
1
1
1
1
1.0001
1.00258
1.04566
1.4393
2.27845
2.8547
3.39127
3.5999
1
1
1
1
1
1
1
1
1
1
1
1
1
1
1
1
1
1
1
1
1
1
1
1
1
1
1
1
1
1
1
1
1
1
1
1
1
1
1
1
1
1
1
1
1
1
1
1
1
1
1
1
1
1
1
1
1
1
1
1
1
1
1
1
1
1
1
1
1
1
1
1
1
1
1
1
1
1
1
1
1
1
1
1
1
1
1
1
1
1
1
1
1
1
1
1
1
1
1
1
1
1
1
1
1
1
1
1
1
1
1
1
1
1
1
1
1
1
1
1
1
1
1
1
1
1
1
1
1
1
1
1
1
1
1
1
1
1
1
1
1
1
1
1
1
1
1
1
1
1
1
1
1
1
1
1
1
1
1
1
1
1
1
1
1
1
1
1
1
1.00002
1.0013
1.03613
1.28904
1.74912
2.60841
3.46037
1
1
1
1
1
1
1
1
1
1
1
1
1
1
1
1
1
1
1
1
1
1
1
1
1
1
1
1
1
1
1
1
1
1
1
1
1
1
1
1
1
1
1
1
1
1
1
1
1
1
1
1
1
1
1
1
1
1
1
1
1
1
1
1
1
1
1
1
1
1
1
1
1
1
1
1
1
1
1
1
1
1
1
1
1
1
1
1
1
1
1
1
1
1
1
1
1
1
1
1
1
1
1
1
1
1
1
1
1
1
1
1
1
1
1
1
1
1
1
1
1
1
1
1
1
1
1
1
1
1
1
1
1
1
1
1
1
1
1
1
1
1
1
1
1
1
1
1
1
1
1
1
1
1
1
1
1
1
1
1
1
1
1
1
1
1
1
1
1
1
1.00001
1.00075
1.01433
1.09544
1.46076
2.54054
1
1
1
1
1
1
1
1
1
1
1
1
1
1
1
1
1
1
1
1
1
1
1
1
1
1
1
1
1
1
1
1
1
1
1
1
1
1
1
1
1
1
1
1
1
1
1
1
1
1
1
1
1
1
1
1
1
1
1
1
1
1
1
1
1
1
1
1
1
1
1
1
1
1
1
1
1
1
1
1
1
1
1
1
1
1
1
1
1
1
1
1
1
1
1
1
1
1
1
1
1
1
1
1
1
1
1
1
1
1
1
1
1
1
1
1
1
1
1
1
1
1
1
1
1
1
1
1
1
1
1
1
1
1
1
1
1
1
1
1
1
1
1
1
1
1
1
1
1
1
1
1
1
1
1
1
1
1
1
1
1
1
1
1
1
1
1
1
1
1
1
1
1.00012
1.00283
1.04016
1.36021
1
1
1
1
1
1
1
1
1
1
1
1
1
1
1
1
1
1
1
1
1
1
1
1
1
1
1
1
1
1
1
1
1
1
1
1
1
1
1
1
1
1
1
1
1
1
1
1
1
1
1
1
1
1
1
1
1
1
1
1
1
1
1
1
1
1
1
1
1
1
1
1
1
1
1
1
1
1
1
1
1
1
1
1
1
1
1
1
1
1
1
1
1
1
1
1
1
1
1
1
1
1
1
1
1
1
1
1
1
1
1
1
1
1
1
1
1
1
1
1
1
1
1
1
1
1
1
1
1
1
1
1
1
1
1
1
1
1
1
1
1
1
1
1
1
1
1
1
1
1
1
1
1
1
1
1
1
1
1
1
1
1
1
1
1
1
1
1
1
1
1
1
1
1.00002
1.00102
1.02618
1
1
1
1
1