/*--------------------------------*- C++ -*----------------------------------*\
  =========                 |
  \\      /  F ield         | OpenFOAM: The Open Source CFD Toolbox
   \\    /   O peration     | Website:  https://openfoam.org
    \\  /    A nd           | Version:  7
     \\/     M anipulation  |
\*---------------------------------------------------------------------------*/
FoamFile
{
    version     2.0;
    format      ascii;
    class       volScalarField;
    location    "0.9";
    object      p;
}
// * * * * * * * * * * * * * * * * * * * * * * * * * * * * * * * * * * * * * //

dimensions      [1 -1 -2 0 0 0 0];

internalField   nonuniform List<scalar> 
16512
(
2.14201
2.13356
2.13268
2.14396
2.18754
2.23652
2.24429
2.2353
2.21013
2.15483
2.08418
2.05477
2.04875
2.0496
2.06738
2.10101
2.11071
2.10524
2.09054
2.05969
2.01737
1.99594
1.99268
1.99261
1.99486
1.99292
1.98906
1.98447
1.97717
1.96357
1.94732
1.94152
1.94085
1.94103
1.93836
1.93137
1.91647
1.89659
1.87692
1.86241
1.85843
1.85675
1.85335
1.84915
1.84481
1.8456
1.86434
2.00698
2.38975
2.73581
3.15184
3.39362
3.41877
3.40082
3.35452
3.33478
3.29726
3.27091
3.26589
3.25278
3.23552
3.21828
3.17958
3.12226
3.09126
3.08648
3.08624
3.09829
3.10407
3.09351
3.08237
3.06566
3.02391
2.9493
2.88778
2.86933
2.86796
2.88535
2.93215
2.95574
2.95019
2.93478
2.90519
2.84656
2.74362
2.66248
2.62985
2.6217
2.6246
2.66036
2.72994
2.76779
2.76419
2.74955
2.72743
2.69527
2.63175
2.5225
2.43997
2.41328
2.40981
2.41405
2.44884
2.51697
2.54552
2.53863
2.52385
2.49444
2.42778
2.32835
2.27808
2.26691
2.26653
2.27975
2.31774
2.34463
2.34215
2.33049
2.30711
2.26973
2.22452
2.19856
2.19372
2.19386
2.19219
2.18779
2.17827
2.15267
2.12327
2.11364
2.10448
2.0944
2.08925
2.08705
2.08215
2.07483
2.06585
2.05059
2.01931
1.98788
1.97549
1.97232
1.97004
1.96704
1.96245
1.95719
1.9521
1.94578
1.93462
1.91128
1.89404
1.88771
1.8822
1.87622
1.87002
1.86251
1.84986
1.82295
1.79235
1.78249
1.78077
1.78057
1.78561
1.78743
1.78429
1.78115
1.77683
1.77075
1.75923
1.73157
1.68362
1.65335
1.64882
1.64767
1.65472
1.6761
1.6848
1.68173
1.67814
1.67418
1.66825
1.65386
1.62356
1.5928
1.5835
1.58192
1.58587
1.59839
1.60205
1.59736
1.58998
1.57649
1.54769
1.50456
1.48266
1.48063
1.48017
1.48695
1.50017
1.50244
1.5
1.49676
1.49344
1.48928
1.47908
1.45849
1.44841
1.4476
1.44857
1.45167
1.44965
1.44505
1.44012
1.43354
1.42171
1.39908
1.36408
1.33992
1.33644
1.33727
1.34654
1.37029
1.38478
1.38319
1.37979
1.37625
1.37168
1.36352
1.3452
1.31739
1.29814
1.29519
1.29499
1.30036
1.30712
1.30706
1.30611
1.3068
1.30733
1.30234
1.30168
1.31223
1.34936
1.43881
1.59569
1.8688
2.18511
2.52683
2.84738
3.15549
3.25884
3.25148
3.27054
3.32722
3.35207
3.33264
3.28817
3.26587
2.15296
2.15221
2.16421
2.20946
2.26081
2.26983
2.2614
2.23676
2.18146
2.10769
2.07615
2.06956
2.06993
2.0862
2.12084
2.13365
2.12892
2.11482
2.08468
2.04004
2.0153
2.01115
2.01079
2.0126
2.01088
2.00731
2.00288
1.99609
1.98409
1.9698
1.96467
1.96412
1.96396
1.96015
1.94955
1.93169
1.91171
1.89478
1.88467
1.88266
1.88349
1.88266
1.87898
1.86636
1.85
1.84636
1.84768
1.86609
1.98205
2.22554
2.64567
3.19517
3.30636
3.34219
3.35387
3.33701
3.3073
3.3043
3.30416
3.27949
3.25169
3.22044
3.17311
3.13484
3.12681
3.12632
3.13455
3.1438
3.13469
3.12324
3.10738
3.06691
2.99493
2.93112
2.90963
2.90765
2.92236
2.96552
2.98594
2.9793
2.96466
2.93681
2.87927
2.77681
2.69894
2.66887
2.66213
2.66814
2.71055
2.77649
2.80085
2.79332
2.77542
2.7508
2.71652
2.65363
2.55245
2.47402
2.44582
2.44208
2.44548
2.47625
2.54108
2.57348
2.56762
2.55339
2.52562
2.46505
2.36709
2.31159
2.29875
2.29788
2.30953
2.34752
2.37622
2.37453
2.36262
2.33726
2.29793
2.25441
2.22711
2.22085
2.22071
2.22129
2.21815
2.2114
2.1905
2.1531
2.13507
2.12919
2.119
2.11127
2.10786
2.10482
2.09786
2.08973
2.07796
2.05347
2.01808
2.0003
1.99649
1.99445
1.99237
1.9883
1.98421
1.97986
1.97466
1.96668
1.94475
1.91811
1.90763
1.90221
1.89671
1.89071
1.88378
1.87383
1.85214
1.81994
1.80431
1.80227
1.80143
1.80461
1.80532
1.8019
1.79923
1.79536
1.7898
1.7807
1.75855
1.71533
1.67772
1.66895
1.66737
1.67073
1.68984
1.7042
1.70213
1.69829
1.69442
1.68904
1.67742
1.65006
1.61532
1.60121
1.59937
1.60129
1.61185
1.61707
1.61307
1.60637
1.59614
1.57385
1.53274
1.50178
1.49706
1.49605
1.49898
1.51279
1.51986
1.51742
1.51432
1.51116
1.50729
1.50074
1.48558
1.46862
1.46567
1.46463
1.46478
1.46208
1.45685
1.45135
1.44563
1.43682
1.41857
1.38763
1.3612
1.35482
1.35481
1.3599
1.37862
1.39681
1.3972
1.39397
1.39034
1.38596
1.37881
1.36381
1.33787
1.31602
1.31251
1.31349
1.31951
1.32918
1.33921
1.35634
1.38838
1.43573
1.49306
1.55262
1.63606
1.75365
1.92877
2.20099
2.51344
2.78182
3.03489
3.26878
3.40061
3.37983
3.34406
3.34704
3.37308
3.37124
3.3432
3.29662
3.27678
3.28278
2.17244
2.18513
2.23208
2.28549
2.2954
2.28732
2.26336
2.20879
2.13201
2.09728
2.0902
2.0902
2.10521
2.14131
2.1563
2.15199
2.13946
2.11076
2.064
2.03516
2.0292
2.02841
2.02971
2.02869
2.02554
2.02145
2.0154
2.00527
1.99346
1.98918
1.98857
1.98739
1.98139
1.96644
1.94571
1.9259
1.91214
1.90598
1.90518
1.90714
1.90633
1.9028
1.88961
1.86891
1.85778
1.855
1.85354
1.8563
1.86914
1.93534
2.12499
2.61845
3.00677
3.1824
3.3058
3.34421
3.35336
3.36259
3.34445
3.29746
3.26011
3.22027
3.18551
3.17093
3.1693
3.17429
3.18482
3.17684
3.164
3.15002
3.11298
3.04153
2.97317
2.94857
2.94583
2.95754
2.99595
3.01407
3.0066
2.99193
2.96546
2.9114
2.81333
2.73686
2.70733
2.70186
2.71147
2.76039
2.82053
2.83311
2.82205
2.80145
2.77444
2.73684
2.67388
2.58221
2.50983
2.48009
2.47581
2.47849
2.5052
2.56548
2.60098
2.59663
2.58314
2.55717
2.50288
2.4079
2.34668
2.33144
2.33026
2.33971
2.3763
2.40715
2.40672
2.39553
2.36983
2.32693
2.28316
2.25788
2.24992
2.24776
2.24808
2.24568
2.2407
2.22458
2.18817
2.15701
2.1512
2.14478
2.13497
2.12951
2.12714
2.12175
2.11361
2.10334
2.08575
2.05395
2.02699
2.02094
2.01822
2.01727
2.01562
2.01118
2.00718
2.00232
1.99436
1.97403
1.94418
1.92858
1.92271
1.91721
1.9116
1.90536
1.89691
1.88119
1.85048
1.82714
1.82381
1.82255
1.82406
1.82392
1.81989
1.8171
1.81359
1.8085
1.8007
1.78309
1.74637
1.704
1.68941
1.68762
1.68851
1.70323
1.72253
1.72293
1.71873
1.71476
1.70981
1.70035
1.6763
1.63969
1.61941
1.61666
1.61698
1.62495
1.63157
1.62845
1.62218
1.61406
1.59784
1.56392
1.52548
1.51382
1.51246
1.51231
1.52164
1.53577
1.53607
1.53252
1.52908
1.52576
1.52104
1.51187
1.49597
1.48263
1.47874
1.47677
1.47416
1.46953
1.46369
1.45739
1.45008
1.43696
1.41152
1.38276
1.37273
1.37242
1.37497
1.3881
1.40683
1.41035
1.4077
1.4048
1.4012
1.39545
1.38357
1.36131
1.34494
1.34727
1.36205
1.3951
1.45131
1.52194
1.6107
1.71776
1.8371
1.94644
2.05254
2.145
2.2648
2.45661
2.70205
2.89325
3.10038
3.2922
3.45464
3.47364
3.42736
3.39802
3.40437
3.41116
3.39925
3.35845
3.30674
3.29472
3.30383
3.32136
2.20692
2.25571
2.31076
2.32114
2.3131
2.28972
2.2364
2.15667
2.11834
2.11034
2.11006
2.12335
2.16031
2.17965
2.1757
2.16355
2.13656
2.0888
2.05495
2.0473
2.04621
2.04674
2.04645
2.04376
2.04027
2.03509
2.0271
2.01825
2.01484
2.01398
2.01151
2.00211
1.98254
1.95846
1.93988
1.92949
1.92608
1.9271
1.93101
1.92971
1.92473
1.90894
1.8865
1.874
1.87043
1.86978
1.86955
1.86562
1.86744
1.87207
1.9025
2.06354
2.47158
2.79587
3.11293
3.30708
3.35536
3.35689
3.35433
3.32104
3.2673
3.23383
3.2194
3.21267
3.21558
3.22526
3.21982
3.20277
3.1886
3.15851
3.09267
3.01716
2.98748
2.98302
2.99067
3.0251
3.04218
3.0343
3.01963
2.99328
2.94154
2.85043
2.77671
2.74665
2.7421
2.75515
2.80837
2.86155
2.86503
2.85022
2.82676
2.79699
2.75494
2.69293
2.61348
2.54895
2.51729
2.51241
2.5141
2.5371
2.59186
2.62835
2.62539
2.61272
2.58879
2.54042
2.45063
2.3831
2.3646
2.36308
2.37048
2.40443
2.43695
2.43816
2.42822
2.40294
2.35823
2.31141
2.2888
2.28092
2.27626
2.2743
2.27184
2.26725
2.25531
2.22289
2.18347
2.17157
2.16855
2.1603
2.1529
2.14982
2.14602
2.13873
2.12932
2.11474
2.08774
2.05909
2.04806
2.04334
2.04071
2.04026
2.03827
2.03377
2.02862
2.02098
2.00227
1.97024
1.94945
1.94379
1.93859
1.93235
1.92603
1.91898
1.9084
1.88466
1.85278
1.84494
1.8432
1.84379
1.84299
1.83856
1.83546
1.83185
1.82697
1.8202
1.80642
1.77568
1.73178
1.71054
1.70802
1.70764
1.7177
1.73918
1.74384
1.73978
1.73555
1.73083
1.7228
1.70208
1.66536
1.63851
1.63396
1.63322
1.63841
1.64542
1.64354
1.63792
1.63101
1.61947
1.59357
1.55302
1.53217
1.52977
1.52829
1.531
1.54608
1.5543
1.55192
1.54869
1.54575
1.54186
1.53605
1.52574
1.50868
1.49311
1.48816
1.48502
1.48116
1.47613
1.47013
1.46314
1.45312
1.43427
1.40655
1.39078
1.38949
1.39007
1.39853
1.41682
1.42376
1.42235
1.42172
1.42289
1.42525
1.42648
1.43809
1.46293
1.51522
1.60463
1.71178
1.83813
1.98505
2.11397
2.22207
2.33398
2.42142
2.46192
2.51554
2.62417
2.75947
2.89505
3.08408
3.26126
3.43776
3.4756
3.46457
3.46544
3.4604
3.46158
3.45871
3.43389
3.38174
3.33682
3.32711
3.33272
3.3473
3.34404
2.28022
2.33666
2.34699
2.33885
2.3159
2.26383
2.18194
2.1395
2.13025
2.12971
2.14107
2.17768
2.20207
2.19956
2.18879
2.16367
2.11557
2.07434
2.06389
2.06281
2.06385
2.06502
2.06254
2.05958
2.05542
2.04957
2.0438
2.04121
2.04015
2.03634
2.02272
1.99816
1.97062
1.95416
1.94657
1.94466
1.94848
1.95506
1.95382
1.94766
1.92925
1.90312
1.88801
1.88478
1.88396
1.88882
1.88942
1.88435
1.87794
1.8677
1.85155
1.8684
2.00831
2.27838
2.68005
3.15783
3.26844
3.34293
3.37315
3.34831
3.28702
3.25647
3.25465
3.26072
3.26934
3.26417
3.24077
3.22301
3.19806
3.14466
3.06622
3.02917
3.02142
3.02396
3.05252
3.07074
3.06297
3.04848
3.02263
2.9732
2.88859
2.81793
2.78737
2.78372
2.79959
2.85352
2.89773
2.8964
2.87909
2.85286
2.81713
2.76921
2.71186
2.64945
2.59305
2.55808
2.55201
2.55291
2.57255
2.62147
2.65558
2.65336
2.64118
2.61907
2.5767
2.49437
2.42133
2.39841
2.39636
2.4017
2.43303
2.46707
2.46908
2.46013
2.43618
2.39021
2.33954
2.31779
2.31252
2.30653
2.30125
2.29816
2.29372
2.28464
2.25734
2.21335
2.19039
2.18873
2.18581
2.17764
2.17267
2.17037
2.16444
2.15595
2.14441
2.12245
2.08975
2.07671
2.07094
2.06557
2.0631
2.06214
2.05899
2.05404
2.04662
2.03062
1.99898
1.97105
1.96432
1.9603
1.95463
1.94787
1.94048
1.93202
1.91753
1.88634
1.86631
1.86354
1.86297
1.86204
1.85758
1.8543
1.85076
1.84582
1.83953
1.82889
1.80373
1.76069
1.73267
1.72846
1.72724
1.73363
1.75464
1.76453
1.76126
1.75688
1.75237
1.74539
1.72797
1.6927
1.65919
1.65083
1.64964
1.65251
1.65917
1.65826
1.65344
1.64775
1.63935
1.62048
1.58357
1.5528
1.5475
1.54539
1.5448
1.55354
1.5698
1.57184
1.56893
1.56643
1.56398
1.55996
1.55369
1.54047
1.51486
1.49981
1.49619
1.49262
1.48805
1.48269
1.47652
1.46817
1.45368
1.43057
1.4108
1.40804
1.40757
1.41206
1.42965
1.44717
1.45741
1.47349
1.50731
1.5633
1.64283
1.73663
1.84319
1.97198
2.09814
2.23562
2.34944
2.46232
2.5169
2.56197
2.61814
2.68708
2.70758
2.74633
2.8244
2.95299
3.09169
3.23461
3.40483
3.44929
3.46822
3.49303
3.5028
3.50795
3.50749
3.49279
3.45479
3.40815
3.37526
3.3688
3.37553
3.37836
3.36792
3.33911
2.36281
2.37298
2.36459
2.34195
2.2911
2.20764
2.16068
2.15019
2.14935
2.15877
2.1942
2.22363
2.22309
2.21404
2.19105
2.14446
2.09567
2.08074
2.07887
2.07831
2.08313
2.083
2.07991
2.07683
2.07308
2.06983
2.06816
2.06668
2.06118
2.04335
2.01333
1.98318
1.96867
1.96302
1.96215
1.96936
1.97921
1.97826
1.97114
1.95093
1.92085
1.9021
1.89814
1.89709
1.90264
1.91023
1.90826
1.90283
1.89025
1.86336
1.84302
1.84151
1.85496
1.94415
2.17984
2.72748
3.05647
3.25271
3.36412
3.34454
3.28017
3.27388
3.30225
3.33355
3.32864
3.28851
3.25631
3.22939
3.18782
3.11707
3.07459
3.06274
3.06061
3.08138
3.09869
3.09205
3.07876
3.05325
3.0062
2.92867
2.86255
2.83186
2.8288
2.84692
2.89781
2.92851
2.92337
2.90537
2.87799
2.83642
2.78511
2.73691
2.6915
2.64256
2.6039
2.59576
2.59565
2.6122
2.65463
2.68304
2.67985
2.6679
2.64742
2.61045
2.53761
2.46168
2.43287
2.42989
2.43337
2.46163
2.49807
2.50125
2.49213
2.46901
2.42295
2.36795
2.34402
2.34023
2.33793
2.33024
2.32508
2.32029
2.31299
2.29249
2.24898
2.21316
2.20733
2.20703
2.20419
2.19725
2.19378
2.18989
2.18269
2.17318
2.15781
2.12675
2.10296
2.09752
2.09178
2.08737
2.08453
2.0814
2.07725
2.07094
2.05832
2.02964
1.996
1.98477
1.98209
1.97747
1.97155
1.96455
1.9563
1.94575
1.92478
1.89262
1.88331
1.88167
1.88082
1.87678
1.87335
1.87014
1.8655
1.85964
1.85079
1.83055
1.79108
1.75658
1.7488
1.74723
1.75058
1.76974
1.78482
1.78301
1.77873
1.77442
1.76833
1.75387
1.7211
1.68163
1.66767
1.66605
1.66697
1.67305
1.67317
1.66904
1.66433
1.65801
1.64496
1.61488
1.57744
1.56489
1.56267
1.56091
1.56393
1.58051
1.59187
1.59007
1.58746
1.58552
1.58293
1.57824
1.56679
1.54245
1.51582
1.50698
1.50412
1.50043
1.49555
1.49005
1.48355
1.47349
1.45407
1.43451
1.43349
1.43914
1.45455
1.48954
1.55086
1.62987
1.73196
1.86183
2.00929
2.14235
2.26734
2.36851
2.45822
2.52621
2.59716
2.69127
2.71276
2.69435
2.6881
2.70563
2.73588
2.7504
2.79316
2.89544
3.04343
3.22109
3.34903
3.42361
3.46503
3.51024
3.54269
3.55564
3.55622
3.5445
3.51187
3.47097
3.43297
3.41243
3.41072
3.41742
3.41219
3.39442
3.35869
3.31636
2.39909
2.39042
2.36785
2.31781
2.23293
2.1824
2.17047
2.16935
2.17685
2.2105
2.24447
2.24663
2.23875
2.21839
2.17438
2.11888
2.09827
2.09542
2.09387
2.0959
2.10327
2.10308
2.10019
2.09791
2.09629
2.09524
2.09314
2.0857
2.06393
2.02809
1.99613
1.98312
1.97892
1.97905
1.98978
2.00332
2.0029
1.99527
1.97342
1.93959
1.91712
1.91189
1.91077
1.91591
1.92816
1.92911
1.92482
1.91431
1.88907
1.85643
1.8448
1.84362
1.84641
1.86051
1.92619
2.18973
2.63005
2.93885
3.24322
3.3096
3.27736
3.30036
3.34059
3.37236
3.35016
3.30447
3.26521
3.21933
3.15808
3.11557
3.10095
3.09859
3.11629
3.12906
3.12217
3.11025
3.08611
3.04093
2.9706
2.91067
2.88157
2.8793
2.90035
2.9465
2.96154
2.94914
2.92584
2.89329
2.8482
2.8035
2.76889
2.73534
2.6937
2.65426
2.64446
2.64384
2.6579
2.69135
2.7102
2.70524
2.69313
2.67357
2.6412
2.57883
2.50337
2.4684
2.4638
2.46547
2.49025
2.5288
2.5345
2.52517
2.50161
2.45538
2.39749
2.37015
2.36494
2.36539
2.36084
2.35349
2.3476
2.34063
2.3261
2.28882
2.2429
2.22854
2.22617
2.22761
2.22479
2.21877
2.21508
2.20937
2.20151
2.18991
2.16598
2.13526
2.12314
2.11672
2.11238
2.10831
2.10345
2.09883
2.09336
2.08393
2.06082
2.02473
2.00599
2.00357
2.0003
1.99558
1.98992
1.98301
1.97455
1.96066
1.92933
1.90381
1.89989
1.89863
1.89573
1.8925
1.88986
1.8857
1.8804
1.87303
1.85744
1.82283
1.78221
1.76879
1.76702
1.76828
1.78477
1.80466
1.80513
1.80099
1.79693
1.79158
1.77978
1.75027
1.70634
1.6852
1.68253
1.6821
1.68693
1.68849
1.68503
1.68112
1.67617
1.66723
1.64458
1.60579
1.58276
1.57977
1.57767
1.57785
1.58915
1.60898
1.61207
1.60881
1.60686
1.60479
1.60126
1.59169
1.567
1.53697
1.52083
1.51628
1.51322
1.50966
1.50606
1.50249
1.49694
1.48963
1.49373
1.51506
1.5679
1.65945
1.77894
1.93304
2.10784
2.2612
2.4122
2.55183
2.65732
2.696
2.6923
2.69883
2.71821
2.71043
2.7041
2.71298
2.7341
2.76466
2.80058
2.82029
2.84561
2.90084
3.01693
3.18918
3.3485
3.45955
3.54227
3.59396
3.60929
3.61467
3.60921
3.59096
3.55698
3.52297
3.48975
3.45827
3.44861
3.45086
3.44984
3.43696
3.41682
3.38695
3.35186
3.33592
2.4164
2.3938
2.34405
2.25803
2.20479
2.19144
2.18997
2.19582
2.22736
2.26508
2.27026
2.26345
2.24572
2.20511
2.14434
2.1165
2.11213
2.11004
2.11027
2.11857
2.12705
2.12626
2.12417
2.12321
2.12215
2.11952
2.10994
2.08419
2.04239
2.00941
1.99749
1.99424
1.99538
2.00981
2.02732
2.02768
2.01966
1.99667
1.95919
1.93271
1.9261
1.92501
1.92979
1.94517
1.94965
1.94586
1.93599
1.91261
1.87812
1.85901
1.85547
1.85466
1.85673
1.86284
1.87208
1.92265
2.12821
2.40615
2.83992
3.17381
3.21677
3.29471
3.36803
3.3841
3.3492
3.30228
3.25994
3.20037
3.14785
3.1289
3.12809
3.15174
3.16661
3.15836
3.14468
3.12065
3.07692
3.01264
2.95929
2.93392
2.93407
2.95922
2.9976
2.99997
2.98169
2.94881
2.90284
2.85389
2.82002
2.79571
2.77015
2.73813
2.70511
2.69601
2.69685
2.7108
2.73099
2.73633
2.72902
2.71708
2.69826
2.66935
2.61692
2.54673
2.50565
2.49875
2.49874
2.5197
2.55906
2.5679
2.55859
2.53469
2.48767
2.42622
2.39642
2.39002
2.3899
2.3903
2.38346
2.37669
2.36916
2.35735
2.32764
2.27915
2.25247
2.24876
2.24707
2.25002
2.24659
2.24173
2.23644
2.22981
2.22081
2.20197
2.16931
2.15067
2.14181
2.13573
2.13258
2.12744
2.12119
2.11512
2.10725
2.09076
2.05706
2.02928
2.02517
2.02269
2.0191
2.01469
2.00916
2.00223
1.9919
1.96691
1.9309
1.91817
1.91576
1.91372
1.91156
1.90985
1.90644
1.90193
1.8959
1.88423
1.8548
1.81036
1.78905
1.78637
1.78606
1.7987
1.82341
1.82798
1.82392
1.82004
1.81534
1.80591
1.7799
1.73353
1.70373
1.69896
1.69758
1.70092
1.70437
1.70157
1.69825
1.69424
1.68769
1.67183
1.63729
1.60391
1.59689
1.59472
1.59361
1.59994
1.62069
1.63289
1.63072
1.6281
1.62625
1.6238
1.61586
1.59198
1.55527
1.53689
1.5342
1.53276
1.53485
1.54347
1.56228
1.59662
1.65371
1.73998
1.85752
1.99439
2.15896
2.34118
2.49467
2.59926
2.68694
2.77933
2.88862
2.9099
2.90131
2.87673
2.85118
2.83348
2.83087
2.82422
2.80941
2.80018
2.81098
2.85056
2.90156
2.95848
3.05657
3.18844
3.36182
3.47755
3.5458
3.5978
3.65077
3.66894
3.66376
3.64463
3.61407
3.57907
3.54376
3.50852
3.4916
3.49063
3.48226
3.46668
3.45005
3.43039
3.4094
3.39569
3.38928
3.38366
2.41971
2.37
2.28291
2.22716
2.21302
2.21119
2.21585
2.24539
2.28593
2.29426
2.28834
2.27269
2.23579
2.17243
2.1357
2.12873
2.12644
2.12576
2.1337
2.14924
2.15358
2.1514
2.14995
2.14882
2.14572
2.1338
2.10421
2.0566
2.02284
2.01176
2.009
2.01123
2.02925
2.05109
2.05259
2.04438
2.0206
1.97985
1.94912
1.94096
1.93976
1.94422
1.96186
1.97031
1.96716
1.95764
1.93468
1.89874
1.87665
1.8722
1.8714
1.87693
1.87844
1.87467
1.87082
1.86159
1.88482
1.98951
2.25574
2.77629
3.05458
3.2376
3.37251
3.38231
3.35249
3.3157
3.26273
3.19214
3.15891
3.15321
3.17571
3.20304
3.19864
3.18174
3.15621
3.1164
3.05905
3.00943
2.98616
2.98704
3.01221
3.04184
3.03669
3.01409
2.97728
2.91778
2.8615
2.83518
2.81613
2.79578
2.77315
2.75201
2.7468
2.75202
2.76422
2.76707
2.76066
2.75082
2.73847
2.72133
2.69586
2.65241
2.59035
2.54546
2.53509
2.53414
2.55125
2.58972
2.60097
2.59186
2.56764
2.5201
2.45512
2.42224
2.41482
2.41399
2.41843
2.41377
2.40694
2.39963
2.38928
2.36541
2.31845
2.27967
2.27257
2.26962
2.27073
2.2737
2.26946
2.26466
2.2586
2.2511
2.23726
2.20391
2.17521
2.16693
2.15958
2.15524
2.15177
2.14537
2.13832
2.13056
2.11821
2.09009
2.05611
2.04707
2.04509
2.0421
2.03849
2.034
2.02812
2.01973
2.00091
1.96378
1.93779
1.93329
1.93075
1.92974
1.93003
1.92776
1.92418
1.91955
1.91111
1.88699
1.84123
1.80987
1.80508
1.8036
1.81174
1.83898
1.85141
1.84788
1.84382
1.8397
1.83211
1.80939
1.76281
1.72355
1.71511
1.71337
1.71485
1.72042
1.71884
1.71579
1.71243
1.70741
1.69683
1.66931
1.63047
1.61427
1.61194
1.61025
1.61296
1.63055
1.65109
1.65153
1.64894
1.64817
1.64653
1.64208
1.61923
1.5789
1.56571
1.57513
1.6051
1.65672
1.7409
1.85769
1.98975
2.13572
2.29462
2.44002
2.57405
2.69171
2.81539
2.87226
2.91449
2.95897
2.98618
2.99232
2.98694
2.94391
2.88761
2.86427
2.84707
2.82895
2.82491
2.82744
2.83623
2.8598
2.90448
2.9754
3.06949
3.18613
3.33049
3.46323
3.57994
3.58603
3.59038
3.63018
3.67715
3.69612
3.68486
3.65948
3.6204
3.57795
3.54869
3.53186
3.51368
3.48703
3.468
3.45233
3.44156
3.43343
3.43144
3.43895
3.43783
3.4254
2.39575
2.30767
2.24981
2.23491
2.23283
2.23656
2.26458
2.30734
2.31868
2.31345
2.29929
2.26604
2.20261
2.15649
2.14591
2.14345
2.14225
2.1491
2.16957
2.18134
2.17915
2.17663
2.17512
2.17162
2.15763
2.12399
2.07103
2.03658
2.02606
2.0237
2.02697
2.04828
2.07459
2.07744
2.0693
2.04527
2.00174
1.9663
1.95649
1.95513
1.95925
1.97841
1.99089
1.98852
1.9794
1.95706
1.91941
1.89385
1.88802
1.88727
1.89351
1.90089
1.89823
1.89114
1.87453
1.84883
1.8419
1.85263
1.92516
2.23836
2.70245
3.02856
3.30025
3.35794
3.3477
3.31833
3.25238
3.20344
3.18705
3.19559
3.2285
3.23368
3.22071
3.19109
3.15067
3.10157
3.0587
3.03995
3.04123
3.06233
3.07933
3.06756
3.04281
3.00118
2.93315
2.87668
2.85184
2.83712
2.82385
2.80931
2.79885
2.79895
2.80959
2.81116
2.79911
2.7827
2.77016
2.75777
2.74261
2.72109
2.68678
2.6349
2.58801
2.57365
2.5723
2.58609
2.62178
2.63361
2.62462
2.60023
2.55233
2.48413
2.44822
2.43927
2.43776
2.44469
2.44459
2.43766
2.43083
2.42159
2.40253
2.3602
2.31143
2.29639
2.29294
2.29152
2.29807
2.29771
2.29317
2.28813
2.28152
2.27062
2.2427
2.20222
2.18739
2.18238
2.17784
2.17557
2.16989
2.16293
2.1553
2.1449
2.12337
2.08742
2.06928
2.06733
2.06475
2.06155
2.05765
2.05258
2.04538
2.03118
1.99885
1.96193
1.95147
1.94826
1.94613
1.94861
1.95109
1.94788
1.94422
1.93819
1.9187
1.87399
1.83218
1.82258
1.82056
1.82429
1.85008
1.87405
1.87314
1.8687
1.8648
1.85876
1.83922
1.79367
1.7444
1.73045
1.72858
1.72928
1.7363
1.73679
1.73398
1.73099
1.72676
1.71927
1.69931
1.66116
1.63354
1.62944
1.62719
1.62756
1.63977
1.66599
1.67515
1.67338
1.67409
1.6774
1.67735
1.66816
1.6769
1.71087
1.78858
1.92577
2.09866
2.26718
2.43956
2.61197
2.73815
2.78635
2.84125
2.91191
2.97685
2.97661
2.95633
2.94947
2.96088
2.98877
3.00898
3.00486
2.98878
2.95183
2.90534
2.87965
2.85552
2.82488
2.81923
2.82513
2.85925
2.94733
3.0841
3.24334
3.36351
3.51197
3.64213
3.66548
3.6422
3.63925
3.64597
3.68479
3.73232
3.73627
3.71692
3.68195
3.64076
3.60422
3.57472
3.53382
3.49066
3.46578
3.45354
3.44726
3.44491
3.45913
3.48
3.47963
3.46845
3.45328
2.33283
2.27292
2.25722
2.25499
2.2581
2.2848
2.32922
2.34355
2.33873
2.32554
2.29513
2.2335
2.17922
2.16415
2.16134
2.15984
2.16556
2.18805
2.20789
2.20733
2.20379
2.20145
2.19713
2.18076
2.14367
2.08605
2.05103
2.04097
2.03892
2.04311
2.06744
2.09786
2.10224
2.09437
2.07053
2.02498
1.98473
1.9728
1.9712
1.97491
1.9951
2.0115
2.01005
2.00148
1.97981
1.94106
1.91132
1.90351
1.90255
1.90801
1.91936
1.91902
1.9138
1.90057
1.87114
1.84539
1.84119
1.84276
1.85416
1.94006
2.22821
2.57102
3.00679
3.2919
3.29671
3.2631
3.23292
3.21494
3.21775
3.2545
3.26793
3.26471
3.23714
3.18719
3.13903
3.10238
3.0902
3.09439
3.1128
3.11853
3.09984
3.0711
3.02095
2.94524
2.89459
2.87348
2.85956
2.85164
2.84982
2.85599
2.86242
2.86481
2.85608
2.8251
2.79995
2.78645
2.77506
2.76245
2.74581
2.72018
2.68022
2.63414
2.61529
2.61339
2.62464
2.65568
2.66532
2.65587
2.63155
2.58366
2.51297
2.47388
2.46374
2.4618
2.46859
2.47512
2.46885
2.46206
2.45416
2.43959
2.40225
2.34698
2.32043
2.31632
2.31378
2.31847
2.32638
2.32214
2.31768
2.31221
2.30341
2.2804
2.23665
2.2069
2.20188
2.19878
2.19931
2.19448
2.18779
2.18102
2.17247
2.15682
2.12273
2.0933
2.08941
2.0871
2.0841
2.0805
2.07595
2.06948
2.05818
2.03209
1.99188
1.97078
1.96686
1.964
1.96412
1.97275
1.97487
1.9713
1.96617
1.94973
1.90727
1.85586
1.83923
1.83673
1.83734
1.85704
1.89237
1.89959
1.89531
1.8911
1.88575
1.8688
1.82512
1.76685
1.74565
1.74294
1.74273
1.75109
1.75571
1.7527
1.75014
1.74659
1.74071
1.72664
1.69387
1.65747
1.6474
1.64528
1.64486
1.65503
1.68496
1.71043
1.72449
1.74775
1.79406
1.86499
1.956
2.05523
2.18358
2.35697
2.51309
2.65139
2.79316
2.93714
3.03938
3.06248
3.07877
3.09622
3.1108
3.10995
3.10425
3.09247
3.07283
3.05724
3.05432
3.04657
3.03269
3.01706
2.999
2.96947
2.93823
2.91046
2.87813
2.86813
2.88082
2.9372
3.06113
3.24899
3.42065
3.5464
3.65536
3.74146
3.74985
3.72077
3.69744
3.69818
3.72378
3.75657
3.75387
3.73632
3.71001
3.67486
3.64358
3.61463
3.56667
3.51635
3.4779
3.46036
3.45382
3.45363
3.47335
3.50303
3.50731
3.50134
3.48353
3.44119
2.29683
2.28008
2.27772
2.28054
2.30624
2.35201
2.36867
2.36414
2.35125
2.3227
2.26339
2.20321
2.18341
2.17997
2.17821
2.18277
2.20569
2.23283
2.23578
2.23152
2.22832
2.22267
2.20378
2.16317
2.10176
2.0668
2.05691
2.05516
2.06017
2.08711
2.12119
2.12717
2.11959
2.09621
2.04957
2.00405
1.9898
1.98787
1.99107
2.01163
2.03197
2.03151
2.02358
2.00264
1.96354
1.92945
1.91948
1.91832
1.9227
1.93629
1.93865
1.93405
1.92317
1.89781
1.86529
1.8516
1.84926
1.84956
1.85909
1.87828
1.94979
2.10938
2.43288
2.95777
3.1076
3.1729
3.23711
3.25797
3.28463
3.30562
3.30742
3.28892
3.23745
3.18367
3.14954
3.13791
3.14141
3.15638
3.15799
3.13485
3.09892
3.03807
2.95737
2.91356
2.89621
2.88591
2.88091
2.88874
2.91528
2.93265
2.92869
2.90273
2.85441
2.81539
2.79931
2.78968
2.77944
2.76683
2.7488
2.72056
2.68103
2.66032
2.65825
2.66812
2.69212
2.6966
2.68515
2.66035
2.61334
2.54124
2.4996
2.48835
2.48608
2.49152
2.5044
2.5009
2.4939
2.4867
2.47515
2.44384
2.38619
2.34594
2.3392
2.33608
2.33837
2.35211
2.35222
2.34723
2.34273
2.3358
2.3168
2.27407
2.23137
2.22094
2.21755
2.21902
2.22083
2.21405
2.20702
2.19975
2.18852
2.16082
2.12245
2.11119
2.10907
2.10609
2.10253
2.09825
2.09254
2.08332
2.06256
2.02427
1.99319
1.98667
1.98333
1.98208
1.99045
2.00176
2.00032
1.99559
1.9806
1.93982
1.88054
1.85608
1.85246
1.8513
1.86351
1.9029
1.92597
1.92394
1.91919
1.91377
1.8983
1.85641
1.79093
1.76125
1.75696
1.75584
1.76317
1.77435
1.7725
1.7696
1.76675
1.76242
1.7526
1.72572
1.68626
1.67065
1.67167
1.67828
1.70162
1.7611
1.85765
1.9694
2.09695
2.25784
2.43798
2.59948
2.7165
2.83082
2.92168
2.99713
3.0695
3.15103
3.21113
3.22365
3.20741
3.14815
3.11576
3.12025
3.11632
3.09534
3.08276
3.07915
3.08066
3.09363
3.109
3.09777
3.07187
3.03875
2.99169
2.94413
2.91594
2.90363
2.90768
2.94083
3.0297
3.20521
3.42354
3.58058
3.67557
3.76333
3.79249
3.77298
3.73436
3.72739
3.72986
3.75203
3.7752
3.77086
3.75276
3.72475
3.69664
3.67721
3.64834
3.60226
3.54848
3.50297
3.48827
3.48244
3.48607
3.51262
3.53763
3.53621
3.52231
3.49836
3.45791
3.40048
2.3038
2.30128
2.30404
2.32915
2.37552
2.39432
2.39
2.37689
2.34896
2.29124
2.22731
2.20364
2.19925
2.19723
2.20052
2.22248
2.25558
2.26437
2.26022
2.25589
2.24828
2.22674
2.18262
2.11818
2.08359
2.07413
2.0726
2.07851
2.10775
2.14476
2.15201
2.14472
2.1221
2.0753
2.02476
2.0074
2.00499
2.00755
2.02797
2.0518
2.05299
2.04557
2.0255
1.9865
1.94858
1.93608
1.93458
1.93801
1.95274
1.95808
1.95406
1.94454
1.92176
1.88857
1.87019
1.86717
1.8669
1.87448
1.88047
1.88318
1.88433
1.90591
1.99856
2.34127
2.75167
2.9748
3.16741
3.29742
3.33436
3.33323
3.31768
3.30166
3.24867
3.20243
3.19068
3.1878
3.19121
3.19063
3.1717
3.12996
3.05441
2.97051
2.93332
2.91916
2.91195
2.91185
2.93522
2.9789
3.00036
2.99445
2.95657
2.88845
2.83228
2.81258
2.80497
2.79696
2.78647
2.77298
2.75289
2.72381
2.70619
2.70498
2.71562
2.73154
2.72855
2.71342
2.68696
2.64028
2.56868
2.52543
2.51313
2.51064
2.51446
2.5319
2.53415
2.52716
2.52056
2.5111
2.48428
2.4272
2.37455
2.36133
2.35808
2.3585
2.37372
2.38297
2.37785
2.37329
2.36776
2.35243
2.31223
2.25941
2.23985
2.23657
2.23585
2.24358
2.24238
2.23506
2.2276
2.21869
2.19858
2.15819
2.13327
2.13045
2.12743
2.12381
2.11962
2.11432
2.10638
2.09058
2.05785
2.02028
2.00766
2.00428
2.00227
2.00889
2.02647
2.02949
2.02505
2.01073
1.97141
1.90663
1.87333
1.86771
1.86585
1.87232
1.90779
1.94854
1.95329
1.94911
1.94345
1.92861
1.88744
1.81647
1.77741
1.7705
1.76885
1.7738
1.79048
1.79313
1.79029
1.78881
1.78635
1.78037
1.76087
1.73359
1.7357
1.76549
1.83196
1.94409
2.11543
2.32552
2.56966
2.79742
2.97736
3.07875
3.1269
3.17922
3.18296
3.15174
3.14338
3.15392
3.19703
3.22687
3.24172
3.23307
3.20803
3.1792
3.16426
3.14659
3.1123
3.07507
3.06235
3.06116
3.06596
3.08814
3.10329
3.09354
3.07158
3.03497
2.98318
2.93008
2.91631
2.93576
3.0096
3.14755
3.36861
3.61144
3.71316
3.77832
3.83489
3.83709
3.8105
3.77286
3.75063
3.74788
3.7724
3.80894
3.80625
3.78682
3.75876
3.72798
3.6971
3.66231
3.62357
3.57523
3.53264
3.51731
3.51127
3.51574
3.54679
3.57847
3.57965
3.57054
3.55135
3.49789
3.41975
3.35172
2.32571
2.32852
2.3534
2.40013
2.42027
2.41614
2.4027
2.37458
2.31709
2.251
2.22467
2.21928
2.21705
2.21942
2.24
2.27675
2.29209
2.28911
2.28413
2.27444
2.25037
2.2021
2.13536
2.10176
2.09266
2.09134
2.09803
2.1293
2.16858
2.17651
2.16948
2.14778
2.1016
2.04634
2.02544
2.02242
2.0243
2.04382
2.07113
2.07413
2.06731
2.04819
2.0098
1.9682
1.95311
1.9512
1.9538
1.96879
1.97731
1.97401
1.96581
1.94524
1.91139
1.8891
1.88551
1.88533
1.89485
1.90541
1.90309
1.89583
1.88022
1.85747
1.86443
1.95563
2.27588
2.60066
2.95293
3.27199
3.31973
3.32112
3.3244
3.31978
3.27036
3.24235
3.23671
3.22604
3.21667
3.2049
3.16721
3.07666
2.98483
2.95114
2.93998
2.9357
2.94255
2.98211
3.04358
3.06761
3.0589
3.01448
2.92949
2.85025
2.825
2.8154
2.81189
2.80716
2.79707
2.78295
2.76408
2.752
2.75249
2.76396
2.76977
2.76005
2.7398
2.7117
2.66501
2.59575
2.55161
2.53782
2.53502
2.53754
2.5572
2.56854
2.56273
2.55629
2.54803
2.52407
2.46894
2.4047
2.38305
2.37971
2.37897
2.39298
2.41252
2.41037
2.40517
2.40003
2.38684
2.34899
2.28936
2.26006
2.25553
2.25385
2.26183
2.26926
2.26429
2.25712
2.24892
2.23382
2.19722
2.1586
2.15116
2.14814
2.14437
2.14012
2.13507
2.12817
2.11623
2.08987
2.05124
2.03048
2.02674
2.0244
2.0294
2.04987
2.05836
2.05412
2.03977
2.00178
1.93313
1.89069
1.88239
1.88049
1.88349
1.91171
1.96385
1.98295
1.98007
1.97431
1.96026
1.91931
1.8431
1.79367
1.78398
1.782
1.78515
1.80477
1.81782
1.81947
1.82397
1.83659
1.85653
1.89366
1.94526
2.03115
2.17045
2.36031
2.57279
2.77626
2.97554
3.15824
3.29203
3.35051
3.40205
3.41054
3.39477
3.35548
3.32833
3.31971
3.32
3.3273
3.32885
3.31291
3.2817
3.23781
3.22348
3.22527
3.21825
3.19052
3.13353
3.09948
3.09233
3.09271
3.10406
3.11021
3.10138
3.08922
3.06965
3.035
2.98528
2.97525
3.00607
3.10042
3.2689
3.52511
3.75664
3.81637
3.86376
3.89256
3.88895
3.85883
3.80941
3.78889
3.78373
3.80137
3.84287
3.84655
3.83385
3.81288
3.77324
3.71997
3.67028
3.63025
3.59649
3.56111
3.54449
3.53876
3.54634
3.58348
3.61526
3.61414
3.60632
3.58841
3.53424
3.44945
3.36868
3.32824
2.35374
2.37902
2.42577
2.44621
2.44221
2.42837
2.39948
2.34137
2.27403
2.24643
2.23986
2.23777
2.23996
2.26019
2.29883
2.31909
2.31733
2.31198
2.30016
2.27394
2.22212
2.15374
2.12106
2.11236
2.11119
2.11859
2.1517
2.19236
2.20045
2.19359
2.17276
2.12784
2.0688
2.0439
2.03996
2.04117
2.05952
2.08935
2.09503
2.0887
2.07077
2.0334
1.98861
1.97056
1.96809
1.96988
1.98464
1.99618
1.99384
1.98666
1.96855
1.93546
1.90876
1.90277
1.90229
1.9106
1.92647
1.92754
1.92231
1.90761
1.8742
1.84933
1.84758
1.85618
1.94797
2.17679
2.52626
3.07752
3.22306
3.28335
3.32419
3.32886
3.30128
3.28688
3.27831
3.24047
3.22048
3.19457
3.10732
3.00906
2.97184
2.96145
2.95966
2.97542
3.03305
3.10648
3.12867
3.11794
3.07081
2.97579
2.86997
2.84065
2.83082
2.82493
2.82208
2.82048
2.81436
2.80548
2.79969
2.80243
2.81035
2.80608
2.7881
2.76338
2.73402
2.68823
2.62388
2.57953
2.5638