/*--------------------------------*- C++ -*----------------------------------*\
  =========                 |
  \\      /  F ield         | OpenFOAM: The Open Source CFD Toolbox
   \\    /   O peration     | Website:  https://openfoam.org
    \\  /    A nd           | Version:  7
     \\/     M anipulation  |
\*---------------------------------------------------------------------------*/
FoamFile
{
    version     2.0;
    format      ascii;
    class       volScalarField;
    location    "1.8";
    object      rho;
}
// * * * * * * * * * * * * * * * * * * * * * * * * * * * * * * * * * * * * * //

dimensions      [1 -3 0 0 0 0 0];

internalField   nonuniform List<scalar> 
16192
(
2.8175
3.57733
3.97799
4.03247
4.08116
4.17188
4.25444
4.25124
4.21725
4.14816
4.06964
4.04222
4.03477
4.03751
4.02821
4.00552
3.96677
3.93098
3.91992
3.92216
3.94465
3.95162
3.93732
3.91282
3.87064
3.82551
3.80381
3.79912
3.80738
3.82063
3.81447
3.7985
3.76945
3.73141
3.70324
3.69459
3.69353
3.69902
3.69448
3.68242
3.65934
3.62856
3.60483
3.59706
3.59477
3.59818
3.59586
3.58723
3.57182
3.54801
3.52775
3.52074
3.51802
3.51955
3.51487
3.50595
3.49312
3.4717
3.44884
3.43623
3.42796
3.41889
3.40694
3.38846
3.3694
3.36058
3.35496
3.353
3.35211
3.34543
3.33694
3.32579
3.30583
3.27797
3.26183
3.25561
3.25082
3.24601
3.2396
3.23264
3.22412
3.20674
3.18387
3.16118
3.15253
3.14822
3.14661
3.14999
3.14838
3.14094
3.1327
3.12278
3.10823
3.08397
3.05762
3.04638
3.04242
3.03891
3.03315
3.02498
3.01512
3.00348
2.99016
2.97867
2.97122
2.96312
2.9535
2.94384
2.93417
2.92381
2.912
2.89798
2.88324
2.86905
2.85565
2.84404
2.83476
2.8291
2.82479
2.82197
2.8193
2.81542
2.81066
2.80497
2.79807
2.78799
2.77007
2.74026
2.70796
2.68788
2.67925
2.6742
2.66909
2.66372
2.65827
2.65272
2.64739
2.64222
2.63716
2.63331
2.62938
2.62141
2.60381
2.57734
2.55512
2.54813
2.54456
2.54197
2.54101
2.53872
2.53464
2.52945
2.52155
2.50454
2.48299
2.46726
2.4615
2.45771
2.45461
2.45232
2.44935
2.44581
2.44103
2.43265
2.42175
2.41204
2.40746
2.40334
2.39902
2.3935
2.38534
2.37036
2.34416
2.32173
2.31393
2.30995
2.30622
2.30277
2.30045
2.29993
2.30698
2.31295
2.30979
2.30488
2.29534
2.27099
2.23736
2.21956
2.21349
2.21042
2.20893
2.21097
2.22326
2.233
2.23195
2.22907
2.22456
2.21286
2.18718
2.16486
2.1567
2.15301
2.15095
2.15176
2.1602
2.16865
2.1697
2.16846
2.16654
2.16428
2.16149
2.15794
2.15013
2.13575
2.11321
2.09824
2.09519
2.0947
2.0952
2.09525
2.09489
2.09793
2.11329
2.12848
2.12841
2.12629
2.12334
2.11699
2.10053
2.06672
2.04545
2.03997
2.03828
2.0368
2.03606
2.0422
2.06169
2.07016
2.06875
2.06647
2.06083
2.04608
2.01628
1.99626
1.99036
1.98893
1.98813
1.9921
2.00707
2.01299
2.01067
2.00659
1.99947
3.91595
4.08522
4.11176
4.13893
4.22672
4.29402
4.28196
4.24356
4.1686
4.09547
4.07263
4.06677
4.07152
4.06256
4.03965
4.00131
3.96577
3.95426
3.95562
3.97412
3.9768
3.96162
3.93678
3.89655
3.85657
3.83792
3.83318
3.84024
3.84811
3.83964
3.82147
3.79089
3.75511
3.73229
3.72498
3.7251
3.72901
3.72234
3.70819
3.68228
3.65029
3.6285
3.62124
3.61948
3.62302
3.6199
3.61168
3.59689
3.57274
3.55167
3.54464
3.542
3.54514
3.54251
3.53347
3.51994
3.49715
3.47191
3.45917
3.45123
3.44259
3.43239
3.41819
3.40003
3.38916
3.3827
3.37923
3.37772
3.37123
3.36228
3.35074
3.33175
3.3054
3.28871
3.2823
3.27674
3.27035
3.26277
3.25411
3.24244
3.22258
3.19969
3.18131
3.1747
3.17088
3.17007
3.17315
3.17067
3.1636
3.15587
3.14649
3.13293
3.1096
3.08293
3.06907
3.0642
3.05951
3.05328
3.04523
3.03591
3.02492
3.01205
2.99805
2.98446
2.97416
2.96692
2.96004
2.9526
2.94436
2.93672
2.92927
2.91852
2.90005
2.87637
2.85749
2.84586
2.839
2.83337
2.82795
2.82383
2.82124
2.81844
2.81497
2.81078
2.80533
2.79718
2.78389
2.75873
2.71931
2.69425
2.68573
2.67924
2.67258
2.66666
2.66191
2.65786
2.65403
2.64956
2.64398
2.63628
2.62747
2.61446
2.59391
2.57371
2.56476
2.5606
2.55732
2.55514
2.55243
2.54828
2.54351
2.53678
2.52307
2.5016
2.48162
2.47308
2.46708
2.46144
2.45697
2.45263
2.44855
2.44433
2.43686
2.42609
2.41955
2.41739
2.4158
2.41397
2.41058
2.4052
2.39619
2.37903
2.34995
2.32522
2.31566
2.31108
2.30742
2.30422
2.30189
2.30087
2.30092
2.30194
2.29961
2.29449
2.28667
2.2725
2.25208
2.23626
2.22663
2.22128
2.21836
2.21785
2.22071
2.22148
2.22071
2.21937
2.21562
2.20588
2.18975
2.17567
2.16872
2.16474
2.16287
2.16504
2.16929
2.16789
2.16546
2.16234
2.15694
2.15188
2.15046
2.15085
2.15063
2.14783
2.13885
2.11842
2.1018
2.09693
2.09485
2.09335
2.09218
2.09166
2.09721
2.11481
2.12192
2.11992
2.11857
2.1171
2.11081
2.09104
2.05625
2.04043
2.03679
2.03516
2.03394
2.03441
2.04473
2.06232
2.06559
2.06343
2.06093
2.05314
2.03379
2.00464
1.98924
1.98448
1.98329
1.98273
1.98755
2.00117
2.00591
2.00348
1.99989
4.15081
4.16822
4.19689
4.28984
4.32949
4.30874
4.2664
4.18881
4.12335
4.10412
4.10086
4.10789
4.09858
4.07466
4.03632
4.00293
3.9915
3.99152
4.00433
4.00158
3.98568
3.9609
3.92349
3.8881
3.87198
3.86811
3.87514
3.87652
3.86517
3.84425
3.81288
3.77898
3.75987
3.7538
3.75573
3.75922
3.75116
3.73429
3.70424
3.67081
3.65075
3.644
3.64276
3.64766
3.6453
3.63641
3.61951
3.59453
3.57632
3.57022
3.56836
3.57303
3.57138
3.56257
3.54805
3.52374
3.49778
3.48506
3.47708
3.46799
3.45746
3.44378
3.42593
3.41376
3.40675
3.40221
3.40059
3.39518
3.38703
3.37688
3.35993
3.33352
3.31519
3.30848
3.30187
3.29425
3.28569
3.2761
3.26261
3.2407
3.21766
3.19809
3.19033
3.18694
3.1869
3.19243
3.191
3.18414
3.17687
3.16815
3.1558
3.13323
3.10732
3.09295
3.08828
3.08308
3.07619
3.06675
3.05491
3.04239
3.03044
3.01932
3.00808
2.99554
2.98315
2.97269
2.96257
2.95442
2.94887
2.94438
2.93991
2.93305
2.91595
2.88511
2.86265
2.85328
2.84677
2.84048
2.83471
2.83022
2.82573
2.81947
2.81254
2.8078
2.80474
2.79963
2.7896
2.76912
2.74023
2.71755
2.70213
2.69035
2.68145
2.67374
2.66563
2.65726
2.65025
2.64626
2.64365
2.63825
2.62641
2.60571
2.58538
2.57713
2.57436
2.57289
2.5717
2.56824
2.56325
2.55676
2.54723
2.53408
2.51851
2.50207
2.48955
2.48101
2.47409
2.46786
2.46232
2.4584
2.45296
2.44515
2.435
2.42749
2.42455
2.4225
2.42272
2.42155
2.41762
2.4124
2.40341
2.38361
2.35583
2.3357
2.3243
2.31652
2.31158
2.30835
2.30643
2.30434
2.30146
2.29907
2.29569
2.28858
2.27664
2.26474
2.25665
2.24943
2.24316
2.23869
2.23344
2.22757
2.22254
2.21884
2.2157
2.21195
2.20631
2.19736
2.18988
2.18533
2.18192
2.18093
2.17942
2.17561
2.17087
2.16634
2.16162
2.15422
2.14602
2.14294
2.14264
2.14628
2.15202
2.15399
2.15231
2.14314
2.11881
2.09927
2.09387
2.09173
2.09008
2.08898
2.08913
2.09746
2.11375
2.11674
2.11476
2.11335
2.11153
2.10339
2.08111
2.04913
2.03699
2.03427
2.03296
2.03239
2.0351
2.04623
2.05649
2.05622
2.05333
2.05
2.04218
2.02351
1.9971
1.98438
1.98041
1.97937
1.97908
1.98505
1.99858
2.00236
2.00008
4.21169
4.25517
4.34841
4.36471
4.33779
4.28637
4.20504
4.15427
4.13932
4.13847
4.14608
4.13582
4.11165
4.07308
4.041
4.02996
4.02879
4.03556
4.02707
4.00968
3.98333
3.94876
3.92021
3.90813
3.90576
3.91206
3.90726
3.89261
3.86726
3.83285
3.80296
3.78891
3.78388
3.78752
3.78895
3.7796
3.76064
3.72875
3.69332
3.67351
3.66715
3.66689
3.67249
3.66927
3.66085
3.64511
3.61975
3.59875
3.59257
3.59095
3.59805
3.60044
3.5925
3.57771
3.5521
3.52439
3.51131
3.50348
3.49457
3.48459
3.4716
3.45363
3.43977
3.43232
3.4266
3.42354
3.41819
3.41007
3.40035
3.38485
3.36081
3.34263
3.33593
3.32921
3.32104
3.31147
3.29975
3.28339
3.26082
3.23792
3.21819
3.21087
3.20718
3.20641
3.21044
3.20869
3.2023
3.19537
3.18724
3.17697
3.1557
3.12935
3.1126
3.10764
3.10321
3.09762
3.0909
3.08199
3.06958
3.05513
3.04112
3.02809
3.0166
3.00575
2.99141
2.9742
2.96474
2.95983
2.95648
2.95419
2.94942
2.94182
2.9257
2.90064
2.8792
2.86496
2.85624
2.85093
2.84616
2.84048
2.83391
2.82668
2.8187
2.80986
2.80066
2.79042
2.77734
2.76412
2.75178
2.74011
2.72736
2.71146
2.69434
2.6804
2.67057
2.66291
2.65525
2.647
2.64004
2.62992
2.61196
2.59358
2.58573
2.58274
2.58175
2.58287
2.5813
2.57718
2.57241
2.56553
2.552
2.53262
2.51598
2.50623
2.50126
2.49561
2.48802
2.47748
2.46323
2.45063
2.44396
2.43713
2.43304
2.43136
2.43206
2.43496
2.43349
2.42961
2.42501
2.41764
2.4021
2.37701
2.35595
2.34465
2.33692
2.32956
2.32278
2.31736
2.31294
2.30819
2.30285
2.2975
2.29124
2.28193
2.26992
2.26191
2.25939
2.25841
2.25752
2.25471
2.24881
2.2389
2.22719
2.21852
2.21074
2.20137
2.19336
2.19084
2.19113
2.19494
2.19922
2.19984
2.19585
2.18845
2.17835
2.16694
2.15441
2.14344
2.13867
2.13703
2.13733
2.14488
2.15556
2.15887
2.15786
2.15454
2.14069
2.11132
2.09518
2.09136
2.08925
2.08737
2.08613
2.08744
2.0987
2.10915
2.10834
2.10605
2.10439
2.10267
2.09553
2.07526
2.04586
2.03488
2.03262
2.03176
2.03137
2.03409
2.04274
2.04897
2.04758
2.0442
2.04126
2.03416
2.01744
1.993
1.98077
1.97712
1.97628
1.97659
1.98224
1.99055
1.99201
4.30591
4.39145
4.39562
4.36773
4.31234
4.2317
4.18807
4.17494
4.1755
4.18287
4.17134
4.1484
4.11219
4.08241
4.0714
4.06904
4.06635
4.05329
4.03429
4.00684
3.97444
3.95183
3.94277
3.94355
3.9476
3.93866
3.92138
3.89272
3.85594
3.82813
3.81668
3.81329
3.81984
3.82016
3.80894
3.78579
3.7489
3.71492
3.69854
3.69247
3.69278
3.69876
3.69505
3.68535
3.66581
3.63945
3.62271
3.61753
3.61672
3.62489
3.6284
3.62121
3.60676
3.58082
3.55278
3.53926
3.53106
3.52162
3.51094
3.49824
3.48146
3.46517
3.45665
3.4505
3.44638
3.44047
3.43205
3.42238
3.40737
3.38487
3.36671
3.36003
3.35329
3.34521
3.3355
3.32382
3.30711
3.28308
3.25713
3.23873
3.23235
3.22773
3.22592
3.22756
3.22412
3.21749
3.21109
3.20443
3.19541
3.17648
3.15165
3.13279
3.12719
3.12167
3.11464
3.10667
3.09832
3.0894
3.07894
3.06729
3.05567
3.04314
3.02857
3.0128
2.99753
2.98356
2.97224
2.9641
2.95782
2.95133
2.94416
2.93526
2.92479
2.91128
2.90003
2.8891
2.87508
2.85984
2.84699
2.83692
2.8294
2.82285
2.81603
2.80738
2.79625
2.7824
2.76792
2.75855
2.75467
2.75037
2.74366
2.73362
2.71855
2.69978
2.68441
2.67355
2.66374
2.65236
2.6361
2.61794
2.6015
2.59332
2.59028
2.58865
2.59036
2.59051
2.58711
2.58263
2.57702
2.5674
2.54981
2.53186
2.52088
2.51535
2.51051
2.50536
2.49859
2.48811
2.47021
2.44852
2.43812
2.43455
2.43247
2.43306
2.44132
2.4428
2.43972
2.43586
2.43182
2.42262
2.40049
2.37348
2.35792
2.35106
2.34526
2.33982
2.33433
2.32798
2.32094
2.31383
2.30646
2.29749
2.28431
2.27186
2.26658
2.26447
2.26455
2.26768
2.26733
2.26422
2.26008
2.2532
2.23985
2.21926
2.20065
2.19104
2.18781
2.18657
2.18796
2.19838
2.21023
2.21066
2.20735
2.20145
2.18827
2.16418
2.1446
2.1382
2.13582
2.13396
2.13415
2.14502
2.16076
2.16352
2.1622
2.15946
2.15217
2.13318
2.10463
2.09221
2.08921
2.08736
2.086
2.08547
2.08846
2.09853
2.10412
2.10267
2.10005
2.09831
2.09702
2.09041
2.07153
2.04386
2.03237
2.02991
2.02903
2.02838
2.0295
2.03566
2.04111
2.03962
2.03675
2.03505
2.02991
2.01546
1.99145
1.97766
1.97387
1.97328
1.97334
1.97614
1.98197
4.42444
4.42345
4.39547
4.34092
4.26686
4.2287
4.21781
4.21745
4.2178
4.20436
4.18316
4.1513
4.12613
4.116
4.11089
4.0999
4.08275
4.0571
4.0268
4.00059
3.98567
3.97947
3.98446
3.98531
3.97265
3.94994
3.91505
3.87831
3.85694
3.84766
3.84618
3.85411
3.85194
3.83934
3.81387
3.77496
3.7379
3.72065
3.7151
3.71761
3.7249
3.72018
3.71061
3.69149
3.66337
3.64097
3.63511
3.63487
3.64695
3.65493
3.64877
3.6346
3.60835
3.57956
3.56594
3.55863
3.55
3.54
3.52753
3.50971
3.49138
3.4816
3.47465
3.46906
3.46244
3.45398
3.4442
3.42869
3.40674
3.38842
3.38163
3.37503
3.36683
3.3575
3.34622
3.32815
3.30631
3.28364
3.26405
3.25544
3.25095
3.24952
3.24885
3.24301
3.23457
3.22571
3.21725
3.20775
3.1915
3.16953
3.15135
3.14579
3.14147
3.13588
3.12864
3.11882
3.10553
3.09205
3.08225
3.07485
3.06727
3.05752
3.04385
3.0247
3.00337
2.98869
2.98022
2.97361
2.96708
2.9583
2.94441
2.92959
2.92154
2.91785
2.91372
2.90701
2.89595
2.87759
2.85534
2.8396
2.8299
2.82283
2.81608
2.8074
2.79276
2.77459
2.76439
2.76042
2.75801
2.75642
2.75257
2.74725
2.73933
2.72579
2.70737
2.68948
2.67264
2.65153
2.62596
2.60692
2.59884
2.59564
2.59379
2.59526
2.59757
2.59598
2.59328
2.59036
2.58426
2.56778
2.54544
2.53531
2.53148
2.52746
2.52299
2.5174
2.51
2.4983
2.47653
2.45084
2.43868
2.43451
2.43171
2.42953
2.43221
2.44447
2.44413
2.43981
2.43295
2.42056
2.39749
2.37571
2.36643
2.35937
2.35215
2.34546
2.3395
2.33374
2.32763
2.32209
2.31201
2.29378
2.2772
2.27045
2.26759
2.26521
2.26646
2.27463
2.27529
2.27225
2.26832
2.26178
2.24554
2.21544
2.1948
2.18906
2.18652
2.18471
2.18814
2.20645
2.21844
2.21726
2.21382
2.20807
2.19216
2.16122
2.14097
2.13699
2.13511
2.13366
2.13556
2.14933
2.16028
2.16023
2.15812
2.15562
2.15272
2.1458
2.12723
2.10241
2.09176
2.08902
2.08769
2.08691
2.08653
2.08821
2.09395
2.09739
2.09607
2.09439
2.09286
2.09139
2.08628
2.06804
2.04001
2.02797
2.02552
2.02432
2.02323
2.02317
2.02846
2.03538
2.03489
2.03334
2.03184
2.02794
2.01514
1.98987
1.97322
1.96893
1.96748
1.96612
1.96659
4.45268
4.42688
4.37922
4.30705
4.26612
4.25622
4.25626
4.25401
4.23971
4.21984
4.19298
4.1727
4.16248
4.15189
4.13664
4.11286
4.08074
4.04833
4.02658
4.01549
4.01364
4.02337
4.02108
4.0065
3.98098
3.94196
3.90294
3.88362
3.87625
3.878
3.88799
3.88413
3.86979
3.84101
3.79794
3.76324
3.74909
3.74345
3.74629
3.75319
3.74731
3.73583
3.71174
3.68173
3.66363
3.6584
3.65781
3.66896
3.67883
3.67387
3.66103
3.63488
3.60549
3.59141
3.58463
3.57675
3.56763
3.5566
3.54087
3.52096
3.50866
3.50111
3.49401
3.48608
3.47659
3.46538
3.44908
3.42764
3.40958
3.40222
3.39439
3.38535
3.37744
3.36519
3.34613
3.32481
3.3037
3.29061
3.28467
3.27996
3.27686
3.27279
3.26566
3.25688
3.24819
3.23911
3.22617
3.20628
3.18346
3.1662
3.15989
3.15597
3.15192
3.14624
3.13929
3.12891
3.11483
3.10259
3.09343
3.0849
3.07627
3.06632
3.05229
3.03476
3.018
3.00426
2.99105
2.97738
2.96423
2.95136
2.93813
2.92942
2.92482
2.92184
2.91998
2.91513
2.90829
2.89695
2.87656
2.85085
2.8333
2.82436
2.81585
2.80233
2.785
2.7725
2.76756
2.76411
2.76264
2.76208
2.75865
2.75427
2.74912
2.74138
2.72848
2.70828
2.6802
2.65039
2.62462
2.6096
2.6043
2.6007
2.59803
2.59776
2.60365
2.60308
2.59794
2.59112
2.58015
2.56216
2.54664
2.54185
2.53872
2.5365
2.5331
2.52807
2.52125
2.50965
2.48749
2.45877
2.44215
2.43626
2.43315
2.43138
2.43141
2.43276
2.43147
2.42738
2.42139
2.41056
2.39575
2.38698
2.38065
2.37324
2.36445
2.35409
2.34379
2.33656
2.33198
2.32351
2.30841
2.28913
2.27635
2.27289
2.27067
2.26916
2.27155
2.27811
2.2791
2.27648
2.27279
2.26615
2.24731
2.21502
2.1952
2.19017
2.18735
2.18566
2.18995
2.20977
2.2228
2.2218
2.21853
2.21201
2.19394
2.16071
2.14175
2.13786
2.13604
2.13543
2.14244
2.15856
2.16494
2.16349
2.16123
2.15882
2.15564
2.15027
2.14038
2.12437
2.10311
2.09191
2.08866
2.08715
2.08552
2.08401
2.08359
2.08734
2.09225
2.09322
2.09286
2.09179
2.08943
2.08195
2.06023
2.03206
2.02132
2.01932
2.01766
2.01611
2.01583
2.0233
2.03418
2.03514
2.03389
2.0319
2.0274
2.01212
1.98255
1.96437
1.96002
1.95815
1.95661
4.46024
4.42063
4.35171
4.30136
4.28654
4.27953
4.28238
4.27664
4.26052
4.24158
4.22565
4.21279
4.19655
4.17251
4.13955
4.10208
4.07323
4.05757
4.04895
4.0525
4.06356
4.05707
4.03937
4.0089
3.96683
3.93142
3.91611
3.90963
3.91373
3.92332
3.91713
3.90094
3.87006
3.82543
3.78908
3.77461
3.76975
3.77506
3.78278
3.77582
3.76287
3.73808
3.70549
3.68086
3.67422
3.67359
3.68681
3.69951
3.69574
3.68429
3.65888
3.62963
3.61448
3.60826
3.60167
3.59352
3.58393
3.5707
3.55151
3.53592
3.52716
3.519
3.51027
3.50039
3.48872
3.472
3.45008
3.43148
3.42327
3.41497
3.40559
3.39539
3.37852
3.35908
3.34128
3.32346
3.31143
3.30587
3.30217
3.30064
3.29756
3.2908
3.28209
3.27154
3.25823
3.24109
3.22021
3.199
3.18136
3.17391
3.16962
3.16503
3.15888
3.15115
3.14086
3.12998
3.12152
3.1142
3.10585
3.09497
3.08133
3.0667
3.05282
3.04119
3.03168
3.02124
3.00711
2.9879
2.96483
2.94657
2.93831
2.93436
2.93051
2.92772
2.92528
2.92031
2.91413
2.90683
2.89438
2.87253
2.8476
2.82649
2.80889
2.79284
2.78131
2.77644
2.77298
2.7703
2.76929
2.76762
2.76326
2.75872
2.75362
2.74805
2.74017
2.72266
2.68968
2.6522
2.63033
2.61956
2.61248
2.60805
2.60533
2.60377
2.60038
2.59574
2.5907
2.58361
2.57091
2.558
2.55427
2.55157
2.54958
2.54653
2.54191
2.53645
2.52939
2.51745
2.4994
2.47908
2.4595
2.44598
2.43982
2.43596
2.43299
2.42897
2.42431
2.41732
2.40569
2.3983
2.39595
2.3945
2.39159
2.38721
2.3811
2.37226
2.35986
2.34555
2.33049
2.31559
2.30128
2.28814
2.28205
2.27874
2.27651
2.27626
2.28316
2.28737
2.28427
2.2809
2.27668
2.26759
2.24788
2.21987
2.20441
2.19791
2.19401
2.19239
2.19679
2.21133
2.21899
2.21781
2.21404
2.20792
2.19315
2.16666
2.14942
2.14403
2.1418
2.14136
2.14588
2.15455
2.15717
2.15626
2.15418
2.15128
2.14768
2.14496
2.14315
2.13817
2.12624
2.1048
2.0901
2.08548
2.08372
2.08202
2.08062
2.08041
2.0851
2.0913
2.09108
2.08936
2.08736
2.08468
2.07598
2.04982
2.02286
2.01416
2.01237
2.01087
2.00969
2.01216
2.02744
2.03872
2.03831
2.0361
2.03224
2.02346
1.99968
1.96717
1.95364
1.95075
1.94923
4.45906
4.39781
4.33696
4.31488
4.30442
4.299
4.30479
4.307
4.29469
4.28144
4.26622
4.24322
4.20827
4.16442
4.12342
4.09939
4.08638
4.08149
4.09162
4.10293
4.09355
4.07268
4.03693
3.99071
3.95826
3.94498
3.94043
3.9483
3.95704
3.94926
3.93198
3.89782
3.84972
3.81715
3.80501
3.80038
3.80675
3.81412
3.80631
3.79124
3.76242
3.72631
3.70354
3.69713
3.69576
3.70651
3.71949
3.71599
3.70496
3.67991
3.65064
3.6342
3.62844
3.62318
3.61617
3.60797
3.59747
3.58128
3.56363
3.5536
3.54514
3.53595
3.5254
3.51238
3.49446
3.47237
3.45428
3.44592
3.43734
3.42685
3.4136
3.39388
3.37264
3.35365
3.33861
3.33154
3.32758
3.32487
3.32259
3.31923
3.31345
3.30601
3.29703
3.28538
3.26897
3.24537
3.21886
3.19661
3.18864
3.1838
3.17711
3.17006
3.16429
3.15668
3.14568
3.13525
3.12796
3.12087
3.11302
3.10286
3.08687
3.06926
3.05904
3.05242
3.04502
3.03532
3.02035
2.9947
2.96368
2.94704
2.94188
2.93774
2.9343
2.93322
2.93271
2.92825
2.92257
2.9161
2.9071
2.89083
2.86074
2.82427
2.80088
2.7895
2.78395
2.77959
2.77585
2.77391
2.77392
2.77274
2.76918
2.76603
2.76237
2.75706
2.74694
2.72673
2.6962
2.66886
2.65125
2.6373
2.627
2.62048
2.61488
2.60759
2.60119
2.59695
2.5892
2.57513
2.56299
2.55913
2.55769
2.55917
2.5583
2.55421
2.54976
2.5438
2.533
2.51837
2.50632
2.49739
2.48697
2.47105
2.4521
2.43871
2.43073
2.42368
2.41309
2.40069
2.39408
2.39212
2.39314
2.39685
2.39775
2.39602
2.39347
2.38914
2.38034
2.36143
2.33124
2.30602
2.29542
2.29201
2.28876
2.28542
2.2836
2.28586
2.28792
2.28487
2.28053
2.27547
2.26919
2.25842
2.24156
2.22697
2.2199
2.21488
2.21021
2.20781
2.20889
2.21169
2.2099
2.20707
2.20292
2.19643
2.18685
2.17418
2.16277
2.15609
2.15248
2.1509
2.15287
2.15655
2.15595
2.15439
2.1524
2.14934
2.1463
2.1439
2.14204
2.1406
2.13641
2.12419
2.10064
2.08604
2.08177
2.07969
2.07775
2.07641
2.07717
2.08478
2.09048
2.08971
2.08834
2.08614
2.08074
2.06647
2.03508
2.0141
2.00903
2.0075
2.00628
2.00651
2.01512
2.02881
2.03257
2.03164
2.02965
2.02502
2.01031
1.97897
1.9547
1.94766
1.94561
4.44525
4.37708
4.34452
4.33315
4.32648
4.33381
4.35271
4.35132
4.33733
4.31856
4.28749
4.24358
4.19155
4.14812
4.12771
4.11744
4.11756
4.13465
4.14129
4.12873
4.10502
4.06719
4.01909
3.98762
3.97585
3.97303
3.98431
3.99068
3.98091
3.96151
3.92675
3.87925
3.84457
3.83209
3.82833
3.8374
3.84587
3.83744
3.8213
3.79196
3.75305
3.72484
3.71679
3.71456
3.72451
3.73747
3.73445
3.72446
3.70011
3.66968
3.65129
3.64546
3.64121
3.63576
3.62827
3.61946
3.60668
3.58928
3.57679
3.56809
3.5592
3.54913
3.537
3.51961
3.4962
3.47754
3.46891
3.46001
3.44909
3.43437
3.41246
3.38973
3.3703
3.35667
3.34944
3.34444
3.34064
3.3378
3.33517
3.33107
3.32517
3.31801
3.30816
3.29397
3.27261
3.24599
3.22179
3.20907
3.19985
3.19155
3.18508
3.17845
3.16908
3.15677
3.14829
3.14273
3.1365
3.12885
3.11893
3.10455
3.08719
3.07605
3.06933
3.06282
3.05577
3.04585
3.02911
3
2.97005
2.95621
2.94857
2.94313
2.93952
2.93752
2.93503
2.93152
2.92794
2.92242
2.91503
2.90041
2.86832
2.82638
2.80215
2.79427
2.7894
2.78489
2.78092
2.77887
2.77938
2.77727
2.77259
2.76733
2.76134
2.75321
2.73884
2.71619
2.69539
2.6834
2.67546
2.66629
2.65293
2.63529
2.6211
2.61382
2.60834
2.59726
2.58142
2.56829
2.56325
2.56064
2.56008
2.56363
2.56293
2.55896
2.5546
2.54877
2.53562
2.52096
2.51569
2.51144
2.50571
2.49572
2.47693
2.45202
2.42949
2.412
2.39923
2.39254
2.38945
2.38768
2.3905
2.39996
2.4049
2.40547
2.40348
2.39941
2.39174
2.37047
2.33141
2.30383
2.2966
2.29356
2.29108
2.28987
2.29262
2.2929
2.28885
2.28516
2.28151
2.27686
2.26637
2.24907
2.23504
2.23099
2.22867
2.22802
2.22795
2.22522
2.22043
2.21477
2.20882
2.20205
2.19331
2.18306
2.17905
2.17861
2.17581
2.17307
2.16987
2.16526
2.16059
2.15683
2.15415
2.1505
2.14738
2.14669
2.14623
2.14427
2.14226
2.14024
2.13792
2.13302
2.11793
2.09267
2.08086
2.07788
2.07602
2.0744
2.07344
2.07562
2.08329
2.0856
2.08402
2.08213
2.0801
2.07389
2.05471
2.02239
2.00867
2.00603
2.00484
2.00472
2.0099
2.02097
2.02535
2.02386
2.02151
2.01822
2.01121
1.99371
1.96503
1.94905
1.94523
4.42021
4.37782
4.364
4.35688
4.36801
4.39921
4.40796
4.39386
4.36942
4.32839
4.27142
4.21132
4.17584
4.16
4.1517
4.15669
4.17728
4.1807
4.16529
4.13668
4.0895
4.04383
4.02039
4.00986
4.00834
4.02044
4.0239
4.01274
3.99181
3.95027
3.89959
3.87279
3.86255
3.85905
3.86884
3.8772
3.86818
3.85123
3.81954
3.77812
3.75102
3.74282
3.73972
3.74683
3.75796
3.7539
3.74306
3.72024
3.69041
3.6687
3.66213
3.65817
3.65398
3.64659
3.63826
3.62831
3.61295
3.59753
3.58803
3.57917
3.5694
3.55905
3.54276
3.52059
3.5023
3.49328
3.48391
3.47201
3.45583
3.43313
3.41032
3.38887
3.37664
3.3708
3.36602
3.36025
3.35441
3.34922
3.34425
3.3389
3.3329
3.32582
3.31753
3.30109
3.27507
3.25014
3.23768
3.22834
3.21774
3.20641
3.19312
3.17679
3.16453
3.15813
3.15373
3.14882
3.14239
3.13505
3.12403
3.10615
3.0923
3.08545
3.07787
3.06852
3.05881
3.0484
3.03175
3.00722
2.98706
2.97451
2.96354
2.95479
2.94886
2.94451
2.9416
2.93884
2.93498
2.92885
2.91929
2.90267
2.87319
2.83846
2.81504
2.80256
2.79605
2.79219
2.79074
2.79217
2.79058
2.78561
2.78019
2.77426
2.76671
2.7533
2.73075
2.70897
2.6998
2.69612
2.6915
2.68498
2.67528
2.66051
2.64162
2.62255
2.60422
2.58794
2.57565
2.57017
2.56732
2.56509
2.56541
2.57027
2.56972
2.56579
2.55955
2.54836
2.53415
2.5284
2.52512
2.5223
2.51854
2.51261
2.50019
2.47109
2.42938
2.40252
2.39443
2.39059
2.38753
2.38554
2.38823
2.3997
2.41058
2.41212
2.40891
2.40515
2.398
2.37531
2.33525
2.31259
2.30547
2.30117
2.29863
2.29871
2.30136
2.29785
2.29317
2.28923
2.28439
2.27355
2.25522
2.24065
2.23667
2.23533
2.23597
2.24107
2.2419
2.23808
2.2321
2.22309
2.20965
2.19405
2.18219
2.17661
2.17449
2.17463
2.18218
2.18659
2.1848
2.1799
2.17145
2.16067
2.15176
2.14716
2.14511
2.14426
2.14582
2.14534
2.1434
2.14127
2.13887
2.13611
2.12991
2.11061
2.08625
2.0773
2.07435
2.072
2.06993
2.06929
2.0755
2.08286
2.08145
2.0788
2.07631
2.07326
2.06649
2.04526
2.0156
2.00652
2.00497
2.00444
2.00515
2.01019
2.0152
2.01508
2.01274
2.00966
2.00576
1.99871
1.98467
1.96238
1.9483
4.41347
4.3962
4.39013
4.40578
4.44569
4.45922
4.44439
4.41676
4.3706
4.30357
4.2359
4.20161
4.18744
4.18312
4.19743
4.21966
4.21688
4.2
4.16977
4.12373
4.07414
4.0473
4.03817
4.03989
4.05616
4.05723
4.04422
4.02042
3.98016
3.93026
3.89689
3.88493
3.88207
3.8953
3.90629
3.89736
3.88051
3.85009
3.80785
3.77615
3.76636
3.7626
3.76863
3.77814
3.77345
3.7631
3.73997
3.70748
3.68543
3.67884
3.67565
3.6734
3.66678
3.65896
3.64996
3.6335
3.61538
3.60499
3.59691
3.58861
3.57871
3.56224
3.54187
3.5253
3.51735
3.50866
3.49674
3.47978
3.45566
3.43176
3.41178
3.40236
3.39653
3.38945
3.38001
3.37157
3.36522
3.35921
3.35176
3.3427
3.33561
3.32892
3.31567
3.29614
3.27525
3.26535
3.25843
3.24911
3.23655
3.21988
3.19852
3.17826
3.16753
3.16132
3.15607
3.1524
3.14703
3.13939
3.12815
3.1147
3.10516
3.09668
3.08735
3.07649
3.06287
3.04399
3.02259
3.00672
2.99894
2.99155
2.98312
2.97428
2.96488
2.95554
2.94639
2.93576
2.92606
2.91782
2.90608
2.88882
2.87126
2.85682
2.84414
2.82754
2.8102
2.80036
2.79457
2.78977
2.78555
2.78052
2.7746
2.76802
2.75911
2.74354
2.72297
2.71161
2.70841
2.70623
2.70289
2.69815
2.69175
2.68124
2.66126
2.62933
2.5997
2.58378
2.57688
2.57318
2.57038
2.57014
2.57185
2.56793
2.56229
2.55699
2.55093
2.54217
2.53597
2.53332
2.5318
2.5318
2.52873
2.52341
2.51426
2.48731
2.43561
2.40303
2.39477
2.39077
2.38724
2.38466
2.38734
2.40698
2.41815
2.41618
2.41262
2.40696
2.39802
2.37785
2.34764
2.33007
2.32096
2.31387
2.31011
2.30996
2.30853
2.30539
2.30202
2.29678
2.28502
2.26411
2.24632
2.2411
2.23975
2.23933
2.24446
2.25337
2.25298
2.24903
2.24284
2.22946
2.20417
2.18454
2.17845
2.17598
2.17426
2.17638
2.18827
2.19446
2.19301
2.18984
2.18291
2.16741
2.15166
2.14582
2.14321
2.14116
2.14022
2.14545
2.14892
2.14694
2.14446
2.14181
2.13681
2.12374
2.09812
2.07939
2.0737
2.07098
2.06892
2.06751
2.06793
2.07474
2.07898
2.07715
2.07541
2.07416
2.07117
2.06201
2.03961
2.01285
2.00412
2.00219
2.00139
2.00148
2.00283
2.00394
2.00371
2.00177
1.99901
1.99672
1.99256
1.98294
1.9655
4.43812
4.43217
4.44787
4.48946
4.50338
4.48798
4.45853
4.40638
4.32791
4.26219
4.23557
4.2231
4.22095
4.23897
4.25975
4.25337
4.23429
4.19768
4.14294
4.10262
4.08473
4.07587
4.07758
4.09199
4.09016
4.07613
4.04998
4.00082
3.94827
3.92495
3.91563
3.91198
3.92298
3.93303
3.92418
3.90776
3.87556
3.83171
3.80323
3.79346
3.78935
3.79368
3.80046
3.79476
3.78412
3.76298
3.7333
3.70615
3.69562
3.69136
3.69081
3.68656
3.67909
3.66998
3.65158
3.63192
3.62012
3.61171
3.6028
3.59219
3.57747
3.55912
3.54412
3.53716
3.52898
3.51868
3.50399
3.47958
3.45379
3.435
3.42715
3.42265
3.41716
3.40887
3.39916
3.38816
3.37603
3.36542
3.35799
3.35183
3.34216
3.32687
3.30867
3.29182
3.28537
3.28144
3.2757
3.26733
3.25326
3.22963
3.20397
3.1868
3.1763
3.1679
3.16024
3.15308
3.14613
3.13734
3.12807
3.1223
3.1165
3.10941
3.10054
3.08818
3.06871
3.04156
3.01921
3.01121
3.00665
3.00243
2.99777
2.992
2.98383
2.97168
2.95657
2.94305
2.92923
2.91233
2.89369
2.87754
2.86952
2.86594
2.86115
2.85297
2.83753
2.81556
2.79983
2.79187
2.78678
2.78246
2.77691
2.76819
2.75326
2.73448
2.72317
2.71964
2.71729
2.7167
2.71615
2.71267
2.7067
2.69629
2.673
2.63301
2.59988
2.58787
2.58263
2.57804
2.57484
2.57546
2.57439
2.56969
2.56483
2.55679
2.54546
2.53924
2.5361
2.53477
2.53688
2.53798
2.5346
2.52981
2.5216
2.50123
2.45767
2.41538
2.39962
2.39351
2.38941
2.3871
2.39127
2.40267
2.40503
2.40276
2.40001
2.3952
2.38487
2.36899
2.35317
2.34453
2.3393
2.33363
2.32664
2.31958
2.31307
2.30662
2.29987
2.2919
2.2765
2.25588
2.2457
2.24299
2.24129
2.24317
2.25386
2.2601
2.25799
2.25421
2.24792
2.23126
2.20178
2.18268
2.17843
2.17602
2.17459
2.18008
2.19529
2.20048
2.19897
2.19639
2.19006
2.17172
2.15162
2.14481
2.14211
2.13999
2.13882
2.14171
2.14554
2.14366
2.14091
2.13821
2.13496
2.12892
2.11431
2.0906
2.07602
2.0714
2.06905
2.0674
2.06661
2.06755
2.0726
2.07425
2.07194
2.06965
2.06748
2.06498
2.05742
2.0361
2.00963
2.00078
1.99899
1.99714
1.99464
1.99305
1.99263
1.99363
1.99366
1.99256
1.99179
1.98986
1.98391
4.47188
4.48928
4.53169
4.54339
4.52641
4.49534
4.43907
4.3551
4.29019
4.26447
4.25428
4.25715
4.28148
4.29632
4.2862
4.26513
4.22932
4.17792
4.13217
4.11021
4.10304
4.10918
4.12657
4.1226
4.10726
4.07912
4.0333
3.98047
3.94778
3.93569
3.93214
3.94604
3.95881
3.95001
3.93288
3.9025
3.86068
3.82697
3.81479
3.81053
3.81525
3.82226
3.81612
3.80579
3.78477
3.75365
3.72828
3.71823
3.71383
3.71181
3.70685
3.69943
3.68926
3.66993
3.64941
3.6357
3.62683
3.61792
3.60818
3.59475
3.57648
3.56117
3.55439
3.54805
3.53981
3.52579
3.50304
3.47763
3.45928
3.45191
3.44769
3.44307
3.43538
3.42619
3.41563
3.40358
3.39131
3.37976
3.36811
3.3537
3.33605
3.31695
3.30329
3.29786
3.29694
3.29429
3.28693
3.27899
3.26179
3.23649
3.21796
3.20583
3.1932
3.17938
3.16677
3.15596
3.14572
3.13828
3.13295
3.1276
3.12221
3.11623
3.10918
3.09725
3.07274
3.03963
3.0243
3.01896
3.01417
3.01083
3.00882
3.00449
2.99824
2.98957
2.97473
2.95151
2.9233
2.89958
2.88501
2.87784
2.87393
2.87115
2.86813
2.86345
2.85614
2.84107
2.81804
2.79983
2.78816
2.77981
2.77194
2.75988
2.74393
2.73288
2.72875
2.72597
2.72546
2.72784
2.72661
2.72183
2.7151
2.70388
2.67739
2.63919
2.61372
2.60228
2.59545
2.59078
2.58697
2.5825
2.5767
2.56993
2.56147
2.55097
2.54234
2.53811
2.5346
2.53256
2.53508
2.5371
2.5335
2.52811
2.52074
2.50536
2.47928
2.45042
2.42414
2.40774
2.40103
2.39849
2.3987
2.40201
2.40026
2.39634
2.39188
2.38496
2.37232
2.36084
2.3584
2.35823
2.35746
2.35204
2.34323
2.33183
2.32112
2.31324
2.30373
2.28888
2.27084
2.25556
2.25059
2.24825
2.24635
2.24745
2.25734
2.26446
2.26267
2.25818
2.25026
2.23161
2.20261
2.18755
2.18286
2.18036
2.17984
2.18975
2.20667
2.20877
2.20631
2.20302
2.19521
2.17427
2.1525
2.14525
2.14241
2.14037
2.13897
2.1418
2.14772
2.1464
2.14321
2.13925
2.13462
2.12949
2.12112
2.10675
2.08724
2.0754
2.07186
2.06956
2.06714
2.0654
2.06491
2.06921
2.0708
2.06892
2.06716
2.06538
2.06278
2.0553
2.03416
2.00683
1.9946
1.99066
1.98731
1.98478
1.98326
1.98321
1.98747
1.99151
1.99356
1.99361
1.99177
4.53035
4.57033
4.57895
4.56134
4.53038
4.4687
4.37834
4.32004
4.29894
4.2901
4.2962
4.32275
4.33184
4.31876
4.294
4.24956
4.19526
4.16344
4.14845
4.14092
4.146
4.15924
4.15269
4.13699
4.10769
4.05443
4.00104
3.97724
3.96739
3.96279
3.97261
3.98338
3.97469
3.95789
3.92553
3.88027
3.8511
3.84011
3.83514
3.83773
3.84278
3.83633
3.82715
3.80915
3.78071
3.75149
3.73876
3.73454
3.73305
3.72846
3.72094
3.70942
3.68828
3.66647
3.65241
3.64417
3.63523
3.62443
3.61029
3.59343
3.58
3.57251
3.56402
3.55407
3.54076
3.51981
3.4963
3.48119
3.47516
3.47228
3.46916
3.46206
3.453
3.44227
3.43066
3.41961
3.40863
3.39539
3.37775
3.35562
3.33408
3.31849
3.31123
3.30581
3.30041
3.2981
3.29268
3.2793
3.26161
3.24523
3.23546
3.22593
3.21398
3.19729
3.17566
3.15694
3.14722
3.1421
3.13731
3.13199
3.12615
3.12002
3.11275
3.10092
3.07584
3.04519
3.03332
3.02713
3.02183
3.01896
3.0181
3.01389
3.00763
3.00011
2.98481
2.95384
2.91952
2.89731
2.88807
2.88311
2.87852
2.87537
2.87377
2.87028
2.86546
2.85742
2.84104
2.81658
2.7957
2.78052
2.76668
2.75233
2.74163
2.73684
2.73366
2.73249
2.73365
2.73401
2.73097
2.72647
2.72028
2.70359
2.67372
2.64643
2.6332
2.62384
2.61452
2.60601
2.59827
2.59029
2.58201
2.57261
2.56049
2.54827
2.54225
2.53839
2.53498
2.53322
2.53232
2.52887
2.5251
2.51972
2.5099
2.49722
2.48547
2.47316
2.45775
2.43969
2.42336
2.41186
2.40421
2.39974
2.39569
2.38933
2.37916
2.36756
2.36288