/*--------------------------------*- C++ -*----------------------------------*\
  =========                 |
  \\      /  F ield         | OpenFOAM: The Open Source CFD Toolbox
   \\    /   O peration     | Website:  https://openfoam.org
    \\  /    A nd           | Version:  7
     \\/     M anipulation  |
\*---------------------------------------------------------------------------*/
FoamFile
{
    version     2.0;
    format      ascii;
    class       volScalarField;
    location    "1.2";
    object      T;
}
// * * * * * * * * * * * * * * * * * * * * * * * * * * * * * * * * * * * * * //

dimensions      [0 0 0 1 0 0 0];

internalField   nonuniform List<scalar> 
16512
(
1.87948
1.87424
1.86836
1.86147
1.85305
1.84504
1.842
1.84034
1.83701
1.83087
1.82081
1.80923
1.80239
1.80052
1.79933
1.79627
1.79009
1.77971
1.76817
1.76105
1.75922
1.75901
1.75722
1.75272
1.74335
1.73106
1.72127
1.71756
1.71695
1.71674
1.71449
1.70909
1.69924
1.68786
1.68028
1.67812
1.67773
1.6764
1.67311
1.66525
1.65439
1.64571
1.64281
1.64247
1.64178
1.63904
1.63234
1.62191
1.61216
1.60799
1.60706
1.60643
1.60441
1.60047
1.59205
1.5816
1.57409
1.57137
1.57013
1.56873
1.56691
1.56419
1.55968
1.55339
1.54797
1.54456
1.54162
1.53803
1.53231
1.52429
1.52033
1.51941
1.5181
1.5163
1.51351
1.50906
1.50437
1.50072
1.49797
1.49555
1.49251
1.48766
1.48131
1.47675
1.47393
1.47143
1.46908
1.46673
1.46413
1.46134
1.45875
1.45626
1.45325
1.44836
1.4407
1.43493
1.43359
1.43264
1.43163
1.43038
1.42908
1.42764
1.42566
1.42213
1.41459
1.40522
1.40086
1.39965
1.39833
1.39739
1.44324
2.07242
2.34206
2.36552
2.36386
2.3632
2.36678
2.37244
2.37878
2.38445
2.38999
2.39536
2.39711
2.39549
2.39712
2.40386
2.40929
2.41243
2.41446
2.41538
2.41516
2.41428
2.41395
2.41418
2.41401
2.41339
2.4154
2.41827
2.41946
2.41932
2.41743
2.41209
2.40481
2.40074
2.40009
2.4002
2.40016
2.39913
2.3955
2.39157
2.39074
2.39067
2.01168
2.00708
2.00224
1.99723
1.99177
1.98682
1.98169
1.97634
1.97121
1.96586
1.96067
1.95518
1.94909
1.94289
1.93638
1.93017
1.92521
1.92003
1.9146
1.90897
1.90169
1.89564
1.8901
1.88467
1.87965
1.87364
1.86721
1.8598
1.85274
1.84815
1.84603
1.84313
1.83765
1.82849
1.81698
1.80971
1.80767
1.8062
1.80297
1.79691
1.78666
1.77522
1.76825
1.76657
1.76639
1.76457
1.75999
1.75068
1.73842
1.7288
1.72528
1.72467
1.72426
1.72177
1.71599
1.70587
1.69466
1.68757
1.68561
1.68533
1.68394
1.68053
1.67252
1.66161
1.65315
1.65043
1.65009
1.64936
1.64667
1.63971
1.62903
1.61939
1.61565
1.61497
1.6145
1.61249
1.60843
1.59972
1.58888
1.58135
1.57892
1.57787
1.57649
1.57467
1.57212
1.5673
1.56034
1.55517
1.55181
1.54886
1.54547
1.5406
1.53323
1.52798
1.52673
1.52537
1.52349
1.52074
1.51597
1.50983
1.5059
1.50371
1.50167
1.49937
1.49621
1.49083
1.48399
1.48016
1.47788
1.47544
1.47278
1.47005
1.46731
1.46467
1.46216
1.45933
1.45494
1.44758
1.44152
1.44017
1.43902
1.43777
1.4366
1.43525
1.43372
1.43177
1.42846
1.42142
1.41226
1.40654
1.40508
1.40382
1.40313
1.40165
1.40326
1.65612
2.23951
2.35043
2.35031
2.35394
2.35952
2.36515
2.37168
2.37696
2.38041
2.38237
2.38131
2.38067
2.38628
2.39464
2.40062
2.40381
2.40542
2.40537
2.40362
2.40146
2.4007
2.40105
2.40194
2.40247
2.40496
2.40809
2.40941
2.4093
2.40691
2.40022
2.39236
2.38885
2.38811
2.38811
2.38819
2.38781
2.3859
2.38244
2.38017
2.379
2.00892
2.00406
1.99917
1.99379
1.98913
1.9844
1.97929
1.97443
1.96932
1.96444
1.95927
1.95338
1.9474
1.9411
1.93495
1.92996
1.92476
1.91929
1.91379
1.90699
1.90073
1.89518
1.8896
1.8847
1.87894
1.8727
1.86608
1.85924
1.85456
1.85119
1.84836
1.84344
1.83576
1.82457
1.81663
1.81451
1.81277
1.80938
1.80366
1.79376
1.78233
1.7752
1.77342
1.77313
1.77122
1.76664
1.75754
1.7456
1.73631
1.73303
1.73253
1.73197
1.72932
1.7231
1.71247
1.70123
1.69452
1.69273
1.6925
1.69109
1.68741
1.67921
1.6685
1.66053
1.65808
1.65772
1.65683
1.65408
1.64693
1.636
1.62643
1.62292
1.62243
1.62222
1.62032
1.6162
1.60746
1.59641
1.58888
1.58683
1.58623
1.5851
1.58315
1.58029
1.57441
1.56676
1.56116
1.55836
1.55615
1.55323
1.54838
1.54149
1.53636
1.53492
1.5336
1.53175
1.52868
1.52259
1.51573
1.51111
1.50872
1.5072
1.50553
1.50316
1.49935
1.49302
1.4868
1.48402
1.48202
1.47958
1.47665
1.47352
1.47058
1.46796
1.46519
1.46127
1.45447
1.44752
1.44599
1.44524
1.44389
1.44263
1.44142
1.43997
1.43805
1.43494
1.42834
1.41913
1.41246
1.41076
1.40948
1.40832
1.40775
1.40679
1.40491
1.43195
1.9805
2.30553
2.33925
2.34615
2.35212
2.35767
2.36439
2.36922
2.37046
2.36859
2.36543
2.36782
2.37645
2.38509
2.39131
2.39484
2.39587
2.3948
2.39127
2.38832
2.38769
2.38836
2.39018
2.39186
2.39458
2.39781
2.39921
2.39911
2.39624
2.38847
2.38107
2.37866
2.3779
2.37765
2.37755
2.37702
2.3748
2.37052
2.36715
2.36522
2.00604
2.00135
1.99599
1.99121
1.98671
1.9818
1.97718
1.97221
1.96751
1.96273
1.95712
1.9514
1.94541
1.93941
1.93456
1.92947
1.92409
1.91869
1.91219
1.90582
1.90006
1.89431
1.88933
1.88393
1.87792
1.8719
1.86532
1.86052
1.85655
1.85328
1.8488
1.84186
1.83203
1.82288
1.82046
1.81883
1.81541
1.81009
1.80097
1.78974
1.78235
1.78034
1.77967
1.77748
1.77287
1.76376
1.75205
1.74318
1.74026
1.74004
1.73957
1.7369
1.73053
1.71965
1.70821
1.7016
1.69987
1.69955
1.69793
1.69387
1.68533
1.67478
1.66749
1.66544
1.66534
1.66438
1.66148
1.65411
1.64299
1.63348
1.6301
1.62962
1.6295
1.62775
1.62369
1.61493
1.60388
1.59652
1.59475
1.59457
1.59385
1.59187
1.5886
1.58146
1.57278
1.56694
1.56461
1.56287
1.56038
1.55571
1.549
1.54439
1.54312
1.54208
1.54031
1.5371
1.52994
1.52133
1.51671
1.51478
1.51302
1.51124
1.5093
1.50648
1.50143
1.49431
1.49026
1.48847
1.48654
1.48389
1.48049
1.47692
1.47383
1.47102
1.46747
1.46143
1.45385
1.45137
1.45066
1.44961
1.44839
1.44724
1.44601
1.44433
1.44146
1.43534
1.42604
1.41847
1.41649
1.41525
1.41411
1.41331
1.41228
1.41141
1.40932
1.40596
1.57464
2.17625
2.33064
2.33709
2.34338
2.34953
2.35577
2.35957
2.35901
2.35479
2.35319
2.35869
2.36761
2.3757
2.38196
2.38557
2.38596
2.38364
2.37875
2.37585
2.3756
2.37667
2.37901
2.38146
2.38443
2.38767
2.38912
2.38894
2.3854
2.37686
2.37091
2.36948
2.3687
2.36807
2.36736
2.36592
2.3623
2.35673
2.35302
2.3512
2.00338
1.99829
1.99344
1.98909
1.98421
1.97961
1.97474
1.97004
1.96559
1.96026
1.95476
1.94908
1.9432
1.93859
1.93383
1.92866
1.92356
1.91757
1.91139
1.90535
1.89925
1.89397
1.8886
1.88268
1.87707
1.87084
1.8658
1.86186
1.85815
1.85411
1.84764
1.83937
1.82976
1.82546
1.82378
1.82062
1.81576
1.80766
1.79696
1.78953
1.78737
1.78639
1.78383
1.77921
1.77008
1.7583
1.74955
1.74676
1.74666
1.74638
1.74384
1.73761
1.72701
1.71558
1.70907
1.70736
1.70684
1.70496
1.70045
1.69129
1.68062
1.67392
1.67222
1.67241
1.67157
1.66869
1.66123
1.64993
1.64057
1.63737
1.63688
1.63667
1.63489
1.63083
1.62208
1.61106
1.60396
1.60239
1.60248
1.60213
1.60026
1.59674
1.58898
1.57933
1.57306
1.57125
1.56983
1.56747
1.56258
1.55557
1.55161
1.55073
1.55007
1.54842
1.54522
1.53779
1.52828
1.52256
1.52092
1.51976
1.51826
1.51638
1.51373
1.50875
1.50127
1.49624
1.49454
1.49307
1.49103
1.48799
1.48404
1.48022
1.477
1.47354
1.46817
1.46054
1.45686
1.45607
1.45485
1.45366
1.45265
1.45159
1.45022
1.44788
1.44255
1.43316
1.42456
1.42213
1.42116
1.41996
1.41903
1.41823
1.41683
1.41552
1.41311
1.40501
1.41366
1.84547
2.2734
2.3275
2.33451
2.34019
2.34519
2.34738
2.345
2.34106
2.34292
2.35054
2.35876
2.36618
2.37221
2.37524
2.3749
2.37108
2.36609
2.36416
2.36428
2.36564
2.36796
2.37052
2.37371
2.37712
2.37872
2.37845
2.37419
2.36566
2.36162
2.36056
2.35982
2.35881
2.35724
2.3545
2.34917
2.34266
2.33934
2.33794
2.00019
1.99534
1.99117
1.98649
1.98194
1.97725
1.9724
1.9681
1.96303
1.95769
1.95234
1.94647
1.942
1.93755
1.93261
1.9278
1.92232
1.91668
1.91089
1.90473
1.89926
1.89375
1.88769
1.88208
1.87598
1.87046
1.86636
1.86241
1.85884
1.85334
1.84585
1.83783
1.83095
1.82861
1.82534
1.82048
1.81323
1.80325
1.79598
1.79388
1.7928
1.79004
1.78567
1.77705
1.76537
1.75628
1.75318
1.75289
1.75247
1.74991
1.74381
1.73363
1.72273
1.71656
1.71496
1.71436
1.71233
1.70739
1.69764
1.68656
1.68007
1.67858
1.67891
1.67821
1.67542
1.66791
1.65665
1.64753
1.64456
1.64423
1.64401
1.64217
1.6379
1.629
1.61804
1.61107
1.60957
1.60974
1.60964
1.60796
1.60431
1.59622
1.58622
1.57981
1.57822
1.57722
1.57508
1.56987
1.56204
1.55801
1.55744
1.55715
1.55572
1.55269
1.54535
1.53542
1.52926
1.52773
1.52676
1.52546
1.52389
1.5215
1.51614
1.50775
1.50178
1.50022
1.49901
1.4973
1.49481
1.49123
1.48714
1.48352
1.48001
1.47511
1.46761
1.46248
1.46146
1.46031
1.45883
1.45772
1.45678
1.45565
1.45378
1.44952
1.44074
1.43119
1.42761
1.42676
1.42592
1.42486
1.42395
1.42281
1.42114
1.41875
1.4139
1.40413
1.40216
1.49658
2.1079
2.3124
2.32923
2.33082
2.3332
2.3333
2.33074
2.33032
2.33532
2.34328
2.35075
2.35727
2.36228
2.36417
2.36273
2.35802
2.35463
2.35401
2.35443
2.35568
2.35729
2.35919
2.36225
2.36585
2.36772
2.36739
2.36261
2.35513
2.3527
2.35181
2.35107
2.34962
2.34706
2.34283
2.33583
2.32915
2.32673
2.32583
1.99677
1.99283
1.98843
1.98386
1.97935
1.97441
1.97027
1.96558
1.96039
1.95539
1.94969
1.9452
1.9409
1.93603
1.93136
1.92604
1.92074
1.9156
1.90983
1.90445
1.89929
1.89358
1.88788
1.88156
1.87546
1.87075
1.86615
1.86263
1.85817
1.85149
1.84471
1.83748
1.834
1.83055
1.82556
1.81893
1.80936
1.80148
1.79927
1.79821
1.79557
1.79164
1.78403
1.77305
1.76376
1.76039
1.75964
1.75856
1.75576
1.74951
1.73936
1.72913
1.72342
1.72206
1.72162
1.71952
1.71433
1.70447
1.69313
1.6865
1.68504
1.68527
1.68455
1.68168
1.67401
1.6629
1.65409
1.65144
1.65131
1.6513
1.64959
1.64523
1.63602
1.62495
1.61808
1.61654
1.61665
1.61656
1.61488
1.61103
1.60298
1.59308
1.58675
1.5853
1.58451
1.58267
1.57751
1.56892
1.56427
1.56367
1.56348
1.56223
1.55946
1.55248
1.54255
1.53596
1.5345
1.53392
1.53281
1.53118
1.52885
1.52347
1.51448
1.5073
1.50552
1.50464
1.50317
1.50086
1.49749
1.49341
1.48978
1.48646
1.48221
1.47532
1.46871
1.46702
1.46587
1.46441
1.46297
1.46185
1.46078
1.4592
1.45576
1.44798
1.43829
1.43339
1.43228
1.4315
1.43079
1.42972
1.42853
1.4271
1.4247
1.41964
1.41217
1.40477
1.40352
1.40853
1.73459
2.22969
2.31983
2.31937
2.31981
2.31759
2.31635
2.31985
2.32709
2.33499
2.34226
2.34792
2.35146
2.35192
2.34898
2.34493
2.34413
2.34468
2.34559
2.34638
2.3469
2.3477
2.35021
2.3538
2.35581
2.35539
2.35046
2.34513
2.34402
2.34343
2.3427
2.34076
2.33716
2.33121
2.32276
2.31688
2.31543
2.31509
1.99415
1.99004
1.98555
1.98123
1.97621
1.97199
1.96767
1.96266
1.95801
1.95272
1.94824
1.94415
1.93934
1.93479
1.92953
1.92402
1.91918
1.91378
1.90852
1.90374
1.8987
1.89359
1.88762
1.88132
1.87613
1.8707
1.8664
1.8622
1.85618
1.84981
1.84327
1.83882
1.83586
1.83108
1.82542
1.81694
1.80763
1.80464
1.80284
1.79971
1.79587
1.78942
1.77976
1.77109
1.76781
1.76693
1.76527
1.76221
1.75572
1.74527
1.73512
1.72967
1.72844
1.72816
1.72607
1.72076
1.7111
1.70005
1.69347
1.69197
1.69199
1.69103
1.68797
1.68004
1.66881
1.66023
1.65778
1.65779
1.65804
1.6566
1.65244
1.64325
1.63198
1.62508
1.62358
1.62368
1.62339
1.62153
1.61721
1.60897
1.59945
1.59353
1.59218
1.59148
1.58972
1.58471
1.57599
1.57067
1.56989
1.56958
1.56836
1.56576
1.55907
1.54921
1.54226
1.54077
1.54053
1.53992
1.53836
1.53601
1.53065
1.52142
1.51337
1.5111
1.5102
1.50888
1.50671
1.50331
1.49899
1.49526
1.49232
1.48894
1.48324
1.47576
1.47287
1.47152
1.47
1.46855
1.4672
1.46594
1.46445
1.46165
1.45465
1.44525
1.43937
1.43804
1.43706
1.43636
1.43551
1.43423
1.43276
1.43069
1.42613
1.41797
1.41071
1.40893
1.40785
1.40826
1.45936
2.01844
2.28546
2.30899
2.30604
2.30412
2.30598
2.31186
2.31902
2.32693
2.33418
2.33885
2.34053
2.33944
2.33514
2.33322
2.33419
2.33596
2.33702
2.33715
2.33659
2.33658
2.3383
2.34137
2.3431
2.34232
2.33751
2.33496
2.33518
2.33511
2.33454
2.33234
2.32773
2.31989
2.31041
2.30583
2.30513
2.30514
1.9911
1.98708
1.98317
1.97838
1.97389
1.9696
1.96463
1.95997
1.95493
1.95051
1.94691
1.9424
1.93798
1.93318
1.92754
1.92252
1.91709
1.91173
1.90688
1.90202
1.89783
1.89288
1.88688
1.88184
1.87653
1.87144
1.86679
1.86084
1.8544
1.84797
1.84257
1.83994
1.83599
1.8312
1.82511
1.81583
1.81105
1.80817
1.80409
1.79948
1.79335
1.78464
1.77687
1.77408
1.77338
1.77166
1.76881
1.76268
1.75231
1.74184
1.73615
1.7347
1.73416
1.73198
1.72649
1.71695
1.70651
1.70041
1.69906
1.69909
1.69791
1.69469
1.68657
1.67499
1.66629
1.66379
1.66378
1.66414
1.66287
1.65887
1.65005
1.63895
1.63205
1.63066
1.63077
1.63038
1.62835
1.62349
1.61471
1.60534
1.59992
1.59871
1.5981
1.59629
1.59137
1.58278
1.57711
1.5762
1.57577
1.57451
1.572
1.56559
1.55571
1.54825
1.54659
1.54645
1.54639
1.54511
1.54293
1.53783
1.52859
1.51978
1.5171
1.51619
1.51478
1.51266
1.5092
1.50449
1.50035
1.49755
1.49487
1.4907
1.48346
1.47891
1.47744
1.47576
1.47414
1.47272
1.47134
1.46975
1.46724
1.46112
1.45195
1.44527
1.44376
1.44275
1.44191
1.44108
1.43985
1.4383
1.43625
1.4322
1.42467
1.41652
1.41372
1.41327
1.41309
1.41241
1.41493
1.63445
2.17642
2.29847
2.29189
2.29229
2.29713
2.30334
2.30985
2.31778
2.32517
2.3287
2.32893
2.32647
2.32278
2.3229
2.32513
2.32712
2.32785
2.32747
2.32625
2.32604
2.3272
2.32934
2.33022
2.3286
2.3244
2.32428
2.32611
2.32677
2.3264
2.32433
2.31894
2.30931
2.29971
2.2962
2.29568
2.29582
1.98726
1.98389
1.9801
1.976
1.97186
1.96695
1.96218
1.95704
1.95206
1.94866
1.94468
1.94038
1.93614
1.93096
1.92608
1.92061
1.91504
1.91012
1.90463
1.90044
1.89641
1.89117
1.88631
1.88157
1.87692
1.87239
1.86645
1.86
1.85345
1.84648
1.84319
1.83999
1.8355
1.83104
1.82403
1.81812
1.81435
1.80967
1.80446
1.79815
1.78945
1.78168
1.77892
1.77827
1.77672
1.7743
1.76898
1.75957
1.74922
1.74339
1.74173
1.74065
1.73812
1.73215
1.72213
1.71217
1.70672
1.70559
1.70588
1.70469
1.70148
1.69359
1.68194
1.67278
1.66999
1.66982
1.66999
1.6686
1.66446
1.65587
1.64532
1.63871
1.63743
1.63766
1.63734
1.63534
1.63011
1.62079
1.61123
1.60614
1.60501
1.6044
1.60253
1.59753
1.589
1.58324
1.58229
1.58193
1.58068
1.57829
1.57225
1.5623
1.55427
1.55236
1.55211
1.55223
1.55127
1.54935
1.54454
1.53551
1.52641
1.52328
1.52248
1.52128
1.51915
1.51529
1.51018
1.5059
1.50302
1.50054
1.49726
1.49119
1.4847
1.48307
1.48162
1.47984
1.47826
1.47682
1.47522
1.47283
1.46747
1.45857
1.45116
1.44938
1.44831
1.44739
1.44654
1.44535
1.44383
1.44171
1.43782
1.43068
1.42274
1.41911
1.41824
1.4179
1.41814
1.41766
1.41668
1.43981
1.89133
2.24891
2.27664
2.2843
2.29025
2.29507
2.30028
2.30764
2.3149
2.31773
2.31713
2.31384
2.3123
2.31399
2.3163
2.31762
2.3178
2.31695
2.31576
2.31572
2.31662
2.31777
2.31763
2.31458
2.31159
2.31317
2.31658
2.31804
2.31795
2.31621
2.31021
2.29935
2.29072
2.28787
2.28699
2.28701
1.98361
1.97992
1.97657
1.97341
1.96914
1.96462
1.95987
1.95431
1.95033
1.94637
1.94195
1.93783
1.93306
1.92882
1.92408
1.91859
1.9139
1.90834
1.9033
1.89919
1.89418
1.8893
1.88477
1.88059
1.87707
1.87211
1.86614
1.86021
1.85256
1.84737
1.84383
1.83923
1.83493
1.82956
1.82411
1.82013
1.81531
1.81046
1.80453
1.79606
1.78794
1.78379
1.78202
1.78021
1.77803
1.77347
1.76531
1.75604
1.75064
1.74907
1.74777
1.74515
1.73879
1.72798
1.71769
1.71241
1.71136
1.71178
1.71072
1.70765
1.7003
1.68916
1.67976
1.67673
1.67635
1.67611
1.67438
1.66986
1.66103
1.65092
1.64479
1.6436
1.64399
1.64374
1.64195
1.63669
1.62716
1.61743
1.61251
1.61141
1.61069
1.60875
1.60355
1.59487
1.58894
1.58797
1.58783
1.58671
1.5845
1.57888
1.56893
1.56046
1.55829
1.55789
1.55785
1.55693
1.55513
1.55045
1.54192
1.53303
1.52955
1.52888
1.52785
1.52594
1.52203
1.51591
1.51152
1.50911
1.50688
1.50389
1.49867
1.49097
1.48788
1.48701
1.48551
1.48381
1.48228
1.4807
1.4785
1.47387
1.46521
1.45703
1.45496
1.45398
1.45272
1.45176
1.45063
1.44918
1.44722
1.4437
1.43666
1.42859
1.42464
1.42375
1.42298
1.42282
1.42287
1.4225
1.42079
1.41772
1.5353
2.08722
2.26171
2.28242
2.28564
2.28752
2.29118
2.29689
2.30311
2.30589
2.30523
2.30301
2.30334
2.30598
2.30767
2.3082
2.3078
2.30645
2.30571
2.30591
2.30664
2.30696
2.30558
2.30139
2.29996
2.30266
2.3069
2.30905
2.30922
2.30766
2.30096
2.28983
2.28307
2.28065
2.2794
2.27891
1.97976
1.97574
1.97299
1.96986
1.96608
1.96236
1.95749
1.95301
1.94856
1.94376
1.93932
1.93421
1.93007
1.92644
1.92159
1.91717
1.91253
1.90743
1.90282
1.89744
1.89223
1.88725
1.88237
1.87963
1.87619
1.87103
1.86596
1.85959
1.85325
1.84876
1.84378
1.83907
1.83371
1.82808
1.82444
1.81998
1.8153
1.81045
1.80381
1.79608
1.7901
1.78693
1.78419
1.78126
1.77655
1.76905
1.76112
1.75661
1.75536
1.75434
1.75204
1.74607
1.73525
1.72399
1.71823
1.71703
1.7172
1.71616
1.71309
1.70609
1.69567
1.68659
1.6836
1.68321
1.68273
1.68075
1.6758
1.66647
1.6563
1.65046
1.64928
1.64969
1.64951
1.6478
1.64262
1.63329
1.62374
1.61905
1.618
1.61718
1.61519
1.60979
1.60079
1.5945
1.59338
1.59339
1.59246
1.59032
1.58515
1.57557
1.56664
1.56421
1.56384
1.5636
1.56251
1.56062
1.55576
1.54749
1.53923
1.53581
1.53524
1.53448
1.53265
1.52887
1.52218
1.51701
1.51499
1.51331
1.51084
1.5063
1.49807
1.49245
1.49148
1.49082
1.48931
1.48768
1.48608
1.48406
1.48025
1.47215
1.46311
1.46023
1.45963
1.45825
1.45689
1.45565
1.45419
1.45232
1.44928
1.44292
1.43451
1.42991
1.42917
1.42846
1.428
1.42789
1.42741
1.4265
1.42391
1.41516
1.41877
1.72741
2.18364
2.27502
2.27656
2.27913
2.28249
2.28668
2.29067
2.29254
2.29233
2.29227
2.2949
2.29824
2.29917
2.29916
2.29818
2.29658
2.29621
2.29652
2.29688
2.29642
2.2935
2.28954
2.28953
2.29297
2.29729
2.29982
2.30019
2.29833
2.29058
2.28048
2.27603
2.27399
2.27257
2.27156
1.97583
1.97205
1.96919
1.96569
1.96245
1.95884
1.95526
1.95127
1.94654
1.94209
1.9366
1.93134
1.9278
1.92347
1.91906
1.91504
1.91077
1.90672
1.90157
1.89614
1.89113
1.8848
1.88114
1.87828
1.87387
1.86929
1.8643
1.85879
1.8541
1.84896
1.84422
1.83905
1.83243
1.82813
1.8239
1.81898
1.81441
1.809
1.8034
1.79777
1.79347
1.78984
1.78592
1.78047
1.77281
1.76518
1.7612
1.76026
1.75954
1.75764
1.75255
1.74264
1.73111
1.72482
1.72334
1.72292
1.72152
1.71829
1.71128
1.70127
1.69267
1.68984
1.68968
1.68938
1.68734
1.68224
1.67266
1.66211
1.65621
1.65494
1.65524
1.65492
1.65308
1.64783
1.63873
1.62971
1.62544
1.62453
1.62375
1.62177
1.61629
1.60689
1.60018
1.59885
1.59887
1.59806
1.59595
1.59111
1.58193
1.57275
1.57005
1.56976
1.5695
1.56827
1.56612
1.56087
1.55249
1.54468
1.54159
1.54127
1.54081
1.53913
1.53551
1.5285
1.52281
1.5208
1.5193
1.51724
1.5135
1.50575
1.49775
1.49578
1.49517
1.4946
1.49306
1.49133
1.48937
1.48622
1.47912
1.46964
1.4654
1.46494
1.46385
1.46218
1.46059
1.45899
1.45712
1.45435
1.44894
1.44092
1.43543
1.43457
1.43403
1.43346
1.43313
1.43261
1.4315
1.42885
1.42275
1.41309
1.41065
1.45896
1.96336
2.24331
2.27237
2.27278
2.27485
2.27742
2.27944
2.28025
2.28071
2.28275
2.2873
2.29073
2.29126
2.29098
2.28962
2.28794
2.2876
2.28772
2.28761
2.28606
2.28201
2.27936
2.28044
2.28408
2.28803
2.29056
2.29089
2.28814
2.2793
2.27174
2.26923
2.26757
2.26613
2.26474
1.97377
1.96934
1.96503
1.96134
1.95794
1.95531
1.95267
1.9488
1.94492
1.94055
1.93506
1.93051
1.92572
1.92082
1.91633
1.91196
1.90887
1.90502
1.89987
1.89539
1.88962
1.8842
1.88052
1.87606
1.87135
1.86634
1.86151
1.85803
1.85361
1.84912
1.84491
1.83875
1.83298
1.82787
1.82251
1.81756
1.81196
1.80788
1.80403
1.79974
1.79602
1.7919
1.78614
1.77868
1.77036
1.76533
1.76428
1.76364
1.76205
1.75757
1.74874
1.7378
1.73129
1.72986
1.72918
1.72751
1.72413
1.71695
1.70665
1.6981
1.69537
1.69529
1.69528
1.69347
1.68855
1.67914
1.66841
1.66231
1.66096
1.66103
1.66043
1.65834
1.65267
1.64357
1.63516
1.63146
1.63081
1.63018
1.62822
1.62278
1.61325
1.60605
1.60446
1.60441
1.60366
1.60155
1.59678
1.58784
1.57877
1.57575
1.57554
1.57545
1.57425
1.57192
1.56625
1.55743
1.54973
1.54696
1.54674
1.54651
1.54501
1.54144
1.53444
1.52842
1.52664
1.52525
1.52329
1.52015
1.51332
1.5041
1.50052
1.49955
1.49899
1.49814
1.49656
1.49456
1.49175
1.48595
1.47663
1.47068
1.47002
1.46923
1.4676
1.4657
1.46379
1.46176
1.4591
1.45451
1.44721
1.44125
1.44012
1.43966
1.43916
1.43864
1.43799
1.43681
1.43378
1.42735
1.41938
1.413
1.41114
1.41342
1.60186
2.12221
2.26434
2.26464
2.26551
2.26621
2.26678
2.26733
2.26893
2.27302
2.27874
2.28271
2.28346
2.28309
2.28154
2.27971
2.27909
2.279
2.27849
2.27605
2.27192
2.27074
2.27237
2.27566
2.27897
2.28108
2.28109
2.27676
2.26785
2.26382
2.26246
2.26124
2.25989
2.25821
1.97215
1.96751
1.96288
1.95783
1.95419
1.95195
1.94908
1.94582
1.94256
1.93832
1.93389
1.929
1.92394
1.91916
1.9134
1.90975
1.90685
1.90241
1.89818
1.89378
1.88856
1.88402
1.87902
1.87404
1.86873
1.86286
1.85998
1.85682
1.8527
1.84916
1.8446
1.83899
1.8329
1.82684
1.82157
1.81532
1.81078
1.80813
1.80432
1.80062
1.79689
1.79186
1.78497
1.77692
1.77088
1.76851
1.76749
1.76577
1.76162
1.75347
1.74315
1.73682
1.73559
1.73507
1.7335
1.7302
1.72342
1.71285
1.70363
1.70059
1.70039
1.70045
1.69879
1.69412
1.68517
1.67476
1.66869
1.66732
1.66719
1.66624
1.66385
1.65767
1.64825
1.64015
1.637
1.63665
1.63629
1.63443
1.62914
1.61974
1.61215
1.61032
1.6101
1.60934
1.6072
1.60232
1.59345
1.58453
1.58123
1.58103
1.58115
1.58015
1.57793
1.5722
1.56286
1.55486
1.55227
1.55205
1.55184
1.55044
1.5468
1.53966
1.53349
1.53184
1.53094
1.52924
1.52649
1.52085
1.51121
1.50567
1.50455
1.50366
1.50272
1.50145
1.49972
1.49715
1.49255
1.48391
1.47607
1.47484
1.47423
1.47282
1.47089
1.46882
1.46664
1.46399
1.45986
1.45309
1.447
1.44575
1.44526
1.44486
1.44432
1.44355
1.44224
1.43893
1.43224
1.42402
1.41825
1.41671
1.41569
1.4144
1.43303
1.82826
2.2085
2.25697
2.25461
2.2545
2.25465
2.25551
2.25816
2.26329
2.26962
2.27435
2.27552
2.2752
2.27365
2.2716
2.27047
2.27003
2.26919
2.26656
2.26346
2.26335
2.26522
2.26786
2.27027
2.27154
2.27066
2.26428
2.25725
2.25621
2.25562
2.25492
2.25376
2.25189
1.96981
1.96597
1.96116
1.95603
1.95251
1.949
1.94529
1.94199
1.93871
1.93557
1.93166
1.92696
1.92279
1.91744
1.91207
1.90854
1.9043
1.89977
1.89567
1.89161
1.88787
1.883
1.87777
1.87268
1.86571
1.86157
1.85878
1.85495
1.85155
1.84795
1.84385
1.8385
1.8321
1.82656
1.82046
1.81437
1.81146
1.80806
1.8041
1.80047
1.79595
1.79024
1.7833
1.77716
1.774
1.77179
1.76972
1.7655
1.75778
1.74737
1.74085
1.73994
1.7399
1.73867
1.73557
1.72966
1.71958
1.70983
1.70628
1.70573
1.70539
1.70362
1.69888
1.6902
1.68049
1.67484
1.67362
1.67356
1.67242
1.66979
1.66316
1.65315
1.64505
1.64224
1.64202
1.64184
1.64017
1.63515
1.62609
1.61839
1.61644
1.61616
1.61531
1.61307
1.60804
1.59896
1.58993
1.58634
1.58607
1.58633
1.5855
1.58355
1.57816
1.56881
1.56046
1.55787
1.5576
1.55726
1.55587
1.55204
1.54461
1.53809
1.53644
1.53599
1.53475
1.53251
1.52807
1.51896
1.51119
1.50962
1.50885
1.50768
1.50619
1.50458
1.50247
1.49891
1.49171
1.48215
1.47916
1.47866
1.47764
1.47592
1.47388
1.47168
1.46913
1.46539
1.45908
1.45266
1.45123
1.45084
1.45038
1.44984
1.4491
1.44772
1.44414
1.43726
1.42904
1.42331
1.42166
1.42142
1.42141
1.41904
1.41928
1.51298
2.03448
2.23034
2.24648
2.24507
2.24489
2.24626
2.24967
2.25461
2.2603
2.26497
2.26659
2.2665
2.26532
2.2633
2.26169
2.26078
2.25973
2.25758
2.256
2.25671
2.25872
2.26064
2.26203
2.26226
2.25951
2.25141
2.24782
2.24822
2.24859
2.24841
2.2476
2.24568
1.96691
1.96339
1.95869
1.95403
1.94975
1.94573
1.94186
1.93777
1.93514
1.9326
1.92878
1.92515
1.92117
1.91586
1.91118
1.90647
1.90169
1.89699
1.89258
1.89002
1.88659
1.88173
1.87724
1.87106
1.86499
1.8611
1.85692
1.85314
1.8492
1.84589
1.8424
1.83706
1.83176
1.82656
1.81994
1.81555
1.81173
1.80744
1.80347
1.79857
1.79345
1.78816
1.78268
1.77934
1.77685
1.77423
1.77006
1.76271
1.75232
1.74414
1.74299
1.74293
1.74221
1.73964
1.73489
1.72601
1.71626
1.71247
1.7118
1.71102
1.70885
1.70359
1.69455
1.68535
1.68023
1.67915
1.67939
1.67834
1.67573
1.66911
1.65866
1.65021
1.64753
1.64731
1.6471
1.64548
1.64057
1.63185
1.62435
1.62244
1.62231
1.62164
1.61943
1.6143
1.6049
1.59539
1.59139
1.59091
1.5911
1.5903
1.5884
1.58335
1.57449
1.56617
1.56361
1.56342
1.56305
1.56169
1.55773
1.54973
1.54276
1.54094
1.54057
1.53977
1.53793
1.53453
1.52655
1.51736
1.51463
1.51372
1.5129
1.51133
1.50945
1.50739
1.50463
1.49958
1.49012
1.48343
1.48259
1.48188
1.48066
1.4789
1.47683
1.47442
1.47111
1.46549
1.45868
1.45665
1.45627
1.45581
1.45517
1.45438
1.453
1.44938
1.44234
1.43408
1.42865
1.42708
1.42669
1.42704
1.42638
1.42458
1.42116
1.42632
1.6794
2.13659
2.23708
2.23441
2.2343
2.23619
2.24022
2.24541
2.25074
2.25509
2.25679
2.25671
2.25568
2.25393
2.25243
2.25152
2.2507
2.24942
2.24899
2.25033
2.25231
2.25365
2.25416
2.25326
2.24762
2.23966
2.23881
2.23999
2.24139
2.24154
2.24111
2.23924
1.96322
1.95977
1.95591
1.9515
1.94713
1.94316
1.93791
1.93357
1.93147
1.9286
1.92552
1.92259
1.91916
1.91506
1.90995
1.90471
1.89972
1.89368
1.89037
1.88819
1.88439
1.88054
1.87619
1.8707
1.86551
1.8603
1.85578
1.85095
1.84631
1.84374
1.84008
1.83534
1.83122
1.82598
1.82097
1.8163
1.81146
1.80708
1.80161
1.79573
1.79143
1.78662
1.78321
1.7809
1.77853
1.77496
1.76832
1.75903
1.74923
1.74587
1.74542
1.74448
1.74224
1.73847
1.73099
1.72202
1.71838
1.71789
1.7171
1.7148
1.70911
1.69937
1.68987
1.68495
1.68389
1.68431
1.6834
1.68095
1.67471
1.66452
1.65584
1.65314
1.65285
1.65245
1.6508
1.64576
1.63694
1.62968
1.62784
1.6279
1.62757
1.62571
1.62085
1.61144
1.60144
1.59695
1.59615
1.59603
1.59499
1.59295
1.58786
1.57937
1.57142
1.56898
1.56896
1.56878
1.5676
1.56383
1.55553
1.5479
1.54578
1.54531
1.54462
1.54302
1.54027
1.53354
1.52396
1.51979
1.51872
1.51761
1.51639
1.51461
1.5124
1.50985
1.50613
1.49905
1.4894
1.48654
1.48585
1.48501
1.48379
1.48207
1.47988
1.47696
1.47212
1.46516
1.46208
1.46158
1.46101
1.46032
1.45944
1.458
1.45445
1.44748
1.43921
1.43401
1.43261
1.4323
1.43257
1.43202
1.43074
1.42925
1.42512
1.41741
1.44975
1.87242
2.19638
2.22642
2.22638
2.22774
2.23083
2.2356
2.24129
2.24591
2.24707
2.24673
2.24548
2.24391
2.24278
2.24232
2.24217
2.24196
2.24234
2.2441
2.24579
2.24657
2.2464
2.24353
2.23542
2.22968
2.23015
2.23211
2.23401
2.23452
2.23426
2.23227
1.95772
1.95445
1.95176
1.94879
1.94597
1.94211
1.93694
1.93244
1.9282
1.92413
1.92091
1.91841
1.91636
1.91308
1.90864
1.90435
1.8983
1.89258
1.88932
1.88543
1.88127
1.87767
1.87392
1.87
1.86498
1.86016
1.8553
1.84868
1.84493
1.84165
1.83713
1.83318
1.82927
1.82564
1.82146
1.81652
1.81193
1.80656
1.79958
1.79476
1.79009
1.78607
1.78329
1.78105
1.77877
1.77393
1.76587
1.75757
1.75024
1.74852
1.7471
1.74432
1.74036
1.73405
1.72625
1.72303
1.72286
1.72233
1.72017
1.71484
1.7051
1.69495
1.68984
1.68869
1.68891
1.68796
1.68537
1.67923
1.66953
1.66121
1.65867
1.65849
1.65806
1.6564
1.65122
1.64205
1.63467
1.63279
1.63287
1.63279
1.63128
1.62684
1.61777
1.60773
1.60291
1.6019
1.60151
1.60021
1.59789
1.59249
1.58395
1.57631
1.57396
1.57398
1.57396
1.57294
1.56955
1.56152
1.55338
1.55099
1.5505
1.54978
1.54821
1.54573
1.54012
1.53058
1.52475
1.52374
1.52252
1.52108
1.51956
1.51761
1.51515
1.51201
1.50687
1.49768
1.49103
1.49003
1.48941
1.48857
1.48727
1.48544
1.4829
1.47882
1.47203
1.46743
1.46668
1.46595
1.46518
1.46427
1.46278
1.45933
1.45252
1.44435
1.43936
1.4381
1.43794
1.43824
1.43752
1.43609
1.43459
1.43145
1.42423
1.4151
1.41491
1.53642
2.03741
2.20966
2.22361
2.22271
2.22333
2.22584
2.23033
2.23499
2.23691
2.23688
2.23595
2.23452
2.23359
2.23344
2.2338
2.23458
2.23592
2.23774
2.23895
2.23916
2.2379
2.23242
2.22387
2.22117
2.22226
2.22464
2.22663
2.22734
2.2271
2.2245
1.95414
1.95035
1.94661
1.94398
1.94239
1.93979
1.93622
1.93177
1.92691
1.9216
1.91656
1.91428
1.91271
1.9099
1.90686
1.9031
1.89745
1.89236
1.88768
1.88308
1.8783
1.87403
1.87169
1.86846
1.86402
1.86022
1.85477
1.84894
1.8442
1.83916
1.83463
1.83005
1.82726
1.82496
1.82096
1.81684
1.81252
1.80604
1.79986
1.79435
1.7896
1.78613
1.78277
1.78089
1.77797
1.77175
1.76467
1.75797
1.75291
1.75096
1.74753
1.74301
1.73735
1.73001
1.72672
1.72663
1.72607
1.72406
1.71937
1.71048
1.70057
1.69538
1.69419
1.69405
1.69277
1.68991
1.68327
1.67353
1.66576
1.66346
1.66349
1.66325
1.6617
1.6567
1.64749
1.63975
1.63774
1.63774
1.63768
1.63629
1.63199
1.62314
1.61347
1.60864
1.60763
1.60727
1.60585
1.60338
1.59772
1.58884
1.58122
1.57888
1.57886
1.57885
1.57782
1.57467
1.5669
1.55856
1.55605
1.55569
1.55512
1.55365
1.55133
1.54649
1.53725
1.52988
1.52841
1.5274
1.5259
1.52418
1.52249
1.52047
1.51787
1.5139
1.50607
1.49689
1.4944
1.49381
1.49343
1.49246
1.49092
1.48878
1.48536
1.47912
1.47283
1.47145
1.4706
1.46969
1.46877
1.4674
1.4643
1.45762
1.44942
1.44458
1.44347
1.44343
1.44382
1.44287
1.44134
1.43968
1.43646
1.42956
1.42174
1.41506
1.4146
1.42296
1.7037
2.12726
2.21541
2.21298
2.2136
2.21596
2.22002
2.22384
2.22608
2.22678
2.22651
2.22582
2.22535
2.22539
2.22601
2.22733
2.22918
2.23083
2.2315
2.2311
2.2279
2.22037
2.21411
2.21361
2.21501
2.21748
2.21938
2.2201
2.21962
2.21564
1.95249
1.9494
1.94604
1.94206
1.93841
1.93627
1.93411
1.93044
1.92618
1.92017
1.91516
1.91233
1.90914
1.90586
1.90346
1.9006
1.89649
1.89131
1.88612
1.88106
1.87487
1.87167
1.86959
1.8661
1.86283
1.85938
1.85476
1.84935
1.84345
1.83832
1.83244
1.82756
1.82588
1.82327
1.81957
1.81626
1.8118
1.80605
1.7999
1.79431
1.79033
1.78572
1.78273
1.78055
1.77601
1.76968
1.76414
1.75808
1.75509
1.75181
1.74715
1.74226
1.73529
1.73082
1.73051
1.72935
1.72675
1.72212
1.71407
1.70525
1.70073
1.69986
1.69977
1.6983
1.69528
1.68811
1.67777
1.67011
1.66782
1.66789
1.66773
1.66622
1.66149
1.65258
1.64471
1.64266
1.64267
1.64259
1.64128
1.63696
1.62802
1.61855
1.61384
1.61294
1.61282
1.61148
1.60891
1.6032
1.59406
1.58629
1.58389
1.58378
1.58374
1.58263
1.57957
1.57207
1.5635
1.56059
1.56041
1.56015
1.55891
1.55688
1.55284
1.54405
1.53524
1.53297
1.53197
1.53054
1.52882
1.52698
1.52519
1.52316
1.52013
1.51391
1.50402
1.49899
1.49823
1.49794
1.49753
1.49628
1.49446
1.49165
1.48622
1.47857
1.47584
1.47493
1.4739
1.47295
1.47171
1.46913
1.4629
1.45465
1.44968
1.44863
1.44862
1.44912
1.44807
1.44644
1.44466
1.44137
1.4344
1.42621
1.42085
1.41872
1.41731
1.41857
1.46425
1.89082
2.17969
2.20477
2.20464
2.20745
2.212
2.2153
2.21672
2.21714
2.21729
2.21731
2.21747
2.21796
2.21886
2.22026
2.22208
2.22329
2.22337
2.22183
2.21647
2.2091
2.2063
2.2066
2.20822
2.21054
2.21224
2.21272
2.21159
2.20546
1.9504
1.94733
1.94418
1.93986
1.93652
1.93455
1.93165
1.92833
1.92443
1.91895
1.91389
1.9096
1.90556
1.90164
1.89934
1.89772
1.89461
1.89017
1.88578
1.87943
1.87325
1.86999
1.86627
1.86248
1.85939
1.85674
1.85359
1.84866
1.84366
1.83862
1.83182
1.82802
1.82475
1.82061
1.81711
1.81377
1.81001
1.80521
1.79949