/*--------------------------------*- C++ -*----------------------------------*\
  =========                 |
  \\      /  F ield         | OpenFOAM: The Open Source CFD Toolbox
   \\    /   O peration     | Website:  https://openfoam.org
    \\  /    A nd           | Version:  7
     \\/     M anipulation  |
\*---------------------------------------------------------------------------*/
FoamFile
{
    version     2.0;
    format      ascii;
    class       volScalarField;
    location    "1.3";
    object      p;
}
// * * * * * * * * * * * * * * * * * * * * * * * * * * * * * * * * * * * * * //

dimensions      [1 -1 -2 0 0 0 0];

internalField   nonuniform List<scalar> 
16192
(
1
1
1
1
1
1
1
1
1
1
1
1
1
1
1
1
1
1
1
1
1
1
1
1
1
1
1
1
1
1
1
1
1
1
1
1
1
1
1
1
1
1
1
1
1
1
1
1
1
1
1
1
1
1
1
1
1
1
1
1
1
1
1
1
1
1
1
1
1
1
1
1
1
1
1
1
1
1
1
1
1
1
1
1
1
1
1
1
1
1
1
1
1
1
1
1
1
1
1
1
1
1
1
1
1
1
1
1
1
1
1
1
1
1
1
1
1
1
1
1
1
1
1
1
1
1
1
1
1
1
1
1
1
1
1
1
1
1
1
1
1
1
1
1
1
1
1
1
1
1
1
1
1
1
1
1
1
1
1
1
1
1
1
1
1
1
1
1
1
1
1
1
1
1
1
1
1
1
1
1
1
1
1
1
1
1
1
1
1
1
1
1
1
1
1
1
1
1
1
1
1
1
1
1
1
1
1
1
1
1
1
1
1
1
1
1
1
1
1
1
1
1
1
1
1
1
1
1
1
1
1
1
1
1
1
1
1
1
1
1
1
1
1
1
1
1
1
1
1
1
1
1
1
1
1
1
1
1
1
1
1
1
1
1
1
1
1
1
1
1
1
1
1
1
1
1
1
1
1
1
1
1
1
1
1
1
1
1
1
1
1
1
1
1
1
1
1
1
1
1
1
1
1
1
1
1
1
1
1
1
1
1
1
1
1
1
1
1
1
1
1
1
1
1
1
1
1
1
1
1
1
1
1
1
1
1
1
1
1
1
1
1
1
1
1
1
1
1
1
1
1
1
1
1
1
1
1
1
1
1
1
1
1
1
1
1
1
1
1
1
1
1
1
1
1
1
1
1
1
1
1
1
1
1
1
1
1
1
1
1
1
1
1
1
1
1
1
1
1
1
1
1
1
1
1
1
1
1
1
1
1
1
1
1
1
1
1
1
1
1
1
1
1
1
1
1
1
1
1
1
1
1
1
1
1
1
1
1
1
1
1
1
1
1
1
1
1
1
1
1
1
1
1
1
1
1
1
1
1
1
1
1
1
1
1
1
1
1
1
1
1
1
1
1
1
1
1
1
1
1
1
1
1
1
1
1
1
1
1
1
1
1
1
1
1
1
1
1
1
1
1
1
1
1
1
1
1
1
1
1
1
1
1
1
1
1
1
1
1
1
1
1
1
1
1
1
1
1
1
1
1
1
1
1
1
1
1
1
1
1
1
1
1
1
1
1
1
1
1
1
1
1
1
1
1
1
1
1
1
1
1
1
1
1
1
1
1
1
1
1
1
1
1
1
1
1
1
1
1
1
1
1
1
1
1
1
1
1
1
1
1
1
1
1
1
1
1
1
1
1
1
1
1
1
1
1
1
1
1
1
1
1
1
1
1
1
1
1
1
1
1
1
1
1
1
1
1
1
1
1
1
1
1
1
1
1
1
1
1
1
1
1
1
1
1
1
1
1
1
1
1
1
1
1
1
1
1
1
1
1
1
1
1
1
1
1
1
1
1
1
1
1
1
1
1
1
1
1
1
1
1
1
1
1
1
1
1
1
1
1
1
1
1
1
1
1
1
1
1
1
1
1
1
1
1
1
1
1
1
1
1
1
1
1
1
1
1
1
1
1
1
1
1
1
1
1
1
1
1
1
1
1
1
1
1
1
1
1
1
1
1
1
1
1
1
1
1
1
1
1
1
1
1
1
1
1
1
1
1
1
1
1
1
1
1
1
1
1
1
1
1
1
1
1
1
1
1
1
1
1
1
1
1
1
1
1
1
1
1
1
1
1
1
1
1
1
1
1
1
1
1
1
1
1
1
1
1
1
1
1
1
1
1
1
1
1
1
1
1
1
1
1
1
1
1
1
1
1
1
1
1
1
1
1
1
1
1
1
1
1
1
1
1
1
1
1
1
1
1
1
1
1
1
1
1
1
1
1
1
1
1
1
1
1
1
1
1
1
1
1
1
1
1
1
1
1
1
1
1
1
1
1
1
1
1
1
1
1
1
1
1
1
1
1
1
1
1
1
1
1
1
1
1
1
1
1
1
1
1
1
1
1
1
1
1
1
1
1
1
1
1
1
1
1
1
1
1
1
1
1
1
1
1
1
1
1
1
1
1
1
1
1
1
1
1
1
1
1
1
1
1
1
1
1
1
1
1
1
1
1
1
1
1
1
1
1
1
1
1
1
1
1
1
1
1
1
1
1
1
1
1
1
1
1
1
1
1
1
1
1
1
1
1
1
1
1
1
1
1
1
1
1
1
1
1
1
1
1
1
1
1
1
1
1
1
1
1
1
1
1
1
1
1
1
1
1
1
1
1
1
1
1
1
1
1
1
1
1
1
1
1
1
1
1
1
1
1
1
1
1
1
1
1
1
1
1
1
1
1
1
1
1
1
1
1
1
1
1
1
1
1
1
1
1
1
1
1
1
1
1
1
1
1
1
1
1
1
1
1
1
1
1
1
1
1
1
1
1
1
1
1
1
1
1
1
1
1
1
1
1
1
1
1
1
1
1
1
1
1
1
1
1
1
1
1
1
1
1
1
1
1
1
1
1
1
1
1
1
1
1
1
1
1
1
1
1
1
1
1
1
1
1
1
1
1
1
1
1
1
1
1
1
1
1
1
1
1
1
1
1
1
1
1
1
1
1
1
1
1
1
1
1
1
1
1
1
1
1
1
1
1
1
1
1
1
1
1
1
1
1
1
1
1
1
1
1
1
1
1
1
1
1
1
1
1
1
1
1
1
1
1
1
1
1
1
1
1
1
1
1
1
1
1
1
1
1
1
1
1
1
1
1
1
1
1
1
1
1
1
1
1
1
1
1
1
1
1
1
1
1
1
1
1
1
1
1
1
1
1
1
1
1
1
1
1
1
1
1
1
1
1
1
1
1
1
1
1
1
1
1
1
1
1
1
1
1
1
1
1
1
1
1.00003
1.00323
1.05413
1.33322
2.62579
4.12009
4.33755
4.45468
4.4884
4.4497
4.45394
4.47093
4.47162
4.44946
4.38186
4.33166
4.32023
4.31415
4.29614
4.28394
4.28445
4.27223
4.24519
4.23138
4.22612
4.20431
4.17153
4.15149
4.13164
4.10948
4.1002
4.08594
4.05966
4.03447
4.01119
3.9922
3.99088
4.00004
4.01972
4.05367
4.10946
4.20878
4.25887
4.29111
4.31178
4.31697
4.30837
4.29249
4.26695
4.23462
4.20048
4.16533
4.12897
4.08749
4.04218
3.99767
3.96411
3.94535
3.9333
3.92629
3.91307
3.89851
3.86876
3.82149
3.76514
3.72781
3.70626
3.68603
3.66037
3.63088
3.59746
3.56858
3.5612
3.55393
3.54063
3.51925
3.49153
3.46125
3.42733
3.39313
3.37347
3.37061
3.38424
3.38013
3.35863
3.32773
3.30376
3.2821
3.2537
3.21163
3.16421
3.13377
3.1235
3.12764
3.14815
3.14689
3.13163
3.09432
3.034
2.9852
2.96971
2.96878
2.99284
3.02622
3.02658
3.00521
2.96784
2.90757
2.8456
2.81117
2.80262
2.80709
2.83355
2.86062
2.86274
2.84759
2.80919
2.74049
2.68589
2.66738
2.66403
2.67863
2.72176
2.77883
2.79979
2.79786
2.77881
2.73024
2.64734
2.56964
2.535
2.52516
2.52668
2.52972
2.53959
2.55446
2.57081
2.58876
2.59805
2.59113
2.57412
2.54728
2.50712
2.45365
2.418
2.40652
2.40521
2.40996
2.41233
2.41137
2.4043
2.38003
2.34242
2.3145
2.30391
2.30413
2.31353
2.3319
2.33073
2.31796
2.29753
2.25802
2.19718
2.16457
2.15593
2.15384
2.16342
2.18046
2.18086
2.176
2.17092
1
1
1
1
1
1
1
1
1
1
1
1
1
1
1
1
1
1
1
1
1
1
1
1
1
1
1
1
1
1
1
1
1
1
1
1
1
1
1
1
1
1
1
1
1
1
1
1
1
1
1
1
1
1
1
1
1
1
1
1
1.00001
1.00064
1.01579
1.27038
2.59733
3.72035
4.27736
4.51886
4.50837
4.49959
4.47893
4.45403
4.39689
4.35976
4.3303
4.30643
4.31066
4.31516
4.31956
4.30142
4.26934
4.25248
4.24932
4.23379
4.20196
4.17719
4.15956
4.13581
4.12307
4.11665
4.0978
4.07166
4.05178
4.02637
4.0009
3.99618
3.98789
3.98154
3.98958
4.02605
4.11022
4.20658
4.26119
4.29724
4.32192
4.32422
4.31723
4.29961
4.26943
4.2314
4.18897
4.14433
4.09479
4.04497
4.01131
3.99623
3.98745
3.98082
3.96512
3.94789
3.91556
3.87092
3.81751
3.77149
3.74445
3.7267
3.70476
3.67819
3.65181
3.62769
3.61295
3.60077
3.58152
3.55649
3.53005
3.50145
3.46962
3.44058
3.42305
3.42087
3.43672
3.43119
3.40646
3.36752
3.33518
3.3121
3.28796
3.25378
3.21039
3.17634
3.16349
3.16368
3.187
3.19333
3.17596
3.13762
3.07831
3.03132
3.01549
3.01467
3.03661
3.06361
3.05918
3.03463
2.99385
2.93232
2.87772
2.84802
2.84093
2.84655
2.87784
2.90144
2.89969
2.88049
2.83782
2.76371
2.71116
2.69366
2.6915
2.7086
2.75599
2.81418
2.83493
2.8332
2.81318
2.76406
2.67827
2.60035
2.56571
2.55602
2.55861
2.56428
2.5786
2.59539
2.60974
2.62283
2.62814
2.61967
2.60123
2.57341
2.53158
2.4781
2.44515
2.43475
2.43422
2.44073
2.44223
2.44035
2.42996
2.40219
2.3623
2.33566
2.32604
2.32653
2.3351
2.35236
2.35147
2.3388
2.31836
2.28117
2.2208
2.18555
2.17618
2.17367
2.18178
2.19921
2.20021
2.19555
2.19034
2.18615
1
1
1
1
1
1
1
1
1
1
1
1
1
1
1
1
1
1
1
1
1
1
1
1
1
1
1
1
1
1
1
1
1
1
1
1
1
1
1
1
1
1
1
1
1
1
1
1
1
1
1
1
1
1
1
1
1
1
1
1
1
1
1.00019
1.01188
1.28133
2.33016
3.34612
4.29897
4.55237
4.50359
4.44086
4.4009
4.38145
4.34454
4.30148
4.3173
4.3384
4.34715
4.32943
4.29248
4.27364
4.27256
4.25965
4.22918
4.20257
4.19133
4.17064
4.14411
4.13791
4.12636
4.10296
4.08438
4.06784
4.03903
4.01506
4.00059
3.9765
3.95678
3.95417
3.97215
4.02626
4.12921
4.20902
4.26511
4.31229
4.32965
4.32625
4.31427
4.28948
4.25165
4.20792
4.15754
4.1014
4.05937
4.04315
4.03659
4.03232
4.01342
3.99165
3.95761
3.9112
3.86305
3.82313
3.78859
3.76799
3.74801
3.72543
3.70409
3.68621
3.67088
3.64993
3.62169
3.59427
3.56822
3.54105
3.51176
3.48798
3.47267
3.47039
3.48617
3.4795
3.45371
3.41068
3.36858
3.34337
3.32166
3.29369
3.25614
3.22026
3.20588
3.20313
3.22582
3.23668
3.21804
3.17947
3.12177
3.07658
3.06121
3.06091
3.08096
3.10194
3.09481
3.06703
3.0221
2.9583
2.90976
2.8845
2.87871
2.88701
2.92276
2.94133
2.9343
2.91084
2.86358
2.78698
2.73875
2.72209
2.72079
2.73972
2.79062
2.84797
2.86717
2.865
2.8442
2.796
2.71006
2.63269
2.59808
2.58926
2.59279
2.60204
2.6204
2.63638
2.64685
2.65457
2.6564
2.6475
2.62789
2.59862
2.55429
2.50074
2.47058
2.462
2.46267
2.47157
2.47274
2.46961
2.45583
2.42468
2.38222
2.35634
2.3474
2.34796
2.3553
2.37193
2.37219
2.35991
2.33944
2.30372
2.244
2.20633
2.19566
2.19272
2.19971
2.21865
2.2218
2.21759
2.21301
2.20926
2.19724
1
1
1
1
1
1
1
1
1
1
1
1
1
1
1
1
1
1
1
1
1
1
1
1
1
1
1
1
1
1
1
1
1
1
1
1
1
1
1
1
1
1
1
1
1
1
1
1
1
1
1
1
1
1
1
1
1
1
1
1
1
1
1
1.00016
1.01289
1.20016
1.76172
3.13396
4.38228
4.38699
4.41802
4.41549
4.36253
4.30329
4.32863
4.35856
4.38246
4.36952
4.31922
4.2939
4.29609
4.28215
4.24853
4.23054
4.22403
4.20555
4.17252
4.1594
4.15285
4.13001
4.10876
4.09658
4.07366
4.04455
4.02415
4.00079
3.97281
3.94869
3.93473
3.94266
3.97087
4.03956
4.13261
4.20586
4.2858
4.32008
4.32126
4.31653
4.30126
4.26687
4.22536
4.17377
4.11885
4.09577
4.08386
4.07925
4.06209
4.03539
4.00026
3.95035
3.89844
3.86658
3.83845
3.81478
3.79341
3.77415
3.75687
3.74159
3.72657
3.69985
3.66394
3.63303
3.60639
3.57974
3.55311
3.53469
3.52199
3.51954
3.53254
3.52361
3.49772
3.45548
3.40464
3.37548
3.35535
3.33238
3.30058
3.26583
3.25054
3.24648
3.26611
3.2767
3.25673
3.21881
3.16342
3.12054
3.10562
3.1057
3.12509
3.14157
3.13192
3.1021
3.05365
2.9882
2.94374
2.92163
2.91683
2.9282
2.96641
2.98061
2.96842
2.94006
2.88712
2.8103
2.76771
2.75302
2.75171
2.77119
2.82447
2.87934
2.89602
2.89324
2.87205
2.82547
2.74045
2.6661
2.63283
2.62517
2.62929
2.64218
2.6633
2.67577
2.68096
2.68446
2.68371
2.67465
2.65442
2.62336
2.57597
2.52226
2.4942
2.48723
2.4896
2.50181
2.50377
2.49949
2.48276
2.44862
2.40293
2.37644
2.3681
2.36899
2.3753
2.39148
2.39327
2.38125
2.36076
2.32593
2.26696
2.22733
2.21514
2.21162
2.21778
2.23897
2.24628
2.24333
2.23992
2.23514
2.21937
2.19102
1
1
1
1
1
1
1
1
1
1
1
1
1
1
1
1
1
1
1
1
1
1
1
1
1
1
1
1
1
1
1
1
1
1
1
1
1
1
1
1
1
1
1
1
1
1
1
1
1
1
1
1
1
1
1
1
1
1
1
1
1
1
1
1
1.00013
1.00549
1.06356
1.53669
3.15915
4.00866
4.31096
4.43609
4.38517
4.37579
4.39301
4.43306
4.41807
4.34961
4.30662
4.31311
4.30739
4.2685
4.25562
4.25221
4.23734
4.20212
4.18186
4.18034
4.16089
4.13191
4.11783
4.0991
4.07174
4.05058
4.03115
4.00317
3.97286
3.94958
3.92796
3.92505
3.93477
3.96856
4.04312
4.12134
4.22543
4.2921
4.31024
4.31623
4.30677
4.27887
4.2433
4.20087
4.16329
4.14135
4.12706
4.10921
4.08096
4.04203
3.99525
3.9361
3.89896
3.87995
3.86338
3.84278
3.82395
3.80858
3.79485
3.77753
3.74615
3.70706
3.67177
3.64409
3.61784
3.59385
3.57967
3.5697
3.56825
3.57764
3.56502
3.53839
3.49867
3.44277
3.40762
3.38789
3.36891
3.34301
3.31267
3.29706
3.29223
3.30755
3.31472
3.29249
3.25476
3.20166
3.16143
3.14733
3.1483
3.16763
3.18159
3.17055
3.13938
3.08792
3.02131
2.97916
2.95996
2.95625
2.97049
3.00833
3.01789
3.00232
2.97049
2.91101
2.83505
2.79837
2.78586
2.78437
2.80344
2.8572
2.90787
2.92157
2.91771
2.89683
2.85285
2.76959
2.69839
2.66805
2.66215
2.66683
2.68363
2.70544
2.71295
2.71342
2.71404
2.71097
2.70092
2.67992
2.64768
2.59736
2.54264
2.51601
2.51001
2.51443
2.53086
2.53451
2.52966
2.51105
2.474
2.4244
2.39629
2.38846
2.39006
2.39604
2.41183
2.41509
2.4031
2.38224
2.34755
2.28959
2.249
2.23539
2.23137
2.23758
2.26124
2.27407
2.27328
2.2705
2.26182
2.24106
2.20935
2.16453
1
1
1
1
1
1
1
1
1
1
1
1
1
1
1
1
1
1
1
1
1
1
1
1
1
1
1
1
1
1
1
1
1
1
1
1
1
1
1
1
1
1
1
1
1
1
1
1
1
1
1
1
1
1
1
1
1
1
1
1
1
1
1
1
1
1.00002
1.00116
1.03715
1.5237
2.93938
3.81806
4.28271
4.4739
4.48077
4.47601
4.44427
4.36982
4.30918
4.31233
4.33153
4.29098
4.27628
4.27722
4.26935
4.23393
4.20513
4.20298
4.1907
4.15717
4.13696
4.12396
4.10118
4.07504
4.05847
4.03704
4.00475
3.97978
3.95532
3.93088
3.92289
3.9239
3.93346
3.96645
4.0305
4.12851
4.24243
4.28501
4.30445
4.30461
4.2867
4.26801
4.24629
4.21746
4.18713
4.1605
4.12872
4.08715
4.03899
3.98086
3.93429
3.91276
3.90465
3.8917
3.87407
3.858
3.84321
3.8244
3.78927
3.74705
3.70941
3.68073
3.6544
3.6344
3.62353
3.61567
3.61456
3.61996
3.60552
3.57792
3.53986
3.48273
3.43963
3.41855
3.40223
3.38188
3.35881
3.34576
3.34123
3.35146
3.35018
3.32533
3.28744
3.23683
3.20008
3.18618
3.18726
3.20697
3.22028
3.20822
3.17629
3.12243
3.05586
3.01638
2.99943
2.99656
3.01282
3.04881
3.05384
3.03556
3.00174
2.93727
2.86212
2.82997
2.8193
2.81783
2.83725
2.89062
2.93444
2.94448
2.93936
2.91942
2.87767
2.79707
2.72906
2.70175
2.69728
2.70264
2.72414
2.74584
2.74819
2.74597
2.74464
2.73862
2.72576
2.70357
2.67108
2.61886
2.56309
2.53661
2.53069
2.5369
2.55775
2.56448
2.55927
2.54008
2.50112
2.44725
2.41647
2.40889
2.41147
2.4183
2.4339
2.4372
2.42526
2.4042
2.36841
2.31111
2.27132
2.25676
2.25295
2.26076
2.28702
2.30501
2.30656
2.30347
2.28815
2.26208
2.22539
2.18174
2.15453
1
1
1
1
1
1
1
1
1
1
1
1
1
1
1
1
1
1
1
1
1
1
1
1
1
1
1
1
1
1
1
1
1
1
1
1
1
1
1
1
1
1
1
1
1
1
1
1
1
1
1
1
1
1
1
1
1
1
1
1
1
1
1
1
1
1
1.00001
1.00072
1.03666
1.49767
2.48189
3.51733
4.40919
4.51406
4.45431
4.37494
4.33156
4.31161
4.31919
4.31623
4.30241
4.30712
4.30475
4.26504
4.22533
4.21808
4.21852
4.18287
4.15043
4.14449
4.13283
4.10316
4.08191
4.06673
4.03989
4.01207
3.99206
3.9636
3.94103
3.93237
3.924
3.92155
3.92748
3.96187
4.03514
4.15547
4.2376
4.27406
4.29682
4.29917
4.2973
4.28508
4.259
4.22236
4.18399
4.13933
4.08826
4.02944
3.97558
3.94723
3.93848
3.9346
3.9216
3.90473
3.88821
3.86728
3.83161
3.78484
3.74321
3.71579
3.68989
3.67312
3.66523
3.66092
3.65943
3.65935
3.64456
3.61863
3.58018
3.52264
3.47357
3.44896
3.43263
3.41727
3.40282
3.39392
3.39157
3.39754
3.38722
3.35865
3.31807
3.26972
3.23652
3.2228
3.22347
3.24307
3.25594
3.24315
3.21107
3.15587
3.09014
3.05355
3.03951
3.03775
3.05554
3.08727
3.08861
3.06859
3.03329
2.96649
2.89318
2.86241
2.85311
2.85181
2.87178
2.92375
2.96025
2.9656
2.95875
2.9402
2.90089
2.82275
2.75738
2.73295
2.72937
2.73455
2.76044
2.78427
2.78297
2.7786
2.77536
2.76688
2.74944
2.72552
2.69316
2.64039
2.58407
2.55711
2.55109
2.55773
2.58188
2.59341
2.5878
2.56855
2.52918
2.47203
2.43816
2.43012
2.43355
2.44201
2.45794
2.46043
2.44777
2.4262
2.38829
2.33073
2.29344
2.27912
2.27624
2.28748
2.31784
2.33889
2.34108
2.33515
2.31294
2.28177
2.23978
2.19828
2.17491
2.16584
1
1
1
1
1
1
1
1
1
1
1
1
1
1
1
1
1
1
1
1
1
1
1
1
1
1
1
1
1
1
1
1
1
1
1
1
1
1
1
1
1
1
1
1
1
1
1
1
1
1
1
1
1
1
1
1
1
1
1
1
1
1
1
1
1
1
1
1
1.00071
1.02998
1.24763
1.92575
3.59069
4.3216
4.32417
4.36481
4.34518
4.31448
4.33325
4.33094
4.34461
4.34555
4.29641
4.24013
4.22495
4.23842
4.20529
4.16793
4.16015
4.15353
4.12971
4.10466
4.09398
4.07437
4.04431
4.025
4.00538
3.97555
3.95875
3.94492
3.92795
3.91562
3.91293
3.92442
3.96554
4.05296
4.16011
4.22681
4.28209
4.30869
4.31095
4.30167
4.27914
4.24221
4.19698
4.14618
4.08765
4.02568
3.98603
3.97391
3.97
3.96517
3.94918
3.93129
3.9087
3.8724
3.8226
3.77382
3.74725
3.72524
3.7103
3.70413
3.70187
3.70163
3.69794
3.683
3.66007
3.62199
3.56271
3.50806
3.48051
3.46278
3.45131
3.44379
3.43951
3.44109
3.442
3.42534
3.39313
3.34884
3.30148
3.27139
3.25831
3.25803
3.27645
3.28882
3.27465
3.2423
3.18679
3.12366
3.08946
3.07774
3.07758
3.09786
3.12477
3.12165
3.10049
3.06454
2.99688
2.92717
2.89725
2.88882
2.88695
2.90657
2.95556
2.9843
2.98515
2.97644
2.95937
2.92281
2.84764
2.78376
2.76135
2.75839
2.76274
2.79049
2.82043
2.81793
2.81141
2.80596
2.79419
2.77298
2.74762
2.71374
2.66056
2.60626
2.57884
2.57199
2.57847
2.60455
2.62129
2.61587
2.59565
2.5562
2.49802
2.46228
2.45327
2.45683
2.46717
2.48317
2.48425
2.47135
2.44849
2.40679
2.34918
2.31554
2.30218
2.3008
2.31678
2.35193
2.37463
2.37643
2.36542
2.33761
2.29979
2.25361
2.21572
2.19507
2.18695
2.1873
1
1
1
1
1
1
1
1
1
1
1
1
1
1
1
1
1
1
1
1
1
1
1
1
1
1
1
1
1
1
1
1
1
1
1
1
1
1
1
1
1
1
1
1
1
1
1
1
1
1
1
1
1
1
1
1
1
1
1
1
1
1
1
1
1
1
1
1
1
1.00031
1.00793
1.09989
1.84415
3.4179
4.02792
4.29716
4.3747
4.37733
4.36369
4.36554
4.37088
4.31697
4.25675
4.22954
4.23957
4.21799
4.19063
4.18154
4.1724
4.1466
4.12418
4.11656
4.10842
4.07932
4.05322
4.03719
4.01661
3.99198
3.97882
3.9597
3.93456
3.91511
3.90775
3.90955
3.92252
3.97164
4.07432
4.16765
4.25127
4.30026
4.30626
4.30101
4.28376
4.25014
4.20403
4.15183
4.09076
4.03483
4.01439
4.00586
4.00291
3.99175
3.9739
3.95061
3.91373
3.86087
3.80449
3.77556
3.75783
3.74615
3.7407
3.73882
3.73893
3.73598
3.72236
3.70194
3.6653
3.60414
3.54243
3.51218
3.4943
3.48546
3.48239
3.48228
3.48559
3.48161
3.46234
3.42793
3.3793
3.33246
3.3047
3.29323
3.29227
3.30875
3.31961
3.3046
3.27254
3.21602
3.1551
3.12294
3.11326
3.11488
3.13655
3.15814
3.15167
3.12975
3.09379
3.02672
2.96199
2.93373
2.92581
2.92386
2.94279
2.98679
3.00753
3.00441
2.99422
2.97754
2.9423
2.87035
2.80877
2.78785
2.78521
2.78871
2.81482
2.85299
2.85445
2.84565
2.83669
2.82072
2.79727
2.77026
2.73337
2.67887
2.6294
2.60314
2.59535
2.60054
2.62667
2.648
2.6435
2.62313
2.58275
2.52417
2.4885
2.47891
2.48203
2.49389
2.50885
2.50822
2.49548
2.47136
2.42456
2.36728
2.33832
2.32633
2.32656
2.34799
2.38835
2.41037
2.41059
2.39474
2.36124
2.31586
2.2682
2.23408
2.21474
2.20859
2.20947
2.21399
1
1
1
1
1
1
1
1
1
1
1
1
1
1
1
1
1
1
1
1
1
1
1
1
1
1
1
1
1
1
1
1
1
1
1
1
1
1
1
1
1
1
1
1
1
1
1
1
1
1
1
1
1
1
1
1
1
1
1
1
1
1
1
1
1
1
1
1
1
1
1.00004
1.00273
1.07823
1.7812
3.09288
3.86475
4.31096
4.4086
4.38704
4.35463
4.30514
4.27674
4.25433
4.22494
4.22263
4.21351
4.20775
4.19884
4.16718
4.14165
4.13427
4.13601
4.11174
4.07918
4.06435
4.05242
4.02815
4.00998
3.99744
3.97355
3.94646
3.92199
3.90839
3.90972
3.91867
3.94047
4.00488
4.09551
4.19151
4.2727
4.29528
4.2946
4.28315
4.2547
4.20688
4.1539
4.09987
4.06522
4.05021
4.04019
4.03181
4.01604
3.99257
3.95575
3.9016
3.83726
3.80412
3.78821
3.77885
3.77369
3.77356
3.7745
3.77172
3.76144
3.74308
3.70792
3.64613
3.5776
3.54475
3.528
3.52057
3.51929
3.52155
3.52323
3.51633
3.49644
3.46055
3.40842
3.36277
3.33772
3.32757
3.32608
3.34113
3.35038
3.33435
3.30271
3.24684
3.18738
3.15628
3.14801
3.14986
3.17093
3.18644
3.17751
3.15543
3.11863
3.05318
2.99551
2.97013
2.9628
2.96125
2.98013
3.01935
3.0328
3.02594
3.01349
2.99555
2.95949
2.8897
2.83171
2.81235
2.81032
2.8141
2.83787
2.88112
2.8907
2.88091
2.86716
2.84675
2.82219
2.79241
2.75043
2.69574
2.6535
2.62967
2.6216
2.62532
2.65022
2.67335
2.67011
2.65055
2.61061
2.55117
2.5165
2.50706
2.5093
2.52171
2.53481
2.5327
2.5199
2.49492
2.44266
2.38563
2.3606
2.35117
2.35393
2.38109
2.42578
2.4459
2.44412
2.42288
2.38402
2.33133
2.28433
2.25351
2.23466
2.23056
2.23229
2.23727
2.26319
1
1
1
1
1
1
1
1
1
1
1
1
1
1
1
1
1
1
1
1
1
1
1
1
1
1
1
1
1
1
1
1
1
1
1
1
1
1
1
1
1
1
1
1
1
1
1
1
1
1
1
1
1
1
1
1
1
1
1
1
1
1
1
1
1
1
1
1
1
1
1
1.00002
1.002
1.07286
1.60233
2.52506
3.75275
4.38756
4.36767
4.30027
4.29261
4.2811
4.22826
4.22075
4.2296
4.2296
4.23249
4.199
4.16386
4.15307
4.15938
4.13806
4.10178
4.08802
4.08281
4.06081
4.03513
4.02618
4.01098
3.98298
3.96023
3.93611
3.91972
3.92049
3.9231
3.92932
3.95469
4.01715
4.10191
4.21016
4.26828
4.28078
4.27512
4.2474
4.19634
4.15675
4.12911
4.10683
4.0868
4.07246
4.05705
4.03407
3.99778
3.94534
3.87468
3.83421
3.818
3.80946
3.8045
3.80632
3.81196
3.80839
3.7991
3.7822
3.74775
3.68507
3.6122
3.57791
3.56286
3.55614
3.55502
3.55714
3.55588
3.54723
3.52694
3.49042
3.43607
3.39155
3.36926
3.36082
3.35967
3.37379
3.3815
3.36522
3.33343
3.27838
3.22093
3.19098
3.18333
3.18505
3.20284
3.21166
3.20045
3.17761
3.13815
3.07496
3.02643
3.00448
2.99829
2.99788
3.01816
3.05312
3.06093
3.05108
3.03584
3.01489
2.97571
2.90666
2.85296
2.83495
2.83344
2.83855
2.86129
2.90609
2.92367
2.91473
2.89695
2.87338
2.84669
2.81255
2.7646
2.71276
2.67939
2.65847
2.65017
2.6528
2.67625
2.69885
2.69598
2.67754
2.63902
2.58027
2.54577
2.5368
2.5384
2.55159
2.56062
2.55741
2.54477
2.51814
2.46107
2.40636
2.38421
2.37667
2.38251
2.41493
2.46249
2.48009
2.47513
2.44978
2.40614
2.347
2.30155
2.27309
2.25514
2.25273
2.25565
2.26177
2.29034
2.33082
1
1
1
1
1
1
1
1
1
1
1
1
1
1
1
1
1
1
1
1
1
1
1
1
1
1
1
1
1
1
1
1
1
1
1
1
1
1
1
1
1
1
1
1
1
1
1
1
1
1
1
1
1
1
1
1
1
1
1
1
1
1
1
1
1
1
1
1
1
1
1
1
1.00001
1.0016
1.03898
1.27891
2.17307
3.82253
4.17319
4.25291
4.30327
4.27082
4.23585
4.2403
4.24423
4.2657
4.23404
4.19143
4.17651
4.18225
4.15724
4.1242
4.11394
4.10911
4.08645
4.06013
4.04707
4.04164
4.01721
3.99326
3.97902
3.96106
3.94757
3.94035
3.9278
3.91819
3.92355
3.9526
4.01321
4.11272
4.20889
4.24945
4.25136
4.22097
4.18603
4.17214
4.16394
4.14332
4.11971
4.09872
4.07439
4.03927
3.99007
3.91844
3.8682
3.84887
3.84027
3.83572
3.83951
3.85112
3.8483
3.83798
3.81985
3.78419
3.71924
3.64399
3.60981
3.59632
3.59057
3.58958
3.59044
3.58661
3.5767
3.55564
3.51797
3.46269
3.42019
3.3993
3.39235
3.39243
3.40647
3.41256
3.3963
3.36523
3.31134
3.25485
3.22661
3.21915
3.22095
3.2349
3.23722
3.22317
3.19785
3.15381
3.09368
3.05442
3.03583
3.03075
3.03249
3.05625
3.08731
3.09039
3.07854
3.06049
3.03606
2.99231
2.92314
2.87445
2.85745
2.85599
2.86217
2.88478
2.92944
2.95231
2.94529
2.92568
2.90035
2.86987
2.82879
2.77735
2.73297
2.70666
2.68877
2.68069
2.68254
2.70443
2.72482
2.7214
2.70381
2.66726
2.61052
2.57652
2.56755
2.56829
2.58179
2.58771
2.58243
2.56859
2.53995
2.48074
2.42887
2.40935
2.40404
2.41273
2.45007
2.49801
2.51272
2.50401
2.47649
2.42824
2.36394
2.31955
2.29326
2.27597
2.27477
2.27915
2.28781
2.31942
2.35992
2.36765
1
1
1
1
1
1
1
1
1
1
1
1
1
1
1
1
1
1
1
1
1
1
1
1
1
1
1
1
1
1
1
1
1
1
1
1
1
1
1
1
1
1
1
1
1
1
1
1
1
1
1
1
1
1
1
1
1
1
1
1
1
1
1
1
1
1
1
1
1
1
1
1
1
1.00001
1.00043
1.01154
1.1611
2.12661
3.52564
4.05061
4.26278
4.32072
4.28589
4.27529
4.2952
4.26259
4.21905
4.20447
4.21213
4.1788
4.14503
4.13734
4.13217
4.10857
4.08605
4.07113
4.06817
4.05588
4.0285
4.01721
4.00469
3.98876
3.97336
3.95249
3.92925
3.90964
3.9026
3.91437
3.94621
4.0138
4.11505
4.18427
4.20555
4.19126
4.1855
4.19017
4.18948
4.16913
4.14257
4.11469
4.08062
4.03495
3.96636
3.90853
3.88356
3.87427
3.86996
3.87561
3.89138
3.88978
3.87825
3.85727
3.81851
3.74953
3.67301
3.64037
3.6273
3.62259
3.62275
3.62286
3.61759
3.60703
3.58485
3.54508
3.48865
3.44837
3.42905
3.42281
3.42399
3.43802
3.44254
3.42665
3.39685
3.34542
3.28971
3.26206
3.25505
3.25652
3.26742
3.26469
3.24777
3.21866
3.16959
3.11255
3.07976
3.06437
3.06028
3.06499
3.09281
3.1202
3.11926
3.10566
3.08537
3.05792
3.00908
2.93988
2.89724
2.88173
2.88018
2.88653
2.90918
2.95278
2.97778
2.97267
2.95286
2.92553
2.88888
2.84146
2.79175
2.75654
2.73431
2.71954
2.71216
2.71419
2.73475
2.75136
2.74644
2.7292
2.69437
2.64065
2.60791
2.59891
2.59858
2.61143
2.61612
2.60824
2.59209
2.56045
2.50057
2.45407
2.43678
2.43357
2.44501
2.48654
2.53185
2.5424
2.5304
2.50195
2.45036
2.38116
2.33748
2.31401
2.29776
2.29727
2.30324
2.31544
2.35235
2.3888
2.39228
2.37809
1
1
1
1
1
1
1
1
1
1
1
1
1
1
1
1
1
1
1
1
1
1
1
1
1
1
1
1
1
1
1
1
1
1
1
1
1
1
1
1
1
1
1
1
1
1
1
1
1
1
1
1
1
1
1
1
1
1
1
1
1
1
1
1
1
1
1
1
1
1
1
1
1
1
1
1.00011
1.00594
1.13805
2.02823
3.21317
3.90302
4.29429
4.37723
4.34308
4.28631
4.24656
4.23349
4.2457
4.20876
4.16767
4.16046
4.16136
4.1414
4.11385
4.09986
4.09875
4.09906
4.07149
4.05513
4.0457
4.02484
4.00503
3.9865
3.95887
3.92908
3.90578
3.89076
3.89252
3.90516
3.93328
4.00494
4.08708
4.13929
4.16353
4.18398
4.20569
4.20152
4.18237
4.15468
4.12193
4.07973
4.01624
3.95557
3.92423
3.91361
3.91023
3.91807
3.93259
3.93032
3.91771
3.893
3.85156
3.77834
3.70097
3.66982
3.65723
3.65243
3.65547
3.65631
3.64992
3.6388
3.61534
3.57327
3.51546
3.47709
3.45892
3.45293
3.45435
3.46767
3.4708
3.45585
3.42759
3.37934
3.32468
3.29712
3.29009
3.29151
3.30038
3.2943
3.27488
3.24187
3.18783
3.13335
3.10485
3.09165
3.08833
3.09618
3.12763
3.15044
3.14615
3.13095
3.10908
3.07826
3.02476
2.95818
2.92122
2.90733
2.90632
2.91276
2.93582
2.9779
3.00166
2.99773
2.97823
2.94727
2.90235
2.85274
2.81148
2.78273
2.76178
2.75009
2.74377
2.74599
2.76577
2.77924
2.77254
2.75457
2.7202
2.66969
2.63914
2.63007
2.62926
2.64047
2.645
2.63481
2.61587
2.58076
2.52194
2.48182
2.46678
2.46524
2.48012
2.52393
2.56301
2.56895
2.55442
2.52564
2.47188
2.39894
2.35637
2.33523
2.32064
2.32113
2.32852
2.34627
2.38808
2.41834
2.41557
2.40091
2.37305
1
1
1
1
1
1
1
1
1
1
1
1
1
1
1
1
1
1
1
1
1
1
1
1
1
1
1
1
1
1
1
1
1
1
1
1
1
1
1
1
1
1
1
1
1
1
1
1
1
1
1
1
1
1
1
1
1
1
1
1
1
1
1
1
1
1
1
1
1
1
1
1
1
1
1
1
1.00006
1.00492
1.12644
1.7295
2.66719
3.91333
4.38425
4.31999
4.25499
4.27189
4.28811
4.2372
4.19091
4.18318
4.19595
4.20108
4.16078
4.1341
4.1308
4.13778
4.11303
4.08694
4.07822
4.06312
4.03337
4.01644
3.9977
3.96462
3.9323
3.90592
3.8877
3.8816
3.87727
3.88386
3.92051
3.99122
4.06724
4.13002
4.17925
4.20686
4.20346
4.18659
4.15947
4.12221
4.06463
4.00538
3.97143
3.9589
3.95673
3.96725
3.97576
3.96922
3.95359
3.92569
3.88239
3.8061
3.73005
3.69899
3.68681
3.68182
3.68694
3.69215
3.68443
3.67208
3.64662
3.60245
3.54314
3.50674
3.48946
3.4835
3.48413
3.49545
3.49725
3.48348
3.457
3.41164
3.35861
3.33081
3.32361
3.32504
3.33344
3.32604
3.30413
3.26798
3.20962
3.15644
3.13087
3.11952
3.11694
3.12786
3.16116
3.17889
3.17212
3.1539
3.12948
3.09417
3.03859
2.97816
2.94635
2.93377
2.93335
2.94002
2.96478
3.00575
3.02642
3.02264
3.00255
2.96617
2.9129
2.86657
2.83578
2.81108
2.79066
2.78116
2.77569
2.77853
2.79758
2.80799
2.79933
2.78021
2.74541
2.69773
2.66954
2.6607
2.65965
2.66974
2.67411
2.66188
2.64035
2.602
2.54482
2.51138
2.49905
2.49903
2.51784
2.56169
2.59163
2.59231
2.57621
2.54802
2.49275
2.41774
2.37662
2.35743
2.34541
2.34726
2.35579
2.3819
2.42636
2.44568
2.44007
2.42288
2.39722
2.32387
1
1
1
1
1
1
1
1
1
1
1
1
1
1
1
1
1
1
1
1
1
1
1
1
1
1
1
1
1
1
1
1
1
1
1
1
1
1
1
1
1
1
1
1
1
1
1
1
1
1
1
1
1
1
1
1
1
1
1
1
1
1
1
1
1
1
1
1
1
1
1
1
1
1
1
1
1
1.00005
1.00349
1.05678
1.36136
2.44707
3.99392
4.15243
4.2174
4.30757
4.3144
4.22171
4.20368
4.22031
4.24866
4.20632
4.169
4.1573
4.16709
4.14397
4.1115
4.10283
4.09611
4.06662
4.03962
4.03022
4.00668
3.96912
3.93671
3.90893
3.88966
3.87637
3.86777
3.8693
3.88347
3.93044
4.00236
4.08971
4.1663
4.19833
4.19811
4.1844
4.15422
4.10312
4.05057
4.01989
4.00763
4.00897
4.01771
4.01785
4.00739
3.98631
3.95599
3.91105
3.83308
3.7609
3.73002
3.71781
3.7127
3.7182
3.72774
3.71984
3.70571
3.67797
3.63192
3.57213
3.53669
3.52084
3.51491
3.5147
3.52318
3.52296
3.51021
3.48516
3.44223
3.39115
3.36261
3.35498
3.35653
3.36547
3.35822
3.33541
3.29673
3.23501
3.18302
3.15846
3.14903
3.14732
3.16185
3.19581
3.20814
3.19809
3.17553
3.14546
3.10362
3.05019
3.00059
2.97217
2.96048
2.96037
2.96782
2.9946
3.03555
3.05331
3.04909
3.02745
2.98488
2.92535
2.88518
2.86204
2.84032
2.82052
2.81238
2.80769
2.81185
2.83095
2.83788
2.82752
2.80669
2.77049
2.72539
2.69929
2.69094
2.68978
2.6991
2.70368
2.69036
2.66617
2.62458
2.5705
2.5423
2.5323
2.53415
2.55721
2.59796
2.61716
2.61321
2.59659
2.56882
2.51316
2.4385
2.39866
2.38129
2.37311
2.37559
2.38744
2.42184
2.46341
2.47157
2.46308
2.44699
2.41866
2.34779
2.40564
1
1
1
1
1
1
1
1
1
1
1
1
1
1
1
1
1
1
1
1
1
1
1
1
1
1
1
1
1
1
1
1
1
1
1
1
1
1
1
1
1
1
1
1
1
1
1
1
1
1
1
1
1
1
1
1
1
1
1
1
1
1
1
1
1
1
1
1
1
1
1
1
1
1
1
1
1
1
1.00002
1.00078
1.01938
1.24686
2.38298
3.63575
4.04321
4.27698
4.31574
4.26002
4.25934
4.27856
4.2328
4.19489
4.1801
4.19626
4.17424
4.13152
4.12011
4.12237
4.09697
4.06143
4.04998
4.03745
4.00377
3.96977
3.94145
3.91347
3.89628
3.87897
3.8658
3.86417
3.87137
3.8987
3.95585
4.04331
4.1357
4.17467
4.17903
4.16297
4.12041
4.08154
4.06057
4.05197
4.06191
4.06598
4.05685
4.04307
4.01907
3.98626
3.93785
3.85999
3.79263
3.76316
3.75183
3.74686
3.75286
3.76251
3.7544
3.73828
3.70911
3.66088
3.60085
3.56761
3.55297
3.5472
3.54715
3.55352
3.55072
3.53853
3.51415
3.47165
3.42183
3.39303
3.38491
3.38607
3.3957
3.38865
3.3659
3.32721
3.26398
3.21224
3.18867
3.18044
3.17985
3.19969
3.23417
3.241
3.22747
3.19859
3.15772
3.10872
3.06247
3.0254
2.99918
2.98763
2.98729
2.99515
3.0248
3.06563
3.08111
3.07693
3.0538
3.0057
2.9415
2.90615
2.88726
2.86831
2.85057
2.84359
2.84018
2.84705
2.86598
2.86918
2.85679
2.83345
2.79469
2.75203
2.72842
2.72109
2.71989
2.72838
2.73291
2.71957
2.69365
2.64972
2.59837
2.57316
2.56599
2.56998
2.59619
2.63117
2.63992
2.63246
2.61561
2.58809
2.53315
2.46155
2.42359
2.4081
2.4033
2.40624
2.42321
2.46527
2.49554
2.49595
2.48444
2.47302
2.42013
2.42661
2.67129
3.45472
1
1
1
1
1
1
1
1
1
1
1
1
1
1
1
1
1
1
1
1
1
1
1
1
1
1
1
1
1
1
1
1
1
1
1
1
1
1
1
1
1
1
1
1
1
1
1
1
1
1
1
1
1
1
1
1
1
1
1
1
1
1
1
1
1
1
1
1
1
1
1
1
1
1
1
1
1
1
1
1
1.00025
1.01115
1.20583
2.21144
3.29408
3.98042
4.28344
4.33238
4.28836
4.23445
4.21624
4.21081
4.23428
4.20285
4.14579
4.13414
4.1394
4.12056
4.08096
4.06163
4.05904
4.03325
3.99693
3.9723
3.94806
3.92095
3.90641
3.88742
3.8697
3.86437
3.86715
3.88817
3.92996
3.9927
4.07486
4.12192
4.13026
4.10979
4.09027
4.08256
4.08296
4.10486
4.10844
4.09398
4.07637
4.05128
4.01815
3.96712
3.88764
3.82534
3.79783
3.78793
3.7844
3.79208
3.79852
3.7889
3.77013
3.7387
3.68837
3.62963
3.59809
3.58493
3.57982
3.58146
3.58833
3.58335
3.57078
3.54591
3.50173
3.45172
3.42318
3.41432
3.4144
3.42319
3.41632
3.39379
3.35639
3.295
3.2436
3.21963
3.21232
3.21435
3.24076
3.27644
3.2799
3.26236
3.22497
3.17033
3.11715
3.0812
3.05282
3.02686
3.0157
3.01497
3.02311
3.05497
3.09482
3.10738
3.10285
3.08011
3.02884
2.95897
2.92532
2.9094
2.89376
2.87999
2.87448
2.87321
2.88518
2.90304
2.90185
2.88702
2.85994
2.81849
2.77842
2.75734
2.75126
2.75002
2.7577
2.76107
2.74832
2.72241
2.67755
2.62854
2.60524
2.60024
2.60558
2.63378
2.6602
2.66114
2.65178
2.63435
2.60548
2.55233
2.48747
2.45134
2.43816
2.43506
2.4392
2.46391
2.50571
2.525
2.51823
2.50956
2.47829
2.46097
2.60626
3.19414
4.28773
5.22272
1
1
1
1
1
1
1
1
1
1
1
1
1
1
1
1
1
1
1
1
1
1
1
1
1
1
1
1
1
1
1
1
1
1
1
1
1
1
1
1
1
1
1
1
1
1
1
1
1
1
1
1
1
1
1
1
1
1
1
1
1
1
1
1
1
1
1
1
1
1
1
1
1
1
1
1
1
1
1
1
1
1.00013
1.00863
1.17346
1.83514
2.80522
3.98747
4.33318
4.25062
4.21314
4.23264
4.27352
4.24175
4.15669
4.14324
4.15224
4.14313
4.09977
4.07144
4.07137
4.05871
4.02292
3.99714
3.98152
3.95916
3.9347
3.92237
3.90102
3.88276
3.87702
3.87647
3.88937
3.91222
3.94184
3.98741
4.03822
4.0649
4.07576
4.08496
4.09762
4.12706
4.13943
4.12578
4.1067
4.08226
4.05006
3.99835
3.91905
3.85945
3.83377
3.82564
3.82427
3.83326
3.83498
3.82304
3.80138
3.76765
3.71491
3.6592
3.62904
3.61694
3.61242
3.61655
3.62673
3.62133
3.60826
3.58134
3.53399
3.48212
3.45378
3.44462
3.44351
3.44896
3.44033
3.41832
3.3826
3.3249
3.27599
3.25096
3.24384
3.24882
3.28275
3.3216
3.32273
3.3017
3.25722
3.19011
3.13423
3.10509
3.08098
3.05655
3.04555
3.04419
3.05335
3.08735
3.12291
3.13167
3.1258
3.10279
3.05012
2.97696
2.94193
2.92784
2.9162
2.90793
2.90444
2.90831
2.9269
2.94147
2.93646
2.91805
2.8863
2.84166
2.80432
2.78571
2.78061
2.78006
2.78698
2.78834
2.77602
2.75117
2.70771
2.66078
2.63884
2.63492
2.64197
2.66963
2.68639
2.68252
2.67096
2.65231
2.62141
2.57067
2.51448
2.48177
2.4699
2.46818
2.47504
2.50623
2.54441
2.55173
2.54341
2.53102
2.5021
2.57747
2.98251
3.98638
5.01338
5.73763
6.24383
1
1
1
1
1
1
1
1
1
1
1
1
1
1
1
1
1
1
1
1
1
1
1
1
1
1
1
1
1
1
1
1
1
1
1
1
1
1
1
1
1
1
1
1
1
1
1
1
1
1
1
1
1
1
1
1
1
1
1
1
1
1
1
1
1
1
1
1
1
1
1
1
1
1
1
1
1
1
1
1
1
1
1.0001
1.00543