/*--------------------------------*- C++ -*----------------------------------*\
  =========                 |
  \\      /  F ield         | OpenFOAM: The Open Source CFD Toolbox
   \\    /   O peration     | Website:  https://openfoam.org
    \\  /    A nd           | Version:  7
     \\/     M anipulation  |
\*---------------------------------------------------------------------------*/
FoamFile
{
    version     2.0;
    format      ascii;
    class       volScalarField;
    location    "4";
    object      rho;
}
// * * * * * * * * * * * * * * * * * * * * * * * * * * * * * * * * * * * * * //

dimensions      [1 -3 0 0 0 0 0];

internalField   nonuniform List<scalar> 
3328
(
13.7338
7.24946
6.48374
6.54907
6.52247
6.45221
6.35689
6.26485
6.21904
6.21317
6.23871
6.25805
6.24874
6.22239
6.18914
6.17372
6.17386
6.17893
6.18223
6.18677
6.20674
6.24605
6.28977
6.3231
13.7253
7.24864
6.4809
6.54546
6.5204
6.45155
6.357
6.26447
6.21613
6.20711
6.22859
6.24596
6.23697
6.2118
6.18012
6.1657
6.16628
6.17168
6.17464
6.17779
6.19531
6.23119
6.27161
6.30291
13.7115
7.24504
6.47529
6.53858
6.51717
6.45115
6.35796
6.264
6.21087
6.19642
6.21226
6.22817
6.22098
6.19837
6.169
6.1561
6.15715
6.16283
6.16442
6.16444
6.1774
6.2084
6.24489
6.27393
13.6906
7.23853
6.46658
6.52768
6.51168
6.4506
6.36057
6.26552
6.20596
6.18393
6.19213
6.20521
6.20001
6.1808
6.15482
6.14421
6.14635
6.15333
6.1542
6.15139
6.15785
6.18073
6.2099
6.23345
13.6615
7.22977
6.45487
6.51295
6.50353
6.44929
6.36487
6.26997
6.203
6.17136
6.17108
6.17969
6.17702
6.16168
6.13945
6.1309
6.13394
6.14218
6.1416
6.13336
6.13054
6.14502
6.16891
6.19282
13.624
7.21812
6.44074
6.49525
6.49267
6.44667
6.37015
6.27684
6.20272
6.15918
6.14977
6.15421
6.15382
6.14181
6.1227
6.11495
6.11846
6.12924
6.13002
6.12042
6.11259
6.11973
6.13227
6.13261
13.5768
7.20379
6.42539
6.47607
6.47944
6.44217
6.3753
6.28447
6.20333
6.14837
6.12946
6.12899
6.13077
6.12129
6.1038
6.09531
6.09908
6.11275
6.11551
6.10145
6.0783
6.05897
6.05165
6.05679
13.5185
7.18673
6.41044
6.45638
6.46408
6.43613
6.3786
6.29147
6.20359
6.13795
6.10911
6.1033
6.10732
6.09942
6.08183
6.07124
6.07389
6.08836
6.09261
6.07729
6.04593
6.01538
5.97914
6.04744
13.4489
7.16804
6.39692
6.43722
6.44754
6.42825
6.37833
6.29558
6.20173
6.1262
6.08627
6.07608
6.0824
6.07556
6.05679
6.04285
6.04175
6.05408
6.05904
6.04379
5.99872
5.94037
5.78082
5.58702
13.3695
7.14829
6.38535
6.419
6.43004
6.41747
6.37359
6.29514
6.19656
6.1113
6.06019
6.04691
6.05429
6.04931
6.03003
6.01192
6.00421
6.01111
6.0154
5.99745
5.94605
5.86705
5.76868
5.60051
13.2819
7.12823
6.37556
6.40161
6.41144
6.40334
6.36415
6.28899
6.18829
6.09315
6.03224
6.01551
6.02181
6.02067
6.00318
5.9805
5.96551
5.96514
5.96644
5.9435
5.88889
5.79666
5.71649
5.58659
13.1886
7.10858
6.36673
6.38447
6.39149
6.38602
6.35104
6.27851
6.17839
6.07489
6.00507
5.98202
5.98654
5.99023
5.97612
5.95081
5.93072
5.92331
5.91922
5.89101
5.83253
5.74901
5.68163
5.60394
13.0888
7.0884
6.35813
6.36758
6.37059
6.36667
6.33598
6.26754
6.16891
6.06031
5.98109
5.94949
5.95135
5.95831
5.94796
5.92348
5.90128
5.88879
5.88019
5.84798
5.78511
5.7094
5.6414
5.6046
12.9795
7.06471
6.34946
6.35162
6.34952
6.34674
6.3208
6.2585
6.162
6.05148
5.96179
5.92052
5.91706
5.92441
5.91821
5.89842
5.87719
5.86204
5.85095
5.81691
5.75163
5.67613
5.61325
5.5922
12.8581
7.03583
6.33893
6.33436
6.32812
6.3268
6.30608
6.25152
6.15927
6.04843
5.94878
5.89535
5.88314
5.8881
5.88601
5.87342
5.85691
5.84025
5.82762
5.79498
5.73125
5.65219
5.58671
5.56043
12.726
6.99776
6.32256
6.31492
6.30659
6.30622
6.29082
6.24534
6.16054
6.05036
5.94236
5.87385
5.85069
5.84877
5.85015
5.84568
5.83708
5.8219
5.80769
5.7779
5.71909
5.63866
5.56516
5.52838
12.5888
6.94918
6.30108
6.29356
6.28421
6.28416
6.27394
6.2381
6.16301
6.05498
5.9399
5.85563
5.81801
5.8064
5.81013
5.81432
5.81422
5.8054
5.79005
5.7625
5.70956
5.63221
5.55249
5.5016
12.4541
6.89424
6.27633
6.27001
6.25915
6.25806
6.25192
6.22541
6.16119
6.05828
5.93814
5.84097
5.78674
5.76486
5.76556
5.77759
5.78586
5.78646
5.77393
5.74836
5.70052
5.62855
5.54662
5.4813
12.3315
6.84162
6.24786
6.2422
6.22892
6.22529
6.22081
6.20186
6.14836
6.05477
5.93473
5.82966
5.76122
5.72823
5.72112
5.73541
5.75246
5.76267
5.757
5.73529
5.6925
5.6263
5.5447
5.46958
12.2286
6.79965
6.21644
6.20896
6.19257
6.18535
6.17997
6.16595
6.12232
6.04124
5.92848
5.81945
5.7427
5.69937
5.68205
5.69092
5.71325
5.73104
5.73554
5.72043
5.6842
5.62416
5.54518
5.46393
12.1449
6.77009
6.18574
6.17337
6.15285
6.14063
6.13153
6.11901
6.08474
6.01787
5.91791
5.81004
5.73074
5.68154
5.65084
5.64885
5.66745
5.6904
5.70339
5.69807
5.6709
5.61953
5.54602
5.46252
12.073
6.7497
6.16046
6.14183
6.11605
6.09648
6.0803
6.06518
6.03766
5.98427
5.90024
5.80129
5.7226
5.67097
5.62854
5.61335
5.61965
5.63964
5.65659
5.66149
5.64647
5.60702
5.54287
5.46172
12.0046
6.73254
6.14209
6.11857
6.08797
6.05996
6.03375
6.01154
5.986
5.94294
5.87372
5.78899
5.71382
5.663
5.61849
5.58549
5.57393
5.58178
5.59612
5.60661
5.60456
5.58233
5.53289
5.45943
11.9346
6.71425
6.12862
6.10321
6.06962
6.03559
5.99973
5.96778
5.93758
5.89847
5.84083
5.7698
5.69974
5.65116
5.6137
5.56646
5.53487
5.52408
5.52778
5.53786
5.54518
5.5401
5.51176
5.45315
11.861
6.69239
6.11708
6.09244
6.05804
6.02219
5.98086
5.93967
5.89953
5.8569
5.80355
5.73951
5.67758
5.63198
5.59984
5.55342
5.50749
5.47559
5.4637
5.46546
5.47359
5.48026
5.47278
5.43633
11.7843
6.66602
6.10625
6.08392
6.05076
6.01681
5.97549
5.93065
5.87859
5.82321
5.76267
5.70022
5.64388
5.60227
5.57487
5.5411
5.49028
5.44421
5.41434
5.40239
5.40261
5.40886
5.41304
5.39851
11.7065
6.63665
6.09549
6.07604
6.04599
6.0164
5.97938
5.9347
5.87407
5.80223
5.72639
5.6559
5.59897
5.56343
5.54284
5.52175
5.48008
5.43044
5.38602
5.35687
5.34259
5.33849
5.33998
5.33618
11.6304
6.60762
6.08442
6.06714
6.04124
6.01736
5.98704
5.94289
5.87684
5.79129
5.69564
5.61019
5.549
5.51792
5.50669
5.49847
5.47411
5.42824
5.37512
5.32933
5.29728
5.27762
5.26724
5.2605
11.5588
6.58324
6.07321
6.05627
6.03403
6.01579
5.99092
5.9507
5.88325
5.78785
5.67575
5.57385
5.50337
5.47385
5.47206
5.47389
5.46478
5.43041
5.37542
5.31617
5.26682
5.23058
5.20515
5.18815
11.4932
6.56596
6.06331
6.04409
6.02302
6.00835
5.98889
5.95244
5.88512
5.78544
5.66666
5.55172
5.47081
5.43845
5.43986
5.44849
5.44797
5.42507
5.37663
5.31167
5.24877
5.19889
5.16032
5.13179
11.433
6.55698
6.05629
6.03213
6.00904
5.99463
5.97718
5.94369
5.88006
5.78401
5.66674
5.54765
5.46112
5.42004
5.4116
5.41695
5.41926
5.40464
5.36715
5.30727
5.24034
5.18254
5.13539
5.09762
11.3775
6.55479
6.05251
6.02217
5.99371
5.97497
5.95493
5.92489
5.86928
5.7827
5.67569
5.56362
5.4746
5.41811
5.39087
5.38127
5.37795
5.36833
5.3436
5.30032
5.23875
5.17982
5.12913
5.0854
11.3257
6.55731
6.0511
6.01526
5.97889
5.95234
5.92673
5.89942
5.85615
5.78637
5.69269
5.58651
5.49363
5.42212
5.37612
5.34759
5.33189
5.32217
5.30872
5.28504
5.24328
5.18984
5.1381
5.08908
11.2786
6.55871
6.04692
6.0095
5.96673
5.9326
5.9016
5.87398
5.8417
5.78988
5.70814
5.60623
5.50967
5.42687
5.36479
5.31731
5.28809
5.27435
5.27042
5.26534
5.24788
5.20979
5.15948
5.1041
11.2339
6.54993
6.0354
6.00419
5.96074
5.92346
5.88852
5.85592
5.82706
5.78586
5.71325
5.61407
5.51618
5.43011
5.36083
5.30299
5.26269
5.2421
5.2401
5.24669
5.24892
5.22616
5.18097
5.12228
11.1918
6.53232
6.02058
6.00409
5.96343
5.92667
5.8907
5.85364
5.81708
5.77007
5.698
5.60123
5.50649
5.42447
5.35874
5.29976
5.25764
5.23409
5.22822
5.23473
5.2391
5.22596
5.18825
5.13073
11.1528
6.50532
6.01297
6.00599
5.9723
5.93974
5.90408
5.86479
5.81252
5.74662
5.66476
5.56925
5.48168
5.41114
5.35842
5.3084
5.27447
5.25281
5.23996
5.23332
5.2243
5.20711
5.17385
5.12402
11.1174
6.47268
6.00896
6.00786
5.98417
5.95859
5.92564
5.88033
5.81016
5.72206
5.62347
5.52599
5.4492
5.39922
5.36784
5.33711
5.31145
5.28887
5.26588
5.23898
5.21018
5.18026
5.14728
5.10684
11.0886
6.44244
6.00689
6.01047
5.99785
5.97967
5.94651
5.89078
5.80789
5.70204
5.58725
5.48348
5.41462
5.38496
5.37626
5.36738
5.35173
5.3253
5.28737
5.24245
5.19721
5.15503
5.11723
5.08237
11.0718
6.42592
6.00467
6.01052
6.00574
5.994
5.96276
5.9027
5.81483
5.70077
5.57179
5.45559
5.38619
5.36716
5.37521
5.38584
5.38129
5.3566
5.30992
5.25309
5.19821
5.14929
5.10541
5.06765
4.81719
5.21531
5.37754
5.38676
5.34636
5.27306
5.20147
5.16491
5.44738
5.5437
5.48051
5.42475
5.34488
5.26708
5.20335
5.1656
5.50704
5.50797
5.45516
5.40997
5.33775
5.2597
5.20891
5.17951
5.58049
5.56297
5.50653
5.44823
5.36457
5.29186
5.24225
5.21966
5.60038
5.60037
5.54494
5.4588
5.36508
5.30301
5.26409
5.25306
5.59466
5.60663
5.57472
5.48469
5.38874
5.33352
5.30302
5.28424
5.577
5.60166
5.58308
5.49917
5.39441
5.31803
5.26371
5.25334
5.5434
5.57478
5.5758
5.50156
5.38777
5.29513
5.21227
5.20782
5.49946
5.52955
5.5411
5.48647
5.35829
5.20578
4.90774
4.0774
5.45817
5.47494
5.48545
5.43468
5.29502
5.07051
4.72214
3.94202
5.42563
5.41817
5.41818
5.36965
5.22432
4.96291
4.60305
3.94005
5.40177
5.36805
5.34839
5.29836
5.16116
4.90557
4.54342
4.00511
5.38545
5.3273
5.28492
5.22853
5.10743
4.88057
4.54485
4.11177
5.37654
5.29955
5.2357
5.16889
5.05994
4.87328
4.5747
4.22988
5.37395
5.28603
5.20423
5.12509
5.02089
4.87001
4.61837
4.33472
5.37426
5.28446
5.19099
5.09995
4.99287
4.86212
4.65915
4.42208
5.37131
5.28597
5.18944
5.08984
4.97858
4.85461
4.69123
4.49096
5.35377
5.28082
5.18658
5.08459
4.97531
4.85294
4.71315
4.54112
5.31152
5.25727
5.17373
5.07425
4.96963
4.85051
4.72451
4.57386
5.24546
5.20932
5.144
5.05448
4.95692
4.84367
4.72682
4.59323
5.17205
5.14545
5.09794
5.02408
4.93685
4.83262
4.7236
4.60363
5.10884
5.08349
5.0463
4.98783
4.91187
4.81837
4.71775
4.60895
5.06633
5.03707
5.00233
4.95368
4.88727
4.80388
4.71146
4.61171
5.04633
5.01012
4.97267
4.92754
4.86766
4.79251
4.70688
4.61434
5.04286
4.99906
4.95594
4.90974
4.85358
4.78496
4.70537
4.61872
5.04939
4.99667
4.94636
4.89661
4.84228
4.77926
4.70605
4.62524
5.05908
4.99769
4.94045
4.88626
4.83187
4.77277
4.7056
4.63068
5.0655
4.99936
4.93713
4.87945
4.82375
4.76577
4.70208
4.63133
5.06367
4.99978
4.9379
4.87892
4.821
4.76112
4.69684
4.62737
5.0572
5.00111
4.94299
4.88409
4.82396
4.76082
4.69361
4.62276
5.04391
5.0001
4.9503
4.89406
4.83271
4.76651
4.69597
4.62195
5.03308
4.99714
4.95501
4.90197
4.84129
4.77427
4.70224
4.62679
1.60201
0.795708
0.542201
0.575167
0.725524
0.980076
1.32336
1.5364
1.6548
2.14503
2.71921
2.96475
3.01774
3.03608
3.07204
3.1208
3.17864
3.18263
3.15482
3.08013
3.02619
3.0047
2.9807
2.94961
2.91751
2.89381
2.88966
2.90927
2.93494
2.94739
2.94341
2.9289
2.9102
2.88624
2.85386
2.81692
2.78054
2.7508
2.72594
2.69667
2.66473
2.63454
2.60508
2.57177
2.53307
2.47967
2.3964
2.31913
2.27941
2.25027
2.22065
2.18778
2.15128
2.11285
2.10437
2.16222
2.38781
2.74159
3.00747
3.11965
3.14331
3.14627
3.11668
3.08161
3.04578
3.00884
2.95816
2.88287
2.81265
2.77395
2.75248
2.73597
2.73342
2.7644
2.81441
2.83092
2.81984
2.80144
2.77944
2.74549
2.68054
2.58926
2.51221
2.46071
2.42861
2.40522
2.39087
2.38509
2.3587
1.71034
1.31885
1.13866
1.14902
1.21273
1.25912
1.37683
1.54585
1.93584
2.6306
2.95411
3.05547
3.11443
3.15635
3.2014
3.24832
3.25143
3.22812
3.16762
3.10035
3.07071
3.04947
3.02484
2.99422
2.96605
2.95018
2.95194
2.96299
2.96604
2.95277
2.92796
2.90091
2.87273
2.84162
2.80975
2.78051
2.75506
2.72923
2.69645
2.66052
2.62207
2.58316
2.54522
2.50392
2.45492
2.39915
2.34987
2.30727
2.26861
2.23066
2.19432
2.16299
2.15098
2.18996
2.31047
2.50822
2.72572
2.93458
3.06346
3.10378
3.11149
3.08547
3.05195
3.02112
2.98481
2.94691
2.91079
2.8638
2.80551
2.76511
2.74561
2.7391
2.75116
2.77224
2.79451
2.79973
2.78562
2.7628
2.73091
2.68118
2.60224
2.52196
2.47824
2.45637
2.43853
2.42304
2.41371
2.94548
2.37524
1.99576
1.67885
1.49305
1.46046
1.43641
1.47435
1.56266
1.78338
2.39579
3.04635
3.17896
3.24664
3.27015
3.3027
3.33111
3.32541
3.29845
3.25152
3.18663
3.13355
3.11127
3.09461
3.07574
3.05468
3.03758
3.03006
3.03405
3.03161
3.004
2.96689
2.9238
2.88164
2.8487
2.82067
2.79983
2.78117
2.75134
2.71614
2.67728
2.63227
2.583
2.53193
2.48251
2.43663
2.40255
2.3737
2.33999
2.29768
2.24645
2.20606
2.19795
2.23228
2.35935
2.52277
2.6259
2.70606
2.85272
3.01825
3.09259
3.10278
3.07935
3.04422
3.00776
2.97069
2.94538
2.92522
2.90202
2.86631
2.81783
2.77955
2.75921
2.74822
2.74595
2.75219
2.76808
2.76954
2.75132
2.72779
2.69449
2.63392
2.55018
2.49699
2.4781
2.46479
2.45388
2.45157
3.37127
2.87742
2.53405
2.25416
1.96523
1.82352
1.79225
1.7601
1.70442
1.70717
1.93913
2.6464
3.19489
3.38896
3.42701
3.42492
3.43448
3.42086
3.3943
3.35808
3.30642
3.23533
3.18448
3.16444
3.14716
3.13011
3.11481
3.10493
3.10204
3.087
3.05458
3.01716
2.96908
2.90755
2.86045
2.83137
2.80898
2.7886
2.75939
2.72498
2.68333
2.63071
2.57572
2.52706
2.48532
2.45326
2.42889
2.40417
2.37372
2.33734
2.29448
2.26955
2.29898
2.41838
2.59615
2.71559
2.72049
2.72037
2.7645
2.89881
3.03252
3.07615
3.07151
3.04423
3.00424
2.96858
2.94776
2.93719
2.92342
2.90317
2.87379
2.8302
2.78643
2.75933
2.74134
2.73218
2.73001
2.74168
2.74518
2.72712
2.70037
2.66183
2.60868
2.55246
2.5186
2.50545
2.49944
2.50417
3.66583
3.26786
2.92826
2.67355
2.4201
2.18956
2.07917
2.02051
1.93952
1.83865
1.85491
2.102
2.82622
3.35204
3.51769
3.52081
3.50573
3.49667
3.4788
3.45197
3.40792
3.33761
3.26336
3.2328
3.21509
3.1999
3.18771
3.17762
3.16148
3.13134
3.09807
3.06185
3.01361
2.94529
2.87293
2.82682
2.79843
2.77138
2.74236
2.70825
2.66482
2.61199
2.56145
2.52534
2.49801
2.4775
2.45742
2.42805
2.39572
2.36584
2.34525
2.36988
2.48994
2.67334
2.8081
2.83125
2.80465
2.75936
2.73707
2.76683
2.8915
3.01376
3.06207
3.05238
3.02028
2.98774
2.96114
2.94785
2.93812
2.92139
2.90048
2.8713
2.83092
2.78531
2.75395
2.73467
2.72106
2.712
2.71171
2.70772
2.68909
2.66961
2.64574
2.61079
2.57285
2.55634
2.55555
2.55111
3.87782
3.5547
3.25118
2.99242
2.7642
2.54196
2.3867
2.29051
2.20873
2.09998
1.98425
2.00456
2.27813
2.99836
3.42612
3.54542
3.54069
3.5233
3.49835
3.47119
3.43473
3.37562
3.29906
3.25086
3.22702
3.20602
3.18528
3.16564
3.14469
3.11534
3.08331
3.04924
3.00632
2.95039
2.8836
2.82079
2.77576
2.74272
2.70948
2.67393
2.63611
2.59356
2.55747
2.53027
2.50872
2.49383
2.46785
2.43725
2.40838
2.39581
2.4243
2.55026
2.7459
2.89743
2.92506
2.90219
2.85786
2.79707
2.74101
2.70931
2.7482
2.87384
2.99954
3.03706
3.02373
2.99882
2.96705
2.94553
2.93787
2.92993
2.91324
2.89374
2.86865
2.83107
2.78078
2.74018
2.71594
2.69494
2.67882
2.67625
2.68721
2.68335
2.67456
2.66504
2.64693
2.61805
2.59287
2.56226
4.04201
3.76184
3.50718
3.26454
3.04114
2.83275
2.67904
2.55094
2.43179
2.3342
2.21228
2.09601
2.13165
2.44343
3.09164
3.4779
3.53803
3.52341
3.48916
3.45643
3.41353
3.35101
3.27994
3.22801
3.19832
3.17304
3.14913
3.12707
3.10435
3.07681
3.046
3.01172
2.97674
2.94127
2.89581
2.8311
2.76028
2.70642
2.66829
2.63545
2.60581
2.58135
2.55796
2.53395
2.50848
2.48347
2.45522
2.43431
2.42906
2.46169
2.59546
2.80662
2.9653
2.99912
2.97444
2.93109
2.87731
2.81626
2.7498
2.70369
2.68619
2.73476
2.85498
2.97513
3.00772
2.99301
2.96706
2.94444
2.93823
2.9383
2.92922
2.91298
2.89304
2.86232
2.80764
2.74273
2.70311
2.67969
2.66287
2.65557
2.67183
2.69935
2.71501
2.71647
2.7021
2.67167
2.61886
2.53932
4.17325
3.92844
3.70414
3.48864
3.27897
3.07449
2.92322
2.79958
2.6584
2.52979
2.42734
2.2968
2.21312
2.2561
2.57105
3.18731
3.47569
3.50335
3.47656
3.43216
3.37719
3.3102
3.24631
3.19565
3.15964
3.12864
3.09847
3.07091
3.04585
3.02471
3.00262
2.97825
2.95565
2.93236
2.90155
2.85213
2.77207
2.69613
2.64912
2.61757
2.59285
2.57295
2.55479
2.53037
2.50277
2.47798
2.46128
2.46183
2.49723
2.64203
2.85791
3.01601
3.04904
3.02827
2.98126
2.92979
2.87717
2.82493
2.76579
2.71306
2.68341
2.66905
2.71221
2.82471
2.93826
2.96945
2.95921
2.94614
2.94608
2.9531
2.94454
2.92522
2.9031
2.87066
2.81658
2.74761
2.70272
2.67984
2.66365
2.65569
2.67716
2.73203
2.75305
2.74108
2.72173
2.6919
2.63304
2.51549
4.2775
4.06506
3.86345
3.66582
3.473
3.28669
3.1245
3.00371
2.87542
2.72203
2.58396
2.48413
2.37546
2.31407
2.3727
2.7098
3.25798
3.44872
3.45647
3.41794
3.34462
3.25967
3.20373
3.16311
3.12589
3.09086
3.05946
3.03107
3.00334
2.97911
2.95979
2.94505
2.93411
2.91923
2.8973
2.86536
2.80315
2.71314
2.65113
2.62083
2.59713
2.57266
2.54584
2.51708
2.49533
2.48609
2.49107
2.5273
2.66292
2.90907
3.05817
3.08305
3.06643
3.02037
2.96565
2.92053
2.87748
2.8355
2.78989
2.73836
2.69201
2.65263
2.63745
2.67711
2.78587
2.89034
2.93782
2.94807
2.95696
2.96305
2.95099
2.92915
2.90176
2.86519
2.8115
2.75207
2.71564
2.69516
2.67973
2.67539
2.69948
2.73299
2.74023
2.73055
2.71326
2.68554
2.63019
2.48691
4.35704
4.17186
3.99116
3.80944
3.6285
3.4609
3.30955
3.17167
3.04881
2.90347
2.74728
2.62768
2.55494
2.45428
2.42015
2.49606
2.83727
3.27651
3.41103
3.40004
3.33857
3.23952
3.16732
3.13109
3.09962
3.06817
3.03967
3.01321
2.98595
2.96086
2.94084
2.93094
2.92787
2.91069
2.88783
2.86197
2.82125
2.75184
2.67893
2.63555
2.60809
2.58066
2.55104
2.52299
2.5053
2.50738
2.52912
2.65198
2.89845
3.08741
3.11943
3.08648
3.03783
2.98999
2.94832
2.91749
2.88557
2.85196
2.81558
2.76958
2.71169
2.64483
2.6081
2.60692
2.65021
2.76213
2.86151
2.92779
2.96441
2.96141
2.94046
2.9158
2.88462
2.8477
2.79949
2.75313
2.73067
2.71574
2.70477
2.70572
2.72125
2.72756
2.72018
2.70829
2.69196
2.6657
2.61083
2.47905
4.41335
4.25088
4.08918
3.92416
3.75667
3.60316
3.46536
3.32926
3.19163
3.04833
2.90097
2.78249
2.7036
2.62191
2.52727
2.5195
2.59299
2.91552
3.26877
3.36403
3.32983
3.243
3.15069
3.09968
3.06992
3.04853
3.0301
3.00938
2.98773
2.96876
2.95693
2.94861
2.93207
2.9092
2.88678
2.86443
2.83344
2.78376
2.71976
2.65882
2.62019
2.58934
2.56019
2.53788
2.52972
2.5483
2.66473
2.8984
3.08871
3.14349
3.10595
3.03726
2.9926
2.96303
2.94245
2.92681
2.90273
2.87382
2.84357
2.8021
2.73681
2.65033
2.59559
2.58449
2.59139
2.64504
2.7527
2.86352
2.9444
2.94948
2.93347
2.89999
2.86047
2.82085
2.78269
2.75698
2.74163
2.72817
2.72209
2.7257
2.72836
2.7161
2.69872
2.68019
2.65703
2.62291
2.5768
2.48972
4.45178
4.30747
4.16191
4.01372
3.86378
3.72069
3.5908
3.4626
3.32512
3.17585
3.0271
2.92881
2.85005
2.77454
2.6764
2.59205
2.58745
2.66078
2.9576
3.23542
3.29849
3.24946
3.16034
3.08908
3.05213
3.02391
3.00872
3.00458
3.00013
2.99839
2.99588
2.9807
2.95364
2.92231
2.88597
2.85275
2.82896
2.80241
2.74905
2.6817
2.63398
2.5977
2.57269
2.55313
2.57287
2.68698
2.91964
3.09764
3.15031
3.1153
3.04264
2.9897
2.95989
2.93956
2.93788
2.94158
2.92176
2.89377
2.86676
2.83153
2.76919
2.67185
2.60249
2.58103
2.57489
2.59335
2.65686
2.75836
2.87341
2.92009
2.913
2.88145
2.8392
2.79419
2.75514
2.73848
2.72841
2.72434
2.72717
2.72893
2.71706
2.69824
2.67737
2.64991
2.61446
2.57663
2.5469
2.49716
4.4775
4.34777
4.21599
4.08414
3.95101
3.81931
3.69644
3.57185
3.43849
3.29253
3.14836
3.04984
2.98181
2.90755
2.82111
2.70913
2.62749
2.61011
2.68839
2.96236
3.17705
3.21802
3.16595
3.09291
3.04437
3.01647
2.99492
2.98692
3.00561
3.02428
3.01638
2.99264
2.96313
2.92964
2.89096
2.84634
2.80281
2.76372
2.72748
2.68076
2.62803
2.58933
2.57899
2.61004
2.73249
2.95856
3.13818
3.16488
3.12197
3.06095
3.0043
2.96816
2.94289
2.92548
2.91899
2.93075
2.93383
2.90925
2.88397
2.8566
2.81302
2.7328
2.64682
2.60208
2.58071
2.57377
2.59254
2.64688
2.73338
2.82524
2.86297
2.85419
2.82145
2.78214
2.73904
2.70899
2.69795
2.69462
2.70758
2.70794
2.69102
2.67299
2.64991
2.6168
2.5816
2.55405
2.53155
2.49997
4.49498
4.37713
4.25766
4.13988
4.02043
3.90004
3.78266
3.66511
3.53387
3.39223
3.25939
3.16393
3.08982
3.01893
2.93668
2.83796
2.71992
2.63924
2.60521
2.68189
2.92309
3.10159
3.12913
3.0854
3.03835
3.00584
2.98711
2.97767
2.98677
3.00673
3.00562
2.9849
2.95774
2.92715
2.8884
2.83623
2.77611
2.72157
2.67164
2.62358
2.58958
2.58245
2.63207
2.78685
3.02104
3.19354
3.21996
3.15873
3.08805
3.03631
2.99624
2.96108
2.93414
2.91224
2.8945
2.89648
2.9235
2.9239
2.90356
2.88154
2.85372
2.79731
2.70141
2.63512
2.59846
2.57317
2.56011
2.56787
2.60379
2.67335
2.74808
2.80126
2.80558
2.78398
2.73743
2.69472
2.67264
2.6628
2.6649
2.66383
2.64966
2.63368
2.61221
2.58468
2.56173
2.54381
2.52678
2.50919
4.50711
4.39931
4.29053
4.18317
4.07409
3.96195
3.85276
3.74154
3.61801
3.48102
3.35464
3.26374
3.18888
3.1122
3.02966
2.93786
2.82909
2.71057
2.62497
2.57793
2.64814
2.85796
3.00574
3.04415
3.02206
2.99164
2.97427
2.96392
2.96545
2.97699
2.97373
2.95127
2.92287
2.89278
2.85802
2.80908
2.74479
2.67432
2.60769
2.56865
2.56291
2.6145
2.78605
3.04762
3.23316
3.2779
3.24195
3.1539
3.07872
3.03431
3.00031
2.96466
2.92943
2.90398
2.88245
2.87922
2.91831
2.95124
2.94154
2.92004
2.89212
2.8412
2.7442
2.64958
2.60343
2.56906
2.54435
2.53192
2.53645
2.56366
2.62019
2.69994
2.76403
2.77394
2.74914
2.69625
2.66189
2.64434
2.63295
2.6218
2.60638
2.58793
2.56583
2.54947
2.53856
2.53186
2.52927
2.53079
4.51653
4.41657
4.31616
4.21618
4.11417
4.00844
3.90592
3.80202
3.68805
3.56046
3.43818
3.34585
3.27142
3.19406
3.11053
3.02051
2.91674
2.799
2.67605
2.59537
2.53994
2.59851
2.77451
2.9151
2.98696
2.97531
2.95696
2.94322
2.93463
2.9407
2.93923
2.9172
2.88905
2.85729
2.81484
2.7593
2.69545
2.6289
2.57076
2.54732
2.58877
2.75775
2.99051
3.20041
3.29821
3.30124
3.26439
3.18937
3.11236
3.05846
3.01717
2.97453
2.93904
2.91412
2.89372
2.88956
2.91637
2.94149
2.93128
2.91162
2.89051
2.85198
2.76618
2.65735
2.59517
2.55902
2.5311
2.51165
2.50491
2.50991
2.5382
2.59526
2.67734
2.73905
2.74853
2.72482
2.67996
2.64232
2.61684
2.59496
2.57241
2.55048
2.5324
2.51988
2.50969
2.5055
2.51692
2.55481
4.52692
4.43276
4.33764
4.24218
4.14433
4.04383
3.94495
3.84792
3.74032
3.62252
3.50893
3.41602
3.33923
3.26189
3.17825
3.09028
2.99212
2.87806
2.7506
2.62468
2.55049
2.49377
2.53865
2.69048
2.85478
2.94529
2.93455
2.92356
2.90981
2.91086
2.91004
2.88722
2.86048
2.82472
2.76874
2.69991
2.64163
2.59631
2.55718
2.59091
2.75498
2.97359
3.12024
3.24426
3.31012
3.31179
3.29394
3.24933
3.18362
3.11238
3.04523
2.9932
2.96489
2.94091
2.92082
2.91176
2.92407
2.93266
2.91471
2.892
2.86568
2.82742
2.75991
2.65645
2.57555
2.53907
2.5148
2.4949
2.48439
2.48871
2.50862
2.53904
2.59563
2.67811
2.7302
2.73754
2.70603
2.65047
2.60746
2.57512
2.54608
2.52515
2.51189
2.50094
2.49256
2.49162
2.50414
2.54161
4.53931
4.44991
4.35882
4.26652
4.1711
4.0735
3.97586
3.87883
3.77683
3.66572
3.55812
3.46638
3.39143
3.31636
3.23141
3.1437
3.04901
2.94095
2.81589
2.68168
2.56797
2.50234
2.44446
2.48176
2.61806
2.80746
2.89803
2.89766
2.89296
2.89336
2.88954
2.86161
2.83388
2.7926
2.72728
2.65562
2.61218
2.57957
2.61434
2.7809
3.00892
3.11676
3.17949
3.24404
3.31011
3.33834
3.33342
3.30779
3.26183
3.18531
3.08466
3.02167
2.99521
2.96995
2.94513
2.92684
2.92406
2.91935
2.89517
2.8683
2.83772
2.79834
2.74009
2.65153
2.56573
2.52489
2.50254
2.48237
2.46746
2.47163
2.49679
2.52449
2.55863
2.61693
2.68561
2.71548
2.70318
2.64926
2.59675
2.56034
2.53041
2.50906
2.4971
2.48882
2.48497
2.48695
2.50301
2.54109
4.55064
4.46669
4.38001
4.29057
4.19751
4.10159
4.00288
3.90197
3.79828
3.69209
3.59029
3.5004
3.42612
3.35631
3.27071
3.18117
3.0867
2.98303
2.86589
2.73826
2.61253
2.51798
2.44792
2.39274
2.42258
2.55152
2.75143
2.83981
2.87762
2.896
2.88138
2.84553
2.80775
2.75353
2.69233
2.64626
2.60693
2.6412
2.80868
3.03484
3.13938
3.17875
3.20278
3.25319
3.33333
3.38649
3.38722
3.36756
3.33241
3.25136
3.12073
3.03909
3.00664
2.97757
2.94912
2.92749
2.91961
2.9041
2.87522
2.84485
2.81179
2.77364
2.72472
2.64988
2.56649
2.52139
2.4982
2.4783
2.4614
2.45899
2.50009
2.54103
2.55432
2.57468
2.6209
2.66158
2.67039
2.62321
2.56694
2.54488
2.51991
2.49689
2.4847
2.47681
2.47626
2.48442
2.5123
2.55191
4.55581
4.47644
4.39472
4.30983
4.22062
4.12623
4.02596
3.92129
3.81518
3.71104
3.6125
3.52352
3.44938
3.38473
3.29935
3.20817
3.11332
3.01196
2.90306
2.7856
2.66781
2.55768
2.45569
2.37724
2.35398
2.37077
2.49494
2.6831
2.80007
2.87951
2.88465
2.84642
2.79397
2.72958
2.68647
2.64823
2.67773
2.83668
3.03909
3.16807
3.21233
3.22145
3.23839
3.28749
3.36639
3.42427
3.43091
3.41292
3.3712
3.27549
3.12538
3.03854
3.00645
2.97704
2.94776
2.92286
2.90606
2.88505
2.8569
2.82809
2.79724
2.76306
2.72023
2.65983
2.58233
2.52934
2.50615
2.48896
2.47644
2.4771
2.49855
2.51931
2.52845
2.53752
2.5537
2.57701
2.5962
2.57689
2.5255
2.51394
2.49946
2.48126
2.47185
2.46764
2.4743
2.49849
2.53597
2.56686
4.55326
4.47681
4.39852
4.31713
4.23202
4.14143
4.04264
3.93622
3.82869
3.72498
3.6264
3.53567
3.4592
3.4
3.32047
3.2296
3.13549
3.03559
2.93121
2.8248
2.71233
2.5932
2.46782
2.376
2.33309
2.32126
2.33605
2.44548
2.61482
2.78075
2.86002
2.85315
2.79802
2.74526
2.70803
2.74364
2.88011
3.06765
3.15838
3.20019
3.22231
3.24102
3.26921
3.32563
3.40053
3.43143
3.42536
3.40404
3.36039
3.26513
3.11329
3.02403
2.99164
2.96156
2.93125
2.9061
2.88912
2.87901
2.85616
2.82795
2.79728
2.76329
2.72544
2.67954
2.61743
2.55956
2.53516
2.52378
2.51893
2.51776
2.50671
2.5003
2.50003
2.49953
2.49819
2.49815
2.50547
2.50277
2.46819
2.46952
2.46994
2.46258
2.4595
2.46802
2.49248
2.53837
2.58768
2.62719
4.54841
4.47229
4.39482
4.31561
4.23355
4.14661
4.05151
3.94572
3.83901
3.73494
3.63408
3.5396
3.45862
3.40212
3.33496
3.24681
3.15568
3.05874
2.95678
2.85167
2.73612
2.60723
2.48395
2.39433
2.34118
2.30281
2.29051
2.30225
2.38577
2.54899
2.74904
2.81525
2.80923
2.79434
2.83723
2.9493
3.08166
3.17202
3.20745
3.19945
3.21232
3.23827
3.2814
3.34944
3.41778
3.42901
3.4112
3.38119
3.32986
3.23025
3.08732
3.00447
2.97186
2.94248
2.91405
2.89161
2.87605
2.87191
2.8624
2.8368
2.80884
2.7777
2.74408
2.70896
2.66818
2.61483
2.57201
2.55327
2.53689
2.5188
2.49986
2.48326
2.47267
2.46148
2.44982
2.43981
2.43325
2.4233
2.40165
2.4011
2.42904
2.44916
2.47042
2.50159
2.54531
2.60387
2.64764
2.67547
4.54601
4.46887
4.39047
4.31065
4.22757
4.13812
4.04333
3.94935
3.84842
3.73871
3.63135
3.53573
3.45338
3.3971
3.34174
3.25743
3.16991
3.07756
2.97812
2.86894
2.74199
2.60646
2.49954
2.42321
2.36234
2.31115
2.27423
2.25295
2.24708
2.31358
2.50143
2.72026
2.84125
2.96349
3.0898
3.15528
3.17365
3.17399
3.18052
3.19173
3.20779
3.23502
3.2808
3.34908
3.41217
3.41768
3.39646
3.35994
3.29457
3.18497
3.05702
2.98458
2.9507
2.92239
2.89618
2.87476
2.85959
2.8573
2.85802
2.84552
2.82506
2.80258
2.77986
2.7549
2.72059
2.6667
2.60673
2.56681
2.54045
2.51878
2.49915
2.48215
2.46303
2.43986
2.41625
2.3959
2.37837
2.3658
2.34917
2.34611
2.37803
2.42714
2.48635
2.55384
2.61871
2.67641
2.69373
2.6979
4.5498
4.47176
4.39288
4.3128
4.23025
4.14447
4.05431
3.95841
3.85055
3.74138
3.63585
3.53733
3.45284
3.3951
3.3447
3.26353
3.17825
3.08996
2.99316
2.8782
2.73849
2.59984
2.51012
2.44625
2.38483
2.32752
2.27719
2.2343
2.20184
2.19724
2.2753
2.54269
2.87394
3.12313
3.28644
3.33084
3.26859
3.19595
3.16705
3.18096
3.20384
3.2287
3.27095
3.33814
3.40083
3.402
3.37867
3.33824
3.26219
3.14336
3.03041
2.97092
2.93643
2.90612
2.87981
2.85818
2.84193
2.84415
2.86422
2.86822
2.85593
2.84027
2.82271
2.80005
2.76018
2.69438
2.62157
2.57334
2.54187
2.5144
2.49158
2.46939
2.44436
2.41875
2.39271
2.36671
2.34233
2.32408
2.31555
2.31482
2.34321
2.41049
2.49914
2.58879
2.6693
2.72564
2.74412
2.73436
)
;

boundaryField
{
    inlet
    {
        type            calculated;
        value           uniform 1.40001;
    }
    outlet
    {
        type            calculated;
        value           nonuniform List<scalar> 
24
(
2.38342
2.41231
2.44918
2.50091
2.54919
2.56223
2.54188
2.52141
2.49525
2.48624
2.49424
2.4987
2.49999
2.50809
2.52798
2.55094
2.5384
2.53931
2.55154
2.56838
2.62839
2.67584
2.69791
2.734
)
;
    }
    bottom
    {
        type            calculated;
        value           nonuniform List<scalar> 
24
(
13.7338
7.24946
6.48374
6.54907
6.52247
6.45221
6.35689
6.26485
6.21904
6.21317
6.23871
6.25805
6.24874
6.22239
6.18914
6.17372
6.17386
6.17893
6.18223
6.18677
6.20674
6.24605
6.28977
6.3231
)
;
    }
    top
    {
        type            calculated;
        value           nonuniform List<scalar> 
120
(
11.0718
6.42592
6.00467
6.01052
6.00574
5.994
5.96276
5.9027
5.81483
5.70077
5.57179
5.45559
5.38619
5.36716
5.37521
5.38584
5.38129
5.3566
5.30992
5.25309
5.19821
5.14929
5.10541
5.06765
5.03308
4.99714
4.95501
4.90197
4.84129
4.77427
4.70224
4.62679
4.5498
4.47176
4.39288
4.3128
4.23025
4.14447
4.05431
3.95841
3.85055
3.74138
3.63585
3.53733
3.45284
3.3951
3.3447
3.26353
3.17825
3.08996
2.99316
2.8782
2.73849
2.59984
2.51012
2.44625
2.38483
2.32752
2.27719
2.2343
2.20184
2.19724
2.2753
2.54269
2.87394
3.12313
3.28644
3.33084
3.26859
3.19595
3.16705
3.18096
3.20384
3.2287
3.27095
3.33814
3.40083
3.402
3.37867
3.33824
3.26219
3.14336
3.03041
2.97092
2.93643
2.90612
2.87981
2.85818
2.84193
2.84415
2.86422
2.86822
2.85593
2.84027
2.82271
2.80005
2.76018
2.69438
2.62157
2.57334
2.54187
2.5144
2.49158
2.46939
2.44436
2.41875
2.39271
2.36671
2.34233
2.32408
2.31555
2.31482
2.34321
2.41049
2.49914
2.58879
2.6693
2.72564
2.74412
2.73436
)
;
    }
    obstacle
    {
        type            calculated;
        value           nonuniform List<scalar> 
112
(
6.3231
6.30291
6.27393
6.23345
6.19282
6.13261
6.05679
6.04744
4.81719
5.21531
5.37754
5.38676
5.34636
5.27306
5.20147
5.16491
5.16491
5.1656
5.17951
5.21966
5.25306
5.28424
5.25334
5.20782
1.60201
0.795708
0.542201
0.575167
0.725524
0.980076
1.32336
1.5364
1.6548
2.14503
2.71921
2.96475
3.01774
3.03608
3.07204
3.1208
3.17864
3.18263
3.15482
3.08013
3.02619
3.0047
2.9807
2.94961
2.91751
2.89381
2.88966
2.90927
2.93494
2.94739
2.94341
2.9289
2.9102
2.88624
2.85386
2.81692
2.78054
2.7508
2.72594
2.69667
2.66473
2.63454
2.60508
2.57177
2.53307
2.47967
2.3964
2.31913
2.27941
2.25027
2.22065
2.18778
2.15128
2.11285
2.10437
2.16222
2.38781
2.74159
3.00747
3.11965
3.14331
3.14627
3.11668
3.08161
3.04578
3.00884
2.95816
2.88287
2.81265
2.77395
2.75248
2.73597
2.73342
2.7644
2.81441
2.83092
2.81984
2.80144
2.77944
2.74549
2.68054
2.58926
2.51221
2.46071
2.42861
2.40522
2.39087
2.38509
)
;
    }
    defaultFaces
    {
        type            empty;
    }
}


// ************************************************************************* //
