/*--------------------------------*- C++ -*----------------------------------*\
  =========                 |
  \\      /  F ield         | OpenFOAM: The Open Source CFD Toolbox
   \\    /   O peration     | Website:  https://openfoam.org
    \\  /    A nd           | Version:  7
     \\/     M anipulation  |
\*---------------------------------------------------------------------------*/
FoamFile
{
    version     2.0;
    format      ascii;
    class       volScalarField;
    location    "1.5";
    object      T;
}
// * * * * * * * * * * * * * * * * * * * * * * * * * * * * * * * * * * * * * //

dimensions      [0 0 0 1 0 0 0];

internalField   nonuniform List<scalar> 
4128
(
1.89933
1.89883
1.89669
1.89229
1.88428
1.87835
1.8763
1.87568
1.87583
1.87764
1.88153
1.88534
1.88644
1.88597
1.88464
1.8812
1.87735
1.87654
1.87761
1.88057
1.88395
1.88802
1.89236
1.8963
1.89876
1.89943
1.89935
1.89751
1.89394
1.89221
1.89163
1.89086
1.89009
1.88937
1.88832
1.88719
1.88685
1.88684
1.88535
1.88362
1.88234
1.88024
1.87859
1.87857
1.87988
1.88296
1.88696
1.89104
1.89458
1.89718
1.89897
1.90012
1.90034
1.89989
1.89893
1.89772
1.89555
1.893
1.8909
1.8882
1.88448
1.88018
1.87594
1.87289
1.87113
1.86884
1.86572
1.86276
1.85996
1.85699
1.85414
1.85194
1.84994
1.84683
1.84202
1.83697
1.83171
1.82723
1.82493
1.82939
1.8525
1.92446
2.07269
2.26608
2.47315
2.64427
2.77008
2.86188
2.89807
2.89103
2.86235
2.81658
2.78187
2.75532
2.74724
2.74189
2.73468
2.72439
2.712
2.7024
2.69242
2.68152
2.67075
2.65334
2.63619
2.62397
2.61573
2.61119
2.604
2.59779
2.59273
2.58856
2.58582
2.58457
2.58187
2.58019
2.57782
2.57487
2.57396
2.57461
2.57577
2.57564
2.57499
2.57361
2.57106
2.56724
2.56259
2.55869
2.55462
1.88961
1.8885
1.88694
1.8846
1.88184
1.87925
1.87639
1.87403
1.87298
1.87327
1.87511
1.87699
1.87771
1.87774
1.87735
1.87676
1.87618
1.87599
1.87618
1.87731
1.87964
1.88265
1.88592
1.88855
1.89005
1.891
1.89154
1.89155
1.89141
1.89074
1.88954
1.8882
1.88685
1.88534
1.88357
1.88167
1.8802
1.87889
1.87673
1.87544
1.87512
1.87524
1.87596
1.87703
1.87881
1.88162
1.88491
1.88809
1.89085
1.89282
1.89356
1.89338
1.8926
1.89239
1.89237
1.89216
1.89135
1.88976
1.88788
1.88533
1.88211
1.87838
1.87455
1.87177
1.8701
1.86763
1.86405
1.86042
1.85661
1.85292
1.84934
1.84572
1.84172
1.83764
1.83455
1.83221
1.83082
1.83497
1.85217
1.89912
1.9847
2.0986
2.18972
2.24629
2.30934
2.40413
2.51353
2.59116
2.65852
2.71149
2.74391
2.74617
2.7383
2.72321
2.71355
2.70873
2.70069
2.69264
2.68215
2.67129
2.65975
2.64781
2.63637
2.62216
2.60798
2.59739
2.5906
2.58654
2.58009
2.57507
2.56992
2.56471
2.56044
2.5584
2.55688
2.55542
2.55435
2.55429
2.55476
2.55605
2.55743
2.55776
2.5575
2.55725
2.55636
2.55419
2.55076
2.54638
2.54029
1.86684
1.86389
1.86153
1.8606
1.86139
1.86198
1.862
1.86193
1.86193
1.86108
1.85922
1.85725
1.85596
1.85516
1.85509
1.8564
1.85777
1.85926
1.86141
1.86399
1.86632
1.86784
1.86841
1.8686
1.86882
1.86907
1.86975
1.87099
1.87281
1.87382
1.8739
1.87377
1.87331
1.87235
1.87043
1.86747
1.86383
1.86013
1.85701
1.85499
1.85462
1.8553
1.85748
1.85971
1.86279
1.86709
1.87224
1.87733
1.88056
1.88103
1.87992
1.87735
1.87543
1.87503
1.87514
1.87512
1.87498
1.87445
1.87302
1.87069
1.86794
1.86495
1.86206
1.85998
1.8586
1.85705
1.85468
1.85132
1.84754
1.84275
1.83657
1.82949
1.82297
1.81841
1.81932
1.8265
1.84702
1.8896
1.95746
2.04379
2.13032
2.17666
2.20606
2.22542
2.22085
2.20372
2.22049
2.28409
2.37896
2.47872
2.55975
2.61305
2.63574
2.6465
2.64029
2.63291
2.61753
2.60735
2.59748
2.59115
2.583
2.57262
2.56121
2.5519
2.5455
2.54006
2.53581
2.53
2.52335
2.51779
2.51176
2.50492
2.4977
2.49142
2.48688
2.48515
2.48569
2.48821
2.49237
2.49662
2.50053
2.50319
2.50381
2.50343
2.5036
2.50404
2.50403
2.50337
2.49957
1.83323
1.82877
1.82563
1.82446
1.82417
1.82429
1.82513
1.82673
1.828
1.82817
1.82791
1.82711
1.82565
1.82441
1.82359
1.82323
1.82334
1.82421
1.82603
1.82825
1.83037
1.83226
1.83396
1.83544
1.8366
1.83754
1.83839
1.8396
1.84084
1.84101
1.84079
1.84025
1.83938
1.83785
1.8362
1.8344
1.83211
1.8294
1.82702
1.82541
1.82418
1.82369
1.8239
1.82508
1.8277
1.83172
1.83712
1.84349
1.84959
1.85342
1.85411
1.85345
1.85173
1.85038
1.85002
1.84998
1.84996
1.84971
1.8486
1.84661
1.844
1.84091
1.83773
1.83467
1.83192
1.8295
1.82705
1.82359
1.8191
1.81402
1.80826
1.80299
1.80375
1.80943
1.83115
1.87152
1.9277
1.99533
2.06102
2.10485
2.145
2.17454
2.16513
2.15057
2.13489
2.1209
2.11278
2.09518
2.10725
2.16541
2.26463
2.3654
2.43223
2.48056
2.49884
2.51442
2.5156
2.51951
2.51989
2.51835
2.50833
2.49537
2.48305
2.47461
2.46798
2.46303
2.45703
2.44919
2.44315
2.43847
2.4342
2.4286
2.42285
2.41679
2.40976
2.40467
2.40435
2.40573
2.41012
2.41615
2.422
2.42766
2.43235
2.43321
2.43219
2.43176
2.43198
2.43198
2.4294
1.7789
1.77782
1.77776
1.77775
1.77746
1.7769
1.77672
1.77679
1.77703
1.77727
1.77734
1.77722
1.77736
1.77809
1.77881
1.77904
1.77924
1.77982
1.78013
1.77965
1.77887
1.77899
1.78055
1.78305
1.78556
1.78826
1.79139
1.79483
1.79664
1.79678
1.79662
1.79558
1.79279
1.7893
1.78656
1.78453
1.78253
1.78074
1.78001
1.78005
1.78003
1.77949
1.77972
1.78053
1.782
1.78432
1.78786
1.79274
1.79842
1.80379
1.80796
1.81004
1.81029
1.80999
1.80917
1.80895
1.80932
1.80967
1.80963
1.80915
1.80787
1.80587
1.80333
1.80023
1.7959
1.79085
1.78559
1.77998
1.77411
1.76994
1.77269
1.78195
1.8067
1.84931
1.90217
1.95658
2.004
2.03589
2.06808
2.10769
2.10821
2.10341
2.09073
2.07875
2.0707
2.06219
2.04963
2.03644
2.03099
2.02283
2.03918
2.08997
2.16825
2.25983
2.32834
2.37634
2.4024
2.42007
2.43132
2.44106
2.44628
2.44295
2.43553
2.42607
2.41623
2.40672
2.39674
2.3865
2.37829
2.37273
2.36894
2.36636
2.36299
2.35981
2.35639
2.35207
2.34973
2.34989
2.35251
2.35715
2.36363
2.3705
2.37529
2.37759
2.37708
2.37391
2.37232
2.3721
2.36899
1.72363
1.72468
1.72577
1.72633
1.72648
1.72634
1.72593
1.72545
1.72514
1.72513
1.72541
1.72581
1.72708
1.72898
1.73067
1.73142
1.73156
1.73155
1.7308
1.72884
1.72682
1.7263
1.72731
1.73006
1.73318
1.73677
1.74074
1.74431
1.74609
1.74634
1.74626
1.74515
1.74241
1.73945
1.737
1.73481
1.73282
1.73122
1.73063
1.73076
1.73059
1.72976
1.72991
1.7306
1.7316
1.73294
1.73506
1.73838
1.74302
1.74897
1.75532
1.75954
1.76136
1.76159
1.76058
1.75927
1.75921
1.75971
1.76017
1.7602
1.75994
1.75891
1.75705
1.75431
1.75016
1.74501
1.73927
1.73527
1.7384
1.7477
1.77317
1.81759
1.87141
1.92272
1.96403
1.98145
2.00316
2.03496
2.05294
2.05876
2.05656
2.05318
2.0456
2.03534
2.02681
2.02014
2.01407
2.0072
1.99859
1.99008
1.98448
1.98333
1.99452
2.03241
2.10279
2.18455
2.26276
2.31674
2.35317
2.37388
2.3935
2.39641
2.39861
2.39521
2.38986
2.38287
2.37211
2.35804
2.34619
2.339
2.33538
2.33334
2.33124
2.33134
2.33226
2.33244
2.33113
2.32972
2.3305
2.33304
2.3379
2.34422
2.34714
2.34781
2.34649
2.34339
2.33982
2.33748
2.33332
1.68123
1.68217
1.6824
1.68213
1.68125
1.68039
1.68007
1.68017
1.68074
1.68181
1.68383
1.68674
1.68943
1.6902
1.68999
1.6891
1.68706
1.68489
1.68342
1.68289
1.683
1.68389
1.68582
1.68924
1.69344
1.6973
1.69977
1.7007
1.70096
1.70086
1.69991
1.69833
1.69638
1.69445
1.69273
1.69127
1.68997
1.6892
1.6893
1.68958
1.68878
1.68731
1.68625
1.68531
1.68481
1.68491
1.68589
1.68847
1.69319
1.7003
1.70755
1.71253
1.71492
1.71511
1.71389
1.71256
1.71235
1.71269
1.71325
1.71331
1.71308
1.7119
1.70968
1.70672
1.70296
1.70062
1.70393
1.71415
1.7414
1.7874
1.84378
1.89479
1.93822
1.94778
1.9583
1.97799
2.00821
2.01984
2.02477
2.03341
2.03381
2.02772
2.01626
2.00807
2.00324
2.00137
1.99933
1.99377
1.98697
1.97876
1.97104
1.96902
1.96962
1.97165
1.97946
2.00304
2.06109
2.13471
2.21886
2.27734
2.3301
2.35251
2.36983
2.36862
2.3682
2.3656
2.35998
2.35024
2.33816
2.33075
2.32573
2.32318
2.3242
2.32651
2.32876
2.33118
2.33158
2.33023
2.32738
2.32706
2.32841
2.33114
2.33469
2.33784
2.33911
2.338
2.33398
2.32874
2.32309
1.64962
1.64884
1.64834
1.64806
1.64802
1.64851
1.64957
1.65144
1.65403
1.65691
1.65877
1.65899
1.65886
1.65778
1.65563
1.65397
1.65323
1.65315
1.65366
1.65563
1.65874
1.66157
1.66343
1.66438
1.66506
1.66536
1.66495
1.66423
1.66408
1.66462
1.66464
1.66436
1.66374
1.66304
1.66251
1.66218
1.66187
1.66103
1.65964
1.65785
1.65548
1.65326
1.65171
1.65112
1.6512
1.65194
1.65383
1.65734
1.66236
1.66773
1.67232
1.67485
1.67524
1.67483
1.67428
1.6743
1.67449
1.67452
1.67442
1.6736
1.67244
1.67071
1.66936
1.67041
1.67442
1.68536
1.71491
1.76314
1.82188
1.87396
1.91924
1.92751
1.93263
1.943
1.96447
1.98983
1.99766
2.00819
2.02402
2.02462
2.02009
2.01024
2.0024
1.99735
1.99614
1.99386
1.9898
1.98588
1.98169
1.97647
1.96992
1.96587
1.96587
1.96771
1.97219
1.97486
1.97788
1.99143
2.02701
2.08585
2.16481
2.23953
2.30566
2.33459
2.34884
2.35108
2.34818
2.34406
2.34093
2.3373
2.33266
2.32828
2.32685
2.32815
2.33297
2.33886
2.34145
2.34199
2.34239
2.34084
2.33726
2.33408
2.3327
2.33333
2.33691
2.33834
2.33714
2.33406
2.32978
1.62696
1.62662
1.62699
1.62834
1.63003
1.63253
1.63549
1.63813
1.63922
1.63936
1.63902
1.6381
1.63642
1.63514
1.63497
1.63538
1.63659
1.63924
1.64259
1.6453
1.6463
1.64646
1.64599
1.64476
1.6428
1.64107
1.64056
1.64089
1.64199
1.64349
1.64518
1.64638
1.64682
1.64687
1.6466
1.64522
1.64284
1.64007
1.6373
1.63467
1.63276
1.63195
1.63193
1.63236
1.63425
1.63687
1.63934
1.64121
1.64268
1.64338
1.64367
1.64333
1.64314
1.64381
1.64521
1.64635
1.64677
1.64666
1.64573
1.64364
1.64368
1.64539
1.64957
1.66126
1.69299
1.74452
1.80884
1.86141
1.90755
1.91897
1.92125
1.92576
1.93678
1.95613
1.97464
1.98831
2.00697
2.02171
2.02186
2.01699
2.00913
2.00333
1.99942
1.99452
1.98909
1.987
1.98556
1.98438
1.98298
1.98095
1.97754
1.97239
1.96921
1.96948
1.97222
1.97684
1.98041
1.98088
1.97876
1.97921
1.99519
2.03895
2.11253
2.19599
2.26858
2.30759
2.32726
2.34137
2.34866
2.3488
2.34943
2.34915
2.34805
2.34603
2.34648
2.35049
2.35499
2.35851
2.3607
2.36013
2.35646
2.34966
2.34533
2.34334
2.34269
2.34363
2.34524
2.34564
2.34405
1.61623
1.61663
1.61788
1.62026
1.62343
1.62618
1.62736
1.62777
1.62777
1.62754
1.62651
1.62535
1.62522
1.62551
1.62665
1.62919
1.63212
1.63402
1.63453
1.63475
1.63469
1.63447
1.63331
1.63116
1.63029
1.63009
1.63034
1.63152
1.63358
1.63612
1.63785
1.63827
1.63815
1.6368
1.63447
1.63196
1.6293
1.62632
1.62393
1.62279
1.62242
1.62245
1.62391
1.62653
1.62844
1.62895
1.62893
1.62819
1.627
1.62577
1.62418
1.62386
1.62488
1.62704
1.62962
1.63065
1.63074
1.63092
1.63026
1.63085
1.63409
1.64522
1.67636
1.72877
1.79683
1.85267
1.9
1.91539
1.91637
1.92025
1.92758
1.93664
1.94933
1.96615
1.98833
2.01344
2.02418
2.02375
2.01718
2.00961
2.0051
2.00382
1.99955
1.99211
1.98576
1.98389
1.98411
1.98614
1.98834
1.99044
1.99054
1.98843
1.98453
1.98168
1.98169
1.98292
1.98498
1.98788
1.98806
1.98383
1.97333
1.96592
1.97316
2.00362
2.06416
2.14815
2.22975
2.2891
2.32061
2.34306
2.35853
2.3703
2.37215
2.37204
2.37158
2.37059
2.37005
2.37112
2.37378
2.37386
2.37279
2.37052
2.36378
2.358
2.3574
2.35801
2.35849
2.3592
2.35942
1.61286
1.61434
1.6166
1.61866
1.61993
1.62078
1.62111
1.62114
1.62068
1.62016
1.62027
1.6208
1.62168
1.62377
1.62598
1.62717
1.62771
1.62792
1.6279
1.62732
1.62626
1.62554
1.62549
1.62567
1.62627
1.62751
1.62909
1.63086
1.63209
1.63246
1.63249
1.63213
1.63097
1.62912
1.62663
1.62378
1.62122
1.61959
1.61877
1.61839
1.61902
1.62107
1.62298
1.62333
1.62312
1.6223
1.62082
1.61867
1.61637
1.61502
1.61487
1.61558
1.61756
1.62086
1.62391
1.62404
1.6245
1.625
1.62689
1.63596
1.66423
1.7175
1.78568
1.84584
1.89334
1.91519
1.91338
1.91692
1.925
1.93183
1.93695
1.94701
1.96646
1.99405
2.01787
2.02778
2.02741
2.02002
2.01255
2.00903
2.00766
2.00423
1.999
1.99484
1.99155
1.98927
1.98886
1.99182
1.99708
2.00206
2.00605
2.00777
2.00675
2.0021
1.99712
1.99472
1.99291
1.9922
1.9929
1.99249
1.98523
1.97328
1.9608
1.95885
1.96415
1.98614
2.03441
2.11232
2.1996
2.27037
2.31009
2.34113
2.36437
2.38313
2.38948
2.38607
2.3824
2.38119
2.3801
2.37898
2.37878
2.37862
2.37647
2.37147
2.36602
2.36479
2.36524
2.36631
2.36728
1.61437
1.61621
1.61708
1.61739
1.6173
1.61677
1.61595
1.61564
1.61618
1.61742
1.61864
1.62088
1.62338
1.62455
1.62495
1.62502
1.6248
1.62386
1.62239
1.62162
1.62168
1.62204
1.62271
1.62481
1.6274
1.62933
1.63033
1.63064
1.63064
1.63011
1.6292
1.62792
1.62587
1.62339
1.62113
1.6194
1.61807
1.61733
1.61751
1.61907
1.62109
1.62164
1.62125
1.62036
1.61875
1.61631
1.6135
1.61161
1.61074
1.61054
1.61108
1.61366
1.61684
1.61944
1.62041
1.62082
1.62242
1.62957
1.65337
1.70723
1.77573
1.84036
1.88774
1.91778
1.91689
1.91685
1.92338
1.93158
1.93581
1.9395
1.95073
1.97291
2.00179
2.02501
2.03192
2.02905
2.02497
2.02158
2.01789
2.01224
2.0074
2.00356
2.00406
2.00566
2.0069
2.00712
2.00578
2.00562
2.01017
2.01654
2.02169
2.02503
2.02612
2.02386
2.01633
2.008
2.00224
1.9977
1.99495
1.99471
1.99318
1.98555
1.9754
1.96643
1.96258
1.96224
1.96431
1.97578
2.00663
2.06462
2.14815
2.22922
2.28748
2.32717
2.35975
2.37965
2.38467
2.38404
2.38061
2.3775
2.37621
2.37636
2.37544
2.37386
2.37017
2.36598
2.36478
2.36555
2.36699
1.6166
1.61717
1.61726
1.61677
1.61533
1.61367
1.61326
1.61383
1.61514
1.61702
1.62018
1.62264
1.62345
1.62409
1.6245
1.62448
1.62328
1.62119
1.62052
1.62054
1.62076
1.62161
1.624
1.62656
1.62798
1.62886
1.62937
1.62946
1.62944
1.62889
1.62724
1.62492
1.62263
1.62084
1.61936
1.61827
1.61779
1.61828
1.62022
1.62157
1.62131
1.62076
1.61979
1.61787
1.61487
1.61188
1.61006
1.60908
1.60887
1.60983
1.61255
1.61619
1.6171
1.61853
1.61818
1.62294
1.64185
1.69158
1.76279
1.83016
1.88119
1.91796
1.92603
1.9223
1.92592
1.93292
1.93947
1.94225
1.94517
1.9576
1.98273
2.01357
2.0351
2.03781
2.03578
2.03578
2.03541
2.03263
2.02481
2.01491
2.01242
2.0131
2.01653
2.02137
2.02659
2.02946
2.02833
2.02574
2.02747
2.03251
2.03612
2.03887
2.03947
2.0382
2.03222
2.02104
2.0102
2.0026
1.99644
1.99365
1.99438
1.99397
1.98874
1.98064
1.97112
1.96535
1.96237
1.96017
1.95981
1.96363
1.98078
2.0197
2.08999
2.17209
2.24548
2.29532
2.33348
2.35838
2.36171
2.36349
2.36346
2.36501
2.36443
2.36357
2.36232
2.36113
2.35925
2.35794
2.35781
1.6177
1.61745
1.61667
1.61511
1.61339
1.61304
1.61342
1.61453
1.61614
1.61893
1.62157
1.62267
1.62346
1.62401
1.62405
1.62321
1.62219
1.62222
1.62253
1.62287
1.62382
1.62519
1.62591
1.62611
1.62636
1.6269
1.62761
1.62786
1.62784
1.62688
1.62495
1.6234
1.62247
1.62138
1.6204
1.62015
1.621
1.62272
1.6227
1.62183
1.62088
1.6197
1.61767
1.6145
1.61185
1.61049
1.60967
1.60953
1.61058
1.61374
1.61572
1.61681
1.61654
1.61921
1.63475
1.67735
1.74886
1.81761
1.87131
1.91189
1.93196
1.93127
1.93265
1.93843
1.94491
1.94965
1.95154
1.95313
1.96633
1.99472
2.02698
2.0491
2.05018
2.0477
2.04746
2.04727
2.04626
2.04141
2.03475
2.02867
2.02737
2.02899
2.03324
2.03893
2.04479
2.04885
2.04945
2.04696
2.04458
2.04542
2.0462
2.04639
2.04756
2.04703
2.04141
2.03045
2.01633
2.00538
1.99836
1.99307
1.99214
1.99503
1.99507
1.99023
1.98134
1.96977
1.96278
1.95866
1.95508
1.95395
1.95345
1.95077
1.95419
1.97435
2.02473
2.10293
2.18074
2.24407
2.28408
2.31635
2.32547
2.33412
2.33868
2.34394
2.34405
2.34443
2.3439
2.34171
2.34101
1.61823
1.6168
1.61474
1.61373
1.61387
1.61489
1.61636
1.61814
1.62
1.62125
1.62228
1.62313
1.62343
1.62328
1.623
1.62323
1.62408
1.62543
1.62721
1.62861
1.62905
1.62893
1.62847
1.62755
1.62637
1.6258
1.62588
1.62594
1.62576
1.62539
1.62507
1.62458
1.62404
1.62375
1.62392
1.62508
1.62594
1.62531
1.62405
1.62281
1.62126
1.61876
1.61562
1.6133
1.61174
1.61093
1.611
1.61271
1.61499
1.61585
1.61688
1.61836
1.62959
1.66469
1.73282
1.80648
1.86262
1.90518
1.93265
1.94129
1.94153
1.94629
1.95273
1.95904
1.96119
1.96279
1.96341
1.97647
2.00722
2.04116
2.0658
2.06625
2.06546
2.06438
2.06218
2.05868
2.0552
2.05234
2.05083
2.0498
2.0482
2.04782
2.05053
2.05558
2.06032
2.0636
2.06477
2.06332
2.05824
2.05439
2.05211
2.04979
2.0489
2.0487
2.04535
2.0361
2.02236
2.00811
1.99942
1.99375
1.98977
1.9898
1.99321
1.99261
1.98673
1.97666
1.96352
1.95467
1.9488
1.94372
1.94057
1.93973
1.93776
1.92891
1.92054
1.92723
1.95859
2.02511
2.10015
2.17645
2.2266
2.26512
2.28429
2.29575
2.30692
2.31585
2.3148
2.31173
2.31132
1.61889
1.61629
1.61516
1.61542
1.61692
1.61911
1.62171
1.62346
1.6248
1.62567
1.6258
1.62523
1.62421
1.62392
1.6242
1.62517
1.62756
1.63093
1.63304
1.63363
1.63359
1.63314
1.63158
1.62876
1.62645
1.62561
1.62539
1.62543
1.62603
1.62708
1.62801
1.62863
1.62898
1.62939
1.62993
1.63021
1.62946
1.62783
1.6261
1.62402
1.62111
1.61797
1.61591
1.61458
1.61404
1.61443
1.61599
1.61635
1.61706
1.61748
1.62472
1.65246
1.71517
1.79301
1.85274
1.898
1.93182
1.9491
1.95332
1.95627
1.96145
1.96876
1.97217
1.97411
1.97608
1.97571
1.98869
2.02214
2.05674
2.0788
2.0851
2.08773
2.08706
2.08311
2.07631
2.06967
2.06714
2.06723
2.06807
2.06863
2.06799
2.0661
2.06623
2.06834
2.07022
2.07166
2.07237
2.07186
2.06758
2.05988
2.05421
2.05031
2.04612
2.04317
2.042
2.03753
2.02744
2.01373
1.99992
1.99201
1.98692
1.98353
1.98376
1.98695
1.98646
1.9793
1.96738
1.95264
1.94024
1.9313
1.92404
1.91985
1.9182
1.91454
1.9078
1.90159
1.8897
1.88698
1.90307
1.94904
2.02205
2.0977
2.16117
2.20524
2.2388
2.25802
2.2635
2.27141
2.27776
1.6207
1.62022
1.62064
1.62189
1.62367
1.62566
1.62763
1.6294
1.63081
1.63121
1.63068
1.62948
1.62922
1.62965
1.63047
1.63181
1.63377
1.6355
1.63669
1.63719
1.63722
1.63653
1.63438
1.63163
1.63009
1.62956
1.62954
1.62981
1.63051
1.63136
1.63218
1.63297
1.63372
1.63433
1.63464
1.63439
1.63303
1.63126
1.62905
1.62604
1.62285
1.62059
1.61912
1.61861
1.61907
1.61922
1.61971
1.61925
1.62409
1.64555
1.70083
1.77907
1.84679
1.89296
1.92913
1.9517
1.96443
1.96924
1.97378
1.97973
1.98265
1.98496
1.98785
1.98895
1.98961
2.00635
2.04195
2.07656
2.09273
2.09832
2.10385
2.106
2.1041
2.09832
2.08879
2.08232
2.08109
2.08131
2.08179
2.08179
2.08158
2.07981
2.07665
2.07446
2.0738
2.07302
2.07347
2.07406
2.07119
2.06351
2.05256
2.04447
2.03854
2.03283
2.03024
2.03051
2.02762
2.01771
2.00447
1.99069
1.98172
1.97597
1.97324
1.97331
1.97579
1.97465
1.96573
1.95184
1.93566
1.92105
1.91014
1.90155
1.89721
1.89563
1.89254
1.88556
1.87669
1.8689
1.85844
1.85062
1.85589
1.88246
1.94137
2.01382
2.08784
2.14601
2.18548
2.2072
2.22621
1.6276
1.62951
1.63155
1.63337
1.63496
1.63643
1.63786
1.63884
1.63896
1.63831
1.63783
1.63827
1.63924
1.64012
1.64146
1.64316
1.64404
1.64403
1.6438
1.64317
1.64169
1.63963
1.63839
1.63824
1.63843
1.63874
1.63895
1.63916
1.63931
1.63947
1.63977
1.6402
1.64048
1.6405
1.64023
1.6391
1.63737
1.63531
1.6327
1.62996
1.62788
1.62634
1.62541
1.62489
1.6241
1.62347
1.62589
1.64138
1.6889
1.76586
1.83931
1.89218
1.93343
1.95601
1.97133
1.98083
1.98678
1.99282
1.99532
1.99746
1.99932
2.00001
1.99941
2.00324
2.02463
2.0626
2.10193
2.11264
2.11223
2.11497
2.11616
2.11619
2.11289
2.10679
2.09836
2.09324
2.09174
2.09084
2.09081
2.09054
2.08858
2.08527
2.08005
2.075
2.07172
2.06883
2.06709
2.06853
2.06899
2.06388
2.05191
2.0368
2.02624
2.01956
2.01476
2.01352
2.01481
2.01324
2.00444
1.99204
1.97831
1.96781
1.96059
1.95665
1.95525
1.95563
1.9527
1.94141
1.92747
1.91349
1.9009
1.89075
1.8823
1.87753
1.87455
1.87055
1.86409
1.85498
1.84621
1.83787
1.83181
1.82225
1.81966
1.83158
1.87159
1.93577
2.01166
2.07314
2.14615
1.63977
1.64264
1.64522
1.64752
1.64941
1.65045
1.65053
1.6497
1.6484
1.64832
1.64939
1.65075
1.65231
1.65413
1.6557
1.65642
1.65632
1.65578
1.65434
1.65167
1.64872
1.64717
1.64694
1.64745
1.64886
1.65027
1.65095
1.65104
1.65091
1.65067
1.65054
1.6504
1.65001
1.64918
1.64787
1.64609
1.64394
1.64148
1.639
1.63643
1.63426
1.6334
1.63238
1.63169
1.63122
1.64125
1.67861
1.75279
1.83216
1.89135
1.93556
1.96381
1.98267
1.99143
1.99751
2.00431
2.00758
2.01049
2.01157
2.01189
2.00961
2.00903
2.01414
2.03691
2.07414
2.11673
2.13039
2.13356
2.13208
2.12657
2.12176
2.11763
2.11377
2.11078
2.10633
2.10067
2.09734
2.0954
2.09399
2.09275
2.09015
2.08623
2.07982
2.07132
2.06442
2.05869
2.05385
2.05237
2.05428
2.05448
2.04774
2.03418
2.01718
2.00383
1.99579
1.99121
1.99022
1.99174
1.99073
1.98294
1.97218
1.95983
1.94789
1.93845
1.93155
1.92831
1.92656
1.92193
1.91151
1.90089
1.89102
1.88138
1.87227
1.86371
1.85631
1.85119
1.84717
1.84216
1.83551
1.82755
1.81895
1.81012
1.80255
1.79374
1.78796
1.79233
1.81531
1.85823
1.97082
1.65532
1.65839
1.66103
1.66335
1.66486
1.66491
1.66334
1.6614
1.66131
1.66253
1.66401
1.66537
1.66741
1.66915
1.6696
1.66939
1.66882
1.66715
1.66387
1.66068
1.65933
1.65911
1.65937
1.66043
1.66188
1.66291
1.66348
1.66368
1.66367
1.66344
1.66281
1.6619
1.66074
1.65911
1.6571
1.65488
1.65242
1.64986
1.64725
1.64472
1.64342
1.64358
1.64169
1.64698
1.67424
1.74166
1.82463
1.89213
1.94032
1.97167
1.99103
2.00296
2.01032
2.01629
2.01944
2.02287
2.02288
2.02235
2.02003
2.01733
2.01801
2.02309
2.04429
2.08134
2.11324
2.13502
2.14515
2.14504
2.1411
2.13083
2.119
2.11398
2.1117
2.11243
2.11042
2.10472
2.09877
2.09434
2.09042
2.08719
2.0846
2.08145
2.07537
2.06626
2.05435
2.04323
2.03457
2.02943
2.02817
2.03017
2.03007
2.02262
2.00994
1.99374
1.97886
1.96891
1.96227
1.96046
1.96129
1.96048
1.95338
1.94315
1.93188
1.91963
1.90962
1.90162
1.89716
1.89531
1.89143
1.88342
1.87571
1.86804
1.85936
1.8503
1.84179
1.83395
1.82822
1.82591
1.82351
1.81838
1.80987
1.80076
1.79132
1.78168
1.77336
1.76657
1.76103
1.76115
1.78809
1.67179
1.6747
1.67703
1.67831
1.67825
1.67647
1.67444
1.67433
1.6755
1.67711
1.67829
1.67936
1.68061
1.68113
1.68095
1.68048
1.67924
1.6766
1.67396
1.67314
1.67308
1.67334
1.67384
1.6744
1.67472
1.67484
1.67498
1.67531
1.67548
1.67532
1.67474
1.6738
1.67228
1.6703
1.668
1.66555
1.66276
1.65976
1.65725
1.65574
1.65611
1.65856
1.67595
1.73333
1.81709
1.89246
1.94771
1.9826
2.00118
2.01162
2.01918
2.02664
2.03057
2.03334
2.0337
2.03253
2.02863
2.02475
2.0235
2.02438
2.02991
2.04913
2.08792
2.11546
2.13165
2.1429
2.14757
2.14609
2.13993
2.12756
2.11559
2.11051
2.10824
2.10837
2.10867
2.10469
2.09727
2.0886
2.08115
2.07463
2.06853
2.06507
2.06212
2.05514
2.04378
2.02983
2.01578
2.00495
1.9985
1.99738
1.99923
1.99864
1.99089
1.97948
1.96561
1.95188
1.94128
1.93229
1.92867
1.92831
1.92614
1.91798
1.90773
1.89711
1.88651
1.87857
1.87208
1.86885
1.86766
1.86337
1.85658
1.85022
1.84301
1.83479
1.82698
1.81977
1.81311
1.80889
1.80689
1.80419
1.79853
1.79028
1.78182
1.77295
1.76355
1.75409
1.74649
1.7414
1.73575
1.68693
1.68879
1.68926
1.68847
1.68562
1.68405
1.68444
1.68591
1.68757
1.68891
1.68984
1.69033
1.69051
1.69064
1.69057
1.68974
1.68779
1.68564
1.68507
1.68495
1.68498
1.68503
1.68489
1.68449
1.68401
1.68399
1.6843
1.68505
1.68572
1.6858
1.68556
1.68471
1.68298
1.68096
1.67859
1.67608
1.67325
1.6698
1.66944
1.67071
1.68224
1.72726
1.80763
1.89212
1.95352
1.99291
2.01459
2.02318
2.02628
2.03175
2.03723
2.04061
2.04119
2.04099
2.03796
2.03241
2.02892
2.02703
2.02765
2.03429
2.05311
2.0875
2.12431
2.13356
2.13994
2.13716
2.13531
2.13372
2.12809
2.12146
2.11148
2.10241
2.09741
2.09386
2.09201
2.09068
2.08588
2.0766
2.06669
2.05736
2.04886
2.0411
2.03652
2.03251
2.02423
2.0116
1.99765
1.98405
1.9732
1.96566
1.96409
1.96511
1.96403
1.95683
1.94729
1.93634
1.92528
1.91499
1.90483
1.89781
1.89427
1.88972
1.88103
1.87151
1.86211
1.85418
1.84876
1.84459
1.84257
1.83979
1.83454
1.82955
1.82403
1.8174
1.81097
1.80497
1.79898
1.79308
1.78828
1.78478
1.78175
1.77725
1.77103
1.7633
1.75531
1.74622
1.73597
1.72786
1.71912
1.69723
1.69701
1.69442
1.69103
1.69051
1.69134
1.693
1.69514
1.69673
1.69769
1.69842
1.69888
1.69903
1.69863
1.69747
1.69531
1.69314
1.69244
1.6922
1.69217
1.69214
1.69186
1.69168
1.6919
1.69244
1.69312
1.69379
1.6943
1.69455
1.6944
1.69342
1.69164
1.6899
1.68835
1.68647
1.68451
1.68309
1.68318
1.68939
1.72157
1.79323
1.88473
1.9565
2.00181
2.02528
2.03336
2.03493
2.03807
2.04252
2.04517
2.04571
2.04575
2.04354
2.03939
2.03545
2.03196
2.02873
2.02919
2.03584
2.05549
2.08401
2.11988
2.14173
2.1401
2.1314
2.12022
2.11376
2.11208
2.11284
2.11025
2.10262
2.09252
2.0824
2.07454
2.06708
2.06283
2.06035
2.05433
2.04422
2.03505
2.02632
2.01773
2.00942
2.00341
1.99781
1.98828
1.97606
1.96362
1.95167
1.94157
1.93387
1.93131
1.93183
1.93115
1.92541
1.91739
1.90859
1.89898
1.88836
1.87721
1.86792
1.86185
1.85605
1.84773
1.83922
1.83126
1.82489
1.82051
1.81694
1.81397
1.81083
1.80735
1.80351
1.79892
1.7936
1.78824
1.78272
1.77681
1.77075
1.76537
1.76221
1.76004
1.75662
1.75124
1.74433
1.73713
1.72836
1.71895
1.70768
1.70178
1.69766
1.69494
1.69483
1.69557
1.69674
1.69837
1.70073
1.70269
1.70378
1.70437
1.70455
1.70411
1.7024
1.69898
1.69644
1.69591
1.69577
1.69569
1.69588
1.69643
1.69693
1.69738
1.69795
1.69903
1.70023
1.70081
1.70075
1.69998
1.6981
1.69566
1.69416
1.69367
1.69326
1.69282
1.69323
1.69614
1.71645
1.77579
1.86551
1.94995
2.00399
2.03295
2.03934
2.03977
2.04255
2.04603
2.04967
2.04994
2.04947
2.04653
2.04203
2.03852
2.0355
2.03223
2.02899
2.02962
2.0351
2.05374
2.08101
2.10696
2.13545
2.13371
2.12619
2.11511
2.10109
2.09124
2.08581
2.08479
2.08544
2.08316
2.07472
2.0638
2.05297
2.04291
2.03335
2.02806
2.02434
2.01786
2.009
2.00061
1.99187
1.98284
1.97403
1.96795
1.9625
1.95305
1.94198
1.93115
1.92035
1.91129
1.9047
1.90168
1.90215
1.90215
1.89744
1.88983
1.88169
1.87226
1.86134
1.84996
1.84031
1.83351
1.82758
1.82019
1.81272
1.80538
1.79827
1.79296
1.7894
1.78666
1.78461
1.78224
1.77926
1.77557
1.77084
1.76554
1.75986
1.7538
1.74793
1.74355
1.74067
1.73764
1.73372
1.72904
1.72371
1.71744
1.71096
1.6998
1.70021
1.69792
1.69777
1.69801
1.69865
1.69952
1.70114
1.70353
1.70554
1.70627
1.70663
1.70663
1.70539
1.70166
1.69871
1.69807
1.69794
1.69786
1.69776
1.69777
1.6983
1.69926
1.70039
1.70205
1.70342
1.70386
1.70399
1.70355
1.70113
1.69776
1.69632
1.69625
1.69684
1.69781
1.69954
1.71039
1.75397
1.83632
1.93632
1.99958
2.03862
2.04299
2.04058
2.04178
2.04419
2.0507
2.05302
2.05242
2.04945
2.04371
2.03861
2.03508
2.03193
2.02898
2.02528
2.02662
2.03275
2.04812
2.07689
2.09762
2.11428
2.11568
2.11209
2.10551
2.09451
2.08148
2.06801
2.05839
2.05199
2.04973
2.05048
2.0485
2.03894
2.02757
2.01695
2.00686
1.9995
1.99505
1.98953
1.98122
1.97288
1.96417
1.95506
1.94614
1.93937
1.93559
1.93025
1.92039
1.91062
1.90096
1.89093
1.88325
1.87796
1.87515
1.87562
1.87571
1.87149
1.86414
1.85612
1.84673
1.83587
1.82488
1.8159
1.80893
1.80276
1.79554
1.7884
1.78093
1.77321
1.76744
1.7641
1.76179
1.76008
1.75812
1.75566
1.75243
1.74815
1.74319
1.73766
1.73181
1.72621
1.72111
1.71606
1.71157
1.70853
1.70609
1.70337
1.7
1.69142
1.69905
1.69905
1.69933
1.69974
1.70043
1.70189
1.70349
1.70419
1.70465
1.70488
1.70493
1.70436
1.7022
1.7003
1.69975
1.69936
1.69894
1.69861
1.69836
1.69824
1.69855
1.69962
1.70155
1.70313
1.70381
1.70425
1.70427
1.70268
1.69958
1.69819
1.69784
1.69819
1.69982
1.70561
1.73269
1.79877
1.90651
1.98465
2.04025
2.04933
2.04332
2.04063
2.03917
2.04486
2.05088
2.04974
2.04702
2.04352
2.0383
2.03216
2.0279
2.02437
2.02058
2.01645
2.01743
2.02504
2.04136
2.06626
2.08973
2.10007
2.09768
2.08935
2.08014
2.07585
2.06837
2.05595
2.04338
2.03151
2.02329
2.0172
2.01456
2.01369
2.00996
2.00046
1.99035
1.98145
1.97405
1.96768
1.96027
1.95323
1.94601
1.93829
1.93
1.92156
1.91459
1.91022
1.90625
1.89853
1.88956
1.88161
1.87272
1.86346
1.8572
1.8529
1.85039
1.85089
1.85094
1.84755
1.84053
1.83233
1.82276
1.81193
1.80124
1.79211
1.78474
1.77867
1.77206
1.76517
1.75795
1.75015
1.74389
1.7404
1.73811
1.73628
1.73471
1.73297
1.73054
1.72712
1.72279
1.71716
1.71004
1.70242
1.69561
1.68998
1.68618
1.68586
1.68638
1.68613
1.6794
1.69734
1.69726
1.69745
1.69878
1.70096
1.70243
1.70272
1.70277
1.70203
1.70049
1.69858
1.69692
1.69657
1.69707
1.69815
1.69914
1.69954
1.69955
1.69928
1.69898
1.69917
1.69972
1.70011
1.70011
1.70016
1.69988
1.69891
1.69797
1.69801
1.69865
1.69971
1.70322
1.71918
1.76834
1.86816
1.95915
2.03382
2.05307
2.04544
2.04223
2.0405
2.04221
2.04457
2.04467
2.04033
2.03516
2.03057
2.02653
2.02284
2.01814
2.01215
2.00647
2.00107
2.00211
2.00994
2.02988
2.05206
2.07578
2.08845
2.08403
2.07411
2.06049
2.04923
2.04329
2.03784
2.02639
2.01531
2.00519
1.99573
1.98888
1.98272
1.97898
1.97694
1.97296
1.96496
1.95623
1.94771
1.93982
1.93304
1.92715
1.92155
1.91563
1.90908
1.90169
1.89421
1.88736
1.88145
1.87537
1.86699
1.86006
1.85359
1.84573
1.83811
1.83344
1.83005
1.82814
1.82865
1.82835
1.82467
1.81732
1.80832
1.79819
1.78724
1.77651
1.76704
1.76046
1.7556
1.74998
1.74279
1.73548
1.72754
1.721
1.71756
1.71551
1.71396
1.71309
1.7127
1.71134
1.70792
1.70259
1.69535
1.68655
1.67817
1.67174
1.66719
1.66596
1.66673
1.66764
1.6629
1.69417
1.69416
1.69522
1.69729
1.69852
1.69839
1.69804
1.69692
1.69431
1.69107
1.68946
1.6892
1.68956
1.69086
1.69227
1.69415
1.69585
1.69692
1.69761
1.69806
1.69806
1.69714
1.69511
1.69303
1.6912
1.69
1.68975
1.68993
1.69189
1.69619
1.70734
1.74234
1.82388
1.92583
2.01942
2.05569
2.04638
2.04375
2.04183
2.04238
2.0435
2.04074
2.03306
2.02627
2.0199
2.01412
2.00891
2.00451
1.99998
1.99414
1.98742
1.98071
1.98258
1.99216
2.01198
2.0381
2.05466
2.07167
2.06987
2.06161
2.04937
2.0358
2.02264
2.01277
2.00551
1.99684
1.98737
1.97989
1.97183
1.96389
1.95683
1.9503
1.9465
1.94413
1.93896
1.92952
1.9213
1.91418
1.9085
1.90385
1.89981
1.89577
1.89078
1.88424
1.87592
1.86648
1.85757
1.85062
1.84393
1.83673
1.83176
1.82706
1.82129
1.81581
1.81225
1.80937
1.80741
1.80688
1.80514
1.8002
1.79189
1.78207
1.77163
1.76112
1.75127
1.74365
1.73848
1.73372
1.72707
1.71933
1.71194
1.70479
1.69972
1.69694
1.69529
1.69461
1.69447
1.69347
1.69044
1.68599
1.68012
1.67249
1.66399
1.65651
1.65099
1.64753
1.64586
1.64513
1.64236
1.68863
1.68983
1.69134
1.69181
1.69116
1.68992
1.68767
1.68443
1.68156
1.68009
1.67967
1.67984
1.68107
1.68291
1.68475
1.68733
1.68979
1.69158
1.69272
1.69302
1.6924
1.6902
1.68623
1.68155
1.6787
1.67759
1.67751
1.6803
1.68729
1.71199
1.77628
1.87557
1.97961
2.0428
2.04399
2.04689
2.04561
2.04388
2.04087
2.03326
2.02576
2.01952
2.01242
2.00391
1.99718
1.99124
1.98346
1.97557
1.96734
1.96135
1.9579
1.96155
1.97383
1.99578
2.01994
2.03634
2.05386
2.05169
2.04374
2.03489
2.02486
2.01311
1.99959
1.98631
1.97553
1.96839
1.96318
1.95732
1.95132
1.94369
1.93559
1.92769
1.9202
1.91488
1.91056
1.90346
1.89622
1.89054
1.88592
1.88234
1.87959
1.8768
1.87196
1.86547
1.85727
1.84749
1.83697
1.82762
1.8209
1.81458
1.80937
1.80649
1.8039
1.80024
1.79547
1.79149
1.78837
1.78492
1.78184
1.7785
1.77309
1.76463