/*--------------------------------*- C++ -*----------------------------------*\
  =========                 |
  \\      /  F ield         | OpenFOAM: The Open Source CFD Toolbox
   \\    /   O peration     | Website:  https://openfoam.org
    \\  /    A nd           | Version:  7
     \\/     M anipulation  |
\*---------------------------------------------------------------------------*/
FoamFile
{
    version     2.0;
    format      ascii;
    class       volVectorField;
    location    "3.2";
    object      U;
}
// * * * * * * * * * * * * * * * * * * * * * * * * * * * * * * * * * * * * * //

dimensions      [0 1 -1 0 0 0 0];

internalField   nonuniform List<vector> 
16192
(
(3 4.35539e-16 0)
(3 3.35239e-16 0)
(3 -2.95015e-16 0)
(3 4.65249e-16 0)
(3 1.22649e-15 0)
(3 4.65315e-16 0)
(3 6.07136e-16 0)
(3 1.93032e-16 0)
(3 1.53378e-15 0)
(3 3.45286e-15 0)
(3 4.46335e-15 0)
(3 4.45021e-15 0)
(3 4.16682e-15 0)
(3 4.09661e-15 0)
(3 3.51014e-15 0)
(3 1.28445e-15 0)
(3 7.0079e-16 0)
(3 -1.07156e-16 0)
(3 -1.78917e-15 0)
(3 -1.25649e-15 0)
(3 2.15889e-15 0)
(3 1.10316e-15 0)
(3 1.04086e-16 0)
(3 1.49369e-15 0)
(3 2.43317e-15 0)
(3 2.5407e-15 0)
(3 3.22048e-15 0)
(3 3.13611e-15 0)
(3 3.70247e-15 0)
(3 4.57459e-15 0)
(3 4.10865e-15 0)
(3 4.45668e-15 0)
(3 4.37848e-15 0)
(3 3.39929e-15 0)
(3 1.95886e-15 0)
(3 8.12636e-16 0)
(3 -2.33746e-17 0)
(3 -9.91049e-16 0)
(3 -2.39416e-15 0)
(3 -2.62569e-15 0)
(3 3.35978e-15 0)
(3 3.36297e-15 0)
(3 2.63352e-15 0)
(3 3.14365e-15 0)
(3 2.51555e-15 0)
(3 3.90995e-15 0)
(3 4.05452e-15 0)
(3 5.40093e-15 0)
(3 4.31918e-15 0)
(3 4.03319e-15 0)
(3 4.65574e-15 0)
(3 4.96512e-15 0)
(3 4.46088e-15 0)
(3 3.91439e-15 0)
(3 3.34008e-15 0)
(3 2.43683e-15 0)
(3 8.53843e-16 0)
(3 -9.76233e-17 0)
(3 -3.98071e-16 0)
(3 -3.88814e-16 0)
(3 2.75941e-15 0)
(3 4.15066e-15 0)
(3 3.6336e-15 0)
(3 2.46598e-15 0)
(3 8.4059e-16 0)
(3 2.23376e-15 0)
(3 3.86927e-15 0)
(3 3.99491e-15 0)
(3 4.20669e-15 0)
(3 2.8221e-15 0)
(3 3.68403e-15 0)
(3 5.31626e-15 0)
(3 4.61078e-15 0)
(3 4.67476e-15 0)
(3 4.59415e-15 0)
(3 3.75844e-15 0)
(3 1.61182e-15 0)
(3 1.4682e-15 0)
(3 1.33798e-15 0)
(3 -1.78086e-16 0)
(3 1.32441e-15 0)
(3 1.89044e-15 0)
(3 2.02635e-15 0)
(3 2.41299e-16 0)
(3 3.933e-16 0)
(3 3.07917e-16 0)
(3 1.85242e-15 0)
(3 3.01269e-15 0)
(3 3.56552e-15 0)
(3 2.05321e-15 0)
(3 2.04758e-15 0)
(3 2.93732e-15 0)
(3 3.39801e-15 0)
(3 4.01834e-15 0)
(3 5.29537e-15 0)
(3 5.24826e-15 0)
(3 3.82261e-15 0)
(3 1.2819e-15 0)
(3 -7.99712e-16 0)
(3 -1.42996e-15 0)
(3 7.30042e-16 0)
(3 3.89875e-16 0)
(3 5.06534e-16 0)
(3 9.29198e-16 0)
(3 1.37769e-15 0)
(3 7.59249e-16 0)
(3 8.21044e-16 0)
(3 2.19898e-15 0)
(3 3.43701e-15 0)
(3 3.38442e-15 0)
(3 3.17661e-15 0)
(3 2.90239e-15 0)
(3 3.27059e-15 0)
(3 4.26257e-15 0)
(3 6.05175e-15 0)
(3 4.70275e-15 0)
(3 2.84657e-15 0)
(3 2.20907e-16 0)
(3 -5.31399e-16 0)
(3 -1.16253e-15 0)
(3 1.92119e-15 0)
(3 2.17034e-15 0)
(3 1.90539e-15 0)
(3 1.8285e-15 0)
(3 1.95352e-15 0)
(3 2.75651e-15 0)
(3 3.0397e-15 0)
(3 2.34882e-15 0)
(3 2.62478e-15 0)
(3 3.96494e-15 0)
(3 3.22461e-15 0)
(3 4.11482e-15 0)
(3 3.25815e-15 0)
(3 2.84521e-15 0)
(3 2.4975e-15 0)
(3 2.76291e-15 0)
(3 1.96126e-15 0)
(3 2.10241e-15 0)
(3 5.36656e-16 0)
(3 -2.04558e-15 0)
(3 8.626e-16 0)
(3 2.33855e-15 0)
(3 2.37056e-15 0)
(3 5.50146e-16 0)
(3 8.79705e-16 0)
(3 1.50214e-15 0)
(3 1.37853e-15 0)
(3 1.83478e-15 0)
(3 1.71163e-15 0)
(3 2.08322e-15 0)
(3 2.25531e-15 0)
(3 1.71419e-15 0)
(3 9.43496e-16 0)
(3 2.05306e-15 0)
(3 1.29708e-15 0)
(3 2.02355e-15 0)
(3 1.5087e-15 0)
(3 -3.27096e-16 0)
(3 -1.58417e-15 0)
(3 -2.8008e-15 0)
(3 8.08182e-16 0)
(3 9.28748e-16 0)
(3 8.16628e-16 0)
(3 1.41138e-15 0)
(3 7.82649e-16 0)
(3 7.86847e-16 0)
(3 7.67628e-16 0)
(3 1.51043e-15 0)
(3 1.75672e-15 0)
(3 2.16959e-15 0)
(3 2.17681e-15 0)
(3 1.01382e-15 0)
(3 1.18344e-15 0)
(3 1.59952e-15 0)
(3 1.55869e-15 0)
(3 1.02136e-15 0)
(3 1.25144e-15 0)
(3 -9.73149e-16 0)
(3 -1.294e-15 0)
(3 -2.20325e-15 0)
(3 2.16877e-15 0)
(3 1.58511e-15 0)
(3 1.60592e-16 0)
(3 6.1565e-16 0)
(3 6.61279e-16 0)
(3 7.90418e-16 0)
(3 5.02615e-16 0)
(3 1.00276e-15 0)
(3 5.43481e-16 0)
(3 7.31436e-16 0)
(3 4.15554e-16 0)
(3 -8.57181e-17 0)
(3 1.10384e-15 0)
(3 7.69521e-16 0)
(3 -1.92874e-16 0)
(3 1.85346e-16 0)
(3 3.02474e-16 0)
(3 -2.62177e-16 0)
(3 -7.56611e-17 0)
(3 -9.46263e-16 0)
(3 1.87115e-15 0)
(3 9.08692e-16 0)
(3 2.45291e-17 0)
(3 1.66352e-16 0)
(3 4.64647e-16 0)
(3 4.03125e-16 0)
(3 3.99943e-17 0)
(3 -3.33096e-16 0)
(3 1.55006e-16 0)
(3 -5.92683e-18 0)
(3 -5.58104e-16 0)
(3 -1.75599e-16 0)
(3 8.55143e-17 0)
(3 -5.40063e-16 0)
(3 -8.72696e-16 0)
(3 -4.50177e-16 0)
(3 -8.7626e-16 0)
(3 -8.64096e-16 0)
(3 -1.04299e-15 0)
(3 -3.41447e-16 0)
(3 2.62926e-15 0)
(3 1.56595e-15 0)
(3 1.34403e-15 0)
(3 7.3565e-16 0)
(3 6.48702e-16 0)
(3 5.62755e-16 0)
(3 5.00266e-16 0)
(3 -4.84947e-16 0)
(3 1.31614e-16 0)
(3 -4.01304e-17 0)
(3 6.93614e-16 0)
(3 1.06564e-15 0)
(3 7.87617e-16 0)
(3 6.83377e-16 0)
(3 2.00599e-16 0)
(3 4.22544e-17 0)
(3 1.55498e-16 0)
(3 -2.04867e-16 0)
(3 -1.15849e-15 0)
(3 1.51875e-16 0)
(3 1.82969e-15 0)
(3 1.85608e-15 0)
(3 2.51653e-15 0)
(3 1.44447e-15 0)
(3 8.7679e-16 0)
(3 1.17697e-15 0)
(3 1.267e-15 0)
(3 -6.36904e-16 0)
(3 -6.49419e-16 0)
(3 2.95557e-16 0)
(3 1.58711e-15 0)
(3 2.50912e-15 0)
(3 2.90862e-15 0)
(3 2.88277e-15 0)
(3 2.46343e-15 0)
(3 1.59263e-15 0)
(3 3.50333e-16 0)
(3 -7.36188e-16 0)
(3 -6.17724e-16 0)
(3 3.54897e-16 0)
(3 1.33852e-15 0)
(3 7.14456e-16 0)
(3 1.77249e-15 0)
(3 2.05479e-15 0)
(3 1.67065e-15 0)
(3 1.18194e-15 0)
(3 4.94989e-16 0)
(3 -1.68197e-17 0)
(3 -1.23003e-15 0)
(3 -6.10602e-16 0)
(3 1.10607e-15 0)
(3 3.23515e-15 0)
(3 3.53666e-15 0)
(3 3.35277e-15 0)
(3 3.86741e-15 0)
(3 3.03462e-15 0)
(3 1.38361e-15 0)
(3 -3.02771e-16 0)
(3 8.53667e-16 0)
(3 1.08617e-15 0)
(3 2.51679e-15 0)
(3 3.75365e-15 0)
(3 3.79821e-15 0)
(3 3.36119e-15 0)
(3 2.70279e-15 0)
(3 2.54559e-15 0)
(3 1.6042e-15 0)
(3 6.05854e-16 0)
(3 9.81109e-17 0)
(3 3.99035e-16 0)
(3 2.11311e-15 0)
(3 2.99267e-15 0)
(3 2.90657e-15 0)
(3 2.49275e-15 0)
(3 2.47061e-15 0)
(3 5.16548e-15 0)
(3 5.03954e-15 0)
(3 3.50022e-15 0)
(3 3.34486e-15 0)
(3 2.33798e-15 0)
(3 1.95e-15 0)
(3 2.05454e-15 0)
(3 1.56556e-15 0)
(3 1.63853e-15 0)
(3 2.58228e-15 0)
(3 2.13177e-15 0)
(3 1.98624e-15 0)
(3 1.80626e-15 0)
(3 3.22031e-15 0)
(3 3.30831e-15 0)
(3 3.03085e-15 0)
(3 2.80481e-15 0)
(3 2.406e-15 0)
(3 3.07821e-15 0)
(3 2.20937e-15 0)
(3 3.65972e-15 0)
(3 4.2169e-15 0)
(3 3.92516e-15 0)
(3 2.9914e-15 0)
(3 1.64789e-15 0)
(3 1.13998e-15 0)
(3 2.40209e-16 0)
(3 -1.67569e-16 0)
(3 9.39543e-16 0)
(3 1.70893e-15 0)
(3 1.53052e-15 0)
(3 2.14413e-15 0)
(3 3.23916e-15 0)
(3 5.14643e-15 0)
(3 4.89366e-15 0)
(3 2.48501e-15 0)
(3 1.47948e-15 0)
(3 1.41769e-15 0)
(3 8.23119e-16 0)
(3 8.6132e-16 0)
(3 4.83581e-16 0)
(3 1.1487e-15 0)
(3 2.74621e-15 0)
(3 2.32413e-15 0)
(3 2.08131e-15 0)
(3 -1.48957e-16 0)
(3 -4.10232e-16 0)
(3 4.96509e-18 0)
(3 1.33944e-15 0)
(3 1.22471e-15 0)
(3 2.5244e-15 0)
(3 4.13269e-15 0)
(3 4.03474e-15 0)
(3 3.70945e-15 0)
(3 3.42371e-15 0)
(3 2.08909e-15 0)
(3 8.38151e-16 0)
(3 1.32208e-15 0)
(3 -2.74592e-18 0)
(3 5.00503e-16 0)
(3 -7.80608e-16 0)
(3 3.71314e-16 0)
(3 3.29289e-16 0)
(3 1.38043e-15 0)
(3 2.29699e-15 0)
(3 -5.39388e-16 0)
(3 -2.41395e-16 0)
(3 -1.21774e-16 0)
(3 8.20951e-16 0)
(3 6.3886e-16 0)
(3 4.18872e-16 0)
(3 3.72206e-16 0)
(3 1.00313e-15 0)
(3 8.83686e-16 0)
(3 5.40797e-16 0)
(3 1.63319e-16 0)
(3 1.11029e-16 0)
(3 -9.16633e-17 0)
(3 1.56631e-16 0)
(3 -7.7043e-17 0)
(3 -1.02031e-15 0)
(3 -9.93559e-16 0)
(3 -1.55686e-15 0)
(3 -1.03081e-15 0)
(3 -1.02799e-15 0)
(3 8.84858e-16 0)
(3 1.70276e-15 0)
(3 9.11016e-16 0)
(3 -3.55386e-17 0)
(3 -1.82719e-16 0)
(3 4.17038e-16 0)
(3 1.04457e-15 0)
(3 1.66847e-15 0)
(3 9.45971e-16 0)
(3 -1.00527e-15 0)
(3 -1.47402e-15 0)
(3 -5.48061e-16 0)
(3 -9.79204e-16 0)
(3 -1.75723e-15 0)
(3 -2.79393e-15 0)
(3 -3.26573e-15 0)
(3 -3.01142e-15 0)
(3 -2.14989e-15 0)
(3 -2.93635e-15 0)
(3 -9.81796e-16 0)
(3 1.21916e-15 0)
(3 1.81735e-15 0)
(3 1.49564e-15 0)
(3 -4.59222e-16 0)
(3 -3.15277e-17 0)
(3 2.93204e-16 0)
(3 1.91624e-15 0)
(3 1.85702e-15 0)
(3 1.16329e-15 0)
(3 9.93761e-17 0)
(3 4.81622e-16 0)
(3 5.59437e-16 0)
(3 -1.09604e-15 0)
(3 -2.42398e-15 0)
(3 -3.80468e-15 0)
(3 -3.05833e-15 0)
(3 -3.11518e-15 0)
(3 -3.12681e-15 0)
(3 -3.57158e-15 0)
(3 -2.07653e-16 0)
(3 4.05428e-16 0)
(3 2.02397e-15 0)
(3 2.00186e-15 0)
(3 6.98074e-16 0)
(3 -1.05187e-15 0)
(3 -9.05033e-16 0)
(3 4.17259e-16 0)
(3 -3.46168e-16 0)
(3 -6.93955e-16 0)
(3 -9.04056e-17 0)
(3 3.57751e-17 0)
(3 -6.12498e-17 0)
(3 -7.32881e-16 0)
(3 -2.22886e-15 0)
(3 -2.23594e-15 0)
(3 -1.52003e-15 0)
(3 -1.83035e-15 0)
(3 -2.17858e-15 0)
(3 -5.78764e-16 0)
(3 3.8537e-16 0)
(3 9.54982e-16 0)
(3 2.26662e-15 0)
(3 1.74417e-15 0)
(3 5.45602e-16 0)
(3 -1.06842e-15 0)
(3 1.21744e-16 0)
(3 -1.78704e-16 0)
(3 -7.11345e-16 0)
(3 -1.95888e-15 0)
(3 -1.19578e-15 0)
(3 -1.83725e-15 0)
(3 -2.18894e-15 0)
(3 -5.53492e-16 0)
(3 -1.63771e-15 0)
(3 -2.31775e-15 0)
(3 -2.75983e-15 0)
(3 -1.9478e-15 0)
(3 -4.97282e-16 0)
(3 9.55047e-16 0)
(3 8.87371e-16 0)
(3 3.54117e-16 0)
(3 -2.00222e-16 0)
(3 -5.73489e-16 0)
(3 -2.56734e-16 0)
(3 7.15476e-16 0)
(3 4.98968e-16 0)
(3 -3.78733e-16 0)
(3 -1.50193e-15 0)
(3 -2.38062e-15 0)
(3 -2.49664e-15 0)
(3 -2.52643e-15 0)
(3 -3.17826e-15 0)
(3 -3.14322e-15 0)
(3 -3.08005e-15 0)
(3 -4.22683e-15 0)
(3 -4.50351e-15 0)
(3 -3.72943e-15 0)
(3 -5.70869e-16 0)
(3 1.71223e-15 0)
(3 2.91534e-15 0)
(3 1.61559e-15 0)
(3 7.65415e-16 0)
(3 8.82726e-16 0)
(3 1.69948e-15 0)
(3 1.6685e-15 0)
(3 5.67647e-16 0)
(3 -6.91255e-16 0)
(3 -1.55588e-16 0)
(3 -5.37265e-17 0)
(3 -1.41679e-15 0)
(3 -2.33965e-15 0)
(3 -2.74027e-15 0)
(3 -4.26478e-15 0)
(3 -3.46288e-15 0)
(3 -2.8822e-15 0)
(3 -1.47416e-15 0)
(3 -1.47786e-15 0)
(3 -1.02669e-15 0)
(3 1.89329e-15 0)
(3 4.43239e-15 0)
(3 9.5246e-16 0)
(3 1.42416e-15 0)
(3 1.76244e-15 0)
(3 2.22603e-15 0)
(3 2.00047e-15 0)
(3 1.44258e-15 0)
(3 3.28978e-16 0)
(3 1.3188e-15 0)
(3 8.48165e-16 0)
(3 -4.94348e-16 0)
(3 -2.33014e-15 0)
(3 -1.61626e-15 0)
(3 -2.18737e-15 0)
(3 -2.61032e-15 0)
(3 -1.55811e-15 0)
(3 -6.18048e-16 0)
(3 -2.6308e-16 0)
(3 6.39511e-16 0)
(3 2.42027e-15 0)
(3 2.43662e-15 0)
(3 -7.27961e-16 0)
(3 2.64052e-16 0)
(3 1.38974e-15 0)
(3 1.52549e-15 0)
(3 2.38939e-15 0)
(3 1.28405e-15 0)
(3 8.47648e-17 0)
(3 -5.26342e-16 0)
(3 -1.3796e-15 0)
(3 -1.72296e-15 0)
(3 -1.80398e-15 0)
(3 -1.83376e-15 0)
(3 -2.76964e-15 0)
(3 -2.18677e-15 0)
(3 -2.47383e-15 0)
(3 -2.47103e-15 0)
(3 -1.79529e-15 0)
(3 -3.49648e-18 0)
(3 1.11016e-15 0)
(3 -7.16111e-16 0)
(3 -4.31416e-16 0)
(3 5.96225e-17 0)
(3 3.78626e-16 0)
(3 9.8797e-16 0)
(3 1.60004e-15 0)
(3 4.32412e-16 0)
(3 -1.3031e-15 0)
(3 -3.0424e-15 0)
(3 -3.18516e-15 0)
(3 -2.85104e-15 0)
(3 -1.65152e-15 0)
(3 -1.48433e-15 0)
(3 -2.28916e-15 0)
(3 -2.25496e-15 0)
(3 -1.94817e-15 0)
(3 -1.88519e-15 0)
(3 -2.06919e-15 0)
(3 -1.87041e-15 0)
(3 -2.4359e-15 0)
(3 -1.58057e-15 0)
(3 -8.94547e-16 0)
(3 -1.11924e-15 0)
(3 -1.25669e-15 0)
(3 5.59241e-16 0)
(3 1.51265e-15 0)
(3 1.25607e-15 0)
(3 6.83604e-17 0)
(3 -1.67437e-15 0)
(3 -2.08675e-15 0)
(3 -7.26812e-16 0)
(3 -1.32594e-15 0)
(3 -1.87071e-15 0)
(3 -6.77757e-16 0)
(3 -1.9169e-15 0)
(3 -1.93827e-15 0)
(3 -1.28416e-15 0)
(3 -1.11376e-15 0)
(3 -4.38721e-16 0)
(3 -1.58267e-15 0)
(3 -7.15223e-17 0)
(3 -3.08736e-15 0)
(3 -2.53969e-15 0)
(3 -1.84716e-15 0)
(3 1.68302e-15 0)
(3 3.2349e-15 0)
(3 3.58109e-15 0)
(3 3.1645e-15 0)
(3 1.0755e-15 0)
(3 9.91915e-16 0)
(3 2.30741e-15 0)
(3 1.24949e-15 0)
(3 -2.26104e-15 0)
(3 -2.40939e-15 0)
(3 -3.11412e-15 0)
(3 -2.35241e-15 0)
(3 -2.598e-15 0)
(3 -1.31877e-15 0)
(3 -1.42201e-15 0)
(3 -2.06474e-15 0)
(3 -2.57234e-15 0)
(3 -1.74702e-15 0)
(3 -1.69672e-15 0)
(3 9.0555e-16 0)
(3 3.49833e-15 0)
(3 5.55557e-15 0)
(3 5.68078e-15 0)
(3 3.41805e-15 0)
(3 9.10139e-16 0)
(3 2.60503e-15 0)
(3 2.9113e-15 0)
(3 1.82345e-15 0)
(3 -5.00538e-16 0)
(3 -3.81317e-15 0)
(3 -4.48357e-15 0)
(3 -4.35378e-15 0)
(3 -2.78683e-15 0)
(3 -1.89791e-15 0)
(3 -2.03865e-15 0)
(3 -2.13341e-15 0)
(3 -3.23652e-15 0)
(3 -7.99656e-16 0)
(3 -6.48454e-16 0)
(3 -1.85255e-16 0)
(3 1.05512e-15 0)
(3 3.47202e-15 0)
(3 4.27551e-15 0)
(3 3.10506e-15 0)
(3 1.16215e-15 0)
(3 3.61589e-15 0)
(3 3.50155e-15 0)
(3 1.75367e-15 0)
(3 1.06366e-15 0)
(3 -1.82698e-15 0)
(3 -2.32988e-15 0)
(3 -3.52829e-15 0)
(3 -3.10259e-15 0)
(3 -2.56311e-15 0)
(3 -2.68986e-15 0)
(3 -2.36462e-15 0)
(3 -2.60837e-15 0)
(3 -1.44891e-15 0)
(3 -3.68962e-16 0)
(3 -6.395e-16 0)
(3 3.37435e-16 0)
(3 1.08712e-15 0)
(3 3.52387e-15 0)
(3 5.22083e-15 0)
(3 4.25886e-15 0)
(3 4.22377e-15 0)
(3 4.13704e-15 0)
(3 2.02078e-15 0)
(3 4.65081e-17 0)
(3 4.4298e-16 0)
(3 -4.84104e-16 0)
(3 -9.71412e-16 0)
(3 -2.15498e-15 0)
(3 -2.35075e-15 0)
(3 -2.9402e-15 0)
(3 -2.83364e-15 0)
(3 -2.12006e-15 0)
(3 6.3067e-16 0)
(3 1.44271e-15 0)
(3 2.21427e-15 0)
(3 2.3689e-15 0)
(3 2.9546e-15 0)
(3 3.31011e-15 0)
(3 5.33725e-15 0)
(3 6.16127e-15 0)
(3 3.96658e-15 0)
(3 2.63867e-15 0)
(3 2.71274e-15 0)
(3 2.59502e-15 0)
(3 1.58082e-15 0)
(3 -2.57073e-16 0)
(3 -5.73191e-16 0)
(3 -2.1675e-15 0)
(3 -2.61422e-15 0)
(3 -1.43709e-15 0)
(3 -1.85147e-15 0)
(3 4.6785e-17 0)
(3 1.67474e-15 0)
(3 2.95809e-15 0)
(3 3.02204e-15 0)
(3 2.94838e-15 0)
(3 2.17043e-15 0)
(3 1.4068e-15 0)
(3 2.33031e-15 0)
(3 4.30769e-15 0)
(3 2.99832e-15 0)
(3 1.87082e-15 0)
(3 1.73786e-15 0)
(3 2.48845e-15 0)
(3 3.30189e-15 0)
(3 3.39778e-15 0)
(3 2.71721e-15 0)
(3 -9.64975e-16 0)
(3 -1.5427e-15 0)
(3 -6.81034e-16 0)
(3 -2.42984e-16 0)
(3 -1.51079e-17 0)
(3 2.19385e-15 0)
(3 2.39971e-15 0)
(3 2.55519e-15 0)
(3 1.26541e-15 0)
(3 1.53701e-15 0)
(3 6.62639e-16 0)
(3 -8.62303e-16 0)
(3 1.61306e-15 0)
(3 2.27975e-15 0)
(3 2.52029e-15 0)
(3 1.47556e-15 0)
(3 3.10803e-15 0)
(3 4.79255e-15 0)
(3 5.04308e-15 0)
(3 4.69106e-15 0)
(3 3.09004e-15 0)
(3 1.92882e-15 0)
(3 1.08104e-15 0)
(3 7.84516e-16 0)
(3 -1.14316e-15 0)
(3 7.45526e-17 0)
(3 1.50703e-15 0)
(3 1.19384e-15 0)
(3 2.24879e-15 0)
(3 2.91971e-15 0)
(3 1.66967e-15 0)
(3 2.39112e-16 0)
(3 -4.12488e-16 0)
(3 2.13857e-16 0)
(3 1.63472e-15 0)
(3 2.8022e-15 0)
(3 3.81031e-15 0)
(3 4.35956e-15 0)
(3 4.74844e-15 0)
(3 4.10372e-15 0)
(3 2.97248e-15 0)
(3 2.46682e-15 0)
(3 1.91335e-15 0)
(3 1.71303e-15 0)
(3 -2.00645e-17 0)
(3 -2.35349e-15 0)
(3 -5.82793e-16 0)
(3 -1.62126e-15 0)
(3 -9.67852e-16 0)
(3 9.14539e-16 0)
(3 9.42001e-16 0)
(3 9.73342e-16 0)
(3 1.00812e-15 0)
(3 7.68317e-16 0)
(3 1.28891e-15 0)
(3 2.90428e-15 0)
(3 2.94404e-15 0)
(3 3.56188e-15 0)
(3 4.12159e-15 0)
(3 4.63747e-15 0)
(3 3.53401e-15 0)
(3 3.58786e-15 0)
(3 3.16179e-15 0)
(3 2.129e-15 0)
(3 1.41481e-15 0)
(3 -2.47061e-15 0)
(3 -2.63005e-15 0)
(3 -4.07094e-15 0)
(3 -3.84881e-15 0)
(3 -2.48851e-15 0)
(3 -9.61788e-16 0)
(3 1.18866e-15 0)
(3 1.16928e-15 0)
(3 8.88295e-16 0)
(3 1.69117e-15 0)
(3 3.66303e-15 0)
(3 4.02387e-15 0)
(3 4.00273e-15 0)
(3 4.53674e-15 0)
(3 4.78873e-15 0)
(3 5.79783e-15 0)
(3 4.93359e-15 0)
(3 3.5156e-15 0)
(3 1.85851e-15 0)
(3 1.74658e-15 0)
(3 -8.93116e-16 0)
(3 -1.75484e-15 0)
(3 -2.97192e-15 0)
(3 -2.43029e-15 0)
(3 -1.8902e-15 0)
(3 -1.50151e-15 0)
(3 1.83717e-17 0)
(3 -1.58446e-16 0)
(3 8.54867e-17 0)
(3 1.06811e-15 0)
(3 2.54807e-15 0)
(3 2.53296e-15 0)
(3 2.78334e-15 0)
(3 3.44316e-15 0)
(3 3.26881e-15 0)
(3 4.08144e-15 0)
(3 5.3971e-15 0)
(3 4.1174e-15 0)
(3 3.22779e-15 0)
(3 2.4498e-15 0)
(3 6.79301e-16 0)
(3 1.61187e-16 0)
(3 3.33635e-16 0)
(3 -1.2285e-16 0)
(3 -9.00026e-17 0)
(3 -3.56267e-16 0)
(3 -3.11196e-16 0)
(3 2.7483e-16 0)
(3 1.54919e-15 0)
(3 1.68849e-15 0)
(3 1.18189e-15 0)
(3 1.55043e-15 0)
(3 2.73593e-15 0)
(3 2.99614e-15 0)
(3 4.13276e-15 0)
(3 3.88385e-15 0)
(3 3.91692e-15 0)
(3 4.09417e-15 0)
(3 3.39507e-15 0)
(3 1.69082e-15 0)
(3 8.89812e-16 0)
(3 1.27874e-15 0)
(3 2.62147e-15 0)
(3 2.18908e-15 0)
(3 7.36397e-16 0)
(3 9.17152e-18 0)
(3 -8.18429e-16 0)
(3 5.22123e-16 0)
(3 1.38878e-15 0)
(3 2.02693e-15 0)
(3 3.0459e-15 0)
(3 4.69478e-15 0)
(3 4.94515e-15 0)
(3 4.92148e-15 0)
(3 4.50546e-15 0)
(3 2.14236e-15 0)
(3 1.40113e-15 0)
(3 2.22352e-15 0)
(3 1.60162e-15 0)
(3 2.28472e-16 0)
(3 -1.32805e-15 0)
(3 -8.38051e-16 0)
(3 1.35642e-15 0)
(3 1.43341e-15 0)
(3 9.45216e-16 0)
(3 -1.38416e-16 0)
(3 -9.67363e-16 0)
(3 -7.04243e-16 0)
(3 9.80666e-18 0)
(3 1.39468e-15 0)
(3 1.72932e-15 0)
(3 3.08591e-15 0)
(3 2.88379e-15 0)
(3 1.75617e-15 0)
(3 1.04036e-15 0)
(3 -2.51445e-16 0)
(3 5.58427e-16 0)
(3 1.17173e-15 0)
(3 1.40445e-15 0)
(3 8.17373e-16 0)
(3 -2.53597e-15 0)
(3 -7.09558e-16 0)
(3 -1.11259e-15 0)
(3 -3.27907e-16 0)
(3 -4.23361e-16 0)
(3 -1.02939e-15 0)
(3 -5.86338e-17 0)
(3 1.87069e-16 0)
(3 6.70705e-16 0)
(3 7.50898e-16 0)
(3 1.81467e-15 0)
(3 1.59082e-15 0)
(3 2.1437e-16 0)
(3 -1.32635e-16 0)
(3 -6.39827e-16 0)
(3 1.81746e-15 0)
(3 1.34184e-15 0)
(3 2.95314e-16 0)
(3 -4.99177e-17 0)
(3 7.45849e-16 0)
(3 6.54123e-16 0)
(3 2.13353e-16 0)
(3 -9.83913e-16 0)
(3 -8.90481e-16 0)
(3 -1.78812e-15 0)
(3 -1.35893e-15 0)
(3 1.85238e-16 0)
(3 7.86297e-16 0)
(3 1.17659e-15 0)
(3 1.47715e-15 0)
(3 2.9713e-15 0)
(3 2.2113e-15 0)
(3 1.16942e-15 0)
(3 8.29067e-16 0)
(3 1.17893e-15 0)
(3 9.14512e-16 0)
(3 7.46952e-16 0)
(3 1.42342e-15 0)
(3 6.03581e-16 0)
(3 -1.13894e-16 0)
(3 4.77525e-17 0)
(3 -8.20236e-16 0)
(3 -1.38381e-15 0)
(3 -1.96898e-15 0)
(3 -2.54268e-15 0)
(3 -8.92794e-16 0)
(3 -1.28192e-16 0)
(3 -5.06955e-16 0)
(3 1.68479e-15 0)
(3 3.38068e-15 0)
(3 2.83999e-15 0)
(3 2.1952e-15 0)
(3 2.30836e-15 0)
(3 2.76355e-15 0)
(3 4.57359e-15 0)
(3 3.28964e-15 0)
(3 2.77451e-15 0)
(3 2.57721e-15 0)
(3 1.66499e-15 0)
(3 1.42053e-15 0)
(3 -2.92548e-15 0)
(3 -3.74743e-15 0)
(3 -2.72373e-15 0)
(3 -1.81053e-15 0)
(3 -6.68791e-16 0)
(3 1.11795e-16 0)
(3 -5.87612e-16 0)
(3 -1.73959e-16 0)
(3 1.05389e-15 0)
(3 2.39893e-15 0)
(3 2.57411e-15 0)
(3 1.66618e-15 0)
(3 1.56066e-15 0)
(3 2.56888e-15 0)
(3 4.66797e-15 0)
(3 4.50734e-15 0)
(3 3.4584e-15 0)
(3 1.42661e-15 0)
(3 1.07734e-15 0)
(3 1.09587e-15 0)
(3 2.05827e-16 0)
(3 -2.00646e-15 0)
(3 -2.79896e-15 0)
(3 -2.39296e-15 0)
(3 -6.05782e-16 0)
(3 3.06941e-16 0)
(3 9.7941e-16 0)
(3 1.59656e-15 0)
(3 1.41928e-15 0)
(3 6.19073e-16 0)
(3 -1.62094e-16 0)
(3 -2.04243e-16 0)
(3 3.21522e-16 0)
(3 1.44694e-15 0)
(3 1.10605e-15 0)
(3 2.11726e-15 0)
(3 2.7483e-15 0)
(3 2.63384e-15 0)
(3 2.9349e-15 0)
(3 3.36395e-15 0)
(3 -1.36542e-15 0)
(3 -2.51983e-15 0)
(3 -1.92978e-15 0)
(3 -1.42944e-15 0)
(3 -8.93942e-16 0)
(3 -7.30851e-16 0)
(3 1.39739e-15 0)
(3 8.47682e-16 0)
(3 9.0644e-16 0)
(3 4.11576e-16 0)
(3 -4.37575e-16 0)
(3 -4.72109e-17 0)
(3 1.14789e-15 0)
(3 1.63234e-15 0)
(3 1.33594e-15 0)
(3 1.13694e-15 0)
(3 2.17749e-15 0)
(3 2.53841e-15 0)
(3 1.84248e-15 0)
(3 3.04021e-15 0)
(3 4.53071e-16 0)
(3 1.19298e-15 0)
(3 1.60208e-15 0)
(3 -3.22626e-16 0)
(3 -2.1458e-15 0)
(3 -1.79064e-15 0)
(3 -3.7158e-16 0)
(3 5.17905e-16 0)
(3 9.91538e-17 0)
(3 1.36626e-16 0)
(3 -2.97464e-16 0)
(3 1.20049e-16 0)
(3 6.5082e-17 0)
(3 1.45599e-15 0)
(3 7.25152e-16 0)
(3 -4.5633e-16 0)
(3 -4.50614e-16 0)
(3 6.46768e-16 0)
(3 7.14371e-16 0)
(3 1.53908e-15 0)
(3 4.28069e-15 0)
(3 3.96238e-15 0)
(3 1.63939e-15 0)
(3 -9.0689e-16 0)
(3 -1.88464e-15 0)
(3 -1.03037e-15 0)
(3 -6.20261e-16 0)
(3 1.13621e-15 0)
(3 6.80018e-17 0)
(3 8.58519e-18 0)
(3 2.71728e-16 0)
(3 -2.21749e-16 0)
(3 6.58657e-16 0)
(3 1.59157e-15 0)
(3 -1.22556e-15 0)
(3 -1.13271e-15 0)
(3 -9.22136e-16 0)
(3 -8.81379e-16 0)
(3 -1.09044e-16 0)
(3 1.08613e-15 0)
(3 3.1967e-15 0)
(3 2.28646e-15 0)
(3 -9.45806e-16 0)
(3 -8.08371e-16 0)
(3 -4.13183e-16 0)
(3 1.64668e-16 0)
(3 -7.63561e-16 0)
(3 -5.03768e-16 0)
(3 -2.13668e-16 0)
(3 -4.80071e-16 0)
(3 1.68476e-16 0)
(3 1.53104e-15 0)
(3 3.20657e-15 0)
(3 2.44995e-15 0)
(3 1.37586e-15 0)
(3 9.95706e-16 0)
(3 1.88758e-15 0)
(3 1.30348e-15 0)
(3 1.64022e-15 0)
(3 2.74309e-15 0)
(3 3.76691e-15 0)
(3 9.51428e-16 0)
(3 6.21257e-16 0)
(3 4.8701e-16 0)
(3 1.43101e-16 0)
(3 1.87305e-16 0)
(3 -6.36211e-16 0)
(3 -2.09143e-15 0)
(3 -7.68719e-16 0)
(3 -1.31052e-16 0)
(3 8.96764e-16 0)
(3 3.96507e-15 0)
(3 4.73672e-15 0)
(3 3.67041e-15 0)
(3 3.70021e-15 0)
(3 3.58506e-15 0)
(3 3.10398e-15 0)
(3 2.62825e-15 0)
(3 1.91079e-15 0)
(3 2.26754e-15 0)
(3 1.20241e-15 0)
(3 -3.85191e-18 0)
(3 1.15663e-15 0)
(3 1.66084e-15 0)
(3 4.65573e-16 0)
(3 1.63001e-16 0)
(3 -1.60471e-17 0)
(3 -6.08229e-16 0)
(3 -1.69132e-16 0)
(3 1.69002e-15 0)
(3 2.92873e-15 0)
(3 2.5316e-15 0)
(3 2.04061e-15 0)
(3 2.37859e-15 0)
(3 2.9852e-15 0)
(3 4.79283e-15 0)
(3 3.43319e-15 0)
(3 1.85639e-15 0)
(3 1.22333e-15 0)
(3 1.72816e-15 0)
(3 7.27215e-16 0)
(3 6.8823e-16 0)
(3 1.23304e-15 0)
(3 1.08463e-15 0)
(3 2.91575e-16 0)
(3 -3.65639e-16 0)
(3 -9.5234e-16 0)
(3 -4.5657e-16 0)
(3 5.97201e-16 0)
(3 1.83846e-15 0)
(3 2.86739e-15 0)
(3 1.66263e-15 0)
(3 3.96036e-16 0)
(3 1.25555e-15 0)
(3 3.55541e-15 0)
(3 3.54182e-15 0)
(3 3.20162e-15 0)
(3 2.80384e-15 0)
(3 2.52073e-15 0)
(3 1.74924e-15 0)
(3 2.3496e-15 0)
(3 1.86587e-15 0)
(3 1.92138e-15 0)
(3 1.13037e-15 0)
(3 -2.44138e-16 0)
(3 -4.2432e-16 0)
(3 3.5708e-16 0)
(3 1.12879e-15 0)
(3 2.34574e-15 0)
(3 3.20642e-15 0)
(3 2.08762e-15 0)
(3 2.20176e-16 0)
(3 1.62914e-15 0)
(3 3.26244e-15 0)
(3 3.78582e-15 0)
(3 3.07623e-15 0)
(3 2.65398e-15 0)
(3 2.69695e-15 0)
(3 2.36026e-15 0)
(3 1.86258e-15 0)
(3 2.99945e-15 0)
(3 2.25398e-15 0)
(3 1.62829e-15 0)
(3 2.95502e-16 0)
(3 3.12925e-16 0)
(3 -3.18456e-16 0)
(3 4.81772e-16 0)
(3 2.01605e-15 0)
(3 2.939e-15 0)
(3 2.83227e-15 0)
(3 8.95845e-16 0)
(3 -3.2465e-16 0)
(3 1.49052e-15 0)
(3 4.01103e-15 0)
(3 3.11989e-15 0)
(3 3.35142e-15 0)
(3 3.49073e-15 0)
(3 3.54332e-15 0)
(3 4.6359e-15 0)
(3 5.21735e-15 0)
(3 3.33419e-15 0)
(3 3.10613e-15 0)
(3 8.9812e-16 0)
(3 -2.49213e-16 0)
(3 2.80486e-17 0)
(3 6.16722e-16 0)
(3 1.19846e-15 0)
(3 1.65404e-15 0)
(3 1.53335e-15 0)
(3 5.75108e-16 0)
(3 2.97694e-16 0)
(3 9.87855e-16 0)
(3 1.20253e-15 0)
(3 2.04689e-15 0)
(3 2.21677e-15 0)
(3 2.71474e-15 0)
(3 3.53277e-15 0)
(3 4.41932e-15 0)
(3 4.45716e-15 0)
(3 5.51041e-15 0)
(3 2.38051e-15 0)
(3 2.44322e-15 0)
(3 8.84017e-16 0)
(3 3.34311e-16 0)
(3 4.48175e-16 0)
(3 1.65718e-15 0)
(3 3.43418e-15 0)
(3 3.90368e-15 0)
(3 1.41996e-15 0)
(3 8.6745e-17 0)
(3 -1.08515e-16 0)
(3 1.34382e-16 0)
(3 -6.51257e-16 0)
(3 -9.13035e-16 0)
(3 1.72445e-15 0)
(3 4.30937e-15 0)
(3 3.66638e-15 0)
(3 2.90315e-15 0)
(3 1.83223e-15 0)
(3 2.43828e-15 0)
(3 -1.93351e-15 0)
(3 5.57934e-17 0)
(3 2.24012e-16 0)
(3 2.03426e-15 0)
(3 2.92029e-15 0)
(3 3.04128e-15 0)
(3 4.38993e-15 0)
(3 3.57697e-15 0)
(3 2.00407e-16 0)
(3 -1.39796e-15 0)
(3 -6.35363e-16 0)
(3 -2.8953e-16 0)
(3 8.69122e-16 0)
(3 2.38408e-15 0)
(3 3.43284e-15 0)
(3 4.27333e-15 0)
(3 3.78757e-15 0)
(3 1.47758e-15 0)
(3 4.42352e-16 0)
(3 -5.32786e-16 0)
(3 -1.83135e-15 0)
(3 -1.80044e-15 0)
(3 -1.6117e-16 0)
(3 9.62751e-16 0)
(3 3.10615e-15 0)
(3 3.08438e-15 0)
(3 1.71128e-15 0)
(3 1.35536e-15 0)
(3 8.01959e-16 0)
(3 -6.98265e-16 0)
(3 -9.23265e-16 0)
(3 4.57516e-16 0)
(3 2.46106e-15 0)
(3 3.29804e-15 0)
(3 2.04086e-15 0)
(3 1.69981e-15 0)
(3 2.13613e-15 0)
(3 2.85531e-15 0)
(3 2.16179e-15 0)
(3 1.33145e-15 0)
(3 -1.10724e-16 0)
(3 -1.96994e-15 0)
(3 -1.1086e-15 0)
(3 -9.07841e-16 0)
(3 8.06948e-16 0)
(3 5.64859e-16 0)
(3 -1.43618e-15 0)
(3 -1.92343e-15 0)
(3 -4.03488e-16 0)
(3 9.70568e-16 0)
(3 1.46062e-15 0)
(3 1.88766e-15 0)
(3 2.21628e-15 0)
(3 1.8381e-15 0)
(3 8.46781e-16 0)
(3 4.86985e-17 0)
(3 3.341e-16 0)
(3 9.20397e-16 0)
(3 1.52629e-15 0)
(3 7.41233e-16 0)
(3 -2.49292e-16 0)
(3 -3.63681e-16 0)
(3 -1.4462e-15 0)
(3 -6.21658e-16 0)
(3 -4.43177e-16 0)
(3 5.56014e-16 0)
(3 5.21485e-16 0)
(3 2.64217e-17 0)
(3 4.44663e-16 0)
(3 8.20254e-16 0)
(3 1.05836e-15 0)
(3 5.59316e-16 0)
(3 8.15191e-16 0)
(3 6.1975e-16 0)
(3 -1.87666e-15 0)
(3 -2.31074e-15 0)
(3 -1.58481e-15 0)
(3 -1.08778e-15 0)
(3 3.244e-16 0)
(3 -3.25681e-16 0)
(3 -9.00342e-16 0)
(3 -4.65592e-16 0)
(3 -1.10206e-15 0)
(3 -7.77411e-16 0)
(3 -5.43402e-16 0)
(3 3.45887e-16 0)
(3 -4.38416e-16 0)
(3 4.48192e-16 0)
(3 7.43546e-16 0)
(3 -9.71593e-16 0)
(3 -1.34295e-15 0)
(3 -6.62467e-16 0)
(3 -1.17253e-16 0)
(3 -4.97071e-16 0)
(3 -1.94071e-15 0)
(3 -2.20599e-15 0)
(3 -1.33737e-15 0)
(3 -8.16687e-16 0)
(3 -1.15193e-15 0)
(3 -1.16286e-15 0)
(3 -3.62066e-15 0)
(3 -3.42938e-15 0)
(3 -2.34072e-15 0)
(3 -2.34965e-15 0)
(3 -2.33131e-15 0)
(3 -3.15458e-15 0)
(3 -3.97452e-15 0)
(3 -4.97995e-15 0)
(3 -3.84882e-15 0)
(3 4.93616e-14 0)
(3 2.30123e-10 0)
(3 2.59575e-07 0)
(2.99996 8.34667e-05 0)
(2.99823 0.00479879 0)
(2.97214 0.0581822 0)
(2.82162 0.282763 0)
(2.41241 0.671481 0)
(2.11649 0.954061 0)
(2.08273 1.02337 0)
(2.07191 0.98907 0)
(2.11956 0.915197 0)
(2.18608 0.862735 0)
(2.20646 0.864795 0)
(2.19914 0.888045 0)
(2.1741 0.934061 0)
(2.1435 0.954142 0)
(2.13365 0.945948 0)
(2.14052 0.933821 0)
(2.15539 0.9178 0)
(2.17284 0.89264 0)
(2.18583 0.883385 0)
(2.18918 0.885456 0)
(2.18494 0.895739 0)
(2.17669 0.90319 0)
(2.17624 0.901222 0)
(2.1828 0.89541 0)
(2.19341 0.885669 0)
(2.19968 0.875999 0)
(2.2027 0.876259 0)
(2.2013 0.880646 0)
(2.19988 0.880683 0)
(2.20175 0.875579 0)
(2.2069 0.872731 0)
(2.21559 0.866984 0)
(2.22172 0.861824 0)
(2.22469 0.862192 0)
(2.22498 0.863844 0)
(2.22481 0.863577 0)
(2.22783 0.85977 0)
(2.23287 0.853102 0)
(2.23716 0.844641 0)
(2.23927 0.837551 0)
(2.24076 0.834035 0)
(2.24199 0.832385 0)
(2.24376 0.831085 0)
(2.2467 0.829615 0)
(2.25073 0.828183 0)
(2.25649 0.826302 0)
(2.26159 0.824878 0)
(2.26628 0.825744 0)
(2.26959 0.826546 0)
(2.27195 0.824351 0)
(2.27538 0.820303 0)
(2.28011 0.815249 0)
(2.28606 0.81135 0)
(2.29073 0.808885 0)
(2.29348 0.808385 0)
(2.29367 0.808391 0)
(2.28869 0.805886 0)
(2.27467 0.804557 0)
(2.26495 0.805049 0)
(2.24896 0.808182 0)
(2.23132 0.818141 0)
(2.22077 0.830176 0)
(2.21794 0.836724 0)
(2.2253 0.845206 0)
(2.2394 0.855491 0)
(2.24507 0.857737 0)
(2.2499 0.857011 0)
(2.25606 0.85323 0)
(2.26139 0.846929 0)
(2.26347 0.839057 0)
(2.26051 0.826593 0)
(2.25618 0.812689 0)
(2.25758 0.805424 0)
(2.26204 0.801193 0)
(2.26619 0.797081 0)
(2.2711 0.794762 0)
(2.27596 0.795057 0)
(2.28514 0.798706 0)
(2.29618 0.804864 0)
(2.30354 0.807966 0)
(2.30871 0.806688 0)
(2.31256 0.801101 0)
(2.31308 0.792774 0)
(2.3086 0.779775 0)
(2.30542 0.767625 0)
(2.30807 0.76195 0)
(2.31186 0.761738 0)
(2.31818 0.762335 0)
(2.32684 0.764015 0)
(2.33165 0.764364 0)
(2.33699 0.762879 0)
(2.33788 0.756337 0)
(2.33371 0.74577 0)
(2.33275 0.73754 0)
(2.33624 0.736541 0)
(2.3416 0.736383 0)
(2.34852 0.735423 0)
(2.35367 0.73426 0)
(2.35901 0.732741 0)
(2.36186 0.727802 0)
(2.3585 0.717223 0)
(2.35399 0.706207 0)
(2.35638 0.702212 0)
(2.36024 0.702617 0)
(2.36688 0.702666 0)
(2.37244 0.701904 0)
(2.37771 0.700492 0)
(2.38259 0.697356 0)
(2.38692 0.69346 0)
(2.39095 0.68967 0)
(2.39381 0.685088 0)
(2.3929 0.677504 0)
(2.38713 0.666481 0)
(2.3845 0.657602 0)
(2.38681 0.65593 0)
(2.39099 0.657033 0)
(2.40112 0.661226 0)
(2.41332 0.667293 0)
(2.41934 0.669101 0)
(2.42485 0.667143 0)
(2.42825 0.66141 0)
(2.43028 0.654959 0)
(2.43037 0.64765 0)
(2.42699 0.637029 0)
(2.41944 0.623157 0)
(2.41561 0.613356 0)
(2.41833 0.610269 0)
(2.4225 0.610354 0)
(2.42833 0.609574 0)
(2.43622 0.610193 0)
(2.44615 0.613118 0)
(2.4556 0.616115 0)
(2.46081 0.616268 0)
(2.46579 0.615443 0)
(2.47062 0.614033 0)
(2.4733 0.609569 0)
(2.4694 0.599758 0)
(2.45851 0.583511 0)
(2.45617 0.573948 0)
(2.45984 0.571754 0)
(2.4638 0.571508 0)
(2.47266 0.57221 0)
(2.4813 0.573832 0)
(2.48515 0.57379 0)
(2.4903 0.573193 0)
(2.49454 0.571508 0)
(2.49422 0.56461 0)
(2.4876 0.554172 0)
(2.48538 0.54751 0)
(2.48757 0.547604 0)
(2.49286 0.548763 0)
(2.50278 0.551016 0)
(2.5101 0.550904 0)
(2.51473 0.548942 0)
(2.51988 0.546621 0)
(2.52396 0.543657 0)
(2.52584 0.537574 0)
(2.51921 0.525002 0)
(2.50512 0.507498 0)
(2.50144 0.499461 0)
(2.50341 0.499397 0)
(2.50829 0.500933 0)
(2.52018 0.506297 0)
(2.53361 0.512198 0)
(2.53942 0.512302 0)
(2.54427 0.510869 0)
(2.54864 0.511523 0)
(2.55283 0.50993 0)
(2.54778 0.492167 0)
(2.50482 0.420992 0)
(2.35755 0.208048 0)
(2.05432 -0.161419 0)
(1.94156 -0.32594 0)
(1.94302 -0.290928 0)
(1.96529 -0.297129 0)
(1.96869 -0.306141 0)
(1.96785 -0.316947 0)
(1.96676 -0.31953 0)
(1.96635 -0.319986 0)
(1.96407 -0.3214 0)
(3 -8.8889e-16 0)
(3 -7.80147e-17 0)
(3 4.07302e-16 0)
(3 4.4491e-16 0)
(3 3.52549e-16 0)
(3 5.11109e-17 0)
(3 4.24838e-16 0)
(3 8.98061e-16 0)
(3 1.35569e-15 0)
(3 1.01665e-15 0)
(3 4.28847e-16 0)
(3 3.47171e-16 0)
(3 8.73371e-16 0)
(3 1.04357e-15 0)
(3 7.99809e-16 0)
(3 2.78397e-16 0)
(3 1.04932e-15 0)
(3 2.29256e-15 0)
(3 3.94781e-15 0)
(3 4.03309e-15 0)
(3 3.96077e-15 0)
(3 3.89149e-15 0)
(3 3.50846e-15 0)
(3 2.93521e-15 0)
(3 2.8091e-15 0)
(3 2.69324e-15 0)
(3 3.19464e-15 0)
(3 2.57583e-15 0)
(3 2.51423e-15 0)
(3 2.57063e-15 0)
(3 2.98218e-15 0)
(3 3.82252e-15 0)
(3 3.78063e-15 0)
(3 2.89822e-15 0)
(3 2.16868e-15 0)
(3 2.24098e-15 0)
(3 3.22221e-16 0)
(3 -2.22844e-15 0)
(3 -2.21927e-15 0)
(3 -1.56144e-15 0)
(3 -1.2672e-15 0)
(3 -1.22881e-15 0)
(3 -1.52837e-15 0)
(3 -2.28322e-15 0)
(3 -2.52319e-15 0)
(3 -1.75571e-15 0)
(3 -1.50446e-15 0)
(3 -2.59605e-16 0)
(3 8.70779e-14 0)
(3 2.31914e-10 0)
(3 1.8119e-07 0)
(2.99999 2.42075e-05 0)
(2.99946 0.00122659 0)
(2.98395 0.0325518 0)
(2.83253 0.259477 0)
(2.31294 0.777124 0)
(2.158 1.03185 0)
(2.13128 0.936225 0)
(2.1907 0.872437 0)
(2.20893 0.865085 0)
(2.2071 0.888858 0)
(2.17775 0.940912 0)
(2.13453 0.969404 0)
(2.11761 0.96291 0)
(2.12619 0.941522 0)
(2.14751 0.919716 0)
(2.17432 0.88998 0)
(2.19009 0.880513 0)
(2.19339 0.885898 0)
(2.18541 0.898873 0)
(2.1711 0.909628 0)
(2.16908 0.909143 0)
(2.17426 0.903412 0)
(2.18549 0.894972 0)
(2.19493 0.883592 0)
(2.19961 0.878652 0)
(2.19884 0.882911 0)
(2.19573 0.88654 0)
(2.19707 0.883017 0)
(2.20229 0.880342 0)
(2.21086 0.874829 0)
(2.21789 0.867855 0)
(2.22164 0.865966 0)
(2.22186 0.867481 0)
(2.22092 0.867783 0)
(2.22314 0.864747 0)
(2.22796 0.858368 0)
(2.23253 0.849837 0)
(2.23507 0.842051 0)
(2.23616 0.838022 0)
(2.23682 0.837028 0)
(2.23881 0.836606 0)
(2.24217 0.836513 0)
(2.24651 0.836171 0)
(2.25324 0.834353 0)
(2.25896 0.832311 0)
(2.26373 0.83179 0)
(2.26571 0.830556 0)
(2.26554 0.828081 0)
(2.26778 0.824489 0)
(2.27247 0.819932 0)
(2.27765 0.815392 0)
(2.28348 0.811675 0)