/*--------------------------------*- C++ -*----------------------------------*\
  =========                 |
  \\      /  F ield         | OpenFOAM: The Open Source CFD Toolbox
   \\    /   O peration     | Website:  https://openfoam.org
    \\  /    A nd           | Version:  7
     \\/     M anipulation  |
\*---------------------------------------------------------------------------*/
FoamFile
{
    version     2.0;
    format      ascii;
    class       volVectorField;
    location    "0.9";
    object      U;
}
// * * * * * * * * * * * * * * * * * * * * * * * * * * * * * * * * * * * * * //

dimensions      [0 1 -1 0 0 0 0];

internalField   nonuniform List<vector> 
16512
(
(2.64982 -0.000873869 0)
(2.65058 -0.00286141 0)
(2.65342 -0.00282284 0)
(2.65589 -0.00109646 0)
(2.66015 0.00364823 0)
(2.66442 0.010268 0)
(2.66666 0.0144152 0)
(2.66946 0.0172308 0)
(2.67043 0.0179534 0)
(2.66776 0.0156765 0)
(2.66802 0.0141726 0)
(2.67354 0.0139217 0)
(2.67941 0.0129955 0)
(2.68214 0.0104184 0)
(2.68417 0.00735028 0)
(2.68847 0.00588376 0)
(2.69282 0.00558495 0)
(2.6969 0.00556853 0)
(2.70067 0.00635331 0)
(2.70385 0.00819651 0)
(2.70656 0.010594 0)
(2.70951 0.013705 0)
(2.71267 0.0176378 0)
(2.7154 0.0211376 0)
(2.71734 0.0237782 0)
(2.71897 0.0263938 0)
(2.72157 0.0270641 0)
(2.72588 0.0260881 0)
(2.73124 0.026093 0)
(2.73641 0.0270714 0)
(2.74011 0.0283853 0)
(2.74235 0.0282298 0)
(2.74437 0.0268937 0)
(2.74584 0.0253303 0)
(2.74593 0.0240566 0)
(2.74617 0.0233242 0)
(2.74825 0.0232145 0)
(2.75056 0.023409 0)
(2.75334 0.0242713 0)
(2.75783 0.0263539 0)
(2.76665 0.0318787 0)
(2.77773 0.0409769 0)
(2.78606 0.0471822 0)
(2.78983 0.0490607 0)
(2.79205 0.0495876 0)
(2.79388 0.0499324 0)
(2.79484 0.0501835 0)
(2.79412 0.0489541 0)
(2.79033 0.0444293 0)
(2.78457 0.0369021 0)
(2.78089 0.0305188 0)
(2.78118 0.0277803 0)
(2.78266 0.0272786 0)
(2.78436 0.0273968 0)
(2.78938 0.0298789 0)
(2.79812 0.035235 0)
(2.80925 0.0432852 0)
(2.81621 0.0481034 0)
(2.8182 0.0490339 0)
(2.81942 0.0491236 0)
(2.82078 0.0491505 0)
(2.82203 0.048936 0)
(2.82262 0.048142 0)
(2.82089 0.0460175 0)
(2.81827 0.0426368 0)
(2.81927 0.0401906 0)
(2.82133 0.038219 0)
(2.82369 0.0357504 0)
(2.8271 0.033265 0)
(2.83332 0.0313197 0)
(2.84071 0.0313751 0)
(2.847 0.032711 0)
(2.85076 0.0336385 0)
(2.85237 0.0336594 0)
(2.85345 0.0335367 0)
(2.85453 0.0334808 0)
(2.85577 0.0334818 0)
(2.85675 0.0334671 0)
(2.85753 0.0333512 0)
(2.8584 0.0330469 0)
(2.85975 0.0324834 0)
(2.86164 0.0314839 0)
(2.86285 0.0303438 0)
(2.86436 0.028445 0)
(2.86601 0.0258363 0)
(2.86704 0.0225066 0)
(2.86713 0.0188605 0)
(2.86739 0.0164665 0)
(2.86884 0.0157771 0)
(2.8703 0.0161472 0)
(2.87243 0.0177883 0)
(2.87681 0.0214926 0)
(2.88246 0.0265089 0)
(2.8872 0.0292873 0)
(2.88994 0.0291253 0)
(2.8916 0.0278669 0)
(2.89273 0.0262748 0)
(2.8937 0.0243022 0)
(2.89406 0.0215474 0)
(2.89294 0.0172735 0)
(2.88973 0.012148 0)
(2.88687 0.00938648 0)
(2.88607 0.00903469 0)
(2.88526 0.0101051 0)
(2.88612 0.013521 0)
(2.88859 0.0186711 0)
(2.89041 0.0221448 0)
(2.89101 0.0230047 0)
(2.89157 0.0227132 0)
(2.89267 0.0215797 0)
(2.89434 0.0191607 0)
(2.89666 0.0154426 0)
(2.89887 0.0132966 0)
(2.90201 0.0123736 0)
(2.90578 0.0131528 0)
(2.90889 0.0153262 0)
(2.91055 0.0173638 0)
(2.91056 0.0181031 0)
(2.90996 0.0181631 0)
(2.90774 0.0172876 0)
(2.90296 0.0144709 0)
(2.89607 0.00920193 0)
(2.89233 0.00678165 0)
(2.89183 0.00674777 0)
(2.8918 0.00708811 0)
(2.89418 0.00875552 0)
(2.90159 0.0133396 0)
(2.91268 0.0175353 0)
(2.91936 0.0170589 0)
(2.92094 0.0150702 0)
(2.92086 0.0134268 0)
(2.91999 0.0110324 0)
(2.91839 0.00874207 0)
(2.91752 0.00833515 0)
(2.91667 0.00917026 0)
(2.91691 0.0121233 0)
(2.91937 0.0173231 0)
(2.92115 0.0210616 0)
(2.91983 0.021428 0)
(2.91832 0.0206686 0)
(2.91505 0.0186899 0)
(2.91171 0.0152646 0)
(2.91051 0.0131462 0)
(2.91017 0.0116622 0)
(2.90973 0.00961395 0)
(2.9096 0.00752804 0)
(2.90987 0.00568457 0)
(2.91069 0.00444185 0)
(2.91288 0.00463782 0)
(2.91835 0.00815396 0)
(2.92721 0.0159401 0)
(2.93267 0.0213675 0)
(2.93195 0.0222738 0)
(2.93029 0.0222247 0)
(2.92789 0.0217845 0)
(2.92205 0.0193399 0)
(2.91456 0.0146771 0)
(2.91114 0.012012 0)
(2.91029 0.011078 0)
(2.90986 0.0093732 0)
(2.9123 0.00797132 0)
(2.9204 0.00772709 0)
(2.93109 0.00913106 0)
(2.93546 0.0101064 0)
(2.93457 0.009986 0)
(2.9328 0.00929619 0)
(2.93162 0.00790081 0)
(2.93095 0.00656672 0)
(2.93073 0.00558323 0)
(2.93217 0.00453529 0)
(2.93718 0.00254428 0)
(2.9426 -0.000306744 0)
(2.94337 -0.0021228 0)
(2.94233 -0.00304865 0)
(2.94086 -0.00424395 0)
(2.93782 -0.00486768 0)
(2.93377 -0.00398568 0)
(2.93184 -0.00342242 0)
(2.93039 -0.00400153 0)
(2.92917 -0.00556951 0)
(2.92909 -0.00724357 0)
(2.93084 -0.00897633 0)
(2.93693 -0.0103435 0)
(2.94936 -0.0105641 0)
(2.96311 -0.0101825 0)
(2.96927 -0.010238 0)
(2.96935 -0.0105801 0)
(2.96818 -0.0108712 0)
(2.96699 -0.0116051 0)
(2.96596 -0.01307 0)
(2.96588 -0.0140033 0)
(2.96559 -0.0148358 0)
(2.9654 -0.0158604 0)
(2.96546 -0.0176831 0)
(2.96562 -0.0204876 0)
(2.96635 -0.0237213 0)
(2.96825 -0.0261848 0)
(2.97288 -0.0262616 0)
(2.98156 -0.0243164 0)
(2.98835 -0.0246217 0)
(2.98839 -0.0272462 0)
(2.98626 -0.0301507 0)
(2.98475 -0.0329973 0)
(2.98516 -0.0342231 0)
(2.98735 -0.0327809 0)
(2.98833 -0.0313865 0)
(2.98618 -0.0307784 0)
(2.98284 -0.0298024 0)
(2.98041 -0.0288565 0)
(2.97928 -0.0285273 0)
(2.97905 -0.0287723 0)
(2.97938 -0.0294201 0)
(2.98004 -0.0309489 0)
(2.9807 -0.0337732 0)
(2.98174 -0.037304 0)
(2.98582 -0.0413489 0)
(2.99206 -0.0449738 0)
(2.9902 -0.0455388 0)
(2.98594 -0.0450741 0)
(2.98229 -0.0432648 0)
(2.97917 -0.03979 0)
(2.97749 -0.0378748 0)
(2.97567 -0.0367228 0)
(2.97519 -0.0358648 0)
(2.97917 -0.0355622 0)
(2.98897 -0.0364821 0)
(2.99292 -0.0378011 0)
(2.98948 -0.0383192 0)
(2.98431 -0.0385006 0)
(2.97835 -0.0389577 0)
(2.97283 -0.0397641 0)
(2.96809 -0.0401179 0)
(2.96477 -0.0386513 0)
(2.96354 -0.0358327 0)
(2.963 -0.0338717 0)
(2.96166 -0.0338294 0)
(2.95993 -0.0352547 0)
(2.95809 -0.036243 0)
(2.95654 -0.0364288 0)
(2.95786 -0.0393955 0)
(2.96659 -0.04746 0)
(2.97413 -0.0538739 0)
(2.97242 -0.0545449 0)
(2.97031 -0.0544234 0)
(2.96462 -0.0551648 0)
(2.96107 -0.0562645 0)
(2.95694 -0.0571833 0)
(2.95323 -0.0582539 0)
(2.95447 -0.0569441 0)
(2.96234 -0.0508435 0)
(2.9674 -0.0449497 0)
(2.96792 -0.0428526 0)
(2.96787 -0.042039 0)
(2.96674 -0.0410074 0)
(2.96201 -0.0415062 0)
(2.95411 -0.0450383 0)
(2.95084 -0.0478762 0)
(2.94957 -0.0486625 0)
(2.65613 0.00110695 0)
(2.65796 0.00168545 0)
(2.6614 0.00443741 0)
(2.66611 0.0104624 0)
(2.67019 0.0166465 0)
(2.67143 0.0189004 0)
(2.6718 0.018576 0)
(2.66784 0.0136124 0)
(2.6609 0.00706508 0)
(2.65789 0.00282524 0)
(2.66128 0.00202125 0)
(2.66835 0.00247758 0)
(2.6748 0.00288372 0)
(2.67854 0.00335971 0)
(2.68311 0.00445015 0)
(2.68838 0.00547 0)
(2.69289 0.00609952 0)
(2.69693 0.00736006 0)
(2.70032 0.0102201 0)
(2.70333 0.0144486 0)
(2.70659 0.0192189 0)
(2.70967 0.0237569 0)
(2.71214 0.0276327 0)
(2.71336 0.0291756 0)
(2.71312 0.0268373 0)
(2.71297 0.0245909 0)
(2.71551 0.0220938 0)
(2.71986 0.018567 0)
(2.72476 0.0161908 0)
(2.73046 0.0159903 0)
(2.73617 0.0176323 0)
(2.74089 0.0199501 0)
(2.7442 0.0223041 0)
(2.74605 0.0239425 0)
(2.74656 0.0247406 0)
(2.74747 0.0252874 0)
(2.74916 0.0257818 0)
(2.75087 0.0265115 0)
(2.75378 0.0282138 0)
(2.76061 0.033026 0)
(2.77138 0.0411108 0)
(2.78111 0.0466586 0)
(2.78597 0.0482235 0)
(2.78999 0.0485842 0)
(2.79284 0.048498 0)
(2.79495 0.0480346 0)
(2.7947 0.0461034 0)
(2.79014 0.0400185 0)
(2.78284 0.0302576 0)
(2.779 0.0240262 0)
(2.77966 0.0228528 0)
(2.78097 0.0232163 0)
(2.78288 0.0245752 0)
(2.78778 0.0277239 0)
(2.79614 0.0335483 0)
(2.80776 0.042739 0)
(2.81538 0.0482296 0)
(2.8177 0.0491483 0)
(2.81875 0.0490854 0)
(2.82004 0.0490878 0)
(2.82126 0.0491306 0)
(2.82211 0.048759 0)
(2.82125 0.0471236 0)
(2.81761 0.0434228 0)
(2.81536 0.0393607 0)
(2.81665 0.0367429 0)
(2.81863 0.0346354 0)
(2.82079 0.0326527 0)
(2.82519 0.0310448 0)
(2.83296 0.0309955 0)
(2.84253 0.0329077 0)
(2.84926 0.0352374 0)
(2.85121 0.0360075 0)
(2.85206 0.0359205 0)
(2.8529 0.0354416 0)
(2.85397 0.0349828 0)
(2.85516 0.0344622 0)
(2.85603 0.0338947 0)
(2.85678 0.0333633 0)
(2.85756 0.0326453 0)
(2.85839 0.0314908 0)
(2.85933 0.0297092 0)
(2.86053 0.0270237 0)
(2.86173 0.0240803 0)
(2.86272 0.0212704 0)
(2.86368 0.01885 0)
(2.86491 0.0173542 0)
(2.86661 0.017047 0)
(2.86818 0.0179894 0)
(2.872 0.0210753 0)
(2.8774 0.0261134 0)
(2.88293 0.0300549 0)
(2.88642 0.0308733 0)
(2.8881 0.0300977 0)
(2.88928 0.0289603 0)
(2.89014 0.0273013 0)
(2.89068 0.0243142 0)
(2.89086 0.0199079 0)
(2.89017 0.0151388 0)
(2.88886 0.0118791 0)
(2.88806 0.0107872 0)
(2.88769 0.010935 0)
(2.88782 0.0128473 0)
(2.8898 0.017062 0)
(2.8923 0.0213098 0)
(2.89241 0.0225291 0)
(2.89178 0.0224538 0)
(2.8911 0.0217892 0)
(2.89043 0.0201682 0)
(2.89082 0.0165853 0)
(2.89259 0.0135657 0)
(2.89434 0.0121924 0)
(2.89877 0.0114189 0)
(2.90452 0.0132434 0)
(2.90947 0.0164931 0)
(2.91187 0.0181999 0)
(2.91209 0.0184011 0)
(2.91152 0.018027 0)
(2.90971 0.0170396 0)
(2.90547 0.014304 0)
(2.89819 0.00867044 0)
(2.89332 0.00582266 0)
(2.89271 0.0058405 0)
(2.89258 0.00645321 0)
(2.89406 0.00839127 0)
(2.89945 0.0131037 0)
(2.90864 0.0183455 0)
(2.91564 0.0192619 0)
(2.91812 0.0174057 0)
(2.91892 0.0147656 0)
(2.91982 0.0121042 0)
(2.92026 0.0102967 0)
(2.92023 0.00986767 0)
(2.92029 0.0105626 0)
(2.92136 0.0135928 0)
(2.92397 0.0189432 0)
(2.92521 0.0224794 0)
(2.92353 0.0227112 0)
(2.92155 0.0219333 0)
(2.91689 0.0190908 0)
(2.91232 0.0137329 0)
(2.91032 0.0110328 0)
(2.90979 0.0103517 0)
(2.90947 0.00934617 0)
(2.90956 0.0083163 0)
(2.90989 0.00723863 0)
(2.91062 0.00618554 0)
(2.91269 0.00599404 0)
(2.91833 0.00847311 0)
(2.92837 0.015244 0)
(2.93627 0.0206613 0)
(2.937 0.0216232 0)
(2.93578 0.0214108 0)
(2.93431 0.0208307 0)
(2.92992 0.0190853 0)
(2.92199 0.0146073 0)
(2.91603 0.0114634 0)
(2.91465 0.0109323 0)
(2.91323 0.0104681 0)
(2.91256 0.0101777 0)
(2.91575 0.0103204 0)
(2.92628 0.0118083 0)
(2.93714 0.0130592 0)
(2.93999 0.0124856 0)
(2.93926 0.0117959 0)
(2.938 0.0101104 0)
(2.93727 0.00782272 0)
(2.93652 0.00603971 0)
(2.93591 0.0049455 0)
(2.93657 0.00412036 0)
(2.94048 0.0027347 0)
(2.94645 0.00021127 0)
(2.94887 -0.00217236 0)
(2.94786 -0.00342999 0)
(2.94636 -0.00421206 0)
(2.94455 -0.00495909 0)
(2.94094 -0.00547705 0)
(2.9371 -0.00636145 0)
(2.93536 -0.00744762 0)
(2.93465 -0.00835224 0)
(2.93411 -0.00957116 0)
(2.93568 -0.0106905 0)
(2.94323 -0.011328 0)
(2.9586 -0.0108198 0)
(2.97418 -0.010344 0)
(2.97964 -0.011127 0)
(2.97917 -0.0119258 0)
(2.97783 -0.0125836 0)
(2.976 -0.0137367 0)
(2.97342 -0.0161012 0)
(2.97238 -0.0174286 0)
(2.97166 -0.0179274 0)
(2.9712 -0.0192093 0)
(2.97133 -0.0217492 0)
(2.97193 -0.0252376 0)
(2.97347 -0.0287924 0)
(2.97672 -0.0308287 0)
(2.98323 -0.0291846 0)
(2.99233 -0.0252499 0)
(2.9965 -0.0253072 0)
(2.99513 -0.0280373 0)
(2.99296 -0.031126 0)
(2.99128 -0.0342151 0)
(2.99148 -0.035954 0)
(2.99455 -0.0348697 0)
(2.99714 -0.0321473 0)
(2.99578 -0.0302336 0)
(2.9923 -0.0294192 0)
(2.98914 -0.0295925 0)
(2.98719 -0.0305497 0)
(2.9864 -0.0318034 0)
(2.98658 -0.032615 0)
(2.98759 -0.0329327 0)
(2.98861 -0.0338263 0)
(2.98878 -0.0359715 0)
(2.98996 -0.0393143 0)
(2.99462 -0.0434937 0)
(2.99458 -0.0453368 0)
(2.9898 -0.0451355 0)
(2.98593 -0.0443465 0)
(2.98267 -0.0422272 0)
(2.98099 -0.0400573 0)
(2.98014 -0.0384661 0)
(2.98081 -0.0367641 0)
(2.98567 -0.0347354 0)
(2.99556 -0.0336039 0)
(3.00074 -0.0344563 0)
(2.99796 -0.0352566 0)
(2.99343 -0.0353541 0)
(2.9882 -0.0353339 0)
(2.98185 -0.0358418 0)
(2.97669 -0.0363147 0)
(2.97243 -0.03754 0)
(2.96983 -0.0382868 0)
(2.96896 -0.0375095 0)
(2.96895 -0.0366102 0)
(2.96806 -0.0364121 0)
(2.96632 -0.038022 0)
(2.96492 -0.0399991 0)
(2.96512 -0.0415608 0)
(2.97125 -0.0457219 0)
(2.98268 -0.052313 0)
(2.98195 -0.0544285 0)
(2.97787 -0.0542923 0)
(2.97306 -0.0534007 0)
(2.96952 -0.0526998 0)
(2.96492 -0.0522142 0)
(2.96269 -0.0511558 0)
(2.96741 -0.0483929 0)
(2.97395 -0.0456628 0)
(2.97322 -0.0451813 0)
(2.97186 -0.0452242 0)
(2.97089 -0.0454414 0)
(2.9679 -0.0464931 0)
(2.96128 -0.0490628 0)
(2.95538 -0.051732 0)
(2.95379 -0.0520965 0)
(2.95251 -0.0521808 0)
(2.66397 0.00726411 0)
(2.66811 0.0106262 0)
(2.67348 0.0162282 0)
(2.67731 0.0207216 0)
(2.67831 0.021761 0)
(2.67727 0.0197339 0)
(2.67071 0.012397 0)
(2.66176 0.0033934 0)
(2.65606 -0.00427298 0)
(2.6561 -0.00679174 0)
(2.66038 -0.00672631 0)
(2.66637 -0.00568189 0)
(2.67187 -0.00350732 0)
(2.67745 0.000465689 0)
(2.68393 0.00450989 0)
(2.68955 0.00768046 0)
(2.69406 0.010737 0)
(2.69831 0.0147873 0)
(2.70282 0.0206667 0)
(2.70545 0.0260742 0)
(2.70769 0.0305107 0)
(2.70991 0.0336272 0)
(2.7099 0.0327141 0)
(2.70637 0.0260681 0)
(2.70335 0.018425 0)
(2.70495 0.0149688 0)
(2.70935 0.0131783 0)
(2.71396 0.00926256 0)
(2.71831 0.00605837 0)
(2.72368 0.0056969 0)
(2.73071 0.00812823 0)
(2.7383 0.012793 0)
(2.74416 0.0176738 0)
(2.74833 0.0216212 0)
(2.75121 0.0248528 0)
(2.75253 0.0277886 0)
(2.7532 0.0301692 0)
(2.75447 0.0322643 0)
(2.75815 0.0357295 0)
(2.76542 0.040963 0)
(2.77343 0.0448961 0)
(2.77793 0.0462054 0)
(2.78357 0.0471027 0)
(2.78811 0.0474958 0)
(2.79141 0.0471147 0)
(2.79179 0.0442306 0)
(2.78692 0.0356936 0)
(2.77945 0.024919 0)
(2.77745 0.0204241 0)
(2.77907 0.0201522 0)
(2.78066 0.0209114 0)
(2.78266 0.0223979 0)
(2.78696 0.0251066 0)
(2.79505 0.031563 0)
(2.80694 0.0421699 0)
(2.81529 0.0486041 0)
(2.81739 0.0495632 0)
(2.81842 0.0495765 0)
(2.81972 0.0496691 0)
(2.82098 0.0497016 0)
(2.82195 0.0492443 0)
(2.82159 0.047434 0)
(2.81847 0.0432138 0)
(2.81432 0.0378059 0)
(2.81362 0.0343356 0)
(2.81514 0.0326233 0)
(2.81682 0.0315644 0)
(2.81954 0.0308316 0)
(2.8258 0.0316297 0)
(2.83551 0.0341408 0)
(2.84517 0.0367932 0)
(2.84971 0.0374207 0)
(2.85048 0.0371593 0)
(2.85128 0.0367268 0)
(2.85227 0.0366153 0)
(2.85333 0.036555 0)
(2.85428 0.0362049 0)
(2.85486 0.0354593 0)
(2.85524 0.034214 0)
(2.85555 0.0320847 0)
(2.85598 0.0289575 0)
(2.85671 0.0253622 0)
(2.85786 0.0221451 0)
(2.85924 0.0198731 0)
(2.86081 0.0187603 0)
(2.86247 0.0184527 0)
(2.86424 0.0186155 0)
(2.86702 0.0199994 0)
(2.87157 0.0239034 0)
(2.87716 0.0288893 0)
(2.88177 0.0313852 0)
(2.88461 0.0313756 0)
(2.88631 0.0305415 0)
(2.88758 0.0294178 0)
(2.88849 0.0275903 0)
(2.88851 0.0241795 0)
(2.88752 0.0189949 0)
(2.88711 0.0146901 0)
(2.88758 0.0128255 0)
(2.88799 0.0121618 0)
(2.88845 0.01263 0)
(2.88989 0.0153556 0)
(2.89255 0.019584 0)
(2.89461 0.0220909 0)
(2.8942 0.0221358 0)
(2.8932 0.0218052 0)
(2.89239 0.0211507 0)
(2.89064 0.0193599 0)
(2.88931 0.0156164 0)
(2.88985 0.0134675 0)
(2.89095 0.0126859 0)
(2.89494 0.0120727 0)
(2.90211 0.0139655 0)
(2.90962 0.0170123 0)
(2.91291 0.0179868 0)
(2.91332 0.0178252 0)
(2.91309 0.0172346 0)
(2.9119 0.0162183 0)
(2.90855 0.0136139 0)
(2.90159 0.00829385 0)
(2.89551 0.00526597 0)
(2.89427 0.00514912 0)
(2.89415 0.00568642 0)
(2.89501 0.00775239 0)
(2.89915 0.0126847 0)
(2.90645 0.0185298 0)
(2.91233 0.0200339 0)
(2.91458 0.0182676 0)
(2.9156 0.0154382 0)
(2.91742 0.0129738 0)
(2.91978 0.0116227 0)
(2.92208 0.0115222 0)
(2.92412 0.0127158 0)
(2.9262 0.016154 0)
(2.92898 0.021072 0)
(2.92999 0.0239448 0)
(2.92843 0.0241208 0)
(2.92618 0.0235942 0)
(2.92073 0.0202413 0)
(2.91449 0.013812 0)
(2.91175 0.0107443 0)
(2.91069 0.0099871 0)
(2.90995 0.00913708 0)
(2.90993 0.00864531 0)
(2.91019 0.00822732 0)
(2.91067 0.0078707 0)
(2.91207 0.00798468 0)
(2.91663 0.00955878 0)
(2.92646 0.014474 0)
(2.93718 0.0195798 0)
(2.94062 0.0208998 0)
(2.9402 0.0207727 0)
(2.93925 0.0203778 0)
(2.93631 0.0191213 0)
(2.92981 0.0154174 0)
(2.92243 0.0116704 0)
(2.91996 0.0108373 0)
(2.91828 0.0104528 0)
(2.91686 0.00977602 0)
(2.91778 0.00967843 0)
(2.92404 0.0117455 0)
(2.9351 0.0151495 0)
(2.94279 0.0155608 0)
(2.94393 0.0140206 0)
(2.94341 0.0121544 0)
(2.94299 0.00982352 0)
(2.94235 0.00746482 0)
(2.9415 0.00558642 0)
(2.94085 0.00448087 0)
(2.9414 0.00378381 0)
(2.94507 0.00296958 0)
(2.95131 0.00148032 0)
(2.95446 -0.000618415 0)
(2.95425 -0.00242895 0)
(2.95307 -0.00380509 0)
(2.95164 -0.00471413 0)
(2.94824 -0.00690398 0)
(2.94408 -0.0096686 0)
(2.94231 -0.0106341 0)
(2.94168 -0.010769 0)
(2.94097 -0.0109482 0)
(2.94248 -0.0111108 0)
(2.95112 -0.0108092 0)
(2.96875 -0.0100366 0)
(2.98533 -0.0103794 0)
(2.99011 -0.0115437 0)
(2.9894 -0.0123948 0)
(2.98801 -0.013215 0)
(2.98535 -0.014817 0)
(2.9812 -0.0183817 0)
(2.97928 -0.0203908 0)
(2.97823 -0.0214 0)
(2.97745 -0.0235881 0)
(2.97747 -0.0265513 0)
(2.97833 -0.0299082 0)
(2.9807 -0.0328245 0)
(2.98571 -0.0332665 0)
(2.99359 -0.0296337 0)
(3.00011 -0.0263244 0)
(3.00028 -0.0276675 0)
(2.99827 -0.0302352 0)
(2.99644 -0.0329742 0)
(2.99521 -0.0355374 0)
(2.99591 -0.0367218 0)
(2.99985 -0.0348839 0)
(3.00388 -0.0316456 0)
(3.00333 -0.0302692 0)
(2.99967 -0.0307801 0)
(2.99572 -0.0320642 0)
(2.99276 -0.0337104 0)
(2.99103 -0.0351676 0)
(2.99074 -0.0353379 0)
(2.99198 -0.0337469 0)
(2.99354 -0.0320165 0)
(2.99351 -0.0323041 0)
(2.99282 -0.0350252 0)
(2.99534 -0.0399298 0)
(2.99762 -0.0438643 0)
(2.99326 -0.0441536 0)
(2.98935 -0.0436349 0)
(2.9861 -0.0423816 0)
(2.98419 -0.0414615 0)
(2.98312 -0.0409582 0)
(2.98363 -0.0404089 0)
(2.98843 -0.0389951 0)
(2.99887 -0.0361132 0)
(3.00555 -0.0337296 0)
(3.00405 -0.0332763 0)
(3.00087 -0.0332592 0)
(2.99691 -0.0331096 0)
(2.99178 -0.0328049 0)
(2.98432 -0.0342803 0)
(2.98091 -0.0358016 0)
(2.97732 -0.0377452 0)
(2.97468 -0.0402223 0)
(2.97365 -0.0410073 0)
(2.97271 -0.0415097 0)
(2.97139 -0.0424275 0)
(2.97035 -0.0442474 0)
(2.9712 -0.0454573 0)
(2.97649 -0.0478812 0)
(2.98872 -0.0510131 0)
(2.99463 -0.0518767 0)
(2.98724 -0.0510881 0)
(2.98174 -0.0493828 0)
(2.97742 -0.0474792 0)
(2.97416 -0.0458163 0)
(2.97534 -0.0433562 0)
(2.98133 -0.0421343 0)
(2.98184 -0.0451876 0)
(2.97792 -0.0487383 0)
(2.97457 -0.0512432 0)
(2.97232 -0.0525788 0)
(2.96714 -0.0545255 0)
(2.959 -0.0573825 0)
(2.95563 -0.0578802 0)
(2.95628 -0.0569153 0)
(2.95516 -0.0565204 0)
(2.67474 0.016742 0)
(2.68017 0.02122 0)
(2.68341 0.0235327 0)
(2.68438 0.0234433 0)
(2.68284 0.0200648 0)
(2.67569 0.0124119 0)
(2.66538 0.00243673 0)
(2.65808 -0.00716965 0)
(2.657 -0.0106734 0)
(2.65928 -0.0113347 0)
(2.66321 -0.0109974 0)
(2.66758 -0.00956449 0)
(2.67289 -0.00592253 0)
(2.67981 -0.000662293 0)
(2.68662 0.00548278 0)
(2.69244 0.0120608 0)
(2.69864 0.0195886 0)
(2.70416 0.0285451 0)
(2.70724 0.035048 0)
(2.70869 0.0380268 0)
(2.70947 0.0385217 0)
(2.70647 0.0335523 0)
(2.69969 0.0237974 0)
(2.6951 0.0139202 0)
(2.69554 0.00767543 0)
(2.69929 0.00419496 0)
(2.7041 0.0026405 0)
(2.70797 0.000624983 0)
(2.71201 -0.000459695 0)
(2.71745 -0.000377585 0)
(2.72483 0.00215114 0)
(2.73421 0.0083743 0)
(2.74262 0.0156922 0)
(2.75033 0.0240015 0)
(2.75699 0.0319557 0)
(2.76022 0.0375232 0)
(2.76025 0.0409244 0)
(2.76099 0.0433503 0)
(2.76316 0.046012 0)
(2.76702 0.0470946 0)
(2.77196 0.0454671 0)
(2.77701 0.0433416 0)
(2.78202 0.0423514 0)
(2.78609 0.0418002 0)
(2.7872 0.0393325 0)
(2.78283 0.0315572 0)
(2.77603 0.0223782 0)
(2.77566 0.0193317 0)
(2.77788 0.0193717 0)
(2.78018 0.0198285 0)
(2.78244 0.0207512 0)
(2.78648 0.0228625 0)
(2.79416 0.029459 0)
(2.80586 0.0412574 0)
(2.81495 0.0489007 0)
(2.81721 0.0499571 0)
(2.81826 0.0499291 0)
(2.81948 0.0499608 0)
(2.82069 0.0498699 0)
(2.82156 0.049106 0)
(2.82114 0.0466447 0)
(2.81822 0.0415482 0)
(2.81384 0.0353868 0)
(2.81227 0.0318416 0)
(2.81355 0.0308257 0)
(2.815 0.0305355 0)
(2.81663 0.0303647 0)
(2.82121 0.0314904 0)
(2.82965 0.0344727 0)
(2.84039 0.0387657 0)
(2.84711 0.0404529 0)
(2.84908 0.0396113 0)
(2.84979 0.0385147 0)
(2.85071 0.0376972 0)
(2.85188 0.0370134 0)
(2.85292 0.0362293 0)
(2.85363 0.0353958 0)
(2.8541 0.0342357 0)
(2.85395 0.0319359 0)
(2.85338 0.0281281 0)
(2.85345 0.0241209 0)
(2.85435 0.0213745 0)
(2.85585 0.0196446 0)
(2.85823 0.0186554 0)
(2.86068 0.0187857 0)
(2.86318 0.0196948 0)
(2.86656 0.0220099 0)
(2.87148 0.0265892 0)
(2.87654 0.0306649 0)
(2.87981 0.031735 0)
(2.88197 0.0315401 0)
(2.88389 0.0309801 0)
(2.88548 0.0300382 0)
(2.8867 0.0281728 0)
(2.88689 0.0246787 0)
(2.88567 0.0196451 0)
(2.88516 0.016102 0)
(2.88574 0.014813 0)
(2.88694 0.0138853 0)
(2.88862 0.0142474 0)
(2.89117 0.0168003 0)
(2.89401 0.0200896 0)
(2.89551 0.0217483 0)
(2.89531 0.0219727 0)
(2.89462 0.0216545 0)
(2.89399 0.020873 0)
(2.89234 0.0193123 0)
(2.8901 0.0164316 0)
(2.88932 0.0143626 0)
(2.88976 0.0137001 0)
(2.89182 0.0131158 0)
(2.89783 0.0141049 0)
(2.90679 0.0162343 0)
(2.91229 0.0167048 0)
(2.91387 0.0162913 0)
(2.91409 0.0158145 0)
(2.91382 0.014749 0)
(2.91177 0.012262 0)
(2.906 0.00767718 0)
(2.8994 0.00478261 0)
(2.89726 0.00484534 0)
(2.89705 0.00558786 0)
(2.89745 0.0079472 0)
(2.90033 0.0127978 0)
(2.9058 0.0181021 0)
(2.91015 0.019597 0)
(2.91139 0.0183127 0)
(2.91206 0.0154778 0)
(2.91385 0.0128387 0)
(2.91698 0.0113991 0)
(2.92179 0.0118621 0)
(2.92693 0.014793 0)
(2.93129 0.0196524 0)
(2.93418 0.0238661 0)
(2.93462 0.0254162 0)
(2.93344 0.0254323 0)
(2.93144 0.0250804 0)
(2.92625 0.022145 0)
(2.91865 0.0156009 0)
(2.91462 0.0123042 0)
(2.91323 0.0114137 0)
(2.91182 0.010085 0)
(2.91112 0.00919066 0)
(2.91098 0.00881331 0)
(2.91125 0.00874168 0)
(2.91221 0.00898863 0)
(2.91561 0.0103219 0)
(2.92378 0.0144035 0)
(2.93547 0.0194356 0)
(2.94224 0.0206925 0)
(2.94339 0.0194912 0)
(2.94274 0.0184322 0)
(2.94123 0.0172248 0)
(2.93662 0.0142945 0)
(2.92961 0.010949 0)
(2.92582 0.0104949 0)
(2.92475 0.0107125 0)
(2.92336 0.0107889 0)
(2.92309 0.0107077 0)
(2.92662 0.0118583 0)
(2.93527 0.0151318 0)
(2.94411 0.0166836 0)
(2.9483 0.0155419 0)
(2.94934 0.0137725 0)
(2.94919 0.0118978 0)
(2.94881 0.00969228 0)
(2.94809 0.00701503 0)
(2.94728 0.00451714 0)
(2.94703 0.00286064 0)
(2.94833 0.00200735 0)
(2.95284 0.00173691 0)
(2.95899 0.00119194 0)
(2.96064 -0.000408969 0)
(2.95974 -0.00227353 0)
(2.95855 -0.00494303 0)
(2.95668 -0.0076505 0)
(2.95322 -0.0114484 0)
(2.95124 -0.0138944 0)
(2.95057 -0.0141882 0)
(2.94978 -0.0143633 0)
(2.94956 -0.0143491 0)
(2.95202 -0.013642 0)
(2.96184 -0.0115933 0)
(2.98027 -0.00978445 0)
(2.99567 -0.0105198 0)
(2.99952 -0.0121129 0)
(2.99863 -0.013132 0)
(2.99717 -0.0141365 0)
(2.99321 -0.0171617 0)
(2.98823 -0.0217543 0)
(2.98664 -0.0233342 0)
(2.98541 -0.0247219 0)
(2.98464 -0.0272213 0)
(2.98468 -0.0300626 0)
(2.986 -0.0327142 0)
(2.99001 -0.0339628 0)
(2.99727 -0.0319828 0)
(3.0038 -0.0283138 0)
(3.00456 -0.0277146 0)
(3.00196 -0.0296582 0)
(2.9996 -0.0321522 0)
(2.99806 -0.0348358 0)
(2.99765 -0.0363816 0)
(2.99914 -0.0360863 0)
(3.00336 -0.0345427 0)
(3.00789 -0.0328338 0)
(3.00821 -0.0323888 0)
(3.00525 -0.0330391 0)
(3.00146 -0.0341229 0)
(2.99774 -0.0356517 0)
(2.99491 -0.037244 0)
(2.99379 -0.0374978 0)
(2.99462 -0.0350629 0)
(2.99611 -0.0313379 0)
(2.9963 -0.0292538 0)
(2.99532 -0.0304387 0)
(2.99647 -0.0353373 0)
(3.00013 -0.0416994 0)
(2.99711 -0.0436531 0)
(2.99278 -0.0435014 0)
(2.98958 -0.0431045 0)
(2.98741 -0.0428272 0)
(2.98594 -0.0426672 0)
(2.9859 -0.0421945 0)
(2.99014 -0.0406455 0)
(3.00034 -0.0374119 0)
(3.00763 -0.0343976 0)
(3.00724 -0.0334176 0)
(3.00529 -0.0331486 0)
(3.00268 -0.0327624 0)
(2.99943 -0.0326183 0)
(2.99305 -0.0334865 0)
(2.98638 -0.0351165 0)
(2.98389 -0.036512 0)
(2.98074 -0.0402219 0)
(2.97831 -0.0431034 0)
(2.97656 -0.0439003 0)
(2.97532 -0.044862 0)
(2.97417 -0.0459814 0)
(2.97521 -0.0466192 0)
(2.98147 -0.0463405 0)
(2.99332 -0.0456459 0)
(3.00128 -0.0467196 0)
(2.99822 -0.0454304 0)
(2.99214 -0.0434012 0)
(2.98711 -0.0416104 0)
(2.98397 -0.0402042 0)
(2.98527 -0.0396388 0)
(2.9897 -0.0414255 0)
(2.98855 -0.0457896 0)
(2.98387 -0.0504026 0)
(2.97921 -0.0554037 0)
(2.97515 -0.0591343 0)
(2.96825 -0.0627682 0)
(2.96094 -0.0643777 0)
(2.95758 -0.0631167 0)
(2.95843 -0.0604498 0)
(2.95727 -0.0584266 0)
(2.6856 0.0249708 0)
(2.68799 0.0258484 0)
(2.68951 0.0248756 0)
(2.68791 0.0207043 0)
(2.68105 0.0133464 0)
(2.66977 0.00260916 0)
(2.66111 -0.00779733 0)
(2.65971 -0.0117676 0)
(2.66151 -0.0123258 0)
(2.66453 -0.0120666 0)
(2.66818 -0.0111501 0)
(2.67259 -0.00884334 0)
(2.67827 -0.00479788 0)
(2.68461 0.00212783 0)
(2.69223 0.0121579 0)
(2.70046 0.0244428 0)
(2.70705 0.0356876 0)
(2.70996 0.0422688 0)
(2.71242 0.0450551 0)
(2.71222 0.0437722 0)
(2.70568 0.0349968 0)
(2.69603 0.0223077 0)
(2.68956 0.00985267 0)
(2.68917 0.00276157 0)
(2.69221 -0.00101152 0)
(2.69644 -0.00338658 0)
(2.70042 -0.00417406 0)
(2.70333 -0.00414062 0)
(2.70786 -0.00380742 0)
(2.71336 -0.00328178 0)
(2.72018 -0.00163314 0)
(2.72909 0.00379857 0)
(2.73865 0.0126886 0)
(2.74969 0.0249003 0)
(2.75957 0.0382979 0)
(2.76556 0.0476269 0)
(2.76753 0.0513192 0)
(2.76642 0.0510403 0)
(2.76531 0.0475697 0)
(2.76685 0.0436856 0)
(2.77012 0.0409108 0)
(2.77389 0.0385592 0)
(2.77751 0.0358718 0)
(2.78027 0.032661 0)
(2.77917 0.0279642 0)
(2.77451 0.0223299 0)
(2.7739 0.0189264 0)
(2.77634 0.0184849 0)
(2.77902 0.0188804 0)
(2.78176 0.0200837 0)
(2.78569 0.0222418 0)
(2.7932 0.0284021 0)
(2.8048 0.0398151 0)
(2.8145 0.0480361 0)
(2.81688 0.0496061 0)
(2.81831 0.0499105 0)
(2.81956 0.0498534 0)
(2.82056 0.0493847 0)
(2.82104 0.0481217 0)
(2.81993 0.0448782 0)
(2.81613 0.038403 0)
(2.8118 0.0316837 0)
(2.81119 0.0292666 0)
(2.81279 0.0293097 0)
(2.81426 0.0296913 0)
(2.81582 0.03019 0)
(2.81934 0.0312833 0)
(2.82603 0.0337227 0)
(2.83657 0.0382483 0)
(2.84523 0.0411052 0)
(2.84822 0.0406627 0)
(2.84888 0.0396461 0)
(2.84963 0.0387672 0)
(2.85081 0.0379292 0)
(2.85189 0.0371026 0)
(2.85266 0.0362871 0)
(2.8533 0.03491 0)
(2.85312 0.0321492 0)
(2.85189 0.0276057 0)
(2.85126 0.0232092 0)
(2.85178 0.0209476 0)
(2.85317 0.0195762 0)
(2.85581 0.0188959 0)
(2.85918 0.0195943 0)
(2.86272 0.0211619 0)
(2.86694 0.0242502 0)
(2.87205 0.0287989 0)
(2.87625 0.0317808 0)
(2.87795 0.0322945 0)
(2.87995 0.032218 0)
(2.8818 0.0315371 0)
(2.88331 0.0302226 0)
(2.88432 0.0281945 0)
(2.88448 0.0249148 0)
(2.88392 0.0209219 0)
(2.88403 0.0181878 0)
(2.88464 0.0168032 0)
(2.88595 0.0155396 0)
(2.88824 0.0154004 0)
(2.89165 0.0173009 0)
(2.89479 0.0195929 0)
(2.89597 0.0207449 0)
(2.89587 0.0211333 0)
(2.89558 0.0210066 0)
(2.89499 0.0204137 0)
(2.89379 0.0190507 0)
(2.89218 0.0169505 0)
(2.89096 0.0154531 0)
(2.89072 0.0150383 0)
(2.89134 0.0147455 0)
(2.89459 0.0149039 0)
(2.90171 0.0157618 0)
(2.90937 0.0161963 0)
(2.91326 0.0158872 0)
(2.91416 0.0152865 0)
(2.91464 0.013934 0)
(2.9138 0.0112216 0)
(2.90994 0.00688036 0)
(2.90434 0.00386409 0)
(2.90196 0.00376088 0)
(2.90168 0.00489269 0)
(2.90185 0.00844221 0)
(2.90354 0.0136995 0)
(2.90685 0.017858 0)
(2.90906 0.0186717 0)
(2.90939 0.0179695 0)
(2.9093 0.0147056 0)
(2.91041 0.0119563 0)
(2.91303 0.0105296 0)
(2.91889 0.0109569 0)
(2.92745 0.0152942 0)
(2.93531 0.0222546 0)
(2.93899 0.0266582 0)
(2.93936 0.0274667 0)
(2.93858 0.0270025 0)
(2.93652 0.0259078 0)
(2.93227 0.0233107 0)
(2.92474 0.0181199 0)
(2.91883 0.014399 0)
(2.91708 0.0135982 0)
(2.91502 0.0122898 0)
(2.91363 0.011154 0)
(2.91294 0.0101681 0)
(2.91287 0.00930732 0)
(2.91353 0.00895448 0)
(2.91598 0.00966633 0)
(2.92238 0.0127976 0)
(2.93334 0.0183642 0)
(2.94263 0.0217169 0)
(2.94539 0.0213322 0)
(2.94501 0.0201543 0)
(2.94391 0.0185029 0)
(2.94068 0.0151467 0)
(2.93559 0.0106154 0)
(2.9316 0.00906141 0)
(2.93083 0.00914791 0)
(2.93002 0.009673 0)
(2.92966 0.0106158 0)
(2.9315 0.012563 0)
(2.93731 0.015876 0)
(2.945 0.0173524 0)
(2.94964 0.0159404 0)
(2.95154 0.0135316 0)
(2.95273 0.0110167 0)
(2.95402 0.00928152 0)
(2.95495 0.00779047 0)
(2.95534 0.00603639 0)
(2.95534 0.00419846 0)
(2.95566 0.0028615 0)
(2.95768 0.00263389 0)
(2.96221 0.00263569 0)
(2.96565 0.000727392 0)
(2.96513 -0.00172851 0)
(2.96377 -0.00332167 0)
(2.96134 -0.00659753 0)
(2.96008 -0.0115295 0)
(2.95998 -0.0145352 0)
(2.95897 -0.0162903 0)
(2.95816 -0.0173793 0)
(2.95784 -0.0180053 0)
(2.95864 -0.0178709 0)
(2.96308 -0.0158981 0)
(2.97473 -0.0115738 0)
(2.99199 -0.00822446 0)
(3.00371 -0.00916549 0)
(3.006 -0.0115875 0)
(3.00516 -0.0130897 0)
(3.00302 -0.0154857 0)
(2.9983 -0.0204087 0)
(2.99459 -0.0244508 0)
(2.99364 -0.0255317 0)
(2.99251 -0.0280321 0)
(2.99201 -0.0308157 0)
(2.99254 -0.0330744 0)
(2.99559 -0.0340713 0)
(3.00284 -0.0322115 0)
(3.0105 -0.0287039 0)
(3.01139 -0.0277809 0)
(3.0078 -0.0291168 0)
(3.00409 -0.0309941 0)
(3.00142 -0.0332639 0)
(3.00026 -0.0352467 0)
(3.0004 -0.0361232 0)
(3.00182 -0.0360707 0)
(3.00487 -0.0361032 0)
(3.00868 -0.0366956 0)
(3.01078 -0.0373222 0)
(3.00993 -0.0369759 0)
(3.00718 -0.0362978 0)
(3.00366 -0.0357065 0)
(3.00037 -0.0351441 0)
(2.9982 -0.0343107 0)
(2.99737 -0.0327158 0)
(2.99723 -0.0303242 0)
(2.99714 -0.0282846 0)
(2.9971 -0.0279512 0)
(2.99901 -0.0306792 0)
(3.00387 -0.0373036 0)
(3.00223 -0.0424541 0)
(2.99689 -0.0435069 0)
(2.99307 -0.0440438 0)
(2.99036 -0.0443372 0)
(2.98846 -0.044445 0)
(2.9882 -0.0441087 0)
(2.99249 -0.04252 0)
(3.00255 -0.0390862 0)
(3.00883 -0.036054 0)
(3.00824 -0.0351111 0)
(3.00675 -0.0347506 0)
(3.0052 -0.0340291 0)
(3.00276 -0.0336429 0)
(2.9986 -0.0342142 0)
(2.99269 -0.0361781 0)
(2.988 -0.0393831 0)
(2.98661 -0.0410801 0)
(2.98454 -0.0425197 0)
(2.98211 -0.0441348 0)
(2.97968 -0.0458667 0)
(2.97844 -0.0470977 0)
(2.98058 -0.0464815 0)
(2.98822 -0.0438581 0)
(2.99978 -0.0399086 0)
(3.00745 -0.0376162 0)
(3.00658 -0.0395568 0)
(3.00051 -0.0407248 0)
(2.99505 -0.0403691 0)
(2.99143 -0.0401439 0)
(2.9916 -0.0407909 0)
(2.99579 -0.043334 0)
(2.99451 -0.0471106 0)
(2.9903 -0.050844 0)
(2.98548 -0.0569927 0)
(2.97957 -0.0631642 0)
(2.97131 -0.0680698 0)
(2.96539 -0.0685327 0)
(2.96231 -0.0659947 0)
(2.96181 -0.0635722 0)
(2.96034 -0.0605027 0)
(2.69146 0.0267728 0)
(2.69384 0.0257991 0)
(2.69249 0.0218212 0)
(2.68612 0.0146643 0)
(2.67526 0.00361257 0)
(2.66599 -0.00659854 0)
(2.66414 -0.0101463 0)
(2.66553 -0.010541 0)
(2.66742 -0.0105763 0)
(2.67051 -0.010083 0)
(2.67457 -0.00813902 0)
(2.6796 -0.00422212 0)
(2.68614 0.00269229 0)
(2.69439 0.0140149 0)
(2.7035 0.028471 0)
(2.71 0.0402392 0)
(2.71322 0.0462167 0)
(2.71672 0.0486098 0)
(2.71547 0.0461088 0)
(2.70729 0.0361279 0)
(2.69634 0.0222382 0)
(2.68708 0.00711757 0)
(2.68564 -0.000772744 0)