/*--------------------------------*- C++ -*----------------------------------*\
  =========                 |
  \\      /  F ield         | OpenFOAM: The Open Source CFD Toolbox
   \\    /   O peration     | Website:  https://openfoam.org
    \\  /    A nd           | Version:  7
     \\/     M anipulation  |
\*---------------------------------------------------------------------------*/
FoamFile
{
    version     2.0;
    format      ascii;
    class       volScalarField;
    location    "0.2";
    object      rho;
}
// * * * * * * * * * * * * * * * * * * * * * * * * * * * * * * * * * * * * * //

dimensions      [1 -3 0 0 0 0 0];

internalField   nonuniform List<scalar> 
16192
(
1.40001
1.40001
1.40001
1.40001
1.40001
1.40001
1.40001
1.40001
1.40001
1.40001
1.40001
1.40001
1.40001
1.40001
1.40001
1.40001
1.40001
1.40001
1.40001
1.40001
1.40001
1.40001
1.40001
1.40001
1.40001
1.40001
1.40001
1.40001
1.40001
1.40001
1.40001
1.40001
1.40001
1.40001
1.40001
1.40001
1.40001
1.40001
1.40001
1.40001
1.40001
1.40001
1.40001
1.40001
1.40001
1.40001
1.40001
1.40001
1.40001
1.40001
1.40001
1.40001
1.40001
1.40001
1.40001
1.40001
1.40001
1.40001
1.40001
1.40001
1.40001
1.40001
1.40001
1.40001
1.40001
1.40001
1.40001
1.40001
1.40001
1.40001
1.40001
1.40001
1.40001
1.40001
1.40001
1.40001
1.40001
1.40001
1.40001
1.40001
1.40001
1.40001
1.40001
1.40001
1.40001
1.40001
1.40001
1.40001
1.40001
1.40001
1.40001
1.40001
1.40001
1.40001
1.40001
1.40001
1.40001
1.40001
1.40001
1.40001
1.40001
1.40001
1.40001
1.40001
1.40001
1.40001
1.40001
1.40001
1.40001
1.40001
1.40001
1.40001
1.40001
1.40001
1.40001
1.40001
1.40001
1.40001
1.40001
1.40001
1.40001
1.40001
1.40001
1.40001
1.40001
1.40001
1.40001
1.40001
1.40001
1.40001
1.40001
1.40001
1.40001
1.40001
1.40001
1.40001
1.40001
1.40001
1.40001
1.40001
1.40001
1.40001
1.40001
1.40001
1.40001
1.40001
1.40001
1.40001
1.40001
1.40001
1.40001
1.40001
1.40001
1.40001
1.40001
1.40001
1.40001
1.40001
1.40001
1.40001
1.40001
1.40001
1.40001
1.40001
1.40001
1.40001
1.40001
1.40001
1.40001
1.40001
1.40001
1.40001
1.40001
1.40001
1.40001
1.40001
1.40001
1.40001
1.40001
1.40001
1.40001
1.40001
1.40001
1.40001
1.40001
1.40001
1.40001
1.40001
1.40001
1.40001
1.40001
1.40001
1.40001
1.40001
1.40001
1.40001
1.40001
1.40001
1.40001
1.40001
1.40001
1.40001
1.40001
1.40001
1.40001
1.40001
1.40001
1.40001
1.40001
1.40001
1.40001
1.40001
1.40001
1.40001
1.40001
1.40001
1.40001
1.40001
1.40001
1.40001
1.40001
1.40001
1.40001
1.40001
1.40001
1.40001
1.40001
1.40001
1.40001
1.40001
1.40001
1.40001
1.40001
1.40001
1.40001
1.40001
1.40001
1.40001
1.40001
1.40001
1.40001
1.40001
1.40001
1.40001
1.40001
1.40001
1.40001
1.40001
1.40001
1.40001
1.40001
1.40001
1.40001
1.40001
1.40001
1.40001
1.40001
1.40001
1.40001
1.40001
1.40001
1.40001
1.40001
1.40001
1.40001
1.40001
1.40001
1.40001
1.40001
1.40001
1.40001
1.40001
1.40001
1.40001
1.40001
1.40001
1.40001
1.40001
1.40001
1.40001
1.40001
1.40001
1.40001
1.40001
1.40001
1.40001
1.40001
1.40001
1.40001
1.40001
1.40001
1.40001
1.40001
1.40001
1.40001
1.40001
1.40001
1.40001
1.40001
1.40001
1.40001
1.40001
1.40001
1.40001
1.40001
1.40001
1.40001
1.40001
1.40001
1.40001
1.40001
1.40001
1.40001
1.40001
1.40001
1.40001
1.40001
1.40001
1.40001
1.40001
1.40001
1.40001
1.40001
1.40001
1.40001
1.40001
1.40001
1.40001
1.40001
1.40001
1.40001
1.40001
1.40001
1.40001
1.40001
1.40001
1.40001
1.40001
1.40001
1.40001
1.40001
1.40001
1.40001
1.40001
1.40001
1.40001
1.40001
1.40001
1.40001
1.40001
1.40001
1.40001
1.40001
1.40001
1.40001
1.40001
1.40001
1.40001
1.40001
1.40001
1.40001
1.40001
1.40001
1.40001
1.40001
1.40001
1.40001
1.40001
1.40001
1.40001
1.40001
1.40001
1.40001
1.40001
1.40001
1.40001
1.40001
1.40001
1.40001
1.40001
1.40001
1.40001
1.40001
1.40001
1.40001
1.40001
1.40001
1.40001
1.40001
1.40001
1.40001
1.40001
1.40001
1.40001
1.40001
1.40001
1.40001
1.40001
1.40001
1.40001
1.40001
1.40001
1.40001
1.40001
1.40001
1.40001
1.40001
1.40001
1.40001
1.40001
1.40001
1.40001
1.40001
1.40001
1.40001
1.40001
1.40001
1.40001
1.40001
1.40001
1.40001
1.40001
1.40001
1.40001
1.40001
1.40001
1.40001
1.40001
1.40001
1.40001
1.40001
1.40001
1.40001
1.40001
1.40001
1.40001
1.40001
1.40001
1.40001
1.40001
1.40001
1.40001
1.40001
1.40001
1.40001
1.40001
1.40001
1.40001
1.40001
1.40001
1.40001
1.40001
1.40001
1.40001
1.40001
1.40001
1.40001
1.40001
1.40001
1.40001
1.40001
1.40001
1.40001
1.40001
1.40001
1.40001
1.40001
1.40001
1.40001
1.40001
1.40001
1.40001
1.40001
1.40001
1.40001
1.40001
1.40001
1.40001
1.40001
1.40001
1.40001
1.40001
1.40001
1.40001
1.40001
1.40001
1.40001
1.40001
1.40001
1.40001
1.40001
1.40001
1.40001
1.40001
1.40001
1.40001
1.40001
1.40001
1.40001
1.40001
1.40001
1.40001
1.40001
1.40001
1.40001
1.40001
1.40001
1.40001
1.40001
1.40001
1.40001
1.40001
1.40001
1.40001
1.40001
1.40001
1.40001
1.40001
1.40001
1.40001
1.40001
1.40001
1.40001
1.40001
1.40001
1.40001
1.40001
1.40001
1.40001
1.40001
1.40001
1.40001
1.40001
1.40001
1.40001
1.40001
1.40001
1.40001
1.40001
1.40001
1.40001
1.40001
1.40001
1.40001
1.40001
1.40001
1.40001
1.40001
1.40001
1.40001
1.40001
1.40001
1.40001
1.40001
1.40001
1.40001
1.40001
1.40001
1.40001
1.40001
1.40001
1.40001
1.40001
1.40001
1.40001
1.40001
1.40001
1.40001
1.40001
1.40001
1.40001
1.40001
1.40001
1.40001
1.40001
1.40001
1.40001
1.40001
1.40001
1.40001
1.40001
1.40001
1.40001
1.40001
1.40001
1.40001
1.40001
1.40001
1.40001
1.40001
1.40001
1.40001
1.40001
1.40001
1.40001
1.40001
1.40001
1.40001
1.40001
1.40001
1.40001
1.40001
1.40001
1.40001
1.40001
1.40001
1.40001
1.40001
1.40001
1.40001
1.40001
1.40001
1.40001
1.40001
1.40001
1.40001
1.40001
1.40001
1.40001
1.40001
1.40001
1.40001
1.40001
1.40001
1.40001
1.40001
1.40001
1.40001
1.40001
1.40001
1.40001
1.40001
1.40001
1.40001
1.40001
1.40001
1.40001
1.40001
1.40001
1.40001
1.40001
1.40001
1.40001
1.40001
1.40001
1.40001
1.40001
1.40001
1.40001
1.40001
1.40001
1.40001
1.40001
1.40001
1.40001
1.40001
1.40001
1.40001
1.40001
1.40001
1.40001
1.40001
1.40001
1.40001
1.40001
1.40001
1.40001
1.40001
1.40001
1.40001
1.40001
1.40001
1.40001
1.40001
1.40001
1.40001
1.40001
1.40001
1.40001
1.40001
1.40001
1.40001
1.40001
1.40001
1.40001
1.40001
1.40001
1.40001
1.40001
1.40001
1.40001
1.40001
1.40001
1.40001
1.40001
1.40001
1.40001
1.40001
1.40001
1.40001
1.40001
1.40001
1.40001
1.40001
1.40001
1.40001
1.40001
1.40001
1.40001
1.40001
1.40001
1.40001
1.40001
1.40001
1.40001
1.40001
1.40001
1.40001
1.40001
1.40001
1.40001
1.40001
1.40001
1.40001
1.40001
1.40001
1.40001
1.40001
1.40001
1.40001
1.40001
1.40001
1.40001
1.40001
1.40001
1.40001
1.40001
1.40001
1.40001
1.40001
1.40001
1.40001
1.40001
1.40001
1.40001
1.40001
1.40001
1.40001
1.40001
1.40001
1.40001
1.40001
1.40001
1.40001
1.40001
1.40001
1.40001
1.40001
1.40001
1.40001
1.40001
1.40001
1.40001
1.40001
1.40001
1.40001
1.40001
1.40001
1.40001
1.40001
1.40001
1.40001
1.40001
1.40001
1.40001
1.40001
1.40001
1.40001
1.40001
1.40001
1.40001
1.40001
1.40001
1.40001
1.40001
1.40001
1.40001
1.40001
1.40001
1.40001
1.40001
1.40001
1.40001
1.40001
1.40001
1.40001
1.40001
1.40001
1.40001
1.40001
1.40001
1.40001
1.40001
1.40001
1.40001
1.40001
1.40001
1.40001
1.40001
1.40001
1.40001
1.40001
1.40001
1.40001
1.40001
1.40001
1.40001
1.40001
1.40001
1.40001
1.40001
1.40001
1.40001
1.40001
1.40001
1.40001
1.40001
1.40001
1.40001
1.40001
1.40001
1.40001
1.40001
1.40001
1.40001
1.40001
1.40001
1.40001
1.40001
1.40001
1.40001
1.40001
1.40001
1.40001
1.40001
1.40001
1.40001
1.40001
1.40001
1.40001
1.40001
1.40001
1.40001
1.40001
1.40001
1.40001
1.40001
1.40001
1.40001
1.40001
1.40001
1.40001
1.40001
1.40001
1.40001
1.40001
1.40001
1.40001
1.40001
1.40001
1.40001
1.40001
1.40001
1.40001
1.40001
1.40001
1.40001
1.40001
1.40001
1.40001
1.40001
1.40001
1.40001
1.40001
1.40001
1.40001
1.40001
1.40001
1.40001
1.40001
1.40001
1.40001
1.40001
1.40001
1.40001
1.40001
1.40001
1.40001
1.40001
1.40001
1.40001
1.40001
1.40001
1.40001
1.40001
1.40001
1.40001
1.40001
1.40001
1.40001
1.40001
1.40001
1.40001
1.40001
1.40001
1.40001
1.40001
1.40001
1.40001
1.40001
1.40001
1.40001
1.40001
1.40001
1.40001
1.40001
1.40001
1.40001
1.40001
1.40001
1.40001
1.40001
1.40001
1.40001
1.40001
1.40001
1.40001
1.40001
1.40001
1.40001
1.40001
1.40001
1.40001
1.40001
1.40001
1.40001
1.40001
1.40001
1.40001
1.40001
1.40001
1.40001
1.40001
1.40001
1.40001
1.40001
1.40001
1.40001
1.40001
1.40001
1.40001
1.40001
1.40001
1.40001
1.40001
1.40001
1.40001
1.40001
1.40001
1.40001
1.40001
1.40001
1.40001
1.40001
1.40001
1.40001
1.40001
1.40001
1.40001
1.40001
1.40001
1.40001
1.40001
1.40001
1.40001
1.40001
1.40001
1.40001
1.40001
1.40001
1.40001
1.40001
1.40001
1.40001
1.40001
1.40001
1.40001
1.40001
1.40001
1.40001
1.40001
1.40001
1.40001
1.40001
1.40001
1.40001
1.40001
1.40001
1.40001
1.40001
1.40001
1.40001
1.40001
1.40001
1.40001
1.40001
1.40001
1.40001
1.40001
1.40001
1.40001
1.40001
1.40001
1.40001
1.40001
1.40001
1.40001
1.40001
1.40001
1.40001
1.40001
1.40001
1.40001
1.40001
1.40001
1.40001
1.40001
1.40001
1.40001
1.40001
1.40001
1.40001
1.40001
1.40001
1.40001
1.40001
1.40001
1.40001
1.40001
1.40001
1.40001
1.40001
1.40001
1.40001
1.40001
1.40001
1.40001
1.40001
1.40001
1.40001
1.40001
1.40001
1.40001
1.40001
1.40001
1.40001
1.40001
1.40001
1.40001
1.40001
1.40001
1.40001
1.40001
1.40001
1.40001
1.40001
1.40001
1.40001
1.40001
1.40001
1.40001
1.40001
1.40001
1.40001
1.40001
1.40001
1.40001
1.40001
1.40001
1.40001
1.40001
1.40001
1.40001
1.40001
1.40001
1.40001
1.40001
1.40001
1.40001
1.40001
1.40001
1.40001
1.40001
1.40001
1.40001
1.40001
1.40001
1.40001
1.40001
1.40001
1.40001
1.40001
1.40001
1.40001
1.40001
1.40001
1.40001
1.40001
1.40001
1.40001
1.40001
1.40001
1.40001
1.40001
1.40001
1.40001
1.40001
1.40001
1.40001
1.40001
1.40001
1.40001
1.40001
1.40001
1.40001
1.40001
1.40001
1.40001
1.40001
1.40001
1.40001
1.40001
1.40001
1.40001
1.40001
1.40001
1.40001
1.40001
1.40001
1.40001
1.40001
1.40001
1.40001
1.40001
1.40001
1.40001
1.40001
1.40001
1.40001
1.40001
1.40001
1.40001
1.40001
1.40001
1.40001
1.40001
1.40001
1.40001
1.40001
1.40001
1.40001
1.40001
1.40001
1.40001
1.40001
1.40001
1.40001
1.40001
1.40001
1.40001
1.40001
1.40001
1.40001
1.40001
1.40001
1.40001
1.40001
1.40001
1.40001
1.40001
1.40001
1.40001
1.40001
1.40001
1.40001
1.40001
1.40001
1.40001
1.40001
1.40001
1.40001
1.40001
1.40001
1.40001
1.40001
1.40001
1.40001
1.40001
1.40001
1.40001
1.40001
1.40001
1.40001
1.40001
1.40001
1.40001
1.40001
1.40001
1.40001
1.40001
1.40001
1.40001
1.40001
1.40001
1.40001
1.40001
1.40001
1.40001
1.40001
1.40001
1.40001
1.40001
1.40001
1.40001
1.40001
1.40001
1.40001
1.40001
1.40001
1.40001
1.40001
1.40001
1.40001
1.40001
1.40001
1.40001
1.40001
1.40001
1.40001
1.40001
1.40001
1.40001
1.40001
1.40001
1.40001
1.40001
1.40001
1.40001
1.40001
1.40001
1.40001
1.40001
1.40001
1.40001
1.40001
1.40001
1.40001
1.40001
1.40001
1.40001
1.40001
1.40001
1.40001
1.40001
1.40001
1.40001
1.40001
1.40001
1.40001
1.40001
1.40001
1.40001
1.40001
1.40001
1.40001
1.40001
1.40001
1.40001
1.40001
1.40001
1.40001
1.40001
1.40001
1.40001
1.40001
1.40001
1.40001
1.40001
1.40001
1.40001
1.40001
1.40001
1.40001
1.40001
1.40001
1.40001
1.40001
1.40001
1.40001
1.40001
1.40001
1.40001
1.40001
1.40001
1.40001
1.40001
1.40001
1.40001
1.40001
1.40001
1.40001
1.40001
1.40001
1.40001
1.40001
1.40001
1.40001
1.40001
1.40001
1.40001
1.40001
1.40001
1.40001
1.40001
1.47101
1.46725
1.45532
1.45246
1.45447
1.45847
1.46606
1.48208
1.49847
1.50241
1.50338
1.50421
1.50476
1.50375
1.49564
1.48829
1.48874
1.48991
1.49093
1.49271
1.49672
1.50566
1.51962
1.52999
1.53423
1.53704
1.54051
1.54484
1.54798
1.54874
1.54731
1.54453
1.54478
1.54527
1.54574
1.549
1.56239
1.58425
1.59218
1.58977
1.57427
1.52168
1.40001
1.40001
1.40001
1.40001
1.40001
1.40001
1.40051
1.45147
1.98593
3.02668
4.2025
4.47379
4.35057
4.33873
4.30356
4.2533
4.18201
4.11348
4.01759
3.89162
3.81937
3.77775
3.72463
3.67776
3.62186
3.56599
3.53629
3.49411
3.43869
3.34977
3.23111
3.14468
3.06978
3.0009
2.96431
2.91324
2.87003
2.86263
2.85283
2.83392
2.81262
2.79264
2.77737
2.74748
2.68881
2.61633
2.58777
2.58753
2.58758
2.57592
2.54567
2.5067
2.49718
2.49049
2.47219
2.44642
2.41406
2.37295
2.319
2.24929
2.19235
2.17635
2.17246
2.17756
2.17054
2.15376
2.13558
2.10408
2.04781
1.99611
1.98265
1.97714
1.96296
1.94081
1.91368
1.88219
1.84598
1.81305
1.80133
1.80102
1.80634
1.82495
1.85402
1.86557
1.857
1.82938
1.77523
1.70714
1.66947
1.66288
1.66245
1.67996
1.70939
1.71751
1.71506
1.7001
1.67639
1.67225
1.67851
1.70699
1.72687
1.73008
1.72304
1.67059
1.62425
1.61849
1.61729
1.6304
1.6766
1.7074
1.70567
1.69971
1.69345
1.68078
1.64586
1.59394
1.56811
1.56779
1.57825
1.61658
1.65415
1.65865
1.65564
1.64636
1.62369
1.60377
1.59738
1.59257
1.58357
1.56532
1.54675
1.54295
1.54313
1.54882
1.5616
1.56764
1.56784
1.56321
1.55302
1.55048
1.55099
1.56175
1.58213
1.58667
1.58421
1.56163
1.49168
1.42916
1.42184
1.42542
1.44286
1.47204
1.48698
1.4895
1.49013
1.48954
1.48686
1.48396
1.48115
1.47681
1.46661
1.44832
1.43836
1.43746
1.43734
1.43756
1.43962
1.44584
1.45736
1.4683
1.47288
1.47495
1.47655
1.47755
1.47801
1.47703
1.46736
1.44841
1.44169
1.44194
1.44355
1.44902
1.4644
1.48322
1.48824
1.48911
1.49001
1.4908
1.48974
1.47875
1.4669
1.46677
1.46912
1.47376
1.48403
1.50259
1.51353
1.51531
1.51632
1.51721
1.51765
1.51508
1.50497
1.50015
1.50108
1.5025
1.50394
1.50625
1.51154
1.52297
1.53782
1.54707
1.55148
1.55499
1.55845
1.5606
1.56133
1.56042
1.55355
1.54701
1.54589
1.54716
1.55478
1.57436
1.5954
1.59949
1.59505
1.57356
1.50961
1.4282
1.40001
1.40001
1.40001
1.40001
1.40001
1.40001
1.40001
1.40042
1.42676
1.67837
2.66807
3.95223
4.22348
4.34359
4.3903
4.30849
4.22486
4.13913
4.02358
3.96188
3.94061
3.88342
3.82074
3.77192
3.72309
3.68546
3.6494
3.61113
3.53419
3.39826
3.29343
3.22764
3.15984
3.09886
3.04309
2.98353
2.96139
2.96214
2.95381
2.93615
2.91435
2.89303
2.85785
2.79447
2.71342
2.67281
2.67184
2.67011
2.65132
2.61439
2.58225
2.57022
2.55378
2.53286
2.51738
2.49865
2.46345
2.40894
2.33826
2.2807
2.2653
2.25932
2.25967
2.25317
2.23671
2.21008
2.16458
2.11641
2.07954
2.067
2.06152
2.04858
2.02599
1.99361
1.95504
1.91486
1.88285
1.8726
1.87128
1.87232
1.88307
1.90617
1.91904
1.91232
1.88903
1.83756
1.76726
1.72664
1.71989
1.72011
1.74103
1.77242
1.77772
1.77028
1.74602
1.71171
1.69978
1.70032
1.71969
1.75389
1.76469
1.76664
1.74135
1.67708
1.65476
1.65341
1.66071
1.70242
1.75195
1.75723
1.75123
1.74355
1.72803
1.69019
1.63492
1.60075
1.59919
1.60812
1.64158
1.68572
1.69695
1.69466
1.68816
1.67051
1.64546
1.63368
1.62807
1.6194
1.60176
1.58222
1.57714
1.57694
1.58036
1.59175
1.59855
1.59866
1.59475
1.58233
1.57621
1.57625
1.5836
1.60696
1.6197
1.61896
1.60708
1.5527
1.47099
1.44577
1.44721
1.45955
1.48849
1.50704
1.5112
1.51308
1.51335
1.51166
1.50955
1.50747
1.50456
1.4984
1.4836
1.46529
1.4602
1.45982
1.45967
1.46016
1.46399
1.474
1.48638
1.49254
1.49456
1.49597
1.49715
1.49796
1.49818
1.49446
1.47824
1.46176
1.46007
1.46124
1.46491
1.47491
1.49474
1.50851
1.51031
1.51075
1.51123
1.51102
1.50429
1.48742
1.48109
1.48233
1.48546
1.4916
1.50567
1.52292
1.52845
1.52968
1.53068
1.53146
1.53152
1.52683
1.51712
1.51502
1.51621
1.51776
1.51954
1.52258
1.52964
1.54353
1.55776
1.56446
1.56738
1.56916
1.56997
1.57018
1.56798
1.56193
1.55712
1.5563
1.5578
1.56674
1.5887
1.60565
1.60656
1.59893
1.56788
1.49141
1.41758
1.40054
1.40001
1.40001
1.40001
1.40001
1.40001
1.40001
1.40001
1.40001
1.40012
1.40613
1.54229
2.3774
3.4997
4.1064
4.39044
4.37607
4.29661
4.17005
4.06289
4.04155
4.01303
3.95765
3.90951
3.86364
3.82256
3.78955
3.739
3.66303
3.54093
3.43066
3.36835
3.31085
3.24598
3.18358
3.11482
3.07232
3.06684
3.07181
3.05877
3.02787
2.99624
2.96612
2.91388
2.82583
2.75534
2.74248
2.74215
2.73191
2.70076
2.64862
2.61985
2.62076
2.61099
2.58417
2.55905
2.53585
2.49432
2.42909
2.37158
2.3562
2.34982
2.34446
2.33531
2.31919
2.28352
2.22421
2.17546
2.15148
2.14409
2.14257
2.13076
2.10801
2.07274
2.03165
1.98895
1.95467
1.94444
1.94238
1.94153
1.94405
1.95822
1.9701
1.9646
1.94617
1.90182
1.83268
1.78706
1.77989
1.781
1.80637
1.8402
1.843
1.82991
1.79408
1.7497
1.73104
1.72942
1.7398
1.77653
1.79913
1.8035
1.79519
1.7366
1.68944
1.68705
1.69234
1.72413
1.78558
1.80964
1.80526
1.7966
1.78008
1.73906
1.67898
1.63773
1.63297
1.63941
1.66798
1.71456
1.73421
1.73295
1.72819
1.71581
1.69189
1.67243
1.66388
1.65511
1.63869
1.6191
1.61282
1.61224
1.61379
1.62308
1.63052
1.63051
1.62676
1.61355
1.60223
1.60143
1.60608
1.62797
1.65122
1.65332
1.64797
1.61121
1.52445
1.47307
1.47084
1.47643
1.50236
1.53139
1.53637
1.53665
1.5375
1.53641
1.53363
1.53208
1.53033
1.52678
1.51801
1.49975
1.48519
1.48306
1.48279
1.48267
1.4839
1.4908
1.50408
1.51282
1.51511
1.51625
1.51727
1.51807
1.51856
1.51776
1.50848
1.4875
1.47841
1.47884
1.48144
1.48849
1.50495
1.52521
1.53169
1.53209
1.53225
1.53207
1.52829
1.51365
1.49824
1.49714
1.49911
1.50308
1.51196
1.52876
1.54064
1.54315
1.54428
1.5453
1.54603
1.54538
1.5375
1.5292
1.5289
1.52986
1.53119
1.5334
1.53838
1.54972
1.56663
1.57758
1.58086
1.58205
1.58266
1.5821
1.57655
1.56689
1.56094
1.56112
1.56632
1.58164
1.60492
1.61466
1.61275
1.59961
1.55454
1.46783
1.40889
1.40017
1.40001
1.40001
1.40001
1.40001
1.40001
1.40001
1.40001
1.40001
1.40001
1.40001
1.40002
1.402
1.48407
2.00536
2.94139
4.0091
4.30359
4.21179
4.1972
4.16051
4.14909
4.10361
4.05407
3.98443
3.9261
3.89066
3.84369
3.77798
3.6791
3.54908
3.47061
3.43456
3.38555
3.32937
3.26535
3.2013
3.17733
3.1808
3.17267
3.14419
3.1028
3.0672
3.01792
2.93856
2.85464
2.82645
2.81656
2.80494
2.7831
2.73583
2.67729
2.66012
2.66617
2.66328
2.63928
2.60357
2.56929
2.51622
2.45982
2.44198
2.43759
2.43524
2.42436
2.40321
2.35609
2.28835
2.23601
2.21792
2.21362
2.21618
2.20781
2.1885
2.1512
2.10671
2.06866
2.03277
2.01741
2.01359
2.01066
2.00927
2.01421
2.0212
2.01511
2.00007
1.96514
1.90112
1.84988
1.84129
1.84288
1.87268
1.91076
1.91208
1.89368
1.84815
1.79373
1.76761
1.76452
1.77025
1.8043
1.83736
1.84384
1.83997
1.79263
1.72595
1.71488
1.72155
1.74589
1.80479
1.8564
1.85941
1.85208
1.83537
1.79269
1.72826
1.68282
1.67429
1.67567
1.69448
1.73962
1.76891
1.77018
1.76691
1.75834
1.73978
1.71651
1.70131
1.68998
1.67463
1.65718
1.65076
1.64959
1.64968
1.65583
1.6625
1.66256
1.65917
1.64618
1.63022
1.62717
1.62942
1.64691
1.67839
1.68807
1.68603
1.66396
1.58763
1.50919
1.49616
1.49817
1.51534
1.54963
1.56445
1.56471
1.56409
1.56232
1.55813
1.55523
1.55408
1.55239
1.54794
1.53624
1.51679
1.50729
1.50642
1.50617
1.50639
1.5101
1.52144
1.53317
1.53643
1.5372
1.53796
1.53862
1.53911
1.53919
1.53518
1.51823
1.49945
1.49722
1.49859
1.50329
1.51599
1.53829
1.55179
1.55329
1.55339
1.55331
1.55124
1.54152
1.52202
1.51377
1.51457
1.51719
1.52265
1.53524
1.55133
1.55719
1.5585
1.55947
1.56034
1.56082
1.55813
1.54731
1.54257
1.5435
1.54481
1.5466
1.55016
1.55791
1.57144
1.58368
1.58779
1.5888
1.58937
1.58955
1.58698
1.5802
1.5756
1.57631
1.5831
1.60135
1.6201
1.62292
1.61732
1.59433
1.53061
1.44216
1.4034
1.40004
1.40001
1.40001
1.40001
1.40001
1.40001
1.40001
1.40001
1.40001
1.40001
1.40001
1.40001
1.40001
1.40001
1.40088
1.42903
1.6541
2.53391
3.5409
4.1332
4.19999
4.19613
4.18684
4.18486
4.1661
4.09061
4.00049
3.92781
3.8688
3.80411
3.7019
3.58315
3.53423
3.50182
3.45809
3.40225
3.33921
3.30685
3.29042
3.27509
3.25303
3.21295
3.16129
3.11513
3.05648
2.97184
2.91524
2.89394
2.87363
2.85305
2.82297
2.77213
2.71743
2.70293
2.70519
2.70713
2.68563
2.64125
2.59203
2.54825
2.53151
2.52579
2.52259
2.51396
2.49542
2.43936
2.35701
2.29928
2.28325
2.27978
2.28629
2.28116
2.26543
2.23119
2.18301
2.1475
2.1211
2.09587
2.08544
2.08002
2.07548
2.07454
2.07468
2.0669
2.05355
2.02665
1.97
1.91345
1.90161
1.90402
1.93708
1.98172
1.98437
1.96268
1.90903
1.84419
1.81194
1.80715
1.81041
1.84253
1.88191
1.88997
1.88503
1.84397
1.76786
1.73765
1.74443
1.76537
1.81486
1.88493
1.90994
1.90617
1.89282
1.85261
1.78312
1.73164
1.72224
1.7219
1.73163
1.76458
1.79703
1.80431
1.80297
1.79747
1.78518
1.76541
1.74413
1.72581
1.70888
1.69483
1.68993
1.68874
1.68859
1.69192
1.69483
1.69406
1.6913
1.68008
1.6606
1.65413
1.65441
1.6659
1.70005
1.72212
1.7227
1.7122
1.65356
1.55524
1.52167
1.52198
1.53269
1.56603
1.59056
1.59318
1.59287
1.59118
1.58548
1.57829
1.57609
1.57558
1.57406
1.56871
1.55445
1.53626
1.53083
1.53029
1.53001
1.53118
1.53934
1.55341
1.55912
1.55956
1.55994
1.56032
1.56046
1.56033
1.55861
1.54891
1.52661
1.51623
1.51678
1.51987
1.52866
1.54879
1.56927
1.57384
1.57411
1.57422
1.57358
1.56816
1.55145
1.53417
1.53204
1.53318
1.53628
1.54407
1.55956
1.57119
1.57355
1.57444
1.57521
1.57589
1.57592
1.57007
1.5584
1.5566
1.55819
1.56045
1.56379
1.57059
1.58272
1.5936
1.59656
1.59643
1.59521
1.59336
1.59047
1.58691
1.58668
1.59086
1.60377
1.62368
1.63294
1.63105
1.61829
1.57844
1.49552
1.4202
1.4009
1.40001
1.40001
1.40001
1.40001
1.40001
1.40001
1.40001
1.40001
1.40001
1.40001
1.40001
1.40001
1.40001
1.40001
1.40001
1.40001
1.40013
1.40539
1.51138
2.08377
3.12869
3.78227
4.16418
4.25538
4.24139
4.19208
4.1477
4.0714
3.97758
3.89357
3.80078
3.70417
3.64684
3.62144
3.58444
3.53759
3.48205
3.43852
3.40483
3.37216
3.34771
3.31801
3.26869
3.21433
3.16235
3.0949
3.01674
2.98145
2.95738
2.9298
2.89921
2.85878
2.81
2.76636
2.7459
2.74605
2.74547
2.72096
2.66829
2.62641
2.61576
2.61635
2.61416
2.6033
2.58406
2.52627
2.43626
2.37096
2.35273
2.34798
2.35367
2.35289
2.33934
2.30752
2.25989
2.22606
2.20617
2.1868
2.16316
2.14866
2.14217
2.13725
2.13209
2.12235
2.10902
2.08621
2.03675
1.97851
1.96192
1.96428
1.99783
2.04994
2.05708
2.03546
1.97565
1.89985
1.86343
1.85738
1.85989
1.89261
1.93583
1.94349
1.93527
1.8946
1.81429
1.76621
1.76718
1.78246
1.82153
1.8925
1.94736
1.95329
1.94668
1.91576
1.84644
1.78517
1.77201
1.77129
1.77832
1.80359
1.82705
1.83513
1.83613
1.83396
1.82648
1.81326
1.79236
1.76559
1.74397
1.7323
1.72922
1.72854
1.7297
1.73207
1.73151
1.72911
1.72557
1.71442
1.69188
1.68179
1.68116
1.68773
1.71902
1.75366
1.75921
1.75599
1.7168
1.61409
1.55066
1.54684
1.55216
1.58157
1.6162
1.62248
1.62182
1.62064
1.61642
1.60544
1.5979
1.59718
1.59718
1.59563
1.58913
1.57285
1.55773
1.555
1.55454
1.55456
1.55835
1.57118
1.58289
1.58411
1.58383
1.58392
1.58408
1.58383
1.58249
1.57691
1.55903
1.53798
1.53538
1.53722
1.54337
1.5591
1.58304
1.59357
1.59438
1.59469
1.59479
1.59282
1.58227
1.56141
1.55167
1.55155
1.55262
1.55657
1.56758
1.58325
1.58926
1.59025
1.59089
1.59148
1.59185
1.59007
1.57952
1.56948
1.56909
1.57065
1.57352
1.57847
1.58677
1.59505
1.59971
1.60224
1.60325
1.60317
1.60246
1.60235
1.60519
1.61497
1.63181
1.64454
1.64555
1.63689
1.61018
1.54584
1.45525
1.40675
1.40015
1.40001
1.40001
1.40001
1.40001
1.40001
1.40001
1.40001
1.40001
1.40001
1.40001
1.40001
1.40001
1.40001
1.40001
1.40001
1.40001
1.40001
1.40001
1.40002
1.40127
1.44308
1.7374
2.50898
3.43276
4.04622
4.12922
4.17563
4.1904
4.13579
4.03344
3.92431
3.82093
3.76382
3.7431
3.70177
3.65759
3.62378
3.5795
3.53431
3.48808
3.4466
3.40938
3.36892
3.32015
3.27094
3.21612
3.14978
3.084
3.04357
3.01134
2.97662
2.94234
2.90319
2.86368
2.82988
2.79985
2.78553
2.77839
2.75138
2.7087
2.69473
2.69638
2.70054
2.69324
2.67396
2.61802
2.52699
2.45393
2.43237
2.4242
2.42262
2.4211
2.41025
2.38273
2.33639
2.30494
2.28932
2.274
2.25146
2.2212
2.20788
2.20132
2.19368
2.18241
2.16753
2.14474
2.10119
2.04455
2.02272
2.0252
2.05781
2.1144
2.12663
2.10745
2.04516
1.95996
1.91969
1.9131
1.91624
1.95301
1.99839
2.00382
1.99052
1.94708
1.86435
1.80282
1.79584
1.80525
1.8333
1.89315
1.96349
1.98998
1.99008
1.97656
1.91744
1.84548
1.82507
1.82352
1.82632
1.8482
1.86831
1.87114
1.87087
1.87091
1.86877
1.86183
1.84142
1.80655
1.78022
1.77083
1.76927
1.76925
1.772
1.77396
1.7722
1.76955
1.76512
1.75053
1.72298
1.70872
1.70762
1.71176
1.7387
1.7833
1.79722
1.79628
1.77341
1.68232
1.58748
1.5716
1.57411
1.5966
1.63917
1.65383
1.65296
1.65093
1.647
1.6365
1.62344
1.61982
1.61966
1.61943
1.61739
1.60922
1.59144
1.58043
1.57918
1.57877
1.58015
1.58932
1.60363
1.60978
1.60989
1.60954
1.60947
1.60949
1.60925
1.60679
1.59388
1.56615
1.55469
1.55529
1.55922
1.5708
1.59369
1.61169
1.6145
1.61484
1.61511
1.61485
1.61024
1.59398
1.57531
1.57164
1.5717
1.57269
1.57782
1.59163
1.60429
1.60689
1.60756
1.60815
1.60867
1.60875
1.60433
1.59045
1.58317
1.58369
1.58609
1.59012
1.5949
1.59794
1.59901
1.59987
1.60159
1.6046
1.61048
1.6189
1.63092
1.64735
1.66077
1.66353
1.65711
1.63491
1.58445
1.49682
1.42246
1.4014
1.40002
1.40001
1.40001
1.40001
1.40001
1.40001
1.40001
1.40001
1.40001
1.40001
1.40001
1.40001
1.40001
1.40001
1.40001
1.40001
1.40001
1.40001
1.40001
1.40001
1.40001
1.40001
1.4003
1.40897
1.51856
1.96807
2.87327
3.66606
4.09945
4.13038
4.11621
4.09467
4.03298
3.91689
3.84947
3.83225
3.79644
3.73425
3.69508
3.66227
3.61325
3.56213
3.5158
3.46913
3.42
3.37703
3.33125
3.27556
3.20671
3.14492
3.10347
3.06718
3.02953
2.99646
2.96013
2.92126
2.88303
2.8486
2.83825
2.82762
2.7937
2.77533
2.77703
2.77819
2.77224
2.76105
2.71241
2.61953
2.54503
2.52166
2.51243
2.50302
2.4939
2.48062
2.45538
2.41415
2.38553
2.37293
2.36023
2.3411
2.30419
2.27497
2.2664
2.25738
2.24538
2.22957
2.2058
2.16469
2.11194
2.08783
2.08947
2.12027
2.17669
2.19181
2.17473
2.1132
2.02188
1.97811
1.97149
1.97658
2.01991
2.0678
2.07016
2.05091
2.00123
1.91477
1.84541
1.8307
1.83615
1.85583
1.90247
1.97071
2.01398
2.0223
2.02148
1.98889
1.91379
1.87763
1.8754
1.87576
1.89289
1.91383
1.91551
1.91359
1.91249
1.91074
1.90641
1.88675
1.84642
1.81672
1.8096
1.8088
1.81065
1.81574
1.81705
1.81476
1.81165
1.80685
1.78982
1.75553
1.73567
1.73374
1.73569
1.75775
1.80983
1.83779
1.83754
1.82314
1.75173
1.63379
1.59628
1.59734
1.61326
1.65779
1.68582
1.68625
1.68387
1.67947
1.66862
1.65161
1.64458
1.64399
1.64365
1.64271
1.63935
1.62798
1.61004
1.60384
1.60329
1.60332
1.60862
1.62373
1.63459
1.63622
1.63619
1.636
1.63582
1.63566
1.6347
1.62666
1.59868
1.57621
1.57462
1.57656
1.58482
1.60429
1.62633
1.63394
1.63488
1.63517
1.63525
1.63387
1.62569
1.60615
1.59302
1.59195
1.59212
1.59355
1.60038
1.61523
1.62387
1.62501
1.62555
1.62604
1.6263
1.6248
1.61526
1.60041
1.59647
1.59702
1.59904
1.60242
1.60547
1.60696
1.6081
1.61045
1.61644
1.62852
1.64684
1.6674
1.68208
1.6859
1.68044
1.65965
1.61589
1.53466
1.44569
1.40562
1.40017
1.40001
1.40001
1.40001
1.40001
1.40001
1.40001
1.40001
1.40001
1.40001
1.40001
1.40001
1.40001
1.40001
1.40001
1.40001
1.40001
1.40001
1.40001
1.40001
1.40001
1.40001
1.40001
1.40001
1.40001
1.40002
1.40139
1.42489
1.64586
2.26813
3.17293
3.77396
4.0314
4.07848
4.03065
4.01221
3.97657
3.92896
3.88966
3.8341
3.77857
3.72637
3.67407
3.62776
3.5817
3.52574
3.48067
3.44517
3.39953
3.33899
3.26637
3.20577
3.16406
3.12524
3.09066
3.05885
3.02222
2.9814
2.93205
2.90633
2.89953
2.87748
2.8546
2.85634
2.86233
2.85155
2.83779
2.80521
2.71654
2.6383
2.61635
2.606
2.59048
2.57394
2.5552
2.5296
2.49605
2.47194
2.45994
2.44734
2.42993
2.39249
2.34688
2.33348
2.32444
2.31147
2.29464
2.27016
2.23091
2.18305
2.16021
2.16057
2.18824
2.23957
2.2528
2.2351
2.1756
2.08221
2.03495
2.0288
2.03679
2.08771
2.14088
2.1416
2.11668
2.05859
1.96522
1.89466
1.87478
1.87569
1.88755
1.92428
1.98267
2.03141
2.048
2.05147
2.04411
1.98869
1.93113
1.92474
1.92282
1.93365
1.96087
1.96433
1.96095
1.96
1.95725
1.95096
1.9296
1.88628
1.85176
1.84601
1.84737
1.85362
1.85989
1.86065
1.85835
1.85495
1.84951
1.83124
1.79202
1.76435
1.76103
1.76129
1.77719
1.82962
1.87668
1.88077
1.87136
1.81661
1.69184
1.62288
1.62009
1.63175
1.67228
1.71519
1.72074
1.71816
1.71366
1.70349
1.6834
1.67094
1.66987
1.66949
1.66857
1.66653
1.66031
1.64396
1.62943
1.62771
1.62775
1.63037
1.64158
1.65807
1.66336
1.66302
1.66268
1.66248
1.66213
1.66123
1.65566
1.63098
1.60082
1.59448
1.59566
1.60158
1.61832
1.64078
1.65098
1.65339
1.65456
1.65489
1.65468
1.65168
1.64002
1.62025
1.61207
1.61195
1.61257
1.61498
1.6234
1.63764
1.64342
1.64401
1.64444
1.64485
1.64477
1.64035
1.62528
1.61153
1.6094
1.60946
1.60936
1.60902
1.60903
1.61173
1.61951
1.63411
1.65747
1.68538
1.70491
1.70996
1.70556
1.68638
1.64637
1.56901
1.47124
1.41323
1.40076
1.40001
1.40001
1.40001
1.40001
1.40001
1.40001
1.40001
1.40001
1.40001
1.40001
1.40001
1.40001
1.40001
1.40001
1.40001
1.40001
1.40001
1.40001
1.40001
1.40001
1.40001
1.40001
1.40001
1.40001
1.40001
1.40001
1.40001
1.40001
1.40011
1.40539
1.46937
1.77432
2.45158
3.30377
3.80938
3.88643
4.0312
4.06185
4.02328
3.96528
3.93869
3.88944
3.81079
3.73475
3.68593
3.6439
3.58608
3.54375
3.5102
3.46501
3.39791
3.32035
3.27257
3.23609
3.19672
3.16161
3.12565
3.08562
3.03718
2.98534
2.97177
2.96701
2.94224
2.93224
2.93901
2.93805
2.92188
2.89272
2.81772
2.72851
2.70518
2.69729
2.68101
2.65987
2.63555
2.60819
2.58145
2.56366
2.55314
2.53994
2.52159
2.48306
2.42408
2.40132
2.39383
2.38188
2.36471
2.33923
2.30146
2.26019
2.24167
2.24081
2.2646
2.30573
2.31154
2.28998
2.23094
2.13842
2.08859
2.08263
2.09384
2.15148
2.21375
2.21573
2.18672
2.11847
2.0158
1.94778
1.9282
1.92611
1.93095
1.95932
2.00677
2.04964
2.07047
2.07665
2.07685
2.05068
1.99094
1.96944
1.9675
1.97055
1.9999
2.01772
2.01279
2.00897
2.00645
1.9997
1.97487
1.92729
1.88796
1.88087
1.88399
1.89472
1.90411
1.90471
1.90262
1.89947
1.89379
1.87459
1.83161
1.79531
1.78916
1.78904
1.80053
1.8483
1.90981
1.92311
1.9188
1.87843
1.7609
1.65495
1.64115
1.65014
1.68411
1.73757
1.75513
1.75318
1.7489
1.7402
1.71945
1.70006
1.69704
1.69653
1.69558
1.69384
1.68982
1.67789
1.6581
1.65134
1.65199
1.65463
1.6615
1.67625
1.68949
1.69081
1.68997
1.68945
1.68893
1.68798
1.68389
1.66342
1.62923
1.6147
1.61553
1.6203
1.63472
1.65746
1.669
1.67108
1.6726
1.67387
1.6742
1.67355
1.66866
1.65387
1.63594
1.63167
1.63199
1.63326
1.63693
1.64694
1.65992
1.66366
1.66381
1.66398
1.66406
1.66205
1.65186
1.63321
1.62455
1.62413
1.62436
1.62485
1.62602
1.63015
1.64233
1.6667
1.6993
1.72401
1.7311
1.72807
1.71252
1.67747
1.60369
1.49839
1.42338
1.40204
1.40005
1.40001
1.40001
1.40001
1.40001
1.40001
1.40001
1.40001
1.40001
1.40001
1.40001
1.40001
1.40001
1.40001
1.40001
1.40001
1.40001
1.40001
1.40001
1.40001
1.40001
1.40001
1.40001
1.40001
1.40001
1.40001
1.40001
1.40001
1.40001
1.40001
1.40001