/*--------------------------------*- C++ -*----------------------------------*\
  =========                 |
  \\      /  F ield         | OpenFOAM: The Open Source CFD Toolbox
   \\    /   O peration     | Website:  https://openfoam.org
    \\  /    A nd           | Version:  7
     \\/     M anipulation  |
\*---------------------------------------------------------------------------*/
FoamFile
{
    version     2.0;
    format      ascii;
    class       volScalarField;
    location    "4";
    object      rho;
}
// * * * * * * * * * * * * * * * * * * * * * * * * * * * * * * * * * * * * * //

dimensions      [1 -3 0 0 0 0 0];

internalField   nonuniform List<scalar> 
16192
(
1.08492
1.08569
1.08583
1.08542
1.08411
1.08243
1.08115
1.07996
1.07854
1.07697
1.07621
1.07614
1.07665
1.07818
1.07905
1.07908
1.07868
1.07735
1.07643
1.07626
1.07647
1.07782
1.07869
1.07844
1.07775
1.07598
1.07181
1.06596
1.06225
1.06074
1.06019
1.06012
1.06128
1.06458
1.06726
1.06773
1.06772
1.06761
1.06644
1.06434
1.06318
1.0627
1.06203
1.06092
1.05941
1.05799
1.05728
1.05694
1.05669
1.05644
1.05604
1.05556
1.05494
1.05397
1.05239
1.05003
1.04803
1.0476
1.04768
1.04808
1.04928
1.05162
1.05442
1.05662
1.05767
1.05779
1.05716
1.05482
1.05113
1.04887
1.04764
1.04678
1.04604
1.04541
1.04517
1.04523
1.04569
1.04684
1.0487
1.05112
1.05322
1.05412
1.0543
1.05436
1.05389
1.05223
1.05088
1.05063
1.05053
1.05062
1.05049
1.04994
1.04928
1.04894
1.0487
1.04858
1.04885
1.04976
1.05044
1.05036
1.05005
1.0495
1.04914
1.04921
1.04954
1.05047
1.05119
1.05091
1.0511
1.05273
1.05448
1.05497
1.05508
1.05518
1.05564
1.05634
1.05665
1.05637
1.05494
1.05241
1.05145
1.05141
1.05246
1.05468
1.05732
1.06072
1.06414
1.06531
1.06507
1.06369
1.05911
1.05317
1.05052
1.05011
1.05018
1.05128
1.05451
1.05939
1.06205
1.06217
1.06165
1.05955
1.05421
1.04962
1.04836
1.0482
1.04858
1.04993
1.05103
1.05155
1.05152
1.05071
1.04904
1.04617
1.04371
1.04272
1.04229
1.04192
1.04147
1.04095
1.04042
1.04009
1.0396
1.03867
1.03728
1.03484
1.03185
1.02939
1.02801
1.02773
1.02789
1.02912
1.03139
1.0326
1.03252
1.03168
1.02612
1.46121
2.45807
2.58895
2.62226
2.66057
2.69722
2.72713
2.74826
2.76473
2.77837
2.79045
2.80178
2.81249
2.82186
2.82973
2.83699
2.84211
2.84396
2.84536
2.84589
2.8466
2.84806
2.84996
2.8523
2.8557
2.85873
2.85858
2.85272
2.84221
2.83076
2.82056
2.81374
2.8115
2.8124
2.81359
2.8123
2.80691
2.7986
2.7881
2.77636
2.76491
2.75591
2.75228
2.75653
2.76652
2.77238
2.76801
2.76028
2.74959
2.7389
2.73476
2.73566
2.7399
2.75029
2.761
2.76332
2.76192
2.75638
2.74641
2.73684
2.73295
2.73086
2.73169
2.73677
2.74406
2.75041
2.75363
2.75188
2.74195
2.7268
2.71214
2.70196
2.69969
2.70568
2.71705
2.72353
1.08369
1.08342
1.08347
1.08412
1.08545
1.08603
1.08569
1.08489
1.08353
1.08132
1.07869
1.07732
1.0772
1.07782
1.07803
1.07752
1.07678
1.07638
1.07615
1.07588
1.07592
1.07664
1.07698
1.07668
1.07607
1.07493
1.07283
1.06991
1.06785
1.06681
1.06597
1.06541
1.06549
1.06672
1.06794
1.06789
1.06747
1.06605
1.06325
1.06107
1.06064
1.06096
1.06144
1.06126
1.06086
1.06022
1.05978
1.05968
1.05975
1.05991
1.05991
1.0597
1.05925
1.05841
1.05706
1.05475
1.05167
1.05006
1.04977
1.04978
1.05035
1.05201
1.05401
1.05476
1.05483
1.05475
1.0547
1.05465
1.05469
1.05455
1.05378
1.05255
1.0509
1.04876
1.047
1.04647
1.04652
1.04717
1.04868
1.05077
1.05256
1.05315
1.05312
1.05288
1.05198
1.05007
1.04869
1.04845
1.04842
1.0487
1.04957
1.05082
1.05184
1.05266
1.05324
1.05366
1.05404
1.05389
1.05326
1.05246
1.05134
1.04971
1.04802
1.04754
1.04757
1.04826
1.05
1.05271
1.05569
1.05799
1.05836
1.05792
1.05692
1.05553
1.05433
1.05388
1.0539
1.05445
1.05574
1.05659
1.05664
1.05627
1.05616
1.05657
1.05771
1.05956
1.06146
1.06245
1.06264
1.06205
1.0607
1.05896
1.05628
1.05433
1.05363
1.05359
1.05509
1.0582
1.05988
1.05993
1.05957
1.05868
1.05701
1.05514
1.05307
1.05165
1.0511
1.05109
1.05101
1.05043
1.04933
1.04831
1.04784
1.04791
1.04765
1.04705
1.04596
1.04468
1.04344
1.04222
1.04085
1.0388
1.0368
1.03613
1.03613
1.0361
1.03572
1.03464
1.03249
1.03056
1.02989
1.02996
1.03091
1.03105
1.03048
1.02956
1.02631
1.4291
2.44123
2.59586
2.63056
2.66831
2.70404
2.73225
2.75212
2.76764
2.78112
2.79285
2.80249
2.81209
2.82232
2.83204
2.83997
2.84421
2.8447
2.84533
2.84572
2.84711
2.84989
2.85279
2.85537
2.85783
2.85938
2.85867
2.85431
2.84593
2.83562
2.82587
2.81895
2.81619
2.81668
2.81771
2.81602
2.80944
2.8002
2.79008
2.77885
2.76753
2.75833
2.75349
2.7554
2.76287
2.76863
2.76806
2.76315
2.75551
2.74358
2.73494
2.7341
2.73681
2.7448
2.75705
2.76396
2.76438
2.76158
2.75423
2.74376
2.73617
2.73129
2.72819
2.72998
2.73619
2.74257
2.74534
2.74408
2.74018
2.73393
2.72552
2.71658
2.70945
2.7053
2.70422
2.7048
1.08736
1.08399
1.08296
1.0831
1.08541
1.08886
1.09058
1.0912
1.09133
1.09111
1.08994
1.08788
1.08539
1.08292
1.08059
1.07821
1.07663
1.07621
1.07617
1.07656
1.07656
1.07614
1.0757
1.07521
1.07452
1.07348
1.07219
1.07152
1.07157
1.07198
1.07291
1.07464
1.07634
1.07664
1.07599
1.07465
1.07215
1.06795
1.06288
1.05993
1.05936
1.05931
1.05979
1.06061
1.06089
1.06097
1.06103
1.06115
1.06151
1.06206
1.06273
1.06344
1.06392
1.064
1.0639
1.06311
1.0612
1.05965
1.05939
1.05933
1.0591
1.05836
1.05712
1.05571
1.05445
1.05338
1.05264
1.05303
1.05547
1.05827
1.05983
1.06041
1.06039
1.0594
1.05695
1.05472
1.05382
1.05343
1.05331
1.05379
1.0549
1.05504
1.05477
1.0541
1.05251
1.05008
1.04823
1.04742
1.04715
1.04722
1.04803
1.04994
1.0526
1.05477
1.05654
1.05842
1.06051
1.06185
1.06197
1.06148
1.05997
1.05645
1.05163
1.04847
1.04743
1.04736
1.04852
1.05252
1.05896
1.06357
1.06536
1.06579
1.0654
1.06308
1.05845
1.05453
1.0532
1.0533
1.05494
1.05889
1.06261
1.06463
1.06529
1.06503
1.06406
1.06284
1.06189
1.0613
1.06089
1.06106
1.06192
1.06215
1.06204
1.06191
1.06202
1.06232
1.06198
1.06095
1.06001
1.05919
1.05809
1.05742
1.0581
1.05916
1.05975
1.05985
1.05917
1.05769
1.05532
1.05209
1.04898
1.0473
1.04696
1.04749
1.05027
1.05256
1.05267
1.05218
1.0512
1.04902
1.04472
1.03936
1.03613
1.03512
1.03485
1.03555
1.03796
1.03924
1.03937
1.0389
1.03751
1.0353
1.03303
1.03138
1.03002
1.02854
1.02601
1.35699
2.40729
2.60752
2.64199
2.67852
2.71249
2.73912
2.75766
2.7725
2.78555
2.79637
2.80365
2.81192
2.82148
2.83225
2.8423
2.84746
2.84845
2.84847
2.84871
2.85046
2.85476
2.85957
2.86295
2.86441
2.86435
2.86281
2.85926
2.85314
2.84456
2.83555
2.82833
2.82434
2.82328
2.82323
2.82034
2.81234
2.80246
2.7929
2.78356
2.77466
2.76685
2.76148
2.75973
2.76144
2.76425
2.76549
2.76446
2.76136
2.75486
2.74516
2.73899
2.73806
2.74088
2.74917
2.75798
2.76199
2.76221
2.75961
2.75336
2.74714
2.7412
2.73669
2.73538
2.73761
2.74023
2.74019
2.73808
2.73633
2.7359
2.73589
2.73475
2.73065
2.72313
2.71403
2.70681
1.10201
1.0998
1.09902
1.09884
1.10039
1.10208
1.10222
1.10206
1.1017
1.10113
1.10023
1.09893
1.09752
1.09637
1.09538
1.09436
1.09348
1.093
1.09292
1.09298
1.09261
1.09193
1.09084
1.08932
1.08755
1.08562
1.08339
1.08125
1.08012
1.08009
1.08086
1.08311
1.08557
1.08666
1.08674
1.08627
1.08496
1.08226
1.07867
1.0758
1.07425
1.07358
1.07337
1.07312
1.07269
1.07216
1.07149
1.0708
1.07045
1.07031
1.07034
1.07072
1.071
1.07104
1.07078
1.06962
1.06806
1.0677
1.06797
1.06874
1.06992
1.07075
1.07061
1.06975
1.06769
1.06483
1.06303
1.06254
1.06301
1.0642
1.06582
1.06714
1.06767
1.06736
1.06574
1.06453
1.06428
1.06412
1.06416
1.06514
1.06652
1.06691
1.06682
1.0665
1.06548
1.0637
1.06202
1.06076
1.05988
1.05938
1.05925
1.05989
1.06103
1.06205
1.06318
1.06475
1.06669
1.06823
1.06882
1.06881
1.06809
1.06642
1.06398
1.06147
1.05979
1.05905
1.05904
1.06137
1.06572
1.06913
1.07121
1.07245
1.0728
1.07188
1.06928
1.06645
1.06468
1.06383
1.06405
1.06644
1.06942
1.07144
1.07267
1.0734
1.07353
1.07323
1.07261
1.07136
1.07003
1.06896
1.06801
1.06751
1.06761
1.06828
1.0693
1.07061
1.07154
1.07135
1.07056
1.06889
1.06657
1.0648
1.06422
1.06442
1.06544
1.06682
1.06724
1.06687
1.06551
1.06286
1.05941
1.05702
1.05603
1.05586
1.05726
1.05886
1.05923
1.05919
1.05885
1.05766
1.05424
1.04889
1.04454
1.04236
1.04156
1.04156
1.04264
1.0442
1.04542
1.04591
1.04572
1.04472
1.04302
1.04083
1.03812
1.03527
1.03183
1.25836
2.35369
2.63631
2.66759
2.70065
2.72828
2.7512
2.76687
2.78019
2.79407
2.80617
2.8117
2.8171
2.82475
2.83539
2.84766
2.85585
2.85769
2.85722
2.85642
2.85726
2.86141
2.86747
2.87182
2.87308
2.8716
2.86894
2.86601
2.86235
2.85695
2.85022
2.84373
2.83857
2.8349
2.83188
2.82715
2.81923
2.80999
2.80136
2.7939
2.78786
2.78308
2.77869
2.77394
2.76948
2.76492
2.76141
2.75977
2.75824
2.75617
2.75256
2.74811
2.74583
2.74666
2.75039
2.7559
2.75999
2.76064
2.75865
2.75537
2.75172
2.74788
2.74497
2.74475
2.74754
2.75081
2.75084
2.7473
2.74237
2.73914
2.73875
2.74042
2.74187
2.7409
2.7368
2.73218
1.1184
1.11873
1.12012
1.12303
1.12607
1.12703
1.12694
1.12616
1.12402
1.12007
1.1157
1.11293
1.11176
1.11143
1.11175
1.11306
1.11427
1.11498
1.1154
1.11534
1.11486
1.11391
1.11264
1.11124
1.10975
1.10834
1.10684
1.10496
1.10295
1.10136
1.1004
1.09984
1.09946
1.0993
1.09902
1.09842
1.09768
1.09709
1.09694
1.097
1.09712
1.09716
1.09699
1.09657
1.09593
1.09506
1.09392
1.0926
1.09155
1.09125
1.09116
1.09088
1.09028
1.08936
1.08761
1.08444
1.08133
1.08024
1.0801
1.08027
1.08112
1.08263
1.08435
1.08551
1.08579
1.08583
1.08571
1.08537
1.08489
1.08414
1.08312
1.08186
1.08024
1.07833
1.07674
1.07614
1.07587
1.07565
1.07606
1.07778
1.07899
1.0794
1.0797
1.0798
1.07961
1.07892
1.07842
1.07839
1.07841
1.07855
1.07913
1.08042
1.08154
1.08177
1.0818
1.08178
1.08151
1.08106
1.08018
1.07875
1.07727
1.07634
1.07609
1.07611
1.07627
1.07723
1.07961
1.08286
1.08447
1.08435
1.084
1.08326
1.08167
1.08031
1.08016
1.08062
1.08159
1.08335
1.08483
1.08499
1.08434
1.0834
1.08281
1.08279
1.08343
1.08477
1.08649
1.08766
1.08795
1.08772
1.08645
1.08383
1.08131
1.08038
1.08021
1.08026
1.08092
1.08242
1.08388
1.08427
1.0842
1.08355
1.08184
1.07937
1.0774
1.07667
1.07637
1.07591
1.07515
1.07434
1.07399
1.07395
1.07433
1.07481
1.07455
1.07369
1.07246
1.07067
1.06846
1.06588
1.06285
1.06043
1.05963
1.05944
1.05928
1.05894
1.05831
1.0574
1.05629
1.05515
1.05417
1.05379
1.05354
1.05318
1.05282
1.05268
1.0502
1.15344
2.26677
2.68024
2.70456
2.73377
2.75409
2.77112
2.78275
2.79261
2.80607
2.82037
2.82766
2.83114
2.83676
2.84539
2.8567
2.8656
2.86913
2.86994
2.87018
2.87155
2.87539
2.88088
2.88485
2.88579
2.88468
2.88307
2.88187
2.88061
2.87843
2.87468
2.86979
2.86459
2.85955
2.85435
2.84824
2.84065
2.83187
2.82307
2.81533
2.80928
2.80517
2.80222
2.79803
2.79065
2.78053
2.76978
2.76119
2.7559
2.75356
2.7532
2.75319
2.75398
2.75563
2.7577
2.76005
2.76082
2.75963
2.75764
2.75631
2.75553
2.75466
2.75416
2.75574
2.76018
2.76536
2.76847
2.76823
2.76449
2.75881
2.75353
2.7502
2.75013
2.75359
2.75948
2.76571
1.14428
1.14517
1.14736
1.15008
1.15125
1.15136
1.15123
1.15049
1.14841
1.14479
1.14157
1.13997
1.13924
1.13896
1.13937
1.14038
1.14051
1.14025
1.13972
1.13887
1.13776
1.13641
1.13484
1.13331
1.13221
1.13154
1.13087
1.12956
1.12761
1.12608
1.12528
1.12484
1.12438
1.12381
1.12298
1.12191
1.12121
1.12116
1.12148
1.12171
1.12169
1.12138
1.12084
1.12022
1.11948
1.11849
1.11727
1.11572
1.11409
1.1136
1.11365
1.11373
1.11346
1.11273
1.11121
1.10869
1.10639
1.10547
1.1052
1.10512
1.10534
1.10611
1.10718
1.10809
1.10866
1.10896
1.10915
1.10915
1.1089
1.10838
1.10743
1.10585
1.10353
1.10139
1.10059
1.1003
1.10003
1.09997
1.10093
1.10189
1.10184
1.1017
1.10156
1.10129
1.10051
1.0994
1.09912
1.09915
1.09918
1.09932
1.0999
1.10126
1.1025
1.10301
1.10334
1.10346
1.10323
1.10266
1.10171
1.1004
1.09902
1.09775
1.09715
1.09713
1.09758
1.0991
1.10188
1.10475
1.1058
1.10562
1.10497
1.10347
1.10082
1.09921
1.09919
1.09984
1.10197
1.10498
1.1062
1.10606
1.10522
1.10357
1.10222
1.1018
1.10187
1.1031
1.10542
1.10692
1.10721
1.10714
1.10621
1.10348
1.10069
1.0996
1.09916
1.09892
1.09913
1.10069
1.10246
1.10305
1.10319
1.10311
1.10207
1.09966
1.09715
1.09543
1.09412
1.09295
1.09221
1.09212
1.09248
1.09353
1.09481
1.09519
1.09491
1.09415
1.09271
1.09022
1.0864
1.08171
1.07863
1.07805
1.07805
1.07841
1.07895
1.07914
1.07893
1.07809
1.07618
1.07352
1.07137
1.07036
1.07002
1.07007
1.07084
1.0715
1.07037
1.08215
2.08709
2.71757
2.75621
2.77996
2.79576
2.80761
2.81523
2.8191
2.82702
2.84014
2.85022
2.85469
2.85952
2.86668
2.87677
2.88581
2.89062
2.89247
2.89367
2.89614
2.90082
2.90679
2.91155
2.91347
2.91302
2.91186
2.91097
2.91014
2.90858
2.90587
2.90232
2.8983
2.89388
2.88856
2.88177
2.8736
2.86476
2.85629
2.84879
2.84256
2.83744
2.83268
2.82664
2.819
2.81016
2.79923
2.78726
2.77741
2.77085
2.76694
2.76582
2.76742
2.77043
2.77289
2.77288
2.76954
2.76514
2.76217
2.7621
2.76458
2.76867
2.77255
2.77545
2.77821
2.78102
2.78363
2.78582
2.78711
2.78593
2.78166
2.777
2.77459
2.77665
2.78415
2.7938
1.17286
1.17503
1.17667
1.17704
1.1768
1.17611
1.17497
1.17313
1.17054
1.16816
1.16708
1.16676
1.16661
1.16696
1.16816
1.16849
1.16815
1.16736
1.16597
1.16417
1.16275
1.16172
1.16074
1.15982
1.15927
1.1588
1.15784
1.15545
1.15188
1.14976
1.14914
1.14885
1.14883
1.14936
1.1498
1.14989
1.14996
1.15
1.14981
1.14918
1.14809
1.14716
1.14655
1.14604
1.14542
1.14457
1.14347
1.14196
1.13999
1.13825
1.1373
1.13675
1.13614
1.13522
1.13394
1.13249
1.13181
1.13176
1.13178
1.1321
1.13298
1.13423
1.13511
1.13527
1.13513
1.13486
1.13442
1.13367
1.13261
1.13142
1.13021
1.12883
1.12726
1.12615
1.12575
1.12561
1.12569
1.12671
1.12824
1.12856
1.12851
1.12845
1.12828
1.12756
1.12585
1.12431
1.12405
1.12401
1.124
1.12411
1.12456
1.12546
1.12585
1.12561
1.12535
1.12504
1.12464
1.1242
1.12384
1.12359
1.12337
1.12299
1.12248
1.12242
1.12292
1.124
1.1251
1.12593
1.12645
1.12639
1.12578
1.12462
1.1234
1.123
1.12302
1.1236
1.12512
1.12611
1.12609
1.12569
1.12482
1.12406
1.12385
1.12387
1.12454
1.12625
1.12773
1.12807
1.12797
1.12747
1.12558
1.12224
1.12032
1.11996
1.11985
1.11995
1.12121
1.12351
1.12454
1.12465
1.12447
1.12361
1.12143
1.1185
1.11659
1.11568
1.11515
1.11488
1.11481
1.11489
1.11523
1.11569
1.11579
1.11555
1.11502
1.11413
1.1127
1.11055
1.10767
1.10482
1.10321
1.1023
1.10138
1.10048
1.09989
1.09952
1.09908
1.09824
1.09673
1.09501
1.09405
1.09371
1.09358
1.09389
1.09401
1.09382
1.09222
1.09231
1.81615
2.72523
2.84148
2.85776
2.86754
2.86696
2.86358
2.86057
2.86286
2.87185
2.88034
2.8839
2.88788
2.89487
2.90507
2.91511
2.92115
2.92374
2.92537
2.92815
2.93314
2.93944
2.9447
2.94726
2.94763
2.94736
2.94747
2.94738
2.94562
2.942
2.93747
2.93274
2.92823
2.9242
2.91919
2.91147
2.90265
2.89458
2.88889
2.88526
2.88169
2.87514
2.86572
2.85502
2.84447
2.83407
2.82368
2.81394
2.80569
2.79926
2.7955
2.79456
2.79586
2.79769
2.79592
2.78904
2.78156
2.77653
2.77524
2.77879
2.78742
2.79847
2.80629
2.80813
2.80673
2.80436
2.803
2.80357
2.80578
2.80802
2.8091
2.80985
2.8121
2.81589
2.81884
1.19778
1.20038
1.20121
1.20105
1.19958
1.19725
1.19456
1.19154
1.18871
1.18717
1.18679
1.18685
1.18792
1.19009
1.19206
1.19288
1.19291
1.19189
1.18934
1.18647
1.18488
1.18404
1.1834
1.18303
1.18273
1.18219
1.18076
1.17764
1.1742
1.17259
1.17202
1.1717
1.17166
1.17256
1.17385
1.17464
1.17505
1.17514
1.17474
1.17325
1.17183
1.17124
1.1708
1.17024
1.16953
1.16864
1.16738
1.1657
1.16392
1.16242
1.16127
1.16041
1.15968
1.15891
1.15806
1.15717
1.15663
1.15649
1.15645
1.15678
1.15787
1.15938
1.16056
1.16108
1.16106
1.16068
1.15996
1.15862
1.15668
1.1546
1.15268
1.15096
1.14973
1.14927
1.14927
1.14989
1.15143
1.15325
1.15391
1.15373
1.15344
1.15302
1.15223
1.15077
1.14869
1.1477
1.14767
1.14778
1.14804
1.14847
1.14947
1.15027
1.15004
1.14936
1.14825
1.14697
1.14595
1.1453
1.14503
1.14504
1.14524
1.1455
1.14592
1.14667
1.14768
1.14831
1.14826
1.14799
1.14758
1.1468
1.14572
1.14481
1.14451
1.14462
1.14523
1.14649
1.14724
1.14718
1.14677
1.14576
1.14445
1.14383
1.14375
1.14421
1.14573
1.14762
1.14862
1.14881
1.14851
1.14706
1.14401
1.1407
1.13902
1.13858
1.13863
1.13969
1.14236
1.14496
1.14599
1.14617
1.14574
1.14403
1.14092
1.13771
1.13589
1.13518
1.13497
1.13508
1.13581
1.13678
1.13742
1.13753
1.13716
1.13647
1.13539
1.13371
1.13156
1.12945
1.12796
1.12731
1.12693
1.12638
1.12546
1.12414
1.12302
1.12219
1.12115
1.1195
1.11765
1.11659
1.11621
1.11609
1.11654
1.11739
1.11765
1.11734
1.11554
1.11066
1.50343
2.71116
2.96279
2.95321
2.95346
2.94103
2.92851
2.91955
2.91688
2.92059
2.92592
2.92801
2.93041
2.93584
2.94502
2.95538
2.96154
2.96325
2.96368
2.96505
2.96876
2.97457
2.98015
2.9832
2.9839
2.98404
2.98528
2.98737
2.98718
2.98236
2.97473
2.96732
2.96134
2.95795
2.95686
2.95403
2.94784
2.94019
2.93367
2.929
2.92426
2.91705
2.9079
2.89688
2.88574
2.87597
2.86699
2.85832
2.85007
2.84251
2.83637
2.83259
2.83123
2.83121
2.82966
2.82327
2.81452
2.80697
2.8023
2.80247
2.80969
2.82394
2.83751
2.84058
2.83761
2.83262
2.82759
2.82479
2.82506
2.8295
2.83653
2.84326
2.84663
2.84413
2.83775
1.21964
1.21979
1.21801
1.21424
1.20984
1.20623
1.20353
1.20183
1.20136
1.20182
1.20355
1.20622
1.20954
1.21209
1.21259
1.2119
1.20996
1.20615
1.20138
1.19792
1.19634
1.19574
1.1955
1.19588
1.19628
1.19597
1.19465
1.19203
1.19043
1.19
1.18979
1.18994
1.1911
1.19309
1.19508
1.19638
1.19656
1.1954
1.19217
1.18844
1.18607
1.18478
1.18396
1.18344
1.1832
1.18298
1.18241
1.18125
1.18009
1.17934
1.17872
1.17821
1.17792
1.17782
1.17782
1.17781
1.17779
1.17799
1.17861
1.17976
1.18105
1.18149
1.18122
1.18031
1.17858
1.17654
1.17451
1.17257
1.17087
1.16975
1.16942
1.16969
1.17068
1.17227
1.17424
1.17609
1.17709
1.177
1.17639
1.1754
1.17426
1.17311
1.17178
1.16999
1.168
1.16691
1.16645
1.16615
1.16592
1.16583
1.16621
1.16641
1.16602
1.16529
1.16436
1.16356
1.1632
1.16313
1.1636
1.16483
1.16629
1.16728
1.16751
1.16711
1.16602
1.16435
1.16266
1.16144
1.16087
1.16093
1.16166
1.16289
1.16433
1.16532
1.1655
1.1649
1.16353
1.16171
1.16
1.15897
1.1587
1.15905
1.16063
1.16306
1.1649
1.16523
1.16475
1.16327
1.16073
1.15774
1.15515
1.1539
1.15377
1.15455
1.15671
1.16012
1.16278
1.16325
1.16284
1.16141
1.15875
1.15556
1.15292
1.15173
1.15155
1.15203
1.15348
1.15507
1.15591
1.15592
1.15515
1.15342
1.15133
1.14942
1.14796
1.14723
1.14705
1.14769
1.14899
1.1497
1.1495
1.14787
1.14496
1.14194
1.13956
1.13776
1.13642
1.13563
1.13536
1.13586
1.13724
1.13859
1.13945
1.13936
1.13839
1.136
1.13251
1.12735
1.23852
2.61982
3.10644
3.06561
3.04596
3.02184
3.00053
2.98528
2.97807
2.97762
2.97936
2.97913
2.97917
2.9824
2.98951
2.99824
3.00282
3.00268
3.00172
3.00201
3.00485
3.01037
3.01579
3.0182
3.01793
3.01687
3.01687
3.01887
3.01991
3.01518
3.00732
2.99902
2.9932
2.99059
2.99109
2.99243
2.98888
2.98053
2.96911
2.95891
2.95175
2.9473
2.94384
2.93818
2.93029
2.92158
2.91246
2.90314
2.89396
2.88559
2.87869
2.8733
2.86917
2.86614
2.86404
2.861
2.85458
2.84656
2.84017
2.83666
2.83845
2.84753
2.85935
2.86429
2.86277
2.85924
2.85403
2.84914
2.84757
2.84958
2.85601
2.86386
2.86624
2.86212
2.85428
1.22811
1.22443
1.21972
1.21581
1.21358
1.21261
1.21253
1.2139
1.2168
1.21983
1.22182
1.22225
1.22161
1.22024
1.2185
1.2158
1.21244
1.2092
1.20657
1.20535
1.20511
1.20572
1.20768
1.21001
1.21056
1.21026
1.20897
1.20722
1.20677
1.20667
1.20685
1.20777
1.20956
1.21113
1.2112
1.21013
1.20746
1.20275
1.198
1.19523
1.19407
1.19376
1.19426
1.19611
1.1979
1.19831
1.19818
1.19762
1.19703
1.19656
1.19606
1.19577
1.19569
1.19576
1.19618
1.19671
1.19685
1.19651
1.19579
1.19498
1.19366
1.1916
1.18921
1.18698
1.18521
1.18394
1.18318
1.18303
1.18365
1.18514
1.18724
1.18969
1.19127
1.19144
1.19077
1.18918
1.18669
1.18481
1.1841
1.1838
1.18338
1.18288
1.18225
1.18103
1.17933
1.17819
1.17753
1.17716
1.17706
1.17751
1.17868
1.17956
1.17987
1.17984
1.17979
1.17996
1.18045
1.18132
1.18231
1.18272
1.18243
1.18132
1.17878
1.1756
1.1729
1.17114
1.17047
1.17051
1.17199
1.17533
1.17913
1.18131
1.18158
1.18024
1.17696
1.17323
1.17058
1.16917
1.16878
1.16922
1.17145
1.17505
1.17763
1.17799
1.17702
1.17458
1.17143
1.16856
1.16637
1.16541
1.16556
1.16707
1.16981
1.17252
1.174
1.17405
1.17337
1.17145
1.16884
1.16636
1.16442
1.16355
1.16365
1.16503
1.1675
1.16989
1.17079
1.17043
1.16882
1.16592
1.16275
1.16026
1.15881
1.1584
1.15884
1.16108
1.16465
1.16736
1.16768
1.16625
1.16271
1.15766
1.15316
1.15029
1.14885
1.14839
1.14883
1.15125
1.1548
1.15777
1.15868
1.15806
1.15579
1.15214
1.14799
1.14408
1.14111
1.13976
1.14714
2.38704
3.16292
3.14693
3.11882
3.09765
3.07391
3.05691
3.04579
3.04067
3.03807
3.03417
3.03078
3.03019
3.03338
3.03994
3.04476
3.04429
3.04067
3.03767
3.03721
3.03977
3.04262
3.04294
3.04088
3.03768
3.03508
3.03535
3.03738
3.03687
3.03316
3.02765
3.02154
3.01679
3.01363
3.01189
3.01
3.00529
2.99765
2.98866
2.98215
2.97862
2.97532
2.96953
2.9615
2.95241
2.94349
2.93579
2.93003
2.92492
2.91911
2.91126
2.90255
2.89453
2.88923
2.88772
2.88786
2.88475
2.87966
2.87417
2.87079
2.87064
2.87472
2.88
2.88207
2.88111
2.87861
2.87284
2.86708
2.86497
2.86537
2.86842
2.87156
2.8711
2.86735
1.22824
1.22281
1.21967
1.21882
1.219
1.22107
1.2251
1.22828
1.22887
1.22778
1.22524
1.22348
1.22222
1.22015
1.21737
1.21559
1.21431
1.21372
1.21393
1.21525
1.21729
1.21965
1.22139
1.22159
1.22097
1.21949
1.21782
1.21722
1.21694
1.21685
1.21709
1.21705
1.21646
1.21551
1.21393
1.21124
1.20697
1.20347
1.20182
1.20163
1.20255
1.2054
1.20931
1.21176
1.21209
1.21134
1.20948
1.20801
1.20757
1.2073
1.20713
1.20722
1.20722
1.207
1.20662
1.20562
1.20391
1.20187
1.1995
1.19722
1.19505
1.1932
1.19208
1.19164
1.19189
1.19349
1.19564
1.19758
1.199
1.19942
1.19898
1.19756
1.19594
1.19443
1.19156
1.18868
1.18749
1.18712
1.18719
1.18831
1.18907
1.18909
1.18892
1.18796
1.1868
1.18654
1.18668
1.18727
1.18865
1.1909
1.19312
1.19411
1.19426
1.19399
1.19305
1.19193
1.19108
1.19024
1.18915
1.18759
1.18522
1.18243
1.17988
1.17806
1.17738
1.17752
1.17905
1.18261
1.1873
1.19015
1.1903
1.1885
1.18528
1.18128
1.17785
1.17618
1.17571
1.17601
1.17819
1.18221
1.18525
1.18561
1.18425
1.18148
1.17803
1.17542
1.17396
1.17345
1.17374
1.1757
1.17876
1.18042
1.18045
1.17918
1.17746
1.17545
1.17346
1.17217
1.17148
1.17137
1.17227
1.1747
1.17744
1.17885
1.17883
1.17754
1.17541
1.17291
1.16997
1.16773
1.16655
1.16636
1.16715
1.16978
1.17363
1.17619
1.17618
1.17456
1.17164
1.16769
1.16281
1.15955
1.1581
1.15781
1.15872
1.16184
1.16639
1.16977
1.1702
1.16871
1.16558
1.16171
1.1575
1.15433
1.15207
1.15114
1.15125
1.15342
1.15604
2.11538
3.19084
3.23554
3.18423
3.15924
3.13376
3.11666
3.1032
3.09402
3.08765
3.08145
3.07571
3.07277
3.07443
3.07975
3.08165
3.07635
3.06645
3.05921
3.0563
3.05623
3.05628
3.05514
3.05266
3.04994
3.04821
3.04949
3.05177
3.05159
3.04805
3.04187
3.03381
3.02548
3.01903
3.01584
3.016
3.01789
3.019
3.01472
3.00524
2.99394
2.98348
2.97427
2.96777
2.96364
2.96105
2.96027
2.96058
2.95593
2.94693
2.93647
2.92455
2.91573
2.9107
2.91007
2.91343
2.91592
2.91318
2.90625
2.89673
2.88971
2.88723
2.889
2.89369
2.89621
2.8952
2.89111
2.88226
2.87375
2.87005
2.86851
2.8701
2.8741
2.87601
1.22523
1.22318
1.22297
1.22431
1.2284
1.23324
1.23476
1.23411
1.23174
1.22848
1.22495
1.22172
1.2197
1.21883
1.21842
1.21851
1.22019
1.22298
1.2254
1.22651
1.22648
1.22559
1.2242
1.22289
1.22157
1.21978
1.21841
1.21798
1.2177
1.21799
1.21802
1.21751
1.21676
1.21537
1.21298
1.20999
1.20757
1.20703
1.2077
1.21027
1.21462
1.21764
1.21784
1.21662
1.21431
1.21192
1.20984
1.20868
1.2082
1.20786
1.2079
1.20854
1.2085
1.20814
1.20735
1.20577
1.20339
1.20113
1.19951
1.19807
1.19703
1.19673
1.19731
1.19974
1.20322
1.2056
1.20612
1.20546
1.20322
1.20104
1.19953
1.19772
1.19509
1.19261
1.19125
1.19067
1.19076
1.19202
1.19483
1.19743
1.1981
1.19815
1.19767
1.19663
1.19647
1.1968
1.1977
1.19908
1.2004
1.20079
1.20037
1.1992
1.19731
1.19566
1.19446
1.19327
1.1919
1.19041
1.18876
1.1869
1.18506
1.18338
1.18263
1.18279
1.18414
1.18725
1.19165
1.19467
1.1949
1.19378
1.19172
1.18861
1.18376
1.18082
1.18006
1.18018
1.1818
1.18565
1.18954
1.19048
1.18968
1.18757
1.18437
1.1804
1.1784
1.17789
1.17813
1.18007
1.18358
1.18566
1.18566
1.18424
1.18174
1.17889
1.17611
1.17499
1.17465
1.17486
1.17648
1.17978
1.18302
1.18409
1.18368
1.18194
1.17989
1.1777
1.17457
1.17223
1.17125
1.17116
1.17209
1.17486
1.17868
1.18079
1.18063
1.17931
1.17732
1.17468
1.17023
1.16617
1.1644
1.16417
1.16514
1.16827
1.1729
1.17611
1.17635
1.17505
1.17263
1.16942
1.16461
1.16083
1.15914
1.15864
1.15908
1.16156
1.16535
1.16778
1.16645
1.86817
3.18423
3.3055
3.23726
3.2098
3.18498
3.1686
3.15426
3.14229
3.13301
3.1247
3.11591
3.1094
3.10703
3.10522
3.09801
3.0859
3.07712
3.07397
3.07286
3.07289
3.07032
3.06688
3.06363
3.0619
3.06239
3.0626
3.05919
3.05279
3.04623
3.03979
3.03462
3.03
3.02563
3.02302
3.02219
3.02191
3.02256
3.02151
3.01261
2.99941
2.98738
2.97972
2.97626
2.97622
2.9774
2.97805
2.97653
2.97079
2.96254
2.95405
2.94494
2.93681
2.93154
2.92783
2.92613
2.92665
2.92655
2.92174
2.91369
2.90469
2.8985
2.89675
2.89905
2.90275
2.90272
2.89971
2.89258
2.88239
2.87359
2.86966
2.86857
2.87157
2.87755
1.22589
1.22619
1.22872
1.23402
1.2378
1.23806
1.23716
1.23496
1.23092
1.22534
1.22136
1.22029
1.21997
1.21999
1.22203
1.22636
1.23025
1.2316
1.23141
1.22989
1.22779
1.22614
1.22449
1.2225
1.21984
1.21773
1.21709
1.21699
1.21806
1.21883
1.2185
1.2178
1.21675
1.21519
1.21327
1.21188
1.21191
1.21334
1.21655
1.21963
1.22027
1.21972
1.21868
1.21689
1.21371
1.20984
1.20768
1.2071
1.20693
1.20763
1.2089
1.2092
1.20899
1.20835
1.20697
1.20505
1.20333
1.20212
1.20155
1.20142
1.20212
1.20422
1.20739
1.20989
1.21032
1.20969
1.20826
1.20609
1.20339
1.20041
1.19762
1.19587
1.19488
1.19431
1.19454
1.19618
1.19901
1.20225
1.20414
1.2044
1.20392
1.20285
1.20214
1.20201
1.20202
1.20221
1.20249
1.20245
1.20215
1.20166
1.20085
1.19946
1.19731
1.19484
1.19316
1.19219
1.19142
1.19059
1.18949
1.18822
1.18754
1.18769
1.18883
1.19135
1.19478
1.1973
1.19766
1.19701
1.19595
1.19405
1.19023
1.18557
1.18345
1.18313
1.18399
1.18704
1.19155
1.19374
1.19357
1.19236
1.19001
1.186
1.18221
1.1809
1.18083
1.18189
1.18504
1.18846
1.18919
1.18855
1.18683
1.18384
1.17977
1.17728
1.17671
1.17675
1.17804
1.18127
1.18527
1.18702
1.1869
1.18588
1.18421
1.18181
1.17846
1.1757
1.17454
1.17427
1.175
1.17752
1.1812
1.18338
1.1834
1.18254
1.18124
1.17936
1.17606
1.17211
1.1697
1.16897
1.16968
1.1724
1.17643
1.17916
1.17937
1.17864
1.17744
1.17549
1.17173
1.16698
1.16443
1.16371
1.16419
1.16662
1.17031
1.17241
1.17212
1.17084
1.16746
1.66856
3.13334
3.35051
3.27875
3.25078
3.2266
3.20811
3.19108
3.17647
3.1653
3.15491
3.14282
3.13169
3.12323
3.11451
3.10325
3.09334
3.09007
3.09125
3.09351
3.0905
3.0835
3.07451
3.06945
3.06678
3.06824
3.06623
3.05907
3.05014
3.04338
3.0392
3.03911
3.04017
3.03745
3.03155
3.02529
3.02015
3.01669
3.01566
3.01544
3.00896
2.99967
2.99139
2.98596
2.98227
2.97914
2.97687
2.97466
2.97404
2.97352
2.96952
2.96274
2.95328
2.94158
2.93195
2.92612
2.92328
2.92415
2.92634
2.92427
2.91962
2.91256
2.90621
2.90371
2.90326
2.90282
2.90076
2.89796
2.89287
2.88422
2.87526
2.8711
2.86965
2.87165
1.22916
1.23249
1.23797
1.2403
1.2401
1.2391
1.23661
1.23149
1.22521
1.22243
1.22194
1.22173
1.22256
1.22621
1.23184
1.235
1.23528
1.23457
1.23264
1.22991
1.22699
1.22425
1.2214
1.21894
1.21797
1.2177
1.21769
1.21894
1.221
1.22114
1.22057
1.21946
1.21808
1.21711
1.2168
1.21714
1.21868
1.22061
1.22125
1.22097
1.22063
1.21991
1.21782
1.21368
1.20922
1.20778
1.20756
1.20752
1.20832
1.21061
1.21179
1.21166
1.21105
1.20968
1.20762
1.20621
1.20589
1.20598
1.20665
1.20823
1.21046
1.21212
1.21232
1.21186
1.21123
1.21016
1.20794
1.20429
1.2003
1.19809
1.19738
1.19705
1.19742
1.19943
1.20272
1.20582
1.20722
1.20721
1.20666
1.2057
1.20455
1.20321
1.20245
1.20238
1.20243
1.20263
1.2028
1.20265
1.20221
1.20131
1.19971
1.19755
1.19562
1.19452
1.19395
1.19358
1.19329
1.19292
1.1927
1.19289
1.19374
1.19543
1.19766
1.19927
1.19949
1.19908
1.19849
1.19738
1.19491
1.19081
1.18721
1.18594
1.18602
1.18782
1.19191
1.19558
1.19618
1.19562
1.19423
1.19138
1.18689
1.18356
1.18273
1.18296
1.18477
1.18853
1.19105
1.19113
1.1904
1.18862
1.18507
1.18077
1.17884
1.17851
1.17902
1.18137
1.1854
1.18825
1.1886
1.18826
1.18734
1.18542
1.18221
1.1788
1.1771
1.17664
1.17696
1.17887
1.18231
1.18483
1.18518
1.18471
1.18385
1.18242
1.17985
1.17652
1.17414
1.1731
1.17319
1.17516
1.17859
1.1808
1.18097
1.18054
1.17999
1.17889
1.17658
1.17276
1.16951
1.16812
1.16812
1.16985
1.17321
1.17537
1.17522
1.17421
1.1728
1.17106
1.16606
1.52417
3.05524
3.37049
3.30598
3.28296
3.26127
3.24149
3.22219
3.2049
3.19081
3.17712
3.16161
3.14706
3.13555
3.12334
3.11044
3.10368
3.10325
3.1067
3.10702
3.10061
3.08969
3.07628
3.06951
3.06566
3.06562
3.06633
3.06147
3.05291
3.04582
3.04292
3.04444
3.04628
3.04354
3.03584
3.02566
3.01716
3.01083
3.00998
3.01526
3.01897
3.01456
3.00498
2.9932
2.9843
2.97748
2.97216
2.97073
2.97452
2.97861
2.97723
2.97115
2.96201
2.94683
2.93163
2.9236
2.91982
2.92014
2.92618
2.93223
2.93176
2.92724
2.91904
2.9086
2.90193
2.89869
2.89836
2.90051
2.90063
2.89713
2.88937
2.87837
2.87081
2.86798
1.23576
1.24065
1.24189
1.24155
1.24035
1.23713
1.23098
1.22532
1.22355
1.22322
1.22355
1.22597
1.23142
1.23667
1.23802
1.23764
1.23637
1.23396
1.23034
1.22616
1.22259
1.2203
1.21929
1.21893
1.21874
1.21937
1.22194
1.22492
1.22551
1.22522
1.22377
1.22198
1.22146
1.22134
1.22152
1.22204
1.22217
1.22188
1.22156
1.22114
1.22003
1.2173
1.21289
1.20985
1.20902
1.20878
1.20912
1.21108
1.21426
1.21594
1.21602
1.21577
1.21416
1.21166
1.21054
1.21042
1.21051
1.21123
1.21255
1.21343
1.21339
1.21306
1.2127
1.21212
1.2108
1.20808
1.20386
1.20054
1.19945
1.19916
1.19949
1.20142
1.20499
1.20839
1.20978
1.20975
1.20917
1.208
1.20644
1.20454
1.20276
1.20179
1.20153
1.2015
1.20186
1.20215
1.20206
1.20168
1.20086
1.19972
1.19849
1.19741
1.19669
1.19655
1.19711
1.19796
1.1982
1.1984
1.19874
1.19927
1.19993
1.20047
1.20051
1.20031
1.20004
1.19942
1.19786
1.19488
1.19135
1.18924
1.18869
1.18929
1.19202
1.19611
1.19799
1.1978
1.19703
1.19533
1.19188
1.18744
1.18511
1.18464
1.18508
1.18744
1.19118
1.19271
1.19249
1.1915
1.18933
1.18555
1.18206
1.18081
1.18073
1.18189
1.18509
1.18862
1.18972
1.18956
1.18903
1.18777
1.18526
1.18184
1.17949
1.17872
1.17867
1.17981
1.18265
1.18554
1.18634
1.18612
1.18561
1.18464
1.18264
1.1797
1.17731
1.17627
1.17603
1.17712
1.17998
1.1821
1.18227
1.18187
1.18139
1.18059
1.17904
1.17652
1.17396
1.17239
1.17188
1.17268
1.17531
1.17754