/*--------------------------------*- C++ -*----------------------------------*\
  =========                 |
  \\      /  F ield         | OpenFOAM: The Open Source CFD Toolbox
   \\    /   O peration     | Website:  https://openfoam.org
    \\  /    A nd           | Version:  7
     \\/     M anipulation  |
\*---------------------------------------------------------------------------*/
FoamFile
{
    version     2.0;
    format      ascii;
    class       volScalarField;
    location    "1.6";
    object      p;
}
// * * * * * * * * * * * * * * * * * * * * * * * * * * * * * * * * * * * * * //

dimensions      [1 -1 -2 0 0 0 0];

internalField   nonuniform List<scalar> 
16192
(
1.0741
1.07202
1.07206
1.07396
1.08306
1.10151
1.10803
1.10776
1.10532
1.09563
1.07606
1.06526
1.06228
1.05994
1.05719
1.05517
1.05532
1.06036
1.06943
1.06799
1.06408
1.06022
1.05443
1.05202
1.05121
1.05032
1.04969
1.0518
1.06165
1.07133
1.07585
1.07719
1.08037
1.0734
1.06229
1.05545
1.04434
1.03442
1.03209
1.03126
1.0325
1.04402
1.10563
1.31702
1.71476
2.36101
3.01357
3.63674
4.19651
4.73248
4.95564
4.92923
4.85161
4.826
4.76883
4.70609
4.67336
4.65212
4.63193
4.61512
4.59619
4.57489
4.54688
4.51283
4.4846
4.46706
4.44709
4.42455
4.39987
4.36823
4.33117
4.2965
4.27043
4.25622
4.23824
4.19497
4.24377
4.2907
4.33611
4.3653
4.37629
4.37768
4.35094
4.29048
4.27332
4.27444
4.28004
4.28845
4.30288
4.35132
4.36706
4.34936
4.34287
4.33952
4.32622
4.3046
4.27343
4.21972
4.20155
4.20786
4.21842
4.23906
4.26265
4.27902
4.27192
4.21561
4.14444
4.08847
4.06351
4.09046
4.16804
4.25434
4.26463
4.21988
4.16397
4.08848
4.01529
3.95551
3.91734
3.89782
3.88328
3.87803
3.88728
3.88626
3.87307
3.85712
3.83478
3.81241
3.79416
3.77936
3.7769
3.80163
3.83837
3.85239
3.84647
3.8326
3.81568
3.79095
3.75845
3.73247
3.71705
3.70885
3.71095
3.71029
3.70639
3.69974
3.68069
3.63769
3.57003
3.52407
3.50789
3.49688
3.4872
3.48366
3.49642
3.53085
3.55492
3.55716
3.55723
3.55461
3.54774
3.5299
3.48846
3.44752
3.4346
3.43623
3.44438
3.45635
3.47172
3.49547
3.52723
3.5564
3.56749
3.53883
3.48363
3.4426
3.38975
3.35301
3.3324
3.32058
3.30543
3.29843
3.24292
3.04984
2.82205
2.82425
2.89908
2.99349
3.0338
3.00334
2.97011
2.93565
2.92582
2.96656
3.0582
3.15711
3.20233
3.25227
3.36899
3.39751
3.30797
3.20773
3.15663
3.14322
3.20292
3.3532
3.44677
3.43054
3.37139
3.27125
3.18166
3.13746
3.12104
3.10888
3.10594
3.10157
3.09918
3.10552
3.1156
3.12626
3.14936
3.15823
3.15326
3.14723
3.14131
3.13766
3.14403
3.15709
3.13614
3.10487
3.06214
3.00845
2.95984
2.91934
2.87539
2.81244
2.81169
2.84062
2.85902
2.88385
2.91021
2.93089
2.95737
3.01044
3.08351
3.14583
3.18263
3.18712
3.16981
3.12454
3.01782
2.87826
2.79533
1.07187
1.07022
1.07049
1.0729
1.08376
1.10202
1.10679
1.10592
1.1029
1.09327
1.07618
1.0679
1.06546
1.06309
1.06032
1.05804
1.05766
1.0613
1.06795
1.06705
1.06296
1.05924
1.0536
1.05032
1.04948
1.04889
1.04868
1.05011
1.05689
1.06674
1.07331
1.07638
1.08041
1.07655
1.06495
1.05752
1.04803
1.03712
1.03281
1.03797
1.07085
1.19288
1.44764
1.78016
2.06824
2.27821
2.52739
2.82828
3.17506
3.5795
3.92574
4.22578
4.43963
4.67825
4.80045
4.80126
4.77088
4.70223
4.66406
4.63907
4.61073
4.58239
4.55714
4.52758
4.49312
4.46977
4.44695
4.42057
4.39269
4.3597
4.32455
4.29323
4.26564
4.24811
4.24562
4.22506
4.21042
4.23722
4.26817
4.29426
4.31881
4.33733
4.33319
4.30996
4.30424
4.30679
4.31205
4.32168
4.33002
4.35891
4.37551
4.35699
4.35035
4.34431
4.32989
4.30753
4.27681
4.22383
4.18213
4.18764
4.19744
4.20931
4.21977
4.22491
4.22488
4.20262
4.15542
4.11483
4.09605
4.10503
4.14737
4.20116
4.20761
4.16941
4.12607
4.08322
4.03286
3.97702
3.93864
3.91852
3.90364
3.89606
3.89905
3.89522
3.88252
3.86785
3.84885
3.82836
3.80829
3.79165
3.7846
3.80205
3.83322
3.83878
3.82785
3.81506
3.79912
3.77958
3.76422
3.75009
3.73766
3.7291
3.71944
3.71082
3.70314
3.69118
3.665
3.61177
3.54901
3.52797
3.52355
3.51764
3.50979
3.50591
3.51214
3.53772
3.5514
3.54851
3.54495
3.54559
3.54692
3.5368
3.5085
3.47668
3.4598
3.45507
3.45653
3.46343
3.47296
3.48397
3.50219
3.52275
3.52477
3.50079
3.46839
3.45643
3.41797
3.38407
3.3655
3.34649
3.31462
3.28544
3.23731
3.09557
2.88288
2.8081
2.84508
2.88261
2.89215
2.86805
2.86065
2.88965
2.9429
2.99025
3.00431
3.02483
3.08201
3.16376
3.29213
3.38489
3.33259
3.24254
3.1755
3.15202
3.18316
3.24668
3.30795
3.3476
3.33706
3.3104
3.2665
3.19001
3.12188
3.10161
3.0924
3.08896
3.08796
3.09819
3.1179
3.13907
3.16722
3.17136
3.1627
3.14453
3.12327
3.10329
3.09325
3.09998
3.09276
3.07267
3.05664
3.03486
3.00216
2.96267
2.91703
2.84945
2.82665
2.85433
2.8752
2.90353
2.93548
2.96228
2.99335
3.05469
3.11776
3.1007
3.07499
3.05884
3.05091
3.03137
3.00867
2.98569
2.89619
1.07028
1.06811
1.06798
1.07062
1.08412
1.10035
1.10306
1.10243
1.10003
1.09165
1.07575
1.06877
1.06744
1.06591
1.06406
1.06305
1.06313
1.06421
1.06793
1.06757
1.06293
1.05931
1.05407
1.04912
1.04753
1.04685
1.04659
1.0475
1.05357
1.06346
1.07044
1.07363
1.07672
1.07765
1.06702
1.05892
1.05188
1.04665
1.06102
1.1466
1.36818
1.67311
1.97942
2.2076
2.28945
2.25805
2.24714
2.29453
2.43886
2.72056
3.17302
3.66752
4.08654
4.42341
4.81789
4.94126
4.86083
4.74894
4.68077
4.6474
4.60984
4.58
4.565
4.53813
4.50355
4.48391
4.46661
4.43711
4.40369
4.36689
4.32915
4.29446
4.26612
4.24566
4.24207
4.25215
4.25309
4.25421
4.24856
4.23671
4.22571
4.23193
4.25296
4.26346
4.27586
4.29101
4.30908
4.33303
4.35389
4.37344
4.38729
4.36769
4.35146
4.33754
4.31566
4.28065
4.24515
4.20625
4.16712
4.17029
4.17999
4.19542
4.21782
4.23802
4.25555
4.23394
4.17397
4.13868
4.1342
4.14454
4.1599
4.17979
4.1754
4.14044
4.10609
4.07474
4.03394
3.98225
3.94831
3.93058
3.91811
3.91325
3.90625
3.89581
3.88134
3.8622
3.84662
3.83207
3.81773
3.80603
3.80362
3.82043
3.83338
3.82093
3.80569
3.78824
3.76747
3.75314
3.7443
3.74102
3.74645
3.75404
3.74489
3.73469
3.72267
3.70018
3.65591
3.58126
3.51895
3.51274
3.51628
3.52097
3.52727
3.53401
3.54522
3.55706
3.55093
3.54331
3.53243
3.51855
3.50771
3.50434
3.50376
3.49911
3.49326
3.4859
3.48389
3.4868
3.48272
3.47467
3.46798
3.464
3.46216
3.44782
3.41802
3.40348
3.39622
3.38208
3.38128
3.3719
3.33356
3.26271
3.16945
3.06644
2.9351
2.81652
2.79003
2.77994
2.74012
2.70999
2.73962
2.80338
2.88215
2.97095
3.0741
3.17979
3.25566
3.2811
3.29099
3.30204
3.32009
3.31073
3.27031
3.23167
3.19631
3.15747
3.16349
3.24022
3.31698
3.32122
3.30396
3.26692
3.18956
3.12426
3.105
3.09407
3.08803
3.09296
3.11002
3.14196
3.18362
3.19096
3.17777
3.13704
3.09435
3.06889
3.04929
3.04353
3.05364
3.04963
3.04336
3.03629
3.02421
3.00387
2.97412
2.91883
2.86132
2.86758
2.88053
2.89761
2.92229
2.96025
3.02778
3.12085
3.12313
3.06758
2.98274
2.91405
2.90698
2.93963
2.99722
3.01296
2.98377
1.06882
1.06504
1.06433
1.06811
1.08399
1.09569
1.09762
1.09809
1.0967
1.08968
1.0753
1.06851
1.0678
1.06721
1.06679
1.06745
1.06854
1.06893
1.06965
1.0689
1.06314
1.05873
1.05417
1.0483
1.04574
1.04511
1.04492
1.04533
1.04978
1.0596
1.06689
1.071
1.07226
1.07313
1.06898
1.0604
1.0697
1.1216
1.28501
1.58311
1.90148
2.12976
2.28632
2.29675
2.26783
2.27022
2.27502
2.29566
2.31209
2.33915
2.43411
2.66823
3.08628
3.594
4.32624
4.74368
4.8465
4.82672
4.77658
4.70781
4.64514
4.60472
4.58004
4.54966
4.51031
4.48058
4.45451
4.42267
4.38839
4.35315
4.319
4.28539
4.25854
4.24078
4.22322
4.2212
4.24531
4.27001
4.2841
4.28573
4.27218
4.26501
4.27624
4.28152
4.27686
4.27412
4.28104
4.30023
4.33496
4.37527
4.39124
4.37582
4.36631
4.35808
4.32254
4.27772
4.2336
4.18633
4.14764
4.15331
4.16393
4.16836
4.18549
4.2077
4.23373
4.25113
4.20934
4.16005
4.13773
4.12603
4.12404
4.1429
4.15672
4.13698
4.11346
4.08623
4.04143
3.98997
3.96149
3.94373
3.93544
3.93383
3.92283
3.9106
3.89121
3.86268
3.84324
3.82988
3.81718
3.80809
3.81073
3.82854
3.83027
3.81532
3.79771
3.77334
3.75262
3.73967
3.72815
3.72374
3.73826
3.75481
3.74759
3.73872
3.72796
3.70465
3.65277
3.5716
3.514
3.50708
3.5147
3.52319
3.53748
3.5575
3.58033
3.58475
3.57065
3.55069
3.52693
3.50445
3.48784
3.484
3.48889
3.497
3.50423
3.50926
3.51666
3.51614
3.49621
3.4715
3.45087
3.43216
3.41766
3.40728
3.39164
3.36408
3.37899
3.39137
3.40228
3.40557
3.36256
3.2637
3.13956
3.02815
2.93545
2.84811
2.7745
2.70497
2.63347
2.60693
2.63069
2.70734
2.82384
2.95428
3.08191
3.20019
3.29578
3.28317
3.19795
3.2017
3.28966
3.33654
3.29457
3.23195
3.16594
3.12846
3.1185
3.18801
3.29593
3.31347
3.30502
3.28752
3.23361
3.14612
3.11104
3.10067
3.09548
3.0983
3.11325
3.14579
3.1852
3.19191
3.17142
3.12033
3.0735
3.04721
3.02461
3.01363
3.02979
3.03884
3.03567
3.03135
3.02682
3.02072
3.00947
2.98749
2.94756
2.92493
2.92024
2.92534
2.94553
2.99409
3.07477
3.11228
3.07045
2.99472
2.88375
2.82653
2.82169
2.85373
2.94511
3.01134
3.00488
1.06682
1.06067
1.06108
1.06946
1.08599
1.09177
1.09291
1.09384
1.09261
1.0863
1.0743
1.06764
1.0674
1.06788
1.06851
1.0706
1.07257
1.07276
1.07196
1.07152
1.06568
1.05961
1.05489
1.04852
1.0439
1.04281
1.04278
1.04375
1.04899
1.05902
1.06445
1.06747
1.06847
1.06828
1.06825
1.1018
1.22683
1.47549
1.79278
2.07705
2.25735
2.2899
2.27456
2.2749
2.2885
2.31821
2.32089
2.31018
2.29217
2.27909
2.28303
2.3074
2.39675
2.61441
3.13099
3.89582
4.53504
4.77385
4.76146
4.72698
4.69193
4.63501
4.58058
4.53577
4.49012
4.45681
4.43631
4.41345
4.3833
4.3463
4.30473
4.26878
4.24894
4.24118
4.23434
4.22701
4.22799
4.23304
4.239
4.25141
4.26698
4.28081
4.30017
4.31633
4.32055
4.31455
4.30472
4.31952
4.34187
4.36568
4.3763
4.37422
4.37822
4.37719
4.33997
4.28195
4.23354
4.18827
4.14749
4.14868
4.17582
4.16922
4.17198
4.19956
4.22056
4.24371
4.24152
4.18286
4.12903
4.10172
4.09982
4.13004
4.155
4.14317
4.12533
4.09132
4.03286
3.98635
3.96583
3.95317
3.95831
3.96434
3.95328
3.9384
3.91129
3.87256
3.85047
3.83742
3.82504
3.81716
3.82249
3.83265
3.822
3.80618
3.78641
3.76068
3.74419
3.73179
3.72004
3.71494
3.73172
3.75194
3.74612
3.73667
3.7235
3.69443
3.63771
3.56961
3.51984
3.50769
3.51745
3.52708
3.54437
3.57236
3.59654
3.59978
3.58974
3.57509
3.5475
3.51152
3.4862
3.47717
3.47981
3.48713
3.49414
3.50465
3.52196
3.52903
3.51623
3.49324
3.46381
3.43028
3.40059
3.38478
3.37896
3.36164
3.34706
3.37193
3.3843
3.39869
3.37004
3.28623
3.15929
3.02532
2.91903
2.84249
2.76455
2.67373
2.6212
2.60697
2.62813
2.70701
2.82486
2.93676
3.04246
3.1465
3.24484
3.30741
3.2874
3.27285
3.33024
3.31552
3.24894
3.181
3.12698
3.10102
3.10542
3.18914
3.30027
3.31446
3.30636
3.28852
3.23985
3.16298
3.12503
3.12062
3.12273
3.12884
3.14302
3.16817
3.18827
3.16995
3.1197
3.06301
3.0329
3.01348
2.99861
3.00144
3.02759
3.03526
3.03335
3.02873
3.0199
3.01266
3.00573
2.99467
2.99154
3.00733
3.00633
3.00667
3.02151
3.056
3.08674
3.05854
2.99039
2.91256
2.83839
2.7847
2.7708
2.80918
2.91566
3.00111
2.9951
1.06583
1.05795
1.05984
1.0721
1.08651
1.08941
1.08993
1.09015
1.08814
1.08207
1.07248
1.06648
1.06598
1.06711
1.06918
1.07365
1.07641
1.07625
1.07448
1.07327
1.06782
1.06066
1.05518
1.04854
1.043
1.04158
1.04145
1.04286
1.04957
1.05939
1.06297
1.06425
1.06632
1.08045
1.15932
1.37214
1.69152
1.98204
2.20224
2.29881
2.27637
2.26936
2.28277
2.30976
2.33114
2.32691
2.31278
2.28857
2.27755
2.27565
2.28819
2.30296
2.29832
2.29787
2.3509
2.65397
3.33801
4.17872
4.50009
4.6873
4.66969
4.64706
4.62533
4.57752
4.51321
4.45661
4.41699
4.38127
4.34103
4.29878
4.26764
4.24692
4.22536
4.21546
4.21252
4.21251
4.21589
4.22369
4.23472
4.2487
4.25977
4.26371
4.27175
4.2871
4.30012
4.31036
4.32107
4.3379
4.35665
4.37193
4.37007
4.35598
4.37344
4.38291
4.35252
4.31013
4.26707
4.22042
4.17004
4.14523
4.17863
4.17232
4.17436
4.21121
4.22261
4.22991
4.23148
4.16823
4.1218
4.11194
4.13644
4.17664
4.17016
4.14758
4.10859
4.04883
3.99519
3.97547
3.96526
3.96852
3.99317
3.9944
3.98149
3.96341
3.92747
3.87941
3.85619
3.84266
3.83048
3.82381
3.8311
3.83259
3.81831
3.8033
3.78442
3.75722
3.73457
3.72129
3.7099
3.70382
3.71714
3.73803
3.73364
3.72388
3.71087
3.68599
3.63962
3.57942
3.53162
3.51464
3.52177
3.53238
3.54943
3.57432
3.59303
3.59679
3.5935
3.59113
3.57903
3.54728
3.51206
3.49052
3.48279
3.48266
3.48111
3.48497
3.49856
3.50383
3.4988
3.48874
3.47219
3.44487
3.40691
3.37239
3.35553
3.35206
3.34233
3.31884
3.33834
3.34985
3.33663
3.284
3.19427
3.07655
2.94684
2.83964
2.74598
2.65572
2.61773
2.61525
2.63319
2.69785
2.79496
2.8886
2.99524
3.09796
3.18705
3.26577
3.29611
3.30857
3.34235
3.28351
3.20705
3.1537
3.12922
3.12485
3.15038
3.20639
3.25787
3.25933
3.25028
3.23407
3.1981
3.15733
3.13903
3.14388
3.15576
3.16624
3.17668
3.1852
3.17941
3.1263
3.05335
3.01718
3.0034
2.98984
2.9867
3.01278
3.03516
3.03674
3.03408
3.02552
3.01236
3.0061
3.00378
2.9798
3.00818
3.05877
3.08685
3.10951
3.12254
3.11728
3.08026
3.00509
2.91111
2.85624
2.80935
2.7659
2.74904
2.78946
2.87713
2.96691
2.98192
1.06813
1.06321
1.0655
1.07703
1.08681
1.08806
1.0871
1.08598
1.08329
1.07754
1.06987
1.06602
1.06566
1.06672
1.06903
1.07469
1.07926
1.07985
1.07895
1.07649
1.07064
1.0634
1.0563
1.04821
1.04373
1.04265
1.04228
1.04448
1.05245
1.05927
1.06373
1.07466
1.12281
1.28385
1.56314
1.8884
2.13889
2.28521
2.29353
2.2708
2.27477
2.28961
2.32193
2.32772
2.31987
2.30597
2.2882
2.28225
2.28507
2.30045
2.30511
2.29703
2.28155
2.26344
2.25264
2.26596
2.38957
2.90079
3.61454
4.31153
4.52596
4.61093
4.63176
4.61131
4.56073
4.50794
4.44184
4.37629
4.31462
4.27388
4.25518
4.23936
4.22211
4.20703
4.19241
4.18716
4.18563
4.18514
4.19308
4.21653
4.25243
4.28134
4.29625
4.30117
4.30005
4.29872
4.30644
4.3205
4.3376
4.35817
4.3754
4.38237
4.38462
4.38077
4.34693
4.32026
4.29003
4.25694
4.21305
4.17674
4.19622
4.18312
4.18395
4.23983
4.24621
4.23441
4.20688
4.15093
4.13364
4.15541
4.19624
4.19373
4.16655
4.12629
4.06373
4.00681
3.98418
3.97688
3.98054
4.00298
4.01581
4.00635
3.99261
3.97387
3.93655
3.8932
3.8708
3.85492
3.84152
3.83474
3.83829
3.83122
3.81829
3.80594
3.78945
3.76137
3.7278
3.70713
3.69432
3.68578
3.69112
3.70938
3.71113
3.70514
3.69893
3.68612
3.65417
3.59892
3.55233
3.53293
3.53281
3.53937
3.54925
3.56429
3.58082
3.58816
3.59062
3.59354
3.59218
3.57766
3.54664
3.51697
3.49912
3.48925
3.4772
3.46714
3.47127
3.47328
3.47341
3.46994
3.46537
3.45224
3.42516
3.39031
3.36159
3.34768
3.34021
3.30623
3.27662
3.28673
3.26417
3.22711
3.16207
3.07484
2.97458
2.86101
2.76113
2.68219
2.65117
2.64813
2.66277
2.7197
2.79358
2.86254
2.96228
3.07571
3.16727
3.24204
3.29383
3.31841
3.33171
3.29109
3.23623
3.19576
3.17961
3.17887
3.17624
3.17369
3.18445
3.18178
3.1728
3.16762
3.16427
3.16792
3.17688
3.18418
3.19067
3.19438
3.19232
3.17939
3.1514
3.09234
3.03178
3.01015
3.00182
2.99431
3.00485
3.03264
3.03969
3.03747
3.02762
3.01043
2.99483
2.9919
2.99976
2.98512
3.02043
3.08012
3.12616
3.1704
3.17701
3.15681
3.10583
2.99374
2.8873
2.82632
2.78363
2.75836
2.75578
2.7968
2.85501
2.90996
2.92321
1.0716
1.07053
1.07254
1.0761
1.08076
1.08262
1.08182
1.08042
1.07829
1.07413
1.06863
1.06683
1.06694
1.06772
1.06951
1.07363
1.07917
1.081
1.08035
1.07848
1.07413
1.06628
1.05636
1.04881
1.04591
1.04474
1.04417
1.04803
1.05674
1.06745
1.09945
1.22252
1.46746
1.80546
2.06654
2.25676
2.30284
2.28235
2.27912
2.28867
2.31457
2.33105
2.32629
2.31266
2.29478
2.28682
2.28454
2.29356
2.30524
2.3031
2.29629
2.2843
2.26915
2.2593
2.25617
2.25016
2.247
2.29062
2.52652
3.09758
3.81893
4.28257
4.50974
4.56512
4.56302
4.52796
4.46463
4.39634
4.32962
4.29333
4.26993
4.251
4.23863
4.22598
4.2123
4.20957
4.21513
4.2055
4.19871
4.2009
4.21462
4.23539
4.24922
4.24218
4.21883
4.20947
4.23219
4.27146
4.31717
4.36653
4.40608
4.43502
4.4379
4.40168
4.34086
4.30458
4.2947
4.27603
4.24928
4.22989
4.24605
4.2175
4.21717
4.25487
4.25918
4.24652
4.20098
4.15535
4.15009
4.17089
4.17964
4.16427
4.14041
4.09265
4.03838
4.00828
3.99559
3.9942
4.00751
4.02091
4.01457
4.00317
3.98827
3.96841
3.9366
3.90875
3.89274
3.87712
3.8641
3.85851
3.84966
3.83511
3.82215
3.80882
3.78971
3.75732
3.7232
3.70197
3.68681
3.67759
3.67415
3.68056
3.69567
3.70368
3.70638
3.69953
3.67004
3.6117
3.57151
3.55718
3.55045
3.54882
3.55011
3.55542
3.56741
3.57898
3.58494
3.58755
3.58717
3.58186
3.56252
3.5362
3.51718
3.50299
3.48752
3.46612
3.45181
3.44913
3.44962
3.45255
3.44989
3.44064
3.42389
3.40136
3.37962
3.36361
3.34492
3.31941
3.28624
3.2183
3.20772
3.17635
3.12279
3.05161
2.99409
2.90564
2.79112
2.72466
2.69542
2.67274
2.67952
2.73978
2.81436
2.87657
2.97011
3.08574
3.1747
3.24305
3.29442
3.31956
3.33901
3.3358
3.30262
3.254
3.19498
3.16445
3.14625
3.13026
3.11393
3.10772
3.11602
3.13886
3.17082
3.19142
3.19643
3.18655
3.16538
3.1566
3.15331
3.14161
3.11768
3.08533
3.05197
3.02466
3.01096
3.00958
3.02703
3.0429
3.04507
3.03844
3.01815
2.99529
2.98508
2.98668
3.00004
3.00575
3.04022
3.09814
3.14264
3.17736
3.17479
3.15165
3.08496
2.96642
2.88733
2.84149
2.80358
2.78104
2.78526
2.79528
2.79588
2.79673
2.83466
1.0767
1.07696
1.07783
1.07642
1.07617
1.078
1.07834
1.07734
1.0759
1.07356
1.06977
1.06697
1.06647
1.06645
1.06691
1.06959
1.07605
1.08036
1.08011
1.07898
1.07595
1.06817
1.05747
1.05134
1.04879
1.04737
1.04835
1.05758
1.08476
1.17403
1.37913
1.71374
2.01025
2.22889
2.31663
2.29619
2.27956
2.28425
2.31048
2.33417
2.3326
2.3232
2.30529
2.29169
2.28683
2.28724
2.30014
2.30621
2.30096
2.29194
2.28131
2.27221
2.26613
2.26482
2.25988
2.24804
2.23749
2.23403
2.24209
2.32644
2.68035
3.25007
3.9158
4.27013
4.46914
4.45878
4.43696
4.38665
4.32862
4.29344
4.26432
4.2417
4.22991
4.22128
4.21298
4.21023
4.21143
4.20888
4.19925
4.19267
4.19015
4.19313
4.19566
4.19032
4.17439
4.17178
4.19639
4.24112
4.31073
4.38112
4.42886
4.46151
4.47449
4.44481
4.37643
4.31821
4.31203
4.30537
4.28728
4.27712
4.27591
4.2718
4.25546
4.25177
4.24796
4.23696
4.21218
4.19341
4.18145
4.16289
4.14645
4.13352
4.11319
4.08079
4.05344
4.03626
4.02423
4.02221
4.0273
4.02283
4.01147
3.99863
3.98287
3.96088
3.93542
3.91968
3.90672
3.89574
3.8886
3.88131
3.86576
3.84897
3.83211
3.81409
3.78815
3.75243
3.72551
3.71126
3.69727
3.68579
3.68205
3.68409
3.6804
3.6797
3.6824
3.67758
3.6526
3.60866
3.58307
3.57524
3.56793
3.56101
3.556
3.55686
3.56547
3.57584
3.58158
3.58014
3.57717
3.57319
3.56106
3.54389
3.52953
3.51793
3.50572
3.48716
3.46173
3.43983
3.43362
3.4346
3.43273
3.42597
3.41273
3.40151
3.38838
3.37409
3.35331
3.33005
3.32071
3.25249
3.15729
3.14955
3.1045
3.04237
3.00335
2.93619
2.81829
2.76545
2.75044
2.70985
2.70614
2.77785
2.85761
2.90722
3.0031
3.12468
3.20705
3.26311
3.30021
3.33604
3.36799
3.34087
3.30588
3.25977
3.19351
3.13211
3.09842
3.08048
3.07241
3.08419
3.12413
3.17358
3.19273
3.19741
3.18169
3.14422
3.11558
3.10611
3.10088
3.10039
3.09823
3.0947
3.08939
3.07927
3.06767
3.05929
3.05347
3.0496
3.04587
3.03191
3.00749
2.99098
2.98922
2.99457
3.00895
3.02869
3.05783
3.10187
3.1346
3.14806
3.13729
3.10537
3.03112
2.95568
2.91543
2.88264
2.85547
2.8367
2.82401
2.78461
2.75976
2.74985
2.7865
1.08184
1.08278
1.08195
1.07786
1.07529
1.07669
1.07808
1.07738
1.07617
1.07439
1.07044
1.06631
1.06422
1.06326
1.06325
1.06608
1.07391
1.07928
1.07953
1.07855
1.07585
1.06841
1.05882
1.05405
1.05288
1.0538
1.06636
1.13323
1.31285
1.61395
1.93711
2.19713
2.32387
2.31471
2.29622
2.29987
2.31276
2.33542
2.34297
2.33322
2.31731
2.29977
2.29315
2.29036
2.29322
2.30357
2.30477
2.29829
2.29167
2.28442
2.27539
2.27076
2.26854
2.26176
2.25114
2.23933
2.233
2.22967
2.23046
2.2374
2.26931
2.39667
2.77522
3.34695
3.94716
4.22408
4.31874
4.32242
4.29414
4.27648
4.24605
4.21607
4.2011
4.19305
4.1958
4.20402
4.20613
4.20237
4.18899
4.17208
4.16472
4.16259
4.16604
4.18522
4.20241
4.21588
4.23973
4.27706
4.31735
4.34014
4.35411
4.37065
4.38596
4.3876
4.3692
4.33756
4.32345
4.31433
4.30841
4.3074
4.30956
4.30954
4.29492
4.27253
4.2385
4.21631
4.2157
4.21627
4.20197
4.16351
4.12415
4.09761
4.08046
4.0747
4.06864
4.06481
4.06105
4.05518
4.0446
4.02964
4.01363
3.99584
3.97338
3.95036
3.93315
3.91926
3.90961
3.90838
3.91202
3.90183
3.88736
3.87116
3.84967
3.81958
3.78275
3.7512
3.73503
3.72368
3.71427
3.70806
3.7008
3.69157
3.68126
3.67099
3.66489
3.65185
3.62074
3.58967
3.58263
3.5775
3.57352
3.56994
3.56896
3.57299
3.58077
3.58459
3.57972
3.57341
3.56652
3.5543
3.54014
3.52987
3.52477
3.52475
3.52179
3.51075
3.4923
3.46786
3.44464
3.42847
3.41645
3.4064
3.40065
3.38611
3.37139
3.35846
3.34307
3.32404
3.30518
3.26736
3.17878
3.12705
3.10646
3.05359
3.0105
2.94099
2.8304
2.79587
2.80068
2.75568
2.75694
2.83348
2.9077
2.95095
3.0444
3.15555
3.22465
3.26347
3.29361
3.33755
3.32714
3.29374
3.26782
3.2229
3.17771
3.1466
3.11927
3.10011
3.09971
3.13844
3.19432
3.20442
3.19168
3.16037
3.11664
3.06852
3.04802
3.04551
3.05208
3.07046
3.09375
3.11947
3.14428
3.16191
3.16366
3.14771
3.10913
3.0662
3.03561
3.01103
2.99567
2.99087
2.99146
2.99602
3.00768
3.02741
3.04741
3.0716
3.08948
3.08776
3.07177
3.03116
2.97518
2.95129
2.93748
2.91954
2.90788
2.90006
2.85807
2.80982
2.77059
2.7542
2.79754
1.08643
1.08593
1.0832
1.07894
1.07682
1.07817
1.07791
1.07629
1.07474
1.07205
1.06755
1.06432
1.06202
1.0604
1.06059
1.06499
1.07362
1.0778
1.07831
1.07744
1.07399
1.06648
1.05995
1.05984
1.06493
1.10029
1.2263
1.50989
1.85775
2.12672
2.31536
2.32617
2.31206
2.3197
2.32763
2.34528
2.35076
2.34469
2.33158
2.31333
2.30305
2.29843
2.29682
2.30063
2.30281
2.29964
2.29567
2.29184
2.28795
2.28357
2.27972
2.27298
2.26231
2.25061
2.24097
2.23532
2.23227
2.23159
2.23593
2.23708
2.23544
2.23825
2.27382
2.42817
2.79972
3.36041
3.83834
4.18002
4.2174
4.23455
4.21147
4.17496
4.16289
4.15554
4.16035
4.17081
4.17304
4.17288
4.16413
4.14672
4.13517
4.1312
4.13606
4.15552
4.19227
4.23823
4.27389
4.28897
4.29509
4.29721
4.29826
4.30701
4.31241
4.33035
4.35627
4.37353
4.36576
4.3473
4.33615
4.33794
4.34796
4.34718
4.33292
4.2998
4.23729
4.20411
4.21068
4.21779
4.20686
4.17051
4.12474
4.09234
4.07273
4.06226
4.0599
4.07307
4.08037
4.07426
4.06316
4.04789
4.02565
3.99286
3.96252
3.94219
3.92429
3.9096
3.90341
3.91391
3.92459
3.91687
3.90564
3.89116
3.86585
3.82235
3.77853
3.7585
3.74846
3.74011
3.73644
3.73006
3.71782
3.70361
3.68851
3.67297
3.65204
3.62185
3.58567
3.57091
3.56731
3.56618
3.56883
3.57627
3.59071
3.60573
3.60659
3.59471
3.58014
3.56294
3.54103
3.52164
3.51197
3.51027
3.51357
3.52429
3.52862
3.52365
3.51556
3.50524
3.48662
3.45092
3.40763
3.38439
3.37293
3.36346
3.3629
3.36772
3.35805
3.34456
3.32482
3.30295
3.26597
3.2093
3.17552
3.10086
3.02101
2.93722
2.86135
2.84766
2.85786
2.81357
2.82928
2.91148
2.98128
3.02713
3.11051
3.19801
3.24144
3.25643
3.26997
3.28937
3.25853
3.23485
3.21202
3.1826
3.16422
3.15332
3.14801
3.16106
3.20474
3.2432
3.23533
3.20681
3.16815
3.11491
3.04366
2.9962
2.98736
2.99123
3.00599
3.04299
3.10743
3.18147
3.22922
3.24314
3.23874
3.21702
3.16185
3.0814
3.01907
2.98943
2.98007
2.97893
2.97837
2.97823
2.98201
2.99963
3.0249
3.03439
3.03729
3.02855
3.00811
2.972
2.95015
2.94523
2.95168
2.96538
2.96441
2.94096
2.90418
2.8589
2.82982
2.82759
2.87054
1.09182
1.08643
1.08256
1.07939
1.07826
1.07894
1.07739
1.07515
1.07238
1.06807
1.06527
1.06321
1.06086
1.05914
1.0606
1.06705
1.07435
1.07637
1.07596
1.07351
1.06893
1.0644
1.06629
1.08361
1.17227
1.38838
1.72929
2.06121
2.28851
2.31534
2.32198
2.34086
2.35811
2.36452
2.36185
2.35424
2.34222
2.32641
2.31737
2.31387
2.31354
2.30982
2.30522
2.30085
2.29561
2.29116
2.28892
2.2919
2.29302
2.28897
2.27965
2.26486
2.25072
2.24306
2.23883
2.23542
2.23469
2.2372
2.23559
2.23181
2.22962
2.2287
2.22745
2.23244
2.26976
2.438
2.78672
3.31384
3.74589
4.03773
4.1464
4.16918
4.17403
4.15491
4.13753
4.13579
4.12291
4.11266
4.10578
4.09426
4.08185
4.07626
4.08124
4.1051
4.15174
4.20904
4.26086
4.28675
4.29828
4.29198
4.2763
4.27819
4.28634
4.30868
4.36352
4.42037
4.44431
4.43431
4.4154
4.39848
4.39075
4.37987
4.35556
4.30791
4.25468
4.22525
4.2025
4.17739
4.164
4.15509
4.1391
4.11872
4.09483
4.07867
4.07513
4.08081
4.09022
4.08511
4.07605
4.06352
4.03609
3.98867
3.95395
3.9328
3.91398
3.89858
3.89501
3.91597
3.93234
3.92693
3.91745
3.90259
3.87079
3.82202
3.78525
3.77114
3.76328
3.75934
3.75868
3.75105
3.73908
3.72256
3.69934
3.67038
3.63265
3.59159
3.56866
3.56137
3.55698
3.55504
3.56314
3.58524
3.61501
3.62647
3.6166
3.60022
3.57706
3.54909
3.52172
3.5034
3.49636
3.49524
3.49947
3.51283
3.52411
3.52423
3.52448
3.52467
3.52015
3.49583
3.43575
3.37294
3.35121
3.34271
3.34078
3.35663
3.38667
3.3914
3.38321
3.37322
3.34713
3.29209
3.24284
3.14939
3.02631
2.97123
2.9329
2.94355
2.94397
2.89027
2.91127
2.98482
3.05021
3.10462
3.16905
3.22178
3.23305
3.22806
3.22591
3.21243
3.19207
3.18265
3.17204
3.1649
3.16306
3.16821
3.19592
3.26168
3.31318
3.30722
3.27125
3.21073
3.13385
3.04447
2.97695
2.95339
2.95408
2.96284
2.98337
3.05013
3.16547
3.23826
3.25798
3.25468
3.23901
3.2086
3.16451
3.10589
3.04653
2.99864
2.97224
2.96336
2.96099
2.9595
2.96126
2.97778
3.00527
3.0095
3.00029
2.98707
2.9647
2.94574
2.94012
2.94097
2.95035
2.96308
2.96268
2.94898
2.93403
2.92869
2.94145
2.95285
2.9351
1.09151
1.08413
1.07988
1.07886
1.0781
1.07781
1.07615
1.07364
1.07006
1.06556
1.06323
1.06171
1.06052
1.06095
1.06595
1.07155
1.07287
1.07301
1.07189
1.06917
1.06655
1.07341
1.11963
1.27519
1.60265
1.93111
2.23352
2.3294
2.31748
2.33571
2.35515
2.37226
2.3748
2.36856
2.35177
2.33529
2.32787
2.32707
2.33078
2.32853
2.32196
2.31222
2.30232
2.29575
2.2901
2.28762
2.29371
2.29851
2.2939
2.28491
2.2699
2.25444
2.24597
2.24237
2.24001
2.23902
2.23715
2.23368
2.23115
2.22838
2.22771
2.22756
2.22204
2.21706
2.21166
2.21568
2.25301
2.40677
2.74947
3.21291
3.63521
3.90576
4.04986
4.1043
4.14554
4.14522
4.10662
4.0643
4.04877
4.03885
4.03172
4.02451
4.02555
4.03948
4.07561
4.14037
4.21019
4.25216
4.2779
4.294
4.2939
4.28296
4.28549
4.30143
4.34268
4.41505
4.48615
4.50195
4.49055
4.46448
4.43528
4.4047
4.36729
4.32352
4.2856
4.25331
4.21145
4.16501
4.13548
4.12559
4.12797
4.13397
4.12847
4.11491
4.10423
4.10229
4.10219
4.09372
4.08399
4.06775
4.03161
3.984
3.95151
3.9272
3.90705
3.89402
3.89978
3.93081
3.94063
3.9329
3.92185
3.90206
3.86306
3.82022
3.79723
3.78549
3.77874
3.77597
3.77332
3.766
3.75629
3.74187
3.7155
3.67471
3.62621
3.58344
3.56554
3.56062
3.55597
3.55579
3.56856
3.59607
3.62107
3.61829
3.60479
3.58998
3.56773
3.53495
3.50987
3.4962
3.48781
3.48498
3.48482
3.48833
3.50253
3.52294
3.52986
3.53005
3.5297
3.51963
3.48069
3.40918
3.35919
3.33951
3.32929
3.33504
3.36007
3.36392
3.35058
3.33774
3.31136
3.26624
3.22391
3.15392
3.03359
2.98644
2.98745
3.00183
2.98579
2.94198
2.97665
3.0537
3.13391
3.19115
3.20883
3.21075
3.19912
3.18552
3.1706
3.14987
3.13661
3.13389
3.1396
3.15185
3.16947
3.20362
3.27027
3.33534
3.34545
3.33101
3.29372
3.21056
3.07801
2.98419
2.95129
2.93767
2.94002
2.95012
2.99566
3.09278
3.15929
3.18314
3.19869
3.20615
3.19718
3.17172
3.13637
3.11228
3.08636
3.05073
3.00427
2.9683
2.95637
2.95246
2.95331
2.96256
2.97735
2.98457
2.97805
2.96516
2.94826
2.93495
2.92547
2.91762
2.91457
2.92081
2.93545
2.95523
2.98844
3.03667
3.06605
3.06268
2.99672
1.08838
1.08424
1.07929
1.07752
1.07707
1.07619
1.07463
1.07203
1.06819
1.06457
1.06235
1.06086
1.06119
1.0665
1.0735
1.07369
1.07194
1.07099
1.06942
1.07146
1.09342
1.1872
1.43424
1.78734
2.14791
2.25885
2.31309
2.36721
2.3794
2.38145
2.37917
2.37046
2.35661
2.34545
2.34115
2.34252
2.34961
2.3494
2.34218
2.33211
2.31842
2.30637
2.29939
2.29427
2.29392
2.29947
2.29859
2.29183
2.28513
2.27583
2.2616
2.25032
2.24692
2.24402
2.24046
2.23635
2.23258
2.22992
2.22786
2.22943
2.22968
2.22418
2.21806
2.21173
2.20404
2.19754
2.1914
2.19479
2.23115
2.36503
2.68482
3.09398
3.50497
3.78864
3.97852
4.03184
4.0391
4.05658
4.06132
4.04391
4.01952
4
3.98744
3.98438
4.008
4.05174
4.09562
4.14085
4.19578
4.251
4.28783
4.31069
4.31301
4.31416
4.33211
4.38274
4.46339
4.50906
4.51036
4.49292
4.45572
4.40095
4.34458
4.31495
4.30154
4.27421
4.22692
4.17371
4.14444
4.13665
4.13334
4.13099
4.13513
4.1358
4.13269
4.12802
4.11592
4.10211
4.08523
4.05607
4.01128
3.97632
3.95402
3.93069
3.91176
3.90699
3.92859
3.93855
3.92722
3.9163
3.90208
3.8764
3.84056
3.81921
3.80937
3.80199
3.79666
3.79181
3.78532
3.77631
3.76536
3.75039
3.72832
3.69528
3.64863
3.60229
3.58527
3.57941
3.57396
3.57278
3.57977
3.59363
3.60343
3.5961
3.58544
3.57478
3.55686
3.53004
3.50896
3.49622
3.48496
3.47872
3.4767
3.47875
3.49617
3.52077
3.52403
3.52209
3.51946
3.51113
3.48984
3.45645
3.41592
3.37831
3.34973
3.33395
3.33635
3.33021
3.3066
3.28185
3.24509
3.19084
3.12815
3.07261
3.02042
3.02019
3.04119
3.06098
3.04396
3.03563
3.08346
3.16174
3.22255
3.22842
3.22123
3.20097
3.16478
3.14361
3.12823
3.11438
3.10716
3.10894
3.11546
3.13604
3.17484
3.23679
3.30737
3.33554
3.3361
3.32346
3.28992
3.18977
3.05747
2.98918
2.96257
2.95263
2.95569
2.98529
3.06939
3.14346
3.15646
3.15658
3.15011
3.13189
3.1007
3.08342
3.08859
3.09805
3.09875
3.09085
3.06987
3.03025
2.98582
2.96411
2.95616
2.95067
2.95134
2.9569
2.9542
2.94301
2.92783
2.9098
2.89445
2.88405
2.88101
2.8907
2.92686
3.00532
3.08883
3.12189
3.11959
3.10885
3.03127
1.09054
1.08775
1.08271
1.07696
1.07469
1.07342
1.07205
1.07017
1.06789
1.06587
1.06396
1.06333
1.06695
1.07543
1.07791
1.0753
1.07262
1.07114
1.0778
1.12947
1.31973
1.63314
2.00718
2.23195
2.27243
2.32609
2.37949
2.39787
2.39737
2.3816
2.35586
2.34146
2.33511
2.33791
2.35357
2.36536
2.3618
2.35253
2.33951
2.32444
2.31765
2.31312
2.30883
2.3064
2.30756
2.30268
2.29397
2.28541
2.27767
2.2688
2.25814
2.24846
2.24331
2.23961
2.23581
2.23199
2.22873
2.22748
2.23037
2.2305
2.2256
2.21992
2.21384
2.20711
2.19977
2.19227
2.18362
2.17674
2.17301
2.17536
2.20685
2.31795
2.58232
2.97247
3.36137
3.62285
3.80652
3.93832
3.98191
3.98153
3.96814
3.96446
3.97105
3.98431
3.98551
3.98334
3.9949
4.02308
4.07189
4.14053
4.22498
4.29412
4.32977
4.33743
4.34205
4.36859
4.42012
4.47665
4.50875
4.50304
4.47423
4.42187
4.35654
4.29761
4.2625
4.2488
4.23516
4.20729
4.18504
4.16832
4.15477
4.14801
4.14566
4.14485
4.14651
4.1398
4.12699
4.10605
4.07245
4.02639
3.98991
3.97072
3.95242
3.93481
3.92848
3.94775
3.95919
3.94836
3.93409
3.91002
3.87428
3.83919
3.8225
3.81486
3.81398
3.8179
3.81323
3.80474
3.79403
3.78046
3.7627
3.74412
3.72487
3.70359
3.67698
3.64363
3.62286
3.61585
3.60885
3.59986
3.5916
3.58975
3.58893
3.57834
3.56736
3.55594
3.54292
3.52566
3.51118
3.50036
3.48976
3.48236
3.48044
3.48356
3.49454
3.4989
3.49746
3.49521
3.49124
3.48322
3.46978
3.46335