/*--------------------------------*- C++ -*----------------------------------*\
  =========                 |
  \\      /  F ield         | OpenFOAM: The Open Source CFD Toolbox
   \\    /   O peration     | Website:  https://openfoam.org
    \\  /    A nd           | Version:  7
     \\/     M anipulation  |
\*---------------------------------------------------------------------------*/
FoamFile
{
    version     2.0;
    format      ascii;
    class       volVectorField;
    location    "1.6";
    object      U;
}
// * * * * * * * * * * * * * * * * * * * * * * * * * * * * * * * * * * * * * //

dimensions      [0 1 -1 0 0 0 0];

internalField   nonuniform List<vector> 
16192
(
(2.58535 -0.00220068 0)
(2.58905 -0.0022645 0)
(2.59303 -0.00223852 0)
(2.59783 -0.00208691 0)
(2.60987 -0.00162379 0)
(2.62766 -0.000965329 0)
(2.63482 -0.000790947 0)
(2.63693 -0.000955486 0)
(2.63853 -0.00161888 0)
(2.63402 -0.00271782 0)
(2.62262 -0.00339316 0)
(2.61867 -0.00280474 0)
(2.61998 -0.00199341 0)
(2.62118 -0.00142039 0)
(2.62214 -0.000796406 0)
(2.62374 -4.53001e-05 0)
(2.62651 0.000377518 0)
(2.6328 0.000425889 0)
(2.6417 0.000166895 0)
(2.64269 -1.23419e-05 0)
(2.64198 -0.000115831 0)
(2.64046 -0.000429205 0)
(2.63904 -0.000330398 0)
(2.64086 -0.000337323 0)
(2.64319 -0.000433772 0)
(2.6457 -0.000514445 0)
(2.64839 -0.000417889 0)
(2.65355 -0.000252309 0)
(2.66276 -0.000691558 0)
(2.67079 -0.00132732 0)
(2.67466 -0.0013231 0)
(2.67719 -0.000878062 0)
(2.68092 -0.000344259 0)
(2.67536 0.000243205 0)
(2.66975 0.000507613 0)
(2.66406 0.000639008 0)
(2.65606 0.000619187 0)
(2.65207 0.00121008 0)
(2.65229 0.000933392 0)
(2.65299 0.00139259 0)
(2.65507 0.000810735 0)
(2.65191 -0.00432046 0)
(2.62558 -0.0295953 0)
(2.54307 -0.103976 0)
(2.42254 -0.20898 0)
(2.28391 -0.277698 0)
(2.19367 -0.30355 0)
(2.12585 -0.287805 0)
(2.05346 -0.256471 0)
(2.01392 -0.197112 0)
(1.94756 -0.131405 0)
(1.9491 -0.0637415 0)
(1.94054 -0.0211 0)
(1.92255 0.00785606 0)
(1.90405 0.0193656 0)
(1.88286 0.017997 0)
(1.87711 0.00538225 0)
(1.88359 0.000279052 0)
(1.89223 0.000545549 0)
(1.90117 0.00149926 0)
(1.91082 0.00405555 0)
(1.91865 0.0102068 0)
(1.92184 0.0168999 0)
(1.91978 0.0188758 0)
(1.91723 0.0128105 0)
(1.92181 0.00503369 0)
(1.92987 0.000230124 0)
(1.93698 -0.00146032 0)
(1.94035 -9.72785e-06 0)
(1.93866 0.00325135 0)
(1.9311 0.00769413 0)
(1.91631 0.0134145 0)
(1.89623 0.016598 0)
(1.87786 0.0161722 0)
(1.85981 0.00991599 0)
(1.84212 0.00303122 0)
(1.84876 0.00154755 0)
(1.85308 0.00107489 0)
(1.85753 -1.32517e-05 0)
(1.85761 -0.00275434 0)
(1.85543 -0.00420237 0)
(1.85221 -0.00448604 0)
(1.84232 -0.00332582 0)
(1.82284 -0.00101274 0)
(1.81297 0.000548538 0)
(1.80452 0.00158212 0)
(1.79733 0.000292653 0)
(1.79512 -0.000307825 0)
(1.79461 0.00378228 0)
(1.79775 0.00818002 0)
(1.78941 0.0114295 0)
(1.77217 0.0131867 0)
(1.75259 0.0207527 0)
(1.72395 0.0281419 0)
(1.68636 0.0331343 0)
(1.64293 0.0354172 0)
(1.59948 0.029519 0)
(1.56114 0.0172741 0)
(1.5442 0.007445 0)
(1.54293 0.00139298 0)
(1.55427 -0.0100921 0)
(1.58923 -0.0241642 0)
(1.64611 -0.0358203 0)
(1.71379 -0.0407531 0)
(1.7793 -0.0330663 0)
(1.82193 -0.0197545 0)
(1.84615 -0.0138834 0)
(1.8633 -0.0112062 0)
(1.88073 -0.00770562 0)
(1.90585 -0.00456561 0)
(1.94153 -0.00391217 0)
(1.97759 -0.00638021 0)
(1.99509 -0.00806771 0)
(1.99939 -0.0083199 0)
(2.00103 -0.0079605 0)
(1.99797 -0.00689826 0)
(1.99498 -0.00560583 0)
(1.99452 -0.00406061 0)
(1.99852 -0.00260245 0)
(2.00624 -0.00163612 0)
(2.01439 -0.000846683 0)
(2.02389 -1.58312e-05 0)
(2.03727 0.000168443 0)
(2.04778 0.00011806 0)
(2.05546 0.000185249 0)
(2.06235 0.000490771 0)
(2.06732 0.00139285 0)
(2.07163 0.0025655 0)
(2.07621 0.00327864 0)
(2.08092 0.00375903 0)
(2.08883 0.00405648 0)
(2.10407 0.00385383 0)
(2.12154 0.00297855 0)
(2.13207 0.00173956 0)
(2.13665 0.000160348 0)
(2.14037 -0.00108143 0)
(2.14339 -0.00215864 0)
(2.14501 -0.00274804 0)
(2.14539 -0.00205263 0)
(2.14711 -0.000279633 0)
(2.15027 0.00123648 0)
(2.15384 0.00206355 0)
(2.15972 0.00223976 0)
(2.16365 0.00170335 0)
(2.16797 0.00108254 0)
(2.17219 0.00038274 0)
(2.17283 -0.000297107 0)
(2.16586 -0.00147707 0)
(2.15165 -0.00300697 0)
(2.14553 -0.00286563 0)
(2.14835 -0.00110789 0)
(2.15116 0.0012251 0)
(2.15266 0.003174 0)
(2.15491 0.00456352 0)
(2.16116 0.00506941 0)
(2.17371 0.00469811 0)
(2.18206 0.00466291 0)
(2.18287 0.00470251 0)
(2.18199 0.0051478 0)
(2.17775 0.00648351 0)
(2.17073 0.00631673 0)
(2.16272 0.00438336 0)
(2.15223 0.003922 0)
(2.14283 0.00486484 0)
(2.14012 0.00625338 0)
(2.13884 0.0082075 0)
(2.13457 0.0112854 0)
(2.12414 0.0171451 0)
(2.10641 0.0231537 0)
(2.08647 0.0220512 0)
(2.07039 0.0147884 0)
(2.06101 0.00416451 0)
(2.05847 -0.00736444 0)
(2.05968 -0.0115997 0)
(2.05806 -0.000849744 0)
(2.04274 0.0172854 0)
(2.00391 0.0331787 0)
(1.95551 0.0473151 0)
(1.90023 0.0554785 0)
(1.83733 0.0560413 0)
(1.76556 0.0540558 0)
(1.69187 0.0483824 0)
(1.60974 0.0406488 0)
(1.49102 0.0371529 0)
(1.36642 0.0394511 0)
(1.32149 0.0378811 0)
(1.30605 0.0325212 0)
(1.30222 0.0171896 0)
(1.29073 -0.00388038 0)
(1.27401 -0.027043 0)
(1.27256 -0.0442531 0)
(1.29399 -0.0544711 0)
(1.34777 -0.0637953 0)
(1.44067 -0.070659 0)
(1.56562 -0.082582 0)
(1.69679 -0.0943952 0)
(1.82247 -0.083367 0)
(1.9405 -0.0571874 0)
(2.05289 -0.0292311 0)
(2.10604 -0.0160137 0)
(2.11563 -0.0123029 0)
(2.1138 -0.00730221 0)
(2.11893 -0.0043299 0)
(2.13241 -0.00275639 0)
(2.16959 -0.00330419 0)
(2.23062 -0.0120828 0)
(2.27879 -0.0211775 0)
(2.29466 -0.0227367 0)
(2.30478 -0.0199251 0)
(2.29858 -0.0140812 0)
(2.29112 -0.00639483 0)
(2.29333 -0.0024056 0)
(2.30288 -0.00279949 0)
(2.31328 -0.00356884 0)
(2.32588 -0.00487771 0)
(2.33845 -0.00522951 0)
(2.35429 -0.0050915 0)
(2.36932 -0.00361082 0)
(2.38217 0.000609412 0)
(2.39218 0.00420927 0)
(2.40465 0.00854267 0)
(2.40648 0.00808371 0)
(2.40453 0.00726069 0)
(2.40354 0.00690307 0)
(2.404 0.00522302 0)
(2.40728 0.00138657 0)
(2.41372 -0.00321628 0)
(2.4217 -0.00934589 0)
(2.42202 -0.0118484 0)
(2.42026 -0.0110161 0)
(2.41393 -0.00587777 0)
(2.39975 0.000346493 0)
(2.38314 0.00454013 0)
(2.36834 0.00754555 0)
(2.35308 0.0100139 0)
(2.33103 0.012756 0)
(2.33027 0.0140715 0)
(2.33777 0.0142613 0)
(2.34414 0.0157565 0)
(2.34921 0.0195183 0)
(2.35225 0.0243297 0)
(2.35003 0.0290854 0)
(2.34612 0.0311668 0)
(2.35207 0.0292714 0)
(2.3686 0.0233751 0)
(2.37978 0.0125742 0)
(2.38511 -0.00413533 0)
(2.39029 -0.0174543 0)
(2.39512 -0.0247941 0)
(2.39662 -0.0279715 0)
(2.38202 -0.0238553 0)
(2.35433 -0.012346 0)
(2.33848 0.00156398 0)
(2.58685 -0.00174575 0)
(2.59024 -0.00218672 0)
(2.59378 -0.00243341 0)
(2.5986 -0.00285997 0)
(2.61203 -0.0026101 0)
(2.62985 -0.00213678 0)
(2.63641 -0.00268296 0)
(2.63946 -0.00382535 0)
(2.6414 -0.00618841 0)
(2.63649 -0.00899182 0)
(2.62503 -0.0102525 0)
(2.62114 -0.00892073 0)
(2.62207 -0.00718617 0)
(2.62304 -0.00521189 0)
(2.62413 -0.00344605 0)
(2.6257 -0.00143276 0)
(2.62753 0.000833632 0)
(2.63165 0.00185374 0)
(2.64002 0.000974775 0)
(2.6427 0.000629666 0)
(2.64224 0.000760718 0)
(2.64137 0.00098448 0)
(2.63979 0.00103023 0)
(2.64074 0.00101643 0)
(2.64304 0.000979856 0)
(2.64502 0.000955985 0)
(2.64684 0.00114095 0)
(2.6504 0.00123349 0)
(2.65791 -7.75357e-05 0)
(2.66711 -0.00142202 0)
(2.6726 -0.00111799 0)
(2.67539 -0.000824145 0)
(2.67889 -0.00155232 0)
(2.67629 -0.00229368 0)
(2.67163 -0.00205529 0)
(2.66794 -0.00196093 0)
(2.66174 -0.00148405 0)
(2.65483 0.00282013 0)
(2.65349 0.00311506 0)
(2.65168 -0.000859683 0)
(2.64033 -0.0261061 0)
(2.6036 -0.101723 0)
(2.53907 -0.239253 0)
(2.40492 -0.487251 0)
(2.40136 -0.537101 0)
(2.34917 -0.58404 0)
(2.27148 -0.53792 0)
(2.18635 -0.434834 0)
(2.12707 -0.305511 0)
(2.08535 -0.152325 0)
(2.02438 -0.0273001 0)
(1.99074 0.0346286 0)
(1.96531 0.058311 0)
(1.9311 0.0604085 0)
(1.8965 0.0503723 0)
(1.88707 0.0253026 0)
(1.88585 -0.00802101 0)
(1.89229 -0.015292 0)
(1.90275 -0.011083 0)
(1.90926 -0.00620595 0)
(1.91563 0.000423392 0)
(1.92397 0.0102727 0)
(1.93125 0.0206436 0)
(1.93428 0.0274493 0)
(1.93416 0.0256728 0)
(1.93681 0.0158644 0)
(1.94185 0.00741933 0)
(1.94639 0.00350413 0)
(1.94915 0.00465156 0)
(1.94916 0.0101501 0)
(1.94476 0.0195796 0)
(1.93534 0.0313444 0)
(1.92269 0.0397834 0)
(1.90995 0.03799 0)
(1.89666 0.0240178 0)
(1.87835 0.0168854 0)
(1.86749 0.0190488 0)
(1.86796 0.0221252 0)
(1.86688 0.0207622 0)
(1.86423 0.0148334 0)
(1.86087 0.00686081 0)
(1.8558 -0.00219898 0)
(1.84594 -0.0101518 0)
(1.83036 -0.0115592 0)
(1.82099 -0.00991607 0)
(1.8126 -0.00792531 0)
(1.80516 -0.00764477 0)
(1.80059 -0.00676334 0)
(1.7978 0.00142994 0)
(1.80139 0.0122725 0)
(1.80084 0.0199922 0)
(1.78746 0.0232619 0)
(1.77384 0.0331181 0)
(1.75478 0.0463311 0)
(1.72599 0.0578716 0)
(1.69006 0.0631144 0)
(1.64977 0.0600707 0)
(1.60562 0.0508306 0)
(1.57353 0.0313935 0)
(1.56833 0.0105368 0)
(1.57945 -0.0231552 0)
(1.60567 -0.0618364 0)
(1.64688 -0.0910117 0)
(1.69887 -0.104037 0)
(1.7567 -0.0976255 0)
(1.81111 -0.0770671 0)
(1.84798 -0.0529503 0)
(1.87185 -0.0330531 0)
(1.89317 -0.0175044 0)
(1.91725 -0.00466215 0)
(1.94567 0.00125357 0)
(1.97549 -0.00234957 0)
(1.992 -0.00918539 0)
(1.99698 -0.0124264 0)
(2.00098 -0.0177423 0)
(2.00373 -0.0203847 0)
(2.00374 -0.0188778 0)
(2.00171 -0.0156511 0)
(2.00433 -0.012361 0)
(2.01164 -0.00987889 0)
(2.01997 -0.00714541 0)
(2.02991 -0.00399862 0)
(2.04187 -0.00241375 0)
(2.05143 -0.00267604 0)
(2.05864 -0.00279603 0)
(2.06492 -0.00281209 0)
(2.07009 -0.00207975 0)
(2.07512 -0.000379878 0)
(2.08016 0.00205234 0)
(2.0857 0.00479737 0)
(2.09311 0.0076376 0)
(2.10696 0.0103065 0)
(2.12288 0.0108842 0)
(2.13174 0.0084347 0)
(2.13603 0.00557304 0)
(2.13941 0.00261029 0)
(2.14172 -0.00114279 0)
(2.1435 -0.00572815 0)
(2.14613 -0.00792883 0)
(2.14931 -0.0078548 0)
(2.15407 -0.00576103 0)
(2.1598 -0.000162343 0)
(2.16412 0.00490753 0)
(2.168 0.00617714 0)
(2.17157 0.0060865 0)
(2.17402 0.00551358 0)
(2.17213 0.00473055 0)
(2.16115 0.00199128 0)
(2.14706 -0.00519628 0)
(2.1459 -0.00941116 0)
(2.1491 -0.00952394 0)
(2.15264 -0.00681905 0)
(2.15594 -0.00188393 0)
(2.15952 0.0034424 0)
(2.16496 0.00848062 0)
(2.17459 0.0123497 0)
(2.17982 0.0138103 0)
(2.18032 0.0141861 0)
(2.17998 0.0159437 0)
(2.17797 0.016494 0)
(2.1745 0.0123916 0)
(2.1688 0.00503888 0)
(2.16007 0.000782895 0)
(2.15075 0.00441639 0)
(2.14482 0.0116539 0)
(2.14065 0.0193902 0)
(2.136 0.0287889 0)
(2.12964 0.040776 0)
(2.11935 0.0501054 0)
(2.10802 0.0509634 0)
(2.09746 0.0414763 0)
(2.08683 0.0240662 0)
(2.081 0.00487478 0)
(2.07911 -0.0108047 0)
(2.07311 -0.00623234 0)
(2.06122 0.0160359 0)
(2.02984 0.0364367 0)
(1.99192 0.0568199 0)
(1.95318 0.0802974 0)
(1.90198 0.103018 0)
(1.83203 0.125603 0)
(1.75269 0.133767 0)
(1.66213 0.117362 0)
(1.54394 0.107303 0)
(1.40908 0.120081 0)
(1.34146 0.122275 0)
(1.32748 0.112474 0)
(1.32425 0.0812307 0)
(1.31385 0.0333902 0)
(1.29878 -0.0280065 0)
(1.30642 -0.0846855 0)
(1.34083 -0.134856 0)
(1.40074 -0.173696 0)
(1.47732 -0.191968 0)
(1.56746 -0.195843 0)
(1.67631 -0.190181 0)
(1.78757 -0.162199 0)
(1.89729 -0.115894 0)
(2.01094 -0.0778178 0)
(2.10294 -0.0605948 0)
(2.12488 -0.0505311 0)
(2.12961 -0.0322165 0)
(2.13384 -0.00770895 0)
(2.14596 0.00666364 0)
(2.17232 0.0179573 0)
(2.2093 0.0121127 0)
(2.24957 -0.0165338 0)
(2.28484 -0.0431274 0)
(2.29941 -0.0519853 0)
(2.31002 -0.0485942 0)
(2.31493 -0.0331295 0)
(2.3101 -0.0137993 0)
(2.30595 -0.00260121 0)
(2.31471 -0.00141555 0)
(2.32523 -0.00235034 0)
(2.33685 -0.00681246 0)
(2.35299 -0.00766075 0)
(2.37069 -0.00525093 0)
(2.38598 -0.00227139 0)
(2.3981 0.00509697 0)
(2.4103 0.0142427 0)
(2.41188 0.0191295 0)
(2.4074 0.0219716 0)
(2.40103 0.0209292 0)
(2.39874 0.0173378 0)
(2.39802 0.0136009 0)
(2.39901 0.00630537 0)
(2.40752 -0.0072609 0)
(2.41347 -0.0203611 0)
(2.41306 -0.0237992 0)
(2.41332 -0.0249183 0)
(2.41042 -0.0187295 0)
(2.40172 -0.0110868 0)
(2.39045 -0.00690363 0)
(2.37687 -0.0025995 0)
(2.35187 0.00843509 0)
(2.3421 0.0189618 0)
(2.34719 0.0203836 0)
(2.35097 0.0233192 0)
(2.35376 0.0275035 0)
(2.35729 0.0293924 0)
(2.35969 0.0319841 0)
(2.36274 0.0357096 0)
(2.37677 0.0428 0)
(2.38967 0.0540176 0)
(2.38389 0.0559878 0)
(2.377 0.0481789 0)
(2.37356 0.0183064 0)
(2.37734 -0.0210797 0)
(2.37941 -0.0529676 0)
(2.38501 -0.0664237 0)
(2.38754 -0.0567707 0)
(2.3747 -0.0222033 0)
(2.5883 -0.00358258 0)
(2.59127 -0.00420708 0)
(2.59462 -0.0047447 0)
(2.60045 -0.00542452 0)
(2.61607 -0.00457796 0)
(2.63255 -0.00419796 0)
(2.63738 -0.00505052 0)
(2.64179 -0.00655258 0)
(2.64382 -0.0083015 0)
(2.6387 -0.0100056 0)
(2.6266 -0.011299 0)
(2.623 -0.0114179 0)
(2.62407 -0.0110859 0)
(2.62512 -0.00963131 0)
(2.62684 -0.00739558 0)
(2.62908 -0.00408057 0)
(2.6314 -0.000668564 0)
(2.63469 0.00083409 0)
(2.64034 -0.000442166 0)
(2.64311 -0.00111785 0)
(2.64258 -0.000948448 0)
(2.642 -0.00103575 0)
(2.64066 -0.000708466 0)
(2.64031 0.000428563 0)
(2.64242 0.00116292 0)
(2.6446 0.0016737 0)
(2.64665 0.0022607 0)
(2.64969 0.00255118 0)
(2.65684 0.00163041 0)
(2.6655 0.000791093 0)
(2.67081 0.00132092 0)
(2.6734 0.00196561 0)
(2.67611 0.00029696 0)
(2.67756 -0.00264807 0)
(2.67275 -0.00271825 0)
(2.66982 -0.0024712 0)
(2.66401 -9.01438e-05 0)
(2.65613 -0.00271236 0)
(2.6487 -0.0150557 0)
(2.61455 -0.0740053 0)
(2.55844 -0.190609 0)
(2.43589 -0.411442 0)
(2.38006 -0.514196 0)
(2.35068 -0.556582 0)
(2.31716 -0.619809 0)
(2.29875 -0.638537 0)
(2.28657 -0.638843 0)
(2.28056 -0.624349 0)
(2.26873 -0.577475 0)
(2.25257 -0.490393 0)
(2.21523 -0.342499 0)
(2.17098 -0.212091 0)
(2.11975 -0.110255 0)
(2.04375 -0.0204811 0)
(1.94578 0.026663 0)
(1.90574 0.0261414 0)
(1.90322 0.0131851 0)
(1.91092 0.000790935 0)
(1.92 0.0017134 0)
(1.92021 0.00766917 0)
(1.91739 0.0160075 0)
(1.92192 0.0266681 0)
(1.93224 0.0367678 0)
(1.94245 0.041071 0)
(1.95123 0.0362054 0)
(1.95894 0.0196589 0)
(1.9632 0.000685847 0)
(1.96509 -0.00659624 0)
(1.96767 -0.00407034 0)
(1.96885 0.00575711 0)
(1.96625 0.0203272 0)
(1.96043 0.0350685 0)
(1.95337 0.0455101 0)
(1.94488 0.0512834 0)
(1.93574 0.0418969 0)
(1.92619 0.017377 0)
(1.91821 0.00973117 0)
(1.91384 0.0192965 0)
(1.90609 0.0310779 0)
(1.89481 0.0392625 0)
(1.87976 0.0387319 0)
(1.86754 0.0289374 0)
(1.85888 0.020164 0)
(1.84907 0.013393 0)
(1.84107 0.00930717 0)
(1.83274 0.00605553 0)
(1.82483 0.000995244 0)
(1.81837 -0.00345304 0)
(1.81389 0.000129876 0)
(1.81457 0.0145499 0)
(1.81246 0.0290065 0)
(1.80055 0.0365684 0)
(1.78934 0.0507429 0)
(1.77557 0.0752182 0)
(1.75399 0.10014 0)
(1.73022 0.113159 0)
(1.70768 0.110873 0)
(1.68178 0.0925485 0)
(1.65444 0.0589284 0)
(1.64583 0.0210801 0)
(1.65233 -0.0265267 0)
(1.67106 -0.0854228 0)
(1.7038 -0.135043 0)
(1.74862 -0.160787 0)
(1.79995 -0.161181 0)
(1.84111 -0.132467 0)
(1.86639 -0.0913925 0)
(1.88808 -0.0588949 0)
(1.91019 -0.0372729 0)
(1.93337 -0.0230933 0)
(1.9578 -0.0164083 0)
(1.98311 -0.0157937 0)
(1.9978 -0.0181621 0)
(2.00421 -0.0189412 0)
(2.00983 -0.0188732 0)
(2.01374 -0.0178077 0)
(2.01475 -0.0166315 0)
(2.01327 -0.0153395 0)
(2.01706 -0.0136429 0)
(2.02456 -0.0123751 0)
(2.03308 -0.01012 0)
(2.0436 -0.00539233 0)
(2.05299 -0.00151411 0)
(2.06101 0.000266165 0)
(2.06717 0.00165618 0)
(2.07144 0.00174114 0)
(2.07683 0.0008575 0)
(2.08216 0.00058215 0)
(2.0877 0.00123165 0)
(2.09379 0.00293519 0)
(2.10248 0.00553466 0)
(2.11659 0.0100201 0)
(2.12919 0.0136889 0)
(2.13386 0.013949 0)
(2.13776 0.012616 0)
(2.13992 0.00937356 0)
(2.14122 0.00489835 0)
(2.14333 0.00175494 0)
(2.14649 -0.00100119 0)
(2.152 -0.00382712 0)
(2.15954 -0.00433059 0)
(2.16749 -0.00263278 0)
(2.17105 -0.00156003 0)
(2.17534 -5.84468e-05 0)
(2.17831 0.00108738 0)
(2.17877 0.00314331 0)
(2.17338 0.00604761 0)
(2.15794 0.00590423 0)
(2.14526 0.00131985 0)
(2.14643 -0.00136158 0)
(2.15017 -0.00319416 0)
(2.15533 -0.00307545 0)
(2.16076 -6.11173e-06 0)
(2.16665 0.0035373 0)
(2.17373 0.00913655 0)
(2.18037 0.0175031 0)
(2.18147 0.0208825 0)
(2.18092 0.0226084 0)
(2.17862 0.0257972 0)
(2.17409 0.0279877 0)
(2.1695 0.025145 0)
(2.16575 0.0178043 0)
(2.16206 0.0114452 0)
(2.15784 0.0114607 0)
(2.15304 0.0171148 0)
(2.14782 0.0268596 0)
(2.14229 0.0421515 0)
(2.13431 0.061556 0)
(2.12401 0.0758152 0)
(2.11614 0.0788086 0)
(2.10975 0.0708217 0)
(2.10328 0.0492071 0)
(2.09543 0.0162544 0)
(2.08558 -0.00124019 0)
(2.07512 0.017294 0)
(2.06573 0.0512598 0)
(2.04307 0.0796424 0)
(2.00426 0.109684 0)
(1.96849 0.146269 0)
(1.91971 0.185305 0)
(1.8527 0.222237 0)
(1.7751 0.239341 0)
(1.69399 0.225879 0)
(1.61074 0.192964 0)
(1.51889 0.179951 0)
(1.44571 0.180911 0)
(1.42138 0.160661 0)
(1.41412 0.120752 0)
(1.39902 0.0563645 0)
(1.39256 -0.0193787 0)
(1.40961 -0.0926303 0)
(1.44391 -0.169217 0)
(1.4896 -0.240312 0)
(1.55427 -0.299054 0)
(1.64362 -0.327381 0)
(1.75412 -0.318535 0)
(1.86585 -0.27281 0)
(1.96202 -0.203698 0)
(2.03601 -0.142148 0)
(2.09586 -0.101933 0)
(2.1404 -0.0845027 0)
(2.15931 -0.0590589 0)
(2.16568 -0.0331547 0)
(2.1745 -0.0124202 0)
(2.18723 -0.00490972 0)
(2.20056 -0.00937863 0)
(2.22241 -0.0244579 0)
(2.26428 -0.0446699 0)
(2.30272 -0.0525728 0)
(2.31513 -0.0516423 0)
(2.32362 -0.0489188 0)
(2.32733 -0.0401441 0)
(2.31798 -0.0263844 0)
(2.31104 -0.0190824 0)
(2.31922 -0.0184083 0)
(2.3283 -0.0189341 0)
(2.34104 -0.0186093 0)
(2.35817 -0.0129394 0)
(2.37472 -0.000978132 0)
(2.39098 0.0127784 0)
(2.40735 0.0203224 0)
(2.41152 0.0235534 0)
(2.40787 0.0263464 0)
(2.3967 0.0246298 0)
(2.38745 0.0176571 0)
(2.38546 0.0141205 0)
(2.3854 0.00750472 0)
(2.39164 -0.00637434 0)
(2.40283 -0.0215077 0)
(2.40609 -0.0238334 0)
(2.40895 -0.0207897 0)
(2.41066 -0.015293 0)
(2.40785 -0.0109874 0)
(2.40178 -0.00698434 0)
(2.39345 -0.000958574 0)
(2.37511 0.0148069 0)
(2.35231 0.0365323 0)
(2.35041 0.0450068 0)
(2.35139 0.0478603 0)
(2.35241 0.0525396 0)
(2.35563 0.0574455 0)
(2.36491 0.0617771 0)
(2.38505 0.0676996 0)
(2.40837 0.0693752 0)
(2.40562 0.0608923 0)
(2.39294 0.05374 0)
(2.36826 0.0316823 0)
(2.3519 -0.00292376 0)
(2.35452 -0.0251058 0)
(2.36967 -0.0492604 0)
(2.39246 -0.0651723 0)
(2.40062 -0.0650857 0)
(2.40515 -0.051812 0)
(2.59221 -0.0024789 0)
(2.59316 -0.00321079 0)
(2.5963 -0.00390707 0)
(2.60413 -0.00401145 0)
(2.62084 -0.00227204 0)
(2.63324 -0.00325573 0)
(2.63743 -0.00580494 0)
(2.64185 -0.00825808 0)
(2.64404 -0.0100394 0)
(2.64014 -0.0118603 0)
(2.62949 -0.012749 0)
(2.62581 -0.0123541 0)
(2.62688 -0.0119913 0)
(2.628 -0.0109558 0)
(2.63015 -0.00939613 0)
(2.63305 -0.00644888 0)
(2.63657 -0.00321654 0)
(2.6398 -0.00161795 0)
(2.64303 -0.00189554 0)
(2.64495 -0.00150185 0)
(2.64359 -0.000637881 0)
(2.64282 -0.000266272 0)
(2.64129 8.6445e-05 0)
(2.6397 0.000682082 0)
(2.64099 0.00101506 0)
(2.64318 0.00133523 0)
(2.64576 0.00182058 0)
(2.64883 0.00272942 0)
(2.65562 0.00344328 0)
(2.66406 0.00393257 0)
(2.66914 0.00491308 0)
(2.67159 0.00537387 0)
(2.67387 0.00437024 0)
(2.67741 0.000945271 0)
(2.67534 -0.00215049 0)
(2.66897 -0.00335635 0)
(2.6602 -0.0124992 0)
(2.6352 -0.0535776 0)
(2.58518 -0.146875 0)
(2.4897 -0.318949 0)
(2.36858 -0.526579 0)
(2.35633 -0.544369 0)
(2.32071 -0.579808 0)
(2.30302 -0.612533 0)
(2.28211 -0.649597 0)
(2.28357 -0.655452 0)
(2.29058 -0.645321 0)
(2.30333 -0.631622 0)
(2.30857 -0.62397 0)
(2.30448 -0.613419 0)
(2.28752 -0.575265 0)
(2.25465 -0.489118 0)
(2.20129 -0.357166 0)
(2.12572 -0.193331 0)
(2.05266 -0.0803294 0)
(1.9399 0.00602521 0)
(1.90334 0.027476 0)
(1.90949 0.0177457 0)
(1.9185 0.0166446 0)
(1.92329 0.0206867 0)
(1.92391 0.0208451 0)
(1.92701 0.0231738 0)
(1.93738 0.0260382 0)
(1.95384 0.0288058 0)
(1.96989 0.0306174 0)
(1.98065 0.026839 0)
(1.98618 0.0153554 0)
(1.98874 0.00458853 0)
(1.9905 0.0022986 0)
(1.9915 0.0075875 0)
(1.99009 0.0199183 0)
(1.98768 0.0345487 0)
(1.98515 0.0463212 0)
(1.98302 0.0539785 0)
(1.98166 0.0536167 0)
(1.97957 0.0377534 0)
(1.97432 0.0163922 0)
(1.96768 0.00619982 0)
(1.96036 0.00510924 0)
(1.95043 0.00747019 0)
(1.93698 0.0137626 0)
(1.92261 0.0218045 0)
(1.91088 0.0254791 0)
(1.89985 0.0274055 0)
(1.88672 0.0283179 0)
(1.87592 0.0272154 0)
(1.8659 0.0250973 0)
(1.85535 0.0216317 0)
(1.84728 0.0172386 0)
(1.84236 0.018839 0)
(1.83633 0.0302249 0)
(1.82615 0.0413642 0)
(1.81925 0.0592428 0)
(1.81625 0.089626 0)
(1.80702 0.114189 0)
(1.79754 0.124349 0)
(1.79125 0.123936 0)
(1.78346 0.111657 0)
(1.77326 0.0817164 0)
(1.77196 0.0343161 0)
(1.77341 -0.0340775 0)
(1.78186 -0.106079 0)
(1.80265 -0.164815 0)
(1.83285 -0.19743 0)
(1.86671 -0.194748 0)
(1.89673 -0.160363 0)
(1.91219 -0.107803 0)
(1.92333 -0.0627253 0)
(1.93737 -0.0401529 0)
(1.9533 -0.0316683 0)
(1.97165 -0.0288965 0)
(1.99376 -0.0276618 0)
(2.01176 -0.0264504 0)
(2.01927 -0.0255447 0)
(2.02606 -0.0231002 0)
(2.03006 -0.0199112 0)
(2.02953 -0.0181496 0)
(2.02857 -0.0175002 0)
(2.03415 -0.0158482 0)
(2.04174 -0.0144401 0)
(2.05085 -0.0111982 0)
(2.06061 -0.00514481 0)
(2.06815 -0.00119369 0)
(2.07502 0.00223798 0)
(2.07956 0.00471005 0)
(2.08168 0.00581447 0)
(2.08639 0.00575844 0)
(2.09207 0.00563652 0)
(2.09786 0.00571953 0)
(2.10414 0.00651559 0)
(2.11349 0.00843597 0)
(2.12617 0.0112081 0)
(2.134 0.0115161 0)
(2.13818 0.0108199 0)
(2.14192 0.00955627 0)
(2.14347 0.00772187 0)
(2.1454 0.00652057 0)
(2.14826 0.00624024 0)
(2.15103 0.00525608 0)
(2.15554 0.00360362 0)
(2.16523 0.00192163 0)
(2.17593 0.000930726 0)
(2.17943 0.000471649 0)
(2.18283 -0.000103431 0)
(2.18487 -0.00132346 0)
(2.18292 -0.00289848 0)
(2.17456 -0.00345762 0)
(2.1601 -0.00142794 0)
(2.15008 0.00224351 0)
(2.15151 0.00270144 0)
(2.15451 0.00264757 0)
(2.1584 0.00289449 0)
(2.16454 0.00384985 0)
(2.17241 0.007178 0)
(2.18113 0.0131067 0)
(2.18548 0.0178521 0)
(2.18566 0.0200559 0)
(2.1836 0.0259661 0)
(2.17777 0.0341881 0)
(2.17096 0.0392692 0)
(2.16617 0.0386276 0)
(2.16358 0.0337664 0)
(2.16164 0.0289581 0)
(2.16088 0.0277219 0)
(2.15966 0.0296771 0)
(2.15676 0.0363181 0)
(2.15384 0.0515163 0)
(2.14893 0.0723749 0)
(2.14333 0.0865725 0)
(2.13948 0.0881231 0)
(2.13432 0.0804016 0)
(2.12489 0.0654839 0)
(2.1083 0.0422273 0)
(2.08869 0.0207121 0)
(2.07559 0.0271869 0)
(2.06945 0.0713682 0)
(2.06685 0.113842 0)
(2.04621 0.14926 0)
(2.02126 0.193354 0)
(1.98511 0.243327 0)
(1.93467 0.284385 0)
(1.87153 0.301902 0)
(1.80038 0.295176 0)
(1.72976 0.268374 0)
(1.66664 0.236008 0)
(1.61142 0.209266 0)
(1.57599 0.173797 0)
(1.55447 0.115332 0)
(1.54388 0.0434956 0)
(1.55406 -0.01645 0)
(1.57805 -0.0762487 0)
(1.61729 -0.147247 0)
(1.66983 -0.2269 0)
(1.73018 -0.310337 0)
(1.79407 -0.373365 0)
(1.86418 -0.396052 0)
(1.93703 -0.373994 0)
(1.99362 -0.305077 0)
(2.04399 -0.219615 0)
(2.10107 -0.142385 0)
(2.16192 -0.0762043 0)
(2.19311 -0.0434997 0)
(2.1953 -0.0359197 0)
(2.19285 -0.0339374 0)
(2.19238 -0.0370437 0)
(2.20168 -0.0408967 0)
(2.21825 -0.0462461 0)
(2.2587 -0.0508691 0)
(2.30576 -0.0486827 0)
(2.32155 -0.0454152 0)
(2.33049 -0.0424044 0)
(2.3365 -0.0376754 0)
(2.33016 -0.0295345 0)
(2.31275 -0.0222367 0)
(2.31141 -0.0210084 0)
(2.31592 -0.0207089 0)
(2.3236 -0.019906 0)
(2.33686 -0.0128854 0)
(2.35298 0.00259297 0)
(2.37284 0.0220864 0)
(2.39166 0.0315233 0)
(2.39778 0.033178 0)
(2.39354 0.03009 0)
(2.37996 0.0192957 0)
(2.37042 0.00907336 0)
(2.36983 0.00444695 0)
(2.37183 -0.00335623 0)
(2.37719 -0.0140374 0)
(2.38789 -0.0206078 0)
(2.3955 -0.0196287 0)
(2.3991 -0.0163146 0)
(2.40201 -0.00898698 0)
(2.40143 -0.00506019 0)
(2.39833 -0.00692019 0)
(2.39542 -0.00844844 0)
(2.38944 -0.000902759 0)
(2.37613 0.0192801 0)
(2.37004 0.0398012 0)
(2.36884 0.0524904 0)
(2.3695 0.0632166 0)
(2.37256 0.0740886 0)
(2.38566 0.0845334 0)
(2.41206 0.0946487 0)
(2.42685 0.0891045 0)
(2.41575 0.0690483 0)
(2.39564 0.0463693 0)
(2.36184 0.0219179 0)
(2.34667 0.00332356 0)
(2.34802 -0.00742125 0)
(2.36268 -0.0246627 0)
(2.39668 -0.0412997 0)
(2.42116 -0.0475276 0)
(2.43024 -0.0467562 0)
(2.59826 -0.00625208 0)
(2.59617 -0.00747847 0)
(2.59885 -0.00912293 0)
(2.60986 -0.00862581 0)
(2.62663 -0.00592783 0)
(2.63303 -0.00552133 0)
(2.63797 -0.00663751 0)
(2.64224 -0.00861204 0)
(2.64436 -0.0103207 0)
(2.64154 -0.011913 0)
(2.63322 -0.0127704 0)
(2.62933 -0.0128447 0)
(2.63017 -0.0128691 0)
(2.63128 -0.0125977 0)
(2.63371 -0.0112997 0)
(2.63749 -0.00806017 0)
(2.64171 -0.0047295 0)
(2.64489 -0.0035391 0)
(2.64681 -0.00397179 0)
(2.64787 -0.00408862 0)
(2.64523 -0.0032148 0)
(2.64382 -0.00275008 0)
(2.64199 -0.00237466 0)
(2.6395 -0.00115075 0)
(2.63918 0.000323649 0)
(2.64126 0.000853882 0)
(2.64384 0.00108088 0)
(2.64697 0.00175978 0)
(2.65465 0.00280041 0)
(2.66415 0.0060049 0)
(2.66882 0.00958569 0)
(2.67075 0.00959364 0)
(2.67242 0.00656448 0)
(2.67507 0.00345329 0)
(2.67413 -0.000247185 0)
(2.65767 -0.0301533 0)
(2.61183 -0.107858 0)
(2.53355 -0.24944 0)
(2.40086 -0.473265 0)
(2.37313 -0.516868 0)
(2.33305 -0.57067 0)
(2.29408 -0.619156 0)
(2.27966 -0.631076 0)
(2.2822 -0.637922 0)
(2.28937 -0.637311 0)
(2.2982 -0.628339 0)
(2.30188 -0.623242 0)
(2.30685 -0.624824 0)
(2.30844 -0.632484 0)
(2.30725 -0.635814 0)
(2.30806 -0.633701 0)
(2.30928 -0.621725 0)
(2.30199 -0.589931 0)
(2.26916 -0.512134 0)
(2.20068 -0.366371 0)
(2.03709 -0.138277 0)
(1.95536 -0.0519268 0)
(1.92088 -0.00919976 0)
(1.91106 0.0116953 0)
(1.91442 0.0291544 0)
(1.92526 0.0380517 0)
(1.93661 0.0417946 0)
(1.94794 0.0398344 0)
(1.9678 0.0327675 0)
(1.98675 0.0249965 0)
(1.9997 0.0183747 0)
(2.00586 0.0117912 0)
(2.00916 0.00967904 0)
(2.01078 0.0104775 0)
(2.01113 0.0171199 0)
(2.01109 0.0253271 0)
(2.01256 0.0356845 0)
(2.01576 0.0485774 0)
(2.0207 0.0568842 0)
(2.02773 0.0581485 0)
(2.0332 0.0526259 0)
(2.03312 0.0397913 0)
(2.02833 0.0259574 0)
(2.02156 0.0191553 0)
(2.01285 0.0199922 0)
(2.00216 0.0253631 0)
(1.99054 0.0288966 0)
(1.98037 0.0265764 0)
(1.97044 0.0233141 0)
(1.9589 0.0210325 0)
(1.9456 0.0221206 0)
(1.93096 0.0267477 0)
(1.92053 0.0308564 0)
(1.9081 0.0347731 0)
(1.8949 0.0386612 0)
(1.88267 0.040361 0)
(1.87362 0.0420491 0)
(1.8697 0.0524669 0)
(1.87065 0.0806629 0)
(1.86948 0.115928 0)
(1.86971 0.130968 0)
(1.87672 0.130903 0)
(1.88534 0.122772 0)
(1.89191 0.100516 0)
(1.90514 0.0581704 0)
(1.91709 -0.0114257 0)
(1.91755 -0.0994782 0)
(1.92533 -0.181688 0)
(1.93651 -0.217732 0)
(1.94356 -0.213997 0)
(1.95419 -0.180797 0)
(1.96104 -0.12638 0)
(1.95961 -0.0814262 0)
(1.96226 -0.0592696 0)
(1.9726 -0.0507933 0)
(1.98868 -0.0436359 0)
(2.01025 -0.0334314 0)
(2.02811 -0.025017 0)
(2.03532 -0.0210312 0)
(2.04169 -0.017571 0)
(2.04504 -0.016304 0)
(2.04205 -0.0207718 0)
(2.04212 -0.0237 0)
(2.04885 -0.0236166 0)
(2.05636 -0.0219919 0)
(2.06775 -0.0156444 0)
(2.07767 -0.00766919 0)
(2.08402 -0.0032112 0)
(2.08991 0.000263867 0)
(2.09265 0.00237082 0)
(2.09243 0.00300306 0)
(2.09682 0.00337662 0)
(2.10275 0.00379223 0)
(2.10846 0.00516329 0)
(2.11457 0.00753272 0)
(2.12417 0.0111293 0)
(2.13456 0.0143164 0)
(2.1393 0.014375 0)
(2.14394 0.0133152 0)
(2.14698 0.0112662 0)
(2.14798 0.00870563 0)
(2.15095 0.00766231 0)
(2.15418 0.00742803 0)
(2.15708 0.00734389 0)
(2.16145 0.00734012 0)
(2.17186 0.0065508 0)
(2.18338 0.00489493 0)
(2.18699 0.00405491 0)
(2.18994 0.00288754 0)
(2.19156 0.00116215 0)
(2.18865 -0.00120817 0)
(2.1782 -0.00331105 0)
(2.16448 -0.00165615 0)
(2.15585 0.00451463 0)
(2.15605 0.00909413 0)
(2.15934 0.00984011 0)
(2.16222 0.0110992 0)
(2.16744 0.0130733 0)
(2.1755 0.0150268 0)
(2.1834 0.0162519 0)
(2.18663 0.0167311 0)
(2.18658 0.0177922 0)
(2.18444 0.0234666 0)
(2.17812 0.0348127 0)
(2.16974 0.0446412 0)
(2.16428 0.047639 0)
(2.16194 0.0461216 0)
(2.16132 0.0441053 0)
(2.16197 0.0441626 0)
(2.16257 0.0461741 0)
(2.1623 0.0509206 0)
(2.16296 0.0604216 0)
(2.16293 0.0721192 0)
(2.16445 0.0784677 0)
(2.16622 0.0804189 0)
(2.16333 0.0787152 0)
(2.15333 0.0721516 0)
(2.13539 0.0578764 0)
(2.11068 0.0386633 0)
(2.08737 0.0324817 0)
(2.07924 0.0658561 0)
(2.08668 0.135884 0)
(2.09275 0.188849 0)
(2.08347 0.235741 0)
(2.06475 0.290355 0)
(2.03632 0.322465 0)
(1.99865 0.33357 0)
(1.94727 0.333199 0)
(1.89033 0.318755 0)
(1.84237 0.295753 0)
(1.80887 0.258918 0)
(1.77961 0.200686 0)
(1.75471 0.118687 0)
(1.75617 0.0390848 0)
(1.77721 -0.0246949 0)
(1.81149 -0.0839429 0)
(1.85928 -0.157832 0)
(1.90973 -0.251271 0)
(1.94801 -0.344873 0)
(1.98053 -0.411363 0)
(2.01177 -0.44059 0)
(2.04439 -0.434487 0)
(2.07803 -0.385508 0)
(2.10763 -0.298543 0)
(2.15026 -0.195318 0)
(2.20247 -0.0938961 0)
(2.21809 -0.0521207 0)
(2.21507 -0.049572 0)
(2.20789 -0.0509242 0)
(2.20647 -0.0524194 0)
(2.21235 -0.0521166 0)
(2.22745 -0.0478992 0)
(2.26534 -0.0398448 0)
(2.30931 -0.0355972 0)
(2.32306 -0.0351781 0)
(2.33294 -0.0348333 0)
(2.33903 -0.0344356 0)
(2.33249 -0.0351293 0)
(2.31523 -0.0340684 0)
(2.30839 -0.0326831 0)
(2.31026 -0.0301543 0)
(2.31301 -0.0277783 0)
(2.32025 -0.0198269 0)
(2.33345 -0.00305735 0)
(2.35357 0.0189097 0)
(2.37242 0.0324246 0)
(2.3771 0.0346579 0)
(2.36753 0.0250702 0)
(2.35621 0.0108738 0)
(2.35377 0.00329657 0)
(2.35485 -0.00123737 0)
(2.35756 -0.00843742 0)
(2.36439 -0.0131005 0)
(2.37643 -0.0115538 0)
(2.38133 -0.0102248 0)
(2.38419 -0.00831319 0)
(2.38797 -0.00117594 0)
(2.38945 0.00671749 0)
(2.38922 0.00818192 0)
(2.39179 0.00772061 0)
(2.39337 0.00909176 0)
(2.39046 0.0157055 0)
(2.39568 0.0288905 0)
(2.39734 0.0439184 0)
(2.40001 0.0632118 0)
(2.40645 0.084547 0)
(2.41997 0.101545 0)
(2.43512 0.103223 0)
(2.43272 0.0905764 0)
(2.41899 0.0664513 0)
(2.39814 0.0337599 0)
(2.3742 0.0135467 0)
(2.35926 0.00402966 0)
(2.35564 -0.00443273 0)
(2.37283 -0.0167136 0)
(2.41351 -0.0289199 0)
(2.44435 -0.0384771 0)
(2.45444 -0.0395216 0)
(2.60595 -0.00882885 0)
(2.60234 -0.00745973 0)
(2.605 -0.00681744 0)
(2.6174 -0.00600074 0)
(2.6317 -0.0051621 0)
(2.63545 -0.00535931 0)
(2.63962 -0.00679882 0)
(2.64288 -0.00919966 0)
(2.64429 -0.0115748 0)
(2.64189 -0.0136996 0)
(2.63582 -0.0140641 0)
(2.63258 -0.0124056 0)
(2.6334 -0.011849 0)
(2.63456 -0.0118204 0)
(2.63701 -0.0114367 0)
(2.64193 -0.00951069 0)
(2.64631 -0.00628559 0)
(2.64906 -0.0040186 0)
(2.65082 -0.00292292 0)
(2.65132 -0.00312459 0)
(2.64782 -0.00346158 0)
(2.64509 -0.00322385 0)
(2.64263 -0.0026266 0)
(2.63899 -0.00156549 0)
(2.63778 -4.34484e-05 0)
(2.63959 0.000941747 0)
(2.64203 0.00153235 0)
(2.64557 0.0023944 0)
(2.65513 0.00556474 0)
(2.66546 0.00984722 0)