/*--------------------------------*- C++ -*----------------------------------*\
  =========                 |
  \\      /  F ield         | OpenFOAM: The Open Source CFD Toolbox
   \\    /   O peration     | Website:  https://openfoam.org
    \\  /    A nd           | Version:  7
     \\/     M anipulation  |
\*---------------------------------------------------------------------------*/
FoamFile
{
    version     2.0;
    format      ascii;
    class       volVectorField;
    location    "1.5";
    object      U;
}
// * * * * * * * * * * * * * * * * * * * * * * * * * * * * * * * * * * * * * //

dimensions      [0 1 -1 0 0 0 0];

internalField   nonuniform List<vector> 
4080
(
(3 -3.91999e-18 0)
(3 -1.52467e-16 0)
(3 -4.68751e-17 0)
(3 1.68536e-16 0)
(3 2.9388e-17 0)
(3 -2.85078e-16 0)
(3 -6.21373e-16 0)
(3 -5.72074e-16 0)
(3 -3.88053e-16 0)
(3 -2.10227e-16 0)
(3 -4.0243e-16 0)
(3 -5.52658e-16 0)
(3 -6.18124e-16 0)
(3 -3.82916e-16 0)
(3 -4.30974e-16 0)
(3 -9.38025e-16 0)
(3 -1.03161e-15 0)
(2.66572 0.0136765 0)
(0.87465 0.0318993 0)
(0.622015 0.0410003 0)
(0.517437 0.0492714 0)
(0.39121 0.0582095 0)
(0.250062 0.0653312 0)
(0.102421 0.0823231 0)
(3 -1.40101e-16 0)
(3 2.29053e-17 0)
(3 2.75612e-16 0)
(3 8.58616e-16 0)
(3 6.80116e-16 0)
(3 3.42635e-16 0)
(3 -6.42362e-17 0)
(3 -6.9678e-16 0)
(3 -1.4345e-15 0)
(3 -1.05439e-15 0)
(3 -6.51598e-16 0)
(3 -7.08708e-16 0)
(3 -1.3113e-15 0)
(3 -8.68068e-16 0)
(3 -3.23747e-16 0)
(3 -8.39145e-16 0)
(3 -1.56147e-15 0)
(2.72589 0.0709622 0)
(0.891139 0.148442 0)
(0.607726 0.143476 0)
(0.499231 0.161795 0)
(0.373822 0.191091 0)
(0.236601 0.217875 0)
(0.0891991 0.265484 0)
(3 -2.1787e-16 0)
(3 -3.84874e-17 0)
(3 4.45011e-17 0)
(3 7.09763e-17 0)
(3 1.57199e-16 0)
(3 2.59916e-16 0)
(3 6.73499e-17 0)
(3 -1.51618e-16 0)
(3 -6.00081e-16 0)
(3 -5.95876e-16 0)
(3 -5.0152e-16 0)
(3 -5.54706e-16 0)
(3 -7.94019e-16 0)
(3 -1.15308e-15 0)
(3 -9.44718e-16 0)
(3 5.07877e-16 0)
(3 3.41592e-16 0)
(2.88695 0.107326 0)
(0.987451 0.265607 0)
(0.658764 0.245958 0)
(0.553277 0.274846 0)
(0.439571 0.320522 0)
(0.302897 0.357621 0)
(0.150974 0.448392 0)
(3 2.32081e-16 0)
(3 6.71727e-17 0)
(3 -1.71495e-16 0)
(3 -9.06282e-16 0)
(3 -1.33607e-15 0)
(3 -8.73677e-16 0)
(3 -5.64332e-16 0)
(3 -1.78952e-16 0)
(3 1.97854e-16 0)
(3 1.27855e-16 0)
(3 -8.54864e-16 0)
(3 -1.33069e-15 0)
(3 -6.62978e-16 0)
(3 -6.94718e-16 0)
(3 -1.43464e-16 0)
(3 1.34426e-15 0)
(3 1.69668e-15 0)
(3.02399 0.0129095 0)
(1.1753 0.346624 0)
(0.749747 0.3286 0)
(0.648987 0.365469 0)
(0.543582 0.435237 0)
(0.360897 0.543963 0)
(0.197121 0.755597 0)
(3 1.27807e-16 0)
(3 3.85765e-16 0)
(3 1.93889e-17 0)
(3 -1.23596e-16 0)
(3 -1.22483e-16 0)
(3 -3.51672e-16 0)
(3 -4.80002e-16 0)
(3 -5.64577e-16 0)
(3 -8.9166e-17 0)
(3 -5.1954e-16 0)
(3 -9.12005e-16 0)
(3 -8.57817e-16 0)
(3 -6.25071e-16 0)
(3 2.82456e-16 0)
(3 5.92832e-16 0)
(3 3.59389e-16 0)
(3 9.00934e-17 0)
(3.0017 1.40097e-05 0)
(1.46575 0.404153 0)
(0.80318 0.429214 0)
(0.689465 0.471929 0)
(0.611198 0.578724 0)
(0.555976 0.757522 0)
(0.657046 1.03614 0)
(3 -1.11859e-16 0)
(3 -3.12297e-16 0)
(3 -5.79102e-16 0)
(3 -3.83053e-16 0)
(3 -5.80343e-18 0)
(3 8.32205e-17 0)
(3 -4.73133e-17 0)
(3 -4.41196e-16 0)
(3 -1.0494e-15 0)
(3 -1.69726e-15 0)
(3 -1.24716e-15 0)
(3 -6.61338e-16 0)
(3 -2.76932e-16 0)
(3 3.83087e-16 0)
(3 5.75911e-16 0)
(3 1.09003e-17 0)
(3 -1.15163e-15 0)
(3.00001 -4.2507e-07 0)
(1.98958 0.451055 0)
(0.89151 0.545634 0)
(0.759673 0.557593 0)
(0.733947 0.656046 0)
(0.77546 0.785877 0)
(0.993698 0.920375 0)
(3 -1.42669e-16 0)
(3 -3.17697e-17 0)
(3 -2.54124e-16 0)
(3 -5.01539e-16 0)
(3 -5.75727e-16 0)
(3 -5.60401e-16 0)
(3 -8.00127e-16 0)
(3 -7.57075e-16 0)
(3 -1.4613e-15 0)
(3 -1.30261e-15 0)
(3 -6.64214e-16 0)
(3 -9.7981e-16 0)
(3 -7.97986e-16 0)
(3 -9.09507e-17 0)
(3 -2.72889e-16 0)
(3 3.21911e-16 0)
(3 8.09476e-16 0)
(3 -3.9616e-07 0)
(2.79722 0.279348 0)
(1.11124 0.641172 0)
(0.8952 0.602541 0)
(0.884186 0.695382 0)
(0.962861 0.808555 0)
(1.21011 0.894898 0)
(3 1.16462e-16 0)
(3 4.61062e-16 0)
(3 6.37653e-16 0)
(3 7.82629e-16 0)
(3 1.80085e-16 0)
(3 -3.4216e-16 0)
(3 -1.01131e-16 0)
(3 -2.32543e-16 0)
(3 -5.06546e-16 0)
(3 7.43628e-17 0)
(3 -1.92281e-16 0)
(3 -6.94612e-16 0)
(3 -4.43881e-16 0)
(3 -4.01579e-16 0)
(3 -4.86687e-16 0)
(3 8.19259e-16 0)
(3 1.29894e-15 0)
(3 -7.77903e-08 0)
(3.0669 0.0191564 0)
(1.507 0.653854 0)
(1.01291 0.713725 0)
(1.02139 0.731634 0)
(1.08974 0.794425 0)
(1.30016 0.84551 0)
(3 -1.3109e-17 0)
(3 -2.58288e-16 0)
(3 -1.68267e-16 0)
(3 -1.37415e-16 0)
(3 -3.63354e-16 0)
(3 -6.75426e-16 0)
(3 -6.28955e-16 0)
(3 -6.9888e-16 0)
(3 -2.84717e-16 0)
(3 -1.51198e-17 0)
(3 7.41211e-17 0)
(3 6.26806e-16 0)
(3 5.75051e-16 0)
(3 -1.27888e-16 0)
(3 -7.12389e-16 0)
(3 -3.12078e-16 0)
(3 4.40343e-16 0)
(3 -7.20639e-09 0)
(3.00285 0.000108342 0)
(2.2308 0.57361 0)
(1.15683 0.80709 0)
(1.107 0.800133 0)
(1.19352 0.817912 0)
(1.36083 0.831586 0)
(3 -2.8588e-16 0)
(3 -7.34264e-16 0)
(3 -3.71612e-16 0)
(3 -7.75402e-16 0)
(3 -7.43359e-16 0)
(3 -4.43325e-16 0)
(3 -1.0465e-15 0)
(3 -1.84186e-15 0)
(3 -1.17521e-15 0)
(3 -1.07181e-15 0)
(3 -8.50459e-16 0)
(3 1.21243e-17 0)
(3 -3.70168e-16 0)
(3 -1.28897e-15 0)
(3 -1.94953e-15 0)
(3 -2.35501e-15 0)
(3 -1.15434e-15 0)
(3 -1.94141e-10 0)
(3.00001 -5.65677e-08 0)
(3.04391 0.121306 0)
(1.55851 0.821665 0)
(1.20852 0.795947 0)
(1.29754 0.807152 0)
(1.41994 0.8129 0)
(3 -1.32624e-16 0)
(3 -1.66814e-16 0)
(3 4.46056e-16 0)
(3 5.71244e-16 0)
(3 2.42e-16 0)
(3 -4.07467e-16 0)
(3 -8.73113e-16 0)
(3 -1.37839e-15 0)
(3 -2.0875e-15 0)
(3 -2.09689e-15 0)
(3 -2.02825e-15 0)
(3 -2.01877e-15 0)
(3 -2.39531e-15 0)
(3 -2.70357e-15 0)
(3 -2.47208e-15 0)
(3 -2.54926e-15 0)
(3 -1.9201e-15 0)
(3 -3.85529e-13 0)
(3 -3.34635e-07 0)
(3.01423 0.00314129 0)
(2.29078 0.645843 0)
(1.34393 0.876739 0)
(1.34538 0.866434 0)
(1.45625 0.849726 0)
(3 2.00116e-16 0)
(3 5.61928e-16 0)
(3 5.2266e-16 0)
(3 8.65697e-16 0)
(3 6.2456e-16 0)
(3 -8.94542e-17 0)
(3 -5.66785e-16 0)
(3 -7.70804e-16 0)
(3 -1.32551e-15 0)
(3 -1.86991e-15 0)
(3 -1.71732e-15 0)
(3 -2.32607e-15 0)
(3 -2.72103e-15 0)
(3 -2.80077e-15 0)
(3 -2.49888e-15 0)
(3 -2.08665e-15 0)
(3 -1.57722e-15 0)
(3 -1.84874e-15 0)
(3 -6.68834e-08 0)
(3.00008 3.86593e-05 0)
(3.01814 0.125213 0)
(1.78035 0.850446 0)
(1.40092 0.878314 0)
(1.5144 0.859451 0)
(3 -4.29031e-17 0)
(3 3.44181e-16 0)
(3 1.77367e-16 0)
(3 6.1048e-16 0)
(3 5.7957e-16 0)
(3 -3.50657e-17 0)
(3 -6.09128e-16 0)
(3 -5.89788e-16 0)
(3 -4.28599e-16 0)
(3 -1.17436e-15 0)
(3 -2.05941e-15 0)
(3 -2.43695e-15 0)
(3 -1.99969e-15 0)
(3 -1.90995e-15 0)
(3 -2.2078e-15 0)
(3 -1.44244e-15 0)
(3 -8.08529e-16 0)
(3 -7.58058e-16 0)
(3 -6.17743e-09 0)
(3 9.82122e-09 0)
(3.00743 0.00573786 0)
(2.6336 0.52558 0)
(1.57785 0.920574 0)
(1.551 0.9188 0)
(3 -3.82515e-17 0)
(3 -1.72023e-16 0)
(3 -2.61863e-16 0)
(3 -4.52672e-16 0)
(3 -3.80354e-16 0)
(3 -5.79472e-16 0)
(3 -1.06314e-15 0)
(3 -1.09835e-15 0)
(3 -1.22405e-15 0)
(3 -1.35917e-15 0)
(3 -1.84417e-15 0)
(3 -2.18335e-15 0)
(3 -1.63097e-15 0)
(3 -9.71852e-16 0)
(3 -4.44986e-16 0)
(3 -3.9071e-16 0)
(3 -1.22157e-15 0)
(3 -1.53944e-15 0)
(3 -1.98265e-10 0)
(3 -1.86513e-10 0)
(3.00002 6.7618e-05 0)
(3.02606 0.0570509 0)
(2.14012 0.749743 0)
(1.64529 0.922296 0)
(3 1.44733e-16 0)
(3 1.52418e-17 0)
(3 -2.48085e-16 0)
(3 -1.22833e-15 0)
(3 -1.83533e-15 0)
(3 -6.48741e-16 0)
(3 -4.0318e-16 0)
(3 -6.60959e-16 0)
(3 -1.12015e-15 0)
(3 -1.01784e-15 0)
(3 -1.41726e-15 0)
(3 -1.66318e-15 0)
(3 -1.07637e-15 0)
(3 -5.42733e-16 0)
(3 -5.31763e-17 0)
(3 -5.55552e-16 0)
(3 -1.37089e-15 0)
(3 1.07866e-16 0)
(3 -1.17649e-12 0)
(3 -5.43377e-11 0)
(3 5.64041e-08 0)
(3.00111 0.00257606 0)
(2.87514 0.243926 0)
(1.97419 0.844236 0)
(3 -1.23684e-16 0)
(3 -1.03883e-16 0)
(3 -3.60961e-16 0)
(3 -6.63295e-16 0)
(3 -6.18703e-16 0)
(3 -6.82392e-16 0)
(3 -9.93496e-16 0)
(3 -1.02348e-15 0)
(3 -8.26354e-16 0)
(3 -3.54128e-16 0)
(3 -5.66879e-17 0)
(3 -2.42632e-16 0)
(3 -4.2217e-17 0)
(3 -3.1238e-16 0)
(3 -1.01778e-15 0)
(3 -8.12062e-16 0)
(3 -4.87082e-16 0)
(3 1.64927e-15 0)
(3 -1.25969e-15 0)
(3 -7.03247e-12 0)
(3 8.09693e-12 0)
(3 1.20549e-05 0)
(3.00127 0.0177403 0)
(2.64815 0.446098 0)
(3 -9.93962e-17 0)
(3 -2.54071e-16 0)
(3 -3.39086e-16 0)
(3 1.85363e-16 0)
(3 4.31591e-16 0)
(3 1.24921e-16 0)
(3 7.04497e-17 0)
(3 -9.24831e-17 0)
(3 1.27691e-16 0)
(3 7.90949e-16 0)
(3 1.55785e-15 0)
(3 1.55462e-15 0)
(3 4.73875e-16 0)
(3 -1.10489e-15 0)
(3 -1.09708e-15 0)
(3 -1.22032e-16 0)
(3 8.8426e-16 0)
(3 1.02691e-15 0)
(3 9.87869e-16 0)
(3 -3.30425e-13 0)
(3 -8.31e-13 0)
(3 8.9402e-09 0)
(2.99996 0.000330047 0)
(2.98437 0.0532523 0)
(3 -9.05973e-18 0)
(3 2.42367e-17 0)
(3 4.07621e-16 0)
(3 7.0203e-16 0)
(3 8.14103e-16 0)
(3 8.28591e-16 0)
(3 1.53964e-15 0)
(3 2.82945e-15 0)
(3 2.7936e-15 0)
(3 2.79564e-15 0)
(3 2.68092e-15 0)
(3 1.44368e-15 0)
(3 -1.55711e-16 0)
(3 -2.57378e-16 0)
(3 9.75329e-17 0)
(3 9.81052e-16 0)
(3 1.39857e-15 0)
(3 1.09205e-15 0)
(3 6.59706e-16 0)
(3 -3.89759e-15 0)
(3 -4.81785e-13 0)
(3 1.79804e-12 0)
(3 6.47336e-07 0)
(2.99968 0.00192142 0)
(3 3.80393e-17 0)
(3 5.95653e-17 0)
(3 2.54185e-16 0)
(3 1.39973e-16 0)
(3 -1.67589e-16 0)
(3 -1.47707e-16 0)
(3 4.3567e-16 0)
(3 9.65562e-16 0)
(3 8.52543e-16 0)
(3 5.86195e-16 0)
(3 2.90558e-16 0)
(3 -1.83612e-17 0)
(3 1.60178e-16 0)
(3 9.61143e-16 0)
(3 1.25377e-15 0)
(3 1.28098e-15 0)
(3 1.22096e-15 0)
(3 1.25143e-15 0)
(3 2.56741e-16 0)
(3 -9.0366e-16 0)
(3 -1.05118e-13 0)
(3 -2.33458e-13 0)
(3 4.67435e-10 0)
(3 8.27973e-06 0)
(3 1.2284e-18 0)
(3 1.04108e-17 0)
(3 1.0546e-16 0)
(3 -1.72177e-16 0)
(3 -2.26866e-16 0)
(3 -7.09951e-16 0)
(3 -7.5921e-16 0)
(3 -7.67948e-16 0)
(3 -1.00249e-15 0)
(3 -1.14662e-15 0)
(3 -1.09654e-15 0)
(3 -5.89443e-16 0)
(3 5.7351e-16 0)
(3 8.97994e-16 0)
(3 7.40674e-16 0)
(3 1.69858e-16 0)
(3 -6.7971e-16 0)
(3 -1.10873e-15 0)
(3 -2.08306e-15 0)
(3 -1.8552e-15 0)
(3 -9.54383e-15 0)
(3 -9.43777e-14 0)
(3 -5.14147e-14 0)
(3 9.62262e-09 0)
(3 -2.33946e-17 0)
(3 6.98209e-17 0)
(3 3.4906e-16 0)
(3 9.52104e-17 0)
(3 3.01891e-16 0)
(3 1.23881e-16 0)
(3 -9.97933e-16 0)
(3 -1.23766e-15 0)
(3 -1.98982e-15 0)
(3 -1.92042e-15 0)
(3 -1.65607e-15 0)
(3 -9.42143e-16 0)
(3 -5.83209e-16 0)
(3 -3.81977e-16 0)
(3 3.8759e-17 0)
(3 -2.48763e-16 0)
(3 -1.08158e-15 0)
(3 -1.52295e-15 0)
(3 -2.40533e-15 0)
(3 -2.12165e-15 0)
(3 -1.90531e-15 0)
(3 -1.31172e-14 0)
(3 -2.41843e-14 0)
(3 2.42151e-12 0)
(3 -4.91183e-17 0)
(3 2.89171e-17 0)
(3 4.74875e-17 0)
(3 3.19288e-16 0)
(3 5.89668e-17 0)
(3 -1.03571e-16 0)
(3 -6.44148e-16 0)
(3 -1.19778e-15 0)
(3 -2.05986e-15 0)
(3 -2.49137e-15 0)
(3 -2.12759e-15 0)
(3 -1.53994e-15 0)
(3 -1.0048e-15 0)
(3 -6.62223e-16 0)
(3 6.45627e-17 0)
(3 4.45653e-16 0)
(3 -2.3238e-16 0)
(3 -6.17356e-16 0)
(3 -1.51804e-15 0)
(3 -9.60965e-16 0)
(3 -5.95354e-16 0)
(3 -9.06236e-16 0)
(3 -3.74293e-15 0)
(3 -2.88845e-15 0)
(3 2.43048e-17 0)
(3 2.11949e-17 0)
(3 -1.37217e-16 0)
(3 4.21765e-16 0)
(3 5.62983e-16 0)
(3 4.33053e-16 0)
(3 5.87695e-16 0)
(3 -2.87034e-16 0)
(3 -3.13911e-16 0)
(3 -7.85026e-16 0)
(3 -1.11367e-15 0)
(3 -6.4287e-16 0)
(3 -2.26729e-16 0)
(3 -3.55632e-16 0)
(3 -5.25945e-16 0)
(3 -3.16463e-16 0)
(3 -1.62853e-16 0)
(3 -1.84851e-16 0)
(3 -3.08594e-16 0)
(3 -2.72615e-16 0)
(3 -1.16993e-16 0)
(3 1.04388e-15 0)
(3 2.0122e-16 0)
(3 -1.02916e-15 0)
(3 -2.18948e-17 0)
(3 -1.80528e-16 0)
(3 2.3634e-16 0)
(3 6.41308e-16 0)
(3 9.92415e-16 0)
(3 9.71383e-16 0)
(3 2.15574e-16 0)
(3 3.21958e-16 0)
(3 9.10015e-16 0)
(3 7.49988e-16 0)
(3 3.35888e-16 0)
(3 3.38985e-16 0)
(3 2.1093e-16 0)
(3 9.43387e-17 0)
(3 -9.08546e-16 0)
(3 -1.75829e-15 0)
(3 -6.26148e-16 0)
(3 -2.15118e-16 0)
(3 -7.1588e-16 0)
(3 -1.35178e-15 0)
(3 -1.28886e-15 0)
(3 -7.34774e-16 0)
(3 6.59059e-16 0)
(3 6.38683e-16 0)
(3 -2.05034e-16 0)
(3 -1.72116e-16 0)
(3 -1.3994e-16 0)
(3 7.60822e-17 0)
(3 -5.04741e-17 0)
(3 -3.43785e-16 0)
(3 -6.30366e-16 0)
(3 -3.55417e-16 0)
(3 -1.08698e-16 0)
(3 -2.0423e-17 0)
(3 1.76874e-16 0)
(3 1.36288e-18 0)
(3 4.1462e-17 0)
(3 -2.18362e-16 0)
(3 -9.29563e-16 0)
(3 -1.96966e-15 0)
(3 -1.89244e-15 0)
(3 -1.26891e-15 0)
(3 -4.76002e-16 0)
(3 -1.25711e-15 0)
(3 -1.83477e-15 0)
(3 -1.79706e-15 0)
(3 7.95588e-18 0)
(3 2.74535e-16 0)
(3 -6.06693e-17 0)
(3 -2.77382e-16 0)
(3 -5.67083e-16 0)
(3 -5.11472e-16 0)
(3 -4.90461e-16 0)
(3 -3.6314e-16 0)
(3 -2.1967e-16 0)
(3 -4.31709e-16 0)
(3 -3.71889e-16 0)
(3 -2.71804e-17 0)
(3 8.21437e-17 0)
(3 -5.46758e-16 0)
(3 -5.76346e-16 0)
(3 -7.21295e-16 0)
(3 -1.12602e-15 0)
(3 -1.86099e-15 0)
(3 -2.5838e-15 0)
(3 -2.06997e-15 0)
(3 -5.38222e-16 0)
(3 -5.31988e-16 0)
(3 -9.82605e-16 0)
(3 -1.85196e-15 0)
(3 -1.74376e-15 0)
(3 -8.95321e-16 0)
(3 3.37859e-16 0)
(3 3.6904e-16 0)
(3 2.84664e-16 0)
(3 -5.43104e-17 0)
(3 2.2557e-16 0)
(3 4.44884e-16 0)
(3 4.1944e-16 0)
(3 5.12258e-16 0)
(3 7.24626e-16 0)
(3 9.90039e-16 0)
(3 1.02124e-15 0)
(3 1.74437e-16 0)
(3 -3.53534e-16 0)
(3 -7.12442e-16 0)
(3 -1.36097e-15 0)
(3 -1.47606e-15 0)
(3 -1.19791e-15 0)
(3 -9.37034e-16 0)
(3 -7.96631e-16 0)
(3 9.28272e-18 0)
(3 4.97269e-17 0)
(3 -4.37131e-16 0)
(3 -1.06517e-15 0)
(3 -1.07228e-15 0)
(3 3.97238e-17 0)
(3 1.23526e-16 0)
(3 1.70627e-16 0)
(3 -2.47909e-16 0)
(3 -4.18781e-16 0)
(3 -5.29444e-17 0)
(3 5.552e-16 0)
(3 8.95612e-16 0)
(3 1.20657e-15 0)
(3 1.26273e-15 0)
(3 1.07531e-15 0)
(3 1.33831e-15 0)
(3 5.28872e-16 0)
(3 -6.52277e-16 0)
(3 -7.24648e-16 0)
(3 -5.95621e-16 0)
(3 -1.42807e-16 0)
(3 -2.11641e-16 0)
(3 -6.51388e-16 0)
(3 -6.3295e-16 0)
(3 -2.44681e-17 0)
(3 2.12966e-16 0)
(3 4.19794e-16 0)
(3 5.29925e-16 0)
(3 5.19835e-17 0)
(3 -1.20363e-16 0)
(3 -5.27757e-16 0)
(3 -1.25113e-16 0)
(3 -4.73969e-16 0)
(3 1.45429e-16 0)
(3 6.93158e-16 0)
(3 -8.05322e-18 0)
(3 4.49873e-17 0)
(3 4.69452e-16 0)
(3 4.61218e-16 0)
(3 3.72329e-16 0)
(3 1.66342e-16 0)
(3 -3.59655e-16 0)
(3 -1.18713e-16 0)
(3 1.11087e-15 0)
(3 6.61915e-16 0)
(3 -2.0896e-16 0)
(3 -1.23845e-15 0)
(3 -1.23264e-15 0)
(3 -6.31939e-16 0)
(3 2.14994e-16 0)
(3 7.16789e-16 0)
(3 1.1285e-15 0)
(3 2.86549e-17 0)
(3 2.8337e-18 0)
(3 1.44639e-16 0)
(3 5.4728e-16 0)
(3 5.0281e-16 0)
(3 2.67323e-16 0)
(3 3.14874e-16 0)
(3 -2.43964e-16 0)
(3 -9.1481e-16 0)
(3 -1.67094e-15 0)
(3 -1.65235e-15 0)
(3 -1.73162e-15 0)
(3 -1.39179e-15 0)
(3 -8.54547e-16 0)
(3 -6.22952e-16 0)
(3 2.22512e-16 0)
(3 -1.5032e-16 0)
(3 -2.00993e-16 0)
(3 -1.48391e-16 0)
(3 1.96736e-16 0)
(3 -2.68556e-16 0)
(3 -2.89753e-16 0)
(3 7.52731e-17 0)
(3 8.32996e-16 0)
(3 -1.21855e-16 0)
(3 -2.39659e-16 0)
(3 -2.26677e-16 0)
(3 -3.10779e-16 0)
(3 -4.5218e-16 0)
(3 -6.75985e-16 0)
(3 -5.62965e-16 0)
(3 -3.97059e-16 0)
(3 -1.02365e-15 0)
(3 -2.02568e-15 0)
(3 -2.48309e-15 0)
(3 -1.9721e-15 0)
(3 -1.44707e-15 0)
(3 -4.82762e-16 0)
(3 -7.20041e-16 0)
(3 -1.41683e-15 0)
(3 -6.43604e-16 0)
(3 1.48411e-17 0)
(3 6.24619e-16 0)
(3 3.16576e-16 0)
(3 -2.10596e-16 0)
(3 -7.08443e-16 0)
(3 -4.30906e-16 0)
(3 -1.63371e-16 0)
(3 2.21843e-16 0)
(3 -3.56887e-16 0)
(3 -3.84103e-16 0)
(3 -7.2181e-16 0)
(3 -7.3947e-16 0)
(3 -7.65931e-16 0)
(3 -1.33121e-15 0)
(3 -1.33268e-15 0)
(3 -9.9981e-16 0)
(3 -9.57783e-16 0)
(3 -9.43332e-16 0)
(3 -4.65052e-16 0)
(3 5.08163e-16 0)
(3 7.68591e-16 0)
(3 2.58803e-16 0)
(3 -8.37639e-16 0)
(3 2.5756e-17 0)
(3 4.1687e-16 0)
(3 7.54843e-17 0)
(3 -4.59416e-16 0)
(3 -1.22638e-16 0)
(3 7.44175e-16 0)
(3 3.34175e-16 0)
(3 -7.95571e-16 0)
(3 -7.0326e-17 0)
(3 2.84009e-16 0)
(3 3.03368e-16 0)
(3 -5.56301e-17 0)
(3 -4.65044e-16 0)
(3 -7.42902e-16 0)
(3 -7.66986e-16 0)
(3 -3.79044e-17 0)
(3 2.55805e-16 0)
(3 -9.74066e-17 0)
(3 -2.87024e-16 0)
(3 -1.90553e-16 0)
(3 1.04244e-16 0)
(3 1.2029e-16 0)
(3 1.16594e-15 0)
(3 1.13925e-15 0)
(3 1.20354e-15 0)
(3 1.40107e-15 0)
(3 1.45309e-15 0)
(3 5.25061e-16 0)
(3 -3.33254e-16 0)
(3 4.85936e-17 0)
(3 4.81307e-16 0)
(3 -1.00886e-16 0)
(3 2.35671e-19 0)
(3 4.31582e-16 0)
(3 2.83613e-16 0)
(3 3.0792e-16 0)
(3 4.37002e-17 0)
(3 -1.27214e-17 0)
(3 1.0431e-15 0)
(3 1.16789e-15 0)
(3 3.5714e-16 0)
(3 4.03807e-16 0)
(3 5.65679e-16 0)
(3 -2.58209e-16 0)
(3 -9.38315e-16 0)
(3 -1.14627e-15 0)
(3 4.61267e-16 0)
(3 1.69008e-15 0)
(3 1.62477e-15 0)
(3 8.43327e-16 0)
(3 7.16523e-16 0)
(3 1.25836e-15 0)
(3 1.09434e-15 0)
(3 1.70467e-16 0)
(3 2.20744e-16 0)
(3 1.57672e-15 0)
(3 4.38694e-17 0)
(3 1.56914e-17 0)
(3 -3.13366e-17 0)
(3 4.89717e-17 0)
(3 7.00351e-16 0)
(3 1.2795e-15 0)
(3 1.2637e-15 0)
(3 1.17078e-15 0)
(3 9.4803e-16 0)
(3 6.39958e-16 0)
(3 1.47309e-15 0)
(3 1.19406e-15 0)
(3 -1.24393e-16 0)
(3 -5.46182e-16 0)
(3 3.52886e-16 0)
(3 1.20561e-15 0)
(3 5.62804e-16 0)
(3 -3.17325e-16 0)
(3 -1.09806e-16 0)
(3 1.11608e-15 0)
(3 2.11361e-15 0)
(3 1.77179e-15 0)
(3 1.07006e-15 0)
(3 1.9454e-15 0)
(3 -9.55989e-18 0)
(3 -1.5229e-16 0)
(3 -9.52085e-17 0)
(3 -2.07261e-16 0)
(3 -9.97328e-17 0)
(3 2.35315e-16 0)
(3 8.06962e-16 0)
(3 1.14366e-15 0)
(3 1.70866e-15 0)
(3 1.76933e-15 0)
(3 2.44226e-15 0)
(3 3.09024e-15 0)
(3 2.61196e-15 0)
(3 1.7681e-15 0)
(3 1.18288e-15 0)
(3 1.15369e-15 0)
(3 1.09782e-15 0)
(3 3.57238e-16 0)
(3 -9.42164e-17 0)
(3 -3.2262e-16 0)
(3 4.50886e-17 0)
(3 7.54548e-17 0)
(3 6.17367e-19 0)
(3 4.4039e-17 0)
(3 3.19776e-16 0)
(3 8.51464e-17 0)
(3 -2.11106e-16 0)
(3 -4.50278e-16 0)
(3 -4.37743e-16 0)
(3 4.32379e-16 0)
(3 8.51299e-16 0)
(3 1.05479e-15 0)
(3 2.2945e-15 0)
(3 2.75643e-15 0)
(3 1.75783e-15 0)
(3 1.08506e-15 0)
(3 1.59237e-15 0)
(3 1.99024e-15 0)
(3 1.0214e-15 0)
(3 5.05665e-16 0)
(3 1.04692e-15 0)
(3 1.02783e-15 0)
(3 1.38734e-16 0)
(3 -1.06387e-15 0)
(3 -1.30729e-15 0)
(3 -1.68423e-15 0)
(3 -2.08262e-15 0)
(3 -2.29705e-15 0)
(3 1.55533e-17 0)
(3 4.2756e-16 0)
(3 -6.64453e-17 0)
(3 -2.34266e-16 0)
(3 1.56792e-16 0)
(3 8.42389e-17 0)
(3 -1.89222e-16 0)
(3 9.41597e-17 0)
(3 1.60465e-15 0)
(3 2.34132e-15 0)
(3 1.40843e-15 0)
(3 7.36588e-16 0)
(3 7.6326e-16 0)
(3 1.53807e-15 0)
(3 2.35363e-15 0)
(3 1.78061e-15 0)
(3 1.23336e-15 0)
(3 1.08511e-15 0)
(3 9.21464e-16 0)
(3 6.93271e-16 0)
(3 -3.05897e-16 0)
(3 -6.25212e-16 0)
(3 -1.17949e-15 0)
(3 -1.64693e-15 0)
(3 -3.46012e-16 0)
(3 -5.18044e-17 0)
(3 5.71252e-16 0)
(3 1.22997e-15 0)
(3 8.70995e-16 0)
(3 -3.23266e-16 0)
(3 -6.30427e-16 0)
(3 -5.13698e-16 0)
(3 -3.24646e-16 0)
(3 -6.46996e-16 0)
(3 -4.8584e-16 0)
(3 -1.01749e-16 0)
(3 -1.81335e-17 0)
(3 3.36595e-16 0)
(3 1.1574e-15 0)
(3 1.18788e-15 0)
(3 5.7733e-16 0)
(3 5.40108e-16 0)
(3 1.19918e-15 0)
(3 2.12405e-15 0)
(3 2.59728e-15 0)
(3 1.8463e-15 0)
(3 1.45943e-15 0)
(3 -1.35293e-16 0)
(3 -1.88248e-16 0)
(3 -4.85948e-17 0)
(3 7.94323e-16 0)
(3 1.60667e-15 0)
(3 1.09213e-15 0)
(3 5.11515e-16 0)
(3 -1.06456e-16 0)
(3 -2.67635e-16 0)
(3 -6.07103e-16 0)
(3 -8.9395e-16 0)
(3 -7.76782e-16 0)
(3 -7.04049e-16 0)
(3 -4.92894e-16 0)
(3 -3.61977e-16 0)
(3 2.16984e-16 0)
(3 5.44858e-16 0)
(3 8.35105e-16 0)
(3 1.03063e-15 0)
(3 1.47218e-15 0)
(3 1.9683e-15 0)
(3 2.27404e-15 0)
(3 2.12301e-15 0)
(3 1.68552e-15 0)
(3 5.96721e-16 0)
(1.59838 1.01641 0)
(2.38287 1.17392 0)
(1.44741 0.837541 0)
(0.412079 0.402458 0)
(0.2475 0.13851 0)
(0.190269 0.0426996 0)
(0.146205 0.0448275 0)
(0.0805633 0.0489043 0)
(0.028285 0.0360811 0)
(-0.00112919 0.0120714 0)
(-0.0145868 -0.00263669 0)
(-0.00654122 -0.0131252 0)
(1.70931 0.820176 0)
(2.43941 0.606783 0)
(1.95887 0.335816 0)
(1.02028 0.304744 0)
(0.732951 0.113836 0)
(0.512819 0.0546621 0)
(0.343963 0.0698062 0)
(0.215859 0.0811974 0)
(0.12655 0.0673353 0)
(0.0694236 0.0307336 0)
(0.0277867 0.0118676 0)
(0.0187851 -0.00475847 0)
(1.62338 0.870711 0)
(2.11591 0.637207 0)
(2.16019 0.521237 0)
(1.66015 0.660679 0)
(1.25693 0.565525 0)
(0.989004 0.455852 0)
(0.69846 0.376841 0)
(0.499957 0.287816 0)
(0.367179 0.214196 0)
(0.264944 0.141989 0)
(0.176818 0.0710632 0)
(0.0981737 0.0712114 0)
(1.58683 0.823675 0)
(1.9087 0.687844 0)
(2.14774 0.530794 0)
(2.03495 0.579544 0)
(1.62105 0.684494 0)
(1.47327 0.623417 0)
(1.25462 0.495487 0)
(1.04449 0.373727 0)
(0.848361 0.29708 0)
(0.672449 0.217993 0)
(0.464649 0.187427 0)
(0.254183 0.36417 0)
(1.56425 0.811371 0)
(1.80557 0.724629 0)
(2.03744 0.598759 0)
(2.08759 0.557799 0)
(1.92902 0.640014 0)
(1.65073 0.725483 0)
(1.53275 0.692946 0)
(1.44368 0.622018 0)
(1.28322 0.553506 0)
(1.09314 0.47607 0)
(0.917804 0.419262 0)
(0.879447 0.597927 0)
(1.5806 0.793151 0)
(1.75495 0.747266 0)
(1.96506 0.642929 0)
(2.09271 0.559718 0)
(2.03954 0.584405 0)
(1.85753 0.681248 0)
(1.6267 0.730376 0)
(1.61961 0.715681 0)
(1.56078 0.68103 0)
(1.45497 0.632421 0)
(1.37552 0.56298 0)
(1.36374 0.529763 0)
(1.57462 0.830301 0)
(1.71928 0.782741 0)
(1.87059 0.714164 0)
(2.04767 0.606389 0)
(2.05201 0.594572 0)
(1.95575 0.644958 0)
(1.74824 0.738752 0)
(1.6829 0.737823 0)
(1.66671 0.723101 0)
(1.62367 0.719684 0)
(1.61552 0.681622 0)
(1.62412 0.643148 0)
(1.60328 0.834049 0)
(1.72088 0.793392 0)
(1.83506 0.741245 0)
(2.00074 0.650433 0)
(2.06884 0.594011 0)
(2.03891 0.611733 0)
(1.87991 0.695576 0)
(1.72911 0.748149 0)
(1.7175 0.744012 0)
(1.69866 0.743735 0)
(1.71089 0.726169 0)
(1.74288 0.696195 0)
(1.63029 0.876466 0)
(1.71746 0.83774 0)
(1.8206 0.780656 0)
(1.93122 0.720987 0)
(2.0618 0.62725 0)
(2.05739 0.620887 0)
(1.98076 0.661866 0)
(1.81552 0.730805 0)
(1.74065 0.760763 0)
(1.7257 0.761524 0)
(1.73592 0.751237 0)
(1.77126 0.731272 0)
(1.66385 0.908774 0)
(1.74113 0.864126 0)
(1.83443 0.811322 0)
(1.91442 0.759099 0)
(2.04396 0.675803 0)
(2.08505 0.631745 0)
(2.0462 0.644268 0)
(1.91493 0.708524 0)
(1.79744 0.76627 0)
(1.75664 0.766323 0)
(1.75795 0.758986 0)
(1.78149 0.746771 0)
(1.71568 0.932724 0)
(1.75908 0.9069 0)
(1.83578 0.864287 0)
(1.92264 0.801041 0)
(2.00472 0.749641 0)
(2.10799 0.660092 0)
(2.08933 0.662996 0)
(2.02548 0.69003 0)
(1.89991 0.755643 0)
(1.791 0.784596 0)
(1.78234 0.78104 0)
(1.79342 0.767883 0)
(1.93585 0.897828 0)
(1.78242 0.935442 0)
(1.83225 0.906325 0)
(1.92273 0.848374 0)
(1.9908 0.798774 0)
(2.10206 0.716891 0)
(2.12871 0.682523 0)
(2.09297 0.691326 0)
(1.99941 0.734524 0)
(1.86993 0.796826 0)
(1.82374 0.794169 0)
(1.81807 0.785018 0)
(2.49237 0.58437 0)
(1.93651 0.928688 0)
(1.84411 0.931484 0)
(1.89781 0.900985 0)
(1.98706 0.837477 0)
(2.06253 0.786031 0)
(2.15824 0.706347 0)
(2.14096 0.702324 0)
(2.09652 0.720117 0)
(1.99808 0.778441 0)
(1.87417 0.812458 0)
(1.85917 0.808803 0)
(2.94475 0.115013 0)
(2.41066 0.666159 0)
(1.95415 0.928246 0)
(1.91688 0.932243 0)
(1.96164 0.896196 0)
(2.04681 0.82732 0)
(2.13143 0.768685 0)
(2.18026 0.714857 0)
(2.14468 0.725547 0)
(2.08216 0.754676 0)
(1.97506 0.816299 0)
(1.9058 0.82435 0)
(2.99856 0.0057211 0)
(2.89326 0.187769 0)
(2.36982 0.706775 0)
(1.99271 0.923512 0)
(1.97837 0.926947 0)
(2.02746 0.885836 0)
(2.09625 0.829056 0)
(2.19676 0.743536 0)
(2.1868 0.735904 0)
(2.15048 0.748547 0)
(2.07977 0.790149 0)
(1.96517 0.836563 0)
(2.99998 4.62086e-05 0)
(2.99604 0.0116491 0)
(2.8503 0.24562 0)
(2.35571 0.7224 0)
(2.04156 0.916337 0)
(2.0339 0.919431 0)
(2.08097 0.878732 0)
(2.14925 0.822017 0)
(2.23076 0.751185 0)
(2.1924 0.752748 0)
(2.15708 0.771159 0)
(2.08092 0.820419 0)
(3 7.51244e-08 0)
(2.99995 0.000149897 0)
(2.99308 0.0177659 0)
(2.81866 0.280943 0)
(2.36697 0.724389 0)
(2.08865 0.906862 0)
(2.08498 0.909572 0)
(2.12766 0.872424 0)
(2.20554 0.815303 0)
(2.23432 0.764912 0)
(2.20011 0.77366 0)
(2.15048 0.796982 0)
(3 3.24881e-11 0)
(3 3.23696e-07 0)
(2.99989 0.000303168 0)
(2.99014 0.0226243 0)
(2.80669 0.294316 0)
(2.39028 0.714513 0)
(2.13366 0.894584 0)
(2.13281 0.896517 0)
(2.16908 0.868103 0)
(2.24492 0.801582 0)
(2.23942 0.785082 0)
(2.20846 0.794748 0)
(3 2.59064e-15 0)
(3 2.06316e-10 0)
(3 7.9105e-07 0)
(2.99983 0.000455244 0)
(2.9885 0.024873 0)
(2.80838 0.290664 0)
(2.42253 0.694723 0)
(2.17701 0.880118 0)
(2.17528 0.882497 0)
(2.20426 0.860591 0)
(2.26267 0.804639 0)
(2.2471 0.800853 0)
(3 -2.49857e-16 0)
(3 2.1671e-14 0)
(3 6.23334e-10 0)
(3 1.39155e-06 0)
(2.9998 0.000521276 0)
(2.98766 0.0254371 0)
(2.82809 0.267794 0)
(2.44859 0.672774 0)
(2.22878 0.85759 0)
(2.21716 0.868097 0)
(2.23365 0.8541 0)
(2.27487 0.814102 0)
(3 -2.512e-16 0)
(3 -6.39289e-16 0)
(3 8.05341e-14 0)
(3 1.20884e-09 0)
(3 1.77799e-06 0)
(2.99979 0.000510511 0)
(2.98871 0.0238036 0)
(2.8539 0.231731 0)
(2.47109 0.653512 0)
(2.292 0.820769 0)
(2.25404 0.854453 0)
(2.26228 0.850506 0)
(3 7.76631e-17 0)
(3 -5.92447e-16 0)
(3 -1.5538e-15 0)
(3 1.93233e-13 0)
(3 1.52759e-09 0)
(3 1.87795e-06 0)
(2.99981 0.000441808 0)
(2.99134 0.0191508 0)
(2.86615 0.203591 0)
(2.53633 0.599094 0)
(2.35416 0.779676 0)
(2.28919 0.850254 0)
(3 -4.93049e-16 0)
(3 -3.14497e-16 0)
(3 -1.00779e-15 0)
(3 -1.19195e-15 0)
(3 2.72726e-13 0)
(3 1.60256e-09 0)
(3 1.57012e-06 0)
(2.99986 0.000340198 0)
(2.99338 0.0138801 0)
(2.88756 0.175066 0)
(2.63653 0.511937 0)
(2.40651 0.753343 0)
(3 4.87865e-16 0)
(3 2.54292e-16 0)
(3 1.03603e-15 0)
(3 -4.77841e-17 0)
(3 -5.20771e-16 0)
(3 3.19139e-13 0)
(3 1.20557e-09 0)
(3 1.1854e-06 0)
(2.99991 0.000213813 0)
(2.99464 0.010522 0)
(2.9284 0.128659 0)
(2.72479 0.429847 0)
(3 1.8531e-15 0)
(3 2.1099e-15 0)
(3 1.85499e-15 0)
(3 1.46347e-15 0)
(3 6.52528e-16 0)
(3 -2.01307e-16 0)
(3 2.37944e-13 0)
(3 8.19343e-10 0)
(3 7.09119e-07 0)
(2.99994 0.000130833 0)
(2.99696 0.006821 0)
(2.96271 0.0790448 0)
(3 1.67397e-15 0)
(3 2.22488e-15 0)
(3 1.72938e-15 0)
(3 1.31303e-15 0)
(3 6.25001e-16 0)
(3 5.1194e-17 0)
(3 6.73069e-18 0)
(3 1.4683e-13 0)
(3 4.32757e-10 0)
(3 4.21428e-07 0)
(2.99997 5.67053e-05 0)
(2.99842 0.00394767 0)
(3 -7.06357e-16 0)
(3 3.97739e-16 0)
(3 1.99053e-15 0)
(3 9.25438e-16 0)
(3 1.22096e-16 0)
(3 2.19426e-16 0)
(3 -1.59994e-16 0)
(3 -5.3291e-16 0)
(3 6.73768e-14 0)
(3 2.32783e-10 0)
(3 1.2783e-07 0)
(2.99999 2.93761e-05 0)
(3 -9.40104e-16 0)
(3 6.3288e-17 0)
(3 1.14191e-15 0)
(3 7.46154e-16 0)
(3 3.67097e-16 0)
(3 1.09583e-16 0)
(3 -5.2253e-17 0)
(3 -5.31994e-16 0)
(3 -1.43153e-16 0)
(3 2.81634e-14 0)
(3 5.44095e-11 0)
(3 5.33859e-08 0)
(3 1.96571e-16 0)
(3 1.93236e-16 0)
(3 6.30976e-16 0)
(3 1.77327e-15 0)
(3 1.25754e-15 0)
(3 1.22746e-15 0)
(3 6.389e-16 0)
(3 -5.95719e-16 0)
(3 -1.03069e-15 0)
(3 -1.10756e-15 0)
(3 5.36172e-15 0)
(3 1.95999e-11 0)
(3 1.11599e-15 0)
(3 2.96331e-16 0)
(3 1.05756e-15 0)
(3 9.69356e-16 0)
(3 8.26348e-16 0)
(3 1.13021e-15 0)
(3 1.16624e-15 0)
(3 6.77005e-16 0)
(3 -6.78296e-16 0)
(3 -1.34231e-15 0)
(3 -1.91831e-15 0)
(3 -7.05077e-16 0)
(3 -2.90132e-16 0)
(3 -1.54779e-15 0)
(3 -1.51064e-15 0)
(3 -2.102e-15 0)
(3 -8.97871e-16 0)
(3 -2.6531e-16 0)
(3 6.18405e-16 0)
(3 1.17218e-15 0)
(3 8.10676e-16 0)
(3 -1.02353e-15 0)
(3 -1.53462e-15 0)
(3 -1.76262e-15 0)
(3 -2.57539e-15 0)
(3 -3.57844e-15 0)
(3 -3.4026e-15 0)
(3 -3.13573e-15 0)
(3 -1.85973e-15 0)
(3 -2.38145e-16 0)
(3 2.68838e-16 0)
(3 3.08377e-17 0)
(3 2.97997e-16 0)
(3 -6.50585e-16 0)
(3 1.43646e-16 0)
(3 9.60117e-17 0)
(3 -1.84472e-15 0)
(3 -1.6726e-15 0)
(3 -1.67303e-15 0)
(3 -1.40419e-15 0)
(3 -4.64788e-16 0)
(3 -1.10442e-16 0)
(3 -7.93466e-16 0)
(3 -6.01635e-16 0)
(3 3.93272e-16 0)
(3 8.78889e-16 0)
(3 5.32648e-16 0)
(3 5.56839e-16 0)
(3 -1.32966e-15 0)
(3 -6.07696e-16 0)
(3 -1.37223e-15 0)
(3 -1.32767e-15 0)
(3 -1.11848e-15 0)
(3 -1.15358e-15 0)
(3 -7.4373e-16 0)
(3 -3.45187e-17 0)
(3 5.20765e-16 0)
(3 6.68921e-16 0)
(3 1.5541e-16 0)
(3 3.67767e-16 0)
(3 -2.4466e-15 0)
(3 -2.44327e-15 0)
(3 -2.31307e-15 0)
(3 -2.89991e-15 0)
(3 -2.94242e-15 0)
(3 -2.36987e-15 0)
(3 -9.79871e-16 0)
(3 -2.05917e-16 0)
(3 -3.31388e-16 0)
(3 -1.05894e-15 0)
(3 -8.72795e-16 0)
(3 2.26364e-16 0)
(3 -4.31203e-16 0)
(3 -1.83312e-15 0)
(3 -1.67285e-15 0)
(3 -1.8361e-15 0)
(3 -1.78279e-15 0)
(3 -1.6773e-15 0)
(3 -9.87453e-16 0)
(3 -6.29002e-16 0)
(3 -7.35403e-16 0)
(3 -1.17497e-15 0)
(3 -9.17857e-16 0)
(3 2.43115e-16 0)
(1.68521 0.55678 0)
(2.06382 0.412305 0)
(2.10093 0.196378 0)
(2.10275 0.0293203 0)
(2.10951 -0.0680945 0)
(2.1465 -0.0729014 0)
(2.14204 -0.0296671 0)
(2.14914 -0.0189715 0)
(2.15743 -0.0166362 0)
(2.16899 -0.0190869 0)
(2.1887 -0.0135721 0)
(2.19624 0.00593489 0)
(2.20096 0.0134811 0)
(2.20546 0.0124801 0)
(2.21302 0.00683202 0)
(2.22393 0.00205655 0)
(2.2301 0.000896612 0)
(2.23374 -0.00066961 0)
(2.23844 -0.00333772 0)
(2.24208 -0.0048204 0)
(2.24702 -0.00510929 0)
(2.25217 -0.00316448 0)
(2.25743 0.0020872 0)
(2.26361 0.00466537 0)
(2.26869 0.00465638 0)
(2.27815 0.00241319 0)
(2.28654 -0.00060355 0)
(2.29331 -0.00161329 0)
(2.30095 -0.00215404 0)
(2.30718 -0.0017674 0)
(2.31118 -0.000506418 0)
(2.31533 0.000409751 0)
(2.32083 0.00028667 0)
(2.32801 5.64407e-05 0)
(2.33629 0.000614845 0)
(2.34465 0.00131616 0)
(2.35193 0.00144428 0)
(2.35931 0.000345824 0)
(2.36676 -0.00130655 0)
(2.37528 -0.00207552 0)
(2.3838 -0.00200805 0)
(2.39044 -0.000804269 0)
(2.3964 0.000464486 0)
(2.40386 0.000560345 0)
(2.41069 0.000389484 0)
(2.41786 7.99709e-05 0)
(2.42552 -0.000248954 0)
(2.43362 -0.000797506 0)
(2.44136 -0.00137312 0)
(2.44899 -0.00170472 0)
(2.4566 -0.00215023 0)
(2.46351 -0.00242501 0)
(2.46792 -0.00187031 0)
(2.47242 -0.000513543 0)
(2.47972 4.74862e-05 0)
(2.48657 -7.0882e-05 0)
(2.49418 -7.02743e-05 0)
(2.5028 0.000295308 0)
(2.51191 0.00222721 0)
(2.52012 0.00133134 0)
(2.51321 -0.00751795 0)
(2.47292 -0.0468152 0)
(2.36641 -0.125195 0)
(2.2133 -0.227063 0)
(2.07901 -0.299823 0)
(2.0252 -0.309367 0)
(2.00162 -0.305802 0)
(1.98293 -0.250023 0)
(1.96892 -0.197378 0)
(1.9677 -0.133649 0)
(1.97332 -0.084306 0)
(1.98293 -0.0324695 0)
(2.02942 -0.00595366 0)
(2.07858 0.00862555 0)
(2.11618 0.0104027 0)
(2.14516 0.0137131 0)
(2.16517 0.0175055 0)
(2.18644 0.0184406 0)
(2.21639 0.0174568 0)
(2.24737 0.0151114 0)
(2.27661 0.0144077 0)
(2.29847 0.0119099 0)
(2.31355 0.00776137 0)
(2.35819 0.00543235 0)
(1.78282 0.284943 0)
(2.05829 0.0231122 0)
(2.18526 -0.11376 0)
(2.18849 -0.202732 0)
(2.25119 -0.198962 0)
(2.27154 -0.136933 0)
(2.25279 -0.0323266 0)
(2.21897 0.0380061 0)
(2.21637 0.0420248 0)
(2.21347 0.0268935 0)
(2.22225 0.00765837 0)
(2.22706 0.00570292 0)
(2.23382 0.00732005 0)
(2.24272 0.0068775 0)
(2.2526 0.00242358 0)
(2.25885 -0.00125 0)
(2.26477 0.000248845 0)
(2.26758 0.000109644 0)
(2.27241 -0.00200864 0)
(2.27715 -0.00524451 0)
(2.28188 -0.00992049 0)
(2.28585 -0.0118916 0)
(2.29133 -0.00837005 0)
(2.29704 0.00244607 0)
(2.30295 0.0107875 0)
(2.30899 0.0128967 0)
(2.3139 0.0103372 0)
(2.3177 0.00399602 0)
(2.32332 -0.00217905 0)
(2.33021 -0.00528314 0)
(2.33615 -0.00540422 0)