/*--------------------------------*- C++ -*----------------------------------*\
  =========                 |
  \\      /  F ield         | OpenFOAM: The Open Source CFD Toolbox
   \\    /   O peration     | Website:  https://openfoam.org
    \\  /    A nd           | Version:  7
     \\/     M anipulation  |
\*---------------------------------------------------------------------------*/
FoamFile
{
    version     2.0;
    format      ascii;
    class       volVectorField;
    location    "10";
    object      U;
}
// * * * * * * * * * * * * * * * * * * * * * * * * * * * * * * * * * * * * * //

dimensions      [0 1 -1 0 0 0 0];

internalField   nonuniform List<vector> 
3328
(
(-2.72556 0.00042807 0)
(-0.489783 0.000264743 0)
(0.486208 0.00244924 0)
(0.481078 0.00259049 0)
(0.47491 0.00297139 0)
(0.467619 0.00341531 0)
(0.459329 0.00388423 0)
(0.449981 0.0044199 0)
(0.439398 0.00499076 0)
(0.427406 0.00564159 0)
(0.413872 0.00635923 0)
(0.398762 0.00717808 0)
(0.381916 0.00808241 0)
(0.363047 0.00909118 0)
(0.341865 0.0101962 0)
(0.318273 0.0114343 0)
(0.292256 0.0127962 0)
(0.263623 0.0143051 0)
(0.231989 0.0158755 0)
(0.196984 0.0175059 0)
(0.158505 0.0192048 0)
(0.116155 0.0209992 0)
(0.0713643 0.0221423 0)
(0.0251781 0.0236033 0)
(-2.72579 0.00112009 0)
(-0.489842 0.000811752 0)
(0.486132 0.00749049 0)
(0.481009 0.00798837 0)
(0.47485 0.00915967 0)
(0.467579 0.0105628 0)
(0.459276 0.012027 0)
(0.449922 0.0137135 0)
(0.439323 0.0155019 0)
(0.427347 0.0175407 0)
(0.41383 0.0197688 0)
(0.398731 0.0222967 0)
(0.38187 0.0250666 0)
(0.362987 0.0281742 0)
(0.341789 0.0316293 0)
(0.318143 0.0355586 0)
(0.291956 0.0398585 0)
(0.263049 0.0445217 0)
(0.23111 0.0492647 0)
(0.195896 0.0542227 0)
(0.157329 0.0593687 0)
(0.115003 0.0650128 0)
(0.0701418 0.0686375 0)
(0.0245127 0.0725759 0)
(-2.72582 0.00210363 0)
(-0.489889 0.00200025 0)
(0.486709 0.0124535 0)
(0.481758 0.0132771 0)
(0.475807 0.0151441 0)
(0.468809 0.0174788 0)
(0.460733 0.0199143 0)
(0.451653 0.0227537 0)
(0.441317 0.0257239 0)
(0.429675 0.0291334 0)
(0.416517 0.0328463 0)
(0.401816 0.0370506 0)
(0.385372 0.0416633 0)
(0.366992 0.0468581 0)
(0.346381 0.0526232 0)
(0.323388 0.0591483 0)
(0.297798 0.0662479 0)
(0.269399 0.0739719 0)
(0.237791 0.0819275 0)
(0.202655 0.0904314 0)
(0.163647 0.0992292 0)
(0.120452 0.109072 0)
(0.0734848 0.115376 0)
(0.0256118 0.121344 0)
(-2.7261 0.00285078 0)
(-0.490058 0.00286012 0)
(0.487408 0.017282 0)
(0.482684 0.0184421 0)
(0.476967 0.0209087 0)
(0.470351 0.0241269 0)
(0.462597 0.0274689 0)
(0.45393 0.0314376 0)
(0.443982 0.0356362 0)
(0.432817 0.0403951 0)
(0.420172 0.0455776 0)
(0.40606 0.051429 0)
(0.390257 0.0578434 0)
(0.372665 0.0650764 0)
(0.352964 0.073072 0)
(0.330954 0.0821254 0)
(0.306157 0.0920541 0)
(0.278214 0.103154 0)
(0.246544 0.11496 0)
(0.211078 0.12793 0)
(0.171257 0.14107 0)
(0.12765 0.155864 0)
(0.078519 0.165535 0)
(0.0273805 0.173314 0)
(-2.72674 0.00363503 0)
(-0.490438 0.00382348 0)
(0.488178 0.0218427 0)
(0.483789 0.0233937 0)
(0.478311 0.0263788 0)
(0.472193 0.0304492 0)
(0.464847 0.0346403 0)
(0.456745 0.0396844 0)
(0.447313 0.0450341 0)
(0.436781 0.0511606 0)
(0.42478 0.0577537 0)
(0.411431 0.0651871 0)
(0.396461 0.07331 0)
(0.379882 0.0824861 0)
(0.361305 0.0926333 0)
(0.34055 0.104239 0)
(0.316985 0.117119 0)
(0.290523 0.131771 0)
(0.260659 0.147381 0)
(0.227633 0.164565 0)
(0.189212 0.181857 0)
(0.14575 0.202417 0)
(0.0919978 0.218832 0)
(0.0332154 0.231263 0)
(-2.72737 0.00417187 0)
(-0.49085 0.00490575 0)
(0.489169 0.0259803 0)
(0.485315 0.028004 0)
(0.480046 0.031437 0)
(0.474537 0.0363423 0)
(0.467644 0.0413514 0)
(0.460203 0.0474013 0)
(0.451365 0.0538345 0)
(0.44155 0.0612319 0)
(0.430276 0.069183 0)
(0.417808 0.0781212 0)
(0.403805 0.0878391 0)
(0.388437 0.0988493 0)
(0.371235 0.111024 0)
(0.352214 0.125049 0)
(0.330579 0.140594 0)
(0.306432 0.158434 0)
(0.278488 0.17787 0)
(0.246492 0.200709 0)
(0.206759 0.226153 0)
(0.159517 0.256625 0)
(0.10182 0.283562 0)
(0.0334278 0.299487 0)
(-2.72777 0.00496355 0)
(-0.491524 0.00699088 0)
(0.48962 0.0296819 0)
(0.486664 0.0324003 0)
(0.481639 0.0362608 0)
(0.476999 0.0419914 0)
(0.470678 0.0478217 0)
(0.464024 0.0548084 0)
(0.455906 0.0622436 0)
(0.446931 0.0707618 0)
(0.436489 0.0799163 0)
(0.425049 0.0902134 0)
(0.41216 0.101345 0)
(0.398256 0.113994 0)
(0.38271 0.127916 0)
(0.365836 0.144047 0)
(0.346455 0.161978 0)
(0.324917 0.183095 0)
(0.299715 0.206988 0)
(0.271719 0.235947 0)
(0.238408 0.268626 0)
(0.198802 0.307007 0)
(0.140515 0.346338 0)
(0.0613648 0.376915 0)
(-2.72745 0.00533691 0)
(-0.492194 0.00963789 0)
(0.491734 0.0329729 0)
(0.490382 0.0360055 0)
(0.485639 0.0403435 0)
(0.481724 0.0468829 0)
(0.47586 0.0536246 0)
(0.46985 0.0615041 0)
(0.462378 0.0698662 0)
(0.454158 0.0794316 0)
(0.444426 0.0896844 0)
(0.433955 0.101218 0)
(0.422133 0.113589 0)
(0.40979 0.12767 0)
(0.395935 0.143049 0)
(0.381383 0.161041 0)
(0.364449 0.181122 0)
(0.346454 0.204973 0)
(0.325588 0.231689 0)
(0.30424 0.264014 0)
(0.276102 0.303471 0)
(0.238014 0.364438 0)
(0.157852 0.435578 0)
(0.106979 0.516595 0)
(-2.72691 0.00628317 0)
(-0.492917 0.0108621 0)
(0.49631 0.0346401 0)
(0.495863 0.0381379 0)
(0.491718 0.0435571 0)
(0.488122 0.0509939 0)
(0.482632 0.0587275 0)
(0.477174 0.0675759 0)
(0.470288 0.0769363 0)
(0.46279 0.0875035 0)
(0.453744 0.0987059 0)
(0.444302 0.11129 0)
(0.433581 0.124681 0)
(0.422918 0.13995 0)
(0.41074 0.156522 0)
(0.398758 0.175976 0)
(0.384588 0.197484 0)
(0.370615 0.22274 0)
(0.354287 0.250678 0)
(0.339537 0.286617 0)
(0.316175 0.337554 0)
(0.29622 0.41746 0)
(0.271116 0.496091 0)
(0.323605 0.556237 0)
(-2.7263 0.00685492 0)
(-0.49329 0.00848537 0)
(0.501242 0.0354007 0)
(0.501116 0.039854 0)
(0.497339 0.0465944 0)
(0.493953 0.0547763 0)
(0.489162 0.063404 0)
(0.484573 0.0731761 0)
(0.478518 0.0834807 0)
(0.472021 0.0948617 0)
(0.463945 0.10678 0)
(0.455758 0.120168 0)
(0.446309 0.134432 0)
(0.437362 0.150687 0)
(0.426999 0.168245 0)
(0.41754 0.188599 0)
(0.406207 0.210977 0)
(0.395754 0.236731 0)
(0.384406 0.265552 0)
(0.374387 0.303591 0)
(0.364525 0.359388 0)
(0.358177 0.431926 0)
(0.369028 0.475825 0)
(0.418115 0.470077 0)
(-2.72689 0.0079505 0)
(-0.493266 0.00479211 0)
(0.504142 0.0352029 0)
(0.504082 0.0418245 0)
(0.500045 0.0502078 0)
(0.49734 0.0584135 0)
(0.494237 0.0674038 0)
(0.491132 0.0779394 0)
(0.486312 0.0890513 0)
(0.481119 0.101087 0)
(0.474337 0.113646 0)
(0.4676 0.127651 0)
(0.459755 0.142685 0)
(0.452498 0.159659 0)
(0.4443 0.178037 0)
(0.436839 0.198926 0)
(0.428508 0.221864 0)
(0.42103 0.247468 0)
(0.414816 0.276383 0)
(0.40858 0.312923 0)
(0.412461 0.364473 0)
(0.416754 0.428744 0)
(0.44503 0.469655 0)
(0.480856 0.465387 0)
(-2.72906 0.00856846 0)
(-0.49299 0.00343175 0)
(0.505135 0.0335528 0)
(0.504261 0.0431784 0)
(0.500748 0.0528656 0)
(0.500191 0.0605083 0)
(0.498534 0.0698004 0)
(0.496643 0.0813565 0)
(0.493115 0.0934614 0)
(0.489374 0.105956 0)
(0.484272 0.118902 0)
(0.479122 0.133336 0)
(0.473193 0.149053 0)
(0.467672 0.166516 0)
(0.461709 0.185665 0)
(0.455983 0.206881 0)
(0.450876 0.230124 0)
(0.445745 0.255409 0)
(0.44391 0.283531 0)
(0.441406 0.316477 0)
(0.451738 0.359565 0)
(0.463982 0.413614 0)
(0.495197 0.451714 0)
(0.521166 0.448954 0)
(-2.73224 0.00905887 0)
(-0.492805 0.00555963 0)
(0.503603 0.031819 0)
(0.502781 0.0436334 0)
(0.502711 0.0540851 0)
(0.502903 0.0618967 0)
(0.501877 0.0720722 0)
(0.500707 0.0843342 0)
(0.498501 0.0968554 0)
(0.496128 0.109594 0)
(0.492949 0.122999 0)
(0.489596 0.137647 0)
(0.485913 0.153668 0)
(0.482065 0.171409 0)
(0.478555 0.19095 0)
(0.474745 0.212132 0)
(0.472368 0.235258 0)
(0.469755 0.260124 0)
(0.470948 0.287227 0)
(0.47211 0.316773 0)
(0.482293 0.351202 0)
(0.498548 0.394062 0)
(0.525871 0.433866 0)
(0.550834 0.444323 0)
(-2.73509 0.00915741 0)
(-0.4927 0.00974111 0)
(0.504949 0.0312295 0)
(0.503548 0.0430483 0)
(0.505714 0.054014 0)
(0.506689 0.0631353 0)
(0.505839 0.0740559 0)
(0.504606 0.0866047 0)
(0.50314 0.0992472 0)
(0.501842 0.111992 0)
(0.500532 0.125482 0)
(0.499061 0.140321 0)
(0.497497 0.156691 0)
(0.495646 0.174471 0)
(0.494283 0.193876 0)
(0.492452 0.214862 0)
(0.492354 0.237623 0)
(0.492487 0.261898 0)
(0.495964 0.287812 0)
(0.500242 0.315192 0)
(0.509616 0.344234 0)
(0.523543 0.377569 0)
(0.546224 0.411424 0)
(0.571245 0.434487 0)
(-2.73714 0.00931713 0)
(-0.493183 0.0135555 0)
(0.508052 0.0285124 0)
(0.506716 0.0446225 0)
(0.511377 0.0544921 0)
(0.512234 0.0641843 0)
(0.511005 0.0758075 0)
(0.509072 0.0881972 0)
(0.507915 0.100317 0)
(0.507329 0.112906 0)
(0.507455 0.126689 0)
(0.507675 0.141815 0)
(0.508072 0.158333 0)
(0.508084 0.176195 0)
(0.508608 0.1953 0)
(0.50872 0.215559 0)
(0.51051 0.237222 0)
(0.513154 0.260496 0)
(0.5187 0.285267 0)
(0.525583 0.311311 0)
(0.535366 0.337929 0)
(0.547135 0.36616 0)
(0.56455 0.394301 0)
(0.584225 0.420139 0)
(-2.73854 0.00954821 0)
(-0.494223 0.0147813 0)
(0.512184 0.0253241 0)
(0.51401 0.0468457 0)
(0.519138 0.0556255 0)
(0.518923 0.065692 0)
(0.517036 0.0772288 0)
(0.514102 0.0885567 0)
(0.513087 0.0998765 0)
(0.513122 0.112324 0)
(0.514488 0.126392 0)
(0.516198 0.14198 0)
(0.518159 0.158796 0)
(0.519598 0.176665 0)
(0.521469 0.19547 0)
(0.523256 0.215083 0)
(0.526772 0.235698 0)
(0.531548 0.257571 0)
(0.538946 0.280674 0)
(0.547944 0.305105 0)
(0.558888 0.330302 0)
(0.570515 0.356335 0)
(0.584629 0.38215 0)
(0.60049 0.407289 0)
(-2.73979 0.0099073 0)
(-0.495521 0.0121269 0)
(0.517165 0.0268129 0)
(0.522377 0.0475204 0)
(0.526104 0.0569647 0)
(0.525508 0.0673462 0)
(0.52287 0.0781109 0)
(0.519574 0.0881781 0)
(0.51902 0.0987157 0)
(0.519794 0.110954 0)
(0.522288 0.125141 0)
(0.525344 0.141097 0)
(0.528467 0.158271 0)
(0.530888 0.176276 0)
(0.533322 0.19469 0)
(0.536096 0.213527 0)
(0.540962 0.232947 0)
(0.54759 0.253673 0)
(0.556775 0.275449 0)
(0.567705 0.298411 0)
(0.580131 0.322313 0)
(0.592902 0.347075 0)
(0.60619 0.371955 0)
(0.620463 0.396696 0)
(-2.74154 0.0103776 0)
(-0.496162 0.00772356 0)
(0.522533 0.0293675 0)
(0.5286 0.0476922 0)
(0.531402 0.0572504 0)
(0.530684 0.0676785 0)
(0.527566 0.0777378 0)
(0.524958 0.0870367 0)
(0.525314 0.096995 0)
(0.527202 0.10907 0)
(0.53104 0.123333 0)
(0.53536 0.139501 0)
(0.539428 0.156799 0)
(0.542321 0.174678 0)
(0.544823 0.192642 0)
(0.548116 0.210826 0)
(0.553816 0.229536 0)
(0.561656 0.249181 0)
(0.572215 0.269782 0)
(0.584777 0.29148 0)
(0.598773 0.31401 0)
(0.613039 0.337438 0)
(0.627262 0.361477 0)
(0.642042 0.38643 0)
(-2.74398 0.0107622 0)
(-0.495882 0.00460891 0)
(0.527572 0.0321141 0)
(0.532495 0.0467884 0)
(0.535373 0.0563012 0)
(0.534046 0.0667774 0)
(0.530981 0.0761955 0)
(0.529654 0.0850594 0)
(0.531442 0.094953 0)
(0.535021 0.107264 0)
(0.540546 0.121782 0)
(0.545983 0.137927 0)
(0.55077 0.154787 0)
(0.553641 0.171843 0)
(0.556118 0.188916 0)
(0.559866 0.206409 0)
(0.566202 0.224599 0)
(0.574866 0.243885 0)
(0.58635 0.263909 0)
(0.599952 0.284794 0)
(0.615224 0.306356 0)
(0.630882 0.328653 0)
(0.646714 0.351629 0)
(0.663027 0.375708 0)
(-2.74682 0.010949 0)
(-0.495068 0.00358244 0)
(0.532798 0.034624 0)
(0.535774 0.0450786 0)
(0.537851 0.0548004 0)
(0.535452 0.0650894 0)
(0.532933 0.0736868 0)
(0.533621 0.0823403 0)
(0.537221 0.0929723 0)
(0.54295 0.106068 0)
(0.550178 0.120904 0)
(0.556324 0.136541 0)
(0.561397 0.15229 0)
(0.564114 0.167889 0)
(0.566983 0.183681 0)
(0.571496 0.20029 0)
(0.578677 0.217898 0)
(0.588142 0.236827 0)
(0.600254 0.25672 0)
(0.614361 0.277555 0)
(0.630296 0.298681 0)
(0.646838 0.320383 0)
(0.664056 0.342382 0)
(0.682131 0.365264 0)
(-2.74972 0.0109627 0)
(-0.493864 0.00400334 0)
(0.538439 0.0357747 0)
(0.539347 0.0418307 0)
(0.539519 0.0520506 0)
(0.535837 0.0615479 0)
(0.534923 0.0698157 0)
(0.537804 0.0792538 0)
(0.543199 0.0914627 0)
(0.551081 0.10557 0)
(0.559145 0.120418 0)
(0.565511 0.135052 0)
(0.57027 0.149257 0)
(0.573043 0.163138 0)
(0.576791 0.177418 0)
(0.582485 0.192823 0)
(0.590976 0.209487 0)
(0.601714 0.227812 0)
(0.614779 0.247564 0)
(0.629366 0.268617 0)
(0.645441 0.290045 0)
(0.662083 0.311553 0)
(0.679887 0.332939 0)
(0.699251 0.355067 0)
(-2.75249 0.0108913 0)
(-0.492481 0.00629842 0)
(0.543216 0.0334651 0)
(0.542848 0.0382491 0)
(0.540728 0.048063 0)
(0.536751 0.0568625 0)
(0.53832 0.0652841 0)
(0.542856 0.0763447 0)
(0.550243 0.0899965 0)
(0.559352 0.104831 0)
(0.567093 0.119277 0)
(0.573335 0.132875 0)
(0.577187 0.145616 0)
(0.580291 0.157964 0)
(0.585073 0.170771 0)
(0.592193 0.184791 0)
(0.602344 0.200175 0)
(0.614918 0.217463 0)
(0.629627 0.236607 0)
(0.645198 0.257522 0)
(0.6614 0.279078 0)
(0.677734 0.300747 0)
(0.695442 0.321937 0)
(0.715308 0.343279 0)
(-2.75505 0.0107966 0)
(-0.491292 0.00904027 0)
(0.547041 0.0296285 0)
(0.545141 0.0345064 0)
(0.541261 0.0434591 0)
(0.538921 0.0521612 0)
(0.542944 0.0610208 0)
(0.549153 0.0733949 0)
(0.558343 0.0880497 0)
(0.567396 0.102937 0)
(0.574487 0.116819 0)
(0.579768 0.129596 0)
(0.582626 0.141218 0)
(0.586079 0.152438 0)
(0.591795 0.164123 0)
(0.600384 0.176955 0)
(0.612276 0.191208 0)
(0.626932 0.207335 0)
(0.643695 0.225245 0)
(0.660764 0.244965 0)
(0.677377 0.265512 0)
(0.693586 0.286416 0)
(0.711174 0.307384 0)
(0.731302 0.328797 0)
(-2.7574 0.0107223 0)
(-0.490553 0.0115034 0)
(0.549158 0.0258475 0)
(0.545579 0.0307241 0)
(0.541405 0.0393029 0)
(0.542335 0.0476757 0)
(0.548233 0.057366 0)
(0.55685 0.070795 0)
(0.566792 0.0856465 0)
(0.574869 0.0997688 0)
(0.581528 0.11284 0)
(0.585071 0.124673 0)
(0.587261 0.135506 0)
(0.590964 0.146211 0)
(0.597464 0.157416 0)
(0.607397 0.169668 0)
(0.620844 0.183333 0)
(0.637216 0.198507 0)
(0.655687 0.214885 0)
(0.674263 0.232437 0)
(0.691732 0.250627 0)
(0.708592 0.269411 0)
(0.726748 0.288999 0)
(0.747671 0.309559 0)
(-2.75957 0.0105327 0)
(-0.490204 0.0140746 0)
(0.549439 0.0221209 0)
(0.54453 0.026902 0)
(0.542564 0.0355091 0)
(0.546401 0.0439735 0)
(0.55472 0.0550331 0)
(0.565077 0.0691446 0)
(0.57447 0.0830855 0)
(0.581844 0.0957489 0)
(0.587338 0.107285 0)
(0.58964 0.117561 0)
(0.59173 0.127662 0)
(0.595919 0.138374 0)
(0.603217 0.149979 0)
(0.614276 0.162636 0)
(0.628947 0.17647 0)
(0.646304 0.191147 0)
(0.665432 0.206161 0)
(0.68455 0.221258 0)
(0.70254 0.236294 0)
(0.720467 0.251635 0)
(0.73991 0.26836 0)
(0.762323 0.286612 0)
(-2.76148 0.0100971 0)
(-0.490267 0.0167535 0)
(0.54854 0.0170899 0)
(0.543082 0.0234422 0)
(0.545507 0.0321965 0)
(0.551641 0.042008 0)
(0.562338 0.0545946 0)
(0.572589 0.0683002 0)
(0.580698 0.0804384 0)
(0.587478 0.0911432 0)
(0.591395 0.100423 0)
(0.593444 0.108799 0)
(0.596409 0.117916 0)
(0.601713 0.12853 0)
(0.610199 0.14089 0)
(0.62241 0.154841 0)
(0.637811 0.169754 0)
(0.655367 0.18456 0)
(0.674288 0.198605 0)
(0.692865 0.21155 0)
(0.710774 0.223829 0)
(0.729573 0.235807 0)
(0.750514 0.248933 0)
(0.774988 0.263358 0)
(-2.76311 0.00936083 0)
(-0.490936 0.0188384 0)
(0.547683 0.0100301 0)
(0.542958 0.0206924 0)
(0.54982 0.0302037 0)
(0.558938 0.041949 0)
(0.569853 0.0552649 0)
(0.5785 0.0673364 0)
(0.585355 0.0774685 0)
(0.590669 0.0861459 0)
(0.59317 0.0929898 0)
(0.595788 0.0995584 0)
(0.600367 0.107381 0)
(0.607681 0.117371 0)
(0.618285 0.13004 0)
(0.63194 0.145039 0)
(0.647669 0.161289 0)
(0.664621 0.176863 0)
(0.681831 0.19063 0)
(0.69905 0.201993 0)
(0.716422 0.21215 0)
(0.735596 0.22159 0)
(0.757547 0.231987 0)
(0.783765 0.242452 0)
(-2.76449 0.00847261 0)
(-0.492194 0.019492 0)
(0.548071 0.00104167 0)
(0.544966 0.020097 0)
(0.556567 0.0303742 0)
(0.56752 0.0427489 0)
(0.576203 0.0551039 0)
(0.582719 0.0654496 0)
(0.588549 0.0740197 0)
(0.591638 0.0803856 0)
(0.593629 0.0853891 0)
(0.597268 0.0907347 0)
(0.603567 0.0974905 0)
(0.613462 0.106631 0)
(0.626861 0.118975 0)
(0.642471 0.134019 0)
(0.658691 0.150426 0)
(0.674199 0.166341 0)
(0.688817 0.180303 0)
(0.703923 0.191316 0)
(0.720207 0.200579 0)
(0.739251 0.208397 0)
(0.761642 0.216796 0)
(0.788834 0.224658 0)
(-2.76567 0.00764211 0)
(-0.49447 0.0184417 0)
(0.550751 -0.00789442 0)
(0.550925 0.0232314 0)
(0.566019 0.0305186 0)
(0.574878 0.042222 0)
(0.580998 0.0529492 0)
(0.58649 0.0622952 0)
(0.589746 0.0693578 0)
(0.591165 0.0737828 0)
(0.593463 0.0779386 0)
(0.598016 0.0827812 0)
(0.606212 0.0890865 0)
(0.618968 0.0980599 0)
(0.63515 0.109738 0)
(0.652352 0.123295 0)
(0.669083 0.13786 0)
(0.683262 0.152253 0)
(0.695469 0.165423 0)
(0.708315 0.176731 0)
(0.723033 0.18668 0)
(0.741332 0.194671 0)
(0.763612 0.202516 0)
(0.791241 0.209111 0)
(-2.76674 0.00707427 0)
(-0.49712 0.0145294 0)
(0.555198 -0.00661718 0)
(0.560579 0.021681 0)
(0.573834 0.0295222 0)
(0.580113 0.0396218 0)
(0.585573 0.0489092 0)
(0.588979 0.056676 0)
(0.589845 0.0617832 0)
(0.590617 0.0658944 0)
(0.593672 0.0699925 0)
(0.599369 0.0752731 0)
(0.609796 0.0825603 0)
(0.624538 0.0924929 0)
(0.642597 0.103896 0)
(0.660262 0.115062 0)
(0.67694 0.125814 0)
(0.690769 0.136376 0)
(0.702395 0.146923 0)
(0.714496 0.157495 0)
(0.728181 0.168221 0)
(0.745213 0.177388 0)
(0.766412 0.186512 0)
(0.793859 0.194313 0)
(-2.76795 0.00690958 0)
(-0.498907 0.00829212 0)
(0.561525 -0.00055465 0)
(0.569751 0.0203428 0)
(0.579028 0.0279271 0)
(0.584115 0.0358589 0)
(0.588031 0.0429097 0)
(0.589449 0.0476463 0)
(0.589325 0.0514206 0)
(0.590089 0.0561069 0)
(0.59367 0.06123 0)
(0.60218 0.0684313 0)
(0.614951 0.0791007 0)
(0.63123 0.09018 0)
(0.648516 0.100174 0)
(0.664612 0.108389 0)
(0.680247 0.114974 0)
(0.693689 0.120857 0)
(0.705693 0.127179 0)
(0.718132 0.134531 0)
(0.731844 0.143925 0)
(0.749112 0.154751 0)
(0.771106 0.167024 0)
(0.799027 0.178307 0)
(-2.76969 0.00697152 0)
(-0.498986 0.00289357 0)
(0.568268 0.00589031 0)
(0.576315 0.0197421 0)
(0.581844 0.0256806 0)
(0.585451 0.0313825 0)
(0.587243 0.0352356 0)
(0.587335 0.0370813 0)
(0.587666 0.0399265 0)
(0.590618 0.0448771 0)
(0.597395 0.0536807 0)
(0.608251 0.0652105 0)
(0.621975 0.07683 0)
(0.637446 0.0876105 0)
(0.652177 0.0961691 0)
(0.666755 0.102163 0)
(0.68026 0.105645 0)
(0.693144 0.107082 0)
(0.706601 0.108783 0)
(0.721765 0.11231 0)
(0.73881 0.119734 0)
(0.758876 0.131135 0)
(0.781659 0.146814 0)
(0.808071 0.161848 0)
(-2.77202 0.00682975 0)
(-0.497744 -0.00224512 0)
(0.574021 0.00990056 0)
(0.579729 0.0183672 0)
(0.582518 0.0232627 0)
(0.583674 0.0269662 0)
(0.583897 0.0277809 0)
(0.584534 0.0279988 0)
(0.587551 0.0299552 0)
(0.594323 0.0360779 0)
(0.604996 0.0461802 0)
(0.617409 0.0591634 0)
(0.630114 0.0721263 0)
(0.642862 0.0827785 0)
(0.65511 0.0905209 0)
(0.666551 0.094934 0)
(0.67716 0.0960732 0)
(0.688494 0.0951088 0)
(0.702655 0.0939722 0)
(0.72072 0.0945918 0)
(0.742599 0.0994975 0)
(0.767945 0.109008 0)
(0.793896 0.123917 0)
(0.819617 0.140001 0)
(-2.77472 0.00634443 0)
(-0.494985 -0.00522612 0)
(0.578565 0.0114676 0)
(0.580679 0.0160431 0)
(0.581145 0.0201316 0)
(0.580491 0.0211452 0)
(0.580261 0.0204098 0)
(0.582045 0.0210619 0)
(0.588214 0.0239012 0)
(0.599129 0.0304486 0)
(0.613424 0.0406179 0)
(0.626743 0.0523965 0)
(0.638987 0.0639851 0)
(0.649037 0.0740591 0)
(0.657655 0.0806508 0)
(0.665424 0.0832878 0)
(0.673245 0.0836015 0)
(0.683415 0.0827212 0)
(0.698379 0.0817855 0)
(0.719857 0.0827006 0)
(0.746323 0.0875563 0)
(0.775145 0.0951159 0)
(0.803835 0.104767 0)
(0.830042 0.115895 0)
(-2.77724 0.0054513 0)
(-0.491936 -0.00303778 0)
(0.581127 0.00916925 0)
(0.580522 0.0114165 0)
(0.578768 0.0145341 0)
(0.576606 0.0144073 0)
(0.577235 0.0149623 0)
(0.581437 0.0175577 0)
(0.590288 0.0236378 0)
(0.604555 0.031644 0)
(0.620142 0.0397173 0)
(0.633444 0.046784 0)
(0.64526 0.0533977 0)
(0.653397 0.0595449 0)
(0.658784 0.0639032 0)
(0.664028 0.0661447 0)
(0.670448 0.0668438 0)
(0.67961 0.0677127 0)
(0.696946 0.0706583 0)
(0.721697 0.0756298 0)
(0.750531 0.0808548 0)
(0.780147 0.0853955 0)
(0.809558 0.0903074 0)
(0.837251 0.0951949 0)
(-2.77934 0.00424969 0)
(-0.490038 0.00359209 0)
(0.582277 0.00303002 0)
(0.579835 0.00421329 0)
(0.57616 0.00665666 0)
(0.574125 0.00903071 0)
(0.576898 0.0120937 0)
(0.583071 0.0180455 0)
(0.594267 0.0248956 0)
(0.608041 0.0313756 0)
(0.621796 0.0358829 0)
(0.633939 0.0385802 0)
(0.644792 0.0400965 0)
(0.652136 0.0408974 0)
(0.656991 0.0420384 0)
(0.66114 0.0452368 0)
(0.668125 0.0496935 0)
(0.680736 0.0556958 0)
(0.700546 0.0635425 0)
(0.724497 0.0706454 0)
(0.751249 0.0755172 0)
(0.779084 0.077289 0)
(0.807906 0.0771025 0)
(0.835578 0.0752202 0)
(-2.78073 0.00287195 0)
(-0.489746 0.008631 0)
(0.581939 -0.00445309 0)
(0.578122 -0.00408711 0)
(0.575036 -0.000289539 0)
(0.57519 0.00595198 0)
(0.579663 0.0123399 0)
(0.586958 0.0199899 0)
(0.597687 0.0273245 0)
(0.609164 0.0322357 0)
(0.619633 0.0343445 0)
(0.629663 0.033263 0)
(0.638512 0.0290845 0)
(0.646449 0.0239526 0)
(0.654152 0.0213774 0)
(0.66199 0.0234801 0)
(0.672999 0.0311004 0)
(0.688058 0.0425431 0)
(0.706429 0.0544048 0)
(0.726935 0.0640597 0)
(0.749672 0.0703248 0)
(0.774548 0.0720581 0)
(0.80027 0.0691508 0)
(0.825753 0.0623395 0)
(-2.78132 0.00166731 0)
(-0.491285 0.0138316 0)
(0.57886 -0.00975745 0)
(0.575785 -0.00876697 0)
(0.576164 -0.00540923 0)
(0.57922 0.00099919 0)
(0.585432 0.0101515 0)
(0.592851 0.0198561 0)
(0.600269 0.0270486 0)
(0.608102 0.0308183 0)
(0.615771 0.0302106 0)
(0.622248 0.0258077 0)
(0.629278 0.0187729 0)
(0.638842 0.0119814 0)
(0.651721 0.00791877 0)
(0.666695 0.00976629 0)
(0.681922 0.017846 0)
(0.698098 0.0295751 0)
(0.71533 0.0420608 0)
(0.73359 0.0525455 0)
(0.752658 0.0591208 0)
(0.772107 0.0601702 0)
(0.792591 0.0558153 0)
(0.814929 0.0472317 0)
(-2.7813 0.00102304 0)
(-0.494096 0.0141691 0)
(0.575786 -0.0112341 0)
(0.574184 -0.00816996 0)
(0.578609 -0.00606642 0)
(0.585144 -4.34002e-05 0)
(0.591629 0.00791239 0)
(0.597891 0.0153958 0)
(0.603295 0.0208107 0)
(0.607326 0.0225983 0)
(0.610645 0.0201816 0)
(0.614636 0.0137489 0)
(0.621316 0.00716918 0)
(0.632497 0.00266276 0)
(0.64802 0.00107955 0)
(0.667543 0.00136957 0)
(0.687515 0.0060146 0)
(0.707346 0.0158517 0)
(0.725923 0.0276691 0)
(0.741732 0.0369856 0)
(0.755699 0.0415096 0)
(0.768911 0.0409644 0)
(0.784612 0.035359 0)
(0.804903 0.0261768 0)
(-2.78092 0.000231849 0)
(-0.495808 0.00441681 0)
(0.572792 -0.00868643 0)
(0.572493 -0.000903225 0)
(0.581558 0.000670156 0)
(0.589955 0.00363294 0)
(0.596536 0.005372 0)
(0.602006 0.00668084 0)
(0.60509 0.0072223 0)
(0.605517 0.00658239 0)
(0.605165 0.00456162 0)
(0.607781 0.00281613 0)
(0.61515 0.00183433 0)
(0.628561 0.00167332 0)
(0.646922 0.002516 0)
(0.669453 0.00509241 0)
(0.6943 0.00791074 0)
(0.715831 0.0100412 0)
(0.732771 0.0123941 0)
(0.743685 0.0139938 0)
(0.752834 0.0140742 0)
(0.761949 0.0122538 0)
(0.773991 0.0102176 0)
(0.792834 0.0076504 0)
(0.390992 0.347582 0)
(0.111943 0.17748 0)
(0.0584359 0.0477583 0)
(0.0188983 0.0170649 0)
(0.00740852 0.00777648 0)
(0.00513186 0.00302431 0)
(0.0029307 0.00183811 0)
(-0.000582872 0.0011273 0)
(0.413101 0.299677 0)
(0.253828 0.175176 0)
(0.174901 0.0717907 0)
(0.0878787 0.0440681 0)
(0.0389113 0.0273265 0)
(0.0169029 0.0102814 0)
(0.00425754 0.00414169 0)
(0.000916824 -0.00281711 0)
(0.455739 0.389275 0)
(0.349265 0.318189 0)
(0.259714 0.209901 0)
(0.152636 0.145618 0)
(0.0852282 0.0857543 0)
(0.0441667 0.0368962 0)
(0.0147339 0.012512 0)
(0.00545891 -0.00265228 0)
(0.514452 0.425028 0)
(0.464073 0.377117 0)
(0.394048 0.290517 0)
(0.287476 0.214086 0)
(0.194782 0.138681 0)
(0.11434 0.0816543 0)
(0.0475914 0.0489325 0)
(0.0153377 0.0190431 0)
(0.556343 0.439189 0)
(0.534145 0.426175 0)
(0.493977 0.377706 0)
(0.405756 0.323821 0)
(0.302089 0.252937 0)
(0.196703 0.177161 0)
(0.0946671 0.12128 0)
(0.0344036 0.0665607 0)
(0.582783 0.444221 0)
(0.578694 0.447476 0)
(0.559802 0.431706 0)
(0.505407 0.404923 0)
(0.42392 0.34949 0)
(0.30645 0.29047 0)
(0.176936 0.230769 0)
(0.0690569 0.157971 0)
(0.601435 0.4404 0)
(0.607405 0.454263 0)
(0.603082 0.459122 0)
(0.576928 0.460896 0)
(0.523286 0.441402 0)
(0.425939 0.411589 0)
(0.312349 0.344555 0)
(0.146676 0.323226 0)
(0.614887 0.432086 0)
(0.627192 0.455073 0)
(0.633746 0.474955 0)
(0.627931 0.493534 0)
(0.601338 0.503394 0)
(0.538243 0.505789 0)
(0.396831 0.516288 0)
(0.200449 0.640444 0)
(0.633546 0.422915 0)
(0.647345 0.450683 0)
(0.65832 0.481006 0)
(0.667318 0.512477 0)
(0.663851 0.546387 0)
(0.64129 0.600706 0)
(0.603537 0.694672 0)
(0.682384 0.904432 0)
(0.656397 0.413038 0)
(0.671431 0.442361 0)
(0.686191 0.476855 0)
(0.704006 0.519133 0)
(0.72494 0.573107 0)
(0.748239 0.652613 0)
(0.811664 0.74281 0)
(1.03515 0.835537 0)
(0.680421 0.40175 0)
(0.698794 0.43141 0)
(0.719237 0.466542 0)
(0.742972 0.510818 0)
(0.780812 0.566401 0)
(0.835406 0.644978 0)
(0.956123 0.73147 0)
(1.19646 0.775003 0)
(0.702796 0.389765 0)
(0.725717 0.417824 0)
(0.752903 0.45092 0)
(0.784405 0.49219 0)
(0.831139 0.541643 0)
(0.900647 0.606286 0)
(1.03277 0.676386 0)
(1.24671 0.701879 0)
(0.722244 0.377849 0)
(0.749394 0.403193 0)
(0.782896 0.432298 0)
(0.822555 0.468295 0)
(0.87551 0.509499 0)
(0.949665 0.557068 0)
(1.07141 0.609822 0)
(1.25074 0.621725 0)
(0.739503 0.365276 0)
(0.769277 0.388493 0)
(0.806785 0.41324 0)
(0.852589 0.441948 0)
(0.910325 0.474156 0)
(0.985279 0.506249 0)
(1.09369 0.53999 0)
(1.23665 0.543551 0)
(0.755837 0.350178 0)
(0.786419 0.372016 0)
(0.825249 0.394243 0)
(0.873621 0.416665 0)
(0.933745 0.440824 0)
(1.00797 0.460204 0)
(1.1037 0.478745 0)
(1.21845 0.475252 0)
(0.772555 0.331181 0)
(0.803246 0.352788 0)
(0.841384 0.37387 0)
(0.889075 0.392435 0)
(0.94805 0.411405 0)
(1.01887 0.421556 0)
(1.10393 0.430685 0)
(1.20094 0.422221 0)
(0.788232 0.306803 0)
(0.819317 0.327573 0)
(0.856352 0.349037 0)
(0.901878 0.366514 0)
(0.957257 0.38344 0)
(1.02243 0.389458 0)
(1.09837 0.39217 0)
(1.18212 0.382234 0)
(0.802617 0.2806 0)
(0.83458 0.298617 0)
(0.870802 0.318876 0)
(0.913866 0.335552 0)
(0.964467 0.352865 0)
(1.02315 0.359402 0)
(1.08928 0.360769 0)
(1.16311 0.351088 0)
(0.813654 0.255492 0)
(0.847708 0.2698 0)
(0.884488 0.287874 0)
(0.926139 0.303311 0)
(0.972045 0.319893 0)
(1.02394 0.327615 0)
(1.08097 0.330465 0)
(1.14468 0.323191 0)
(0.820469 0.234635 0)
(0.857062 0.244236 0)
(0.895988 0.258375 0)
(0.937743 0.269809 0)
(0.980653 0.284231 0)
(1.027 0.292896 0)
(1.07583 0.297833 0)
(1.12954 0.294951 0)
(0.823859 0.21758 0)
(0.861749 0.224527 0)
(0.902354 0.234212 0)
(0.944718 0.241716 0)
(0.986358 0.250958 0)
(1.02943 0.255788 0)
(1.07392 0.259907 0)
(1.12066 0.26033 0)
(0.826954 0.203102 0)
(0.864597 0.209212 0)
(0.904231 0.216412 0)
(0.945765 0.218501 0)
(0.986926 0.221741 0)
(1.02884 0.222745 0)
(1.07136 0.222271 0)
(1.11615 0.221057 0)
(0.831133 0.190022 0)
(0.866403 0.196419 0)
(0.903128 0.201327 0)
(0.941275 0.200846 0)
(0.980945 0.199073 0)
(1.02296 0.194321 0)
(1.06571 0.190744 0)
(1.10974 0.185747 0)
(0.836734 0.175098 0)
(0.867778 0.183086 0)
(0.900374 0.187215 0)
(0.934782 0.185029 0)
(0.971629 0.18053 0)
(1.01201 0.173196 0)
(1.05571 0.164754 0)
(1.10084 0.157292 0)
(0.844511 0.154932 0)
(0.870677 0.16383 0)
(0.897842 0.169489 0)
(0.927348 0.16889 0)
(0.960783 0.164183 0)
(0.998981 0.155806 0)
(1.04155 0.146256 0)
(1.08767 0.136127 0)
(0.852689 0.128681 0)
(0.875184 0.138449 0)
(0.89816 0.144601 0)
(0.922997 0.146714 0)
(0.95208 0.145244 0)
(0.987408 0.139121 0)
(1.0288 0.130679 0)
(1.075 0.12108 0)
(0.859736 0.10126 0)
(0.879094 0.107321 0)
(0.898691 0.11356 0)
(0.920532 0.117109 0)
(0.946195 0.118839 0)
(0.978989 0.118094 0)
(1.01961 0.115035 0)
(1.06563 0.109394 0)
(0.860164 0.0739256 0)
(0.881774 0.0749088 0)
(0.901594 0.078395 0)
(0.922597 0.083771 0)
(0.947078 0.0898378 0)
(0.977678 0.0954209 0)
(1.0152 0.0994919 0)
(1.05838 0.100485 0)
(0.85105 0.0540208 0)
(0.876294 0.0467846 0)
(0.900863 0.044151 0)
(0.925653 0.0477996 0)
(0.953122 0.0572727 0)
(0.98463 0.0686136 0)
(1.01937 0.0790308 0)
(1.0569 0.0860888 0)
(0.839804 0.0370356 0)
(0.868055 0.0275767 0)
(0.900177 0.0231331 0)
(0.933314 0.025743 0)
(0.964248 0.0344917 0)
(0.994834 0.0459797 0)
(1.02706 0.0571892 0)
(1.06101 0.0656106 0)
(0.830078 0.0174995 0)
(0.85941 0.0121108 0)
(0.893474 0.00958362 0)
(0.930618 0.0087425 0)
(0.967445 0.0127461 0)
(1.00279 0.0228428 0)
(1.03589 0.0345433 0)
(1.0677 0.0428806 0)
(0.82198 0.00603417 0)
(0.857845 0.00650986 0)
(0.895268 0.00792049 0)
(0.935056 0.00984777 0)
(0.977091 0.0119819 0)
(1.01432 0.0138435 0)
(1.04403 0.0156969 0)
(1.06972 0.0168856 0)
(1.55491 0.943784 0)
(2.10077 0.983205 0)
(2.35291 0.734301 0)
(2.31607 0.284009 0)
(2.29794 0.0588177 0)
(2.17254 -0.126077 0)
(2.02071 -0.2451 0)
(2.00717 -0.233216 0)
(1.91625 -0.139057 0)
(1.77466 -0.101016 0)
(1.60115 -0.0812901 0)
(1.56317 -0.0356857 0)
(1.53404 -0.00564073 0)
(1.37023 -0.00148524 0)
(1.31334 -0.00032116 0)
(1.28001 0.00246796 0)
(1.26171 0.0017825 0)
(1.26923 -0.00344978 0)
(1.28403 -0.0130717 0)
(1.29396 -0.0191378 0)
(1.30367 -0.0224133 0)
(1.31793 -0.0240969 0)
(1.33913 -0.0242829 0)
(1.36809 -0.02399 0)
(1.3919 -0.02289 0)
(1.41181 -0.0179029 0)
(1.42436 -0.00799094 0)
(1.4389 0.00265728 0)
(1.4582 0.00904957 0)
(1.48061 0.013156 0)
(1.50312 0.015231 0)
(1.52359 0.0159518 0)
(1.54474 0.0161388 0)
(1.56993 0.0156892 0)
(1.60226 0.0140494 0)
(1.63662 0.0103438 0)
(1.66487 0.00358946 0)
(1.68943 -0.00436332 0)
(1.71241 -0.0104637 0)
(1.73467 -0.0145655 0)
(1.75321 -0.0161507 0)
(1.76166 -0.0136678 0)
(1.75912 -0.00621953 0)
(1.7548 0.00509247 0)
(1.75756 0.0144864 0)
(1.77078 0.0175017 0)
(1.78944 0.017795 0)
(1.81483 0.0178416 0)
(1.85416 0.0188712 0)
(1.892 0.0185463 0)
(1.91954 0.0167068 0)
(1.92658 0.0102958 0)
(1.90814 -0.00198202 0)
(1.84422 -0.027559 0)
(1.73966 -0.0533167 0)
(1.56753 -0.0467448 0)
(1.49238 -0.0418424 0)
(1.50487 -0.0267554 0)
(1.5109 -0.00396856 0)
(1.52251 0.0089168 0)
(1.53569 0.0134136 0)
(1.54984 0.016392 0)
(1.56855 0.0161624 0)
(1.59051 0.0143613 0)
(1.6166 0.0118504 0)
(1.64461 0.00780236 0)
(1.66383 0.00203271 0)
(1.67684 -0.00446428 0)
(1.68908 -0.0102904 0)
(1.69453 -0.0143652 0)
(1.68443 -0.0139773 0)
(1.66548 -0.00857884 0)
(1.66085 0.000574762 0)
(1.66644 0.00802378 0)
(1.67501 0.0108381 0)
(1.68732 0.0120543 0)
(1.71213 0.0112441 0)
(1.74411 0.00966678 0)
(1.76834 0.00814384 0)
(1.78242 0.00617056 0)
(1.79382 0.0023265 0)
(1.80409 -0.00351383 0)
(1.81328 -0.00795942 0)
(1.81313 -0.00983457 0)
(1.79623 -0.00580809 0)
(1.78207 0.00073082 0)
(1.78493 0.00876115 0)
(1.79989 0.0102305 0)
(1.66392 0.738235 0)