/*--------------------------------*- C++ -*----------------------------------*\
  =========                 |
  \\      /  F ield         | OpenFOAM: The Open Source CFD Toolbox
   \\    /   O peration     | Website:  https://openfoam.org
    \\  /    A nd           | Version:  7
     \\/     M anipulation  |
\*---------------------------------------------------------------------------*/
FoamFile
{
    version     2.0;
    format      ascii;
    class       volScalarField;
    location    "1.6";
    object      rho;
}
// * * * * * * * * * * * * * * * * * * * * * * * * * * * * * * * * * * * * * //

dimensions      [1 -3 0 0 0 0 0];

internalField   nonuniform List<scalar> 
3328
(
1.40001
1.40001
1.40001
1.40001
1.40001
1.40001
1.40001
1.40001
1.40001
1.40001
1.40001
3.16935
5.31816
5.47776
5.5326
5.6164
5.6925
5.74796
5.7742
5.79364
5.81646
5.83423
5.8404
5.84527
1.40001
1.40001
1.40001
1.40001
1.40001
1.40001
1.40001
1.40001
1.40001
1.40001
1.40001
3.11043
5.29325
5.47424
5.5312
5.61338
5.68679
5.73949
5.76381
5.78192
5.8039
5.82045
5.82523
5.8304
1.40001
1.40001
1.40001
1.40001
1.40001
1.40001
1.40001
1.40001
1.40001
1.40001
1.40001
2.98732
5.26704
5.46354
5.52058
5.60068
5.67137
5.72235
5.74591
5.76334
5.78464
5.80002
5.80272
5.80808
1.40001
1.40001
1.40001
1.40001
1.40001
1.40001
1.40001
1.40001
1.40001
1.40001
1.40001
2.80659
5.21985
5.4515
5.50684
5.58375
5.65021
5.69891
5.72128
5.73816
5.75897
5.77235
5.77071
5.77219
1.40001
1.40001
1.40001
1.40001
1.40001
1.40001
1.40001
1.40001
1.40001
1.40001
1.40001
2.57681
5.13239
5.44012
5.49043
5.56153
5.62257
5.66676
5.68676
5.69955
5.71507
5.72557
5.72238
5.73
1.40001
1.40001
1.40001
1.40001
1.40001
1.40001
1.40001
1.40001
1.40001
1.40001
1.40001
2.31145
4.99324
5.43737
5.48103
5.54637
5.59913
5.63579
5.6513
5.65894
5.67039
5.67788
5.66943
5.65907
1.40001
1.40001
1.40001
1.40001
1.40001
1.40001
1.40001
1.40001
1.40001
1.40001
1.40001
1.99686
4.79278
5.4376
5.46564
5.52505
5.56818
5.59545
5.60209
5.59829
5.59389
5.57842
5.55508
5.54353
1.40001
1.40001
1.40001
1.40001
1.40001
1.40001
1.40001
1.40001
1.40001
1.40001
1.40001
1.68387
4.54639
5.4655
5.47202
5.51989
5.55028
5.56394
5.55535
5.53426
5.5135
5.48569
5.43387
5.42113
1.40001
1.40001
1.40001
1.40001
1.40001
1.40001
1.40001
1.40001
1.40001
1.40001
1.40001
1.42757
4.10405
5.40106
5.41293
5.45887
5.48408
5.49288
5.47584
5.45109
5.41542
5.35366
5.1476
4.73995
1.40001
1.40001
1.40001
1.40001
1.40001
1.40001
1.40001
1.40001
1.40001
1.40001
1.40001
1.40028
3.4807
5.27433
5.38061
5.42328
5.4375
5.43585
5.40629
5.37289
5.3189
5.22832
5.06685
4.75441
1.40001
1.40001
1.40001
1.40001
1.40001
1.40001
1.40001
1.40001
1.40001
1.40001
1.40001
1.4
2.81314
5.10164
5.35978
5.38724
5.39128
5.38148
5.34453
5.3005
5.23252
5.11922
4.99537
4.75695
1.40001
1.40001
1.40001
1.40001
1.40001
1.40001
1.40001
1.40001
1.40001
1.40001
1.40001
1.40001
2.1155
4.90202
5.38123
5.36409
5.35042
5.32829
5.28565
5.23173
5.15691
5.04322
4.94297
4.77897
1.40001
1.40001
1.40001
1.40001
1.40001
1.40001
1.40001
1.40001
1.40001
1.40001
1.40001
1.40001
1.51804
4.4173
5.40269
5.33342
5.30817
5.28238
5.24062
5.18142
5.10557
5.00313
4.90996
4.80023
1.40001
1.40001
1.40001
1.40001
1.40001
1.40001
1.40001
1.40001
1.40001
1.40001
1.40001
1.40001
1.40206
3.59404
5.20101
5.2691
5.26746
5.24717
5.21635
5.15677
5.08099
4.98543
4.89307
4.81092
1.40001
1.40001
1.40001
1.40001
1.40001
1.40001
1.40001
1.40001
1.40001
1.40001
1.40001
1.40001
1.4
2.62212
4.97219
5.24008
5.23686
5.22171
5.19387
5.13493
5.06116
4.97495
4.89305
4.81961
1.40001
1.40001
1.40001
1.40001
1.40001
1.40001
1.40001
1.40001
1.40001
1.40001
1.40001
1.40001
1.4
1.72913
4.61288
5.27312
5.23045
5.19986
5.17023
5.11357
5.04643
4.96852
4.89436
4.82414
1.40001
1.40001
1.40001
1.40001
1.40001
1.40001
1.40001
1.40001
1.40001
1.40001
1.40001
1.40001
1.4
1.41774
3.74529
5.16027
5.18231
5.16899
5.13999
5.08962
5.03515
4.96765
4.89692
4.82779
1.40001
1.40001
1.40001
1.40001
1.40001
1.40001
1.40001
1.40001
1.40001
1.40001
1.40001
1.40001
1.40001
1.4
2.56853
5.00413
5.18095
5.15983
5.12178
5.07135
5.02256
4.96246
4.89732
4.82727
1.40001
1.40001
1.40001
1.40001
1.40001
1.40001
1.40001
1.40001
1.40001
1.40001
1.40001
1.40001
1.40001
1.4
1.61197
4.45866
5.20182
5.14534
5.1021
5.05562
5.01313
4.96037
4.8995
4.82776
1.40001
1.40001
1.40001
1.40001
1.40001
1.40001
1.40001
1.40001
1.40001
1.40001
1.40001
1.40001
1.40001
1.4
1.40561
3.3065
5.01492
5.09171
5.07712
5.05227
5.01886
4.97078
4.91098
4.83733
1.40001
1.40001
1.40001
1.40001
1.40001
1.40001
1.40001
1.40001
1.40001
1.40001
1.40001
1.40001
1.40001
1.4
1.39999
2.01236
4.78605
5.1418
5.08153
5.04416
5.0089
4.96249
4.90527
4.83494
1.40001
1.40001
1.40001
1.40001
1.40001
1.40001
1.40001
1.40001
1.40001
1.40001
1.40001
1.40001
1.40001
1.40001
1.4
1.45422
3.83113
5.01535
5.05102
5.03348
5.00194
4.95724
4.90365
4.83563
1.40001
1.40001
1.40001
1.40001
1.40001
1.40001
1.40001
1.40001
1.40001
1.40001
1.40001
1.40001
1.40001
1.40001
1.4
1.40027
2.41336
4.8645
5.08624
5.04429
5.00631
4.95991
4.90602
4.8374
1.40001
1.40001
1.40001
1.40001
1.40001
1.40001
1.40001
1.40001
1.40001
1.40001
1.40001
1.40001
1.40001
1.40001
1.40001
1.4
1.54433
4.10722
5.04235
5.0332
5.00473
4.95578
4.89786
4.83034
1.40001
1.40001
1.40001
1.40001
1.40001
1.40001
1.40001
1.40001
1.40001
1.40001
1.40001
1.40001
1.40001
1.40001
1.40001
1.40001
1.40218
2.66187
4.86312
5.05215
5.01043
4.95015
4.88867
4.82598
1.40001
1.40001
1.40001
1.40001
1.40001
1.40001
1.40001
1.40001
1.40001
1.40001
1.40001
1.40001
1.40001
1.40001
1.40001
1.40001
1.40001
1.61306
4.19803
5.03224
4.98444
4.93504
4.87763
4.83396
1.40001
1.40001
1.40001
1.40001
1.40001
1.40001
1.40001
1.40001
1.40001
1.40001
1.40001
1.40001
1.40001
1.40001
1.40001
1.40001
1.40001
1.40494
2.74493
4.85455
4.92778
4.93489
4.97741
5.14342
1.40001
1.40001
1.40001
1.40001
1.40001
1.40001
1.40001
1.40001
1.40001
1.40001
1.40001
1.40001
1.40001
1.40001
1.40001
1.40001
1.40001
1.40001
1.63334
4.11441
4.9147
5.1636
5.66828
6.16663
1.40001
1.40001
1.40001
1.40001
1.40001
1.40001
1.40001
1.40001
1.40001
1.40001
1.40001
1.40001
1.40001
1.40001
1.40001
1.40001
1.40001
1.40001
1.40594
2.54133
5.06797
6.36604
6.7733
6.87798
1.40001
1.40001
1.40001
1.40001
1.40001
1.40001
1.40001
1.40001
1.40001
1.40001
1.40001
1.40001
1.40001
1.40001
1.40001
1.40001
1.40001
1.40001
1.40002
1.69459
5.73256
7.17595
7.01878
6.90175
1.40001
1.40001
1.40001
1.40001
1.40001
1.40001
1.40001
1.40001
1.40001
1.40001
1.40001
1.40001
1.40001
1.40001
1.40001
1.40001
1.40001
1.40001
1.40001
2.0878
5.73848
6.75194
6.58947
6.57947
1.40001
1.40001
1.40001
1.40001
1.40001
1.40001
1.40001
1.40001
1.40001
1.40001
1.40001
1.40001
1.40001
1.40001
1.40001
1.40001
1.40001
1.40001
1.40001
2.55755
5.34484
6.08898
5.97492
6.11812
1.40001
1.40001
1.40001
1.40001
1.40001
1.40001
1.40001
1.40001
1.40001
1.40001
1.40001
1.40001
1.40001
1.40001
1.40001
1.40001
1.40001
1.40001
1.40001
2.82826
5.28537
5.79979
5.75436
5.8727
1.40001
1.40001
1.40001
1.40001
1.40001
1.40001
1.40001
1.40001
1.40001
1.40001
1.40001
1.40001
1.40001
1.40001
1.40001
1.40001
1.40001
1.40001
1.40001
2.8639
5.31344
5.66159
5.64627
5.68592
1.40001
1.40001
1.40001
1.40001
1.40001
1.40001
1.40001
1.40001
1.40001
1.40001
1.40001
1.40001
1.40001
1.40001
1.40001
1.40001
1.40001
1.40001
1.40001
2.84426
5.3762
5.62576
5.57492
5.58665
1.40001
1.40001
1.40001
1.40001
1.40001
1.40001
1.40001
1.40001
1.40001
1.40001
1.40001
1.40001
1.40001
1.40001
1.40001
1.40001
1.40001
1.40001
1.40001
2.83263
5.48233
5.63693
5.56899
5.5559
1.40001
1.40001
1.40001
1.40001
1.40001
1.40001
1.40001
1.40001
1.40001
1.40001
1.40001
1.40001
1.40001
1.40001
1.40001
1.40001
1.40001
1.40001
1.40001
2.7816
5.51825
5.67205
5.58413
5.56116
1.40001
1.40001
1.40001
1.40001
1.40001
1.40001
1.40001
1.40001
1.40001
1.40001
1.40001
1.40001
1.40001
1.40001
1.40001
1.40001
1.40001
1.40001
1.40001
2.72912
5.50915
5.69335
5.61171
5.58826
1.40001
1.40001
1.40001
1.40001
1.40001
1.40001
1.40001
1.40001
1.40001
1.40001
1.40001
1.40001
1.40001
1.40001
1.40001
1.40001
1.40001
1.40001
1.40001
2.69233
5.46721
5.69263
5.61809
5.60688
1.40001
1.40001
1.40001
1.40001
1.40001
1.40001
1.40001
1.40001
1.40001
1.40001
1.40001
1.40001
1.40001
1.40001
1.40001
1.40001
1.40001
1.40001
1.40001
2.67729
5.42704
5.69049
5.61822
5.6163
3.64281
3.93234
3.91943
3.84752
3.75204
3.7193
3.71288
3.71311
4.38024
4.35466
4.09886
3.9151
3.76866
3.72821
3.72057
3.71881
4.52689
4.37472
4.12025
3.95493
3.80309
3.76231
3.747
3.74159
4.642
4.51039
4.3006
4.13192
3.93348
3.84665
3.79088
3.80274
4.70812
4.61687
4.44826
4.28225
4.07515
3.94369
3.85457
3.88477
4.73906
4.67725
4.57617
4.46887
4.28821
4.11762
3.99046
4.00232
4.76055
4.70654
4.64134
4.57619
4.44868
4.27608
4.11589
4.06896
4.76953
4.72016
4.67395
4.63585
4.55556
4.4314
4.23345
4.12294
4.77064
4.72105
4.67648
4.63586
4.5664
4.45003
4.15734
3.353
4.76454
4.713
4.66246
4.61262
4.53093
4.38852
4.05288
3.33524
4.75789
4.69925
4.63947
4.57492
4.4732
4.30694
3.98121
3.38085
4.75933
4.68612
4.61303
4.5276
4.4102
4.22498
3.90497
3.41501
4.75659
4.67204
4.5834
4.47996
4.34878
4.14724
3.85251
3.45236
4.75838
4.66778
4.56344
4.44286
4.30067
4.10038
3.83434
3.48956
4.75575
4.6589
4.54383
4.41793
4.26936
4.08066
3.84466
3.55606
4.75333
4.66091
4.54561
4.42725
4.30003
4.16437
4.02013
3.8731
4.75926
4.69514
4.6342
4.61477
4.63623
4.66786
4.65146
4.5709
4.83717
4.93928
5.13865
5.31823
5.36756
5.30321
5.12952
4.95199
5.47424
5.7844
5.92118
5.91449
5.8059
5.61402
5.36458
5.14542
6.38569
6.40047
6.26361
6.06486
5.88283
5.68036
5.4644
5.25989
6.72964
6.50885
6.27648
6.04921
5.85924
5.68184
5.51972
5.35369
6.74089
6.48102
6.2489
6.04956
5.88008
5.7324
5.60224
5.45952
6.5372
6.41072
6.23737
6.08338
5.94937
5.83004
5.7156
5.5844
6.24942
6.29559
6.24529
6.15372
6.052
5.94299
5.82657
5.712
6.00551
6.10691
6.14567
6.12094
6.05454
5.96741
5.87103
5.77198
5.74722
5.8191
5.86904
5.88195
5.87541
5.85606
5.81817
5.76745
5.61773
5.63132
5.65867
5.66679
5.67591
5.68567
5.69091
5.68589
5.57118
5.56555
5.54589
5.50847
5.48319
5.47357
5.48373
5.51143
5.57576
5.57309
5.53063
5.46198
5.37934
5.32077
5.28944
5.28189
5.60032
5.61065
5.57269
5.47281
5.3699
5.26955
5.19149
5.14299
5.63259
5.65418
5.61426
5.5162
5.37898
5.24234
5.12939
5.04183
5.65182
5.68342
5.63763
5.52933
5.37206
5.19178
5.05826
4.95591
1.34363
0.660173
0.432225
0.436219
0.466474
0.474752
0.520172
0.607318
0.69335
0.736059
0.729853
0.735157
0.753404
0.839618
1.16118
2.22631
3.23289
3.34194
3.23503
3.23049
3.1952
3.14634
3.09662
3.08421
3.0716
3.03679
2.99823
2.95233
2.90655
2.87348
2.8666
2.84531
2.79833
2.74545
2.69412
2.65598
2.62431
2.60008
2.56489
2.52233
2.46774
2.40548
2.36441
2.33555
2.32234
2.32712
2.30973
2.27705
2.23337
2.16459
2.10584
2.07603
2.0523
2.03416
2.01355
1.98683
1.95195
1.8971
1.8474
1.82246
1.80507
1.79205
1.78402
1.76757
1.74586
1.7152
1.66304
1.6082
1.57756
1.55887
1.54382
1.52996
1.51459
1.49204
1.45153
1.4035
1.37967
1.36519
1.35225
1.33965
1.32681
1.31177
1.28317
1.22851
1.18602
1.16752
1.15748
1.14378
1.90969
1.28784
0.921762
0.80555
0.745197
0.66543
0.643184
0.650756
0.659617
0.678684
0.694585
0.727933
0.846951
1.13329
1.47242
1.82753
2.62983
3.15408
3.21846
3.26287
3.2659
3.2111
3.16822
3.1495
3.13969
3.11849
3.07751
3.02401
2.9598
2.9169
2.89489
2.87793
2.84009
2.79544
2.74438
2.69714
2.659
2.62871
2.59659
2.55783
2.51308
2.45737
2.40368
2.36728
2.34411
2.33036
2.30749
2.27895
2.24186
2.19073
2.13415
2.09044
2.06126
2.03831
2.01929
1.99571
1.96448
1.92228
1.87548
1.83902
1.81499
1.79695
1.78054
1.7682
1.75046
1.72318
1.68327
1.6353
1.59432
1.56464
1.54159
1.52431
1.51038
1.49317
1.4637
1.42251
1.39135
1.37262
1.35705
1.34193
1.32664
1.30908
1.28468
1.24437
1.20166
1.17614
1.1638
1.1482
2.36187
1.76912
1.36848
1.10622
0.962181
0.842133
0.734998
0.706363
0.695831
0.716546
0.788284
0.950574
1.22375
1.51267
1.73334
1.80407
2.00408
2.57619
3.20935
3.4921
3.57152
3.51873
3.48482
3.40787
3.32724
3.27161
3.22174
3.16349
3.10359
3.05612
3.01609
2.98238
2.94732
2.90382
2.85589
2.80639
2.75803
2.71172
2.66807
2.6262
2.5853
2.54453
2.50502
2.46553
2.42366
2.38072
2.34074
2.30053
2.26313
2.22884
2.19557
2.15861
2.11414
2.06985
2.03594
2.00646
1.97849
1.95124
1.92376
1.89274
1.85792
1.82431
1.79778
1.77429
1.74979
1.72637
1.70241
1.67522
1.64251
1.60335
1.56494
1.53284
1.50336
1.47972
1.46042
1.44133
1.42009
1.39865
1.37807
1.35763
1.33659
1.31263
1.28367
1.25463
1.22617
1.20171
1.18494
1.16153
2.70002
2.16984
1.73589
1.45156
1.25393
1.11326
0.962935
0.911472
0.901947
0.961137
1.10624
1.36006
1.55029
1.68287
1.77996
1.82858
1.84097
1.94542
2.40081
3.00638
3.49451
3.64153
3.74849
3.69014
3.581
3.47088
3.38912
3.33242
3.28906
3.24278
3.18947
3.13639
3.09196
3.04468
2.99401
2.94404
2.89566
2.8494
2.8028
2.75482
2.70824
2.6669
2.62664
2.58177
2.52939
2.47354
2.41968
2.37023
2.33159
2.30117
2.27275
2.24254
2.20257
2.1487
2.09587
2.05577
2.02567
2.00205
1.97941
1.95447
1.92264
1.88092
1.8369
1.79963
1.76982
1.74709
1.72852
1.70997
1.68939
1.66265
1.62215
1.56765
1.51926
1.48935
1.47314
1.46085
1.44768
1.43308
1.41581
1.39342
1.36446
1.33121
1.29981
1.27561
1.25462
1.23429
1.21714
1.18777
2.90566
2.46529
2.07721
1.73931
1.52327
1.35908
1.25829
1.21682
1.26324
1.44038
1.64786
1.76915
1.79837
1.8298
1.84404
1.85127
1.86831
1.87434
1.90562
2.11723
2.68592
3.25737
3.63756
3.74891
3.72576
3.66875
3.58054
3.52051
3.45893
3.40002
3.33971
3.26012
3.19785
3.15434
3.11286
3.06718
3.01855
2.97434
2.92949
2.88633
2.84404
2.80008
2.75161
2.69432
2.62685
2.55509
2.49249
2.44996
2.41826
2.38833
2.3578
2.32491
2.2839
2.2295
2.17033
2.12475
2.09669
2.07396
2.05056
2.02453
1.9919
1.94596
1.88952
1.84142
1.80874
1.78624
1.76826
1.75077
1.73182
1.70912
1.67669
1.62844
1.57194
1.53011
1.50875
1.49478
1.48157
1.46751
1.45096
1.42902
1.39965
1.36776
1.34074
1.31903
1.29774
1.27494
1.25391
1.21854
3.04427
2.6683
2.36402
2.04556
1.85573
1.76694
1.78731
1.80119
1.90098
2.08718
2.10344
2.05326
2.0103
1.96049
1.95401
1.97776
1.98753
1.97561
1.95346
1.93627
1.99292
2.26842
2.80125
3.33069
3.59594
3.67205
3.6398
3.6352
3.60424
3.54244
3.46691
3.35688
3.2581
3.20561
3.1693
3.13466
3.09871
3.06273
3.02556
2.98312
2.93499
2.88277
2.82691
2.76666
2.7035
2.63972
2.57985
2.53202
2.4945
2.46118
2.4291
2.39478
2.35245
2.2999
2.24447
2.19703
2.16268
2.13566
2.10945
2.08089
2.04596
1.99912
1.94366
1.89553
1.86073
1.83408
1.81224
1.79248
1.77161
1.74718
1.716
1.67659
1.63404
1.5961
1.56531
1.54228
1.5242
1.5062
1.48401
1.45616
1.42895
1.40701
1.38967
1.37223
1.35128
1.32636
1.302
1.25709
3.21266
2.90925
2.74597
2.58594
2.43995
2.45316
2.53724
2.46109
2.45438
2.47184
2.40085
2.30299
2.23769
2.17354
2.16201
2.16686
2.14853
2.10747
2.06288
2.01629
1.98452
1.97852
2.03698
2.31141
2.7994
3.28654
3.48297
3.57834
3.61914
3.6158
3.55279
3.45678
3.34882
3.25312
3.2005
3.16606
3.13413
3.10133
3.068
3.02999
2.98127
2.92148
2.85975
2.8029
2.7533
2.70655
2.65714
2.60557
2.55766
2.51522
2.47547
2.43508
2.39099
2.34552
2.30349
2.26364
2.22428
2.18681
2.15037
2.11259
2.07138
2.02648
1.98289
1.94656
1.91629
1.88788
1.85968
1.83212
1.80525
1.77775
1.74696
1.71335
1.68152
1.65188
1.62271
1.59336
1.56489
1.53621
1.50489
1.47938
1.46347
1.45003
1.43679
1.42196
1.40415
1.37984
1.34922
1.28918
3.70881
3.53483
3.45567
3.35896
3.18711
3.11679
3.07777
2.93888
2.79774
2.70525
2.60496
2.51102
2.46421
2.41178
2.37653
2.34498
2.29981
2.24853
2.19689
2.15406
2.10623
2.0615
2.02646
1.99653
2.04406
2.32125
2.77772
3.17782
3.4419
3.52676
3.54624
3.51758
3.43913
3.33429
3.25166
3.20448
3.16028
3.1213
3.08442
3.04118
2.98701
2.93036
2.88047
2.83771
2.79712
2.75514
2.71013
2.6602
2.60723
2.55641
2.50841
2.46206
2.4168
2.37614
2.34009
2.30486
2.26787
2.22839
2.18567
2.13737
2.08865
2.04462
2.00896
1.98036
1.95519
1.93064
1.90414
1.87423
1.83974
1.80087
1.76381
1.73395
1.70892
1.68587
1.66271
1.63614
1.59792
1.55221
1.51899
1.50365
1.49228
1.48052
1.46869
1.45719
1.44549
1.42545
1.38232
1.30468
4.39229
4.12709
3.95931
3.77161
3.56879
3.44989
3.33033
3.19571
3.04023
2.90069
2.80857
2.72065
2.65118
2.60792
2.5618
2.51618
2.46494
2.41533
2.36125
2.29986
2.23524
2.18255
2.12861
2.07629
2.01308
1.98883
2.04114
2.27489
2.6906
3.0593
3.35751
3.4347
3.42017
3.39554
3.32605
3.25243
3.19967
3.15361
3.10332
3.04642
2.98315
2.93322
2.90245
2.87154
2.83496
2.79468
2.74771
2.69163
2.63169
2.57593
2.52905
2.48867
2.45073
2.41256
2.3719
2.33035
2.29303
2.25568
2.2066
2.15544
2.11258
2.07631
2.04117
2.00625
1.97568
1.95081
1.92637
1.89879
1.86825
1.82825
1.78203
1.74238
1.71466
1.69889
1.68465
1.66165
1.621
1.56852
1.53918
1.52577
1.51462
1.50563
1.50024
1.49225
1.47906
1.45302
1.39528
1.31902
4.70425
4.4486
4.24756
4.0172
3.80623
3.65656
3.499
3.36165
3.25231
3.1361
3.043
2.9543
2.84026
2.7555
2.70484
2.66398
2.62018
2.56588
2.50684
2.44328
2.37925
2.31726
2.25835
2.19529
2.10695
2.01211
1.97833
1.9788
2.02545
2.22014
2.57993
2.93934
3.1811
3.31723
3.29581
3.26485
3.2431
3.19244
3.13293
3.06082
2.99624
2.95205
2.92375
2.89831
2.87054
2.83365
2.78169
2.70942
2.6281
2.57081
2.53657
2.50851
2.48132
2.45154
2.41518
2.3669
2.30422
2.24019
2.19463
2.16088
2.13427
2.10931
2.08085
2.04605
2.00467
1.96131
1.92991
1.90954
1.88413
1.84618
1.801
1.76472
1.73323
1.70246
1.67256
1.64938
1.62721
1.59617
1.56958
1.55025
1.53454
1.51915
1.50086
1.48039
1.46036
1.43532
1.39534
1.34911
4.8911
4.65769
4.45723
4.24227
4.03889
3.87689
3.71917
3.58387
3.48351
3.38263
3.27665
3.17405
3.04639
2.9111
2.84781
2.80337
2.75395
2.70175
2.63738
2.56746
2.50463
2.44847
2.39253
2.32729
2.23567
2.12047
2.03582
1.99792
1.98429
1.98043
2.00802
2.1558
2.42241
2.77786
3.01369
3.15862
3.18585
3.17936
3.1585
3.10232
3.03137
2.98356
2.94638
2.91719
2.88878
2.85586
2.80978
2.73599
2.63991
2.57771
2.5446
2.51736
2.49389
2.47033
2.44198
2.39981
2.33064
2.24962
2.19432
2.16504
2.14491
2.12604
2.10395
2.07383
2.03597
1.99139
1.9433
1.89179
1.85125
1.83053
1.81433
1.78837
1.75443
1.71902
1.68548
1.6541
1.62807
1.61228
1.59996
1.58693
1.56544
1.53802
1.51012
1.48072
1.44723
1.4118
1.39757
1.37906
5.02911
4.81443
4.62293
4.4312
4.24458
4.09047
3.95243
3.81121
3.69936
3.60111
3.48697
3.37007
3.23598
3.08619
3.00583
2.96061
2.89663
2.82264
2.75128
2.67676
2.60774
2.55077
2.49414
2.4318
2.35376
2.25599
2.16124
2.0945
2.0426
2.00244
1.98139
1.96461
1.9694
2.0489
2.26219
2.54998
2.79413
2.95803
3.07442
3.06556
3.04378
3.03589
2.99451
2.94631
2.90243
2.85661
2.81121
2.75155
2.6756
2.61695
2.57425
2.53584
2.501
2.47299
2.4472
2.41415
2.35519
2.28064
2.23038
2.19657
2.16189
2.12665
2.10211
2.08528
2.06352
2.02481
1.96503
1.89812
1.84974
1.82157
1.79812
1.77553
1.75571
1.73473
1.70532
1.67095
1.64738
1.6305
1.61148
1.58411
1.55133
1.52147
1.49805
1.47477
1.44666
1.4168
1.39464
1.37003
5.16274
4.97616
4.79616
4.61231
4.4269
4.2647
4.12952
3.99194
3.86923
3.7721
3.66955
3.54806
3.41293
3.28355
3.16932
3.08503
3.01568
2.93589
2.85083
2.77709
2.71134
2.64856
2.58538
2.51889
2.44749
2.36681
2.27687
2.19639
2.13357
2.08073
2.02855
1.98434
1.94521
1.92968
1.92095
1.95364
2.08694
2.29391
2.57821
2.77283
2.91156
2.98734
2.98729
2.96454
2.92694
2.86658
2.80355
2.74431
2.69811
2.64755
2.59998
2.56162
2.52732
2.49122
2.44019
2.37663
2.33092
2.29798
2.26001
2.223
2.18685
2.15039
2.11442
2.07522
2.03954
2.01034
1.9745
1.92066
1.86404
1.82047
1.79943
1.78792
1.77408
1.75149
1.72126
1.69297
1.67106
1.65003
1.62207
1.5837
1.54382
1.51242
1.48883
1.4686
1.44836
1.42453
1.40256
1.38176
5.30112
5.14028
4.96814
4.78827
4.60262
4.43117
4.28117
4.14166
4.02484
3.92991
3.837
3.72675
3.59573
3.45417
3.33302
3.22625
3.12041
3.03483
2.95891
2.88639
2.81683
2.74852
2.67905
2.60784
2.53575
2.45916
2.37459
2.29022
2.21883
2.15955
2.10307
2.04974
1.99408
1.94812
1.90232
1.87864
1.85334
1.83915
1.91457
2.09764
2.33759
2.5872
2.75598
2.86299
2.8783
2.86654
2.82648
2.75445
2.68012
2.63747
2.61528
2.58873
2.55816
2.51367
2.4489
2.38001
2.31902
2.28314
2.26431
2.24539
2.21864
2.17845
2.12958
2.07973
2.03489
1.99265
1.95166
1.91856
1.88382
1.84733
1.8165
1.78766
1.76215
1.74192
1.72514
1.71048
1.69632
1.67697
1.64059
1.58458
1.53608
1.50438
1.4798
1.45935
1.44387
1.43006
1.42366
1.41051
5.45168
5.30852
5.14188
4.96637
4.78276
4.60764
4.45482
4.31819
4.20447
4.10716
4.00791
3.90334
3.78523
3.64361
3.47706
3.3524
3.24835
3.14729
3.06284
2.98981
2.9176
2.84488
2.7719
2.69843
2.62289
2.54178
2.45349
2.36488
2.28786
2.22562
2.17173
2.11972
2.06497
2.00741
1.94724
1.8942
1.84325
1.8099
1.77249
1.74576
1.77954
1.90549
2.12051
2.36909
2.56877
2.7079
2.7547
2.73528
2.67598
2.6271
2.57898
2.53763
2.51562
2.49065
2.4511
2.38585
2.32652
2.29296
2.26298
2.22919
2.19993
2.17621
2.14104
2.08674
2.02913
1.98502
1.95393
1.92788
1.8995
1.86817
1.82856
1.78482
1.76181
1.74948
1.73599
1.71782
1.69246
1.65848
1.61845
1.57298
1.53486
1.50763
1.48328
1.46319
1.44927
1.43775
1.43057
1.41215
5.59411
5.45791
5.29786
5.13057
4.96393
4.80382
4.65137
4.51076
4.39908
4.30005
4.19273
4.08042
3.96168
3.82583
3.65989
3.4932
3.37451
3.27566
3.18159
3.09152
3.0054
2.92445
2.848
2.77349
2.69799
2.61753
2.52729
2.43083
2.34357
2.27404
2.21719
2.16671
2.11471
2.05518
1.99417
1.93621
1.88295
1.83344
1.77974
1.73101
1.6931
1.66052
1.67397
1.75175
1.93043
2.15891
2.38576
2.51471
2.57011
2.58158
2.55595
2.51446
2.48578
2.45005
2.40924
2.38222
2.35045
2.31109
2.26888
2.23042
2.19794
2.16092
2.11554
2.06397
2.02191
1.99849
1.98012
1.95755
1.92655
1.88698
1.82719
1.78951
1.78029
1.77148
1.75715
1.73616
1.70453
1.65478
1.59582
1.55741
1.5341
1.51436
1.49462
1.47949
1.46542
1.4522
1.44195
1.42139
5.67751
5.56166
5.42119
5.27146
5.12362
4.97722
4.82672
4.68636
4.56757
4.46951
4.35952
4.23864
4.1143
3.97982
3.83493
3.67001
3.50776
3.38264
3.27979
3.18281
3.08925
3.00053
2.91725
2.8376
2.7575
2.67356
2.58328
2.48854
2.40117
2.32739
2.25887
2.19725
2.14121
2.08581
2.02837
1.96513
1.89786
1.8414
1.79318
1.74311
1.68899
1.64341
1.62002
1.59378
1.58752
1.63735
1.75867
1.9471
2.13592
2.30207
2.38524
2.43014
2.42349
2.412
2.39559
2.36148
2.31695
2.27138
2.22665
2.19737
2.17507
2.14625
2.1053
2.06119
2.01737
1.97322
1.94696
1.93616
1.92696
1.89891
1.84888
1.80311
1.76129
1.74147
1.73031
1.71519
1.69213
1.6532
1.59375
1.55023
1.5391
1.53213
1.52232
1.50779
1.48911
1.47239
1.45918
1.42893
5.71274
5.629
5.51917
5.38716
5.2481
5.10744
4.94452
4.77886
4.64639
4.56291
4.48106
4.36247
4.23701
4.1062
3.96821
3.8137
3.64011
3.47564
3.34799
3.24671
3.15488
3.06566
2.97681
2.88869
2.80365
2.72093
2.63374
2.53702
2.43843
2.36179
2.30763
2.25454
2.19728
2.13542
2.06595
1.99305
1.92546
1.86576
1.81033
1.76038
1.70791
1.65565
1.60587
1.56787
1.54114
1.5229
1.50553
1.52104
1.59331
1.73268
1.91123
2.09726
2.20121
2.27302
2.31795
2.31864
2.30844
2.27296
2.21853
2.15787
2.1217
2.111
2.0989
2.07063
2.02362
1.97848
1.94403
1.90651
1.87812
1.86457
1.85331
1.82097
1.77231
1.73315
1.7084
1.691
1.67103
1.64487
1.60816
1.57497
1.54721
1.53162
1.52163
1.51232
1.50182
1.49132
1.48142
1.45058
5.67042
5.62183
5.55504
5.44972
5.30933
5.16437
5.01381
4.85632
4.71991
4.61822
4.55261
4.46102
4.33762
4.19925
4.04428
3.8837
3.72057
3.55988
3.42092
3.30672
3.20594
3.11072
3.01872
2.92883
2.83843
2.74426
2.64513
2.54597
2.45407
2.37272
2.30037
2.23329
2.17067
2.10942
2.0477
1.98637
1.92927
1.87489
1.82045
1.76524
1.7086
1.65886
1.61171
1.57341
1.53881
1.51138
1.48439
1.46887
1.45256
1.43392
1.46498
1.55435
1.72151
1.90662
2.04593
2.1375
2.21184
2.21411
2.202
2.16123
2.11198
2.06485
2.03512
2.02358
2.01181
1.98744
1.94527
1.90265
1.86574
1.83235
1.81217
1.79691
1.77479
1.73237
1.69656
1.67646
1.65627
1.63207
1.61291
1.59485
1.56683
1.54357
1.53614
1.53561
1.54675
1.56553
1.58866
1.64516
5.53272
5.52454
5.48966
5.439
5.33424
5.19315
5.03238
4.87541
4.7486
4.64247
4.55143
4.46231
4.34985
4.22469
4.08861
3.94197
3.7909
3.63785
3.49109
3.36684
3.26281
3.16777
3.07468
2.98062
2.88323
2.78066
2.67884
2.58341
2.49255
2.40386
2.3166
2.23607
2.16501
2.10582
2.05847
2.01402
1.96363
1.90711
1.8463
1.78594
1.73327
1.68871
1.64877
1.61267
1.57732
1.54306
1.50815
1.4719
1.4254
1.39513
1.35964
1.33665
1.35951
1.43426
1.57935
1.74602
1.91806
2.00359
2.07099
2.0949
2.08702
2.0601
2.01176
1.9695
1.9545
1.94733
1.93499
1.90772
1.86335
1.82506
1.78707
1.76259
1.74266
1.71968
1.69451
1.67402
1.65557
1.64315
1.63756
1.6317
1.63653
1.65462
1.70508
1.77953
1.86307
1.95304
2.00803
2.08253
5.28516
5.29748
5.30849
5.29537
5.22519
5.10538
4.96658
4.83714
4.729
4.62374
4.51312
4.41082
4.30329
4.17154
4.02833
3.883
3.73778
3.59123
3.45226
3.329
3.2199
3.11871
3.02068
2.92319
2.82519
2.72737
2.63044
2.53637
2.44617
2.36093
2.28458
2.21516
2.15197
2.0945
2.0392
1.98499
1.9319
1.8763
1.81868
1.7611
1.70774
1.66389
1.62585
1.59035
1.55582
1.51957
1.48216
1.4448
1.39969
1.35841
1.33115
1.31572
1.30784
1.29051
1.29206
1.32856
1.44026
1.60257
1.76738
1.86754
1.9385
1.98333
1.98046
1.95265
1.91602
1.89587
1.88353
1.87253
1.8564
1.827
1.7876
1.75477
1.73802
1.72233
1.70429
1.70377
1.71715
1.75185
1.82013
1.90689
1.98337
2.07423
2.17435
2.24667
2.27854
2.28534
2.29623
2.29982
5.12492
5.12855
5.1363
5.11947
5.06102
4.97013
4.86544
4.76388
4.66702
4.55971
4.44659
4.33666
4.23834
4.12564
3.98993
3.85158
3.70963
3.56513
3.42847
3.30742
3.19911
3.09748
2.99833
2.89996
2.8029
2.70832
2.61622
2.52512
2.43478
2.3489
2.27097
2.20101
2.13824
2.08079
2.02709
1.97554
1.92376
1.86871
1.80996
1.75079
1.69881
1.65676
1.62071
1.58635
1.55278
1.51637
1.47792
1.43825
1.39466
1.34784
1.32291
1.3142
1.29928
1.27456
1.25357
1.22387
1.21649
1.24118
1.31957
1.45707
1.61753
1.73105
1.81845
1.86305
1.86423
1.85218
1.83593
1.83572
1.83357
1.8287
1.81516
1.80053
1.80867
1.84147
1.90809
2.00697
2.11586
2.22853
2.34111
2.41163
2.44365
2.47034
2.49082
2.49331
2.47563
2.45996
2.45552
2.429
4.9887
4.96432
4.95172
4.93038
4.88472
4.81281
4.72696
4.6364
4.53689
4.43066
4.32843
4.23159
4.13931
4.04694
3.92512
3.7971
3.6645
3.52903
3.39971
3.28311
3.17705
3.07737
2.98135
2.8874
2.79464
2.70244
2.60993
2.51692
2.42537
2.33958
2.26301
2.1958
2.13581
2.08029
2.02722
1.97506
1.92218
1.86651
1.80732
1.74729
1.6936
1.64987
1.61397
1.5813
1.55037
1.51736
1.48116
1.43775
1.38895
1.35289
1.32874
1.3063
1.28451
1.26412
1.24328
1.2145
1.185
1.16371
1.16265
1.17947
1.23434
1.34293
1.4709
1.58849
1.67047
1.75505
1.80321
1.84865
1.91045
2.00997
2.09708
2.15501
2.21902
2.28697
2.35268
2.42003
2.50093
2.57017
2.57573
2.56753
2.56003
2.55717
2.53993
2.52094
2.50222
2.4848
2.47383
2.43273
4.89808
4.88123
4.88532
4.88885
4.86948
4.81657
4.7352
4.63418
4.52518
4.42083
4.32437
4.23313
4.13851
4.0413
3.92094
3.78834
3.65266
3.51799
3.39131
3.27648
3.17112
3.07208
2.97759
2.88595
2.79513
2.70355
2.60997
2.51498
2.42179
2.33562
2.26022
2.19491
2.13659
2.08235
2.02984
1.9774
1.92347
1.86689
1.80769
1.74766
1.6921
1.64564
1.6082
1.576
1.5466
1.51601
1.48201
1.44349
1.4017
1.35941
1.32303
1.29629
1.27651
1.26
1.24152
1.21972
1.18511
1.14692
1.12131
1.11122
1.10918
1.11985
1.15563
1.24741
1.37722
1.5639
1.81641
2.05127
2.2491
2.42912
2.59066
2.70962
2.79512
2.86192
2.9004
2.93653
2.96161
2.95205
2.89834
2.81022
2.72058
2.61998
2.51011
2.4524
2.43022
2.41925
2.41855
2.39661
)
;

boundaryField
{
    inlet
    {
        type            calculated;
        value           uniform 1.40001;
    }
    outlet
    {
        type            calculated;
        value           nonuniform List<scalar> 
24
(
1.1425
1.14699
1.16079
1.18732
1.21826
1.2574
1.29079
1.30726
1.3207
1.34934
1.37889
1.3695
1.38081
1.40915
1.41164
1.42113
1.42982
1.45272
1.65154
2.0882
2.30008
2.42775
2.431
2.3947
)
;
    }
    bottom
    {
        type            calculated;
        value           nonuniform List<scalar> 
24
(
1.40001
1.40001
1.40001
1.40001
1.40001
1.40001
1.40001
1.40001
1.40001
1.40001
1.40001
3.16935
5.31816
5.47776
5.5326
5.6164
5.6925
5.74796
5.7742
5.79364
5.81646
5.83423
5.8404
5.84527
)
;
    }
    top
    {
        type            calculated;
        value           nonuniform List<scalar> 
120
(
1.40001
1.40001
1.40001
1.40001
1.40001
1.40001
1.40001
1.40001
1.40001
1.40001
1.40001
1.40001
1.40001
1.40001
1.40001
1.40001
1.40001
1.40001
1.40001
2.67729
5.42704
5.69049
5.61822
5.6163
5.65182
5.68342
5.63763
5.52933
5.37206
5.19178
5.05826
4.95591
4.89808
4.88123
4.88532
4.88885
4.86948
4.81657
4.7352
4.63418
4.52518
4.42083
4.32437
4.23313
4.13851
4.0413
3.92094
3.78834
3.65266
3.51799
3.39131
3.27648
3.17112
3.07208
2.97759
2.88595
2.79513
2.70355
2.60997
2.51498
2.42179
2.33562
2.26022
2.19491
2.13659
2.08235
2.02984
1.9774
1.92347
1.86689
1.80769
1.74766
1.6921
1.64564
1.6082
1.576
1.5466
1.51601
1.48201
1.44349
1.4017
1.35941
1.32303
1.29629
1.27651
1.26
1.24152
1.21972
1.18511
1.14692
1.12131
1.11122
1.10918
1.11985
1.15563
1.24741
1.37722
1.5639
1.81641
2.05127
2.2491
2.42912
2.59066
2.70962
2.79512
2.86192
2.9004
2.93653
2.96161
2.95205
2.89834
2.81022
2.72058
2.61998
2.51011
2.4524
2.43022
2.41925
2.41855
2.39661
)
;
    }
    obstacle
    {
        type            calculated;
        value           nonuniform List<scalar> 
112
(
5.84527
5.8304
5.80808
5.77219
5.73
5.65907
5.54353
5.42113
3.64281
3.93234
3.91943
3.84752
3.75204
3.7193
3.71288
3.71311
3.71311
3.71881
3.74159
3.80274
3.88477
4.00232
4.06896
4.12294
1.34363
0.660173
0.432225
0.436219
0.466474
0.474752
0.520172
0.607318
0.69335
0.736059
0.729853
0.735157
0.753404
0.839618
1.16118
2.22631
3.23289
3.34194
3.23503
3.23049
3.1952
3.14634
3.09662
3.08421
3.0716
3.03679
2.99823
2.95233
2.90655
2.87348
2.8666
2.84531
2.79833
2.74545
2.69412
2.65598
2.62431
2.60008
2.56489
2.52233
2.46774
2.40548
2.36441
2.33555
2.32234
2.32712
2.30973
2.27705
2.23337
2.16459
2.10584
2.07603
2.0523
2.03416
2.01355
1.98683
1.95195
1.8971
1.8474
1.82246
1.80507
1.79205
1.78402
1.76757
1.74586
1.7152
1.66304
1.6082
1.57756
1.55887
1.54382
1.52996
1.51459
1.49204
1.45153
1.4035
1.37967
1.36519
1.35225
1.33965
1.32681
1.31177
1.28317
1.22851
1.18602
1.16752
1.15748
1.14378
)
;
    }
    defaultFaces
    {
        type            empty;
    }
}


// ************************************************************************* //
