/*--------------------------------*- C++ -*----------------------------------*\
  =========                 |
  \\      /  F ield         | OpenFOAM: The Open Source CFD Toolbox
   \\    /   O peration     | Website:  https://openfoam.org
    \\  /    A nd           | Version:  7
     \\/     M anipulation  |
\*---------------------------------------------------------------------------*/
FoamFile
{
    version     2.0;
    format      ascii;
    class       volScalarField;
    location    "1.8";
    object      rho;
}
// * * * * * * * * * * * * * * * * * * * * * * * * * * * * * * * * * * * * * //

dimensions      [1 -3 0 0 0 0 0];

internalField   nonuniform List<scalar> 
16512
(
1.00668
1.00768
1.0144
1.04859
1.17119
1.38929
1.53978
1.60744
1.63926
1.6482
1.65112
1.64878
1.64329
1.63692
1.63387
1.6339
1.63827
1.64106
1.63985
1.63723
1.63274
1.62886
1.62639
1.62438
1.62427
1.62645
1.6268
1.62585
1.62454
1.62265
1.6203
1.61826
1.61935
1.62591
1.64871
1.69803
1.7729
1.83476
1.86995
1.89047
1.89517
1.89254
1.88439
1.87689
1.87268
1.86968
1.8687
1.87021
1.87373
1.87807
1.88299
1.88726
1.88847
1.88488
1.87544
1.86012
1.84705
1.84204
1.84116
1.8447
1.85339
1.86772
1.8782
1.88071
1.87886
1.87066
1.85385
1.83726
1.83067
1.82891
1.8311
1.83766
1.84975
1.86057
1.86216
1.86014
1.85531
1.84627
1.834
1.82539
1.82234
1.82284
1.82808
1.83499
1.83811
1.8374
1.83451
1.82886
1.81952
1.81087
1.80711
1.80604
1.8101
1.81928
1.82787
1.82937
1.82852
1.82671
1.8235
1.81777
1.81021
1.80408
1.8001
1.79828
1.79914
1.80066
1.80013
1.79903
1.79816
1.79715
1.79592
1.79429
1.79218
1.78866
1.78346
1.77881
1.77713
1.77789
1.78002
1.78084
1.78112
1.78291
1.78456
1.78403
1.78211
1.77824
1.77258
1.76636
1.76163
1.75926
1.75819
1.75805
1.75883
1.76151
1.7641
1.7648
1.76485
1.76559
1.7681
1.76893
1.76693
1.76273
1.75516
1.74605
1.74139
1.73991
1.73919
1.74008
1.74519
1.75542
1.76234
1.76271
1.76178
1.7604
1.75849
1.75548
1.75084
1.74451
1.73679
1.72914
1.72494
1.72433
1.72586
1.72918
1.73325
1.73962
1.74345
1.74235
1.74042
1.73656
1.72877
1.71902
1.71421
1.71321
1.7143
1.71884
1.72608
1.7289
1.72838
1.72443
1.71636
1.71045
1.70858
1.70806
1.71036
1.71478
1.71583
1.71517
1.71364
1.71076
1.70518
1.69668
1.69073
1.6892
1.68914
1.69026
1.69212
1.69702
1.70629
1.71086
1.71057
1.70933
1.70701
1.7024
1.69354
1.68068
1.67027
1.6651
1.66207
1.65971
1.65833
1.65714
1.65596
1.65565
1.6561
1.65853
1.6627
1.66858
1.68419
1.72621
1.80831
1.94337
2.12677
2.31937
2.46329
2.55153
2.62573
2.67606
2.6976
2.7092
2.70671
2.68943
2.68009
2.67762
2.6874
2.71361
2.72212
2.71854
2.71337
2.70259
2.68761
2.67168
2.65726
2.645
2.63313
2.61959
2.60504
2.59371
2.58926
2.58933
2.59419
2.6035
2.62356
2.6437
2.64477
2.63892
2.62703
2.58907
1.01293
1.02207
1.07438
1.22425
1.43695
1.57912
1.64638
1.65956
1.65928
1.65435
1.6481
1.64474
1.64256
1.63979
1.63904
1.6428
1.64743
1.64722
1.64467
1.64129
1.63676
1.6329
1.63076
1.62928
1.62991
1.63473
1.63757
1.63592
1.63274
1.62874
1.62607
1.62643
1.63243
1.6537
1.70573
1.77922
1.83589
1.87919
1.90526
1.91148
1.90755
1.89859
1.89237
1.88722
1.88256
1.87865
1.87558
1.87366
1.87293
1.87387
1.87834
1.8864
1.89353
1.89735
1.89535
1.88751
1.87197
1.85533
1.8476
1.8456
1.8486
1.85671
1.87041
1.88256
1.8861
1.88482
1.87735
1.86133
1.84354
1.83546
1.83316
1.83503
1.84105
1.852
1.86321
1.86539
1.86358
1.85964
1.85282
1.8426
1.83342
1.82943
1.82835
1.83113
1.8361
1.83929
1.83886
1.83633
1.83186
1.82473
1.81726
1.81339
1.81203
1.81482
1.8213
1.82763
1.82883
1.82832
1.82721
1.82499
1.82157
1.81869
1.81536
1.81171
1.80809
1.80363
1.79982
1.79723
1.79576
1.79525
1.79472
1.79413
1.79418
1.795
1.79502
1.79336
1.78974
1.78606
1.78281
1.7806
1.77933
1.77866
1.77952
1.78321
1.78473
1.78371
1.78127
1.77726
1.77126
1.76441
1.76007
1.75835
1.75779
1.75842
1.76055
1.76333
1.76481
1.76624
1.7688
1.77191
1.77321
1.77205
1.76846
1.76046
1.7492
1.74264
1.74084
1.74019
1.74225
1.74822
1.75726
1.76198
1.7618
1.76087
1.75981
1.7586
1.75693
1.75469
1.75174
1.74697
1.73969
1.73308
1.73018
1.72941
1.73105
1.73324
1.73653
1.74051
1.74097
1.73979
1.73741
1.73166
1.72271
1.71745
1.71639
1.71741
1.72154
1.72853
1.73101
1.7302
1.72568
1.71747
1.71149
1.7094
1.70888
1.71108
1.71483
1.71611
1.71571
1.71458
1.71262
1.70846
1.70082
1.69367
1.69088
1.69023
1.69062
1.69317
1.69932
1.70726
1.71053
1.71007
1.70868
1.70674
1.70344
1.69679
1.68585
1.67475
1.66636
1.66059
1.65764
1.65605
1.65545
1.65546
1.65606
1.65861
1.66171
1.66459
1.66599
1.66963
1.67926
1.69905
1.74184
1.82381
1.97071
2.15635
2.33883
2.46506
2.56471
2.64631
2.68156
2.6961
2.69415
2.67826
2.67776
2.68056
2.69752
2.72428
2.73104
2.7264
2.72164
2.71041
2.69133
2.67002
2.65423
2.64334
2.63354
2.62293
2.61144
2.60371
2.60157
2.60219
2.60503
2.61451
2.63309
2.64274
2.63878
2.62157
1.03125
1.10189
1.27965
1.48488
1.6148
1.67308
1.67857
1.66763
1.65254
1.64856
1.64765
1.64998
1.65311
1.6543
1.65386
1.6526
1.65027
1.64669
1.64319
1.641
1.63923
1.63791
1.63712
1.63692
1.63863
1.64314
1.64507
1.64259
1.6389
1.63495
1.63466
1.63926
1.65982
1.71168
1.78655
1.8448
1.8852
1.91322
1.91303
1.9103
1.90937
1.90893
1.90706
1.90418
1.89965
1.89273
1.88488
1.87903
1.87598
1.87526
1.87808
1.88258
1.89103
1.90061
1.90496
1.90333
1.89633
1.88189
1.86432
1.85461
1.852
1.85474
1.86169
1.8731
1.8857
1.89006
1.88901
1.88243
1.8683
1.85099
1.84165
1.83902
1.84055
1.8458
1.85535
1.86627
1.8686
1.86667
1.8635
1.85828
1.84959
1.84007
1.83518
1.83296
1.83348
1.83714
1.84107
1.8414
1.83923
1.83584
1.83016
1.82277
1.8179
1.81602
1.81677
1.82033
1.8252
1.82726
1.82723
1.82673
1.82601
1.82576
1.82745
1.82661
1.8221
1.81536
1.80675
1.79888
1.7949
1.79263
1.79183
1.79215
1.79288
1.79449
1.7971
1.80043
1.80293
1.80231
1.79763
1.78871
1.78139
1.77896
1.7781
1.77849
1.78195
1.78488
1.78441
1.78285
1.78069
1.77698
1.77064
1.76385
1.76006
1.75875
1.75902
1.76092
1.76349
1.76561
1.76792
1.77107
1.77435
1.77645
1.77636
1.7735
1.76579
1.75365
1.74555
1.74326
1.74263
1.74559
1.75175
1.75791
1.76012
1.75971
1.75895
1.75829
1.7577
1.75723
1.75719
1.75722
1.7558
1.75117
1.74385
1.73707
1.73352
1.73232
1.73252
1.73378
1.7377
1.74057
1.74047
1.73915
1.73482
1.72664
1.72098
1.71965
1.71995
1.72309
1.7296
1.73194
1.73107
1.72705
1.72018
1.71422
1.71148
1.71054
1.71185
1.71404
1.71496
1.7146
1.71378
1.71262
1.71029
1.70513
1.69854
1.69437
1.69288
1.69295
1.69698
1.70264
1.70689
1.70841
1.70785
1.70638
1.70406
1.70077
1.69628
1.68968
1.68163
1.6729
1.66436
1.6582
1.65554
1.65471
1.65516
1.65783
1.66141
1.66396
1.66418
1.66401
1.66523
1.67165
1.68043
1.68711
1.70333
1.74838
1.84496
2.00552
2.1826
2.34779
2.47574
2.58525
2.65262
2.67566
2.67511
2.66867
2.67388
2.68399
2.70964
2.74119
2.74832
2.74183
2.73263
2.71524
2.69009
2.66839
2.65613
2.64818
2.63952
2.62842
2.61604
2.60904
2.60721
2.60604
2.60847
2.62016
2.63923
2.63578
1.13927
1.34343
1.53131
1.65304
1.67788
1.67328
1.66917
1.66363
1.65948
1.65839
1.66233
1.66893
1.66991
1.66707
1.66193
1.654
1.64902
1.64617
1.64447
1.64417
1.64465
1.64499
1.64492
1.64482
1.64522
1.64651
1.64774
1.64573
1.6436
1.64388
1.6488
1.66897
1.71941
1.79276
1.85759
1.90681
1.91807
1.91389
1.91611
1.91762
1.9193
1.91982
1.91671
1.9136
1.91125
1.90787
1.90258
1.89571
1.88905
1.88468
1.8825
1.882
1.88432
1.89294
1.90528
1.91069
1.90975
1.9043
1.89287
1.87649
1.86426
1.86033
1.86088
1.86576
1.8749
1.88805
1.89418
1.89371
1.88867
1.87731
1.86109
1.84998
1.8465
1.84626
1.85015
1.85924
1.86972
1.87158
1.86966
1.86695
1.86246
1.85436
1.84462
1.83953
1.83685
1.83607
1.83898
1.84381
1.84467
1.84265
1.83971
1.83443
1.82625
1.81982
1.81733
1.81683
1.8183
1.82165
1.82484
1.82591
1.82631
1.8275
1.83158
1.83558
1.83336
1.82873
1.82189
1.81099
1.79898
1.79283
1.79048
1.78908
1.78891
1.79078
1.79474
1.79947
1.80582
1.81236
1.81332
1.809
1.79724
1.78515
1.78021
1.77853
1.77842
1.7806
1.7836
1.78392
1.78343
1.78267
1.78109
1.77723
1.77069
1.76449
1.7616
1.76082
1.76198
1.76443
1.76672
1.76922
1.77243
1.77622
1.77918
1.77992
1.77748
1.77041
1.75847
1.74968
1.74711
1.74644
1.74935
1.75394
1.75699
1.75775
1.75732
1.75681
1.75654
1.75658
1.75748
1.75943
1.76191
1.76243
1.7598
1.7532
1.74379
1.73634
1.73348
1.73254
1.73298
1.73632
1.74101
1.74208
1.74137
1.73762
1.72963
1.72347
1.72175
1.72138
1.72338
1.7297
1.73256
1.73198
1.72926
1.72445
1.71863
1.7142
1.71218
1.71151
1.71171
1.71227
1.71248
1.71236
1.71216
1.71172
1.70977
1.70558
1.70126
1.69886
1.6983
1.70166
1.70371
1.70312
1.70238
1.70212
1.70145
1.69963
1.6972
1.69508
1.69204
1.688
1.68271
1.67476
1.66434
1.65736
1.6559
1.65624
1.65892
1.66266
1.66359
1.66285
1.66183
1.66184
1.66784
1.67811
1.68476
1.68638
1.6896
1.70786
1.75763
1.86368
2.01307
2.18502
2.35198
2.48172
2.59995
2.64822
2.65251
2.65735
2.67223
2.69672
2.73077
2.75736
2.76139
2.75435
2.74126
2.72059
2.69288
2.6708
2.65834
2.64936
2.63889
2.62576
2.6138
2.6088
2.60647
2.6058
2.61199
2.63321
1.39632
1.60208
1.66429
1.67332
1.67724
1.67825
1.6811
1.68049
1.67841
1.67692
1.67628
1.67522
1.6731
1.66974
1.66573
1.65955
1.65391
1.65153
1.65039
1.65075
1.65157
1.65182
1.65162
1.65111
1.65
1.6485
1.64752
1.64689
1.64906
1.65619
1.67771
1.72814
1.79655
1.86857
1.91438
1.92751
1.93093
1.92916
1.92849
1.92787
1.92404
1.92
1.91746
1.91655
1.9183
1.92094
1.91927
1.91477
1.90756
1.89723
1.88863
1.88506
1.88454
1.88835
1.89709
1.91009
1.91609
1.91564
1.91147
1.90288
1.88802
1.87348
1.86766
1.86643
1.86957
1.878
1.89257
1.90033
1.90034
1.89618
1.8862
1.86981
1.85686
1.85244
1.851
1.85452
1.86497
1.87412
1.8744
1.87228
1.86941
1.86473
1.8562
1.84709
1.8427
1.8399
1.83867
1.84157
1.84726
1.84809
1.84612
1.8432
1.83776
1.82843
1.8201
1.81718
1.81607
1.81651
1.819
1.82255
1.82478
1.82696
1.83106
1.83743
1.83909
1.83644
1.83251
1.82614
1.81477
1.80049
1.79186
1.78886
1.78731
1.78682
1.7886
1.79456
1.80363
1.81318
1.81956
1.8203
1.8162
1.80497
1.79109
1.78288
1.77975
1.77865
1.77939
1.78133
1.7826
1.78313
1.78327
1.78298
1.78162
1.77737
1.77107
1.76662
1.76454
1.76403
1.76579
1.76824
1.77032
1.77269
1.77707
1.78173
1.78282
1.78053
1.77411
1.76335
1.75482
1.75189
1.75078
1.75223
1.75459
1.75565
1.75562
1.75525
1.75496
1.75499
1.75589
1.75818
1.76189
1.76554
1.76707
1.76538
1.76017
1.75068
1.74019
1.73502
1.7336
1.73375
1.73625
1.74175
1.74373
1.74313
1.73936
1.73117
1.7246
1.72262
1.72195
1.72333
1.72976
1.73348
1.73323
1.73151
1.72847
1.72347
1.71698
1.71225
1.71025
1.7089
1.70836
1.70905
1.7108
1.71244
1.71404
1.71515
1.71389
1.71032
1.70694
1.7051
1.70351
1.70115
1.69869
1.69696
1.69536
1.69452
1.69514
1.69539
1.69477
1.69443
1.69365
1.69123
1.68539
1.67439
1.66266
1.6582
1.65796
1.6595
1.6615
1.6614
1.66047
1.65986
1.66165
1.66848
1.67972
1.6864
1.68782
1.68811
1.68632
1.68617
1.70256
1.7527
1.86096
2.00679
2.19358
2.3524
2.50184
2.60395
2.62465
2.64742
2.67519
2.71426
2.74562
2.76372
2.77023
2.76539
2.74903
2.71991
2.68523
2.66457
2.65346
2.64406
2.63249
2.6186
2.60973
2.60722
2.60625
2.61324
1.61218
1.66694
1.69679
1.69783
1.69745
1.69706
1.69532
1.69176
1.68668
1.68003
1.67631
1.67453
1.67575
1.67501
1.67235
1.66886
1.66402
1.66104
1.65907
1.65779
1.65796
1.6588
1.65911
1.65731
1.65406
1.65042
1.64827
1.64853
1.6561
1.68028
1.73051
1.80239
1.87434
1.90436
1.92868
1.9463
1.94924
1.94622
1.93869
1.93035
1.92601
1.92321
1.92256
1.92377
1.92573
1.92711
1.92787
1.92706
1.92363
1.91704
1.9068
1.89676
1.89188
1.89079
1.89429
1.90166
1.91406
1.92064
1.92048
1.91704
1.91008
1.89647
1.88074
1.87373
1.87192
1.87494
1.88468
1.90031
1.90729
1.9065
1.90185
1.89145
1.87454
1.86176
1.85745
1.85616
1.86178
1.87356
1.87776
1.8759
1.87329
1.86999
1.86434
1.85513
1.84801
1.84454
1.84193
1.8412
1.84613
1.85186
1.85181
1.84983
1.84674
1.84093
1.83005
1.82004
1.8168
1.81541
1.81546
1.8179
1.82223
1.82591
1.82958
1.83522
1.84039
1.83961
1.8369
1.83317
1.82727
1.81732
1.80372
1.79287
1.78846
1.78684
1.78679
1.78984
1.79743
1.80832
1.8187
1.82326
1.82295
1.81924
1.81048
1.79867
1.78815
1.78211
1.77968
1.77865
1.7785
1.77909
1.78071
1.78274
1.78404
1.78434
1.78274
1.77897
1.77492
1.77155
1.76953
1.76903
1.76966
1.77083
1.77257
1.77764
1.7841
1.78523
1.78296
1.7774
1.76827
1.75983
1.75588
1.75421
1.75362
1.75426
1.75446
1.75393
1.75356
1.75377
1.75473
1.75621
1.7586
1.76327
1.76818
1.77007
1.76911
1.76566
1.75806
1.74633
1.73781
1.73551
1.73514
1.73677
1.74222
1.74486
1.74406
1.73998
1.73166
1.72508
1.72306
1.72242
1.72406
1.73045
1.73424
1.73394
1.73271
1.73079
1.72709
1.72027
1.71232
1.70806
1.7065
1.70577
1.70605
1.70885
1.7135
1.7177
1.72117
1.72189
1.72005
1.71501
1.70736
1.70098
1.69723
1.69402
1.69163
1.69008
1.68945
1.69129
1.69453
1.696
1.69762
1.69825
1.69706
1.69327
1.68387
1.66935
1.66062
1.65935
1.65929
1.65961
1.6595
1.65931
1.66045
1.66417
1.67152
1.68297
1.68833
1.68864
1.68754
1.68714
1.68003
1.66709
1.66658
1.68623
1.74746
1.85755
2.01749
2.20064
2.36628
2.53341
2.58755
2.63214
2.67052
2.71637
2.75356
2.76791
2.77077
2.76453
2.73912
2.70117
2.66915
2.65608
2.64754
2.6379
2.62662
2.61511
2.60986
2.61084
1.6911
1.71863
1.71948
1.71611
1.71061
1.701
1.69237
1.68799
1.68496
1.68247
1.68164
1.6831
1.6857
1.68351
1.67951
1.67488
1.67027
1.66796
1.66639
1.66564
1.66689
1.66829
1.66664
1.66343
1.65867
1.65469
1.65407
1.65849
1.67974
1.73011
1.80986
1.87167
1.90901
1.93142
1.94734
1.95386
1.953
1.94893
1.9444
1.93917
1.93594
1.93402
1.93215
1.93007
1.92777
1.92629
1.92716
1.93056
1.93344
1.93231
1.92805
1.91936
1.90779
1.90058
1.89819
1.90017
1.90649
1.91754
1.924
1.92362
1.92055
1.91434
1.90197
1.88759
1.88115
1.87944
1.88333
1.89387
1.90739
1.9112
1.9094
1.90395
1.89327
1.8781
1.86805
1.86456
1.86416
1.87183
1.87927
1.87825
1.87562
1.87262
1.86832
1.86105
1.85337
1.8492
1.84642
1.84452
1.84619
1.85367
1.85722
1.8558
1.8534
1.85002
1.84362
1.83161
1.82082
1.8172
1.81593
1.8166
1.82042
1.82569
1.83022
1.83398
1.83765
1.83947
1.83788
1.83483
1.8312
1.82632
1.81894
1.80869
1.79798
1.7914
1.78946
1.79012
1.79517
1.80271
1.81099
1.81904
1.82359
1.82331
1.82081
1.8155
1.8075
1.79686
1.78607
1.78008
1.77772
1.77602
1.77528
1.77637
1.7806
1.7849
1.78693
1.78731
1.7862
1.78379
1.77954
1.77449
1.77166
1.77074
1.77097
1.77301
1.77943
1.78655
1.78725
1.78493
1.78002
1.77211
1.76347
1.75827
1.75619
1.75484
1.75406
1.75356
1.7531
1.75308
1.75382
1.75501
1.75649
1.75891
1.76402
1.77003
1.77227
1.77194
1.76995
1.76448
1.75307
1.74143
1.73749
1.73667
1.73766
1.7427
1.74557
1.74459
1.74042
1.73243
1.72627
1.72426
1.72368
1.7255
1.73057
1.73379
1.73356
1.73264
1.73129
1.72883
1.72331
1.71419
1.70709
1.70505
1.70467
1.70561
1.70898
1.71516
1.72236
1.72735
1.72777
1.72512
1.71862
1.7083
1.69851
1.69311
1.68989
1.68803
1.68673
1.68631
1.68911
1.69483
1.69819
1.70015
1.70133
1.70076
1.69818
1.6908
1.6764
1.66324
1.65919
1.65859
1.65863
1.6594
1.66065
1.66363
1.66826
1.67441
1.68292
1.68877
1.68873
1.68718
1.68488
1.6795
1.67226
1.65801
1.65114
1.6555
1.68155
1.74978
1.86368
2.03207
2.21201
2.40459
2.51974
2.58905
2.6509
2.70983
2.75272
2.75855
2.75878
2.74616
2.71445
2.67851
2.65988
2.65235
2.64559
2.63779
2.62624
2.61729
1.7316
1.73014
1.72363
1.7127
1.70481
1.70022
1.69647
1.6936
1.69234
1.69449
1.69637
1.69509
1.69209
1.68739
1.68172
1.67728
1.67477
1.67355
1.67318
1.67332
1.67397
1.6739
1.67172
1.66853
1.6653
1.66565
1.67019
1.68952
1.73796
1.81393
1.88072
1.91987
1.945
1.95007
1.94846
1.94829
1.94812
1.95101
1.95489
1.95464
1.95085
1.94564
1.9399
1.93466
1.93077
1.92812
1.92737
1.93011
1.93604
1.94119
1.94214
1.939
1.93086
1.91821
1.90904
1.90566
1.90612
1.91094
1.91934
1.92545
1.92525
1.92271
1.91735
1.90731
1.89622
1.89091
1.88916
1.89238
1.90066
1.91012
1.9117
1.90943
1.90419
1.89538
1.88474
1.87766
1.87455
1.87422
1.87895
1.88002
1.87737
1.87429
1.87037
1.8646
1.85863
1.85482
1.85207
1.85014
1.84996
1.85548
1.86176
1.86119
1.85879
1.85614
1.85253
1.8458
1.83436
1.82443
1.82066
1.81947
1.82089
1.82716
1.83383
1.83646
1.83621
1.8346
1.83347
1.83287
1.83131
1.82878
1.82577
1.82136
1.81499
1.80675
1.79954
1.79683
1.79712
1.80144
1.80681
1.81106
1.81643
1.8228
1.82435
1.82299
1.82001
1.81506
1.80596
1.79185
1.78026
1.77604
1.77425
1.77321
1.77351
1.77812
1.78573
1.79029
1.79184
1.79111
1.78888
1.78437
1.77766
1.77331
1.77205
1.77189
1.77425
1.78248
1.78895
1.78868
1.78615
1.78135
1.7736
1.76436
1.75963
1.75796
1.7567
1.75578
1.7548
1.75387
1.75353
1.75394
1.75502
1.75675
1.76001
1.7657
1.77173
1.77385
1.77379
1.77267
1.7688
1.75864
1.74523
1.73938
1.73807
1.73886
1.74365
1.74648
1.74547
1.7416
1.73446
1.72857
1.72636
1.72549
1.72642
1.7292
1.73196
1.73232
1.73168
1.7306
1.72905
1.72548
1.71787
1.70928
1.70583
1.70531
1.70722
1.71169
1.7185
1.72688
1.72979
1.72884
1.72559
1.71921
1.7084
1.69647
1.69006
1.68758
1.68596
1.68504
1.68543
1.68945
1.69545
1.69971
1.70202
1.70311
1.70304
1.70121
1.69539
1.68242
1.66683
1.65973
1.65872
1.65894
1.66088
1.6638
1.6675
1.67124
1.67478
1.67965
1.68593
1.6876
1.68589
1.6834
1.67889
1.6715
1.66196
1.65465
1.64527
1.64408
1.65174
1.68257
1.75324
1.87165
2.04254
2.23384
2.41002
2.51584
2.60326
2.67718
2.72991
2.73867
2.73939
2.71845
2.68506
2.66607
2.66029
2.65581
2.64939
2.63885
1.72893
1.72311
1.71749
1.71289
1.70922
1.70762
1.7066
1.70571
1.70615
1.70696
1.70445
1.70065
1.69588
1.69104
1.68747
1.68455
1.68275
1.68176
1.68044
1.67885
1.67721
1.6756
1.67406
1.67299
1.67528
1.68265
1.70324
1.75133
1.82123
1.88645
1.93745
1.96359
1.96303
1.95548
1.95166
1.94973
1.95091
1.95456
1.9576
1.96071
1.9613
1.95855
1.95385
1.94708
1.93995
1.93441
1.93116
1.92965
1.93201
1.94124
1.94918
1.95149
1.94872
1.94085
1.92833
1.91756
1.91271
1.91174
1.91464
1.9198
1.92579
1.92678
1.92495
1.92087
1.91381
1.90574
1.90066
1.89837
1.89928
1.90371
1.90964
1.91119
1.90938
1.90571
1.90019
1.89365
1.88784
1.88431
1.88274
1.88252
1.88001
1.8767
1.87278
1.86787
1.86384
1.861
1.85862
1.85692
1.85619
1.85833
1.86399
1.86536
1.86306
1.86054
1.85774
1.85406
1.84814
1.84003
1.83428
1.83174
1.83113
1.83374
1.83946
1.83956
1.83671
1.83303
1.82987
1.82781
1.82772
1.82932
1.82876
1.8272
1.82509
1.82209
1.81723
1.81102
1.80671
1.80546
1.80621
1.80868
1.81043
1.8151
1.82351
1.82585
1.82464
1.82247
1.81905
1.81186
1.79836
1.78342
1.77576
1.77345
1.77265
1.77409
1.78004
1.78875
1.79296
1.79269
1.79146
1.78962
1.78585
1.77952
1.77502
1.77359
1.77329
1.77705
1.78697
1.7909
1.78946
1.78626
1.78082
1.77122
1.76251
1.75998
1.75849
1.75752
1.75713
1.75618
1.75469
1.75378
1.75376
1.75527
1.75862
1.76339
1.76822
1.77215
1.77423
1.77451
1.77372
1.77126
1.76285
1.74931
1.74176
1.73999
1.74076
1.74536
1.74791
1.74677
1.74332
1.73722
1.73122
1.72826
1.72684
1.72668
1.72759
1.72911
1.73002
1.73011
1.72951
1.72872
1.72718
1.72244
1.71461
1.70961
1.70884
1.71081
1.71586
1.72177
1.72813
1.729
1.72715
1.72389
1.71839
1.70915
1.6973
1.68937
1.68668
1.68536
1.68491
1.68621
1.68991
1.69394
1.69797
1.70235
1.70447
1.70433
1.70282
1.69827
1.68781
1.67219
1.6622
1.66033
1.66046
1.66304
1.66683
1.66987
1.67175
1.67298
1.67521
1.68056
1.68509
1.68398
1.6823
1.67951
1.67425
1.66612
1.6561
1.64617
1.6386
1.63766
1.64004
1.65074
1.68522
1.75678
1.88317
2.05899
2.24589
2.39954
2.51816
2.61983
2.69409
2.70794
2.71254
2.69053
2.66376
2.6605
2.66301
2.66002
1.7278
1.72565
1.72299
1.71935
1.71636
1.71411
1.71197
1.71117
1.71231
1.7129
1.71032
1.70646
1.70239
1.69967
1.69742
1.69549
1.69279
1.68927
1.68552
1.68213
1.67951
1.67731
1.67668
1.68013
1.69003
1.71233
1.76031
1.8301
1.8934
1.94478
1.95954
1.97206
1.97629
1.97271
1.96697
1.96014
1.95578
1.95283
1.95256
1.95904
1.96712
1.96948
1.96653
1.96095
1.95305
1.94429
1.93775
1.93454
1.93404
1.93935
1.94888
1.95649
1.95847
1.95593
1.94923
1.93864
1.92699
1.91972
1.91716
1.91771
1.92012
1.92607
1.92924
1.92833
1.92534
1.92077
1.91442
1.90841
1.90501
1.90351
1.9048
1.90928
1.91231
1.91122
1.90873
1.90561
1.90142
1.89636
1.89228
1.88916
1.88582
1.88225
1.87835
1.87402
1.87051
1.86807
1.86626
1.86493
1.86391
1.86345
1.86483
1.86712
1.8661
1.86374
1.86126
1.85866
1.85565
1.85183
1.84895
1.84738
1.84678
1.8479
1.84823
1.84532
1.83968
1.83316
1.82896
1.82637
1.82467
1.82503
1.82904
1.83056
1.8307
1.83043
1.82937
1.8268
1.82193
1.81586
1.81159
1.80993
1.80972
1.81177
1.81729
1.82433
1.82556
1.82414
1.82233
1.82016
1.81544
1.8055
1.79144
1.78058
1.77647
1.77572
1.77888
1.78338
1.78757
1.79054
1.79071
1.78965
1.78851
1.7859
1.78051
1.77662
1.77537
1.77609
1.78369
1.79187
1.79182
1.78959
1.78597
1.77848
1.76654
1.76074
1.75889
1.75764
1.75728
1.75762
1.75712
1.75582
1.75504
1.75542
1.75811
1.76284
1.76659
1.76805
1.76896
1.77134
1.77404
1.77416
1.77266
1.76638
1.75429
1.7455
1.74314
1.74358
1.74748
1.74921
1.74777
1.7448
1.73978
1.73363
1.72956
1.72767
1.72669
1.72633
1.72631
1.72665
1.72763
1.72861
1.7289
1.72856
1.72631
1.7207
1.71575
1.71468
1.71578
1.71986
1.72343
1.72633
1.7265
1.72455
1.7214
1.71704
1.70999
1.6994
1.69042
1.68718
1.68602
1.68586
1.68733
1.68989
1.69252
1.69597
1.70156
1.70506
1.7048
1.70344
1.69994
1.69182
1.67774
1.66618
1.66317
1.66292
1.66493
1.66806
1.66978
1.6701
1.66996
1.67102
1.67609
1.68281
1.68311
1.68191
1.67988
1.67636
1.67015
1.65994
1.64544
1.63688
1.63608
1.63547
1.63593
1.64002
1.65493
1.69344
1.76833
1.90121
2.06855
2.24606
2.40034
2.5308
2.64031
2.67594
2.67982
2.65715
2.65389
2.6611
1.74256
1.73619
1.72933
1.72108
1.71679
1.71432
1.71402
1.71679
1.71976
1.71932
1.71669
1.71318
1.70984
1.70746
1.70642
1.70506
1.70234
1.6987
1.69389
1.68865
1.68499
1.6834
1.68465
1.69323
1.71644
1.76476
1.83337
1.91297
1.94684
1.95351
1.96866
1.98451
1.99291
1.98956
1.98296
1.97282
1.96175
1.95704
1.95582
1.96049
1.968
1.97289
1.97385
1.97155
1.96684
1.96002
1.95278
1.94706
1.94431
1.9439
1.9466
1.95189
1.96008
1.96372
1.96239
1.95814
1.95008
1.93734
1.92598
1.92149
1.92003
1.92128
1.92784
1.93278
1.93271
1.93043
1.9269
1.9209
1.91324
1.9086
1.90635
1.90639
1.9106
1.91419
1.91344
1.91165
1.90908
1.90514
1.89965
1.89493
1.89134
1.88843
1.88599
1.88346
1.8801
1.87723
1.87524
1.87366
1.87188
1.86983
1.86799
1.86701
1.86722
1.8659
1.8637
1.86186
1.8602
1.85891
1.85853
1.85924
1.86115
1.86288
1.86136
1.85721
1.84987
1.83843
1.83001
1.82689
1.82481
1.82373
1.82503
1.83039
1.83334
1.8345
1.83536
1.83528
1.83379
1.83021
1.82399
1.81746
1.81409
1.81298
1.81523
1.81853
1.82068
1.82152
1.82189
1.82169
1.82076
1.81867
1.81314
1.80371
1.79372
1.78653
1.78334
1.78282
1.7838
1.7843
1.78568
1.78763
1.78803
1.7873
1.7854
1.78149
1.77934
1.7788
1.78277
1.79195
1.79478
1.79322
1.79065
1.78586
1.77491
1.76264
1.75869
1.757
1.75608
1.75622
1.75781
1.7593
1.75978
1.76056
1.76237
1.76485
1.76617
1.76611
1.76558
1.76529
1.7675
1.77287
1.77493
1.77433
1.77026
1.76062
1.75083
1.74727
1.7468
1.74913
1.74972
1.74804
1.74576
1.74203
1.73651
1.73089
1.72775
1.72611
1.72481
1.72393
1.72342
1.72412
1.72714
1.7295
1.73023
1.72976
1.72691
1.7233
1.72163
1.72151
1.72275
1.72328
1.72331
1.72299
1.7214
1.71918
1.71618
1.7109
1.70197
1.69257
1.68843
1.68725
1.68695
1.68768
1.68933
1.69127
1.6945
1.70096
1.70511
1.70471
1.70345
1.70077
1.6946
1.68249
1.66994
1.66556
1.66492
1.66573
1.66721
1.66773
1.66733
1.66701
1.66852
1.67403
1.68146
1.68251
1.68124
1.67959
1.67707
1.67223
1.66202
1.64623
1.63677
1.63497
1.63472
1.63537
1.63781
1.64297
1.6518
1.66902
1.70398
1.78008
1.90852
2.06972
2.25103
2.4067
2.55717
2.62871
2.62993
2.64944
1.74599
1.73506
1.72403
1.71973
1.71864
1.7205
1.72661
1.72988
1.72796
1.72447
1.71941
1.71581
1.71325
1.71275
1.71485
1.71412
1.71166
1.70841
1.70402
1.69842
1.69538
1.69571
1.70116
1.72089
1.76904
1.84168
1.92046
1.95605
1.97383
1.98015
1.98607
1.99101
1.99335
1.99429
1.99198
1.98738
1.97947
1.97115
1.96675
1.96431
1.96467
1.96797
1.97363
1.9779
1.97844
1.97568
1.97111
1.96421
1.95626
1.95123
1.9488
1.94867
1.9534
1.96423
1.96966
1.96899
1.96542
1.95796
1.9438
1.9298
1.9242
1.92214
1.92412
1.9325
1.93762
1.9369
1.93443
1.93084
1.9243
1.91585
1.9111
1.90859
1.90829
1.91299
1.91656
1.91518
1.91233
1.9086
1.90314
1.89781
1.89482
1.89248
1.89115
1.89161
1.8912
1.88908
1.88692
1.88416
1.88037
1.87608
1.8722
1.86956
1.86755
1.86635
1.86541
1.86433
1.86368
1.86376
1.8645
1.86667
1.87066
1.87209
1.87031
1.86725
1.8623
1.85303
1.83991
1.83081
1.82721
1.82525
1.82504
1.82757
1.83219
1.83536
1.83709
1.83833
1.83917
1.83875
1.83633
1.83121
1.82494
1.82032
1.81799
1.81722
1.8169
1.81607
1.81586
1.81778
1.82141
1.82311
1.82321
1.82112
1.81653
1.80896
1.79824
1.78835
1.7841
1.78251
1.78152
1.78152
1.78402
1.78668
1.78714
1.78648
1.78542
1.78522
1.7875
1.79393
1.79738
1.79616
1.7938
1.7906
1.78401
1.77131
1.76063
1.75726
1.75572
1.75501
1.75628
1.7601
1.76448
1.76794
1.76995
1.76964
1.76702
1.76445
1.76321
1.76248
1.76215
1.76488
1.77223
1.77644
1.77676
1.77458
1.76754
1.75698
1.75105
1.74935
1.74951
1.74966
1.74845
1.7468
1.7443
1.7396
1.7324
1.72685
1.7245
1.72295
1.7218
1.72116
1.72156
1.72518
1.72982
1.7323
1.73358
1.73319
1.73156
1.72909
1.72581
1.72338
1.72174
1.72034
1.71974
1.71947
1.71816
1.71595
1.71198
1.70498
1.69586
1.68991
1.68812
1.68746
1.68754
1.68851
1.68995
1.6932
1.70046
1.70489
1.70415
1.70308
1.70109
1.69633
1.6857
1.67225
1.66637
1.66542
1.66522
1.66536
1.6652
1.66489
1.66553
1.66823
1.67325
1.6795
1.68139
1.68016
1.67865
1.67661
1.67244
1.66306
1.64797
1.63779
1.63567
1.63509
1.63591
1.63973
1.64603
1.65102
1.65267
1.65602
1.66797
1.70244
1.78279
1.90438
2.07315
2.25551
2.41806
2.55437
1.73833
1.7293
1.72504
1.72353
1.72752
1.73542
1.73952
1.73734
1.7328
1.72645
1.72123
1.71869
1.71778
1.7209
1.72351
1.72159
1.71852
1.71456
1.71095
1.70831
1.70961
1.71561
1.73446
1.77912
1.85705
1.91828
1.9699
1.99878
2.00474
2.0029
1.99611
1.99213
1.99136
1.99701
2.0023
2.00043
1.99542
1.98719
1.97722
1.97099
1.96815
1.96828
1.97262
1.98011
1.98643
1.98782
1.98493
1.9797
1.97082
1.95997
1.95375
1.9511
1.95165
1.95858
1.96987
1.97345
1.97181
1.96803
1.96008
1.94566
1.93256
1.92744
1.92583
1.93067
1.93954
1.94112
1.93902
1.93639
1.93234
1.92477
1.91726
1.91343
1.91129
1.91283
1.91846
1.91793
1.91483
1.91057
1.9046
1.89963
1.897
1.89489
1.89387
1.89554
1.89975
1.90168
1.90053
1.89757
1.89248
1.88519
1.87773
1.87282
1.86989
1.8674
1.86576
1.86564
1.86628
1.86731
1.86894
1.87144
1.8749
1.8765
1.87512
1.87282
1.8697
1.86477
1.85643
1.84503
1.83567
1.83086
1.82854
1.82854
1.83106
1.83341
1.83539
1.83757
1.84001
1.84207
1.8429
1.84114
1.83765
1.83236
1.8255
1.81961
1.81664
1.81463
1.81321
1.81261
1.81472
1.82156
1.82675
1.82872
1.82761
1.82467
1.819
1.80802
1.79303
1.78367
1.78093
1.7797
1.77923
1.78115
1.78622
1.78937
1.79075
1.79223
1.79499
1.79779
1.79822
1.79684
1.79474
1.79201
1.78831
1.78149
1.77042
1.761
1.75705
1.75549
1.75526
1.75923
1.76724
1.77413
1.77612
1.77533
1.77119
1.76457
1.76138
1.76025
1.75964
1.75994
1.76432
1.7729
1.77837
1.77921
1.77798
1.77275
1.76259
1.75446
1.75156
1.75034
1.75014
1.7494
1.74785
1.74575
1.74139
1.73283
1.72542
1.72274
1.72121
1.72006
1.71946
1.72009
1.72416
1.73016
1.73461
1.73783
1.73924
1.73879
1.73515
1.72714
1.72145
1.71946
1.71813
1.71775
1.71894
1.71832
1.71646
1.71367
1.70858
1.70017
1.69193
1.68867
1.68773
1.68731
1.68753
1.68841
1.69167
1.69914
1.70379
1.7033
1.70247
1.70101
1.69731
1.68802
1.67409
1.66629
1.66473
1.664
1.66356
1.66339
1.66399
1.66612
1.66902
1.67207
1.67579
1.67871
1.67867
1.67696
1.67483
1.67127
1.6638
1.65093
1.63994
1.63663
1.63632
1.63827
1.64283
1.64837
1.64979
1.64933
1.64839
1.64832
1.65146
1.66567
1.70482
1.78183
1.89588
2.14414
1.74221
1.73699
1.7348
1.73659
1.74143
1.74318
1.7416
1.73785
1.73312
1.72988
1.72761
1.72682
1.7296
1.73298
1.73119
1.72692
1.7208
1.71655
1.71513
1.71733
1.72721
1.74819
1.79437
1.86894
1.93113
1.97454
2.01282
2.02043
2.01862
2.01579
2.00975
2.00406
2.00137
2.00156
2.00416
2.00638
2.00403
1.99965
1.99283
1.98428
1.97814
1.97516
1.97426
1.97715
1.98512
1.99269
1.99322
1.98967
1.98357
1.9737
1.96323
1.95804
1.95591
1.95807
1.96491
1.97186
1.97297
1.97029
1.96656
1.95919
1.94781
1.93878
1.93496
1.93419
1.93965
1.94351
1.94185
1.93939
1.93618
1.93073
1.92485
1.92138
1.91938
1.91979
1.92375
1.92294
1.91952
1.91413
1.90664
1.90159
1.89903
1.89689
1.89577
1.89804
1.90428
1.90946
1.91139
1.91023
1.90701
1.90066
1.88989
1.87859
1.87271
1.86972
1.86748
1.86627
1.86758
1.87059
1.8728
1.87447
1.8763
1.87796
1.87746
1.87582
1.87357
1.87049
1.86611
1.85972
1.85166
1.84392
1.83795
1.83438
1.83309
1.83389
1.83491
1.83547
1.83676
1.8405
1.8451
1.84701
1.8456
1.84272
1.83779
1.82943
1.81997
1.81521
1.81311
1.81165
1.8112
1.81403
1.8231
1.83047
1.83122
1.82972
1.82724
1.82295
1.81363
1.79829
1.78551
1.7804
1.77881
1.77869
1.78153
1.78859
1.79418
1.79808
1.80077
1.79992
1.79785
1.79583
1.7934
1.79079
1.78824
1.7855
1.78038
1.77224
1.76411
1.7599
1.75881
1.7613
1.76917
1.77567
1.77774
1.77761
1.7758
1.77008
1.76219
1.75883
1.75788
1.75773
1.75989
1.7656
1.77345
1.77939
1.78024
1.77917
1.77562
1.76796
1.76081
1.7565
1.75363
1.75158
1.7499
1.74823
1.74597
1.74097
1.73145
1.72393
1.72126
1.71979
1.71875
1.71839
1.72019
1.72539
1.73226
1.73823
1.74176
1.74272
1.74192
1.73669
1.72568
1.71922
1.71747
1.71639
1.71669
1.71917
1.71927
1.71799
1.71591
1.7121
1.70486
1.69492
1.68907
1.68749
1.68664
1.68629
1.68652
1.68921
1.69607
1.70198
1.7025
1.70176
1.70087
1.69821
1.6903
1.67648
1.66664
1.66409
1.66312
1.66247
1.66298
1.66512
1.66746
1.66912
1.66993
1.67064
1.67236
1.67475
1.67442
1.6727
1.67042
1.66564
1.65625
1.64462
1.63914
1.63866
1.64016
1.64402
1.64757
1.64723
1.64616
1.64592
1.64609
1.64698
1.64919
1.65406
1.66608
1.74031
1.75188
1.75078
1.75142
1.75355
1.75087
1.74667
1.74244
1.73852
1.73616
1.73468
1.73526
1.73976
1.74277
1.74048
1.73519
1.72711
1.7205
1.7182
1.71905
1.72945
1.7539
1.80303
1.87222
1.94376
1.99187
2.01148
2.01803
2.02526
2.03347
2.03503
2.03122
2.0212
2.0089
2.00338
2.00141
2.00604
2.01179
2.0105
2.00675
2.00082
1.99214
1.98497
1.98135
1.97995
1.98342
1.9913
1.99667
1.99567
1.99204
1.98637
1.97831
1.97063
1.96606
1.9638
1.96442
1.96581
1.96724
1.96909
1.96813
1.96552
1.96123
1.95546
1.95037
1.94685
1.94502
1.94504
1.94357
1.94089
1.93773
1.93411
1.93151
1.92971
1.92911
1.93142
1.93428
1.9322
1.92849
1.92251
1.91298
1.90564
1.90239
1.90012
1.8989
1.90095
1.90694
1.9124
1.91618
1.91861
1.91801
1.91493
1.9079
1.89453
1.88045
1.87385
1.87108
1.86925
1.86971
1.87347
1.87619
1.87697
1.87706
1.87742
1.87766
1.87683