/*--------------------------------*- C++ -*----------------------------------*\
  =========                 |
  \\      /  F ield         | OpenFOAM: The Open Source CFD Toolbox
   \\    /   O peration     | Website:  https://openfoam.org
    \\  /    A nd           | Version:  7
     \\/     M anipulation  |
\*---------------------------------------------------------------------------*/
FoamFile
{
    version     2.0;
    format      ascii;
    class       volScalarField;
    location    "1.6";
    object      T;
}
// * * * * * * * * * * * * * * * * * * * * * * * * * * * * * * * * * * * * * //

dimensions      [0 0 0 1 0 0 0];

internalField   nonuniform List<scalar> 
16192
(
1
1
1
1
1
1
1
1
1
1
1
1
1
1
1
1
1
1
1
1
1
1
1
1
1
1
1
1
1
1
1
1
1
1
1
1
1
1
1
1
1
1
1
1
1
1
1
1
1
1
1
1
1
1
1
1
1
1
1
1
1
1
1
1
1
1
1
1
1
1
1
1
1
1
1
1
1
1
1
1
1
1
1
1
1
1
1
1
1
1
1
1
1
1
1
1
1
1
1
1
1
1
1
1
1
1
1
1
1
1
1
1
1
1
1
1
1
1
1
1
1
1
1
1
1
1
1
1
1
1
1
1
1
1
1
1
1
1
1
1
1
1
1
1
2.27974
2.67925
2.69508
2.70235
2.70953
2.71572
2.72108
2.72501
2.72732
2.72833
2.72895
2.72999
2.73237
2.73699
2.74377
2.75142
2.75794
2.76184
2.76308
2.763
2.76253
2.76209
2.76235
2.76428
2.76854
2.77387
2.77834
2.78102
2.7822
2.78293
2.78407
2.78619
2.78922
2.79244
2.7951
2.79705
2.79858
2.80018
2.80225
2.8047
2.80694
2.80857
2.80964
2.81034
2.81099
2.81165
2.81217
2.8124
1
1
1
1
1
1
1
1
1
1
1
1
1
1
1
1
1
1
1
1
1
1
1
1
1
1
1
1
1
1
1
1
1
1
1
1
1
1
1
1
1
1
1
1
1
1
1
1
1
1
1
1
1
1
1
1
1
1
1
1
1
1
1
1
1
1
1
1
1
1
1
1
1
1
1
1
1
1
1
1
1
1
1
1
1
1
1
1
1
1
1
1
1
1
1
1
1
1
1
1
1
1
1
1
1
1
1
1
1
1
1
1
1
1
1
1
1
1
1
1
1
1
1
1
1
1
1
1
1
1
1
1
1
1
1
1
1
1
1
1
1
1
1
1
2.27496
2.67868
2.69504
2.70251
2.70961
2.71577
2.7211
2.72501
2.7273
2.72827
2.72882
2.72985
2.73226
2.73689
2.74369
2.75134
2.75783
2.76165
2.76286
2.7628
2.76239
2.76201
2.76232
2.76426
2.76846
2.77371
2.77817
2.78087
2.78208
2.78283
2.78397
2.78605
2.78904
2.79223
2.7949
2.79684
2.79836
2.79996
2.80202
2.80449
2.80675
2.80839
2.80944
2.81012
2.81075
2.81141
2.81195
2.81219
1
1
1
1
1
1
1
1
1
1
1
1
1
1
1
1
1
1
1
1
1
1
1
1
1
1
1
1
1
1
1
1
1
1
1
1
1
1
1
1
1
1
1
1
1
1
1
1
1
1
1
1
1
1
1
1
1
1
1
1
1
1
1
1
1
1
1
1
1
1
1
1
1
1
1
1
1
1
1
1
1
1
1
1
1
1
1
1
1
1
1
1
1
1
1
1
1
1
1
1
1
1
1
1
1
1
1
1
1
1
1
1
1
1
1
1
1
1
1
1
1
1
1
1
1
1
1
1
1
1
1
1
1
1
1
1
1
1
1
1
1
1
1
1
2.26402
2.67802
2.6949
2.70265
2.70975
2.71593
2.72119
2.72503
2.7273
2.72825
2.72876
2.72974
2.73211
2.73669
2.74343
2.75104
2.75753
2.76137
2.7626
2.76252
2.76216
2.76187
2.76224
2.76417
2.76828
2.77342
2.77785
2.78056
2.78181
2.78261
2.78377
2.78583
2.78878
2.79193
2.79457
2.79649
2.79801
2.79962
2.80171
2.8042
2.80648
2.80811
2.80913
2.80976
2.81037
2.81103
2.81159
2.81187
1
1
1
1
1
1
1
1
1
1
1
1
1
1
1
1
1
1
1
1
1
1
1
1
1
1
1
1
1
1
1
1
1
1
1
1
1
1
1
1
1
1
1
1
1
1
1
1
1
1
1
1
1
1
1
1
1
1
1
1
1
1
1
1
1
1
1
1
1
1
1
1
1
1
1
1
1
1
1
1
1
1
1
1
1
1
1
1
1
1
1
1
1
1
1
1
1
1
1
1
1
1
1
1
1
1
1
1
1
1
1
1
1
1
1
1
1
1
1
1
1
1
1
1
1
1
1
1
1
1
1
1
1
1
1
1
1
1
1
1
1
1
1
1
2.248
2.67691
2.69473
2.70275
2.70992
2.71618
2.72142
2.7252
2.72742
2.72834
2.7288
2.72972
2.73197
2.73635
2.74287
2.75036
2.7569
2.76091
2.76231
2.76228
2.76196
2.76176
2.76214
2.76397
2.76792
2.77292
2.77735
2.78011
2.78142
2.78226
2.78344
2.78546
2.78836
2.79147
2.79408
2.79597
2.79748
2.79912
2.80125
2.80377
2.80607
2.80769
2.80865
2.80923
2.80981
2.81047
2.81105
2.81137
1
1
1
1
1
1
1
1
1
1
1
1
1
1
1
1
1
1
1
1
1
1
1
1
1
1
1
1
1
1
1
1
1
1
1
1
1
1
1
1
1
1
1
1
1
1
1
1
1
1
1
1
1
1
1
1
1
1
1
1
1
1
1
1
1
1
1
1
1
1
1
1
1
1
1
1
1
1
1
1
1
1
1
1
1
1
1
1
1
1
1
1
1
1
1
1
1
1
1
1
1
1
1
1
1
1
1
1
1
1
1
1
1
1
1
1
1
1
1
1
1
1
1
1
1
1
1
1
1
1
1
1
1
1
1
1
1
1
1
1
1
1
1
1
2.22711
2.67566
2.69429
2.70246
2.70987
2.7163
2.72165
2.7255
2.72771
2.72862
2.72905
2.72987
2.73193
2.73592
2.74199
2.74921
2.75583
2.76021
2.76197
2.76211
2.76183
2.76165
2.76197
2.76362
2.76732
2.77218
2.77665
2.77951
2.78092
2.78179
2.78296
2.78495
2.78779
2.79086
2.79344
2.79531
2.79681
2.79848
2.80066
2.80323
2.80553
2.80713
2.80803
2.80855
2.80908
2.80975
2.81037
2.81071
1
1
1
1
1
1
1
1
1
1
1
1
1
1
1
1
1
1
1
1
1
1
1
1
1
1
1
1
1
1
1
1
1
1
1
1
1
1
1
1
1
1
1
1
1
1
1
1
1
1
1
1
1
1
1
1
1
1
1
1
1
1
1
1
1
1
1
1
1
1
1
1
1
1
1
1
1
1
1
1
1
1
1
1
1
1
1
1
1
1
1
1
1
1
1
1
1
1
1
1
1
1
1
1
1
1
1
1
1
1
1
1
1
1
1
1
1
1
1
1
1
1
1
1
1
1
1
1
1
1
1
1
1
1
1
1
1
1
1
1
1
1
1
1
2.20081
2.67471
2.69337
2.70161
2.70942
2.71613
2.7217
2.72575
2.72815
2.72915
2.72957
2.73026
2.73201
2.73547
2.74088
2.74766
2.75431
2.75918
2.76152
2.76199
2.76173
2.76154
2.76174
2.7631
2.76648
2.77116
2.77569
2.77873
2.78028
2.7812
2.78235
2.78428
2.78705
2.79009
2.79265
2.79451
2.79601
2.7977
2.79994
2.80254
2.80485
2.80643
2.80726
2.80771
2.80821
2.80888
2.80953
2.80987
1
1
1
1
1
1
1
1
1
1
1
1
1
1
1
1
1
1
1
1
1
1
1
1
1
1
1
1
1
1
1
1
1
1
1
1
1
1
1
1
1
1
1
1
1
1
1
1
1
1
1
1
1
1
1
1
1
1
1
1
1
1
1
1
1
1
1
1
1
1
1
1
1
1
1
1
1
1
1
1
1
1
1
1
1
1
1
1
1
1
1
1
1
1
1
1
1
1
1
1
1
1
1
1
1
1
1
1
1
1
1
1
1
1
1
1
1
1
1
1
1
1
1
1
1
1
1
1
1
1
1
1
1
1
1
1
1
1
1
1
1
1
1
1
2.16835
2.67424
2.69193
2.70008
2.70822
2.71539
2.72139
2.7258
2.72853
2.72983
2.73036
2.73095
2.73233
2.73514
2.73972
2.74585
2.7524
2.75775
2.7608
2.76179
2.7616
2.76137
2.76144
2.76245
2.76541
2.76985
2.77444
2.7777
2.77947
2.78044
2.78157
2.78341
2.7861
2.78908
2.79164
2.7935
2.79502
2.79674
2.79902
2.80163
2.80395
2.80552
2.80632
2.80674
2.80725
2.80794
2.80858
2.80891
1
1
1
1
1
1
1
1
1
1
1
1
1
1
1
1
1
1
1
1
1
1
1
1
1
1
1
1
1
1
1
1
1
1
1
1
1
1
1
1
1
1
1
1
1
1
1
1
1
1
1
1
1
1
1
1
1
1
1
1
1
1
1
1
1
1
1
1
1
1
1
1
1
1
1
1
1
1
1
1
1
1
1
1
1
1
1
1
1
1
1
1
1
1
1
1
1
1
1
1
1
1
1
1
1
1
1
1
1
1
1
1
1
1
1
1
1
1
1
1
1
1
1
1
1
1
1
1
1
1
1
1
1
1
1
1
1
1
1
1
1
1
1
1
2.12882
2.67403
2.69013
2.69784
2.70606
2.71362
2.72026
2.72537
2.72866
2.73043
2.73124
2.73182
2.73286
2.73501
2.73869
2.74398
2.7502
2.75591
2.75972
2.76136
2.76135
2.76112
2.76106
2.7617
2.76418
2.76829
2.7729
2.77641
2.77844
2.77952
2.78063
2.78238
2.78496
2.78789
2.79045
2.79233
2.79387
2.79562
2.79792
2.80053
2.80285
2.80442
2.80521
2.80564
2.80618
2.80687
2.80747
2.80778
1
1
1
1
1
1
1
1
1
1
1
1
1
1
1
1
1
1
1
1
1
1
1
1
1
1
1
1
1
1
1
1
1
1
1
1
1
1
1
1
1
1
1
1
1
1
1
1
1
1
1
1
1
1
1
1
1
1
1
1
1
1
1
1
1
1
1
1
1
1
1
1
1
1
1
1
1
1
1
1
1
1
1
1
1
1
1
1
1
1
1
1
1
1
1
1
1
1
1
1
1
1
1
1
1
1
1
1
1
1
1
1
1
1
1
1
1
1
1
1
1
1
1
1
1
1
1
1
1
1
1
1
1
1
1
1
1
1
1
1
1
1
1
1
2.0814
2.67342
2.68811
2.69506
2.70302
2.71086
2.71811
2.72411
2.7283
2.7307
2.73195
2.73266
2.73349
2.73506
2.73786
2.74221
2.74785
2.75366
2.75815
2.76056
2.76096
2.76075
2.76057
2.7609
2.76285
2.76656
2.77112
2.77487
2.77719
2.77842
2.77954
2.7812
2.78368
2.78654
2.7891
2.79101
2.79257
2.79433
2.79661
2.79921
2.80154
2.80312
2.80394
2.8044
2.80497
2.80566
2.80622
2.80652
1
1
1
1
1
1
1
1
1
1
1
1
1
1
1
1
1
1
1
1
1
1
1
1
1
1
1
1
1
1
1
1
1
1
1
1
1
1
1
1
1
1
1
1
1
1
1
1
1
1
1
1
1
1
1
1
1
1
1
1
1
1
1
1
1
1
1
1
1
1
1
1
1
1
1
1
1
1
1
1
1
1
1
1
1
1
1
1
1
1
1
1
1
1
1
1
1
1
1
1
1
1
1
1
1
1
1
1
1
1
1
1
1
1
1
1
1
1
1
1
1
1
1
1
1
1
1
1
1
1
1
1
1
1
1
1
1
1
1
1
1
1
1
1
2.02523
2.67128
2.68599
2.692
2.69935
2.70725
2.71504
2.72193
2.72721
2.73052
2.73226
2.7332
2.73399
2.73519
2.73731
2.74072
2.74556
2.75116
2.75611
2.75926
2.76026
2.76011
2.7599
2.75997
2.76141
2.76467
2.76911
2.77307
2.7757
2.77711
2.77826
2.77987
2.78224
2.78505
2.78761
2.78955
2.79111
2.79285
2.7951
2.79767
2.80001
2.80163
2.8025
2.80299
2.80357
2.80425
2.80479
2.80509
1
1
1
1
1
1
1
1
1
1
1
1
1
1
1
1
1
1
1
1
1
1
1
1
1
1
1
1
1
1
1
1
1
1
1
1
1
1
1
1
1
1
1
1
1
1
1
1
1
1
1
1
1
1
1
1
1
1
1
1
1
1
1
1
1
1
1
1
1
1
1
1
1
1
1
1
1
1
1
1
1
1
1
1
1
1
1
1
1
1
1
1
1
1
1
1
1
1
1
1
1
1
1
1
1
1
1
1
1
1
1
1
1
1
1
1
1
1
1
1
1
1
1
1
1
1
1
1
1
1
1
1
1
1
1
1
1
1
1
1
1
1
1
1
1.95927
2.66551
2.68407
2.68902
2.69557
2.70319
2.71136
2.71899
2.72531
2.72967
2.73206
2.73328
2.73415
2.73517
2.7368
2.73941
2.74336
2.7485
2.75367
2.75753
2.75928
2.75933
2.75914
2.75898
2.75998
2.76272
2.76693
2.77101
2.77392
2.77554
2.77677
2.77834
2.78064
2.7834
2.78597
2.78793
2.78949
2.79117
2.79335
2.7959
2.79828
2.79996
2.80089
2.80142
2.80199
2.80265
2.80321
2.80353
1
1
1
1
1
1
1
1
1
1
1
1
1
1
1
1
1
1
1
1
1
1
1
1
1
1
1
1
1
1
1
1
1
1
1
1
1
1
1
1
1
1
1
1
1
1
1
1
1
1
1
1
1
1
1
1
1
1
1
1
1
1
1
1
1
1
1
1
1
1
1
1
1
1
1
1
1
1
1
1
1
1
1
1
1
1
1
1
1
1
1
1
1
1
1
1
1
1
1
1
1
1
1
1
1
1
1
1
1
1
1
1
1
1
1
1
1
1
1
1
1
1
1
1
1
1
1
1
1
1
1
1
1
1
1
1
1
1
1
1
1
1
1
1
1.88221
2.65348
2.68269
2.68666
2.69247
2.69961
2.70768
2.71564
2.72264
2.72802
2.73143
2.73326
2.73434
2.73527
2.73654
2.73844
2.74145
2.74581
2.75083
2.75511
2.75764
2.75811
2.75799
2.75775
2.75844
2.7607
2.76459
2.76871
2.77187
2.77374
2.77508
2.77664
2.77885
2.78156
2.78414
2.78615
2.7877
2.78931
2.7914
2.79392
2.79634
2.79811
2.79911
2.79965
2.8002
2.80085
2.80144
2.80181
1
1
1
1
1
1
1
1
1
1
1
1
1
1
1
1
1
1
1
1
1
1
1
1
1
1
1
1
1
1
1
1
1
1
1
1
1
1
1
1
1
1
1
1
1
1
1
1
1
1
1
1
1
1
1
1
1
1
1
1
1
1
1
1
1
1
1
1
1
1
1
1
1
1
1
1
1
1
1
1
1
1
1
1
1
1
1
1
1
1
1
1
1
1
1
1
1
1
1
1
1
1
1
1
1
1
1
1
1
1
1
1
1
1
1
1
1
1
1
1
1
1
1
1
1
1
1
1
1
1
1
1
1
1
1
1
1
1
1
1
1
1
1
1
1.79415
2.63396
2.68208
2.68506
2.69033
2.69697
2.70462
2.7124
2.71948
2.72535
2.72962
2.73226
2.73374
2.73477
2.73586
2.73733
2.73963
2.74323
2.74785
2.7523
2.75552
2.75661
2.7567
2.7565
2.75695
2.75873
2.76217
2.76619
2.76954
2.77169
2.77318
2.77474
2.77686
2.77948
2.78208
2.78414
2.7857
2.78725
2.78925
2.79172
2.79418
2.79603
2.7971
2.79767
2.79819
2.79886
2.7995
2.79991
1
1
1
1
1
1
1
1
1
1
1
1
1
1
1
1
1
1
1
1
1
1
1
1
1
1
1
1
1
1
1
1
1
1
1
1
1
1
1
1
1
1
1
1
1
1
1
1
1
1
1
1
1
1
1
1
1
1
1
1
1
1
1
1
1
1
1
1
1
1
1
1
1
1
1
1
1
1
1
1
1
1
1
1
1
1
1
1
1
1
1
1
1
1
1
1
1
1
1
1
1
1
1
1
1
1
1
1
1
1
1
1
1
1
1
1
1
1
1
1
1
1
1
1
1
1
1
1
1
1
1
1
1
1
1
1
1
1
1
1
1
1
1
1
1.69462
2.60689
2.68212
2.68416
2.68903
2.69501
2.70194
2.70916
2.71593
2.72186
2.72671
2.7302
2.73238
2.73377
2.73492
2.73621
2.73799
2.74084
2.74485
2.7492
2.75287
2.7547
2.75522
2.75512
2.7554
2.75675
2.75967
2.76347
2.76696
2.7694
2.7711
2.7727
2.7747
2.77719
2.77974
2.78185
2.78346
2.78498
2.78691
2.78933
2.79181
2.79373
2.79486
2.79545
2.79598
2.79667
2.79734
2.79777
1
1
1
1
1
1
1
1
1
1
1
1
1
1
1
1
1
1
1
1
1
1
1
1
1
1
1
1
1
1
1
1
1
1
1
1
1
1
1
1
1
1
1
1
1
1
1
1
1
1
1
1
1
1
1
1
1
1
1
1
1
1
1
1
1
1
1
1
1
1
1
1
1
1
1
1
1
1
1
1
1
1
1
1
1
1
1
1
1
1
1
1
1
1
1
1
1
1
1
1
1
1
1
1
1
1
1
1
1
1
1
1
1
1
1
1
1
1
1
1
1
1
1
1
1
1
1
1
1
1
1
1
1
1
1
1
1
1
1
1
1
1
1
1
1.5796
2.5704
2.68216
2.68345
2.68811
2.69338
2.69937
2.70571
2.71192
2.71765
2.72273
2.72691
2.72995
2.73199
2.73347
2.7348
2.73629
2.73853
2.74187
2.74592
2.74982
2.75238
2.75345
2.75359
2.75379
2.75477
2.75715
2.76064
2.76418
2.7669
2.76882
2.77047
2.77236
2.77467
2.77711
2.77924
2.78091
2.78247
2.78437
2.78674
2.7892
2.79115
2.79234
2.79298
2.79355
2.79428
2.79495
2.79536
1
1
1
1
1
1
1
1
1
1
1
1
1
1
1
1
1
1
1
1
1
1
1
1
1
1
1
1
1
1
1
1
1
1
1
1
1
1
1
1
1
1
1
1
1
1
1
1
1
1
1
1
1
1
1
1
1
1
1
1
1
1
1
1
1
1
1
1
1
1
1
1
1
1
1
1
1
1
1
1
1
1
1
1
1
1
1
1
1
1
1
1
1
1
1
1
1
1
1
1
1
1
1
1
1
1
1
1
1
1
1
1
1
1
1
1
1
1
1
1
1
1
1
1
1
1
1
1
1
1
1
1
1
1
1
1
1
1
1
1
1
1
1
1
1.45099
2.52406
2.68188
2.6825
2.68697
2.69131
2.69635
2.70187
2.70758
2.7131
2.71819
2.72274
2.72653
2.72934
2.73133
2.73291
2.73436
2.7362
2.73897
2.74261
2.74648
2.7496
2.75129
2.75182
2.75202
2.75277
2.75465
2.75776
2.76124
2.76417
2.76631
2.76804
2.76983
2.77194
2.77422
2.77632
2.77807
2.7797
2.78162
2.78394
2.78635
2.7883
2.78954
2.79025
2.79089
2.79163
2.79226
2.79262
1
1
1
1
1
1
1
1
1
1
1
1
1
1
1
1
1
1
1
1
1
1
1
1
1
1
1
1
1
1
1
1
1
1
1
1
1
1
1
1
1
1
1
1
1
1
1
1
1
1
1
1
1
1
1
1
1
1
1
1
1
1
1
1
1
1
1
1
1
1
1
1
1
1
1
1
1
1
1
1
1
1
1
1
1
1
1
1
1
1
1
1
1
1
1
1
1
1
1
1
1
1
1
1
1
1
1
1
1
1
1
1
1
1
1
1
1
1
1
1
1
1
1
1
1
1
1
1
1
1
1
1
1
1
1
1
1
1
1
1
1
1
1
1
1.3142
2.46656
2.68192
2.68094
2.68483
2.68854
2.69293
2.69775
2.70291
2.70813
2.71317
2.71798
2.72234
2.72588
2.72851
2.73051
2.73213
2.73382
2.73617
2.73936
2.74302
2.74645
2.74868
2.74969
2.75002
2.75066
2.75215
2.75486
2.75817
2.76121
2.76355
2.76537
2.7671
2.76901
2.77109
2.77311
2.7749
2.77661
2.77857
2.78086
2.78319
2.78514
2.78643
2.78723
2.78797
2.78872
2.78926
2.78956
1
1
1
1
1
1
1
1
1
1
1
1
1
1
1
1
1
1
1
1
1
1
1
1
1
1
1
1
1
1
1
1
1
1
1
1
1
1
1
1
1
1
1
1
1
1
1
1
1
1
1
1
1
1
1
1
1
1
1
1
1
1
1
1
1
1
1
1
1
1
1
1
1
1
1
1
1
1
1
1
1
1
1
1
1
1
1
1
1
1
1
1
1
1
1
1
1
1
1
1
1
1
1
1
1
1
1
1
1
1
1
1
1
1
1
1
1
1
1
1
1
1
1
1
1
1
1
1
1
1
1
1
1
1
1
1
1
1
1
1
1
1
1
1
1.17921
2.40166
2.68108
2.68006
2.68304
2.68622
2.69012
2.69442
2.69903
2.70376
2.70852
2.7133
2.71797
2.72206
2.72528
2.72775
2.72966
2.73138
2.73347
2.73626
2.73957
2.74302
2.74561
2.7471
2.74768
2.74833
2.74959
2.75193
2.75501
2.75805
2.76051
2.76242
2.76411
2.76585
2.76774
2.76963
2.77143
2.77321
2.77521
2.77747
2.77975
2.7817
2.78304
2.78392
2.78473
2.78543
2.78586
2.78607
1
1
1
1
1
1
1
1
1
1
1
1
1
1
1
1
1
1
1
1
1
1
1
1
1
1
1
1
1
1
1
1
1
1
1
1
1
1
1
1
1
1
1
1
1
1
1
1
1
1
1
1
1
1
1
1
1
1
1
1
1
1
1
1
1
1
1
1
1
1
1
1
1
1
1
1
1
1
1
1
1
1
1
1
1
1
1
1
1
1
1
1
1
1
1
1
1
1
1
1
1
1
1
1
1
1
1
1
1
1
1
1
1
1
1
1
1
1
1
1
1
1
1
1
1
1
1
1
1
1
1
1
1
1
1
1
1
1
1
1
1
1
1
1
1.05249
2.33593
2.68083
2.68073
2.68272
2.68603
2.68997
2.69397
2.69792
2.70184
2.70581
2.70994
2.71432
2.71847
2.72201
2.72486
2.72711
2.72897
2.73093
2.73338
2.73628
2.7395
2.74221
2.74409
2.745
2.74576
2.74691
2.74894
2.75173
2.75467
2.75718
2.75916
2.76083
2.76245
2.76416
2.76593
2.76767
2.76946
2.77148
2.7737
2.77592
2.77788
2.77929
2.78025
2.7811
2.78175
2.78208
2.78222
1
1
1
1
1
1
1
1
1
1
1
1
1
1
1
1
1
1
1
1
1
1
1
1
1
1
1
1
1
1
1
1
1
1
1
1
1
1
1
1
1
1
1
1
1
1
1
1
1
1
1
1
1
1
1
1
1
1
1
1
1
1
1
1
1
1
1
1
1
1
1
1
1
1
1
1
1
1
1
1
1
1
1
1
1
1
1
1
1
1
1
1
1
1
1
1
1
1
1
1
1
1
1
1
1
1
1
1
1
1
1
1
1
1
1
1
1
1
1
1
1
1
1
1
1
1
1
1
1
1
1
1
1
1
1
1
1
1
1
1
1
1
1
1
1.00146
2.25395
2.68147
2.68191
2.68369
2.68683
2.69015
2.69354
2.69691
2.70029
2.70376
2.70742
2.71145
2.71549
2.71914
2.72225
2.72475
2.72678
2.72866
2.73081
2.73327
2.73606
2.73869
2.74077
2.74201
2.74293
2.74404
2.74581
2.74829
2.75104
2.75354
2.75558
2.75725
2.75879
2.76035
2.76196
2.76362
2.76537
2.76737
2.76956
2.77175
2.77371
2.77517
2.77618
2.77699
2.77755
2.77779
2.77785
1
1
1
1
1
1
1
1
1
1
1
1
1
1
1
1
1
1
1
1
1
1
1
1
1
1
1
1
1
1
1
1
1
1
1
1
1
1
1
1
1
1
1
1
1
1
1
1
1
1
1
1
1
1
1
1
1
1
1
1
1
1
1
1
1
1
1
1
1
1
1
1
1
1
1
1
1
1
1
1
1
1
1
1
1
1
1
1
1
1
1
1
1
1
1
1
1
1
1
1
1
1
1
1
1
1
1
1
1
1
1
1
1
1
1
1
1
1
1
1
1
1
1
1
1
1
1
1
1
1
1
1
1
1
1
1
1
1
1
1
1
1
1
1
1
2.15114
2.67407
2.68167
2.68506
2.68874
2.69183
2.69483
2.69785
2.70094
2.70415
2.70745
2.71084
2.71427
2.71754
2.72052
2.72305
2.72511
2.72689
2.72873
2.73074
2.73299
2.73531
2.73735
2.73882
2.73988
2.74098
2.74253
2.74468
2.74719
2.74961
2.75166
2.75333
2.75481
2.75626
2.75774
2.75927
2.76093
2.76285
2.76498
2.7671
2.76903
2.77053
2.77156
2.77232
2.77282
2.77302
2.77306
1
1
1
1
1
1
1
1
1
1
1
1
1
1
1
1
1
1
1
1
1
1
1
1
1
1
1
1
1
1
1
1
1
1
1
1
1
1
1
1
1
1
1
1
1
1
1
1
1
1
1
1
1
1
1
1
1
1
1
1
1
1
1
1
1
1
1
1
1
1
1
1
1
1
1
1
1
1
1
1
1
1
1
1
1
1
1
1
1
1
1
1
1
1
1
1
1
1
1
1
1
1
1
1
1
1
1
1
1
1
1
1
1
1
1
1
1
1
1
1
1
1
1
1
1
1
1
1
1
1
1
1
1
1
1
1
1
1
1
1
1
1
1
1
1
2.01642
2.6518
2.67996
2.68476
2.68864
2.69181
2.69468
2.6976
2.70063
2.70379
2.70696
2.71016
2.7134
2.71651
2.7194
2.72191
2.72395
2.72551
2.72703
2.72856
2.73021
2.73213
2.73398
2.73556
2.73672
2.73779
2.73911
2.74092
2.74312
2.74538
2.74739
2.74907
2.75051
2.75187
2.75322
2.75462
2.75614
2.75792
2.75996
2.76203
2.76393
2.76539
2.76637
2.76702
2.76739
2.76756
2.76757
1
1
1
1
1
1
1
1
1
1
1
1
1
1
1
1
1
1
1
1
1
1
1
1
1
1
1
1
1
1
1
1
1
1
1
1
1
1
1
1
1
1
1
1
1
1
1
1
1
1
1
1
1
1
1
1
1
1
1
1
1
1
1
1
1
1
1
1
1
1
1
1
1
1
1
1
1
1
1
1
1
1
1
1
1
1
1
1
1
1
1
1
1
1
1
1
1
1
1
1
1
1
1
1
1
1
1
1
1
1
1
1
1
1
1
1
1
1
1
1
1
1
1
1
1
1
1
1
1
1
1
1
1
1
1
1
1
1
1
1
1
1
1
1
1
1.85384
2.61259
2.67253
2.68146
2.68706
2.69078
2.6938
2.69671
2.69978
2.70291
2.70601
2.70909
2.71222
2.71526
2.7181
2.72058
2.72261
2.72416
2.72538
2.72665
2.7279
2.72934
2.73085
2.73234
2.73352
2.7345
2.73558
2.73703
2.73887
2.7409
2.74281
2.74445
2.74585
2.74714
2.74837
2.7496
2.75095
2.75252
2.75438
2.75635
2.75816
2.75951
2.76038
2.76092
2.76128
2.76144
2.76148
1
1
1
1
1
1
1
1
1
1
1
1
1
1
1
1
1
1
1
1
1
1
1
1
1
1
1
1
1
1
1
1
1
1
1
1
1
1
1
1
1
1
1
1
1
1
1
1
1
1
1
1
1
1
1
1
1
1
1
1
1
1
1
1
1
1
1
1
1
1
1
1
1
1
1
1
1
1
1
1
1
1
1
1
1
1
1
1
1
1
1
1
1
1
1
1
1
1
1
1
1
1
1
1
1
1
1
1
1
1
1
1
1
1
1
1
1
1
1
1
1
1
1
1
1
1
1
1
1
1
1
1
1
1
1
1
1
1
1
1
1
1
1
1
1
1.67431
2.55776
2.66071
2.67352
2.68055
2.6849
2.68887
2.69274
2.69654
2.7002
2.70379
2.70721
2.71048
2.71355
2.7164
2.71893
2.72098
2.72251
2.72361
2.72455
2.7256
2.72676
2.72794
2.72925
2.73033
2.73119
2.73202
2.7331
2.73453
2.73623
2.73793
2.73947
2.74084
2.74205
2.74309
2.74416
2.7453
2.74664
2.7483
2.75013
2.75181
2.753
2.75366
2.75401
2.75423
2.75431
2.75431
1
1
1
1
1
1
1
1
1
1
1
1
1
1
1
1
1
1
1
1
1
1
1
1
1
1
1
1
1
1
1
1
1
1
1
1
1
1
1
1
1
1
1
1
1
1
1
1
1
1
1
1
1
1
1
1
1
1
1
1
1
1
1
1
1
1
1
1
1
1
1
1
1
1
1
1
1
1
1
1
1
1
1
1
1
1
1
1
1
1
1
1
1
1
1
1
1
1
1
1
1
1
1
1
1
1
1
1
1
1
1
1
1
1
1
1
1
1
1
1
1
1
1
1
1
1
1
1
1
1
1
1
1
1
1
1
1
1
1
1
1
1
1
1
1
1.4513
2.47785
2.65186
2.66079
2.66924
2.67566
2.68102
2.68571
2.69012
2.69451
2.69894
2.7031
2.70696
2.71046
2.71364
2.71647
2.71876
2.72042
2.72152
2.72234
2.72319
2.72412
2.72511
2.72613
2.72719
2.72789
2.72845
2.72915
2.73014
2.73142
2.73284
2.73422
2.73547
2.73647
2.73736
2.73824
2.73914
2.74021
2.7416
2.74314
2.74453
2.74542
2.74581
2.74598
2.74612
2.74619
2.74622
1
1
1
1
1
1
1
1
1
1
1
1
1
1
1
1
1
1
1
1
1
1
1
1
1
1
1
1
1
1
1
1
1
1
1
1
1
1
1
1
1
1
1
1
1
1
1
1
1
1
1
1
1
1
1
1
1
1
1
1
1
1
1
1
1
1
1
1
1
1
1
1
1
1
1
1
1
1
1
1
1
1
1
1
1
1
1
1
1
1
1
1
1
1
1
1
1
1
1
1
1
1
1
1
1
1
1
1
1
1
1
1
1
1
1
1
1
1
1
1
1
1
1
1
1
1
1
1
1
1
1
1
1
1
1
1
1
1
1
1
1
1
1
1
1
1.1937
2.39122
2.65446
2.65124
2.65646
2.66331
2.67005
2.67596
2.68149
2.68685
2.69201
2.69688
2.70135
2.70541
2.70911
2.71247
2.7153
2.71737
2.71872
2.71962
2.72045
2.72134
2.72226
2.72317
2.72396
2.72459
2.72491
2.72523
2.72577
2.72659
2.72761
2.72874
2.72975
2.73044
2.73114
2.73179
2.73241
2.73317
2.73421
2.7354
2.73645
2.73701
2.73707
2.73691
2.73666
2.73643
2.73625
1
1
1
1
1
1
1
1
1
1
1
1
1
1
1
1
1
1
1
1
1
1
1
1
1
1
1
1
1
1
1
1
1
1
1
1
1
1
1
1
1
1
1
1
1
1
1
1
1
1
1
1
1
1
1
1
1
1
1
1
1
1
1
1
1
1
1
1
1
1
1
1
1
1
1
1
1
1
1
1
1
1
1
1
1
1
1
1
1
1
1
1
1
1
1
1
1
1
1
1
1
1
1
1
1
1
1
1
1
1
1
1
1
1
1
1
1
1
1
1
1
1
1
1
1
1
1
1
1
1
1
1
1
1
1
1
1
1
1
1
1
1
1
1
1
1.01047
2.32157
2.65754
2.65064
2.6543
2.65881
2.66341
2.66804
2.67315
2.67866
2.68416
2.68932
2.69409
2.69854
2.70276
2.70676
2.71029
2.71301
2.71483
2.716
2.71697
2.71796
2.71901
2.72002
2.72081
2.72125
2.72135
2.72138
2.72148
2.72179
2.72235
2.7231
2.72367
2.72403
2.72442
2.72476
2.72506
2.72545
2.72604
2.72672
2.72715
2.72711
2.72664
2.72595
2.72533
2.72492
2.72476
1
1
1
1
1
1
1
1
1
1
1
1
1
1
1
1
1
1
1
1
1
1
1
1
1
1
1
1
1
1
1
1
1
1
1
1
1
1
1
1
1
1
1
1
1
1
1
1
1
1
1
1
1
1
1
1
1
1
1
1
1
1
1
1
1
1
1
1
1
1
1
1
1
1
1
1
1
1
1
1
1
1
1
1
1
1
1
1
1
1
1
1
1
1
1
1
1
1
1
1
1
1
1
1
1
1
1
1
1
1
1
1
1
1
1
1
1
1
1
1
1
1
1
1
1
1
1
1
1
1
1
1
1
1
1
1
1
1
1
1
1
1
1
1
1
1.00004
2.20686
2.65716
2.65544
2.65643
2.65847
2.66128
2.66472
2.6686
2.67278
2.67713
2.68176
2.68641
2.6909
2.69529
2.69966
2.70378
2.70721
2.70965
2.71127
2.71251
2.71371
2.71504
2.71633
2.7173
2.71777
2.71773
2.71753
2.71726
2.71711
2.71717
2.71739
2.71735
2.71728
2.71722
2.71715
2.71704
2.71695
2.71696
2.71694
2.71672
2.7161
2.71503
2.71361
2.71197
2.7105
2.70943
1
1
1
1
1
1
1
1
1
1
1
1
1
1
1
1
1
1
1
1
1
1
1
1
1
1
1
1
1
1
1
1
1
1
1
1
1
1
1
1
1
1
1
1
1
1
1
1
1
1
1
1
1
1
1
1
1
1
1
1
1
1
1
1
1
1
1
1
1
1
1
1
1
1
1
1
1
1
1
1
1
1
1
1
1
1
1
1
1
1
1
1
1
1
1
1
1
1
1
1
1
1
1
1
1
1
1
1
1
1
1
1
1
1
1
1
1
1
1
1
1
1
1
1
1
1
1
1
1
1
1
1
1
1
1
1
1
1
1
1
1
1
1
1
1
1
2.05757
2.65743
2.6589
2.66022
2.66157
2.66282
2.66488
2.66735
2.67042
2.67383
2.67718
2.68048
2.68395
2.68785
2.69213
2.69646
2.70033
2.70332
2.7054
2.70696
2.70843
2.7101
2.7118
2.71315
2.71381
2.71382
2.71354
2.71298
2.71239
2.71197
2.71164
2.71093
2.71024
2.70959
2.70897
2.70833
2.70765
2.70695
2.70611
2.70496
2.70325
2.70073
2.69761
2.69448
2.69197
2.69099
1
1
1
1
1
1
1
1
1
1
1
1
1
1
1
1
1
1
1
1
1
1
1
1
1
1
1
1
1
1
1
1
1
1
1
1
1
1
1
1
1
1
1
1
1
1
1
1
1
1
1
1
1
1
1
1
1
1
1
1
1
1
1
1
1
1
1
1
1
1
1
1
1
1
1
1
1
1
1
1
1
1
1
1
1
1
1
1
1
1
1
1
1
1
1
1
1
1
1
1
1
1
1
1
1
1
1
1
1
1
1
1
1
1
1
1
1
1
1
1
1
1
1
1
1
1
1
1
1
1
1
1
1
1
1
1
1
1
1
1
1
1
1
1
1
1
1.86428
2.61692
2.66146
2.6614
2.66262
2.66454
2.66618
2.66791
2.67008
2.67234
2.6746
2.67694
2.67933
2.68209
2.68537
2.68925
2.69311
2.69633
2.69869
2.70049
2.70218
2.70414
2.70626
2.7081
2.70915
2.70943
2.70916
2.7085
2.70762
2.70677
2.70577
2.70446
2.70305
2.70166
2.70031
2.69898
2.69755
2.69597
2.69407
2.69164
2.68848
2.68445
2.67963
2.67427
2.66795
2.66222
1
1
1
1
1
1
1
1
1
1
1
1
1
1
1
1
1
1
1
1
1
1
1
1
1
1
1
1
1
1
1
1
1
1
1
1
1
1
1
1
1
1
1
1
1
1
1
1
1
1
1
1
1
1
1
1
1
1
1
1
1
1
1
1
1
1
1
1
1
1
1
1
1
1
1
1
1
1
1
1
1
1
1
1
1
1
1
1
1
1
1
1
1
1
1
1
1
1
1
1
1
1
1
1
1
1
1
1
1
1
1
1
1
1
1
1
1
1
1
1
1
1
1
1
1
1
1
1
1
1
1
1
1
1
1
1
1
1
1
1
1
1
1
1
1
1
1.60809
2.5204
2.65139
2.65473
2.65818
2.66174
2.66497
2.6676
2.66998
2.6723
2.6743
2.67583
2.67709
2.67854
2.6807
2.68346
2.68654
2.68946
2.69177
2.69356
2.69529
2.69738
2.69964
2.70193
2.7036
2.70425
2.70412
2.70353
2.70254
2.7013
2.69979
2.69792
2.69577
2.69351
2.69128
2.68906
2.68668
2.68402
2.68084
2.67688
2.6718
2.66503
2.65572
2.64371
2.63098
2.62164
1
1
1
1
1
1
1
1
1
1
1
1
1
1
1
1
1
1
1
1
1
1
1
1
1
1
1
1
1
1
1
1
1
1
1
1
1
1
1
1
1
1
1
1
1
1
1
1
1
1
1
1
1
1
1
1
1
1
1
1
1
1
1
1
1
1
1
1
1
1
1
1
1
1
1
1
1
1
1
1
1
1
1
1
1
1
1
1
1
1
1
1
1
1
1
1
1
1
1
1
1
1
1
1
1
1
1
1
1
1
1
1
1
1
1
1
1
1
1
1
1
1
1
1
1
1
1
1
1
1
1
1
1
1
1
1
1
1
1
1
1
1
1
1
1
1
1.2811
2.40147
2.64133
2.64045
2.64645
2.65309
2.65875
2.6634
2.66739
2.67081
2.67341
2.67517
2.67626
2.67697
2.67784
2.67934
2.68143
2.68362
2.68548
2.68693
2.68836
2.6902
2.69227
2.69474
2.69693
2.69815
2.69832
2.69791
2.69696
2.69553
2.69366
2.6913
2.68845
2.68529
2.68201
2.6787
2.67516
2.67122
2.66649
2.66055
2.65272
2.64209
2.62774
2.6094
2.59148
2.58529
1
1
1
1
1
1
1
1
1
1
1
1
1
1
1
1
1
1
1
1
1
1
1
1
1
1
1
1
1
1
1
1
1
1
1
1
1
1
1
1
1
1
1
1
1
1
1
1
1
1
1
1
1
1
1
1
1
1
1
1
1
1
1
1
1
1
1
1
1
1
1
1
1
1
1
1
1
1
1
1
1
1
1
1
1
1
1
1
1
1
1
1
1
1
1
1
1
1
1
1
1
1
1
1
1
1
1
1
1
1
1
1
1
1
1
1
1
1
1
1
1
1
1
1
1
1
1
1
1
1
1
1
1
1
1
1
1
1
1
1
1
1
1
1
1
1
1.02242
2.30204
2.64131
2.63652
2.63848
2.64245
2.64825
2.65469
2.66082
2.66616
2.67035
2.67324
2.6749
2.67566
2.67614
2.67689
2.67802
2.67933
2.68046
2.68127
2.68204
2.68322
2.68472
2.68689
2.68922
2.69098
2.69161
2.69142
2.69063
2.68921
2.68716
2.68444
2.68102
2.67699
2.67261
2.66804
2.66315
2.65769
2.65116
2.64292
2.63206
2.61729
2.59528
2.55975
2.49771
2.43618
1
1
1
1
1
1
1
1
1
1
1
1
1
1
1
1
1
1
1
1
1
1
1
1
1
1
1
1
1
1
1
1
1
1
1
1
1
1
1
1
1
1
1
1
1
1
1
1
1
1
1
1
1
1
1
1
1
1
1
1
1
1
1
1
1
1
1
1
1
1
1
1
1
1
1
1
1
1
1
1
1
1
1
1
1
1
1
1
1
1
1
1
1
1
1
1
1
1
1
1
1
1
1
1
1
1
1
1
1
1
1
1
1
1
1
1
1
1
1
1
1
1
1
1
1
1
1
1
1
1
1
1
1
1
1
1
1
1
1
1
1
1
1
1
1
1
1.0001
2.17101
2.63114
2.62955
2.63201
2.63568
2.64023
2.64558
2.65186
2.65828
2.66407
2.66867
2.67172
2.67329
2.67404
2.67468
2.67547
2.67622
2.6767
2.6768
2.67678
2.67702
2.67767
2.67903
2.68095
2.68284
2.68392
2.684
2.68349
2.68223
2.68018
2.67729
2.67345
2.66871
2.66322
2.6573
2.65088
2.64372
2.63519
2.62446
2.61022
2.5903
2.55983
2.50934
2.44365
2.38622
1
1
1
1
1
1
1
1
1
1
1
1
1
1
1
1
1
1
1
1
1
1
1
1
1
1
1
1
1
1
1
1
1
1
1
1
1
1
1
1
1
1
1
1
1
1
1
1
1
1
1
1
1
1
1
1
1
1
1
1
1
1
1
1
1
1
1
1
1
1
1
1
1
1
1
1
1
1
1
1
1
1
1
1
1
1
1
1
1
1
1
1
1
1
1
1
1
1
1
1
1
1
1
1
1
1
1
1
1
1
1
1
1
1
1
1
1
1
1
1
1
1
1
1
1
1
1
1
1
1
1
1
1
1
1
1
1
1
1
1
1
1
1
1
1
1
0.999999
1.97794
2.61865
2.63501
2.63513
2.63611
2.63736
2.63978
2.64412
2.64982
2.65588
2.66148
2.66594
2.66888
2.67058
2.67173
2.67269
2.67333
2.67348
2.67322
2.67255
2.67194
2.6717
2.67189
2.67281
2.67418
2.67536
2.67573
2.67545
2.67443
2.67251
2.66961
2.66555
2.66029
2.65386
2.6466
2.63857
2.62958
2.61896
2.60571
2.58829
2.56404
2.52843
2.47272
2.39899
2.32229
1
1
1
1
1
1
1
1
1
1
1
1
1
1
1
1
1
1
1
1
1
1
1
1
1
1
1
1
1
1
1
1
1
1
1
1
1
1
1
1
1
1
1
1
1
1
1
1
1
1
1
1
1
1
1
1
1
1
1
1
1
1
1
1
1
1
1
1
1
1
1
1
1
1
1
1
1
1
1
1
1
1
1
1
1
1
1
1
1
1
1
1
1
1
1
1
1
1
1
1
1
1
1
1
1
1
1
1
1
1
1
1
1
1
1
1
1
1
1
1
1
1
1
1
1
1
1
1
1
1
1
1
1
1
1
1
1
1
1
1
1
1
1
1
1
1
1
1.70932
2.5472
2.63362
2.6347
2.63665
2.6374
2.6385
2.64054
2.64396
2.64856
2.65365
2.65844
2.66234
2.66514
2.6672
2.66877
2.66978
2.67004
2.66976
2.66892
2.66777
2.66663
2.66563
2.66544
2.66575
2.66641
2.66676
2.66658
2.66575
2.66403
2.66129
2.65725
2.65172
2.64459
2.63614
2.62652
2.61567
2.603
2.58739
2.56733
2.54018
2.50188
2.44487
2.36567
2.2843
1
1
1
1
1
1
1
1
1
1
1
1
1
1
1
1
1
1
1
1
1
1
1
1
1
1
1
1
1
1
1
1
1
1
1
1
1
1
1
1
1
1
1
1
1
1
1
1
1
1
1
1
1
1
1
1
1
1
1
1
1
1
1
1
1
1
1
1
1
1
1
1
1
1
1
1
1
1
1
1
1
1
1
1
1
1
1
1
1
1
1
1
1
1
1
1
1
1
1
1
1
1
1
1
1
1
1
1
1
1
1
1
1
1
1
1
1
1
1
1
1
1
1
1
1
1
1
1
1
1
1
1
1
1
1
1
1
1
1
1
1
1
1
1
1
1
1
1.35502
2.41875
2.63189
2.63041
2.63272
2.63498
2.6367
2.63827
2.6404
2.64331
2.64695
2.65093
2.65476
2.65809
2.66089
2.66322
2.66494
2.66578
2.66578
2.66522
2.66395
2.66227
2.66045
2.65904
2.65813
2.65781
2.65758
2.65718
2.65633
2.65476
2.65223
2.64836
2.64279
2.63525
2.62589
2.6149
2.60231
2.58773
2.57008
2.54795
2.51902
2.47997
2.42583
2.35
2.27718
1
1
1
1
1
1
1
1
1
1
1
1
1
1
1
1
1
1
1
1
1
1
1
1
1
1
1
1
1
1
1
1
1
1
1
1
1
1
1
1
1
1
1
1
1
1
1
1
1
1
1
1
1
1
1
1
1
1
1
1
1
1
1
1
1
1
1
1
1
1
1
1
1
1
1
1
1
1
1
1
1
1
1
1
1
1
1
1
1
1
1
1
1
1
1
1
1
1
1
1
1
1
1
1
1
1
1
1
1
1
1
1
1
1
1
1
1
1
1
1
1
1
1
1
1
1
1
1
1
1
1
1
1
1
1
1
1
1
1
1
1
1
1
1
1
1
1
1.03656
2.29142
2.62752
2.62389
2.62551
2.62908
2.63289
2.6352
2.63722
2.63936
2.64182
2.64462
2.64763
2.65065
2.65361
2.65632
2.65861
2.66021
2.66092
2.66069
2.65973
2.65797
2.65576
2.65352
2.65149
2.64996
2.64875
2.64766
2.64644
2.64478
2.64237
2.63874
2.63334
2.62574
2.61585
2.60386
2.58983
2.57357
2.55425
2.53067
2.50105
2.46305
2.41379
2.35
2.27976
1
1
1
1
1
1
1
1
1
1
1
1
1
1
1
1
1
1
1
1
1
1
1
1
1
1
1
1
1
1
1
1
1
1
1
1
1
1
1
1
1
1
1
1
1
1
1
1
1
1
1
1
1
1
1
1
1
1
1
1
1
1
1
1
1
1
1
1
1
1
1
1
1
1
1
1
1
1
1
1
1
1
1
1
1
1
1
1
1
1
1
1
1
1
1
1
1
1
1
1
1
1
1
1
1
1
1
1
1
1
1
1
1
1
1
1
1
1
1
1
1
1
1
1
1
1
1
1
1
1
1
1
1
1
1
1
1
1
1
1
1
1
1
1
1
1
1
1.00026
2.13852
2.60364
2.60976
2.61662
2.62227
2.62701
2.63041
2.63309
2.63529
2.63729
2.63929
2.64143
2.64377
2.64639
2.64893
2.65136
2.65344
2.65486
2.65518
2.65469
2.65326
2.6511
2.64852
2.64578
2.64317
2.64079
2.63863
2.63661
2.63452
2.63199
2.62846
2.62329
2.61586
2.60584
2.59331
2.5783
2.56078
2.54022
2.51575
2.48611
2.44998
2.40623
2.35279
2.28952
1
1
1
1
1
1
1
1
1
1
1
1
1
1
1
1
1
1
1
1
1
1
1
1
1
1
1
1
1
1
1
1
1
1
1
1
1
1
1
1
1
1
1
1
1
1
1
1
1
1
1
1
1
1
1
1
1
1
1
1
1
1
1
1
1
1
1
1
1
1
1
1
1
1
1
1
1
1
1
1
1
1
1
1
1
1
1
1
1
1
1
1
1
1
1
1
1
1
1
1
1
1
1
1
1
1
1
1
1
1
1
1
1
1
1
1
1
1
1
1
1
1
1
1
1
1
1
1
1
1
1
1
1
1
1
1
1
1
1
1
1
1
1
1
1
1
1
0.999998
1.90411
2.5709
2.61041
2.6151
2.61917
2.62226
2.62518
2.62806
2.63051
2.63253
2.63428
2.63595
2.63777
2.63986
2.64192
2.64404
2.64606
2.6478
2.64868
2.64858
2.64767
2.64588
2.6434
2.64042
2.63712
2.63373
2.63044
2.62734
2.6244
2.62135
2.61763
2.61255
2.6054
2.59566
2.58311
2.56771
2.54947
2.52812
2.50321
2.47409
2.43988
2.40072
2.35598
2.30109
1
1
1
1
1
1
1
1
1
1
1
1
1
1
1
1
1
1
1
1
1
1
1
1
1
1
1
1
1
1
1
1
1
1
1
1
1
1
1
1
1
1
1
1
1
1
1
1
1
1
1
1
1
1
1
1
1
1
1
1
1
1
1
1
1
1
1
1
1
1
1
1
1
1
1
1
1
1
1
1
1
1
1
1
1
1
1
1
1
1
1
1
1
1
1
1
1
1
1
1
1
1
1
1
1
1
1
1
1
1
1
1
1
1
1
1
1
1
1
1
1
1
1
1
1
1
1
1
1
1
1
1
1
1
1
1
1
1
1
1
1
1
1
1
1
1
1
1
1.55241
2.47228
2.60947
2.61138
2.61393
2.61667
2.61984
2.62271
2.62524
2.62737
2.62918
2.6308
2.63244
2.63415
2.63578
2.6374
2.63898
2.64048
2.6415
2.64167
2.64116
2.63984
2.63775
2.63494
2.63144
2.62744
2.62322
2.61904
2.61498
2.61102
2.60673
2.60144
2.59446
2.58514
2.57301
2.5578
2.53943
2.51787
2.49293
2.46449
2.4322
2.39676
2.35819
2.31286
1
1
1
1
1
1
1
1
1
1
1
1
1
1
1
1
1
1
1
1
1
1
1
1
1
1
1
1
1
1
1
1
1
1
1
1
1
1
1
1
1
1
1
1
1
1
1
1
1
1
1
1
1
1
1
1
1
1
1
1
1
1
1
1
1
1
1
1
1
1
1
1
1
1
1
1
1
1
1
1
1
1
1
1
1
1
1
1
1
1
1
1
1
1
1
1
1
1
1
1
1
1
1
1
1
1
1
1
1
1
1
1
1
1
1
1
1
1
1
1
1
1
1
1
1
1
1
1
1
1
1
1
1
1
1
1
1
1
1
1
1
1
1
1
1
1
1
1
1.12531
2.33617
2.60898
2.60363
2.60522
2.6089
2.61335
2.61671
2.61947
2.62176
2.62371
2.62548
2.62721
2.6288
2.63024
2.63148
2.63255
2.6335
2.63421
2.63436
2.634
2.63301
2.63133
2.62887
2.62554
2.62139
2.61664
2.61164
2.60654
2.6014
2.59613
2.59022
2.58311
2.57417
2.5627
2.54818
2.53032
2.50913
2.48464
2.45711
2.42648
2.39423
2.36004
2.32465
1
1
1
1
1
1
1
1
1
1
1
1
1
1
1
1
1
1
1
1
1
1
1
1
1
1
1
1
1
1
1
1
1
1
1
1
1
1
1
1
1
1
1
1
1
1
1
1
1
1
1
1
1
1
1
1
1
1
1
1
1
1
1
1
1
1
1
1
1
1
1
1
1
1
1
1
1
1
1
1
1
1
1
1
1
1
1
1
1
1
1
1
1
1
1
1
1
1
1
1
1
1
1
1
1
1
1
1
1
1
1
1
1
1
1
1
1
1
1
1
1
1
1
1
1
1
1
1
1
1
1
1
1
1
1
1
1
1
1
1
1
1
1
1
1
1
1
1
1.00384
2.20503
2.58911
2.58921
2.59458
2.60032
2.60587
2.61001
2.61329
2.61592
2.6181
2.62006
2.62188
2.62353
2.62499
2.62612
2.62686
2.62726
2.62739
2.62723
2.62668
2.62567
2.62417
2.62203
2.61904
2.61514
2.61036
2.60492
2.59908
2.59286
2.58635
2.57948
2.57188
2.56302
2.55215
2.53853
2.52167
2.50141
2.4779
2.45159
2.42262
2.39265
2.36287
2.33371
1
1
1
1
1
1
1
1
1
1
1
1
1
1
1
1
1
1
1
1
1
1
1
1
1
1
1
1
1
1
1
1
1
1
1
1
1
1
1
1
1
1
1
1
1
1
1
1
1
1
1
1
1
1
1
1
1
1
1
1
1
1
1
1
1
1
1
1
1
1
1
1
1
1
1
1
1
1
1
1
1
1
1
1
1
1
1
1
1
1
1
1
1
1
1
1
1
1
1
1
1
1
1
1
1
1
1
1
1
1
1
1
1
1
1
1
1
1
1
1
1
1
1
1
1
1
1
1
1
1
1
1
1
1
1
1
1
1
1
1
1
1
1
1
1
1
1
1
0.999989
1.9661
2.56295
2.58908
2.59356
2.59726
2.60069
2.60406
2.60726
2.61004
2.61239
2.61443
2.61631
2.61803
2.61958
2.62076
2.6214
2.62144
2.62118
2.62058
2.61962
2.61832
2.61668
2.61461
2.61189
2.60836
2.6039
2.59847
2.59219
2.58524
2.57764
2.56958
2.56114
2.55197
2.54141
2.52866
2.51303
2.49414
2.47213
2.44743
2.42033
2.39281
2.3659
2.34035
1
1
1
1
1
1
1
1
1
1
1
1
1
1
1
1
1
1
1
1
1
1
1
1
1
1
1
1
1
1
1
1
1
1
1
1
1
1
1
1
1
1
1
1
1
1
1
1
1
1
1
1
1
1
1
1
1
1
1
1
1
1
1
1
1
1
1
1
1
1
1
1
1
1
1
1
1
1
1
1
1
1
1
1
1
1
1
1
1
1
1
1
1
1
1
1
1
1
1
1
1
1
1
1
1
1
1
1
1
1
1
1
1
1
1
1
1
1
1
1
1
1
1
1
1
1
1
1
1
1
1
1
1