/*--------------------------------*- C++ -*----------------------------------*\
  =========                 |
  \\      /  F ield         | OpenFOAM: The Open Source CFD Toolbox
   \\    /   O peration     | Website:  https://openfoam.org
    \\  /    A nd           | Version:  7
     \\/     M anipulation  |
\*---------------------------------------------------------------------------*/
FoamFile
{
    version     2.0;
    format      ascii;
    class       volScalarField;
    location    "3.1";
    object      rho;
}
// * * * * * * * * * * * * * * * * * * * * * * * * * * * * * * * * * * * * * //

dimensions      [1 -3 0 0 0 0 0];

internalField   nonuniform List<scalar> 
16192
(
2.14494
2.14756
2.14758
2.146
2.14421
2.14152
2.13613
2.12854
2.12039
2.11267
2.10659
2.10221
2.09918
2.09736
2.09647
2.09811
2.10576
2.11301
2.1123
2.10918
2.10384
2.09422
2.07736
2.06473
2.05965
2.05712
2.05535
2.05421
2.05727
2.06706
2.0701
2.06922
2.06673
2.06062
2.04302
2.01763
2.00551
2.0005
1.99702
1.99461
1.99297
1.99182
1.99325
2.00453
2.02687
2.0421
2.04311
2.04078
2.03647
2.02467
1.99571
1.96593
1.9567
1.9542
1.95336
1.95363
1.95792
1.97368
2.00045
2.01424
2.0153
2.01495
2.00985
1.9924
1.96562
1.95185
1.94778
1.94649
1.94584
1.94847
1.96161
1.97766
1.97979
1.97773
1.97273
1.95963
1.94139
1.93323
1.93101
1.9301
1.93036
1.93216
1.93156
1.92915
1.92354
1.91121
1.89823
1.89447
1.89365
1.8941
1.89805
1.90757
1.91942
1.9235
1.92209
1.91824
1.90885
1.88811
1.86715
1.86046
1.85844
1.85753
1.85807
1.86778
1.88513
1.88907
1.88872
1.88693
1.88075
1.86098
1.83292
1.82225
1.82007
1.81928
1.81868
1.82028
1.83064
1.85079
1.85739
1.85933
1.85768
1.8642
1.89919
2.01713
2.22672
2.48585
2.67263
2.79025
2.8483
2.89524
2.91286
2.91364
2.91138
2.89724
2.87392
2.85411
2.84726
2.84471
2.84505
2.85143
2.85615
2.85773
2.85924
2.86324
2.86734
2.86585
2.85934
2.84341
2.81946
2.80682
2.80284
2.80065
2.80211
2.81006
2.81269
2.80879
2.79807
2.78502
2.78035
2.77891
2.77908
2.78492
2.7966
2.80273
2.80112
2.79628
2.78495
2.76164
2.73042
2.7145
2.7119
2.71085
2.71007
2.71323
2.72892
2.75821
2.77539
2.77473
2.76734
2.74811
2.71428
2.68969
2.68172
2.67807
2.67559
2.67302
2.66968
2.66638
2.66458
2.66413
2.66544
2.66773
2.67133
2.67825
2.68625
2.68877
2.68641
2.67708
2.66116
2.63573
2.60736
2.59337
2.58987
2.58859
2.59032
2.6023
2.62613
2.64553
2.6462
2.64211
2.63436
2.61794
2.59446
2.58025
2.57523
2.57359
2.57341
2.5732
2.57106
2.56777
2.56262
2.55405
2.54686
2.54524
2.5477
2.55307
2.55881
2.5595
2.55704
2.55108
2.53815
2.51725
2.50015
2.49421
2.49234
2.49162
2.49244
2.50071
2.51692
2.52372
2.52131
2.51572
2.50436
2.47918
2.44989
2.43798
2.43588
2.43584
2.44134
2.45875
2.48088
2.4859
2.47763
2.14985
2.14999
2.1479
2.1448
2.14033
2.13566
2.13221
2.12763
2.12199
2.11628
2.1095
2.103
2.09929
2.09724
2.09615
2.09704
2.09951
2.10128
2.10371
2.10445
2.10256
2.09665
2.0841
2.06855
2.06016
2.05662
2.05445
2.05304
2.05358
2.06184
2.07127
2.07129
2.06899
2.0652
2.05694
2.03449
2.00831
1.99888
1.9952
1.99273
1.99095
1.98979
1.9902
1.9949
2.005
2.01921
2.03273
2.03796
2.03663
2.03149
2.01983
1.99359
1.9631
1.95173
1.94917
1.94825
1.94873
1.95352
1.96936
1.99607
2.01209
2.01352
2.01227
2.0073
1.99128
1.96322
1.94755
1.9436
1.94207
1.94123
1.94319
1.95674
1.97511
1.97783
1.97606
1.97144
1.95754
1.93723
1.92855
1.9264
1.92525
1.92484
1.92632
1.92624
1.92438
1.92048
1.91117
1.89973
1.89558
1.89473
1.895
1.89763
1.90409
1.91299
1.91597
1.9143
1.91008
1.90061
1.88083
1.8622
1.85653
1.85464
1.85375
1.8555
1.86954
1.88768
1.88961
1.88868
1.88646
1.87878
1.85479
1.8261
1.8174
1.81557
1.8146
1.81391
1.81562
1.82878
1.84913
1.85562
1.85455
1.8559
1.84847
1.84887
1.8859
2.00351
2.22514
2.47795
2.67595
2.78072
2.85019
2.88258
2.89297
2.89004
2.87374
2.85991
2.85659
2.85522
2.855
2.856
2.8559
2.85378
2.85178
2.85119
2.8553
2.86018
2.86002
2.85432
2.84015
2.82004
2.80529
2.79877
2.79503
2.79505
2.80042
2.80482
2.80132
2.79297
2.78271
2.77778
2.77597
2.77507
2.77837
2.78966
2.7971
2.79606
2.79269
2.78468
2.7652
2.73376
2.71341
2.70836
2.70664
2.70603
2.70886
2.72345
2.75094
2.76647
2.76562
2.75808
2.73932
2.70725
2.68401
2.67835
2.67634
2.67502
2.67401
2.67232
2.66982
2.66756
2.66603
2.66535
2.66539
2.66569
2.66804
2.67194
2.67299
2.67003
2.66425
2.6552
2.63728
2.61096
2.59481
2.59184
2.59166
2.5936
2.60194
2.6197
2.6366
2.63847
2.63444
2.62669
2.60974
2.58656
2.57295
2.56807
2.56643
2.56614
2.56864
2.57114
2.57137
2.56958
2.56425
2.55705
2.55455
2.55379
2.55296
2.55155
2.54849
2.54304
2.53398
2.5216
2.50725
2.4958
2.49169
2.49014
2.48943
2.49064
2.49855
2.51151
2.51516
2.51279
2.50758
2.4965
2.47618
2.45372
2.44406
2.44285
2.44488
2.4506
2.46088
2.47508
2.47304
2.15497
2.15422
2.15208
2.14808
2.14044
2.13051
2.12325
2.12095
2.11933
2.11638
2.11202
2.10751
2.10334
2.1006
2.0991
2.09926
2.10037
2.09795
2.09426
2.09326
2.09282
2.09032
2.0851
2.07454
2.06363
2.05777
2.0553
2.05393
2.05413
2.0583
2.06437
2.0667
2.06599
2.06404
2.05921
2.04654
2.02139
2.00077
1.99501
1.99252
1.99062
1.9894
1.98982
1.99355
1.99823
2.00295
2.00945
2.01917
2.02686
2.02748
2.02354
2.01319
1.99162
1.96316
1.94922
1.94657
1.94599
1.94718
1.95303
1.96686
1.98824
2.00474
2.00854
2.00755
2.00282
1.98831
1.96071
1.94344
1.93955
1.93814
1.93745
1.94061
1.95556
1.97396
1.97688
1.97398
1.96769
1.95173
1.931
1.92337
1.92151
1.92034
1.91993
1.9226
1.92375
1.92256
1.91946
1.91196
1.90082
1.89466
1.89301
1.89256
1.89317
1.8973
1.90476
1.9078
1.90612
1.902
1.89322
1.87519
1.85851
1.85396
1.85269
1.85247
1.85681
1.87296
1.88859
1.88989
1.88775
1.88344
1.87281
1.84543
1.81918
1.81238
1.81055
1.80949
1.80884
1.81199
1.82972
1.85052
1.85338
1.85246
1.85002
1.84623
1.82497
1.82599
1.87263
1.99134
2.21746
2.45205
2.70267
2.82861
2.85422
2.86312
2.85369
2.85446
2.85486
2.8572
2.85773
2.85704
2.85331
2.84901
2.8458
2.84314
2.84314
2.84653
2.85065
2.85149
2.84796
2.84124
2.8281
2.80924
2.79548
2.78935
2.78781
2.7901
2.7973
2.79631
2.78883
2.7793
2.77463
2.77354
2.77311
2.77697
2.79104
2.79929
2.79793
2.79362
2.78432
2.7627
2.72897
2.70897
2.70457
2.7026
2.70133
2.70335
2.71611
2.73984
2.75534
2.75523
2.74879
2.73342
2.70701
2.68489
2.67869
2.67732
2.67709
2.67687
2.67529
2.67287
2.66949
2.66484
2.65957
2.65529
2.65218
2.65166
2.6559
2.66222
2.6632
2.66179
2.65663
2.64254
2.61739
2.59782
2.59328
2.59233
2.59216
2.59532
2.60737
2.62525
2.62995
2.62593
2.61827
2.60216
2.57966
2.56736
2.56385
2.56261
2.56631
2.57677
2.58232
2.58205
2.57936
2.57334
2.56274
2.55249
2.54639
2.54154
2.5365
2.53105
2.52576
2.52097
2.51501
2.50555
2.49433
2.48897
2.4871
2.48597
2.48659
2.49306
2.50523
2.50876
2.50703
2.50422
2.49845
2.48548
2.4647
2.45195
2.44995
2.44922
2.44936
2.45453
2.4571
2.15701
2.15642
2.15506
2.1525
2.14526
2.1301
2.11772
2.11273
2.11144
2.11104
2.11041
2.10907
2.10801
2.10719
2.10733
2.10655
2.10319
2.09852
2.09224
2.08532
2.08173
2.07946
2.07707
2.07417
2.06915
2.06414
2.06019
2.05838
2.05792
2.05988
2.06115
2.05982
2.05818
2.05638
2.05371
2.04773
2.03469
2.01458
1.99959
1.99447
1.99228
1.99105
1.9915
1.99467
1.99658
1.99663
1.99685
1.9989
2.0047
2.01301
2.01632
2.01409
2.00677
1.99189
1.96854
1.95065
1.94599
1.94585
1.9481
1.95315
1.96246
1.97775
1.99438
2.0011
2.00063
1.99637
1.98334
1.95756
1.94026
1.93709
1.93629
1.93656
1.94139
1.95433
1.96861
1.97193
1.96906
1.96056
1.94244
1.92395
1.91847
1.91705
1.91615
1.91699
1.92214
1.92399
1.92313
1.92028
1.91275
1.89922
1.89001
1.88777
1.88695
1.88666
1.88903
1.8961
1.9001
1.89867
1.89546
1.88859
1.87414
1.85873
1.85392
1.85309
1.85415
1.85956
1.8713
1.88192
1.88348
1.88187
1.87711
1.86393
1.83484
1.81281
1.80779
1.80619
1.80519
1.80501
1.81106
1.83128
1.84877
1.85026
1.84923
1.84577
1.83829
1.81577
1.80117
1.80908
1.86481
1.99173
2.2273
2.4851
2.6973
2.81425
2.83807
2.85937
2.8565
2.84751
2.84724
2.84413
2.83735
2.83591
2.83662
2.83527
2.83384
2.83304
2.833
2.83712
2.84629
2.84704
2.84479
2.83539
2.81299
2.79101
2.78238
2.77953
2.78037
2.78699
2.78857
2.7839
2.7776
2.77394
2.77268
2.77353
2.77853
2.7872
2.79072
2.78914
2.78372
2.77426
2.75531
2.72649
2.70568
2.70068
2.69946
2.69943
2.70113
2.70897
2.72788
2.74602
2.74762
2.74278
2.7317
2.70983
2.68861
2.68158
2.68002
2.67967
2.67867
2.67608
2.67164
2.66305
2.65152
2.64377
2.64027
2.63901
2.64045
2.64984
2.66251
2.66602
2.66531
2.66138
2.64837
2.62219
2.59793
2.58888
2.58571
2.58414
2.58484
2.59412
2.61296
2.62051
2.61779
2.61129
2.59838
2.57961
2.56824
2.56655
2.56972
2.58205
2.5913
2.5907
2.5878
2.5821
2.56935
2.55158
2.538
2.52961
2.52555
2.52316
2.52066
2.51831
2.51629
2.5126
2.50369
2.49167
2.48537
2.48409
2.48342
2.48348
2.489
2.50294
2.51165
2.51238
2.51084
2.50613
2.49349
2.47014
2.45129
2.44419
2.44109
2.43726
2.43611
2.15726
2.15707
2.15516
2.15263
2.1481
2.13596
2.11832
2.10956
2.10558
2.10373
2.10323
2.10444
2.10774
2.11164
2.11397
2.11246
2.10844
2.102
2.09321
2.08391
2.07457
2.06857
2.06671
2.06617
2.06809
2.06823
2.06665
2.0658
2.06618
2.06452
2.06119
2.05688
2.05243
2.04871
2.0454
2.04166
2.03599
2.02713
2.01426
2.00259
1.99752
1.99563
1.99579
1.99717
1.9956
1.99273
1.99016
1.98868
1.98823
1.99081
1.99872
2.0063
2.00618
2.00245
1.99467
1.97924
1.95962
1.94922
1.94773
1.94783
1.95038
1.9553
1.96539
1.98127
1.99144
1.99207
1.98904
1.97951
1.95891
1.94133
1.93725
1.93678
1.93835
1.94256
1.95058
1.96009
1.96254
1.96001
1.95114
1.93302
1.9185
1.91461
1.91337
1.913
1.91705
1.9238
1.92493
1.92348
1.92003
1.91007
1.89264
1.88263
1.88073
1.87952
1.87875
1.88042
1.88866
1.89455
1.89374
1.892
1.88752
1.87695
1.86287
1.85665
1.85558
1.85582
1.85894
1.86694
1.87515
1.87591
1.87376
1.86827
1.85381
1.82575
1.80843
1.80498
1.80362
1.80282
1.80373
1.81349
1.83391
1.84536
1.84532
1.84388
1.84038
1.83025
1.80841
1.79194
1.79164
1.80374
1.86182
2.00863
2.24585
2.50245
2.68286
2.81355
2.84813
2.85175
2.85582
2.84449
2.83315
2.8335
2.8353
2.83515
2.83187
2.82903
2.8264
2.82553
2.82899
2.84429
2.85014
2.84602
2.83528
2.81113
2.78572
2.77513
2.77124
2.77127
2.77729
2.78344
2.78158
2.77742
2.77506
2.77396
2.7735
2.77442
2.77736
2.778
2.77613
2.77251
2.76679
2.75372
2.72851
2.70546
2.69812
2.69507
2.69327
2.69313
2.69942
2.7186
2.74003
2.7442
2.74002
2.7308
2.71387
2.69396
2.68404
2.68162
2.67974
2.67697
2.67189
2.66166
2.6476
2.63775
2.63434
2.63308
2.63282
2.63698
2.65272
2.67063
2.67311
2.67001
2.66391
2.64824
2.61728
2.58962
2.57937
2.57605
2.57421
2.57411
2.58283
2.6032
2.61342
2.61345
2.61059
2.60323
2.58986
2.57924
2.57799
2.57878
2.58332
2.58668
2.58509
2.57987
2.56801
2.5476
2.52943
2.52213
2.51941
2.51757
2.51691
2.5181
2.51796
2.516
2.51173
2.50246
2.4896
2.48304
2.48169
2.48145
2.48223
2.48789
2.50501
2.51855
2.5181
2.51483
2.50841
2.49158
2.46133
2.43775
2.42719
2.42162
2.42149
2.14639
2.15149
2.15189
2.15001
2.14658
2.13991
2.12712
2.112
2.10406
2.1002
2.09804
2.09772
2.10219
2.11286
2.11586
2.11479
2.1124
2.10774
2.09838
2.08443
2.07242
2.06478
2.06056
2.05867
2.0579
2.06277
2.07057
2.07241
2.07122
2.06807
2.06308
2.05659
2.04953
2.04295
2.03783
2.03426
2.03191
2.02903
2.02351
2.01478
2.00763
2.00388
2.00086
1.99773
1.99448
1.99077
1.98572
1.98148
1.97946
1.97837
1.97904
1.98658
1.9991
2.0019
2.00063
1.99728
1.98821
1.9706
1.95268
1.94613
1.94411
1.944
1.9458
1.95239
1.96686
1.9816
1.98493
1.98409
1.9796
1.96556
1.94757
1.94042
1.93928
1.93863
1.93954
1.9433
1.95038
1.95296
1.95045
1.94185
1.92537
1.91455
1.91204
1.91115
1.91323
1.92252
1.92522
1.9241
1.92203
1.91738
1.90326
1.88316
1.87415
1.87233
1.87113
1.87047
1.87333
1.8851
1.89302
1.89326
1.89212
1.88893
1.88079
1.86662
1.85665
1.85378
1.85311
1.85375
1.85941
1.86682
1.86753
1.86529
1.85979
1.84599
1.82036
1.80575
1.80346
1.80261
1.80269
1.80567
1.81581
1.83243
1.84028
1.83966
1.8378
1.83403
1.82314
1.80095
1.78797
1.78626
1.78775
1.80501
1.87202
2.04269
2.26598
2.5241
2.6819
2.79558
2.82952
2.82601
2.83154
2.84295
2.84325
2.84015
2.83674
2.83242
2.8261
2.82417
2.82396
2.82565
2.83586
2.84369
2.84161
2.83227
2.81203
2.78556
2.77054
2.76568
2.76559
2.76846
2.7752
2.77758
2.77461
2.77037
2.76739
2.76517
2.76395
2.76494
2.76814
2.76975
2.76979
2.76678
2.75499
2.7262
2.69982
2.69226
2.69024
2.68911
2.68921
2.69622
2.71477
2.73339
2.73706
2.7355
2.73034
2.71815
2.69926
2.68335
2.67583
2.67211
2.66772
2.65937
2.64662
2.63667
2.63257
2.63127
2.63087
2.63247
2.6397
2.65378
2.66605
2.6681
2.66502
2.65775
2.63953
2.60721
2.58141
2.5715
2.56746
2.56551
2.56587
2.5777
2.60431
2.61753
2.61824
2.6172
2.61308
2.60221
2.58584
2.57907
2.57783
2.57755
2.5761
2.57157
2.56194
2.54604
2.52931
2.52054
2.51693
2.51502
2.51418
2.51712
2.52125
2.52089
2.51896
2.51475
2.50413
2.48909
2.48177
2.48023
2.47937
2.48009
2.48787
2.50454
2.51475
2.51351
2.50949
2.50133
2.47916
2.44597
2.42532
2.4177
2.41738
2.13528
2.13772
2.14121
2.14238
2.14135
2.13862
2.13316
2.12358
2.11029
2.10064
2.09693
2.09589
2.09714
2.10387
2.1132
2.11469
2.11269
2.10878
2.10147
2.08853
2.0737
2.06484
2.05957
2.05625
2.05489
2.05577
2.06555
2.07383
2.0728
2.06998
2.06541
2.05767
2.048
2.03937
2.03335
2.0299
2.02779
2.0266
2.02571
2.02403
2.02087
2.01526
2.00728
1.99971
1.99435
1.98941
1.98348
1.97725
1.97318
1.97124
1.97011
1.9704
1.97828
1.99551
2.00231
2.00171
1.99977
1.9935
1.97696
1.95265
1.94009
1.9366
1.93574
1.93625
1.94067
1.95471
1.97474
1.9819
1.98228
1.9809
1.97187
1.95381
1.94088
1.93676
1.93498
1.93385
1.93468
1.94085
1.94462
1.94224
1.93423
1.92069
1.91293
1.91149
1.912
1.91771
1.92517
1.92477
1.92259
1.91914
1.91126
1.8919
1.87266
1.86628
1.86482
1.86394
1.86386
1.87015
1.88645
1.89447
1.89557
1.89476
1.89173
1.88324
1.86568
1.85184
1.84789
1.84692
1.84685
1.85101
1.85866
1.86014
1.85827
1.85394
1.84227
1.81983
1.80606
1.80394
1.80334
1.80359
1.80591
1.81393
1.82826
1.83489
1.83398
1.83232
1.82864
1.81825
1.79737
1.78482
1.78277
1.78302
1.78743
1.81459
1.89063
2.0474
2.27737
2.52702
2.65573
2.7206
2.78038
2.82162
2.82748
2.82787
2.83121
2.8343
2.83573
2.83358
2.82643
2.82131
2.81968
2.82214
2.83064
2.83197
2.82706
2.81367
2.78735
2.76705
2.76097
2.75929
2.75982
2.76561
2.7694
2.76678
2.76413
2.76203
2.7606
2.76017
2.76286
2.77095
2.77261
2.77012
2.7637
2.74668
2.71537
2.69377
2.68954
2.68812
2.68783
2.68966
2.69522
2.7105
2.73115
2.73488
2.73362
2.73004
2.71877
2.69635
2.676
2.66611
2.66082
2.65588
2.64886
2.64135
2.6353
2.63259
2.63192
2.63244
2.63565
2.64127
2.65107
2.66068
2.6611
2.65749
2.65001
2.63193
2.60032
2.57437
2.56604
2.56355
2.56237
2.5637
2.57814
2.60864
2.62762
2.62705
2.62435
2.61871
2.60503
2.58471
2.57248
2.56709
2.56262
2.55671
2.54924
2.54141
2.53289
2.52389
2.518
2.51579
2.51505
2.5184
2.52505
2.52624
2.52526
2.52354
2.51716
2.49952
2.48258
2.47713
2.47584
2.47547
2.47706
2.48445
2.49925
2.5083
2.50669
2.50078
2.48961
2.46658
2.43489
2.41835
2.4167
2.1291
2.12785
2.12759
2.12862
2.13076
2.13257
2.13136
2.12894
2.12303
2.11219
2.10252
2.09808
2.09723
2.09689
2.09878
2.10407
2.10661
2.10551
2.10095
2.09118
2.07912
2.06857
2.06142
2.05737
2.05554
2.05593
2.05743
2.06071
2.06449
2.06462
2.06229
2.05646
2.04625
2.03762
2.03203
2.02864
2.0266
2.02548
2.02679
2.02851
2.02685
2.02293
2.01596
2.00565
1.9959
1.98869
1.98231
1.97601
1.97061
1.96715
1.96535
1.96441
1.9651
1.97408
1.9927
2.00247
2.00168
1.99843
1.99231
1.97625
1.94981
1.93378
1.92923
1.92763
1.92794
1.93204
1.94704
1.97135
1.98215
1.9829
1.98178
1.97412
1.95417
1.93654
1.93088
1.9287
1.92735
1.92723
1.93285
1.93776
1.93595
1.93086
1.92224
1.91583
1.91432
1.9148
1.91802
1.91996
1.91887
1.91684
1.91258
1.90069
1.87869
1.86485
1.86075
1.85953
1.85879
1.85989
1.87149
1.89182
1.89738
1.89722
1.89565
1.89199
1.88089
1.8589
1.84446
1.84082
1.8397
1.83935
1.84324
1.8524
1.85464
1.85345
1.85079
1.84107
1.82012
1.80621
1.80384
1.80303
1.80264
1.8037
1.81054
1.82411
1.82986
1.82875
1.82753
1.82476
1.81525
1.79548
1.78229
1.77957
1.77921
1.78109
1.79177
1.82154
1.89279
2.03219
2.24778
2.46344
2.66543
2.74925
2.77198
2.77952
2.78409
2.80572
2.83993
2.84565
2.84167
2.82905
2.81425
2.81087
2.81232
2.82435
2.83005
2.82518
2.81085
2.78082
2.7577
2.75108
2.74913
2.74933
2.75545
2.7635
2.76384
2.76202
2.76067
2.76034
2.76212
2.76352
2.76253
2.76064
2.7582
2.7516
2.73734
2.71345
2.69427
2.68929
2.6876
2.68604
2.68515
2.68894
2.70636
2.73074
2.73675
2.73419
2.72768
2.71325
2.68686
2.66557
2.65652
2.65165
2.64892
2.64651
2.64326
2.63853
2.63545
2.6346
2.63423
2.63412
2.63615
2.64287
2.65117
2.6519
2.64822
2.64096
2.62573
2.59908
2.57334
2.56459
2.56286
2.56332
2.56909
2.58333
2.60589
2.62381
2.62486
2.62172
2.61516
2.59758
2.5707
2.55531
2.54817
2.54336
2.53914
2.53601
2.53366
2.53049
2.52627
2.5233
2.52282
2.52617
2.52896
2.53025
2.53049
2.52829
2.52225
2.51008
2.49121
2.47829
2.47455
2.47302
2.47198
2.47219
2.47735
2.49043
2.49773
2.49567
2.49041
2.48123
2.46262
2.43646
2.42348
2.12686
2.12042
2.11817
2.11685
2.11653
2.11957
2.12665
2.1289
2.12786
2.12527
2.12116
2.11504
2.10595
2.09684
2.0906
2.08975
2.09184
2.09303
2.09197
2.08835
2.08264
2.07887
2.07434
2.0695
2.06642
2.06291
2.05809
2.0525
2.05134
2.05176
2.05029
2.04718
2.04231
2.03625
2.03228
2.02946
2.02757
2.02711
2.02962
2.02994
2.0279
2.02492
2.01949
2.00966
1.99765
1.98843
1.98171
1.97566
1.9704
1.96658
1.96408
1.96258
1.96205
1.96382
1.97168
1.98497
1.9955
1.99681
1.99374
1.98709
1.97244
1.94709
1.92884
1.92394
1.92244
1.92297
1.92796
1.94322
1.96707
1.9794
1.98007
1.97794
1.96958
1.94923
1.93042
1.92494
1.92283
1.92153
1.92133
1.92768
1.93441
1.93392
1.93169
1.92692
1.91982
1.91547
1.91395
1.91408
1.91374
1.91187
1.90904
1.90272
1.88871
1.86958
1.86051
1.8576
1.85638
1.85601
1.8602
1.87748
1.89582
1.89738
1.89595
1.8938
1.88887
1.87383
1.84914
1.8367
1.83374
1.83266
1.83229
1.83711
1.84992
1.85359
1.85285
1.85016
1.84078
1.81977
1.80471
1.80168
1.80085
1.80019
1.80055
1.80684
1.82061
1.82607
1.82542
1.82436
1.82189
1.81247
1.79184
1.77829
1.77536
1.77485
1.77546
1.78276
1.79699
1.81843
1.88154
2.01822
2.22302
2.45307
2.68487
2.74817
2.73632
2.76335
2.81503
2.84693
2.84874
2.8398
2.81848
2.81135
2.81131
2.81578
2.8237
2.82443
2.818
2.79741
2.76537
2.74892
2.74392
2.74174
2.74197
2.74873
2.7603
2.76524
2.76553
2.76479
2.76329
2.7612
2.75799
2.7537
2.75088
2.7499
2.74549
2.73419
2.71416
2.69458
2.68663
2.68417
2.68309
2.68376
2.69046
2.70785
2.72524
2.72856
2.72615
2.71936
2.70298
2.67563
2.65615
2.65152
2.6505
2.65013
2.64901
2.64677
2.64253
2.63643
2.63221
2.62985
2.628
2.62773
2.63231
2.64143
2.64304
2.64121
2.63721
2.62643
2.60365
2.57795
2.56924
2.56844
2.5687
2.57019
2.57911
2.59881
2.61579
2.61717
2.61183
2.6009
2.57924
2.5537
2.54128
2.53656
2.53454
2.53367
2.534
2.53613
2.5378
2.53811
2.53659
2.53342
2.53121
2.53007
2.5282
2.52543
2.52216
2.5149
2.50207
2.48469
2.47213
2.46636
2.46325
2.46116
2.46052
2.46501
2.47933
2.48999
2.49103
2.48881
2.48325
2.46949
2.43894
2.13103
2.11659
2.11029
2.10818
2.1069
2.10653
2.11083
2.12167
2.12819
2.1313
2.13187
2.12965
2.12317
2.10841
2.09015
2.08106
2.078
2.07624
2.07567
2.07725
2.08022
2.08151
2.08423
2.08483
2.08225
2.07591
2.06484
2.05182
2.04253
2.03824
2.03482
2.03345
2.03466
2.03621
2.03487
2.03345
2.03255
2.03345
2.03315
2.03106
2.02874
2.02557
2.01981
2.00972
1.99714
1.98772
1.98201
1.97725
1.97224
1.96779
1.96484
1.96299
1.962
1.96201
1.96348
1.96736
1.97455
1.98404
1.9879
1.98604
1.98016
1.9684
1.94738
1.9279
1.9213
1.92044
1.92131
1.92662
1.939
1.95844
1.97127
1.97278
1.97044
1.96221
1.9435
1.92557
1.92051
1.91873
1.9177
1.91887
1.92778
1.93486
1.9356
1.93422
1.92966
1.91951
1.91107
1.90897
1.90767
1.90568
1.9033
1.89981
1.89307
1.88085
1.86544
1.85797
1.85607
1.85547
1.85724
1.86526
1.88108
1.894
1.89545
1.89342
1.88987
1.88239
1.86398
1.83995
1.83025
1.82796
1.82706
1.82702
1.83426
1.85026
1.85389
1.85271
1.84971
1.83965
1.81723
1.80156
1.79788
1.7968
1.7959
1.79616
1.80416
1.82031
1.82434
1.82368
1.82247
1.8195
1.8078
1.78497
1.7724
1.77034
1.76979
1.77028
1.77648
1.78917
1.79632
1.81371
1.86881
2.00349
2.22243
2.47534
2.62672
2.7128
2.77743
2.8251
2.83337
2.83429
2.82619
2.81651
2.81461
2.81524
2.81809
2.8182
2.81435
2.80476
2.78605
2.76157
2.74468
2.73914
2.73721
2.73679
2.74309
2.76077
2.7701
2.76831
2.76536
2.76192
2.75748
2.75176
2.74567
2.74293
2.74139
2.73739
2.72697
2.70955
2.69269
2.68635
2.68477
2.68461
2.68783
2.69378
2.70505
2.71722
2.71845
2.71557
2.70932
2.69661
2.6765
2.65857
2.65411
2.6538
2.65322
2.65096
2.64618
2.63762
2.62926
2.62376
2.62043
2.61864
2.61859
2.6249
2.63837
2.64321
2.64325
2.64058
2.6319
2.61196
2.58431
2.57008
2.56727
2.56632
2.56647
2.57183
2.58562
2.60094
2.60302
2.59744
2.5858
2.56435
2.54236
2.53439
2.53253
2.53197
2.53553
2.54374
2.54891
2.54911
2.54678
2.54111
2.53332
2.52758
2.52492
2.52249
2.519
2.5139
2.50562
2.49204
2.47432
2.46121
2.45466
2.45172
2.45001
2.45042
2.4604
2.48498
2.49904
2.49851
2.49586
2.48967
2.45882
2.13581
2.12001
2.10807
2.10203
2.09905
2.09773
2.09795
2.10691
2.12652
2.13464
2.1353
2.1342
2.13186
2.12478
2.10494
2.07975
2.06713
2.06286
2.06161
2.06167
2.06671
2.07902
2.08947
2.09288
2.09142
2.08748
2.07859
2.06031
2.03957
2.02754
2.023
2.02145
2.02107
2.02593
2.03478
2.038
2.04014
2.04051
2.03851
2.03559
2.03171
2.02617
2.01737
2.00351
1.99125
1.98542
1.98213
1.97952
1.97701
1.97393
1.97062
1.96739
1.9648
1.96308
1.96116
1.95995
1.96005
1.96337
1.97118
1.97828
1.97824
1.97447
1.96728
1.95352
1.93453
1.92221
1.91987
1.91978
1.92278
1.9311
1.94633
1.96012
1.96332
1.96164
1.9552
1.93946
1.92244
1.91773
1.91677
1.91687
1.92256
1.9339
1.93709
1.93613
1.93386
1.92696
1.91284
1.90344
1.90065
1.89841
1.89622
1.89407
1.8915
1.88715
1.87934
1.86767
1.85974
1.85778
1.85804
1.86171
1.86834
1.87779
1.88661
1.88834
1.88667
1.88328
1.87479
1.85425
1.83264
1.82599
1.8243
1.82354
1.82407
1.8331
1.84985
1.85328
1.85118
1.84721
1.83524
1.81102
1.79698
1.79383
1.79274
1.79192
1.79317
1.80526
1.8218
1.82353
1.8223
1.82059
1.81579
1.80008
1.77607
1.76621
1.76485
1.76438
1.76499
1.77265
1.78619
1.79095
1.79203
1.80774
1.86247
2.00753
2.23628
2.4742
2.66252
2.73974
2.7743
2.79106
2.80756
2.81417
2.81597
2.81399
2.80899
2.80621
2.80536
2.80116
2.79729
2.78863
2.76886
2.74495
2.73649
2.73529
2.73544
2.74312
2.76117
2.77007
2.76774
2.76314
2.7585
2.7521
2.74401
2.737
2.73302
2.72977
2.72524
2.71867
2.70695
2.6936
2.68849
2.68708
2.68642
2.68574
2.68738
2.69613
2.70814
2.70998
2.70956
2.70797
2.70087
2.68266
2.66206
2.65173
2.64869
2.64701
2.64359
2.6371
2.6285
2.62069
2.61642
2.61439
2.61309
2.61392
2.62473
2.64332
2.64734
2.64671
2.64416
2.63699
2.61698
2.5862
2.56762
2.56269
2.56076
2.55955
2.56048
2.56864
2.58364
2.58788
2.584
2.57503
2.55913
2.54255
2.53641
2.5362
2.54285
2.55516
2.55762
2.55548
2.55164
2.54601
2.5363
2.52635
2.52066
2.51729
2.51387
2.50961
2.50351
2.49484
2.47976
2.46198
2.45268
2.44862
2.44702
2.44681
2.45086
2.46656
2.4883
2.49616
2.49471
2.49034
2.47033
2.13616
2.12477
2.10897
2.0997
2.09534
2.09324
2.09265
2.09662
2.11342
2.13383
2.13781
2.13632
2.13374
2.12959
2.11864
2.09139
2.06495
2.05574
2.05264
2.05217
2.05438
2.06751
2.08997
2.09595
2.09411
2.09103
2.08568
2.07229
2.04686
2.02605
2.01764
2.01478
2.01349
2.01368
2.02323
2.04036
2.04543
2.04442
2.04276
2.04055
2.03689
2.02998
2.018
1.99983
1.98352
1.98009
1.97983
1.9792
1.97806
1.97755
1.97692
1.97521
1.97214
1.96711
1.96097
1.95566
1.95338
1.95249
1.95318
1.95947
1.96974
1.97281
1.97143
1.96858
1.96064
1.94417
1.92466
1.91639
1.91489
1.91606
1.92098
1.93228
1.94713
1.95402
1.95359
1.9496
1.93706
1.92161
1.9174
1.91738
1.92218
1.93293
1.93871
1.93721
1.93446
1.92935
1.9182
1.90278
1.89427
1.89085
1.88882
1.8878
1.88773
1.88713
1.88554
1.88115
1.87287
1.86502
1.86234
1.86192
1.86297
1.86573
1.87187
1.88015
1.88209
1.88039
1.87666
1.86764
1.84736
1.82833
1.82344
1.82208
1.82147
1.82243
1.83178
1.84701
1.85046
1.84799
1.84214
1.82806
1.80443
1.79311
1.7906
1.78951
1.789
1.79296
1.80847
1.82029
1.82021
1.81873
1.81675
1.8103
1.78992
1.76717
1.76061
1.75973
1.75934
1.76076
1.77118
1.78508
1.78948
1.78905
1.78739
1.80303
1.87
2.01126
2.2409
2.47772
2.67699
2.72356
2.75762
2.79147
2.79798
2.79714
2.78725
2.77891
2.77997
2.79421
2.79923
2.7994
2.79419
2.77279
2.7454
2.73592
2.73417
2.73467
2.74175
2.75391
2.76246
2.76233
2.75906
2.75351
2.74405
2.73477
2.72807
2.72426
2.72296
2.72046
2.71451
2.70574
2.69611
2.68885
2.68589
2.68464
2.68443
2.68626
2.69508
2.71021
2.71582
2.71466
2.70992
2.69986
2.67911
2.6558
2.64454
2.64013
2.63768
2.63406
2.62778
2.62012
2.61563
2.61369
2.61254
2.61288
2.61782
2.63053
2.6486
2.65346
2.65159
2.64749
2.63848
2.61606
2.58094
2.55896
2.55198
2.54802
2.54547
2.54508
2.55175
2.56874
2.57806
2.57801
2.5746
2.56586
2.55388
2.5494
2.54998
2.55081
2.55255
2.55225
2.55046
2.54674
2.53848
2.52586
2.51651
2.51157
2.50776
2.50381
2.49915
2.49255
2.48317
2.47024
2.4562
2.44865
2.44697
2.44651
2.44912
2.45636
2.46931
2.48462
2.48881
2.48686
2.47621
2.13238
2.12538
2.11274
2.10058
2.09516
2.09267
2.0918
2.09391
2.10134
2.11518
2.12717
2.13101
2.13
2.12678
2.11965
2.1038
2.07539
2.05532
2.05023
2.04891
2.04987
2.05677
2.0735
2.08926
2.0923
2.09009
2.08577
2.07777
2.06052
2.03438
2.01887
2.01382
2.01169
2.01084
2.01287
2.02347
2.0388
2.04506
2.04406
2.04201
2.03931
2.03471
2.02398
2.00274
1.98318
1.97499
1.97289
1.97241
1.97458
1.97899
1.98021
1.97947
1.97744
1.9736
1.96548
1.95538
1.94891
1.94608
1.94504
1.94497
1.95057
1.96512
1.97218
1.97167
1.97001
1.96431
1.94855
1.92347
1.91009
1.90735
1.9078
1.91068
1.91896
1.93424
1.9462
1.94773
1.94685
1.93907
1.92818
1.92466
1.92524
1.92934
1.93174
1.93153
1.92981
1.92745
1.92059
1.90502
1.88935
1.88457
1.88325
1.88234
1.88261
1.88607
1.88783
1.88725
1.88487
1.87889
1.86894
1.86228
1.86015
1.85947
1.85981
1.86447
1.87288
1.87585
1.8745
1.87111
1.86297
1.84483
1.82665
1.82163
1.82031
1.8198
1.82085
1.82914
1.84124
1.84337
1.84115
1.83515
1.82056
1.79878
1.79025
1.78871
1.78802
1.78852
1.79569
1.81179
1.81995
1.81887
1.81644
1.81234
1.80212
1.77902
1.7604
1.75585
1.75529
1.75498
1.75817
1.77259
1.78815
1.78873
1.78898
1.78448
1.77589
1.78696
1.85548
2.0028
2.24074
2.45295
2.64067
2.75622
2.78997
2.78937
2.77023
2.75481
2.75921
2.77555
2.79907
2.80224
2.80082
2.79278
2.77192
2.74754
2.73523
2.73164
2.73028
2.73165
2.74141
2.75559
2.75758
2.75416
2.74807
2.73863
2.72872
2.72074
2.71476
2.71162
2.71075
2.70986
2.70617
2.69854
2.69068
2.68725
2.68587
2.68622
2.689
2.69683
2.70656
2.70854
2.70728
2.70275
2.69118
2.66932
2.64688
2.63675
2.632
2.62897
2.62539
2.62133
2.61826
2.61633
2.61521
2.61531
2.61847
2.62437
2.63267
2.64311
2.64759
2.64556
2.64107
2.63127
2.60572
2.56934
2.54755
2.54013
2.53687
2.53507
2.53536
2.54565
2.57051
2.58298
2.58477
2.58363
2.57918
2.56889
2.5554
2.5502
2.54919
2.54889
2.54691
2.54325
2.53602
2.52467
2.51375
2.50727
2.50305
2.49922
2.4949
2.48929
2.48378
2.47756
2.46808
2.4568
2.45232
2.45209
2.45236
2.45198
2.45376
2.46264
2.47912
2.48365
2.47821
2.12654
2.12308
2.11719
2.10973
2.10267
2.09788
2.09568
2.09614
2.09954
2.1033
2.10851
2.11432
2.1174
2.11701
2.11389
2.10561
2.09072
2.06897
2.05313
2.04901
2.04937
2.05401
2.06127
2.06974
2.07795
2.08245
2.08165
2.07758
2.06893
2.053
2.03163
2.01754
2.01301
2.01141
2.01089
2.01253
2.01811
2.02943
2.03973
2.04074
2.03804
2.0343
2.02807
2.01471
1.99279
1.97642
1.9702
1.9683
1.96809
1.97262
1.98039
1.98066
1.97868
1.97634
1.97168
1.96108
1.94908
1.94277
1.93985
1.93886
1.93877
1.94518
1.96285
1.97226
1.97139
1.96962
1.96451
1.94829
1.91927
1.90254
1.89899
1.89894
1.90057
1.90696
1.92322
1.94178
1.94671
1.94695
1.94468
1.94018
1.93527
1.93112
1.92855
1.92751
1.92586
1.92293
1.91779
1.90604
1.8894
1.88101
1.87898
1.87782
1.87739
1.88119
1.88895
1.89279
1.89216
1.88942
1.88229
1.86815
1.85754
1.85436
1.85358
1.85353
1.8573
1.86637
1.87075
1.86974
1.86741
1.86086
1.84447
1.82572
1.81955
1.81807
1.81746
1.81816
1.82501
1.83499
1.83641
1.83425
1.82886
1.81586
1.79701
1.78957
1.78839
1.78814
1.78976
1.79667
1.80869
1.81341
1.81217
1.81002
1.80571
1.79371
1.76955
1.75534
1.75268
1.75228
1.75258
1.75811
1.77543
1.78817
1.78822
1.7856
1.78175
1.76496
1.75813
1.77358
1.84702
2.00236
2.23608
2.4714
2.63053
2.74075
2.75519
2.75117
2.76669
2.77706
2.78959
2.80132
2.80008
2.79606
2.78711
2.77141
2.75126
2.73329
2.72456
2.7222
2.72269
2.73206
2.74989
2.75334
2.74975
2.74434
2.73468
2.72099
2.71121
2.7084
2.70808
2.70909
2.70997
2.70868
2.70314
2.69397
2.68932
2.68787
2.68788
2.69025
2.69564
2.70046
2.70006
2.69669
2.69079
2.68033
2.66129
2.63964
2.62912
2.62543
2.62383
2.6228
2.62201
2.62138
2.6208
2.62087
2.62205
2.62295
2.62336
2.62684
2.63423
2.63853
2.63679
2.63043
2.61883
2.59392
2.55969
2.54044
2.53526
2.5334
2.53245
2.53424
2.54808
2.57809
2.5925
2.5924
2.59102
2.58517
2.57028
2.55237
2.54353
2.54141
2.53983
2.53658
2.53109
2.52257
2.51309
2.50586
2.50103
2.4969
2.49242
2.4896
2.48777
2.48501
2.48065
2.47325
2.46186
2.45121
2.44693
2.44483
2.44375
2.445
2.45636
2.47592
2.48045
2.1203
2.11824
2.11691
2.1153
2.11328
2.11022
2.10803
2.1056
2.10168
2.09768
2.09638
2.09626
2.09715
2.09864
2.09976
2.09891
2.09563
2.08878
2.0777
2.06496
2.0572
2.05579
2.05601
2.05718
2.05909
2.06333
2.06958
2.07147
2.069
2.06348
2.05418
2.03989
2.02403
2.01453
2.01081
2.00895
2.00826
2.0101
2.01815
2.03013
2.03431
2.03224
2.02837
2.02217
2.0101
1.98934
1.97248
1.96708
1.96546
1.96539
1.96917
1.97658
1.97832
1.97623
1.9731
1.96719
1.95541
1.94374
1.93839
1.93583
1.93484
1.93517
1.94287
1.96088
1.97069
1.96974
1.96696
1.96151
1.94448
1.91323
1.89483
1.89075
1.89037
1.89161
1.89781
1.91498
1.93739
1.94732
1.95175
1.95331
1.95061
1.94012
1.92836
1.92274
1.9201
1.9173
1.91319
1.90569
1.89234
1.88152
1.87731
1.87553
1.87468
1.87777
1.89056
1.89591
1.89524
1.8934
1.88993
1.88002
1.86171
1.85109
1.84818
1.84735
1.84718
1.85092
1.86181
1.86803
1.86755
1.86572
1.85969
1.84343
1.82364
1.81654
1.81479
1.81394
1.81396
1.81926
1.82894
1.83073
1.82881
1.8244
1.8138
1.79757
1.7903
1.789
1.78853
1.78899
1.79462
1.80531
1.80848
1.80694
1.80467
1.79954
1.78576
1.76247
1.75207
1.75057
1.75036
1.75115
1.75843
1.7755
1.78499
1.78481
1.78197
1.77464
1.75755
1.74447
1.74656
1.76896
1.84216
2.01492
2.22322
2.46115
2.59687
2.7095
2.74325
2.7638
2.78659
2.79904
2.80044
2.7981
2.79492
2.78966
2.77848
2.75554
2.72936
2.71963
2.71671
2.71658
2.72569
2.74533
2.75031
2.74637