/*--------------------------------*- C++ -*----------------------------------*\
  =========                 |
  \\      /  F ield         | OpenFOAM: The Open Source CFD Toolbox
   \\    /   O peration     | Website:  https://openfoam.org
    \\  /    A nd           | Version:  7
     \\/     M anipulation  |
\*---------------------------------------------------------------------------*/
FoamFile
{
    version     2.0;
    format      ascii;
    class       volScalarField;
    location    "1";
    object      T;
}
// * * * * * * * * * * * * * * * * * * * * * * * * * * * * * * * * * * * * * //

dimensions      [0 0 0 1 0 0 0];

internalField   nonuniform List<scalar> 
4128
(
1.5726
1.57918
1.58745
1.59397
1.59865
1.60206
1.60447
1.60589
1.60617
1.60508
1.60221
1.59877
1.59544
1.59245
1.59048
1.59032
1.59192
1.59571
1.60093
1.60705
1.61395
1.62195
1.62808
1.63093
1.63158
1.631
1.62853
1.62604
1.62589
1.62734
1.62975
1.63234
1.63497
1.6371
1.63859
1.64056
1.64502
1.65307
1.66377
1.67589
1.68712
1.69614
1.70291
1.70711
1.71076
1.71288
1.71245
1.70881
1.70738
1.71126
1.72039
1.73011
1.73952
1.7486
1.75817
1.76886
1.77971
1.78751
1.78946
1.78742
1.78726
1.79075
1.79542
1.7997
1.80555
1.81367
1.81887
1.82255
1.82553
1.82656
1.82598
1.82217
1.82008
1.82025
1.82055
1.8207
1.8208
1.8214
1.82226
1.82325
1.82361
1.82259
1.81825
1.81319
1.80712
1.79943
1.7916
1.78539
1.78029
1.77597
1.77357
1.77398
1.77718
1.77804
1.77568
1.7709
1.76597
1.76044
1.7525
1.74105
1.73018
1.72381
1.71897
1.71521
1.71389
1.71455
1.71706
1.71754
1.7147
1.70909
1.70307
1.69657
1.6885
1.68074
1.6748
1.66954
1.66549
1.66163
1.65453
1.64398
1.63273
1.6211
1.60978
1.60318
1.60222
1.60225
1.59798
1.59179
1.58501
1.54716
1.55336
1.56033
1.56658
1.57179
1.57582
1.57874
1.57952
1.5785
1.57572
1.57255
1.56949
1.56694
1.56548
1.56517
1.56561
1.56729
1.57001
1.57345
1.57799
1.58403
1.59107
1.59599
1.59711
1.59681
1.59548
1.59452
1.59509
1.59709
1.59971
1.60213
1.60419
1.60464
1.60423
1.60428
1.60627
1.61174
1.62037
1.63069
1.64154
1.65247
1.66176
1.66838
1.673
1.67534
1.67527
1.6734
1.67272
1.67513
1.68207
1.69154
1.70166
1.71159
1.72091
1.73088
1.74215
1.75365
1.76142
1.76352
1.76502
1.76994
1.77624
1.78143
1.78716
1.79631
1.80408
1.80967
1.81511
1.81798
1.81782
1.81411
1.81262
1.81335
1.81476
1.81623
1.81828
1.82121
1.82362
1.82489
1.82507
1.82399
1.82131
1.8172
1.81133
1.80365
1.79657
1.79154
1.78694
1.78283
1.78059
1.781
1.78384
1.78397
1.7801
1.7745
1.76941
1.7637
1.7555
1.74441
1.73444
1.72751
1.72173
1.71774
1.71679
1.71774
1.71889
1.71729
1.71261
1.70715
1.70149
1.6951
1.68774
1.68179
1.67713
1.67279
1.66952
1.66633
1.65941
1.64845
1.63759
1.62762
1.61746
1.60818
1.60265
1.60181
1.60034
1.5923
1.58393
1.57567
1.52759
1.53178
1.53711
1.54248
1.54728
1.55115
1.55248
1.55159
1.5496
1.54851
1.54754
1.54649
1.54584
1.54569
1.54539
1.54529
1.54583
1.54684
1.54789
1.55005
1.55445
1.55963
1.56277
1.56395
1.56466
1.56569
1.56728
1.56968
1.57258
1.5745
1.57564
1.57498
1.57232
1.5711
1.57187
1.57554
1.58173
1.58917
1.59763
1.60717
1.61714
1.62591
1.63229
1.63519
1.63522
1.63395
1.63388
1.63695
1.64322
1.65055
1.65901
1.66855
1.67813
1.68749
1.69662
1.70525
1.71351
1.72186
1.72936
1.73727
1.74678
1.75443
1.76061
1.76845
1.77703
1.78389
1.79244
1.80022
1.80349
1.80266
1.79943
1.79981
1.80206
1.80445
1.80745
1.81344
1.81924
1.82133
1.82233
1.82252
1.82128
1.81735
1.81134
1.80547
1.80095
1.79687
1.79278
1.78896
1.78686
1.78692
1.78883
1.78914
1.78635
1.78071
1.77479
1.76827
1.75947
1.74882
1.74033
1.73398
1.72801
1.72369
1.72265
1.72279
1.72157
1.71711
1.71161
1.70572
1.69942
1.69272
1.68607
1.68159
1.67828
1.67588
1.67411
1.67133
1.66442
1.65365
1.64167
1.6314
1.62235
1.61358
1.60664
1.60506
1.60517
1.59981
1.5872
1.5769
1.56594
1.51235
1.51419
1.51768
1.52172
1.52514
1.52661
1.52605
1.52437
1.52469
1.5268
1.52826
1.52898
1.52997
1.53038
1.52992
1.52844
1.52574
1.52393
1.52381
1.5246
1.52715
1.53019
1.53249
1.53546
1.53891
1.5417
1.54519
1.54861
1.55029
1.55077
1.54878
1.54383
1.54169
1.54221
1.54489
1.54933
1.55458
1.56069
1.56802
1.57621
1.58446
1.5915
1.5949
1.59506
1.59449
1.59515
1.59914
1.60525
1.61154
1.61802
1.62526
1.63323
1.64128
1.64864
1.65431
1.65885
1.66491
1.67542
1.68997
1.70438
1.71621
1.72544
1.73294
1.74034
1.7466
1.75483
1.76542
1.77558
1.78
1.77927
1.77886
1.78199
1.78582
1.78919
1.79516
1.80315
1.80781
1.81166
1.81449
1.81499
1.81283
1.80813
1.80543
1.80314
1.80001
1.79642
1.79321
1.79165
1.79175
1.79313
1.79325
1.79055
1.78526
1.77938
1.77264
1.76352
1.75358
1.74639
1.74066
1.73545
1.7322
1.73147
1.73055
1.72616
1.71907
1.71214
1.70505
1.69738
1.68975
1.68376
1.68047
1.67849
1.67799
1.67782
1.67581
1.66915
1.65894
1.64716
1.63537
1.62583
1.61785
1.61172
1.60992
1.61127
1.60865
1.5961
1.58163
1.57146
1.55844
1.50035
1.50005
1.50108
1.50318
1.50418
1.50381
1.50224
1.50243
1.50589
1.5099
1.51316
1.51614
1.51681
1.51678
1.51602
1.51175
1.50507
1.50294
1.50296
1.50324
1.5042
1.50579
1.50894
1.51399
1.51857
1.52311
1.52656
1.52818
1.52852
1.52594
1.51963
1.5166
1.51702
1.51923
1.5224
1.52614
1.53069
1.53622
1.54246
1.54891
1.55463
1.55744
1.55754
1.55734
1.55926
1.56462
1.57074
1.57631
1.58171
1.58663
1.59109
1.596
1.601
1.60473
1.60722
1.61097
1.61901
1.63207
1.6488
1.6658
1.67903
1.68925
1.69737
1.70371
1.71001
1.71793
1.72812
1.73929
1.74649
1.74862
1.75258
1.7588
1.7634
1.76844
1.77521
1.78038
1.78579
1.7927
1.79852
1.79963
1.79927
1.7996
1.7995
1.79846
1.79639
1.79415
1.79355
1.79412
1.79522
1.79517
1.79321
1.78864
1.78286
1.77588
1.76688
1.75792
1.7517
1.74656
1.74217
1.74016
1.74015
1.73894
1.73247
1.72366
1.71542
1.70657
1.69686
1.68808
1.68214
1.67918
1.67838
1.67942
1.68039
1.6786
1.6722
1.66234
1.65077
1.63791
1.62818
1.6214
1.61647
1.61456
1.61623
1.61639
1.60695
1.5913
1.57782
1.56802
1.55476
1.48928
1.48774
1.48674
1.48671
1.48629
1.48474
1.48426
1.48663
1.49157
1.4965
1.5015
1.50375
1.50423
1.50402
1.50038
1.49269
1.4874
1.48632
1.48626
1.48629
1.48659
1.48802
1.49187
1.49684
1.50212
1.50602
1.50746
1.50779
1.5056
1.49934
1.49599
1.49622
1.49777
1.5006
1.50376
1.50676
1.5106
1.51516
1.51989
1.52364
1.52521
1.52532
1.52564
1.5288
1.53475
1.54169
1.54733
1.55136
1.55346
1.55416
1.55494
1.55703
1.55989
1.56209
1.56434
1.56992
1.57998
1.59262
1.6075
1.62363
1.63806
1.64847
1.65571
1.66184
1.66793
1.67484
1.68345
1.69406
1.7044
1.71171
1.72038
1.72903
1.7351
1.7407
1.74451
1.74841
1.75438
1.76204
1.77002
1.77567
1.78058
1.78632
1.78876
1.78883
1.78855
1.78929
1.79166
1.79324
1.79287
1.79022
1.78666
1.78176
1.77486
1.76716
1.76087
1.75593
1.75131
1.74772
1.74636
1.7466
1.74567
1.73923
1.72965
1.72025
1.70995
1.6985
1.68914
1.68288
1.67925
1.67879
1.6808
1.68202
1.67975
1.67317
1.66381
1.65243
1.63917
1.62956
1.62317
1.61849
1.61714
1.61869
1.62064
1.61591
1.60184
1.58727
1.57496
1.5654
1.55362
1.47843
1.47746
1.4752
1.47358
1.4721
1.47122
1.47221
1.4753
1.4798
1.48519
1.48916
1.49082
1.49128
1.4894
1.48235
1.47602
1.47434
1.47386
1.47344
1.47339
1.4743
1.47592
1.47848
1.48214
1.48569
1.48788
1.48838
1.48684
1.48203
1.47912
1.47934
1.48057
1.48289
1.4859
1.48794
1.49003
1.49292
1.49598
1.49803
1.4987
1.49882
1.49961
1.50336
1.50978
1.51719
1.52229
1.52382
1.5234
1.52119
1.51988
1.52013
1.52166
1.52393
1.52632
1.53057
1.53803
1.54752
1.55759
1.56967
1.58343
1.59629
1.60509
1.61094
1.61653
1.62245
1.62891
1.63655
1.64633
1.65831
1.66953
1.68076
1.69222
1.69986
1.70451
1.70717
1.71045
1.7146
1.72036
1.72961
1.74151
1.75341
1.76536
1.77215
1.77465
1.77683
1.78052
1.78316
1.7827
1.78092
1.77797
1.77328
1.768
1.764
1.76059
1.75682
1.75283
1.7499
1.74927
1.7501
1.74979
1.74451
1.73519
1.72544
1.7141
1.70162
1.69275
1.68634
1.68152
1.68058
1.68262
1.68346
1.67988
1.67228
1.66344
1.65261
1.63949
1.62922
1.62174
1.61662
1.61505
1.61691
1.62047
1.61956
1.61112
1.598
1.58565
1.57442
1.56704
1.56988
1.46938
1.4691
1.46737
1.46465
1.4628
1.46282
1.46434
1.4666
1.46934
1.47265
1.4754
1.47629
1.47604
1.47303
1.4667
1.4643
1.46406
1.46376
1.46344
1.46368
1.46508
1.46574
1.46648
1.46805
1.46949
1.46986
1.46938
1.46672
1.46454
1.46499
1.46639
1.46818
1.47038
1.4719
1.47308
1.47456
1.47591
1.47672
1.47706
1.47737
1.4788
1.48267
1.48876
1.49545
1.49909
1.49923
1.49708
1.49243
1.49046
1.49048
1.49133
1.49305
1.49566
1.49959
1.50502
1.51284
1.52158
1.52966
1.53858
1.5474
1.55404
1.55936
1.5653
1.57175
1.57796
1.58429
1.59172
1.60104
1.61216
1.62375
1.63553
1.6491
1.65862
1.66326
1.6657
1.66723
1.66879
1.67274
1.68231
1.69791
1.71572
1.73392
1.74745
1.75402
1.75869
1.76142
1.76164
1.76154
1.75982
1.75604
1.75299
1.75175
1.75132
1.75063
1.74883
1.74719
1.74725
1.74885
1.74926
1.74619
1.73799
1.72815
1.71687
1.70509
1.69624
1.68954
1.68401
1.68221
1.68401
1.68513
1.68076
1.67134
1.66162
1.65061
1.63851
1.62784
1.61883
1.61182
1.60912
1.6103
1.61576
1.61821
1.61563
1.60952
1.60608
1.61149
1.62463
1.64355
1.70124
1.46355
1.46407
1.4634
1.46072
1.45796
1.45644
1.45649
1.45689
1.45758
1.45863
1.45996
1.46056
1.46038
1.45872
1.45532
1.45459
1.45479
1.45485
1.45478
1.45535
1.45597
1.45547
1.45499
1.45487
1.45469
1.45406
1.45273
1.45191
1.45245
1.45366
1.45473
1.45576
1.45673
1.45758
1.45832
1.45885
1.45915
1.45933
1.45996
1.46218
1.46578
1.4711
1.47603
1.47836
1.47787
1.47442
1.4683
1.46633
1.46641
1.46757
1.46956
1.47191
1.47517
1.48062
1.4876
1.49484
1.5009
1.50584
1.50911
1.5105
1.51174
1.51614
1.52395
1.53163
1.53828
1.54486
1.55212
1.56018
1.5686
1.57778
1.58947
1.60329
1.61391
1.61911
1.62059
1.62094
1.62221
1.62676
1.63582
1.65022
1.66977
1.69194
1.71279
1.7242
1.72864
1.72973
1.73003
1.72861
1.72508
1.72328
1.72347
1.7259
1.72974
1.73223
1.73362
1.73617
1.7395
1.7407
1.73925
1.73377
1.72602
1.71642
1.70614
1.69743
1.69089
1.68536
1.68223
1.68256
1.68395
1.68079
1.67047
1.65901
1.64747
1.63618
1.62654
1.61818
1.60991
1.6056
1.60693
1.61562
1.63286
1.65141
1.67158
1.69886
1.73164
1.77062
1.80702
1.83109
1.86858
1.46106
1.46219
1.46112
1.45775
1.45288
1.44767
1.44514
1.4445
1.44443
1.44455
1.44514
1.44618
1.44693
1.4469
1.44628
1.44521
1.44544
1.44601
1.44637
1.44673
1.4464
1.44557
1.44456
1.4435
1.44244
1.44157
1.44136
1.44168
1.44179
1.4414
1.44141
1.4417
1.44228
1.44296
1.4435
1.44395
1.44464
1.44608
1.44824
1.45181
1.45625
1.45917
1.46019
1.45899
1.45422
1.44765
1.44613
1.44664
1.44862
1.45082
1.45336
1.45725
1.46265
1.46906
1.47476
1.47823
1.47957
1.47933
1.47705
1.47552
1.4771
1.48351
1.49163
1.49947
1.50615
1.51238
1.51875
1.52364
1.52757
1.53369
1.5444
1.55688
1.56683
1.57263
1.57511
1.57676
1.58002
1.58575
1.59356
1.60471
1.62118
1.64289
1.66605
1.68175
1.68702
1.68784
1.68657
1.68241
1.68024
1.68076
1.68403
1.69022
1.69724
1.70338
1.70994
1.71647
1.71882
1.71841
1.71694
1.71303
1.7059
1.69752
1.69082
1.68599
1.68139
1.67799
1.67713
1.67768
1.67545
1.66592
1.65423
1.64408
1.63498
1.6277
1.6237
1.62327
1.63064
1.64979
1.68281
1.72949
1.77755
1.81788
1.84813
1.87265
1.88931
1.90054
1.91007
1.90798
1.90194
1.46067
1.4603
1.45705
1.45072
1.44251
1.4357
1.43291
1.43219
1.43198
1.43206
1.43275
1.43418
1.43591
1.43709
1.43702
1.43552
1.43545
1.43654
1.43732
1.43735
1.43713
1.43646
1.4354
1.43425
1.43335
1.43282
1.43245
1.43106
1.42799
1.4267
1.42676
1.42715
1.42786
1.42882
1.43005
1.43151
1.43331
1.43635
1.4398
1.44275
1.44437
1.44455
1.44218
1.43606
1.42944
1.42824
1.4295
1.43242
1.43518
1.43864
1.44342
1.44917
1.45455
1.45806
1.45932
1.45922
1.45687
1.45189
1.44932
1.44988
1.4538
1.46008
1.46826
1.47599
1.48131
1.48543
1.48707
1.48722
1.48803
1.49271
1.50152
1.51141
1.52036
1.5279
1.53401
1.53925
1.54488
1.55064
1.55654
1.56385
1.5747
1.59073
1.61102
1.62864
1.63561
1.63589
1.63339
1.63063
1.63067
1.63292
1.63834
1.64619
1.65531
1.66505
1.67549
1.68101
1.6829
1.68406
1.68387
1.68037
1.67383
1.66956
1.66729
1.66483
1.66195
1.66108
1.66164
1.66134
1.65679
1.64863
1.64253
1.64344
1.65154
1.6705
1.70024
1.7384
1.78177
1.827
1.86427
1.89284
1.90924
1.91265
1.91734
1.9139
1.90953
1.90229
1.89288
1.88181
1.862
1.45827
1.45559
1.44911
1.43966
1.42937
1.42433
1.42247
1.42154
1.42128
1.4223
1.42382
1.42502
1.42657
1.42743
1.42673
1.42456
1.42459
1.42629
1.42792
1.42815
1.42803
1.42769
1.42722
1.42656
1.42568
1.42435
1.42121
1.41608
1.41277
1.41236
1.41243
1.41302
1.41445
1.41627
1.4185
1.4218
1.42543
1.42865
1.43033
1.43112
1.43074
1.42737
1.42003
1.41347
1.41225
1.41365
1.41731
1.42118
1.42553
1.43102
1.43711
1.44167
1.44329
1.44349
1.44294
1.43959
1.43343
1.43025
1.4304
1.43268
1.43763
1.44493
1.45216
1.45608
1.45723
1.45654
1.45368
1.45253
1.4538
1.45812
1.4644
1.47235
1.48167
1.49146
1.50227
1.51068
1.51621
1.51976
1.52192
1.52448
1.53
1.54016
1.55427
1.56902
1.57833
1.57942
1.57865
1.57917
1.58149
1.58509
1.59025
1.59763
1.60736
1.61877
1.62745
1.63338
1.63718
1.63833
1.63728
1.63302
1.63059
1.63044
1.62971
1.62941
1.63103
1.63674
1.64253
1.64842
1.65959
1.6802
1.71245
1.75505
1.80117
1.84265
1.87566
1.9
1.91635
1.93028
1.93304
1.92925
1.91779
1.90454
1.8902
1.8703
1.85113
1.83293
1.81708
1.80638
1.78931
1.45252
1.44722
1.43797
1.42569
1.41821
1.41525
1.41351
1.41256
1.4133
1.41605
1.41723
1.41756
1.418
1.41707
1.41387
1.41257
1.41337
1.41564
1.41783
1.41905
1.41937
1.41935
1.41928
1.41883
1.41744
1.41359
1.40666
1.40119
1.39971
1.39943
1.39946
1.40019
1.4027
1.40655
1.41036
1.41409
1.41718
1.41848
1.41903
1.41844
1.4144
1.40569
1.39939
1.39841
1.39956
1.40282
1.4072
1.41259
1.41853
1.42408
1.42765
1.42886
1.42925
1.42882
1.42545
1.41926
1.41587
1.41586
1.41729
1.42138
1.42757
1.43281
1.43466
1.43455
1.43229
1.42714
1.42466
1.42483
1.42693
1.43135
1.4372
1.44456
1.4558
1.46884
1.47912
1.48462
1.4858
1.48476
1.48377
1.48486
1.48864
1.49472
1.50267
1.51193
1.52057
1.52597
1.52889
1.53211
1.53555
1.53898
1.54327
1.54937
1.55739
1.5655
1.57358
1.57972
1.58186
1.58113
1.5778
1.57704
1.57969
1.58462
1.59069
1.59934
1.61596
1.64331
1.68148
1.72921
1.77833
1.82454
1.86377
1.89392
1.91629
1.92667
1.92839
1.92931
1.92682
1.92078
1.91333
1.89983
1.87926
1.85288
1.82389
1.79659
1.77253
1.75227
1.73666
1.73013
1.71849
1.44353
1.43563
1.42284
1.41338
1.40972
1.40753
1.40596
1.40608
1.40876
1.41127
1.41094
1.41004
1.40795
1.40342
1.40053
1.40067
1.40235
1.40503
1.40743
1.40934
1.41058
1.41102
1.41102
1.4105
1.40728
1.39988
1.39239
1.38933
1.38838
1.38795
1.38807
1.39009
1.39464
1.39993
1.40304
1.40457
1.40615
1.40706
1.40657
1.40277
1.39411
1.38731
1.38606
1.38696
1.38958
1.39357
1.39866
1.40439
1.40969
1.41266
1.4141
1.41504
1.41509
1.41311
1.40774
1.40414
1.40408
1.40512
1.40847
1.41343
1.41651
1.4168
1.41584
1.41254
1.40608
1.40283
1.4027
1.40444
1.40797
1.41274
1.42042
1.43152
1.44305
1.44974
1.45223
1.45198
1.44897
1.44634
1.44696
1.4494
1.4523
1.45529
1.45939
1.46549
1.4733
1.48098
1.48628
1.48942
1.49262
1.49585
1.49904
1.5027
1.50699
1.51206
1.51811
1.51998
1.52142
1.52214
1.52593
1.53534
1.55039
1.57293
1.60645
1.65181
1.70415
1.756
1.80292
1.83908
1.86573
1.88266
1.89791
1.8984
1.89772
1.89497
1.88896
1.88014
1.87151
1.86286
1.85227
1.83216
1.80529
1.77712
1.75046
1.72863
1.70975
1.69446
1.6834
1.67556
1.66132
1.4312
1.41917
1.40868
1.40471
1.40258
1.40076
1.40049
1.40239
1.40568
1.40573
1.40373
1.40034
1.39461
1.38987
1.38912
1.38962
1.39153
1.39441
1.39714
1.39942
1.40123
1.40219
1.40233
1.40071
1.3942
1.38583
1.38142
1.37971
1.3786
1.37845
1.37991
1.38405
1.38881
1.39146
1.39247
1.39353
1.39423
1.39399
1.39121
1.38365
1.37702
1.37558
1.37601
1.37771
1.38113
1.38511
1.3891
1.39299
1.3964
1.39905
1.40083
1.40141
1.40083
1.39726
1.39367
1.3936
1.39453
1.39702
1.40046
1.40198
1.40159
1.39974
1.39594
1.38941
1.38575
1.38547
1.38685
1.39023
1.39607
1.40499
1.41537
1.42213
1.42385
1.42344
1.42144
1.41698
1.41336
1.41364
1.41612
1.41907
1.42141
1.42387
1.42778
1.43404
1.44085
1.44648
1.45021
1.45109
1.45195
1.45414
1.45615
1.45713
1.45903
1.46243
1.4679
1.47498
1.48399
1.50129
1.53008
1.57283
1.62557
1.68254
1.73276
1.77381
1.7997
1.8185
1.8331
1.83961
1.84201
1.83833
1.83061
1.82336
1.81732
1.81279
1.80796
1.80032
1.79241
1.78099
1.76322
1.74271
1.72207
1.70431
1.6891
1.67737
1.66931
1.66036
1.64738
1.6339
1.61411
1.41369
1.40298
1.39911
1.39749
1.39599
1.39558
1.39695
1.40034
1.40087
1.39867
1.39463
1.38843
1.38135
1.37907
1.37904
1.37942
1.38098
1.38418
1.38742
1.38969
1.3918
1.39288
1.3925
1.3879
1.37983
1.37518
1.37318
1.37151
1.37085
1.37142
1.3747
1.37846
1.37915
1.37962
1.38042
1.38098
1.3809
1.37899
1.37326
1.36742
1.36612
1.36643
1.36751
1.36966
1.37226
1.37436
1.37664
1.37938
1.38238
1.38527
1.38728
1.38782
1.38697
1.38401
1.38356
1.38438
1.38624
1.38827
1.38842
1.38778
1.38574
1.38129
1.37521
1.37182
1.37154
1.37272
1.37667
1.38384
1.39384
1.40162
1.40344
1.40276
1.39996
1.39627
1.38948
1.38558
1.38554
1.38755
1.39102
1.39398
1.39751
1.40299
1.41018
1.41561
1.41723
1.41752
1.41648
1.41368
1.41346
1.41506
1.41782
1.42206
1.42787
1.43882
1.45779
1.49208
1.53907
1.59812
1.65536
1.70496
1.7414
1.76687
1.79501
1.7952
1.79377
1.7917
1.78528
1.77445
1.76449
1.75416
1.74231
1.73428
1.73009
1.7284
1.72682
1.71998
1.70824
1.69506
1.6812
1.6687
1.65739
1.64953
1.64459
1.64125
1.63669
1.62609
1.60973
1.59457
1.57398
1.396
1.39242
1.39147
1.39068
1.3905
1.39189
1.39512
1.39603
1.39398
1.38978
1.38389
1.37597
1.37093
1.36993
1.36977
1.36991
1.37133
1.37559
1.37843
1.38041
1.3823
1.38275
1.38014
1.3729
1.3684
1.36708
1.36595
1.36486
1.36445
1.36492
1.3673
1.36812
1.36746
1.36743
1.36767
1.36778
1.36712
1.3634
1.35794
1.35668
1.35711
1.35816
1.35942
1.36021
1.36109
1.36235
1.36403
1.36616
1.36878
1.37165
1.37384
1.37456
1.37417
1.3732
1.37338
1.3744
1.37536
1.37549
1.37472
1.37206
1.36757
1.36294
1.36002
1.35973
1.3612
1.36582
1.37422
1.38332
1.38745
1.3871
1.38443
1.38086
1.37552
1.36725
1.36373
1.36341
1.36455
1.36759
1.37119
1.37645
1.38429
1.39267
1.39612
1.39525
1.39098
1.38575
1.38321
1.38442
1.38747
1.39415
1.40625
1.42868
1.46483
1.51392
1.56836
1.62279
1.66561
1.70521
1.73296
1.74288
1.75775
1.76612
1.76085
1.75141
1.74444
1.73443
1.7189
1.70305
1.6907
1.68065
1.67134
1.66417
1.66216
1.66121
1.6564
1.6464
1.63663
1.62786
1.61987
1.61223
1.60685
1.60469
1.60325
1.59916
1.59174
1.58147
1.56799
1.55555
1.53964
1.38433
1.38415
1.38412
1.38439
1.38642
1.38962
1.39064
1.389
1.38513
1.37982
1.37223
1.36516
1.36259
1.36164
1.36113
1.36135
1.36445
1.36851
1.37008
1.37166
1.37261
1.37142
1.36519
1.36046
1.35988
1.35944
1.35872
1.35775
1.35652
1.35613
1.35671
1.35706
1.35619
1.35578
1.35583
1.35573
1.35381
1.34881
1.3469
1.34731
1.3483
1.34937
1.34953
1.34964
1.35023
1.3512
1.35241
1.354
1.35615
1.35877
1.36098
1.36178
1.36174
1.36151
1.36155
1.36167
1.36153
1.36068
1.35863
1.3554
1.35176
1.34977
1.34961
1.35134
1.35697
1.36565
1.37191
1.3728
1.37104
1.36758
1.36364
1.35676
1.34916
1.34661
1.34621
1.34708
1.34944
1.35346
1.36
1.36912
1.37609
1.37608
1.37384
1.36992
1.36478
1.3648
1.37052
1.38688
1.417
1.45809
1.50816
1.55974
1.61074
1.65226
1.6809
1.69529
1.7136
1.71485
1.7161
1.7239
1.72297
1.71654
1.70682
1.70174
1.69394
1.67979
1.66311
1.64988
1.6399
1.6308
1.62261
1.61535
1.60961
1.6045
1.59835
1.59063
1.58263
1.57575
1.57071
1.5668
1.56348
1.56049
1.55682
1.54998
1.54081
1.53307
1.52592
1.51904
1.51097
1.37515
1.3757
1.37688
1.3798
1.38318
1.38417
1.38299
1.38017
1.37594
1.36924
1.3611
1.3567
1.35499
1.3538
1.35354
1.35548
1.3598
1.36137
1.36213
1.36314
1.3628
1.35773
1.35137
1.35085
1.35093
1.35075
1.34986
1.34834
1.34702
1.34658
1.347
1.34761
1.3469
1.34612
1.34593
1.34472
1.3404
1.33702
1.33713
1.338
1.33885
1.33933
1.33971
1.34005
1.34051
1.34115
1.34202
1.34309
1.34453
1.34628
1.34776
1.34825
1.34823
1.34796
1.3476
1.34718
1.34653
1.34531
1.34328
1.34112
1.34038
1.3406
1.34299
1.34913
1.35619
1.35898
1.35793
1.35458
1.35115
1.34627
1.33864
1.33349
1.33193
1.33185
1.33309
1.33584
1.34065
1.34844
1.3563
1.35859
1.35839
1.35708
1.35418
1.35773
1.37201
1.4013
1.44891
1.50586
1.56805
1.61692
1.65234
1.67595
1.68708
1.69069
1.69713
1.69647
1.6898
1.68273
1.68021
1.67849
1.67257
1.66412
1.66017
1.6575
1.64901
1.63625
1.62467
1.61493
1.60542
1.59539
1.58579
1.57728
1.56939
1.56218
1.55635
1.55031
1.54319
1.53651
1.5321
1.52872
1.52339
1.51672
1.50938
1.50219
1.49625
1.49116
1.48985
1.49055
1.48965
1.36604
1.36759
1.37115
1.37521
1.37603
1.37542
1.37425
1.37165
1.36626
1.35806
1.35205
1.34959
1.34788
1.34707
1.34799
1.35202
1.35437
1.35418
1.35436
1.35423
1.35069
1.34297
1.34
1.34046
1.34073
1.3405
1.3395
1.33838
1.33824
1.33876
1.34018
1.3405
1.33948
1.3379
1.33559
1.33163
1.32769
1.32719
1.32778
1.32884
1.3297
1.33032
1.33074
1.33114
1.33147
1.33173
1.33204
1.33243
1.33281
1.33319
1.33356
1.33366
1.33352
1.33305
1.33265
1.33245
1.33219
1.33162
1.33112
1.33114
1.33211
1.33549
1.34117
1.34526
1.34536
1.34252
1.33866
1.33453
1.32836
1.32213
1.31907
1.31819
1.31899
1.32109
1.32496
1.33186
1.33997
1.34462
1.34655
1.34647
1.35094
1.36646
1.39809
1.44521
1.50008
1.55633
1.60305
1.63499
1.65674
1.68253
1.69361
1.68965
1.68381
1.67922
1.67339
1.66217
1.65027
1.64324
1.6365
1.6295
1.62394
1.6204
1.6193
1.61741
1.61163
1.60362
1.59609
1.5882
1.5792
1.56856
1.55798
1.54837
1.53978
1.53282
1.52725
1.52121
1.51303
1.50469
1.49706
1.49038
1.48393
1.47729
1.47149
1.46633
1.46339
1.46361
1.46659
1.46801
1.46251
1.35723
1.36046
1.36558
1.36683
1.36656
1.36647
1.36568
1.36236
1.35511
1.34813
1.34512
1.34324
1.34186
1.34195
1.34466
1.34798
1.34777
1.34684
1.34592
1.34289
1.33604
1.32977
1.32912
1.32979
1.33044
1.33031
1.32981
1.33025
1.33209
1.33457
1.33525
1.33423
1.33136
1.32726
1.3224
1.31875
1.31812
1.3185
1.31932
1.3203
1.32123
1.32198
1.32205
1.32207
1.32209
1.32199
1.32166
1.3211
1.32044
1.31982
1.31927
1.31881
1.31842
1.31818
1.31827
1.31895
1.32008
1.3211
1.3219
1.32368
1.32748
1.33202
1.33359
1.33196
1.32779
1.32356
1.31807
1.31147
1.30725
1.30544
1.30553
1.30699
1.31057
1.31809
1.32566
1.33182
1.33819
1.34549
1.36267
1.39394
1.44051
1.49514
1.5542
1.5959
1.62904
1.65675
1.65739
1.65884
1.67099
1.68004
1.67715
1.66751
1.65654
1.64524
1.63276
1.62072
1.61033
1.60077
1.59367
1.58832
1.58557
1.58545
1.58531
1.58383
1.58059
1.5763
1.57077
1.5637
1.55588
1.54628
1.53551
1.52576
1.51707
1.50996
1.50323
1.49444
1.48404
1.47464
1.46566
1.45739
1.45214
1.44833
1.44472
1.44352
1.44384
1.44371
1.44204
1.43768
1.42671
1.3489
1.35412
1.35739
1.35732
1.35758
1.3576
1.35616
1.35068
1.3438
1.34067
1.3391
1.33755
1.33712
1.33829
1.34149
1.34195
1.3403
1.3382
1.33508
1.32918
1.32118
1.31885
1.31908
1.32018
1.32114
1.32161
1.32298
1.32626
1.32988
1.33074
1.32933
1.32515
1.31976
1.31423
1.31064
1.30995
1.31009
1.3107
1.31164
1.31223
1.31221
1.31234
1.31251
1.31241
1.31205
1.31161
1.31101
1.31009
1.30884
1.30729
1.30563
1.30466
1.30448
1.3047
1.30591
1.30829
1.31053
1.31234
1.31491
1.31841
1.32135
1.32162
1.31925
1.31464
1.30914
1.30236
1.29725
1.29411
1.29322
1.29396
1.29713
1.3041
1.3125
1.32267
1.33714
1.35881
1.39719
1.4458
1.5052
1.55233
1.59336
1.62581
1.63512
1.64607
1.65848
1.6578
1.65447
1.65698
1.65662
1.65217
1.64186
1.62928
1.61711
1.60559
1.59465
1.58445
1.57496
1.56666
1.56114
1.5587
1.55793
1.55794
1.55738
1.55495
1.55141
1.54778
1.54353
1.53817
1.53185
1.52352
1.51372
1.50443
1.49549
1.48669
1.47808
1.46846
1.45936
1.45105
1.44269
1.43513
1.43024
1.42733
1.42658
1.42658
1.42555
1.42062
1.41224
1.40573
1.39842
1.34186
1.34733
1.34815
1.34848
1.34871
1.34806
1.34397
1.33765
1.33499
1.3342
1.33317
1.33237
1.33276
1.33493
1.33601
1.3345
1.3313
1.32764
1.32231
1.31377
1.30988
1.30971
1.31054
1.31213
1.31369
1.31642
1.32124
1.32541
1.32601
1.324
1.31897
1.31273
1.30688
1.30363
1.30285
1.30281
1.30291
1.30324
1.3035
1.30279
1.30152
1.30151
1.30208
1.30253
1.30231
1.30182
1.30127
1.30038
1.29866
1.29583
1.29325
1.29252
1.29264
1.29368
1.29616
1.29913
1.30202
1.30532
1.30845
1.30979
1.30949
1.30712
1.30243
1.29551
1.28908
1.28477
1.28284
1.28311
1.28487
1.29119
1.302
1.31887
1.34613
1.38724
1.44514
1.50035
1.55771
1.59876
1.6197
1.63794
1.644
1.64289
1.6414
1.64199
1.64249
1.64283
1.64376
1.63957
1.62624
1.61146
1.60084
1.59054
1.57967
1.57038
1.56207
1.5557
1.54964
1.54316
1.53775
1.53546
1.53464
1.53323
1.5297
1.52483
1.52063
1.51732
1.51415
1.51073
1.50642
1.49922
1.49031
1.4814
1.47225
1.46314
1.45445
1.44629
1.4394
1.43364
1.42748
1.42098
1.41523
1.41174
1.4099
1.40735
1.40116
1.39356
1.38702
1.3828
1.37929
1.3361
1.33945
1.33956
1.33982
1.33948
1.33609
1.32967
1.32719
1.32724
1.3272
1.32681
1.32678
1.32826
1.32967
1.32887
1.32546
1.32109
1.31585
1.30743
1.30205
1.30146
1.30203
1.30365
1.30606
1.31044
1.31668
1.32069
1.32071
1.31776
1.31232
1.30561
1.30007
1.29722
1.2963
1.29631
1.29631
1.29582
1.29507
1.29314
1.29099
1.29055
1.2909
1.29202
1.29341
1.29407
1.29371
1.29321
1.29212
1.28901
1.28463
1.2829
1.28287
1.28313
1.28442
1.28723
1.29105
1.29479
1.29738
1.29794
1.29771
1.29525
1.28996
1.28289
1.27753
1.27448
1.27445
1.27559
1.28135
1.29519
1.32462
1.36828
1.42837
1.48724
1.54822
1.58511
1.61206
1.6268
1.63733
1.63642
1.63682
1.63406
1.62977
1.62712
1.62245
1.62135
1.62118
1.61666
1.60451
1.58763
1.57445
1.5655
1.5563
1.54799
1.54213
1.53693
1.53296
1.52944
1.52465
1.51905
1.51474
1.51142
1.50696
1.50047
1.49477
1.49022
1.48662
1.4845
1.48297
1.48057
1.47454
1.46676
1.45896
1.45068
1.44209
1.43435
1.42744
1.42171
1.41779
1.41485
1.41082
1.40494
1.39843
1.39143
1.38515
1.37928
1.37319
1.36856
1.36761
1.36741
1.33029
1.33108
1.33116
1.331
1.32827
1.32167
1.31781
1.31784
1.31842
1.31911
1.31953
1.32108
1.3229
1.32275
1.32013
1.31577
1.31044
1.30239
1.29552
1.29429
1.29456
1.29578
1.29892
1.30482
1.31198
1.31528
1.31458
1.31092
1.3052
1.29833
1.29343
1.29096
1.29006
1.29012
1.29014
1.28917
1.28725
1.28408
1.28123
1.28053
1.28062
1.28139
1.28324
1.28623
1.28743
1.28726
1.28671
1.28387
1.27831
1.27498
1.27427
1.27408
1.27427
1.27617
1.28011
1.28372
1.28547
1.28632
1.2859
1.28306
1.27732
1.27104
1.26802
1.26798
1.26957
1.27758
1.29837
1.3405
1.39937
1.46732
1.52934
1.57039
1.60219
1.62283
1.61846
1.62294
1.62301
1.62306
1.61963
1.61429
1.61068
1.60675
1.60347
1.59929
1.59426
1.58849
1.58074
1.56988
1.55525
1.54244
1.53433
1.52768
1.52253
1.51957
1.51684
1.51477
1.51326
1.5098
1.50247
1.49386
1.48565
1.47831
1.47213
1.46688
1.46237
1.45882
1.45747
1.45717
1.45623
1.45159
1.445
1.43844
1.4316
1.42411
1.41713
1.41088
1.40506
1.40048
1.39873
1.39753
1.39395
1.38637
1.37682
1.36793
1.36262
1.35935
1.35704
1.35533
1.35053
1.32307
1.32304
1.32273
1.32053
1.31449
1.30844
1.30761
1.30789
1.30895
1.31044
1.31261
1.31549
1.31596
1.31436
1.31087
1.30594
1.29855
1.2906
1.28823
1.28824
1.28902
1.29236
1.29916
1.30664
1.30897
1.30777
1.30377
1.29783
1.29089
1.2866
1.28457
1.28383
1.28393
1.28403
1.28301
1.28047
1.27626
1.27249
1.27153
1.27151
1.27181
1.27331
1.27724
1.2809
1.28148
1.28139
1.27907
1.27301
1.26833
1.26663
1.26579
1.26561
1.26654
1.26982
1.27317
1.27424
1.27457
1.2738
1.27098
1.26537
1.26249
1.26262
1.2663
1.28202
1.31719
1.37868
1.44618
1.50956
1.56361
1.59014
1.59994
1.61611
1.62064
1.6141
1.60736
1.60464
1.60186
1.59986
1.59425
1.58672
1.58277
1.58151
1.57839
1.57252
1.5654
1.55737
1.54918
1.54031
1.52933
1.51843
1.51032
1.5038
1.49985
1.50008
1.50257
1.50323
1.49966
1.49049
1.48124
1.47133
1.46038
1.45207
1.44667
1.4421
1.43815
1.43563
1.43463
1.43423
1.43349
1.43057
1.42523
1.41945
1.41311
1.4061
1.39944
1.39362
1.38817
1.38388
1.3828
1.38278
1.38111
1.37517
1.36727
1.35783
1.34988
1.34556
1.34156
1.33765
1.33099
1.31511
1.31501
1.31343
1.30781
1.29987
1.29753
1.2975
1.29801
1.29972
1.30272
1.30711
1.30851
1.30769
1.3056
1.30168
1.29507
1.28681
1.28319
1.28291
1.2834
1.28646
1.29338
1.30049
1.30199
1.30046
1.29644
1.29034
1.28354
1.27976
1.27807
1.27745
1.27764
1.27784
1.277
1.27447
1.26985
1.26509
1.26347
1.26328
1.26331
1.26435
1.26843
1.27363
1.2754
1.27551
1.27387
1.26789
1.26235
1.26001
1.25846
1.2576
1.25789
1.26042
1.26394
1.26424
1.26372
1.26262
1.25968
1.2572
1.259
1.26766
1.29469
1.34496
1.4151
1.48914
1.5468
1.5879
1.61573
1.61447
1.60587
1.60615
1.60715
1.60253
1.59417
1.58795
1.58301
1.5795
1.57238
1.56538
1.56133
1.55927
1.55554
1.5506
1.54572
1.53951
1.53174
1.52346
1.5152
1.50665
1.49853
1.4915
1.48554
1.48394
1.48609
1.48947
1.48811
1.47953
1.46946
1.46058
1.45077
1.43933
1.43084
1.42617
1.42214
1.41853
1.41678
1.41549
1.41389
1.41187
1.40895
1.40447
1.39919
1.3936
1.38756
1.3821
1.37736
1.37289
1.37075
1.37092
1.37133
1.3701
1.3652
1.35888
1.35049
1.33808
1.32835
1.32361
1.32084
1.31531
1.30772
1.30662
1.30221
1.29311
1.28823
1.28788
1.28792
1.28881
1.29187
1.29773
1.30045
1.30016
1.29931
1.29659
1.29082
1.28283
1.2786
1.27818
1.27859
1.28123
1.28762
1.29392
1.2948
1.29306
1.2891
1.283
1.27647
1.2731
1.2716
1.27108
1.27137
1.27161
1.27087
1.26864
1.26417
1.25882
1.2564
1.25582
1.25566
1.25638
1.26036
1.26631
1.26889
1.26914
1.26801
1.2627
1.25639
1.2538
1.25208
1.25047
1.25022
1.25163
1.25524
1.25622
1.25575
1.25465
1.25333
1.2571
1.27395
1.31703
1.38325
1.45892
1.52813
1.56926
1.5889
1.61074
1.62143
1.61802
1.60489
1.59838
1.59449
1.58798
1.57994
1.57329
1.56764
1.56235
1.55464
1.54755
1.54235
1.53973
1.53602
1.53051
1.52645
1.5222
1.51613
1.50868
1.50042
1.49229
1.48571
1.48067
1.47667
1.47363
1.47128
1.46947
1.46738
1.46382
1.45796
1.44998
1.44216
1.43405
1.42521
1.41657
1.41069
1.40686
1.40338
1.40083
1.39765
1.3935
1.389
1.38593
1.38347
1.37937
1.37457
1.37004
1.36609
1.36282
1.3617
1.36227
1.36282
1.36171
1.3566
1.35122
1.34671
1.3409
1.3312
1.3185
1.31041
1.30733
1.30311
1.30061
1.29732
1.28978
1.28129
1.27921
1.27914
1.2793
1.28133
1.28752
1.29185
1.29188
1.29174
1.29011
1.28527
1.27783
1.27362
1.27316
1.27375
1.27638
1.28211
1.2876
1.2881
1.28612
1.2821
1.27597
1.26969
1.26667
1.26527
1.26489
1.26529
1.2655
1.26467
1.26264
1.25859
1.25305
1.24997
1.24904
1.24863
1.24921
1.25304
1.25933
1.2622
1.26249
1.26165
1.25722
1.25022
1.24739
1.24601
1.2443
1.24328
1.24402
1.24743
1.25014
1.25053
1.252
1.26081
1.28674
1.33929
1.41616
1.48544
1.54601
1.59777
1.60669
1.60239
1.60532
1.60858
1.60501
1.59641
1.58855
1.58338
1.57603
1.56701
1.56026
1.55497
1.54827
1.54076
1.53366
1.52742
1.52279
1.51973
1.51408
1.50857
1.50435
1.49946
1.49318
1.48651
1.47969
1.47371
1.46911
1.46554
1.46248
1.45924
1.45514
1.4499
1.44464
1.43999
1.43581
1.43163
1.42695
1.4206
1.41412
1.40777
1.40037
1.39413