/*--------------------------------*- C++ -*----------------------------------*\
  =========                 |
  \\      /  F ield         | OpenFOAM: The Open Source CFD Toolbox
   \\    /   O peration     | Website:  https://openfoam.org
    \\  /    A nd           | Version:  7
     \\/     M anipulation  |
\*---------------------------------------------------------------------------*/
FoamFile
{
    version     2.0;
    format      ascii;
    class       volScalarField;
    location    "1.6";
    object      rho;
}
// * * * * * * * * * * * * * * * * * * * * * * * * * * * * * * * * * * * * * //

dimensions      [1 -3 0 0 0 0 0];

internalField   nonuniform List<scalar> 
4128
(
0.975993
0.976058
0.977398
0.97818
0.977217
0.975343
0.972351
0.968193
0.963129
0.957554
0.952516
0.951407
0.953937
0.971602
1.03575
1.17465
1.35326
1.48219
1.51387
1.53157
1.54371
1.54549
1.54738
1.54754
1.54237
1.5357
1.53165
1.52979
1.5305
1.5333
1.53236
1.5271
1.51859
1.50624
1.49565
1.49367
1.49684
1.51311
1.55356
1.61316
1.68254
1.74735
1.77011
1.77736
1.78045
1.78006
1.77904
1.77405
1.769
1.76357
1.76019
1.76186
1.76647
1.76743
1.76651
1.76537
1.76397
1.76235
1.76217
1.76278
1.75881
1.75349
1.748
1.74023
1.72957
1.72198
1.71739
1.71399
1.71198
1.71102
1.71118
1.71453
1.72319
1.73142
1.73059
1.72646
1.72153
1.71455
1.70377
1.69087
1.68226
1.67767
1.67544
1.67771
1.6863
1.69072
1.68928
1.68621
1.68242
1.67718
1.66724
1.65016
1.63495
1.62867
1.62633
1.62692
1.63444
1.64502
1.65577
1.65757
1.6548
1.6489
1.63862
1.62827
1.62424
1.62189
1.62008
1.61951
1.62069
1.61963
1.61449
1.60633
1.59564
1.58607
1.58104
1.57824
1.5764
1.57479
1.57291
1.57076
1.5676
1.56417
1.56245
1.56249
1.56946
1.58194
1.58736
1.58689
1.58018
0.988837
0.988046
0.98706
0.985301
0.982591
0.97925
0.975521
0.971529
0.967373
0.964845
0.965616
0.972908
1.00553
1.10588
1.27581
1.43034
1.50724
1.55262
1.56809
1.56769
1.56613
1.56149
1.55332
1.54838
1.54597
1.54579
1.54901
1.55464
1.55734
1.55318
1.54663
1.53751
1.52434
1.51097
1.50698
1.51024
1.52717
1.57021
1.63521
1.70785
1.7631
1.78837
1.79945
1.79863
1.79297
1.78691
1.78423
1.78522
1.78904
1.79063
1.78485
1.77393
1.7681
1.76536
1.76388
1.7648
1.77017
1.77887
1.78408
1.78107
1.77566
1.7703
1.76405
1.7554
1.7446
1.73595
1.73041
1.72647
1.7241
1.72409
1.72797
1.73379
1.73876
1.73967
1.73565
1.73028
1.72446
1.71815
1.71148
1.704
1.69808
1.69415
1.69192
1.69206
1.69394
1.69276
1.68979
1.68693
1.68386
1.68023
1.6758
1.66833
1.65698
1.64608
1.64005
1.6374
1.63675
1.63941
1.64586
1.65673
1.6598
1.65761
1.65201
1.64071
1.62995
1.62601
1.62325
1.62102
1.62053
1.6246
1.62923
1.62745
1.62066
1.60709
1.59028
1.58246
1.57958
1.57725
1.57538
1.57401
1.57287
1.57154
1.57052
1.57082
1.57678
1.58766
1.59142
1.58997
1.58398
0.998749
0.995259
0.992401
0.989491
0.986293
0.982866
0.979628
0.977473
0.977538
0.981647
0.996863
1.05848
1.20208
1.36896
1.4841
1.55213
1.58355
1.59229
1.59103
1.58116
1.56513
1.55751
1.55323
1.55237
1.55895
1.56938
1.57636
1.57559
1.57034
1.5616
1.54879
1.53655
1.52713
1.5256
1.53072
1.55085
1.59477
1.66547
1.7309
1.77338
1.79853
1.81408
1.81332
1.806
1.80053
1.79673
1.79825
1.80816
1.81531
1.8129
1.80308
1.7848
1.76989
1.76382
1.76132
1.7648
1.77977
1.79624
1.79899
1.79471
1.78982
1.78487
1.77724
1.7675
1.75824
1.75079
1.74474
1.74005
1.73807
1.74077
1.74761
1.75096
1.74707
1.74192
1.73679
1.73084
1.72489
1.72053
1.71764
1.71637
1.71547
1.71484
1.71121
1.70487
1.69756
1.69182
1.68781
1.68473
1.68243
1.68154
1.68158
1.68047
1.67721
1.67034
1.65938
1.64919
1.64369
1.64086
1.64108
1.64984
1.66154
1.66225
1.65913
1.65124
1.63741
1.6283
1.62475
1.62186
1.62028
1.62568
1.63945
1.64442
1.64143
1.63415
1.61634
1.59175
1.58187
1.57892
1.57683
1.57564
1.57571
1.57674
1.57717
1.57853
1.58341
1.58979
1.59066
1.5889
1.58439
1.0031
0.999295
0.996723
0.994267
0.99163
0.989164
0.988009
0.990062
1.0003
1.03464
1.13188
1.29613
1.45502
1.54751
1.5973
1.60926
1.60571
1.59302
1.58483
1.57785
1.57096
1.56713
1.56811
1.57344
1.58133
1.58633
1.5841
1.57906
1.57163
1.56125
1.54979
1.54316
1.54347
1.55112
1.57512
1.62387
1.69413
1.7586
1.79587
1.81753
1.8241
1.81809
1.813
1.81225
1.81472
1.82024
1.82832
1.83369
1.83089
1.82325
1.80995
1.79386
1.78275
1.77725
1.77477
1.77867
1.79429
1.80845
1.80882
1.80501
1.79959
1.79084
1.78102
1.77321
1.76841
1.76436
1.76125
1.75955
1.76077
1.76487
1.76319
1.75726
1.75085
1.74316
1.73575
1.73062
1.72647
1.72341
1.72399
1.73089
1.73449
1.73161
1.72577
1.71698
1.70544
1.69472
1.68811
1.68483
1.6831
1.68488
1.68975
1.69218
1.69092
1.6872
1.67935
1.66536
1.65279
1.6471
1.64512
1.64838
1.65972
1.66455
1.66287
1.65765
1.64542
1.63206
1.62693
1.62393
1.62214
1.62732
1.64424
1.65482
1.65418
1.65065
1.64276
1.62138
1.5933
1.58215
1.57916
1.57735
1.57717
1.57941
1.58192
1.5842
1.58774
1.59112
1.59009
1.58822
1.5852
1.00535
1.00341
1.00195
1.00048
0.998851
0.998875
1.00417
1.02422
1.08506
1.22112
1.39747
1.52278
1.60484
1.6224
1.6183
1.60888
1.60359
1.59945
1.59811
1.59724
1.59374
1.59016
1.58798
1.58616
1.58559
1.58772
1.58558
1.58047
1.5734
1.56448
1.55906
1.55944
1.56784
1.59542
1.65071
1.71991
1.7818
1.82203
1.83953
1.83603
1.82398
1.81908
1.81872
1.8288
1.84419
1.85436
1.85445
1.84766
1.8356
1.8228
1.81109
1.80404
1.79957
1.79738
1.79861
1.80496
1.8128
1.81679
1.81444
1.80842
1.79843
1.78701
1.78021
1.7768
1.77535
1.77592
1.77985
1.78727
1.78905
1.78226
1.77161
1.76115
1.75186
1.7439
1.73765
1.73333
1.7303
1.73044
1.73843
1.74647
1.74506
1.74044
1.73435
1.72599
1.71588
1.70596
1.69818
1.69415
1.69296
1.69494
1.69711
1.69721
1.69642
1.69367
1.68922
1.68195
1.67223
1.66419
1.65987
1.65885
1.66288
1.66632
1.66493
1.66095
1.65161
1.63816
1.63098
1.62761
1.62579
1.63067
1.6482
1.66012
1.66006
1.65728
1.6537
1.646
1.62497
1.59621
1.58208
1.57835
1.57664
1.57789
1.58374
1.5883
1.59099
1.59124
1.58909
1.58766
1.58562
1.00906
1.00816
1.00758
1.00734
1.00996
1.02116
1.05923
1.16213
1.32883
1.48005
1.60087
1.62069
1.61992
1.62282
1.62866
1.63105
1.63092
1.62781
1.62248
1.61581
1.60685
1.59885
1.59432
1.59205
1.59164
1.59323
1.59077
1.58547
1.57918
1.57423
1.57498
1.58436
1.61466
1.67312
1.74338
1.80268
1.84508
1.85521
1.844
1.8343
1.82931
1.82806
1.83832
1.85792
1.87202
1.87378
1.86928
1.85656
1.8352
1.82196
1.81691
1.81413
1.81535
1.82199
1.8311
1.83483
1.83043
1.82304
1.81466
1.80399
1.79208
1.78477
1.78021
1.77738
1.77903
1.78929
1.80335
1.80964
1.80636
1.79563
1.77891
1.76454
1.75503
1.74889
1.74473
1.74189
1.74166
1.74759
1.75625
1.75544
1.7504
1.74463
1.73852
1.73279
1.72753
1.72251
1.71699
1.71165
1.70827
1.70617
1.70311
1.70032
1.69761
1.69419
1.69165
1.69071
1.68918
1.68638
1.68475
1.68016
1.67276
1.6695
1.66763
1.66306
1.65457
1.64385
1.63621
1.63264
1.63148
1.63724
1.6532
1.66225
1.66171
1.65925
1.65607
1.65189
1.64455
1.62703
1.60146
1.58421
1.57886
1.57808
1.58439
1.59183
1.59231
1.59058
1.58868
1.58682
1.58471
1.013
1.01239
1.01374
1.01983
1.04279
1.11142
1.25283
1.43561
1.59808
1.62721
1.62315
1.63211
1.64413
1.65633
1.66661
1.66644
1.66005
1.64893
1.63103
1.61605
1.60935
1.60457
1.60151
1.60101
1.60194
1.59975
1.59524
1.59062
1.58926
1.59165
1.60514
1.63937
1.7036
1.7718
1.82906
1.86705
1.86757
1.8527
1.84467
1.83986
1.83822
1.84559
1.86389
1.88084
1.88663
1.88492
1.87716
1.85841
1.83768
1.82759
1.8234
1.82462
1.83719
1.85214
1.85557
1.85039
1.84246
1.83062
1.81396
1.79794
1.78952
1.78547
1.78229
1.78224
1.79266
1.81054
1.81996
1.81861
1.81373
1.80333
1.78584
1.77137
1.76436
1.75962
1.75679
1.75749
1.7642
1.76895
1.76603
1.76058
1.75345
1.74665
1.74272
1.73995
1.73944
1.74152
1.74107
1.73681
1.72907
1.71685
1.70548
1.69865
1.6935
1.69014
1.68969
1.69396
1.70239
1.70834
1.70787
1.70295
1.6917
1.6762
1.66736
1.66122
1.65517
1.6496
1.64398
1.64057
1.64074
1.64845
1.65561
1.65559
1.65467
1.65395
1.65278
1.65052
1.64686
1.64163
1.63147
1.61617
1.60052
1.5911
1.58847
1.58721
1.58568
1.58407
1.58197
1.57994
1.57897
1.017
1.01787
1.02928
1.06981
1.18017
1.36119
1.54849
1.62925
1.65966
1.6686
1.66505
1.66664
1.67803
1.68628
1.68469
1.67902
1.67035
1.65695
1.63821
1.62552
1.62008
1.61618
1.61345
1.61108
1.60847
1.60473
1.60173
1.60282
1.60864
1.62799
1.6692
1.73641
1.81509
1.8631
1.88665
1.88849
1.87861
1.8611
1.85144
1.84643
1.84914
1.86705
1.88659
1.89437
1.89338
1.88787
1.8754
1.85786
1.84648
1.84078
1.83868
1.84489
1.86271
1.87016
1.86455
1.8567
1.8473
1.83379
1.81815
1.80738
1.80161
1.79769
1.79544
1.79872
1.81354
1.82527
1.82498
1.82142
1.81637
1.80739
1.79397
1.78296
1.77739
1.77426
1.77435
1.78171
1.78692
1.78342
1.77582
1.76553
1.75701
1.75206
1.74894
1.74767
1.75124
1.75723
1.75684
1.75263
1.74558
1.73106
1.7102
1.69757
1.69288
1.68988
1.68921
1.69883
1.71513
1.72247
1.72114
1.71743
1.70921
1.68766
1.66604
1.66097
1.6587
1.6561
1.6535
1.65169
1.6536
1.65935
1.65712
1.65121
1.64574
1.64187
1.63954
1.63937
1.64251
1.64371
1.64415
1.64379
1.63797
1.62253
1.60054
1.58737
1.58167
1.57797
1.57569
1.57374
1.57367
1.02448
1.03961
1.11233
1.26802
1.47225
1.60131
1.6788
1.70467
1.7033
1.69881
1.69093
1.68339
1.68166
1.68775
1.69227
1.68933
1.68319
1.67119
1.65299
1.63969
1.63315
1.62835
1.62439
1.62025
1.61673
1.61607
1.61868
1.62761
1.65001
1.69689
1.76602
1.84208
1.8949
1.91958
1.91938
1.90912
1.88563
1.86812
1.86117
1.85927
1.87078
1.89122
1.89959
1.89769
1.89292
1.88384
1.87091
1.8642
1.86203
1.86104
1.8631
1.86834
1.87438
1.87409
1.86713
1.85954
1.8504
1.83835
1.82804
1.8228
1.81937
1.81698
1.81651
1.82145
1.82986
1.82946
1.82575
1.82158
1.81613
1.80956
1.80306
1.79811
1.79484
1.79389
1.79786
1.80304
1.79986
1.79349
1.78435
1.77327
1.76637
1.76237
1.75978
1.76011
1.7659
1.76822
1.76486
1.75989
1.7527
1.73947
1.72055
1.707
1.70163
1.69896
1.69985
1.7114
1.72454
1.72768
1.72526
1.72157
1.71422
1.69689
1.67571
1.66835
1.66588
1.66402
1.6636
1.66631
1.66903
1.6652
1.65764
1.64882
1.63915
1.6323
1.62873
1.62679
1.62852
1.64081
1.6526
1.65717
1.65558
1.649
1.63128
1.60184
1.58251
1.57541
1.57129
1.56879
1.5691
1.06382
1.17108
1.36494
1.5576
1.67349
1.72411
1.73127
1.72295
1.70181
1.69277
1.68951
1.6908
1.69809
1.70652
1.7098
1.70687
1.69837
1.68205
1.66241
1.6518
1.646
1.64231
1.63933
1.63574
1.63444
1.63756
1.64649
1.67018
1.71758
1.79088
1.85733
1.91314
1.94586
1.9469
1.93721
1.91279
1.89607
1.88917
1.88522
1.88755
1.89731
1.90265
1.89969
1.8958
1.88959
1.88185
1.87782
1.87659
1.87651
1.87961
1.88209
1.87935
1.87488
1.8734
1.87087
1.86475
1.85721
1.84862
1.84405
1.84088
1.83891
1.83846
1.83932
1.84137
1.83843
1.83247
1.82649
1.82132
1.81637
1.81387
1.8127
1.81212
1.8123
1.81576
1.81749
1.81302
1.80605
1.79859
1.79057
1.78408
1.78055
1.77787
1.77645
1.77801
1.77748
1.77303
1.76788
1.76241
1.75489
1.74379
1.73254
1.72449
1.71972
1.71736
1.7186
1.72634
1.72967
1.72698
1.72363
1.71923
1.71242
1.70082
1.68664
1.68014
1.67816
1.67727
1.67865
1.68144
1.67915
1.67191
1.66116
1.64866
1.63627
1.62837
1.62491
1.62294
1.62288
1.63329
1.65422
1.6608
1.65887
1.65578
1.64933
1.63165
1.60091
1.57832
1.57098
1.56754
1.56794
1.25273
1.46522
1.63262
1.73641
1.75383
1.74382
1.72335
1.70984
1.70297
1.70065
1.70645
1.72108
1.72989
1.72766
1.72309
1.71532
1.70135
1.68472
1.6742
1.66837
1.66461
1.6626
1.65906
1.6562
1.6593
1.66906
1.6952
1.7423
1.8143
1.88012
1.92896
1.96083
1.96099
1.95279
1.93947
1.92646
1.91782
1.91444
1.91638
1.91826
1.9119
1.90424
1.89828
1.89435
1.89269
1.89208
1.89308
1.89475
1.89343
1.89146
1.8882
1.88337
1.87952
1.87991
1.88277
1.87926
1.87293
1.86501
1.86069
1.8575
1.85498
1.85432
1.85692
1.8565
1.85147
1.84354
1.83238
1.82549
1.8233
1.82163
1.82083
1.82269
1.82949
1.83254
1.82797
1.81929
1.80913
1.80121
1.79682
1.79344
1.79173
1.7924
1.79428
1.79226
1.78638
1.77801
1.76957
1.76217
1.75369
1.74585
1.74236
1.73886
1.73574
1.73393
1.73416
1.73375
1.72931
1.7243
1.71894
1.71337
1.70863
1.70353
1.69631
1.69237
1.69086
1.69104
1.69328
1.69212
1.68824
1.68249
1.67194
1.65426
1.6367
1.62845
1.62566
1.62418
1.62398
1.6269
1.6362
1.65172
1.6578
1.65536
1.65225
1.64637
1.63173
1.60489
1.58038
1.5723
1.57172
1.55683
1.72366
1.76146
1.76244
1.75637
1.74406
1.72754
1.71985
1.71792
1.72041
1.73069
1.74281
1.74369
1.73762
1.72782
1.71517
1.70318
1.69764
1.69327
1.68886
1.68469
1.67987
1.67675
1.67954
1.69171
1.72167
1.77484
1.84303
1.91051
1.94663
1.97539
1.97343
1.96506
1.95581
1.94766
1.9418
1.93944
1.93908
1.93702
1.93052
1.92137
1.91253
1.90725
1.90488
1.90651
1.9097
1.9094
1.9074
1.90207
1.89592
1.89225
1.8894
1.89004
1.89912
1.90415
1.90045
1.89275
1.88073
1.8725
1.86772
1.86378
1.86199
1.86527
1.8701
1.86761
1.86174
1.84973
1.83672
1.83199
1.82997
1.82889
1.83159
1.84076
1.84153
1.83576
1.82531
1.81283
1.80636
1.8026
1.80042
1.80069
1.80434
1.80508
1.80155
1.7967
1.78847
1.77597
1.76422
1.75625
1.75269
1.75087
1.74933
1.74676
1.74576
1.74402
1.73877
1.73204
1.72568
1.71954
1.71364
1.70829
1.70433
1.70223
1.70118
1.70073
1.70053
1.70036
1.70027
1.69879
1.69603
1.69108
1.67969
1.6585
1.63938
1.63272
1.63008
1.62799
1.6264
1.62594
1.63137
1.64468
1.65298
1.65235
1.64989
1.64633
1.6381
1.62075
1.59684
1.58136
1.73873
1.78939
1.79726
1.79297
1.7797
1.7603
1.73922
1.72865
1.7244
1.72377
1.73486
1.75163
1.75424
1.74917
1.73907
1.7246
1.71712
1.71336
1.70804
1.70244
1.69753
1.69493
1.69838
1.7142
1.75034
1.80825
1.88212
1.93714
1.97214
1.98765
1.99032
1.98387
1.97139
1.96213
1.95785
1.95765
1.95705
1.95172
1.94528
1.93812
1.9327
1.92941
1.92709
1.92844
1.92988
1.92629
1.92074
1.91147
1.90149
1.89827
1.89686
1.89927
1.91387
1.93012
1.93014
1.92245
1.90553
1.88656
1.87732
1.87214
1.86786
1.86664
1.87437
1.88428
1.8836
1.87958
1.87101
1.85459
1.84361
1.83991
1.83791
1.83909
1.84667
1.84708
1.84215
1.83398
1.82167
1.81327
1.80938
1.80704
1.80643
1.8078
1.80933
1.80841
1.80555
1.80094
1.79232
1.77846
1.76501
1.75901
1.75562
1.75295
1.75012
1.74849
1.74841
1.7451
1.74043
1.73581
1.73033
1.72295
1.71542
1.70965
1.70619
1.70412
1.70255
1.70106
1.69997
1.70154
1.70646
1.70935
1.70888
1.70517
1.69191
1.66394
1.64226
1.63433
1.62961
1.62614
1.62358
1.62246
1.62598
1.63616
1.64747
1.6516
1.65292
1.65179
1.64755
1.63488
1.59907
1.82576
1.82719
1.82058
1.80393
1.78275
1.75999
1.74332
1.73427
1.73
1.73086
1.74586
1.76424
1.76661
1.76231
1.75399
1.74032
1.72839
1.7204
1.71339
1.7092
1.71057
1.71748
1.73856
1.77988
1.84191
1.91405
1.96198
1.98974
2.01101
2.00855
2.00142
1.99319
1.98409
1.97866
1.97833
1.97406
1.96448
1.95512
1.94788
1.94377
1.9423
1.94715
1.95842
1.96175
1.95581
1.94196
1.92378
1.90801
1.90236
1.90166
1.90482
1.92089
1.94746
1.95804
1.95429
1.93896
1.90974
1.88811
1.88099
1.87631
1.87318
1.87677
1.89111
1.8987
1.89631
1.89258
1.8869
1.87289
1.85709
1.85056
1.84755
1.84741
1.85302
1.8532
1.849
1.84313
1.83338
1.82185
1.81552
1.81161
1.80851
1.80671
1.80815
1.81256
1.81344
1.81154
1.80804
1.80001
1.78275
1.76601
1.75867
1.75413
1.75037
1.74823
1.74847
1.75173
1.75208
1.75038
1.74746
1.74053
1.72683
1.71353
1.70718
1.70327
1.70011
1.69793
1.69768
1.70245
1.71364
1.7223
1.72395
1.72217
1.71483
1.69192
1.65653
1.6351
1.62756
1.62337
1.6207
1.61928
1.62096
1.62732
1.63785
1.65191
1.65786
1.65598
1.65277
1.64771
1.62292
1.84292
1.83209
1.81606
1.7977
1.78069
1.76928
1.76265
1.75569
1.75125
1.75314
1.76573
1.77651
1.77595
1.77147
1.76264
1.7468
1.73208
1.72388
1.71981
1.72157
1.73561
1.76582
1.81571
1.881
1.94381
1.98633
2.01029
2.02085
2.02345
2.02166
2.01492
2.0095
2.00643
2.00134
1.99154
1.97838
1.96466
1.9558
1.95089
1.95022
1.95949
1.97874
1.9899
1.98707
1.97451
1.9494
1.92357
1.91134
1.90867
1.9089
1.9194
1.94646
1.97016
1.97239
1.96636
1.94601
1.91321
1.89453
1.88799
1.88387
1.88371
1.89539
1.90835
1.90763
1.9034
1.89937
1.8942
1.88448
1.87171
1.86366
1.86003
1.85944
1.86199
1.85995
1.85579
1.85087
1.84322
1.83179
1.82142
1.8152
1.81098
1.80782
1.80705
1.8127
1.82005
1.8209
1.81825
1.81335
1.80242
1.78263
1.76518
1.7559
1.75118
1.7487
1.74929
1.75783
1.76484
1.76412
1.7604
1.75192
1.73377
1.71551
1.70728
1.7024
1.69862
1.69605
1.6975
1.70919
1.72276
1.72956
1.73002
1.72774
1.71998
1.70419
1.67953
1.65285
1.63256
1.62284
1.61957
1.61848
1.62124
1.62801
1.63292
1.63722
1.64544
1.65252
1.65172
1.64817
1.63488
1.84079
1.82602
1.81502
1.80305
1.7897
1.78403
1.77929
1.77482
1.7737
1.77838
1.78555
1.7865
1.78247
1.77542
1.76201
1.74462
1.7341
1.7298
1.73133
1.74879
1.78992
1.8513
1.91788
1.98005
2.01827
2.0302
2.02904
2.02815
2.03069
2.03752
2.03923
2.03646
2.0298
2.01788
1.99706
1.97508
1.9665
1.96228
1.96108
1.97076
1.99432
2.01079
2.00945
2.00027
1.97897
1.94923
1.93009
1.92328
1.92052
1.92335
1.94096
1.96627
1.97734
1.9761
1.96715
1.94482
1.91912
1.90703
1.9022
1.90002
1.90496
1.91784
1.91804
1.91175
1.90595
1.90052
1.89508
1.88985
1.88495
1.88009
1.87731
1.87582
1.87127
1.86604
1.86176
1.85711
1.85062
1.84175
1.83189
1.82319
1.81724
1.81372
1.81237
1.81638
1.82424
1.82549
1.82268
1.81808
1.81047
1.79805
1.78361
1.77111
1.76316
1.75971
1.76087
1.7697
1.77284
1.77042
1.76548
1.75425
1.73547
1.71883
1.7102
1.70426
1.70015
1.69882
1.7044
1.71974
1.72934
1.72968
1.72731
1.72352
1.71608
1.70427
1.69262
1.68028
1.66474
1.64665
1.63469
1.63117
1.63049
1.63088
1.63077
1.62963
1.62966
1.63502
1.64288
1.64373
1.63789
1.85543
1.83935
1.82127
1.80373
1.79216
1.78841
1.78492
1.78442
1.79373
1.80392
1.80258
1.79741
1.78988
1.77695
1.75798
1.74571
1.7417
1.74396
1.76287
1.81188
1.88151
1.94996
2.0079
2.04904
2.05255
2.04241
2.03718
2.03834
2.04882
2.0617
2.06525
2.05868
2.04607
2.02318
1.99367
1.97861
1.97387
1.9717
1.97966
2.0052
2.02637
2.02647
2.01904
2.00156
1.97352
1.95378
1.9467
1.94264
1.94276
1.95221
1.96792
1.97734
1.9775
1.97444
1.9606
1.9413
1.92837
1.92334
1.92094
1.92269
1.93103
1.93031
1.92271
1.91454
1.90515
1.89858
1.89543
1.89412
1.89507
1.89809
1.89811
1.89267
1.88285
1.87312
1.86624
1.86071
1.85508
1.84953
1.84397
1.83736
1.83117
1.82714
1.82532
1.82572
1.82577
1.82491
1.82292
1.81823
1.81145
1.80402
1.79976
1.79557
1.78948
1.78625
1.78444
1.77909
1.77445
1.76965
1.76088
1.7472
1.73438
1.72571
1.72061
1.71707
1.71432
1.71493
1.72353
1.72784
1.72479
1.7214
1.71679
1.71072
1.70422
1.69876
1.69641
1.69528
1.69204
1.68227
1.66465
1.64696
1.63769
1.63239
1.62817
1.62492
1.62229
1.62134
1.62659
1.63769
1.63741
1.86055
1.84564
1.82127
1.8014
1.7946
1.79293
1.79413
1.80268
1.81478
1.81581
1.81033
1.80494
1.79428
1.7768
1.76323
1.75971
1.76403
1.78654
1.84007
1.91698
1.98092
2.03678
2.06818
2.06387
2.05855
2.05461
2.05342
2.06045
2.07412
2.08192
2.07813
2.06808
2.04942
2.02132
1.99784
1.99127
1.98909
1.99367
2.01571
2.03967
2.0406
2.03304
2.01797
1.99279
1.97096
1.96366
1.95919
1.95875
1.97102
1.98929
1.99114
1.98671
1.97982
1.96702
1.9511
1.94073
1.93796
1.93685
1.9405
1.94925
1.94937
1.94179
1.92999
1.91572
1.90511
1.90038
1.89748
1.89649
1.90147
1.91099
1.9121
1.90778
1.8986
1.88392
1.87049
1.8633
1.85947
1.8564
1.85404
1.85139
1.84962
1.84919
1.84533
1.83782
1.83059
1.82503
1.81787
1.81
1.80615
1.80572
1.80643
1.81257
1.81967
1.81894
1.81203
1.79812
1.78043
1.76405
1.74929
1.73786
1.73274
1.72985
1.72754
1.72774
1.73372
1.7401
1.73794
1.73211
1.7256
1.71631
1.70569
1.6966
1.69297
1.69245
1.69741
1.70829
1.71311
1.70998
1.69832
1.67134
1.64136
1.62777
1.62218
1.61893
1.61634
1.61503
1.61779
1.63123
1.64126
1.85462
1.84068
1.82655
1.81579
1.81052
1.80948
1.81359
1.82308
1.82414
1.818
1.81133
1.80323
1.79285
1.78296
1.7831
1.7911
1.81908
1.87779
1.95886
2.02203
2.06542
2.08964
2.08319
2.07201
2.06946
2.06976
2.07783
2.09072
2.09696
2.09327
2.08506
2.0689
2.04359
2.0222
2.01481
2.01226
2.01533
2.03099
2.05147
2.05451
2.04593
2.02987
2.00639
1.9838
1.9752
1.97145
1.97099
1.98219
2.0044
2.01366
2.00938
1.99998
1.98261
1.95938
1.9475
1.9451
1.94385
1.94738
1.96066
1.96758
1.96376
1.95549
1.94081
1.9219
1.91021
1.90519
1.90224
1.90116
1.90608
1.91687
1.91913
1.91656
1.91091
1.89786
1.87957
1.86957
1.86527
1.86217
1.8605
1.86197
1.86772
1.86931
1.86477
1.85511
1.84115
1.82629
1.8148
1.80736
1.80371
1.80211
1.80826
1.82659
1.84026
1.84045
1.83556
1.82301
1.79229
1.75775
1.74147
1.73566
1.73308
1.73203
1.73583
1.74797
1.75906
1.75833
1.75188
1.7405
1.72286
1.70407
1.69365
1.69036
1.68934
1.69079
1.7029
1.71978
1.72362
1.72008
1.71204
1.69205
1.65506
1.62895
1.62109
1.61741
1.6148
1.61364
1.61727
1.62554
1.62939
1.85136
1.84408
1.8388
1.83301
1.82717
1.82565
1.8287
1.83085
1.82682
1.8198
1.81109
1.79932
1.7958
1.79876
1.81304
1.85143
1.91891
2.00097
2.06738
2.10104
2.11781
2.10744
2.09075
2.08358
2.082
2.09271
2.11001
2.11699
2.11192
2.10236
2.08547
2.06059
2.04279
2.03652
2.03455
2.04047
2.05494
2.06837
2.06775
2.05915
2.04282
2.0189
1.99469
1.985
1.98167
1.9815
1.99241
2.01448
2.02702
2.02339
2.01606
2.00417
1.98221
1.96065
1.95328
1.95126
1.95109
1.95936
1.97493
1.97806
1.97454
1.96855
1.95556
1.93596
1.92254
1.91565
1.91149
1.90967
1.91217
1.92005
1.92325
1.92159
1.91788
1.90871
1.89248
1.87909
1.87277
1.86945
1.86828
1.87336
1.88216
1.88218
1.8777
1.86739
1.84739
1.82603
1.81378
1.80915
1.80639
1.80514
1.81363
1.83629
1.84996
1.84799
1.84267
1.83206
1.80329
1.76046
1.74182
1.73796
1.73579
1.73704
1.75049
1.76818
1.77069
1.76603
1.75794
1.74161
1.71532
1.69717
1.69052
1.68848
1.68747
1.69259
1.7122
1.7271
1.72593
1.7207
1.71217
1.69811
1.67413
1.64445
1.62646
1.62094
1.61899
1.61845
1.62121
1.62466
1.62333
1.85726
1.85455
1.84972
1.84613
1.84554
1.84594
1.84497
1.84159
1.83546
1.82454
1.81067
1.80502
1.80732
1.82421
1.87178
1.95331
2.03722
2.10314
2.14408
2.15043
2.13483
2.11797
2.11049
2.10786
2.11587
2.12967
2.13445
2.12911
2.12011
2.10301
2.07748
2.06072
2.05515
2.05359
2.06269
2.08284
2.09243
2.08778
2.07622
2.05749
2.03301
2.00984
1.99906
1.99464
1.99342
2.00102
2.02107
2.03518
2.03262
2.02553
2.01605
2.00385
1.98878
1.97631
1.97104
1.96875
1.96854
1.97536
1.9849
1.98486
1.98181
1.97781
1.96982
1.95476
1.93973
1.93052
1.92457
1.92194
1.92386
1.92703
1.92531
1.92275
1.91987
1.91315
1.90131
1.89124
1.88512
1.88166
1.8815
1.88816
1.8927
1.89032
1.88535
1.87366
1.84912
1.82676
1.81817
1.81449
1.81181
1.81233
1.82633
1.84597
1.84885
1.84583
1.84075
1.8314
1.81187
1.78187
1.75699
1.74748
1.74517
1.74845
1.76591
1.77701
1.77403
1.76765
1.75834
1.74044
1.7136
1.69576
1.69115
1.68926
1.68986
1.70241
1.72166
1.7229
1.71883
1.71338
1.70614
1.69736
1.68559
1.67062
1.65218
1.63599
1.6291
1.62774
1.62527
1.62061
1.61713
1.8618
1.8593
1.85623
1.85622
1.86234
1.86531
1.86288
1.85847
1.84871
1.83368
1.82449
1.82624
1.84338
1.8907
1.97841
2.06906
2.13192
2.1779
2.17674
2.16023
2.14818
2.14298
2.14084
2.14728
2.15805
2.15417
2.14435
2.13465
2.11858
2.09486
2.07639
2.06985
2.06724
2.07477
2.09778
2.11303
2.1095
2.09969
2.0807
2.05
2.02717
2.01739
2.01172
2.00929
2.01347
2.02755
2.03967
2.0391
2.03344
2.02359
2.0124
2.0026
1.9947
1.98973
1.98778
1.98724
1.98832
1.99275
1.9934
1.98978
1.98569
1.98137
1.97589
1.96721
1.95667
1.94865
1.94297
1.9411
1.93808
1.93332
1.93072
1.92652
1.9202
1.913
1.90619
1.90138
1.89768
1.89628
1.90017
1.90303
1.89996
1.89587
1.88948
1.87461
1.85364
1.83838
1.83055
1.82589
1.82365
1.82671
1.83861
1.84217
1.83934
1.83514
1.82903
1.82155
1.813
1.80173
1.78774
1.77511
1.76892
1.76794
1.76986
1.76808
1.76551
1.76089
1.75289
1.73881
1.72186
1.71008
1.70374
1.70092
1.70196
1.71121
1.72018
1.72007
1.71515
1.70636
1.69809
1.69246
1.68905
1.6848
1.6774
1.66446
1.64597
1.63133
1.62169
1.61454
1.61143
1.86924
1.86642
1.8663
1.8705
1.87734
1.87641
1.87274
1.86812
1.85838
1.84984
1.85256
1.86978
1.91918
1.99901
2.09954
2.17034
2.18676
2.1976
2.19291
2.1808
2.17124
2.1673
2.16956
2.17824
2.18019
2.1692
2.15308
2.13367
2.10932
2.09047
2.08389
2.0807
2.08604
2.10746
2.12522
2.12333
2.11491
2.10054
2.07654
2.05164
2.03953
2.0347
2.03186
2.0333
2.04369
2.04875
2.04472
2.03811
2.02915
2.01964
2.00931
2.00328
1.99973
1.99829
1.99888
2.00199
2.00506
2.00347
1.99939
1.99371
1.98731
1.98273
1.97951
1.976
1.97332
1.97333
1.9726
1.9658
1.95389
1.94054
1.92731
1.91812
1.91227
1.9091
1.9081
1.90732
1.90931
1.91836
1.92159
1.91643
1.90852
1.8988
1.88424
1.86947
1.85758
1.85014
1.8446
1.84075
1.84026
1.84664
1.8474
1.84203
1.83594
1.82756
1.81691
1.80964
1.80807
1.80871
1.80772
1.80728
1.80213
1.78945
1.77449
1.76149
1.75281
1.74731
1.74108
1.73367
1.72954
1.7273
1.72438
1.72152
1.72129
1.72194
1.71908
1.71492
1.70939
1.70101
1.69509
1.69299
1.69346
1.69505
1.69275
1.68628
1.66849
1.63879
1.61944
1.61043
1.60785
1.88966
1.88662
1.88784
1.89008
1.8886
1.88212
1.87634
1.87013
1.86708
1.87431
1.89855
1.9503
2.03873
2.12211
2.19512
2.22358
2.2174
2.21232
2.20781
2.19594
2.18827
2.19032
2.19826
2.19915
2.19083
2.17805
2.15844
2.13032
2.10789
2.10042
2.0971
2.09817
2.11348
2.13077
2.12897
2.12113
2.11129
2.09592
2.07601
2.06462
2.06084
2.05849
2.05914
2.06654
2.06885
2.06273
2.05256
2.04028
2.02748
2.01706
2.01143
2.00681
2.00432
2.0056
2.00965
2.01188
2.01013
2.00715
2.00349
1.9965
1.98891
1.98564
1.98415
1.98472
1.99073
1.9975
1.99674
1.98754
1.96718
1.94216
1.92347
1.91347
1.90915
1.9065
1.90511
1.91073
1.9271
1.93849
1.93606
1.92791
1.91297
1.89276
1.87527
1.86585
1.86272
1.8596
1.85773
1.85977
1.86425
1.86078
1.85317
1.84506
1.83335
1.81955
1.80964
1.80626
1.80518
1.80929
1.82131
1.82715
1.82401
1.81308
1.79047
1.76242
1.74175
1.73282
1.72926
1.72774
1.73046
1.73703
1.7435
1.74458
1.74041
1.73132
1.71954
1.70792
1.70091
1.69776
1.69616
1.69545
1.69866
1.70112
1.69826
1.69347
1.68177
1.6518
1.62146
1.60985
1.60691
1.91246
1.91186
1.90978
1.90437
1.89482
1.88718
1.88028
1.87977
1.88905
1.92688
1.98659
2.07075
2.16681
2.21875
2.2483
2.24777
2.23234
2.21466
2.2095
2.20291
2.20444
2.21473
2.21371
2.20732
2.19907
2.18385
2.16045
2.13929
2.12696
2.12052
2.11838
2.12352
2.1361
2.13601
2.12868
2.11892
2.10709
2.09261
2.08356
2.08086
2.07905
2.07958
2.08495
2.08812
2.08281
2.07366
2.06112
2.04395
2.02944
2.02295
2.01861
2.01468
2.01419
2.01952
2.01921
2.01504
2.01176
2.0068
2.00148
1.99637
1.99208
1.98934
1.98937
1.99638
2.00821
2.0116
2.00803
1.99728
1.97375
1.94394
1.92384
1.91428
1.9094
1.90659
1.9075
1.92368
1.94458
1.94588
1.93982
1.92911
1.90948
1.88524
1.87234
1.86929
1.86729
1.86646
1.87138
1.88184
1.88204
1.87468
1.86174
1.84249
1.82324
1.81209
1.80813
1.80621
1.80561
1.81349
1.8308
1.83605
1.83211
1.8244
1.80709
1.77161
1.74104
1.73003
1.7269
1.72514
1.7279
1.74429
1.7575
1.757
1.75258
1.74317
1.72425
1.70624
1.69937
1.69682
1.69525
1.69843
1.70491
1.70335
1.6996
1.69508
1.68656
1.66769
1.63813
1.61711
1.61192
1.91494
1.91765
1.91565
1.90857
1.89652
1.8939
1.89809
1.91098
1.95017
2.02949
2.10642
2.19165
2.25967
2.27486
2.27018
2.25641
2.2336
2.21529
2.20997
2.20904
2.22282
2.23258
2.22433
2.21674
2.20754
2.18969
2.16868
2.15893
2.15307
2.14885
2.14871
2.15271
2.14916
2.14039
2.13046
2.11928
2.1066
2.09935
2.09614
2.09496
2.09659
2.10111
2.10161
2.09668
2.0889
2.07982
2.06954
2.05694
2.04366
2.03561
2.03132
2.02873
2.03025
2.03
2.02317
2.01594
2.00913
2.00231
1.99803
1.99646
1.99545
1.99584
2.00177
2.01327
2.01851
2.01664
2.01004
1.99577
1.97331
1.95036
1.93491
1.92372
1.91745
1.91631
1.92375
1.93862
1.93984
1.93605
1.93038
1.91887
1.89889
1.88159
1.87662
1.87473
1.87415
1.87908
1.89222
1.89662
1.8917
1.8823
1.86577
1.83981
1.8166
1.80914
1.80686
1.8053
1.80629
1.81931
1.83728
1.83804
1.8332
1.82661
1.81553
1.78958
1.75193
1.73311
1.72881
1.72762
1.73369
1.75127
1.76177
1.76054
1.75557
1.74776
1.73287
1.71222
1.70173
1.69855
1.69698
1.69762
1.6991
1.69682
1.69342
1.68958
1.68415
1.67363
1.65754
1.63884
1.62384
1.88227
1.8948
1.89497
1.89203
1.88829
1.89736
1.9283
1.97061
2.04438
2.14211
2.20904
2.27775
2.29735
2.29393
2.27862
2.24569
2.21901
2.20827
2.20603
2.2127
2.2312
2.23729
2.2305
2.22331
2.21356
2.19641
2.18225
2.17532
2.17264
2.17828
2.18399
2.18017
2.16997
2.15439
2.13495
2.12186
2.11524
2.11046
2.10807
2.10952
2.11428
2.11359
2.10938
2.1034
2.09337
2.08371
2.07632
2.06891
2.0603
2.05246
2.04915
2.04649
2.04117
2.03327
2.02394
2.01425
2.00611
2.00187
1.99982
1.9989
2.00009
2.007
2.01868
2.02142
2.01867
2.0143
2.00366
1.98598
1.96942
1.95925
1.95264
1.94772
1.94431
1.94619
1.94993
1.94619
1.93845
1.92699
1.91302
1.89945
1.88892
1.88579
1.8849
1.88572
1.89196
1.90389
1.90911
1.90463
1.89629
1.88509
1.86623
1.83828
1.8163
1.80863
1.80584
1.8045
1.80704
1.81891
1.83111
1.83487
1.83216
1.82687
1.81944
1.80818
1.78796
1.75981
1.74129
1.73693
1.7369
1.74078
1.74633
1.75191
1.75336
1.74952
1.74175
1.73005
1.71447
1.70403
1.69957
1.69617
1.6942
1.69248
1.68916
1.68492
1.67991
1.67432
1.66914
1.66257
1.64382
1.73841
1.77413
1.80346
1.83277
1.86204
1.90127
1.96178
2.03793
2.1336
2.22528
2.28019
2.31569
2.31623
2.30854
2.28688
2.25194
2.22811
2.21992
2.22031
2.22851
2.23991
2.24431
2.23967
2.23152
2.21841
2.20201
2.19371
2.1885
2.18776
2.1986
2.20588
2.20057
2.18916
2.17003
2.14642
2.13247
2.12551
2.12052
2.11815
2.1206
2.12114
2.11768
2.11369
2.10802
2.09709
2.08838
2.08348
2.08009
2.07707
2.07314
2.06767
2.05951
2.04778
2.03536
2.02358
2.01363
2.00803
2.00484
2.00306
2.00442
2.01214
2.02359
2.02723
2.02356
2.01623
2.00361
1.98598
1.96934
1.96293
1.96102
1.96025
1.96417
1.97592
1.97975
1.97263
1.95746
1.94013
1.92023
1.90015
1.88841
1.88431
1.8825
1.88447
1.89413
1.91135
1.92003
1.91806
1.912
1.90153
1.88717
1.87033
1.85064
1.82885
1.81369
1.80936
1.8084
1.80976
1.81394
1.81613
1.81694
1.81881
1.81984
1.81784
1.8148
1.8098
1.79869
1.77848
1.75553
1.74469
1.74181
1.73976
1.73889
1.74101
1.7441
1.7421
1.73834
1.73216
1.72123
1.70635
1.69547
1.69
1.68777
1.68552
1.68285
1.68086
1.67985
1.67767
1.6746
1.66097
1.58948
1.61249
1.64353
1.69393
1.76618
1.86294
1.96417
2.06531
2.16475
2.23947
2.2854
2.31051
2.30663
2.29519
2.27464
2.25447
2.246
2.24731
2.25463
2.26265
2.26368
2.25925
2.25038
2.23853
2.223
2.20909
2.20246
2.1993
2.20152
2.21339
2.21704
2.21106
2.20018
2.18149
2.15875
2.14564
2.1378
2.13222
2.12966
2.12757
2.12394
2.12028
2.11637
2.10979
2.10013
2.09397
2.09113
2.09177
2.08916
2.08393
2.07837
2.06924
2.05316
2.03766
2.02848
2.02062
2.01418
2.01019
2.00893
2.01508
2.02783
2.03084
2.02671
2.02056
2.00962
1.99045
1.96981
1.96026
1.95797
1.9576
1.96483
1.98242
1.99704
1.99584
1.98773
1.97073
1.94481
1.9188
1.89894
1.88864
1.88378
1.88119
1.8837
1.90112
1.9185
1.92239
1.91992
1.91374
1.90412
1.89083
1.87795
1.86706
1.85358
1.83483
1.82143
1.81778
1.81501
1.81152