/*--------------------------------*- C++ -*----------------------------------*\
  =========                 |
  \\      /  F ield         | OpenFOAM: The Open Source CFD Toolbox
   \\    /   O peration     | Website:  https://openfoam.org
    \\  /    A nd           | Version:  7
     \\/     M anipulation  |
\*---------------------------------------------------------------------------*/
FoamFile
{
    version     2.0;
    format      ascii;
    class       volVectorField;
    location    "2";
    object      U;
}
// * * * * * * * * * * * * * * * * * * * * * * * * * * * * * * * * * * * * * //

dimensions      [0 1 -1 0 0 0 0];

internalField   nonuniform List<vector> 
16512
(
(2.15255 0.24672 0)
(2.15971 0.239616 0)
(2.1698 0.232092 0)
(2.18076 0.224731 0)
(2.1909 0.216045 0)
(2.19811 0.2042 0)
(2.19975 0.187271 0)
(2.19508 0.167603 0)
(2.19736 0.155972 0)
(2.20679 0.154808 0)
(2.21834 0.152946 0)
(2.23191 0.151676 0)
(2.24503 0.150196 0)
(2.25562 0.147536 0)
(2.26539 0.143797 0)
(2.27333 0.137224 0)
(2.27675 0.124491 0)
(2.27079 0.103377 0)
(2.26046 0.0800244 0)
(2.26185 0.0675573 0)
(2.26974 0.0661553 0)
(2.28046 0.0650047 0)
(2.29598 0.0657747 0)
(2.31045 0.0667579 0)
(2.31911 0.0651396 0)
(2.32854 0.062523 0)
(2.33618 0.0577066 0)
(2.33907 0.0466071 0)
(2.33238 0.0269027 0)
(2.32231 0.00498334 0)
(2.32286 -0.00744137 0)
(2.32948 -0.00939662 0)
(2.33867 -0.00998536 0)
(2.35335 -0.00875274 0)
(2.36588 -0.00852415 0)
(2.3737 -0.0107948 0)
(2.38165 -0.0143023 0)
(2.38692 -0.0209227 0)
(2.38626 -0.0349049 0)
(2.37981 -0.0538223 0)
(2.37987 -0.0661501 0)
(2.3865 -0.0691842 0)
(2.39382 -0.0724214 0)
(2.40124 -0.0758494 0)
(2.40769 -0.0794938 0)
(2.41308 -0.0827663 0)
(2.41693 -0.0875135 0)
(2.41644 -0.0954733 0)
(2.41553 -0.104631 0)
(2.42022 -0.110808 0)
(2.42638 -0.114714 0)
(2.43257 -0.118566 0)
(2.43847 -0.123156 0)
(2.44366 -0.128669 0)
(2.44757 -0.134516 0)
(2.44804 -0.141997 0)
(2.44291 -0.151729 0)
(2.44314 -0.158174 0)
(2.44935 -0.160441 0)
(2.45529 -0.16393 0)
(2.46174 -0.167605 0)
(2.46971 -0.17133 0)
(2.47636 -0.175587 0)
(2.48139 -0.179472 0)
(2.48542 -0.183771 0)
(2.48659 -0.188216 0)
(2.4841 -0.197022 0)
(2.48076 -0.205566 0)
(2.48154 -0.211291 0)
(2.4872 -0.21419 0)
(2.49285 -0.217252 0)
(2.49774 -0.220077 0)
(2.50369 -0.222828 0)
(2.50901 -0.224956 0)
(2.51366 -0.227501 0)
(2.51662 -0.231445 0)
(2.51631 -0.23828 0)
(2.51229 -0.249018 0)
(2.51303 -0.255057 0)
(2.51585 -0.256983 0)
(2.51959 -0.26112 0)
(2.52358 -0.264749 0)
(2.52825 -0.267523 0)
(2.53327 -0.270045 0)
(2.53859 -0.273765 0)
(2.54195 -0.277358 0)
(2.54046 -0.283516 0)
(2.53701 -0.291772 0)
(2.53646 -0.295091 0)
(2.53957 -0.297013 0)
(2.54298 -0.299606 0)
(2.54629 -0.302058 0)
(2.55114 -0.303608 0)
(2.55575 -0.306664 0)
(2.55821 -0.310933 0)
(2.55777 -0.315468 0)
(2.55517 -0.319872 0)
(2.55705 -0.32273 0)
(2.56033 -0.325138 0)
(2.56372 -0.327126 0)
(2.56883 -0.330684 0)
(2.57311 -0.334786 0)
(2.5764 -0.337595 0)
(2.57968 -0.340669 0)
(2.58203 -0.344275 0)
(2.58232 -0.34941 0)
(2.57977 -0.355302 0)
(2.58105 -0.359379 0)
(2.58335 -0.361985 0)
(2.58582 -0.364788 0)
(2.58953 -0.367267 0)
(2.59243 -0.370915 0)
(2.59451 -0.373134 0)
(2.59768 -0.37482 0)
(2.6007 -0.378741 0)
(2.60217 -0.381913 0)
(2.60109 -0.385028 0)
(2.59848 -0.390954 0)
(2.59817 -0.394511 0)
(2.6014 -0.397479 0)
(2.60442 -0.399868 0)
(2.609 -0.40143 0)
(2.6111 -0.401159 0)
(2.61229 -0.39886 0)
(2.61048 -0.392978 0)
(2.59955 -0.373282 0)
(2.57372 -0.322509 0)
(2.54653 -0.256978 0)
(2.49632 -0.16043 0)
(2.47064 -0.104143 0)
(2.47142 -0.0823563 0)
(2.45484 -0.0262446 0)
(2.44741 0.00458593 0)
(2.43444 0.00411063 0)
(2.43226 -0.000327834 0)
(2.43208 -0.00112635 0)
(2.42991 -0.00172631 0)
(2.42626 0.00198255 0)
(2.42026 0.00575987 0)
(2.41758 0.00603798 0)
(2.41587 0.0068541 0)
(2.41927 0.00995222 0)
(2.42892 0.0168242 0)
(2.43423 0.0228449 0)
(2.43398 0.0248614 0)
(2.43192 0.0261347 0)
(2.42764 0.0250039 0)
(2.42083 0.0211148 0)
(2.41377 0.0183244 0)
(2.41098 0.0182202 0)
(2.41038 0.0190743 0)
(2.4108 0.0221215 0)
(2.41544 0.0287194 0)
(2.42329 0.0366312 0)
(2.42671 0.0397869 0)
(2.42656 0.0398816 0)
(2.42541 0.0394204 0)
(2.42234 0.0376871 0)
(2.41625 0.032224 0)
(2.409 0.0249985 0)
(2.40739 0.0226582 0)
(2.40814 0.0225377 0)
(2.40941 0.0232355 0)
(2.41285 0.026602 0)
(2.41965 0.0340989 0)
(2.42634 0.0414415 0)
(2.42768 0.0438588 0)
(2.42687 0.0441868 0)
(2.42352 0.0433562 0)
(2.41731 0.0406759 0)
(2.41193 0.0370102 0)
(2.41086 0.0357253 0)
(2.41113 0.0355222 0)
(2.41195 0.0356934 0)
(2.41474 0.0376336 0)
(2.42017 0.0427325 0)
(2.42552 0.047959 0)
(2.42707 0.0497092 0)
(2.42716 0.0498784 0)
(2.42561 0.0486886 0)
(2.42148 0.045598 0)
(2.41537 0.0398696 0)
(2.41059 0.0345667 0)
(2.41013 0.0328576 0)
(2.41084 0.0324921 0)
(2.41146 0.0323616 0)
(2.41341 0.0333013 0)
(2.41786 0.0375163 0)
(2.42477 0.0447262 0)
(2.42927 0.0500005 0)
(2.42968 0.0511529 0)
(2.42862 0.0508386 0)
(2.42398 0.0477998 0)
(2.41593 0.0418119 0)
(2.41037 0.0363921 0)
(2.41059 0.0350829 0)
(2.41153 0.0348008 0)
(2.41276 0.0346119 0)
(2.41641 0.0361109 0)
(2.4243 0.0419274 0)
(2.4339 0.0493105 0)
(2.43739 0.0518464 0)
(2.43757 0.0517859 0)
(2.43598 0.0500384 0)
(2.4302 0.0454612 0)
(2.42062 0.037524 0)
(2.41493 0.0328565 0)
(2.41499 0.0322355 0)
(2.41554 0.0323859 0)
(2.41734 0.0336936 0)
(2.42187 0.0383231 0)
(2.42916 0.0458749 0)
(2.43376 0.0508638 0)
(2.43422 0.051701 0)
(2.43346 0.0511679 0)
(2.4302 0.0486862 0)
(2.42657 0.0456294 0)
(2.42563 0.0441271 0)
(2.42622 0.0436368 0)
(2.42713 0.0431712 0)
(2.42811 0.0424531 0)
(2.42901 0.0413998 0)
(2.42962 0.0399191 0)
(2.42987 0.0381041 0)
(2.43039 0.0367473 0)
(2.43125 0.0362554 0)
(2.43219 0.0358956 0)
(2.43394 0.03593 0)
(2.43673 0.0373731 0)
(2.43989 0.0397544 0)
(2.44131 0.0410024 0)
(2.44197 0.0414884 0)
(2.44194 0.0415321 0)
(2.43901 0.0391276 0)
(2.43477 0.0352182 0)
(2.4344 0.0333013 0)
(2.43553 0.0327365 0)
(2.4367 0.0322187 0)
(2.43851 0.0320441 0)
(2.44198 0.0331878 0)
(2.44611 0.0356004 0)
(2.44785 0.037192 0)
(2.4487 0.037794 0)
(2.4484 0.0391378 0)
(2.44512 0.0369106 0)
(2.43906 0.027296 0)
(2.41327 -0.00539346 0)
(2.3074 -0.144503 0)
(2.11206 -0.398944 0)
(2.04523 -0.438317 0)
(2.0126 -0.466759 0)
(1.98797 -0.504164 0)
(1.98324 -0.510533 0)
(1.98686 -0.507844 0)
(1.99995 -0.501647 0)
(2.00838 -0.493967 0)
(2.01021 -0.492044 0)
(2.01077 -0.494784 0)
(2.15426 0.260345 0)
(2.15886 0.249109 0)
(2.1677 0.239351 0)
(2.17753 0.23035 0)
(2.18577 0.219655 0)
(2.18978 0.20456 0)
(2.18789 0.186286 0)
(2.18988 0.173801 0)
(2.19904 0.172384 0)
(2.2105 0.170923 0)
(2.2243 0.16985 0)
(2.23734 0.168444 0)
(2.24799 0.165915 0)
(2.25776 0.162125 0)
(2.26572 0.155115 0)
(2.26913 0.141993 0)
(2.26393 0.121397 0)
(2.25415 0.0983852 0)
(2.25487 0.0851349 0)
(2.26268 0.0836226 0)
(2.27335 0.0825249 0)
(2.28902 0.0831318 0)
(2.30405 0.0839041 0)
(2.31293 0.0820062 0)
(2.3223 0.0790551 0)
(2.3299 0.0741119 0)
(2.33311 0.063224 0)
(2.32642 0.043481 0)
(2.3156 0.021321 0)
(2.31605 0.00919567 0)
(2.32267 0.0076567 0)
(2.33218 0.00734849 0)
(2.34726 0.00891975 0)
(2.35943 0.00935289 0)
(2.36734 0.00696738 0)
(2.37582 0.00264427 0)
(2.38139 -0.00445105 0)
(2.3811 -0.0181223 0)
(2.37423 -0.0370613 0)
(2.37259 -0.0506493 0)
(2.37911 -0.0535277 0)
(2.38739 -0.055512 0)
(2.39633 -0.058578 0)
(2.40294 -0.0612377 0)
(2.40924 -0.0650177 0)
(2.41344 -0.0695839 0)
(2.414 -0.0770357 0)
(2.41162 -0.0884444 0)
(2.41333 -0.0960582 0)
(2.41951 -0.099874 0)
(2.42623 -0.103408 0)
(2.43262 -0.107472 0)
(2.43851 -0.111776 0)
(2.44357 -0.117231 0)
(2.44647 -0.123475 0)
(2.44546 -0.132314 0)
(2.44155 -0.142337 0)
(2.44375 -0.148063 0)
(2.44991 -0.150202 0)
(2.45624 -0.153659 0)
(2.46226 -0.157042 0)
(2.46917 -0.160632 0)
(2.4757 -0.164892 0)
(2.48053 -0.169107 0)
(2.48389 -0.17319 0)
(2.4834 -0.178214 0)
(2.48 -0.188675 0)
(2.48024 -0.196692 0)
(2.48274 -0.199615 0)
(2.48797 -0.202594 0)
(2.49345 -0.206156 0)
(2.49797 -0.209893 0)
(2.50343 -0.212876 0)
(2.50834 -0.215645 0)
(2.51207 -0.217855 0)
(2.51368 -0.22276 0)
(2.51177 -0.229982 0)
(2.50981 -0.239709 0)
(2.51382 -0.243837 0)
(2.51732 -0.245977 0)
(2.52115 -0.250256 0)
(2.52428 -0.253644 0)
(2.52833 -0.256108 0)
(2.53285 -0.259699 0)
(2.53688 -0.263823 0)
(2.53882 -0.269608 0)
(2.53592 -0.276234 0)
(2.53532 -0.281931 0)
(2.53765 -0.284547 0)
(2.54022 -0.285734 0)
(2.54394 -0.288304 0)
(2.54683 -0.291794 0)
(2.55071 -0.293518 0)
(2.55518 -0.296034 0)
(2.5575 -0.30085 0)
(2.55647 -0.30665 0)
(2.55418 -0.31209 0)
(2.55697 -0.314481 0)
(2.56044 -0.316351 0)
(2.56369 -0.318723 0)
(2.56793 -0.321918 0)
(2.5727 -0.326502 0)
(2.57585 -0.329674 0)
(2.57891 -0.332189 0)
(2.58081 -0.335462 0)
(2.58042 -0.340018 0)
(2.57803 -0.34572 0)
(2.58012 -0.348728 0)
(2.58319 -0.350545 0)
(2.58565 -0.353136 0)
(2.58894 -0.356147 0)
(2.5925 -0.359572 0)
(2.59465 -0.362749 0)
(2.5974 -0.364945 0)
(2.60012 -0.367714 0)
(2.60133 -0.372298 0)
(2.59969 -0.377232 0)
(2.59658 -0.380774 0)
(2.59861 -0.385001 0)
(2.601 -0.386668 0)
(2.60454 -0.389017 0)
(2.60926 -0.393522 0)
(2.61307 -0.395082 0)
(2.61644 -0.397744 0)
(2.61692 -0.397814 0)
(2.61359 -0.395345 0)
(2.60966 -0.39046 0)
(2.60053 -0.374478 0)
(2.57822 -0.332271 0)
(2.54623 -0.2566 0)
(2.51923 -0.170951 0)
(2.48261 -0.0660758 0)
(2.47448 -0.0497337 0)
(2.47607 -0.0304289 0)
(2.45602 -0.0220722 0)
(2.44158 -0.0160426 0)
(2.43568 -0.0129063 0)
(2.4299 -0.00509202 0)
(2.42783 0.00322583 0)
(2.42601 0.00349075 0)
(2.42503 0.00292407 0)
(2.43011 0.00621746 0)
(2.43678 0.0121782 0)
(2.43889 0.0157821 0)
(2.43864 0.0180967 0)
(2.43596 0.0202725 0)
(2.42954 0.0191141 0)
(2.42108 0.0156711 0)
(2.4177 0.0148038 0)
(2.4172 0.0159212 0)
(2.4177 0.0192536 0)
(2.42231 0.0255832 0)
(2.43047 0.033794 0)
(2.43367 0.0372713 0)
(2.43332 0.0375525 0)
(2.43206 0.0375256 0)
(2.42916 0.0360433 0)
(2.42327 0.0312076 0)
(2.4146 0.0246871 0)
(2.41082 0.0225523 0)
(2.41107 0.0226463 0)
(2.41229 0.023679 0)
(2.41628 0.0277318 0)
(2.42453 0.0360401 0)
(2.4323 0.0433812 0)
(2.43351 0.0449614 0)
(2.43278 0.0446061 0)
(2.42995 0.0434208 0)
(2.42428 0.0408802 0)
(2.41763 0.0366968 0)
(2.415 0.0348054 0)
(2.41498 0.0345251 0)
(2.41548 0.0346979 0)
(2.41795 0.0365163 0)
(2.42377 0.0417293 0)
(2.43015 0.0474614 0)
(2.43215 0.049262 0)
(2.4323 0.049261 0)
(2.43088 0.0478564 0)
(2.42692 0.0447024 0)
(2.42047 0.0387502 0)
(2.41483 0.0331779 0)
(2.41414 0.0315701 0)
(2.41494 0.0313515 0)
(2.41565 0.0314465 0)
(2.41786 0.032994 0)
(2.42279 0.0381856 0)
(2.43024 0.0463159 0)
(2.43507 0.0519582 0)
(2.43558 0.0530538 0)
(2.43456 0.0524837 0)
(2.43017 0.0493551 0)
(2.4219 0.0428521 0)
(2.41431 0.0358285 0)
(2.41341 0.0338625 0)
(2.41436 0.0335962 0)
(2.41539 0.0335453 0)
(2.41869 0.0351136 0)
(2.42636 0.041138 0)
(2.43707 0.049635 0)
(2.44203 0.0532311 0)
(2.44246 0.0532684 0)
(2.44147 0.0517262 0)
(2.43668 0.0475482 0)
(2.42741 0.0396027 0)
(2.41977 0.0336252 0)
(2.41897 0.032483 0)
(2.41942 0.0326541 0)
(2.42104 0.0339335 0)
(2.42555 0.0385865 0)
(2.43331 0.0464056 0)
(2.43843 0.0515384 0)
(2.43902 0.0522541 0)
(2.43823 0.0517029 0)
(2.43486 0.0492514 0)
(2.43049 0.045834 0)
(2.429 0.0438098 0)
(2.42941 0.0434096 0)
(2.43016 0.0432784 0)
(2.43105 0.0430338 0)
(2.43193 0.0425183 0)
(2.43266 0.0416285 0)
(2.43317 0.0403071 0)
(2.4339 0.0391659 0)
(2.43487 0.0387216 0)
(2.43586 0.0383519 0)
(2.43755 0.0382689 0)
(2.44045 0.0393783 0)
(2.44415 0.0415962 0)
(2.44621 0.0428267 0)
(2.44684 0.0430532 0)
(2.44713 0.0429397 0)
(2.44468 0.0408792 0)
(2.4392 0.0366896 0)
(2.43708 0.0339365 0)
(2.43808 0.0333799 0)
(2.43916 0.0329984 0)
(2.44059 0.0327439 0)
(2.44386 0.0337103 0)
(2.44897 0.0366684 0)
(2.45254 0.0393498 0)
(2.45361 0.0399904 0)
(2.4538 0.0415487 0)
(2.45014 0.038978 0)
(2.44209 0.0258211 0)
(2.41262 -0.0151544 0)
(2.29565 -0.155515 0)
(2.12536 -0.347986 0)
(2.0173 -0.505051 0)
(1.99365 -0.495669 0)
(1.99798 -0.492582 0)
(1.99947 -0.49668 0)
(1.99679 -0.503454 0)
(1.99777 -0.506451 0)
(2.00454 -0.506494 0)
(2.01343 -0.50236 0)
(2.01944 -0.498437 0)
(2.02231 -0.496695 0)
(2.15038 0.267785 0)
(2.15567 0.254261 0)
(2.16434 0.244126 0)
(2.17289 0.233815 0)
(2.1786 0.220568 0)
(2.17952 0.204182 0)
(2.18247 0.191607 0)
(2.19158 0.189811 0)
(2.20281 0.188868 0)
(2.21681 0.18825 0)
(2.22969 0.187091 0)
(2.24037 0.184811 0)
(2.25007 0.180753 0)
(2.25793 0.173106 0)
(2.2608 0.159151 0)
(2.25619 0.138549 0)
(2.24754 0.11595 0)
(2.24798 0.102375 0)
(2.25574 0.100685 0)
(2.26622 0.0996737 0)
(2.28185 0.100252 0)
(2.29718 0.101009 0)
(2.30644 0.0989646 0)
(2.31585 0.0957994 0)
(2.32342 0.0907536 0)
(2.32686 0.0800709 0)
(2.32045 0.0604824 0)
(2.30918 0.0381319 0)
(2.30928 0.0258384 0)
(2.31605 0.0245151 0)
(2.3257 0.0243026 0)
(2.34092 0.0257979 0)
(2.3531 0.0261041 0)
(2.36083 0.0238491 0)
(2.36935 0.0198037 0)
(2.37515 0.0127753 0)
(2.37546 -0.00101251 0)
(2.36857 -0.0203045 0)
(2.36603 -0.033952 0)
(2.37166 -0.03695 0)
(2.3797 -0.0393587 0)
(2.38965 -0.041761 0)
(2.39778 -0.0443568 0)
(2.40434 -0.0469936 0)
(2.40992 -0.0513176 0)
(2.4118 -0.0590174 0)
(2.40806 -0.0702275 0)
(2.40756 -0.0814502 0)
(2.41302 -0.0860965 0)
(2.41918 -0.088706 0)
(2.42622 -0.092214 0)
(2.43258 -0.0961742 0)
(2.43829 -0.100282 0)
(2.44291 -0.105624 0)
(2.44449 -0.113688 0)
(2.44087 -0.123819 0)
(2.44103 -0.132996 0)
(2.44529 -0.13676 0)
(2.45085 -0.13919 0)
(2.45724 -0.142313 0)
(2.46307 -0.145811 0)
(2.46919 -0.149263 0)
(2.47513 -0.153476 0)
(2.4795 -0.158631 0)
(2.48114 -0.164143 0)
(2.47835 -0.17132 0)
(2.47614 -0.180347 0)
(2.48026 -0.18581 0)
(2.4842 -0.187364 0)
(2.48895 -0.190035 0)
(2.49437 -0.193404 0)
(2.49878 -0.198434 0)
(2.50334 -0.201087 0)
(2.50794 -0.20519 0)
(2.50997 -0.208764 0)
(2.50879 -0.214223 0)
(2.50738 -0.221947 0)
(2.50853 -0.22686 0)
(2.51365 -0.230285 0)
(2.51829 -0.232956 0)
(2.52216 -0.237311 0)
(2.5253 -0.241863 0)
(2.5285 -0.244923 0)
(2.53193 -0.249282 0)
(2.53407 -0.255693 0)
(2.53386 -0.26213 0)
(2.53267 -0.268683 0)
(2.53549 -0.271059 0)
(2.53834 -0.272897 0)
(2.5413 -0.274277 0)
(2.54447 -0.275945 0)
(2.54749 -0.279938 0)
(2.55009 -0.282852 0)
(2.55349 -0.2846 0)
(2.55556 -0.290272 0)
(2.55437 -0.296797 0)
(2.5528 -0.301904 0)
(2.55632 -0.304085 0)
(2.55988 -0.305167 0)
(2.5634 -0.307801 0)
(2.56703 -0.310229 0)
(2.57149 -0.314171 0)
(2.57496 -0.318479 0)
(2.57759 -0.321189 0)
(2.57904 -0.325188 0)
(2.57814 -0.330583 0)
(2.57655 -0.336446 0)
(2.57958 -0.340204 0)
(2.58331 -0.341631 0)
(2.58664 -0.345102 0)
(2.58918 -0.347442 0)
(2.59298 -0.350687 0)
(2.59545 -0.354395 0)
(2.59759 -0.356217 0)
(2.60004 -0.358702 0)
(2.6007 -0.362665 0)
(2.59827 -0.367822 0)
(2.59614 -0.37216 0)
(2.59861 -0.373586 0)
(2.60124 -0.375349 0)
(2.60417 -0.377545 0)
(2.608 -0.379594 0)
(2.6124 -0.383644 0)
(2.6161 -0.386794 0)
(2.61824 -0.388817 0)
(2.6167 -0.393348 0)
(2.6136 -0.394287 0)
(2.61345 -0.392946 0)
(2.61165 -0.388776 0)
(2.60556 -0.371846 0)
(2.59154 -0.33501 0)
(2.55962 -0.258188 0)
(2.53822 -0.18997 0)
(2.50902 -0.104909 0)
(2.47167 -0.0248675 0)
(2.45354 -0.0257609 0)
(2.44791 -0.0201756 0)
(2.43916 -0.0134913 0)
(2.43549 -0.00299823 0)
(2.43388 0.00229538 0)
(2.43616 0.00450461 0)
(2.44055 0.00651062 0)
(2.44232 0.0086632 0)
(2.44281 0.0105386 0)
(2.44223 0.0132101 0)
(2.43885 0.015443 0)
(2.43182 0.0147125 0)
(2.42699 0.0133024 0)
(2.42539 0.0134075 0)
(2.42405 0.0153047 0)
(2.42645 0.0206492 0)
(2.43473 0.028957 0)
(2.44055 0.0335518 0)
(2.44071 0.0336975 0)
(2.43988 0.0330087 0)
(2.43715 0.0313108 0)
(2.43126 0.0282078 0)
(2.42205 0.0238514 0)
(2.41639 0.0213646 0)
(2.41579 0.0211555 0)
(2.4161 0.0220992 0)
(2.41917 0.0259315 0)
(2.42767 0.0345765 0)
(2.4369 0.0432485 0)
(2.43906 0.0453924 0)
(2.43871 0.0452935 0)
(2.43647 0.0441948 0)
(2.43158 0.0412097 0)
(2.4241 0.036288 0)
(2.41971 0.034362 0)
(2.41935 0.0344869 0)
(2.4195 0.0350113 0)
(2.42134 0.0368563 0)
(2.42689 0.0416435 0)
(2.43407 0.0471056 0)
(2.4366 0.0486688 0)
(2.43679 0.0484874 0)
(2.43567 0.0471081 0)
(2.43215 0.0442592 0)
(2.42566 0.038238 0)
(2.41908 0.0319008 0)
(2.41795 0.0299219 0)
(2.4188 0.0297779 0)
(2.41975 0.0302731 0)
(2.42248 0.0328726 0)
(2.42813 0.0394317 0)
(2.43612 0.0483326 0)
(2.44095 0.0538341 0)
(2.44145 0.0546652 0)
(2.44045 0.0537514 0)
(2.4361 0.0504732 0)
(2.42783 0.0434533 0)
(2.41875 0.0350081 0)
(2.41654 0.0324111 0)
(2.41741 0.0320942 0)
(2.41832 0.0321602 0)
(2.42133 0.0338433 0)
(2.42865 0.0400564 0)
(2.43984 0.0495173 0)
(2.44622 0.0544025 0)
(2.44687 0.0546551 0)
(2.4463 0.0534034 0)
(2.44237 0.0495662 0)
(2.43396 0.0419203 0)
(2.4253 0.0348673 0)
(2.42355 0.0331472 0)
(2.42394 0.0333492 0)
(2.42536 0.034604 0)
(2.42952 0.0389789 0)
(2.43717 0.0464938 0)
(2.44275 0.0514919 0)
(2.44352 0.0521414 0)
(2.44288 0.051557 0)
(2.43979 0.0492351 0)
(2.435 0.0456506 0)
(2.43247 0.043273 0)
(2.43293 0.0429694 0)
(2.43353 0.0431314 0)
(2.43421 0.0432421 0)
(2.43501 0.0433151 0)
(2.43572 0.0431232 0)
(2.43622 0.0423924 0)
(2.43695 0.0414998 0)
(2.43803 0.0411408 0)
(2.43912 0.0408216 0)
(2.44065 0.0406481 0)
(2.44357 0.0413887 0)
(2.44773 0.0433897 0)
(2.45063 0.0446419 0)
(2.45135 0.0446973 0)
(2.45191 0.0443914 0)
(2.45045 0.0427723 0)
(2.44497 0.0387759 0)
(2.44044 0.0348253 0)
(2.44082 0.0339674 0)
(2.44183 0.0338137 0)
(2.44297 0.0336272 0)
(2.44576 0.0343879 0)
(2.45115 0.0374694 0)
(2.45644 0.0409727 0)
(2.4581 0.0419808 0)
(2.45854 0.0433644 0)
(2.4552 0.0407966 0)
(2.44591 0.025997 0)
(2.40289 -0.0342985 0)
(2.27633 -0.199747 0)
(2.14248 -0.336692 0)
(2.00348 -0.483098 0)
(1.9822 -0.529303 0)
(1.9769 -0.520577 0)
(1.99115 -0.503566 0)
(2.00535 -0.49364 0)
(2.00774 -0.492613 0)
(2.00836 -0.496046 0)
(2.01084 -0.502067 0)
(2.01575 -0.505202 0)
(2.02226 -0.504408 0)
(2.02916 -0.499852 0)
(2.14444 0.269005 0)
(2.15212 0.257576 0)
(2.16074 0.247473 0)
(2.1675 0.23565 0)
(2.17069 0.221099 0)
(2.17538 0.209436 0)
(2.18464 0.207462 0)
(2.19579 0.206897 0)
(2.21 0.206865 0)
(2.22255 0.206056 0)
(2.23309 0.20409 0)
(2.24263 0.199579 0)
(2.24994 0.190775 0)
(2.2519 0.175492 0)
(2.24778 0.155201 0)
(2.24039 0.13321 0)
(2.24109 0.119335 0)
(2.24883 0.117491 0)
(2.25909 0.116607 0)
(2.2746 0.117226 0)
(2.29017 0.118064 0)
(2.29969 0.116079 0)
(2.30933 0.11293 0)
(2.31698 0.107877 0)
(2.32064 0.0973122 0)
(2.31452 0.0778587 0)
(2.30292 0.0551919 0)
(2.3024 0.0423481 0)
(2.30935 0.0410573 0)
(2.31906 0.0409365 0)
(2.33432 0.0423089 0)
(2.34664 0.0425704 0)
(2.35444 0.0402581 0)
(2.36286 0.0364728 0)
(2.36881 0.0302325 0)
(2.36964 0.0174479 0)
(2.36291 -0.00258929 0)
(2.35896 -0.0177347 0)
(2.36474 -0.0207925 0)
(2.37241 -0.02233 0)
(2.3835 -0.0252019 0)
(2.3908 -0.0276885 0)
(2.39887 -0.0303176 0)
(2.40511 -0.0335867 0)
(2.40858 -0.0393908 0)
(2.40635 -0.050701 0)
(2.4017 -0.0644701 0)
(2.406 -0.0716465 0)
(2.41293 -0.0747314 0)
(2.41951 -0.0778531 0)
(2.42632 -0.0812532 0)
(2.43263 -0.085063 0)
(2.43787 -0.0890204 0)
(2.44129 -0.0950658 0)
(2.44032 -0.104681 0)
(2.43683 -0.116591 0)
(2.44097 -0.121986 0)
(2.44677 -0.124509 0)
(2.45242 -0.127725 0)
(2.45845 -0.131179 0)
(2.46408 -0.134532 0)
(2.46945 -0.137545 0)
(2.47451 -0.14155 0)
(2.47748 -0.14763 0)
(2.4763 -0.156511 0)
(2.4727 -0.166067 0)
(2.47536 -0.171084 0)
(2.48043 -0.173469 0)
(2.48505 -0.175998 0)
(2.48992 -0.177785 0)
(2.49571 -0.181313 0)
(2.49993 -0.186562 0)
(2.50368 -0.190301 0)
(2.50721 -0.194662 0)
(2.50742 -0.20051 0)
(2.50437 -0.207688 0)
(2.50541 -0.213523 0)
(2.50941 -0.215669 0)
(2.51407 -0.217847 0)
(2.519 -0.221038 0)
(2.52298 -0.225431 0)
(2.52579 -0.229709 0)
(2.52841 -0.234689 0)
(2.52987 -0.239747 0)
(2.5298 -0.248289 0)
(2.52958 -0.255001 0)
(2.53153 -0.258117 0)
(2.53631 -0.259134 0)
(2.53939 -0.260888 0)
(2.54211 -0.262444 0)
(2.54516 -0.264295 0)
(2.54767 -0.26817 0)
(2.54975 -0.273862 0)
(2.552 -0.276721 0)
(2.55298 -0.280464 0)
(2.55264 -0.288491 0)
(2.55279 -0.292601 0)
(2.55618 -0.29584 0)
(2.56048 -0.297279 0)
(2.56413 -0.299878 0)
(2.56751 -0.302481 0)
(2.57133 -0.305318 0)
(2.57487 -0.309143 0)
(2.57718 -0.313013 0)
(2.57698 -0.315826 0)
(2.5755 -0.321761 0)
(2.57599 -0.325934 0)
(2.57828 -0.328754 0)
(2.58265 -0.330502 0)
(2.58651 -0.332938 0)
(2.58947 -0.336009 0)
(2.59248 -0.338425 0)
(2.5958 -0.34251 0)
(2.59758 -0.34595 0)
(2.59927 -0.34808 0)
(2.59951 -0.353155 0)
(2.59708 -0.359104 0)
(2.59628 -0.363842 0)
(2.5996 -0.365555 0)
(2.60249 -0.366869 0)
(2.60505 -0.369123 0)
(2.60822 -0.371015 0)
(2.61194 -0.373191 0)
(2.61533 -0.377051 0)
(2.61713 -0.380167 0)
(2.61659 -0.386064 0)
(2.61443 -0.390587 0)
(2.61671 -0.391943 0)
(2.61758 -0.391645 0)
(2.61944 -0.389415 0)
(2.61993 -0.38572 0)
(2.61553 -0.371586 0)
(2.60285 -0.337628 0)
(2.57544 -0.278926 0)
(2.53777 -0.195799 0)
(2.52692 -0.148838 0)
(2.47294 -0.0623938 0)
(2.44828 -0.0139967 0)
(2.44107 -0.0164945 0)
(2.44581 0.00178888 0)
(2.45214 0.00804893 0)
(2.44931 0.00919674 0)
(2.44707 0.00934954 0)
(2.44569 0.00963589 0)
(2.44405 0.0110588 0)
(2.44085 0.0134147 0)
(2.43578 0.0144002 0)
(2.43418 0.0142376 0)
(2.43259 0.0146843 0)
(2.43194 0.0172103 0)
(2.43589 0.0222762 0)
(2.44332 0.0276701 0)
(2.44586 0.0295291 0)
(2.44553 0.0294926 0)
(2.44417 0.028499 0)
(2.44012 0.0256091 0)
(2.43238 0.0215596 0)
(2.42483 0.0194781 0)
(2.42288 0.0202297 0)
(2.42263 0.0214294 0)
(2.42403 0.0245389 0)
(2.43026 0.031091 0)
(2.43967 0.0390207 0)
(2.4433 0.041997 0)
(2.4437 0.0425135 0)
(2.44296 0.0423651 0)
(2.43939 0.0402883 0)
(2.43189 0.0359931 0)
(2.42514 0.03345 0)
(2.42399 0.0335144 0)
(2.42404 0.0342118 0)
(2.42536 0.0364133 0)
(2.43037 0.0412085 0)
(2.43762 0.0464236 0)
(2.44052 0.0478987 0)
(2.44069 0.0476777 0)
(2.43997 0.0465286 0)
(2.43718 0.0440852 0)
(2.43115 0.0383956 0)
(2.42372 0.0316677 0)
(2.42164 0.0292608 0)
(2.42224 0.0291215 0)
(2.42332 0.0298262 0)
(2.42652 0.0331329 0)
(2.43316 0.0408117 0)
(2.44186 0.0504584 0)
(2.44658 0.0554148 0)
(2.44704 0.0557487 0)
(2.446 0.0542228 0)
(2.44197 0.0506487 0)
(2.43392 0.0433985 0)
(2.42374 0.0341387 0)
(2.42019 0.0308385 0)
(2.42094 0.0304092 0)
(2.42177 0.0305598 0)
(2.42459 0.0324966 0)
(2.43163 0.0390269 0)
(2.44297 0.0492449 0)
(2.45032 0.0553048 0)
(2.4512 0.0558806 0)
(2.45086 0.0549101 0)
(2.44736 0.051289 0)
(2.43965 0.043996 0)
(2.43068 0.0362488 0)
(2.42821 0.0340076 0)
(2.42862 0.0342068 0)
(2.42997 0.0354686 0)
(2.43391 0.0396099 0)
(2.4412 0.0466788 0)
(2.44677 0.0513512 0)
(2.44761 0.0518415 0)
(2.44706 0.0511069 0)
(2.4444 0.048862 0)
(2.4399 0.045285 0)
(2.43674 0.04251 0)
(2.43678 0.0421581 0)
(2.43728 0.0424279 0)
(2.43814 0.0433742 0)
(2.43862 0.0439615 0)
(2.43923 0.0443082 0)
(2.43955 0.044328 0)
(2.43981 0.0436618 0)
(2.44084 0.0432439 0)
(2.44197 0.0429806 0)
(2.44331 0.0427406 0)
(2.44592 0.0430695 0)
(2.45033 0.0448122 0)
(2.45427 0.0463319 0)
(2.45549 0.0463925 0)
(2.45618 0.0460028 0)
(2.45578 0.044712 0)
(2.45162 0.0412497 0)
(2.44519 0.0365036 0)
(2.44377 0.0347002 0)
(2.4447 0.0346121 0)
(2.44565 0.0345402 0)
(2.44788 0.0351204 0)
(2.45298 0.0380215 0)
(2.45948 0.0422873 0)
(2.46218 0.0439031 0)
(2.46268 0.0449147 0)
(2.45987 0.0419844 0)
(2.44996 0.0265871 0)
(2.40215 -0.0372632 0)
(2.26297 -0.214443 0)
(2.07232 -0.447398 0)
(2.0241 -0.458626 0)
(2.01219 -0.474506 0)
(2.00122 -0.500051 0)
(1.99592 -0.509035 0)
(2.0012 -0.506968 0)
(2.01029 -0.498692 0)
(2.0148 -0.493538 0)
(2.01723 -0.494863 0)
(2.01848 -0.499155 0)
(2.02143 -0.504679 0)
(2.02679 -0.506609 0)
(2.03452 -0.504091 0)
(2.14036 0.270179 0)
(2.1491 0.260577 0)
(2.15699 0.250068 0)
(2.16247 0.237612 0)
(2.16905 0.227616 0)
(2.1784 0.225914 0)
(2.1897 0.225525 0)
(2.20411 0.225981 0)
(2.21625 0.225399 0)
(2.22656 0.223478 0)
(2.23577 0.218042 0)
(2.2417 0.207574 0)
(2.2425 0.191112 0)
(2.23871 0.171124 0)
(2.23295 0.150054 0)
(2.23417 0.136353 0)
(2.24199 0.134127 0)
(2.25203 0.133398 0)
(2.26741 0.134077 0)
(2.28326 0.135226 0)
(2.29289 0.133389 0)
(2.30266 0.130352 0)
(2.31056 0.125342 0)
(2.31443 0.114722 0)
(2.30858 0.0952798 0)
(2.29686 0.0723149 0)
(2.29565 0.0587878 0)
(2.30255 0.0573228 0)
(2.31215 0.0573369 0)
(2.32739 0.0587006 0)
(2.34009 0.0588575 0)
(2.34803 0.0565602 0)
(2.35649 0.0531688 0)
(2.36258 0.0474193 0)
(2.36397 0.0354545 0)
(2.35754 0.0160239 0)
(2.35196 -0.000790113 0)
(2.35757 -0.00524621 0)
(2.36517 -0.00641457 0)
(2.37663 -0.00802545 0)
(2.38562 -0.0107058 0)
(2.39261 -0.0133076 0)
(2.39953 -0.0159792 0)
(2.40445 -0.0208579 0)
(2.40354 -0.0307306 0)
(2.39809 -0.0460091 0)
(2.39962 -0.0561481 0)
(2.40604 -0.0598942 0)
(2.41304 -0.0630188 0)
(2.42002 -0.0666036 0)
(2.4266 -0.0700765 0)
(2.43251 -0.0736011 0)
(2.4369 -0.0782655 0)
(2.43771 -0.0863327 0)
(2.43448 -0.0980292 0)
(2.43562 -0.106991 0)
(2.44169 -0.110062 0)
(2.44774 -0.112483 0)
(2.45385 -0.11573 0)
(2.45933 -0.118647 0)
(2.46497 -0.122045 0)
(2.46979 -0.125501 0)
(2.47348 -0.130601 0)
(2.47363 -0.138802 0)
(2.46962 -0.150794 0)
(2.47072 -0.157902 0)
(2.47562 -0.15904 0)
(2.48052 -0.160981 0)
(2.48569 -0.164054 0)
(2.49068 -0.165864 0)
(2.49607 -0.168633 0)
(2.50067 -0.174813 0)
(2.5032 -0.179559 0)
(2.50512 -0.18444 0)
(2.50411 -0.191306 0)
(2.50302 -0.199149 0)
(2.50568 -0.201758 0)
(2.50959 -0.202422 0)
(2.51469 -0.204846 0)
(2.51897 -0.208318 0)
(2.52285 -0.213349 0)
(2.52567 -0.219342 0)
(2.52712 -0.225342 0)
(2.52707 -0.233125 0)
(2.52605 -0.241329 0)
(2.52813 -0.246277 0)
(2.53248 -0.24666 0)
(2.53701 -0.247052 0)
(2.54101 -0.249507 0)
(2.5432 -0.251908 0)
(2.54507 -0.254203 0)
(2.54704 -0.259353 0)
(2.54858 -0.264789 0)
(2.5504 -0.269409 0)
(2.55123 -0.272031 0)
(2.55101 -0.277936 0)
(2.55309 -0.28222 0)
(2.5557 -0.283996 0)
(2.56032 -0.286229 0)
(2.56435 -0.288833 0)
(2.56744 -0.291474 0)
(2.57088 -0.294574 0)
(2.57407 -0.298006 0)
(2.57605 -0.302476 0)
(2.5749 -0.308617 0)
(2.57295 -0.313988 0)
(2.57603 -0.31751 0)
(2.57865 -0.319581 0)
(2.58249 -0.322384 0)
(2.58705 -0.32468 0)
(2.59052 -0.32796 0)
(2.59341 -0.330081 0)
(2.59637 -0.33262 0)
(2.5983 -0.336769 0)
(2.59898 -0.340586 0)
(2.59726 -0.343511 0)
(2.59576 -0.350037 0)
(2.59738 -0.353142 0)
(2.59979 -0.354717 0)
(2.60333 -0.356214 0)
(2.60609 -0.358593 0)
(2.60855 -0.360496 0)
(2.61155 -0.362161 0)
(2.61414 -0.36477 0)
(2.61495 -0.369444 0)
(2.61319 -0.37472 0)
(2.61363 -0.379469 0)
(2.61624 -0.38285 0)
(2.61895 -0.383486 0)
(2.62352 -0.385369 0)
(2.62528 -0.386348 0)
(2.62738 -0.385781 0)
(2.62737 -0.38301 0)
(2.62218 -0.372399 0)
(2.60575 -0.339699 0)
(2.58302 -0.289058 0)
(2.53919 -0.208264 0)
(2.50905 -0.143163 0)
(2.50627 -0.10819 0)
(2.47582 -0.029834 0)
(2.46423 0.00953068 0)
(2.46111 0.00702365 0)
(2.45766 0.00791092 0)
(2.451 0.00938312 0)
(2.44543 0.0100927 0)
(2.4422 0.0126105 0)
(2.44 0.014436 0)
(2.43876 0.0147721 0)
(2.43805 0.0163062 0)
(2.43912 0.0193536 0)
(2.44356 0.0234445 0)
(2.44867 0.0262078 0)
(2.44969 0.0266929 0)
(2.44939 0.0267072 0)
(2.44787 0.0262619 0)
(2.44341 0.0239558 0)
(2.43605 0.0214803 0)
(2.43189 0.0218297 0)
(2.43102 0.0230701 0)
(2.43128 0.0261887 0)
(2.43485 0.0312104 0)
(2.44198 0.0368788 0)
(2.4464 0.0386717 0)
(2.44698 0.0385952 0)
(2.44725 0.0385882 0)
(2.44554 0.0381047 0)
(2.44 0.0354929 0)
(2.43205 0.0317381 0)
(2.4294 0.0309692 0)
(2.42922 0.0316285 0)
(2.42995 0.0339972 0)
(2.43402 0.0389068 0)
(2.44134 0.0450037 0)
(2.44489 0.047186 0)
(2.44499 0.046975 0)
(2.44425 0.0457783 0)
(2.44191 0.0432546 0)
(2.43665 0.0382211 0)
(2.42892 0.0319795 0)
(2.42564 0.0294141 0)
(2.42585 0.0292774 0)
(2.42668 0.0299941 0)
(2.42996 0.033373 0)
(2.43739 0.0414277 0)
(2.44687 0.0512761 0)
(2.45134 0.0559616 0)
(2.45193 0.0563085 0)
(2.4511 0.0551204 0)
(2.44745 0.0518939 0)
(2.43989 0.0443706 0)
(2.42907 0.0336966 0)
(2.42428 0.029085 0)
(2.42479 0.028515 0)
(2.42566 0.0288762 0)
(2.42851 0.0313621 0)
(2.43549 0.0384407 0)
(2.44683 0.049374 0)
(2.45472 0.0561837 0)
(2.45589 0.0570033 0)
(2.45548 0.0560855 0)
(2.45218 0.0525566 0)
(2.4448 0.0456394 0)
(2.43561 0.0374607 0)
(2.43256 0.0346503 0)
(2.43307 0.0347677 0)
(2.43438 0.0359918 0)
(2.43831 0.0400157 0)
(2.44539 0.0469241 0)
(2.45087 0.0515039 0)
(2.45172 0.0519412 0)
(2.45122 0.0511081 0)
(2.44869 0.0486957 0)
(2.44444 0.0449137 0)
(2.44129 0.0418355 0)
(2.44112 0.041303 0)
(2.44143 0.0417083 0)
(2.44239 0.0432178 0)
(2.4434 0.0450705 0)
(2.44365 0.0456859 0)
(2.44371 0.0462055 0)
(2.44316 0.0458574 0)
(2.44338 0.0450424 0)
(2.44453 0.044771 0)
(2.44576 0.0444675 0)
(2.44771 0.0444061 0)
(2.45188 0.0456321 0)
(2.45692 0.0475433 0)
(2.45906 0.0479311 0)
(2.45993 0.0475953 0)
(2.46036 0.0465961 0)
(2.45794 0.0439166 0)
(2.45158 0.0392184 0)
(2.44748 0.0358918 0)
(2.44791 0.0355619 0)
(2.44863 0.0355302 0)
(2.45033 0.0359492 0)
(2.45473 0.0384356 0)
(2.46184 0.0430214 0)
(2.46582 0.0456042 0)
(2.46633 0.0465539 0)
(2.46373 0.0419866 0)
(2.45155 0.02342 0)
(2.39667 -0.0567146 0)
(2.25543 -0.219333 0)
(2.0861 -0.415107 0)
(2.01238 -0.512942 0)
(1.99784 -0.495944 0)
(2.01253 -0.491076 0)
(2.01595 -0.496283 0)
(2.01327 -0.501744 0)
(2.01174 -0.504201 0)
(2.01465 -0.504054 0)
(2.01991 -0.501208 0)
(2.02529 -0.499267 0)
(2.02923 -0.499231 0)
(2.03174 -0.49937 0)
(2.03508 -0.500547 0)
(2.04202 -0.502322 0)
(2.1379 0.273069 0)
(2.14654 0.264255 0)
(2.15421 0.254376 0)
(2.16306 0.246759 0)
(2.17259 0.245339 0)
(2.18434 0.245215 0)
(2.1991 0.24597 0)
(2.21061 0.245315 0)
(2.22077 0.242793 0)
(2.22937 0.23569 0)
(2.23328 0.223054 0)
(2.23306 0.205786 0)
(2.22946 0.186172 0)
(2.22527 0.166318 0)
(2.2273 0.153305 0)
(2.23522 0.151023 0)
(2.24519 0.150308 0)
(2.26044 0.15112 0)
(2.27656 0.152649 0)
(2.28625 0.151065 0)
(2.29605 0.148133 0)
(2.3041 0.142972 0)
(2.30794 0.132003 0)
(2.30225 0.112463 0)
(2.29077 0.0890782 0)
(2.28919 0.0749547 0)
(2.29594 0.0732968 0)
(2.30524 0.0733162 0)
(2.32046 0.0748107 0)
(2.33337 0.0753021 0)
(2.34162 0.073108 0)
(2.35019 0.0698665 0)
(2.35652 0.064601 0)
(2.35835 0.0533393 0)
(2.35201 0.0340915 0)
(2.34538 0.0165558 0)
(2.35015 0.0111173 0)
(2.3579 0.00979877 0)
(2.36936 0.00803809 0)
(2.38021 0.00613077 0)
(2.38752 0.00354649 0)
(2.3942 0.000955596 0)
(2.39965 -0.00287037 0)
(2.40084 -0.0115833 0)
(2.39449 -0.0276527 0)
(2.39333 -0.0394473 0)
(2.39984 -0.043292 0)
(2.40646 -0.047047 0)
(2.41391 -0.0513029 0)
(2.42073 -0.0550947 0)
(2.42694 -0.0584849 0)
(2.43216 -0.0626733 0)
(2.43426 -0.0693158 0)
(2.43148 -0.0802253 0)