/*--------------------------------*- C++ -*----------------------------------*\
  =========                 |
  \\      /  F ield         | OpenFOAM: The Open Source CFD Toolbox
   \\    /   O peration     | Website:  https://openfoam.org
    \\  /    A nd           | Version:  7
     \\/     M anipulation  |
\*---------------------------------------------------------------------------*/
FoamFile
{
    version     2.0;
    format      ascii;
    class       volScalarField;
    location    "4";
    object      p;
}
// * * * * * * * * * * * * * * * * * * * * * * * * * * * * * * * * * * * * * //

dimensions      [1 -1 -2 0 0 0 0];

internalField   nonuniform List<scalar> 
16512
(
3.72005
3.69777
3.67094
3.63401
3.57586
3.49488
3.41618
3.37702
3.36172
3.34656
3.31796
3.26492
3.18743
3.1112
3.06628
3.05092
3.04386
3.02686
2.99051
2.92672
2.85201
2.79604
2.7745
2.76779
2.76179
2.74199
2.6977
2.63239
2.57069
2.5361
2.52569
2.52238
2.51143
2.48477
2.43276
2.37286
2.33289
2.32061
2.31755
2.31094
2.29401
2.25544
2.2004
2.15436
2.13888
2.13526
2.13307
2.12286
2.10188
2.05965
2.00868
1.97464
1.96579
1.96394
1.95984
1.9489
1.9244
1.88374
1.84823
1.83732
1.83487
1.8312
1.82197
1.80144
1.7655
1.72833
1.70449
1.69736
1.69496
1.68988
1.67814
1.65242
1.62832
1.61734
1.61039
1.60243
1.59016
1.56476
1.53327
1.52389
1.52066
1.51907
1.51635
1.51147
1.50515
1.49498
1.47178
1.43586
1.40722
1.4013
1.39904
1.39763
1.39412
1.38944
1.38438
1.37779
1.36634
1.34336
1.31907
1.31009
1.30257
1.30588
1.69833
4.46144
5.4389
5.46392
5.44363
5.43429
5.44649
5.45999
5.45775
5.42715
5.39582
5.39954
5.41669
5.43172
5.44096
5.43747
5.40184
5.33394
5.29009
5.28791
5.29303
5.29879
5.29568
5.28652
5.26002
5.20378
5.12972
5.08597
5.06984
5.0592
5.04621
5.02734
4.99573
4.94188
4.86126
4.79772
4.7685
4.74608
4.72458
4.69585
4.65766
4.60248
4.51618
4.41819
4.35772
4.31743
4.28218
4.24914
4.21193
4.16643
5.22607
5.15992
5.09209
5.02535
4.95784
4.89386
4.83284
4.76978
4.70694
4.64195
4.57663
4.51583
4.45546
4.39653
4.33815
4.27525
4.21409
4.15677
4.10427
4.05456
4.00357
3.9436
3.86873
3.80263
3.77187
3.74464
3.70786
3.65395
3.57539
3.4944
3.45259
3.43659
3.42033
3.39108
3.33853
3.26094
3.18337
3.13812
3.12265
3.1147
3.09616
3.05813
2.99264
2.91698
2.86117
2.8403
2.83371
2.8263
2.80446
2.7577
2.69066
2.62882
2.59652
2.58708
2.58394
2.57165
2.54255
2.48827
2.42747
2.38763
2.37566
2.37261
2.36518
2.34699
2.30609
2.24943
2.20343
2.18787
2.18442
2.1824
2.17209
2.14993
2.10627
2.05495
2.02127
2.01253
2.01059
2.00614
1.99439
1.96755
1.92469
1.88882
1.87784
1.87535
1.87145
1.86166
1.83933
1.80173
1.76487
1.74526
1.74038
1.73915
1.73402
1.7208
1.68962
1.65956
1.64885
1.6431
1.63604
1.6255
1.60387
1.56961
1.5537
1.54962
1.547
1.54543
1.54196
1.53638
1.52689
1.50472
1.46927
1.43788
1.42927
1.4262
1.42362
1.42006
1.41554
1.41027
1.40371
1.39397
1.37347
1.34496
1.33345
1.3314
1.32614
1.31848
1.3452
2.86356
5.18432
5.44523
5.42874
5.42361
5.43111
5.43947
5.43547
5.41496
5.39587
5.39971
5.41507
5.42809
5.43497
5.42168
5.36956
5.30253
5.28305
5.2879
5.29718
5.30267
5.29879
5.28493
5.24408
5.16863
5.10494
5.08319
5.07257
5.06193
5.04682
5.02509
4.98915
4.92698
4.84439
4.79315
4.76825
4.74684
4.72352
4.69391
4.65469
4.59586
4.50553
4.41635
4.36669
4.32942
4.29601
4.26177
4.22044
4.16909
5.24897
5.18119
5.11445
5.04689
4.98323
4.92191
4.85816
4.79487
4.72999
4.6653
4.60408
4.54226
4.48214
4.4229
4.36197
4.30243
4.2437
4.18797
4.13669
4.0839
4.028
3.9619
3.89533
3.84763
3.81806
3.78231
3.7314
3.65764
3.57439
3.52763
3.51067
3.49295
3.46313
3.41222
3.33522
3.25627
3.20997
3.19422
3.18541
3.1657
3.12678
3.0601
2.98342
2.92788
2.90741
2.90051
2.89136
2.86783
2.81843
2.74923
2.68759
2.65697
2.64805
2.64498
2.63165
2.60046
2.54409
2.48277
2.44393
2.43226
2.429
2.42074
2.40124
2.35788
2.29954
2.25314
2.23752
2.2339
2.23171
2.22094
2.19723
2.15209
2.10107
2.06831
2.05994
2.0583
2.05347
2.04089
2.01191
1.96722
1.93075
1.91959
1.91665
1.91219
1.90171
1.87767
1.83863
1.80202
1.78558
1.78209
1.78103
1.77504
1.76022
1.72716
1.69383
1.68185
1.67703
1.67073
1.66148
1.64324
1.6087
1.5855
1.58053
1.57725
1.57517
1.5717
1.56679
1.55779
1.53586
1.50153
1.4693
1.45825
1.45513
1.45122
1.44711
1.44225
1.43678
1.43059
1.4219
1.40517
1.37534
1.35594
1.35364
1.35182
1.34792
1.33889
1.33945
1.65576
4.30716
5.42223
5.41755
5.41936
5.4222
5.42551
5.42165
5.40968
5.39901
5.40127
5.41391
5.42516
5.42706
5.40159
5.33884
5.28691
5.28252
5.29048
5.3022
5.30564
5.30068
5.27737
5.217
5.13526
5.09653
5.08449
5.07653
5.06631
5.04941
5.0245
4.98103
4.90595
4.82908
4.79362
4.77166
4.7497
4.72411
4.6927
4.65132
4.58881
4.49829
4.41957
4.37557
4.33948
4.30567
4.26877
4.22405
4.1681
5.27017
5.20326
5.13493
5.07087
5.01024
4.94657
4.88326
4.81802
4.75291
4.6915
4.62894
4.56818
4.50844
4.44811
4.38986
4.3306
4.27257
4.21937
4.16552
4.11124
4.05038
3.98639
3.93105
3.89023
3.85506
3.80739
3.74183
3.65689
3.60299
3.58424
3.56505
3.53486
3.48602
3.41039
3.32978
3.28137
3.26513
3.25555
3.23467
3.1955
3.12841
3.05105
2.99547
2.97536
2.96833
2.95766
2.93264
2.8811
2.80993
2.74785
2.71807
2.70937
2.70548
2.69111
2.65778
2.59973
2.53777
2.50009
2.48909
2.48636
2.47751
2.45658
2.41125
2.35141
2.30457
2.2888
2.28469
2.2819
2.27024
2.24468
2.19758
2.14655
2.115
2.1072
2.106
2.1009
2.08762
2.05664
2.01084
1.97409
1.9629
1.95957
1.95449
1.94329
1.91772
1.87685
1.84002
1.82571
1.82284
1.8214
1.81447
1.79849
1.76425
1.72911
1.71637
1.71233
1.70657
1.69808
1.68246
1.64917
1.61962
1.61325
1.61
1.60751
1.60286
1.59685
1.58663
1.56408
1.53178
1.49992
1.48718
1.48422
1.48003
1.475
1.46976
1.4643
1.45798
1.44988
1.43611
1.40857
1.38202
1.37631
1.37425
1.37161
1.36795
1.36159
1.34939
1.36657
2.62316
5.14704
5.40522
5.40101
5.40643
5.41111
5.4104
5.40527
5.40008
5.40237
5.41272
5.42149
5.4149
5.376
5.31161
5.2815
5.28493
5.29469
5.3055
5.30686
5.29852
5.26111
5.18231
5.11499
5.09651
5.0875
5.0826
5.07195
5.05368
5.02425
4.96669
4.87825
4.82112
4.79691
4.77611
4.75265
4.72447
4.69034
4.64542
4.5796
4.49252
4.42373
4.38291
4.34754
4.3131
4.27459
4.22784
4.16804
5.29222
5.2235
5.15739
5.09687
5.03363
4.97067
4.90606
4.84062
4.77882
4.71551
4.65385
4.59386
4.5339
4.47702
4.41769
4.35796
4.30227
4.24714
4.19379
4.13645
4.07415
4.01823
3.96698
3.92782
3.88203
3.82383
3.74442
3.67908
3.6576
3.63724
3.60588
3.56032
3.48748
3.40522
3.3536
3.33624
3.32518
3.30321
3.26419
3.19691
3.11875
3.06283
3.04293
3.03594
3.02431
2.9983
2.94535
2.87289
2.81029
2.78111
2.77223
2.76713
2.75128
2.71533
2.65509
2.59248
2.55572
2.54519
2.54276
2.53384
2.51177
2.46521
2.40455
2.35769
2.34203
2.33768
2.33401
2.32143
2.29363
2.24419
2.19212
2.16164
2.1542
2.15315
2.14774
2.13361
2.1006
2.05439
2.01792
2.00706
2.00388
1.99852
1.98677
1.9598
1.91704
1.87954
1.86654
1.86373
1.86162
1.85385
1.83675
1.80152
1.76535
1.75141
1.74802
1.7435
1.73552
1.72133
1.68971
1.65592
1.64703
1.64387
1.64159
1.63632
1.62886
1.61568
1.59065
1.55953
1.52959
1.51616
1.51342
1.50929
1.5034
1.49749
1.49193
1.48603
1.47856
1.46621
1.44067
1.41144
1.40169
1.39839
1.39478
1.3917
1.38732
1.38171
1.36896
1.35742
1.57785
4.08736
5.38313
5.39676
5.40136
5.4089
5.41133
5.40941
5.40616
5.40706
5.41248
5.4145
5.3979
5.35162
5.2996
5.28697
5.29312
5.3026
5.30827
5.30692
5.28869
5.23348
5.15123
5.11059
5.10042
5.09473
5.09161
5.07888
5.05756
5.01653
4.93705
4.85582
4.82252
4.80205
4.78182
4.75667
4.72609
4.68851
4.63885
4.5702
4.4891
4.42897
4.39025
4.35552
4.32072
4.28139
4.2332
4.16927
5.3121
5.24461
5.18311
5.11971
5.05633
4.99236
4.9274
4.86627
4.80285
4.74014
4.67934
4.61871
4.56314
4.5046
4.44413
4.38649
4.32879
4.27543
4.22047
4.16003
4.10399
4.04885
4.00423
3.95888
3.90338
3.83621
3.75981
3.72993
3.70824
3.67644
3.63363
3.565
3.48248
3.42715
3.40834
3.39588
3.37259
3.33378
3.26654
3.1871
3.12989
3.10971
3.10244
3.09005
3.06342
3.00971
2.93672
2.87368
2.84556
2.8368
2.8308
2.81362
2.77571
2.71242
2.64825
2.61171
2.60117
2.59857
2.58897
2.56567
2.51792
2.45746
2.41117
2.39593
2.39189
2.38795
2.37471
2.34489
2.29297
2.23944
2.20968
2.20216
2.20077
2.19447
2.17929
2.14391
2.09699
2.06119
2.05087
2.04821
2.04311
2.03101
2.00327
1.95898
1.92104
1.90846
1.9055
1.90271
1.89424
1.8761
1.83961
1.80215
1.78709
1.78406
1.78054
1.77305
1.76006
1.72961
1.69341
1.68135
1.67829
1.67601
1.67061
1.66244
1.64657
1.61863
1.58716
1.55911
1.5463
1.54363
1.53966
1.53286
1.52544
1.51954
1.51386
1.50714
1.49682
1.47417
1.44167
1.42685
1.4238
1.42004
1.4159
1.4118
1.40645
1.3992
1.38541
1.36198
1.36852
2.3868
5.02615
5.37331
5.38534
5.394
5.40342
5.40831
5.40927
5.40978
5.40932
5.39984
5.37062
5.3246
5.29362
5.29498
5.30314
5.31015
5.3116
5.3036
5.26877
5.1958
5.13034
5.11194
5.10554
5.10411
5.09948
5.08468
5.0569
4.99574
4.90168
4.84717
4.82478
4.80695
4.787
4.7603
4.7276
4.68606
4.63094
4.55979
4.48606
4.43408
4.3972
4.36299
4.3279
4.28782
4.23774
4.16893
5.33037
5.26917
5.20591
5.14175
5.07759
5.01215
4.95218
4.88994
4.82684
4.76585
4.70353
4.6481
4.5907
4.53007
4.47192
4.41169
4.35686
4.303
4.24404
4.18765
4.13182
4.08225
4.03756
3.98364
3.9247
3.85254
3.80307
3.77813
3.74435
3.70267
3.64183
3.56124
3.50123
3.48031
3.46668
3.44226
3.40463
3.33859
3.25809
3.1985
3.17723
3.16879
3.1551
3.12773
3.0733
2.99983
2.93653
2.90928
2.90104
2.89498
2.8772
2.83814
2.77309
2.70705
2.66998
2.65896
2.65528
2.64432
2.61971
2.56981
2.50881
2.46352
2.4491
2.44582
2.44197
2.4281
2.39696
2.34369
2.28944
2.25984
2.25222
2.25007
2.24263
2.22599
2.18791
2.1394
2.1041
2.09413
2.09201
2.08716
2.07496
2.04664
2.00182
1.96356
1.95126
1.94828
1.94511
1.93614
1.91708
1.87925
1.8401
1.82379
1.82065
1.81784
1.8107
1.79798
1.76853
1.73148
1.71583
1.71277
1.71063
1.70511
1.69633
1.67876
1.64859
1.6158
1.58913
1.57846
1.57608
1.57221
1.56438
1.55446
1.54752
1.54187
1.53555
1.52652
1.50763
1.47509
1.45251
1.44878
1.44622
1.44244
1.438
1.43272
1.42556
1.41177
1.39402
1.37512
1.36744
1.52096
3.79195
5.32423
5.40184
5.40812
5.40734
5.40936
5.41261
5.4116
5.40334
5.38282
5.34674
5.31038
5.29833
5.30687
5.31556
5.31912
5.31522
5.29341
5.23842
5.16253
5.12581
5.11799
5.11459
5.11452
5.10552
5.08761
5.04687
4.96252
4.87925
4.84835
4.82864
4.81273
4.79207
4.76431
4.72977
4.68438
4.62394
4.55131
4.48579
4.4408
4.40518
4.37081
4.33468
4.29304
4.24013
4.16658
5.35379
5.29163
5.2276
5.16399
5.09728
5.03706
4.97607
4.91268
4.85194
4.78848
4.73211
4.67603
4.61546
4.55739
4.49604
4.4392
4.38556
4.32705
4.27012
4.21378
4.16037
4.11544
4.06379
4.00784
3.94634
3.88412
3.85112
3.81455
3.77082
3.71557
3.64009
3.57532
3.55171
3.53596
3.51046
3.47443
3.41151
3.3318
3.26963
3.24673
3.237
3.2214
3.19327
3.13803
3.06282
2.99839
2.97131
2.96331
2.95737
2.93941
2.90021
2.83498
2.76815
2.73076
2.71952
2.71479
2.7025
2.67623
2.62384
2.56067
2.51545
2.50135
2.49828
2.49467
2.48022
2.44791
2.39408
2.34037
2.3115
2.30409
2.30154
2.29319
2.27491
2.23432
2.18341
2.14793
2.13791
2.13579
2.13085
2.11836
2.08902
2.044
2.00592
1.99393
1.9912
1.98816
1.97898
1.95935
1.92053
1.87948
1.86194
1.85843
1.85586
1.84871
1.83599
1.80663
1.76884
1.75063
1.74742
1.74532
1.73983
1.73078
1.71195
1.68009
1.64658
1.62182
1.61328
1.6109
1.6071
1.59842
1.58514
1.57631
1.57044
1.5642
1.5558
1.53968
1.50902
1.48102
1.47492
1.47221
1.47009
1.46651
1.46159
1.45364
1.43813
1.41692
1.40219
1.39348
1.38077
1.3861
2.16173
4.83048
5.38398
5.39697
5.40243
5.40469
5.40884
5.40368
5.38577
5.35564
5.322
5.30406
5.30706
5.31728
5.32474
5.32462
5.31132
5.27189
5.19952
5.14237
5.12902
5.12538
5.12552
5.12136
5.10863
5.08244
5.02129
4.92641
4.87244
4.85136
4.83408
4.8176
4.79544
4.76692
4.73069
4.68195
4.61716
4.54528
4.48837
4.44831
4.4131
4.37785
4.34002
4.29605
4.23962
4.16262
5.37619
5.31257
5.25011
5.18376
5.12265
5.06218
4.99836
4.93736
4.87306
4.81458
4.75947
4.6993
4.64137
4.58056
4.52238
4.46915
4.41083
4.35341
4.29645
4.23912
4.19235
4.14213
4.08721
4.0322
3.96896
3.92753
3.88858
3.84392
3.79225
3.72111
3.6511
3.62354
3.60336
3.57632
3.54148
3.48322
3.4055
3.34189
3.31732
3.30653
3.28975
3.26144
3.20621
3.12901
3.06205
3.03355
3.02476
3.01787
2.99945
2.95993
2.89466
2.82845
2.7914
2.78071
2.77639
2.76362
2.73627
2.68193
2.61555
2.56946
2.55488
2.55113
2.54657
2.53123
2.49729
2.44281
2.3897
2.36248
2.3558
2.35376
2.34503
2.32558
2.28305
2.22992
2.19385
2.18364
2.18092
2.17532
2.16218
2.13148
2.08578
2.04771
2.03589
2.03347
2.03084
2.02155
2.00153
1.96237
1.92019
1.90139
1.89752
1.89484
1.88767
1.87474
1.84498
1.80636
1.78569
1.78206
1.78014
1.77472
1.76541
1.74573
1.7129
1.67891
1.65742
1.65125
1.64885
1.64423
1.63376
1.61727
1.60605
1.5997
1.59342
1.58532
1.57115
1.54223
1.5114
1.50243
1.49981
1.49784
1.49507
1.49084
1.48276
1.46474
1.44085
1.42535
1.41853
1.41375
1.40366
1.38843
1.47947
3.43447
5.27592
5.40104
5.40093
5.40641
5.40823
5.3967
5.36907
5.33313
5.30766
5.30565
5.31665
5.32806
5.33371
5.32797
5.30116
5.24085
5.16634
5.13885
5.13645
5.13741
5.13766
5.12766
5.10917
5.06709
4.98278
4.90381
4.87616
4.85913
4.84337
4.82398
4.79931
4.76911
4.73055
4.67837
4.61079
4.54352
4.49464
4.45685
4.42108
4.38436
4.34446
4.29785
4.23793
4.15911
5.39715
5.33465
5.26924
5.20783
5.14801
5.08426
5.02303
4.9586
4.89759
4.84214
4.78186
4.723
4.66278
4.60359
4.55208
4.49535
4.43791
4.38161
4.32126
4.27117
4.22041
4.165
4.11211
4.05071
4.00282
3.96382
3.91808
3.87071
3.807
3.73506
3.69851
3.6712
3.63986
3.60442
3.55243
3.47798
3.41232
3.38582
3.37448
3.35752
3.32968
3.27644
3.19944
3.12986
3.0992
3.08876
3.07962
3.05977
3.0191
2.9524
2.88601
2.84955
2.83953
2.83653
2.82417
2.79692
2.74261
2.67473
2.62694
2.61177
2.60691
2.60047
2.5838
2.54715
2.49076
2.43777
2.4119
2.40589
2.40466
2.3959
2.37556
2.33217
2.27821
2.24188
2.23162
2.22847
2.2221
2.20815
2.17575
2.12814
2.0896
2.07766
2.07518
2.07268
2.0632
2.04286
2.0035
1.96105
1.94141
1.93739
1.93486
1.92766
1.91432
1.88419
1.84406
1.82142
1.81712
1.81517
1.80969
1.80023
1.7796
1.74607
1.7128
1.69513
1.69073
1.68887
1.68336
1.67024
1.6491
1.63622
1.62979
1.6234
1.61537
1.60247
1.57548
1.54339
1.53081
1.52837
1.52673
1.52383
1.51924
1.51099
1.49144
1.46591
1.45056
1.44502
1.4403
1.43367
1.42067
1.39712
1.3992
1.96454
4.60489
5.39298
5.40516
5.41149
5.40506
5.38394
5.34774
5.31329
5.30107
5.30994
5.32381
5.33505
5.33866
5.32602
5.28257
5.20239
5.14596
5.13991
5.14341
5.14977
5.14646
5.13324
5.10275
5.03525
4.94321
4.89809
4.88209
4.86916
4.85289
4.83093
4.8034
4.77028
4.72791
4.67062
4.60276
4.5446
4.50199
4.46466
4.42781
4.38965
4.34804
4.29919
4.23607
4.15677
5.41774
5.35214
5.28993
5.23148
5.16883
5.10778
5.04465
4.98305
4.92706
4.86625
4.8057
4.74505
4.68257
4.63131
4.57747
4.52065
4.46641
4.40632
4.35387
4.30194
4.24519
4.19192
4.13192
4.0771
4.03686
3.9908
3.94513
3.89089
3.82318
3.77847
3.74403
3.70788
3.67134
3.62346
3.55112
3.48237
3.45258
3.43921
3.42144
3.39454
3.3444
3.27028
3.20007
3.16758
3.15622
3.14552
3.12435
3.08253
3.01277
2.94394
2.90649
2.89622
2.89353
2.88153
2.85453
2.80136
2.73417
2.68615
2.67067
2.66572
2.65821
2.64036
2.60143
2.54107
2.48663
2.46139
2.45537
2.454
2.44486
2.42364
2.37966
2.32611
2.29023
2.28033
2.27758
2.27095
2.25645
2.22253
2.17258
2.13273
2.12035
2.11744
2.11452
2.10463
2.08362
2.0438
2.00142
1.98126
1.97728
1.97514
1.96795
1.95453
1.92382
1.88264
1.85811
1.85306
1.85084
1.8452
1.83537
1.81377
1.77948
1.7471
1.7331
1.73031
1.72892
1.72288
1.70746
1.68099
1.66594
1.65977
1.65368
1.64604
1.63403
1.60885
1.57599
1.56004
1.55746
1.55603
1.55292
1.5478
1.53848
1.51776
1.49232
1.4777
1.47318
1.46889
1.46213
1.448
1.42938
1.41505
1.40961
1.46767
3.08894
5.18582
5.3816
5.3861
5.38612
5.36942
5.3332
5.30634
5.30574
5.31868
5.33191
5.34074
5.34138
5.32009
5.25574
5.16962
5.13988
5.1434
5.15247
5.1603
5.15473
5.13616
5.08715
4.99548
4.92224
4.9014
4.89011
4.87972
4.86251
4.83908
4.80911
4.77191
4.722
4.65691
4.59427
4.54806
4.50979
4.47246
4.43459
4.39527
4.35236
4.30132
4.23443
4.1561
5.43372
5.36967
5.31195
5.25048
5.18973
5.12836
5.06689
5.01184
4.95239
4.89152
4.83158
4.76598
4.71114
4.65742
4.59967
4.54589
4.48741
4.43504
4.38509
4.32857
4.27506
4.21723
4.15696
4.11178
4.06386
4.01589
3.96658
3.90437
3.85784
3.81945
3.77986
3.74095
3.69644
3.6312
3.55804
3.52105
3.50358
3.48307
3.45541
3.40761
3.33626
3.26725
3.23407
3.22324
3.21288
3.1918
3.15041
3.08009
3.00685
2.96658
2.95484
2.95014
2.93726
2.90972
2.85617
2.79007
2.74306
2.72809
2.72427
2.717
2.69894
2.65924
2.59628
2.5392
2.51328
2.50664
2.50411
2.49391
2.47117
2.4255
2.37244
2.33767
2.32838
2.3264
2.32001
2.30528
2.27065
2.21914
2.17779
2.16481
2.16131
2.15768
2.14725
2.12518
2.0842
2.04141
2.02088
2.01689
2.01518
2.00803
1.99441
1.96331
1.92168
1.89555
1.88993
1.88758
1.8818
1.87154
1.84895
1.81335
1.78161
1.77017
1.76801
1.76654
1.76016
1.74339
1.71345
1.69515
1.68967
1.68409
1.67667
1.66569
1.64254
1.60912
1.58999
1.58684
1.58536
1.58213
1.57651
1.56625
1.54428
1.51881
1.50598
1.50252
1.49855
1.49189
1.47753
1.45411
1.44267
1.43959
1.43271
1.43441
1.82248
4.34193
5.39011
5.37016
5.36462
5.3502
5.32357
5.31381
5.32195
5.3342
5.3445
5.34851
5.34091
5.30118
5.21684
5.15281
5.14378
5.15092
5.16179
5.16662
5.15883
5.12962
5.05884
4.96333
4.92192
4.90822
4.89972
4.88954
4.87216
4.84852
4.81711
4.77257
4.70703
4.6373
4.5888
4.55272
4.51756
4.48084
4.44258
4.40241
4.35794
4.30308
4.23071
4.15749
5.45436
5.3927
5.33007
5.26889
5.20883
5.14733
5.0933
5.03668
4.97663
4.91874
4.85459
4.79636
4.74038
4.68036
4.62421
4.5641
4.50989
4.46372
4.41004
4.35725
4.30382
4.24402
4.19396
4.14253
4.09073
4.04174
3.98024
3.93133
3.89207
3.85032
3.80978
3.76715
3.71322
3.64457
3.59386
3.57083
3.54856
3.51891
3.4719
3.40121
3.33063
3.2954
3.28524
3.27652
3.25653
3.21741
3.15019
3.07529
3.03194
3.01872
3.01134
2.99653
2.96733
2.91129
2.84402
2.79715
2.78252
2.77965
2.77334
2.75566
2.71657
2.6539
2.59515
2.56849
2.56124
2.55729
2.54587
2.52119
2.47266
2.41836
2.38434
2.37537
2.3739
2.36785
2.35285
2.31796
2.26619
2.224
2.21059
2.20683
2.20273
2.19195
2.16875
2.126
2.08191
2.06102
2.05684
2.0552
2.04803
2.03409
2.00258
1.96081
1.93348
1.92738
1.92514
1.91932
1.90882
1.88527
1.84823
1.81679
1.80675
1.8048
1.80265
1.79558
1.77753
1.74559
1.72456
1.71908
1.71451
1.7078
1.69767
1.67616
1.64269
1.62044
1.61643
1.61478
1.61138
1.60536
1.5944
1.57139
1.54572
1.53423
1.53147
1.52788
1.52148
1.50701
1.48215
1.46758
1.46478
1.46329
1.45817
1.44424
1.47072
2.72157
5.09396
5.34825
5.33513
5.32387
5.31941
5.32713
5.3391
5.35003
5.35628
5.35267
5.32582
5.25638
5.18112
5.15386
5.15605
5.16334
5.17005
5.16969
5.15536
5.11237
5.02522
4.94992
4.92888
4.91819
4.91102
4.90074
4.8837
4.86021
4.82585
4.7651
4.68012
4.62169
4.58884
4.55851
4.52608
4.49102
4.45335
4.41241
4.36466
4.3017
4.22411
4.16295
5.47936
5.41619
5.35275
5.28972
5.22586
5.17141
5.11661
5.05684
4.99993
4.9391
4.88162
4.82595
4.76514
4.70768
4.64603
4.58445
4.53713
4.48585
4.43304
4.38283
4.32726
4.27852
4.22719
4.17284
4.12361
4.06304
4.00684
3.9644
3.91875
3.87677
3.83165
3.78407
3.72896
3.67463
3.6422
3.61774
3.58825
3.54196
3.47259
3.3977
3.35728
3.34516
3.33505
3.31553
3.27827
3.21554
3.14323
3.09862
3.0851
3.07724
3.06126
3.03106
2.97236
2.9008
2.85189
2.83653
2.83289
2.82665
2.80903
2.77006
2.70878
2.65094
2.62434
2.61742
2.61337
2.6012
2.57503
2.52378
2.46633
2.43194
2.42277
2.42097
2.41463
2.39901
2.36352
2.31193
2.26982
2.25644
2.25293
2.24899
2.23809
2.21422
2.16979
2.12384
2.1024
2.0979
2.09606
2.08867
2.07429
2.04208
1.9998
1.97177
1.96536
1.96329
1.95755
1.94679
1.92257
1.8843
1.85272
1.84343
1.84146
1.8387
1.83101
1.81188
1.77845
1.75455
1.74895
1.74536
1.73912
1.72984
1.71009
1.67657
1.6514
1.6463
1.64439
1.64083
1.63456
1.62309
1.5992
1.57313
1.56245
1.55992
1.55634
1.5499
1.53563
1.51007
1.49348
1.49028
1.4885
1.4852
1.47947
1.45948
1.4435
1.67769
3.98792
5.30425
5.33914
5.3248
5.33273
5.34822
5.36048
5.36745
5.36438
5.34176
5.28476
5.20957
5.17008
5.16878
5.17396
5.17728
5.17737
5.16969
5.14518
5.08769
4.99869
4.95116
4.93858
4.93109
4.92492
4.91406
4.89669
4.87094
4.82429
4.7374
4.65507
4.61781
4.59238
4.56564
4.53589
4.50313
4.46664
4.42421
4.36908
4.29339
4.21902
4.17319
5.50206
5.43999
5.37923
5.31176
5.25044
5.19428
5.13485
5.07728
5.01612
4.96063
4.90931
4.85051
4.79312
4.73492
4.66953
4.61555
4.56172
4.50609
4.45447
4.39893
4.35363
4.30856
4.25543
4.20716
4.15272
4.09324
4.04418
3.99345
3.94733
3.89931
3.84689
3.80167
3.75181
3.71141
3.6815
3.65521
3.6158
3.55126
3.47261
3.42487
3.41005
3.39601
3.37374
3.33633
3.27455
3.20473
3.16063
3.14787
3.14185
3.12666
3.09748
3.03934
2.96477
2.91126
2.89419
2.88832
2.88051
2.86178
2.82169
2.76043
2.70381
2.67801
2.67192
2.66907
2.65696
2.63049
2.57819
2.51793
2.48214
2.47241
2.46958
2.4623
2.44569
2.4086
2.35637
2.31462
2.3015
2.29841
2.29506
2.28418
2.26007
2.2149
2.16751
2.14524
2.14042
2.13827
2.13062
2.11573
2.08246
2.03918
2.01052
2.00384
2.00196
1.99633
1.98532
1.96055
1.92144
1.88945
1.88052
1.8784
1.87528
1.86704
1.84719
1.81225
1.78592
1.77973
1.7767
1.77109
1.76243
1.7439
1.71084
1.68294
1.67653
1.67435
1.67075
1.66431
1.65262
1.62792
1.60107
1.5906
1.58816
1.58452
1.57802
1.5641
1.53799
1.51937
1.51583
1.51417
1.51068
1.50477
1.4924
1.46613
1.4458
1.4583
2.37198
4.86229
5.3119
5.31841
5.33911
5.35872
5.37536
5.38196
5.36537
5.3116
5.23245
5.18117
5.17725
5.18466
5.19082
5.19021
5.1841
5.16846
5.132
5.05908
4.98239
4.95659
4.94996
4.94605
4.94058
4.92813
4.90813
4.87339
4.80076
4.70222
4.64725
4.622
4.59906
4.57502
4.54738
4.51659
4.48078
4.43443
4.36577
4.28127
4.22224
4.18606
5.52444
5.46658
5.40323
5.3401
5.27805
5.21402
5.15329
5.09077
5.03112
4.98285
4.92995
4.87508
4.82165
4.76121
4.7046
4.64647
4.58687
4.53214
4.47066
4.41977
4.37929
4.33012
4.28265
4.23424
4.17979
4.13008
4.07651
4.02563
3.97803
3.91856
3.87078
3.82441
3.77873
3.74069
3.71041
3.67898
3.62802
3.557
3.49888
3.48104
3.46378
3.43844
3.39951
3.33676
3.26508
3.21801
3.20494
3.2004
3.18676
3.15949
3.10475
3.0316
2.97486
2.95625
2.94873
2.93891
2.91888
2.87701
2.81276
2.75562
2.72982
2.72389
2.72194
2.71029
2.68402
2.6323
2.57134
2.53435
2.52425
2.52068
2.5124
2.49481
2.45551
2.40129
2.35921
2.34612
2.34316
2.34014
2.32914
2.30491
2.25966
2.21175
2.18895
2.184
2.18176
2.17391
2.15859
2.12412
2.0794
2.04993
2.04294
2.04111
2.03557
2.02432
1.9991
1.95924
1.92684
1.91807
1.91599
1.91244
1.9038
1.88324
1.84707
1.81861
1.81154
1.80876
1.80367
1.79532
1.7779
1.74509
1.71506
1.70725
1.70481
1.70129
1.69476
1.68301
1.65768
1.62978
1.61901
1.61651
1.61279
1.60617
1.59265
1.56639
1.54577
1.54164
1.54017
1.53694
1.53123
1.5192
1.49462
1.47358
1.46183
1.46076
1.59474
3.52794
5.18525
5.34399
5.36016
5.37208
5.38458
5.38283
5.34408
5.26808
5.19933
5.18413
5.18952
5.20065
5.20482
5.20175
5.19275
5.16932
5.11639
5.03095
4.97835
4.96711
4.96447
4.96276
4.95563
4.94052
4.91367
4.85838
4.76104
4.68251
4.65379
4.63189
4.61056
4.58745
4.5608
4.53035
4.49249
4.43623
4.35186
4.27504
4.23321
4.20041
5.54051
5.48179
5.42448
5.36533
5.30147
5.23949
5.17461
5.10773
5.05486
5.00245
4.94682
4.89447
4.84022
4.79024
4.73604
4.67595
4.62076
4.55858
4.49644
4.45021
4.39967
4.3486
4.30058
4.25045
4.20787
4.15947
4.1073
4.06186
4.00517
3.95064
3.9022
3.85165
3.80876
3.7648
3.73274
3.69243
3.63543
3.57515
3.55019
3.53485
3.50836
3.46807
3.40791
3.33205
3.27858
3.26264
3.25562
3.24187
3.21534
3.16359
3.09453
3.03735
3.01828
3.01116
3.00083
2.98034
2.93756
2.87012
2.80993
2.78275
2.77599
2.77338
2.76157
2.73499
2.6838
2.62363
2.58638
2.57633
2.57296
2.56427
2.54613
2.50528
2.44853
2.4051
2.3916
2.38828
2.38501
2.37371
2.34892
2.30335
2.2556
2.23262
2.22777
2.22578
2.21786
2.20228
2.16678
2.12059
2.09009
2.08275
2.08081
2.07529
2.06385
2.03804
1.99747
1.96484
1.95602
1.95395
1.95021
1.94128
1.92019
1.88311
1.85226
1.84437
1.84154
1.83677
1.82863
1.81185
1.77934
1.7477
1.73834
1.73581
1.73243
1.72592
1.71426
1.68864
1.65945
1.64801
1.64532
1.64144
1.6347
1.62162
1.59526
1.57275
1.56796
1.56653
1.56366
1.55835
1.54758
1.52323
1.4978
1.49056
1.48579
1.47592
1.48096
2.07153
4.52089
5.37447
5.36525
5.37717
5.38244
5.3589
5.30019
5.2248
5.19197
5.19426
5.20266
5.21364
5.21582
5.21211
5.20071
5.16505
5.08678
5.00962
4.98486
4.98064
4.97992
4.97706
4.96746
4.94819
4.90799
4.82241
4.72356
4.68306
4.66421
4.6457
4.62561
4.60234
4.57512
4.54269
4.49767
4.42431
4.33479
4.27979
4.24693
4.21616
5.54826
5.49514
5.44554
5.38725
5.32798
5.26784
5.20118
5.13957
5.07994
5.02023
4.96439
4.9064
4.85874
4.81433
4.76014
4.70776
4.65271
4.58927
4.53407
4.4782
4.42276
4.37045
4.31286
4.27095
4.23121
4.18181
4.13833
4.08998
4.03678
3.98683
3.93274
3.88644
3.8371
3.79127
3.75352
3.70284
3.64923
3.61
3.59422
3.57218
3.53576
3.48336
3.40824
3.34656
3.32687
3.31566
3.29885
3.27083
3.21985
3.15152
3.09509
3.07623
3.07067
3.06169
3.04195
3.00036
2.93227
2.86807
2.83893
2.83086
2.82642
2.81359
2.78618
2.73412
2.67435
2.63717
2.6272
2.62448
2.61599
2.59773
2.5566
2.49821
2.45299
2.43883
2.43496
2.43104
2.4192
2.39338
2.34679
2.29892
2.27585
2.27109
2.26948
2.26156
2.24586
2.20966
2.16247
2.13088
2.12322
2.12114
2.11559
2.10393
2.07744
2.036
2.00295
1.99415
1.99218
1.98834
1.97919
1.95799
1.91999
1.88712
1.87817
1.87521
1.87062
1.86258
1.84628
1.81384
1.7806
1.76982
1.76721
1.76409
1.75761
1.7462
1.72061
1.6902
1.67773
1.67485
1.67089
1.66395
1.65118
1.62468
1.6
1.59441
1.59315
1.59085
1.58573
1.57588
1.55258
1.5254
1.5159
1.51252
1.5081
1.49838
1.48413
1.54465
3.04666
5.13517
5.35699
5.36317
5.35251
5.31414
5.25416
5.21001
5.20745
5.21239
5.21993
5.22525
5.22506
5.22063
5.19974
5.138
5.05191
5.0086
4.99938
4.99625
4.99407
4.98793
4.97496
4.94758
4.88361
4.77809
4.71142
4.69294
4.67744
4.66154
4.64228
4.61851
4.5896
4.55197
4.49248
4.40205
4.32661
4.29047
4.26126
4.23289
5.55664
5.50733
5.45575
5.40256
5.35036
5.29379
5.23511
5.17237
5.10894
5.04874
4.98226
4.92471
4.88051
4.82996
4.77852
4.72937
4.6751
4.62233
4.56506
4.50679
4.45405
4.39074
4.33752
4.29705
4.24836
4.20246
4.15783
4.1117
4.06888
4.01736
3.9679
3.92285
3.86783
3.8239
3.77433
3.72132
3.67391
3.64446
3.62485
3.59455
3.55165
3.48539
3.41893
3.39593
3.38222
3.36224
3.33205
3.28127
3.2104
3.15154
3.13137
3.12597
3.11859
3.0998
3.06055
2.9946
2.92842
2.89737
2.88857
2.88267
2.86877
2.84045
2.78619
2.72495
2.68739
2.6772
2.6748
2.66658
2.64834
2.60767
2.54896
2.50246
2.48774
2.48354
2.47904
2.46666
2.43968
2.39137
2.34236
2.31904
2.31418
2.31271
2.30473
2.28882
2.25223
2.20449
2.17208
2.16415
2.16197
2.15638
2.14447
2.11734
2.07493
2.04112
2.03216
2.0303
2.02666
2.01725
1.99604
1.95756
1.92305
1.913
1.90987
1.90548
1.89742
1.88149
1.84868
1.81426
1.80179
1.79903
1.79614
1.78974
1.77864
1.75317
1.72173
1.7082
1.70521
1.7011
1.69411
1.68173
1.65501
1.6281
1.62119
1.6198
1.61799
1.61332
1.6043
1.5821
1.55376
1.54241
1.53933
1.53476
1.52834
1.51722
1.49282
1.49252
1.85518
4.21107
5.35928
5.35461
5.31505
5.2695
5.22486
5.21854
5.22694
5.23473
5.23772
5.23716
5.23477
5.22195
5.17681
5.09555
5.03532
5.02124
5.01577
5.01224
5.00604
4.99572
4.97655
4.93379
4.84249
4.74892
4.7209
4.7063
4.69246
4.67703
4.65788
4.6334
4.60187
4.55525
4.4763
4.38158
4.33065
4.30212
4.2758
4.24971
5.59201
5.53145
5.46961
5.41166
5.35731
5.30918
5.25875
5.20036
5.14348
5.07922
5.01126
4.95642
4.90124
4.84495
4.79172
4.73955
4.69577
4.6476
4.59156
4.54134
4.48432
4.42283
4.37387
4.32162
4.27039
4.22074
4.17056
4.13509
4.0938
4.04503
4.00378
3.9534
3.90431
3.85426
3.79911
3.75177
3.70356
3.67708
3.64867
3.60878
3.55445
3.48884
3.46248
3.44984
3.42831
3.39755
3.34904
3.27669
3.21178
3.18849
3.18149
3.1734
3.15449
3.11706
3.05397
2.98788
2.95544
2.94673
2.94067
2.92636
2.89774
2.84183
2.77758
2.73843
2.72759
2.72483
2.7166
2.69825
2.65787
2.59941
2.55238
2.53734
2.53328
2.52869
2.51596
2.48825
2.43823
2.38718
2.36311
2.35787
2.35613
2.34797
2.33169
2.29466
2.24647
2.21352
2.20531
2.2032
2.19759
2.18551
2.15791
2.11438
2.07948
2.07018
2.06827
2.0648
2.05535
2.03406
1.99525
1.95952
1.94847
1.94537
1.94125
1.93325
1.91759
1.88436
1.84864
1.83436
1.83145
1.8287
1.82242
1.8115
1.78616
1.75404
1.73933
1.73612
1.73214
1.72513
1.71299
1.68664
1.65743
1.64865
1.64701
1.64543
1.64093
1.63247
1.61152
1.58249
1.5689
1.56609
1.56204
1.55588
1.54564
1.52777
1.50763
1.49909
1.53015
2.64309
4.99417
5.32311
5.26036
5.22158
5.21587
5.226
5.23931
5.24879
5.25158
5.25191
5.2437
5.20828
5.13441
5.06104
5.03926
5.03387
5.0322
5.02661
5.01689
5.00193
4.97145
4.90204
4.8003
4.7499
4.7362
4.72355
4.70931
4.69233
4.67155
4.6449
4.60855
4.5487
4.45441
4.37499
4.34134
4.31544
4.29136
4.26661
5.62109
5.55855
5.49558
5.42912
5.37526
5.32787
5.2729
5.21954
5.16666
5.10567
5.04455
4.9835
4.92423
4.86664
4.80362
4.75676
4.716
4.66548
4.61791
4.56971
4.51425
4.46117
4.40511
4.35043
4.29927
4.23781
4.19542
4.15861
4.11142
4.07032
4.0267
3.98119
3.93578
3.88094
3.8333
3.78335
3.74007
3.70915
3.66742
3.61961
3.55762
3.52031
3.50882
3.48945
3.46067
3.41861
3.3489
3.278
3.24999
3.24065
3.23008
3.21014
3.17313
3.11043
3.04519
3.01195
3.00338
2.99817
2.98422
2.9563
2.90022
2.83324
2.79151
2.77967
2.77599
2.76715
2.74851
2.70776
2.64903
2.60164
2.58638
2.58273
2.5787
2.56603
2.53829
2.48743
2.4344
2.40908
2.40325
2.40083
2.3923
2.37542
2.33747
2.2885
2.25513
2.24669
2.2447
2.23913
2.227
2.19916
2.15467
2.11845
2.10855
2.10642
2.10295
2.09336
2.072
2.03306
1.99606
1.98408
1.98118
1.9775
1.9696
1.95422
1.92109
1.88374
1.8678
1.86466
1.86189
1.85574
1.84495
1.81976
1.78672
1.77084
1.76756
1.76368
1.7566
1.74515
1.71925
1.68804
1.67711
1.67518
1.67354
1.66909
1.66095
1.6409
1.61141
1.59562
1.59262
1.58915
1.58349
1.57428
1.55605
1.53485
1.52651
1.51828
1.51923
1.71904
3.77547
5.15342
5.25259
5.23664
5.24242
5.24968
5.25661
5.26184
5.26644
5.26497
5.24091
5.17757
5.0933
5.05458
5.04792
5.04675
5.04609
5.03842
5.02691
5.00496
4.95397
4.85907
4.78217
4.7641
4.75353
4.74256
4.72684
4.70733
4.68293
4.6519
4.60674
4.5315
4.43584
4.38186
4.35531
4.33151
4.3086
4.28396
5.64624
5.58418
5.51558
5.44739
5.3959
5.34265
5.28652
5.23157
5.18183
5.13194
5.07348
5.01321
4.95708
4.89078
4.82906
4.78244
4.7312
4.68047
4.63286
4.58552
4.54207
4.49095
4.43547
4.38638
4.32641
4.2702
4.22801
4.17897
4.13239
4.08661
4.04183
4.00614
3.95938
3.91079
3.86817
3.81681
3.77927
3.7355
3.68694
3.63272
3.57949
3.56242
3.54406
3.51636
3.4802
3.41971
3.3491