/*--------------------------------*- C++ -*----------------------------------*\
  =========                 |
  \\      /  F ield         | OpenFOAM: The Open Source CFD Toolbox
   \\    /   O peration     | Website:  https://openfoam.org
    \\  /    A nd           | Version:  7
     \\/     M anipulation  |
\*---------------------------------------------------------------------------*/
FoamFile
{
    version     2.0;
    format      ascii;
    class       volScalarField;
    location    "4.4";
    object      p;
}
// * * * * * * * * * * * * * * * * * * * * * * * * * * * * * * * * * * * * * //

dimensions      [1 -1 -2 0 0 0 0];

internalField   nonuniform List<scalar> 
3328
(
50.3938
15.8545
12.5043
12.5962
12.6124
12.6394
12.6896
12.7546
12.8241
12.8864
12.9347
12.9696
12.9986
13.0332
13.0771
13.1346
13.2052
13.2873
13.3745
13.4611
13.5206
13.5575
13.5763
13.5854
50.3459
15.8465
12.5017
12.5966
12.6163
12.644
12.693
12.7564
12.8234
12.8824
12.9279
12.9614
12.9896
13.0238
13.0669
13.1224
13.1904
13.269
13.3536
13.4375
13.4959
13.5304
13.5454
13.5526
50.2845
15.8266
12.4995
12.5986
12.6223
12.6491
12.6946
12.7538
12.816
12.8705
12.913
12.9454
12.9737
13.0077
13.0492
13.1011
13.1636
13.2359
13.3167
13.3982
13.4583
13.4937
13.5074
13.515
50.1955
15.8017
12.4959
12.5996
12.6272
12.653
12.6929
12.7457
12.8012
12.8512
12.8911
12.9233
12.9525
12.9864
13.0262
13.0733
13.1293
13.1947
13.272
13.3509
13.4105
13.4394
13.4423
13.4431
50.0856
15.7722
12.4896
12.5972
12.6269
12.6517
12.6829
12.7278
12.7763
12.8228
12.8622
12.896
12.9275
12.9619
12.9997
13.0408
13.0876
13.1413
13.2069
13.2727
13.3238
13.3479
13.3472
13.3594
49.9569
15.7396
12.4785
12.5881
12.6182
12.6408
12.662
12.6981
12.7406
12.786
12.8279
12.8656
12.9004
12.9351
12.9699
13.0032
13.0383
13.0792
13.1333
13.1944
13.2487
13.2661
13.2431
13.2101
49.8091
15.704
12.4609
12.5695
12.5991
12.6184
12.6302
12.6582
12.697
12.7438
12.7905
12.8334
12.8717
12.9059
12.9361
12.9604
12.9828
13.0092
13.0455
13.0875
13.1077
13.0686
13.0233
13.0399
49.6388
15.6637
12.4352
12.5404
12.5698
12.587
12.592
12.6142
12.6509
12.6999
12.7521
12.8003
12.8409
12.8726
12.896
12.9099
12.9172
12.9252
12.9397
12.9636
12.9678
12.9381
12.8664
13.1059
49.4405
15.6164
12.4013
12.5026
12.5338
12.5522
12.5549
12.5732
12.6079
12.6575
12.7136
12.7658
12.8063
12.8328
12.8462
12.8483
12.8385
12.8287
12.8221
12.8292
12.7976
12.711
12.3222
11.8862
49.2101
15.5596
12.361
12.46
12.4966
12.5211
12.5271
12.5422
12.5713
12.6178
12.6741
12.7275
12.7649
12.7834
12.7835
12.7728
12.7457
12.7199
12.6955
12.6828
12.6308
12.4907
12.2702
11.8395
48.9477
15.4923
12.3181
12.4183
12.4645
12.4996
12.5135
12.5235
12.5433
12.5804
12.6309
12.681
12.7126
12.7214
12.7076
12.6827
12.6424
12.6018
12.565
12.5329
12.4738
12.3041
12.1317
11.7775
48.6601
15.4166
12.2777
12.3815
12.4415
12.4904
12.513
12.5153
12.5214
12.5426
12.5801
12.621
12.6461
12.6463
12.6221
12.5832
12.5361
12.4856
12.4413
12.3994
12.3343
12.1961
12.0591
11.794
48.36
15.3364
12.2439
12.3508
12.4272
12.4893
12.5191
12.5147
12.502
12.4994
12.5168
12.5444
12.5653
12.5624
12.5351
12.4864
12.4369
12.3841
12.3343
12.2911
12.2234
12.1218
11.9649
11.8175
48.0602
15.2579
12.2174
12.3223
12.414
12.4852
12.5222
12.5128
12.4766
12.4448
12.4388
12.454
12.4761
12.4788
12.4574
12.4073
12.3561
12.3044
12.2516
12.2045
12.1397
12.0516
11.9284
11.7916
47.767
15.1892
12.1981
12.2927
12.3898
12.4656
12.5085
12.4948
12.4378
12.379
12.3529
12.3614
12.3903
12.4055
12.3966
12.3525
12.2986
12.244
12.1883
12.132
12.0673
11.9822
11.8773
11.7634
47.4779
15.1335
12.183
12.2577
12.3454
12.4193
12.4639
12.4493
12.3834
12.312
12.2752
12.2821
12.3193
12.3491
12.3549
12.3209
12.266
12.2033
12.1366
12.0651
11.9933
11.9104
11.8083
11.7106
47.1856
15.0882
12.1681
12.2132
12.2766
12.3408
12.3858
12.3809
12.3255
12.2591
12.2206
12.2264
12.2671
12.3071
12.3245
12.3015
12.2467
12.17
12.0851
11.9942
11.9099
11.8265
11.7274
11.6308
46.8845
15.0454
12.1466
12.1584
12.1889
12.24
12.289
12.3078
12.2812
12.2307
12.1941
12.1921
12.2248
12.2663
12.2909
12.2773
12.2234
12.1371
12.034
11.9228
11.8236
11.7364
11.6398
11.5426
46.5696
14.989
12.1168
12.0995
12.0994
12.1402
12.1995
12.2494
12.2558
12.2275
12.1907
12.1707
12.1814
12.2125
12.2369
12.2291
12.1799
12.0922
11.9812
11.8603
11.7498
11.6574
11.5614
11.4625
46.2297
14.9126
12.0863
12.0476
12.0286
12.0637
12.1391
12.2182
12.2595
12.2504
12.2026
12.1541
12.1294
12.1343
12.1492
12.1455
12.1079
12.0329
11.9337
11.8183
11.7032
11.6052
11.5077
11.4026
45.8634
14.8185
12.0583
12.0137
11.9906
12.0274
12.1146
12.2134
12.2768
12.2775
12.2156
12.1308
12.0618
12.0294
12.0286
12.0308
12.0152
11.9692
11.8957
11.798
11.6844
11.5816
11.4772
11.3606
45.4873
14.7332
12.0323
11.9935
11.9829
12.024
12.1105
12.211
12.2809
12.2901
12.2201
12.0967
11.9827
11.9156
11.8983
11.9052
11.9123
11.9004
11.8601
11.7895
11.687
11.576
11.4615
11.3283
45.113
14.6927
11.9944
11.9865
11.9895
12.0305
12.1008
12.187
12.2526
12.2712
12.2031
12.0594
11.9173
11.8292
11.798
11.8062
11.8278
11.8371
11.8191
11.77
11.6826
11.5668
11.4418
11.2909
44.7491
14.715
11.9674
11.996
11.9991
12.0297
12.0688
12.1277
12.1844
12.211
12.1598
12.0319
11.8887
11.7916
11.7507
11.7525
11.774
11.7852
11.7714
11.7252
11.6439
11.5274
11.3969
11.241
44.3901
14.7315
11.999
12.0164
12.0031
12.0019
12.0067
12.0323
12.0765
12.1143
12.1007
12.0169
11.8963
11.802
11.7525
11.7383
11.7424
11.7388
11.7112
11.6558
11.5738
11.459
11.3234
11.1716
44.0431
14.7379
12.047
12.043
12.0029
11.9569
11.921
11.916
11.9479
12.0034
12.0416
12.02
11.9406
11.8537
11.7878
11.7451
11.719
11.6923
11.6437
11.5722
11.4828
11.3713
11.2401
11.1003
43.7324
14.7266
12.075
12.0659
11.9934
11.9118
11.8357
11.8044
11.8313
11.9122
11.9994
12.0443
12.0051
11.9158
11.8251
11.7485
11.6873
11.6348
11.5736
11.4971
11.4063
11.3008
11.178
11.0478
43.4502
14.6944
12.0868
12.0581
11.957
11.8575
11.7705
11.7344
11.7623
11.8627
11.9835
12.067
12.0754
11.9692
11.8402
11.7257
11.6333
11.5653
11.5099
11.4497
11.3709
11.2758
11.1621
11.0363
43.1735
14.6326
12.0688
12.0178
11.906
11.8087
11.733
11.7065
11.7395
11.8506
11.9878
12.0865
12.1107
12.0106
11.8523
11.6973
11.5774
11.5031
11.4642
11.4334
11.3859
11.3105
11.2034
11.0721
42.8996
14.5686
12.0246
11.9666
11.8602
11.7825
11.7286
11.7209
11.7722
11.8842
12.0016
12.087
12.1099
12.0325
11.8611
11.6811
11.5479
11.4735
11.4476
11.4436
11.4242
11.3629
11.2565
11.1098
42.6155
14.5087
11.9727
11.9242
11.8504
11.7977
11.7722
11.7905
11.8535
11.9304
11.9994
12.0528
12.0719
12.0184
11.8814
11.7102
11.5756
11.496
11.4663
11.4629
11.4421
11.3837
11.2771
11.1234
42.3227
14.4629
11.9296
11.8997
11.8698
11.8572
11.8617
11.8934
11.9239
11.9406
11.9525
11.9757
12.0022
11.9948
11.9312
11.7957
11.6633
11.5665
11.5075
11.4642
11.4123
11.3409
11.2354
11.0901
42.0353
14.4273
11.9019
11.9011
11.9217
11.9716
12.0015
12.0156
11.9796
11.9229
11.8765
11.8715
11.9059
11.9508
11.9731
11.9132
11.7888
11.6574
11.5388
11.4353
11.3401
11.2428
11.132
11.0008
41.76
14.3842
11.8867
11.9407
12.0311
12.1202
12.1578
12.1288
12.0259
11.905
11.8087
11.7758
11.804
11.8864
11.9699
11.9891
11.9042
11.7457
11.5652
11.403
11.2557
11.1246
11.0056
10.893
41.5389
14.343
11.9111
12.038
12.1409
12.2422
12.2726
12.2097
12.0703
11.9062
11.773
11.7094
11.7175
11.7993
11.9091
11.9719
11.9453
11.7912
11.5843
11.3769
11.1844
11.0264
10.9007
10.8012
41.4226
14.324
11.9698
12.1331
12.2117
12.2931
12.3006
12.2193
12.0849
11.9217
11.7766
11.6911
11.6752
11.7197
11.796
11.86
11.8717
11.7737
11.5815
11.3602
11.1562
10.9885
10.8621
10.7665
41.4283
14.392
12.0444
12.1847
12.221
12.2518
12.2287
12.1651
12.068
11.942
11.8175
11.7275
11.6791
11.6601
11.6609
11.6848
11.7082
11.6729
11.5371
11.352
11.1742
11.0233
10.9069
10.8075
41.5523
14.5209
12.1932
12.2368
12.1854
12.146
12.1067
12.0684
12.0232
11.9609
11.8805
11.7941
11.7034
11.6122
11.5354
11.4992
11.5018
11.5118
11.4708
11.3725
11.252
11.1334
11.0207
10.9008
41.6936
14.6992
12.2825
12.2313
12.106
12.0316
11.9894
11.9719
11.9719
11.9688
11.9319
11.8523
11.725
11.5744
11.4347
11.3453
11.3135
11.3366
11.3792
11.4018
11.3691
11.2795
11.1507
10.9943
41.8228
14.8517
12.3432
12.213
12.0459
11.9423
11.8906
11.8901
11.9269
11.9719
11.9872
11.9251
11.777
11.5895
11.4102
11.2612
11.1836
11.192
11.2775
11.3888
11.4514
11.3937
11.2561
11.074
9.85178
10.8172
11.2588
11.4473
11.4734
11.44
11.4311
11.4196
11.5127
11.7196
11.544
11.5277
11.4902
11.4612
11.4366
11.4379
11.5447
11.5292
11.4171
11.4615
11.4585
11.4761
11.4344
11.4523
11.6317
11.5681
11.4928
11.5247
11.5089
11.5047
11.4565
11.4558
11.6696
11.5937
11.4984
11.4883
11.4608
11.4633
11.4365
11.4609
11.6838
11.5827
11.4961
11.4626
11.4518
11.4558
11.464
11.4582
11.6631
11.5688
11.4789
11.4162
11.3565
11.3098
11.2689
11.3082
11.6061
11.514
11.4095
11.2987
11.1914
11.1169
11.0594
11.3318
11.5238
11.4097
11.2929
11.1524
10.9665
10.7195
10.0631
8.13084
11.4327
11.3046
11.1533
10.9572
10.6908
10.2369
9.38553
7.46264
11.3476
11.2028
11.0215
10.7717
10.4348
9.86906
8.99776
7.30608
11.2801
11.1211
10.9122
10.6267
10.2379
9.66597
8.79609
7.42684
11.226
11.0538
10.8244
10.5174
10.1026
9.54439
8.75976
7.65913
11.1775
10.9927
10.7498
10.4325
10.0139
9.48311
8.80008
7.92755
11.1232
10.9269
10.6783
10.3636
9.96009
9.46564
8.87453
8.16784
11.0586
10.856
10.6117
10.3127
9.93846
9.48693
8.96726
8.37666
10.987
10.7881
10.5567
10.283
9.94865
9.54193
9.08216
8.57543
10.9325
10.7438
10.5284
10.2802
9.9847
9.62359
9.22071
8.777
10.8987
10.7229
10.5236
10.2967
10.0343
9.71881
9.36812
8.97467
10.8952
10.7345
10.5456
10.3308
10.0896
9.80763
9.49472
9.14049
10.9239
10.7616
10.5726
10.3616
10.129
9.86529
9.57861
9.25757
10.9458
10.7692
10.5722
10.3599
10.1351
9.88579
9.61822
9.32439
10.95
10.763
10.5614
10.3494
10.1309
9.89309
9.64042
9.36712
10.9211
10.7357
10.54
10.3331
10.1219
9.89632
9.65838
9.4036
10.8533
10.6884
10.5159
10.3236
10.1245
9.91145
9.68762
9.4483
10.7778
10.6464
10.5023
10.3302
10.1456
9.94566
9.73353
9.50544
10.7108
10.6102
10.4928
10.3428
10.1743
9.98835
9.78661
9.56777
10.6827
10.592
10.4842
10.3477
10.191
10.0157
9.82306
9.61239
10.708
10.5989
10.4776
10.338
10.1845
10.0154
9.83052
9.62876
10.7673
10.6236
10.4756
10.3186
10.1595
9.99164
9.81214
9.61815
10.8223
10.6463
10.4714
10.2965
10.1267
9.9551
9.7769
9.58756
10.876
10.6783
10.483
10.2963
10.1206
9.94796
9.77189
9.58644
2.31535
0.991482
0.674405
0.671584
0.797488
1.13122
1.66977
2.23812
2.81175
3.37702
3.81201
4.61521
5.62322
6.12318
6.3717
6.46252
6.43273
6.34828
6.30233
6.3141
6.33838
6.2514
6.11975
5.98484
5.882
5.82232
5.77543
5.67756
5.56411
5.44177
5.33529
5.23929
5.17429
5.11272
5.02029
4.92654
4.82325
4.70479
4.57587
4.46199
4.37629
4.30283
4.23366
4.16482
4.0938
4.01223
3.91589
3.79275
3.64723
3.50339
3.41634
3.39424
3.45935
3.83641
4.64476
5.49101
5.86367
5.90546
5.78681
5.62247
5.47466
5.31728
5.17989
5.10754
5.0624
5.07098
5.17257
5.3338
5.39796
5.36094
5.29091
5.19196
4.97766
4.58839
4.30064
4.184
4.11756
4.06815
4.02992
4.01134
4.02257
4.07479
4.12954
4.12293
4.08996
4.0516
4.01187
3.92783
3.74542
2.36779
1.91501
1.58838
1.4262
1.45131
1.59851
1.815
2.17943
2.69862
3.17914
3.91004
5.2638
6.09052
6.33857
6.44424
6.43421
6.38112
6.33165
6.30952
6.29634
6.21416
6.09926
5.97027
5.86572
5.79173
5.73392
5.64665
5.54664
5.43948
5.33767
5.24331
5.1695
5.0904
4.99685
4.90011
4.79845
4.69142
4.57993
4.46831
4.36455
4.2765
4.20106
4.12931
4.05903
3.98532
3.90227
3.79739
3.67581
3.5453
3.45325
3.47423
3.63792
4.03579
4.58056
5.23008
5.70122
5.80858
5.72661
5.59233
5.46309
5.33869
5.21468
5.12935
5.07102
5.05332
5.11721
5.23745
5.2805
5.23472
5.16996
5.06268
4.87154
4.64137
4.42167
4.27187
4.18669
4.12377
4.07505
4.0437
4.0368
4.06968
4.11726
4.13185
4.11113
4.07619
4.03631
3.95456
4.98533
3.50527
2.87765
2.47923
2.01434
1.86859
1.83166
1.89203
2.0669
2.32066
2.6858
3.27899
4.90956
6.22108
6.42217
6.42399
6.39086
6.38957
6.38135
6.36191
6.30045
6.21153
6.09509
5.9873
5.89777
5.81755
5.7288
5.63404
5.52774
5.42292
5.33563
5.2559
5.18489
5.09901
5.00683
4.90343
4.78998
4.68209
4.58737
4.49607
4.39604
4.28737
4.18262
4.08864
4.00169
3.91714
3.83495
3.75343
3.683
3.61754
3.58778
3.69172
3.97928
4.25665
4.48187
4.85303
5.38872
5.71774
5.6856
5.57876
5.46451
5.36502
5.26742
5.18327
5.12047
5.07849
5.07403
5.1259
5.15299
5.09046
5.00422
4.90338
4.78516
4.6556
4.50023
4.33849
4.24307
4.19127
4.14782
4.11334
4.09056
4.082
4.09208
4.10374
4.10088
4.08285
4.05313
3.99011
5.93475
4.65933
3.79897
3.40784
2.91893
2.53824
2.44673
2.31026
2.1898
2.22374
2.36822
2.66768
3.67837
5.39669
6.38008
6.47571
6.40479
6.39724
6.40335
6.35784
6.27145
6.15287
6.03594
5.95178
5.87971
5.79992
5.70772
5.59976
5.4774
5.36599
5.28129
5.20734
5.13154
5.05262
4.96574
4.86161
4.74548
4.64041
4.55324
4.47276
4.38962
4.29559
4.19251
4.08783
3.98989
3.89854
3.813
3.74158
3.70377
3.70751
3.79872
4.04839
4.36496
4.44707
4.46301
4.57743
4.93757
5.42126
5.59966
5.52758
5.43092
5.35021
5.27258
5.2029
5.14273
5.0831
5.02521
4.99206
4.99351
4.94785
4.87389
4.78813
4.71067
4.63814
4.53784
4.39722
4.28503
4.23488
4.19804
4.16572
4.1377
4.11612
4.10704
4.10992
4.10579
4.09096
4.07448
4.02021
6.60307
5.60855
4.70162
4.20327
3.78628
3.25571
3.0014
2.85122
2.58838
2.51883
2.5455
2.57726
2.78975
3.83304
5.65439
6.53974
6.55017
6.46439
6.37321
6.26917
6.16901
6.08469
6.01808
5.97134
5.91163
5.82784
5.71781
5.57479
5.4389
5.33912
5.26026
5.18375
5.10656
5.02596
4.9328
4.81786
4.69989
4.60443
4.52292
4.44241
4.35668
4.25949
4.15549
4.05334
3.9552
3.87502
3.80608
3.77102
3.79036
3.87892
4.14799
4.4472
4.6227
4.58966
4.50641
4.4769
4.57916
4.93772
5.33578
5.45801
5.42202
5.33941
5.2655
5.19281
5.12006
5.03994
4.96468
4.90057
4.86691
4.84874
4.78946
4.73012
4.68016
4.62838
4.55549
4.44615
4.33179
4.26717
4.22483
4.18437
4.14738
4.12159
4.11558
4.12094
4.1162
4.10619
4.10774
4.06052
7.10296
6.2971
5.47573
4.88883
4.51008
4.0203
3.57447
3.42784
3.17875
3.01565
2.94847
2.79137
2.76846
2.91927
4.04595
5.97973
6.56693
6.46728
6.30009
6.18301
6.11401
6.06393
6.03306
5.96839
5.87651
5.76825
5.64101
5.50579
5.40383
5.31939
5.23498
5.14881
5.06282
4.97419
4.87099
4.75887
4.65989
4.57995
4.50359
4.42306
4.33267
4.22926
4.12436
4.02555
3.93809
3.86522
3.82488
3.84149
3.94252
4.18805
4.53216
4.72172
4.73731
4.6715
4.5712
4.48301
4.44225
4.52828
4.84349
5.20026
5.30182
5.29345
5.23185
5.15261
5.07762
4.99389
4.92441
4.86331
4.81367
4.79553
4.76477
4.71583
4.66772
4.613
4.54313
4.44289
4.32702
4.25895
4.21606
4.17796
4.15085
4.13974
4.14397
4.14547
4.1405
4.13084
4.12436
4.06528
7.48145
6.78958
6.09961
5.50032
5.09711
4.69814
4.1877
3.92242
3.73603
3.481
3.36506
3.19601
2.95236
2.94497
3.15321
4.51767
6.20565
6.44546
6.27181
6.16608
6.09704
6.0625
6.00544
5.91618
5.80768
5.67452
5.54286
5.4488
5.37119
5.29661
5.21163
5.11534
5.00995
4.90042
4.79421
4.70355
4.6276
4.55578
4.47939
4.39224
4.29184
4.1832
4.07913
3.99365
3.92942
3.89061
3.90227
4.00063
4.24276
4.55894
4.78118
4.82022
4.78295
4.71302
4.62172
4.51928
4.42618
4.34803
4.42227
4.72432
5.04428
5.17497
5.18876
5.12219
5.04969
4.97848
4.92194
4.87844
4.84972
4.83032
4.78291
4.72916
4.67271
4.60511
4.51819
4.39578
4.28807
4.23613
4.20067
4.17517
4.1737
4.1994
4.19896
4.17445
4.15111
4.12496
4.09716
4.02399
7.78815
7.18331
6.58645
6.04444
5.61049
5.24757
4.7878
4.39666
4.226
3.97849
3.79426
3.6442
3.38173
3.18664
3.19906
3.47759
4.90498
6.20471
6.27
6.178
6.09777
6.03856
5.95273
5.85835
5.74875
5.6148
5.50015
5.41808
5.34694
5.27476
5.18701
5.07972
4.95371
4.82782
4.73313
4.66067
4.59766
4.53061
4.44869
4.34828
4.2389
4.14174
4.05691
3.98404
3.95227
3.95673
4.06275
4.32271
4.6147
4.80798
4.86215
4.83692
4.78628
4.71827
4.64193
4.55209
4.43881
4.34847
4.25233
4.31733
4.59978
4.90818
5.07798
5.08994
5.05968
5.00826
4.95448
4.92845
4.92129
4.8814
4.82515
4.7671
4.69718
4.60506
4.47098
4.32983
4.26187
4.22974
4.20614
4.20754
4.24506
4.25946
4.22892
4.18989
4.13508
4.05661
4.00103
3.92648
8.06041
7.5267
6.99401
6.5068
6.08506
5.7211
5.3074
4.88304
4.66345
4.44917
4.20824
4.03489
3.83882
3.58265
3.36852
3.40071
3.76762
5.12546
6.17187
6.18643
6.09927
6.00587
5.91021
5.81672
5.71746
5.60429
5.49419
5.40305
5.32409
5.24349
5.15042
5.04228
4.91869
4.80488
4.71222
4.62561
4.54078
4.46117
4.38368
4.30155
4.21294
4.12322
4.02533
3.98207
3.99255
4.10757
4.40289
4.68442
4.85064
4.88698
4.85523
4.81151
4.7664
4.70926
4.63911
4.54959
4.44495
4.34001
4.24713
4.17377
4.23836
4.49892
4.82243
4.98973
5.04828
5.0524
5.02693
5.00666
4.98879
4.93576
4.87843
4.81789
4.74006
4.62701
4.46811
4.32769
4.27302
4.24196
4.23016
4.2694
4.297
4.26243
4.22095
4.17479
4.10793
4.01221
3.90687
3.79602
8.32078
7.84325
7.36493
6.91931
6.50903
6.14862
5.76121
5.34781
5.08007
4.88231
4.63824
4.40031
4.20863
4.00874
3.76394
3.56418
3.58303
4.0108
5.35847
6.1077
6.07186
5.97998
5.88973
5.7917
5.69716
5.60196
5.49531
5.39296
5.29785
5.20298
5.10744
5.0082
4.9078
4.81048
4.71314
4.6115
4.50608
4.40518
4.31969
4.24953
4.18979
4.11893
4.03091
4.0342
4.15918
4.44593
4.76626
4.90626
4.93173
4.88742
4.83177
4.78464
4.72945
4.66623
4.59699
4.52049
4.43516
4.33276
4.23768
4.15642
4.14025
4.19794
4.45184
4.76741
4.95456
5.03438
5.05644
5.05241
5.02859
4.99144
4.93355
4.8723
4.79636
4.68418
4.5196
4.37418
4.31693
4.2879
4.27782
4.28813
4.27705
4.23975
4.19821
4.15035
4.07692
3.9617
3.83844
3.70245
8.56505
8.13317
7.7004
7.28835
6.8933
6.52635
6.16218
5.78081
5.47971
5.25761
5.03702
4.78673
4.53262
4.33352
4.14746
3.90222
3.69688
3.72456
4.24937
5.4715
5.98549
5.99116
5.90156
5.79412
5.68956
5.58348
5.46943
5.36839
5.27151
5.17538
5.083
4.99242
4.90078
4.80574
4.70897
4.60648
4.4963
4.38292
4.27635
4.1898
4.13262
4.08734
4.09432
4.23368
4.49711
4.81549
4.97258
4.98638
4.9336
4.86574
4.80591
4.75654
4.69885
4.63177
4.55857
4.48541
4.41157
4.32981
4.23631
4.15863
4.11703
4.13066
4.19212
4.43018
4.72548
4.90574
4.98519
5.01607
5.03499
5.03018
4.98375
4.92089
4.85048
4.75304
4.60569
4.44363
4.36181
4.32019
4.28482
4.26149
4.24707
4.21497
4.17162
4.1176
4.0352
3.92694
3.82041
3.6902
8.76851
8.3743
7.97982
7.5991
7.21923
6.8579
6.51364
6.16083
5.8563
5.59446
5.36135
5.12922
4.87036
4.62953
4.43651
4.24258
3.99327
3.80956
3.84504
4.41288
5.42711
5.8993
5.91273
5.80713
5.66795
5.52147
5.40857
5.32408
5.23945
5.15742
5.07106
4.97116
4.87369
4.788
4.69854
4.59785
4.48339
4.36386
4.26132
4.19221
4.13392
4.14827
4.30132
4.57091
4.83759
5.01072
5.03317
4.98109
4.9111
4.8443
4.79301
4.74529
4.68659
4.60893
4.52433
4.45244
4.39103
4.32768
4.25769
4.19125
4.14262
4.11984
4.1164
4.17184
4.35824
4.61821
4.79062
4.89008
4.9581
5.019
5.01941
4.96685
4.90379
4.82093
4.68394
4.49626
4.36773
4.31346
4.27185
4.23281
4.20287
4.17511
4.13218
4.07706
4.01542
3.94287
3.85991
3.72247
8.91779
8.55814
8.19549
7.84081
7.47829
7.13173
6.8013
6.4776
6.18903
5.90566
5.63866
5.39162
5.15631
4.91429
4.68833
4.48777
4.27471
4.01164
3.85734
3.929
4.5228
5.43512
5.82348
5.78627
5.64894
5.47029
5.34876
5.26661
5.20636
5.14078
5.04916
4.93993
4.82824
4.72274
4.62536
4.53051
4.44236
4.35859
4.28556
4.21016
4.21622
4.36264
4.64485
4.8706
5.02831
5.06158
5.02877
4.96729
4.89509
4.83816
4.79778
4.75542
4.69233
4.59407
4.49933
4.43463
4.38292
4.33594
4.29177
4.24828
4.20044
4.1498
4.10413
4.04369
4.06444
4.19992
4.44698
4.6505
4.80001
4.92328
5.01169
4.99576
4.93837
4.85486
4.71156
4.511
4.35452
4.27859
4.22938
4.18425
4.14373
4.11371
4.09938
4.07535
4.02989
3.98147
3.92676
3.80969
9.01254
8.68465
8.35144
8.02047
7.68022
7.35039
7.03865
6.72802
6.43031
6.16987
5.9034
5.62568
5.36571
5.14547
4.92677
4.70569
4.48492
4.23316
3.98362
3.90246
4.01015
4.62606
5.4486
5.6932
5.61317
5.42664
5.29958
5.21919
5.15331
5.07272
4.98165
4.87755
4.76124
4.65187
4.54234
4.44467
4.37765
4.33528
4.2917
4.31349
4.45052
4.73388
4.92911
5.04824
5.08928
5.06594
5.01969
4.95686
4.89421
4.85136
4.81983
4.7768
4.69903
4.5887
4.50051
4.4446
4.40017
4.3636
4.33192
4.2993
4.25392
4.19624
4.1219
4.01866
3.9407
3.94324
4.06326
4.31586
4.5489
4.76404
4.89717
4.90318
4.8675
4.8018
4.68351
4.48818
4.30038
4.20542
4.15447
4.11526
4.08287
4.05976
4.0589
4.08028
4.06783
4.03401
3.99185
3.91627
9.07761
8.77517
8.46665
8.15562
7.83731
7.52607
7.22968
6.93438
6.64395
6.36477
6.09743
5.84583
5.57959
5.31995
5.07967
4.87554
4.67015
4.45127
4.17748
3.95847
3.93687
4.06983
4.69053
5.37386
5.47875
5.38334
5.27526
5.17883
5.08558
4.99311
4.89817
4.79302
4.68341
4.56616
4.45258
4.37565
4.3441
4.32536
4.39343
4.54829
4.83938
5.02373
5.10387
5.11906
5.09864
5.06077
5.01161
4.95894
4.91408
4.88329
4.85303
4.80548
4.71747
4.59997
4.52416
4.47583
4.43277
4.39785
4.37025
4.33769
4.29193
4.2321
4.14506
4.01686
3.91131
3.87646
3.87899
3.9996
4.24429
4.51514
4.7348
4.78663
4.76881
4.71135
4.59723
4.41174
4.21
4.11947
4.07997
4.04939
4.02776
4.01896
4.02794
4.07332
4.1111
4.09821
4.06984
4.04222
9.13388
8.85164
8.56195
8.26658
7.966
7.67111
7.38897
7.10452
6.81293
6.53518
6.2702
5.99741
5.74304
5.49088
5.24748
5.00531
4.80044
4.61014
4.39749
4.13673
3.9528
3.91824
4.08517
4.67383
5.19585
5.33648
5.25478
5.13799
5.01956
4.90888
4.79849
4.69103
4.58691
4.47294
4.38153
4.34225
4.33391
4.42628
4.62585
4.89711
5.12196
5.17112
5.17075
5.14501
5.10294
5.05726
5.02068
4.98273
4.95294
4.92752
4.89674
4.84489
4.74589
4.62989
4.56549
4.51714
4.47442
4.44305
4.41471
4.37772
4.33035
4.26823
4.17347
4.04079
3.92917
3.87853
3.84641
3.85538
3.97772
4.19802
4.46278
4.61906
4.63157
4.59024
4.48544
4.31903
4.13575
4.04317
4.00801
3.97916
3.96152
3.96983
4.01793
4.08799
4.13973
4.16647
4.18612
4.22664
9.19437
8.92619
8.64797
8.36234
8.07281
7.79002
7.51796
7.23904
6.94773
6.67143
6.40952
6.14348
5.87323
5.61622
5.37532
5.14889
4.93573
4.73802
4.5404
4.31655
4.07093
3.9136
3.88323
4.07139
4.60945
5.10648
5.18661
5.09508
4.96558
4.83344
4.70372
4.58668
4.47275
4.38991
4.35102
4.34665
4.43413
4.68179
4.93771
5.13439
5.22855
5.23586
5.20623
5.16802
5.11887
5.07821
5.05087
5.02322
5.00038
4.97722
4.94673
4.89352
4.79184
4.68085
4.6182
4.5669
4.52396
4.49536
4.46551
4.4278
4.38128
4.31831
4.21991
4.08634
3.98104
3.91161
3.86254
3.82601
3.83227
3.91514
4.07848
4.29611
4.43539
4.43588
4.37538
4.25017
4.10003
3.99721
3.95037
3.91904
3.89699
3.89543
3.9313
4.00606
4.11241
4.21431
4.34336
4.48216
9.26111
9.00121
8.7312
8.45341
8.17056
7.89318
7.6258
7.34646
7.05964
6.78817
6.52582
6.25924
5.99287
5.73582
5.49132
5.26299
5.05057
4.85267
4.65865
4.45189
4.21519
3.99311
3.85225
3.84231
4.04836
4.58309
4.99978
5.01517
4.90967
4.77163
4.6352
4.4973
4.38787
4.35046
4.36707
4.44631
4.69688
5.0042
5.1433
5.2471
5.26412
5.24936
5.22429
5.19265
5.14759
5.11349
5.08996
5.06728
5.04382
5.02017
4.98861
4.93524
4.84166
4.74229
4.68061
4.62818
4.58505
4.55336
4.51631
4.4766
4.4303
4.36132
4.25536
4.12831
4.03172
3.95765
3.8889
3.83118
3.78981
3.76853
3.8044
3.92491
4.13693
4.26952
4.27006
4.20261
4.08837
3.99219
3.92433
3.88261
3.85658
3.84816
3.86867
3.94355
4.09083
4.28533
4.53682
4.72718
9.33086
9.0771
8.81059
8.53428
8.25384
7.97983
7.71469
7.4329
7.14983
6.88416
6.62371
6.35882
6.0946
5.83907
5.59854
5.37014
5.15293
4.94693
4.75273
4.55799
4.3404
4.09379
3.88714
3.77823
3.79458
4.02433
4.52574
4.81386
4.80751
4.70612
4.56579
4.42801
4.36572
4.37695
4.45846
4.69748
5.03976
5.2038
5.26095
5.28383
5.29035
5.27577
5.24687
5.2177
5.17885
5.14744
5.12112
5.09479
5.0702
5.04695
5.015
4.96375
4.88456
4.79813
4.73786
4.6861
4.64179
4.59959
4.5522
4.50688
4.44854
4.36769
4.25792
4.14214
4.05683
3.98536
3.91626
3.85807
3.80612
3.76326
3.75065
3.76134
3.86445
4.06365
4.15958
4.15553
4.08617
4.00285
3.93005
3.868
3.83502
3.8251
3.84439
3.9383
4.13234
4.41104
4.72768
4.88569
9.38292
9.13746
8.87909
8.61107
8.33521
8.06468
7.79523
7.50865
7.22657
6.97084
6.71064
6.44576
6.18287
5.92971
5.69031
5.4618
5.24215
5.03008
4.82576
4.62774
4.42697
4.20673
3.97654
3.79406
3.70661
3.72436
3.97083
4.38482
4.5872
4.59015
4.4932
4.3886
4.38238
4.45543
4.71068
5.04314
5.26315
5.30834
5.31171
5.31003
5.32425
5.30612
5.27208
5.23763
5.19897
5.16918
5.14317
5.11849
5.09733
5.07548
5.04762
4.9992
4.91685
4.83225
4.77757
4.72756
4.67376
4.61204
4.55621
4.50196
4.43682
4.3483
4.23859
4.133
4.05517
3.99082
3.92963
3.87433
3.82549
3.78596
3.75743
3.75199
3.76501
3.87617
4.0258
4.05373
4.03625
3.99543
3.9385
3.87321
3.84078
3.83717
3.87485
3.99703
4.23169
4.54235
4.83472
4.93025
9.40905
9.17375
8.92501
8.66335
8.39481
8.12952
7.84841
7.56316
7.30127
7.04282
6.78426
6.51922
6.25869
6.00745
5.76732
5.53693
5.31527
5.09936
4.88678
4.6787
4.47924
4.28231
4.07647
3.86915
3.71442
3.60089
3.61515
3.85183
4.17058
4.39915
4.38505
4.37283
4.4377
4.69406
5.05394
5.28796
5.3419
5.34649
5.34851
5.3521
5.35223
5.32236
5.28825
5.25318
5.21947
5.18825
5.15909
5.13141
5.10538
5.07533
5.03859
4.97912
4.89913
4.82747
4.76181
4.70221
4.64144
4.57372
4.50523
4.43899
4.36346
4.26808
4.16952
4.09395
4.03793
3.98517
3.93516
3.88658
3.84571
3.8203
3.78762
3.7647
3.77177
3.81254
3.88637
3.92133
3.90581
3.90754
3.89889
3.87166
3.85982
3.88288
3.97778
4.14541
4.36953
4.65036
4.87803
4.90865
9.408
9.18174
8.94159
8.6876
8.42968
8.16905
7.89705
7.62431
7.36614
7.10495
6.84117
6.57822
6.32028
6.07156
5.83349
5.60339
5.37674
5.14948
4.925
4.71012
4.51191
4.32579
4.13452
3.93076
3.731
3.56867
3.45066
3.47368
3.68541
4.04816
4.24068
4.37156
4.65669
5.03418
5.28606
5.38229
5.37524
5.3677
5.35771
5.35285
5.34607
5.31889
5.28731
5.25766
5.2318
5.20274
5.17075
5.13982
5.10811
5.0689
5.01618
4.93949
4.85164
4.78347
4.72266
4.66379
4.6025
4.534
4.45651
4.37113
4.27699
4.17067
4.07439
4.01862
3.98037
3.94818
3.92142
3.8994
3.88142
3.88319
3.87228
3.84208
3.82349
3.81898
3.80954
3.77259
3.71649
3.77139
3.81577
3.86243
3.93056
4.03014
4.17422
4.32786
4.49594
4.71572
4.8552
4.82861
9.38478
9.16627
8.9335
8.68916
8.43656
8.18046
7.91807
7.66009
7.40427
7.14219
6.88135
6.62418
6.37281
6.12749
5.88766
5.64951
5.41089
5.17368
4.94427
4.72853
4.52956
4.34348
4.161
3.96504
3.75785
3.55952
3.39938
3.29131
3.36144
3.62676
4.02384
4.49089
4.9868
5.28425
5.35819
5.37385
5.36537
5.35235
5.34476
5.33798
5.32805
5.306
5.27756
5.2535
5.23393
5.205
5.17025
5.13535
5.09791
5.05319
4.991
4.90272
4.81694
4.75343
4.69425
4.63617
4.57535
4.51055
4.43682
4.34151
4.22194
4.09919
4.00888
3.95637
3.91672
3.88233
3.86111
3.86662
3.90273
3.94619
3.95538
3.93385
3.90337
3.85961
3.80332
3.67789
3.5267
3.57305
3.70137
3.86998
4.05677
4.23383
4.38104
4.48233
4.58192
4.73678
4.79486
4.7381
9.38788
9.17408
8.94623
8.71064
8.46511
8.21343
7.95583
7.69951
7.43493
7.17553
6.91661
6.66212
6.41199
6.16551
5.92055
5.67362
5.42614
5.18349
4.95252
4.73767
4.53816
4.35121
4.16988
3.981
3.77043
3.56363
3.37883
3.2174
3.22752
3.34599
3.79463
4.55565
5.20495
5.49452
5.45897
5.40978
5.38177
5.3597
5.32963
5.30715
5.29214
5.28149
5.27009
5.25895
5.24378
5.21183
5.17472
5.13612
5.09369
5.04128
4.96476
4.86214
4.77713
4.71391
4.65466
4.59799
4.53941
4.47752
4.40568
4.30598
4.17076
4.04368
3.96363
3.91405
3.87211
3.83245
3.80697
3.83076
3.93113
4.02072
4.04979
4.03574
3.99001
3.92476
3.82942
3.63683
3.40579
3.41402
3.57813
3.86887
4.17127
4.40613
4.54566
4.61518
4.6605
4.72567
4.7408
4.67854
)
;

boundaryField
{
    inlet
    {
        type            fixedValue;
        value           uniform 1;
    }
    outlet
    {
        type            zeroGradient;
    }
    bottom
    {
        type            zeroGradient;
    }
    top
    {
        type            zeroGradient;
    }
    obstacle
    {
        type            zeroGradient;
    }
    defaultFaces
    {
        type            empty;
    }
}


// ************************************************************************* //
