/*--------------------------------*- C++ -*----------------------------------*\
  =========                 |
  \\      /  F ield         | OpenFOAM: The Open Source CFD Toolbox
   \\    /   O peration     | Website:  https://openfoam.org
    \\  /    A nd           | Version:  7
     \\/     M anipulation  |
\*---------------------------------------------------------------------------*/
FoamFile
{
    version     2.0;
    format      ascii;
    class       volVectorField;
    location    "4.4";
    object      U;
}
// * * * * * * * * * * * * * * * * * * * * * * * * * * * * * * * * * * * * * //

dimensions      [0 1 -1 0 0 0 0];

internalField   nonuniform List<vector> 
3328
(
(-1.12781 0.00298511 0)
(0.255637 0.00268942 0)
(0.545451 0.00471881 0)
(0.532821 0.00475242 0)
(0.523439 0.00514756 0)
(0.512231 0.00545985 0)
(0.498501 0.00560092 0)
(0.483166 0.00582675 0)
(0.467419 0.00608766 0)
(0.452407 0.0064636 0)
(0.438829 0.00690664 0)
(0.426515 0.00757875 0)
(0.414004 0.00855004 0)
(0.399581 0.00945539 0)
(0.381766 0.010539 0)
(0.358929 0.0117586 0)
(0.329689 0.0133411 0)
(0.293361 0.0148842 0)
(0.25248 0.0168857 0)
(0.208144 0.0187054 0)
(0.164187 0.0207018 0)
(0.119847 0.0229366 0)
(0.0740081 0.0243253 0)
(0.0262175 0.026638 0)
(-1.12635 0.00899345 0)
(0.256267 0.00875676 0)
(0.545682 0.0144223 0)
(0.53281 0.0144301 0)
(0.523062 0.0152758 0)
(0.51181 0.0160556 0)
(0.498164 0.0166123 0)
(0.482934 0.0174611 0)
(0.467296 0.0184196 0)
(0.452371 0.0198402 0)
(0.438759 0.0215466 0)
(0.426277 0.023719 0)
(0.413619 0.0267169 0)
(0.398949 0.0294966 0)
(0.380921 0.0328068 0)
(0.357902 0.0366212 0)
(0.328625 0.0415775 0)
(0.292239 0.046567 0)
(0.25131 0.0527555 0)
(0.206977 0.0585638 0)
(0.162842 0.0645279 0)
(0.118558 0.0712368 0)
(0.072618 0.0753922 0)
(0.0255282 0.0815335 0)
(-1.12513 0.0147335 0)
(0.256451 0.0147413 0)
(0.546581 0.023488 0)
(0.533555 0.0235313 0)
(0.523585 0.0250416 0)
(0.512647 0.0265083 0)
(0.499507 0.0275564 0)
(0.484828 0.0291818 0)
(0.469709 0.0310689 0)
(0.455239 0.0335547 0)
(0.441916 0.0364154 0)
(0.429551 0.0398795 0)
(0.417093 0.0446882 0)
(0.402544 0.0492637 0)
(0.384783 0.054718 0)
(0.362229 0.0610563 0)
(0.333793 0.0692592 0)
(0.298222 0.0776581 0)
(0.25796 0.0878392 0)
(0.213876 0.0976889 0)
(0.169112 0.107705 0)
(0.123757 0.119181 0)
(0.0756186 0.126347 0)
(0.0266495 0.135753 0)
(-1.12316 0.0202047 0)
(0.256944 0.0202355 0)
(0.547633 0.0320589 0)
(0.534385 0.0321759 0)
(0.524179 0.0344271 0)
(0.513659 0.0365059 0)
(0.501305 0.0384011 0)
(0.487439 0.0409444 0)
(0.473069 0.0438301 0)
(0.459215 0.0473776 0)
(0.446335 0.0514291 0)
(0.43413 0.0560144 0)
(0.421971 0.0623946 0)
(0.407723 0.0686413 0)
(0.390506 0.0760574 0)
(0.368764 0.0848018 0)
(0.341482 0.0962318 0)
(0.306735 0.1085 0)
(0.266814 0.123157 0)
(0.222558 0.138272 0)
(0.176656 0.153038 0)
(0.130599 0.16998 0)
(0.0802789 0.181012 0)
(0.0282502 0.193382 0)
(-1.1207 0.0253314 0)
(0.257661 0.0253881 0)
(0.548949 0.040101 0)
(0.535394 0.0403798 0)
(0.525296 0.0435116 0)
(0.515183 0.0464794 0)
(0.503839 0.0493588 0)
(0.490926 0.0528322 0)
(0.47743 0.0567526 0)
(0.464196 0.0612982 0)
(0.451774 0.0665014 0)
(0.439722 0.0719485 0)
(0.427932 0.0795182 0)
(0.414183 0.087255 0)
(0.397715 0.0964802 0)
(0.377089 0.107629 0)
(0.351512 0.122316 0)
(0.318935 0.138853 0)
(0.281043 0.157814 0)
(0.239979 0.178053 0)
(0.195468 0.19728 0)
(0.149451 0.220885 0)
(0.0936493 0.239446 0)
(0.0344405 0.257516 0)
(-1.11782 0.0301612 0)
(0.258709 0.0301939 0)
(0.550598 0.0477406 0)
(0.536819 0.0483415 0)
(0.527129 0.0524501 0)
(0.517501 0.0564543 0)
(0.507332 0.0603145 0)
(0.495464 0.0647229 0)
(0.482879 0.0696605 0)
(0.470207 0.0750133 0)
(0.458213 0.0812203 0)
(0.446293 0.0873047 0)
(0.434891 0.0956802 0)
(0.421903 0.104729 0)
(0.406554 0.115587 0)
(0.387647 0.128961 0)
(0.364528 0.146459 0)
(0.335243 0.167032 0)
(0.299824 0.190321 0)
(0.260773 0.217423 0)
(0.214316 0.24559 0)
(0.164486 0.280311 0)
(0.104357 0.31059 0)
(0.0341431 0.332563 0)
(-1.11456 0.0347789 0)
(0.26017 0.0347259 0)
(0.552671 0.0552047 0)
(0.538926 0.0562598 0)
(0.529728 0.0614244 0)
(0.52067 0.0663919 0)
(0.511678 0.071225 0)
(0.500893 0.076331 0)
(0.489259 0.0821478 0)
(0.477081 0.0880758 0)
(0.465495 0.0950846 0)
(0.453787 0.101701 0)
(0.442841 0.110561 0)
(0.430933 0.120696 0)
(0.417119 0.132929 0)
(0.400411 0.14826 0)
(0.379974 0.168203 0)
(0.354473 0.192984 0)
(0.322793 0.221442 0)
(0.289205 0.255918 0)
(0.249457 0.291882 0)
(0.207787 0.335715 0)
(0.145843 0.380001 0)
(0.0637985 0.416699 0)
(-1.11088 0.0393227 0)
(0.262131 0.039094 0)
(0.555304 0.0627026 0)
(0.541777 0.0642548 0)
(0.533123 0.0704478 0)
(0.524517 0.0761724 0)
(0.516611 0.0817781 0)
(0.506897 0.0871831 0)
(0.496344 0.0936133 0)
(0.484699 0.0999185 0)
(0.473536 0.107548 0)
(0.462202 0.114763 0)
(0.451802 0.123937 0)
(0.441216 0.134921 0)
(0.429225 0.14829 0)
(0.415084 0.165448 0)
(0.397556 0.187583 0)
(0.376941 0.216009 0)
(0.351027 0.248028 0)
(0.325989 0.28695 0)
(0.290653 0.330995 0)
(0.250639 0.400482 0)
(0.162488 0.478723 0)
(0.113359 0.567317 0)
(-1.10668 0.0439189 0)
(0.264632 0.0434369 0)
(0.558613 0.0702681 0)
(0.545303 0.0722687 0)
(0.537189 0.0793195 0)
(0.528725 0.0855482 0)
(0.521781 0.0915855 0)
(0.513149 0.0967236 0)
(0.503866 0.103494 0)
(0.492977 0.110105 0)
(0.482323 0.118268 0)
(0.471541 0.126275 0)
(0.461778 0.135799 0)
(0.452607 0.147451 0)
(0.442597 0.161781 0)
(0.43138 0.180548 0)
(0.41708 0.20426 0)
(0.402054 0.234811 0)
(0.382156 0.268989 0)
(0.365565 0.312769 0)
(0.335647 0.370576 0)
(0.314992 0.460379 0)
(0.28684 0.546521 0)
(0.345644 0.611714 0)
(-1.10186 0.0486475 0)
(0.2676 0.0479143 0)
(0.562614 0.0776984 0)
(0.549404 0.0800401 0)
(0.541693 0.0875732 0)
(0.532951 0.0940401 0)
(0.526732 0.100145 0)
(0.519239 0.104948 0)
(0.511438 0.11158 0)
(0.501733 0.118586 0)
(0.491865 0.127288 0)
(0.481867 0.136253 0)
(0.472891 0.146332 0)
(0.465075 0.158491 0)
(0.457197 0.173602 0)
(0.448864 0.193354 0)
(0.438264 0.21804 0)
(0.42789 0.249427 0)
(0.414756 0.285776 0)
(0.404659 0.332728 0)
(0.390112 0.397446 0)
(0.383078 0.478777 0)
(0.393233 0.526147 0)
(0.446419 0.520578 0)
(-1.09631 0.0534489 0)
(0.270847 0.0526216 0)
(0.567183 0.0845203 0)
(0.553939 0.0871246 0)
(0.545908 0.0946585 0)
(0.537054 0.101227 0)
(0.531166 0.107168 0)
(0.524891 0.111466 0)
(0.518903 0.118144 0)
(0.511009 0.125506 0)
(0.502414 0.134794 0)
(0.493393 0.144829 0)
(0.485348 0.155822 0)
(0.47856 0.168339 0)
(0.472932 0.184032 0)
(0.466704 0.203861 0)
(0.460376 0.229248 0)
(0.452868 0.260423 0)
(0.447915 0.297741 0)
(0.442534 0.34386 0)
(0.443946 0.405729 0)
(0.446362 0.479232 0)
(0.474575 0.525265 0)
(0.513584 0.521457 0)
(-1.09005 0.0581218 0)
(0.274065 0.0575336 0)
(0.571917 0.0902062 0)
(0.558639 0.0930476 0)
(0.549716 0.100269 0)
(0.541089 0.106793 0)
(0.535088 0.112764 0)
(0.53024 0.116634 0)
(0.526443 0.123106 0)
(0.520945 0.131176 0)
(0.514102 0.141355 0)
(0.506186 0.152526 0)
(0.499171 0.164715 0)
(0.492885 0.177365 0)
(0.489336 0.193296 0)
(0.484333 0.21223 0)
(0.482236 0.23762 0)
(0.477013 0.267696 0)
(0.479062 0.304236 0)
(0.478057 0.34722 0)
(0.488258 0.401589 0)
(0.498438 0.465291 0)
(0.530502 0.508966 0)
(0.5589 0.50751 0)
(-1.08323 0.0624502 0)
(0.276944 0.0624712 0)
(0.576573 0.0943706 0)
(0.563485 0.0974296 0)
(0.553795 0.10441 0)
(0.54499 0.110758 0)
(0.539009 0.117029 0)
(0.535603 0.120959 0)
(0.534146 0.12749 0)
(0.531532 0.136439 0)
(0.526986 0.147612 0)
(0.520321 0.159778 0)
(0.514247 0.173073 0)
(0.507904 0.185575 0)
(0.505667 0.20118 0)
(0.501612 0.21835 0)
(0.502614 0.242297 0)
(0.50048 0.270775 0)
(0.506547 0.30547 0)
(0.510212 0.344742 0)
(0.521852 0.389839 0)
(0.538096 0.443324 0)
(0.566452 0.490598 0)
(0.593431 0.504315 0)
(-1.07607 0.0662053 0)
(0.279406 0.0668371 0)
(0.58099 0.0967726 0)
(0.568699 0.100011 0)
(0.558503 0.107077 0)
(0.549218 0.113456 0)
(0.543569 0.120397 0)
(0.541398 0.125174 0)
(0.542375 0.132171 0)
(0.542878 0.141758 0)
(0.540912 0.153864 0)
(0.535487 0.166806 0)
(0.529984 0.180644 0)
(0.523253 0.192578 0)
(0.52126 0.207157 0)
(0.518216 0.222076 0)
(0.520917 0.243213 0)
(0.522375 0.269739 0)
(0.530789 0.302225 0)
(0.538023 0.338935 0)
(0.550822 0.377441 0)
(0.565455 0.421214 0)
(0.591591 0.463435 0)
(0.618099 0.492635 0)
(-1.06875 0.0692699 0)
(0.281558 0.0701197 0)
(0.584611 0.0978207 0)
(0.573937 0.101321 0)
(0.563891 0.108686 0)
(0.554412 0.115895 0)
(0.549319 0.124065 0)
(0.54771 0.130292 0)
(0.551079 0.137847 0)
(0.554557 0.14779 0)
(0.555017 0.160062 0)
(0.550848 0.172946 0)
(0.545612 0.186389 0)
(0.53852 0.197385 0)
(0.535984 0.210344 0)
(0.533871 0.222787 0)
(0.53756 0.241338 0)
(0.542103 0.265467 0)
(0.552069 0.295138 0)
(0.561485 0.329951 0)
(0.576843 0.365518 0)
(0.58947 0.404012 0)
(0.612182 0.4405 0)
(0.635174 0.473236 0)
(-1.06136 0.0716578 0)
(0.283705 0.0723003 0)
(0.587274 0.0981871 0)
(0.579053 0.10217 0)
(0.570247 0.110314 0)
(0.561379 0.118962 0)
(0.556613 0.128403 0)
(0.555141 0.136045 0)
(0.560167 0.144158 0)
(0.565675 0.153703 0)
(0.568004 0.165032 0)
(0.565215 0.176884 0)
(0.560342 0.189134 0)
(0.553288 0.199187 0)
(0.549969 0.210723 0)
(0.548894 0.222478 0)
(0.553202 0.238397 0)
(0.560372 0.260086 0)
(0.571476 0.28754 0)
(0.582464 0.320179 0)
(0.599214 0.353939 0)
(0.612206 0.389964 0)
(0.632101 0.423864 0)
(0.652097 0.456499 0)
(-1.05393 0.0735443 0)
(0.286205 0.0738194 0)
(0.589416 0.0987356 0)
(0.584313 0.103229 0)
(0.577996 0.112334 0)
(0.570346 0.122532 0)
(0.56565 0.133242 0)
(0.563584 0.142159 0)
(0.568491 0.150357 0)
(0.574855 0.158553 0)
(0.57863 0.167717 0)
(0.5776 0.177799 0)
(0.573664 0.188366 0)
(0.567498 0.197829 0)
(0.563897 0.208428 0)
(0.563953 0.219678 0)
(0.56844 0.233912 0)
(0.577189 0.253504 0)
(0.588971 0.279196 0)
(0.60166 0.310294 0)
(0.618742 0.343293 0)
(0.633793 0.378435 0)
(0.652667 0.41203 0)
(0.671437 0.445041 0)
(-1.04642 0.0752961 0)
(0.289174 0.0754485 0)
(0.591592 0.100327 0)
(0.589852 0.105159 0)
(0.586862 0.114992 0)
(0.58075 0.126339 0)
(0.575864 0.137626 0)
(0.572483 0.146913 0)
(0.575651 0.154658 0)
(0.581799 0.161155 0)
(0.586669 0.167895 0)
(0.587704 0.175472 0)
(0.585434 0.184316 0)
(0.581277 0.193969 0)
(0.578304 0.204763 0)
(0.579569 0.216952 0)
(0.584695 0.231858 0)
(0.593964 0.250303 0)
(0.606137 0.27342 0)
(0.619813 0.301798 0)
(0.636558 0.333198 0)
(0.653693 0.367207 0)
(0.672639 0.401354 0)
(0.692226 0.435207 0)
(-1.03871 0.0770967 0)
(0.292203 0.0778574 0)
(0.595913 0.102507 0)
(0.595554 0.107659 0)
(0.595791 0.117235 0)
(0.591854 0.128383 0)
(0.586171 0.13911 0)
(0.581789 0.148222 0)
(0.582021 0.155098 0)
(0.58678 0.160275 0)
(0.592347 0.165407 0)
(0.596182 0.171662 0)
(0.596669 0.179615 0)
(0.595103 0.189393 0)
(0.593481 0.20072 0)
(0.595606 0.213539 0)
(0.601052 0.227772 0)
(0.609841 0.245524 0)
(0.622051 0.267425 0)
(0.636045 0.293292 0)
(0.653397 0.322709 0)
(0.672262 0.354864 0)
(0.691795 0.388611 0)
(0.713172 0.423065 0)
(-1.03051 0.0796134 0)
(0.295047 0.0812846 0)
(0.600953 0.10494 0)
(0.601834 0.109576 0)
(0.604347 0.117695 0)
(0.602011 0.12742 0)
(0.595743 0.136671 0)
(0.590078 0.144239 0)
(0.587498 0.150828 0)
(0.590617 0.156482 0)
(0.596992 0.161545 0)
(0.603741 0.16711 0)
(0.60769 0.174986 0)
(0.609337 0.18565 0)
(0.609939 0.198532 0)
(0.61259 0.212717 0)
(0.618082 0.227595 0)
(0.625813 0.243765 0)
(0.637262 0.26265 0)
(0.650721 0.285216 0)
(0.668489 0.310485 0)
(0.688762 0.339752 0)
(0.709841 0.371983 0)
(0.732838 0.406251 0)
(-1.02161 0.0824529 0)
(0.297432 0.0852343 0)
(0.605922 0.10691 0)
(0.607661 0.110723 0)
(0.610981 0.116015 0)
(0.609792 0.122781 0)
(0.604176 0.1302 0)
(0.597249 0.13679 0)
(0.594325 0.144158 0)
(0.595053 0.150823 0)
(0.602186 0.156933 0)
(0.611725 0.163175 0)
(0.619216 0.171747 0)
(0.623777 0.18313 0)
(0.626496 0.196854 0)
(0.629319 0.211453 0)
(0.634457 0.225783 0)
(0.640973 0.239928 0)
(0.651256 0.255904 0)
(0.664524 0.275055 0)
(0.682306 0.297834 0)
(0.70371 0.32314 0)
(0.726727 0.352522 0)
(0.75151 0.385481 0)
(-1.01208 0.085116 0)
(0.299938 0.0876685 0)
(0.609551 0.10838 0)
(0.611718 0.110711 0)
(0.614503 0.112841 0)
(0.61483 0.116424 0)
(0.610963 0.121858 0)
(0.604908 0.128309 0)
(0.601844 0.136614 0)
(0.601198 0.144848 0)
(0.60903 0.15278 0)
(0.620856 0.160371 0)
(0.631507 0.170052 0)
(0.638532 0.182104 0)
(0.64275 0.195795 0)
(0.645373 0.209543 0)
(0.64944 0.222449 0)
(0.655105 0.234727 0)
(0.664319 0.248082 0)
(0.677466 0.263729 0)
(0.695269 0.282812 0)
(0.717437 0.305665 0)
(0.742512 0.331895 0)
(0.769039 0.36253 0)
(-1.0021 0.0863303 0)
(0.304708 0.0866423 0)
(0.61061 0.107951 0)
(0.613481 0.110613 0)
(0.615887 0.10977 0)
(0.617834 0.110434 0)
(0.61711 0.114504 0)
(0.612897 0.121085 0)
(0.610376 0.130325 0)
(0.60951 0.140216 0)
(0.617309 0.149454 0)
(0.630712 0.158221 0)
(0.643541 0.167858 0)
(0.652436 0.17913 0)
(0.657424 0.191661 0)
(0.65989 0.204193 0)
(0.662746 0.215769 0)
(0.667599 0.22647 0)
(0.676267 0.23815 0)
(0.689931 0.252066 0)
(0.708343 0.268953 0)
(0.731238 0.2891 0)
(0.75781 0.311882 0)
(0.785114 0.339569 0)
(-0.992137 0.0859135 0)
(0.311906 0.0838189 0)
(0.609085 0.104065 0)
(0.613217 0.108642 0)
(0.616745 0.106669 0)
(0.620028 0.106127 0)
(0.62217 0.109833 0)
(0.621041 0.117104 0)
(0.619915 0.126718 0)
(0.619344 0.137265 0)
(0.62667 0.147205 0)
(0.639741 0.155723 0)
(0.653235 0.163069 0)
(0.662972 0.171558 0)
(0.668263 0.181749 0)
(0.671665 0.193716 0)
(0.674688 0.205781 0)
(0.679849 0.217258 0)
(0.688869 0.228497 0)
(0.702793 0.241288 0)
(0.721772 0.256692 0)
(0.745193 0.275387 0)
(0.773567 0.29581 0)
(0.801697 0.319981 0)
(-0.98235 0.0843175 0)
(0.317788 0.0814192 0)
(0.609238 0.0951074 0)
(0.612798 0.103997 0)
(0.617193 0.103522 0)
(0.621818 0.104223 0)
(0.626176 0.108302 0)
(0.628336 0.116068 0)
(0.629508 0.126172 0)
(0.630442 0.136703 0)
(0.636021 0.145663 0)
(0.646886 0.152297 0)
(0.660395 0.158218 0)
(0.671299 0.164413 0)
(0.677104 0.171557 0)
(0.680202 0.180039 0)
(0.683918 0.191625 0)
(0.690418 0.204961 0)
(0.701569 0.218395 0)
(0.716872 0.231982 0)
(0.736628 0.246495 0)
(0.759622 0.263384 0)
(0.787337 0.281456 0)
(0.816255 0.301811 0)
(-0.972882 0.082372 0)
(0.321995 0.0817061 0)
(0.609508 0.0847737 0)
(0.612046 0.096527 0)
(0.618987 0.0990102 0)
(0.624857 0.10264 0)
(0.631234 0.108361 0)
(0.635332 0.11691 0)
(0.639151 0.126453 0)
(0.641331 0.135883 0)
(0.644039 0.143051 0)
(0.65197 0.147347 0)
(0.663919 0.149749 0)
(0.676005 0.152391 0)
(0.684968 0.157722 0)
(0.690702 0.166435 0)
(0.696358 0.178288 0)
(0.703372 0.19264 0)
(0.714859 0.207865 0)
(0.730714 0.222947 0)
(0.751114 0.237492 0)
(0.774248 0.252708 0)
(0.801238 0.268048 0)
(0.830849 0.284743 0)
(-0.964264 0.0797998 0)
(0.325046 0.0836444 0)
(0.611135 0.0784949 0)
(0.613374 0.0877763 0)
(0.623305 0.0934643 0)
(0.630527 0.0998748 0)
(0.637671 0.106948 0)
(0.642669 0.115596 0)
(0.648352 0.123751 0)
(0.649387 0.131384 0)
(0.651534 0.136998 0)
(0.654663 0.140335 0)
(0.664571 0.140707 0)
(0.677745 0.141395 0)
(0.690354 0.14517 0)
(0.700901 0.153388 0)
(0.710033 0.165622 0)
(0.718961 0.181116 0)
(0.730392 0.197665 0)
(0.745485 0.213204 0)
(0.764664 0.227139 0)
(0.787185 0.240793 0)
(0.812874 0.253584 0)
(0.840706 0.265978 0)
(-0.956381 0.0775474 0)
(0.327322 0.0850245 0)
(0.615099 0.0767141 0)
(0.61707 0.0814019 0)
(0.628464 0.0877534 0)
(0.637369 0.0959261 0)
(0.645188 0.103494 0)
(0.650556 0.110606 0)
(0.656256 0.116238 0)
(0.656097 0.122327 0)
(0.655636 0.127282 0)
(0.658624 0.130983 0)
(0.665462 0.133118 0)
(0.678889 0.133047 0)
(0.694946 0.135773 0)
(0.71047 0.143096 0)
(0.723308 0.154532 0)
(0.734534 0.169049 0)
(0.746074 0.185066 0)
(0.760214 0.200216 0)
(0.777554 0.213749 0)
(0.798693 0.224901 0)
(0.822919 0.23494 0)
(0.849805 0.24497 0)
(-0.94871 0.0756299 0)
(0.329224 0.0854915 0)
(0.619796 0.0753823 0)
(0.623008 0.0787999 0)
(0.634674 0.083756 0)
(0.643533 0.0911891 0)
(0.650767 0.0970319 0)
(0.655854 0.101128 0)
(0.660724 0.104159 0)
(0.660261 0.108587 0)
(0.659772 0.113781 0)
(0.662353 0.119174 0)
(0.666977 0.124929 0)
(0.680999 0.127797 0)
(0.700393 0.13038 0)
(0.718752 0.136113 0)
(0.735445 0.144842 0)
(0.748795 0.156175 0)
(0.760518 0.169093 0)
(0.773557 0.182373 0)
(0.788813 0.194263 0)
(0.807715 0.203749 0)
(0.830039 0.212375 0)
(0.856606 0.219877 0)
(-0.940932 0.0738303 0)
(0.332137 0.0835273 0)
(0.624981 0.0751361 0)
(0.628731 0.0777375 0)
(0.639027 0.0808197 0)
(0.646815 0.085488 0)
(0.653604 0.088834 0)
(0.658892 0.090179 0)
(0.662555 0.0896811 0)
(0.663516 0.0914854 0)
(0.664757 0.0976163 0)
(0.667767 0.105869 0)
(0.67054 0.114344 0)
(0.681833 0.121041 0)
(0.701287 0.124846 0)
(0.722078 0.128981 0)
(0.741747 0.134432 0)
(0.757763 0.14135 0)
(0.770883 0.14977 0)
(0.783243 0.159289 0)
(0.796776 0.169545 0)
(0.814153 0.17932 0)
(0.835269 0.189281 0)
(0.861576 0.196673 0)
(-0.93304 0.0710582 0)
(0.33679 0.0794856 0)
(0.629866 0.0745223 0)
(0.632746 0.0760465 0)
(0.638911 0.0774162 0)
(0.644984 0.0790341 0)
(0.651153 0.07806 0)
(0.657738 0.0743 0)
(0.662599 0.0712942 0)
(0.667732 0.0734721 0)
(0.672403 0.0808714 0)
(0.676748 0.0919859 0)
(0.679723 0.104174 0)
(0.687485 0.114585 0)
(0.702753 0.119302 0)
(0.722196 0.120541 0)
(0.742189 0.12203 0)
(0.760445 0.124148 0)
(0.776241 0.128075 0)
(0.790554 0.13423 0)
(0.804778 0.143881 0)
(0.821548 0.15484 0)
(0.842233 0.167117 0)
(0.868869 0.177393 0)
(-0.925255 0.0679108 0)
(0.343089 0.0761401 0)
(0.634137 0.071443 0)
(0.635161 0.0717684 0)
(0.636947 0.0713032 0)
(0.639227 0.069364 0)
(0.645041 0.06451 0)
(0.653041 0.0585461 0)
(0.663178 0.0566785 0)
(0.672847 0.0602486 0)
(0.681992 0.0680952 0)
(0.688709 0.0794036 0)
(0.692083 0.0921285 0)
(0.696108 0.103448 0)
(0.705627 0.109938 0)
(0.721424 0.109014 0)
(0.740421 0.106516 0)
(0.760302 0.104776 0)
(0.779164 0.105991 0)
(0.797052 0.111317 0)
(0.814176 0.120334 0)
(0.831568 0.131978 0)
(0.851493 0.145084 0)
(0.876527 0.156874 0)
(-0.918112 0.0641627 0)
(0.349036 0.0743188 0)
(0.636718 0.0639166 0)
(0.634915 0.0625231 0)
(0.63388 0.059894 0)
(0.633539 0.0546771 0)
(0.64023 0.0493671 0)
(0.651018 0.046008 0)
(0.663973 0.0471579 0)
(0.677553 0.0514216 0)
(0.689878 0.0584806 0)
(0.698599 0.0674581 0)
(0.702466 0.0776908 0)
(0.704501 0.0874288 0)
(0.707534 0.0948151 0)
(0.719392 0.0951237 0)
(0.737098 0.0915058 0)
(0.758489 0.0883448 0)
(0.780812 0.0886806 0)
(0.802603 0.0935559 0)
(0.822867 0.102792 0)
(0.842098 0.114892 0)
(0.861962 0.128506 0)
(0.8851 0.141252 0)
(-0.91125 0.060412 0)
(0.352424 0.071529 0)
(0.636195 0.0504847 0)
(0.632222 0.0479685 0)
(0.628908 0.0429542 0)
(0.63086 0.0394742 0)
(0.639458 0.0383138 0)
(0.649864 0.0382273 0)
(0.665588 0.0414258 0)
(0.681438 0.0451465 0)
(0.694648 0.0498457 0)
(0.704117 0.055009 0)
(0.709471 0.061136 0)
(0.709956 0.0679008 0)
(0.710446 0.0741199 0)
(0.71704 0.0796944 0)
(0.734127 0.0801142 0)
(0.757512 0.07798 0)
(0.783496 0.0787985 0)
(0.808808 0.0825625 0)
(0.831385 0.0903362 0)
(0.851793 0.100589 0)
(0.871431 0.112352 0)
(0.892931 0.12365 0)
(-0.904546 0.0560442 0)
(0.35055 0.0661604 0)
(0.63293 0.0350524 0)
(0.625745 0.0299201 0)
(0.626451 0.0285525 0)
(0.632657 0.0300381 0)
(0.641923 0.0337255 0)
(0.654443 0.0369334 0)
(0.669703 0.0381283 0)
(0.684584 0.0395863 0)
(0.696894 0.0407116 0)
(0.705509 0.0417346 0)
(0.711301 0.0436357 0)
(0.713483 0.047307 0)
(0.714153 0.0534882 0)
(0.719568 0.0603683 0)
(0.732384 0.0670901 0)
(0.755781 0.0713799 0)
(0.784141 0.0741395 0)
(0.812736 0.0767601 0)
(0.838191 0.0820724 0)
(0.860817 0.0889333 0)
(0.881554 0.0970463 0)
(0.902881 0.104765 0)
(-0.898634 0.0486666 0)
(0.34417 0.0566479 0)
(0.626339 0.0205116 0)
(0.622327 0.0156548 0)
(0.627946 0.020696 0)
(0.637569 0.0251035 0)
(0.64573 0.0286744 0)
(0.658551 0.0308859 0)
(0.671055 0.032875 0)
(0.683902 0.0330117 0)
(0.695171 0.031963 0)
(0.703747 0.0296265 0)
(0.711185 0.0275247 0)
(0.717758 0.0286849 0)
(0.723042 0.0353914 0)
(0.729923 0.0459706 0)
(0.739734 0.0576472 0)
(0.758784 0.0656231 0)
(0.785024 0.0698151 0)
(0.812616 0.0730841 0)
(0.838291 0.0757385 0)
(0.861834 0.0785198 0)
(0.883721 0.082155 0)
(0.905643 0.0850092 0)
(-0.895081 0.0380435 0)
(0.338993 0.0427392 0)
(0.618411 0.0130748 0)
(0.622966 0.00641803 0)
(0.631224 0.0129441 0)
(0.640225 0.0198147 0)
(0.64983 0.0257988 0)
(0.659409 0.0278495 0)
(0.668757 0.0276909 0)
(0.679311 0.025439 0)
(0.689785 0.0209777 0)
(0.699295 0.0158199 0)
(0.709816 0.0132796 0)
(0.720888 0.0140903 0)
(0.73193 0.0209538 0)
(0.742381 0.0322941 0)
(0.752833 0.0465524 0)
(0.767147 0.0599519 0)
(0.788732 0.067417 0)
(0.813628 0.0696153 0)
(0.837432 0.0697445 0)
(0.85958 0.0680066 0)
(0.880764 0.0662535 0)
(0.902249 0.0644021 0)
(-0.895333 0.0257933 0)
(0.338056 0.0260993 0)
(0.617826 0.011331 0)
(0.624436 0.00456481 0)
(0.633305 0.00943588 0)
(0.641901 0.0163803 0)
(0.651977 0.0198179 0)
(0.660058 0.0211517 0)
(0.667011 0.0204295 0)
(0.67511 0.0172557 0)
(0.684753 0.0116813 0)
(0.695748 0.00577857 0)
(0.709206 0.00314517 0)
(0.724597 0.00456531 0)
(0.740906 0.0104106 0)
(0.756003 0.0199469 0)
(0.769207 0.0332292 0)
(0.78102 0.0480883 0)
(0.795686 0.0585955 0)
(0.814841 0.0615136 0)
(0.835678 0.0581322 0)
(0.857125 0.0524006 0)
(0.879086 0.0471291 0)
(0.902172 0.0429962 0)
(-0.897194 0.0139014 0)
(0.34308 0.01212 0)
(0.61921 0.00794281 0)
(0.624489 0.00301542 0)
(0.635528 0.00547611 0)
(0.645498 0.00823255 0)
(0.653759 0.00994021 0)
(0.659087 0.012213 0)
(0.663307 0.0126669 0)
(0.668548 0.0106764 0)
(0.67719 0.00642616 0)
(0.69014 0.00123772 0)
(0.707243 -0.00129146 0)
(0.726534 -0.000536039 0)
(0.745873 0.0018605 0)
(0.764089 0.00799839 0)
(0.780351 0.0178659 0)
(0.793021 0.0302599 0)
(0.803039 0.0407838 0)
(0.814531 0.0444325 0)
(0.830418 0.040771 0)
(0.850392 0.0337531 0)
(0.87338 0.0281152 0)
(0.897581 0.0241799 0)
(-0.900917 0.00674307 0)
(0.347488 0.00817163 0)
(0.619397 0.00679949 0)
(0.624449 0.00156025 0)
(0.63765 0.000774074 0)
(0.649097 0.000217033 0)
(0.655521 0.000106806 0)
(0.659367 0.00183377 0)
(0.662234 0.00308059 0)
(0.667278 0.00380084 0)
(0.675862 0.00424366 0)
(0.688525 0.0031515 0)
(0.70717 0.00133121 0)
(0.728332 1.97228e-08 0)
(0.749735 0.000102848 0)
(0.77012 0.000543089 0)
(0.788267 0.00263545 0)
(0.799992 0.00620378 0)
(0.806745 0.0106751 0)
(0.812111 0.0144446 0)
(0.821882 0.0160914 0)
(0.84158 0.0150779 0)
(0.86705 0.0135657 0)
(0.894376 0.011515 0)
(0.414853 0.385961 0)
(0.114084 0.197132 0)
(0.0569227 0.0546154 0)
(0.0268923 0.0161642 0)
(0.0119005 0.00751129 0)
(0.00216843 0.00392947 0)
(-0.000535147 0.00116639 0)
(-0.00160738 0.000330571 0)
(0.440401 0.336995 0)
(0.273953 0.19723 0)
(0.188241 0.0831637 0)
(0.0974969 0.0484447 0)
(0.0440911 0.0293716 0)
(0.0155981 0.0130267 0)
(0.00350586 0.00474522 0)
(0.00017096 -0.000199755 0)
(0.487467 0.440032 0)
(0.377311 0.358572 0)
(0.276745 0.238798 0)
(0.166129 0.157774 0)
(0.0933372 0.0909077 0)
(0.0510652 0.0377273 0)
(0.0152708 0.0203748 0)
(0.00540608 0.00500358 0)
(0.553047 0.481222 0)
(0.50247 0.426947 0)
(0.425605 0.328792 0)
(0.314319 0.233682 0)
(0.211606 0.150425 0)
(0.124191 0.0894759 0)
(0.0516425 0.0548203 0)
(0.0155297 0.0244745 0)
(0.599919 0.499311 0)
(0.578721 0.484995 0)
(0.5338 0.432243 0)
(0.440477 0.363354 0)
(0.326662 0.279865 0)
(0.213426 0.193088 0)
(0.105176 0.127046 0)
(0.0366213 0.0684808 0)
(0.633061 0.502288 0)
(0.632039 0.504116 0)
(0.613414 0.487239 0)
(0.557665 0.449536 0)
(0.466278 0.385472 0)
(0.341212 0.311671 0)
(0.198705 0.24189 0)
(0.0757042 0.163549 0)
(0.657129 0.497778 0)
(0.665517 0.515245 0)
(0.661955 0.521507 0)
(0.634056 0.519804 0)
(0.575382 0.493241 0)
(0.469597 0.451886 0)
(0.343462 0.370562 0)
(0.159328 0.342582 0)
(0.672741 0.486037 0)
(0.690699 0.510583 0)
(0.701381 0.532619 0)
(0.695367 0.551156 0)
(0.666344 0.560995 0)
(0.599114 0.554744 0)
(0.439461 0.556556 0)
(0.219981 0.68475 0)
(0.692161 0.476267 0)
(0.713075 0.506958 0)
(0.731132 0.538344 0)
(0.742648 0.571666 0)
(0.738161 0.606542 0)
(0.711413 0.660905 0)
(0.663951 0.760621 0)
(0.746292 0.989875 0)
(0.714132 0.467266 0)
(0.736653 0.499367 0)
(0.760143 0.534181 0)
(0.783662 0.576663 0)
(0.806792 0.632489 0)
(0.830162 0.715303 0)
(0.8927 0.812277 0)
(1.13186 0.91471 0)
(0.737538 0.456367 0)
(0.762996 0.490188 0)
(0.791867 0.525843 0)
(0.823212 0.569246 0)
(0.867157 0.624772 0)
(0.925529 0.705683 0)
(1.05262 0.794971 0)
(1.31104 0.843689 0)
(0.759866 0.440468 0)
(0.789039 0.475606 0)
(0.823418 0.511482 0)
(0.862768 0.553304 0)
(0.917756 0.601812 0)
(0.99539 0.667013 0)
(1.13765 0.736522 0)
(1.36887 0.762198 0)
(0.780948 0.419598 0)
(0.813456 0.455428 0)
(0.85252 0.49162 0)
(0.898811 0.530759 0)
(0.960054 0.571414 0)
(1.04424 0.618504 0)
(1.17929 0.66922 0)
(1.37 0.678464 0)
(0.800526 0.395473 0)
(0.83588 0.430958 0)
(0.878469 0.466584 0)
(0.929475 0.503495 0)
(0.994547 0.539289 0)
(1.07889 0.571997 0)
(1.19882 0.603105 0)
(1.35397 0.60251 0)
(0.817734 0.370337 0)
(0.854768 0.403761 0)
(0.89922 0.437686 0)
(0.952609 0.471743 0)
(1.01925 0.503547 0)
(1.10153 0.52697 0)
(1.20677 0.545134 0)
(1.33269 0.54018 0)
(0.834347 0.34692 0)
(0.871548 0.376386 0)
(0.915549 0.406794 0)
(0.968344 0.436818 0)
(1.03339 0.46487 0)
(1.1117 0.482289 0)
(1.2056 0.494124 0)
(1.3126 0.488449 0)
(0.84825 0.324581 0)
(0.88555 0.348689 0)
(0.928562 0.374532 0)
(0.979442 0.399556 0)
(1.04079 0.423553 0)
(1.11377 0.43759 0)
(1.19846 0.445909 0)
(1.29253 0.440921 0)
(0.861455 0.302423 0)
(0.89741 0.32026 0)
(0.938618 0.340758 0)
(0.986915 0.360233 0)
(1.04388 0.379884 0)
(1.11145 0.391067 0)
(1.18789 0.397423 0)
(1.27179 0.393064 0)
(0.870728 0.278113 0)
(0.904155 0.290613 0)
(0.943056 0.305768 0)
(0.988846 0.319807 0)
(1.04201 0.335386 0)
(1.10433 0.343322 0)
(1.17391 0.348081 0)
(1.24988 0.344344 0)
(0.879776 0.253735 0)
(0.911672 0.261218 0)
(0.94787 0.271869 0)
(0.990109 0.281069 0)
(1.039 0.291506 0)
(1.09554 0.29685 0)
(1.15858 0.300562 0)
(1.22764 0.297912 0)
(0.886826 0.226832 0)
(0.919101 0.232442 0)
(0.954603 0.241109 0)
(0.994967 0.247756 0)
(1.0402 0.254514 0)
(1.09126 0.257309 0)
(1.14734 0.259784 0)
(1.20864 0.258075 0)
(0.891396 0.203247 0)
(0.923585 0.208409 0)
(0.958233 0.215654 0)
(0.997263 0.220273 0)
(1.04024 0.224606 0)
(1.0875 0.225999 0)
(1.1383 0.226954 0)
(1.19325 0.225209 0)
(0.898841 0.185392 0)
(0.931645 0.191009 0)
(0.96565 0.197475 0)
(1.00311 0.200373 0)
(1.04304 0.201624 0)
(1.08581 0.200844 0)
(1.13107 0.200425 0)
(1.17972 0.19808 0)
(0.905301 0.167386 0)
(0.938146 0.174324 0)
(0.971348 0.181233 0)
(1.00804 0.183699 0)
(1.04612 0.183197 0)
(1.08583 0.180754 0)
(1.12724 0.178393 0)
(1.17108 0.174596 0)
(0.912035 0.152138 0)
(0.943279 0.159231 0)
(0.975495 0.165432 0)
(1.01082 0.166729 0)
(1.04759 0.165004 0)
(1.0857 0.161805 0)
(1.12501 0.158385 0)
(1.16622 0.153482 0)
(0.917674 0.133389 0)
(0.946306 0.140002 0)
(0.977219 0.145455 0)
(1.01094 0.146044 0)
(1.04642 0.144146 0)
(1.08332 0.141164 0)
(1.12157 0.1377 0)
(1.16153 0.132661 0)
(0.926235 0.111688 0)
(0.952344 0.116942 0)
(0.98144 0.121333 0)
(1.01274 0.122125 0)
(1.04657 0.120997 0)
(1.08232 0.11911 0)
(1.11977 0.116451 0)
(1.15883 0.112209 0)
(0.928717 0.0879239 0)
(0.953861 0.0908196 0)
(0.982171 0.0939928 0)
(1.01236 0.0955266 0)
(1.04582 0.096174 0)
(1.08159 0.0959691 0)
(1.11923 0.0949682 0)
(1.15835 0.0923811 0)
(0.925673 0.0640983 0)
(0.951478 0.0652097 0)
(0.980127 0.0671357 0)
(1.01075 0.0686919 0)
(1.0446 0.0702052 0)
(1.0809 0.0715501 0)
(1.11916 0.0722962 0)
(1.15886 0.0717189 0)
(0.92768 0.0413379 0)
(0.955263 0.04179 0)
(0.984155 0.0432564 0)
(1.01507 0.0449471 0)
(1.04845 0.0470656 0)
(1.08423 0.0489575 0)
(1.12201 0.0502356 0)
(1.16122 0.0503094 0)
(0.923774 0.0225403 0)
(0.951926 0.022826 0)
(0.980536 0.0240574 0)
(1.01163 0.0251162 0)
(1.04491 0.026414 0)
(1.08027 0.0276952 0)
(1.11744 0.0286328 0)
(1.15593 0.0290794 0)
(0.922521 0.00998908 0)
(0.952504 0.00932314 0)
(0.982544 0.00886835 0)
(1.01535 0.00884181 0)
(1.05016 0.00918114 0)
(1.0868 0.00964741 0)
(1.1248 0.0100364 0)
(1.16371 0.0103169 0)
(1.67052 1.04674 0)
(2.26769 0.957177 0)
(2.64023 0.802009 0)
(2.52944 0.341889 0)
(2.49383 0.10262 0)
(2.34713 -0.147667 0)
(2.21475 -0.225834 0)
(2.18251 -0.224587 0)
(2.14877 -0.212962 0)
(2.05732 -0.142038 0)
(1.97173 -0.114756 0)
(1.69159 -0.0780849 0)
(1.43149 -0.013907 0)
(1.36879 0.00186221 0)
(1.37315 0.00441937 0)
(1.35818 0.00145255 0)
(1.34343 -0.00370985 0)
(1.33573 -0.00662677 0)
(1.34542 -0.00660528 0)
(1.37117 -0.00665787 0)
(1.40392 -0.00710816 0)
(1.42148 -0.00709815 0)
(1.43273 -0.00604671 0)
(1.44392 -0.00435501 0)
(1.46209 -0.00381126 0)
(1.48991 -0.00369353 0)
(1.52174 -0.00395091 0)
(1.54403 -0.0038312 0)
(1.56307 -0.00302107 0)
(1.57994 -0.00116876 0)
(1.59944 -9.79896e-05 0)
(1.62074 0.000835971 0)
(1.64816 0.00124932 0)
(1.67635 0.000832925 0)
(1.69818 0.000659148 0)
(1.71953 0.000405484 0)
(1.73887 0.00070563 0)
(1.75414 0.00231002 0)
(1.76536 0.00409448 0)
(1.77792 0.00501672 0)
(1.79557 0.00506748 0)
(1.81466 0.00486787 0)
(1.83399 0.00400287 0)
(1.85335 0.00360931 0)
(1.87267 0.00345844 0)
(1.89202 0.0040283 0)
(1.90934 0.00483622 0)
(1.92251 0.00658484 0)
(1.92994 0.00963553 0)
(1.93139 0.0107402 0)
(1.94846 0.0109534 0)
(1.95037 0.0100683 0)
(1.93731 0.00145451 0)
(1.85038 -0.015674 0)
(1.6896 -0.0417244 0)
(1.54151 -0.0278306 0)
(1.50477 -0.0100379 0)
(1.52283 -0.00319222 0)
(1.55635 -0.00406239 0)
(1.58544 -0.00407513 0)
(1.60378 -0.00117753 0)
(1.60884 0.00546339 0)
(1.61017 0.0103162 0)
(1.62021 0.0114239 0)
(1.63385 0.0110906 0)
(1.65935 0.00914557 0)
(1.70411 0.00443869 0)
(1.76223 -0.00303027 0)
(1.80424 -0.0107679 0)
(1.82693 -0.0174104 0)
(1.84609 -0.0217302 0)
(1.86171 -0.0249642 0)
(1.8556 -0.0257555 0)
(1.81301 -0.0196969 0)
(1.78599 -0.00959678 0)
(1.79091 -0.00255049 0)
(1.80332 0.00195027 0)
(1.81759 0.00482853 0)
(1.83276 0.00648252 0)
(1.85116 0.00751433 0)
(1.87666 0.0071998 0)
(1.91138 0.00615856 0)
(1.94592 0.00567008 0)
(1.96477 0.00616571 0)
(1.97734 0.00752146 0)
(1.98832 0.00824808 0)
(1.9961 0.0098659 0)
(2.00159 0.0110928 0)
(1.80231 0.830952 0)
(2.20711 0.466905 0)
(2.46142 0.0474614 0)
(2.54965 -0.204619 0)
(2.46217 -0.415927 0)
(2.4444 -0.545557 0)
(2.44542 -0.544953 0)
(2.3515 -0.392511 0)
(2.2315 -0.282017 0)
(2.10548 -0.241505 0)
(2.02175 -0.203017 0)
(1.80008 -0.0759845 0)