/*--------------------------------*- C++ -*----------------------------------*\
  =========                 |
  \\      /  F ield         | OpenFOAM: The Open Source CFD Toolbox
   \\    /   O peration     | Website:  https://openfoam.org
    \\  /    A nd           | Version:  7
     \\/     M anipulation  |
\*---------------------------------------------------------------------------*/
FoamFile
{
    version     2.0;
    format      ascii;
    class       volVectorField;
    location    "2.4";
    object      U;
}
// * * * * * * * * * * * * * * * * * * * * * * * * * * * * * * * * * * * * * //

dimensions      [0 1 -1 0 0 0 0];

internalField   nonuniform List<vector> 
4128
(
(3 1.55697e-17 0)
(3 -2.9892e-17 0)
(3 -1.28246e-16 0)
(3 -8.18158e-17 0)
(3 -4.94319e-16 0)
(3 -7.69956e-16 0)
(3 -7.54818e-16 0)
(3 -4.10079e-16 0)
(3 -1.7427e-16 0)
(3 -5.25308e-17 0)
(3 2.59259e-16 0)
(3 6.77444e-16 0)
(3 1.45257e-15 0)
(3 1.51596e-15 0)
(3 5.65808e-16 0)
(3 1.40626e-16 0)
(3 -7.69362e-16 0)
(2.66904 0.0130679 0)
(0.878819 0.0307506 0)
(0.627911 0.0401383 0)
(0.524799 0.0490031 0)
(0.398709 0.0585133 0)
(0.256552 0.0659151 0)
(0.107189 0.0853902 0)
(3 -6.77323e-17 0)
(3 -2.35679e-16 0)
(3 -4.83126e-16 0)
(3 -3.65313e-16 0)
(3 -8.08644e-16 0)
(3 -1.56126e-15 0)
(3 -1.68103e-15 0)
(3 -1.01719e-15 0)
(3 -6.26432e-16 0)
(3 -2.41625e-16 0)
(3 7.6456e-17 0)
(3 5.95062e-16 0)
(3 1.7026e-15 0)
(3 1.39559e-15 0)
(3 6.08463e-16 0)
(3 -2.60757e-16 0)
(3 -1.79286e-15 0)
(2.7251 0.0688615 0)
(0.892367 0.145152 0)
(0.609734 0.140457 0)
(0.501623 0.158877 0)
(0.376678 0.190214 0)
(0.238389 0.218867 0)
(0.09183 0.272906 0)
(3 -1.1326e-16 0)
(3 -3.26271e-16 0)
(3 -4.68928e-16 0)
(3 -5.07082e-16 0)
(3 -5.23779e-16 0)
(3 -6.01302e-16 0)
(3 -7.94658e-16 0)
(3 -6.48565e-16 0)
(3 -1.79583e-16 0)
(3 -1.29987e-16 0)
(3 -1.81287e-16 0)
(3 -9.72257e-17 0)
(3 -2.70171e-16 0)
(3 -3.72938e-16 0)
(3 -1.633e-16 0)
(3 -4.3714e-16 0)
(3 -1.16577e-15 0)
(2.88399 0.109462 0)
(0.986589 0.263882 0)
(0.658299 0.24427 0)
(0.551364 0.272839 0)
(0.438368 0.321157 0)
(0.300791 0.359789 0)
(0.151521 0.456468 0)
(3 1.46764e-16 0)
(3 1.32663e-16 0)
(3 5.24536e-17 0)
(3 3.99826e-17 0)
(3 -1.52234e-16 0)
(3 -1.11e-17 0)
(3 3.63295e-16 0)
(3 2.288e-16 0)
(3 1.33906e-17 0)
(3 -7.57665e-17 0)
(3 -5.84861e-16 0)
(3 -1.09198e-15 0)
(3 -1.65684e-15 0)
(3 -1.68881e-15 0)
(3 -1.77132e-15 0)
(3 -1.19937e-15 0)
(3 -1.08855e-15 0)
(3.0251 0.0133183 0)
(1.1747 0.34593 0)
(0.752175 0.327426 0)
(0.649251 0.363563 0)
(0.543928 0.435053 0)
(0.359997 0.545486 0)
(0.199178 0.76168 0)
(3 -5.33343e-17 0)
(3 7.41359e-17 0)
(3 2.03646e-16 0)
(3 -2.44366e-17 0)
(3 -1.3323e-16 0)
(3 -2.58389e-16 0)
(3 -5.03326e-16 0)
(3 -8.86674e-16 0)
(3 -3.86812e-16 0)
(3 -8.29256e-16 0)
(3 -1.01031e-15 0)
(3 -1.50785e-15 0)
(3 -1.49456e-15 0)
(3 -1.52602e-15 0)
(3 -1.63871e-15 0)
(3 -1.18125e-15 0)
(3 -1.25082e-15 0)
(3.00186 7.84105e-06 0)
(1.46287 0.402818 0)
(0.806404 0.428659 0)
(0.692657 0.471183 0)
(0.612804 0.578757 0)
(0.55839 0.758867 0)
(0.663452 1.04729 0)
(3 9.35065e-17 0)
(3 -3.40801e-16 0)
(3 -5.79116e-16 0)
(3 -7.31525e-16 0)
(3 -2.70481e-16 0)
(3 8.66531e-17 0)
(3 -1.63178e-16 0)
(3 -4.3674e-16 0)
(3 -1.64318e-16 0)
(3 -9.69118e-16 0)
(3 -1.8867e-15 0)
(3 -1.79783e-15 0)
(3 -1.23587e-15 0)
(3 -1.1745e-15 0)
(3 -1.28773e-15 0)
(3 -1.68488e-15 0)
(3 -1.1796e-15 0)
(3.00001 -4.55567e-07 0)
(1.98369 0.450757 0)
(0.893699 0.544061 0)
(0.762378 0.556336 0)
(0.735385 0.655407 0)
(0.778331 0.786228 0)
(1.00578 0.925945 0)
(3 -7.48123e-17 0)
(3 -7.68611e-16 0)
(3 -1.40083e-15 0)
(3 -1.01548e-15 0)
(3 -4.63533e-16 0)
(3 7.0564e-18 0)
(3 5.54814e-16 0)
(3 -2.17283e-16 0)
(3 -2.90068e-16 0)
(3 -2.80899e-16 0)
(3 -1.2022e-15 0)
(3 -1.34577e-15 0)
(3 -1.16131e-15 0)
(3 -1.25309e-15 0)
(3 -1.13567e-15 0)
(3 -1.65139e-15 0)
(3 1.19485e-16 0)
(3 -5.23497e-07 0)
(2.79031 0.282241 0)
(1.11104 0.640632 0)
(0.895468 0.602633 0)
(0.883475 0.695442 0)
(0.964318 0.80822 0)
(1.21726 0.895187 0)
(3 -1.82012e-16 0)
(3 -6.7299e-16 0)
(3 -7.37539e-16 0)
(3 -7.19603e-16 0)
(3 -4.90775e-16 0)
(3 -3.03731e-16 0)
(3 4.06126e-17 0)
(3 2.1306e-17 0)
(3 -3.10992e-16 0)
(3 -1.94347e-16 0)
(3 1.15767e-16 0)
(3 -3.52671e-16 0)
(3 -7.59383e-16 0)
(3 -8.79051e-16 0)
(3 -6.9388e-16 0)
(3 -3.42787e-16 0)
(3 -6.55509e-17 0)
(3 -1.09651e-07 0)
(3.0681 0.0196437 0)
(1.5084 0.655399 0)
(1.01501 0.711746 0)
(1.02106 0.72766 0)
(1.09047 0.789465 0)
(1.3002 0.840745 0)
(3 -8.09281e-17 0)
(3 -1.27189e-16 0)
(3 -1.65751e-16 0)
(3 -3.26613e-16 0)
(3 -7.4338e-16 0)
(3 -7.6903e-16 0)
(3 -7.63868e-16 0)
(3 -4.3029e-16 0)
(3 -8.03348e-16 0)
(3 -9.4471e-16 0)
(3 -6.4149e-16 0)
(3 -5.97976e-16 0)
(3 -9.57496e-16 0)
(3 -8.33393e-16 0)
(3 -5.4725e-16 0)
(3 2.11261e-17 0)
(3 9.35998e-17 0)
(3 -1.124e-08 0)
(3.00302 0.000109167 0)
(2.2292 0.575814 0)
(1.15655 0.805514 0)
(1.1074 0.797018 0)
(1.19623 0.815099 0)
(1.36148 0.827932 0)
(3 1.76144e-16 0)
(3 -2.80913e-16 0)
(3 -3.99503e-16 0)
(3 -4.94265e-16 0)
(3 -8.31297e-16 0)
(3 -1.70648e-15 0)
(3 -2.09872e-15 0)
(3 -1.97282e-15 0)
(3 -1.70642e-15 0)
(3 -1.6946e-15 0)
(3 -1.42017e-15 0)
(3 -5.87105e-16 0)
(3 1.2053e-16 0)
(3 1.52563e-16 0)
(3 3.49512e-16 0)
(3 3.8437e-16 0)
(3 -1.02801e-16 0)
(3 -3.5854e-10 0)
(3.00001 -6.6136e-08 0)
(3.04369 0.122843 0)
(1.55367 0.81824 0)
(1.2085 0.791313 0)
(1.30101 0.802783 0)
(1.4247 0.80849 0)
(3 1.49484e-17 0)
(3 -2.99913e-17 0)
(3 -3.41343e-17 0)
(3 6.52831e-18 0)
(3 -1.03256e-16 0)
(3 -3.18491e-16 0)
(3 -7.057e-16 0)
(3 -1.25628e-15 0)
(3 -1.39968e-15 0)
(3 -1.22684e-15 0)
(3 -3.7854e-16 0)
(3 -2.73334e-17 0)
(3 -2.00108e-16 0)
(3 -6.39568e-18 0)
(3 2.42252e-16 0)
(3 -1.71742e-16 0)
(3 4.1136e-16 0)
(3 -8.61784e-13 0)
(3 -4.08969e-07 0)
(3.01463 0.00309407 0)
(2.26655 0.649758 0)
(1.33695 0.87189 0)
(1.34454 0.861762 0)
(1.45713 0.847528 0)
(3 1.70005e-16 0)
(3 6.2745e-16 0)
(3 5.731e-16 0)
(3 4.76496e-16 0)
(3 6.34227e-16 0)
(3 5.40153e-16 0)
(3 1.69061e-16 0)
(3 -1.72729e-16 0)
(3 -5.75581e-16 0)
(3 -5.5128e-16 0)
(3 -3.68536e-16 0)
(3 -4.52316e-16 0)
(3 -5.53163e-16 0)
(3 1.78434e-16 0)
(3 2.18167e-16 0)
(3 1.26977e-16 0)
(3 9.47916e-16 0)
(3 1.67228e-16 0)
(3 -8.63689e-08 0)
(3.00008 3.87421e-05 0)
(3.01436 0.13216 0)
(1.76114 0.854422 0)
(1.3971 0.869977 0)
(1.51182 0.853427 0)
(3 1.58324e-16 0)
(3 2.95227e-16 0)
(3 3.83625e-16 0)
(3 4.2135e-16 0)
(3 9.52419e-16 0)
(3 7.64462e-16 0)
(3 5.03855e-16 0)
(3 4.43276e-16 0)
(3 2.96067e-16 0)
(3 -1.55125e-16 0)
(3 -1.12189e-16 0)
(3 -1.42329e-16 0)
(3 6.89033e-16 0)
(3 9.83456e-16 0)
(3 6.60252e-16 0)
(3 4.22723e-16 0)
(3 1.91293e-16 0)
(3 4.74065e-16 0)
(3 -8.7479e-09 0)
(3 6.95464e-09 0)
(3.00832 0.0059429 0)
(2.60098 0.545899 0)
(1.56703 0.916164 0)
(1.54708 0.911293 0)
(3 4.18655e-17 0)
(3 -3.631e-16 0)
(3 -2.1117e-16 0)
(3 1.53136e-16 0)
(3 2.6068e-16 0)
(3 8.58824e-17 0)
(3 -1.57258e-16 0)
(3 -1.1206e-16 0)
(3 1.37708e-16 0)
(3 -6.1362e-17 0)
(3 -3.13606e-16 0)
(3 -3.3377e-16 0)
(3 3.64554e-16 0)
(3 1.40723e-16 0)
(3 -2.55334e-16 0)
(3 -4.04048e-17 0)
(3 -7.32286e-16 0)
(3 -6.88003e-16 0)
(3 -1.26204e-10 0)
(3 -6.3775e-10 0)
(3.00003 7.69144e-05 0)
(3.02637 0.0628285 0)
(2.10933 0.761445 0)
(1.63316 0.916589 0)
(3 1.53363e-17 0)
(3 -1.19466e-16 0)
(3 -4.61032e-16 0)
(3 -3.32663e-16 0)
(3 -1.59826e-15 0)
(3 -1.54774e-15 0)
(3 -1.21555e-15 0)
(3 -5.3795e-16 0)
(3 -1.21776e-16 0)
(3 4.31528e-16 0)
(3 -1.01222e-16 0)
(3 3.03322e-16 0)
(3 3.76886e-16 0)
(3 1.09233e-16 0)
(3 1.4647e-16 0)
(3 2.19084e-16 0)
(3 -5.06022e-17 0)
(3 -4.86527e-16 0)
(3 -6.63071e-13 0)
(3 -1.41678e-10 0)
(3 6.7904e-08 0)
(3.00141 0.00294907 0)
(2.85425 0.266998 0)
(1.9498 0.854455 0)
(3 -4.9297e-16 0)
(3 -3.6937e-16 0)
(3 -2.95217e-16 0)
(3 -5.26264e-16 0)
(3 -1.24191e-15 0)
(3 -1.24308e-15 0)
(3 -8.80199e-16 0)
(3 3.01616e-16 0)
(3 7.15095e-16 0)
(3 1.03199e-15 0)
(3 8.16093e-16 0)
(3 5.32322e-16 0)
(3 5.58283e-16 0)
(3 6.85406e-16 0)
(3 8.86359e-16 0)
(3 6.35282e-16 0)
(3 2.94115e-16 0)
(3 5.02149e-16 0)
(3 -3.4675e-16 0)
(3 -1.31997e-11 0)
(3 5.42892e-12 0)
(3 1.5643e-05 0)
(3.00108 0.0202957 0)
(2.61836 0.476184 0)
(3 -8.4397e-17 0)
(3 2.25846e-17 0)
(3 7.76654e-17 0)
(3 -1.43943e-16 0)
(3 2.26463e-16 0)
(3 4.13682e-16 0)
(3 2.95046e-16 0)
(3 2.89586e-16 0)
(3 6.08528e-16 0)
(3 4.78004e-16 0)
(3 4.45413e-16 0)
(3 1.98394e-16 0)
(3 -8.8614e-17 0)
(3 -2.97512e-16 0)
(3 -5.9528e-16 0)
(3 -6.0134e-16 0)
(3 -5.3156e-16 0)
(3 1.25302e-16 0)
(3 4.00746e-16 0)
(3 -5.25502e-13 0)
(3 -5.30748e-13 0)
(3 1.20769e-08 0)
(2.99995 0.00043148 0)
(2.98107 0.0623982 0)
(3 2.45768e-16 0)
(3 2.92804e-16 0)
(3 6.98039e-16 0)
(3 8.27841e-16 0)
(3 1.30273e-15 0)
(3 2.61512e-15 0)
(3 2.60255e-15 0)
(3 1.46987e-15 0)
(3 6.74708e-16 0)
(3 4.75177e-16 0)
(3 5.2481e-16 0)
(3 4.73368e-17 0)
(3 -7.68227e-16 0)
(3 -1.02188e-15 0)
(3 -1.60342e-15 0)
(3 -1.94948e-15 0)
(3 -1.41311e-15 0)
(3 -8.80413e-16 0)
(3 -7.27211e-16 0)
(3 -5.60318e-15 0)
(3 -1.70623e-13 0)
(3 3.90421e-12 0)
(3 9.6142e-07 0)
(2.99961 0.00245401 0)
(3 1.90725e-16 0)
(3 5.46975e-16 0)
(3 9.91106e-16 0)
(3 1.30068e-15 0)
(3 1.45729e-15 0)
(3 1.304e-15 0)
(3 1.56679e-15 0)
(3 1.83095e-15 0)
(3 9.79314e-16 0)
(3 5.74966e-16 0)
(3 3.99919e-16 0)
(3 3.17998e-16 0)
(3 -2.44433e-16 0)
(3 -3.6736e-16 0)
(3 -4.95087e-16 0)
(3 -4.48266e-16 0)
(3 -2.23424e-16 0)
(3 -3.54151e-16 0)
(3 -8.45673e-16 0)
(3 -2.00984e-15 0)
(3 -2.59942e-14 0)
(3 -2.45993e-14 0)
(3 7.73608e-10 0)
(3 1.23565e-05 0)
(3 -3.22299e-17 0)
(3 -1.40086e-17 0)
(3 -9.67508e-17 0)
(3 -2.22466e-17 0)
(3 -1.9285e-16 0)
(3 -9.77478e-16 0)
(3 -8.39856e-16 0)
(3 -1.46076e-16 0)
(3 4.83546e-16 0)
(3 3.13835e-16 0)
(3 -2.23021e-16 0)
(3 -1.21195e-16 0)
(3 -7.50346e-16 0)
(3 -5.5462e-16 0)
(3 2.17018e-16 0)
(3 1.0283e-15 0)
(3 5.62697e-16 0)
(3 -5.85491e-16 0)
(3 -1.55488e-15 0)
(3 -1.69639e-15 0)
(3 -1.29441e-15 0)
(3 -8.93083e-15 0)
(3 1.04802e-13 0)
(3 1.56455e-08 0)
(3 -2.51669e-16 0)
(3 -5.38069e-16 0)
(3 -6.23536e-16 0)
(3 -9.56972e-16 0)
(3 -1.07434e-15 0)
(3 -1.06426e-15 0)
(3 -9.01012e-16 0)
(3 -7.98347e-16 0)
(3 -4.71233e-16 0)
(3 -7.5971e-16 0)
(3 -8.41547e-16 0)
(3 -6.53546e-16 0)
(3 -4.87841e-16 0)
(3 -1.09921e-15 0)
(3 -1.09666e-15 0)
(3 -8.70056e-16 0)
(3 -1.89272e-15 0)
(3 -3.27943e-15 0)
(3 -3.67064e-15 0)
(3 -1.21883e-15 0)
(3 3.38477e-17 0)
(3 -1.4853e-15 0)
(3 -1.0388e-15 0)
(3 4.9871e-12 0)
(3 -1.43723e-17 0)
(3 -3.27711e-16 0)
(3 -6.06051e-16 0)
(3 -6.82196e-16 0)
(3 -1.11664e-15 0)
(3 -1.05309e-15 0)
(3 -1.13511e-15 0)
(3 -1.08921e-15 0)
(3 -1.11279e-15 0)
(3 -1.17223e-15 0)
(3 1.21612e-16 0)
(3 2.84969e-16 0)
(3 5.42024e-16 0)
(3 -4.19823e-16 0)
(3 -1.41771e-15 0)
(3 -2.13594e-15 0)
(3 -2.75162e-15 0)
(3 -3.08264e-15 0)
(3 -3.45628e-15 0)
(3 -2.1374e-15 0)
(3 -1.3254e-15 0)
(3 -4.76863e-16 0)
(3 -5.75114e-16 0)
(3 -8.50987e-16 0)
(3 1.72661e-16 0)
(3 -7.97398e-17 0)
(3 -6.23186e-16 0)
(3 -7.2848e-16 0)
(3 -9.4118e-16 0)
(3 -8.27057e-16 0)
(3 -6.94001e-16 0)
(3 -6.52495e-16 0)
(3 -3.45554e-16 0)
(3 5.35865e-16 0)
(3 1.42512e-15 0)
(3 6.92647e-16 0)
(3 -2.19548e-17 0)
(3 -8.85019e-16 0)
(3 -1.04213e-15 0)
(3 -1.74045e-15 0)
(3 -2.32166e-15 0)
(3 -2.07018e-15 0)
(3 -2.32111e-15 0)
(3 -2.49936e-15 0)
(3 -1.72734e-15 0)
(3 -7.23575e-17 0)
(3 -8.99341e-18 0)
(3 -6.6955e-16 0)
(3 7.69886e-17 0)
(3 4.18814e-16 0)
(3 2.30752e-16 0)
(3 -2.99842e-17 0)
(3 4.09994e-19 0)
(3 -4.4383e-16 0)
(3 4.12767e-16 0)
(3 1.09539e-15 0)
(3 1.36473e-15 0)
(3 1.39185e-15 0)
(3 1.46286e-15 0)
(3 -8.06024e-17 0)
(3 -1.22555e-15 0)
(3 -1.52804e-15 0)
(3 -2.08124e-15 0)
(3 -2.20915e-15 0)
(3 -2.29622e-15 0)
(3 -1.74205e-15 0)
(3 -5.77749e-16 0)
(3 -2.05404e-16 0)
(3 8.0433e-16 0)
(3 8.95377e-16 0)
(3 5.34767e-16 0)
(3 1.50067e-16 0)
(3 1.08999e-17 0)
(3 1.29907e-16 0)
(3 -2.34098e-17 0)
(3 -2.91765e-16 0)
(3 2.36423e-16 0)
(3 3.68045e-16 0)
(3 -1.07847e-16 0)
(3 -1.81008e-16 0)
(3 5.82101e-17 0)
(3 -1.62868e-16 0)
(3 -2.39995e-16 0)
(3 -1.36763e-16 0)
(3 -3.92003e-16 0)
(3 -4.12074e-16 0)
(3 -8.53029e-16 0)
(3 -1.16468e-15 0)
(3 -2.34914e-15 0)
(3 -1.70821e-15 0)
(3 1.12253e-16 0)
(3 8.29928e-16 0)
(3 1.09968e-15 0)
(3 2.84736e-16 0)
(3 1.32994e-16 0)
(3 2.98669e-17 0)
(3 1.98721e-18 0)
(3 -2.26194e-16 0)
(3 -3.35691e-16 0)
(3 -3.78294e-16 0)
(3 -1.25152e-16 0)
(3 -2.75045e-16 0)
(3 -7.2261e-16 0)
(3 -1.15305e-15 0)
(3 -1.00096e-15 0)
(3 -9.42122e-16 0)
(3 -1.14305e-15 0)
(3 -5.681e-16 0)
(3 -5.44709e-16 0)
(3 -7.03348e-16 0)
(3 -9.27222e-16 0)
(3 -1.4305e-15 0)
(3 -6.14176e-16 0)
(3 1.86891e-16 0)
(3 3.80218e-16 0)
(3 4.06858e-16 0)
(3 -2.18869e-16 0)
(3 -5.08314e-16 0)
(3 -1.22798e-16 0)
(3 4.45204e-17 0)
(3 -1.29059e-16 0)
(3 5.21224e-17 0)
(3 4.32828e-17 0)
(3 2.02415e-16 0)
(3 7.07639e-17 0)
(3 1.61444e-16 0)
(3 5.50582e-16 0)
(3 3.10412e-16 0)
(3 -9.27271e-17 0)
(3 -8.4516e-17 0)
(3 -1.76931e-16 0)
(3 -3.93197e-16 0)
(3 -2.58018e-16 0)
(3 -9.26572e-16 0)
(3 -1.20873e-15 0)
(3 -4.90689e-16 0)
(3 1.01185e-15 0)
(3 1.75566e-15 0)
(3 1.50579e-15 0)
(3 1.09317e-15 0)
(3 3.7355e-16 0)
(3 6.95743e-16 0)
(3 5.35763e-16 0)
(3 5.03287e-16 0)
(3 1.91931e-17 0)
(3 1.36038e-16 0)
(3 2.77335e-17 0)
(3 2.3935e-16 0)
(3 3.0198e-16 0)
(3 1.70324e-16 0)
(3 8.616e-16 0)
(3 6.98759e-16 0)
(3 -5.29563e-16 0)
(3 -8.77879e-16 0)
(3 -7.542e-16 0)
(3 -7.57335e-16 0)
(3 2.91845e-16 0)
(3 5.0831e-16 0)
(3 9.36105e-16 0)
(3 2.22681e-15 0)
(3 3.07583e-15 0)
(3 2.68302e-15 0)
(3 2.50399e-15 0)
(3 2.81289e-15 0)
(3 1.95542e-15 0)
(3 1.48278e-15 0)
(3 6.75893e-16 0)
(3 7.40358e-16 0)
(3 4.17941e-16 0)
(3 4.60547e-16 0)
(3 6.82175e-16 0)
(3 5.88741e-16 0)
(3 4.80202e-16 0)
(3 4.09645e-16 0)
(3 3.02538e-17 0)
(3 -5.92e-16 0)
(3 -6.23872e-16 0)
(3 -9.32088e-16 0)
(3 -9.86438e-16 0)
(3 -3.54847e-16 0)
(3 1.18453e-15 0)
(3 2.00299e-15 0)
(3 2.18956e-15 0)
(3 1.87467e-15 0)
(3 1.91043e-15 0)
(3 2.21348e-15 0)
(3 2.41821e-15 0)
(3 2.04255e-15 0)
(3 2.12928e-15 0)
(3 1.3819e-15 0)
(3 1.12051e-15 0)
(3 1.02215e-15 0)
(3 2.88466e-18 0)
(3 3.04612e-16 0)
(3 7.52864e-16 0)
(3 8.20737e-16 0)
(3 7.73683e-16 0)
(3 8.26499e-16 0)
(3 -5.71862e-16 0)
(3 -1.24449e-15 0)
(3 -8.33757e-16 0)
(3 -3.57931e-16 0)
(3 -1.78794e-16 0)
(3 5.67781e-16 0)
(3 7.00283e-16 0)
(3 8.66979e-16 0)
(3 8.3146e-16 0)
(3 6.64609e-16 0)
(3 1.02372e-15 0)
(3 1.70644e-15 0)
(3 1.65616e-15 0)
(3 1.41406e-15 0)
(3 1.77466e-15 0)
(3 2.0385e-15 0)
(3 1.73661e-15 0)
(3 1.28746e-15 0)
(3 -5.81001e-16 0)
(3 -5.02087e-16 0)
(3 -2.70011e-17 0)
(3 9.44955e-17 0)
(3 3.30824e-16 0)
(3 2.33305e-16 0)
(3 2.79445e-17 0)
(3 -8.05989e-17 0)
(3 -3.84074e-16 0)
(3 -5.08414e-16 0)
(3 -2.25268e-16 0)
(3 -1.64502e-16 0)
(3 -2.7419e-16 0)
(3 2.09383e-16 0)
(3 9.78253e-16 0)
(3 1.4415e-15 0)
(3 1.3209e-15 0)
(3 1.13161e-15 0)
(3 1.1643e-15 0)
(3 1.2213e-15 0)
(3 1.11088e-15 0)
(3 1.38861e-15 0)
(3 1.42911e-15 0)
(3 6.16518e-16 0)
(3 -1.8339e-16 0)
(3 -2.88955e-16 0)
(3 -3.35171e-16 0)
(3 -2.28912e-16 0)
(3 -3.92772e-16 0)
(3 -1.60889e-16 0)
(3 7.46613e-16 0)
(3 8.06642e-16 0)
(3 2.18631e-16 0)
(3 -1.25332e-16 0)
(3 -3.91413e-17 0)
(3 -2.69156e-16 0)
(3 1.58796e-16 0)
(3 9.73081e-16 0)
(3 1.47572e-15 0)
(3 1.90776e-15 0)
(3 1.14403e-15 0)
(3 2.98336e-16 0)
(3 7.99148e-16 0)
(3 1.9045e-16 0)
(3 -3.73184e-16 0)
(3 8.75266e-17 0)
(3 7.73298e-16 0)
(3 1.26019e-15 0)
(3 7.61098e-17 0)
(3 -1.99876e-16 0)
(3 -4.09932e-16 0)
(3 -3.52628e-16 0)
(3 -5.03655e-16 0)
(3 -5.98479e-16 0)
(3 -4.75514e-16 0)
(3 -1.72942e-16 0)
(3 -2.2058e-16 0)
(3 6.77661e-16 0)
(3 3.78132e-16 0)
(3 1.14913e-16 0)
(3 4.03455e-16 0)
(3 5.94655e-16 0)
(3 2.91412e-16 0)
(3 8.01129e-16 0)
(3 1.37845e-15 0)
(3 1.08444e-15 0)
(3 1.03516e-15 0)
(3 7.11781e-16 0)
(3 -5.48541e-16 0)
(3 -6.86019e-16 0)
(3 -2.62206e-16 0)
(3 9.73938e-16 0)
(3 -1.05661e-17 0)
(3 1.10901e-16 0)
(3 4.1815e-17 0)
(3 5.76729e-19 0)
(3 -9.21671e-17 0)
(3 -7.06384e-16 0)
(3 -9.82141e-16 0)
(3 -5.56886e-16 0)
(3 3.05651e-16 0)
(3 1.43319e-15 0)
(3 1.401e-15 0)
(3 1.28988e-15 0)
(3 8.61497e-16 0)
(3 3.59762e-16 0)
(3 -1.47612e-17 0)
(3 -4.56096e-17 0)
(3 7.78661e-16 0)
(3 7.28656e-16 0)
(3 -1.25541e-16 0)
(3 -5.0726e-16 0)
(3 -6.85314e-16 0)
(3 -7.28373e-16 0)
(3 -2.30785e-16 0)
(3 6.96732e-16 0)
(3 1.11686e-16 0)
(3 1.9147e-16 0)
(3 -1.57415e-17 0)
(3 -3.22948e-16 0)
(3 -3.16725e-16 0)
(3 -1.61814e-16 0)
(3 -1.16938e-16 0)
(3 -1.22662e-16 0)
(3 -3.33647e-17 0)
(3 4.01478e-16 0)
(3 1.21728e-15 0)
(3 1.33991e-15 0)
(3 1.1073e-15 0)
(3 4.93244e-16 0)
(3 3.70112e-16 0)
(3 2.33634e-16 0)
(3 1.32596e-16 0)
(3 7.54035e-16 0)
(3 -1.73524e-16 0)
(3 -4.65313e-16 0)
(3 -5.12084e-16 0)
(3 -2.29237e-16 0)
(3 2.26253e-16 0)
(3 2.68644e-17 0)
(3 5.64686e-17 0)
(3 4.2333e-17 0)
(3 -1.40358e-16 0)
(3 -2.463e-16 0)
(3 -9.83161e-17 0)
(3 7.20993e-16 0)
(3 5.37476e-16 0)
(3 3.77436e-17 0)
(3 7.04017e-17 0)
(3 -5.45134e-17 0)
(3 -2.7142e-16 0)
(3 -8.0007e-16 0)
(3 -8.24322e-16 0)
(3 -6.01663e-16 0)
(3 -6.00802e-16 0)
(3 -1.07745e-15 0)
(3 -1.02976e-15 0)
(3 -4.45394e-16 0)
(3 -6.4319e-16 0)
(3 -7.32924e-16 0)
(3 -1.00219e-15 0)
(3 -1.00058e-16 0)
(3 1.79204e-16 0)
(3 2.54646e-17 0)
(3 -1.39165e-16 0)
(3 -7.44417e-17 0)
(3 -1.02864e-16 0)
(3 9.79589e-17 0)
(3 4.35246e-16 0)
(3 5.45198e-16 0)
(3 1.50224e-16 0)
(3 1.78053e-16 0)
(3 1.2005e-16 0)
(3 -1.3846e-16 0)
(3 -2.75284e-16 0)
(3 1.53652e-16 0)
(3 -7.21168e-16 0)
(3 -8.83049e-16 0)
(3 -1.54775e-15 0)
(3 -1.5843e-15 0)
(3 -1.58329e-15 0)
(3 -1.91734e-15 0)
(3 -2.40147e-15 0)
(3 -2.19636e-15 0)
(3 -1.60962e-15 0)
(3 -8.85928e-16 0)
(3 9.94457e-17 0)
(3 -2.10251e-16 0)
(3 1.19546e-16 0)
(3 -1.97827e-16 0)
(3 -1.60727e-16 0)
(3 -6.98461e-17 0)
(3 1.34172e-16 0)
(3 7.30889e-17 0)
(3 8.65908e-17 0)
(3 6.32926e-17 0)
(3 -6.25774e-16 0)
(3 -6.73148e-16 0)
(3 -5.9095e-16 0)
(3 5.88915e-18 0)
(3 -1.33034e-16 0)
(3 -3.57214e-16 0)
(3 -6.97848e-16 0)
(3 -5.09035e-16 0)
(3 -2.05404e-15 0)
(3 -3.1075e-15 0)
(3 -3.01548e-15 0)
(3 -2.20486e-15 0)
(3 -1.61e-15 0)
(3 -1.72617e-15 0)
(3 -9.56348e-16 0)
(3 -7.85216e-16 0)
(3 1.91932e-16 0)
(3 5.89433e-16 0)
(3 4.87424e-16 0)
(3 2.56963e-16 0)
(3 -2.43701e-16 0)
(3 -2.01416e-16 0)
(3 -7.98682e-17 0)
(3 1.14114e-16 0)
(3 1.36168e-16 0)
(3 -2.35972e-17 0)
(3 2.60825e-16 0)
(3 4.34728e-16 0)
(3 9.22664e-16 0)
(3 9.60428e-16 0)
(3 1.09868e-15 0)
(3 -1.00818e-16 0)
(3 -2.58144e-15 0)
(3 -2.52801e-15 0)
(3 -1.49253e-15 0)
(3 -1.66153e-16 0)
(3 -5.48326e-16 0)
(3 -1.68229e-15 0)
(3 -2.13603e-15 0)
(3 -1.79287e-15 0)
(3 1.70019e-16 0)
(3 7.49301e-16 0)
(3 5.96661e-16 0)
(3 5.72541e-16 0)
(3 2.66275e-16 0)
(3 7.30785e-17 0)
(3 1.10835e-17 0)
(3 3.95369e-16 0)
(3 6.10494e-16 0)
(3 2.87411e-16 0)
(3 5.30587e-16 0)
(3 5.6253e-16 0)
(3 6.33176e-16 0)
(3 6.1574e-16 0)
(3 7.19012e-16 0)
(3 3.22536e-17 0)
(3 -5.67958e-16 0)
(3 -4.65013e-16 0)
(3 -1.54392e-16 0)
(3 1.3699e-16 0)
(3 -9.80952e-17 0)
(3 -5.97579e-16 0)
(3 -1.2762e-15 0)
(3 -1.90772e-15 0)
(1.57948 1.09024 0)
(2.18944 1.00561 0)
(2.57378 1.07834 0)
(2.50349 0.541986 0)
(2.51564 0.282724 0)
(2.48631 -0.0269538 0)
(2.5112 -0.185112 0)
(2.46316 -0.171202 0)
(2.42197 -0.193368 0)
(2.41943 -0.171867 0)
(2.41692 -0.114266 0)
(2.40631 -0.0908844 0)
(2.38595 -0.059115 0)
(2.38632 -0.0423389 0)
(1.96995 0.00854893 0)
(0.954553 0.0336814 0)
(0.782942 0.0409352 0)
(0.683102 0.0404665 0)
(0.574984 0.0397738 0)
(0.471224 0.0399862 0)
(0.378482 0.0415781 0)
(0.296457 0.0458214 0)
(0.201631 0.0510368 0)
(0.0751914 0.0591308 0)
(1.71597 0.880755 0)
(2.17615 0.524941 0)
(2.43446 0.243343 0)
(2.51434 0.00910368 0)
(2.55426 -0.265049 0)
(2.53547 -0.440972 0)
(2.59096 -0.451991 0)
(2.57003 -0.343593 0)
(2.53076 -0.253351 0)
(2.49351 -0.183691 0)
(2.46283 -0.130306 0)
(2.42737 -0.0834838 0)
(2.4079 -0.0600554 0)
(2.40765 -0.0473603 0)
(2.08763 0.0932388 0)
(0.982822 0.170299 0)
(0.784644 0.145347 0)
(0.693094 0.13147 0)
(0.592815 0.127114 0)
(0.492341 0.131222 0)
(0.396631 0.140856 0)
(0.308638 0.158322 0)
(0.210228 0.175178 0)
(0.0769347 0.201573 0)
(1.6441 0.872771 0)
(1.97117 0.7089 0)
(2.25662 0.42032 0)
(2.37255 0.279278 0)
(2.44605 0.150281 0)
(2.52468 -0.0711688 0)
(2.55016 -0.118951 0)
(2.57561 -0.161424 0)
(2.57973 -0.19541 0)
(2.58922 -0.244321 0)
(2.59275 -0.257117 0)
(2.55433 -0.200555 0)
(2.52752 -0.16017 0)
(2.49773 -0.112176 0)
(2.41364 0.0359066 0)
(1.13731 0.268433 0)
(0.865259 0.233269 0)
(0.772753 0.209073 0)
(0.672091 0.203395 0)
(0.572149 0.212591 0)
(0.476758 0.231284 0)
(0.393577 0.259204 0)
(0.29009 0.289307 0)
(0.149156 0.366777 0)
(1.59328 0.819341 0)
(1.87013 0.694173 0)
(2.05418 0.589728 0)
(2.22598 0.451765 0)
(2.39152 0.243923 0)
(2.49876 0.0465934 0)
(2.53199 -0.0391142 0)
(2.54856 -0.0778354 0)
(2.6176 -0.212053 0)
(2.63296 -0.322926 0)
(2.6846 -0.323032 0)
(2.66161 -0.263662 0)
(2.63525 -0.223123 0)
(2.59412 -0.181241 0)
(2.62933 -0.149971 0)
(1.4482 0.313489 0)
(0.962019 0.310595 0)
(0.87153 0.284983 0)
(0.779551 0.277023 0)
(0.687945 0.287046 0)
(0.597127 0.304286 0)
(0.509797 0.356067 0)
(0.362016 0.458131 0)
(0.218988 0.669525 0)
(1.56636 0.808378 0)
(1.77393 0.734177 0)
(1.96005 0.635519 0)
(2.12704 0.530331 0)
(2.26236 0.391249 0)
(2.33969 0.306109 0)
(2.43447 0.181538 0)
(2.51193 0.0517267 0)
(2.54785 -0.00845425 0)
(2.58571 -0.124625 0)
(2.62575 -0.158935 0)
(2.64965 -0.131391 0)
(2.6372 -0.165002 0)
(2.6358 -0.205185 0)
(2.65517 -0.217576 0)
(1.99509 0.239376 0)
(1.05431 0.380416 0)
(0.939375 0.36777 0)
(0.867184 0.364204 0)
(0.794372 0.382412 0)
(0.718978 0.39401 0)
(0.655597 0.468025 0)
(0.598644 0.626193 0)
(0.714623 0.89407 0)
(1.57872 0.792814 0)
(1.75117 0.73832 0)
(1.9047 0.672638 0)
(2.02468 0.617777 0)
(2.1778 0.48594 0)
(2.29832 0.338847 0)
(2.36393 0.294924 0)
(2.40687 0.239934 0)
(2.47698 0.13627 0)
(2.54703 -0.00682438 0)
(2.59072 -0.096204 0)
(2.61693 -0.0923105 0)
(2.6498 -0.146706 0)
(2.65236 -0.240258 0)
(2.6666 -0.242504 0)
(2.62573 -0.0926147 0)
(1.28221 0.405257 0)
(1.03 0.406635 0)
(0.968468 0.405872 0)
(0.916082 0.427155 0)
(0.861537 0.451182 0)
(0.824561 0.529406 0)
(0.851966 0.635184 0)
(1.05258 0.740144 0)
(1.57871 0.826104 0)
(1.71052 0.782614 0)
(1.83546 0.735348 0)
(1.9732 0.657033 0)
(2.09828 0.549688 0)
(2.16899 0.485457 0)
(2.24614 0.433529 0)
(2.35518 0.319396 0)
(2.43015 0.211556 0)
(2.468 0.132658 0)
(2.50202 0.085427 0)
(2.54399 0.0750866 0)
(2.60154 0.00304664 0)
(2.62217 -0.110966 0)
(2.62413 -0.142721 0)
(2.6451 -0.133284 0)
(1.72667 0.389472 0)
(1.09036 0.490232 0)
(1.02222 0.480376 0)
(0.988642 0.502753 0)
(0.965477 0.530247 0)
(0.964019 0.588514 0)
(1.0371 0.659038 0)
(1.25153 0.720312 0)
(1.60757 0.829143 0)
(1.7095 0.792237 0)
(1.8296 0.737736 0)
(1.94045 0.683261 0)
(2.02556 0.623345 0)
(2.11759 0.544039 0)
(2.22716 0.445774 0)
(2.30171 0.389441 0)
(2.33088 0.351798 0)
(2.39893 0.256879 0)
(2.4669 0.143547 0)
(2.52214 0.116306 0)
(2.5492 0.10034 0)
(2.58765 -0.00868017 0)
(2.60215 -0.0703427 0)
(2.63561 -0.1076 0)
(2.46462 0.12987 0)
(1.29371 0.529273 0)
(1.12439 0.514359 0)
(1.0882 0.521549 0)
(1.07354 0.539633 0)
(1.08293 0.578813 0)
(1.15934 0.621216 0)
(1.33764 0.655566 0)
(1.62692 0.872925 0)
(1.72128 0.821975 0)
(1.80648 0.783252 0)
(1.88621 0.74704 0)
(1.98874 0.673758 0)
(2.086 0.587558 0)
(2.15232 0.539427 0)
(2.21525 0.497403 0)
(2.29048 0.420867 0)
(2.36324 0.319333 0)
(2.40175 0.259447 0)
(2.43016 0.261632 0)
(2.48302 0.210954 0)
(2.53848 0.0875938 0)
(2.55803 0.0333293 0)
(2.59838 -0.00735961 0)
(2.60712 0.0114094 0)
(1.76178 0.510955 0)
(1.21456 0.61046 0)
(1.16774 0.600966 0)
(1.15911 0.600406 0)
(1.17588 0.61693 0)
(1.24651 0.63778 0)
(1.39157 0.646616 0)
(1.6632 0.899286 0)
(1.74831 0.850862 0)
(1.81392 0.814403 0)
(1.89425 0.762795 0)
(1.98792 0.695963 0)
(2.04558 0.654573 0)
(2.1158 0.59894 0)
(2.20244 0.523123 0)
(2.25359 0.48399 0)
(2.29903 0.425433 0)
(2.36502 0.333837 0)
(2.41348 0.295873 0)
(2.44827 0.272578 0)
(2.49332 0.17585 0)
(2.51135 0.129445 0)
(2.5434 0.112037 0)
(2.59529 0.0430086 0)
(2.44729 0.250149 0)
(1.45224 0.637897 0)
(1.28769 0.62552 0)
(1.27504 0.604715 0)
(1.28476 0.607244 0)
(1.33625 0.614261 0)
(1.44233 0.6129 0)
(1.7081 0.927426 0)
(1.75372 0.902551 0)
(1.8318 0.855105 0)
(1.91491 0.794333 0)
(1.96484 0.763212 0)
(2.02802 0.713828 0)
(2.11121 0.636937 0)
(2.16169 0.603371 0)
(2.20249 0.566779 0)
(2.27956 0.473623 0)
(2.33502 0.396987 0)
(2.36416 0.394759 0)
(2.39342 0.363968 0)
(2.45222 0.263209 0)
(2.48204 0.191149 0)
(2.51299 0.189594 0)
(2.56288 0.126056 0)
(2.56642 0.132062 0)
(1.92914 0.550873 0)
(1.37642 0.687041 0)
(1.36003 0.677243 0)
(1.37637 0.667892 0)
(1.40933 0.659542 0)
(1.48139 0.643892 0)
(1.91548 0.909042 0)
(1.77134 0.92901 0)
(1.82999 0.897945 0)
(1.90494 0.85018 0)
(1.96727 0.803477 0)
(2.03858 0.740818 0)
(2.09632 0.690757 0)
(2.13917 0.663667 0)
(2.19625 0.608907 0)
(2.2645 0.519911 0)
(2.30502 0.467255 0)
(2.33007 0.464975 0)
(2.37543 0.418552 0)
(2.4339 0.314415 0)
(2.46059 0.253456 0)
(2.4792 0.272307 0)
(2.52791 0.22301 0)
(2.56015 0.147434 0)
(2.45001 0.288546 0)
(1.67286 0.689484 0)
(1.4386 0.718561 0)
(1.4634 0.702895 0)
(1.48953 0.681715 0)
(1.54329 0.651873 0)
(2.46203 0.615153 0)
(1.91031 0.930601 0)
(1.84601 0.928502 0)
(1.89762 0.890954 0)
(1.96701 0.841357 0)
(2.02584 0.79493 0)
(2.08938 0.739762 0)
(2.1437 0.69223 0)
(2.18641 0.650585 0)
(2.23663 0.590549 0)
(2.28498 0.535688 0)
(2.32267 0.511638 0)
(2.36067 0.472114 0)
(2.40789 0.384263 0)
(2.43502 0.330606 0)
(2.46039 0.339423 0)
(2.50264 0.302485 0)
(2.54159 0.210838 0)
(2.53506 0.215191 0)
(2.16554 0.530627 0)
(1.58035 0.74692 0)
(1.54995 0.735185 0)
(1.5767 0.701918 0)
(1.61717 0.67302 0)
(2.93208 0.137467 0)
(2.37883 0.691654 0)
(1.93336 0.92476 0)
(1.91547 0.928101 0)
(1.9572 0.891458 0)
(2.03458 0.820933 0)
(2.08675 0.779013 0)
(2.11407 0.761539 0)
(2.17188 0.705265 0)
(2.24071 0.618269 0)
(2.28459 0.575009 0)
(2.30311 0.573467 0)
(2.3345 0.538772 0)
(2.39312 0.451475 0)
(2.42995 0.380271 0)
(2.45829 0.384131 0)
(2.47193 0.375124 0)
(2.52143 0.285978 0)
(2.54082 0.234938 0)
(2.48375 0.316607 0)
(1.9217 0.669748 0)
(1.60777 0.778188 0)
(1.61972 0.757363 0)
(1.66785 0.722058 0)
(2.998 0.00750318 0)
(2.87629 0.217112 0)
(2.32627 0.726816 0)
(1.98349 0.922281 0)
(1.97037 0.924412 0)
(2.01895 0.879475 0)
(2.06888 0.837933 0)
(2.11706 0.792764 0)
(2.18782 0.71711 0)
(2.233 0.665631 0)
(2.24555 0.662095 0)
(2.27071 0.642976 0)
(2.34046 0.571408 0)
(2.39622 0.476993 0)
(2.4131 0.446147 0)
(2.42349 0.46554 0)
(2.45492 0.436453 0)
(2.50725 0.347596 0)
(2.52818 0.278758 0)
(2.54063 0.293605 0)
(2.35192 0.477504 0)
(1.84972 0.777718 0)
(1.67045 0.781965 0)
(1.70658 0.761814 0)
(2.99997 7.37174e-05 0)
(2.99508 0.014692 0)
(2.81947 0.279703 0)
(2.32037 0.74422 0)
(2.03056 0.917062 0)
(2.02114 0.918526 0)
(2.05425 0.887641 0)
(2.1225 0.829689 0)
(2.18689 0.753991 0)
(2.20462 0.741077 0)
(2.22729 0.721342 0)
(2.29635 0.647908 0)
(2.34052 0.59884 0)
(2.35525 0.569573 0)
(2.39059 0.515872 0)
(2.42314 0.490143 0)
(2.45142 0.469979 0)
(2.48863 0.402205 0)
(2.51097 0.345251 0)
(2.54111 0.322688 0)
(2.51801 0.357283 0)
(2.22457 0.613518 0)
(1.80781 0.796193 0)
(1.77714 0.795721 0)
(3 1.32676e-07 0)
(2.99992 0.000227298 0)
(2.99084 0.0224294 0)
(2.78684 0.316859 0)
(2.33158 0.74608 0)
(2.07266 0.910942 0)
(2.06428 0.91457 0)
(2.10692 0.877862 0)
(2.15632 0.826656 0)
(2.2041 0.777383 0)
(2.24989 0.72739 0)
(2.2815 0.702453 0)
(2.3122 0.673789 0)
(2.36037 0.603084 0)
(2.38835 0.54917 0)
(2.40509 0.55063 0)
(2.42793 0.537481 0)
(2.47818 0.463816 0)
(2.50413 0.386454 0)
(2.53463 0.370641 0)
(2.53656 0.367412 0)
(2.46482 0.446159 0)
(2.10218 0.691056 0)
(1.85414 0.809794 0)
(3 7.33982e-11 0)
(3 5.32066e-07 0)
(2.99983 0.000467196 0)
(2.98734 0.0280409 0)
(2.7703 0.333654 0)
(2.35364 0.740879 0)
(2.11448 0.902308 0)
(2.10822 0.903811 0)
(2.14061 0.870459 0)
(2.18191 0.834354 0)
(2.22422 0.796106 0)
(2.29284 0.714959 0)
(2.32902 0.675591 0)
(2.33604 0.6669 0)
(2.36386 0.626362 0)
(2.39442 0.598483 0)
(2.44002 0.560954 0)
(2.48574 0.483772 0)
(2.48644 0.454277 0)
(2.50226 0.447246 0)
(2.54763 0.398924 0)
(2.54627 0.397503 0)
(2.40653 0.520164 0)
(2.07218 0.736056 0)
(3 5.31494e-15 0)
(3 4.314e-10 0)
(3 1.33952e-06 0)
(2.99975 0.000681692 0)
(2.98446 0.0316674 0)
(2.77584 0.330422 0)
(2.37613 0.728447 0)
(2.15866 0.888042 0)
(2.14839 0.8942 0)
(2.16316 0.875215 0)
(2.22287 0.817751 0)
(2.26721 0.768682 0)
(2.28191 0.761944 0)
(2.32154 0.714576 0)
(2.37035 0.63873 0)
(2.40236 0.602365 0)
(2.42497 0.60776 0)
(2.443 0.576886 0)
(2.47589 0.501497 0)
(2.49719 0.480647 0)
(2.53205 0.466825 0)
(2.55654 0.41007 0)
(2.538 0.422358 0)
(2.34783 0.586491 0)
(3 -2.31601e-16 0)
(3 5.02312e-14 0)
(3 1.32286e-09 0)
(3 2.34007e-06 0)
(2.9997 0.000782517 0)
(2.98297 0.0339474 0)
(2.79579 0.304844 0)
(2.40893 0.705588 0)
(2.19052 0.880773 0)
(2.175 0.891182 0)
(2.19678 0.872068 0)
(2.25015 0.813832 0)
(2.28676 0.773676 0)
(2.31258 0.74906 0)
(2.35317 0.691859 0)
(2.38039 0.663987 0)
(2.40575 0.647962 0)
(2.44407 0.590178 0)
(2.46229 0.536401 0)
(2.47853 0.541743 0)
(2.50379 0.539043 0)
(2.56186 0.454821 0)
(2.5572 0.419553 0)
(2.51993 0.458198 0)
(3 -4.82062e-16 0)
(3 -6.09777e-16 0)
(3 1.93831e-13 0)
(3 2.61838e-09 0)
(3 2.87944e-06 0)
(2.99964 0.000859015 0)
(2.98583 0.0297215 0)
(2.81698 0.277288 0)
(2.41227 0.707878 0)
(2.25034 0.842197 0)
(2.22127 0.868801 0)
(2.23329 0.858887 0)
(2.25167 0.837844 0)
(2.29898 0.78683 0)
(2.34674 0.710197 0)
(2.36721 0.699784 0)
(2.378 0.703745 0)
(2.41278 0.66157 0)
(2.45752 0.582738 0)
(2.48522 0.549077 0)
(2.51458 0.545063 0)
(2.53522 0.512185 0)
(2.556 0.455548 0)
(2.54315 0.466236 0)
(3 3.7056e-16 0)
(3 5.74592e-16 0)
(3 5.57444e-16 0)
(3 4.78013e-13 0)
(3 3.2422e-09 0)
(3 3.49291e-06 0)
(2.99973 0.000698934 0)
(2.98815 0.024507 0)
(2.813 0.269499 0)
(2.5249 0.615683 0)
(2.27778 0.828064 0)
(2.22699 0.882288 0)
(2.23094 0.875566 0)
(2.26146 0.838999 0)
(2.31745 0.762945 0)
(2.34704 0.740675 0)
(2.37314 0.726754 0)
(2.42527 0.665921 0)
(2.45229 0.609014 0)
(2.46415 0.609473 0)
(2.46468 0.616812 0)
(2.50623 0.564021 0)
(2.53789 0.48826 0)
(2.55865 0.471138 0)
(3 1.46845e-15 0)
(3 1.88328e-15 0)
(3 1.41601e-16 0)
(3 -8.76134e-16 0)
(3 6.86084e-13 0)
(3 3.79765e-09 0)
(3 2.82192e-06 0)
(2.99978 0.000538178 0)
(2.98822 0.0223557 0)
(2.87084 0.212932 0)
(2.58303 0.569077 0)
(2.27421 0.851007 0)
(2.24738 0.870622 0)