/*--------------------------------*- C++ -*----------------------------------*\
  =========                 |
  \\      /  F ield         | OpenFOAM: The Open Source CFD Toolbox
   \\    /   O peration     | Website:  https://openfoam.org
    \\  /    A nd           | Version:  7
     \\/     M anipulation  |
\*---------------------------------------------------------------------------*/
FoamFile
{
    version     2.0;
    format      ascii;
    class       volScalarField;
    location    "3.3";
    object      T;
}
// * * * * * * * * * * * * * * * * * * * * * * * * * * * * * * * * * * * * * //

dimensions      [0 0 0 1 0 0 0];

internalField   nonuniform List<scalar> 
16192
(
1
1
1
1
1
1
1
1
1
1
1
1
1
1
1
1
1
1
1
1
1
1
1
1
1
1
1
1
1
1
1
1
1
1
1
1
1
1
1
1
1
1
1
1
1
1
1
1
1
1
1
1
1
1
1
1
1
1
1
1
1
1
1
1
1
1
1
1
1
1
1
1
1
1
1
1
1
1
1
1
1
1
1
1
1
1
1
1
1
1
1
1
1
1
1
1
1
1
1
1
1
1
1
1
1
1
1
1
1
1
1
1
1
1
1
1
1
1
1
1
1
1
1
1
1
1
1
1
1
1
1
1
1
1
1
1
1
1
1
1
1
1
1
1.25012
2.44545
2.68602
2.69158
2.6993
2.70375
2.70679
2.70925
2.71183
2.71498
2.71902
2.7239
2.72905
2.73355
2.73683
2.73921
2.74142
2.74409
2.74732
2.7509
2.75448
2.7577
2.76043
2.76287
2.76535
2.76811
2.77116
2.77427
2.77712
2.77946
2.78128
2.78277
2.7842
2.78577
2.78758
2.78955
2.79153
2.79338
2.79502
2.79639
2.79749
2.79836
2.79911
2.7999
2.8008
2.80171
2.80249
2.80299
2.80333
1
1
1
1
1
1
1
1
1
1
1
1
1
1
1
1
1
1
1
1
1
1
1
1
1
1
1
1
1
1
1
1
1
1
1
1
1
1
1
1
1
1
1
1
1
1
1
1
1
1
1
1
1
1
1
1
1
1
1
1
1
1
1
1
1
1
1
1
1
1
1
1
1
1
1
1
1
1
1
1
1
1
1
1
1
1
1
1
1
1
1
1
1
1
1
1
1
1
1
1
1
1
1
1
1
1
1
1
1
1
1
1
1
1
1
1
1
1
1
1
1
1
1
1
1
1
1
1
1
1
1
1
1
1
1
1
1
1
1
1
1
1
1
1.24504
2.44263
2.68553
2.69249
2.69964
2.70361
2.70656
2.7091
2.71178
2.71501
2.71913
2.72401
2.7291
2.73354
2.73678
2.73914
2.74132
2.74395
2.74715
2.75072
2.7543
2.75752
2.76026
2.76271
2.7652
2.76797
2.77104
2.77416
2.77701
2.77937
2.78119
2.78267
2.78406
2.7856
2.78739
2.78938
2.79139
2.79326
2.79486
2.79619
2.79726
2.79814
2.79895
2.79979
2.80069
2.80157
2.80228
2.80272
2.80303
1
1
1
1
1
1
1
1
1
1
1
1
1
1
1
1
1
1
1
1
1
1
1
1
1
1
1
1
1
1
1
1
1
1
1
1
1
1
1
1
1
1
1
1
1
1
1
1
1
1
1
1
1
1
1
1
1
1
1
1
1
1
1
1
1
1
1
1
1
1
1
1
1
1
1
1
1
1
1
1
1
1
1
1
1
1
1
1
1
1
1
1
1
1
1
1
1
1
1
1
1
1
1
1
1
1
1
1
1
1
1
1
1
1
1
1
1
1
1
1
1
1
1
1
1
1
1
1
1
1
1
1
1
1
1
1
1
1
1
1
1
1
1
1.23195
2.43555
2.68644
2.69302
2.69927
2.70296
2.70597
2.70873
2.71162
2.71503
2.71925
2.72411
2.7291
2.73344
2.73664
2.73901
2.74119
2.74379
2.74692
2.75043
2.75398
2.75719
2.75995
2.76243
2.76495
2.76773
2.7708
2.77393
2.7768
2.77918
2.78103
2.78251
2.78387
2.78536
2.78712
2.78911
2.79115
2.79303
2.79461
2.79589
2.79692
2.79781
2.79867
2.79956
2.80047
2.8013
2.80191
2.80227
2.80252
1
1
1
1
1
1
1
1
1
1
1
1
1
1
1
1
1
1
1
1
1
1
1
1
1
1
1
1
1
1
1
1
1
1
1
1
1
1
1
1
1
1
1
1
1
1
1
1
1
1
1
1
1
1
1
1
1
1
1
1
1
1
1
1
1
1
1
1
1
1
1
1
1
1
1
1
1
1
1
1
1
1
1
1
1
1
1
1
1
1
1
1
1
1
1
1
1
1
1
1
1
1
1
1
1
1
1
1
1
1
1
1
1
1
1
1
1
1
1
1
1
1
1
1
1
1
1
1
1
1
1
1
1
1
1
1
1
1
1
1
1
1
1
1.21316
2.42475
2.6878
2.69317
2.69841
2.70197
2.70516
2.70821
2.7114
2.71504
2.71934
2.72411
2.72893
2.73312
2.73627
2.73872
2.74094
2.74353
2.74657
2.74998
2.75345
2.75664
2.75942
2.76195
2.76451
2.76731
2.77038
2.77351
2.7764
2.77881
2.7807
2.78218
2.78352
2.78497
2.78671
2.7887
2.79075
2.79262
2.79417
2.79541
2.79643
2.79738
2.79832
2.79927
2.80017
2.8009
2.80137
2.8016
2.80178
1
1
1
1
1
1
1
1
1
1
1
1
1
1
1
1
1
1
1
1
1
1
1
1
1
1
1
1
1
1
1
1
1
1
1
1
1
1
1
1
1
1
1
1
1
1
1
1
1
1
1
1
1
1
1
1
1
1
1
1
1
1
1
1
1
1
1
1
1
1
1
1
1
1
1
1
1
1
1
1
1
1
1
1
1
1
1
1
1
1
1
1
1
1
1
1
1
1
1
1
1
1
1
1
1
1
1
1
1
1
1
1
1
1
1
1
1
1
1
1
1
1
1
1
1
1
1
1
1
1
1
1
1
1
1
1
1
1
1
1
1
1
1
1.18923
2.41023
2.6888
2.69293
2.69724
2.70068
2.70401
2.7074
2.71094
2.71483
2.71921
2.72384
2.72841
2.73247
2.73565
2.73825
2.74059
2.74319
2.74613
2.74939
2.75273
2.75587
2.75867
2.76126
2.76389
2.76674
2.76982
2.77295
2.77586
2.7783
2.78021
2.78172
2.78306
2.78451
2.78623
2.7882
2.79021
2.79203
2.79354
2.79476
2.79583
2.79686
2.79791
2.79891
2.79977
2.80037
2.80067
2.80077
2.80086
1
1
1
1
1
1
1
1
1
1
1
1
1
1
1
1
1
1
1
1
1
1
1
1
1
1
1
1
1
1
1
1
1
1
1
1
1
1
1
1
1
1
1
1
1
1
1
1
1
1
1
1
1
1
1
1
1
1
1
1
1
1
1
1
1
1
1
1
1
1
1
1
1
1
1
1
1
1
1
1
1
1
1
1
1
1
1
1
1
1
1
1
1
1
1
1
1
1
1
1
1
1
1
1
1
1
1
1
1
1
1
1
1
1
1
1
1
1
1
1
1
1
1
1
1
1
1
1
1
1
1
1
1
1
1
1
1
1
1
1
1
1
1
1.15819
2.38996
2.68889
2.69207
2.69571
2.69915
2.70272
2.70651
2.71044
2.71456
2.71893
2.72334
2.72764
2.73156
2.7348
2.73761
2.74012
2.74278
2.74563
2.74875
2.75195
2.75501
2.75781
2.76045
2.76314
2.76603
2.76913
2.77226
2.77516
2.77762
2.77956
2.7811
2.78248
2.78395
2.78566
2.78757
2.7895
2.79124
2.7927
2.79395
2.79511
2.79627
2.79741
2.79844
2.79923
2.79968
2.79982
2.79978
2.79978
1
1
1
1
1
1
1
1
1
1
1
1
1
1
1
1
1
1
1
1
1
1
1
1
1
1
1
1
1
1
1
1
1
1
1
1
1
1
1
1
1
1
1
1
1
1
1
1
1
1
1
1
1
1
1
1
1
1
1
1
1
1
1
1
1
1
1
1
1
1
1
1
1
1
1
1
1
1
1
1
1
1
1
1
1
1
1
1
1
1
1
1
1
1
1
1
1
1
1
1
1
1
1
1
1
1
1
1
1
1
1
1
1
1
1
1
1
1
1
1
1
1
1
1
1
1
1
1
1
1
1
1
1
1
1
1
1
1
1
1
1
1
1
1.12018
2.36405
2.68801
2.69072
2.69391
2.69743
2.70128
2.70547
2.70977
2.71407
2.71838
2.72253
2.72655
2.73034
2.73368
2.73673
2.73945
2.7422
2.745
2.748
2.75108
2.75405
2.75683
2.75949
2.76222
2.76515
2.76828
2.77142
2.77431
2.77677
2.77873
2.78032
2.78175
2.78326
2.78495
2.78678
2.78858
2.79022
2.79166
2.79298
2.79426
2.79555
2.79678
2.79783
2.79853
2.79883
2.79883
2.79866
2.79859
1
1
1
1
1
1
1
1
1
1
1
1
1
1
1
1
1
1
1
1
1
1
1
1
1
1
1
1
1
1
1
1
1
1
1
1
1
1
1
1
1
1
1
1
1
1
1
1
1
1
1
1
1
1
1
1
1
1
1
1
1
1
1
1
1
1
1
1
1
1
1
1
1
1
1
1
1
1
1
1
1
1
1
1
1
1
1
1
1
1
1
1
1
1
1
1
1
1
1
1
1
1
1
1
1
1
1
1
1
1
1
1
1
1
1
1
1
1
1
1
1
1
1
1
1
1
1
1
1
1
1
1
1
1
1
1
1
1
1
1
1
1
1
1.07499
2.33611
2.68655
2.68923
2.69228
2.69597
2.70004
2.70447
2.70899
2.71337
2.71755
2.72145
2.72526
2.72895
2.73238
2.73565
2.73855
2.7414
2.74418
2.74711
2.75009
2.753
2.75574
2.7584
2.76115
2.76412
2.76728
2.77043
2.77333
2.77578
2.77776
2.77941
2.78091
2.78246
2.78411
2.78583
2.7875
2.78905
2.79049
2.79188
2.79329
2.7947
2.796
2.79702
2.79763
2.7978
2.79768
2.7974
2.79726
1
1
1
1
1
1
1
1
1
1
1
1
1
1
1
1
1
1
1
1
1
1
1
1
1
1
1
1
1
1
1
1
1
1
1
1
1
1
1
1
1
1
1
1
1
1
1
1
1
1
1
1
1
1
1
1
1
1
1
1
1
1
1
1
1
1
1
1
1
1
1
1
1
1
1
1
1
1
1
1
1
1
1
1
1
1
1
1
1
1
1
1
1
1
1
1
1
1
1
1
1
1
1
1
1
1
1
1
1
1
1
1
1
1
1
1
1
1
1
1
1
1
1
1
1
1
1
1
1
1
1
1
1
1
1
1
1
1
1
1
1
1
1
1.01375
2.30249
2.68573
2.6887
2.69164
2.69539
2.69947
2.70386
2.7083
2.7126
2.7166
2.72027
2.72392
2.72754
2.73103
2.73443
2.73745
2.74035
2.74311
2.746
2.74894
2.75181
2.75452
2.75715
2.7599
2.76288
2.76606
2.76924
2.77215
2.77462
2.77663
2.77833
2.77989
2.78146
2.78307
2.78468
2.78624
2.78773
2.78919
2.79067
2.79218
2.79367
2.795
2.79601
2.79654
2.79662
2.7964
2.79602
2.79582
1
1
1
1
1
1
1
1
1
1
1
1
1
1
1
1
1
1
1
1
1
1
1
1
1
1
1
1
1
1
1
1
1
1
1
1
1
1
1
1
1
1
1
1
1
1
1
1
1
1
1
1
1
1
1
1
1
1
1
1
1
1
1
1
1
1
1
1
1
1
1
1
1
1
1
1
1
1
1
1
1
1
1
1
1
1
1
1
1
1
1
1
1
1
1
1
1
1
1
1
1
1
1
1
1
1
1
1
1
1
1
1
1
1
1
1
1
1
1
1
1
1
1
1
1
1
1
1
1
1
1
1
1
1
1
1
1
1
1
1
1
1
1
1.00026
2.25954
2.68407
2.68824
2.69115
2.69502
2.69912
2.70347
2.70779
2.71194
2.71576
2.71928
2.72283
2.72643
2.72992
2.7333
2.7363
2.73913
2.7418
2.74462
2.74754
2.75041
2.75312
2.75576
2.75852
2.76151
2.76471
2.7679
2.77082
2.77329
2.77533
2.77707
2.77868
2.78026
2.78183
2.78336
2.78485
2.78633
2.78782
2.78937
2.79093
2.79245
2.79378
2.79476
2.79524
2.79525
2.79496
2.79449
2.79424
1
1
1
1
1
1
1
1
1
1
1
1
1
1
1
1
1
1
1
1
1
1
1
1
1
1
1
1
1
1
1
1
1
1
1
1
1
1
1
1
1
1
1
1
1
1
1
1
1
1
1
1
1
1
1
1
1
1
1
1
1
1
1
1
1
1
1
1
1
1
1
1
1
1
1
1
1
1
1
1
1
1
1
1
1
1
1
1
1
1
1
1
1
1
1
1
1
1
1
1
1
1
1
1
1
1
1
1
1
1
1
1
1
1
1
1
1
1
1
1
1
1
1
1
1
1
1
1
1
1
1
1
1
1
1
1
1
1
1
1
1
1
1
1
2.20546
2.68108
2.68838
2.69142
2.69538
2.6994
2.70359
2.70771
2.71164
2.71527
2.71863
2.72206
2.7256
2.72903
2.73236
2.73533
2.73809
2.74067
2.7434
2.74625
2.74907
2.75173
2.75433
2.75704
2.76
2.76317
2.76634
2.76926
2.77174
2.7738
2.77557
2.77721
2.7788
2.78037
2.78188
2.78335
2.78483
2.78636
2.78793
2.78951
2.791
2.79231
2.79327
2.79372
2.7937
2.79337
2.79283
2.79254
1
1
1
1
1
1
1
1
1
1
1
1
1
1
1
1
1
1
1
1
1
1
1
1
1
1
1
1
1
1
1
1
1
1
1
1
1
1
1
1
1
1
1
1
1
1
1
1
1
1
1
1
1
1
1
1
1
1
1
1
1
1
1
1
1
1
1
1
1
1
1
1
1
1
1
1
1
1
1
1
1
1
1
1
1
1
1
1
1
1
1
1
1
1
1
1
1
1
1
1
1
1
1
1
1
1
1
1
1
1
1
1
1
1
1
1
1
1
1
1
1
1
1
1
1
1
1
1
1
1
1
1
1
1
1
1
1
1
1
1
1
1
1
1
2.14043
2.67501
2.68778
2.69124
2.69547
2.69948
2.70356
2.70753
2.71131
2.71483
2.71815
2.72155
2.72509
2.72847
2.7317
2.73456
2.73717
2.73956
2.7421
2.74479
2.74749
2.75008
2.75266
2.75536
2.75833
2.7615
2.76466
2.76756
2.77001
2.77205
2.77381
2.77545
2.77707
2.77868
2.78023
2.78173
2.78323
2.78477
2.78634
2.78788
2.78933
2.79059
2.79153
2.79198
2.79195
2.79159
2.79099
2.79069
1
1
1
1
1
1
1
1
1
1
1
1
1
1
1
1
1
1
1
1
1
1
1
1
1
1
1
1
1
1
1
1
1
1
1
1
1
1
1
1
1
1
1
1
1
1
1
1
1
1
1
1
1
1
1
1
1
1
1
1
1
1
1
1
1
1
1
1
1
1
1
1
1
1
1
1
1
1
1
1
1
1
1
1
1
1
1
1
1
1
1
1
1
1
1
1
1
1
1
1
1
1
1
1
1
1
1
1
1
1
1
1
1
1
1
1
1
1
1
1
1
1
1
1
1
1
1
1
1
1
1
1
1
1
1
1
1
1
1
1
1
1
1
1
2.06487
2.6648
2.68569
2.68982
2.69449
2.69868
2.70283
2.70682
2.7106
2.71413
2.71751
2.72096
2.72454
2.72793
2.73111
2.73389
2.73639
2.73865
2.74105
2.74358
2.74614
2.74862
2.7511
2.75374
2.75666
2.75979
2.76289
2.76571
2.76809
2.77006
2.77178
2.77343
2.77512
2.77682
2.77845
2.78
2.7815
2.78301
2.78453
2.78601
2.7874
2.78862
2.78955
2.79
2.78997
2.78961
2.78899
2.78869
1
1
1
1
1
1
1
1
1
1
1
1
1
1
1
1
1
1
1
1
1
1
1
1
1
1
1
1
1
1
1
1
1
1
1
1
1
1
1
1
1
1
1
1
1
1
1
1
1
1
1
1
1
1
1
1
1
1
1
1
1
1
1
1
1
1
1
1
1
1
1
1
1
1
1
1
1
1
1
1
1
1
1
1
1
1
1
1
1
1
1
1
1
1
1
1
1
1
1
1
1
1
1
1
1
1
1
1
1
1
1
1
1
1
1
1
1
1
1
1
1
1
1
1
1
1
1
1
1
1
1
1
1
1
1
1
1
1
1
1
1
1
1
1
1.97846
2.65002
2.68189
2.68694
2.6922
2.69669
2.70104
2.7052
2.70914
2.71284
2.71644
2.72007
2.72378
2.72724
2.73041
2.73312
2.73554
2.73773
2.74003
2.74245
2.74486
2.74718
2.74952
2.75207
2.75493
2.758
2.76104
2.76376
2.76602
2.76788
2.76953
2.77117
2.77293
2.77475
2.7765
2.7781
2.77959
2.78104
2.78247
2.78388
2.78523
2.78642
2.78733
2.78778
2.78776
2.7874
2.78677
2.7865
1
1
1
1
1
1
1
1
1
1
1
1
1
1
1
1
1
1
1
1
1
1
1
1
1
1
1
1
1
1
1
1
1
1
1
1
1
1
1
1
1
1
1
1
1
1
1
1
1
1
1
1
1
1
1
1
1
1
1
1
1
1
1
1
1
1
1
1
1
1
1
1
1
1
1
1
1
1
1
1
1
1
1
1
1
1
1
1
1
1
1
1
1
1
1
1
1
1
1
1
1
1
1
1
1
1
1
1
1
1
1
1
1
1
1
1
1
1
1
1
1
1
1
1
1
1
1
1
1
1
1
1
1
1
1
1
1
1
1
1
1
1
1
1
1.88023
2.63017
2.6765
2.68306
2.68915
2.69396
2.69839
2.7026
2.70663
2.71052
2.71445
2.71843
2.72243
2.72611
2.72936
2.73208
2.73448
2.73669
2.73899
2.74136
2.74367
2.74583
2.74801
2.75043
2.75319
2.75618
2.7591
2.76168
2.76378
2.76549
2.76706
2.7687
2.77055
2.7725
2.77436
2.77601
2.77746
2.77881
2.78013
2.78147
2.78278
2.78397
2.78486
2.78531
2.78528
2.78494
2.78434
2.7841
1
1
1
1
1
1
1
1
1
1
1
1
1
1
1
1
1
1
1
1
1
1
1
1
1
1
1
1
1
1
1
1
1
1
1
1
1
1
1
1
1
1
1
1
1
1
1
1
1
1
1
1
1
1
1
1
1
1
1
1
1
1
1
1
1
1
1
1
1
1
1
1
1
1
1
1
1
1
1
1
1
1
1
1
1
1
1
1
1
1
1
1
1
1
1
1
1
1
1
1
1
1
1
1
1
1
1
1
1
1
1
1
1
1
1
1
1
1
1
1
1
1
1
1
1
1
1
1
1
1
1
1
1
1
1
1
1
1
1
1
1
1
1
1
1.76963
2.60485
2.67063
2.67866
2.68568
2.69079
2.69518
2.6992
2.7031
2.70703
2.71125
2.71573
2.72015
2.72417
2.7276
2.7304
2.73287
2.7352
2.73762
2.74005
2.74235
2.74444
2.74653
2.74886
2.75153
2.75439
2.75716
2.75955
2.76146
2.76301
2.76446
2.76608
2.76797
2.77003
2.77199
2.77366
2.77505
2.77629
2.77751
2.77878
2.78007
2.78126
2.78214
2.78256
2.78253
2.78219
2.78162
2.78142
1
1
1
1
1
1
1
1
1
1
1
1
1
1
1
1
1
1
1
1
1
1
1
1
1
1
1
1
1
1
1
1
1
1
1
1
1
1
1
1
1
1
1
1
1
1
1
1
1
1
1
1
1
1
1
1
1
1
1
1
1
1
1
1
1
1
1
1
1
1
1
1
1
1
1
1
1
1
1
1
1
1
1
1
1
1
1
1
1
1
1
1
1
1
1
1
1
1
1
1
1
1
1
1
1
1
1
1
1
1
1
1
1
1
1
1
1
1
1
1
1
1
1
1
1
1
1
1
1
1
1
1
1
1
1
1
1
1
1
1
1
1
1
1
1.64554
2.57215
2.66699
2.67433
2.68216
2.6875
2.69179
2.69541
2.69894
2.70272
2.70705
2.71189
2.71675
2.72121
2.72492
2.72794
2.73057
2.73312
2.73575
2.73836
2.74076
2.74286
2.74491
2.74719
2.74978
2.75255
2.75518
2.75739
2.75912
2.7605
2.76182
2.76335
2.76524
2.76734
2.76935
2.77102
2.77235
2.77347
2.77458
2.77577
2.77705
2.77823
2.77911
2.77952
2.77948
2.77916
2.77863
2.77847
1
1
1
1
1
1
1
1
1
1
1
1
1
1
1
1
1
1
1
1
1
1
1
1
1
1
1
1
1
1
1
1
1
1
1
1
1
1
1
1
1
1
1
1
1
1
1
1
1
1
1
1
1
1
1
1
1
1
1
1
1
1
1
1
1
1
1
1
1
1
1
1
1
1
1
1
1
1
1
1
1
1
1
1
1
1
1
1
1
1
1
1
1
1
1
1
1
1
1
1
1
1
1
1
1
1
1
1
1
1
1
1
1
1
1
1
1
1
1
1
1
1
1
1
1
1
1
1
1
1
1
1
1
1
1
1
1
1
1
1
1
1
1
1
1.50042
2.52467
2.66563
2.6702
2.67718
2.68264
2.6873
2.691
2.69441
2.69802
2.70229
2.70728
2.71246
2.71731
2.72137
2.72464
2.72746
2.73025
2.73316
2.73604
2.73867
2.74091
2.74302
2.7453
2.74786
2.75056
2.7531
2.75521
2.75679
2.758
2.75916
2.76056
2.76234
2.7644
2.7664
2.76806
2.76933
2.77036
2.77136
2.77247
2.77371
2.7749
2.77577
2.77616
2.7761
2.77577
2.77528
2.77512
1
1
1
1
1
1
1
1
1
1
1
1
1
1
1
1
1
1
1
1
1
1
1
1
1
1
1
1
1
1
1
1
1
1
1
1
1
1
1
1
1
1
1
1
1
1
1
1
1
1
1
1
1
1
1
1
1
1
1
1
1
1
1
1
1
1
1
1
1
1
1
1
1
1
1
1
1
1
1
1
1
1
1
1
1
1
1
1
1
1
1
1
1
1
1
1
1
1
1
1
1
1
1
1
1
1
1
1
1
1
1
1
1
1
1
1
1
1
1
1
1
1
1
1
1
1
1
1
1
1
1
1
1
1
1
1
1
1
1
1
1
1
1
1
1.33195
2.46075
2.6686
2.66683
2.67188
2.67711
2.68208
2.68601
2.68944
2.69295
2.69709
2.70212
2.70751
2.71263
2.71697
2.72047
2.72349
2.72652
2.72976
2.733
2.73597
2.73847
2.74074
2.74308
2.74566
2.74834
2.75084
2.75289
2.75439
2.75548
2.75648
2.75769
2.75931
2.76124
2.76316
2.76477
2.76597
2.76691
2.76781
2.76883
2.77
2.77115
2.77202
2.77241
2.77235
2.77204
2.77157
2.77141
1
1
1
1
1
1
1
1
1
1
1
1
1
1
1
1
1
1
1
1
1
1
1
1
1
1
1
1
1
1
1
1
1
1
1
1
1
1
1
1
1
1
1
1
1
1
1
1
1
1
1
1
1
1
1
1
1
1
1
1
1
1
1
1
1
1
1
1
1
1
1
1
1
1
1
1
1
1
1
1
1
1
1
1
1
1
1
1
1
1
1
1
1
1
1
1
1
1
1
1
1
1
1
1
1
1
1
1
1
1
1
1
1
1
1
1
1
1
1
1
1
1
1
1
1
1
1
1
1
1
1
1
1
1
1
1
1
1
1
1
1
1
1
1
1.15823
2.38699
2.67121
2.66734
2.66931
2.67297
2.67743
2.68156
2.6852
2.68863
2.6924
2.69707
2.70232
2.70745
2.71192
2.71559
2.71878
2.72203
2.72557
2.72919
2.73256
2.73539
2.73789
2.74036
2.74301
2.74575
2.74831
2.7504
2.75189
2.7529
2.75374
2.75475
2.75612
2.75783
2.75961
2.76113
2.76227
2.76315
2.76397
2.76488
2.76595
2.76703
2.76786
2.76824
2.76818
2.76785
2.76736
2.76718
1
1
1
1
1
1
1
1
1
1
1
1
1
1
1
1
1
1
1
1
1
1
1
1
1
1
1
1
1
1
1
1
1
1
1
1
1
1
1
1
1
1
1
1
1
1
1
1
1
1
1
1
1
1
1
1
1
1
1
1
1
1
1
1
1
1
1
1
1
1
1
1
1
1
1
1
1
1
1
1
1
1
1
1
1
1
1
1
1
1
1
1
1
1
1
1
1
1
1
1
1
1
1
1
1
1
1
1
1
1
1
1
1
1
1
1
1
1
1
1
1
1
1
1
1
1
1
1
1
1
1
1
1
1
1
1
1
1
1
1
1
1
1
1
1.02403
2.32448
2.67139
2.66853
2.67009
2.67286
2.6766
2.68028
2.68337
2.68622
2.68929
2.69319
2.69775
2.70238
2.70664
2.7103
2.71357
2.71695
2.72073
2.72466
2.72839
2.73158
2.73436
2.73703
2.73983
2.74273
2.74543
2.74764
2.74919
2.75016
2.75087
2.75165
2.75274
2.75419
2.75577
2.75717
2.75824
2.75905
2.75977
2.76055
2.76145
2.7624
2.76317
2.76354
2.7635
2.7632
2.7627
2.76249
1
1
1
1
1
1
1
1
1
1
1
1
1
1
1
1
1
1
1
1
1
1
1
1
1
1
1
1
1
1
1
1
1
1
1
1
1
1
1
1
1
1
1
1
1
1
1
1
1
1
1
1
1
1
1
1
1
1
1
1
1
1
1
1
1
1
1
1
1
1
1
1
1
1
1
1
1
1
1
1
1
1
1
1
1
1
1
1
1
1
1
1
1
1
1
1
1
1
1
1
1
1
1
1
1
1
1
1
1
1
1
1
1
1
1
1
1
1
1
1
1
1
1
1
1
1
1
1
1
1
1
1
1
1
1
1
1
1
1
1
1
1
1
1
1.00033
2.2345
2.67273
2.67157
2.67213
2.67378
2.67639
2.67954
2.68264
2.68548
2.68814
2.69108
2.69453
2.69822
2.70186
2.70518
2.70831
2.71166
2.7155
2.71959
2.72357
2.72706
2.73011
2.733
2.73602
2.73914
2.74207
2.74447
2.74614
2.74713
2.74775
2.74834
2.74916
2.75032
2.75167
2.75292
2.75389
2.7546
2.75522
2.75586
2.75656
2.75731
2.75797
2.7583
2.75824
2.7579
2.75735
2.7571
1
1
1
1
1
1
1
1
1
1
1
1
1
1
1
1
1
1
1
1
1
1
1
1
1
1
1
1
1
1
1
1
1
1
1
1
1
1
1
1
1
1
1
1
1
1
1
1
1
1
1
1
1
1
1
1
1
1
1
1
1
1
1
1
1
1
1
1
1
1
1
1
1
1
1
1
1
1
1
1
1
1
1
1
1
1
1
1
1
1
1
1
1
1
1
1
1
1
1
1
1
1
1
1
1
1
1
1
1
1
1
1
1
1
1
1
1
1
1
1
1
1
1
1
1
1
1
1
1
1
1
1
1
1
1
1
1
1
1
1
1
1
1
1
1
2.1217
2.66925
2.67267
2.6746
2.67721
2.67911
2.68126
2.68348
2.68577
2.68806
2.69052
2.69321
2.69577
2.69846
2.70109
2.70374
2.70671
2.71031
2.71431
2.71831
2.72195
2.7252
2.7283
2.73153
2.73489
2.73809
2.74075
2.74261
2.7437
2.7443
2.74475
2.74534
2.74621
2.74731
2.74837
2.74919
2.74977
2.75025
2.75069
2.75111
2.75159
2.75206
2.75232
2.75223
2.7519
2.75135
2.75111
1
1
1
1
1
1
1
1
1
1
1
1
1
1
1
1
1
1
1
1
1
1
1
1
1
1
1
1
1
1
1
1
1
1
1
1
1
1
1
1
1
1
1
1
1
1
1
1
1
1
1
1
1
1
1
1
1
1
1
1
1
1
1
1
1
1
1
1
1
1
1
1
1
1
1
1
1
1
1
1
1
1
1
1
1
1
1
1
1
1
1
1
1
1
1
1
1
1
1
1
1
1
1
1
1
1
1
1
1
1
1
1
1
1
1
1
1
1
1
1
1
1
1
1
1
1
1
1
1
1
1
1
1
1
1
1
1
1
1
1
1
1
1
1
1
1.97439
2.64206
2.67209
2.6747
2.67761
2.67991
2.68213
2.68441
2.68662
2.6887
2.6908
2.6931
2.69502
2.69674
2.69847
2.70036
2.70272
2.70573
2.70927
2.713
2.71654
2.71982
2.72302
2.72639
2.72995
2.73342
2.73637
2.73848
2.73975
2.74042
2.74081
2.74121
2.74184
2.74269
2.74354
2.74415
2.74455
2.74486
2.74504
2.74514
2.74536
2.74559
2.74566
2.74541
2.74494
2.74433
2.74404
1
1
1
1
1
1
1
1
1
1
1
1
1
1
1
1
1
1
1
1
1
1
1
1
1
1
1
1
1
1
1
1
1
1
1
1
1
1
1
1
1
1
1
1
1
1
1
1
1
1
1
1
1
1
1
1
1
1
1
1
1
1
1
1
1
1
1
1
1
1
1
1
1
1
1
1
1
1
1
1
1
1
1
1
1
1
1
1
1
1
1
1
1
1
1
1
1
1
1
1
1
1
1
1
1
1
1
1
1
1
1
1
1
1
1
1
1
1
1
1
1
1
1
1
1
1
1
1
1
1
1
1
1
1
1
1
1
1
1
1
1
1
1
1
1
1.80066
2.59168
2.66345
2.67157
2.67689
2.68008
2.68254
2.68464
2.68652
2.68854
2.69067
2.6929
2.69484
2.69622
2.69727
2.69845
2.69994
2.70216
2.70499
2.70813
2.71126
2.71429
2.71739
2.72074
2.72438
2.72805
2.73126
2.73365
2.73519
2.73603
2.73642
2.73671
2.73717
2.7378
2.73839
2.73876
2.73892
2.73895
2.73874
2.73849
2.73832
2.73817
2.73793
2.73747
2.7369
2.7363
2.73608
1
1
1
1
1
1
1
1
1
1
1
1
1
1
1
1
1
1
1
1
1
1
1
1
1
1
1
1
1
1
1
1
1
1
1
1
1
1
1
1
1
1
1
1
1
1
1
1
1
1
1
1
1
1
1
1
1
1
1
1
1
1
1
1
1
1
1
1
1
1
1
1
1
1
1
1
1
1
1
1
1
1
1
1
1
1
1
1
1
1
1
1
1
1
1
1
1
1
1
1
1
1
1
1
1
1
1
1
1
1
1
1
1
1
1
1
1
1
1
1
1
1
1
1
1
1
1
1
1
1
1
1
1
1
1
1
1
1
1
1
1
1
1
1
1
1.59664
2.51468
2.6481
2.66111
2.6692
2.67456
2.6791
2.68277
2.68564
2.68803
2.69019
2.69232
2.69434
2.69579
2.69668
2.69738
2.69835
2.69978
2.70166
2.70406
2.70653
2.70904
2.71175
2.71483
2.71834
2.72204
2.72543
2.72811
2.72998
2.73104
2.73151
2.73178
2.73209
2.73256
2.7329
2.73297
2.73285
2.73247
2.7318
2.73118
2.7306
2.73001
2.72933
2.72846
2.72752
2.72664
2.72621
1
1
1
1
1
1
1
1
1
1
1
1
1
1
1
1
1
1
1
1
1
1
1
1
1
1
1
1
1
1
1
1
1
1
1
1
1
1
1
1
1
1
1
1
1
1
1
1
1
1
1
1
1
1
1
1
1
1
1
1
1
1
1
1
1
1
1
1
1
1
1
1
1
1
1
1
1
1
1
1
1
1
1
1
1
1
1
1
1
1
1
1
1
1
1
1
1
1
1
1
1
1
1
1
1
1
1
1
1
1
1
1
1
1
1
1
1
1
1
1
1
1
1
1
1
1
1
1
1
1
1
1
1
1
1
1
1
1
1
1
1
1
1
1
1
1.33306
2.42277
2.64156
2.64431
2.65477
2.66389
2.67081
2.67606
2.68065
2.68458
2.688
2.69097
2.69343
2.69512
2.69602
2.69654
2.69706
2.69797
2.6994
2.70088
2.70259
2.70439
2.70647
2.70901
2.71212
2.7156
2.71902
2.72196
2.72409
2.72533
2.726
2.72635
2.72662
2.72687
2.727
2.72681
2.72627
2.72533
2.72421
2.72303
2.7218
2.72045
2.71901
2.71755
2.71626
2.71525
2.71489
1
1
1
1
1
1
1
1
1
1
1
1
1
1
1
1
1
1
1
1
1
1
1
1
1
1
1
1
1
1
1
1
1
1
1
1
1
1
1
1
1
1
1
1
1
1
1
1
1
1
1
1
1
1
1
1
1
1
1
1
1
1
1
1
1
1
1
1
1
1
1
1
1
1
1
1
1
1
1
1
1
1
1
1
1
1
1
1
1
1
1
1
1
1
1
1
1
1
1
1
1
1
1
1
1
1
1
1
1
1
1
1
1
1
1
1
1
1
1
1
1
1
1
1
1
1
1
1
1
1
1
1
1
1
1
1
1
1
1
1
1
1
1
1
1
1.06505
2.33754
2.64483
2.63979
2.64374
2.6503
2.65833
2.6657
2.67202
2.67751
2.68251
2.68701
2.69077
2.69344
2.69491
2.69553
2.69593
2.69642
2.69729
2.69847
2.69952
2.70052
2.70181
2.70359
2.70603
2.70903
2.71227
2.71528
2.7175
2.71896
2.71983
2.72031
2.72059
2.72073
2.72064
2.72015
2.7191
2.71759
2.71585
2.71398
2.71197
2.70983
2.70758
2.70527
2.70297
2.70098
2.69977
1
1
1
1
1
1
1
1
1
1
1
1
1
1
1
1
1
1
1
1
1
1
1
1
1
1
1
1
1
1
1
1
1
1
1
1
1
1
1
1
1
1
1
1
1
1
1
1
1
1
1
1
1
1
1
1
1
1
1
1
1
1
1
1
1
1
1
1
1
1
1
1
1
1
1
1
1
1
1
1
1
1
1
1
1
1
1
1
1
1
1
1
1
1
1
1
1
1
1
1
1
1
1
1
1
1
1
1
1
1
1
1
1
1
1
1
1
1
1
1
1
1
1
1
1
1
1
1
1
1
1
1
1
1
1
1
1
1
1
1
1
1
1
1
1
1.0012
2.25234
2.641
2.63558
2.6403
2.64477
2.65034
2.6559
2.6621
2.66827
2.67425
2.68015
2.68545
2.68953
2.69218
2.69358
2.69428
2.69486
2.69556
2.69634
2.69696
2.6974
2.69792
2.69885
2.70042
2.70267
2.70545
2.70826
2.71038
2.71195
2.713
2.71361
2.71392
2.71399
2.71375
2.7129
2.71133
2.7092
2.70673
2.70398
2.70092
2.69743
2.6935
2.68939
2.68564
2.68272
2.68165
1
1
1
1
1
1
1
1
1
1
1
1
1
1
1
1
1
1
1
1
1
1
1
1
1
1
1
1
1
1
1
1
1
1
1
1
1
1
1
1
1
1
1
1
1
1
1
1
1
1
1
1
1
1
1
1
1
1
1
1
1
1
1
1
1
1
1
1
1
1
1
1
1
1
1
1
1
1
1
1
1
1
1
1
1
1
1
1
1
1
1
1
1
1
1
1
1
1
1
1
1
1
1
1
1
1
1
1
1
1
1
1
1
1
1
1
1
1
1
1
1
1
1
1
1
1
1
1
1
1
1
1
1
1
1
1
1
1
1
1
1
1
1
1
1
1
2.11011
2.64555
2.64385
2.64471
2.64568
2.64796
2.65126
2.65502
2.65943
2.66501
2.67133
2.67758
2.68295
2.68705
2.6897
2.69126
2.69237
2.69338
2.6943
2.69475
2.69472
2.69464
2.69484
2.69551
2.69684
2.69885
2.70116
2.70294
2.70442
2.70551
2.70623
2.70656
2.70659
2.70621
2.70504
2.70297
2.70016
2.69678
2.69288
2.6884
2.68327
2.67763
2.67171
2.66573
2.65912
2.65342
1
1
1
1
1
1
1
1
1
1
1
1
1
1
1
1
1
1
1
1
1
1
1
1
1
1
1
1
1
1
1
1
1
1
1
1
1
1
1
1
1
1
1
1
1
1
1
1
1
1
1
1
1
1
1
1
1
1
1
1
1
1
1
1
1
1
1
1
1
1
1
1
1
1
1
1
1
1
1
1
1
1
1
1
1
1
1
1
1
1
1
1
1
1
1
1
1
1
1
1
1
1
1
1
1
1
1
1
1
1
1
1
1
1
1
1
1
1
1
1
1
1
1
1
1
1
1
1
1
1
1
1
1
1
1
1
1
1
1
1
1
1
1
1
1
1
1.92101
2.62374
2.64873
2.64758
2.64853
2.64932
2.65029
2.65154
2.65404
2.65776
2.66282
2.66877
2.6746
2.67963
2.6835
2.68626
2.68835
2.69009
2.69152
2.69228
2.69223
2.69184
2.69141
2.6914
2.69177
2.6928
2.69431
2.6955
2.6966
2.6975
2.69819
2.69849
2.69846
2.69794
2.69649
2.69396
2.69041
2.68598
2.68071
2.67456
2.66733
2.65875
2.64826
2.63575
2.62303
2.61386
1
1
1
1
1
1
1
1
1
1
1
1
1
1
1
1
1
1
1
1
1
1
1
1
1
1
1
1
1
1
1
1
1
1
1
1
1
1
1
1
1
1
1
1
1
1
1
1
1
1
1
1
1
1
1
1
1
1
1
1
1
1
1
1
1
1
1
1
1
1
1
1
1
1
1
1
1
1
1
1
1
1
1
1
1
1
1
1
1
1
1
1
1
1
1
1
1
1
1
1
1
1
1
1
1
1
1
1
1
1
1
1
1
1
1
1
1
1
1
1
1
1
1
1
1
1
1
1
1
1
1
1
1
1
1
1
1
1
1
1
1
1
1
1
1
1
1.68357
2.5458
2.64314
2.64654
2.64962
2.65098
2.65134
2.65174
2.65253
2.65414
2.65722
2.66145
2.66634
2.67123
2.6756
2.67928
2.68238
2.68511
2.68742
2.68891
2.68933
2.68902
2.68834
2.68769
2.68735
2.68747
2.68797
2.68835
2.68876
2.68919
2.6896
2.68976
2.68962
2.68893
2.68722
2.68426
2.67996
2.67439
2.66754
2.6593
2.64921
2.63667
2.62114
2.60239
2.58451
2.5786
1
1
1
1
1
1
1
1
1
1
1
1
1
1
1
1
1
1
1
1
1
1
1
1
1
1
1
1
1
1
1
1
1
1
1
1
1
1
1
1
1
1
1
1
1
1
1
1
1
1
1
1
1
1
1
1
1
1
1
1
1
1
1
1
1
1
1
1
1
1
1
1
1
1
1
1
1
1
1
1
1
1
1
1
1
1
1
1
1
1
1
1
1
1
1
1
1
1
1
1
1
1
1
1
1
1
1
1
1
1
1
1
1
1
1
1
1
1
1
1
1
1
1
1
1
1
1
1
1
1
1
1
1
1
1
1
1
1
1
1
1
1
1
1
1
1
1.36357
2.41841
2.64077
2.6408
2.64398
2.64687
2.64922
2.65095
2.652
2.65305
2.65454
2.65688
2.66001
2.66363
2.66745
2.67125
2.67487
2.67839
2.6816
2.68416
2.68552
2.68563
2.68513
2.68424
2.68333
2.68266
2.68224
2.68171
2.68124
2.68089
2.68072
2.6805
2.6801
2.67914
2.67716
2.6738
2.66878
2.66204
2.65347
2.64291
2.62977
2.61306
2.58977
2.55393
2.49337
2.43954
1
1
1
1
1
1
1
1
1
1
1
1
1
1
1
1
1
1
1
1
1
1
1
1
1
1
1
1
1
1
1
1
1
1
1
1
1
1
1
1
1
1
1
1
1
1
1
1
1
1
1
1
1
1
1
1
1
1
1
1
1
1
1
1
1
1
1
1
1
1
1
1
1
1
1
1
1
1
1
1
1
1
1
1
1
1
1
1
1
1
1
1
1
1
1
1
1
1
1
1
1
1
1
1
1
1
1
1
1
1
1
1
1
1
1
1
1
1
1
1
1
1
1
1
1
1
1
1
1
1
1
1
1
1
1
1
1
1
1
1
1
1
1
1
1
1
1.0405
2.30586
2.63522
2.6306
2.63273
2.63728
2.643
2.64718
2.64979
2.6515
2.65295
2.65447
2.65622
2.65831
2.66077
2.66369
2.66698
2.67057
2.67431
2.67774
2.68023
2.6813
2.68118
2.68049
2.67938
2.67816
2.67695
2.67565
2.67424
2.67292
2.67186
2.67096
2.67003
2.66867
2.66636
2.6626
2.65691
2.64905
2.63877
2.62584
2.60938
2.58757
2.55567
2.50539
2.44304
2.39875
1
1
1
1
1
1
1
1
1
1
1
1
1
1
1
1
1
1
1
1
1
1
1
1
1
1
1
1
1
1
1
1
1
1
1
1
1
1
1
1
1
1
1
1
1
1
1
1
1
1
1
1
1
1
1
1
1
1
1
1
1
1
1
1
1
1
1
1
1
1
1
1
1
1
1
1
1
1
1
1
1
1
1
1
1
1
1
1
1
1
1
1
1
1
1
1
1
1
1
1
1
1
1
1
1
1
1
1
1
1
1
1
1
1
1
1
1
1
1
1
1
1
1
1
1
1
1
1
1
1
1
1
1
1
1
1
1
1
1
1
1
1
1
1
1
1
1.00035
2.18941
2.61877
2.6178
2.62267
2.62839
2.63459
2.6404
2.64498
2.64828
2.65061
2.65233
2.6537
2.65488
2.65607
2.65763
2.65987
2.66273
2.66623
2.67
2.67334
2.67556
2.6763
2.67597
2.67501
2.67362
2.67196
2.67005
2.66782
2.66549
2.66331
2.66142
2.65967
2.65768
2.65488
2.65067
2.64437
2.63554
2.62373
2.60856
2.58908
2.56301
2.52591
2.46993
2.40171
2.33903
1
1
1
1
1
1
1
1
1
1
1
1
1
1
1
1
1
1
1
1
1
1
1
1
1
1
1
1
1
1
1
1
1
1
1
1
1
1
1
1
1
1
1
1
1
1
1
1
1
1
1
1
1
1
1
1
1
1
1
1
1
1
1
1
1
1
1
1
1
1
1
1
1
1
1
1
1
1
1
1
1
1
1
1
1
1
1
1
1
1
1
1
1
1
1
1
1
1
1
1
1
1
1
1
1
1
1
1
1
1
1
1
1
1
1
1
1
1
1
1
1
1
1
1
1
1
1
1
1
1
1
1
1
1
1
1
1
1
1
1
1
1
1
1
1
1
0.999997
2.00173
2.60515
2.62086
2.62379
2.62553
2.62885
2.63358
2.63856
2.64299
2.6465
2.64908
2.65083
2.65196
2.65262
2.65319
2.6542
2.65601
2.65851
2.66182
2.66534
2.66833
2.6701
2.67042
2.66987
2.66866
2.66693
2.66468
2.66185
2.65864
2.65533
2.65221
2.64935
2.64645
2.64293
2.63815
2.63128
2.62165
2.60867
2.59169
2.56987
2.54103
2.5014
2.44456
2.36972
2.30188
1
1
1
1
1
1
1
1
1
1
1
1
1
1
1
1
1
1
1
1
1
1
1
1
1
1
1
1
1
1
1
1
1
1
1
1
1
1
1
1
1
1
1
1
1
1
1
1
1
1
1
1
1
1
1
1
1
1
1
1
1
1
1
1
1
1
1
1
1
1
1
1
1
1
1
1
1
1
1
1
1
1
1
1
1
1
1
1
1
1
1
1
1
1
1
1
1
1
1
1
1
1
1
1
1
1
1
1
1
1
1
1
1
1
1
1
1
1
1
1
1
1
1
1
1
1
1
1
1
1
1
1
1
1
1
1
1
1
1
1
1
1
1
1
1
1
0.999999
1.7385
2.54644
2.62153
2.62231
2.62414
2.62637
2.62891
2.63252
2.63668
2.64072
2.64414
2.64673
2.64843
2.64929
2.6495
2.64976
2.65055
2.65187
2.65413
2.65705
2.66007
2.66253
2.66373
2.66364
2.6629
2.66142
2.65915
2.65605
2.65223
2.64795
2.64359
2.63939
2.63529
2.63079
2.62524
2.61778
2.60755
2.59378
2.57563
2.55226
2.52193
2.48177
2.42737
2.35534
2.29333
1
1
1
1
1
1
1
1
1
1
1
1
1
1
1
1
1
1
1
1
1
1
1
1
1
1
1
1
1
1
1
1
1
1
1
1
1
1
1
1
1
1
1
1
1
1
1
1
1
1
1
1
1
1
1
1
1
1
1
1
1
1
1
1
1
1
1
1
1
1
1
1
1
1
1
1
1
1
1
1
1
1
1
1
1
1
1
1
1
1
1
1
1
1
1
1
1
1
1
1
1
1
1
1
1
1
1
1
1
1
1
1
1
1
1
1
1
1
1
1
1
1
1
1
1
1
1
1
1
1
1
1
1
1
1
1
1
1
1
1
1
1
1
1
1
1
1
1.38289
2.42399
2.61931
2.61756
2.61969
2.62226
2.62505
2.6281
2.63143
2.63497
2.63841
2.64145
2.6438
2.64528
2.64578
2.64588
2.64607
2.64649
2.64757
2.64941
2.65173
2.6541
2.65588
2.65647
2.65617
2.6551
2.65311
2.65008
2.64601
2.64109
2.63567
2.6301
2.62457
2.61883
2.61229
2.60413
2.5934
2.57919
2.56052
2.53652
2.50596
2.46723
2.418
2.35608
2.2955
1
1
1
1
1
1
1
1
1
1
1
1
1
1
1
1
1
1
1
1
1
1
1
1
1
1
1
1
1
1
1
1
1
1
1
1
1
1
1
1
1
1
1
1
1
1
1
1
1
1
1
1
1
1
1
1
1
1
1
1
1
1
1
1
1
1
1
1
1
1
1
1
1
1
1
1
1
1
1
1
1
1
1
1
1
1
1
1
1
1
1
1
1
1
1
1
1
1
1
1
1
1
1
1
1
1
1
1
1
1
1
1
1
1
1
1
1
1
1
1
1
1
1
1
1
1
1
1
1
1
1
1
1
1
1
1
1
1
1
1
1
1
1
1
1
1
1
1.04304
2.29369
2.61737
2.6123
2.61291
2.61587
2.62004
2.62343
2.6265
2.62947
2.63245
2.63537
2.63799
2.64007
2.64126
2.64178
2.64185
2.64183
2.64206
2.6428
2.64407
2.64569
2.64735
2.64836
2.64841
2.64779
2.64623
2.64354
2.63959
2.63441
2.62829
2.62156
2.6146
2.60743
2.59968
2.59066
2.57943
2.56502
2.54638
2.52259
2.49285
2.4566
2.41329
2.36088
2.30389
1
1
1
1
1
1
1
1
1
1
1
1
1
1
1
1
1
1
1
1
1
1
1
1
1
1
1
1
1
1
1
1
1
1
1
1
1
1
1
1
1
1
1
1
1
1
1
1
1
1
1
1
1
1
1
1
1
1
1
1
1
1
1
1
1
1
1
1
1
1
1
1
1
1
1
1
1
1
1
1
1
1
1
1
1
1
1
1
1
1
1
1
1
1
1
1
1
1
1
1
1
1
1
1
1
1
1
1
1
1
1
1
1
1
1
1
1
1
1
1
1
1
1
1
1
1
1
1
1
1
1
1
1
1
1
1
1
1
1
1
1
1
1
1
1
1
1
1.00037
2.14205
2.59639
2.59881
2.60397
2.60883
2.61381
2.61789
2.62133
2.62418
2.62675
2.62925
2.63169
2.63399
2.63584
2.63695
2.63739
2.63732
2.63718
2.63717
2.63742
2.63803
2.63893
2.63975
2.63997
2.63959
2.63841
2.63617
2.63264
2.62761
2.62119
2.61371
2.60555
2.59694
2.58783
2.57776
2.56592
2.55137
2.53309
2.51016
2.48201
2.44865
2.4105
2.36674
2.31503
1
1
1
1
1
1
1
1
1
1
1
1
1
1
1
1
1
1
1
1
1
1
1
1
1
1
1
1
1
1
1
1
1
1
1
1
1
1
1
1
1
1
1
1
1
1
1
1
1
1
1
1
1
1
1
1
1
1
1
1
1
1
1
1
1
1
1
1
1
1
1
1
1
1
1
1
1
1
1
1
1
1
1
1
1
1
1
1
1
1
1
1
1
1
1
1
1
1
1
1
1
1
1
1
1
1
1
1
1
1
1
1
1
1
1
1
1
1
1
1
1
1
1
1
1
1
1
1
1
1
1
1
1
1
1
1
1
1
1
1
1
1
1
1
1
1
1
0.999997
1.90193
2.5648
2.59976
2.60305
2.60612
2.60926
2.61271
2.61613
2.619
2.62133
2.62339
2.62543
2.6276
2.62964
2.63124
2.63225
2.6325
2.63236
2.63199
2.63154
2.63124
2.63122
2.63131
2.63121
2.63078
2.62977
2.62791
2.62487
2.6203
2.61403
2.60621
2.59726
2.58751
2.57707
2.56581
2.5532
2.53844
2.52064
2.49889
2.47269
2.44227
2.40853
2.37137
2.32645
1
1
1
1
1
1
1
1
1
1
1
1
1
1
1
1
1
1
1
1
1
1
1
1
1
1
1
1
1
1
1
1
1
1
1
1
1
1
1
1
1
1
1
1
1
1
1
1
1
1
1
1
1
1
1
1
1
1
1
1
1
1
1
1
1
1
1
1
1
1
1
1
1
1
1
1
1
1
1
1
1
1
1
1
1
1
1
1
1
1
1
1
1
1
1
1
1
1
1
1
1
1
1
1
1
1
1
1
1
1
1
1
1
1
1
1
1
1
1
1
1
1
1
1
1
1
1
1
1
1
1
1
1
1
1
1
1
1
1
1
1
1
1
1
1
1
1
0.999999
1.54062
2.46633
2.60046
2.60019
2.60137
2.60381
2.60744
2.61082
2.6137
2.61596
2.61777
2.61947
2.62129
2.62319
2.62496
2.62641
2.62715
2.62716
2.62679
2.62605
2.62513
2.62428
2.62352
2.62273
2.62182
2.62063
2.61889
2.61625
2.61222
2.60644
2.5988
2.58953
2.57904
2.56757
2.55516
2.54164
2.5265
2.50904
2.4885
2.46432
2.43681
2.40701
2.37466
2.33843
1
1
1
1
1
1
1
1
1
1
1
1
1
1
1
1
1
1
1
1
1
1
1
1
1
1
1
1
1
1
1
1
1
1
1
1
1
1
1
1
1
1
1
1
1
1
1
1
1
1
1
1
1
1
1
1
1
1
1
1
1
1
1
1
1
1
1
1
1
1
1
1
1
1
1
1
1
1
1
1
1
1
1
1
1
1
1
1
1
1
1
1
1
1
1
1
1
1
1
1
1
1
1
1
1
1
1
1
1
1
1
1
1
1
1
1
1
1
1
1
1
1
1
1
1
1
1
1
1
1
1
1
1
1
1
1
1
1
1
1
1
1
1
1
1
1
1
1
1.10686
2.32847
2.60076
2.59346
2.59386
2.59639
2.60089
2.6047
2.60787
2.61027
2.61207
2.61365
2.61511
2.61678
2.61849
2.62006
2.62116
2.62145
2.62119
2.62046
2.61929
2.6179
2.6164
2.61484
2.61321
2.6115
2.60954
2.60699
2.60336
2.59815
2.59105
2.582
2.57126
2.55917
2.54592
2.53151
2.51582
2.49851
2.47895
2.45662
2.43188
2.40528
2.37711
2.34883
1
1
1
1
1
1
1
1
1
1
1
1
1
1
1
1
1
1
1
1
1
1
1
1
1
1
1
1
1
1
1
1
1
1
1
1
1
1
1
1
1
1
1
1
1
1
1
1
1
1
1
1
1
1
1
1
1
1
1
1
1
1
1
1
1
1
1
1
1
1
1
1
1
1
1
1
1
1
1
1
1
1
1
1
1
1
1
1
1
1
1
1
1
1
1
1
1
1
1
1
1
1
1
1
1
1
1
1
1
1
1
1
1
1
1
1
1
1
1
1
1
1
1
1
1
1
1
1
1
1
1
1
1
1
1
1
1
1
1
1
1
1
1
1
1
1
1
1
1.00277
2.19056
2.58039
2.57958
2.5839
2.58848
2.59356
2.59775
2.6013
2.604
2.60604
2.60767
2.609
2.61048
2.61203
2.61349
2.61469
2.6152
2.61506
2.61447
2.61332
2.61172
2.60978
2.60762
2.60527
2.60283
2.6003
2.59747
2.59391
2.58914
2.58267
2.57424
2.56382
2.55161
2.53791
2.52292
2.50669
2.48924
2.47037
2.44964
2.42707
2.40348
2.37919
2.35597
1
1
1
1
1
1
1
1
1
1
1
1
1
1
1
1
1
1
1
1
1
1
1
1
1
1
1
1
1
1
1
1
1
1
1
1
1
1
1
1
1
1
1
1
1
1
1
1
1
1
1
1
1
1
1
1
1
1
1
1
1
1
1
1
1
1
1
1
1
1
1
1
1
1
1
1
1
1
1
1
1
1
1
1
1
1
1
1
1
1
1
1
1
1
1
1
1
1
1
1
1
1
1
1
1
1
1
1
1
1
1
1
1
1
1