/*--------------------------------*- C++ -*----------------------------------*\
  =========                 |
  \\      /  F ield         | OpenFOAM: The Open Source CFD Toolbox
   \\    /   O peration     | Website:  https://openfoam.org
    \\  /    A nd           | Version:  7
     \\/     M anipulation  |
\*---------------------------------------------------------------------------*/
FoamFile
{
    version     2.0;
    format      ascii;
    class       volScalarField;
    location    "2.9";
    object      p;
}
// * * * * * * * * * * * * * * * * * * * * * * * * * * * * * * * * * * * * * //

dimensions      [1 -1 -2 0 0 0 0];

internalField   nonuniform List<scalar> 
16192
(
1
1
1
1
1
1
1
1
1
1
1
1.00009
1.09028
3.16699
5.02422
5.34855
5.32626
5.26717
5.19906
5.13532
1
1
1
1
1
1
1
1
1
1
1
1
1.00513
1.81282
4.53003
5.37192
5.36645
5.30779
5.22566
5.15521
1
1
1
1
1
1
1
1
1
1
1
1
1.00017
1.14136
3.39122
5.06568
5.32259
5.29616
5.24024
5.17115
1
1
1
1
1
1
1
1
1
1
1
1
1
1.00956
1.98906
4.63384
5.34703
5.33359
5.27638
5.19529
1
1
1
1
1
1
1
1
1
1
1
1
1
1.00035
1.19715
3.56857
5.09867
5.2964
5.26984
5.2082
1
1
1
1
1
1
1
1
1
1
1
1
1
1.00001
1.01507
2.14493
4.70908
5.31581
5.29647
5.23474
1
1
1
1
1
1
1
1
1
1
1
1
1
1
1.00058
1.25367
3.71299
5.13227
5.26789
5.23514
1
1
1
1
1
1
1
1
1
1
1
1
1
1
1.00001
1.02167
2.2927
4.75427
5.27598
5.26009
1
1
1
1
1
1
1
1
1
1
1
1
1
1
1
1.00091
1.31513
3.79791
5.17018
5.2604
1
1
1
1
1
1
1
1
1
1
1
1
1
1
1
1.00002
1.02959
2.40566
4.86938
5.2356
1
1
1
1
1
1
1
1
1
1
1
1
1
1
1
1
1.00126
1.37584
3.98656
5.04675
1
1
1
1
1
1
1
1
1
1
1
1
1
1
1
1
1.00003
1.04109
2.55506
4.69907
1
1
1
1
1
1
1
1
1
1
1
1
1
1
1
1
1
1.00194
1.43955
3.915
1
1
1
1
1
1
1
1
1
1
1
1
1
1
1
1
1
1.00005
1.05348
2.53873
1
1
1
1
1
1
1
1
1
1
1
1
1
1
1
1
1
1
1.00287
1.44275
1
1
1
1
1
1
1
1
1
1
1
1
1
1
1
1
1
1
1.00008
1.05839
1
1
1
1
1
1
1
1
1
1
1
1
1
1
1
1
1
1
1
1.0038
1
1
1
1
1
1
1
1
1
1
1
1
1
1
1
1
1
1
1
1.00013
1
1
1
1
1
1
1
1
1
1
1
1
1
1
1
1
1
1
1
1
1
1
1
1
1
1
1
1
1
1
1
1
1
1
1
1
1
1
1
1
1
1
1
1
1
1
1
1
1
1
1
1
1
1
1
1
1
1
1
1
1
1
1
1
1
1
1
1
1
1
1
1
1
1
1
1
1
1
1
1
1
1
1
1
1
1
1
1
1
1
1
1
1
1
1
1
1
1
1
1
1
1
1
1
1
1
1
1
1
1
1
1
1
1
1
1
1
1
1
1
1
1
1
1
1
1
1
1
1
1
1
1
1
1
1
1
1
1
1
1
1
1
1
1
1
1
1
1
1
1
1
1
1
1
1
1
1
1
1
1
1
1
1
1
1
1
1
1
1
1
1
1
1
1
1
1
1
1
1
1
1
1
1
1
1
1
1
1
1
1
1
1
1
1
1
1
1
1
1
1
1
1
1
1
1
1
1
1
1
1
1
1
1
1
1
1
1
1
1
1
1
1
1
1
1
1
1
1
1
1
1
1
1
1
1
1
1
1
1
1
1
1
1
1
1
1
1
1
1
1
1
1
1
1
1
1
1
1
1
1
1
1
1
1
1
1
1
1
1
1
1
1
1
1
1
1
1
1
1
1
1
1
1
1
1
1
1
1
1
1
1
1
1
1
1
1
1
1
1
1
1
1
1
1
1
1
1
1
1
1
1
1
1
1
1
1
1
1
1
1
1
1
1
1
1
1
1
1
1
1
1
1
1
1
1
1
1
1
1
1
1
1
1
1
1
1
1
1
1
1
1
1
1
1
1
1
1
1
1
1
1
1
1
1
1
1
1
1
1
1
1
1
1
1
1
1
1
1
1
1
1
1
1
1
1
1
1
1
1
1
1
1
1
1
1
1
1
1
1
1
1
1
1
1
1
1
1
1
1
1
1
1
1
1
1
1
1
1
1
1
1
1
1
1
1
1
1
1
1
1
1
1
1
1
1
1
1
1
1
1
1
1
1
1
1
1
1
1
1
1
1
1
1
1
1
1
1
1
1
1
1
1
1
1
1
1
1
1
1
1
1
1
1
1
1
1
1
1
1
1
1
1
1
1
1
1
1
1
1
1
1
1
1
1
1
1
1
1
1
1
1
1
1
1
1
1
1
1
1
1
1
1
1
1
1
1
1
1
1
1
1
1
1
1
1
1
1
1
1
1
1
1
1
1
1
1
1
1
1
1
1
1
1
1
1
1
1
1
1
1
1
1
1
1
1
1
1
1
1
1
1
1
1
1
1
1
1
1
1
1
1
1
1
1
1
1
1
1
1
1
1
1
1
1
1
1
1
1
1
1
1
1
1
1
1
1
1
1
1
1
1
1
1
1
1
1
1
1
1
1
1
1
1
1
1
1
1
1
1
1
1
1
1
1
1
1
1
1
1
1
1
1
1
1
1
1
1
1
1
1
1
1
1
1
1
1
1
1
1
1
1
1
1
1
1
1
1
1
1
1
1
1
1
1
1
1
1
1
1
1
1
1
1
1
1
1
1
1
1
1
1
1
1
1
1
1
1
1
1
1
1
1
1
1
1
1
1
1
1
1
1
1
1
1
1
1
1
1
1
1
1
1
1
1
1
1
1
1
1
1
1
1
1
1
1
1
1
1
1
1
1
1
1
1
1
1
1
1
1
1
1
1
1
1
1
1
1
1
1
1
1
1
1
1
1
1
1
1
1
1
1
1
1
1
1
1
1
1
1
1
1
1
1
1
1
1
1
1
1
1
1
1
1
1
1
1
1
1
1
1
1
1
1
1
1
1
1
1
1
1
1
1
1
1
1
1
1
1
1
1
1
1
1
1
1
1
1
1
1
1
1
1
1
1
1
1
1
1
1
1
1
1
1
1
1
1
1
1
1
1
1
1
1
1
1
1
1
1
1
1
1
1
1
1
1
1
1
1
1
1
1
1
1
1
1
1
1
1
1
1
1
1
1
1
1
1
1
1
1
1
1
1
1
1
1
1
1
1
1
1
1
1
1
1
1
1
1
1
1
1
1
1
1
1
1
1
1
1
1
1
1
1
1
1
1
1
1
1
1
1
1
1
1
1
1
1
1
1
1
1
1
1
1
1
1
1
1
1
1
1
3.06453
3.04138
3.01327
2.991
2.9814
2.96516
2.95465
2.94634
2.93547
2.91228
2.87312
2.82021
2.77107
2.75274
2.74612
2.73647
2.71856
2.68614
2.6468
2.62167
2.61587
2.61788
2.62557
2.62018
2.60667
2.57531
2.52448
2.48556
2.47606
2.47331
2.46741
2.45705
2.43738
2.39819
2.35539
2.33735
2.33526
2.34239
2.34845
2.34145
2.32451
2.28779
2.25052
2.2386
2.23527
2.23132
2.22407
2.21193
2.18339
2.13691
2.09885
2.0889
2.08832
2.10062
2.10876
2.1031
2.08687
2.05404
2.02249
2.01225
2.01083
2.0097
2.00487
1.99685
1.97671
1.93744
1.90041
1.889
1.8862
1.88405
1.88244
1.88176
1.88228
1.88261
1.8804
1.87503
1.86174
1.83757
1.80205
1.76778
1.7524
1.75011
1.75398
1.7669
1.77013
1.76515
1.75302
1.72855
1.70041
1.68575
1.68324
1.6826
1.67942
1.66917
1.64488
1.61288
1.59369
1.58725
1.58578
1.59159
1.61334
1.64012
1.64946
1.64726
1.63925
1.61732
1.57077
1.50659
1.47348
1.46492
1.46359
1.46655
1.48476
1.51087
1.51716
1.51435
1.51259
1.51047
1.50739
1.50195
1.48617
1.45343
1.41225
1.3923
1.38708
1.38595
1.38661
1.39226
1.39924
1.39935
1.39669
1.39402
1.39053
1.38247
5.08838
5.05877
5.02861
4.99561
4.96751
4.93878
4.90829
4.87534
4.8464
4.81999
4.7875
4.75715
4.72487
4.69509
4.66836
4.63686
4.60737
4.57301
4.54355
4.52296
4.4953
4.4691
4.43697
4.41194
4.38988
4.35902
4.33491
4.30234
4.27342
4.24927
4.21874
4.19127
4.15421
4.12959
4.11028
4.08215
4.05801
4.02496
4.00307
3.98074
3.95253
3.93028
3.8967
3.8717
3.84503
3.81664
3.79012
3.76232
3.7472
3.72274
3.69703
3.66756
3.62325
3.60136
3.57824
3.56969
3.57958
3.59777
3.6438
3.75451
3.91487
4.01135
4.04248
4.04292
4.0261
4.00112
3.96797
3.92431
3.88239
3.84875
3.82003
3.78895
3.76043
3.73484
3.70122
3.66856
3.63679
3.59971
3.58014
3.5563
3.52869
3.49886
3.46992
3.44845
3.42512
3.39862
3.36894
3.34659
3.32293
3.29667
3.27372
3.23962
3.19992
3.1674
3.13336
3.10643
3.08466
3.05869
3.0372
3.03033
3.01664
3.0007
2.98972
2.97535
2.95115
2.91505
2.86577
2.81727
2.7906
2.78293
2.77203
2.75356
2.72304
2.6861
2.66353
2.65837
2.6605
2.66752
2.66185
2.64633
2.61309
2.56166
2.52101
2.50984
2.50744
2.50309
2.49321
2.47434
2.43585
2.39225
2.37296
2.37076
2.37786
2.38591
2.37932
2.36088
2.32165
2.28086
2.26644
2.2628
2.25856
2.2514
2.24065
2.21604
2.17364
2.13455
2.12323
2.12202
2.13296
2.14071
2.13473
2.11744
2.08296
2.04941
2.03802
2.03622
2.03513
2.03076
2.02346
2.00593
1.96901
1.92948
1.91513
1.91279
1.91235
1.91525
1.91699
1.9168
1.91525
1.91088
1.90015
1.88193
1.8584
1.82509
1.79292
1.77838
1.77631
1.78034
1.7929
1.79484
1.78945
1.7768
1.75106
1.72223
1.70827
1.70616
1.70521
1.70167
1.69105
1.6656
1.63199
1.6123
1.60706
1.60643
1.61587
1.64339
1.67088
1.67661
1.67283
1.66234
1.63739
1.58661
1.52288
1.493
1.48556
1.4845
1.48814
1.50586
1.53032
1.53711
1.53449
1.53226
1.52995
1.52674
1.52121
1.50607
1.47315
1.42948
1.40823
1.40367
1.40266
1.40367
1.41075
1.41979
1.42076
1.4181
1.41556
1.41189
1.40198
1.38105
5.10764
5.07878
5.04615
5.0145
4.98776
4.95949
4.92684
4.89367
4.86644
4.83553
4.80576
4.7748
4.7407
4.71374
4.68435
4.65609
4.62434
4.59143
4.56927
4.54253
4.5167
4.48818
4.45904
4.43828
4.40913
4.38222
4.35385
4.31909
4.29559
4.26612
4.23746
4.20487
4.17155
4.15348
4.12632
4.10068
4.07157
4.0425
4.02287
3.99457
3.97097
3.94103
3.90974
3.88725
3.85775
3.83372
3.80383
3.78472
3.76334
3.73425
3.70988
3.67368
3.65041
3.6328
3.60936
3.58857
3.57592
3.58323
3.60493
3.66212
3.80397
3.95288
4.02414
4.04577
4.04334
4.02578
3.99646
3.95452
3.91199
3.87594
3.84265
3.80833
3.78014
3.75003
3.7168
3.68749
3.64979
3.62439
3.60455
3.57788
3.55136
3.52014
3.49702
3.47355
3.44849
3.41957
3.3952
3.37124
3.3437
3.31771
3.28716
3.24389
3.21013
3.17764
3.14845
3.12842
3.10541
3.08334
3.0749
3.0659
3.04617
3.03201
3.01321
2.98907
2.95679
2.91171
2.86409
2.83206
2.822
2.81049
2.79101
2.76126
2.72648
2.70725
2.7029
2.705
2.7097
2.70242
2.68417
2.64918
2.59762
2.55695
2.54422
2.54196
2.5391
2.53011
2.51209
2.47422
2.43012
2.40956
2.40699
2.41374
2.42313
2.41727
2.39764
2.35651
2.31158
2.29388
2.29008
2.28617
2.27901
2.26899
2.24856
2.21062
2.17178
2.15939
2.15783
2.167
2.17352
2.1668
2.14802
2.11178
2.07644
2.06395
2.0617
2.06042
2.05624
2.04955
2.03527
2.00215
1.96116
1.94274
1.94055
1.94216
1.95064
1.95446
1.95188
1.94731
1.93673
1.91883
1.8999
1.87806
1.84822
1.81856
1.80459
1.80264
1.80661
1.81888
1.8202
1.81456
1.80168
1.77493
1.74488
1.7311
1.72923
1.72807
1.7241
1.71358
1.68825
1.65363
1.63316
1.62878
1.62902
1.64237
1.6746
1.70011
1.70248
1.69737
1.6841
1.65565
1.60038
1.53931
1.51297
1.50653
1.50595
1.51122
1.52903
1.55028
1.55591
1.55323
1.55088
1.54851
1.54529
1.53998
1.52603
1.4941
1.4485
1.42528
1.42086
1.4199
1.4211
1.42919
1.44057
1.44333
1.44097
1.43825
1.43377
1.42112
1.39727
1.37224
5.12249
5.09256
5.0617
5.03307
5.00298
4.97152
4.93946
4.91306
4.88372
4.85162
4.82112
4.78863
4.76302
4.73433
4.70412
4.67266
4.63903
4.61773
4.5925
4.56477
4.53778
4.5065
4.48446
4.45778
4.42713
4.40107
4.365
4.33966
4.31351
4.28313
4.25378
4.21688
4.19556
4.17126
4.14197
4.11661
4.08304
4.06178
4.03647
4.0089
3.98369
3.94812
3.92678
3.90126
3.87606
3.8498
3.82505
3.80599
3.77652
3.75022
3.71958
3.69473
3.68199
3.66293
3.64262
3.60829
3.5757
3.57465
3.58664
3.61329
3.70779
3.86305
3.97743
4.04391
4.05357
4.04485
4.02305
3.9858
3.9432
3.90264
3.86367
3.82768
3.79465
3.76306
3.73658
3.70329
3.67013
3.64972
3.62553
3.60175
3.57298
3.54721
3.52276
3.49794
3.46871
3.44186
3.4177
3.38994
3.36212
3.33431
3.2942
3.25534
3.2238
3.19279
3.17222
3.15305
3.13031
3.11765
3.11051
3.09051
3.0724
3.05153
3.02662
2.99823
2.95858
2.91292
2.87595
2.86181
2.8505
2.83144
2.80233
2.76971
2.75343
2.74967
2.75121
2.75195
2.74164
2.7197
2.68361
2.6333
2.59318
2.57922
2.57671
2.57484
2.56665
2.54971
2.51311
2.46916
2.44766
2.4446
2.45076
2.45994
2.45458
2.43457
2.39102
2.34156
2.32148
2.31721
2.31366
2.30726
2.29769
2.28051
2.24693
2.2096
2.19657
2.19507
2.20296
2.20756
2.19967
2.17884
2.14023
2.10353
2.09036
2.08786
2.0862
2.08199
2.07577
2.06432
2.03512
1.99452
1.97264
1.97013
1.9729
1.98527
1.99087
1.98719
1.97866
1.9599
1.93677
1.91657
1.8965
1.87164
1.84484
1.83113
1.82921
1.83284
1.84479
1.84597
1.84031
1.82754
1.79997
1.76835
1.75418
1.7522
1.75068
1.74656
1.73726
1.7132
1.67843
1.6564
1.65244
1.6535
1.67008
1.7054
1.72717
1.72689
1.72034
1.70446
1.67211
1.61196
1.55544
1.53325
1.52806
1.52792
1.53526
1.55402
1.57024
1.57371
1.57129
1.569
1.56657
1.56337
1.55829
1.54532
1.51546
1.46953
1.44366
1.43861
1.43765
1.43907
1.44848
1.46182
1.46648
1.46478
1.4618
1.45552
1.43927
1.41229
1.38666
1.3763
5.14073
5.10784
5.07835
5.05051
5.02121
4.98786
4.95801
4.93099
4.90084
4.87313
4.83846
4.80858
4.78221
4.75428
4.72633
4.69117
4.66517
4.64076
4.61247
4.58807
4.55596
4.52932
4.50399
4.47191
4.44588
4.41198
4.38123
4.35725
4.32695
4.29954
4.26459
4.23694
4.21513
4.18433
4.15951
4.12752
4.10021
4.07835
4.04905
4.02532
3.9912
3.96497
3.94498
3.91866
3.89595
3.86809
3.84891
3.82308
3.79431
3.76773
3.73901
3.72624
3.70982
3.69164
3.66822
3.62374
3.59151
3.57721
3.5838
3.60007
3.64816
3.76846
3.89201
4.00731
4.059
4.06632
4.0496
4.01491
3.97165
3.92449
3.88219
3.84335
3.80944
3.78243
3.7559
3.72394
3.69613
3.67133
3.6478
3.6224
3.59737
3.57176
3.54658
3.51843
3.48855
3.46283
3.43454
3.40573
3.37957
3.34754
3.30578
3.27164
3.24046
3.21681
3.19997
3.17786
3.16036
3.15131
3.13333
3.11036
3.09025
3.06481
3.03842
3.00473
2.96195
2.92404
2.9025
2.8904
2.87406
2.84727
2.81643
2.80185
2.79816
2.7982
2.79391
2.77878
2.75283
2.71654
2.66799
2.62949
2.61488
2.6117
2.61
2.60223
2.5862
2.55151
2.50916
2.48738
2.48375
2.48929
2.49679
2.49115
2.47067
2.42603
2.37271
2.34919
2.3444
2.34118
2.33516
2.32623
2.31139
2.28217
2.24729
2.23446
2.2331
2.24059
2.24295
2.23377
2.21026
2.16876
2.13094
2.11748
2.11504
2.11314
2.10866
2.10259
2.09286
2.06774
2.02877
2.00436
2.00132
2.0045
2.01846
2.02401
2.01947
2.0079
1.98403
1.95675
1.93493
1.91595
1.89503
1.87083
1.85765
1.85568
1.85894
1.87068
1.87206
1.86661
1.8543
1.82622
1.79241
1.77722
1.775
1.77307
1.76874
1.76067
1.73964
1.70606
1.682
1.67791
1.67946
1.69807
1.73416
1.75176
1.74967
1.74154
1.72401
1.68771
1.62363
1.57253
1.55413
1.55004
1.54999
1.55908
1.57996
1.59168
1.59131
1.5889
1.58715
1.58481
1.58169
1.57646
1.56371
1.53614
1.49156
1.4635
1.45728
1.45608
1.45721
1.46807
1.48419
1.49014
1.48889
1.48582
1.47726
1.45696
1.4265
1.40092
1.39134
1.38982
5.15352
5.12154
5.09371
5.06507
5.03528
5.00556
4.97978
4.94983
4.91999
4.88766
4.85795
4.83237
4.80228
4.77245
4.73834
4.7119
4.68981
4.65988
4.6326
4.60183
4.57282
4.54837
4.5165
4.48751
4.45625
4.42164
4.39886
4.3699
4.3411
4.30933
4.2776
4.25782
4.22897
4.20113
4.17392
4.14103
4.11992
4.09222
4.06674
4.03814
4.00569
3.98867
3.96432
3.94155
3.91398
3.89171
3.87031
3.84101
3.81692
3.78773
3.77101
3.75543
3.73569
3.7142
3.68231
3.64461
3.6177
3.59556
3.58906
3.59688
3.61785
3.68708
3.79115
3.93499
4.03604
4.06642
4.05797
4.03225
3.99031
3.94327
3.90092
3.86215
3.82931
3.80257
3.77821
3.7482
3.71996
3.69496
3.66937
3.64579
3.61947
3.59316
3.56698
3.5365
3.5086
3.47891
3.4483
3.42226
3.39526
3.35818
3.32265
3.29047
3.26347
3.24664
3.22533
3.20304
3.19049
3.17398
3.149
3.12824
3.10444
3.07806
3.04869
3.00966
2.97181
2.94739
2.93059
2.91604
2.8959
2.86774
2.85148
2.84616
2.84207
2.83285
2.81345
2.78521
2.74912
2.70268
2.66588
2.6512
2.64753
2.64508
2.63682
2.62134
2.58905
2.54928
2.52801
2.5244
2.52976
2.53441
2.52676
2.50493
2.45943
2.40305
2.3776
2.37206
2.36865
2.36287
2.35472
2.34139
2.31628
2.28487
2.27281
2.27184
2.27938
2.27942
2.26857
2.24173
2.19687
2.15832
2.14506
2.14296
2.14145
2.13694
2.13113
2.12247
2.10048
2.06343
2.03735
2.03347
2.03639
2.05003
2.05479
2.04928
2.03518
2.00804
1.97724
1.95409
1.93591
1.91745
1.89571
1.88407
1.88205
1.88484
1.89632
1.89805
1.89295
1.88146
1.85348
1.81738
1.80025
1.79771
1.79558
1.79112
1.78377
1.76639
1.73521
1.70956
1.70486
1.70638
1.72511
1.76019
1.77457
1.77122
1.76169
1.74234
1.70213
1.63642
1.59067
1.57522
1.57215
1.57236
1.5826
1.60441
1.61402
1.61133
1.60837
1.60666
1.6042
1.60067
1.59399
1.58044
1.5551
1.51378
1.48436
1.47693
1.47563
1.47659
1.48835
1.50702
1.51403
1.51286
1.50933
1.49817
1.47393
1.4395
1.41521
1.40688
1.40544
1.40688
5.17537
5.14222
5.11342
5.08376
5.05175
5.02512
4.99903
4.97093
4.94109
4.90527
4.87763
4.85015
4.82255
4.78909
4.75614
4.73338
4.70474
4.67708
4.64853
4.61555
4.58955
4.55879
4.52826
4.50046
4.46522
4.44131
4.4137
4.38304
4.35351
4.31767
4.29622
4.27219
4.24242
4.2201
4.18707
4.16341
4.1391
4.11129
4.08688
4.05275
4.03395
4.01351
3.98892
3.9636
3.93568
3.91587
3.88865
3.86384
3.83756
3.81645
3.80103
3.78032
3.75776
3.72617
3.69865
3.67218
3.64662
3.62515
3.60276
3.59284
3.59771
3.6291
3.7016
3.83211
3.98276
4.04135
4.04813
4.03712
4.00605
3.96361
3.92291
3.88665
3.85003
3.82663
3.80194
3.77265
3.74638
3.7171
3.69309
3.66742
3.63899
3.61364
3.58459
3.55616
3.52591
3.49233
3.46431
3.43889
3.40763
3.37549
3.34294
3.31223
3.29296
3.27303
3.24577
3.22913
3.2133
3.189
3.16593
3.14531
3.1193
3.09159
3.05619
3.01785
2.99225
2.97359
2.95754
2.9435
2.92326
2.90344
2.89322
2.88338
2.86849
2.84648
2.81842
2.78268
2.73835
2.70292
2.68807
2.68402
2.68014
2.67049
2.65533
2.62604
2.58958
2.56952
2.56617
2.57141
2.57269
2.56174
2.53711
2.49184
2.43442
2.40633
2.39989
2.3969
2.39094
2.38293
2.37119
2.35021
2.32313
2.3125
2.3119
2.31859
2.31658
2.30357
2.2729
2.22446
2.18565
2.17284
2.17112
2.17125
2.16677
2.16121
2.15327
2.13314
2.09758
2.07093
2.06631
2.06873
2.08089
2.08376
2.07764
2.06206
2.03236
1.99748
1.97296
1.95547
1.93889
1.92037
1.91064
1.90867
1.91109
1.92228
1.92439
1.91942
1.90864
1.88137
1.84342
1.82344
1.82038
1.81826
1.81397
1.80723
1.79313
1.76478
1.738
1.73252
1.73389
1.75162
1.78409
1.79579
1.79186
1.7814
1.76022
1.71591
1.65002
1.61012
1.59694
1.59451
1.59496
1.60587
1.62848
1.63756
1.63438
1.631
1.62878
1.62571
1.61998
1.60957
1.59517
1.57258
1.5358
1.50624
1.49754
1.49623
1.49728
1.50987
1.53034
1.53759
1.5362
1.53176
1.51768
1.4897
1.45237
1.42992
1.42274
1.42152
1.42366
1.43289
5.18874
5.15723
5.1271
5.09473
5.06695
5.04353
5.01494
4.98507
4.95119
4.923
4.89557
4.86542
4.8341
4.79966
4.77592
4.74834
4.71692
4.68833
4.65591
4.63043
4.60194
4.56964
4.54114
4.5051
4.4807
4.45803
4.42775
4.40024
4.36417
4.33713
4.31454
4.28345
4.26052
4.23243
4.20668
4.1875
4.16043
4.13722
4.10539
4.08118
4.06412
4.03881
4.0153
3.9848
3.96206
3.93707
3.90934
3.88516
3.8593
3.84391
3.82365
3.80068
3.76877
3.73939
3.72091
3.69927
3.67604
3.65359
3.62116
3.59192
3.58766
3.60058
3.64342
3.73775
3.8947
3.99736
4.03039
4.032
4.01461
3.98463
3.95204
3.91358
3.87585
3.85435
3.82668
3.79993
3.76827
3.73935
3.71563
3.68558
3.65895
3.6306
3.6022
3.57448
3.53984
3.50836
3.48275
3.45315
3.42622
3.39712
3.3632
3.3388
3.31941
3.29009
3.26806
3.25269
3.22953
3.20477
3.18555
3.16291
3.13561
3.10296
3.06388
3.03538
3.01739
3.00035
2.98872
2.97582
2.95709
2.94101
2.92477
2.90397
2.88027
2.85243
2.81848
2.7768
2.74061
2.72511
2.72126
2.71712
2.70578
2.68926
2.66263
2.63027
2.61307
2.6099
2.61363
2.61013
2.59506
2.56748
2.52161
2.46612
2.43735
2.42901
2.42505
2.42013
2.41221
2.40139
2.38418
2.36341
2.35474
2.35392
2.35849
2.35389
2.33772
2.30293
2.25112
2.21315
2.20071
2.19916
2.20244
2.19874
2.19299
2.18538
2.1659
2.13106
2.1043
2.09915
2.10099
2.11141
2.11235
2.10552
2.08932
2.05765
2.01873
1.99258
1.97578
1.96135
1.94597
1.93779
1.93592
1.93776
1.94841
1.95111
1.94609
1.9358
1.90901
1.86927
1.84679
1.84319
1.84096
1.8368
1.83075
1.81946
1.79465
1.76722
1.76058
1.76135
1.77738
1.80725
1.81636
1.81179
1.80065
1.77756
1.72938
1.66514
1.63037
1.61929
1.61743
1.61822
1.62968
1.65312
1.66307
1.66007
1.65647
1.65323
1.64766
1.63658
1.62271
1.6084
1.58864
1.55782
1.52915
1.51904
1.51776
1.51894
1.53255
1.55402
1.56059
1.55848
1.55241
1.53587
1.50426
1.46506
1.44486
1.43896
1.43795
1.44097
1.45147
1.45685
5.22176
5.18835
5.1547
5.11771
5.08751
5.06082
5.03368
4.99969
4.96665
4.93983
4.91
4.88097
4.84585
4.81915
4.79319
4.76043
4.73085
4.6956
4.66901
4.64441
4.6132
4.58624
4.55178
4.52107
4.49906
4.47055
4.44506
4.41546
4.38536
4.36246
4.33244
4.30556
4.27916
4.24918
4.23343
4.21106
4.18819
4.16198
4.13258
4.115
4.08949
4.06436
4.03531
4.0074
3.98453
3.95562
3.93208
3.90328
3.88392
3.86488
3.84145
3.81274
3.77828
3.76112
3.74291
3.72351
3.70014
3.67396
3.63793
3.59693
3.58474
3.59211
3.61492
3.66983
3.79439
3.92105
3.99991
4.02465
4.02118
4.00499
3.98329
3.94536
3.91128
3.88357
3.85361
3.82215
3.78543
3.76247
3.7339
3.70447
3.67706
3.64554
3.6202
3.58928
3.5551
3.52962
3.49922
3.47283
3.44975
3.41626
3.38514
3.3642
3.33597
3.30804
3.29289
3.27106
3.24556
3.2253
3.20659
3.18096
3.14944
3.11143
3.07934
3.06055
3.04404
3.03217
3.02363
3.00752
2.98847
2.96748
2.94139
2.91568
2.88876
2.85666
2.81762
2.78027
2.76271
2.75803
2.75443
2.74289
2.72568
2.7002
2.67171
2.65838
2.65619
2.65524
2.64445
2.62421
2.59596
2.55098
2.49792
2.46873
2.45961
2.45508
2.44951
2.44222
2.43284
2.4192
2.40505
2.39911
2.39862
2.39898
2.39115
2.3698
2.33081
2.27689
2.24087
2.22885
2.22729
2.23287
2.23288
2.22655
2.2184
2.19808
2.16343
2.13706
2.13152
2.13279
2.14124
2.14054
2.13343
2.11725
2.08433
2.04183
2.01376
1.99758
1.98526
1.97279
1.96611
1.96407
1.9651
1.9748
1.9782
1.97332
1.96358
1.93755
1.89632
1.87017
1.86575
1.86396
1.86011
1.8545
1.84493
1.8238
1.79703
1.78932
1.78938
1.80254
1.82909
1.83675
1.83179
1.8196
1.79431
1.74291
1.68103
1.65115
1.64227
1.64084
1.64209
1.65455
1.67858
1.68959
1.68707
1.68347
1.67934
1.6697
1.65244
1.6354
1.62093
1.60434
1.57999
1.55328
1.54144
1.54013
1.5414
1.55527
1.5775
1.5831
1.57988
1.57187
1.55288
1.51727
1.47822
1.46042
1.45559
1.45499
1.45975
1.47039
1.47576
1.47448
5.23998
5.20876
5.16886
5.13504
5.10431
5.07066
5.0357
5.00322
4.98026
4.95203
4.92045
4.88411
4.85424
4.83427
4.80479
4.77644
4.74295
4.70685
4.68203
4.65317
4.62788
4.60041
4.56955
4.54659
4.517
4.48699
4.45757
4.42909
4.41136
4.38623
4.35886
4.3354
4.30039
4.28019
4.26105
4.23664
4.21369
4.18397
4.16482
4.14077
4.11218
4.08431
4.05111
4.02786
4.00039
3.97491
3.94964
3.92384
3.90532
3.88103
3.85489
3.81908
3.79876
3.78317
3.76347
3.74222
3.71692
3.68862
3.65376
3.61297
3.59247
3.59398
3.60649
3.63144
3.70371
3.81606
3.939
4.00129
4.02133
4.02495
4.01375
3.98146
3.94651
3.9115
3.87784
3.83442
3.80513
3.78157
3.74986
3.72363
3.69101
3.66179
3.63672
3.60375
3.57794
3.5513
3.5196
3.49855
3.46902
3.4324
3.40782
3.38251
3.3504
3.33374
3.31453
3.28828
3.26644
3.24883
3.22574
3.19612
3.16056
3.12604
3.10528
3.088
3.07562
3.06777
3.05397
3.03353
3.01098
2.98162
2.95266
2.92633
2.8967
2.86018
2.82188
2.80222
2.79615
2.79117
2.78011
2.76304
2.73941
2.71527
2.70477
2.70191
2.69425
2.67535
2.65075
2.62253
2.5805
2.53147
2.50162
2.49155
2.48566
2.48178
2.47502
2.46632
2.45658
2.44845
2.44472
2.44432
2.43907
2.42477
2.39784
2.35713
2.30274
2.26913
2.2577
2.25604
2.26258
2.26708
2.26136
2.25211
2.22964
2.19461
2.1687
2.16294
2.16373
2.17048
2.16841
2.16122
2.14573
2.11252
2.06683
2.03687
2.0212
2.01042
2.00038
1.99498
1.99282
1.9934
2.00198
2.00569
2.00103
1.99143
1.96593
1.92344
1.89415
1.88862
1.88691
1.88359
1.87847
1.87032
1.85253
1.82719
1.81866
1.81806
1.82807
1.85075
1.85684
1.85141
1.83839
1.81101
1.75638
1.69826
1.67264
1.66549
1.66446
1.66679
1.68103
1.70541
1.71646
1.71407
1.71026
1.70516
1.69176
1.66992
1.6497
1.63499
1.62068
1.60209
1.5781
1.56474
1.56331
1.56443
1.57775
1.59966
1.6046
1.60049
1.59062
1.56878
1.52923
1.49182
1.47639
1.47257
1.4724
1.47929
1.49113
1.49459
1.49321
1.49124
5.25258
5.23586
5.1865
5.14568
5.11377
5.08127
5.04107
5.01146
4.98995
4.96324
4.93297
4.89423
4.86904
4.84534
4.81967
4.79549
4.76224
4.73141
4.69867
4.66735
4.63983
4.61411
4.59755
4.57224
4.54163
4.51122
4.47449
4.45443
4.43553
4.4098
4.39176
4.36426
4.33611
4.31391
4.28622
4.26104
4.22918
4.20554
4.18607
4.15756
4.13157
4.09804
4.06903
4.04333
4.01452
3.99251
3.96448
3.94544
3.92239
3.89677
3.8638
3.83623
3.82283
3.80232
3.78117
3.75485
3.72927
3.70144
3.67211
3.6373
3.61352
3.60821
3.60903
3.61552
3.64251
3.71292
3.83653
3.95337
4.00369
4.03347
4.02991
4.00642
3.9725
3.93695
3.8952
3.84815
3.8255
3.7959
3.76645
3.73862
3.70329
3.68026
3.6538
3.6263
3.60525
3.5733
3.5457
3.51909
3.48077
3.45027
3.42752
3.3955
3.37493
3.35921
3.33342
3.30942
3.29149
3.26932
3.24144
3.20953
3.1743
3.15163
3.13403
3.11809
3.10942
3.09737
3.07624
3.05303
3.02419
2.99238
2.96429
2.93649
2.90307
2.86513
2.84341
2.83633
2.82943
2.81741
2.80063
2.77946
2.76077
2.75167
2.74637
2.73239
2.70511
2.67663
2.6481
2.61159
2.56819
2.53577
2.52475
2.51927
2.516
2.51263
2.50708
2.50102
2.49679
2.49363
2.48711
2.47343
2.452
2.42472
2.38283
2.32998
2.29838
2.28744
2.28576
2.29322
2.30066
2.29588
2.286
2.26118
2.22479
2.199
2.19308
2.19354
2.1991
2.19602
2.18886
2.1743
2.14218
2.09414
2.06132
2.046
2.03676
2.02864
2.02398
2.02186
2.02256
2.0304
2.03368
2.02934
2.01994
1.99453
1.95096
1.9188
1.91167
1.91017
1.90756
1.90276
1.8957
1.88094
1.8579
1.84823
1.84719
1.85414
1.87258
1.87701
1.87135
1.85773
1.82786
1.77035
1.71607
1.69382
1.6884
1.68769
1.69184
1.70894
1.7338
1.74337
1.74076
1.73681
1.7303
1.71286
1.68721
1.66437
1.64948
1.63713
1.62276
1.60233
1.5885
1.58681
1.58766
1.59982
1.62077
1.62525
1.62059
1.6094
1.58495
1.54132
1.50542
1.49265
1.48996
1.4905
1.49941
1.51227
1.51428
1.51211
1.51013
1.50748
5.24543
5.23255
5.2052
5.16279
5.12507
5.0891
5.05118
5.02592
5.00151
4.97688
4.9469
4.91579
4.88881
4.85727
4.82842
4.80324
4.78262
4.75685
4.72534
4.69185
4.64953
4.6296
4.62026
4.59783
4.5756
4.54311
4.50957
4.48563
4.45706
4.43452
4.41164
4.38726
4.36728
4.3392
4.31096
4.27683
4.2424
4.22334
4.19703
4.16995
4.1431
4.11173
4.08718
4.05755
4.03343
4.00548
3.98245
3.96353
3.93811
3.91054
3.87758
3.86221
3.84321
3.82024
3.79384
3.76486
3.7411
3.71548
3.69418
3.66649
3.64693
3.63056
3.61653
3.60624
3.60736
3.64298
3.73446
3.8813
3.97405
4.02204
4.03073
4.01835
3.9918
3.96051
3.91166
3.87142
3.8445
3.81011
3.78351
3.74909
3.72215
3.70307
3.67753
3.6581
3.63326
3.5964
3.5661
3.52963
3.4926
3.47063
3.44278
3.41725
3.40408
3.38079
3.3541
3.33557
3.3133
3.28441
3.25781
3.22477
3.19816
3.18196
3.16164
3.1486
3.13716
3.11598
3.09215
3.0662
3.03489
3.00413
2.97582
2.94437
2.90807
2.88493
2.8767
2.86813
2.85582
2.83941
2.82057
2.80626
2.79864
2.79014
2.77006
2.73686
2.70481
2.67666
2.64494
2.60659
2.5725
2.55995
2.55459
2.55263
2.55402
2.55326
2.55088
2.54667
2.5377
2.52001
2.49908
2.47756
2.45136
2.40992
2.3592
2.32844
2.3183
2.31651
2.32478
2.33497
2.33108
2.31988
2.2928
2.25499
2.22827
2.22191
2.22208
2.22734
2.22359
2.2163
2.20263
2.17212
2.12322
2.08729
2.07165
2.064
2.05757
2.05332
2.05122
2.05241
2.06
2.06216
2.05794
2.04871
2.02358
1.97928
1.94423
1.93522
1.93393
1.93228
1.92786
1.92159
1.90925
1.88836
1.87792
1.87639
1.88026
1.89477
1.89767
1.89169
1.87744
1.84564
1.78559
1.73477
1.71558
1.71146
1.71086
1.71698
1.73735
1.76275
1.77031
1.76712
1.76288
1.75483
1.73409
1.70372
1.67804
1.66379
1.65354
1.64214
1.62539
1.61237
1.61045
1.61095
1.6215
1.64102
1.6452
1.64015
1.62796
1.60141
1.55471
1.52019
1.50929
1.50722
1.50895
1.52058
1.53338
1.53419
1.53158
1.52927
1.52652
1.52086
5.23912
5.23323
5.22655
5.19942
5.15554
5.10929
5.06709
5.04188
5.02142
4.99415
4.9696
4.94371
4.91282
4.87883
4.83702
4.80988
4.80088
4.78445
4.76351
4.73249
4.68846
4.65686
4.63355
4.61926
4.60047
4.57268
4.54654
4.51524
4.48372
4.45033
4.41934
4.40453
4.38508
4.35814
4.33033
4.29121
4.26366
4.23572
4.20327
4.17807
4.14924
4.1285
4.10374
4.07785
4.05296
4.02214
4.00412
3.98005
3.95467
3.92289
3.90142
3.88496
3.86072
3.83651
3.80345
3.77827
3.7554
3.73503
3.71749
3.69807
3.68108
3.65546
3.62165
3.59824
3.59757
3.61181
3.666
3.79947
3.91855
3.99691
4.02545
4.02315
4.00967
3.98531
3.93587
3.89803
3.8623
3.82919
3.79873
3.76629
3.75176
3.73221
3.71062
3.69127
3.65458
3.61123
3.57694
3.53732
3.51233
3.49009
3.46205
3.44843
3.42976
3.40078
3.38029
3.35913
3.32638
3.30259
3.27669
3.24678
3.22942
3.20901
3.18694
3.17452
3.15515
3.13011
3.10604
3.07841
3.04747
3.01669
2.98567
2.95161
2.92531
2.9156
2.90548
2.89334
2.8788
2.86327
2.8521
2.84435
2.8328
2.80812
2.7711
2.73648
2.70836
2.68
2.64593
2.61138
2.59695
2.59185
2.591
2.5973
2.60038
2.59706
2.58865
2.57081
2.5459
2.52385
2.5032
2.47817
2.44
2.39235
2.36061
2.35073
2.34889
2.35764
2.36968
2.36616
2.35371
2.3249
2.2848
2.25692
2.24983
2.24928
2.25486
2.25153
2.24387
2.23061
2.20173
2.15292
2.11466
2.09857
2.09234
2.08699
2.08319
2.08132
2.08299
2.09009
2.09096
2.08646
2.07661
2.05169
2.00776
1.9705
1.95971
1.95806
1.95746
1.95376
1.94818
1.9379
1.91864
1.9071
1.90499
1.90665
1.91749
1.91892
1.91278
1.89815
1.86434
1.80231
1.75452
1.73768
1.73426
1.734
1.7424
1.76616
1.79147
1.79697
1.79353
1.78877
1.77897
1.75544
1.72007
1.69198
1.67833
1.67015
1.6618
1.64858
1.63653
1.6344
1.63437
1.64286
1.66072
1.66479
1.65969
1.64708
1.61867
1.56938
1.53568
1.52605
1.52446
1.52743
1.54171
1.55445
1.55428
1.55147
1.54896
1.546
1.54066
1.52406
5.13272
5.24474
5.25433
5.23316
5.18651
5.13547
5.08658
5.04506
5.01196
5.00036
4.98853
4.97256
4.94905
4.91545
4.86832
4.83521
4.81112
4.79929
4.78883
4.76885
4.73975
4.70154
4.66181
4.62528
4.5977
4.58339
4.56733
4.54153
4.51461
4.46933
4.43715
4.41454
4.38812
4.36742
4.33975
4.31017
4.2824
4.2487
4.22023
4.18574
4.16132
4.14462
4.12027
4.10048
4.07044
4.04724
4.02531
3.99808
3.96922
3.93997
3.92451
3.90186
3.87722
3.84888
3.81573
3.79627
3.77491
3.75894
3.74123
3.72725
3.70622
3.67288
3.62435
3.5956
3.59503
3.60578
3.63314
3.71889
3.837
3.93915
4.00924
4.02701
4.02262
4.004
3.96084
3.92285
3.8853
3.85342
3.81579
3.79678
3.78475
3.76379
3.74473
3.71475
3.65836
3.62085
3.58614
3.55446
3.53623
3.51009
3.49254
3.47852
3.45046
3.42483
3.40495
3.37055
3.34311
3.32609
3.29845
3.277
3.25865
3.22989
3.21082
3.19357
3.16828
3.14478
3.12082
3.09309
3.06176
3.02891
2.99638
2.96775
2.95221
2.94187
2.93014
2.91697
2.90514
2.8966
2.88854
2.87486
2.8472
2.80744
2.77034
2.74158
2.71563
2.6848
2.65139
2.63579
2.63081
2.63097
2.6401
2.64441
2.63834
2.6245
2.60021
2.57242
2.54846
2.52822
2.50553
2.47227
2.42924
2.39601
2.38556
2.38334
2.39191
2.40514
2.40198
2.38791
2.35668
2.31389
2.28539
2.27756
2.27587
2.28118
2.27905
2.27122
2.2583
2.23102
2.18393
2.14371
2.12695
2.12178
2.11725
2.11394
2.11244
2.11425
2.12002
2.11977
2.11488
2.10421
2.07869
2.03498
1.99778
1.98544
1.98336
1.98326
1.98071
1.97561
1.96676
1.94859
1.93549
1.93269
1.9328
1.94061
1.94115
1.93478
1.91985
1.88495
1.82155
1.77543
1.7601
1.75722
1.75727
1.76746
1.79474
1.81966
1.82279
1.81928
1.815
1.80422
1.77727
1.73652
1.70697
1.69417
1.68793
1.68195
1.67187
1.66097
1.65846
1.65787
1.6642
1.68042
1.68461
1.67938
1.66678
1.63747
1.58575
1.55179
1.54298
1.54183
1.54608
1.56265
1.57538
1.57448
1.57156
1.56897
1.56607
1.56136
1.54604
1.51341
4.55335
5.01074
5.15223
5.19233
5.20133
5.18085
5.14091
5.08561
5.03397
5.00777
4.99549
4.9967
4.98248
4.95672
4.92126
4.87784
4.83432
4.81234
4.79766
4.78608
4.76636
4.7351
4.69481
4.63862
4.60216
4.59006
4.57218
4.5544
4.53226
4.49727
4.4633
4.42846
4.39588
4.36586
4.34354
4.32594
4.29719
4.26973
4.23962
4.20304
4.18614
4.16411
4.14248
4.11808
4.09064
4.07038
4.04245
4.0155
3.98272
3.96191
3.94321
3.91726
3.89329
3.8594
3.8362
3.8183
3.80006
3.78174
3.76413
3.74738
3.71978
3.68359
3.63375
3.60604
3.6038
3.61026
3.62324
3.66029
3.7465
3.84967
3.96452
4.0157
4.02162
4.01292
3.98257
3.9465
3.91361
3.87737
3.84184
3.83103
3.81475
3.79341
3.76862
3.71333
3.66245
3.63477
3.60121
3.58151
3.56067
3.53844
3.52589
3.50197
3.47012
3.44835
3.41711
3.38268
3.37065
3.35086
3.32518
3.30775
3.279
3.24873
3.23127
3.20747
3.18359
3.16281
3.13923
3.10995
3.07534
3.04084
3.01078
2.98891
2.97741
2.9674
2.95546
2.94485
2.93775
2.93042
2.91645
2.88771
2.84568
2.80544
2.77483
2.7497
2.72187
2.69163
2.67617
2.67121
2.67235
2.68166
2.68414
2.67622
2.65871
2.6296
2.59802
2.57328
2.55341
2.53286
2.50527
2.46817
2.43415
2.4228
2.42014
2.42842
2.44135
2.43779
2.42216
2.38863
2.34264
2.31362
2.30522
2.30308
2.30716
2.30576
2.29828
2.28572
2.25962
2.2149
2.1749
2.15778
2.15328
2.14926
2.14607
2.14468
2.14595
2.14948
2.14775
2.14235
2.13067
2.10484
2.06143
2.02498
2.01217
2.01046
2.011
2.00886
2.00395
1.99613
1.97803
1.96286
1.95928
1.95855
1.96441
1.96418
1.95787
1.94289
1.90712
1.8428
1.79744
1.78315
1.78063
1.78083
1.79178
1.82153
1.8472
1.8488
1.84477
1.84006
1.82872
1.80042
1.7542