/*--------------------------------*- C++ -*----------------------------------*\
  =========                 |
  \\      /  F ield         | OpenFOAM: The Open Source CFD Toolbox
   \\    /   O peration     | Website:  https://openfoam.org
    \\  /    A nd           | Version:  7
     \\/     M anipulation  |
\*---------------------------------------------------------------------------*/
FoamFile
{
    version     2.0;
    format      ascii;
    class       volScalarField;
    location    "3.7";
    object      rho;
}
// * * * * * * * * * * * * * * * * * * * * * * * * * * * * * * * * * * * * * //

dimensions      [1 -3 0 0 0 0 0];

internalField   nonuniform List<scalar> 
16192
(
1.40001
1.40001
1.40001
1.40001
1.40001
1.40001
1.40001
1.40001
1.40001
1.40001
1.40001
1.40004
1.44733
2.66762
3.87342
4.04396
4.03308
3.998
3.95667
3.91791
1.40001
1.40001
1.40001
1.40001
1.40001
1.40001
1.40001
1.40001
1.40001
1.40001
1.40001
1.40001
1.40247
1.86578
3.53513
4.06745
4.05848
4.02435
3.97499
3.9327
1.40001
1.40001
1.40001
1.40001
1.40001
1.40001
1.40001
1.40001
1.40001
1.40001
1.40001
1.40001
1.40008
1.47001
2.79582
3.87238
4.02962
4.01621
3.98436
3.94381
1.40001
1.40001
1.40001
1.40001
1.40001
1.40001
1.40001
1.40001
1.40001
1.40001
1.40001
1.40001
1.40001
1.40403
1.97253
3.60006
4.05462
4.0434
4.01034
3.96296
1.40001
1.40001
1.40001
1.40001
1.40001
1.40001
1.40001
1.40001
1.40001
1.40001
1.40001
1.40001
1.40001
1.40014
1.50396
2.91572
3.87915
4.01702
4.00413
3.9719
1.40001
1.40001
1.40001
1.40001
1.40001
1.40001
1.40001
1.40001
1.40001
1.40001
1.40001
1.40001
1.40001
1.40001
1.40696
2.07767
3.64788
4.042
4.03006
3.99634
1.40001
1.40001
1.40001
1.40001
1.40001
1.40001
1.40001
1.40001
1.40001
1.40001
1.40001
1.40001
1.40001
1.40001
1.40026
1.54246
3.01371
3.9119
4.00581
3.99063
1.40001
1.40001
1.40001
1.40001
1.40001
1.40001
1.40001
1.40001
1.40001
1.40001
1.40001
1.40001
1.40001
1.40001
1.40001
1.41075
2.17544
3.68871
4.02096
4.01267
1.40001
1.40001
1.40001
1.40001
1.40001
1.40001
1.40001
1.40001
1.40001
1.40001
1.40001
1.40001
1.40001
1.40001
1.40001
1.40043
1.58387
3.0737
3.96055
4.00655
1.40001
1.40001
1.40001
1.40001
1.40001
1.40001
1.40001
1.40001
1.40001
1.40001
1.40001
1.40001
1.40001
1.40001
1.40001
1.40002
1.41498
2.24652
3.76886
4.00944
1.40001
1.40001
1.40001
1.40001
1.40001
1.40001
1.40001
1.40001
1.40001
1.40001
1.40001
1.40001
1.40001
1.40001
1.40001
1.40001
1.40059
1.62346
3.18947
3.87045
1.40001
1.40001
1.40001
1.40001
1.40001
1.40001
1.40001
1.40001
1.40001
1.40001
1.40001
1.40001
1.40001
1.40001
1.40001
1.40001
1.40002
1.42167
2.33227
3.70688
1.40001
1.40001
1.40001
1.40001
1.40001
1.40001
1.40001
1.40001
1.40001
1.40001
1.40001
1.40001
1.40001
1.40001
1.40001
1.40001
1.40001
1.40095
1.66697
3.1911
1.40001
1.40001
1.40001
1.40001
1.40001
1.40001
1.40001
1.40001
1.40001
1.40001
1.40001
1.40001
1.40001
1.40001
1.40001
1.40001
1.40001
1.40003
1.42934
2.35544
1.40001
1.40001
1.40001
1.40001
1.40001
1.40001
1.40001
1.40001
1.40001
1.40001
1.40001
1.40001
1.40001
1.40001
1.40001
1.40001
1.40001
1.40001
1.40143
1.67662
1.40001
1.40001
1.40001
1.40001
1.40001
1.40001
1.40001
1.40001
1.40001
1.40001
1.40001
1.40001
1.40001
1.40001
1.40001
1.40001
1.40001
1.40001
1.40004
1.43471
1.40001
1.40001
1.40001
1.40001
1.40001
1.40001
1.40001
1.40001
1.40001
1.40001
1.40001
1.40001
1.40001
1.40001
1.40001
1.40001
1.40001
1.40001
1.40001
1.40206
1.40001
1.40001
1.40001
1.40001
1.40001
1.40001
1.40001
1.40001
1.40001
1.40001
1.40001
1.40001
1.40001
1.40001
1.40001
1.40001
1.40001
1.40001
1.40001
1.40007
1.40001
1.40001
1.40001
1.40001
1.40001
1.40001
1.40001
1.40001
1.40001
1.40001
1.40001
1.40001
1.40001
1.40001
1.40001
1.40001
1.40001
1.40001
1.40001
1.40001
1.40001
1.40001
1.40001
1.40001
1.40001
1.40001
1.40001
1.40001
1.40001
1.40001
1.40001
1.40001
1.40001
1.40001
1.40001
1.40001
1.40001
1.40001
1.40001
1.40001
1.40001
1.40001
1.40001
1.40001
1.40001
1.40001
1.40001
1.40001
1.40001
1.40001
1.40001
1.40001
1.40001
1.40001
1.40001
1.40001
1.40001
1.40001
1.40001
1.40001
1.40001
1.40001
1.40001
1.40001
1.40001
1.40001
1.40001
1.40001
1.40001
1.40001
1.40001
1.40001
1.40001
1.40001
1.40001
1.40001
1.40001
1.40001
1.40001
1.40001
1.40001
1.40001
1.40001
1.40001
1.40001
1.40001
1.40001
1.40001
1.40001
1.40001
1.40001
1.40001
1.40001
1.40001
1.40001
1.40001
1.40001
1.40001
1.40001
1.40001
1.40001
1.40001
1.40001
1.40001
1.40001
1.40001
1.40001
1.40001
1.40001
1.40001
1.40001
1.40001
1.40001
1.40001
1.40001
1.40001
1.40001
1.40001
1.40001
1.40001
1.40001
1.40001
1.40001
1.40001
1.40001
1.40001
1.40001
1.40001
1.40001
1.40001
1.40001
1.40001
1.40001
1.40001
1.40001
1.40001
1.40001
1.40001
1.40001
1.40001
1.40001
1.40001
1.40001
1.40001
1.40001
1.40001
1.40001
1.40001
1.40001
1.40001
1.40001
1.40001
1.40001
1.40001
1.40001
1.40001
1.40001
1.40001
1.40001
1.40001
1.40001
1.40001
1.40001
1.40001
1.40001
1.40001
1.40001
1.40001
1.40001
1.40001
1.40001
1.40001
1.40001
1.40001
1.40001
1.40001
1.40001
1.40001
1.40001
1.40001
1.40001
1.40001
1.40001
1.40001
1.40001
1.40001
1.40001
1.40001
1.40001
1.40001
1.40001
1.40001
1.40001
1.40001
1.40001
1.40001
1.40001
1.40001
1.40001
1.40001
1.40001
1.40001
1.40001
1.40001
1.40001
1.40001
1.40001
1.40001
1.40001
1.40001
1.40001
1.40001
1.40001
1.40001
1.40001
1.40001
1.40001
1.40001
1.40001
1.40001
1.40001
1.40001
1.40001
1.40001
1.40001
1.40001
1.40001
1.40001
1.40001
1.40001
1.40001
1.40001
1.40001
1.40001
1.40001
1.40001
1.40001
1.40001
1.40001
1.40001
1.40001
1.40001
1.40001
1.40001
1.40001
1.40001
1.40001
1.40001
1.40001
1.40001
1.40001
1.40001
1.40001
1.40001
1.40001
1.40001
1.40001
1.40001
1.40001
1.40001
1.40001
1.40001
1.40001
1.40001
1.40001
1.40001
1.40001
1.40001
1.40001
1.40001
1.40001
1.40001
1.40001
1.40001
1.40001
1.40001
1.40001
1.40001
1.40001
1.40001
1.40001
1.40001
1.40001
1.40001
1.40001
1.40001
1.40001
1.40001
1.40001
1.40001
1.40001
1.40001
1.40001
1.40001
1.40001
1.40001
1.40001
1.40001
1.40001
1.40001
1.40001
1.40001
1.40001
1.40001
1.40001
1.40001
1.40001
1.40001
1.40001
1.40001
1.40001
1.40001
1.40001
1.40001
1.40001
1.40001
1.40001
1.40001
1.40001
1.40001
1.40001
1.40001
1.40001
1.40001
1.40001
1.40001
1.40001
1.40001
1.40001
1.40001
1.40001
1.40001
1.40001
1.40001
1.40001
1.40001
1.40001
1.40001
1.40001
1.40001
1.40001
1.40001
1.40001
1.40001
1.40001
1.40001
1.40001
1.40001
1.40001
1.40001
1.40001
1.40001
1.40001
1.40001
1.40001
1.40001
1.40001
1.40001
1.40001
1.40001
1.40001
1.40001
1.40001
1.40001
1.40001
1.40001
1.40001
1.40001
1.40001
1.40001
1.40001
1.40001
1.40001
1.40001
1.40001
1.40001
1.40001
1.40001
1.40001
1.40001
1.40001
1.40001
1.40001
1.40001
1.40001
1.40001
1.40001
1.40001
1.40001
1.40001
1.40001
1.40001
1.40001
1.40001
1.40001
1.40001
1.40001
1.40001
1.40001
1.40001
1.40001
1.40001
1.40001
1.40001
1.40001
1.40001
1.40001
1.40001
1.40001
1.40001
1.40001
1.40001
1.40001
1.40001
1.40001
1.40001
1.40001
1.40001
1.40001
1.40001
1.40001
1.40001
1.40001
1.40001
1.40001
1.40001
1.40001
1.40001
1.40001
1.40001
1.40001
1.40001
1.40001
1.40001
1.40001
1.40001
1.40001
1.40001
1.40001
1.40001
1.40001
1.40001
1.40001
1.40001
1.40001
1.40001
1.40001
1.40001
1.40001
1.40001
1.40001
1.40001
1.40001
1.40001
1.40001
1.40001
1.40001
1.40001
1.40001
1.40001
1.40001
1.40001
1.40001
1.40001
1.40001
1.40001
1.40001
1.40001
1.40001
1.40001
1.40001
1.40001
1.40001
1.40001
1.40001
1.40001
1.40001
1.40001
1.40001
1.40001
1.40001
1.40001
1.40001
1.40001
1.40001
1.40001
1.40001
1.40001
1.40001
1.40001
1.40001
1.40001
1.40001
1.40001
1.40001
1.40001
1.40001
1.40001
1.40001
1.40001
1.40001
1.40001
1.40001
1.40001
1.40001
1.40001
1.40001
1.40001
1.40001
1.40001
1.40001
1.40001
1.40001
1.40001
1.40001
1.40001
1.40001
1.40001
1.40001
1.40001
1.40001
1.40001
1.40001
1.40001
1.40001
1.40001
1.40001
1.40001
1.40001
1.40001
1.40001
1.40001
1.40001
1.40001
1.40001
1.40001
1.40001
1.40001
1.40001
1.40001
1.40001
1.40001
1.40001
1.40001
1.40001
1.40001
1.40001
1.40001
1.40001
1.40001
1.40001
1.40001
1.40001
1.40001
1.40001
1.40001
1.40001
1.40001
1.40001
1.40001
1.40001
1.40001
1.40001
1.40001
1.40001
1.40001
1.40001
1.40001
1.40001
1.40001
1.40001
1.40001
1.40001
1.40001
1.40001
1.40001
1.40001
1.40001
1.40001
1.40001
1.40001
1.40001
1.40001
1.40001
1.40001
1.40001
1.40001
1.40001
1.40001
1.40001
1.40001
1.40001
1.40001
1.40001
1.40001
1.40001
1.40001
1.40001
1.40001
1.40001
1.40001
1.40001
1.40001
1.40001
1.40001
1.40001
1.40001
1.40001
1.40001
1.40001
1.40001
1.40001
1.40001
1.40001
1.40001
1.40001
1.40001
1.40001
1.40001
1.40001
1.40001
1.40001
1.40001
1.40001
1.40001
1.40001
1.40001
1.40001
1.40001
1.40001
1.40001
1.40001
1.40001
1.40001
1.40001
1.40001
1.40001
1.40001
1.40001
1.40001
1.40001
1.40001
1.40001
1.40001
1.40001
1.40001
1.40001
1.40001
1.40001
1.40001
1.40001
1.40001
1.40001
1.40001
1.40001
1.40001
1.40001
1.40001
1.40001
1.40001
1.40001
1.40001
1.40001
1.40001
1.40001
1.40001
1.40001
1.40001
1.40001
1.40001
1.40001
1.40001
1.40001
1.40001
1.40001
1.40001
1.40001
1.40001
1.40001
1.40001
1.40001
1.40001
1.40001
1.40001
1.40001
1.40001
1.40001
1.40001
1.40001
1.40001
1.40001
1.40001
1.40001
1.40001
1.40001
1.40001
1.40001
1.40001
1.40001
1.40001
1.40001
1.40001
1.40001
1.40001
1.40001
1.40001
1.40001
1.40001
1.40001
1.40001
1.40001
1.40001
1.40001
1.40001
1.40001
1.40001
1.40001
1.40001
1.40001
1.40001
1.40001
1.40001
1.40001
1.40001
1.40001
1.40001
1.40001
1.40001
1.40001
1.40001
1.40001
1.40001
1.40001
1.40001
1.40001
1.40001
1.40001
1.40001
1.40001
1.40001
1.40001
1.40001
1.40001
1.40001
1.40001
1.40001
1.40001
1.40001
1.40001
1.40001
1.40001
1.40001
1.40001
1.40001
1.40001
1.40001
1.40001
1.40001
1.40001
1.40001
1.40001
1.40001
1.40001
1.40001
1.40001
1.40001
1.40001
1.40001
1.40001
1.40001
1.40001
1.40001
1.40001
1.40001
1.40001
1.40001
1.40001
1.40001
1.40001
1.40001
1.40001
1.40001
1.40001
1.40001
1.40001
1.40001
1.40001
1.40001
1.40001
1.40001
1.40001
1.40001
1.40001
1.40001
1.40001
1.40001
1.40001
1.40001
1.40001
1.40001
1.40001
1.40001
1.40001
1.40001
1.40001
1.40001
1.40001
1.40001
1.40001
1.40001
1.40001
1.40001
1.40001
1.40001
1.40001
1.40001
1.40001
1.40001
1.40001
1.40001
1.40001
1.40001
1.40001
1.40001
1.40001
1.40001
1.40001
1.40001
1.40001
1.40001
1.40001
1.40001
1.40001
1.40001
1.40001
1.40001
1.40001
1.40001
1.40001
1.40001
1.40001
1.40001
1.40001
1.40001
1.40001
1.40001
1.40001
1.40001
1.40001
1.40001
1.40001
1.40001
1.40001
1.40001
1.40001
1.40001
1.40001
1.40001
1.40001
1.40001
1.40001
1.40001
1.40001
1.40001
1.40001
1.40001
1.40001
1.40001
1.40001
1.40001
1.40001
1.40001
1.40001
1.40001
1.40001
1.40001
1.40001
1.40001
1.40001
1.40001
1.40001
1.40001
1.40001
1.40001
1.40001
1.40001
1.40001
1.40001
1.40001
1.40001
1.40001
1.40001
1.40001
1.40001
1.40001
1.40001
1.40001
1.40001
1.40001
1.40001
1.40001
1.40001
1.40001
1.40001
1.40001
1.40001
1.40001
1.40001
1.40001
1.40001
1.40001
1.40001
1.40001
1.40001
1.40001
1.40001
1.40001
1.40001
1.40001
1.40001
1.40001
1.40001
1.40001
1.40001
1.40001
1.40001
1.40001
1.40001
1.40001
1.40001
1.40001
1.40001
1.40001
1.40001
1.40001
1.40001
1.40001
1.40001
1.40001
1.40001
2.57441
2.56445
2.55415
2.53899
2.52466
2.5044
2.47792
2.4671
2.45839
2.44611
2.43409
2.42072
2.40434
2.38637
2.36925
2.35689
2.34771
2.33276
2.30741
2.28048
2.26605
2.26268
2.26372
2.26728
2.26415
2.25801
2.24745
2.22622
2.19783
2.17376
2.16009
2.15042
2.13496
2.11058
2.09064
2.08603
2.08608
2.09427
2.09805
2.09319
2.08361
2.06101
2.02839
2.00819
2.00438
2.00286
1.99981
1.99431
1.98111
1.95777
1.94067
1.93737
1.93853
1.94428
1.94211
1.93428
1.91679
1.88937
1.86839
1.86126
1.85767
1.85221
1.8415
1.82437
1.81642
1.81516
1.81673
1.81713
1.81322
1.80757
1.79458
1.77184
1.75525
1.75227
1.75053
1.74673
1.74048
1.7281
1.71171
1.70583
1.70424
1.70354
1.7018
1.699
1.69513
1.68521
1.66182
1.62887
1.61174
1.60875
1.60761
1.61064
1.62471
1.63774
1.63812
1.63555
1.63222
1.62402
1.60333
1.56699
1.54067
1.53386
1.53326
1.53729
1.54713
1.54845
1.54579
1.54339
1.54038
1.53464
1.52
1.50353
1.49947
1.49785
1.49624
1.49439
1.49196
1.48748
1.47582
1.46013
1.45498
1.45369
1.45155
1.44853
1.44358
1.43594
1.43245
1.43129
1.42944
1.42726
1.42493
1.42242
1.41915
1.41206
3.88975
3.87106
3.85149
3.8343
3.81605
3.79793
3.77732
3.76001
3.74424
3.72516
3.70693
3.68564
3.66934
3.65254
3.63248
3.61477
3.59224
3.57674
3.56224
3.5439
3.52785
3.50623
3.49064
3.4764
3.45718
3.44103
3.42024
3.40296
3.38924
3.37036
3.35527
3.33555
3.32007
3.308
3.29174
3.27523
3.25569
3.24025
3.22306
3.20488
3.18522
3.16874
3.15062
3.1338
3.11276
3.09938
3.08724
3.07325
3.05917
3.04379
3.0327
3.01721
2.99193
2.96491
2.93935
2.91926
2.91912
2.93088
2.9582
3.02237
3.11524
3.16678
3.18032
3.17676
3.16264
3.13916
3.11407
3.08852
3.05779
3.04182
3.02721
3.0069
2.98899
2.96677
2.94635
2.9315
2.91166
2.8938
2.87555
2.85941
2.84521
2.82613
2.80785
2.78885
2.77081
2.76059
2.74762
2.73115
2.71722
2.70047
2.67986
2.66357
2.64683
2.63186
2.61964
2.60344
2.59253
2.58329
2.56838
2.55367
2.53652
2.5106
2.49572
2.48683
2.47427
2.46249
2.45046
2.43406
2.41616
2.40006
2.38808
2.37791
2.36086
2.33498
2.30984
2.29674
2.29349
2.29501
2.298
2.29404
2.28716
2.27457
2.25164
2.22197
2.1974
2.18416
2.1759
2.16179
2.13829
2.11867
2.11376
2.11357
2.12117
2.12478
2.11997
2.11079
2.08895
2.05586
2.03294
2.02817
2.02663
2.02385
2.01862
2.00628
1.98325
1.96522
1.96148
1.96242
1.96819
1.96605
1.95778
1.93945
1.91038
1.88766
1.88017
1.8774
1.87265
1.86349
1.84788
1.83887
1.83728
1.83802
1.83798
1.83402
1.82873
1.81685
1.7939
1.7745
1.77039
1.76871
1.76531
1.75975
1.74898
1.73265
1.72547
1.72378
1.72305
1.72123
1.71825
1.7144
1.70502
1.68258
1.64851
1.62933
1.62585
1.62456
1.62737
1.64215
1.65753
1.65852
1.65596
1.65272
1.64378
1.62128
1.58275
1.55596
1.54913
1.5484
1.55208
1.56288
1.56559
1.56294
1.56045
1.55748
1.55261
1.54
1.52176
1.51523
1.51353
1.5114
1.50926
1.50672
1.50289
1.49319
1.4771
1.46946
1.46818
1.46629
1.46361
1.45965
1.45254
1.447
1.44563
1.4441
1.44202
1.43958
1.43684
1.43347
1.42743
1.41297
3.90334
3.88366
3.86523
3.84789
3.8298
3.80966
3.78892
3.77391
3.75644
3.73912
3.71902
3.69957
3.68404
3.6644
3.64696
3.62683
3.60678
3.59268
3.5745
3.558
3.5388
3.51958
3.50678
3.48873
3.47162
3.45366
3.43328
3.42042
3.40302
3.38633
3.36965
3.3497
3.33809
3.32228
3.30614
3.28582
3.26888
3.25254
3.23509
3.21473
3.1983
3.18154
3.16516
3.14776
3.13112
3.12188
3.10758
3.09418
3.07698
3.0624
3.04847
3.02996
3.00676
2.97957
2.95573
2.93239
2.92875
2.9343
2.95339
2.99278
3.07129
3.14762
3.18931
3.19059
3.18199
3.1627
3.1401
3.11128
3.08024
3.0645
3.04554
3.02554
3.0057
2.98258
2.96609
2.94652
2.92589
2.90857
2.88923
2.87596
2.85964
2.84034
2.82148
2.79967
2.78658
2.77445
2.75836
2.74391
2.72926
2.71161
2.69321
2.67465
2.65769
2.64464
2.62907
2.61733
2.60968
2.59632
2.58142
2.56707
2.54392
2.52429
2.5152
2.50238
2.48945
2.47778
2.46328
2.44673
2.43134
2.41927
2.40837
2.38947
2.36268
2.33823
2.32621
2.32318
2.32522
2.32772
2.3235
2.31587
2.30157
2.27787
2.24743
2.22205
2.20877
2.20122
2.18779
2.16518
2.1465
2.14159
2.14155
2.14885
2.15159
2.14668
2.13776
2.11653
2.08307
2.05804
2.05237
2.05067
2.04813
2.04307
2.03149
2.0089
1.98992
1.98565
1.9862
1.99192
1.99012
1.98178
1.96284
1.9323
1.90811
1.90047
1.89805
1.89369
1.88572
1.87156
1.86156
1.85955
1.85978
1.85934
1.85543
1.85031
1.83912
1.81656
1.79488
1.78887
1.7872
1.78413
1.77914
1.76999
1.75437
1.74552
1.74354
1.74266
1.74102
1.7379
1.7339
1.72473
1.70302
1.66842
1.64742
1.64319
1.64194
1.64457
1.65988
1.67782
1.67992
1.67726
1.67386
1.664
1.63954
1.59841
1.57099
1.56425
1.56367
1.56737
1.57868
1.58269
1.58034
1.57792
1.57504
1.57075
1.56046
1.54138
1.53098
1.52932
1.52708
1.52446
1.5217
1.518
1.50983
1.49456
1.48465
1.48308
1.48127
1.47881
1.47562
1.46995
1.46236
1.45984
1.45837
1.45654
1.45427
1.45153
1.44816
1.44284
1.43017
1.41044
3.91403
3.89489
3.87723
3.85963
3.84145
3.82044
3.80424
3.78793
3.76968
3.75121
3.73098
3.71583
3.69767
3.67841
3.66
3.63839
3.62392
3.6071
3.58893
3.57107
3.54949
3.53651
3.52088
3.50229
3.48605
3.46484
3.45054
3.43571
3.41721
3.4022
3.38121
3.36681
3.35271
3.33531
3.31659
3.29651
3.28135
3.26427
3.24552
3.22682
3.21225
3.19568
3.18111
3.16333
3.15294
3.14109
3.12612
3.1104
3.09082
3.0766
3.05928
3.03982
3.01928
2.99454
2.97771
2.95964
2.94489
2.94668
2.95824
2.97921
3.03433
3.1084
3.17509
3.20071
3.19635
3.18293
3.16296
3.1343
3.1074
3.08872
3.06658
3.04584
3.02189
3.0019
2.98382
2.96075
2.94256
2.92265
2.90655
2.89368
2.87501
2.85632
2.83382
2.81459
2.8028
2.78697
2.77128
2.75642
2.74131
2.72447
2.7051
2.68596
2.67077
2.65384
2.64022
2.63286
2.6214
2.60645
2.59416
2.57623
2.5545
2.54363
2.53082
2.51717
2.50461
2.48993
2.47592
2.46234
2.45004
2.43817
2.41814
2.39137
2.36681
2.35538
2.35235
2.35486
2.35651
2.35161
2.34285
2.32688
2.3035
2.27446
2.24895
2.2346
2.22677
2.21325
2.19144
2.17387
2.16912
2.16923
2.17662
2.17872
2.17363
2.16466
2.14371
2.11001
2.08348
2.07655
2.07475
2.07255
2.0675
2.05623
2.03421
2.01491
2.01017
2.01039
2.01603
2.01454
2.00613
1.98669
1.95489
1.92962
1.92167
1.91928
1.91536
1.90846
1.89557
1.88473
1.88214
1.88188
1.88131
1.87751
1.87253
1.86166
1.8389
1.81537
1.80764
1.80605
1.80328
1.79869
1.79102
1.77666
1.76598
1.76353
1.76238
1.76086
1.75773
1.75367
1.7446
1.7235
1.68893
1.66615
1.66093
1.65977
1.66244
1.67836
1.69866
1.7021
1.69924
1.69513
1.68386
1.65779
1.61449
1.58644
1.57941
1.57889
1.58256
1.59469
1.60007
1.59789
1.59563
1.59297
1.58918
1.581
1.56248
1.5473
1.54494
1.54289
1.54017
1.53713
1.53328
1.52618
1.51199
1.50021
1.49821
1.49685
1.4946
1.49178
1.48731
1.47917
1.47402
1.47241
1.47073
1.46873
1.46621
1.46299
1.45829
1.44771
1.4285
1.41309
3.92888
3.90934
3.89176
3.87465
3.85499
3.83509
3.81916
3.80134
3.78396
3.76304
3.7456
3.72959
3.71027
3.6934
3.67195
3.65429
3.63896
3.6204
3.604
3.58269
3.56599
3.55244
3.5336
3.51786
3.49835
3.48023
3.46692
3.44832
3.43247
3.4136
3.39442
3.38119
3.36353
3.34636
3.32482
3.30877
3.2929
3.2761
3.25653
3.24234
3.22751
3.21317
3.19679
3.18215
3.17178
3.1562
3.14109
3.12118
3.10356
3.08845
3.06908
3.05113
3.03172
3.01457
3.0053
2.99102
2.96979
2.9636
2.96934
2.97997
3.00486
3.06081
3.13647
3.19439
3.20411
3.1958
3.18265
3.16025
3.13689
3.11469
3.09086
3.06568
3.03939
3.02177
2.99976
2.97825
2.96018
2.93873
2.92612
2.91025
2.89104
2.87125
2.84672
2.83282
2.81803
2.80133
2.78536
2.7697
2.75475
2.73652
2.7165
2.69938
2.68117
2.66453
2.65611
2.6457
2.63087
2.61892
2.60486
2.58419
2.57114
2.55862
2.54456
2.53231
2.51638
2.50291
2.49155
2.47863
2.4649
2.44544
2.42035
2.39592
2.38436
2.3813
2.38356
2.38458
2.37901
2.36833
2.35063
2.32718
2.30028
2.27655
2.26138
2.25251
2.23857
2.2178
2.20151
2.19684
2.19698
2.20414
2.20566
2.20041
2.19137
2.17062
2.13702
2.10935
2.10103
2.09917
2.09705
2.09198
2.08053
2.05893
2.03995
2.03503
2.03512
2.04055
2.03926
2.0308
2.01099
1.97818
1.95194
1.94354
1.94121
1.93761
1.93154
1.92008
1.90838
1.90497
1.90426
1.90386
1.90029
1.89538
1.88464
1.86186
1.83649
1.82661
1.82499
1.82268
1.81845
1.81191
1.79913
1.78689
1.78374
1.78236
1.78085
1.77773
1.77358
1.76462
1.74393
1.70932
1.68515
1.6792
1.67817
1.68111
1.69801
1.72022
1.72479
1.72187
1.71698
1.70387
1.67565
1.63067
1.60293
1.59557
1.59479
1.5977
1.61022
1.6178
1.61581
1.61344
1.61099
1.60757
1.60114
1.58428
1.56491
1.56029
1.55857
1.55597
1.55284
1.5489
1.54234
1.52936
1.51662
1.51383
1.51247
1.51071
1.50845
1.50497
1.49719
1.48871
1.48633
1.48468
1.48285
1.48064
1.47777
1.47366
1.46522
1.44745
1.42898
1.42473
3.94159
3.92247
3.90356
3.88483
3.86535
3.84901
3.83184
3.81369
3.79371
3.77437
3.76017
3.7422
3.72463
3.70493
3.68508
3.67137
3.65351
3.63607
3.61658
3.59669
3.58393
3.56621
3.54856
3.53101
3.51034
3.49688
3.47981
3.46144
3.44418
3.42205
3.40817
3.39203
3.37437
3.35498
3.33562
3.3217
3.30532
3.28836
3.27114
3.25928
3.24514
3.23122
3.21329
3.20102
3.18662
3.16975
3.1522
3.13149
3.11781
3.10078
3.08232
3.066
3.04844
3.04063
3.03255
3.01809
2.99811
2.98265
2.9804
2.9804
2.98619
3.01544
3.07747
3.16265
3.19314
3.20505
3.20178
3.1867
3.16465
3.14091
3.11589
3.08448
3.05997
3.04113
3.01687
2.99901
2.97777
2.95981
2.94669
2.92733
2.90805
2.88361
2.8634
2.85038
2.8334
2.81754
2.80071
2.78614
2.76924
2.74897
2.72991
2.71074
2.69081
2.68074
2.67113
2.657
2.64484
2.63254
2.61406
2.59847
2.58512
2.57034
2.55805
2.54254
2.52792
2.5183
2.50624
2.49185
2.47312
2.44914
2.42505
2.41326
2.40941
2.41075
2.41095
2.40503
2.39255
2.37394
2.35071
2.32557
2.3033
2.28746
2.2772
2.26302
2.24412
2.22961
2.22513
2.22528
2.2316
2.23242
2.22702
2.21771
2.19703
2.16349
2.13494
2.12567
2.12378
2.12167
2.11644
2.10459
2.0834
2.06524
2.06032
2.06056
2.06562
2.06397
2.05526
2.03503
2.00168
1.97526
1.96654
1.96401
1.96045
1.9549
1.94486
1.93265
1.92827
1.92689
1.92669
1.92356
1.91871
1.90794
1.88483
1.85769
1.84611
1.8443
1.84235
1.83848
1.83272
1.82152
1.80812
1.80394
1.80242
1.80105
1.79798
1.79388
1.78528
1.76481
1.73005
1.70474
1.69804
1.69706
1.70068
1.71908
1.74259
1.74767
1.7445
1.73829
1.72326
1.69307
1.64703
1.62003
1.61279
1.61185
1.61398
1.62563
1.63527
1.63395
1.63148
1.62909
1.6259
1.62051
1.60611
1.58457
1.57548
1.57382
1.57146
1.56855
1.56479
1.55866
1.5467
1.53359
1.53028
1.52929
1.52766
1.52546
1.52262
1.516
1.50468
1.50021
1.4986
1.49678
1.49474
1.49227
1.48882
1.48244
1.46687
1.44656
1.43904
1.43822
3.96035
3.93803
3.91711
3.8963
3.8781
3.86251
3.84573
3.82891
3.80763
3.79031
3.77381
3.75643
3.74004
3.71843
3.7022
3.68581
3.66803
3.65138
3.62965
3.61448
3.59843
3.57897
3.56302
3.5417
3.52564
3.51046
3.4909
3.47436
3.45227
3.43454
3.42004
3.40178
3.3852
3.36424
3.35092
3.33591
3.32052
3.30234
3.28903
3.27721
3.26403
3.24746
3.23108
3.21767
3.20013
3.18295
3.16173
3.14541
3.13239
3.11446
3.09964
3.08314
3.07186
3.06603
3.05446
3.0405
3.02097
3.00368
2.99126
2.98166
2.97581
2.98679
3.02451
3.10779
3.16938
3.20105
3.2107
3.20412
3.1874
3.16631
3.14022
3.10604
3.08395
3.06097
3.03816
3.01948
2.99653
2.98342
2.96702
2.94674
2.92558
2.89842
2.8831
2.8667
2.84995
2.83323
2.81848
2.80354
2.78422
2.76408
2.74354
2.71965
2.70624
2.69746
2.68428
2.67224
2.66164
2.64635
2.62915
2.61273
2.59574
2.5818
2.56686
2.55009
2.54154
2.53125
2.51763
2.50126
2.47917
2.45495
2.44319
2.43833
2.43728
2.43478
2.42832
2.41503
2.3966
2.37463
2.35158
2.33024
2.31358
2.30124
2.28631
2.26931
2.25732
2.25315
2.25337
2.25859
2.25861
2.25319
2.24365
2.22315
2.18951
2.16033
2.1505
2.14828
2.14602
2.14064
2.12843
2.10765
2.09098
2.08629
2.0869
2.09153
2.08891
2.0794
2.05823
2.02457
1.99881
1.99018
1.98757
1.98401
1.97864
1.96952
1.9573
1.95201
1.95006
1.94968
1.94706
1.94227
1.93144
1.90805
1.87933
1.86588
1.86383
1.8625
1.85895
1.85368
1.84389
1.8298
1.82415
1.82237
1.82132
1.81854
1.81449
1.80629
1.78631
1.75147
1.7249
1.71764
1.71667
1.72108
1.74134
1.76565
1.77044
1.7668
1.7592
1.74236
1.70956
1.66294
1.63748
1.63065
1.62972
1.63161
1.6419
1.65222
1.65191
1.64957
1.64726
1.64419
1.63939
1.62735
1.60541
1.59098
1.58889
1.58672
1.58388
1.58041
1.57501
1.56438
1.55127
1.54726
1.54638
1.54551
1.54364
1.54104
1.53471
1.5215
1.51409
1.51239
1.5108
1.50881
1.50654
1.50368
1.49888
1.4862
1.46554
1.45396
1.45274
1.45257
3.96877
3.95014
3.92947
3.90885
3.89357
3.87751
3.86033
3.84094
3.82232
3.80634
3.78771
3.76979
3.74943
3.73253
3.71786
3.6989
3.68088
3.66006
3.64323
3.62954
3.60993
3.59265
3.57216
3.55236
3.53909
3.52082
3.50371
3.48444
3.46334
3.44947
3.43134
3.41465
3.39535
3.37936
3.36799
3.35269
3.33765
3.31953
3.30847
3.29555
3.28078
3.26172
3.24794
3.23273
3.2149
3.19591
3.17459
3.16209
3.14667
3.13092
3.1172
3.10218
3.09534
3.08548
3.07179
3.05727
3.03801
3.02132
3.00206
2.98201
2.9722
2.97542
2.99418
3.05301
3.13293
3.18539
3.21552
3.21483
3.20549
3.18998
3.1654
3.13318
3.10973
3.08326
3.06213
3.03806
3.01928
3.00746
2.98798
2.96846
2.9434
2.91981
2.90366
2.88456
2.86677
2.84954
2.83672
2.81999
2.80048
2.78048
2.75447
2.73528
2.72584
2.71282
2.7004
2.69074
2.67893
2.66337
2.64458
2.62457
2.60762
2.59258
2.57278
2.56192
2.55386
2.54111
2.52699
2.50871
2.48617
2.47491
2.46914
2.46323
2.45774
2.44901
2.4359
2.41917
2.399
2.37728
2.35677
2.33982
2.32571
2.31011
2.29434
2.2847
2.28093
2.28098
2.284
2.28325
2.27806
2.26856
2.24852
2.2152
2.18578
2.17511
2.17254
2.16981
2.16403
2.15185
2.13199
2.11682
2.11269
2.11387
2.11807
2.11429
2.10318
2.08056
2.04633
2.02197
2.01389
2.01137
2.00774
2.00228
1.99387
1.98204
1.97595
1.97361
1.97302
1.97075
1.96594
1.95495
1.9314
1.90149
1.88634
1.88389
1.88279
1.87967
1.87489
1.86628
1.852
1.84456
1.8425
1.84148
1.83919
1.8354
1.82755
1.80815
1.77371
1.74576
1.73775
1.73691
1.74225
1.7645
1.78878
1.79255
1.78847
1.77955
1.76088
1.72508
1.67874
1.65561
1.64931
1.64845
1.6505
1.65946
1.66898
1.66951
1.66737
1.66528
1.6624
1.65813
1.64798
1.62675
1.60761
1.60394
1.60196
1.59922
1.59587
1.59109
1.58206
1.5695
1.5647
1.56364
1.5629
1.56116
1.55874
1.55251
1.53817
1.52773
1.52579
1.52477
1.52317
1.52097
1.51845
1.51473
1.50499
1.48538
1.46965
1.46746
1.46686
1.46865
3.99204
3.97282
3.94956
3.92836
3.91291
3.89544
3.87579
3.85401
3.83721
3.82024
3.80349
3.78369
3.76238
3.74697
3.72881
3.71108
3.6918
3.67071
3.65744
3.64014
3.62189
3.60487
3.58213
3.5669
3.5502
3.53205
3.516
3.49504
3.48109
3.46489
3.44703
3.43042
3.41003
3.39917
3.38531
3.37171
3.35523
3.34042
3.32815
3.31301
3.29385
3.27463
3.26163
3.24563
3.22918
3.20896
3.19236
3.17901
3.16199
3.149
3.13314
3.12168
3.11351
3.09925
3.08533
3.06872
3.05262
3.0348
3.01136
2.98393
2.97247
2.97457
2.98327
3.01591
3.08725
3.14962
3.20633
3.2245
3.22086
3.21196
3.19065
3.16005
3.13374
3.10808
3.08575
3.05877
3.0452
3.03068
3.01024
2.99007
2.96306
2.94426
2.9246
2.90515
2.88438
2.86852
2.85451
2.83619
2.81771
2.79429
2.7699
2.75845
2.74485
2.73093
2.71983
2.70842
2.69588
2.67838
2.65692
2.63654
2.62056
2.59989
2.58421
2.57685
2.56464
2.55182
2.53809
2.51768
2.50642
2.50035
2.4905
2.4805
2.46856
2.456
2.44136
2.42317
2.40276
2.38268
2.36524
2.34966
2.33375
2.31966
2.31199
2.309
2.30879
2.30882
2.30641
2.30124
2.29185
2.27251
2.24037
2.21077
2.19922
2.19631
2.19286
2.18651
2.17434
2.15636
2.14311
2.13937
2.14106
2.1445
2.13974
2.12705
2.10258
2.06734
2.0445
2.0371
2.035
2.03145
2.02575
2.01755
2.00639
2.00001
1.99745
1.99668
1.9947
1.98982
1.97835
1.9542
1.9233
1.9073
1.90449
1.90363
1.90095
1.89642
1.88872
1.87468
1.86529
1.86283
1.86178
1.85985
1.85628
1.84889
1.83013
1.79613
1.76719
1.75844
1.75772
1.76377
1.7876
1.81162
1.8141
1.80928
1.79886
1.77847
1.73967
1.69486
1.67441
1.66888
1.66814
1.67079
1.67887
1.68579
1.68681
1.685
1.68305
1.68042
1.67665
1.66801
1.64824
1.62567
1.619
1.61729
1.61468
1.6115
1.60722
1.59953
1.58806
1.58249
1.5812
1.58012
1.5783
1.57567
1.56936
1.55449
1.54118
1.53855
1.5382
1.538
1.536
1.53364
1.53044
1.52272
1.50492
1.4863
1.48222
1.48134
1.48239
1.48388
3.99888
3.98324
3.95918
3.93884
3.92039
3.90242
3.88386
3.86609
3.84872
3.82946
3.81005
3.78916
3.7746
3.7593
3.74075
3.72282
3.7
3.6838
3.66843
3.64941
3.63422
3.61419
3.59716
3.5816
3.56245
3.54574
3.52518
3.51059
3.49949
3.48228
3.46778
3.44796
3.43258
3.4198
3.40389
3.38892
3.37086
3.35909
3.3449
3.32796
3.30564
3.28829
3.27359
3.25706
3.24043
3.22217
3.2104
3.19518
3.18081
3.16633
3.14869
3.13883
3.1254
3.10943
3.09419
3.07837
3.06431
3.04482
3.02119
2.99168
2.97862
2.97842
2.984
2.99735
3.04253
3.10216
3.17405
3.22254
3.2286
3.22512
3.20899
3.18197
3.15569
3.13301
3.10759
3.08361
3.07188
3.05345
3.03339
3.00938
2.98435
2.96709
2.94629
2.92646
2.90465
2.89022
2.87352
2.85486
2.83414
2.80789
2.79367
2.78035
2.76482
2.75272
2.73837
2.72621
2.71108
2.68997
2.66744
2.64949
2.63014
2.60992
2.60178
2.59134
2.5773
2.56706
2.55328
2.53982
2.53103
2.51749
2.50322
2.48816
2.47526
2.46295
2.44687
2.42802
2.40897
2.39118
2.37389
2.35716
2.3445
2.338
2.33569
2.33549
2.33348
2.32926
2.32343
2.31415
2.29564
2.26429
2.23382
2.22148
2.21862
2.2152
2.20823
2.19654
2.18033
2.16946
2.16646
2.16873
2.17078
2.16472
2.1504
2.12403
2.08799
2.06657
2.05967
2.05793
2.05477
2.04901
2.04079
2.03036
2.02419
2.02153
2.02081
2.01884
2.01364
2.00126
1.97638
1.94496
1.92852
1.92539
1.92465
1.92251
1.91822
1.91148
1.898
1.88654
1.88337
1.88214
1.8806
1.87712
1.87003
1.85211
1.81913
1.78931
1.7795
1.77887
1.78557
1.81028
1.83339
1.83492
1.82939
1.8176
1.7951
1.75309
1.71069
1.69316
1.68889
1.6886
1.69268
1.70028
1.70397
1.70382
1.70248
1.70071
1.69818
1.69473
1.68732
1.66931
1.64464
1.6341
1.63256
1.63035
1.62733
1.62348
1.61702
1.60675
1.60063
1.59908
1.59767
1.59564
1.59281
1.58642
1.57131
1.55547
1.55107
1.5503
1.55228
1.55226
1.54985
1.54681
1.54007
1.52369
1.50364
1.49687
1.49592
1.49625
1.49796
1.49686
4.00859
4.00024
3.98047
3.9539
3.93118
3.91093
3.89438
3.88011
3.8618
3.84202
3.81796
3.79813
3.7862
3.77111
3.7563
3.7371
3.71704
3.69969
3.6793
3.6616
3.64389
3.62805
3.61541
3.59731
3.58017
3.56045
3.54084
3.53081
3.51644
3.50255
3.48866
3.47081
3.45651
3.43857
3.42187
3.4015
3.38448
3.37263
3.3574
3.33954
3.31853
3.3033
3.28615
3.26894
3.24977
3.23654
3.22603
3.21139
3.19942
3.18124
3.16556
3.15252
3.13492
3.11878
3.10117
3.08794
3.07321
3.05353
3.03368
3.00837
2.9962
2.98959
2.98847
2.99136
3.01165
3.05499
3.12413
3.20472
3.22588
3.22803
3.21995
3.20009
3.17766
3.15659
3.12803
3.10914
3.09605
3.07598
3.05578
3.0277
3.00644
2.98867
2.96879
2.94682
2.92733
2.91307
2.89505
2.87573
2.84976
2.83022
2.81694
2.79968
2.78685
2.7725
2.75808
2.74439
2.72432
2.70097
2.68037
2.66097
2.63867
2.62818
2.62016
2.60606
2.59599
2.58702
2.57618
2.56431
2.54703
2.52797
2.51026
2.49418
2.48321
2.47037
2.45343
2.43554
2.41841
2.40025
2.38235
2.37051
2.36461
2.36143
2.35921
2.35612
2.35163
2.34538
2.33644
2.31923
2.28944
2.25712
2.24273
2.23929
2.23555
2.22841
2.21731
2.20376
2.19546
2.19313
2.19607
2.19678
2.18955
2.17351
2.14509
2.10859
2.08834
2.08209
2.08044
2.07744
2.07174
2.06356
2.05405
2.04854
2.04596
2.04544
2.04337
2.0376
2.02353
1.99751
1.96598
1.94985
1.94667
1.9462
1.94456
1.94037
1.93418
1.92145
1.9085
1.90448
1.90273
1.90131
1.89804
1.89107
1.87373
1.84186
1.8116
1.80102
1.8003
1.80744
1.83275
1.85457
1.85523
1.84899
1.83568
1.81067
1.76568
1.72684
1.71192
1.70866
1.70888
1.71529
1.72302
1.72368
1.72183
1.72034
1.7185
1.71596