/*--------------------------------*- C++ -*----------------------------------*\
  =========                 |
  \\      /  F ield         | OpenFOAM: The Open Source CFD Toolbox
   \\    /   O peration     | Website:  https://openfoam.org
    \\  /    A nd           | Version:  7
     \\/     M anipulation  |
\*---------------------------------------------------------------------------*/
FoamFile
{
    version     2.0;
    format      ascii;
    class       volScalarField;
    location    "3.4";
    object      rho;
}
// * * * * * * * * * * * * * * * * * * * * * * * * * * * * * * * * * * * * * //

dimensions      [1 -3 0 0 0 0 0];

internalField   nonuniform List<scalar> 
16192
(
3.2105
3.20551
3.20689
3.21768
3.23569
3.23855
3.23571
3.22581
3.20461
3.18941
3.18532
3.18565
3.18947
3.19445
3.19847
3.19793
3.19473
3.18693
3.17449
3.16462
3.16006
3.15725
3.15507
3.15452
3.15404
3.15148
3.14801
3.14444
3.14132
3.13847
3.1352
3.13048
3.12419
3.12017
3.11807
3.11759
3.1179
3.11581
3.11266
3.10805
3.0991
3.08535
3.07433
3.07027
3.06847
3.06852
3.07316
3.07627
3.07481
3.07179
3.06716
3.06047
3.05437
3.05106
3.04812
3.04519
3.04089
3.03434
3.02679
3.01707
3.00681
2.99904
2.9948
2.99268
2.99307
2.99544
2.99731
2.99844
2.99796
2.99539
2.9894
2.97951
2.97082
2.96304
2.95358
2.9443
2.93812
2.93496
2.93349
2.93496
2.93977
2.94445
2.94486
2.94211
2.9354
2.92148
2.90362
2.89136
2.88594
2.88319
2.88205
2.886
2.8948
2.90022
2.9
2.89712
2.89061
2.87648
2.85464
2.83759
2.82906
2.82509
2.82361
2.82634
2.83824
2.85451
2.86423
2.86443
2.86073
2.85197
2.83233
2.806
2.78885
2.78028
2.77516
2.7722
2.77079
2.77268
2.78145
2.79097
2.79688
2.79897
2.79679
2.78963
2.77593
2.75836
2.7447
2.7352
2.72937
2.72689
2.72808
2.73878
2.75028
2.752
2.75019
2.74552
2.73364
2.71364
2.69795
2.68977
2.6851
2.68284
2.68444
2.69479
2.70749
2.71126
2.70847
2.7009
2.6819
2.65145
2.63136
2.62388
2.62071
2.61916
2.62142
2.6323
2.64869
2.66026
2.66185
2.65802
2.65237
2.6421
2.62887
2.61468
2.6035
2.59836
2.59599
2.59385
2.59273
2.59036
2.58506
2.57594
2.56641
2.55896
2.5529
2.54852
2.54759
2.55037
2.55382
2.55529
2.55711
2.55845
2.55699
2.55133
2.54175
2.53206
2.522
2.51322
2.50829
2.50903
2.51319
2.51342
2.51379
2.51235
2.50735
2.4991
2.49174
2.48437
2.47721
2.47083
2.46677
2.46446
2.46187
2.45989
2.45919
2.4606
2.46149
2.4612
2.45939
2.45547
2.44897
2.44185
2.43748
2.43427
2.43051
2.42583
2.42055
2.41585
2.41296
2.41093
2.40815
2.40412
2.3996
2.39645
2.39503
2.39331
2.39158
2.38792
2.3813
2.37345
2.36595
2.35707
2.34632
2.33952
2.33839
2.34644
2.36711
2.38571
2.39494
2.39483
2.39009
2.37599
2.34508
2.30955
2.28854
2.28069
2.27785
2.27649
2.27991
2.29916
2.32579
2.3357
2.33068
3.229
3.21287
3.20903
3.21255
3.22489
3.23224
3.23172
3.22728
3.21777
3.20493
3.19374
3.18821
3.18557
3.18522
3.19016
3.19786
3.19809
3.19409
3.18432
3.16956
3.16107
3.1582
3.15693
3.15907
3.16024
3.15782
3.15332
3.14782
3.14409
3.14182
3.13962
3.13672
3.13164
3.12396
3.1186
3.11594
3.11482
3.1141
3.11174
3.10846
3.104
3.09637
3.08487
3.07412
3.06917
3.06785
3.07137
3.07723
3.08013
3.08057
3.07926
3.07615
3.06876
3.05531
3.04411
3.03737
3.03187
3.02745
3.02307
3.01943
3.01501
3.0083
3.00114
2.99694
2.99567
2.99807
3.00298
3.00576
3.00492
3.00212
2.99585
2.98213
2.9666
2.95592
2.94829
2.94323
2.94025
2.93947
2.94195
2.94638
2.94903
2.9484
2.94604
2.94099
2.93277
2.92222
2.91149
2.90108
2.89251
2.88796
2.887
2.89138
2.8981
2.90086
2.89944
2.8956
2.88846
2.87521
2.85796
2.84318
2.83428
2.83024
2.82965
2.8372
2.85356
2.86465
2.86521
2.86283
2.85844
2.85022
2.83624
2.81611
2.79602
2.78114
2.7743
2.77211
2.77148
2.77368
2.77777
2.78653
2.80036
2.80796
2.80819
2.80459
2.79621
2.77876
2.75299
2.73353
2.72601
2.72389
2.72347
2.72675
2.73904
2.75171
2.75215
2.74863
2.74205
2.72564
2.70229
2.6883
2.68419
2.68332
2.69126
2.70945
2.71621
2.71387
2.70934
2.70185
2.68776
2.66263
2.63705
2.62317
2.61861
2.61708
2.61962
2.62649
2.632
2.63778
2.64656
2.65685
2.65862
2.65715
2.65345
2.64526
2.63133
2.61256
2.5969
2.58821
2.58074
2.57361
2.56888
2.56776
2.56922
2.57144
2.57411
2.57605
2.57449
2.56866
2.56024
2.55283
2.54625
2.53971
2.53484
2.53394
2.537
2.53908
2.54037
2.54251
2.54246
2.53707
2.52651
2.51592
2.50755
2.50058
2.49658
2.49546
2.49374
2.49148
2.48849
2.48331
2.47593
2.46764
2.46117
2.45741
2.45594
2.45659
2.46226
2.46757
2.46961
2.46791
2.46347
2.45454
2.44168
2.42972
2.42062
2.41513
2.41254
2.41275
2.41783
2.42576
2.43115
2.43133
2.42622
2.41416
2.39752
2.38346
2.37102
2.36165
2.359
2.36244
2.36724
2.36643
2.3644
2.36395
2.36851
2.37712
2.38144
2.38077
2.38061
2.37953
2.37305
2.35744
2.33717
2.32212
2.30808
2.29426
2.28614
2.28435
2.29136
2.31363
2.33153
2.33536
2.33031
3.24345
3.23048
3.21958
3.21576
3.21925
3.22109
3.22045
3.22094
3.22035
3.21688
3.20929
3.19514
3.18505
3.18245
3.1837
3.19226
3.19727
3.19499
3.18952
3.17854
3.16628
3.16151
3.16063
3.16349
3.16516
3.16337
3.15979
3.15399
3.1476
3.14319
3.1405
3.13803
3.13483
3.12985
3.12299
3.11708
3.11335
3.11029
3.1083
3.10666
3.10433
3.10197
3.09826
3.09124
3.08215
3.07708
3.07587
3.07597
3.07888
3.08242
3.08187
3.0795
3.07555
3.06603
3.04781
3.03186
3.02424
3.01982
3.01748
3.01871
3.02103
3.01932
3.01576
3.01066
3.00656
3.00511
3.00546
3.00598
3.00397
3.00002
2.99382
2.98209
2.96626
2.95481
2.94941
2.94683
2.94701
2.95108
2.95519
2.95499
2.9527
2.94826
2.9409
2.93317
2.92653
2.92192
2.91867
2.91488
2.90997
2.90493
2.90127
2.89924
2.89701
2.8938
2.89034
2.88613
2.87922
2.86954
2.86105
2.85565
2.85159
2.84916
2.85063
2.85597
2.859
2.85852
2.85756
2.8552
2.85052
2.84223
2.83173
2.82291
2.81445
2.80336
2.78971
2.78111
2.77914
2.77877
2.78001
2.78229
2.78719
2.79865
2.80688
2.80608
2.80268
2.7956
2.77893
2.75155
2.73102
2.72548
2.72401
2.72444
2.72736
2.73333
2.74139
2.74402
2.73968
2.73124
2.71858
2.70596
2.69872
2.69781
2.70345
2.70875
2.70894
2.70767
2.70404
2.69647
2.68339
2.66993
2.65699
2.64416
2.63376
2.6293
2.62952
2.62962
2.62741
2.62577
2.62713
2.63442
2.65011
2.66153
2.66209
2.65957
2.65358
2.6394
2.61355
2.58699
2.57286
2.56582
2.56277
2.56235
2.56862
2.58226
2.59289
2.59475
2.59203
2.58546
2.57041
2.54963
2.53297
2.52456
2.52187
2.52259
2.52918
2.54409
2.56128
2.56931
2.56865
2.56249
2.54484
2.51829
2.49899
2.4912
2.4886
2.48803
2.49135
2.49735
2.49913
2.49712
2.4921
2.48083
2.46521
2.45636
2.45374
2.45268
2.45387
2.46374
2.47286
2.47377
2.47143
2.46559
2.4505
2.43001
2.4178
2.41261
2.411
2.41218
2.42332
2.44132
2.44928
2.44798
2.44281
2.4295
2.40222
2.36963
2.35141
2.34658
2.34567
2.34911
2.35898
2.37074
2.38235
2.39502
2.40392
2.40292
2.39528
2.38384
2.37247
2.36015
2.34498
2.33325
2.32832
2.32492
2.32167
2.31666
2.31197
2.31231
2.31848
2.32242
2.32248
2.32386
2.32149
3.23616
3.24493
3.23767
3.23126
3.22253
3.21623
3.21287
3.21388
3.22133
3.22307
3.2197
3.20838
3.19084
3.18356
3.18209
3.18618
3.19345
3.19377
3.19092
3.1866
3.17854
3.17029
3.16693
3.16619
3.16622
3.16533
3.16334
3.16013
3.15423
3.14681
3.14066
3.13652
3.13365
3.13117
3.12783
3.12245
3.1154
3.10992
3.10671
3.1044
3.10374
3.10517
3.10676
3.10597
3.10176
3.09232
3.08247
3.07859
3.07677
3.07633
3.07751
3.07631
3.07324
3.06887
3.05662
3.03578
3.02148
3.01723
3.01592
3.0198
3.02646
3.02927
3.02915
3.02719
3.02263
3.01421
3.0064
3.00212
2.99845
2.9942
2.98783
2.9789
2.96948
2.9627
2.95893
2.95797
2.96081
2.96404
2.96281
2.95968
2.95321
2.94266
2.93207
2.92572
2.92259
2.92169
2.92411
2.92764
2.92874
2.9265
2.92011
2.90818
2.89584
2.8872
2.87922
2.87155
2.86672
2.86491
2.86525
2.86906
2.87524
2.87952
2.87809
2.87083
2.86063
2.85379
2.84891
2.84338
2.83728
2.83232
2.82949
2.82919
2.82883
2.82554
2.81729
2.80095
2.78589
2.78042
2.77777
2.77559
2.77547
2.78171
2.79458
2.80402
2.80533
2.80322
2.79848
2.78509
2.76072
2.73861
2.72926
2.726
2.72305
2.72043
2.71965
2.72322
2.72997
2.73186
2.73103
2.73056
2.72984
2.72579
2.71786
2.71047
2.70571
2.70023
2.69279
2.68348
2.67636
2.67295
2.67065
2.66837
2.66469
2.65783
2.6476
2.63666
2.62772
2.62115
2.61771
2.61736
2.62489
2.64546
2.66316
2.66441
2.6615
2.65544
2.63733
2.60333
2.57489
2.56508
2.56275
2.56276
2.57232
2.59193
2.60026
2.59847
2.59483
2.5893
2.57606
2.55063
2.52961
2.52078
2.51817
2.51871
2.53055
2.55874
2.57644
2.57762
2.57433
2.5673
2.55143
2.52148
2.49721
2.48874
2.48573
2.48472
2.49135
2.50529
2.50913
2.50783
2.50412
2.49292
2.4715
2.45682
2.45271
2.45112
2.45103
2.45678
2.47002
2.47547
2.4738
2.46916
2.45831
2.43813
2.42108
2.41517
2.4138
2.41675
2.43178
2.44718
2.44973
2.4471
2.44233
2.43056
2.39877
2.36149
2.34712
2.34331
2.34209
2.3442
2.357
2.38415
2.41301
2.42621
2.42618
2.42107
2.407
2.38412
2.35689
2.33348
2.32173
2.31887
2.3192
2.32285
2.33082
2.34056
2.34883
2.35019
2.34341
2.33027
2.31938
2.31252
2.30811
3.13965
3.20706
3.24606
3.24874
3.23182
3.21564
3.20896
3.20918
3.21998
3.22553
3.22428
3.21716
3.20126
3.1903
3.18637
3.18621
3.19021
3.19133
3.19045
3.18997
3.18905
3.18526
3.17707
3.16762
3.16395
3.16265
3.16271
3.16267
3.16002
3.15403
3.14414
3.13536
3.13199
3.12986
3.12867
3.12618
3.1211
3.11402
3.10861
3.10597
3.10474
3.10631
3.11022
3.11201
3.1106
3.10587
3.09541
3.08239
3.07525
3.0719
3.06966
3.06898
3.06785
3.06406
3.05813
3.04814
3.03536
3.02676
3.02424
3.02613
3.0304
3.03383
3.03514
3.03371
3.03019
3.02366
3.01112
2.99793
2.99032
2.98511
2.98077
2.97788
2.97591
2.97529
2.97576
2.97572
2.97362
2.97002
2.9657
2.95919
2.94914
2.93597
2.92661
2.9228
2.9214
2.92367
2.93111
2.93735
2.93808
2.93561
2.93095
2.91939
2.89915
2.88179
2.87216
2.86586
2.86226
2.86192
2.86918
2.88441
2.89517
2.89569
2.89218
2.88407
2.8676
2.85037
2.84062
2.83436
2.82976
2.82778
2.83082
2.8386
2.84043
2.83868
2.83296
2.81849
2.79691
2.7812
2.77499
2.77246
2.77142
2.77505
2.78674
2.80198
2.80979
2.81003
2.8071
2.80081
2.78876
2.76808
2.74397
2.72691
2.71851
2.71301
2.70947
2.70794
2.71235
2.72661
2.73862
2.74667
2.74898
2.74659
2.73879
2.72241
2.70509
2.69094
2.6806
2.67547
2.67363
2.6752
2.68228
2.69065
2.69287
2.68889
2.67545
2.65015
2.62684
2.61467
2.61028
2.60832
2.60903
2.61988
2.6421
2.65911
2.66087
2.65706
2.64791
2.62946
2.60328
2.58169
2.57295
2.57203
2.57686
2.58335
2.58987
2.59395
2.59259
2.58696
2.57633
2.55954
2.54049
2.52843
2.52491
2.52642
2.53635
2.54813
2.55947
2.56735
2.56806
2.56246
2.54895
2.53149
2.51282
2.49813
2.49151
2.49051
2.49703
2.50817
2.5128
2.51092
2.50508
2.49417
2.4781
2.46319
2.45539
2.45258
2.45186
2.45526
2.46011
2.46442
2.46716
2.46628
2.46058
2.45108
2.44038
2.43186
2.42786
2.42858
2.43237
2.43525
2.43924
2.44017
2.43622
2.42408
2.40203
2.37542
2.35483
2.3457
2.34381
2.34683
2.36691
2.40591
2.42908
2.43104
2.42804
2.42256
2.40846
2.37412
2.33576
2.32008
2.31536
2.31366
2.31481
2.32578
2.34806
2.3674
2.37269
2.37039
2.36316
2.34561
2.31933
2.30245
2.29675
2.77805
3.01163
3.19378
3.22868
3.22698
3.21548
3.20487
3.20466
3.21619
3.22444
3.2231
3.21744
3.20749
3.20307
3.20106
3.19685
3.19132
3.18796
3.18623
3.18876
3.19406
3.19373
3.18873
3.17691
3.16369
3.15963
3.15881
3.16041
3.16187
3.15909
3.15221
3.14135
3.13316
3.12971
3.12797
3.12737
3.1251
3.1208
3.11497
3.1105
3.10813
3.10725
3.10895
3.1116
3.1114
3.1091
3.10419
3.09417
3.08023
3.07002
3.06543
3.06161
3.05829
3.05724
3.05853
3.05739
3.05479
3.04982
3.04221
3.03629
3.03385
3.03262
3.03328
3.03197
3.02855
3.02409
3.01542
3.00038
2.9873
2.98092
2.97798
2.97744
2.9819
2.98802
2.9904
2.9885
2.98369
2.97522
2.96513
2.95487
2.94329
2.93359
2.92859
2.92644
2.92659
2.93181
2.93898
2.94132
2.93946
2.93623
2.93157
2.92365
2.90752
2.88595
2.87052
2.8647
2.86305
2.86662
2.88153
2.89617
2.89837
2.89615
2.8923
2.88653
2.87489
2.85644
2.83967
2.83114
2.8284
2.82859
2.83559
2.8425
2.84307
2.83947
2.83189
2.8215
2.80825
2.79386
2.78163
2.77538
2.77364
2.77764
2.78657
2.79064
2.79459
2.80038
2.80275
2.80087
2.79687
2.78829
2.7714
2.74584
2.72192
2.71114
2.70745
2.70586
2.70721
2.71805
2.73985
2.75286
2.75378
2.75114
2.74671
2.73324
2.70599
2.68558
2.67727
2.67372
2.67276
2.67936
2.69584
2.70666
2.70691
2.70321
2.69265
2.66396
2.62891
2.61293
2.6084
2.60611
2.60556
2.60991
2.6191
2.631
2.64444
2.65081
2.64846
2.64371
2.63427
2.62008
2.60271
2.58962
2.58493
2.58292
2.58118
2.58017
2.57974
2.57799
2.57372
2.56802
2.562
2.55594
2.55085
2.54856
2.54874
2.54976
2.54874
2.54788
2.54667
2.54363
2.53895
2.5336
2.52986
2.52443
2.51787
2.51326
2.51125
2.50975
2.50728
2.50375
2.49764
2.48837
2.47906
2.47298
2.46763
2.46249
2.45992
2.45976
2.45931
2.45728
2.45538
2.45552
2.45834
2.46046
2.45941
2.45706
2.45213
2.4441
2.43609
2.43217
2.42897
2.4252
2.4185
2.40853
2.39755
2.38814
2.37912
2.36969
2.3654
2.37024
2.38706
2.40237
2.41321
2.42173
2.4232
2.4182
2.40139
2.3672
2.3347
2.31938
2.31496
2.31372
2.3166
2.33559
2.36572
2.37899
2.37831
2.37518
2.37063
2.35895
2.33211
2.30416
2.29466
2.29337
2.55311
2.8747
3.11386
3.18522
3.21396
3.20745
3.21122
3.22247
3.22261
3.21628
3.21319
3.21346
3.21586
3.21845
3.21331
3.19981
3.18721
3.18403
3.18358
3.19038
3.19551
3.19247
3.1851
3.17056
3.15854
3.15577
3.15558
3.15887
3.15944
3.1565
3.15018
3.14158
3.13412
3.13012
3.1284
3.12738
3.12527
3.12199
3.11752
3.11293
3.11007
3.10838
3.10821
3.10873
3.10715
3.10455
3.10013
3.09138
3.07779
3.0649
3.0586
3.05586
3.05471
3.05787
3.06529
3.06929
3.06779
3.06255
3.05176
3.03786
3.02993
3.02606
3.02425
3.02304
3.01954
3.01302
3.00345
2.99199
2.9854
2.98288
2.98438
2.99182
2.99739
2.99702
2.99411
2.98921
2.97858
2.96278
2.94927
2.94119
2.93757
2.93582
2.93558
2.93791
2.9402
2.93905
2.93627
2.93388
2.93113
2.92682
2.91969
2.90993
2.89881
2.88849
2.88085
2.87859
2.88285
2.88877
2.8894
2.88932
2.88924
2.88735
2.8822
2.87429
2.86435
2.85368
2.8453
2.84128
2.8416
2.84281
2.841
2.83672
2.83128
2.82451
2.81726
2.81168
2.8066
2.80068
2.79499
2.79185
2.79141
2.79131
2.79088
2.78854
2.78675
2.78853
2.79271
2.79245
2.78956
2.785
2.77344
2.75175
2.72683
2.71343
2.71024
2.71052
2.71556
2.72289
2.73422
2.74542
2.74795
2.7439
2.73476
2.71616
2.69457
2.68303
2.67901
2.67948
2.69068
2.70443
2.70743
2.70573
2.70166
2.69226
2.67337
2.6484
2.62836
2.61504
2.60887
2.60711
2.60959
2.61248
2.61355
2.61822
2.63004
2.64567
2.6497
2.64918
2.64616
2.63776
2.62073
2.5975
2.58185
2.57443
2.56953
2.56623
2.56524
2.56859
2.57366
2.5773
2.57996
2.58016
2.57543
2.56433
2.55107
2.54053
2.53087
2.52303
2.52014
2.52269
2.53113
2.53964
2.54587
2.54758
2.54335
2.53059
2.51394
2.50213
2.49244
2.48397
2.47985
2.47856
2.47887
2.48065
2.47995
2.47607
2.46931
2.46107
2.45415
2.45083
2.45041
2.45519
2.46447
2.47059
2.47128
2.46892
2.46327
2.45157
2.43565
2.42177
2.40913
2.39799
2.39215
2.39091
2.39266
2.3961
2.39917
2.40244
2.4056
2.40657
2.40661
2.40568
2.40507
2.40291
2.39498
2.37913
2.36146
2.3481
2.33726
2.32917
2.3273
2.33326
2.34662
2.35726
2.36697
2.37475
2.37425
2.36987
2.36276
2.34865
2.32554
2.29969
2.12463
2.18835
2.36374
2.67881
2.9451
3.14132
3.1882
3.22237
3.2321
3.22427
3.21325
3.21272
3.21801
3.22668
3.22744
3.22286
3.21241
3.19276
3.18248
3.1805
3.18275
3.19078
3.1906
3.18579
3.17743
3.16513
3.15661
3.15435
3.15445
3.15655
3.15619
3.15431
3.151
3.14561
3.13844
3.13232
3.12937
3.12744
3.12549
3.12294
3.11948
3.11476
3.11078
3.10817
3.10616
3.1048
3.10281
3.09996
3.09604
3.08789
3.07411
3.06347
3.05944
3.05768
3.05983
3.06955
3.0756
3.07383
3.07031
3.06387
3.05018
3.03228
3.02137
3.01624
3.01303
3.01096
3.0088
3.00546
3.00185
2.99791
2.99601
2.99703
2.99938
2.99879
2.99637
2.99292
2.98746
2.97779
2.96329
2.95149
2.9476
2.94667
2.94728
2.94773
2.94581
2.94217
2.93706
2.93227
2.92753
2.92237
2.91714
2.9128
2.91098
2.9106
2.91157
2.9114
2.90722
2.89844
2.88958
2.88436
2.88014
2.87612
2.87342
2.87235
2.87168
2.87003
2.86929
2.86883
2.86541
2.85747
2.84604
2.83663
2.82753
2.81893
2.81429
2.81243
2.81226
2.8156
2.82072
2.82259
2.81941
2.81052
2.79802
2.78753
2.77899
2.77277
2.77023
2.77155
2.78024
2.78838
2.78892
2.78659
2.77976
2.764
2.74124
2.72465
2.71962
2.71793
2.71766
2.7188
2.72235
2.72849
2.73221
2.72912
2.72162
2.7131
2.70632
2.70217
2.70148
2.70136
2.69884
2.69709
2.69585
2.69225
2.68385
2.67161
2.66156
2.65237
2.64176
2.62943
2.61945
2.61447
2.61179
2.60998
2.60798
2.60951
2.62073
2.64349
2.65559
2.65541
2.65279
2.64494
2.62491
2.59444
2.57411
2.56653
2.56279
2.56139
2.56442
2.57765
2.59276
2.59855
2.5975
2.59289
2.57974
2.5536
2.52743
2.51259
2.50753
2.50648
2.51077
2.52647
2.5518
2.56637
2.56693
2.56284
2.54998
2.52074
2.49355
2.4821
2.47781
2.47612
2.47783
2.48785
2.49786
2.49883
2.49521
2.4844
2.46568
2.45247
2.44874
2.44753
2.44833
2.45842
2.4744
2.47983
2.47871
2.47513
2.46582
2.44234
2.41231
2.39484
2.38881
2.38694
2.38801
2.39839
2.41764
2.43357
2.43878
2.4362
2.42686
2.41235
2.40011
2.38883
2.37562
2.36344
2.35873
2.35848
2.35919
2.35902
2.35737
2.35664
2.35756
2.35787
2.35694
2.3557
2.35817
2.36539
2.36569
2.36134
2.35622
2.34905
2.32267
2.11168
2.11432
2.1385
2.23814
2.45633
2.77617
3.01948
3.16319
3.227
3.22397
3.21477
3.21741
3.22182
3.22904
3.22756
3.22374
3.21683
3.20279
3.1872
3.18088
3.17938
3.18122
3.18211
3.1797
3.17589
3.17193
3.16571
3.15923
3.15571
3.15463
3.15392
3.15483
3.15645
3.15454
3.15036
3.14297
3.13405
3.12932
3.1269
3.12475
3.12258
3.11973
3.11576
3.11153
3.10815
3.10533
3.10253
3.09971
3.09672
3.09202
3.08313
3.07265
3.06618
3.06333
3.06343
3.06966
3.07472
3.0728
3.06981
3.06609
3.05894
3.0445
3.0246
3.01265
3.00813
3.00512
3.00356
3.00583
3.01058
3.01268
3.01187
3.00812
3.00202
2.99671
2.99272
2.9885
2.98323
2.97634
2.96949
2.96453
2.96018
2.95739
2.95533
2.95268
2.94882
2.94286
2.93537
2.92827
2.922
2.91623
2.91228
2.91124
2.91496
2.92336
2.92856
2.92795
2.92418
2.91408
2.89502
2.87927
2.8717
2.86725
2.86472
2.86443
2.86854
2.87792
2.88502
2.88526
2.88103
2.86931
2.8485
2.82881
2.81831
2.81295
2.80989
2.80907
2.81541
2.83041
2.84223
2.84375
2.84005
2.82877
2.80471
2.77984
2.7679
2.76311
2.76081
2.76064
2.76712
2.78196
2.79161
2.79345
2.7926
2.7885
2.77691
2.75641
2.7335
2.71987
2.71426
2.71028
2.70682
2.70468
2.70634
2.71462
2.72371
2.7294
2.73272
2.7327
2.72714
2.71484
2.70032
2.69125
2.68374
2.67531
2.66955
2.66813
2.66749
2.66828
2.66763
2.66196
2.64893
2.62945
2.61387
2.60456
2.60066
2.59931
2.6014
2.61501
2.64061
2.65563
2.65488
2.65178
2.64426
2.62284
2.59056
2.56979
2.56435
2.56298
2.56645
2.58293
2.59764
2.59922
2.59654
2.59213
2.58157
2.55467
2.52325
2.50858
2.50371
2.50267
2.50716
2.52983
2.55855
2.56835
2.56721
2.56264
2.55259
2.52976
2.49772
2.48058
2.47647
2.47541
2.48239
2.50382
2.51344
2.51148
2.50616
2.49306
2.46883
2.45266
2.44849
2.44696
2.44694
2.4531
2.46929
2.48068
2.47988
2.47577
2.46745
2.44752
2.4142
2.3929
2.38709
2.38596
2.39087
2.41618
2.44734
2.45495
2.45339
2.44936
2.43927
2.41751
2.38786
2.36277
2.35124
2.34846
2.34953
2.35792
2.37352
2.38457
2.3877
2.38521
2.37476
2.35972
2.35121
2.34676
2.3449
2.34643
2.356
2.36317
2.36376
2.36157
2.3418
2.11343
2.11223
2.11232
2.11927
2.15999
2.29251
2.57558
2.85527
3.11151
3.16032
3.19497
3.20897
3.21928
3.22194
3.2184
3.21464
3.20996
3.2055
3.19982
3.1913
3.18252
3.17686
3.1728
3.16998
3.1717
3.17489
3.17399
3.17074
3.16419
3.15647
3.15403
3.15369
3.15715
3.15946
3.15721
3.15229
3.14352
3.13447
3.12864
3.12525
3.12316
3.12146
3.11963
3.11679
3.11295
3.10863
3.10372
3.09894
3.09465
3.09002
3.08458
3.07873
3.07377
3.06995
3.06828
3.06919
3.07103
3.07
3.06717
3.06399
3.06003
3.05284
3.03795
3.01824
3.00771
3.00485
3.00389
3.00723
3.01553
3.02001
3.01823
3.01417
3.00674
2.99715
2.98974
2.98439
2.98057
2.97843
2.97789
2.97568
2.97134
2.96445
2.95804
2.95357
2.94935
2.94397
2.93618
2.92628
2.91816
2.91428
2.91305
2.91576
2.92482
2.93063
2.93053
2.92799
2.92454
2.91873
2.90523
2.88541
2.86976
2.8632
2.86112
2.86239
2.87441
2.88734
2.88864
2.88586
2.8797
2.86767
2.84931
2.82967
2.81716
2.812
2.81003
2.81304
2.82936
2.84748
2.851
2.84837
2.84259
2.83061
2.8099
2.78381
2.76693
2.76079
2.75875
2.75895
2.76523
2.77459
2.78662
2.79752
2.79904
2.79718
2.79323
2.78319
2.7633
2.736
2.71471
2.7043
2.69805
2.69453
2.69333
2.69797
2.71851
2.74032
2.74702
2.7462
2.74202
2.7323
2.71109
2.68567
2.67036
2.66413
2.66205
2.66271
2.67053
2.68276
2.68733
2.68515
2.67689
2.65309
2.61943
2.60254
2.59758
2.59522
2.59425
2.59858
2.61261
2.63302
2.64996
2.65306
2.64911
2.63945
2.62197
2.59879
2.58051
2.57446
2.57445
2.57905
2.58492
2.59041
2.59101
2.58709
2.57693
2.55909
2.53615
2.51808
2.51047
2.50925
2.51507
2.52727
2.53658
2.54646
2.55432
2.5544
2.54695
2.53264
2.5146
2.4978
2.4885
2.48725
2.49541
2.50628
2.50973
2.50932
2.50507
2.49293
2.47461
2.45985
2.45243
2.44944
2.44873
2.45253
2.45959
2.46686
2.47194
2.47089
2.4638
2.44838
2.42673
2.40732
2.39837
2.39733
2.40574
2.42514
2.4428
2.45212
2.45213
2.44807
2.43828
2.41391
2.37728
2.35582
2.34783
2.34588
2.34817
2.36622
2.3916
2.39951
2.39811
2.39408
2.38461
2.36624
2.35027
2.34463
2.34243
2.34135
2.34612
2.36059
2.36535
2.36254
2.34564
2.12275
2.11614
2.11262
2.11173
2.1121
2.1243
2.19183
2.36004
2.65419
2.94995
3.11306
3.18722
3.22487
3.22643
3.21579
3.20644
3.20113
3.20219
3.20602
3.20471
3.19526
3.17828
3.16957
3.16634
3.16712
3.17542
3.17939
3.17849
3.17461
3.16488
3.15715
3.15542
3.15597
3.15942
3.15859
3.15514
3.1498
3.14281
3.13549
3.1289
3.12436
3.12221
3.12081
3.11896
3.11581
3.11156
3.10591
3.09862
3.09203
3.08757
3.08478
3.0827
3.08113
3.0782
3.07364
3.07059
3.06942
3.06868
3.06537
3.06203
3.05876
3.0548
3.04802
3.03527
3.02042
3.01296
3.01105
3.01175
3.01604
3.01805
3.01556
3.01169
3.00653
2.99908
2.99176
2.98746
2.98536
2.98482
2.98286
2.97971
2.97406
2.9653
2.9579
2.95329
2.94949
2.94532
2.93992
2.93301
2.92641
2.92287
2.92258
2.92388
2.92303
2.92217
2.92256
2.92257
2.91994
2.91447
2.90754
2.89795
2.88589
2.87582
2.87182
2.87339
2.87756
2.87764
2.87679
2.87382
2.86749
2.85686
2.84453
2.83542
2.82923
2.82544
2.82577
2.83485
2.84597
2.84675
2.84461
2.84207
2.83583
2.82303
2.80628
2.79277
2.78205
2.77312
2.76772
2.76643
2.76985
2.77623
2.78002
2.78317
2.79079
2.79563
2.794
2.79058
2.78301
2.76513
2.734
2.70642
2.69568
2.69214
2.69106
2.69284
2.70338
2.72768
2.74673
2.74735
2.74354
2.73666
2.71984
2.68908
2.66731
2.66089
2.65938
2.66219
2.67867
2.69405
2.69471
2.6919
2.68611
2.67071
2.6405
2.61126
2.59769
2.59387
2.59265
2.59579
2.60294
2.611
2.62195
2.63583
2.64287
2.64175
2.63862
2.63025
2.61571
2.5974
2.58524
2.58176
2.58039
2.57892
2.57707
2.57318
2.56673
2.5585
2.55083
2.54392
2.53715
2.53323
2.533
2.53359
2.53244
2.53011
2.52917
2.53031
2.53059
2.52857
2.52599
2.52378
2.52142
2.51795
2.51318
2.50941
2.50674
2.50256
2.49551
2.48479
2.47527
2.46983
2.46472
2.45945
2.45636
2.45592
2.45747
2.45803
2.45727
2.45548
2.45092
2.4443
2.43841
2.43374
2.42936
2.42881
2.43287
2.4367
2.43773
2.43863
2.43917
2.4355
2.42485
2.40638
2.38733
2.36976
2.35811
2.35511
2.35908
2.3699
2.37949
2.3881
2.39258
2.39077
2.38501
2.37562
2.36282
2.35062
2.34448
2.34287
2.34333
2.34645
2.352
2.35348
2.34323
2.13374
2.1276
2.11851
2.1119
2.10918
2.10778
2.10973
2.131
2.21891
2.44832
2.74569
2.97961
3.15648
3.21083
3.20706
3.2036
3.19719
3.19629
3.20914
3.21187
3.20711
3.1881
3.17137
3.16742
3.16953
3.18008
3.1826
3.18087
3.17787
3.17114
3.16367
3.15974
3.15841
3.15741
3.1554
3.15314
3.15026
3.14698
3.14305
3.13783
3.13187
3.12623
3.12132
3.11712
3.11303
3.10877
3.10344
3.09676
3.09156
3.08857
3.08736
3.08841
3.08961
3.08814
3.08351
3.07601
3.07142
3.06825
3.06519
3.06174
3.05842
3.05549
3.05222
3.04689
3.0375
3.0262
3.01895
3.0157
3.01335
3.01109
3.00928
3.00744
3.00475
3.00203
2.99953
2.99741
2.99462
2.99033
2.98484
2.97847
2.97078
2.96327
2.95746
2.95333
2.95028
2.94797
2.94647
2.94559
2.94403
2.94016
2.93371
2.92641
2.92035
2.91592
2.91246
2.90976
2.90842
2.90837
2.90859
2.9075
2.90597
2.90381
2.8993
2.89167
2.88263
2.87485
2.86704
2.85726
2.84746
2.84216
2.84057
2.83986
2.84113
2.84733
2.85687
2.86047
2.85643
2.84868
2.84027
2.8315
2.81997
2.80828
2.80142
2.79861
2.79646
2.79383
2.7891
2.78254
2.77798
2.77558
2.77281
2.77134
2.77316
2.78185
2.79091
2.79024
2.78723
2.7803
2.76178
2.72974
2.70467
2.69622
2.69401
2.69414
2.69959
2.71036
2.72514
2.73691
2.73847
2.73326
2.72095
2.70002
2.67879
2.66895
2.66683
2.67072
2.68104
2.68811
2.69096
2.68902
2.68306
2.67274
2.6585
2.64108
2.62187
2.60604
2.60001
2.5994
2.60228
2.60351
2.6044
2.61017
2.62539
2.64113
2.64292
2.64208
2.63859
2.62901
2.61053
2.58971
2.57784
2.56969
2.56247
2.55753
2.55593
2.55664
2.56078
2.56589
2.56791
2.56428
2.5534
2.53868
2.52631
2.51464
2.50638
2.5042
2.50887
2.52055
2.53549
2.54772
2.55225
2.54938
2.53778
2.51852
2.50271
2.49049
2.48026
2.47571
2.47438
2.47416
2.47516
2.47484
2.47199
2.4668
2.46003
2.45152
2.44313
2.43755
2.43647
2.4396
2.4465
2.45507
2.46247
2.46448
2.45927
2.44826
2.43584
2.42742
2.42017
2.41202
2.40443
2.39903
2.39503
2.39246
2.3893
2.38491
2.38073
2.37818
2.37652
2.37455
2.3756
2.38061
2.38162
2.37939
2.3764
2.37107
2.36255
2.35256
2.34634
2.3433
2.33955
2.33716
2.33177
2.13655
2.13418
2.12899
2.11928
2.1098
2.10534
2.10334
2.10245
2.10742
2.14524
2.26942
2.51756
2.80461
3.07301
3.14347
3.17707
3.1769
3.18572
3.21167
3.2156
3.2103
3.19971
3.18562
3.18098
3.18255
3.18658
3.18359
3.17961
3.1748
3.17076
3.16859
3.16642
3.16271
3.15616
3.1505
3.148
3.14657
3.14779
3.14803
3.14452
3.13985
3.13344
3.125
3.11693
3.11026
3.1035
3.09752
3.09357
3.09072
3.08895
3.09032
3.09503
3.09793
3.0978
3.09571
3.08965
3.07858
3.0704
3.0654
3.06124
3.05836
3.05581
3.05218
3.04873
3.04421
3.0376
3.02888
3.01924
3.01221
3.00842
3.00581
3.00433
3.0044
3.00576
3.00658
3.0055
3.00254
2.99567
2.98466
2.97461
2.96716
2.96191
2.95841
2.95589
2.95445
2.95458
2.9568
2.95833
2.95677
2.95196
2.94053
2.92508
2.91435
2.9078
2.90319
2.90033
2.89969
2.90344
2.91112
2.91831
2.92318
2.92381
2.92035
2.91092
2.89244
2.87258
2.85465
2.8424
2.83708
2.83501
2.83521
2.84217
2.85708
2.87248
2.87727
2.87454
2.86681
2.85193
2.83404
2.81737
2.80755
2.80226
2.80104
2.80386
2.80894
2.80925
2.80581
2.79777
2.78274
2.77122
2.76708
2.76522
2.76495
2.7704
2.78199
2.79042
2.79041
2.78624
2.77544
2.75717
2.73458
2.71574
2.70486
2.70121
2.70103
2.70478
2.70902
2.71341
2.71855
2.71994
2.71536
2.70739
2.70032
2.69413
2.69003
2.68873
2.68808
2.68649
2.68382
2.67999
2.67424
2.66769
2.66304
2.65947
2.653
2.64117
2.62448
2.61058
2.60359
2.5986
2.59564
2.59516
2.60061
2.61819
2.64223
2.6495
2.64854
2.64478
2.63356
2.60589
2.57416
2.5597
2.55387
2.5513
2.55123
2.55935
2.57699
2.58967
2.59112
2.58699
2.57221
2.54234
2.51392
2.49937
2.49409
2.49265
2.49659
2.52077
2.55705
2.5701
2.56981
2.56581
2.55568
2.52911
2.49448
2.47788
2.47313
2.47127
2.47169
2.47824
2.48718
2.48948
2.48694
2.47858
2.46136
2.44161
2.43153
2.42862
2.4291
2.43782
2.46055
2.4835
2.4906
2.48844
2.48017
2.45994
2.4324
2.40893
2.39604
2.39134
2.39131
2.39585
2.40646
2.41758
2.42139
2.41806
2.40457
2.38391
2.3694
2.36231
2.35997
2.36186
2.37167
2.38233
2.38741
2.3872
2.38354
2.37384
2.35718
2.34037
2.3275
2.31961
2.31846
2.13621
2.13442
2.13193
2.12742
2.11802
2.10689
2.10189
2.09899
2.09799
2.0985
2.11061
2.16642
2.3174
2.60086
2.88685
3.09216
3.1516
3.17987
3.19964
3.20787
3.20412
3.20416
3.20115
3.19738
3.1956
3.19026
3.18138
3.17355
3.16966
3.168
3.16876
3.1682
3.1659
3.1586
3.14814
3.1448
3.14398
3.14792
3.14977
3.14586
3.14145
3.13561
3.1282
3.12127
3.11418
3.10495
3.09728
3.09416
3.09227
3.09196
3.09544
3.10027
3.10274
3.1034
3.10291
3.10089
3.09193
3.07649
3.06605
3.06051
3.05518
3.05007
3.04757
3.04556
3.0432
3.04046
3.03551
3.02722
3.01756
3.01108
3.00804
3.00665
3.00724
3.00903
3.00943
3.00785
3.00405
2.99615
2.98501
2.97606
2.97042
2.96638
2.96337
2.96139
2.96074
2.96173
2.96262
2.9615
2.95903
2.95362
2.94299
2.9269
2.9125
2.90408
2.89909
2.89649
2.89588
2.90355
2.92123
2.93196
2.93212
2.92919
2.92496
2.91619
2.89651
2.86666
2.84665
2.83772
2.83364
2.83214
2.83603
2.85528
2.87752
2.88177
2.87916
2.8749
2.86677
2.85045
2.8269
2.8113
2.80422
2.80241
2.80418
2.81207
2.81566
2.81324
2.80877
2.80161
2.78943
2.77437
2.76581
2.76339
2.76349
2.76972
2.7771
2.7791
2.78036
2.77922
2.77485
2.76602
2.75576
2.74386
2.72991
2.71621
2.70852
2.70532
2.70196
2.69756
2.69459
2.69555
2.70279
2.71157
2.71683
2.71803
2.71559
2.70768
2.69447
2.68321
2.67442
2.66863
2.66595
2.66519
2.66879
2.67544
2.67651
2.67221
2.65841
2.62974
2.60383
2.5943
2.59074
2.58907
2.58989
2.59921
2.62019
2.64281
2.64827
2.64519
2.63722
2.61921
2.5868
2.56096
2.55244
2.55051
2.5525
2.57055
2.59336
2.59796
2.59562
2.58976
2.57542
2.5456
2.51254
2.49756
2.4933
2.49249
2.49722
2.51528
2.54405
2.56594
2.56833
2.56455
2.55573
2.53508
2.49973
2.4769
2.47155
2.47007
2.47233
2.48682
2.4979
2.49688
2.49283
2.48258
2.46052
2.43888
2.42905
2.42686
2.42788
2.44323
2.47643
2.49351
2.49306
2.48955
2.48257
2.46142
2.42123
2.39615
2.38853
2.38565
2.38621
2.4017
2.43101
2.44055
2.43942
2.43451
2.41881
2.38529
2.36116
2.35438
2.35227
2.35234
2.36348
2.38965
2.40129
2.4021
2.39917
2.38958
2.36534
2.33359
2.3137
2.30785
2.31045
2.1306
2.13214
2.13098
2.1284
2.12433
2.11589
2.10479
2.09852
2.09617
2.09453
2.09499
2.1017
2.1234
2.19811
2.40026
2.68722
2.97132
3.10852
3.18215
3.19321
3.20138
3.20956
3.20921
3.20417
3.19937
3.19079
3.17688
3.16736
3.16419
3.1631
3.16615
3.16839
3.16674
3.16128
3.15057
3.14508
3.14421
3.14824
3.14909
3.1447
3.13906
3.13282
3.12751
3.12401
3.12069
3.1156
3.1077
3.10178
3.09937
3.0991
3.10079
3.10206
3.10245
3.10295
3.10364
3.10302
3.09947
3.08819
3.07019
3.05661
3.04833
3.0432
3.04029
3.0394
3.04146
3.04186
3.03948
3.03565
3.02921
3.02237
3.01851
3.01637
3.01403
3.01074
3.00642
3.00177
2.99708
2.99063
2.98485
2.98239
2.98007
2.97757
2.97457
2.9713
2.96826
2.96572
2.96341
2.96082
2.9563
2.94984
2.94054
2.92915
2.9164
2.90629
2.90156
2.89985
2.90187
2.91156
2.92131
2.92539
2.92649
2.92526
2.9213
2.91217
2.89528
2.87366
2.85518
2.84498
2.84077
2.8408
2.85041
2.86586
2.87242
2.87372
2.8722
2.8685
2.86053
2.84655
2.83145
2.81973
2.81386
2.81233
2.814
2.81366
2.81077
2.80751
2.80309
2.79691
2.79024
2.78478
2.77916
2.77493
2.774
2.77627
2.77805
2.7776
2.77365
2.7679
2.7655
2.76438
2.76218
2.75945
2.75375
2.74307
2.72606
2.70834
2.69687
2.6898
2.68617
2.68506
2.69199
2.71605
2.73033
2.72988
2.72632
2.71932
2.70126
2.67963
2.66917
2.66447
2.66266
2.66643
2.68182
2.68993
2.68814
2.68359
2.67374
2.6498
2.61577
2.5949
2.58918
2.58747
2.58794
2.59506