/*--------------------------------*- C++ -*----------------------------------*\
  =========                 |
  \\      /  F ield         | OpenFOAM: The Open Source CFD Toolbox
   \\    /   O peration     | Website:  https://openfoam.org
    \\  /    A nd           | Version:  7
     \\/     M anipulation  |
\*---------------------------------------------------------------------------*/
FoamFile
{
    version     2.0;
    format      ascii;
    class       volVectorField;
    location    "3.7";
    object      U;
}
// * * * * * * * * * * * * * * * * * * * * * * * * * * * * * * * * * * * * * //

dimensions      [0 1 -1 0 0 0 0];

internalField   nonuniform List<vector> 
16512
(
(2.15858 0.655925 0)
(2.15517 0.643619 0)
(2.15859 0.638633 0)
(2.16554 0.638758 0)
(2.17616 0.637625 0)
(2.18553 0.635798 0)
(2.19402 0.63415 0)
(2.20126 0.631453 0)
(2.20383 0.624187 0)
(2.19611 0.608831 0)
(2.18899 0.593772 0)
(2.19377 0.590746 0)
(2.20103 0.589792 0)
(2.21119 0.587882 0)
(2.22209 0.585613 0)
(2.23065 0.583438 0)
(2.23831 0.581679 0)
(2.24474 0.580421 0)
(2.24918 0.577556 0)
(2.24566 0.566967 0)
(2.2359 0.551355 0)
(2.23925 0.544333 0)
(2.24678 0.542109 0)
(2.25542 0.539445 0)
(2.2639 0.536007 0)
(2.27158 0.532403 0)
(2.27847 0.528027 0)
(2.28366 0.52255 0)
(2.28399 0.514424 0)
(2.27653 0.502307 0)
(2.27634 0.497078 0)
(2.28246 0.496663 0)
(2.28988 0.494386 0)
(2.29844 0.49236 0)
(2.30647 0.489665 0)
(2.31335 0.486704 0)
(2.31975 0.483985 0)
(2.32525 0.479803 0)
(2.32655 0.470617 0)
(2.31833 0.454747 0)
(2.31179 0.440969 0)
(2.31601 0.437998 0)
(2.32253 0.435905 0)
(2.33111 0.433396 0)
(2.3404 0.43247 0)
(2.35061 0.431843 0)
(2.35724 0.429829 0)
(2.3633 0.428891 0)
(2.36967 0.428312 0)
(2.37496 0.426098 0)
(2.37524 0.417771 0)
(2.36523 0.40239 0)
(2.36028 0.390224 0)
(2.36456 0.385287 0)
(2.37014 0.381369 0)
(2.37755 0.376777 0)
(2.38386 0.372601 0)
(2.39007 0.369004 0)
(2.39595 0.365598 0)
(2.40089 0.362983 0)
(2.4051 0.360782 0)
(2.40844 0.358547 0)
(2.41019 0.355532 0)
(2.4087 0.349093 0)
(2.40673 0.340128 0)
(2.41029 0.334094 0)
(2.41551 0.330201 0)
(2.42093 0.326167 0)
(2.42574 0.320986 0)
(2.4288 0.314139 0)
(2.42833 0.304939 0)
(2.42582 0.295391 0)
(2.42814 0.29214 0)
(2.43254 0.293219 0)
(2.44071 0.295483 0)
(2.45156 0.298253 0)
(2.45903 0.29783 0)
(2.4652 0.294878 0)
(2.4715 0.290631 0)
(2.47638 0.285573 0)
(2.47831 0.277254 0)
(2.4729 0.263732 0)
(2.45921 0.244188 0)
(2.44906 0.229903 0)
(2.44927 0.226507 0)
(2.45304 0.227865 0)
(2.46344 0.232743 0)
(2.48164 0.244621 0)
(2.50054 0.254443 0)
(2.50802 0.255024 0)
(2.51402 0.251599 0)
(2.51913 0.245424 0)
(2.51997 0.235811 0)
(2.5104 0.218331 0)
(2.48877 0.19026 0)
(2.4756 0.171941 0)
(2.47722 0.167395 0)
(2.48071 0.167775 0)
(2.48899 0.169641 0)
(2.50416 0.178345 0)
(2.52488 0.192643 0)
(2.53935 0.200049 0)
(2.54344 0.199905 0)
(2.54824 0.197066 0)
(2.55113 0.192001 0)
(2.54761 0.181399 0)
(2.53224 0.160817 0)
(2.51485 0.137229 0)
(2.51227 0.127348 0)
(2.51581 0.126197 0)
(2.52088 0.126027 0)
(2.53258 0.129095 0)
(2.55054 0.139054 0)
(2.5667 0.147609 0)
(2.5719 0.148278 0)
(2.57597 0.146581 0)
(2.57873 0.142784 0)
(2.57563 0.133947 0)
(2.56116 0.116223 0)
(2.54457 0.0962752 0)
(2.54209 0.0881817 0)
(2.54471 0.0876887 0)
(2.55089 0.087967 0)
(2.5642 0.0930105 0)
(2.5819 0.102583 0)
(2.59104 0.106066 0)
(2.59456 0.105261 0)
(2.5983 0.102102 0)
(2.59679 0.0942443 0)
(2.58435 0.0781093 0)
(2.56924 0.0593178 0)
(2.56741 0.051636 0)
(2.57002 0.0510069 0)
(2.57545 0.0507005 0)
(2.58695 0.054328 0)
(2.60307 0.0630898 0)
(2.61295 0.0673955 0)
(2.61557 0.0671943 0)
(2.6184 0.0650574 0)
(2.61766 0.0589938 0)
(2.60663 0.0448509 0)
(2.58818 0.0236504 0)
(2.58163 0.0124981 0)
(2.58396 0.0109097 0)
(2.58769 0.0105706 0)
(2.59731 0.0124994 0)
(2.61402 0.0217638 0)
(2.63253 0.0325389 0)
(2.63951 0.0348894 0)
(2.64212 0.0338471 0)
(2.64459 0.0306064 0)
(2.64236 0.0229602 0)
(2.62849 0.00631836 0)
(2.60772 -0.0170378 0)
(2.60098 -0.0276256 0)
(2.60561 -0.0283033 0)
(2.60895 -0.025817 0)
(2.61521 -0.0194738 0)
(2.59826 -0.0574182 0)
(2.48626 -0.233974 0)
(2.29763 -0.496081 0)
(2.20968 -0.540405 0)
(2.15859 -0.559244 0)
(2.13484 -0.608286 0)
(2.11189 -0.644154 0)
(2.111 -0.646257 0)
(2.11935 -0.635155 0)
(2.13934 -0.614862 0)
(2.1588 -0.602293 0)
(2.16779 -0.605123 0)
(2.16134 -0.612316 0)
(2.13616 -0.640823 0)
(2.08744 -0.684351 0)
(1.99227 -0.746465 0)
(1.95293 -0.773451 0)
(1.95555 -0.773969 0)
(1.96439 -0.775392 0)
(1.96799 -0.776684 0)
(1.97146 -0.781847 0)
(1.96987 -0.790959 0)
(1.97183 -0.798346 0)
(1.97747 -0.801194 0)
(1.98422 -0.80238 0)
(1.99542 -0.800961 0)
(2.00631 -0.796824 0)
(2.01139 -0.796254 0)
(2.01557 -0.798614 0)
(2.01614 -0.803437 0)
(2.01501 -0.809926 0)
(2.01882 -0.813529 0)
(2.02393 -0.815165 0)
(2.0317 -0.815316 0)
(2.04385 -0.812756 0)
(2.0536 -0.810456 0)
(2.05813 -0.811688 0)
(2.06149 -0.815442 0)
(2.05994 -0.822038 0)
(2.05706 -0.829195 0)
(2.06033 -0.832195 0)
(2.06485 -0.833025 0)
(2.07233 -0.832559 0)
(2.08457 -0.828698 0)
(2.09598 -0.824672 0)
(2.1006 -0.824598 0)
(2.10403 -0.827378 0)
(2.10357 -0.832334 0)
(2.10005 -0.839324 0)
(2.10199 -0.843186 0)
(2.10637 -0.844399 0)
(2.11193 -0.844176 0)
(2.12205 -0.841742 0)
(2.13287 -0.837316 0)
(2.13796 -0.836444 0)
(2.14166 -0.838523 0)
(2.14344 -0.841361 0)
(2.14373 -0.844402 0)
(2.14648 -0.84627 0)
(2.15054 -0.847349 0)
(2.15496 -0.847823 0)
(2.15959 -0.847976 0)
(2.16376 -0.848881 0)
(2.16756 -0.849836 0)
(2.17091 -0.850532 0)
(2.17478 -0.851331 0)
(2.17876 -0.851935 0)
(2.18283 -0.852224 0)
(2.18671 -0.852762 0)
(2.1905 -0.853689 0)
(2.19395 -0.854771 0)
(2.19665 -0.855867 0)
(2.19924 -0.856597 0)
(2.20292 -0.856867 0)
(2.20695 -0.856781 0)
(2.21105 -0.856196 0)
(2.21496 -0.855874 0)
(2.21866 -0.856106 0)
(2.22201 -0.856548 0)
(2.22469 -0.857326 0)
(2.22623 -0.858827 0)
(2.22763 -0.860783 0)
(2.2311 -0.861953 0)
(2.23489 -0.862385 0)
(2.23909 -0.862004 0)
(2.24461 -0.860603 0)
(2.25094 -0.85795 0)
(2.25469 -0.857882 0)
(2.25892 -0.859232 0)
(2.26167 -0.860721 0)
(2.26272 -0.862923 0)
(2.26495 -0.865086 0)
(2.26874 -0.866168 0)
(2.27252 -0.866278 0)
(2.27786 -0.865557 0)
(2.28316 -0.863822 0)
(2.28693 -0.86348 0)
(2.29086 -0.863856 0)
(2.29358 -0.863911 0)
(2.29473 -0.86377 0)
(2.15197 0.654087 0)
(2.15489 0.648666 0)
(2.16142 0.648943 0)
(2.17184 0.648125 0)
(2.18176 0.64634 0)
(2.19049 0.644704 0)
(2.19817 0.642504 0)
(2.20236 0.636743 0)
(2.19677 0.622865 0)
(2.18663 0.605882 0)
(2.18917 0.600031 0)
(2.19607 0.599835 0)
(2.20535 0.598265 0)
(2.21736 0.597037 0)
(2.22627 0.594459 0)
(2.23437 0.59251 0)
(2.24124 0.590477 0)
(2.24648 0.587886 0)
(2.2464 0.580595 0)
(2.2356 0.564703 0)
(2.2323 0.552066 0)
(2.24011 0.549279 0)
(2.24808 0.546647 0)
(2.2573 0.543794 0)
(2.26569 0.540758 0)
(2.27308 0.537724 0)
(2.27949 0.533694 0)
(2.28356 0.527874 0)
(2.28102 0.518516 0)
(2.27456 0.507954 0)
(2.27931 0.506399 0)
(2.28583 0.504643 0)
(2.29317 0.501892 0)
(2.30124 0.499548 0)
(2.30874 0.496722 0)
(2.31515 0.493503 0)
(2.32069 0.490034 0)
(2.32362 0.483372 0)
(2.31874 0.469206 0)
(2.30942 0.452672 0)
(2.31143 0.447254 0)
(2.3175 0.446991 0)
(2.3251 0.444476 0)
(2.33437 0.442724 0)
(2.34417 0.442483 0)
(2.35318 0.441617 0)
(2.35934 0.439865 0)
(2.36549 0.438593 0)
(2.3712 0.436715 0)
(2.3737 0.430894 0)
(2.36699 0.41628 0)
(2.35676 0.399376 0)
(2.35948 0.394502 0)
(2.36547 0.39233 0)
(2.37167 0.388023 0)
(2.37914 0.383699 0)
(2.38581 0.38023 0)
(2.39199 0.377506 0)
(2.3978 0.375129 0)
(2.4027 0.373554 0)
(2.40726 0.372567 0)
(2.41058 0.370015 0)
(2.40925 0.362751 0)
(2.4037 0.351153 0)
(2.40442 0.342345 0)
(2.40934 0.338011 0)
(2.41461 0.33463 0)
(2.41963 0.330428 0)
(2.42319 0.324334 0)
(2.42367 0.315921 0)
(2.42266 0.307274 0)
(2.42592 0.30478 0)
(2.43028 0.30583 0)
(2.43839 0.307601 0)
(2.44789 0.309635 0)
(2.45372 0.309377 0)
(2.46028 0.305521 0)
(2.46515 0.299372 0)
(2.46882 0.292993 0)
(2.47123 0.285148 0)
(2.46863 0.273977 0)
(2.45924 0.258021 0)
(2.45015 0.244514 0)
(2.44962 0.240541 0)
(2.45271 0.241667 0)
(2.46163 0.245598 0)
(2.47796 0.255348 0)
(2.49528 0.263593 0)
(2.50214 0.263775 0)
(2.50883 0.260609 0)
(2.51437 0.255116 0)
(2.51618 0.246415 0)
(2.50885 0.230753 0)
(2.48877 0.203947 0)
(2.47345 0.183945 0)
(2.47391 0.17835 0)
(2.47718 0.178675 0)
(2.4853 0.180553 0)
(2.50051 0.189316 0)
(2.52135 0.203641 0)
(2.5358 0.21077 0)
(2.54006 0.21064 0)
(2.54515 0.20751 0)
(2.54835 0.202507 0)
(2.54562 0.192252 0)
(2.53098 0.172116 0)
(2.51238 0.147832 0)
(2.50852 0.13694 0)
(2.51191 0.135583 0)
(2.51678 0.135544 0)
(2.52841 0.138599 0)
(2.54649 0.148966 0)
(2.56359 0.158 0)
(2.56951 0.158986 0)
(2.57371 0.157163 0)
(2.57694 0.153246 0)
(2.57471 0.144941 0)
(2.56117 0.128211 0)
(2.54333 0.107223 0)
(2.53897 0.0978136 0)
(2.54142 0.0970491 0)
(2.54675 0.0973211 0)
(2.55928 0.101901 0)
(2.57752 0.112036 0)
(2.58913 0.116867 0)
(2.59264 0.116252 0)
(2.59658 0.113027 0)
(2.596 0.105564 0)
(2.58439 0.0899558 0)
(2.56774 0.0696203 0)
(2.56408 0.0604224 0)
(2.56676 0.0595579 0)
(2.57154 0.0591216 0)
(2.58249 0.062142 0)
(2.59915 0.0714374 0)
(2.61167 0.0775648 0)
(2.61458 0.0776451 0)
(2.61758 0.0757922 0)
(2.61748 0.0701818 0)
(2.60745 0.0568639 0)
(2.58773 0.0348461 0)
(2.57846 0.0216315 0)
(2.58045 0.0192193 0)
(2.58386 0.0190206 0)
(2.59254 0.020419 0)
(2.6086 0.0290467 0)
(2.62861 0.0413279 0)
(2.63795 0.0452233 0)
(2.64055 0.0445338 0)
(2.64332 0.0416039 0)
(2.64209 0.0345862 0)
(2.62964 0.0187142 0)
(2.60784 -0.00524553 0)
(2.5985 -0.0179981 0)
(2.60257 -0.0201622 0)
(2.60612 -0.0171408 0)
(2.61012 -0.0147837 0)
(2.58904 -0.0550844 0)
(2.48338 -0.220825 0)
(2.2439 -0.507375 0)
(2.18107 -0.587334 0)
(2.14648 -0.573808 0)
(2.14255 -0.57537 0)
(2.13129 -0.603409 0)
(2.1216 -0.630225 0)
(2.12085 -0.634551 0)
(2.13034 -0.6264 0)
(2.14922 -0.607535 0)
(2.16315 -0.600336 0)
(2.16624 -0.602989 0)
(2.15265 -0.617275 0)
(2.11569 -0.653392 0)
(2.03113 -0.712006 0)
(1.96258 -0.766589 0)
(1.95138 -0.768981 0)
(1.96309 -0.767891 0)
(1.96933 -0.768123 0)
(1.97501 -0.773541 0)
(1.97565 -0.783311 0)
(1.97234 -0.790653 0)
(1.9751 -0.793642 0)
(1.98038 -0.794582 0)
(1.99157 -0.794017 0)
(2.00513 -0.790229 0)
(2.01281 -0.789212 0)
(2.01662 -0.791151 0)
(2.01843 -0.7954 0)
(2.01628 -0.801482 0)
(2.01718 -0.805457 0)
(2.02231 -0.80721 0)
(2.0285 -0.807501 0)
(2.04003 -0.806181 0)
(2.0521 -0.803438 0)
(2.05756 -0.803875 0)
(2.06183 -0.807458 0)
(2.06198 -0.813639 0)
(2.05837 -0.821513 0)
(2.05993 -0.825744 0)
(2.06453 -0.827065 0)
(2.07079 -0.826802 0)
(2.08249 -0.823816 0)
(2.09512 -0.818573 0)
(2.1016 -0.817476 0)
(2.1052 -0.819691 0)
(2.10574 -0.824733 0)
(2.10206 -0.832391 0)
(2.10208 -0.837127 0)
(2.10623 -0.838656 0)
(2.11114 -0.838522 0)
(2.12068 -0.836555 0)
(2.13233 -0.831315 0)
(2.1392 -0.829232 0)
(2.14283 -0.830529 0)
(2.14494 -0.833179 0)
(2.14446 -0.83708 0)
(2.14606 -0.84015 0)
(2.15011 -0.84148 0)
(2.15438 -0.842057 0)
(2.15932 -0.842129 0)
(2.16377 -0.842543 0)
(2.16792 -0.843594 0)
(2.17138 -0.844334 0)
(2.17447 -0.844752 0)
(2.17832 -0.845423 0)
(2.18227 -0.845947 0)
(2.18624 -0.846302 0)
(2.19007 -0.847115 0)
(2.19381 -0.848259 0)
(2.19703 -0.849605 0)
(2.19963 -0.850848 0)
(2.20306 -0.851503 0)
(2.20709 -0.851631 0)
(2.2112 -0.851124 0)
(2.2152 -0.850616 0)
(2.21901 -0.850427 0)
(2.22245 -0.850508 0)
(2.22517 -0.851199 0)
(2.22676 -0.852883 0)
(2.22775 -0.85484 0)
(2.23049 -0.855715 0)
(2.23426 -0.856022 0)
(2.23826 -0.855838 0)
(2.24306 -0.854761 0)
(2.2498 -0.852645 0)
(2.25411 -0.851298 0)
(2.25828 -0.852248 0)
(2.26164 -0.85331 0)
(2.26279 -0.855253 0)
(2.26376 -0.857724 0)
(2.26747 -0.858981 0)
(2.27129 -0.859442 0)
(2.27568 -0.85913 0)
(2.2823 -0.858202 0)
(2.28714 -0.856954 0)
(2.29084 -0.857361 0)
(2.29442 -0.858011 0)
(2.2966 -0.858456 0)
(2.29795 -0.858455 0)
(2.15114 0.658442 0)
(2.15739 0.658924 0)
(2.16743 0.658566 0)
(2.17798 0.657139 0)
(2.18679 0.655478 0)
(2.19489 0.653566 0)
(2.20021 0.649016 0)
(2.19682 0.636674 0)
(2.18506 0.618729 0)
(2.18469 0.609685 0)
(2.19101 0.609667 0)
(2.19977 0.608089 0)
(2.21177 0.607312 0)
(2.22194 0.605429 0)
(2.2301 0.603388 0)
(2.23742 0.601456 0)
(2.24347 0.598866 0)
(2.24571 0.592864 0)
(2.23762 0.57907 0)
(2.22771 0.562479 0)
(2.23288 0.557202 0)
(2.24113 0.554672 0)
(2.2501 0.551392 0)
(2.25911 0.548881 0)
(2.26715 0.546538 0)
(2.27435 0.543897 0)
(2.28027 0.540335 0)
(2.28311 0.534731 0)
(2.27889 0.524856 0)
(2.27572 0.516152 0)
(2.28188 0.514123 0)
(2.28866 0.511406 0)
(2.29574 0.50843 0)
(2.30342 0.505902 0)
(2.31063 0.502866 0)
(2.31651 0.499129 0)
(2.32029 0.494249 0)
(2.31856 0.484131 0)
(2.30897 0.467512 0)
(2.3074 0.457131 0)
(2.31306 0.456974 0)
(2.32029 0.456012 0)
(2.32916 0.454489 0)
(2.33835 0.452744 0)
(2.34716 0.451896 0)
(2.35487 0.450381 0)
(2.36116 0.448557 0)
(2.36688 0.446407 0)
(2.37033 0.441695 0)
(2.36642 0.429767 0)
(2.35559 0.41187 0)
(2.35474 0.402442 0)
(2.36032 0.401988 0)
(2.36697 0.39938 0)
(2.37416 0.395341 0)
(2.38164 0.392153 0)
(2.38865 0.389739 0)
(2.39497 0.387671 0)
(2.40058 0.385939 0)
(2.4054 0.384435 0)
(2.40945 0.382225 0)
(2.40987 0.375699 0)
(2.40327 0.362624 0)
(2.39891 0.351107 0)
(2.4033 0.345808 0)
(2.40878 0.342656 0)
(2.41416 0.339174 0)
(2.41857 0.33465 0)
(2.4206 0.327832 0)
(2.42072 0.319991 0)
(2.42412 0.31757 0)
(2.4285 0.318834 0)
(2.43586 0.320315 0)
(2.4432 0.320822 0)
(2.44906 0.320085 0)
(2.45491 0.315964 0)
(2.45828 0.308779 0)
(2.46129 0.300765 0)
(2.46375 0.292702 0)
(2.46307 0.283246 0)
(2.45739 0.270445 0)
(2.45037 0.2584 0)
(2.45002 0.254376 0)
(2.453 0.255929 0)
(2.46111 0.259497 0)
(2.47521 0.266802 0)
(2.49012 0.272171 0)
(2.49621 0.27195 0)
(2.50305 0.268448 0)
(2.50877 0.263482 0)
(2.5117 0.256022 0)
(2.50701 0.242667 0)
(2.48968 0.218713 0)
(2.4729 0.197695 0)
(2.47147 0.190372 0)
(2.47428 0.190482 0)
(2.48178 0.192155 0)
(2.4965 0.200375 0)
(2.51716 0.214123 0)
(2.53143 0.220829 0)
(2.53594 0.220574 0)
(2.5414 0.217356 0)
(2.54503 0.212588 0)
(2.54341 0.202874 0)
(2.53015 0.184032 0)
(2.51082 0.159323 0)
(2.50526 0.147185 0)
(2.50823 0.145476 0)
(2.51289 0.1455 0)
(2.5243 0.148516 0)
(2.54246 0.159019 0)
(2.56019 0.168415 0)
(2.56669 0.16951 0)
(2.57114 0.167527 0)
(2.57483 0.163523 0)
(2.57354 0.155659 0)
(2.5614 0.139904 0)
(2.54253 0.118267 0)
(2.53616 0.10743 0)
(2.53833 0.106223 0)
(2.54296 0.106706 0)
(2.55466 0.110948 0)
(2.57287 0.121363 0)
(2.58667 0.127507 0)
(2.59041 0.127273 0)
(2.5947 0.124097 0)
(2.59501 0.116851 0)
(2.5846 0.101965 0)
(2.56657 0.0803721 0)
(2.56088 0.0692785 0)
(2.56347 0.0678211 0)
(2.56764 0.0675224 0)
(2.57801 0.0700225 0)
(2.5948 0.0793806 0)
(2.60976 0.0873796 0)
(2.61372 0.0881453 0)
(2.61659 0.0864427 0)
(2.61717 0.0812524 0)
(2.60836 0.0687812 0)
(2.58816 0.0463765 0)
(2.57584 0.0309398 0)
(2.57727 0.0275652 0)
(2.58036 0.0274891 0)
(2.58814 0.0285039 0)
(2.60339 0.0363725 0)
(2.6244 0.0497187 0)
(2.63629 0.0552808 0)
(2.63904 0.0549566 0)
(2.64201 0.0524495 0)
(2.64153 0.0461479 0)
(2.63043 0.0314567 0)
(2.60825 0.00652615 0)
(2.59584 -0.00837537 0)
(2.60005 -0.0112934 0)
(2.60263 -0.00900618 0)
(2.60468 -0.00970952 0)
(2.57897 -0.0621019 0)
(2.42988 -0.279355 0)
(2.28947 -0.436313 0)
(2.17843 -0.545261 0)
(2.12702 -0.601505 0)
(2.11612 -0.602832 0)
(2.12128 -0.599195 0)
(2.12032 -0.609641 0)
(2.12157 -0.611221 0)
(2.12741 -0.610086 0)
(2.14553 -0.603109 0)
(2.16321 -0.59671 0)
(2.16838 -0.597823 0)
(2.15867 -0.607197 0)
(2.13132 -0.636791 0)
(2.07239 -0.679412 0)
(1.98529 -0.740134 0)
(1.95622 -0.766849 0)
(1.96061 -0.765909 0)
(1.96861 -0.763358 0)
(1.97359 -0.764167 0)
(1.97804 -0.769743 0)
(1.97595 -0.77947 0)
(1.97543 -0.786771 0)
(1.98014 -0.788692 0)
(1.98837 -0.788814 0)
(2.00227 -0.78553 0)
(2.01309 -0.782872 0)
(2.01702 -0.783922 0)
(2.01955 -0.787745 0)
(2.01778 -0.794523 0)
(2.01646 -0.800697 0)
(2.021 -0.803166 0)
(2.0267 -0.803575 0)
(2.03694 -0.801691 0)
(2.04991 -0.797413 0)
(2.05718 -0.796466 0)
(2.06179 -0.799233 0)
(2.06302 -0.804651 0)
(2.05932 -0.8132 0)
(2.05928 -0.819278 0)
(2.06387 -0.821123 0)
(2.06951 -0.821047 0)
(2.08038 -0.818621 0)
(2.09368 -0.812765 0)
(2.10216 -0.810587 0)
(2.10595 -0.812309 0)
(2.10763 -0.816796 0)
(2.10468 -0.823604 0)
(2.10255 -0.829201 0)
(2.10622 -0.831016 0)
(2.11049 -0.831176 0)
(2.11862 -0.829984 0)
(2.13071 -0.825249 0)
(2.14009 -0.822243 0)
(2.14395 -0.822891 0)
(2.14694 -0.825204 0)
(2.14641 -0.828776 0)
(2.14588 -0.832475 0)
(2.14942 -0.83408 0)
(2.15353 -0.834878 0)
(2.15837 -0.835132 0)
(2.1634 -0.835409 0)
(2.16771 -0.836571 0)
(2.17184 -0.83786 0)
(2.17505 -0.838766 0)
(2.17813 -0.839229 0)
(2.18201 -0.839616 0)
(2.18592 -0.839743 0)
(2.18971 -0.840084 0)
(2.19341 -0.840962 0)
(2.19686 -0.842141 0)
(2.19977 -0.843409 0)
(2.20293 -0.844221 0)
(2.20692 -0.844649 0)
(2.21108 -0.844501 0)
(2.21528 -0.844065 0)
(2.21928 -0.843892 0)
(2.22298 -0.843993 0)
(2.226 -0.844407 0)
(2.22774 -0.84538 0)
(2.22813 -0.847033 0)
(2.22993 -0.848395 0)
(2.23363 -0.849007 0)
(2.23752 -0.84912 0)
(2.24192 -0.848493 0)
(2.24823 -0.846794 0)
(2.25379 -0.84458 0)
(2.25759 -0.84526 0)
(2.26147 -0.846688 0)
(2.26343 -0.848462 0)
(2.26364 -0.850383 0)
(2.26607 -0.851486 0)
(2.27014 -0.852084 0)
(2.27441 -0.852026 0)
(2.27981 -0.851241 0)
(2.28668 -0.849749 0)
(2.29031 -0.849485 0)
(2.29422 -0.850665 0)
(2.29726 -0.851673 0)
(2.2989 -0.852519 0)
(2.30114 -0.852928 0)
(2.15332 0.668412 0)
(2.16287 0.668623 0)
(2.17446 0.667923 0)
(2.183 0.666153 0)
(2.19149 0.664505 0)
(2.19759 0.660909 0)
(2.19613 0.649988 0)
(2.18405 0.631797 0)
(2.1802 0.619853 0)
(2.1859 0.61908 0)
(2.1939 0.617765 0)
(2.20582 0.616945 0)
(2.21753 0.615716 0)
(2.22557 0.613717 0)
(2.23356 0.61194 0)
(2.24002 0.609735 0)
(2.24403 0.605467 0)
(2.2395 0.593691 0)
(2.22605 0.575113 0)
(2.22626 0.565329 0)
(2.23378 0.564126 0)
(2.24334 0.560462 0)
(2.25272 0.557262 0)
(2.26127 0.555462 0)
(2.26891 0.5537 0)
(2.27565 0.551507 0)
(2.28107 0.548429 0)
(2.2824 0.542618 0)
(2.27683 0.531647 0)
(2.27734 0.523739 0)
(2.28387 0.521207 0)
(2.29073 0.517985 0)
(2.29792 0.514513 0)
(2.30524 0.511523 0)
(2.312 0.508141 0)
(2.31697 0.503706 0)
(2.31759 0.496503 0)
(2.31029 0.483408 0)
(2.30442 0.469897 0)
(2.30907 0.467685 0)
(2.31574 0.46625 0)
(2.32399 0.465571 0)
(2.33383 0.464428 0)
(2.34115 0.461894 0)
(2.34904 0.460306 0)
(2.35625 0.458326 0)
(2.36232 0.455761 0)
(2.36653 0.451494 0)
(2.36473 0.441693 0)
(2.3544 0.425096 0)
(2.35068 0.412707 0)
(2.3558 0.411368 0)
(2.36194 0.409907 0)
(2.36957 0.407245 0)
(2.37735 0.404259 0)
(2.38489 0.402133 0)
(2.39197 0.400228 0)
(2.39804 0.398136 0)
(2.40329 0.396314 0)
(2.40771 0.393705 0)
(2.4092 0.387831 0)
(2.40325 0.374968 0)
(2.39478 0.360577 0)
(2.39678 0.353559 0)
(2.40269 0.350652 0)
(2.40851 0.347583 0)
(2.4138 0.343893 0)
(2.41765 0.339408 0)
(2.4202 0.334229 0)
(2.42358 0.332277 0)
(2.42759 0.332588 0)
(2.43418 0.333453 0)
(2.43939 0.333409 0)
(2.44526 0.330349 0)
(2.44828 0.323638 0)
(2.45025 0.316146 0)
(2.45361 0.308862 0)
(2.45674 0.301432 0)
(2.45777 0.293116 0)
(2.45464 0.282423 0)
(2.44928 0.271374 0)
(2.44921 0.267292 0)
(2.45258 0.268949 0)
(2.46038 0.272869 0)
(2.47293 0.279122 0)
(2.48547 0.28181 0)
(2.49086 0.280323 0)
(2.49726 0.276238 0)
(2.50286 0.271291 0)
(2.50639 0.264512 0)
(2.50399 0.253124 0)
(2.49036 0.232751 0)
(2.47369 0.212247 0)
(2.47038 0.203529 0)
(2.47267 0.203362 0)
(2.47925 0.204828 0)
(2.49291 0.211926 0)
(2.51253 0.224317 0)
(2.52631 0.229992 0)
(2.53096 0.229507 0)
(2.53681 0.226301 0)
(2.54093 0.221878 0)
(2.54053 0.213154 0)
(2.52931 0.196028 0)
(2.5101 0.171603 0)
(2.5026 0.15833 0)
(2.50505 0.156082 0)
(2.50934 0.156141 0)
(2.52033 0.158983 0)
(2.53834 0.169279 0)
(2.55643 0.17868 0)
(2.56332 0.179782 0)
(2.56806 0.177602 0)
(2.57222 0.173479 0)
(2.57211 0.166175 0)
(2.56178 0.151593 0)
(2.54244 0.129758 0)
(2.53367 0.117444 0)
(2.53543 0.115554 0)
(2.53942 0.116123 0)
(2.5502 0.119973 0)
(2.56819 0.130492 0)
(2.5836 0.137954 0)
(2.58787 0.137914 0)
(2.59251 0.13505 0)
(2.59371 0.128182 0)
(2.58492 0.114177 0)
(2.56629 0.0918254 0)
(2.55782 0.0787308 0)
(2.5601 0.076387 0)
(2.56381 0.0761498 0)
(2.57343 0.0780628 0)
(2.59007 0.0871431 0)
(2.60706 0.0967906 0)
(2.61268 0.0984111 0)
(2.61531 0.0969035 0)
(2.61669 0.0921945 0)
(2.60923 0.0806362 0)
(2.589 0.0583412 0)
(2.57376 0.0404413 0)
(2.57412 0.0359446 0)
(2.57704 0.0359113 0)
(2.58402 0.0366696 0)
(2.59838 0.0435887 0)
(2.61996 0.0576443 0)
(2.63463 0.0653907 0)
(2.63765 0.0654378 0)
(2.64083 0.0631369 0)
(2.641 0.0574354 0)
(2.63123 0.0439179 0)
(2.60876 0.0188944 0)
(2.59337 0.00141 0)
(2.59728 -0.00288125 0)
(2.59904 -0.000484573 0)
(2.59937 -0.00457498 0)
(2.55442 -0.0804934 0)
(2.39855 -0.314627 0)
(2.27501 -0.453825 0)
(2.18194 -0.51807 0)
(2.14848 -0.570539 0)
(2.11177 -0.606447 0)
(2.09962 -0.615658 0)
(2.10987 -0.611845 0)
(2.12197 -0.608036 0)
(2.13353 -0.605746 0)
(2.14972 -0.596894 0)
(2.16444 -0.589303 0)
(2.17022 -0.589673 0)
(2.16794 -0.596779 0)
(2.14297 -0.623578 0)
(2.09728 -0.660284 0)
(2.00548 -0.721735 0)
(1.96377 -0.756718 0)
(1.96336 -0.757635 0)
(1.97081 -0.758001 0)
(1.97407 -0.757818 0)
(1.97808 -0.760737 0)
(1.97783 -0.769335 0)
(1.97607 -0.777293 0)
(1.98083 -0.78041 0)
(1.98723 -0.781147 0)
(1.99961 -0.779693 0)
(2.01242 -0.776394 0)
(2.01787 -0.776615 0)
(2.02108 -0.779995 0)
(2.02024 -0.786185 0)
(2.01727 -0.793195 0)
(2.02031 -0.796486 0)
(2.02529 -0.797207 0)
(2.03399 -0.796045 0)
(2.04726 -0.791779 0)
(2.05702 -0.789578 0)
(2.06173 -0.791415 0)
(2.06427 -0.79622 0)
(2.06128 -0.803689 0)
(2.05865 -0.810466 0)
(2.06284 -0.812719 0)
(2.06784 -0.813095 0)
(2.07749 -0.81195 0)
(2.09132 -0.806743 0)
(2.10197 -0.803645 0)
(2.10634 -0.804678 0)
(2.10915 -0.808526 0)
(2.10693 -0.815411 0)
(2.10297 -0.822851 0)
(2.10574 -0.825725 0)
(2.10984 -0.826219 0)
(2.11665 -0.825047 0)
(2.1284 -0.820523 0)
(2.13979 -0.816032 0)
(2.14457 -0.815708 0)
(2.14825 -0.818139 0)
(2.1489 -0.821898 0)
(2.14721 -0.825882 0)
(2.14921 -0.827741 0)
(2.15311 -0.828507 0)
(2.15756 -0.828418 0)
(2.16284 -0.828075 0)
(2.16724 -0.828916 0)
(2.17159 -0.830449 0)
(2.17532 -0.831825 0)
(2.17829 -0.832902 0)
(2.1819 -0.833417 0)
(2.18584 -0.833616 0)
(2.18967 -0.833845 0)
(2.19338 -0.834477 0)
(2.19679 -0.835481 0)
(2.19964 -0.836831 0)
(2.20254 -0.838146 0)
(2.20645 -0.839139 0)
(2.21054 -0.839544 0)
(2.21501 -0.839315 0)
(2.21929 -0.839022 0)
(2.22334 -0.839092 0)
(2.227 -0.839336 0)
(2.22945 -0.839966 0)
(2.22977 -0.841521 0)
(2.2301 -0.843164 0)
(2.23328 -0.843719 0)
(2.23701 -0.843705 0)
(2.24111 -0.843099 0)
(2.24668 -0.8416 0)
(2.25325 -0.839181 0)
(2.25701 -0.839064 0)
(2.26124 -0.840263 0)
(2.26395 -0.841272 0)
(2.26421 -0.842976 0)
(2.26533 -0.845032 0)
(2.2693 -0.845965 0)
(2.27351 -0.846156 0)
(2.27827 -0.84546 0)
(2.2849 -0.843791 0)
(2.29002 -0.842039 0)
(2.29368 -0.842787 0)
(2.29718 -0.843829 0)
(2.29921 -0.8449 0)
(2.30087 -0.845845 0)
(2.30449 -0.846425 0)
(2.15819 0.678164 0)
(2.17082 0.678399 0)
(2.17928 0.676607 0)
(2.18797 0.674984 0)
(2.19469 0.671958 0)
(2.1946 0.66228 0)
(2.18309 0.644597 0)
(2.17588 0.630418 0)
(2.18066 0.627894 0)
(2.18791 0.627202 0)
(2.19908 0.626193 0)
(2.21276 0.625747 0)
(2.2209 0.62362 0)
(2.22927 0.622191 0)
(2.23624 0.620325 0)
(2.24147 0.617009 0)
(2.24044 0.607863 0)
(2.22714 0.5899 0)
(2.22104 0.575093 0)
(2.22753 0.572871 0)
(2.23614 0.570506 0)
(2.24674 0.567225 0)
(2.2558 0.564819 0)
(2.26415 0.563664 0)
(2.2714 0.562354 0)
(2.27761 0.560526 0)
(2.2815 0.557412 0)
(2.27933 0.549061 0)
(2.27418 0.535985 0)
(2.27907 0.530514 0)
(2.28558 0.527726 0)
(2.2926 0.524242 0)
(2.29965 0.520616 0)
(2.30645 0.517204 0)
(2.31256 0.513214 0)
(2.31593 0.507597 0)
(2.31208 0.497267 0)
(2.30354 0.483918 0)
(2.30554 0.479348 0)
(2.31162 0.477749 0)
(2.31928 0.475366 0)
(2.32782 0.474539 0)
(2.33665 0.472715 0)
(2.34339 0.469944 0)
(2.35039 0.467935 0)
(2.35717 0.46533 0)
(2.36223 0.461116 0)
(2.36253 0.452817 0)
(2.35361 0.438403 0)
(2.34689 0.424379 0)
(2.35116 0.421125 0)
(2.35741 0.420477 0)
(2.36477 0.418556 0)
(2.37291 0.416109 0)
(2.38072 0.413903 0)
(2.38824 0.412259 0)
(2.39507 0.410062 0)
(2.40073 0.407323 0)
(2.40545 0.404588 0)
(2.40805 0.399855 0)
(2.404 0.388337 0)
(2.39275 0.371639 0)
(2.39068 0.361352 0)
(2.39618 0.358562 0)
(2.40219 0.356181 0)
(2.40836 0.353063 0)
(2.41384 0.349905 0)
(2.41867 0.347418 0)
(2.42318 0.347238 0)
(2.4279 0.347552 0)
(2.43373 0.346982 0)
(2.43789 0.346216 0)
(2.44224 0.341993 0)
(2.44254 0.331852 0)
(2.44286 0.321826 0)
(2.44554 0.315267 0)
(2.44937 0.309767 0)
(2.45214 0.303052 0)
(2.45157 0.294138 0)
(2.44767 0.284039 0)
(2.44773 0.279734 0)
(2.45128 0.280914 0)
(2.45859 0.28407 0)
(2.4699 0.289845 0)
(2.48009 0.292099 0)
(2.48566 0.28972 0)
(2.49201 0.285127 0)
(2.49729 0.280012 0)
(2.50098 0.273459 0)
(2.50024 0.262909 0)
(2.48965 0.245291 0)
(2.47449 0.226209 0)
(2.4702 0.216975 0)
(2.47237 0.216757 0)
(2.47789 0.218233 0)
(2.4903 0.224283 0)
(2.50821 0.23481 0)
(2.52101 0.239024 0)
(2.52556 0.23807 0)
(2.53141 0.234436 0)
(2.53585 0.230275 0)
(2.5368 0.222663 0)
(2.52806 0.207631 0)
(2.50986 0.18454 0)
(2.50048 0.170126 0)
(2.50236 0.167097 0)
(2.50629 0.167389 0)
(2.51672 0.170104 0)
(2.53423 0.179877 0)
(2.55226 0.188797 0)
(2.5593 0.18971 0)
(2.56441 0.187264 0)
(2.56903 0.183037 0)
(2.57004 0.176363 0)
(2.56205 0.163217 0)
(2.54347 0.142005 0)
(2.53204 0.127916 0)
(2.53285 0.125099 0)
(2.53632 0.125767 0)
(2.54607 0.129221 0)
(2.56314 0.139297 0)
(2.57991 0.147699 0)
(2.58501 0.148204 0)
(2.58979 0.14554 0)
(2.59204 0.139221 0)
(2.58511 0.126347 0)
(2.56673 0.104144 0)
(2.55545 0.0888062 0)
(2.55694 0.0853969 0)
(2.56023 0.0851774 0)
(2.56893 0.0865428 0)
(2.585 0.094911 0)
(2.60359 0.105669 0)
(2.61118 0.108335 0)
(2.6138 0.107068 0)
(2.61579 0.102784 0)
(2.60987 0.0922422 0)
(2.59031 0.0706532 0)
(2.57221 0.0503643 0)
(2.57106 0.0443572 0)
(2.57385 0.0442619 0)
(2.58011 0.0448575 0)
(2.59352 0.0509057 0)
(2.61512 0.0651276 0)
(2.63257 0.0750485 0)
(2.63659 0.0757805 0)
(2.63972 0.0738325 0)
(2.64057 0.0684843 0)
(2.63221 0.0561612 0)
(2.61001 0.0315694 0)
(2.59151 0.0118904 0)
(2.59393 0.00565183 0)
(2.59559 0.00807134 0)
(2.59224 -0.00207614 0)
(2.53983 -0.0804666 0)
(2.37113 -0.317766 0)
(2.21947 -0.525092 0)
(2.16905 -0.537641 0)
(2.15733 -0.538475 0)
(2.14538 -0.562366 0)
(2.12063 -0.59417 0)
(2.10686 -0.606741 0)
(2.11128 -0.60508 0)
(2.12425 -0.595596 0)
(2.14647 -0.583166 0)
(2.16438 -0.573492 0)
(2.17071 -0.57468 0)
(2.17163 -0.582505 0)
(2.15131 -0.60622 0)
(2.11948 -0.641624 0)
(2.04138 -0.694332 0)
(1.97419 -0.74947 0)
(1.96425 -0.75266 0)
(1.97284 -0.751452 0)
(1.97678 -0.750902 0)
(1.98008 -0.75286 0)
(1.98021 -0.760199 0)
(1.97681 -0.769275 0)
(1.98051 -0.773627 0)
(1.98639 -0.774683 0)
(1.99775 -0.773705 0)
(2.01142 -0.769607 0)
(2.01862 -0.768673 0)
(2.0223 -0.771295 0)
(2.02268 -0.77698 0)
(2.01886 -0.785284 0)
(2.01988 -0.790337 0)
(2.02446 -0.791642 0)
(2.03178 -0.791149 0)
(2.0445 -0.787441 0)
(2.05624 -0.784044 0)
(2.06126 -0.784962 0)
(2.06506 -0.789029 0)
(2.06353 -0.796184 0)
(2.05901 -0.804262 0)
(2.06179 -0.807252 0)
(2.0665 -0.80777 0)
(2.07455 -0.80639 0)
(2.08806 -0.801189 0)
(2.10076 -0.796618 0)
(2.10583 -0.796813 0)
(2.10968 -0.800353 0)
(2.10918 -0.806741 0)
(2.10427 -0.814165 0)
(2.10493 -0.817519 0)
(2.10911 -0.818161 0)
(2.11457 -0.817153 0)
(2.1254 -0.814157 0)
(2.13781 -0.809131 0)
(2.14481 -0.807963 0)
(2.14833 -0.809878 0)
(2.15034 -0.81376 0)
(2.14911 -0.818551 0)
(2.14957 -0.821518 0)
(2.15334 -0.822347 0)
(2.15744 -0.822147 0)
(2.16257 -0.821128 0)
(2.16703 -0.821001 0)
(2.17142 -0.822489 0)
(2.17527 -0.823956 0)
(2.17824 -0.825415 0)
(2.18156 -0.826454 0)
(2.18557 -0.827046 0)
(2.18954 -0.827294 0)
(2.19343 -0.82766 0)
(2.19705 -0.828254 0)
(2.19995 -0.8291 0)
(2.20227 -0.830217 0)
(2.20578 -0.831185 0)
(2.20978 -0.831895 0)
(2.21408 -0.832229 0)
(2.21877 -0.832086 0)
(2.22308 -0.832187 0)
(2.22717 -0.832909 0)
(2.23062 -0.833821 0)
(2.23217 -0.834998 0)
(2.23159 -0.83632 0)
(2.23318 -0.836801 0)
(2.2369 -0.836838 0)
(2.24082 -0.836449 0)
(2.24538 -0.835336 0)
(2.25192 -0.833463 0)
(2.25662 -0.832171 0)
(2.26072 -0.83337 0)
(2.2643 -0.834895 0)
(2.2657 -0.836923 0)
(2.26583 -0.838808 0)
(2.26878 -0.839326 0)
(2.27292 -0.839465 0)
(2.27737 -0.839023 0)
(2.28296 -0.837502 0)
(2.28937 -0.834975 0)
(2.29291 -0.834816 0)
(2.29678 -0.835856 0)
(2.29934 -0.836876 0)
(2.30062 -0.838164 0)
(2.30367 -0.839166 0)
(2.30741 -0.839622 0)
(2.16664 0.688606 0)
(2.1757 0.687034 0)
(2.18421 0.68513 0)
(2.19146 0.682089 0)
(2.19238 0.673317 0)
(2.18206 0.656596 0)
(2.17204 0.640509 0)
(2.17547 0.636056 0)
(2.18224 0.636094 0)
(2.19221 0.634913 0)
(2.20678 0.635294 0)
(2.21662 0.633671 0)
(2.22453 0.632145 0)
(2.23204 0.63077 0)
(2.23807 0.628131 0)
(2.23957 0.620783 0)
(2.22914 0.60513 0)
(2.21795 0.587516 0)
(2.22186 0.581788 0)
(2.22977 0.580173 0)
(2.24016 0.577693 0)
(2.25079 0.5753 0)
(2.25934 0.573823 0)
(2.26743 0.572966 0)
(2.27436 0.571662 0)
(2.27981 0.569438 0)
(2.28043 0.563555 0)
(2.27332 0.549758 0)
(2.27344 0.539902 0)
(2.28032 0.536879 0)
(2.28728 0.53342 0)
(2.29454 0.529944 0)
(2.30122 0.526689 0)
(2.30748 0.52299 0)
(2.31245 0.518325 0)
(2.31278 0.511041 0)
(2.3048 0.498125 0)
(2.30227 0.489873 0)
(2.30808 0.48974 0)
(2.31474 0.4869 0)
(2.32252 0.483947 0)
(2.33071 0.482318 0)
(2.33853 0.47987 0)
(2.34504 0.47696 0)
(2.35134 0.4746 0)
(2.35728 0.471093 0)
(2.3598 0.464134 0)
(2.35379 0.451293 0)
(2.34427 0.437014 0)
(2.34609 0.431526 0)
(2.35259 0.431006 0)
(2.36005 0.429333 0)
(2.3683 0.427639 0)
(2.37601 0.424971 0)
(2.38369 0.423055 0)
(2.39108 0.421188 0)
(2.39746 0.418551 0)
(2.40271 0.415128 0)
(2.40608 0.410815 0)
(2.4045 0.401952 0)
(2.39345 0.385577 0)
(2.38617 0.370851 0)
(2.39041 0.366561 0)
(2.3961 0.364784 0)
(2.40249 0.362336 0)
(2.40915 0.360227 0)
(2.41546 0.359725 0)
(2.42151 0.360329 0)
(2.4279 0.36119 0)
(2.43311 0.361173 0)
(2.43787 0.359292 0)
(2.44039 0.352769 0)
(2.43844 0.341881 0)
(2.43664 0.329732 0)
(2.43839 0.321146 0)
(2.44242 0.316197 0)
(2.4464 0.311682 0)
(2.44779 0.305027 0)
(2.44555 0.296303 0)
(2.4466 0.292312 0)
(2.45026 0.293419 0)
(2.45636 0.295235 0)
(2.46625 0.298529 0)
(2.4738 0.300333 0)
(2.47995 0.299129 0)
(2.4866 0.294561 0)