/*--------------------------------*- C++ -*----------------------------------*\
  =========                 |
  \\      /  F ield         | OpenFOAM: The Open Source CFD Toolbox
   \\    /   O peration     | Website:  https://openfoam.org
    \\  /    A nd           | Version:  7
     \\/     M anipulation  |
\*---------------------------------------------------------------------------*/
FoamFile
{
    version     2.0;
    format      ascii;
    class       volScalarField;
    location    "0.5";
    object      p;
}
// * * * * * * * * * * * * * * * * * * * * * * * * * * * * * * * * * * * * * //

dimensions      [1 -1 -2 0 0 0 0];

internalField   nonuniform List<scalar> 
16192
(
1.07399
1.08675
1.08899
1.08883
1.08813
1.08735
1.08547
1.08288
1.08267
1.08284
1.08291
1.0829
1.08293
1.08266
1.08122
1.08013
1.08056
1.081
1.08095
1.081
1.08133
1.0818
1.08264
1.08462
1.0894
1.0986
1.10714
1.10979
1.11044
1.11083
1.11107
1.11115
1.11124
1.11165
1.1128
1.11581
1.11868
1.11897
1.11849
1.11738
1.1158
1.11438
1.11346
1.11282
1.11281
1.11274
1.1113
1.10472
1.0952
1.09238
1.09252
1.0928
1.09295
1.09289
1.09261
1.09159
1.08836
1.08123
1.07355
1.07111
1.07119
1.07145
1.07196
1.0732
1.07457
1.07497
1.07512
1.07521
1.07485
1.07211
1.06607
1.06306
1.06317
1.06379
1.06485
1.0668
1.07027
1.07378
1.07468
1.07474
1.07479
1.07479
1.07425
1.07154
1.06477
1.05851
1.05745
1.05752
1.05761
1.05769
1.05789
1.05843
1.06019
1.06567
1.07576
1.08193
1.08306
1.0835
1.08376
1.08347
1.08057
1.0745
1.07152
1.07154
1.07175
1.07189
1.07204
1.0723
1.07294
1.07443
1.07554
1.07567
1.07569
1.07536
1.07404
1.07339
1.07363
1.07424
1.07509
1.07676
1.08157
1.09376
1.10769
1.11074
1.10997
1.10677
1.09435
1.05832
1.01378
1.0005
1
1
1
1
1
1
1
1
1
1
1
1
1
1
1
1
1
1
1
1
1
1
1
1
1
1
1
1
1
1
1
1
1
1
1
1
1
1
1
1
1
1
1
1
1
1
1
1
1
1
1
1
1
1
1
1
1
1
1
1
1
1
1
1
1
1
1
1
1
1
1
1
1
1
1
1
1
1
1
1
1
1
1
1
1
1
1
1
1
1
1
1
1
1
1
1
1
1
1
1
1
1
1
1
1
1
1
1
1
1
1
1
1
1
1
1
1
1
1
1
1
1
1
1.08269
1.08886
1.08935
1.08897
1.08823
1.08696
1.08369
1.08175
1.08177
1.08223
1.08291
1.08327
1.08348
1.08356
1.08369
1.08354
1.08297
1.08342
1.08397
1.08407
1.08434
1.08496
1.08615
1.08893
1.09537
1.10526
1.11086
1.11187
1.11223
1.11243
1.1119
1.11053
1.11006
1.11001
1.11028
1.1113
1.11379
1.11538
1.11543
1.11528
1.11502
1.11436
1.11392
1.11418
1.11426
1.11404
1.11204
1.104
1.09422
1.09208
1.0923
1.09254
1.09247
1.09186
1.09078
1.08898
1.08543
1.07912
1.07338
1.07272
1.07304
1.07346
1.0742
1.07571
1.077
1.07729
1.07742
1.07748
1.07695
1.07395
1.06837
1.06567
1.06572
1.06623
1.06698
1.06809
1.07028
1.07339
1.07461
1.07472
1.07478
1.07478
1.07406
1.07077
1.06357
1.05824
1.05757
1.05764
1.05772
1.05781
1.05807
1.05893
1.06155
1.06887
1.08042
1.08612
1.08698
1.08733
1.08754
1.08708
1.08365
1.07701
1.07301
1.07243
1.07245
1.07253
1.07262
1.07278
1.07322
1.07444
1.07621
1.07675
1.07681
1.07671
1.07665
1.07664
1.07679
1.07732
1.07872
1.08299
1.09412
1.10804
1.11244
1.11252
1.11017
1.09767
1.06084
1.01477
1.00057
1
1
1
1
1
1
1
1
1
1
1
1
1
1
1
1
1
1
1
1
1
1
1
1
1
1
1
1
1
1
1
1
1
1
1
1
1
1
1
1
1
1
1
1
1
1
1
1
1
1
1
1
1
1
1
1
1
1
1
1
1
1
1
1
1
1
1
1
1
1
1
1
1
1
1
1
1
1
1
1
1
1
1
1
1
1
1
1
1
1
1
1
1
1
1
1
1
1
1
1
1
1
1
1
1
1
1
1
1
1
1
1
1
1
1
1
1
1
1
1
1
1
1
1
1.08767
1.0898
1.0898
1.08934
1.08836
1.08553
1.08193
1.08144
1.08181
1.08217
1.08255
1.08344
1.08496
1.08606
1.08667
1.08697
1.08666
1.08616
1.08677
1.08741
1.08791
1.08874
1.09032
1.09394
1.10141
1.1095
1.11206
1.11244
1.11264
1.11254
1.11138
1.10852
1.10672
1.10634
1.10631
1.10763
1.11203
1.11489
1.11518
1.11519
1.11505
1.11509
1.11552
1.11586
1.11585
1.1154
1.11208
1.10248
1.09295
1.09124
1.09136
1.09141
1.09105
1.08997
1.08853
1.08677
1.08393
1.07871
1.07487
1.07478
1.0753
1.07588
1.0767
1.07816
1.07954
1.07999
1.08018
1.08024
1.07958
1.07623
1.06997
1.06716
1.06711
1.06731
1.06766
1.06841
1.07031
1.07344
1.07491
1.07503
1.07508
1.07501
1.07402
1.07001
1.0624
1.05809
1.05786
1.05804
1.05814
1.05823
1.0584
1.05932
1.06335
1.074
1.08633
1.0903
1.09088
1.09119
1.09133
1.09055
1.08604
1.07785
1.0735
1.0731
1.07322
1.07341
1.07355
1.07371
1.07412
1.07515
1.0764
1.07718
1.07768
1.07825
1.079
1.07998
1.08113
1.08269
1.08661
1.09713
1.11073
1.11436
1.11354
1.11033
1.0984
1.0624
1.01565
1.00064
1
1
1
1
1
1
1
1
1
1
1
1
1
1
1
1
1
1
1
1
1
1
1
1
1
1
1
1
1
1
1
1
1
1
1
1
1
1
1
1
1
1
1
1
1
1
1
1
1
1
1
1
1
1
1
1
1
1
1
1
1
1
1
1
1
1
1
1
1
1
1
1
1
1
1
1
1
1
1
1
1
1
1
1
1
1
1
1
1
1
1
1
1
1
1
1
1
1
1
1
1
1
1
1
1
1
1
1
1
1
1
1
1
1
1
1
1
1
1
1
1
1
1
1
1
1.09062
1.09113
1.09108
1.09058
1.08826
1.08345
1.08136
1.08137
1.08177
1.08245
1.08379
1.0865
1.08918
1.09024
1.09074
1.09106
1.09094
1.08954
1.08959
1.09034
1.0912
1.09219
1.09382
1.09746
1.10429
1.11012
1.11161
1.1119
1.112
1.11126
1.10836
1.10394
1.10243
1.10241
1.10318
1.10684
1.11255
1.11493
1.11523
1.11543
1.11571
1.11604
1.11618
1.11622
1.11613
1.11539
1.11126
1.10091
1.09201
1.09035
1.09026
1.09011
1.08946
1.08836
1.08726
1.08599
1.08355
1.07931
1.07708
1.07729
1.07782
1.07849
1.07947
1.08108
1.08253
1.08304
1.08325
1.0832
1.08151
1.07552
1.06891
1.06728
1.06728
1.06742
1.06773
1.06846
1.07048
1.07384
1.07544
1.07558
1.07562
1.07545
1.07401
1.06909
1.0613
1.05811
1.05815
1.05843
1.05869
1.05899
1.05954
1.06147
1.06828
1.08215
1.09205
1.09388
1.09425
1.09447
1.09444
1.09288
1.08662
1.07739
1.07341
1.07324
1.07338
1.07356
1.07379
1.07416
1.07492
1.07627
1.07819
1.0804
1.08193
1.08256
1.08254
1.08233
1.08304
1.08683
1.09766
1.11213
1.11702
1.11711
1.11457
1.10147
1.06351
1.01577
1.00064
1
1
1
1
1
1
1
1
1
1
1
1
1
1
1
1
1
1
1
1
1
1
1
1
1
1
1
1
1
1
1
1
1
1
1
1
1
1
1
1
1
1
1
1
1
1
1
1
1
1
1
1
1
1
1
1
1
1
1
1
1
1
1
1
1
1
1
1
1
1
1
1
1
1
1
1
1
1
1
1
1
1
1
1
1
1
1
1
1
1
1
1
1
1
1
1
1
1
1
1
1
1
1
1
1
1
1
1
1
1
1
1
1
1
1
1
1
1
1
1
1
1
1
1
1
1
1.09281
1.09299
1.09301
1.09173
1.08702
1.08265
1.08176
1.08178
1.08207
1.08344
1.08712
1.09206
1.09419
1.09487
1.09538
1.09572
1.09547
1.09337
1.09259
1.093
1.0935
1.09431
1.09602
1.10015
1.10644
1.11002
1.11061
1.11069
1.11011
1.10748
1.10236
1.09963
1.09955
1.10017
1.10252
1.10805
1.11383
1.11543
1.11577
1.11607
1.11637
1.11653
1.11662
1.11669
1.1166
1.1153
1.11003
1.09898
1.09057
1.08922
1.0892
1.08912
1.08868
1.08786
1.08688
1.08572
1.08393
1.08151
1.07971
1.07988
1.08056
1.08136
1.08263
1.08449
1.08564
1.08602
1.08618
1.08568
1.08166
1.07314
1.06773
1.06714
1.06717
1.06732
1.06764
1.06845
1.07074
1.07455
1.07627
1.07642
1.07645
1.07607
1.07398
1.06828
1.06102
1.05878
1.0589
1.05908
1.05915
1.05928
1.06015
1.06441
1.07656
1.09136
1.09621
1.09676
1.09701
1.09713
1.09678
1.09377
1.08575
1.07714
1.07437
1.0743
1.07445
1.07465
1.07485
1.07505
1.07542
1.07674
1.07994
1.08319
1.08463
1.08547
1.08631
1.08737
1.09043
1.10002
1.11408
1.1189
1.11868
1.11562
1.10272
1.06426
1.01573
1.00062
1
1
1
1
1
1
1
1
1
1
1
1
1
1
1
1
1
1
1
1
1
1
1
1
1
1
1
1
1
1
1
1
1
1
1
1
1
1
1
1
1
1
1
1
1
1
1
1
1
1
1
1
1
1
1
1
1
1
1
1
1
1
1
1
1
1
1
1
1
1
1
1
1
1
1
1
1
1
1
1
1
1
1
1
1
1
1
1
1
1
1
1
1
1
1
1
1
1
1
1
1
1
1
1
1
1
1
1
1
1
1
1
1
1
1
1
1
1
1
1
1
1
1
1
1
1
1
1.09558
1.0959
1.09547
1.09119
1.08513
1.08291
1.08268
1.08288
1.08399
1.08756
1.09409
1.09764
1.09831
1.0987
1.09906
1.09918
1.09742
1.09316
1.09237
1.09293
1.09377
1.09491
1.09726
1.1022
1.1076
1.10907
1.10896
1.10832
1.10596
1.10136
1.09862
1.09847
1.09888
1.09994
1.1032
1.11014
1.11512
1.11604
1.11629
1.11647
1.1166
1.11669
1.11672
1.11667
1.1163
1.11424
1.10787
1.09649
1.08919
1.08838
1.08844
1.08841
1.08822
1.08779
1.08691
1.0858
1.08523
1.08481
1.08349
1.0828
1.08339
1.08447
1.08601
1.08747
1.08804
1.08833
1.08839
1.08667
1.07945
1.07007
1.06721
1.06707
1.06708
1.06719
1.0675
1.06855
1.07153
1.07592
1.07753
1.07766
1.07767
1.07709
1.07428
1.06721
1.06063
1.05952
1.05974
1.06
1.06023
1.06071
1.06293
1.07136
1.08777
1.09753
1.09872
1.09893
1.09908
1.09912
1.09827
1.09389
1.08422
1.07667
1.0755
1.07557
1.07576
1.07603
1.07641
1.07705
1.07845
1.08186
1.08562
1.08641
1.08633
1.08628
1.08716
1.09144
1.10325
1.11834
1.12282
1.12242
1.11897
1.10455
1.06408
1.0152
1.00058
1
1
1
1
1
1
1
1
1
1
1
1
1
1
1
1
1
1
1
1
1
1
1
1
1
1
1
1
1
1
1
1
1
1
1
1
1
1
1
1
1
1
1
1
1
1
1
1
1
1
1
1
1
1
1
1
1
1
1
1
1
1
1
1
1
1
1
1
1
1
1
1
1
1
1
1
1
1
1
1
1
1
1
1
1
1
1
1
1
1
1
1
1
1
1
1
1
1
1
1
1
1
1
1
1
1
1
1
1
1
1
1
1
1
1
1
1
1
1
1
1
1
1
1
1
1
1
1
1.09919
1.09935
1.0961
1.08875
1.08474
1.08421
1.08425
1.0849
1.08748
1.094
1.09991
1.10103
1.10119
1.10132
1.10149
1.10104
1.09698
1.0927
1.09237
1.09283
1.09353
1.09484
1.09798
1.10312
1.10624
1.10624
1.10558
1.10367
1.10032
1.09833
1.09821
1.09857
1.09921
1.10082
1.1054
1.11253
1.11591
1.11628
1.11644
1.11658
1.11669
1.11676
1.11679
1.11668
1.11591
1.11312
1.10563
1.09427
1.08873
1.08816
1.08817
1.08818
1.0881
1.08794
1.08767
1.08759
1.08784
1.08806
1.08768
1.08639
1.08653
1.08759
1.08878
1.08928
1.08956
1.08976
1.08934
1.08501
1.07499
1.0683
1.06743
1.06735
1.0673
1.0673
1.06753
1.06872
1.07253
1.07734
1.07864
1.07876
1.07877
1.07811
1.07461
1.06705
1.06115
1.06048
1.06067
1.06091
1.06125
1.06252
1.06778
1.08183
1.09664
1.10014
1.10038
1.10053
1.10064
1.10062
1.09949
1.09432
1.08421
1.07726
1.07651
1.07657
1.07665
1.0768
1.07717
1.07829
1.08129
1.08608
1.08861
1.08918
1.08963
1.0906
1.09436
1.10542
1.12017
1.12518
1.12523
1.12201
1.10684
1.06409
1.01442
1.0005
1
1
1
1
1
1
1
1
1
1
1
1
1
1
1
1
1
1
1
1
1
1
1
1
1
1
1
1
1
1
1
1
1
1
1
1
1
1
1
1
1
1
1
1
1
1
1
1
1
1
1
1
1
1
1
1
1
1
1
1
1
1
1
1
1
1
1
1
1
1
1
1
1
1
1
1
1
1
1
1
1
1
1
1
1
1
1
1
1
1
1
1
1
1
1
1
1
1
1
1
1
1
1
1
1
1
1
1
1
1
1
1
1
1
1
1
1
1
1
1
1
1
1
1
1
1
1
1
1
1.10278
1.10127
1.09415
1.08682
1.08589
1.08627
1.08673
1.08803
1.09172
1.09884
1.10263
1.10299
1.10286
1.10276
1.10262
1.10058
1.09466
1.09134
1.09142
1.09194
1.09271
1.09424
1.09794
1.10226
1.10274
1.1024
1.10135
1.09952
1.09819
1.09799
1.09824
1.0988
1.10003
1.10323
1.10883
1.11326
1.11522
1.11613
1.11647
1.11662
1.11673
1.11679
1.11681
1.11668
1.11573
1.11237
1.10367
1.09229
1.08832
1.0882
1.08835
1.08844
1.08851
1.08872
1.08958
1.09105
1.09178
1.09208
1.09196
1.09027
1.08936
1.08984
1.09053
1.09081
1.09095
1.09074
1.08848
1.08091
1.07052
1.06751
1.06759
1.06772
1.06782
1.06798
1.06851
1.0704
1.07524
1.07968
1.08045
1.08054
1.0804
1.07874
1.07347
1.06598
1.06256
1.06243
1.06269
1.0631
1.06394
1.06679
1.07625
1.09298
1.10133
1.10201
1.10211
1.1022
1.10222
1.1018
1.09963
1.0935
1.0836
1.07855
1.07823
1.07836
1.07843
1.07853
1.07896
1.08065
1.0844
1.0877
1.08896
1.08994
1.09185
1.0972
1.11041
1.12544
1.12879
1.12768
1.1232
1.10704
1.06304
1.01359
1.00044
1
1
1
1
1
1
1
1
1
1
1
1
1
1
1
1
1
1
1
1
1
1
1
1
1
1
1
1
1
1
1
1
1
1
1
1
1
1
1
1
1
1
1
1
1
1
1
1
1
1
1
1
1
1
1
1
1
1
1
1
1
1
1
1
1
1
1
1
1
1
1
1
1
1
1
1
1
1
1
1
1
1
1
1
1
1
1
1
1
1
1
1
1
1
1
1
1
1
1
1
1
1
1
1
1
1
1
1
1
1
1
1
1
1
1
1
1
1
1
1
1
1
1
1
1
1
1
1
1
1
1.1033
1.09938
1.09085
1.08541
1.08537
1.08612
1.08722
1.08924
1.09397
1.10131
1.10435
1.10455
1.10424
1.10391
1.10311
1.0989
1.0915
1.08884
1.08901
1.0896
1.09057
1.09241
1.09608
1.09907
1.09935
1.09927
1.099
1.09855
1.09837
1.0985
1.09881
1.09958
1.10184
1.10684
1.11155
1.11325
1.11419
1.11559
1.11683
1.11705
1.11713
1.11716
1.11716
1.11693
1.11566
1.11161
1.10198
1.09148
1.0887
1.08881
1.089
1.08922
1.08965
1.09092
1.09378
1.09592
1.09641
1.09658
1.09608
1.09312
1.09106
1.09114
1.09132
1.09138
1.09131
1.09046
1.08635
1.07637
1.06832
1.06719
1.06735
1.06751
1.0677
1.06818
1.06942
1.0728
1.0788
1.08209
1.08249
1.08264
1.08241
1.0797
1.07249
1.06557
1.06423
1.06437
1.06476
1.06547
1.06718
1.07249
1.08573
1.09986
1.10329
1.10347
1.10356
1.10363
1.10363
1.10302
1.10026
1.09294
1.08336
1.07985
1.07971
1.07988
1.08024
1.08092
1.08261
1.08637
1.09032
1.09173
1.0925
1.09417
1.09934
1.11201
1.1266
1.13092
1.13083
1.12727
1.10952
1.06223
1.01246
1.00036
1
1
1
1
1
1
1
1
1
1
1
1
1
1
1
1
1
1
1
1
1
1
1
1
1
1
1
1
1
1
1
1
1
1
1
1
1
1
1
1
1
1
1
1
1
1
1
1
1
1
1
1
1
1
1
1
1
1
1
1
1
1
1
1
1
1
1
1
1
1
1
1
1
1
1
1
1
1
1
1
1
1
1
1
1
1
1
1
1
1
1
1
1
1
1
1
1
1
1
1
1
1
1
1
1
1
1
1
1
1
1
1
1
1
1
1
1
1
1
1
1
1
1
1
1
1
1
1
1
1
1
1.10239
1.09665
1.08788
1.08419
1.08452
1.08554
1.08689
1.08943
1.09522
1.10284
1.10549
1.10566
1.10518
1.10454
1.10284
1.09634
1.08816
1.08632
1.08651
1.08689
1.08753
1.08895
1.09235
1.09707
1.09849
1.09866
1.09875
1.09874
1.09891
1.09922
1.09981
1.10143
1.10541
1.1101
1.11195
1.11251
1.11309
1.11447
1.11671
1.11753
1.11769
1.1178
1.11784
1.11755
1.11599
1.11089
1.09981
1.09088
1.08967
1.08995
1.09032
1.0909
1.09247
1.09599
1.09914
1.09985
1.09999
1.09982
1.09745
1.09264
1.09087
1.09098
1.09111
1.09112
1.09077
1.08892
1.08288
1.07263
1.06768
1.0676
1.06789
1.06806
1.06823
1.06868
1.07053
1.07599
1.0825
1.08423
1.08435
1.08439
1.08352
1.07926
1.07169
1.06766
1.06763
1.0679
1.06843
1.06951
1.07224
1.07994
1.09444
1.10354
1.10463
1.10476
1.10485
1.10491
1.10483
1.10391
1.10009
1.09157
1.08385
1.08192
1.08182
1.08199
1.08251
1.08388
1.08677
1.09071
1.09376
1.09561
1.09778
1.10347
1.11746
1.13146
1.13348
1.13182
1.12678
1.10858
1.06067
1.01156
1.0003
1
1
1
1
1
1
1
1
1
1
1
1
1
1
1
1
1
1
1
1
1
1
1
1
1
1
1
1
1
1
1
1
1
1
1
1
1
1
1
1
1
1
1
1
1
1
1
1
1
1
1
1
1
1
1
1
1
1
1
1
1
1
1
1
1
1
1
1
1
1
1
1
1
1
1
1
1
1
1
1
1
1
1
1
1
1
1
1
1
1
1
1
1
1
1
1
1
1
1
1
1
1
1
1
1
1
1
1
1
1
1
1
1
1
1
1
1
1
1
1
1
1
1
1
1
1
1
1
1
1
1
1
1.10057
1.09331
1.08445
1.08224
1.08311
1.08453
1.08614
1.0893
1.09588
1.10324
1.10552
1.10566
1.10514
1.10416
1.10061
1.09086
1.08277
1.08184
1.08205
1.08243
1.08322
1.08547
1.09153
1.09728
1.09829
1.09849
1.09872
1.09902
1.0994
1.10002
1.10141
1.10473
1.10896
1.11075
1.11123
1.11163
1.11237
1.11405
1.11662
1.11794
1.11825
1.11843
1.11853
1.11835
1.11654
1.10982
1.09758
1.09095
1.09079
1.09129
1.09211
1.09394
1.09783
1.10128
1.10205
1.1022
1.10222
1.10122
1.09685
1.09188
1.09085
1.09097
1.0911
1.09113
1.09042
1.08699
1.0784
1.06953
1.06775
1.06815
1.06863
1.06906
1.06957
1.07061
1.07404
1.08129
1.08581
1.08626
1.08627
1.08594
1.08406
1.07877
1.07203
1.07063
1.0709
1.07147
1.07231
1.07388
1.07768
1.08712
1.1006
1.10614
1.10663
1.10678
1.10688
1.10692
1.10671
1.10529
1.10046
1.09104
1.0853
1.08501
1.0853
1.08599
1.0877
1.09146
1.09542
1.09637
1.09652
1.09786
1.10352
1.11736
1.13168
1.13527
1.13505
1.13094
1.11058
1.05916
1.01037
1.00024
1
1
1
1
1
1
1
1
1
1
1
1
1
1
1
1
1
1
1
1
1
1
1
1
1
1
1
1
1
1
1
1
1
1
1
1
1
1
1
1
1
1
1
1
1
1
1
1
1
1
1
1
1
1
1
1
1
1
1
1
1
1
1
1
1
1
1
1
1
1
1
1
1
1
1
1
1
1
1
1
1
1
1
1
1
1
1
1
1
1
1
1
1
1
1
1
1
1
1
1
1
1
1
1
1
1
1
1
1
1
1
1
1
1
1
1
1
1
1
1
1
1
1
1
1
1
1
1
1
1
1
1
1
1.09534
1.08642
1.07941
1.07863
1.08017
1.08207
1.08435
1.08907
1.09743
1.10372
1.1051
1.10509
1.10441
1.10256
1.0956
1.08309
1.07708
1.07678
1.07697
1.07743
1.07884
1.08374
1.09309
1.09834
1.09897
1.09931
1.09969
1.10012
1.10069
1.10176
1.10424
1.10785
1.10948
1.10975
1.10995
1.11044
1.11167
1.11437
1.11804
1.11961
1.1199
1.12008
1.12017
1.11984
1.11705
1.10803
1.09602
1.0924
1.09264
1.09338
1.09489
1.09836
1.1021
1.10307
1.10327
1.1034
1.10331
1.10122
1.09551
1.09125
1.09078
1.09089
1.091
1.09093
1.08942
1.08392
1.07469
1.06881
1.06813
1.06837
1.06877
1.0693
1.0703
1.07311
1.08009
1.08694
1.08825
1.08836
1.08838
1.08767
1.0846
1.07875
1.07505
1.07481
1.07519
1.07584
1.07678
1.07853
1.0827
1.09228
1.10381
1.10754
1.10784
1.10799
1.10815
1.10825
1.10815
1.10665
1.10104
1.0922
1.0893
1.08947
1.09003
1.0913
1.09357
1.09604
1.09798
1.09967
1.10183
1.10774
1.12246
1.13557
1.13662
1.1346
1.12914
1.10867
1.05706
1.00946
1.00019
1
1
1
1
1
1
1
1
1
1
1
1
1
1
1
1
1
1
1
1
1
1
1
1
1
1
1
1
1
1
1
1
1
1
1
1
1
1
1
1
1
1
1
1
1
1
1
1
1
1
1
1
1
1
1
1
1
1
1
1
1
1
1
1
1
1
1
1
1
1
1
1
1
1
1
1
1
1
1
1
1
1
1
1
1
1
1
1
1
1
1
1
1
1
1
1
1
1
1
1
1
1
1
1
1
1
1
1
1
1
1
1
1
1
1
1
1
1
1
1
1
1
1
1
1
1
1
1
1
1
1
1
1
1
1.08798
1.07872
1.07459
1.07487
1.07682
1.07899
1.082
1.08877
1.09863
1.10321
1.10355
1.10336
1.10238
1.0981
1.08658
1.07479
1.07228
1.07233
1.07253
1.07327
1.07631
1.08502
1.09643
1.09948
1.09972
1.1001
1.10071
1.10147
1.10259
1.10453
1.10705
1.10822
1.10841
1.10851
1.10886
1.10965
1.11136
1.11524
1.12001
1.12162
1.12195
1.12219
1.1223
1.12164
1.11731
1.10595
1.0958
1.09456
1.09498
1.09604
1.09857
1.10242
1.10385
1.10403
1.10418
1.10427
1.10376
1.10039
1.09392
1.09081
1.09063
1.09064
1.09061
1.09
1.08673
1.07906
1.07245
1.0704
1.06986
1.06972
1.07001
1.07085
1.07262
1.07729
1.08556
1.08967
1.09017
1.09046
1.0906
1.0898
1.08555
1.08013
1.07921
1.07939
1.07977
1.08043
1.08147
1.08338
1.08779
1.09733
1.10725
1.10961
1.10983
1.11004
1.11019
1.11026
1.10986
1.10766
1.10167
1.09498
1.09385
1.09443
1.09586
1.09819
1.09986
1.09992
1.09945
1.10026
1.10617
1.12115
1.13545
1.1385
1.13817
1.13316
1.10961
1.05444
1.00819
1.00015
1
1
1
1
1
1
1
1
1
1
1
1
1
1
1
1
1
1
1
1
1
1
1
1
1
1
1
1
1
1
1
1
1
1
1
1
1
1
1
1
1
1
1
1
1
1
1
1
1
1
1
1
1
1
1
1
1
1
1
1
1
1
1
1
1
1
1
1
1
1
1
1
1
1
1
1
1
1
1
1
1
1
1
1
1
1
1
1
1
1
1
1
1
1
1
1
1
1
1
1
1
1
1
1
1
1
1
1
1
1
1
1
1
1
1
1
1
1
1
1
1
1
1
1
1
1
1
1
1
1
1
1
1
1
1
1.07781
1.07084
1.06893
1.06977
1.0719
1.07432
1.07824
1.08779
1.09796
1.09975
1.09992
1.09982
1.09831
1.09115
1.07712
1.06916
1.06863
1.06879
1.06911
1.07056
1.07612
1.08916
1.09983
1.10121
1.1014
1.10178
1.10244
1.10342
1.10497
1.10662
1.10716
1.10729
1.10738
1.10759
1.1081
1.10937
1.11236
1.11837
1.12304
1.12405
1.1244
1.12466
1.12474
1.12356
1.11694
1.10384
1.097
1.09681
1.09732
1.09855
1.10134
1.10437
1.10499
1.10515
1.10529
1.10533
1.10431
1.0995
1.09268
1.09053
1.09047
1.09044
1.09008
1.0884
1.08335
1.07573
1.07212
1.07201
1.072
1.07204
1.07257
1.07379
1.07657
1.08298
1.0899
1.09157
1.09187
1.09216
1.09234
1.09194
1.08866
1.08404
1.08324
1.0836
1.08401
1.08466
1.0857
1.08764
1.09205
1.10137
1.11065
1.11281
1.11312
1.11338
1.11359
1.11368
1.11323
1.11095
1.10588
1.10018
1.09824
1.09836
1.09889
1.09949
1.10014
1.10173
1.1045
1.11129
1.12671
1.13826
1.13863
1.13636
1.13026
1.10664
1.05141
1.00715
1.00011
1
1
1
1
1
1
1
1
1
1
1
1
1
1
1
1
1
1
1
1
1
1
1
1
1
1
1
1
1
1
1
1
1
1
1
1
1
1
1
1
1
1
1
1
1
1
1
1
1
1
1
1
1
1
1
1
1
1
1
1
1
1
1
1
1
1
1
1
1
1
1
1
1
1
1
1
1
1
1
1
1
1
1
1
1
1
1
1
1
1
1
1
1
1
1
1
1
1
1
1
1
1
1
1
1
1
1
1
1
1
1
1
1
1
1
1
1
1
1
1
1
1
1
1
1
1
1
1
1
1
1
1
1
1
1
1
1.06807
1.06381
1.063
1.06379
1.06566
1.06834
1.07457
1.08712
1.09434
1.09567
1.09608
1.0962
1.09415
1.08409
1.0701
1.06598
1.06599
1.06635
1.06715
1.06975
1.07809
1.09389
1.10217
1.10289
1.10328
1.10416
1.10501
1.1056
1.10611
1.10633
1.1066
1.10685
1.10715
1.1075
1.10802
1.10969
1.11503
1.1227
1.12574
1.12628
1.12662
1.12685
1.1268
1.12448
1.11507
1.10199
1.09803
1.09812
1.09867
1.09988
1.10259
1.10538
1.10597
1.10613
1.10626
1.10617
1.10436
1.09849
1.09222
1.09061
1.09057
1.09054
1.0899
1.08729
1.08131
1.07507
1.07381
1.07412
1.0745
1.07496
1.07571
1.07715
1.08037
1.08718
1.0936
1.09481
1.09506
1.09524
1.0953
1.09491
1.09245
1.08839
1.08721
1.08756
1.08806
1.08871
1.08976
1.09167
1.09599
1.10493
1.11375
1.11587
1.11615
1.11638
1.11656
1.11666
1.1166
1.11548
1.11095
1.10447
1.10227
1.10213
1.10181
1.10075
1.10052
1.10193
1.10954
1.12636
1.13939
1.14128
1.14056
1.13372
1.10557
1.04707
1.00577
1.00008
1
1
1
1
1
1
1
1
1
1
1
1
1
1
1
1
1
1
1
1
1
1
1
1
1
1
1
1
1
1
1
1
1
1
1
1
1
1
1
1
1
1
1
1
1
1
1
1
1
1
1
1
1
1
1
1
1
1
1
1
1
1
1
1
1
1
1
1
1
1
1
1
1
1
1
1
1
1
1
1
1
1
1
1
1
1
1
1
1
1
1
1
1
1
1
1
1
1
1
1
1
1
1
1
1
1
1
1
1
1
1
1
1
1
1
1
1
1
1
1
1
1
1
1
1
1
1
1
1
1
1
1
1
1
1
1
1
1.05981
1.05753
1.05779
1.05849
1.06004
1.06392
1.07426
1.08856
1.09367
1.09423
1.09463
1.09463
1.09064
1.07712
1.06542
1.06386
1.06409
1.06469
1.06629
1.07083
1.08285
1.09929
1.10464
1.10529
1.10592
1.10667
1.10706
1.10697
1.10613
1.10614
1.10626
1.10642
1.10674
1.10746
1.10905
1.11336
1.1219
1.12746
1.12837
1.12872
1.12901
1.12917
1.12859
1.12395
1.1118
1.10093
1.09927
1.09949
1.09999
1.10109
1.10387
1.10691
1.10762
1.10779
1.10787
1.10734
1.10372
1.09645
1.09167
1.09087
1.09085
1.09082
1.09016
1.08716
1.08085
1.07661
1.07656
1.07699
1.07758
1.07832
1.0793
1.08079
1.08349
1.08897
1.09591
1.09845
1.09902
1.09949
1.09981
1.09968
1.09721
1.0925
1.09102
1.0913
1.09181
1.09248
1.09354
1.0956
1.10033
1.10957
1.11793
1.12005
1.12048
1.12086
1.12121
1.12146
1.12127
1.11788
1.10928
1.10354
1.10301
1.10309
1.10358
1.10457
1.10671
1.11442
1.13074
1.13998
1.13976
1.1378
1.13054
1.10165
1.04265
1.00456
1.00005
1
1
1
1
1
1
1
1
1
1
1
1
1
1
1
1
1
1
1
1
1
1
1
1
1
1
1
1
1
1
1
1
1
1
1
1
1
1
1
1
1
1
1
1
1
1
1
1
1
1
1
1
1
1
1
1
1
1
1
1
1
1
1
1
1
1
1
1
1
1
1
1
1
1
1
1
1
1
1
1
1
1
1
1
1
1
1
1
1
1
1
1
1
1
1
1
1
1
1
1
1
1
1
1
1
1
1
1
1
1
1
1
1
1
1
1
1
1
1
1
1
1
1
1
1
1
1
1
1
1
1
1
1
1
1
1
1
1
1.05454
1.05315
1.05363
1.0545
1.05683
1.0637
1.07834
1.09091
1.09365
1.09442
1.09491
1.09434
1.08726
1.07126
1.06299
1.06267
1.06315
1.06409
1.06618
1.07293
1.08896
1.10402
1.10739
1.10801
1.10854
1.10889
1.1088
1.107
1.10571
1.10597
1.10624
1.10644
1.10678
1.10756
1.1108
1.1196
1.12827
1.13015
1.13052
1.13088
1.13117
1.13126
1.12993
1.12241
1.10778
1.1003
1.10001
1.10043
1.1011
1.10256
1.10601
1.10905
1.1096
1.10974
1.1097
1.1081
1.10201
1.09408
1.09127
1.0912
1.09129
1.09128
1.09061
1.08734
1.08117
1.07933
1.07971
1.08031
1.08104
1.08203
1.08321
1.08463
1.08692
1.09186
1.09956
1.10345
1.1042
1.10467
1.10497
1.1047
1.10161
1.0963
1.09479
1.09502
1.09547
1.09608
1.09712
1.0994
1.10505
1.11507
1.12234
1.12407
1.1246
1.12497
1.1252
1.12525
1.12366
1.11682
1.10741
1.10345
1.10301
1.10306
1.10355
1.10642
1.11651
1.13407
1.14324
1.14359
1.14192
1.13188
1.09723
1.03671
1.00332
1.00003
1
1
1
1
1
1
1
1
1
1
1
1
1
1
1
1
1
1
1
1
1
1
1
1
1
1
1
1
1
1
1
1
1
1
1
1
1
1
1
1
1
1
1
1
1
1
1
1
1
1
1
1
1
1
1
1
1
1
1
1
1
1
1
1
1
1
1
1
1
1
1
1
1
1
1
1
1
1
1
1
1
1
1
1
1
1
1
1
1
1
1
1
1
1
1
1
1
1
1
1
1
1
1
1
1
1
1
1
1
1
1
1
1
1
1
1
1
1
1
1
1
1
1
1
1
1
1
1
1
1
1
1
1
1
1
1
1
1
1
1.05124
1.0504
1.05088
1.05227
1.05634
1.06766
1.08479
1.09231
1.09384
1.09489
1.09552
1.09414
1.08404
1.0676
1.0623
1.06238
1.06298
1.0641
1.06728
1.07772
1.09704
1.10833
1.10996
1.11037
1.11064
1.11069
1.10952
1.10641
1.10553
1.10601
1.10639
1.10688
1.10772
1.10992
1.11661
1.12681
1.13094
1.13151
1.13188
1.13223
1.1325
1.13253
1.12983
1.11968
1.10554
1.10071
1.10071
1.10102
1.10177
1.10416
1.10877
1.11105
1.11137
1.11152
1.11125
1.10789
1.10003
1.09363
1.09264
1.09281
1.09291
1.09268
1.09141
1.08807
1.08355
1.08203
1.08226
1.08271
1.08329
1.08419
1.08539
1.08696
1.08993
1.09665
1.10597
1.10997
1.11063
1.11095
1.11101
1.10914
1.10288
1.09808
1.09784
1.09821
1.09862
1.09923
1.10046
1.10361
1.11137
1.12203
1.12678
1.12762
1.12795
1.12815
1.1282
1.12712
1.1226
1.11422
1.10731
1.10579
1.10588
1.1066
1.10964
1.11945
1.13566
1.14319
1.14313
1.14089
1.12971
1.09154
1.03053
1.0022
1.00001
1
1
1
1
1
1
1
1
1
1
1
1
1
1
1
1
1
1
1
1
1
1
1
1
1
1
1
1
1
1
1
1
1
1
1
1
1
1
1
1
1
1
1
1
1
1
1
1
1
1
1
1
1
1
1
1
1
1
1
1
1
1
1
1
1
1
1
1
1
1
1
1
1
1
1
1
1
1
1
1
1
1
1
1
1
1
1
1
1
1
1
1
1
1
1
1
1
1
1
1
1
1
1
1
1
1
1
1
1
1
1
1
1
1
1
1
1
1
1
1
1
1
1
1
1
1
1
1
1
1
1
1
1
1
1
1
1
1
1
1
1.05007
1.04981
1.05042
1.05257
1.05972
1.0766
1.09087
1.09413
1.09542
1.09661
1.09709
1.09374
1.08041
1.06565
1.06245
1.06278
1.06348
1.06494
1.07002
1.08482
1.10412
1.11066
1.11143
1.11178
1.11196
1.11183
1.10995
1.10679
1.10654
1.10685
1.10702
1.10747
1.10889
1.11436
1.12508
1.13143
1.13247
1.13285
1.13312
1.1333
1.13339
1.13268
1.12788
1.11487
1.10348
1.1018
1.10205
1.10265
1.10419
1.1083
1.11234
1.11307
1.11321
1.11319
1.1116
1.10558
1.09767
1.09465
1.09473
1.09494
1.09499
1.09444
1.09281
1.09016
1.08669
1.08513
1.08537
1.08591
1.08656
1.0873
1.08809
1.08968
1.09445
1.10514
1.11482
1.11713
1.1175
1.11765
1.11715
1.11312
1.10443
1.1008
1.101
1.10145
1.10186
1.10244
1.10391
1.10849
1.11879
1.12781
1.12969
1.12997
1.13013
1.13022
1.12976
1.12656
1.11835
1.11085
1.1091
1.10944
1.11071
1.11524
1.12807
1.14306
1.14607
1.14476
1.14088
1.12621
1.08326
1.02409
1.00136
1.00001
1
1
1
1
1
1
1
1
1
1
1
1
1
1
1
1
1
1
1
1
1
1
1
1
1
1
1
1
1
1
1
1
1
1
1
1
1
1
1
1
1
1
1
1
1
1
1
1
1
1
1
1
1
1
1
1
1
1
1
1
1
1
1
1
1
1
1
1
1
1
1
1
1
1
1
1
1
1
1
1
1
1
1
1
1
1
1
1
1
1
1
1
1
1
1
1
1
1
1
1
1
1
1
1
1
1
1
1
1
1
1
1
1
1
1
1
1
1
1
1
1
1
1
1
1
1
1
1
1
1
1
1
1
1
1
1
1
1
1
1
1
1.05034
1.05042
1.05152
1.05549
1.06798
1.08698
1.09473
1.09615
1.09739
1.09855
1.09801
1.09147
1.07579
1.06479
1.0639
1.06446
1.06531
1.06744
1.07496
1.09373
1.10954
1.1121
1.11245
1.11265
1.11268
1.11231
1.11009
1.1075
1.10751
1.10797
1.1085
1.10956
1.11321
1.12265
1.13126
1.13319
1.13373
1.13416
1.13449
1.1347
1.13471
1.1329
1.12496
1.11045
1.10266
1.10235
1.10289
1.10422
1.10776
1.11326
1.11532
1.11553
1.11561
1.11507
1.11132
1.10357
1.09762
1.09681
1.09683
1.09682
1.09662
1.0962
1.09534
1.09304
1.0889
1.08701
1.08714
1.0877
1.08859
1.08977
1.0914
1.09502
1.1045
1.1176
1.12275
1.12343
1.12365
1.12345
1.12083
1.11281
1.10537
1.10402
1.10434
1.10489
1.10546
1.1063
1.1085
1.11509
1.12599
1.131
1.13145
1.13159
1.13173
1.13179
1.13084
1.12647
1.11795
1.11173
1.11135
1.11249
1.11756
1.1301
1.1438
1.14779
1.14762
1.14371
1.12446
1.074
1.0173
1.00071
1
1
1
1
1
1
1
1
1
1
1
1
1
1
1
1
1
1
1
1
1
1
1
1
1
1
1
1
1
1
1
1
1
1
1
1
1
1
1
1
1
1
1
1
1
1
1
1
1
1
1
1
1
1
1
1
1
1
1
1
1
1
1
1
1
1
1
1
1
1
1
1
1
1
1
1
1
1
1
1
1
1
1
1
1
1
1
1
1
1
1
1
1
1
1
1
1
1
1
1
1
1
1
1
1
1
1
1
1
1
1
1
1
1
1
1
1
1
1
1
1
1
1
1
1
1
1
1
1
1
1
1
1
1
1
1
1
1
1
1
1
1
1
1.05189
1.05196
1.0538
1.06137
1.07986
1.09508
1.09781
1.09858
1.09953
1.10002
1.09764
1.08843
1.07254
1.06536
1.06575
1.06669
1.0679
1.07097
1.08056
1.09991
1.11207
1.11342
1.11369
1.11385
1.11389
1.11335
1.11104
1.1088
1.10852
1.10898
1.1099
1.11234
1.11943
1.12973
1.13344
1.13402
1.13451
1.13499
1.13537
1.13559
1.13535
1.13193
1.12074
1.10747
1.10398
1.1043
1.10523
1.1075
1.11272
1.11694
1.11755
1.11767
1.11761
1.11595
1.10998
1.1023
1.09997
1.10013
1.10023
1.10014
1.10002
1.10005
1.09978
1.09748
1.09283
1.09052
1.09016
1.09017
1.0903
1.09095
1.09426
1.10421
1.11981
1.12756
1.12848
1.12875
1.12879
1.12723
1.12021
1.11108
1.10742
1.10699
1.10707
1.10759
1.10851
1.11012
1.11396
1.12287
1.13182
1.13362
1.13371
1.13377
1.13377
1.13307
1.12979
1.12389
1.11941
1.11912
1.12049
1.12628
1.1399
1.14904
1.14884
1.1455
1.13889
1.11646
1.06281
1.01179
1.00033
1
1
1
1
1
1
1
1
1
1
1
1
1
1
1
1
1
1
1
1
1
1
1
1
1
1
1
1
1
1
1
1
1
1
1
1
1
1
1
1
1
1
1
1
1
1
1
1
1
1
1
1
1
1
1
1
1
1
1
1
1
1
1
1
1
1
1
1
1
1
1
1
1
1
1
1
1
1
1
1
1
1
1
1
1
1
1
1
1
1
1
1
1
1
1
1
1
1
1
1
1
1
1
1
1
1
1
1
1
1
1
1
1
1
1
1
1
1
1
1
1
1
1
1
1
1
1
1
1
1
1
1
1
1
1
1
1
1
1
1
1
1
1
1
1.0541
1.05513
1.05904
1.07127
1.0914
1.09974
1.1004
1.10076
1.10124
1.10069
1.09682
1.0859
1.07131
1.06802
1.06916
1.07078
1.07256
1.07625
1.08555
1.10234
1.11288
1.1141
1.11431
1.11432
1.11404
1.11353
1.11286
1.11222
1.11209
1.1126
1.11398
1.11767
1.12605
1.13351
1.13497
1.13535
1.1357
1.13601
1.13626
1.13639
1.13558
1.13054
1.11824
1.10757
1.10655
1.10712
1.10848
1.11209
1.1176
1.11954
1.11976
1.1199
1.11979
1.11712
1.10944
1.10325
1.10308
1.10338
1.10345
1.1036
1.10383
1.10385
1.10223
1.09735
1.09312
1.09242
1.09268
1.09304
1.09364
1.09598
1.1046
1.12132
1.13161
1.1328
1.13301
1.13325
1.13293
1.12837
1.11782
1.11076
1.1105
1.11066
1.11047
1.11069
1.11173
1.11416
1.11975
1.12917
1.13473
1.13554
1.13588
1.13615
1.13628
1.13526
1.13086
1.12405
1.12239
1.12362
1.12904
1.14105
1.15045
1.1518
1.15065
1.14189
1.11014
1.04951
1.00681
1.00013
1
1
1
1
1
1
1
1
1
1
1
1
1
1
1
1
1
1
1
1
1
1
1
1
1
1
1
1
1
1
1
1
1
1
1
1
1
1
1
1
1
1
1
1
1
1
1
1
1
1
1
1
1
1
1
1
1
1
1
1
1
1
1
1
1
1
1
1
1
1
1
1
1
1
1
1
1
1
1
1
1
1
1
1
1
1
1
1
1
1
1
1
1
1
1
1
1
1
1
1
1
1
1
1
1
1
1
1
1
1
1
1
1
1
1
1
1
1
1
1
1
1
1
1
1
1
1
1
1
1
1
1
1
1
1
1
1
1
1
1
1
1
1
1
1
1.05744
1.06016
1.06727
1.0839
1.10022
1.10338
1.10318
1.10296
1.10288
1.10145
1.09633
1.08429
1.07294
1.07187
1.07349
1.07559
1.07781
1.08163
1.08995
1.10461
1.11511
1.11648
1.11659
1.11639
1.11513
1.11381
1.11419
1.11481
1.1155
1.11672
1.11909
1.12375
1.13098
1.13537
1.13611
1.13639
1.13665
1.1369
1.13709
1.13716
1.13602
1.12974
1.11713
1.11033
1.1104
1.11135
1.11346
1.11806
1.12174
1.12226
1.12243
1.12252
1.12142
1.11617
1.10859
1.10643
1.10681
1.10711
1.10733
1.1076
1.1078
1.10742
1.1043
1.09822
1.09433
1.09395
1.09411
1.09454
1.09666
1.10493
1.12226
1.13487
1.13668
1.13673
1.13677
1.13667
1.13485
1.12722
1.11657
1.1132
1.11344
1.11409
1.11461
1.11516
1.11641
1.11973
1.12728
1.13529
1.13703
1.13716
1.13727
1.13726
1.1366
1.13469
1.1321
1.13156
1.13329
1.13979
1.15053
1.15387
1.15166
1.14692
1.1347
1.09795
1.03679
1.00354
1.00004
1
1
1
1
1
1
1
1
1
1
1
1
1
1
1
1
1
1
1
1
1
1
1
1
1
1
1
1
1
1
1
1
1
1
1
1
1
1
1
1
1
1
1
1
1
1
1
1
1
1
1
1
1
1
1
1
1
1
1
1
1
1
1
1
1
1
1
1
1
1
1
1
1
1
1
1
1
1
1
1
1
1
1
1
1
1
1
1
1
1
1
1
1
1
1
1
1
1
1
1
1
1
1
1
1
1
1
1
1
1
1
1
1
1
1
1
1
1
1
1
1
1
1
1
1
1
1
1
1
1
1
1
1
1
1
1
1
1
1
1
1
1
1
1
1
1
1.06344
1.068
1.07847
1.09564
1.10576
1.10694
1.10616
1.10532
1.10482
1.10287
1.09634
1.08402
1.07615
1.07598
1.07772
1.08004
1.08261
1.08618
1.09236
1.10353
1.11535
1.11837
1.11852
1.11836
1.11795
1.11786
1.11837
1.11921
1.12045
1.12247
1.12558
1.12931
1.13257
1.13544
1.13724
1.13759
1.13781
1.13806
1.13827
1.13836
1.137
1.12996
1.11733
1.11318
1.11365
1.11503
1.11799
1.12289
1.12505
1.12532
1.12552
1.12551
1.12335
1.11618
1.11007
1.10986
1.11017
1.11045
1.11069
1.11077
1.11005
1.10721
1.10258
1.09864
1.0976
1.09786
1.09849
1.10021
1.10662
1.12279
1.13744
1.14013
1.14027
1.14039
1.14038
1.13937
1.13435
1.12471
1.11784
1.11725
1.11749
1.11813
1.11889
1.11973
1.12131
1.12536
1.13301
1.13856
1.13988
1.14041
1.14065
1.14063
1.13921
1.13577
1.13477
1.13641
1.1425
1.15272
1.15753
1.15726
1.15302
1.13349
1.08385
1.02362
1.00148
1.00001
1
1
1
1
1
1
1
1
1
1
1
1
1
1
1
1
1
1
1
1
1
1
1
1
1
1
1
1
1
1
1
1
1
1
1
1
1
1
1
1
1
1
1
1
1
1
1
1
1
1
1
1
1
1
1
1
1
1
1
1
1
1
1
1
1
1
1
1
1
1
1
1
1
1
1
1
1
1
1
1
1
1
1
1
1
1
1
1
1
1
1
1
1
1
1
1
1
1
1
1
1
1
1
1
1
1
1
1
1
1
1
1
1
1
1
1
1
1
1
1
1
1
1
1
1
1
1
1
1
1
1
1
1
1
1
1
1
1
1
1
1
1
1
1
1
1
1
1.07212
1.07878
1.09167
1.10518
1.10976
1.11025
1.10922
1.108
1.10694
1.10372
1.09578
1.08597
1.08142
1.08102
1.08229
1.08467
1.0875
1.09062
1.09496
1.10364
1.1146
1.11947
1.12003
1.12039
1.1211
1.12211
1.12312
1.12435
1.12612
1.12862
1.13149
1.13352
1.13475
1.13659
1.13919
1.14037
1.1406
1.14081
1.14098
1.14099
1.13925
1.13156
1.12032
1.11729
1.11785
1.1193
1.12231
1.12648
1.12783
1.12804
1.1282
1.12797
1.12461
1.11687
1.11404