/*--------------------------------*- C++ -*----------------------------------*\
  =========                 |
  \\      /  F ield         | OpenFOAM: The Open Source CFD Toolbox
   \\    /   O peration     | Website:  https://openfoam.org
    \\  /    A nd           | Version:  7
     \\/     M anipulation  |
\*---------------------------------------------------------------------------*/
FoamFile
{
    version     2.0;
    format      ascii;
    class       volVectorField;
    location    "1";
    object      U;
}
// * * * * * * * * * * * * * * * * * * * * * * * * * * * * * * * * * * * * * //

dimensions      [0 1 -1 0 0 0 0];

internalField   nonuniform List<vector> 
4128
(
(3 3.56181e-16 0)
(3 7.69281e-16 0)
(3 1.628e-15 0)
(3 1.54679e-15 0)
(3 3.46867e-16 0)
(3 -9.547e-16 0)
(3 -3.17467e-15 0)
(3 -3.53675e-15 0)
(3 -3.26522e-15 0)
(3 -3.21293e-15 0)
(3 -3.04152e-15 0)
(3 -2.40566e-15 0)
(3 -1.5309e-15 0)
(3 -1.02562e-15 0)
(3 -1.04663e-15 0)
(3 -1.04497e-15 0)
(3 -1.76731e-15 0)
(3 -2.30157e-15 0)
(3 -2.01019e-15 0)
(3 -1.10626e-15 0)
(3 -5.95908e-16 0)
(3 -1.41009e-15 0)
(3 -2.49065e-15 0)
(3 -3.65398e-15 0)
(3 -2.58965e-15 0)
(3 -5.86785e-16 0)
(3 8.06823e-17 0)
(3 -1.82203e-16 0)
(3 -1.25313e-15 0)
(3 -1.11687e-15 0)
(3 -9.16494e-16 0)
(3 -1.03155e-15 0)
(3 -5.78677e-16 0)
(3 -1.25301e-15 0)
(3 -1.65346e-15 0)
(3 -2.12129e-15 0)
(3 -2.00606e-15 0)
(3 -2.0598e-15 0)
(3 -2.59494e-15 0)
(3 -1.96935e-15 0)
(3 -1.33899e-15 0)
(3 -8.49945e-16 0)
(3 -8.84151e-16 0)
(3 -4.80485e-16 0)
(3 -4.04612e-17 0)
(3 -1.35753e-16 0)
(3 6.13425e-16 0)
(3 8.28195e-16 0)
(3 -1.51782e-16 0)
(3 -3.8258e-16 0)
(3 -1.39185e-15 0)
(3 -1.57654e-15 0)
(3 -8.65422e-16 0)
(3 -4.70174e-16 0)
(3 -5.73734e-16 0)
(3 1.18571e-16 0)
(3 -1.11238e-16 0)
(3 -2.66576e-16 0)
(3 -7.39626e-16 0)
(3 -1.49923e-15 0)
(3 -2.15547e-15 0)
(3 -2.39146e-15 0)
(3 -1.60742e-15 0)
(3 -9.30484e-16 0)
(3 -1.68171e-16 0)
(3 9.65842e-18 0)
(3 -8.28429e-17 0)
(3 -3.94808e-16 0)
(3 -3.74571e-16 0)
(3 -2.45209e-16 0)
(3 -4.64442e-16 0)
(3 -4.16577e-16 0)
(3 -1.99747e-16 0)
(3 -2.21926e-16 0)
(3 -6.46437e-16 0)
(3 -7.52591e-16 0)
(3 -1.70576e-15 0)
(3 -2.14925e-15 0)
(3 -2.28882e-15 0)
(3 -1.93759e-15 0)
(3 -1.05641e-15 0)
(3 -7.61291e-16 0)
(3 5.95324e-16 0)
(3 8.60971e-16 0)
(3 2.40541e-16 0)
(3 2.12248e-16 0)
(3 2.20019e-16 0)
(3 -1.60044e-16 0)
(3 -5.21743e-16 0)
(3 -8.40726e-16 0)
(3 2.03732e-16 0)
(3 6.14591e-16 0)
(3 9.55004e-16 0)
(3 6.54354e-16 0)
(3 7.13831e-16 0)
(3 1.3423e-15 0)
(3 1.27672e-15 0)
(3 1.15108e-15 0)
(3 9.8939e-16 0)
(3 8.89641e-16 0)
(3 8.45679e-16 0)
(3 -2.19005e-17 0)
(3 -1.60743e-15 0)
(3 -2.23999e-15 0)
(3 -2.36067e-15 0)
(3 -2.10653e-15 0)
(3 -1.98308e-15 0)
(3 -1.80632e-15 0)
(3 -1.37943e-15 0)
(3 -1.07407e-15 0)
(3 -8.24644e-17 0)
(3 -4.04963e-16 0)
(3 -6.1248e-16 0)
(3 -1.08472e-15 0)
(3 -1.59121e-15 0)
(3 -1.96471e-15 0)
(3 -2.37805e-15 0)
(3 -1.71331e-15 0)
(3 -2.10514e-15 0)
(3 -1.53467e-15 0)
(3 -1.53163e-15 0)
(3 -1.52287e-15 0)
(3 -1.17712e-15 0)
(3 -1.2405e-15 0)
(3 -1.83926e-15 0)
(3 -2.66107e-15 0)
(3 -1.67037e-15 0)
(3 -9.15131e-16 0)
(3 -8.29675e-16 0)
(3 -3.48946e-16 0)
(3 -3.04728e-16 0)
(3 -4.85227e-16 0)
(3 -2.12928e-16 0)
(3 -4.16313e-16 0)
(3 2.94802e-16 0)
(3 2.17198e-16 0)
(3 -1.85437e-16 0)
(3 -8.70784e-16 0)
(3 -1.98687e-17 0)
(3 6.16604e-16 0)
(3 9.266e-16 0)
(3 1.35903e-15 0)
(3 1.5805e-15 0)
(3 2.43537e-15 0)
(3 2.679e-15 0)
(3 2.0491e-15 0)
(3 1.28627e-15 0)
(3 5.14535e-16 0)
(3 2.21723e-16 0)
(3 2.97466e-16 0)
(3 9.09231e-17 0)
(3 1.84867e-16 0)
(3 -1.04378e-15 0)
(3 -1.0719e-15 0)
(3 -1.05762e-15 0)
(3 -1.63476e-15 0)
(3 -1.86233e-15 0)
(3 -2.2465e-15 0)
(3 -1.95646e-15 0)
(3 -1.41675e-15 0)
(3 -4.79915e-16 0)
(3 -4.78303e-16 0)
(3 -4.11262e-17 0)
(3 -2.15358e-17 0)
(3 2.70117e-16 0)
(3 -2.01488e-16 0)
(3 -1.09312e-15 0)
(3 -9.78724e-16 0)
(3 -1.10295e-15 0)
(3 -8.71945e-16 0)
(3 -1.05316e-15 0)
(3 -1.97288e-15 0)
(3 -2.17234e-15 0)
(3 -1.6304e-15 0)
(3 -1.59742e-15 0)
(3 -1.79662e-15 0)
(3 -1.62514e-15 0)
(3 -1.10025e-15 0)
(3 -6.7698e-16 0)
(3 2.764e-16 0)
(3 7.62495e-16 0)
(3 -1.43648e-17 0)
(3 3.12059e-17 0)
(3 -1.85732e-16 0)
(3 -5.65545e-16 0)
(3 -5.66983e-16 0)
(3 -2.38071e-16 0)
(3 1.8095e-16 0)
(3 1.90195e-16 0)
(3 -1.01658e-17 0)
(3 4.46215e-17 0)
(3 2.62456e-17 0)
(3 6.61493e-18 0)
(3 -2.71045e-16 0)
(3 -3.22067e-16 0)
(3 -7.93943e-16 0)
(3 -9.36719e-16 0)
(3 -9.63886e-16 0)
(3 -1.00959e-15 0)
(3 -1.1415e-15 0)
(3 -1.34037e-15 0)
(3 -1.48859e-15 0)
(3 -9.7426e-16 0)
(3 -9.32143e-16 0)
(3 -1.39015e-15 0)
(3 -1.65288e-15 0)
(3 -1.40694e-15 0)
(3 -3.32329e-16 0)
(3 -3.20548e-17 0)
(3 -6.12224e-16 0)
(3 -1.59364e-15 0)
(3 -2.53088e-15 0)
(3 -2.75743e-15 0)
(3 -2.5231e-15 0)
(3 -6.62516e-16 0)
(3 3.22809e-16 0)
(3 2.31161e-16 0)
(3 -1.92933e-16 0)
(3 -5.34497e-16 0)
(3 -6.70908e-16 0)
(3 -9.00588e-16 0)
(3 -1.42057e-15 0)
(3 -1.97171e-15 0)
(3 -1.78624e-15 0)
(3 -1.53072e-15 0)
(3 -1.25208e-15 0)
(3 -7.38897e-16 0)
(3 -2.22091e-16 0)
(3 -9.25071e-17 0)
(3 7.8129e-16 0)
(3 2.67911e-15 0)
(3 1.55946e-15 0)
(3 3.99056e-16 0)
(3 6.51059e-16 0)
(3 1.54926e-15 0)
(3 1.4573e-15 0)
(3 1.14385e-15 0)
(3 1.7181e-15 0)
(3 1.47452e-15 0)
(3 1.66365e-15 0)
(3 2.80096e-15 0)
(3 2.43303e-15 0)
(3 2.18457e-15 0)
(3 1.24633e-15 0)
(3 4.79263e-16 0)
(3 -1.18948e-15 0)
(3 -1.70914e-15 0)
(3 -1.11553e-15 0)
(3 -1.57374e-16 0)
(3 -5.57596e-16 0)
(3 -1.08183e-15 0)
(3 -1.71533e-15 0)
(3 -6.73325e-16 0)
(3 3.26634e-16 0)
(3 -4.90371e-16 0)
(3 5.33375e-17 0)
(3 6.05288e-18 0)
(3 -2.4129e-16 0)
(3 -1.89324e-16 0)
(3 -5.21349e-17 0)
(3 -2.05755e-16 0)
(3 -1.94774e-16 0)
(3 -2.40847e-16 0)
(3 -9.03296e-16 0)
(3 -1.44713e-15 0)
(3 -1.28484e-15 0)
(3 -1.18583e-15 0)
(3 -9.99893e-16 0)
(3 -5.2203e-16 0)
(3 -4.48503e-16 0)
(3 -7.93919e-16 0)
(3 -1.1031e-15 0)
(3 -2.20114e-15 0)
(3 -2.72217e-15 0)
(3 -3.02684e-15 0)
(3 -2.4867e-15 0)
(3 -1.06366e-15 0)
(3 -4.91769e-16 0)
(3 -2.47509e-16 0)
(3 -2.06405e-16 0)
(3 -4.09764e-16 0)
(3 -5.90157e-16 0)
(3 -3.09392e-16 0)
(3 4.41505e-16 0)
(3 7.38916e-16 0)
(3 9.1363e-16 0)
(3 1.0098e-15 0)
(3 4.41461e-16 0)
(3 2.67315e-16 0)
(3 -3.73412e-16 0)
(3 -8.56162e-16 0)
(3 -1.31356e-15 0)
(3 -2.56796e-15 0)
(3 -2.55301e-15 0)
(3 -1.22419e-15 0)
(3 -5.0057e-16 0)
(3 -5.52243e-16 0)
(3 -1.08751e-15 0)
(3 -3.00427e-16 0)
(3 1.76563e-17 0)
(3 -6.31272e-16 0)
(3 -8.592e-16 0)
(3 -1.38161e-15 0)
(3 -8.83795e-16 0)
(3 -7.56141e-16 0)
(3 -6.50417e-16 0)
(3 -7.86701e-16 0)
(3 -1.88165e-15 0)
(3 -2.11394e-15 0)
(3 -1.34305e-15 0)
(3 -1.61726e-16 0)
(3 3.96146e-16 0)
(3 1.0895e-15 0)
(3 7.27081e-16 0)
(3 -2.0907e-16 0)
(3 -9.14787e-16 0)
(3 -9.57594e-16 0)
(3 -4.92402e-16 0)
(3 -1.0662e-15 0)
(3 -1.467e-15 0)
(3 -1.35743e-15 0)
(3 -1.23072e-15 0)
(3 -2.40091e-16 0)
(3 -1.24283e-16 0)
(3 -1.29237e-16 0)
(3 4.68169e-16 0)
(3 1.10014e-15 0)
(3 7.78406e-16 0)
(3 1.17268e-15 0)
(3 1.59629e-15 0)
(3 2.06971e-15 0)
(3 2.91251e-15 0)
(3 2.83342e-15 0)
(3 2.6466e-15 0)
(3 2.89874e-15 0)
(3 1.45049e-15 0)
(3 1.38706e-15 0)
(3 2.33511e-15 0)
(3 3.67616e-15 0)
(3 2.24948e-15 0)
(3 7.56792e-16 0)
(3 -6.20069e-16 0)
(3 -1.58491e-15 0)
(3 -1.9811e-15 0)
(3 -1.51257e-15 0)
(3 -1.93882e-16 0)
(3 2.6305e-16 0)
(3 3.60231e-16 0)
(3 6.99457e-16 0)
(3 8.32237e-16 0)
(3 6.2672e-16 0)
(3 -2.34982e-16 0)
(3 1.92373e-16 0)
(3 4.11624e-18 0)
(3 -2.29508e-16 0)
(3 -2.29503e-16 0)
(3 -3.16646e-16 0)
(3 -1.22208e-17 0)
(3 3.81861e-16 0)
(3 1.9519e-16 0)
(3 -2.64115e-16 0)
(3 -7.78594e-16 0)
(3 -5.49176e-16 0)
(3 -1.68235e-16 0)
(3 -1.89615e-16 0)
(3 -1.00812e-15 0)
(3 -9.02825e-16 0)
(3 -7.88295e-16 0)
(3 -1.549e-15 0)
(3 -6.39016e-16 0)
(3 1.72814e-16 0)
(3 7.87964e-16 0)
(3 3.13516e-16 0)
(3 -5.70348e-17 0)
(3 -2.40539e-16 0)
(3 -9.75599e-17 0)
(3 4.93344e-16 0)
(3 6.16352e-16 0)
(3 4.13508e-16 0)
(3 2.00161e-16 0)
(3 3.76032e-16 0)
(3 7.59916e-16 0)
(3 3.42107e-16 0)
(3 1.68603e-16 0)
(3 -3.32924e-16 0)
(3 -7.83138e-16 0)
(3 -2.30918e-15 0)
(3 -2.61333e-15 0)
(3 -2.55775e-15 0)
(3 -2.03854e-15 0)
(3 -1.29967e-15 0)
(3 -9.5945e-16 0)
(3 -1.34724e-15 0)
(3 -1.13852e-15 0)
(3 -7.40814e-16 0)
(3 -6.82358e-16 0)
(3 -5.2286e-16 0)
(3 -3.06966e-16 0)
(3 1.90011e-16 0)
(3 1.99753e-17 0)
(3 -1.08635e-16 0)
(3 -2.72251e-16 0)
(3 -5.92796e-16 0)
(3 -7.55948e-16 0)
(3 -4.23358e-16 0)
(3 3.48629e-16 0)
(3 1.0211e-16 0)
(3 9.73314e-17 0)
(3 8.93423e-16 0)
(3 3.14833e-17 0)
(3 -2.73041e-16 0)
(3 -3.27316e-16 0)
(3 -1.22331e-16 0)
(3 2.55089e-16 0)
(3 3.69162e-16 0)
(3 8.65457e-16 0)
(3 9.25009e-16 0)
(3 1.18786e-15 0)
(3 1.15735e-15 0)
(3 1.68442e-15 0)
(3 2.54558e-15 0)
(3 1.34316e-15 0)
(3 6.15306e-17 0)
(3 1.12597e-15 0)
(3 1.73366e-15 0)
(3 1.25221e-15 0)
(3 1.26639e-15 0)
(3 2.14541e-15 0)
(3 3.04876e-15 0)
(3 3.20799e-15 0)
(3 3.45365e-15 0)
(3 2.65512e-15 0)
(3 1.67918e-15 0)
(3 2.88803e-15 0)
(3 2.23239e-15 0)
(3 2.31098e-15 0)
(3 1.90119e-15 0)
(3 1.23192e-15 0)
(3 -1.45086e-16 0)
(3 -9.06702e-16 0)
(3 -1.38966e-15 0)
(3 -1.83263e-15 0)
(3 4.51553e-16 0)
(3 2.3966e-15 0)
(3 2.22271e-15 0)
(3 2.21324e-15 0)
(3 1.55041e-15 0)
(3 8.83234e-16 0)
(3 1.55022e-16 0)
(3 1.11463e-16 0)
(3 -2.8885e-16 0)
(3 -2.16732e-16 0)
(3 -6.69778e-17 0)
(3 -4.07555e-16 0)
(3 -1.89564e-16 0)
(3 -3.28403e-16 0)
(3 -7.62791e-16 0)
(3 -1.10554e-15 0)
(3 -1.45907e-15 0)
(3 -1.70516e-15 0)
(3 -1.82613e-15 0)
(3 -2.02834e-15 0)
(3 -1.73981e-15 0)
(3 -2.12807e-16 0)
(3 1.09347e-15 0)
(3 1.53255e-15 0)
(3 1.574e-15 0)
(3 1.92677e-15 0)
(3 1.31224e-15 0)
(3 1.00261e-16 0)
(3 -5.78547e-16 0)
(3 -5.75541e-16 0)
(3 -3.56893e-16 0)
(3 7.72643e-17 0)
(3 -2.66335e-16 0)
(3 -2.59215e-17 0)
(3 6.3983e-16 0)
(3 3.22629e-16 0)
(3 -6.45106e-16 0)
(3 -1.60485e-15 0)
(3 -1.79363e-15 0)
(3 -1.8273e-15 0)
(3 -1.83541e-15 0)
(3 -1.76139e-15 0)
(3 -1.08882e-15 0)
(3 -7.14492e-16 0)
(3 -1.33635e-15 0)
(3 -1.7853e-15 0)
(3 -1.58094e-15 0)
(3 -1.52603e-15 0)
(3 -1.11999e-15 0)
(3 -1.4649e-15 0)
(3 -1.50556e-15 0)
(3 -1.44539e-15 0)
(3 -1.26811e-15 0)
(3 -1.68771e-15 0)
(3 -1.52876e-15 0)
(3 -3.70395e-16 0)
(3 9.81247e-17 0)
(3 5.40194e-16 0)
(3 1.70908e-15 0)
(3 1.43345e-15 0)
(3 1.51594e-15 0)
(3 1.40425e-15 0)
(3 1.61293e-15 0)
(3 1.65006e-15 0)
(3 1.52368e-15 0)
(3 9.31548e-16 0)
(3 6.58778e-16 0)
(3 7.66966e-16 0)
(3 8.66797e-16 0)
(3 9.74449e-16 0)
(3 1.77527e-15 0)
(3 2.53243e-15 0)
(3 2.6512e-15 0)
(3 3.46409e-15 0)
(3 3.63499e-15 0)
(3 2.15615e-15 0)
(3 1.75258e-15 0)
(3 1.96035e-15 0)
(3 1.58152e-15 0)
(3 1.58464e-15 0)
(3 1.44112e-15 0)
(3 1.24464e-15 0)
(3 1.79106e-15 0)
(3 1.84981e-15 0)
(3 1.33413e-15 0)
(3 1.08091e-15 0)
(3 1.15636e-15 0)
(3 8.49852e-16 0)
(3 1.02259e-15 0)
(3 1.15977e-15 0)
(3 1.0217e-15 0)
(3 6.5139e-16 0)
(3 2.22285e-16 0)
(3 3.82367e-16 0)
(3 2.10883e-16 0)
(3 4.88931e-16 0)
(3 9.28671e-16 0)
(3 1.32142e-15 0)
(3 1.67882e-15 0)
(3 1.59357e-15 0)
(3 1.77617e-15 0)
(3 1.99929e-15 0)
(3 -2.88718e-16 0)
(3 -2.24479e-16 0)
(3 -1.64478e-16 0)
(3 -4.21136e-16 0)
(3 -3.12527e-16 0)
(3 -2.02799e-16 0)
(3 -6.61925e-16 0)
(3 -4.594e-16 0)
(3 -1.51661e-16 0)
(3 -4.5746e-17 0)
(3 -7.94262e-16 0)
(3 -7.74455e-16 0)
(3 -1.46283e-15 0)
(3 -9.83807e-16 0)
(3 -1.25427e-16 0)
(3 9.96496e-16 0)
(3 2.03354e-15 0)
(3 1.80329e-15 0)
(3 7.15126e-16 0)
(3 -7.28744e-16 0)
(3 1.42187e-16 0)
(3 1.00961e-15 0)
(3 1.1648e-15 0)
(3 -5.00094e-16 0)
(3 -2.29855e-15 0)
(3 -1.93108e-15 0)
(3 -9.21071e-16 0)
(3 6.17787e-16 0)
(3 5.58243e-16 0)
(3 -1.05229e-16 0)
(3 -1.77231e-16 0)
(3 -5.38878e-16 0)
(3 -1.05969e-15 0)
(3 -1.96946e-15 0)
(3 -1.47298e-15 0)
(3 -1.45186e-15 0)
(3 -1.33245e-15 0)
(3 -1.51317e-15 0)
(3 -1.61768e-15 0)
(3 -1.58643e-15 0)
(3 -1.03839e-15 0)
(3 -4.78514e-16 0)
(3 -3.50535e-16 0)
(3 -1.56725e-15 0)
(3 -2.2961e-15 0)
(3 -2.97126e-15 0)
(3 -2.86593e-15 0)
(3 -2.10472e-15 0)
(3 -1.59962e-15 0)
(3 -4.18617e-16 0)
(3 1.35527e-15 0)
(3 2.83188e-15 0)
(3 2.68077e-15 0)
(3 2.07871e-15 0)
(3 2.30451e-15 0)
(3 2.40234e-15 0)
(3 1.70102e-15 0)
(3 1.88699e-15 0)
(3 1.75222e-15 0)
(3 1.55089e-15 0)
(3 1.1672e-15 0)
(3 1.44909e-15 0)
(3 8.44068e-16 0)
(3 1.51091e-17 0)
(3 3.10754e-16 0)
(3 1.2619e-15 0)
(3 2.22813e-15 0)
(3 2.68886e-15 0)
(3 3.13346e-15 0)
(3 3.15882e-15 0)
(3 2.33987e-15 0)
(3 1.13205e-15 0)
(3 1.14893e-15 0)
(3 1.42039e-15 0)
(3 1.55647e-15 0)
(3 6.72031e-16 0)
(3 -3.27449e-16 0)
(3 -1.70578e-16 0)
(3 3.90375e-16 0)
(3 4.70034e-16 0)
(3 4.93202e-16 0)
(3 1.59255e-16 0)
(3 1.01673e-16 0)
(3 5.10538e-16 0)
(3 8.79823e-16 0)
(3 4.69952e-16 0)
(3 7.28236e-16 0)
(3 1.62336e-15 0)
(3 1.28323e-15 0)
(3 2.2004e-15 0)
(3 2.25733e-15 0)
(3 2.2807e-15 0)
(3 1.99409e-15 0)
(3 1.17071e-15 0)
(3 7.73277e-16 0)
(3 1.4173e-16 0)
(3 -1.11963e-16 0)
(3 7.33817e-17 0)
(3 2.33063e-16 0)
(3 -3.85315e-17 0)
(3 -3.24017e-16 0)
(3 1.80901e-17 0)
(3 -4.03138e-16 0)
(3 -5.23895e-17 0)
(3 3.98593e-16 0)
(3 5.17848e-16 0)
(3 9.53638e-16 0)
(3 1.35728e-15 0)
(3 1.06216e-15 0)
(3 1.99406e-15 0)
(3 2.56816e-15 0)
(3 1.71347e-15 0)
(3 1.1111e-15 0)
(3 4.99685e-16 0)
(3 2.33203e-16 0)
(3 -5.38843e-16 0)
(3 -4.79167e-16 0)
(3 -4.46821e-16 0)
(3 -2.19092e-16 0)
(3 -6.86761e-16 0)
(3 -1.14098e-15 0)
(3 -4.6814e-16 0)
(3 -1.32498e-16 0)
(3 -4.69831e-16 0)
(3 -1.90859e-15 0)
(3 -1.79434e-15 0)
(3 -1.25482e-15 0)
(3 -9.20974e-16 0)
(3 -1.4081e-15 0)
(3 -1.46075e-15 0)
(3 -2.0515e-15 0)
(3 -2.33285e-15 0)
(3 -2.40385e-15 0)
(3 -2.42977e-15 0)
(3 -8.96157e-16 0)
(3 -4.34382e-16 0)
(3 -1.95021e-16 0)
(3 6.85449e-16 0)
(3 9.87877e-16 0)
(3 3.07914e-16 0)
(3 -1.68784e-15 0)
(3 -4.03419e-15 0)
(3 -4.1495e-15 0)
(3 -3.8993e-15 0)
(3 -2.58387e-15 0)
(3 -1.2119e-15 0)
(3 -5.16851e-16 0)
(3 1.65457e-15 0)
(3 1.98008e-15 0)
(3 1.95311e-15 0)
(3 1.3638e-15 0)
(3 8.53029e-16 0)
(3 4.15646e-16 0)
(3 1.81943e-16 0)
(3 1.12034e-15 0)
(3 9.23792e-16 0)
(3 6.10054e-16 0)
(3 -1.23863e-16 0)
(3 -1.01335e-16 0)
(3 -3.16548e-16 0)
(3 -6.69854e-16 0)
(3 -7.81881e-16 0)
(3 9.32534e-16 0)
(3 1.47248e-15 0)
(3 1.51229e-15 0)
(3 2.29624e-15 0)
(3 2.12535e-15 0)
(3 2.12131e-15 0)
(3 1.60025e-15 0)
(3 1.31565e-15 0)
(3 1.34622e-15 0)
(3 7.60152e-16 0)
(3 2.07515e-17 0)
(3 -2.04996e-16 0)
(3 1.91351e-16 0)
(3 -4.80812e-16 0)
(3 -3.61719e-16 0)
(3 -1.19237e-16 0)
(3 -1.3892e-16 0)
(3 4.76748e-16 0)
(3 1.39861e-15 0)
(3 1.68227e-15 0)
(3 1.65718e-15 0)
(3 1.61069e-15 0)
(3 1.16635e-15 0)
(3 1.01117e-15 0)
(3 9.5523e-16 0)
(3 1.18367e-15 0)
(3 1.28659e-15 0)
(3 1.14318e-15 0)
(3 1.0879e-16 0)
(3 -1.18599e-15 0)
(3 1.90804e-16 0)
(3 1.54352e-17 0)
(3 -2.00982e-16 0)
(3 -5.06877e-16 0)
(3 2.20231e-16 0)
(3 2.11312e-16 0)
(3 5.40275e-16 0)
(3 9.59344e-16 0)
(3 1.02146e-15 0)
(3 1.00091e-15 0)
(3 1.39299e-15 0)
(3 1.48474e-15 0)
(3 2.35554e-15 0)
(3 2.53266e-15 0)
(3 2.15248e-15 0)
(3 1.36832e-15 0)
(3 -4.22478e-16 0)
(3 -6.49387e-16 0)
(3 -6.04171e-16 0)
(3 -4.02208e-16 0)
(3 -7.88436e-16 0)
(3 -1.26827e-15 0)
(3 -1.41953e-15 0)
(3 -2.05452e-16 0)
(3 6.22874e-16 0)
(3 4.89192e-16 0)
(3 8.04661e-17 0)
(3 -1.63875e-15 0)
(3 -2.47993e-15 0)
(3 -2.15698e-15 0)
(3 -1.05544e-15 0)
(3 -1.00468e-15 0)
(3 -1.18366e-15 0)
(3 -1.33674e-15 0)
(3 -2.33291e-15 0)
(3 -2.21751e-15 0)
(3 -1.88513e-15 0)
(3 -6.00025e-16 0)
(3 7.25067e-16 0)
(3 1.02868e-15 0)
(3 1.56037e-15 0)
(3 1.49502e-15 0)
(3 1.12025e-15 0)
(3 1.20336e-15 0)
(3 1.96622e-16 0)
(3 -9.25351e-16 0)
(3 -2.7192e-15 0)
(3 -2.11648e-15 0)
(3 -1.59076e-15 0)
(3 -5.00378e-16 0)
(3 -2.10051e-16 0)
(3 1.55732e-16 0)
(3 8.72025e-16 0)
(3 6.18682e-16 0)
(3 2.0841e-16 0)
(3 -6.34029e-16 0)
(3 -9.85319e-16 0)
(3 -1.15038e-15 0)
(3 -1.00846e-15 0)
(3 -8.8081e-16 0)
(3 -1.11175e-15 0)
(3 -1.73173e-15 0)
(3 -1.32241e-15 0)
(3 -1.0487e-15 0)
(3 -1.00668e-15 0)
(3 -2.08606e-16 0)
(3 5.11077e-16 0)
(3 3.91499e-17 0)
(3 -7.03027e-16 0)
(3 -2.38685e-16 0)
(3 -5.00622e-17 0)
(3 3.82432e-16 0)
(3 5.81226e-16 0)
(3 7.35842e-16 0)
(3 1.22245e-15 0)
(3 1.30442e-15 0)
(3 9.41267e-16 0)
(3 5.70765e-16 0)
(3 -3.3677e-16 0)
(3 -3.22899e-16 0)
(3 -5.80418e-16 0)
(3 -6.03552e-16 0)
(3 -4.61097e-16 0)
(3 -2.25911e-16 0)
(3 8.32473e-16 0)
(3 1.42464e-15 0)
(3 6.66703e-16 0)
(3 -8.70318e-17 0)
(3 -1.21001e-16 0)
(3 7.25056e-17 0)
(3 -2.43687e-16 0)
(3 3.04629e-16 0)
(3 1.31512e-15 0)
(3 1.63349e-15 0)
(3 1.05849e-15 0)
(3 1.1144e-16 0)
(3 6.21419e-17 0)
(3 -6.43403e-17 0)
(3 -6.77803e-17 0)
(3 -8.9585e-17 0)
(3 5.49855e-16 0)
(3 5.20552e-16 0)
(3 9.17649e-16 0)
(3 1.27497e-15 0)
(3 1.43995e-15 0)
(3 4.72448e-16 0)
(3 2.81254e-16 0)
(3 5.18363e-16 0)
(3 8.86614e-16 0)
(3 9.53944e-16 0)
(3 8.56441e-16 0)
(3 3.42207e-16 0)
(3 7.59445e-17 0)
(3 4.26127e-16 0)
(3 -3.25826e-16 0)
(3 -3.53122e-16 0)
(3 -4.37794e-16 0)
(3 -3.03522e-16 0)
(3 1.92412e-16 0)
(3 7.15299e-16 0)
(3 8.00769e-16 0)
(3 -2.45853e-16 0)
(3 -1.16682e-15 0)
(3 -1.48328e-15 0)
(3 -1.32922e-15 0)
(3 -1.16283e-15 0)
(3 -1.61793e-15 0)
(3 -1.24834e-15 0)
(3 -1.27088e-15 0)
(3 -2.00742e-15 0)
(3 -2.18737e-15 0)
(3 -1.70619e-15 0)
(3 -1.14544e-15 0)
(3 -8.82093e-16 0)
(3 -2.47878e-16 0)
(3 -1.28084e-16 0)
(3 7.33093e-16 0)
(3 5.26659e-16 0)
(3 4.17817e-16 0)
(3 7.43605e-17 0)
(3 -1.14739e-16 0)
(3 -1.0489e-16 0)
(3 -1.07601e-15 0)
(3 -1.46822e-16 0)
(3 7.17902e-16 0)
(3 7.70949e-16 0)
(3 6.97804e-16 0)
(3 -2.75056e-17 0)
(3 4.32015e-16 0)
(3 6.57257e-16 0)
(3 2.12591e-16 0)
(3 -8.16251e-16 0)
(3 -1.1349e-15 0)
(3 -1.63822e-15 0)
(3 -2.0239e-15 0)
(3 -1.48298e-15 0)
(3 -8.52176e-16 0)
(3 -3.71691e-16 0)
(3 -2.01592e-16 0)
(3 -7.2455e-16 0)
(3 -8.37684e-16 0)
(3 -5.59505e-16 0)
(3 -7.82285e-16 0)
(3 -1.96303e-15 0)
(3 -1.60164e-15 0)
(3 -2.03287e-16 0)
(3 3.01354e-16 0)
(3 2.9382e-16 0)
(3 5.06954e-16 0)
(3 3.54498e-16 0)
(3 8.78932e-16 0)
(3 1.32126e-15 0)
(3 2.02864e-15 0)
(3 1.61413e-15 0)
(3 9.92505e-16 0)
(3 7.40023e-16 0)
(3 5.26962e-16 0)
(3 7.61726e-16 0)
(3 9.27503e-16 0)
(3 1.16923e-15 0)
(3 1.27452e-15 0)
(3 1.07868e-15 0)
(3 1.20081e-15 0)
(3 6.88906e-16 0)
(3 8.80144e-16 0)
(3 6.77925e-16 0)
(3 -5.05838e-16 0)
(3 -8.47461e-16 0)
(3 -4.99933e-16 0)
(3 4.83561e-16 0)
(3 1.72178e-15 0)
(3 1.94351e-15 0)
(3 8.56276e-17 0)
(3 1.09194e-17 0)
(3 1.0634e-15 0)
(3 1.11177e-15 0)
(3 1.01387e-15 0)
(3 8.77044e-16 0)
(3 5.04411e-16 0)
(3 1.16455e-16 0)
(3 3.70782e-16 0)
(3 5.82196e-16 0)
(3 4.50882e-16 0)
(3 2.78405e-16 0)
(3 -8.32858e-16 0)
(3 -1.02468e-15 0)
(3 -3.75298e-16 0)
(3 3.75811e-16 0)
(3 5.26052e-16 0)
(3 5.02549e-16 0)
(3 -1.45341e-18 0)
(3 -3.31307e-16 0)
(3 -3.33854e-16 0)
(3 -5.81429e-17 0)
(3 4.56376e-16 0)
(3 6.71955e-16 0)
(3 5.19034e-16 0)
(3 1.81612e-16 0)
(3 -2.62717e-16 0)
(3 -5.70138e-17 0)
(3 -1.88064e-15 0)
(3 -2.75237e-15 0)
(3 -2.92977e-15 0)
(3 -3.11451e-15 0)
(3 -2.07342e-15 0)
(3 -1.25072e-15 0)
(3 -1.58714e-15 0)
(3 -1.21376e-15 0)
(3 -8.30365e-16 0)
(3 -8.12679e-16 0)
(3 -8.8844e-16 0)
(3 -3.96747e-16 0)
(3 -3.00853e-16 0)
(3 -7.16676e-16 0)
(3 -1.03866e-15 0)
(3 -1.31501e-15 0)
(3 -3.17969e-16 0)
(3 1.0664e-15 0)
(3 6.19095e-16 0)
(3 1.26051e-19 0)
(3 -1.32746e-16 0)
(3 -7.24211e-17 0)
(3 -2.73928e-16 0)
(3 -4.60224e-16 0)
(3 -4.33239e-16 0)
(3 7.13121e-16 0)
(3 1.19398e-15 0)
(3 9.82352e-16 0)
(3 5.89832e-16 0)
(3 6.75707e-16 0)
(3 5.52321e-16 0)
(3 -2.98383e-16 0)
(3 -3.4074e-16 0)
(3 1.7442e-16 0)
(3 3.2707e-16 0)
(3 3.05456e-16 0)
(3 -2.54119e-16 0)
(3 -1.11e-15 0)
(3 -2.63812e-15 0)
(3 -2.72386e-15 0)
(3 -2.18708e-15 0)
(3 -2.18546e-15 0)
(3 -1.69743e-15 0)
(3 -8.83076e-16 0)
(3 1.13504e-16 0)
(3 3.5986e-16 0)
(3 9.3916e-16 0)
(3 1.14769e-15 0)
(3 9.54061e-16 0)
(3 8.42149e-16 0)
(3 9.58488e-16 0)
(3 8.29424e-16 0)
(3 1.35431e-15 0)
(3 1.81054e-15 0)
(3 2.44871e-15 0)
(3 2.53782e-15 0)
(3 2.10444e-15 0)
(3 2.13955e-15 0)
(3 1.73277e-15 0)
(3 1.37555e-15 0)
(3 9.57144e-16 0)
(3 5.88716e-16 0)
(3 3.61436e-16 0)
(3 -1.23521e-15 0)
(3 -1.66425e-15 0)
(3 -1.10522e-15 0)
(3 -1.07923e-16 0)
(3 6.19064e-16 0)
(3 1.50965e-16 0)
(3 7.86374e-17 0)
(3 2.3972e-16 0)
(3 7.0606e-16 0)
(3 5.85102e-16 0)
(3 6.40185e-16 0)
(3 5.43659e-16 0)
(3 -2.36235e-16 0)
(3 -6.76701e-16 0)
(3 -2.06945e-16 0)
(3 -2.549e-16 0)
(3 -9.2423e-16 0)
(3 -1.56264e-15 0)
(3 -1.67469e-15 0)
(3 -1.1319e-15 0)
(3 3.33189e-16 0)
(3 4.10201e-16 0)
(3 1.15607e-16 0)
(3 2.37673e-16 0)
(3 -3.86366e-16 0)
(3 -1.5532e-17 0)
(3 5.90772e-16 0)
(3 1.02489e-15 0)
(3 3.42279e-16 0)
(3 1.02203e-16 0)
(3 8.16757e-16 0)
(3 4.02422e-16 0)
(3 -2.89132e-16 0)
(3 -1.22986e-15 0)
(3 -2.08309e-15 0)
(3 -2.20425e-15 0)
(3 -2.23026e-15 0)
(3 -1.73632e-15 0)
(3 -1.81007e-15 0)
(3 -2.18408e-15 0)
(3 -2.23338e-15 0)
(3 -2.03648e-15 0)
(3 -1.92034e-15 0)
(3 -1.17945e-15 0)
(3 3.92948e-16 0)
(3 9.87684e-16 0)
(3 6.89646e-16 0)
(3 -1.12331e-16 0)
(3 -3.12246e-16 0)
(3 5.17714e-16 0)
(3 1.39863e-15 0)
(3 1.18463e-15 0)
(3 1.02964e-15 0)
(3 6.03793e-16 0)
(3 5.66634e-16 0)
(3 4.34278e-16 0)
(3 -6.02708e-16 0)
(3 -8.89968e-16 0)
(3 -3.9735e-16 0)
(3 5.03618e-16 0)
(3 1.65261e-15 0)
(3 1.78003e-15 0)
(3 1.82048e-15 0)
(3 1.35394e-15 0)
(3 1.15564e-16 0)
(3 -9.11344e-16 0)
(3 -2.75735e-16 0)
(3 -6.63227e-17 0)
(3 2.44028e-16 0)
(3 -6.84999e-16 0)
(3 -1.29797e-15 0)
(3 -1.86005e-15 0)
(3 -2.75589e-15 0)
(3 -3.03537e-15 0)
(3 -3.41086e-15 0)
(3 -3.33128e-15 0)
(3 -2.2406e-15 0)
(3 -1.76767e-15 0)
(3 -2.74317e-16 0)
(3 1.40687e-16 0)
(3 -7.63436e-16 0)
(3 -9.02858e-16 0)
(3 -5.20305e-16 0)
(3 9.38503e-17 0)
(3 4.74072e-16 0)
(3 1.11902e-15 0)
(3 1.35685e-15 0)
(3 2.24568e-15 0)
(3 1.8261e-15 0)
(3 1.00021e-15 0)
(3 5.63339e-16 0)
(3 1.41973e-15 0)
(3 1.55849e-15 0)
(3 1.50127e-15 0)
(3 1.95366e-15 0)
(3 1.59474e-15 0)
(3 1.2231e-15 0)
(3 7.76165e-16 0)
(3 -5.09571e-16 0)
(3 -1.2673e-15 0)
(3 -2.82795e-16 0)
(3 -1.28883e-16 0)
(3 -1.00343e-16 0)
(3 -1.88059e-16 0)
(3 -2.85418e-16 0)
(3 -2.03908e-16 0)
(3 -6.37521e-17 0)
(3 -1.2523e-16 0)
(3 -1.19417e-15 0)
(3 -1.56131e-15 0)
(3 -1.31023e-15 0)
(3 -8.46738e-16 0)
(3 -4.95142e-16 0)
(3 1.23697e-17 0)
(3 4.55929e-16 0)
(3 -1.24309e-16 0)
(3 -3.73347e-16 0)
(3 -5.13925e-17 0)
(3 2.54481e-16 0)
(3 2.28576e-16 0)
(3 1.15172e-16 0)
(3 -4.38516e-16 0)
(3 -4.2125e-16 0)
(3 5.42488e-16 0)
(3 5.64465e-16 0)
(3 4.46635e-16 0)
(3 1.81514e-16 0)
(3 -1.26112e-16 0)
(3 -5.29223e-16 0)
(3 -7.95892e-16 0)
(3 -8.50383e-16 0)
(3 -1.27829e-15 0)
(3 -1.42795e-15 0)
(3 -1.99421e-15 0)
(3 -2.52799e-15 0)
(3 -1.89487e-15 0)
(3 -1.06856e-15 0)
(3 -1.8751e-15 0)
(3 -8.29304e-16 0)
(3 -1.06876e-16 0)
(3 1.68962e-15 0)
(3 3.23078e-15 0)
(3 3.66046e-15 0)
(3 2.81806e-15 0)
(3 1.45007e-15 0)
(3 1.39522e-15 0)
(3 1.98165e-15 0)
(3 2.20764e-15 0)
(3 1.5655e-15 0)
(3 8.53397e-16 0)
(3 3.71062e-16 0)
(3 2.21158e-16 0)
(3 -1.97859e-16 0)
(3 -3.15685e-16 0)
(3 -7.26727e-16 0)
(3 -6.2316e-16 0)
(3 8.07976e-16 0)
(3 1.31856e-15 0)
(3 7.49966e-16 0)
(3 2.20711e-16 0)
(3 2.56176e-16 0)
(3 2.52647e-16 0)
(3 -3.42096e-16 0)
(3 -5.12846e-16 0)
(3 -1.60995e-15 0)
(3 -3.0877e-15 0)
(3 -3.39565e-15 0)
(3 -3.01576e-15 0)
(3 -3.27319e-15 0)
(3 -3.41225e-15 0)
(3 -3.15223e-15 0)
(3 -1.52434e-15 0)
(3 -1.11013e-15 0)
(3 -1.16917e-15 0)
(3 -1.3851e-15 0)
(3 -2.44671e-15 0)
(3 -2.11892e-15 0)
(3 -8.27226e-16 0)
(3 -7.48556e-16 0)
(3 -8.34575e-17 0)
(3 8.29174e-16 0)
(3 9.73787e-16 0)
(3 1.86838e-15 0)
(3 2.10356e-15 0)
(3 1.86685e-15 0)
(3 1.61652e-15 0)
(3 1.50049e-15 0)
(3 8.29755e-16 0)
(3 2.72449e-16 0)
(3 1.34982e-15 0)
(3 2.00011e-15 0)
(3 3.23772e-15 0)
(3 3.80214e-15 0)
(3 1.91637e-15 0)
(3 -4.64311e-18 0)
(3 -8.34897e-16 0)
(3 -6.61765e-16 0)
(3 -1.91909e-16 0)
(3 4.06524e-19 0)
(3 -3.21813e-16 0)
(3 -6.43565e-16 0)
(3 -8.64831e-16 0)
(3 -8.92851e-16 0)
(3 -1.21357e-15 0)
(3 -9.98131e-16 0)
(3 -6.91297e-16 0)
(3 -5.25705e-16 0)
(3 -1.50974e-16 0)
(3 3.29839e-16 0)
(3 5.68495e-16 0)
(3 7.15031e-16 0)
(3 7.41213e-17 0)
(3 -4.17391e-16 0)
(3 -3.77954e-16 0)
(3 -3.06168e-16 0)
(3 5.18543e-16 0)
(3 1.62785e-15 0)
(3 7.78642e-16 0)
(3 -6.64655e-16 0)
(3 -6.47764e-16 0)
(3 -6.27836e-17 0)
(3 4.8999e-16 0)
(3 5.95232e-16 0)
(3 5.37429e-16 0)
(3 -2.81626e-16 0)
(3 -5.96846e-16 0)
(3 -1.51143e-15 0)
(3 -2.28978e-15 0)
(3 -2.50535e-15 0)
(3 -2.24349e-15 0)
(3 -8.79478e-16 0)
(3 8.43376e-16 0)
(3 9.27656e-16 0)
(3 8.0052e-16 0)
(3 1.09229e-15 0)
(3 9.26198e-16 0)
(3 4.88707e-16 0)
(3 8.14454e-16 0)
(3 1.82045e-15 0)
(3 3.21118e-15 0)
(3 3.15662e-15 0)
(3 3.28327e-15 0)
(3 3.98395e-15 0)
(3 3.49561e-15 0)
(3 1.86039e-15 0)
(3 2.08975e-15 0)
(3 1.57811e-15 0)
(3 1.03283e-15 0)
(3 1.95945e-16 0)
(3 9.98103e-18 0)
(3 4.35916e-17 0)
(3 1.85818e-16 0)
(3 6.24123e-16 0)
(3 -9.03461e-18 0)
(3 -1.14484e-16 0)
(3 3.89134e-17 0)
(3 1.0479e-15 0)
(3 1.34962e-15 0)
(3 2.83509e-17 0)
(3 -1.3666e-15 0)
(3 -1.99529e-15 0)
(3 -3.66057e-15 0)
(3 -4.72918e-15 0)
(3 -4.63104e-15 0)
(3 -4.19468e-15 0)
(3 -3.00059e-15 0)
(3 -1.84811e-15 0)
(3 -1.00697e-15 0)
(3 -1.28955e-15 0)
(3 -1.51831e-15 0)
(3 -1.42775e-15 0)
(3 -2.9686e-15 0)
(3 -2.44423e-15 0)
(3 -1.21095e-15 0)
(3 -2.40194e-16 0)
(3 9.29828e-16 0)
(3 1.58973e-15 0)
(3 1.52654e-15 0)
(3 1.44743e-15 0)
(3 9.84697e-16 0)
(3 7.03248e-16 0)
(3 6.8818e-16 0)
(3 9.09571e-16 0)
(3 2.57108e-16 0)
(3 9.9425e-16 0)
(3 1.68232e-15 0)
(3 1.84345e-15 0)
(3 2.74452e-15 0)
(3 2.56661e-15 0)
(3 1.88239e-15 0)
(3 4.75348e-16 0)
(3 -9.23875e-16 0)
(3 -1.34802e-15 0)
(3 1.23744e-16 0)
(3 6.23816e-16 0)
(3 5.4738e-16 0)
(3 6.95695e-16 0)
(3 4.50467e-16 0)
(3 3.99131e-16 0)
(3 -1.56072e-16 0)
(3 -7.67209e-17 0)
(3 7.18029e-17 0)
(3 -2.62856e-17 0)
(3 -7.16371e-17 0)
(3 -3.59824e-16 0)
(3 -7.55808e-16 0)
(3 -1.07412e-15 0)
(3 -8.80543e-16 0)
(3 -2.5984e-16 0)
(3 -2.74754e-17 0)
(3 8.67003e-17 0)
(3 2.7943e-16 0)
(3 6.04496e-16 0)
(3 1.02131e-15 0)
(3 5.35906e-16 0)
(3 8.098e-16 0)
(3 1.04399e-15 0)
(3 8.87137e-16 0)
(3 1.20098e-15 0)
(3 1.39216e-15 0)
(3 2.86615e-16 0)
(3 -6.73724e-16 0)
(3 -1.28874e-15 0)
(3 -1.38524e-15 0)
(3 -5.95945e-16 0)
(3 -4.39965e-17 0)
(3 1.92443e-15 0)
(3 1.85799e-15 0)
(3 1.53458e-15 0)
(3 1.96918e-15 0)
(3 1.81354e-15 0)
(3 1.54708e-15 0)
(3 7.58789e-16 0)
(3 -7.13605e-16 0)
(3 -8.42299e-16 0)
(3 1.37979e-15 0)
(3 3.61572e-15 0)
(3 4.07638e-15 0)
(3 3.21437e-15 0)
(3 1.33526e-15 0)
(3 1.43798e-15 0)
(3 2.7274e-15 0)
(3 3.26465e-15 0)
(3 2.90916e-15 0)
(3 1.74081e-15 0)
(3 1.23035e-15 0)
(3 1.45885e-15 0)
(3 1.56111e-15 0)
(3 3.25238e-16 0)
(3 1.59158e-17 0)
(3 1.32998e-15 0)
(3 1.70058e-15 0)
(3 1.67786e-15 0)
(3 1.34109e-15 0)
(3 8.0197e-16 0)
(3 -6.11282e-16 0)
(3 -1.1115e-15 0)
(3 -2.25902e-15 0)
(3 -2.93498e-15 0)
(3 -3.27401e-15 0)
(3 -2.78451e-15 0)
(3 -2.67617e-15 0)
(3 -1.55919e-15 0)
(3 -2.18115e-15 0)
(3 -2.72167e-15 0)
(3 -3.02416e-15 0)
(3 -2.94513e-15 0)
(3 -2.37377e-15 0)
(3 -1.76789e-15 0)
(3 -1.68749e-15 0)
(3 -1.45873e-15 0)
(3 -1.03022e-15 0)
(3 -9.2671e-16 0)
(3 -6.16929e-16 0)
(3 -8.66326e-16 0)
(3 -5.37841e-16 0)
(3 -1.43037e-17 0)
(3 -7.13811e-16 0)
(3 -1.24211e-15 0)
(3 -1.05703e-15 0)
(3 4.88039e-16 0)
(3 1.04509e-15 0)
(3 1.98285e-15 0)
(3 2.49988e-15 0)
(3 2.19032e-15 0)
(3 1.66877e-15 0)
(3 1.17411e-15 0)
(3 4.14237e-16 0)
(3 3.52467e-16 0)
(3 1.71581e-16 0)
(3 3.77636e-16 0)
(3 6.18086e-16 0)
(3 9.89979e-16 0)
(3 1.09471e-15 0)
(3 9.17107e-16 0)
(3 8.82851e-16 0)
(3 1.09586e-15 0)
(3 7.27267e-16 0)
(3 5.0915e-16 0)
(3 -3.29064e-16 0)
(3 -2.10589e-15 0)
(3 -2.48195e-15 0)
(3 -2.44657e-15 0)
(3 -1.98228e-15 0)
(3 -1.06116e-15 0)
(3 -5.81331e-16 0)
(3 -5.37372e-16 0)
(3 -8.42871e-16 0)
(3 -2.67809e-16 0)
(3 8.32379e-16 0)
(3 2.81857e-15 0)
(3 3.15196e-15 0)
(3 2.82718e-15 0)
(3 2.52038e-15 0)
(3 1.85485e-15 0)
(3 1.08776e-15 0)
(3 3.58996e-16 0)
(3 8.91037e-17 0)
(3 1.71685e-16 0)
(3 5.49823e-16 0)
(3 1.32956e-15 0)
(3 2.1774e-15 0)
(3 3.14982e-15 0)
(3 3.32802e-15 0)
(3 3.10853e-15 0)
(3 2.38972e-15 0)
(3 2.44641e-15 0)
(3 2.10354e-15 0)
(3 8.13427e-16 0)
(3 2.57416e-16 0)
(3 -1.81871e-16 0)
(3 4.96676e-16 0)
(3 2.12673e-15 0)
(3 1.78848e-15 0)
(3 8.83113e-16 0)
(3 1.43347e-15 0)
(3 1.81102e-15 0)
(3 1.88996e-15 0)
(3 2.23172e-15 0)
(3 2.1476e-15 0)
(3 2.41247e-15 0)
(3 2.39013e-15 0)
(3 1.35667e-15 0)
(3 1.08172e-15 0)
(3 1.00851e-15 0)
(3 1.7233e-15 0)
(3 1.83928e-15 0)
(3 1.80133e-15 0)
(3 1.22433e-15 0)
(3 6.22915e-16 0)
(3 2.86439e-16 0)
(3 -3.16896e-16 0)
(3 -1.45332e-15 0)
(3 -1.8785e-15 0)
(3 -2.00533e-15 0)
(3 -1.43017e-15 0)
(3 -7.13101e-16 0)
(3 -7.80365e-16 0)
(3 -8.15032e-16 0)
(3 -1.64173e-15 0)
(3 -2.10872e-15 0)
(3 -2.57674e-15 0)
(3 -3.00587e-15 0)
(3 -2.70862e-15 0)
(3 -1.67614e-15 0)
(3 -1.15821e-15 0)
(3 -1.44491e-15 0)
(3 -1.61719e-15 0)
(3 -1.47808e-15 0)
(3 -1.09892e-15 0)
(3 -6.32839e-16 0)
(3 -5.75531e-16 0)
(3 -5.03189e-16 0)
(3 -5.29443e-16 0)
(3 -3.36858e-17 0)
(3 4.77674e-16 0)
(3 6.81939e-16 0)
(3 1.02783e-15 0)
(3 1.19398e-15 0)
(3 1.23689e-15 0)
(3 1.78149e-15 0)
(3 1.30114e-15 0)
(3 1.10611e-15 0)
(3 1.65456e-15 0)
(3 1.79015e-15 0)
(3 -7.32665e-17 0)
(3 3.88715e-17 0)
(3 -2.59099e-16 0)
(3 -2.92504e-16 0)
(3 -7.73597e-16 0)
(3 -6.00746e-16 0)
(3 -1.82803e-16 0)
(3 8.27028e-16 0)
(3 6.75519e-16 0)
(3 -1.29071e-16 0)
(3 -9.5032e-16 0)
(3 -1.5517e-15 0)
(3 -9.13579e-16 0)
(3 -6.63526e-16 0)
(3 -5.96119e-16 0)
(3 -3.94966e-16 0)
(3 -3.85881e-16 0)
(3 -8.27539e-16 0)
(3 -9.06078e-16 0)
(3 -4.00758e-16 0)
(3 1.08084e-16 0)
(3 1.2267e-15 0)
(3 1.26689e-15 0)
(3 1.43386e-15 0)
(3 1.66202e-15 0)
(3 1.42472e-15 0)
(3 4.61898e-16 0)
(3 -4.41138e-16 0)
(3 -1.03447e-15 0)
(3 2.13944e-16 0)
(3 5.3359e-16 0)
(3 8.69875e-16 0)
(3 2.07416e-15 0)
(3 3.00088e-15 0)
(3 3.51637e-15 0)
(3 3.43776e-15 0)
(3 2.66813e-15 0)
(3 2.5322e-15 0)
(3 1.79011e-15 0)
(3 2.62702e-16 0)
(3 -6.41382e-16 0)
(3 -9.23338e-16 0)
(3 -3.08763e-18 0)
(3 4.86211e-16 0)
(3 7.32965e-17 0)
(3 2.28742e-16 0)
(3 1.35851e-15 0)
(3 1.73387e-15 0)
(3 1.75814e-15 0)
(3 8.29333e-16 0)
(3 7.17342e-16 0)
(3 1.06524e-15 0)
(3 9.68873e-16 0)
(3 3.00628e-16 0)
(3 3.52662e-16 0)
(3 4.02091e-16 0)
(3 3.0518e-16 0)
(3 1.16179e-16 0)
(3 -1.32253e-17 0)
(3 -4.43304e-18 0)
(3 -1.42866e-16 0)
(3 -5.69981e-17 0)
(3 -4.62509e-16 0)
(3 -7.62219e-16 0)
(3 -8.55847e-16 0)
(3 -9.04764e-16 0)
(3 -3.96711e-16 0)
(3 3.70927e-16 0)
(3 1.21617e-15 0)
(3 1.0514e-15 0)
(3 4.15411e-16 0)
(3 2.27299e-16 0)
(3 5.02585e-17 0)
(3 -3.5478e-16 0)
(3 -5.02235e-16 0)
(3 -1.47441e-15 0)
(3 -1.61381e-15 0)
(3 -1.37479e-15 0)
(3 -9.288e-16 0)
(3 -7.42225e-16 0)
(3 -1.20748e-15 0)
(3 -1.56694e-15 0)
(3 -2.25642e-15 0)
(3 -2.54189e-15 0)
(3 -1.92345e-15 0)
(3 1.61147e-16 0)
(3 9.62201e-16 0)