/*--------------------------------*- C++ -*----------------------------------*\
  =========                 |
  \\      /  F ield         | OpenFOAM: The Open Source CFD Toolbox
   \\    /   O peration     | Website:  https://openfoam.org
    \\  /    A nd           | Version:  7
     \\/     M anipulation  |
\*---------------------------------------------------------------------------*/
FoamFile
{
    version     2.0;
    format      ascii;
    class       volScalarField;
    location    "2.4";
    object      p;
}
// * * * * * * * * * * * * * * * * * * * * * * * * * * * * * * * * * * * * * //

dimensions      [1 -1 -2 0 0 0 0];

internalField   nonuniform List<scalar> 
16512
(
0.963238
0.974458
0.982057
0.987687
0.997067
1.0124
1.03267
1.05502
1.07266
1.08432
1.09134
1.09665
1.10398
1.11558
1.13303
1.15384
1.16741
1.17326
1.17771
1.18379
1.19315
1.20844
1.22666
1.2346
1.23647
1.23736
1.23627
1.23554
1.2372
1.24106
1.24964
1.26775
1.28542
1.29443
1.30225
1.30943
1.3158
1.32277
1.33073
1.33518
1.33617
1.33568
1.3324
1.3292
1.32963
1.33315
1.34167
1.35115
1.35439
1.35624
1.35627
1.35411
1.35525
1.35857
1.36419
1.37286
1.38015
1.38379
1.38532
1.38485
1.38407
1.38343
1.38345
1.38468
1.38475
1.38236
1.37977
1.37823
1.37735
1.37806
1.38104
1.38486
1.3897
1.39328
1.39562
1.39526
1.39222
1.38718
1.38154
1.37896
1.37903
1.38258
1.39121
1.39903
1.40086
1.40105
1.39981
1.39519
1.38703
1.38147
1.38087
1.38128
1.38293
1.38674
1.39196
1.39503
1.395
1.39374
1.39105
1.38633
1.38065
1.37702
1.37566
1.37445
1.37363
1.37388
1.37507
1.37666
1.37878
1.38169
1.38553
1.38961
1.39239
1.39238
1.38927
1.3805
1.36961
1.36396
1.36287
1.36322
1.36584
1.37107
1.37717
1.37974
1.37828
1.3752
1.36901
1.35843
1.34935
1.34438
1.34179
1.34002
1.34021
1.34368
1.34766
1.34905
1.34817
1.34709
1.34583
1.34373
1.34013
1.33627
1.33303
1.32966
1.32599
1.32243
1.3193
1.31652
1.31416
1.31287
1.31281
1.31276
1.31151
1.30941
1.30764
1.30615
1.30555
1.30671
1.30742
1.30696
1.30608
1.30493
1.30309
1.30155
1.30031
1.29895
1.29769
1.29697
1.29744
1.29818
1.29582
1.29191
1.28814
1.28594
1.28464
1.28361
1.28292
1.28306
1.28381
1.28512
1.28606
1.28582
1.28392
1.28159
1.28068
1.28007
1.27997
1.28096
1.28217
1.28291
1.2837
1.28401
1.28352
1.28266
1.28081
1.27899
1.27796
1.27736
1.27711
1.27686
1.27609
1.27429
1.27143
1.26873
1.26637
1.26411
1.26261
1.26192
1.2622
1.26424
1.26554
1.26582
1.26612
1.26627
1.26588
1.26411
1.26127
1.25844
1.2569
1.25591
1.25517
1.25523
1.25587
1.25564
1.25532
1.25485
1.254
1.25245
1.2495
1.24595
1.24422
1.24422
1.24451
1.24529
1.24717
1.25023
1.25324
1.25487
1.25528
1.25448
1.25287
1.24897
1.24145
1.23527
1.23326
1.2325
1.23227
1.2325
1.2335
1.23462
1.2355
1.23646
1.23757
1.2384
1.23931
1.24067
1.24155
1.24075
0.949402
0.963758
0.979639
0.992404
1.00245
1.01371
1.02716
1.04291
1.05876
1.07233
1.08332
1.09331
1.10341
1.11474
1.12871
1.14251
1.15315
1.16131
1.1689
1.17696
1.18658
1.20041
1.21748
1.22874
1.23436
1.23851
1.2432
1.24763
1.25058
1.25315
1.25906
1.26896
1.27627
1.28205
1.28778
1.29484
1.30213
1.30991
1.3184
1.32589
1.33074
1.33393
1.33611
1.33735
1.33891
1.34216
1.34741
1.35355
1.35797
1.36087
1.36341
1.36597
1.36837
1.3705
1.37187
1.37228
1.37164
1.37107
1.37132
1.37276
1.37464
1.37581
1.37704
1.37911
1.38106
1.38236
1.38453
1.38738
1.38908
1.38905
1.38833
1.38695
1.38513
1.38421
1.38422
1.38602
1.38788
1.38774
1.38659
1.38437
1.38314
1.38449
1.38789
1.39154
1.39449
1.39623
1.3963
1.39442
1.39003
1.38363
1.37904
1.37794
1.37799
1.37997
1.38445
1.38943
1.39205
1.39255
1.39233
1.39129
1.3889
1.38598
1.3843
1.38285
1.38092
1.37923
1.37824
1.3777
1.3779
1.37885
1.38056
1.38266
1.38412
1.38433
1.38254
1.37956
1.37613
1.37153
1.36711
1.36473
1.36446
1.36651
1.36958
1.37108
1.37047
1.36789
1.36431
1.36032
1.35626
1.35253
1.34945
1.34704
1.34577
1.34643
1.34804
1.34739
1.3455
1.34351
1.34103
1.33762
1.33475
1.33345
1.33281
1.33222
1.33108
1.32903
1.3257
1.32116
1.31633
1.31262
1.3103
1.30851
1.30711
1.30646
1.3057
1.30474
1.30467
1.30542
1.30479
1.30354
1.30235
1.30075
1.29838
1.29669
1.29533
1.294
1.29282
1.29239
1.29265
1.29271
1.29332
1.29385
1.29307
1.29161
1.28961
1.28735
1.28505
1.28306
1.28205
1.28231
1.28256
1.28214
1.28207
1.28203
1.28158
1.28083
1.2801
1.27962
1.27939
1.27947
1.27962
1.27993
1.2806
1.28073
1.28069
1.28068
1.28046
1.27974
1.27901
1.27818
1.27685
1.27475
1.27249
1.27121
1.27032
1.26918
1.26783
1.26696
1.26663
1.26608
1.26536
1.26479
1.26437
1.26371
1.26174
1.25866
1.25632
1.2556
1.25535
1.25525
1.25566
1.25732
1.25834
1.25808
1.25783
1.25755
1.25694
1.25583
1.25343
1.2498
1.24741
1.24686
1.24664
1.24662
1.24737
1.24938
1.25165
1.25278
1.25243
1.25117
1.24904
1.2461
1.24255
1.23958
1.23808
1.23697
1.23593
1.2351
1.2346
1.23486
1.23545
1.23589
1.23633
1.23669
1.237
1.23724
1.23726
1.23674
0.9458
0.955723
0.96886
0.985422
1.00603
1.02862
1.04659
1.05864
1.06797
1.07567
1.08273
1.09066
1.10118
1.11604
1.13335
1.14673
1.15591
1.16355
1.17138
1.18034
1.19093
1.20514
1.21848
1.22264
1.22582
1.23021
1.23613
1.24269
1.25022
1.25977
1.27396
1.28638
1.29171
1.29583
1.29754
1.30113
1.30475
1.30862
1.31443
1.32008
1.32317
1.32639
1.33075
1.33572
1.34124
1.34743
1.35078
1.35208
1.35353
1.35557
1.35919
1.36454
1.37183
1.38047
1.38488
1.38521
1.38274
1.37702
1.37286
1.37172
1.37177
1.37261
1.37266
1.37249
1.37291
1.37402
1.37748
1.3844
1.39116
1.39505
1.39779
1.39835
1.39527
1.38916
1.38292
1.37992
1.37937
1.38084
1.38354
1.38681
1.39081
1.39451
1.39515
1.39386
1.39252
1.39167
1.39102
1.39044
1.38913
1.38599
1.38188
1.37905
1.37762
1.37665
1.37654
1.37793
1.38027
1.38235
1.3838
1.38499
1.38542
1.38553
1.38568
1.38612
1.38696
1.3878
1.38815
1.38762
1.38605
1.38334
1.37964
1.37587
1.37266
1.37026
1.36922
1.37042
1.37228
1.37236
1.37166
1.37105
1.36934
1.36587
1.36205
1.35926
1.35661
1.35429
1.3532
1.35313
1.35271
1.35191
1.35135
1.35192
1.35398
1.35605
1.35542
1.35273
1.34886
1.34307
1.33552
1.3287
1.32524
1.32417
1.32414
1.32579
1.32798
1.32957
1.32936
1.32738
1.32438
1.31973
1.3134
1.3079
1.3055
1.30459
1.30524
1.30765
1.31004
1.31003
1.30861
1.30663
1.30418
1.3011
1.29776
1.29547
1.29377
1.29198
1.29
1.28803
1.28595
1.28461
1.28561
1.28899
1.29203
1.29319
1.29323
1.2931
1.29225
1.29002
1.28637
1.28203
1.27937
1.27871
1.27947
1.28215
1.28542
1.28652
1.28582
1.28463
1.28286
1.28055
1.27793
1.27558
1.2743
1.27408
1.27478
1.27657
1.27771
1.27735
1.27631
1.27505
1.27314
1.27027
1.26858
1.26809
1.26788
1.26814
1.26886
1.27033
1.27167
1.27153
1.27072
1.26935
1.26691
1.26306
1.2582
1.25383
1.25157
1.25074
1.25028
1.25018
1.2518
1.25495
1.25628
1.25624
1.25638
1.25669
1.25674
1.25649
1.25551
1.25334
1.25268
1.25276
1.25283
1.25306
1.25357
1.2537
1.25284
1.2515
1.24964
1.24689
1.24303
1.23913
1.23851
1.23887
1.23975
1.24042
1.24029
1.24029
1.24048
1.24034
1.23957
1.23816
1.23676
1.23534
1.23397
1.23291
1.2321
1.23104
0.935119
0.940743
0.951719
0.972644
1.00117
1.02683
1.04574
1.05741
1.06588
1.07089
1.0754
1.08133
1.09179
1.10947
1.12771
1.14061
1.15072
1.15844
1.1651
1.17301
1.18481
1.20241
1.21493
1.21998
1.22465
1.23009
1.23567
1.24109
1.24702
1.2552
1.26899
1.28047
1.28574
1.29101
1.29619
1.30178
1.30659
1.31122
1.3178
1.32291
1.32565
1.3277
1.3297
1.33348
1.33898
1.34661
1.35144
1.35366
1.35531
1.35672
1.35942
1.36278
1.36808
1.37447
1.37673
1.37659
1.37372
1.36928
1.3677
1.36831
1.37
1.37292
1.37711
1.37991
1.38107
1.382
1.38389
1.38725
1.38979
1.39141
1.39319
1.394
1.39173
1.3867
1.38246
1.38067
1.3797
1.37952
1.38113
1.38473
1.38966
1.39346
1.39457
1.39481
1.39427
1.3932
1.39195
1.39088
1.38971
1.38763
1.3847
1.38269
1.38256
1.38282
1.38318
1.38397
1.385
1.38542
1.38558
1.38567
1.38553
1.38485
1.38421
1.38435
1.38463
1.38487
1.38479
1.38407
1.38286
1.38107
1.37884
1.37717
1.37619
1.37524
1.37544
1.37636
1.37644
1.37539
1.37367
1.37255
1.37152
1.36948
1.36656
1.36359
1.36112
1.35921
1.35753
1.35567
1.3534
1.35117
1.35001
1.34986
1.35145
1.35318
1.35232
1.35024
1.34776
1.34423
1.33947
1.33499
1.33212
1.33005
1.32829
1.32708
1.32657
1.32671
1.32625
1.32459
1.32202
1.31826
1.31364
1.30968
1.30722
1.30567
1.30545
1.30775
1.30928
1.30875
1.30827
1.30755
1.30624
1.30434
1.30209
1.29986
1.2981
1.29672
1.29533
1.29361
1.29169
1.29001
1.28931
1.29067
1.29241
1.29232
1.2919
1.29165
1.29102
1.28934
1.28648
1.28319
1.28142
1.28057
1.28003
1.28108
1.28351
1.2846
1.28432
1.28362
1.28275
1.28173
1.28062
1.27938
1.27827
1.27772
1.27756
1.27757
1.27743
1.27704
1.27645
1.27552
1.27372
1.27118
1.26969
1.26868
1.26781
1.26746
1.26807
1.26954
1.26966
1.26926
1.26863
1.26753
1.26565
1.26247
1.25875
1.257
1.25682
1.25638
1.25552
1.25502
1.25575
1.2566
1.25628
1.25574
1.25508
1.25443
1.25379
1.25235
1.25039
1.25018
1.25053
1.25088
1.25143
1.25212
1.25303
1.25372
1.25372
1.25304
1.2518
1.24935
1.24502
1.2407
1.23879
1.23826
1.23826
1.2388
1.2386
1.23846
1.23869
1.23893
1.23901
1.23922
1.23922
1.23867
1.2377
1.2362
1.23411
1.23166
0.925307
0.933679
0.949362
0.979619
1.00632
1.02114
1.03468
1.04394
1.05078
1.05696
1.06478
1.07749
1.09998
1.12261
1.1331
1.1386
1.14242
1.14519
1.15078
1.16103
1.18051
1.20303
1.21538
1.22278
1.2294
1.23471
1.23847
1.24137
1.24508
1.25118
1.26396
1.27526
1.28208
1.28849
1.29389
1.297
1.29862
1.30165
1.3073
1.31555
1.32288
1.32832
1.33316
1.33812
1.34269
1.34567
1.34783
1.35048
1.35439
1.35985
1.36615
1.37095
1.37356
1.3746
1.37449
1.3726
1.36939
1.36707
1.36688
1.36768
1.36919
1.37142
1.37421
1.3773
1.38098
1.38622
1.39207
1.3949
1.39541
1.39513
1.39362
1.39008
1.3835
1.37642
1.37387
1.37411
1.37545
1.37854
1.38362
1.38892
1.39209
1.3932
1.39299
1.39158
1.39022
1.38957
1.3895
1.38984
1.39022
1.3896
1.38714
1.38401
1.3821
1.38177
1.38234
1.38386
1.38641
1.38835
1.38983
1.39115
1.3917
1.39117
1.38977
1.38791
1.38595
1.38382
1.38122
1.37801
1.37461
1.37184
1.37048
1.3704
1.37122
1.37374
1.37802
1.38186
1.38348
1.38309
1.38077
1.37593
1.36912
1.36382
1.36108
1.35976
1.3595
1.36014
1.36012
1.35947
1.35886
1.35777
1.35578
1.35307
1.35016
1.34729
1.34429
1.34115
1.33799
1.33555
1.33437
1.33388
1.33375
1.33394
1.33404
1.33329
1.3319
1.32999
1.32747
1.32354
1.31752
1.3115
1.30811
1.30635
1.30535
1.30529
1.30687
1.30808
1.30739
1.30622
1.30491
1.30379
1.3028
1.30185
1.30056
1.29902
1.29746
1.29573
1.29426
1.29314
1.29225
1.29176
1.29254
1.29508
1.29674
1.29617
1.29503
1.29298
1.28923
1.28418
1.28018
1.2787
1.27849
1.27874
1.28042
1.28267
1.28332
1.2829
1.28199
1.28057
1.27922
1.2783
1.27767
1.27777
1.27849
1.27999
1.28132
1.28152
1.28117
1.28057
1.27944
1.27748
1.27499
1.27345
1.27287
1.27242
1.27232
1.27249
1.27224
1.27134
1.26967
1.26734
1.26466
1.26159
1.25797
1.25496
1.25433
1.25484
1.25553
1.25678
1.25822
1.25975
1.26123
1.26126
1.26071
1.26006
1.25895
1.25748
1.25572
1.25231
1.24876
1.24899
1.24925
1.24921
1.24896
1.24863
1.24843
1.2485
1.24867
1.2484
1.24783
1.24697
1.24589
1.24474
1.24346
1.24213
1.24067
1.23941
1.23814
1.23685
1.23565
1.23474
1.23406
1.23412
1.23504
1.23568
1.23569
1.2353
1.23466
1.23381
0.915593
0.932972
0.953415
0.976568
0.993211
1.00361
1.01446
1.02301
1.03014
1.04277
1.06166
1.08551
1.10952
1.12162
1.12646
1.13068
1.13394
1.13732
1.14444
1.16164
1.18821
1.20349
1.21049
1.21628
1.22177
1.22673
1.22983
1.23335
1.23919
1.25086
1.2659
1.2721
1.27469
1.27585
1.27844
1.28308
1.28886
1.29796
1.31043
1.32137
1.32816
1.33314
1.3376
1.3413
1.34351
1.34555
1.34908
1.35393
1.35977
1.36503
1.36927
1.37214
1.37317
1.37308
1.37206
1.37011
1.36757
1.36543
1.36442
1.36452
1.3658
1.36781
1.37053
1.37411
1.37891
1.38516
1.39101
1.39322
1.39361
1.39338
1.3912
1.3855
1.37782
1.37375
1.37373
1.37516
1.37849
1.38468
1.39105
1.39412
1.39493
1.39448
1.39264
1.3905
1.3897
1.39005
1.39077
1.3913
1.39126
1.3896
1.38612
1.38261
1.38066
1.38048
1.38169
1.38443
1.38766
1.38983
1.39098
1.39157
1.39093
1.38857
1.38531
1.38317
1.38234
1.38174
1.38061
1.37839
1.37533
1.37261
1.37121
1.37095
1.37152
1.37442
1.37961
1.38427
1.38626
1.38602
1.38348
1.3764
1.36679
1.36094
1.35878
1.35775
1.35735
1.35812
1.359
1.35945
1.35933
1.35852
1.35671
1.35349
1.34955
1.34593
1.3431
1.34096
1.33886
1.33717
1.33626
1.33545
1.33465
1.33404
1.33351
1.33266
1.33125
1.32938
1.32665
1.32263
1.31734
1.31244
1.30985
1.30866
1.30804
1.30819
1.30923
1.30906
1.30838
1.30744
1.30657
1.30578
1.30509
1.30446
1.30331
1.30182
1.29993
1.2972
1.2945
1.29277
1.2917
1.29113
1.29218
1.29513
1.29667
1.29638
1.29576
1.29405
1.29017
1.28532
1.28235
1.28116
1.28089
1.2811
1.28211
1.28279
1.28267
1.28245
1.28183
1.28088
1.28024
1.27993
1.27934
1.27868
1.27876
1.27938
1.27991
1.27984
1.27934
1.27812
1.27608
1.27388
1.2726
1.27215
1.27185
1.27208
1.27289
1.27325
1.27294
1.27196
1.27012
1.2676
1.26507
1.26233
1.25888
1.25603
1.25583
1.25634
1.25669
1.25739
1.25882
1.26024
1.26057
1.26035
1.26006
1.25955
1.25829
1.25635
1.25409
1.25076
1.24941
1.25057
1.25119
1.25143
1.25144
1.25113
1.25066
1.25025
1.24956
1.2487
1.24773
1.24662
1.24535
1.24405
1.24303
1.24204
1.2408
1.23966
1.23885
1.2382
1.23767
1.23735
1.23685
1.23619
1.23602
1.23596
1.23538
1.23429
1.23296
1.23198
0.904798
0.930269
0.958869
0.974183
0.97924
0.98396
0.990846
1.00053
1.01283
1.03216
1.0612
1.08538
1.10199
1.11048
1.11482
1.11877
1.12453
1.13263
1.14516
1.1639
1.18233
1.19192
1.19731
1.2025
1.20745
1.21233
1.2184
1.22887
1.24475
1.25641
1.26109
1.26419
1.2656
1.26636
1.27083
1.27934
1.29542
1.313
1.32178
1.32505
1.32706
1.32763
1.32971
1.33305
1.33745
1.34472
1.35131
1.3538
1.35427
1.35311
1.35272
1.35503
1.35835
1.36008
1.3612
1.36157
1.36117
1.36119
1.36236
1.36516
1.36931
1.37376
1.3775
1.38048
1.383
1.38521
1.38776
1.39032
1.3913
1.39143
1.38989
1.38452
1.37816
1.37648
1.37684
1.37802
1.38079
1.38547
1.38863
1.38936
1.38955
1.38928
1.38957
1.39075
1.3917
1.39159
1.39062
1.38878
1.38595
1.38279
1.38065
1.3804
1.38188
1.38476
1.38789
1.38987
1.39039
1.39036
1.38969
1.3882
1.38594
1.38276
1.38023
1.37948
1.37905
1.37835
1.37681
1.37396
1.37079
1.3693
1.36935
1.37078
1.37447
1.38029
1.38627
1.38882
1.3883
1.38535
1.37916
1.37092
1.36435
1.36145
1.36045
1.36051
1.36172
1.36281
1.3627
1.3618
1.3603
1.35763
1.35404
1.35003
1.34614
1.34276
1.34064
1.33947
1.33835
1.33734
1.33655
1.33597
1.33555
1.33518
1.33451
1.33332
1.33163
1.32876
1.32455
1.31979
1.31536
1.31193
1.30996
1.30909
1.30872
1.30878
1.30869
1.30829
1.30793
1.30762
1.30736
1.30712
1.30685
1.3063
1.30519
1.30368
1.30098
1.29756
1.29561
1.29465
1.29414
1.29447
1.29614
1.29787
1.29756
1.29633
1.29414
1.29043
1.28619
1.28341
1.28243
1.28237
1.28276
1.28294
1.28266
1.28202
1.28123
1.28055
1.28013
1.27999
1.28031
1.28108
1.2815
1.2816
1.28179
1.28191
1.28148
1.28021
1.27808
1.27567
1.27413
1.27342
1.27321
1.27335
1.2738
1.27458
1.27494
1.27432
1.27289
1.27045
1.2673
1.26443
1.26225
1.26051
1.25902
1.25779
1.25746
1.25778
1.25833
1.25972
1.2615
1.26216
1.26198
1.26172
1.26105
1.25963
1.25724
1.25423
1.25084
1.24756
1.24722
1.24825
1.24867
1.24895
1.24928
1.24947
1.24959
1.24976
1.24976
1.2497
1.24964
1.24913
1.24776
1.24562
1.24327
1.24099
1.23895
1.23753
1.23682
1.23628
1.23598
1.23624
1.23668
1.23696
1.23743
1.23768
1.23721
1.23568
1.23346
1.23178
0.893934
0.925156
0.953376
0.963033
0.965754
0.969263
0.975269
0.982644
0.994718
1.0211
1.05546
1.07714
1.0873
1.09367
1.09843
1.10259
1.10894
1.12592
1.15132
1.16905
1.17609
1.18052
1.1839
1.18701
1.19065
1.19623
1.21066
1.23271
1.24538
1.25063
1.25417
1.25625
1.25944
1.26379
1.27185
1.28771
1.30565
1.31407
1.31724
1.31918
1.31979
1.31873
1.32026
1.32372
1.3308
1.34053
1.34545
1.34653
1.34525
1.34316
1.34378
1.34687
1.35175
1.35564
1.35838
1.36087
1.36357
1.36699
1.37208
1.37823
1.38282
1.38472
1.38475
1.38289
1.38189
1.38203
1.38317
1.38569
1.38689
1.38692
1.38586
1.38198
1.37712
1.37539
1.37529
1.37597
1.37798
1.38116
1.38394
1.38538
1.38637
1.38769
1.38941
1.39063
1.39045
1.38851
1.38583
1.38342
1.38167
1.38115
1.38214
1.38448
1.38682
1.38795
1.38792
1.38712
1.38622
1.38545
1.38466
1.3839
1.38295
1.38121
1.37907
1.37744
1.37582
1.37388
1.37225
1.37155
1.37179
1.37379
1.37736
1.38222
1.38715
1.38922
1.38842
1.38604
1.38166
1.37614
1.3711
1.36802
1.36686
1.36593
1.36497
1.36406
1.36277
1.36072
1.35787
1.35527
1.35307
1.35096
1.34885
1.34665
1.34443
1.34225
1.34034
1.33913
1.3383
1.33765
1.33739
1.3376
1.33794
1.33739
1.33584
1.3332
1.32932
1.32472
1.32016
1.31602
1.31281
1.31107
1.31055
1.31095
1.3117
1.31203
1.31169
1.31108
1.31039
1.30966
1.30899
1.30847
1.30798
1.30739
1.3066
1.30536
1.30225
1.29926
1.2982
1.29739
1.29684
1.29669
1.2967
1.29578
1.29414
1.29179
1.2888
1.28577
1.28425
1.28404
1.28514
1.287
1.28781
1.28762
1.28664
1.28476
1.28309
1.28223
1.28175
1.28161
1.28245
1.28388
1.28497
1.28543
1.28524
1.28398
1.2808
1.27607
1.27181
1.26958
1.26882
1.26865
1.26939
1.2713
1.27316
1.27392
1.2736
1.27231
1.26965
1.26617
1.26329
1.26153
1.26065
1.26065
1.26099
1.26126
1.26167
1.2623
1.26304
1.26383
1.26388
1.2633
1.26234
1.26105
1.25917
1.25621
1.25252
1.24935
1.24655
1.24472
1.24534
1.24633
1.24716
1.24844
1.24973
1.25065
1.25149
1.25252
1.25368
1.25447
1.25442
1.25304
1.24979
1.24544
1.2413
1.23788
1.23545
1.23437
1.23397
1.23435
1.23584
1.23754
1.23908
1.24031
1.2412
1.24125
1.23974
1.23685
1.23389
1.23206
0.887046
0.914891
0.934899
0.942486
0.945368
0.949523
0.957385
0.970499
0.99109
1.01912
1.04683
1.05647
1.06164
1.0673
1.074
1.08249
1.09944
1.12779
1.15156
1.1635
1.16934
1.17425
1.17771
1.17886
1.18125
1.18947
1.20959
1.22903
1.23684
1.24177
1.24632
1.25108
1.25711
1.26525
1.279
1.29641
1.30597
1.31005
1.31292
1.31402
1.31052
1.30828
1.31094
1.31625
1.32544
1.33433
1.33945
1.34217
1.34317
1.34413
1.34638
1.35059
1.35516
1.3589
1.36217
1.36558
1.36977
1.37527
1.3804
1.38278
1.38342
1.38333
1.38152
1.3781
1.37657
1.37638
1.37712
1.37943
1.38037
1.38001
1.37831
1.37622
1.37521
1.37551
1.3766
1.37844
1.38113
1.38439
1.38724
1.38883
1.38963
1.39003
1.38979
1.38812
1.38554
1.38319
1.38233
1.38224
1.38245
1.38286
1.38312
1.38323
1.38307
1.38275
1.38277
1.38336
1.38444
1.38513
1.38511
1.38455
1.3827
1.37916
1.37581
1.37384
1.3729
1.37266
1.37402
1.37818
1.38337
1.38674
1.38746
1.38651
1.3839
1.38095
1.37779
1.37335
1.37017
1.36869
1.36837
1.36894
1.36896
1.36751
1.36411
1.35954
1.35564
1.35261
1.35046
1.34919
1.34854
1.3491
1.34981
1.34947
1.3486
1.34713
1.34503
1.3432
1.34215
1.34119
1.34003
1.33851
1.33641
1.33377
1.33074
1.32739
1.32391
1.32078
1.31852
1.3172
1.31686
1.31732
1.31776
1.31748
1.31635
1.31456
1.31251
1.31095
1.31
1.30986
1.31064
1.31148
1.31166
1.31097
1.30907
1.30502
1.30071
1.29766
1.29579
1.29441
1.2935
1.29317
1.29341
1.29293
1.29194
1.29046
1.28943
1.28948
1.29058
1.29213
1.29292
1.2925
1.29109
1.28853
1.28592
1.28333
1.28162
1.28091
1.28063
1.28129
1.28316
1.28454
1.28468
1.28406
1.28212
1.27773
1.27245
1.2685
1.2665
1.26593
1.26587
1.26672
1.26899
1.27129
1.27226
1.27215
1.27153
1.27015
1.26789
1.26617
1.26555
1.26559
1.26631
1.26712
1.26732
1.26664
1.26518
1.26386
1.26264
1.26139
1.26019
1.25905
1.25802
1.2569
1.25528
1.25275
1.24957
1.24752
1.24695
1.24755
1.2489
1.25092
1.25335
1.25564
1.25713
1.25781
1.25807
1.25797
1.25726
1.25543
1.25252
1.24827
1.2434
1.23922
1.23626
1.23475
1.23429
1.23474
1.23705
1.24061
1.24377
1.24529
1.2453
1.24441
1.24249
1.23966
1.23585
1.23211
1.22955
1.2281
0.880318
0.896088
0.905383
0.912377
0.918351
0.926137
0.940008
0.961795
0.987546
1.0156
1.02894
1.03233
1.03335
1.03891
1.04772
1.06409
1.09181
1.1218
1.14176
1.14914
1.15506
1.15907
1.16176
1.1654
1.17289
1.18939
1.20974
1.22103
1.22608
1.23154
1.23708
1.24283
1.24976
1.26179
1.27911
1.29242
1.29836
1.30233
1.30576
1.30797
1.30928
1.3084
1.31009
1.31508
1.32227
1.32927
1.33393
1.33773
1.34382
1.35103
1.35556
1.35723
1.35762
1.35855
1.36057
1.36283
1.36663
1.3729
1.37807
1.37941
1.3796
1.37879
1.37561
1.37225
1.37102
1.3707
1.3708
1.37274
1.37445
1.3748
1.37488
1.37574
1.37768
1.37998
1.38233
1.3843
1.38581
1.38703
1.38755
1.38738
1.38698
1.38626
1.38498
1.38268
1.38051
1.38014
1.38015
1.38049
1.38057
1.38035
1.37971
1.37901
1.37902
1.38
1.38217
1.38543
1.38726
1.38717
1.3858
1.38246
1.37826
1.37483
1.37341
1.37319
1.37399
1.37754
1.38358
1.38748
1.38766
1.38642
1.38365
1.38029
1.3761
1.37115
1.36788
1.36657
1.36619
1.36729
1.36955
1.3702
1.36921
1.36584
1.3601
1.35503
1.35229
1.35096
1.35033
1.35131
1.35437
1.3573
1.35793
1.35722
1.35551
1.35176
1.34718
1.34375
1.34126
1.33894
1.33638
1.33365
1.33108
1.32872
1.32657
1.32486
1.32384
1.32357
1.32448
1.32524
1.32483
1.32295
1.31903
1.31484
1.31149
1.30936
1.30804
1.30731
1.30783
1.31012
1.31286
1.31376
1.3129
1.30969
1.3045
1.29886
1.29475
1.2931
1.29227
1.29178
1.29166
1.29296
1.29531
1.2966
1.29713
1.29743
1.29733
1.29648
1.29486
1.29267
1.29035
1.28826
1.286
1.28274
1.2798
1.27878
1.27836
1.27826
1.27911
1.28097
1.28239
1.28232
1.28146
1.27962
1.27658
1.27272
1.26949
1.26834
1.26832
1.26929
1.27133
1.27384
1.27594
1.27666
1.27631
1.27558
1.27465
1.27368
1.27307
1.27257
1.27167
1.27022
1.26837
1.26637
1.26445
1.26256
1.26009
1.25834
1.25756
1.25718
1.25706
1.25761
1.25821
1.25823
1.25775
1.25651
1.25453
1.2539
1.25422
1.25482
1.25541
1.256
1.25665
1.25686
1.25655
1.25594
1.25495
1.25341
1.25102
1.24758
1.24373
1.24051
1.23815
1.23712
1.23695
1.23799
1.24058
1.24385
1.24589
1.24573
1.24446
1.24224
1.24011
1.23786
1.23429
1.23085
1.22857
1.22739
1.22715
1.22734
0.871504
0.874143
0.878175
0.88487
0.89249
0.902955
0.921215
0.948874
0.977968
0.995861
1.0027
1.00774
1.01265
1.02193
1.03746
1.05993
1.0886
1.11205
1.11851
1.12191
1.12518
1.13058
1.13744
1.1505
1.17583
1.19916
1.20883
1.21242
1.21507
1.2182
1.22253
1.22845
1.2379
1.25416
1.27326
1.2819
1.2855
1.28868
1.29194
1.29639
1.30099
1.30713
1.3132
1.31817
1.32161
1.32455
1.32807
1.33314
1.34323
1.35509
1.35897
1.36037
1.36007
1.3578
1.35823
1.35991
1.36294
1.36877
1.37323
1.37391
1.37341
1.36977
1.36574
1.36495
1.36538
1.36623
1.36809
1.37133
1.3741
1.37578
1.37791
1.3807
1.38248
1.38319
1.38369
1.38408
1.38452
1.38495
1.38466
1.384
1.38327
1.38199
1.37965
1.37707
1.37633
1.37645
1.37656
1.37681
1.37693
1.37684
1.37698
1.37769
1.37941
1.38269
1.38646
1.38774
1.38735
1.38547
1.38231
1.37802
1.37414
1.37304
1.37324
1.37472
1.37886
1.38397
1.38527
1.38464
1.38354
1.38161
1.37777
1.3722
1.36793
1.36603
1.36518
1.36572
1.36872
1.37182
1.37225
1.37125
1.36855
1.36374
1.3587
1.35604
1.35518
1.35535
1.35744
1.36075
1.36216
1.36133
1.35961
1.35673
1.35261
1.34772
1.3433
1.34002
1.33722
1.33457
1.33217
1.33011
1.32856
1.32752
1.32692
1.32744
1.32924
1.33076
1.33087
1.32957
1.32592
1.3206
1.31526
1.31028
1.30774
1.30648
1.30567
1.30592
1.30874
1.31298
1.31454
1.31398
1.31151
1.30629
1.29916
1.2946
1.29298
1.29234
1.29198
1.29252
1.29513
1.29923
1.30237
1.30324
1.30302
1.30156
1.29829
1.29486
1.29211
1.2895
1.28665
1.28328
1.28012
1.27842
1.27777
1.27765
1.27831
1.27992
1.28192
1.28297
1.28268
1.28181
1.28016
1.27746
1.27447
1.27274
1.27255
1.27311
1.27419
1.27541
1.27621
1.27645
1.27645
1.27639
1.27627
1.27596
1.27554
1.275
1.27411
1.27252
1.27018
1.26769
1.26538
1.26303
1.26024
1.25767
1.25666
1.25632
1.25623
1.25704
1.25931
1.26205
1.26355
1.26372
1.2631
1.26082
1.25696
1.25422
1.25322
1.25283
1.25267
1.25264
1.25258
1.25208
1.25153
1.25092
1.24999
1.24831
1.24573
1.24274
1.24025
1.23931
1.23941
1.24104
1.24399
1.24666
1.24739
1.2466
1.24446
1.242
1.23969
1.23672
1.23314
1.23051
1.22902
1.2281
1.2279
1.22893
1.23129
1.23396
0.854217
0.858791
0.861081
0.867892
0.875349
0.884292
0.900198
0.926707
0.949851
0.959473
0.969208
0.980209
0.991787
1.00661
1.03105
1.05995
1.08512
1.09279
1.09519
1.09408
1.0959
1.10351
1.11708
1.14263
1.17383
1.19511
1.20246
1.20727
1.2086
1.20873
1.21065
1.21477
1.22645
1.24684
1.26109
1.26534
1.2686
1.27178
1.2763
1.28244
1.29284
1.30629
1.31506
1.31913
1.32132
1.32168
1.32339
1.32823
1.33927
1.35163
1.35593
1.35781
1.3585
1.3566
1.35507
1.35606
1.35775
1.36056
1.36487
1.36628
1.36658
1.36659
1.36507
1.36401
1.36427
1.36529
1.36733
1.37119
1.37627
1.38007
1.38191
1.38258
1.38264
1.38202
1.38156
1.38165
1.38186
1.38175
1.38094
1.3795
1.37781
1.37621
1.37412
1.37265
1.37275
1.37305
1.37324
1.37354
1.37416
1.37508
1.37696
1.38038
1.38486
1.38767
1.38792
1.38698
1.38483
1.38169
1.37729
1.37327
1.37226
1.37258
1.37439
1.37845
1.38218
1.38249
1.3818
1.38053
1.37796
1.37379
1.36965
1.36745
1.36623
1.36597
1.36768
1.37136
1.37437
1.37476
1.37356
1.37057
1.36649
1.36324
1.36194
1.36152
1.36181
1.36285
1.36347
1.36258
1.36097
1.35903
1.35663
1.35329
1.34855
1.34306
1.33847
1.33574
1.33382
1.33213
1.33076
1.32977
1.32934
1.33028
1.33235
1.33443
1.33511
1.33446
1.33225
1.3279
1.32227
1.316
1.31064
1.30823
1.30717
1.30646
1.30676
1.30965
1.31427
1.31632
1.31598
1.31355
1.30818
1.30099
1.29641
1.29505
1.29462
1.29469
1.29618
1.29954
1.30374
1.30606
1.30614
1.30541
1.30338
1.29997
1.29605
1.29225
1.28865
1.28509
1.28198
1.27996
1.27885
1.27846
1.2791
1.28073
1.28264
1.28428
1.28478
1.28411
1.28294
1.28141
1.27952
1.27739
1.27651
1.27666
1.27662
1.27607
1.2753
1.27493
1.27459
1.27443
1.2744
1.27441
1.27421
1.27404
1.27379
1.27322
1.27223
1.27058
1.26802
1.26478
1.2617
1.25932
1.25767
1.25684
1.25671
1.25755
1.25989
1.2634
1.2666
1.26757
1.26725
1.26608
1.26329
1.25911
1.25482
1.25212
1.25073
1.24966
1.2488
1.2485
1.24882
1.24983
1.24994
1.24971
1.24906
1.2474
1.24461
1.24294
1.24281
1.24358
1.24562
1.24778
1.24827
1.24757
1.24614
1.24404
1.24115
1.23738
1.23381
1.2316
1.23032
1.22952
1.22961
1.23147
1.23433
1.23708
1.23865
1.23866
0.822223
0.838523
0.847611
0.856953
0.86661
0.876097
0.885794
0.900777
0.912841
0.921817
0.932841
0.948146
0.967659
0.990515
1.02058
1.05069
1.0607
1.06555
1.07067
1.07456
1.07757
1.08793
1.11208
1.14224
1.16782
1.17696
1.18328
1.18882
1.19239
1.19615
1.20261
1.21439
1.23249
1.24619
1.2507
1.25408
1.25664
1.2601
1.2649
1.2713
1.28386
1.30139
1.31052
1.31426
1.3179
1.3217
1.32446
1.3277
1.33472
1.345
1.34981
1.35217
1.35357
1.35149
1.34735
1.34723
1.34836
1.35085
1.3575
1.36364
1.36578
1.36655
1.36709
1.36693
1.36604
1.36634
1.36794
1.37109
1.37603
1.37953
1.3805
1.38074
1.38058
1.3796
1.3782
1.37732
1.37683
1.37631
1.37587
1.37659
1.3768
1.37575
1.37322
1.3707
1.37007
1.37024
1.37054
1.37107
1.37243
1.37589
1.38156
1.38689
1.38875
1.38853
1.38687
1.38409
1.38035
1.37543
1.37146
1.37068
1.37102
1.37316
1.37748
1.38033
1.38023
1.37933
1.37738
1.37399
1.37026
1.36828
1.36759
1.36755
1.36947
1.37244
1.37467
1.3753
1.37457
1.37285
1.37036
1.36768
1.36617
1.36577
1.3662
1.36631
1.3656
1.36426
1.36211
1.36019
1.35841
1.35621
1.35314
1.34874
1.34324
1.33863
1.33591
1.33411
1.33283
1.3319
1.33164
1.33284
1.33529
1.338
1.33923
1.33872
1.33694
1.33359
1.32883
1.32252
1.31572
1.31114
1.30914
1.30829
1.30812
1.30967
1.31377
1.31868
1.32024
1.31928
1.31591
1.30985
1.30249
1.29826
1.2972
1.29721
1.29818
1.30096
1.3052
1.3082
1.30847
1.30761
1.30599
1.30339
1.29998
1.29571
1.29115
1.2871
1.28424
1.28236
1.28118
1.28055
1.28085
1.2826
1.28477
1.28607
1.2863
1.28546
1.28392
1.28274
1.28165
1.28052
1.27965
1.27945
1.27958
1.27943
1.2782
1.27526
1.27307
1.27226
1.27166
1.27135
1.2713
1.27147
1.27206
1.27245
1.27219
1.27139
1.27006
1.26768
1.26441
1.26157
1.25954
1.25832
1.25798
1.25851
1.26045
1.26355
1.26671
1.2683
1.26823
1.26761
1.26666
1.2649
1.26159
1.25646
1.25143
1.2489
1.24808
1.2477
1.24752
1.24753
1.24871
1.25084
1.25179
1.25188
1.25159
1.25018
1.24779
1.24714
1.24715
1.24748
1.24771
1.24723
1.24649
1.24547
1.24363
1.24028
1.23618
1.23335
1.23197
1.23126
1.23143
1.23343
1.23636
1.2387
1.23949
1.23915
1.23836
1.23723
0.758004
0.782128
0.802489
0.821069
0.841191
0.86032
0.88298
0.893629
0.895032
0.899477
0.906864
0.919336
0.940859
0.974621
1.00382
1.01153
1.01686
1.02488
1.03424
1.04627
1.06258
1.09019
1.12551
1.14763
1.15469
1.15635
1.15685
1.16166
1.16777
1.17504
1.1887
1.21493
1.23869
1.24786
1.25174
1.25301
1.25291
1.25374
1.25748
1.2651
1.27764
1.29202
1.29992
1.30542
1.3112
1.31705
1.32274
1.32771
1.33301
1.33834
1.34009
1.34129
1.34189
1.3397
1.33786
1.33892
1.34098
1.34555
1.35348
1.36083
1.36424
1.36621
1.368
1.36928
1.36919
1.36846
1.3689
1.37054
1.37362
1.37631
1.37705
1.37724
1.377
1.37549
1.37256
1.37065
1.37022
1.37059
1.3736
1.37694
1.3776
1.37732
1.37519
1.3711
1.36888
1.3688
1.36906
1.36978
1.37238
1.37846
1.38498
1.38725
1.38742
1.38665
1.3845
1.3799
1.3732
1.3689
1.36837
1.36878
1.37113
1.37591
1.37864
1.37851
1.37749
1.37524
1.37162
1.36877
1.36769
1.36753
1.36912
1.37334
1.37683
1.3771
1.37585
1.37364
1.37114
1.36837
1.36638
1.3657
1.36563
1.36655
1.36689
1.36603
1.36455
1.36231
1.3597
1.35706
1.3544
1.35147
1.34805
1.34441
1.34086
1.33783
1.33605
1.33503
1.33451
1.335
1.33701
1.33983
1.34144
1.34116
1.34014
1.33837
1.33548
1.33051
1.32319
1.31607
1.31194
1.31016
1.30958
1.31027
1.31357
1.31917
1.32364
1.32441
1.32321
1.31971
1.31312
1.30459
1.29978
1.29845
1.29858
1.30016
1.30414
1.30869
1.31009
1.30944
1.30841
1.30695
1.30448
1.30024
1.29452
1.28917
1.28586
1.28408
1.28287
1.28234
1.28268
1.28493
1.28817
1.28994
1.28986
1.28845
1.28577
1.2834
1.28155
1.28038
1.27986
1.27988
1.28027
1.28052
1.28046
1.27977
1.2774
1.27333
1.26996
1.26851
1.26787
1.26767
1.26827
1.26974
1.27142
1.272
1.27165
1.2706
1.26847
1.26526
1.26236
1.26048
1.2599
1.25999
1.26116
1.26354
1.26641
1.26808
1.26816
1.26782
1.26732
1.26664
1.26535
1.26266
1.25778
1.2522
1.24941
1.24849
1.24803
1.24791
1.2487
1.25073
1.25334
1.25502
1.2553
1.25512
1.25432
1.25192
1.24919
1.24787
1.24722
1.24667
1.24611
1.24533
1.24412
1.24225
1.2396
1.23665
1.23442
1.23348
1.23338
1.23473
1.23721
1.23909
1.23944
1.23902
1.23842
1.23765
1.23665
1.23503
0.638967
0.672529
0.707775
0.742013
0.778685
0.813042
0.846522
0.869898
0.879946
0.889752
0.902806
0.919722
0.941749
0.96492
0.973742
0.971488
0.972402
0.982095
0.995564
1.01502
1.04532
1.08307
1.11988
1.13422
1.13915
1.14024
1.13494
1.13785
1.14505
1.15387
1.17381
1.20817
1.23088
1.23672
1.24065
1.24274
1.24544
1.25041
1.25818
1.2697
1.28018
1.2853
1.28826
1.2914
1.29615
1.30414
1.3159
1.32735
1.33457
1.33642
1.33584
1.33365
1.3316
1.33092
1.33219
1.33429
1.33764
1.34331
1.35034
1.35591
1.36014
1.36356
1.366
1.36746
1.36893
1.36996
1.37095
1.37191
1.37191
1.37162
1.37112
1.37079
1.37003
1.36758
1.36512
1.36503
1.36628
1.36959
1.37548
1.37982
1.38049
1.38017
1.37798
1.37313
1.3694