/*--------------------------------*- C++ -*----------------------------------*\
  =========                 |
  \\      /  F ield         | OpenFOAM: The Open Source CFD Toolbox
   \\    /   O peration     | Website:  https://openfoam.org
    \\  /    A nd           | Version:  7
     \\/     M anipulation  |
\*---------------------------------------------------------------------------*/
FoamFile
{
    version     2.0;
    format      ascii;
    class       volScalarField;
    location    "1.7";
    object      p;
}
// * * * * * * * * * * * * * * * * * * * * * * * * * * * * * * * * * * * * * //

dimensions      [1 -1 -2 0 0 0 0];

internalField   nonuniform List<scalar> 
4040
(
1
1
1
1
1
1
1
1
1
1
1
1
1
1
4.05171
10.2459
10.7897
10.9912
11.2193
11.4162
11.5976
11.7481
11.8739
11.9776
1
1
1
1
1
1
1
1
1
1
1
1
1
1
3.89649
10.1236
10.7607
10.9633
11.1841
11.372
11.5448
11.6829
11.7793
11.8482
1
1
1
1
1
1
1
1
1
1
1
1
1
1
3.55205
9.94094
10.7075
10.9017
11.1067
11.2709
11.4102
11.5161
11.599
11.6964
1
1
1
1
1
1
1
1
1
1
1
1
1
1
3.05828
9.61141
10.6295
10.8094
11.0053
11.1641
11.2904
11.3999
11.4515
11.7384
1
1
1
1
1
1
1
1
1
1
1
1
1
1
2.46312
9.09774
10.5849
10.723
10.8954
11.0268
11.1003
11.1358
10.8993
10.6524
1
1
1
1
1
1
1
1
1
1
1
1
1
1
1.79038
8.33908
10.5074
10.5754
10.7427
10.8568
10.8916
10.8622
10.62
10.4953
1
1
1
1
1
1
1
1
1
1
1
1
1
1
1.16245
7.34729
10.5156
10.4724
10.5742
10.6283
10.6152
10.5501
10.3691
10.1772
1
1
1
1
1
1
1
1
1
1
1
1
1
1
1.00415
5.99843
10.007
10.1144
10.2384
10.3024
10.2828
10.2132
10.074
9.9537
1
1
1
1
1
1
1
1
1
1
1
1
1
1
0.999999
4.40981
9.53897
10.0007
10.0766
10.087
10.0345
9.93476
9.77321
9.52536
1
1
1
1
1
1
1
1
1
1
1
1
1
1
0.999999
2.75104
8.74093
9.85806
9.88914
9.87995
9.79761
9.63776
9.3771
8.92052
1
1
1
1
1
1
1
1
1
1
1
1
1
1
1
1.35087
7.57477
9.94648
9.74741
9.64825
9.52724
9.31879
8.99746
8.45506
1
1
1
1
1
1
1
1
1
1
1
1
1
1
1
1.01341
5.7705
9.29587
9.37472
9.33705
9.22705
9.00183
8.64702
8.1099
1
1
1
1
1
1
1
1
1
1
1
1
1
1
1
0.999926
3.28853
8.5677
9.25627
9.21199
9.06859
8.79826
8.39419
7.82912
1
1
1
1
1
1
1
1
1
1
1
1
1
1
1
0.999982
1.37024
7.33352
9.28466
9.08885
8.87402
8.56184
8.13902
7.57715
1
1
1
1
1
1
1
1
1
1
1
1
1
1
1
0.999997
1.01286
5.16198
8.79574
8.80494
8.61586
8.31549
7.91113
7.38698
1
1
1
1
1
1
1
1
1
1
1
1
1
1
1
1
0.999927
2.41031
8.00139
8.73877
8.48539
8.1703
7.77153
7.27155
1
1
1
1
1
1
1
1
1
1
1
1
1
1
1
1
0.999982
1.14449
6.0856
8.54915
8.25314
7.9879
7.62013
7.16245
1
1
1
1
1
1
1
1
1
1
1
1
1
1
1
1
0.999997
1.00149
3.09419
7.76092
8.15953
7.88931
7.5385
7.11025
1
1
1
1
1
1
1
1
1
1
1
1
1
1
1
1
1
0.999999
1.28621
6.05092
8.12393
7.80206
7.46516
7.05871
1
1
1
1
1
1
1
1
1
1
1
1
1
1
1
1
1
1
1.00636
3.0326
7.32188
7.69927
7.37442
7.00603
1
1
1
1
1
1
1
1
1
1
1
1
1
1
1
1
1
1
1.00001
1.27642
5.52639
7.70668
7.34271
6.98955
1
1
1
1
1
1
1
1
1
1
1
1
1
1
1
1
1
1
1
1.00619
2.48564
6.65584
7.28545
6.94841
1
1
1
1
1
1
1
1
1
1
1
1
1
1
1
1
1
1
1
1.00002
1.15373
4.43254
7.19089
6.96669
1
1
1
1
1
1
1
1
1
1
1
1
1
1
1
1
1
1
1
1
1.00243
1.82113
5.79623
6.98453
1
1
1
1
1
1
1
1
1
1
1
1
1
1
1
1
1
1
1
1
1.00001
1.05004
3.0258
6.27741
1
1
1
1
1
1
1
1
1
1
1
1
1
1
1
1
1
1
1
1
1
1.00056
1.28197
4.2863
1
1
1
1
1
1
1
1
1
1
1
1
1
1
1
1
1
1
1
1
1
1
1.00779
1.81415
1
1
1
1
1
1
1
1
1
1
1
1
1
1
1
1
1
1
1
1
1
1
1.00005
1.05122
1
1
1
1
1
1
1
1
1
1
1
1
1
1
1
1
1
1
1
1
1
1
1
1.00066
1
1
1
1
1
1
1
1
1
1
1
1
1
1
1
1
1
1
1
1
1
1
1
1
1
1
1
1
1
1
1
1
1
1
1
1
1
1
1
1
1
1
1
1
1
1
1
1
1
1
1
1
1
1
1
1
1
1
1
1
1
1
1
1
1
1
1
1
1
1
1
1
1
1
1
1
1
1
1
1
1
1
1
1
1
1
1
1
1
1
1
1
1
1
1
1
1
1
1
1
1
1
1
1
1
1
1
1
1
1
1
1
1
1
1
1
1
1
1
1
1
1
1
1
1
1
1
1
1
1
1
1
1
1
1
1
1
1
1
1
1
1
1
1
1
1
1
1
1
1
1
1
1
1
1
1
1
1
1
1
1
1
1
1
1
1
1
1
1
1
1
1
1
1
1
1
1
1
1
1
1
1
1
1
1
1
1
1
1
1
1
1
1
1
1
1
1
1
1
1
1
1
1
1
1
1
1
1
1
1
1
1
1
1
1
1
1
1
1
1
1
1
1
1
1
1
1
1
1
1
1
1
1
1
1
1
1
1
1
1
1
1
1
1
1
1
1
1
1
1
1
1
1
1
1
1
1
1
1
1
1
1
1
1
9.4216
9.96709
10.295
10.7151
10.0525
10.2477
9.92119
10.2919
8.83195
6.98413
8.07846
6.17874
7.57952
5.89832
7.18204
5.81952
6.94136
5.86975
6.80125
5.92495
6.72867
5.98176
6.67914
6.01845
6.63197
6.04601
6.62966
6.10121
6.61561
6.13669
6.60187
6.16711
6.59775
6.19337
6.59046
6.22371
6.635
6.28519
6.64072
6.30555
6.66412
6.34827
6.49925
6.41346
5.12933
6.37115
2.51814
5.55664
1.16782
3.25597
1.00381
1.37851
1.00002
1.01438
1
1.00012
1
1
1
1
1
1
1
1
1
1
1
1
1
1
1
1
1.75013
0.637305
0.29756
0.23533
0.264398
0.347374
0.466432
0.616662
0.792416
0.938402
1.04343
1.08787
1.13191
1.16171
1.19065
1.21721
1.2442
1.26509
1.27822
1.28859
1.29698
1.28913
1.273
1.25768
1.2535
1.2542
1.25941
1.26765
1.27628
1.2811
1.27768
1.26852
1.25111
1.23844
1.23421
1.23426
1.24217
1.26027
1.2713
1.26817
1.25915
1.24258
1.2189
1.20407
1.1998
1.22014
1.36565
1.8291
2.71006
3.75779
4.62516
5.4078
5.64229
5.55669
5.37482
5.1343
4.90095
4.76224
4.65606
4.55288
4.44773
4.32276
4.19599
4.11503
4.05838
4.00997
3.96735
3.90859
3.83508
3.74615
3.6476
3.55245
3.46108
3.37347
3.29885
3.24235
3.19888
3.15738
3.11379
3.06296
2.98756
2.87724
2.7718
2.70861
2.67175
2.64281
2.6239
2.61423
2.59213
2.55931
2.5083
2.40669
2.2851
2.20833
2.84846
1.59486
1.15218
0.829828
0.684002
0.661129
0.637079
0.617808
0.635586
0.683123
0.757481
0.849834
0.932033
1.0023
1.059
1.10571
1.15235
1.20226
1.2267
1.24468
1.26582
1.26495
1.2576
1.25097
1.25256
1.25613
1.26022
1.26762
1.27593
1.27827
1.27535
1.26736
1.25744
1.24899
1.23896
1.23449
1.23723
1.24518
1.25199
1.25448
1.25079
1.24099
1.22444
1.22449
1.26181
1.46892
1.90491
2.36713
2.65941
2.94621
3.44013
3.98898
4.3747
4.67567
4.86958
4.90468
4.85392
4.75358
4.68461
4.59173
4.47431
4.36191
4.24117
4.13805
4.05249
3.97133
3.90357
3.84428
3.78114
3.7124
3.64154
3.56884
3.49262
3.40914
3.31908
3.23759
3.18059
3.13836
3.09952
3.05387
2.9912
2.91274
2.82667
2.74278
2.68038
2.64361
2.61608
2.59051
2.56157
2.52751
2.48399
2.41921
2.3432
2.24466
3.75899
2.4672
1.78856
1.37964
1.10592
0.965468
0.852016
0.714003
0.678309
0.686559
0.711356
0.776392
0.848139
0.908715
0.96315
1.01703
1.07457
1.14249
1.18851
1.22497
1.26457
1.28596
1.28095
1.27548
1.28053
1.28323
1.2762
1.27132
1.26938
1.2639
1.25932
1.25342
1.2487
1.24814
1.2486
1.25109
1.25636
1.25802
1.25485
1.24973
1.23997
1.22867
1.24236
1.3254
1.6116
2.12879
2.50686
2.74919
2.74878
2.7069
2.70636
2.8839
3.30161
3.82512
4.31367
4.621
4.75215
4.74842
4.70824
4.62353
4.50614
4.38178
4.26407
4.15026
4.05586
3.95909
3.86182
3.77817
3.71526
3.66812
3.62123
3.57118
3.51955
3.46069
3.38491
3.28617
3.18334
3.0988
3.03227
2.97695
2.93428
2.89557
2.85693
2.81079
2.74662
2.67185
2.60954
2.56478
2.52392
2.47646
2.42343
2.38168
2.35318
2.29828
4.28221
3.22851
2.48225
1.93749
1.58287
1.35405
1.17696
1.01704
0.942588
0.881882
0.802631
0.783247
0.795412
0.813445
0.841521
0.890736
0.957573
1.02923
1.08705
1.12482
1.16582
1.2202
1.23817
1.25679
1.28569
1.29726
1.29454
1.29015
1.28218
1.26555
1.24988
1.24119
1.23823
1.23826
1.2401
1.24513
1.25202
1.25298
1.25043
1.24575
1.24022
1.25921
1.40242
1.78049
2.30265
2.74303
2.79508
2.76596
2.71505
2.66404
2.64075
2.6166
2.64888
2.82751
3.22751
3.75598
4.17453
4.37905
4.42042
4.45005
4.42641
4.41046
4.34849
4.26358
4.16349
4.03628
3.88884
3.73789
3.65369
3.60852
3.57254
3.53532
3.49097
3.44475
3.38937
3.31269
3.20347
3.08786
3.0073
2.95309
2.91012
2.87875
2.85217
2.82281
2.7836
2.71874
2.62594
2.54306
2.48248
2.43023
2.39194
2.36771
2.35009
2.31127
4.70037
3.77659
3.0694
2.46262
2.06926
1.78005
1.50904
1.29654
1.17619
1.07084
0.964259
0.885046
0.863589
0.833432
0.827192
0.840311
0.865589
0.903251
0.951058
1.00045
1.05302
1.1262
1.16445
1.19476
1.23776
1.26069
1.26426
1.27397
1.2812
1.27619
1.26326
1.25418
1.25003
1.24687
1.24263
1.24007
1.23943
1.23788
1.23268
1.2375
1.27606
1.48356
1.99791
2.53858
2.82189
2.85368
2.81471
2.77272
2.74847
2.70605
2.65407
2.59999
2.57054
2.53358
2.53906
2.69124
3.00799
3.4325
3.80227
4.09063
4.19552
4.22881
4.27535
4.29013
4.23828
4.12635
3.95915
3.75979
3.61402
3.55157
3.50829
3.48237
3.4495
3.41075
3.37087
3.31795
3.22311
3.0935
3.00038
2.94861
2.9093
2.87623
2.84556
2.81489
2.78224
2.73145
2.63286
2.51484
2.44364
2.40998
2.38859
2.37072
2.35988
2.32085
4.98896
4.18874
3.51013
2.93926
2.48929
2.14788
1.85815
1.62238
1.46529
1.31961
1.18294
1.08391
1.02792
0.971488
0.910736
0.898707
0.886704
0.859017
0.859097
0.873734
0.910664
0.96974
1.04855
1.10641
1.16919
1.21544
1.22568
1.23728
1.25373
1.25573
1.25079
1.25304
1.25969
1.26391
1.2602
1.24988
1.23735
1.22521
1.23282
1.29267
1.57102
2.2011
2.65413
2.87085
2.93544
2.92055
2.8687
2.79185
2.7071
2.65807
2.62298
2.59121
2.5532
2.50529
2.47943
2.42788
2.39245
2.4838
2.73504
3.14246
3.53385
3.79083
4.04003
4.12059
4.11997
4.08629
4.00073
3.86014
3.68056
3.57375
3.51853
3.47535
3.43157
3.3836
3.33839
3.28957
3.21436
3.11236
3.01493
2.94771
2.90551
2.87297
2.84402
2.81765
2.78536
2.72662
2.62787
2.52399
2.45269
2.40985
2.3826
2.36118
2.35221
2.31698
5.20711
4.52333
3.86671
3.30932
2.8845
2.5136
2.17574
1.92665
1.73575
1.56774
1.41821
1.31113
1.21594
1.11733
1.02515
0.968446
0.927288
0.880345
0.863712
0.872902
0.884295
0.897024
0.931012
0.976887
1.02929
1.0905
1.14236
1.17281
1.21033
1.2303
1.23176
1.24018
1.24973
1.2526
1.24923
1.24052
1.23046
1.23938
1.37438
1.75488
2.32552
2.84858
2.96757
2.9666
2.94757
2.89396
2.81679
2.74003
2.66576
2.61336
2.58532
2.5727
2.55479
2.51335
2.46674
2.41663
2.36647
2.27433
2.22627
2.2918
2.51668
2.86517
3.26647
3.5704
3.79537
3.90402
3.87948
3.84486
3.74082
3.63364
3.5603
3.49711
3.4358
3.37375
3.30671
3.2385
3.17594
3.10436
3.03469
2.97598
2.92559
2.87804
2.82938
2.77453
2.71494
2.65751
2.60017
2.55124
2.50871
2.45922
2.40396
2.36493
2.3497
2.31732
5.35399
4.73948
4.135
3.63168
3.21044
2.81942
2.45848
2.21967
2.00301
1.80512
1.62695
1.52167
1.40892
1.29978
1.20154
1.12781
1.06296
0.996695
0.94179
0.937367
0.924701
0.907872
0.900795
0.905739
0.915133
0.938613
0.985431
1.04517
1.10261
1.15684
1.19535
1.21698
1.23124
1.23657
1.2328
1.22455
1.2409
1.42397
2.01052
2.53745
2.90566
3.04665
3.02723
2.9463
2.8825
2.82926
2.77479
2.71821
2.6594
2.59985
2.54821
2.51836
2.49082
2.46937
2.43678
2.39645
2.35138
2.29451
2.21627
2.13773
2.11559
2.1616
2.31026
2.58814
2.91408
3.23583
3.47403
3.6474
3.63944
3.60411
3.54308
3.48467
3.44523
3.39266
3.31098
3.24247
3.17929
3.10989
3.0459
2.98919
2.937
2.88271
2.8214
2.75103
2.67449
2.61234
2.58177
2.5581
2.52965
2.49677
2.45452
2.39789
2.34446
2.27317
5.46231
4.90942
4.3673
3.89104
3.47623
3.08413
2.74809
2.48395
2.25018
2.02194
1.84764
1.72447
1.59739
1.46705
1.35982
1.28731
1.2099
1.13321
1.06089
1.02266
0.983053
0.942033
0.912492
0.908655
0.905348
0.903466
0.908296
0.931511
0.971708
1.02758
1.08803
1.14523
1.17767
1.20601
1.20724
1.24303
1.47478
2.14692
2.7251
2.94735
3.05815
3.03655
2.98648
2.90876
2.83166
2.79555
2.77126
2.73264
2.66665
2.58826
2.50607
2.45142
2.4231
2.39769
2.38487
2.36039
2.3286
2.29434
2.24334
2.15284
2.07356
2.0352
2.01103
2.02956
2.1053
2.29202
2.57956
2.93409
3.20752
3.38396
3.41547
3.37954
3.33327
3.28682
3.27381
3.25793
3.20257
3.14841
3.08698
3.01528
2.93412
2.86103
2.79792
2.73185
2.65465
2.59395
2.56359
2.53994
2.52141
2.49668
2.46475
2.42045
2.35741
2.25282
5.57038
5.05676
4.54964
4.11027
3.7113
3.3122
2.98806
2.72698
2.48502
2.2414
2.06037
1.91468
1.77328
1.64362
1.53195
1.4426
1.35278
1.26645
1.19602
1.14909
1.09544
1.04165
0.988219
0.967508
0.942687
0.915809
0.908594
0.909716
0.915993
0.928056
0.95701
1.00514
1.05617
1.11916
1.19607
1.53813
2.19199
2.84133
2.97911
3.07615
3.0731
3.003
2.9076
2.8595
2.81295
2.77989
2.76015
2.72315
2.65574
2.57359
2.47634
2.40239
2.36501
2.33897
2.32141
2.32252
2.30053
2.26872
2.23437
2.17662
2.07895
2.00252
1.95957
1.93926
1.92736
1.9287
1.97206
2.09696
2.32026
2.59069
2.82936
3.03904
3.1261
3.09963
3.10976
3.10215
3.12418
3.13792
3.10672
3.04992
2.96437
2.85594
2.7708
2.71258
2.65718
2.61185
2.56921
2.52093
2.47519
2.4449
2.42676
2.40468
2.36461
2.26723
5.65112
5.16883
4.70738
4.30144
3.90821
3.5191
3.22322
2.95931
2.6939
2.43694
2.27426
2.11298
1.9566
1.795
1.6956
1.59798
1.49827
1.40588
1.33093
1.27205
1.20319
1.13661
1.07865
1.04061
1.00024
0.957716
0.925217
0.919172
0.919244
0.917218
0.917673
0.923907
0.942589
1.01613
1.45746
2.12458
2.69987
2.91989
2.94002
2.97328
2.95634
2.86428
2.80574
2.78334
2.77308
2.75958
2.75109
2.71423
2.6498
2.56704
2.46625
2.37591
2.32559
2.29415
2.27118
2.26219
2.26101
2.23149
2.19849
2.15642
2.0923
2.00325
1.9374
1.90036
1.87679
1.86623
1.85805
1.84638
1.85701
1.90462
2.01325
2.1994
2.42318
2.63716
2.80896
2.86431
2.91523
2.95534
2.98841
2.97946
2.93863
2.86932
2.7916
2.73232
2.68224
2.63728
2.58577
2.52009
2.46004
2.41313
2.36776
2.33511
2.32188
2.26866
5.72483
5.27325
4.84542
4.46952
4.09027
3.71824
3.42567
3.1633
2.88842
2.64461
2.46754
2.29114
2.11755
1.95842
1.8568
1.74371
1.63545
1.52752
1.46218
1.39769
1.32628
1.25123
1.18477
1.1401
1.09226
1.04384
0.998579
0.985925
0.967582
0.939407
0.923626
0.930831
1.00717
1.41041
2.08252
2.46192
2.67351
2.72039
2.70846
2.6982
2.68559
2.67137
2.65724
2.65578
2.67486
2.70566
2.71024
2.67311
2.62128
2.55026
2.45811
2.37967
2.32068
2.26845
2.2305
2.20516
2.18441
2.16598
2.13591
2.10539
2.06938
2.0191
1.96131
1.89882
1.85361
1.83133
1.81272
1.79491
1.77665
1.75937
1.7533
1.75432
1.80455
1.92043
2.07386
2.28061
2.4771
2.60844
2.69693
2.78367
2.8073
2.78744
2.75642
2.72306
2.69112
2.65503
2.60224
2.53858
2.47888
2.41625
2.34996
2.29937
2.26976
2.22444
5.7831
5.36519
4.97085
4.61301
4.24627
3.89886
3.6191
3.35198
3.05941
2.83119
2.64952
2.47005
2.27458
2.11753
2.00513
1.88368
1.77197
1.66063
1.58991
1.51234
1.43563
1.35819
1.29907
1.24769
1.19294
1.1315
1.0799
1.05212
1.01262
0.976686
0.962112
1.04801
1.45921
2.18012
2.44399
2.54046
2.55286
2.50821
2.4683
2.43431
2.42507
2.41111
2.40457
2.43376
2.47884
2.52369
2.54384
2.5565
2.54532
2.50042
2.42502
2.36872
2.31626
2.26274
2.20883
2.16165
2.1235
2.09148
2.0622
2.04281
2.02701
2.00543
1.97371
1.91625
1.83526
1.78599
1.76676
1.75099
1.73657
1.71749
1.70382
1.68597
1.67245
1.65741
1.64164
1.6802
1.77194
1.92755
2.10795
2.29857
2.45364
2.57125
2.62805
2.60906
2.59405
2.57995
2.54431
2.51692
2.49125
2.44657
2.39128
2.31941
2.25743
2.20373
5.84897
5.4612
5.09107
4.74591
4.39283
4.06466
3.78452
3.51298
3.23056
3.01297
2.81716
2.62385
2.41648
2.2786
2.1572
2.03086
1.89517
1.78501
1.71563
1.63166
1.55151
1.46241
1.40608
1.34819
1.28894
1.23071
1.18038
1.13533
1.087
1.08667
1.20635
1.70951
2.40157
2.60721
2.62289
2.57942
2.48766
2.43662
2.39823
2.36918
2.33161
2.27518
2.21234
2.17328
2.17766
2.21035
2.25975
2.30421
2.34457
2.36483
2.33452
2.30733
2.27905
2.23089
2.17796
2.1303
2.08229
2.03829
2.01142
1.9955
2.00183
1.98899
1.95423
1.90756
1.83268
1.75495
1.71935
1.70492
1.69317
1.6923
1.67827
1.65524
1.62921
1.59911
1.57875
1.54991
1.51327
1.50933
1.5507
1.64129
1.80797
2.00189
2.18656
2.30574
2.40127
2.42457
2.40058
2.39503
2.38732
2.38557
2.37203
2.34408
2.29411
2.21564
5.92345
5.55668
5.20121
4.85913
4.51577
4.20819
3.93713
3.65793
3.38154
3.17191
2.97595
2.77491
2.56593
2.42974
2.2949
2.16515
2.02402
1.92333
1.83896
1.74645
1.65328
1.56676
1.51358
1.45047
1.38676
1.31999
1.2634
1.21502
1.21425
1.3844
1.97619
2.76324
2.93142
2.80446
2.70018
2.58834
2.49851
2.44481
2.40596
2.3651
2.32063
2.26481
2.20401
2.14336
2.06818
2.03013
2.02339
2.02942
2.04576
2.09101
2.1389
2.16303
2.16973
2.14511
2.10084
2.05785
2.01854
1.99053
1.97149
1.95704
1.96474
1.95468
1.92348
1.88133
1.82543
1.74368
1.681
1.6627
1.6526
1.64514
1.63924
1.6209
1.59652
1.56434
1.52589
1.49774
1.48417
1.47024
1.43828
1.40572
1.41396
1.4571
1.55239
1.68448
1.82992
1.9624
2.0913
2.1648
2.19262
2.22968
2.25851
2.25712
2.24309
2.20335
5.96099
5.61564
5.2771
4.94967
4.63446
4.34037
4.06459
3.78981
3.53652
3.32927
3.13419
2.91422
2.71483
2.57958
2.44386
2.3028
2.149
2.05845
1.96095
1.86332
1.75754
1.67471
1.61693
1.5444
1.48033
1.41259
1.34452
1.3654
1.62595
2.31539
3.07007
3.25288
3.15273
2.96241
2.78518
2.65744
2.59478
2.53476
2.47265
2.40996
2.34564
2.27794
2.21126
2.13874
2.0512
1.98795
1.95374
1.92885
1.9122
1.90776
1.91532
1.91588
1.92864
1.9211
1.88872
1.88458
1.90735
1.90853
1.88781
1.87931
1.87278
1.87132
1.85821
1.83972
1.80446
1.73735
1.66657
1.63299
1.62028
1.61114
1.60511
1.58373
1.56244
1.5377
1.50056
1.46559
1.44842
1.43962
1.4224
1.39339
1.35486
1.32192
1.31343
1.32202
1.35492
1.41747
1.51464
1.64063
1.77044
1.87037
1.964
2.02534
2.08677
2.10972
6.00249
5.6815
5.36612
5.04374
4.74254
4.47249
4.20116
3.92468
3.6813
3.47404
3.2721
3.05947
2.87201
2.72198
2.57692
2.41911
2.27768
2.18472
2.08201
1.9756
1.8507
1.78324
1.7146
1.64232
1.57106
1.49001
1.52559
1.88218
2.69663
3.41872
3.55936
3.45663
3.26455
3.07711
2.91247
2.79284
2.70803
2.63027
2.55469
2.48266
2.41194
2.34101
2.27193
2.19215
2.09788
1.99996
1.93141
1.89213
1.86819
1.84839
1.8261
1.80531
1.78438
1.7528
1.71375
1.69148
1.69693
1.72094
1.75049
1.7757
1.76869
1.76029
1.75921
1.7474
1.72833
1.70159
1.66831
1.63044
1.60344
1.59123
1.57
1.54506
1.52962
1.51558
1.48937
1.4535
1.41924
1.39187
1.3777
1.36742
1.34369
1.30542
1.27506
1.25797
1.24892
1.24552
1.25123
1.26847
1.30974
1.37702
1.45919
1.56354
1.65884
1.80319
6.09154
5.77249
5.46717
5.1545
4.8655
4.5966
4.32842
4.05352
3.82866
3.61596
3.40529
3.189
3.02045
2.8642
2.70509
2.53758
2.40221
2.30436
2.19441
2.08178
1.9632
1.88912
1.80728
1.73549
1.66682
1.73592
2.25508
3.11107
3.7903
3.83949
3.70396
3.5074
3.3295
3.20435
3.09086
2.96135
2.82925
2.72172
2.63472
2.55673
2.48682
2.42314
2.36065
2.28566
2.18834
2.07415
1.97832
1.91722
1.8738
1.83263
1.79492
1.76153
1.72998
1.70124
1.66021
1.61912
1.58569
1.56486
1.56074
1.57324
1.58589
1.58953
1.61196
1.61277
1.60356
1.61408
1.61361
1.58183
1.53866
1.51923
1.51001
1.50648
1.50694
1.49402
1.47098
1.4456
1.40907
1.36923
1.33533
1.31727
1.30828
1.28986
1.25796
1.23262
1.21882
1.20974
1.19925
1.19224
1.1876
1.17739
1.16233
1.17319
1.2015
1.31762
6.17687
5.85377
5.54724
5.25123
4.96898
4.7025
4.43039
4.17177
3.95487
3.74382
3.51736
3.30194
3.14997
2.99082
2.82831
2.64474
2.52813
2.42251
2.30473
2.17683
2.07031
1.98278
1.90864
1.84766
1.9823
2.70589
3.80072
4.10848
4.07508
3.91769
3.74252
3.59379
3.48468
3.38868
3.2711
3.12088
2.95442
2.81881
2.71577
2.62555
2.54666
2.4803
2.41882
2.3526
2.26998
2.16388
2.05815
1.98157
1.92408
1.8721
1.8197
1.76848
1.72203
1.67954
1.64142
1.60023
1.55448
1.51026
1.48185
1.46769
1.46079
1.45305
1.45752
1.46207
1.45177
1.45565
1.46849
1.46746
1.45658
1.44056
1.42992
1.42402
1.41985
1.42399
1.43629
1.42772
1.40261
1.36167
1.31578
1.28391
1.26816
1.257
1.24115
1.21773
1.19856
1.18558
1.1717
1.15794
1.14918
1.13973
1.12441
1.09572
1.0655
1.05945
6.19221
5.95397
5.63054
5.33778
5.05865
4.79828
4.54155
4.29208
4.06491
3.85514
3.63388
3.43323
3.27199
3.11017
2.93814
2.76166
2.65033
2.53684
2.41622
2.27987
2.16653
2.08243
2.04776
2.292
3.25239
4.36829
4.64072
4.48911
4.22679
4.00821
3.866
3.76104
3.65837
3.53921
3.3893
3.21838
3.05859
2.92987
2.81992
2.71771
2.62377
2.54221
2.47317
2.40679
2.33089
2.23957
2.14092
2.05294
1.98351
1.92405
1.86456
1.80461
1.74554
1.69158
1.65296
1.61264
1.55663
1.49685
1.45348
1.41883
1.39947
1.39235
1.39054
1.3818
1.35938
1.33201
1.30642
1.29643
1.30831
1.31456
1.3115
1.3131
1.31833
1.32597
1.3364
1.34958
1.35211
1.33498
1.30186
1.26419
1.23957
1.23365
1.22831
1.21295
1.18771
1.1656
1.14703
1.12675
1.11114
1.10024
1.08988
1.07448
1.05144
1.01572
5.69653
6.01987
5.7495
5.43387
5.1634
4.90339
4.64214
4.40429
4.19344
3.98391
3.74112
3.54752
3.39487
3.23277
3.05396
2.88297
2.77088
2.64169
2.52091
2.37977
2.25897
2.27606
2.67804
3.80538
4.9757
5.08568
4.90608
4.62184
4.36845
4.13644
3.97639
3.8526
3.72566
3.59197
3.44854
3.30152
3.16498
3.04088
2.92654
2.81998
2.71793
2.61546
2.51729
2.43343
2.35926
2.28824
2.2129
2.12639
2.04019
1.97174
1.91556
1.85907
1.79419
1.72783
1.67853
1.63939
1.59627
1.5428
1.47632
1.41751
1.38469
1.36594
1.347
1.33033
1.3162
1.29825
1.25664
1.21638
1.19916
1.19493
1.19439
1.19904
1.20553
1.20789
1.21485
1.22589
1.24168
1.2561
1.25191
1.23111
1.20277
1.18784
1.18283
1.17728
1.16827
1.15156
1.12926
1.10746
1.09164
1.0763
1.05904
1.0424
1.02773
0.996614
3.8879
5.68475
5.82501
5.57347
5.2624
4.997
4.76302
4.52274
4.29046
4.0867
3.86625
3.6741
3.50976
3.34475
3.14413
3.00617
2.88421
2.7559
2.62166
2.47051
2.54806
3.2239
4.49175
5.47946
5.57783
5.35506
5.02864
4.73808
4.50488
4.29045
4.10249
3.93381
3.77737
3.64217
3.52016
3.40427
3.28653
3.15869
3.02353
2.89344
2.77914
2.67579
2.5749
2.48204
2.40226
2.33273
2.26795
2.19543
2.10855
2.02277
1.95499
1.89978
1.84597
1.78999
1.73161
1.67351
1.62112
1.57334
1.52188
1.46819
1.41896
1.37632
1.34013
1.31359
1.29093
1.26706
1.2422
1.20561
1.16032
1.13682
1.13199
1.12858
1.12142
1.11251
1.11138
1.10915
1.10649
1.11701
1.12996
1.14179
1.14594
1.13342
1.12469
1.12645
1.11915
1.10421
1.09934
1.09393
1.08057
1.06108
1.04405
1.02934
1.01338
0.977852
1.67482
4.27776
5.63317
5.67858
5.41069
5.10798
4.86018
4.62497
4.40822
4.20607
3.98822
3.78233
3.62152
3.46015
3.26837
3.12842
2.98026
2.85891
2.72815
2.86867
3.9091
5.36862
6.00984
5.93198
5.66435
5.36787
5.08011
4.84889
4.6451
4.43918
4.2392
4.05129
3.88093
3.73168
3.60102
3.48277
3.3668
3.24382
3.10815
2.95993
2.81738
2.70438
2.61562
2.53633
2.45902
2.3812
2.30401
2.22644
2.14476
2.05878
1.97963
1.91786
1.87131
1.83052
1.78535
1.72749
1.65551
1.58414
1.53031
1.48679
1.44572
1.40465
1.36299
1.32566
1.29703
1.27614
1.25548
1.21913
1.16323
1.11783
1.09431
1.08405
1.07705
1.07308
1.0677
1.05243
1.03127
1.02235
1.01677
1.01995
1.03479
1.04191
1.03644
1.04372
1.04661
1.04478
1.0467
1.04547
1.04291
1.04287
1.03729
1.02588
1.01032
0.970161
1.03918
1.9782
4.54036
5.53916
5.51836
5.24905
4.97942
4.73984
4.50904
4.3067
4.10674
3.91233
3.74874
3.56331
3.38177
3.22349
3.10544
3.00639
3.30812
4.61692
6.28773
6.70193
6.47221
6.09397
5.72574
5.42255
5.18708
4.98233
4.78194
4.58106
4.3853
4.19765
4.01395
3.83697
3.67277
3.52817
3.40168
3.28228
3.15984
3.02887
2.89344
2.76852
2.66598
2.58337
2.50939
2.43363
2.35027
2.25707
2.1619
2.07871
2.01363
1.96101
1.91224
1.86272
1.81184
1.75914
1.70164
1.63762
1.57464
1.51459
1.46013
1.41842
1.37921
1.34227
1.32329
1.30843
1.28487
1.24625
1.19103
1.12869
1.08887
1.06795
1.0551
1.04625
1.03757
1.02666
1.01395
0.996522
0.972139
0.954554
0.9447
0.937271
0.934418
0.938997
0.952542
0.955003
0.955851
0.965871
0.985843
0.99779
0.999051
0.993407
0.982453
0.948686
1.0005
1.07896
2.27036
4.65992
5.42915
5.38413
5.12953
4.84481
4.62324
4.42688
4.21196
4.01504
3.84681
3.69041
3.49454
3.31389
3.3013
3.85952
5.59644
7.10462
7.18612
6.91445
6.51845
6.16389
5.84963
5.58073
5.35161
5.12834
4.9087
4.70031
4.49792
4.2923
4.0898
3.901
3.73161
3.58122
3.44541
3.31795
3.19512
3.07796
2.96342
2.84641
2.73065
2.62567
2.53731
2.46166
2.38716
2.29953
2.19625
2.0982
2.03158
1.9885
1.94969
1.90354
1.8442
1.77109
1.6994
1.64839
1.60365
1.54736
1.49226
1.45561
1.42449
1.38825
1.34558
1.30988
1.28259
1.25497
1.21786
1.16158
1.10689
1.07416
1.056
1.04311
1.03269
1.02275
1.01129
0.990315
0.960911
0.930022
0.905517
0.891384
0.881801
0.870149
0.86501
0.867605
0.868334
0.87333
0.889261
0.913001
0.932732
0.936275
0.932896
0.907266
1
1.00138
1.13191
2.5003
4.70518
5.33497
5.27372
4.99947
4.73343
4.52336
4.32672
4.13658
3.96658
3.78939
3.57561
3.65688
4.61939
6.61906
7.97598
8.07793
7.63651
7.07753
6.60775
6.26174
5.97923
5.72724
5.48251
5.24049
5.00969
4.79619
4.58909
4.37396
4.15453
3.9521
3.78228
3.63734
3.50374
3.37423
3.24702
3.12558
3.01153
2.90118
2.79216
2.68447
2.5794
2.4818
2.39522
2.3151
2.23013
2.14215
2.06587
2.00521
1.96028
1.92134
1.87568
1.81785
1.74816
1.67019
1.59755
1.55034
1.51924
1.48408
1.44651
1.41174
1.37771
1.34303
1.30636
1.26161
1.20728
1.1623
1.13118
1.10104
1.07645
1.0585
1.04163
1.02007
0.993367
0.965842
0.939297
0.915384
0.89593
0.881268
0.86583
0.847379
0.83331
0.823955
0.814891
0.810623
0.812881
0.820328
0.836008
0.852618
0.853335
0.837406
1
1.00001
1.00296
1.18884
2.65445
4.74513
5.20994
5.12294
4.88835
4.64229
4.42655
4.2381
4.08559
3.8888
4.07203
5.58495
7.95841
8.64861
8.42286
8.08507
7.66813
7.21807
6.78609
6.41674
6.09978
5.8248
5.57033
5.32566
5.09255
4.87118
4.65363
4.43416
4.21794
4.01995
3.84893
3.69823
3.55776
3.42239
3.28998
3.15917
3.03337
2.91774
2.81295
2.71659
2.62311
2.52874
2.43072
2.33204
2.24197
2.16334
2.09629
2.03563
1.97542
1.9178
1.87206
1.83213
1.77926
1.70598
1.63381
1.57513
1.52018
1.47745
1.4414
1.40691
1.37666
1.34884
1.31766
1.27925
1.22894
1.16277
1.12466
1.11767
1.10952
1.09152
1.06341
1.03093
0.99745
0.965496
0.935782
0.911399
0.892965
0.878478
0.864025
0.844474
0.820308
0.80812
0.801076
0.794894
0.788021
0.77921
0.77365
0.772692
0.768039
0.755089
1
1
1.00002
1.00523
1.23755
2.79992
4.69326
5.06749
5.01109
4.80288
4.53924
4.3437
4.18795
4.60651
6.76441
9.13622
9.8119
9.43054
8.6805
8.0617
7.64931
7.3079
6.94623
6.56966
6.22103
5.91682
5.6455
5.39618
5.16294
4.93771
4.71363
4.49208
4.28361
4.09519
3.92276
3.7587
3.60019
3.45
3.31206
3.18518
3.06377
2.94603
2.83349
2.73127
2.64207
2.56068
2.477
2.38174
2.27556
2.17745
2.11135
2.06159
2.00737
1.94623
1.88711
1.83766
1.80249
1.76323
1.68769
1.58134
1.52474
1.50037
1.47642
1.45212
1.42674
1.40029
1.36865
1.32262
1.25528
1.18521
1.14639
1.12683
1.10821
1.08625
1.06082
1.04066
1.02035
0.993424
0.966782
0.943999
0.923517
0.903826
0.881538
0.847892
0.812831
0.800639
0.796382
0.788971
0.775662
0.762841
0.753714
0.744079
0.729301
0.705823
1
1
1
1.00003
1.00781
1.2828
2.88775
4.55392
4.98772
4.92812
4.69426
4.50312
5.1764
8.24815
10.3969
10.2553
9.88288
9.41675
8.85342
8.24514
7.76869
7.39717
7.04264
6.68721
6.34144
6.01789
5.72358
5.45816
5.21426
4.98282
4.75875
4.54355
4.34314
4.15813
3.98257
3.80929
3.63645
3.46977
3.31586
3.18507
3.07603
2.97549
2.86978
2.76213
2.66783
2.58451
2.50582
2.4257
2.33475
2.22545
2.11968
2.04729
1.99965
1.96286
1.92585
1.88153
1.82518
1.74903
1.65868
1.57478
1.51906
1.48041
1.45607
1.43364
1.40777
1.3785
1.34185
1.29083
1.22746
1.18237
1.15686
1.13324
1.11098
1.09178
1.0726
1.04476
1.01158
0.982773
0.957343
0.933293
0.909057
0.883458
0.855777
0.828551
0.810759
0.801068
0.790982
0.777045
0.761617
0.747533
0.735985
0.723893
0.710092
0.685878
1
1
1
1
1.00006
1.01027
1.32175
2.81663
4.53208
4.84862
4.81544
5.80276
9.4398
11.8828
11.7795
10.8278
9.95547
9.38856
8.91434
8.41039
7.91376
7.47151
7.0844
6.73349
6.40238
6.08597
5.7882
5.5123
5.25382
5.00799
4.77562
4.56061
4.36356
4.17968
4.0054
3.83582
3.66854
3.50805
3.35366
3.20631
3.0788
2.96757
2.87161
2.7825
2.69637
2.60632
2.51231
2.41654
2.31792
2.21827
2.13735
2.0807
2.02997
1.97759
1.92625
1.87598
1.81863
1.74703
1.66545
1.58835
1.52642
1.48902
1.46538
1.44136
1.4139
1.38201
1.3419
1.29023
1.23774
1.19902
1.16718
1.14071
1.11885
1.09871
1.0753
1.04609
1.01664
0.990142
0.964984
0.939579
0.913128
0.885181
0.856503
0.832527
0.816996
0.804818
0.79178
0.776859
0.760829
0.744781
0.730493
0.716741
0.704447
0.68017
1
1
1
1
1
1.00009
1.01201
1.32131
2.84327
4.04348
5.7775
10.7795
12.8526
12.04
11.4336
10.8214
10.103
9.46436
8.95743
8.49555
8.04057
7.58818
7.16399
6.78218
6.43797
6.12245
5.83003
5.55517
5.29213
5.04032
4.80441
4.59007
4.39704
4.21749
4.04383
3.87345
3.70446
3.53705
3.39918
3.28412
3.15841
3.03808
2.92857
2.84323
2.75774
2.66356
2.56586
2.46983
2.37761
2.29586
2.22736
2.16201
2.09391
2.02768
1.96822
1.91319
1.85681
1.79402
1.72139
1.6436
1.58152
1.54386
1.51536
1.48575
1.45199
1.41399
1.37143
1.325
1.27858
1.23493
1.19862
1.17076
1.14747
1.12465
1.10043
1.07599
1.0516
1.02576
0.997825
0.96799
0.93628
0.904755
0.878844
0.859763
0.843779
0.829647
0.815271
0.798475
0.778598
0.757862
0.739237
0.723529
0.711885
0.686918
1
1
1
1
1
1
1.0001
1.01457
1.34481
3.09202
10.2374
17.4649
15.8268
12.9706
11.5593
10.8434
10.1662
9.50392
8.94041
8.47527
8.05507
7.63639
7.21244
6.80775
6.44496
6.12681
5.8411
5.57205
5.31133
5.06057
4.82441
4.6034
4.39501
4.19778
4.01371
3.84736
3.69771
3.55599
3.40378
3.23878
3.09243
2.97109
2.87172
2.77926
2.68924
2.5964
2.49862
2.40118
2.31256
2.23806
2.17244
2.10601
2.0369
1.97057
1.91165
1.85902
1.80629
1.74561
1.67087
1.5916
1.53317
1.49856
1.47292
1.4458
1.41225
1.37298
1.33022
1.28434
1.23899
1.19958
1.16646
1.13799
1.11294
1.08946
1.0667
1.0458
1.02513
1.00114
0.971896
0.938935
0.904322
0.874942
0.854699
0.83819
0.822805
0.809316
0.795217
0.777695
0.755512
0.733008
0.713466
0.699761
0.691184
0.667528
)
;

boundaryField
{
    inlet
    {
        type            fixedValue;
        value           uniform 1;
    }
    outlet
    {
        type            zeroGradient;
    }
    bottom
    {
        type            zeroGradient;
    }
    top
    {
        type            zeroGradient;
    }
    obstacle
    {
        type            zeroGradient;
    }
    defaultFaces
    {
        type            empty;
    }
}


// ************************************************************************* //
