/*--------------------------------*- C++ -*----------------------------------*\
  =========                 |
  \\      /  F ield         | OpenFOAM: The Open Source CFD Toolbox
   \\    /   O peration     | Website:  https://openfoam.org
    \\  /    A nd           | Version:  7
     \\/     M anipulation  |
\*---------------------------------------------------------------------------*/
FoamFile
{
    version     2.0;
    format      ascii;
    class       volVectorField;
    location    "1.7";
    object      U;
}
// * * * * * * * * * * * * * * * * * * * * * * * * * * * * * * * * * * * * * //

dimensions      [0 1 -1 0 0 0 0];

internalField   nonuniform List<vector> 
4040
(
(3 1.04292e-17 0)
(3 1.10937e-16 0)
(3 1.76021e-16 0)
(3 1.48258e-16 0)
(3 2.29906e-17 0)
(3 1.74e-16 0)
(3 3.10414e-16 0)
(3 -8.72828e-17 0)
(3 -3.10921e-16 0)
(3 -2.13473e-16 0)
(3 -3.27837e-16 0)
(3 3.50307e-16 0)
(3 2.33257e-16 0)
(3 5.58623e-16 0)
(1.69639 0.0158837 0)
(0.752458 0.0172748 0)
(0.655513 0.0277772 0)
(0.58958 0.0309106 0)
(0.51747 0.0327268 0)
(0.443895 0.0345969 0)
(0.365471 0.0375543 0)
(0.278471 0.0433594 0)
(0.178516 0.0485342 0)
(0.0704448 0.0597437 0)
(3 -8.8813e-17 0)
(3 -2.2518e-16 0)
(3 -2.44715e-16 0)
(3 -2.73799e-16 0)
(3 -2.96087e-16 0)
(3 -9.86991e-17 0)
(3 3.46024e-16 0)
(3 6.43784e-16 0)
(3 6.15504e-16 0)
(3 3.85246e-16 0)
(3 -5.36765e-17 0)
(3 1.74118e-17 0)
(3 8.23494e-17 0)
(3 4.71135e-16 0)
(1.73486 0.077842 0)
(0.743325 0.0766568 0)
(0.634561 0.0846505 0)
(0.567149 0.0895775 0)
(0.496024 0.0950324 0)
(0.424171 0.102941 0)
(0.34799 0.112969 0)
(0.266542 0.13284 0)
(0.171234 0.154306 0)
(0.0663852 0.186466 0)
(3 -3.76598e-18 0)
(3 -4.07847e-16 0)
(3 -1.02511e-15 0)
(3 -1.1389e-15 0)
(3 -7.68542e-16 0)
(3 -2.96163e-16 0)
(3 -4.09058e-16 0)
(3 -2.97666e-16 0)
(3 -1.01534e-16 0)
(3 -7.8546e-16 0)
(3 -1.36551e-15 0)
(3 -1.87927e-15 0)
(3 -1.23472e-15 0)
(3 -8.37788e-16 0)
(1.86374 0.141415 0)
(0.762839 0.141666 0)
(0.638079 0.148109 0)
(0.567447 0.154116 0)
(0.49588 0.160763 0)
(0.427149 0.171964 0)
(0.357245 0.184775 0)
(0.285808 0.214221 0)
(0.194737 0.252257 0)
(0.089456 0.308041 0)
(3 1.41985e-16 0)
(3 3.35125e-16 0)
(3 3.20572e-16 0)
(3 -6.69769e-17 0)
(3 -3.7948e-16 0)
(3 -7.31235e-17 0)
(3 -2.90758e-16 0)
(3 -7.29522e-16 0)
(3 -7.07721e-16 0)
(3 -9.32029e-16 0)
(3 -1.05257e-15 0)
(3 -1.2265e-15 0)
(3 -7.90422e-16 0)
(3 -5.412e-16 0)
(2.07219 0.188171 0)
(0.802249 0.209111 0)
(0.655688 0.213048 0)
(0.584525 0.219151 0)
(0.512175 0.225987 0)
(0.443788 0.239379 0)
(0.369808 0.254229 0)
(0.293727 0.3022 0)
(0.178735 0.365767 0)
(0.100893 0.463177 0)
(3 -1.45248e-16 0)
(3 3.40682e-16 0)
(3 7.47653e-16 0)
(3 1.00211e-15 0)
(3 6.18852e-16 0)
(3 5.15735e-16 0)
(3 3.95907e-16 0)
(3 5.33442e-16 0)
(3 -4.2054e-16 0)
(3 -8.35606e-16 0)
(3 -1.4143e-15 0)
(3 -1.26487e-15 0)
(3 -6.11034e-16 0)
(3 -4.4226e-16 0)
(2.34155 0.226045 0)
(0.847118 0.287565 0)
(0.677033 0.279705 0)
(0.61699 0.289078 0)
(0.549218 0.295242 0)
(0.484168 0.310912 0)
(0.409851 0.332437 0)
(0.341296 0.400754 0)
(0.272669 0.480954 0)
(0.258426 0.530965 0)
(3 -2.67171e-17 0)
(3 -8.20274e-17 0)
(3 -3.69438e-17 0)
(3 6.91032e-16 0)
(3 1.6714e-15 0)
(3 1.13885e-15 0)
(3 4.02144e-16 0)
(3 2.09801e-16 0)
(3 -1.387e-15 0)
(3 -2.01779e-15 0)
(3 -2.81151e-15 0)
(3 -3.11237e-15 0)
(3 -3.01016e-15 0)
(3 -2.26293e-15 0)
(2.73126 0.214117 0)
(0.964376 0.36199 0)
(0.746167 0.314262 0)
(0.697456 0.337456 0)
(0.629043 0.351728 0)
(0.564117 0.376591 0)
(0.491267 0.404047 0)
(0.434557 0.468973 0)
(0.395985 0.524041 0)
(0.360806 0.518264 0)
(3 -9.47499e-17 0)
(3 -6.01102e-16 0)
(3 -4.24432e-16 0)
(3 -3.54319e-16 0)
(3 -1.71184e-16 0)
(3 -1.06924e-16 0)
(3 -2.96306e-16 0)
(3 -8.455e-16 0)
(3 -4.53552e-16 0)
(3 -1.37787e-15 0)
(3 -2.65516e-15 0)
(3 -2.38299e-15 0)
(3 -1.9993e-15 0)
(3 -1.97171e-15 0)
(3.0284 0.0434981 0)
(1.12843 0.385046 0)
(0.803875 0.34805 0)
(0.770012 0.392711 0)
(0.710566 0.410738 0)
(0.654692 0.438553 0)
(0.592493 0.466542 0)
(0.539429 0.518069 0)
(0.506544 0.571406 0)
(0.449738 0.588421 0)
(3 -1.53902e-16 0)
(3 -1.88274e-16 0)
(3 -3.12654e-16 0)
(3 -6.62883e-16 0)
(3 -1.66296e-15 0)
(3 -1.46911e-15 0)
(3 -9.46967e-16 0)
(3 -7.79181e-16 0)
(3 2.27241e-16 0)
(3 -3.44208e-16 0)
(3 -8.38777e-16 0)
(3 -1.78571e-17 0)
(3 4.56059e-16 0)
(3 1.09268e-16 0)
(3.00767 0.00123532 0)
(1.30677 0.390688 0)
(0.810067 0.401032 0)
(0.766969 0.445981 0)
(0.718587 0.469656 0)
(0.680003 0.502603 0)
(0.64434 0.537228 0)
(0.608129 0.580857 0)
(0.585221 0.633263 0)
(0.534655 0.661291 0)
(3 3.13412e-16 0)
(3 8.63197e-17 0)
(3 -6.66722e-16 0)
(3 -1.24826e-15 0)
(3 -1.15066e-15 0)
(3 -1.61591e-15 0)
(3 -1.37126e-15 0)
(3 -5.93452e-16 0)
(3 -5.26654e-16 0)
(3 -5.90821e-16 0)
(3 3.40308e-16 0)
(3 5.34191e-16 0)
(3 4.35739e-16 0)
(3 4.00995e-16 0)
(3.00006 -8.34233e-07 0)
(1.66326 0.449733 0)
(0.827541 0.460035 0)
(0.765973 0.489194 0)
(0.732595 0.512322 0)
(0.70758 0.541029 0)
(0.691156 0.577521 0)
(0.669443 0.618977 0)
(0.657195 0.67733 0)
(0.631004 0.758076 0)
(3 -5.88586e-17 0)
(3 -4.60076e-17 0)
(3 -9.30427e-16 0)
(3 -1.84583e-15 0)
(3 -1.75997e-15 0)
(3 -1.77308e-15 0)
(3 -1.89231e-15 0)
(3 -1.75092e-15 0)
(3 -8.55572e-16 0)
(3 -6.26601e-16 0)
(3 2.40227e-17 0)
(3 3.44064e-17 0)
(3 -2.96243e-16 0)
(3 -5.71971e-16 0)
(3 -2.98942e-07 0)
(2.30463 0.44102 0)
(0.941686 0.559516 0)
(0.816125 0.513104 0)
(0.790274 0.539853 0)
(0.760931 0.567985 0)
(0.747401 0.607016 0)
(0.732812 0.653441 0)
(0.735386 0.72374 0)
(0.747137 0.825363 0)
(3 -9.74534e-17 0)
(3 8.60676e-17 0)
(3 1.75158e-16 0)
(3 -2.53316e-16 0)
(3 -1.26722e-15 0)
(3 -1.42662e-15 0)
(3 -1.41604e-15 0)
(3 -1.26968e-15 0)
(3 -1.05537e-15 0)
(3 -7.41604e-16 0)
(3 -6.59832e-16 0)
(3 -4.58697e-16 0)
(3 -1.64795e-16 0)
(3 6.60523e-16 0)
(3 -9.78809e-08 0)
(3.04179 0.126954 0)
(1.20285 0.572793 0)
(0.917433 0.541224 0)
(0.884692 0.579088 0)
(0.8438 0.602399 0)
(0.819009 0.637565 0)
(0.803917 0.682897 0)
(0.816686 0.751942 0)
(0.85727 0.84724 0)
(3 5.682e-17 0)
(3 -8.71129e-18 0)
(3 -2.02161e-16 0)
(3 -5.35489e-17 0)
(3 -5.43562e-16 0)
(3 -1.66014e-15 0)
(3 -1.28812e-15 0)
(3 -1.35031e-15 0)
(3 -1.23312e-15 0)
(3 -9.38167e-16 0)
(3 -1.0322e-15 0)
(3 -7.65766e-16 0)
(3 2.79809e-16 0)
(3 1.14661e-15 0)
(3 -1.2075e-08 0)
(3.02808 0.00251158 0)
(1.45726 0.558595 0)
(0.94256 0.627158 0)
(0.896123 0.645528 0)
(0.871646 0.657344 0)
(0.862792 0.682576 0)
(0.864683 0.716706 0)
(0.889042 0.769647 0)
(0.949549 0.843336 0)
(3 -1.5195e-16 0)
(3 -3.38195e-16 0)
(3 1.40719e-16 0)
(3 7.64917e-16 0)
(3 1.02392e-15 0)
(3 7.04702e-16 0)
(3 2.81401e-16 0)
(3 -3.02335e-16 0)
(3 -1.19696e-15 0)
(3 -9.11308e-16 0)
(3 -1.72749e-15 0)
(3 -1.7361e-15 0)
(3 -1.26806e-15 0)
(3 -4.66629e-16 0)
(3 -4.62019e-10 0)
(3.00039 -7.7931e-06 0)
(2.13974 0.547526 0)
(1.0308 0.70544 0)
(0.943137 0.676302 0)
(0.924452 0.68163 0)
(0.91824 0.701617 0)
(0.928221 0.732427 0)
(0.960697 0.780052 0)
(1.03304 0.840458 0)
(3 -7.5763e-17 0)
(3 -4.2239e-16 0)
(3 1.08148e-16 0)
(3 5.54707e-16 0)
(3 7.21112e-16 0)
(3 6.11752e-16 0)
(3 1.58311e-16 0)
(3 -6.92225e-16 0)
(3 -2.32035e-16 0)
(3 6.51194e-17 0)
(3 -3.20882e-16 0)
(3 -7.93367e-16 0)
(3 -5.31035e-16 0)
(3 -8.12891e-17 0)
(3 -1.45807e-12 0)
(3.00002 -9.63786e-06 0)
(3.04552 0.144838 0)
(1.31226 0.694134 0)
(1.04194 0.693604 0)
(1.01675 0.696289 0)
(1.00119 0.721327 0)
(1.00496 0.746902 0)
(1.03424 0.785229 0)
(1.10284 0.828409 0)
(3 -3.53682e-17 0)
(3 -2.73867e-16 0)
(3 -7.33124e-16 0)
(3 -9.31843e-16 0)
(3 -1.02714e-15 0)
(3 -8.38792e-16 0)
(3 -5.39176e-16 0)
(3 -9.44929e-16 0)
(3 7.17295e-16 0)
(3 1.36534e-15 0)
(3 1.1973e-15 0)
(3 3.40729e-16 0)
(3 1.68002e-16 0)
(3 4.60081e-16 0)
(3 -1.59326e-15 0)
(3 -1.96275e-06 0)
(3.02685 0.00184224 0)
(1.65644 0.657662 0)
(1.07243 0.75976 0)
(1.04937 0.757775 0)
(1.05051 0.77329 0)
(1.06665 0.789139 0)
(1.09885 0.808975 0)
(1.16357 0.834665 0)
(3 -1.23255e-17 0)
(3 4.10252e-17 0)
(3 1.89438e-16 0)
(3 1.42471e-16 0)
(3 6.27741e-17 0)
(3 6.3771e-17 0)
(3 -5.09527e-17 0)
(3 3.28834e-16 0)
(3 1.00825e-15 0)
(3 1.02485e-15 0)
(3 8.45739e-16 0)
(3 8.3679e-16 0)
(3 -3.01602e-16 0)
(3 -4.05988e-16 0)
(3 -6.23613e-16 0)
(3 -1.49759e-07 0)
(3.00033 5.43131e-06 0)
(2.56682 0.438487 0)
(1.20877 0.781758 0)
(1.09391 0.778738 0)
(1.11158 0.783012 0)
(1.13217 0.799514 0)
(1.16458 0.816456 0)
(1.22184 0.832357 0)
(3 2.93688e-17 0)
(3 5.71162e-17 0)
(3 2.01717e-16 0)
(3 5.06547e-17 0)
(3 8.0662e-17 0)
(3 3.06777e-17 0)
(3 4.14115e-16 0)
(3 8.90209e-16 0)
(3 7.2504e-16 0)
(3 7.63873e-16 0)
(3 8.12282e-16 0)
(3 1.47472e-15 0)
(3 1.16539e-15 0)
(3 5.0461e-16 0)
(3 -4.13519e-16 0)
(3 -7.17401e-10 0)
(3.00002 -9.53178e-06 0)
(3.06491 0.0422032 0)
(1.55501 0.746864 0)
(1.14469 0.799071 0)
(1.17178 0.804952 0)
(1.18749 0.820741 0)
(1.22177 0.832573 0)
(1.27353 0.843947 0)
(3 -1.62759e-16 0)
(3 -7.8662e-17 0)
(3 2.10837e-16 0)
(3 8.34973e-16 0)
(3 1.03816e-15 0)
(3 3.36279e-16 0)
(3 8.55804e-16 0)
(3 1.15302e-15 0)
(3 6.65942e-16 0)
(3 2.34871e-16 0)
(3 8.84755e-16 0)
(3 4.37573e-16 0)
(3 1.43279e-16 0)
(3 -3.06508e-17 0)
(3 -1.22471e-16 0)
(3 -9.8551e-13 0)
(3 -1.95604e-06 0)
(3.00432 0.00064204 0)
(2.32484 0.595253 0)
(1.24245 0.854486 0)
(1.19713 0.840013 0)
(1.22797 0.841914 0)
(1.26392 0.84809 0)
(1.3163 0.852636 0)
(3 7.37808e-18 0)
(3 3.73123e-17 0)
(3 4.52508e-17 0)
(3 5.53996e-16 0)
(3 1.17575e-15 0)
(3 1.22363e-15 0)
(3 9.62515e-16 0)
(3 6.70991e-16 0)
(3 4.65616e-16 0)
(3 2.69449e-16 0)
(3 4.88541e-16 0)
(3 -4.04315e-17 0)
(3 -5.91159e-16 0)
(3 -1.26466e-15 0)
(3 -7.00632e-16 0)
(3 2.64238e-16 0)
(3 -1.49608e-07 0)
(3.00001 1.93023e-06 0)
(3.04535 0.0968109 0)
(1.61062 0.821659 0)
(1.24178 0.838215 0)
(1.27764 0.842973 0)
(1.30729 0.850797 0)
(1.35522 0.855007 0)
(3 2.14589e-16 0)
(3 9.44826e-17 0)
(3 -1.43522e-15 0)
(3 -2.08213e-15 0)
(3 -9.08538e-16 0)
(3 2.2634e-16 0)
(3 5.45542e-16 0)
(3 7.33024e-16 0)
(3 5.05929e-16 0)
(3 1.15074e-15 0)
(3 7.80438e-16 0)
(3 7.21779e-16 0)
(3 6.23899e-16 0)
(3 2.60911e-16 0)
(3 1.01257e-16 0)
(3 2.62415e-16 0)
(3 -8.03232e-10 0)
(3 -1.60749e-07 0)
(3.00841 0.00259715 0)
(2.39839 0.625426 0)
(1.33557 0.896906 0)
(1.29792 0.881502 0)
(1.33601 0.876775 0)
(1.3793 0.874642 0)
(3 1.04538e-16 0)
(3 -3.30972e-16 0)
(3 -4.90661e-16 0)
(3 -7.00568e-16 0)
(3 -1.14815e-15 0)
(3 -9.87475e-16 0)
(3 -8.28775e-16 0)
(3 -7.43471e-16 0)
(3 1.91282e-16 0)
(3 4.16444e-16 0)
(3 4.1656e-16 0)
(3 2.6445e-16 0)
(3 5.76979e-16 0)
(3 4.99116e-16 0)
(3 -4.24834e-16 0)
(3 -5.92318e-16 0)
(3 -1.26692e-12 0)
(3 -3.05269e-08 0)
(3.00003 2.25882e-05 0)
(3.04128 0.0934259 0)
(1.74921 0.838303 0)
(1.33763 0.886777 0)
(1.38032 0.881902 0)
(1.41477 0.879495 0)
(3 -4.66471e-16 0)
(3 8.56601e-17 0)
(3 5.55711e-16 0)
(3 7.1211e-16 0)
(3 3.55497e-16 0)
(3 -3.86851e-16 0)
(3 -6.53856e-16 0)
(3 -8.84505e-16 0)
(3 3.24211e-16 0)
(3 2.63372e-16 0)
(3 -7.81799e-17 0)
(3 -3.29001e-16 0)
(3 -4.28124e-16 0)
(3 -3.34593e-16 0)
(3 -2.42885e-16 0)
(3 2.25426e-16 0)
(3 -4.93702e-16 0)
(3 -2.32565e-09 0)
(3 7.14171e-09 0)
(3.0055 0.00348893 0)
(2.62294 0.520061 0)
(1.49403 0.939284 0)
(1.40379 0.913262 0)
(1.44313 0.904773 0)
(3 -5.65823e-17 0)
(3 4.4847e-16 0)
(3 6.3956e-16 0)
(3 5.88749e-16 0)
(3 2.18989e-16 0)
(3 -6.52083e-16 0)
(3 -4.31704e-16 0)
(3 6.08931e-17 0)
(3 3.91629e-16 0)
(3 7.81021e-16 0)
(3 6.76344e-16 0)
(3 5.53594e-16 0)
(3 3.52768e-16 0)
(3 3.02616e-16 0)
(3 6.61694e-16 0)
(3 4.17903e-16 0)
(3 3.53602e-16 0)
(3 -5.90148e-11 0)
(3 -5.51996e-11 0)
(3.00001 2.79883e-05 0)
(3.03452 0.0492534 0)
(2.01398 0.805934 0)
(1.46337 0.928269 0)
(1.48345 0.917234 0)
(3 2.74799e-16 0)
(3 1.65071e-16 0)
(3 -2.73336e-16 0)
(3 -8.82553e-17 0)
(3 9.00974e-19 0)
(3 9.09605e-17 0)
(3 -2.0163e-17 0)
(3 -1.1349e-16 0)
(3 -5.72715e-16 0)
(3 -5.17741e-16 0)
(3 1.38327e-16 0)
(3 6.64556e-16 0)
(3 8.27697e-16 0)
(3 5.79258e-16 0)
(3 6.21972e-17 0)
(3 -5.25565e-16 0)
(3 -2.2583e-16 0)
(3 -2.90963e-13 0)
(3 -1.48841e-11 0)
(3 1.53352e-08 0)
(3.00147 0.0019802 0)
(2.84709 0.307452 0)
(1.74153 0.910628 0)
(1.50238 0.940176 0)
(3 -6.186e-18 0)
(3 -4.86813e-16 0)
(3 -5.08807e-17 0)
(3 1.9215e-16 0)
(3 5.58544e-16 0)
(3 3.64932e-16 0)
(3 -2.79354e-17 0)
(3 -1.71918e-16 0)
(3 3.55157e-17 0)
(3 -3.38204e-16 0)
(3 6.53614e-16 0)
(3 1.42415e-15 0)
(3 1.82708e-15 0)
(3 1.24634e-15 0)
(3 5.66105e-17 0)
(3 -1.85807e-16 0)
(3 8.30916e-17 0)
(3 -4.46274e-17 0)
(3 -1.48227e-12 0)
(3 6.94991e-13 0)
(3 8.42281e-06 0)
(3.00912 0.0206951 0)
(2.44304 0.634449 0)
(1.61474 0.969394 0)
(3 1.99717e-17 0)
(3 -1.32962e-17 0)
(3 1.30599e-15 0)
(3 1.28537e-15 0)
(3 5.34515e-16 0)
(3 -3.82049e-16 0)
(3 -8.08387e-16 0)
(3 -2.93743e-16 0)
(3 -1.27279e-16 0)
(3 -5.05755e-17 0)
(3 1.89588e-16 0)
(3 3.39558e-16 0)
(3 6.34097e-16 0)
(3 5.90263e-16 0)
(3 -2.94824e-17 0)
(3 -1.43731e-16 0)
(3 -1.30728e-15 0)
(3 -1.6773e-15 0)
(3 -4.18778e-14 0)
(3 -9.5143e-14 0)
(3 3.89434e-09 0)
(3.00006 0.000520415 0)
(2.9897 0.105102 0)
(2.09187 0.811885 0)
(3 -1.3986e-16 0)
(3 1.14399e-16 0)
(3 3.08556e-16 0)
(3 4.46642e-16 0)
(3 4.67567e-16 0)
(3 2.04223e-16 0)
(3 -4.35171e-16 0)
(3 -6.79422e-16 0)
(3 -4.41665e-16 0)
(3 2.49302e-16 0)
(3 3.74725e-16 0)
(3 1.12058e-16 0)
(3 4.93297e-16 0)
(3 -3.52761e-17 0)
(3 -6.96325e-16 0)
(3 -1.49267e-15 0)
(3 -2.03777e-15 0)
(3 -2.05538e-15 0)
(3 -5.40371e-16 0)
(3 -8.44368e-14 0)
(3 6.34234e-13 0)
(3 1.01729e-06 0)
(3.00101 0.00540127 0)
(2.82376 0.310144 0)
(3 -4.27419e-17 0)
(3 -1.16752e-16 0)
(3 -9.20231e-16 0)
(3 -1.45216e-15 0)
(3 -1.00458e-15 0)
(3 -3.63252e-16 0)
(3 -2.18274e-16 0)
(3 -1.05352e-15 0)
(3 8.56322e-16 0)
(3 8.96866e-16 0)
(3 4.90075e-16 0)
(3 -5.72603e-16 0)
(3 -1.35921e-15 0)
(3 -1.03174e-15 0)
(3 -1.01872e-15 0)
(3 -1.10168e-15 0)
(3 -8.57481e-16 0)
(3 -6.39619e-16 0)
(3 1.78937e-16 0)
(3 -1.89366e-14 0)
(3 -6.5007e-14 0)
(3 5.208e-10 0)
(2.99999 3.95008e-05 0)
(3.0002 0.024079 0)
(3 2.39596e-16 0)
(3 2.45805e-17 0)
(3 -1.06891e-15 0)
(3 -1.20531e-15 0)
(3 -1.57597e-15 0)
(3 -1.0176e-15 0)
(3 1.92406e-16 0)
(3 1.2803e-15 0)
(3 8.35096e-16 0)
(3 4.8136e-16 0)
(3 -5.75278e-16 0)
(3 -1.6933e-15 0)
(3 -3.21051e-15 0)
(3 -3.42116e-15 0)
(3 -2.6942e-15 0)
(3 -1.19577e-15 0)
(3 -3.75851e-16 0)
(3 -4.47105e-16 0)
(3 -7.55173e-16 0)
(3 -2.72963e-15 0)
(3 -3.94491e-14 0)
(3 7.95277e-15 0)
(3 3.62676e-08 0)
(2.99994 0.000562209 0)
(3 -6.18125e-18 0)
(3 -2.70063e-16 0)
(3 -3.58634e-16 0)
(3 -3.45085e-16 0)
(3 -3.13879e-16 0)
(3 3.99002e-16 0)
(3 1.71501e-15 0)
(3 1.54917e-15 0)
(3 -1.43994e-16 0)
(3 -8.97021e-16 0)
(3 -9.51451e-16 0)
(3 -9.88805e-16 0)
(3 -9.76058e-16 0)
(3 -8.67079e-16 0)
(3 -6.12248e-16 0)
(3 -3.77332e-16 0)
(3 -1.41602e-16 0)
(3 5.34846e-16 0)
(3 -1.03273e-16 0)
(3 -2.02508e-16 0)
(3 -4.96484e-15 0)
(3 -1.31725e-14 0)
(3 1.32446e-11 0)
(3 1.17314e-06 0)
(3 -1.34766e-16 0)
(3 2.40435e-16 0)
(3 5.23613e-16 0)
(3 5.23247e-16 0)
(3 5.28503e-16 0)
(3 9.62754e-16 0)
(3 1.19696e-15 0)
(3 1.08479e-15 0)
(3 1.86751e-16 0)
(3 -7.96237e-16 0)
(3 -1.14556e-15 0)
(3 -7.48595e-16 0)
(3 -4.84064e-17 0)
(3 1.01077e-15 0)
(3 1.5682e-15 0)
(3 1.79063e-15 0)
(3 1.61587e-15 0)
(3 1.57108e-15 0)
(3 1.54025e-15 0)
(3 1.58785e-15 0)
(3 6.76176e-16 0)
(3 -4.61601e-15 0)
(3 -4.12823e-15 0)
(3 8.77305e-10 0)
(3 -7.15223e-17 0)
(3 -5.84963e-20 0)
(3 1.34249e-16 0)
(3 8.2013e-16 0)
(3 9.65013e-16 0)
(3 9.64534e-16 0)
(3 -8.9746e-17 0)
(3 -3.81384e-16 0)
(3 -5.71337e-16 0)
(3 -6.85594e-16 0)
(3 -4.74168e-16 0)
(3 -9.8913e-17 0)
(3 -2.70463e-17 0)
(3 5.91215e-16 0)
(3 8.06641e-16 0)
(3 9.17497e-16 0)
(3 2.30846e-15 0)
(3 3.07974e-15 0)
(3 2.78692e-15 0)
(3 1.75296e-15 0)
(3 2.76395e-16 0)
(3 -9.45586e-16 0)
(3 -1.95383e-15 0)
(3 1.02122e-13 0)
(3 3.96627e-17 0)
(3 -3.49207e-16 0)
(3 -6.01963e-16 0)
(3 -2.1402e-16 0)
(3 3.15967e-17 0)
(3 -1.64392e-16 0)
(3 -1.09863e-15 0)
(3 -2.43876e-15 0)
(3 -2.24517e-15 0)
(3 -1.28514e-15 0)
(3 -3.97169e-16 0)
(3 1.61648e-16 0)
(3 6.13971e-16 0)
(3 7.77216e-16 0)
(3 4.99442e-16 0)
(3 4.63638e-16 0)
(3 1.23405e-15 0)
(3 2.61444e-15 0)
(3 1.78397e-15 0)
(3 -6.37798e-16 0)
(3 -1.47566e-15 0)
(3 -1.35815e-15 0)
(3 -1.23977e-15 0)
(3 -1.64551e-15 0)
(3 2.47964e-16 0)
(3 5.49091e-16 0)
(3 5.55399e-17 0)
(3 -7.86726e-16 0)
(3 -1.16355e-15 0)
(3 -1.43805e-15 0)
(3 -1.86815e-15 0)
(3 -1.83361e-15 0)
(3 -5.83332e-16 0)
(3 3.4705e-16 0)
(3 3.25826e-16 0)
(3 2.46399e-16 0)
(3 7.05097e-16 0)
(3 6.55879e-16 0)
(3 2.63318e-16 0)
(3 2.69633e-16 0)
(3 -4.56839e-16 0)
(3 -3.18794e-16 0)
(3 3.08109e-16 0)
(3 -4.11006e-16 0)
(3 -8.34905e-17 0)
(3 -6.37467e-16 0)
(3 -1.72162e-15 0)
(3 -2.55758e-15 0)
(3 -5.30329e-17 0)
(3 -3.00664e-16 0)
(3 -8.65056e-19 0)
(3 -3.07687e-16 0)
(3 -2.66166e-16 0)
(3 -2.24835e-16 0)
(3 9.72387e-17 0)
(3 4.02842e-16 0)
(3 4.68472e-16 0)
(3 5.69991e-16 0)
(3 6.41363e-16 0)
(3 3.1556e-16 0)
(3 -3.37958e-16 0)
(3 -8.49238e-16 0)
(3 -6.93563e-16 0)
(3 -1.12157e-15 0)
(3 -8.22668e-16 0)
(3 -1.1275e-15 0)
(3 -2.4667e-16 0)
(3 7.72765e-16 0)
(3 9.86561e-16 0)
(3 5.12903e-16 0)
(3 -1.63514e-15 0)
(3 -2.10282e-15 0)
(3 -8.48038e-18 0)
(3 -6.87226e-16 0)
(3 -4.5803e-16 0)
(3 2.98042e-17 0)
(3 6.2484e-16 0)
(3 7.68052e-16 0)
(3 2.26123e-15 0)
(3 2.52211e-15 0)
(3 1.44315e-15 0)
(3 2.46258e-16 0)
(3 -1.74781e-16 0)
(3 -7.82181e-16 0)
(3 -8.58594e-16 0)
(3 -8.90525e-16 0)
(3 -6.36179e-16 0)
(3 -8.11402e-16 0)
(3 -1.1889e-15 0)
(3 -1.03984e-15 0)
(3 -9.98262e-16 0)
(3 -5.55427e-16 0)
(3 -6.84195e-16 0)
(3 1.20288e-16 0)
(3 3.07509e-16 0)
(3 1.28086e-16 0)
(3 -2.46688e-16 0)
(3 3.572e-16 0)
(3 6.58849e-16 0)
(3 1.07248e-15 0)
(3 6.62469e-16 0)
(3 7.79357e-16 0)
(3 9.57438e-16 0)
(3 1.14259e-15 0)
(3 1.04999e-15 0)
(3 1.28968e-16 0)
(3 -5.46067e-16 0)
(3 -1.28333e-15 0)
(3 -1.79278e-15 0)
(3 -1.84357e-15 0)
(3 -1.72909e-15 0)
(3 -1.47617e-15 0)
(3 -1.55421e-15 0)
(3 -1.81457e-15 0)
(3 -2.16308e-15 0)
(3 -2.09225e-15 0)
(3 -1.9495e-15 0)
(3 -1.39091e-15 0)
(3 -3.37113e-16 0)
(3 -2.21231e-16 0)
(3 2.47436e-17 0)
(3 6.83307e-16 0)
(3 1.4193e-15 0)
(3 1.1309e-15 0)
(3 -1.27951e-16 0)
(3 -8.531e-16 0)
(3 -1.04729e-15 0)
(3 -1.17767e-15 0)
(3 -2.03318e-15 0)
(3 -2.55228e-15 0)
(3 -3.16103e-15 0)
(3 -3.31479e-15 0)
(3 -3.0981e-15 0)
(3 -2.02454e-15 0)
(3 -1.8406e-15 0)
(3 -2.01571e-15 0)
(3 -1.64798e-15 0)
(3 -1.61947e-15 0)
(3 -1.30077e-15 0)
(3 -7.14451e-16 0)
(3 -4.10712e-18 0)
(3 2.09331e-17 0)
(3 7.88777e-17 0)
(3 2.85463e-16 0)
(3 3.57399e-16 0)
(3 4.01263e-16 0)
(3 -7.02903e-17 0)
(3 -1.6289e-16 0)
(3 2.29587e-16 0)
(3 -9.73968e-17 0)
(3 -1.61595e-15 0)
(3 -2.85565e-15 0)
(3 -3.48863e-15 0)
(3 -2.95876e-15 0)
(3 -2.31512e-15 0)
(3 -2.54087e-15 0)
(3 -2.15424e-15 0)
(3 -1.55689e-15 0)
(3 -1.40455e-15 0)
(3 -9.65411e-16 0)
(3 -6.60936e-16 0)
(3 -9.48091e-16 0)
(3 -9.48737e-16 0)
(3 -6.1859e-16 0)
(3 6.85418e-16 0)
(3 6.87604e-16 0)
(3 8.52244e-16 0)
(3 1.0179e-15 0)
(3 2.37754e-16 0)
(3 -2.66189e-16 0)
(3 -5.41714e-16 0)
(3 -4.87121e-16 0)
(3 4.06264e-16 0)
(3 3.98243e-16 0)
(3 -2.67466e-16 0)
(3 -1.6148e-15 0)
(3 -1.59928e-15 0)
(3 -7.1682e-16 0)
(3 -5.67741e-16 0)
(3 -4.37283e-16 0)
(3 -7.11309e-16 0)
(3 -8.91544e-16 0)
(3 -7.20629e-16 0)
(3 -1.56918e-16 0)
(3 3.22083e-17 0)
(3 -7.88357e-16 0)
(3 -7.64173e-16 0)
(3 -6.17439e-16 0)
(3 6.10856e-17 0)
(3 1.91048e-16 0)
(3 6.42595e-16 0)
(3 6.95069e-16 0)
(0.209634 0.280179 0)
(0.0350182 0.062152 0)
(0.312433 0.346032 0)
(0.13918 0.15644 0)
(0.370644 0.499604 0)
(0.19248 0.394662 0)
(0.40624 0.653429 0)
(0.209859 0.7331 0)
(0.596012 0.870926 0)
(0.678236 1.08755 0)
(0.811835 0.937244 0)
(1.0607 1.05892 0)
(0.980078 0.944177 0)
(1.25229 1.02356 0)
(1.08829 0.921048 0)
(1.32365 0.967724 0)
(1.16829 0.900084 0)
(1.3649 0.932734 0)
(1.21955 0.86802 0)
(1.3755 0.889347 0)
(1.26346 0.858657 0)
(1.39159 0.870346 0)
(1.30705 0.84516 0)
(1.41256 0.849877 0)
(1.34542 0.852168 0)
(1.43288 0.85276 0)
(1.38187 0.853255 0)
(1.45721 0.848152 0)
(1.41248 0.856601 0)
(1.47929 0.852338 0)
(1.43227 0.870944 0)
(1.49532 0.862205 0)
(1.46117 0.874947 0)
(1.51622 0.866962 0)
(1.48277 0.896121 0)
(1.53028 0.884048 0)
(1.51608 0.90429 0)
(1.55455 0.891231 0)
(1.54571 0.926718 0)
(1.58072 0.912451 0)
(1.55932 0.953996 0)
(1.59828 0.936822 0)
(1.62588 0.96154 0)
(1.62231 0.957186 0)
(1.90913 0.896956 0)
(1.66438 0.971917 0)
(2.56551 0.526155 0)
(1.84215 0.94397 0)
(2.98094 0.0678677 0)
(2.35577 0.680895 0)
(2.99973 0.00289722 0)
(2.91916 0.155261 0)
(3 1.31588e-05 0)
(2.99824 0.00906343 0)
(3 1.40994e-08 0)
(2.99998 8.69362e-05 0)
(3 3.4892e-12 0)
(3 1.30924e-07 0)
(3 -2.53217e-15 0)
(3 5.94656e-11 0)
(3 -2.92494e-15 0)
(3 1.47399e-15 0)
(3 -9.71953e-16 0)
(3 -2.46753e-15 0)
(3 -3.96501e-16 0)
(3 -6.7388e-16 0)
(3 2.99846e-16 0)
(3 1.11809e-15 0)
(3 1.61632e-15 0)
(3 1.98705e-15 0)
(3 1.43342e-15 0)
(3 1.43177e-15 0)
(1.58343 1.16663 0)
(2.17595 1.09955 0)
(2.52665 1.25136 0)
(2.52729 0.702689 0)
(2.60016 0.305131 0)
(2.66686 0.0364777 0)
(2.6638 -0.134123 0)
(2.62892 -0.187868 0)
(2.53771 -0.221969 0)
(2.50493 -0.300003 0)
(2.52518 -0.26616 0)
(2.51193 -0.146828 0)
(2.49142 -0.107254 0)
(2.46692 -0.0876465 0)
(2.46135 -0.0724586 0)
(2.45703 -0.0642769 0)
(2.46052 -0.0548024 0)
(2.48048 -0.0307253 0)
(2.48057 -0.0124215 0)
(2.46873 -0.0122847 0)
(2.46548 -0.0152335 0)
(2.4672 -0.0150536 0)
(2.47056 -0.00724385 0)
(2.46564 0.00260829 0)
(2.46228 0.00513631 0)
(2.46356 0.00348804 0)
(2.47154 0.000643929 0)
(2.48024 -0.000396982 0)
(2.48502 -0.0011855 0)
(2.4839 -0.00386867 0)
(2.48191 -0.00563236 0)
(2.47918 -0.00791098 0)
(2.47691 -0.00667666 0)
(2.47667 0.000354802 0)
(2.4759 0.00508433 0)
(2.47545 0.00644506 0)
(2.47997 0.00612496 0)
(2.49444 0.00289982 0)
(2.50661 -0.000447443 0)
(2.51017 -0.00078247 0)
(2.51295 -0.000133015 0)
(2.51086 -4.77081e-05 0)
(2.50686 0.00197382 0)
(2.51041 0.00463757 0)
(2.51565 0.00420762 0)
(2.51014 -0.00633847 0)
(2.45403 -0.0609821 0)
(2.30164 -0.178071 0)
(2.10646 -0.294434 0)
(1.94551 -0.30223 0)
(1.85618 -0.273397 0)
(1.81363 -0.235908 0)
(1.76022 -0.17029 0)
(1.76161 -0.086556 0)
(1.80979 -0.0266555 0)
(1.86986 0.00698204 0)
(1.92121 0.0128606 0)
(1.9516 0.00926055 0)
(1.97616 0.00664849 0)
(1.99893 0.00817878 0)
(2.01562 0.00974591 0)
(2.02486 0.00754015 0)
(2.03768 0.00714557 0)
(2.0601 0.0100151 0)
(2.08114 0.0123177 0)
(2.10218 0.0112274 0)
(2.12918 0.00676951 0)
(2.15684 0.00298371 0)
(2.18547 0.0017083 0)
(2.21029 0.00402231 0)
(2.22907 0.00846631 0)
(2.2462 0.0105966 0)
(2.26401 0.0107901 0)
(2.28152 0.0108048 0)
(2.29949 0.0113869 0)
(2.31969 0.0120674 0)
(2.34332 0.0120023 0)
(2.36791 0.0114048 0)
(2.39276 0.00986838 0)
(2.41575 0.0085082 0)
(2.42925 0.00887256 0)
(2.4292 0.0115926 0)
(2.42838 0.0145412 0)
(2.44065 0.0153119 0)
(2.46015 0.0152293 0)
(2.48005 0.0148354 0)
(2.50414 0.0134287 0)
(2.53187 0.0112588 0)
(2.55333 0.00888574 0)
(2.57445 0.00774045 0)
(2.59126 0.00581201 0)
(2.59058 0.00725133 0)
(2.57424 0.0135554 0)
(2.59089 0.0167031 0)
(1.78922 0.984311 0)
(2.28487 0.621623 0)
(2.50727 0.336402 0)
(2.61125 0.137283 0)
(2.7131 -0.232414 0)
(2.68233 -0.488774 0)
(2.71482 -0.497864 0)
(2.7206 -0.466357 0)
(2.69444 -0.417951 0)
(2.64964 -0.374629 0)
(2.59809 -0.293524 0)
(2.53733 -0.178738 0)
(2.50029 -0.13678 0)
(2.4873 -0.122701 0)
(2.4899 -0.0868644 0)
(2.49112 -0.0500224 0)
(2.49043 -0.0357799 0)
(2.49824 -0.0106061 0)
(2.48818 0.015453 0)
(2.47258 0.0148776 0)
(2.46117 0.00397484 0)
(2.46332 -0.00454501 0)
(2.47021 -0.00197218 0)
(2.46717 0.00817061 0)
(2.46594 0.0120721 0)
(2.46707 0.00815205 0)
(2.47527 0.00355143 0)
(2.48583 0.00086887 0)
(2.49363 -0.00225574 0)
(2.49668 -0.00710718 0)
(2.49721 -0.0111108 0)
(2.49654 -0.0164747 0)
(2.49524 -0.0179363 0)
(2.49605 -0.00997972 0)
(2.49667 0.00631298 0)
(2.49815 0.0191859 0)
(2.50307 0.025465 0)
(2.50988 0.0266425 0)
(2.51551 0.0190172 0)
(2.51967 0.00880617 0)
(2.52095 0.00339785 0)
(2.52161 -0.00290762 0)
(2.52174 0.000606896 0)
(2.52176 -0.00347869 0)
(2.51318 -0.0285563 0)
(2.4441 -0.14671 0)
(2.32819 -0.356276 0)
(2.22541 -0.572658 0)
(2.16155 -0.691474 0)
(2.08775 -0.59773 0)
(2.03027 -0.461682 0)
(1.96629 -0.25201 0)
(1.89612 -0.0937867 0)
(1.84351 0.0153369 0)
(1.84447 0.0517957 0)
(1.89618 0.0665356 0)
(1.93129 0.0530133 0)
(1.95504 0.0385505 0)
(1.97968 0.0134232 0)
(2.00175 -0.000990291 0)
(2.02739 -0.0019229 0)
(2.04344 -0.00682219 0)
(2.05586 -0.00594584 0)
(2.07773 0.00456404 0)
(2.10092 0.0196359 0)
(2.12063 0.032681 0)
(2.14289 0.0341493 0)
(2.16754 0.028506 0)
(2.19191 0.0195856 0)
(2.21531 0.0129822 0)
(2.23692 0.010428 0)
(2.25849 0.0107869 0)
(2.2805 0.0136292 0)
(2.30069 0.0203876 0)
(2.31658 0.0302358 0)
(2.33144 0.0356562 0)
(2.35266 0.0328978 0)
(2.37667 0.0267629 0)
(2.39911 0.0187869 0)
(2.41944 0.00979895 0)
(2.43648 0.00129965 0)
(2.44743 0.00268026 0)
(2.4547 0.0165532 0)
(2.46001 0.0348766 0)
(2.46933 0.046396 0)
(2.48667 0.0492616 0)
(2.50575 0.0489581 0)
(2.52718 0.0435225 0)
(2.54841 0.0338259 0)
(2.56861 0.0210444 0)
(2.58633 0.00546489 0)
(2.59785 -0.0063437 0)
(2.59872 0.00171173 0)
(2.60978 0.0281073 0)
(1.725 0.956004 0)
(1.99501 0.864384 0)
(2.31502 0.588907 0)
(2.53612 0.285991 0)
(2.58781 0.149376 0)
(2.62513 -0.0471884 0)
(2.66454 -0.0782264 0)
(2.67013 -0.126416 0)
(2.72466 -0.246073 0)
(2.73293 -0.359332 0)
(2.72111 -0.363052 0)
(2.66846 -0.344877 0)
(2.6214 -0.322338 0)
(2.61446 -0.284587 0)
(2.59834 -0.213226 0)
(2.58002 -0.142404 0)
(2.56746 -0.108578 0)
(2.55069 -0.0702981 0)
(2.52749 -0.0182201 0)
(2.5131 -0.00632931 0)
(2.50505 -0.00813338 0)
(2.5097 -0.00830025 0)
(2.50913 -0.00298231 0)
(2.50165 0.00414401 0)
(2.49755 -0.000158341 0)
(2.50317 -0.0160999 0)
(2.50633 -0.025739 0)
(2.51744 -0.0248132 0)
(2.52474 -0.0172904 0)
(2.52797 -0.00930341 0)
(2.53004 -0.00873758 0)
(2.52989 -0.0104598 0)
(2.53032 -0.0103066 0)
(2.53241 -0.00836437 0)
(2.53375 -0.00225244 0)
(2.53807 0.00312235 0)
(2.54259 0.00416183 0)
(2.54545 0.00391042 0)
(2.5466 0.00432532 0)
(2.54766 0.00600753 0)
(2.54843 0.00907099 0)
(2.54848 0.00549472 0)
(2.5432 -0.0104479 0)
(2.51605 -0.0616945 0)
(2.44256 -0.198943 0)
(2.27552 -0.46471 0)
(2.17482 -0.628896 0)
(2.19051 -0.641101 0)
(2.19548 -0.681269 0)
(2.19864 -0.686668 0)
(2.18879 -0.662437 0)
(2.16767 -0.584619 0)
(2.13361 -0.439484 0)
(2.08891 -0.26303 0)
(2.04801 -0.118417 0)
(2.00179 -0.0168417 0)
(1.98277 0.0228669 0)
(1.98595 0.0331494 0)
(2.00395 0.0332892 0)
(2.03015 0.0391774 0)
(2.05681 0.0406782 0)
(2.08042 0.029767 0)
(2.09469 0.0151205 0)
(2.11298 0.0175227 0)
(2.13382 0.0299504 0)
(2.15334 0.043386 0)
(2.16937 0.051341 0)
(2.18543 0.0460331 0)
(2.20525 0.034727 0)
(2.22773 0.0278036 0)
(2.24997 0.0250568 0)
(2.27438 0.0226328 0)
(2.29934 0.0183287 0)
(2.32286 0.0160523 0)
(2.34415 0.0221924 0)
(2.35981 0.0391939 0)
(2.36868 0.0572523 0)
(2.37816 0.0623508 0)
(2.39465 0.0553254 0)
(2.41548 0.0440583 0)
(2.43719 0.0324995 0)
(2.45643 0.0242811 0)
(2.47347 0.0235401 0)
(2.48777 0.0319659 0)
(2.49862 0.0482827 0)
(2.50684 0.063365 0)
(2.51783 0.0693132 0)
(2.53289 0.0673319 0)
(2.5488 0.0606373 0)
(2.56396 0.0489032 0)
(2.57734 0.0343227 0)
(2.59242 0.0223144 0)
(2.60973 0.0203414 0)
(2.63537 0.0323359 0)
(1.62754 0.952666 0)
(1.9242 0.806549 0)
(2.17237 0.620321 0)
(2.28354 0.540975 0)
(2.39937 0.392789 0)
(2.55204 0.127874 0)
(2.6247 -0.0279495 0)
(2.63334 -0.0979621 0)
(2.69166 -0.253839 0)
(2.71685 -0.336761 0)
(2.74636 -0.366764 0)
(2.73773 -0.403333 0)
(2.73173 -0.403297 0)
(2.71132 -0.378195 0)
(2.68349 -0.323125 0)
(2.66442 -0.270721 0)
(2.64865 -0.232699 0)
(2.62723 -0.180984 0)
(2.60718 -0.120066 0)
(2.59662 -0.0886824 0)
(2.59002 -0.0898411 0)
(2.57271 -0.071004 0)
(2.54889 -0.0360536 0)
(2.54358 0.00399284 0)
(2.54679 0.0216001 0)
(2.55427 0.0185155 0)
(2.55594 0.016219 0)
(2.55702 0.0114425 0)
(2.55773 0.00818403 0)
(2.56081 0.00418545 0)
(2.57031 -0.00990798 0)
(2.57212 -0.0214414 0)
(2.57416 -0.0215345 0)
(2.57637 -0.0193172 0)
(2.57841 -0.011319 0)
(2.5831 -0.000408803 0)
(2.58689 0.00947891 0)
(2.58556 0.0138755 0)
(2.58372 0.016357 0)
(2.58247 0.0178342 0)
(2.58164 0.0150802 0)
(2.57297 -0.00464689 0)
(2.53013 -0.0773697 0)
(2.40978 -0.290473 0)
(2.25682 -0.518546 0)
(2.2299 -0.580845 0)
(2.17718 -0.657779 0)
(2.16263 -0.696705 0)
(2.17773 -0.700281 0)
(2.20526 -0.694971 0)
(2.22447 -0.678245 0)
(2.24008 -0.663661 0)
(2.24456 -0.629245 0)
(2.23189 -0.557637 0)
(2.1927 -0.409465 0)
(2.12424 -0.22327 0)
(2.08441 -0.0980617 0)
(2.05926 -0.0336669 0)
(2.05874 0.00757489 0)
(2.07118 0.0253197 0)
(2.07922 0.041122 0)
(2.10305 0.054333 0)
(2.12669 0.0556774 0)
(2.15019 0.0516062 0)
(2.16864 0.0487837 0)
(2.18728 0.0484936 0)
(2.20024 0.0482936 0)
(2.20684 0.0413447 0)
(2.22392 0.0314142 0)
(2.24511 0.0279723 0)
(2.26821 0.0273855 0)
(2.2938 0.0313219 0)
(2.31886 0.0340321 0)
(2.34278 0.0344529 0)
(2.36466 0.0370167 0)
(2.3816 0.0479164 0)
(2.38798 0.0631494 0)
(2.39143 0.0679892 0)
(2.40494 0.0631136 0)
(2.42395 0.0603753 0)
(2.44256 0.0598874 0)
(2.46216 0.0599012 0)
(2.48152 0.059531 0)
(2.50154 0.057996 0)
(2.52097 0.058486 0)
(2.53328 0.0657776 0)
(2.53541 0.0752211 0)
(2.53954 0.075225 0)
(2.55 0.0680925 0)
(2.56201 0.0600098 0)
(2.57722 0.0562978 0)
(2.59619 0.0568157 0)
(2.61468 0.0593489 0)
(2.64891 0.0614219 0)
(1.59086 0.915776 0)
(1.8359 0.814963 0)
(2.01569 0.710611 0)
(2.14185 0.623755 0)
(2.32373 0.428535 0)
(2.4321 0.274128 0)
(2.46821 0.241226 0)
(2.53122 0.125215 0)
(2.60376 -0.0467812 0)
(2.64141 -0.14704 0)
(2.6549 -0.147241 0)
(2.6749 -0.201641 0)
(2.70818 -0.284082 0)
(2.72925 -0.30026 0)
(2.7181 -0.304731 0)
(2.71132 -0.314446 0)
(2.70598 -0.326253 0)
(2.68978 -0.29152 0)
(2.67681 -0.239205 0)
(2.66876 -0.196259 0)
(2.65645 -0.179208 0)
(2.63479 -0.151931 0)
(2.59587 -0.0889288 0)
(2.59089 -0.0529254 0)
(2.59875 -0.0357293 0)
(2.59793 -0.0175949 0)
(2.58923 -0.00817715 0)
(2.58123 -0.00103905 0)
(2.57972 0.00840567 0)
(2.58206 0.0119433 0)
(2.58877 0.011124 0)
(2.595 0.00513348 0)
(2.60145 -0.00170682 0)
(2.60708 -0.00831149 0)
(2.61297 -0.00946894 0)
(2.61936 -0.00849755 0)
(2.62216 -0.00573635 0)
(2.61989 -0.00131936 0)
(2.61243 0.00125434 0)
(2.60778 -0.00369889 0)
(2.5939 -0.0240586 0)
(2.53188 -0.122838 0)
(2.3401 -0.383406 0)
(2.26984 -0.523539 0)
(2.19091 -0.641346 0)
(2.16751 -0.67921 0)
(2.17893 -0.678811 0)
(2.18409 -0.668914 0)