/*--------------------------------*- C++ -*----------------------------------*\
  =========                 |
  \\      /  F ield         | OpenFOAM: The Open Source CFD Toolbox
   \\    /   O peration     | Website:  https://openfoam.org
    \\  /    A nd           | Version:  7
     \\/     M anipulation  |
\*---------------------------------------------------------------------------*/
FoamFile
{
    version     2.0;
    format      ascii;
    class       volScalarField;
    location    "1";
    object      T;
}
// * * * * * * * * * * * * * * * * * * * * * * * * * * * * * * * * * * * * * //

dimensions      [0 0 0 1 0 0 0];

internalField   nonuniform List<scalar> 
16192
(
1.35496
1.35717
1.35773
1.35785
1.35907
1.36167
1.36383
1.36401
1.36153
1.35622
1.35021
1.34254
1.33112
1.32066
1.31829
1.31841
1.32052
1.32477
1.32894
1.33258
1.33624
1.33958
1.34278
1.34514
1.34537
1.3434
1.33952
1.33431
1.32736
1.31795
1.30677
1.29746
1.29315
1.29242
1.29345
1.29906
1.30651
1.31109
1.31524
1.31897
1.32174
1.3238
1.3248
1.32457
1.32177
1.31343
1.3067
1.30522
1.30465
1.3044
1.30621
1.31143
1.31337
1.31113
1.30558
1.30074
1.29733
1.29284
1.2849
1.27808
1.2776
1.28069
1.28603
1.29345
1.30194
1.30577
1.30573
1.30598
1.30513
1.30354
1.32109
1.38593
1.48536
1.58805
1.66649
1.73284
1.76994
1.78141
1.78167
1.77598
1.7594
1.73889
1.72526
1.71788
1.71302
1.71013
1.71486
1.72918
1.73667
1.73626
1.734
1.73108
1.72233
1.70668
1.69732
1.69339
1.69028
1.6883
1.68847
1.6908
1.69284
1.69012
1.68348
1.6776
1.67218
1.66538
1.6579
1.65125
1.64903
1.64799
1.64707
1.64659
1.64608
1.643
1.63576
1.62784
1.62279
1.61962
1.61654
1.61622
1.61816
1.61848
1.6138
1.60625
1.5957
1.58586
1.5834
1.58354
1.58542
1.59087
1.59983
1.60716
1.60769
1.60404
1.59613
1.58214
1.56365
1.55247
1.54958
1.54876
1.54857
1.55084
1.55795
1.56377
1.56351
1.56198
1.55871
1.55246
1.54293
1.5341
1.52916
1.52725
1.5261
1.52567
1.52718
1.53064
1.53116
1.52939
1.52637
1.52109
1.5125
1.50256
1.49822
1.49697
1.49626
1.49639
1.49821
1.49862
1.49763
1.49627
1.49389
1.48811
1.47874
1.47027
1.46599
1.46326
1.46086
1.45993
1.46178
1.46634
1.46734
1.46587
1.46277
1.46031
1.45653
1.45095
1.45023
1.45067
1.45081
1.45042
1.45056
1.44931
1.44505
1.43895
1.43269
1.42716
1.42164
1.41465
1.40937
1.40771
1.40657
1.40636
1.40795
1.41248
1.4144
1.414
1.41355
1.41255
1.40913
1.40264
1.39671
1.39377
1.39173
1.38949
1.38775
1.38762
1.38827
1.38786
1.38491
1.38137
1.37838
1.37545
1.37163
1.36624
1.36016
1.35431
1.34765
1.34062
1.33674
1.3354
1.3346
1.33404
1.33382
1.33454
1.33805
1.34629
1.35645
1.36093
1.36086
1.35965
1.35642
1.34874
1.33637
1.32314
1.31564
1.31256
1.3106
1.30966
1.31038
1.31549
1.31882
1.31806
1.31751
1.35661
1.35803
1.3587
1.36045
1.36387
1.36684
1.36734
1.3655
1.36064
1.35463
1.34674
1.33481
1.3223
1.31861
1.31851
1.32009
1.32393
1.32834
1.33363
1.34019
1.34518
1.3478
1.34877
1.3485
1.346
1.34126
1.33547
1.32902
1.32118
1.31163
1.30191
1.29613
1.2948
1.29543
1.29999
1.30642
1.31069
1.31505
1.3191
1.32207
1.3242
1.32542
1.3254
1.32306
1.31501
1.30745
1.30586
1.30579
1.30575
1.3074
1.31245
1.31538
1.31411
1.30909
1.3036
1.29977
1.29549
1.28842
1.28068
1.2792
1.28151
1.2868
1.29356
1.30248
1.30714
1.30837
1.30947
1.31458
1.34141
1.41008
1.51478
1.60974
1.66696
1.71874
1.75937
1.77674
1.78225
1.78072
1.77539
1.76423
1.74716
1.73285
1.72205
1.71354
1.71087
1.71521
1.72963
1.73782
1.73741
1.73505
1.73194
1.72215
1.70556
1.69663
1.69303
1.69006
1.68801
1.68792
1.68986
1.69213
1.69023
1.6851
1.68025
1.67496
1.66795
1.66092
1.65597
1.65341
1.65142
1.64955
1.64817
1.64659
1.64281
1.63694
1.63106
1.62619
1.62345
1.62143
1.62144
1.62297
1.62194
1.61627
1.60868
1.59965
1.59055
1.58572
1.58529
1.58597
1.58892
1.59877
1.60785
1.60797
1.60554
1.59925
1.58665
1.5703
1.5594
1.5548
1.55257
1.55157
1.55352
1.56061
1.56643
1.56596
1.56415
1.56113
1.55525
1.54492
1.53531
1.53138
1.52983
1.52866
1.52833
1.53006
1.53314
1.53308
1.53057
1.52745
1.5231
1.51579
1.5066
1.50058
1.49815
1.497
1.49674
1.49882
1.50069
1.49969
1.4984
1.49677
1.49173
1.48288
1.47591
1.47253
1.47021
1.46765
1.46567
1.4662
1.46834
1.46773
1.46412
1.46031
1.45546
1.4484
1.44247
1.44096
1.44205
1.44719
1.45314
1.45834
1.46114
1.46068
1.45677
1.4471
1.43343
1.42131
1.41299
1.40767
1.40465
1.40351
1.40397
1.40689
1.41293
1.41654
1.41654
1.41633
1.4148
1.40942
1.40149
1.39622
1.3943
1.3929
1.39101
1.3902
1.39055
1.3915
1.3907
1.3869
1.38309
1.38001
1.37632
1.37134
1.36601
1.3623
1.36
1.35798
1.35499
1.34981
1.3423
1.33712
1.33543
1.33453
1.33399
1.33383
1.33476
1.33852
1.3446
1.35072
1.35346
1.35311
1.35113
1.34735
1.34174
1.33441
1.32486
1.31601
1.31169
1.30995
1.30957
1.31015
1.31323
1.31663
1.317
1.35781
1.35929
1.36182
1.36579
1.36917
1.36996
1.36873
1.3647
1.35905
1.35121
1.33926
1.325
1.31962
1.31935
1.32045
1.32363
1.32817
1.33497
1.34358
1.35033
1.35224
1.35222
1.35158
1.34818
1.34221
1.33558
1.32996
1.32445
1.31715
1.30768
1.30037
1.29813
1.29838
1.30172
1.30671
1.31033
1.31449
1.31859
1.32176
1.32409
1.32552
1.32573
1.32409
1.3167
1.30826
1.30627
1.30644
1.30682
1.30848
1.31326
1.3171
1.31669
1.31268
1.30691
1.30242
1.29811
1.29172
1.28343
1.28068
1.2823
1.28697
1.29338
1.30196
1.30844
1.31171
1.32
1.35259
1.43805
1.54612
1.6389
1.69424
1.71527
1.73776
1.76238
1.7795
1.78015
1.78048
1.77777
1.76631
1.74968
1.73554
1.72642
1.72005
1.7164
1.71892
1.73183
1.74072
1.7403
1.73697
1.73212
1.7211
1.70573
1.69713
1.69348
1.6902
1.68699
1.68682
1.689
1.69159
1.69036
1.68682
1.68314
1.67817
1.67088
1.66388
1.65908
1.65619
1.65423
1.6516
1.65007
1.64813
1.64355
1.63737
1.63224
1.63016
1.6297
1.62873
1.62887
1.63047
1.62964
1.62334
1.61404
1.60302
1.5919
1.58785
1.58777
1.58847
1.59157
1.59996
1.60908
1.6109
1.6091
1.60346
1.59103
1.5728
1.56192
1.55832
1.55717
1.55715
1.55902
1.56517
1.57036
1.56984
1.56765
1.56383
1.55709
1.54756
1.53917
1.53412
1.53197
1.5307
1.53029
1.53222
1.53547
1.5355
1.53296
1.53014
1.52595
1.51871
1.5096
1.50343
1.50081
1.4995
1.49882
1.49978
1.5017
1.50116
1.49994
1.49807
1.49349
1.48507
1.4773
1.47443
1.4731
1.47183
1.47161
1.47281
1.47444
1.47282
1.46785
1.46219
1.45515
1.44567
1.4362
1.43248
1.43208
1.43391
1.44196
1.45483
1.4645
1.46753
1.46713
1.46468
1.45616
1.43636
1.41685
1.40815
1.4046
1.40208
1.40093
1.40219
1.40931
1.41655
1.4172
1.41751
1.41744
1.41357
1.40331
1.3962
1.39415
1.39303
1.3915
1.39097
1.39179
1.39398
1.39425
1.39097
1.38629
1.38264
1.37882
1.37321
1.36679
1.36267
1.36076
1.35992
1.35911
1.35774
1.35541
1.35103
1.3436
1.33697
1.33451
1.33352
1.33321
1.33336
1.33445
1.33637
1.33883
1.34209
1.34478
1.34509
1.34381
1.34213
1.33952
1.33495
1.32787
1.31888
1.31253
1.31027
1.30923
1.30931
1.31186
1.31677
1.35968
1.36336
1.36774
1.37097
1.37185
1.37112
1.36818
1.36329
1.35573
1.34386
1.32884
1.32178
1.32099
1.32174
1.32419
1.329
1.33751
1.34722
1.35382
1.35561
1.35565
1.35453
1.35005
1.3423
1.33491
1.33053
1.32684
1.32154
1.31364
1.30581
1.3024
1.30232
1.3045
1.30786
1.31062
1.31418
1.3178
1.32094
1.32348
1.32516
1.32564
1.3246
1.31832
1.30923
1.30647
1.30678
1.30757
1.30928
1.31378
1.31846
1.31881
1.31601
1.31055
1.30553
1.301
1.29496
1.28639
1.28229
1.28306
1.28685
1.29267
1.30153
1.31001
1.3232
1.36554
1.45972
1.56767
1.67678
1.7189
1.72006
1.73019
1.74907
1.77323
1.78124
1.78212
1.78181
1.77603
1.76446
1.74607
1.73185
1.72479
1.71784
1.71505
1.72068
1.73727
1.74579
1.74428
1.73924
1.73249
1.71819
1.70123
1.69508
1.69313
1.69084
1.68839
1.68822
1.69005
1.69231
1.69084
1.68802
1.68539
1.68185
1.67496
1.66745
1.66201
1.65874
1.65697
1.65473
1.65177
1.64886
1.6447
1.63776
1.63237
1.63151
1.63216
1.63271
1.63406
1.63639
1.63581
1.63032
1.62117
1.60916
1.59651
1.58999
1.58865
1.58877
1.59071
1.59897
1.61012
1.61286
1.61141
1.60698
1.59544
1.57831
1.56684
1.56128
1.5585
1.55719
1.55928
1.56687
1.57306
1.57281
1.57106
1.56826
1.56233
1.55133
1.54121
1.53672
1.53522
1.53405
1.53324
1.53407
1.53672
1.53713
1.53489
1.53204
1.52843
1.52242
1.51294
1.50545
1.50261
1.50131
1.50039
1.50101
1.50276
1.502
1.4997
1.49719
1.49303
1.48617
1.47878
1.47568
1.47479
1.47419
1.47456
1.47729
1.48071
1.48056
1.4766
1.47021
1.46114
1.44854
1.43498
1.42862
1.42729
1.42717
1.42992
1.43977
1.45811
1.46997
1.47062
1.46954
1.46685
1.45983
1.44249
1.41958
1.40818
1.40359
1.40054
1.39922
1.40196
1.41157
1.41815
1.41824
1.41806
1.41675
1.41037
1.4
1.39493
1.39388
1.39282
1.39118
1.3906
1.39256
1.39545
1.39461
1.39023
1.38594
1.38225
1.37673
1.3692
1.36389
1.3616
1.3604
1.35938
1.35924
1.35906
1.35766
1.35566
1.35205
1.34507
1.33705
1.33321
1.33183
1.33157
1.33134
1.33024
1.32932
1.32914
1.33152
1.33709
1.34102
1.3416
1.34103
1.33911
1.33597
1.33059
1.32189
1.31312
1.30927
1.30818
1.30802
1.30924
1.36515
1.36991
1.37253
1.37324
1.37288
1.37102
1.3671
1.36007
1.34847
1.33319
1.32495
1.32361
1.32406
1.32586
1.33108
1.34111
1.3517
1.35682
1.35788
1.35827
1.35704
1.35177
1.34208
1.33414
1.3308
1.32815
1.32429
1.31883
1.3121
1.30736
1.3069
1.30823
1.31
1.31197
1.31465
1.31735
1.32
1.32261
1.32452
1.32526
1.32464
1.31964
1.31036
1.3066
1.30684
1.30798
1.3098
1.31391
1.31933
1.32052
1.31884
1.31425
1.30908
1.30435
1.2984
1.28972
1.2841
1.28402
1.28676
1.29231
1.30186
1.32153
1.37036
1.47272
1.59712
1.70985
1.74912
1.74068
1.74048
1.74457
1.76056
1.77876
1.78253
1.78328
1.78233
1.77644
1.76173
1.74302
1.73169
1.72325
1.71713
1.71688
1.72606
1.74507
1.75357
1.7505
1.74357
1.73362
1.71649
1.70157
1.69498
1.6918
1.68929
1.68819
1.68903
1.69201
1.69371
1.69173
1.68899
1.68664
1.68354
1.67824
1.67213
1.66637
1.66279
1.66039
1.65651
1.65229
1.64816
1.64364
1.6386
1.63428
1.63252
1.63328
1.63499
1.63795
1.64122
1.64123
1.63636
1.62682
1.61505
1.60274
1.59494
1.59289
1.59269
1.59384
1.60085
1.6101
1.61133
1.61079
1.6076
1.59742
1.58172
1.57059
1.56553
1.56274
1.56145
1.56251
1.56824
1.57453
1.57462
1.57283
1.5703
1.56564
1.55701
1.54639
1.53992
1.53781
1.53643
1.53545
1.53612
1.53834
1.53822
1.53527
1.53175
1.52816
1.52341
1.51647
1.50913
1.50481
1.50321
1.50227
1.50254
1.50415
1.50383
1.50152
1.49888
1.49413
1.48623
1.47855
1.47617
1.47564
1.47536
1.47582
1.4792
1.48429
1.48553
1.48328
1.47871
1.47097
1.45801
1.44182
1.4316
1.42726
1.42611
1.42591
1.42902
1.44209
1.45738
1.46446
1.4672
1.4673
1.46537
1.45921
1.44771
1.43165
1.41514
1.40476
1.40068
1.4
1.40375
1.41261
1.41442
1.41398
1.41387
1.41226
1.40599
1.39904
1.39643
1.39502
1.39364
1.39248
1.39267
1.3948
1.39575
1.3939
1.38906
1.38466
1.38037
1.37408
1.36667
1.3626
1.36128
1.36036
1.36024
1.36058
1.35976
1.35842
1.35711
1.35544
1.35241
1.34654
1.33843
1.33262
1.32917
1.32677
1.32374
1.32098
1.32002
1.32043
1.3257
1.33601
1.34159
1.34268
1.34271
1.34153
1.33841
1.33325
1.32354
1.31236
1.3075
1.30656
1.30645
1.37257
1.37407
1.37444
1.37442
1.37338
1.3704
1.36409
1.35295
1.33775
1.32894
1.32705
1.32731
1.32866
1.33434
1.34557
1.35637
1.35982
1.3601
1.36028
1.35875
1.35294
1.34188
1.33362
1.33104
1.32907
1.32632
1.32256
1.31804
1.31344
1.31168
1.31229
1.31297
1.31429
1.31618
1.3178
1.31955
1.32186
1.3239
1.32481
1.32449
1.32067
1.31171
1.30677
1.30675
1.30801
1.31002
1.31368
1.31958
1.32193
1.32105
1.31762
1.31286
1.30809
1.30224
1.29363
1.28631
1.28555
1.28746
1.29352
1.31213
1.37093
1.48772
1.60748
1.71616
1.76971
1.77699
1.77105
1.75989
1.75624
1.7629
1.77557
1.7788
1.77958
1.78037
1.77751
1.76353
1.74638
1.73505
1.72677
1.72278
1.72352
1.73387
1.75199
1.75881
1.75562
1.74913
1.73785
1.71758
1.70141
1.69573
1.69351
1.69154
1.69094
1.69173
1.69464
1.69532
1.69287
1.69069
1.68896
1.68617
1.6805
1.67396
1.66968
1.6664
1.66403
1.66156
1.65698
1.65218
1.64627
1.63833
1.63348
1.63313
1.63503
1.63769
1.64068
1.64489
1.64577
1.64211
1.6333
1.62084
1.60648
1.59877
1.59698
1.5966
1.59781
1.60464
1.61331
1.6149
1.61428
1.61086
1.60029
1.58324
1.57232
1.56741
1.56469
1.56347
1.56435
1.5694
1.57513
1.57522
1.57359
1.57155
1.56735
1.55961
1.54991
1.54426
1.54229
1.541
1.5397
1.53945
1.54079
1.54084
1.53774
1.5338
1.53053
1.5257
1.51786
1.50975
1.50657
1.50543
1.50437
1.50429
1.50573
1.50562
1.50337
1.50066
1.49621
1.48884
1.48074
1.47609
1.47498
1.47446
1.47459
1.47803
1.48459
1.48804
1.48688
1.48371
1.47848
1.46948
1.45478
1.43959
1.43131
1.42831
1.42711
1.42735
1.43152
1.44098
1.44839
1.45154
1.45395
1.45582
1.45548
1.45289
1.44755
1.44001
1.43086
1.42009
1.41059
1.40579
1.40488
1.40478
1.40636
1.40644
1.40582
1.40405
1.40047
1.39874
1.39864
1.39794
1.39662
1.39553
1.3957
1.39639
1.39636
1.39439
1.38958
1.38437
1.37848
1.37165
1.36557
1.36284
1.36157
1.36057
1.35965
1.35916
1.35915
1.35861
1.35771
1.35675
1.35533
1.35293
1.34779
1.33856
1.32878
1.32142
1.31651
1.31378
1.31292
1.31283
1.31537
1.3262
1.34107
1.34598
1.3465
1.34574
1.34353
1.3403
1.33438
1.32214
1.30983
1.30578
1.30537
1.376
1.37603
1.37612
1.37554
1.3733
1.36775
1.35714
1.34242
1.33348
1.33118
1.33129
1.33257
1.33868
1.35065
1.36072
1.36278
1.36256
1.36227
1.35997
1.35354
1.34167
1.33338
1.33139
1.33009
1.32833
1.32569
1.32272
1.31986
1.31791
1.31687
1.31676
1.31742
1.31858
1.31915
1.31995
1.32174
1.32372
1.32469
1.32457
1.3217
1.31341
1.30729
1.30665
1.30776
1.30986
1.31318
1.319
1.32295
1.32272
1.3204
1.31647
1.31212
1.30641
1.29813
1.28947
1.28824
1.29085
1.30559
1.36432
1.4764
1.62117
1.71964
1.77628
1.79908
1.79427
1.77254
1.76258
1.75828
1.76052
1.77299
1.77596
1.77658
1.77775
1.77443
1.76097
1.74402
1.73642
1.73269
1.72923
1.73058
1.7423
1.75966
1.764
1.7592
1.75175
1.73941
1.7201
1.70526
1.69821
1.69461
1.69207
1.69162
1.69321
1.6967
1.69722
1.69525
1.69426
1.69311
1.68999
1.6838
1.67779
1.6732
1.66906
1.66579
1.66426
1.66061
1.65514
1.64951
1.64279
1.63697
1.63466
1.63558
1.63814
1.64243
1.64715
1.64735
1.6441
1.63678
1.6253
1.61238
1.60313
1.59894
1.59785
1.59903
1.60639
1.61596
1.61781
1.61763
1.6152
1.6052
1.58823
1.57686
1.57087
1.5672
1.56468
1.5651
1.56984
1.57674
1.57745
1.57525
1.57268
1.56929
1.56246
1.55184
1.54587
1.54417
1.54304
1.54191
1.54181
1.54286
1.54292
1.54019
1.53646
1.53307
1.5283
1.52109
1.51281
1.50721
1.5053
1.50427
1.50433
1.50631
1.50668
1.50462
1.50193
1.49778
1.49109
1.48317
1.47826
1.4768
1.47591
1.47559
1.47728
1.48342
1.48815
1.48751
1.48558
1.48216
1.47535
1.46383
1.45132
1.44298
1.43841
1.43568
1.434
1.43421
1.43694
1.44131
1.44289
1.44235
1.4421
1.44176
1.44149
1.44255
1.44268
1.4407
1.43717
1.43309
1.42684
1.41787
1.40779
1.40165
1.39983
1.39887
1.39595
1.39427
1.3951
1.39807
1.39946
1.39985
1.39976
1.39923
1.39891
1.39814
1.39488
1.39043
1.38611
1.3816
1.37606
1.37018
1.36632
1.36374
1.36214
1.36089
1.35965
1.35854
1.35773
1.35776
1.35868
1.35858
1.35739
1.35593
1.35333
1.34603
1.33142
1.31699
1.31045
1.30854
1.30807
1.30804
1.30882
1.31521
1.33219
1.34734
1.34936
1.34898
1.34735
1.34496
1.34144
1.33412
1.3197
1.30833
1.30554
1.37835
1.37833
1.37787
1.37607
1.3712
1.36109
1.34696
1.33833
1.33586
1.33589
1.3373
1.34393
1.35618
1.36492
1.36586
1.36527
1.36419
1.36123
1.3542
1.3417
1.3334
1.33191
1.33128
1.3304
1.32875
1.32695
1.32544
1.32442
1.32301
1.32114
1.32104
1.32116
1.32107
1.32121
1.32239
1.32427
1.32523
1.32523
1.32305
1.31563
1.30847
1.30691
1.30759
1.30951
1.31249
1.31777
1.32325
1.32384
1.32251
1.31959
1.31598
1.31093
1.30339
1.29414
1.29405
1.30607
1.36376
1.47451
1.61317
1.71519
1.78864
1.80804
1.80661
1.79302
1.77591
1.76084
1.75604
1.76117
1.77546
1.78074
1.77922
1.77771
1.7728
1.75649
1.73926
1.73374
1.73028
1.72915
1.73422
1.74984
1.76503
1.76724
1.76264
1.75512
1.74103
1.71979
1.70637
1.7013
1.69836
1.69551
1.69456
1.69527
1.69823
1.69908
1.69776
1.69727
1.69661
1.69412
1.68801
1.68115
1.67656
1.6733
1.67009
1.6661
1.66051
1.65518
1.65033
1.64464
1.63912
1.63723
1.63831
1.64089
1.64477
1.64976
1.65075
1.64876
1.64207
1.62943
1.61419
1.60594
1.6029
1.60159
1.60251
1.60912
1.61816
1.61996
1.62004
1.6183
1.61005
1.59453
1.58149
1.57488
1.57156
1.5687
1.56806
1.57031
1.5752
1.57566
1.5732
1.57052
1.56766
1.56292
1.55516
1.54805
1.54553
1.54452
1.54366
1.5439
1.54578
1.54622
1.54358
1.53949
1.53536
1.53031
1.52352
1.51606
1.51006
1.5077
1.5065
1.50581
1.50661
1.50778
1.50638
1.50395
1.50031
1.49385
1.48501
1.47936
1.47786
1.47726
1.47689
1.47784
1.48262
1.48748
1.48738
1.48554
1.48221
1.47651
1.46663
1.45495
1.44809
1.4452
1.44247
1.44118
1.44201
1.44215
1.44041
1.43897
1.43751
1.43534
1.43214
1.42985
1.42923
1.43115
1.43621
1.43954
1.44047
1.44037
1.4374
1.4296
1.4178
1.40334
1.39325
1.38836
1.3863
1.38631
1.38785
1.39273
1.39914
1.4027
1.40392
1.40385
1.40237
1.39869
1.39343
1.38821
1.38344
1.37841
1.37389
1.37063
1.36809
1.36505
1.36206
1.36005
1.35868
1.35771
1.35717
1.35759
1.35915
1.36038
1.35984
1.35843
1.35641
1.35068
1.33468
1.31514
1.30751
1.3062
1.30595
1.30602
1.30642
1.30937
1.31957
1.33838
1.35047
1.35092
1.34988
1.34804
1.34558
1.34146
1.33258
1.31774
1.30807
1.38124
1.38077
1.37916
1.37468
1.36494
1.35136
1.34334
1.34095
1.34099
1.34266
1.34979
1.36194
1.36909
1.36923
1.36803
1.36624
1.36278
1.3553
1.34233
1.33406
1.33276
1.33281
1.33275
1.33206
1.3312
1.33072
1.33049
1.32914
1.32631
1.3248
1.324
1.32329
1.32309
1.32379
1.32552
1.32646
1.32652
1.32492
1.31844
1.31036
1.3078
1.30798
1.30932
1.31187
1.31635
1.32262
1.32462
1.3239
1.32205
1.31939
1.31603
1.30836
1.30265
1.31397
1.36891
1.47825
1.61468
1.71301
1.78422
1.81195
1.81084
1.80211
1.79092
1.77834
1.76896
1.76697
1.77176
1.78352
1.78582
1.78345
1.78132
1.77429
1.75737
1.74182
1.73376
1.73084
1.73157
1.74042
1.76022
1.77432
1.77321
1.7665
1.75655
1.73959
1.72049
1.71027
1.70432
1.70056
1.6979
1.69731
1.69806
1.7006
1.70066
1.69915
1.69891
1.69864
1.69712
1.69226
1.68495
1.67965
1.67659
1.67388
1.6708
1.66524
1.659
1.65249
1.64553
1.64063
1.63851
1.63909
1.64128
1.6459
1.65113
1.65146
1.65025
1.64482
1.63356
1.61983
1.61013
1.60476
1.60235
1.60275
1.60936
1.61921
1.6214
1.62177
1.62066
1.61412
1.59965
1.58685
1.5805
1.5768
1.57345
1.57185
1.57275
1.57636
1.57691
1.57382
1.57045
1.56701
1.56178
1.55353
1.54789
1.54682
1.54605
1.54527
1.54512
1.5468
1.54854
1.54731
1.54393
1.54034
1.53594
1.52841
1.51845
1.51207
1.50984
1.50858
1.50782
1.50829
1.50824
1.50607
1.50373
1.50069
1.49562
1.48822
1.48189
1.47956
1.47827
1.4776
1.47826
1.48296
1.48779
1.4874
1.48545
1.48277
1.47743
1.46832
1.45793
1.45106
1.44814
1.44707
1.44766
1.44999
1.45104
1.44911
1.44498
1.43964
1.4332
1.42662
1.42248
1.4214
1.42125
1.42282
1.42961
1.43885
1.44478
1.44546
1.44257
1.43578
1.42635
1.40902
1.38935
1.38169
1.38087
1.38133
1.38322
1.38855
1.39736
1.40413
1.4057
1.40535
1.40396
1.40039
1.39412
1.38652
1.38028
1.37571
1.37265
1.37098
1.3693
1.3673
1.36455
1.36111
1.35858
1.3572
1.35618
1.35591
1.35869
1.36181
1.36114
1.35944
1.35732
1.35279
1.33887
1.31685
1.30741
1.306
1.30574
1.30579
1.30624
1.30813
1.3133
1.32409
1.34055
1.35148
1.35224
1.35059
1.34828
1.3453
1.34037
1.33143
1.31795
1.38437
1.38281
1.37844
1.3688
1.35577
1.34843
1.34631
1.34644
1.34852
1.35609
1.36777
1.37337
1.37292
1.37113
1.36867
1.36475
1.35707
1.34386
1.33541
1.33418
1.33459
1.33554
1.33558
1.33566
1.33598
1.33621
1.33499
1.33141
1.3287
1.32709
1.32575
1.32528
1.32575
1.32737
1.32829
1.32835
1.32728
1.32198
1.31306
1.30928
1.30908
1.30971
1.31157
1.31513
1.32143
1.32504
1.32489
1.32371
1.32281
1.32011
1.31651
1.33095
1.38251
1.49278
1.61468
1.72344
1.77982
1.7975
1.80976
1.81158
1.80872
1.79667
1.78124
1.77592
1.77502
1.77977
1.78918
1.78948
1.78744
1.78417
1.77477
1.75779
1.74321
1.7376
1.73689
1.7384
1.74852
1.7676
1.77969
1.77839
1.77221
1.76101
1.74073
1.72037
1.71188
1.70802
1.70519
1.70259
1.70193
1.7026
1.70415
1.70319
1.70201
1.702
1.70184
1.70033
1.69575
1.68827
1.68267
1.67938
1.67626
1.67314
1.66884
1.66309
1.65617
1.6483
1.64258
1.63994
1.64015
1.64193
1.64739
1.65294
1.65343
1.65282
1.64787
1.63648
1.62283
1.61369
1.60886
1.60602
1.6059
1.61078
1.6193
1.62107
1.62138
1.62028
1.61498
1.60237
1.59055
1.58495
1.58217
1.57927
1.57726
1.57735
1.57817
1.57695
1.57272
1.56893
1.56582
1.56113
1.5533
1.54722
1.54492
1.54441
1.54403
1.54463
1.54731
1.54981
1.54958
1.54664
1.54316
1.53971
1.53432
1.52575
1.51646
1.51156
1.50997
1.50885
1.50871
1.50902
1.50757
1.50505
1.50138
1.49572
1.48777
1.4827
1.48118
1.48042
1.48017
1.48107
1.48547
1.49002
1.48978
1.48793
1.48514
1.47911
1.46915
1.4585
1.45323
1.45085
1.44966
1.45
1.45332
1.4571
1.45659
1.45417
1.45021
1.44153
1.42849
1.41968
1.41769
1.41752
1.41762
1.41894
1.4252
1.43931
1.44841
1.44884
1.44377
1.43627
1.42836
1.41552
1.39454
1.38155
1.37944
1.3796
1.38102
1.38584
1.39754
1.40527
1.40576
1.40517
1.40387
1.40094
1.39484
1.38526
1.37799
1.3744
1.37237
1.37071
1.36932
1.36799
1.36635
1.36382
1.36047
1.35795
1.35667
1.35623
1.35678
1.35879
1.35942
1.35842
1.35666
1.35305
1.34413
1.32647
1.31095
1.30719
1.30677
1.30678
1.30729
1.30896
1.31241
1.31741
1.32557
1.33775
1.34747
1.34924
1.34819
1.34642
1.34417
1.3401
1.33301
1.38694
1.38254
1.37288
1.36015
1.35348
1.35178
1.35207
1.35464
1.36261
1.3736
1.37781
1.37694
1.3747
1.37169
1.36734
1.3596
1.34633
1.3374
1.33615
1.33691
1.3384
1.33917
1.34021
1.34133
1.34168
1.34027
1.3365
1.33305
1.33042
1.32827
1.3276
1.32809
1.32975
1.33058
1.33063
1.33
1.32599
1.31695
1.31128
1.31069
1.31085
1.31183
1.31452
1.31999
1.32515
1.32555
1.32545
1.32539
1.3277
1.34817
1.40379
1.51756
1.63402
1.73157
1.76817
1.79419
1.81156
1.81834
1.81831
1.81393
1.80233
1.7876
1.77917
1.77666
1.7791
1.78973
1.79411
1.79201
1.787
1.77563
1.75553
1.74312
1.73994
1.73956
1.74334
1.75756
1.77728
1.7846
1.78107
1.77408
1.76226
1.74222
1.72363
1.71515
1.71054
1.70765
1.70561
1.70516
1.70577
1.70741
1.70633
1.70415
1.70356
1.70321
1.70209
1.69858
1.6917
1.68529
1.6819
1.67957
1.67662
1.67141
1.66498
1.65827
1.65157
1.64584
1.64232
1.64203
1.64241
1.64603
1.65258
1.65393
1.65374
1.6504
1.64024
1.62618
1.61668
1.61135
1.6081
1.60763
1.61117
1.61948
1.62226
1.62142
1.61866
1.61266
1.60183
1.59212
1.58811
1.58639
1.58439
1.58339
1.58346
1.58346
1.5802
1.57482
1.57032
1.56634
1.56129
1.55407
1.54761
1.54473
1.5441
1.54361
1.54377
1.54648
1.54993
1.55063
1.54877
1.5458
1.54272
1.53774
1.53035
1.52249
1.51751
1.51561
1.5142
1.51271
1.51078
1.5081
1.50513
1.50116
1.49561
1.48843
1.48291
1.48039
1.47946
1.47878
1.47999
1.48589
1.49228
1.49283
1.49147
1.4889
1.48271
1.47179
1.46054
1.45496
1.45234
1.45053
1.45045
1.45359
1.45888
1.45993
1.45813
1.45571
1.45222
1.44344
1.4286
1.41916
1.41711
1.41703
1.41711
1.41864
1.42362
1.42993
1.43553
1.43891
1.43921
1.43479
1.42698
1.41802
1.40594
1.39049
1.38138
1.38032
1.38117
1.38442
1.39157
1.40089
1.40514
1.40582
1.40487
1.40175
1.39484
1.38457
1.37754
1.37479
1.3727
1.3706
1.36875
1.36739
1.36648
1.36522
1.36344
1.36146
1.35977
1.35799
1.35632
1.35519
1.35477
1.35392
1.35247
1.35015
1.34544
1.33697
1.32478
1.31337
1.30939
1.30915
1.30965
1.31099
1.31278
1.31542
1.31932
1.32558
1.33573
1.34588
1.34854
1.34779
1.34626
1.34473
1.34216
1.38684
1.37703
1.36447
1.35851
1.35718
1.35769
1.36079
1.36911
1.37922
1.3823
1.38126
1.37881
1.37533
1.37063
1.363
1.34974
1.34001
1.33856
1.33948
1.34135
1.34279
1.34473
1.34666
1.34703
1.34514
1.34113
1.3377
1.33447
1.33133
1.33034
1.33078
1.33238
1.33322
1.3332
1.33272
1.32987
1.32186
1.31406
1.31259
1.31255
1.31286
1.31455
1.31889
1.32468
1.32679
1.32763
1.33358
1.35953
1.43212
1.5523
1.65892
1.73086
1.7745
1.80576
1.81963
1.82333
1.82318
1.81961
1.81277
1.80296
1.7913
1.78313
1.78156
1.78348
1.79287
1.79932
1.79745
1.79229
1.77949
1.7592
1.74628
1.7416
1.74133
1.74676
1.76354
1.78271
1.78798
1.78472
1.77789
1.76432
1.74326
1.72645
1.7184
1.71412
1.71147
1.7097
1.70884
1.70899
1.70976
1.70804
1.70576
1.7054
1.70529
1.70455
1.7016
1.69519
1.68832
1.68458
1.68207
1.67872
1.6739
1.6679
1.66115
1.65349
1.64737
1.64433
1.64379
1.64386
1.64643
1.65063
1.65171
1.65183
1.64872
1.64018
1.62915
1.62085
1.61554
1.61185
1.61105
1.61382
1.62068
1.62197
1.62056
1.6178
1.61127
1.59872
1.58984
1.58751
1.58674
1.58629
1.58668
1.58817
1.58895
1.58649
1.5811
1.57553
1.56951
1.56266
1.55467
1.54793
1.54452
1.54372
1.54335
1.54337
1.54529
1.5492
1.55164
1.55106
1.54837
1.54453
1.5396
1.53286
1.52537
1.52086
1.51961
1.51881
1.5176
1.51561
1.51276
1.50915
1.50344
1.49605
1.48817
1.48327
1.48139
1.48018
1.47941
1.48029
1.48558
1.49311
1.49513
1.49415
1.49263
1.4882
1.47757
1.46473
1.45754
1.4542
1.45219
1.45139
1.45278
1.45879
1.46168
1.45996
1.45712
1.4547
1.45137
1.4447
1.43352
1.42441
1.42081
1.41973
1.41941
1.42063
1.42457
1.42578
1.42468
1.42359
1.42431
1.42478
1.42182
1.4166
1.41173
1.40636
1.39806
1.38897
1.38603
1.38647
1.39014
1.39592
1.40075
1.40192
1.40126
1.39854
1.39256
1.38408
1.37864
1.37599
1.37385
1.37165
1.36927
1.3675
1.3663
1.3655
1.36484
1.36393
1.36256
1.36037
1.35722
1.35372
1.35128
1.34959
1.34784
1.34584
1.3436
1.34052
1.33621
1.32926
1.31907
1.31266
1.31181
1.31211
1.31326
1.31554
1.31861
1.32143
1.32561
1.33431
1.34542
1.34886
1.34815
1.34716
1.34665
1.381
1.36869
1.3633
1.36229
1.36297
1.36658
1.37527
1.38463
1.38675
1.38562
1.38327
1.3796
1.37468
1.36718
1.35415
1.34329
1.34132
1.34222
1.34425
1.34625
1.34919
1.35185
1.35224
1.34984
1.34574
1.34247
1.33902
1.33506
1.33365
1.33406
1.33551
1.33626
1.33613
1.33566
1.33367
1.32717
1.31795
1.31471
1.31454
1.31453
1.31524
1.31834
1.3246
1.32871
1.33709
1.36897
1.45871
1.5799
1.69062
1.74854
1.79068
1.81851
1.82635
1.82675
1.82525
1.82097
1.81635
1.8104
1.80251
1.795
1.79043
1.78959
1.79179
1.79992
1.80305
1.80016
1.795
1.78345
1.76478
1.75065
1.74684
1.74688
1.75256
1.76946
1.7876
1.79026
1.78655
1.779
1.76411
1.74328
1.72916
1.72247
1.71853
1.71543
1.71355
1.71207
1.71159
1.71181
1.71011
1.70736
1.70558
1.70429
1.70316
1.70161
1.69767
1.69066
1.68584
1.68359
1.68068
1.67652
1.67116
1.66465
1.65768
1.65121
1.64606
1.64453
1.64426
1.64617
1.65055
1.65114
1.65091
1.64762
1.63844
1.62695
1.62089
1.61785
1.61553
1.61519
1.618
1.62425
1.62571
1.62331
1.61851
1.61091
1.59954
1.59039
1.58638
1.58555
1.58475
1.58512
1.5886
1.5917
1.59109
1.58689
1.58248
1.57737
1.56874
1.55788
1.55029
1.54589
1.54431
1.54341
1.54297
1.54371
1.54721
1.54979
1.54899
1.54667
1.54342
1.53932
1.53438
1.52845
1.52334
1.52179
1.52124
1.52079
1.51953
1.51726
1.51354
1.50719
1.4985
1.48975
1.48403
1.48089
1.47975
1.47953
1.48037
1.48481
1.49276
1.49604
1.49533
1.4945
1.49166
1.48428
1.47201
1.46176
1.45746
1.45513
1.45322
1.45312
1.45626
1.45868
1.45717
1.45416
1.45231
1.45065
1.44772
1.44288
1.43776
1.43377
1.43021
1.42674
1.42474
1.42439
1.42429
1.4225
1.41784
1.41268
1.4104
1.41076
1.41277
1.41291
1.41176
1.41139
1.4103
1.40638
1.39857
1.39263
1.39184
1.39182
1.39269
1.3938
1.39378
1.39253
1.38921
1.38453
1.3801
1.37695
1.3748
1.37285
1.37067
1.3686
1.36732
1.3667
1.36609
1.36519
1.36406
1.36232
1.35909
1.35411
1.34934
1.34638
1.34423
1.34258
1.34159
1.34148
1.34096
1.33945
1.33524
1.3259
1.31705
1.31518
1.31543
1.31696
1.31862
1.31943
1.32018
1.32298
1.33211
1.34564
1.34992
1.34931
1.34924
1.37249
1.36757
1.36686
1.36769
1.37166
1.38072
1.38948
1.39096
1.38989
1.38783
1.38423
1.37934
1.37209
1.35947
1.34714
1.34436
1.34506
1.34705
1.34946
1.35324
1.35665
1.35711
1.35446
1.35046
1.34738
1.3441
1.3397
1.33761
1.33782
1.339
1.33993
1.33958
1.33895
1.33739
1.33235
1.32279
1.31742
1.31684
1.31648
1.31657
1.31918
1.32562
1.33839
1.37689
1.47536
1.60094
1.71662
1.77199
1.81266
1.83131
1.83084
1.83001
1.82774
1.82448
1.82044
1.81618
1.81184
1.80558
1.79977
1.79736
1.79753
1.80132
1.80668
1.80635
1.80288
1.79596
1.78289
1.76515
1.75492
1.75192
1.7516
1.75718
1.77293
1.78834
1.79098
1.7886
1.7819
1.7658
1.74452
1.73197
1.72525
1.72159
1.7197
1.71829
1.71666
1.71566
1.71503
1.71267
1.7101
1.70786
1.70569
1.70343
1.70086
1.69734
1.69204
1.68641
1.68348
1.68076
1.67725
1.67323
1.66864
1.66233
1.6548
1.65014
1.64837
1.64783
1.64914
1.64991
1.64999
1.64973
1.64605
1.63765
1.62827
1.62197
1.61817
1.61499
1.61443
1.61855
1.62609
1.62797
1.62592
1.62144
1.61361
1.60046
1.59031
1.58639
1.58569
1.5852
1.58546
1.58769
1.59127
1.59246
1.59025
1.58662
1.58302
1.57729
1.56725
1.55481
1.54782
1.54614
1.54514
1.54453
1.54463
1.54714
1.54952
1.5487
1.5465
1.54357
1.53979
1.53426
1.52836
1.52516
1.52361
1.52304
1.52296
1.52197
1.5206
1.51834
1.51247
1.50252
1.49291
1.48701
1.48354
1.48123
1.47954
1.47913
1.48235
1.49091
1.49526
1.49501
1.49468
1.49233
1.48643
1.47683
1.46846
1.46357
1.46082
1.45861
1.45672
1.45613
1.45555
1.45431
1.45189
1.44847
1.44582
1.44393
1.44144
1.43885
1.43886
1.43924
1.43909
1.43757
1.43322
1.4271
1.42149
1.41644
1.41053
1.40393
1.39923
1.39803
1.40018
1.40748
1.41222
1.41371
1.41445
1.41486
1.41358
1.40649
1.3953
1.39002
1.3881
1.38645
1.38437
1.38363
1.38443
1.38464
1.38153
1.37818
1.37542
1.37347
1.37168
1.36995
1.36889
1.36843
1.36768
1.3668
1.36571
1.36409
1.36108
1.35554
1.34876
1.3441
1.34152
1.34023
1.34028
1.34105
1.34259
1.34361
1.3437
1.34145
1.33307
1.32229
1.31887
1.31865
1.31848
1.31774
1.31701
1.31687
1.31971
1.33132
1.34768
1.35268
1.3527
1.37123
1.37069
1.37157
1.37582
1.38521
1.3936
1.3947
1.39382
1.3922
1.38895
1.38434
1.37751
1.36556
1.35178
1.34762
1.34795
1.34972
1.35236
1.35674
1.3607
1.36128
1.35888
1.35529
1.35234
1.34926
1.34493
1.34228
1.34219
1.34284
1.34393
1.34364
1.34272
1.34127
1.33721
1.32835
1.3209
1.31937
1.31875
1.31896
1.3219
1.33525
1.38561
1.48372
1.62303
1.7261
1.79581
1.83474
1.83173
1.83165
1.83221
1.82891
1.82762
1.82644
1.82281
1.81955
1.81635
1.81132
1.80552
1.80339
1.80383
1.80664
1.81189
1.81184
1.80838
1.79992
1.78365
1.76619
1.75712
1.75362
1.75404
1.76195
1.77868
1.79051
1.79041
1.78714
1.77934
1.76416
1.74707
1.73622
1.72949
1.72545
1.72248
1.72123
1.71983
1.71757
1.71667
1.71517
1.71282
1.71074
1.70862
1.70594
1.70242
1.6974
1.69078
1.68544
1.6826
1.68057
1.67788
1.67429
1.66987
1.66499
1.6595
1.65436
1.65158
1.65087
1.65188
1.65212
1.65148
1.64953
1.64433
1.63567
1.6271
1.62205
1.61967
1.61779
1.61768
1.6208
1.62725
1.62878
1.62685
1.62267
1.61597
1.60496
1.59414
1.58856
1.58691
1.58583
1.58528
1.58621
1.59019
1.59275
1.59178
1.58865
1.58514
1.581
1.57491
1.56536
1.55571
1.54997
1.54756
1.54647
1.54611
1.54712
1.54737
1.54619
1.544
1.54121
1.53796
1.53414
1.52969
1.52601
1.52376
1.52209
1.5225
1.52279
1.52176
1.52035
1.51684
1.50943
1.4985
1.4899
1.48591
1.48405
1.4825
1.48167
1.48326
1.48992
1.49597
1.49618
1.49441
1.49135
1.48591
1.47659
1.46999
1.46782
1.46641