/*--------------------------------*- C++ -*----------------------------------*\
  =========                 |
  \\      /  F ield         | OpenFOAM: The Open Source CFD Toolbox
   \\    /   O peration     | Website:  https://openfoam.org
    \\  /    A nd           | Version:  7
     \\/     M anipulation  |
\*---------------------------------------------------------------------------*/
FoamFile
{
    version     2.0;
    format      ascii;
    class       volScalarField;
    location    "3.8";
    object      T;
}
// * * * * * * * * * * * * * * * * * * * * * * * * * * * * * * * * * * * * * //

dimensions      [0 0 0 1 0 0 0];

internalField   nonuniform List<scalar> 
16192
(
1.5484
1.54567
1.54369
1.54257
1.54202
1.54197
1.54207
1.54268
1.54453
1.54621
1.54598
1.54435
1.54161
1.5364
1.52776
1.52179
1.52002
1.51946
1.51927
1.51958
1.52163
1.52704
1.53346
1.53546
1.53484
1.53314
1.52975
1.52187
1.51118
1.5069
1.50581
1.5054
1.5055
1.50651
1.51025
1.51689
1.52026
1.51982
1.51808
1.51508
1.50847
1.49713
1.49073
1.48944
1.48909
1.48903
1.48964
1.49226
1.49785
1.50474
1.50709
1.50621
1.50391
1.50006
1.49249
1.4811
1.47482
1.47282
1.47207
1.47152
1.47151
1.47395
1.48195
1.49019
1.49146
1.49094
1.48996
1.48663
1.47707
1.46552
1.46161
1.46065
1.46012
1.45974
1.46032
1.46472
1.47437
1.47936
1.47927
1.4786
1.47664
1.47085
1.46025
1.45451
1.45293
1.4526
1.45215
1.45309
1.45855
1.47448
1.51155
1.57145
1.64401
1.6986
1.73103
1.74011
1.74627
1.75079
1.75628
1.76165
1.76385
1.7632
1.76245
1.7612
1.7575
1.75165
1.74891
1.748
1.74765
1.74812
1.74858
1.74869
1.74896
1.74899
1.74859
1.74818
1.74795
1.74763
1.74635
1.74431
1.74191
1.73888
1.73643
1.73545
1.73522
1.73538
1.73674
1.74026
1.74147
1.74088
1.73927
1.73489
1.72955
1.72846
1.72888
1.7297
1.73192
1.7365
1.74076
1.7409
1.73925
1.73543
1.72826
1.72208
1.72036
1.71985
1.71985
1.72124
1.72528
1.72711
1.72629
1.72466
1.72059
1.71494
1.71326
1.7134
1.71381
1.71451
1.716
1.7187
1.72056
1.72021
1.71843
1.71515
1.71047
1.7076
1.70669
1.70659
1.70678
1.70882
1.71139
1.71203
1.7122
1.71221
1.71101
1.70798
1.70559
1.70438
1.70299
1.70063
1.69715
1.69442
1.69365
1.69345
1.69377
1.69573
1.699
1.70346
1.70614
1.70602
1.70431
1.70073
1.69336
1.68385
1.68003
1.67964
1.67976
1.68116
1.68529
1.69273
1.70056
1.70346
1.70324
1.70187
1.69835
1.68898
1.67656
1.67068
1.66885
1.66805
1.66792
1.66897
1.6732
1.68228
1.68868
1.68945
1.68871
1.68725
1.68425
1.67677
1.66674
1.66168
1.66012
1.65968
1.65969
1.66135
1.66736
1.67369
1.6761
1.67653
1.67597
1.67313
1.66606
1.65873
1.65595
1.65467
1.65393
1.65445
1.65786
1.66107
1.66121
1.66112
1.66029
1.65635
1.65133
1.65028
1.6505
1.65118
1.65294
1.65625
1.65821
1.65804
1.65677
1.54935
1.54769
1.54585
1.5436
1.54133
1.53969
1.53865
1.5381
1.53805
1.53922
1.5412
1.54159
1.54031
1.5378
1.53333
1.52585
1.51937
1.51732
1.51671
1.51661
1.51699
1.51851
1.52232
1.5281
1.53119
1.53099
1.52944
1.52623
1.5197
1.51012
1.50501
1.50366
1.50314
1.50306
1.50339
1.50573
1.51112
1.51495
1.51487
1.51356
1.5109
1.50537
1.49564
1.48919
1.48797
1.48763
1.48784
1.48884
1.49063
1.49415
1.49946
1.50193
1.50122
1.499
1.49524
1.48811
1.47737
1.47134
1.46962
1.46902
1.4687
1.46897
1.47158
1.47887
1.48696
1.4887
1.48814
1.4868
1.48309
1.47333
1.46178
1.45788
1.4569
1.45641
1.4561
1.45676
1.46149
1.47188
1.47741
1.47736
1.4766
1.47456
1.46854
1.45741
1.45118
1.44986
1.44934
1.44893
1.44915
1.45269
1.46233
1.4778
1.51442
1.57335
1.64506
1.69034
1.72757
1.74138
1.75159
1.75707
1.75912
1.75944
1.75944
1.7592
1.75646
1.75041
1.74582
1.74493
1.74481
1.74537
1.74689
1.74765
1.74722
1.7463
1.74536
1.74425
1.74274
1.74168
1.74153
1.74153
1.74051
1.73934
1.73753
1.73458
1.7325
1.73196
1.73202
1.73308
1.73685
1.73886
1.73833
1.7371
1.73319
1.72749
1.72552
1.72554
1.72601
1.72745
1.73099
1.73555
1.7364
1.73488
1.73185
1.72586
1.71955
1.71746
1.71678
1.7165
1.71765
1.72153
1.72357
1.72293
1.72162
1.71815
1.71249
1.7104
1.71056
1.71094
1.71122
1.71236
1.71493
1.71622
1.7158
1.71412
1.71084
1.70613
1.70348
1.70283
1.70284
1.7033
1.70648
1.71041
1.71101
1.71099
1.71058
1.70845
1.7043
1.70105
1.69933
1.69802
1.69674
1.69523
1.69391
1.69344
1.69369
1.69456
1.69501
1.69581
1.69796
1.69984
1.69949
1.69753
1.69405
1.68875
1.68249
1.67914
1.67873
1.67932
1.68179
1.68525
1.69031
1.69608
1.69809
1.6978
1.69581
1.69107
1.68206
1.67207
1.66775
1.667
1.66687
1.66784
1.67143
1.67693
1.68285
1.68601
1.68617
1.68521
1.68241
1.67719
1.66806
1.65965
1.65702
1.65648
1.65657
1.65769
1.66185
1.67084
1.67759
1.67825
1.67752
1.67574
1.67023
1.65923
1.65038
1.6472
1.64622
1.64612
1.64858
1.65478
1.65925
1.66073
1.66084
1.66021
1.6563
1.64966
1.64669
1.64628
1.64608
1.64675
1.65025
1.65342
1.65339
1.54834
1.54763
1.54688
1.54555
1.54292
1.53898
1.53598
1.53437
1.53369
1.5333
1.53377
1.53567
1.53683
1.53605
1.53416
1.53098
1.52517
1.51813
1.51509
1.51435
1.51423
1.51441
1.51514
1.51763
1.52278
1.52669
1.52688
1.5256
1.52311
1.51806
1.50931
1.50299
1.5011
1.50028
1.49968
1.49966
1.501
1.50552
1.50999
1.51036
1.50945
1.50766
1.50384
1.49604
1.48887
1.48702
1.48665
1.48665
1.48676
1.48725
1.48946
1.49425
1.49688
1.49622
1.49417
1.49086
1.48474
1.4748
1.4685
1.46693
1.46647
1.46633
1.46675
1.46911
1.47536
1.4829
1.48493
1.48446
1.48303
1.47922
1.46967
1.45843
1.45457
1.45356
1.45321
1.45314
1.45423
1.45952
1.46986
1.47547
1.47538
1.47413
1.47172
1.46528
1.45388
1.44787
1.44652
1.44607
1.44555
1.4455
1.44904
1.45734
1.4641
1.47644
1.51446
1.57687
1.64146
1.68886
1.72078
1.73743
1.74649
1.75362
1.75805
1.75908
1.75733
1.75233
1.74494
1.74168
1.74129
1.742
1.74454
1.74598
1.74567
1.74481
1.74354
1.74163
1.73974
1.73813
1.73688
1.73651
1.73694
1.73733
1.73678
1.73579
1.73279
1.7297
1.72898
1.72897
1.72998
1.7338
1.73615
1.73547
1.73432
1.73084
1.72472
1.72198
1.72184
1.72218
1.72299
1.72573
1.73058
1.73264
1.73162
1.72918
1.72369
1.71702
1.71442
1.71371
1.71352
1.71473
1.71892
1.72121
1.72069
1.71918
1.71535
1.7095
1.7072
1.70716
1.70745
1.70788
1.70888
1.71073
1.71149
1.711
1.7097
1.70707
1.70296
1.70027
1.69982
1.69995
1.7009
1.70386
1.70752
1.7084
1.70822
1.70751
1.70486
1.70018
1.697
1.69617
1.69591
1.69555
1.69481
1.69363
1.69248
1.69162
1.69095
1.69022
1.69011
1.69145
1.69312
1.69273
1.69165
1.69037
1.68723
1.68181
1.67905
1.67905
1.67967
1.68033
1.68153
1.68487
1.68931
1.69056
1.69012
1.68874
1.68552
1.67873
1.67099
1.66782
1.66752
1.6685
1.67065
1.67229
1.67463
1.6784
1.6803
1.67985
1.67825
1.67494
1.66996
1.66295
1.65692
1.6554
1.65535
1.65625
1.65962
1.66476
1.67125
1.67543
1.6756
1.67396
1.67025
1.66208
1.6504
1.64475
1.64353
1.64323
1.64428
1.6508
1.66033
1.66297
1.66296
1.66274
1.65977
1.65067
1.64207
1.63939
1.6386
1.63844
1.64054
1.646
1.64959
1.54774
1.54746
1.54656
1.54548
1.54387
1.54078
1.53583
1.53173
1.52962
1.52868
1.52813
1.5282
1.53014
1.53243
1.53217
1.53096
1.52883
1.52473
1.51788
1.51296
1.51145
1.51103
1.51078
1.51098
1.51263
1.51746
1.52224
1.52278
1.52198
1.52028
1.5164
1.50846
1.50064
1.49761
1.49653
1.49585
1.49558
1.49655
1.50084
1.50603
1.50668
1.50628
1.50544
1.50299
1.49638
1.48815
1.48503
1.48417
1.48363
1.48299
1.48289
1.48449
1.48921
1.49231
1.49183
1.49001
1.48719
1.48212
1.47309
1.46629
1.4646
1.46424
1.46408
1.46434
1.4662
1.47159
1.47873
1.48084
1.4804
1.47897
1.47538
1.46664
1.45576
1.45186
1.45097
1.45079
1.45105
1.45258
1.45745
1.46629
1.47178
1.47208
1.47091
1.4682
1.46139
1.45008
1.44453
1.44328
1.44289
1.44239
1.44272
1.44626
1.45481
1.45794
1.46054
1.474
1.50873
1.5755
1.64457
1.68713
1.70764
1.72823
1.74728
1.75482
1.75481
1.75272
1.74643
1.73998
1.73817
1.73793
1.73837
1.7396
1.74091
1.74171
1.7417
1.7412
1.7397
1.73675
1.7339
1.73271
1.73239
1.73285
1.73441
1.73429
1.73339
1.73065
1.72714
1.72605
1.72595
1.72664
1.72988
1.73286
1.73261
1.73131
1.72766
1.72135
1.71816
1.71787
1.71819
1.71877
1.72105
1.72592
1.72882
1.7281
1.72605
1.72147
1.71512
1.71182
1.71114
1.71132
1.7124
1.71523
1.71732
1.7168
1.7153
1.71205
1.70657
1.70389
1.70365
1.70379
1.70389
1.70436
1.70624
1.7071
1.70669
1.70582
1.70415
1.70087
1.69791
1.69755
1.69764
1.69792
1.69978
1.70315
1.7045
1.70423
1.70334
1.70133
1.69887
1.69703
1.69621
1.69571
1.6949
1.69309
1.69002
1.68743
1.68587
1.68473
1.68401
1.68402
1.68596
1.68944
1.6906
1.6905
1.68962
1.68696
1.68147
1.67662
1.67532
1.67487
1.67477
1.67501
1.67753
1.68274
1.68491
1.68474
1.68456
1.68364
1.67928
1.67203
1.6692
1.66897
1.66848
1.66789
1.66795
1.66938
1.67219
1.67281
1.67189
1.67073
1.66901
1.66607
1.66105
1.65686
1.65598
1.65636
1.65822
1.66042
1.66289
1.66685
1.66976
1.66957
1.66752
1.66287
1.65531
1.64674
1.64283
1.64237
1.64326
1.64731
1.65488
1.66058
1.66156
1.66096
1.65854
1.6517
1.6403
1.6345
1.63338
1.63328
1.6341
1.64065
1.64851
1.54192
1.54504
1.54505
1.54394
1.54271
1.54107
1.53793
1.53248
1.52736
1.5248
1.52367
1.52315
1.52326
1.52587
1.52928
1.5293
1.52833
1.52678
1.5235
1.51653
1.50984
1.50746
1.50674
1.50621
1.50597
1.50716
1.51261
1.51885
1.51963
1.51909
1.51765
1.51435
1.5066
1.4973
1.49351
1.49244
1.49186
1.49153
1.49242
1.49733
1.50395
1.50503
1.50489
1.5043
1.50222
1.49571
1.48596
1.48154
1.4804
1.47969
1.47892
1.47862
1.48002
1.48511
1.48851
1.48801
1.4864
1.48417
1.48
1.47154
1.46414
1.46204
1.46165
1.46143
1.46139
1.46268
1.46745
1.47443
1.47675
1.47636
1.47511
1.47214
1.46486
1.45447
1.44993
1.44909
1.44906
1.44948
1.45071
1.45445
1.46205
1.46756
1.46796
1.46692
1.46422
1.45737
1.44659
1.44169
1.44062
1.44017
1.4399
1.44047
1.44447
1.45107
1.45409
1.45308
1.45461
1.46939
1.50531
1.56925
1.63771
1.68128
1.7134
1.73902
1.74874
1.75018
1.74882
1.74431
1.73955
1.73662
1.73543
1.73425
1.7334
1.73388
1.736
1.73831
1.738
1.73655
1.73313
1.72923
1.72822
1.72809
1.72894
1.7311
1.73146
1.7309
1.72843
1.72452
1.72331
1.72325
1.72378
1.72632
1.72884
1.72875
1.72755
1.72426
1.71827
1.71445
1.71402
1.71425
1.71472
1.71649
1.72077
1.72455
1.72427
1.72298
1.71963
1.71387
1.70956
1.70833
1.70787
1.70803
1.71026
1.7133
1.71328
1.71206
1.70879
1.70303
1.70013
1.69974
1.69984
1.69999
1.70088
1.70362
1.70501
1.70462
1.70354
1.7016
1.69826
1.69474
1.69315
1.69296
1.69299
1.69418
1.69756
1.70059
1.70095
1.70103
1.70082
1.69968
1.69768
1.6957
1.69386
1.69126
1.68743
1.68385
1.68182
1.68085
1.68034
1.68011
1.68091
1.68524
1.69037
1.69095
1.69018
1.68869
1.6845
1.67642
1.67032
1.66853
1.66828
1.66836
1.66956
1.67439
1.68087
1.68369
1.68519
1.68545
1.68439
1.67967
1.67144
1.66637
1.66457
1.66331
1.66226
1.6617
1.66233
1.66531
1.66724
1.66687
1.66666
1.66633
1.66535
1.66233
1.65779
1.65659
1.65668
1.65662
1.65662
1.65761
1.66057
1.6625
1.66192
1.66028
1.65765
1.6526
1.64647
1.64389
1.64389
1.64556
1.6487
1.65321
1.65628
1.6564
1.65522
1.65078
1.64307
1.63449
1.63139
1.63126
1.632
1.63639
1.64655
1.5348
1.53655
1.53992
1.54134
1.54068
1.53944
1.53779
1.53464
1.52914
1.52351
1.5207
1.51945
1.51906
1.51954
1.52302
1.52722
1.52756
1.52631
1.52438
1.52072
1.51328
1.50547
1.50256
1.50167
1.50118
1.50099
1.5025
1.50901
1.51601
1.51681
1.51627
1.51476
1.51151
1.50343
1.4933
1.48946
1.48848
1.48806
1.48787
1.48916
1.49552
1.50291
1.50375
1.50345
1.50263
1.50012
1.49281
1.48221
1.47762
1.47643
1.47569
1.47486
1.47455
1.47626
1.48238
1.48609
1.48554
1.48398
1.48187
1.47784
1.46915
1.46121
1.4589
1.45847
1.45818
1.45807
1.45899
1.46339
1.47048
1.47302
1.4727
1.47174
1.46951
1.46379
1.45401
1.44847
1.44743
1.44727
1.44724
1.44774
1.45061
1.45756
1.46317
1.46368
1.46279
1.46036
1.45417
1.44412
1.43942
1.43851
1.43812
1.43806
1.43875
1.44171
1.44727
1.44907
1.44899
1.44651
1.44672
1.46007
1.50285
1.57051
1.6365
1.68558
1.72049
1.74147
1.74556
1.74651
1.74511
1.74177
1.73845
1.73389
1.72948
1.72868
1.72876
1.73043
1.73351
1.73379
1.73173
1.72745
1.72504
1.72478
1.72518
1.72791
1.72981
1.72981
1.72919
1.72623
1.7217
1.71988
1.71945
1.71964
1.72168
1.72433
1.72448
1.72344
1.72115
1.71669
1.7118
1.71046
1.71049
1.71093
1.71227
1.71648
1.72164
1.72217
1.72071
1.71701
1.71048
1.7056
1.70445
1.7042
1.70441
1.70681
1.70979
1.70984
1.70865
1.7053
1.69955
1.69674
1.6965
1.69665
1.69729
1.69878
1.70063
1.70119
1.70098
1.7002
1.69797
1.6937
1.68988
1.68837
1.68818
1.68821
1.68975
1.695
1.69948
1.70016
1.70041
1.70036
1.69906
1.69602
1.69252
1.68916
1.6852
1.6811
1.6788
1.67801
1.67765
1.6775
1.67811
1.68011
1.6843
1.68777
1.68793
1.68679
1.68441
1.67871
1.67019
1.66584
1.66502
1.66505
1.666
1.66914
1.67599
1.68389
1.68588
1.68567
1.68502
1.68234
1.67461
1.66425
1.65909
1.65732
1.65627
1.65564
1.65581
1.65854
1.66377
1.66618
1.6672
1.66825
1.66827
1.66683
1.662
1.6557
1.6527
1.65141
1.65035
1.64979
1.65012
1.65299
1.65654
1.65733
1.65692
1.656
1.65318
1.64782
1.64484
1.64471
1.64473
1.64558
1.64783
1.64858
1.64808
1.64672
1.64428
1.63979
1.63425
1.63221
1.63228
1.63492
1.64138
1.53037
1.53004
1.53093
1.53405
1.53692
1.53698
1.53587
1.53427
1.53159
1.52669
1.52078
1.51787
1.51677
1.51652
1.51723
1.51989
1.52315
1.52383
1.52274
1.52043
1.51632
1.50867
1.50102
1.49833
1.49744
1.49708
1.49708
1.49942
1.50689
1.51407
1.51481
1.51383
1.51195
1.5081
1.49902
1.48884
1.48559
1.48498
1.4848
1.48479
1.48696
1.49439
1.50136
1.50183
1.50122
1.49996
1.49675
1.48845
1.47779
1.47373
1.47267
1.47202
1.47132
1.47124
1.4739
1.48085
1.48403
1.48324
1.48149
1.47921
1.47485
1.4657
1.45776
1.45556
1.45515
1.45485
1.45471
1.45551
1.45991
1.46723
1.47001
1.46988
1.4692
1.46756
1.46281
1.45308
1.44633
1.44467
1.4442
1.44384
1.44408
1.44643
1.45303
1.459
1.45975
1.45913
1.45737
1.45228
1.44293
1.43773
1.43664
1.4361
1.43574
1.4359
1.43811
1.4428
1.44479
1.44392
1.44324
1.4384
1.43843
1.4545
1.50813
1.5779
1.64236
1.69119
1.72361
1.73806
1.74071
1.74108
1.74084
1.73813
1.73194
1.72563
1.72461
1.72468
1.72648
1.72837
1.72821
1.7264
1.72304
1.722
1.72234
1.7252
1.72859
1.72889
1.72851
1.72694
1.7222
1.71744
1.71595
1.71536
1.71527
1.71685
1.71971
1.72029
1.71988
1.71866
1.71547
1.71035
1.70746
1.70728
1.70777
1.70933
1.7127
1.71715
1.71821
1.71652
1.7129
1.70696
1.70211
1.70115
1.70114
1.70145
1.70341
1.70573
1.70582
1.70491
1.70237
1.69756
1.69458
1.69442
1.69475
1.69517
1.69607
1.69716
1.69738
1.69703
1.69594
1.69351
1.68914
1.68536
1.68447
1.68451
1.68491
1.68713
1.69272
1.69774
1.69821
1.69828
1.69796
1.69621
1.69249
1.68812
1.68403
1.67988
1.67738
1.67671
1.67639
1.67636
1.67634
1.67639
1.67734
1.68027
1.68284
1.68279
1.68169
1.67912
1.67405
1.66743
1.66407
1.66371
1.6641
1.66646
1.67092
1.67665
1.68108
1.68197
1.68182
1.68022
1.67556
1.66636
1.65767
1.6546
1.65341
1.65293
1.65309
1.65497
1.65988
1.66663
1.66908
1.66904
1.66852
1.66706
1.66314
1.65507
1.64758
1.64439
1.64324
1.64269
1.64263
1.64497
1.65171
1.65679
1.65851
1.65876
1.65767
1.65401
1.64706
1.64173
1.63976
1.63868
1.63811
1.63884
1.64136
1.64202
1.64185
1.64135
1.6391
1.63536
1.63419
1.63508
1.63712
1.5266
1.5255
1.52484
1.52506
1.52736
1.53149
1.53305
1.53246
1.53151
1.52976
1.52625
1.52054
1.51624
1.51485
1.51439
1.51455
1.51581
1.51783
1.51854
1.51773
1.51551
1.51157
1.50464
1.49772
1.49524
1.49442
1.49422
1.49506
1.49865
1.50524
1.51084
1.51197
1.51087
1.50831
1.50342
1.4937
1.48483
1.48264
1.48226
1.48222
1.48261
1.48577
1.49285
1.49865
1.49926
1.49837
1.49635
1.49234
1.48348
1.47345
1.47023
1.46944
1.4689
1.4684
1.46872
1.47224
1.47877
1.48075
1.47986
1.47821
1.47598
1.47141
1.46188
1.45419
1.45224
1.45193
1.45166
1.45153
1.45236
1.45729
1.46572
1.46859
1.46834
1.46758
1.46586
1.46105
1.4506
1.44286
1.44094
1.44047
1.44008
1.44021
1.44238
1.44911
1.45552
1.45636
1.45619
1.45516
1.4509
1.44165
1.43552
1.43385
1.43302
1.43218
1.43209
1.4338
1.43838
1.44038
1.43972
1.43861
1.43688
1.43044
1.43367
1.45502
1.51129
1.58895
1.66032
1.69973
1.719
1.73319
1.73542
1.7351
1.73286
1.72732
1.72266
1.72233
1.72281
1.72431
1.72432
1.72341
1.72152
1.71981
1.71953
1.72019
1.72248
1.72515
1.7261
1.72551
1.72338
1.71846
1.71341
1.71162
1.71106
1.71101
1.71263
1.71623
1.71737
1.71693
1.71611
1.71386
1.70962
1.70545
1.70441
1.70445
1.70501
1.70713
1.71105
1.71316
1.71197
1.70916
1.70466
1.6996
1.69799
1.69793
1.69803
1.69944
1.70185
1.70223
1.70185
1.70013
1.69632
1.69281
1.69205
1.69205
1.69212
1.69229
1.69289
1.69331
1.69293
1.69183
1.68951
1.68561
1.68217
1.68142
1.68152
1.68187
1.68402
1.68932
1.69438
1.69505
1.69521
1.69487
1.69308
1.68937
1.68468
1.68031
1.67706
1.67521
1.67421
1.67329
1.6725
1.67193
1.67168
1.6722
1.67509
1.67775
1.67764
1.67689
1.67536
1.67156
1.66627
1.66397
1.66387
1.66483
1.6665
1.6687
1.67243
1.67544
1.67562
1.67537
1.67336
1.66853
1.66078
1.65407
1.65197
1.6515
1.65149
1.65303
1.65771
1.66299
1.66574
1.66605
1.66583
1.6649
1.66164
1.65528
1.64668
1.64195
1.6405
1.63997
1.63998
1.64164
1.6476
1.65729
1.66077
1.66035
1.65911
1.65648
1.64893
1.6378
1.63196
1.63013
1.62964
1.63033
1.63403
1.63875
1.64159
1.6424
1.64239
1.64133
1.63767
1.63333
1.63284
1.52437
1.52168
1.52032
1.5195
1.51932
1.52104
1.52631
1.5299
1.52988
1.52943
1.52857
1.52639
1.5213
1.51499
1.51196
1.51103
1.51063
1.51082
1.51173
1.51259
1.51219
1.51052
1.50751
1.50239
1.49608
1.49335
1.49282
1.49315
1.49491
1.49794
1.50168
1.50538
1.50672
1.50596
1.5034
1.49854
1.4898
1.48225
1.48042
1.48008
1.48012
1.48138
1.48492
1.49015
1.4943
1.49504
1.49426
1.4921
1.48778
1.4791
1.46987
1.46713
1.4665
1.46605
1.46572
1.46639
1.47044
1.47634
1.47742
1.47623
1.47464
1.47256
1.46764
1.45767
1.45076
1.44925
1.449
1.44877
1.44867
1.44977
1.45545
1.4643
1.46685
1.46637
1.46532
1.46327
1.45782
1.44656
1.43876
1.43696
1.43654
1.43618
1.43624
1.43856
1.44633
1.45381
1.45464
1.45447
1.45334
1.44877
1.43892
1.43216
1.43012
1.42906
1.42796
1.42773
1.42942
1.43446
1.43657
1.43627
1.4355
1.43418
1.42837
1.42474
1.43154
1.46125
1.52299
1.59961
1.66784
1.70039
1.71562
1.72519
1.72585
1.72499
1.72118
1.72022
1.72018
1.72085
1.7221
1.72213
1.72169
1.72012
1.71743
1.71623
1.71634
1.7173
1.72014
1.72219
1.72152
1.7191
1.71435
1.70897
1.70699
1.70665
1.70672
1.70819
1.71169
1.71383
1.71378
1.71339
1.71184
1.70765
1.70235
1.70032
1.70004
1.70024
1.7015
1.70501
1.70845
1.70821
1.70612
1.70241
1.69723
1.69493
1.6948
1.69501
1.69679
1.69973
1.69995
1.69971
1.69819
1.69416
1.69019
1.68879
1.68853
1.68858
1.68868
1.68895
1.68949
1.68944
1.68838
1.68632
1.68272
1.6794
1.67866
1.67876
1.67926
1.68133
1.68624
1.69178
1.69265
1.69257
1.69233
1.69085
1.68723
1.68184
1.6765
1.67294
1.67089
1.66939
1.66807
1.66716
1.66671
1.66665
1.66778
1.67163
1.67479
1.67536
1.6752
1.67421
1.67134
1.66621
1.66253
1.6622
1.66222
1.6625
1.66357
1.66656
1.66853
1.66845
1.66826
1.66696
1.6635
1.65736
1.65272
1.65167
1.65171
1.65324
1.65557
1.65772
1.66017
1.66083
1.66051
1.65976
1.65786
1.65406
1.64867
1.64275
1.63964
1.63901
1.63901
1.64047
1.64472
1.65132
1.65718
1.65839
1.65755
1.65508
1.64951
1.63818
1.62912
1.62669
1.6263
1.62656
1.63006
1.63915
1.64446
1.64631
1.64661
1.64565
1.64106
1.63237
1.62683
1.52606
1.51992
1.51686
1.51539
1.51468
1.51445
1.5163
1.52298
1.52837
1.52887
1.52857
1.52757
1.52535
1.51978
1.51164
1.5075
1.50625
1.50537
1.5048
1.50517
1.50674
1.50735
1.50665
1.5052
1.50198
1.49686
1.49329
1.49253
1.49279
1.49381
1.49476
1.49638
1.49932
1.501
1.50041
1.49835
1.49474
1.48803
1.48094
1.47899
1.47872
1.47928
1.48111
1.48363
1.48679
1.48988
1.49057
1.48963
1.48745
1.48345
1.47552
1.46691
1.46426
1.46363
1.46321
1.46292
1.4638
1.46797
1.47348
1.47446
1.47328
1.47139
1.46882
1.4635
1.45348
1.44757
1.44655
1.44635
1.44616
1.44612
1.44757
1.45363
1.46227
1.46434
1.46358
1.46223
1.45986
1.4538
1.44198
1.43451
1.43292
1.43267
1.43247
1.43275
1.43593
1.44471
1.45235
1.45319
1.45255
1.45065
1.44512
1.43463
1.42797
1.42589
1.42471
1.42357
1.4234
1.42579
1.43176
1.43392
1.43399
1.43369
1.43252
1.42805
1.42061
1.42089
1.43125
1.46306
1.52782
1.60197
1.66802
1.6988
1.71003
1.71319
1.71405
1.71347
1.71453
1.71888
1.72249
1.72293
1.72276
1.72193
1.71935
1.71429
1.71223
1.71231
1.71305
1.7158
1.71815
1.71729
1.71447
1.7095
1.70433
1.70269
1.7026
1.70295
1.70487
1.70868
1.71109
1.71095
1.71013
1.70859
1.70488
1.69895
1.69603
1.69577
1.69598
1.69666
1.69953
1.70386
1.7045
1.70306
1.70015
1.69546
1.6926
1.69246
1.69306
1.69501
1.69759
1.69767
1.69694
1.69493
1.69069
1.68647
1.68527
1.6851
1.68506
1.68499
1.68509
1.68579
1.68583
1.68487
1.68325
1.68042
1.67734
1.67653
1.67658
1.67736
1.67916
1.68287
1.68831
1.69063
1.69055
1.69012
1.6886
1.68422
1.67719
1.67111
1.66795
1.6662
1.66484
1.6639
1.6636
1.66365
1.6643
1.66668
1.6718
1.67593
1.67639
1.67569
1.67371
1.66915
1.66208
1.65778
1.65682
1.65657
1.6566
1.65744
1.66091
1.66335
1.66333
1.66341
1.66312
1.66141
1.65675
1.65309
1.65265
1.65279
1.6524
1.65242
1.65332
1.65437
1.6541
1.65321
1.65218
1.65085
1.64878
1.64525
1.64104
1.63931
1.63924
1.64031
1.64251
1.64504
1.64893
1.65261
1.65291
1.65166
1.64789
1.6407
1.63099
1.62569
1.62511
1.62548
1.62835
1.63542
1.64401
1.6459
1.64548
1.64427
1.64044
1.63039
1.61917
1.5302
1.5225
1.51591
1.51296
1.51157
1.51111
1.51124
1.51409
1.52161
1.52745
1.52777
1.52681
1.52543
1.52268
1.51605
1.5065
1.50167
1.50018
1.49933
1.49879
1.49929
1.50203
1.5038
1.50369
1.50318
1.50182
1.49828
1.49334
1.49087
1.49013
1.48951
1.48922
1.48988
1.49289
1.49574
1.49561
1.49471
1.49263
1.48773
1.48105
1.47839
1.47809
1.47857
1.47945
1.48025
1.48206
1.4851
1.48608
1.48511
1.48307
1.4796
1.47257
1.46431
1.46158
1.46089
1.46049
1.46035
1.46128
1.46484
1.46932
1.47025
1.4693
1.46773
1.46517
1.45953
1.44968
1.44472
1.44397
1.44379
1.4436
1.4436
1.44526
1.45142
1.45947
1.46133
1.46042
1.45866
1.45587
1.44915
1.4372
1.43068
1.42958
1.4295
1.42949
1.4304
1.43431
1.44254
1.44897
1.44985
1.44917
1.44668
1.44025
1.42968
1.42351
1.42151
1.42038
1.41947
1.41973
1.42416
1.43136
1.43292
1.4329
1.43262
1.43105
1.42531
1.41625
1.41396
1.41602
1.42826
1.46235
1.52863
1.604
1.66887
1.69425
1.70043
1.70122
1.70397
1.70823
1.71389
1.71983
1.72163
1.72132
1.71955
1.71599
1.7107
1.70887
1.70883
1.70946
1.712
1.71362
1.71263
1.71005
1.70539
1.7005
1.69923
1.69921
1.70009
1.70153
1.70397
1.70681
1.70729
1.70652
1.70484
1.70129
1.69527
1.69172
1.69129
1.69141
1.69189
1.69437
1.69946
1.70121
1.70024
1.69793
1.69391
1.69093
1.69074
1.69114
1.69241
1.69332
1.69328
1.69287
1.69088
1.68664
1.68257
1.68164
1.68153
1.68143
1.68132
1.68174
1.68254
1.6825
1.68191
1.6809
1.67891
1.67581
1.67454
1.6746
1.67474
1.67575
1.67944
1.68485
1.68729
1.68737
1.68705
1.6851
1.67969
1.67183
1.66604
1.66356
1.66227
1.66157
1.66146
1.66152
1.66214
1.66398
1.66688
1.67112
1.67398
1.674
1.67252
1.6695
1.6635
1.65562
1.65195
1.65134
1.65134
1.65174
1.65407
1.65851
1.66101
1.66233
1.66282
1.6627
1.66111
1.65632
1.6515
1.64977
1.64875
1.6477
1.64686
1.64691
1.648
1.64808
1.64767
1.64738
1.64731
1.64683
1.64473
1.64134
1.64015
1.64034
1.64039
1.64041
1.64131
1.644
1.64589
1.64534
1.64371
1.64082
1.63575
1.62917
1.62618
1.62614
1.62767
1.63153
1.63699
1.64127
1.64195
1.6412
1.63819
1.63054
1.61809
1.53096
1.52706
1.52024
1.51323
1.51017
1.50902
1.50879
1.5094
1.51189
1.51763
1.52378
1.5249
1.52379
1.52182
1.51817
1.51014
1.50031
1.49622
1.49487
1.49412
1.49369
1.4948
1.49903
1.50212
1.50312
1.50304
1.50181
1.49755
1.48994
1.48555
1.48428
1.48344
1.48294
1.48368
1.48777
1.49201
1.49235
1.49205
1.49105
1.48779
1.48132
1.47708
1.47625
1.47597
1.47553
1.47547
1.47685
1.48032
1.48166
1.48086
1.47921
1.47637
1.47018
1.46211
1.45916
1.45842
1.45801
1.45788
1.45883
1.46201
1.46593
1.46662
1.46565
1.46407
1.46136
1.45552
1.44633
1.4421
1.44141
1.4412
1.44099
1.44111
1.44304
1.44875
1.4557
1.45742
1.45662
1.45464
1.45148
1.44479
1.4335
1.42763
1.42692
1.42693
1.42727
1.42879
1.43291
1.44013
1.445
1.44545
1.44463
1.44171
1.43475
1.42453
1.4192
1.41747
1.41659
1.41622
1.41787
1.42548
1.43175
1.43185
1.43154
1.43081
1.42814
1.42015
1.41136
1.40874
1.40889
1.41134
1.42543
1.46362
1.53414
1.60366
1.6659
1.69408
1.69794
1.7017
1.70489
1.70771
1.71117
1.7146
1.71578
1.71455
1.71113
1.70634
1.70394
1.70368
1.70419
1.70707
1.70963
1.70901
1.70685
1.70305
1.69855
1.69689
1.6968
1.69744
1.69842
1.69956
1.70136
1.70199
1.70152
1.70009
1.6971
1.69154
1.68765
1.68724
1.68744
1.68804
1.69045
1.69573
1.69808
1.69718
1.69546
1.6922
1.68876
1.68821
1.68826
1.68849
1.68865
1.68876
1.6884
1.68636
1.68207
1.67874
1.67839
1.67837
1.67831
1.67841
1.67964
1.68061
1.68063
1.68021
1.67925
1.67667
1.67285
1.67091
1.67076
1.67079
1.67177
1.67542
1.68082
1.68345
1.68353
1.68308
1.68093
1.67537
1.66747
1.66242
1.66075
1.65997
1.65959
1.65962
1.66007
1.66124
1.66279
1.66515
1.66852
1.6704
1.66989
1.66784
1.66396
1.65705
1.65027
1.64832
1.64813
1.64848
1.6502
1.65478
1.66096
1.66291
1.66286
1.66273
1.6618
1.65801
1.65078
1.64523
1.64314
1.64206
1.64133
1.64124
1.64237
1.64436
1.64548
1.6464
1.64722
1.64731
1.64699
1.64495
1.64078
1.63775
1.63671
1.63581
1.63502
1.63506
1.63728
1.63968
1.6394
1.63868
1.63758
1.63451
1.62945
1.6276
1.62783
1.62873
1.63034
1.63309
1.63481
1.63443
1.63273
1.62885
1.62126
1.52929
1.5279
1.52525
1.52034
1.51336
1.50864
1.5072
1.50679
1.50697
1.50816
1.5121
1.51797
1.52012
1.51931
1.51694
1.51243
1.50405
1.49538
1.49196
1.49066
1.49022
1.4906
1.49499
1.50212
1.50372
1.50315
1.50188
1.4992
1.4923
1.4832
1.47963
1.4786
1.47791
1.4776
1.47909
1.48515
1.49019
1.49139
1.49153
1.49085
1.48767
1.47985
1.47363
1.47205
1.47143
1.4707
1.47043
1.47187
1.47611
1.47772
1.47716
1.47601
1.47372
1.46815
1.46017
1.45688
1.45612
1.45575
1.45566
1.45622
1.45869
1.46211
1.46262
1.46159
1.46006
1.45747
1.45207
1.44374
1.43974
1.43898
1.43873
1.43856
1.43898
1.44106
1.44578
1.45134
1.4528
1.45204
1.45027
1.44748
1.44168
1.43147
1.42542
1.42468
1.42479
1.42539
1.42703
1.43071
1.43662
1.44034
1.44049
1.43938
1.43611
1.42924
1.42004
1.41575
1.41444
1.41402
1.41451
1.4182
1.42581
1.42969
1.4295
1.42886
1.4274
1.42339
1.41413
1.4064
1.40428
1.4036
1.40384
1.40726
1.42704
1.46962
1.54458
1.61339
1.66602
1.694
1.70057
1.70236
1.7033
1.70566
1.70883
1.70925
1.7079
1.70474
1.70026
1.69813
1.69813
1.6994
1.70329
1.70649
1.70585
1.7041
1.70152
1.69819
1.69527
1.69386
1.6933
1.69331
1.694
1.6956
1.69651
1.69638
1.69568
1.69393
1.69
1.6854
1.68411
1.68416
1.68471
1.68678
1.69202
1.69528
1.69451
1.69297
1.69
1.68593
1.68405
1.68386
1.68392
1.68389
1.68389
1.68358
1.68168
1.67805
1.67602
1.67593
1.67589
1.6759
1.6769
1.67827
1.67862
1.67835
1.67783
1.67639
1.67269
1.66826
1.66687
1.66679
1.66684
1.66757
1.67051
1.67584
1.67912
1.67929
1.67905
1.67744
1.67225
1.66469
1.66016
1.65893
1.65844
1.65822
1.6584
1.65872
1.65937
1.66027
1.66197
1.66453
1.66533
1.66451
1.6624
1.65863
1.65288
1.64771
1.64639
1.64639
1.64755
1.65126
1.6559
1.65916
1.65968
1.65978
1.6593
1.65692
1.65117
1.64362
1.63963
1.63831
1.63789
1.63767
1.63857
1.64201
1.64549
1.64754
1.64801
1.64795
1.64768
1.64586
1.64079
1.63442
1.63109
1.62946
1.62844
1.62814
1.62942
1.63384
1.63748
1.63868
1.63874
1.63798
1.63534
1.62985
1.62577
1.62485
1.62452
1.62444
1.62545
1.62667
1.6262
1.62515
1.62291
1.52689
1.52625
1.52534
1.52385
1.52063
1.51421
1.50748
1.50472
1.50382
1.50348
1.50385
1.50644
1.51127
1.51405
1.51374
1.51153
1.50695
1.49936
1.49207
1.48945
1.4886
1.48865
1.49083
1.49669
1.50063
1.50069
1.49967
1.4978
1.49365
1.48478
1.47682
1.47435
1.47377
1.47347
1.47391
1.47823
1.48781
1.4922
1.49207
1.49127
1.48946
1.48454
1.47479
1.46869
1.46732
1.46665
1.46594
1.46577
1.46801
1.47307
1.47449
1.47415
1.4733
1.47151
1.46663
1.45855
1.4545
1.45345
1.45289
1.45241
1.45269
1.45474
1.45795
1.45842
1.45741
1.45608
1.45397
1.4495
1.4419
1.43768
1.43687
1.43663
1.43665
1.43725
1.43877
1.44232
1.44723
1.44864
1.44781
1.44628
1.44411
1.43949
1.43014
1.4234
1.42241
1.42257
1.42309
1.42445
1.42729
1.43198
1.43518
1.43526
1.43403
1.43097
1.42506
1.41741
1.41372
1.41278
1.41288
1.4142
1.41798
1.42309
1.42517
1.42505
1.42459
1.42295
1.41767
1.40801
1.40203
1.40056
1.39985
1.39961
1.40149
1.4107
1.43666
1.48251
1.5545
1.61709
1.6655
1.69277
1.69679
1.69996
1.70258
1.70387
1.7046
1.70342
1.70032
1.69574
1.69464
1.69509
1.6962
1.69962
1.70271
1.70215
1.7015
1.69998
1.69613
1.69128
1.6888
1.6883
1.68824
1.68872
1.69031
1.69152
1.69154
1.69141
1.69106
1.68903
1.68462
1.68165
1.68141
1.68189
1.6837
1.68805
1.69169
1.69141
1.68953
1.68569
1.68113
1.67943
1.6792
1.67912
1.67899
1.67903
1.67895
1.67759
1.67501
1.67396
1.67394
1.6739
1.67467
1.67594
1.67583
1.67537
1.67494
1.6743
1.67266
1.66912
1.66462
1.66247
1.66207
1.66202
1.66241
1.6653
1.67148
1.67567
1.67637
1.67638
1.67532
1.67057
1.66298
1.6584
1.65692
1.65583
1.65478
1.65463
1.65474
1.655
1.65566
1.65729
1.66014
1.66074
1.65977
1.65801
1.65519
1.65038
1.64662
1.64608
1.64672
1.64775
1.64923
1.65209
1.65452
1.65478
1.65478
1.65384
1.65086
1.6451
1.63852
1.63607
1.63565
1.63559
1.63641
1.63971
1.64475
1.64603
1.64597
1.64609
1.64584
1.64435
1.64019
1.63327
1.62815
1.62599
1.62514
1.62487
1.62543
1.62955
1.63773
1.64111
1.64093
1.64032
1.63833
1.63225
1.6235
1.6186
1.61671
1.6159
1.61586
1.61776
1.62112
1.62273
1.62287
1.52499
1.52523
1.52494
1.52408
1.52273
1.51994
1.51348
1.50514
1.50111
1.49989
1.49943
1.49938
1.50059
1.5039
1.50729
1.50773
1.50614
1.50278
1.49761
1.4917
1.48872
1.4881
1.48888
1.4911
1.49391
1.49537
1.49526
1.49447
1.49215
1.48682
1.47834
1.47315
1.4717
1.47129
1.47153
1.4739
1.48021
1.48766
1.49014
1.48963
1.48821
1.4855
1.47898
1.46895
1.464
1.46279
1.46221
1.46166
1.46198
1.46602
1.47168
1.47259
1.47234
1.47154
1.46981
1.46463
1.45561
1.45096
1.44973
1.44904
1.44843
1.44852
1.45031
1.45362
1.45417
1.45341
1.45268
1.45126
1.44754
1.44049
1.43589
1.4349
1.43461
1.43454
1.43453
1.43509
1.43794
1.44301
1.44475
1.44419
1.44306
1.44148
1.43761
1.42854
1.42098
1.41966
1.41984
1.42014
1.42089
1.42296
1.42711
1.43034
1.43042
1.42917
1.42658
1.42194
1.41596
1.41284
1.41207
1.41228
1.41329
1.41585
1.41946
1.42086
1.42061
1.41993
1.41762
1.41192
1.40306
1.39902
1.39787
1.39746
1.39766
1.40054
1.40726
1.41649
1.43999
1.48958
1.55357
1.6173
1.6552
1.67757
1.68807
1.69524
1.70007
1.70114
1.70065
1.69884
1.69531
1.69302
1.69277
1.69285
1.69532
1.69894
1.69991
1.69946
1.69734
1.6927
1.68689
1.684
1.68292
1.68248
1.68272
1.68413
1.68624
1.68818
1.68879
1.68895
1.68776
1.68348
1.67944
1.67869
1.67853
1.67967
1.68346
1.68657
1.68659
1.68472
1.68061
1.67626
1.67485
1.67461
1.67463
1.67474
1.67508
1.67515
1.67436
1.67263
1.6719
1.67173
1.6721
1.67277
1.67275
1.6725
1.67215