/*--------------------------------*- C++ -*----------------------------------*\
  =========                 |
  \\      /  F ield         | OpenFOAM: The Open Source CFD Toolbox
   \\    /   O peration     | Website:  https://openfoam.org
    \\  /    A nd           | Version:  7
     \\/     M anipulation  |
\*---------------------------------------------------------------------------*/
FoamFile
{
    version     2.0;
    format      ascii;
    class       volScalarField;
    location    "0.9";
    object      p;
}
// * * * * * * * * * * * * * * * * * * * * * * * * * * * * * * * * * * * * * //

dimensions      [1 -1 -2 0 0 0 0];

internalField   nonuniform List<scalar> 
4128
(
2.21736
2.19996
2.18126
2.16822
2.15685
2.13888
2.12285
2.10982
2.0919
2.06942
2.04796
2.02879
2.01401
2.0043
1.99244
1.97639
1.95008
1.90372
1.87038
1.85787
1.85361
1.86499
1.88555
1.98461
2.26125
2.63889
3.09299
3.26447
3.27503
3.26209
3.24128
3.19518
3.12769
3.05718
3.00273
2.98197
2.98305
2.99688
2.98934
2.97024
2.93013
2.86554
2.76969
2.68962
2.66413
2.65269
2.63599
2.62406
2.61148
2.58871
2.52903
2.43905
2.38185
2.36794
2.3585
2.3592
2.38222
2.38939
2.37795
2.36625
2.34204
2.28165
2.16764
2.06095
2.02378
2.01866
2.02486
2.06092
2.08354
2.07898
2.07455
2.06886
2.04935
1.99893
1.91941
1.84615
1.81363
1.80841
1.80977
1.80976
1.8095
1.81123
1.80362
1.79135
1.78164
1.76237
1.70893
1.63625
1.61065
1.60723
1.60321
1.6002
1.60464
1.60436
1.59819
1.58815
1.57173
1.54092
1.49729
1.47712
1.47155
1.46624
1.46673
1.47334
1.47148
1.46486
1.45771
1.44845
1.42798
1.38851
1.35005
1.33938
1.33989
1.34207
1.34559
1.3511
1.36109
1.38062
1.4166
1.49601
1.62546
1.83326
2.13773
2.47328
2.74034
2.96826
3.19683
3.23218
3.21033
2.24283
2.22815
2.21093
2.19883
2.18441
2.16673
2.15361
2.13823
2.11676
2.09437
2.07227
2.05335
2.04177
2.03008
2.01592
1.99417
1.95855
1.9173
1.90336
1.89722
1.8876
1.88526
1.89181
1.90433
1.97299
2.18101
2.54988
2.98216
3.17578
3.22398
3.22335
3.19302
3.14323
3.11233
3.09258
3.08132
3.08117
3.06703
3.03541
2.98596
2.92402
2.83626
2.75723
2.72622
2.71768
2.70943
2.69281
2.68025
2.65804
2.59962
2.50767
2.44134
2.42533
2.41682
2.41568
2.43631
2.45057
2.43893
2.42547
2.40224
2.34356
2.2297
2.11672
2.07282
2.06564
2.06991
2.10461
2.1459
2.14503
2.13796
2.12981
2.10671
2.04897
1.96079
1.89534
1.86095
1.85015
1.84927
1.85073
1.85027
1.85307
1.84791
1.83291
1.82121
1.80893
1.7723
1.69837
1.64828
1.64208
1.63757
1.63204
1.63403
1.6371
1.63192
1.62408
1.61166
1.58703
1.5435
1.51304
1.50622
1.50075
1.49871
1.50331
1.50146
1.49676
1.49004
1.48045
1.46286
1.42819
1.39758
1.39684
1.41374
1.4499
1.50658
1.57176
1.64199
1.73094
1.86419
2.00936
2.21572
2.50296
2.78073
2.97078
3.1462
3.31988
3.3684
3.33909
3.31322
3.31053
2.27342
2.26154
2.24475
2.22985
2.21324
2.19783
2.18536
2.1665
2.14366
2.11936
2.0942
2.07733
2.0666
2.05318
2.03509
2.00687
1.96948
1.94615
1.93659
1.93315
1.92561
1.91581
1.91113
1.90836
1.90244
1.93635
2.07787
2.39169
2.85663
3.10265
3.14123
3.16025
3.17914
3.20985
3.20667
3.17834
3.14406
3.09955
3.04319
2.97947
2.90011
2.82708
2.79127
2.78269
2.78357
2.77041
2.754
2.7315
2.67361
2.57743
2.50227
2.48228
2.47539
2.47365
2.49233
2.51142
2.50091
2.48503
2.46213
2.40653
2.2956
2.17512
2.12464
2.11541
2.11803
2.15067
2.20278
2.21256
2.20329
2.19096
2.16175
2.10038
2.00725
1.93468
1.91143
1.90026
1.89233
1.89223
1.89206
1.893
1.89284
1.8802
1.86437
1.85139
1.82678
1.76538
1.69591
1.67899
1.67448
1.6685
1.66415
1.66838
1.66524
1.65873
1.65007
1.63257
1.59523
1.55234
1.54054
1.53451
1.53058
1.53522
1.53496
1.53154
1.53145
1.52934
1.52339
1.52339
1.54176
1.59241
1.69093
1.83033
1.95897
2.08669
2.20655
2.3164
2.43047
2.57178
2.75188
2.97709
3.17216
3.28794
3.39989
3.46799
3.45967
3.39413
3.33975
3.34628
3.37602
2.308
2.2974
2.28105
2.2605
2.24242
2.23003
2.21541
2.19576
2.1711
2.13943
2.11285
2.09939
2.08786
2.07292
2.05003
2.01938
1.99218
1.97825
1.9687
1.96316
1.9573
1.94942
1.94006
1.92494
1.90415
1.8782
1.888
1.98169
2.27248
2.71778
2.96697
3.10676
3.21184
3.26537
3.25928
3.22577
3.17566
3.11696
3.04533
2.96346
2.89295
2.85714
2.84869
2.85352
2.85042
2.83259
2.8075
2.74866
2.64978
2.56499
2.53855
2.53254
2.53137
2.54994
2.57264
2.56405
2.54614
2.52216
2.46839
2.36259
2.23723
2.18012
2.1688
2.16945
2.19932
2.25613
2.27578
2.2667
2.251
2.2158
2.15062
2.0564
1.98148
1.95633
1.95164
1.94282
1.93578
1.93484
1.93411
1.93455
1.92564
1.911
1.8964
1.87612
1.82819
1.75268
1.71691
1.71226
1.7069
1.70065
1.70133
1.69864
1.6926
1.68569
1.67466
1.64935
1.60254
1.57633
1.57123
1.56914
1.57792
1.59336
1.61329
1.64821
1.7044
1.77531
1.86796
1.96618
2.09878
2.24329
2.40273
2.53229
2.60735
2.68942
2.79288
2.8046
2.85719
3.01704
3.1796
3.32017
3.44115
3.48739
3.48403
3.44333
3.40445
3.38028
3.38249
3.41713
3.4312
2.34594
2.33347
2.31436
2.28983
2.27244
2.26176
2.24555
2.22469
2.19323
2.15286
2.12929
2.11898
2.10748
2.09019
2.06516
2.03923
2.02278
2.01053
1.99924
1.9889
1.98501
1.97972
1.9683
1.95084
1.91964
1.87395
1.85871
1.86761
1.93924
2.19832
2.60821
2.90976
3.15907
3.26553
3.26794
3.24931
3.19961
3.12212
3.03494
2.96187
2.92486
2.9152
2.9211
2.92607
2.91242
2.88715
2.82734
2.72596
2.63137
2.5968
2.59007
2.58795
2.60585
2.63326
2.62797
2.6095
2.58427
2.53113
2.42993
2.30263
2.23928
2.22617
2.22542
2.25222
2.30855
2.33345
2.32603
2.30878
2.26994
2.20126
2.10589
2.03256
2.00601
2.00226
1.99725
1.98609
1.97909
1.97669
1.97514
1.9689
1.95515
1.94117
1.92416
1.88603
1.81544
1.75938
1.75025
1.74473
1.73861
1.73662
1.7371
1.7282
1.72122
1.71535
1.7029
1.66947
1.6366
1.63542
1.6554
1.71007
1.80849
1.94131
2.08122
2.23918
2.36433
2.45803
2.5658
2.66121
2.7336
2.78916
2.83855
2.8627
2.87905
2.8668
2.88606
3.00147
3.18157
3.38191
3.52186
3.6224
3.64578
3.64332
3.60852
3.50486
3.44953
3.43846
3.44831
3.45663
3.43915
2.38491
2.36454
2.3415
2.31881
2.3068
2.29586
2.27695
2.24405
2.20081
2.16401
2.14738
2.13858
2.12689
2.10941
2.08656
2.06786
2.05487
2.04184
2.02443
2.01518
2.01221
2.00597
1.99416
1.97371
1.9288
1.87764
1.86347
1.86638
1.87519
1.93759
2.1825
2.54999
2.9282
3.20983
3.24945
3.23838
3.20047
3.12054
3.03741
2.99933
2.98701
2.98633
2.99296
2.98554
2.96502
2.90698
2.80521
2.70074
2.65727
2.64916
2.64609
2.66039
2.69053
2.69068
2.67391
2.64939
2.59681
2.49649
2.3674
2.30052
2.28624
2.28547
2.31121
2.36404
2.38725
2.37964
2.36188
2.32247
2.25257
2.15688
2.08549
2.05864
2.05512
2.05182
2.04328
2.02939
2.02034
2.01554
2.01043
1.9987
1.98421
1.96892
1.93987
1.87822
1.81012
1.79068
1.78465
1.77729
1.77199
1.77776
1.77742
1.77277
1.77696
1.78461
1.79662
1.82354
1.88965
1.99924
2.16632
2.35532
2.55881
2.74347
2.87136
2.91956
2.94885
3.00461
3.03616
3.05178
3.06232
3.06978
3.06913
3.06454
3.06255
3.07137
3.15596
3.34318
3.50041
3.64099
3.69393
3.69212
3.68101
3.64943
3.6006
3.54493
3.50735
3.49122
3.48687
3.46581
3.43988
2.4138
2.38401
2.36664
2.35477
2.34388
2.32958
2.29649
2.2445
2.20681
2.18321
2.16867
2.15999
2.14993
2.13528
2.11694
2.09999
2.08471
2.06606
2.04857
2.04305
2.03965
2.03145
2.01699
1.98456
1.93315
1.89473
1.88617
1.88224
1.88297
1.89379
1.9546
2.15379
2.46537
2.88541
3.18219
3.20327
3.16407
3.09792
3.06685
3.0655
3.07726
3.06547
3.05249
3.0331
2.98206
2.88731
2.77791
2.72351
2.71316
2.70896
2.71699
2.74355
2.74977
2.73733
2.71595
2.66633
2.56682
2.43325
2.36218
2.34699
2.34719
2.37386
2.42247
2.44004
2.43136
2.41315
2.37271
2.30047
2.20609
2.14039
2.11353
2.10956
2.10745
2.09995
2.08717
2.06838
2.05662
2.04932
2.04023
2.02692
2.01223
1.99006
1.93954
1.86598
1.83271
1.83001
1.82837
1.82864
1.83967
1.87071
1.92746
2.01434
2.12362
2.24033
2.36989
2.52119
2.67412
2.84228
3.00792
3.13393
3.23416
3.25814
3.25757
3.21316
3.13554
3.11253
3.08877
3.0793
3.08554
3.10342
3.13556
3.1747
3.22608
3.33921
3.50678
3.61767
3.71689
3.79294
3.79594
3.78244
3.73426
3.63943
3.56345
3.53522
3.51767
3.50973
3.5178
3.50086
3.47388
2.42637
2.40682
2.39935
2.3919
2.37774
2.34751
2.29614
2.24261
2.22156
2.21126
2.19818
2.18953
2.18146
2.16882
2.15216
2.12943
2.10601
2.08589
2.07723
2.07362
2.06793
2.05741
2.0345
1.98571
1.94228
1.93057
1.92251
1.91537
1.9092
1.90581
1.91304
1.94978
2.07179
2.34561
2.77403
3.06146
3.07689
3.07564
3.09724
3.15293
3.16849
3.14309
3.10467
3.05052
2.96334
2.8559
2.79384
2.78137
2.77764
2.78426
2.80162
2.80647
2.79734
2.78086
2.73621
2.6405
2.50427
2.42666
2.40925
2.40923
2.43661
2.48316
2.49226
2.48126
2.4645
2.42474
2.35023
2.25251
2.19206
2.16939
2.16561
2.16482
2.15713
2.14645
2.12626
2.10066
2.08852
2.08015
2.06858
2.05468
2.03753
1.99735
1.92989
1.89711
1.90341
1.93182
1.99051
2.08961
2.23284
2.43598
2.68577
2.9077
3.04754
3.12177
3.16466
3.20943
3.25898
3.32607
3.32661
3.30474
3.28684
3.27241
3.25635
3.22532
3.20601
3.19016
3.16186
3.15443
3.16712
3.19952
3.25543
3.35122
3.47948
3.62078
3.74196
3.83976
3.90331
3.90485
3.89551
3.8511
3.73419
3.61118
3.56092
3.54545
3.53695
3.54149
3.55181
3.54602
3.525
2.44983
2.44274
2.43605
2.42487
2.39594
2.34117
2.28942
2.25801
2.25077
2.24606
2.2385
2.23155
2.22412
2.20983
2.17851
2.14503
2.12329
2.11385
2.1104
2.1059
2.09703
2.08077
2.03955
1.9862
1.96777
1.96354
1.9585
1.95314
1.9445
1.93306
1.9244
1.91696
1.92332
1.98973
2.21693
2.60385
2.92925
2.99924
3.0779
3.16728
3.1977
3.17891
3.13392
3.06177
2.94932
2.86281
2.84473
2.84133
2.85487
2.8713
2.86988
2.86012
2.84572
2.80445
2.71143
2.57671
2.49686
2.47563
2.4738
2.49813
2.54288
2.54682
2.53205
2.51468
2.4777
2.40388
2.30252
2.24218
2.22288
2.22046
2.22166
2.21337
2.20326
2.18711
2.1554
2.13167
2.12278
2.1164
2.10861
2.09741
2.07787
2.06786
2.08965
2.16503
2.31647
2.53491
2.7645
2.9778
3.19055
3.39702
3.5012
3.53985
3.5734
3.59316
3.57858
3.55148
3.53767
3.53942
3.51493
3.46062
3.38821
3.30243
3.26358
3.26371
3.29329
3.30204
3.29119
3.31217
3.3733
3.45516
3.57474
3.69497
3.807
3.91089
3.98627
4.0055
3.99788
3.96881
3.89803
3.79495
3.69479
3.62746
3.60308
3.5928
3.60182
3.59648
3.57272
3.54623
3.50858
2.48858
2.4827
2.47161
2.44396
2.38768
2.33053
2.30231
2.2939
2.29039
2.28897
2.28687
2.27943
2.26339
2.22671
2.18526
2.16067
2.15109
2.14778
2.14538
2.13841
2.12549
2.09124
2.03397
2.00138
1.99658
1.99319
1.99132
1.98857
1.9781
1.96548
1.94966
1.92452
1.89544
1.89419
1.94721
2.13794
2.52705
2.87376
3.02656
3.14811
3.19097
3.18062
3.14479
3.06901
2.96261
2.92238
2.91349
2.91808
2.93482
2.93648
2.92743
2.91229
2.87201
2.78141
2.64693
2.56522
2.54281
2.53999
2.56001
2.60041
2.60265
2.58494
2.56489
2.5295
2.461
2.35813
2.29237
2.27266
2.27064
2.27717
2.26931
2.25776
2.24648
2.22269
2.19357
2.18834
2.20226
2.24663
2.33157
2.45256
2.58244
2.73519
2.9229
3.14228
3.35572
3.52537
3.67359
3.81535
3.91976
3.91125
3.86174
3.81639
3.75537
3.65257
3.58375
3.54862
3.53026
3.52469
3.5405
3.53421
3.50241
3.44306
3.38664
3.36347
3.33932
3.35442
3.40973
3.52143
3.65465
3.80005
3.90573
3.99502
4.071
4.10173
4.09148
4.0569
3.99647
3.91866
3.82069
3.7188
3.66307
3.64715
3.64182
3.65883
3.65772
3.63135
3.59482
3.5497
3.48738
2.533
2.52179
2.494
2.43591
2.37175
2.34412
2.33819
2.33828
2.34027
2.33786
2.33153
2.31197
2.26877
2.22502
2.199
2.19039
2.18663
2.18454
2.17949
2.16921
2.14164
2.08417
2.0373
2.02897
2.02509
2.02293
2.02511
2.02037
2.00993
1.99802
1.97461
1.92679
1.89274
1.88737
1.89156
1.94175
2.12646
2.52018
2.82698
3.06705
3.17951
3.17299
3.13539
3.06404
3.00736
2.99731
2.99983
3.00713
2.99582
2.9859
2.97291
2.9375
2.85527
2.71975
2.63007
2.60636
2.6045
2.6218
2.65527
2.65654
2.63939
2.61835
2.58217
2.51473
2.41705
2.34925
2.32499
2.32007
2.32913
2.33291
2.32809
2.32827
2.33317
2.35855
2.42955
2.57246
2.79582
3.06789
3.31042
3.49678
3.66921
3.84015
3.85093
3.85169
3.88175
3.9082
3.94924
3.98243
3.97734
3.94459
3.87648
3.79481
3.70573
3.61159
3.54738
3.51192
3.50066
3.49965
3.51407
3.51832
3.50269
3.48577
3.45092
3.42819
3.45508
3.55857
3.72161
3.8506
3.95086
4.04606
4.10396
4.15482
4.17115
4.15375
4.12183
4.0667
3.9862
3.88671
3.78136
3.69945
3.67455
3.66417
3.66884
3.69231
3.68612
3.66563
3.63838
3.57264
3.45118
2.57479
2.54625
2.48771
2.41823
2.38528
2.37985
2.38286
2.39534
2.39355
2.38436
2.36004
2.30954
2.26101
2.23683
2.22995
2.22729
2.22564
2.22112
2.21232
2.18965
2.13545
2.07774
2.06123
2.05739
2.05503
2.05902
2.06021
2.05161
2.04165
2.0237
1.98054
1.92658
1.90464
1.90005
1.89849
1.91174
1.95925
2.13022
2.43703
2.73328
3.04782
3.1337
3.09879
3.06853
3.06721
3.06725
3.08447
3.06965
3.04399
3.02401
2.99437
2.92816
2.80158
2.69646
2.66607
2.66504
2.68214
2.70994
2.7081
2.69218
2.67341
2.64073
2.57288
2.47186
2.40907
2.39309
2.39372
2.40919
2.44712
2.51514
2.63244
2.79178
2.96619
3.21324
3.47862
3.71618
3.94908
4.08046
4.07179
4.02636
4.04598
4.12035
4.17233
4.18962
4.19775
4.18037
4.14393
4.09196
4.0134
3.91089
3.79161
3.71185
3.65531
3.61227
3.59395
3.58478
3.5645
3.54412
3.53066
3.51901
3.51807
3.51955
3.54439
3.62117
3.76856
3.96725
4.10271
4.14653
4.20126
4.21726
4.22475
4.21852
4.20157
4.17182
4.13502
4.09597
4.01487
3.88685
3.78018
3.75115
3.73757
3.7372
3.73957
3.72507
3.70167
3.67762
3.63343
3.53704
3.42785
2.59573
2.53839
2.46902
2.43086
2.42388
2.42605
2.44477
2.44945
2.43949
2.41144
2.35436
2.2956
2.27121
2.26597
2.26756
2.27033
2.26556
2.25684
2.23624
2.18453
2.11983
2.09345
2.08935
2.0873
2.09333
2.09973
2.09362
2.08455
2.06838
2.0291
1.9736
1.94134
1.93508
1.93191
1.93008
1.92915
1.9345
1.96454
2.07123
2.27994
2.61395
2.95917
3.01056
3.04306
3.08753
3.12412
3.13712
3.11627
3.08419
3.05024
2.99351
2.88689
2.77018
2.72611
2.72147
2.73167
2.76385
2.76214
2.74603
2.72931
2.70339
2.63731
2.54068
2.50036
2.5118
2.58131
2.7161
2.92389
3.19644
3.5381
3.84571
4.03698
4.22509
4.41928
4.50827
4.55703
4.55742
4.53278
4.47239
4.35048
4.28688
4.29272
4.32343
4.30263
4.28179
4.25747
4.22799
4.18533
4.09874
3.9435
3.7684
3.68925
3.67379
3.67293
3.69072
3.69221
3.67288
3.64926
3.63211
3.61193
3.60659
3.64871
3.77017
3.96896
4.19268
4.32064
4.33673
4.35335
4.36546
4.35126
4.3177
4.27584
4.23588
4.20722
4.16556
4.07989
3.98003
3.88784
3.84139
3.81954
3.81104
3.80426
3.78028
3.75595
3.73277
3.69104
3.59892
3.4829
3.41578
2.58018
2.51557
2.47845
2.47061
2.47355
2.49417
2.50188
2.4914
2.4609
2.40207
2.33612
2.30587
2.30054
2.30232
2.3152
2.31406
2.3048
2.28393
2.23237
2.16239
2.12772
2.12212
2.11997
2.12805
2.14092
2.13753
2.12844
2.11246
2.07377
2.01707
1.9812
1.97378
1.97015
1.97269
1.96831
1.95816
1.95062
1.93947
1.93836
1.98654
2.15165
2.5188
2.8473
2.96656
3.06512
3.14909
3.16307
3.14937
3.11516
3.05962
2.97001
2.85087
2.7887
2.77901
2.7777
2.80327
2.82095
2.81261
2.80235
2.78438
2.75722
2.76819
2.83723
3.00807
3.28812
3.62324
3.98717
4.31885
4.59353
4.82178
4.88207
4.82574
4.70839
4.63839
4.60067
4.5985
4.58047
4.5531
4.49839
4.43968
4.38438
4.33201
4.29285
4.26037
4.235
4.20652
4.17517
4.13425
4.05115
3.92424
3.79387
3.74727
3.73443
3.7318
3.7324
3.73408
3.73891
3.74836
3.75973
3.79593
3.84182
3.98714
4.17395
4.36782
4.43821
4.41922
4.40881
4.41463
4.41827
4.39713
4.36573
4.32848
4.27816
4.20825
4.11969
4.00928
3.91646
3.88757
3.87078
3.86478
3.87812
3.86353
3.83119
3.79519
3.7392
3.64461
3.53294
3.45572
3.43286
2.56185
2.52557
2.51751
2.52282
2.54754
2.55506
2.54236
2.50818
2.44735
2.37881
2.34442
2.33801
2.33944
2.35651
2.36277
2.3545
2.33241
2.28062
2.20642
2.16439
2.1569
2.15459
2.16397
2.18307
2.1841
2.17455
2.15595
2.11615
2.05826
2.02007
2.01097
2.00633
2.00704
2.00813
2.00127
1.99125
1.97351
1.94021
1.91353
1.91346
1.95127
2.11385
2.48668
2.77256
2.96578
3.13317
3.16538
3.16048
3.12656
3.05415
2.93503
2.85335
2.84337
2.84602
2.86877
2.90989
2.95991
3.05175
3.20304
3.36868
3.56472
3.83737
4.12308
4.37405
4.62813
4.83456
5.01216
5.05761
5.05205
5.0038
4.95442
4.88544
4.82135
4.7394
4.65135
4.56974
4.52843
4.48863
4.42862
4.39209
4.36685
4.32846
4.28697
4.24878
4.20816
4.17061
4.1357
4.0814
3.97939
3.87637
3.81773
3.79226
3.77465
3.76998
3.77201
3.78747
3.82971
3.92253
4.02638
4.12987
4.27572
4.46957
4.54431
4.51647
4.48133
4.45483
4.43593
4.42669
4.40781
4.38496
4.35583
4.31091
4.24338
4.15546
4.05558
3.96648
3.90756
3.88414
3.87447
3.90303
3.93295
3.91615
3.88768
3.84586
3.73932
3.57842
3.48872
3.46573
3.45908
2.57987
2.57092
2.57424
2.59817
2.6062
2.59192
2.55573
2.49364
2.42289
2.38571
2.37822
2.37998
2.40028
2.41165
2.40343
2.37947
2.3272
2.25145
2.20436
2.19415
2.19254
2.20383
2.22742
2.23167
2.22204
2.19998
2.15684
2.09836
2.05829
2.04781
2.04427
2.04511
2.04447
2.0378
2.03014
2.01381
1.98076
1.93907
1.91567
1.91255
1.91734
1.95596
2.11097
2.42281
2.70581
2.99108
3.13942
3.13832
3.11583
3.03487
2.95539
2.95129
2.99905
3.13594
3.35043
3.64324
3.97944
4.3398
4.62003
4.82912
5.01726
5.17028
5.26954
5.37671
5.47959
5.52268
5.49531
5.4152
5.23012
5.04499
4.93708
4.91379
4.91058
4.88524
4.82121
4.71627
4.60583
4.50463
4.39873
4.3538
4.34241
4.32724
4.32059
4.30041
4.25788
4.20853
4.14458
4.03431
3.91883
3.8527
3.83047
3.81456
3.80788
3.82972
3.88529
3.97409
4.11689
4.26842
4.4026
4.55975
4.65494
4.69396
4.68317
4.64617
4.57742
4.53784
4.52176
4.49809
4.45265
4.40327
4.3529
4.29508
4.22666
4.1288
4.01673
3.95445
3.93712
3.92735
3.94934
3.99717
3.99132
3.96731
3.93777
3.85782
3.70068
3.55524
3.50199
3.48842
3.4819
2.62896
2.63566
2.65267
2.65311
2.63679
2.59912
2.5384
2.47047
2.43169
2.42301
2.42392
2.44483
2.45956
2.45159
2.42578
2.37335
2.29759
2.24702
2.23391
2.23303
2.24716
2.27496
2.28036
2.26897
2.24221
2.19556
2.13724
2.09742
2.08572
2.08271
2.08476
2.08729
2.07733
2.06273
2.04336
2.01726
1.98278
1.94876
1.93712
1.93073
1.92801
1.93491
1.96564
2.08501
2.32843
2.64918
3.01517
3.08057
3.16646
3.31478
3.48956
3.72512
4.07795
4.49971
4.94407
5.33687
5.57266
5.68601
5.7068
5.70531
5.61796
5.48743
5.49103
5.53763
5.59382
5.60072
5.5508
5.45104
5.27388
5.04557
4.89769
4.86874
4.86148
4.86468
4.84373
4.79814
4.72165
4.6079
4.46577
4.39107
4.37038
4.36606
4.38503
4.38717
4.35196
4.2784
4.14592
3.99256
3.90145
3.88098
3.87345
3.8786
3.91632
4.01391
4.16927
4.35099
4.53288
4.6406
4.71996
4.79037
4.81483
4.81542
4.80666
4.78108
4.72263
4.65074
4.56997
4.48308
4.40882
4.36234
4.33586
4.30546
4.24194
4.13006
4.02644
3.99499
3.97971
3.98423
4.01076
4.00177
3.98352
3.96164
3.91821
3.81225
3.64818
3.56171
3.54211
3.52885
3.52715
2.69423
2.71826
2.7128
2.68726
2.63839
2.57273
2.51411
2.48033
2.47207
2.47452
2.49434
2.50541
2.49639
2.46885
2.41738
2.34442
2.29334
2.27785
2.27731
2.29265
2.32232
2.32773
2.31424
2.28283
2.23309
2.17486
2.13683
2.12643
2.12496
2.12694
2.1288
2.12047
2.09943
2.07077
2.04679
2.02149
1.99129
1.9792
1.97308
1.96444
1.95339
1.94954
1.95506
1.97813
2.0555
2.25292
2.65902
3.33756
4.05361
4.67267
5.01995
5.28369
5.60366
5.84401
5.96247
5.9666
5.94249
5.89709
5.85282
5.75988
5.63187
5.5491
5.53947
5.55459
5.55886
5.51906
5.4406
5.31018
5.15734
5.01833
4.90645
4.86319
4.84115
4.8377
4.8258
4.79998
4.75626
4.66648
4.55934
4.49078
4.44926
4.42197
4.39846
4.368
4.32205
4.24232
4.11781
4.00455
3.97336
3.96637
3.97769
4.03992
4.17716
4.38948
4.60873
4.76712
4.86597
4.85554
4.85788
4.8935
4.92793
4.93832
4.91296
4.86576
4.78839
4.66996
4.55717
4.46727
4.40421
4.35434
4.30323
4.25377
4.20331
4.1341
4.0911
4.06777
4.05671
4.05546
4.03095
3.99505
3.96815
3.93592
3.86266
3.73384
3.62245
3.58709
3.56982
3.56025
3.57035
2.76245
2.76264
2.73954
2.69392
2.62134
2.55669
2.52578
2.51938
2.52702
2.55072
2.55646
2.54313
2.51031
2.45605
2.38748
2.3404
2.32489
2.32521
2.34244
2.3695
2.37154
2.35562
2.32146
2.27035
2.21387
2.17788
2.16868
2.16874
2.17356
2.17157
2.15889
2.13508
2.10598
2.07624
2.05343
2.03444
2.02266
2.01854
2.01142
2.00031
1.9997
2.02311
2.10536
2.27524
2.56578
3.0136
3.64687
4.33086
4.97174
5.52377
5.94832
6.24666
6.51557
6.55307
6.50865
6.3515
6.10145
5.89449
5.76263
5.67577
5.62172
5.63289
5.70396
5.67785
5.60059
5.46619
5.26936
5.12208
5.06619
5.0073
4.95597
4.92089
4.88442
4.85711
4.83343
4.79549
4.7082
4.63501
4.59124
4.54822
4.4996
4.44709
4.39287
4.33692
4.26088
4.15615
4.08557
4.06948
4.07432
4.11951
4.23959
4.45913
4.71637
4.90554
5.03953
5.04189
4.93613
4.91855
4.9206
4.95869
5.04264
5.0384
4.98058
4.88937
4.76751
4.64982
4.55143
4.47839
4.41835
4.36404
4.30311
4.22453
4.16776
4.14588
4.13711
4.13912
4.13606
4.10568
4.06498
4.02474
3.96744
3.8699
3.74126
3.65958
3.6406
3.62484
3.61209
3.61523
3.6352
2.79483
2.77066
2.73216
2.67417
2.61237
2.579
2.57216
2.57782
2.60102
2.60557
2.5903
2.55483
2.49776
2.43
2.38621
2.37241
2.37386
2.39403
2.41747
2.41486
2.39493
2.35772
2.30581
2.25356
2.22176
2.2139
2.21409
2.21821
2.21426
2.19788
2.16612
2.13642
2.11195
2.08926
2.0771
2.07464
2.07228
2.06736
2.08306
2.14662
2.32061
2.6522
3.06325
3.43014
3.77384
4.05488
4.28559
4.51395
4.82777
5.25106
5.79953
6.20933
6.47365
6.57166
6.53987
6.44922
6.25752
5.97759
5.81589
5.76842
5.76902
5.83972
5.84311
5.76839
5.62003
5.40055
5.18129
5.08057
5.04423
5.02145
5.02625
5.04268
5.00771
4.95909
4.90085
4.76343
4.64756
4.61197
4.59112
4.56535
4.52544
4.47125
4.40503
4.3153
4.19957
4.11952
4.10097
4.11723
4.20695
4.41524
4.71274
5.03385
5.2449
5.26797
5.18035
5.06678
5.00265
4.97689
4.98422
5.02621
5.00896
4.95959
4.89017
4.80506
4.71717
4.64673
4.59367
4.54316
4.4792
4.38683
4.27726
4.20148
4.17065
4.15294
4.14337
4.17072
4.18535
4.15818
4.11893
4.05496
3.91872
3.75067
3.66489
3.6374
3.62826
3.63954
3.6771
3.7071
3.69972
2.82716
2.77458
2.71149
2.65802
2.63027
2.62607
2.63781
2.65864
2.65554
2.6341
2.59391
2.53577
2.47363
2.43378
2.42195
2.42384
2.44472
2.46273
2.45666
2.43274
2.39289
2.34056
2.29461
2.26747
2.2613
2.26177
2.26311
2.25588
2.23368
2.19851
2.16574
2.14329
2.13529
2.13458
2.13777
2.16129
2.22929
2.40341
2.71631
3.09746
3.56303
3.94002
4.24332
4.3516
4.30763
4.27237
4.2767
4.35527
4.49768
4.7418
5.17701
5.65043
5.95469
6.22315
6.27967
6.22788
6.07382
5.94836
5.90672
5.8655
5.83065
5.81823
5.79211
5.73083
5.58615
5.35559
5.17415
5.11937
5.09581
5.10095
5.15888
5.17113
5.13395
5.05762
4.89141
4.71311
4.63055
4.60544
4.59277
4.58284
4.55222
4.5094
4.4385
4.31526
4.1879
4.15912
4.19323
4.31969
4.57594
4.90956
5.2373
5.3723
5.38252
5.33252
5.23657
5.15796
5.12955
5.1135
5.09291
5.04763
4.96703
4.86239
4.76642
4.71061
4.68076
4.65945
4.63736
4.60163
4.5434
4.41955
4.26846
4.20355
4.18287
4.16693
4.17254
4.21526
4.21588
4.19053
4.14491
4.02842
3.8392
3.71141
3.66647
3.65009
3.64009
3.66408
3.74747
3.77933
3.76324
2.83963
2.78679
2.72567
2.68918
2.68223
2.68759
2.70759
2.70301
2.67879
2.63805
2.57673
2.51484
2.4788
2.4703
2.47529
2.49891
2.50959
2.49869
2.46942
2.4253
2.37387
2.33536
2.31441
2.31004
2.31188
2.31003
2.29819
2.26914
2.22873
2.19532
2.18459
2.18855
2.22265
2.30743
2.46824
2.78272
3.20697
3.67209
4.06977
4.37877
4.63526
4.65526
4.61544
4.56798
4.51487
4.4396
4.41174
4.40612
4.43191
4.4736
4.57818
4.83845
5.15714
5.50731
5.91886
6.00668
5.93909
5.93736
5.95017
5.93775
5.87162
5.79387
5.72566
5.62894
5.47167
5.31397
5.23984
5.21171
5.19938
5.22197
5.2494
5.22711
5.16008
5.02
4.82345
4.69623
4.66028
4.63865
4.6282
4.61917
4.59304
4.55695
4.46665
4.33936
4.32064
4.39394
4.56401
4.83259
5.15874
5.41661
5.47669
5.44567
5.37784
5.336
5.30258
5.28602
5.28652
5.25022
5.18792
5.07871
4.8882
4.74789
4.69636
4.67169
4.66394
4.67573
4.67244
4.64896
4.59092
4.4601
4.31469
4.25057
4.22473
4.21566
4.24131
4.26095
4.23745
4.19334
4.12115
3.97814
3.79855
3.7127
3.69364
3.68076
3.68494
3.74393
3.78633
3.77178
3.74077
2.81622
2.78878
2.77176
2.7649
2.75505
2.7439
2.73074
2.70829
2.6758
2.62624
2.56782
2.52957
2.52118
2.52522
2.54791
2.55588
2.54203
2.5101
2.46143
2.40881
2.37467
2.35928
2.35724
2.36204
2.35801
2.34246
2.30491
2.25927
2.24209
2.25177
2.32695
2.51886
2.87796
3.3422
3.7761
4.13872
4.40198
4.65796
4.74193
4.75807
4.7545
4.66513
4.55165
4.51278
4.49759
4.52818
4.56791
4.54072
4.48337
4.41475
4.32608
4.32702
4.42185
4.65345
5.05832
5.4989
5.70926
5.86038
5.94611
5.9335
5.86361
5.75466
5.63901
5.51336
5.40244
5.33505
5.30535
5.29153
5.3011
5.28346
5.24994
5.19411
5.08753
4.91588
4.78226
4.72822
4.7008
4.68048
4.66998
4.65668
4.64053
4.58418
4.53323
4.56947
4.72607
4.99228
5.29155
5.56599
5.69648
5.69917
5.58015
5.39392
5.3112
5.29033
5.3009
5.36197
5.36112
5.31951
5.23078
5.05285
4.84573
4.72927
4.68978
4.66361
4.6497
4.66967
4.66297
4.62215
4.56486
4.48567
4.41407
4.36412
4.31885
4.27834
4.23938
4.19764
4.16573
4.12094
4.03852
3.92015
3.81755
3.77333
3.75001
3.73939
3.76254
3.81737
3.81587
3.79349
3.75115
2.82996
2.81017
2.81433
2.83286
2.82136
2.79417
2.74875
2.6961
2.65199
2.61477
2.58654
2.57938
2.58243
2.59621
2.59707
2.58127
2.54892
2.50131
2.44979
2.41611
2.40446
2.40279
2.40878
2.40719
2.38774
2.34372
2.32676
2.36171
2.52184
2.88122
3.38723
3.92299
4.4021
4.65283
4.83728
4.98618
4.99599
4.9941
4.9753
4.90884
4.78093
4.62705
4.50467
4.46858
4.46434
4.48964
4.50997
4.48835
4.44676
4.37486
4.24982
4.17489
4.17317
4.22711
4.40755
4.79412
5.23805
5.54862
5.79389
5.82708
5.79307
5.70142
5.57437
5.45987
5.40928
5.39005
5.38166
5.3775
5.34547
5.29857
5.22364
5.10507
4.94811
4.8359
4.78506
4.7598
4.74493
4.73603
4.7176
4.70503
4.66667
4.67402
4.76823
4.99543
5.29305
5.63357
5.91255
5.99264
5.95943
5.81274
5.55656
5.37037
5.31162
5.29216
5.35615
5.41273
5.37608
5.30428
5.18487
5.00299
4.84272
4.76012
4.71629
4.68501
4.65682
4.62828
4.60118
4.55436
4.50221
4.47907
4.47186
4.45279
4.41737
4.35795
4.27554
4.19832
4.11662
4.01855
3.91912
3.8684
3.85274
3.84131
3.84086
3.85804
3.85554
3.82739
3.7856
3.74576
3.69974
2.90906
2.86501
2.84259
2.83204
2.8326
2.81181
2.76567
2.70603
2.65575
2.63084
2.62817
2.6408
2.65502
2.64835
2.62402
2.58282
2.53248
2.48806
2.45856
2.44951
2.44896
2.46087
2.45691
2.43875
2.46424
2.5898
2.8598
3.33733
3.94617
4.603
4.88158
4.9334
4.97152
4.99254
5.02408
5.0528
5.01716
4.95537
4.90074
4.83326
4.75144
4.66372
4.61107
4.57862
4.54778
4.51107
4.48104
4.44853
4.40142
4.32241
4.21724
4.15322
4.1352
4.12965
4.15635
4.28856
4.59653
4.97138
5.32774
5.66741
5.72138
5.66161
5.52843
5.46692
5.45234
5.46235
5.47459
5.44903
5.40037
5.30829
5.14768
4.96325
4.85601
4.8131
4.79362
4.79486
4.80974
4.81297
4.80602
4.79363
4.82656
4.97594
5.22094
5.4729
5.76698
6.02797
6.09434
6.08426
5.99635
5.78499
5.54073
5.41579
5.36955
5.36214
5.3587
5.32015
5.27802
5.20804
5.07826
4.95016
4.89255
4.85617
4.81083
4.75554
4.69457
4.62433
4.54736
4.50563
4.49147
4.49827
4.51114
4.49875
4.4713
4.43011
4.34612
4.1933
4.0222
3.91961
3.87912
3.86332
3.85733
3.88535
3.939
3.94195
3.91398
3.86911
3.81269
3.72277
3.64306
2.95022
2.943
2.90986
2.85686
2.81541
2.80076
2.77833
2.73476
2.69842
2.68929
2.68926
2.69889
2.69112
2.66562
2.62724
2.57465
2.52616
2.49852
2.49497
2.50825
2.52316
2.55958
2.67325
2.93284
3.38246
3.95931
4.52063
5.06213
5.37489
5.43478
5.39441
5.32314
5.27186
5.21828
5.14827
5.06162
4.97488
4.86136
4.78698
4.75617
4.72729
4.71128
4.70122
4.67259
4.6299
4.56648
4.49347
4.41531
4.34706
4.2782
4.19679
4.15583
4.13164
4.10715
4.10234
4.10759
4.16445
4.34477
4.63245
5.02589
5.43401
5.48149
5.47126
5.50832
5.53244
5.54276
5.49949
5.44508
5.37331
5.25423
5.07648
4.9176
4.84008
4.81985
4.82916
4.8827
4.9342
4.96613
5.04074
5.15697
5.35442
5.56881
5.75887
5.93967
6.08563
6.13631
6.10882
6.03041
5.90838
5.73359
5.61947
5.5792
5.55109
5.49192
5.40748
5.30739
5.18308
5.04685
4.96033
4.92763
4.91815
4.93131
4.90751
4.85294
4.7607
4.61328
4.50553
4.46899
4.44938
4.45048
4.50573
4.52783
4.50192
4.46264
4.37142
4.16653
3.96881
3.89514
3.8753
3.86409
3.88007
3.95936
4.0067
3.99251
3.96423
3.91536
3.80239
3.67297
3.61117
2.91233
2.95525
2.95699
2.92425
2.84886
2.79975
2.77117
2.76482
2.77202
2.7672
2.75079
2.71777
2.68574
2.65794
2.61826
2.57264
2.55449
2.55946
2.60121
2.73126
2.99426
3.46068
4.03321
4.54782
5.00294
5.3474
5.50609
5.53276
5.47666
5.39553
5.32122
5.28098
5.27959
5.27746
5.23163
5.13758
4.98384
4.81314
4.72366
4.70139
4.69612
4.71193
4.71687
4.69396
4.65956
4.59751
4.49057
4.38006
4.30187
4.24116
4.19472
4.17206
4.14834
4.12164
4.08879
4.06436
4.03323
4.04414
4.13166
4.34243
4.73403
5.14168
5.32083
5.47099
5.56407
5.55998
5.51331
5.4338
5.32894
5.1868
5.03643
4.94354
4.91776
4.91851
4.97424
5.04005
5.12348
5.28898
5.51976
5.7348
5.92625
6.07801
6.20144
6.26481
6.22992
6.11578
5.9709
5.832
5.75719
5.72153
5.70616
5.72551
5.69599
5.60353
5.43832
5.20583
5.02312
4.95533
4.92903
4.92264
4.97336
5.01408
4.98595
4.92286
4.78678
4.59219
4.48695
4.45682
4.43823
4.4485
4.5338
4.56906
4.5398
4.48881
4.38143
4.16137
3.96661
3.91145
3.8925
3.88585
3.941
4.06156
4.07763
4.05231
4.01112
3.91744
3.76268
3.64892
3.60599
2.74365
2.90933
2.94471
2.93988
2.90094
2.82864
2.80287
2.803
2.82323
2.82025
2.79176
2.74035
2.68323
2.64298
2.62778
2.64387
2.74718
3.00208
3.47883
4.12498
4.74041
5.25376
5.55603
5.79565
5.87124
5.86245
5.82699
5.71554
5.51096
5.32703
5.2257
5.20635
5.20899
5.18302
5.13922
5.0763
4.96951
4.82775
4.74999
4.7249
4.71109
4.70956
4.70248
4.6819
4.65749
4.59013
4.46206
4.3459
4.27623
4.2283
4.20056
4.18015
4.16177
4.13816
4.10694
4.06525
3.99298
3.93629
3.93315
3.97414
4.13814
4.52619
4.90541
5.1813
5.43282
5.45998
5.42207
5.33921
5.22058
5.10582
5.05469
5.04598
5.0706
5.12999
5.21676
5.3302
5.52264
5.7615
5.93235
6.10693
6.30691
6.46257
6.4802
6.42017
6.28106
6.03135
5.80432
5.7152
5.68329
5.71207
5.83005
5.82804
5.75727
5.63726
5.40677
5.12602
4.98066
4.94045
4.92351
4.9716
5.09349
5.09586
5.04692
4.96278
4.79331
4.59375
4.50511
4.47236
4.45124
4.43798
4.43904
4.46578
4.46047
4.42163
4.33682
4.17655
4.03345
3.9746
3.94973
3.94654
3.98771
4.02555
4.02135
4.00003
3.96412
3.87592
3.73577
3.65124
3.63122
2.33403
2.64199
2.76864
2.86326
2.8876
2.88205
2.86318
2.82825
2.80955
2.80762
2.79484
2.75672
2.75703
2.8136
3.02531
3.48296
4.11042
4.74565
5.35105
5.62112
5.85201
5.90381
5.90628
5.90235
5.86977
5.80571
5.72869
5.65165
5.57158
5.46215
5.37625
5.30224
5.21198
5.12969
5.06773
5.0052
4.93042
4.86121
4.82754
4.80926
4.79416
4.77285
4.74294
4.70411
4.6431
4.54495
4.42292
4.33591
4.28171
4.25083
4.23543
4.23639
4.23042
4.20372
4.16379
4.09101
3.9849
3.91757
3.88702
3.8778
3.89626
4.02263
4.30459
4.60157
4.94133
5.24115
5.26523
5.18612
5.09858
5.08363
5.12273
5.22896
5.36021
5.52511
5.74132
5.9544
6.07521
6.14922
6.24938
6.37668
6.51712
6.54753
6.50373
6.41299
6.23337
5.97256
5.76663
5.68353
5.65153
5.67595
5.7459
5.75637
5.70607
5.60023
5.37949
5.12133
5.01344
4.97928