/*--------------------------------*- C++ -*----------------------------------*\
  =========                 |
  \\      /  F ield         | OpenFOAM: The Open Source CFD Toolbox
   \\    /   O peration     | Website:  https://openfoam.org
    \\  /    A nd           | Version:  7
     \\/     M anipulation  |
\*---------------------------------------------------------------------------*/
FoamFile
{
    version     2.0;
    format      ascii;
    class       volScalarField;
    location    "0.8";
    object      p;
}
// * * * * * * * * * * * * * * * * * * * * * * * * * * * * * * * * * * * * * //

dimensions      [1 -1 -2 0 0 0 0];

internalField   nonuniform List<scalar> 
4040
(
1
1
1
1
1
1
1
1
1
1
1
1
1
1
1
2.89322
9.94676
11.0703
11.2652
11.4786
11.6824
11.8584
12.0056
12.1279
1
1
1
1
1
1
1
1
1
1
1
1
1
1
1
2.77009
9.76414
11.0163
11.2137
11.4217
11.6254
11.8021
11.9244
12.0038
1
1
1
1
1
1
1
1
1
1
1
1
1
1
1
2.47604
9.43538
10.9359
11.1279
11.319
11.4972
11.6336
11.7629
11.8709
1
1
1
1
1
1
1
1
1
1
1
1
1
1
1
2.07384
8.9249
10.8382
10.9968
11.1855
11.3626
11.5364
11.6212
11.9373
1
1
1
1
1
1
1
1
1
1
1
1
1
1
1
1.55672
8.15071
10.7569
10.8803
11.0659
11.1799
11.267
10.9978
10.7393
1
1
1
1
1
1
1
1
1
1
1
1
1
1
1
1.05931
7.03432
10.5915
10.7149
10.8513
10.8958
10.9143
10.6772
10.5746
1
1
1
1
1
1
1
1
1
1
1
1
1
1
1
1.00067
5.57941
10.2164
10.5292
10.6569
10.6618
10.648
10.4748
10.3077
1
1
1
1
1
1
1
1
1
1
1
1
1
1
1
1
3.99201
9.65173
10.3324
10.4467
10.4649
10.4159
10.2457
10.0853
1
1
1
1
1
1
1
1
1
1
1
1
1
1
1
1
2.34839
8.68876
10.2068
10.2047
10.1948
10.102
9.91929
9.61213
1
1
1
1
1
1
1
1
1
1
1
1
1
1
1
1
1.16589
7.18373
9.98641
9.91211
9.87595
9.72717
9.46728
8.98076
1
1
1
1
1
1
1
1
1
1
1
1
1
1
1
1
1.00289
4.93868
9.47065
9.745
9.68327
9.4983
9.13931
8.58152
1
1
1
1
1
1
1
1
1
1
1
1
1
1
1
1
0.999996
2.49905
8.52365
9.7174
9.45322
9.20656
8.78867
8.20502
1
1
1
1
1
1
1
1
1
1
1
1
1
1
1
1
0.999999
1.16638
6.73577
9.42518
9.07062
8.86907
8.45529
7.89069
1
1
1
1
1
1
1
1
1
1
1
1
1
1
1
1
1
1.00218
3.86182
8.74403
8.94333
8.71809
8.29487
7.71283
1
1
1
1
1
1
1
1
1
1
1
1
1
1
1
1
1
0.999998
1.46024
7.20158
8.91647
8.55257
8.10205
7.54117
1
1
1
1
1
1
1
1
1
1
1
1
1
1
1
1
1
1
1.01618
4.41694
8.28953
8.29295
7.92436
7.42957
1
1
1
1
1
1
1
1
1
1
1
1
1
1
1
1
1
1
1.00002
1.67066
6.95255
8.28733
7.83337
7.35965
1
1
1
1
1
1
1
1
1
1
1
1
1
1
1
1
1
1
1
1.03274
4.03905
7.69876
7.67751
7.24441
1
1
1
1
1
1
1
1
1
1
1
1
1
1
1
1
1
1
1
1.00016
1.54349
6.05865
7.75169
7.27355
1
1
1
1
1
1
1
1
1
1
1
1
1
1
1
1
1
1
1
1
1.02059
2.88325
6.77274
7.28355
1
1
1
1
1
1
1
1
1
1
1
1
1
1
1
1
1
1
1
1
1.00012
1.22008
4.47124
7.0502
1
1
1
1
1
1
1
1
1
1
1
1
1
1
1
1
1
1
1
1
1
1.00431
1.80826
5.53886
1
1
1
1
1
1
1
1
1
1
1
1
1
1
1
1
1
1
1
1
1
1.00002
1.0448
2.64949
1
1
1
1
1
1
1
1
1
1
1
1
1
1
1
1
1
1
1
1
1
1
1.00044
1.17585
1
1
1
1
1
1
1
1
1
1
1
1
1
1
1
1
1
1
1
1
1
1
1
1.0035
1
1
1
1
1
1
1
1
1
1
1
1
1
1
1
1
1
1
1
1
1
1
1
1.00001
1
1
1
1
1
1
1
1
1
1
1
1
1
1
1
1
1
1
1
1
1
1
1
1
1
1
1
1
1
1
1
1
1
1
1
1
1
1
1
1
1
1
1
1
1
1
1
1
1
1
1
1
1
1
1
1
1
1
1
1
1
1
1
1
1
1
1
1
1
1
1
1
1
1
1
1
1
1
1
1
1
1
1
1
1
1
1
1
1
1
1
1
1
1
1
1
1
1
1
1
1
1
1
1
1
1
1
1
1
1
1
1
1
1
1
1
1
1
1
1
1
1
1
1
1
1
1
1
1
1
1
1
1
1
1
1
1
1
1
1
1
1
1
1
1
1
1
1
1
1
1
1
1
1
1
1
1
1
1
1
1
1
1
1
1
1
1
1
1
1
1
1
1
1
1
1
1
1
1
1
1
1
1
1
1
1
1
1
1
1
1
1
1
1
1
1
1
1
1
1
1
1
1
1
1
1
1
1
1
1
1
1
1
1
1
1
1
1
1
1
1
1
1
1
1
1
1
1
1
1
1
1
1
1
1
1
1
1
1
1
1
1
1
1
1
1
1
1
1
1
1
1
1
1
1
1
1
1
1
1
1
1
1
1
1
1
1
1
1
1
1
1
1
1
1
1
1
1
1
1
1
1
1
1
1
1
1
1
1
1
1
1
1
1
1
1
1
1
1
1
1
1
1
1
1
1
1
1
1
1
1
1
1
1
1
1
1
1
1
1
1
1
1
1
1
1
1
1
1
1
1
1
1
1
1
1
9.4164
9.96319
10.359
10.7473
10.1411
10.296
10.0055
10.3613
8.90446
7.1174
8.13213
6.29669
7.61726
6.01023
7.21237
5.88554
7.00008
5.92407
6.91716
5.9869
6.83653
6.04442
6.79677
6.10768
6.781
6.16989
6.75283
6.21647
6.80234
6.2898
6.77704
6.31443
6.80058
6.36149
6.82588
6.46467
5.94005
6.48517
3.42351
5.94208
1.3934
3.97183
1.0132
1.65206
1.00009
1.03246
1
1.00031
1
1
1
1
1
1
1
1
1
1
1
1
1
1
1
1
1
1
1
1
1
1
1
1
1.84276
0.604867
0.250743
0.262309
0.349455
0.394787
0.46886
0.643792
0.828424
0.891129
0.894641
0.931
0.972014
1.00641
1.06198
1.1368
1.1622
1.16502
1.1471
1.12488
1.11182
1.10439
1.09605
1.08632
1.08262
1.07898
1.06357
1.03284
1.01572
1.00814
0.99941
0.990801
0.989547
0.992852
0.980585
0.964408
0.941231
0.913439
0.903845
0.900183
0.895361
0.885961
0.87641
0.870129
0.869147
0.86687
0.858481
0.844476
0.828286
0.818654
0.81319
0.809372
0.80786
0.808775
0.811846
0.81855
0.824411
0.829023
0.834297
0.840303
0.8507
0.862507
0.87131
0.876301
0.880959
0.882503
0.874089
0.871441
0.876036
0.879407
0.883448
0.890581
0.906252
0.911908
0.906798
0.906329
0.907783
0.911186
0.917784
0.926758
0.936531
0.946006
0.953872
0.96203
0.969513
0.970074
0.96066
0.973449
1.01671
1.01513
1.00347
0.989273
0.981795
0.981873
2.96363
1.73393
1.00566
0.787258
0.754732
0.672534
0.625272
0.639108
0.646391
0.673276
0.709526
0.765124
0.840111
0.898604
0.959992
1.02988
1.08109
1.09938
1.09341
1.08505
1.08335
1.08624
1.08598
1.07776
1.07419
1.07445
1.06456
1.04222
1.02702
1.02037
1.01204
1.00177
0.994561
0.983436
0.967873
0.954855
0.938933
0.915133
0.895391
0.889065
0.883237
0.875469
0.866852
0.858538
0.856139
0.854627
0.847166
0.837548
0.830723
0.828515
0.828758
0.828241
0.826033
0.81964
0.816454
0.81995
0.824307
0.828784
0.834674
0.84072
0.848898
0.859972
0.867199
0.871115
0.87393
0.875289
0.874368
0.877397
0.883019
0.885871
0.889826
0.896838
0.909357
0.912368
0.906207
0.904783
0.906249
0.910219
0.91784
0.927238
0.935931
0.943173
0.948068
0.949839
0.949131
0.947391
0.9537
0.978969
1.0096
1.00402
0.994665
0.982708
0.975003
0.975069
3.72778
2.56728
1.84092
1.33481
1.10252
0.923075
0.759433
0.711503
0.690181
0.668485
0.690377
0.749714
0.809944
0.849432
0.881563
0.928978
0.990921
1.04478
1.06701
1.08436
1.10354
1.12173
1.12204
1.10887
1.09033
1.07322
1.05394
1.03299
1.01978
1.01488
1.01006
1.00398
0.994512
0.979269
0.967618
0.955905
0.936971
0.920341
0.911398
0.906141
0.900094
0.890302
0.876839
0.86222
0.849663
0.840065
0.829054
0.817846
0.817714
0.821358
0.825903
0.830807
0.834221
0.835157
0.831609
0.827658
0.829261
0.834218
0.84124
0.848332
0.857609
0.868214
0.872881
0.870867
0.861078
0.858723
0.862342
0.867957
0.878267
0.890235
0.898772
0.907506
0.918025
0.918406
0.910389
0.905114
0.904438
0.907106
0.91502
0.926503
0.937353
0.945387
0.949287
0.950607
0.95351
0.958326
0.966187
0.99188
1.01723
1.00622
0.997969
0.989009
0.982251
0.981877
4.29942
3.23237
2.45396
1.91675
1.59253
1.3499
1.07472
0.9615
0.923348
0.846506
0.763252
0.767035
0.763105
0.754786
0.762788
0.797036
0.863161
0.931197
0.975992
1.00922
1.04241
1.07938
1.09749
1.09614
1.09076
1.08348
1.06886
1.04708
1.02997
1.02381
1.01796
1.00603
0.988189
0.970785
0.959055
0.94665
0.924651
0.913445
0.909132
0.904653
0.899409
0.890453
0.879115
0.866202
0.851335
0.837958
0.82619
0.81695
0.817749
0.821406
0.826407
0.83288
0.837744
0.839652
0.835985
0.827039
0.821587
0.823214
0.829845
0.837711
0.848928
0.861531
0.869608
0.871857
0.870706
0.869994
0.868844
0.87154
0.879227
0.888715
0.897083
0.904386
0.911653
0.913087
0.908781
0.90579
0.906367
0.909971
0.917242
0.92642
0.93458
0.939054
0.93914
0.939759
0.946452
0.959406
0.977938
1.00903
1.01453
0.997658
0.988833
0.98257
0.980189
0.980985
4.71565
3.79293
3.05842
2.42078
2.00709
1.72716
1.44688
1.2626
1.16268
1.04671
0.896356
0.833768
0.809139
0.763238
0.742917
0.755836
0.782633
0.825798
0.877013
0.919341
0.960463
1.00257
1.03127
1.03708
1.04504
1.05911
1.0595
1.05125
1.04943
1.05098
1.04637
1.03212
1.00876
0.982952
0.957258
0.934226
0.913005
0.903106
0.899754
0.89861
0.89633
0.892046
0.883598
0.868065
0.847697
0.83243
0.822647
0.819915
0.821705
0.825115
0.831058
0.838385
0.843802
0.846807
0.844005
0.830929
0.818679
0.817296
0.823426
0.831331
0.839148
0.846039
0.850905
0.856851
0.864146
0.870494
0.876408
0.883277
0.890747
0.897474
0.901501
0.904246
0.906614
0.905728
0.902715
0.90161
0.904993
0.91244
0.921487
0.929603
0.935463
0.937095
0.934888
0.933917
0.940663
0.958307
0.990421
1.0152
0.996191
0.986308
0.984888
0.983237
0.982548
0.985207
5.00756
4.1811
3.47475
2.88459
2.45087
2.12215
1.77458
1.53095
1.41603
1.30711
1.14432
1.02412
0.975519
0.906958
0.822173
0.807182
0.813686
0.803122
0.80454
0.819493
0.852654
0.88961
0.927488
0.963889
0.989648
1.01654
1.02449
1.01783
1.01756
1.02183
1.01955
1.01063
0.996536
0.980498
0.964408
0.948297
0.931211
0.917417
0.91005
0.903775
0.897811
0.891364
0.881569
0.864284
0.838467
0.825109
0.821354
0.820986
0.822686
0.828799
0.838608
0.84303
0.846697
0.84867
0.843209
0.827316
0.81263
0.80967
0.815595
0.823736
0.831843
0.839326
0.845765
0.853864
0.864863
0.876017
0.88305
0.889697
0.897687
0.903783
0.905461
0.904131
0.903613
0.903751
0.901592
0.900429
0.904701
0.914661
0.925714
0.933753
0.93827
0.938842
0.935772
0.932468
0.936761
0.959317
0.99911
1.00129
0.978006
0.978911
0.984402
0.989867
0.991854
0.994584
5.20895
4.48923
3.86235
3.26367
2.77704
2.4611
2.15746
1.85299
1.66285
1.52175
1.34346
1.20771
1.14232
1.07119
0.955684
0.886828
0.869438
0.833625
0.804224
0.80998
0.81821
0.823444
0.834383
0.859584
0.896968
0.937973
0.970238
0.977527
0.982507
0.990763
0.993201
0.988043
0.979113
0.964821
0.952521
0.947964
0.940534
0.931515
0.926564
0.919785
0.90913
0.895926
0.881711
0.864905
0.841342
0.826813
0.822163
0.819507
0.819599
0.825394
0.833705
0.837858
0.84047
0.840343
0.834391
0.822868
0.811347
0.807292
0.812351
0.820639
0.828782
0.836952
0.84658
0.858318
0.872912
0.884335
0.890112
0.8962
0.903688
0.907343
0.905524
0.898988
0.897062
0.89779
0.898332
0.900495
0.907301
0.917777
0.926771
0.93245
0.936304
0.937628
0.936201
0.935871
0.945203
0.975418
1.00239
0.981517
0.971363
0.978979
0.990633
0.996974
0.997061
0.997383
5.37625
4.71997
4.12867
3.58349
3.11693
2.75591
2.44277
2.12709
1.91754
1.7672
1.58255
1.3995
1.30527
1.22164
1.11701
1.03378
1.0022
0.957923
0.8799
0.846227
0.847035
0.832895
0.817011
0.81854
0.830986
0.855284
0.87791
0.897374
0.91644
0.937214
0.949914
0.955185
0.951857
0.943767
0.938267
0.934563
0.92836
0.920784
0.917903
0.918028
0.914364
0.904319
0.888411
0.872376
0.855618
0.839202
0.827629
0.820275
0.814789
0.81462
0.819208
0.824536
0.828109
0.82818
0.826899
0.824866
0.8194
0.814475
0.819348
0.827242
0.834699
0.842595
0.851654
0.862304
0.874972
0.885665
0.892377
0.898767
0.904956
0.906212
0.901657
0.895694
0.893609
0.894916
0.898669
0.904537
0.913205
0.922737
0.928865
0.931724
0.933474
0.933298
0.931554
0.934267
0.955611
0.999065
0.998136
0.970797
0.969533
0.979461
0.992703
0.996417
0.996053
0.996318
5.51006
4.9039
4.37721
3.87047
3.36769
3.01139
2.73739
2.42878
2.13588
1.95617
1.77979
1.61264
1.50227
1.40483
1.2655
1.15601
1.11193
1.06045
0.982655
0.914045
0.893703
0.866084
0.826318
0.820129
0.825878
0.835912
0.831917
0.824329
0.829766
0.850451
0.863111
0.872133
0.882791
0.896685
0.910534
0.917349
0.913317
0.905394
0.906585
0.908906
0.909267
0.90504
0.896779
0.88768
0.877406
0.862181
0.844188
0.829202
0.819913
0.810648
0.808597
0.812173
0.81532
0.818777
0.82442
0.830162
0.829651
0.822737
0.825664
0.832564
0.838262
0.843931
0.851142
0.860759
0.873188
0.884681
0.892297
0.898088
0.901845
0.900046
0.896656
0.89329
0.890839
0.893565
0.901654
0.912021
0.921731
0.928872
0.932111
0.932049
0.929791
0.925019
0.922788
0.934397
0.983252
1.02531
0.988039
0.969275
0.969268
0.978212
0.991495
0.99445
0.993912
0.994242
5.63443
5.07038
4.5672
4.10683
3.64127
3.24329
2.94985
2.66063
2.39151
2.19067
1.98077
1.77613
1.66133
1.5628
1.44215
1.32689
1.25759
1.185
1.09165
1.00798
0.984879
0.958004
0.904588
0.858326
0.853231
0.852403
0.832222
0.811804
0.803442
0.803182
0.795207
0.789619
0.796138
0.817338
0.847281
0.874238
0.877906
0.879566
0.884059
0.890607
0.893306
0.890923
0.882397
0.882971
0.882874
0.878747
0.867316
0.847747
0.832341
0.820194
0.807183
0.805078
0.808264
0.814811
0.823625
0.83177
0.834226
0.827285
0.826881
0.831685
0.835835
0.83979
0.845959
0.857498
0.873433
0.885523
0.892142
0.895663
0.895625
0.894405
0.894981
0.893278
0.891801
0.897642
0.910579
0.922465
0.928397
0.931773
0.934321
0.933438
0.92713
0.918811
0.919213
0.947587
1.01703
1.01301
0.977939
0.969904
0.971195
0.979537
0.990573
0.992615
0.991863
0.99274
5.74125
5.20371
4.74165
4.3102
3.85381
3.45263
3.17156
2.88602
2.59529
2.38156
2.17398
1.97753
1.84907
1.73289
1.57986
1.4633
1.39558
1.32418
1.22867
1.12781
1.08531
1.04363
0.982041
0.908306
0.890129
0.881292
0.849855
0.81617
0.801363
0.799382
0.796717
0.775433
0.763625
0.766555
0.77872
0.797929
0.804046
0.809203
0.818083
0.833796
0.8569
0.867867
0.86358
0.866718
0.873557
0.873083
0.868252
0.855611
0.840501
0.829073
0.816654
0.810009
0.809809
0.814301
0.822938
0.831093
0.834206
0.828985
0.825064
0.826785
0.830592
0.83525
0.84329
0.857638
0.874357
0.885438
0.891501
0.892365
0.890319
0.891925
0.894434
0.894795
0.897653
0.908321
0.923137
0.930239
0.929508
0.92958
0.932436
0.931992
0.925813
0.92176
0.934539
0.980889
1.02024
0.990205
0.972643
0.971672
0.974545
0.98193
0.989816
0.990772
0.98981
0.99142
5.82982
5.32872
4.8824
4.48654
4.0735
3.67276
3.35023
3.07747
2.82789
2.60825
2.37175
2.1292
2.00058
1.89626
1.76215
1.62802
1.53104
1.43997
1.33526
1.24501
1.20553
1.16275
1.09669
1.00112
0.967042
0.950837
0.914002
0.864708
0.831292
0.82773
0.822244
0.794993
0.765897
0.761723
0.76229
0.758929
0.742785
0.736848
0.743379
0.760738
0.785689
0.814205
0.830904
0.838581
0.850869
0.853106
0.850183
0.839203
0.830421
0.829471
0.828947
0.824695
0.821126
0.822118
0.826331
0.830628
0.830621
0.826471
0.822266
0.821978
0.825739
0.832434
0.844217
0.859239
0.873564
0.883707
0.888828
0.889487
0.889863
0.89142
0.89419
0.898377
0.906397
0.921238
0.932694
0.930738
0.923812
0.920758
0.921014
0.920262
0.919675
0.929792
0.96324
1.00205
0.995749
0.976662
0.975334
0.978252
0.980888
0.984096
0.987894
0.988825
0.988251
0.990339
5.90399
5.42973
4.99004
4.60543
4.22417
3.85527
3.53943
3.24383
2.97906
2.77136
2.56388
2.33504
2.16709
2.02831
1.87998
1.76973
1.68303
1.59078
1.46712
1.34807
1.30793
1.26761
1.20286
1.11336
1.06748
1.03638
0.990732
0.924687
0.866042
0.855752
0.847979
0.819648
0.777463
0.764067
0.768643
0.766594
0.744293
0.721254
0.71636
0.717696
0.725651
0.737561
0.756556
0.772394
0.791462
0.814271
0.818062
0.812101
0.811932
0.815861
0.822338
0.824338
0.82391
0.82733
0.832507
0.834142
0.831836
0.827582
0.822198
0.820723
0.824821
0.832639
0.844511
0.857014
0.868057
0.877874
0.884738
0.888662
0.892528
0.896119
0.899714
0.904766
0.914379
0.927291
0.928319
0.919995
0.912728
0.910177
0.909883
0.911224
0.922162
0.955362
0.999772
1.00317
0.979016
0.97459
0.982352
0.985894
0.986656
0.987586
0.98841
0.987708
0.986793
0.988567
6.00974
5.57741
5.14599
4.74179
4.39141
4.05935
3.71445
3.39768
3.1573
2.95014
2.73044
2.49544
2.31796
2.17886
2.02978
1.88984
1.79343
1.70065
1.58995
1.48188
1.43278
1.3788
1.30322
1.20445
1.15645
1.12457
1.07709
1.00862
0.938184
0.921603
0.912899
0.885
0.835366
0.806689
0.807047
0.79883
0.766086
0.728629
0.71778
0.716017
0.712853
0.699416
0.693226
0.699554
0.714189
0.734008
0.752927
0.765989
0.774688
0.787492
0.802617
0.806342
0.806371
0.811606
0.823733
0.835469
0.844508
0.843202
0.838107
0.83184
0.829204
0.834158
0.841406
0.849162
0.857429
0.867237
0.877567
0.887589
0.896407
0.904175
0.909709
0.914334
0.922516
0.927552
0.91969
0.909995
0.905899
0.905745
0.908766
0.920401
0.952919
1.00092
1.01135
0.987978
0.975229
0.981254
0.988527
0.989745
0.990502
0.990196
0.987743
0.986367
0.985444
0.986398
6.11081
5.66635
5.27731
4.89832
4.54153
4.23154
3.9215
3.60154
3.29775
3.0806
2.90039
2.69643
2.49462
2.31518
2.14515
2.02443
1.93286
1.83828
1.69393
1.58237
1.53967
1.48643
1.41509
1.32392
1.26004
1.20758
1.14459
1.06928
1.00267
0.991328
0.98574
0.956101
0.905636
0.860486
0.846064
0.82838
0.79008
0.74168
0.724702
0.722434
0.721471
0.706388
0.687446
0.684558
0.686129
0.68729
0.690733
0.695029
0.7054
0.724886
0.755781
0.772702
0.776281
0.783055
0.799781
0.819981
0.835025
0.850598
0.85614
0.850366
0.839145
0.835422
0.838533
0.842208
0.847343
0.855135
0.866148
0.879554
0.893575
0.904467
0.911103
0.915652
0.920581
0.916737
0.906711
0.900259
0.900636
0.90663
0.92086
0.95054
0.991361
1.00448
0.984994
0.968524
0.972421
0.987245
0.992169
0.991714
0.991131
0.987406
0.981808
0.981452
0.982246
0.984217
6.20715
5.83057
5.40915
5.02374
4.66858
4.36473
4.07786
3.7886
3.50107
3.23777
3.00277
2.83736
2.66234
2.47731
2.29472
2.13632
2.04692
1.95417
1.83
1.71338
1.64764
1.57898
1.49665
1.41904
1.36845
1.31034
1.23945
1.14732
1.07111
1.05794
1.05641
1.02963
0.979943
0.930305
0.909151
0.88822
0.851184
0.7942
0.7643
0.759332
0.758136
0.743912
0.708982
0.690165
0.689723
0.68822
0.674656
0.658651
0.654717
0.662212
0.678949
0.704603
0.724883
0.738156
0.759584
0.792464
0.81231
0.829136
0.844286
0.850539
0.845616
0.844218
0.845658
0.846661
0.847279
0.849856
0.857671
0.867113
0.878305
0.888691
0.895655
0.899771
0.899848
0.89397
0.888586
0.889188
0.89612
0.909649
0.932358
0.964542
0.985792
0.975115
0.958304
0.958475
0.975474
0.991159
0.992117
0.990517
0.988724
0.981031
0.975111
0.975557
0.976008
0.980389
5.7728
5.9381
5.59282
5.18651
4.81979
4.48554
4.19413
3.92805
3.67134
3.40285
3.16203
2.98324
2.79471
2.6169
2.43049
2.29562
2.18313
2.05992
1.9279
1.83082
1.76773
1.68737
1.59312
1.50134
1.45052
1.39634
1.32592
1.23674
1.15649
1.13617
1.12968
1.10149
1.04819
0.992356
0.967768
0.949817
0.918657
0.86259
0.812051
0.800758
0.796038
0.778339
0.734385
0.702487
0.700857
0.698518
0.683366
0.661744
0.652428
0.649301
0.650072
0.655712
0.668075
0.687373
0.709915
0.744857
0.776625
0.794477
0.809493
0.825914
0.833003
0.83842
0.843662
0.848188
0.851088
0.854547
0.860986
0.868491
0.876947
0.885431
0.892469
0.895008
0.89252
0.888473
0.88769
0.892985
0.902658
0.916776
0.937558
0.962052
0.971008
0.960071
0.954219
0.964102
0.983731
0.992372
0.991639
0.989514
0.984576
0.973998
0.97253
0.974285
0.974962
0.979639
4.23504
5.61713
5.69879
5.37023
4.97596
4.63562
4.33305
4.05191
3.80173
3.551
3.32513
3.13373
2.94629
2.75548
2.5647
2.44127
2.31574
2.18802
2.04513
1.94671
1.87316
1.78565
1.68739
1.5959
1.54368
1.4842
1.40646
1.31801
1.24011
1.21711
1.20492
1.17677
1.12704
1.05913
1.02392
1.01051
0.984712
0.935194
0.876217
0.858129
0.85146
0.833927
0.790896
0.749852
0.744628
0.741383
0.723951
0.689504
0.664659
0.658188
0.6555
0.652988
0.654333
0.658307
0.669312
0.689355
0.715806
0.738719
0.759857
0.787803
0.81724
0.838272
0.860606
0.882204
0.897551
0.912085
0.930824
0.956098
0.978623
0.991899
1.00163
1.00139
0.992835
0.98568
0.981374
0.982604
0.982677
0.98074
0.984908
0.994109
0.990438
0.977851
0.974697
0.981195
0.989035
0.990391
0.988442
0.986108
0.979668
0.97216
0.972381
0.974288
0.97598
0.985125
1.86693
4.32966
5.44281
5.49642
5.19044
4.79344
4.44771
4.20503
3.96633
3.69505
3.4629
3.27152
3.09494
2.90005
2.722
2.58814
2.44282
2.30943
2.16627
2.07503
1.99002
1.8884
1.77733
1.67979
1.6331
1.57456
1.49376
1.40712
1.34552
1.30221
1.26844
1.2413
1.20015
1.13692
1.08761
1.07191
1.05046
1.00489
0.938962
0.908203
0.899758
0.883728
0.845789
0.802704
0.793863
0.786216
0.763648
0.717001
0.680857
0.671755
0.669285
0.663802
0.660505
0.664579
0.674918
0.695776
0.730987
0.776407
0.828143
0.874788
0.923561
0.979225
1.03572
1.08624
1.12789
1.16589
1.20774
1.25384
1.2959
1.3211
1.33673
1.34627
1.3354
1.32461
1.31222
1.30079
1.27905
1.24579
1.22484
1.19422
1.14871
1.10003
1.06242
1.03377
1.01066
0.996367
0.98988
0.984943
0.976132
0.972191
0.973785
0.976168
0.980001
0.998241
1.05621
1.99195
4.32223
5.23921
5.29672
5.03417
4.63796
4.32913
4.10295
3.86186
3.63797
3.43624
3.23317
3.0169
2.877
2.73406
2.58542
2.42983
2.27581
2.19612
2.09691
1.99025
1.87316
1.77167
1.72722
1.66416
1.58098
1.49173
1.44938
1.40786
1.3445
1.30012
1.26621
1.21452
1.15171
1.13152
1.1179
1.07922
1.0121
0.965191
0.953438
0.938758
0.904827
0.857874
0.845822
0.839104
0.816385
0.766717
0.731879
0.724632
0.726509
0.734942
0.749425
0.772349
0.811068
0.872001
0.951767
1.03069
1.10449
1.17953
1.24977
1.3094
1.35255
1.38189
1.40842
1.43459
1.46241
1.48615
1.51166
1.53586
1.5475
1.55809
1.56282
1.56312
1.56618
1.56658
1.56154
1.55357
1.5456
1.51732
1.4718
1.41457
1.35514
1.29375
1.2249
1.14736
1.06894
1.00763
0.980946
0.977448
0.978181
0.980351
0.98775
1.01431
1.0007
1.07415
2.05877
4.1604
5.07402
5.12734
4.87746
4.5419
4.26305
4.0006
3.79251
3.61261
3.39002
3.15946
3.0042
2.85113
2.71544
2.54493
2.41868
2.32748
2.20392
2.09108
1.95822
1.86981
1.83033
1.76615
1.68475
1.5821
1.54106
1.50993
1.43707
1.36191
1.33039
1.2917
1.22725
1.1871
1.17533
1.14523
1.0826
1.02428
1.00855
0.995815
0.966534
0.916578
0.896107
0.88949
0.874888
0.841464
0.832706
0.85089
0.895918
0.973615
1.06833
1.15141
1.22098
1.29975
1.39772
1.45272
1.47441
1.47733
1.48303
1.48945
1.48641
1.48158
1.48424
1.49646
1.50395
1.49995
1.49964
1.51166
1.52115
1.52492
1.52978
1.53519
1.5428
1.55674
1.58952
1.62277
1.62328
1.60453
1.58644
1.57444
1.56141
1.54204
1.51385
1.4669
1.38496
1.26123
1.13257
1.04758
1.00933
0.999546
1.00452
1.02642
1
1.00107
1.08642
2.00483
4.01263
4.9268
4.91964
4.75517
4.49245
4.16932
3.93204
3.75278
3.53907
3.30537
3.13097
2.98756
2.84051
2.65536
2.55885
2.451
2.31964
2.20202
2.04779
1.97973
1.94261
1.86811
1.78352
1.68407
1.63097
1.60173
1.53133
1.43438
1.39221
1.3636
1.30909
1.25084
1.23282
1.2068
1.15107
1.08527
1.0634
1.0544
1.03766
1.00414
0.994478
1.01692
1.07644
1.15234
1.23818
1.33826
1.45291
1.55204
1.61934
1.63066
1.64832
1.68687
1.71533
1.69869
1.66482
1.60782
1.55695
1.52776
1.50157
1.48019
1.46516
1.46261
1.46297
1.45282
1.44176
1.44156
1.44839
1.45004
1.44886
1.45102
1.46129
1.4842
1.52385
1.56335
1.56724
1.55752
1.54898
1.54649
1.55104
1.55554
1.55367
1.54429
1.52805
1.49941
1.43761
1.34096
1.23654
1.14288
1.07778
1.04518
1
1
1.00133
1.08324
1.90558
3.82158
4.60668
4.7979
4.71436
4.41856
4.10793
3.88056
3.66691
3.46012
3.29178
3.14784
2.95153
2.77311
2.6822
2.57062
2.45369
2.30633
2.1451
2.10531
2.05903
1.96869
1.88282
1.78162
1.72875
1.69124
1.61709
1.50681
1.4568
1.43896
1.39719
1.32683
1.29385
1.26738
1.22539
1.1681
1.15049
1.16383
1.21389
1.31196
1.43121
1.56317
1.73979
1.88227
1.9365
1.97178
2.00329
1.97939
1.92123
1.88266
1.86078
1.86187
1.83062
1.77817
1.71748
1.64105
1.5658
1.51944
1.48547
1.45286
1.43087
1.42167
1.41123
1.39546
1.37722
1.359
1.34964
1.34431
1.33929
1.34007
1.35451
1.3848
1.41931
1.43032
1.42663
1.42916
1.43873
1.45671
1.48469
1.50647
1.51236
1.51037
1.49929
1.49462
1.50139
1.50653
1.4961
1.4557
1.37078
1.18434
1
1
1
1.00133
1.06743
1.80559
3.38585
4.46004
4.72303
4.62761
4.35232
4.08094
3.83203
3.57942
3.41976
3.28265
3.10042
2.9211
2.80503
2.69563
2.57876
2.40732
2.26657
2.22679
2.16518
2.07569
1.98791
1.88297
1.82453
1.77557
1.69951
1.58859
1.52787
1.51016
1.47787
1.41018
1.37501
1.36769
1.38597
1.44678
1.55393
1.7085
1.92278
2.13365
2.23258
2.34966
2.41368
2.42139
2.38401
2.32479
2.2329
2.13424
2.05385
2.01374
1.97659
1.92986
1.87392
1.81064
1.7427
1.66958
1.58589
1.52825
1.49974
1.47402
1.45413
1.43792
1.41645
1.39085
1.35658
1.31758
1.29628
1.28656
1.27832
1.27928
1.30248
1.32071
1.31733
1.30844
1.3028
1.30199
1.30425
1.31347
1.33578
1.37177
1.40385
1.42308
1.43763
1.45307
1.47328
1.50646
1.53864
1.54772
1.54351
1.45669
1
1
1
1
1.00096
1.05396
1.61316
2.98522
4.32644
4.54925
4.46466
4.28455
4.04565
3.76386
3.55845
3.39647
3.21393
3.06437
2.95607
2.83367
2.69332
2.50203
2.40237
2.35954
2.27638
2.17997
2.08747
1.97964
1.91763
1.86167
1.7782
1.67874
1.61208
1.60033
1.59771
1.61382
1.69065
1.87158
2.1268
2.43028
2.62718
2.73033
2.84916
2.82599
2.74165
2.70464
2.66074
2.59276
2.51177
2.40276
2.25677
2.1452
2.07763
2.02067
1.96608
1.9087
1.8453
1.77513
1.709
1.64316
1.5767
1.53774
1.51279
1.48572
1.45879
1.43369
1.41135
1.38729
1.34958
1.30918
1.29198
1.28202
1.27362
1.27209
1.2789
1.27616
1.26178
1.24511
1.23669
1.23389
1.23162
1.23182
1.23924
1.2552
1.27253
1.2861
1.30132
1.32501
1.36819
1.4398
1.50764
1.53382
1.5402
1.5199
1
1
1
1
1
1.0007
1.03405
1.40374
2.6751
4.07705
4.31479
4.2963
4.21726
3.98472
3.73481
3.56157
3.35913
3.18168
3.07951
2.96989
2.82324
2.62805
2.54819
2.4806
2.36848
2.28461
2.19552
2.08197
2.00867
1.94683
1.87899
1.813
1.83029
1.9283
2.19663
2.54756
2.88357
3.13867
3.37406
3.43837
3.38976
3.33147
3.27026
3.15333
2.99762
2.89184
2.83237
2.76223
2.65578
2.50525
2.31201
2.21457
2.18134
2.14038
2.08099
2.01397
1.93616
1.84712
1.76692
1.70523
1.66067
1.6313
1.60282
1.56696
1.52498
1.48836
1.45965
1.42992
1.38492
1.35207
1.34187
1.33116
1.31162
1.28262
1.26364
1.25073
1.23315
1.2118
1.20163
1.19808
1.19581
1.19456
1.19886
1.20636
1.21378
1.22266
1.2353
1.25398
1.28263
1.32533
1.38273
1.44235
1.49845
1.51963
1
1
1
1
1
1
1.00032
1.01795
1.26475
2.397
3.5557
4.13663
4.23685
4.18243
3.98838
3.77798
3.54004
3.30683
3.18793
3.07842
2.92997
2.75935
2.69171
2.61744
2.49702
2.36352
2.27331
2.20424
2.14776
2.14914
2.27296
2.5175
2.8932
3.3187
3.71504
3.95047
4.0106
3.94991
3.85457
3.69034
3.53605
3.41725
3.26035
3.09389
2.96087
2.85235
2.75052
2.63864
2.51904
2.38237
2.2772
2.20908
2.14091
2.06994
2.00409
1.93814
1.86668
1.79243
1.72735
1.67045
1.62521
1.59536
1.56807
1.53746
1.502
1.46392
1.42774
1.39019
1.3428
1.31735
1.30832
1.30001
1.28738
1.27029
1.25232
1.23555
1.21315
1.19421
1.1878
1.18435
1.18149
1.17986
1.18146
1.18274
1.18511
1.19062
1.20023
1.21335
1.23154
1.25584
1.28308
1.31007
1.34129
1.39624
1
1
1
1
1
1
1
1.00015
1.00884
1.17902
1.95821
3.09765
3.97398
4.11552
4.06753
3.95315
3.74221
3.49218
3.32984
3.20411
3.04392
2.88659
2.78764
2.71453
2.63843
2.51268
2.46282
2.57102
2.88934
3.36897
3.91471
4.41513
4.61612
4.76749
4.81691
4.69053
4.52452
4.39857
4.20872
3.97362
3.72116
3.42757
3.1894
3.04181
2.95692
2.86793
2.74813
2.60563
2.46749
2.35025
2.27321
2.2101
2.13975
2.06389
1.98874
1.91525
1.84592
1.78669
1.7337
1.68087
1.63415
1.59986
1.56844
1.54391
1.52581
1.49686
1.44758
1.38884
1.34286
1.32052
1.30867
1.29902
1.29516
1.28914
1.26737
1.23241
1.20029
1.18545
1.18057
1.17642
1.17216
1.16945
1.17122
1.17013
1.16941
1.17269
1.18136
1.1955
1.2133
1.23332
1.24677
1.25562
1.26473
1.29389
1
1
1
1
1
1
1
1
1.00005
1.00456
1.09094
1.55101
2.61822
3.79771
3.97296
3.90798
3.84932
3.69944
3.49336
3.34321
3.16754
3.052
2.96021
2.87047
2.92951
3.21022
3.79313
4.52486
5.0404
5.33929
5.46617
5.40148
5.2061
5.00821
4.86707
4.69545
4.48315
4.22616
3.97619
3.74006
3.51226
3.35358
3.24822
3.16494
3.06657
2.92898
2.76286
2.60768
2.48385
2.38844
2.31364
2.24529
2.17409
2.0985
2.02327
1.94784
1.8713
1.79939
1.73748
1.6886
1.65583
1.63082
1.60437
1.57213
1.52753
1.4728
1.41492
1.37187
1.35636
1.34734
1.33809
1.32653
1.30766
1.27845
1.24811
1.21907
1.20226
1.19641
1.19282
1.18995
1.18649
1.18348
1.18141
1.17877
1.1772
1.17844
1.18448
1.20208
1.22305
1.23144
1.23374
1.23492
1.23735
1.25185
1
1
1
1
1
1
1
1
1
1.00002
1.00146
1.03398
1.30811
2.31329
3.21218
3.71405
3.87048
3.82888
3.72595
3.56361
3.43814
3.47669
3.73166
4.25744
4.9692
5.78275
6.41544
6.71953
6.72861
6.5043
6.23097
5.97843
5.68134
5.29538
4.87192
4.53375
4.27003
4.04407
3.84174
3.64819
3.4793
3.38238
3.30086
3.2033
3.08176
2.93606
2.77637
2.6271
2.5129
2.42641
2.35499
2.28982
2.21962
2.14058
2.05934
1.97891
1.89787
1.82178
1.76098
1.71833
1.68845
1.66273
1.63474
1.59789
1.54704
1.4825
1.41673
1.39129
1.38228
1.37304
1.36253
1.34716
1.32251
1.28785
1.24989
1.22806
1.22143
1.21598
1.2117
1.20756
1.20266
1.19685
1.19295
1.19084
1.18993
1.19152
1.20047
1.21795
1.22888
1.2313
1.23187
1.22961
1.22373
1.23254
1
1
1
1
1
1
1
1
1
1
1
1.00039
1.01297
1.17182
1.80196
2.65326
3.48043
3.6854
4.02992
4.43606
4.97941
5.64346
6.27819
6.77647
7.04608
7.11814
7.08974
7.0366
6.83823
6.46975
6.04764
5.69425
5.37756
5.11926
4.92622
4.69458
4.44179
4.19189
3.95613
3.75458
3.61563
3.51642
3.41842
3.30574
3.17584
3.02867
2.86413
2.70788
2.59615
2.51941
2.45735
2.39677
2.32511
2.24107
2.15483
2.06964
1.98241
1.90601
1.85353
1.8164
1.78489
1.75392
1.7192
1.67561
1.61478
1.53303
1.48194
1.46886
1.45793
1.44566
1.43046
1.40897
1.37567
1.32588
1.29063
1.28294
1.27701
1.27057
1.26446
1.25803
1.25136
1.24291
1.23771
1.23593
1.23541
1.23817
1.24722
1.25408
1.25457
1.25354
1.2521
1.24395
1.23167
1.24096
1
1
1
1
1
1
1
1
1
1
1
1
1.0001
1.00437
1.0759
1.404
2.42792
4.19144
5.8379
7.45117
8.90456
9.99057
10.3284
10.2124
9.78262
9.00901
8.06997
7.2582
6.5739
6.06342
5.71602
5.4033
5.13666
4.92917
4.73101
4.50696
4.27742
4.05102
3.8302
3.6335
3.48717
3.38214
3.28488
3.17367
3.04129
2.8871
2.72211
2.57687
2.4706
2.39675
2.34363
2.29557
2.23377
2.15329
2.06462
1.97312
1.88575
1.82428
1.78469
1.75221
1.72424
1.69647
1.66288
1.61535
1.53783
1.45145
1.42279
1.41394
1.40645
1.39652
1.38314
1.36126
1.31738
1.25954
1.23736
1.2321
1.22713
1.22194
1.21557
1.20889
1.2015
1.19289
1.18888
1.18727
1.18742
1.19353
1.2036
1.20658
1.20557
1.20368
1.1974
1.18033
1.17196
1.18071
)
;

boundaryField
{
    inlet
    {
        type            fixedValue;
        value           uniform 1;
    }
    outlet
    {
        type            zeroGradient;
    }
    bottom
    {
        type            zeroGradient;
    }
    top
    {
        type            zeroGradient;
    }
    obstacle
    {
        type            zeroGradient;
    }
    defaultFaces
    {
        type            empty;
    }
}


// ************************************************************************* //
