/*--------------------------------*- C++ -*----------------------------------*\
  =========                 |
  \\      /  F ield         | OpenFOAM: The Open Source CFD Toolbox
   \\    /   O peration     | Website:  https://openfoam.org
    \\  /    A nd           | Version:  7
     \\/     M anipulation  |
\*---------------------------------------------------------------------------*/
FoamFile
{
    version     2.0;
    format      ascii;
    class       volScalarField;
    location    "2.6";
    object      p;
}
// * * * * * * * * * * * * * * * * * * * * * * * * * * * * * * * * * * * * * //

dimensions      [1 -1 -2 0 0 0 0];

internalField   nonuniform List<scalar> 
4080
(
1
1
1
1
1
1
1
1
1
1
1
1
1
1
1
1
1
1.86936
8.63457
10.8054
11.0724
11.4065
11.6629
11.8777
1
1
1
1
1
1
1
1
1
1
1
1
1
1
1
1
1
1.74089
8.31843
10.7176
10.9839
11.2859
11.5008
11.596
1
1
1
1
1
1
1
1
1
1
1
1
1
1
1
1
1
1.4376
7.71177
10.5809
10.7891
10.9995
11.0887
11.2118
1
1
1
1
1
1
1
1
1
1
1
1
1
1
1
1
1
1.04799
6.71231
10.324
10.4811
10.6605
10.7032
10.9689
1
1
1
1
1
1
1
1
1
1
1
1
1
1
1
1
1
1.00051
5.28678
9.77683
9.99651
10.0343
9.46454
7.87551
1
1
1
1
1
1
1
1
1
1
1
1
1
1
1
1
1
0.999993
3.59639
9.05461
9.62407
9.36802
8.70023
7.11315
1
1
1
1
1
1
1
1
1
1
1
1
1
1
1
1
1
0.999998
1.93375
7.88357
9.34399
8.88058
8.19896
6.6025
1
1
1
1
1
1
1
1
1
1
1
1
1
1
1
1
1
1
1.094
5.92865
8.80007
8.32047
7.70857
6.36804
1
1
1
1
1
1
1
1
1
1
1
1
1
1
1
1
1
1
1.00045
3.30392
7.86514
8.10816
7.40468
6.34881
1
1
1
1
1
1
1
1
1
1
1
1
1
1
1
1
1
1
0.999995
1.36952
6.15655
8.04594
7.26915
6.3574
1
1
1
1
1
1
1
1
1
1
1
1
1
1
1
1
1
1
0.999999
1.01148
3.4838
7.37398
7.10245
6.31038
1
1
1
1
1
1
1
1
1
1
1
1
1
1
1
1
1
1
1
1.00002
1.42279
5.55886
7.16563
6.35573
1
1
1
1
1
1
1
1
1
1
1
1
1
1
1
1
1
1
1
1
1.01468
2.7074
6.30424
6.36736
1
1
1
1
1
1
1
1
1
1
1
1
1
1
1
1
1
1
1
1
1.00008
1.21604
4.21971
6.31678
1
1
1
1
1
1
1
1
1
1
1
1
1
1
1
1
1
1
1
1
1
1.00489
1.79169
4.96443
1
1
1
1
1
1
1
1
1
1
1
1
1
1
1
1
1
1
1
1
1
1.00003
1.05125
2.50183
1
1
1
1
1
1
1
1
1
1
1
1
1
1
1
1
1
1
1
1
1
1
1.00071
1.1763
1
1
1
1
1
1
1
1
1
1
1
1
1
1
1
1
1
1
1
1
1
1
1
1.00461
1
1
1
1
1
1
1
1
1
1
1
1
1
1
1
1
1
1
1
1
1
1
1
1.00003
1
1
1
1
1
1
1
1
1
1
1
1
1
1
1
1
1
1
1
1
1
1
1
1
1
1
1
1
1
1
1
1
1
1
1
1
1
1
1
1
1
1
1
1
1
1
1
1
1
1
1
1
1
1
1
1
1
1
1
1
1
1
1
1
1
1
1
1
1
1
1
1
1
1
1
1
1
1
1
1
1
1
1
1
1
1
1
1
1
1
1
1
1
1
1
1
1
1
1
1
1
1
1
1
1
1
1
1
1
1
1
1
1
1
1
1
1
1
1
1
1
1
1
1
1
1
1
1
1
1
1
1
1
1
1
1
1
1
1
1
1
1
1
1
1
1
1
1
1
1
1
1
1
1
1
1
1
1
1
1
1
1
1
1
1
1
1
1
1
1
1
1
1
1
1
1
1
1
1
1
1
1
1
1
1
1
1
1
1
1
1
1
1
1
1
1
1
1
1
1
1
1
1
1
1
1
1
1
1
1
1
1
1
1
1
1
1
1
1
1
1
1
1
1
1
1
1
1
1
1
1
1
1
1
1
1
1
1
1
1
1
1
1
1
1
1
1
1
1
1
1
1
1
1
1
1
1
1
1
1
1
1
1
1
1
1
1
1
1
1
1
1
1
1
1
1
1
1
1
1
1
1
1
1
1
1
1
1
1
1
1
1
1
1
1
1
1
1
1
1
1
1
1
1
1
1
1
1
1
1
1
1
1
1
1
1
1
1
1
1
1
1
1
1
1
1
1
1
1
1
1
1
1
1
1
1
1
1
1
1
1
1
1
1
1
1
1
1
1
1
1
1
1
1
1
1
1
1
1
1
1
1
1
1
1
1
1
1
1
1
1
1
1
1
1
1
1
1
1
1
1
1
1
1
1
1
1
1
1
1
1
1
1
1
1
1
1
1
1
1
1
1
1
1
1
1
1
1
1
1
1
1
1
1
1
1
1
1
1
1
1
1
1
1
1
1
1
1
1
1
1
1
1
1
1
1
1
1
1
1
1
1
1
1
1
1
1
1
1
1
1
1
1
1
1
1
1
1
1
1
1
1
1
1
1
1
1
1
1
1
1
1
1
1
1
1
1
1
1
1
1
1
1
1
1
1
1
1
1
1
1
1
1
1
1
1
1
1
1
1
1
1
1
1
2.11217
0.601348
1.53216
3.33011
3.99354
4.33905
4.51591
4.59808
4.62732
4.65748
4.66764
4.68628
3.32416
1.68122
2.42512
4.0978
4.38095
4.47528
4.56126
4.61845
4.63725
4.66548
4.67597
4.69073
4.26458
2.60805
2.46373
3.64972
4.27781
4.33136
4.46971
4.56618
4.60633
4.6501
4.65367
4.69068
4.8366
3.41911
2.72758
3.27
4.22064
4.47365
4.65949
4.7051
4.68478
4.68454
4.67842
4.82844
5.20044
4.06221
3.06884
3.12875
3.81024
4.47281
4.70621
4.63985
4.60745
4.57493
4.4368
3.81014
5.40808
4.45622
3.48704
3.16011
3.45866
4.20097
4.70229
4.63997
4.6436
4.58751
4.42559
3.90119
5.51892
4.73538
3.89597
3.28531
3.33768
3.86757
4.5813
4.67122
4.65139
4.5895
4.41547
4.01453
5.65242
4.98042
4.24163
3.55058
3.36265
3.55655
4.31853
4.62749
4.63697
4.60342
4.45098
4.16438
5.77862
5.15203
4.52737
3.85005
3.42512
3.4676
3.93754
4.5027
4.62207
4.61399
4.48586
4.26892
5.95629
5.34265
4.78212
4.15619
3.60543
3.47534
3.65932
4.2697
4.56814
4.60893
4.5208
4.351
5.94376
5.54133
4.97056
4.42764
3.83545
3.49775
3.56245
3.92098
4.41111
4.59636
4.54549
4.41704
5.13579
5.63796
5.21339
4.67466
4.12252
3.63354
3.54433
3.70547
4.19633
4.53729
4.56682
4.47414
3.12432
5.12902
5.356
4.94965
4.42989
3.86194
3.58835
3.62886
3.88578
4.36883
4.54757
4.51064
1.37943
3.50526
5.02305
5.12434
4.73253
4.18162
3.70577
3.60873
3.71981
4.1129
4.45926
4.52874
1.01631
1.58457
3.68236
4.87143
4.91484
4.53698
3.96798
3.65356
3.6625
3.82869
4.26859
4.49807
1.00017
1.03531
1.74014
3.73501
4.70914
4.73575
4.34527
3.82928
3.67447
3.73143
4.00497
4.36146
1
1.0005
1.0555
1.83748
3.7058
4.55284
4.56587
4.17843
3.78339
3.70585
3.81389
4.15449
1
1
1.00096
1.07206
1.87661
3.61602
4.40363
4.39448
4.06226
3.77063
3.76664
3.91491
1
1
1
1.00143
1.0811
1.86284
3.48641
4.24548
4.23469
3.98275
3.7981
3.83781
1
1
1
1.00001
1.00174
1.08142
1.80754
3.31774
4.08861
4.09406
3.93517
3.83871
1
1
1
1
1.00001
1.0018
1.07439
1.71616
3.14447
3.92388
3.97742
3.90435
1
1
1
1
1
1.00001
1.00156
1.0635
1.61271
2.90915
3.8053
3.88471
1
1
1
1
1
1
1.00001
1.00134
1.04782
1.5004
2.71467
3.66052
1
1
1
1
1
1
1
1.00001
1.00085
1.03706
1.3803
2.50476
1
1
1
1
1
1
1
1
1
1.00065
1.02275
1.29515
1
1
1
1
1
1
1
1
1
1
1.00033
1.01456
1
1
1
1
1
1
1
1
1
1
1
1.00018
1
1
1
1
1
1
1
1
1
1
1
1
1
1
1
1
1
1
1
1
1
1
1
1
1
1
1
1
1
1
1
1
1
1
1
1
1
1
1
1
1
1
1
1
1
1
1
1
1
1
1
1
1
1
1
1
1
1
1
1
1
1
1
1
1
1
1
1
1
1
1
1
1
1
1
1
1
1
1
1
1
1
1
1
1
1
1
1
1
1
1
1
1
1
1
1
1
1
1
1
1
1
1
1
1
1
1
1
1.61635
1.08833
1.07372
1.1778
1.29272
1.39833
1.46333
1.45613
1.43564
1.4156
1.38381
1.35085
1.33267
1.32531
1.32475
1.33195
1.33553
1.33588
1.33207
1.32357
1.31222
1.29895
1.28957
1.28452
1.28264
1.28678
1.28918
1.28641
1.28194
1.27652
1.26936
1.25994
1.25114
1.24594
1.24299
1.24435
1.24936
1.24865
1.24374
1.23824
1.23059
1.21946
1.20944
1.20462
1.20231
1.20403
1.20785
1.19957
1.7039
4.00957
4.82252
4.83989
4.84683
4.8305
4.79703
4.80879
4.81411
4.79525
4.74205
4.67483
4.6056
4.53584
4.45799
4.37216
4.28831
4.21583
4.16431
4.14875
4.16668
4.13099
4.03529
3.9309
3.82734
3.74188
3.67369
3.63366
3.6164
3.60393
3.57422
3.51813
3.44256
3.33808
3.21239
3.07863
2.4889
1.84268
1.52429
1.38349
1.31444
1.31794
1.36231
1.35916
1.35525
1.35801
1.36084
1.35851
1.3514
1.34537
1.34243
1.33926
1.33195
1.3232
1.3178
1.31278
1.30818
1.3051
1.30081
1.29543
1.29059
1.28434
1.27864
1.27543
1.27487
1.27342
1.27031
1.26626
1.26081
1.25286
1.24539
1.24048
1.23704
1.23615
1.23855
1.23717
1.23333
1.22898
1.222
1.212
1.20278
1.19609
1.19159
1.18664
1.55372
3.93064
4.89732
4.90019
4.89076
4.87005
4.81537
4.7641
4.71298
4.65959
4.61775
4.5948
4.56688
4.53306
4.49588
4.43398
4.33996
4.23007
4.12996
4.05811
4.0327
4.04069
4.02543
3.96937
3.89267
3.80275
3.70273
3.61208
3.54623
3.49857
3.47147
3.44402
3.40508
3.35372
3.29706
3.18065
2.9733
2.24617
1.79657
1.43559
1.31555
1.26413
1.27016
1.31955
1.35661
1.38618
1.39945
1.3935
1.37449
1.36975
1.36319
1.35218
1.33689
1.31693
1.30552
1.30185
1.30009
1.30263
1.30803
1.30915
1.30576
1.29889
1.28782
1.27407
1.2649
1.26224
1.26054
1.26095
1.26303
1.26193
1.25899
1.25313
1.24355
1.23466
1.22935
1.2263
1.22481
1.22432
1.22405
1.22178
1.2173
1.20594
1.19038
1.20864
1.46765
3.6351
5.03895
5.01785
4.90278
4.81035
4.83132
4.81752
4.7544
4.68052
4.63129
4.59146
4.53531
4.4861
4.46195
4.44428
4.40023
4.33177
4.2395
4.11858
4.01996
3.95662
3.93154
3.91819
3.89735
3.85866
3.79855
3.71156
3.5816
3.43724
3.34937
3.30354
3.2782
3.27714
3.29002
3.2375
3.44779
2.68928
2.23253
1.79949
1.53204
1.43615
1.35181
1.29804
1.29392
1.30812
1.32905
1.34156
1.36567
1.37902
1.37251
1.35563
1.33505
1.31379
1.30263
1.30198
1.30076
1.30083
1.30282
1.30392
1.30092
1.29481
1.28525
1.2747
1.26693
1.26498
1.26319
1.26159
1.2604
1.25944
1.25692
1.25021
1.24123
1.23489
1.23087
1.22815
1.22565
1.22269
1.22031
1.2178
1.21216
1.20146
1.22127
1.41676
1.95137
2.95038
4.29891
4.93539
4.96903
4.91933
4.90295
4.77998
4.67135
4.59344
4.573
4.54334
4.4965
4.46321
4.43075
4.39903
4.35233
4.29187
4.23062
4.14954
4.03895
3.94662
3.89486
3.85812
3.82875
3.80128
3.7641
3.71118
3.6418
3.53535
3.40036
3.31196
3.2741
3.25205
3.25133
3.21844
3.79111
3.12391
2.60018
2.18889
1.81591
1.61861
1.47116
1.31799
1.26882
1.27239
1.27599
1.2931
1.33361
1.36417
1.3781
1.3765
1.36629
1.33959
1.31268
1.30495
1.30035
1.29808
1.30012
1.3048
1.30466
1.29674
1.28394
1.27288
1.26667
1.26386
1.26267
1.2618
1.2618
1.26196
1.25997
1.25098
1.23926
1.2328
1.22932
1.22784
1.22678
1.22549
1.2229
1.21907
1.21076
1.22761
1.38627
2.00876
2.71525
2.78527
3.14625
3.83268
4.35314
4.63833
4.80704
4.85781
4.76305
4.68726
4.60274
4.51547
4.44669
4.40266
4.37311
4.35564
4.32583
4.2751
4.22305
4.15728
4.06696
3.96088
3.87772
3.82874
3.78863
3.74915
3.70777
3.6651
3.61883
3.55982
3.47031
3.35945
3.29283
3.26181
3.24366
3.19499
3.99958
3.48849
2.97634
2.5477
2.14219
1.87213
1.70936
1.51468
1.38705
1.35541
1.30475
1.2851
1.2926
1.30486
1.31506
1.32028
1.32964
1.34195
1.34608
1.34211
1.33428
1.32304
1.31081
1.3009
1.29092
1.27809
1.26885
1.26442
1.2643
1.26741
1.27075
1.27037
1.26807
1.26514
1.25885
1.2455
1.23421
1.2292
1.22597
1.22399
1.22291
1.22208
1.22045
1.21912
1.2425
1.3848
2.00314
2.73155
3.01668
2.88874
2.83521
2.96025
3.33299
3.8083
4.20532
4.52879
4.60956
4.73657
4.68402
4.5912
4.48817
4.34965
4.27832
4.23965
4.22424
4.22397
4.20203
4.15505
4.09477
4.00671
3.88647
3.78289
3.7302
3.69667
3.66685
3.63982
3.60739
3.56966
3.51968
3.43387
3.31398
3.23033
3.19717
3.1425
4.16248
3.75434
3.28987
2.88078
2.48899
2.1569
1.94466
1.7335
1.55182
1.46614
1.39259
1.30973
1.27232
1.27807
1.27821
1.27761
1.29047
1.32223
1.33722
1.34703
1.34996
1.34501
1.33154
1.30981
1.28737
1.27103
1.26153
1.25891
1.26069
1.26764
1.27568
1.27691
1.27402
1.26688
1.25506
1.24013
1.23224
1.22922
1.22695
1.22577
1.22438
1.22494
1.22533
1.24542
1.43939
1.9716
2.79939
3.02261
3.03278
2.97889
2.88626
2.81598
2.79658
2.93485
3.26276
3.75795
4.14175
4.42914
4.53851
4.57185
4.51197
4.38058
4.26301
4.18774
4.14525
4.14269
4.14967
4.13066
4.09249
4.033
3.93861
3.81304
3.70651
3.65258
3.62173
3.59819
3.58019
3.55057
3.51039
3.45381
3.36057
3.23266
3.14151
3.07348
4.27713
3.95091
3.56295
3.17154
2.77214
2.44529
2.20619
1.98433
1.75251
1.6319
1.53594
1.42352
1.33756
1.32808
1.30179
1.27524
1.27783
1.29343
1.3032
1.3094
1.3186
1.32694
1.32751
1.32073
1.30719
1.29345
1.28355
1.2754
1.26811
1.26844
1.26897
1.2656
1.25688
1.24824
1.24171
1.23833
1.23729
1.23817
1.2388
1.23496
1.23079
1.22954
1.24599
1.45187
2.11573
2.72995
3.09365
3.09036
3.04823
3.00102
2.92558
2.81257
2.71608
2.67952
2.70053
2.86587
3.22135
3.68012
4.10417
4.29256
4.38765
4.37458
4.2803
4.18453
4.12323
4.08729
4.07438
4.06192
4.04075
4.00866
3.9568
3.86933
3.75206
3.6356
3.56805
3.53661
3.51282
3.49065
3.45843
3.41911
3.36483
3.27458
3.16189
3.04825
4.36631
4.1115
3.76482
3.41795
3.05702
2.70352
2.45157
2.21853
1.97537
1.8205
1.7174
1.56763
1.43221
1.39995
1.35524
1.30203
1.27679
1.28138
1.2861
1.2835
1.28578
1.29852
1.30641
1.30465
1.3045
1.30861
1.3071
1.30219
1.29068
1.2792
1.26846
1.25502
1.23962
1.23346
1.233
1.23487
1.24138
1.25135
1.25184
1.24791
1.24194
1.259
1.43416
2.19228
2.84658
3.03577
3.06714
3.06362
3.00852
2.96514
2.90974
2.83064
2.73978
2.65213
2.60545
2.5904
2.63069
2.80064
3.15761
3.57602
3.94852
4.14291
4.18553
4.20615
4.13461
4.07257
4.03407
3.99749
3.96683
3.93832
3.90823
3.86918
3.79896
3.68529
3.5631
3.48328
3.44309
3.41476
3.38971
3.35931
3.32542
3.27956
3.21492
3.08447
4.43229
4.23663
3.944
3.62397
3.29593
2.95536
2.68761
2.44834
2.20352
2.01253
1.89517
1.7487
1.59047
1.51277
1.45686
1.37603
1.3128
1.31336
1.30374
1.28387
1.27734
1.27818
1.27918
1.28021
1.28232
1.29266
1.30681
1.30828
1.30162
1.28957
1.27476
1.25707
1.23781
1.23222
1.23165
1.23314
1.24139
1.25042
1.25054
1.25111
1.28352
1.51779
2.18225
2.96351
3.10519
3.1
3.08389
3.05387
2.9758
2.91734
2.87254
2.82112
2.76016
2.6823
2.59967
2.53659
2.50853
2.49441
2.54034
2.70312
3.02034
3.45374
3.77616
3.99046
4.02247
4.04447
4.00384
3.93651
3.90651
3.86586
3.83137
3.80578
3.77495
3.7129
3.60923
3.48435
3.3965
3.35438
3.32393
3.29722
3.27547
3.24983
3.22173
3.13469
4.48749
4.33924
4.09915
3.81395
3.49709
3.18109
2.91895
2.67702
2.40974
2.21836
2.08475
1.93019
1.74308
1.65287
1.58482
1.4916
1.37993
1.35302
1.33094
1.29061
1.26878
1.26634
1.2684
1.26889
1.27011
1.27936
1.291
1.29358
1.29272
1.2903
1.28419
1.27184
1.25495
1.2444
1.24145
1.24002
1.23979
1.24136
1.24462
1.27757
1.61994
2.32025
3.02099
3.22725
3.17167
3.11393
3.07184
2.9964
2.92306
2.87465
2.84287
2.80558
2.76875
2.72491
2.6552
2.54579
2.45679
2.41494
2.39826
2.38761
2.43114
2.60136
2.91261
3.33816
3.6336
3.81949
3.84339
3.83095
3.8369
3.80661
3.78531
3.75141
3.72102
3.67806
3.61905
3.5209
3.39422
3.31243
3.28011
3.25593
3.23441
3.21509
3.19635
3.13639
4.4939
4.41623
4.22729
3.98192
3.70015
3.38786
3.11895
2.88838
2.64074
2.40303
2.25956
2.10929
1.92669
1.7985
1.72204
1.61786
1.48168
1.43513
1.40467
1.35428
1.29181
1.28258
1.28294
1.26586
1.25965
1.26381
1.26973
1.2704
1.27071
1.27146
1.27664
1.2768
1.27284
1.26603
1.26043
1.25245
1.24227
1.24308
1.27595
1.58398
2.52387
3.04561
3.23206
3.23163
3.15009
3.08629
3.03234
2.95184
2.88004
2.82303
2.78898
2.77994
2.7574
2.71778
2.67163
2.58942
2.46002
2.37782
2.33969
2.31467
2.3104
2.31605
2.35978
2.49876
2.77748
3.13403
3.42206
3.57787
3.63526
3.66967
3.70341
3.71411
3.68634
3.64044
3.59448
3.52509
3.42056
3.30227
3.24825
3.22197
3.19866
3.17821
3.15951
3.10736
4.42121
4.45559
4.33415
4.12573
3.86308
3.57725
3.3291
3.08672
2.81698
2.59849
2.44243
2.27632
2.07805
1.95396
1.86871
1.75596
1.61508
1.52653
1.49335
1.43377
1.35272
1.32244
1.31108
1.28032
1.25298
1.24705
1.24852
1.25034
1.25059
1.25271
1.26299
1.27223
1.27777
1.27724
1.27362
1.26412
1.25953
1.30613
1.62984
2.53475
3.08492
3.24828
3.29014
3.29559
3.19576
3.0722
2.9669
2.88187
2.82564
2.77691
2.74701
2.7492
2.72976
2.68465
2.64032
2.58416
2.49285
2.3862
2.32648
2.30049
2.27557
2.24297
2.22818
2.21452
2.2421
2.33909
2.57235
2.87867
3.18406
3.37342
3.4823
3.55345
3.59081
3.60501
3.57759
3.51864
3.43904
3.32403
3.23095
3.18722
3.15825
3.13489
3.11828
3.07207
4.2514
4.44234
4.41646
4.25966
4.03657
3.76117
3.48875
3.27698
3.03374
2.77558
2.60175
2.45641
2.24774
2.10014
2.01003
1.90739
1.74671
1.65663
1.60685
1.5387
1.42675
1.37676
1.36621
1.32931
1.28258
1.26173
1.2635
1.25707
1.24453
1.24284
1.24971
1.25626
1.25996
1.26261
1.26279
1.26854
1.34
1.77043
2.56647
3.27616
3.37358
3.36288
3.32334
3.25444
3.1682
3.04849
2.92341
2.84411
2.79558
2.75559
2.73453
2.72397
2.6733
2.62155
2.57466
2.52896
2.48074
2.41854
2.34473
2.29065
2.24894
2.2068
2.16511
2.13353
2.12114
2.11404
2.12102
2.18957
2.38067
2.68665
2.99048
3.2204
3.35551
3.43104
3.47852
3.48324
3.43365
3.34723
3.24543
3.16198
3.11231
3.08407
3.07048
3.03205
4.03398
4.31695
4.42274
4.34917
4.17072
3.93993
3.68281
3.43827
3.19959
2.96338
2.78273
2.6212
2.42048
2.24381
2.15248
2.04677
1.89688
1.77527
1.71817
1.64648
1.53546
1.45969
1.43266
1.3904
1.31898
1.28559
1.28786
1.27445
1.2515
1.24018
1.24063
1.24178
1.2409
1.24193
1.25088
1.32582
1.87156
2.75673
3.35505
3.45544
3.35942
3.25668
3.20482
3.16293
3.10823
3.04089
2.96189
2.8834
2.81193
2.75135
2.70304
2.65286
2.59833
2.5443
2.50238
2.47645
2.45817
2.42958
2.38358
2.29939
2.21374
2.16339
2.1212
2.08575
2.06467
2.04744
2.0393
2.02302
2.00759
2.05973
2.21928
2.49782
2.7902
3.03736
3.24733
3.31882
3.33693
3.33112
3.26406
3.16238
3.07835
3.03574
3.02032
2.9861
3.90335
4.1467
4.36109
4.39434
4.28203
4.08131
3.84046
3.6235
3.3888
3.12567
2.94577
2.78448
2.58113
2.40386
2.30201
2.18431
2.01803
1.91054
1.84904
1.76683
1.64025
1.55178
1.52371
1.47622
1.40114
1.34252
1.33264
1.31043
1.27302
1.24985
1.24903
1.24633
1.23874
1.24717
1.34228
1.84896
2.97035
3.43032
3.44669
3.35547
3.2437
3.17399
3.13274
3.09617
3.06895
3.03077
2.97803
2.91593
2.8414
2.75734
2.66505
2.5735
2.51613
2.47985
2.45447
2.45417
2.43795
2.40249
2.36363
2.29777
2.19056
2.12537
2.0935
2.06526
2.04895
2.0312
2.00912
1.97813
1.95
1.89127
1.86024
1.8942
2.04621
2.29791
2.62352
2.89352
3.12164
3.1751
3.17343
3.15167
3.08419
3.00273
2.97231
2.93624
3.86913
3.96413
4.21215
4.37962
4.36758
4.23063
3.99913
3.77159
3.56191
3.32144
3.11811
2.95822
2.74887
2.54288
2.43326
2.33609
2.16851
2.03845
1.9731
1.89705
1.76509
1.66507
1.62417
1.56999
1.47854
1.41135
1.40025
1.37011
1.32174
1.27678
1.25648
1.24684
1.25565
1.39197
1.94434
2.99843
3.53935
3.50836
3.43686
3.3315
3.21522
3.14877
3.11123
3.07406
3.03055
2.98346
2.93812
2.89363
2.83564
2.75505
2.64928
2.54398
2.476
2.44305
2.42234
2.41252
2.38433
2.3457
2.30817
2.25998
2.17612
2.09386
2.06672
2.05656
2.03952
2.01602
1.98956
1.95758
1.91556
1.86051
1.80184
1.75454
1.75299
1.79437
1.93907
2.18482
2.5156
2.7735
2.93741
3.011
3.00937
2.95364
2.93238
2.89537
3.8712
3.91462
4.05355
4.27413
4.3819
4.32726
4.15595
3.94491
3.71493
3.46785
3.29116
3.12571
2.92746
2.71346
2.5819
2.46316
2.29887
2.16614
2.10458
2.02682
1.88863
1.77901
1.73197
1.67498
1.58116
1.48848
1.4657
1.43425
1.38143
1.33235
1.29659
1.30336
1.46296
2.1632
3.06414
3.622
3.60972
3.50276
3.3961
3.28533
3.1842
3.11338
3.05763
3.01371
2.97157
2.91983
2.87154
2.83372
2.79133
2.73247
2.65645
2.56526
2.47738
2.41441
2.37319
2.33712
2.30572
2.27578
2.24243
2.20924
2.16643
2.09621
2.03248
2.00556
1.98251
1.95942
1.93339
1.8998
1.86767
1.83525
1.79685
1.73666
1.69554
1.68464
1.6896
1.72891
1.84867
2.0689
2.32657
2.55319
2.76679
2.80587
2.80426
2.82754
3.74075
3.82256
3.95171
4.13621
4.32669
4.37141
4.28973
4.11819
3.89405
3.62378
3.44034
3.28445
3.08631
2.88323
2.75548
2.62391
2.43858
2.28832
2.22389
2.14089
2.0101
1.90332
1.85133
1.78545
1.67938
1.58702
1.55382
1.51657
1.45354
1.38203
1.39174
1.582
2.39666
3.33333
3.67818
3.69127
3.57552
3.42133
3.31578
3.24008
3.16828
3.09144
3.00434
2.93963
2.89933
2.84668
2.79592
2.76361
2.72573
2.68447
2.64183
2.57732
2.47572
2.38201
2.32834
2.28392
2.25171
2.22987
2.2064
2.17586
2.14295
2.09536
2.02152
1.96133
1.93386
1.91487
1.89214
1.85958
1.83351
1.81556
1.79179
1.74877
1.68383
1.63868
1.62587
1.61786
1.61174
1.63413
1.72577
1.89312
2.1244
2.36217
2.50865
2.65398
3.36196
3.67964
3.91568
4.06035
4.19858
4.3308
4.35836
4.26843
4.08074
3.82868
3.59673
3.41792
3.23471
3.04514
2.90794
2.77748
2.59069
2.43092
2.35266
2.26665
2.11555
2.00711
1.96012
1.90236
1.79516
1.69852
1.64667
1.60238
1.53224
1.54686
1.82878
2.67912
3.7082
3.86954
3.78349
3.66348
3.51091
3.39668
3.32994
3.2687
3.1927
3.09622
2.98455
2.87485
2.80838
2.74904
2.7085
2.68432
2.64949
2.61825
2.58888
2.53761
2.44585
2.34528
2.29283
2.25374
2.21759
2.19464
2.174
2.14232
2.10621
2.06636
1.98913
1.90314
1.87745
1.86726
1.85572
1.83931
1.82504
1.80704
1.77821
1.72701
1.64828
1.5997
1.58685
1.57544
1.5549
1.54511
1.54836
1.56785
1.61744
1.73798
1.90725
2.2367
2.16418
3.05234
3.78292
3.99286
4.00918
4.18897
4.31831
4.31004
4.19271
3.98606
3.78744
3.60048
3.3693
3.17874
3.05667
2.91768
2.74081
2.57967
2.49218
2.38882
2.24719
2.12361
2.06962
2.0038
1.89919
1.79514
1.74642
1.69686
1.75233
2.2396
3.24118
4.09338
4.18921
4.0283
3.85347
3.68153
3.55481
3.45953
3.37307
3.28887
3.19748
3.09828
2.98587
2.85875
2.76874
2.70805
2.65778
2.61585
2.59125
2.57016
2.53766
2.48737
2.38899
2.29485
2.25829
2.22447
2.19404
2.16928
2.14139
2.11204
2.07472
2.02172
1.94297
1.85944
1.8322
1.82267
1.81127
1.7957
1.77951
1.76041
1.73561
1.69308
1.61701
1.57076
1.56076
1.54968
1.52904
1.51127
1.50193
1.49405
1.47973
1.462
1.47128
1.65326
1.19362
1.78399
2.89619
3.74455
3.89769
4.11826
4.26794
4.28942
4.22828
4.08455
3.92596
3.77241
3.55288
3.35791
3.20662
3.05056
2.84962
2.72044
2.63562
2.52456
2.36333
2.26333
2.1911
2.11778
1.99847
1.88562
1.85578
1.98263
2.69087
3.89415
4.61379
4.64128
4.44386
4.17954
3.9637
3.79021
3.64811
3.53214
3.42037
3.31221
3.20866
3.10443
2.99244
2.87489
2.76877
2.68638
2.6339
2.59388
2.5507
2.50501
2.46024
2.40831
2.3253
2.24619
2.21269
2.18936
2.16797
2.14547
2.11685
2.08139
2.03994
1.98863
1.91643
1.82773
1.79323
1.78386
1.78391
1.77469
1.75133
1.72746
1.70545
1.66759
1.59754
1.55122
1.54266
1.53217
1.51328
1.49286
1.47629
1.46125
1.44031
1.41149
1.36356
1.37106
1.00713
1.09796
1.56361
2.78324
3.46255
3.89081
4.24048
4.32331
4.31886
4.21714
4.05734
3.9068
3.70981
3.53571
3.3755
3.2165
3.00821
2.85315
2.7507
2.63521
2.48688
2.39135
2.3219
2.23068
2.09576
2.07333
2.32155
3.20689
4.54144
5.09666
5.04103
4.8185
4.53779
4.27988
4.04947
3.86835
3.7193
3.58909
3.47027
3.36263
3.26357
3.16474
3.05618
2.93165
2.79925
2.681
2.60468
2.55146
2.49832
2.44615
2.40029
2.35198
2.28856
2.22381
2.15823
2.10809
2.08542
2.06707
2.04615
2.01964
1.98468
1.95017
1.90656
1.82104
1.75139
1.74001
1.73318
1.72005
1.69854
1.67819
1.66423
1.64715
1.60143
1.52612
1.48913
1.47702
1.46198
1.44942
1.43992
1.42666
1.40947
1.38645
1.35844
1.31242
1.00006
1.0031
1.04988
1.48705
2.49748
3.25779
3.99673
4.25991
4.34786
4.27474
4.18921
4.09102
3.89695
3.68183
3.50546
3.34646
3.15329
3.0281
2.90433
2.76308
2.60004
2.47989
2.43136
2.33846
2.36766
2.84277
4.03183
5.19567
5.57563
5.42486
5.16483
4.89345
4.64337
4.41213
4.1817
3.97375
3.80702
3.66833
3.54312
3.42743
3.3202
3.21709
3.10886
2.98503
2.84691
2.71929
2.62444
2.55359
2.48978
2.42695
2.36909
2.31556
2.26791
2.21283
2.13253
2.05571
2.02759
2.01139
1.99303
1.96633
1.93044
1.89614
1.86185
1.80033
1.72279
1.69814
1.69227
1.68066
1.65838
1.64151
1.62903
1.61028
1.57016
1.5079
1.46757
1.44907
1.43419
1.42089
1.40928
1.39511
1.37656
1.35493
1.33053
1.2945
1
1.00002
1.00132
1.03787
1.3483
1.98949
3.21367
4.03416
4.13698
4.2272
4.23201
4.17013
3.99615
3.80674
3.65839
3.48479
3.28241
3.15869
3.01881
2.89364
2.72648
2.62105
2.5557
2.71879
3.56669
5.13569
5.90682
5.93438
5.73168
5.44786
5.20577
4.99584
4.79849
4.58251
4.34241
4.11402
3.92358
3.76508
3.6256
3.49975
3.38466
3.27262
3.15188
3.01489
2.86254
2.72328
2.62752
2.56232
2.50282
2.44232
2.38258
2.32608
2.27083
2.20639
2.11719
2.01931
1.97639
1.96289
1.9482
1.92334
1.89115
1.86011
1.82748
1.78211
1.71442
1.65718
1.64572
1.63532
1.61285
1.59583
1.58578
1.57143
1.54884
1.51118
1.45766
1.41742
1.39519
1.38092
1.37086
1.35849
1.34381
1.33394
1.32517
1.28599
1
1
1.00001
1.00071
1.0194
1.14126
1.74592
3.16411
3.78264
4.12481
4.29609
4.23961
4.12159
3.98234
3.84462
3.61954
3.45082
3.29974
3.1491
3.00166
2.8391
2.83332
3.24227
4.61831
6.16892
6.77849
6.59149
6.18659
5.82464
5.53395
5.30365
5.10977
4.92176
4.71388
4.48252
4.24773
4.03688
3.85883
3.70366
3.56221
3.43139
3.30868
3.18857
3.06428
2.92962
2.78866
2.65359
2.56549
2.51989
2.48287
2.43619
2.37171
2.29736
2.2194
2.12016
2.01491
1.95041
1.92383
1.91027
1.89069
1.86729
1.84376
1.81116
1.7674
1.70225
1.62523
1.59518
1.57772
1.55731
1.54407
1.53762
1.52676
1.50538
1.47251
1.42604
1.37857
1.3535
1.34507
1.34114
1.3371
1.3291
1.31875
1.30355
1.26135
1
1
1
1
1.00021
1.00503
1.0738
1.72251
2.8288
3.66837
4.23003
4.31094
4.25365
4.12156
3.98253
3.79611
3.62782
3.42009
3.2805
3.11475
3.19447
3.99712
5.77946
7.25925
7.32368
7.13609
6.72012
6.30778
5.97914
5.68633
5.42475
5.19808
4.98854
4.77902
4.56073
4.33329
4.11145
3.91689
3.75454
3.6152
3.4864
3.35739
3.22171
3.08416
2.95846
2.8432
2.73547
2.64133
2.55959
2.49012
2.42168
2.34384
2.26052
2.18362
2.1127
2.02872
1.95958
1.91972
1.88879
1.85449
1.81975
1.78727
1.75149
1.71114
1.66191
1.60185
1.55866
1.53024
1.50969
1.50073
1.49871
1.48979
1.47351
1.44478
1.39452
1.34711
1.32888
1.32216
1.3195
1.31539
1.30789
1.29775
1.28422
1.24758
1
1
1
1
1
1.00004
1.00207
1.07502
1.53706
2.33978
3.73042
4.20714
4.20239
4.16291
4.09349
3.9327
3.71274
3.53735
3.42906
3.69871
5.20899
7.12814
8.18877
8.21894
7.8369
7.27035
6.75107
6.3597
6.06669
5.80196
5.5429
5.29537
5.06337
4.84213
4.62046
4.38562
4.1478
3.94385
3.78417
3.65388
3.53681
3.41848
3.29348
3.16163
3.02375
2.87861
2.74434
2.6566
2.58678
2.51103
2.43517
2.36175
2.2863
2.20214
2.11593
2.05876
2.00597
1.94788
1.88675
1.83165
1.79598
1.76629
1.73172
1.69305
1.64022
1.5781
1.53607
1.51204
1.48857
1.4723
1.46432
1.45313
1.43607
1.41046
1.36972
1.32403
1.30594
1.29952
1.29522
1.29382
1.28969
1.27915
1.26603
1.23515
1
1
1
1
1
1
1.00002
1.00198
1.04023
1.22879
2.27579
3.63657
4.02547
4.1859
4.19023
4.03993
3.8153
3.77044
4.34756
6.70269
8.72
8.80649
8.6292
8.22031
7.78829
7.33468
6.87915
6.47743
6.14976
5.87646
5.62696
5.38749
5.15409
4.92451
4.69494
4.45803
4.21853
4.00374
3.82645
3.67657
3.55213
3.44453
3.34706
3.24879
3.12493
2.96903
2.81405
2.68385
2.57808
2.4911
2.41666
2.35874
2.31017
2.24949
2.16855
2.07014
1.97336
1.90407
1.85046
1.80464
1.7718
1.74624
1.72246
1.6918
1.6376
1.56476
1.5099
1.47771
1.45227
1.43531
1.42637
1.4166
1.4025
1.38154
1.3423
1.2939
1.27913
1.27449
1.27221
1.27544
1.27215
1.26239
1.25209
1.22512
1
1
1
1
1
1
1
1.00001
1.00057
1.00985
1.19793
2.27348
3.28089
4.06162
4.13624
4.10864
4.13968
5.24291
8.10774
10.053
10.0402
9.4315
8.68326
8.17011
7.79235
7.4096
6.98981
6.58195
6.21956
5.91707
5.66892
5.44782
5.23204
5.00454
4.7537
4.48813
4.23925
4.03811
3.87713
3.72827
3.59523
3.4812
3.37183
3.25074
3.09911
2.92729
2.79279
2.67631
2.58478
2.51378
2.45389
2.39491
2.32678
2.2499
2.16453
2.06604
1.97179
1.89932
1.84499
1.80729
1.77964
1.7509
1.71823
1.6775
1.6214
1.55859
1.50507
1.46549
1.43622
1.42013
1.4105
1.39964
1.38519
1.36427
1.32501
1.27559
1.25962
1.25433
1.25201
1.25369
1.24749
1.23993
1.23329
1.2107
1
1
1
1
1
1
1
1
1
1.00012
1.00876
1.21486
1.88547
3.00516
3.83508
4.51194
6.17219
9.69133
10.8845
10.3981
9.75496
9.30909
8.80704
8.30643
7.89061
7.5007
7.08811
6.67161
6.29082
5.969
5.70363
5.47484
5.26024
5.03617
4.78699
4.52541
4.28443
4.06715
3.88819
3.78754
3.69075
3.57243
3.44667
3.31325
3.15144
2.94286
2.80766
2.7488
2.68621
2.62073
2.55176
2.47558
2.39235
2.30393
2.20856
2.10942
2.01965
1.95037
1.90097
1.86303
1.82597
1.78588
1.74302
1.69578
1.64375
1.5869
1.52718
1.47792
1.44678
1.43056
1.4185
1.4052
1.38854
1.36582
1.32594
1.27375
1.25327
1.24644
1.24133
1.23919
1.23656
1.23132
1.22514
1.20394
1
1
1
1
1
1
1
1
1
1
1.00012
1.00929
1.0995
1.62257
3.69417
6.77913
11.2914
15.5438
13.2384
10.9224
9.55382
9.08727
8.75932
8.38229
7.96564
7.54005
7.11043
6.68348
6.30407
5.98591
5.70899
5.45886
5.22457
5.0015
4.78358
4.55525
4.31128
4.0901
3.92124
3.77011
3.62364
3.48903
3.35586
3.21691
3.07172
2.93942
2.82225
2.70883
2.62324
2.55057
2.47815
2.40315
2.32404
2.23517
2.13537
2.03631
1.95454
1.89251
1.8456
1.80777
1.77164
1.7337
1.68922
1.63922
1.58874
1.53395
1.47641
1.42953
1.40179
1.3899
1.38077
1.37023
1.3554
1.33018
1.28135
1.23513
1.22449
1.21935
1.21666
1.21912
1.21891
1.21414
1.20954
1.18852
)
;

boundaryField
{
    inlet
    {
        type            fixedValue;
        value           uniform 1;
    }
    outlet
    {
        type            zeroGradient;
    }
    bottom
    {
        type            zeroGradient;
    }
    top
    {
        type            zeroGradient;
    }
    obstacle
    {
        type            zeroGradient;
    }
    defaultFaces
    {
        type            empty;
    }
}


// ************************************************************************* //
