/*--------------------------------*- C++ -*----------------------------------*\
  =========                 |
  \\      /  F ield         | OpenFOAM: The Open Source CFD Toolbox
   \\    /   O peration     | Website:  https://openfoam.org
    \\  /    A nd           | Version:  7
     \\/     M anipulation  |
\*---------------------------------------------------------------------------*/
FoamFile
{
    version     2.0;
    format      ascii;
    class       volScalarField;
    location    "2.6";
    object      rho;
}
// * * * * * * * * * * * * * * * * * * * * * * * * * * * * * * * * * * * * * //

dimensions      [1 -3 0 0 0 0 0];

internalField   nonuniform List<scalar> 
4080
(
1.40001
1.40001
1.40001
1.40001
1.40001
1.40001
1.40001
1.40001
1.40001
1.40001
1.40001
1.40001
1.40001
1.40001
1.40001
1.40001
1.40001
1.87236
4.76075
5.52141
5.60473
5.71947
5.81605
5.89956
1.40001
1.40001
1.40001
1.40001
1.40001
1.40001
1.40001
1.40001
1.40001
1.40001
1.40001
1.40001
1.40001
1.40001
1.40001
1.40001
1.40001
1.80157
4.63649
5.48842
5.57175
5.67583
5.76125
5.80451
1.40001
1.40001
1.40001
1.40001
1.40001
1.40001
1.40001
1.40001
1.40001
1.40001
1.40001
1.40001
1.40001
1.40001
1.40001
1.40001
1.40001
1.64798
4.43141
5.44879
5.5035
5.57272
5.60953
5.65569
1.40001
1.40001
1.40001
1.40001
1.40001
1.40001
1.40001
1.40001
1.40001
1.40001
1.40001
1.40001
1.40001
1.40001
1.40001
1.40001
1.40001
1.43778
4.0854
5.38318
5.40147
5.4496
5.43995
5.49599
1.40001
1.40001
1.40001
1.40001
1.40001
1.40001
1.40001
1.40001
1.40001
1.40001
1.40001
1.40001
1.40001
1.40001
1.40001
1.40001
1.40001
1.40049
3.50521
5.21805
5.23425
5.22447
4.97871
4.25814
1.40001
1.40001
1.40001
1.40001
1.40001
1.40001
1.40001
1.40001
1.40001
1.40001
1.40001
1.40001
1.40001
1.40001
1.40001
1.40001
1.40001
1.4
2.77833
5.01814
5.12325
5.00464
4.71197
4.01934
1.40001
1.40001
1.40001
1.40001
1.40001
1.40001
1.40001
1.40001
1.40001
1.40001
1.40001
1.40001
1.40001
1.40001
1.40001
1.40001
1.40001
1.4
1.98734
4.69923
5.07895
4.87047
4.56263
3.87035
1.40001
1.40001
1.40001
1.40001
1.40001
1.40001
1.40001
1.40001
1.40001
1.40001
1.40001
1.40001
1.40001
1.40001
1.40001
1.40001
1.40001
1.4
1.47666
3.88679
4.93055
4.70769
4.41869
3.82295
1.40001
1.40001
1.40001
1.40001
1.40001
1.40001
1.40001
1.40001
1.40001
1.40001
1.40001
1.40001
1.40001
1.40001
1.40001
1.40001
1.40001
1.40001
1.40034
2.71344
4.68446
4.66255
4.34336
3.86301
1.40001
1.40001
1.40001
1.40001
1.40001
1.40001
1.40001
1.40001
1.40001
1.40001
1.40001
1.40001
1.40001
1.40001
1.40001
1.40001
1.40001
1.40001
1.4
1.67762
4.08528
4.70813
4.35496
3.9251
1.40001
1.40001
1.40001
1.40001
1.40001
1.40001
1.40001
1.40001
1.40001
1.40001
1.40001
1.40001
1.40001
1.40001
1.40001
1.40001
1.40001
1.40001
1.4
1.40972
2.86266
4.52832
4.3753
3.97716
1.40001
1.40001
1.40001
1.40001
1.40001
1.40001
1.40001
1.40001
1.40001
1.40001
1.40001
1.40001
1.40001
1.40001
1.40001
1.40001
1.40001
1.40001
1.4
1.40002
1.71951
3.84632
4.45906
4.06887
1.40001
1.40001
1.40001
1.40001
1.40001
1.40001
1.40001
1.40001
1.40001
1.40001
1.40001
1.40001
1.40001
1.40001
1.40001
1.40001
1.40001
1.40001
1.40001
1.40001
1.41274
2.49147
4.20813
4.14207
1.40001
1.40001
1.40001
1.40001
1.40001
1.40001
1.40001
1.40001
1.40001
1.40001
1.40001
1.40001
1.40001
1.40001
1.40001
1.40001
1.40001
1.40001
1.40001
1.40001
1.40009
1.57378
3.2857
4.18806
1.40001
1.40001
1.40001
1.40001
1.40001
1.40001
1.40001
1.40001
1.40001
1.40001
1.40001
1.40001
1.40001
1.40001
1.40001
1.40001
1.40001
1.40001
1.40001
1.40001
1.40001
1.40444
1.97018
3.68283
1.40001
1.40001
1.40001
1.40001
1.40001
1.40001
1.40001
1.40001
1.40001
1.40001
1.40001
1.40001
1.40001
1.40001
1.40001
1.40001
1.40001
1.40001
1.40001
1.40001
1.40001
1.40003
1.44455
2.41812
1.40001
1.40001
1.40001
1.40001
1.40001
1.40001
1.40001
1.40001
1.40001
1.40001
1.40001
1.40001
1.40001
1.40001
1.40001
1.40001
1.40001
1.40001
1.40001
1.40001
1.40001
1.40001
1.40069
1.5463
1.40001
1.40001
1.40001
1.40001
1.40001
1.40001
1.40001
1.40001
1.40001
1.40001
1.40001
1.40001
1.40001
1.40001
1.40001
1.40001
1.40001
1.40001
1.40001
1.40001
1.40001
1.40001
1.40001
1.40432
1.40001
1.40001
1.40001
1.40001
1.40001
1.40001
1.40001
1.40001
1.40001
1.40001
1.40001
1.40001
1.40001
1.40001
1.40001
1.40001
1.40001
1.40001
1.40001
1.40001
1.40001
1.40001
1.40001
1.40003
1.40001
1.40001
1.40001
1.40001
1.40001
1.40001
1.40001
1.40001
1.40001
1.40001
1.40001
1.40001
1.40001
1.40001
1.40001
1.40001
1.40001
1.40001
1.40001
1.40001
1.40001
1.40001
1.40001
1.40001
1.40001
1.40001
1.40001
1.40001
1.40001
1.40001
1.40001
1.40001
1.40001
1.40001
1.40001
1.40001
1.40001
1.40001
1.40001
1.40001
1.40001
1.40001
1.40001
1.40001
1.40001
1.40001
1.40001
1.40001
1.40001
1.40001
1.40001
1.40001
1.40001
1.40001
1.40001
1.40001
1.40001
1.40001
1.40001
1.40001
1.40001
1.40001
1.40001
1.40001
1.40001
1.40001
1.40001
1.40001
1.40001
1.40001
1.40001
1.40001
1.40001
1.40001
1.40001
1.40001
1.40001
1.40001
1.40001
1.40001
1.40001
1.40001
1.40001
1.40001
1.40001
1.40001
1.40001
1.40001
1.40001
1.40001
1.40001
1.40001
1.40001
1.40001
1.40001
1.40001
1.40001
1.40001
1.40001
1.40001
1.40001
1.40001
1.40001
1.40001
1.40001
1.40001
1.40001
1.40001
1.40001
1.40001
1.40001
1.40001
1.40001
1.40001
1.40001
1.40001
1.40001
1.40001
1.40001
1.40001
1.40001
1.40001
1.40001
1.40001
1.40001
1.40001
1.40001
1.40001
1.40001
1.40001
1.40001
1.40001
1.40001
1.40001
1.40001
1.40001
1.40001
1.40001
1.40001
1.40001
1.40001
1.40001
1.40001
1.40001
1.40001
1.40001
1.40001
1.40001
1.40001
1.40001
1.40001
1.40001
1.40001
1.40001
1.40001
1.40001
1.40001
1.40001
1.40001
1.40001
1.40001
1.40001
1.40001
1.40001
1.40001
1.40001
1.40001
1.40001
1.40001
1.40001
1.40001
1.40001
1.40001
1.40001
1.40001
1.40001
1.40001
1.40001
1.40001
1.40001
1.40001
1.40001
1.40001
1.40001
1.40001
1.40001
1.40001
1.40001
1.40001
1.40001
1.40001
1.40001
1.40001
1.40001
1.40001
1.40001
1.40001
1.40001
1.40001
1.40001
1.40001
1.40001
1.40001
1.40001
1.40001
1.40001
1.40001
1.40001
1.40001
1.40001
1.40001
1.40001
1.40001
1.40001
1.40001
1.40001
1.40001
1.40001
1.40001
1.40001
1.40001
1.40001
1.40001
1.40001
1.40001
1.40001
1.40001
1.40001
1.40001
1.40001
1.40001
1.40001
1.40001
1.40001
1.40001
1.40001
1.40001
1.40001
1.40001
1.40001
1.40001
1.40001
1.40001
1.40001
1.40001
1.40001
1.40001
1.40001
1.40001
1.40001
1.40001
1.40001
1.40001
1.40001
1.40001
1.40001
1.40001
1.40001
1.40001
1.40001
1.40001
1.40001
1.40001
1.40001
1.40001
1.40001
1.40001
1.40001
1.40001
1.40001
1.40001
1.40001
1.40001
1.40001
1.40001
1.40001
1.40001
1.40001
1.40001
1.40001
1.40001
1.40001
1.40001
1.40001
1.40001
1.40001
1.40001
1.40001
1.40001
1.40001
1.40001
1.40001
1.40001
1.40001
1.40001
1.40001
1.40001
1.40001
1.40001
1.40001
1.40001
1.40001
1.40001
1.40001
1.40001
1.40001
1.40001
1.40001
1.40001
1.40001
1.40001
1.40001
1.40001
1.40001
1.40001
1.40001
1.40001
1.40001
1.40001
1.40001
1.40001
1.40001
1.40001
1.40001
1.40001
1.40001
1.40001
1.40001
1.40001
1.40001
1.40001
1.40001
1.40001
1.40001
1.40001
1.40001
1.40001
1.40001
1.40001
1.40001
1.40001
1.40001
1.40001
1.40001
1.40001
1.40001
1.40001
1.40001
1.40001
1.40001
1.40001
1.40001
1.40001
1.40001
1.40001
1.40001
1.40001
1.40001
1.40001
1.40001
1.40001
1.40001
1.40001
1.40001
1.40001
1.40001
1.40001
1.40001
1.40001
1.40001
1.40001
1.40001
1.40001
1.40001
1.40001
1.40001
1.40001
1.40001
1.40001
1.40001
1.40001
1.40001
1.40001
1.40001
1.40001
1.40001
1.40001
1.40001
1.40001
1.40001
1.40001
1.40001
1.40001
1.40001
1.40001
1.40001
1.40001
1.40001
1.40001
1.40001
1.40001
1.40001
1.40001
1.40001
1.40001
1.40001
1.40001
1.40001
1.40001
1.40001
1.40001
1.40001
1.40001
1.40001
1.40001
1.40001
1.40001
1.40001
1.40001
1.40001
1.40001
1.40001
1.40001
1.40001
1.40001
1.40001
1.40001
1.40001
1.40001
1.40001
1.40001
1.40001
1.40001
1.40001
1.40001
1.40001
1.40001
1.40001
1.40001
1.40001
1.40001
1.40001
1.40001
1.40001
1.40001
1.40001
1.40001
1.40001
1.40001
1.40001
1.40001
1.40001
1.40001
1.40001
1.40001
1.40001
1.40001
1.40001
1.40001
1.40001
1.40001
1.40001
1.40001
1.40001
1.40001
1.40001
1.40001
1.40001
1.40001
1.40001
1.40001
1.40001
1.40001
1.40001
1.40001
1.40001
1.40001
1.40001
1.40001
1.40001
1.40001
1.40001
1.40001
1.40001
1.40001
1.40001
1.40001
1.40001
1.40001
1.40001
1.40001
1.40001
1.40001
1.40001
1.40001
1.40001
1.40001
1.40001
1.40001
1.40001
1.40001
1.40001
1.40001
1.40001
1.6367
0.609271
1.05065
1.83005
2.11
2.25926
2.33195
2.35455
2.34803
2.34023
2.33085
2.33284
2.31426
1.34884
1.65066
2.25465
2.29014
2.32075
2.35408
2.36795
2.35765
2.34755
2.33657
2.33642
2.81202
1.95719
1.81335
2.26714
2.41076
2.3573
2.36926
2.37986
2.37094
2.36207
2.34096
2.3395
3.11799
2.42965
2.02675
2.27172
2.64731
2.62687
2.59339
2.53622
2.47585
2.43321
2.38372
2.38646
3.32718
2.77833
2.25203
2.27699
2.59113
2.85224
2.83329
2.70407
2.60079
2.51304
2.38943
2.06277
3.47131
3.0053
2.51106
2.32118
2.47042
2.82224
3.00459
2.90244
2.81691
2.70256
2.54181
2.25909
3.5785
3.18458
2.7562
2.41835
2.44176
2.7024
3.04232
3.03493
2.97618
2.88412
2.72186
2.4864
3.70727
3.3584
2.97287
2.60759
2.48081
2.57558
2.95366
3.08456
3.05898
3.00793
2.88558
2.70791
3.83295
3.50047
3.16754
2.80802
2.55642
2.57289
2.80099
3.06988
3.1048
3.07557
2.99205
2.85987
3.9914
3.66107
3.35453
3.01187
2.71181
2.61076
2.69728
2.9939
3.13055
3.11726
3.06153
2.96137
4.04598
3.82728
3.51321
3.20949
2.88299
2.66917
2.69619
2.86641
3.10372
3.15902
3.11878
3.03991
3.793
3.93655
3.70302
3.39944
3.08645
2.80546
2.72929
2.80256
3.04212
3.19505
3.17381
3.1132
2.7919
3.81086
3.83031
3.60422
3.30665
2.9839
2.79923
2.81248
2.93291
3.1708
3.22389
3.1804
1.70048
3.03227
3.77363
3.75391
3.52788
3.21009
2.93038
2.8462
2.89496
3.08952
3.25374
3.24242
1.4149
1.85263
3.15577
3.72079
3.68752
3.46172
3.1289
2.91916
2.91335
2.98809
3.21093
3.29917
1.40017
1.43182
1.96854
3.20584
3.66634
3.63396
3.39672
3.08955
2.96228
2.98556
3.12147
3.29793
1.40001
1.40049
1.44966
2.04194
3.20916
3.61192
3.58259
3.34464
3.09503
3.02171
3.06862
3.24236
1.40001
1.40001
1.40094
1.46419
2.07457
3.17554
3.55452
3.52667
3.31606
3.11718
3.09891
3.16488
1.40001
1.40001
1.40001
1.40139
1.47217
2.07049
3.1098
3.49262
3.46783
3.30318
3.16384
3.17679
1.40001
1.40001
1.40001
1.40001
1.40169
1.47274
2.03446
3.01595
3.43115
3.41292
3.30402
3.21981
1.40001
1.40001
1.40001
1.40001
1.40001
1.40174
1.46689
1.96956
2.91549
3.36774
3.36391
3.30625
1.40001
1.40001
1.40001
1.40001
1.40001
1.40001
1.40151
1.45761
1.89335
2.78043
3.3188
3.33374
1.40001
1.40001
1.40001
1.40001
1.40001
1.40001
1.40001
1.40131
1.44369
1.80872
2.66347
3.25397
1.40001
1.40001
1.40001
1.40001
1.40001
1.40001
1.40001
1.40001
1.40084
1.4341
1.71754
2.53409
1.40001
1.40001
1.40001
1.40001
1.40001
1.40001
1.40001
1.40001
1.40001
1.40064
1.42114
1.65227
1.40001
1.40001
1.40001
1.40001
1.40001
1.40001
1.40001
1.40001
1.40001
1.40001
1.40033
1.41365
1.40001
1.40001
1.40001
1.40001
1.40001
1.40001
1.40001
1.40001
1.40001
1.40001
1.40001
1.40018
1.40001
1.40001
1.40001
1.40001
1.40001
1.40001
1.40001
1.40001
1.40001
1.40001
1.40001
1.40001
1.40001
1.40001
1.40001
1.40001
1.40001
1.40001
1.40001
1.40001
1.40001
1.40001
1.40001
1.40001
1.40001
1.40001
1.40001
1.40001
1.40001
1.40001
1.40001
1.40001
1.40001
1.40001
1.40001
1.40001
1.40001
1.40001
1.40001
1.40001
1.40001
1.40001
1.40001
1.40001
1.40001
1.40001
1.40001
1.40001
1.40001
1.40001
1.40001
1.40001
1.40001
1.40001
1.40001
1.40001
1.40001
1.40001
1.40001
1.40001
1.40001
1.40001
1.40001
1.40001
1.40001
1.40001
1.40001
1.40001
1.40001
1.40001
1.40001
1.40001
1.40001
1.40001
1.40001
1.40001
1.40001
1.40001
1.40001
1.40001
1.40001
1.40001
1.40001
1.40001
1.40001
1.40001
1.40001
1.40001
1.40001
1.40001
1.40001
1.40001
1.40001
1.40001
1.40001
1.40001
1.40001
1.40001
1.40001
1.40001
1.40001
1.40001
1.40001
1.40001
1.40001
1.40001
1.40001
1.40001
1.0871
0.798664
0.79392
0.853287
0.92093
0.980547
1.01971
1.0177
1.01106
1.00678
0.994596
0.978626
0.970483
0.969116
0.971387
0.977417
0.980276
0.981107
0.980408
0.978122
0.97421
0.968296
0.963954
0.962199
0.962408
0.966214
0.96875
0.96813
0.966415
0.964398
0.961855
0.958145
0.954342
0.952162
0.951164
0.952477
0.956099
0.956292
0.954412
0.951927
0.948184
0.94262
0.937695
0.93555
0.93463
0.935838
0.938165
0.934131
1.15336
2.06241
2.35819
2.37103
2.3838
2.39468
2.40213
2.42194
2.43629
2.43832
2.429
2.41554
2.40303
2.39116
2.37553
2.35453
2.33128
2.30999
2.29537
2.29376
2.30622
2.29965
2.26999
2.23593
2.20083
2.17147
2.14768
2.13414
2.12891
2.12592
2.1165
2.09642
2.06823
2.02752
1.97487
1.91916
1.58788
1.25754
1.08909
1.01337
0.981425
0.984422
1.00717
1.00221
1.00055
1.00583
1.00924
1.00741
1.00263
0.999867
1.00045
1.00072
0.997042
0.991684
0.989175
0.988044
0.987354
0.986617
0.984533
0.981784
0.979833
0.977776
0.975897
0.974661
0.974671
0.974396
0.973586
0.972427
0.970332
0.966448
0.962593
0.960336
0.959168
0.959277
0.961097
0.960632
0.95879
0.956644
0.953138
0.947987
0.943172
0.939477
0.937156
0.936223
1.10753
2.07718
2.43754
2.44314
2.44881
2.45775
2.45763
2.45518
2.44845
2.43811
2.43158
2.43279
2.43265
2.43083
2.42779
2.41452
2.38664
2.34996
2.31517
2.29103
2.28598
2.2946
2.29438
2.27799
2.25238
2.22047
2.183
2.14805
2.12286
2.10493
2.09503
2.08467
2.06977
2.05009
2.02801
1.9793
1.95336
1.57407
1.32681
1.11696
1.05272
1.02236
1.0226
1.04478
1.06489
1.08558
1.09245
1.0848
1.06996
1.06628
1.06356
1.0593
1.04989
1.03534
1.02744
1.02614
1.02608
1.02784
1.03006
1.02983
1.02754
1.02397
1.01863
1.0109
1.00491
1.00303
1.00217
1.00272
1.0043
1.00384
1.00212
0.998582
0.993205
0.988459
0.985515
0.983595
0.982461
0.981909
0.981621
0.980343
0.977863
0.971257
0.9632
0.972987
1.11515
2.08658
2.62386
2.62701
2.60062
2.58084
2.60554
2.61591
2.60374
2.58414
2.57161
2.56087
2.54268
2.52734
2.52393
2.52421
2.51426
2.49233
2.45851
2.41174
2.37324
2.3484
2.33942
2.33537
2.32886
2.31578
2.29381
2.25959
2.20515
2.14133
2.10056
2.07861
2.06688
2.06659
2.07356
2.05189
2.31956
1.91356
1.65577
1.40214
1.24546
1.18935
1.13297
1.09701
1.09891
1.11053
1.12399
1.12613
1.13268
1.14036
1.13792
1.12991
1.11647
1.09846
1.08905
1.08874
1.08848
1.0883
1.08801
1.0867
1.08407
1.07998
1.07461
1.06773
1.06153
1.05926
1.05749
1.05615
1.05523
1.05446
1.0525
1.04778
1.04192
1.03782
1.03495
1.0327
1.0305
1.02789
1.02577
1.02376
1.02006
1.0146
1.02542
1.13698
1.42917
1.93933
2.53503
2.80701
2.83348
2.82043
2.82799
2.79426
2.75775
2.73151
2.72791
2.71667
2.69518
2.68011
2.66804
2.659
2.64465
2.623
2.59896
2.56471
2.51619
2.47423
2.44919
2.4305
2.41563
2.40316
2.38804
2.36636
2.33534
2.28422
2.2179
2.17322
2.15312
2.14058
2.13927
2.12285
2.59505
2.23318
1.93947
1.70008
1.47696
1.35774
1.26539
1.16293
1.13268
1.13857
1.14136
1.15062
1.17225
1.19055
1.20193
1.20095
1.19319
1.1731
1.154
1.14909
1.14683
1.14485
1.1452
1.14633
1.14558
1.14008
1.13185
1.12412
1.11886
1.11576
1.1141
1.11304
1.11262
1.11228
1.11051
1.10401
1.09583
1.09102
1.08813
1.08654
1.08494
1.08314
1.08083
1.07768
1.07239
1.0816
1.17664
1.52616
1.90873
1.96977
2.17088
2.5054
2.74969
2.88653
2.97089
2.99412
2.95297
2.92577
2.89461
2.85654
2.82246
2.80006
2.78703
2.78222
2.7728
2.75264
2.72968
2.69909
2.65659
2.60617
2.5654
2.53953
2.51756
2.49655
2.47578
2.45521
2.43301
2.40391
2.35799
2.29947
2.26216
2.24319
2.23204
2.2051
2.76806
2.49013
2.20656
1.96149
1.72396
1.5603
1.45855
1.3309
1.24632
1.22621
1.19321
1.18129
1.18648
1.1953
1.20292
1.20583
1.21053
1.21661
1.21816
1.2156
1.21089
1.20376
1.19545
1.18821
1.18125
1.17279
1.1664
1.1628
1.16227
1.16321
1.16457
1.1642
1.16244
1.16013
1.15555
1.1463
1.13814
1.13416
1.13144
1.12961
1.12819
1.12698
1.12553
1.12407
1.13791
1.22543
1.58369
1.98168
2.15832
2.09896
2.09027
2.16219
2.36142
2.60769
2.80877
2.96002
2.99557
3.05635
3.0331
2.9908
2.94243
2.87558
2.84213
2.826
2.8218
2.82341
2.81413
2.79165
2.76209
2.71913
2.66063
2.60927
2.58106
2.56181
2.54481
2.53004
2.5135
2.49453
2.46844
2.42247
2.35801
2.31196
2.29267
2.26196
2.89715
2.67527
2.4209
2.19134
1.96537
1.76786
1.63776
1.50564
1.38819
1.33109
1.28149
1.22496
1.19921
1.20359
1.2044
1.20405
1.21204
1.23239
1.24173
1.24814
1.25013
1.24693
1.23804
1.22355
1.20836
1.1971
1.19047
1.18851
1.18962
1.19394
1.19886
1.19953
1.19746
1.19249
1.18443
1.1741
1.16819
1.16575
1.16385
1.16272
1.1616
1.16195
1.16193
1.17436
1.29544
1.60959
2.06391
2.20245
2.21682
2.19728
2.15748
2.12831
2.12992
2.20785
2.38496
2.64282
2.83854
2.98344
3.03509
3.04765
3.01792
2.9545
2.89863
2.86296
2.84455
2.84471
2.84921
2.84046
2.82181
2.79266
2.74627
2.6839
2.62971
2.60062
2.58269
2.56909
2.55911
2.54367
2.52289
2.49295
2.44278
2.37392
2.32437
2.28734
2.99768
2.81723
2.60354
2.38508
2.158
1.9667
1.82296
1.6865
1.54094
1.46307
1.40055
1.32418
1.26352
1.25616
1.23793
1.22063
1.22277
1.23373
1.2404
1.24447
1.25025
1.25569
1.25552
1.25082
1.24136
1.23182
1.22504
1.21966
1.21477
1.2148
1.2149
1.21234
1.20632
1.2005
1.19607
1.1935
1.1925
1.19285
1.19314
1.19039
1.18804
1.18673
1.1974
1.3283
1.71861
2.06031
2.26499
2.26854
2.25445
2.23951
2.2102
2.15833
2.11033
2.09881
2.11223
2.20624
2.40244
2.64979
2.87078
2.96337
3.00809
3.00115
2.95373
2.90759
2.87849
2.86174
2.85645
2.85089
2.84068
2.82484
2.79925
2.7555
2.6956
2.63502
2.59879
2.58099
2.56746
2.55521
2.53795
2.51691
2.48757
2.43869
2.37762
2.31691
3.08923
2.94114
2.74706
2.55156
2.34618
2.14122
1.99115
1.85018
1.70025
1.60182
1.53506
1.43667
1.3459
1.3235
1.29272
1.25583
1.23731
1.24012
1.24325
1.24162
1.24337
1.25239
1.25729
1.25554
1.25502
1.25749
1.25654
1.25328
1.24538
1.23732
1.22961
1.2199
1.20915
1.20506
1.20476
1.20603
1.21041
1.21704
1.21734
1.21488
1.21008
1.22129
1.33343
1.78043
2.14369
2.25817
2.28434
2.28458
2.25955
2.24493
2.22599
2.19329
2.15053
2.10616
2.08367
2.08105
2.10643
2.20857
2.41051
2.63744
2.83414
2.93226
2.95234
2.96265
2.92674
2.89646
2.87768
2.85981
2.84444
2.82988
2.81456
2.79456
2.75809
2.6983
2.63347
2.59056
2.56832
2.55242
2.53819
2.52081
2.50161
2.47636
2.4413
2.37014
3.17652
3.05477
2.88374
2.70008
2.51063
2.31242
2.15365
2.00988
1.85953
1.73937
1.66413
1.57
1.46608
1.41378
1.37614
1.32086
1.27521
1.27458
1.26749
1.25384
1.25013
1.25097
1.25177
1.25224
1.25336
1.26019
1.26938
1.27013
1.26551
1.25735
1.24696
1.23399
1.21982
1.21598
1.21568
1.21679
1.22264
1.22892
1.22941
1.22903
1.24998
1.39961
1.78791
2.22522
2.31793
2.3224
2.31951
2.30796
2.27062
2.24545
2.22948
2.21108
2.18701
2.15044
2.10767
2.07486
2.0627
2.06298
2.09406
2.19456
2.37879
2.61827
2.79104
2.90144
2.91799
2.92998
2.90932
2.8745
2.85854
2.83717
2.81843
2.80403
2.78713
2.75341
2.6967
2.62859
2.58078
2.55748
2.54
2.52383
2.51008
2.49462
2.47909
2.43028
3.26068
3.16314
3.01555
2.84597
2.66039
2.47377
2.31635
2.16974
2.00672
1.88718
1.80185
1.70232
1.58066
1.52041
1.47499
1.412
1.33461
1.31529
1.29973
1.27148
1.25567
1.25329
1.25464
1.25512
1.25609
1.26276
1.27055
1.27168
1.27104
1.26943
1.26514
1.25613
1.24368
1.23586
1.23366
1.23266
1.23275
1.23448
1.23645
1.25808
1.47539
1.88703
2.26606
2.4029
2.37894
2.35582
2.34104
2.3078
2.27346
2.25114
2.23943
2.2271
2.21643
2.2011
2.16866
2.10934
2.06114
2.04112
2.03876
2.04126
2.07176
2.17875
2.36328
2.60392
2.76545
2.86468
2.87903
2.87264
2.87569
2.85752
2.84304
2.82289
2.80581
2.78116
2.74718
2.69139
2.62069
2.57511
2.55622
2.54121
2.52697
2.51385
2.50206
2.46675
3.31961
3.26307
3.14029
2.98746
2.81686
2.62992
2.46731
2.32541
2.17221
2.02392
1.93225
1.83605
1.71768
1.63236
1.58089
1.51082
1.41818
1.38584
1.36444
1.32858
1.2833
1.27566
1.27574
1.26382
1.26012
1.26321
1.26751
1.26766
1.26756
1.26775
1.27104
1.27112
1.26822
1.26314
1.25885
1.25294
1.24587
1.24607
1.268
1.46707
2.01671
2.30962
2.42714
2.4302
2.39154
2.36507
2.34644
2.31288
2.28029
2.25283
2.23895
2.24075
2.23683
2.22348
2.20546
2.1647
2.09252
2.04823
2.03051
2.02236
2.02694
2.03818
2.07076
2.161
2.3293
2.53709
2.70161
2.79024
2.82441
2.84099
2.85499
2.85462
2.83742
2.80993
2.78308
2.74241
2.68182
2.61401
2.58229
2.56581
2.55025
2.53575
2.52303
2.49013
3.36011
3.33905
3.25567
3.12101
2.95618
2.7809
2.62788
2.47797
2.31093
2.1721
2.07165
1.96484
1.83643
1.75337
1.69594
1.62037
1.5245
1.46295
1.43942
1.39776
1.33988
1.31745
1.309
1.28669
1.26671
1.26231
1.26339
1.26478
1.2649
1.26626
1.27337
1.27965
1.28311
1.28263
1.27991
1.27386
1.26893
1.30032
1.50971
2.03762
2.35171
2.45777
2.48809
2.4933
2.4455
2.38633
2.33825
2.30106
2.27816
2.2579
2.24784
2.25528
2.25144
2.23386
2.21628
2.19114
2.14352
2.08422
2.05319
2.04303
2.03385
2.01961
2.01693
2.01421
2.03569
2.10136
2.2474
2.43353
2.61686
2.72764
2.78802
2.8243
2.83875
2.84046
2.82331
2.78813
2.74153
2.67381
2.61835
2.59104
2.57186
2.55528
2.54333
2.5125
3.33354
3.40369
3.35986
3.25281
3.10771
2.93396
2.76337
2.6291
2.47576
2.31368
2.20108
2.10507
1.96919
1.87127
1.81033
1.74069
1.63175
1.56895
1.53386
1.48597
1.40671
1.37052
1.36253
1.33548
1.30069
1.28469
1.28579
1.28118
1.27225
1.271
1.27612
1.28061
1.28269
1.2844
1.28507
1.28876
1.33713
1.61196
2.08377
2.4687
2.54099
2.5403
2.53076
2.505
2.46627
2.40535
2.34147
2.30637
2.28964
2.27729
2.27421
2.27696
2.25624
2.23278
2.21183
2.19119
2.16829
2.13618
2.09564
2.0672
2.04622
2.02447
2.00249
1.98625
1.98282
1.98224
1.99217
2.03931
2.16352
2.35634
2.54314
2.67985
2.75733
2.79776
2.81704
2.81684
2.78602
2.73375
2.67287
2.62128
2.58892
2.5687
2.55828
2.53147
3.27123
3.41289
3.42135
3.36459
3.24214
3.09039
2.92481
2.76764
2.61542
2.46416
2.3458
2.23937
2.10771
1.99027
1.92758
1.85581
1.75372
1.66936
1.62865
1.57827
1.49998
1.44537
1.42521
1.3943
1.34208
1.31646
1.31763
1.30753
1.29058
1.28168
1.28188
1.28265
1.28208
1.28299
1.28921
1.34101
1.68843
2.2039
2.53647
2.60985
2.56198
2.5154
2.4999
2.48888
2.46988
2.44236
2.40584
2.36859
2.33567
2.30968
2.29087
2.27032
2.24638
2.22129
2.20204
2.1922
2.1862
2.17296
2.14891
2.10015
2.05004
2.02215
1.99858
1.97872
1.96784
1.95931
1.95765
1.95105
1.94577
1.98175
2.0879
2.26806
2.45337
2.60587
2.73304
2.77096
2.77353
2.76916
2.72772
2.66485
2.61099
2.58041
2.56817
2.54356
3.24651
3.37322
3.46948
3.44854
3.36644
3.22946
3.07018
2.92652
2.77277
2.60278
2.48333
2.3756
2.24114
2.12225
2.05208
1.97168
1.85854
1.7828
1.73863
1.68077
1.59189
1.52809
1.50675
1.47206
1.41719
1.37332
1.3655
1.34889
1.32093
1.30284
1.30181
1.29971
1.29362
1.29933
1.36513
1.69202
2.34147
2.60588
2.63167
2.59419
2.54084
2.50885
2.49533
2.48684
2.48523
2.47767
2.45915
2.43246
2.39593
2.35205
2.30288
2.25433
2.22697
2.21218
2.20296
2.20797
2.20337
2.1851
2.16344
2.12444
2.05821
2.02014
2.00315
1.98803
1.98021
1.97078
1.95792
1.93928
1.92362
1.8862
1.86684
1.8907
1.99513
2.16435
2.37848
2.54956
2.68813
2.71668
2.71419
2.69885
2.65365
2.59871
2.57546
2.54887
3.26828
3.31135
3.44054
3.51059
3.47402
3.37533
3.21939
3.06695
2.92583
2.76665
2.63007
2.52128
2.3821
2.24525
2.16859
2.09956
1.9843
1.89347
1.84631
1.79225
1.69939
1.62728
1.59657
1.55684
1.49001
1.44016
1.4314
1.40879
1.37228
1.33795
1.3219
1.31315
1.31916
1.41336
1.76394
2.38158
2.69695
2.6899
2.66759
2.62528
2.57151
2.54258
2.53057
2.51955
2.5057
2.48969
2.47424
2.4582
2.43286
2.39102
2.33
2.268
2.23059
2.21668
2.21079
2.2112
2.19884
2.17707
2.15476
2.12524
2.0715
2.01941
2.00588
2.00323
1.99573
1.98246
1.96594
1.945
1.91672
1.87958
1.8402
1.80946
1.80885
1.83918
1.94127
2.11024
2.33033
2.49754
2.60312
2.64571
2.64216
2.60283
2.58437
2.55641
3.30956
3.32141
3.38836
3.50453
3.53239
3.48824
3.36818
3.22389
3.06851
2.90304
2.78148
2.66793
2.53368
2.38921
2.29712
2.21434
2.10114
2.00725
1.96138
1.90525
1.80741
1.72844
1.69332
1.65146
1.58272
1.51422
1.49627
1.47241
1.4329
1.3949
1.36577
1.36981
1.47984
1.9211
2.44373
2.77336
2.77735
2.7358
2.69465
2.64727
2.60024
2.5695
2.54678
2.52964
2.51284
2.49071
2.47092
2.45691
2.43958
2.41141
2.37044
2.31618
2.26205
2.22538
2.20431
2.18652
2.17081
2.1547
2.13506
2.11452
2.08739
2.04172
2.00089
1.98593
1.97319
1.95964
1.94315
1.9205
1.89836
1.87604
1.85013
1.80814
1.77977
1.77317
1.77688
1.8055
1.891
2.04547
2.22421
2.37705
2.51642
2.53692
2.53318
2.543
3.27484
3.30663
3.36942
3.46517
3.56047
3.55578
3.49575
3.37687
3.225
3.04627
2.91989
2.81134
2.67548
2.53581
2.44487
2.35269
2.22503
2.11943
2.07101
2.01048
1.91626
1.8386
1.79973
1.7514
1.67406
1.60545
1.57923
1.55066
1.50312
1.44755
1.45328
1.58299
2.09027
2.63238
2.84349
2.86139
2.81064
2.74036
2.69471
2.66367
2.63264
2.59749
2.55575
2.52632
2.50958
2.48412
2.45911
2.44555
2.42851
2.40938
2.38877
2.35291
2.28979
2.22996
2.19751
2.17172
2.1544
2.14357
2.13073
2.11198
2.0908
2.0594
2.01029
1.97039
1.95326
1.94164
1.92699
1.90484
1.88693
1.87466
1.85829
1.82813
1.7816
1.74882
1.73986
1.73407
1.72982
1.74664
1.81511
1.93792
2.1014
2.2626
2.36124
2.45375
3.08674
3.27136
3.39687
3.46055
3.52469
3.5832
3.57577
3.51162
3.38374
3.21543
3.06055
2.93772
2.81078
2.67906
2.5811
2.4884
2.35918
2.24659
2.18782
2.12435
2.01674
1.93749
1.90116
1.8577
1.77907
1.70687
1.66704
1.63282
1.57824
1.58635
1.76882
2.28656
2.86513
2.99832
2.95792
2.90019
2.8253
2.77292
2.74691
2.72185
2.6863
2.63713
2.5781
2.52068
2.48821
2.4568
2.43546
2.42425
2.4067
2.39176
2.37844
2.35114
2.29466
2.22825
2.19428
2.17007
2.14871
2.13685
2.12622
2.10697
2.08337
2.05668
2.00301
1.94232
1.9255
1.91971
1.91296
1.90251
1.89313
1.88068
1.85983
1.82216
1.76353
1.72769
1.71879
1.71072
1.69533
1.6883
1.69135
1.70752
1.74615
1.83468
1.95728
2.18303
2.30621
2.9143
3.36624
3.46172
3.44942
3.54169
3.59821
3.57849
3.49511
3.35445
3.21804
3.08868
2.93215
2.80097
2.71363
2.61582
2.4921
2.37758
2.31181
2.23635
2.13513
2.04509
2.0033
1.95409
1.87706
1.79903
1.76063
1.72027
1.75563
2.05853
2.64869
3.11826
3.20597
3.13276
3.04695
2.96058
2.89933
2.85495
2.8139
2.77249
2.72559
2.67312
2.61127
2.53887
2.4895
2.45719
2.42956
2.40584
2.39343
2.38371
2.36699
2.33843
2.27562
2.2128
2.18891
2.16692
2.14814
2.1341
2.11806
2.1004
2.07606
2.03945
1.98304
1.92265
1.90396
1.89814
1.89087
1.88046
1.86932
1.85562
1.8373
1.80544
1.74779
1.71293
1.7059
1.698
1.6825
1.6689
1.66199
1.65663
1.64698
1.63403
1.64048
1.7725
1.56962
2.04087
2.8258
3.34849
3.41435
3.53891
3.62862
3.61803
3.56315
3.45592
3.34197
3.23271
3.08345
2.9512
2.84606
2.73663
2.59693
2.50198
2.43776
2.35706
2.24276
2.16887
2.1144
2.05942
1.97054
1.88793
1.85823
1.94036
2.37297
3.05346
3.45961
3.48981
3.39526
3.26264
3.15529
3.06928
2.99859
2.93993
2.88088
2.82197
2.76493
2.70706
2.64368
2.57578
2.51422
2.46684
2.43692
2.41385
2.38798
2.36047
2.33364
2.30167
2.24751
2.19474
2.17356
2.15904
2.14567
2.13167
2.11356
2.09055
2.06255
2.02631
1.974
1.9093
1.88492
1.87878
1.87954
1.87342
1.85632
1.8383
1.82164
1.79297
1.73966
1.70473
1.69866
1.69085
1.67639
1.66053
1.64768
1.63621
1.6204
1.59879
1.56049
1.56504
1.40679
1.48924
1.87363
2.74693
3.16981
3.43768
3.66807
3.68773
3.65402
3.57156
3.45534
3.35134
3.22108
3.10387
2.9923
2.87832
2.73085
2.61844
2.54392
2.46196
2.3569
2.2851
2.23162
2.16272
2.06221
2.03877
2.19446
2.71577
3.44307
3.77516
3.75504
3.64883
3.50568
3.37123
3.25089
3.15745
3.08002
3.01082
2.94583
2.88565
2.82971
2.77345
2.71065
2.63657
2.55539
2.48119
2.43387
2.40186
2.36937
2.33656
2.30745
2.27657
2.23477
2.19147
2.14719
2.11327
2.09858
2.08686
2.07327
2.05545
2.03105
2.00661
1.97518
1.91191
1.86024
1.85226
1.84745
1.83787
1.82179
1.80637
1.79585
1.783
1.74786
1.68959
1.66116
1.65196
1.64036
1.63073
1.62351
1.61321
1.59979
1.58183
1.55956
1.52142
1.40006
1.40302
1.44635
1.81044
2.53844
3.06036
3.55568
3.68734
3.69451
3.63553
3.57085
3.50414
3.37976
3.23683
3.11168
2.99361
2.85324
2.76219
2.67612
2.57821
2.46388
2.37407
2.33267
2.25748
2.27163
2.55501
3.23539
3.84439
4.07816
4.00961
3.8824
3.74608
3.61675
3.49393
3.3695
3.25695
3.16665
3.09046
3.02012
2.95389
2.89164
2.83109
2.76666
2.69118
2.60455
2.52301
2.4621
2.41681
2.3756
2.33425
2.2962
2.26136
2.2304
2.19356
2.13803
2.08411
2.0648
2.05399
2.04159
2.0228
1.99666
1.97171
1.94707
1.90193
1.84377
1.82499
1.82048
1.81165
1.79477
1.78222
1.77299
1.75875
1.72737
1.67839
1.64704
1.63286
1.62146
1.61133
1.60239
1.59115
1.57617
1.5586
1.5387
1.50862
1.40001
1.40003
1.4013
1.43499
1.69404
2.19159
3.06185
3.56724
3.59049
3.63003
3.63367
3.59547
3.48307
3.35122
3.24033
3.10973
2.96465
2.87919
2.78502
2.69803
2.5795
2.49774
2.43604
2.53208
3.024
3.88697
4.28421
4.32067
4.22625
4.08083
3.95745
3.85022
3.74744
3.63191
3.50025
3.37308
3.266
3.17572
3.09507
3.02138
2.95318
2.88571
2.8118
2.72636
2.62927
2.53945
2.4778
2.4354
2.39623
2.35667
2.31686
2.27824
2.24009
2.19536
2.13312
2.06417
2.03331
2.02331
2.01263
1.99449
1.97072
1.94786
1.92435
1.89173
1.84161
1.7974
1.78807
1.77977
1.76217
1.74942
1.7423
1.73175
1.71444
1.68461
1.64193
1.60985
1.59225
1.58115
1.57338
1.56358
1.55157
1.54324
1.53582
1.50262
1.40001
1.40001
1.40001
1.40069
1.41814
1.52613
2.01932
3.00419
3.37228
3.59324
3.70939
3.67157
3.5882
3.48648
3.38037
3.21924
3.10374
3.00477
2.9043
2.80107
2.67813
2.66223
2.896
3.66523
4.47578
4.79627
4.70602
4.50495
4.32203
4.17294
4.05383
3.95247
3.85204
3.7387
3.61071
3.47865
3.35773
3.25398
3.16242
3.07783
2.99869
2.92395
2.8498
2.77168
2.68602
2.59521
2.50647
2.44762
2.41703
2.39222
2.36049
2.31598
2.26439
2.21012
2.13966
2.06392
2.01816
1.99879
1.98797
1.97305
1.95583
1.93881
1.91514
1.8833
1.83483
1.77544
1.75153
1.73747
1.72104
1.71095
1.70668
1.69907
1.68296
1.65679
1.61901
1.58022
1.55982
1.55329
1.5505
1.5476
1.54119
1.53243
1.51938
1.48347
1.40001
1.40001
1.40001
1.40001
1.40021
1.40485
1.46753
1.98926
2.74496
3.31732
3.69563
3.7165
3.67282
3.57782
3.47926
3.35547
3.24897
3.11671
3.02245
2.89623
2.933
3.37996
4.33413
5.08478
5.12565
5.03101
4.82148
4.61246
4.44482
4.29198
4.15248
4.03003
3.91595
3.80049
3.67851
3.54916
3.42064
3.30597
3.20903
3.12517
3.04703
2.96812
2.88378
2.79649
2.71539
2.63999
2.5689
2.50636
2.4511
2.40269
2.35488
2.30069
2.24277
2.18921
2.13918
2.07886
2.02873
1.99936
1.97617
1.95067
1.92467
1.90007
1.87276
1.84206
1.8046
1.75852
1.725
1.70254
1.68594
1.67905
1.67799
1.67158
1.65919
1.63624
1.59504
1.55589
1.54084
1.53554
1.53379
1.53086
1.52494
1.51645
1.50478
1.47313
1.40001
1.40001
1.40001
1.40001
1.40001
1.40005
1.402
1.468
1.83305
2.43624
3.38582
3.64332
3.63053
3.60363
3.56135
3.46456
3.32956
3.22009
3.13478
3.27901
4.08615
5.06189
5.5829
5.60278
5.41618
5.13384
4.8703
4.67063
4.51935
4.37967
4.24015
4.10538
3.97822
3.8557