/*--------------------------------*- C++ -*----------------------------------*\
  =========                 |
  \\      /  F ield         | OpenFOAM: The Open Source CFD Toolbox
   \\    /   O peration     | Website:  https://openfoam.org
    \\  /    A nd           | Version:  7
     \\/     M anipulation  |
\*---------------------------------------------------------------------------*/
FoamFile
{
    version     2.0;
    format      ascii;
    class       volVectorField;
    location    "0.1";
    object      U;
}
// * * * * * * * * * * * * * * * * * * * * * * * * * * * * * * * * * * * * * //

dimensions      [0 1 -1 0 0 0 0];

internalField   nonuniform List<vector> 
4128
(
(3 2.05682e-15 0)
(3 1.82636e-15 0)
(3 4.62814e-16 0)
(3 -7.73785e-16 0)
(3 -1.12789e-15 0)
(3 -1.04586e-15 0)
(3 -8.67816e-16 0)
(3 -8.65566e-16 0)
(3 -1.58293e-15 0)
(3 -1.74844e-15 0)
(3 -1.62591e-15 0)
(3 -1.88499e-15 0)
(3 -3.35349e-15 0)
(3 -3.47335e-15 0)
(3 -2.39567e-15 0)
(3 -2.05871e-16 0)
(3 3.26779e-17 0)
(3 -8.49709e-16 0)
(3 -1.43825e-15 0)
(3 -3.94424e-16 0)
(3 6.43257e-16 0)
(3 6.32415e-17 0)
(3 2.13414e-16 0)
(3 1.77542e-16 0)
(3 -2.88171e-16 0)
(3 -2.87197e-16 0)
(3 3.17087e-16 0)
(3 1.83644e-15 0)
(3 2.00173e-15 0)
(3 3.489e-16 0)
(3 -4.73634e-16 0)
(3 -5.33426e-16 0)
(3 -4.86399e-17 0)
(3 -1.62373e-16 0)
(3 -1.75728e-16 0)
(3 -3.01051e-16 0)
(3 -4.72452e-16 0)
(3 -6.8738e-16 0)
(3 -7.92424e-16 0)
(3 -2.38549e-16 0)
(3 2.23319e-17 0)
(3 -2.73886e-16 0)
(3 -3.13471e-16 0)
(3 -1.69267e-16 0)
(3 -9.04304e-17 0)
(3 3.72339e-17 0)
(3 -2.75596e-16 0)
(3 -5.95022e-16 0)
(3 -3.1613e-16 0)
(3 -5.38477e-16 0)
(3 -7.79664e-16 0)
(3 -1.22419e-15 0)
(3 -1.14915e-15 0)
(3 -1.34515e-15 0)
(3 -1.71918e-15 0)
(3 -1.47527e-15 0)
(3 -5.64354e-16 0)
(3 -9.45133e-16 0)
(3 -1.17541e-15 0)
(3 -2.31734e-16 0)
(3 1.37322e-17 0)
(3 -1.17099e-16 0)
(3 -1.22755e-15 0)
(3 -2.08968e-15 0)
(3 -1.99309e-15 0)
(3 -1.70064e-15 0)
(3 -4.43644e-16 0)
(3 6.41652e-16 0)
(3 6.77622e-16 0)
(3 1.24994e-16 0)
(3 -1.29364e-16 0)
(3 -3.73145e-16 0)
(3 -5.17413e-16 0)
(3 -9.22726e-17 0)
(3 -8.09545e-16 0)
(3 -1.00139e-15 0)
(3 -1.10573e-15 0)
(3 -1.1462e-15 0)
(3 -6.33263e-16 0)
(3 5.06295e-17 0)
(3 -1.47325e-16 0)
(3 3.20188e-16 0)
(3 1.37787e-15 0)
(3 1.90013e-15 0)
(3 9.17596e-16 0)
(3 4.88002e-16 0)
(3 2.73243e-15 0)
(3 3.60945e-15 0)
(3 3.19836e-15 0)
(3 2.37274e-15 0)
(3 1.95577e-15 0)
(3 1.80017e-15 0)
(3 3.04902e-15 0)
(3 2.29402e-15 0)
(3 2.1362e-15 0)
(3 2.18916e-15 0)
(3 1.45784e-15 0)
(3 6.57535e-16 0)
(3 1.98236e-19 0)
(3 -1.40295e-15 0)
(3 -1.09261e-15 0)
(3 -1.36728e-15 0)
(3 -1.49516e-15 0)
(3 -9.68093e-16 0)
(3 -2.0014e-17 0)
(3 -2.30239e-16 0)
(3 -1.17447e-15 0)
(3 -2.75898e-15 0)
(3 -2.5677e-15 0)
(3 -1.58355e-15 0)
(3 -6.13089e-16 0)
(3 8.96866e-16 0)
(3 1.21932e-15 0)
(3 8.63687e-16 0)
(3 9.44811e-16 0)
(3 4.2536e-16 0)
(3 -3.65567e-17 0)
(3 -7.04673e-16 0)
(3 -1.8416e-15 0)
(3 -1.45541e-15 0)
(3 -1.07947e-15 0)
(3 -4.31339e-16 0)
(3 6.88629e-17 0)
(3 2.40555e-16 0)
(3 1.75518e-16 0)
(3 9.98152e-17 0)
(3 -3.63878e-16 0)
(3 -6.38755e-16 0)
(3 -2.18116e-17 0)
(3 -3.74407e-16 0)
(3 -6.2176e-16 0)
(3 -6.37478e-16 0)
(3 -7.34696e-16 0)
(3 -8.70095e-16 0)
(3 -1.71722e-15 0)
(3 -9.15157e-16 0)
(3 3.36188e-17 0)
(3 1.32958e-16 0)
(3 4.69706e-16 0)
(3 7.60102e-16 0)
(3 -3.14346e-16 0)
(3 -1.97391e-15 0)
(3 -2.09952e-15 0)
(3 -1.553e-15 0)
(3 -1.08146e-15 0)
(3 -1.39692e-15 0)
(3 -1.63231e-15 0)
(3 -1.98065e-15 0)
(3 -2.31092e-15 0)
(3 -3.06425e-15 0)
(3 -2.95485e-15 0)
(3 -2.3567e-15 0)
(3 -1.41684e-15 0)
(3 -3.05205e-16 0)
(3 3.43174e-18 0)
(3 7.02521e-16 0)
(3 -8.40684e-17 0)
(3 -6.87133e-16 0)
(3 -3.82672e-16 0)
(3 -3.21347e-16 0)
(3 -3.13055e-16 0)
(3 -2.40864e-16 0)
(3 1.05811e-15 0)
(3 1.16093e-15 0)
(3 1.61471e-15 0)
(3 2.28266e-15 0)
(3 1.9937e-15 0)
(3 1.45465e-15 0)
(3 1.36605e-15 0)
(3 1.13009e-15 0)
(3 1.34295e-15 0)
(3 1.44657e-15 0)
(3 6.26498e-16 0)
(3 6.34372e-18 0)
(3 -1.13534e-16 0)
(3 5.11408e-16 0)
(3 4.31838e-16 0)
(3 5.98581e-16 0)
(3 6.52682e-16 0)
(3 4.53214e-16 0)
(3 5.49777e-16 0)
(3 1.54565e-15 0)
(3 1.71003e-15 0)
(3 1.94756e-15 0)
(3 2.46296e-15 0)
(3 1.0308e-15 0)
(3 -3.49091e-16 0)
(3 -4.88221e-16 0)
(3 1.24983e-16 0)
(3 -3.31605e-16 0)
(3 -1.15668e-15 0)
(3 1.03701e-15 0)
(3 1.29829e-15 0)
(3 2.05093e-17 0)
(3 2.57405e-16 0)
(3 -2.82752e-16 0)
(3 -5.45059e-16 0)
(3 -2.94013e-16 0)
(3 3.46968e-16 0)
(3 2.12677e-16 0)
(3 2.05413e-16 0)
(3 -1.35479e-16 0)
(3 -1.57329e-15 0)
(3 -2.2508e-15 0)
(3 -1.55341e-15 0)
(3 -9.25436e-16 0)
(3 -9.44611e-16 0)
(3 -2.02238e-15 0)
(3 -1.8903e-16 0)
(3 2.30639e-15 0)
(3 2.73761e-15 0)
(3 1.64563e-15 0)
(3 -9.42079e-16 0)
(3 -1.70441e-15 0)
(3 -1.66343e-15 0)
(3 -1.15968e-15 0)
(3 -1.2941e-16 0)
(3 1.70064e-16 0)
(3 -3.12688e-16 0)
(3 -9.45388e-16 0)
(3 -7.71291e-16 0)
(3 -6.66889e-16 0)
(3 -7.33384e-16 0)
(3 -9.52196e-16 0)
(3 -1.63965e-17 0)
(3 -1.01595e-17 0)
(3 5.89308e-17 0)
(3 -1.11001e-16 0)
(3 -9.68168e-16 0)
(3 -2.14889e-15 0)
(3 -2.34085e-15 0)
(3 -1.87284e-15 0)
(3 -1.90416e-16 0)
(3 4.99464e-16 0)
(3 3.55449e-16 0)
(3 1.89127e-17 0)
(3 -3.56819e-16 0)
(3 -6.91832e-16 0)
(3 -2.0501e-15 0)
(3 -2.7503e-15 0)
(3 -2.84434e-15 0)
(3 -2.32756e-15 0)
(3 -1.93042e-15 0)
(3 -2.27229e-15 0)
(3 -2.8423e-15 0)
(3 -2.71781e-15 0)
(3 -8.99078e-16 0)
(3 3.91719e-18 0)
(3 9.05548e-17 0)
(3 2.48153e-16 0)
(3 9.60324e-16 0)
(3 1.79882e-15 0)
(3 1.45421e-15 0)
(3 1.20839e-15 0)
(3 1.2249e-15 0)
(3 9.87811e-16 0)
(3 7.31762e-16 0)
(3 1.22675e-15 0)
(3 1.35438e-15 0)
(3 2.11062e-15 0)
(3 1.65916e-15 0)
(3 1.76618e-15 0)
(3 2.09044e-15 0)
(3 1.87787e-15 0)
(3 1.12608e-15 0)
(3 4.56447e-16 0)
(3 5.33396e-16 0)
(3 5.95178e-16 0)
(3 6.01031e-16 0)
(3 8.99332e-16 0)
(3 1.20766e-15 0)
(3 8.70454e-16 0)
(3 8.2053e-17 0)
(3 -2.13387e-16 0)
(3 -6.10086e-17 0)
(3 -7.11739e-16 0)
(3 -6.63748e-16 0)
(3 7.33501e-17 0)
(3 2.66498e-17 0)
(3 1.8976e-16 0)
(3 5.17253e-16 0)
(3 3.17206e-16 0)
(3 -8.0483e-16 0)
(3 -1.72185e-15 0)
(3 -1.69794e-15 0)
(3 -1.90858e-15 0)
(3 -8.09254e-16 0)
(3 -9.8733e-16 0)
(3 -1.11868e-15 0)
(3 -8.59752e-16 0)
(3 -5.1663e-16 0)
(3 -3.60559e-16 0)
(3 -2.86337e-16 0)
(3 -1.56351e-16 0)
(3 5.80535e-16 0)
(3 6.41293e-16 0)
(3 2.66606e-16 0)
(3 -4.00176e-16 0)
(3 -4.44239e-16 0)
(3 2.69283e-16 0)
(3 1.28451e-15 0)
(3 -3.01372e-16 0)
(3 -1.64012e-15 0)
(3 -2.58296e-15 0)
(3 -2.07518e-15 0)
(3 2.12174e-16 0)
(3 1.26075e-15 0)
(3 -1.5321e-16 0)
(3 -1.57579e-15 0)
(3 -1.86821e-15 0)
(3 -1.46456e-15 0)
(3 -1.03198e-15 0)
(3 -3.4752e-16 0)
(3 -3.14363e-16 0)
(3 -1.2445e-15 0)
(3 -1.99588e-15 0)
(3 -2.02333e-15 0)
(3 -1.61465e-15 0)
(3 -8.35734e-16 0)
(3 -7.7137e-16 0)
(3 -4.30305e-17 0)
(3 1.82914e-16 0)
(3 1.69919e-16 0)
(3 -3.89185e-16 0)
(3 -6.07051e-16 0)
(3 -1.46398e-15 0)
(3 -1.41128e-15 0)
(3 -1.30529e-15 0)
(3 -1.10603e-15 0)
(3 9.44144e-17 0)
(3 -4.63943e-16 0)
(3 -7.89536e-16 0)
(3 -1.1083e-15 0)
(3 -7.3124e-16 0)
(3 -6.61143e-16 0)
(3 -1.77523e-15 0)
(3 -2.62966e-15 0)
(3 -2.43051e-15 0)
(3 -2.29254e-15 0)
(3 -2.03156e-15 0)
(3 -1.76804e-15 0)
(3 -1.22281e-15 0)
(3 -8.70494e-16 0)
(3 -8.6513e-16 0)
(3 -2.25798e-16 0)
(3 -2.744e-16 0)
(3 1.49844e-15 0)
(3 2.81395e-15 0)
(3 2.52226e-15 0)
(3 2.60388e-15 0)
(3 1.4205e-15 0)
(3 3.21624e-16 0)
(3 -1.50623e-16 0)
(3 3.32707e-16 0)
(3 4.97986e-16 0)
(3 7.1953e-16 0)
(3 1.06024e-15 0)
(3 1.38859e-15 0)
(3 1.42039e-15 0)
(3 1.38738e-15 0)
(3 9.17357e-16 0)
(3 -1.10181e-16 0)
(3 -1.68271e-15 0)
(3 -1.47208e-15 0)
(3 4.76052e-16 0)
(3 2.64521e-15 0)
(3 3.36629e-15 0)
(3 2.36383e-15 0)
(3 8.95329e-16 0)
(3 -1.1478e-16 0)
(3 -4.0459e-16 0)
(3 -6.12963e-16 0)
(3 -6.00387e-16 0)
(3 -3.66881e-16 0)
(3 5.16592e-16 0)
(3 4.77678e-16 0)
(3 -2.29756e-16 0)
(3 2.40335e-16 0)
(3 3.76338e-16 0)
(3 -2.18908e-16 0)
(3 -1.18386e-15 0)
(3 -6.60169e-16 0)
(3 -5.64416e-16 0)
(3 -1.95551e-15 0)
(3 -2.31575e-15 0)
(3 -1.49938e-15 0)
(3 -1.25407e-15 0)
(3 -6.81353e-16 0)
(3 -4.08858e-16 0)
(3 -8.29724e-16 0)
(3 -7.39407e-16 0)
(3 -3.17042e-16 0)
(3 -2.71039e-16 0)
(3 -4.22682e-16 0)
(3 -3.58415e-16 0)
(3 2.58519e-16 0)
(3 7.0997e-17 0)
(3 -6.61532e-16 0)
(3 -1.89188e-15 0)
(3 -2.22726e-15 0)
(3 -2.29245e-15 0)
(3 -1.00579e-15 0)
(3 -6.06321e-16 0)
(3 -2.31315e-15 0)
(3 -2.41405e-15 0)
(3 -1.55601e-15 0)
(3 -8.20031e-16 0)
(3 -5.74192e-16 0)
(3 -4.06288e-16 0)
(3 -1.08994e-15 0)
(3 -1.45249e-15 0)
(3 -1.57646e-15 0)
(3 -2.21292e-15 0)
(3 -2.20519e-15 0)
(3 -9.85475e-16 0)
(3 -4.93365e-16 0)
(3 -1.58949e-17 0)
(3 -2.1733e-16 0)
(3 -3.11356e-16 0)
(3 -3.03496e-16 0)
(3 5.21494e-16 0)
(3 6.70481e-16 0)
(3 3.18472e-16 0)
(3 -1.25896e-15 0)
(3 -2.45416e-15 0)
(3 -1.71327e-15 0)
(3 -7.26104e-16 0)
(3 -6.38854e-16 0)
(3 -1.07438e-15 0)
(3 -4.99005e-16 0)
(3 5.13225e-16 0)
(3 4.14744e-16 0)
(3 -6.19751e-17 0)
(3 -3.04198e-16 0)
(3 -1.15633e-15 0)
(3 -1.91081e-15 0)
(3 -1.72017e-15 0)
(3 -1.38814e-15 0)
(3 -1.74023e-15 0)
(3 -1.98273e-15 0)
(3 -2.04843e-15 0)
(3 -1.22031e-15 0)
(3 5.90271e-16 0)
(3 1.01362e-15 0)
(3 9.15161e-16 0)
(3 2.00338e-16 0)
(3 -6.66334e-16 0)
(3 -2.37344e-15 0)
(3 -2.30469e-15 0)
(3 -1.58055e-15 0)
(3 -1.49755e-15 0)
(3 -9.07356e-16 0)
(3 3.13382e-16 0)
(3 7.70333e-16 0)
(3 4.93758e-16 0)
(3 4.20509e-16 0)
(3 -2.3512e-16 0)
(3 -4.62773e-16 0)
(3 -3.09649e-16 0)
(3 8.86767e-16 0)
(3 2.18922e-15 0)
(3 3.62711e-15 0)
(3 3.80792e-15 0)
(3 3.70588e-15 0)
(3 2.90776e-15 0)
(3 1.25067e-15 0)
(3 1.02041e-16 0)
(3 -3.3211e-16 0)
(3 1.89679e-16 0)
(3 1.29141e-15 0)
(3 1.28502e-15 0)
(3 1.16122e-15 0)
(3 1.13577e-15 0)
(3 -7.69475e-16 0)
(3 -1.51221e-15 0)
(3 -1.14728e-15 0)
(3 -1.0503e-15 0)
(3 -8.96728e-16 0)
(3 -1.05037e-15 0)
(3 -1.29511e-15 0)
(3 -1.61032e-15 0)
(3 -1.61945e-15 0)
(3 -1.36419e-15 0)
(3 -9.12285e-16 0)
(3 -5.11058e-16 0)
(3 -5.90741e-16 0)
(3 -7.4229e-16 0)
(3 -6.098e-16 0)
(3 -1.35132e-15 0)
(3 -1.081e-15 0)
(3 -7.59208e-16 0)
(3 -3.98932e-16 0)
(3 -6.46012e-16 0)
(3 -1.68336e-15 0)
(3 -3.43632e-15 0)
(3 -3.43688e-15 0)
(3 -3.51945e-15 0)
(3 -3.24436e-15 0)
(3 -2.86434e-15 0)
(3 -1.13082e-15 0)
(3 -1.0253e-15 0)
(3 -8.8418e-16 0)
(3 -9.96403e-16 0)
(3 -9.81177e-16 0)
(3 -1.70294e-15 0)
(3 -1.62595e-15 0)
(3 -1.62472e-15 0)
(3 -6.18219e-16 0)
(3 -1.20666e-15 0)
(3 -2.27576e-15 0)
(3 -2.26671e-15 0)
(3 -1.48605e-15 0)
(3 -4.93908e-17 0)
(3 -5.33083e-16 0)
(3 -6.59765e-16 0)
(3 1.08869e-16 0)
(3 1.2871e-15 0)
(3 1.53991e-15 0)
(3 1.22632e-15 0)
(3 2.5101e-16 0)
(3 -1.00513e-15 0)
(3 -1.37696e-15 0)
(3 -4.96812e-16 0)
(3 -1.46591e-16 0)
(3 4.14207e-16 0)
(3 5.50791e-17 0)
(3 1.76285e-16 0)
(3 7.23436e-16 0)
(3 8.32578e-16 0)
(3 8.07794e-16 0)
(3 4.06025e-16 0)
(3 -3.08237e-16 0)
(3 -7.75636e-16 0)
(3 -1.26316e-15 0)
(3 -2.21075e-15 0)
(3 -2.97349e-15 0)
(3 -2.39214e-15 0)
(3 -1.67421e-15 0)
(3 -2.16256e-15 0)
(3 -1.98726e-15 0)
(3 -2.22404e-15 0)
(3 -3.52685e-15 0)
(3 -4.26048e-15 0)
(3 -4.06767e-15 0)
(3 -4.12796e-15 0)
(3 -4.33504e-15 0)
(3 -3.9411e-15 0)
(3 -2.60699e-15 0)
(3 -9.93297e-16 0)
(3 -1.03868e-15 0)
(3 -4.57457e-16 0)
(3 -5.27886e-16 0)
(3 -1.01127e-15 0)
(3 -3.37971e-16 0)
(3 8.1678e-16 0)
(3 1.66974e-15 0)
(3 1.5419e-15 0)
(3 1.75566e-15 0)
(3 1.84873e-15 0)
(3 2.50814e-15 0)
(3 2.62588e-15 0)
(3 2.45871e-15 0)
(3 1.70777e-15 0)
(3 1.35749e-15 0)
(3 1.31665e-15 0)
(3 1.11055e-15 0)
(3 1.64669e-16 0)
(3 1.95294e-16 0)
(3 3.91363e-16 0)
(3 -7.95458e-16 0)
(3 -1.35242e-15 0)
(3 -7.96199e-16 0)
(3 -3.34951e-16 0)
(3 -1.1278e-15 0)
(3 -1.20888e-15 0)
(3 -1.30851e-15 0)
(3 -1.90353e-15 0)
(3 -1.57603e-15 0)
(3 -1.44995e-15 0)
(3 -1.46017e-15 0)
(3 -1.65116e-15 0)
(3 -1.42896e-15 0)
(3 -1.27077e-15 0)
(3 -1.14601e-15 0)
(3 -1.59202e-15 0)
(3 -1.7498e-15 0)
(3 -7.52085e-16 0)
(3 -2.4841e-16 0)
(3 -3.38303e-16 0)
(3 -4.86064e-16 0)
(3 -1.17892e-15 0)
(3 -1.49742e-15 0)
(3 -2.74163e-15 0)
(3 -3.32228e-15 0)
(3 -2.72349e-15 0)
(3 -1.29811e-15 0)
(3 2.98062e-16 0)
(3 8.0637e-17 0)
(3 -3.3189e-16 0)
(3 -1.40108e-15 0)
(3 -2.98318e-15 0)
(3 -3.08867e-15 0)
(3 -1.97742e-15 0)
(3 -4.14591e-16 0)
(3 -5.76478e-16 0)
(3 -4.64413e-16 0)
(3 -4.08445e-16 0)
(3 -1.37223e-16 0)
(3 2.67998e-18 0)
(3 3.81482e-17 0)
(3 3.23665e-16 0)
(3 5.0505e-16 0)
(3 3.79765e-16 0)
(3 1.65473e-15 0)
(3 1.56422e-15 0)
(3 1.58457e-15 0)
(3 5.3634e-16 0)
(3 -6.57831e-16 0)
(3 -5.77891e-16 0)
(3 -5.39085e-17 0)
(3 2.15754e-16 0)
(3 -1.62663e-16 0)
(3 -1.0516e-15 0)
(3 -8.96723e-16 0)
(3 -1.08473e-16 0)
(3 3.43446e-16 0)
(3 1.27525e-15 0)
(3 2.04636e-15 0)
(3 1.48992e-15 0)
(3 -9.32242e-16 0)
(3 -1.33059e-15 0)
(3 -1.48112e-15 0)
(3 -1.45918e-15 0)
(3 -2.09655e-15 0)
(3 -3.81243e-15 0)
(3 -4.80876e-15 0)
(3 -3.99432e-15 0)
(3 -3.23468e-15 0)
(3 -3.46668e-15 0)
(3 -3.15221e-15 0)
(3 -4.43245e-15 0)
(3 -5.02378e-15 0)
(3 -4.9551e-15 0)
(3 -4.44545e-15 0)
(3 -4.30779e-15 0)
(3 -2.8041e-15 0)
(3 -2.28097e-15 0)
(3 -1.29018e-15 0)
(3 -4.67386e-16 0)
(3 4.32841e-16 0)
(3 1.05285e-15 0)
(3 7.76362e-16 0)
(3 6.35806e-16 0)
(3 9.43361e-16 0)
(3 1.27445e-15 0)
(3 5.57723e-16 0)
(3 1.37455e-15 0)
(3 2.1331e-15 0)
(3 1.63389e-15 0)
(3 1.00109e-15 0)
(3 3.78287e-16 0)
(3 -5.94736e-16 0)
(3 -7.2403e-16 0)
(3 -5.62404e-16 0)
(3 -3.92263e-16 0)
(3 2.05523e-16 0)
(3 8.83969e-16 0)
(3 -3.05578e-16 0)
(3 -2.99697e-16 0)
(3 -1.56118e-16 0)
(3 -1.50862e-15 0)
(3 -2.28512e-15 0)
(3 -1.83225e-15 0)
(3 -1.26907e-15 0)
(3 -7.66322e-16 0)
(3 -1.85727e-15 0)
(3 -3.11911e-15 0)
(3 -2.82791e-15 0)
(3 -1.63752e-15 0)
(3 -7.34595e-16 0)
(3 2.11795e-16 0)
(3 7.46688e-16 0)
(3 8.09659e-16 0)
(3 3.69284e-16 0)
(3 3.99056e-16 0)
(3 5.74516e-16 0)
(3 1.71706e-15 0)
(3 2.16722e-15 0)
(3 -3.2345e-16 0)
(3 -1.62003e-15 0)
(3 -1.51021e-15 0)
(3 -1.27631e-15 0)
(3 -6.88144e-16 0)
(3 1.64659e-17 0)
(3 -1.08522e-16 0)
(3 -7.64435e-16 0)
(3 -9.24701e-16 0)
(3 -3.04462e-16 0)
(3 1.68988e-16 0)
(3 5.30116e-16 0)
(3 8.62304e-16 0)
(3 1.2776e-15 0)
(3 1.38249e-15 0)
(3 1.2609e-15 0)
(3 1.17509e-16 0)
(3 1.13511e-15 0)
(3 1.52209e-15 0)
(3 4.85288e-16 0)
(3 2.09865e-16 0)
(3 8.50644e-17 0)
(3 4.9021e-16 0)
(3 1.32392e-16 0)
(3 5.23281e-16 0)
(3 6.25084e-16 0)
(3 -3.11541e-16 0)
(3 -9.10434e-17 0)
(3 -4.78471e-16 0)
(3 -6.27455e-16 0)
(3 -9.9113e-16 0)
(3 -1.03681e-15 0)
(3 -7.37216e-16 0)
(3 -7.81418e-16 0)
(3 1.30151e-16 0)
(3 1.75257e-15 0)
(3 1.96795e-15 0)
(3 1.22241e-15 0)
(3 1.19799e-15 0)
(3 1.00362e-15 0)
(3 7.25054e-17 0)
(3 -7.04097e-16 0)
(3 -1.39849e-15 0)
(3 -2.88638e-15 0)
(3 -2.55554e-15 0)
(3 -2.30903e-15 0)
(3 -1.95427e-15 0)
(3 -1.73497e-15 0)
(3 -1.85498e-15 0)
(3 -2.94553e-15 0)
(3 -3.21809e-15 0)
(3 -3.59723e-15 0)
(3 -4.67418e-15 0)
(3 -3.18056e-15 0)
(3 -1.85194e-15 0)
(3 -1.2441e-15 0)
(3 1.53488e-16 0)
(3 7.8006e-16 0)
(3 1.64103e-15 0)
(3 1.65802e-15 0)
(3 2.02156e-15 0)
(3 2.02756e-15 0)
(3 2.26733e-15 0)
(3 1.54906e-15 0)
(3 8.83657e-16 0)
(3 1.16685e-15 0)
(3 1.51259e-15 0)
(3 2.23501e-15 0)
(3 2.02563e-15 0)
(3 1.05902e-15 0)
(3 1.38565e-15 0)
(3 1.57956e-17 0)
(3 6.50367e-17 0)
(3 6.39867e-16 0)
(3 1.01347e-15 0)
(3 -2.90113e-16 0)
(3 -1.19219e-15 0)
(3 -1.54529e-15 0)
(3 -1.47251e-15 0)
(3 -1.65726e-15 0)
(3 -1.5521e-15 0)
(3 -1.02098e-15 0)
(3 -2.86125e-16 0)
(3 -3.64919e-16 0)
(3 -1.02019e-15 0)
(3 -1.42943e-15 0)
(3 -1.33313e-16 0)
(3 9.61439e-16 0)
(3 2.38472e-15 0)
(3 1.94188e-15 0)
(3 8.49465e-16 0)
(3 2.3435e-16 0)
(3 -1.20741e-16 0)
(3 -3.8908e-16 0)
(3 -1.8439e-16 0)
(3 5.5291e-16 0)
(3 -3.78785e-16 0)
(3 -1.113e-15 0)
(3 -1.06523e-15 0)
(3 -5.23175e-16 0)
(3 -4.03169e-16 0)
(3 -3.35512e-16 0)
(3 -6.34458e-17 0)
(3 4.49307e-16 0)
(3 1.63595e-15 0)
(3 1.51503e-15 0)
(3 1.38331e-15 0)
(3 8.08721e-16 0)
(3 6.39595e-16 0)
(3 9.86739e-16 0)
(3 1.35076e-15 0)
(3 2.02076e-15 0)
(3 2.02358e-18 0)
(3 -6.83364e-17 0)
(3 1.4303e-16 0)
(3 1.12252e-16 0)
(3 3.21309e-16 0)
(3 -1.80141e-16 0)
(3 5.22571e-17 0)
(3 3.11871e-16 0)
(3 5.66232e-16 0)
(3 2.66904e-16 0)
(3 -1.31648e-15 0)
(3 -9.23303e-16 0)
(3 -1.07114e-15 0)
(3 -1.08633e-17 0)
(3 4.04475e-16 0)
(3 -2.55834e-17 0)
(3 -8.84473e-16 0)
(3 -1.49681e-15 0)
(3 -5.71381e-16 0)
(3 4.29197e-16 0)
(3 1.69289e-15 0)
(3 2.81714e-15 0)
(3 2.77986e-15 0)
(3 2.24559e-15 0)
(3 1.51164e-15 0)
(3 6.36976e-16 0)
(3 -7.47541e-16 0)
(3 -5.90719e-16 0)
(3 -1.20916e-15 0)
(3 -1.68893e-15 0)
(3 -1.77001e-15 0)
(3 -1.61988e-15 0)
(3 -1.52959e-15 0)
(3 -1.58822e-15 0)
(3 -1.44988e-15 0)
(3 -1.63264e-15 0)
(3 -1.5784e-15 0)
(3 -2.23945e-15 0)
(3 -2.07659e-15 0)
(3 -1.79915e-15 0)
(3 -1.03004e-15 0)
(3 1.43696e-16 0)
(3 9.21893e-16 0)
(3 2.86329e-15 0)
(3 3.23397e-15 0)
(3 2.50151e-15 0)
(3 1.44372e-15 0)
(3 1.52864e-15 0)
(3 1.78277e-15 0)
(3 8.69582e-16 0)
(3 2.16897e-15 0)
(3 2.52398e-15 0)
(3 2.38081e-15 0)
(3 2.21775e-15 0)
(3 2.86491e-15 0)
(3 9.89887e-16 0)
(3 1.6788e-16 0)
(3 3.03432e-17 0)
(3 -1.86699e-16 0)
(3 -4.95075e-17 0)
(3 -3.63795e-16 0)
(3 -1.75735e-15 0)
(3 -1.1757e-15 0)
(3 -1.57017e-15 0)
(3 -2.28112e-15 0)
(3 -5.34528e-16 0)
(3 -4.2965e-16 0)
(3 -5.45471e-17 0)
(3 5.57499e-16 0)
(3 8.34149e-16 0)
(3 1.01817e-15 0)
(3 1.09271e-15 0)
(3 2.00694e-15 0)
(3 1.34717e-15 0)
(3 2.20581e-16 0)
(3 -1.18538e-15 0)
(3 -1.27921e-15 0)
(3 -1.81437e-15 0)
(3 -1.52641e-15 0)
(3 -9.82391e-16 0)
(3 -9.06739e-16 0)
(3 -1.14551e-15 0)
(3 -1.28518e-15 0)
(3 -4.68095e-16 0)
(3 8.06778e-16 0)
(3 1.08917e-15 0)
(3 8.33828e-16 0)
(3 9.20705e-16 0)
(3 1.11094e-15 0)
(3 8.04249e-16 0)
(3 -1.1325e-16 0)
(3 -8.24863e-17 0)
(3 1.9446e-16 0)
(3 -4.15769e-16 0)
(3 6.33607e-18 0)
(3 4.81891e-16 0)
(3 -4.62447e-17 0)
(3 -6.87939e-16 0)
(3 -1.36318e-15 0)
(3 -9.79906e-16 0)
(3 -9.58829e-17 0)
(3 -1.39308e-16 0)
(3 -8.06838e-16 0)
(3 -1.32573e-16 0)
(3 -2.01978e-16 0)
(3 -1.97481e-16 0)
(3 -1.99639e-16 0)
(3 -4.42078e-16 0)
(3 2.18636e-16 0)
(3 4.41106e-16 0)
(3 4.20069e-16 0)
(3 -1.22636e-16 0)
(3 -2.0713e-16 0)
(3 -7.40062e-17 0)
(3 1.68943e-17 0)
(3 -1.98699e-16 0)
(3 1.18456e-15 0)
(3 2.62971e-15 0)
(3 2.62802e-15 0)
(3 1.9226e-15 0)
(3 1.3123e-15 0)
(3 4.97607e-16 0)
(3 3.30217e-18 0)
(3 1.54021e-15 0)
(3 5.57864e-16 0)
(3 4.03191e-16 0)
(3 2.56258e-16 0)
(3 -5.20639e-16 0)
(3 -1.05867e-15 0)
(3 -1.22381e-15 0)
(3 -1.14161e-15 0)
(3 -8.9311e-16 0)
(3 -7.76974e-16 0)
(3 -1.67756e-15 0)
(3 -2.11092e-15 0)
(3 -1.79804e-15 0)
(3 -1.52186e-15 0)
(3 -4.04597e-16 0)
(3 2.53035e-16 0)
(3 6.65895e-16 0)
(3 1.74408e-16 0)
(3 -8.48347e-16 0)
(3 -1.6773e-15 0)
(3 -1.14706e-15 0)
(3 -2.10836e-16 0)
(3 -4.77527e-16 0)
(3 7.29525e-16 0)
(3 1.70523e-15 0)
(3 1.48215e-15 0)
(3 2.00151e-15 0)
(3 2.66939e-15 0)
(3 2.0875e-15 0)
(3 6.3201e-17 0)
(3 -2.27798e-15 0)
(3 -2.44015e-15 0)
(3 -1.65111e-15 0)
(3 -1.34725e-15 0)
(3 -8.57376e-16 0)
(3 -1.33566e-15 0)
(3 -9.20245e-16 0)
(3 -8.17734e-16 0)
(3 -8.08681e-16 0)
(3 -5.23675e-16 0)
(3 -2.04477e-16 0)
(3 7.04381e-16 0)
(3 1.5732e-15 0)
(3 2.1489e-15 0)
(3 1.47849e-15 0)
(3 1.19204e-15 0)
(3 1.37699e-15 0)
(3 5.1393e-16 0)
(3 -2.10149e-16 0)
(3 -7.08939e-17 0)
(3 1.53282e-16 0)
(3 -2.25776e-16 0)
(3 -6.92179e-16 0)
(3 -4.28283e-16 0)
(3 -2.95952e-16 0)
(3 2.77888e-16 0)
(3 1.10981e-15 0)
(3 7.50274e-16 0)
(3 8.02158e-16 0)
(3 4.53227e-16 0)
(3 -4.87933e-17 0)
(3 -4.90567e-16 0)
(3 -8.22678e-16 0)
(3 -1.58987e-15 0)
(3 -9.9225e-16 0)
(3 3.94769e-17 0)
(3 -4.40339e-16 0)
(3 -5.42958e-16 0)
(3 -2.75102e-16 0)
(3 -9.82164e-17 0)
(3 -3.42613e-16 0)
(3 -5.01707e-16 0)
(3 -7.26577e-16 0)
(3 -1.14594e-15 0)
(3 -8.83597e-16 0)
(3 -1.86507e-15 0)
(3 -1.4484e-15 0)
(3 -1.44274e-15 0)
(3 -1.02553e-15 0)
(3 -3.95708e-17 0)
(3 -1.29268e-16 0)
(3 1.20337e-15 0)
(3 2.82836e-16 0)
(3 -5.28626e-16 0)
(3 -1.8109e-16 0)
(3 5.97854e-16 0)
(3 7.20128e-16 0)
(3 -3.67744e-16 0)
(3 -4.24453e-16 0)
(3 5.79932e-16 0)
(3 1.23832e-15 0)
(3 1.35092e-15 0)
(3 1.21174e-15 0)
(3 1.5063e-15 0)
(3 1.19774e-15 0)
(3 6.19667e-16 0)
(3 4.54029e-16 0)
(3 5.6548e-17 0)
(3 2.86918e-16 0)
(3 2.56596e-16 0)
(3 -5.44628e-16 0)
(3 -7.21641e-17 0)
(3 5.30931e-16 0)
(3 3.51741e-17 0)
(3 -1.37789e-15 0)
(3 -1.90283e-15 0)
(3 -2.13617e-15 0)
(3 -1.60311e-15 0)
(3 -9.82264e-16 0)
(3 -6.4752e-16 0)
(3 -1.27864e-16 0)
(3 -3.30399e-16 0)
(3 -1.88613e-15 0)
(3 -2.28504e-15 0)
(3 -2.09964e-15 0)
(3 -2.26737e-15 0)
(3 -2.64558e-15 0)
(3 -3.3966e-15 0)
(3 -3.15161e-15 0)
(3 -7.90347e-16 0)
(3 2.86364e-16 0)
(3 1.3304e-15 0)
(3 1.80053e-15 0)
(3 1.49877e-15 0)
(3 3.74517e-16 0)
(3 -5.97309e-16 0)
(3 -7.42358e-16 0)
(3 -1.23049e-15 0)
(3 -1.73167e-15 0)
(3 -1.25236e-15 0)
(3 2.27731e-18 0)
(3 -6.34456e-16 0)
(3 3.95858e-17 0)
(3 4.71997e-16 0)
(3 -7.07066e-17 0)
(3 -1.86858e-16 0)
(3 9.86355e-17 0)
(3 8.10915e-18 0)
(3 6.62876e-16 0)
(3 1.18151e-15 0)
(3 1.77802e-15 0)
(3 1.26636e-15 0)
(3 1.04297e-15 0)
(3 4.37031e-16 0)
(3 6.9596e-16 0)
(3 1.26158e-15 0)
(3 1.61197e-15 0)
(3 1.04563e-15 0)
(3 2.86437e-16 0)
(3 4.0797e-16 0)
(3 6.06139e-16 0)
(3 1.15271e-15 0)
(3 8.01799e-16 0)
(3 5.44273e-17 0)
(3 -1.55629e-15 0)
(3 -1.60183e-15 0)
(3 -1.8346e-15 0)
(3 -2.02879e-15 0)
(3 -1.63189e-15 0)
(3 -1.59185e-15 0)
(3 -9.76902e-16 0)
(3 5.73553e-16 0)
(3 6.40718e-16 0)
(3 1.20323e-15 0)
(3 1.3286e-15 0)
(3 2.11176e-17 0)
(3 1.06684e-16 0)
(3 5.66055e-16 0)
(3 2.22132e-16 0)
(3 -4.77466e-16 0)
(3 -1.01405e-15 0)
(3 -7.70848e-16 0)
(3 -4.645e-16 0)
(3 -2.88646e-16 0)
(3 3.70861e-17 0)
(3 -2.34118e-16 0)
(3 -2.31564e-16 0)
(3 1.60135e-17 0)
(3 4.44855e-16 0)
(3 3.44139e-16 0)
(3 9.86487e-16 0)
(3 1.55003e-15 0)
(3 1.61853e-15 0)
(3 1.07576e-15 0)
(3 5.22427e-16 0)
(3 -1.23071e-16 0)
(3 -5.63361e-16 0)
(3 3.69724e-16 0)
(3 5.17646e-16 0)
(3 6.63389e-16 0)
(3 3.1641e-16 0)
(3 4.88013e-16 0)
(3 8.29205e-17 0)
(3 1.01714e-15 0)
(3 9.31297e-16 0)
(3 3.34819e-16 0)
(3 8.06205e-16 0)
(3 1.13087e-15 0)
(3 2.59487e-16 0)
(3 -5.29821e-16 0)
(3 -2.02813e-15 0)
(3 -3.48546e-15 0)
(3 -2.67295e-15 0)
(3 -2.57089e-15 0)
(3 -2.15194e-15 0)
(3 -1.15727e-15 0)
(3 -9.96426e-16 0)
(3 -5.95071e-16 0)
(3 -7.41921e-16 0)
(3 -4.19445e-17 0)
(3 -1.42976e-16 0)
(3 -4.01398e-16 0)
(3 -2.13245e-15 0)
(3 -3.03305e-15 0)
(3 -3.00259e-15 0)
(3 -2.17131e-15 0)
(3 -6.76121e-16 0)
(3 1.73349e-15 0)
(3 2.77096e-15 0)
(3 2.25422e-15 0)
(3 1.99112e-15 0)
(3 1.20173e-15 0)
(3 1.19405e-15 0)
(3 1.2053e-15 0)
(3 9.82785e-16 0)
(3 -1.51734e-17 0)
(3 -3.54071e-16 0)
(3 6.29942e-16 0)
(3 5.19808e-16 0)
(3 8.46108e-16 0)
(3 6.63096e-16 0)
(3 2.49363e-16 0)
(3 2.54084e-17 0)
(3 6.50187e-17 0)
(3 2.3253e-16 0)
(3 -6.03727e-17 0)
(3 -5.09556e-17 0)
(3 -5.81848e-16 0)
(3 -6.02249e-16 0)
(3 -5.19943e-16 0)
(3 5.76076e-16 0)
(3 2.06495e-15 0)
(3 2.01636e-15 0)
(3 9.7145e-16 0)
(3 -3.86952e-16 0)
(3 -1.38245e-15 0)
(3 -7.98077e-16 0)
(3 -1.78224e-16 0)
(3 -9.84924e-16 0)
(3 -1.46416e-15 0)
(3 -1.53114e-15 0)
(3 -1.03333e-15 0)
(3 -7.05092e-16 0)
(3 -5.17814e-16 0)
(3 -2.21088e-16 0)
(3 7.39666e-17 0)
(3 -2.67938e-16 0)
(3 5.76692e-16 0)
(3 2.05976e-15 0)
(3 2.25473e-15 0)
(3 2.42775e-15 0)
(3 1.09043e-16 0)
(3 5.1245e-16 0)
(3 4.01792e-16 0)
(3 3.02194e-16 0)
(3 -1.30414e-16 0)
(3 -1.52072e-16 0)
(3 1.22521e-16 0)
(3 6.00977e-17 0)
(3 5.07718e-16 0)
(3 1.50597e-15 0)
(3 1.51843e-15 0)
(3 1.36925e-15 0)
(3 8.82956e-16 0)
(3 1.57809e-15 0)
(3 1.7483e-15 0)
(3 1.97306e-15 0)
(3 1.44292e-15 0)
(3 1.38083e-15 0)
(3 1.76386e-15 0)
(3 1.41185e-15 0)
(3 3.60551e-16 0)
(3 1.69305e-16 0)
(3 3.81656e-16 0)
(3 6.18481e-16 0)
(3 5.06368e-16 0)
(3 7.81081e-16 0)
(3 1.76334e-15 0)
(3 1.49664e-15 0)
(3 1.6018e-15 0)
(3 1.22361e-15 0)
(3 1.34274e-15 0)
(3 1.63398e-15 0)
(3 1.59067e-15 0)
(3 1.36734e-15 0)
(3 1.5056e-15 0)
(3 1.24227e-15 0)
(3 4.59536e-17 0)
(3 -2.80725e-16 0)
(3 -5.73419e-16 0)
(3 -1.16712e-15 0)
(3 -9.90255e-16 0)
(3 -2.67832e-16 0)
(3 4.0458e-16 0)
(3 7.05094e-16 0)
(3 -1.09246e-16 0)
(3 -3.40987e-16 0)
(3 -5.41108e-16 0)
(3 -7.6805e-16 0)
(3 -1.06632e-15 0)
(3 -1.35378e-15 0)
(3 -9.29746e-16 0)
(3 -1.02374e-15 0)
(3 -2.88891e-16 0)
(3 1.56445e-17 0)
(3 3.70818e-16 0)
(3 1.05129e-15 0)
(3 1.30991e-15 0)
(3 5.77848e-16 0)
(3 6.10983e-16 0)
(3 4.18918e-16 0)
(3 4.73243e-17 0)
(3 2.52411e-16 0)
(3 9.28265e-16 0)
(3 9.31287e-16 0)
(3 1.55314e-15 0)
(3 3.15651e-15 0)
(3 3.17719e-15 0)
(3 2.9553e-15 0)
(3 2.50157e-15 0)
(3 1.35531e-15 0)
(3 2.35589e-16 0)
(3 -6.46679e-16 0)
(3 -4.09797e-16 0)
(3 -3.86223e-16 0)
(3 1.21221e-16 0)
(3 7.13102e-16 0)
(3 1.22716e-15 0)
(3 2.03655e-15 0)
(3 2.25418e-15 0)
(3 1.20823e-15 0)
(3 6.78378e-16 0)
(3 -6.09898e-16 0)
(3 -1.2896e-15 0)
(3 -1.39389e-15 0)
(3 -1.05289e-15 0)
(3 -6.17291e-16 0)
(3 -6.39263e-16 0)
(3 -5.10965e-16 0)
(3 -9.30789e-17 0)
(3 5.75819e-16 0)
(3 9.72101e-16 0)
(3 1.79527e-15 0)
(3 1.55805e-15 0)
(3 3.11235e-15 0)
(3 3.49187e-15 0)
(3 2.92621e-15 0)
(3 6.01979e-17 0)
(3 1.25991e-16 0)
(3 -1.39365e-17 0)
(3 2.8453e-16 0)
(3 -3.84539e-17 0)
(3 1.98915e-16 0)
(3 1.27724e-16 0)
(3 4.79252e-17 0)
(3 -7.46427e-18 0)
(3 -1.94732e-16 0)
(3 1.0676e-17 0)
(3 6.13557e-16 0)
(3 1.15687e-15 0)
(3 9.47057e-16 0)
(3 8.80264e-16 0)
(3 1.16432e-15 0)
(3 1.20043e-15 0)
(3 1.40742e-15 0)
(3 1.1386e-15 0)
(3 1.758e-15 0)
(3 1.16509e-15 0)
(3 6.34566e-16 0)
(3 8.1718e-16 0)
(3 9.67342e-16 0)
(3 1.99304e-15 0)
(3 2.61636e-15 0)
(3 2.78737e-15 0)
(3 2.93468e-15 0)
(3 2.3173e-15 0)
(3 2.88246e-15 0)
(3 3.33609e-15 0)
(3 2.66493e-15 0)
(3 2.57219e-15 0)
(3 3.06384e-15 0)
(3 2.89375e-15 0)
(3 2.84893e-15 0)
(3 3.14949e-15 0)
(3 2.68726e-15 0)
(3 2.25856e-15 0)
(3 1.67997e-15 0)
(3 8.3761e-16 0)
(3 4.58827e-16 0)
(3 -5.1013e-16 0)
(3 -5.77151e-16 0)
(3 -1.07226e-15 0)
(3 -1.0286e-15 0)
(3 -7.29456e-16 0)
(3 -6.07289e-16 0)
(3 -7.69488e-16 0)
(3 -1.17927e-15 0)
(3 -2.49844e-15 0)
(3 -2.41046e-15 0)
(3 -2.39479e-15 0)
(3 -2.32875e-15 0)
(3 -9.80646e-16 0)
(3 -5.87035e-16 0)
(3 -1.7933e-16 0)
(3 2.33045e-16 0)
(3 -2.12674e-16 0)
(3 -8.93954e-16 0)
(3 -3.31396e-16 0)
(3 -1.98816e-16 0)
(3 4.73959e-16 0)
(3 9.53648e-16 0)
(3 1.73327e-15 0)
(3 2.72989e-15 0)
(3 2.96976e-15 0)
(3 2.83247e-15 0)
(3 2.37978e-15 0)
(3 1.40381e-15 0)
(3 -3.26569e-16 0)
(3 -7.39729e-16 0)
(3 -3.47227e-16 0)
(3 7.00577e-16 0)
(3 1.42518e-15 0)
(3 6.56002e-16 0)
(3 2.24996e-16 0)
(3 6.83475e-16 0)
(3 8.41753e-16 0)
(3 1.00772e-15 0)
(3 1.34277e-15 0)
(3 -6.14607e-16 0)
(3 -1.74472e-15 0)
(3 -1.34845e-15 0)
(3 -5.81191e-16 0)
(3 -1.05837e-15 0)
(3 -1.6838e-15 0)
(3 -1.34691e-15 0)
(3 -2.03031e-16 0)
(3 1.54171e-15 0)
(3 2.48225e-15 0)
(3 1.8064e-15 0)
(3 1.57184e-15 0)
(3 1.58348e-15 0)
(3 2.03465e-15 0)
(3 2.21529e-15 0)
(3 -2.22752e-17 0)
(3 1.02518e-16 0)
(3 2.07193e-16 0)
(3 2.36559e-16 0)
(3 3.49333e-16 0)
(3 -4.46548e-17 0)
(3 4.20376e-16 0)
(3 7.2089e-16 0)
(3 9.18075e-16 0)
(3 -2.97304e-16 0)
(3 -6.80447e-16 0)
(3 -7.50378e-16 0)
(3 -4.0833e-16 0)
(3 -6.31258e-16 0)
(3 -2.54584e-16 0)
(3 -1.29135e-16 0)
(3 4.50573e-16 0)
(3 8.70119e-16 0)
(3 1.40931e-15 0)
(3 8.27735e-16 0)
(3 1.78277e-16 0)
(3 -2.96516e-16 0)
(3 -3.18796e-16 0)
(3 1.9206e-16 0)
(3 6.91458e-16 0)
(3 1.23797e-15 0)
(3 1.26967e-15 0)
(3 8.22525e-16 0)
(3 4.13631e-16 0)
(3 1.64034e-15 0)
(3 3.08411e-15 0)
(3 3.35763e-15 0)
(3 3.03266e-15 0)
(3 2.49503e-15 0)
(3 2.84796e-15 0)
(3 3.09901e-15 0)
(3 2.99786e-15 0)
(3 1.79629e-15 0)
(3 9.27134e-16 0)
(3 1.26656e-15 0)
(3 9.55809e-16 0)
(3 -8.68153e-17 0)
(3 -7.27793e-16 0)
(3 -1.06195e-15 0)
(3 -1.24952e-15 0)
(3 -1.49793e-15 0)
(3 -2.62901e-15 0)
(3 -2.54778e-15 0)
(3 -1.94614e-15 0)
(3 -1.29398e-15 0)
(3 -1.76541e-15 0)
(3 -2.49645e-15 0)
(3 -3.05914e-15 0)
(3 -2.4673e-15 0)
(3 -1.01594e-15 0)
(3 -6.32993e-16 0)
(3 -4.40813e-16 0)
(3 -3.46974e-16 0)
(3 -4.43157e-16 0)
(3 -8.76454e-16 0)
(3 -7.47546e-16 0)
(3 -1.23154e-15 0)
(3 -2.8459e-16 0)
(3 5.87637e-16 0)
(3 3.8766e-16 0)
(3 -2.74764e-16 0)
(3 2.36445e-16 0)
(3 8.91149e-16 0)
(3 1.12681e-15 0)
(3 4.23755e-16 0)
(3 -6.55032e-16 0)
(3 -6.42197e-16 0)
(3 1.22977e-16 0)
(3 1.60341e-15 0)
(3 2.1407e-15 0)
(3 1.76135e-15 0)
(3 1.62177e-15 0)
(3 1.0343e-15 0)
(3 1.67558e-16 0)
(3 9.09145e-16 0)
(3 1.35838e-15 0)
(3 9.69745e-16 0)
(3 -1.14238e-17 0)
(3 -2.14673e-16 0)
(3 -6.14026e-16 0)
(3 -9.62675e-16 0)
(3 -9.89421e-16 0)
(3 -8.6784e-16 0)
(3 -7.10128e-16 0)
(3 2.04882e-16 0)
(3 1.77824e-15 0)
(3 1.9854e-15 0)
(3 1.51551e-15 0)
(3 8.59277e-16 0)
(3 8.29833e-16 0)
(3 1.73604e-15 0)
(3 -2.76938e-17 0)
(3 1.45723e-16 0)
(3 1.51559e-16 0)
(3 3.83304e-16 0)
(3 6.47164e-16 0)
(3 3.69485e-16 0)
(3 -1.00494e-16 0)
(3 -7.22428e-16 0)
(3 -1.11978e-15 0)
(3 -1.10496e-15 0)
(3 -5.0756e-16 0)
(3 -8.69904e-16 0)
(3 -1.36656e-15 0)
(3 -1.37766e-15 0)
(3 -1.08079e-15 0)
(3 -1.03185e-15 0)
(3 -8.99114e-16 0)
(3 6.76481e-17 0)
(3 5.66162e-16 0)
(3 1.9576e-16 0)
(3 -4.1762e-17 0)
(3 3.61628e-16 0)
(3 2.28387e-16 0)
(3 9.41718e-16 0)
(3 1.14827e-15 0)
(3 4.66565e-16 0)
(3 -4.59456e-16 0)
(3 -4.94032e-16 0)
(3 -5.64142e-16 0)
(3 1.21829e-16 0)
(3 7.299e-16 0)
(3 1.97882e-15 0)
(3 2.58114e-15 0)
(3 2.45945e-15 0)
(3 2.81881e-15 0)
(3 2.91585e-15 0)
(3 2.45298e-15 0)
(3 1.37149e-15 0)
(3 1.43228e-15 0)
(3 2.21818e-16 0)
(3 -2.15333e-16 0)
(3 6.51165e-17 0)
(3 -5.42893e-16 0)
(3 -8.23078e-16 0)
(3 -1.00367e-15 0)
(3 -1.94374e-15 0)
(3 -2.4022e-15 0)
(3 -1.91205e-15 0)
(3 -1.40649e-15 0)
(3 -9.4415e-16 0)
(3 -6.30173e-16 0)
(3 -1.0392e-15 0)
(3 -1.8097e-15 0)
(3 -1.44994e-15 0)
(3 -1.40978e-15 0)
(3 -1.41337e-15 0)
(3 -9.86468e-16 0)
(3 -4.84505e-16 0)
(3 5.59588e-16 0)
(3 8.08681e-16 0)
(3 4.80817e-16 0)
(3 7.85553e-17 0)
(3 -1.92452e-16 0)
(3 4.47938e-17 0)
(3 -2.61538e-16 0)
(3 -1.2741e-15 0)
(3 -1.30711e-15 0)
(3 -7.42724e-16 0)
(3 -1.88791e-16 0)
(3 -6.16218e-16 0)
(3 -3.62554e-16 0)
(3 -2.04566e-16 0)
(3 7.65051e-16 0)
(3 1.53444e-15 0)
(3 1.18145e-15 0)
(3 7.67398e-16 0)
(3 5.3082e-16 0)
(3 -1.07971e-16 0)
(3 -2.29438e-16 0)
(3 3.1193e-16 0)
(3 1.33716e-15 0)
(3 2.28956e-15 0)
(3 9.9667e-16 0)
(3 5.62607e-16 0)
(3 -2.60661e-16 0)
(3 8.64213e-17 0)
(3 1.41158e-15 0)
(3 1.36008e-15 0)
(3 1.37983e-15 0)
(3 9.72914e-16 0)
(3 1.00164e-15 0)
(3 1.65215e-15 0)
(3 1.5983e-15 0)
(3 1.13675e-15 0)
(3 7.42638e-16 0)
(3 6.58074e-16 0)
(3 -5.90802e-18 0)
(3 -1.158e-16 0)
(3 3.60474e-17 0)
(3 1.16893e-16 0)
(3 3.81747e-16 0)
(3 1.2774e-15 0)
(3 8.49842e-16 0)
(3 -1.06726e-17 0)
(3 -4.62481e-16 0)
(3 1.01634e-16 0)
(3 6.57204e-16 0)
(3 3.49181e-16 0)
(3 -1.00246e-15 0)
(3 -1.89015e-15 0)
(3 -2.45347e-15 0)
(3 -1.88448e-15 0)
(3 -2.70717e-16 0)
(3 -3.04271e-16 0)
(3 1.65252e-16 0)
(3 1.05481e-15 0)
(3 1.46705e-15 0)
(3 8.98205e-16 0)