/*--------------------------------*- C++ -*----------------------------------*\
  =========                 |
  \\      /  F ield         | OpenFOAM: The Open Source CFD Toolbox
   \\    /   O peration     | Website:  https://openfoam.org
    \\  /    A nd           | Version:  7
     \\/     M anipulation  |
\*---------------------------------------------------------------------------*/
FoamFile
{
    version     2.0;
    format      ascii;
    class       volScalarField;
    location    "3.2";
    object      T;
}
// * * * * * * * * * * * * * * * * * * * * * * * * * * * * * * * * * * * * * //

dimensions      [0 0 0 1 0 0 0];

internalField   nonuniform List<scalar> 
4048
(
1
1
1
1
1
1
1
1
1
1
1
1
1
1
1
1.10096
2.37074
2.72886
2.74604
2.7672
2.78507
2.80003
2.81069
2.81933
1
1
1
1
1
1
1
1
1
1
1
1
1
1
1
1.07316
2.34595
2.72512
2.74319
2.76329
2.78052
2.79448
2.80328
2.80799
1
1
1
1
1
1
1
1
1
1
1
1
1
1
1
1.00563
2.27886
2.71463
2.73531
2.75341
2.76714
2.77706
2.78666
2.80047
1
1
1
1
1
1
1
1
1
1
1
1
1
1
1
1.00005
2.18446
2.69473
2.72301
2.73998
2.75113
2.76183
2.77902
2.82287
1
1
1
1
1
1
1
1
1
1
1
1
1
1
1
1
2.04602
2.66132
2.70553
2.72173
2.72997
2.73242
2.71664
2.71912
1
1
1
1
1
1
1
1
1
1
1
1
1
1
1
1
1.8511
2.60001
2.6778
2.70126
2.7085
2.70233
2.68376
2.68628
1
1
1
1
1
1
1
1
1
1
1
1
1
1
1
1
1.56582
2.48881
2.63857
2.67313
2.68368
2.67625
2.6571
2.64712
1
1
1
1
1
1
1
1
1
1
1
1
1
1
1
1
1.16426
2.33428
2.61104
2.63461
2.64715
2.64339
2.63229
2.62013
1
1
1
1
1
1
1
1
1
1
1
1
1
1
1
1
1.0076
2.18775
2.56002
2.58378
2.59834
2.60401
2.60309
2.59657
1
1
1
1
1
1
1
1
1
1
1
1
1
1
1
1
0.999986
1.88086
2.50155
2.56059
2.5685
2.57197
2.57294
2.56964
1
1
1
1
1
1
1
1
1
1
1
1
1
1
1
1
0.999995
1.39296
2.36323
2.5379
2.5375
2.53922
2.53965
2.53636
1
1
1
1
1
1
1
1
1
1
1
1
1
1
1
1
0.999999
1.0409
2.17777
2.49735
2.50553
2.50759
2.50677
2.50256
1
1
1
1
1
1
1
1
1
1
1
1
1
1
1
1
1
1.00026
1.77759
2.40676
2.48469
2.48385
2.48075
2.47157
1
1
1
1
1
1
1
1
1
1
1
1
1
1
1
1
1
0.999999
1.17392
2.24124
2.46749
2.4594
2.45334
2.44016
1
1
1
1
1
1
1
1
1
1
1
1
1
1
1
1
1
1
1.00691
1.999
2.40247
2.43077
2.42279
2.4079
1
1
1
1
1
1
1
1
1
1
1
1
1
1
1
1
1
1
0.999995
1.41437
2.26196
2.4121
2.39346
2.37902
1
1
1
1
1
1
1
1
1
1
1
1
1
1
1
1
1
1
0.999997
1.04169
2.0655
2.37581
2.35776
2.3487
1
1
1
1
1
1
1
1
1
1
1
1
1
1
1
1
1
1
0.999999
1.00031
1.5264
2.23813
2.3388
2.32531
1
1
1
1
1
1
1
1
1
1
1
1
1
1
1
1
1
1
1
1
1.07239
2.02459
2.31717
2.30313
1
1
1
1
1
1
1
1
1
1
1
1
1
1
1
1
1
1
1
1
1.00106
1.45792
2.15754
2.2819
1
1
1
1
1
1
1
1
1
1
1
1
1
1
1
1
1
1
1
1
1
1.05505
1.91513
2.25755
1
1
1
1
1
1
1
1
1
1
1
1
1
1
1
1
1
1
1
1
1
1.0007
1.34742
2.07566
1
1
1
1
1
1
1
1
1
1
1
1
1
1
1
1
1
1
1
1
1
1
1.02894
1.71689
1
1
1
1
1
1
1
1
1
1
1
1
1
1
1
1
1
1
1
1
1
1
1.00029
1.18542
1
1
1
1
1
1
1
1
1
1
1
1
1
1
1
1
1
1
1
1
1
1
1
1.00783
1
1
1
1
1
1
1
1
1
1
1
1
1
1
1
1
1
1
1
1
1
1
1
1.00006
1
1
1
1
1
1
1
1
1
1
1
1
1
1
1
1
1
1
1
1
1
1
1
1
1
1
1
1
1
1
1
1
1
1
1
1
1
1
1
1
1
1
1
1
1
1
1
1
1
1
1
1
1
1
1
1
1
1
1
1
1
1
1
1
1
1
1
1
1
1
1
1
1
1
1
1
1
1
1
1
1
1
1
1
1
1
1
1
1
1
1
1
1
1
1
1
1
1
1
1
1
1
1
1
1
1
1
1
1
1
1
1
1
1
1
1
1
1
1
1
1
1
1
1
1
1
1
1
1
1
1
1
1
1
1
1
1
1
1
1
1
1
1
1
1
1
1
1
1
1
1
1
1
1
1
1
1
1
1
1
1
1
1
1
1
1
1
1
1
1
1
1
1
1
1
1
1
1
1
1
1
1
1
1
1
1
1
1
1
1
1
1
1
1
1
1
1
1
1
1
1
1
1
1
1
1
1
1
1
1
1
1
1
1
1
1
1
1
1
1
1
1
1
1
1
1
1
1
1
1
1
1
1
1
1
1
1
1
1
1
1
1
1
1
1
1
1
1
1
1
1
1
1
1
1
1
1
1
1
1
1
1
1
1
1
1
1
1
1
1
1
1
1
1
1
1
1
1
1
1
1
1
1
1
1
1
1
1
1
1
1
1
1
1
1
1
1
1
1
1
1
1
1
1
1
1
1
1
1
1
1
1
1
1
1
1
1
1
1
1
1
1
1
1
1
1
1
1
1
1
1
1
1
1
1
1
2.58689
2.71402
2.76663
2.79656
2.71016
2.78938
2.8005
2.8132
2.67054
2.73168
2.76406
2.7972
2.63264
2.67708
2.73499
2.83277
2.59904
2.61377
2.61692
2.57039
2.5621
2.54893
2.50803
2.40718
2.52372
2.50016
2.43862
2.32661
2.48755
2.45842
2.392
2.29002
2.4527
2.41968
2.3602
2.2763
2.41778
2.38567
2.33443
2.26393
2.38663
2.35585
2.31079
2.25061
2.3599
2.33073
2.29021
2.23885
2.33269
2.30668
2.27017
2.22638
2.30915
2.28599
2.25416
2.21626
2.28677
2.26418
2.23576
2.20276
2.26329
2.24282
2.21764
2.18851
2.24314
2.22357
2.19959
2.17283
2.22295
2.19998
2.17944
2.15637
2.15921
2.18095
2.16405
2.14393
1.93921
2.16186
2.14451
2.12617
1.45175
2.0175
2.1275
2.10682
1.05786
1.70192
2.05715
2.09575
1.00104
1.197
1.83346
2.06552
1
1.00944
1.36759
1.90283
1
1.00008
1.03878
1.52536
1
1
1.00064
1.09986
1
1
1
1.00301
1
1
1
1.00002
1
1
1
1
1
1
1
1
1
1
1
1
1
1
1
1
1
1
1
1
1
1
1
1
1
1
1
1
1
1
1
1
1.88118
1.51825
1.36213
1.36008
1.42304
1.49616
1.56035
1.64884
1.73253
1.7491
1.74121
1.73078
1.73169
1.74352
1.75787
1.75636
1.74355
1.73965
1.73999
1.74022
1.73749
1.72951
1.71622
1.70892
1.70798
1.70862
1.7131
1.71939
1.71993
1.71723
1.7141
1.71032
1.70596
1.70235
1.69791
1.6944
2.41002
2.88214
2.85462
2.81354
2.78157
2.75651
2.73964
2.72299
2.70521
2.68404
2.65888
2.63115
2.60394
2.57994
2.56054
2.54483
2.52857
2.50935
2.48898
2.46839
2.44899
2.43197
2.41986
2.41324
2.4049
2.38669
2.36705
2.34192
2.31028
2.28865
2.27752
2.26931
2.26699
2.26891
2.26445
2.24736
2.22686
2.19948
2.16885
2.1531
2.14627
2.14303
2.14393
2.14536
2.14205
2.13248
2.11552
2.08711
2.06054
2.04695
2.03854
2.03465
2.03515
2.03147
2.02698
2.01312
2.0302
1.83598
1.71044
1.57511
1.5424
1.5087
1.49998
1.51082
1.54038
1.55998
1.58257
1.60628
1.62946
1.65334
1.67144
1.67829
1.67957
1.68323
1.68791
1.69372
1.69411
1.69216
1.68787
1.68539
1.68417
1.68435
1.68803
1.69284
1.69277
1.69078
1.68841
1.68634
1.68461
1.68122
1.67498
1.6826
2.31227
2.82264
2.79197
2.74782
2.71592
2.6915
2.67457
2.65983
2.64867
2.6334
2.6126
2.5874
2.56106
2.53783
2.5205
2.50854
2.49857
2.48704
2.47271
2.45576
2.43573
2.41531
2.39724
2.3823
2.36977
2.35596
2.34061
2.32456
2.30989
2.2921
2.27409
2.26215
2.25452
2.24853
2.23863
2.22604
2.21103
2.19228
2.17321
2.15509
2.14323
2.13788
2.13497
2.13145
2.12591
2.11757
2.10501
2.08607
2.06414
2.04618
2.03585
2.02951
2.02504
2.02092
2.01712
2.005
2.0909
1.91169
1.78307
1.67187
1.59097
1.52936
1.47381
1.43665
1.43499
1.44182
1.46592
1.49512
1.51949
1.5397
1.55579
1.57337
1.58958
1.60048
1.61306
1.6276
1.63139
1.6295
1.62628
1.62523
1.6249
1.62503
1.62711
1.63009
1.63112
1.63114
1.63047
1.63009
1.62952
1.62871
1.64089
1.69732
2.09783
2.61456
2.66152
2.61798
2.58444
2.5658
2.55328
2.5415
2.53927
2.53353
2.52091
2.50272
2.48117
2.4596
2.44177
2.4286
2.41938
2.41207
2.40486
2.39654
2.3866
2.37384
2.35507
2.3303
2.30824
2.29224
2.27949
2.27258
2.26988
2.26258
2.25401
2.2424
2.22353
2.2048
2.19389
2.18251
2.16944
2.16031
2.15337
2.14417
2.13447
2.1219
2.10873
2.10031
2.09357
2.0848
2.0741
2.06535
2.05522
2.04305
2.02749
2.0129
2.00365
1.99735
1.99125
1.97928
2.12092
1.98195
1.85637
1.75235
1.67325
1.60005
1.53595
1.48923
1.46299
1.43174
1.41937
1.4237
1.43037
1.43838
1.45264
1.47412
1.49688
1.51268
1.52652
1.54135
1.55477
1.56006
1.56437
1.56919
1.56864
1.56722
1.56645
1.56686
1.56714
1.56763
1.56665
1.56554
1.56549
1.57456
1.63877
1.81901
1.97029
2.26718
2.44923
2.47147
2.47246
2.4564
2.43277
2.41704
2.41429
2.41202
2.40644
2.39626
2.38207
2.36678
2.35308
2.34211
2.33334
2.3252
2.31742
2.31021
2.30309
2.29512
2.2848
2.26988
2.2491
2.23009
2.21857
2.21139
2.20899
2.20667
2.20098
2.19327
2.17935
2.15595
2.13618
2.12561
2.11811
2.11433
2.11545
2.11216
2.10433
2.09433
2.07668
2.05733
2.04553
2.03792
2.03285
2.02957
2.02776
2.02071
2.00985
1.99473
1.97683
1.96281
1.95274
1.94137
2.14973
2.03638
1.92279
1.82351
1.74829
1.67437
1.59755
1.54729
1.50437
1.46336
1.42333
1.41372
1.40489
1.40601
1.41406
1.42555
1.44007
1.45381
1.46426
1.47621
1.49154
1.50258
1.51347
1.52372
1.53262
1.53404
1.53391
1.53324
1.53051
1.5266
1.52218
1.52086
1.52654
1.5718
1.76584
1.96864
1.97487
2.01911
2.17771
2.30103
2.37084
2.38427
2.37106
2.3552
2.34015
2.33384
2.32966
2.32314
2.31456
2.3032
2.29036
2.27899
2.26941
2.2606
2.25152
2.24182
2.23215
2.22301
2.21407
2.20392
2.19089
2.1765
2.16591
2.15866
2.15346
2.14825
2.14081
2.13236
2.12088
2.10333
2.08398
2.0746
2.07097
2.0698
2.07117
2.06876
2.0624
2.05385
2.03692
2.0113
1.99709
1.99331
1.99091
1.99039
1.9909
1.98698
1.97961
1.96823
1.94662
1.92208
1.91119
1.90375
2.1668
2.07137
1.97624
1.88617
1.81025
1.73878
1.66496
1.61505
1.56877
1.52532
1.48102
1.45619
1.43449
1.41213
1.41118
1.40977
1.40388
1.40459
1.41051
1.42377
1.44309
1.46257
1.47653
1.48673
1.49817
1.50175
1.50353
1.50655
1.5098
1.50807
1.50472
1.50747
1.54219
1.71234
1.91946
1.98998
1.98675
1.97695
2.00091
2.10477
2.24215
2.30867
2.32617
2.32725
2.31371
2.3012
2.29103
2.2824
2.27575
2.26863
2.25864
2.24695
2.23513
2.22347
2.21205
2.20056
2.1894
2.17949
2.17118
2.16385
2.15637
2.14668
2.13295
2.11838
2.10832
2.10016
2.09155
2.08228
2.07318
2.06445
2.05414
2.04153
2.03412
2.03084
2.02816
2.02501
2.01963
2.01101
1.99696
1.9772
1.96093
1.95517
1.95307
1.95252
1.95319
1.95156
1.94667
1.93706
1.91516
1.88577
1.87548
1.86914
2.17509
2.09576
2.01276
1.93614
1.86457
1.79525
1.72717
1.6764
1.62867
1.58127
1.54268
1.51015
1.47626
1.44245
1.41633
1.40439
1.3923
1.39124
1.39395
1.39845
1.40749
1.42328
1.44044
1.45341
1.46663
1.47542
1.48139
1.48536
1.49053
1.4901
1.4939
1.5355
1.68756
1.90136
1.99186
1.99099
1.98363
1.96973
1.95451
1.96491
2.04395
2.17167
2.25813
2.2887
2.29855
2.28783
2.27099
2.26134
2.25447
2.24948
2.24046
2.22831
2.21441
2.20169
2.1907
2.17953
2.16775
2.15668
2.14826
2.14157
2.13496
2.12659
2.11426
2.09696
2.07848
2.06479
2.05577
2.04821
2.04206
2.03772
2.03333
2.02553
2.01185
1.99975
1.99452
1.98987
1.98302
1.97412
1.96417
1.9541
1.94299
1.93194
1.92645
1.92404
1.92307
1.92185
1.91626
1.90555
1.88736
1.86553
1.85235
1.8425
2.17545
2.10714
2.03731
1.97274
1.90665
1.83769
1.78179
1.72962
1.68088
1.63193
1.59543
1.56277
1.52478
1.49181
1.46162
1.4406
1.41917
1.40266
1.40116
1.39896
1.39437
1.39598
1.40267
1.41223
1.42412
1.44016
1.45387
1.46269
1.47007
1.47639
1.51758
1.70464
1.88521
1.98658
1.98584
1.97976
1.97181
1.96144
1.9498
1.93901
1.93966
1.98201
2.09141
2.20258
2.26264
2.26792
2.25454
2.24519
2.23968
2.23348
2.22414
2.21146
2.19587
2.18478
2.17518
2.16556
2.1547
2.14296
2.13174
2.12362
2.1166
2.10776
2.09659
2.08294
2.06627
2.04788
2.03467
2.02794
2.0244
2.02135
2.01621
2.00985
2.00036
1.98485
1.96866
1.95801
1.95062
1.94481
1.94044
1.9362
1.93175
1.92483
1.91347
1.90258
1.8956
1.88803
1.87945
1.87009
1.86065
1.85056
1.84055
1.8268
2.17257
2.11274
2.0546
1.99708
1.93577
1.8742
1.82471
1.77358
1.72395
1.6764
1.64384
1.6069
1.57003
1.53311
1.50796
1.48113
1.4541
1.42847
1.41613
1.40599
1.39375
1.39169
1.39087
1.39115
1.39307
1.39905
1.41135
1.42473
1.44302
1.48045
1.67818
1.89334
1.97077
1.98948
1.98497
1.97533
1.96529
1.95369
1.94344
1.93086
1.9171
1.90178
1.92178
2.00828
2.12781
2.20915
2.22469
2.22791
2.22251
2.2145
2.20386
2.1901
2.1746
2.16518
2.15701
2.15024
2.14165
2.13101
2.1173
2.10119
2.08838
2.08087
2.07416
2.06633
2.05663
2.04395
2.02794
2.01319
2.00393
1.99804
1.9941
1.99129
1.98513
1.97384
1.95499
1.93829
1.93142
1.92738
1.92463
1.92334
1.91956
1.91362
1.90394
1.88718
1.87038
1.85996
1.8518
1.84419
1.83954
1.83553
1.83144
1.82093
2.16868
2.11601
2.06577
2.01413
1.95613
1.90373
1.85699
1.80981
1.75898
1.71772
1.68302
1.64513
1.60889
1.57493
1.55007
1.52166
1.49299
1.46656
1.45018
1.43379
1.4153
1.40109
1.39617
1.39042
1.38452
1.38135
1.38307
1.39044
1.42157
1.59827
1.86829
1.9462
1.96078
1.95779
1.95092
1.95217
1.94917
1.93878
1.92881
1.91776
1.90021
1.88072
1.86169
1.86743
1.91985
2.0332
2.14307
2.18055
2.19444
2.19061
2.17968
2.16271
2.1462
2.13787
2.13128
2.12795
2.12244
2.11375
2.10118
2.08052
2.06248
2.05468
2.04912
2.04412
2.04019
2.03307
2.02232
2.00459
1.98689
1.97785
1.97243
1.96705
1.96217
1.9567
1.94693
1.93187
1.91983
1.91479
1.91113
1.90881
1.90672
1.90077
1.89148
1.87458
1.85235
1.83796
1.83137
1.82768
1.82486
1.82351
1.82165
1.81312
2.16068
2.11437
2.07002
2.02273
1.97016
1.9258
1.88227
1.83702
1.78725
1.75212
1.71587
1.68
1.64109
1.61177
1.58553
1.55642
1.52865
1.50361
1.48468
1.46278
1.43875
1.41907
1.40564
1.39384
1.3824
1.37656
1.37799
1.40468
1.54967
1.81177
1.9073
1.91738
1.9133
1.9033
1.90497
1.90791
1.91002
1.90825
1.90207
1.89443
1.87988
1.86149
1.84098
1.82943
1.82381
1.85154
1.95111
2.06499
2.12957
2.14941
2.14725
2.13248
2.11477
2.10588
2.10046
2.09988
2.09727
2.08991
2.08067
2.0637
2.03895
2.02673
2.02252
2.01987
2.01905
2.01485
2.00751
1.9962
1.97798
1.95977
1.94995
1.94405
1.93909
1.93473
1.93068
1.92441
1.91332
1.90127
1.89465
1.88982
1.88423
1.87837
1.87145
1.85957
1.84019
1.82374
1.81792
1.81485
1.81333
1.81514
1.81405
1.80561
2.15154
2.11124
2.07158
2.02828
1.98221
1.94252
1.90204
1.85695
1.81374
1.78093
1.74408
1.70778
1.6695
1.64483
1.61645
1.58835
1.55835
1.53683
1.51718
1.49327
1.47044
1.44852
1.43306
1.41587
1.39793
1.39103
1.41024
1.5407
1.75967
1.89281
1.89521
1.88851
1.87004
1.85064
1.85105
1.85564
1.85974
1.86345
1.86282
1.8621
1.85576
1.84391
1.82618
1.80613
1.79484
1.78611
1.80004
1.86637
1.9716
2.06105
2.08936
2.09762
2.08612
2.07218
2.06758
2.06694
2.06649
2.06114
2.05452
2.044
2.02457
2.00376
1.99602
1.99295
1.9902
1.98819
1.9839
1.97745
1.96683
1.94828
1.92971
1.92085
1.91614
1.91276
1.91014
1.90678
1.90082
1.88962
1.87614
1.8671
1.8604
1.8538
1.84647
1.83812
1.82872
1.81863
1.80829
1.8036
1.80163
1.79929
1.7963
1.7875
2.14038
2.1056
2.0703
2.03047
1.99019
1.954
1.91706
1.87233
1.83598
1.80258
1.76757
1.72924
1.69684
1.67255
1.64284
1.61512
1.58537
1.56681
1.54485
1.52118
1.4965
1.47683
1.45987
1.43977
1.41996
1.42882
1.55591
1.76875
1.88834
1.88991
1.87788
1.86217
1.85051
1.83873
1.81873
1.80592
1.80549
1.80594
1.8091
1.81538
1.81728
1.81391
1.80338
1.78766
1.77164
1.76026
1.75263
1.75639
1.78707
1.87142
1.96662
2.02682
2.04802
2.04231
2.03623
2.03173
2.03102
2.02932
2.02488
2.01888
2.00854
1.99084
1.97258
1.96476
1.96135
1.95821
1.95549
1.95137
1.94557
1.93494
1.91661
1.9007
1.89384
1.88985
1.8866
1.8835
1.87969
1.87257
1.85876
1.84414
1.83527
1.82831
1.82155
1.81683
1.81401
1.80986
1.80201
1.79174
1.78481
1.77982
1.77522
1.76527
2.12891
2.09781
2.06593
2.03183
1.99529
1.96049
1.92563
1.88445
1.85219
1.82081
1.78821
1.74701
1.7214
1.69517
1.66675
1.63699
1.61137
1.5932
1.56901
1.54622
1.52166
1.50328
1.48351
1.46309
1.47404
1.59004
1.80962
1.91032
1.90402
1.88514
1.86708
1.85377
1.84195
1.82959
1.81424
1.79066
1.77343
1.76342
1.75902
1.7595
1.76152
1.76589
1.76573
1.75959
1.74382
1.72967
1.72059
1.71455
1.71488
1.72907
1.7823
1.87144
1.95645
1.99624
2.00005
1.99815
1.99619
1.99595
1.99404
1.9897
1.98432
1.97517
1.95865
1.941
1.93306
1.92919
1.92579
1.92244
1.9187
1.91299
1.90146
1.88517
1.87282
1.86623
1.86213
1.85888
1.85555
1.8505
1.83964
1.82202
1.80978
1.80428
1.8011
1.79931
1.79796
1.79556
1.79049
1.779
1.76455
1.75521
1.74988
1.74101
2.1195
2.0911
2.06129
2.03046
1.99706
1.9639
1.93158
1.89632
1.86284
1.83555
1.80237
1.76453
1.74083
1.71511
1.68827
1.65444
1.63482
1.6144
1.59053
1.56682
1.54325
1.52456
1.50432
1.51581
1.6426
1.86719
1.95511
1.93967
1.90949
1.88301
1.86919
1.85848
1.8444
1.82771
1.81047
1.78634
1.75896
1.744
1.73274
1.72327
1.71904
1.71885
1.71503
1.7134
1.70752
1.69342
1.6827
1.67757
1.67319
1.67276
1.68097
1.71165
1.78223
1.8678
1.93257
1.95443
1.95502
1.95837
1.96149
1.95893
1.9557
1.95116
1.94194
1.92653
1.91148
1.90354
1.89865
1.89438
1.89027
1.88557
1.87861
1.86764
1.85467
1.84454
1.83858
1.83474
1.83125
1.82676
1.81851
1.80289
1.78774
1.78279
1.78066
1.77986
1.77872
1.77682
1.77343
1.76357
1.74519
1.73073
1.72469
1.71686
2.10449
2.07999
2.05358
2.02506
1.99487
1.9659
1.93529
1.9024
1.87146
1.84589
1.81476
1.7807
1.75538
1.73197
1.70375
1.67266
1.65437
1.63243
1.61006
1.58421
1.56171
1.54209
1.55418
1.68046
1.91493
2.01283
1.99262
1.94933
1.91565
1.89222
1.87786
1.86362
1.84605
1.82741
1.80922
1.78764
1.75774
1.73184
1.71564
1.7043
1.6954
1.68858
1.68625
1.67944
1.66854
1.65199
1.63714
1.63122
1.62917
1.6274
1.62761
1.63169
1.65024
1.69469
1.76586
1.84702
1.89783
1.90726
1.91802
1.92903
1.92762
1.92382
1.91742
1.90667
1.89445
1.88281
1.87511
1.86958
1.86424
1.85874
1.8528
1.84508
1.83456
1.82367
1.81599
1.81125
1.80732
1.80276
1.79624
1.78634
1.77477
1.76461
1.75832
1.75596
1.75555
1.75558
1.753
1.7451
1.72881
1.7093
1.70122
1.69547
2.08564
2.06527
2.04264
2.01765
1.99232
1.96569
1.93733
1.90723
1.88052
1.85384
1.82387
1.79326
1.76988
1.74676
1.71671
1.68842
1.66992
1.64903
1.627
1.60013
1.57744
1.5906
1.72021
1.93743
2.04476
2.03477
2.00104
1.96334
1.92694
1.9008
1.88395
1.86737
1.84944
1.83133
1.81359
1.79401
1.76674
1.73144
1.70836
1.69359
1.6802
1.66897
1.66045
1.6536
1.64755
1.63835
1.61758
1.59316
1.58118
1.57921
1.57948
1.5791
1.58071
1.58951
1.61235
1.66271
1.74433
1.81359
1.86388
1.87684
1.88757
1.8943
1.88903
1.88171
1.87324
1.86128
1.8512
1.84504
1.83969
1.83449
1.82902
1.82223
1.81286
1.80153
1.79228
1.78675
1.78266
1.77829
1.77314
1.76738
1.75984
1.74894
1.7388
1.7329
1.72839
1.72378
1.72005
1.71608
1.70891
1.69577
1.6858
1.67895
2.0758
2.0546
2.03329
2.01054
1.98789
1.96375
1.93718
1.91064
1.88553
1.85918
1.83128
1.80434
1.78124
1.75705
1.72841
1.70394
1.68407
1.66371
1.63914
1.6145
1.63072
1.77506
1.97442
2.07011
2.06711
2.04089
2.01024
1.98057
1.94558
1.91077
1.88812
1.86953
1.85089
1.83245
1.8141
1.79522
1.77418
1.74701
1.71471
1.69032
1.67331
1.65851
1.64569
1.63416
1.62444
1.61599
1.60606
1.58871
1.56239
1.54392
1.53689
1.53429
1.53206
1.53048
1.53225
1.54143
1.57005
1.63053
1.72237
1.792
1.82439
1.84644
1.85994
1.85982
1.85133
1.83807
1.82693
1.81946
1.8145
1.81071
1.80686
1.80193
1.79402
1.78141
1.76846
1.76189
1.75818
1.75423
1.74968
1.74498
1.73973
1.73226
1.72132
1.71063
1.70269
1.69668
1.69161
1.6869
1.68317
1.67897
1.67552
1.66797
2.061
2.04201
2.02126
2.00149
1.9805
1.95793
1.93356
1.9107
1.88626
1.86163
1.83473
1.81305
1.7895
1.76545
1.73849
1.71654
1.69608
1.67463
1.65115
1.67164
1.83897
2.04453
2.1012
2.08862
2.05928
2.03322
2.01134
1.98833
1.96154
1.92714
1.89436
1.87127
1.85124
1.83195
1.81279
1.79365
1.77446
1.75346
1.72736
1.697
1.67203
1.65277
1.63581
1.6208
1.60727
1.59547
1.58523
1.57393
1.55835
1.53568
1.51789
1.50663
1.49782
1.49225
1.48866
1.48686
1.4845
1.49339
1.5302
1.61397
1.6933
1.76231
1.80574
1.81408
1.81949
1.81571
1.80691
1.79703
1.79036
1.78771
1.78465
1.78006
1.77319
1.76381
1.75165
1.73908
1.7311
1.72756
1.7253
1.72337
1.72075
1.71444
1.70283
1.69058
1.68131
1.67431
1.66849
1.66389
1.66079
1.65927
1.65846
1.65345
2.03868
2.02744
2.00692
1.98895
1.97024
1.94932
1.92932
1.90825
1.88574
1.86115
1.83916
1.81893
1.79541
1.77192
1.74734
1.72656
1.70606
1.6855
1.71229
1.89093
2.11106
2.15243
2.12273
2.08509
2.05419
2.03146
2.01196
1.99066
1.96742
1.93915
1.90545
1.87452
1.84998
1.82898
1.80959
1.79082
1.77202
1.75251
1.73099
1.70625
1.6786
1.65172
1.62929
1.61071
1.5944
1.5796
1.56723
1.55747
1.54724
1.53174
1.51143
1.49313
1.48004
1.47071
1.46378
1.45732
1.45216
1.44794
1.44419
1.4578
1.50139
1.58217
1.68089
1.73535
1.7761
1.79041
1.78902
1.77935
1.77198
1.76649
1.7594
1.75479
1.75179
1.74615
1.7349
1.71879
1.71032
1.70716
1.70417
1.69999
1.69412
1.68804
1.68245
1.67282
1.66289
1.65703
1.65375
1.65087
1.64631
1.64086
1.64014
1.63834
1.93119
2.01351
1.99588
1.97621
1.95792
1.93993
1.9224
1.90329
1.88323
1.86013
1.84102
1.81925
1.79906
1.77594
1.75372
1.73417
1.71756
1.75269
1.93974
2.15916
2.18241
2.15338
2.11544
2.08304
2.05697
2.03494
2.01312
1.99
1.96569
1.93942
1.91038
1.87999
1.85091
1.82552
1.8031
1.78219
1.76226
1.74349
1.72536
1.70611
1.68346
1.65793
1.63244
1.60936
1.58924
1.57154
1.55662
1.54371
1.5319
1.51958
1.50435
1.48649
1.47013
1.45743
1.44849
1.44101
1.43462
1.42785
1.4218
1.41346
1.40843
1.42082
1.47806
1.56825
1.65543
1.7307
1.75295
1.75737
1.75593
1.74953
1.74136
1.73397
1.72549
1.7158
1.70523
1.69806
1.69309
1.68963
1.6859
1.68075
1.67493
1.66894
1.65964
1.64751
1.63928
1.63726
1.63591
1.63466
1.63272
1.62874
1.6203
1.61035
1.64724
1.93684
1.98884
1.9707
1.94585
1.92916
1.9132
1.89637
1.87634
1.85822
1.83939
1.81904
1.79957
1.77536
1.75727
1.7464
1.79559
2.00216
2.18417
2.21686
2.18827
2.14921
2.11808
2.08875
2.05961
2.03404
2.00841
1.98242
1.95714
1.93266
1.90799
1.88152
1.85251
1.82328
1.79701
1.77365
1.75189
1.73151
1.71272
1.69493
1.67678
1.65652
1.63366
1.61069
1.58971
1.57087
1.55376
1.53832
1.52446
1.51125
1.49796
1.4822
1.46487
1.44995
1.43895
1.42963
1.42212
1.41616
1.41026
1.40254
1.3925
1.37875
1.37801
1.39916
1.46043
1.5645
1.65346
1.7019
1.72383
1.73148
1.73073
1.72392
1.71253
1.7012
1.68696
1.67903
1.67798
1.67613
1.67283
1.66776
1.66218
1.65495
1.64175
1.62987
1.62848
1.62686
1.62461
1.62259
1.62044
1.61577
1.60543
1.59098
1.18907
1.71833
1.9344
1.96135
1.94088
1.92075
1.90398
1.88708
1.86939
1.85338
1.83436
1.81825
1.79564
1.77537
1.77298
1.84309
2.06619
2.23552
2.22991
2.20031
2.17242
2.14633
2.12
2.09052
2.05691
2.02325
1.9945
1.96878
1.94449
1.92121
1.8979
1.87304
1.84573
1.81657
1.78874
1.76441
1.74292
1.72289
1.70352
1.68473
1.66668
1.64867
1.62922
1.60856
1.58883
1.57076
1.55357
1.53781
1.52404
1.51106
1.49743
1.48219
1.46579
1.44881
1.43344
1.42158
1.41495
1.40925
1.40291
1.39611
1.38624
1.37428
1.36315
1.35343
1.35614
1.38532
1.46047
1.55641
1.62552
1.67686
1.7052
1.70889
1.70784
1.69898
1.68428
1.67104
1.65905
1.65306
1.65221
1.65268
1.65061
1.64407
1.63057
1.61891
1.60957
1.60389
1.60167
1.60024
1.59913
1.59829
1.59329
1.57764
1.00987
1.28272
1.75758
1.92014
1.93113
1.91578
1.89639
1.87672
1.86272
1.84543
1.83085
1.81148
1.79109
1.79533
1.89556
2.12509
2.27519
2.27158
2.22596
2.18142
2.15313
2.13329
2.10936
2.07998
2.04701
2.01188
1.97936
1.95264
1.92871
1.90575
1.88288
1.85936
1.83442
1.80763
1.78026
1.75525
1.73409
1.71566
1.69809
1.68015
1.66176
1.64342
1.62525
1.60606
1.5864
1.56908
1.55401
1.53924
1.52451
1.51167
1.49979
1.48632
1.46983
1.45263
1.43787
1.42522
1.41563
1.40687
1.39797
1.38991
1.38345
1.37428
1.35955
1.34821
1.3421
1.3374
1.343
1.37551
1.44599
1.54392
1.613
1.6619
1.68647
1.68922
1.68689
1.67514
1.6568
1.64672
1.6403
1.63367
1.62871
1.62436
1.62032
1.6128
1.60036
1.59051
1.58708
1.58546
1.58351
1.58034
1.57732
1.56692
1.0001
1.02391
1.36204
1.77397
1.90451
1.90664
1.88978
1.87002
1.85475
1.83973
1.82475
1.80717
1.8218
1.95764
2.16646
2.28826
2.27908
2.24661
2.20639
2.16536
2.13567
2.11235
2.08825
2.0619
2.03349
2.00215
1.96858
1.93822
1.91211
1.88865
1.86702
1.84643
1.8254
1.80216
1.7763
1.75039
1.72792
1.70935
1.69328
1.67806
1.6614
1.64247
1.62375
1.6066
1.58973
1.5724
1.55606
1.542
1.52933
1.51737
1.50538
1.49342
1.48007
1.46435
1.44922
1.43619
1.4245
1.41363
1.4038
1.39395
1.38352
1.37074
1.35679
1.34669
1.33901
1.33154
1.32657
1.32169
1.32827
1.36416
1.44432
1.54355
1.60744
1.65242
1.66808
1.6657
1.65987
1.65182
1.64056
1.6296
1.62348
1.61851
1.61153
1.60177
1.59273
1.58462
1.57793
1.57303
1.56857
1.56359
1.55962
1.55384
1
1.00036
1.04417
1.42203
1.78518
1.88674
1.8828
1.8656
1.84587
1.83145
1.82206
1.85608
2.03139
2.21799
2.29149
2.28797
2.25192
2.21666
2.18334
2.14814
2.11958
2.09421
2.06942
2.04498
2.01996
1.99216
1.96019
1.92796
1.90083
1.87693
1.85568
1.83737
1.82025
1.80064
1.77629
1.75008
1.72694
1.70778
1.69171
1.67677
1.66249
1.64916
1.63455
1.61597
1.59602
1.57979
1.56685
1.55364
1.53792
1.52185
1.50921
1.49778
1.48554
1.47407
1.46304
1.44801
1.43216
1.42306
1.41666
1.40673
1.39297
1.37686
1.36367
1.353
1.34362
1.3349
1.32611
1.31774
1.31358
1.30827
1.31651
1.35726
1.44864
1.54948
1.621
1.63446
1.64007
1.63706
1.62951
1.62565
1.62345
1.61809
1.61043
1.6017
1.59312
1.58527
1.57668
1.5677
1.5599
1.55338
1.5487
1.54136
1
1
1.00089
1.06882
1.46908
1.78661
1.86853
1.86075
1.8413
1.83533
1.90282
2.09219
2.26963
2.28514
2.27704
2.25636
2.22593
2.19545
2.16773
2.13874
2.1113
2.08775
2.06427
2.0382
2.01087
1.98361
1.95575
1.9259
1.89937
1.87993
1.86304
1.84514
1.82532
1.80371
1.78009
1.75423
1.73123
1.7151
1.70205
1.68824
1.67406
1.65847
1.64149
1.62547
1.61036
1.59545
1.58219
1.57012
1.55586
1.53838
1.52075
1.51111
1.50207
1.48971
1.47421
1.45961
1.44769
1.43535
1.42028
1.40418
1.38825
1.37323
1.36459
1.35984
1.35338
1.34447
1.33419
1.32473
1.31334
1.3046
1.29426
1.29092
1.3073
1.36269
1.46085
1.55498
1.61679
1.61847
1.6111
1.61096
1.60949
1.60539
1.6019
1.59951
1.59541
1.58683
1.57553
1.56646
1.55994
1.55358
1.54699
1.53862
1
1
1
1.00186
1.09449
1.49672
1.79408
1.83804
1.85515
1.9696
2.16307
2.28689
2.32125
2.29912
2.26832
2.2502
2.22895
2.20283
2.17515
2.14544
2.11614
2.08861
2.06264
2.04012
2.01949
1.99792
1.97176
1.94205
1.91517
1.89287
1.8715
1.8516
1.83404
1.81723
1.79744
1.77422
1.75137
1.7305
1.71543
1.7071
1.69653
1.67998
1.66055
1.64391
1.62768
1.60989
1.59286
1.58069
1.57235
1.56014
1.53953
1.51649
1.50088
1.4897
1.47798
1.46636
1.45501
1.44223
1.42814
1.41273
1.39487
1.38029
1.37137
1.36215
1.35068
1.34032
1.33063
1.32137
1.31161
1.30294
1.29302
1.28497
1.28351
1.28491
1.30776
1.37281
1.46664
1.53687
1.58434
1.6063
1.60884
1.60736
1.60236
1.59481
1.5849
1.57288
1.56579
1.56214
1.55957
1.55656
1.54923
1.56062
1
1
1
1.00001
1.00302
1.11963
1.55217
1.71607
2.01545
2.25768
2.32866
2.36875
2.35475
2.32463
2.29514
2.27264
2.25085
2.22354
2.1955
2.1709
2.14636
2.12111
2.0964
2.07106
2.04409
2.01453
1.98686
1.96594
1.94563
1.92225
1.8983
1.87564
1.85254
1.82737
1.80621
1.79285
1.77917
1.76147
1.74336
1.72388
1.70513
1.687
1.66882
1.65354
1.64178
1.62855
1.61361
1.59859
1.58182
1.56398
1.54435
1.52157
1.5047
1.49616
1.48876
1.47969
1.4694
1.45567
1.43775
1.42153
1.40966
1.39605
1.38212
1.36898
1.35613
1.34409
1.33429
1.32505
1.31422
1.30318
1.29496
1.28867
1.28077
1.27519
1.27129
1.27536
1.30175
1.36814
1.45789
1.52438
1.57786
1.60226
1.60189
1.59984
1.59006
1.57332
1.56021
1.5583
1.5589
1.56598
1.58833
1.683
1
1
1
1
1.00002
1.00526
1.144
1.63933
2.38941
2.51623
2.47883
2.46462
2.43987
2.40818
2.37697
2.34856
2.3203
2.28845
2.25534
2.22362
2.19308
2.1647
2.13763
2.10993
2.08029
2.05056
2.02232
1.99433
1.96722
1.94228
1.91902
1.89604
1.87271
1.85097
1.83061
1.80883
1.78818
1.7712
1.75504
1.73759
1.7197
1.703
1.68602
1.66557
1.64351
1.62647
1.61357
1.60104
1.58667
1.57044
1.55249
1.53327
1.51225
1.49378
1.48211
1.47335
1.46488
1.45595
1.44433
1.42933
1.41018
1.38958
1.3726
1.36466
1.36046
1.35427
1.34565
1.33508
1.32286
1.30731
1.28931
1.27941
1.27346
1.26996
1.26587
1.26372
1.26074
1.26601
1.29546
1.3673
1.46278
1.52928
1.56907
1.58663
1.58443
1.57927
1.57695
1.58457
1.61157
1.66363
1.73192
1.82671
1
1
1
1
1
1.00005
1.00769
2.01208
2.73224
2.70772
2.63711
2.59595
2.55563
2.51091
2.46675
2.42754
2.39082
2.35415
2.31468
2.27648
2.24075
2.20727
2.17506
2.14289
2.11075
2.07961
2.04972
2.02066
1.99307
1.96721
1.94237
1.9176
1.89274
1.86813
1.84442
1.82222
1.80249
1.78483
1.76789
1.75096
1.73385
1.71563
1.69519
1.67304
1.65204
1.63501
1.62019
1.60567
1.59121
1.57711
1.56189
1.54172
1.51698
1.49739
1.48513
1.47561
1.46686
1.45819
1.44821
1.43435
1.41397
1.38955
1.37372
1.36538
1.35712
1.34852
1.34086
1.33393
1.32506
1.30925
1.28863
1.27668
1.27066
1.26704
1.26467
1.26245
1.25835
1.25148
1.24424
1.25101
1.2951
1.38687
1.47932
1.52781
1.56117
1.61022
1.66822
1.71562
1.76506
1.80615
1.83709
1.8706
1
1
1
1
1
1
1.0002
2.26136
2.81376
2.78284
2.7417
2.69703
2.64212
2.58592
2.532
2.48316
2.43815
2.3947
2.35168
2.30892
2.26793
2.22943
2.19264
2.15705
2.12278
2.09024
2.05976
2.03149
2.00502
1.97942
1.95355
1.92697
1.9
1.87351
1.84885
1.82698
1.80771
1.79013
1.77335
1.75655
1.73894
1.71999
1.69981
1.6793
1.65932
1.6403
1.62246
1.60586
1.59064
1.57658
1.56281
1.54663
1.5253
1.50249
1.48627
1.47547
1.4664
1.45771
1.44835
1.4367
1.41855
1.39317
1.37474
1.36391
1.35506
1.34706
1.34016
1.33355
1.32543
1.31314
1.29454
1.27809
1.27048
1.26635
1.26225
1.25731
1.25119
1.24159
1.22685
1.21367
1.21718
1.24282
1.32432
1.44593
1.5833
1.70025
1.79065
1.87287
1.92866
1.95828
1.96
1.93691
)
;

boundaryField
{
    inlet
    {
        type            fixedValue;
        value           uniform 1;
    }
    outlet
    {
        type            inletOutlet;
        inletValue      uniform 1;
        value           nonuniform List<scalar> 
32
(
2.01171
2.00437
1.97919
1.94206
1.9048
1.87018
1.84335
1.82691
1.82098
1.81363
1.80592
1.78754
1.76492
1.74086
1.71702
1.69651
1.67992
1.6683
1.65404
1.63902
1.61064
1.5901
1.57559
1.56575
1.55441
1.54165
1.53803
1.55909
1.68147
1.82648
1.87055
1.93744
)
;
    }
    bottom
    {
        type            zeroGradient;
    }
    top
    {
        type            zeroGradient;
    }
    obstacle
    {
        type            zeroGradient;
    }
    defaultFaces
    {
        type            empty;
    }
}


// ************************************************************************* //
