/*--------------------------------*- C++ -*----------------------------------*\
  =========                 |
  \\      /  F ield         | OpenFOAM: The Open Source CFD Toolbox
   \\    /   O peration     | Website:  https://openfoam.org
    \\  /    A nd           | Version:  7
     \\/     M anipulation  |
\*---------------------------------------------------------------------------*/
FoamFile
{
    version     2.0;
    format      ascii;
    class       volScalarField;
    location    "17.5";
    object      rho;
}
// * * * * * * * * * * * * * * * * * * * * * * * * * * * * * * * * * * * * * //

dimensions      [1 -3 0 0 0 0 0];

internalField   nonuniform List<scalar> 
3328
(
225.389
25.0301
5.59178
5.49178
5.47673
6.18602
7.18882
8.10319
8.52745
8.5037
8.46717
8.94356
10.1096
9.08433
6.62804
5.90705
5.81644
5.94692
6.06753
6.1458
6.23226
6.85846
8.4234
10.5769
224.486
24.9766
5.34451
5.30826
5.36705
6.15658
7.2187
8.1513
8.5727
8.53784
8.45759
8.92645
10.03
9.12256
6.74312
6.01571
5.86845
5.99005
6.1123
6.20254
6.3155
6.98639
8.58534
10.7596
223.894
25.0004
5.12758
5.12173
5.22383
6.09414
7.24272
8.20769
8.6159
8.58281
8.47549
8.88074
9.81411
9.11115
6.95258
6.19946
5.96071
6.05881
6.17995
6.28579
6.45802
7.20334
8.86693
10.9736
223.523
25.1264
5.02333
5.03064
5.15719
6.05578
7.24818
8.23279
8.62256
8.60096
8.44901
8.77793
9.52812
9.09695
7.23639
6.38904
6.08137
6.14391
6.2585
6.37411
6.66133
7.50027
9.20786
11.1414
223.572
25.3414
5.10145
5.10158
5.21197
6.08336
7.23542
8.21161
8.58551
8.5552
8.4088
8.67339
9.22066
9.05166
7.51155
6.51819
6.2034
6.2293
6.33015
6.46058
6.88148
7.81275
9.40254
11.0643
223.972
25.5896
5.29235
5.26822
5.32448
6.1092
7.17834
8.10658
8.47738
8.4742
8.41845
8.63901
9.02687
8.97003
7.67885
6.5685
6.28527
6.28223
6.36704
6.50358
7.01451
7.97571
9.37573
10.7748
224.735
25.8829
5.39872
5.34058
5.36281
6.08011
7.06918
8.01145
8.42889
8.46562
8.48834
8.6666
8.96875
8.88293
7.71897
6.52892
6.30475
6.28305
6.35177
6.49527
7.02314
7.90717
9.04055
10.2228
224.944
26.3017
5.33696
5.18202
5.21676
5.95128
6.98487
7.98909
8.4429
8.49756
8.54712
8.73549
8.98982
8.82244
7.68086
6.41451
6.26793
6.22886
6.29931
6.43857
6.90445
7.62354
8.56171
9.71435
224.581
26.9016
5.19395
4.94283
4.9351
5.67354
6.78006
7.88815
8.41302
8.50921
8.55844
8.72929
8.96379
8.77451
7.65645
6.32373
6.16728
6.13636
6.22109
6.37128
6.66228
7.17606
7.6635
8.04365
222.909
27.6193
5.1973
4.78787
4.7413
5.40989
6.50189
7.65837
8.28594
8.44047
8.47987
8.62821
8.84463
8.71769
7.74708
6.33132
6.05436
6.03608
6.12577
6.27188
6.4448
6.74178
7.09742
7.70333
221.842
28.0018
5.56505
4.96582
4.80633
5.31187
6.26057
7.30997
8.00009
8.23919
8.31967
8.43143
8.62117
8.60815
7.91583
6.52073
5.988
5.96306
6.0349
6.17213
6.29612
6.43815
6.58917
7.08415
221.355
28.1628
6.13636
5.48361
5.11452
5.4435
6.11751
6.95865
7.62957
7.96137
8.08898
8.13279
8.32009
8.47253
8.10434
6.93761
6.011
5.94739
5.96999
6.08853
6.20756
6.30271
6.30837
6.6085
221.577
28.1182
6.52319
5.98315
5.48594
5.6072
6.01361
6.65466
7.27563
7.67391
7.82318
7.87584
8.03486
8.29207
8.28981
7.45909
6.20323
5.97686
5.93651
6.02158
6.15133
6.23293
6.243
6.34074
221.406
28.1377
6.75358
6.30917
5.69601
5.72879
5.93236
6.43522
7.01699
7.44809
7.64081
7.73784
7.81288
8.13541
8.42938
7.9346
6.58977
6.01383
5.90902
5.96349
6.08804
6.16432
6.18492
6.20263
221.34
28.265
6.89046
6.46152
5.73622
5.70596
5.83719
6.28916
6.86157
7.34065
7.58715
7.67025
7.7618
8.04029
8.47481
8.34696
7.05113
6.06218
5.87176
5.89644
6.00922
6.08967
6.1282
6.10482
221.427
28.5052
6.93345
6.47138
5.64896
5.57113
5.71625
6.19256
6.79469
7.32761
7.64022
7.75641
7.84597
8.00194
8.38196
8.57757
7.42457
6.11815
5.8594
5.8283
5.92805
6.02103
6.06332
6.04489
221.386
28.7664
6.90704
6.38633
5.47227
5.36494
5.55005
6.09228
6.77158
7.38745
7.77763
7.94299
7.9989
7.9791
8.1369
8.46746
7.58649
6.16746
5.89417
5.79417
5.8776
5.96919
6.00884
6.01747
221.136
28.949
6.78665
6.19345
5.23716
5.13053
5.35571
5.98664
6.76958
7.4725
7.93215
8.10353
8.06993
7.94761
7.83106
8.0142
7.48087
6.18101
5.93777
5.80635
5.86606
5.9548
6.00354
6.04902
220.704
29.0046
6.61889
5.9781
5.00331
4.92373
5.1835
5.88765
6.75569
7.52589
8.00874
8.11743
8.01902
7.83483
7.59533
7.43816
7.05309
6.13277
5.9032
5.85015
5.90853
6.00488
6.07144
6.1426
219.903
28.9309
6.42762
5.75103
4.81589
4.78735
5.07724
5.81005
6.71387
7.52794
8.01058
8.06134
7.90978
7.70232
7.42943
7.10423
6.54132
5.94279
5.80729
5.90992
5.99166
6.11029
6.20266
6.28658
218.897
28.784
6.24379
5.55095
4.70194
4.713
5.01658
5.74893
6.66724
7.52217
7.99328
7.98474
7.80291
7.6016
7.33915
6.98955
6.33759
5.62193
5.62835
5.91415
6.03982
6.2081
6.35025
6.45154
217.761
28.6476
6.10953
5.3912
4.61937
4.64666
4.97046
5.71368
6.65249
7.52344
7.95174
7.94138
7.75729
7.56306
7.33514
7.01351
6.38472
5.52295
5.40019
5.75534
6.05193
6.23035
6.40901
6.54648
216.668
28.5892
6.05149
5.27728
4.55614
4.59452
4.94701
5.70195
6.65551
7.53046
7.93815
7.93892
7.79649
7.61407
7.41935
7.142
6.59449
5.65889
5.29755
5.54617
5.94562
6.17843
6.37187
6.53943
215.708
28.615
6.05556
5.20827
4.50814
4.5507
4.93244
5.70986
6.69259
7.57209
7.96982
7.98969
7.89281
7.73434
7.54695
7.2919
6.81644
5.91644
5.3803
5.45453
5.76182
6.07732
6.27373
6.43643
214.687
28.638
6.10801
5.18256
4.45886
4.51365
4.91831
5.73455
6.76126
7.70076
8.08469
8.14083
8.02747
7.85927
7.63036
7.36204
6.90107
6.08049
5.51173
5.49071
5.66932
5.96329
6.18695
6.3244
213.669
28.5892
6.27162
5.27236
4.465
4.51343
4.93108
5.76624
6.82195
7.81595
8.23517
8.29584
8.19218
7.95375
7.66306
7.34262
6.8627
6.08127
5.58279
5.51022
5.64488
5.90458
6.17439
6.29621
212.829
28.4792
6.48256
5.4899
4.57526
4.59625
4.97511
5.78581
6.81984
7.80418
8.27753
8.33766
8.27471
8.04372
7.70923
7.29702
6.71468
5.93716
5.54835
5.49708
5.62414
5.88346
6.19305
6.41261
212.213
28.3787
6.66856
5.74008
4.77629
4.75506
5.05554
5.791
6.741
7.70358
8.25104
8.31748
8.29365
8.13643
7.81618
7.34941
6.58493
5.72834
5.44235
5.42068
5.55892
5.82352
6.1519
6.47452
211.864
28.3477
6.84941
5.99307
5.00666
4.93186
5.15414
5.78728
6.61868
7.50662
8.12537
8.26228
8.26629
8.19553
7.96717
7.47698
6.50699
5.55191
5.31692
5.31447
5.46451
5.73596
6.07362
6.40462
211.961
28.3885
7.02937
6.24032
5.22923
5.09488
5.24145
5.77769
6.50141
7.30014
7.95937
8.18998
8.22535
8.20918
8.07292
7.62588
6.46342
5.40387
5.20577
5.21432
5.36544
5.63136
5.9516
6.28466
212.353
28.4682
7.17003
6.44211
5.41101
5.2285
5.31546
5.7783
6.40944
7.13856
7.78428
8.10952
8.20741
8.2135
8.11835
7.70097
6.39952
5.24863
5.07457
5.09483
5.26148
5.52048
5.82721
6.16185
212.628
28.4893
7.23818
6.54641
5.516
5.31435
5.36522
5.78975
6.38717
7.01584
7.62345
8.03417
8.20558
8.22884
8.15527
7.71861
6.27593
5.0921
4.94327
4.98633
5.17969
5.44314
5.73335
6.04577
212.504
28.3699
7.20328
6.52029
5.53663
5.3474
5.38597
5.79594
6.37772
6.97974
7.53966
8.00168
8.22942
8.26669
8.20581
7.72245
6.1397
4.99073
4.85612
4.93049
5.14756
5.42096
5.68998
5.96871
211.987
27.9566
7.02733
6.38212
5.49777
5.34885
5.41034
5.83708
6.43085
7.01828
7.55395
8.00142
8.23405
8.29219
8.23135
7.67047
5.99424
4.94405
4.82183
4.91811
5.15122
5.42086
5.679
5.93774
211.282
27.3969
6.7722
6.14294
5.42357
5.33209
5.45503
5.92998
6.55442
7.13322
7.61737
8.01311
8.21797
8.26221
8.17478
7.51533
5.79781
4.92364
4.83287
4.93509
5.17184
5.44706
5.71441
5.98787
210.908
26.6714
6.41496
5.82678
5.30697
5.305
5.54015
6.09622
6.7478
7.29865
7.70207
7.99327
8.1261
8.1345
8.01312
7.24619
5.5853
4.93671
4.87567
4.99279
5.23146
5.51132
5.79986
6.09647
211.743
25.7655
5.87161
5.40327
5.12808
5.28005
5.72774
6.38515
7.03177
7.50029
7.76957
7.92911
7.99689
7.93952
7.74583
6.84534
5.35968
4.97115
4.95209
5.09236
5.3468
5.63907
5.93598
6.22465
213.616
24.556
4.98242
4.78583
4.83335
5.33419
6.0839
6.84315
7.42221
7.71976
7.82653
7.86611
7.83758
7.69846
7.39158
6.34749
5.17258
5.0007
5.03599
5.22132
5.50148
5.80078
6.08109
6.33064
216.9
22.5562
3.89009
4.0826
4.53761
5.5272
6.60591
7.41559
7.81438
7.92698
7.92761
7.86472
7.71065
7.47917
7.00141
5.86071
5.05533
5.02774
5.12654
5.35991
5.65928
5.95203
6.20169
6.3987
221.024
21.5329
3.1857
3.69162
4.44934
5.78345
7.13569
7.87199
8.0532
8.08722
8.035
7.88607
7.61246
7.2768
6.65744
5.57544
5.02151
5.04355
5.18694
5.45367
5.76887
6.06415
6.3019
6.46291
7.31793
8.90608
8.8835
7.82168
6.37706
5.41931
5.14248
5.19821
7.96227
9.21724
9.04293
7.99487
6.58456
5.46457
5.10995
5.1048
7.72808
8.92994
8.91231
8.10549
6.92404
5.60338
5.12114
4.98014
7.31777
8.58801
8.84841
8.28958
7.26102
5.90477
5.13716
4.87661
6.88919
8.20364
8.71814
8.40266
7.44199
6.30053
5.19437
4.81953
6.60758
7.73343
8.55827
8.4751
7.64429
6.70601
5.38145
4.72968
6.42717
7.29111
8.33434
8.38761
7.77229
6.98636
5.56712
4.60919
6.24379
6.96403
7.98628
8.28685
7.84071
7.15705
5.71685
4.4595
6.15302
6.76195
7.66422
8.13424
7.84536
7.22861
5.69749
3.6602
6.16066
6.6661
7.46628
8.04567
7.83901
7.1541
5.70742
3.74235
6.24084
6.64838
7.37214
8.03261
7.91377
7.16532
5.82682
3.97156
6.38811
6.68556
7.29813
7.9932
8.03758
7.3588
6.13914
4.37598
6.57074
6.75519
7.15414
7.77625
8.07407
7.62719
6.64613
5.04117
6.6621
6.77697
6.99545
7.40687
7.82345
7.69836
7.06064
5.8898
6.659
6.74745
6.82286
7.00196
7.3364
7.48117
7.15869
6.4401
6.5751
6.65919
6.66853
6.6693
6.81584
7.03942
7.00397
6.56875
6.43035
6.49526
6.49137
6.44421
6.43653
6.56452
6.65799
6.47114
6.32047
6.32545
6.32067
6.27152
6.21254
6.23346
6.32925
6.28045
6.42407
6.32046
6.20496
6.14126
6.09629
6.0752
6.12303
6.12607
6.65387
6.58142
6.36871
6.17443
6.04416
6.01063
6.01825
6.00986
6.67602
6.81008
6.71883
6.46392
6.21814
6.07028
5.99417
5.90766
6.61474
6.86721
6.94159
6.80784
6.56924
6.3043
6.06836
5.88718
6.5044
6.80629
6.9827
7.00911
6.90626
6.68953
6.35831
6.00537
6.37638
6.70088
6.97162
7.14991
7.17858
7.02674
6.76078
6.32033
6.27194
6.61653
6.99298
7.30646
7.44374
7.34911
7.13137
6.71569
6.23056
6.5826
6.9633
7.32518
7.56029
7.54158
7.34353
6.94159
6.28761
6.60687
6.94973
7.28711
7.54227
7.55796
7.38877
6.98774
6.39244
6.66445
6.92357
7.19097
7.40496
7.37814
7.21297
6.82743
6.48439
6.69415
6.85995
7.01848
7.14117
7.07346
6.91102
6.60766
6.53422
6.67368
6.74612
6.80567
6.88523
6.87305
6.74353
6.54157
6.53062
6.59679
6.6133
6.65031
6.75086
6.81901
6.70847
6.51853
6.54025
6.55094
6.55982
6.6038
6.70205
6.7837
6.70404
6.54172
1.12163
0.483562
0.545964
0.712725
0.948
1.19668
1.44707
1.76276
2.221
2.76636
3.15632
3.50647
3.8261
4.23264
4.54104
4.86815
5.19733
5.38766
5.32274
5.04508
4.20592
3.3175
3.10943
3.09184
3.10679
3.17443
3.28691
3.41085
3.5121
3.57351
3.59868
3.60341
3.61026
3.62849
3.65493
3.67819
3.69064
3.69985
3.72575
3.78822
3.86456
3.86121
3.81469
3.73491
3.46694
2.914
2.6021
2.54041
2.50239
2.47555
2.50078
2.63424
2.96808
3.48027
4.09334
4.2543
4.20399
4.15791
4.13136
4.10187
4.06841
4.0329
3.98913
3.93504
3.88169
3.84107
3.80394
3.76626
3.72803
3.69038
3.65259
3.60743
3.53532
3.43937
3.38015
3.35383
3.33242
3.31249
3.2929
3.27291
3.25218
3.22806
3.1933
3.14914
3.11166
3.09024
3.06489
3.08978
1.92923
1.29265
1.20533
1.22129
1.25986
1.31637
1.42255
1.59829
1.89697
2.37593
2.90389
3.37273
3.81077
4.24015
4.54729
4.88978
5.25533
5.43711
5.41204
5.24485
4.56783
3.50608
3.14605
3.11804
3.12679
3.18636
3.28865
3.40071
3.49174
3.55199
3.58998
3.61632
3.63433
3.65167
3.67426
3.69788
3.71425
3.72426
3.74348
3.79335
3.85697
3.86179
3.81578
3.73124
3.4917
2.97748
2.62611
2.55171
2.51751
2.49996
2.5478
2.72538
3.04665
3.42999
3.94674
4.1849
4.16069
4.10775
4.07091
4.03744
4.00314
3.96599
3.92095
3.88723
3.86359
3.8414
3.81678
3.78507
3.74824
3.70635
3.65956
3.60489
3.53428
3.4556
3.40721
3.38272
3.36134
3.3384
3.31459
3.29093
3.26661
3.23932
3.20466
3.16551
3.13253
3.11097
3.09061
3.12828
2.56415
1.98865
1.70264
1.612
1.55099
1.55487
1.59885
1.70732
1.89416
2.20329
2.65885
3.19102
3.83197
4.3443
4.69887
5.09702
5.38287
5.4931
5.50724
5.41674
5.04052
4.07225
3.32386
3.21198
3.2035
3.24064
3.31745
3.40346
3.47789
3.53974
3.59426
3.64208
3.68007
3.70812
3.72805
3.74202
3.7542
3.77506
3.81313
3.85786
3.88131
3.86773
3.82446
3.7498
3.54071
3.04677
2.66797
2.58834
2.56585
2.57446
2.68665
2.89467
3.12779
3.35287
3.75222
4.09379
4.14796
4.10357
4.04631
3.99169
3.94453
3.90825
3.88567
3.87178
3.86497
3.86053
3.84573
3.82145
3.79217
3.75262
3.69802
3.62604
3.53959
3.46376
3.42999
3.41084
3.39432
3.37523
3.35124
3.32308
3.29039
3.25065
3.20578
3.17219
3.15175
3.13906
3.13242
3.19583
3.04289
2.51226
2.1914
2.05752
1.96366
1.94041
1.93096
1.95825
2.01211
2.12034
2.32483
2.72808
3.35999
4.07525
4.66583
5.26179
5.50225
5.56821
5.56394
5.47466
5.2882
4.78158
3.85906
3.39695
3.33525
3.3288
3.36606
3.42317
3.47964
3.53128
3.58392
3.64003
3.69556
3.74054
3.76714
3.77606
3.78078
3.8122
3.88398
3.92935
3.91384
3.88346
3.84439
3.7787
3.59689
3.13683
2.72785
2.65303
2.65524
2.71809
2.89869
3.09144
3.21504
3.32822
3.54868
3.91392
4.09697
4.08966
4.0347
3.966
3.9102
3.88145
3.86748
3.86816
3.88321
3.89903
3.89116
3.87117
3.8495
3.81973
3.77347
3.7038
3.60584
3.51271
3.47488
3.4564
3.44186
3.42845
3.4094
3.38499
3.35012
3.30154
3.25133
3.2135
3.19352
3.18525
3.19085
3.29042
3.58974
2.94003
2.59866
2.44347
2.32992
2.25944
2.20737
2.20376
2.22588
2.2625
2.34796
2.50181
2.76121
3.34599
4.24076
5.0073
5.33988
5.46224
5.49214
5.43593
5.31063
5.09341
4.56743
3.81654
3.52031
3.45783
3.43644
3.45744
3.50462
3.55739
3.61183
3.66725
3.72257
3.76705
3.78826
3.79108
3.7978
3.84565
3.95038
3.97306
3.93477
3.89705
3.85355
3.78628
3.63212
3.23751
2.8141
2.7403
2.78675
2.93708
3.12493
3.24883
3.30247
3.33829
3.42497
3.66943
3.95348
4.05873
4.0283
3.96434
3.90923
3.88351
3.87154
3.87527
3.89577
3.92267
3.92291
3.90412
3.88475
3.86015
3.82328
3.76396
3.66994
3.5695
3.5264
3.5085
3.49501
3.4844
3.46819
3.44528
3.40614
3.35278
3.30394
3.26482
3.24788
3.24857
3.27892
3.41516
4.34499
3.37938
2.98881
2.75972
2.64037
2.56469
2.52669
2.52492
2.52348
2.53722
2.55185
2.59057
2.6922
2.84091
3.39096
4.32416
5.01289
5.23823
5.28524
5.24648
5.19199
5.12058
4.89885
4.36095
3.84074
3.64456
3.55792
3.5233
3.52479
3.54833
3.57683
3.61266
3.65394
3.69132
3.71098
3.71865
3.74387
3.83417
3.9588
3.98202
3.94406
3.9039
3.85496
3.78078
3.64112
3.32539
2.93045
2.87349
2.99628
3.19775
3.29934
3.34831
3.36362
3.36664
3.40078
3.5008
3.74015
3.96088
4.01245
3.97725
3.92835
3.89872
3.88401
3.88387
3.89996
3.92567
3.93847
3.92632
3.90954
3.88964
3.8607
3.81199
3.72773
3.62685
3.57666
3.55777
3.54341
3.53165
3.51368
3.48574
3.43809
3.38729
3.34642
3.32094
3.31999
3.34273
3.41329
3.55695
5.29704
4.02088
3.41645
3.12186
2.98755
2.87901
2.84983
2.8113
2.78851
2.83789
2.79931
2.76549
2.77175
2.82351
2.90219
3.3762
4.32297
4.92391
5.06483
5.08328
5.04756
5.00779
4.9396
4.62125
4.10014
3.8711
3.75726
3.64249
3.5768
3.54766
3.55109
3.57833
3.60768
3.62454
3.63264
3.6428
3.66916
3.74116
3.87019
3.93181
3.89554
3.85056
3.79913
3.72559
3.6172
3.41086
3.11746
3.11248
3.26693
3.38743
3.40154
3.40659
3.40459
3.40442
3.40817
3.43281
3.54283
3.77556
3.95703
3.98761
3.95767
3.92832
3.90672
3.89716
3.89843
3.91187
3.93312
3.94265
3.93063
3.91468
3.89413
3.85654
3.78726
3.68457
3.61771
3.59537
3.57822
3.55933
3.5316
3.49298
3.45181
3.41786
3.39399
3.39189
3.41437
3.47201
3.57551
3.67907
5.89258
4.88535
3.97664
3.56574
3.37777
3.26416
3.21301
3.13086
3.08215
3.07974
3.07352
3.04178
2.96774
2.89825
2.86406
2.91457
3.38976
4.29258
4.81773
4.96968
4.97531
4.9364
4.86941
4.64945
4.18729
3.95892
3.90199
3.82585
3.70505
3.61841
3.5787
3.57158
3.57853
3.57345
3.56658
3.56953
3.59072
3.63988
3.73052
3.8308
3.8297
3.77893
3.72134
3.65534
3.59678
3.53431
3.419
3.41235
3.47053
3.47413
3.45166
3.44476
3.44995
3.45102
3.43516
3.42905
3.45505
3.58702
3.81428
3.95026
3.97848
3.95431
3.92958
3.91281
3.90784
3.92013
3.95275
3.97446
3.962
3.94321
3.9207
3.87984
3.78376
3.66325
3.6135
3.59561
3.58001
3.5566
3.52321
3.48718
3.46222
3.4458
3.43955
3.45748
3.51124
3.60011
3.70563
3.74352
6.05334
5.43634
4.59288
4.06957
3.83333
3.6724
3.57968
3.47686
3.40125
3.37607
3.30974
3.22615
3.15525
3.06015
2.94085
2.86913
2.92062
3.45653
4.34711
4.85195
4.92898
4.89108
4.81461
4.62165
4.20943
3.95065
3.8888
3.87633
3.85877
3.77468
3.68074
3.61698
3.57652
3.55141
3.5278
3.51546
3.52252
3.54776
3.58821
3.65854
3.71506
3.67871
3.62227
3.5983
3.63101
3.73382
3.75458
3.65667
3.54531
3.50322
3.47689
3.47189
3.49052
3.49977
3.48281
3.46101
3.45309
3.48699
3.63078
3.83836
3.94286
3.95758
3.93916
3.92312
3.92436
3.95298
3.9982
4.01128
3.99167
3.9658
3.92897
3.86185
3.74067
3.61564
3.56522
3.54618
3.53143
3.51775
3.49899
3.47947
3.46106
3.4507
3.46518
3.51544
3.59615
3.68884
3.7546
3.7474
6.02902
5.61078
4.93549
4.39207
4.14424
3.97393
3.87492
3.83806
3.80075
3.68204
3.55882
3.43472
3.30545
3.15759
3.00209
2.89418
2.86712
2.97387
3.62976
4.52103
4.84407
4.84179
4.76538
4.56159
4.14291
3.89477
3.84721
3.83859
3.89741
3.91538
3.84736
3.73707
3.61928
3.55385
3.51617
3.48869
3.47817
3.47704
3.4783
3.49315
3.53864
3.55335
3.54191
3.59563
3.78563
3.95641
3.97876
3.79033
3.58408
3.52873
3.50335
3.49681
3.50891
3.52694
3.53624
3.50566
3.47214
3.45583
3.50273
3.65805
3.85092
3.92314
3.93172
3.92429
3.9369
3.98574
4.02499
4.01772
3.99573
3.9674
3.92225
3.83543
3.68794
3.55604
3.50773
3.48533
3.46521
3.45204
3.44664
3.43747
3.43564
3.45003
3.49088
3.57362
3.65696
3.72729
3.73773
3.72726
5.94948
5.63057
5.06431
4.54029
4.28487
4.11739
4.02903
4.04783
4.09864
4.00952
3.84882
3.66341
3.45259
3.25589
3.08792
2.97893
2.91206
2.91609
3.10558
3.88734
4.60822
4.75738
4.7103
4.50114
4.08788
3.82116
3.77347
3.76365
3.83888
3.94483
3.93926
3.87487
3.76658
3.6228
3.52261
3.4784
3.4492
3.42021
3.3862
3.3542
3.36036
3.41906
3.5223
3.72161
4.0076
4.13405
4.09425
3.84584
3.6143
3.55091
3.52522
3.51113
3.51065
3.52954
3.56123
3.54233
3.50205
3.47003
3.45171
3.50876
3.68233
3.84125
3.89852
3.91832
3.94317
3.9989
4.02168
4.00582
3.98504
3.95632
3.90655
3.80148
3.62566
3.4957
3.45202
3.42719
3.40285
3.38624
3.38412
3.39186
3.41338
3.45322
3.52943
3.61569
3.68379
3.70394
3.6906
3.68432
5.86508
5.60366
5.10936
4.59875
4.34272
4.19248
4.12545
4.15816
4.23327
4.21795
4.09076
3.91008
3.67426
3.4
3.19905
3.08684
3.00851
2.96367
3.02543
3.31198
4.0941
4.5463
4.61467
4.44045
4.03378
3.75928
3.70572
3.6903
3.7494
3.88288
3.96204
3.93247
3.87282
3.77452
3.62117
3.4752
3.39897
3.34231
3.29055
3.24492
3.24907
3.36869
3.5882
3.95634
4.18169
4.224
4.13448
3.85091
3.61495
3.55215
3.52186
3.49963
3.49015
3.50774
3.5564
3.56074
3.52547
3.48643
3.45952
3.44827
3.52276
3.70099
3.83215
3.89522
3.93808
3.99373
4.01276
3.99501
3.97432
3.94574
3.88699
3.75311
3.55889
3.44655
3.40209
3.37234
3.34773
3.33038
3.33259
3.35813
3.40669
3.47552
3.57546
3.64086
3.6676
3.65202
3.62896
3.62364
5.76478
5.51991
5.06132
4.59227
4.36734
4.23427
4.18314
4.21836
4.27604
4.28202
4.21091
4.07618
3.90228
3.6836
3.43376
3.25471
3.1618
3.09136
3.07147
3.15992
3.48357
4.09172
4.38551
4.32483
3.97866
3.72573
3.66629
3.64404
3.67733
3.78475
3.91309
3.94493
3.90373
3.84789
3.74829
3.56223
3.37238
3.27779
3.22379
3.1994
3.23552
3.41512
3.78772
4.14161
4.23661
4.22325
4.09597
3.81907
3.59682
3.53417
3.5039
3.47731
3.46095
3.47404
3.53216
3.56237
3.53698
3.50176
3.46359
3.44211
3.44821
3.54664
3.71555
3.84048
3.91396
3.97687
4.00648
3.99082
3.96735
3.93609
3.86541
3.70469
3.50751
3.41237
3.36675
3.33546
3.31297
3.30166
3.31087
3.34709
3.41344
3.51868
3.61407
3.64132
3.6344
3.61053
3.5873
3.58459
5.6936
5.41248
4.94701
4.55644
4.38267
4.27558
4.24014
4.24889
4.23522
4.21676
4.22743
4.18555
4.06589
3.92754
3.74872
3.53199
3.36807
3.28017
3.21498
3.18175
3.23251
3.51647
3.9377
4.09155
3.89434
3.70829
3.64319
3.61922
3.64565
3.71261
3.82208
3.91723
3.90335
3.85654
3.79953
3.68559
3.46233
3.26209
3.20008
3.19437
3.2851
3.59279
4.00331
4.2043
4.21865
4.17129
4.00828
3.73075
3.54851
3.49965
3.47091
3.44698
3.43558
3.44736
3.49495
3.54693
3.53901
3.50843
3.47145
3.43608
3.42892
3.44498
3.56358
3.73052
3.8608
3.95488
4.00558
3.99364
3.96303
3.92275
3.84339
3.67164
3.48096
3.3955
3.34935
3.318
3.29949
3.29354
3.3079
3.35505
3.45728
3.56882
3.62813
3.63349
3.61834
3.595
3.57542
3.57382
5.68761
5.29285
4.80419
4.51963
4.38779
4.31362
4.28723
4.25591
4.20471
4.16541
4.17278
4.23499
4.21183
4.10383
3.98548
3.83838
3.66218
3.49801
3.37621
3.28067
3.20608
3.22313
3.4278
3.67101
3.71254
3.66849
3.6251
3.61338
3.63171
3.67291
3.73719
3.83286
3.88297
3.84511
3.79813
3.73292
3.59161
3.3521
3.23695
3.25677
3.4567
3.83168
4.1238
4.17658
4.16102
4.08609
3.89313
3.61443
3.48649
3.45618
3.43259
3.41768
3.41651
3.43084
3.46018
3.49859
3.51752
3.50156
3.4733
3.43869
3.41521
3.41774
3.45318
3.58842
3.76585
3.91054
3.97676
3.97446
3.9497
3.90427
3.81525
3.65078
3.49632
3.42262
3.37141
3.32181
3.29756
3.29795
3.32482
3.41427
3.52802
3.6003
3.63087
3.63046
3.61306
3.59517
3.58086
3.59359
5.74957
5.12218
4.65445
4.47521
4.37644
4.31732
4.2767
4.23166
4.19847
4.17881
4.1726
4.21309
4.30037
4.26882
4.17308
4.07288
3.9516
3.78649
3.58949
3.41296
3.27373
3.17337
3.11394
3.13125
3.34896
3.51749
3.56846
3.58673
3.60561
3.6244
3.65456
3.71538
3.8046
3.82181
3.77265
3.71609
3.63599
3.50781
3.40495
3.49546
3.75694
4.02432
4.12624
4.12901
4.09436
3.99238
3.76241
3.51672
3.44354
3.41884
3.39997
3.39426
3.40404
3.42168
3.43918
3.45974
3.48017
3.48401
3.46753
3.44292
3.41993
3.41099
3.42571
3.49166
3.65039
3.84255
3.92759
3.93255
3.91275
3.85614
3.75263
3.59812
3.48782
3.44774
3.4117
3.36351
3.32244
3.33306
3.39899
3.50914
3.58462
3.61348
3.62643
3.62835
3.62761
3.62759
3.62845
3.65991
5.8815
4.93926
4.54023
4.40952
4.3349
4.29081
4.26136
4.24893
4.24073
4.22911
4.22128
4.24089
4.31882
4.39062
4.33774
4.25045
4.15319
4.02891
3.84989
3.61669
3.39651
3.19879
2.96062
2.73893
2.84886
3.15196
3.40445
3.51166
3.54051
3.55147
3.5661
3.60093
3.66861
3.75044
3.7547
3.69647
3.64862
3.6557
3.74795
3.94202
4.11647
4.14813
4.12241
4.0838
4.02393
3.89239
3.64445
3.46344
3.42053
3.39553
3.38031
3.38162
3.39633
3.41533
3.43371
3.44631
3.45412
3.45897
3.45793
3.44703
3.42864
3.41716
3.42251
3.45938
3.55417
3.73254
3.85134
3.87724
3.86782
3.79536
3.66331
3.53594
3.47514
3.45004
3.43501
3.42329
3.41452
3.44644
3.53276
3.60683
3.62525
3.62529
3.62607
3.63079
3.6471
3.67057
3.70137
3.74206
5.92815
4.80302
4.46478
4.34099
4.2849
4.27142
4.27818
4.28935
4.29343
4.28976
4.28893
4.30097
4.34712
4.44206
4.46528
4.38538
4.28696
4.17946
4.04267
3.84178
3.56991
3.23748
2.81618
2.5331
2.52246
2.6723
3.01574
3.31646
3.42946
3.4595
3.47312
3.49489
3.52943
3.59523
3.65457
3.63956
3.6753
3.8787
4.17598
4.38049
4.40443
4.2911
4.14958
4.04626
3.94639
3.77487
3.54618
3.44386
3.41423
3.38867
3.37416
3.37864
3.39987
3.42292
3.43854
3.4448
3.44519
3.44755
3.45713
3.46185
3.45664
3.4521
3.45605
3.46434
3.49173
3.59206
3.72401
3.77847
3.77936
3.69155
3.55649
3.49123
3.46864
3.44987
3.45468
3.49403
3.55996
3.63875
3.7033
3.70525
3.66955
3.64669
3.63343
3.64134
3.67659
3.72509
3.78108
3.79738
5.85761
4.71605
4.42366
4.30346
4.26128
4.27504
4.30698
4.33583
4.35472
4.3634
4.36533
4.36646
4.39346
4.48292
4.5492
4.47637
4.37026
4.26629
4.15487
4.00276
3.72022
3.20577
2.65682
2.44831
2.40092
2.41116
2.55522
2.88325
3.20235
3.34606
3.37372
3.3958
3.41041
3.43858
3.4941
3.5672
3.75931
4.19286
4.52738
4.62278
4.58314
4.43928
4.23704
4.04275
3.85539
3.62777
3.47584
3.43983
3.41774
3.39813
3.38745
3.39572
3.42202
3.44853
3.46352
3.46844
3.46895
3.4686
3.46717
3.47267
3.49156
3.49705
3.47146
3.44468
3.43729
3.47371
3.55849
3.62114
3.62523
3.55017
3.46857
3.44416
3.43137
3.43644
3.47801
3.56907
3.70455
3.8048
3.83529
3.80336
3.73678
3.69073
3.668
3.66909
3.70656
3.76933
3.82649
3.80838
5.82859
4.71248
4.39639
4.28676
4.2552
4.28999
4.3434
4.38815
4.42193
4.44496
4.4503
4.44034
4.43527
4.47535
4.56418
4.54975
4.45447
4.35372
4.24332
4.09165
3.75867
3.07157
2.54668
2.41724
2.36047
2.32614
2.33982
2.4723
2.77959
3.11935
3.24539
3.29706
3.29898
3.30605
3.37024
3.53559
3.91998
4.40367
4.71138
4.73725
4.69685
4.58268
4.3824
4.08656
3.73801
3.49929
3.44221
3.42842
3.42629
3.42879
3.43243
3.44679
3.47327
3.49916
3.51312
3.51361
3.50303
3.48972
3.47927
3.47654
3.48452
3.48649
3.46337
3.43154
3.40046
3.38555
3.398
3.41971
3.41043
3.41261
3.40148
3.39666
3.39386
3.41913
3.50566
3.64241
3.77874
3.88076
3.90003
3.87708
3.82121
3.76623
3.7343
3.72584
3.74705
3.77988
3.81536
3.79842
5.86079
4.78309
4.37979
4.27754
4.25501
4.30292
4.37276
4.4315
4.47316
4.5001
4.50317
4.48983
4.47373
4.48647
4.56406
4.60654
4.52017
4.40403
4.28123
4.10652
3.70371
2.92626
2.49213
2.40156
2.34244
2.29757
2.27807
2.30732
2.43742
2.72719
3.02364
3.16968
3.19994
3.22753
3.34014
3.65118
4.11539
4.48009
4.71608
4.76213
4.7491
4.68326
4.5148
4.12555
3.62417
3.43732
3.4088
3.40242
3.42252
3.45474
3.49049
3.53076
3.57476
3.60019
3.59011
3.56015
3.52594
3.49932
3.47632
3.45909
3.45769
3.4579
3.43443
3.40328
3.36383
3.31545
3.27349
3.25059
3.24435
3.28016
3.32501
3.35591
3.37895
3.43071
3.54819
3.69982
3.80706
3.87767
3.8998
3.88483
3.85816
3.83552
3.82016
3.81246
3.80723
3.79348
3.78425
3.75466
5.94168
4.87152
4.37823
4.26977
4.24252
4.29647
4.37702
4.44448
4.48582
4.50621
4.51231
4.50436
4.48769
4.48979
4.55134
4.59954
4.50677
4.38174
4.25129
4.06636
3.61806
2.82917
2.46105
2.38667
2.33076
2.28535
2.25943
2.26065
2.30253
2.41983
2.68309
2.94719
3.09207
3.21975
3.46896
3.91162
4.24524
4.46997
4.6771
4.79458
4.80723
4.76193
4.61393
4.14125
3.5558
3.40117
3.3763
3.37218
3.40859
3.4788
3.55923
3.64445
3.69985
3.6933
3.65989
3.6152
3.55733
3.49851
3.46232
3.4362
3.42063
3.41333
3.389
3.35435
3.31083
3.25767
3.21093
3.17985
3.15593
3.15223
3.22209
3.3038
3.37585
3.46604
3.60675
3.71608
3.7778
3.82868
3.87161
3.89088
3.89801
3.90183
3.90767
3.90245
3.87615
3.82746
3.77383
3.70939
6.00347
4.95052
4.37909
4.26703
4.23904
4.29327
4.37734
4.44721
4.48839
4.50418
4.50606
4.49547
4.47552
4.4689
4.51996
4.56999
4.47949
4.35569
4.2198
4.0155
3.53918
2.76864
2.44037
2.37321
2.32277
2.27898
2.25468
2.2535
2.26409
2.29921
2.41659
2.65153
2.94033
3.2955
3.72229
4.08117
4.2876
4.42945
4.61483
4.81057
4.83784
4.79463
4.65666
4.15104
3.52678
3.37584
3.35348
3.35046
3.39384
3.49823
3.63638
3.74557
3.76805
3.74472
3.71401
3.67497
3.60938
3.51086
3.44767
3.41194
3.38222
3.35947
3.33629
3.30356
3.26725
3.22866
3.18761
3.15033
3.11966
3.08441
3.12462
3.24386
3.38717
3.52535
3.65229
3.70198
3.72739
3.76013
3.81216
3.88244
3.92753
3.94465
3.94899
3.94129
3.92126
3.88361
3.81596
3.67754
6.05527
4.98705
4.3794
4.26639
4.2414
4.30152
4.39038
4.46028
4.49862
4.51256
4.51387
4.4982
4.46987
4.45015
4.49575
4.54803
4.45223
4.33295
4.20764
4.00216
3.48072
2.71244
2.42682
2.3641
2.31583
2.27387
2.25103
2.24966
2.26317
2.26819
2.30063
2.41628
2.76338
3.35548
3.93397
4.22624
4.29983
4.39888
4.57882
4.80071
4.86029
4.82107
4.68192
4.16184
3.51293
3.35936
3.33906
3.33832
3.39089
3.5315
3.72486
3.82747
3.82131
3.79147
3.75811
3.71729
3.64644
3.53099
3.42136
3.3658
3.33141
3.3075
3.29642
3.27827
3.25217
3.22035
3.18124
3.13561
3.0884
3.03246
3.04286
3.17682
3.37677
3.56647
3.68525
3.69775
3.69968
3.71946
3.7693
3.84515
3.92672
3.98036
3.99519
3.98509
3.96146
3.92117
3.84848
3.6417
)
;

boundaryField
{
    inlet
    {
        type            calculated;
        value           uniform 1.40001;
    }
    outlet
    {
        type            calculated;
        value           nonuniform List<scalar> 
24
(
3.08816
3.12687
3.1937
3.28771
3.41241
3.55618
3.68037
3.745
3.74829
3.72715
3.68217
3.62056
3.58158
3.57051
3.5897
3.65533
3.73763
3.79585
3.80808
3.79759
3.75355
3.71027
3.68435
3.65549
)
;
    }
    bottom
    {
        type            calculated;
        value           nonuniform List<scalar> 
24
(
225.389
25.0301
5.59178
5.49178
5.47673
6.18602
7.18882
8.10319
8.52745
8.5037
8.46717
8.94356
10.1096
9.08433
6.62804
5.90705
5.81644
5.94692
6.06753
6.1458
6.23226
6.85846
8.4234
10.5769
)
;
    }
    top
    {
        type            calculated;
        value           nonuniform List<scalar> 
120
(
221.024
21.5329
3.1857
3.69162
4.44934
5.78345
7.13569
7.87199
8.0532
8.08722
8.035
7.88607
7.61246
7.2768
6.65744
5.57544
5.02151
5.04355
5.18694
5.45367
5.76887
6.06415
6.3019
6.46291
6.54025
6.55094
6.55982
6.6038
6.70205
6.7837
6.70404
6.54172
6.05527
4.98705
4.3794
4.26639
4.2414
4.30152
4.39038
4.46028
4.49862
4.51256
4.51387
4.4982
4.46987
4.45015
4.49575
4.54803
4.45223
4.33295
4.20764
4.00216
3.48072
2.71244
2.42682
2.3641
2.31583
2.27387
2.25103
2.24966
2.26317
2.26819
2.30063
2.41628
2.76338
3.35548
3.93397
4.22624
4.29983
4.39888
4.57882
4.80071
4.86029
4.82107
4.68192
4.16184
3.51293
3.35936
3.33906
3.33832
3.39089
3.5315
3.72486
3.82747
3.82131
3.79147
3.75811
3.71729
3.64644
3.53099
3.42136
3.3658
3.33141
3.3075
3.29642
3.27827
3.25217
3.22035
3.18124
3.13561
3.0884
3.03246
3.04286
3.17682
3.37677
3.56647
3.68525
3.69775
3.69968
3.71946
3.7693
3.84515
3.92672
3.98036
3.99519
3.98509
3.96146
3.92117
3.84848
3.6417
)
;
    }
    obstacle
    {
        type            calculated;
        value           nonuniform List<scalar> 
112
(
10.5769
10.7596
10.9736
11.1414
11.0643
10.7748
10.2228
9.71435
7.31793
8.90608
8.8835
7.82168
6.37706
5.41931
5.14248
5.19821
5.19821
5.1048
4.98014
4.87661
4.81953
4.72968
4.60919
4.4595
1.12163
0.483562
0.545964
0.712725
0.948
1.19668
1.44707
1.76276
2.221
2.76636
3.15632
3.50647
3.8261
4.23264
4.54104
4.86815
5.19733
5.38766
5.32274
5.04508
4.20592
3.3175
3.10943
3.09184
3.10679
3.17443
3.28691
3.41085
3.5121
3.57351
3.59868
3.60341
3.61026
3.62849
3.65493
3.67819
3.69064
3.69985
3.72575
3.78822
3.86456
3.86121
3.81469
3.73491
3.46694
2.914
2.6021
2.54041
2.50239
2.47555
2.50078
2.63424
2.96808
3.48027
4.09334
4.2543
4.20399
4.15791
4.13136
4.10187
4.06841
4.0329
3.98913
3.93504
3.88169
3.84107
3.80394
3.76626
3.72803
3.69038
3.65259
3.60743
3.53532
3.43937
3.38015
3.35383
3.33242
3.31249
3.2929
3.27291
3.25218
3.22806
3.1933
3.14914
3.11166
3.09024
3.06489
3.08978
)
;
    }
    defaultFaces
    {
        type            empty;
    }
}


// ************************************************************************* //
