/*--------------------------------*- C++ -*----------------------------------*\
  =========                 |
  \\      /  F ield         | OpenFOAM: The Open Source CFD Toolbox
   \\    /   O peration     | Website:  https://openfoam.org
    \\  /    A nd           | Version:  7
     \\/     M anipulation  |
\*---------------------------------------------------------------------------*/
FoamFile
{
    version     2.0;
    format      ascii;
    class       volScalarField;
    location    "1.3";
    object      rho;
}
// * * * * * * * * * * * * * * * * * * * * * * * * * * * * * * * * * * * * * //

dimensions      [1 -3 0 0 0 0 0];

internalField   nonuniform List<scalar> 
4128
(
2.28771
2.26198
2.22948
2.20809
2.20364
2.1994
2.19329
2.17761
2.14218
2.12783
2.13682
2.23852
2.55442
2.86016
3.12894
3.2465
3.24962
3.23317
3.18074
3.10622
3.03919
3.00199
2.99448
2.98926
2.97347
2.9576
2.94638
2.92865
2.90339
2.86447
2.80048
2.72129
2.68546
2.68195
2.67214
2.66299
2.66319
2.66132
2.65287
2.64353
2.62164
2.56511
2.47391
2.41531
2.40046
2.39553
2.39528
2.4011
2.40458
2.40164
2.39427
2.37862
2.31942
2.24802
2.24765
2.33622
2.57769
2.92631
3.28731
3.5916
3.73341
3.74738
3.68389
3.58975
3.55434
3.54839
3.56892
3.59097
3.57391
3.53991
3.50175
3.44721
3.36989
3.30706
3.28099
3.26882
3.26522
3.26117
3.24361
3.22456
3.20104
3.16168
3.09541
3.04091
3.0263
3.01738
3.01131
3.00307
2.99078
2.97822
2.96325
2.93392
2.87999
2.82372
2.80412
2.79466
2.78773
2.78743
2.78429
2.7732
2.76145
2.7466
2.71324
2.65352
2.61503
2.6171
2.63661
2.70196
2.82054
2.97716
3.09078
3.15
3.16556
3.14823
3.11604
3.10182
3.09525
3.10391
3.09972
3.07891
3.05039
3.01035
2.95132
2.91188
2.89826
2.88548
2.87103
2.85621
2.84378
2.301
2.26869
2.24112
2.23412
2.23262
2.23068
2.22264
2.20037
2.15526
2.13122
2.13379
2.14635
2.25203
2.52324
2.86824
3.19218
3.23956
3.22761
3.18744
3.11477
3.05928
3.04683
3.04194
3.03006
3.01165
3.00006
2.98696
2.96291
2.92547
2.86689
2.79055
2.74476
2.73946
2.73473
2.71981
2.71132
2.70729
2.69945
2.69017
2.67142
2.62339
2.53948
2.47576
2.45687
2.44859
2.44496
2.44736
2.44904
2.44606
2.44251
2.4301
2.38364
2.37627
2.45592
2.69318
3.06186
3.42526
3.67704
3.87812
3.90066
3.87823
3.81558
3.70115
3.59385
3.56926
3.57183
3.61348
3.64217
3.62737
3.59274
3.52555
3.44109
3.36195
3.32207
3.30912
3.30151
3.30832
3.30554
3.28803
3.26816
3.23503
3.17027
3.10783
3.08612
3.07431
3.06297
3.05132
3.0375
3.02215
3.00436
2.97879
2.93412
2.87576
2.84794
2.83984
2.83329
2.83188
2.82888
2.81785
2.80521
2.78927
2.7599
2.708
2.67262
2.67957
2.7182
2.80923
2.9437
3.09236
3.19238
3.24128
3.23916
3.19931
3.15321
3.13144
3.12536
3.13576
3.14653
3.13352
3.11299
3.07987
3.02101
2.96292
2.93387
2.92025
2.90861
2.89676
2.88563
2.87382
2.30916
2.27729
2.26642
2.26429
2.26291
2.25935
2.24491
2.21149
2.17125
2.14811
2.14317
2.14836
2.16501
2.26349
2.50258
2.90355
3.18079
3.19021
3.17222
3.13629
3.10307
3.09464
3.08933
3.06911
3.05297
3.04257
3.02176
2.98663
2.9329
2.86272
2.80756
2.79637
2.7946
2.78185
2.76594
2.75622
2.74682
2.73638
2.71873
2.67807
2.60426
2.53806
2.51476
2.50351
2.49448
2.4939
2.49281
2.49073
2.49334
2.48997
2.52095
2.63125
2.90208
3.25307
3.52888
3.76228
3.89952
3.97393
3.97446
3.9361
3.85759
3.75578
3.68829
3.66866
3.66869
3.69177
3.70157
3.68415
3.65696
3.59248
3.49647
3.41941
3.38511
3.37268
3.36582
3.36914
3.36461
3.34861
3.33104
3.30004
3.23197
3.16349
3.13793
3.1256
3.11088
3.09675
3.08322
3.06971
3.05458
3.03304
2.99485
2.93416
2.89461
2.88518
2.87712
2.87269
2.86926
2.85871
2.84695
2.83336
2.81324
2.77191
2.73175
2.74528
2.80966
2.91878
3.07983
3.21626
3.30642
3.31746
3.29657
3.25371
3.20411
3.17841
3.16877
3.17049
3.18011
3.16866
3.15186
3.1246
3.07883
3.02575
3.00098
2.98782
2.97136
2.94823
2.92133
2.89938
2.8801
2.31612
2.29978
2.29792
2.29725
2.29427
2.28497
2.2544
2.21612
2.19157
2.17442
2.16741
2.166
2.17225
2.1923
2.27099
2.48788
2.88631
3.06124
3.11499
3.15024
3.1536
3.15396
3.14148
3.11639
3.10204
3.08117
3.04549
2.99416
2.93216
2.8737
2.85648
2.85058
2.84492
2.8265
2.8104
2.79763
2.78422
2.76483
2.72858
2.66654
2.60145
2.57447
2.56101
2.54583
2.53865
2.53916
2.54297
2.56478
2.64389
2.84139
3.11882
3.46607
3.75549
3.92069
4.04678
4.12518
4.12351
4.09885
4.02377
3.91088
3.80207
3.7396
3.72079
3.7242
3.76717
3.78858
3.76503
3.72232
3.65066
3.5609
3.47802
3.43369
3.42132
3.41797
3.43523
3.43656
3.41703
3.39453
3.35949
3.29731
3.22388
3.18156
3.16896
3.15529
3.14187
3.12772
3.11422
3.10157
3.08727
3.06476
3.01262
2.95352
2.93487
2.92341
2.91239
2.90513
2.89819
2.88725
2.87675
2.86496
2.83692
2.81354
2.83818
2.92821
3.05683
3.19919
3.34662
3.39918
3.39062
3.36291
3.31537
3.25992
3.2305
3.2178
3.20958
3.20268
3.18826
3.17047
3.15008
3.12193
3.08132
3.06139
3.05071
3.0376
3.0209
2.99515
2.95304
2.91024
2.88612
2.33477
2.33197
2.33199
2.33051
2.3231
2.29803
2.25637
2.22494
2.21176
2.2039
2.19979
2.19835
2.19798
2.20153
2.20621
2.25001
2.43557
2.75942
2.95578
3.10889
3.19377
3.20752
3.19217
3.16611
3.14407
3.10869
3.05648
2.99656
2.93833
2.91533
2.90753
2.90128
2.88837
2.86847
2.85174
2.8359
2.81328
2.77662
2.72291
2.6628
2.63087
2.61905
2.60235
2.59162
2.59602
2.63156
2.75364
3.01964
3.40282
3.77295
3.91481
4.01115
4.04447
4.11199
4.17193
4.18006
4.15164
4.09656
3.9995
3.87602
3.79967
3.7861
3.78477
3.81163
3.84554
3.83485
3.79969
3.72118
3.60862
3.52739
3.49544
3.48456
3.48237
3.50259
3.51256
3.49413
3.46677
3.42183
3.34579
3.2695
3.22732
3.2141
3.20261
3.19361
3.18454
3.17209
3.15938
3.14543
3.12323
3.07074
3.00312
2.97419
2.96355
2.95283
2.94445
2.93869
2.93215
2.9236
2.9184
2.90791
2.9067
2.94627
3.0567
3.18572
3.31956
3.43889
3.47019
3.46496
3.43897
3.39217
3.32796
3.27724
3.25645
3.24692
3.23673
3.21929
3.2
3.17979
3.15616
3.12972
3.10764
3.09228
3.07793
3.06407
3.04929
3.02814
2.99124
2.94086
2.90712
2.36731
2.36676
2.36649
2.36083
2.33909
2.29841
2.25949
2.24225
2.23663
2.23363
2.2337
2.2354
2.23153
2.22195
2.20497
2.1776
2.20351
2.37236
2.66308
2.9432
3.17626
3.21826
3.21065
3.19501
3.17445
3.13149
3.06681
3.00271
2.96898
2.96058
2.95195
2.94494
2.92724
2.90824
2.89052
2.86591
2.82608
2.77601
2.72241
2.6878
2.67759
2.66648
2.66785
2.7127
2.8821
3.22453
3.62585
3.99484
4.23759
4.29794
4.30914
4.29147
4.25676
4.22807
4.20175
4.17989
4.14203
4.07391
3.97944
3.8952
3.86851
3.86117
3.87787
3.89483
3.88238
3.85607
3.79536
3.69593
3.59697
3.54542
3.53136
3.5288
3.55454
3.57346
3.55928
3.53438
3.48897
3.41366
3.32879
3.26934
3.25232
3.24169
3.23531
3.23387
3.22734
3.21521
3.20226
3.18555
3.14406
3.07023
3.01242
2.99543
2.98299
2.97428
2.97343
2.97375
2.9725
2.97695
2.98813
3.014
3.08428
3.20327
3.31185
3.4226
3.51544
3.53769
3.52868
3.50362
3.46041
3.38973
3.32435
3.29846
3.28637
3.27956
3.2679
3.24937
3.22948
3.20364
3.16246
3.12809
3.11595
3.10739
3.09778
3.086
3.07224
3.05558
3.02853
2.98791
2.95181
2.40258
2.40279
2.39819
2.37904
2.3385
2.29637
2.27375
2.26756
2.26481
2.26448
2.26915
2.26882
2.26231
2.24595
2.20633
2.16297
2.15621
2.18619
2.35024
2.63807
3.03028
3.19088
3.20588
3.20095
3.18945
3.14273
3.07588
3.02872
3.0152
3.00318
2.99474
2.98444
2.966
2.94806
2.92343
2.87931
2.82404
2.77525
2.75022
2.74371
2.75988
2.829
3.04128
3.40109
3.89238
4.2159
4.35017
4.3649
4.33974
4.33279
4.3482
4.35798
4.35931
4.32676
4.27528
4.21299
4.12571
4.03615
3.98115
3.95843
3.95084
3.96618
3.97271
3.95028
3.91477
3.84536
3.73956
3.65695
3.6189
3.60598
3.60224
3.62296
3.63746
3.62134
3.59668
3.55045
3.46825
3.37956
3.32395
3.30554
3.29643
3.29174
3.28879
3.2813
3.26932
3.25568
3.23845
3.19978
3.12463
3.05882
3.03704
3.02616
3.01794
3.01756
3.02136
3.02642
3.03943
3.08124
3.13524
3.22575
3.33943
3.41885
3.50467
3.58374
3.60364
3.5929
3.56809
3.5219
3.44974
3.38088
3.34188
3.3283
3.32092
3.31825
3.30594
3.28792
3.26223
3.22131
3.16975
3.14174
3.12936
3.11909
3.11366
3.10649
3.09377
3.07853
3.05887
3.02597
2.98868
2.43899
2.43576
2.41983
2.37931
2.33242
2.30564
2.29899
2.29609
2.29515
2.29979
2.30281
2.29842
2.28663
2.25526
2.19969
2.16247
2.1592
2.16269
2.20221
2.35762
2.69183
3.02343
3.15891
3.21177
3.20104
3.13892
3.08386
3.07745
3.0724
3.05697
3.04162
3.02154
3.00237
2.97784
2.93637
2.8789
2.82827
2.818
2.84867
2.97479
3.2514
3.66501
4.09535
4.41147
4.62987
4.66323
4.62463
4.5424
4.43996
4.36462
4.34445
4.35814
4.36879
4.34885
4.30519
4.22816
4.12778
4.04104
4.01514
4.00683
4.01735
4.03328
4.01754
3.98383
3.91737
3.81498
3.71476
3.66454
3.65295
3.65365
3.68288
3.70214
3.68553
3.65896
3.61162
3.53437
3.44243
3.37633
3.35521
3.34636
3.34304
3.34207
3.33248
3.31937
3.30583
3.2906
3.25971
3.19316
3.11298
3.07397
3.06402
3.05811
3.06155
3.07307
3.08906
3.12759
3.19543
3.27865
3.38114
3.4578
3.51475
3.57246
3.64125
3.66209
3.65087
3.62517
3.57717
3.50462
3.43276
3.38776
3.37501
3.36803
3.36767
3.36012
3.34467
3.32335
3.28508
3.22279
3.17817
3.16169
3.15024
3.14154
3.13173
3.12
3.11399
3.09929
3.07192
3.03995
3.01229
2.47257
2.46068
2.42298
2.3717
2.33848
2.33027
2.32742
2.32607
2.33004
2.33654
2.33362
2.32372
2.29769
2.24776
2.19616
2.179
2.17605
2.17746
2.19409
2.2367
2.3726
2.67642
2.9457
3.14447
3.18608
3.14619
3.10964
3.11562
3.12435
3.11386
3.08125
3.051
3.02281
2.98333
2.9325
2.90824
2.94969
3.12471
3.50083
3.93075
4.33788
4.61983
4.65678
4.67244
4.68296
4.66346
4.6294
4.60247
4.55905
4.4966
4.43538
4.40468
4.38499
4.35229
4.2919
4.21582
4.14197
4.11398
4.09816
4.0891
4.08664
4.07152
4.04345
3.9786
3.87575
3.7838
3.73762
3.7235
3.72027
3.74149
3.75927
3.74408
3.71907
3.66859
3.58545
3.49709
3.43927
3.41809
3.40799
3.40263
3.39862
3.38558
3.37012
3.35473
3.33781
3.30894
3.24651
3.17104
3.12881
3.11795
3.11376
3.11859
3.13638
3.16945
3.24379
3.34784
3.44993
3.54288
3.58411
3.61176
3.64223
3.68691
3.70817
3.6964
3.66916
3.62917
3.56279
3.48412
3.43169
3.41861
3.41328
3.41455
3.40618
3.39109
3.37287
3.33896
3.28409
3.23235
3.20924
3.19603
3.18435
3.17158
3.15828
3.14477
3.11587
3.0798
3.05075
3.03745
3.02883
2.4998
2.467
2.41547
2.37472
2.36244
2.35926
2.35753
2.35985
2.36937
2.36944
2.36136
2.33827
2.29134
2.23529
2.21114
2.20795
2.20652
2.21317
2.2182
2.22157
2.24411
2.35718
2.57458
2.86074
3.08774
3.1036
3.12885
3.15112
3.16573
3.14601
3.10683
3.07747
3.0361
3.02311
3.08097
3.31441
3.73144
4.22189
4.61336
4.85533
4.95537
4.95533
4.89723
4.78426
4.68575
4.62378
4.60239
4.59998
4.59969
4.57617
4.52573
4.46688
4.41396
4.3531
4.27334
4.21032
4.18901
4.1794
4.17683
4.15771
4.13312
4.10517
4.04704
3.95051
3.85187
3.80009
3.78742
3.78564
3.8072
3.81738
3.79972
3.77358
3.72186
3.6427
3.55302
3.49333
3.47621
3.4689
3.46215
3.45286
3.43768
3.42121
3.40512
3.38841
3.36045
3.30436
3.22975
3.1771
3.16774
3.16622
3.17792
3.20938
3.27687
3.39839
3.52796
3.63218
3.70602
3.71232
3.70679
3.71486
3.73539
3.7501
3.73628
3.70928
3.67702
3.62038
3.54331
3.47994
3.46188
3.4544
3.45705
3.45385
3.43836
3.41816
3.38543
3.32736
3.27808
3.2624
3.25267
3.24311
3.22973
3.21097
3.18332
3.14243
3.09965
3.06867
3.05472
3.04731
3.04586
2.50898
2.4616
2.41525
2.39626
2.39206
2.38993
2.39055
2.39994
2.40516
2.39951
2.37944
2.33475
2.27351
2.24203
2.2385
2.23766
2.24366
2.25513
2.25137
2.23817
2.22408
2.23539
2.29245
2.46406
2.80332
3.00743
3.09705
3.15948
3.17943
3.16882
3.14179
3.16738
3.28466
3.55772
3.99422
4.45214
4.76292
4.98569
4.99753
5.01494
5.01815
4.99612
4.94979
4.86972
4.75921
4.67562
4.6273
4.61024
4.61
4.60003
4.57308
4.52305
4.44913
4.35912
4.2785
4.25001
4.23804
4.23614
4.22597
4.20088
4.17023
4.11277
4.01939
3.9245
3.87445
3.86103
3.85785
3.87477
3.8811
3.86086
3.83178
3.77479
3.68478
3.59768
3.54876
3.53423
3.53101
3.52939
3.5156
3.49843
3.48018
3.46006
3.43729
3.40392
3.34698
3.27755
3.22775
3.21894
3.22264
3.24368
3.29899
3.40873
3.56658
3.70773
3.8064
3.83846
3.81382
3.79491
3.78722
3.79362
3.80587
3.78967
3.75926
3.72348
3.66661
3.59219
3.52804
3.50557
3.4966
3.49662
3.49672
3.48326
3.46734
3.44093
3.38267
3.31914
3.29351
3.28464
3.28098
3.27421
3.26157
3.2437
3.20261
3.13821
3.09331
3.07885
3.07052
3.06443
3.05976
2.50675
2.45974
2.43257
2.42617
2.42357
2.42297
2.42979
2.43904
2.43642
2.42041
2.37902
2.31375
2.27297
2.26649
2.26534
2.26906
2.28374
2.28847
2.28014
2.26251
2.23713
2.20851
2.2025
2.24444
2.45135
2.78081
2.99545
3.14725
3.21663
3.31765
3.54499
3.88235
4.32974
4.72355
5.06117
5.24816
5.25545
5.23779
5.16139
5.05702
4.97271
4.93006
4.90903
4.88924
4.84372
4.7757
4.70653
4.64964
4.61762
4.59967
4.57424
4.53283
4.46633
4.38379
4.33206
4.30628
4.28691
4.27411
4.25459
4.22939
4.1817
4.09841
3.99985
3.94058
3.92619
3.92081
3.93192
3.93765
3.91871
3.89122
3.83665
3.74991
3.65562
3.59623
3.57993
3.57506
3.58047
3.57178
3.55458
3.53792
3.52067
3.49896
3.45999
3.401
3.33258
3.27611
3.26653
3.27297
3.30633
3.39478
3.54679
3.72654
3.86488
3.93309
3.93571
3.89801
3.86344
3.84934
3.84861
3.86608
3.85483
3.8246
3.78634
3.72614
3.63775
3.56636
3.5392
3.53088
3.53089
3.53693
3.52517
3.5072
3.48427
3.43939
3.37321
3.33203
3.32117
3.31578
3.30941
3.29465
3.27532
3.2485
3.20113
3.14028
3.1101
3.09823
3.08995
3.08801
3.0796
2.50621
2.4734
2.46255
2.4588
2.45765
2.46159
2.47186
2.47198
2.46031
2.42314
2.35669
2.30582
2.29429
2.29279
2.2942
2.30658
2.31925
2.31585
2.30415
2.28435
2.24679
2.20499
2.19492
2.19813
2.25895
2.48954
2.84086
3.24093
3.69969
4.24498
4.67255
4.95679
5.12642
5.2415
5.3405
5.36408
5.33534
5.27732
5.19321
5.0789
4.96644
4.90381
4.88552
4.8797
4.86605
4.83517
4.78394
4.71845
4.65721
4.61663
4.57534
4.51768
4.45932
4.42079
4.3952
4.36722
4.33964
4.31281
4.28262
4.2388
4.16096
4.07093
4.01435
3.9998
3.99414
3.99614
3.99164
3.97287
3.94688
3.89059
3.80101
3.71219
3.65847
3.64109
3.63474
3.63634
3.62655
3.60948
3.59383
3.57859
3.54819
3.50473
3.45324
3.39077
3.33402
3.32804
3.34617
3.40623
3.52639
3.70527
3.885
4.00373
4.03144
4.00772
3.94545
3.91133
3.89482
3.89195
3.91484
3.91294
3.8876
3.85324
3.80005
3.71164
3.62372
3.57735
3.56442
3.55774
3.5661
3.56345
3.54867
3.53197
3.49536
3.43112
3.38003
3.36293
3.34997
3.33841
3.32584
3.31339
3.29482
3.25406
3.19666
3.16025
3.14642
3.13287
3.11805
3.10144
3.08169
2.51765
2.50148
2.49548
2.49404
2.49615
2.50503
2.50732
2.49896
2.46665
2.40205
2.34106
2.32312
2.32121
2.32105
2.32987
2.34678
2.34847
2.34002
2.3247
2.29563
2.24801
2.20828
2.20393
2.2095
2.25798
2.43493
2.91404
3.74578
4.50062
5.02941
5.28727
5.46774
5.53842
5.51536
5.45129
5.36563
5.31647
5.26195
5.18549
5.10625
5.0138
4.9313
4.8928
4.87777
4.86703
4.84818
4.81582
4.76755
4.70588
4.6472
4.58119
4.50658
4.46299
4.44437
4.42762
4.40635
4.37927
4.34883
4.30887
4.23273
4.13729
4.07311
4.05796
4.0528
4.05793
4.04824
4.0274
4.00289
3.94936
3.86152
3.76854
3.71208
3.69575
3.68987
3.69422
3.68667
3.66795
3.64838
3.61678
3.57085
3.53414
3.49914
3.45745
3.40687
3.4052
3.44419
3.54249
3.702
3.89162
4.04617
4.12319
4.1222
4.08089
4.00536
3.9429
3.92473
3.91876
3.93882
3.957
3.93779
3.90951
3.87188
3.79406
3.69406
3.63119
3.61374
3.60325
3.60387
3.59545
3.57822
3.56267
3.5357
3.47821
3.42129
3.4046
3.39423
3.38194
3.36554
3.3444
3.3167
3.27846
3.23031
3.19336
3.18317
3.17473
3.16247
3.14582
3.12382
3.09691
2.54345
2.53333
2.5308
2.53198
2.53881
2.54203
2.53629
2.50921
2.44902
2.37947
2.35368
2.35081
2.34983
2.35528
2.3728
2.38102
2.37472
2.36145
2.33714
2.29408
2.24931
2.2426
2.26735
2.4145
2.75824
3.21536
3.65937
4.0862
4.53696
4.92962
5.1905
5.44693
5.555
5.55132
5.50267
5.4018
5.3067
5.2339
5.16165
5.10866
5.05913
4.99674
4.94054
4.90349
4.87593
4.8517
4.82506
4.79011
4.73728
4.66096
4.57841
4.51303
4.48798
4.46985
4.4549
4.43425
4.4087
4.37405
4.30498
4.20854
4.1352
4.11476
4.10617
4.10794
4.10122
4.08042
4.05474
4.00387
3.91767
3.8272
3.77265
3.75601
3.74958
3.75361
3.74801
3.72936
3.7062
3.66465
3.60693
3.55836
3.53313
3.50511
3.49081
3.50977
3.58865
3.73268
3.90928
4.07768
4.19665
4.22198
4.21467
4.17016
4.07784
3.98353
3.95207
3.94284
3.95269
3.97855
3.96548
3.94364
3.9195
3.86199
3.76907
3.69132
3.66687
3.65593
3.65536
3.64679
3.62666
3.60574
3.57405
3.52153
3.46454
3.43842
3.42852
3.42057
3.40823
3.3919
3.37056
3.33126
3.26674
3.21902
3.20554
3.19865
3.19198
3.18053
3.1669
3.1501
3.12478
2.57418
2.56837
2.5685
2.57288
2.57603
2.57195
2.54973
2.49564
2.42112
2.38621
2.38179
2.38013
2.38283
2.39816
2.41286
2.40948
2.39759
2.37685
2.33541
2.29716
2.31692
2.4606
2.77316
3.31055
3.70023
3.98438
4.10047
4.13462
4.30183
4.52323
4.78798
5.14186
5.32188
5.42049
5.44157
5.40614
5.32433
5.21943
5.1426
5.10987
5.08074
5.04436
4.99758
4.94696
4.90267
4.86887
4.84328
4.8048
4.73919
4.66087
4.58877
4.54982
4.52342
4.4998
4.4799
4.45755
4.43105
4.37716
4.28459
4.19931
4.17127
4.15815
4.15284
4.14667
4.12799
4.10485
4.06184
3.98156
3.88897
3.82728
3.80947
3.8018
3.80411
3.80081
3.78271
3.76146
3.71993
3.65068
3.5986
3.56457
3.54813
3.55905
3.61053
3.73655
3.90473
4.06898
4.21883
4.31407
4.32979
4.31182
4.25627
4.16075
4.05663
3.99549
3.97607
3.96934
3.99085
3.99487
3.97505
3.95206
3.9014
3.81919
3.74386
3.71656
3.70671
3.70884
3.70582
3.68702
3.66261
3.62454
3.55472
3.49155
3.46735
3.45874
3.45444
3.4484
3.43442
3.41521
3.38395
3.32529
3.25808
3.23091
3.22079
3.21302
3.20856
3.1995
3.18753
3.17045
3.13881
2.6074
2.60549
2.60733
2.60987
2.60721
2.58933
2.54107
2.46496
2.42135
2.41412
2.412
2.41288
2.42403
2.4429
2.44307
2.43405
2.41397
2.37548
2.38779
2.49815
2.86611
3.34879
3.81072
4.084
4.13844
4.1684
4.15526
4.11707
4.11998
4.1703
4.33442
4.64095
5.04535
5.27947
5.4231
5.4231
5.36435
5.23014
5.16017
5.13202
5.10438
5.08054
5.04637
4.99917
4.9472
4.89765
4.84225
4.78125
4.71334
4.6545
4.62068
4.59676
4.57096
4.54281
4.51518
4.48548
4.43974
4.35354
4.26354
4.22649
4.21331
4.20508
4.19354
4.17287
4.149
4.11305
4.0416
3.9514
3.88881
3.87007
3.85973
3.85555
3.84699
3.82932
3.81132
3.77064
3.71038
3.64369
3.60902
3.61867
3.66064
3.75788
3.91817
4.08186
4.21
4.32625
4.38487
4.38728
4.36879
4.31819
4.23158
4.13166
4.06045
4.03895
4.03014
4.04045
4.03538
4.01289
3.98705
3.93247
3.84933
3.78032
3.75179
3.74289
3.7472
3.75682
3.74289
3.71997
3.68763
3.62094
3.54294
3.49522
3.48185
3.47211
3.46715
3.46019
3.44779
3.43324
3.39842
3.32482
3.26445
3.24932
3.23998
3.23345
3.22725
3.2158
3.20387
3.19096
3.1504
2.64217
2.64171
2.64293
2.64134
2.62732
2.58468
2.51049
2.45959
2.44803
2.44604
2.44544
2.45331
2.47122
2.47665
2.47022
2.44724
2.46615
2.60566
2.92302
3.40229
3.92304
4.1401
4.29666
4.32112
4.30577
4.27064
4.1998
4.12188
4.08759
4.08983
4.12143
4.24333
4.50583
4.81957
5.11974
5.29279
5.26737
5.22115
5.20053
5.18564
5.15242
5.11922
5.08194
5.04036
4.99334
4.9207
4.83626
4.75641
4.69365
4.66334
4.64636
4.63197
4.61181
4.5838
4.55368
4.51424
4.4324
4.33025
4.27451
4.25845
4.24765
4.23891
4.21888
4.19615
4.16541
4.10265
4.01431
3.94527
3.92582
3.91737
3.91068
3.89553
3.87641
3.85454
3.8103
3.75448
3.69766
3.69403
3.72745
3.81449
3.95903
4.13725
4.27605
4.34674
4.39665
4.43805
4.43244
4.41273
4.36233
4.28394
4.1935
4.12635
4.10632
4.09896
4.10548
4.09788
4.07376
4.0408
3.97291
3.87922
3.81171
3.78304
3.77371
3.77494
3.79308
3.78721
3.76911
3.74252
3.68273
3.60309
3.54361
3.51971
3.50456
3.49406
3.48237
3.46883
3.45497
3.43062
3.38591
3.33047
3.29632
3.27619
3.26308
3.25393
3.24305
3.23303
3.21975
3.18828
3.13702
2.67598
2.67562
2.67456
2.66363
2.6258
2.55565
2.49921
2.48284
2.48084
2.48008
2.48588
2.50124
2.51418
2.50653
2.54056
2.67158
3.00116
3.54269
3.921
4.26496
4.33812
4.33005
4.34049
4.33148
4.2926
4.23849
4.18876
4.154
4.12326
4.10299
4.1033
4.10758
4.1523
4.27783
4.53459
4.8677
5.10383
5.17268
5.23633
5.23493
5.20629
5.16732
5.11503
5.05518
4.98837
4.91379
4.83698
4.76056
4.71304
4.69227
4.67425
4.66163
4.64137
4.61697
4.58248
4.51066
4.4107
4.33586
4.31323
4.29721
4.28371
4.26346
4.24006
4.21116
4.15609
4.07497
4.00428
3.98047
3.9708
3.96591
3.95014
3.93042
3.90451
3.85855
3.78968
3.7548
3.77264
3.8575
4.0119
4.20127
4.35752
4.43672
4.47697
4.4981
4.50235
4.48511
4.45452
4.40524
4.3283
4.23875
4.17918
4.16149
4.15718
4.17105
4.16689
4.14092
4.10251
4.03063
3.92567
3.84725
3.81334
3.8028
3.802
3.82218
3.81954
3.79907
3.77763
3.73804
3.66254
3.59107
3.56762
3.5552
3.54019
3.52155
3.50052
3.48296
3.45725
3.41176
3.36295
3.34276
3.33161
3.31935
3.30515
3.28642
3.26137
3.22861
3.19471
3.16047
3.12205
2.7074
2.70556
2.69683
2.66462
2.60015
2.53978
2.51809
2.51575
2.51459
2.51866
2.53967
2.55545
2.59598
2.75973
3.15037
3.58724
4.08389
4.30153
4.41042
4.48599
4.47949
4.44002
4.38649
4.33896
4.2872
4.22822
4.19545
4.17921
4.16282
4.13957
4.11425
4.09049
4.0533
4.03355
4.08988
4.30228
4.65596
4.97585
5.14776
5.22402
5.22448
5.20084
5.14348
5.05883
4.96181
4.88474
4.83312
4.79407
4.7692
4.74893
4.7287
4.70515
4.67649
4.63333
4.56041
4.46937
4.40088
4.37549
4.35795
4.34105
4.31961
4.29458
4.26289
4.20643
4.12648
4.0579
4.03056
4.01957
4.0147
4.00194
3.98321
3.96163
3.91685
3.84771
3.83366
3.88258
4.01873
4.20618
4.39705
4.50708
4.57357
4.58548
4.59023
4.5806
4.55654
4.5164
4.45603
4.37087
4.28119
4.22246
4.20142
4.19352
4.20866
4.22349
4.20608
4.17778
4.12172
4.00813
3.89953
3.85203
3.83834
3.82926
3.83624
3.84954
3.83762
3.82063
3.78726
3.72252
3.64652
3.61048
3.59808
3.58576
3.56985
3.55108
3.52979
3.49262
3.43655
3.38637
3.36183
3.35246
3.34749
3.34539
3.33372
3.31658
3.28868
3.23653
3.1703
3.13339
3.12051
2.73571
2.72713
2.69975
2.64344
2.58156
2.55446
2.55105
2.54899
2.55645
2.58071
2.65393
2.85708
3.21794
3.78701
4.17715
4.40746
4.48391
4.45909
4.47267
4.49112
4.48956
4.46365
4.42343
4.36127
4.28823
4.22998
4.20787
4.19645
4.18598
4.16841
4.14275
4.09351
4.02037
3.97653
3.97267
4.0063
4.18969
4.5368
4.87986
5.09728
5.19515
5.19693
5.15564
5.06092
4.94996
4.87466
4.84158
4.82144
4.81439
4.80628
4.7859
4.75986
4.7097
4.61765
4.51223
4.44379
4.41586
4.40528
4.39881
4.37953
4.35512
4.32552
4.27173
4.18164
4.10553
4.07406
4.06358
4.05723
4.04811
4.03043
4.0165
3.98451
3.94791
3.96873
4.07185
4.24895
4.42693
4.58835
4.66726
4.64271
4.63623
4.63319
4.62843
4.60601
4.57075
4.52519
4.44628
4.33436
4.25609
4.23322
4.22546
4.2449
4.27643
4.26353
4.23878
4.20163
4.12073
3.99209
3.90598
3.88601
3.87457
3.874
3.87403
3.85604
3.83376
3.80834
3.76181
3.69355
3.6534
3.64313
3.63631
3.62459
3.60496
3.57829
3.53463
3.47025
3.41134
3.38338
3.37323
3.36836
3.37295
3.36699
3.35155
3.33366
3.30165
3.23503
3.16186
3.13483
3.12606
2.75545
2.73201
2.68403
2.62283
2.59148
2.58552
2.58776
2.60204
2.67206
2.89852
3.39027
3.8952
4.31688
4.60709
4.62286
4.64239
4.62391
4.56255
4.50685
4.48115
4.46954
4.44749
4.41117
4.36375
4.30925
4.26785
4.23831
4.21853
4.1985
4.17288
4.1339
4.07623
4.01001
3.9732
3.95821
3.9622
3.99664
4.13544
4.40026
4.69963
4.93399
5.07608
5.08608
5.03413
4.94384
4.90553
4.88899
4.87503
4.85101
4.82866
4.81147
4.77002
4.69577
4.58807
4.49717
4.45618
4.43915
4.42942
4.4266
4.41067
4.3898
4.35059
4.26635
4.16725
4.11619
4.10119
4.09041
4.08586
4.07959
4.07195
4.05835
4.08037
4.15139
4.30955
4.5056
4.6712
4.79121
4.81008
4.76285
4.69011
4.65219
4.63499
4.62684
4.60772
4.58206
4.53279
4.43978
4.33226
4.28205
4.26661
4.25988
4.26727
4.26209
4.24094
4.21646
4.17493
4.09427
4.00152
3.9555
3.93613
3.92499
3.91235
3.89292
3.87381
3.85237
3.80643
3.73982
3.68789
3.67332
3.66575
3.66371
3.65178
3.63167
3.60046
3.53933
3.45322
3.40423
3.39225
3.38423
3.38163
3.384
3.38102
3.37056
3.353
3.31374
3.23801
3.17355
3.15201
3.14249
2.76301
2.7232
2.66565
2.62894
2.62559
2.63289
2.6926
2.93777
3.3979
4.0353
4.4621
4.62268
4.70053
4.67733
4.64339
4.63364
4.62501
4.6129
4.57421
4.53123
4.49288
4.43995
4.38148
4.34591
4.3256
4.30501
4.27978
4.25234
4.22208
4.17664
4.11149
4.05338
4.01711
3.99915
3.98725
3.97714
3.97678
3.97637
4.01922
4.1574
4.40125
4.68347
4.87837
4.92641
4.95869
4.97319
4.97192
4.94541
4.90162
4.84771
4.79682
4.73819
4.6551
4.57088
4.51847
4.49575
4.47776
4.46441
4.44642
4.42868
4.39503
4.32798
4.24404
4.18368
4.15763
4.14101
4.12706
4.12284
4.11876
4.14532
4.21009
4.34878
4.52374
4.68448
4.84248
4.92387
4.92506
4.87427
4.77899
4.71068
4.67981
4.65859
4.63491
4.60664
4.56376
4.50016
4.421
4.3645
4.34388
4.32697
4.30621
4.28285
4.26368
4.23884
4.19313
4.123
4.05806
4.0289
4.01307
3.99695
3.97679
3.94961
3.91884
3.8842
3.83435
3.77619
3.72683
3.70767
3.69653
3.68907
3.67767
3.66342
3.64917
3.61666
3.54301
3.4589
3.42473
3.41139
3.40135
3.39325
3.38499
3.37471
3.36151
3.33709
3.29701
3.24812
3.21307
3.18564
3.16325
2.76006
2.70837
2.67482
2.67576
2.72707
2.94241
3.46402
4.11366
4.55654
4.84233
4.86686
4.84728
4.80823
4.71855
4.6425
4.6069
4.60591
4.6116
4.59437
4.55782
4.49346
4.42473
4.36831
4.34297
4.32936
4.32069
4.30175
4.27433
4.23076
4.16325
4.09698
4.05595
4.04061
4.0339
4.02608
4.00732
3.98479
3.95383
3.88902
3.87767
3.94572
4.14866
4.46069
4.72114
4.86565
4.97489
5.00387
4.98855
4.94239
4.86499
4.77668
4.69824
4.62692
4.57788
4.55687
4.54375
4.52832
4.50493
4.47868
4.43293
4.36228
4.28552
4.23665
4.22179
4.2078
4.19544
4.19267
4.20602
4.25635
4.37559
4.53577
4.69052
4.83158
4.95169
5.00472
5.00009
4.95315
4.86988
4.79991
4.76461
4.7325
4.68914
4.63998
4.58848
4.52797
4.4635
4.42119
4.40906
4.40234
4.38364
4.35381
4.31622
4.26648
4.20589
4.14033
4.08413
4.05791
4.05202
4.05591
4.04551
4.02249
3.99219
3.94521
3.87464
3.8081
3.76142
3.74259
3.73322
3.72556
3.71103
3.69215
3.67184
3.64242
3.59066
3.53001
3.4857
3.45937
3.43827
3.4242
3.41565
3.40763
3.38885
3.35687
3.31762
3.28175
3.26798
3.25724
3.23862
3.20946
2.75111
2.73156
2.76851
3.00343
3.50653
4.15684
4.74891
4.92263
4.91876
4.9048
4.83802
4.79479
4.76311
4.73292
4.70593
4.67362
4.6531
4.63812
4.61177
4.55112
4.47004
4.40955
4.37983
4.36123
4.3511
4.34055
4.32096
4.28661
4.21517
4.14035
4.09834
4.08175
4.07253
4.06947
4.05395
4.03388
4.00695
3.94656
3.86122
3.82371
3.82173
3.85853
4.03213
4.35368
4.65099
4.85041
4.95084
4.95986
4.93378
4.86063
4.76181
4.68116
4.63911
4.62112
4.60722
4.5942
4.57143
4.5392
4.48295
4.39149
4.30906
4.26932
4.25818
4.25889
4.27208
4.30202
4.36693
4.47395
4.61766
4.77073
4.89783
4.99033
5.05705
5.05917
5.01857
4.95678
4.89716
4.86148
4.83791
4.81627
4.7825
4.726
4.6464
4.56461
4.5022
4.4637
4.45031
4.44953
4.44389
4.42168
4.38905
4.32872
4.24024
4.15792
4.10525
4.08094
4.07236
4.08128
4.09563
4.08073
4.05641
4.02125
3.9488
3.85206
3.79142
3.77115
3.76113
3.7577
3.74965
3.73424
3.71838
3.68837
3.62694
3.56264
3.52888
3.51766
3.50483
3.48748
3.46225
3.42458
3.38427
3.35334
3.32099
3.29893
3.29
3.29162
3.2872
3.27372
3.25172
2.8296
3.02483
3.5224
4.23056
4.74188
5.10564
5.18455
5.15658
5.06814
4.91618
4.79824
4.75223
4.73824
4.73044
4.73778
4.73965
4.71016
4.67498
4.62309
4.53279
4.45478
4.42228
4.40632
4.39359
4.37497
4.35181
4.32555
4.27282
4.19656
4.14037
4.12297
4.11328
4.10715
4.08945
4.06853
4.04587
4.00179
3.92273
3.85194
3.82455
3.80792
3.81011
3.84525
3.98358
4.23274
4.51006
4.71919
4.84839
4.86051
4.81766
4.74179
4.69869
4.68562
4.67781
4.66446
4.64443
4.61515
4.56503
4.47507
4.36879
4.30287
4.28797
4.28915
4.31926
4.41747
4.56618
4.7404
4.90407
5.04022
5.14232
5.18903
5.1822
5.14236
5.06618
4.9828
4.91586
4.87692
4.85634
4.85575
4.84656
4.81751
4.76457
4.66126
4.55395
4.5087
4.49874
4.50526
4.5054
4.48268
4.45421
4.40919
4.33124
4.2263
4.14651
4.11573
4.10094
4.09342
4.10054
4.10379
4.09246
4.07625
4.03419
3.94259
3.84537
3.80883
3.79622
3.7879
3.77964
3.76381
3.74584
3.71996
3.668
3.60077
3.55962
3.54922
3.54517
3.53799
3.52195
3.49573
3.44117
3.36473
3.32186
3.30761
3.30301
3.3159
3.33059
3.3219
3.30493
3.27871
3.59053
4.23367
4.81452
5.10092
5.17308
5.1862
5.16484
5.11892
5.03469
4.92201
4.80906
4.76286
4.74318
4.74048
4.75863
4.76671
4.74661
4.69779
4.61229
4.51495
4.46515
4.44851
4.43922
4.42531
4.40113
4.37224
4.31751
4.23986
4.18402
4.16507
4.15561
4.15471
4.14133
4.11879
4.09357
4.05037
3.97425
3.89644
3.8599
3.84457
3.83209
3.825
3.83
3.83607
3.88876
4.01833
4.23835
4.47801
4.68418
4.72326
4.73705
4.75309
4.75175
4.72987
4.68263
4.61939
4.57289
4.52814
4.45787
4.37469
4.36035
4.37
4.41139
4.5288
4.73397
4.95207
5.10473
5.17836
5.24609
5.28258
5.27041
5.23798
5.17524
5.06413
4.94636
4.9033
4.88929
4.89296
4.89573
4.87257
4.83925
4.78735
4.69784
4.60428
4.55005
4.52619
4.50573
4.4858
4.46628
4.44092
4.40377
4.33201
4.22687
4.16249
4.14483
4.13641
4.14235
4.14212
4.12453
4.10364
4.06968
4.00888
3.92589
3.86878
3.84687
3.83212
3.82194
3.81089
3.7955
3.76754
3.71425
3.64801
3.59653
3.58001
3.57357
3.57513
3.56806
3.55196
3.51918
3.45023
3.36683
3.32471
3.31136
3.30156
3.29409
3.29723
3.30115
3.29023
3.27332
4.93338
5.26687
5.37976
5.36367
5.30844
5.17613
5.09798
5.04383
4.98854
4.91872
4.8703
4.84343
4.81466
4.7938
4.78762
4.77284
4.73671
4.67194
4.58741
4.52456
4.50138
4.48599
4.47352
4.45369
4.42648
4.37285
4.29361
4.22215
4.19379
4.18197
4.18083
4.18289
4.16724
4.14729
4.11168
4.03532
3.9444
3.89432
3.88154
3.87291
3.86591
3.85326
3.83801
3.82463
3.78683
3.77134
3.82545
3.99188
4.26241
4.50336
4.65456
4.75592
4.78506
4.77549
4.72732
4.64327
4.54942
4.48334
4.45343
4.45876
4.51743
4.63649
4.79751
4.99524
5.17933
5.2733
5.32011
5.359
5.37701
5.36178
5.32317
5.27264
5.20267
5.08588
4.96748
4.91427
4.88728
4.86471
4.85339
4.84137
4.81673
4.77944
4.73842
4.68475
4.60548
4.5411
4.50515
4.47904
4.45536
4.42978
4.39656
4.34656
4.28547
4.2237
4.18295
4.16452
4.14623
4.12765
4.1111
4.0883
4.04497
3.98033
3.93031
3.91557
3.89964
3.87657
3.84613
3.81039
3.77605
3.73884
3.69109
3.64418
3.62762
3.61751
3.60369
3.5852
3.56473
3.5385
3.50298
3.45225
3.39249
3.34596
3.32096
3.30828
3.29875
3.29094
3.28749
3.27654
3.25601
5.42012
5.40695
5.38286
5.31646
5.25617
5.18011
5.08153
5.01484
4.96366
4.93637
4.93223
4.9261
4.90107
4.86353
4.81757
4.76347
4.70509
4.64219
4.58185
4.56101
4.54894
4.5386
4.51827
4.48397
4.42832
4.35687
4.28106
4.23724
4.22227
4.2189
4.22637
4.21473
4.19252
4.15872
4.10034
4.01735
3.94356
3.91654
3.90282
3.89873
3.90195
3.89036
3.86859
3.83809
3.78625
3.72509
3.70339
3.72961
3.86426
4.12924
4.39688
4.601
4.73976
4.75537
4.73813
4.66805
4.56285
4.51016
4.52763
4.63551
4.83459
5.08501
5.27405
5.41653
5.44325
5.41403
5.41794
5.41796
5.41642
5.39339
5.35206
5.29738
5.22037
5.11281
5.01757
4.95333
4.90461
4.864
4.83341
4.81563
4.81452
4.80992
4.78483
4.73402
4.64583
4.56326
4.51291
4.47508
4.44244
4.41423
4.38923
4.37298
4.34792
4.29504
4.23717
4.19402
4.16442
4.13921
4.10896
4.07262
4.02256