/*--------------------------------*- C++ -*----------------------------------*\
  =========                 |
  \\      /  F ield         | OpenFOAM: The Open Source CFD Toolbox
   \\    /   O peration     | Website:  https://openfoam.org
    \\  /    A nd           | Version:  7
     \\/     M anipulation  |
\*---------------------------------------------------------------------------*/
FoamFile
{
    version     2.0;
    format      ascii;
    class       volVectorField;
    location    "1.8";
    object      U;
}
// * * * * * * * * * * * * * * * * * * * * * * * * * * * * * * * * * * * * * //

dimensions      [0 1 -1 0 0 0 0];

internalField   nonuniform List<vector> 
66048
(
(3 -3.56821e-17 0)
(3 -2.58107e-16 0)
(3 -1.38197e-16 0)
(3 -2.02327e-16 0)
(3 -4.73385e-16 0)
(3 -1.74184e-16 0)
(3 1.52439e-16 0)
(3 4.93226e-16 0)
(3 5.9936e-16 0)
(3 1.23337e-16 0)
(3 -2.97128e-18 0)
(3 -2.28477e-16 0)
(3 -2.94674e-16 0)
(3 -6.45294e-16 0)
(3 -6.09957e-16 0)
(3 -5.98053e-16 0)
(3 -4.04373e-16 0)
(3 -5.63709e-16 0)
(3 -5.72976e-16 0)
(3 6.10161e-16 0)
(3 9.04673e-16 0)
(3 1.13595e-15 0)
(3 9.06844e-18 0)
(3 -6.64463e-17 0)
(3 -7.95992e-17 0)
(3 -4.45874e-16 0)
(3 -4.97728e-16 0)
(3 -5.48651e-16 0)
(3 -5.50865e-16 0)
(3 -7.42738e-16 0)
(3 -1.08114e-15 0)
(3 -7.16558e-16 0)
(3 1.77787e-16 0)
(3 5.42072e-16 0)
(3 1.8697e-16 0)
(3 2.80497e-16 0)
(3 5.70108e-16 0)
(3 9.66021e-16 0)
(3 1.07852e-15 0)
(3 5.06879e-16 0)
(3 1.9202e-17 0)
(3 -1.17086e-16 0)
(3 6.40087e-16 0)
(3 8.96502e-16 0)
(3 4.43243e-16 0)
(3 7.58305e-16 0)
(3 5.2433e-16 0)
(3 -1.45729e-16 0)
(3 -2.52171e-16 0)
(3 2.73377e-16 0)
(3 6.97369e-17 0)
(3 -3.89517e-16 0)
(3 3.80622e-16 0)
(3 1.62143e-16 0)
(3 -8.65104e-16 0)
(3 6.9931e-16 0)
(3 1.20978e-15 0)
(3 1.15101e-15 0)
(3 1.50005e-15 0)
(3 1.72721e-15 0)
(3 9.31706e-16 0)
(3 4.8235e-16 0)
(3 6.66279e-16 0)
(3 7.33336e-16 0)
(3 9.41335e-16 0)
(3 1.13279e-15 0)
(3 1.12919e-15 0)
(3 7.63491e-16 0)
(3 -1.79583e-16 0)
(3 -1.82424e-16 0)
(3 -5.54797e-16 0)
(3 1.68652e-15 0)
(1.59032 0.00810162 0)
(0.777035 0.00912984 0)
(0.723396 0.0112526 0)
(0.696783 0.0122911 0)
(0.666422 0.0127745 0)
(0.636773 0.0133551 0)
(0.60625 0.0138588 0)
(0.575425 0.0140614 0)
(0.544843 0.0139244 0)
(0.514998 0.0136419 0)
(0.485773 0.013637 0)
(0.456344 0.0141501 0)
(0.425877 0.0148207 0)
(0.394415 0.0152215 0)
(0.362491 0.0154478 0)
(0.330259 0.0157796 0)
(0.297243 0.0162723 0)
(0.263079 0.0169012 0)
(0.227522 0.0176689 0)
(0.190289 0.0185411 0)
(0.151188 0.0195377 0)
(0.109929 0.0206621 0)
(0.0667781 0.0212617 0)
(0.0231899 0.0219271 0)
(3 6.61248e-17 0)
(3 5.55938e-17 0)
(3 -1.47116e-16 0)
(3 1.23713e-16 0)
(3 6.0417e-17 0)
(3 4.71434e-16 0)
(3 1.04037e-15 0)
(3 1.40792e-15 0)
(3 1.28287e-15 0)
(3 -2.19177e-17 0)
(3 -9.70673e-16 0)
(3 -1.3443e-15 0)
(3 -1.01898e-15 0)
(3 -1.09042e-15 0)
(3 -5.73416e-17 0)
(3 3.9643e-16 0)
(3 1.62687e-16 0)
(3 -8.67656e-16 0)
(3 -1.50002e-15 0)
(3 -9.33968e-16 0)
(3 4.08046e-16 0)
(3 9.30985e-16 0)
(3 5.85509e-17 0)
(3 -2.25018e-16 0)
(3 -5.49314e-16 0)
(3 -1.31061e-15 0)
(3 -1.27322e-15 0)
(3 -9.34228e-16 0)
(3 -4.77122e-16 0)
(3 -1.95008e-16 0)
(3 -4.74844e-16 0)
(3 1.31527e-16 0)
(3 6.17018e-16 0)
(3 6.90323e-16 0)
(3 9.30969e-16 0)
(3 9.74345e-16 0)
(3 1.49544e-15 0)
(3 2.32043e-15 0)
(3 2.46722e-15 0)
(3 1.53955e-15 0)
(3 4.02067e-16 0)
(3 9.44672e-16 0)
(3 1.97533e-15 0)
(3 2.60688e-15 0)
(3 1.29868e-15 0)
(3 -1.73965e-16 0)
(3 -1.38293e-15 0)
(3 -1.69677e-15 0)
(3 -1.90641e-15 0)
(3 -2.48889e-15 0)
(3 -2.03682e-15 0)
(3 -1.35245e-15 0)
(3 -2.77675e-16 0)
(3 -6.3165e-16 0)
(3 -1.75882e-15 0)
(3 -8.1807e-16 0)
(3 3.09292e-16 0)
(3 7.01516e-16 0)
(3 1.56788e-15 0)
(3 2.21893e-15 0)
(3 2.48928e-15 0)
(3 1.85948e-15 0)
(3 2.27871e-15 0)
(3 2.05461e-15 0)
(3 1.92093e-15 0)
(3 1.44362e-15 0)
(3 8.76209e-16 0)
(3 5.67121e-16 0)
(3 -1.10783e-15 0)
(3 -1.10897e-15 0)
(3 -9.99619e-16 0)
(3 -3.31649e-15 0)
(1.60596 0.0379313 0)
(0.772764 0.0375027 0)
(0.715242 0.0330394 0)
(0.688238 0.0350543 0)
(0.657879 0.0365057 0)
(0.628283 0.0383372 0)
(0.597902 0.0399911 0)
(0.567209 0.040782 0)
(0.536651 0.0405097 0)
(0.506745 0.0396421 0)
(0.477463 0.0396079 0)
(0.448076 0.041282 0)
(0.417716 0.0435016 0)
(0.386373 0.0448719 0)
(0.35463 0.0456874 0)
(0.322704 0.0468069 0)
(0.29019 0.0484349 0)
(0.256766 0.0505103 0)
(0.222202 0.0530091 0)
(0.186171 0.0558158 0)
(0.14838 0.0589748 0)
(0.108402 0.0625613 0)
(0.0661917 0.0646667 0)
(0.0231854 0.0671024 0)
(3 -1.57658e-17 0)
(3 5.81436e-16 0)
(3 4.59259e-16 0)
(3 3.99715e-16 0)
(3 1.24532e-15 0)
(3 9.28698e-16 0)
(3 9.49053e-16 0)
(3 1.08126e-15 0)
(3 5.56006e-16 0)
(3 4.12968e-16 0)
(3 2.77034e-16 0)
(3 3.22833e-16 0)
(3 1.92244e-16 0)
(3 1.48831e-16 0)
(3 6.76961e-16 0)
(3 4.95942e-16 0)
(3 -5.15675e-16 0)
(3 -9.05423e-16 0)
(3 -1.40146e-15 0)
(3 -1.51184e-15 0)
(3 -7.76397e-16 0)
(3 2.23255e-16 0)
(3 5.65795e-16 0)
(3 2.45958e-16 0)
(3 -9.70403e-18 0)
(3 -8.42892e-16 0)
(3 -9.61826e-16 0)
(3 -1.04678e-15 0)
(3 -6.97137e-16 0)
(3 -6.49258e-17 0)
(3 4.89852e-18 0)
(3 2.66926e-16 0)
(3 5.55323e-16 0)
(3 3.76472e-16 0)
(3 3.69717e-16 0)
(3 1.22231e-15 0)
(3 2.06679e-15 0)
(3 2.67231e-15 0)
(3 2.88631e-15 0)
(3 2.13009e-15 0)
(3 2.11208e-15 0)
(3 3.52492e-15 0)
(3 3.73357e-15 0)
(3 3.67913e-15 0)
(3 2.76036e-15 0)
(3 8.63535e-16 0)
(3 4.39349e-16 0)
(3 8.12089e-16 0)
(3 9.41905e-16 0)
(3 9.43092e-17 0)
(3 -6.69298e-16 0)
(3 -1.16843e-15 0)
(3 -1.16553e-15 0)
(3 -2.11678e-15 0)
(3 -2.18783e-15 0)
(3 -2.15488e-15 0)
(3 -1.28598e-15 0)
(3 -6.80919e-17 0)
(3 8.8251e-16 0)
(3 1.89915e-15 0)
(3 2.52504e-15 0)
(3 2.89915e-15 0)
(3 4.01986e-15 0)
(3 3.52266e-15 0)
(3 2.62762e-15 0)
(3 9.69151e-16 0)
(3 1.31595e-16 0)
(3 -4.82548e-16 0)
(3 -7.47498e-16 0)
(3 -1.05392e-15 0)
(3 -1.1096e-15 0)
(3 -4.47176e-15 0)
(1.65764 0.067427 0)
(0.780052 0.0658221 0)
(0.717286 0.0576662 0)
(0.688376 0.0601736 0)
(0.656842 0.0622683 0)
(0.626417 0.0649632 0)
(0.595568 0.0674717 0)
(0.564552 0.0687456 0)
(0.533584 0.0684178 0)
(0.503096 0.0670064 0)
(0.473124 0.0667844 0)
(0.443152 0.0693589 0)
(0.412312 0.0729101 0)
(0.380453 0.0750794 0)
(0.348182 0.0762803 0)
(0.315764 0.0778787 0)
(0.282891 0.0802301 0)
(0.249346 0.0832899 0)
(0.215008 0.0870704 0)
(0.179619 0.0914571 0)
(0.142913 0.0965552 0)
(0.104472 0.102607 0)
(0.0638349 0.106438 0)
(0.0224952 0.110994 0)
(3 -5.16411e-17 0)
(3 1.95632e-16 0)
(3 3.87439e-16 0)
(3 4.14206e-16 0)
(3 8.76011e-16 0)
(3 1.09261e-15 0)
(3 7.51825e-16 0)
(3 3.87179e-17 0)
(3 5.29639e-17 0)
(3 1.40273e-16 0)
(3 4.99874e-16 0)
(3 1.08729e-15 0)
(3 6.99618e-16 0)
(3 1.95602e-16 0)
(3 -2.95862e-16 0)
(3 -7.8012e-16 0)
(3 -1.10764e-15 0)
(3 -1.20304e-15 0)
(3 -1.06803e-15 0)
(3 -1.0308e-15 0)
(3 -2.59443e-16 0)
(3 2.11588e-16 0)
(3 5.25157e-16 0)
(3 7.89522e-16 0)
(3 1.05557e-15 0)
(3 -3.80739e-16 0)
(3 -1.22982e-15 0)
(3 -1.66531e-15 0)
(3 -1.94273e-15 0)
(3 -1.9091e-15 0)
(3 -1.21641e-15 0)
(3 -8.3417e-16 0)
(3 -5.40301e-16 0)
(3 -4.59449e-16 0)
(3 -2.49526e-16 0)
(3 7.41355e-16 0)
(3 1.28839e-15 0)
(3 1.75826e-15 0)
(3 2.73337e-15 0)
(3 2.42587e-15 0)
(3 2.38798e-15 0)
(3 2.46159e-15 0)
(3 2.73859e-15 0)
(3 2.76312e-15 0)
(3 3.39887e-15 0)
(3 2.94586e-15 0)
(3 2.33838e-15 0)
(3 2.03556e-15 0)
(3 1.72776e-15 0)
(3 1.41812e-15 0)
(3 -5.15751e-16 0)
(3 -2.36108e-15 0)
(3 -2.05305e-15 0)
(3 -1.91133e-15 0)
(3 -2.69615e-15 0)
(3 -2.58612e-15 0)
(3 -2.25202e-15 0)
(3 -1.66208e-15 0)
(3 -1.31813e-15 0)
(3 -7.28256e-16 0)
(3 8.8438e-17 0)
(3 2.28041e-15 0)
(3 3.13052e-15 0)
(3 2.87321e-15 0)
(3 1.8183e-15 0)
(3 5.40216e-16 0)
(3 6.36922e-17 0)
(3 -5.57298e-16 0)
(3 -9.2008e-16 0)
(3 -9.27357e-16 0)
(3 -1.47197e-15 0)
(3 -8.29862e-16 0)
(1.73601 0.0933753 0)
(0.789596 0.0937561 0)
(0.721034 0.0832282 0)
(0.691387 0.0854362 0)
(0.659759 0.0879355 0)
(0.629413 0.0913164 0)
(0.598824 0.0946093 0)
(0.568023 0.0964982 0)
(0.537 0.0964678 0)
(0.506109 0.0948578 0)
(0.475491 0.0945955 0)
(0.444936 0.0981049 0)
(0.413607 0.103083 0)
(0.381124 0.106237 0)
(0.348102 0.108012 0)
(0.314851 0.110185 0)
(0.281145 0.113214 0)
(0.246863 0.117056 0)
(0.211994 0.121743 0)
(0.176384 0.127216 0)
(0.139851 0.133656 0)
(0.102137 0.14172 0)
(0.0623141 0.147106 0)
(0.0220853 0.153764 0)
(3 -1.95891e-16 0)
(3 -3.23623e-16 0)
(3 -1.53996e-17 0)
(3 5.10151e-16 0)
(3 7.84514e-16 0)
(3 7.98305e-16 0)
(3 6.52059e-16 0)
(3 -2.0616e-16 0)
(3 -3.26703e-16 0)
(3 -4.06991e-16 0)
(3 -3.76608e-16 0)
(3 -5.67134e-16 0)
(3 -6.73234e-16 0)
(3 -6.29965e-16 0)
(3 -8.77675e-16 0)
(3 -7.90047e-16 0)
(3 -6.57619e-16 0)
(3 -1.24825e-15 0)
(3 -1.31039e-15 0)
(3 -1.26358e-15 0)
(3 -5.89667e-16 0)
(3 -4.16126e-16 0)
(3 -2.12632e-17 0)
(3 4.83086e-16 0)
(3 1.78135e-16 0)
(3 -5.93029e-16 0)
(3 -1.74221e-15 0)
(3 -2.69931e-15 0)
(3 -3.31326e-15 0)
(3 -3.68886e-15 0)
(3 -2.38566e-15 0)
(3 -1.60183e-15 0)
(3 -1.34757e-15 0)
(3 -6.64752e-16 0)
(3 -7.50197e-18 0)
(3 -9.57928e-17 0)
(3 4.01274e-16 0)
(3 1.24436e-15 0)
(3 3.19218e-15 0)
(3 4.50645e-15 0)
(3 3.07852e-15 0)
(3 2.29928e-15 0)
(3 2.20041e-15 0)
(3 2.68078e-15 0)
(3 3.2306e-15 0)
(3 2.97035e-15 0)
(3 2.78246e-15 0)
(3 2.42723e-15 0)
(3 2.14518e-15 0)
(3 1.46589e-15 0)
(3 -1.08317e-15 0)
(3 -1.96078e-15 0)
(3 -2.13425e-15 0)
(3 -2.33054e-15 0)
(3 -3.36039e-15 0)
(3 -3.19806e-15 0)
(3 -3.14371e-15 0)
(3 -3.32641e-15 0)
(3 -3.46155e-15 0)
(3 -2.50822e-15 0)
(3 -9.8368e-16 0)
(3 -1.95292e-16 0)
(3 1.05496e-15 0)
(3 2.13008e-15 0)
(3 1.85745e-15 0)
(3 5.60797e-16 0)
(3 2.46658e-16 0)
(3 -3.59012e-16 0)
(3 -5.12727e-16 0)
(3 -5.04493e-16 0)
(3 2.09316e-16 0)
(3 -8.44464e-16 0)
(1.84249 0.118523 0)
(0.801713 0.121818 0)
(0.723762 0.110279 0)
(0.693261 0.111156 0)
(0.661665 0.113682 0)
(0.631624 0.117483 0)
(0.601581 0.121467 0)
(0.571313 0.124107 0)
(0.540556 0.124723 0)
(0.509561 0.123228 0)
(0.478592 0.122911 0)
(0.447802 0.127181 0)
(0.416435 0.133537 0)
(0.383773 0.137786 0)
(0.350371 0.140289 0)
(0.316557 0.143153 0)
(0.282146 0.14691 0)
(0.247082 0.151506 0)
(0.211469 0.156961 0)
(0.175282 0.163294 0)
(0.138443 0.170688 0)
(0.100978 0.180457 0)
(0.0614524 0.187269 0)
(0.0219296 0.195968 0)
(3 2.38516e-17 0)
(3 4.8202e-17 0)
(3 6.25212e-16 0)
(3 1.08354e-15 0)
(3 8.04704e-16 0)
(3 5.76104e-16 0)
(3 4.27483e-16 0)
(3 8.00107e-17 0)
(3 1.33862e-16 0)
(3 2.99093e-16 0)
(3 6.10541e-16 0)
(3 3.30923e-16 0)
(3 8.08719e-17 0)
(3 -1.50385e-16 0)
(3 -4.43846e-16 0)
(3 -2.91871e-16 0)
(3 4.52956e-17 0)
(3 2.04377e-16 0)
(3 6.39931e-17 0)
(3 -4.79853e-16 0)
(3 -8.13687e-17 0)
(3 2.24405e-16 0)
(3 4.74102e-16 0)
(3 1.23806e-15 0)
(3 9.77144e-16 0)
(3 1.22793e-15 0)
(3 5.99989e-16 0)
(3 -1.90335e-17 0)
(3 -2.05303e-16 0)
(3 -7.34983e-16 0)
(3 -4.11028e-16 0)
(3 -6.46173e-16 0)
(3 -4.57834e-16 0)
(3 -5.22902e-16 0)
(3 -5.76437e-16 0)
(3 -1.48558e-16 0)
(3 4.79013e-16 0)
(3 1.7529e-15 0)
(3 3.18224e-15 0)
(3 3.27872e-15 0)
(3 2.58671e-15 0)
(3 1.56925e-15 0)
(3 1.98259e-15 0)
(3 2.49096e-15 0)
(3 1.87653e-15 0)
(3 1.65979e-15 0)
(3 1.56834e-15 0)
(3 1.22501e-15 0)
(3 1.3268e-15 0)
(3 1.00827e-15 0)
(3 -5.68238e-16 0)
(3 -1.27282e-15 0)
(3 -2.63017e-15 0)
(3 -3.21935e-15 0)
(3 -2.98655e-15 0)
(3 -2.32044e-15 0)
(3 -1.87349e-15 0)
(3 -1.41253e-15 0)
(3 -1.48344e-15 0)
(3 -8.73108e-16 0)
(3 -7.69547e-16 0)
(3 -4.0522e-16 0)
(3 3.45301e-16 0)
(3 7.21938e-16 0)
(3 7.60554e-16 0)
(3 -2.93927e-16 0)
(3 -7.53047e-16 0)
(3 -9.40224e-16 0)
(3 2.72302e-16 0)
(3 7.54657e-16 0)
(3 1.0254e-15 0)
(3 -2.53138e-16 0)
(1.984 0.141374 0)
(0.820023 0.150511 0)
(0.727542 0.138721 0)
(0.696382 0.136961 0)
(0.665122 0.139065 0)
(0.635727 0.14301 0)
(0.606527 0.147553 0)
(0.577079 0.151032 0)
(0.54689 0.152633 0)
(0.51605 0.151681 0)
(0.484942 0.151399 0)
(0.454078 0.15628 0)
(0.422885 0.164004 0)
(0.390211 0.169581 0)
(0.35649 0.173137 0)
(0.322059 0.177016 0)
(0.286742 0.181765 0)
(0.250524 0.187265 0)
(0.213637 0.193447 0)
(0.176254 0.200445 0)
(0.138423 0.208327 0)
(0.100609 0.219381 0)
(0.0609335 0.227365 0)
(0.0218373 0.237906 0)
(3 3.5605e-16 0)
(3 4.69305e-16 0)
(3 2.82977e-16 0)
(3 -2.69607e-16 0)
(3 -8.38162e-16 0)
(3 -5.41957e-16 0)
(3 2.35001e-16 0)
(3 3.92297e-16 0)
(3 6.03251e-16 0)
(3 1.19501e-15 0)
(3 1.58983e-15 0)
(3 1.75184e-15 0)
(3 1.49009e-15 0)
(3 7.46359e-16 0)
(3 3.6557e-16 0)
(3 7.16735e-16 0)
(3 1.08348e-15 0)
(3 1.15344e-15 0)
(3 1.003e-15 0)
(3 8.18716e-16 0)
(3 2.91165e-16 0)
(3 3.98675e-16 0)
(3 8.62125e-16 0)
(3 1.07786e-15 0)
(3 1.33516e-15 0)
(3 1.28655e-15 0)
(3 1.35253e-15 0)
(3 1.3769e-15 0)
(3 1.43652e-15 0)
(3 1.30064e-15 0)
(3 9.62171e-16 0)
(3 -1.6602e-16 0)
(3 -1.06868e-15 0)
(3 -1.63732e-15 0)
(3 -1.53e-15 0)
(3 6.1883e-17 0)
(3 1.25383e-15 0)
(3 1.29424e-15 0)
(3 4.86233e-16 0)
(3 3.17582e-16 0)
(3 9.62882e-16 0)
(3 1.67014e-15 0)
(3 1.47432e-15 0)
(3 7.02641e-16 0)
(3 -2.51193e-17 0)
(3 -4.50981e-16 0)
(3 -1.87753e-16 0)
(3 1.2681e-16 0)
(3 -5.42455e-16 0)
(3 -5.69328e-16 0)
(3 -4.28278e-16 0)
(3 -1.45151e-15 0)
(3 -2.23427e-15 0)
(3 -2.65641e-15 0)
(3 -2.637e-15 0)
(3 -2.02138e-15 0)
(3 -1.58906e-15 0)
(3 -1.10757e-15 0)
(3 -8.32844e-16 0)
(3 -8.17101e-16 0)
(3 -8.04979e-16 0)
(3 2.10437e-16 0)
(3 6.61475e-16 0)
(3 -2.01632e-16 0)
(3 -5.65638e-16 0)
(3 -1.98857e-16 0)
(3 -3.24511e-16 0)
(3 1.11334e-17 0)
(3 9.25943e-16 0)
(3 1.36193e-15 0)
(3 8.61737e-16 0)
(3 7.09163e-16 0)
(2.16236 0.158746 0)
(0.845034 0.180627 0)
(0.731395 0.168837 0)
(0.699725 0.162895 0)
(0.667975 0.164212 0)
(0.638508 0.168184 0)
(0.609453 0.173257 0)
(0.580322 0.177677 0)
(0.550544 0.180495 0)
(0.520043 0.180401 0)
(0.489302 0.180094 0)
(0.459125 0.185213 0)
(0.429194 0.194107 0)
(0.397696 0.201155 0)
(0.364729 0.206065 0)
(0.330592 0.211338 0)
(0.295062 0.217487 0)
(0.258105 0.22426 0)
(0.220035 0.231393 0)
(0.18122 0.239144 0)
(0.141803 0.247274 0)
(0.102779 0.259276 0)
(0.0619753 0.268134 0)
(0.0222899 0.280242 0)
(3 -2.17597e-16 0)
(3 -3.72186e-16 0)
(3 -8.45872e-16 0)
(3 -1.05695e-15 0)
(3 -1.48286e-15 0)
(3 -1.63916e-15 0)
(3 -1.50946e-15 0)
(3 -1.22844e-15 0)
(3 1.02872e-16 0)
(3 6.59557e-16 0)
(3 9.23944e-16 0)
(3 4.21021e-16 0)
(3 5.91826e-16 0)
(3 5.34781e-16 0)
(3 4.30836e-16 0)
(3 4.44136e-16 0)
(3 5.88176e-16 0)
(3 5.51316e-16 0)
(3 7.42386e-16 0)
(3 6.83102e-16 0)
(3 4.58023e-16 0)
(3 9.87606e-17 0)
(3 4.54541e-16 0)
(3 3.46396e-16 0)
(3 7.73887e-16 0)
(3 3.22568e-16 0)
(3 1.03291e-15 0)
(3 1.37103e-15 0)
(3 1.08017e-15 0)
(3 9.74393e-16 0)
(3 5.35346e-16 0)
(3 -4.12957e-16 0)
(3 -1.19788e-15 0)
(3 -1.12557e-15 0)
(3 -8.50542e-16 0)
(3 4.68642e-17 0)
(3 1.27523e-15 0)
(3 1.09223e-15 0)
(3 7.17764e-16 0)
(3 9.44543e-16 0)
(3 1.96187e-15 0)
(3 2.50655e-15 0)
(3 1.9393e-15 0)
(3 7.89775e-16 0)
(3 -2.00774e-16 0)
(3 -8.49512e-16 0)
(3 -6.37007e-16 0)
(3 -8.7318e-16 0)
(3 -1.76747e-15 0)
(3 -2.12628e-15 0)
(3 -1.74239e-15 0)
(3 -1.83402e-15 0)
(3 -2.249e-15 0)
(3 -2.06964e-15 0)
(3 -1.49544e-15 0)
(3 -1.12273e-15 0)
(3 -9.60975e-16 0)
(3 -9.14102e-16 0)
(3 -5.33607e-16 0)
(3 -1.1603e-15 0)
(3 -9.96019e-16 0)
(3 -8.15898e-16 0)
(3 -5.02117e-16 0)
(3 -2.32837e-16 0)
(3 -6.9186e-16 0)
(3 1.08068e-16 0)
(3 -2.73777e-17 0)
(3 7.03716e-16 0)
(3 1.00735e-15 0)
(3 1.42528e-15 0)
(3 1.20777e-15 0)
(3 4.42452e-16 0)
(2.37114 0.171883 0)
(0.876945 0.216164 0)
(0.736818 0.198529 0)
(0.70663 0.190902 0)
(0.673921 0.191153 0)
(0.643995 0.194825 0)
(0.614544 0.20005 0)
(0.58517 0.205008 0)
(0.555301 0.208723 0)
(0.524685 0.20941 0)
(0.493868 0.208813 0)
(0.463845 0.213555 0)
(0.434874 0.223262 0)
(0.404596 0.231949 0)
(0.372613 0.238607 0)
(0.339178 0.245766 0)
(0.303949 0.253891 0)
(0.26675 0.26252 0)
(0.22786 0.271071 0)
(0.18781 0.279911 0)
(0.146751 0.288292 0)
(0.106192 0.301047 0)
(0.0638174 0.310548 0)
(0.0229319 0.323946 0)
(3 -1.06333e-16 0)
(3 1.28289e-16 0)
(3 5.8084e-16 0)
(3 2.41446e-16 0)
(3 1.48628e-16 0)
(3 -7.11885e-16 0)
(3 -1.74359e-15 0)
(3 -1.46032e-15 0)
(3 -1.10053e-15 0)
(3 -8.55074e-16 0)
(3 -8.42262e-16 0)
(3 -6.73735e-16 0)
(3 -8.51405e-16 0)
(3 -4.69749e-16 0)
(3 -4.45812e-16 0)
(3 -5.32259e-16 0)
(3 -1.72704e-16 0)
(3 -3.84022e-17 0)
(3 1.85631e-16 0)
(3 1.22019e-16 0)
(3 -7.87174e-18 0)
(3 1.25179e-16 0)
(3 7.17264e-16 0)
(3 6.50628e-16 0)
(3 4.84762e-16 0)
(3 1.17507e-15 0)
(3 1.24471e-15 0)
(3 1.31959e-15 0)
(3 1.15471e-15 0)
(3 5.75242e-16 0)
(3 2.87767e-16 0)
(3 4.20765e-16 0)
(3 1.60342e-16 0)
(3 -7.00825e-16 0)
(3 -1.07194e-15 0)
(3 -1.18595e-15 0)
(3 5.19161e-16 0)
(3 9.18036e-16 0)
(3 1.13048e-15 0)
(3 1.48085e-15 0)
(3 1.51458e-15 0)
(3 1.85768e-15 0)
(3 2.19296e-15 0)
(3 1.18007e-15 0)
(3 1.22154e-16 0)
(3 -2.51457e-16 0)
(3 -2.54156e-16 0)
(3 -1.52124e-15 0)
(3 -2.0981e-15 0)
(3 -1.99839e-15 0)
(3 -2.38148e-15 0)
(3 -1.84862e-15 0)
(3 -1.50136e-15 0)
(3 -6.97208e-16 0)
(3 -1.23873e-16 0)
(3 -1.31367e-16 0)
(3 -2.08708e-16 0)
(3 -1.55513e-16 0)
(3 -3.58711e-16 0)
(3 -7.74926e-16 0)
(3 -9.7737e-16 0)
(3 -1.65189e-15 0)
(3 -1.68093e-15 0)
(3 -3.9594e-16 0)
(3 -1.92165e-16 0)
(3 -5.91994e-16 0)
(3 -4.0313e-16 0)
(3 2.14133e-16 0)
(3 -1.09844e-17 0)
(3 3.52493e-16 0)
(3 6.21023e-16 0)
(3 -1.0401e-15 0)
(2.61417 0.175228 0)
(0.934476 0.251516 0)
(0.757955 0.223041 0)
(0.729861 0.218672 0)
(0.69599 0.218556 0)
(0.664562 0.22206 0)
(0.633075 0.227647 0)
(0.601595 0.233359 0)
(0.569798 0.238086 0)
(0.537349 0.239706 0)
(0.504762 0.238808 0)
(0.473085 0.242566 0)
(0.443328 0.252398 0)
(0.413145 0.26245 0)
(0.381544 0.270802 0)
(0.34879 0.279909 0)
(0.314442 0.290246 0)
(0.277972 0.301133 0)
(0.23925 0.311589 0)
(0.198647 0.322113 0)
(0.155982 0.331296 0)
(0.113236 0.345166 0)
(0.0680886 0.355513 0)
(0.0245082 0.370219 0)
(3 -8.93843e-17 0)
(3 -4.44508e-17 0)
(3 5.19536e-17 0)
(3 2.08028e-16 0)
(3 8.31958e-16 0)
(3 1.04746e-15 0)
(3 6.61224e-16 0)
(3 -1.49093e-16 0)
(3 -1.14884e-15 0)
(3 -2.19033e-15 0)
(3 -2.33377e-15 0)
(3 -1.22334e-15 0)
(3 -1.51273e-15 0)
(3 -1.46457e-15 0)
(3 -1.2022e-15 0)
(3 -1.39767e-15 0)
(3 -1.14638e-15 0)
(3 -9.94891e-16 0)
(3 -1.00035e-15 0)
(3 -7.2214e-16 0)
(3 -5.9893e-16 0)
(3 4.44682e-16 0)
(3 -4.60873e-16 0)
(3 -6.57146e-16 0)
(3 -6.47749e-16 0)
(3 -8.73005e-17 0)
(3 3.50321e-16 0)
(3 6.88167e-16 0)
(3 1.41429e-15 0)
(3 1.49353e-15 0)
(3 1.21166e-15 0)
(3 6.4062e-16 0)
(3 -7.20402e-16 0)
(3 -5.36218e-16 0)
(3 -5.5208e-17 0)
(3 5.95544e-16 0)
(3 1.42402e-15 0)
(3 1.45747e-15 0)
(3 1.21501e-15 0)
(3 8.5936e-16 0)
(3 9.3438e-16 0)
(3 2.24148e-15 0)
(3 2.14996e-15 0)
(3 9.17002e-16 0)
(3 6.57059e-16 0)
(3 7.98484e-17 0)
(3 -7.08252e-16 0)
(3 -1.18877e-15 0)
(3 -1.48294e-15 0)
(3 -1.26617e-15 0)
(3 -8.12257e-16 0)
(3 -8.4212e-16 0)
(3 -4.25747e-16 0)
(3 2.63693e-17 0)
(3 3.70037e-16 0)
(3 -1.30826e-16 0)
(3 -2.99161e-16 0)
(3 -3.71153e-17 0)
(3 4.12261e-16 0)
(3 5.55697e-16 0)
(3 3.89283e-16 0)
(3 -3.97318e-16 0)
(3 -6.52607e-16 0)
(3 -7.60339e-16 0)
(3 -7.47685e-17 0)
(3 2.84044e-16 0)
(3 6.27475e-16 0)
(3 -7.46724e-16 0)
(3 -1.96702e-15 0)
(3 -2.11175e-15 0)
(3 -1.53755e-15 0)
(3 -1.55089e-15 0)
(2.86778 0.123323 0)
(1.01772 0.275067 0)
(0.790124 0.240499 0)
(0.767636 0.238709 0)
(0.732181 0.242988 0)
(0.698796 0.248711 0)
(0.664732 0.255895 0)
(0.63058 0.262841 0)
(0.596039 0.268825 0)
(0.560649 0.271869 0)
(0.525002 0.271175 0)
(0.490216 0.273695 0)
(0.457922 0.282959 0)
(0.426418 0.293795 0)
(0.394139 0.303344 0)
(0.361285 0.313951 0)
(0.327343 0.326375 0)
(0.291282 0.339954 0)
(0.252294 0.353267 0)
(0.210639 0.366668 0)
(0.165885 0.377698 0)
(0.120582 0.393158 0)
(0.0724548 0.404555 0)
(0.0257484 0.420307 0)
(3 -1.57926e-16 0)
(3 -2.28482e-16 0)
(3 -4.44627e-16 0)
(3 -1.09801e-16 0)
(3 7.64964e-16 0)
(3 1.32289e-15 0)
(3 1.42817e-15 0)
(3 6.57809e-16 0)
(3 -5.21087e-16 0)
(3 -1.63992e-15 0)
(3 -1.48003e-15 0)
(3 -1.06161e-15 0)
(3 -6.7146e-16 0)
(3 -6.52873e-16 0)
(3 -8.88762e-16 0)
(3 -1.12768e-15 0)
(3 -1.62729e-15 0)
(3 -1.85199e-15 0)
(3 -1.30213e-15 0)
(3 -9.89381e-16 0)
(3 -4.21711e-16 0)
(3 -6.12843e-17 0)
(3 -8.53819e-16 0)
(3 -4.49898e-16 0)
(3 -2.13321e-16 0)
(3 3.20905e-16 0)
(3 7.16416e-16 0)
(3 5.68782e-16 0)
(3 7.73539e-16 0)
(3 1.81238e-15 0)
(3 1.90133e-15 0)
(3 1.24114e-15 0)
(3 5.43899e-16 0)
(3 6.11638e-16 0)
(3 2.0153e-15 0)
(3 2.98771e-15 0)
(3 2.35407e-15 0)
(3 2.43876e-15 0)
(3 1.44784e-15 0)
(3 5.64103e-16 0)
(3 2.5178e-16 0)
(3 1.02064e-15 0)
(3 6.5401e-16 0)
(3 6.74671e-16 0)
(3 1.09222e-15 0)
(3 9.1017e-16 0)
(3 -4.73371e-16 0)
(3 -1.64326e-15 0)
(3 -1.60852e-15 0)
(3 -1.54219e-15 0)
(3 -9.26263e-16 0)
(3 -1.04498e-15 0)
(3 -8.82904e-16 0)
(3 -7.61366e-16 0)
(3 -5.8339e-17 0)
(3 1.07685e-15 0)
(3 1.4566e-15 0)
(3 7.19449e-16 0)
(3 5.73008e-16 0)
(3 7.93872e-16 0)
(3 6.08618e-16 0)
(3 7.24555e-16 0)
(3 7.02195e-16 0)
(3 3.9079e-16 0)
(3 4.60109e-16 0)
(3 7.95177e-16 0)
(3 8.68927e-16 0)
(3 -7.26468e-16 0)
(3 -1.86625e-15 0)
(3 -2.50123e-15 0)
(3 -2.23429e-15 0)
(3 -1.61143e-15 0)
(2.99995 0.0242363 0)
(1.10581 0.280149 0)
(0.805205 0.250701 0)
(0.79147 0.265185 0)
(0.760666 0.270922 0)
(0.730379 0.276747 0)
(0.697857 0.284547 0)
(0.663844 0.293191 0)
(0.628444 0.301401 0)
(0.591601 0.306199 0)
(0.553714 0.3063 0)
(0.515932 0.307671 0)
(0.480361 0.315779 0)
(0.446458 0.326804 0)
(0.412422 0.337076 0)
(0.378348 0.348692 0)
(0.343928 0.362909 0)
(0.308131 0.379278 0)
(0.26952 0.395837 0)
(0.227915 0.412669 0)
(0.181869 0.42653 0)
(0.133652 0.44478 0)
(0.0809513 0.458356 0)
(0.0289169 0.475735 0)
(3 1.12572e-16 0)
(3 8.31689e-17 0)
(3 5.98146e-17 0)
(3 4.06706e-16 0)
(3 4.14968e-16 0)
(3 3.53136e-16 0)
(3 1.83894e-16 0)
(3 2.12588e-16 0)
(3 2.79405e-18 0)
(3 -1.20667e-16 0)
(3 2.09235e-17 0)
(3 -2.08351e-16 0)
(3 -1.66347e-16 0)
(3 2.06998e-16 0)
(3 3.81232e-16 0)
(3 3.31811e-16 0)
(3 -1.00385e-16 0)
(3 -7.98386e-18 0)
(3 4.11144e-16 0)
(3 3.6543e-16 0)
(3 -2.42786e-16 0)
(3 -2.08249e-16 0)
(3 1.81716e-16 0)
(3 4.23593e-16 0)
(3 1.0046e-15 0)
(3 1.0635e-15 0)
(3 1.7787e-16 0)
(3 -5.86835e-16 0)
(3 -5.99418e-16 0)
(3 -2.50153e-16 0)
(3 2.60809e-16 0)
(3 7.85668e-16 0)
(3 2.05774e-15 0)
(3 1.9294e-15 0)
(3 1.98763e-15 0)
(3 1.54694e-15 0)
(3 3.1693e-17 0)
(3 -6.13701e-16 0)
(3 -4.34761e-16 0)
(3 -1.06468e-16 0)
(3 -1.33021e-16 0)
(3 -5.21059e-18 0)
(3 4.88523e-16 0)
(3 1.03495e-15 0)
(3 5.47253e-16 0)
(3 7.67922e-17 0)
(3 3.91231e-17 0)
(3 -3.03489e-17 0)
(3 -6.10045e-19 0)
(3 -4.41253e-16 0)
(3 -6.92275e-16 0)
(3 -5.69125e-16 0)
(3 -2.33272e-16 0)
(3 -6.13585e-16 0)
(3 -5.27045e-16 0)
(3 6.78599e-16 0)
(3 1.34488e-15 0)
(3 1.34993e-15 0)
(3 8.78995e-16 0)
(3 4.7012e-16 0)
(3 1.01489e-16 0)
(3 1.30742e-17 0)
(3 2.04297e-17 0)
(3 7.56389e-17 0)
(3 2.75604e-16 0)
(3 1.09355e-16 0)
(3 -4.79337e-16 0)
(3 -5.71915e-16 0)
(3 -4.96951e-16 0)
(3 -6.31916e-16 0)
(3 -1.02008e-15 0)
(3 -1.81478e-15 0)
(3.00406 0.00155305 0)
(1.20544 0.28325 0)
(0.798031 0.262223 0)
(0.78554 0.2891 0)
(0.759279 0.299151 0)
(0.734657 0.306383 0)
(0.709777 0.314566 0)
(0.683831 0.323414 0)
(0.654765 0.332997 0)
(0.621418 0.340849 0)
(0.584938 0.343494 0)
(0.546709 0.34496 0)
(0.509059 0.352034 0)
(0.472797 0.362874 0)
(0.43662 0.373474 0)
(0.400707 0.385503 0)
(0.365199 0.400678 0)
(0.329231 0.419214 0)
(0.290279 0.439566 0)
(0.247276 0.461574 0)
(0.198127 0.480761 0)
(0.145979 0.503702 0)
(0.0884136 0.520597 0)
(0.0303518 0.538921 0)
(3 -7.7067e-17 0)
(3 -5.51887e-17 0)
(3 2.32567e-16 0)
(3 3.45138e-16 0)
(3 -1.83531e-16 0)
(3 5.74719e-18 0)
(3 -7.62366e-17 0)
(3 7.6459e-16 0)
(3 8.87038e-16 0)
(3 8.47983e-16 0)
(3 1.01929e-15 0)
(3 -9.84777e-17 0)
(3 -9.01373e-16 0)
(3 -1.97436e-16 0)
(3 1.44332e-15 0)
(3 1.78124e-15 0)
(3 1.56717e-15 0)
(3 1.56199e-15 0)
(3 9.04858e-16 0)
(3 2.00549e-16 0)
(3 -5.30469e-16 0)
(3 -7.34487e-16 0)
(3 3.69072e-16 0)
(3 4.98715e-16 0)
(3 8.14419e-16 0)
(3 6.89066e-16 0)
(3 -2.94495e-16 0)
(3 -1.31195e-15 0)
(3 -9.90193e-16 0)
(3 -6.94014e-16 0)
(3 -5.92476e-16 0)
(3 3.36698e-16 0)
(3 1.15466e-15 0)
(3 1.08858e-15 0)
(3 5.67991e-16 0)
(3 5.55784e-16 0)
(3 4.30601e-16 0)
(3 2.50211e-16 0)
(3 3.34803e-16 0)
(3 4.71196e-16 0)
(3 7.76965e-16 0)
(3 8.34487e-16 0)
(3 1.21074e-15 0)
(3 1.0507e-15 0)
(3 2.8801e-16 0)
(3 3.75695e-17 0)
(3 -4.58446e-16 0)
(3 -2.53937e-16 0)
(3 1.37006e-16 0)
(3 4.35129e-16 0)
(3 3.98176e-16 0)
(3 8.04227e-16 0)
(3 8.9296e-16 0)
(3 3.88213e-16 0)
(3 -3.01637e-16 0)
(3 -3.37596e-16 0)
(3 1.35298e-16 0)
(3 6.0678e-16 0)
(3 3.85315e-16 0)
(3 2.27751e-16 0)
(3 -2.24152e-16 0)
(3 -2.38012e-16 0)
(3 -2.43614e-16 0)
(3 -2.03639e-16 0)
(3 -4.83641e-16 0)
(3 -5.35795e-16 0)
(3 -3.20412e-16 0)
(3 4.40699e-19 0)
(3 1.91979e-16 0)
(3 4.90521e-16 0)
(3 4.94112e-16 0)
(3 -7.10151e-16 0)
(3.00005 1.70255e-06 0)
(1.36834 0.311081 0)
(0.795921 0.276168 0)
(0.763891 0.300837 0)
(0.740851 0.314823 0)
(0.719772 0.324388 0)
(0.700957 0.33509 0)
(0.682493 0.346699 0)
(0.664552 0.359761 0)
(0.642187 0.370626 0)
(0.613196 0.377218 0)
(0.579161 0.381214 0)
(0.54281 0.388938 0)
(0.505942 0.40043 0)
(0.46832 0.4118 0)
(0.430516 0.424104 0)
(0.393206 0.439864 0)
(0.355613 0.460832 0)
(0.316353 0.485498 0)
(0.274058 0.513329 0)
(0.225076 0.538016 0)
(0.171691 0.566607 0)
(0.107035 0.590511 0)
(0.0388786 0.613223 0)
(3 6.42816e-17 0)
(3 9.22216e-17 0)
(3 1.24341e-16 0)
(3 -5.84111e-16 0)
(3 -5.92203e-16 0)
(3 -7.31273e-16 0)
(3 -6.73079e-16 0)
(3 -2.66304e-16 0)
(3 7.83983e-16 0)
(3 1.14144e-15 0)
(3 3.22853e-16 0)
(3 -4.10559e-16 0)
(3 -5.25632e-16 0)
(3 -3.38507e-17 0)
(3 8.32097e-16 0)
(3 1.64118e-15 0)
(3 2.19766e-15 0)
(3 1.78142e-15 0)
(3 3.40994e-16 0)
(3 -7.67617e-17 0)
(3 1.3949e-16 0)
(3 -2.98928e-16 0)
(3 -3.14993e-16 0)
(3 4.01876e-16 0)
(3 4.34027e-17 0)
(3 -4.12084e-16 0)
(3 -8.16738e-16 0)
(3 -1.19528e-15 0)
(3 -1.02771e-15 0)
(3 -3.60672e-16 0)
(3 -2.24167e-16 0)
(3 -4.27155e-16 0)
(3 -2.52779e-16 0)
(3 4.61334e-16 0)
(3 -2.66887e-16 0)
(3 -3.65223e-17 0)
(3 1.05516e-15 0)
(3 1.00668e-15 0)
(3 4.70852e-16 0)
(3 2.00344e-16 0)
(3 6.20476e-16 0)
(3 8.7669e-16 0)
(3 3.95585e-16 0)
(3 5.53149e-17 0)
(3 2.92315e-16 0)
(3 -7.83578e-16 0)
(3 -2.41397e-15 0)
(3 -1.93671e-15 0)
(3 -1.1287e-15 0)
(3 5.38551e-17 0)
(3 6.42009e-16 0)
(3 9.17079e-16 0)
(3 1.10705e-15 0)
(3 7.74137e-16 0)
(3 -2.12281e-16 0)
(3 -1.87919e-17 0)
(3 3.23129e-16 0)
(3 -2.45295e-16 0)
(3 -5.66542e-16 0)
(3 -3.07137e-16 0)
(3 -3.90185e-16 0)
(3 -1.59863e-16 0)
(3 -8.93183e-16 0)
(3 -1.30154e-15 0)
(3 -8.48082e-16 0)
(3 -8.10861e-17 0)
(3 8.59365e-16 0)
(3 1.17685e-15 0)
(3 6.46419e-16 0)
(3 4.0809e-17 0)
(3 5.61195e-17 0)
(3 -7.05724e-16 0)
(3 -2.52044e-09 0)
(1.6339 0.347614 0)
(0.814029 0.321952 0)
(0.741478 0.321338 0)
(0.720753 0.329383 0)
(0.702591 0.335501 0)
(0.687362 0.345095 0)
(0.673511 0.35828 0)
(0.659551 0.374312 0)
(0.646496 0.392147 0)
(0.627353 0.405458 0)
(0.601895 0.414676 0)
(0.571803 0.425434 0)
(0.53873 0.439225 0)
(0.502758 0.452473 0)
(0.464871 0.465906 0)
(0.426305 0.482226 0)
(0.388416 0.50475 0)
(0.349533 0.532453 0)
(0.308037 0.566295 0)
(0.256419 0.601099 0)
(0.195511 0.642273 0)
(0.123147 0.681912 0)
(0.0390575 0.709369 0)
(3 -1.33719e-17 0)
(3 -5.53252e-16 0)
(3 -8.69051e-16 0)
(3 -8.25325e-16 0)
(3 -2.195e-16 0)
(3 -2.03494e-16 0)
(3 -5.62845e-16 0)
(3 -9.37087e-16 0)
(3 -4.4217e-16 0)
(3 -9.03919e-16 0)
(3 -1.24488e-15 0)
(3 -9.8488e-16 0)
(3 -1.03886e-16 0)
(3 1.12837e-16 0)
(3 1.58513e-16 0)
(3 7.60952e-16 0)
(3 5.346e-16 0)
(3 3.86931e-16 0)
(3 1.4837e-16 0)
(3 3.57852e-16 0)
(3 4.75875e-16 0)
(3 1.28895e-16 0)
(3 -9.4627e-17 0)
(3 -1.28646e-16 0)
(3 -8.00276e-16 0)
(3 -1.12027e-15 0)
(3 -1.54629e-15 0)
(3 -1.22464e-15 0)
(3 -1.49e-15 0)
(3 -1.56034e-15 0)
(3 -1.14453e-15 0)
(3 -6.39302e-16 0)
(3 -2.55291e-17 0)
(3 4.97263e-16 0)
(3 9.05187e-16 0)
(3 9.55968e-16 0)
(3 9.55669e-16 0)
(3 8.92261e-16 0)
(3 4.31328e-16 0)
(3 -2.41737e-16 0)
(3 -9.15241e-16 0)
(3 -1.25132e-15 0)
(3 -1.24327e-15 0)
(3 -6.92757e-16 0)
(3 -6.17524e-16 0)
(3 -1.09746e-15 0)
(3 -1.3527e-15 0)
(3 -1.4036e-15 0)
(3 -8.6861e-16 0)
(3 -9.40506e-16 0)
(3 -6.60212e-16 0)
(3 -6.64783e-16 0)
(3 -8.6303e-17 0)
(3 1.02709e-15 0)
(3 1.24833e-15 0)
(3 1.68193e-15 0)
(3 1.49108e-15 0)
(3 4.97523e-16 0)
(3 -1.48309e-16 0)
(3 -1.05707e-15 0)
(3 -1.4364e-15 0)
(3 -1.493e-15 0)
(3 -1.54452e-15 0)
(3 -1.72798e-15 0)
(3 -7.40761e-16 0)
(3 -4.37723e-16 0)
(3 6.36857e-17 0)
(3 1.61407e-16 0)
(3 1.20646e-16 0)
(3 -8.74091e-16 0)
(3 -1.95918e-15 0)
(3 -1.72867e-15 0)
(3 -3.19806e-09 0)
(2.0235 0.378435 0)
(0.859289 0.390028 0)
(0.750147 0.360584 0)
(0.725852 0.352729 0)
(0.704588 0.35394 0)
(0.687337 0.361769 0)
(0.672385 0.373482 0)
(0.658354 0.388184 0)
(0.645816 0.405973 0)
(0.633369 0.424461 0)
(0.615842 0.440071 0)
(0.593824 0.455734 0)
(0.568078 0.473656 0)
(0.537443 0.491211 0)
(0.502927 0.507908 0)
(0.465426 0.525729 0)
(0.428047 0.549807 0)
(0.389372 0.581311 0)
(0.34915 0.623783 0)
(0.302212 0.672464 0)
(0.247023 0.72482 0)
(0.178084 0.779451 0)
(0.069456 0.82852 0)
(3 1.54787e-16 0)
(3 1.40302e-16 0)
(3 -1.00921e-16 0)
(3 3.61232e-16 0)
(3 7.24327e-16 0)
(3 1.1451e-15 0)
(3 1.16461e-15 0)
(3 6.17433e-16 0)
(3 -9.80808e-16 0)
(3 -1.22423e-15 0)
(3 -1.12156e-15 0)
(3 -1.02025e-15 0)
(3 -1.59951e-15 0)
(3 -1.70544e-15 0)
(3 -1.70008e-15 0)
(3 -6.26724e-16 0)
(3 -6.45723e-16 0)
(3 -3.53319e-16 0)
(3 -2.27886e-16 0)
(3 9.33916e-16 0)
(3 8.718e-16 0)
(3 8.25725e-16 0)
(3 5.37642e-16 0)
(3 -6.65497e-16 0)
(3 -1.47935e-15 0)
(3 -1.54649e-15 0)
(3 -1.55071e-15 0)
(3 -1.28314e-15 0)
(3 -9.56234e-16 0)
(3 -1.33119e-15 0)
(3 -3.46738e-16 0)
(3 2.76823e-16 0)
(3 9.04763e-16 0)
(3 1.47887e-15 0)
(3 2.04044e-15 0)
(3 1.63711e-15 0)
(3 6.59964e-16 0)
(3 2.98546e-18 0)
(3 -4.12639e-16 0)
(3 -1.52779e-15 0)
(3 -1.86182e-15 0)
(3 -1.70101e-15 0)
(3 -8.32965e-16 0)
(3 -1.84145e-16 0)
(3 -6.47948e-16 0)
(3 -9.97617e-16 0)
(3 -1.03913e-15 0)
(3 -1.53838e-15 0)
(3 -1.10832e-15 0)
(3 -8.62662e-16 0)
(3 5.68984e-19 0)
(3 8.63485e-17 0)
(3 2.44862e-16 0)
(3 6.55091e-16 0)
(3 2.01141e-15 0)
(3 1.65908e-15 0)
(3 4.84919e-16 0)
(3 -1.36098e-16 0)
(3 -6.73769e-16 0)
(3 -1.55786e-15 0)
(3 -2.03129e-15 0)
(3 -2.44158e-15 0)
(3 -2.01591e-15 0)
(3 -1.19733e-15 0)
(3 -1.01883e-15 0)
(3 -8.49451e-16 0)
(3 -9.20656e-17 0)
(3 -1.88014e-16 0)
(3 -9.44146e-16 0)
(3 -1.61265e-15 0)
(3 -1.58827e-15 0)
(3 -6.81179e-16 0)
(3 -6.90257e-10 0)
(2.58531 0.328733 0)
(0.964329 0.445437 0)
(0.81824 0.377555 0)
(0.783662 0.368075 0)
(0.74531 0.374567 0)
(0.713213 0.380664 0)
(0.688286 0.391522 0)