/*--------------------------------*- C++ -*----------------------------------*\
  =========                 |
  \\      /  F ield         | OpenFOAM: The Open Source CFD Toolbox
   \\    /   O peration     | Website:  https://openfoam.org
    \\  /    A nd           | Version:  7
     \\/     M anipulation  |
\*---------------------------------------------------------------------------*/
FoamFile
{
    version     2.0;
    format      ascii;
    class       volVectorField;
    location    "3.4";
    object      U;
}
// * * * * * * * * * * * * * * * * * * * * * * * * * * * * * * * * * * * * * //

dimensions      [0 1 -1 0 0 0 0];

internalField   nonuniform List<vector> 
16512
(
(0.741421 -0.0016154 0)
(0.7427 -0.00194412 0)
(0.74258 -0.00223527 0)
(0.7402 -0.00223999 0)
(0.736706 -0.00220925 0)
(0.73439 -0.00202035 0)
(0.734049 -0.00173624 0)
(0.734727 -0.00146378 0)
(0.736247 -0.00108083 0)
(0.739332 -0.000640969 0)
(0.744504 -0.00028075 0)
(0.751502 -1.00299e-06 0)
(0.759085 0.000250622 0)
(0.765726 0.000409905 0)
(0.771224 0.00030544 0)
(0.77613 3.99114e-06 0)
(0.780795 -0.000370241 0)
(0.785274 -0.000716929 0)
(0.788842 -0.00111251 0)
(0.790944 -0.00177824 0)
(0.791797 -0.00251232 0)
(0.792083 -0.0034585 0)
(0.791595 -0.00435889 0)
(0.790308 -0.00486864 0)
(0.788733 -0.00456932 0)
(0.788518 -0.00364024 0)
(0.789931 -0.00271962 0)
(0.793609 -0.00155277 0)
(0.799461 -0.000725055 0)
(0.807442 -0.000616591 0)
(0.815456 -0.000826575 0)
(0.822458 -0.00125514 0)
(0.829184 -0.00187519 0)
(0.836 -0.0025766 0)
(0.842652 -0.0031001 0)
(0.848267 -0.0035194 0)
(0.852142 -0.0037273 0)
(0.85416 -0.00375063 0)
(0.85498 -0.00362546 0)
(0.853592 -0.00324074 0)
(0.850255 -0.00244757 0)
(0.848002 -0.0017045 0)
(0.848747 -0.002037 0)
(0.849967 -0.00250631 0)
(0.850663 -0.00239462 0)
(0.851206 -0.00184206 0)
(0.852919 -0.0011019 0)
(0.856853 0.00033041 0)
(0.863666 0.00156547 0)
(0.873793 0.00206662 0)
(0.884179 0.00199448 0)
(0.891983 0.00171171 0)
(0.897105 0.00117499 0)
(0.900378 0.000342572 0)
(0.902594 -0.000543876 0)
(0.903995 -0.000881831 0)
(0.905499 -0.00117742 0)
(0.907195 -0.0018583 0)
(0.908901 -0.00269902 0)
(0.910453 -0.00342553 0)
(0.911643 -0.00383435 0)
(0.912185 -0.00392141 0)
(0.912898 -0.00355568 0)
(0.914482 -0.00300345 0)
(0.916843 -0.00247685 0)
(0.92047 -0.00188123 0)
(0.924969 -0.00152813 0)
(0.929501 -0.00129243 0)
(0.933941 -0.00105867 0)
(0.939102 -0.000963357 0)
(0.94545 -0.00102618 0)
(0.951568 -0.0012324 0)
(0.955716 -0.00149068 0)
(0.958274 -0.00176082 0)
(0.959824 -0.0019185 0)
(0.960777 -0.00199835 0)
(0.960753 -0.00188224 0)
(0.960493 -0.00140298 0)
(0.961016 -0.000681982 0)
(0.962275 -8.66458e-05 0)
(0.964145 0.000228119 0)
(0.967667 0.000293533 0)
(0.973546 1.2934e-05 0)
(0.982138 -0.000791232 0)
(0.991804 -0.00256885 0)
(0.999361 -0.00424272 0)
(1.00391 -0.00518272 0)
(1.00599 -0.00574266 0)
(1.00489 -0.00577227 0)
(0.999744 -0.00458331 0)
(0.995534 -0.00209139 0)
(0.994857 0.000426355 0)
(0.996261 0.00154533 0)
(0.999103 0.00202013 0)
(1.00428 0.00200521 0)
(1.01089 0.00173027 0)
(1.01652 0.00107087 0)
(1.02042 0.000301359 0)
(1.02314 -0.000172839 0)
(1.02508 -7.04948e-05 0)
(1.02663 0.000608641 0)
(1.02833 0.00131538 0)
(1.03138 0.0018341 0)
(1.0375 0.00216514 0)
(1.04765 0.00224985 0)
(1.05841 0.0020562 0)
(1.06578 0.00117967 0)
(1.06958 -0.000696813 0)
(1.07173 -0.00272193 0)
(1.07283 -0.00429129 0)
(1.07017 -0.00531954 0)
(1.06075 -0.00571689 0)
(1.0495 -0.00555463 0)
(1.04347 -0.00447104 0)
(1.04252 -0.00293859 0)
(1.04388 -0.00104292 0)
(1.04623 0.000852563 0)
(1.05023 0.00251113 0)
(1.05784 0.00352724 0)
(1.06865 0.00375225 0)
(1.07941 0.00355426 0)
(1.08789 0.00307617 0)
(1.09411 0.00195195 0)
(1.09885 -3.30177e-05 0)
(1.10259 -0.00241981 0)
(1.10549 -0.00450173 0)
(1.10733 -0.00567456 0)
(1.10715 -0.0065347 0)
(1.10383 -0.0066946 0)
(1.09779 -0.00552484 0)
(1.09158 -0.00323648 0)
(1.0873 -0.000334238 0)
(1.08542 0.00188325 0)
(1.08561 0.00283444 0)
(1.08686 0.00313458 0)
(1.08966 0.00336677 0)
(1.09445 0.00334685 0)
(1.10103 0.00267593 0)
(1.10874 0.00112034 0)
(1.11663 -0.000533418 0)
(1.12327 -0.00124311 0)
(1.12812 -0.000992749 0)
(1.13175 2.53049e-06 0)
(1.13484 0.00103263 0)
(1.1376 0.00186215 0)
(1.13988 0.00224916 0)
(1.14172 0.0022928 0)
(1.14294 0.00193185 0)
(1.14362 0.00047006 0)
(1.14462 -0.00215254 0)
(1.14588 -0.00473169 0)
(1.14703 -0.00659759 0)
(1.14822 -0.00779013 0)
(1.14876 -0.00821272 0)
(1.14778 -0.00727663 0)
(1.14656 -0.00484644 0)
(1.14694 -0.00147602 0)
(1.14838 0.0016974 0)
(1.15083 0.00378291 0)
(1.15436 0.00476648 0)
(1.15869 0.00506206 0)
(1.16378 0.00487057 0)
(1.16978 0.00354488 0)
(1.17612 0.000656156 0)
(1.1812 -0.00284457 0)
(1.18401 -0.00525852 0)
(1.18529 -0.00636737 0)
(1.18368 -0.00696699 0)
(1.17774 -0.00598222 0)
(1.17173 -0.00356517 0)
(1.16969 -0.000320093 0)
(1.17049 0.0015446 0)
(1.17327 0.00228973 0)
(1.17936 0.00255345 0)
(1.18924 0.00244762 0)
(1.20164 0.00102147 0)
(1.21345 -0.00162998 0)
(1.22076 -0.00338009 0)
(1.2244 -0.0037661 0)
(1.22627 -0.00283897 0)
(1.22607 -0.000976446 0)
(1.22477 0.00139693 0)
(1.22409 0.00320736 0)
(1.22494 0.00383889 0)
(1.22694 0.00399838 0)
(1.23034 0.0033884 0)
(1.23567 0.00137668 0)
(1.24264 -0.00185606 0)
(1.25038 -0.0052934 0)
(1.25723 -0.00789826 0)
(1.26232 -0.0092811 0)
(1.26542 -0.0097264 0)
(1.26587 -0.0092351 0)
(1.26444 -0.00742359 0)
(1.26546 -0.00513278 0)
(1.26859 -0.00300395 0)
(1.2727 -0.000622753 0)
(1.27785 0.00168164 0)
(1.28344 0.00309805 0)
(1.2884 0.00363352 0)
(1.2926 0.00367179 0)
(1.29671 0.00344705 0)
(1.30099 0.00257554 0)
(1.30542 8.51959e-05 0)
(1.30972 -0.0033582 0)
(1.3127 -0.00565513 0)
(1.31441 -0.00697231 0)
(1.31329 -0.00751298 0)
(1.30911 -0.00615767 0)
(1.30569 -0.00269593 0)
(1.30567 0.0017671 0)
(1.30814 0.00466196 0)
(1.31259 0.00657145 0)
(1.32096 0.00753879 0)
(1.33179 0.0077987 0)
(1.34138 0.0067984 0)
(1.34874 0.00423219 0)
(1.35412 0.000312609 0)
(1.35801 -0.00374727 0)
(1.3606 -0.00636767 0)
(1.36207 -0.00802515 0)
(1.36114 -0.00870848 0)
(1.35827 -0.00747205 0)
(1.35655 -0.00422287 0)
(1.35762 -0.000803391 0)
(1.36028 0.00084699 0)
(1.36468 0.0016526 0)
(1.37203 0.00151862 0)
(1.37961 -0.000221727 0)
(1.38576 -0.00282469 0)
(1.3902 -0.00520093 0)
(1.39347 -0.00685784 0)
(1.39588 -0.0080426 0)
(1.39562 -0.00891413 0)
(1.39248 -0.00843316 0)
(1.38899 -0.00631932 0)
(1.38709 -0.00287538 0)
(1.38616 0.00131572 0)
(1.3867 0.00479944 0)
(1.38866 0.00681022 0)
(1.39159 0.00805255 0)
(1.39657 0.00895722 0)
(1.40334 0.00968534 0)
(1.41071 0.0102648 0)
(1.4186 0.0102201 0)
(1.42754 0.0087862 0)
(1.43694 0.00536097 0)
(1.4446 -1.68352e-05 0)
(1.44944 -0.00581231 0)
(1.45203 -0.00986557 0)
(1.45296 -0.0125954 0)
(1.44986 -0.014225 0)
(1.4428 -0.0142585 0)
(1.4334 -0.0117861 0)
(1.42532 -0.00676127 0)
(1.42129 -0.000309457 0)
(1.41995 0.00673598 0)
(1.42239 0.0091586 0)
(0.742299 -0.00243418 0)
(0.743373 -0.00326145 0)
(0.743403 -0.00444597 0)
(0.742103 -0.00528996 0)
(0.739637 -0.00514982 0)
(0.73747 -0.00471656 0)
(0.737162 -0.0043123 0)
(0.737793 -0.00407867 0)
(0.739352 -0.00376289 0)
(0.742488 -0.00345253 0)
(0.747805 -0.00325934 0)
(0.755062 -0.00312788 0)
(0.763077 -0.00272411 0)
(0.770072 -0.00177738 0)
(0.775456 -0.000600866 0)
(0.779975 0.000235716 0)
(0.784135 0.000522766 0)
(0.788038 0.000339736 0)
(0.791113 -0.000232574 0)
(0.792591 -0.00099058 0)
(0.792916 -0.00206238 0)
(0.791892 -0.00398639 0)
(0.790295 -0.00697076 0)
(0.789578 -0.0102673 0)
(0.7904 -0.0122157 0)
(0.792258 -0.0121047 0)
(0.795401 -0.00977158 0)
(0.800078 -0.00592158 0)
(0.805796 -0.00206518 0)
(0.812149 0.000116843 0)
(0.818614 -3.5204e-05 0)
(0.825 -0.00126659 0)
(0.831243 -0.0029942 0)
(0.837684 -0.00524018 0)
(0.844617 -0.00755741 0)
(0.850539 -0.00944433 0)
(0.854632 -0.0108428 0)
(0.856689 -0.0116042 0)
(0.857925 -0.0120351 0)
(0.857827 -0.0113599 0)
(0.855752 -0.00908202 0)
(0.852356 -0.0061942 0)
(0.84963 -0.00523936 0)
(0.849606 -0.00656542 0)
(0.850887 -0.00831685 0)
(0.852731 -0.00865964 0)
(0.856193 -0.00748082 0)
(0.861783 -0.00469047 0)
(0.869428 -0.000695694 0)
(0.878666 0.00326008 0)
(0.887559 0.0056837 0)
(0.894028 0.00602707 0)
(0.898175 0.00493642 0)
(0.901181 0.00334321 0)
(0.903633 0.00169967 0)
(0.905639 0.000280669 0)
(0.907012 -0.000678834 0)
(0.907891 -0.00195175 0)
(0.908754 -0.00408448 0)
(0.909877 -0.00690141 0)
(0.91152 -0.00975504 0)
(0.913811 -0.0117261 0)
(0.916269 -0.012213 0)
(0.918921 -0.0110755 0)
(0.921965 -0.00875947 0)
(0.92531 -0.00619864 0)
(0.92886 -0.00411674 0)
(0.932552 -0.00254147 0)
(0.936789 -0.00122465 0)
(0.941722 -0.000314904 0)
(0.947686 -0.000260597 0)
(0.953675 -0.00119525 0)
(0.957923 -0.00269049 0)
(0.960449 -0.00416989 0)
(0.961792 -0.00543173 0)
(0.962703 -0.00647849 0)
(0.963185 -0.00681514 0)
(0.96347 -0.00634064 0)
(0.964334 -0.00503814 0)
(0.965841 -0.00326601 0)
(0.968006 -0.00128323 0)
(0.971374 0.000585464 0)
(0.976404 0.00163538 0)
(0.983807 0.00152716 0)
(0.992423 0.000286339 0)
(0.998267 -0.00307408 0)
(1.00137 -0.0073917 0)
(1.0027 -0.0118807 0)
(1.00263 -0.0157333 0)
(1.00236 -0.0162151 0)
(1.00157 -0.0125309 0)
(1.00059 -0.00682541 0)
(1.00098 -0.00137643 0)
(1.00324 0.00266102 0)
(1.00685 0.00529114 0)
(1.01148 0.00591543 0)
(1.01598 0.00453331 0)
(1.01964 0.00187157 0)
(1.02295 -0.000794086 0)
(1.02605 -0.00226948 0)
(1.02877 -0.00215968 0)
(1.03142 -0.000671624 0)
(1.03519 0.00174922 0)
(1.04127 0.00433913 0)
(1.05067 0.0061663 0)
(1.06085 0.00659542 0)
(1.06731 0.0057719 0)
(1.0704 0.00424799 0)
(1.07194 0.00220671 0)
(1.07167 -0.000750069 0)
(1.06748 -0.00518823 0)
(1.05769 -0.0102107 0)
(1.04824 -0.0132712 0)
(1.04506 -0.0138793 0)
(1.04581 -0.0121377 0)
(1.04782 -0.0093523 0)
(1.05106 -0.00591562 0)
(1.0561 -0.00178318 0)
(1.06366 0.00264053 0)
(1.07353 0.00642051 0)
(1.08316 0.00864932 0)
(1.09062 0.00908498 0)
(1.09579 0.00808887 0)
(1.09947 0.0060914 0)
(1.10202 0.00330762 0)
(1.10379 -0.000378225 0)
(1.10438 -0.00535138 0)
(1.10328 -0.0110898 0)
(1.10113 -0.0158529 0)
(1.09886 -0.017509 0)
(1.09636 -0.0151163 0)
(1.09338 -0.0101399 0)
(1.0911 -0.00402022 0)
(1.09004 0.00167653 0)
(1.09061 0.00587834 0)
(1.09253 0.00847531 0)
(1.09581 0.00963443 0)
(1.10083 0.00911915 0)
(1.1073 0.00712852 0)
(1.11484 0.00347118 0)
(1.12278 -0.000640703 0)
(1.12925 -0.00307617 0)
(1.13419 -0.0034168 0)
(1.1384 -0.00180406 0)
(1.14167 0.00085756 0)
(1.144 0.00368801 0)
(1.14525 0.00577067 0)
(1.14565 0.00683024 0)
(1.14539 0.00701081 0)
(1.14458 0.00520069 0)
(1.1439 0.00112044 0)
(1.14367 -0.00487654 0)
(1.14404 -0.0115282 0)
(1.14559 -0.0173163 0)
(1.1478 -0.0204992 0)
(1.15016 -0.0198354 0)
(1.15294 -0.0154992 0)
(1.15586 -0.00870472 0)
(1.15847 -0.000637033 0)
(1.16124 0.0065849 0)
(1.16431 0.0113866 0)
(1.16816 0.0135353 0)
(1.17265 0.0134108 0)
(1.1763 0.0105022 0)
(1.17906 0.00537193 0)
(1.18092 -0.00142051 0)
(1.18121 -0.00876033 0)
(1.17984 -0.015719 0)
(1.17791 -0.0192413 0)
(1.17728 -0.0170102 0)
(1.17667 -0.0112971 0)
(1.17673 -0.00405797 0)
(1.17887 0.00219572 0)
(1.18347 0.00651032 0)
(1.19103 0.00821912 0)
(1.20139 0.00699576 0)
(1.21114 0.00246764 0)
(1.21925 -0.00419684 0)
(1.22519 -0.00902284 0)
(1.22871 -0.0105681 0)
(1.23085 -0.00921508 0)
(1.23166 -0.00516541 0)
(1.23129 0.00078421 0)
(1.23092 0.00676071 0)
(1.23195 0.0104214 0)
(1.23428 0.0117887 0)
(1.23805 0.0114803 0)
(1.24254 0.00893743 0)
(1.24725 0.00401957 0)
(1.25224 -0.00348103 0)
(1.2571 -0.011954 0)
(1.26115 -0.0189098 0)
(1.26411 -0.0229249 0)
(1.26678 -0.0233287 0)
(1.26981 -0.0203719 0)
(1.27363 -0.016055 0)
(1.27845 -0.011361 0)
(1.28412 -0.00615709 0)
(1.28941 -0.000754907 0)
(1.29372 0.00394785 0)
(1.29734 0.0073564 0)
(1.30059 0.00922343 0)
(1.30354 0.00934125 0)
(1.30588 0.00798781 0)
(1.30758 0.00433671 0)
(1.30867 -0.00200296 0)
(1.30885 -0.00982887 0)
(1.30818 -0.0170791 0)
(1.30862 -0.0204303 0)
(1.31062 -0.0186051 0)
(1.31293 -0.0128117 0)
(1.31646 -0.00461747 0)
(1.32176 0.00476436 0)
(1.32901 0.0136457 0)
(1.33755 0.019385 0)
(1.34473 0.0215119 0)
(1.34881 0.019859 0)
(1.35169 0.0154863 0)
(1.35378 0.00844342 0)
(1.35562 -0.000712847 0)
(1.35688 -0.0101605 0)
(1.35881 -0.017224 0)
(1.36167 -0.0196498 0)
(1.36412 -0.0172992 0)
(1.3654 -0.0109699 0)
(1.36719 -0.00348487 0)
(1.37065 0.00261111 0)
(1.37515 0.00564324 0)
(1.3805 0.00579588 0)
(1.38474 0.00385325 0)
(1.38761 7.19964e-05 0)
(1.38977 -0.00563587 0)
(1.39106 -0.0124453 0)
(1.391 -0.0192451 0)
(1.39087 -0.0238107 0)
(1.39154 -0.0241959 0)
(1.3925 -0.0211457 0)
(1.39336 -0.0155231 0)
(1.39439 -0.00790664 0)
(1.39628 0.000168977 0)
(1.39965 0.00754956 0)
(1.4045 0.0141867 0)
(1.41063 0.0198824 0)
(1.41742 0.0244577 0)
(1.42458 0.0280175 0)
(1.4316 0.0293922 0)
(1.43776 0.0272532 0)
(1.44226 0.021762 0)
(1.4447 0.0137327 0)
(1.44552 0.00323947 0)
(1.44454 -0.00902044 0)
(1.44058 -0.021278 0)
(1.43568 -0.0307345 0)
(1.4327 -0.0342604 0)
(1.43118 -0.03116 0)
(1.43038 -0.0239311 0)
(1.4303 -0.0130378 0)
(1.43538 0.000860679 0)
(0.752024 -0.00816223 0)
(0.753485 -0.00784847 0)
(0.75397 -0.00683216 0)
(0.753194 -0.00500314 0)
(0.750783 -0.00266402 0)
(0.748099 -0.000530368 0)
(0.74744 0.000626333 0)
(0.74817 0.00104011 0)
(0.749939 0.00119358 0)
(0.753366 0.000883377 0)
(0.758746 8.74511e-05 0)
(0.766045 -0.00121979 0)
(0.774205 -0.00284466 0)
(0.781342 -0.00437192 0)
(0.786687 -0.00537357 0)
(0.791001 -0.0057715 0)
(0.794711 -0.00578627 0)
(0.79799 -0.00584607 0)
(0.800291 -0.0064374 0)
(0.801571 -0.00723399 0)
(0.801763 -0.0085197 0)
(0.800688 -0.0101282 0)
(0.799436 -0.0115989 0)
(0.799584 -0.012396 0)
(0.801177 -0.0127925 0)
(0.804175 -0.0128936 0)
(0.808568 -0.0119561 0)
(0.814137 -0.00973317 0)
(0.820125 -0.0066089 0)
(0.825645 -0.00343079 0)
(0.830536 -0.00119919 0)
(0.835076 -0.000969954 0)
(0.839821 -0.00269155 0)
(0.845752 -0.00542326 0)
(0.852933 -0.00864924 0)
(0.859505 -0.0117349 0)
(0.863842 -0.0139085 0)
(0.866081 -0.01497 0)
(0.867338 -0.0154455 0)
(0.867608 -0.0153206 0)
(0.866135 -0.0141577 0)
(0.862625 -0.0122173 0)
(0.858784 -0.0101847 0)
(0.857706 -0.00925506 0)
(0.858872 -0.00931995 0)
(0.86136 -0.00997889 0)
(0.865751 -0.0102337 0)
(0.872648 -0.0091638 0)
(0.88191 -0.00606739 0)
(0.891599 -0.00138559 0)
(0.89894 0.00268009 0)
(0.90346 0.0049436 0)
(0.906178 0.00566542 0)
(0.908165 0.00507306 0)
(0.910239 0.00340381 0)
(0.91192 0.00104039 0)
(0.912852 -0.00159912 0)
(0.913692 -0.00444398 0)
(0.914748 -0.00740785 0)
(0.916409 -0.0101681 0)
(0.918854 -0.0126358 0)
(0.921861 -0.01452 0)
(0.925203 -0.0154279 0)
(0.928856 -0.0151728 0)
(0.932471 -0.0137467 0)
(0.935652 -0.0115994 0)
(0.938612 -0.00929848 0)
(0.941888 -0.00713028 0)
(0.945922 -0.00505809 0)
(0.950747 -0.00297712 0)
(0.956086 -0.00133267 0)
(0.960956 -0.000727249 0)
(0.964324 -0.00129368 0)
(0.966239 -0.00262504 0)
(0.96743 -0.00427398 0)
(0.968437 -0.00613647 0)
(0.969146 -0.00772926 0)
(0.970008 -0.00882538 0)
(0.971466 -0.00921556 0)
(0.973433 -0.00896306 0)
(0.976123 -0.00785501 0)
(0.97966 -0.00594515 0)
(0.98441 -0.00360064 0)
(0.990194 -0.00208363 0)
(0.995831 -0.00331013 0)
(1.0001 -0.00699696 0)
(1.00323 -0.0117684 0)
(1.00564 -0.0158011 0)
(1.0077 -0.0183423 0)
(1.00944 -0.018884 0)
(1.01075 -0.0175338 0)
(1.01156 -0.0130801 0)
(1.01225 -0.00647787 0)
(1.01342 0.00026266 0)
(1.01523 0.00528491 0)
(1.01725 0.00764313 0)
(1.01906 0.00747713 0)
(1.02129 0.00503515 0)
(1.02453 0.00165079 0)
(1.02838 -0.00187522 0)
(1.03264 -0.00453913 0)
(1.03756 -0.00521275 0)
(1.04323 -0.00355781 0)
(1.05021 -0.000118053 0)
(1.05883 0.0035508 0)
(1.06657 0.00548925 0)
(1.07082 0.00475554 0)
(1.07302 0.00269454 0)
(1.0738 -0.000574326 0)
(1.07212 -0.0052148 0)
(1.06699 -0.0105058 0)
(1.05985 -0.0138495 0)
(1.05409 -0.0142566 0)
(1.05271 -0.0126375 0)
(1.05425 -0.0112573 0)
(1.05665 -0.00949121 0)
(1.06049 -0.006879 0)
(1.06626 -0.00291331 0)
(1.07415 0.0021477 0)
(1.08288 0.00675349 0)
(1.09026 0.00908113 0)
(1.09515 0.00893463 0)
(1.09836 0.00727679 0)
(1.10088 0.00450652 0)
(1.1025 0.000730968 0)
(1.10326 -0.00392979 0)
(1.10355 -0.00875364 0)
(1.10363 -0.0129187 0)
(1.1035 -0.0159784 0)
(1.10349 -0.0172612 0)
(1.10308 -0.0167891 0)
(1.10203 -0.0140394 0)
(1.10088 -0.00944236 0)
(1.10026 -0.00379006 0)
(1.10027 0.00216412 0)
(1.10094 0.00742857 0)
(1.10254 0.0108083 0)
(1.10513 0.0118051 0)
(1.10949 0.0106891 0)
(1.11586 0.00829391 0)
(1.12353 0.00515681 0)
(1.13191 0.00180359 0)
(1.13903 -0.000920604 0)
(1.14412 -0.00225446 0)
(1.14797 -0.00193755 0)
(1.15062 -0.00055315 0)
(1.15214 0.00109742 0)
(1.15217 0.002913 0)
(1.14991 0.00336447 0)
(1.14625 0.00128927 0)
(1.14373 -0.00297972 0)
(1.1436 -0.0079454 0)
(1.14514 -0.0125655 0)
(1.14785 -0.0168713 0)
(1.15218 -0.0199096 0)
(1.15776 -0.0208362 0)
(1.16354 -0.0184853 0)
(1.16867 -0.0132897 0)
(1.17252 -0.00626754 0)
(1.17485 0.00156171 0)
(1.17576 0.00861775 0)
(1.17614 0.0128149 0)
(1.17723 0.0131617 0)
(1.17889 0.011107 0)
(1.18047 0.00617574 0)
(1.18122 -0.00106525 0)
(1.18167 -0.00954805 0)
(1.18266 -0.016764 0)
(1.18487 -0.0202646 0)
(1.18709 -0.0205728 0)
(1.18895 -0.0174445 0)
(1.19049 -0.010881 0)
(1.19221 -0.00238243 0)
(1.19501 0.00554864 0)
(1.19935 0.0099518 0)
(1.20514 0.00972205 0)
(1.21225 0.00625052 0)
(1.21961 0.000889362 0)
(1.22724 -0.00522419 0)
(1.23357 -0.0103908 0)
(1.23768 -0.0127568 0)
(1.23996 -0.0122384 0)
(1.24166 -0.00848971 0)
(1.24221 -0.00244253 0)
(1.24125 0.00369826 0)
(1.24046 0.00710532 0)
(1.24193 0.00684912 0)
(1.24452 0.00452784 0)
(1.2474 -0.000219006 0)
(1.25139 -0.00648777 0)
(1.25649 -0.0135143 0)
(1.26271 -0.0202292 0)
(1.2688 -0.0238998 0)
(1.27414 -0.0239604 0)
(1.27866 -0.0220995 0)
(1.28332 -0.0190516 0)
(1.28859 -0.014914 0)
(1.29437 -0.00991249 0)
(1.29966 -0.00452659 0)
(1.30354 0.000486667 0)
(1.30601 0.00471908 0)
(1.30731 0.00762698 0)
(1.30763 0.0084106 0)
(1.30753 0.00660401 0)
(1.30698 0.00241761 0)
(1.30642 -0.00417211 0)
(1.3068 -0.0113164 0)
(1.30915 -0.0169372 0)
(1.31323 -0.0198077 0)
(1.31871 -0.0199191 0)
(1.32454 -0.0161332 0)
(1.33083 -0.00836253 0)
(1.3374 0.00280319 0)
(1.3426 0.0138055 0)
(1.3451 0.0210466 0)
(1.3463 0.0230178 0)
(1.3476 0.0209486 0)
(1.34821 0.0152159 0)
(1.34857 0.00752593 0)
(1.34994 -0.000630051 0)
(1.35291 -0.00825887 0)
(1.35795 -0.0148232 0)
(1.36395 -0.019489 0)
(1.36943 -0.021601 0)
(1.37367 -0.0201786 0)
(1.37769 -0.0151159 0)
(1.38072 -0.00851416 0)
(1.38233 -0.00244661 0)
(1.38341 0.000859076 0)
(1.38477 0.000312105 0)
(1.38614 -0.00241869 0)
(1.38735 -0.0065417 0)
(1.38852 -0.012208 0)
(1.39034 -0.0175108 0)
(1.39294 -0.0213259 0)
(1.39624 -0.0233334 0)
(1.39956 -0.0230864 0)
(1.40296 -0.020052 0)
(1.40599 -0.0141915 0)
(1.40907 -0.00595681 0)
(1.41246 0.00425106 0)
(1.41609 0.0152654 0)
(1.42001 0.0249897 0)
(1.4241 0.0313641 0)
(1.42779 0.0333313 0)
(1.43089 0.0322762 0)
(1.43366 0.0282199 0)
(1.43584 0.0209954 0)
(1.43706 0.0107588 0)
(1.43736 -0.00162876 0)
(1.43715 -0.0142201 0)
(1.43729 -0.0242119 0)
(1.43822 -0.0300879 0)
(1.43969 -0.0313338 0)
(1.44211 -0.029682 0)
(1.44467 -0.0243812 0)
(1.44837 -0.0151443 0)
(1.45261 0.0020658 0)
(0.775202 -0.0160025 0)
(0.777222 -0.0163418 0)
(0.778273 -0.0157429 0)
(0.77842 -0.013838 0)
(0.777029 -0.010516 0)
(0.774344 -0.00603465 0)
(0.772544 -0.00193361 0)
(0.772939 0.000868664 0)
(0.774759 0.00318549 0)
(0.777778 0.00501558 0)
(0.782444 0.00581195 0)
(0.78893 0.00526521 0)
(0.796719 0.00335372 0)
(0.8042 0.000651905 0)
(0.810287 -0.00199923 0)
(0.815268 -0.00412963 0)
(0.819181 -0.00581735 0)
(0.822109 -0.00761217 0)
(0.823806 -0.00972657 0)
(0.824577 -0.012095 0)
(0.824276 -0.0145107 0)
(0.82332 -0.0162678 0)
(0.822946 -0.016507 0)
(0.823796 -0.0155306 0)
(0.825533 -0.0137805 0)
(0.828713 -0.0115852 0)
(0.833227 -0.00965345 0)
(0.838845 -0.00834011 0)
(0.844479 -0.00761396 0)
(0.849176 -0.00714687 0)
(0.853119 -0.00679454 0)
(0.85665 -0.00659334 0)
(0.860553 -0.00665547 0)
(0.865383 -0.00742511 0)
(0.871206 -0.00926366 0)
(0.877395 -0.0120102 0)
(0.882188 -0.0146459 0)
(0.885271 -0.0161036 0)
(0.886912 -0.016542 0)
(0.887657 -0.016703 0)
(0.886569 -0.0166145 0)
(0.883206 -0.0160974 0)
(0.879391 -0.0146272 0)
(0.877973 -0.0123042 0)
(0.878804 -0.010139 0)
(0.881217 -0.00828338 0)
(0.885324 -0.00676326 0)
(0.892558 -0.00570554 0)
(0.902708 -0.00463879 0)
(0.91231 -0.00358811 0)
(0.918501 -0.00288537 0)
(0.922487 -0.00222311 0)
(0.925045 -0.00129481 0)
(0.926809 -0.000395678 0)
(0.928259 0.000136039 0)
(0.929152 -0.000297134 0)
(0.929277 -0.00222269 0)
(0.929453 -0.00539781 0)
(0.930406 -0.0087058 0)
(0.932261 -0.0113969 0)
(0.934808 -0.0133881 0)
(0.938045 -0.0147283 0)
(0.941854 -0.0155641 0)
(0.94599 -0.0160186 0)
(0.949944 -0.0160339 0)
(0.953478 -0.0153558 0)
(0.956707 -0.0138495 0)
(0.960185 -0.0115559 0)
(0.964203 -0.00873449 0)
(0.968618 -0.0057284 0)
(0.972949 -0.00309074 0)
(0.976526 -0.00132833 0)
(0.978657 -0.000415348 0)
(0.97985 -0.000287368 0)
(0.980621 -0.000695531 0)
(0.981143 -0.00176348 0)
(0.981958 -0.00332924 0)
(0.983449 -0.0046871 0)
(0.985521 -0.00598534 0)
(0.988221 -0.00706213 0)
(0.991543 -0.00754782 0)
(0.995436 -0.00731766 0)
(0.999703 -0.00672743 0)
(1.00365 -0.00674975 0)
(1.00647 -0.00775197 0)
(1.00903 -0.00959932 0)
(1.01218 -0.0121157 0)
(1.01561 -0.0143803 0)
(1.01885 -0.0154922 0)
(1.02184 -0.0155219 0)
(1.02467 -0.0143436 0)
(1.02707 -0.0117134 0)
(1.02875 -0.00766335 0)
(1.0296 -0.00280878 0)
(1.02956 0.00163758 0)
(1.02931 0.00477481 0)
(1.02952 0.00653365 0)
(1.0307 0.00712699 0)
(1.03238 0.00656242 0)
(1.03524 0.00389337 0)
(1.04038 -0.000150916 0)
(1.04755 -0.00344866 0)
(1.05554 -0.00431723 0)
(1.06375 -0.0026682 0)
(1.07121 -0.000290757 0)
(1.07609 0.000275839 0)
(1.07885 -0.000462577 0)
(1.08028 -0.00206148 0)
(1.07964 -0.00501779 0)
(1.07671 -0.00946512 0)
(1.07268 -0.0141121 0)
(1.06946 -0.0164052 0)
(1.06737 -0.0149327 0)
(1.06644 -0.0112353 0)
(1.06705 -0.00763636 0)
(1.06915 -0.00459504 0)
(1.07299 -0.00126393 0)
(1.07919 0.00253647 0)
(1.08665 0.00587238 0)
(1.09327 0.00717849 0)
(1.09814 0.00633816 0)
(1.10184 0.0043652 0)
(1.10477 0.00219982 0)
(1.10684 0.00023771 0)
(1.10803 -0.00178253 0)
(1.10842 -0.00401361 0)
(1.1087 -0.00627957 0)
(1.10933 -0.00810589 0)
(1.11032 -0.00922298 0)
(1.11121 -0.0101441 0)
(1.11191 -0.0109534 0)
(1.11226 -0.0112187 0)
(1.11218 -0.0104976 0)
(1.1123 -0.00855346 0)
(1.11305 -0.00560805 0)
(1.11415 -0.00181152 0)
(1.11533 0.00256066 0)
(1.11706 0.00702195 0)
(1.12 0.0107027 0)
(1.12446 0.0127394 0)
(1.13064 0.0128255 0)
(1.13803 0.0108976 0)
(1.14516 0.00765218 0)
(1.15158 0.00412626 0)
(1.15683 0.000926979 0)
(1.16035 -0.00148343 0)
(1.16224 -0.0026885 0)
(1.16255 -0.00354374 0)
(1.15919 -0.00393198 0)
(1.15342 -0.00416072 0)
(1.14981 -0.0052162 0)
(1.14929 -0.00651331 0)
(1.15043 -0.00785093 0)
(1.15328 -0.00987298 0)
(1.15888 -0.0125139 0)
(1.16681 -0.0146915 0)
(1.17536 -0.015238 0)
(1.18253 -0.0136884 0)
(1.18729 -0.0105302 0)
(1.18992 -0.00689869 0)
(1.19086 -0.00277824 0)
(1.18983 0.00211429 0)
(1.18728 0.00597272 0)
(1.18581 0.0061136 0)
(1.18545 0.00329343 0)
(1.18534 -0.00121835 0)
(1.18625 -0.00619529 0)
(1.18928 -0.0107544 0)
(1.19454 -0.0151857 0)
(1.19995 -0.0180602 0)
(1.20476 -0.0179321 0)
(1.20844 -0.0145921 0)
(1.21131 -0.00886757 0)
(1.21344 -0.00192718 0)
(1.21482 0.00485059 0)
(1.21635 0.00929509 0)
(1.21906 0.00967406 0)
(1.22383 0.00695217 0)
(1.23067 0.00240132 0)
(1.23872 -0.0021373 0)
(1.24621 -0.00538091 0)
(1.25165 -0.00731426 0)
(1.25459 -0.00839872 0)
(1.2559 -0.00904558 0)
(1.25507 -0.00815185 0)
(1.25242 -0.00544404 0)
(1.2498 -0.00291794 0)
(1.24968 -0.00305986 0)
(1.25185 -0.0047501 0)
(1.25501 -0.00710321 0)
(1.25958 -0.0102494 0)
(1.26604 -0.0136159 0)
(1.27491 -0.0169442 0)
(1.28317 -0.0187464 0)
(1.28945 -0.0181231 0)
(1.29483 -0.015798 0)
(1.30037 -0.0125061 0)
(1.30603 -0.00888818 0)
(1.31064 -0.00584354 0)
(1.31364 -0.00379757 0)
(1.31566 -0.00204457 0)
(1.31622 -0.00014189 0)
(1.31478 0.00117356 0)
(1.31188 0.000866831 0)
(1.30932 -0.00172946 0)
(1.30827 -0.00495634 0)
(1.30927 -0.00783239 0)
(1.31205 -0.0104923 0)
(1.31798 -0.0136871 0)
(1.32619 -0.0154804 0)
(1.33518 -0.0145238 0)
(1.34407 -0.00994367 0)
(1.35061 -0.00349838 0)
(1.35448 0.00215857 0)
(1.356 0.00770663 0)
(1.35371 0.0131058 0)
(1.34938 0.0148884 0)
(1.34702 0.0121965 0)
(1.34757 0.0076693 0)
(1.34923 0.00299515 0)
(1.35215 -0.00155408 0)
(1.35713 -0.00645697 0)
(1.36431 -0.0119818 0)
(1.37281 -0.0167572 0)
(1.38049 -0.0194238 0)
(1.38584 -0.0201258 0)
(1.38952 -0.0189003 0)
(1.3921 -0.015753 0)
(1.39236 -0.0109086 0)
(1.39052 -0.00563461 0)
(1.38848 -0.00293361 0)
(1.38809 -0.00344291 0)
(1.389 -0.00527041 0)
(1.39096 -0.0077876 0)
(1.39454 -0.0108453 0)
(1.39934 -0.0139703 0)
(1.40443 -0.0166423 0)
(1.40967 -0.0177901 0)
(1.41512 -0.0157701 0)
(1.42056 -0.0100779 0)
(1.42545 -0.00226495 0)
(1.42935 0.00590052 0)
(1.43186 0.0140221 0)
(1.43203 0.0215357 0)
(1.43105 0.0258891 0)
(1.43136 0.0245546 0)
(1.43155 0.0187577 0)
(1.43106 0.0104225 0)
(1.43082 0.00175059 0)
(1.43164 -0.00570167 0)
(1.43346 -0.0119468 0)
(1.43644 -0.0162466 0)
(1.44049 -0.0187025 0)
(1.44582 -0.019154 0)
(1.45116 -0.0163278 0)
(1.45672 -0.0104293 0)
(1.46303 -0.00107161 0)
(1.46636 0.00737354 0)
(0.811682 -0.0157235 0)
(0.814285 -0.0164665 0)
(0.815803 -0.016502 0)
(0.81658 -0.0160525 0)
(0.816341 -0.01439 0)
(0.814419 -0.0110623 0)
(0.811959 -0.00672598 0)
(0.811688 -0.00312963 0)
(0.813385 -0.000599119 0)
(0.816424 0.00155453 0)
(0.82071 0.00298356 0)
(0.826445 0.00332021 0)
(0.833224 0.00209591 0)
(0.84006 -0.00071075 0)
(0.846092 -0.0043115 0)
(0.851179 -0.00784996 0)
(0.854888 -0.0110474 0)
(0.857283 -0.0140315 0)
(0.85848 -0.0167146 0)
(0.858784 -0.0191283 0)
(0.858477 -0.020912 0)
(0.858365 -0.0213088 0)
(0.85899 -0.02042 0)
(0.860218 -0.018778 0)
(0.862448 -0.0167688 0)
(0.865823 -0.0143875 0)
(0.87033 -0.0118821 0)
(0.875347 -0.00965916 0)
(0.879941 -0.00823739 0)
(0.883644 -0.00776167 0)
(0.886721 -0.00796162 0)
(0.889556 -0.00832223 0)
(0.892741 -0.00858018 0)
(0.896535 -0.00892888 0)
(0.900982 -0.00989718 0)
(0.905824 -0.011959 0)
(0.91056 -0.014835 0)
(0.914154 -0.0175247 0)
(0.916428 -0.0192582 0)
(0.91749 -0.0202705 0)
(0.916867 -0.0211006 0)
(0.914196 -0.0211126 0)
(0.911169 -0.0195892 0)
(0.909869 -0.0167834 0)
(0.91057 -0.0136263 0)
(0.912951 -0.0103048 0)
(0.917005 -0.00683553 0)
(0.923776 -0.00386296 0)
(0.932971 -0.00208636 0)
(0.941354 -0.00200767 0)
(0.94689 -0.00299877 0)
(0.950594 -0.00428337 0)
(0.953211 -0.00545027 0)
(0.954873 -0.00625191 0)
(0.955999 -0.00689584 0)
(0.956125 -0.00792717 0)
(0.95533 -0.00954897 0)
(0.954957 -0.0112941 0)
(0.955868 -0.012557 0)
(0.957539 -0.0134117 0)
(0.960075 -0.0142751 0)
(0.963477 -0.0149587 0)
(0.967329 -0.0155074 0)
(0.97121 -0.0161675 0)
(0.97495 -0.016888 0)
(0.978629 -0.0172162 0)
(0.982453 -0.0166993 0)
(0.986476 -0.0151292 0)
(0.990623 -0.0126122 0)
(0.994621 -0.00954514 0)
(0.998008 -0.00674682 0)
(1.00013 -0.00507306 0)
(1.00133 -0.00445963 0)
(1.00223 -0.00412717 0)
(1.00272 -0.00416352 0)
(1.00293 -0.00469428 0)
(1.00372 -0.00555944 0)
(1.00518 -0.0064705 0)
(1.00714 -0.00754813 0)
(1.00972 -0.00863356 0)
(1.01293 -0.00961796 0)
(1.01642 -0.0105884 0)
(1.01968 -0.0119591 0)
(1.02227 -0.0137831 0)
(1.02472 -0.0155505 0)
(1.02756 -0.0167319 0)
(1.03094 -0.0170713 0)
(1.03468 -0.0164353 0)
(1.03837 -0.0149745 0)
(1.04185 -0.012874 0)
(1.04521 -0.0102753 0)
(1.04806 -0.00744998 0)
(1.04994 -0.00482595 0)
(1.05064 -0.00255532 0)
(1.0497 -0.000506619 0)
(1.04775 0.000568586 0)
(1.04681 0.000613546 0)
(1.04763 0.00060326 0)
(1.04959 0.000752068 0)
(1.05219 0.000963257 0)
(1.0563 0.000518153 0)
(1.06293 -0.000990609 0)
(1.07215 -0.00224174 0)
(1.08156 -0.00236127 0)
(1.08741 -0.002909 0)
(1.0903 -0.00466092 0)
(1.09213 -0.00694372 0)
(1.0928 -0.00978195 0)
(1.0917 -0.0132496 0)
(1.08918 -0.0168981 0)
(1.08705 -0.0191707 0)
(1.08645 -0.0188869 0)
(1.08657 -0.0165518 0)
(1.08654 -0.0122232 0)
(1.08694 -0.00657001 0)
(1.08873 -0.00104062 0)
(1.09224 0.00385565 0)
(1.09729 0.00744373 0)
(1.10214 0.00843908 0)
(1.10572 0.00684487 0)
(1.10879 0.0035602 0)
(1.11186 -0.000682004 0)
(1.11482 -0.00517409 0)
(1.11768 -0.00921676 0)
(1.12017 -0.0121418 0)
(1.12228 -0.0133228 0)
(1.12424 -0.0128188 0)
(1.12591 -0.0107732 0)
(1.12698 -0.00827389 0)
(1.12736 -0.00611493 0)
(1.12727 -0.00478658 0)
(1.1271 -0.00468887 0)
(1.12732 -0.00558531 0)
(1.12811 -0.00662819 0)
(1.1294 -0.00725259 0)
(1.13103 -0.0074366 0)
(1.13311 -0.00668145 0)
(1.13603 -0.00440926 0)
(1.13987 -0.000680301 0)
(1.14469 0.00399731 0)
(1.15027 0.00852799 0)
(1.15568 0.0116242 0)
(1.16028 0.0118358 0)
(1.16448 0.00896929 0)
(1.16896 0.00387169 0)
(1.1726 -0.00162813 0)
(1.17432 -0.00642091 0)
(1.17402 -0.010725 0)
(1.1715 -0.0142943 0)
(1.16787 -0.0155546 0)
(1.16551 -0.0138891 0)
(1.16527 -0.0109813 0)
(1.16656 -0.00816527 0)
(1.16921 -0.00572982 0)
(1.17327 -0.00432153 0)
(1.17995 -0.00479582 0)
(1.18918 -0.00656094 0)
(1.19777 -0.0083988 0)
(1.20322 -0.0100074 0)
(1.20632 -0.0110178 0)
(1.20803 -0.0111265 0)
(1.2086 -0.00996445 0)
(1.2071 -0.00678908 0)
(1.20348 -0.002388 0)
(1.19948 0.000846395 0)
(1.19829 0.0014292 0)
(1.1997 0.000700829 0)
(1.20303 -0.00165611 0)
(1.2085 -0.00561999 0)
(1.21548 -0.00973657 0)
(1.22287 -0.0128242 0)
(1.22925 -0.0138857 0)
(1.23352 -0.012402 0)
(1.23579 -0.00930582 0)
(1.23689 -0.00481532 0)
(1.23668 0.000721737 0)
(1.23684 0.0056881 0)
(1.23905 0.00784749 0)
(1.24325 0.0070558 0)
(1.25 0.0028991 0)
(1.25699 -0.00356585 0)
(1.2621 -0.0103177 0)
(1.26546 -0.0154995 0)
(1.26711 -0.0185891 0)
(1.26779 -0.0204263 0)
(1.26736 -0.0202904 0)
(1.26581 -0.0176326 0)
(1.26399 -0.0135088 0)
(1.26412 -0.0101585 0)
(1.26648 -0.00837013 0)
(1.27042 -0.00706414 0)
(1.27657 -0.00649387 0)
(1.28445 -0.00743785 0)
(1.29306 -0.00938893 0)
(1.30143 -0.0104559 0)
(1.30861 -0.00939574 0)
(1.31459 -0.00727766 0)
(1.31928 -0.00586185 0)
(1.32256 -0.00569362 0)
(1.32483 -0.00598655 0)
(1.32644 -0.00664189 0)
(1.32634 -0.00770379 0)
(1.32419 -0.00881748 0)
(1.32078 -0.00921332 0)
(1.31755 -0.00838706 0)
(1.31687 -0.00715045 0)
(1.31847 -0.00602984 0)
(1.32095 -0.00449298 0)
(1.32545 -0.0030358 0)