/*--------------------------------*- C++ -*----------------------------------*\
  =========                 |
  \\      /  F ield         | OpenFOAM: The Open Source CFD Toolbox
   \\    /   O peration     | Website:  https://openfoam.org
    \\  /    A nd           | Version:  7
     \\/     M anipulation  |
\*---------------------------------------------------------------------------*/
FoamFile
{
    version     2.0;
    format      ascii;
    class       volScalarField;
    location    "3.5";
    object      p;
}
// * * * * * * * * * * * * * * * * * * * * * * * * * * * * * * * * * * * * * //

dimensions      [1 -1 -2 0 0 0 0];

internalField   nonuniform List<scalar> 
16512
(
4.96256
4.96145
4.96143
4.96269
4.96648
4.97441
4.98576
4.99621
5.00186
5.00308
5.0016
4.99853
4.99405
4.98474
4.96979
4.94474
4.91082
4.88051
4.86042
4.84908
4.84158
4.83996
4.84671
4.86356
4.89096
4.92293
4.94908
4.9629
4.96627
4.96355
4.95715
4.94795
4.93595
4.91479
4.87793
4.83745
4.81044
4.79194
4.77235
4.75144
4.73407
4.72115
4.71692
4.72503
4.74531
4.77315
4.7988
4.8141
4.81796
4.8119
4.8012
4.78875
4.77065
4.74293
4.70856
4.68029
4.66156
4.64769
4.63748
4.6334
4.63451
4.63811
4.64394
4.6538
4.67095
4.69597
4.72385
4.74404
4.75087
4.74327
4.72713
4.70412
4.67365
4.63947
4.60745
4.58093
4.55764
4.5357
4.51998
4.5096
4.50714
4.51585
4.53689
4.56551
4.59268
4.6114
4.6198
4.61919
4.60964
4.59329
4.56491
4.53607
4.51775
4.50597
4.49852
4.49462
4.49066
4.48578
4.47689
4.46229
4.43741
4.41106
4.3977
4.39227
4.39675
4.41053
4.43025
4.45131
4.46806
4.4763
4.47298
4.46051
4.44143
4.41763
4.40111
4.39131
4.38784
4.39082
4.39551
4.39524
4.38597
4.36888
4.34195
4.3103
4.28255
4.26547
4.25733
4.25291
4.25419
4.26189
4.27253
4.28104
4.28381
4.27933
4.27002
4.26265
4.26157
4.26897
4.27815
4.28107
4.27894
4.27402
4.26589
4.2519
4.22468
4.18694
4.153
4.13093
4.11915
4.11205
4.10746
4.10734
4.11193
4.11934
4.12743
4.13563
4.1457
4.16059
4.18066
4.19923
4.20798
4.20797
4.2018
4.18886
4.15971
4.09813
4.01944
3.96523
3.9417
3.93108
3.9253
3.92335
3.92911
3.94562
3.97402
4.00769
4.03187
4.0402
4.0404
4.03723
4.03307
4.02712
4.01783
4.00663
3.9915
3.97056
3.94425
3.91287
3.88141
3.86113
3.85269
3.84835
3.8511
3.86159
3.87549
3.88676
3.88973
3.87906
3.86429
3.8545
3.85072
3.85099
3.85233
3.85172
3.84723
3.84032
3.8318
3.81928
3.80686
3.79827
3.79148
3.78712
3.78495
3.78369
3.77912
3.76693
3.74891
3.72726
3.70724
3.69015
3.67523
3.66209
3.65132
3.64437
3.64184
3.64527
3.65407
3.66786
3.68547
3.7054
3.72492
3.73583
3.73138
3.7171
3.6914
3.64664
3.59448
3.55132
3.52519
3.51357
3.50778
3.50645
3.51076
3.51924
3.5303
3.54326
3.55816
3.57483
3.5924
3.6097
3.62378
3.63236
3.63392
3.62875
3.61821
3.59788
3.56487
3.50442
4.96984
4.96649
4.9677
4.97241
4.97966
4.98813
4.9957
4.99993
5.00021
4.99717
4.99201
4.98551
4.97695
4.96552
4.95143
4.93529
4.91717
4.89555
4.87359
4.85694
4.84668
4.84205
4.84446
4.85566
4.87672
4.90568
4.93587
4.95573
4.96174
4.9585
4.94866
4.93587
4.91954
4.89749
4.86883
4.83557
4.80458
4.78301
4.76945
4.75843
4.74925
4.74323
4.74134
4.74543
4.757
4.77536
4.79458
4.80709
4.80974
4.80097
4.78813
4.77239
4.75246
4.72878
4.70632
4.68948
4.67714
4.66641
4.65799
4.6527
4.65046
4.65
4.65126
4.65694
4.66954
4.68925
4.71118
4.72652
4.73198
4.72986
4.72065
4.70535
4.68029
4.64012
4.59515
4.56404
4.54757
4.53789
4.53001
4.52538
4.52598
4.5329
4.54779
4.56929
4.58936
4.59962
4.60082
4.59604
4.58701
4.57404
4.56075
4.54879
4.53495
4.52053
4.50745
4.49598
4.48481
4.47359
4.46148
4.44954
4.43855
4.4262
4.41313
4.40431
4.40358
4.41114
4.42381
4.43709
4.44997
4.46052
4.46258
4.45404
4.43939
4.42287
4.4056
4.39157
4.38328
4.38063
4.37927
4.37637
4.37159
4.36374
4.35243
4.33554
4.31104
4.28446
4.26484
4.25595
4.25181
4.2521
4.2549
4.25961
4.26588
4.27091
4.27344
4.27352
4.27295
4.27393
4.27573
4.27391
4.26816
4.26113
4.25166
4.2383
4.22115
4.20149
4.17854
4.1555
4.13656
4.12343
4.11558
4.11145
4.11083
4.11245
4.11613
4.12211
4.13088
4.14427
4.16227
4.17801
4.18521
4.18447
4.17928
4.16888
4.14838
4.11099
4.05896
4.00982
3.97256
3.94799
3.93539
3.93074
3.93255
3.94287
3.9624
3.98786
4.013
4.02878
4.03221
4.0281
4.02184
4.01525
4.00688
3.99698
3.98573
3.97237
3.95515
3.93227
3.9042
3.87745
3.8607
3.85243
3.84748
3.8475
3.85263
3.85994
3.86655
3.87214
3.87555
3.87498
3.87169
3.86708
3.86299
3.85856
3.85174
3.84387
3.83297
3.81692
3.80017
3.78886
3.7794
3.77175
3.76623
3.76203
3.75842
3.75566
3.75271
3.74698
3.73807
3.72595
3.70974
3.69009
3.67028
3.65559
3.64826
3.64539
3.64659
3.65151
3.65896
3.6694
3.68312
3.69576
3.69832
3.6875
3.66787
3.64701
3.62395
3.59548
3.56518
3.54099
3.52803
3.52251
3.52283
3.52838
3.53705
3.54767
3.56015
3.57383
3.58661
3.59504
3.59984
3.60148
3.59944
3.59414
3.58209
3.55976
3.53485
3.50986
4.97743
4.97006
4.96947
4.97676
4.99138
5.00912
5.02193
5.02541
5.02103
5.01085
4.99829
4.98485
4.97153
4.95829
4.94455
4.93135
4.92011
4.90586
4.88801
4.8729
4.8624
4.85455
4.84999
4.851
4.86025
4.88239
4.91588
4.9446
4.95431
4.94949
4.93926
4.92535
4.90632
4.88293
4.85721
4.82951
4.80053
4.77747
4.76448
4.75597
4.75246
4.7546
4.76134
4.77114
4.78276
4.79498
4.80665
4.81524
4.81649
4.80383
4.78616
4.76428
4.73898
4.71327
4.69576
4.6865
4.67915
4.67392
4.67123
4.6704
4.67139
4.67379
4.67689
4.68028
4.68438
4.69027
4.69633
4.70099
4.70503
4.70847
4.70664
4.69712
4.67913
4.64851
4.60592
4.56386
4.53956
4.53004
4.52592
4.52867
4.53694
4.55053
4.56781
4.58381
4.59242
4.59297
4.5847
4.5726
4.5608
4.55272
4.54967
4.54748
4.54162
4.53285
4.52146
4.50772
4.49298
4.47685
4.4613
4.44844
4.44084
4.43762
4.43361
4.42827
4.42302
4.41985
4.41962
4.42221
4.4274
4.43196
4.436
4.4394
4.43886
4.43212
4.42198
4.40969
4.39404
4.37753
4.36519
4.35732
4.35451
4.35446
4.35324
4.34693
4.3369
4.32093
4.29779
4.27246
4.25417
4.24504
4.24034
4.24028
4.24218
4.24914
4.26237
4.2748
4.28417
4.28856
4.28406
4.27436
4.26301
4.25021
4.23742
4.22549
4.21502
4.20457
4.19216
4.17838
4.16418
4.14986
4.13616
4.12438
4.11487
4.10781
4.10483
4.1077
4.11625
4.12933
4.14498
4.15675
4.1613
4.16086
4.15681
4.14865
4.1339
4.11033
4.08251
4.05498
4.02618
3.99594
3.96879
3.95096
3.94305
3.94334
3.95286
3.9693
3.9879
4.00726
4.01906
4.02189
4.01935
4.01368
4.00365
3.99247
3.98053
3.96872
3.95593
3.94077
3.92262
3.90215
3.88072
3.86067
3.8457
3.83459
3.82803
3.83033
3.84185
3.85975
3.87739
3.88734
3.89071
3.88819
3.8807
3.87073
3.85975
3.84756
3.83236
3.8145
3.79817
3.7855
3.77356
3.76197
3.75177
3.74417
3.74098
3.74298
3.74812
3.75285
3.75604
3.75651
3.75017
3.73722
3.71636
3.68781
3.65923
3.64164
3.63299
3.62824
3.62774
3.63005
3.63494
3.64217
3.65079
3.65704
3.65533
3.64783
3.63853
3.62449
3.60393
3.58021
3.56132
3.55179
3.54885
3.55016
3.55357
3.55773
3.56251
3.5679
3.57334
3.57817
3.5788
3.57342
3.56341
3.55022
3.53661
3.5261
3.51833
3.51328
4.97581
4.96563
4.96042
4.96461
4.97896
5.00121
5.02053
5.02798
5.02279
5.01065
4.99599
4.9812
4.9682
4.95795
4.95071
4.94418
4.9354
4.92213
4.90363
4.88499
4.87304
4.86441
4.85706
4.85173
4.85217
4.8649
4.89442
4.92751
4.94173
4.93859
4.92888
4.91476
4.8949
4.87058
4.8446
4.81881
4.7959
4.77881
4.76587
4.75656
4.75224
4.75522
4.76455
4.77705
4.78865
4.79775
4.80547
4.81286
4.81778
4.81132
4.79584
4.77613
4.75101
4.72196
4.69738
4.68369
4.67456
4.66843
4.66532
4.66528
4.66893
4.67684
4.68857
4.70019
4.70659
4.70507
4.6964
4.68594
4.679
4.6777
4.67706
4.67189
4.65964
4.64057
4.61618
4.5872
4.55702
4.53654
4.52875
4.52932
4.53735
4.5521
4.56978
4.58492
4.59289
4.59176
4.58092
4.5668
4.55407
4.54551
4.54122
4.53796
4.53384
4.52658
4.51516
4.49989
4.4836
4.46947
4.45878
4.45219
4.45248
4.4566
4.45941
4.4576
4.4496
4.43629
4.42095
4.40808
4.39795
4.39314
4.39618
4.40729
4.42097
4.43053
4.43373
4.42843
4.41589
4.39582
4.37145
4.35222
4.34176
4.33725
4.3384
4.34168
4.34042
4.33357
4.32122
4.301
4.27724
4.25657
4.24197
4.23221
4.22648
4.22824
4.23859
4.25515
4.27351
4.2861
4.28451
4.27596
4.26507
4.25059
4.23411
4.2196
4.20909
4.20083
4.19325
4.18503
4.17508
4.16324
4.15042
4.13739
4.12553
4.1163
4.11083
4.11196
4.12001
4.13071
4.13817
4.13959
4.13804
4.13461
4.1288
4.11956
4.10693
4.09467
4.08322
4.0708
4.05647
4.03824
4.01578
3.99214
3.97182
3.95817
3.95052
3.94976
3.95891
3.97235
3.98842
4.00216
4.00981
4.01349
4.01031
4.0014
3.9901
3.97626
3.96061
3.94463
3.92832
3.9098
3.88886
3.86754
3.84771
3.83088
3.8185
3.81261
3.82268
3.84941
3.87945
3.89759
3.90397
3.90144
3.89265
3.87985
3.86313
3.84431
3.82488
3.8073
3.79414
3.78274
3.77057
3.75791
3.74592
3.73673
3.73344
3.73654
3.74392
3.7532
3.76323
3.77114
3.77348
3.76713
3.75371
3.72878
3.69222
3.65228
3.62093
3.60309
3.59342
3.59087
3.59375
3.59915
3.60741
3.61989
3.63455
3.64254
3.6426
3.63816
3.63091
3.61973
3.60492
3.5911
3.58258
3.57729
3.57219
3.56585
3.55917
3.55499
3.55301
3.54823
3.53982
3.53081
3.52289
3.51557
3.50967
3.50735
3.50921
3.51485
4.98662
4.97529
4.96761
4.96764
4.97599
4.99273
5.0111
5.01925
5.01233
4.99973
4.98405
4.96943
4.95918
4.95258
4.95168
4.95316
4.95027
4.94169
4.92675
4.90538
4.88497
4.87148
4.86072
4.85217
4.84924
4.8568
4.87914
4.90766
4.92272
4.92167
4.91399
4.90197
4.8844
4.86064
4.83337
4.80859
4.79235
4.78246
4.77401
4.76814
4.76625
4.76878
4.77476
4.78135
4.78569
4.78774
4.79058
4.79684
4.80428
4.80636
4.79741
4.78423
4.76668
4.74227
4.71509
4.69439
4.68187
4.67215
4.6642
4.65989
4.66265
4.67335
4.69167
4.71019
4.72025
4.71823
4.7063
4.69038
4.67432
4.66206
4.65267
4.64424
4.63534
4.62577
4.61637
4.60469
4.58552
4.56259
4.54672
4.54068
4.54059
4.54387
4.55069
4.56166
4.57395
4.5813
4.58181
4.57645
4.56854
4.55996
4.55014
4.53993
4.52939
4.51496
4.49658
4.47867
4.46504
4.45597
4.45123
4.45397
4.46442
4.47692
4.48422
4.48247
4.47194
4.45342
4.42925
4.4053
4.38568
4.37281
4.36681
4.3734
4.39116
4.41223
4.42668
4.42942
4.42266
4.41044
4.3905
4.36869
4.35232
4.34116
4.3346
4.33296
4.33141
4.32662
4.31983
4.30893
4.29128
4.27165
4.25729
4.2469
4.23797
4.23161
4.22964
4.23636
4.25143
4.2666
4.27145
4.26715
4.26026
4.2519
4.24112
4.22796
4.21401
4.20092
4.18906
4.17773
4.16663
4.1558
4.14544
4.13582
4.12659
4.11959
4.11644
4.11991
4.13027
4.14186
4.14669
4.14253
4.13458
4.12524
4.11354
4.0998
4.08624
4.07639
4.06958
4.06425
4.05938
4.05267
4.04125
4.02514
4.00637
3.98677
3.96849
3.95442
3.94411
3.94327
3.95497
3.97263
3.99026
4.00402
4.01056
4.00934
4.00279
3.99237
3.97521
3.95084
3.92294
3.89684
3.87525
3.85739
3.84222
3.83034
3.82072
3.81723
3.8277
3.8559
3.88823
3.90619
3.90975
3.90392
3.8944
3.88016
3.85831
3.83267
3.81123
3.79747
3.78804
3.7805
3.77328
3.76447
3.7548
3.7469
3.74323
3.74445
3.74957
3.75722
3.76518
3.77118
3.77409
3.77151
3.76191
3.74568
3.72011
3.6843
3.64106
3.60229
3.57845
3.56706
3.56339
3.56781
3.57765
3.59256
3.61125
3.62804
3.63726
3.64099
3.64258
3.64127
3.63577
3.62487
3.60986
3.59492
3.5816
3.56822
3.55333
3.53771
3.52407
3.51606
3.51375
3.51202
3.50843
3.50565
3.50505
3.50817
3.51484
3.52301
4.98527
4.97539
4.96872
4.96875
4.97518
4.98735
5.00189
5.01057
5.00758
4.99739
4.98424
4.97154
4.96257
4.95688
4.95664
4.95894
4.95664
4.94952
4.93829
4.91898
4.89491
4.87678
4.86477
4.85557
4.8522
4.85792
4.87394
4.89454
4.90723
4.90677
4.89993
4.88916
4.87244
4.84899
4.8234
4.80386
4.79252
4.78411
4.77816
4.77586
4.77765
4.78215
4.78683
4.7891
4.78823
4.78606
4.78585
4.79006
4.79748
4.80319
4.80066
4.79043
4.77731
4.75759
4.73136
4.70552
4.68572
4.67166
4.66108
4.65339
4.65417
4.66582
4.68815
4.71167
4.72407
4.72137
4.70991
4.69485
4.67473
4.65279
4.6351
4.62346
4.61781
4.61715
4.61744
4.6133
4.60549
4.59127
4.57133
4.55336
4.54204
4.53291
4.52773
4.53248
4.54764
4.56591
4.57829
4.58327
4.58153
4.57341
4.56101
4.5431
4.51986
4.49379
4.47166
4.45802
4.4506
4.44769
4.45139
4.4633
4.48037
4.49398
4.49806
4.49252
4.48124
4.46111
4.43274
4.40525
4.38557
4.37274
4.36374
4.36385
4.37569
4.39411
4.40986
4.41791
4.41775
4.41044
4.39681
4.37883
4.36347
4.3515
4.34184
4.33514
4.32971
4.32283
4.31571
4.3072
4.29472
4.27834
4.26371
4.25452
4.24635
4.23859
4.23277
4.23193
4.24045
4.2535
4.26035
4.25917
4.25495
4.24957
4.24288
4.23159
4.21403
4.19376
4.17531
4.1605
4.14925
4.14068
4.13397
4.12905
4.12659
4.12715
4.13114
4.13878
4.14869
4.15604
4.15386
4.14588
4.13608
4.12336
4.10778
4.09095
4.07625
4.06635
4.06042
4.05669
4.05359
4.04955
4.04382
4.03458
4.02011
4.00202
3.98441
3.96946
3.95726
3.95001
3.95197
3.96315
3.97959
3.99559
4.00734
4.01204
4.00886
4.00037
3.98228
3.9487
3.90914
3.87803
3.85729
3.84279
3.83225
3.82397
3.82016
3.82512
3.84194
3.86987
3.89674
3.90951
3.90992
3.90312
3.89301
3.87747
3.85179
3.82068
3.79967
3.78888
3.78113
3.77615
3.77421
3.77323
3.77127
3.76874
3.76654
3.76476
3.76329
3.76139
3.75795
3.75354
3.74857
3.74408
3.74015
3.73315
3.72159
3.70428
3.67697
3.64067
3.60318
3.57668
3.5647
3.5617
3.56692
3.578
3.5948
3.61556
3.63258
3.64099
3.6438
3.64342
3.63971
3.63116
3.61425
3.5928
3.57362
3.55691
3.54078
3.52536
3.51252
3.5034
3.49986
3.50165
3.50552
3.51042
3.51727
3.52482
3.53419
3.54523
4.98515
4.97539
4.96924
4.96931
4.97496
4.98428
4.99439
5.0009
5.00159
4.99539
4.98529
4.97535
4.9673
4.96285
4.96392
4.96572
4.96146
4.95386
4.94284
4.92423
4.89936
4.88004
4.86862
4.86092
4.85952
4.8652
4.87712
4.8907
4.89871
4.89704
4.88974
4.87749
4.85829
4.83397
4.81295
4.80117
4.79361
4.78784
4.78461
4.78444
4.78662
4.7897
4.79154
4.79093
4.78846
4.78598
4.78542
4.7881
4.79346
4.79863
4.80026
4.79436
4.78413
4.76783
4.74333
4.71521
4.68933
4.66946
4.65668
4.64838
4.64903
4.66117
4.68369
4.70745
4.72056
4.72044
4.71151
4.69853
4.67872
4.65253
4.62902
4.61642
4.61058
4.61209
4.6187
4.62206
4.61886
4.61034
4.59318
4.56765
4.54276
4.52655
4.51662
4.51715
4.5328
4.5554
4.57237
4.58203
4.5862
4.5824
4.57035
4.54279
4.50535
4.47346
4.45525
4.44643
4.44287
4.44734
4.46108
4.48054
4.49638
4.50197
4.49792
4.48923
4.47653
4.45627
4.43015
4.40612
4.38944
4.37877
4.37255
4.37278
4.37906
4.38797
4.39627
4.40183
4.40248
4.39768
4.3884
4.37728
4.36697
4.35713
4.34868
4.34199
4.33382
4.32398
4.31467
4.30617
4.29659
4.28308
4.26749
4.25646
4.24795
4.23992
4.23376
4.23263
4.23964
4.24931
4.25402
4.25382
4.25185
4.24845
4.24253
4.22836
4.20396
4.17799
4.15771
4.14368
4.1341
4.12734
4.12398
4.12523
4.13153
4.14106
4.1516
4.16144
4.16866
4.16889
4.16244
4.15382
4.14222
4.12607
4.10621
4.08608
4.07005
4.05996
4.05373
4.04897
4.04516
4.04105
4.03533
4.02769
4.0166
4.00281
3.98913
3.97771
3.96908
3.96439
3.96524
3.97155
3.98142
3.99299
4.00416
4.0106
4.0079
3.99723
3.97251
3.93209
3.89215
3.86643
3.85141
3.84111
3.83331
3.8293
3.83204
3.84282
3.86095
3.88182
3.89675
3.9014
3.89946
3.89392
3.88483
3.87061
3.84851
3.82054
3.79961
3.78841
3.78009
3.77449
3.77456
3.78017
3.78789
3.79328
3.79335
3.78666
3.77462
3.75803
3.7396
3.72379
3.71196
3.70531
3.7048
3.70856
3.7114
3.70648
3.69685
3.68115
3.65592
3.62205
3.59261
3.57945
3.57487
3.57652
3.58656
3.60561
3.62705
3.63864
3.63952
3.63573
3.62939
3.61754
3.59694
3.57283
3.55268
3.53811
3.5278
3.51993
3.51296
3.50707
3.50544
3.50875
3.51481
3.52296
3.53382
3.5452
3.55735
3.56513
4.99103
4.98052
4.97563
4.97504
4.97753
4.98094
4.98335
4.98478
4.98551
4.98447
4.98031
4.97468
4.97057
4.96981
4.97359
4.97442
4.96792
4.95923
4.94676
4.92739
4.90348
4.88674
4.87779
4.87274
4.87338
4.87836
4.88578
4.89175
4.8912
4.8848
4.87448
4.85952
4.84035
4.82153
4.80963
4.80289
4.79805
4.7952
4.79418
4.79476
4.79611
4.79746
4.79788
4.79693
4.79502
4.79274
4.79081
4.79001
4.79098
4.79286
4.79419
4.79089
4.78147
4.76512
4.74265
4.71796
4.694
4.67371
4.66052
4.65411
4.65591
4.66551
4.68065
4.69547
4.70461
4.70725
4.70275
4.69264
4.6773
4.65634
4.63537
4.62156
4.61439
4.61312
4.61868
4.62439
4.62279
4.61535
4.60129
4.57763
4.55082
4.53005
4.51814
4.51638
4.52965
4.5509
4.56809
4.57903
4.58345
4.57965
4.56178
4.52736
4.48878
4.46236
4.44863
4.44065
4.43958
4.45143
4.47518
4.498
4.50744
4.5039
4.49454
4.48185
4.46487
4.44461
4.4243
4.40837
4.39894
4.394
4.3931
4.3947
4.39541
4.39244
4.38679
4.38161
4.37643
4.37171
4.36811
4.36536
4.36247
4.35951
4.35855
4.3569
4.34976
4.33809
4.32389
4.30961
4.29517
4.27774
4.26035
4.24973
4.24212
4.23633
4.23394
4.23788
4.24748
4.25485
4.25685
4.25672
4.2544
4.24766
4.23399
4.21014
4.18193
4.15837
4.14123
4.12892
4.12032
4.11578
4.11805
4.12737
4.14088
4.15503
4.16687
4.17501
4.17747
4.17276
4.16451
4.15401
4.14036
4.1236
4.10516
4.08745
4.07256
4.06113
4.05238
4.04514
4.03849
4.03201
4.02496
4.01695
4.00848
4.00074
3.99372
3.9887
3.98583
3.9849
3.9861
3.98892
3.99263
3.9967
4.00068
4.001
3.99299
3.97469
3.9443
3.907
3.87643
3.85949
3.85011
3.84342
3.84048
3.84317
3.85208
3.8657
3.88002
3.89001
3.89207
3.88768
3.88175
3.8756
3.8682
3.85827
3.84474
3.8267
3.80861
3.79557
3.78629
3.77904
3.77708
3.7838
3.79598
3.80465
3.80332
3.79407
3.77863
3.75205
3.71957
3.69368
3.67925
3.67203
3.6733
3.68237
3.69442
3.7046
3.71065
3.71084
3.70351
3.68492
3.65156
3.61634
3.59782
3.59042
3.58919
3.59813
3.61687
3.62881
3.62549
3.61764
3.60659
3.58935
3.56454
3.53968
3.52408
3.5157
3.51143
3.5114
3.51716
3.52854
3.53988
3.54619
3.54849
3.55037
3.55501
3.56116
3.5654
3.56395
5.0005
4.9877
4.98146
4.97953
4.97981
4.98012
4.97971
4.98018
4.98188
4.98315
4.98241
4.97986
4.97729
4.97647
4.97775
4.9744
4.96568
4.95504
4.9413
4.92363
4.90414
4.89147
4.88466
4.88103
4.8815
4.88471
4.88816
4.88725
4.87996
4.86976
4.85735
4.84347
4.8305
4.82191
4.81598
4.81114
4.80739
4.80495
4.80411
4.80521
4.80715
4.80819
4.80732
4.80464
4.80135
4.79862
4.79711
4.79647
4.79606
4.79444
4.78794
4.77767
4.76379
4.74696
4.72936
4.71272
4.69739
4.68369
4.67321
4.6675
4.66673
4.66976
4.675
4.68089
4.68653
4.69031
4.68969
4.68319
4.67239
4.65925
4.64637
4.6347
4.62574
4.62113
4.62071
4.62095
4.61729
4.60949
4.5971
4.58073
4.56342
4.5491
4.54026
4.53885
4.54631
4.55863
4.56691
4.56604
4.5583
4.5437
4.5247
4.50108
4.47847
4.4617
4.4516
4.44726
4.45346
4.4723
4.4948
4.5077
4.50686
4.49722
4.48313
4.46578
4.44694
4.43005
4.41869
4.41278
4.41184
4.41539
4.41936
4.41833
4.41041
4.39676
4.37773
4.35999
4.34764
4.34105
4.33977
4.34274
4.34874
4.3574
4.36672
4.37046
4.3665
4.35701
4.3403
4.31591
4.28827
4.2637
4.24769
4.23842
4.23167
4.22881
4.23401
4.24856
4.26453
4.27183
4.27013
4.26305
4.25116
4.23157
4.20617
4.18045
4.1601
4.14505
4.13384
4.1258
4.12246
4.12656
4.13831
4.15416
4.16868
4.17758
4.1802
4.17824
4.173
4.16436
4.15288
4.13985
4.12637
4.11373
4.10277
4.09251
4.08114
4.06946
4.05866
4.04843
4.03827
4.02808
4.01815
4.00912
4.00136
3.99578
3.99377
3.99556
4.00016
4.00543
4.00909
4.01017
4.00911
4.0041
3.9945
3.9811
3.96406
3.94203
3.91631
3.89194
3.87322
3.86201
3.8557
3.85318
3.85549
3.86256
3.87188
3.88115
3.88866
3.8906
3.8851
3.87623
3.86771
3.86088
3.85552
3.8499
3.84174
3.82926
3.81642
3.80575
3.79616
3.78859
3.78572
3.79034
3.79877
3.8025
3.79711
3.78525
3.76655
3.73892
3.70682
3.68064
3.66488
3.65716
3.65547
3.66453
3.68492
3.70958
3.72863
3.73621
3.73303
3.7226
3.69911
3.66331
3.62826
3.60929
3.5997
3.59513
3.60216
3.61182
3.60715
3.59682
3.5825
3.5629
3.53796
3.51536
3.50452
3.50023
3.49974
3.50743
3.52688
3.55575
3.58152
3.59126
3.58863
3.5791
3.56508
3.55191
3.5452
3.53892
5.02215
5.00836
4.99598
4.98958
4.98357
4.97771
4.97284
4.96971
4.96827
4.96742
4.96598
4.96343
4.9607
4.9594
4.95926
4.95734
4.95088
4.94217
4.93185
4.91933
4.90487
4.89473
4.88989
4.88797
4.88951
4.89248
4.89304
4.88671
4.87624
4.86373
4.85058
4.83937
4.83172
4.82632
4.82185
4.81819
4.81624
4.81653
4.81782
4.81889
4.81856
4.81389
4.80654
4.80022
4.7976
4.80006
4.8043
4.80631
4.80072
4.78894
4.77082
4.7515
4.73658
4.72637
4.71784
4.70996
4.70299
4.69638
4.68968
4.6835
4.67901
4.67666
4.67577
4.67498
4.67419
4.67334
4.67096
4.66625
4.6609
4.65617
4.65136
4.64624
4.63931
4.63062
4.62183
4.61319
4.60411
4.59497
4.58655
4.58003
4.57599
4.57758
4.58293
4.58455
4.57735
4.56599
4.55613
4.5405
4.5204
4.4992
4.48164
4.47356
4.47153
4.46956
4.46896
4.47303
4.48232
4.49075
4.49211
4.4897
4.48613
4.47774
4.46523
4.45294
4.44325
4.43617
4.43341
4.43451
4.43758
4.4377
4.43202
4.42152
4.40729
4.38904
4.36641
4.34456
4.32996
4.32213
4.32061
4.32729
4.34183
4.36049
4.37448
4.37787
4.37352
4.36547
4.3501
4.32143
4.28373
4.2546
4.2402
4.23186
4.2262
4.2289
4.24494
4.26847
4.28114
4.27828
4.26845
4.25213
4.22938
4.20153
4.17531
4.15983
4.15128
4.1456
4.14385
4.14653
4.15387
4.16474
4.17608
4.18227
4.17934
4.17224
4.16441
4.15663
4.14982
4.14318
4.13464
4.12532
4.11666
4.1094
4.10279
4.09522
4.08483
4.07315
4.06185
4.05054
4.03906
4.02776
4.01788
4.00993
4.00507
4.00374
4.00698
4.01384
4.02184
4.02808
4.02894
4.02226
4.00971
3.99153
3.97141
3.94977
3.92819
3.91151
3.89849
3.88945
3.88204
3.87541
3.8721
3.87199
3.87335
3.87466
3.87594
3.87934
3.88576
3.88968
3.88491
3.87732
3.86876
3.86038
3.85351
3.84528
3.83208
3.82026
3.81442
3.81072
3.8062
3.80187
3.79928
3.79757
3.79302
3.78584
3.77697
3.76362
3.74414
3.72196
3.70089
3.6831
3.67101
3.66427
3.66441
3.67585
3.69908
3.72402
3.73854
3.73969
3.73294
3.72167
3.70725
3.68581
3.65576
3.6264
3.60961
3.59905
3.59408
3.59845
3.59678
3.58736
3.5743
3.55498
3.52891
3.50746
3.50065
3.49963
3.5035
3.51764
3.54456
3.57581
3.59718
3.6076
3.60499
3.59474
3.57422
3.54508
3.52157
3.50728
5.03926
5.02471
5.00597
4.98816
4.97438
4.9631
4.9541
4.94762
4.94439
4.9443
4.9454
4.9467
4.94853
4.95164
4.95557
4.95772
4.95545
4.95062
4.94404
4.93487
4.92209
4.91048
4.90442
4.90104
4.8993
4.89685
4.89039
4.88014
4.86737
4.85358
4.84112
4.83157
4.82505
4.82186
4.82174
4.82465
4.8296
4.8339
4.83424
4.82868
4.81975
4.80963
4.80181
4.79757
4.80095
4.80842
4.81145
4.80519
4.79245
4.77373
4.75192
4.73523
4.72565
4.72031
4.71797
4.71575
4.71236
4.70827
4.70386
4.69907
4.69371
4.68794
4.68138
4.67323
4.66502
4.65858
4.65461
4.65364
4.65539
4.65809
4.65843
4.65422
4.64624
4.63325
4.61572
4.59926
4.58704
4.57936
4.57665
4.58017
4.59262
4.61252
4.62723
4.62563
4.60918
4.5784
4.5438
4.51455
4.48522
4.46088
4.45074
4.45314
4.46664
4.48427
4.49699
4.50015
4.49587
4.48683
4.47684
4.46653
4.45959
4.45799
4.45744
4.457
4.45998
4.46517
4.46787
4.46302
4.45102
4.43415
4.41746
4.40189
4.38561
4.36911
4.35279
4.33775
4.32718
4.32003
4.31854
4.3268
4.34401
4.36193
4.37102
4.37148
4.3667
4.35906
4.34587
4.32185
4.28701
4.25836
4.24493
4.23742
4.23446
4.24244
4.26235
4.27662
4.27446
4.26562
4.25195
4.22998
4.1996
4.17449
4.16271
4.15649
4.15584
4.16225
4.17508
4.1894
4.19908
4.19849
4.18978
4.17903
4.16571
4.15248
4.14227
4.13621
4.13464
4.13387
4.13034
4.12435
4.11713
4.10834
4.096
4.08241
4.07107
4.06082
4.05161
4.043
4.03525
4.02927
4.0265
4.02681
4.02995
4.03507
4.0412
4.04596
4.04487
4.0371
4.02583
4.01103
3.99149
3.96558
3.93867
3.9198
3.90838
3.90185
3.9007
3.90355
3.9028
3.89751
3.88918
3.88137
3.87433
3.86804
3.86622
3.87328
3.88732
3.89795
3.89762
3.89235
3.88373
3.86976
3.85014
3.8295
3.81449
3.80767
3.80544
3.80681
3.80934
3.80912
3.8039
3.795
3.78274
3.76713
3.75221
3.73867
3.72572
3.71275
3.70253
3.69561
3.69116
3.69126
3.69675
3.70684
3.71371
3.71176
3.70856
3.70861
3.70707
3.70037
3.68794
3.67422
3.65798
3.63459
3.61385
3.60181
3.59521
3.59868
3.6033
3.59807
3.58885
3.5738
3.55065
3.52565
3.51308
3.51115
3.51467
3.52293
3.53535
3.55243
3.57411
3.58834
3.5923
3.58743
3.57513
3.55246
3.52395
3.49509
5.03905
5.02567
5.00474
4.98059
4.96128
4.94776
4.93837
4.93283
4.93251
4.93661
4.9427
4.94918
4.95596
4.96315
4.96961
4.97263
4.96977
4.96314
4.95487
4.94438
4.93115
4.91773
4.90825
4.90106
4.89443
4.88725
4.87806
4.86641
4.85288
4.84081
4.83193
4.82591
4.82307
4.82409
4.82977
4.83936
4.84779
4.84849
4.84146
4.8311
4.81839
4.80872
4.8031
4.80304
4.80603
4.80561
4.79989
4.79022
4.77508
4.75571
4.74031
4.73118
4.72503
4.7219
4.72188
4.72215
4.72056
4.71835
4.71646
4.71352
4.70714
4.69691
4.68439
4.67183
4.66097
4.65242
4.64673
4.64636
4.651
4.65508
4.65324
4.6467
4.63768
4.624
4.60568
4.59014
4.58105
4.57565
4.57838
4.59438
4.62182
4.64648
4.65286
4.64512
4.62916
4.5945
4.54154
4.49144
4.45823
4.44353
4.43922
4.44316
4.46281
4.48774
4.50235
4.50434
4.49443
4.47826
4.46303
4.45368
4.44946
4.45223
4.4628
4.47718
4.49065
4.49669
4.49098
4.47612
4.45007
4.42186
4.39755
4.37644
4.35846
4.34567
4.33885
4.33484
4.33188
4.33025
4.33178
4.3386
4.3494
4.35827
4.36201
4.3613
4.35691
4.34932
4.33763
4.31848
4.29174
4.26823
4.2575
4.25166
4.2516
4.25972
4.26975
4.27017
4.26195
4.24924
4.22939
4.20253
4.18051
4.16868
4.16231
4.16159
4.17037
4.19043
4.21294
4.22476
4.22207
4.21167
4.19428
4.17192
4.15432
4.14301
4.13466
4.13058
4.1329
4.13629
4.13221
4.12319
4.1118
4.09726
4.08077
4.06406
4.05096
4.04293
4.03825
4.03603
4.03609
4.04015
4.04755
4.05683
4.06564
4.07163
4.0714
4.06477
4.05328
4.03755
4.01541
3.98873
3.96239
3.94029
3.92376
3.91297
3.90776
3.90732
3.91204
3.91803
3.91731
3.90918
3.89626
3.88124
3.87123
3.86562
3.86744
3.88169
3.90225
3.91349
3.91194
3.90498
3.89406
3.87434
3.84478
3.81523
3.80035
3.79414
3.79091
3.79136
3.79522
3.79719
3.79408
3.78618
3.77446
3.75743
3.7399
3.72718
3.71872
3.71405
3.71296
3.7169
3.7244
3.73258
3.73543
3.72894
3.71568
3.69882
3.68494
3.67408
3.66541
3.65919
3.65408
3.64727
3.63774
3.62646
3.61281
3.60396
3.6019
3.60839
3.61693
3.61996
3.61806
3.61203
3.59829
3.57126
3.54064
3.52524
3.51998
3.51707
3.51681
3.52011
3.52938
3.54658
3.56308
3.56587
3.56113
3.55393
3.54017
3.51475
5.0349
5.02102
4.99872
4.97262
4.95353
4.94311
4.93602
4.93214
4.9343
4.9419
4.95114
4.95892
4.96474
4.96918
4.97245
4.97335
4.96857
4.96026
4.95031
4.93752
4.92411
4.91216
4.90092
4.8916
4.88306
4.87297
4.86131
4.85035
4.84276
4.83706
4.8329
4.83153
4.83312
4.83786
4.84545
4.85219
4.85319
4.84855
4.84043
4.83037
4.82187
4.81561
4.81179
4.80812
4.80187
4.79511
4.78579
4.77195
4.75402
4.73811
4.72994
4.72584
4.7236
4.72315
4.72537
4.72962
4.73276
4.73337
4.73171
4.7254
4.71448
4.70045
4.68474
4.67024
4.65995
4.65262
4.64716
4.64449
4.64308
4.64214
4.64063
4.63551
4.62599
4.61306
4.60003
4.59049
4.58436
4.58425
4.59544
4.61926
4.64283
4.65261
4.65135
4.64371
4.62963
4.60019
4.54737
4.48618
4.45226
4.44233
4.4392
4.44102
4.44886
4.46492
4.48404
4.49207
4.48862
4.47751
4.46556
4.45797
4.45714
4.46635
4.48328
4.49881
4.50545
4.50146
4.49246
4.47544
4.44469
4.40536
4.37225
4.35099
4.33927
4.33286
4.33008
4.33264
4.33722
4.34262
4.34838
4.35374
4.35804
4.35968
4.35802
4.35277
4.34533
4.33663
4.32555
4.30988
4.28967
4.27417
4.26683
4.26386
4.2665
4.27196
4.27225
4.26415
4.25137
4.23316
4.20936
4.18904
4.17593
4.16922
4.16642
4.17168
4.18921
4.21525
4.23229
4.23353
4.22596
4.21476
4.19739
4.17412
4.15545
4.14467
4.1364
4.13215
4.13353
4.13508
4.12991
4.11977
4.1056
4.08617
4.06522
4.04891
4.03716
4.0296
4.026
4.03038
4.04234
4.0561
4.06748
4.07412
4.07753
4.08006
4.07833
4.06864
4.05429
4.03363
4.00862
3.9824
3.95769
3.93666
3.92213
3.91575
3.91149
3.90922
3.90867
3.90977
3.91104
3.90781
3.89872
3.88826
3.88085
3.87946
3.88698
3.90078
3.90989
3.91022
3.90654
3.89985
3.88932
3.8706
3.8412
3.81178
3.79396
3.78354
3.77628
3.77383
3.77599
3.77969
3.77901
3.77388
3.76548
3.75478
3.74298
3.73316
3.72781
3.72716
3.73303
3.74469
3.75637
3.75932
3.75293
3.73912
3.71624
3.6906
3.66557
3.64301
3.62624
3.61615
3.61251
3.61401
3.61884
3.61901
3.61598
3.61588
3.62034
3.62819
3.63622
3.64231
3.64497
3.64168
3.63309
3.61361
3.58113
3.54489
3.51854
3.50588
3.49774
3.49056
3.48882
3.496
3.51458
3.53939
3.55286
3.55608
3.5553
3.54704
5.0307
5.01494
4.99213
4.96964
4.95582
4.94786
4.94274
4.94164
4.94519
4.9506
4.95463
4.95751
4.96091
4.96471
4.96732
4.96678
4.96021
4.95044
4.93987
4.92926
4.91861
4.9071
4.89411
4.88158
4.87145
4.86219
4.85384
4.84719
4.84255
4.84192
4.84449
4.84819
4.85114
4.85261
4.85203
4.85027
4.84724
4.84049
4.83424
4.82995
4.8277
4.82539
4.81896
4.80914
4.79712
4.78346
4.76715
4.74787
4.73106
4.72225
4.71845
4.71732
4.71791
4.72039
4.72592
4.73564
4.74692
4.7526
4.74792
4.73659
4.72128
4.70363
4.68605
4.67122
4.66134
4.65489
4.64913
4.64318
4.63716
4.6319
4.62646
4.62016
4.61349
4.60764
4.60132
4.59631
4.59524
4.60177
4.61761
4.63502
4.64389
4.64477
4.64096
4.63241
4.6168
4.5896
4.55191
4.51048
4.47215
4.44848
4.43993
4.436
4.43532
4.4391
4.45114
4.46973
4.48175
4.4841
4.48228
4.48267
4.48816
4.4961
4.50096
4.50108
4.49915
4.49374
4.4832
4.4633
4.4298
4.39
4.36006
4.34365
4.33433
4.32816
4.3254
4.32851
4.33807
4.34818
4.35559
4.36213
4.36644
4.36696
4.36024
4.35077
4.34028
4.32844
4.31297
4.2956
4.28229
4.27556
4.27156
4.27181
4.27358
4.27327
4.26934
4.25974
4.2454
4.22616
4.20687
4.19095
4.18127
4.17527
4.17394
4.18232
4.20245
4.22206
4.22946
4.22815
4.22208
4.21265
4.1994
4.18126
4.16291
4.14994
4.14059
4.13448
4.13268
4.13093
4.12497
4.11551
4.10195
4.08358
4.06291
4.04509
4.03388
4.02774
4.02766
4.03566
4.0474
4.05604
4.06114
4.06506
4.06768
4.0674
4.06498
4.05861
4.04742
4.03522
4.02031
4.00049
3.97545
3.94943
3.92853
3.91456
3.9059
3.89938
3.89494
3.89317
3.89538
3.89944
3.90153
3.90182
3.90465
3.91132
3.91636
3.91173
3.90394
3.89824
3.89368
3.88683
3.87483
3.85599
3.83414
3.81556
3.79923
3.78442
3.77315
3.76539
3.76267
3.76146
3.7602
3.75935
3.75875
3.75709
3.75416
3.75249
3.75184
3.75422
3.76148
3.76897
3.76893
3.76281
3.75353
3.73752
3.71148
3.67704
3.64139
3.61238
3.59531
3.58729
3.58573
3.59234
3.60231
3.61621
3.63225
3.64518
3.65067
3.6501
3.64747
3.64443
3.64169
3.63697
3.62971
3.62052
3.60319
3.57464
3.53744
3.50037
3.47775
3.46851
3.46438
3.46698
3.47859
3.50294
3.5356
3.55601
3.56609
3.56525
5.02679
5.0082
4.98619
4.97048
4.96192
4.95608
4.9534
4.9533
4.95329
4.95249
4.95212
4.95248
4.9532
4.9541
4.95444
4.95333
4.95041
4.94583
4.93941
4.93217
4.92331
4.91128
4.89593
4.88062
4.86951
4.86107
4.85419
4.84977
4.84993
4.85455
4.86129
4.86528
4.86362
4.85784
4.8508
4.84379
4.83701
4.83307
4.83144
4.83265
4.83356
4.82929
4.82108
4.80944
4.79385
4.77379
4.74964
4.72726
4.71433
4.70785
4.70499
4.70586
4.70996
4.71688
4.72688
4.74141
4.75648
4.76437
4.76047
4.7494
4.73428
4.71586
4.69597
4.67809
4.6645
4.65445
4.64704
4.63982
4.63237
4.62345
4.61465
4.60806
4.60472
4.6042
4.6054
4.60799
4.61449
4.62603
4.63605
4.63809
4.63468
4.6285
4.62054
4.60916
4.59245
4.57086
4.54944
4.52865
4.50265
4.47101
4.44459
4.4323
4.42536
4.42187
4.42476
4.4393
4.46624
4.49004
4.50647
4.51966
4.52628
4.52135
4.50799
4.49309