/*--------------------------------*- C++ -*----------------------------------*\
  =========                 |
  \\      /  F ield         | OpenFOAM: The Open Source CFD Toolbox
   \\    /   O peration     | Website:  https://openfoam.org
    \\  /    A nd           | Version:  7
     \\/     M anipulation  |
\*---------------------------------------------------------------------------*/
FoamFile
{
    version     2.0;
    format      ascii;
    class       volVectorField;
    location    "3.5";
    object      U;
}
// * * * * * * * * * * * * * * * * * * * * * * * * * * * * * * * * * * * * * //

dimensions      [0 1 -1 0 0 0 0];

internalField   nonuniform List<vector> 
16512
(
(0.729387 -0.00099569 0)
(0.732922 -0.00106273 0)
(0.737078 -0.00110568 0)
(0.741825 -0.00103736 0)
(0.747411 -0.000799057 0)
(0.754046 -0.000440527 0)
(0.761395 -0.000178074 0)
(0.768277 -2.09085e-05 0)
(0.773785 4.38097e-05 0)
(0.777982 -7.539e-05 0)
(0.781576 -0.000422458 0)
(0.784721 -0.00094908 0)
(0.787581 -0.00158443 0)
(0.78976 -0.00214672 0)
(0.790969 -0.00252568 0)
(0.790426 -0.00243185 0)
(0.787974 -0.00175352 0)
(0.785763 -0.000563256 0)
(0.784977 0.000634245 0)
(0.785513 0.00125461 0)
(0.786716 0.00150527 0)
(0.789313 0.0016776 0)
(0.793338 0.00169184 0)
(0.799614 0.00149222 0)
(0.808262 0.000731797 0)
(0.818512 -0.000527936 0)
(0.828109 -0.0013002 0)
(0.835185 -0.00145281 0)
(0.839633 -0.00133195 0)
(0.842883 -0.00116875 0)
(0.845126 -0.00122998 0)
(0.846682 -0.00161731 0)
(0.847492 -0.00214704 0)
(0.846345 -0.0025352 0)
(0.841889 -0.00249455 0)
(0.836595 -0.00239378 0)
(0.8344 -0.00256491 0)
(0.834242 -0.00302959 0)
(0.834401 -0.00316434 0)
(0.83462 -0.00292196 0)
(0.835643 -0.00229284 0)
(0.837534 -0.00142097 0)
(0.841196 -0.000139455 0)
(0.846852 0.000811661 0)
(0.855146 0.00110526 0)
(0.865237 0.000859483 0)
(0.875013 0.000335456 0)
(0.882469 -0.000273151 0)
(0.887075 -0.000689853 0)
(0.8896 -0.00105252 0)
(0.890808 -0.00146013 0)
(0.891587 -0.00199103 0)
(0.891182 -0.00260645 0)
(0.888965 -0.00301889 0)
(0.885928 -0.00284368 0)
(0.88452 -0.00239083 0)
(0.885284 -0.00174705 0)
(0.887037 -0.00112699 0)
(0.88957 -0.000403173 0)
(0.89354 0.000303453 0)
(0.898505 0.000827289 0)
(0.903814 0.00121947 0)
(0.909303 0.00152832 0)
(0.915468 0.0017012 0)
(0.92311 0.00170979 0)
(0.932421 0.00147438 0)
(0.942179 0.000700315 0)
(0.950422 -0.000748181 0)
(0.955886 -0.00189434 0)
(0.959188 -0.00229685 0)
(0.960711 -0.00237095 0)
(0.960687 -0.00239313 0)
(0.958768 -0.00205884 0)
(0.955431 -0.00183047 0)
(0.952031 -0.00219682 0)
(0.949742 -0.00264093 0)
(0.948675 -0.0027513 0)
(0.94845 -0.00216055 0)
(0.949406 -0.00124947 0)
(0.951283 -0.000269505 0)
(0.954719 0.000978326 0)
(0.960247 0.00190018 0)
(0.96852 0.00223792 0)
(0.978511 0.00208198 0)
(0.988027 0.00167242 0)
(0.995202 0.000778492 0)
(0.999798 -0.000845742 0)
(1.00299 -0.00240486 0)
(1.00507 -0.00339506 0)
(1.00599 -0.00373982 0)
(1.00471 -0.00349727 0)
(1.00342 -0.00260145 0)
(1.00414 -0.00161723 0)
(1.00587 -0.00116233 0)
(1.00845 -0.00108574 0)
(1.01183 -0.00135067 0)
(1.01537 -0.00171114 0)
(1.01861 -0.0022535 0)
(1.02136 -0.00281069 0)
(1.02331 -0.00296482 0)
(1.02333 -0.00226899 0)
(1.02244 -0.000853881 0)
(1.02332 0.000744667 0)
(1.02568 0.00167747 0)
(1.02982 0.00206264 0)
(1.03609 0.00208134 0)
(1.0435 0.00185345 0)
(1.05086 0.000957172 0)
(1.05776 -0.00056913 0)
(1.06329 -0.00169511 0)
(1.06695 -0.00193527 0)
(1.06874 -0.00185805 0)
(1.069 -0.00183023 0)
(1.06833 -0.00174557 0)
(1.06919 -0.00152082 0)
(1.07133 -0.00134327 0)
(1.0749 -0.00111085 0)
(1.0796 -0.00128309 0)
(1.08452 -0.00229026 0)
(1.08896 -0.0032944 0)
(1.09214 -0.00379831 0)
(1.09413 -0.00376897 0)
(1.09395 -0.00312729 0)
(1.09224 -0.00167512 0)
(1.09043 0.000290851 0)
(1.09001 0.00157089 0)
(1.09116 0.00192235 0)
(1.09298 0.00203518 0)
(1.09601 0.00200688 0)
(1.10037 0.00162066 0)
(1.10539 0.000602954 0)
(1.11038 -0.000802279 0)
(1.11464 -0.00185453 0)
(1.11782 -0.0021024 0)
(1.12038 -0.00167259 0)
(1.12318 -0.000916738 0)
(1.12721 -0.000210553 0)
(1.13296 0.000117268 0)
(1.13902 5.30399e-05 0)
(1.14331 -0.000376375 0)
(1.1463 -0.00117287 0)
(1.14885 -0.00206412 0)
(1.1511 -0.00277456 0)
(1.15237 -0.00326905 0)
(1.15098 -0.00318491 0)
(1.1471 -0.00228679 0)
(1.14374 -0.000697677 0)
(1.14259 0.000924974 0)
(1.14346 0.00184916 0)
(1.14521 0.00216229 0)
(1.14751 0.00228818 0)
(1.15098 0.00232178 0)
(1.15536 0.00216344 0)
(1.16021 0.0017095 0)
(1.16532 0.00115442 0)
(1.17072 0.000693627 0)
(1.17669 0.000362691 0)
(1.18375 -2.92731e-05 0)
(1.19215 -0.00074458 0)
(1.20039 -0.00186937 0)
(1.20642 -0.00308404 0)
(1.2108 -0.00424443 0)
(1.21429 -0.00528681 0)
(1.21682 -0.00605067 0)
(1.21609 -0.00653204 0)
(1.20769 -0.00563032 0)
(1.19405 -0.00294916 0)
(1.18503 0.000314042 0)
(1.18235 0.00225035 0)
(1.18233 0.00295874 0)
(1.18324 0.00323381 0)
(1.18488 0.00351523 0)
(1.18817 0.00372186 0)
(1.19422 0.00367244 0)
(1.20331 0.00297884 0)
(1.21414 0.00149193 0)
(1.22351 -3.89111e-05 0)
(1.2296 -0.000834528 0)
(1.23374 -0.00115107 0)
(1.23699 -0.00143218 0)
(1.23999 -0.00177333 0)
(1.24272 -0.00213454 0)
(1.2448 -0.0023579 0)
(1.24648 -0.00249797 0)
(1.24735 -0.00254108 0)
(1.24702 -0.00223965 0)
(1.2452 -0.001561 0)
(1.24162 -0.000326545 0)
(1.23714 0.0012697 0)
(1.2348 0.0023335 0)
(1.23525 0.00253 0)
(1.23679 0.00246258 0)
(1.23991 0.00197939 0)
(1.2449 0.000521537 0)
(1.25201 -0.00169129 0)
(1.25963 -0.00343392 0)
(1.2656 -0.00419584 0)
(1.26895 -0.00392363 0)
(1.27136 -0.00258835 0)
(1.27413 -0.000750462 0)
(1.27728 0.00107309 0)
(1.28068 0.00206756 0)
(1.28393 0.00230891 0)
(1.28644 0.00222378 0)
(1.28792 0.00201706 0)
(1.28872 0.00188297 0)
(1.28912 0.00155439 0)
(1.28865 0.00109088 0)
(1.28844 0.000483278 0)
(1.28956 3.42566e-05 0)
(1.29132 -0.000733108 0)
(1.294 -0.00180063 0)
(1.29775 -0.00296501 0)
(1.30242 -0.00408774 0)
(1.30692 -0.00491621 0)
(1.31031 -0.00524863 0)
(1.31305 -0.0048425 0)
(1.31496 -0.00355918 0)
(1.31694 -0.00159698 0)
(1.31878 0.000799489 0)
(1.32008 0.00286137 0)
(1.32097 0.00422699 0)
(1.32173 0.00492564 0)
(1.32309 0.00516451 0)
(1.32521 0.005262 0)
(1.32846 0.00512343 0)
(1.3328 0.00459947 0)
(1.33825 0.00344802 0)
(1.34508 0.00144265 0)
(1.35388 -0.00154104 0)
(1.36416 -0.00468102 0)
(1.37306 -0.0070534 0)
(1.37874 -0.00820989 0)
(1.38219 -0.00869479 0)
(1.3832 -0.00891508 0)
(1.37967 -0.00800496 0)
(1.37382 -0.00576243 0)
(1.36933 -0.00219646 0)
(1.36751 0.00108332 0)
(1.36831 0.00287525 0)
(1.37015 0.00358257 0)
(1.373 0.00417798 0)
(1.37719 0.00448028 0)
(1.38249 0.00457565 0)
(1.38829 0.00456608 0)
(1.39435 0.00446724 0)
(1.40075 0.00425828 0)
(1.4075 0.00385253 0)
(1.41437 0.00311187 0)
(1.42098 0.00171145 0)
(1.42703 -0.000603507 0)
(1.43219 -0.00347126 0)
(1.43593 -0.0061816 0)
(1.43817 -0.00797844 0)
(1.43908 -0.0090955 0)
(1.43689 -0.0099307 0)
(1.43159 -0.0104151 0)
(1.42038 -0.00702877 0)
(0.733346 -0.00274239 0)
(0.736471 -0.00300625 0)
(0.740676 -0.00375283 0)
(0.746002 -0.00428331 0)
(0.752411 -0.0041047 0)
(0.75957 -0.00305224 0)
(0.76661 -0.00133122 0)
(0.772523 0.000193163 0)
(0.776926 0.00110219 0)
(0.780492 0.00132158 0)
(0.783388 0.000917711 0)
(0.78593 4.65997e-05 0)
(0.78811 -0.0013056 0)
(0.789749 -0.00317547 0)
(0.790769 -0.00522856 0)
(0.791062 -0.00720233 0)
(0.790969 -0.00727926 0)
(0.790259 -0.00490938 0)
(0.789582 -0.00168145 0)
(0.789826 0.00118253 0)
(0.791015 0.00341164 0)
(0.793237 0.00520218 0)
(0.796581 0.0062571 0)
(0.801835 0.0060924 0)
(0.809708 0.00484475 0)
(0.819582 0.00251602 0)
(0.829864 -8.11781e-05 0)
(0.838165 -0.00133751 0)
(0.843015 -0.00174356 0)
(0.846014 -0.0020093 0)
(0.84761 -0.00231441 0)
(0.848401 -0.00270824 0)
(0.848161 -0.00372607 0)
(0.84657 -0.00565018 0)
(0.843349 -0.00733946 0)
(0.839461 -0.00735872 0)
(0.836189 -0.00732772 0)
(0.835054 -0.00837549 0)
(0.835657 -0.00974566 0)
(0.836942 -0.0102503 0)
(0.838889 -0.00965975 0)
(0.841929 -0.00793579 0)
(0.846332 -0.00520995 0)
(0.852197 -0.00209584 0)
(0.859559 0.000517955 0)
(0.86824 0.00176395 0)
(0.87696 0.00151172 0)
(0.884075 0.000705407 0)
(0.888591 7.26106e-05 0)
(0.890797 -0.000518095 0)
(0.891729 -0.001188 0)
(0.891956 -0.00249811 0)
(0.891217 -0.00418658 0)
(0.889448 -0.00639156 0)
(0.887784 -0.00829581 0)
(0.88768 -0.00846245 0)
(0.888928 -0.00776048 0)
(0.890905 -0.00663403 0)
(0.893756 -0.00508148 0)
(0.897721 -0.00335637 0)
(0.902538 -0.00167947 0)
(0.907781 0.000125001 0)
(0.91319 0.0022573 0)
(0.919141 0.00437206 0)
(0.926153 0.00580061 0)
(0.934553 0.00592202 0)
(0.943562 0.00481547 0)
(0.951064 0.00251568 0)
(0.955821 -0.000949514 0)
(0.959397 -0.00437523 0)
(0.961857 -0.0063831 0)
(0.963402 -0.00699095 0)
(0.962746 -0.00641439 0)
(0.958435 -0.0047486 0)
(0.95241 -0.00373931 0)
(0.94901 -0.00472251 0)
(0.948958 -0.0063093 0)
(0.950086 -0.00697293 0)
(0.951752 -0.00643189 0)
(0.954662 -0.00497056 0)
(0.95913 -0.00267077 0)
(0.965169 0.000225876 0)
(0.973017 0.00304624 0)
(0.982151 0.00493594 0)
(0.990655 0.00521407 0)
(0.996842 0.00428726 0)
(1.00079 0.00285531 0)
(1.0032 0.000360871 0)
(1.00438 -0.0031708 0)
(1.00509 -0.00702117 0)
(1.00592 -0.00937268 0)
(1.00719 -0.00912997 0)
(1.00859 -0.00709837 0)
(1.01017 -0.00477349 0)
(1.01209 -0.00285398 0)
(1.01422 -0.00195459 0)
(1.01626 -0.00206664 0)
(1.01826 -0.00302787 0)
(1.02005 -0.00495492 0)
(1.02181 -0.00734394 0)
(1.02368 -0.00889505 0)
(1.02569 -0.00734916 0)
(1.02783 -0.00324252 0)
(1.03051 0.00127276 0)
(1.03423 0.00497778 0)
(1.03893 0.00707452 0)
(1.04477 0.00723105 0)
(1.05107 0.00607004 0)
(1.05699 0.00374403 0)
(1.06205 0.000182742 0)
(1.06583 -0.00359778 0)
(1.06836 -0.00609084 0)
(1.07014 -0.00712613 0)
(1.07173 -0.00647501 0)
(1.07301 -0.00410169 0)
(1.07461 -0.00149835 0)
(1.07713 2.88227e-05 0)
(1.08058 0.000136716 0)
(1.08445 -0.00104494 0)
(1.08779 -0.0038876 0)
(1.09095 -0.00740752 0)
(1.09352 -0.0101039 0)
(1.09548 -0.0108281 0)
(1.09642 -0.00918821 0)
(1.09587 -0.00533214 0)
(1.09476 -0.000321383 0)
(1.0943 0.003866 0)
(1.0954 0.00593927 0)
(1.0974 0.00653803 0)
(1.10074 0.00613818 0)
(1.10494 0.00497473 0)
(1.10912 0.00284558 0)
(1.11334 -0.00043178 0)
(1.11767 -0.00380466 0)
(1.12178 -0.00527346 0)
(1.12604 -0.00449901 0)
(1.13072 -0.00235873 0)
(1.1358 2.61605e-05 0)
(1.1405 0.00117441 0)
(1.144 0.000911989 0)
(1.14638 1.72555e-05 0)
(1.14841 -0.00157863 0)
(1.14995 -0.00392151 0)
(1.15069 -0.00679934 0)
(1.15033 -0.00935234 0)
(1.14929 -0.00951131 0)
(1.14789 -0.00724141 0)
(1.14702 -0.00382261 0)
(1.14724 -0.000423698 0)
(1.14856 0.00230404 0)
(1.15077 0.00424441 0)
(1.15354 0.00551517 0)
(1.15703 0.00598347 0)
(1.16119 0.00574666 0)
(1.16592 0.0052005 0)
(1.17122 0.00460772 0)
(1.17721 0.00413823 0)
(1.18452 0.00371276 0)
(1.19308 0.00302399 0)
(1.20093 0.00155398 0)
(1.20626 -0.00107771 0)
(1.20981 -0.00431179 0)
(1.21268 -0.00804741 0)
(1.2146 -0.012177 0)
(1.21411 -0.0163665 0)
(1.20873 -0.0188883 0)
(1.19956 -0.0166546 0)
(1.19203 -0.0100398 0)
(1.18807 -0.00243802 0)
(1.18626 0.00359274 0)
(1.18606 0.00732924 0)
(1.18732 0.00943944 0)
(1.18991 0.0109446 0)
(1.19493 0.0115811 0)
(1.20298 0.0110315 0)
(1.21267 0.00869645 0)
(1.22207 0.00461631 0)
(1.22923 0.00112261 0)
(1.23387 -0.000845961 0)
(1.23703 -0.00183688 0)
(1.23986 -0.00260321 0)
(1.24265 -0.00345018 0)
(1.24486 -0.00430394 0)
(1.24654 -0.0051909 0)
(1.24776 -0.00637864 0)
(1.24818 -0.00743904 0)
(1.24754 -0.00744439 0)
(1.24548 -0.00596717 0)
(1.2423 -0.00271287 0)
(1.23954 0.00149974 0)
(1.23895 0.00469893 0)
(1.2401 0.00619729 0)
(1.24228 0.00666649 0)
(1.24606 0.00615188 0)
(1.25092 0.00391495 0)
(1.2564 -0.000924201 0)
(1.26255 -0.00650117 0)
(1.26856 -0.0100485 0)
(1.27371 -0.00982941 0)
(1.27802 -0.0071556 0)
(1.28171 -0.00363186 0)
(1.28468 1.30965e-05 0)
(1.28724 0.00274009 0)
(1.28917 0.00417012 0)
(1.29017 0.00440331 0)
(1.29091 0.00430911 0)
(1.29112 0.00388107 0)
(1.29026 0.00306373 0)
(1.2896 0.00227091 0)
(1.29075 0.00179352 0)
(1.29262 0.00135005 0)
(1.29512 0.000472791 0)
(1.29818 -0.00123908 0)
(1.30158 -0.00416993 0)
(1.30552 -0.00815098 0)
(1.30996 -0.0118972 0)
(1.31417 -0.0142415 0)
(1.31787 -0.0143542 0)
(1.32129 -0.0126387 0)
(1.32456 -0.0092953 0)
(1.32705 -0.00443475 0)
(1.3283 0.00146364 0)
(1.32853 0.0075345 0)
(1.32869 0.0120841 0)
(1.33007 0.0144462 0)
(1.3325 0.0155421 0)
(1.33618 0.0158239 0)
(1.34087 0.0149391 0)
(1.34669 0.0129706 0)
(1.35338 0.00979592 0)
(1.361 0.0044704 0)
(1.36865 -0.00306421 0)
(1.37432 -0.0107394 0)
(1.3779 -0.0166079 0)
(1.37966 -0.0211004 0)
(1.37984 -0.0236911 0)
(1.37905 -0.0220859 0)
(1.37682 -0.0169559 0)
(1.3746 -0.0100232 0)
(1.37383 -0.00375747 0)
(1.37529 0.00049278 0)
(1.3782 0.00361518 0)
(1.38228 0.0065067 0)
(1.38722 0.00883253 0)
(1.39258 0.010476 0)
(1.39818 0.011464 0)
(1.40418 0.0118243 0)
(1.41064 0.0115791 0)
(1.41719 0.0107158 0)
(1.4232 0.00931799 0)
(1.42829 0.00740208 0)
(1.43198 0.00478842 0)
(1.43415 0.00127099 0)
(1.43505 -0.00354972 0)
(1.43437 -0.00958684 0)
(1.43177 -0.0161493 0)
(1.4274 -0.0224559 0)
(1.42166 -0.022415 0)
(0.746047 -0.00671443 0)
(0.748482 -0.00636262 0)
(0.752377 -0.00689731 0)
(0.757686 -0.00812508 0)
(0.764745 -0.00944802 0)
(0.772701 -0.010042 0)
(0.779853 -0.00941755 0)
(0.784836 -0.00771244 0)
(0.788525 -0.00581078 0)
(0.790894 -0.00446284 0)
(0.792752 -0.00392091 0)
(0.794548 -0.00411716 0)
(0.796342 -0.00516006 0)
(0.798114 -0.00662591 0)
(0.799638 -0.00772897 0)
(0.800978 -0.00806898 0)
(0.802031 -0.0076451 0)
(0.802149 -0.00641452 0)
(0.80144 -0.00428822 0)
(0.801481 -0.0018271 0)
(0.802731 0.000739418 0)
(0.804729 0.0034931 0)
(0.8077 0.00590773 0)
(0.811833 0.00730966 0)
(0.817585 0.00660907 0)
(0.826061 0.00417651 0)
(0.837107 0.00119212 0)
(0.847257 -0.0010912 0)
(0.852534 -0.00192083 0)
(0.854969 -0.00247118 0)
(0.856001 -0.0030989 0)
(0.856225 -0.00400368 0)
(0.8556 -0.00526657 0)
(0.853963 -0.00701727 0)
(0.851668 -0.00877007 0)
(0.84876 -0.00989792 0)
(0.845841 -0.0101922 0)
(0.844546 -0.0102332 0)
(0.84519 -0.0104354 0)
(0.846607 -0.010893 0)
(0.849168 -0.0113009 0)
(0.85294 -0.0108999 0)
(0.857954 -0.00940203 0)
(0.86397 -0.0070663 0)
(0.870793 -0.00459104 0)
(0.878089 -0.00295383 0)
(0.885236 -0.00283817 0)
(0.8917 -0.00392252 0)
(0.89659 -0.00459917 0)
(0.899136 -0.0044275 0)
(0.900338 -0.0041035 0)
(0.900416 -0.0038209 0)
(0.899206 -0.00400874 0)
(0.897151 -0.00480963 0)
(0.896412 -0.00625055 0)
(0.897392 -0.00724426 0)
(0.898982 -0.00785897 0)
(0.901155 -0.00834585 0)
(0.904033 -0.00851313 0)
(0.907754 -0.00840416 0)
(0.912401 -0.00803157 0)
(0.91795 -0.00701155 0)
(0.924202 -0.00470153 0)
(0.930815 -0.00106656 0)
(0.937546 0.00301806 0)
(0.944159 0.0059483 0)
(0.950133 0.0060298 0)
(0.955094 0.00341442 0)
(0.959464 -0.000401443 0)
(0.963453 -0.00447325 0)
(0.966571 -0.00817664 0)
(0.968043 -0.0108042 0)
(0.968036 -0.012536 0)
(0.965871 -0.0128025 0)
(0.961629 -0.0105847 0)
(0.957487 -0.00716976 0)
(0.95617 -0.0049739 0)
(0.957295 -0.00450814 0)
(0.959681 -0.00453126 0)
(0.963382 -0.00423433 0)
(0.968304 -0.00326877 0)
(0.974686 -0.00164332 0)
(0.982468 0.000419439 0)
(0.990668 0.00220909 0)
(0.997482 0.00295669 0)
(1.00235 0.00245785 0)
(1.0054 0.000897835 0)
(1.007 -0.00110516 0)
(1.00817 -0.00345602 0)
(1.00967 -0.00571718 0)
(1.01199 -0.00750388 0)
(1.01438 -0.00866213 0)
(1.01605 -0.00901624 0)
(1.0174 -0.0087623 0)
(1.01864 -0.00820253 0)
(1.01987 -0.00801557 0)
(1.02137 -0.00853456 0)
(1.02311 -0.00972666 0)
(1.02518 -0.0109369 0)
(1.02771 -0.0115551 0)
(1.03102 -0.0113725 0)
(1.03489 -0.00978259 0)
(1.03836 -0.00635502 0)
(1.04143 -0.00126098 0)
(1.04432 0.0043118 0)
(1.04745 0.00858066 0)
(1.05083 0.0104304 0)
(1.05452 0.00956846 0)
(1.05889 0.00665139 0)
(1.06316 0.0018252 0)
(1.06739 -0.00414602 0)
(1.07163 -0.00941193 0)
(1.07566 -0.0119956 0)
(1.07859 -0.0121034 0)
(1.08087 -0.0104375 0)
(1.083 -0.00710151 0)
(1.08446 -0.00349258 0)
(1.08563 -0.00131716 0)
(1.08732 -0.00157191 0)
(1.08946 -0.0037429 0)
(1.09246 -0.00692065 0)
(1.09598 -0.0100718 0)
(1.09913 -0.0121793 0)
(1.10127 -0.0127358 0)
(1.1029 -0.0112847 0)
(1.10372 -0.00732098 0)
(1.10345 -0.00187947 0)
(1.10266 0.00339361 0)
(1.10296 0.00670823 0)
(1.1047 0.00789876 0)
(1.107 0.00740868 0)
(1.11017 0.0055074 0)
(1.11384 0.00292358 0)
(1.11829 -0.000106336 0)
(1.12425 -0.00320293 0)
(1.13044 -0.00532862 0)
(1.13644 -0.00562109 0)
(1.14174 -0.00410844 0)
(1.14548 -0.00232186 0)
(1.14798 -0.00152791 0)
(1.14988 -0.00138137 0)
(1.15106 -0.00214703 0)
(1.15183 -0.00416613 0)
(1.15237 -0.00678298 0)
(1.15284 -0.00898052 0)
(1.15317 -0.0102201 0)
(1.15314 -0.010156 0)
(1.15328 -0.0085805 0)
(1.15398 -0.00590443 0)
(1.15515 -0.00284547 0)
(1.15672 -1.83021e-05 0)
(1.15883 0.0022161 0)
(1.16156 0.00364047 0)
(1.1648 0.00452138 0)
(1.16877 0.00495034 0)
(1.1739 0.00523903 0)
(1.18023 0.00560499 0)
(1.18766 0.00562706 0)
(1.19555 0.00460246 0)
(1.20232 0.00232344 0)
(1.20698 -0.000615825 0)
(1.21035 -0.00376116 0)
(1.2126 -0.0075695 0)
(1.21364 -0.0121547 0)
(1.21269 -0.0171248 0)
(1.20943 -0.0208914 0)
(1.20506 -0.0209416 0)
(1.20169 -0.0171174 0)
(1.19916 -0.0109769 0)
(1.19692 -0.00348925 0)
(1.19534 0.00396696 0)
(1.19533 0.00995184 0)
(1.19717 0.0137953 0)
(1.20052 0.0158352 0)
(1.20596 0.0155811 0)
(1.21364 0.0130501 0)
(1.22166 0.00873795 0)
(1.22911 0.00310647 0)
(1.23514 -0.00170934 0)
(1.23982 -0.00448645 0)
(1.24378 -0.00584277 0)
(1.24711 -0.00604383 0)
(1.24928 -0.00580554 0)
(1.25088 -0.00551442 0)
(1.25189 -0.00547661 0)
(1.25249 -0.00585727 0)
(1.25239 -0.00642105 0)
(1.25121 -0.00649247 0)
(1.24918 -0.00520701 0)
(1.24716 -0.00221185 0)
(1.24584 0.00123895 0)
(1.24541 0.00345851 0)
(1.24646 0.00423088 0)
(1.24857 0.00362448 0)
(1.25127 0.00123397 0)
(1.25593 -0.00224474 0)
(1.26283 -0.00632421 0)
(1.2714 -0.00880579 0)
(1.27983 -0.00887584 0)
(1.2859 -0.00680375 0)
(1.29004 -0.00364146 0)
(1.29267 -0.000353961 0)
(1.2941 0.00230323 0)
(1.29476 0.00395639 0)
(1.29496 0.00460174 0)
(1.2949 0.00427948 0)
(1.29437 0.00302072 0)
(1.29349 0.00126066 0)
(1.29358 -4.64146e-05 0)
(1.29505 -0.00073439 0)
(1.29702 -0.00138859 0)
(1.29925 -0.00242876 0)
(1.30181 -0.00386534 0)
(1.30491 -0.00572923 0)
(1.3088 -0.00791027 0)
(1.31371 -0.0102485 0)
(1.31942 -0.012318 0)
(1.32494 -0.0135383 0)
(1.33007 -0.0133883 0)
(1.33474 -0.0115421 0)
(1.33824 -0.00828634 0)
(1.34071 -0.00357953 0)
(1.34188 0.00291344 0)
(1.34116 0.0102507 0)
(1.33967 0.016175 0)
(1.34007 0.0187882 0)
(1.34228 0.0187166 0)
(1.34544 0.0170244 0)
(1.34949 0.0135714 0)
(1.35426 0.00873585 0)
(1.35989 0.00275102 0)
(1.36635 -0.00456172 0)
(1.37316 -0.012643 0)
(1.37913 -0.0198179 0)
(1.38279 -0.0241474 0)
(1.38514 -0.025239 0)
(1.38684 -0.0244969 0)
(1.38742 -0.0214051 0)
(1.38678 -0.0162045 0)
(1.3856 -0.00943731 0)
(1.38557 -0.00257217 0)
(1.38755 0.00272377 0)
(1.39086 0.00700973 0)
(1.39502 0.010894 0)
(1.39966 0.013895 0)
(1.40446 0.0155988 0)
(1.4095 0.0157567 0)
(1.41494 0.0143767 0)
(1.42067 0.0119098 0)
(1.42626 0.00877484 0)
(1.43063 0.00503154 0)
(1.43341 0.000597896 0)
(1.43472 -0.00464875 0)
(1.43473 -0.0107045 0)
(1.43342 -0.0169528 0)
(1.43183 -0.0214745 0)
(1.43005 -0.0235643 0)
(1.42811 -0.021471 0)
(0.772578 -0.00487702 0)
(0.774367 -0.00466568 0)
(0.777498 -0.00494754 0)
(0.782193 -0.00589145 0)
(0.788919 -0.00722198 0)
(0.797203 -0.00849559 0)
(0.804962 -0.00892638 0)
(0.809869 -0.00872909 0)
(0.812765 -0.00866944 0)
(0.814144 -0.00888463 0)
(0.815096 -0.00955378 0)
(0.816154 -0.0107133 0)
(0.817625 -0.0119501 0)
(0.819597 -0.0128891 0)
(0.822002 -0.0131406 0)
(0.824329 -0.012059 0)
(0.825935 -0.00986378 0)
(0.826396 -0.00718431 0)
(0.825632 -0.00418608 0)
(0.824815 -0.0014153 0)
(0.825511 0.000353836 0)
(0.827218 0.00164885 0)
(0.829536 0.00296123 0)
(0.832652 0.00396224 0)
(0.83713 0.00449627 0)
(0.844024 0.00392766 0)
(0.854456 0.00181688 0)
(0.865273 -0.000873664 0)
(0.871233 -0.00307404 0)
(0.873804 -0.0045453 0)
(0.874985 -0.00556199 0)
(0.875333 -0.0066633 0)
(0.874509 -0.00784161 0)
(0.872494 -0.00909458 0)
(0.869947 -0.0105667 0)
(0.867508 -0.0121448 0)
(0.865927 -0.0128989 0)
(0.865831 -0.012146 0)
(0.866642 -0.0107069 0)
(0.868081 -0.00931598 0)
(0.870548 -0.00805828 0)
(0.874324 -0.00698757 0)
(0.879536 -0.00607239 0)
(0.885635 -0.00533625 0)
(0.891797 -0.00510752 0)
(0.897698 -0.00568629 0)
(0.903637 -0.00697001 0)
(0.909818 -0.0087453 0)
(0.915266 -0.0106794 0)
(0.918847 -0.011669 0)
(0.920492 -0.0116744 0)
(0.921188 -0.010922 0)
(0.920487 -0.00926312 0)
(0.918578 -0.00696541 0)
(0.91708 -0.00482799 0)
(0.917507 -0.00405809 0)
(0.918917 -0.00396752 0)
(0.920977 -0.0040328 0)
(0.923786 -0.00461874 0)
(0.927429 -0.00579869 0)
(0.932046 -0.00692639 0)
(0.937917 -0.0075564 0)
(0.944973 -0.00716564 0)
(0.952428 -0.00532379 0)
(0.958862 -0.00216388 0)
(0.963866 0.00126959 0)
(0.967152 0.0036969 0)
(0.969441 0.00439218 0)
(0.971957 0.00313787 0)
(0.975175 -0.000336265 0)
(0.978203 -0.0050613 0)
(0.980356 -0.00984917 0)
(0.981229 -0.0140496 0)
(0.980785 -0.0169602 0)
(0.979466 -0.0172568 0)
(0.977549 -0.0139189 0)
(0.975296 -0.00833727 0)
(0.97452 -0.00369835 0)
(0.976081 -0.000930062 0)
(0.979012 0.0010556 0)
(0.983466 0.00231196 0)
(0.989649 0.00267552 0)
(0.996987 0.00187007 0)
(1.00446 0.00014087 0)
(1.01078 -0.00163052 0)
(1.01551 -0.00288611 0)
(1.01814 -0.00339418 0)
(1.0197 -0.00336593 0)
(1.0212 -0.0030095 0)
(1.02303 -0.00241207 0)
(1.02511 -0.0020949 0)
(1.02722 -0.00269177 0)
(1.02922 -0.00385523 0)
(1.03078 -0.00531436 0)
(1.03186 -0.00735485 0)
(1.03265 -0.0100227 0)
(1.0337 -0.0127385 0)
(1.03548 -0.0149397 0)
(1.03798 -0.0162783 0)
(1.04134 -0.0165282 0)
(1.04593 -0.0150356 0)
(1.05102 -0.0118328 0)
(1.05534 -0.00745746 0)
(1.05868 -0.00248351 0)
(1.06085 0.00246796 0)
(1.06205 0.00665958 0)
(1.06291 0.00926094 0)
(1.06418 0.00978827 0)
(1.06593 0.0077045 0)
(1.06877 0.00332343 0)
(1.07274 -0.0019558 0)
(1.07844 -0.00738517 0)
(1.08456 -0.0119944 0)
(1.08977 -0.0142912 0)
(1.09365 -0.0141003 0)
(1.09637 -0.0127 0)
(1.09799 -0.0108546 0)
(1.09854 -0.00814104 0)
(1.09809 -0.00529708 0)
(1.09857 -0.00382105 0)
(1.10039 -0.00379172 0)
(1.10288 -0.00515996 0)
(1.10638 -0.00764227 0)
(1.11014 -0.009536 0)
(1.11285 -0.0103014 0)
(1.11449 -0.0102306 0)
(1.11529 -0.00867067 0)
(1.11491 -0.00515546 0)
(1.11416 -0.000769749 0)
(1.11419 0.00283603 0)
(1.11549 0.00530122 0)
(1.11765 0.00670474 0)
(1.12017 0.00704316 0)
(1.12393 0.00607476 0)
(1.12943 0.00329111 0)
(1.13655 -0.000236172 0)
(1.14431 -0.00297874 0)
(1.15068 -0.00490478 0)
(1.1543 -0.00579939 0)
(1.1566 -0.00599335 0)
(1.15846 -0.00591233 0)
(1.15938 -0.00549196 0)
(1.15939 -0.00485823 0)
(1.15921 -0.00448523 0)
(1.15945 -0.00470687 0)
(1.16007 -0.00545654 0)
(1.16097 -0.00626145 0)
(1.16207 -0.0067731 0)
(1.16324 -0.00695194 0)
(1.16445 -0.00677893 0)
(1.16585 -0.00620117 0)
(1.16754 -0.0053135 0)
(1.16968 -0.00435483 0)
(1.17239 -0.00354612 0)
(1.17592 -0.00248002 0)
(1.18113 -0.00112328 0)
(1.1882 0.000732941 0)
(1.19598 0.00309774 0)
(1.20257 0.00499199 0)
(1.20719 0.00518168 0)
(1.21047 0.003792 0)
(1.21298 0.000954937 0)
(1.21459 -0.00289059 0)
(1.21507 -0.00735918 0)
(1.21431 -0.0122381 0)
(1.21326 -0.0166024 0)
(1.21233 -0.0189759 0)
(1.21158 -0.0191709 0)
(1.21111 -0.0171181 0)
(1.21057 -0.0126652 0)
(1.20987 -0.0060918 0)
(1.20946 0.0013905 0)
(1.20996 0.00828615 0)
(1.21176 0.0135178 0)
(1.21464 0.0161744 0)
(1.21856 0.0156297 0)
(1.22432 0.0120753 0)
(1.2314 0.00698883 0)
(1.23878 0.000924286 0)
(1.24561 -0.00438102 0)
(1.25116 -0.00743477 0)
(1.25572 -0.00869922 0)
(1.2589 -0.00843684 0)
(1.26057 -0.0073632 0)
(1.26146 -0.00533183 0)
(1.26129 -0.00299013 0)
(1.26016 -0.00112451 0)
(1.25866 -0.000234372 0)
(1.25729 -0.000249586 0)
(1.25597 -0.000895846 0)
(1.25477 -0.00156788 0)
(1.25418 -0.00164919 0)
(1.25437 -0.00129136 0)
(1.25534 -0.000872625 0)
(1.25745 -0.000787824 0)
(1.26083 -0.00161072 0)
(1.26719 -0.00309988 0)
(1.2779 -0.00451523 0)
(1.28908 -0.00418083 0)
(1.29663 -0.00233438 0)
(1.30098 -0.000232361 0)
(1.30334 0.00149215 0)
(1.30439 0.00272108 0)
(1.30461 0.00396916 0)
(1.30386 0.00457371 0)
(1.30268 0.00335552 0)
(1.30163 0.000613882 0)
(1.30152 -0.00222347 0)
(1.3029 -0.00406198 0)
(1.30503 -0.005088 0)
(1.30718 -0.00566519 0)
(1.30921 -0.00581963 0)
(1.31132 -0.00586769 0)
(1.31408 -0.0060285 0)
(1.31812 -0.00634233 0)
(1.32333 -0.00685847 0)
(1.32909 -0.00763488 0)
(1.33497 -0.00852147 0)
(1.34082 -0.00924505 0)
(1.34619 -0.00982278 0)
(1.35039 -0.00984812 0)
(1.35292 -0.00913047 0)
(1.3548 -0.00710994 0)
(1.35509 -0.00281734 0)
(1.35313 0.00335001 0)
(1.35027 0.00972018 0)
(1.34886 0.0133928 0)
(1.35049 0.013357 0)
(1.35338 0.0117356 0)
(1.35766 0.0085694 0)
(1.36295 0.00377753 0)
(1.36856 -0.00204913 0)
(1.37464 -0.00822927 0)
(1.38123 -0.0141723 0)
(1.38786 -0.0191361 0)
(1.39277 -0.021719 0)
(1.39557 -0.022188 0)
(1.39729 -0.0216189 0)
(1.39846 -0.018992 0)
(1.39896 -0.0136574 0)
(1.39905 -0.00645921 0)
(1.39964 0.000889983 0)
(1.4016 0.00672964 0)
(1.40455 0.0107268 0)
(1.4079 0.0131899 0)
(1.41134 0.0143092 0)
(1.41484 0.0141177 0)
(1.41885 0.0123682 0)
(1.42326 0.00899678 0)
(1.42725 0.00425397 0)
(1.43054 -0.00137822 0)
(1.43311 -0.00684013 0)
(1.43469 -0.0112201 0)
(1.43544 -0.0146346 0)
(1.4356 -0.0171248 0)
(1.43574 -0.0186258 0)
(1.43626 -0.0190532 0)
(1.43559 -0.0172964 0)
(0.811964 -0.010035 0)
(0.813501 -0.00953016 0)
(0.816075 -0.00856459 0)
(0.820209 -0.00756098 0)
(0.825821 -0.00700992 0)
(0.833028 -0.007498 0)
(0.840663 -0.00890065 0)
(0.845701 -0.010271 0)
(0.848316 -0.0111648 0)
(0.849458 -0.0117719 0)
(0.849924 -0.012491 0)
(0.85052 -0.0132115 0)
(0.851735 -0.0137026 0)
(0.85355 -0.0139924 0)
(0.8564 -0.0140743 0)
(0.85938 -0.0136073 0)
(0.861538 -0.0125235 0)
(0.862546 -0.0110145 0)
(0.862448 -0.00856142 0)
(0.861222 -0.00533484 0)
(0.860413 -0.0026873 0)
(0.861278 -0.00123128 0)
(0.862988 -0.000231798 0)
(0.865335 0.000708612 0)
(0.869255 0.00161013 0)
(0.875132 0.00228585 0)
(0.884035 0.00206883 0)
(0.894018 0.000274432 0)
(0.900344 -0.00232226 0)
(0.903135 -0.0045034 0)
(0.904495 -0.00630272 0)
(0.904943 -0.00792945 0)
(0.904198 -0.00930886 0)
(0.902145 -0.0105673 0)
(0.899398 -0.0120118 0)
(0.897242 -0.0135143 0)
(0.896836 -0.0143429 0)
(0.897703 -0.0143519 0)
(0.899012 -0.0136561 0)
(0.901103 -0.0122313 0)
(0.904132 -0.0101761 0)
(0.90819 -0.00774196 0)
(0.913179 -0.00548276 0)
(0.918489 -0.00401688 0)
(0.923492 -0.00369944 0)
(0.928114 -0.00449161 0)
(0.932981 -0.0062355 0)
(0.938615 -0.00875359 0)
(0.944455 -0.0115793 0)
(0.948786 -0.0138593 0)
(0.951015 -0.0147947 0)
(0.952118 -0.0149612 0)
(0.952278 -0.0142049 0)
(0.950931 -0.0121604 0)
(0.948944 -0.00922982 0)
(0.94837 -0.0068049 0)
(0.949443 -0.00564387 0)
(0.951061 -0.00524774 0)
(0.952989 -0.00532103 0)
(0.955833 -0.00584094 0)
(0.959992 -0.00682294 0)
(0.965953 -0.00784789 0)
(0.973807 -0.0082439 0)
(0.98196 -0.00770417 0)
(0.988037 -0.00638917 0)
(0.991875 -0.00503999 0)
(0.993869 -0.00418609 0)
(0.995153 -0.00326056 0)
(0.996279 -0.00280023 0)
(0.997803 -0.00366314 0)
(0.999516 -0.00661794 0)
(1.0012 -0.010835 0)
(1.00256 -0.0149389 0)
(1.00355 -0.0176981 0)
(1.00438 -0.0185274 0)
(1.00486 -0.0173147 0)
(1.00403 -0.013348 0)
(1.00259 -0.0073794 0)
(1.0026 -0.00197649 0)
(1.00466 0.00155089 0)
(1.00802 0.00371685 0)
(1.01225 0.00401718 0)
(1.01744 0.00196536 0)
(1.02373 -0.00176111 0)
(1.03054 -0.00581481 0)
(1.03626 -0.00886686 0)
(1.04027 -0.010107 0)
(1.04303 -0.00957969 0)
(1.04507 -0.00790473 0)
(1.0468 -0.00574377 0)
(1.04815 -0.00398739 0)
(1.04929 -0.00319035 0)
(1.05031 -0.00359683 0)
(1.0507 -0.00582557 0)
(1.0506 -0.00949872 0)
(1.05093 -0.0133231 0)
(1.05232 -0.0162415 0)
(1.05458 -0.0180247 0)
(1.05779 -0.018774 0)
(1.06224 -0.018136 0)
(1.06804 -0.0158033 0)
(1.07405 -0.0121575 0)
(1.07864 -0.00809238 0)
(1.08163 -0.00442578 0)
(1.08307 -0.00136181 0)
(1.08312 0.00151225 0)
(1.08224 0.00359838 0)
(1.08166 0.00441298 0)
(1.08211 0.00440092 0)
(1.08367 0.00392565 0)
(1.08647 0.0023064 0)
(1.09116 -0.00123181 0)
(1.09794 -0.00556558 0)
(1.10526 -0.0092615 0)
(1.11101 -0.0118863 0)
(1.11429 -0.0135129 0)
(1.11613 -0.0141606 0)
(1.11706 -0.0140064 0)
(1.11667 -0.0127007 0)
(1.11632 -0.010799 0)
(1.11737 -0.00912797 0)
(1.11943 -0.00782797 0)
(1.12206 -0.00700704 0)
(1.12524 -0.00706708 0)
(1.12805 -0.00763397 0)
(1.12989 -0.00807945 0)
(1.1312 -0.00830981 0)
(1.13171 -0.00783243 0)
(1.13091 -0.0062412 0)
(1.13003 -0.0041149 0)
(1.13076 -0.00226609 0)
(1.13278 -0.000650149 0)
(1.13544 0.00113142 0)
(1.13878 0.00270179 0)
(1.14292 0.00336817 0)
(1.14841 0.00243521 0)
(1.15577 -0.000140529 0)
(1.16308 -0.00324815 0)
(1.16756 -0.00558294 0)
(1.16988 -0.00684618 0)
(1.17152 -0.00760356 0)
(1.17276 -0.00790151 0)
(1.1734 -0.0073426 0)
(1.1734 -0.00605479 0)
(1.17317 -0.00495157 0)
(1.17317 -0.00481703 0)
(1.17362 -0.00577223 0)
(1.17443 -0.00742407 0)
(1.17556 -0.00912643 0)
(1.17705 -0.0103905 0)
(1.17894 -0.0110468 0)
(1.18124 -0.0111475 0)
(1.18381 -0.0105498 0)
(1.18693 -0.00917064 0)
(1.19095 -0.00725758 0)
(1.1964 -0.00493729 0)
(1.20333 -0.00252401 0)
(1.21044 -0.000449459 0)
(1.21572 0.000699906 0)
(1.21899 0.000717039 0)
(1.22132 0.000344257 0)
(1.22301 -0.000669374 0)
(1.2238 -0.00240889 0)
(1.22362 -0.00484633 0)
(1.22293 -0.00758203 0)
(1.22263 -0.00999867 0)
(1.2231 -0.0120144 0)
(1.22403 -0.0132467 0)
(1.22525 -0.0134837 0)
(1.22639 -0.0125802 0)
(1.22693 -0.0099393 0)
(1.22709 -0.00563191 0)
(1.22737 -0.000372271 0)
(1.22809 0.00471203 0)
(1.22952 0.00882403 0)
(1.23187 0.0117144 0)
(1.23487 0.0126529 0)
(1.23945 0.0107629 0)
(1.24613 0.00658937 0)
(1.25393 0.0015659 0)
(1.26141 -0.00271712 0)
(1.26768 -0.00546759 0)
(1.27201 -0.00685365 0)
(1.27447 -0.00675489 0)
(1.27568 -0.00599543 0)
(1.27609 -0.00419904 0)
(1.27499 -0.00188324 0)
(1.27211 -0.000446809 0)
(1.26853 -0.00129774 0)
(1.26579 -0.00381973 0)
(1.26456 -0.00634521 0)
(1.26453 -0.00805238 0)
(1.26539 -0.00885162 0)
(1.2672 -0.00899851 0)
(1.26959 -0.00860572 0)
(1.27357 -0.00716019 0)
(1.28095 -0.00491661 0)
(1.2922 -0.00220298 0)
(1.30391 0.000136083 0)
(1.31156 0.00169521 0)
(1.31553 0.00239713 0)
(1.31752 0.00252769 0)
(1.31876 0.00251034 0)
(1.31898 0.00257397 0)