/*--------------------------------*- C++ -*----------------------------------*\
  =========                 |
  \\      /  F ield         | OpenFOAM: The Open Source CFD Toolbox
   \\    /   O peration     | Website:  https://openfoam.org
    \\  /    A nd           | Version:  7
     \\/     M anipulation  |
\*---------------------------------------------------------------------------*/
FoamFile
{
    version     2.0;
    format      ascii;
    class       volScalarField;
    location    "2.2";
    object      rho;
}
// * * * * * * * * * * * * * * * * * * * * * * * * * * * * * * * * * * * * * //

dimensions      [1 -3 0 0 0 0 0];

internalField   nonuniform List<scalar> 
16192
(
2.1495
2.15129
2.14996
2.14773
2.14363
2.13326
2.10955
2.08463
2.07176
2.06642
2.06466
2.06337
2.06278
2.06507
2.06968
2.06912
2.06731
2.06601
2.06451
2.06296
2.06204
2.06194
2.06186
2.06104
2.05601
2.04598
2.0437
2.04718
2.05275
2.05818
2.0629
2.06716
2.07235
2.07798
2.07748
2.07517
2.07241
2.06877
2.06407
2.05728
2.04513
2.0245
2.0064
1.99915
1.99677
1.99557
1.9941
1.9927
1.9919
1.99538
2.0084
2.01593
2.0152
2.01381
2.01171
2.0085
2.00222
1.98731
1.96189
1.94425
1.93772
1.93508
1.93426
1.93556
1.94397
1.95927
1.96668
1.96505
1.95939
1.94843
1.92499
1.89445
1.881
1.87878
1.87805
1.87922
1.88317
1.89126
1.90743
1.92331
1.92523
1.92195
1.91515
1.90044
1.87363
1.85353
1.84829
1.84625
1.84526
1.84488
1.84701
1.85734
1.87728
1.88751
1.88672
1.88368
1.87706
1.85866
1.81846
1.78713
1.77965
1.77714
1.77579
1.77503
1.778
1.79743
1.83523
1.85288
1.85366
1.85283
1.84976
1.83753
1.8047
1.77523
1.7668
1.7642
1.763
1.76389
1.7751
1.79459
1.80094
1.80198
1.80134
1.79764
1.78645
1.76966
1.76073
1.75896
1.75961
1.7603
1.75943
1.75613
1.75395
1.75318
1.75268
1.75276
1.75423
1.75853
1.77145
1.78322
1.78218
1.7789
1.77538
1.76944
1.75528
1.72554
1.70365
1.69934
1.69772
1.69611
1.69465
1.6939
1.69706
1.71363
1.72723
1.72663
1.72423
1.72234
1.71987
1.70884
1.67873
1.65723
1.65424
1.65311
1.65196
1.65088
1.65014
1.65228
1.6682
1.69185
1.69645
1.69496
1.69396
1.69322
1.68921
1.67355
1.63982
1.62188
1.61897
1.61763
1.61667
1.61604
1.61774
1.62926
1.6454
1.64743
1.64525
1.64161
1.63271
1.61412
1.60166
1.59938
1.59834
1.5974
1.59681
1.59735
1.60222
1.60652
1.60584
1.60439
1.60253
1.5967
1.57925
1.55403
1.54476
1.54292
1.54193
1.54163
1.54177
1.54475
1.55464
1.57414
1.58826
1.59506
1.61177
1.64966
1.73151
1.84965
1.99533
2.14243
2.27156
2.3942
2.44174
2.46458
2.47664
2.48583
2.48626
2.48458
2.47841
2.4618
2.4437
2.43881
2.43997
2.45193
2.47633
2.48616
2.48189
2.47224
2.44681
2.40398
2.37817
2.37312
2.37242
2.37905
2.40886
2.43804
2.44152
2.4407
2.43864
2.43245
2.4172
2.38659
2.36021
2.14394
2.1548
2.15298
2.14945
2.14519
2.13793
2.11927
2.09029
2.07277
2.06622
2.06231
2.06053
2.06267
2.06637
2.0661
2.06465
2.06293
2.06114
2.05837
2.05628
2.05531
2.05513
2.057
2.059
2.05984
2.05742
2.0476
2.04101
2.04242
2.04573
2.04921
2.05323
2.05777
2.06369
2.07405
2.07782
2.07568
2.07304
2.06967
2.06488
2.05722
2.04293
2.01917
2.00008
1.99281
1.99031
1.98906
1.98766
1.98639
1.98589
1.99106
2.00687
2.017
2.01586
2.01413
2.01176
2.00839
2.00205
1.98718
1.96035
1.93933
1.93172
1.9282
1.92701
1.92715
1.93273
1.94741
1.95858
1.9582
1.95468
1.9478
1.93204
1.90428
1.88522
1.88162
1.88047
1.88007
1.88034
1.88387
1.89611
1.91308
1.9169
1.91442
1.90916
1.89795
1.87475
1.85271
1.84633
1.84425
1.84322
1.84245
1.84345
1.85294
1.87325
1.88286
1.88167
1.87952
1.87429
1.85644
1.81507
1.78207
1.77413
1.77173
1.77058
1.76996
1.77395
1.79669
1.83814
1.85639
1.85607
1.8538
1.84879
1.83109
1.79083
1.76324
1.75721
1.75577
1.75511
1.75817
1.77698
1.80158
1.80621
1.80589
1.80413
1.79925
1.7846
1.76249
1.75092
1.7482
1.7488
1.75145
1.75295
1.75251
1.75189
1.75208
1.75295
1.7545
1.75692
1.76187
1.77239
1.77758
1.77566
1.77293
1.77047
1.76549
1.74999
1.71888
1.69946
1.69495
1.69297
1.69113
1.68954
1.68886
1.69494
1.71519
1.72511
1.72461
1.72406
1.72294
1.71926
1.70538
1.6746
1.65696
1.65367
1.65184
1.6503
1.64903
1.64837
1.65199
1.67063
1.68961
1.69114
1.68995
1.68946
1.6887
1.68443
1.66719
1.6344
1.62004
1.61776
1.61631
1.61493
1.6139
1.6148
1.62659
1.64233
1.64336
1.64168
1.63839
1.62908
1.61003
1.59972
1.59782
1.59664
1.59555
1.59484
1.59517
1.59987
1.6039
1.6031
1.60137
1.59895
1.59259
1.57518
1.55229
1.54424
1.5425
1.54127
1.53995
1.53946
1.54029
1.54906
1.56721
1.58066
1.5848
1.58682
1.59509
1.61446
1.666
1.76888
1.89736
2.05543
2.2001
2.3471
2.43078
2.44312
2.45047
2.46431
2.46686
2.46683
2.46076
2.44555
2.44058
2.44168
2.44955
2.46921
2.48088
2.47839
2.46738
2.44314
2.40379
2.37805
2.37394
2.37376
2.37957
2.40346
2.43436
2.44349
2.44255
2.44044
2.43362
2.41506
2.37724
2.11649
2.13365
2.14536
2.1469
2.14339
2.13647
2.12556
2.10961
2.09211
2.07691
2.06701
2.06299
2.06126
2.06094
2.06141
2.05985
2.05775
2.05422
2.05107
2.04993
2.04949
2.04986
2.05264
2.05633
2.05879
2.05959
2.05724
2.04578
2.03405
2.03354
2.03663
2.04026
2.04485
2.05031
2.05806
2.0725
2.07896
2.07634
2.07342
2.06939
2.06346
2.0544
2.03825
2.01269
1.9939
1.98769
1.98556
1.98442
1.9833
1.98252
1.98292
1.98838
2.00211
2.01482
2.01532
2.0128
2.01007
2.00648
2.00046
1.98674
1.95978
1.93528
1.92584
1.92136
1.91956
1.91899
1.9225
1.93734
1.9534
1.95479
1.95326
1.94959
1.93871
1.91284
1.88724
1.87968
1.8769
1.8753
1.87425
1.87551
1.88636
1.90494
1.91052
1.90902
1.90599
1.89793
1.87726
1.85262
1.84375
1.84098
1.83977
1.83876
1.83941
1.84935
1.87134
1.88195
1.88049
1.87659
1.86925
1.84963
1.80771
1.77722
1.77081
1.76883
1.7678
1.76781
1.77481
1.79914
1.83612
1.85297
1.85256
1.84879
1.84012
1.81591
1.77638
1.75742
1.75385
1.75286
1.75307
1.76055
1.78358
1.80472
1.80681
1.80487
1.80177
1.79511
1.77723
1.75313
1.74215
1.73956
1.74021
1.74339
1.74801
1.75076
1.75208
1.75395
1.75537
1.75626
1.75767
1.763
1.77306
1.77517
1.77333
1.77116
1.76816
1.76109
1.7413
1.70965
1.69496
1.69111
1.68901
1.68728
1.68606
1.68703
1.70013
1.71922
1.72264
1.7217
1.7208
1.7199
1.71637
1.69879
1.66751
1.65483
1.65205
1.6501
1.64846
1.64726
1.64674
1.65201
1.67226
1.68628
1.68685
1.6863
1.68636
1.6856
1.68066
1.66111
1.62947
1.61733
1.61452
1.61286
1.6114
1.61035
1.61203
1.62624
1.64173
1.64216
1.63981
1.63498
1.62317
1.60442
1.59742
1.59591
1.59469
1.59354
1.5927
1.59288
1.59817
1.60214
1.60152
1.60012
1.59773
1.59084
1.57206
1.54888
1.53996
1.53767
1.53636
1.53516
1.53466
1.53624
1.54488
1.56198
1.57438
1.5793
1.58152
1.58055
1.57986
1.59287
1.62791
1.70541
1.81491
1.96841
2.12702
2.28811
2.38371
2.40403
2.42178
2.44093
2.44862
2.4491
2.44243
2.44172
2.44671
2.45797
2.46848
2.46905
2.46723
2.45858
2.4416
2.41347
2.38526
2.37587
2.37461
2.3751
2.38982
2.42257
2.44299
2.44302
2.44148
2.43444
2.40219
2.10426
2.1082
2.11523
2.12498
2.13053
2.12954
2.12616
2.12078
2.11395
2.10566
2.09328
2.0769
2.06394
2.05651
2.05371
2.05147
2.04804
2.04466
2.0433
2.04277
2.04371
2.04652
2.05053
2.05445
2.05658
2.05708
2.0567
2.05316
2.03883
2.0253
2.02525
2.02903
2.03359
2.03924
2.0454
2.05404
2.06951
2.07793
2.07529
2.07149
2.06668
2.06
2.05032
2.03373
2.00784
1.98943
1.98432
1.98253
1.98159
1.98091
1.98051
1.9808
1.98426
1.99383
2.00644
2.01115
2.00961
2.00707
2.00386
1.99861
1.98594
1.95925
1.93169
1.92001
1.9146
1.91241
1.91177
1.91507
1.93211
1.95353
1.9562
1.95435
1.95102
1.94117
1.91519
1.88533
1.87469
1.87113
1.86932
1.86812
1.8687
1.87945
1.90084
1.90787
1.90671
1.90431
1.89694
1.87619
1.84987
1.84049
1.83779
1.8366
1.83584
1.83728
1.84752
1.86612
1.87404
1.87264
1.86921
1.86221
1.84337
1.80376
1.77412
1.76893
1.76771
1.76746
1.76992
1.77817
1.79659
1.82574
1.84283
1.84303
1.83872
1.82909
1.80697
1.77244
1.75533
1.75334
1.75328
1.75587
1.76426
1.78183
1.79869
1.80163
1.79982
1.79626
1.78857
1.7697
1.74607
1.7359
1.7334
1.73399
1.73707
1.74379
1.75057
1.75349
1.75457
1.75529
1.75627
1.75887
1.76665
1.77318
1.77231
1.76972
1.76706
1.76367
1.75489
1.7302
1.69999
1.69091
1.6886
1.68693
1.68556
1.68498
1.68939
1.70752
1.72222
1.72296
1.72208
1.72088
1.71862
1.71123
1.68793
1.66038
1.65242
1.64998
1.64802
1.64635
1.6451
1.64499
1.65361
1.67334
1.68233
1.68308
1.68352
1.68387
1.68265
1.67647
1.65301
1.62302
1.61452
1.61245
1.61094
1.60972
1.60912
1.61192
1.62606
1.6383
1.63843
1.63576
1.62886
1.6151
1.59959
1.59526
1.59397
1.59286
1.59181
1.59102
1.59211
1.59994
1.60314
1.60212
1.60014
1.59646
1.58694
1.56495
1.54309
1.53619
1.5342
1.5327
1.53174
1.53142
1.53292
1.5412
1.55671
1.57031
1.5751
1.5784
1.57893
1.57272
1.57595
1.58725
1.60714
1.65631
1.74537
1.8828
2.04387
2.19442
2.31799
2.35215
2.37915
2.40168
2.41908
2.43318
2.45004
2.46264
2.46874
2.46815
2.46442
2.46011
2.45245
2.43953
2.42206
2.39647
2.37696
2.37303
2.37112
2.37759
2.40774
2.43945
2.44343
2.44145
2.42304
2.09975
2.0968
2.09438
2.09433
2.10067
2.11375
2.12203
2.12482
2.12546
2.1234
2.11731
2.10411
2.08084
2.05882
2.0461
2.0403
2.03804
2.03652
2.03508
2.03414
2.03617
2.04414
2.0507
2.05329
2.05371
2.05355
2.05321
2.05242
2.0483
2.03287
2.01897
2.01932
2.0238
2.02917
2.03505
2.04075
2.04832
2.06242
2.07357
2.07215
2.06795
2.06284
2.05614
2.04692
2.03163
2.00633
1.98697
1.98227
1.98064
1.97979
1.97899
1.97805
1.97747
1.97948
1.98654
1.99803
2.00684
2.00736
2.00482
2.00112
1.99498
1.98251
1.95699
1.92837
1.91512
1.90958
1.90714
1.90662
1.90986
1.92579
1.9494
1.95576
1.95316
1.94805
1.93768
1.91244
1.88166
1.87008
1.8667
1.86491
1.86374
1.86479
1.87707
1.8994
1.90689
1.90512
1.90183
1.89408
1.87346
1.84706
1.83751
1.83507
1.83398
1.83339
1.8348
1.84346
1.85993
1.86688
1.86523
1.86242
1.85693
1.8416
1.80707
1.77611
1.76985
1.76886
1.7693
1.77129
1.77534
1.78687
1.81152
1.83058
1.83207
1.83012
1.82492
1.80945
1.77905
1.75896
1.75629
1.75596
1.75718
1.76204
1.77537
1.79178
1.79522
1.79354
1.79069
1.78392
1.76581
1.74153
1.73169
1.72964
1.73024
1.73282
1.73836
1.74583
1.75146
1.75358
1.7545
1.75651
1.76196
1.77
1.77122
1.76944
1.76714
1.76455
1.75979
1.74729
1.71847
1.69447
1.68942
1.68768
1.68625
1.68533
1.68587
1.69499
1.71218
1.71801
1.7174
1.71655
1.71545
1.71314
1.70368
1.67702
1.65503
1.65016
1.64805
1.64621
1.64471
1.64374
1.64473
1.65551
1.67204
1.67867
1.68034
1.68158
1.6818
1.68004
1.67127
1.6452
1.61947
1.61369
1.61206
1.61073
1.60984
1.6096
1.61273
1.62371
1.6301
1.62923
1.62721
1.62112
1.6079
1.59625
1.59372
1.59267
1.59173
1.59097
1.59067
1.59429
1.60145
1.60223
1.60073
1.59788
1.59294
1.58115
1.55656
1.53698
1.53192
1.53024
1.5288
1.52801
1.52798
1.53073
1.53961
1.55434
1.5674
1.5728
1.57518
1.57585
1.57157
1.57355
1.57676
1.58115
1.59185
1.62092
1.68897
1.79358
1.93273
2.07674
2.21525
2.27278
2.31494
2.35467
2.39896
2.44726
2.47162
2.47563
2.47359
2.46322
2.45307
2.44876
2.44098
2.42618
2.40494
2.38048
2.37136
2.36943
2.37166
2.39519
2.43136
2.44284
2.43353
2.09989
2.08861
2.08085
2.07624
2.0752
2.08429
2.1105
2.12994
2.13323
2.13214
2.12949
2.12357
2.10753
2.07325
2.04338
2.03446
2.03142
2.02953
2.02787
2.02667
2.02735
2.0357
2.04656
2.04958
2.04961
2.04978
2.04981
2.04935
2.04862
2.04463
2.02888
2.01413
2.01453
2.01938
2.02484
2.02996
2.03469
2.04089
2.05376
2.06787
2.0682
2.06436
2.05949
2.05352
2.04533
2.03113
2.00606
1.9856
1.98023
1.97814
1.97676
1.97561
1.97473
1.97461
1.97677
1.98141
1.98892
1.9974
2.00021
1.99831
1.99509
1.98921
1.97817
1.95711
1.92893
1.91176
1.90602
1.90342
1.90294
1.90532
1.91729
1.93784
1.94805
1.94692
1.94172
1.93151
1.90907
1.87954
1.86699
1.86421
1.86267
1.86186
1.86341
1.87412
1.8937
1.90344
1.90239
1.89804
1.89012
1.87182
1.84621
1.835
1.83208
1.83072
1.82972
1.82998
1.83676
1.8532
1.8609
1.85954
1.858
1.85453
1.84265
1.81199
1.77904
1.77018
1.76812
1.76679
1.76551
1.7659
1.77472
1.80087
1.82443
1.82843
1.82834
1.8257
1.81352
1.78353
1.75974
1.75514
1.75417
1.75354
1.75554
1.76744
1.78551
1.79021
1.78923
1.78793
1.78282
1.76493
1.73846
1.72813
1.72653
1.72675
1.72805
1.73173
1.73846
1.74629
1.75162
1.75509
1.76012
1.76749
1.77045
1.76935
1.76703
1.76438
1.76104
1.75489
1.739
1.70912
1.69219
1.68926
1.68783
1.68659
1.68599
1.68796
1.70066
1.714
1.71492
1.71381
1.7128
1.71158
1.70779
1.69382
1.66608
1.65161
1.64853
1.64664
1.64506
1.64389
1.64319
1.64526
1.65639
1.66957
1.67511
1.67743
1.67863
1.67853
1.6767
1.66623
1.6387
1.6181
1.61428
1.61269
1.61125
1.61007
1.60927
1.61199
1.62078
1.62287
1.6215
1.61954
1.61341
1.60168
1.59451
1.59328
1.59256
1.59193
1.59156
1.59294
1.5986
1.6003
1.59887
1.59725
1.59447
1.58742
1.57027
1.54351
1.53135
1.52888
1.52731
1.52629
1.52595
1.52673
1.53111
1.53971
1.55272
1.56496
1.57003
1.57217
1.57158
1.57004
1.57179
1.57152
1.57125
1.57295
1.57894
1.59705
1.63965
1.71174
1.81519
1.9402
2.09893
2.19295
2.25414
2.32475
2.39439
2.45433
2.47587
2.47769
2.46795
2.45159
2.43977
2.43395
2.42556
2.40886
2.3857
2.37134
2.36966
2.3707
2.38745
2.42118
2.43247
2.10839
2.08348
2.0717
2.0673
2.06537
2.06621
2.08247
2.11845
2.13794
2.13737
2.13452
2.12998
2.12045
2.09656
2.05746
2.03498
2.02864
2.02499
2.02302
2.02174
2.02119
2.02542
2.03773
2.04564
2.04611
2.04547
2.04584
2.04633
2.04595
2.04519
2.04143
2.02563
2.00933
2.00945
2.01419
2.01914
2.02368
2.02794
2.03352
2.04575
2.06296
2.06569
2.06226
2.058
2.05232
2.04422
2.02976
2.00459
1.9836
1.97764
1.97555
1.97419
1.97321
1.97296
1.9739
1.97478
1.97584
1.97928
1.98645
1.99153
1.99053
1.98781
1.98399
1.97678
1.962
1.93554
1.91155
1.9028
1.89948
1.89869
1.89967
1.90726
1.92393
1.93731
1.9381
1.93427
1.9263
1.90916
1.88235
1.86649
1.86335
1.86201
1.86137
1.86267
1.87091
1.88671
1.89677
1.89684
1.89332
1.88583
1.86992
1.84481
1.83105
1.82709
1.82536
1.82411
1.82386
1.83014
1.8489
1.85959
1.85945
1.85837
1.85542
1.84499
1.81406
1.77634
1.76372
1.75989
1.75744
1.75564
1.75573
1.76668
1.80115
1.8285
1.83176
1.83158
1.8287
1.81522
1.78143
1.7556
1.74997
1.74859
1.74772
1.74907
1.76162
1.78301
1.78942
1.78904
1.78783
1.78238
1.76266
1.73423
1.72379
1.72217
1.72202
1.72227
1.72443
1.73056
1.74145
1.75253
1.75942
1.76511
1.76968
1.76932
1.7673
1.76477
1.76207
1.75824
1.75055
1.73099
1.70218
1.69112
1.68908
1.68774
1.68669
1.68648
1.69048
1.70423
1.71234
1.71135
1.70982
1.7086
1.70698
1.70155
1.68326
1.65795
1.64943
1.64702
1.64521
1.64387
1.64286
1.64225
1.64474
1.65552
1.66657
1.67203
1.67559
1.67734
1.67755
1.67537
1.66163
1.63255
1.61724
1.6143
1.61228
1.61038
1.60889
1.60811
1.61144
1.61622
1.61567
1.61416
1.61238
1.60682
1.5981
1.59441
1.59373
1.59323
1.59281
1.5933
1.59727
1.5992
1.59765
1.59494
1.59185
1.58728
1.57705
1.55532
1.5338
1.52863
1.52704
1.5258
1.52509
1.52533
1.52852
1.53404
1.54106
1.55157
1.56212
1.56627
1.56772
1.56711
1.56583
1.56607
1.56475
1.56386
1.56459
1.56689
1.57548
1.58861
1.60666
1.64578
1.71812
1.82939
1.97777
2.11068
2.20205
2.30008
2.39426
2.45511
2.47158
2.47029
2.45004
2.43134
2.42002
2.41247
2.40275
2.38601
2.37241
2.37111
2.37226
2.38616
2.41336
2.13573
2.09201
2.07201
2.06597
2.06353
2.06245
2.0659
2.08469
2.11458
2.13331
2.13398
2.12962
2.12241
2.10977
2.08541
2.05163
2.0309
2.02431
2.021
2.01929
2.01828
2.01927
2.02604
2.03436
2.03961
2.0414
2.04159
2.04183
2.04218
2.04194
2.04116
2.0377
2.02246
2.00435
2.00364
2.00806
2.01283
2.01736
2.02196
2.02778
2.03905
2.0574
2.06473
2.06144
2.05625
2.05018
2.04181
2.02796
2.0053
1.98379
1.97598
1.97384
1.97269
1.97179
1.97101
1.97013
1.96883
1.96774
1.96842
1.97453
1.98342
1.98509
1.98391
1.98184
1.97758
1.96688
1.94232
1.91166
1.89824
1.89389
1.89254
1.89216
1.89605
1.90981
1.92689
1.93079
1.92819
1.92342
1.91173
1.88799
1.86769
1.86295
1.86158
1.86088
1.8619
1.86857
1.88149
1.88987
1.88948
1.88669
1.88035
1.86574
1.8409
1.82618
1.82165
1.81976
1.81846
1.8182
1.82599
1.84898
1.8622
1.86157
1.85992
1.85597
1.84305
1.80594
1.76575
1.75381
1.75046
1.7489
1.748
1.74965
1.76696
1.80885
1.8339
1.83445
1.83312
1.8285
1.81082
1.77276
1.74883
1.74416
1.74306
1.74231
1.74448
1.75972
1.78341
1.79029
1.78928
1.78672
1.77947
1.75672
1.72821
1.7191
1.71748
1.7171
1.71709
1.71915
1.72654
1.7404
1.75433
1.76163
1.76535
1.76669
1.7658
1.76394
1.76204
1.7597
1.75568
1.74639
1.7236
1.69801
1.69123
1.68979
1.6881
1.68649
1.68594
1.69088
1.70458
1.70899
1.7076
1.70633
1.7052
1.70324
1.69553
1.67321
1.65279
1.64772
1.64553
1.64368
1.6421
1.64061
1.63986
1.64388
1.65632
1.66663
1.67276
1.67687
1.67786
1.67754
1.67282
1.65419
1.62672
1.61633
1.61331
1.61068
1.60854
1.60703
1.60664
1.60948
1.61006
1.6089
1.60779
1.60654
1.60181
1.59619
1.59468
1.59418
1.59376
1.59404
1.59763
1.59848
1.59624
1.59291
1.58909
1.58476
1.57815
1.56356
1.54016
1.52906
1.52721
1.52595
1.52506
1.52506
1.52796
1.53319
1.53768
1.54253
1.55025
1.55784
1.56079
1.5616
1.56054
1.55934
1.55865
1.55736
1.55744
1.55843
1.5615
1.5699
1.57738
1.57877
1.58267
1.60152
1.64695
1.73728
1.87377
2.02546
2.15484
2.27578
2.38524
2.44119
2.45219
2.4453
2.41712
2.40332
2.39587
2.38659
2.37725
2.37415
2.37492
2.38071
2.39985
2.1599
2.12527
2.08665
2.06975
2.06549
2.06382
2.06431
2.06993
2.08167
2.09849
2.11567
2.1218
2.11915
2.11179
2.0995
2.08035
2.0534
2.03024
2.02146
2.01901
2.01782
2.01782
2.02053
2.02444
2.02843
2.03263
2.03575
2.03701
2.03723
2.03728
2.03713
2.03646
2.03355
2.0195
1.99997
1.99822
2.00257
2.00742
2.01246
2.01794
2.02393
2.03278
2.04768
2.05903
2.05802
2.05314
2.04672
2.03899
2.02783
2.00902
1.9864
1.97532
1.97212
1.97046
1.96847
1.96585
1.96281
1.96009
1.95825
1.958
1.96547
1.98072
1.98505
1.98414
1.98225
1.97882
1.96999
1.94573
1.90945
1.89198
1.88685
1.88504
1.88412
1.88596
1.89799
1.91908
1.92717
1.92606
1.9234
1.9149
1.89342
1.86925
1.86213
1.86044
1.85978
1.86029
1.86453
1.87471
1.88279
1.88235
1.87954
1.87372
1.85976
1.83575
1.82184
1.81786
1.81624
1.81526
1.81636
1.82738
1.84978
1.86189
1.86071
1.85684
1.84968
1.83147
1.78927
1.75577
1.74873
1.74681
1.74582
1.74552
1.75048
1.77292
1.81381
1.83429
1.83385
1.83058
1.8233
1.80162
1.76287
1.74396
1.74069
1.73984
1.73944
1.74323
1.75884
1.77982
1.78691
1.7863
1.78323
1.77417
1.74947
1.72257
1.71518
1.71383
1.71344
1.71423
1.71879
1.72755
1.73934
1.75066
1.75803
1.76241
1.76388
1.76289
1.76186
1.76047
1.75835
1.75412
1.7424
1.7154
1.6928
1.68751
1.68602
1.68442
1.68304
1.68301
1.69111
1.70434
1.70634
1.70537
1.70434
1.70316
1.70039
1.68886
1.6634
1.64849
1.64477
1.6424
1.64051
1.63896
1.63784
1.63841
1.64691
1.66018
1.66871
1.67389
1.67609
1.67612
1.67512
1.66745
1.64409
1.62163
1.61471
1.61122
1.60801
1.60601
1.60467
1.60468
1.6054
1.60438
1.60329
1.60214
1.6009
1.59756
1.59513
1.59472
1.59445
1.5949
1.59802
1.59822
1.59567
1.59215
1.58782
1.58252
1.57622
1.56564
1.54633
1.53147
1.52877
1.52768
1.52671
1.52656
1.52937
1.53386
1.53711
1.53914
1.54178
1.54714
1.55252
1.55434
1.55465
1.55469
1.55384
1.55139
1.54989
1.55077
1.55301
1.55819
1.56833
1.57175
1.57167
1.56982
1.56536
1.57262
1.60101
1.66505
1.78779
1.93267
2.0905
2.2247
2.33249
2.40208
2.41586
2.40629
2.38223
2.36999
2.36638
2.36725
2.37321
2.38208
2.40017
2.1675
2.15432
2.13178
2.10172
2.07836
2.06986
2.06733
2.06595
2.06715
2.0708
2.07813
2.09271
2.10544
2.10556
2.10047
2.09229
2.08053
2.06231
2.03946
2.02464
2.02046
2.01898
2.01814
2.01836
2.01877
2.01978
2.02284
2.02787
2.03153
2.03249
2.03251
2.03243
2.03197
2.02968
2.01789
1.99765
1.99354
1.99761
2.0033
2.00912
2.01472
2.01967
2.02588
2.03805
2.05114
2.05135
2.04812
2.04447
2.03918
2.03016
2.01339
1.98964
1.97441
1.9682
1.96435
1.96098
1.95729
1.95399
1.95208
1.95081
1.95145
1.96157
1.9803
1.98679
1.9851
1.98288
1.9792
1.97017
1.94445
1.90448
1.88509
1.8798
1.87765
1.87654
1.87775
1.89044
1.91648
1.92753
1.92692
1.92504
1.91829
1.89902
1.87162
1.86042
1.85769
1.85654
1.85581
1.8575
1.86619
1.87498
1.87482
1.87207
1.86693
1.85432
1.83157
1.81863
1.8161
1.81516
1.81564
1.81985
1.82937
1.84341
1.85163
1.85078
1.84672
1.83824
1.81837
1.77841
1.75109
1.74697
1.746
1.74567
1.74715
1.75473
1.77657
1.8121
1.82853
1.82814
1.825
1.81704
1.79434
1.75687
1.74087
1.73868
1.73819
1.73846
1.7429
1.75636
1.77478
1.78153
1.78091
1.77797
1.76847
1.74308
1.71823
1.71297
1.71222
1.71246
1.71573
1.72103
1.72632
1.73335
1.74409
1.75378
1.75876
1.76196
1.7618
1.76085
1.75972
1.7574
1.75161
1.73481
1.7043
1.68789
1.68456
1.68273
1.68083
1.67955
1.68149
1.69462
1.70465
1.705
1.7044
1.70379
1.70257
1.69763
1.67878
1.65307
1.64433
1.64171
1.63951
1.63784
1.63649
1.63586
1.63944
1.6517
1.66423
1.67249
1.67591
1.67613
1.67559
1.67154
1.65798
1.63289
1.61759
1.61244
1.60849
1.60546
1.60349
1.60206
1.60167
1.6008
1.59946
1.59802
1.59627
1.59504
1.59469
1.59466
1.59503
1.59619
1.59878
1.59802
1.59495
1.59127
1.58681
1.58081
1.57375
1.56485
1.55006
1.53413
1.52984
1.5291
1.52866
1.52933
1.53231
1.53548
1.53709
1.5379
1.53836
1.53975
1.54342
1.54624
1.54738
1.54812
1.54827
1.54657
1.54256
1.54166
1.54379
1.54827
1.55748
1.56691
1.56807
1.56667
1.56483
1.5596
1.55086
1.55221
1.56787
1.60742
1.69796
1.83579
1.99207
2.13999
2.25488
2.34253
2.37083
2.3577
2.34284
2.34195
2.34295
2.35839
2.39694
2.16489
2.16259
2.15628
2.1431
2.12112
2.09321
2.0736
2.06442
2.06
2.0578
2.05652
2.05931
2.07286
2.09235
2.09614
2.09337
2.0898
2.08365
2.07273
2.05389
2.03241
2.02085
2.01541
2.01292
2.01159
2.01052
2.01012
2.01237
2.01899
2.02583
2.02829
2.0285
2.02855
2.02836
2.02684
2.01775
1.99786
1.99031
1.99367
1.99984
2.00548
2.01026
2.01403
2.01868
2.03055
2.04857
2.05027
2.04776
2.04466
2.03985
2.03156
2.01509
1.98815
1.9674
1.95974
1.9565
1.95367
1.95076
1.94874
1.94743
1.94678
1.94923
1.95882
1.97499
1.98563
1.98495
1.98163
1.97685
1.96678
1.9394
1.89849
1.87928
1.87422
1.87199
1.87088
1.87183
1.8849
1.91467
1.9296
1.9296
1.92782
1.92159
1.90224
1.87067
1.85562
1.85172
1.85004
1.84886
1.84953
1.85758
1.8678
1.86844
1.86671
1.86325
1.85334
1.83388
1.82022
1.8176
1.81703
1.81824
1.82014
1.82379
1.83261
1.83987
1.83905
1.83556
1.82887
1.81279
1.77884
1.75269
1.74844
1.74776
1.74792
1.74972
1.75631
1.7764
1.80961
1.82323
1.82235
1.81981
1.81291
1.79084
1.75397
1.73881
1.73683
1.73626
1.73613
1.73917
1.7511
1.76953
1.77698
1.77662
1.77449
1.76551
1.7415
1.71789
1.71269
1.71221
1.71422
1.71707
1.71864
1.72089
1.72767
1.74086
1.75144
1.75612
1.75949
1.76142
1.76084
1.75886
1.75483
1.74608
1.72281
1.69346
1.6836
1.68119
1.67932
1.67769
1.67713
1.68442
1.70153
1.70703
1.70642
1.70546
1.70414
1.7012
1.69123
1.6654
1.64525
1.6408
1.63879
1.63693
1.63556
1.63478
1.63565
1.64362
1.657
1.6676
1.67303
1.67378
1.67315
1.67095
1.66432
1.64491
1.62244
1.61444
1.61001
1.60466
1.6017
1.59985
1.59879
1.59829
1.59702
1.59553
1.59387
1.5922
1.59165
1.59163
1.59177
1.59215
1.59377
1.59536
1.5936
1.59047
1.58644
1.58052
1.5733
1.56553
1.55428
1.53832
1.53054
1.5294
1.52893
1.52892
1.53017
1.5337
1.53672
1.53748
1.53755
1.53733
1.5372
1.53815
1.53934
1.5404
1.54136
1.54104
1.53777
1.53362
1.53446
1.53826
1.54532
1.55743
1.56469
1.56454
1.56278
1.56009
1.55619
1.54911
1.54233
1.54177
1.54734
1.57159
1.6351
1.74979
1.88469
2.04226
2.15835
2.25763
2.32108
2.32016
2.30675
2.31518
2.35791
2.15781
2.16419
2.16479
2.16295
2.15562
2.1368
2.10166
2.06826
2.05311
2.04742
2.04439
2.0423
2.04346
2.05835
2.0859
2.09444
2.09372
2.09223
2.08938
2.08225
2.06392
2.03494
2.01642
2.0085
2.00493
2.00339
2.00204
2.00118
2.00274
2.01071
2.0211
2.02496
2.02533
2.02586
2.02642
2.02586
2.01904
1.99908
1.98706
1.98919
1.99502
2.00013
2.00434
2.00775
2.01199
2.02366
2.04546
2.05082
2.04761
2.04421
2.03938
2.03021
2.00989
1.97764
1.95988
1.95511
1.95248
1.94989
1.94769
1.9464
1.94589
1.94683
1.94926
1.95388
1.96443
1.97791
1.98105
1.97795
1.97192
1.9602
1.9331
1.89416
1.87509
1.87032
1.86817
1.8671
1.86884
1.88461
1.91656
1.93227
1.93125
1.92828
1.9209
1.89816
1.86421
1.84949
1.84524
1.84325
1.84192
1.84227
1.85057
1.86239
1.86419
1.86358
1.86179
1.85525
1.83872
1.82276
1.81794
1.81618
1.8146
1.81327
1.81387
1.82168
1.83057
1.8302
1.82817
1.82424
1.81203
1.78164
1.755
1.75029
1.7493
1.74882
1.74899
1.75385
1.77377
1.80774
1.82008
1.81937
1.81747
1.81078
1.787
1.74897
1.73438
1.73214
1.73128
1.73087
1.73338
1.74629
1.7666
1.77454
1.77465
1.77285
1.76484
1.74394
1.72051
1.71383
1.71285
1.71275
1.71269
1.71297
1.71597
1.72647
1.74173
1.75036
1.75393
1.75589
1.7566
1.75614
1.75463
1.74985
1.73692
1.70768
1.6851
1.6805
1.67883
1.67733
1.67629
1.67822
1.69203
1.70395
1.7045
1.70343
1.70223
1.70075
1.69703
1.68187
1.653
1.64005
1.63807
1.63651
1.63503
1.63392
1.63345
1.63657
1.64741
1.66025
1.66893
1.67178
1.672
1.67137
1.66707
1.65462
1.63151
1.61637
1.60999
1.60372
1.59953
1.59767
1.59662
1.59659
1.59565
1.59419
1.59282
1.59126
1.58981
1.58946
1.58912
1.58837
1.58766
1.58886
1.59143
1.5898
1.58657
1.5817
1.5757
1.56983
1.56127
1.54573
1.5329
1.53058
1.52976
1.52891
1.52879
1.53109
1.53659
1.53813
1.53779
1.53684
1.53469
1.53209
1.53177
1.53218
1.53327
1.53393
1.53341
1.53038
1.52668
1.52794
1.53275
1.5423
1.55622
1.56226
1.56162
1.55983
1.55791
1.55509
1.54896
1.54083
1.53845
1.538
1.54095
1.56041
1.5988
1.67477
1.78301
1.93266
2.05496
2.15548
2.26994
2.28018
2.30949
2.12687
2.16142
2.17202
2.1725
2.17029
2.16241
2.14084
2.09717
2.05654
2.04118
2.03521
2.03179
2.02973
2.0315
2.05146
2.08755
2.09942
2.09902
2.09712
2.0938
2.08612
2.06547
2.03159
2.00946
2.00091
1.99702
1.99554
1.99421
1.99325
1.99455
2.00382
2.01778
2.02304
2.02397
2.02517
2.02632
2.02612
2.01987
1.99793
1.9821
1.9839
1.98958
1.99435
1.99832
2.0017
2.00598
2.0179
2.04144
2.04968
2.04668
2.04271
2.03625
2.02457
2.00072
1.96831
1.95524
1.95224
1.95001
1.94812
1.94708
1.94674
1.94685
1.94654
1.94623
1.948
1.95579
1.96848
1.97237
1.96952
1.96351
1.95184
1.92829
1.89414
1.87279
1.86802
1.86682
1.86703
1.87181
1.88755
1.91291
1.92911
1.92911
1.92459
1.91398
1.88967
1.85749
1.84322
1.8386
1.83632
1.83479
1.83522
1.84666
1.86307
1.86598
1.86593
1.86415
1.85755
1.83879
1.81871
1.81128
1.80865
1.80667
1.80521
1.80549
1.8142
1.82575
1.82652
1.82548
1.82299
1.81291
1.7833
1.75491
1.74885
1.74738
1.74649
1.74595
1.75027
1.77319
1.80995
1.82013
1.81869
1.81587
1.80695
1.7781
1.74035
1.7288
1.72661
1.72561
1.72519
1.72884
1.746
1.76788
1.77483
1.77588
1.77514
1.76804
1.74496
1.71717
1.70878
1.70787
1.70763
1.70752
1.70855
1.71472
1.72942
1.74295
1.74873
1.75172
1.75271
1.75241
1.75123
1.74877
1.7422
1.72409
1.69442
1.68138
1.67922
1.67795
1.67688
1.67672
1.68367
1.69989
1.70474
1.70384
1.70279
1.70146
1.6988
1.69096
1.66881
1.6431
1.63598
1.63479
1.63326
1.63189
1.63106
1.63187
1.63892
1.65244
1.665
1.66967
1.67
1.66948
1.6668
1.65941
1.64327
1.62192
1.60965
1.60176
1.59769
1.59576
1.59478
1.59531
1.59473
1.59334
1.59199
1.59042
1.58848
1.58722
1.58618
1.58432
1.58287
1.58218
1.58504
1.58924
1.58743
1.58373
1.57995
1.57599
1.56992
1.55672
1.53701
1.5277
1.52655
1.52602
1.52573
1.52671
1.53209
1.53752
1.53784
1.53689
1.53435
1.52998
1.52567
1.52472
1.52467
1.52502
1.52538
1.52395
1.52026
1.51897
1.52185
1.52819
1.53985
1.55547
1.56074
1.56029
1.55904
1.55825
1.55687
1.55042
1.54024
1.53744
1.53712
1.5381
1.54132
1.54644
1.56235
1.6106
1.69314
1.8011
1.943
2.06708
2.20649
2.09051
2.13164
2.16871
2.1756
2.17409
2.16977
2.16037
2.1349
2.08335
2.04189
2.03032
2.02635
2.02405
2.02254
2.02631
2.05127
2.09042
2.1025
2.10007
2.09709
2.09297
2.08418
2.0629
2.02763
2.00324
1.99445
1.99021
1.98858
1.98713
1.98601
1.98724
1.99869
2.01679
2.02297
2.02387
2.02521
2.02631
2.02591
2.0188
1.99371
1.97626
1.97827
1.98372
1.98814
1.99224
1.99601
2.00111
2.01355
2.03701
2.04826
2.04488
2.03857
2.03087
2.01864
1.99439
1.96468
1.95473
1.95246
1.95042
1.94934
1.94882
1.94739
1.94541
1.94354
1.94251
1.94293
1.94794
1.95812
1.96217
1.95916
1.9534
1.94499
1.92991
1.90376
1.87812
1.87011
1.86916
1.87132
1.87691
1.88659
1.90272
1.91741
1.91899
1.91478
1.90431
1.88219
1.85286
1.83876
1.83443
1.83232
1.83112
1.83346
1.84906
1.86618
1.8686
1.86685
1.86306
1.85371
1.83154
1.81096
1.80401
1.8014
1.79958
1.79828
1.79934
1.81255
1.82649
1.82695
1.82591
1.82328
1.81279
1.78132
1.75228
1.74595
1.74435
1.74348
1.74315
1.74903
1.77506
1.81128
1.81964
1.8172
1.81171
1.79892
1.76587
1.73152
1.72295
1.72121
1.72046
1.72051
1.72809
1.75325
1.77584
1.77991
1.77997
1.77783
1.76671
1.73643
1.70965
1.7038
1.70331
1.7031
1.70326
1.70604
1.71635
1.73286
1.74229
1.74561
1.74734
1.74753
1.747
1.74555
1.74232
1.73327
1.71119
1.68717
1.68077
1.67926
1.67805
1.67727
1.67872
1.68956
1.70016
1.70025
1.69908
1.69793
1.69638
1.69306
1.68212
1.65576
1.63593
1.63214
1.6312
1.63012
1.6294
1.62949
1.63349
1.64443
1.659
1.66699
1.66783
1.66728
1.66482
1.66039
1.65139
1.63268
1.61269
1.60087
1.59625
1.59443
1.59327
1.59341
1.59385
1.59259
1.59129
1.59
1.58791
1.58544
1.58348
1.58081
1.57863
1.57759
1.57746
1.58225
1.58481
1.58374
1.58163
1.57843
1.57449
1.56634
1.54707
1.52887
1.52478
1.52404
1.52352
1.5236
1.52689
1.53505
1.53827
1.53773
1.53513
1.53004
1.52385
1.51881
1.51635
1.51532
1.51498
1.51478
1.51347
1.51167
1.51352
1.51812
1.52502
1.53755
1.55419
1.56086
1.56122
1.56104
1.56099
1.55939
1.55071
1.54007
1.53751
1.53671
1.53512
1.53162
1.52897
1.52932
1.53475
1.55529
1.6052
1.68373
1.87883
2.06888
2.09418
2.13497
2.16581
2.17114
2.1693
2.16368
2.15171
2.12169
2.06784
2.03309
2.02606
2.0235
2.02169
2.02128
2.02702
2.0492
2.08374
2.09932
2.09743
2.09374
2.08956
2.08185
2.06239
2.02576
1.99808
1.98872
1.98421
1.98227
1.98056
1.97928
1.98065
1.99399
2.0149
2.02295
2.02394
2.02497
2.02517
2.02412
2.01548
1.98742
1.9704
1.97258
1.97784
1.98248
1.98742
1.99243
1.9983
2.00943
2.02952
2.04259
2.04053
2.03407
2.0262
2.01409
1.99036
1.96354
1.95553
1.95419
1.9532
1.9512
1.94876
1.94608
1.94217
1.93849
1.93611
1.93454
1.936
1.94554
1.95254
1.95056
1.94807
1.94415
1.93546
1.91695
1.8898
1.87674
1.87498
1.87449
1.8753
1.87914
1.89031
1.90531
1.90807
1.90453
1.89623
1.87869
1.85167
1.83574
1.83243
1.83128
1.83148
1.83595
1.84717
1.85891
1.86245
1.86123
1.85705
1.84555
1.82148
1.8041
1.79886
1.79667
1.79503
1.79389
1.79673
1.81414
1.82726
1.82678
1.8251
1.82188
1.80961
1.77562
1.74856
1.74375
1.74246
1.74161
1.74169
1.74983
1.77698
1.80681
1.81182
1.80938
1.80296
1.78712
1.75274
1.72519
1.7197
1.71835
1.7178
1.71957
1.73395
1.76426
1.78076
1.78083
1.77988
1.77591
1.75988
1.7252
1.70357
1.69971
1.69939
1.69926
1.69984
1.70467
1.71913
1.73448
1.73938
1.74109
1.74242
1.74243
1.7416
1.73983
1.73607
1.72504
1.70142
1.68487
1.68181
1.6804
1.67872
1.67754
1.6805
1.69365
1.69874
1.6973
1.69598
1.69468
1.69272
1.68737
1.67131
1.64352
1.63068
1.62907
1.62821