/*--------------------------------*- C++ -*----------------------------------*\
  =========                 |
  \\      /  F ield         | OpenFOAM: The Open Source CFD Toolbox
   \\    /   O peration     | Website:  https://openfoam.org
    \\  /    A nd           | Version:  7
     \\/     M anipulation  |
\*---------------------------------------------------------------------------*/
FoamFile
{
    version     2.0;
    format      ascii;
    class       volScalarField;
    location    "0.6";
    object      rho;
}
// * * * * * * * * * * * * * * * * * * * * * * * * * * * * * * * * * * * * * //

dimensions      [1 -3 0 0 0 0 0];

internalField   nonuniform List<scalar> 
16192
(
1.01721
1.01407
1.0131
1.01306
1.01537
1.01909
1.01975
1.01822
1.01551
1.01188
1.00598
0.99888
0.993874
0.991399
0.989944
0.988724
0.988217
0.987705
0.986726
0.985445
0.984873
0.984661
0.984501
0.983529
0.981939
0.980238
0.978372
0.976378
0.974407
0.972365
0.969655
0.966342
0.961216
0.955151
0.951446
0.949592
0.948668
0.948465
0.950978
0.956375
0.958836
0.958056
0.956383
0.953074
0.947979
0.941288
0.934658
0.930728
0.9276
0.924806
0.922993
0.921341
0.919705
0.918319
0.917229
0.916463
0.916066
0.916435
0.918853
0.924466
0.931002
0.932255
0.930704
0.928576
0.92622
0.923486
0.920029
0.9143
0.905363
0.898321
0.895066
0.894046
0.89342
0.8932
0.894333
0.895037
0.893592
0.891323
0.888466
0.884735
0.880358
0.87651
0.873374
0.869892
0.864752
0.857826
0.854113
0.853351
0.852945
0.853173
0.854955
0.856022
0.854769
0.852521
0.849345
0.84525
0.840392
0.83412
0.826371
0.819768
0.816493
0.816084
0.817166
0.820807
0.826975
0.833591
0.838443
0.840502
0.840806
0.840799
0.840135
0.836561
0.830759
0.830094
0.831806
0.83569
0.842958
0.852522
0.863909
0.879744
0.897222
0.904294
0.904752
0.903521
0.900846
0.898568
0.89692
0.89669
0.898551
0.901787
0.905457
0.908514
0.910233
0.911235
0.912341
0.913443
0.915342
0.919869
0.926017
0.930081
0.932807
0.935713
0.937289
0.938069
0.938789
0.938117
0.934007
0.929909
0.928983
0.92923
0.930084
0.932997
0.941482
0.957003
0.971531
0.976568
0.977499
0.977944
0.975806
0.974516
0.975523
0.977791
0.981446
0.987242
0.993639
0.998558
1.00319
1.0109
1.0242
1.04083
1.05769
1.06534
1.06671
1.06711
1.06793
1.06997
1.07448
1.07818
1.07947
1.08002
1.07901
1.07737
1.07877
1.08178
1.08621
1.09354
1.10403
1.1106
1.11165
1.11188
1.11029
1.1089
1.1096
1.11122
1.1135
1.11483
1.11414
1.11301
1.1116
1.10848
1.10205
1.09925
1.09906
1.09994
1.10488
1.11406
1.1197
1.12047
1.11961
1.11908
1.12131
1.12645
1.13642
1.15066
1.15678
1.1584
1.15861
1.15567
1.14682
1.13651
1.12754
1.11947
1.11531
1.11545
1.11852
1.12257
1.12081
1.11187
1.08982
1.04789
0.986884
0.948359
0.943346
0.942626
0.943942
0.949493
0.959405
0.979014
1.00867
1.02156
1.02293
1.0214
1.02089
1.02084
1.0197
1.01569
1.00981
1.00375
0.995719
0.983202
0.970796
0.967
0.969808
1.02177
1.02107
1.02112
1.02306
1.02499
1.02436
1.0222
1.01941
1.01552
1.01013
1.00475
1.00138
1.00026
0.999851
0.998879
0.997607
0.996199
0.99423
0.991599
0.990048
0.989558
0.989469
0.989074
0.987765
0.985884
0.983783
0.981608
0.979491
0.977303
0.974337
0.970607
0.965214
0.960443
0.957707
0.956493
0.955817
0.956413
0.960828
0.966589
0.967669
0.966295
0.963748
0.959568
0.954216
0.94649
0.940025
0.936263
0.933271
0.9307
0.92889
0.927548
0.9265
0.925974
0.926031
0.926268
0.926694
0.927467
0.928803
0.931597
0.935231
0.935724
0.934384
0.932093
0.929388
0.926378
0.923043
0.919149
0.913456
0.907235
0.904949
0.904216
0.903632
0.903329
0.903361
0.902416
0.90061
0.898114
0.89494
0.891685
0.888465
0.884951
0.881694
0.879127
0.876769
0.873858
0.869903
0.868126
0.867629
0.867296
0.866678
0.865414
0.863421
0.860002
0.85535
0.85012
0.845021
0.839797
0.833984
0.828662
0.826281
0.826303
0.828372
0.833233
0.838562
0.842191
0.843183
0.842812
0.842624
0.84215
0.840538
0.835242
0.829367
0.829263
0.830554
0.83359
0.83876
0.848372
0.862888
0.876859
0.888866
0.898393
0.905035
0.908144
0.907802
0.906231
0.90429
0.904174
0.906053
0.909037
0.911333
0.913304
0.914729
0.915108
0.915638
0.917642
0.921172
0.92577
0.931312
0.936231
0.938409
0.938732
0.938858
0.939275
0.939073
0.936203
0.933784
0.932616
0.93245
0.933307
0.935002
0.939939
0.951079
0.966215
0.97662
0.979314
0.979908
0.980006
0.977865
0.978132
0.979677
0.981908
0.985414
0.990417
0.994821
0.997985
1.00123
1.00628
1.01651
1.03492
1.05465
1.06381
1.06756
1.07017
1.07222
1.07415
1.07695
1.08019
1.08166
1.08226
1.0817
1.07865
1.07902
1.08154
1.08589
1.09418
1.10691
1.11485
1.11637
1.11665
1.11575
1.11338
1.11322
1.11421
1.11617
1.11781
1.11743
1.11568
1.11306
1.10938
1.10199
1.09678
1.09656
1.09794
1.10164
1.10926
1.12003
1.12538
1.12636
1.12674
1.12868
1.13248
1.13933
1.14939
1.15319
1.15453
1.15369
1.15072
1.14812
1.14247
1.1332
1.12497
1.12059
1.12161
1.12462
1.124
1.12096
1.11433
1.09706
1.05815
0.993491
0.952355
0.947373
0.946385
0.948828
0.956334
0.96694
0.986202
1.01574
1.02871
1.03061
1.02802
1.02438
1.02419
1.02303
1.01851
1.0105
1.00355
0.998629
0.993128
0.984955
0.979599
0.982298
0.98806
1.02923
1.03013
1.03135
1.03117
1.02955
1.02664
1.02289
1.01828
1.01399
1.01066
1.00876
1.00823
1.00902
1.00889
1.00714
1.00453
1.00036
0.996079
0.994262
0.993466
0.99294
0.992889
0.992623
0.991356
0.989511
0.987556
0.985518
0.98312
0.979691
0.975315
0.969866
0.965962
0.964094
0.96332
0.963054
0.965106
0.971049
0.975679
0.975425
0.973484
0.970038
0.965674
0.959714
0.951266
0.945641
0.942264
0.939824
0.938012
0.936578
0.935566
0.935407
0.937072
0.939074
0.939042
0.938217
0.937536
0.937111
0.936793
0.937027
0.937332
0.936563
0.934392
0.932111
0.930174
0.927844
0.924643
0.920498
0.91623
0.91444
0.913591
0.912402
0.911278
0.910281
0.908912
0.906895
0.904377
0.901617
0.898437
0.895631
0.893986
0.892556
0.89124
0.890122
0.889099
0.88751
0.883723
0.879179
0.876696
0.875077
0.873062
0.870132
0.866359
0.862167
0.857773
0.853278
0.848553
0.843639
0.840301
0.839492
0.839917
0.841538
0.843512
0.845712
0.847179
0.846938
0.84614
0.844743
0.842833
0.840873
0.837606
0.833625
0.831916
0.831966
0.83353
0.838748
0.848312
0.859511
0.869935
0.88013
0.889685
0.89591
0.901184
0.90935
0.91392
0.913514
0.912742
0.914279
0.917207
0.91852
0.918487
0.918181
0.918872
0.919358
0.920585
0.924883
0.932965
0.940258
0.942604
0.943617
0.943736
0.942392
0.940655
0.93853
0.933276
0.932046
0.933992
0.935442
0.937151
0.94064
0.948824
0.962893
0.976772
0.982367
0.98275
0.982666
0.980851
0.979067
0.980172
0.983009
0.986496
0.990431
0.994619
0.997694
0.999756
1.00195
1.00583
1.01497
1.03123
1.04837
1.05922
1.06442
1.06788
1.07253
1.0779
1.08071
1.08225
1.08347
1.08414
1.08397
1.08085
1.07986
1.0817
1.0859
1.09418
1.10753
1.11582
1.11729
1.11767
1.11769
1.11604
1.11462
1.11503
1.11688
1.11974
1.12044
1.11944
1.11655
1.11145
1.10241
1.09646
1.09611
1.09649
1.0993
1.10635
1.11859
1.13034
1.13469
1.13705
1.13914
1.14076
1.14238
1.14636
1.15095
1.15275
1.15301
1.14711
1.14536
1.14593
1.1429
1.1331
1.12646
1.12641
1.12471
1.12033
1.11578
1.10891
1.09547
1.06486
1.00587
0.959189
0.952078
0.950895
0.953906
0.963613
0.975605
0.994295
1.02226
1.03397
1.03642
1.03497
1.0277
1.02438
1.02276
1.01912
1.01407
1.01207
1.01004
1.00647
1.00058
0.996535
0.998226
1.0032
1.01002
1.03947
1.03953
1.03842
1.03567
1.03153
1.02625
1.02119
1.0181
1.01632
1.01543
1.01573
1.01776
1.01777
1.01597
1.01248
1.00666
1.00046
0.998034
0.997285
0.996676
0.996275
0.996385
0.996686
0.995682
0.994045
0.992266
0.989812
0.985786
0.980361
0.974767
0.971565
0.970416
0.969893
0.970254
0.973818
0.980374
0.983355
0.982348
0.979871
0.975987
0.971325
0.964236
0.955837
0.951446
0.948956
0.94737
0.946104
0.945371
0.945903
0.948192
0.950961
0.952232
0.95151
0.948975
0.944945
0.942071
0.940679
0.939599
0.938766
0.93822
0.937305
0.935566
0.933679
0.932155
0.930338
0.927562
0.925007
0.923661
0.922647
0.920882
0.917733
0.915471
0.914078
0.912485
0.910418
0.908207
0.906353
0.9047
0.903618
0.903388
0.903781
0.902863
0.90137
0.898519
0.893302
0.887396
0.88319
0.880784
0.878742
0.876359
0.873336
0.869783
0.866036
0.862194
0.858621
0.856073
0.854863
0.854337
0.853394
0.851471
0.849662
0.849005
0.848776
0.849146
0.849111
0.848194
0.84729
0.845882
0.843547
0.840185
0.838137
0.83787
0.838645
0.842714
0.850188
0.857307
0.862176
0.868626
0.877861
0.884383
0.888378
0.895455
0.908671
0.918547
0.919432
0.919066
0.921961
0.924064
0.924543
0.922931
0.922376
0.923631
0.926051
0.930398
0.937948
0.946331
0.950251
0.949571
0.947276
0.945616
0.943977
0.939399
0.931714
0.931361
0.934315
0.937371
0.940654
0.946706
0.95929
0.975351
0.985024
0.987343
0.987375
0.985933
0.982721
0.981411
0.98216
0.985155
0.989714
0.994884
0.999344
1.00187
1.00336
1.00488
1.00758
1.01501
1.03086
1.04555
1.05286
1.05877
1.06375
1.06884
1.07594
1.08194
1.08363
1.08461
1.08531
1.08555
1.0836
1.08171
1.08262
1.08606
1.09395
1.10711
1.11535
1.11718
1.11792
1.11805
1.11624
1.11495
1.11499
1.11644
1.12045
1.12356
1.12344
1.12168
1.11667
1.10656
1.09817
1.09692
1.09682
1.09855
1.10498
1.11746
1.1333
1.1409
1.14348
1.14589
1.14727
1.1472
1.147
1.14875
1.15039
1.15106
1.14897
1.14528
1.14591
1.1467
1.14484
1.13834
1.13242
1.12744
1.1208
1.11168
1.10077
1.08688
1.06313
1.0167
0.968026
0.957652
0.956482
0.959941
0.970886
0.982863
1.00091
1.02801
1.03843
1.04129
1.04118
1.03335
1.02364
1.02021
1.01891
1.01817
1.01861
1.02057
1.02059
1.01898
1.0166
1.01733
1.02112
1.02799
1.03819
1.04792
1.04622
1.04236
1.03686
1.02985
1.02502
1.02278
1.02174
1.02134
1.0232
1.02589
1.02543
1.02363
1.02002
1.01341
1.00554
1.00232
1.00148
1.00093
1.00059
1.00056
1.00164
1.00205
1.00102
0.999449
0.997038
0.992512
0.985921
0.98004
0.97731
0.976459
0.97613
0.977167
0.981828
0.988067
0.989603
0.988269
0.985549
0.981626
0.97652
0.968375
0.960653
0.957298
0.955694
0.954637
0.954114
0.955272
0.959052
0.963399
0.965318
0.964663
0.962617
0.958249
0.951803
0.946988
0.944993
0.94347
0.942194
0.941052
0.94017
0.939439
0.938298
0.937004
0.936148
0.935108
0.933671
0.932459
0.931103
0.92864
0.924228
0.920718
0.919061
0.917668
0.916258
0.915019
0.914195
0.914439
0.915076
0.914817
0.914358
0.913263
0.910705
0.905954
0.900562
0.894345
0.888567
0.885717
0.883824
0.881814
0.879645
0.877501
0.875227
0.872854
0.871194
0.87024
0.869731
0.868793
0.86639
0.860888
0.854918
0.852845
0.852237
0.851857
0.851863
0.852224
0.851872
0.851199
0.849873
0.848039
0.847365
0.847262
0.848021
0.850568
0.854282
0.857598
0.860093
0.861716
0.863076
0.868009
0.87812
0.888861
0.896716
0.907294
0.918862
0.921909
0.92189
0.924013
0.926603
0.927292
0.927018
0.928585
0.932931
0.940383
0.947319
0.950991
0.953218
0.954049
0.952521
0.948771
0.945776
0.941316
0.934081
0.932627
0.934467
0.93891
0.944966
0.954309
0.969268
0.984347
0.990824
0.99151
0.99086
0.988467
0.986713
0.986043
0.986588
0.989099
0.993067
0.997582
1.00202
1.00536
1.00743
1.00919
1.01165
1.01742
1.03033
1.04402
1.0498
1.05341
1.05831
1.06477
1.07184
1.07848
1.08232
1.08418
1.0855
1.08619
1.08561
1.08414
1.08457
1.08704
1.09386
1.1065
1.11475
1.11662
1.11741
1.11761
1.11701
1.11607
1.11576
1.11648
1.12045
1.12636
1.12795
1.12715
1.12347
1.11474
1.10321
1.09964
1.09931
1.10008
1.10525
1.11731
1.13337
1.14305
1.14513
1.14589
1.14782
1.14933
1.14918
1.14903
1.14988
1.1509
1.15029
1.14644
1.14496
1.14932
1.15097
1.14844
1.14184
1.13427
1.12631
1.11475
1.09885
1.08103
1.05891
1.02214
0.975979
0.961973
0.960798
0.964161
0.97574
0.987095
1.00198
1.03019
1.04262
1.04582
1.04517
1.03759
1.02843
1.02427
1.02317
1.02295
1.02537
1.0334
1.03828
1.03877
1.03932
1.04125
1.04517
1.05128
1.05925
1.0682
1.05406
1.04938
1.04249
1.03415
1.02976
1.02802
1.02729
1.02728
1.03003
1.03319
1.03251
1.03008
1.02629
1.02031
1.01158
1.00733
1.00632
1.00582
1.00561
1.00582
1.00714
1.00858
1.00817
1.00689
1.00449
0.99969
0.992466
0.986279
0.983721
0.982876
0.982547
0.983858
0.988886
0.994177
0.994783
0.993426
0.990731
0.986884
0.981102
0.972201
0.965994
0.963503
0.962312
0.961717
0.962481
0.966763
0.973393
0.978016
0.978295
0.976636
0.972775
0.966688
0.958856
0.95293
0.95037
0.94887
0.947475
0.945995
0.944802
0.944021
0.943911
0.943975
0.942971
0.942275
0.941788
0.940714
0.939028
0.935918
0.930676
0.92648
0.924869
0.923749
0.922756
0.922118
0.922384
0.924413
0.926214
0.925814
0.9244
0.922159
0.917955
0.912883
0.90637
0.897657
0.891463
0.889285
0.887918
0.886877
0.886007
0.885188
0.884703
0.885007
0.885063
0.884723
0.884054
0.882663
0.878826
0.871622
0.862381
0.858326
0.857565
0.857203
0.856989
0.857081
0.857904
0.858004
0.857624
0.857324
0.857376
0.858368
0.860175
0.859649
0.858272
0.858361
0.859053
0.859381
0.860103
0.862871
0.868296
0.878746
0.889874
0.896518
0.904357
0.916146
0.921426
0.923003
0.925125
0.92742
0.929495
0.932284
0.938879
0.950636
0.959485
0.959213
0.956321
0.955332
0.954971
0.952888
0.948474
0.941421
0.937096
0.936996
0.938139
0.941626
0.949563
0.963763
0.980966
0.990577
0.993038
0.994106
0.99381
0.991837
0.990939
0.991302
0.992917
0.994732
0.997194
1.0002
1.0034
1.0066
1.00952
1.01228
1.01567
1.02177
1.03299
1.04442
1.04936
1.05174
1.05478
1.06021
1.06795
1.07426
1.07869
1.08139
1.08345
1.08509
1.08597
1.08589
1.08651
1.08846
1.0947
1.10673
1.11441
1.11623
1.11708
1.1165
1.11444
1.11483
1.11574
1.11696
1.12114
1.12896
1.13278
1.13256
1.12999
1.12342
1.11155
1.10442
1.10354
1.10382
1.10764
1.11885
1.13349
1.14211
1.14492
1.14637
1.14666
1.14815
1.14996
1.14981
1.15036
1.1522
1.15362
1.15134
1.14727
1.15122
1.1537
1.15173
1.14655
1.14029
1.13321
1.12342
1.10797
1.08852
1.06469
1.03005
0.983103
0.964488
0.963023
0.965898
0.975935
0.985845
0.99667
1.02365
1.04479
1.04983
1.05027
1.04286
1.0341
1.03007
1.02881
1.02871
1.03301
1.04708
1.05927
1.06365
1.06669
1.0699
1.0728
1.07603
1.08116
1.08385
1.08276
1.05681
1.04847
1.03913
1.03512
1.03382
1.03318
1.03341
1.03669
1.03964
1.03888
1.03641
1.03203
1.02594
1.01872
1.0139
1.01233
1.01172
1.01157
1.01207
1.01382
1.0156
1.01551
1.01449
1.01226
1.00713
0.99961
0.993589
0.991171
0.99013
0.989649
0.990686
0.995216
0.999246
0.999338
0.998093
0.99558
0.99183
0.985407
0.976517
0.97156
0.969499
0.968515
0.968287
0.971039
0.978582
0.987061
0.990345
0.989519
0.986937
0.981939
0.975127
0.96538
0.959165
0.956775
0.955255
0.953843
0.952449
0.951273
0.95047
0.950346
0.951998
0.951918
0.950573
0.949242
0.94788
0.945916
0.942671
0.937739
0.933613
0.931925
0.930865
0.930197
0.930271
0.932064
0.934626
0.935455
0.934548
0.932593
0.928979
0.92435
0.919304
0.911999
0.901857
0.895634
0.893527
0.892464
0.891785
0.891618
0.892873
0.895425
0.898055
0.899109
0.898291
0.896907
0.894485
0.889366
0.882017
0.872447
0.866541
0.864979
0.864626
0.86455
0.865329
0.866993
0.867281
0.867264
0.867293
0.867862
0.868639
0.867864
0.866144
0.863302
0.860782
0.859707
0.859336
0.859502
0.861271
0.865861
0.87337
0.88228
0.889589
0.894262
0.898772
0.907784
0.916767
0.920222
0.922945
0.928017
0.934773
0.944651
0.956043
0.964084
0.966184
0.964832
0.960346
0.956475
0.953691
0.949139
0.942611
0.939987
0.94066
0.943318
0.948383
0.957686
0.973647
0.989268
0.994109
0.994811
0.995471
0.996237
0.996233
0.99616
0.997469
0.999479
1.00003
1.00084
1.00291
1.00524
1.00783
1.01088
1.01431
1.01875
1.02608
1.03752
1.04738
1.05117
1.05281
1.0547
1.05825
1.06504
1.07137
1.07465
1.07642
1.07806
1.08042
1.08252
1.08414
1.08605
1.08937
1.09695
1.10829
1.11455
1.11618
1.11702
1.11673
1.11391
1.11458
1.11605
1.11782
1.12242
1.13174
1.13726
1.13704
1.13461
1.12975
1.12017
1.11039
1.10798
1.10812
1.11103
1.12141
1.13534
1.14202
1.14407
1.14534
1.14603
1.14447
1.14542
1.14832
1.15014
1.15256
1.15572
1.15696
1.15403
1.14815
1.14962
1.15045
1.14879
1.14416
1.13804
1.12987
1.1178
1.10163
1.08029
1.0468
0.996441
0.967091
0.964273
0.966194
0.973807
0.981714
0.989563
1.00724
1.04114
1.0521
1.0534
1.04925
1.04264
1.03994
1.03975
1.04112
1.04801
1.06314
1.07786
1.08319
1.085
1.08759
1.08956
1.08949
1.08822
1.08792
1.08856
1.08682
1.05508
1.04499
1.04109
1.03999
1.03943
1.03983
1.04316
1.0457
1.04492
1.04247
1.03816
1.03132
1.02481
1.02154
1.01981
1.0187
1.0185
1.01945
1.02143
1.02314
1.02323
1.02236
1.02028
1.01512
1.00721
1.0016
0.999648
0.99848
0.997756
0.99812
1.00139
1.00408
1.00381
1.00268
1.00038
0.996526
0.989505
0.981385
0.977399
0.975778
0.974897
0.975213
0.980143
0.99007
0.998287
0.999955
0.998659
0.995364
0.990065
0.982637
0.971742
0.96556
0.963339
0.962037
0.960824
0.959686
0.958799
0.958344
0.959033
0.961035
0.960936
0.959452
0.957378
0.954753
0.952037
0.949239
0.945669
0.942377
0.940757
0.939795
0.939453
0.940709
0.9432
0.943949
0.943173
0.941784
0.939056
0.934934
0.930364
0.924414
0.915892
0.906686
0.901626
0.899565
0.898619
0.898192
0.899074
0.902321
0.906128
0.90887
0.909344
0.908327
0.906352
0.902949
0.898296
0.890901
0.881916
0.876858
0.875289
0.874563
0.874608
0.876679
0.878863
0.879586
0.878802
0.876027
0.875059
0.874365
0.872954
0.870733
0.867186
0.864519
0.863086
0.862267
0.862159
0.864139
0.868935
0.875076
0.88084
0.884612
0.887098
0.888324
0.890195
0.895499
0.904452
0.912766
0.921435
0.930891
0.942554
0.957219
0.965161
0.96636
0.967486
0.966813
0.962592
0.956166
0.948086
0.943671
0.94378
0.944764
0.947812
0.955276
0.968105
0.984212
0.993923
0.995515
0.995753
0.99644
0.998016
1.00001
1.00204
1.00395
1.00522
1.00528
1.00447
1.00502
1.00657
1.00861
1.01163
1.01598
1.022
1.03105
1.0432
1.05204
1.05462
1.05555
1.05679
1.05906
1.06348
1.06883
1.07143
1.07276
1.07328
1.07281
1.07465
1.07761
1.08123
1.08778
1.09908
1.11087
1.11535
1.11648
1.11724
1.11727
1.11379
1.11344
1.11534
1.11844
1.12395
1.13382
1.1408
1.14094
1.13865
1.13394
1.12529
1.11456
1.11068
1.11082
1.11349
1.12352
1.138
1.14376
1.14485
1.14561
1.14609
1.14385
1.14183
1.14354
1.14702
1.15092
1.15675
1.16076
1.16134
1.15831
1.15389
1.15084
1.14697
1.14296
1.1392
1.13445
1.12576
1.11236
1.09564
1.06916
1.01984
0.974307
0.967397
0.967777
0.971119
0.975933
0.982285
0.99281
1.02339
1.0518
1.05684
1.05522
1.05238
1.05298
1.05479
1.05891
1.06815
1.08151
1.08918
1.08973
1.08822
1.08855
1.09059
1.09218
1.09254
1.09182
1.08971
1.08805
1.08474
1.05188
1.04785
1.04681
1.04627
1.0467
1.04968
1.05156
1.05071
1.04847
1.04422
1.03738
1.03106
1.02823
1.02706
1.02625
1.02637
1.02784
1.0297
1.031
1.03081
1.03
1.0283
1.02344
1.01551
1.01019
1.00854
1.00744
1.00667
1.00652
1.008
1.00926
1.00868
1.00758
1.00546
1.00133
0.993827
0.986697
0.983462
0.982165
0.981417
0.982534
0.989632
1.00065
1.00691
1.00718
1.00557
1.00209
0.997154
0.989025
0.977634
0.972006
0.970064
0.968945
0.967984
0.967272
0.96694
0.967572
0.969516
0.970641
0.96976
0.967843
0.965334
0.962101
0.958751
0.956091
0.954008
0.952446
0.951367
0.950857
0.951442
0.953359
0.954266
0.953251
0.951206
0.947985
0.944173
0.940431
0.935713
0.928847
0.91995
0.912701
0.908473
0.906947
0.906332
0.906539
0.908706
0.91186
0.914074
0.914325
0.913761
0.912902
0.911362
0.909034
0.905246
0.898328
0.891585
0.887566
0.886299
0.885981
0.8874
0.890019
0.891259
0.891257
0.887928
0.883675
0.88098
0.878711
0.876676
0.874014
0.870444
0.868132
0.867023
0.866752
0.867975
0.871012
0.876045
0.880183
0.881645
0.883027
0.884275
0.883667
0.883537
0.886479
0.892016
0.900389
0.911312
0.922037
0.933107
0.945071
0.958329
0.965
0.966238
0.967357
0.967552
0.963018
0.953035
0.94754
0.947135
0.949318
0.954406
0.963302
0.977409
0.992286
0.997557
0.998356
0.99833
0.99863
1.00039
1.00376
1.00722
1.00945
1.01036
1.00991
1.00812
1.00811
1.00924
1.01047
1.01239
1.01634
1.02407
1.0364
1.05023
1.05812
1.0597
1.06014
1.06086
1.06237
1.06498
1.06792
1.06941
1.07037
1.07069
1.06716
1.06587
1.06846
1.07277
1.08128
1.09737
1.11237
1.11612
1.11693
1.11753
1.11776
1.11492
1.1126
1.11388
1.11749
1.12418
1.13502
1.14348
1.1444
1.14251
1.13817
1.12912
1.11644
1.11096
1.11113
1.11377
1.12386
1.13959
1.14576
1.14662
1.14725
1.14754
1.14526
1.14115
1.14138
1.14357
1.14719
1.15392
1.16197
1.16424
1.16256
1.15597
1.15134
1.1478
1.14355
1.1395
1.13542
1.13028
1.12117
1.106
1.08408
1.04927
0.999874
0.970938
0.969267
0.969656
0.969928
0.97205
0.97877
0.997002
1.03654
1.06039
1.06385
1.06619
1.07049
1.0773
1.08439
1.09153
1.09721
1.09794
1.09628
1.09295
1.089
1.08842
1.08936
1.08969
1.0888
1.08868
1.09088
1.09084
1.088
1.05525
1.05424
1.05371
1.05413
1.05653
1.05761
1.0566
1.05438
1.05027
1.04352
1.03764
1.03516
1.0339
1.03301
1.03388
1.03684
1.03829
1.03887
1.03848
1.03756
1.03585
1.03151
1.02453
1.01947
1.01783
1.01677
1.01594
1.01543
1.01538
1.01526
1.01438
1.01326
1.01101
1.00641
0.99863
0.992507
0.990019
0.988992
0.988406
0.990383
0.999114
1.00972
1.01337
1.01271
1.01088
1.00767
1.00286
0.99392
0.983067
0.978326
0.976866
0.975961
0.975258
0.975003
0.975792
0.978037
0.979995
0.979842
0.97844
0.976182
0.97296
0.96935
0.966578
0.964646
0.963274
0.962418
0.962403
0.964128
0.96613
0.966026
0.964834
0.962814
0.958713
0.953752
0.949552
0.945099
0.939362
0.932443
0.925997
0.920836
0.917617
0.916596
0.916181
0.917196
0.919665
0.920223
0.918753
0.91702
0.916007
0.915123
0.914108
0.912557
0.90912
0.904191
0.900342
0.898203
0.897415
0.897862
0.901355
0.903965
0.903999
0.901987
0.896898
0.889283
0.885206
0.883981
0.881736
0.877948
0.874968
0.873
0.871776
0.871722
0.875555
0.881345
0.884798
0.885755
0.885182
0.884591
0.884104
0.883343
0.884098
0.886019
0.889436
0.895196
0.903049
0.912858
0.922871
0.932027
0.942635
0.956421
0.961882
0.963022
0.964662
0.965872
0.961673
0.954776
0.953345
0.955811
0.962448
0.972391
0.985202
0.996871
1.00075
1.00174
1.00231
1.00307
1.00523
1.00935
1.01311
1.01493
1.01537
1.01404
1.0107
1.01018
1.01203
1.01408
1.01606
1.01941
1.02705
1.04125
1.05679
1.06438
1.06563
1.06588
1.06634
1.06746
1.06922
1.07067
1.07102
1.07052
1.06867
1.06264
1.05774
1.05926
1.06497
1.07422
1.08964
1.10924
1.11564
1.11671
1.11743
1.11788
1.11687
1.11359
1.11377
1.11673
1.12405
1.1357
1.14425
1.14548
1.14471
1.14157
1.1325
1.11897
1.11224
1.11181
1.11351
1.12276
1.1398
1.14727
1.14836
1.14915
1.14944
1.14762
1.14286
1.14145
1.142
1.1441
1.15015
1.16139
1.16642
1.16715
1.16265
1.15264
1.14633
1.14352
1.14157
1.13879
1.1347
1.12775
1.11499
1.09377
1.06177
1.02175
0.987573
0.96963
0.962739
0.960636
0.961459
0.966317
0.980527
1.00915
1.04634
1.06767
1.07933
1.09167
1.10488
1.11349
1.11594
1.11464
1.10943
1.10213
1.09377
1.0838
1.07741
1.07697
1.07709
1.07861
1.08609
1.09256
1.09637
1.0979
1.09813
1.06189
1.06144
1.06214
1.06394
1.06397
1.06284
1.06066
1.05627
1.04952
1.04405
1.04185
1.04071
1.03975
1.03996
1.04458
1.04738
1.04678
1.04605
1.04513
1.04358
1.03959
1.03291
1.02891
1.02761
1.02638
1.02534
1.02449
1.02345
1.02231
1.02115
1.01983
1.01733
1.01216
1.00418
0.998546
0.996677
0.995953
0.995615
0.99841
1.00801
1.0172
1.01854
1.01733
1.01538
1.01231
1.0072
0.997603
0.988137
0.984482
0.983409
0.982756
0.98243
0.983023
0.985219
0.988009
0.989021
0.988283
0.986491
0.983961
0.98056
0.977212
0.97526
0.974007
0.973273
0.973471
0.97488
0.977175
0.978928
0.978128
0.975322
0.97071
0.96559
0.96067
0.954526
0.948195
0.943333
0.938947
0.934251
0.929988
0.928294
0.927848
0.928634
0.930003
0.929729
0.927954
0.924433
0.920679
0.918281
0.916556
0.914767
0.912268
0.910117
0.9089
0.90755
0.906803
0.907355
0.910985
0.915576
0.917133
0.916333
0.912174
0.905801
0.896779
0.888421
0.887006
0.886433
0.884385
0.880649
0.878842
0.878316
0.88002
0.885923
0.890906
0.892064
0.891359
0.889904
0.888215
0.8871
0.88653
0.886651
0.887769
0.890652
0.895917
0.903456
0.910156
0.915256
0.92132
0.92778
0.934643
0.943771
0.950501
0.951473
0.953792
0.958189
0.96401
0.963768
0.965251
0.970891
0.979958
0.989924
0.998164
1.00239
1.00428
1.00601
1.00888
1.01354
1.01848
1.02126
1.02204
1.0212
1.01801
1.01208
1.01032
1.01245
1.01589
1.01971
1.02473
1.03338
1.04773
1.06287
1.07036
1.07197
1.07237
1.07275
1.07343
1.07473
1.07549
1.0748
1.0729
1.06926
1.05989
1.05198
1.0525
1.05697
1.0668
1.08367
1.10246
1.11232
1.11528
1.11643
1.11706
1.11689
1.11452
1.11433
1.11668
1.12436
1.13761
1.14681
1.14841
1.14768
1.1434
1.13247
1.11751
1.11118
1.1112
1.11321
1.12208
1.1396
1.14827
1.14966
1.15057
1.15094
1.14916
1.14461
1.14259
1.14233
1.14259
1.14626
1.157
1.16308
1.16462
1.16407
1.15741
1.14585
1.14078
1.14038
1.14013
1.13959
1.13615
1.12518
1.10457
1.07364
1.03517
0.999185
0.973783
0.956024
0.949033
0.949977
0.955749
0.969441
0.994433
1.03129
1.06401
1.08827
1.11204
1.13131
1.13761
1.13727
1.13245
1.12215
1.10866
1.09035
1.07087
1.0604
1.05892
1.06002
1.06802
1.08086
1.09308
1.1031
1.11
1.11596
1.12301
1.06885
1.07022
1.07182
1.07113
1.0697
1.06724
1.06243
1.05535
1.05018
1.0483
1.04725
1.04629
1.04603
1.04984
1.05549
1.05529
1.0539
1.05273
1.05128
1.04803
1.04199
1.03772
1.03663
1.03583
1.03477
1.03339
1.03185
1.03032
1.02884
1.02721
1.02459
1.01907
1.01065
1.0049
1.00339
1.00284
1.00274
1.00594
1.01569
1.02356
1.02355
1.02194
1.01978
1.01657
1.01084
1.00086
0.993339
0.990609
0.989813
0.989383
0.989519
0.991125
0.994075
0.996407
0.996458
0.995441
0.99362
0.991085
0.988125
0.985746
0.984289
0.983511
0.984009
0.986317
0.988211
0.988756
0.988229
0.986518
0.983018
0.978009
0.972569
0.966273
0.959689
0.955059
0.950964
0.946732
0.943402
0.941602
0.940975
0.941926
0.943017
0.942515
0.940786
0.936822
0.930924
0.924634
0.919215
0.915537
0.912994
0.91119
0.910851
0.911621
0.912424
0.914024
0.917687
0.923913
0.928927
0.929398
0.927404
0.922262
0.914528
0.902894
0.894543
0.891904
0.890683
0.890172
0.889225
0.887685
0.886981
0.889763
0.89788
0.900782
0.898684
0.896093
0.893394
0.891529
0.890887
0.890845
0.891375
0.893489
0.897261
0.902702
0.908111
0.910756
0.912406
0.91492
0.917371
0.918333
0.917647
0.918856
0.926169
0.933934
0.93949
0.94799
0.964496
0.973376
0.976145
0.981343
0.990003
0.998822
1.00472
1.00794
1.01085
1.01589
1.02337
1.02948
1.03157
1.031
1.02753
1.02244
1.01404
1.01091
1.01265
1.01632
1.02165
1.02968
1.04136
1.05588
1.06857
1.07541
1.07809
1.07937
1.08027
1.08097
1.08122
1.08065
1.0786
1.07602
1.07104
1.06028
1.05201
1.0522
1.05433
1.06069
1.07588
1.0967
1.10663
1.11022
1.11311
1.11459
1.1149
1.11321
1.11304
1.11597
1.12474
1.14022
1.15049
1.15229
1.15195
1.14834
1.13589
1.1173
1.10963
1.10942
1.11097
1.11945
1.13769
1.14874
1.15075
1.15193
1.15267
1.15154
1.14667
1.14364
1.14294
1.14247
1.14306
1.15118
1.1589
1.16112
1.16156
1.15712
1.14715
1.14071
1.13883
1.13947
1.14002
1.13854
1.13182
1.11527
1.0859
1.047
1.00716
0.973411
0.948371
0.939931
0.940753
0.94703
0.960142
0.982336
1.01656
1.05667
1.0932
1.12836
1.15305
1.15867
1.15722
1.14888
1.13411
1.11249
1.08162
1.05497
1.04594
1.04574
1.05108
1.06211
1.07598
1.09435
1.11291
1.12614
1.13491
1.14315
1.15154
1.07764
1.07985
1.07907
1.07732
1.07434
1.0687
1.06128
1.05641
1.05468
1.05367
1.05277
1.05222
1.05424
1.06131
1.0635
1.06212
1.06062
1.05901
1.05625
1.05133
1.04673
1.04526
1.04435
1.04336
1.04195
1.04035
1.0387
1.03707
1.03536
1.03283
1.02737
1.01841
1.01193
1.01038
1.00984
1.00971
1.01253
1.02178
1.02934
1.02892
1.02697
1.02459
1.02099
1.01468
1.00484
0.998988
0.997002
0.996411
0.996145
0.996807
0.998985
1.00192
1.00327
1.00282
1.00162
0.999851
0.99765
0.995662
0.994266
0.993317
0.993459
0.996228
0.999251
0.999435
0.998003
0.995578
0.991902
0.988252
0.984083
0.978492
0.971233
0.965568
0.962057
0.958792
0.956043
0.954493
0.954205
0.9562
0.958591
0.958403
0.956486
0.951986
0.945233
0.936827
0.926316
0.917104
0.913276
0.912029
0.911654
0.912486
0.913993
0.916499
0.920974
0.928126
0.936157
0.939982
0.939841
0.936897
0.931399
0.922486
0.908908
0.900524
0.898415
0.897544
0.897079
0.896913
0.898009
0.900564
0.902915
0.905722
0.907417
0.905601
0.901448
0.897774
0.895626
0.895033
0.895144
0.896381
0.899544
0.904935
0.910522
0.912768
0.913296
0.913324
0.911792
0.909909
0.909255
0.90868
0.908638
0.909735
0.913941
0.924523
0.933374
0.942284
0.960064
0.976705
0.979701
0.983517
0.991826
1.00254
1.01154
1.01903
1.02819
1.03643
1.03945
1.04024
1.03918
1.03439
1.02753
1.01726
1.01326
1.01468
1.01819
1.02391
1.03383
1.0488
1.06456
1.07508
1.0804
1.08362
1.08602
1.08756
1.0885
1.08863
1.08715
1.08351
1.07941
1.07253
1.06064
1.05284
1.05254
1.05379
1.05917
1.07257
1.09146
1.10164
1.10439
1.10549
1.10789
1.11015
1.11082
1.11189
1.11575
1.12664
1.14438
1.15374
1.15498
1.15499
1.15217
1.14052
1.12115
1.11188
1.11113
1.11175
1.11744
1.13426
1.14824
1.15083
1.15186
1.15255
1.15239
1.14939
1.14563
1.14389
1.14306
1.14256
1.14614
1.15409
1.15632
1.15691
1.15514
1.14569
1.13699
1.13717
1.13984
1.14217
1.14233
1.13868
1.12542
1.09875
1.05971
1.0158
0.973247
0.941761
0.933871
0.935009
0.94083
0.952657
0.973471
1.00505
1.04697
1.09507
1.14198
1.16947
1.17421
1.17257
1.16385
1.14713
1.1172
1.07426
1.04664
1.04228
1.04283
1.04749
1.05787
1.07512
1.09798
1.1222
1.13922
1.14677
1.15068
1.15475
1.15963
1.08767
1.08725
1.08546
1.08214
1.07577
1.06735
1.06244
1.06103
1.06007
1.0592
1.05857
1.05921
1.06517
1.07082
1.07026
1.06868
1.06704
1.0646
1.06011
1.05581
1.05372
1.05219
1.05098
1.04983
1.04845
1.04699
1.04544
1.04378
1.04156
1.03674
1.02755
1.01969
1.01778
1.01715
1.01686
1.01869
1.02662
1.03464
1.03467
1.03253
1.02999
1.02623
1.01954
1.01016
1.00551
1.00406
1.00351
1.00339
1.00437
1.00645
1.00888
1.00947
1.00867
1.0073
1.00557
1.00395
1.00288
1.00212
1.00215
1.00468
1.00871
1.00985
1.00825
1.0055
1.00142
0.997232
0.992802
0.987661
0.981385
0.974989
0.971215
0.968902
0.967489
0.966504
0.966048
0.968178
0.973017
0.975573
0.97475
0.970424
0.962778
0.954082
0.942451
0.926752
0.917189
0.915389
0.914644
0.914096
0.914296
0.916556
0.921425
0.928918
0.938757
0.946962
0.949217
0.948308
0.944905
0.939406
0.92881
0.914228
0.907371
0.90584
0.905362
0.905214
0.906343
0.90965
0.914801
0.916268
0.913334
0.910888
0.910166
0.908104
0.903742
0.901309
0.900787
0.900915
0.902778
0.905823
0.9084
0.911409
0.913963
0.915088
0.915414
0.914425
0.912753
0.912268
0.911831
0.911233
0.911195
0.912086
0.914166
0.919494
0.928219
0.936531
0.950048
0.972366
0.981426
0.984333
0.99143
1.0053
1.02198
1.03736
1.04619
1.04754
1.04706
1.0452
1.04147
1.03417
1.02192
1.01633
1.01721
1.02095
1.0276
1.03901
1.05588
1.07228
1.08181
1.08623
1.08914
1.09197
1.09398
1.09454
1.09414
1.09201
1.08868
1.08439
1.07671
1.06383
1.05516
1.05397
1.05487
1.06
1.0715
1.0859
1.09543
1.09861
1.09946
1.09878
1.10008
1.10336
1.10756
1.11515
1.13019
1.14947
1.1575
1.15826
1.15769
1.15441
1.14305
1.12249
1.11209
1.11197
1.11288
1.11798
1.13247