/*--------------------------------*- C++ -*----------------------------------*\
  =========                 |
  \\      /  F ield         | OpenFOAM: The Open Source CFD Toolbox
   \\    /   O peration     | Website:  https://openfoam.org
    \\  /    A nd           | Version:  7
     \\/     M anipulation  |
\*---------------------------------------------------------------------------*/
FoamFile
{
    version     2.0;
    format      ascii;
    class       volScalarField;
    location    "2.4";
    object      rho;
}
// * * * * * * * * * * * * * * * * * * * * * * * * * * * * * * * * * * * * * //

dimensions      [1 -3 0 0 0 0 0];

internalField   nonuniform List<scalar> 
16512
(
2.08549
2.07823
2.07188
2.06803
2.06572
2.07025
2.08209
2.08799
2.08609
2.08168
2.07445
2.06241
2.04966
2.0427
2.03924
2.04081
2.05634
2.07509
2.08182
2.08031
2.07585
2.06544
2.04775
2.03357
2.02781
2.02502
2.02738
2.04115
2.0564
2.06108
2.05881
2.0518
2.03764
2.02098
2.01275
2.00951
2.00896
2.01619
2.02868
2.03533
2.03559
2.03379
2.03102
2.02799
2.02519
2.02251
2.02029
2.01987
2.02255
2.02376
2.02134
2.01797
2.01235
2.00374
1.99666
1.99379
1.9932
1.99656
2.00215
2.00297
2.00064
1.99636
1.99205
1.98911
1.98688
1.98547
1.98751
1.99299
1.99475
1.99319
1.99072
1.98703
1.98064
1.97183
1.96601
1.9634
1.96252
1.96456
1.96534
1.96296
1.95987
1.95752
1.95655
1.95739
1.95904
1.95989
1.96179
1.96127
1.96595
1.99831
2.10186
2.32137
2.56357
2.80053
2.90726
2.98046
3.00234
3.01866
3.02073
3.01927
3.01396
3.00605
2.99855
2.98792
2.9759
2.9698
2.96766
2.96873
2.96915
2.96675
2.9633
2.95751
2.95026
2.94477
2.94175
2.94167
2.94556
2.95119
2.956
2.95903
2.96016
2.95905
2.95585
2.94965
2.93892
2.92348
2.90479
2.8874
2.87678
2.87265
2.87182
2.87537
2.88129
2.88981
2.90005
2.90801
2.91231
2.91377
2.91239
2.90865
2.90181
2.89082
2.87619
2.85889
2.84149
2.82904
2.82388
2.82219
2.82263
2.82535
2.82842
2.83168
2.83662
2.84522
2.85842
2.86994
2.87347
2.87484
2.87266
2.86434
2.84719
2.82104
2.79253
2.77451
2.76884
2.7672
2.76775
2.77012
2.77636
2.78787
2.79704
2.79829
2.79735
2.79387
2.78599
2.77129
2.74987
2.72699
2.71377
2.71024
2.70957
2.71207
2.7159
2.72068
2.7288
2.74261
2.75898
2.76607
2.76884
2.76863
2.76428
2.75175
2.72808
2.69628
2.67305
2.66561
2.66153
2.65736
2.65672
2.66102
2.66179
2.65977
2.65842
2.6584
2.66062
2.66529
2.67099
2.67449
2.67375
2.6716
2.66849
2.66376
2.65765
2.64966
2.63971
2.62689
2.61053
2.59323
2.58154
2.5778
2.57732
2.58002
2.58336
2.58488
2.58613
2.58983
2.59791
2.60734
2.60908
2.60772
2.60379
2.59562
2.58329
2.56684
2.54849
2.53719
2.53356
2.53135
2.52916
2.52819
2.53241
2.54244
2.54803
2.548
2.54634
2.54126
2.52951
2.51142
2.49477
2.48905
2.48997
2.49399
2.49556
2.49761
2.49874
2.49607
2.48884
2.47605
2.0977
2.09169
2.08351
2.07746
2.07375
2.07347
2.08068
2.08675
2.08642
2.08328
2.0784
2.0712
2.0624
2.05564
2.05239
2.05343
2.06426
2.07787
2.08327
2.08223
2.07884
2.07262
2.0614
2.04886
2.04113
2.03775
2.0376
2.04387
2.05327
2.06107
2.06225
2.05904
2.05149
2.03785
2.02351
2.0169
2.01429
2.01606
2.02791
2.03877
2.03983
2.03764
2.03464
2.03064
2.02657
2.02343
2.02065
2.01853
2.01968
2.025
2.02733
2.02589
2.02311
2.0177
2.00803
1.99949
1.99631
1.99534
1.9982
2.00367
2.00451
2.00213
1.99865
1.99545
1.99261
1.99019
1.98903
1.99199
1.99659
1.99694
1.99525
1.99284
1.98938
1.98323
1.97448
1.96863
1.9659
1.96474
1.96759
1.97089
1.97018
1.96796
1.96502
1.96166
1.95904
1.95789
1.9579
1.95872
1.96082
1.9608
1.96585
2.00199
2.10839
2.32437
2.57763
2.8058
2.92478
2.98138
3.01921
3.02483
3.0305
3.02857
3.0248
3.01684
3.00251
2.9858
2.9752
2.97078
2.96859
2.96946
2.97047
2.96972
2.96681
2.96231
2.95765
2.95447
2.95266
2.95187
2.95367
2.95721
2.96069
2.9633
2.96469
2.96387
2.96081
2.95479
2.94391
2.92799
2.90896
2.89207
2.88308
2.88004
2.87941
2.88233
2.88883
2.89903
2.90881
2.91455
2.91716
2.9182
2.91762
2.91535
2.91134
2.9038
2.89099
2.87272
2.8527
2.8372
2.8292
2.82585
2.82379
2.82315
2.8243
2.82805
2.83549
2.84902
2.86823
2.88037
2.88489
2.88618
2.88237
2.87017
2.84632
2.81326
2.78413
2.77023
2.76578
2.76278
2.76171
2.76524
2.77685
2.79395
2.80391
2.80916
2.80977
2.80646
2.79705
2.77742
2.74965
2.72595
2.71568
2.71252
2.71082
2.71051
2.71232
2.71841
2.73155
2.75361
2.772
2.78116
2.78592
2.785
2.77656
2.75375
2.71523
2.67794
2.65984
2.65451
2.65187
2.65237
2.66006
2.66593
2.66749
2.66881
2.67104
2.67282
2.67245
2.67048
2.66738
2.6642
2.66161
2.66047
2.66015
2.6601
2.65908
2.65639
2.65044
2.6391
2.62114
2.59994
2.5861
2.58184
2.57972
2.57813
2.57677
2.57632
2.57826
2.58514
2.59922
2.61207
2.62009
2.62422
2.62352
2.61692
2.59972
2.56917
2.54075
2.52723
2.52002
2.51624
2.51564
2.5212
2.53462
2.5485
2.5574
2.5601
2.55919
2.55451
2.54192
2.52016
2.50158
2.49395
2.48964
2.48545
2.48301
2.48309
2.48545
2.4853
2.10746
2.10335
2.0978
2.09112
2.08602
2.08324
2.08366
2.08538
2.08419
2.08145
2.07877
2.07682
2.07378
2.07003
2.06835
2.07069
2.07626
2.07995
2.07969
2.07788
2.07627
2.07494
2.07135
2.0656
2.05939
2.05465
2.05201
2.05111
2.05215
2.05452
2.05983
2.06107
2.05791
2.051
2.03969
2.02985
2.02581
2.02485
2.03073
2.04048
2.04217
2.03996
2.03726
2.03355
2.02837
2.02381
2.02071
2.01826
2.01769
2.02352
2.03076
2.03197
2.03007
2.02701
2.02114
2.01067
2.00192
1.99874
1.99765
2.00028
2.00474
2.00544
2.00345
2.00128
1.99923
1.99729
1.99596
1.99665
1.99915
1.99956
1.99806
1.99601
1.99339
1.98988
1.98403
1.97718
1.97312
1.97115
1.97166
1.97698
1.97999
1.97813
1.97447
1.96913
1.96389
1.96032
1.95792
1.958
1.95911
1.96047
1.96229
1.96212
1.96722
2.00294
2.11589
2.31841
2.5838
2.77351
2.9474
2.99399
3.02737
3.04157
3.04882
3.04806
3.03814
3.02189
2.99849
2.98063
2.97238
2.96904
2.96909
2.97305
2.97688
2.97742
2.97521
2.97219
2.96756
2.96184
2.95781
2.9558
2.95606
2.95987
2.96485
2.96888
2.97156
2.97171
2.96925
2.9634
2.95186
2.9341
2.91321
2.89633
2.88856
2.88613
2.88722
2.8917
2.89794
2.90596
2.9137
2.91924
2.92311
2.92618
2.92789
2.92721
2.92369
2.91469
2.89779
2.87488
2.85153
2.83359
2.82408
2.82037
2.81882
2.81976
2.82423
2.83209
2.844
2.8625
2.88254
2.89097
2.89178
2.88981
2.88206
2.86388
2.83301
2.7969
2.77154
2.76229
2.75954
2.75943
2.7647
2.77835
2.7996
2.81425
2.81912
2.82133
2.81992
2.81365
2.79725
2.76936
2.73895
2.71848
2.71022
2.70707
2.70575
2.70796
2.71671
2.73283
2.75744
2.78253
2.79346
2.79604
2.79515
2.78819
2.76649
2.72717
2.68548
2.66168
2.65492
2.65378
2.65989
2.672
2.67695
2.67772
2.6775
2.67616
2.67357
2.669
2.66436
2.66069
2.65794
2.65653
2.65826
2.66438
2.67122
2.67465
2.67326
2.66883
2.65958
2.64192
2.61556
2.59055
2.57875
2.5744
2.57134
2.56895
2.56783
2.57006
2.57932
2.60107
2.62642
2.64056
2.64426
2.64219
2.63481
2.61133
2.56819
2.53126
2.5171
2.51265
2.51057
2.51243
2.52618
2.54947
2.56451
2.57166
2.5755
2.575
2.57081
2.55597
2.52533
2.49634
2.48355
2.47824
2.47546
2.47521
2.48218
2.49626
2.11219
2.11031
2.10897
2.10672
2.10355
2.10064
2.09538
2.08868
2.08281
2.0788
2.0776
2.07902
2.08215
2.08487
2.08745
2.09103
2.08844
2.08197
2.07665
2.07204
2.0704
2.07413
2.07905
2.08011
2.07854
2.07439
2.06663
2.05874
2.05434
2.05184
2.05255
2.05881
2.06084
2.05813
2.05268
2.04535
2.04029
2.0382
2.03903
2.04359
2.04484
2.04247
2.03964
2.03632
2.03141
2.02601
2.02245
2.02005
2.01895
2.02333
2.03148
2.03497
2.03423
2.03203
2.0288
2.02268
2.01259
2.00468
2.00137
1.99979
2.00157
2.00535
2.00686
2.00631
2.00524
2.00455
2.00408
2.00376
2.00327
2.00161
1.99947
1.99745
1.99549
1.99308
1.99005
1.98599
1.98257
1.98075
1.98059
1.9834
1.98571
1.98426
1.98136
1.97769
1.97325
1.96889
1.96579
1.96338
1.96228
1.96242
1.96272
1.9627
1.96363
1.96242
1.96677
1.99878
2.11051
2.30365
2.57045
2.78488
2.92663
3.00676
3.03531
3.05759
3.06275
3.058
3.04134
3.02046
2.99889
2.98095
2.97418
2.97328
2.97859
2.98552
2.98844
2.98682
2.98305
2.97762
2.96964
2.96135
2.95736
2.95577
2.9579
2.96474
2.97208
2.97738
2.98086
2.98113
2.97838
2.97113
2.95712
2.93751
2.91747
2.9033
2.89713
2.89491
2.89534
2.89818
2.90378
2.91229
2.92051
2.92653
2.93046
2.93282
2.93323
2.93108
2.92529
2.91274
2.8932
2.86876
2.84453
2.82766
2.82067
2.81851
2.81936
2.8242
2.83178
2.84165
2.85525
2.87377
2.88928
2.89253
2.89119
2.88711
2.87458
2.84983
2.81517
2.7838
2.7682
2.76459
2.766
2.77348
2.78346
2.79796
2.81624
2.82574
2.8269
2.82583
2.82128
2.80816
2.78404
2.75265
2.72501
2.71077
2.70718
2.70741
2.71369
2.72495
2.73844
2.75534
2.77748
2.79411
2.79685
2.79421
2.78856
2.77263
2.74306
2.70624
2.67894
2.66959
2.66896
2.67651
2.68241
2.68107
2.67869
2.6762
2.67271
2.66786
2.66317
2.65989
2.65787
2.65734
2.66086
2.66825
2.67505
2.67976
2.683
2.68223
2.6786
2.67194
2.65707
2.62913
2.59638
2.57693
2.56938
2.56551
2.56416
2.5654
2.57325
2.59134
2.62054
2.64482
2.65113
2.64902
2.64401
2.63237
2.60496
2.56624
2.53305
2.51711
2.51357
2.51517
2.52464
2.53752
2.55546
2.57457
2.58164
2.5807
2.57748
2.57053
2.55135
2.51836
2.48841
2.47605
2.4737
2.47398
2.48578
2.5112
2.11412
2.11281
2.11468
2.11955
2.12179
2.11838
2.1118
2.10094
2.08844
2.08164
2.0785
2.07982
2.08829
2.09981
2.10696
2.10596
2.10015
2.08818
2.0749
2.06938
2.06679
2.06935
2.08209
2.0923
2.09273
2.08892
2.08109
2.06805
2.05768
2.0532
2.05076
2.05182
2.05943
2.06253
2.06071
2.05773
2.05442
2.05174
2.0501
2.04969
2.0485
2.0457
2.04271
2.03965
2.0359
2.03157
2.02825
2.02604
2.02517
2.02746
2.03202
2.0347
2.03525
2.03434
2.03217
2.0288
2.02287
2.01404
2.0071
2.0037
2.00162
2.00289
2.00767
2.01051
2.01151
2.01212
2.01224
2.01039
2.00722
2.00383
2.0009
1.99825
1.99613
1.99473
1.9938
1.99275
1.99146
1.99036
1.98974
1.98956
1.98909
1.98763
1.98583
1.9839
1.98185
1.97967
1.97716
1.97408
1.9709
1.96796
1.96632
1.96573
1.96522
1.96342
1.96304
1.96076
1.9647
1.99537
2.09837
2.30356
2.5554
2.77851
2.90797
3.00318
3.0368
3.05306
3.06026
3.05613
3.04334
3.02122
3.00156
2.99247
2.98998
2.99216
2.99685
2.99866
2.99629
2.99191
2.98571
2.97653
2.96599
2.95976
2.95768
2.95827
2.96377
2.97335
2.98117
2.98518
2.98716
2.98698
2.98442
2.97651
2.96176
2.94215
2.92234
2.90836
2.90221
2.89977
2.90029
2.9036
2.90901
2.9161
2.92338
2.92882
2.93145
2.93214
2.93162
2.92892
2.92215
2.90931
2.88997
2.86582
2.8427
2.8286
2.82399
2.82289
2.82547
2.83092
2.83854
2.84883
2.86303
2.88044
2.89042
2.89008
2.88824
2.88209
2.86667
2.84128
2.81132
2.78884
2.7803
2.77863
2.78189
2.78767
2.79436
2.80598
2.82021
2.82528
2.82377
2.82101
2.81303
2.7973
2.77398
2.7479
2.72828
2.72072
2.71997
2.72442
2.73309
2.74105
2.74952
2.76259
2.78055
2.79232
2.79157
2.7889
2.78077
2.76229
2.73439
2.70508
2.68921
2.68522
2.68444
2.68431
2.68125
2.67771
2.67353
2.66901
2.66546
2.66342
2.66238
2.66228
2.66303
2.66386
2.66691
2.67489
2.68367
2.68905
2.69005
2.68772
2.68321
2.67028
2.63997
2.60118
2.5768
2.56893
2.5671
2.56768
2.57517
2.59011
2.60512
2.61864
2.63265
2.64136
2.64017
2.63252
2.62139
2.60565
2.58385
2.55787
2.53771
2.53108
2.5313
2.53838
2.54722
2.55544
2.56643
2.57446
2.57362
2.56715
2.55685
2.54135
2.51962
2.49856
2.48945
2.48926
2.50117
2.52184
2.11563
2.1138
2.11852
2.12895
2.13242
2.12885
2.12325
2.11333
2.09994
2.09156
2.08754
2.08696
2.09752
2.11358
2.11815
2.11485
2.10847
2.09565
2.07926
2.07063
2.06767
2.0696
2.08342
2.09744
2.09926
2.0958
2.08994
2.07934
2.06501
2.05591
2.05215
2.05051
2.05332
2.06229
2.06662
2.06671
2.06551
2.06341
2.06001
2.05587
2.05222
2.04911
2.04613
2.04326
2.04069
2.0382
2.03609
2.03508
2.03503
2.03514
2.03455
2.03384
2.03347
2.0338
2.03353
2.03137
2.02787
2.02235
2.01531
2.01007
2.00713
2.00581
2.00903
2.01475
2.018
2.01867
2.01725
2.01461
2.01105
2.00657
2.0025
1.9994
1.99695
1.9956
1.99606
1.99795
1.99918
1.99869
1.99697
1.99471
1.99237
1.99009
1.98832
1.98769
1.98808
1.98854
1.98776
1.9856
1.98212
1.97737
1.97291
1.9703
1.96872
1.96756
1.96637
1.96417
1.96332
1.96005
1.96336
1.99331
2.08999
2.29451
2.53095
2.77246
2.89634
2.98477
3.02941
3.04635
3.05525
3.05287
3.04457
3.02796
3.01591
3.01184
3.00983
3.00864
3.00786
3.00583
3.00194
2.9962
2.98688
2.97524
2.96661
2.96333
2.96291
2.9657
2.9713
2.97977
2.9865
2.98995
2.99249
2.99278
2.9893
2.97924
2.96297
2.9429
2.92376
2.91097
2.90533
2.90335
2.90481
2.90691
2.9083
2.91058
2.91591
2.92381
2.92921
2.93152
2.93227
2.93006
2.92419
2.91171
2.89154
2.86628
2.84327
2.83101
2.82738
2.8268
2.83013
2.83644
2.84462
2.85445
2.86786
2.88394
2.89148
2.892
2.89101
2.8846
2.86898
2.8436
2.81467
2.79525
2.78876
2.78637
2.78587
2.78792
2.79446
2.80726
2.82046
2.82353
2.82356
2.82114
2.81443
2.80077
2.78055
2.75736
2.74064
2.73525
2.73435
2.73607
2.73844
2.74188
2.75008
2.76548
2.78406
2.79202
2.79265
2.79043
2.78065
2.75964
2.72879
2.70325
2.69354
2.68987
2.68675
2.68331
2.68004
2.67687
2.67378
2.67099
2.6684
2.66594
2.66387
2.66245
2.66224
2.66508
2.67427
2.68792
2.69472
2.69556
2.69417
2.68953
2.67524
2.64673
2.61436
2.59068
2.58027
2.57799
2.58118
2.59159
2.60105
2.60514
2.60802
2.61319
2.62089
2.62647
2.62693
2.62579
2.62127
2.60987
2.58925
2.5641
2.54947
2.54591
2.54499
2.54632
2.54832
2.55337
2.55896
2.55961
2.55757
2.55478
2.54979
2.54026
2.52953
2.52453
2.52538
2.52521
2.1182
2.11633
2.12327
2.13514
2.1372
2.13397
2.129
2.12038
2.11059
2.10465
2.10143
2.10174
2.11181
2.12375
2.12417
2.12031
2.11397
2.10357
2.09168
2.08354
2.07969
2.07916
2.0859
2.09594
2.10043
2.09829
2.09403
2.08749
2.077
2.06397
2.0563
2.05322
2.0528
2.05905
2.06926
2.07337
2.07276
2.07033
2.06645
2.06075
2.05566
2.0524
2.04957
2.04714
2.04575
2.04534
2.0452
2.0457
2.04607
2.0435
2.03943
2.03563
2.03296
2.03164
2.03186
2.03233
2.0307
2.02763
2.02361
2.0194
2.01618
2.01459
2.01598
2.02027
2.0224
2.02138
2.01921
2.01673
2.01366
2.0095
2.00518
2.00177
1.99931
1.99805
1.99873
2.0012
2.00328
2.00355
2.00162
1.99858
1.99554
1.9931
1.99148
1.99159
1.99362
1.99482
1.99446
1.99322
1.99103
1.98777
1.98293
1.97756
1.97391
1.97188
1.9707
1.96958
1.96774
1.96551
1.96436
1.96096
1.96408
1.99239
2.08084
2.26577
2.51455
2.74245
2.89925
2.97342
3.03098
3.04605
3.05962
3.0538
3.04694
3.03934
3.02802
3.01911
3.01579
3.01434
3.01407
3.01238
3.00801
3.00009
2.98995
2.97909
2.9712
2.96823
2.96779
2.96934
2.97356
2.98202
2.99016
2.99436
2.99541
2.99442
2.98941
2.97901
2.96365
2.94485
2.92651
2.91365
2.90746
2.90426
2.90273
2.90177
2.90145
2.90397
2.91271
2.92543
2.93344
2.93828
2.94009
2.93783
2.93052
2.91505
2.8911
2.86344
2.84168
2.83231
2.8298
2.83099
2.83598
2.84245
2.84962
2.85915
2.87486
2.89261
2.89957
2.90108
2.89914
2.88963
2.86874
2.83759
2.80674
2.79034
2.78552
2.78324
2.78296
2.78766
2.79956
2.81744
2.8289
2.83423
2.8365
2.8345
2.82767
2.81261
2.78783
2.75987
2.74298
2.73793
2.73513
2.73285
2.73264
2.73816
2.75332
2.77657
2.79253
2.79565
2.79526
2.78938
2.77304
2.74605
2.71848
2.70192
2.69549
2.69254
2.69076
2.68874
2.68585
2.68177
2.67616
2.67005
2.66555
2.6628
2.66105
2.66291
2.6716
2.68241
2.69305
2.69877
2.69799
2.69393
2.68717
2.67579
2.65862
2.63679
2.61433
2.59978
2.59606
2.59705
2.59852
2.59657
2.59426
2.59408
2.5988
2.6124
2.62989
2.63743
2.64057
2.63894
2.63121
2.613
2.58342
2.55619
2.54437
2.53933
2.53609
2.53556
2.54019
2.55042
2.56019
2.56692
2.57141
2.57379
2.5725
2.5636
2.54473
2.52646
2.12432
2.12351
2.13167
2.1409
2.14074
2.13703
2.13117
2.12375
2.11907
2.11597
2.11435
2.11711
2.12586
2.13054
2.12828
2.12352
2.11669
2.10955
2.10454
2.09991
2.096
2.09359
2.09269
2.094
2.0959
2.09786
2.09595
2.09229
2.08698
2.07791
2.0667
2.06071
2.05827
2.05987
2.07016
2.07825
2.07715
2.07396
2.07021
2.0646
2.05918
2.0559
2.05328
2.05126
2.05084
2.05277
2.05532
2.05578
2.05361
2.0501
2.04548
2.04003
2.03542
2.03216
2.03013
2.03036
2.03202
2.03216
2.03084
2.02927
2.02781
2.02668
2.02625
2.02577
2.02403
2.02207
2.02005
2.01782
2.01544
2.01261
2.00943
2.00655
2.00436
2.00321
2.00318
2.00375
2.00402
2.00398
2.00341
2.00155
1.99911
1.99715
1.99629
1.99726
1.99865
1.99839
1.99733
1.99662
1.99617
1.99478
1.9922
1.98806
1.98245
1.97767
1.97501
1.97321
1.97199
1.97132
1.9705
1.9685
1.96793
1.96472
1.96649
1.98787
2.07087
2.23478
2.49042
2.70321
2.90048
2.98896
3.03987
3.06066
3.06656
3.06557
3.0511
3.03412
3.02434
3.0194
3.01779
3.01742
3.0167
3.01518
3.01119
3.00365
2.99215
2.97909
2.9709
2.96818
2.96783
2.96941
2.9741
2.98317
2.99281
2.99756
2.9995
2.99844
2.9937
2.98353
2.96731
2.94641
2.92587
2.9115
2.9038
2.89924
2.89659
2.89581
2.8981
2.90673
2.9229
2.93731
2.94415
2.94799
2.94785
2.94375
2.93316
2.91389
2.88718
2.85951
2.84136
2.83544
2.83417
2.83635
2.84129
2.84741
2.85516
2.86759
2.88773
2.90336
2.90668
2.90597
2.90026
2.88454
2.85656
2.82152
2.79465
2.78483
2.78251
2.78286
2.78746
2.79809
2.81699
2.8366
2.84502
2.84841
2.84864
2.84508
2.83352
2.80824
2.77284
2.74354
2.73031
2.72496
2.72201
2.72219
2.7292
2.74558
2.76969
2.79066
2.7963
2.79674
2.79378
2.78333
2.76259
2.73615
2.71594
2.70675
2.70284
2.69986
2.69659
2.69185
2.68479
2.67768
2.67319
2.67069
2.6697
2.67297
2.67942
2.68241
2.68202
2.68291
2.68475
2.68545
2.68435
2.68352
2.68113
2.67553
2.66447
2.64616
2.62268
2.60506
2.59704
2.59188
2.58828
2.58693
2.58846
2.59548
2.6115
2.63572
2.64774
2.64864
2.64688
2.64
2.62269
2.59198
2.55805
2.53894
2.53392
2.53244
2.53393
2.54227
2.55988
2.57742
2.58754
2.59184
2.59035
2.58464
2.56855
2.53496
2.13493
2.13729
2.14552
2.14845
2.14537
2.13936
2.13076
2.12613
2.12372
2.12324
2.12597
2.13256
2.13754
2.13523
2.13092
2.12447
2.11835
2.11532
2.11441
2.11449
2.11245
2.10756
2.10082
2.09597
2.09337
2.09329
2.09638
2.09629
2.09368
2.08956
2.08196
2.07331
2.06906
2.06719
2.07026
2.07812
2.07998
2.07698
2.0731
2.06805
2.06295
2.05973
2.05732
2.05602
2.0576
2.06215
2.06407
2.06208
2.05898
2.05515
2.05023
2.04484
2.03963
2.03532
2.0321
2.03001
2.03154
2.03572
2.03859
2.04017
2.04067
2.03927
2.03589
2.03118
2.0265
2.0234
2.02108
2.01899
2.01717
2.01573
2.0145
2.01327
2.01191
2.01008
2.00781
2.00564
2.0038
2.00257
2.00231
2.0028
2.00288
2.00257
2.00268
2.00322
2.0023
2.00036
1.99866
1.99763
1.99754
1.9983
1.99831
1.99647
1.99304
1.98752
1.98114
1.97711
1.97497
1.97382
1.97472
1.97661
1.97586
1.9738
1.97159
1.964
1.96315
1.97954
2.053
2.21072
2.44942
2.69573
2.87583
3.00636
3.0474
3.07656
3.07316
3.0639
3.05024
3.03478
3.02381
3.01872
3.01749
3.02003
3.02055
3.01769
3.01174
3.0011
2.98656
2.97373
2.9677
2.96564
2.9652
2.96765
2.97674
2.99119
3.00084
3.00643
3.00832
3.00654
3.00011
2.987
2.96654
2.94145
2.919
2.9052
2.89878
2.89559
2.89495
2.89837
2.9059
2.91942
2.93687
2.94816
2.9524
2.95452
2.95306
2.94718
2.93399
2.9117
2.88261
2.85583
2.84215
2.83874
2.83814
2.84074
2.84565
2.85235
2.86227
2.87888
2.89946
2.90798
2.90768
2.90495
2.89528
2.87481
2.84286
2.8093
2.79066
2.78645
2.78662
2.79169
2.80033
2.81387
2.83447
2.85158
2.85688
2.856
2.85165
2.84089
2.81656
2.77863
2.74154
2.72254
2.71829
2.71729
2.72004
2.72902
2.74351
2.76387
2.78716
2.798
2.79965
2.79893
2.7927
2.77719
2.75407
2.73173
2.71721
2.7096
2.70467
2.6998
2.6941
2.68923
2.68623
2.68486
2.68651
2.68963
2.6883
2.68477
2.67942
2.67281
2.66854
2.66846
2.67538
2.68577
2.69411
2.70043
2.70104
2.69457
2.67453
2.6388
2.60601
2.59173
2.58689
2.58488
2.58505
2.58971
2.59867
2.61039
2.62791
2.64523
2.64852
2.64606
2.64068
2.6273
2.60224
2.56966
2.54533
2.53796
2.53838
2.54579
2.5582
2.5734
2.58763
2.59096
2.58878
2.58463
2.57653
2.55037
2.1508
2.1589
2.16244
2.15821
2.15065
2.13948
2.13032
2.12626
2.12443
2.12774
2.13851
2.14713
2.14579
2.1409
2.13322
2.12514
2.12118
2.11914
2.12035
2.12528
2.12465
2.1196
2.11111
2.10122
2.09566
2.09321
2.09367
2.09745
2.09878
2.09733
2.09385
2.08773
2.08151
2.07777
2.0754
2.07659
2.07991
2.07862
2.07536
2.07163
2.0676
2.06476
2.06303
2.06309
2.06687
2.07049
2.06937
2.06644
2.06329
2.05919
2.05408
2.04925
2.04497
2.04098
2.03765
2.03539
2.03548
2.0399
2.04534
2.04908
2.04957
2.04703
2.04348
2.03869
2.03263
2.02747
2.02419
2.02177
2.02003
2.0197
2.02074
2.0211
2.01951
2.01653
2.01234
2.00775
2.00432
2.00188
2.00055
2.00182
2.00553
2.00896
2.00942
2.0071
2.00431
2.0018
1.99966
1.99811
1.99754
1.99851
2.00037
2.00136
2.00025
1.99733
1.99173
1.9844
1.97971
1.97761
1.97742
1.97937
1.97998
1.97849
1.97655
1.97355
1.96813
1.95828
1.95787
1.97096
2.03369
2.19408
2.41853
2.67734
2.85141
2.99164
3.03986
3.06548
3.07608
3.06441
3.05027
3.04
3.03303
3.02838
3.02662
3.02556
3.02311
3.01789
3.00758
2.99317
2.97858
2.96794
2.96321
2.96193
2.96414
2.97291
2.9899
3.00438
3.01168
3.01587
3.0164
3.01291
3.00274
2.98374
2.95805
2.93305
2.91521
2.9054
2.90111
2.89926
2.90073
2.90568
2.91425
2.92864
2.94588
2.95572
2.95953
2.96108
2.95858
2.95059
2.9339
2.90712
2.87562
2.85206
2.84303
2.84083
2.84083
2.84374
2.84883
2.85687
2.87024
2.89067
2.9068
2.90919
2.90859
2.90405
2.8913
2.8665
2.83256
2.80488
2.79476
2.79308
2.79583
2.80287
2.81319
2.82767
2.84289
2.85001
2.84905
2.8457
2.83738
2.81885
2.78859
2.75377
2.72939
2.72149
2.7205
2.72508
2.73394
2.74452
2.75984
2.78248
2.80085
2.80444
2.80372
2.79933
2.78767
2.76834
2.74513
2.72507
2.71322
2.70806
2.70562
2.70525
2.70736
2.70895
2.70758
2.70387
2.69737
2.68655
2.67251
2.661
2.65576
2.65441
2.65807
2.67299
2.69601
2.71204
2.71845
2.71783
2.71113
2.68739
2.64608
2.60911
2.59237
2.58776
2.58605
2.58758
2.59335
2.59894
2.60468
2.61559
2.63424
2.6464
2.64576
2.64283
2.6349
2.61882
2.59422
2.56944
2.55847
2.55731
2.56187
2.56847
2.57147
2.57588
2.57953
2.57827
2.57227
2.5611
2.17139
2.17978
2.17739
2.16986
2.15514
2.13794
2.12948
2.12555
2.12482
2.1344
2.15107
2.1564
2.15274
2.14603
2.13505
2.12707
2.12412
2.1224
2.12389
2.12883
2.13081
2.12783
2.12222
2.11382
2.10503
2.09934
2.09652
2.09672
2.09922
2.10115
2.10095
2.09775
2.09271
2.0877
2.0836
2.08027
2.0786
2.0788
2.07784
2.07582
2.07333
2.07132
2.07056
2.07219
2.07541
2.07528
2.07262
2.06968
2.0665
2.06232
2.0579
2.0541
2.05067
2.04763
2.04506
2.04361
2.04412
2.04708
2.05013
2.05183
2.05212
2.0509
2.0481
2.04457
2.04012
2.03521
2.03122
2.02854
2.02689
2.02672
2.02748
2.02659
2.02424
2.02135
2.01752
2.01229
2.00687
2.00295
2.00088
2.00185
2.00848
2.01306
2.0119
2.00921
2.00608
2.0033
2.00107
1.9993
1.99823
1.99835
1.99999
2.0018
2.00271
2.00257
2.00091
1.99701
1.99144
1.98632
1.98262
1.9805
1.97936
1.97853
1.97754
1.97607
1.9741
1.9693
1.96355
1.95942
1.95856
1.972
2.03021
2.17112
2.37654
2.62235
2.82075
2.95594
3.03508
3.04551
3.06347
3.06738
3.05813
3.05248
3.04642
3.04191
3.03764
3.03261
3.02722
3.01716
3.00134
2.98445
2.9719
2.96523
2.96285
2.96543
2.97318
2.98602
3.00266
3.01495
3.0204
3.02173
3.02048
3.01341
2.99847
2.97689
2.95349
2.9329
2.91714
2.90785
2.90414
2.90309
2.90615
2.91245
2.92252
2.93849
2.956
2.96444
2.96699
2.96691
2.96256
2.95138
2.92974
2.89833
2.86715
2.84879
2.843
2.84138
2.84221
2.84622
2.85342
2.86473
2.88259
2.90385
2.91242
2.91248
2.91081
2.90388
2.88684
2.85728
2.82422
2.80512
2.80044
2.79971
2.80212
2.80572
2.81286
2.82581
2.8394
2.84299
2.84107
2.83756
2.82841
2.80909
2.78017
2.75092
2.7361
2.73318
2.73356
2.73869
2.74684
2.75837
2.77545
2.79516
2.80278
2.80201
2.79961
2.79225
2.7782
2.75736
2.73584
2.72371
2.72102
2.72438
2.73066
2.73082
2.72685
2.71784
2.702
2.68353
2.6674
2.65625
2.6514
2.65012
2.6533
2.66891
2.69414
2.71519
2.72396
2.72458
2.7213
2.71179
2.69022
2.65872
2.6257
2.60236
2.59366
2.5916
2.59164
2.59297
2.5941
2.59711
2.60613
2.62567
2.64657
2.65165
2.65185
2.64888
2.64127
2.62406
2.59605
2.57303
2.56565
2.56233
2.55943
2.55788
2.55888
2.56286
2.5675
2.56861
2.18726
2.18988
2.18548
2.17629
2.15797
2.14016
2.13298
2.12966
2.13199
2.14668
2.16066
2.16115
2.15701
2.14972
2.13904
2.13253
2.12952
2.12749
2.12715
2.12914
2.13167
2.13297
2.13147
2.12785
2.12277
2.11567
2.1077
2.10261
2.10022
2.10017
2.10249
2.10327
2.10016
2.09629
2.09198
2.08734
2.0834
2.08072
2.07972
2.07988
2.0799
2.07946
2.07962
2.08092
2.08055
2.07796
2.07512
2.07206
2.0686
2.06469
2.06162
2.05904
2.0566
2.05495
2.05433
2.05423
2.05427
2.0541
2.05311
2.05181
2.05112
2.05126
2.05066
2.0485
2.04611
2.04361
2.04093
2.03866
2.03671
2.03476
2.03267
2.03007
2.0274
2.02476
2.02184
2.01832
2.01416
2.01004
2.00766
2.00811
2.01202
2.01331
2.0117
2.00964
2.00735
2.00505
2.00301
2.00136
2.00016
1.9995
1.99947
2.00003
2.00105
2.00261
2.00446
2.00578
2.00417
2.00007
1.99305
1.9842
1.97861
1.9762
1.97462
1.97407
1.9748
1.97508
1.97334
1.97049
1.96724
1.96413
1.96296
1.97256
2.0144
2.12139
2.32889
2.55664
2.79706
2.92344
3.01085
3.0439
3.04943
3.06363
3.06497
3.06066
3.05699
3.05176
3.04626
3.03707
3.02538
3.01171
2.99845
2.98595
2.97613
2.97182
2.97146
2.97627
2.98225
2.99183
3.00684
3.02016
3.0245
3.02369
3.02057
3.01072
2.99445
2.97462
2.95383
2.93395
2.91806
2.91035
2.9078
2.90866
2.91366
2.92079
2.93159
2.94876
2.96559
2.97143
2.97246
2.97067
2.9637
2.94795
2.92034
2.88654
2.85931
2.84641
2.84309
2.84277
2.84644
2.85354
2.86325
2.87637
2.89551
2.91234
2.91561
2.91414
2.91071
2.89988
2.87646
2.84294
2.81392
2.80147
2.79734
2.79453
2.79421
2.79888
2.80976
2.82736
2.84259
2.84882
2.85005
2.84643
2.83488
2.81032
2.77635
2.75104
2.74332
2.74174
2.74261
2.74648
2.75275
2.76414
2.78308
2.7993
2.80132
2.80029
2.79796
2.792
2.78141
2.76762
2.75521
2.74896
2.74579
2.74201
2.73475
2.72258
2.7044
2.68325
2.66674
2.65795
2.65447
2.65353
2.65994
2.67587
2.68766
2.69356
2.70281
2.71316
2.71632
2.7136
2.70878
2.69731
2.67741
2.64886
2.61814
2.59947
2.59383
2.59155
2.59018
2.59005
2.59284
2.6021
2.62354
2.65271
2.66309
2.66445
2.66218
2.65634
2.63976
2.60616
2.57171
2.55613
2.55084
2.54792
2.54731
2.55114
2.56169
2.5755
2.19404
2.19178
2.18561
2.1754
2.16201
2.15162
2.14589
2.14392
2.14974
2.16156
2.16605
2.16306
2.15819
2.15234
2.14569
2.14067
2.13731
2.13458
2.13218
2.13031
2.12994
2.13291
2.13751
2.1393
2.13709
2.13277
2.12523
2.11427
2.10657
2.10278
2.1012
2.10365
2.10531
2.10262
2.099
2.09513
2.09135
2.08817
2.08583
2.08469
2.08615
2.08883
2.08956
2.08745
2.08417
2.08073
2.07738
2.07367
2.07004
2.06729
2.06503
2.0637
2.0634
2.06401
2.06581
2.06571
2.06268
2.05868
2.05511
2.05236
2.0501
2.0493
2.05028
2.05102
2.05105
2.05102
2.05039
2.04855
2.04548
2.04121
2.03648
2.03254
2.02957
2.02722
2.02507
2.02331
2.02254
2.02192
2.02108
2.02037
2.017
2.01326
2.01063
2.00888
2.00778
2.00651
2.00498
2.00352
2.00219
2.00091
1.99967
1.99852
1.99763
1.9982
2.00272
2.00751
2.00949
2.00827
2.00491
1.99789
1.98656
1.97682
1.97304
1.97135
1.97094
1.97364
1.97795
1.97984
1.97816
1.97367
1.96675
1.95928
1.95821
1.96317
1.99495
2.08485
2.27286
2.52078
2.75684
2.9144
2.9944
3.03924
3.0467
3.05616
3.06164
3.06239
3.05856
3.04943
3.04081
3.03221
3.02692
3.02051
3.00987
2.99564
2.98477
2.98017
2.97964
2.98275
2.98656
2.99423
3.00878
3.02265
3.02515
3.02345
3.01799
3.00691
2.99215
2.97451
2.95451
2.93445
2.92057
2.91557
2.91412
2.91624
2.92163
2.92936
2.94166
2.96018
2.9736
2.97565
2.97491
2.97096
2.96002
2.93872
2.90819
2.87706
2.85611
2.84857
2.8471
2.84946
2.85589
2.86348
2.87193
2.88433
2.9022
2.91438
2.91496
2.91259
2.90568
2.88763
2.85636
2.82095
2.79881
2.79266
2.79071
2.79052
2.79482
2.80644
2.82915
2.85415
2.8632
2.8659
2.864
2.85525
2.83324
2.79746
2.76344
2.74752
2.74367
2.74174
2.7416
2.74567
2.75544
2.77302
2.79385
2.80322
2.80875
2.81285
2.81469
2.81202
2.80011
2.7772
2.75602
2.74382
2.73394
2.72072
2.70462
2.69015
2.67997
2.67382
2.6702
2.67109
2.67907
2.68626
2.68815
2.68708
2.68571
2.68849
2.69828
2.71026
2.71469
2.71438
2.7107
2.69895
2.67289
2.63461
2.60416
2.59311
2.59
2.58875
2.58974
2.59494
2.60556
2.62615
2.65633
2.67045
2.6696
2.66652
2.65969
2.64041
2.60481
2.56758
2.54871
2.54437
2.54368
2.54736
2.56321
2.58529
2.19502
2.18963
2.18139
2.17164
2.1671
2.1648
2.16396
2.16724
2.17423
2.17321
2.16815
2.16227
2.15672
2.15408
2.1528
2.15014
2.14706
2.14321
2.13875
2.13475
2.13194
2.13196
2.13951
2.14673
2.14622
2.14272
2.13776
2.12893
2.11713
2.10935
2.10506
2.10333
2.1072
2.10801
2.10489
2.10183
2.09912
2.0965
2.09416
2.09262
2.09354
2.09752
2.09676
2.09325
2.08948
2.08479
2.07948
2.07523
2.0722
2.0697
2.06806
2.06803
2.07056
2.0741
2.07507
2.0728
2.06904
2.06351
2.05749
2.05339
2.05055
2.04845
2.04921
2.05343
2.0566
2.05759
2.05635
2.05377
2.05058
2.04591
2.03951
2.03437
2.03141
2.02921
2.02736
2.02649
2.02825
2.03342
2.03558
2.03298
2.02721
2.01896
2.01263
2.00963
2.00807
2.00784
2.00713
2.00556
2.00371
2.00176
1.99972
1.99777
1.99616
1.99532
1.99703
2.00309
2.00801
2.00929
2.00877
2.0069
2.0024
1.99233
1.97946
1.9723
1.97025
1.97067
1.97771
1.98332
1.98239
1.97944
1.9743
1.96499
1.95779
1.95557
1.95497
1.95903
1.98758
2.07321
2.23285
2.47632
2.71016
2.91207
2.97286
3.01627
3.02946
3.04859
3.05842
3.05384
3.04936
3.04684
3.04504
3.04205
3.03759
3.03062
3.01877
3.0032
2.99044
2.98498
2.98405
2.98539
2.98833
2.99685
3.01431
3.02554
3.02581
3.02333
3.01709
3.00693
2.99284
2.97452
2.95332
2.93433
2.9241
2.92105
2.9207
2.92426
2.9306
2.93937
2.95273
2.96999
2.97734
2.97622
2.97404
2.96759
2.95314
2.92988
2.90075
2.87374
2.85867
2.85481
2.85431
2.85764
2.86217
2.86703
2.87456
2.88842
2.9059
2.91191
2.91029
2.90626
2.89407
2.86976
2.83587
2.80642
2.7943
2.79242
2.79485
2.8028
2.8135
2.82979
2.85622
2.87293
2.87383
2.87159
2.86477
2.84702
2.81475
2.77621
2.75009
2.74208
2.74045
2.74103
2.74477
2.7537
2.77281
2.80232
2.82026
2.82554
2.82729
2.82584
2.82068
2.80526
2.77647
2.74855
2.73027
2.71712
2.70657
2.70013
2.69638
2.69443
2.69656
2.69989
2.69827
2.69398
2.68679
2.6779
2.67191
2.67071
2.67529
2.68956
2.71039
2.72364
2.72722
2.72497
2.7156
2.69124
2.65049
2.61311
2.59743
2.59387
2.59287
2.59463
2.60079
2.61038
2.62596
2.64761
2.66385
2.66428
2.65865
2.64962
2.63434
2.60935
2.5785
2.55883
2.55475
2.55802
2.57044
2.57829
2.1949
2.1834
2.17471
2.17138
2.17106
2.17662
2.18841
2.19715
2.19495
2.18566
2.17071
2.16009
2.15574
2.15448
2.15805
2.15951
2.1565
2.15239
2.14712
2.14227
2.13885
2.13734
2.14135
2.14845
2.14985
2.14722
2.14328
2.13748
2.12842
2.11972
2.11447
2.11129
2.1119
2.11424
2.11159
2.10832
2.10565
2.10326
2.10124
2.0999
2.10046
2.1042
2.10328
2.09969
2.0958
2.09043
2.0835
2.07844
2.07539
2.0729
2.07154
2.07303
2.07783
2.08063
2.07941
2.0768
2.07365
2.06882
2.06238
2.05714
2.05389
2.05185
2.05241
2.05795
2.06199
2.06133
2.05873
2.05575
2.05256
2.04812
2.04204
2.03688
2.03367
2.03142
2.02975
2.02954
2.03373
2.04016
2.04185
2.03991
2.03675
2.03114
2.02301
2.01689
2.01374
2.0119
2.01011
2.00776
2.0051
2.00219
1.99936
1.99693
1.99497
1.99359
1.99348
1.99608
2.00042
2.00445
2.0071
2.00805
2.0076
2.00541
1.99859
1.98649
1.97735
1.97478
1.97635