/*--------------------------------*- C++ -*----------------------------------*\
  =========                 |
  \\      /  F ield         | OpenFOAM: The Open Source CFD Toolbox
   \\    /   O peration     | Website:  https://openfoam.org
    \\  /    A nd           | Version:  7
     \\/     M anipulation  |
\*---------------------------------------------------------------------------*/
FoamFile
{
    version     2.0;
    format      ascii;
    class       volScalarField;
    location    "0.7";
    object      p;
}
// * * * * * * * * * * * * * * * * * * * * * * * * * * * * * * * * * * * * * //

dimensions      [1 -1 -2 0 0 0 0];

internalField   nonuniform List<scalar> 
16512
(
1.19957
1.20779
1.24202
1.32154
1.39096
1.40699
1.40638
1.39977
1.38963
1.36676
1.30409
1.22095
1.19342
1.19265
1.19613
1.2022
1.2133
1.24542
1.28672
1.30332
1.30513
1.30106
1.2934
1.28236
1.25339
1.19629
1.15785
1.15246
1.15236
1.15423
1.15765
1.1697
1.20388
1.23893
1.24704
1.24566
1.24104
1.22971
1.19452
1.13583
1.10979
1.1083
1.10857
1.11051
1.12264
1.15744
1.19421
1.2033
1.20169
1.19719
1.18923
1.16688
1.12847
1.10942
1.10833
1.10954
1.11249
1.12341
1.13662
1.13915
1.13753
1.13368
1.12468
1.10815
1.09857
1.09537
1.09349
1.09359
1.10098
1.11791
1.12929
1.13109
1.12987
1.12653
1.11987
1.10081
1.08599
1.08862
1.09377
1.09562
1.09058
1.08126
1.07352
1.06673
1.05702
1.05348
1.05458
1.05547
1.05667
1.05866
1.06082
1.06245
1.06336
1.06703
1.08185
1.09496
1.08735
1.07912
1.07332
1.06329
1.04492
1.02202
1.00438
0.997467
0.997976
1.00201
1.00579
1.01191
1.02695
1.04078
1.04591
1.04863
1.05098
1.04949
1.04444
1.03934
1.0305
1.00679
0.975635
0.964903
0.964019
0.963609
0.963591
0.966598
0.979244
1.00375
1.02072
1.02284
1.02196
1.0198
1.01603
1.00715
0.98776
0.968058
0.962949
0.962213
0.961833
0.963086
0.969971
0.985893
0.999598
1.0018
1.00104
0.999103
0.995179
0.985182
0.967947
0.957935
0.956447
0.956011
0.956525
0.960694
0.971073
0.980289
0.982055
0.981648
0.98014
0.976347
0.968172
0.960075
0.957742
0.957129
0.957623
0.961653
0.969514
0.972883
0.972462
0.970918
0.967696
0.960758
0.953689
0.952043
0.951898
0.952063
0.953815
0.959082
0.965006
0.966533
0.966364
0.964863
0.960153
0.950988
0.944743
0.943381
0.943034
0.944775
0.950759
0.958693
0.961193
0.960237
0.958411
0.95481
0.949303
0.947183
0.947034
0.947082
0.94809
0.952172
0.95711
0.958315
0.958266
0.957393
0.954354
0.946794
0.940654
0.939711
0.939799
0.940881
0.944451
0.949468
0.951308
0.950727
0.94991
0.947545
0.93915
0.925085
0.916515
0.916043
0.916445
0.918515
0.925352
0.940723
0.955827
0.958953
0.958613
0.958076
0.95777
0.956415
0.951933
0.938929
0.91857
0.908408
0.907608
0.907516
0.908344
0.912331
0.92278
0.934931
0.938206
0.937947
0.937256
0.936893
0.935705
0.93216
0.928222
0.92753
0.928401
0.929815
0.930753
0.930879
0.930704
0.929974
0.927587
0.919764
0.905006
0.894906
0.893721
0.896913
1.21499
1.23707
1.30403
1.3905
1.41851
1.41932
1.41545
1.40741
1.39241
1.3493
1.26402
1.21272
1.20623
1.20696
1.21136
1.21934
1.2424
1.28577
1.31168
1.31639
1.31561
1.31032
1.30188
1.28329
1.2363
1.18037
1.16378
1.16263
1.16312
1.16551
1.17177
1.19593
1.2383
1.25818
1.25919
1.25625
1.2496
1.22753
1.17302
1.12469
1.11638
1.11616
1.1171
1.12316
1.14833
1.19168
1.21463
1.21633
1.21286
1.20712
1.19378
1.16079
1.12505
1.11695
1.11736
1.11947
1.12549
1.14081
1.14945
1.14963
1.14727
1.14198
1.12741
1.10975
1.10389
1.10171
1.10094
1.10486
1.1215
1.13827
1.14179
1.14117
1.13877
1.13405
1.11999
1.10247
1.0983
1.10186
1.10363
1.09967
1.09392
1.08849
1.08104
1.06847
1.06203
1.06194
1.06304
1.06449
1.06646
1.0685
1.07026
1.07139
1.07286
1.08125
1.0987
1.10022
1.09197
1.08652
1.07965
1.06604
1.04565
1.02241
1.00843
1.00547
1.00853
1.01253
1.01582
1.02438
1.04028
1.05096
1.05546
1.05881
1.06019
1.05638
1.05133
1.04598
1.03304
1.00387
0.977048
0.971753
0.971161
0.970766
0.971041
0.975801
0.992096
1.01765
1.03032
1.03122
1.03012
1.02789
1.02373
1.01336
0.991343
0.973114
0.969554
0.968885
0.968646
0.970785
0.980169
0.997873
1.00844
1.0091
1.00786
1.00551
1.0008
0.989335
0.97209
0.963905
0.962816
0.962512
0.963667
0.969482
0.981112
0.988621
0.989459
0.988799
0.986982
0.98234
0.973358
0.966414
0.964817
0.964395
0.965613
0.970917
0.978138
0.979738
0.978933
0.976938
0.972739
0.965092
0.960314
0.95965
0.959493
0.959754
0.96216
0.967969
0.972091
0.972597
0.972159
0.969647
0.962942
0.954399
0.95152
0.950804
0.951138
0.954384
0.961636
0.967612
0.968022
0.966187
0.963712
0.959009
0.954583
0.953823
0.953742
0.954008
0.956506
0.961852
0.96479
0.965206
0.964726
0.962596
0.956494
0.948455
0.946364
0.946383
0.947142
0.949652
0.954611
0.958248
0.95799
0.956634
0.954807
0.948766
0.936014
0.924186
0.922033
0.922267
0.923368
0.927967
0.940301
0.95775
0.965303
0.965558
0.964598
0.96384
0.963021
0.960493
0.952643
0.934998
0.916609
0.911891
0.911836
0.912154
0.914113
0.920758
0.934137
0.944237
0.945684
0.944921
0.943988
0.94319
0.940996
0.936595
0.933426
0.933372
0.934561
0.936106
0.936745
0.936735
0.936474
0.935262
0.930786
0.918711
0.903715
0.898333
0.897822
0.90202
1.23815
1.28721
1.37748
1.42991
1.43279
1.42997
1.42452
1.41424
1.38598
1.31262
1.23778
1.22114
1.22022
1.22166
1.22694
1.24213
1.28241
1.31902
1.3272
1.32776
1.32555
1.3195
1.30776
1.27433
1.21267
1.17795
1.17399
1.17332
1.1743
1.17773
1.19173
1.23076
1.26633
1.27212
1.27062
1.26622
1.25353
1.21347
1.15059
1.12567
1.12443
1.12466
1.12742
1.14315
1.18295
1.22057
1.22947
1.22811
1.22344
1.21563
1.19355
1.15193
1.12739
1.12551
1.12703
1.13031
1.14134
1.15745
1.16178
1.16097
1.15764
1.14875
1.12843
1.11346
1.11019
1.1089
1.10962
1.12038
1.1424
1.15263
1.15317
1.15158
1.14763
1.13514
1.11467
1.10995
1.11576
1.11895
1.11698
1.11088
1.1048
1.09806
1.08444
1.07173
1.06857
1.06945
1.07102
1.07326
1.07564
1.07782
1.07957
1.08091
1.08522
1.0997
1.11036
1.10439
1.0988
1.09366
1.08388
1.06728
1.04416
1.02313
1.01508
1.01624
1.02036
1.02332
1.02699
1.03816
1.05278
1.06088
1.0655
1.06899
1.06774
1.06287
1.05831
1.05174
1.03373
1.00113
0.981163
0.978719
0.978176
0.977818
0.978672
0.985851
1.00611
1.03115
1.03957
1.03962
1.0382
1.03569
1.03033
1.01609
0.991999
0.977938
0.97594
0.975348
0.975446
0.979093
0.991679
1.00997
1.01698
1.01678
1.01524
1.01252
1.0065
0.992534
0.975597
0.969787
0.969071
0.969014
0.971126
0.978917
0.991316
0.996929
0.997122
0.996191
0.993888
0.988204
0.978687
0.973092
0.972015
0.971854
0.973871
0.980094
0.985967
0.986459
0.985244
0.982758
0.977465
0.970136
0.967413
0.967039
0.966853
0.967304
0.97053
0.976227
0.978619
0.978722
0.977857
0.974252
0.966588
0.960535
0.95906
0.958578
0.959592
0.964016
0.97127
0.975
0.974007
0.971664
0.968586
0.963644
0.960969
0.96067
0.960637
0.961785
0.966205
0.970737
0.971813
0.971853
0.9705
0.965886
0.957449
0.953462
0.953334
0.953695
0.955243
0.959275
0.964138
0.965236
0.963567
0.961657
0.957586
0.946933
0.933199
0.927994
0.92817
0.929004
0.932038
0.941342
0.958127
0.97016
0.972123
0.971389
0.970078
0.969128
0.967611
0.963099
0.950669
0.92984
0.917198
0.916121
0.916458
0.917647
0.921481
0.931518
0.945977
0.952435
0.952675
0.951472
0.950376
0.949137
0.945789
0.941004
0.93914
0.939506
0.940814
0.942239
0.942783
0.942828
0.942332
0.939919
0.931688
0.915997
0.904412
0.902381
0.902076
0.907801
1.27703
1.3559
1.4327
1.44685
1.44453
1.44092
1.43374
1.41501
1.36087
1.27297
1.23599
1.23404
1.23415
1.23647
1.2455
1.2774
1.3232
1.33889
1.3395
1.33857
1.33532
1.32793
1.30627
1.25197
1.19808
1.18576
1.18476
1.1844
1.18596
1.19312
1.22154
1.26706
1.28451
1.28433
1.28149
1.27433
1.24864
1.18794
1.14021
1.13325
1.13297
1.13396
1.14243
1.1735
1.21929
1.24033
1.24214
1.23899
1.23326
1.22046
1.18655
1.14577
1.13478
1.13508
1.13752
1.14338
1.15966
1.17268
1.17426
1.17239
1.16676
1.15158
1.12891
1.12001
1.11839
1.11788
1.12282
1.14297
1.16066
1.1641
1.1651
1.16386
1.15671
1.13763
1.1216
1.12264
1.12449
1.12214
1.1191
1.11766
1.11522
1.10663
1.08987
1.07789
1.07658
1.07759
1.0794
1.08185
1.08465
1.08734
1.0894
1.09207
1.1021
1.11715
1.11655
1.11079
1.10649
1.09955
1.08619
1.06571
1.0409
1.02648
1.02492
1.02866
1.03213
1.03416
1.03968
1.05236
1.06419
1.07096
1.07608
1.07799
1.07421
1.06952
1.06513
1.05603
1.03249
0.999888
0.986785
0.985574
0.985017
0.984749
0.986701
0.997157
1.02142
1.04414
1.0491
1.04864
1.04694
1.04404
1.03716
1.01935
0.993686
0.983316
0.98213
0.981635
0.982352
0.988307
1.00443
1.02155
1.02545
1.02483
1.02303
1.01984
1.01219
0.995345
0.979648
0.975992
0.975516
0.97587
0.979265
0.989174
1.00152
1.0053
1.00505
1.00377
1.00081
0.993828
0.984225
0.980116
0.979362
0.979476
0.982207
0.988791
0.993164
0.993013
0.991424
0.988345
0.982179
0.975974
0.974502
0.97418
0.973997
0.974769
0.978763
0.983758
0.985018
0.984928
0.983585
0.979166
0.971931
0.968079
0.967081
0.966661
0.968089
0.973043
0.979317
0.981218
0.979322
0.976752
0.973293
0.96921
0.967938
0.96773
0.96804
0.970812
0.976112
0.978384
0.978624
0.977962
0.974928
0.967324
0.961147
0.960666
0.960789
0.961441
0.964092
0.968893
0.971685
0.970666
0.968423
0.96551
0.957432
0.943348
0.934243
0.933694
0.934454
0.936983
0.944391
0.95912
0.973125
0.977579
0.977803
0.976596
0.975153
0.973946
0.971392
0.963354
0.945473
0.92621
0.920785
0.920991
0.922014
0.924495
0.931016
0.944226
0.956538
0.959575
0.959093
0.957523
0.956246
0.954415
0.950145
0.946094
0.945239
0.945759
0.947062
0.94839
0.949004
0.949013
0.947845
0.94294
0.930051
0.913844
0.907485
0.906587
0.906647
0.914768
1.33414
1.42322
1.45934
1.45897
1.45627
1.45165
1.43958
1.40256
1.31927
1.25622
1.24712
1.24687
1.24765
1.25349
1.27589
1.32076
1.35016
1.35221
1.35117
1.34951
1.34504
1.33149
1.29088
1.22629
1.19846
1.19662
1.19573
1.19577
1.19897
1.21629
1.26006
1.29413
1.29766
1.29593
1.29144
1.27609
1.2296
1.16436
1.14268
1.14185
1.14193
1.14562
1.16627
1.21221
1.24777
1.25472
1.25371
1.24926
1.24165
1.21971
1.17507
1.14665
1.14427
1.14574
1.14929
1.16035
1.17929
1.18649
1.18591
1.18231
1.17212
1.15031
1.13129
1.12779
1.12699
1.12856
1.14318
1.1684
1.17644
1.17712
1.17561
1.16891
1.14838
1.13557
1.13894
1.14148
1.13885
1.13283
1.12837
1.12629
1.12324
1.11135
1.09192
1.08466
1.08479
1.08568
1.08741
1.09037
1.09421
1.09788
1.10083
1.10763
1.12242
1.12767
1.12266
1.11866
1.11351
1.10311
1.0861
1.06098
1.03992
1.03428
1.03694
1.04088
1.04287
1.04544
1.0539
1.06612
1.07505
1.08154
1.08631
1.08509
1.08052
1.07651
1.07147
1.0586
1.02997
1.00044
0.993156
0.992354
0.99178
0.991764
0.995424
1.01007
1.03761
1.05601
1.05831
1.05745
1.05548
1.05182
1.04211
1.01911
0.995346
0.989124
0.988362
0.988042
0.989845
0.998977
1.0183
1.03222
1.03379
1.03285
1.03078
1.02659
1.01548
0.996054
0.984257
0.98251
0.982169
0.983087
0.988179
1.00033
1.01151
1.01361
1.0131
1.01148
1.00766
0.999182
0.990079
0.98731
0.986701
0.987074
0.990391
0.996894
0.999961
0.9994
0.997443
0.993753
0.987126
0.982301
0.981475
0.98118
0.98107
0.982362
0.986944
0.990876
0.991504
0.991283
0.989551
0.98464
0.978275
0.975934
0.975359
0.975189
0.976704
0.981267
0.986121
0.98654
0.984191
0.981602
0.978256
0.975646
0.975089
0.975043
0.976367
0.980848
0.984878
0.985499
0.985184
0.983304
0.977693
0.969728
0.967912
0.968155
0.968508
0.969772
0.97344
0.977058
0.977423
0.975524
0.972907
0.967287
0.954606
0.941935
0.939275
0.939622
0.94146
0.947761
0.961462
0.97606
0.981781
0.983022
0.982824
0.981434
0.979896
0.978263
0.973715
0.960634
0.939242
0.92683
0.925942
0.926629
0.928451
0.932808
0.942832
0.957207
0.964896
0.965938
0.964986
0.963208
0.961627
0.958941
0.954227
0.951725
0.95152
0.952136
0.953357
0.95457
0.955195
0.954992
0.952596
0.943734
0.926674
0.913945
0.911468
0.910946
0.911786
0.923259
1.40249
1.46662
1.47341
1.47112
1.46813
1.46098
1.43646
1.36964
1.28625
1.26091
1.26008
1.2598
1.26281
1.28025
1.31896
1.35608
1.36539
1.36453
1.36332
1.36067
1.35231
1.3239
1.2621
1.21551
1.20802
1.20729
1.2066
1.2075
1.21685
1.2505
1.29684
1.31082
1.30991
1.30695
1.29822
1.26713
1.20024
1.15615
1.15117
1.15082
1.15189
1.16312
1.20103
1.24994
1.26668
1.26739
1.26455
1.25896
1.24599
1.21054
1.16668
1.15437
1.15464
1.15694
1.1635
1.18161
1.19705
1.19856
1.19639
1.18985
1.17309
1.14747
1.13703
1.13576
1.13566
1.1426
1.16711
1.18722
1.19106
1.19199
1.18987
1.17604
1.15176
1.14433
1.14455
1.14399
1.14214
1.14025
1.13831
1.13789
1.13172
1.11087
1.09495
1.09202
1.09166
1.0923
1.09444
1.0987
1.1043
1.1093
1.11546
1.12875
1.13823
1.1348
1.13081
1.12648
1.11848
1.10471
1.08222
1.05601
1.04452
1.04532
1.04928
1.05165
1.05303
1.0581
1.06868
1.07887
1.08631
1.09271
1.09483
1.09121
1.08712
1.08351
1.07685
1.05931
1.0267
1.00345
0.999854
0.999151
0.998601
0.999193
1.00553
1.02531
1.05425
1.06715
1.06783
1.06656
1.06426
1.0593
1.04524
1.01761
0.998194
0.995159
0.994593
0.994672
0.998257
1.0114
1.03244
1.04203
1.04222
1.04087
1.0384
1.03266
1.01791
0.997762
0.990154
0.989262
0.989042
0.990701
0.998019
1.01205
1.02096
1.02187
1.02119
1.01928
1.01443
1.00449
0.996272
0.994413
0.993867
0.994498
0.998373
1.00455
1.00659
1.00572
1.00339
0.999138
0.992453
0.98888
0.98833
0.988057
0.988139
0.990267
0.995316
0.998028
0.99824
0.997853
0.995734
0.990327
0.984706
0.983407
0.983315
0.983933
0.985986
0.989423
0.991928
0.991253
0.988903
0.986478
0.98387
0.982585
0.982262
0.982862
0.985883
0.99084
0.992475
0.992367
0.991283
0.987588
0.979683
0.975144
0.975203
0.975881
0.976551
0.978723
0.982067
0.983406
0.982569
0.980433
0.976619
0.966252
0.951411
0.945165
0.945119
0.946037
0.950635
0.963093
0.97934
0.986308
0.987391
0.987885
0.987626
0.986174
0.984471
0.982014
0.973847
0.954959
0.936151
0.9316
0.931848
0.932889
0.935626
0.942719
0.956283
0.968196
0.971473
0.971692
0.970547
0.96866
0.966644
0.962873
0.958515
0.957611
0.957839
0.958439
0.9595
0.960593
0.961149
0.960424
0.955725
0.941746
0.923703
0.916694
0.915854
0.915734
0.917959
0.933614
1.4622
1.48766
1.48632
1.48379
1.47956
1.4642
1.41619
1.32804
1.27922
1.27382
1.27311
1.27391
1.28533
1.32037
1.36162
1.37649
1.37783
1.37715
1.37562
1.3708
1.35128
1.29998
1.23919
1.21986
1.21858
1.21776
1.21753
1.22191
1.24407
1.29105
1.32199
1.32371
1.32171
1.31663
1.29747
1.24304
1.17843
1.16082
1.1603
1.16031
1.1654
1.19014
1.24237
1.27755
1.28088
1.27924
1.27514
1.26729
1.24337
1.19546
1.16601
1.16386
1.1649
1.1687
1.18234
1.20393
1.21073
1.20941
1.20522
1.19381
1.16986
1.14888
1.14495
1.14406
1.14569
1.16064
1.18856
1.19984
1.20166
1.20043
1.19292
1.17277
1.16038
1.15943
1.15755
1.15447
1.15135
1.14855
1.14855
1.1481
1.13276
1.11286
1.10168
1.0995
1.09885
1.09928
1.10181
1.10727
1.11415
1.1218
1.13517
1.14849
1.14773
1.14363
1.13973
1.13323
1.1218
1.10274
1.07487
1.05637
1.05413
1.05751
1.06042
1.06148
1.06427
1.07231
1.0825
1.09071
1.09793
1.10308
1.10159
1.09758
1.09426
1.09018
1.08073
1.0576
1.02385
1.00834
1.00668
1.00599
1.00555
1.00739
1.01749
1.04276
1.06999
1.07737
1.07711
1.07546
1.07257
1.06528
1.04513
1.01564
1.00274
1.00145
1.00103
1.00181
1.00807
1.02562
1.04584
1.05111
1.05059
1.04889
1.04576
1.03766
1.01894
1.00083
0.996632
0.995982
0.995942
0.998789
1.00898
1.02385
1.02989
1.03012
1.0293
1.02706
1.02104
1.00989
1.00257
1.00119
1.00071
1.00169
1.00622
1.01199
1.0133
1.01212
1.0095
1.00474
0.998253
0.995607
0.995155
0.994892
0.995258
0.99847
1.0037
1.0054
1.00536
1.0047
1.00202
0.995901
0.9913
0.990883
0.991236
0.992507
0.994821
0.996885
0.997142
0.996006
0.993959
0.991793
0.990199
0.989483
0.989681
0.991698
0.996434
0.999625
0.999717
0.999026
0.996673
0.990281
0.983116
0.981967
0.982781
0.983724
0.984998
0.987563
0.989119
0.989029
0.98782
0.985311
0.977297
0.962161
0.951834
0.95094
0.951267
0.954108
0.964206
0.981574
0.991188
0.992375
0.992517
0.992841
0.992509
0.990974
0.98896
0.98453
0.971054
0.949371
0.938181
0.937741
0.938241
0.939666
0.943744
0.954228
0.969298
0.976309
0.977225
0.977107
0.975974
0.974066
0.971316
0.966356
0.963508
0.963459
0.963868
0.964522
0.965533
0.966519
0.966759
0.964881
0.956083
0.937532
0.923495
0.921045
0.920611
0.921242
0.925674
0.946121
1.49818
1.5018
1.49975
1.49647
1.48762
1.45549
1.37705
1.30507
1.28845
1.28712
1.28693
1.2935
1.32059
1.3663
1.38869
1.39056
1.39105
1.39017
1.38712
1.37423
1.33585
1.27073
1.23518
1.23043
1.2292
1.2285
1.23004
1.24288
1.28066
1.32641
1.33752
1.33611
1.33275
1.32159
1.28365
1.21257
1.17387
1.1703
1.1699
1.17167
1.18581
1.22763
1.28014
1.29504
1.29387
1.29098
1.2855
1.27064
1.2312
1.18508
1.17306
1.17324
1.17506
1.18388
1.20594
1.22176
1.22191
1.21907
1.21178
1.19357
1.16667
1.15584
1.15406
1.15359
1.15957
1.18328
1.20596
1.21057
1.21003
1.20598
1.194
1.17846
1.16936
1.16413
1.1618
1.1606
1.15834
1.15744
1.15979
1.15105
1.1335
1.11579
1.1096
1.10779
1.10716
1.10785
1.11102
1.11679
1.12466
1.13835
1.15617
1.16048
1.15666
1.15328
1.14812
1.139
1.12299
1.09593
1.07022
1.06314
1.06542
1.06869
1.06993
1.07171
1.07775
1.08682
1.09506
1.10228
1.10925
1.11126
1.10802
1.10469
1.10164
1.09621
1.08268
1.0535
1.02281
1.01459
1.01367
1.01296
1.01293
1.01686
1.03197
1.06185
1.08388
1.08705
1.08616
1.08405
1.08004
1.06886
1.0423
1.01511
1.00851
1.00786
1.00767
1.00975
1.01966
1.04123
1.05801
1.06016
1.05928
1.05725
1.05315
1.04186
1.0196
1.00527
1.00311
1.0025
1.00282
1.00756
1.02116
1.03531
1.03868
1.03852
1.0375
1.03477
1.02738
1.01516
1.00865
1.00755
1.00722
1.00871
1.0141
1.01946
1.02019
1.01877
1.01592
1.01073
1.00454
1.00252
1.00209
1.00185
1.00269
1.00708
1.0119
1.0128
1.01263
1.01156
1.00794
1.00141
0.998712
0.998862
0.999564
1.00071
1.00193
1.0024
1.002
1.00102
0.999558
0.997959
0.996808
0.996573
0.998023
1.0021
1.00651
1.00727
1.00695
1.00542
1.00051
0.992254
0.989035
0.989434
0.990626
0.991684
0.993504
0.995294
0.995453
0.994854
0.993141
0.987066
0.973581
0.959957
0.9567
0.956952
0.958829
0.966181
0.982164
0.995746
0.998037
0.997925
0.997896
0.997963
0.997351
0.995744
0.993135
0.984853
0.965835
0.947573
0.943975
0.944211
0.944958
0.947038
0.953123
0.966742
0.979798
0.982692
0.98287
0.982588
0.981534
0.979463
0.974947
0.969922
0.96889
0.969056
0.969737
0.970557
0.971529
0.972364
0.971907
0.967473
0.95327
0.93402
0.926657
0.92611
0.926002
0.927839
0.935814
0.960267
1.51744
1.51604
1.51325
1.50754
1.48712
1.42659
1.34047
1.30557
1.30204
1.30088
1.30432
1.32373
1.36712
1.39977
1.40437
1.40485
1.40463
1.4021
1.39378
1.36705
1.30822
1.25615
1.24329
1.24167
1.2404
1.24045
1.24682
1.27217
1.32093
1.34956
1.35019
1.34779
1.34147
1.3174
1.25514
1.19434
1.18065
1.18009
1.18043
1.18759
1.21572
1.27098
1.30645
1.3087
1.3066
1.30268
1.29374
1.26601
1.214
1.18408
1.18206
1.18272
1.18766
1.20514
1.22929
1.23471
1.23248
1.2277
1.21496
1.18877
1.16816
1.16424
1.16323
1.16525
1.18041
1.21008
1.22306
1.22418
1.22272
1.21814
1.20158
1.18308
1.1767
1.17364
1.17177
1.16986
1.16769
1.16967
1.16624
1.15327
1.135
1.12117
1.11744
1.11599
1.11571
1.11735
1.12146
1.12761
1.13899
1.15885
1.17084
1.16898
1.16592
1.16236
1.15578
1.1432
1.11948
1.08777
1.07335
1.07362
1.07666
1.07816
1.07933
1.08415
1.09236
1.10034
1.10692
1.11376
1.11915
1.11814
1.115
1.11233
1.10878
1.10127
1.08216
1.04795
1.02495
1.02168
1.0209
1.02021
1.02111
1.0281
1.04912
1.08084
1.09556
1.09631
1.09486
1.09219
1.08631
1.06958
1.03825
1.01757
1.01485
1.01439
1.01463
1.01875
1.03331
1.05718
1.06883
1.06928
1.06806
1.06567
1.05989
1.04362
1.02
1.01046
1.0093
1.00877
1.0099
1.0176
1.03437
1.04603
1.04751
1.0471
1.0458
1.04229
1.0331
1.01996
1.01443
1.01359
1.01349
1.01586
1.02235
1.02713
1.02735
1.02574
1.02268
1.01707
1.01121
1.00961
1.00918
1.00902
1.01068
1.01614
1.0199
1.02015
1.01974
1.01804
1.01308
1.00752
1.00695
1.00742
1.00783
1.00795
1.00761
1.00726
1.00697
1.00641
1.00549
1.00438
1.00375
1.00463
1.00809
1.01317
1.01491
1.01472
1.01377
1.01042
1.00238
0.996619
0.996294
0.997263
0.998528
0.999813
1.00144
1.00188
1.00165
1.0006
0.996091
0.984393
0.969225
0.962852
0.962732
0.964185
0.969579
0.983442
0.998842
1.00364
1.00405
1.00391
1.00356
1.00312
1.00214
1.00011
0.995112
0.982053
0.961289
0.950744
0.950445
0.950832
0.951937
0.955075
0.963698
0.978895
0.987889
0.98877
0.988796
0.988514
0.987313
0.9835
0.977501
0.974656
0.974236
0.974691
0.975755
0.976535
0.977343
0.977785
0.976001
0.967435
0.948499
0.933593
0.931776
0.931857
0.93251
0.936176
0.948799
0.974317
1.53287
1.53033
1.52583
1.51273
1.47079
1.38549
1.32834
1.31803
1.31603
1.31711
1.32997
1.36697
1.40792
1.41787
1.41814
1.41817
1.41618
1.41035
1.3925
1.3469
1.28521
1.25867
1.25536
1.2535
1.2525
1.255
1.26972
1.30954
1.35448
1.36418
1.36247
1.35831
1.34381
1.2981
1.22535
1.19328
1.19075
1.19036
1.19357
1.21047
1.25596
1.30972
1.32334
1.32213
1.31935
1.3137
1.2959
1.2511
1.20279
1.191
1.19121
1.19357
1.20498
1.23076
1.2472
1.24673
1.2431
1.23443
1.21327
1.18433
1.17393
1.17243
1.17258
1.17936
1.20128
1.22873
1.23847
1.24149
1.24189
1.23584
1.21225
1.18845
1.17799
1.17589
1.17642
1.17507
1.17834
1.1805
1.17182
1.15724
1.13776
1.12895
1.12598
1.12441
1.12431
1.12687
1.13159
1.14003
1.15804
1.17705
1.18026
1.17752
1.17525
1.17056
1.16146
1.14314
1.11056
1.08627
1.08269
1.08502
1.08666
1.0873
1.09085
1.09841
1.10644
1.11261
1.11826
1.12489
1.12748
1.12522
1.1227
1.12009
1.11538
1.10419
1.07806
1.04359
1.03043
1.02915
1.02837
1.02795
1.03047
1.04162
1.06862
1.09786
1.10565
1.10522
1.10325
1.09978
1.09105
1.06768
1.03526
1.02245
1.02137
1.02104
1.02208
1.02933
1.04926
1.07247
1.07886
1.07852
1.07699
1.07387
1.06511
1.04296
1.02108
1.01597
1.0152
1.01496
1.01785
1.02979
1.04825
1.05603
1.05643
1.05576
1.05404
1.04915
1.03751
1.02413
1.02
1.01942
1.01977
1.0236
1.03122
1.0351
1.03487
1.03308
1.02975
1.02362
1.01808
1.01679
1.01637
1.01646
1.01934
1.02542
1.02769
1.0275
1.02665
1.024
1.01801
1.01474
1.01508
1.01556
1.01511
1.01416
1.01325
1.01274
1.01245
1.01206
1.01148
1.01094
1.01145
1.01443
1.0197
1.02273
1.0227
1.02188
1.01942
1.01297
1.00525
1.00363
1.00398
1.00503
1.00635
1.00776
1.00828
1.00812
1.00757
1.00447
0.994647
0.979149
0.96989
0.969001
0.970118
0.974158
0.985202
1.00173
1.00902
1.00971
1.0099
1.00973
1.00909
1.00827
1.00685
1.00372
0.995228
0.977571
0.960177
0.95665
0.956892
0.957476
0.959047
0.963742
0.97523
0.989817
0.994896
0.995132
0.99514
0.994661
0.991984
0.985839
0.981298
0.979962
0.979715
0.980788
0.981892
0.982284
0.982765
0.982288
0.978001
0.964609
0.945106
0.937363
0.937499
0.938335
0.940321
0.94661
0.963779
0.986155
1.5477
1.54389
1.535
1.50731
1.43534
1.35829
1.33548
1.33262
1.33183
1.33942
1.36831
1.41277
1.43047
1.43115
1.43057
1.42919
1.42459
1.41265
1.38131
1.32163
1.27876
1.27006
1.26776
1.26586
1.26611
1.27359
1.30047
1.34945
1.37594
1.37673
1.37384
1.36528
1.33539
1.26637
1.21179
1.20183
1.20089
1.20189
1.21127
1.24304
1.30158
1.33593
1.33755
1.3357
1.33216
1.32181
1.28906
1.23201
1.20204
1.20017
1.20089
1.20709
1.22801
1.25508
1.2611
1.2589
1.25306
1.23778
1.20731
1.1849
1.18059
1.18003
1.18352
1.19855
1.22771
1.24545
1.24954
1.24977
1.24589
1.23259
1.21256
1.19467
1.18477
1.18179
1.17984
1.18428
1.19083
1.18625
1.17734
1.16001
1.14342
1.13769
1.13486
1.13322
1.1338
1.13674
1.14234
1.15642
1.17877
1.19025
1.18911
1.18731
1.18402
1.17797
1.16425
1.13599
1.10265
1.09244
1.09356
1.09542
1.09583
1.09821
1.10475
1.11275
1.11891
1.12356
1.12944
1.13515
1.1353
1.13305
1.13093
1.12775
1.12125
1.10461
1.0711
1.04281
1.03763
1.03681
1.03603
1.03634
1.04127
1.05763
1.08916
1.112
1.11502
1.11393
1.11142
1.10664
1.0935
1.06373
1.03477
1.02849
1.0279
1.02779
1.03035
1.0421
1.06702
1.08596
1.08845
1.0877
1.08573
1.08111
1.06694
1.04035
1.0238
1.02154
1.02092
1.02143
1.02747
1.04449
1.06184
1.06575
1.06559
1.0647
1.06251
1.05597
1.04107
1.02813
1.02556
1.02523
1.0265
1.03244
1.04066
1.0433
1.04273
1.04076
1.03701
1.03023
1.02504
1.02395
1.02357
1.02411
1.02845
1.03439
1.03532
1.03475
1.03335
1.02955
1.02372
1.02237
1.02279
1.02293
1.02175
1.01991
1.01877
1.01821
1.018
1.01788
1.01778
1.01827
1.02082
1.02615
1.03062
1.03095
1.02994
1.02803
1.02272
1.01497
1.01159
1.01125
1.01163
1.01259
1.0139
1.01476
1.01487
1.01433
1.0119
1.00367
0.989266
0.978373
0.976008
0.97641
0.979468
0.987917
1.00377
1.01453
1.01569
1.01562
1.01555
1.01513
1.01418
1.01299
1.01089
1.00571
0.99336
0.974063
0.96342
0.963038
0.963409
0.96419
0.966456
0.973277
0.987366
0.999357
1.00166
1.00172
1.00151
1.00005
0.995154
0.988614
0.986308
0.985569
0.985902
0.987357
0.987823
0.987848
0.987615
0.985546
0.977943
0.960589
0.944957
0.942956
0.943708
0.945384
0.949037
0.958597
0.97884
0.994871
1.56168
1.55532
1.53683
1.48345
1.39733
1.35577
1.35036
1.34841
1.35217
1.37255
1.41501
1.44175
1.44375
1.44266
1.44122
1.43756
1.42918
1.40879
1.36093
1.30556
1.28563
1.28263
1.28021
1.27885
1.28203
1.29788
1.33872
1.3817
1.3903
1.38883
1.38354
1.36514
1.31113
1.23947
1.21418
1.21203
1.21159
1.21614
1.2362
1.28624
1.34078
1.35302
1.35183
1.34942
1.34385
1.32284
1.27148
1.22158
1.21017
1.20991
1.2124
1.22561
1.25471
1.27327
1.27377
1.26974
1.25916
1.23473
1.20331
1.19083
1.18863
1.18827
1.19432
1.21683
1.24914
1.25945
1.26073
1.25924
1.25361
1.23883
1.21697
1.20092
1.19181
1.18451
1.18762
1.19852
1.1981
1.19383
1.1833
1.16306
1.15074
1.14617
1.14338
1.14207
1.14311
1.14628
1.15658
1.17716
1.19676
1.20065
1.19947
1.19723
1.19306
1.18299
1.16081
1.12379
1.10328
1.10202
1.10377
1.1043
1.10588
1.11154
1.11924
1.12553
1.12968
1.13417
1.14081
1.1446
1.14342
1.14153
1.13929
1.13507
1.12535
1.10116
1.06439
1.04709
1.04542
1.04461
1.04396
1.04559
1.05373
1.07604
1.10887
1.1236
1.12416
1.12243
1.11932
1.11253
1.09361
1.05913
1.03754
1.03488
1.03442
1.0348
1.04001
1.05774
1.08517
1.09737
1.09779
1.09662
1.09397
1.0866
1.06542
1.03792
1.02819
1.02715
1.02673
1.02876
1.03955
1.06099
1.07415
1.07541
1.0749
1.07369
1.07038
1.05978
1.04171
1.03233
1.03124
1.0313
1.03417
1.04251
1.05025
1.05165
1.05078
1.0486
1.04419
1.03669
1.03204
1.03113
1.03081
1.03196
1.0375
1.04269
1.04279
1.04181
1.0397
1.03494
1.0305
1.03014
1.03038
1.03001
1.02795
1.02539
1.02415
1.02361
1.02354
1.02383
1.02467
1.02715
1.03241
1.03829
1.03977
1.03828
1.03642
1.03251
1.02456
1.01973
1.01934
1.01908
1.01915
1.01996
1.02093
1.02147
1.02121
1.01921
1.01214
0.99871
0.987083
0.984027
0.984051
0.985926
0.991788
1.00427
1.01842
1.02216
1.02182
1.02124
1.02081
1.02019
1.01898
1.01734
1.0142
1.00641
0.990584
0.973817
0.969418
0.969491
0.970003
0.971174
0.974658
0.984186
0.999351
1.00744
1.00827
1.0082
1.00748
1.00455
0.997862
0.992935
0.991809
0.991618
0.992655
0.993848
0.993496
0.993074
0.992036
0.988235
0.976707
0.958129
0.948963
0.949073
0.950422
0.952803
0.95822
0.971223
0.991875
1.00102
1.57433
1.56194
1.52514
1.44437
1.3815
1.36864
1.36637
1.36721
1.38078
1.41725
1.45112
1.45605
1.45461
1.45269
1.4498
1.44365
1.4301
1.39705
1.33983
1.30391
1.29785
1.29509
1.29262
1.29298
1.30137
1.32952
1.37826
1.4023
1.40319
1.39987
1.38873
1.35233
1.27817
1.23091
1.22377
1.22234
1.22369
1.23516
1.27171
1.33384
1.36638
1.36784
1.3662
1.36276
1.35085
1.31299
1.25208
1.2229
1.22044
1.22066
1.2275
1.2509
1.28004
1.28724
1.2853
1.27783
1.25938
1.22466
1.20212
1.19886
1.19808
1.20058
1.2128
1.24243
1.26783
1.27273
1.27317
1.27336
1.26531
1.2433
1.2192
1.20304
1.18989
1.18946
1.20402
1.20766
1.20663
1.20273
1.18853
1.16852
1.15988
1.15534
1.15198
1.15042
1.15143
1.15836
1.1749
1.1982
1.21115
1.21146
1.21022
1.20751
1.20082
1.18388
1.14934
1.11718
1.11068
1.11199
1.11269
1.11354
1.11826
1.12558
1.13209
1.1363
1.13974
1.14557
1.15226
1.15372
1.15211
1.15031
1.14742
1.14167
1.12687
1.09417
1.06174
1.05423
1.05333
1.05246
1.05229
1.05571
1.06798
1.0962
1.12604
1.13364
1.13303
1.13078
1.12683
1.11691
1.09073
1.05554
1.04234
1.04122
1.04087
1.04227
1.05163
1.07609
1.10154
1.10732
1.1069
1.10529
1.10134
1.08847
1.06057
1.03768
1.0336
1.0329
1.03303
1.03784
1.05467
1.07749
1.08509
1.08508
1.08418
1.08243
1.07654
1.0606
1.0427
1.03792
1.03758
1.03851
1.04369
1.05397
1.06017
1.06063
1.05952
1.05703
1.05165
1.04366
1.03994
1.0392
1.039
1.04083
1.04709
1.05136
1.05112
1.04978
1.04694
1.04167
1.03903
1.039
1.03877
1.03759
1.03479
1.032
1.031
1.03071
1.03105
1.03218
1.03488
1.04022
1.04699
1.04997
1.0486
1.0462
1.04311
1.03668
1.02927
1.02777
1.02785
1.02782
1.02763
1.02793
1.02852
1.02851
1.0268
1.02127
1.00928
0.996331
0.992235
0.992385
0.994132
0.99911
1.00854
1.01956
1.0265
1.02797
1.02758
1.02675
1.02593
1.02517
1.02389
1.02186
1.01744
1.0064
0.988788
0.977344
0.975905
0.97591
0.976569
0.978507
0.984032
0.996411
1.00998
1.01429
1.01464
1.01441
1.01299
1.00848
1.00134
0.998321
0.99782
0.998162
0.999573
0.99997
0.998983
0.998008
0.9958
0.989366
0.974632
0.958278
0.954775
0.955555
0.957481
0.960623
0.967947
0.983814
1.00205
1.00592
1.58474
1.56012
1.49389
1.41388
1.38771
1.38521
1.38441
1.39206
1.42048
1.45864
1.46862
1.467
1.46445
1.46151
1.45661
1.44718
1.42623
1.37905
1.32872
1.31323
1.31028
1.30735
1.30553
1.30917
1.32601
1.36804
1.40912
1.4165
1.41523
1.40897
1.38628
1.32409
1.25547
1.23625
1.2341
1.23334
1.23878
1.26245
1.31837
1.37251
1.38315
1.38255
1.38027
1.37415
1.34964
1.29265
1.24269
1.23208
1.23094
1.23342
1.2485
1.28034
1.29897
1.29935
1.29443
1.28177
1.25306
1.21766
1.20359
1.20144
1.2028
1.21155
1.23563
1.27264
1.28801
1.28982
1.28989
1.2845
1.26847
1.24538
1.22287
1.19756
1.19141
1.2086
1.21576
1.217
1.21637
1.21091
1.19272
1.17617
1.169
1.1637
1.15924
1.15769
1.16158
1.17382
1.19567
1.21825
1.2234
1.22306
1.22157
1.2175
1.2051
1.17691
1.13665
1.12036
1.12035
1.12118
1.12154
1.12504
1.13168
1.13825
1.14271
1.14568
1.15026
1.15808
1.16328
1.16291
1.16117
1.15904
1.15517
1.14679
1.12455
1.08638
1.06442
1.06198
1.06111
1.06021
1.06088
1.06661
1.084
1.11675
1.14012
1.14308
1.14187
1.13923
1.1342
1.11946
1.08607
1.05485
1.04849
1.0479
1.04788
1.0514
1.06672
1.09666
1.11573
1.11763
1.11698
1.11495
1.10857
1.08846
1.05685
1.04292
1.04175
1.04162
1.04373
1.05411
1.07771
1.097
1.10002
1.0996
1.09827
1.0949
1.08438
1.06484
1.05384
1.05374
1.05532
1.05946
1.06858
1.07996
1.0843
1.08443
1.08319
1.08029
1.07409
1.0673
1.06553
1.06576
1.06725
1.07174
1.07919
1.08279
1.08272
1.08178
1.07927
1.07431
1.07123
1.07097
1.0708
1.06964
1.0675
1.06698
1.06814
1.07023
1.07316
1.07747
1.08357
1.09038
1.09333
1.09178
1.08842
1.08408
1.07773
1.0687
1.06263
1.06111
1.06003
1.05865
1.0569
1.05523
1.05342
1.05017
1.04371
1.03156
1.01811
1.01287
1.01243
1.01324
1.01677
1.02446
1.03262
1.03552
1.03613
1.0373
1.03723
1.03624
1.0348
1.03329
1.03137
1.02828
1.02167
1.0076