/*--------------------------------*- C++ -*----------------------------------*\
  =========                 |
  \\      /  F ield         | OpenFOAM: The Open Source CFD Toolbox
   \\    /   O peration     | Website:  https://openfoam.org
    \\  /    A nd           | Version:  7
     \\/     M anipulation  |
\*---------------------------------------------------------------------------*/
FoamFile
{
    version     2.0;
    format      ascii;
    class       volVectorField;
    location    "2.3";
    object      U;
}
// * * * * * * * * * * * * * * * * * * * * * * * * * * * * * * * * * * * * * //

dimensions      [0 1 -1 0 0 0 0];

internalField   nonuniform List<vector> 
4080
(
(3 1.0462e-16 0)
(3 2.73712e-16 0)
(3 2.67002e-16 0)
(3 -1.09191e-16 0)
(3 -4.98725e-16 0)
(3 -5.29867e-16 0)
(3 1.5052e-16 0)
(3 1.32566e-16 0)
(3 -2.47125e-16 0)
(3 -2.59314e-16 0)
(3 -4.79317e-16 0)
(3 1.53909e-16 0)
(3 1.29697e-15 0)
(3 1.78917e-15 0)
(3 -2.26372e-16 0)
(3 -8.2242e-16 0)
(3 -7.32414e-16 0)
(2.62588 0.0132361 0)
(0.869776 0.0297586 0)
(0.628762 0.0411492 0)
(0.525106 0.0501309 0)
(0.398704 0.0592892 0)
(0.256425 0.0661283 0)
(0.107242 0.0854997 0)
(3 2.8536e-17 0)
(3 1.85762e-16 0)
(3 1.81109e-16 0)
(3 -4.14324e-16 0)
(3 -9.2872e-16 0)
(3 -5.10364e-16 0)
(3 -2.74344e-16 0)
(3 1.21721e-17 0)
(3 -7.87583e-18 0)
(3 3.81495e-16 0)
(3 1.8241e-16 0)
(3 4.54315e-16 0)
(3 1.54038e-15 0)
(3 1.40706e-15 0)
(3 -6.75811e-17 0)
(3 -6.6271e-16 0)
(3 -1.07777e-15 0)
(2.67435 0.0704471 0)
(0.874596 0.142707 0)
(0.603529 0.140231 0)
(0.496444 0.158295 0)
(0.373198 0.189769 0)
(0.236088 0.217605 0)
(0.091293 0.27178 0)
(3 -7.21713e-17 0)
(3 -2.52173e-16 0)
(3 -3.61309e-16 0)
(3 -3.70341e-16 0)
(3 -5.14402e-17 0)
(3 1.3954e-16 0)
(3 -3.91308e-16 0)
(3 -6.73125e-16 0)
(3 -3.18317e-16 0)
(3 4.5668e-16 0)
(3 8.30599e-16 0)
(3 1.05413e-15 0)
(3 1.01346e-15 0)
(3 1.23077e-15 0)
(3 1.28958e-15 0)
(3 6.46144e-16 0)
(3 -4.09381e-16 0)
(2.8454 0.131611 0)
(0.967148 0.266595 0)
(0.651594 0.246415 0)
(0.545556 0.273021 0)
(0.434003 0.320972 0)
(0.29676 0.35781 0)
(0.149524 0.45359 0)
(3 1.4501e-16 0)
(3 -5.95204e-18 0)
(3 -1.63604e-16 0)
(3 -2.52064e-17 0)
(3 8.89902e-17 0)
(3 -5.91209e-17 0)
(3 -2.06416e-16 0)
(3 -2.75565e-16 0)
(3 -4.35955e-16 0)
(3 8.40904e-17 0)
(3 3.14398e-16 0)
(3 4.12379e-16 0)
(3 4.61052e-16 0)
(3 8.37048e-16 0)
(3 1.38693e-15 0)
(3 9.52764e-16 0)
(3 -8.40652e-18 0)
(3.03237 0.018222 0)
(1.15525 0.349968 0)
(0.754685 0.326047 0)
(0.65222 0.360475 0)
(0.546233 0.432113 0)
(0.362134 0.542137 0)
(0.196975 0.757404 0)
(3 5.6242e-17 0)
(3 1.59208e-17 0)
(3 -3.79549e-17 0)
(3 2.7333e-17 0)
(3 -4.78903e-17 0)
(3 -4.19659e-16 0)
(3 -3.92839e-16 0)
(3 5.29001e-17 0)
(3 3.16553e-16 0)
(3 -2.61814e-16 0)
(3 -5.57666e-16 0)
(3 -4.97239e-16 0)
(3 -1.89707e-17 0)
(3 7.00744e-16 0)
(3 9.068e-16 0)
(3 6.6565e-16 0)
(3 2.75245e-16 0)
(3.00298 9.37646e-06 0)
(1.42949 0.400688 0)
(0.807134 0.429211 0)
(0.695081 0.471567 0)
(0.614521 0.579212 0)
(0.557973 0.758956 0)
(0.65878 1.0393 0)
(3 -1.75396e-17 0)
(3 -1.25861e-16 0)
(3 -1.25123e-16 0)
(3 7.89084e-17 0)
(3 1.61365e-16 0)
(3 2.33078e-17 0)
(3 -9.41058e-17 0)
(3 1.65272e-16 0)
(3 5.84026e-16 0)
(3 5.01433e-16 0)
(3 3.72505e-16 0)
(3 6.61697e-16 0)
(3 1.29291e-15 0)
(3 1.20241e-15 0)
(3 4.08467e-16 0)
(3 -1.51222e-16 0)
(3 2.78571e-16 0)
(3.00002 -8.79342e-07 0)
(1.93236 0.453678 0)
(0.889676 0.540438 0)
(0.761826 0.556739 0)
(0.735331 0.656272 0)
(0.775496 0.786721 0)
(0.991184 0.92148 0)
(3 -2.32125e-16 0)
(3 -4.84372e-16 0)
(3 -5.54055e-16 0)
(3 -4.83923e-16 0)
(3 -4.75077e-16 0)
(3 -4.08921e-16 0)
(3 -2.46599e-16 0)
(3 3.93195e-16 0)
(3 9.81359e-16 0)
(3 1.30593e-15 0)
(3 1.76542e-15 0)
(3 1.65341e-15 0)
(3 9.32786e-16 0)
(3 -6.97565e-17 0)
(3 2.93667e-16 0)
(3 7.52126e-16 0)
(3 6.5607e-16 0)
(3 -1.02649e-06 0)
(2.73238 0.306454 0)
(1.09496 0.641277 0)
(0.887951 0.607893 0)
(0.877803 0.69816 0)
(0.956923 0.80645 0)
(1.20326 0.893361 0)
(3 -6.55698e-17 0)
(3 -9.55852e-17 0)
(3 1.41199e-17 0)
(3 -8.49593e-17 0)
(3 -8.33293e-17 0)
(3 -3.27664e-16 0)
(3 -3.23258e-16 0)
(3 3.36307e-16 0)
(3 3.23883e-16 0)
(3 4.81366e-16 0)
(3 7.75131e-16 0)
(3 6.98612e-16 0)
(3 2.3883e-16 0)
(3 -1.24677e-16 0)
(3 2.88692e-16 0)
(3 3.98494e-16 0)
(3 2.63264e-16 0)
(3 -2.15414e-07 0)
(3.07293 0.0255293 0)
(1.49455 0.662547 0)
(1.01844 0.70742 0)
(1.01771 0.724047 0)
(1.08468 0.786185 0)
(1.29162 0.838091 0)
(3 -7.32872e-18 0)
(3 2.04224e-16 0)
(3 1.95706e-16 0)
(3 2.19309e-16 0)
(3 3.85326e-16 0)
(3 6.56325e-16 0)
(3 9.0483e-16 0)
(3 9.21517e-16 0)
(3 5.74063e-16 0)
(3 2.64993e-16 0)
(3 -6.56142e-17 0)
(3 -2.5072e-18 0)
(3 5.40186e-16 0)
(3 8.42368e-16 0)
(3 1.65383e-16 0)
(3 -5.51362e-16 0)
(3 -1.51962e-17 0)
(3 -2.20408e-08 0)
(3.00401 0.000154664 0)
(2.1926 0.589008 0)
(1.15112 0.80634 0)
(1.10505 0.79824 0)
(1.19148 0.814711 0)
(1.35534 0.827537 0)
(3 3.13223e-18 0)
(3 -1.78901e-16 0)
(3 -1.05579e-15 0)
(3 -6.62274e-16 0)
(3 -1.98914e-16 0)
(3 2.96914e-16 0)
(3 5.1297e-16 0)
(3 6.10345e-16 0)
(3 6.04835e-16 0)
(3 5.26663e-16 0)
(3 1.16238e-17 0)
(3 1.21949e-16 0)
(3 8.25793e-16 0)
(3 1.58446e-15 0)
(3 1.0873e-15 0)
(3 3.70792e-16 0)
(3 6.41754e-16 0)
(3 -6.99359e-10 0)
(3.00001 -2.84893e-08 0)
(3.03759 0.135708 0)
(1.53037 0.819447 0)
(1.20701 0.789209 0)
(1.29795 0.80137 0)
(1.4216 0.808146 0)
(3 -5.95914e-17 0)
(3 -4.88214e-16 0)
(3 -5.31999e-16 0)
(3 -1.94135e-16 0)
(3 -2.83636e-16 0)
(3 -1.55429e-16 0)
(3 -2.53433e-16 0)
(3 -4.51803e-16 0)
(3 -1.75523e-16 0)
(3 4.52931e-16 0)
(3 5.00476e-16 0)
(3 7.63369e-16 0)
(3 8.99339e-16 0)
(3 3.79326e-16 0)
(3 7.74585e-16 0)
(3 1.03789e-15 0)
(3 9.6865e-16 0)
(3 -1.68745e-12 0)
(3 -6.56529e-07 0)
(3.0167 0.00332068 0)
(2.20777 0.665976 0)
(1.32273 0.869588 0)
(1.33909 0.860693 0)
(1.45175 0.849146 0)
(3 -2.2221e-16 0)
(3 -2.4272e-16 0)
(3 4.3174e-17 0)
(3 -5.25783e-16 0)
(3 -1.36449e-15 0)
(3 -1.26872e-15 0)
(3 -7.86251e-16 0)
(3 -8.00439e-16 0)
(3 -5.56092e-16 0)
(3 -3.84115e-16 0)
(3 1.18234e-16 0)
(3 2.61924e-16 0)
(3 -2.62404e-16 0)
(3 -1.39617e-15 0)
(3 -1.29695e-15 0)
(3 -8.39862e-16 0)
(3 -3.02991e-16 0)
(3 -9.606e-16 0)
(3 -1.38728e-07 0)
(3.00011 4.58803e-05 0)
(3.00195 0.151957 0)
(1.72546 0.864576 0)
(1.39088 0.864444 0)
(1.505 0.850383 0)
(3 5.18746e-17 0)
(3 2.79039e-16 0)
(3 2.01773e-16 0)
(3 -1.75358e-16 0)
(3 -4.42342e-16 0)
(3 -6.53369e-16 0)
(3 -3.71312e-16 0)
(3 1.15678e-16 0)
(3 1.82089e-16 0)
(3 -3.10529e-16 0)
(3 -2.73863e-16 0)
(3 -9.82891e-16 0)
(3 -1.25964e-15 0)
(3 -1.09136e-15 0)
(3 -7.99527e-16 0)
(3 -7.30281e-16 0)
(3 -4.096e-16 0)
(3 -6.452e-17 0)
(3 -1.40076e-08 0)
(3 6.62581e-09 0)
(3.01019 0.00675634 0)
(2.54184 0.580538 0)
(1.54985 0.914384 0)
(1.53856 0.906409 0)
(3 -5.22892e-17 0)
(3 -8.49523e-17 0)
(3 -1.21192e-17 0)
(3 2.72244e-16 0)
(3 6.20547e-16 0)
(3 4.81158e-16 0)
(3 4.58439e-17 0)
(3 3.43043e-17 0)
(3 1.31651e-16 0)
(3 -7.72342e-17 0)
(3 -7.97942e-16 0)
(3 -1.31797e-15 0)
(3 -1.12837e-15 0)
(3 -5.49068e-16 0)
(3 -1.56873e-17 0)
(3 -1.36654e-16 0)
(3 -5.55285e-16 0)
(3 -3.20359e-16 0)
(3 -1.66934e-10 0)
(3 -1.69214e-09 0)
(3.00005 0.000101675 0)
(3.02401 0.0751744 0)
(2.06663 0.780168 0)
(1.61692 0.914401 0)
(3 1.59159e-17 0)
(3 -9.95374e-17 0)
(3 1.70662e-16 0)
(3 5.44282e-16 0)
(3 9.77817e-16 0)
(3 7.2283e-16 0)
(3 -1.02332e-16 0)
(3 -3.15704e-16 0)
(3 -4.31105e-16 0)
(3 -8.18652e-16 0)
(3 -4.46175e-16 0)
(3 -4.82454e-16 0)
(3 -6.91297e-16 0)
(3 -5.77506e-16 0)
(3 -6.26063e-16 0)
(3 -6.79011e-17 0)
(3 1.53998e-16 0)
(3 1.53164e-15 0)
(3 -8.59157e-13 0)
(3 -3.61409e-10 0)
(3 9.93855e-08 0)
(3.0019 0.00367678 0)
(2.82369 0.301005 0)
(1.91869 0.86975 0)
(3 -4.51459e-17 0)
(3 -7.43398e-17 0)
(3 2.36607e-16 0)
(3 6.78824e-16 0)
(3 5.64505e-16 0)
(3 8.95341e-16 0)
(3 1.01913e-15 0)
(3 1.26412e-15 0)
(3 1.21793e-15 0)
(3 8.57706e-16 0)
(3 2.44894e-16 0)
(3 -1.44368e-16 0)
(3 -2.64527e-16 0)
(3 -5.66986e-16 0)
(3 -4.05532e-16 0)
(3 1.09946e-15 0)
(3 2.08403e-15 0)
(3 2.77339e-15 0)
(3 1.37134e-15 0)
(3 -3.49532e-11 0)
(3 -1.03824e-11 0)
(3 2.29806e-05 0)
(3.00073 0.0243449 0)
(2.58221 0.514454 0)
(3 -1.68943e-16 0)
(3 -3.93898e-16 0)
(3 -3.88722e-16 0)
(3 -3.06876e-16 0)
(3 -1.8185e-16 0)
(3 1.70888e-16 0)
(3 6.26638e-16 0)
(3 1.21138e-15 0)
(3 9.77112e-16 0)
(3 9.51603e-16 0)
(3 3.28582e-16 0)
(3 6.52904e-16 0)
(3 4.74609e-16 0)
(3 2.29434e-16 0)
(3 5.29835e-16 0)
(3 8.66391e-16 0)
(3 1.91269e-15 0)
(3 1.68027e-15 0)
(3 5.18293e-16 0)
(3 -9.0324e-13 0)
(3 -2.30756e-12 0)
(3 1.90054e-08 0)
(2.99995 0.000583135 0)
(2.97553 0.0764016 0)
(3 3.1546e-16 0)
(3 4.0454e-16 0)
(3 4.30984e-17 0)
(3 -4.73012e-16 0)
(3 -1.7331e-16 0)
(3 -1.20654e-16 0)
(3 -8.73669e-17 0)
(3 -1.57198e-16 0)
(3 -3.82414e-16 0)
(3 -3.74325e-16 0)
(3 -9.62585e-17 0)
(3 6.03438e-16 0)
(3 8.11977e-16 0)
(3 1.35173e-15 0)
(3 1.47176e-15 0)
(3 8.22508e-16 0)
(3 6.12185e-16 0)
(3 2.43817e-16 0)
(3 1.22057e-15 0)
(3 -1.63173e-15 0)
(3 -5.98935e-13 0)
(3 6.1602e-12 0)
(3 1.45728e-06 0)
(2.99947 0.00327315 0)
(3 1.74839e-16 0)
(3 8.03015e-16 0)
(3 8.39183e-16 0)
(3 6.04962e-16 0)
(3 1.38122e-16 0)
(3 -1.90737e-16 0)
(3 -1.85569e-16 0)
(3 -6.00335e-16 0)
(3 -1.01549e-15 0)
(3 -1.31505e-15 0)
(3 -1.218e-15 0)
(3 -6.75291e-16 0)
(3 -3.20776e-16 0)
(3 3.86971e-16 0)
(3 6.21523e-16 0)
(3 6.12311e-16 0)
(3 1.10693e-16 0)
(3 -3.57227e-16 0)
(3 2.66191e-16 0)
(3 -9.837e-17 0)
(3 -6.27501e-14 0)
(3 -6.24592e-14 0)
(3 1.23337e-09 0)
(2.99999 1.91597e-05 0)
(3 -1.41351e-16 0)
(3 -1.50039e-17 0)
(3 6.16031e-17 0)
(3 3.35265e-17 0)
(3 -1.82734e-16 0)
(3 -1.15503e-16 0)
(3 -4.9497e-16 0)
(3 -1.14357e-15 0)
(3 -1.82531e-15 0)
(3 -1.24718e-15 0)
(3 -8.03769e-16 0)
(3 -7.08535e-16 0)
(3 -7.34111e-16 0)
(3 -1.20042e-15 0)
(3 -1.06405e-15 0)
(3 -1.08005e-15 0)
(3 -8.26235e-16 0)
(3 -8.8835e-16 0)
(3 -1.42201e-15 0)
(3 -7.79249e-16 0)
(3 -2.12593e-15 0)
(3 -2.32814e-14 0)
(3 1.80913e-13 0)
(3 2.56827e-08 0)
(3 -2.68275e-16 0)
(3 -5.42335e-16 0)
(3 -6.04223e-16 0)
(3 -4.45472e-16 0)
(3 4.90529e-16 0)
(3 4.95744e-16 0)
(3 -3.66326e-16 0)
(3 -1.69017e-15 0)
(3 -1.58676e-15 0)
(3 -1.29652e-15 0)
(3 -1.20557e-15 0)
(3 -1.65614e-15 0)
(3 -1.69219e-15 0)
(3 -1.75905e-15 0)
(3 -1.83964e-15 0)
(3 -1.70539e-15 0)
(3 -1.2771e-15 0)
(3 -1.15302e-15 0)
(3 -1.18047e-15 0)
(3 -9.04308e-16 0)
(3 -8.94409e-16 0)
(3 -4.49371e-15 0)
(3 -3.62062e-15 0)
(3 9.38894e-12 0)
(3 9.30942e-17 0)
(3 1.75992e-16 0)
(3 -9.82115e-17 0)
(3 -1.63868e-16 0)
(3 -2.59019e-17 0)
(3 -1.18251e-16 0)
(3 -4.92393e-16 0)
(3 -1.10446e-16 0)
(3 -4.75105e-17 0)
(3 -4.90399e-16 0)
(3 -1.40561e-15 0)
(3 -1.53572e-15 0)
(3 -1.63943e-15 0)
(3 -1.67468e-15 0)
(3 -1.55372e-15 0)
(3 -1.12657e-15 0)
(3 -7.6664e-16 0)
(3 -7.3342e-16 0)
(3 -8.32204e-16 0)
(3 -1.53844e-15 0)
(3 -1.04062e-15 0)
(3 4.17625e-16 0)
(3 -3.25515e-16 0)
(3 4.02737e-16 0)
(3 -5.44167e-17 0)
(3 6.60666e-18 0)
(3 -6.9317e-18 0)
(3 -1.31762e-16 0)
(3 -1.23174e-15 0)
(3 -1.12826e-15 0)
(3 -5.67896e-16 0)
(3 2.57135e-16 0)
(3 5.35785e-16 0)
(3 4.12587e-16 0)
(3 1.02016e-16 0)
(3 -2.44125e-16 0)
(3 -5.87857e-16 0)
(3 -7.94289e-16 0)
(3 -7.27061e-16 0)
(3 -7.76589e-16 0)
(3 -1.05806e-15 0)
(3 -9.46834e-16 0)
(3 -4.0695e-16 0)
(3 -4.97586e-16 0)
(3 2.46704e-16 0)
(3 1.42804e-15 0)
(3 1.40553e-15 0)
(3 8.32517e-16 0)
(3 -3.35471e-17 0)
(3 1.3234e-16 0)
(3 2.78728e-16 0)
(3 1.55583e-16 0)
(3 -2.41749e-17 0)
(3 5.69112e-17 0)
(3 -5.27951e-17 0)
(3 -4.24062e-16 0)
(3 1.89502e-16 0)
(3 4.46937e-16 0)
(3 8.58588e-16 0)
(3 7.24335e-16 0)
(3 2.95431e-16 0)
(3 -2.31099e-16 0)
(3 -1.25793e-15 0)
(3 -1.54387e-15 0)
(3 -1.37501e-15 0)
(3 -9.84808e-16 0)
(3 -7.00374e-16 0)
(3 1.38791e-16 0)
(3 5.39995e-16 0)
(3 6.30833e-16 0)
(3 6.85758e-16 0)
(3 9.20655e-16 0)
(3 2.28851e-16 0)
(3 2.12408e-16 0)
(3 9.97945e-18 0)
(3 2.25268e-16 0)
(3 4.39471e-16 0)
(3 3.91225e-16 0)
(3 -3.48785e-16 0)
(3 -1.0952e-15 0)
(3 -9.54541e-16 0)
(3 -4.09718e-16 0)
(3 2.1807e-16 0)
(3 3.88181e-16 0)
(3 1.52112e-16 0)
(3 -2.10999e-17 0)
(3 -9.43876e-16 0)
(3 -1.06868e-15 0)
(3 -9.67874e-16 0)
(3 -7.91629e-16 0)
(3 -2.60756e-16 0)
(3 8.95983e-16 0)
(3 1.44648e-15 0)
(3 1.29895e-15 0)
(3 5.13865e-16 0)
(3 6.78127e-16 0)
(3 -3.62638e-17 0)
(3 -1.54987e-16 0)
(3 -2.70456e-16 0)
(3 -3.13383e-16 0)
(3 -4.56514e-16 0)
(3 -3.79838e-16 0)
(3 -6.73557e-16 0)
(3 -6.06676e-16 0)
(3 -5.77409e-16 0)
(3 -5.09418e-16 0)
(3 -2.9394e-16 0)
(3 -2.02054e-16 0)
(3 -1.39432e-16 0)
(3 1.08584e-16 0)
(3 -5.53933e-17 0)
(3 -4.37396e-16 0)
(3 -2.61699e-16 0)
(3 -1.90017e-16 0)
(3 1.8963e-16 0)
(3 1.03455e-15 0)
(3 1.93266e-15 0)
(3 1.94484e-15 0)
(3 1.57713e-15 0)
(3 5.68032e-16 0)
(3 1.78353e-17 0)
(3 2.70684e-16 0)
(3 7.56167e-16 0)
(3 6.96205e-16 0)
(3 -2.05032e-17 0)
(3 2.57897e-16 0)
(3 6.42576e-16 0)
(3 4.94734e-16 0)
(3 2.32846e-16 0)
(3 -7.54536e-17 0)
(3 -6.63476e-16 0)
(3 -7.20676e-16 0)
(3 -4.26108e-16 0)
(3 2.52279e-17 0)
(3 4.93753e-16 0)
(3 6.27949e-16 0)
(3 7.76729e-16 0)
(3 4.42519e-16 0)
(3 7.32474e-16 0)
(3 6.2153e-16 0)
(3 4.30948e-16 0)
(3 9.04805e-16 0)
(3 1.30749e-15 0)
(3 9.2487e-16 0)
(3 3.99073e-17 0)
(3 5.44366e-18 0)
(3 -4.06471e-18 0)
(3 -2.75278e-18 0)
(3 1.46491e-16 0)
(3 8.38132e-16 0)
(3 1.30865e-15 0)
(3 1.05085e-15 0)
(3 5.79737e-16 0)
(3 6.10754e-16 0)
(3 9.70743e-17 0)
(3 2.72539e-16 0)
(3 1.81048e-16 0)
(3 9.97055e-17 0)
(3 7.37756e-16 0)
(3 9.77892e-16 0)
(3 6.16883e-16 0)
(3 4.87861e-16 0)
(3 1.31881e-16 0)
(3 8.17822e-17 0)
(3 -9.14627e-16 0)
(3 -5.25897e-16 0)
(3 -1.93554e-16 0)
(3 2.60997e-17 0)
(3 -7.7384e-17 0)
(3 -2.91752e-16 0)
(3 -1.06156e-15 0)
(3 -1.03702e-15 0)
(3 -6.91141e-16 0)
(3 -3.44149e-16 0)
(3 1.14124e-16 0)
(3 6.59336e-16 0)
(3 8.48259e-16 0)
(3 1.34447e-15 0)
(3 1.53451e-15 0)
(3 1.40562e-15 0)
(3 9.15848e-16 0)
(3 1.38823e-16 0)
(3 9.42392e-17 0)
(3 5.50101e-17 0)
(3 7.01277e-17 0)
(3 3.72277e-16 0)
(3 5.12048e-16 0)
(3 4.11885e-16 0)
(3 -3.11089e-16 0)
(3 -4.87719e-16 0)
(3 -1.74287e-16 0)
(3 1.77098e-16 0)
(3 -2.19621e-16 0)
(3 -1.76996e-16 0)
(3 -4.30813e-17 0)
(3 -1.36258e-16 0)
(3 -5.83334e-17 0)
(3 2.69342e-16 0)
(3 6.29393e-16 0)
(3 7.37577e-16 0)
(3 6.88797e-16 0)
(3 8.99619e-16 0)
(3 6.90675e-16 0)
(3 1.76961e-16 0)
(3 6.99744e-17 0)
(3 2.95539e-16 0)
(3 -8.97928e-17 0)
(3 -5.75071e-16 0)
(3 -1.96653e-16 0)
(3 -1.28969e-16 0)
(3 4.22753e-16 0)
(3 9.9652e-16 0)
(3 1.39515e-15 0)
(3 4.43238e-16 0)
(3 -4.11736e-16 0)
(3 -1.61458e-15 0)
(3 -1.47453e-16 0)
(3 -1.17521e-17 0)
(3 4.175e-16 0)
(3 8.5397e-17 0)
(3 1.72729e-16 0)
(3 4.07491e-16 0)
(3 2.77282e-16 0)
(3 4.44013e-16 0)
(3 1.47544e-16 0)
(3 -2.20501e-16 0)
(3 -4.95233e-16 0)
(3 -6.47508e-16 0)
(3 -1.1468e-16 0)
(3 1.50772e-16 0)
(3 3.81326e-16 0)
(3 -6.06737e-17 0)
(3 3.07018e-16 0)
(3 -3.50599e-16 0)
(3 -1.6966e-16 0)
(3 2.93914e-16 0)
(3 1.72093e-16 0)
(3 -8.74327e-16 0)
(3 -1.56925e-15 0)
(3 -2.41738e-15 0)
(3 2.56341e-16 0)
(3 2.5903e-16 0)
(3 4.64798e-17 0)
(3 5.77898e-17 0)
(3 2.39777e-16 0)
(3 1.66616e-16 0)
(3 -5.23073e-16 0)
(3 -7.99063e-16 0)
(3 -8.30348e-16 0)
(3 -7.05746e-16 0)
(3 -3.06495e-16 0)
(3 -5.25516e-16 0)
(3 -2.96851e-16 0)
(3 -8.33082e-17 0)
(3 4.99738e-16 0)
(3 9.73598e-16 0)
(3 3.29173e-16 0)
(3 -7.61475e-16 0)
(3 -7.22741e-16 0)
(3 -9.43214e-16 0)
(3 -1.19437e-15 0)
(3 -1.5816e-15 0)
(3 -1.62726e-15 0)
(3 -1.23929e-15 0)
(3 1.50975e-16 0)
(3 -1.04461e-16 0)
(3 -2.40067e-16 0)
(3 3.22013e-16 0)
(3 6.06046e-16 0)
(3 3.50941e-16 0)
(3 3.71416e-18 0)
(3 -4.32521e-16 0)
(3 -1.47161e-16 0)
(3 -6.30291e-16 0)
(3 -1.16324e-15 0)
(3 -1.19375e-15 0)
(3 -4.91672e-16 0)
(3 3.37187e-16 0)
(3 8.02513e-16 0)
(3 7.13253e-16 0)
(3 -8.06849e-17 0)
(3 -7.17e-17 0)
(3 -4.58272e-17 0)
(3 -5.91353e-16 0)
(3 -1.30395e-16 0)
(3 5.87166e-16 0)
(3 2.78172e-16 0)
(3 1.7257e-16 0)
(3 7.51954e-17 0)
(3 -3.37008e-16 0)
(3 -9.43051e-17 0)
(3 3.27738e-16 0)
(3 2.74176e-16 0)
(3 -4.37065e-16 0)
(3 -6.47949e-16 0)
(3 -2.33862e-16 0)
(3 -1.28401e-16 0)
(3 -7.12056e-16 0)
(3 -1.1395e-15 0)
(3 -6.80075e-16 0)
(3 5.87325e-17 0)
(3 8.80215e-16 0)
(3 9.7782e-16 0)
(3 8.06433e-16 0)
(3 1.08757e-15 0)
(3 1.79083e-15 0)
(3 1.8278e-15 0)
(3 1.11422e-15 0)
(3 5.34575e-16 0)
(3 6.12335e-16 0)
(3 1.6964e-16 0)
(3 1.93991e-16 0)
(3 6.65317e-17 0)
(3 1.48657e-17 0)
(3 -1.87668e-17 0)
(3 8.05337e-17 0)
(3 1.63706e-16 0)
(3 -9.45525e-17 0)
(3 -4.53857e-16 0)
(3 -4.97782e-16 0)
(3 1.11545e-16 0)
(3 6.54088e-16 0)
(3 9.16166e-16 0)
(3 1.00349e-15 0)
(3 8.11273e-16 0)
(3 7.88321e-16 0)
(3 9.17516e-16 0)
(3 8.68428e-16 0)
(3 1.13918e-15 0)
(3 1.30546e-15 0)
(3 1.6159e-16 0)
(3 -3.47424e-16 0)
(3 -1.08024e-16 0)
(3 -5.42146e-17 0)
(3 4.07995e-16 0)
(3 9.42891e-16 0)
(3 3.10854e-17 0)
(3 4.40048e-16 0)
(3 4.32262e-16 0)
(3 3.65809e-16 0)
(3 -2.10108e-16 0)
(3 -6.17134e-16 0)
(3 -6.52597e-16 0)
(3 -1.04594e-16 0)
(3 -2.3213e-16 0)
(3 5.00058e-16 0)
(3 7.7718e-16 0)
(3 1.18267e-15 0)
(3 7.75858e-16 0)
(3 7.07284e-16 0)
(3 3.29145e-16 0)
(3 3.75011e-16 0)
(3 5.49518e-16 0)
(3 -3.31621e-16 0)
(3 -9.44739e-16 0)
(3 -8.94131e-16 0)
(3 -5.52938e-16 0)
(3 -2.21672e-17 0)
(3 8.83304e-17 0)
(3 7.64996e-17 0)
(3 -1.3246e-16 0)
(3 5.35639e-16 0)
(3 1.33543e-15 0)
(3 1.38949e-15 0)
(3 -3.02136e-16 0)
(3 -1.11719e-15 0)
(3 -4.16502e-16 0)
(3 -5.99185e-16 0)
(3 -6.52879e-16 0)
(3 -8.41086e-16 0)
(3 -3.95266e-16 0)
(3 -7.19954e-17 0)
(3 5.53948e-16 0)
(3 7.68586e-16 0)
(3 -3.50051e-17 0)
(3 6.08662e-18 0)
(3 -5.97878e-16 0)
(3 -1.11618e-15 0)
(3 -9.71624e-16 0)
(3 -7.17143e-16 0)
(3 -9.43685e-16 0)
(3 -6.96814e-16 0)
(3 -4.2451e-16 0)
(3 -6.96723e-16 0)
(3 3.1426e-17 0)
(3 2.13324e-16 0)
(3 2.02199e-16 0)
(3 -4.33363e-16 0)
(3 -4.9133e-16 0)
(3 -5.28284e-16 0)
(3 -4.5392e-16 0)
(3 -8.08993e-17 0)
(3 -4.29062e-17 0)
(3 -2.80165e-16 0)
(3 4.37345e-16 0)
(3 2.84077e-16 0)
(3 3.56989e-18 0)
(3 3.65773e-17 0)
(3 2.61173e-17 0)
(3 -3.07159e-16 0)
(3 -6.355e-16 0)
(3 -1.09377e-15 0)
(3 -8.69037e-16 0)
(3 -9.56303e-16 0)
(3 -8.1933e-16 0)
(3 -3.88111e-18 0)
(3 1.60423e-16 0)
(3 7.82264e-18 0)
(3 2.67681e-17 0)
(3 -9.45599e-17 0)
(3 -1.1787e-15 0)
(3 -2.15698e-15 0)
(3 -1.75278e-15 0)
(3 -1.03295e-15 0)
(3 -7.64565e-16 0)
(3 4.05637e-16 0)
(3 5.90835e-16 0)
(3 3.65282e-16 0)
(3 1.98431e-16 0)
(3 -2.98169e-17 0)
(3 1.6548e-17 0)
(3 4.63669e-16 0)
(3 8.05449e-16 0)
(3 1.07339e-16 0)
(3 -3.93018e-16 0)
(3 -9.16698e-16 0)
(3 -1.11889e-15 0)
(3 -1.0127e-15 0)
(3 1.58014e-16 0)
(3 1.37526e-15 0)
(3 9.96365e-16 0)
(3 -6.74454e-17 0)
(3 -4.44753e-17 0)
(3 -3.28708e-16 0)
(3 -7.24414e-16 0)
(3 -7.33684e-16 0)
(3 -5.39184e-16 0)
(3 -4.60118e-16 0)
(3 -1.33797e-16 0)
(3 5.28664e-16 0)
(3 3.74622e-16 0)
(3 -8.63661e-17 0)
(3 -6.56131e-16 0)
(3 -8.20296e-16 0)
(3 2.3606e-16 0)
(3 9.9418e-16 0)
(3 1.34065e-15 0)
(3 -4.64705e-17 0)
(3 -5.00041e-16 0)
(3 -1.06237e-15 0)
(3 -1.4096e-15 0)
(3 -1.19424e-15 0)
(3 1.31587e-16 0)
(3 8.66309e-16 0)
(3 1.04969e-15 0)
(3 3.79641e-16 0)
(1.58338 1.04337 0)
(2.39432 1.10443 0)
(1.31131 0.77223 0)
(0.4188 0.368178 0)
(0.278998 0.129521 0)
(0.211301 0.0425778 0)
(0.160735 0.0485042 0)
(0.101139 0.0515913 0)
(0.0462282 0.0408115 0)
(0.0134041 0.0192586 0)
(-0.00282481 0.00653665 0)
(-0.00175608 2.56443e-05 0)
(1.70101 0.84748 0)
(2.42145 0.508604 0)
(1.80916 0.351698 0)
(0.9664 0.272815 0)
(0.712691 0.102741 0)
(0.503099 0.0573437 0)
(0.346723 0.0765483 0)
(0.231041 0.0895824 0)
(0.144628 0.0810864 0)
(0.0823674 0.049844 0)
(0.0401286 0.0281449 0)
(0.017511 0.011049 0)
(1.61676 0.866605 0)
(2.16778 0.627909 0)
(2.06374 0.544401 0)
(1.53069 0.654243 0)
(1.19953 0.542363 0)
(0.937486 0.435223 0)
(0.667178 0.367654 0)
(0.488644 0.288046 0)
(0.359208 0.223401 0)
(0.263816 0.141066 0)
(0.18188 0.0679062 0)
(0.102698 0.0791412 0)
(1.57993 0.814765 0)
(1.93165 0.681109 0)
(2.11589 0.544398 0)
(1.944 0.625123 0)
(1.55845 0.681816 0)
(1.42074 0.594777 0)
(1.20492 0.47024 0)
(1.00283 0.348042 0)
(0.812041 0.274906 0)
(0.647805 0.20213 0)
(0.445831 0.190769 0)
(0.249319 0.369068 0)
(1.56006 0.806626 0)
(1.80879 0.719976 0)
(2.04829 0.585585 0)
(2.02399 0.592539 0)
(1.85366 0.680645 0)
(1.61347 0.720274 0)
(1.50178 0.680113 0)
(1.39255 0.61111 0)
(1.22634 0.549021 0)
(1.04841 0.469523 0)
(0.876698 0.436973 0)
(0.851659 0.599715 0)
(1.57725 0.791121 0)
(1.7656 0.739114 0)
(1.98072 0.632193 0)
(2.05813 0.58271 0)
(1.95889 0.625034 0)
(1.79053 0.724694 0)
(1.62656 0.726767 0)
(1.61349 0.693897 0)
(1.54178 0.652799 0)
(1.43608 0.603889 0)
(1.35455 0.529531 0)
(1.33374 0.502609 0)
(1.57406 0.827898 0)
(1.71572 0.785182 0)
(1.89589 0.700119 0)
(2.03188 0.617691 0)
(2.01381 0.623503 0)
(1.89244 0.682671 0)
(1.70062 0.745982 0)
(1.68225 0.742797 0)
(1.66912 0.721787 0)
(1.63118 0.703911 0)
(1.61917 0.655376 0)
(1.61251 0.619312 0)
(1.59994 0.828792 0)
(1.71456 0.788532 0)
(1.85131 0.733243 0)
(2.0072 0.639659 0)
(2.04006 0.613169 0)
(1.98359 0.642602 0)
(1.81399 0.723376 0)
(1.70767 0.748776 0)
(1.70562 0.744992 0)
(1.6975 0.739758 0)
(1.71545 0.71718 0)
(1.74369 0.683319 0)
(1.61785 0.869537 0)
(1.71316 0.827393 0)
(1.81139 0.782936 0)
(1.9573 0.697322 0)
(2.03729 0.643602 0)
(2.01459 0.650284 0)
(1.90317 0.70284 0)
(1.7696 0.763949 0)
(1.73045 0.758718 0)
(1.72472 0.754155 0)
(1.74253 0.74087 0)
(1.77721 0.71945 0)
(1.65636 0.894195 0)
(1.73385 0.855492 0)
(1.82656 0.800247 0)
(1.92106 0.74917 0)
(2.04443 0.663012 0)
(2.05126 0.646656 0)
(2.00222 0.671887 0)
(1.87808 0.741693 0)
(1.76579 0.770463 0)
(1.75125 0.768595 0)
(1.75965 0.756458 0)
(1.78409 0.742248 0)
(1.69397 0.927677 0)
(1.74705 0.899002 0)
(1.82795 0.853018 0)
(1.91452 0.794588 0)
(2.01405 0.730992 0)
(2.07901 0.673062 0)
(2.042 0.683848 0)
(1.95762 0.723659 0)
(1.83725 0.7867 0)
(1.77739 0.783219 0)
(1.77597 0.774043 0)
(1.79393 0.757814 0)
(1.88164 0.926032 0)
(1.76253 0.92642 0)
(1.81966 0.896552 0)
(1.91407 0.836374 0)
(1.98774 0.78585 0)
(2.09904 0.701802 0)
(2.08881 0.689828 0)
(2.04235 0.707297 0)
(1.9516 0.766866 0)
(1.82017 0.79508 0)
(1.80884 0.790215 0)
(1.81298 0.776181 0)
(2.43038 0.652746 0)
(1.87184 0.931919 0)
(1.83904 0.928975 0)
(1.89356 0.890147 0)
(1.98065 0.823635 0)
(2.06787 0.765739 0)
(2.13117 0.706626 0)
(2.09107 0.717698 0)
(2.03027 0.745202 0)
(1.91456 0.805779 0)
(1.84773 0.808207 0)
(1.83996 0.798119 0)
(2.92194 0.164957 0)
(2.3233 0.719668 0)
(1.92117 0.927224 0)
(1.90607 0.927178 0)
(1.96675 0.878052 0)
(2.03712 0.822134 0)
(2.14567 0.737848 0)
(2.13652 0.727813 0)
(2.09942 0.740442 0)
(2.02605 0.784979 0)
(1.90236 0.825447 0)
(1.88376 0.821898 0)
(2.99756 0.00985682 0)
(2.84812 0.251917 0)
(2.28341 0.755582 0)
(1.97499 0.92472 0)
(1.96668 0.923769 0)
(2.02601 0.871437 0)
(2.10248 0.812292 0)
(2.17953 0.743013 0)
(2.14399 0.747033 0)
(2.10492 0.767734 0)
(2.01713 0.819736 0)
(1.92175 0.839459 0)
(2.99996 0.000113041 0)
(2.9935 0.0190825 0)
(2.7886 0.315395 0)
(2.2794 0.771585 0)
(2.02622 0.919117 0)
(2.02127 0.917386 0)
(2.07615 0.868743 0)
(2.1701 0.795694 0)
(2.19115 0.75487 0)
(2.147 0.773197 0)
(2.08814 0.799228 0)
(1.99664 0.847478 0)
(3 2.18606e-07 0)
(2.99988 0.000347636 0)
(2.9883 0.0281151 0)
(2.75066 0.355304 0)
(2.29405 0.773778 0)
(2.07302 0.910826 0)
(2.07074 0.907958 0)
(2.1233 0.865248 0)
(2.21074 0.786811 0)
(2.19595 0.778543 0)
(2.16228 0.791512 0)
(2.10145 0.829461 0)
(3 1.39508e-10 0)
(3 8.96542e-07 0)
(2.99977 0.000674372 0)
(2.9832 0.0356552 0)
(2.7357 0.371635 0)
(2.31932 0.767309 0)
(2.11713 0.899422 0)
(2.11768 0.895847 0)
(2.16266 0.860382 0)
(2.23389 0.792367 0)
(2.20477 0.794799 0)
(2.1706 0.811771 0)
(3 1.34258e-14 0)
(3 8.21935e-10 0)
(3 2.14641e-06 0)
(2.99964 0.000992233 0)
(2.97976 0.0402476 0)
(2.74005 0.368087 0)
(2.35146 0.75341 0)
(2.1593 0.885896 0)
(2.16171 0.882343 0)
(2.19988 0.853267 0)
(2.24178 0.805378 0)
(2.20736 0.813532 0)
(3 4.08908e-16 0)
(3 1.05944e-13 0)
(3 2.42091e-09 0)
(3 3.70229e-06 0)
(2.99955 0.00118647 0)
(2.97886 0.0410355 0)
(2.75767 0.349474 0)
(2.38988 0.730659 0)
(2.20015 0.870893 0)
(2.20099 0.869336 0)
(2.23316 0.844396 0)
(2.23691 0.824978 0)
(3 6.22627e-16 0)
(3 2.25088e-16 0)
(3 3.86267e-13 0)
(3 4.80698e-09 0)
(3 4.75252e-06 0)
(2.99951 0.00124281 0)
(2.98124 0.0368156 0)
(2.77755 0.325259 0)
(2.43874 0.695035 0)
(2.24031 0.853444 0)
(2.23873 0.854932 0)
(2.25015 0.845367 0)
(3 7.92763e-16 0)
(3 2.03118e-16 0)
(3 -9.48249e-16 0)
(3 9.40127e-13 0)
(3 6.27329e-09 0)
(3 5.49904e-06 0)
(2.9996 0.00101582 0)
(2.9821 0.0336405 0)
(2.82309 0.276088 0)
(2.46257 0.671088 0)
(2.30631 0.807907 0)
(2.27228 0.853317 0)
(3 5.75197e-16 0)
(3 -8.93421e-17 0)
(3 -2.13691e-16 0)
(3 -6.87234e-16 0)
(3 1.41821e-12 0)
(3 7.01713e-09 0)
(3 4.42927e-06 0)
(2.99962 0.00088323 0)
(2.98905 0.0234099 0)
(2.82645 0.257378 0)
(2.56228 0.587032 0)
(2.3511 0.789035 0)
(3 5.71851e-18 0)
(3 -1.58674e-16 0)
(3 -2.53378e-17 0)
(3 -3.18263e-16 0)
(3 3.13603e-16 0)
(3 1.88092e-12 0)
(3 4.71963e-09 0)
(3 4.14498e-06 0)
(2.99979 0.00051886 0)
(2.98933 0.0197139 0)
(2.87979 0.202039 0)
(2.64275 0.523005 0)
(3 1.61417e-16 0)
(3 6.33292e-17 0)
(3 -5.54452e-16 0)
(3 -6.83659e-16 0)
(3 -1.17568e-15 0)
(3 -6.12989e-16 0)
(3 1.19526e-12 0)
(3 4.361e-09 0)
(3 2.19384e-06 0)
(2.99984 0.000355427 0)
(2.99275 0.0151425 0)
(2.9364 0.129293 0)
(3 -2.19861e-15 0)
(3 -1.86497e-15 0)
(3 -1.13478e-15 0)
(3 -1.18991e-15 0)
(3 -1.53846e-15 0)
(3 -2.09576e-15 0)
(3 -6.55796e-16 0)
(3 1.11168e-12 0)
(3 1.94788e-09 0)
(3 1.53917e-06 0)
(2.99991 0.00018799 0)
(2.99613 0.00967632 0)
(3 -3.08231e-15 0)
(3 -3.47218e-15 0)
(3 -2.54916e-15 0)
(3 -1.34657e-15 0)
(3 -5.15934e-16 0)
(3 -9.02769e-16 0)
(3 -1.17723e-15 0)
(3 -5.66307e-16 0)
(3 4.30222e-13 0)
(3 1.24871e-09 0)
(3 6.32024e-07 0)
(2.99995 0.000109103 0)
(3 -9.04505e-16 0)
(3 -6.97044e-16 0)
(3 -7.91075e-16 0)
(3 -2.06028e-16 0)
(3 7.98689e-16 0)
(3 1.86026e-15 0)
(3 1.60815e-15 0)
(3 6.42223e-16 0)
(3 1.88798e-16 0)
(3 2.48092e-13 0)
(3 4.03226e-10 0)
(3 2.9765e-07 0)
(3 7.14592e-16 0)
(3 1.23781e-15 0)
(3 9.55037e-16 0)
(3 3.9106e-16 0)
(3 5.65559e-16 0)
(3 1.28223e-15 0)
(3 1.81633e-15 0)
(3 1.63637e-15 0)
(3 3.28491e-16 0)
(3 5.88436e-16 0)
(3 7.37287e-14 0)
(3 1.43832e-10 0)
(3 9.04412e-16 0)
(3 1.29063e-15 0)
(3 1.03059e-15 0)
(3 1.13166e-15 0)
(3 1.09187e-15 0)
(3 1.7008e-15 0)
(3 1.9629e-15 0)
(3 2.05968e-15 0)
(3 2.06163e-15 0)
(3 1.84197e-15 0)
(3 5.89404e-16 0)
(3 1.58328e-14 0)
(3 8.53899e-16 0)
(3 6.47513e-16 0)
(3 7.19711e-16 0)
(3 1.00346e-15 0)
(3 6.01783e-16 0)
(3 1.74475e-15 0)
(3 2.23752e-15 0)
(3 2.25492e-15 0)
(3 2.37749e-15 0)
(3 4.85021e-16 0)
(3 -2.78563e-16 0)
(3 -4.17414e-16 0)
(3 -1.88235e-16 0)
(3 -8.91171e-16 0)
(3 -1.26492e-15 0)
(3 -1.38743e-15 0)
(3 -1.35914e-15 0)
(3 -9.23884e-16 0)
(3 1.16624e-16 0)
(3 1.20882e-15 0)
(3 6.10864e-16 0)
(3 -1.42028e-15 0)
(3 -1.63612e-15 0)
(3 -8.28145e-16 0)
(3 -1.09622e-15 0)
(3 -1.77389e-15 0)
(3 -2.87789e-15 0)
(3 -3.09431e-15 0)
(3 -2.07895e-15 0)
(3 -1.54459e-15 0)
(3 -1.54242e-15 0)
(3 -2.36837e-16 0)
(3 -2.36775e-16 0)
(3 -3.33312e-16 0)
(3 -4.86694e-16 0)
(3 -3.45154e-16 0)
(3 -8.97973e-16 0)
(3 -1.37289e-15 0)
(3 -1.54463e-15 0)
(3 -1.37061e-15 0)
(3 -9.85997e-16 0)
(3 -1.06128e-15 0)
(3 -9.28606e-16 0)
(3 -9.678e-16 0)
(3 -1.0077e-15 0)
(3 -3.33907e-16 0)
(3 -2.98936e-16 0)
(3 -3.38871e-16 0)
(3 -5.68841e-16 0)
(3 -1.0417e-15 0)
(3 -7.00012e-16 0)
(3 -3.77521e-16 0)
(3 -8.62539e-16 0)
(3 -9.71504e-16 0)
(3 -4.3561e-16 0)
(3 -1.03981e-17 0)
(3 -1.9046e-16 0)
(3 -8.88652e-16 0)
(3 -5.77452e-16 0)
(3 -7.59722e-16 0)
(3 -1.14757e-16 0)
(3 -2.92274e-16 0)
(3 -2.1054e-16 0)
(3 -1.85054e-16 0)
(3 -5.82145e-16 0)
(3 -5.37857e-16 0)
(3 -2.76023e-16 0)
(3 4.07314e-16 0)
(3 3.57065e-16 0)
(3 -4.58313e-16 0)
(3 -4.48372e-16 0)
(3 -1.86734e-16 0)
(1.64117 0.552796 0)
(2.00695 0.379088 0)
(2.03516 0.167065 0)
(2.03781 0.022986 0)
(2.02757 -0.0647898 0)
(2.04083 -0.0753283 0)
(2.07113 -0.0312895 0)
(2.08745 -0.0124874 0)
(2.10029 -0.00900475 0)
(2.11096 -0.0143285 0)
(2.13024 -0.0148462 0)
(2.14157 -0.000499567 0)
(2.14469 0.01043 0)
(2.14827 0.0101105 0)
(2.1557 0.00554415 0)
(2.16842 0.000554851 0)
(2.17663 -0.000185824 0)
(2.18077 -0.000988711 0)
(2.18514 -0.0030203 0)
(2.18825 -0.00438102 0)
(2.19238 -0.00481536 0)
(2.19646 -0.00333737 0)
(2.20062 0.00112554 0)
(2.20544 0.00436913 0)
(2.209 0.00534886 0)
(2.21565 0.00462773 0)
(2.22414 0.0016926 0)
(2.22838 0.000141436 0)
(2.23436 -0.00119798 0)
(2.24011 -0.00126105 0)
(2.2441 -0.000706248 0)
(2.24616 -3.92655e-05 0)
(2.2478 0.00103864 0)
(2.25063 0.00263357 0)
(2.25435 0.00389844 0)
(2.2575 0.0042815 0)
(2.26233 0.00355394 0)
(2.2699 0.000973535 0)
(2.27424 -0.000592989 0)
(2.27956 -0.0010911 0)
(2.28426 -0.000833512 0)
(2.28634 0.000245612 0)
(2.28701 0.00168366 0)
(2.28906 0.0022847 0)
(2.29174 0.00244353 0)
(2.2952 0.00233532 0)
(2.30277 0.00158927 0)
(2.30819 0.000993339 0)
(2.31347 0.00128538 0)
(2.32111 0.00098398 0)
(2.30705 -0.00947185 0)
(1.58191 -0.0836762 0)
(0.953264 -0.0737304 0)
(0.957041 -0.0693516 0)
(1.01628 -0.0702253 0)
(1.08991 -0.0727168 0)
(1.18503 -0.0562395 0)
(1.25851 -0.0365872 0)
(1.30523 -0.0303315 0)
(1.34251 -0.0288566 0)
(1.38047 -0.0287352 0)
(1.4204 -0.0282281 0)
(1.45872 -0.0252172 0)
(1.49267 -0.0186583 0)
(1.52424 -0.0123915 0)
(1.55664 -0.00848543 0)
(1.59403 -0.00821083 0)
(1.6379 -0.0126292 0)
(1.669 -0.0164705 0)
(1.69302 -0.0170555 0)
(1.71297 -0.0151341 0)
(1.72711 -0.00920909 0)
(1.74398 -0.00165316 0)
(1.76557 0.00235559 0)
(1.79494 0.00531713 0)
(1.83495 0.00437019 0)
(1.8652 -0.00130456 0)
(1.88902 -0.00300615 0)
(1.91184 -0.0023069 0)
(1.93081 0.000435954 0)
(1.94493 0.004644 0)
(1.95909 0.00873494 0)
(1.97503 0.0110038 0)
(2.00361 0.0100005 0)
(1.74464 0.283682 0)
(2.02081 0.00220678 0)
(2.14511 -0.125471 0)
(2.14138 -0.17806 0)
(2.18044 -0.178614 0)
(2.19073 -0.134593 0)
(2.18612 -0.035705 0)
(2.16099 0.0385964 0)
(2.15798 0.0469724 0)
(2.1557 0.0329604 0)
(2.16725 0.00442064 0)
(2.17501 -0.0036704 0)
(2.18271 -0.000480075 0)
(2.19152 0.00192944 0)
(2.2023 0.000981733 0)
(2.20916 -0.0010907 0)
(2.21385 0.000387584 0)
(2.2172 0.00140988 0)
(2.22118 0.000557633 0)
(2.22497 -0.00299297 0)
(2.22845 -0.00826647 0)
(2.23101 -0.0109104 0)
(2.23427 -0.00933609 0)
(2.2392 -0.00127978 0)
(2.24467 0.00822787 0)
(2.2488 0.0137131 0)
(2.25249 0.0141003 0)
(2.25492 0.0101269 0)
(2.25813 0.00297763 0)
(2.26312 -0.00255922 0)
(2.26727 -0.00576298 0)
(2.27069 -0.00675681 0)