/*--------------------------------*- C++ -*----------------------------------*\
  =========                 |
  \\      /  F ield         | OpenFOAM: The Open Source CFD Toolbox
   \\    /   O peration     | Website:  https://openfoam.org
    \\  /    A nd           | Version:  7
     \\/     M anipulation  |
\*---------------------------------------------------------------------------*/
FoamFile
{
    version     2.0;
    format      ascii;
    class       volScalarField;
    location    "1.8";
    object      rho;
}
// * * * * * * * * * * * * * * * * * * * * * * * * * * * * * * * * * * * * * //

dimensions      [1 -3 0 0 0 0 0];

internalField   nonuniform List<scalar> 
16512
(
2.21804
2.22003
2.23492
2.25141
2.25478
2.25647
2.29504
2.50765
2.92495
3.19912
3.35592
3.37776
3.39624
3.44237
3.47792
3.48036
3.46143
3.42369
3.36321
3.29455
3.25725
3.24374
3.24288
3.25647
3.27574
3.27673
3.26446
3.24094
3.20715
3.1599
3.12336
3.10411
3.09853
3.09648
3.0993
3.1013
3.09462
3.08112
3.0588
3.02102
2.97548
2.94955
2.94394
2.94451
2.958
2.96968
2.9647
2.95413
2.93613
2.90528
2.85438
2.81509
2.79742
2.79253
2.79483
2.81128
2.82395
2.81991
2.8056
2.7797
2.739
2.69883
2.67788
2.66611
2.66072
2.66019
2.66736
2.67308
2.66967
2.65538
2.63074
2.60349
2.5786
2.5571
2.53427
2.51033
2.49956
2.49821
2.50518
2.52199
2.53605
2.52961
2.55485
2.69945
3.05778
3.53509
3.93189
4.22628
4.27064
4.26041
4.25463
4.24289
4.21918
4.1844
4.13905
4.10784
4.09781
4.09279
4.09332
4.08403
4.0703
4.05092
4.01258
3.95799
3.92173
3.9095
3.90246
3.9046
3.90649
3.89515
3.88194
3.86525
3.83234
3.78384
3.74495
3.73215
3.7251
3.72232
3.71875
3.711
3.70159
3.69016
3.66524
3.61967
3.57952
3.56751
3.5602
3.55912
3.56486
3.55917
3.54916
3.53832
3.51813
3.47622
3.42728
3.4038
3.39699
3.39289
3.39677
3.40285
3.39634
3.38717
3.37578
3.3512
3.30837
3.26743
3.25359
3.24868
3.24764
3.25349
3.2515
3.24326
3.23518
3.22566
3.2099
3.17904
3.15278
3.15845
3.19995
3.31721
3.50131
3.67694
3.80966
3.82544
3.82078
3.81
3.78725
3.77114
3.7633
3.76562
3.76278
3.75125
3.73851
3.71908
3.68762
3.65806
3.64686
3.63949
3.63719
3.63554
3.627
3.61706
3.60455
3.58418
3.55052
3.51299
3.49678
3.48846
3.4807
3.47341
3.46521
3.45622
3.44664
3.43571
3.42219
3.40582
3.38926
3.37608
3.36592
3.35662
3.3468
3.33513
3.31873
3.29398
3.27442
3.26765
3.26243
3.2578
3.25156
3.2437
3.23427
3.22219
3.20458
3.17738
3.14812
3.13616
3.13079
3.12665
3.12477
3.12194
3.11645
3.11037
3.10321
3.08984
3.06759
3.04537
3.03839
3.03419
3.02819
3.02033
3.01029
2.99695
2.98053
2.96232
2.94656
2.93941
2.93462
2.93043
2.9256
2.91935
2.9109
2.89453
2.87046
2.85599
2.84941
2.84478
2.8413
2.83924
2.83615
2.8306
2.82452
2.81909
2.8092
2.78826
2.76337
2.74356
2.72606
2.71084
2.24191
2.2581
2.27621
2.27613
2.26704
2.24809
2.22473
2.2551
2.46322
2.82141
3.19335
3.37509
3.47409
3.50745
3.50727
3.49852
3.46298
3.39648
3.32157
3.28465
3.27374
3.27567
3.29305
3.30595
3.30129
3.28524
3.26141
3.22804
3.18696
3.15708
3.14069
3.1353
3.13263
3.13196
3.1298
3.12188
3.10659
3.0839
3.04936
3.00783
2.98113
2.97516
2.97452
2.98361
2.99076
2.98466
2.97439
2.95794
2.93013
2.88231
2.84408
2.82781
2.82388
2.82768
2.84481
2.85342
2.84743
2.83203
2.80506
2.76088
2.71965
2.70016
2.69158
2.68838
2.69237
2.70384
2.70733
2.70105
2.6831
2.65481
2.62342
2.59897
2.58044
2.56066
2.54021
2.52942
2.52805
2.53199
2.54984
2.5578
2.575
2.68301
3.0002
3.50876
3.92378
4.19705
4.33118
4.3295
4.30047
4.26672
4.24963
4.23885
4.22695
4.20799
4.17183
4.14472
4.13081
4.11995
4.10902
4.0951
4.07923
4.05194
4.00425
3.95821
3.94099
3.93135
3.92992
3.93757
3.93105
3.91854
3.90271
3.87231
3.82282
3.77716
3.76059
3.75305
3.75214
3.75426
3.74676
3.73654
3.72502
3.70181
3.65716
3.61347
3.59747
3.5904
3.58801
3.59458
3.59235
3.58219
3.57161
3.55444
3.51647
3.46493
3.43345
3.42567
3.42114
3.42397
3.43122
3.4256
3.41623
3.40538
3.38424
3.34339
3.2991
3.28028
3.27494
3.27247
3.27681
3.27692
3.2691
3.26092
3.25228
3.2396
3.21397
3.18487
3.19107
3.24574
3.37615
3.58785
3.74558
3.8337
3.87766
3.87426
3.8465
3.8214
3.80992
3.80323
3.80117
3.79563
3.7842
3.7724
3.75727
3.72873
3.692
3.67498
3.66598
3.66003
3.65916
3.65456
3.6455
3.63496
3.62008
3.59482
3.55465
3.52511
3.51362
3.50466
3.49685
3.4904
3.48275
3.47396
3.46445
3.45348
3.43951
3.42165
3.40292
3.38861
3.37831
3.36901
3.35897
3.34605
3.3264
3.30256
3.29071
3.28439
3.27919
3.27374
3.26702
3.2593
3.24922
3.234
3.20949
3.17977
3.16229
3.15425
3.1486
3.14433
3.13774
3.12902
3.12072
3.11453
3.1044
3.08645
3.06574
3.05826
3.05483
3.05182
3.04649
3.03915
3.02872
3.01163
2.98619
2.96285
2.95308
2.94766
2.9424
2.93767
2.93311
2.92734
2.91969
2.90564
2.88662
2.87414
2.86567
2.85839
2.85242
2.84706
2.84276
2.83958
2.83337
2.82088
2.80491
2.7903
2.77913
2.7707
2.76166
2.74903
2.27791
2.29448
2.29448
2.28656
2.26939
2.2374
2.21247
2.21268
2.25842
2.46607
2.88095
3.29549
3.48001
3.51852
3.52051
3.5037
3.43595
3.35509
3.31252
3.30222
3.30896
3.33365
3.34176
3.32923
3.30563
3.27833
3.24483
3.21061
3.1877
3.1761
3.17307
3.17074
3.16771
3.16175
3.15082
3.13291
3.10992
3.07754
3.03857
3.01132
3.00531
3.00427
3.00987
3.01224
3.00467
2.99426
2.97878
2.95318
2.90988
2.87324
2.85729
2.85417
2.85894
2.87502
2.88002
2.8727
2.85725
2.83052
2.78511
2.74283
2.72361
2.71736
2.71601
2.72441
2.73844
2.74009
2.73177
2.71127
2.67928
2.64333
2.6201
2.60348
2.5874
2.57094
2.56268
2.56045
2.56526
2.57706
2.59349
2.67227
2.95802
3.43882
3.92766
4.23327
4.33764
4.35464
4.35284
4.33545
4.30299
4.28357
4.26987
4.25779
4.24491
4.2141
4.17772
4.16025
4.14732
4.13426
4.11973
4.10448
4.08369
4.04612
3.99668
3.97151
3.96092
3.95695
3.96643
3.967
3.95571
3.94133
3.91273
3.86241
3.81273
3.79165
3.78327
3.78088
3.78744
3.78331
3.77257
3.76127
3.74025
3.6972
3.64724
3.62391
3.61681
3.61405
3.62251
3.62565
3.61606
3.60536
3.59014
3.55556
3.50374
3.46572
3.45581
3.45038
3.45124
3.45903
3.45503
3.44559
3.43538
3.41819
3.38129
3.33369
3.30722
3.30081
3.29706
3.29977
3.30209
3.29469
3.28649
3.27829
3.26845
3.24999
3.22055
3.22689
3.29505
3.4459
3.64444
3.81113
3.90077
3.92517
3.91794
3.89033
3.85109
3.82908
3.82042
3.8215
3.83222
3.82399
3.81064
3.79427
3.76534
3.72602
3.70149
3.69192
3.68528
3.6843
3.68312
3.67495
3.66484
3.65196
3.63087
3.59403
3.55862
3.54288
3.53354
3.52486
3.51787
3.51147
3.50338
3.49431
3.48403
3.47074
3.45283
3.43075
3.41188
3.39938
3.38935
3.37976
3.36955
3.35728
3.3413
3.32431
3.31152
3.3028
3.2952
3.28742
3.27919
3.27047
3.26003
3.24147
3.21347
3.19524
3.18829
3.18133
3.1731
3.16308
3.1519
3.14104
3.1305
3.11705
3.09928
3.08064
3.07295
3.06953
3.06833
3.06724
3.06225
3.05523
3.04429
3.02249
2.99144
2.97158
2.96263
2.95573
2.94924
2.94288
2.93765
2.933
2.92626
2.91428
2.90011
2.89168
2.88532
2.8782
2.86951
2.85957
2.84913
2.83918
2.82968
2.81699
2.80234
2.79475
2.79111
2.78811
2.78403
2.777
2.31156
2.31064
2.3027
2.28756
2.26085
2.22912
2.21606
2.21572
2.22602
2.29722
2.54305
3.0444
3.36783
3.50702
3.51396
3.47959
3.39687
3.34662
3.33356
3.34314
3.37498
3.38207
3.36237
3.33025
3.29557
3.26144
3.23525
3.21644
3.20831
3.20817
3.20775
3.20254
3.19569
3.18261
3.16123
3.13624
3.10593
3.07054
3.04309
3.03648
3.03485
3.0366
3.03551
3.02715
3.01653
3.00148
2.97675
2.93748
2.90276
2.88677
2.88399
2.88904
2.90287
2.90438
2.89626
2.88114
2.85522
2.81065
2.7682
2.74855
2.74343
2.74345
2.75521
2.77036
2.77005
2.75991
2.73859
2.70484
2.66478
2.64097
2.62666
2.61476
2.60519
2.59911
2.59963
2.6037
2.61326
2.66929
2.90554
3.38721
3.8969
4.22788
4.42982
4.42154
4.39489
4.38067
4.35968
4.3483
4.33981
4.33019
4.31585
4.29018
4.24672
4.20513
4.18543
4.17515
4.17088
4.15972
4.1449
4.12671
4.09255
4.04089
4.00758
3.9968
3.99126
3.99959
4.0051
3.99421
3.98003
3.95292
3.90311
3.84871
3.82255
3.81346
3.81018
3.81941
3.8219
3.8115
3.79943
3.77796
3.73423
3.68206
3.65385
3.64608
3.64243
3.64958
3.65805
3.65033
3.63956
3.62526
3.59354
3.54155
3.4977
3.48402
3.47827
3.47759
3.48581
3.48452
3.47527
3.46567
3.45114
3.41868
3.37036
3.33663
3.32828
3.32338
3.32372
3.32762
3.32161
3.31299
3.30527
3.29641
3.2811
3.25524
3.26744
3.34512
3.51723
3.70999
3.86217
3.95704
3.9726
3.96147
3.92555
3.8809
3.85716
3.84771
3.84582
3.85861
3.85959
3.84814
3.83384
3.8079
3.76331
3.72706
3.71586
3.70846
3.70631
3.71065
3.70591
3.69598
3.68397
3.66522
3.63065
3.59146
3.56992
3.56083
3.55279
3.54646
3.54177
3.53523
3.52671
3.51698
3.50472
3.48726
3.46084
3.43672
3.42273
3.41227
3.40198
3.39124
3.37971
3.36762
3.35559
3.34331
3.33184
3.32228
3.313
3.30315
3.29254
3.28006
3.26285
3.24013
3.22222
3.21553
3.20983
3.20362
3.19574
3.18578
3.17343
3.1581
3.1377
3.11303
3.09307
3.08449
3.08076
3.07748
3.07707
3.07647
3.07156
3.0646
3.05346
3.03279
3.00937
2.99441
2.9822
2.9695
2.95811
2.94866
2.9394
2.92956
2.92033
2.91299
2.90901
2.90468
2.89912
2.8922
2.88365
2.87293
2.86046
2.84606
2.82994
2.81457
2.8066
2.80325
2.80178
2.80243
2.80022
2.79475
2.32638
2.31766
2.30247
2.27785
2.25075
2.23521
2.23214
2.23197
2.24038
2.2631
2.33851
2.61996
3.04951
3.35097
3.45526
3.4266
3.37873
3.3686
3.38954
3.42664
3.42949
3.40141
3.3589
3.31222
3.2759
3.2581
3.24518
3.23964
3.24297
3.24478
3.23891
3.22829
3.21053
3.18892
3.16392
3.13671
3.10423
3.07496
3.0677
3.06571
3.0651
3.06111
3.0514
3.0404
3.02655
3.00261
2.96642
2.93289
2.91685
2.91406
2.91831
2.92875
2.92748
2.9191
2.90446
2.87987
2.83775
2.79555
2.77485
2.77023
2.77109
2.78413
2.79836
2.79652
2.78542
2.76432
2.72969
2.68797
2.66399
2.65145
2.64515
2.63971
2.64047
2.64406
2.64448
2.68041
2.86989
3.31629
3.85725
4.24069
4.46738
4.50441
4.47574
4.43185
4.40505
4.3932
4.39516
4.40111
4.39246
4.37797
4.34309
4.28593
4.23665
4.21451
4.20514
4.20586
4.20943
4.19666
4.17948
4.14697
4.09073
4.04628
4.03319
4.02591
4.03227
4.04397
4.03442
4.01886
3.99136
3.94113
3.88396
3.85462
3.84502
3.84108
3.85066
3.85968
3.85054
3.83792
3.81738
3.77467
3.71785
3.68181
3.67245
3.66812
3.67492
3.68853
3.68392
3.67341
3.66032
3.63199
3.5816
3.53104
3.51138
3.50507
3.50289
3.51096
3.51383
3.50526
3.49598
3.48379
3.45694
3.40909
3.36718
3.35492
3.34915
3.34747
3.35231
3.3488
3.34052
3.33233
3.32459
3.31471
3.2937
3.30856
3.40249
3.58377
3.77973
3.91649
3.99246
4.00294
3.9935
3.96371
3.91888
3.8858
3.87575
3.87457
3.89007
3.8956
3.88446
3.86991
3.8456
3.80261
3.7589
3.741
3.73263
3.72819
3.7327
3.73377
3.72497
3.71418
3.69921
3.66903
3.6264
3.59668
3.58734
3.57967
3.57435
3.57164
3.5667
3.55857
3.5492
3.53738
3.51881
3.48877
3.46064
3.4461
3.4371
3.42799
3.41841
3.40825
3.39692
3.38367
3.3685
3.35408
3.34371
3.33571
3.32744
3.31766
3.30543
3.28925
3.26603
3.24577
3.23855
3.23296
3.2278
3.22154
3.21416
3.20542
3.19326
3.17402
3.14517
3.11465
3.09931
3.09422
3.0907
3.08914
3.08539
3.07915
3.07321
3.06623
3.05497
3.03963
3.026
3.01652
3.00658
2.9936
2.97773
2.96193
2.94743
2.93267
2.9205
2.91481
2.91136
2.91056
2.90826
2.90308
2.89625
2.88516
2.86677
2.84416
2.82582
2.81765
2.81425
2.81166
2.81222
2.81529
2.81215
2.80655
2.33229
2.3164
2.29228
2.26917
2.25631
2.25422
2.25678
2.26561
2.26823
2.26509
2.26147
2.316
2.56238
2.92953
3.27399
3.3445
3.37865
3.43139
3.47417
3.47738
3.44829
3.40067
3.3424
3.29548
3.27546
3.26799
3.26716
3.27768
3.28234
3.27715
3.26242
3.23784
3.2158
3.19321
3.1677
3.13874
3.10912
3.09854
3.09591
3.09354
3.08913
3.07837
3.06604
3.05289
3.03146
2.99808
2.96478
2.94868
2.94557
2.94775
2.9535
2.94982
2.94126
2.9271
2.90427
2.86613
2.8255
2.80353
2.799
2.79982
2.81189
2.82335
2.81998
2.80832
2.78771
2.75379
2.71311
2.68913
2.67945
2.67533
2.676
2.68518
2.68592
2.709
2.85058
3.24208
3.81301
4.23878
4.49117
4.57992
4.56376
4.51307
4.46455
4.44039
4.43194
4.44237
4.457
4.44784
4.42868
4.38874
4.32627
4.26897
4.24411
4.23517
4.23896
4.25608
4.25114
4.23271
4.19646
4.13623
4.08328
4.06513
4.05706
4.06031
4.07754
4.07349
4.05808
4.0317
3.98178
3.91957
3.88466
3.87428
3.87029
3.88025
3.89507
3.88885
3.87606
3.85548
3.81357
3.75521
3.71448
3.70243
3.69687
3.70083
3.71693
3.71704
3.70696
3.69445
3.66855
3.61863
3.56461
3.53994
3.53302
3.5297
3.53593
3.54229
3.53494
3.52576
3.51523
3.49353
3.44932
3.40096
3.38202
3.37585
3.37262
3.37688
3.37643
3.36826
3.36077
3.35315
3.3444
3.33446
3.35866
3.46746
3.65907
3.8452
3.9655
4.02979
4.03932
4.03093
4.00185
3.95598
3.91821
3.90672
3.90381
3.91929
3.93215
3.92272
3.9079
3.88364
3.83959
3.79077
3.76555
3.75638
3.75082
3.75431
3.76142
3.75497
3.74475
3.73102
3.70439
3.66382
3.62733
3.61418
3.60583
3.59984
3.59827
3.59678
3.5896
3.58034
3.56923
3.55282
3.52365
3.48854
3.46897
3.46074
3.45235
3.44362
3.43476
3.42552
3.41515
3.40194
3.38432
3.36618
3.35429
3.346
3.33794
3.32853
3.31499
3.2924
3.26993
3.26143
3.25558
3.25027
3.24504
3.23887
3.23185
3.22355
3.21098
3.18765
3.15408
3.12952
3.11779
3.1091
3.10275
3.09785
3.09364
3.08813
3.08065
3.06845
3.05227
3.04063
3.03513
3.02951
3.02286
3.01424
3.00184
2.98253
2.95641
2.9339
2.92446
2.91982
2.91573
2.91344
2.91318
2.90978
2.90391
2.89378
2.87356
2.8464
2.83102
2.82618
2.82213
2.81877
2.81778
2.81855
2.81503
2.80926
2.32968
2.30622
2.28652
2.27607
2.27459
2.27911
2.28976
2.29169
2.2844
2.26439
2.23216
2.22602
2.27905
2.48037
2.90053
3.21915
3.37829
3.48623
3.50343
3.49301
3.45088
3.38544
3.32639
3.29759
3.29155
3.29434
3.31114
3.31909
3.31165
3.28992
3.26016
3.23941
3.22232
3.20119
3.17377
3.14706
3.12972
3.12478
3.12024
3.11563
3.10604
3.09353
3.08025
3.06184
3.03225
2.99911
2.9818
2.97839
2.97841
2.97809
2.97219
2.96316
2.94928
2.92789
2.89464
2.85711
2.83421
2.82958
2.83029
2.84044
2.84793
2.84288
2.82992
2.8093
2.77693
2.73956
2.71571
2.70856
2.70608
2.7165
2.72544
2.74581
2.85558
3.19246
3.75786
4.21919
4.48544
4.63171
4.64165
4.61046
4.54835
4.49613
4.47468
4.47146
4.49107
4.50941
4.49872
4.47484
4.42977
4.36172
4.30063
4.27463
4.26543
4.27144
4.29628
4.29837
4.28103
4.24529
4.1829
4.11703
4.09024
4.08133
4.08331
4.10533
4.11046
4.09688
4.07244
4.02385
3.95897
3.91827
3.90623
3.90125
3.90984
3.92793
3.92514
3.91286
3.8934
3.85222
3.79135
3.74667
3.73198
3.72603
3.72887
3.74559
3.74907
3.7394
3.72758
3.70462
3.65819
3.60029
3.56734
3.55904
3.55484
3.56022
3.57007
3.56453
3.55517
3.54541
3.52779
3.48843
3.43678
3.40962
3.40239
3.39781
3.40104
3.40489
3.39795
3.39005
3.38305
3.37688
3.37579
3.41041
3.53247
3.73227
3.90027
4.0082
4.06912
4.07868
4.07091
4.04443
3.99524
3.95008
3.93417
3.92886
3.93965
3.9611
3.95786
3.945
3.92561
3.885
3.82808
3.79059
3.77962
3.7729
3.77466
3.7866
3.78477
3.77532
3.76353
3.74099
3.69806
3.65639
3.63965
3.63181
3.62587
3.62422
3.62434
3.61871
3.60974
3.59945
3.58452
3.55619
3.52016
3.49666
3.48809
3.47992
3.4709
3.46159
3.45185
3.44113
3.42871
3.41398
3.39699
3.38143
3.36941
3.3585
3.34755
3.3354
3.31899
3.29611
3.28127
3.27453
3.26828
3.26273
3.25768
3.25175
3.24495
3.2368
3.22366
3.19983
3.17118
3.15347
3.14217
3.13137
3.11985
3.10816
3.09676
3.08588
3.07602
3.06387
3.05271
3.04779
3.04337
3.0391
3.03453
3.02913
3.02145
3.00567
2.97525
2.9459
2.93373
2.92712
2.92138
2.91597
2.911
2.90762
2.90318
2.89596
2.87924
2.85665
2.84472
2.83748
2.83184
2.82739
2.82457
2.82415
2.82237
2.81634
2.32002
2.30364
2.29544
2.29458
2.30045
2.31085
2.31135
2.30311
2.2843
2.24998
2.22219
2.21939
2.22372
2.28211
2.52524
3.00164
3.30282
3.48862
3.50969
3.49312
3.42987
3.36481
3.32846
3.32227
3.32727
3.34781
3.35534
3.34432
3.31927
3.28676
3.25864
3.24538
3.23123
3.20894
3.18579
3.16919
3.15533
3.14718
3.14083
3.13172
3.12007
3.10745
3.09158
3.06605
3.03496
3.01673
3.0129
3.01102
3.00584
2.99665
2.98515
2.97116
2.95173
2.92341
2.8896
2.86628
2.86143
2.86198
2.86993
2.87319
2.86602
2.8514
2.83047
2.80071
2.76625
2.74403
2.73628
2.73937
2.75508
2.78031
2.86637
3.15931
3.70618
4.21287
4.49202
4.66158
4.71264
4.70082
4.65223
4.58293
4.53066
4.51212
4.51211
4.53988
4.56029
4.54845
4.52039
4.46995
4.39577
4.33381
4.30825
4.2995
4.30754
4.33509
4.33945
4.32289
4.28673
4.22373
4.15515
4.12488
4.11466
4.11534
4.13831
4.15023
4.13806
4.11342
4.06523
3.99912
3.95422
3.94044
3.93511
3.94279
3.9613
3.96045
3.94855
3.92989
3.89081
3.83072
3.78098
3.76267
3.75601
3.75777
3.77556
3.78285
3.77367
3.76139
3.73916
3.69353
3.63358
3.59735
3.58767
3.58276
3.58598
3.59741
3.59427
3.58471
3.57494
3.55997
3.52534
3.47309
3.43793
3.42904
3.42352
3.42456
3.43231
3.42781
3.42122
3.41527
3.40965
3.42091
3.46878
3.61087
3.80906
3.95591
4.05245
4.10929
4.11773
4.10851
4.08125
4.03266
3.98194
3.95864
3.95136
3.95749
3.98289
3.9871
3.9767
3.9624
3.92715
3.87289
3.82647
3.81013
3.8016
3.79954
3.8106
3.81348
3.804
3.7925
3.77361
3.73658
3.6923
3.66525
3.65619
3.6493
3.64735
3.65003
3.64514
3.63576
3.62585
3.61322
3.58892
3.55303
3.524
3.51497
3.50782
3.49949
3.49048
3.48096
3.47035
3.45777
3.44191
3.42255
3.40611
3.39512
3.38532
3.37442
3.36148
3.34531
3.32335
3.30281
3.29341
3.28598
3.27887
3.27233
3.26624
3.26024
3.25367
3.24474
3.23041
3.20901
3.18955
3.17734
3.16662
3.15417
3.13877
3.12157
3.10505
3.0883
3.07183
3.06226
3.05737
3.05354
3.05083
3.0485
3.04511
3.04009
3.03364
3.02228
2.9976
2.96595
2.94633
2.93619
2.92862
2.92144
2.91439
2.90822
2.90215
2.89377
2.88186
2.86872
2.86018
2.85331
2.84668
2.84
2.83258
2.82436
2.81662
2.80853
2.32058
2.31472
2.31474
2.32253
2.3318
2.3306
2.32016
2.29946
2.26684
2.23756
2.22681
2.22419
2.22603
2.25029
2.34604
2.67149
3.09631
3.39154
3.49109
3.4696
3.3989
3.36347
3.35913
3.37027
3.39222
3.39333
3.37581
3.34664
3.31784
3.28435
3.26614
3.25725
3.2422
3.22039
3.20654
3.19299
3.17801
3.16848
3.15849
3.14674
3.13429
3.11964
3.09756
3.06883
3.05087
3.0476
3.04465
3.03668
3.02393
3.00958
2.99473
2.97688
2.95331
2.92335
2.9001
2.89506
2.89539
2.90023
2.8985
2.88826
2.87178
2.85196
2.8252
2.79551
2.77162
2.76703
2.77371
2.79865
2.87107
3.14331
3.65744
4.21893
4.50163
4.65608
4.75036
4.76937
4.74652
4.69015
4.61695
4.56903
4.55307
4.55787
4.59131
4.61018
4.59671
4.56476
4.50759
4.42813
4.3697
4.3466
4.33989
4.35352
4.38378
4.3843
4.36288
4.32172
4.25466
4.18819
4.15745
4.14844
4.15228
4.17958
4.19484
4.18291
4.15655
4.10624
4.03775
3.99149
3.97611
3.97063
3.97787
3.99717
3.99704
3.98486
3.96587
3.92568
3.86341
3.81419
3.7952
3.78811
3.78835
3.80557
3.81595
3.80706
3.79494
3.77501
3.73214
3.66981
3.6263
3.6135
3.60823
3.61056
3.62384
3.62379
3.61413
3.60425
3.59103
3.56028
3.50973
3.46781
3.45527
3.44936
3.44872
3.45877
3.45798
3.45092
3.44833
3.44564
3.47244
3.53671
3.69256
3.88682
4.01387
4.09922
4.15151
4.1574
4.14676
4.11768
4.06803
4.01436
3.98469
3.97716
3.98173
4.00758
4.01724
4.00766
3.99389
3.96109
3.90586
3.85709
3.83869
3.83064
3.82838
3.83929
3.84596
3.83715
3.82461
3.80499
3.76783
3.72388
3.69538
3.6858
3.67828
3.6747
3.67613
3.67186
3.66203
3.65151
3.63899
3.61752
3.58527
3.5542
3.5433
3.53682
3.52986
3.52106
3.51128
3.50022
3.48681
3.46987
3.44946
3.42935
3.41599
3.40682
3.3981
3.38839
3.3759
3.35816
3.33555
3.31703
3.30542
3.29666
3.28866
3.28062
3.27221
3.2645
3.25753
3.24897
3.23622
3.21899
3.20516
3.19577
3.18654
3.17564
3.16135
3.14152
3.11669
3.09201
3.07544
3.06779
3.06215
3.05683
3.0536
3.05465
3.05371
3.04881
3.04241
3.03183
3.01238
2.98813
2.96823
2.95314
2.94043
2.92973
2.92047
2.91187
2.90295
2.89307
2.88379
2.87833
2.87288
2.86639
2.85911
2.85112
2.8424
2.83249
2.81944
2.80498
2.33382
2.33519
2.34541
2.35303
2.35007
2.33703
2.31281
2.27797
2.25355
2.24307
2.24062
2.24108
2.25109
2.27149
2.30298
2.40632
2.69833
3.06742
3.35603
3.39005
3.36931
3.3864
3.41985
3.43861
3.43149
3.40806
3.37733
3.34841
3.31683
3.28877
3.28179
3.27382
3.25679
3.24065
3.226
3.20867
3.19716
3.1878
3.17641
3.16364
3.14895
3.12933
3.10224
3.08328
3.07944
3.0762
3.06679
3.05027
3.03355
3.01895
3.00284
2.98242
2.95665
2.93545
2.93017
2.93048
2.93141
2.92491
2.90995
2.892
2.87289
2.85116
2.82417
2.80243
2.80025
2.81444
2.87912
3.10506
3.56947
4.22378
4.56162
4.70661
4.78908
4.83125
4.82616
4.78922
4.7243
4.65027
4.6071
4.59286
4.60387
4.64372
4.65944
4.64375
4.60779
4.54462
4.46051
4.40532
4.3844
4.38043
4.40137
4.4337
4.43111
4.40798
4.36325
4.29009
4.22037
4.1898
4.18208
4.19037
4.22227
4.23785
4.22598
4.19767
4.14608
4.07583
4.02809
4.01184
4.00645
4.01407
4.03433
4.03452
4.02193
4.00216
3.96248
3.90061
3.84582
3.82312
3.81573
3.816
3.8351
3.85031
3.84231
3.82943
3.80913
3.76787
3.70614
3.65898
3.64295
3.63729
3.6374
3.64992
3.65337
3.64406
3.63397
3.62127
3.59369
3.54553
3.4988
3.48126
3.47521
3.47301
3.48289
3.48869
3.48267
3.48148
3.48463
3.52415
3.61697
3.78566
3.96994
4.07487
4.14062
4.18807
4.19575
4.18423
4.15655
4.10701
4.04822
4.01483
4.00734
4.01132
4.03695
4.05011
4.04048
4.02539
3.99379
3.94012
3.88613
3.85976
3.85114
3.84958
3.86498
3.87871
3.8717
3.8591
3.83968
3.80177
3.75464
3.72057
3.7097
3.70305
3.70031
3.70196
3.69759
3.68762
3.67727
3.66528
3.64521
3.61231
3.58055
3.56792
3.56171
3.5568
3.54989
3.54121
3.53116
3.51863
3.50176
3.47848
3.45322
3.43757
3.42765
3.41815
3.40859
3.39876
3.38729
3.37162
3.35199
3.33454
3.32167
3.31063
3.30029
3.29106
3.28224
3.27245
3.26122
3.24871
3.2345
3.22328
3.21499
3.20787
3.20058
3.19218
3.18109
3.1635
3.13477
3.10406
3.08721
3.07831
3.07146
3.0659
3.06132
3.05706
3.05151
3.04455
3.0365
3.02747
3.01677
3.00289
2.98927
2.97655
2.96264
2.94704
2.93123
2.91632
2.90325
2.89405
2.88941
2.88621
2.8828
2.87771
2.8715
2.86287
2.84986
2.83242
2.81439
2.80178
2.35621
2.36896
2.3744
2.36954
2.354
2.32573
2.28856
2.26779
2.2596
2.25804
2.26194
2.27938
2.29862
2.30159
2.29797
2.29614
2.36188
2.58125
2.98432
3.25372
3.33615
3.42591
3.47117
3.46925
3.44318
3.40822
3.3803
3.35432
3.31951
3.30616
3.30369
3.29045
3.27172
3.25647
3.23758
3.22455
3.21705
3.20612
3.1935
3.17944
3.16145
3.13765
3.11848
3.1129
3.10801
3.09745
3.07795
3.05708
3.04143
3.02741
3.01044
2.98896
2.97165
2.96657
2.96631
2.96344
2.95194
2.93197
2.91285
2.89494
2.87595
2.85213
2.83689
2.84022
2.88275
3.07688
3.54176
4.17907
4.58397
4.71692
4.78934
4.85277
4.8877
4.87271
4.82805
4.75923
4.68486
4.64776
4.6361
4.65141
4.6943
4.70609
4.68774
4.64814
4.57851
4.49241
4.44289
4.424
4.42179
4.44795
4.48035
4.47496
4.44924
4.40011
4.32342
4.25764
4.22989
4.22209
4.23208
4.26603
4.27912
4.26493
4.23359
4.17929
4.1094
4.06367
4.04727
4.04202
4.05053
4.0729
4.07511
4.06206
4.03965
3.99592
3.92939
3.87614
3.85444
3.84655
3.84516
3.8624
3.88346
3.87804
3.86507
3.84568
3.8049
3.74109
3.69016
3.67134
3.66556
3.66474
3.67633
3.68266
3.6741
3.66392
3.65178
3.62738
3.58144
3.53066
3.50698
3.50046
3.4969
3.50511
3.51693
3.51335
3.51445
3.52847
3.58509
3.70207
3.8857
4.04659
4.13435
4.1882
4.22583
4.2341
4.22289
4.19746
4.15245
4.09152
4.04835
4.03754
4.03793
4.06225
4.08166
4.07356
4.05843
4.02748
3.97286
3.91493
3.88737
3.87854
3.87608
3.89059
3.90947
3.9047
3.89257
3.87461
3.83861
3.79078
3.75219
3.73843
3.73122
3.72732
3.72819
3.72423
3.71429
3.70332
3.69004
3.67094
3.64239
3.60961
3.59049
3.58366
3.57904
3.57524
3.568
3.55923
3.5486
3.53343
3.51057
3.48141
3.46222
3.45274
3.44371
3.43382
3.42305
3.41117
3.39749
3.38142
3.36429
3.34995
3.33866
3.32767
3.31545
3.30277
3.29167
3.2815
3.26945
3.2532
3.23617
3.22645
3.22064
3.21534
3.21007
3.20355
3.19519
3.18191
3.15954
3.13
3.1067
3.09301
3.08315
3.07469
3.06716
3.06077
3.05532
3.04943
3.04165
3.03103
3.01988
3.01039
3.00283
2.99488
2.98454
2.96868
2.94477
2.91994
2.90651
2.90131
2.8968
2.89225
2.88883
2.88416
2.87834
2.87091
2.8576
2.83575
2.81443
2.80567
2.39261
2.39588
2.38906
2.37104
2.33846
2.30038
2.28209
2.27549
2.27455
2.28109
2.3034
2.32466
2.32643
2.31751
2.29338
2.25821
2.25594
2.31513
2.54812
3.00617
3.25802
3.42234
3.48758
3.48029
3.44093
3.40703
3.38817
3.35857
3.33691
3.33734
3.32948
3.30673
3.28521
3.2636
3.24718
3.24102
3.23455
3.22252
3.209
3.19246
3.17161
3.15374
3.14694
3.14027
3.1284
3.1074
3.08314
3.0649
3.05151
3.03777
3.02168
3.00853
3.00347
3.00201
2.99676
2.97972
2.95508
2.93308
2.91645
2.89787
2.8808
2.87537
2.90492
3.06711
3.47254
4.08681
4.62537
4.86895
4.95017
4.93529
4.92519
4.93201
4.91151
4.86687
4.79792
4.72381
4.68779
4.67887
4.69934
4.74351
4.75029
4.72892
4.68545
4.60979
4.52447
4.47962
4.46359
4.46451
4.49602
4.52589
4.51654
4.48865
4.43646
4.35727
4.29318
4.26597
4.25958
4.27226
4.30583
4.31549
4.30143
4.27031
4.21595
4.14522
4.09892
4.08234
4.07778
4.08872
4.11184
4.1136
4.10114
4.07877
4.03495
3.96729
3.90727
3.88037
3.8719
3.87064
3.88917
3.91485
3.9126
3.89995
3.88103
3.84206
3.78022
3.72426
3.70152
3.6949
3.69311
3.70355
3.71239
3.70481
3.69462
3.68291
3.66079
3.61743
3.56418
3.53399
3.52623
3.52147
3.52615
3.54193
3.54451
3.54663
3.57455
3.65321
3.79193
3.98146
4.1236
4.18722
4.23142
4.26517
4.27468
4.26399
4.2395
4.19475
4.13238
4.08688
4.07328
4.06985
4.08771
4.11152
4.10635
4.09201
4.06295
4.00803
3.94445
3.91112
3.90152
3.89821
3.91177
3.93654
3.9364
3.92478
3.90859
3.87385
3.82416
3.78448
3.76891
3.76122
3.75611
3.75444
3.7497
3.74025
3.72993
3.71783
3.70046
3.67119
3.63641
3.6155
3.60813
3.60245
3.59892
3.5932
3.58519
3.57602
3.56337
3.54309
3.51189
3.48696
3.47623
3.46739
3.45829
3.44896
3.4389
3.42681
3.41044
3.38975
3.37294
3.3626
3.35371
3.34439
3.33376
3.32125
3.30691
3.28994
3.26933
3.24946
3.23744
3.23109
3.22523
3.22014
3.21544
3.20959
3.20291
3.1939
3.17966
3.15882
3.13541
3.11629
3.1015
3.08893
3.07783
3.06797
3.0586
3.04893
3.03821
3.0268
3.01932
3.01508
3.01161
3.00645
2.99898
2.98617
2.96211
2.93132
2.91696
2.91141
2.90619
2.90096
2.89565
2.88931
2.88178
2.87317
2.86058
2.8407
2.823
2.81466
2.41731
2.40848
2.38779
2.35096
2.31335
2.29712
2.29175
2.29149
2.30067
2.32624
2.34646
2.34675
2.33759
2.31616
2.2766
2.2499
2.24848
2.25648
2.33403
2.65163
3.08945
3.34762
3.48074
3.47422
3.44405
3.41965
3.39073
3.36904
3.36882
3.36872
3.34577
3.31742
3.29463
3.27335
3.26471
3.2606
3.24984
3.23616
3.22072
3.20272
3.1862
3.17876
3.17111
3.15869
3.13807
3.11156
3.09012
3.07694
3.06579
3.05498
3.04643
3.04129
3.0378
3.03006
3.00903
2.97868
2.95355
2.93432
2.92007
2.91356
2.92992
3.04954
3.45039
4.07605
4.65925
4.84229
4.88356
4.92881
4.97914
4.99688
4.97591
4.94041
4.89339
4.8264
4.76664
4.73793
4.73066
4.75407
4.79486
4.79443
4.76882
4.71958
4.63704
4.55571
4.51641
4.50331
4.50857
4.54401
4.56954
4.55789
4.5273
4.47173
4.39096
4.33248
4.30895
4.30329
4.31814
4.34852
4.35064
4.33283
4.29833
4.24207
4.17958
4.14029
4.12486
4.12069
4.13311
4.15517
4.15435
4.14015
4.11404
4.06591
3.99558
3.93972
3.9151
3.90589
3.9033
3.91925
3.94772
3.94917
3.93659
3.91687
3.87588
3.81083
3.75598
3.73292
3.72594
3.72334
3.73191
3.74214
3.73584
3.72578
3.71468
3.69447
3.65305
3.59755
3.56174
3.55229
3.54663
3.54821
3.56373
3.57403
3.58006
3.62015
3.72403
3.88393
4.07113
4.19009
4.23207
4.26588
4.29825
4.31182
4.30189
4.28027
4.23949
4.17729
4.12395
4.10607
4.1017
4.11676
4.14317
4.14117
4.1272
4.10035
4.04705
3.97851
3.9371
3.92505
3.92084
3.9323
3.9599
3.96456
3.95355
3.93923
3.90828
3.86069
3.81671
3.79758
3.78976
3.78452
3.78194
3.77614
3.76681
3.75664
3.74475
3.7287
3.70398
3.67012
3.64052
3.63036
3.62337
3.61907
3.61497
3.60735
3.59838
3.58849
3.57178
3.54273
3.51574
3.50396
3.495
3.48538
3.47529
3.46469
3.45335
3.44004
3.42151
3.39928
3.38535
3.37663
3.36807
3.35919
3.34953
3.33775
3.32175
3.29957
3.27378
3.25516
3.24534
3.23721
3.22985
3.22308
3.217
3.21099
3.20482
3.19919
3.19166
3.17885
3.16271
3.1462
3.12884
3.11047
3.093
3.07744
3.0635
3.05029
3.03678
3.02814
3.02309
3.01833
3.01533
3.01257
3.00685
2.99809
2.98147
2.95421
2.93016
2.91916
2.91252
2.90606
2.90052
2.89589
2.89011
2.88103
2.86661
2.8484
2.83606
2.82833
2.42754
2.40433
2.36368
2.32712
2.31271
2.3086
2.30929
2.32175
2.34968
2.3672
2.36597
2.35528
2.33378
2.29696
2.26576
2.25579
2.25395
2.2585
2.28373
2.4018
2.75652
3.09573
3.37578
3.45245
3.4316
3.41619
3.40118
3.39785
3.39886
3.37941
3.34874
3.32688
3.30473
3.29027
3.28669
3.27916
3.26414
3.24844
3.23165
3.21572
3.20696
3.19989
3.1879
3.16859
3.14147
3.11666
3.10319
3.09461
3.08766
3.08265
3.078
3.07257
3.06338
3.0395
3.00573
2.97247
2.95472
2.94697
2.95775
3.06249
3.41258
3.98434
4.63282
4.97938
5.0974
5.10546
5.02576
4.994
4.99817
5.00659
4.98497
4.93716
4.86343
4.80311
4.77759
4.77621
4.80931
4.84649
4.83952
4.81004
4.75427
4.66514
4.58745
4.55287
4.54255
4.55389
4.5951
4.61509
4.59926
4.56307
4.50099
4.42147
4.37113
4.35143
4.34812
4.36703
4.39302
4.38833
4.36745
4.32902
4.26945
4.21012
4.17489
4.16278
4.16219
4.17999
4.19931
4.19444
4.17958
4.15093
4.10061
4.02835
3.96994
3.94324
3.93447
3.93309
3.95144
3.98155
3.98448
3.97246
3.95336
3.9139
3.84999
3.78885
3.76019
3.75245
3.74996
3.75959
3.77185
3.76675
3.75689
3.74639
3.72772
3.68895
3.63322
3.59193
3.57882
3.57275
3.5717
3.58443
3.60193
3.61525
3.66676
3.79375
3.97359
4.15768
4.24745
4.27301
4.29559
4.32519
4.34409
4.33505
4.3164
4.28046
4.22245
4.16661
4.14594
4.14055
4.15215
4.17898
4.17943
4.16491
4.13861
4.08828
4.01823
3.96961
3.95447
3.94876
3.95654
3.98349
3.99145
3.98083
3.96644
3.9368
3.89134
3.84872
3.82938
3.82166
3.81643
3.81207
3.80405
3.79387
3.78304
3.77127
3.75699
3.73603
3.70428
3.67267
3.66037
3.65245
3.64554
3.63803
3.6293
3.62067
3.61165
3.59493
3.56754
3.54018
3.52872
3.52119
3.51305
3.5044
3.49464
3.48286
3.46782
3.449
3.42731
3.4092
3.39895
3.39056
3.38201
3.37303
3.36329
3.35151
3.3342
3.30817
3.281
3.26525
3.25555
3.24661
3.2382
3.23109
3.22475
3.21766
3.20902
3.20067
3.19373
3.18681
3.17823
3.16772
3.15502
3.13805
3.11569
3.0923
3.07014
3.04943
3.03774
3.03286
3.02851
3.02384
3.01949
3.01536
3.01012
3.00386
2.99503
2.97838
2.95377
2.9341
2.92268
2.91388
2.90516
2.89611
2.88666
2.87561
2.86304
2.85206
2.84519
2.83998
2.42049
2.37684
2.34188
2.32894
2.32588
2.32777
2.34386
2.37351
2.38745
2.38454
2.37231
2.34907
2.31163
2.28356
2.27303
2.27115
2.27235
2.28115
2.29236
2.31453
2.42719
2.67334
3.02772
3.34443
3.39003
3.42496
3.43421
3.43327
3.41076
3.37482
3.35053
3.33905
3.32193
3.31556
3.31171
3.29742
3.27849
3.25828
3.24297
3.23388
3.22682
3.2162
3.1992
3.1725
3.14447
3.12992
3.12332
3.11815
3.11497
3.11042
3.10392
3.09384
3.0718
3.0334
2.99624
2.98183
2.98662
3.06284
3.36603
3.97127
4.64137
5.01105
5.03887
5.06083
5.09994
5.11775
5.11486
5.08526
5.05184
5.01737
4.96575
4.90168
4.8542
4.83208
4.83089
4.86615
4.89806
4.88567
4.85135
4.78779
4.69267
4.62081
4.59094
4.58247
4.59782
4.64219
4.65869
4.64133
4.60235
4.53505
4.45353
4.40613
4.38965
4.38971
4.41405
4.43619
4.42734
4.4029
4.35895
4.29619
4.24294
4.21518
4.20511