/*--------------------------------*- C++ -*----------------------------------*\
  =========                 |
  \\      /  F ield         | OpenFOAM: The Open Source CFD Toolbox
   \\    /   O peration     | Website:  https://openfoam.org
    \\  /    A nd           | Version:  7
     \\/     M anipulation  |
\*---------------------------------------------------------------------------*/
FoamFile
{
    version     2.0;
    format      ascii;
    class       volVectorField;
    location    "2.4";
    object      U;
}
// * * * * * * * * * * * * * * * * * * * * * * * * * * * * * * * * * * * * * //

dimensions      [0 1 -1 0 0 0 0];

internalField   nonuniform List<vector> 
16192
(
(3 -5.71109e-17 0)
(3 2.39184e-17 0)
(3 5.67449e-17 0)
(3 -3.79374e-16 0)
(3 -2.73836e-16 0)
(3 -3.43661e-16 0)
(3 1.16156e-17 0)
(3 1.94891e-16 0)
(3 1.67191e-16 0)
(3 8.53953e-17 0)
(3 -1.25062e-16 0)
(3 -3.76251e-16 0)
(3 -4.27026e-16 0)
(3 -3.59142e-16 0)
(3 6.52759e-16 0)
(3 4.99705e-16 0)
(3 6.21911e-16 0)
(3 1.02952e-15 0)
(3 1.54319e-15 0)
(3 5.50127e-16 0)
(3 2.65069e-16 0)
(3 2.29011e-16 0)
(3 -1.68637e-16 0)
(3 -2.98061e-16 0)
(3 -1.49605e-16 0)
(3 1.17899e-16 0)
(3 1.28683e-16 0)
(3 8.5931e-16 0)
(3 1.37685e-15 0)
(3 1.27012e-15 0)
(3 8.11732e-16 0)
(3 1.63697e-16 0)
(3 -3.97064e-16 0)
(3 -5.60496e-16 0)
(3 -8.51125e-16 0)
(3 -1.81865e-15 0)
(3 -2.01833e-15 0)
(3 -1.77377e-15 0)
(3 7.083e-16 0)
(3 1.8203e-15 0)
(3 1.43461e-15 0)
(3 1.57387e-15 0)
(3 1.27169e-15 0)
(3 1.67066e-15 0)
(3 1.70293e-15 0)
(3 1.91754e-15 0)
(3 1.21673e-15 0)
(3 9.56119e-16 0)
(3 3.84345e-16 0)
(3 -5.09141e-16 0)
(3 -3.77482e-16 0)
(3 2.33011e-16 0)
(3 6.11776e-17 0)
(3 -1.38345e-16 0)
(3 -3.68345e-16 0)
(3 -6.33162e-16 0)
(3 -4.98251e-16 0)
(3 -1.82194e-16 0)
(3 3.12753e-16 0)
(3 -1.37323e-17 0)
(3 -4.17356e-16 0)
(3 -6.80035e-16 0)
(3 -7.35154e-16 0)
(3 -2.47031e-16 0)
(3 -4.57678e-16 0)
(3 -1.99615e-16 0)
(3 2.74484e-17 0)
(3 2.49793e-16 0)
(3 2.47453e-16 0)
(3 -1.33322e-16 0)
(3 -1.1721e-16 0)
(3 -8.82756e-16 0)
(3 -1.304e-15 0)
(3 3.10999e-16 0)
(3 1.62737e-15 0)
(3 1.08755e-15 0)
(3 5.5285e-16 0)
(3 1.52015e-15 0)
(3 9.01073e-16 0)
(3 1.04179e-16 0)
(3 -3.53288e-16 0)
(3 -3.12285e-17 0)
(3 5.61381e-16 0)
(3 1.27962e-15 0)
(3 1.32891e-15 0)
(3 8.71798e-16 0)
(3 7.71068e-16 0)
(3 8.54162e-16 0)
(3 9.26836e-16 0)
(3 1.02241e-15 0)
(3 4.43251e-16 0)
(3 4.40193e-16 0)
(3 5.74419e-16 0)
(3 6.36354e-16 0)
(3 -3.06275e-17 0)
(3 -1.68998e-16 0)
(3 -8.54502e-16 0)
(3 -8.38472e-16 0)
(3 -1.82907e-16 0)
(3 -2.97771e-16 0)
(3 2.47064e-16 0)
(3 -1.84129e-16 0)
(3 -7.07877e-16 0)
(3 -1.66914e-15 0)
(3 -2.36357e-15 0)
(3 -1.81222e-15 0)
(3 -1.68085e-15 0)
(3 -1.33607e-15 0)
(3 -1.53294e-15 0)
(3 -1.36797e-15 0)
(3 -2.02303e-16 0)
(3 -1.476e-16 0)
(3 -1.77323e-16 0)
(3 1.10874e-15 0)
(3 1.8625e-15 0)
(3 1.58364e-15 0)
(3 8.75388e-16 0)
(3 9.36435e-16 0)
(3 1.04451e-15 0)
(3 1.14818e-16 0)
(3 1.21589e-16 0)
(3 9.84473e-16 0)
(3 5.32812e-16 0)
(3 5.60128e-16 0)
(3 1.24551e-15 0)
(3 1.25522e-15 0)
(3 6.20422e-16 0)
(3 2.62096e-16 0)
(3 6.60235e-16 0)
(3 1.06488e-15 0)
(3 5.42177e-16 0)
(3 2.32313e-16 0)
(3 9.04622e-16 0)
(3 1.17045e-15 0)
(3 -5.40124e-16 0)
(3 -9.72142e-16 0)
(3 -1.86328e-15 0)
(3 -5.71085e-16 0)
(3 5.9756e-16 0)
(3 2.13668e-15 0)
(3 3.01102e-15 0)
(3 3.47727e-15 0)
(3 -4.6022e-16 0)
(2.73677 0.0016126 0)
(0.948266 0.00345109 0)
(0.760156 0.00344171 0)
(0.747994 0.00754742 0)
(0.729005 0.00798965 0)
(0.711643 0.00745586 0)
(0.695591 0.00634736 0)
(0.68174 0.00548079 0)
(0.66941 0.00527338 0)
(0.657144 0.00566125 0)
(0.643351 0.00647825 0)
(0.627106 0.00739067 0)
(0.609232 0.00762 0)
(0.592285 0.00686264 0)
(0.577772 0.00613618 0)
(0.564717 0.00625184 0)
(0.551419 0.00682471 0)
(0.537091 0.00717189 0)
(0.52205 0.00717126 0)
(0.506676 0.00711521 0)
(0.491204 0.00710447 0)
(0.475824 0.007131 0)
(0.460466 0.0072158 0)
(0.444914 0.0073161 0)
(0.42907 0.00738518 0)
(0.413004 0.00744114 0)
(0.396886 0.00750891 0)
(0.380923 0.0075846 0)
(0.365262 0.0076607 0)
(0.34989 0.00774684 0)
(0.334638 0.00783934 0)
(0.319293 0.00793175 0)
(0.303654 0.00802262 0)
(0.287575 0.00809302 0)
(0.271004 0.00814682 0)
(0.253989 0.00819473 0)
(0.236674 0.00825278 0)
(0.21922 0.0083468 0)
(0.201743 0.00847108 0)
(0.184237 0.00863123 0)
(0.166528 0.00881518 0)
(0.148378 0.00899032 0)
(0.129609 0.00917872 0)
(0.110227 0.00940026 0)
(0.0904381 0.00967001 0)
(0.0704607 0.00996118 0)
(0.0503919 0.0102269 0)
(0.0302656 0.0103243 0)
(0.0101798 0.0104157 0)
(3 -1.00774e-16 0)
(3 -1.79104e-16 0)
(3 -2.11389e-16 0)
(3 2.70674e-18 0)
(3 4.13428e-17 0)
(3 2.80918e-16 0)
(3 3.7819e-16 0)
(3 7.57965e-16 0)
(3 7.64142e-16 0)
(3 2.90873e-16 0)
(3 -4.69674e-17 0)
(3 -1.24633e-16 0)
(3 -1.40886e-15 0)
(3 -1.5221e-15 0)
(3 -4.23623e-16 0)
(3 -3.32731e-16 0)
(3 -1.01947e-16 0)
(3 6.92868e-16 0)
(3 1.42602e-15 0)
(3 1.33605e-15 0)
(3 1.09806e-15 0)
(3 9.58853e-16 0)
(3 -3.04774e-17 0)
(3 -1.15702e-15 0)
(3 -5.35228e-16 0)
(3 -6.73173e-17 0)
(3 6.18083e-17 0)
(3 1.07487e-15 0)
(3 2.02099e-15 0)
(3 1.92793e-15 0)
(3 5.09116e-16 0)
(3 -1.6302e-16 0)
(3 -3.37818e-16 0)
(3 -3.45836e-17 0)
(3 -1.12663e-16 0)
(3 -4.93097e-16 0)
(3 -5.16167e-16 0)
(3 8.37373e-19 0)
(3 2.24705e-15 0)
(3 4.09223e-15 0)
(3 3.69407e-15 0)
(3 1.38586e-15 0)
(3 3.93352e-16 0)
(3 5.96905e-16 0)
(3 7.49788e-16 0)
(3 1.21043e-15 0)
(3 1.87692e-15 0)
(3 1.22419e-15 0)
(3 1.50102e-16 0)
(3 -5.33274e-16 0)
(3 5.47706e-17 0)
(3 2.79039e-17 0)
(3 -1.0321e-15 0)
(3 -1.68607e-15 0)
(3 -1.72086e-15 0)
(3 -1.50687e-15 0)
(3 -1.71429e-15 0)
(3 -1.43323e-15 0)
(3 -5.11194e-16 0)
(3 -3.50145e-16 0)
(3 -5.18237e-16 0)
(3 -1.16967e-15 0)
(3 -1.2467e-15 0)
(3 -8.22295e-16 0)
(3 -1.00656e-16 0)
(3 8.0186e-16 0)
(3 1.10905e-15 0)
(3 8.16251e-16 0)
(3 1.02342e-15 0)
(3 7.25724e-16 0)
(3 2.12081e-16 0)
(3 -1.11089e-15 0)
(3 -9.99693e-16 0)
(3 1.40864e-15 0)
(3 3.0887e-15 0)
(3 2.4688e-15 0)
(3 2.48255e-15 0)
(3 2.70463e-15 0)
(3 1.67883e-15 0)
(3 5.47689e-16 0)
(3 6.22132e-16 0)
(3 1.28213e-15 0)
(3 8.88315e-16 0)
(3 1.6896e-15 0)
(3 1.27607e-15 0)
(3 3.35148e-16 0)
(3 2.59613e-16 0)
(3 1.06485e-15 0)
(3 1.56477e-15 0)
(3 1.79839e-15 0)
(3 2.48786e-16 0)
(3 1.89804e-16 0)
(3 -4.40081e-16 0)
(3 2.36916e-16 0)
(3 6.20409e-16 0)
(3 5.19299e-16 0)
(3 -5.03404e-16 0)
(3 -1.15054e-15 0)
(3 3.05668e-17 0)
(3 1.86008e-16 0)
(3 2.07481e-16 0)
(3 -8.16739e-17 0)
(3 -3.14818e-16 0)
(3 -1.043e-15 0)
(3 -1.8402e-15 0)
(3 -1.64985e-15 0)
(3 -2.04149e-15 0)
(3 -2.90509e-15 0)
(3 -3.78326e-15 0)
(3 -1.77719e-15 0)
(3 -3.50003e-16 0)
(3 -5.29296e-16 0)
(3 -1.45306e-15 0)
(3 -8.45542e-16 0)
(3 1.25567e-15 0)
(3 1.83406e-15 0)
(3 1.31149e-15 0)
(3 1.91236e-15 0)
(3 2.59938e-15 0)
(3 1.69142e-15 0)
(3 1.64864e-15 0)
(3 2.03579e-15 0)
(3 1.97394e-15 0)
(3 2.35075e-15 0)
(3 1.43987e-15 0)
(3 4.83052e-16 0)
(3 -1.53986e-16 0)
(3 -1.13702e-16 0)
(3 6.25866e-16 0)
(3 1.70442e-15 0)
(3 2.29447e-15 0)
(3 2.22391e-15 0)
(3 3.46731e-15 0)
(3 2.32722e-15 0)
(3 9.15476e-16 0)
(3 -2.95755e-16 0)
(3 -1.60684e-15 0)
(3 -1.00736e-15 0)
(3 2.9315e-16 0)
(3 1.50102e-15 0)
(3 2.73106e-15 0)
(3 3.5326e-15 0)
(3 1.44455e-15 0)
(2.74253 0.00832983 0)
(0.948569 0.0164053 0)
(0.755346 0.0125441 0)
(0.742782 0.0199912 0)
(0.724927 0.0217329 0)
(0.708653 0.0210834 0)
(0.693121 0.0187788 0)
(0.679081 0.0164968 0)
(0.666202 0.0155755 0)
(0.653453 0.0163399 0)
(0.639492 0.0185264 0)
(0.623466 0.0210805 0)
(0.60604 0.0218488 0)
(0.589515 0.0200544 0)
(0.574957 0.0181746 0)
(0.561598 0.0184019 0)
(0.548146 0.0199396 0)
(0.533786 0.0208421 0)
(0.518837 0.0208561 0)
(0.503551 0.0208277 0)
(0.48809 0.0209423 0)
(0.472655 0.0211027 0)
(0.457223 0.0213756 0)
(0.441607 0.0216614 0)
(0.425713 0.021843 0)
(0.409614 0.0219953 0)
(0.393477 0.0222009 0)
(0.377505 0.0224369 0)
(0.36184 0.0226624 0)
(0.346466 0.0228988 0)
(0.331206 0.0231418 0)
(0.315841 0.0233872 0)
(0.300172 0.0236487 0)
(0.284064 0.0238799 0)
(0.267488 0.0240882 0)
(0.25052 0.0242878 0)
(0.233327 0.0245129 0)
(0.216072 0.0248365 0)
(0.198839 0.0252442 0)
(0.18159 0.0257625 0)
(0.164149 0.0263567 0)
(0.146315 0.0269134 0)
(0.127954 0.0274841 0)
(0.109079 0.028131 0)
(0.0898386 0.0289362 0)
(0.0703377 0.0298724 0)
(0.0505648 0.0308068 0)
(0.0305182 0.0312664 0)
(0.0103056 0.0317499 0)
(3 -9.38882e-17 0)
(3 7.9069e-17 0)
(3 2.03652e-16 0)
(3 3.69799e-16 0)
(3 4.87767e-16 0)
(3 9.66819e-16 0)
(3 1.05258e-15 0)
(3 5.41303e-16 0)
(3 7.49741e-16 0)
(3 5.92005e-16 0)
(3 9.46707e-16 0)
(3 1.93594e-16 0)
(3 -6.31258e-16 0)
(3 -1.20622e-15 0)
(3 -1.87263e-15 0)
(3 -1.56024e-15 0)
(3 4.04623e-17 0)
(3 7.94011e-16 0)
(3 6.81607e-16 0)
(3 8.99414e-16 0)
(3 5.10491e-16 0)
(3 4.32315e-17 0)
(3 -8.16165e-16 0)
(3 -1.81102e-15 0)
(3 -1.3253e-15 0)
(3 -5.17936e-16 0)
(3 -6.76383e-16 0)
(3 -6.2912e-17 0)
(3 2.15163e-16 0)
(3 3.39569e-16 0)
(3 8.89742e-16 0)
(3 9.28652e-16 0)
(3 7.40222e-16 0)
(3 4.87527e-16 0)
(3 8.41995e-16 0)
(3 2.04539e-15 0)
(3 2.71557e-15 0)
(3 2.91814e-15 0)
(3 2.50732e-15 0)
(3 2.52409e-15 0)
(3 3.18104e-15 0)
(3 2.25568e-15 0)
(3 1.29393e-15 0)
(3 3.08109e-16 0)
(3 -3.65581e-16 0)
(3 -2.81539e-16 0)
(3 -3.54841e-16 0)
(3 -7.21319e-16 0)
(3 -1.12088e-15 0)
(3 -1.02163e-15 0)
(3 -5.70085e-17 0)
(3 1.42094e-16 0)
(3 4.18008e-17 0)
(3 -3.63422e-16 0)
(3 -1.11945e-15 0)
(3 -1.83609e-15 0)
(3 -2.70078e-15 0)
(3 -3.29649e-15 0)
(3 -3.39529e-15 0)
(3 -2.05653e-15 0)
(3 -3.84452e-16 0)
(3 -1.61868e-16 0)
(3 -1.50575e-16 0)
(3 -3.75558e-16 0)
(3 1.6242e-17 0)
(3 1.71279e-17 0)
(3 -2.9503e-16 0)
(3 -1.16564e-15 0)
(3 -1.28499e-15 0)
(3 -1.61912e-15 0)
(3 -1.97615e-15 0)
(3 -1.69703e-15 0)
(3 2.3009e-16 0)
(3 1.24322e-15 0)
(3 1.09957e-15 0)
(3 1.3075e-15 0)
(3 1.90878e-15 0)
(3 3.23187e-15 0)
(3 1.22381e-15 0)
(3 9.35887e-16 0)
(3 7.59712e-16 0)
(3 -7.81075e-17 0)
(3 -8.31297e-16 0)
(3 -5.04224e-16 0)
(3 5.10133e-16 0)
(3 -4.76102e-16 0)
(3 -1.64114e-15 0)
(3 -9.54595e-16 0)
(3 -5.41083e-16 0)
(3 -7.29468e-16 0)
(3 -1.01544e-15 0)
(3 -1.29743e-15 0)
(3 -1.78615e-15 0)
(3 -5.02654e-16 0)
(3 1.15491e-16 0)
(3 -3.10187e-16 0)
(3 -4.4612e-16 0)
(3 -7.54964e-16 0)
(3 1.34924e-16 0)
(3 1.43569e-15 0)
(3 -4.9796e-16 0)
(3 -2.20195e-15 0)
(3 -1.94367e-15 0)
(3 -1.07309e-15 0)
(3 -5.81507e-16 0)
(3 -1.14563e-15 0)
(3 -2.65569e-15 0)
(3 -2.92917e-15 0)
(3 -2.459e-15 0)
(3 -6.15185e-16 0)
(3 4.42332e-17 0)
(3 -1.35165e-16 0)
(3 -1.53501e-16 0)
(3 -1.3281e-17 0)
(3 -2.30694e-16 0)
(3 -2.30645e-16 0)
(3 3.63725e-16 0)
(3 2.83406e-15 0)
(3 5.15533e-15 0)
(3 5.35992e-15 0)
(3 4.7266e-15 0)
(3 3.12181e-15 0)
(3 2.9824e-15 0)
(3 3.32765e-15 0)
(3 2.77271e-15 0)
(3 1.15579e-15 0)
(3 3.94111e-16 0)
(3 -1.29651e-17 0)
(3 4.3315e-16 0)
(3 1.75083e-15 0)
(3 2.23042e-15 0)
(3 3.48639e-15 0)
(3 4.4357e-15 0)
(3 2.62141e-15 0)
(3 9.82706e-16 0)
(3 -1.00713e-16 0)
(3 -1.93478e-15 0)
(3 -9.71878e-16 0)
(3 -7.02863e-16 0)
(3 6.94213e-16 0)
(3 2.29351e-15 0)
(3 1.8155e-15 0)
(3 5.95787e-15 0)
(2.76141 0.015703 0)
(0.955539 0.0303492 0)
(0.755401 0.0236509 0)
(0.742471 0.0332149 0)
(0.725349 0.0354859 0)
(0.709842 0.0344791 0)
(0.694615 0.0314576 0)
(0.680124 0.0284253 0)
(0.666307 0.0271305 0)
(0.65263 0.0281887 0)
(0.638202 0.0313618 0)
(0.622252 0.035013 0)
(0.605217 0.0359828 0)
(0.589174 0.0333772 0)
(0.574615 0.0307358 0)
(0.560933 0.0312007 0)
(0.547273 0.0335739 0)
(0.532781 0.0348548 0)
(0.517841 0.0347645 0)
(0.502575 0.0347446 0)
(0.487074 0.0350206 0)
(0.471532 0.0353568 0)
(0.455969 0.035842 0)
(0.440226 0.0363253 0)
(0.424223 0.0366271 0)
(0.408037 0.0368843 0)
(0.391829 0.0372416 0)
(0.375783 0.0376555 0)
(0.360027 0.0380413 0)
(0.344538 0.0384238 0)
(0.329138 0.0387947 0)
(0.313599 0.0391522 0)
(0.297719 0.0395314 0)
(0.281366 0.0398693 0)
(0.264526 0.0401824 0)
(0.247305 0.0404879 0)
(0.229904 0.0408253 0)
(0.212502 0.0412958 0)
(0.195169 0.0418605 0)
(0.17785 0.0425752 0)
(0.160384 0.0434196 0)
(0.142635 0.0442445 0)
(0.124552 0.0451597 0)
(0.106178 0.0462561 0)
(0.0876134 0.0476509 0)
(0.0688401 0.0492993 0)
(0.0497035 0.0509644 0)
(0.030115 0.051854 0)
(0.0101906 0.0528448 0)
(3 1.06156e-16 0)
(3 -9.37412e-17 0)
(3 -1.15364e-16 0)
(3 3.29026e-16 0)
(3 2.99734e-16 0)
(3 4.39778e-17 0)
(3 1.81957e-17 0)
(3 -6.80815e-16 0)
(3 -6.61386e-16 0)
(3 -2.10543e-16 0)
(3 -1.50489e-16 0)
(3 -3.53075e-17 0)
(3 7.85945e-16 0)
(3 -1.16469e-16 0)
(3 -1.08942e-15 0)
(3 -3.83777e-16 0)
(3 6.22925e-17 0)
(3 8.55713e-16 0)
(3 8.18603e-16 0)
(3 -8.47451e-16 0)
(3 -9.55922e-16 0)
(3 -6.96347e-16 0)
(3 -3.43018e-16 0)
(3 -3.47467e-16 0)
(3 -1.46665e-15 0)
(3 -2.0706e-15 0)
(3 -1.56346e-15 0)
(3 -7.46891e-16 0)
(3 1.20199e-16 0)
(3 1.63838e-15 0)
(3 3.06024e-15 0)
(3 3.44588e-15 0)
(3 3.19019e-15 0)
(3 2.27465e-15 0)
(3 1.27009e-15 0)
(3 1.53411e-15 0)
(3 2.37855e-15 0)
(3 2.51196e-15 0)
(3 2.07963e-15 0)
(3 1.60387e-15 0)
(3 1.21383e-15 0)
(3 2.17243e-15 0)
(3 2.6559e-15 0)
(3 2.183e-15 0)
(3 1.53052e-15 0)
(3 5.18137e-16 0)
(3 -1.22832e-15 0)
(3 -1.82651e-15 0)
(3 -2.52588e-15 0)
(3 -2.46314e-15 0)
(3 -2.52018e-15 0)
(3 -1.28696e-15 0)
(3 -1.93472e-16 0)
(3 -1.52116e-16 0)
(3 -2.11344e-16 0)
(3 -2.70645e-15 0)
(3 -2.73762e-15 0)
(3 -2.50646e-15 0)
(3 -3.45864e-15 0)
(3 -3.98092e-15 0)
(3 -2.69679e-15 0)
(3 -7.18864e-16 0)
(3 -1.10469e-16 0)
(3 -7.23287e-17 0)
(3 -3.06682e-16 0)
(3 -5.0976e-16 0)
(3 -6.46328e-16 0)
(3 -1.34833e-15 0)
(3 -2.60043e-15 0)
(3 -2.61703e-15 0)
(3 -2.40387e-15 0)
(3 -6.93132e-16 0)
(3 9.86982e-16 0)
(3 8.36439e-16 0)
(3 -3.18122e-16 0)
(3 -4.74536e-17 0)
(3 1.46743e-15 0)
(3 4.29968e-15 0)
(3 2.73935e-15 0)
(3 2.17295e-15 0)
(3 3.08489e-16 0)
(3 -4.45669e-16 0)
(3 -7.82313e-16 0)
(3 -6.25641e-16 0)
(3 -1.69862e-16 0)
(3 -8.03176e-16 0)
(3 -1.72059e-15 0)
(3 -2.2116e-15 0)
(3 -3.07878e-15 0)
(3 -4.09317e-15 0)
(3 -4.05251e-15 0)
(3 -4.08303e-15 0)
(3 -2.38361e-15 0)
(3 -1.04974e-15 0)
(3 -8.52492e-16 0)
(3 -1.01769e-15 0)
(3 -1.24494e-15 0)
(3 -8.26772e-16 0)
(3 1.69712e-16 0)
(3 5.7785e-17 0)
(3 -1.92308e-15 0)
(3 -2.6107e-15 0)
(3 -2.72662e-15 0)
(3 -1.89052e-15 0)
(3 -2.32294e-15 0)
(3 -2.97782e-15 0)
(3 -3.47165e-15 0)
(3 -3.68251e-15 0)
(3 -2.84495e-15 0)
(3 -1.6991e-15 0)
(3 -1.19196e-15 0)
(3 -1.08626e-15 0)
(3 -7.71731e-16 0)
(3 -4.63707e-16 0)
(3 9.67505e-16 0)
(3 1.83271e-15 0)
(3 2.34103e-15 0)
(3 4.03341e-15 0)
(3 6.11251e-15 0)
(3 7.58844e-15 0)
(3 6.47666e-15 0)
(3 5.19359e-15 0)
(3 3.44207e-15 0)
(3 2.62271e-15 0)
(3 2.17427e-15 0)
(3 -6.11399e-16 0)
(3 -2.33453e-15 0)
(3 -3.18521e-15 0)
(3 -2.50885e-15 0)
(3 8.7902e-17 0)
(3 2.525e-16 0)
(3 1.63199e-15 0)
(3 2.18898e-15 0)
(3 1.4921e-15 0)
(3 1.97749e-16 0)
(3 -1.00689e-15 0)
(3 -1.16073e-15 0)
(3 -7.50827e-16 0)
(3 -4.64112e-16 0)
(3 1.30802e-15 0)
(3 4.10994e-15 0)
(3 3.94869e-15 0)
(3 1.60761e-15 0)
(2.78879 0.0207375 0)
(0.965875 0.0436405 0)
(0.756969 0.0352745 0)
(0.74444 0.0452652 0)
(0.728684 0.0476488 0)
(0.713902 0.0466526 0)
(0.698827 0.0436825 0)
(0.683991 0.0405005 0)
(0.669537 0.0390597 0)
(0.655239 0.0403313 0)
(0.640576 0.0441576 0)
(0.624812 0.0483763 0)
(0.608124 0.0493598 0)
(0.592335 0.0462364 0)
(0.577572 0.0432055 0)
(0.563524 0.0440183 0)
(0.549695 0.0471339 0)
(0.53512 0.0486672 0)
(0.520213 0.0484092 0)
(0.504943 0.0484186 0)
(0.489365 0.0489208 0)
(0.47368 0.0494963 0)
(0.457959 0.0502415 0)
(0.442076 0.0509612 0)
(0.425965 0.0514144 0)
(0.409712 0.0518007 0)
(0.393467 0.0523343 0)
(0.377382 0.0529582 0)
(0.361551 0.0535451 0)
(0.345936 0.054121 0)
(0.330358 0.0546718 0)
(0.314592 0.0551908 0)
(0.298433 0.0557314 0)
(0.28175 0.0562219 0)
(0.264536 0.0566984 0)
(0.246914 0.0571761 0)
(0.229109 0.0576805 0)
(0.211307 0.0583176 0)
(0.193558 0.0590016 0)
(0.175794 0.0598053 0)
(0.157888 0.0607355 0)
(0.139798 0.0616326 0)
(0.121595 0.0626935 0)
(0.103389 0.06406 0)
(0.0852631 0.0659076 0)
(0.0670893 0.0681989 0)
(0.0485676 0.0705787 0)
(0.0294389 0.071924 0)
(0.00997511 0.0734922 0)
(3 8.51504e-17 0)
(3 -4.41025e-16 0)
(3 -6.27342e-17 0)
(3 5.49138e-17 0)
(3 -1.41147e-16 0)
(3 5.92729e-17 0)
(3 -1.73751e-16 0)
(3 -1.90918e-16 0)
(3 -3.91274e-16 0)
(3 -4.98097e-16 0)
(3 -2.26694e-16 0)
(3 2.98107e-16 0)
(3 1.65352e-16 0)
(3 -1.2571e-16 0)
(3 9.23512e-17 0)
(3 -1.74738e-16 0)
(3 -2.36875e-16 0)
(3 4.00123e-17 0)
(3 -1.40463e-16 0)
(3 -1.00762e-15 0)
(3 -1.30112e-15 0)
(3 -1.44958e-15 0)
(3 -5.28947e-16 0)
(3 -7.94075e-16 0)
(3 -2.87751e-15 0)
(3 -4.43786e-15 0)
(3 -3.61313e-15 0)
(3 -1.68629e-15 0)
(3 4.59607e-16 0)
(3 1.02128e-15 0)
(3 7.91254e-16 0)
(3 9.58783e-16 0)
(3 8.52295e-16 0)
(3 1.27104e-15 0)
(3 1.76744e-15 0)
(3 6.86347e-16 0)
(3 1.68177e-15 0)
(3 2.68341e-15 0)
(3 3.03595e-15 0)
(3 3.24667e-15 0)
(3 2.23274e-15 0)
(3 2.19462e-15 0)
(3 2.28483e-15 0)
(3 2.29883e-15 0)
(3 1.5939e-15 0)
(3 8.09663e-16 0)
(3 2.93116e-17 0)
(3 -3.99454e-16 0)
(3 -1.72503e-15 0)
(3 -2.92236e-15 0)
(3 -4.05878e-15 0)
(3 -3.42569e-15 0)
(3 -1.95784e-15 0)
(3 -1.64403e-15 0)
(3 -8.39765e-17 0)
(3 -1.63452e-16 0)
(3 -7.17753e-16 0)
(3 -1.56264e-15 0)
(3 -1.80918e-15 0)
(3 -2.68287e-15 0)
(3 -3.17989e-15 0)
(3 -2.22232e-15 0)
(3 -1.19097e-15 0)
(3 -4.95455e-16 0)
(3 -1.33825e-15 0)
(3 -1.07005e-15 0)
(3 -6.99699e-16 0)
(3 -1.574e-15 0)
(3 -2.16983e-15 0)
(3 -1.76279e-15 0)
(3 -1.70167e-15 0)
(3 -1.13995e-15 0)
(3 -7.75603e-16 0)
(3 3.67052e-17 0)
(3 9.53889e-16 0)
(3 1.77318e-15 0)
(3 4.01445e-15 0)
(3 4.59897e-15 0)
(3 3.64009e-15 0)
(3 2.46187e-15 0)
(3 2.06591e-15 0)
(3 1.41153e-15 0)
(3 7.73548e-16 0)
(3 -2.24898e-16 0)
(3 -1.78146e-16 0)
(3 6.42067e-16 0)
(3 1.03729e-15 0)
(3 1.75924e-16 0)
(3 -2.65006e-15 0)
(3 -4.06833e-15 0)
(3 -4.81433e-15 0)
(3 -4.71507e-15 0)
(3 -2.6789e-15 0)
(3 -1.60496e-15 0)
(3 -1.00055e-15 0)
(3 -3.63734e-16 0)
(3 -9.71492e-16 0)
(3 -1.2131e-15 0)
(3 -1.01861e-15 0)
(3 -5.24616e-16 0)
(3 -6.93968e-16 0)
(3 -1.4029e-15 0)
(3 -1.6366e-15 0)
(3 -2.11119e-15 0)
(3 -3.08213e-15 0)
(3 -3.18482e-15 0)
(3 -2.91881e-15 0)
(3 -2.67453e-15 0)
(3 -2.66579e-15 0)
(3 -2.07071e-15 0)
(3 -1.90052e-15 0)
(3 -1.35773e-15 0)
(3 -1.25014e-15 0)
(3 -7.20179e-16 0)
(3 7.34924e-16 0)
(3 3.46113e-15 0)
(3 4.73046e-15 0)
(3 4.927e-15 0)
(3 5.15933e-15 0)
(3 5.45085e-15 0)
(3 4.58447e-15 0)
(3 4.07549e-15 0)
(3 2.71225e-15 0)
(3 1.19821e-15 0)
(3 -1.21247e-15 0)
(3 -3.2008e-15 0)
(3 -4.04251e-15 0)
(3 -3.91496e-15 0)
(3 -3.13401e-15 0)
(3 -1.95961e-15 0)
(3 -1.31837e-15 0)
(3 7.60282e-16 0)
(3 1.21944e-15 0)
(3 7.30689e-16 0)
(3 -2.11727e-16 0)
(3 -3.36929e-16 0)
(3 -9.66121e-16 0)
(3 -6.17104e-16 0)
(3 8.92539e-16 0)
(3 2.35714e-15 0)
(3 3.11692e-15 0)
(3 4.15213e-15 0)
(3 -2.92769e-16 0)
(2.82204 0.0247061 0)
(0.979205 0.0565863 0)
(0.758505 0.0470783 0)
(0.745643 0.0566933 0)
(0.730702 0.0593079 0)
(0.716114 0.0588417 0)
(0.700985 0.0563402 0)
(0.685906 0.0532516 0)
(0.671168 0.0515925 0)
(0.656731 0.0527436 0)
(0.642327 0.0567812 0)
(0.627105 0.0612842 0)
(0.61087 0.0623362 0)
(0.595174 0.0591503 0)
(0.580086 0.0560307 0)
(0.565644 0.0571389 0)
(0.551669 0.060774 0)
(0.537091 0.0623931 0)
(0.522287 0.0619397 0)
(0.507054 0.0620265 0)
(0.491422 0.0628055 0)
(0.475587 0.0636451 0)
(0.45968 0.0646529 0)
(0.443625 0.065616 0)
(0.427387 0.0662366 0)
(0.411076 0.0667672 0)
(0.394838 0.0674877 0)
(0.378785 0.0683278 0)
(0.362963 0.0691182 0)
(0.347314 0.0698924 0)
(0.331665 0.0706352 0)
(0.315804 0.071331 0)
(0.299535 0.0720499 0)
(0.282722 0.0727166 0)
(0.265353 0.0733911 0)
(0.247544 0.0740897 0)
(0.229518 0.0748169 0)
(0.211457 0.0756708 0)
(0.19339 0.076503 0)
(0.175238 0.0773926 0)
(0.156904 0.0783788 0)
(0.138424 0.0792935 0)
(0.119976 0.0804132 0)
(0.101739 0.0819205 0)
(0.0837959 0.0840469 0)
(0.0659434 0.0867974 0)
(0.0477306 0.0897396 0)
(0.0289594 0.0914793 0)
(0.00979728 0.0935832 0)
(3 -4.54659e-17 0)
(3 2.78911e-16 0)
(3 3.98371e-16 0)
(3 -1.85202e-17 0)
(3 -5.90527e-17 0)
(3 2.79527e-16 0)
(3 1.11282e-15 0)
(3 1.26472e-15 0)
(3 1.01157e-15 0)
(3 7.797e-16 0)
(3 5.83159e-16 0)
(3 2.54987e-16 0)
(3 -1.69935e-16 0)
(3 2.99244e-16 0)
(3 5.73285e-16 0)
(3 4.59816e-17 0)
(3 -8.11663e-16 0)
(3 -1.51504e-15 0)
(3 -2.80687e-15 0)
(3 -2.23977e-15 0)
(3 -1.89885e-15 0)
(3 -2.18154e-15 0)
(3 -1.96641e-15 0)
(3 -2.35306e-15 0)
(3 -4.16669e-15 0)
(3 -3.76014e-15 0)
(3 -1.99295e-15 0)
(3 -1.48602e-16 0)
(3 1.79191e-16 0)
(3 -1.06732e-15 0)
(3 -1.84745e-15 0)
(3 -2.00359e-15 0)
(3 -1.425e-15 0)
(3 3.45918e-16 0)
(3 1.93901e-15 0)
(3 3.24669e-15 0)
(3 3.17729e-15 0)
(3 4.12494e-15 0)
(3 4.56593e-15 0)
(3 4.28532e-15 0)
(3 2.94956e-15 0)
(3 1.90923e-15 0)
(3 5.78757e-16 0)
(3 5.71849e-16 0)
(3 2.04148e-16 0)
(3 -5.40824e-16 0)
(3 -7.5473e-16 0)
(3 -3.94179e-16 0)
(3 -1.32958e-16 0)
(3 -6.24813e-16 0)
(3 -1.32179e-15 0)
(3 -1.40086e-15 0)
(3 -5.88921e-16 0)
(3 3.10925e-16 0)
(3 7.69633e-16 0)
(3 2.30224e-15 0)
(3 2.51651e-15 0)
(3 1.39488e-15 0)
(3 4.86458e-16 0)
(3 -7.01033e-16 0)
(3 -1.67636e-15 0)
(3 -2.02176e-15 0)
(3 -1.70021e-15 0)
(3 8.88982e-17 0)
(3 -5.55774e-16 0)
(3 -1.38236e-15 0)
(3 -1.99248e-15 0)
(3 -2.19816e-15 0)
(3 -2.12118e-15 0)
(3 -2.3171e-15 0)
(3 -1.62864e-15 0)
(3 -1.58376e-15 0)
(3 -9.31302e-16 0)
(3 -2.97236e-17 0)
(3 2.79228e-15 0)
(3 3.48751e-15 0)
(3 3.32883e-15 0)
(3 2.09698e-15 0)
(3 1.63754e-15 0)
(3 1.2938e-15 0)
(3 1.24116e-15 0)
(3 7.57767e-16 0)
(3 9.64482e-17 0)
(3 5.34864e-17 0)
(3 4.74977e-16 0)
(3 1.34845e-15 0)
(3 3.07187e-15 0)
(3 2.31313e-15 0)
(3 -1.01651e-15 0)
(3 -2.73854e-15 0)
(3 -3.43027e-15 0)
(3 -3.2251e-15 0)
(3 -2.12154e-15 0)
(3 -1.82571e-15 0)
(3 -1.01355e-15 0)
(3 -3.07077e-16 0)
(3 -1.72461e-16 0)
(3 -5.68448e-17 0)
(3 -6.03128e-17 0)
(3 3.73032e-16 0)
(3 1.18098e-15 0)
(3 9.87852e-16 0)
(3 1.71646e-16 0)
(3 -8.90779e-16 0)
(3 -8.23035e-16 0)
(3 -1.72986e-15 0)
(3 -2.02121e-15 0)
(3 -1.94416e-15 0)
(3 -2.0612e-15 0)
(3 -1.69649e-15 0)
(3 -1.81973e-15 0)
(3 -1.05568e-15 0)
(3 1.30324e-16 0)
(3 4.54105e-16 0)
(3 1.083e-15 0)
(3 2.1759e-15 0)
(3 3.87862e-15 0)
(3 4.17239e-15 0)
(3 4.07391e-15 0)
(3 3.18485e-15 0)
(3 2.25088e-15 0)
(3 1.76069e-15 0)
(3 7.68933e-16 0)
(3 -7.69285e-16 0)
(3 -1.76906e-15 0)
(3 -2.30805e-15 0)
(3 -1.96282e-15 0)
(3 -1.04743e-15 0)
(3 -8.31562e-16 0)
(3 -1.03022e-15 0)
(3 -4.05376e-16 0)
(3 3.02198e-16 0)
(3 1.43777e-16 0)
(3 -7.56347e-16 0)
(3 -3.68709e-16 0)
(3 9.0193e-16 0)
(3 1.42938e-15 0)
(3 1.96097e-15 0)
(3 1.41879e-15 0)
(3 6.95877e-16 0)
(3 1.48805e-16 0)
(3 8.95606e-16 0)
(3 1.40036e-15 0)
(2.85879 0.0276368 0)
(0.995558 0.0697531 0)
(0.759571 0.0597609 0)
(0.744895 0.0680479 0)
(0.730195 0.0707757 0)
(0.715742 0.070787 0)
(0.700986 0.0687584 0)
(0.686269 0.065884 0)
(0.671726 0.0641002 0)
(0.657307 0.0650657 0)
(0.642986 0.0691988 0)
(0.627951 0.0739374 0)
(0.611801 0.0752979 0)
(0.595962 0.0723666 0)
(0.580577 0.0693003 0)
(0.565864 0.0705745 0)
(0.551886 0.0744984 0)
(0.537453 0.0760941 0)
(0.52286 0.0754664 0)
(0.507768 0.0756775 0)
(0.4922 0.0767703 0)
(0.476316 0.0778801 0)
(0.4603 0.0791309 0)
(0.44413 0.0803252 0)
(0.427814 0.0811181 0)
(0.411505 0.0818005 0)
(0.395353 0.0827067 0)
(0.379433 0.083751 0)
(0.363734 0.0847258 0)
(0.34817 0.0856861 0)
(0.33257 0.0866297 0)
(0.316746 0.0875287 0)
(0.300516 0.0884589 0)
(0.283741 0.0893328 0)
(0.266393 0.0902323 0)
(0.24856 0.0911808 0)
(0.230441 0.0921604 0)
(0.21221 0.0932593 0)
(0.193895 0.0942643 0)
(0.175439 0.0952549 0)
(0.156782 0.0963051 0)
(0.138013 0.0972347 0)
(0.119375 0.0983885 0)
(0.101081 0.0999717 0)
(0.0831813 0.102241 0)
(0.0654627 0.105282 0)
(0.0472927 0.108646 0)
(0.0287206 0.110703 0)
(0.0097034 0.113265 0)
(3 7.34015e-17 0)
(3 6.02969e-16 0)
(3 1.11373e-15 0)
(3 1.04297e-15 0)
(3 1.32895e-15 0)
(3 9.92526e-16 0)
(3 1.96729e-15 0)
(3 2.05574e-15 0)
(3 1.4829e-15 0)
(3 1.32711e-15 0)
(3 9.51039e-16 0)
(3 5.80344e-16 0)
(3 4.1386e-16 0)
(3 8.52141e-17 0)
(3 -3.01295e-16 0)
(3 -1.84336e-16 0)
(3 -9.38474e-16 0)
(3 -1.99974e-15 0)
(3 -2.60611e-15 0)
(3 -2.49316e-15 0)
(3 -2.65337e-15 0)
(3 -2.7901e-15 0)
(3 -2.70768e-15 0)
(3 -2.44564e-15 0)
(3 -3.04715e-15 0)
(3 -3.15914e-15 0)
(3 -6.44988e-16 0)
(3 1.42886e-17 0)
(3 -1.33149e-15 0)
(3 -2.14369e-15 0)
(3 -2.18655e-15 0)
(3 -1.88012e-15 0)
(3 -2.1068e-16 0)
(3 7.06974e-16 0)
(3 1.45025e-15 0)
(3 1.84414e-15 0)
(3 1.4371e-15 0)
(3 1.06622e-15 0)
(3 1.67749e-15 0)
(3 1.7962e-15 0)
(3 6.34356e-16 0)
(3 -3.54293e-16 0)
(3 -3.07977e-16 0)
(3 -5.94607e-17 0)
(3 -4.85572e-16 0)
(3 -1.40485e-15 0)
(3 -1.73622e-15 0)
(3 -1.76191e-15 0)
(3 -1.58461e-15 0)
(3 -9.91459e-16 0)
(3 -5.98877e-16 0)
(3 -5.74511e-16 0)
(3 2.48224e-16 0)
(3 8.34051e-16 0)
(3 6.20624e-16 0)
(3 1.34219e-15 0)
(3 9.13985e-16 0)
(3 8.85744e-16 0)
(3 6.70023e-16 0)
(3 -5.66136e-16 0)
(3 -1.23817e-15 0)
(3 -2.10436e-15 0)
(3 -1.96937e-15 0)
(3 -6.40926e-16 0)
(3 7.58621e-16 0)
(3 -4.45333e-17 0)
(3 -1.58175e-15 0)
(3 -1.75001e-15 0)
(3 -1.61539e-15 0)
(3 -1.31169e-15 0)
(3 -2.24811e-15 0)
(3 -4.86104e-16 0)
(3 1.78005e-16 0)
(3 1.26446e-15 0)
(3 2.42006e-15 0)
(3 2.6771e-15 0)
(3 1.31658e-15 0)
(3 -3.20397e-17 0)
(3 -5.31108e-17 0)
(3 4.32061e-16 0)
(3 7.83637e-16 0)
(3 4.1281e-16 0)
(3 2.0322e-16 0)
(3 -4.93066e-16 0)
(3 -6.56817e-16 0)
(3 2.66283e-16 0)
(3 5.86134e-16 0)
(3 -2.63746e-16 0)
(3 -2.22838e-15 0)
(3 -4.77003e-15 0)
(3 -4.28743e-15 0)
(3 -2.41041e-15 0)
(3 -8.48145e-16 0)
(3 -2.90878e-16 0)
(3 4.72448e-16 0)
(3 3.92351e-16 0)
(3 2.29081e-16 0)
(3 -2.56929e-16 0)
(3 -1.05618e-15 0)
(3 -5.04705e-16 0)
(3 2.33527e-16 0)
(3 9.67098e-16 0)
(3 3.40678e-16 0)
(3 -9.80062e-16 0)
(3 -2.11349e-15 0)
(3 -1.98999e-15 0)
(3 -1.0463e-15 0)
(3 -1.27318e-15 0)
(3 -1.27e-15 0)
(3 -1.5539e-15 0)
(3 -1.46444e-15 0)
(3 -9.92567e-16 0)
(3 -1.93812e-16 0)
(3 -2.8426e-16 0)
(3 -7.88821e-17 0)
(3 1.43495e-15 0)
(3 1.37478e-15 0)
(3 5.37594e-16 0)
(3 -1.25246e-16 0)
(3 -8.40928e-16 0)
(3 -1.44072e-15 0)
(3 -7.6616e-16 0)
(3 -5.49287e-16 0)
(3 -9.86318e-16 0)
(3 -1.75881e-15 0)
(3 -2.36676e-15 0)
(3 -2.14206e-15 0)
(3 -7.68232e-16 0)
(3 -2.63626e-16 0)
(3 -2.03901e-16 0)
(3 1.12601e-16 0)
(3 4.61919e-16 0)
(3 5.85752e-16 0)
(3 1.19016e-15 0)
(3 2.15429e-15 0)
(3 2.95302e-15 0)
(3 3.96383e-15 0)
(3 3.70331e-15 0)
(3 2.95036e-15 0)
(3 1.17789e-15 0)
(3 5.25936e-16 0)
(3 1.57352e-16 0)
(3 2.09036e-15 0)
(2.89735 0.0306534 0)
(1.01519 0.0844439 0)
(0.760153 0.0732028 0)
(0.744426 0.0794485 0)
(0.730886 0.0820006 0)
(0.717521 0.0822377 0)
(0.703835 0.0806487 0)
(0.68976 0.0782144 0)
(0.675325 0.0766457 0)
(0.660572 0.0776532 0)
(0.645777 0.0818481 0)
(0.630437 0.0867129 0)
(0.614177 0.0883215 0)
(0.598309 0.0856768 0)
(0.5829 0.082737 0)
(0.568147 0.0841131 0)
(0.554232 0.0881917 0)
(0.539862 0.0897527 0)
(0.525283 0.0890112 0)
(0.510151 0.0893827 0)
(0.494521 0.0908147 0)
(0.478492 0.092207 0)
(0.462269 0.0936918 0)
(0.445863 0.0951118 0)
(0.429323 0.0960818 0)
(0.412849 0.096914 0)
(0.396614 0.0979885 0)
(0.380667 0.0992068 0)
(0.364943 0.10033 0)
(0.349325 0.101447 0)
(0.333641 0.102586 0)
(0.317726 0.103708 0)
(0.30144 0.104886 0)
(0.284654 0.106005 0)
(0.267331 0.107154 0)
(0.249525 0.108365 0)
(0.231389 0.109598 0)
(0.213083 0.110944 0)
(0.194644 0.112139 0)
(0.17605 0.113264 0)
(0.157277 0.114423 0)
(0.138432 0.115409 0)
(0.11977 0.116619 0)
(0.101477 0.11826 0)
(0.0835382 0.120598 0)
(0.0657182 0.123798 0)
(0.047529 0.127505 0)
(0.028844 0.129798 0)
(0.00974055 0.132766 0)
(3 -3.88505e-17 0)
(3 2.30177e-17 0)
(3 4.83968e-16 0)
(3 1.17449e-15 0)
(3 1.19549e-15 0)
(3 8.93608e-16 0)
(3 7.36659e-16 0)
(3 9.5451e-16 0)
(3 1.12893e-15 0)
(3 1.01596e-15 0)
(3 1.16305e-15 0)
(3 1.29205e-15 0)
(3 1.69352e-15 0)
(3 1.55921e-15 0)
(3 9.03484e-16 0)
(3 1.01057e-15 0)
(3 4.56501e-16 0)
(3 5.25458e-16 0)
(3 -3.67523e-16 0)
(3 -1.71609e-15 0)
(3 -2.11951e-15 0)
(3 -1.78118e-15 0)
(3 -1.30257e-15 0)
(3 -1.41492e-15 0)
(3 -1.01216e-15 0)
(3 -9.35185e-16 0)
(3 -1.65027e-15 0)
(3 -1.5479e-15 0)
(3 -1.73831e-15 0)
(3 -1.79757e-15 0)
(3 -1.58723e-15 0)
(3 -1.22305e-15 0)
(3 -1.13075e-15 0)
(3 -6.22882e-16 0)
(3 -2.05465e-16 0)
(3 1.30906e-16 0)
(3 1.81763e-17 0)
(3 -8.5903e-16 0)
(3 -1.12758e-15 0)
(3 -1.73449e-15 0)
(3 -2.19959e-15 0)
(3 -1.04682e-15 0)
(3 -1.47584e-15 0)
(3 -1.5059e-15 0)
(3 -1.64175e-15 0)
(3 -2.49807e-15 0)
(3 -3.1307e-15 0)
(3 -2.11624e-15 0)
(3 -1.065e-15 0)
(3 -1.07591e-15 0)
(3 -2.45108e-16 0)
(3 -4.53159e-16 0)
(3 -7.42728e-16 0)
(3 -8.02477e-16 0)
(3 -1.53357e-15 0)
(3 -8.00343e-16 0)
(3 3.43051e-16 0)
(3 1.38341e-15 0)
(3 1.38686e-15 0)
(3 -7.55218e-16 0)
(3 -4.01161e-16 0)
(3 -3.08718e-16 0)
(3 -4.34689e-18 0)
(3 -3.22677e-16 0)
(3 8.65498e-16 0)
(3 -1.61369e-17 0)
(3 -3.90892e-16 0)
(3 -5.73379e-16 0)
(3 -1.40713e-15 0)
(3 -2.0422e-15 0)
(3 8.49693e-16 0)
(3 1.64021e-15 0)
(3 2.06281e-15 0)
(3 2.14124e-15 0)
(3 2.05288e-15 0)
(3 1.21654e-15 0)
(3 -2.44922e-16 0)
(3 -7.9025e-16 0)
(3 -7.05472e-16 0)
(3 -4.73388e-17 0)
(3 2.46855e-16 0)
(3 6.29749e-16 0)
(3 5.40396e-16 0)
(3 7.20811e-16 0)
(3 1.47356e-15 0)
(3 1.22373e-15 0)
(3 6.81778e-16 0)
(3 -3.21905e-16 0)
(3 -6.85365e-16 0)
(3 -1.93719e-15 0)
(3 -2.69122e-15 0)
(3 -2.64052e-15 0)
(3 -2.21133e-15 0)
(3 -1.73642e-15 0)
(3 -2.55574e-15 0)
(3 -2.21979e-15 0)
(3 -1.13365e-15 0)
(3 -8.7018e-16 0)
(3 -8.5593e-16 0)
(3 -9.32853e-16 0)
(3 -1.19841e-15 0)
(3 -1.05135e-15 0)
(3 -1.0268e-15 0)
(3 -1.23491e-15 0)
(3 -1.46445e-15 0)
(3 -2.26246e-15 0)
(3 -2.38901e-15 0)
(3 -1.67732e-15 0)
(3 -5.22838e-16 0)
(3 -8.53919e-16 0)
(3 -6.55334e-16 0)
(3 -3.41316e-16 0)
(3 -7.37152e-18 0)
(3 2.19425e-16 0)
(3 4.18955e-16 0)
(3 7.528e-16 0)
(3 -9.44506e-16 0)
(3 -1.09918e-15 0)
(3 -1.82993e-15 0)
(3 -2.9136e-15 0)
(3 -3.75273e-15 0)
(3 -3.58632e-15 0)
(3 -1.33575e-15 0)
(3 -5.19397e-16 0)
(3 -7.87971e-16 0)
(3 -1.12423e-15 0)
(3 -1.2194e-15 0)
(3 -5.27358e-16 0)
(3 -3.71842e-16 0)
(3 1.58184e-16 0)
(3 3.25897e-16 0)
(3 3.65539e-16 0)
(3 6.96322e-16 0)
(3 4.5435e-16 0)
(3 2.53993e-15 0)
(3 3.69776e-15 0)
(3 4.17068e-15 0)
(3 1.91295e-15 0)
(3 8.14545e-16 0)
(3 4.62255e-16 0)
(3 8.34757e-16 0)
(3 1.48788e-15 0)
(3 1.28154e-15 0)
(2.9396 0.0322277 0)
(1.04017 0.0999179 0)
(0.764568 0.0871528 0)
(0.749 0.0902562 0)
(0.736551 0.0920533 0)
(0.72392 0.0922026 0)
(0.710834 0.0911863 0)
(0.696995 0.0897161 0)
(0.682359 0.0890406 0)
(0.667008 0.0905842 0)
(0.65142 0.0949429 0)
(0.635507 0.0997473 0)
(0.619134 0.10129 0)
(0.603445 0.0987625 0)
(0.588228 0.095974 0)
(0.573563 0.0974779 0)