/*--------------------------------*- C++ -*----------------------------------*\
  =========                 |
  \\      /  F ield         | OpenFOAM: The Open Source CFD Toolbox
   \\    /   O peration     | Website:  https://openfoam.org
    \\  /    A nd           | Version:  7
     \\/     M anipulation  |
\*---------------------------------------------------------------------------*/
FoamFile
{
    version     2.0;
    format      ascii;
    class       volScalarField;
    location    "0.6";
    object      rho;
}
// * * * * * * * * * * * * * * * * * * * * * * * * * * * * * * * * * * * * * //

dimensions      [1 -3 0 0 0 0 0];

internalField   nonuniform List<scalar> 
4128
(
1.40001
1.40001
1.40001
1.40001
1.40001
1.40001
1.40001
1.40001
1.40001
1.40001
1.40001
1.40001
1.40001
1.40001
1.40001
1.40001
1.40001
1.40001
3.18684
5.34429
5.51738
5.61831
5.68436
5.72565
1.40001
1.40001
1.40001
1.40001
1.40001
1.40001
1.40001
1.40001
1.40001
1.40001
1.40001
1.40001
1.40001
1.40001
1.40001
1.40001
1.40001
1.40001
3.05638
5.27107
5.48718
5.57453
5.62056
5.62132
1.40001
1.40001
1.40001
1.40001
1.40001
1.40001
1.40001
1.40001
1.40001
1.40001
1.40001
1.40001
1.40001
1.40001
1.40001
1.40001
1.40001
1.40001
2.78765
5.15684
5.42013
5.45889
5.45738
5.45936
1.40001
1.40001
1.40001
1.40001
1.40001
1.40001
1.40001
1.40001
1.40001
1.40001
1.40001
1.40001
1.40001
1.40001
1.40001
1.40001
1.40001
1.40001
2.39609
4.9715
5.36478
5.36955
5.31154
5.30081
1.40001
1.40001
1.40001
1.40001
1.40001
1.40001
1.40001
1.40001
1.40001
1.40001
1.40001
1.40001
1.40001
1.40001
1.40001
1.40001
1.40001
1.40001
1.90705
4.67246
5.29133
5.21096
4.91145
4.08586
1.40001
1.40001
1.40001
1.40001
1.40001
1.40001
1.40001
1.40001
1.40001
1.40001
1.40001
1.40001
1.40001
1.40001
1.40001
1.40001
1.40001
1.40001
1.47663
3.99794
5.13825
4.99913
4.66072
3.87518
1.40001
1.40001
1.40001
1.40001
1.40001
1.40001
1.40001
1.40001
1.40001
1.40001
1.40001
1.40001
1.40001
1.40001
1.40001
1.40001
1.40001
1.40001
1.40085
2.97908
4.92765
4.84582
4.53465
3.8486
1.40001
1.40001
1.40001
1.40001
1.40001
1.40001
1.40001
1.40001
1.40001
1.40001
1.40001
1.40001
1.40001
1.40001
1.40001
1.40001
1.40001
1.40001
1.4
1.82997
4.52094
4.8469
4.42051
3.84993
1.40001
1.40001
1.40001
1.40001
1.40001
1.40001
1.40001
1.40001
1.40001
1.40001
1.40001
1.40001
1.40001
1.40001
1.40001
1.40001
1.40001
1.40001
1.4
1.42878
3.46438
4.68748
4.33178
3.85221
1.40001
1.40001
1.40001
1.40001
1.40001
1.40001
1.40001
1.40001
1.40001
1.40001
1.40001
1.40001
1.40001
1.40001
1.40001
1.40001
1.40001
1.40001
1.4
1.40003
2.02379
4.28367
4.40978
3.95487
1.40001
1.40001
1.40001
1.40001
1.40001
1.40001
1.40001
1.40001
1.40001
1.40001
1.40001
1.40001
1.40001
1.40001
1.40001
1.40001
1.40001
1.40001
1.40001
1.4
1.45622
3.11304
4.36258
4.0453
1.40001
1.40001
1.40001
1.40001
1.40001
1.40001
1.40001
1.40001
1.40001
1.40001
1.40001
1.40001
1.40001
1.40001
1.40001
1.40001
1.40001
1.40001
1.40001
1.4
1.40051
1.82434
3.75087
4.1737
1.40001
1.40001
1.40001
1.40001
1.40001
1.40001
1.40001
1.40001
1.40001
1.40001
1.40001
1.40001
1.40001
1.40001
1.40001
1.40001
1.40001
1.40001
1.40001
1.4
1.40001
1.42246
2.38103
3.88312
1.40001
1.40001
1.40001
1.40001
1.40001
1.40001
1.40001
1.40001
1.40001
1.40001
1.40001
1.40001
1.40001
1.40001
1.40001
1.40001
1.40001
1.40001
1.40001
1.40001
1.40001
1.4002
1.52753
2.82086
1.40001
1.40001
1.40001
1.40001
1.40001
1.40001
1.40001
1.40001
1.40001
1.40001
1.40001
1.40001
1.40001
1.40001
1.40001
1.40001
1.40001
1.40001
1.40001
1.40001
1.40001
1.40001
1.40295
1.69656
1.40001
1.40001
1.40001
1.40001
1.40001
1.40001
1.40001
1.40001
1.40001
1.40001
1.40001
1.40001
1.40001
1.40001
1.40001
1.40001
1.40001
1.40001
1.40001
1.40001
1.40001
1.40001
1.40002
1.41308
1.40001
1.40001
1.40001
1.40001
1.40001
1.40001
1.40001
1.40001
1.40001
1.40001
1.40001
1.40001
1.40001
1.40001
1.40001
1.40001
1.40001
1.40001
1.40001
1.40001
1.40001
1.40001
1.40001
1.40011
1.40001
1.40001
1.40001
1.40001
1.40001
1.40001
1.40001
1.40001
1.40001
1.40001
1.40001
1.40001
1.40001
1.40001
1.40001
1.40001
1.40001
1.40001
1.40001
1.40001
1.40001
1.40001
1.40001
1.40001
1.40001
1.40001
1.40001
1.40001
1.40001
1.40001
1.40001
1.40001
1.40001
1.40001
1.40001
1.40001
1.40001
1.40001
1.40001
1.40001
1.40001
1.40001
1.40001
1.40001
1.40001
1.40001
1.40001
1.40001
1.40001
1.40001
1.40001
1.40001
1.40001
1.40001
1.40001
1.40001
1.40001
1.40001
1.40001
1.40001
1.40001
1.40001
1.40001
1.40001
1.40001
1.40001
1.40001
1.40001
1.40001
1.40001
1.40001
1.40001
1.40001
1.40001
1.40001
1.40001
1.40001
1.40001
1.40001
1.40001
1.40001
1.40001
1.40001
1.40001
1.40001
1.40001
1.40001
1.40001
1.40001
1.40001
1.40001
1.40001
1.40001
1.40001
1.40001
1.40001
1.40001
1.40001
1.40001
1.40001
1.40001
1.40001
1.40001
1.40001
1.40001
1.40001
1.40001
1.40001
1.40001
1.40001
1.40001
1.40001
1.40001
1.40001
1.40001
1.40001
1.40001
1.40001
1.40001
1.40001
1.40001
1.40001
1.40001
1.40001
1.40001
1.40001
1.40001
1.40001
1.40001
1.40001
1.40001
1.40001
1.40001
1.40001
1.40001
1.40001
1.40001
1.40001
1.40001
1.40001
1.40001
1.40001
1.40001
1.40001
1.40001
1.40001
1.40001
1.40001
1.40001
1.40001
1.40001
1.40001
1.40001
1.40001
1.40001
1.40001
1.40001
1.40001
1.40001
1.40001
1.40001
1.40001
1.40001
1.40001
1.40001
1.40001
1.40001
1.40001
1.40001
1.40001
1.40001
1.40001
1.40001
1.40001
1.40001
1.40001
1.40001
1.40001
1.40001
1.40001
1.40001
1.40001
1.40001
1.40001
1.40001
1.40001
1.40001
1.40001
1.40001
1.40001
1.40001
1.40001
1.40001
1.40001
1.40001
1.40001
1.40001
1.40001
1.40001
1.40001
1.40001
1.40001
1.40001
1.40001
1.40001
1.40001
1.40001
1.40001
1.40001
1.40001
1.40001
1.40001
1.40001
1.40001
1.40001
1.40001
1.40001
1.40001
1.40001
1.40001
1.40001
1.40001
1.40001
1.40001
1.40001
1.40001
1.40001
1.40001
1.40001
1.40001
1.40001
1.40001
1.40001
1.40001
1.40001
1.40001
1.40001
1.40001
1.40001
1.40001
1.40001
1.40001
1.40001
1.40001
1.40001
1.40001
1.40001
1.40001
1.40001
1.40001
1.40001
1.40001
1.40001
1.40001
1.40001
1.40001
1.40001
1.40001
1.40001
1.40001
1.40001
1.40001
1.40001
1.40001
1.40001
1.40001
1.40001
1.40001
1.40001
1.40001
1.40001
1.40001
1.40001
1.40001
1.40001
1.40001
1.40001
1.40001
1.40001
1.40001
1.40001
1.40001
1.40001
1.40001
1.40001
1.40001
1.40001
1.40001
1.40001
1.40001
1.40001
1.40001
1.40001
1.40001
1.40001
1.40001
1.40001
1.40001
1.40001
1.40001
1.40001
1.40001
1.40001
1.40001
1.40001
1.40001
1.40001
1.40001
1.40001
1.40001
1.40001
1.40001
1.40001
1.40001
1.40001
1.40001
1.40001
1.40001
1.40001
1.40001
1.40001
1.40001
1.40001
1.40001
1.40001
1.40001
1.40001
1.40001
1.40001
1.40001
1.40001
1.40001
1.40001
1.40001
1.40001
1.40001
1.40001
1.40001
1.40001
1.40001
1.40001
1.40001
1.40001
1.40001
1.40001
1.40001
1.40001
1.40001
1.40001
1.40001
1.40001
1.40001
1.40001
1.40001
1.40001
1.40001
1.40001
1.40001
1.40001
1.40001
1.40001
1.40001
1.40001
1.40001
1.40001
1.40001
1.40001
1.40001
1.40001
1.40001
1.40001
1.40001
1.40001
1.40001
1.40001
1.40001
1.40001
1.40001
1.40001
1.40001
1.40001
1.40001
1.40001
1.40001
1.40001
1.40001
1.40001
1.40001
1.40001
1.40001
1.40001
1.40001
1.40001
1.40001
1.40001
1.40001
1.40001
1.40001
1.40001
1.40001
1.40001
1.40001
1.40001
1.40001
1.40001
1.40001
1.40001
1.40001
1.40001
1.40001
1.40001
1.40001
1.40001
1.40001
1.40001
1.40001
1.40001
1.40001
1.40001
1.40001
1.40001
1.40001
1.40001
1.40001
1.40001
1.40001
1.40001
1.40001
1.40001
1.40001
1.40001
1.40001
1.40001
1.40001
1.40001
1.40001
1.40001
1.40001
1.40001
1.40001
1.40001
1.40001
1.40001
1.40001
1.40001
1.40001
1.40001
1.40001
1.40001
1.40001
1.40001
1.40001
1.40001
1.40001
1.40001
1.40001
1.40001
1.40001
1.40001
1.40001
1.40001
1.40001
1.40001
1.40001
1.40001
1.40001
1.40001
1.40001
1.40001
1.40001
1.40001
1.40001
1.40001
1.40001
1.40001
1.40001
1.40001
1.40001
1.40001
1.40001
1.40001
1.40001
1.40001
1.40001
1.40001
1.40001
1.40001
1.40001
1.40001
1.40001
1.40001
1.40001
1.40001
1.40001
1.40001
1.40001
1.40001
1.40001
1.40001
1.40001
1.40001
1.40001
1.40001
1.40001
1.40001
1.40001
1.40001
1.40001
1.40001
1.40001
1.40001
1.40001
1.40001
1.40001
1.40001
1.40001
1.40001
1.40001
1.40001
1.40001
1.40001
1.40001
1.40001
1.40001
1.40001
1.40001
1.40001
1.40001
1.40001
1.40001
1.40001
1.40001
1.40001
1.40001
1.40001
1.40001
1.40001
1.40001
1.40001
1.40001
1.40001
1.40001
1.40001
1.40001
1.40001
1.40001
1.40001
1.40001
1.40001
1.40001
1.40001
1.40001
1.52962
0.741956
0.426377
0.415175
0.485878
0.580696
0.664202
0.787267
0.887965
0.925491
0.912373
0.899144
0.907052
0.930385
0.934823
1.16328
2.14051
2.37572
2.37542
2.30182
2.26629
2.33333
2.49573
2.65355
2.22956
1.53854
1.13885
0.905642
0.86567
0.829364
0.780417
0.773708
0.796586
0.832275
0.843777
0.864032
0.894535
0.931315
0.937664
1.12259
2.11796
2.41166
2.40368
2.32199
2.27581
2.33468
2.47963
2.61392
2.77575
2.09475
1.69571
1.36577
1.12994
1.02879
0.934862
0.825949
0.818079
0.843475
0.872784
0.901365
0.932443
0.967708
0.972557
1.03314
2.06376
2.52472
2.49577
2.38896
2.30458
2.31477
2.40528
2.52719
3.09711
2.49034
2.07819
1.77878
1.47756
1.30397
1.20191
1.05294
0.969027
0.946169
0.91871
0.896503
0.90362
0.924127
0.945022
0.965138
1.82435
2.59515
2.59726
2.49323
2.35811
2.30776
2.33429
2.43988
3.29495
2.81524
2.3985
2.07795
1.78983
1.54751
1.41853
1.28932
1.13961
1.06469
1.00481
0.926693
0.905913
0.909283
0.913999
0.916066
1.39159
2.60124
2.73537
2.63533
2.45497
2.28894
2.15005
1.89965
3.47312
3.04589
2.65693
2.33152
2.05434
1.7949
1.61656
1.48177
1.33815
1.24025
1.171
1.07129
1.00132
0.969243
0.951454
0.935514
1.01961
2.25695
2.79872
2.73561
2.56394
2.32684
2.07955
1.78465
3.6012
3.20543
2.8545
2.55096
2.27402
2.01012
1.82172
1.67894
1.51176
1.38324
1.30952
1.22742
1.14441
1.08532
1.02964
0.965122
0.963734
1.64967
2.75074
2.79132
2.65914
2.40642
2.09864
1.78173
3.79751
3.39779
3.04904
2.76496
2.50852
2.22719
2.00149
1.86315
1.71598
1.57161
1.46984
1.36009
1.26527
1.21152
1.16483
1.10221
1.03359
1.16023
2.37186
2.82961
2.73881
2.52412
2.21323
1.8862
3.93642
3.6193
3.24447
2.93014
2.6882
2.44413
2.21063
2.03981
1.88045
1.72869
1.62837
1.53469
1.42398
1.33541
1.27001
1.21521
1.14368
1.13195
1.70239
2.79333
2.7778
2.62853
2.3689
2.0555
3.8158
3.77126
3.48036
3.14459
2.87957
2.62795
2.38556
2.22381
2.08262
1.92125
1.78085
1.67226
1.55899
1.47903
1.41758
1.34108
1.26117
1.18515
1.27942
2.29643
2.82676
2.74373
2.54758
2.26916
3.02843
3.7213
3.66629
3.38828
3.08929
2.83866
2.59894
2.39007
2.23195
2.09178
1.97076
1.86626
1.73166
1.59786
1.53319
1.4728
1.4098
1.3149
1.27341
1.63683
2.62851
2.83269
2.70419
2.47838
1.83048
3.08189
3.62118
3.58462
3.35895
3.0623
2.80188
2.59658
2.43415
2.26819
2.10695
2.00703
1.90428
1.78597
1.68714
1.58701
1.523
1.44899
1.34478
1.37742
2.04936
2.80177
2.80672
2.65728
1.42665
1.8904
3.03306
3.53861
3.52146
3.34569
3.06554
2.80161
2.60248
2.44605
2.30806
2.18547
2.05604
1.92023
1.81724
1.73234
1.65746
1.59531
1.48411
1.41048
1.54974
2.3816
2.86778
2.80119
1.40031
1.43433
1.88031
2.93287
3.47111
3.45368
3.32045
3.08433
2.84891
2.62416
2.44897
2.33626
2.23568
2.12673
1.99186
1.83483
1.75438
1.72535
1.66804
1.53626
1.51849
1.80394
2.58832
2.90244
1.40001
1.40045
1.43389
1.8251
2.80212
3.37632
3.38241
3.32508
3.12686
2.88148
2.6881
2.51319
2.32275
2.25157
2.1829
2.06613
1.91729
1.81021
1.77112
1.68925
1.59673
1.62007
2.02666
2.69387
1.40001
1.40001
1.40046
1.42721
1.74874
2.59221
3.22538
3.35769
3.31998
3.15387
2.92912
2.74029
2.56032
2.36423
2.2685
2.2228
2.11234
1.97834
1.91118
1.82802
1.71464
1.66602
1.72418
2.18161
1.40001
1.40001
1.40001
1.40035
1.41831
1.65556
2.33683
3.10539
3.30651
3.26111
3.1574
2.97022
2.79989
2.60247
2.4387
2.35428
2.25813
2.12664
2.05942
1.98577
1.86864
1.76999
1.74514
1.82602
1.40001
1.40001
1.40001
1.40001
1.40019
1.41137
1.5546
2.11555
2.93984
3.17626
3.17655
3.16185
3.0432
2.86976
2.67107
2.52214
2.41283
2.27519
2.19186
2.12636
2.01885
1.91541
1.82689
1.83707
1.40001
1.40001
1.40001
1.40001
1.40001
1.4001
1.40527
1.48264
1.94887
2.60528
3.04537
3.17018
3.16268
3.10198
2.94347
2.74468
2.60397
2.44338
2.307
2.25603
2.17892
2.06297
1.96893
1.89336
1.40001
1.40001
1.40001
1.40001
1.40001
1.40001
1.40004
1.40195
1.44815
1.72785
2.29454
2.85032
3.11534
3.10593
3.07093
2.9692
2.82434
2.67144
2.48817
2.38353
2.31391
2.21606
2.12131
2.01921
1.40001
1.40001
1.40001
1.40001
1.40001
1.40001
1.40001
1.40001
1.40081
1.4204
1.54881
1.98821
2.62854
2.98199
3.03628
3.02089
2.98103
2.88152
2.72436
2.56341
2.45759
2.35958
2.2718
2.18599
1.40001
1.40001
1.40001
1.40001
1.40001
1.40001
1.40001
1.40001
1.40001
1.40022
1.40468
1.46765
1.74016
2.27345
2.72699
2.98407
2.99095
2.97384
2.90932
2.76691
2.63624
2.51844
2.40915
2.32668
1.40001
1.40001
1.40001
1.40001
1.40001
1.40001
1.40001
1.40001
1.40001
1.40001
1.40003
1.40152
1.42069
1.56145
1.94048
2.43504
2.77375
2.93786
2.92544
2.88598
2.81916
2.72011
2.5972
2.47714
1.40001
1.40001
1.40001
1.40001
1.40001
1.40001
1.40001
1.40001
1.40001
1.40001
1.40001
1.40001
1.40022
1.4065
1.45351
1.67305
2.08301
2.55521
2.73939
2.84197
2.8347
2.81685
2.77646
2.6923
1.40001
1.40001
1.40001
1.40001
1.40001
1.40001
1.40001
1.40001
1.40001
1.40001
1.40001
1.40001
1.40001
1.40005
1.40093
1.41682
1.4979
1.77101
2.18833
2.57174
2.70474
2.76826
2.77201
2.76137
1.40001
1.40001
1.40001
1.40001
1.40001
1.40001
1.40001
1.40001
1.40001
1.40001
1.40001
1.40001
1.40001
1.40001
1.40001
1.40018
1.40259
1.43157
1.55392
1.83635
2.19253
2.57243
2.66548
2.7022
1.40001
1.40001
1.40001
1.40001
1.40001
1.40001
1.40001
1.40001
1.40001
1.40001
1.40001
1.40001
1.40001
1.40001
1.40001
1.40001
1.40002
1.4005
1.40577
1.4432
1.57202
1.85838
2.19516
2.48065
1.40001
1.40001
1.40001
1.40001
1.40001
1.40001
1.40001
1.40001
1.40001
1.40001
1.40001
1.40001
1.40001
1.40001
1.40001
1.40001
1.40001
1.40001
1.40004
1.40073
1.40786
1.44553
1.5878
1.83217
1.40001
1.40001
1.40001
1.40001
1.40001
1.40001
1.40001
1.40001
1.40001
1.40001
1.40001
1.40001
1.40001
1.40001
1.40001
1.40001
1.40001
1.40001
1.40001
1.40001
1.40006
1.40082
1.40913
1.44473
1.40001
1.40001
1.40001
1.40001
1.40001
1.40001
1.40001
1.40001
1.40001
1.40001
1.40001
1.40001
1.40001
1.40001
1.40001
1.40001
1.40001
1.40001
1.40001
1.40001
1.40001
1.40001
1.40007
1.40079
1.40001
1.40001
1.40001
1.40001
1.40001
1.40001
1.40001
1.40001
1.40001
1.40001
1.40001
1.40001
1.40001
1.40001
1.40001
1.40001
1.40001
1.40001
1.40001
1.40001
1.40001
1.40001
1.40001
1.40001
1.40001
1.40001
1.40001
1.40001
1.40001
1.40001
1.40001
1.40001
1.40001
1.40001
1.40001
1.40001
1.40001
1.40001
1.40001
1.40001
1.40001
1.40001
1.40001
1.40001
1.40001
1.40001
1.40001
1.40001
1.40001
1.40001
1.40001
1.40001
1.40001
1.40001
1.40001
1.40001
1.40001
1.40001
1.40001
1.40001
1.40001
1.40001
1.40001
1.40001
1.40001
1.40001
1.40001
1.40001
1.40001
1.40001
1.40001
1.40001
1.40001
1.40001
1.40001
1.40001
1.40001
1.40001
1.40001
1.40001
1.40001
1.40001
1.40001
1.40001
1.40001
1.40001
1.40001
1.40001
1.40001
1.40001
1.40001
1.40001
1.40001
1.40001
1.40001
1.40001
1.40001
1.40001
1.40001
1.40001
1.40001
1.40001
1.40001
1.40001
1.40001
1.40001
1.40001
1.40001
1.40001
1.40001
1.40001
1.40001
1.40001
1.40001
1.40001
1.40001
1.40001
1.40001
1.40001
1.40001
1.40001
1.40001
1.40001
1.40001
1.40001
1.40001
1.40001
1.40001
1.40001
1.40001
1.40001
1.40001
1.40001
1.40001
1.40001
1.40001
1.40001
1.40001
1.40001
1.40001
1.40001
1.40001
1.40001
1.40001
0.82094
0.443356
0.37982
0.405901
0.484808
0.589903
0.692227
0.799162
0.849802
0.86204
0.85373
0.84351
0.841905
0.854503
0.879484
0.885436
0.875429
0.855438
0.836627
0.824426
0.817725
0.817833
0.816579
0.809637
0.798384
0.779593
0.760719
0.748976
0.742909
0.74706
0.749203
0.740319
0.729003
0.714814
0.700324
0.692355
0.686851
0.683842
0.683819
0.682478
0.678104
0.671188
0.660495
0.643599
0.625509
0.623529
0.628763
0.637732
0.650046
0.669856
0.693859
0.711275
0.722058
0.729756
0.735437
0.740842
0.74646
0.753464
0.764339
0.782335
0.816035
0.873581
0.949542
1.05097
1.23311
1.407
1.43194
1.4319
1.4068
1.37918
1.37441
1.37705
1.10641
0.798676
0.699491
0.632531
0.614351
0.621828
0.655075
0.711205
0.782081
0.816537
0.82026
0.821901
0.827434
0.839157
0.85431
0.862393
0.863727
0.858992
0.849658
0.83814
0.826494
0.815376
0.804815
0.795225
0.789605
0.788124
0.782271
0.770083
0.759679
0.755175
0.754871
0.750703
0.743144
0.73455
0.725859
0.717728
0.709694
0.703031
0.698811
0.695452
0.691299
0.684599
0.673418
0.657439
0.637427
0.627881
0.630663
0.638083
0.650041
0.669469
0.693465
0.713986
0.730251
0.743456
0.752308
0.757605
0.762285
0.76814
0.777884
0.796314
0.828377
0.880073
0.958351
1.06842
1.23666
1.38705
1.41107
1.41078
1.39431
1.38344
1.38056
1.38156
1.31777
1.02712
0.883781
0.758118
0.673831
0.63684
0.637074
0.660401
0.705823
0.7574
0.788538
0.803723
0.811598
0.81651
0.818021
0.820239
0.825729
0.834339
0.843541
0.845575
0.838907
0.827038
0.81136
0.799149
0.790908
0.790061
0.802097
0.807882
0.803179
0.798363
0.796231
0.792151
0.788117
0.787341
0.783786
0.775478
0.765859
0.756285
0.747908
0.742266
0.736902
0.728712
0.71561
0.696385
0.672916
0.661824
0.662913
0.668507
0.676905
0.686405
0.698802
0.715274
0.736836
0.759317
0.776558
0.786116
0.790335
0.793942
0.800598
0.815821
0.846352
0.899333
0.982757
1.10339
1.28242
1.40223
1.41314
1.40949
1.39377
1.38862
1.38747
1.389
1.51493
1.24056
1.06594
0.923908
0.78761
0.727123
0.690654
0.669258
0.670593
0.688723
0.725527
0.761502
0.782267
0.787875
0.784657
0.780978
0.783397
0.792282
0.81247
0.83001
0.830298
0.823187
0.810981
0.804033
0.799049
0.798675
0.814348
0.829448
0.825333
0.819446
0.817179
0.8166
0.817489
0.825243
0.840767
0.842783
0.836498
0.829256
0.819266
0.81003
0.801139
0.789178
0.772355
0.744511
0.710454
0.699268
0.698796
0.70228
0.713966
0.724958
0.733664
0.745875
0.764542
0.786079
0.804846
0.819618
0.830966
0.839324
0.847041
0.860136
0.888515
0.941216
1.01838
1.13413
1.31756
1.40832
1.41456
1.41208
1.3982
1.39112
1.39048
1.39217
1.714
1.43214
1.23345
1.08046
0.925983
0.826958
0.764034
0.701775
0.661822
0.667134
0.690072
0.728493
0.754208
0.758574
0.758685
0.759856
0.763057
0.770779
0.788555
0.808973
0.814283
0.810269
0.804704
0.80243
0.801776
0.806008
0.821175
0.83837
0.840098
0.83771
0.835641
0.834551
0.836664
0.850933
0.879493
0.893024
0.892439
0.888887
0.882132
0.873179
0.862444
0.846295
0.821917
0.78523
0.750039
0.740772
0.739215
0.740095
0.74989
0.763461
0.774448
0.788336
0.806533
0.825333
0.843271
0.861554
0.87991
0.897098
0.913438
0.935817
0.974406
1.02768
1.09282
1.20023
1.36056
1.41623
1.42129
1.42066
1.40577
1.3928
1.39156
1.39326
1.94812
1.64934
1.41203
1.23506
1.07535
0.951597
0.872663
0.793756
0.717374
0.711262
0.711212
0.716028
0.730719
0.739001
0.745388
0.748152
0.749754
0.752599
0.763355
0.780351
0.790876
0.793917
0.794682
0.794104
0.795299
0.804513
0.819896
0.832703
0.841732
0.84822
0.853266
0.859584
0.872134
0.895206
0.926063
0.938649
0.935916
0.928183
0.916922
0.901328
0.884494
0.865412
0.838842
0.804289
0.78114
0.774172
0.772883
0.773807
0.784174
0.799421
0.812847
0.829059
0.84775
0.865109
0.881487
0.900873
0.923659
0.947686
0.973509
1.0075
1.05203
1.10186
1.16689
1.27879
1.39756
1.4241
1.42928
1.42681
1.40539
1.3932
1.39199
1.39421
2.18554
1.89168
1.62973
1.41148
1.23746
1.10341
1.00599
0.914365
0.819492
0.772305
0.749813
0.724001
0.723575
0.731337
0.740552
0.746075
0.748052
0.749755
0.753665
0.76221
0.768941
0.773556
0.77707
0.779397
0.785328
0.797114
0.80699
0.817252
0.83132
0.845076
0.858544
0.87362
0.892296
0.919425
0.957882
0.977758
0.975925
0.968544
0.955036
0.929691
0.899475
0.874631
0.850593
0.823083
0.806537
0.802282
0.801396
0.804409
0.820191
0.840863
0.857441
0.873354
0.888755
0.901547
0.915028
0.934663
0.961163
0.992193
1.02863
1.07217
1.11956
1.17517
1.25832
1.36771
1.42163
1.43205
1.43502
1.42376
1.39835
1.39253
1.39218
1.39634
2.40084
2.12355
1.86777
1.62795
1.41592
1.27438
1.16193
1.05302
0.939209
0.861256
0.824403
0.781468
0.745154
0.737244
0.742956
0.746162
0.747359
0.751073
0.758714
0.764454
0.764019
0.762365
0.76453
0.770698
0.782021
0.793955
0.795887
0.801593
0.815501
0.833403
0.850616
0.868688
0.88889
0.913691
0.950703
0.982632
0.986968
0.986868
0.982756
0.96526
0.930082
0.897309
0.875305
0.851205
0.830602
0.82638
0.826079
0.830254
0.847695
0.873118
0.893413
0.908295
0.920444
0.931033
0.94462
0.967929
1.00145
1.04273
1.09412
1.15178
1.20779
1.27935
1.37468
1.42102
1.42974
1.43276
1.42751
1.40264
1.38999
1.38959
1.39096
1.40089
2.5967
2.34086
2.10048
1.86418
1.62934
1.46545
1.34436
1.22215
1.0963
0.999738
0.932896
0.867551
0.802655
0.763951
0.763008
0.757469
0.75119
0.753749
0.763019
0.768476
0.769685
0.770226
0.774272
0.780606
0.79079
0.798965
0.796518
0.792303
0.796334
0.810934
0.828425
0.84614
0.867013
0.894569
0.926335
0.964523
0.980904
0.981616
0.981197
0.972747
0.95332
0.930666
0.909228
0.880642
0.855417
0.850914
0.850864
0.855123
0.870471
0.895194
0.918506
0.935976
0.949803
0.963308
0.981479
1.00987
1.05164
1.1068
1.1708
1.23195
1.29181
1.36502
1.41527
1.42507
1.42918
1.42872
1.41111
1.39127
1.38823
1.38934
1.39438
1.40726
2.78832
2.55337
2.32299
2.10182
1.87226
1.68771
1.5487
1.40879
1.25581
1.14773
1.07838
1.0069
0.919155
0.84527
0.827975
0.813706
0.797401
0.784379
0.780193
0.777288
0.776172
0.781288
0.787914
0.792015
0.796464
0.798593
0.793732
0.789908
0.790557
0.796203
0.804863
0.813479
0.823771
0.846052
0.878147
0.911308
0.955902
0.968688
0.969379
0.964494
0.953599
0.943498
0.926344
0.900188
0.882924
0.878558
0.877665
0.880408
0.89177
0.912314
0.936333
0.957875
0.97719
0.998586
1.02668
1.0637
1.11303
1.17573
1.2375
1.28705
1.33866
1.39394
1.41642
1.42008
1.42092
1.41034
1.39459
1.39248
1.39429
1.39757
1.40621
1.41347
2.90752
2.778
2.55172
2.32764
2.09959
1.91229
1.77055
1.63066
1.46072
1.3053
1.21546
1.13475
1.04684
0.964915
0.927356
0.90522
0.875607
0.84918
0.831287
0.814825
0.809382
0.812396
0.810303
0.809554
0.814463
0.814726
0.811012
0.80769
0.808246
0.815068
0.822687
0.826342
0.830402
0.850989
0.895773
0.913574
0.916389
0.930805
0.944795
0.944635
0.94173
0.937688
0.927885
0.916231
0.913576
0.913152
0.912015
0.912749
0.919764
0.935138
0.955902
0.978483
1.00301
1.03285
1.07186
1.12115
1.17827
1.2355
1.28211
1.32198
1.37036
1.41215
1.4225
1.42477
1.42147
1.40053
1.3887
1.39224
1.39976
1.40989
1.41834
1.41685
2.74047
2.91608
2.78958
2.57032
2.33394
2.11743
1.96709
1.82902
1.66995
1.51613
1.4073
1.30526
1.18315
1.07989
1.04713
1.01733
0.978189
0.944274
0.912166
0.87713
0.870031
0.873439
0.87182
0.870558
0.868723
0.863012
0.861821
0.853619
0.84422
0.844783
0.847818
0.847046
0.847502
0.868753
0.907474
0.910336
0.901143
0.902215
0.917797
0.925904
0.925444
0.923303
0.924221
0.925028
0.928942
0.93876
0.945588
0.950034
0.958902
0.973048
0.989936
1.01127
1.04139
1.08339
1.13591
1.19397
1.24885
1.29175
1.3271
1.36647
1.40921
1.43137
1.43851
1.44034
1.43054
1.40521
1.4004
1.40451
1.41039
1.41514
1.41775
1.41549
2.28446
2.78646
2.92515
2.80212
2.58166
2.34627
2.1684
2.03245
1.86501
1.69761
1.59288
1.50022
1.38067
1.24245
1.17975
1.14807
1.09935
1.05736
1.03161
0.996631
0.955773
0.939732
0.939983
0.940166
0.929235
0.920462
0.922923
0.913409
0.896465
0.895398
0.897312
0.897279
0.899069
0.920626
0.940489
0.933503
0.911864
0.904174
0.911761
0.923453
0.925277
0.924418
0.924174
0.927698
0.934555
0.94696
0.96343
0.978995
0.995863
1.0148
1.0351
1.06017
1.09478
1.13878
1.19026
1.24799
1.30247
1.34597
1.38952
1.43033
1.44214
1.44446
1.45059
1.45203
1.44111
1.42266
1.41534
1.41358
1.41246
1.41026
1.40969
1.40526
1.94244
2.378
2.83322
2.92456
2.82599
2.61494
2.37987
2.23483
2.07922
1.90826
1.7855
1.68054
1.55965
1.41946
1.36204
1.3232
1.26392
1.1759
1.14504
1.12509
1.08055
1.05007
1.04841
1.04733
1.02732
1.01667
1.0202
1.00906
0.987414
0.985343
0.987606
0.990626
0.997145
1.01449
1.02115
1.01458
0.992619
0.960289
0.947887
0.948504
0.947108
0.938391
0.9295
0.929896
0.934656
0.944499
0.961314
0.983123
1.00858
1.03761
1.06647
1.09489
1.12575
1.16176
1.20465
1.25494
1.30889
1.36906
1.42775
1.44855
1.45133
1.45185
1.44869
1.44462
1.43325
1.42006
1.41416
1.41279
1.41211
1.41022
1.40344
1.38784
1.89698
2.01605
2.45832
2.85231
2.91705
2.85411
2.67662
2.47347
2.29098
2.09529
1.96564
1.88265
1.77759
1.614
1.52983
1.49929
1.44858
1.35288
1.29797
1.26781
1.21358
1.17174
1.17
1.17282
1.14938
1.13053
1.12739
1.10942
1.08103
1.07614
1.07572
1.07658
1.09055
1.10592
1.10087
1.08535
1.06232
1.02992
0.995162
0.981869
0.975045
0.962176
0.947935
0.943885
0.945515
0.952571
0.967992
0.992755
1.02298
1.05418
1.08296
1.10761
1.13089
1.15947
1.1983
1.24571
1.30146
1.3664
1.42464
1.445
1.44806
1.45004
1.44812
1.43285
1.41335
1.40343
1.39989
1.39731
1.39332
1.38574
1.37149
1.36009
1.94078
1.94901
2.08466
2.49717
2.84279
2.92292
2.89075
2.74826
2.56735
2.35036
2.13009
2.05458
1.97481
1.83262
1.72429
1.68289
1.62557
1.51863
1.45499
1.43216
1.38627
1.32586
1.31554
1.31824
1.29449
1.26624
1.26045
1.24015
1.20041
1.18779
1.18559
1.1872
1.20281
1.20941
1.19937
1.17874
1.15232
1.11538
1.06397
1.04529
1.03808
1.02472
1.00174
0.986464
0.986485
0.991315
1.00349
1.02561
1.05277
1.07546
1.09416
1.11118
1.12712
1.14698
1.17484
1.21437
1.27482
1.35412
1.40694
1.41493
1.41709
1.41659
1.40557
1.38807
1.37775
1.37306
1.36792
1.3594
1.34971
1.34247
1.3412
1.34798
2.05876
1.98286
1.99727
2.13474
2.49274
2.82594
2.94341
2.93312
2.8261
2.64083
2.40733
2.25123
2.16075
2.02533
1.89019
1.84525
1.79868
1.69091
1.61496
1.59825
1.56525
1.49624
1.47542
1.4806
1.46365
1.42053
1.40227
1.37142
1.32004
1.3048
1.30252
1.3086
1.31688
1.30596
1.27918
1.25488
1.23308
1.19918
1.13675
1.10061
1.08803
1.07478
1.05272
1.03345
1.03237
1.03753
1.04894
1.06729
1.08774
1.10231
1.11219
1.1229
1.13846
1.15781
1.18079
1.21562
1.27328
1.33183
1.34819
1.35225
1.35329
1.33877
1.31805
1.31669
1.31933
1.31947
1.31769
1.31549
1.31744
1.32224
1.32895
1.34733
2.22835
2.11494
2.03696
2.04737
2.16118
2.44877
2.81206
2.949
2.92056
2.8445
2.71844
2.53286
2.38629
2.2561
2.07267
1.97857
1.94744
1.8643
1.7728
1.76158
1.74107
1.669
1.64087
1.64567
1.63496
1.58304
1.54857
1.50436
1.44235
1.42745
1.4271
1.43812
1.43612
1.41044
1.3675
1.33748
1.31332
1.27545
1.21569
1.17366
1.15619
1.14205
1.12121
1.10604
1.10653
1.11311
1.12609
1.13938
1.14547
1.14919
1.15307
1.15836
1.16682
1.18087
1.20245
1.23966
1.28363
1.29721
1.30009
1.30105
1.28625
1.25835
1.25778
1.2667
1.27712
1.28691
1.29667
1.30555
1.31306
1.32098
1.32872
1.34794
2.36696
2.26925
2.17117
2.09395
2.09789
2.15869
2.40996
2.79812
2.882
2.87917
2.89136
2.82411
2.67028
2.51128
2.33694
2.15811
2.10512
2.04648
1.94261
1.91898
1.90719
1.83748
1.79716
1.80318
1.7993
1.74184
1.68473
1.63867
1.57062
1.55215
1.555
1.56561
1.55831
1.51557
1.45252
1.41512
1.38759
1.34716
1.29224
1.25261
1.2319
1.21299
1.18993
1.17918
1.18045
1.18815
1.20421
1.21076
1.20685
1.20508
1.20575
1.20726
1.21094
1.22053
1.24185
1.27401
1.29244
1.29745
1.30008
1.29798
1.27489
1.25164
1.25381
1.26335
1.27421
1.28493
1.29612
1.30792
1.31941
1.33191
1.34721
1.37114
2.57289
2.44097
2.32131
2.21933
2.14566
2.15559
2.19124
2.40018
2.70138
2.82378
2.88916
2.91535
2.88572
2.76898
2.61603
2.43956
2.32817
2.27023
2.16397
2.08004
2.06696
2.01217
1.95548
1.95898
1.95598
1.90014
1.8171
1.7776
1.71916
1.68004
1.68055
1.68453
1.66237
1.60177
1.53419
1.49027
1.45802
1.41752
1.37082
1.33785
1.31558
1.29263
1.27007
1.26227
1.2632
1.27163
1.28805
1.29027
1.28232
1.27308
1.27015
1.27007
1.27295
1.28506
1.30644
1.31653
1.3164
1.31528
1.31123
1.29524
1.26413
1.25344
1.25708
1.26634
1.27717
1.28746
1.29693
1.30698
1.32016
1.33605
1.35414
1.38302
2.71785
2.6402
2.52856
2.39595
2.28158
2.20313
2.20074
2.22239
2.37076
2.58298
2.7584
2.90429
2.90179
2.86515
2.82355
2.75462
2.63955
2.54439
2.44186
2.29276
2.24522
2.20447
2.13554
2.12509
2.11498
2.05998
1.95471
1.91753
1.8765
1.8264
1.80905
1.79299
1.74912
1.68801
1.60702
1.55449
1.52997
1.49816
1.45617
1.42167
1.39813
1.37341
1.35327
1.34899
1.34913
1.35779
1.37102
1.36951
1.35495
1.33977
1.33672
1.33667
1.34004
1.35239
1.36446
1.36579
1.36452
1.36108
1.34845
1.31019
1.26986
1.26536
1.27012
1.27867
1.28914
1.30037
1.31234
1.32606
1.34203
1.36021
1.37342
1.39283
2.69621
2.68442
2.64601
2.57764
2.47872
2.3744
2.2875
2.24557
2.25752
2.31996
2.46975
2.70314
2.86025
2.85177
2.8575
2.88587
2.86763
2.80952
2.7283
2.58834
2.47468
2.43068
2.36115
2.30637
2.2832
2.22787
2.11726
2.05766
2.01826
1.96816
1.92354
1.88253
1.83092
1.77855
1.69385
1.61829
1.60149
1.58311
1.54672
1.51077
1.48565
1.46018
1.44253
1.4391
1.43852
1.44584
1.45455
1.45077
1.42798
1.40956
1.40741
1.40795
1.41513
1.42535
1.42582
1.42364
1.41957
1.40877
1.37454
1.32564
1.31129
1.31297
1.3163
1.32187
1.33046
1.34063
1.35212
1.36596
1.38164
1.39907
1.41139
1.43379
2.60729
2.64093
2.62414
2.60716
2.57929
2.53995
2.46283
2.3634
2.2993
2.30276
2.32092
2.4146
2.61724
2.77341
2.82849
2.88877
2.91049
2.89459
2.878
2.84213
2.7602
2.68769
2.61518
2.52495
2.46421
2.40056
2.30317
2.22275
2.16563
2.10294
2.02809
1.96173
1.91019
1.86202
1.77362
1.69064
1.68183
1.67591
1.64348
1.60393
1.57369
1.54576
1.54027
1.53497
1.52921
1.53267
1.53812
1.53113
1.49792
1.48073
1.47948
1.48127
1.49099
1.49445
1.49149
1.48652
1.47737
1.4473
1.38493
1.35877
1.36056
1.36167
1.36236
1.36505
1.3695
1.37532
1.38302
1.39354
1.40708
1.4234
1.43848
1.47646
2.12555
2.38897
2.51648
2.54801
2.5662
2.55682
2.53216
2.47958
2.41295
2.36061
2.33515
2.33737
2.39101
2.54996
2.67455
2.79783
2.89933
2.88307
2.87899
2.91397
2.9702
2.9274
2.86784
2.7974
2.71221
2.60708
2.50156
2.40277
2.30878
2.22525
2.13537
2.04312
1.98489
1.94512
1.86786
1.77806
1.76774
1.76987
1.74647
1.70177
1.66203
1.63864
1.63856
1.63538
1.62008
1.61892
1.62101
1.60565
1.56485
1.55352
1.55262
1.55703
1.56347
1.56111
1.55466
1.54488
1.51979
1.45934
1.42024
1.42021
1.42138
1.42165
1.42489
1.43018
1.43569
1.44249
1.45172
1.46401
1.47915
1.49711
1.5164
1.56783
1.5606
1.7606
2.03866
2.25832
2.40556
2.48372
2.50613
2.48538
2.45109
2.41105
2.37431
2.35562
2.34814
2.37927
2.46007
2.5709
2.73014
2.80478
2.83971
2.90452
3.00319
3.04176
3.06214
3.04125
2.97519
2.85244
2.70376
2.57539
2.45673
2.3276
2.22526
2.1425
2.06588
2.01707
1.97132
1.89272
1.86223
1.86561
1.84994
1.79703
1.74704
1.73435
1.73583
1.73371
1.71482
1.70082
1.69488
1.67205
1.63506
1.62731
1.62697
1.6324