/*--------------------------------*- C++ -*----------------------------------*\
  =========                 |
  \\      /  F ield         | OpenFOAM: The Open Source CFD Toolbox
   \\    /   O peration     | Website:  https://openfoam.org
    \\  /    A nd           | Version:  7
     \\/     M anipulation  |
\*---------------------------------------------------------------------------*/
FoamFile
{
    version     2.0;
    format      ascii;
    class       volScalarField;
    location    "2.6";
    object      rho;
}
// * * * * * * * * * * * * * * * * * * * * * * * * * * * * * * * * * * * * * //

dimensions      [1 -3 0 0 0 0 0];

internalField   nonuniform List<scalar> 
16192
(
1.25712
1.25707
1.25722
1.25709
1.25681
1.25644
1.25576
1.2546
1.2537
1.25335
1.25294
1.25246
1.25205
1.25168
1.25126
1.25056
1.24886
1.24602
1.24454
1.2442
1.24393
1.24376
1.24394
1.24408
1.24375
1.24347
1.24323
1.24288
1.2422
1.24192
1.24197
1.24232
1.24297
1.24329
1.24331
1.24328
1.24311
1.24252
1.24127
1.24067
1.24092
1.2417
1.24345
1.24707
1.24999
1.25052
1.25061
1.25
1.24741
1.2438
1.24253
1.24224
1.24203
1.24207
1.24172
1.24117
1.24058
1.23967
1.2379
1.23532
1.23372
1.23342
1.23343
1.23427
1.23581
1.23604
1.23539
1.23449
1.23307
1.23063
1.22646
1.22379
1.22325
1.22304
1.22295
1.22325
1.22308
1.22248
1.2218
1.22114
1.22077
1.22066
1.22057
1.22054
1.22082
1.22099
1.22068
1.22039
1.22013
1.21944
1.21835
1.21817
1.21856
1.21923
1.22034
1.22187
1.22277
1.22327
1.22393
1.2249
1.22627
1.22791
1.22965
1.23207
1.23507
1.23859
1.2426
1.2447
1.24485
1.2442
1.24222
1.23954
1.23631
1.23222
1.22852
1.22674
1.22624
1.22615
1.227
1.22924
1.23132
1.23192
1.23175
1.23102
1.22934
1.22613
1.22261
1.22089
1.22026
1.2201
1.22077
1.22319
1.22629
1.2276
1.22742
1.22634
1.22433
1.22113
1.21607
1.21043
1.21068
1.23488
1.37353
1.83467
2.17569
2.31045
2.35892
2.35517
2.35442
2.34844
2.34255
2.3399
2.33656
2.33623
2.33342
2.32972
2.32713
2.32559
2.32398
2.32096
2.31873
2.31873
2.31745
2.3143
2.31053
2.30584
2.3004
2.2951
2.28994
2.28443
2.2795
2.27596
2.27389
2.27319
2.27082
2.26723
2.26237
2.25339
2.24305
2.23833
2.23513
2.23343
2.2353
2.23965
2.24013
2.23671
2.23094
2.22508
2.2204
2.21591
2.21127
2.20651
2.20251
2.20009
2.1994
2.20087
2.20387
2.20544
2.20582
2.20521
2.20634
2.20804
2.20972
2.21177
2.21448
2.21623
2.21524
2.21179
2.20445
2.19398
2.18803
2.18602
2.18523
2.18595
2.18838
2.19085
2.19085
2.18888
2.18563
2.1775
2.1645
2.15417
2.1496
2.14757
2.14701
2.14752
2.14873
2.15267
2.15694
2.15621
2.15451
2.15115
2.14299
2.13054
2.12224
2.1193
2.11775
2.11765
2.12054
2.12578
2.12683
2.12508
2.12278
2.11719
2.10444
2.09291
2.08959
2.08824
2.08795
2.09194
2.09974
2.10114
2.09992
1.25852
1.25872
1.25867
1.25841
1.25808
1.25748
1.25637
1.25539
1.25501
1.2547
1.25427
1.25384
1.25346
1.25307
1.25249
1.25118
1.24835
1.24579
1.24516
1.24486
1.24463
1.24461
1.24497
1.24485
1.24454
1.2443
1.24405
1.24357
1.24312
1.24307
1.24316
1.24359
1.24401
1.24407
1.24404
1.24388
1.24323
1.24195
1.24121
1.24136
1.24203
1.24364
1.2472
1.25059
1.25137
1.25156
1.25136
1.24954
1.24599
1.24408
1.24377
1.24357
1.24365
1.24401
1.2437
1.24314
1.24234
1.24073
1.23811
1.23655
1.23624
1.23614
1.23652
1.23749
1.23757
1.23702
1.23623
1.23492
1.23264
1.22848
1.22535
1.22469
1.22454
1.22454
1.22512
1.22607
1.22599
1.22545
1.22477
1.22383
1.22302
1.2228
1.22266
1.22259
1.22247
1.22205
1.22158
1.22104
1.22022
1.21902
1.21849
1.21868
1.21918
1.21998
1.22127
1.22227
1.22266
1.22303
1.22366
1.2246
1.22591
1.2277
1.22964
1.2327
1.23785
1.24326
1.24536
1.24564
1.24553
1.24437
1.24213
1.23899
1.23496
1.23128
1.22952
1.22901
1.22892
1.22988
1.23194
1.23333
1.23347
1.23307
1.23206
1.22994
1.22653
1.22373
1.22256
1.22212
1.22209
1.22332
1.22647
1.22931
1.22988
1.22951
1.22851
1.2266
1.22279
1.21688
1.2112
1.21126
1.24606
1.45124
1.82584
2.24749
2.32847
2.35568
2.34831
2.34333
2.3419
2.33987
2.3378
2.33868
2.33967
2.33888
2.33878
2.33544
2.33051
2.32688
2.32404
2.32155
2.32018
2.32148
2.32208
2.3191
2.31454
2.30748
2.29938
2.29386
2.28982
2.28638
2.28378
2.28109
2.27747
2.27363
2.27
2.26574
2.26039
2.25388
2.24664
2.24151
2.23912
2.23948
2.24424
2.24725
2.24504
2.24094
2.23409
2.22389
2.21633
2.21123
2.20775
2.20545
2.20357
2.20256
2.20269
2.20389
2.20522
2.20602
2.20643
2.20564
2.20525
2.20702
2.20911
2.2112
2.21339
2.21584
2.21707
2.21589
2.21265
2.20598
2.19545
2.18795
2.18524
2.18367
2.18284
2.18262
2.18434
2.18711
2.18692
2.18488
2.18027
2.17165
2.16101
2.15309
2.14957
2.14732
2.14576
2.14518
2.1477
2.15372
2.15504
2.15366
2.15135
2.14523
2.13373
2.12338
2.11933
2.1173
2.11641
2.11732
2.12139
2.12428
2.12307
2.12101
2.11606
2.10412
2.09225
2.08864
2.08746
2.08818
2.09426
2.10164
2.10208
1.26002
1.26015
1.25992
1.25966
1.25923
1.25819
1.25707
1.25662
1.25628
1.25592
1.25555
1.25516
1.25475
1.25425
1.25327
1.25086
1.24764
1.24643
1.24614
1.2459
1.2458
1.24606
1.24609
1.24579
1.24552
1.24524
1.24475
1.2441
1.24394
1.24393
1.24416
1.24464
1.24478
1.24475
1.24464
1.24415
1.24295
1.24203
1.24212
1.24271
1.24418
1.24747
1.25094
1.2519
1.25216
1.25218
1.25103
1.24794
1.24561
1.24521
1.24509
1.24519
1.24597
1.24614
1.24574
1.24512
1.24387
1.24141
1.23951
1.23905
1.2388
1.23875
1.23901
1.23897
1.23853
1.23791
1.23678
1.23476
1.23085
1.22727
1.22629
1.22612
1.22618
1.22703
1.22869
1.22957
1.22937
1.22876
1.22752
1.22561
1.2247
1.22445
1.22423
1.22394
1.2235
1.2229
1.22213
1.22113
1.21982
1.21903
1.21903
1.21933
1.21991
1.22094
1.22215
1.22259
1.2228
1.22304
1.22371
1.22474
1.22608
1.22808
1.23061
1.23459
1.24159
1.24525
1.24575
1.24585
1.24552
1.24408
1.24148
1.23792
1.23448
1.23277
1.23223
1.2321
1.23298
1.23456
1.23517
1.23503
1.23444
1.2332
1.23066
1.22708
1.22481
1.22395
1.22369
1.22397
1.22601
1.22966
1.23195
1.23206
1.23144
1.23009
1.22767
1.22317
1.21718
1.21361
1.2155
1.24924
1.50655
1.93444
2.21997
2.35603
2.37079
2.36786
2.36063
2.34744
2.33926
2.33502
2.33479
2.33669
2.33772
2.33995
2.34097
2.33862
2.33406
2.33051
2.32748
2.32533
2.32459
2.32551
2.32393
2.32023
2.31537
2.30763
2.29862
2.29322
2.28989
2.28881
2.28888
2.28602
2.28119
2.27458
2.26809
2.26304
2.25814
2.25466
2.25201
2.24975
2.24859
2.24969
2.25127
2.2488
2.24519
2.24088
2.23471
2.22401
2.21414
2.20961
2.20636
2.20404
2.20353
2.20517
2.20596
2.20563
2.20561
2.20628
2.20715
2.20734
2.20562
2.20599
2.20806
2.21016
2.21191
2.2135
2.21592
2.21769
2.21716
2.21459
2.20877
2.19734
2.18656
2.18218
2.17961
2.17773
2.17644
2.17779
2.18366
2.18729
2.18717
2.18473
2.1787
2.16726
2.15438
2.14818
2.14546
2.14338
2.14231
2.14396
2.15046
2.15408
2.15292
2.15101
2.14622
2.13578
2.12356
2.11783
2.11535
2.11389
2.11346
2.11599
2.12082
2.1211
2.11935
2.11503
2.10455
2.09346
2.08991
2.08931
2.09209
2.09832
2.1026
1.26165
1.26151
1.26128
1.26098
1.26015
1.2587
1.25807
1.25769
1.25729
1.25701
1.2567
1.25631
1.25582
1.25503
1.25318
1.24997
1.24804
1.24772
1.24752
1.24742
1.24759
1.24764
1.2473
1.24695
1.24656
1.24587
1.245
1.24471
1.24465
1.24475
1.24521
1.24541
1.24535
1.24522
1.24487
1.24395
1.24302
1.24306
1.24361
1.24501
1.24803
1.25126
1.25223
1.25252
1.25264
1.25199
1.24947
1.24698
1.24645
1.24645
1.24667
1.24766
1.24846
1.24827
1.24779
1.24691
1.24503
1.24286
1.24193
1.24142
1.24099
1.24068
1.24041
1.24002
1.23952
1.23864
1.23687
1.23345
1.22977
1.22835
1.22804
1.22803
1.22903
1.23114
1.23255
1.23261
1.23221
1.23091
1.22833
1.2264
1.22592
1.2256
1.22524
1.22481
1.22424
1.22345
1.2223
1.22081
1.21986
1.21972
1.21984
1.22023
1.22099
1.22223
1.22305
1.22328
1.22335
1.22346
1.22419
1.22533
1.22682
1.22903
1.23225
1.23668
1.2429
1.24526
1.24561
1.24563
1.24509
1.24345
1.24067
1.23764
1.23611
1.23561
1.2355
1.23628
1.23722
1.23725
1.23685
1.23592
1.23417
1.23117
1.2279
1.22632
1.22576
1.22559
1.22624
1.22892
1.23261
1.23401
1.23378
1.23304
1.2317
1.22911
1.22405
1.21804
1.21506
1.21911
1.27216
1.49939
2.02294
2.26581
2.34265
2.36548
2.36313
2.36316
2.3593
2.35255
2.34715
2.34272
2.33933
2.33958
2.34023
2.34022
2.34
2.33944
2.33685
2.33458
2.33393
2.33267
2.3296
2.32636
2.3228
2.31842
2.31343
2.3079
2.30202
2.29779
2.29504
2.29472
2.29355
2.28944
2.28368
2.27488
2.26582
2.26085
2.25787
2.25608
2.25698
2.26047
2.26017
2.25648
2.25168
2.24726
2.24324
2.23861
2.2323
2.22528
2.21791
2.21173
2.20791
2.20568
2.20553
2.2078
2.20784
2.20647
2.20597
2.20661
2.208
2.20901
2.20858
2.20594
2.20646
2.2082
2.20967
2.21077
2.21247
2.21651
2.21958
2.21912
2.21642
2.20993
2.19629
2.1829
2.17773
2.17499
2.17311
2.17228
2.17524
2.18331
2.18924
2.18947
2.18749
2.18243
2.1711
2.15527
2.14639
2.14335
2.14125
2.14012
2.14093
2.14668
2.1522
2.15145
2.14954
2.14567
2.13658
2.12305
2.11522
2.11233
2.11036
2.10923
2.11064
2.11714
2.11975
2.11886
2.11584
2.10785
2.09817
2.09447
2.09356
2.09433
2.09661
1.26327
1.26304
1.2628
1.26215
1.26041
1.25925
1.25888
1.25845
1.25811
1.25796
1.25769
1.25726
1.25661
1.2552
1.25236
1.24994
1.24948
1.24931
1.24926
1.2494
1.24941
1.2491
1.24873
1.2482
1.24718
1.24597
1.24552
1.24543
1.24545
1.24581
1.24604
1.24594
1.24577
1.24548
1.24483
1.24404
1.24404
1.24455
1.24592
1.2487
1.25158
1.25247
1.25276
1.25292
1.25256
1.2506
1.24814
1.24748
1.24758
1.24791
1.24903
1.25046
1.25062
1.25033
1.24973
1.24839
1.24628
1.24492
1.24417
1.24345
1.24277
1.24218
1.24168
1.24118
1.24048
1.239
1.23609
1.23263
1.23101
1.2305
1.23033
1.23116
1.23347
1.23506
1.23517
1.23486
1.23375
1.23127
1.2284
1.22734
1.22689
1.22646
1.22599
1.22546
1.22476
1.22365
1.22208
1.22098
1.22075
1.22077
1.22103
1.22166
1.22271
1.22386
1.22425
1.22442
1.22441
1.22441
1.22503
1.22618
1.22783
1.2302
1.23349
1.23736
1.24213
1.24475
1.2452
1.24518
1.24465
1.24295
1.24056
1.23936
1.23896
1.23907
1.23971
1.23991
1.23956
1.23896
1.23769
1.23552
1.23208
1.22899
1.22771
1.22736
1.2274
1.2286
1.23188
1.2353
1.23597
1.23549
1.2345
1.23287
1.22975
1.22455
1.21942
1.21763
1.22229
1.30578
1.58721
2.00823
2.32829
2.37229
2.37045
2.35783
2.35255
2.34815
2.34617
2.34698
2.34845
2.34868
2.34701
2.34457
2.34206
2.34052
2.33925
2.33852
2.33909
2.34132
2.34231
2.33888
2.33324
2.32607
2.31919
2.31362
2.30988
2.30708
2.30529
2.30591
2.30587
2.30192
2.29655
2.2902
2.28278
2.27445
2.26775
2.26357
2.26109
2.26086
2.26478
2.26718
2.26428
2.25962
2.25254
2.24448
2.23841
2.23356
2.22911
2.22546
2.2224
2.21862
2.21486
2.21212
2.21078
2.21049
2.20928
2.2076
2.2068
2.20709
2.2083
2.20959
2.21025
2.2084
2.20509
2.2057
2.2072
2.20867
2.21045
2.21375
2.21902
2.22062
2.21873
2.21543
2.20794
2.19316
2.17919
2.17424
2.17209
2.1711
2.17212
2.17564
2.18166
2.18844
2.18965
2.18771
2.18368
2.17384
2.15703
2.14535
2.14168
2.13933
2.13781
2.13783
2.14277
2.14964
2.14957
2.14745
2.14411
2.13597
2.12171
2.11196
2.10865
2.10658
2.10525
2.10667
2.11519
2.11993
2.12009
2.11813
2.11154
2.10113
2.09588
2.09405
2.09308
1.26506
1.26476
1.2642
1.26232
1.26029
1.25978
1.25943
1.25905
1.25889
1.25884
1.25855
1.25806
1.25704
1.2547
1.25196
1.25126
1.25112
1.25107
1.25115
1.25117
1.25095
1.25065
1.25015
1.24902
1.24732
1.24654
1.24641
1.24636
1.24653
1.24674
1.24663
1.24643
1.24616
1.24568
1.24509
1.24506
1.2455
1.2468
1.24934
1.2518
1.25259
1.25287
1.25307
1.25291
1.25143
1.24909
1.24834
1.24851
1.24895
1.25014
1.25199
1.25267
1.25258
1.25221
1.25125
1.24948
1.24781
1.24688
1.24609
1.2453
1.24451
1.24379
1.24318
1.2425
1.24123
1.23874
1.23558
1.23399
1.23346
1.23316
1.23369
1.23561
1.23707
1.23723
1.23697
1.23604
1.23396
1.23084
1.229
1.22838
1.22786
1.22732
1.22673
1.22605
1.22509
1.22364
1.22234
1.22206
1.22204
1.22221
1.22279
1.2238
1.22504
1.22571
1.22583
1.22585
1.22545
1.22535
1.22588
1.22696
1.22868
1.23107
1.23403
1.23717
1.24089
1.24405
1.24493
1.24496
1.24439
1.24288
1.24215
1.24199
1.24257
1.24311
1.24272
1.24212
1.24126
1.23961
1.23709
1.23347
1.23067
1.22958
1.22935
1.22952
1.23107
1.23465
1.23754
1.23775
1.23714
1.23601
1.23421
1.23068
1.22535
1.22083
1.21972
1.22611
1.3038
1.68113
2.06141
2.3098
2.38781
2.39325
2.38206
2.36774
2.35375
2.34832
2.34723
2.35004
2.3511
2.35098
2.35062
2.34768
2.34349
2.34118
2.34023
2.34177
2.34599
2.34856
2.34668
2.34201
2.33405
2.3234
2.3155
2.31127
2.30785
2.30594
2.30959
2.31502
2.31337
2.30799
2.29891
2.289
2.28122
2.27659
2.27336
2.27091
2.26959
2.27039
2.27119
2.26815
2.26421
2.25941
2.25231
2.24242
2.23435
2.22951
2.22642
2.2246
2.22417
2.2237
2.22235
2.2209
2.2187
2.21533
2.21202
2.20972
2.20837
2.20789
2.20804
2.20864
2.20933
2.20956
2.20673
2.20436
2.20551
2.20738
2.20946
2.21188
2.21448
2.21787
2.21844
2.21613
2.21287
2.20604
2.19319
2.17961
2.17398
2.17222
2.17195
2.17278
2.17384
2.17745
2.1854
2.18887
2.18699
2.18354
2.17489
2.15794
2.14402
2.13953
2.13702
2.13523
2.13498
2.1393
2.1464
2.14734
2.14508
2.14201
2.13447
2.12005
2.10906
2.10561
2.10379
2.10309
2.10662
2.1171
2.12133
2.12076
2.11865
2.1122
2.10045
2.094
2.09202
1.26708
1.26642
1.26448
1.26164
1.26058
1.26025
1.25994
1.25975
1.25979
1.2597
1.25937
1.25873
1.25698
1.25415
1.25298
1.25283
1.25282
1.25287
1.25278
1.25263
1.25244
1.25212
1.25125
1.24937
1.24794
1.24766
1.24754
1.24754
1.24761
1.24746
1.24726
1.24701
1.24664
1.24624
1.24618
1.2465
1.24766
1.2499
1.25194
1.25259
1.25287
1.2531
1.25308
1.25206
1.24991
1.24905
1.24926
1.24981
1.25109
1.25323
1.25433
1.25442
1.25431
1.2536
1.25197
1.25037
1.24944
1.24871
1.24796
1.2472
1.24645
1.24573
1.24497
1.24372
1.24136
1.2385
1.23706
1.23662
1.23632
1.23664
1.23782
1.23875
1.23881
1.23859
1.23792
1.23605
1.23306
1.23108
1.23014
1.22955
1.22897
1.22834
1.22762
1.22671
1.22538
1.22402
1.22367
1.22362
1.22371
1.22422
1.22519
1.22638
1.22718
1.22734
1.22724
1.22661
1.22588
1.22602
1.22656
1.22762
1.22945
1.2318
1.23432
1.23698
1.24003
1.2433
1.24473
1.24492
1.2445
1.2442
1.24439
1.24552
1.24612
1.24554
1.24469
1.24359
1.24182
1.23921
1.23542
1.23267
1.23168
1.23153
1.23179
1.23354
1.23706
1.23942
1.23941
1.23873
1.23749
1.23543
1.23152
1.22649
1.22285
1.22242
1.23594
1.33028
1.68001
2.16206
2.30909
2.37312
2.38924
2.37589
2.37114
2.36522
2.36114
2.35885
2.35575
2.35472
2.3522
2.34984
2.34867
2.34767
2.34586
2.34448
2.34534
2.34938
2.35219
2.35053
2.34704
2.342
2.33295
2.32128
2.3145
2.31115
2.30902
2.31156
2.31916
2.31947
2.31522
2.3095
2.29938
2.28821
2.28318
2.28004
2.27854
2.27927
2.2801
2.27775
2.27328
2.26794
2.26308
2.25808
2.2514
2.24189
2.23279
2.22826
2.22554
2.22372
2.22404
2.2266
2.22762
2.22721
2.22573
2.2226
2.21777
2.21267
2.20974
2.20786
2.20678
2.20663
2.20734
2.2084
2.20866
2.20642
2.20586
2.20767
2.20974
2.21118
2.21187
2.21196
2.21351
2.21531
2.21366
2.21113
2.20643
2.19692
2.18352
2.17542
2.17292
2.17156
2.17079
2.17066
2.17385
2.1826
2.18736
2.18531
2.182
2.17418
2.1581
2.14268
2.13709
2.1346
2.13315
2.13312
2.13587
2.14161
2.14447
2.14261
2.13988
2.13312
2.1196
2.10805
2.10465
2.10351
2.10439
2.10909
2.11774
2.12055
2.11891
2.11652
2.1103
2.09848
2.09191
1.269
1.26691
1.26349
1.26163
1.26119
1.26086
1.26073
1.2608
1.26082
1.26061
1.26026
1.25913
1.25649
1.25475
1.25444
1.25431
1.25444
1.25442
1.25424
1.2541
1.25393
1.25348
1.25202
1.24985
1.24915
1.24894
1.24881
1.24873
1.24855
1.24831
1.24803
1.24773
1.2475
1.24744
1.24765
1.24859
1.2504
1.25205
1.25259
1.25284
1.25307
1.25313
1.25248
1.2506
1.24965
1.24984
1.25048
1.25186
1.25421
1.2556
1.2558
1.2558
1.25529
1.25383
1.25224
1.25159
1.25115
1.25056
1.24993
1.24931
1.24867
1.2479
1.24664
1.24421
1.24139
1.24012
1.23977
1.23952
1.23979
1.24028
1.24036
1.24026
1.24002
1.23947
1.23803
1.23491
1.23286
1.23218
1.23155
1.2309
1.23028
1.22959
1.22873
1.2275
1.22606
1.22556
1.22548
1.22549
1.22579
1.22664
1.22773
1.2284
1.22854
1.22843
1.22769
1.22651
1.22624
1.22658
1.22724
1.22841
1.23034
1.23259
1.23465
1.23692
1.23974
1.24285
1.24457
1.2452
1.24551
1.24602
1.24741
1.24836
1.24797
1.24702
1.24585
1.24418
1.24171
1.23806
1.23524
1.2343
1.23415
1.2344
1.23611
1.23927
1.24104
1.24094
1.24026
1.23902
1.23678
1.23258
1.22795
1.22508
1.22496
1.23986
1.39443
1.73008
2.17539
2.37224
2.38266
2.37659
2.36786
2.36287
2.36624
2.36477
2.36332
2.36286
2.35995
2.35465
2.35116
2.34847
2.34762
2.34833
2.35044
2.35221
2.35448
2.35514
2.35304
2.34941
2.3451
2.33992
2.33365
2.32592
2.32055
2.31752
2.31672
2.32021
2.32173
2.31812
2.31345
2.30795
2.30074
2.29277
2.28789
2.28533
2.28466
2.28567
2.28424
2.28061
2.27589
2.26889
2.26166
2.25598
2.25014
2.24345
2.23705
2.23206
2.22856
2.22648
2.22583
2.22724
2.22939
2.23027
2.22953
2.22738
2.22394
2.21763
2.21001
2.20685
2.205
2.20421
2.20436
2.20652
2.20932
2.2103
2.2092
2.20887
2.21016
2.21081
2.21042
2.20922
2.20787
2.20932
2.21344
2.21322
2.21141
2.20811
2.20056
2.18637
2.17446
2.17082
2.16917
2.16842
2.16833
2.17079
2.17844
2.18401
2.18226
2.1793
2.17279
2.15957
2.14383
2.1361
2.1334
2.13182
2.13115
2.13164
2.136
2.14159
2.14089
2.13884
2.1337
2.12269
2.11119
2.10709
2.10594
2.10656
2.10888
2.11425
2.11757
2.11586
2.11308
2.10699
2.09597
1.26972
1.26583
1.26313
1.26251
1.26212
1.26194
1.26209
1.26213
1.26198
1.26177
1.26112
1.25891
1.25654
1.25597
1.25569
1.25564
1.256
1.25597
1.25583
1.25571
1.25552
1.25467
1.25242
1.25072
1.25038
1.25019
1.25006
1.24986
1.24961
1.24931
1.24901
1.24885
1.24879
1.24891
1.2496
1.25096
1.25221
1.25268
1.25292
1.25313
1.25322
1.2528
1.25124
1.25022
1.25036
1.25102
1.25249
1.25498
1.2565
1.25678
1.25686
1.25654
1.25527
1.25382
1.25325
1.25299
1.25292
1.25262
1.25208
1.25157
1.25096
1.24985
1.24739
1.24437
1.24313
1.24283
1.24261
1.24284
1.24295
1.24233
1.24188
1.24153
1.24101
1.23974
1.23697
1.23454
1.23389
1.23363
1.23312
1.23247
1.23182
1.23107
1.23008
1.22862
1.2277
1.22752
1.22747
1.22754
1.22804
1.22894
1.22953
1.2296
1.22946
1.22878
1.22749
1.22669
1.22675
1.22723
1.22817
1.2296
1.23153
1.23347
1.23514
1.23705
1.23962
1.24263
1.24477
1.2459
1.24684
1.24829
1.24958
1.24958
1.24904
1.24798
1.24654
1.24436
1.24101
1.23812
1.23724
1.23707
1.23728
1.23884
1.24143
1.24262
1.24244
1.24176
1.24048
1.23802
1.23382
1.22971
1.22756
1.22815
1.24517
1.40173
1.85444
2.17971
2.37722
2.40112
2.39337
2.37914
2.37808
2.37316
2.37223
2.37489
2.37115
2.36622
2.36011
2.35257
2.34871
2.34676
2.3468
2.35203
2.35837
2.36037
2.35969
2.35627
2.35117
2.34604
2.34016
2.33617
2.33348
2.3315
2.32992
2.3297
2.3284
2.32444
2.32007
2.31467
2.30969
2.30582
2.30268
2.2998
2.29615
2.29209
2.28893
2.28657
2.28382
2.28039
2.27631
2.27032
2.26192
2.25496
2.24999
2.24603
2.24278
2.23958
2.2361
2.23281
2.23043
2.22936
2.23009
2.23178
2.23132
2.22884
2.22556
2.22075
2.21199
2.20563
2.20324
2.20189
2.20149
2.2034
2.20875
2.21346
2.21518
2.21379
2.21108
2.21029
2.20926
2.20799
2.20652
2.20579
2.20875
2.21362
2.21323
2.21123
2.20836
2.20201
2.18841
2.174
2.16894
2.16706
2.166
2.16539
2.16642
2.17331
2.18061
2.17959
2.17709
2.17235
2.16253
2.14695
2.13593
2.13222
2.12986
2.12819
2.12752
2.13138
2.13973
2.14078
2.13951
2.13583
2.12682
2.11457
2.10882
2.10684
2.10606
2.10628
2.10957
2.11337
2.11219
2.10901
2.10259
1.26873
1.26517
1.26426
1.26388
1.26365
1.26388
1.26386
1.26365
1.26346
1.26308
1.26133
1.25848
1.25745
1.25708
1.25683
1.25715
1.25783
1.25777
1.25762
1.25748
1.25694
1.25509
1.25265
1.25175
1.2515
1.25137
1.25124
1.25103
1.25076
1.25046
1.2503
1.25022
1.25023
1.25059
1.25153
1.25248
1.25293
1.25316
1.25336
1.25347
1.25318
1.25189
1.25088
1.25097
1.25157
1.25305
1.25557
1.25711
1.25744
1.25759
1.25741
1.25641
1.25519
1.25469
1.25451
1.25453
1.25503
1.25485
1.25436
1.25384
1.25297
1.25078
1.24755
1.24608
1.24577
1.24554
1.24563
1.24565
1.24482
1.24397
1.24337
1.24277
1.24155
1.23907
1.23642
1.23562
1.23542
1.23532
1.23492
1.23427
1.23359
1.23276
1.23169
1.23028
1.22963
1.22945
1.2294
1.22952
1.23007
1.23061
1.23068
1.23055
1.2299
1.2285
1.2275
1.22734
1.22746
1.22813
1.22952
1.23123
1.23286
1.2344
1.23583
1.23743
1.23965
1.24254
1.24509
1.24672
1.24831
1.25002
1.25046
1.25037
1.24985
1.24874
1.24694
1.24412
1.24132
1.24043
1.24023
1.24042
1.24179
1.2437
1.24427
1.24396
1.24326
1.24195
1.2393
1.23513
1.23173
1.2301
1.23126
1.26335
1.41712
1.88506
2.25179
2.36063
2.40362
2.3998
2.38544
2.37626
2.37476
2.37874
2.38082
2.38253
2.37657
2.36809
2.358
2.34984
2.34748
2.34692
2.35047
2.35965
2.36433
2.36317
2.35995
2.35406
2.34633
2.3404
2.33674
2.33417
2.33411
2.33935
2.34337
2.34168
2.33602
2.32591
2.31739
2.31194
2.3078
2.30498
2.30481
2.30445
2.30129
2.29695
2.29083
2.28615
2.28296
2.27965
2.27581
2.27078
2.26316
2.2557
2.25181
2.24885
2.24688
2.24601
2.24478
2.24247
2.23913
2.2356
2.23326
2.23162
2.22971
2.22714
2.22411
2.22021
2.21406
2.20619
2.20241
2.20063
2.1998
2.20138
2.20713
2.2139
2.21783
2.21939
2.21735
2.21129
2.20849
2.20736
2.20622
2.20532
2.20522
2.20715
2.21105
2.21159
2.20943
2.20694
2.20189
2.18991
2.17418
2.16725
2.16492
2.16297
2.16144
2.16182
2.16943
2.17857
2.17836
2.1762
2.17254
2.16437
2.14829
2.13428
2.12957
2.12718
2.12537
2.12468
2.12961
2.14011
2.14193
2.14071
2.13749
2.12921
2.11524
2.10734
2.10496
2.10373
2.10321
2.10498
2.10822
2.10731
2.10472
1.26787
1.26654
1.26614
1.26591
1.26623
1.26624
1.26579
1.26552
1.26521
1.26382
1.26069
1.259
1.25861
1.25827
1.25832
1.25942
1.2599
1.25969
1.25945
1.259
1.25736
1.2548
1.25331
1.25285
1.25262
1.25252
1.25242
1.25226
1.25205
1.25178
1.25162
1.25155
1.25155
1.25194
1.25278
1.25333
1.25357
1.25377
1.25392
1.25373
1.25266
1.2517
1.25176
1.25233
1.2537
1.25605
1.25749
1.25783
1.25801
1.25795
1.25719
1.25627
1.25593
1.25586
1.25596
1.25679
1.25736
1.25703
1.25654
1.25582
1.254
1.25081
1.24896
1.24857
1.24832
1.24833
1.24826
1.24756
1.2466
1.24573
1.24496
1.24371
1.24134
1.23857
1.23755
1.23736
1.23723
1.23731
1.23689
1.23623
1.23551
1.23462
1.23346
1.23204
1.2314
1.23119
1.23113
1.23129
1.2317
1.23179
1.2317
1.23117
1.22973
1.22833
1.22809
1.22817
1.22849
1.22947
1.23139
1.23302
1.23412
1.23532
1.2366
1.23796
1.23977
1.24236
1.24517
1.24747
1.24972
1.25102
1.25122
1.25119
1.25073
1.24943
1.24712
1.24458
1.24372
1.2435
1.24368
1.24489
1.2461
1.2461
1.24564
1.24485
1.24341
1.24057
1.23666
1.23382
1.23272
1.23427
1.27191
1.51038
1.88958
2.2915
2.40374
2.40591
2.39932
2.38784
2.38121
2.3758
2.37397
2.37665
2.38066
2.38032
2.37554
2.36918
2.36202
2.35573
2.35317
2.35398
2.35958
2.36428
2.3637
2.36152
2.35764
2.35003
2.34182
2.3378
2.33605
2.33665
2.3427
2.34982
2.34958
2.34561
2.33972
2.32846
2.31642
2.31136
2.30829
2.30707
2.30729
2.30503
2.30154
2.29775
2.29261
2.28629
2.28228
2.27891
2.2752
2.27085
2.26507
2.25851
2.25422
2.25127
2.24951
2.24932
2.25019
2.25042
2.24902
2.24551
2.23871
2.23139
2.22693
2.22375
2.22105
2.21823
2.21435
2.20875
2.20413
2.20201
2.20115
2.20202
2.20583
2.2116
2.21704
2.22009
2.22136
2.21909
2.21254
2.20855
2.20701
2.20567
2.20441
2.20332
2.20301
2.20572
2.20875
2.2074
2.20518
2.20105
2.19002
2.17299
2.16399
2.16113
2.15918
2.1582
2.16096
2.17025
2.17864
2.17782
2.17506
2.1715
2.16384
2.14827
2.1329
2.12736
2.12517
2.12383
2.12409
2.13053
2.14107
2.14202
2.14003
2.13672
2.12886
2.11406
2.10461
2.10194
2.10027
2.09932
2.10051
2.10418
2.10378
1.26939
1.26897
1.26872
1.26906
1.26917
1.26856
1.26807
1.26766
1.26646
1.26331
1.26073
1.26025
1.25996
1.25991
1.26098
1.26194
1.26175
1.26139
1.26086
1.25946
1.25679
1.25494
1.2544
1.25403
1.25381
1.25374
1.25367
1.25356
1.25337
1.25292
1.25264
1.25249
1.25243
1.25276
1.25364
1.25412
1.2543
1.25444
1.25442
1.25365
1.25273
1.25274
1.25323
1.2544
1.25642
1.25773
1.25809
1.25826
1.25824
1.25769
1.25706
1.25695
1.25708
1.25731
1.25824
1.25951
1.25946
1.259
1.25838
1.25694
1.25397
1.25162
1.25116
1.25088
1.25086
1.25088
1.25031
1.24953
1.24865
1.24771
1.2464
1.24394
1.24091
1.23969
1.2395
1.23934
1.23942
1.23948
1.23892
1.23823
1.23748
1.23649
1.23503
1.23352
1.23299
1.23277
1.23273
1.23292
1.23302
1.23294
1.23255
1.23119
1.22944
1.22894
1.22898
1.22921
1.2299
1.23136
1.23349
1.2346
1.23525
1.23617
1.23727
1.23841
1.23986
1.24202
1.24492
1.24811
1.25095
1.25189
1.25216
1.2522
1.25169
1.25003
1.24787
1.24706
1.24679
1.24696
1.24805
1.24858
1.24818
1.24756
1.24653
1.24488
1.24194
1.23833
1.23593
1.23539
1.23847
1.27594
1.54058
2.01103
2.28204
2.4073
2.41531
2.40843
2.40099
2.40123
2.39708
2.38993
2.385
2.38322
2.38042
2.37709
2.37208
2.36815
2.36528
2.3635
2.36302
2.36394
2.3644
2.3629
2.36065
2.35735
2.3522
2.34701
2.34315
2.34122
2.3417
2.34619
2.35117
2.35144
2.3484
2.34424
2.33942
2.33249
2.32332
2.31572
2.31188
2.30951
2.30722
2.30414
2.30099
2.29776
2.29429
2.28957
2.28402
2.27947
2.27546
2.27133
2.26674
2.26154
2.25709
2.25398
2.25218
2.25189
2.2533
2.2543
2.25296
2.25014
2.24546
2.23573
2.2258
2.22114
2.21797
2.21547
2.21361
2.21116
2.20796
2.20541
2.20387
2.20341
2.20443
2.20732
2.21252
2.21809
2.22098
2.2223
2.22099
2.21509
2.20939
2.20637
2.20394
2.20167
2.19973
2.19863
2.2005
2.2053
2.20492
2.20286
2.19892
2.18813
2.17078
2.16095
2.15856
2.15779
2.16
2.16423
2.16926
2.17484
2.17513
2.17201
2.16874
2.16245
2.14951
2.13403
2.12707
2.12498
2.12414
2.1251
2.13087
2.1394
2.13994
2.13726
2.13375
2.1264
2.11179
2.10138
2.09839
2.09657
2.09555
2.09701
2.10146
1.27231
1.27206
1.27233
1.27248
1.27176
1.27108
1.2705
1.26931
1.2663
1.26289
1.26205
1.26188
1.26188
1.26286
1.26403
1.26382
1.26333
1.2627
1.26137
1.25882
1.25654
1.25596
1.25564
1.25528
1.25509
1.25504
1.255
1.2549
1.25441
1.25356
1.25321
1.25303
1.25299
1.25359
1.25465
1.25501
1.25513
1.25517
1.25467
1.25378
1.25376
1.25416
1.25505
1.2567
1.25789
1.25822
1.25843
1.25848
1.25807
1.25766
1.25782
1.25812
1.2585
1.2595
1.26123
1.26168
1.26128
1.26063
1.25951
1.25707
1.25427
1.25352
1.25324
1.2531
1.25339
1.2531
1.25246
1.25177
1.2509
1.24959
1.24706
1.24362
1.242
1.2418
1.24165
1.24158
1.24188
1.24167
1.24098
1.24024
1.23939
1.23809
1.23612
1.23489
1.23452
1.23433
1.23436
1.23442
1.23432
1.23403
1.23283
1.23081
1.22998
1.22996
1.23009
1.23057
1.23167
1.23357
1.23527
1.23585
1.23627
1.23693
1.23781
1.23874
1.23995
1.24179
1.24458
1.24849
1.2518
1.25282
1.25322
1.25329
1.25266
1.25108
1.25033
1.25006
1.25017
1.25111
1.25117
1.25054
1.24971
1.24838
1.24646
1.24344
1.24016
1.23807
1.23783
1.24309
1.30699
1.53806
2.07472
2.33954
2.41161
2.40547
2.39673
2.39519
2.39413
2.39781
2.40325
2.40199
2.39687
2.38626
2.37786
2.37237
2.3686
2.36756
2.36937
2.37325
2.37415
2.37062
2.36442
2.3591
2.35471
2.35092
2.34923
2.34841
2.34932
2.35187
2.35518
2.35562
2.35285
2.34901
2.345
2.34117
2.33806
2.33491
2.33103
2.32472
2.31629
2.31031
2.30629
2.30254
2.29974
2.2985
2.29676
2.29395
2.28957
2.28295
2.27734
2.27298
2.26889
2.26482
2.26095
2.25778
2.25573
2.25515
2.25608
2.25539
2.2528
2.24969
2.24614
2.24037
2.22968
2.22052
2.21662
2.21391
2.21275
2.21398
2.21294
2.21038
2.20755
2.20511
2.20413
2.20468
2.20745
2.21287
2.21883
2.22201
2.22353
2.22283
2.21715
2.20879
2.20345
2.20051
2.19812
2.19607
2.19474
2.19591
2.20149
2.20243
2.20069
2.19715
2.1883
2.17383
2.16406
2.16161
2.16143
2.16307
2.16351
2.16408
2.16773
2.17086
2.16901
2.16653
2.16198
2.15197
2.13725
2.12863
2.12613
2.12507
2.12529
2.12875
2.1352
2.13632
2.13349
2.12958
2.12243
2.10854
2.09811
2.09505
2.0932
2.09255
2.09603
1.27574
1.27588
1.27608
1.27532
1.27442
1.27364
1.27244
1.26958
1.26565
1.26414
1.26405
1.26414
1.26502
1.26628
1.26611
1.26549
1.26472
1.26331
1.26078
1.25829
1.25754
1.25732
1.25699
1.25666
1.25649
1.25644
1.25637
1.25596
1.25469
1.25382
1.25359
1.25345
1.25367
1.25492
1.25591
1.2561
1.25616
1.25587
1.25493
1.25467
1.25492
1.25542
1.25653
1.25795
1.25846
1.25864
1.25866
1.25841
1.25833
1.25861
1.25905
1.25955
1.26053
1.26238
1.26342
1.2633
1.26277
1.26178
1.25988
1.25709
1.2559
1.25562
1.25536
1.25541
1.25582
1.25544
1.25484
1.25411
1.25299
1.25068
1.24689
1.24454
1.24425
1.2441
1.24399
1.24414
1.24435
1.24387
1.24308
1.24222
1.24106
1.23909
1.23705
1.23639
1.2361
1.236
1.23601
1.23588
1.23563
1.23461
1.2325
1.23127
1.23118
1.2312
1.23147
1.23222
1.23369
1.2356
1.23656
1.2369
1.23724
1.23763
1.23829
1.23906
1.2401
1.2418
1.24442
1.24839
1.25211
1.25349
1.25423
1.25439
1.25399
1.25334
1.25312
1.25316
1.25405
1.25393
1.25311
1.25207
1.25056
1.24841
1.24525
1.24214
1.24032
1.24028
1.24575
1.33026
1.64733
2.04752
2.37995
2.43799
2.43314
2.41274
2.39517
2.39038
2.39359
2.39931
2.40225
2.40263
2.39973
2.3901
2.37971
2.37425
2.37129
2.37263
2.37749
2.3796
2.37751
2.37302
2.36466
2.35416
2.34948
2.34774
2.34751
2.35231
2.3612
2.36624
2.3646
2.35847
2.3504
2.34374
2.33964
2.33701
2.33655
2.33809
2.33636
2.33191
2.32343
2.3124
2.30643
2.30284
2.30053
2.30041
2.30006
2.29754
2.29396
2.28731
2.28006
2.27593
2.27244
2.26966
2.26752
2.26483
2.26129
2.25789
2.25457
2.25176
2.24953
2.24717
2.24414
2.24062
2.23507
2.22549
2.21801
2.21508
2.21436
2.21603
2.21509
2.21272
2.21032
2.20775
2.20501
2.20388
2.20477
2.20823
2.2139
2.2195
2.22238
2.22372
2.22292
2.21737
2.20745
2.20055
2.19735
2.19481
2.19258
2.191
2.19176
2.19803
2.20051
2.19949
2.19719
2.19152
2.18007
2.16881
2.16487
2.16279
2.16104
2.15932
2.1586
2.16238
2.16798
2.16745
2.16557
2.16214
2.15432
2.14059
2.13001
2.12654
2.12476
2.12409
2.12541
2.12989
2.13125
2.12875
2.12499
2.11801
2.10505
2.09533
2.09271
2.09184
2.09514
1.27952
1.27967
1.27911
1.27814
1.27709
1.27574
1.27308
1.26902
1.26677
1.26661
1.26671
1.26745
1.26866
1.26863
1.26795
1.26705
1.26548
1.26285
1.26028
1.25934
1.25897
1.25892
1.25865
1.25827
1.25808
1.25799
1.2577
1.25629
1.25457
1.25413
1.254
1.25407
1.25513
1.25672
1.25725
1.25732
1.2572
1.25628
1.25545
1.2555
1.25572
1.25621
1.25742
1.25862
1.259
1.25923
1.25906
1.25882
1.25935
1.25992
1.26051
1.26134
1.26298
1.2645
1.26471
1.26461
1.26404
1.26256
1.26
1.25836
1.25808
1.25785
1.25776
1.25807
1.25806
1.25757
1.25698
1.25612
1.25433
1.25078
1.24745
1.24684
1.24669
1.24655
1.24656
1.24693
1.24676
1.24609
1.24518
1.24393
1.2421
1.2397
1.23846
1.23802
1.2378
1.23775
1.23761
1.23737
1.23655
1.23446
1.23282
1.23262
1.23259
1.23267
1.23309
1.23406
1.23575
1.23722
1.23766
1.23793
1.23821
1.23836
1.23878
1.23946
1.24036
1.24195
1.24446
1.24807
1.25157
1.25383
1.2551
1.25572
1.25578
1.25571
1.25573
1.25653
1.25679
1.25593
1.2547
1.25312
1.25081
1.24756
1.24433
1.24269
1.2429
1.25096
1.32816
1.72295
2.13419
2.35196
2.43569
2.44361
2.43687
2.42691
2.41666
2.40538
2.39796
2.39819
2.40196
2.40036
2.39774
2.3925
2.38607
2.38148
2.37939
2.38067
2.38171
2.37936
2.3764
2.37205
2.36254
2.35274
2.34873
2.3481
2.35187
2.36232
2.37037
2.37011
2.36688
2.3594
2.34829
2.34162
2.33814
2.33564
2.33545
2.33917
2.33859
2.33484