/*--------------------------------*- C++ -*----------------------------------*\
  =========                 |
  \\      /  F ield         | OpenFOAM: The Open Source CFD Toolbox
   \\    /   O peration     | Website:  https://openfoam.org
    \\  /    A nd           | Version:  7
     \\/     M anipulation  |
\*---------------------------------------------------------------------------*/
FoamFile
{
    version     2.0;
    format      ascii;
    class       volScalarField;
    location    "4";
    object      rho;
}
// * * * * * * * * * * * * * * * * * * * * * * * * * * * * * * * * * * * * * //

dimensions      [1 -3 0 0 0 0 0];

internalField   nonuniform List<scalar> 
4128
(
2.51973
2.44902
2.4221
2.40945
2.39075
2.37088
2.34908
2.33421
2.3124
2.28119
2.25037
2.21967
2.17729
2.11679
2.07824
2.06107
2.04444
2.0318
2.01888
2.00252
1.98544
1.97043
1.95374
1.93229
1.8975
1.84006
1.80359
1.79482
1.78523
1.77535
1.76426
1.75327
1.74308
1.732
1.71678
1.68685
1.63267
1.5998
1.59397
1.59229
1.58833
1.58057
1.57561
1.57128
1.56447
1.5533
1.53337
1.49487
1.44956
1.43603
1.43342
1.43325
1.42818
1.4222
1.42047
1.41998
1.41579
1.40781
1.39234
1.359
1.31944
1.30691
1.3036
1.30143
1.30144
1.29818
1.29484
1.29315
1.28957
1.28399
1.2723
1.24356
1.21127
1.20238
1.19884
1.19585
1.19518
1.19903
1.21666
1.34597
1.63
1.99119
2.1029
2.09612
2.09081
2.07595
2.06158
2.05617
2.06058
2.07997
2.1173
2.21063
2.33679
2.38612
2.3924
2.39779
2.41261
2.4229
2.41721
2.4017
2.37679
2.34835
2.33316
2.32449
2.32084
2.32597
2.32539
2.31395
2.30016
2.28257
2.26406
2.25321
2.24587
2.241
2.23747
2.23033
2.22122
2.20996
2.19494
2.17846
2.16629
2.15965
2.15368
2.15134
2.15392
2.17078
2.25297
2.43419
2.69988
2.53392
2.48296
2.47226
2.45573
2.43589
2.41092
2.38992
2.37316
2.34681
2.31331
2.28137
2.24808
2.19946
2.1398
2.11492
2.09929
2.08131
2.06776
2.0548
2.03911
2.02326
2.00733
1.98774
1.96031
1.91015
1.85177
1.83443
1.82727
1.81761
1.80721
1.7962
1.78509
1.77413
1.76122
1.74143
1.70241
1.64902
1.63017
1.62452
1.62301
1.61909
1.61066
1.60409
1.59794
1.59092
1.57759
1.54857
1.49915
1.46906
1.46502
1.46406
1.46238
1.45466
1.44938
1.44793
1.44499
1.439
1.42805
1.40356
1.36163
1.33588
1.33154
1.32875
1.32832
1.32758
1.32304
1.32008
1.31683
1.31165
1.30253
1.28075
1.24597
1.22747
1.22341
1.2195
1.21715
1.21984
1.24573
1.3861
1.74678
2.02973
2.17206
2.1627
2.11776
2.10781
2.10596
2.1029
2.10146
2.11329
2.13952
2.20211
2.3385
2.41511
2.44615
2.44927
2.45135
2.45542
2.4517
2.44277
2.42864
2.40137
2.37558
2.36328
2.35517
2.3555
2.36277
2.35599
2.34363
2.32755
2.30755
2.29356
2.28451
2.27759
2.27288
2.26612
2.25741
2.24755
2.23396
2.21876
2.20694
2.19825
2.19119
2.18267
2.17334
2.16502
2.16024
2.15557
2.16346
2.20324
2.55772
2.53147
2.52107
2.50241
2.47821
2.4498
2.42946
2.40801
2.37858
2.3439
2.31029
2.27463
2.22462
2.17461
2.15485
2.13782
2.11823
2.10317
2.09014
2.07626
2.06137
2.04331
2.01943
1.98042
1.91654
1.87579
1.86709
1.86001
1.85003
1.83893
1.82849
1.81761
1.80553
1.79015
1.76492
1.7194
1.6744
1.66064
1.65514
1.65299
1.64802
1.63984
1.63244
1.62476
1.61619
1.59919
1.55916
1.5107
1.49755
1.49471
1.49427
1.48925
1.48084
1.47677
1.47408
1.46912
1.4612
1.44479
1.40905
1.36987
1.36019
1.35715
1.3557
1.35643
1.35241
1.3482
1.34491
1.34002
1.33249
1.31632
1.28342
1.2552
1.24875
1.24494
1.24176
1.24516
1.27865
1.44234
1.81588
2.15138
2.21651
2.18548
2.14747
2.12166
2.11632
2.11866
2.13499
2.15093
2.17377
2.22218
2.33127
2.45126
2.48144
2.49434
2.49928
2.50287
2.49719
2.48556
2.47411
2.45577
2.42558
2.40435
2.39302
2.38659
2.39165
2.39656
2.38748
2.37444
2.35526
2.33564
2.32496
2.31661
2.31068
2.30387
2.29434
2.28431
2.27205
2.25582
2.24383
2.23575
2.22802
2.22014
2.21129
2.20123
2.18969
2.17584
2.16842
2.16246
2.15918
2.59829
2.58113
2.56808
2.54624
2.51558
2.4873
2.46516
2.43918
2.40895
2.37396
2.33837
2.30139
2.25631
2.21603
2.19469
2.17546
2.15519
2.13846
2.1261
2.11384
2.09785
2.07648
2.04549
1.99199
1.92879
1.90854
1.9013
1.89354
1.88242
1.87087
1.86127
1.85068
1.83728
1.81877
1.78757
1.73889
1.70255
1.69229
1.68715
1.68221
1.67455
1.66756
1.66097
1.65216
1.63997
1.61613
1.57128
1.53535
1.52765
1.52467
1.52255
1.51449
1.50634
1.50277
1.49827
1.49212
1.48167
1.45726
1.41389
1.39042
1.3864
1.38412
1.3847
1.38231
1.37694
1.37338
1.36882
1.3622
1.35008
1.32225
1.28698
1.27433
1.27075
1.26794
1.27243
1.32352
1.52701
1.88721
2.22374
2.26656
2.25515
2.22254
2.18282
2.16321
2.15703
2.16192
2.17731
2.20142
2.24186
2.33174
2.47028
2.52533
2.52831
2.53489
2.54751
2.55434
2.54156
2.5262
2.5092
2.48135
2.44948
2.43348
2.42375
2.42114
2.431
2.43023
2.419
2.40326
2.38026
2.36292
2.35359
2.3467
2.34262
2.33473
2.3242
2.31222
2.29601
2.27972
2.27056
2.26339
2.25609
2.2475
2.238
2.22691
2.21329
2.20061
2.19214
2.18412
2.17753
2.64711
2.62887
2.61082
2.5823
2.54821
2.52181
2.49754
2.46937
2.43974
2.4043
2.36711
2.33097
2.29246
2.25892
2.23391
2.21231
2.1912
2.17363
2.16292
2.1504
2.13106
2.10412
2.06299
2.00179
1.95516
1.94411
1.93727
1.92831
1.91506
1.90356
1.89484
1.88394
1.8689
1.84665
1.80882
1.75924
1.73257
1.7246
1.7196
1.71095
1.70118
1.69448
1.68853
1.67833
1.66136
1.63021
1.59174
1.56725
1.5573
1.55302
1.5494
1.53986
1.53153
1.52706
1.52119
1.51347
1.49883
1.46545
1.42649
1.4168
1.41351
1.41266
1.41242
1.40691
1.4021
1.3979
1.39206
1.38226
1.36075
1.32433
1.30125
1.2968
1.29494
1.30116
1.36683
1.63194
1.98238
2.2654
2.34501
2.33336
2.28929
2.24224
2.215
2.19899
2.19926
2.20674
2.22245
2.25778
2.33383
2.47288
2.57113
2.57301
2.5723
2.58108
2.59589
2.5976
2.5847
2.56725
2.53774
2.49924
2.47641
2.46566
2.45987
2.46542
2.47304
2.46402
2.44946
2.42806
2.4044
2.39232
2.38422
2.37965
2.37589
2.36613
2.35433
2.3395
2.32077
2.30733
2.2996
2.29296
2.28472
2.27486
2.26355
2.24953
2.23379
2.22305
2.21588
2.20955
2.20343
2.7005
2.67754
2.65026
2.61334
2.57786
2.55205
2.52696
2.49982
2.47176
2.43717
2.40153
2.36688
2.33093
2.29777
2.27071
2.24885
2.2261
2.21055
2.20108
2.18556
2.16085
2.12557
2.07477
2.01982
1.99012
1.98139
1.97471
1.96385
1.94888
1.93752
1.9293
1.91705
1.8995
1.87204
1.82671
1.78139
1.76506
1.75778
1.75019
1.73996
1.72917
1.72184
1.71524
1.70343
1.68115
1.64632
1.61698
1.59922
1.58615
1.58026
1.57591
1.56641
1.55682
1.55065
1.54332
1.53234
1.51164
1.47428
1.44907
1.4438
1.44122
1.44115
1.43795
1.43207
1.42724
1.42201
1.41396
1.39744
1.36373
1.33136
1.32331
1.32289
1.33487
1.41323
1.71806
2.10639
2.3363
2.37467
2.35981
2.32493
2.2791
2.2585
2.25165
2.24698
2.2527
2.26451
2.28637
2.33997
2.46825
2.59239
2.61634
2.61541
2.61823
2.63012
2.63927
2.63305
2.6188
2.59417
2.55306
2.52087
2.50832
2.50113
2.50427
2.51505
2.50865
2.49428
2.47368
2.44694
2.42992
2.4209
2.41465
2.41217
2.40595
2.39534
2.38265
2.36473
2.34674
2.33676
2.32978
2.32251
2.31345
2.30286
2.28976
2.27323
2.25734
2.24694
2.23921
2.23341
2.22774
2.75214
2.7221
2.68605
2.6452
2.60949
2.58231
2.55586
2.52996
2.50198
2.47047
2.43944
2.40573
2.36896
2.33409
2.30755
2.28463
2.26035
2.24816
2.23764
2.21676
2.18552
2.14087
2.08994
2.05073
2.02862
2.02014
2.01207
1.99931
1.98372
1.97246
1.964
1.95035
1.9279
1.89128
1.8422
1.80893
1.79891
1.79039
1.78036
1.76974
1.75846
1.74976
1.74177
1.7284
1.70215
1.66664
1.64358
1.62829
1.61344
1.6066
1.602
1.59316
1.58282
1.57467
1.56559
1.54992
1.5228
1.48997
1.4753
1.47076
1.46896
1.46781
1.46291
1.45741
1.45211
1.44533
1.43263
1.40409
1.36573
1.35049
1.35192
1.36973
1.49324
1.79632
2.23838
2.37171
2.4118
2.40428
2.37209
2.32872
2.30013
2.29592
2.29439
2.297
2.30617
2.324
2.36453
2.47041
2.61126
2.65334
2.65923
2.66261
2.67217
2.68186
2.67763
2.6657
2.64707
2.60917
2.56967
2.55387
2.54472
2.54455
2.55679
2.55488
2.54125
2.52153
2.49263
2.46957
2.45876
2.45071
2.44634
2.44207
2.43242
2.42138
2.40706
2.38894
2.37648
2.3684
2.36119
2.35251
2.34236
2.33009
2.3142
2.29648
2.28287
2.27363
2.26611
2.25914
2.25129
2.79725
2.76214
2.7207
2.67877
2.64283
2.61373
2.5868
2.56024
2.53171
2.50626
2.47847
2.44409
2.4058
2.37092
2.34519
2.31734
2.29588
2.28603
2.27056
2.24317
2.2043
2.15402
2.11629
2.09093
2.07004
2.05916
2.04862
2.03516
2.0194
2.00695
1.99706
1.98166
1.95056
1.90367
1.86176
1.84245
1.8327
1.82245
1.81087
1.7997
1.78877
1.77804
1.76801
1.75356
1.72501
1.68905
1.66945
1.6557
1.64062
1.63337
1.6276
1.61852
1.60837
1.59861
1.58707
1.56669
1.53687
1.51231
1.50266
1.4985
1.49639
1.49279
1.48743
1.482
1.47597
1.46651
1.44507
1.40538
1.37902
1.38046
1.41096
1.58239
1.93446
2.2688
2.47483
2.48345
2.47514
2.44079
2.39728
2.36543
2.34741
2.33736
2.33344
2.34135
2.36238
2.4008
2.48418
2.63149
2.70771
2.70546
2.70565
2.71513
2.73177
2.72897
2.71554
2.69994
2.67013
2.62581
2.60187
2.59125
2.58651
2.59478
2.60011
2.58853
2.57164
2.54585
2.5161
2.50051
2.49071
2.48333
2.4778
2.46841
2.4577
2.44506
2.42801
2.4139
2.40518
2.39788
2.3897
2.38003
2.36904
2.35491
2.33671
2.3208
2.31057
2.30224
2.29424
2.28545
2.2759
2.84037
2.80014
2.7549
2.71282
2.67711
2.64663
2.61827
2.58744
2.56261
2.54181
2.514
2.47979
2.4429
2.41112
2.3818
2.34994
2.3344
2.32247
2.29914
2.26421
2.21658
2.17405
2.15401
2.13613
2.11497
2.09874
2.08407
2.06987
2.05489
2.03997
2.02677
2.00738
1.9643
1.91643
1.89137
1.87787
1.86659
1.85497
1.84187
1.82918
1.81904
1.80733
1.79352
1.7765
1.74704
1.7123
1.69525
1.68295
1.6692
1.66103
1.65343
1.64374
1.63347
1.62248
1.60819
1.5843
1.55531
1.53757
1.53109
1.5273
1.52279
1.51716
1.51149
1.50547
1.49765
1.48345
1.44941
1.41205
1.41234
1.45548
1.67042
2.07767
2.36965
2.53133
2.55469
2.54223
2.50808
2.44803
2.40057
2.38316
2.37102
2.37049
2.38309
2.40011
2.43339
2.50417
2.64282
2.75496
2.75804
2.75093
2.7524
2.77089
2.78287
2.76991
2.75344
2.72978
2.68711
2.65154
2.63906
2.63128
2.63229
2.64098
2.63349
2.61883
2.59938
2.57061
2.54652
2.53424
2.52508
2.51736
2.50719
2.49577
2.4833
2.46783
2.45222
2.44248
2.43487
2.42776
2.41825
2.40704
2.39352
2.37578
2.35748
2.34664
2.33867
2.33087
2.32239
2.31263
2.30132
2.88264
2.83778
2.79
2.74687
2.71062
2.67954
2.64641
2.61561
2.59685
2.57558
2.5467
2.51472
2.48234
2.45158
2.41431
2.38806
2.3751
2.35548
2.32343
2.27862
2.23057
2.20821
2.19678
2.18132
2.1597
2.13842
2.11907
2.10255
2.08816
2.07235
2.0542
2.02412
1.9721
1.93917
1.92655
1.91391
1.90062
1.88796
1.87436
1.86009
1.84933
1.83787
1.82024
1.79596
1.76376
1.73599
1.72204
1.71123
1.70002
1.6897
1.6796
1.66891
1.65824
1.64623
1.62841
1.60268
1.5769
1.56461
1.5598
1.55583
1.54946
1.54224
1.53546
1.52777
1.51634
1.49274
1.45184
1.45064
1.52096
1.77585
2.19537
2.51027
2.60235
2.60028
2.56578
2.5303
2.49587
2.44878
2.41598
2.40382
2.39886
2.41589
2.44184
2.47369
2.53214
2.65478
2.78793
2.81396
2.8021
2.79886
2.80861
2.82527
2.82141
2.80486
2.78473
2.74933
2.70693
2.68876
2.67936
2.6754
2.68039
2.67716
2.66341
2.64689
2.6234
2.59635
2.57981
2.56922
2.56015
2.54939
2.5368
2.52295
2.50675
2.48954
2.47825
2.47001
2.46369
2.45607
2.44567
2.43313
2.41604
2.39417
2.3799
2.37195
2.36467
2.35743
2.3494
2.33974
2.32702
2.9208
2.87226
2.82369
2.78099
2.74495
2.70943
2.6711
2.64877
2.63169
2.60674
2.57888
2.55117
2.52319
2.48834
2.45056
2.43157
2.41241
2.38221
2.3398
2.29036
2.25997
2.2505
2.24024
2.22437
2.20139
2.17602
2.15301
2.13422
2.11921
2.10301
2.07638
2.02896
1.98664
1.97254
1.96233
1.94971
1.93523
1.92141
1.90852
1.8947
1.88312
1.8702
1.84655
1.807
1.77743
1.76235
1.75073
1.73987
1.72989
1.71924
1.70788
1.69631
1.68469
1.67099
1.64748
1.62032
1.60121
1.59202
1.58755
1.58375
1.5771
1.56867
1.55974
1.54878
1.53087
1.49475
1.49326
1.60408
1.92013
2.3393
2.5861
2.63766
2.6411
2.62544
2.58684
2.5434
2.5079
2.47873
2.466
2.45669
2.45533
2.46958
2.50093
2.5553
2.66348
2.81578
2.86493
2.85894
2.85108
2.85249
2.8664
2.86809
2.85366
2.83593
2.80894
2.7668
2.73888
2.72767
2.72074
2.72139
2.72018
2.70778
2.69319
2.67354
2.64625
2.62661
2.61517
2.60528
2.59442
2.58171
2.56698
2.54857
2.5277
2.51376
2.50479
2.49753
2.49218
2.48385
2.47315
2.45913
2.43787
2.41591
2.40486
2.39701
2.39014
2.38328
2.37498
2.36446
2.34984
2.95315
2.90437
2.85681
2.81496
2.77659
2.73209
2.70128
2.68594
2.66428
2.63743
2.61317
2.5898
2.56197
2.52491
2.49604
2.47276
2.44121
2.39867
2.3507
2.31458
2.30286
2.29431
2.28252
2.26427
2.239
2.21117
2.18643
2.16702
2.15053
2.12873
2.08426
2.03503
2.01838
2.0092
1.99758
1.98479
1.9707
1.95623
1.94485
1.93297
1.91948
1.89875
1.85841
1.81376
1.79821
1.7911
1.78065
1.76908
1.75908
1.74892
1.73799
1.72678
1.71433
1.69603
1.66351
1.63958
1.62934
1.61969
1.61407
1.61088
1.60464
1.59533
1.58346
1.56868
1.53764
1.54541
1.69039
2.09551
2.42284
2.63627
2.72008
2.71297
2.69554
2.66868
2.62544
2.58051
2.54661
2.52407
2.5094
2.49921
2.49917
2.51606
2.56776
2.66352
2.8257
2.92551
2.92555
2.9124
2.90216
2.90628
2.91318
2.90193
2.88603
2.86629
2.83132
2.79318
2.77759
2.76803
2.76449
2.76381
2.7531
2.73958
2.72357
2.69957
2.6746
2.66129
2.65123
2.64142
2.62943
2.61516
2.59637
2.57163
2.5506
2.53935
2.53084
2.52462
2.51818
2.50871
2.4975
2.48179
2.45958
2.44085
2.43054
2.42274
2.41548
2.40742
2.39815
2.38647
2.37072
2.98002
2.93396
2.89024
2.84938
2.80196
2.75688
2.73872
2.72152
2.69476
2.67032
2.65006
2.6287
2.59961
2.56936
2.54135
2.50488
2.45897
2.40874
2.37134
2.35482
2.34569
2.33629
2.32231
2.30094
2.27388
2.24611
2.2223
2.2027
2.18051
2.13884
2.08647
2.06214
2.05506
2.04478
2.03275
2.02052
2.00725
1.99406
1.98339
1.97153
1.94928
1.90981
1.86195
1.83362
1.82708
1.82093
1.8102
1.79815
1.78874
1.77995
1.77062
1.76048
1.74649
1.71814
1.67713
1.66235
1.65747
1.6472
1.64033
1.63719
1.63123
1.62002
1.60784
1.58788
1.62026
1.79923
2.23495
2.58473
2.71877
2.78318
2.77808
2.75359
2.72976
2.69897
2.64619
2.59363
2.56782
2.55074
2.53909
2.53914
2.55228
2.59228
2.68005
2.82577
2.96683
2.99037
2.96984
2.95748
2.95074
2.95525
2.95005
2.93409
2.91799
2.89494
2.8566
2.8271
2.81463
2.80623
2.80372
2.7969
2.78386
2.77029
2.75217
2.72636
2.70717
2.69601
2.6867
2.67645
2.66364
2.64762
2.62402
2.59539
2.57804
2.56781
2.5596
2.55234
2.54287
2.53205
2.51895
2.501
2.48203
2.46953
2.45983
2.45047
2.44075
2.43018
2.41823
2.40398
2.38858
3.00718
2.96541
2.92452
2.87912
2.82111
2.79093
2.77805
2.75444
2.72776
2.70794
2.68998
2.66735
2.64158
2.61425
2.57486
2.52415
2.46928
2.42857
2.40946
2.39709
2.3865
2.37553
2.35832
2.3347
2.3085
2.28391
2.262
2.23759
2.19526
2.13987
2.10695
2.09935
2.09065
2.07967
2.06878
2.05767
2.04568
2.03431
2.02211
2.00256
1.96011
1.91115
1.87706
1.86495
1.85868
1.85146
1.84001
1.82848
1.82028
1.81335
1.80553
1.79536
1.7742
1.7291
1.69421
1.68771
1.68436
1.67521
1.66713
1.66251
1.65467
1.64497
1.64596
1.7154
1.99724
2.37793
2.72315
2.79794
2.8173
2.81123
2.79084
2.75718
2.73389
2.70845
2.6573
2.60829
2.59065
2.57873
2.57741
2.59413
2.63212
2.70672
2.84711
2.99925
3.04965
3.02001
3.00412
2.99633
2.99843
3.0016
2.98823
2.97132
2.95344
2.92314
2.88238
2.8612
2.85001
2.84295
2.83974
2.82922
2.81619
2.8016
2.77978
2.75445
2.7398
2.72923
2.71982
2.70825
2.69449
2.67677
2.6504
2.62297
2.6085
2.59888
2.58984
2.57953
2.56783
2.55405
2.53668
2.51916
2.5075
2.49792
2.48788
2.47691
2.46472
2.45101
2.4352
2.41855
2.40667
3.03908
3.00211
2.96019
2.90187
2.84798
2.83299
2.81548
2.78721
2.76534
2.75028
2.73273
2.71083
2.68653
2.64859
2.59331
2.5327
2.48617
2.4663
2.4513
2.43744
2.4264
2.41209
2.3914
2.36794
2.34552
2.3248
2.30057
2.25671
2.19634
2.15552
2.14477
2.13732
2.12592
2.11553
2.10608
2.09623
2.08567
2.07366
2.05536
2.01652
1.95852
1.92134
1.90885
1.89836
1.8907
1.88271
1.87122
1.86166
1.8549
1.84858
1.84025
1.82347
1.78456
1.73613
1.71886
1.71417
1.7114
1.70409
1.69365
1.68776
1.68075
1.70267
1.82374
2.18858
2.61004
2.8006
2.82506
2.83483
2.83844
2.83635
2.82695
2.8014
2.77174
2.73503
2.68583
2.65423
2.64043
2.63406
2.63991
2.67194
2.7378
2.86463
3.03699
3.10638
3.08603
3.06356
3.05062
3.04779
3.05161
3.04472
3.0272
3.0089
2.98406
2.94571
2.91178
2.89695
2.88691
2.88198
2.87649
2.86398
2.85061
2.83334
2.80726
2.7842
2.77152
2.76104
2.74965
2.73643
2.7215
2.70223
2.6763
2.65417
2.64119
2.63021
2.61891
2.60673
2.59266
2.57433
2.55559
2.54455
2.5356
2.52601
2.51547
2.50325
2.48787
2.46784
2.44776
2.43621
2.42817
3.07607
3.04361
2.99447
2.92205
2.88924
2.87802
2.85151
2.82142
2.80729
2.79452
2.77685
2.75675
2.72348
2.66753
2.60132
2.54493
2.52213
2.50835
2.49025
2.47727
2.46558
2.44694
2.42493
2.40434
2.38568
2.36389
2.32223
2.25686
2.2069
2.1937
2.18565
2.17435
2.16261
2.15251
2.14473
2.13608
2.12442
2.10773
2.07372
2.01405
1.96341
1.95077
1.94242
1.93158
1.92434
1.91554
1.90547
1.89784
1.89165
1.88393
1.86925
1.83357
1.78628
1.75462
1.74647
1.7416
1.73926
1.73157
1.72236
1.72485
1.7731
1.96808
2.38655
2.76196
2.88567
2.92552
2.90574
2.89729
2.89062
2.88778
2.87961
2.85564
2.8082
2.74474
2.70659
2.6916
2.68296
2.68479
2.70277
2.76012
2.87191
3.05302
3.15853
3.15999
3.13683
3.11699
3.10583
3.10327
3.0964
3.08112
3.06374
3.04235
3.00866
2.96868
2.9483
2.93631
2.92848
2.92415
2.91336
2.89989
2.88478
2.86224
2.83381
2.81646
2.80506
2.79323
2.77963
2.76445
2.74696
2.72566
2.70299
2.6864
2.67384
2.6613
2.64744
2.63143
2.6125
2.59325
2.58054
2.57104
2.56186
2.55248
2.54199
2.52832
2.5075
2.48148
2.46582
2.45742
2.44975
3.11227
3.07867
3.0184
2.95379
2.9389
2.92117
2.88779
2.86423
2.85126
2.8359
2.82039
2.79457
2.74428
2.67671
2.60989
2.57692
2.56361
2.54535
2.52787
2.51839
2.50396
2.48227
2.46215
2.44505
2.4261
2.38975
2.32268
2.26155
2.2429
2.23599
2.22512
2.21246
2.20023
2.19134
2.18488
2.17507
2.15876
2.13016
2.07448
2.01189
1.99032
1.98504
1.97454
1.96667
1.96054
1.95087
1.94259
1.93574
1.92856
1.91606
1.88282
1.82934
1.7966
1.78417
1.77549
1.76959
1.76602
1.75946
1.7701
1.87385
2.1819
2.5768
2.93546
2.98848
2.97801
2.98212
2.98068
2.96304
2.94406
2.92895
2.91128
2.87718
2.81722
2.75608
2.73263
2.72115
2.72035
2.73581
2.78103
2.89333
3.05289
3.20665
3.23855
3.2086
3.18159
3.1647
3.1533
3.14649
3.13249
3.11565
3.09777
3.0715
3.0322
3.00243
2.98839
2.97829
2.97299
2.9637
2.9496
2.935
2.91603
2.88763
2.8626
2.84983
2.8383
2.82552
2.81123
2.79467
2.77417
2.75036
2.73084
2.71753
2.70508
2.69127
2.67454
2.65271
2.62939
2.61592
2.60682
2.59799
2.58847
2.57768
2.56466
2.54696
2.52183
2.499
2.48891
2.48161
2.47393
3.15002
3.10736
3.03565
3.00048
2.98839
2.95992
2.92683
2.91094
2.89369
2.87722
2.85637
2.81521
2.75264
2.68281
2.63766
2.6218
2.60349
2.57986
2.56765
2.55956
2.54067
2.51983
2.50355
2.48711
2.45754
2.39348
2.3205
2.29291
2.28589
2.27579
2.26399
2.25144
2.23959
2.23214
2.22441
2.20995
2.18461
2.13567
2.06779
2.031
2.02645
2.01852
2.00849
2.00436
1.9979
1.9882
1.98056
1.97344
1.96309
1.93585
1.87982
1.83116
1.82034
1.81428
1.80401
1.79816
1.79737
1.82351
1.97973
2.42103
2.80747
3.03976
3.10044
3.05064
3.01379
3.00888
3.01058
2.9972
2.97442
2.95301
2.92765
2.89024
2.83625
2.79382
2.77617
2.77071
2.77678
2.80783
2.90617
3.07384
3.23841
3.30893
3.29171
3.24456
3.2165
3.20264
3.19312
3.18612
3.17102
3.15418
3.13353
3.09944
3.05927
3.03941
3.02679
3.01884
3.01292
2.99925
2.98444
2.96788
2.9432
2.91161
2.89263
2.88101
2.86934
2.85682
2.84287
2.82618
2.8048
2.78012
2.76047
2.74674
2.73398
2.71916
2.69909
2.67413
2.65557
2.64413
2.63378
2.62339
2.61263
2.60063
2.58484
2.56062
2.53297
2.51993
2.51223
2.50468
2.49591
3.18228
3.12775
3.07082
3.05628
3.0334
2.99779
2.97187
2.95037
2.92951
2.91148
2.8808
2.82727
2.76009
2.70353
2.68282
2.66516
2.63835
2.6193
2.61276
2.59904
2.57742
2.56106
2.54661
2.52335
2.46637
2.3855
2.34406
2.33517
2.32662
2.31522
2.30347
2.29017
2.28064
2.27335
2.26047
2.23822
2.19564
2.12964
2.07632
2.06809
2.06373
2.0532
2.04542
2.04244
2.03464
2.02566
2.01769
2.00872
1.98835
1.9383
1.87527
1.85232
1.84821
1.84203
1.83398
1.83972
1.90051
2.1476
2.62474
3.03987
3.13591
3.13558
3.10781
3.05976
3.03982
3.03432
3.03488
3.02454
3.00313
2.98008
2.95078
2.91562
2.87651
2.84545
2.8309
2.83189
2.85088
2.92539
3.0877
3.27701
3.37327
3.36141
3.31311
3.27374
3.25514
3.24366
3.23895
3.2318
3.21581
3.19725
3.16727
3.12199
3.09055
3.07568
3.06453
3.05897
3.04948
3.03421
3.01869
2.99869
2.96789
2.93812
2.92291
2.91082
2.89847
2.88552
2.87148
2.85525
2.83528
2.81198
2.79049
2.77349
2.75793
2.74009
2.71808
2.69908
2.68708
2.6762
2.66467
2.65204
2.6383
2.62268
2.60135
2.57176
2.55083
2.54196
2.53464
2.52662
2.51708
3.21124
3.15188
3.12426
3.1051
3.07066
3.03642
3.01167
2.98216
2.95789
2.935
2.89597
2.8387
2.77757
2.74924
2.7311
2.70281
2.67419
2.66447
2.65657
2.6351
2.6173
2.60431
2.58551
2.53679
2.45589
2.39947
2.38642
2.37716
2.36672
2.35579
2.34175
2.33041
2.32259
2.31129
2.29127
2.25494
2.19406
2.1302
2.1103
2.10755
2.1024
2.09008
2.08359
2.07877
2.07025
2.0616
2.0527
2.03668
1.99664
1.93105
1.89026
1.88344
1.87784
1.87435
1.88907
2.009
2.38924
2.84018
3.18907
3.27212
3.2505
3.19463
3.14297
3.10449
3.08658
3.0792
3.07363
3.06105
3.04201
3.01648
2.98036
2.94178
2.9122
2.89049
2.883
2.89531
2.95682
3.09845
3.30073
3.43213
3.42835
3.38275
3.33924
3.318
3.30448
3.29774
3.29179
3.27665
3.25833
3.23192
3.18867
3.14521
3.1255
3.1124
3.10425
3.09902
3.08554
3.06986
3.05261
3.02686
2.99117
2.96691
2.9535
2.94084
2.92771
2.91389
2.89916
2.88296
2.86414
2.84199
2.81807
2.79589
2.77624
2.75545
2.73822
2.72776
2.71798
2.70758
2.69611
2.68249
2.66482
2.64166
2.61246
2.58582
2.57395
2.56567
2.55734
2.548
2.53735
3.23834
3.19335
3.17275
3.14034
3.09996
3.07027
3.04134
3.00587
2.98126
2.95681
2.91277
2.85514
2.81856
2.79951
2.77115
2.73406
2.71852
2.71341
2.69391
2.6725
2.66026
2.64483
2.60333
2.52648
2.45917
2.4399
2.42867
2.41847
2.40914
2.39493
2.38126
2.37197
2.36184
2.34347
2.31212
2.25726
2.19221
2.15552
2.15042
2.14862
2.14046
2.12675
2.12042
2.11362
2.10519
2.09571
2.08246
2.04997
1.99107
1.93504
1.92149
1.91559
1.91895
1.96058
2.15502
2.6498
3.11606
3.30619
3.3276
3.29822
3.24551
3.19832
3.17239
3.15382
3.14383
3.13544
3.1205
3.10503
3.08554
3.05188
3.00554
2.96577
2.94004
2.92886
2.93653
2.98765
3.12111
3.31403
3.47937
3.49231
3.45909
3.40766
3.38129
3.36631
3.35906
3.35189
3.33629
3.31809
3.29422
3.25369
3.20399
3.17843
3.1646
3.15403
3.14792
3.13663
3.12075
3.10434
3.08304
3.05015
3.01601
2.9989
2.9864
2.97361
2.95998
2.94538
2.92951
2.91185
2.89148
2.868
2.84273
2.81535
2.7889
2.77336
2.76315
2.75407
2.74551
2.73589
2.72502
2.71196
2.69291
2.6606
2.62355
2.60632
2.59706
2.58824
2.57906
2.56895
2.55754
3.27008
3.24086
3.20745
3.16139
3.12228
3.09666
3.06289
3.02746
3.00979
2.98256
2.93313
2.88897
2.8685
2.84234
2.80017
2.77508
2.77004
2.7547
2.72822
2.7145
2.70059
2.66464
2.59497
2.52336
2.49659
2.48171
2.47022
2.46276
2.45028
2.43407
2.42342
2.41371
2.39603
2.36713
2.31727
2.25643
2.20765
2.19649
2.19199
2.18905
2.17544
2.16209
2.15499
2.14741
2.13878
2.1273
2.10105
2.04769
1.98845
1.9624
1.95802
1.96852
2.06104
2.37943
2.88871
3.34183
3.43596
3.42557
3.39198
3.32163
3.25726
3.21543
3.20164
3.1913
3.1908
3.18193
3.16046
3.14098
3.11486
3.07114
3.02168
2.99234
2.97995
2.98502
3.02719
3.15299
3.34322
3.52368
3.56053
3.53096
3.47635
3.44441
3.42671
3.4167
3.4095
3.39375
3.37506
3.35395
3.32209
3.27309
3.23404
3.21773
3.20527
3.19662
3.18638
3.17046
3.15416
3.13546
3.10803
3.07
3.04395
3.03063
3.01874
3.00691
2.99399
2.97965
2.96294
2.94245
2.91789
2.89044
2.86047
2.83083
2.80964
2.79752
2.78821
2.7806
2.77278
2.7628
2.75082
2.73514
2.7113
2.67678
2.64672
2.63163
2.62074
2.61033
2.59968
2.58845
2.57577
3.30902
3.27292
3.22815
3.1815
3.15235
3.11892
3.07934
3.05828
3.0475
3.01222
2.96479
2.94075
2.91331
2.86732
2.8316
2.82465
2.81696
2.78772
2.77015
2.75666
2.72157
2.65638
2.58544
2.55588
2.53814
2.52323
2.51697
2.50642
2.48841
2.4762
2.4671
2.45009
2.42153
2.3742
2.31631
2.26507
2.24521
2.23889
2.23511
2.22485
2.20824
2.19594
2.18861
2.18088
2.17035
2.1503
2.10498
2.04118
2.00715
2.00805
2.03449
2.20538
2.66227
3.13486
3.46496
3.50923
3.49313
3.46407
3.41597
3.34605
3.28693
3.26036
3.24746
3.23859
3.23687
3.22318
3.20157
3.17387
3.13168
3.07584
3.04149
3.03001
3.03432
3.07318
3.18835
3.38069
3.5749
3.63155
3.60482
3.54545
3.50541
3.48635
3.47364
3.46579
3.45177
3.43305
3.41347
3.38839
3.34892
3.29981
3.27305
3.25842
3.24617
3.23525
3.2197
3.20307
3.18535
3.16249
3.12844
3.09239
3.07411
3.0615
3.0504
3.0394
3.02671
3.01251
2.99551
2.97273
2.94216
2.90725
2.87512
2.85202
2.83698
2.8252
2.81518
2.80586
2.79593
2.78521
2.77316
2.75648
2.72878
2.69405
2.67177
2.65852
2.64659
2.63449
2.62185
2.60816
2.59245
3.34989
3.29815
3.24142
3.20256
3.17076
3.13567
3.11194
3.1072
3.08859
3.04322
3.01321
2.98779
2.94047
2.89095
2.8769
2.87557
2.85217
2.82655
2.81079
2.77587
2.71435
2.64451
2.61534
2.59822
2.57879
2.57216
2.56422
2.54426
2.5299
2.52048
2.5035
2.47507
2.43033
2.37514
2.324
2.29705
2.28798
2.283
2.27339
2.25652
2.24017
2.22947
2.2225
2.21403
2.19741
2.15906
2.09647
2.05506
2.0616
2.13848
2.40952
2.95376
3.3903
3.58476
3.6259
3.5965
3.53724
3.48504
3.43273
3.3722
3.33156
3.31158
3.29851
3.29379
3.28536
3.26962
3.24818
3.2066
3.14419
3.10058
3.08558
3.08809
3.11851
3.22561
3.40687
3.6163
3.69745
3.67971
3.62355
3.57154
3.54821
3.53223
3.52061
3.50879
3.49139
3.47282
3.45195
3.42287
3.37848
3.33421
3.31246
3.29765
3.28549
3.27112
3.25418
3.23649
3.21564
3.18641
3.14698
3.11822
3.10363
3.09122
3.08104
3.07076
3.05807
3.04352
3.02499
2.99801
2.96002
2.92157
2.89755
2.88338
2.87051
2.85708
2.84341
2.8299
2.81651
2.803
2.7883
2.76935
2.74334
2.71708
2.69941
2.68555
2.67211
2.65842
2.64399
2.62767
2.60759
3.38985
3.32318
3.26849
3.2251
3.1902
3.17059
3.16629
3.16185
3.12502
3.08641
3.06279
3.01868
2.95619
2.92838
2.92723
2.91593
2.8877
2.8683
2.83351
2.77143
2.70111
2.67008
2.65914
2.638
2.62823
2.62292
2.60222
2.58405
2.57352
2.55584
2.52658
2.48385
2.43107
2.38251
2.3519
2.34046
2.33367
2.32474
2.30656
2.28846
2.27357
2.26385
2.25627
2.24406
2.21081
2.15095
2.11112
2.12787
2.28608
2.71518
3.20814
3.61094
3.66474
3.65784
3.64059
3.59876
3.55113
3.49785
3.43821
3.39602
3.37772
3.36505
3.36227
3.35316
3.33539
3.31426
3.27373
3.21124
3.16191
3.143
3.14342
3.16626
3.25904
3.44441
3.63476
3.74812
3.74261
3.70907
3.65505
3.61556
3.59477
3.57837
3.56346
3.5471
3.52883
3.50976
3.48638
3.45179
3.40404
3.3684
3.35044
3.3363
3.32414
3.30859
3.29149
3.27189
3.24508
3.20536
3.16521
3.14548
3.13212
3.12085
3.11236
3.10106
3.08697
3.07014
3.04651
3.0125
2.97401
2.94894
2.93396
2.91959
2.90416
2.88781
2.87095
2.85429
2.83754
2.81937
2.79931
2.77708
2.75464
2.73902
2.72681
2.71423
2.7003
2.68422
2.66527
2.64356
2.62011
3.42462
3.3575
3.29564
3.25064
3.23291
3.22958
3.23121
3.20387
3.16138
3.13507
3.09794
3.03125
2.98308
2.97435
2.97156
2.94892
2.92336
2.89052
2.8342
2.76515
2.72376
2.71553
2.70078
2.68711
2.68325
2.66376
2.63917
2.62613
2.60627
2.57633
2.53639
2.48574
2.43855
2.40623
2.39237
2.38434
2.37702
2.35909
2.33865
2.32322
2.30969
2.30076
2.2884
2.26052
2.20298
2.17285
2.22942
2.49074
3.04336
3.48624
3.7281
3.81074
3.7896
3.72502
3.65521
3.60595
3.56148
3.51222
3.46532
3.44221
3.42752
3.42355
3.42085
3.4032
3.38152
3.34249
3.27616
3.21882
3.19968
3.19716
3.21739
3.29296
3.48253
3.66794
3.79112
3.80013
3.78132
3.74567
3.69895
3.66024
3.6382
3.61908
3.60302
3.58521
3.56652
3.54585
3.51763
3.47447
3.42844
3.40458
3.38866
3.37672
3.36487
3.34905
3.33098
3.30694
3.26904
3.21917
3.18847
3.17366
3.16109
3.1519
3.1427
3.12928
3.11405
3.09396
3.0614
3.01934
2.9955
2.98347
2.9712
2.95725
2.94111
2.92181
2.89919
2.87613
2.85601
2.83649
2.81126
2.78409
2.77005
2.7603
2.75051
2.74007
2.72785
2.71201
2.68887
2.65657
2.62865
3.44085
3.37812
3.32009
3.29585
3.28936
3.29247
3.27168
3.23381
3.20078
3.16568
3.10465
3.04386
3.02287
3.01996
3.00473
2.97703
2.94578
2.89723
2.83321
2.78686
2.77123
2.76005
2.74879
2.74552
2.73013
2.69583
2.67593
2.65378
2.62281
2.5854
2.53837
2.49288
2.46167
2.44541
2.43548
2.42949
2.41332
2.39058
2.37368
2.36047
2.34883
2.33425
2.30823
2.25488
2.25054
2.38363
2.80895
3.35136
3.713
3.80585
3.82409
3.82522
3.79933
3.75997
3.70213
3.63468
3.57626
3.53614
3.51416
3.49986
3.49435
3.4883
3.47017
3.44668
3.40653
3.34252
3.28294
3.26137
3.25646
3.27578
3.34194
3.51691
3.71939
3.83848
3.86784
3.84869
3.81928
3.78064
3.73388
3.69834
3.67616
3.65796
3.64348
3.62523
3.60514
3.5798
3.54181
3.49163
3.45936
3.44236
3.42913
3.4208
3.40811
3.39126
3.37005
3.33623
3.28282
3.23722
3.21824
3.2047
3.19427
3.18544
3.17185
3.15621
3.13721
3.10838
3.06791
3.0396
3.02718
3.01592
3.004
2.99072
2.9755
2.95685
2.9327
2.90245
2.87023
2.84185
2.81731
2.79975
2.78908
2.7795
2.77078
2.76172
2.75089
2.73606
2.71059
2.67334
2.64601
3.41333
3.3814
3.35515
3.34099
3.34418
3.3292
3.29554
3.25985
3.22614
3.1758
3.11012
3.07466
3.06745
3.05493
3.02985
2.99867
2.95736
2.89895
2.85568
2.83408
2.81926
2.80992
2.80544
2.79271
2.75785
2.72644
2.70096
2.67103
2.63514
2.59079
2.54551
2.51605
2.50031
2.48772
2.48094
2.46829
2.44504
2.42483
2.41178
2.39836
2.38494
2.3478
2.3169
2.36549
2.62974
3.18168
3.65564
3.90435
3.99239
3.9679
3.90396
3.84181
3.80416
3.77225
3.7268
3.66473
3.60749
3.58017
3.56252
3.55523
3.5526
3.53548
3.5123
3.47393
3.40945
3.34384
3.31974
3.314
3.33059
3.39225
3.55791
3.7741
3.90451
3.94055
3.92292
3.89405
3.85632
3.8078
3.76005
3.73415
3.71496
3.70283
3.68834
3.66848
3.64472
3.60938
3.5559
3.51344
3.49477
3.48031
3.47227
3.46445
3.44888
3.43018
3.40244
3.35307
3.29476
3.26723
3.25269
3.24086
3.23142
3.21807
3.20209
3.18288
3.15481
3.1124
3.07885
3.06603
3.05529
3.04475
3.03311
3.02
3.00482
2.98636
2.96287
2.93258
2.89401
2.85335
2.82931
2.81789
2.80792
2.79881
2.79096
2.78149
2.77016
2.75455
2.72892
2.69501
2.66871
3.34148
3.38611
3.39325
3.39826
3.38812
3.35886
3.32146
3.2845
3.24176
3.17868
3.13107
3.11776
3.10408
3.08183
3.05248
3.01562
2.96188
2.92477
2.90178
2.87916
2.87159
2.86736
2.84965
2.81814
2.78197
2.75032
2.72121
2.6881
2.64463
2.59883
2.56814
2.55596
2.54272
2.53265
2.52324
2.50246
2.47881
2.46336
2.44842
2.43317
2.39507
2.40091
2.54072
2.98503
3.55306
3.90597
3.97409
3.99141
4.0031
3.99532
3.95681
3.89527
3.83042
3.77573
3.72803
3.68792
3.66442
3.64686
3.63265
3.61981
3.60129
3.57701
3.53419
3.46835
3.40622
3.37883
3.37094
3.38664
3.4443
3.6014
3.82506
3.97184
4.01688
4.00135
3.9733
3.93474
3.88411
3.8266
3.79359
3.77406
3.7626
3.75504
3.73693
3.71415
3.68083
3.62607
3.57048
3.54643
3.53079
3.52083
3.5162
3.50309
3.48526
3.46256
3.42259
3.36062
3.3199
3.3038
3.29113
3.28069
3.26709
3.25091
3.23255
3.20697
3.16533
3.12166
3.10319
3.09123
3.08042