/*--------------------------------*- C++ -*----------------------------------*\
  =========                 |
  \\      /  F ield         | OpenFOAM: The Open Source CFD Toolbox
   \\    /   O peration     | Website:  https://openfoam.org
    \\  /    A nd           | Version:  7
     \\/     M anipulation  |
\*---------------------------------------------------------------------------*/
FoamFile
{
    version     2.0;
    format      ascii;
    class       volScalarField;
    location    "2.6";
    object      p;
}
// * * * * * * * * * * * * * * * * * * * * * * * * * * * * * * * * * * * * * //

dimensions      [1 -1 -2 0 0 0 0];

internalField   nonuniform List<scalar> 
16512
(
1
1
1
1
1
1
1
1
1
1
1
1
1
1
1
1
1
1
1
1
1
1
1
1
1
1
1
1
1
1
1
1
1
1
1
1.31603
7.5558
10.6087
10.7425
10.951
11.1364
11.3132
11.4755
11.6214
11.7515
11.8566
11.9372
11.9964
1
1
1
1
1
1
1
1
1
1
1
1
1
1
1
1
1
1
1
1
1
1
1
1
1
1
1
1
1
1
1
1
1
1
1
1.27724
7.39135
10.575
10.7288
10.9312
11.113
11.2851
11.4425
11.5821
11.7047
11.8022
11.8739
11.9299
1
1
1
1
1
1
1
1
1
1
1
1
1
1
1
1
1
1
1
1
1
1
1
1
1
1
1
1
1
1
1
1
1
1
1
1.17423
7.08898
10.5448
10.6867
10.8876
11.0693
11.2397
11.3945
11.5293
11.6444
11.733
11.7911
11.8391
1
1
1
1
1
1
1
1
1
1
1
1
1
1
1
1
1
1
1
1
1
1
1
1
1
1
1
1
1
1
1
1
1
1
1
1.01473
6.58726
10.488
10.6314
10.8191
10.9913
11.1503
11.2965
11.4254
11.5369
11.6211
11.6694
11.7063
1
1
1
1
1
1
1
1
1
1
1
1
1
1
1
1
1
1
1
1
1
1
1
1
1
1
1
1
1
1
1
1
1
1
1
1.00016
5.91273
10.3137
10.5023
10.6853
10.8599
11.0164
11.156
11.2711
11.3609
11.4272
11.462
11.5113
1
1
1
1
1
1
1
1
1
1
1
1
1
1
1
1
1
1
1
1
1
1
1
1
1
1
1
1
1
1
1
1
1
1
1
0.999999
5.06904
10.0804
10.3909
10.5584
10.7243
10.8632
10.9823
11.0807
11.1593
11.2198
11.2325
11.1928
1
1
1
1
1
1
1
1
1
1
1
1
1
1
1
1
1
1
1
1
1
1
1
1
1
1
1
1
1
1
1
1
1
1
1
1
4.10383
9.72115
10.2744
10.4304
10.5743
10.6832
10.7662
10.8255
10.8466
10.812
10.7441
10.6989
1
1
1
1
1
1
1
1
1
1
1
1
1
1
1
1
1
1
1
1
1
1
1
1
1
1
1
1
1
1
1
1
1
1
1
1
3.06039
9.16514
10.1874
10.3235
10.4373
10.5107
10.5444
10.5486
10.503
10.4252
10.2938
10.2764
1
1
1
1
1
1
1
1
1
1
1
1
1
1
1
1
1
1
1
1
1
1
1
1
1
1
1
1
1
1
1
1
1
1
1
1
1.98303
8.29932
10.1468
10.1974
10.2887
10.3295
10.3148
10.255
10.1108
9.84307
9.06107
7.18007
1
1
1
1
1
1
1
1
1
1
1
1
1
1
1
1
1
1
1
1
1
1
1
1
1
1
1
1
1
1
1
1
1
1
1
1
1.12175
7.14758
10.1904
10.0899
10.0875
10.0769
10.021
9.89715
9.65857
9.18408
8.37777
6.32211
1
1
1
1
1
1
1
1
1
1
1
1
1
1
1
1
1
1
1
1
1
1
1
1
1
1
1
1
1
1
1
1
1
1
1
1
1.0014
5.52994
9.58623
9.72877
9.79156
9.76682
9.69189
9.51956
9.22299
8.6579
7.82508
5.88509
1
1
1
1
1
1
1
1
1
1
1
1
1
1
1
1
1
1
1
1
1
1
1
1
1
1
1
1
1
1
1
1
1
1
1
1
0.999979
3.65895
8.99421
9.59472
9.62383
9.55929
9.43934
9.21146
8.85283
8.27728
7.37404
5.79554
1
1
1
1
1
1
1
1
1
1
1
1
1
1
1
1
1
1
1
1
1
1
1
1
1
1
1
1
1
1
1
1
1
1
1
1
0.999995
1.93764
8.02941
9.53928
9.44571
9.33401
9.17565
8.91326
8.51896
7.96
7.05482
5.82697
1
1
1
1
1
1
1
1
1
1
1
1
1
1
1
1
1
1
1
1
1
1
1
1
1
1
1
1
1
1
1
1
1
1
1
1
0.999999
1.09179
6.26312
9.19613
9.18657
9.08928
8.92289
8.65309
8.26457
7.70374
6.87586
5.91112
1
1
1
1
1
1
1
1
1
1
1
1
1
1
1
1
1
1
1
1
1
1
1
1
1
1
1
1
1
1
1
1
1
1
1
1
1
1.00043
3.79997
8.5956
9.04497
8.93938
8.75431
8.44523
8.05884
7.48887
6.77028
5.97802
1
1
1
1
1
1
1
1
1
1
1
1
1
1
1
1
1
1
1
1
1
1
1
1
1
1
1
1
1
1
1
1
1
1
1
1
1
0.999995
1.5992
7.61571
9.08188
8.80167
8.55997
8.24638
7.83463
7.32945
6.71848
6.04258
1
1
1
1
1
1
1
1
1
1
1
1
1
1
1
1
1
1
1
1
1
1
1
1
1
1
1
1
1
1
1
1
1
1
1
1
1
0.999999
1.03155
5.57493
8.64185
8.4612
8.29396
8.02408
7.6575
7.21034
6.67399
6.08193
1
1
1
1
1
1
1
1
1
1
1
1
1
1
1
1
1
1
1
1
1
1
1
1
1
1
1
1
1
1
1
1
1
1
1
1
1
1
0.99996
2.77359
7.90242
8.3556
8.20295
7.93432
7.57628
7.14399
6.64314
6.1126
1
1
1
1
1
1
1
1
1
1
1
1
1
1
1
1
1
1
1
1
1
1
1
1
1
1
1
1
1
1
1
1
1
1
1
1
1
1
0.999986
1.22159
6.06053
8.30022
8.11306
7.82901
7.47448
7.06789
6.61268
6.13648
1
1
1
1
1
1
1
1
1
1
1
1
1
1
1
1
1
1
1
1
1
1
1
1
1
1
1
1
1
1
1
1
1
1
1
1
1
1
0.999998
1.00377
3.20485
7.59319
7.98846
7.70555
7.38102
7.00263
6.59084
6.16481
1
1
1
1
1
1
1
1
1
1
1
1
1
1
1
1
1
1
1
1
1
1
1
1
1
1
1
1
1
1
1
1
1
1
1
1
1
1
1
1
1.33223
5.96084
7.95709
7.63944
7.33118
6.96385
6.57879
6.1887
1
1
1
1
1
1
1
1
1
1
1
1
1
1
1
1
1
1
1
1
1
1
1
1
1
1
1
1
1
1
1
1
1
1
1
1
1
1
1
1
1.00884
3.07744
7.21337
7.54401
7.24232
6.90497
6.55826
6.20247
1
1
1
1
1
1
1
1
1
1
1
1
1
1
1
1
1
1
1
1
1
1
1
1
1
1
1
1
1
1
1
1
1
1
1
1
1
1
1
1
1.00002
1.29972
5.43845
7.5546
7.21413
6.90828
6.58723
6.24981
1
1
1
1
1
1
1
1
1
1
1
1
1
1
1
1
1
1
1
1
1
1
1
1
1
1
1
1
1
1
1
1
1
1
1
1
1
1
1
1
1
1.00756
2.49057
6.52227
7.17632
6.8923
6.58996
6.2728
1
1
1
1
1
1
1
1
1
1
1
1
1
1
1
1
1
1
1
1
1
1
1
1
1
1
1
1
1
1
1
1
1
1
1
1
1
1
1
1
1
1.00004
1.1604
4.3765
7.11859
6.91685
6.62747
6.31574
1
1
1
1
1
1
1
1
1
1
1
1
1
1
1
1
1
1
1
1
1
1
1
1
1
1
1
1
1
1
1
1
1
1
1
1
1
1
1
1
1
1
1.00273
1.82216
5.75558
6.91658
6.61508
6.31406
1
1
1
1
1
1
1
1
1
1
1
1
1
1
1
1
1
1
1
1
1
1
1
1
1
1
1
1
1
1
1
1
1
1
1
1
1
1
1
1
1
1
1.00001
1.05181
3.06033
6.29446
6.62967
6.37047
1
1
1
1
1
1
1
1
1
1
1
1
1
1
1
1
1
1
1
1
1
1
1
1
1
1
1
1
1
1
1
1
1
1
1
1
1
1
1
1
1
1
1
1.00061
1.29963
4.38319
6.52106
6.43759
1
1
1
1
1
1
1
1
1
1
1
1
1
1
1
1
1
1
1
1
1
1
1
1
1
1
1
1
1
1
1
1
1
1
1
1
1
1
1
1
1
1
1
1
1.00886
1.88368
5.26368
6.38883
1
1
1
1
1
1
1
1
1
1
1
1
1
1
1
1
1
1
1
1
1
1
1
1
1
1
1
1
1
1
1
1
1
1
1
1
1
1
1
1
1
1
1
1
1.00006
1.06105
2.69488
5.70828
1
1
1
1
1
1
1
1
1
1
1
1
1
1
1
1
1
1
1
1
1
1
1
1
1
1
1
1
1
1
1
1
1
1
1
1
1
1
1
1
1
1
1
1
1
1.00087
1.21212
3.59157
1
1
1
1
1
1
1
1
1
1
1
1
1
1
1
1
1
1
1
1
1
1
1
1
1
1
1
1
1
1
1
1
1
1
1
1
1
1
1
1
1
1
1
1
1
1
1.00571
1.51579
1
1
1
1
1
1
1
1
1
1
1
1
1
1
1
1
1
1
1
1
1
1
1
1
1
1
1
1
1
1
1
1
1
1
1
1
1
1
1
1
1
1
1
1
1
1
1.00004
1.02476
1
1
1
1
1
1
1
1
1
1
1
1
1
1
1
1
1
1
1
1
1
1
1
1
1
1
1
1
1
1
1
1
1
1
1
1
1
1
1
1
1
1
1
1
1
1
1
1.00028
1
1
1
1
1
1
1
1
1
1
1
1
1
1
1
1
1
1
1
1
1
1
1
1
1
1
1
1
1
1
1
1
1
1
1
1
1
1
1
1
1
1
1
1
1
1
1
1
1
1
1
1
1
1
1
1
1
1
1
1
1
1
1
1
1
1
1
1
1
1
1
1
1
1
1
1
1
1
1
1
1
1
1
1
1
1
1
1
1
1
1
1
1
1
1
1
1
1
1
1
1
1
1
1
1
1
1
1
1
1
1
1
1
1
1
1
1
1
1
1
1
1
1
1
1
1
1
1
1
1
1
1
1
1
1
1
1
1
1
1
1
1
1
1
1
1
1
1
1
1
1
1
1
1
1
1
1
1
1
1
1
1
1
1
1
1
1
1
1
1
1
1
1
1
1
1
1
1
1
1
1
1
1
1
1
1
1
1
1
1
1
1
1
1
1
1
1
1
1
1
1
1
1
1
1
1
1
1
1
1
1
1
1
1
1
1
1
1
1
1
1
1
1
1
1
1
1
1
1
1
1
1
1
1
1
1
1
1
1
1
1
1
1
1
1
1
1
1
1
1
1
1
1
1
1
1
1
1
1
1
1
1
1
1
1
1
1
1
1
1
1
1
1
1
1
1
1
1
1
1
1
1
1
1
1
1
1
1
1
1
1
1
1
1
1
1
1
1
1
1
1
1
1
1
1
1
1
1
1
1
1
1
1
1
1
1
1
1
1
1
1
1
1
1
1
1
1
1
1
1
1
1
1
1
1
1
1
1
1
1
1
1
1
1
1
1
1
1
1
1
1
1
1
1
1
1
1
1
1
1
1
1
1
1
1
1
1
1
1
1
1
1
1
1
1
1
1
1
1
1
1
1
1
1
1
1
1
1
1
1
1
1
1
1
1
1
1
1
1
1
1
1
1
1
1
1
1
1
1
1
1
1
1
1
1
1
1
1
1
1
1
1
1
1
1
1
1
1
1
1
1
1
1
1
1
1
1
1
1
1
1
1
1
1
1
1
1
1
1
1
1
1
1
1
1
1
1
1
1
1
1
1
1
1
1
1
1
1
1
1
1
1
1
1
1
1
1
1
1
1
1
1
1
1
1
1
1
1
1
1
1
1
1
1
1
1
1
1
1
1
1
1
1
1
1
1
1
1
1
1
1
1
1
1
1
1
1
1
1
1
1
1
1
1
1
1
1
1
1
1
1
1
1
1
1
1
1
1
1
1
1
1
1
1
1
1
1
1
1
1
1
1
1
1
1
1
1
1
1
1
1
1
1
1
1
1
1
1
1
1
1
1
1
1
1
1
1
1
1
1
1
1
1
1
1
1
1
1
1
1
1
1
1
1
1
1
1
1
1
1
1
1
1
1
1
1
1
1
1
1
1
1
1
1
1
1
1
1
1
1
1
1
1
1
1
1
1
1
1
1
1
1
1
1
1
1
1
1
1
1
1
1
1
1
1
1
1
1
1
1
1
1
1
1
1
1
1
1
1
1
1
1
1
1
1
1
1
1
1
1
1
1
1
1
1
1
1
1
1
1
1
1
1
1
1
1
1
1
1
1
1
1
1
1
1
1
1
1
1
1
1
1
1
1
1
1
1
1
1
1
1
1
1
1
1
1
1
1
1
1
1
1
1
1
1
1
1
1
1
1
1
1
1
1
1
1
1
1
1
1
1
1
1
1
1
1
1
1
1
1
1
1
1
1
1
1
1
1
1
1
1
1
1
1
1
1
1
1
1
1
1
1
1
1
1
1
1
1
1
1
1
1
1
1
1
1
1
1
1
1
1
1
1
1
1
1
1
1
1
1
1
1
1
1
1
1
1
1
1
1
1
1
1
1
1
1
1
1
1
1
1
1
1
1
1
1
1
1
1
1
1
1
1
1
1
1
1
1
1
1
1
1
1
1
1
1
1
1
1
1
1
1
1
1
1
1
1
1
1
1
1
1
1
1
1
1
1
1
1
1
1
1
1
1
1
1
1
1
1
1
1
1
1
1
1
1
1
1
1
1
1
1
1
1
1
1
1
1
1
1
1
1
1
1
1
1
1
1
1
1
1
1
1
1
1
1
1
1
1
1
1
1
1
1
1
1
1
1
1
1
1
1
1
1
1
1
1
1
1
1
1
1
1
1
1
1
1
1
1
1
1
1
1
1
1
1
1
1
1
1
1
1
1
1
1
1
1
1
1
1
1
1
1
1
1
1
1
1
1
1
1
1
1
1
1
1
1
1
1
1
1
1
1
1
1
1
1
1
1
1
1
1
1
1
1
1
1
1
1
1
1
1
1
1
1
1
1
1
1
1
1
1
1
1
1
1
1
1
1
1
1
1
1
1
1
1
1
1
1
1
1
1
1
1
1
1
1
1
1
1
1
1
1
1
1
1
1
1
1
1
1
1
1
1
1
1
1
1
1
1
1
1
1
1
1
1
1
1
1
1
1
1
1
1
1
1
1
1
1
1
1
1
1
1
1
1
1
1
1
1
1
1
1
1
1
1
1
1
1
1
1
1
1
1
1
1
1
1
1
1
1
1
1
1
1
1
1
1
1
1
1
1
1
1
1
1
1
1
1
1
1
1
1
1
1
1
1
1
1
1
1
1
1
1
1
1
1
1
1
1
1
1
1
1
1
1
1
1
1
1
1
1
1
1
1
1
1
1
1
1
1
1
1
1
1
1
1
1
1
1
1
1
1
1
1
1
1
1
1
1
1
1
1
1
1
1
1
1
1
1
1
1
1
1
1
1
1
1
1
1
1
1
1
1
1
1
1
1
1
1
1
1
1
1
1
1
1
1
1
1
1
1
1
1
1
1
1
1
1
1
1
1
1
1
1
1
1
1
1
1
1
1
1
1
1
1
1
1
1
1
1
1
1
1
1
1
1
1
1
1
1
1
1
1
1
1
1
1
1
1
1
1
1
1
1
1
1
1
1
1
1
1
1
1
1
1
1
1
1
1
1
1
1
1
1
1
1
1
1
1
1
1
1
1
1
1
1
1
1
1
1
1
1
1
1
1
1
1
1
1
1
1
1
1
1
1
1
1
1
1
1
1
1
1
1
1
1
1
1
1
1
1
1
1
1
1
1
1
1
1
1
1
1
1
1
1
1
1
1
1
1
1
1
1
1
1
1
1
1
1
1
1
1
1
1
1
1
1
1
1
1
1
1
1
1
1
1
1
1
1
1
1
1
1
1
1
1
1
1
1
1
1
1
1
1
1
1
1
1
1
1
1
1
1
1
1
1
1
1
1
1
1
1
1
1
1
1
1
1
1
1
1
1
1
1
1
1
1
1
1
1
1
1
1
1
1
1
1
1
1
1
1
1
1
1
1
1
1
1
1
1
1
1
1
1
1
1
1
1
1
1
1
1
1
1
1
1
1
1
1
1
1
1
1
1
1
1
1
1
1
1
1
1
1
1
1
1
1
1
1
1
1
1
1
1
1
1
1
1
1
1
1
1
1
1
1
1
1
1
1
1
1
1
1
1
1
1
1
1
1
1
1
1
1
1
1
1
1
1
1
1
1
1
1
1
1
1
1
1
1
1
1
1
1
1
1
1
1
1
1
1
1
1
1
1
1
1
1
1
1
1
1
1
1
1
1
1
1
1
1
1
1
1
1
1
1
1
1
1
1
1
1
1
1
1
1
1
1
1
1
1
1
1
1
1
1
1
1
1
1
1
1
1
1
1
1
1
1
1
1
1
1
1
1
1
1
1
1
1
1
1
1
1
1
1
1
1
1
1
1
1
1
1
1
1
1
1
1
1
1
1
1
1
1
1
1
1
1
1
1
1
1
1
1
1
1
1
1
1
1
1
1
1
1
1
1
1
1
1
1
1
1
1
1
1
1
1
1
1
1
1
1
1
1
1
1
1
1
1
1
1
1
1
1
1
1
1
1
1
1
1
1
1
1
1
1
1
1
1
1
1
1
1
1
1
1
1
1
1
1
1
1
1
1
1
1
1
1
1
1
1
1
1
1
1
1
1
1
1
1
1
1
1
1
1
1
1
1
1
1
1
1
1
1
1
1
1
1
1
1
1
1
1
1
1
1
1
1
1
1
1
1
1
1
1
1
1
1
1
1
1
1
1
1
1
1
1
1
1
1
1
1
1
1
1
1
1
1
1
1
1
1
1
1
1
1
1
1
1
1
1
1
1
1
1
1
1
1
1
1
1
1
1
1
1
1
1
1
1
1
1
1
1
1
1
1
1
1
1
1
1
1
1
1
1
1
1
1
1
1
1
1
1
1
1
1
1
1
1
1
1
1
1
1
1
1
1
1
1
1
1
1
1
1
1
1
1
1
1
1
1
1
1
1
1
1
1
1
1
1
1
1
1
1
1
1
1
1
1
1
1
1
1
1
1
1
1
1
1
1
1
1
1
1
1
1
1
1
1
1
1
1
1
1
1
1
1
1
1
1
1
1
1
1
1
1
1
1
1
1
1
1
1
1
1
1
1
1
1
1
1
1
1
1
1
1
1
1
1
1
1
1
1
1
1
1
1
1
1
1
1
1
1
1
1
1
1
1
1
1
1
1
1
1
1
1
1
1
1
1
1
1
1
1
1
1
1
1
1
1
1
1
1
1
1
1
1
1
1
1
1
1
1
1
1
1
1
1
1
1
1
1
1
1
1
1
1
1
1
1
1
1
1
1
1
1
1
1
1
1
1
1
1
1
1
1
1
1
1
1
1
1
1
1
1
1
1
1
1
1
1
1
1
1
1
1
1
1
1
1
1
1
1
1
1
1
1
1
1
1
1
1
1
1
1
1
1
1
1
1
1
1
1
1
1
1
1
1
1
1
1
1
1
1
1
1
1
1
1
1
1
1
1
1
1
1
1
1
1
1
1
1
1
1
1
1
1
1
1
1
1
1
1
1
1
1
1
1
1
1
1
1
1
1
1
1
1
1
1
1
1
1
1
1
1
1
1
1
1
1
1
1
1
1
1
1
1
1
1
1
1
1
1
1
1
1
1
1
1.58681
0.351965
0.205409
0.192252
0.211861
0.250293
0.345905
0.474288
0.607092
0.742214
0.909031
1.00398
1.08285
1.14036
1.18541
1.21841
1.25426
1.29332
1.30524
1.29883
1.27018
1.25973
1.25667
1.2795
1.32862
1.3647
1.37519
1.36327
1.3374
1.51557
4.20035
5.52977
5.79125
5.93936
6.03913
6.15522
6.24833
6.28984
6.31796
6.36849
6.41296
6.42374
6.42274
6.43841
6.46721
6.4868
6.46704
6.438
2.78795
1.3944
0.854979
0.689098
0.586637
0.540711
0.520452
0.497126
0.500079
0.543277
0.633549
0.742812
0.856093
0.953197
1.0112
1.0707
1.13814
1.18168
1.21148
1.23964
1.26104
1.2813
1.28616
1.28612
1.30231
1.31828
1.33507
1.34823
1.34879
1.42889
3.95855
5.49239
5.76616
5.94595
6.06007
6.15729
6.23553
6.28422
6.32279
6.37184
6.41234
6.42353
6.42206
6.43245
6.45614
6.47682
6.4702
6.44824
3.62823
2.42599
1.67589
1.21198
0.965057
0.843973
0.756616
0.659984
0.563686
0.559585
0.600901
0.675649
0.752231
0.831346
0.886436
0.927251
1.00809
1.07664
1.12988
1.18283
1.23899
1.30931
1.34376
1.34649
1.33606
1.31704
1.31232
1.31932
1.33176
1.36653
3.37083
5.48003
5.76861
5.94999
6.08982
6.17821
6.22395
6.26192
6.31589
6.37512
6.41341
6.42327
6.42093
6.42421
6.43795
6.45532
6.46705
6.46458
4.23332
3.15019
2.43841
1.90541
1.45347
1.18804
1.0912
1.01757
0.897456
0.774437
0.719567
0.710407
0.713591
0.729263
0.755765
0.775969
0.825596
0.910657
0.984101
1.04928
1.11268
1.19099
1.27133
1.31323
1.32258
1.3183
1.31779
1.32265
1.33478
1.3475
2.53885
5.32895
5.86734
5.96804
6.09066
6.18316
6.22291
6.24096
6.28674
6.35601
6.40736
6.42545
6.42604
6.42582
6.43065
6.43901
6.45181
6.45862
4.67004
3.71069
2.98453
2.48986
2.05197
1.61601
1.37618
1.29815
1.20585
1.09252
0.948249
0.824542
0.759389
0.747355
0.755467
0.777708
0.805485
0.814057
0.826413
0.863038
0.929951
1.03293
1.14777
1.22784
1.26557
1.2703
1.27598
1.28818
1.3054
1.32042
1.74724
4.95436
6.07171
6.03392
6.08881
6.15054
6.19548
6.22281
6.2593
6.32083
6.37649
6.40596
6.417
6.4175
6.41345
6.41344
6.42625
6.44151
5.00581
4.17865
3.45896
2.9149
2.49374
2.12226
1.81832
1.54195
1.40452
1.34106
1.246
1.11345
0.957401
0.879608
0.864285
0.855667
0.848563
0.835618
0.827123
0.8106
0.818861
0.859504
0.92604
1.00737
1.10472
1.17797
1.22494
1.2547
1.27675
1.2884
1.35733
4.19984
6.11526
6.09633
6.07465
6.08329
6.12848
6.18482
6.23533
6.27731
6.31743
6.35633
6.38207
6.39247
6.38672
6.3798
6.39343
6.3783
5.22248
4.50223
3.8541
3.32274
2.83267
2.47135
2.21956
1.95097
1.67033
1.49678
1.42666
1.34494
1.23764
1.11472
1.00304
0.937405
0.896212
0.877097
0.872184
0.868166
0.860381
0.835924
0.825002
0.834827
0.87871
0.961718
1.0576
1.16686
1.233
1.24102
1.23977
3.33142
6.03249
6.07258
6.03091
6.02901
6.05251
6.09799
6.16263
6.22251
6.25273
6.27397
6.30222
6.32301
6.31762
6.28926
6.24664
6.25406
5.39304
4.74669
4.15011
3.6692
3.20719
2.77586
2.48981
2.26382
2.0199
1.79657
1.60049
1.48072
1.42257
1.34837
1.25068
1.12786
1.0177
0.98229
0.975932
0.961638
0.93181
0.89085
0.845005
0.828484
0.831025
0.843645
0.878073
0.944844
1.02812
1.13238
1.14385
2.49583
5.79026
6.00496
5.92179
5.91391
5.92737
5.99458
6.06671
6.12599
6.15929
6.18808
6.20236
6.21199
6.19949
6.16926
6.08896
6.17534
5.50975
4.93286
4.38476
3.92263
3.49445
3.09524
2.7734
2.48027
2.24965
2.07507
1.89573
1.70139
1.52771
1.46988
1.42207
1.33846
1.24648
1.14418
1.05775
1.01433
0.986827
0.963002
0.937755
0.909158
0.870899
0.849246
0.848263
0.853376
0.874846
0.93405
0.985125
1.75151
5.36428
5.83844
5.77862
5.80619
5.84063
5.9043
5.97349
6.03963
6.08482
6.08188
6.07557
6.07228
6.04411
5.92015
5.53822
4.51834
5.59596
5.07761
4.57962
4.14152
3.72063
3.34832
3.0472
2.75166
2.45484
2.256
2.11868
1.95387
1.77971
1.62651
1.50583
1.45494
1.41251
1.34354
1.25131
1.13974
1.06404
1.04358
1.03089
1.0044
0.96649
0.918131
0.869163
0.856191
0.86028
0.868805
0.886637
1.10645
4.44591
5.67926
5.63316
5.7032
5.77516
5.84535
5.89603
5.93516
5.96089
5.96595
5.94809
5.88893
5.79421
5.60958
5.10002
4.12975
5.66547
5.19151
4.73467
4.32708
3.93116
3.55712
3.2577
2.98502
2.71098
2.48172
2.2746
2.10517
1.98231
1.85383
1.71604
1.5628
1.48336
1.45536
1.40316
1.3254
1.23743
1.14565
1.08576
1.05883
1.03846
1.00953
0.97534
0.93178
0.885001
0.873017
0.874898
0.889586
3.22624
5.47316
5.5423
5.62207
5.69733
5.77068
5.81706
5.84357
5.84065
5.81582
5.75983
5.69094
5.59157
5.30776
4.82186
3.93768
5.72727
5.29003
4.88043
4.48818
4.10429
3.76571
3.46721
3.16908
2.90539
2.69676
2.49226
2.28084
2.10338
2.00823
1.90449
1.7632
1.63635
1.53782
1.47497
1.43928
1.39057
1.31754
1.22198
1.12985
1.09417
1.08455
1.06629
1.03308
0.990288
0.936249
0.888373
0.8868
1.91463
5.01618
5.51244
5.58079
5.63371
5.70326
5.74743
5.7539
5.72573
5.68924
5.61228
5.50777
5.3422
5.10226
4.63837
3.91791
5.78376
5.37967
5.0038
4.62995
4.2594
3.94565
3.6509
3.3557
3.09056
2.86921
2.672
2.47785
2.29512
2.14458
2.01698
1.91616
1.81948
1.71653
1.59541
1.49233
1.46146
1.42726
1.36195
1.28438
1.21259
1.15358
1.11641
1.09709
1.07561
1.04227
0.991351
0.925652
1.07117
4.04801
5.46939
5.53367
5.58989
5.63804
5.65396
5.65602
5.62119
5.56259
5.48502
5.36876
5.19944
4.93952
4.51432
3.93588
5.83359
5.47162
5.11277
4.74935
4.41404
4.10791
3.80771
3.51564
3.27659
3.05125
2.82716
2.62565
2.47726
2.3273
2.17205
2.01857
1.9332
1.86149
1.75579
1.6374
1.54715
1.48072
1.43518
1.39812
1.35351
1.29445
1.21124
1.14468
1.1283
1.1151
1.08952
1.03187
0.998191
2.56384
5.11078
5.48073
5.55369
5.58315
5.59091
5.55117
5.5077
5.45942
5.38375
5.26209
5.09527
4.84135
4.45113
3.97361
5.89793
5.55639
5.21021
4.86019
4.5471
4.24829
3.94718
3.66951
3.43546
3.213
2.99042
2.786
2.62559
2.47451
2.33075
2.17853
2.05924
1.95455
1.86154
1.77611
1.68826
1.60206
1.51165
1.45603
1.43405
1.40077
1.3388
1.26274
1.20493
1.16146
1.14113
1.11804
1.06233
1.35224
4.39768
5.41897
5.52191
5.56133
5.54603
5.49018
5.43799
5.3821
5.31359
5.19474
5.02083
4.77568
4.41892
4.01389
5.94334
5.60762
5.27425
4.96073
4.65976
4.36203
4.06762
3.81907
3.58281
3.35566
3.12845
2.95024
2.78028
2.6126
2.44723
2.31872
2.20471
2.08645
1.96533
1.86257
1.79729
1.72622
1.64708
1.56939
1.49737
1.4491
1.41379
1.37302
1.32636
1.26997
1.19169
1.16015
1.12822
1.13624
2.88424
5.18849
5.43207
5.45476
5.4721
5.43984
5.36705
5.32453
5.23817
5.12491
4.96212
4.73398
4.40696
4.05112
5.99846
5.6725
5.35091
5.05389
4.76445
4.47088
4.20017
3.95751
3.7226
3.48863
3.27548
3.0972
2.91846
2.75274
2.58189
2.45233
2.32322
2.2097
2.09179
1.98601
1.90104
1.81595
1.74746
1.68748
1.61647
1.53643
1.46205
1.42934
1.40722
1.36741
1.30209
1.23299
1.19106
1.15643
1.53593
4.42305
5.3991
5.41159
5.43772
5.42118
5.37198
5.27183
5.17284
5.04971
4.88509
4.6829
4.3997
4.08452
6.01281
5.71022
5.4201
5.13147
4.84453
4.56907
4.32561
4.08113
3.84375
3.60656
3.41784
3.22776
3.04936
2.86647
2.71645
2.58264
2.44558
2.32044
2.19849
2.10966
2.01663
1.93123
1.83341
1.76274
1.70766
1.64367
1.57406
1.5055
1.45798
1.41577
1.37685
1.33852
1.29479
1.21807
1.23216
2.85833
5.15167
5.39747
5.38836
5.35204
5.28973
5.20815
5.11887
4.98374
4.82582
4.62485
4.36149
4.09301
6.06962
5.78237
5.50455
5.22511
4.94326
4.68708
4.43932
4.19738
3.95382
3.74314
3.54755
3.35297
3.16884
2.99
2.8508
2.70137
2.57144
2.43302
2.32356
2.22282
2.12148
2.03567
1.942
1.86391
1.78378
1.71707
1.66787
1.60906
1.54588
1.48057
1.41887
1.39818
1.37862
1.32701
1.25977
1.59199
4.22851
5.32002
5.36121
5.33069
5.26062
5.18498
5.08549
4.96465
4.79716
4.58447
4.34293
4.08991
6.14486
5.86137
5.58576
5.30053
5.03111
4.78718
4.54128
4.29409
4.0604
3.86453
3.65958
3.47218
3.27534
3.12266
2.96971
2.82081
2.68221
2.54767
2.44547
2.33004
2.23098
2.12374
2.03759
1.96171
1.88229
1.80797
1.73675
1.68321
1.62531
1.57004
1.51222
1.46211
1.42822
1.39544
1.3301
1.34031
2.60846
5.0163
5.34393
5.29642
5.2338
5.15675
5.05184
4.92369
4.76219
4.56187
4.33754
4.10556
6.19965
5.91579
5.64274
5.367
5.11701
4.87576
4.63094
4.38038
4.17934
3.97788
3.77697
3.5717
3.39609
3.24741
3.08219
2.93876
2.78377
2.67155
2.55317
2.43651
2.33136
2.22345
2.14182
2.04985
1.97329
1.89748
1.82862
1.76295
1.69442
1.64245
1.59721
1.55355
1.50118
1.44717
1.40155
1.36054
1.58014
3.98705
5.25358
5.25347
5.20338
5.1271
5.01979
4.88778
4.7338
4.5512
4.35177
4.13811
6.23081
6.0049
5.71538
5.44903
5.20977
4.97458
4.7247
4.48525
4.28811
4.08463
3.8819
3.67402
3.52335
3.35658
3.19745
3.03282
2.89566
2.78487
2.6535
2.54313
2.41962
2.33045
2.2396
2.14585
2.06518
1.97917
1.91638
1.84409
1.78039
1.72018
1.66858
1.62322
1.57325
1.52125
1.476
1.41035
1.41377
2.34971
4.78924
5.24142
5.18547
5.11485
5.00958
4.88181
4.73433
4.56212
4.37166
4.17127
5.86191
6.06035
5.81791
5.5289
5.29544
5.064
4.81089
4.58982
4.38929
4.18833
3.96832
3.78364
3.6325
3.46345
3.30284
3.12946
3.01609
2.88591
2.75877
2.63165
2.51901
2.43653
2.33223
2.2444
2.14709
2.07362
2.00308
1.9251
1.86254
1.79908
1.7516
1.69264
1.63743
1.58469
1.54821
1.49721
1.43371
1.55209
3.54008
5.1482
5.17539
5.08922
4.98692
4.86998
4.73447
4.57454
4.39359
4.20275
4.29804
5.87867
5.89869
5.63807
5.37879
5.13838
4.89924
4.69567
4.49377
4.28505
4.05809
3.89814
3.73746
3.57457
3.39186
3.24323
3.12849
2.9882
2.86231
2.71764
2.6285
2.53197
2.42768
2.33175
2.23275
2.16907
2.08727
2.01425
1.93836
1.8786
1.82811
1.76333
1.70926
1.6472
1.61064
1.56945
1.48734
1.48924
2.10504
4.4501
5.14476
5.07681
4.9904
4.88021
4.74935
4.59263
4.41616
4.23247
1.94396
4.74216
5.81114
5.73024
5.48896
5.22428
4.99224
4.79308
4.59377
4.3772
4.16757
4.01047
3.84316
3.67402
3.48111
3.35649
3.22994
3.09591
2.94871
2.81612
2.7342
2.62455
2.52452
2.4071
2.32748
2.25886
2.17247
2.09837
2.014
1.96334
1.90177
1.83639
1.7746
1.71694
1.67728
1.63378
1.56842
1.51496
1.57824
3.03332
4.84198
5.09638
5.00208
4.89395
4.76329
4.60949
4.43881
4.26387
1.07356
2.40438
5.02667
5.6987
5.59076
5.3297
5.08908
4.89278
4.69203
4.46436
4.27697
4.11793
3.94897
3.76722
3.58496
3.46413
3.32862
3.19434
3.03332
2.9244
2.83269
2.72269
2.61159
2.48797
2.42373
2.34456
2.26172
2.17171
2.09448
2.04616
1.97672
1.91285
1.83763
1.78836
1.746
1.6965
1.6455
1.58009
1.57117
1.89933
3.93243
5.05767
5.01067
4.88415
4.75395
4.6116
4.45679
4.2987
1.00129
1.15843
2.86487
5.1603
5.60452
5.45902
5.20081
4.99246
4.78458
4.55627
4.38465
4.21865
4.04853
3.85386
3.69745
3.57322
3.42969
3.28421
3.12149
3.02683
2.92746
2.81982
2.69391
2.58229
2.51661
2.4304
2.34592
2.241
2.17818
2.12509
2.05425
1.98497
1.90404
1.8636
1.81679
1.7646
1.70803
1.65831
1.60627
1.62329
2.50391
4.50522
4.99168
4.88789
4.76808
4.63802
4.49585
4.34838
1.00001
1.00395
1.28342
3.25833
5.20605
5.50126
5.33056
5.10427
4.87264
4.65291
4.48536
4.31673
4.14071
3.94403
3.81187
3.67589
3.53005
3.3704
3.21977
3.12955
3.02067
2.90928
2.77543
2.68051
2.60899
2.52082
2.42614
2.31496
2.26023
2.20143
2.13216
2.05307
1.97765
1.94094
1.88956
1.83509
1.76726
1.72394
1.68149
1.63159
1.75839
3.29032
4.72612
4.90373
4.80446
4.68023
4.54397
4.39815
1
1.00003
1.00982
1.43673
3.57412
5.19805
5.38024
5.23449
4.98045
4.74893
4.584
4.41602
4.22296
4.03724
3.9164
3.77495
3.63185
3.45877
3.32954
3.2309
3.10992
2.99369
2.86123
2.77896
2.70039
2.60848
2.50355
2.39696
2.34264
2.27929
2.20931
2.11907
2.05438
2.01701
1.96291
1.90472
1.82642
1.78868
1.75688
1.67672
1.67339
2.10462
3.93037
4.85051
4.83838
4.70881
4.57358
4.43225
1
1
1.00008
1.02053
1.59899
3.83375
5.1395
5.26592
5.10305
4.86
4.68349
4.51147
4.30693
4.14046
4.01598
3.87432
3.72431
3.54978
3.44245
3.32797
3.20354
3.07551
2.94782
2.87697
2.78742
2.69029
2.5821
2.48408
2.42777
2.35863
2.28333
2.18995
2.13173
2.09068
2.03525
1.9706
1.89009
1.85204
1.82373
1.75997
1.68628
1.72516
2.60506
4.34334
4.83847
4.74107
4.59582
4.45827
1
1
1
1.00023
1.03561
1.77587
3.98913
5.07281
5.15503
4.99034
4.797
4.6096
4.40296
4.25727
4.11801
3.96979
3.80395
3.64657
3.54665
3.42239
3.30088
3.15369
3.04584
2.97277
2.86997
2.77251
2.65736
2.57569
2.51622
2.43718
2.3571
2.26359
2.21069
2.16493
2.10507
2.03364
1.95591
1.91984
1.88487
1.8346
1.74581
1.72854
1.87461
3.16769
4.53106
4.75433
4.64829
4.50821
1
1
1
1
1.0005
1.05716
1.93212
4.066
5.01165
5.0699
4.92867
4.71443
4.49642
4.36394
4.21556
4.06497
3.88345
3.7489
3.64297
3.51452
3.38892
3.23575
3.14845
3.06277
2.95631
2.85455
2.73436
2.66946
2.599
2.51408
2.43111
2.33999
2.29249
2.23854
2.17285
2.09606
2.02392
1.98922
1.94764
1.89799
1.82569
1.76467
1.77318
2.12514
3.67469
4.61722
4.69913
4.58408
1
1
1
1
1
1.00098
1.08102
2.03593
4.10602
4.92804
4.9959
4.84739
4.61664
4.45742
4.30661
4.14945
3.97186
3.86169
3.7373
3.60608
3.46709
3.32384
3.24832
3.14971
3.04683
2.93084
2.82176
2.76247
2.67719
2.59308
2.50126
2.41964
2.37473
2.30964
2.24081
2.16055
2.09628
2.06
2.01122
1.95789
1.88808
1.83631
1.79743
1.82382
2.478
4.0331
4.64642
4.63408
1
1
1
1
1
1
1.0016
1.09986
2.13469
4.09735
4.88285
4.925
4.76329
4.57096
4.40865
4.21917
4.06928
3.96205
3.82354
3.69839
3.54363
3.42755
3.34807
3.23685
3.1332
3.00267
2.91581
2.84955
2.75658
2.67313
2.56739
2.50442
2.45409
2.37851
2.30997
2.22563
2.1723
2.13185
2.07485
2.01623
1.94602
1.9088
1.86552
1.82362
1.9139
2.86853
4.24978
4.64429
1
1
1
1
1
1
1.00001
1.00221
1.12283
2.18319
4.09724
4.81533
4.83983
4.70326
4.52021
4.29007
4.16559
4.05111
3.91903
3.78597
3.62368
3.53723
3.43868
3.32236
3.21529
3.0833
3.01138
2.93162
2.839
2.74605
2.63857
2.58995
2.52768
2.45106
2.37909
2.29388
2.25186
2.20077
2.1383
2.07628
2.00587
1.97944
1.94335
1.86405
1.85558
2.0729
3.25113
4.35583
1
1
1
1
1
1
1
1.00001
1.00307
1.13612
2.21105
4.04549
4.74792
4.76821
4.63463
4.40355
4.25522
4.13431
4.01666
3.86223
3.72845
3.64149
3.51857
3.41004
3.28713
3.17169
3.10687
3.01178
2.92044
2.81355
2.71984
2.67268
2.59902
2.5268
2.44261
2.36982
2.33006
2.2665
2.2046
2.13552
2.0736
2.04736
2.01036
1.93578
1.86725
1.88435
2.26999
3.58255
1
1
1
1
1
1
1
1
1.00002
1.00358
1.14529
2.19322
4.00933
4.68283
4.6803
4.5321
4.35897
4.23303
4.10388
3.94501
3.84384
3.73282
3.60524
3.49752
3.3506
3.26798
3.19332
3.08892
3.00093
2.88507
2.81212
2.75574
2.67393
2.59988
2.50328
2.44811
2.40235
2.33295
2.27258
2.19349
2.14827
2.11539
2.06582
2.00862
1.92172
1.89924
1.93898
2.50898
1
1
1
1
1
1
1
1
1
1.00002
1.00397
1.14653
2.15461
4.00628
4.54901
4.5757
4.49173
4.35343
4.17584
4.03467
3.93953
3.81592
3.70647
3.57159
3.43115
3.36695
3.26801
3.16727
3.07646
2.96375
2.90765
2.83596
2.75191
2.66958
2.57106
2.52591
2.46988
2.4017
2.33549
2.25602
2.22328
2.18017
2.12308
2.06996
1.99771
1.95182
1.9315
2.01241
1
1
1
1
1
1
1
1
1
1
1.00003
1.00423
1.13768
2.16855
3.85338
4.42208
4.54412
4.47431
4.29216
4.13886
4.02264
3.90638
3.79573
3.62788
3.53686
3.45681
3.33933
3.25293
3.14394
3.05294
2.99866
2.90981
2.82862
2.73465
2.64767
2.60367
2.5368
2.47087
2.39343
2.32541
2.29516
2.24214
2.18558
2.12224
2.06434
2.02746
1.9643
1.96068
1
1
1
1
1
1
1
1
1
1
1
1.00003
1.00407
1.13387
2.14907
3.59593
4.41016
4.5386
4.42868
4.2619
4.12483
4.00984
3.85072
3.71191
3.64087
3.5284
3.42155
3.3364
3.213
3.15294
3.08269
2.98405
2.90458
2.79696
2.7303
2.67914
2.60338
2.53819
2.45327
2.3996
2.36447
2.30583
2.24885
2.17382
2.12789
2.10061
2.04196
1.96909
1
1
1
1
1
1
1
1
1
1
1
1
1.00003
1.00371
1.13409
1.96415
3.45341
4.43483
4.48074
4.38432
4.24667
4.10642
3.91093
3.81705
3.72105
3.59567
3.51388
3.4027
3.30075
3.25096
3.15641
3.06381
2.97398
2.86484
2.81544
2.74831
2.67005
2.60392
2.51733
2.476
2.4328
2.37069
2.30927
2.22945
2.19426
2.1642
2.11463
2.0252
1
1
1
1
1
1
1
1
1
1
1
1
1
1.00003
1.00346
1.10451
1.77823
3.49332
4.31553
4.35773
4.31709
4.19642
4.00752
3.90101
3.78037
3.68272
3.59917
3.46474
3.40451
3.33607
3.22586
3.14208
3.03082
2.94782
2.89861
2.81379
2.74258
2.66499
2.58844
2.55541
2.49905
2.43326
2.36802
2.29145
2.26004
2.22447
2.17688
2.10387
1
1
1
1
1
1
1
1
1
1
1
1
1
1
1.00002
1.00255
1.07309
1.76353
3.45532
4.10077
4.28056
4.26952
4.12594
3.97939
3.85037
3.77766
3.66121
3.55768
3.51011
3.40639
3.30044
3.21084
3.08686
3.03457
2.97366
2.88451
2.81589
2.72223
2.67224
2.63444
2.56129
2.49716
2.42634
2.3556
2.32577
2.28352
2.23308
2.16754
1
1
1
1
1
1
1
1
1
1
1
1
1
1
1
1.00001
1.00179
1.06892
1.79996
3.14662
3.97631
4.28638
4.23593
4.09247
3.98629
3.8674
3.71376
3.67199
3.6024
3.47238
3.38152
3.27021
3.15701
3.11778
3.04482
2.96334
2.87861
2.78966
2.75915
2.7054
2.62524
2.56548
2.48144
2.42464
2.39442
2.34246
2.28801
2.22326
1
1
1
1
1
1
1
1
1
1
1
1
1
1
1
1
1.00001
1.00172
1.07163
1.64542
2.74504
3.95761
4.28786
4.2438
4.11219
3.9183
3.812
3.78602
3.66871
3.54247
3.45784
3.33107
3.23973
3.1964
3.12109
3.03993
2.93293
2.86678
2.83721
2.76999
2.69833
2.62975
2.53559
2.49873
2.46028
2.39629
2.34222
2.27933
1
1
1
1
1
1
1
1
1
1
1
1
1
1
1
1
1
1.00001
1.0015
1.04713
1.39426
2.54176
4.01609
4.15753
4.11394
4.02592
3.96108
3.86796
3.70803
3.60625
3.52339
3.39751
3.32684
3.27888
3.20101
3.11176
2.99827
2.94056
2.90461
2.83739
2.77114
2.67917
2.6048
2.57487
2.51904
2.4542
2.40476
2.33525
1
1
1
1
1
1
1
1
1
1
1
1
1
1
1
1
1
1
1.00001
1.00068
1.02227
1.29489
2.60334
3.75505
3.99069
4.08652
4.06427
3.92173
3.76361
3.68414
3.592
3.46587
3.41902
3.36589
3.26875
3.17459
3.07241
3.01134
2.97249
2.91415
2.83613
2.72959
2.68143
2.63929
2.56947
2.51989
2.46749
2.39636
1
1
1
1
1
1
1
1
1
1
1
1
1
1
1
1
1
1
1
1
1.00031
1.01659
1.29354
2.48644
3.45864
3.94961
4.08614
3.99535
3.88688
3.79121
3.64818
3.5413
3.52216
3.45063
3.32849
3.24212
3.14818
3.07477
3.03833
2.98693
2.89362
2.80368
2.75601
2.69422
2.63195
2.59125
2.51124
2.464
1
1
1
1
1
1
1
1
1
1
1
1
1
1
1
1
1
1
1
1
1
1.00027
1.01528
1.27794
2.18836
3.16304
3.94784
4.09135
4.04218
3.87611
3.68973
3.63639
3.62922
3.51553
3.38911
3.31895
3.22638
3.14173
3.10711
3.05156
2.95556
2.87993
2.81817
2.75212
2.71272
2.64571
2.5669
2.54283
1
1
1
1
1
1
1
1
1
1
1
1
1
1
1
1
1
1
1
1
1
1
1.00022
1.01272
1.17415
1.74673
2.98692
3.98444
3.9645
3.88203
3.80199
3.77585
3.71506
3.55569
3.46032
3.39828
3.29487
3.21397
3.18261
3.11661
3.02367
2.94625
2.87724
2.83132
2.77811
2.68202
2.64707
2.61298
1
1
1
1
1
1
1
1
1
1
1
1
1
1
1
1
1
1
1
1
1
1
1
1.00012
1.00499
1.07317
1.5609
2.99295
3.70992
3.81976
3.87515
3.87519
3.7632
3.60349
3.53768
3.47003
3.35975
3.29875
3.26752
3.18519
3.08479
3.00459
2.95108
2.90674
2.80959
2.75154
2.72751
2.65972
1
1
1
1
1
1
1
1
1
1
1
1
1
1
1
1
1
1
1
1
1
1
1
1
1.00003
1.00172
1.04938
1.52624
2.80656
3.49673
3.79162
3.89763
3.81441
3.70719
3.63876
3.53405
3.4193
3.38389
3.35141
3.24322
3.13839
3.07532
3.03254
2.94666
2.86176
2.83884
2.78487
2.69163
1
1
1
1
1
1
1
1
1
1
1
1
1
1
1
1
1
1
1
1
1
1
1
1
1
1.00001
1.00126
1.04338
1.48618
2.50274
3.28129
3.78986
3.89534
3.86824
3.74751
3.5808
3.486
3.47633
3.42339
3.28984
3.20046
3.15562
3.08886
2.98635
2.94939
2.91483
2.82229
2.7475
1
1
1
1
1
1
1
1
1
1
1
1
1
1
1
1
1
1
1
1
1
1
1
1
1
1
1.00001
1.00106
1.03474
1.31822
2.02354
3.04721
3.82889
3.85962
3.75489
3.63791
3.59106
3.58465
3.47643
3.3376
3.27533
3.22233
3.12436
3.06172
3.04481
2.97155
2.86498
2.82843
1
1
1
1
1
1
1
1
1
1
1
1
1
1
1
1
1
1
1
1
1
1
1
1
1
1
1
1.00001
1.00054
1.0141
1.14117
1.69667
3.00368
3.68577
3.68748
3.70834
3.69825
3.655
3.50814
3.40251
3.35018
3.27389
3.18454
3.15915
3.12497
3.01379
2.93727
2.89857
1
1
1
1
1
1
1
1
1
1
1
1
1
1
1
1
1
1
1
1
1
1
1
1
1
1
1
1
1
1.00012
1.00424
1.07602
1.58826
2.81978
3.45126
3.62931
3.71906
3.68108
3.55468
3.47977
3.41766
3.33207
3.26804
3.25334
3.18751
3.06982
3.01489
2.94829
1
1
1
1
1
1
1
1
1
1
1
1
1
1
1
1
1
1
1
1
1
1
1
1
1
1
1
1
1
1
1.00003
1.00225
1.05508
1.50454
2.59124
3.23897
3.60336
3.68977
3.67286
3.61097
3.50501
3.38626
3.3409
3.32993
3.23783
3.13424
3.07752
2.99832
1
1
1
1
1
1
1
1
1
1
1
1
1
1
1
1
1
1
1
1
1
1
1
1
1
1
1
1
1
1
1
1.00002
1.00153
1.0421
1.386
2.1794
2.94608
3.59514
3.7331
3.67536
3.5396
3.45151
3.4358
3.4194
3.29307
3.1981
3.13435
3.0524
1
1
1
1
1
1
1
1
1
1
1
1
1
1
1
1
1
1
1
1
1
1
1
1
1
1
1
1
1
1
1
1
1.00001
1.0009
1.02236
1.19896
1.72251
2.76728
3.6343
3.58203
3.54401
3.53722
3.54106
3.4749
3.33596
3.25601
3.19566
3.11458
1
1
1
1
1
1
1
1
1
1
1
1
1
1
1
1
1
1
1
1
1
1
1
1
1
1
1
1
1
1
1
1
1
1
1.00026
1.00689
1.0816
1.51246
2.65871
3.34327
3.46222
3.5562
3.58446
3.50203
3.38039
3.31501
3.25586
3.17815
1
1
1
1
1
1
1
1
1
1
1
1
1
1
1
1
1
1
1