/*--------------------------------*- C++ -*----------------------------------*\
  =========                 |
  \\      /  F ield         | OpenFOAM: The Open Source CFD Toolbox
   \\    /   O peration     | Website:  https://openfoam.org
    \\  /    A nd           | Version:  7
     \\/     M anipulation  |
\*---------------------------------------------------------------------------*/
FoamFile
{
    version     2.0;
    format      ascii;
    class       volScalarField;
    location    "14.5";
    object      p;
}
// * * * * * * * * * * * * * * * * * * * * * * * * * * * * * * * * * * * * * //

dimensions      [1 -1 -2 0 0 0 0];

internalField   nonuniform List<scalar> 
3328
(
460.605
30.1945
13.4262
13.426
13.3831
13.3532
13.3585
13.4443
13.5744
13.6289
13.6223
13.5935
13.573
13.6001
13.7341
13.9812
14.2626
14.4491
14.5058
14.4394
14.2719
14.0839
13.941
13.8241
460.565
30.0806
13.4276
13.4337
13.402
13.3781
13.3864
13.4743
13.6027
13.6589
13.6532
13.6226
13.5949
13.6077
13.719
13.942
14.2014
14.3799
14.446
14.4018
14.265
14.1056
13.9826
13.8816
460.56
29.8863
13.4277
13.4442
13.4259
13.4084
13.4188
13.5042
13.631
13.6928
13.6919
13.6594
13.6219
13.6168
13.692
13.8793
14.1041
14.2715
14.3511
14.3425
14.2572
14.1419
14.0528
13.9805
460.569
29.6161
13.4242
13.4528
13.4488
13.4419
13.4549
13.532
13.656
13.7254
13.7305
13.6949
13.6455
13.6206
13.657
13.7947
13.9743
14.1275
14.2257
14.2614
14.2389
14.172
14.1224
14.0818
460.625
29.3214
13.4118
13.4528
13.4621
13.4655
13.4802
13.545
13.662
13.7397
13.7532
13.718
13.6598
13.6194
13.6219
13.6974
13.8291
13.9572
14.0578
14.1264
14.1544
14.1557
14.1613
14.1722
460.729
29.0581
13.3852
13.4375
13.4568
13.4672
13.4857
13.5345
13.6389
13.7262
13.753
13.7256
13.6673
13.6135
13.5853
13.6057
13.6877
13.7843
13.8786
13.9714
14.0498
14.1158
14.1577
14.1575
460.849
28.8976
13.3442
13.4014
13.4228
13.4409
13.4626
13.4956
13.5812
13.6763
13.7237
13.715
13.6687
13.6064
13.5538
13.536
13.5617
13.6254
13.6973
13.7799
13.862
13.9197
13.9624
14.0409
460.929
28.8904
13.295
13.344
13.3659
13.3893
13.4126
13.4376
13.5019
13.5929
13.664
13.6846
13.6595
13.6016
13.5371
13.4866
13.4668
13.4877
13.5184
13.5754
13.6535
13.7358
13.7894
14.1482
460.888
29.0062
13.254
13.2824
13.3062
13.3232
13.3498
13.3763
13.423
13.4994
13.5829
13.6324
13.6353
13.5982
13.5291
13.46
13.4071
13.3811
13.3623
13.379
13.4042
13.4008
13.1243
12.7457
460.66
29.254
13.2375
13.2332
13.2535
13.2545
13.28
13.3138
13.3535
13.416
13.498
13.5656
13.5967
13.5853
13.5266
13.4542
13.3775
13.3111
13.2473
13.2109
13.181
13.0896
12.9877
12.6248
460.282
29.6288
13.1994
13.2102
13.2237
13.216
13.2202
13.2434
13.2842
13.3421
13.4189
13.4947
13.5455
13.556
13.5208
13.4599
13.3774
13.2822
13.179
13.0829
12.99
12.8329
12.6871
12.4265
459.838
29.9943
13.1689
13.1863
13.2023
13.1977
13.1777
13.1776
13.204
13.2593
13.3361
13.4156
13.476
13.5021
13.4932
13.4581
13.3922
13.289
13.1556
13.0039
12.8434
12.6611
12.4953
12.3432
459.408
30.2374
13.1879
13.1802
13.1818
13.176
13.1438
13.1216
13.1229
13.1612
13.2383
13.3199
13.3835
13.4193
13.4297
13.423
13.3909
13.3097
13.1656
12.9762
12.7633
12.5505
12.353
12.2559
458.951
30.418
13.2209
13.1903
13.163
13.1396
13.1029
13.0688
13.0493
13.0625
13.1203
13.2039
13.2739
13.3119
13.3321
13.3456
13.3509
13.3096
13.1863
12.9844
12.7419
12.4955
12.2852
12.1424
458.495
30.4834
13.2477
13.2006
13.144
13.0992
13.0547
13.013
12.9806
12.9719
13.0035
13.0756
13.1583
13.1992
13.2157
13.239
13.2703
13.2689
13.1896
13.0056
12.7555
12.4921
12.2562
12.0973
458.088
30.4374
13.2627
13.2038
13.1278
13.0683
13.0069
12.951
12.9109
12.892
12.9045
12.9586
13.0454
13.0999
13.1087
13.1266
13.1647
13.1936
13.159
13.0152
12.7823
12.516
12.2564
12.0719
457.803
30.2208
13.2688
13.2027
13.1167
13.0488
12.9728
12.8964
12.8423
12.8209
12.8287
12.8683
12.9385
13.0142
13.029
13.0305
13.0538
13.0908
13.0909
12.9972
12.7962
12.5353
12.2656
12.0484
457.692
29.8392
13.2655
13.1984
13.1115
13.0447
12.9659
12.8739
12.7898
12.7534
12.7562
12.7936
12.8575
12.9413
12.978
12.9619
12.9528
12.9697
12.9834
12.9313
12.7742
12.532
12.2604
12.0143
457.759
29.331
13.2535
13.192
13.1135
13.0586
12.9873
12.8919
12.7782
12.7114
12.7049
12.7287
12.7848
12.8724
12.9389
12.9149
12.8705
12.8453
12.8455
12.8172
12.7044
12.4962
12.2334
11.969
457.994
28.74
13.2365
13.1849
13.1227
13.0862
13.0274
12.9323
12.7999
12.6904
12.6586
12.6765
12.7271
12.806
12.887
12.8772
12.8085
12.7328
12.6979
12.6704
12.5901
12.4254
12.1886
11.9249
458.384
28.1039
13.2128
13.1823
13.1411
13.1225
13.0785
12.9881
12.8417
12.684
12.6076
12.6124
12.6524
12.7235
12.8051
12.8309
12.7481
12.6476
12.573
12.53
12.4616
12.3292
12.1283
11.886
458.876
27.4937
13.158
13.1871
13.1684
13.1613
13.1278
13.0441
12.8883
12.6974
12.5641
12.5267
12.5563
12.6199
12.7021
12.7537
12.6986
12.5964
12.4948
12.4292
12.3569
12.2347
12.0554
11.8379
459.394
26.9835
13.0778
13.1758
13.1872
13.1879
13.1629
13.0893
12.936
12.7231
12.5347
12.442
12.44
12.4961
12.5782
12.6479
12.6511
12.5689
12.4711
12.3866
12.3051
12.1731
11.9889
11.7772
459.829
26.6202
12.9814
13.1346
13.1824
13.1858
13.1688
13.1117
12.9746
12.7582
12.5263
12.3771
12.3255
12.3643
12.4486
12.5386
12.5933
12.5641
12.4826
12.3938
12.3032
12.157
11.9483
11.7147
460.069
26.4358
12.8853
13.0707
13.1409
13.1466
13.1345
13.0931
12.9804
12.7853
12.5377
12.3501
12.2555
12.2454
12.3217
12.4272
12.5184
12.5493
12.4989
12.4189
12.3202
12.1666
11.9373
11.6719
460.093
26.4387
12.798
12.9925
13.0694
13.0704
13.0609
13.0342
12.9504
12.7901
12.5639
12.3632
12.2336
12.1774
12.2223
12.3186
12.424
12.4966
12.4933
12.4224
12.3232
12.1723
11.9394
11.6562
459.97
26.5583
12.7232
12.911
12.9786
12.9744
12.9604
12.9425
12.889
12.7715
12.5867
12.3998
12.2544
12.1684
12.1588
12.2238
12.3202
12.406
12.4337
12.3832
12.291
12.1509
11.9351
11.6614
459.774
26.7141
12.664
12.8373
12.8873
12.8728
12.856
12.8476
12.8167
12.7393
12.5984
12.4451
12.2965
12.1847
12.132
12.1504
12.2157
12.287
12.3225
12.2964
12.2189
12.0981
11.9141
11.6735
459.542
26.8575
12.6159
12.7748
12.8127
12.7917
12.7713
12.763
12.7429
12.6905
12.5923
12.4774
12.335
12.2126
12.1265
12.0955
12.1212
12.1674
12.1928
12.1761
12.114
12.0155
11.8697
11.6759
459.315
26.9572
12.5776
12.7325
12.7667
12.7484
12.7263
12.7103
12.6877
12.6394
12.5721
12.4853
12.3577
12.2355
12.1249
12.0584
12.0478
12.068
12.0801
12.0599
12.0017
11.9171
11.8032
11.6553
459.105
27.0361
12.5419
12.697
12.7433
12.7392
12.718
12.6891
12.6503
12.5948
12.5368
12.466
12.3602
12.247
12.1326
12.0455
12.0096
12.006
12.0049
11.9769
11.9132
11.8266
11.7233
11.6027
458.93
27.143
12.5275
12.6755
12.7389
12.7499
12.7283
12.6874
12.6195
12.5453
12.4798
12.4182
12.3423
12.2548
12.1599
12.0713
12.0164
11.9917
11.9735
11.9372
11.8643
11.7624
11.6441
11.519
458.748
27.3512
12.5478
12.6756
12.7434
12.762
12.7375
12.6751
12.5787
12.4771
12.3972
12.3443
12.3024
12.2579
12.2008
12.1324
12.0682
12.0257
11.9879
11.9375
11.8512
11.7271
11.5788
11.4231
458.524
27.6509
12.6009
12.6973
12.7468
12.7612
12.7291
12.6395
12.5227
12.3956
12.3004
12.2534
12.244
12.2493
12.243
12.2173
12.162
12.1041
12.0407
11.9667
11.8619
11.7144
11.5333
11.3375
458.221
28.0372
12.6617
12.7221
12.7498
12.7446
12.6866
12.5737
12.4404
12.3075
12.2116
12.1717
12.1845
12.2356
12.2785
12.2944
12.2644
12.1977
12.1142
12.0136
11.8846
11.7136
11.5075
11.2796
457.813
28.475
12.7118
12.7356
12.7406
12.7115
12.6254
12.4863
12.3552
12.2284
12.1406
12.1099
12.1428
12.2174
12.2907
12.3312
12.3317
12.2761
12.1873
12.0652
11.9107
11.7176
11.4959
11.2548
457.336
28.9272
12.7382
12.7229
12.6986
12.6495
12.5498
12.4026
12.2797
12.1772
12.1046
12.0813
12.1184
12.1912
12.2681
12.3178
12.3355
12.3053
12.2276
12.0976
11.9272
11.7233
11.4991
11.2613
456.935
29.3785
12.7412
12.6894
12.62
12.5396
12.4333
12.3151
12.224
12.1601
12.1087
12.0853
12.098
12.1463
12.2143
12.2708
12.296
12.2862
12.224
12.0975
11.9256
11.7281
11.518
11.2981
456.636
29.7753
12.7157
12.6349
12.5213
12.4065
12.3052
12.2447
12.2084
12.1887
12.1509
12.1092
12.0806
12.097
12.152
12.211
12.2409
12.237
12.1849
12.0677
11.9058
11.7262
11.542
11.3519
456.49
30.0094
12.6919
12.5924
12.4486
12.3148
12.2303
12.2041
12.2017
12.2052
12.1799
12.1254
12.0735
12.0781
12.1408
12.2024
12.2251
12.211
12.1529
12.0388
11.8838
11.7163
11.551
11.3852
10.5685
11.8735
12.4292
12.511
12.3355
12.0468
11.829
11.6771
12.3405
12.8134
12.7059
12.616
12.4008
12.1174
11.8891
11.7476
12.3166
12.5403
12.5405
12.5512
12.3976
12.2097
11.989
11.8313
12.3044
12.4449
12.522
12.58
12.4703
12.3064
12.1079
11.9649
12.2091
12.3282
12.3942
12.4677
12.4105
12.3246
12.2076
12.1214
12.1281
12.1848
12.287
12.3646
12.3737
12.3378
12.3193
12.2517
12.0313
12.063
12.1215
12.195
12.207
12.1778
12.1628
12.243
11.9688
11.9423
11.9606
11.9895
11.956
11.9461
11.9878
12.4011
11.9036
11.8235
11.7808
11.7422
11.6521
11.4999
10.9582
8.98174
11.8268
11.6941
11.594
11.4666
11.2886
10.9244
10.2173
8.23809
11.7423
11.5579
11.404
11.2136
10.9472
10.4565
9.70067
8.00677
11.6742
11.4491
11.243
11.0038
10.675
10.1607
9.37945
8.07192
11.6321
11.3819
11.138
10.862
10.4966
9.98292
9.26908
8.25602
11.6001
11.3492
11.0844
10.7897
10.41
9.9121
9.28163
8.48991
11.5524
11.315
11.0542
10.7616
10.387
9.91625
9.35866
8.71967
11.4804
11.2489
11.0033
10.731
10.3843
9.9574
9.45964
8.91043
11.4061
11.1569
10.9153
10.6649
10.3618
9.99424
9.55084
9.06485
11.3583
11.0765
10.8188
10.5744
10.3101
10.0042
9.61878
9.18935
11.3549
11.0478
10.7623
10.5041
10.2568
9.99359
9.67107
9.29384
11.3876
11.0799
10.7794
10.5009
10.2468
9.99247
9.71534
9.38806
11.4342
11.1539
10.8618
10.572
10.304
10.0384
9.77643
9.48598
11.4671
11.2302
10.9678
10.684
10.411
10.1363
9.87305
9.59645
11.4594
11.2717
11.0469
10.7885
10.5251
10.2489
9.9803
9.70624
11.3903
11.2393
11.0538
10.8336
10.5981
10.3406
10.0804
9.8137
11.2728
11.1258
10.9704
10.7921
10.5937
10.3784
10.153
9.9133
11.1474
10.9747
10.8235
10.6803
10.5264
10.3601
10.1789
9.98128
11.0538
10.8495
10.6804
10.5456
10.4268
10.3087
10.1735
10.0179
11.0141
10.7908
10.6008
10.4535
10.3424
10.2494
10.1516
10.0319
11.0255
10.803
10.6077
10.4474
10.3233
10.2263
10.1355
10.0307
11.079
10.8702
10.6831
10.5208
10.3835
10.2648
10.1515
10.0281
11.1597
10.9695
10.7895
10.6224
10.4694
10.3256
10.1839
10.0325
11.2154
11.043
10.8731
10.7081
10.5487
10.3885
10.2231
10.05
2.61521
1.06871
0.638984
0.671647
0.915074
1.34288
1.96228
2.57297
3.08708
3.60038
4.14011
4.35407
4.84872
5.95708
6.35397
6.4904
6.60222
6.7131
6.89159
7.14955
7.21939
7.12768
6.98745
6.8332
6.6849
6.53016
6.34176
6.10741
5.91784
5.77849
5.64697
5.51583
5.37336
5.23455
5.12682
5.04338
5.01301
5.01227
4.93296
4.83871
4.74493
4.64706
4.54811
4.45254
4.35883
4.26712
4.17998
4.08571
3.98459
3.86571
3.74669
3.73037
3.91814
4.48195
5.50165
6.19851
6.00073
5.8498
5.76749
5.73859
5.75877
5.76412
5.72053
5.67336
5.61644
5.53137
5.41684
5.29878
5.18531
5.07385
4.98439
4.92476
4.88398
4.86434
4.89198
4.96368
5.01471
5.01673
4.99136
4.94988
4.89529
4.7986
4.62108
4.44774
4.35387
4.29831
4.22845
4.18291
4.16323
2.75507
2.02005
1.59875
1.56605
1.65794
1.76329
2.01017
2.41826
2.92675
3.52962
4.00716
4.73802
5.9138
6.2998
6.49437
6.65488
6.77815
6.89272
7.04194
7.06383
6.97556
6.86172
6.7459
6.61782
6.47588
6.30151
6.08699
5.90291
5.76293
5.63239
5.50542
5.37688
5.25527
5.15359
5.07359
5.0348
5.01731
4.94179
4.8487
4.75635
4.66122
4.56313
4.46334
4.36077
4.25586
4.15966
4.05783
3.95958
3.86481
3.82069
3.89232
4.15669
4.57988
5.30225
6.07477
5.97434
5.85876
5.78007
5.74316
5.75167
5.75018
5.70491
5.65429
5.59083
5.49223
5.36048
5.24413
5.16289
5.10286
5.04122
4.97497
4.92265
4.89273
4.90276
4.95835
4.99588
4.98281
4.95082
4.91321
4.86155
4.7753
4.62886
4.457
4.34362
4.27624
4.21946
4.21229
5.4274
4.04956
3.28102
2.57342
2.16488
2.08848
1.97987
2.04707
2.24881
2.53598
3.00323
3.72745
4.59905
5.90637
6.35468
6.61605
6.76921
6.93656
7.04703
7.09055
7.02364
6.9149
6.80188
6.68595
6.56319
6.41771
6.23439
6.04283
5.89112
5.76263
5.63413
5.49842
5.36011
5.24326
5.15497
5.08968
5.04728
5.00125
4.92053
4.83075
4.74276
4.65896
4.57712
4.48551
4.37133
4.24068
4.12295
4.0204
3.94142
3.90208
3.94437
4.16097
4.43982
4.62861
5.02708
5.80688
6.00947
5.94153
5.85669
5.79686
5.76819
5.73483
5.69013
5.64177
5.57348
5.45941
5.30438
5.18487
5.12917
5.09106
5.05546
5.01415
4.9756
4.95128
4.95106
4.96924
4.96442
4.93448
4.89976
4.85938
4.80759
4.72842
4.61635
4.48858
4.36018
4.25639
4.21164
4.2384
6.43241
5.17016
4.39296
3.72669
3.04093
2.79867
2.67649
2.48455
2.38717
2.43759
2.61766
3.11341
3.86677
4.9899
6.01817
6.693
6.89035
7.03681
7.03463
6.97922
6.89911
6.81827
6.73229
6.63368
6.51457
6.35807
6.17228
6.01121
5.88971
5.77521
5.65157
5.51532
5.37693
5.26445
5.18714
5.13594
5.08119
5.00036
4.91164
4.81972
4.73146
4.65233
4.57658
4.48948
4.37247
4.21567
4.06063
3.97207
3.94833
4.00146
4.17663
4.5078
4.68353
4.70008
4.83126
5.34859
5.90543
5.98106
5.93066
5.85318
5.78368
5.71898
5.66198
5.60667
5.52313
5.40059
5.27804
5.20277
5.15747
5.12103
5.08817
5.05611
5.02762
5.0097
5.00337
4.98192
4.94044
4.89762
4.85198
4.79637
4.72156
4.63327
4.5497
4.47084
4.38752
4.30399
4.27676
4.34028
7.14205
6.1104
5.30411
4.70866
4.05491
3.50511
3.31027
3.09307
2.88591
2.75254
2.74106
2.8053
3.08995
3.76377
5.05988
6.27779
6.949
7.06481
6.99365
6.86178
6.75591
6.68518
6.60059
6.49794
6.36955
6.21965
6.07399
5.94683
5.83363
5.72403
5.61007
5.49383
5.38847
5.30653
5.24704
5.1825
5.10156
5.01506
4.92685
4.83951
4.75658
4.67638
4.58913
4.48856
4.34744
4.1795
4.01764
3.94951
3.98414
4.17058
4.47845
4.76858
4.80624
4.76562
4.76551
4.98136
5.53984
5.95968
5.98469
5.9358
5.83712
5.72017
5.61295
5.52429
5.42907
5.32738
5.25992
5.21097
5.1684
5.13383
5.10783
5.09188
5.08447
5.07407
5.04274
4.99686
4.94209
4.8748
4.79692
4.71341
4.62354
4.53626
4.47535
4.42929
4.38376
4.34814
4.35437
4.48293
7.66316
6.81805
6.07606
5.49849
4.94543
4.32797
3.95887
3.7559
3.5335
3.35366
3.14706
2.99709
2.99137
3.10103
3.67945
5.1333
6.6798
6.99051
6.95686
6.82517
6.71995
6.61776
6.51653
6.39709
6.25303
6.11864
6.01136
5.90501
5.79797
5.6978
5.61074
5.53347
5.47242
5.42291
5.34503
5.24088
5.13192
5.03132
4.93948
4.85215
4.76625
4.67074
4.54923
4.39304
4.23797
4.10388
4.00475
4.0154
4.17415
4.49897
4.7835
4.86315
4.85388
4.83046
4.77407
4.83011
5.15252
5.70148
5.92946
5.94064
5.84198
5.6791
5.53431
5.42939
5.3484
5.28997
5.24829
5.20644
5.17115
5.14885
5.1444
5.15705
5.15931
5.12588
5.07718
5.00599
4.9116
4.81716
4.72476
4.62039
4.52965
4.47349
4.43561
4.39965
4.38693
4.40927
4.48257
4.69227
8.05347
7.34385
6.71821
6.16173
5.64589
5.10714
4.63277
4.35088
4.09385
3.88153
3.67938
3.41155
3.15919
3.16006
3.25826
3.73892
5.32936
6.63023
6.88376
6.81285
6.71504
6.59827
6.48649
6.35545
6.22077
6.09547
5.9786
5.88281
5.79848
5.72172
5.65741
5.6133
5.57523
5.50179
5.39496
5.26586
5.13514
5.01939
4.91706
4.81691
4.70979
4.58792
4.43698
4.2533
4.11551
4.05202
4.05865
4.19568
4.54733
4.83571
4.93399
4.91457
4.90143
4.90062
4.84212
4.81749
4.93224
5.32887
5.73073
5.85984
5.8082
5.64442
5.47619
5.37398
5.31974
5.2846
5.24872
5.21817
5.20534
5.21581
5.2417
5.23931
5.19926
5.14577
5.06747
4.96784
4.86479
4.76393
4.65835
4.55465
4.47097
4.41938
4.38649
4.37299
4.4014
4.50264
4.6813
4.91538
8.34474
7.74804
7.1813
6.72256
6.2264
5.71936
5.26252
4.93361
4.62763
4.34701
4.14033
3.91575
3.62237
3.40869
3.36178
3.40459
3.81122
5.33243
6.66355
6.84186
6.70536
6.59633
6.48887
6.37241
6.25939
6.13747
6.00452
5.88569
5.79604
5.73433
5.69444
5.63586
5.55654
5.46555
5.36135
5.23456
5.09686
4.97357
4.86437
4.75839
4.64295
4.49753
4.31278
4.1426
4.07431
4.08502
4.23094
4.5727
4.93563
5.01438
5.01705
4.98676
4.98301
4.98983
4.93193
4.86641
4.85752
4.99175
5.35162
5.64731
5.72329
5.61031
5.45239
5.36886
5.32637
5.29808
5.27923
5.26891
5.27965
5.29844
5.28383
5.24165
5.19183
5.13026
5.0418
4.92394
4.80083
4.69231
4.60376
4.52577
4.45504
4.41306
4.39331
4.40585
4.50353
4.67159
4.90507
5.05611
8.56932
8.04926
7.53936
7.11258
6.70955
6.21092
5.75944
5.4302
5.14293
4.81432
4.50926
4.29574
4.08456
3.85121
3.63032
3.48031
3.50808
3.94054
5.48276
6.54993
6.68531
6.63044
6.50726
6.39673
6.29696
6.17831
6.03617
5.90735
5.81432
5.7395
5.65861
5.57404
5.4883
5.39914
5.29854
5.17731
5.04511
4.91988
4.80198
4.68265
4.54923
4.39013
4.22334
4.11908
4.11944
4.24668
4.58751
4.98556
5.13125
5.11682
5.09127
5.06706
5.05058
5.00937
4.94857
4.86809
4.80253
4.79217
4.9132
5.22424
5.50935
5.54465
5.45637
5.39179
5.35377
5.32753
5.32926
5.34466
5.33566
5.3015
5.26422
5.22476
5.17461
5.10911
5.00693
4.8649
4.72965
4.6373
4.5753
4.5268
4.48051
4.46008
4.47065
4.54131
4.68338
4.86448
5.0447
5.09276
8.74833
8.28518
7.82786
7.41191
7.0497
6.63533
6.17503
5.81597
5.56194
5.26989
4.92253
4.61614
4.43342
4.2554
4.03835
3.77735
3.59771
3.62769
4.09901
5.60396
6.54918
6.64897
6.52397
6.40739
6.30346
6.18047
6.03667
5.90441
5.79827
5.69294
5.59105
5.49486
5.39903
5.29542
5.18086
5.06399
4.95333
4.84674
4.73532
4.61096
4.46886
4.3203
4.19937
4.19363
4.30472
4.63873
5.06089
5.23466
5.22142
5.19661
5.16843
5.13486
5.08724
5.03253
4.95925
4.86579
4.76187
4.67272
4.66816
4.80839
5.15316
5.421
5.45106
5.41274
5.38667
5.37978
5.37815
5.34456
5.30133
5.25971
5.2221
5.18396
5.13254
5.05735
4.94639
4.81939
4.71466
4.62951
4.56403
4.52729
4.52141
4.54904
4.61465
4.72561
4.89194
5.04845
5.11901
5.08506
8.90223
8.48812
8.07235
7.67592
7.3048
6.9508
6.55814
6.17062
5.87017
5.61913
5.3151
4.98979
4.71099
4.53394
4.37312
4.16696
3.89252
3.67738
3.71423
4.25826
5.65145
6.42289
6.49451
6.40163
6.26246
6.12836
6.00753
5.88667
5.75792
5.63123
5.5146
5.40425
5.29171
5.1672
5.04114
4.94259
4.85955
4.77467
4.67373
4.54843
4.41352
4.29128
4.28836
4.39924
4.71579
5.1687
5.36959
5.33718
5.29134
5.24472
5.19936
5.15013
5.09294
5.02425
4.93121
4.82076
4.71854
4.63028
4.60427
4.63939
4.83673
5.18876
5.41287
5.43978
5.43683
5.41142
5.3654
5.316
5.26393
5.21036
5.15805
5.10454
5.04188
4.96475
4.88375
4.81405
4.74676
4.68156
4.62621
4.61055
4.62995
4.67128
4.75299
4.93208
5.10002
5.16191
5.12014
5.06699
9.04488
8.67997
8.29866
7.92449
7.56046
7.1993
6.85219
6.49883
6.17186
5.8742
5.59461
5.31314
5.03869
4.7859
4.6024
4.44219
4.23602
3.95779
3.7588
3.80485
4.35767
5.63467
6.36369
6.36887
6.21496
6.07687
5.95864
5.83911
5.69921
5.54759
5.41345
5.2959
5.18263
5.06841
4.9547
4.85692
4.78008
4.70123
4.60344
4.48882
4.38565
4.37904
4.49844
4.81711
5.28889
5.52864
5.48445
5.37659
5.30403
5.24926
5.20322
5.14518
5.07075
4.9766
4.88071
4.80785
4.7337
4.65186
4.59865
4.59683
4.70154
4.96559
5.26667
5.44732
5.44702
5.41019
5.34265
5.27526
5.21254
5.14229
5.05934
4.9803
4.92378
4.88603
4.85163
4.8146
4.7894
4.77182
4.75346
4.72562
4.72385
4.77413
4.91868
5.12493
5.21714
5.18229
5.12232
5.07217
9.18161
8.85954
8.51605
8.17026
7.82097
7.45538
7.10432
6.76227
6.43763
6.13129
5.80889
5.52558
5.29798
5.06354
4.84491
4.64224
4.44933
4.24897
4.00053
3.83601
3.8811
4.43972
5.5964
6.14718
6.15034
6.05177
5.92051
5.78358
5.63166
5.44839
5.30069
5.19683
5.10421
5.01177
4.91451
4.81141
4.71674
4.62262
4.52618
4.45652
4.45471
4.5657
4.88561
5.39789
5.67609
5.64618
5.51145
5.38988
5.31719
5.25709
5.19464
5.11287
5.01777
4.93438
4.87482
4.8224
4.76938
4.72
4.67363
4.64826
4.68683
4.81199
5.06091
5.32246
5.40379
5.37514
5.30134
5.21553
5.13549
5.04745
4.95474
4.89305
4.85516
4.83308
4.83586
4.86186
4.88392
4.87982
4.85276
4.82674
4.8327
4.93005
5.10561
5.237
5.24243
5.20321
5.15778
5.10454
9.31077
9.0131
8.69946
8.38475
8.06382
7.70444
7.34385
7.00297
6.66575
6.34571
6.037
5.72922
5.46728
5.26852
5.07059
4.86832
4.65389
4.43692
4.23543
4.0146
3.88695
3.93824
4.48358
5.44144
5.99398
6.01047
5.87913
5.73302
5.56461
5.36216
5.20877
5.11965
5.04349
4.96739
4.88541
4.78455
4.676
4.56353
4.49163
4.48919
4.55655
4.85458
5.43665
5.7824
5.78483
5.66629
5.51151
5.39938
5.33084
5.25939
5.1679
5.06566
4.9937
4.9422
4.896
4.86504
4.85086
4.84222
4.80582
4.75231
4.70761
4.71407
4.81753
5.04884
5.24604
5.29006
5.23682
5.13872
5.0444
4.96808
4.91622
4.87518
4.84027
4.82193
4.85449
4.91522
4.91937
4.89762
4.89408
4.92577
4.99208
5.14239
5.25427
5.25499
5.25799
5.24446
5.22263
5.16875
9.43025
9.14688
8.85163
8.55485
8.25247
7.9107
7.55534
7.21618
6.88125
6.54307
6.22307
5.93655
5.67289
5.42877
5.22813
5.04522
4.85266
4.64982
4.43728
4.20472
3.99567
3.90394
3.9619
4.46143
5.36353
5.78956
5.78976
5.67728
5.49761
5.301
5.14863
5.06328
4.99092
4.91866
4.844
4.75666
4.63937
4.53995
4.49839
4.52128
4.76345
5.35294
5.82041
5.88457
5.79746
5.64717
5.51542
5.42076
5.33914
5.25167
5.1493
5.06562
5.0129
4.97212
4.95705
4.97079
4.97336
4.94046
4.88565
4.81072
4.71262
4.63339
4.6182
4.71996
4.92502
5.11463
5.14596
5.06398
4.98929
4.94404
4.90936
4.87947
4.85627
4.85055
4.85475
4.85137
4.85682
4.88935
4.95235
5.05251
5.21063
5.32481
5.32578
5.31047
5.29368
5.29526
5.29831
5.23293
9.54496
9.26938
8.9843
8.69837
8.4044
8.07265
7.72619
7.39508
7.07
6.7359
6.39961
6.11156
5.85911
5.62074
5.40284
5.1909
4.99197
4.81047
4.62476
4.42653
4.18683
3.97823
3.89551
3.95673
4.4306
5.25894
5.62881
5.5777
5.4047
5.24511
5.11168
5.00228
4.91739
4.8429
4.76153
4.66491
4.55088
4.48646
4.49189
4.67757
5.22537
5.78993
5.93857
5.88464
5.76016
5.63484
5.53507
5.4508
5.36553
5.26174
5.15907
5.09632
5.05208
5.03327
5.06427
5.07072
5.02375
4.968
4.90296
4.8207
4.7143
4.61155
4.54829
4.53488
4.63211
4.84045
5.00887
5.01554
4.97494
4.94306
4.92399
4.92317
4.91215
4.87681
4.83545
4.80532
4.80575
4.88088
5.00428
5.19965
5.38421
5.42546
5.39337
5.36543
5.34558
5.35035
5.33417
5.25805
9.65969
9.39173
9.11083
8.82804
8.53477
8.20678
7.86731
7.54634
7.23049
6.90224
6.57231
6.28458
6.02327
5.78082
5.56534
5.35724
5.14443
4.93327
4.74523
4.57418
4.38593
4.16141
3.96105
3.86186
3.91326
4.35179
5.06376
5.32539
5.31679
5.21174
5.07534
4.94248
4.83493
4.73648
4.6363
4.52205
4.4491
4.45787
4.60391
5.11594
5.73921
5.97636
5.9439
5.84104
5.7239
5.63162
5.55739
5.4809
5.38573
5.26838
5.18446
5.13842
5.1082
5.10638
5.10286
5.07635
5.02703
4.96715
4.89767
4.8115
4.71845
4.6234
4.54412
4.50409
4.50485
4.6011
4.82148
4.95223
4.97713
4.96394
4.9719
4.94877
4.90005
4.84723
4.79519
4.76615
4.78765
4.89434
5.09492
5.33642
5.47046
5.48452
5.45416
5.41927
5.3832
5.34977
5.33094
5.26201
9.75836
9.50795
9.23607
8.95543
8.65691
8.32861
7.9941
7.6771
7.36665
7.0414
6.7106
6.43742
6.18864
5.93499
5.70313
5.48861
5.275
5.06907
4.87504
4.69025
4.50839
4.31486
4.09914
3.90742
3.78928
3.8228
4.20565
4.80154
5.14944
5.1612
5.04199
4.8879
4.75059
4.62613
4.48874
4.40136
4.39775
4.50341
4.98688
5.66889
6.00974
6.00138
5.92419
5.81729
5.72419
5.64999
5.58667
5.51395
5.40739
5.27525
5.20275
5.15567
5.12175
5.09683
5.0683
5.03839
4.99914
4.93977
4.87442
4.80562
4.73035
4.65019
4.57095
4.51045
4.48721
4.50103
4.6168
4.81993
4.92447
4.95411
4.95335
4.91388
4.85398
4.79176
4.74704
4.74645
4.81425
5.00914
5.24545
5.44519
5.5244
5.53339
5.50099
5.45976
5.41098
5.34239
5.29296
5.20509
9.83278
9.60998
9.3541
9.0753
8.76925
8.44202
8.11229
7.79324
7.47817
7.15107
6.82727
6.55833
6.31574
6.06188
5.81782
5.5922
5.37384
5.17088
4.97955
4.79642
4.61906
4.43495
4.22413
3.99576
3.80092
3.68692
3.71992
4.07453
4.61605
4.96286
4.92766
4.80477
4.66815
4.50725
4.37541
4.358
4.4266
4.84078
5.59334
6.00076
6.05324
6.00552
5.92182
5.83357
5.76475
5.6974
5.63187
5.55102
5.40955
5.27019
5.20077
5.14983
5.10822
5.06453
5.01392
4.9706
4.93949
4.89875
4.84997
4.80024
4.74818
4.69232
4.6306
4.56584
4.50653
4.44496
4.44405
4.58055
4.80026
4.89155
4.89462
4.85149
4.78317
4.7408
4.74062
4.80366
4.99074
5.23465
5.42095
5.52157
5.57821
5.57645
5.53602
5.48067
5.40945
5.32438
5.22945
5.09636
9.87736
9.68302
9.44849
9.17935
8.87799
8.55268
8.2215
7.89392
7.56765
7.23444
6.918
6.65159
6.40274
6.14103
5.88479
5.66823
5.45973
5.25794
5.06348
4.87608
4.69551
4.51648
4.32577
4.10359
3.86565
3.66801
3.57297
3.62304
3.92192
4.47618
4.72831
4.67769
4.5467
4.39164
4.32512
4.381
4.71114
5.48131
6.01122
6.10334
6.07793
6.01307
5.93844
5.8843
5.82893
5.76117
5.68496
5.55647
5.38548
5.26619
5.1976
5.14189
5.09009
5.03328
4.97388
4.92171
4.88339
4.85523
4.82557
4.79892
4.78446
4.75379
4.70408
4.63433
4.53159
4.4094
4.31193
4.35242
4.52138
4.7416
4.80625
4.77387
4.73277
4.73179
4.79279
4.97078
5.24143
5.45808
5.56326
5.59407
5.5748
5.53949
5.50013
5.45053
5.37455
5.25216
5.11142
5.01405
9.89479
9.71928
9.50126
9.24022
8.94539
8.62407
8.29407
7.963
7.62838
7.29266
6.98364
6.7106
6.45098
6.18436
5.92621
5.71519
5.51881
5.32145
5.1304
4.9431
4.7582
4.57342
4.3849
4.18073
3.9536
3.7246
3.55134
3.46612
3.50324
3.77192
4.24287
4.46263
4.38991
4.33406
4.36078
4.61124
5.35847
5.97266
6.11073
6.12276
6.09959
6.04628
5.9981
5.95338
5.88713
5.80756
5.69333
5.53027
5.36841
5.27262
5.21107
5.15021
5.08875
5.02578
4.96041
4.90567
4.86722
4.84721
4.83502
4.81022
4.77047
4.72681
4.68111
4.61855
4.51516
4.37109
4.26749
4.2351
4.29134
4.46732
4.64679
4.69644
4.71999
4.77607
4.94231
5.214
5.48612
5.62397
5.64084
5.60852
5.55183
5.4958
5.44461
5.37824
5.276
5.1487
5.06564
5.01079
9.88482
9.71145
9.50033
9.25042
8.97257
8.65588
8.3285
7.99992
7.66722
7.3358
7.02769
6.74535
6.47361
6.20323
5.95263
5.74166
5.55476
5.36317
5.17464
4.98851
4.80317
4.61614
4.42621
4.22754
4.01721
3.79837
3.59862
3.44129
3.33665
3.3438
3.5808
4.01708
4.19356
4.31122
4.55659
5.18315
5.93661
6.18635
6.19553
6.17959
6.16941
6.12974
6.07895
6.00756
5.92102
5.81421
5.67562
5.51139
5.37883
5.30034
5.23166
5.16223
5.09664
5.03152
4.96835
4.91692
4.88229
4.86759
4.84441
4.79903
4.74645
4.69097
4.63416
4.56943
4.46876
4.33402
4.23881
4.21081
4.1933
4.25651
4.44134
4.61968
4.75403
4.93916
5.21697
5.50003
5.68841
5.71364
5.68235
5.62393
5.54479
5.45588
5.36382
5.25777
5.15561
5.10078
5.06797
5.02815
9.86011
9.6608
9.43359
9.1888
8.92593
8.61704
8.29695
7.977
7.65659
7.34251
7.0431
6.76009
6.48411
6.21682
5.97251
5.76036
5.57214
5.38611
5.19973
5.01491
4.82851
4.63837
4.44738
4.25754
4.06702
3.86996
3.66197
3.455
3.27664
3.16048
3.19714
3.45771
3.89469
4.39373
5.04384
5.84343
6.12726
6.19188
6.2086
6.22666
6.22968
6.18954
6.12486
6.04021
5.9338
5.80464
5.65335
5.50868
5.40797
5.329
5.24925
5.17212
5.10431
5.04279
4.98693
4.93957
4.90908
4.89392
4.85383
4.8003
4.74649
4.68755
4.61319
4.51448
4.39305
4.28661
4.21544
4.1822
4.16087
4.19092
4.30902
4.55181
4.85409
5.19726
5.53229
5.75976
5.79009
5.76153
5.69533
5.61932
5.52673
5.40207
5.25371
5.1378
5.09195
5.07388
5.07323
5.08501
9.87084
9.68316
9.47548
9.23833
8.97399
8.66262
8.34154
8.01659
7.69022
7.36845
7.05773
6.7636
6.48407
6.22119
5.98428
5.77113
5.57806
5.39885
5.21393
5.02931
4.84167
4.64861
4.4562
4.27344
4.09889
3.92308
3.71217
3.47374
3.25105
3.07269
3.03767
3.12575
3.57502
4.46705
5.4696
6.40852
6.34979
6.25255
6.23827
6.27111
6.26237
6.21039
6.14578
6.06122
5.94455
5.79034
5.63536
5.5155
5.42337
5.33863
5.25248
5.17302
5.10549
5.04269
4.98394
4.93166
4.89674
4.87592
4.83027
4.77584
4.72094
4.65921
4.57617
4.45156
4.31887
4.24526
4.20224
4.16862
4.14345
4.17933
4.26551
4.51879
4.9408
5.40005
5.76472
5.91569
5.89175
5.81807
5.71608
5.60458
5.47732
5.31591
5.16194
5.08971
5.06287
5.04752
5.07388
5.15931
)
;

boundaryField
{
    inlet
    {
        type            fixedValue;
        value           uniform 1;
    }
    outlet
    {
        type            zeroGradient;
    }
    bottom
    {
        type            zeroGradient;
    }
    top
    {
        type            zeroGradient;
    }
    obstacle
    {
        type            zeroGradient;
    }
    defaultFaces
    {
        type            empty;
    }
}


// ************************************************************************* //
