/*--------------------------------*- C++ -*----------------------------------*\
  =========                 |
  \\      /  F ield         | OpenFOAM: The Open Source CFD Toolbox
   \\    /   O peration     | Website:  https://openfoam.org
    \\  /    A nd           | Version:  7
     \\/     M anipulation  |
\*---------------------------------------------------------------------------*/
FoamFile
{
    version     2.0;
    format      ascii;
    class       volScalarField;
    location    "14.5";
    object      rho;
}
// * * * * * * * * * * * * * * * * * * * * * * * * * * * * * * * * * * * * * //

dimensions      [1 -3 0 0 0 0 0];

internalField   nonuniform List<scalar> 
3328
(
176.729
15.5806
7.59587
7.59662
7.58002
7.56839
7.57039
7.605
7.65752
7.67943
7.67657
7.66477
7.65637
7.66718
7.72092
7.81961
7.93126
8.00443
8.02594
7.99859
7.93011
7.85256
7.79293
7.74496
176.706
15.531
7.59608
7.59914
7.587
7.57793
7.58126
7.61675
7.6686
7.69114
7.68867
7.67619
7.66493
7.67002
7.71465
7.80385
7.9069
7.97704
8.00229
7.98371
7.92741
7.86129
7.80973
7.7682
176.668
15.4436
7.59448
7.6014
7.59483
7.5886
7.59303
7.62767
7.6788
7.70361
7.70321
7.69011
7.67503
7.67298
7.70323
7.77831
7.8679
7.93402
7.96461
7.95996
7.9244
7.87606
7.83837
7.80862
176.609
15.3217
7.59048
7.60179
7.60111
7.59953
7.60536
7.63673
7.68655
7.71466
7.71701
7.70285
7.68315
7.67337
7.68818
7.74363
7.81553
7.87647
7.91456
7.92751
7.91717
7.88825
7.86695
7.85045
176.546
15.1882
7.58272
7.59872
7.60302
7.60531
7.61217
7.63903
7.68667
7.7185
7.72424
7.71024
7.68719
7.67143
7.67279
7.70332
7.75656
7.80804
7.84773
7.87377
7.8834
7.88204
7.88207
7.88529
176.484
15.0667
7.56914
7.58963
7.59786
7.60316
7.6114
7.63187
7.67498
7.71081
7.72199
7.71124
7.68825
7.66719
7.65647
7.66508
7.69875
7.73808
7.77584
7.81222
7.84225
7.86626
7.87848
7.87167
176.408
14.9882
7.54899
7.57178
7.58126
7.58984
7.59939
7.61327
7.64849
7.68748
7.70732
7.70448
7.68645
7.66212
7.64191
7.63564
7.64668
7.67317
7.70271
7.73605
7.76797
7.78701
7.79365
7.80743
176.292
14.9743
7.5238
7.54416
7.55398
7.56489
7.57547
7.5862
7.61284
7.65036
7.6799
7.68904
7.67968
7.65744
7.63252
7.61358
7.60685
7.61611
7.62984
7.65396
7.68481
7.71031
7.70352
7.80869
176.1
15.0106
7.49998
7.51272
7.5236
7.53229
7.54466
7.55616
7.57591
7.60783
7.64255
7.66368
7.6661
7.65209
7.62591
7.59966
7.57994
7.57126
7.56538
7.57359
7.58331
7.57586
7.43317
7.19968
175.789
15.0997
7.48276
7.48441
7.4935
7.49565
7.50781
7.52314
7.5407
7.56739
7.6019
7.63076
7.64489
7.64157
7.62031
7.59348
7.56438
7.53966
7.51636
7.50365
7.49338
7.45335
7.3909
7.18464
175.369
15.2381
7.45297
7.46265
7.47055
7.46859
7.47212
7.48423
7.50325
7.52864
7.56147
7.59402
7.61706
7.62384
7.61153
7.59016
7.56008
7.52397
7.48485
7.44885
7.41402
7.35078
7.28097
7.13598
174.897
15.3684
7.42482
7.43915
7.44866
7.44778
7.44149
7.44434
7.45832
7.48364
7.51705
7.55181
7.57988
7.59391
7.59248
7.58215
7.55996
7.522
7.4707
7.41228
7.35065
7.27968
7.20998
7.12784
174.432
15.4469
7.41473
7.42363
7.42639
7.42443
7.41276
7.40672
7.41079
7.42995
7.46425
7.50034
7.53022
7.54914
7.55721
7.55926
7.55144
7.52339
7.46932
7.39546
7.31245
7.2302
7.15279
7.10569
173.972
15.4995
7.40874
7.41282
7.40493
7.39523
7.38119
7.37002
7.36586
7.37489
7.40226
7.43933
7.47176
7.4919
7.50526
7.51709
7.52506
7.51404
7.46964
7.39239
7.29716
7.20084
7.11991
7.06253
173.527
15.5035
7.40142
7.40048
7.38253
7.36442
7.34707
7.33233
7.32274
7.32308
7.3398
7.37312
7.41054
7.43157
7.44352
7.46031
7.47978
7.48522
7.46011
7.39174
7.2952
7.19224
7.10013
7.0386
173.116
15.4606
7.39105
7.38429
7.35987
7.33697
7.31297
7.29228
7.27923
7.27518
7.28392
7.31059
7.35029
7.37687
7.3848
7.39947
7.42226
7.44066
7.43363
7.38344
7.29558
7.19263
7.09164
7.0212
172.759
15.3463
7.3785
7.36603
7.33818
7.31337
7.2841
7.25501
7.2361
7.23072
7.23725
7.25811
7.29189
7.32743
7.33748
7.34485
7.36199
7.38396
7.39093
7.36152
7.28812
7.1888
7.08456
7.00154
172.466
15.1606
7.363
7.3467
7.31854
7.29536
7.26586
7.23068
7.1994
7.18781
7.19181
7.21168
7.2429
7.28218
7.30169
7.30037
7.30487
7.31929
7.33216
7.31906
7.2639
7.17356
7.06969
6.97531
172.233
14.9217
7.34477
7.32714
7.30185
7.2843
7.2589
7.223
7.17956
7.15549
7.15535
7.16893
7.19687
7.23797
7.26978
7.26394
7.25368
7.25202
7.25999
7.25629
7.21868
7.14259
7.04348
6.9422
172.055
14.6491
7.32552
7.30825
7.2886
7.27882
7.259
7.22377
7.17333
7.13211
7.12183
7.13173
7.15701
7.19487
7.23279
7.23162
7.21026
7.18806
7.18238
7.17898
7.15424
7.09533
7.00715
6.90712
171.932
14.3586
7.30474
7.29222
7.27979
7.2773
7.26329
7.22981
7.17437
7.11437
7.0866
7.0906
7.11076
7.14476
7.18362
7.19813
7.16865
7.13507
7.11284
7.10354
7.08356
7.03726
6.96301
6.87196
171.848
14.0789
7.27258
7.28054
7.27532
7.27715
7.26737
7.23626
7.17641
7.10342
7.05379
7.04163
7.05586
7.0856
7.12487
7.15202
7.1326
7.09675
7.06275
7.044
7.02272
6.9807
6.91469
6.83272
171.773
13.84
7.23013
7.26378
7.26884
7.27262
7.26596
7.23846
7.17922
7.09744
7.02611
6.9922
6.99347
7.01902
7.05697
7.09162
7.09715
7.06882
7.03542
7.0082
6.98294
6.93738
6.86983
6.7898
171.662
13.6604
7.18037
7.23533
7.25334
7.25737
7.25365
7.23265
7.17937
7.09583
7.00696
6.95061
6.93205
6.94964
6.98727
7.02918
7.05716
7.04893
7.02155
6.99207
6.96244
6.91081
6.83373
6.74554
171.468
13.5553
7.1293
7.19693
7.22264
7.22714
7.22563
7.21158
7.16769
7.09177
6.99606
6.9241
6.8884
6.88578
6.91878
6.96585
7.00864
7.02632
7.00891
6.98226
6.94903
6.89368
6.80764
6.70669
171.174
13.529
7.0797
7.15112
7.17852
7.18065
7.18061
7.17295
7.14099
7.07841
6.99049
6.91365
6.86509
6.84393
6.86301
6.90478
6.95249
6.98741
6.98935
6.96531
6.93089
6.87595
6.78738
6.67807
170.804
13.5499
7.03317
7.10214
7.12528
7.12492
7.12287
7.1188
7.09929
7.05391
6.98239
6.91101
6.85693
6.82595
6.82321
6.85058
6.89269
6.93278
6.94969
6.93201
6.89957
6.84843
6.76602
6.65951
170.406
13.5866
6.99218
7.0559
7.07182
7.06691
7.06314
7.06243
7.05196
7.0231
6.9694
6.91072
6.85466
6.81413
6.79611
6.805
6.83355
6.86635
6.88611
6.87823
6.85192
6.80813
6.73808
6.64452
170.027
13.6223
6.95744
7.01583
7.02699
7.01897
7.01306
7.01183
7.00532
6.98652
6.95016
6.90638
6.85166
6.80583
6.77528
6.76616
6.77845
6.79993
6.81343
6.80961
6.78965
6.75468
6.69985
6.62508
169.703
13.6453
6.92953
6.98647
6.99602
6.98885
6.98196
6.97712
6.96879
6.95107
6.92693
6.89455
6.84552
6.7989
6.75759
6.734
6.73259
6.74261
6.74967
6.74419
6.72434
6.69431
6.6524
6.59617
169.439
13.6646
6.90498
6.96196
6.97604
6.97453
6.96777
6.95745
6.94191
6.92045
6.89941
6.87334
6.83312
6.78996
6.74632
6.71348
6.70108
6.70199
6.70406
6.69518
6.67177
6.63952
6.60108
6.55564
169.225
13.6983
6.89019
6.94429
6.96513
6.96928
6.96149
6.94569
6.91841
6.8894
6.86486
6.84187
6.8128
6.77934
6.74313
6.7095
6.68926
6.68161
6.67682
6.66498
6.63807
6.59883
6.55288
6.50472
169.023
13.7761
6.88937
6.93565
6.95867
6.96538
6.95566
6.93085
6.89225
6.85212
6.82132
6.80098
6.78452
6.76727
6.74555
6.71963
6.6956
6.68051
6.66755
6.64985
6.61774
6.56999
6.51191
6.45062
168.8
13.8929
6.90056
6.93482
6.95177
6.95734
6.94494
6.90936
6.86223
6.81108
6.77312
6.75443
6.7505
6.75249
6.7501
6.74024
6.71897
6.69722
6.6739
6.64641
6.60659
6.54961
6.47895
6.40177
168.524
14.0425
6.91285
6.93392
6.94403
6.94275
6.92059
6.87569
6.82208
6.76836
6.729
6.71242
6.71736
6.73718
6.75352
6.75958
6.74801
6.72229
6.69037
6.65203
6.6023
6.53571
6.45494
6.36505
168.189
14.2079
6.91888
6.92786
6.93139
6.92108
6.88703
6.83168
6.77947
6.72829
6.69212
6.67888
6.69153
6.72025
6.74861
6.76423
6.76428
6.74261
6.7084
6.66135
6.60155
6.52605
6.4388
6.34335
167.831
14.3755
6.91495
6.91245
6.90623
6.88776
6.84745
6.78849
6.73928
6.69813
6.66901
6.6589
6.6728
6.70074
6.73086
6.75035
6.7572
6.74542
6.71521
6.66463
6.59824
6.51837
6.42995
6.33585
167.532
14.5446
6.90479
6.89012
6.86702
6.83624
6.79295
6.74467
6.70781
6.68253
6.66214
6.65256
6.65712
6.6757
6.70217
6.72436
6.73468
6.73113
6.70704
6.65743
6.58972
6.51169
6.42859
6.34141
167.339
14.697
6.8877
6.86172
6.82177
6.77835
6.73694
6.71059
6.69515
6.68736
6.67267
6.65671
6.64556
6.65181
6.67309
6.69613
6.7079
6.70661
6.68652
6.64057
6.57657
6.50531
6.4322
6.35647
167.264
14.7878
6.87558
6.84208
6.79061
6.74019
6.7055
6.6923
6.68991
6.69119
6.68176
6.66121
6.6412
6.64281
6.6672
6.69122
6.69997
6.69439
6.67169
6.62693
6.56574
6.49939
6.43372
6.36763
6.18675
6.71681
6.93848
6.96679
6.88605
6.75529
6.65726
6.59248
6.96144
7.10437
7.05353
7.01183
6.91551
6.78611
6.68301
6.62219
7.01545
7.04069
7.0065
6.99754
6.92566
6.83007
6.72719
6.66037
7.06953
7.06972
7.04212
7.03023
6.9675
6.87826
6.78303
6.72193
7.06299
7.07814
7.04898
7.0254
6.96498
6.90214
6.8376
6.79511
7.04686
7.05365
7.05961
7.0421
6.99609
6.93687
6.89534
6.85172
7.0125
7.0191
7.02615
7.02443
6.98487
6.91588
6.84567
6.83004
6.98284
6.97279
6.97545
6.97324
6.93159
6.87324
6.78841
6.82511
6.94818
6.9207
6.90509
6.88565
6.83564
6.73943
6.42992
5.38476
6.90508
6.85743
6.82194
6.77248
6.69659
6.52957
6.18234
5.21458
6.8557
6.78686
6.73075
6.65851
6.5516
6.34136
5.9975
5.20944
6.81126
6.72549
6.64801
6.55646
6.42547
6.20952
5.86501
5.25763
6.77576
6.68012
6.58664
6.47938
6.33266
6.11776
5.80511
5.34853
6.74262
6.64717
6.54536
6.42975
6.27623
6.06883
5.79957
5.44903
6.70369
6.61252
6.51194
6.3977
6.24732
6.05271
5.81607
5.53727
6.65563
6.56598
6.4703
6.36346
6.22462
6.04947
5.83997
5.60321
6.6046
6.50803
6.41379
6.31524
6.1939
6.04376
5.85853
5.65118
6.56239
6.45262
6.35197
6.25605
6.15079
6.02671
5.86654
5.68461
6.5393
6.41868
6.30636
6.20439
6.10598
5.99981
5.86694
5.70812
6.53223
6.41088
6.29194
6.18126
6.07996
5.97745
5.86389
5.72675
6.53046
6.41985
6.30399
6.18877
6.08195
5.97479
5.86747
5.74634
6.52312
6.42967
6.3259
6.21315
6.10375
5.99256
5.88509
5.77082
6.50109
6.42754
6.3383
6.23518
6.13012
6.01889
5.90937
5.7965
6.45596
6.39823
6.32516
6.23621
6.14139
6.03742
5.93228
5.823
6.3918
6.33499
6.27495
6.20449
6.12373
6.03604
5.94459
5.84702
6.32579
6.25683
6.19691
6.14111
6.08024
6.01342
5.93935
5.8586
6.27475
6.19203
6.12331
6.06935
6.02278
5.97626
5.92228
5.85883
6.24777
6.15802
6.08091
6.02081
5.97556
5.93816
5.89914
5.85115
6.24221
6.15364
6.07533
6.01003
5.95907
5.919
5.88181
5.83901
6.25408
6.17053
6.09548
6.03011
5.97452
5.92606
5.8795
5.82862
6.27974
6.20353
6.13124
6.06392
6.00204
5.94362
5.88575
5.82367
6.29982
6.23078
6.16255
6.09611
6.03179
5.96693
5.89949
5.82839
2.15483
1.10502
0.71081
0.7312
0.907783
1.21039
1.62189
1.98886
2.29366
2.59473
2.89251
3.01111
3.26192
3.771
3.96729
4.05202
4.1218
4.18987
4.28226
4.40145
4.43628
4.40364
4.34983
4.28549
4.22138
4.15441
4.07474
3.97692
3.89933
3.84113
3.78141
3.71747
3.64587
3.57609
3.52279
3.48367
3.47329
3.47934
3.44857
3.40622
3.35958
3.30769
3.25385
3.20213
3.15311
3.10742
3.06584
3.0215
2.97305
2.91601
2.85053
2.83847
2.93636
3.22761
3.72877
4.06362
3.97429
3.90811
3.87448
3.86304
3.87344
3.87613
3.85408
3.82883
3.79862
3.75554
3.69993
3.64403
3.59099
3.53849
3.49621
3.46841
3.44897
3.43943
3.45338
3.48859
3.51338
3.5145
3.50332
3.48588
3.4624
3.41676
3.32705
3.23663
3.18644
3.15649
3.11766
3.09394
3.12086
2.27503
1.79438
1.50427
1.48317
1.54653
1.61002
1.76236
2.02306
2.3378
2.68451
2.93098
3.29496
3.84182
4.02219
4.11966
4.20593
4.27493
4.33481
4.40583
4.41805
4.38414
4.3387
4.28957
4.23187
4.16675
4.08877
3.99582
3.91832
3.85898
3.79939
3.73673
3.67044
3.60707
3.55463
3.51519
3.49958
3.49692
3.46701
3.4252
3.37958
3.32915
3.27529
3.22043
3.16555
3.11174
3.06451
3.01529
2.96798
2.92351
2.89726
2.9345
3.07232
3.28957
3.64652
4.01738
3.97356
3.92319
3.89084
3.8766
3.88166
3.88113
3.85807
3.83097
3.79754
3.74776
3.68298
3.6263
3.58751
3.56005
3.53213
3.50136
3.47645
3.4618
3.46688
3.4944
3.51278
3.50605
3.49067
3.47413
3.4513
3.41042
3.33688
3.24716
3.18672
3.15058
3.117
3.11493
3.90653
3.1302
2.67037
2.22649
1.96931
1.92819
1.85516
1.89859
2.03154
2.23027
2.52706
2.94114
3.39607
4.03336
4.21392
4.32352
4.40179
4.48327
4.53262
4.55157
4.52043
4.47083
4.42016
4.36684
4.30656
4.23263
4.14094
4.04966
3.98136
3.92469
3.8651
3.79704
3.72327
3.6581
3.60769
3.57137
3.55011
3.5304
3.49546
3.45471
3.41147
3.36685
3.32062
3.26819
3.20435
3.13359
3.07221
3.02026
2.98241
2.96431
2.98697
3.1022
3.25005
3.3468
3.5474
3.9261
4.02169
3.9938
3.95908
3.93486
3.92271
3.90637
3.88287
3.85673
3.82048
3.76195
3.68332
3.62261
3.59488
3.57763
3.56282
3.54473
3.52717
3.51563
3.51559
3.52441
3.52136
3.50508
3.4869
3.46695
3.4421
3.40323
3.34642
3.27975
3.21135
3.15477
3.12811
3.1435
4.46376
3.80406
3.37084
2.98553
2.578
2.43944
2.36756
2.24204
2.18561
2.22116
2.33979
2.65174
3.092
3.70046
4.20456
4.50259
4.60413
4.6653
4.66053
4.62815
4.58403
4.54106
4.49796
4.44904
4.38751
4.30445
4.20623
4.12256
4.06213
4.00797
3.94943
3.88146
3.80746
3.74247
3.69419
3.66118
3.62903
3.58774
3.54536
3.50133
3.45725
3.41523
3.37224
3.32096
3.25326
3.16504
3.08008
3.03294
3.02299
3.05138
3.14719
3.3258
3.42038
3.42837
3.49626
3.75611
4.01833
4.06346
4.04345
4.01047
3.97816
3.94511
3.91434
3.88451
3.84087
3.77735
3.71328
3.67359
3.65029
3.63258
3.61757
3.60338
3.59078
3.58278
3.5797
3.56806
3.54502
3.52081
3.49572
3.46624
3.42731
3.38155
3.33798
3.29664
3.25237
3.20552
3.18907
3.22255
4.82493
4.31453
3.89429
3.57193
3.20737
2.89118
2.77682
2.64534
2.52142
2.4388
2.43336
2.47402
2.64984
3.04711
3.76151
4.36421
4.70352
4.74408
4.70494
4.63237
4.57376
4.53517
4.49172
4.43997
4.37387
4.29476
4.21663
4.14837
4.08883
4.03298
3.97604
3.91741
3.86223
3.816
3.77973
3.74022
3.69334
3.64637
3.60075
3.55635
3.51359
3.47072
3.42238
3.36518
3.28466
3.18913
3.0981
3.05791
3.07663
3.17904
3.34726
3.50634
3.52522
3.50373
3.50359
3.61456
3.89434
4.09875
4.11664
4.09618
4.04989
3.99058
3.9345
3.88803
3.83855
3.78552
3.7495
3.72295
3.69989
3.68124
3.66746
3.65993
3.65742
3.65348
3.63762
3.61232
3.58188
3.54508
3.50264
3.45719
3.40839
3.36144
3.32897
3.30497
3.28111
3.25855
3.26032
3.32747
5.06951
4.66667
4.29887
4.00251
3.71039
3.37212
3.16398
3.04779
2.91863
2.81236
2.68839
2.59393
2.5899
2.6563
2.99487
3.78301
4.55893
4.72121
4.69485
4.62194
4.56574
4.51333
4.462
4.40184
4.32936
4.26018
4.20376
4.14767
4.09167
4.03989
3.99531
3.95593
3.92411
3.89768
3.85593
3.79903
3.73919
3.68469
3.63604
3.59049
3.5455
3.49432
3.428
3.34142
3.25346
3.17643
3.11525
3.11929
3.20558
3.38442
3.53997
3.58521
3.57819
3.5653
3.53299
3.56205
3.729
4.00578
4.12163
4.12998
4.08283
4.00185
3.92678
3.8712
3.82776
3.79633
3.77355
3.75039
3.7306
3.71817
3.71561
3.72186
3.72322
3.70649
3.68112
3.64307
3.59228
3.54151
3.49127
3.43389
3.38391
3.35309
3.33249
3.31446
3.30495
3.31584
3.35378
3.464
5.23786
4.90893
4.61
4.33598
4.07489
3.79376
3.53843
3.38323
3.239
3.11729
2.99919
2.83957
2.68577
2.68574
2.74403
3.01805
3.85937
4.5115
4.64027
4.60244
4.55187
4.49261
4.43716
4.3729
4.30716
4.24516
4.18631
4.13682
4.09282
4.05308
4.02069
3.99939
3.98054
3.94259
3.88658
3.8185
3.74928
3.68782
3.63369
3.5811
3.52479
3.45978
3.37739
3.27493
3.19625
3.15706
3.15868
3.23291
3.42394
3.5794
3.63575
3.62521
3.61627
3.61499
3.58228
3.56652
3.62663
3.83258
4.03723
4.10523
4.08068
3.99905
3.91077
3.85517
3.82568
3.80694
3.78788
3.77114
3.76349
3.76765
3.78014
3.7788
3.75825
3.73054
3.68942
3.6368
3.58165
3.52699
3.46939
3.41255
3.36676
3.33831
3.31947
3.31197
3.3274
3.38219
3.47766
3.59873
5.35347
5.083
4.81897
4.6
4.35721
4.1023
3.86601
3.69153
3.52603
3.37109
3.25421
3.12535
2.95419
2.82659
2.79691
2.82131
3.04634
3.84544
4.4981
4.59122
4.52504
4.47209
4.42049
4.36531
4.3116
4.25332
4.18811
4.12818
4.08206
4.05045
4.03071
4.00187
3.96268
3.91648
3.86241
3.79599
3.7236
3.65861
3.60103
3.54527
3.48429
3.40652
3.30523
3.21195
3.17263
3.17763
3.25802
3.44258
3.63438
3.67763
3.67993
3.66298
3.65915
3.66166
3.63069
3.59498
3.58935
3.65932
3.84525
3.99523
4.03836
3.98185
3.90009
3.85501
3.83241
3.81785
3.80786
3.8017
3.80629
3.81493
3.80648
3.78418
3.75863
3.72657
3.67988
3.61722
3.55119
3.49259
3.44446
3.40197
3.36335
3.34012
3.32868
3.33543
3.38932
3.4799
3.60329
3.68005
5.43525
5.20317
4.97006
4.77064
4.57865
4.33494
4.10827
3.93907
3.78876
3.6135
3.44704
3.32782
3.20833
3.07425
2.94509
2.85494
2.87034
3.10909
3.90784
4.4254
4.49611
4.4688
4.40894
4.35671
4.30977
4.25393
4.18574
4.12235
4.0759
4.03888
3.99883
3.95619
3.91266
3.86738
3.81571
3.75282
3.68384
3.61833
3.55677
3.49438
3.42402
3.33876
3.24899
3.19339
3.19373
3.2632
3.44612
3.65475
3.73081
3.72348
3.70996
3.69601
3.68613
3.66433
3.63253
3.59053
3.55578
3.54681
3.61025
3.77109
3.91613
3.94101
3.89624
3.86227
3.84222
3.82846
3.82877
3.8361
3.83079
3.81311
3.79402
3.77362
3.74715
3.71221
3.65784
3.58232
3.51091
3.46181
3.42859
3.40265
3.37749
3.36616
3.37192
3.40993
3.48565
3.58131
3.67654
3.69953
5.49397
5.28953
5.08357
4.89256
4.72333
4.52563
4.30027
4.12032
3.99071
3.83945
3.65568
3.48999
3.38903
3.28955
3.16681
3.01679
2.9116
2.92837
3.18507
3.95639
4.41048
4.46187
4.40244
4.34651
4.29659
4.23773
4.16862
4.10426
4.05208
3.99962
3.94806
3.89932
3.85082
3.79818
3.73957
3.67946
3.62238
3.5673
3.50948
3.44444
3.36925
3.29097
3.22814
3.22559
3.28565
3.46381
3.68284
3.77247
3.76526
3.75202
3.73722
3.71961
3.69487
3.66641
3.62802
3.57855
3.52319
3.4736
3.46985
3.54354
3.72262
3.8629
3.88027
3.8604
3.84694
3.8434
3.84246
3.82571
3.8041
3.78274
3.76355
3.74378
3.71681
3.67714
3.61872
3.55228
3.49758
3.4528
3.41808
3.39871
3.3955
3.40995
3.44452
3.50316
3.59111
3.67289
3.70936
3.69094
5.54008
5.35905
5.17414
4.99486
4.82405
4.65823
4.47027
4.28046
4.13022
4.00271
3.84587
3.6747
3.52527
3.42851
3.33948
3.22448
3.06921
2.94469
2.96522
3.25896
3.96777
4.33894
4.37752
4.33198
4.26385
4.19817
4.13983
4.08135
4.01813
3.95479
3.89585
3.84007
3.78304
3.7194
3.65456
3.60376
3.56086
3.5171
3.46479
3.39913
3.32891
3.26591
3.26495
3.3246
3.49196
3.72589
3.82713
3.81061
3.7879
3.76446
3.74143
3.71628
3.68658
3.65035
3.6016
3.54377
3.48959
3.44112
3.42547
3.44339
3.54744
3.7301
3.84529
3.85982
3.85855
3.84567
3.82241
3.7974
3.77133
3.74396
3.71684
3.68916
3.65671
3.61676
3.57517
3.53985
3.50486
3.47117
3.44273
3.43444
3.4449
3.46676
3.50993
3.60423
3.69182
3.72234
3.7001
3.67211
5.58058
5.42265
5.25505
5.08808
4.92299
4.75613
4.59272
4.42299
4.26271
4.11413
3.97238
3.82736
3.68376
3.54943
3.45012
3.3623
3.24848
3.09219
2.97813
3.00338
3.29942
3.94901
4.29851
4.30288
4.22906
4.1615
4.10387
4.04574
3.97694
3.9013
3.83404
3.77455
3.71651
3.65755
3.59873
3.54819
3.5085
3.46737
3.41622
3.35653
3.30482
3.30203
3.36595
3.53319
3.77462
3.89455
3.87185
3.81787
3.78241
3.7555
3.73219
3.70207
3.66287
3.61374
3.56386
3.52568
3.48562
3.44074
3.41205
3.41078
3.46547
3.60276
3.75689
3.84925
3.84951
3.83097
3.79645
3.76256
3.73083
3.69454
3.65096
3.60961
3.5803
3.56103
3.54391
3.52559
3.51397
3.50662
3.49864
3.48426
3.48481
3.51157
3.58752
3.69457
3.73972
3.72083
3.68875
3.66281
5.61771
5.47984
5.33072
5.17839
5.02206
4.85543
4.69241
4.53061
4.3742
4.22398
4.06327
3.91968
3.80258
3.68053
3.56502
3.45637
3.35173
3.24169
3.10279
3.00881
3.03267
3.33077
3.91616
4.18108
4.18532
4.13827
4.07333
4.00614
3.93163
3.84094
3.76701
3.71418
3.66634
3.61856
3.56846
3.51518
3.46616
3.41712
3.36675
3.33158
3.33212
3.39163
3.55843
3.81874
3.95666
3.94105
3.87339
3.8133
3.77757
3.74747
3.71525
3.67265
3.62354
3.58051
3.54912
3.52069
3.49192
3.46538
3.44046
3.42724
3.44688
3.51105
3.63863
3.77097
3.81289
3.79873
3.76166
3.71848
3.67773
3.63252
3.58477
3.55226
3.53214
3.5205
3.52185
3.53642
3.55042
3.55089
3.53867
3.52632
3.53099
3.58194
3.67213
3.73851
3.73812
3.7178
3.69366
3.66663
5.6513
5.52519
5.39047
5.25337
5.1114
4.94955
4.78423
4.62525
4.46528
4.31086
4.15945
4.00606
3.87347
3.77143
3.66856
3.56219
3.44816
3.3313
3.22113
3.09805
3.02522
3.05133
3.34102
3.82644
4.09478
4.10401
4.03968
3.9686
3.88643
3.78608
3.70926
3.66449
3.6259
3.58692
3.54443
3.492
3.43574
3.37744
3.34038
3.34061
3.37636
3.53201
3.8284
3.99852
3.99891
3.93944
3.86246
3.80676
3.77246
3.73643
3.68963
3.63705
3.59991
3.57279
3.54831
3.53203
3.52446
3.51936
3.49916
3.47007
3.44698
3.44869
3.50169
3.61959
3.71914
3.74254
3.71584
3.66602
3.61848
3.58046
3.5547
3.53372
3.51517
3.50533
3.52246
3.55532
3.55854
3.54928
3.54896
3.56643
3.6012
3.67772
3.73313
3.73144
3.73163
3.72444
3.71341
3.68622
5.68169
5.56249
5.43665
5.30838
5.17574
5.02333
4.86221
4.70601
4.54935
4.38857
4.23389
4.09319
3.96187
3.83852
3.73565
3.64073
3.53984
3.43247
3.31857
3.19207
3.0763
3.02334
3.05299
3.31783
3.77416
3.98213
3.9827
3.92851
3.84098
3.74341
3.66699
3.62445
3.58844
3.5517
3.51286
3.46729
3.40642
3.35469
3.33347
3.3459
3.47299
3.77467
4.00873
4.03633
3.99341
3.91909
3.8533
3.8058
3.76471
3.72059
3.66859
3.62552
3.5979
3.57682
3.56935
3.57641
3.57737
3.55936
3.52974
3.4897
3.43821
3.39711
3.38743
3.43989
3.54496
3.64191
3.65769
3.61591
3.57877
3.55718
3.54019
3.52496
3.51293
3.51038
3.51351
3.51236
3.51534
3.53295
3.56731
3.61949
3.69934
3.75586
3.7541
3.74482
3.73512
3.73566
3.7378
3.70497
5.71154
5.59602
5.47506
5.3522
5.22415
5.07741
4.92181
4.77092
4.62064
4.46381
4.30339
4.16381
4.03973
3.92097
3.81093
3.70254
3.59965
3.50474
3.40658
3.30064
3.1707
3.05631
3.00847
3.03997
3.2902
3.71034
3.89201
3.86712
3.78274
3.70373
3.63673
3.58169
3.5391
3.50133
3.45955
3.4097
3.34951
3.31571
3.31918
3.41686
3.69846
3.98176
4.05256
4.02549
3.96389
3.90161
3.85143
3.80861
3.76551
3.71301
3.66094
3.62882
3.60637
3.59691
3.61311
3.61671
3.5924
3.56274
3.528
3.48434
3.42828
3.37496
3.34245
3.33332
3.38344
3.49082
3.57597
3.58068
3.56017
3.54513
3.53597
3.53585
3.53064
3.51268
3.49044
3.47384
3.47437
3.51571
3.58135
3.68123
3.77374
3.7925
3.77525
3.75927
3.74853
3.75113
3.74377
3.70503
5.74236
5.63035
5.51149
5.39051
5.26359
5.11966
4.96852
4.8236
4.67899
4.52648
4.37083
4.23308
4.10623
3.98688
3.8793
3.77421
3.66566
3.55673
3.45854
3.36812
3.26748
3.14583
3.03637
2.97998
3.00615
3.23792
3.6026
3.73129
3.72841
3.67652
3.60756
3.54057
3.48644
3.43641
3.38496
3.32636
3.28571
3.29121
3.36937
3.63251
3.94497
4.0595
4.04274
3.99189
3.93433
3.88832
3.85051
3.81138
3.76298
3.70355
3.66107
3.63815
3.62364
3.62335
3.622
3.60875
3.58305
3.55124
3.51414
3.4687
3.41997
3.37032
3.32959
3.30921
3.30756
3.35637
3.46978
3.53681
3.55094
3.54605
3.55084
3.53953
3.51486
3.48669
3.4571
3.44216
3.45443
3.51126
3.61474
3.73759
3.80495
3.80905
3.79334
3.7753
3.7574
3.74193
3.73392
3.69808
5.76712
5.66288
5.54827
5.42873
5.30017
5.15698
5.00915
4.8672
4.72625
4.57641
4.42174
4.29219
4.17266
4.04918
3.93471
3.82757
3.71988
3.61498
3.51499
3.41854
3.32239
3.21881
3.10163
2.99677
2.93043
2.94758
3.1518
3.45993
3.63395
3.64066
3.58065
3.5032
3.43391
3.37053
3.2994
3.25333
3.25156
3.30786
3.55721
3.89806
4.06439
4.05943
4.02037
3.96778
3.92242
3.88564
3.85354
3.81648
3.76287
3.69635
3.65979
3.63636
3.61985
3.60812
3.59405
3.57819
3.55713
3.52548
3.49102
3.45511
3.41612
3.37449
3.33347
3.30259
3.28974
3.29592
3.35537
3.45937
3.51316
3.5317
3.53205
3.51236
3.48115
3.44802
3.42464
3.42492
3.46085
3.56033
3.67946
3.78086
3.81863
3.82176
3.80541
3.78558
3.76227
3.72894
3.70504
3.65919
5.78296
5.69068
5.58339
5.4651
5.33367
5.19146
5.04646
4.90444
4.76238
4.6128
4.46255
4.33596
4.22026
4.09767
3.97835
3.86688
3.758
3.6558
3.55835
3.46383
3.37104
3.2735
3.16047
3.03617
2.92937
2.86502
2.88282
3.07385
3.35525
3.53099
3.51346
3.45163
3.38269
3.30059
3.23027
3.22326
3.26047
3.47436
3.84982
4.04936
4.07192
4.0488
4.00756
3.96442
3.93111
3.89845
3.86591
3.82547
3.75479
3.68482
3.64997
3.62452
3.60363
3.58155
3.55568
3.53309
3.5163
3.49438
3.46886
3.44311
3.41626
3.38791
3.35627
3.32253
3.29205
3.25937
3.25834
3.32866
3.44068
3.48877
3.49228
3.4707
3.43512
3.4144
3.41548
3.44841
3.54332
3.66535
3.75811
3.80753
3.83522
3.83472
3.81537
3.78821
3.75225
3.70852
3.66033
3.59363
5.78784
5.70745
5.6095
5.49575
5.3667
5.22571
5.08052
4.93538
4.78926
4.63802
4.49216
4.36742
4.24932
4.12369
3.99941
3.89337
3.79043
3.68984
3.59177
3.49597
3.40237
3.30837
3.2071
3.08772
2.9577
2.84877
2.79475
2.82235
2.98417
3.27594
3.40427
3.37854
3.31213
3.23215
3.19794
3.2288
3.40046
3.78607
4.04382
4.08633
4.07348
4.04146
4.00514
3.97941
3.95359
3.92124
3.88406
3.82048
3.73524
3.67567
3.64109
3.61297
3.58688
3.558
3.52736
3.50024
3.48021
3.46552
3.45004
3.43661
3.42984
3.41468
3.3892
3.35266
3.29891
3.23478
3.18309
3.20421
3.29186
3.40553
3.43994
3.42361
3.40287
3.40328
3.43504
3.52571
3.66142
3.76844
3.81968
3.83536
3.82666
3.81046
3.79119
3.76522
3.72541
3.66309
3.59178
3.5464
5.78318
5.7101
5.61871
5.50839
5.38255
5.24371
5.09951
4.95363
4.80497
4.65381
4.51214
4.38472
4.26202
4.13482
4.01042
3.90775
3.8114
3.71362
3.61787
3.5228
3.42776
3.33162
3.23241
3.12373
3.00097
2.8753
2.77876
2.73026
2.75067
2.8977
3.14825
3.26253
3.22478
3.19584
3.21108
3.34183
3.71784
4.01657
4.08322
4.08667
4.0754
4.04952
4.02679
4.00641
3.9754
3.93743
3.88213
3.80182
3.72148
3.67351
3.64242
3.61165
3.58079
3.54917
3.51594
3.48777
3.46788
3.45748
3.45108
3.43862
3.41898
3.39683
3.37311
3.34033
3.28583
3.20982
3.1554
3.13857
3.16825
3.26038
3.35349
3.37916
3.39178
3.42041
3.50441
3.64065
3.77527
3.84282
3.85111
3.83614
3.80979
3.78227
3.75591
3.72141
3.6694
3.60625
3.56441
3.54045
5.76943
5.69726
5.60877
5.5033
5.38505
5.24871
5.10622
4.96186
4.81423
4.66516
4.52428
4.39325
4.26571
4.13755
4.01743
3.91515
3.82361
3.72883
3.63454
3.54045
3.4458
3.34926
3.25011
3.14507
3.03226
2.91282
2.8025
2.71404
2.65444
2.6582
2.78947
3.02563
3.11825
3.18071
3.30902
3.62686
3.99372
4.11333
4.11758
4.10939
4.10433
4.08565
4.06208
4.02859
3.98741
3.93619
3.86891
3.78849
3.72257
3.68309
3.64871
3.61394
3.58108
3.54842
3.51661
3.49037
3.47235
3.46448
3.45257
3.42949
3.40251
3.37404
3.34462
3.311
3.2583
3.18748
3.1373
3.12295
3.1139
3.14732
3.24436
3.33697
3.40594
3.49943
3.63828
3.77764
3.86957
3.88221
3.86721
3.83948
3.80133
3.75723
3.71075
3.65727
3.60615
3.57887
3.56198
3.54523
5.75265
5.67022
5.57534
5.47209
5.36013
5.22734
5.08823
4.94728
4.80402
4.66197
4.52544
4.39532
4.26697
4.141
4.02429
3.92158
3.82934
3.73719
3.64396
3.55073
3.45592
3.35829
3.25908
3.15914
3.0574
2.95058
2.83607
2.72045
2.61905
2.55237
2.57323
2.71995
2.95837
3.2239
3.55669
3.94869
4.08315
4.11274
4.12095
4.12986
4.1315
4.11286
4.08236
4.04203
3.99095
3.92854
3.85499
3.78413
3.73428
3.69519
3.6556
3.61712
3.58313
3.55216
3.52387
3.49959
3.48365
3.47552
3.45486
3.42755
3.40011
3.37
3.33182
3.28068
3.21734
3.16144
3.12375
3.10621
3.09514
3.11123
3.17394
3.30081
3.45543
3.62748
3.7924
3.90255
3.91725
3.90346
3.87153
3.8347
3.78925
3.72779
3.654
3.59587
3.57254
3.56311
3.56256
3.57106
5.7546
5.67709
5.59046
5.49051
5.37816
5.2447
5.1055
4.96247
4.81651
4.67107
4.52982
4.39526
4.26584
4.14227
4.02923
3.92607
3.83141
3.74255
3.65005
3.55701
3.46173
3.36281
3.26306
3.16702
3.07402
2.97906
2.86342
2.73045
2.60402
2.50117
2.48096
2.53177
2.78431
3.26203
3.76873
4.21696
4.18811
4.14032
4.13393
4.15009
4.14644
4.12229
4.09173
4.05133
3.99521
3.92054
3.8451
3.78635
3.74114
3.69941
3.65672
3.6171
3.58327
3.5517
3.52192
3.49506
3.47676
3.46559
3.44188
3.41398
3.38607
3.35468
3.31222
3.2477
3.17835
3.13952
3.11658
3.09861
3.0854
3.10465
3.15074
3.28355
3.49936
3.7279
3.90556
3.97766
3.96598
3.93032
3.88087
3.8264
3.76409
3.68458
3.60784
3.57129
3.55742
3.54944
3.5625
3.60689
)
;

boundaryField
{
    inlet
    {
        type            calculated;
        value           uniform 1.40001;
    }
    outlet
    {
        type            calculated;
        value           nonuniform List<scalar> 
24
(
3.09426
3.11472
3.14321
3.22275
3.32738
3.46333
3.59749
3.67947
3.69944
3.69091
3.67172
3.66259
3.66599
3.68586
3.70515
3.70555
3.69818
3.66042
3.59633
3.54675
3.5404
3.54424
3.56782
3.6019
)
;
    }
    bottom
    {
        type            calculated;
        value           nonuniform List<scalar> 
24
(
176.729
15.5806
7.59587
7.59662
7.58002
7.56839
7.57039
7.605
7.65752
7.67943
7.67657
7.66477
7.65637
7.66718
7.72092
7.81961
7.93126
8.00443
8.02594
7.99859
7.93011
7.85256
7.79293
7.74496
)
;
    }
    top
    {
        type            calculated;
        value           nonuniform List<scalar> 
120
(
167.264
14.7878
6.87558
6.84208
6.79061
6.74019
6.7055
6.6923
6.68991
6.69119
6.68176
6.66121
6.6412
6.64281
6.6672
6.69122
6.69997
6.69439
6.67169
6.62693
6.56574
6.49939
6.43372
6.36763
6.29982
6.23078
6.16255
6.09611
6.03179
5.96693
5.89949
5.82839
5.7546
5.67709
5.59046
5.49051
5.37816
5.2447
5.1055
4.96247
4.81651
4.67107
4.52982
4.39526
4.26584
4.14227
4.02923
3.92607
3.83141
3.74255
3.65005
3.55701
3.46173
3.36281
3.26306
3.16702
3.07402
2.97906
2.86342
2.73045
2.60402
2.50117
2.48096
2.53177
2.78431
3.26203
3.76873
4.21696
4.18811
4.14032
4.13393
4.15009
4.14644
4.12229
4.09173
4.05133
3.99521
3.92054
3.8451
3.78635
3.74114
3.69941
3.65672
3.6171
3.58327
3.5517
3.52192
3.49506
3.47676
3.46559
3.44188
3.41398
3.38607
3.35468
3.31222
3.2477
3.17835
3.13952
3.11658
3.09861
3.0854
3.10465
3.15074
3.28355
3.49936
3.7279
3.90556
3.97766
3.96598
3.93032
3.88087
3.8264
3.76409
3.68458
3.60784
3.57129
3.55742
3.54944
3.5625
3.60689
)
;
    }
    obstacle
    {
        type            calculated;
        value           nonuniform List<scalar> 
112
(
7.74496
7.7682
7.80862
7.85045
7.88529
7.87167
7.80743
7.80869
6.18675
6.71681
6.93848
6.96679
6.88605
6.75529
6.65726
6.59248
6.59248
6.62219
6.66037
6.72193
6.79511
6.85172
6.83004
6.82511
2.15483
1.10502
0.71081
0.7312
0.907783
1.21039
1.62189
1.98886
2.29366
2.59473
2.89251
3.01111
3.26192
3.771
3.96729
4.05202
4.1218
4.18987
4.28226
4.40145
4.43628
4.40364
4.34983
4.28549
4.22138
4.15441
4.07474
3.97692
3.89933
3.84113
3.78141
3.71747
3.64587
3.57609
3.52279
3.48367
3.47329
3.47934
3.44857
3.40622
3.35958
3.30769
3.25385
3.20213
3.15311
3.10742
3.06584
3.0215
2.97305
2.91601
2.85053
2.83847
2.93636
3.22761
3.72877
4.06362
3.97429
3.90811
3.87448
3.86304
3.87344
3.87613
3.85408
3.82883
3.79862
3.75554
3.69993
3.64403
3.59099
3.53849
3.49621
3.46841
3.44897
3.43943
3.45338
3.48859
3.51338
3.5145
3.50332
3.48588
3.4624
3.41676
3.32705
3.23663
3.18644
3.15649
3.11766
3.09394
)
;
    }
    defaultFaces
    {
        type            empty;
    }
}


// ************************************************************************* //
