/*--------------------------------*- C++ -*----------------------------------*\
  =========                 |
  \\      /  F ield         | OpenFOAM: The Open Source CFD Toolbox
   \\    /   O peration     | Website:  https://openfoam.org
    \\  /    A nd           | Version:  7
     \\/     M anipulation  |
\*---------------------------------------------------------------------------*/
FoamFile
{
    version     2.0;
    format      ascii;
    class       volScalarField;
    location    "2.3";
    object      T;
}
// * * * * * * * * * * * * * * * * * * * * * * * * * * * * * * * * * * * * * //

dimensions      [0 0 0 1 0 0 0];

internalField   nonuniform List<scalar> 
4128
(
1
1
1
1
1
1
1
1
1
1
1
1
1
1
1
1
1
1.37198
2.52821
2.74133
2.76811
2.79415
2.80823
2.8187
1
1
1
1
1
1
1
1
1
1
1
1
1
1
1
1
1
1.32347
2.49785
2.73445
2.76162
2.78562
2.7957
2.79726
1
1
1
1
1
1
1
1
1
1
1
1
1
1
1
1
1
1.19391
2.42025
2.71792
2.74517
2.7642
2.76832
2.77642
1
1
1
1
1
1
1
1
1
1
1
1
1
1
1
1
1
1.01615
2.28458
2.68371
2.71603
2.73845
2.75515
2.79576
1
1
1
1
1
1
1
1
1
1
1
1
1
1
1
1
1
1.00011
2.09124
2.6227
2.67459
2.68908
2.66143
2.59188
1
1
1
1
1
1
1
1
1
1
1
1
1
1
1
1
1
0.999999
1.78556
2.52144
2.63132
2.62137
2.58417
2.47581
1
1
1
1
1
1
1
1
1
1
1
1
1
1
1
1
1
1
1.33006
2.33799
2.57729
2.55286
2.51341
2.38204
1
1
1
1
1
1
1
1
1
1
1
1
1
1
1
1
1
1
1.03098
2.12754
2.49641
2.47194
2.43908
2.32635
1
1
1
1
1
1
1
1
1
1
1
1
1
1
1
1
1
1
1.00013
1.68364
2.34418
2.43329
2.3842
2.29632
1
1
1
1
1
1
1
1
1
1
1
1
1
1
1
1
1
1
0.999999
1.13276
2.09765
2.38993
2.33361
2.26386
1
1
1
1
1
1
1
1
1
1
1
1
1
1
1
1
1
1
1
1.00385
1.66997
2.26923
2.26676
2.21657
1
1
1
1
1
1
1
1
1
1
1
1
1
1
1
1
1
1
1
1.00001
1.1412
2.00669
2.24469
2.18008
1
1
1
1
1
1
1
1
1
1
1
1
1
1
1
1
1
1
1
1
1.0044
1.487
2.07437
2.1516
1
1
1
1
1
1
1
1
1
1
1
1
1
1
1
1
1
1
1
1
1.00002
1.06905
1.76195
2.10254
1
1
1
1
1
1
1
1
1
1
1
1
1
1
1
1
1
1
1
1
1
1.00129
1.24332
1.86432
1
1
1
1
1
1
1
1
1
1
1
1
1
1
1
1
1
1
1
1
1
1.00001
1.01485
1.41081
1
1
1
1
1
1
1
1
1
1
1
1
1
1
1
1
1
1
1
1
1
1
1.00016
1.0525
1
1
1
1
1
1
1
1
1
1
1
1
1
1
1
1
1
1
1
1
1
1
1
1.00109
1
1
1
1
1
1
1
1
1
1
1
1
1
1
1
1
1
1
1
1
1
1
1
1.00001
1
1
1
1
1
1
1
1
1
1
1
1
1
1
1
1
1
1
1
1
1
1
1
1
1
1
1
1
1
1
1
1
1
1
1
1
1
1
1
1
1
1
1
1
1
1
1
1
1
1
1
1
1
1
1
1
1
1
1
1
1
1
1
1
1
1
1
1
1
1
1
1
1
1
1
1
1
1
1
1
1
1
1
1
1
1
1
1
1
1
1
1
1
1
1
1
1
1
1
1
1
1
1
1
1
1
1
1
1
1
1
1
1
1
1
1
1
1
1
1
1
1
1
1
1
1
1
1
1
1
1
1
1
1
1
1
1
1
1
1
1
1
1
1
1
1
1
1
1
1
1
1
1
1
1
1
1
1
1
1
1
1
1
1
1
1
1
1
1
1
1
1
1
1
1
1
1
1
1
1
1
1
1
1
1
1
1
1
1
1
1
1
1
1
1
1
1
1
1
1
1
1
1
1
1
1
1
1
1
1
1
1
1
1
1
1
1
1
1
1
1
1
1
1
1
1
1
1
1
1
1
1
1
1
1
1
1
1
1
1
1
1
1
1
1
1
1
1
1
1
1
1
1
1
1
1
1
1
1
1
1
1
1
1
1
1
1
1
1
1
1
1
1
1
1
1
1
1
1
1
1
1
1
1
1
1
1
1
1
1
1
1
1
1
1
1
1
1
1
1
1
1
1
1
1
1
1
1
1
1
1
1
1
1
1
1
1
1
1
1
1
1
1
1
1
1
1
1
1
1
1
1
1
1
1
1
1
1
1
1
1
1
1
1
1
1
1
1
1
1
1
1
1
1
1
1
1
1
1
1
1
1
1
1
1
1
1
1
1
1
1
1
1
1
1
1
1
1
1
1
1
1
1
1
1
1
1
1
1
1
1
1
1
1
1
1
1
1
1
1
1
1
1
1
1
1
1
1
1
1
1
1
1
1
1
1
1
1
1
1
1
1
1
1
1
1
1
1
1
1
1
1
1
1
1
1
1
1
1
1
1
1
1
1
1
1
1
1
1
1
1
1
1
1
1
1
1
1
1
1
1
1
1
1
1
1
1
1
1
1
1
1
1
1
1
1
1
1
1
1
1
1
1
1
1
1
1
1
1
1
1
1
1
1
1
1
1
1
1
1
1
1
1
1
1.84828
1.39236
1.32317
1.36752
1.39716
1.48845
1.56602
1.62898
1.68082
1.74762
1.7739
1.76677
1.76064
1.75394
2.04623
2.69902
2.78904
2.8116
2.83745
2.85499
2.86337
2.87047
2.8847
2.90291
2.06486
1.7509
1.65221
1.6038
1.5291
1.50711
1.48672
1.48265
1.50465
1.54627
1.59122
1.62257
1.64393
1.65455
1.91442
2.61242
2.75283
2.78965
2.8228
2.84486
2.85736
2.86678
2.87965
2.89017
2.14262
1.94404
1.7957
1.69637
1.60133
1.52117
1.48428
1.43686
1.41968
1.44031
1.47098
1.49837
1.5175
1.53047
1.65507
2.43306
2.67383
2.7365
2.78279
2.8142
2.83452
2.84686
2.85948
2.87984
2.16914
2.02186
1.89911
1.799
1.69648
1.60282
1.5524
1.50555
1.44973
1.43516
1.42767
1.42018
1.42267
1.43476
1.46814
2.21709
2.5919
2.66656
2.71567
2.75466
2.78586
2.81239
2.84484
2.90687
2.18629
2.07069
1.95884
1.86859
1.77508
1.69207
1.63265
1.57565
1.50829
1.45273
1.43042
1.41053
1.39737
1.40287
1.40933
1.91669
2.5197
2.60952
2.65433
2.69282
2.72214
2.74851
2.74171
2.70876
2.17938
2.08482
1.99298
1.91439
1.83014
1.75175
1.69608
1.63645
1.57984
1.52014
1.48597
1.46073
1.4235
1.41081
1.40676
1.51476
2.37348
2.55788
2.60084
2.63151
2.64921
2.66147
2.64173
2.56485
2.157
2.08455
2.00833
1.94332
1.87077
1.80011
1.74559
1.69185
1.6324
1.57904
1.53824
1.51031
1.47241
1.4355
1.40798
1.40986
2.09208
2.49892
2.5503
2.57705
2.58521
2.58045
2.55654
2.45568
2.13026
2.07664
2.01157
1.95425
1.89564
1.83257
1.77998
1.73105
1.67638
1.62766
1.58148
1.55121
1.51661
1.47278
1.44753
1.42437
1.63874
2.35807
2.49694
2.52565
2.52976
2.51668
2.48307
2.3926
2.10718
2.05779
2.00678
1.95755
1.9033
1.84791
1.80425
1.75715
1.70522
1.65887
1.61798
1.58562
1.55417
1.51098
1.48198
1.44714
1.45706
2.0724
2.40689
2.47514
2.47298
2.45842
2.42238
2.35305
2.08548
2.04114
1.99535
1.95292
1.90768
1.85659
1.81291
1.77373
1.72804
1.68271
1.64328
1.61279
1.58351
1.54213
1.51236
1.48847
1.45545
1.64286
2.223
2.4185
2.4181
2.40761
2.37588
2.32116
2.05013
2.02333
1.97955
1.93945
1.90015
1.85665
1.81605
1.78061
1.74026
1.69776
1.66325
1.63588
1.60378
1.56467
1.53285
1.51745
1.47523
1.48223
1.94663
2.29528
2.35451
2.34044
2.31691
2.27855
1.87781
1.99779
1.96712
1.92659
1.89001
1.85114
1.81554
1.7841
1.75035
1.70908
1.67719
1.65051
1.62123
1.58196
1.55359
1.5385
1.50582
1.47039
1.60512
2.08083
2.2797
2.27254
2.26415
2.24106
1.5256
1.8663
1.95015
1.91987
1.8804
1.84394
1.81171
1.78165
1.75087
1.71625
1.68537
1.6594
1.63148
1.59479
1.56557
1.55151
1.52831
1.48111
1.48769
1.79264
2.12335
2.22604
2.21046
2.18971
1.11054
1.58405
1.84274
1.90708
1.87949
1.83648
1.80483
1.77791
1.74961
1.71585
1.68979
1.66363
1.63675
1.60323
1.57716
1.56228
1.5404
1.50005
1.48048
1.54631
1.90997
2.14514
2.14857
2.13062
1.00394
1.16683
1.6034
1.8136
1.86683
1.83835
1.8003
1.77043
1.74406
1.71594
1.68834
1.66451
1.64352
1.60886
1.58376
1.56752
1.55089
1.51943
1.48627
1.48965
1.6444
1.96883
2.09822
2.08215
1.00003
1.00884
1.20646
1.60162
1.78191
1.82646
1.80269
1.76872
1.73665
1.7123
1.68867
1.66529
1.64284
1.61601
1.58905
1.57229
1.55566
1.52795
1.49808
1.48523
1.5035
1.74486
1.96686
2.04562
1
1.00009
1.01446
1.22673
1.58944
1.74741
1.79173
1.77145
1.73781
1.70671
1.68282
1.6633
1.64429
1.61816
1.59198
1.57624
1.55904
1.53305
1.50763
1.49178
1.4814
1.54044
1.79384
1.95485
1
1
1.00019
1.01869
1.2327
1.56834
1.71706
1.7581
1.74016
1.711
1.68203
1.65527
1.63816
1.61886
1.59632
1.57937
1.56369
1.53456
1.51227
1.50065
1.4778
1.47904
1.58441
1.80658
1
1
1
1.00029
1.02085
1.22708
1.54636
1.68664
1.7274
1.71339
1.68377
1.65825
1.64023
1.6157
1.59007
1.57783
1.56446
1.54157
1.51537
1.50741
1.4883
1.46235
1.47506
1.61549
1
1
1
1
1.00035
1.02085
1.21422
1.51647
1.65764
1.70032
1.68892
1.65999
1.63904
1.6177
1.5933
1.57848
1.56309
1.5389
1.51798
1.51125
1.49916
1.46433
1.4551
1.4828
1
1
1
1
1
1.00035
1.01904
1.19405
1.48825
1.63143
1.6732
1.66539
1.64551
1.61842
1.59134
1.57877
1.56407
1.54351
1.51934
1.50957
1.49871
1.47474
1.45178
1.45495
1
1
1
1
1
1
1.00032
1.01609
1.16918
1.45363
1.59523
1.64962
1.64782
1.62856
1.59666
1.57815
1.56408
1.54242
1.52223
1.51381
1.5017
1.48028
1.45574
1.44653
1
1
1
1
1
1
1
1.00027
1.01185
1.14754
1.39885
1.56611
1.63342
1.63199
1.61105
1.58581
1.56952
1.54415
1.52515
1.5144
1.50115
1.48287
1.46331
1.45208
1
1
1
1
1
1
1
1
1.00017
1.00946
1.11375
1.34115
1.55146
1.61406
1.60808
1.59778
1.58232
1.54943
1.52871
1.51505
1.50194
1.4839
1.46873
1.4608
1
1
1
1
1
1
1
1
1
1.00012
1.00622
1.07513
1.31367
1.52207
1.57703
1.59312
1.5887
1.56428
1.53565
1.5187
1.50626
1.48389
1.47527
1.46815
1
1
1
1
1
1
1
1
1
1
1.00007
1.00327
1.05719
1.27898
1.46503
1.55158
1.58221
1.57517
1.55049
1.53282
1.51798
1.48936
1.4798
1.47188
1
1
1
1
1
1
1
1
1
1
1
1.00003
1.00204
1.04324
1.21832
1.40227
1.53414
1.5702
1.56608
1.55116
1.53444
1.50522
1.48752
1.47437
1
1
1
1
1
1
1
1
1
1
1
1
1.00002
1.00122
1.02595
1.13944
1.36103
1.52119
1.54411
1.54882
1.54425
1.52166
1.49692
1.47962
1
1
1
1
1
1
1
1
1
1
1
1
1
1.00001
1.00054
1.01078
1.09774
1.33853
1.46942
1.5219
1.5402
1.53246
1.5105
1.49338
1
1
1
1
1
1
1
1
1
1
1
1
1
1
1
1.00018
1.00587
1.08075
1.27878
1.40872
1.5007
1.52967
1.52788
1.51549
1
1
1
1
1
1
1
1
1
1
1
1
1
1
1
1
1.00009
1.00392
1.05269
1.18026
1.35389
1.49363
1.51273
1.50965
1
1
1
1
1
1
1
1
1
1
1
1
1
1
1
1
1
1.00004
1.00172
1.01997
1.1111
1.3288
1.46441
1.4911
1
1
1
1
1
1
1
1
1
1
1
1
1
1
1
1
1
1
1.00001
1.0004
1.00844
1.08568
1.28952
1.4126
1
1
1
1
1
1
1
1
1
1
1
1
1
1
1
1
1
1
1
1
1.00016
1.00535
1.06163
1.20922
1
1
1
1
1
1
1
1
1
1
1
1
1
1
1
1
1
1
1
1
1
1.00008
1.00251
1.02914
1
1
1
1
1
1
1
1
1
1
1
1
1
1
1
1
1
1
1
1
1
1
1.00002
1.00071
2.01843
1.62632
1.5555
1.62739
1.75591
1.87157
1.97853
2.0317
2.0348
2.03081
2.03861
2.05263
2.0476
2.04576
2.04626
2.04298
2.03281
2.0163
1.99608
1.98502
1.98224
1.98275
1.98727
1.98992
1.98856
1.98261
1.97422
1.96342
1.95333
1.94741
1.94347
1.94282
1.94513
1.94549
1.94233
1.93748
1.92984
1.92136
1.91695
1.91376
1.91072
1.90644
1.90183
1.93856
2.67565
3.03166
2.99672
2.96262
2.92368
2.89218
2.86712
2.84778
2.83501
2.82079
2.80663
2.79065
2.76835
2.74046
2.71522
2.6932
2.67535
2.66262
2.65826
2.65959
2.65824
2.64261
2.6228
2.59863
2.57405
2.5541
2.53687
2.51083
2.20274
2.00331
1.82471
1.78599
1.78622
1.77837
1.78884
1.81644
1.85038
1.88686
1.92259
1.94826
1.96463
1.97653
1.98054
1.98174
1.97867
1.97221
1.96426
1.95995
1.95863
1.95893
1.96117
1.9605
1.95667
1.95112
1.94528
1.93898
1.93323
1.92954
1.92672
1.92589
1.92593
1.92377
1.92064
1.91633
1.91036
1.90463
1.90148
1.89873
1.89443
1.88864
1.90451
2.02351
2.54677
2.91382
2.9105
2.88802
2.8539
2.82941
2.80981
2.8002
2.78973
2.77316
2.75857
2.74687
2.73801
2.72356
2.70458
2.68189
2.65726
2.63712
2.62171
2.61246
2.60643
2.59658
2.58492
2.57194
2.55806
2.54408
2.53129
2.50744
2.24368
2.09901
1.96641
1.84013
1.77497
1.72715
1.6762
1.68233
1.70978
1.75154
1.78851
1.81648
1.84877
1.86917
1.88083
1.89425
1.89756
1.8921
1.88755
1.88767
1.88821
1.88916
1.88999
1.89039
1.88937
1.88465
1.87809
1.87488
1.87453
1.87462
1.87541
1.87652
1.87521
1.87353
1.87126
1.86615
1.85966
1.85709
1.85504
1.85283
1.84876
1.86531
1.9611
2.15951
2.33025
2.61094
2.73111
2.76201
2.75045
2.72809
2.70732
2.69433
2.68099
2.66921
2.65722
2.64624
2.64001
2.63576
2.62703
2.61422
2.59961
2.58127
2.5595
2.53686
2.51806
2.50389
2.49486
2.48969
2.48458
2.47792
2.47083
2.45469
2.25322
2.13313
2.03716
1.91574
1.82279
1.77991
1.71288
1.67125
1.6621
1.66414
1.66961
1.68869
1.72393
1.75413
1.77131
1.78981
1.8063
1.81118
1.81226
1.81443
1.8145
1.81178
1.80989
1.81094
1.81218
1.80899
1.80411
1.80308
1.80275
1.80377
1.80484
1.80426
1.80339
1.80332
1.80296
1.79952
1.79541
1.79418
1.79225
1.79014
1.80277
1.89131
2.07832
2.22589
2.21386
2.27551
2.42785
2.54462
2.59049
2.61146
2.59308
2.5684
2.5463
2.53816
2.53046
2.52269
2.51716
2.51008
2.50038
2.49073
2.48102
2.46998
2.45889
2.44525
2.42851
2.41125
2.39718
2.38754
2.38104
2.37496
2.36994
2.35926
2.2578
2.15806
2.07379
1.9826
1.88087
1.82436
1.76992
1.70263
1.66947
1.64556
1.6287
1.63324
1.64642
1.6696
1.68802
1.70405
1.72461
1.74374
1.75662
1.76814
1.77112
1.76811
1.76228
1.75612
1.75164
1.74532
1.74175
1.74204
1.74303
1.7467
1.74837
1.74745
1.74595
1.74384
1.73994
1.73516
1.73372
1.73264
1.73294
1.7451
1.81405
2.01859
2.14457
2.17752
2.15692
2.13957
2.17621
2.28268
2.38678
2.46134
2.48252
2.48069
2.45945
2.43808
2.42148
2.41059
2.40324
2.39412
2.38488
2.37453
2.36358
2.35253
2.34206
2.33291
2.32307
2.311
2.29681
2.28395
2.27489
2.26817
2.26488
2.25712
2.24916
2.16823
2.09266
2.01966
1.93682
1.87109
1.8207
1.75713
1.70803
1.67996
1.64111
1.62106
1.61744
1.61267
1.61555
1.62889
1.65661
1.68594
1.70489
1.71661
1.72422
1.73013
1.72971
1.72543
1.71752
1.71118
1.70601
1.70324
1.70335
1.70582
1.70868
1.70842
1.70682
1.70283
1.69608
1.69126
1.68902
1.68853
1.69937
1.76191
1.93684
2.10654
2.14188
2.13537
2.11302
2.08648
2.08658
2.09153
2.143
2.24718
2.31927
2.35771
2.37316
2.36489
2.34698
2.32466
2.30744
2.29653
2.28539
2.27488
2.26644
2.25877
2.25249
2.24402
2.23281
2.22115
2.20703
2.19053
2.17699
2.16875
2.16439
2.15667
2.22595
2.16374
2.10323
2.03985
1.97166
1.91135
1.85856
1.80252
1.74949
1.71226
1.66975
1.62104
1.60204
1.59201
1.58693
1.59074
1.60352
1.62713
1.64914
1.66477
1.67676
1.68792
1.69485
1.69687
1.69548
1.69385
1.68886
1.68315
1.67916
1.67876
1.67967
1.67931
1.67675
1.67206
1.66645
1.66243
1.66129
1.66775
1.73253
1.89776
2.05653
2.12013
2.10778
2.0918
2.07102
2.04423
2.02974
2.02581
2.00599
2.01995
2.08533
2.16966
2.23108
2.25434
2.26914
2.26041
2.24277
2.22987
2.20838
2.19213
2.18423
2.17778
2.17194
2.16624
2.15687
2.14548
2.13224
2.11541
2.09868
2.08674
2.07951
2.06882
2.20266
2.1514
2.09954
2.04531
1.98723
1.93499
1.88444
1.82997
1.7823
1.74523
1.70565
1.65286
1.61996
1.60692
1.5898
1.57901
1.58064
1.57918
1.58121
1.59426
1.61503
1.637
1.65222
1.66249
1.66693
1.67072
1.67014
1.66723
1.66284
1.6583
1.65579
1.65298
1.64875
1.64555
1.64233
1.64247
1.65011
1.70402
1.88339
2.02915
2.08271
2.07628
2.06017
2.04694
2.03223
2.01093
1.98747
1.96795
1.94365
1.93053
1.90387
1.92716
1.99928
2.07408
2.12416
2.15481
2.16052
2.15953
2.14777
2.13243
2.11963
2.1069
2.09596
2.08868
2.08052
2.06964
2.0588
2.04593
2.03158
2.01935
2.00979
1.9962
2.16045
2.1205
2.07874
2.03554
1.98515
1.93996
1.89717
1.8473
1.80066
1.76697
1.72932
1.68427
1.6452
1.6251
1.59983
1.57028
1.56157
1.55554
1.55053
1.54719
1.55334
1.57093
1.59165
1.61218
1.62448
1.63263
1.64074
1.64423
1.64284
1.63847
1.63279
1.62697
1.62102
1.61838
1.61958
1.63235
1.69668
1.85713
2.01919
2.0516
2.05014
2.03293
2.01913
2.00742
1.99168
1.97033
1.93852
1.90894
1.88257
1.86153
1.84265
1.83305
1.81611
1.84363
1.90591
1.98147
2.02022
2.03804
2.05464
2.05705
2.05822
2.05047
2.03874
2.02682
2.01246
1.99674
1.98569
1.97628
1.96638
1.95633
1.94799
1.93447
2.10818
2.07992
2.04684
2.01497
1.9767
1.93657
1.9001
1.85508
1.81095
1.77949
1.74685
1.70391
1.66716
1.6464
1.62114
1.58568
1.56132
1.55295
1.53812
1.52225
1.51995
1.52043
1.52689
1.54268
1.56764
1.58467
1.59819
1.60691
1.61115
1.60937
1.60682
1.60272
1.59539
1.5945
1.6048
1.68648
1.83913
1.97272
2.03469
2.02226
2.01608
2.00397
1.98183
1.96102
1.94379
1.91761
1.88654
1.85638
1.82965
1.80637
1.78899
1.77293
1.75704
1.74229
1.7273
1.75392
1.80646
1.86094
1.91361
1.93651
1.95116
1.96597
1.97059
1.96674
1.95743
1.94373
1.92818
1.91582
1.9043
1.89369
1.88811
1.87724
2.05932
2.03843
2.01393
1.98596
1.95564
1.92314
1.89124
1.85203
1.80885
1.7791
1.75259
1.71499
1.67703
1.65608
1.63275
1.59944
1.56607
1.54915
1.5285
1.50312
1.49195
1.49077
1.49268
1.49695
1.50742
1.52456
1.54185
1.55457
1.56195
1.5658
1.57126
1.5708
1.57087
1.58222
1.64976
1.833
1.93292
1.98744
1.9881
1.98008
1.97526
1.96475
1.94205
1.91656
1.8966
1.86813
1.83692
1.80822
1.78239
1.76056
1.7452
1.73087
1.70825
1.68705
1.66987
1.65189
1.64107
1.65591
1.70053
1.7589
1.80754
1.8482
1.86382
1.86902
1.88126
1.8863
1.87973
1.87113
1.86051
1.84764
1.83644
1.82242
2.02717
2.00273
1.9814
1.95638
1.92794
1.90109
1.87177
1.83844
1.80259
1.77642
1.74994
1.71628
1.68152
1.6622
1.63964
1.60774
1.5715
1.5541
1.53664
1.50889
1.48845
1.48536
1.47781
1.46911
1.46913
1.47064
1.47386
1.48441
1.49841
1.51445
1.52239
1.52917
1.55384
1.63266
1.79321
1.92883
1.94211
1.94312
1.9372
1.93944
1.93786
1.92715
1.90322
1.87165
1.84072
1.81172
1.78591
1.76185
1.73977
1.72149
1.7043
1.68343
1.66262
1.64224
1.62394
1.60768
1.59647
1.58137
1.56672
1.5755
1.60557
1.65861
1.70892
1.74401
1.7785
1.79611
1.80052
1.80939
1.81479
1.80952
1.79785
1.77816
1.99516
1.97637
1.95337
1.92948
1.90219
1.87728
1.85114
1.82056
1.78808
1.76692
1.74409
1.71404
1.68034
1.66116
1.6403
1.61098
1.57423
1.55697
1.54168
1.51664
1.49058
1.48107
1.46979
1.45395
1.43969
1.43667
1.43561
1.43481
1.43988
1.45322
1.4711
1.50473
1.61908
1.7616
1.89557
1.91087
1.90604
1.90989
1.91626
1.91382
1.90391
1.88897
1.85878
1.82475
1.79099
1.7626
1.73907
1.71823
1.70082
1.68061
1.65865
1.63751
1.61953
1.60294
1.58676
1.57334
1.55941
1.54618
1.53402
1.51553
1.49773
1.49739
1.51472
1.55482
1.60979
1.66563
1.70112
1.72361
1.74089
1.7433
1.74074
1.73579
1.94049
1.93989
1.92477
1.90145
1.87652
1.85379
1.83054
1.80459
1.77537
1.75421
1.73151
1.70563
1.67661
1.65875
1.63913
1.61098
1.57395
1.55708
1.54562
1.525
1.49668
1.48421
1.47276
1.45467
1.43073
1.42212
1.41396
1.40654
1.40824
1.41868
1.45333
1.55761
1.73675
1.83304
1.87699
1.86414
1.85931
1.86497
1.87223
1.86846
1.85841
1.84802
1.82153
1.78445
1.75017
1.72362
1.70186
1.68339
1.66378
1.63959
1.61631
1.59526
1.58033
1.56703
1.55429
1.54141
1.52629
1.51419
1.50197
1.48545
1.46831
1.45364
1.44121
1.43515
1.44699
1.48321
1.53601
1.58259
1.62784
1.65681
1.66834
1.67552
1.81132
1.90306
1.89722
1.87526
1.84924
1.82993
1.81284
1.7875
1.76092
1.74173
1.7231
1.69727
1.66711
1.65121
1.63448
1.61057
1.57597
1.55738
1.54641
1.52756
1.5002
1.48631
1.47567
1.45694
1.42823
1.41122
1.39949
1.39003
1.39269
1.42859
1.53034
1.69024
1.80714
1.80904
1.80458
1.80023
1.80022
1.80662
1.81466
1.81063
1.79654
1.77844
1.75382
1.72535
1.70511
1.69069
1.677
1.65719
1.63263
1.60624
1.58059
1.56009
1.54742
1.53602
1.52463
1.50994
1.49627
1.48544
1.47243
1.45803
1.44433
1.43076
1.41739
1.40614
1.3956
1.38881
1.39462
1.41535
1.44894
1.49929
1.54592
1.59403
1.63824
1.79839
1.86719
1.85668
1.83056
1.80677
1.79036
1.77082
1.74842
1.7282
1.71005
1.68706
1.66068
1.64303
1.62727
1.60497
1.57338
1.55695
1.54715
1.53018
1.50205
1.48651
1.47591
1.45817
1.43394
1.4127
1.39871
1.40027
1.43272
1.5547
1.67941
1.76821
1.75867
1.74697
1.74921
1.75434
1.75859
1.7616
1.75445
1.74122
1.72105
1.70289
1.68449
1.66532
1.65004
1.64603
1.63871
1.61751
1.59507
1.57273
1.54955
1.53316
1.52226
1.51156
1.49866
1.48362
1.47042
1.45738
1.4416
1.43139
1.42203
1.41107
1.40002
1.38859
1.37468
1.36014
1.35255
1.34782
1.34552
1.35372
1.37826
1.45536
1.49522
1.64872
1.77501
1.8301
1.81885
1.79524
1.77388
1.75138
1.7307
1.71575
1.69962
1.67791
1.65005
1.63522
1.62026
1.60051
1.57078
1.55422
1.54531
1.52919
1.50387
1.48751
1.47609
1.45887
1.43646
1.41673
1.42004
1.45686
1.58634
1.70636
1.7505
1.74358
1.72299
1.71419
1.72403
1.72939
1.72606
1.7149
1.69516
1.666
1.64162
1.62559
1.61413
1.60472
1.59346
1.58935
1.58363
1.5674
1.55187
1.53559
1.51554
1.50198
1.49536
1.48833
1.47586
1.46168
1.44745
1.43148
1.41624
1.4076
1.40065
1.39237
1.38258
1.37249
1.35897
1.34096
1.33067
1.32593
1.3213
1.31833
1.31284
1.32629
1.45034
1.50378
1.65178
1.75081
1.79744
1.78598
1.76376
1.74081
1.71724
1.69923
1.68436
1.66656
1.64473
1.62695
1.61222
1.59333
1.56575
1.55096
1.54266
1.52758
1.50309
1.48593
1.47198
1.45932
1.44218
1.44835
1.51151
1.62287
1.75607
1.75591
1.74125
1.71968
1.70789
1.70955
1.71997
1.71678
1.70287
1.67947
1.65165
1.62336
1.59697
1.57656
1.56122
1.54891
1.53836
1.53352
1.52851
1.51582
1.50397
1.49175
1.47875
1.46794
1.46264
1.4599
1.45044
1.4378
1.42359
1.40905
1.39857
1.39047
1.38244
1.37309
1.36397
1.35473
1.34277
1.32651
1.31468
1.30993
1.30723
1.3013
1.29387
1.28474
1.43739
1.44227
1.51063
1.64601
1.72766
1.76803
1.75645
1.73366
1.70553
1.68872
1.67288
1.65357
1.63277
1.62066
1.60495
1.58617
1.56199
1.54616
1.53925
1.52404
1.50128
1.48247
1.47055
1.4645
1.48332
1.57803
1.69733
1.77588
1.77425
1.75685
1.72828
1.71086
1.71284
1.71452
1.71342
1.70329
1.68171
1.65548
1.62594
1.59532
1.5683
1.54819
1.52983
1.51301
1.4999
1.48574
1.47351
1.46293
1.45542
1.44728
1.44186
1.43276
1.42245
1.41943
1.41453
1.40341
1.39329
1.38903
1.3842
1.37691
1.36563
1.35095
1.33673
1.32861
1.32354
1.31604
1.30653
1.29862
1.29159
1.28306
1.27684
1.26657
1.44258
1.42661
1.43676
1.51458
1.63334
1.70515
1.74134
1.73156
1.70509
1.67944
1.66236
1.64424
1.62463
1.61077
1.59579
1.58183
1.55786
1.54544
1.53419
1.5189
1.49706
1.48143
1.48746
1.52764
1.63426
1.75472
1.80104
1.79699
1.78084
1.76061
1.73546
1.73019
1.72803
1.72133
1.70932
1.68809
1.66338
1.63808
1.61179
1.58265
1.55422
1.53033
1.51072
1.49196
1.47395
1.45632
1.43944
1.42928
1.42454
1.42007
1.41198
1.39884
1.38247
1.37187
1.36847
1.36291
1.35813
1.35854
1.36007
1.35679
1.34599
1.33226
1.31913
1.30817
1.303
1.30052
1.29614
1.28908
1.27823
1.2692
1.26435
1.25499
1.45187
1.42185
1.42183
1.43596
1.50988
1.62164
1.68262
1.71343
1.70245
1.67914
1.65747
1.63409
1.61689
1.60495
1.59155
1.57579
1.55391
1.54119
1.52712
1.51465
1.50143
1.51235
1.58732
1.69872
1.79971
1.81026
1.79958
1.78079
1.76597
1.75318
1.74799
1.74769
1.73904
1.72494
1.70219
1.67561
1.64847
1.62254
1.59815
1.57347
1.54808
1.52361
1.5019
1.48131
1.46164
1.44196
1.42274
1.40997
1.40252
1.39647
1.38938
1.38119
1.36487
1.34002
1.32869
1.32641
1.3234
1.32349
1.32619
1.32754
1.32252
1.31019
1.29768
1.28831
1.27984
1.27521
1.27206
1.26746
1.26298
1.25819
1.25301
1.2451
1.45842
1.43253
1.41791
1.4198
1.43293
1.50974
1.60841
1.65901
1.68721
1.67634
1.65743
1.63268
1.61215
1.59939
1.5862
1.57038
1.55001
1.53687
1.52353
1.52675
1.5603
1.66144
1.77083
1.82937
1.83604
1.82153
1.79566
1.77576
1.76133
1.76604
1.76438
1.75776
1.74203
1.71854
1.6914
1.66354
1.637
1.61207
1.5885
1.56546
1.5427
1.52107
1.50047
1.47949
1.45783
1.43796
1.41818
1.4019
1.39166
1.38189
1.37283
1.36533
1.35411
1.33084
1.30609
1.30007
1.2984
1.29594
1.29416
1.29248
1.28698
1.27787
1.27252
1.26526
1.25534
1.25124
1.24876
1.24507
1.24033
1.2366
1.2371
1.23351
1.45949
1.43983
1.42509
1.41748
1.41853
1.43517
1.51195
1.5893
1.63564
1.66351
1.65537
1.63695
1.61642
1.59857
1.58223
1.55772
1.54655
1.5411
1.55684
1.63664
1.74916
1.8505
1.84915
1.82903
1.8088
1.78769
1.77441
1.77407
1.7866
1.78834
1.77839
1.76008
1.73449
1.70636
1.67741
1.64997
1.62502
1.60163
1.57976
1.55939
1.53968
1.52079
1.50249
1.48221
1.45801
1.43436
1.41392
1.39905
1.38854
1.37773
1.36567
1.35589
1.34524
1.32653
1.29907
1.287
1.2831
1.27605
1.27179
1.26965
1.26571
1.25834
1.25161
1.24323
1.2314
1.22477
1.222
1.21723
1.21269
1.21184
1.21533
1.21485
1.46422
1.44475
1.43696
1.42718
1.41426
1.41297
1.4346
1.49967
1.57004
1.61762
1.64635
1.63982
1.61982
1.59708
1.58101
1.56179
1.56603
1.61299
1.72265
1.83555
1.89898
1.8969
1.86819
1.82351
1.78839
1.76888
1.77118
1.78492
1.80558
1.80196
1.78466
1.75873
1.72773
1.69532
1.6648
1.63758
1.61364
1.59214
1.57253
1.55439
1.53692
1.51981
1.50256
1.48313
1.45988
1.43617
1.41478
1.39743
1.3857
1.37479
1.36325
1.35377
1.3446
1.32832
1.29894
1.28188
1.27611
1.26848
1.26099
1.25676
1.25145
1.24377
1.23756
1.22919
1.21565
1.20349
1.19822
1.19279
1.18685
1.18496
1.18807
1.19111
1.47468
1.45218
1.44772
1.43887
1.41907
1.40479
1.40692
1.42977
1.48776
1.56109
1.60338
1.62548
1.61801
1.60225
1.59282
1.62176
1.71783
1.81906
1.89667
1.8956
1.88822
1.86639
1.83935
1.81417
1.79461
1.79149
1.79633
1.81195
1.81202
1.80032
1.77795
1.75056
1.7192
1.68625
1.65567
1.62887
1.60564
1.58498
1.56598
1.54857
1.53226
1.5162
1.49982
1.48131
1.45877
1.4359
1.41723
1.40198
1.38918
1.3776
1.36467
1.35147
1.33952
1.32412
1.29918
1.28121
1.27421
1.2664
1.25646
1.25146
1.24677
1.23892
1.23
1.21916
1.20474
1.19135
1.18355
1.17771
1.16945
1.16489
1.16532
1.16625
1.49427
1.47047
1.46027
1.44812
1.42915
1.40296
1.40343
1.40663
1.42551
1.48644
1.55148
1.58693
1.60591
1.64022
1.72157
1.83077
1.91388
1.94376
1.9351
1.90424
1.86602
1.83576
1.82007
1.81716
1.82163
1.82598
1.82947
1.82606
1.81209
1.79111
1.76622
1.74049
1.71232
1.68137
1.6512
1.62473
1.6024
1.58282
1.56409
1.54571
1.52786
1.5103
1.49267
1.47393
1.45208
1.43044
1.41519
1.40244
1.39034
1.38057
1.3701
1.35757
1.34403
1.32554
1.29727
1.27593
1.26988
1.26647
1.26028
1.25288
1.24564
1.23622
1.22611
1.21588
1.20186
1.18598
1.1758
1.16877
1.16068
1.15298
1.15142
1.14833
1.50611
1.49142
1.47227
1.45629
1.43971
1.41657
1.40298
1.39793
1.40095
1.42447
1.48781
1.5547
1.69318
1.83718
1.93234
1.96526
1.95207
1.936
1.91486
1.88893
1.85859
1.83769
1.83938
1.84724
1.85915
1.855
1.84321
1.82664
1.80497
1.7806
1.75572
1.73148
1.70594
1.67747
1.64812
1.62142
1.59874
1.57939
1.56176
1.54427
1.52632
1.50808
1.48997
1.47146
1.45016
1.42477
1.40803
1.39796
1.388
1.3786
1.36944
1.35822
1.34555
1.32974
1.30441
1.27996
1.2718
1.26549
1.25603
1.2471
1.24183
1.23816
1.23197
1.2195
1.20228
1.18431
1.17347
1.16642
1.15769
1.14774
1.14286
1.13678
1.49781
1.4961
1.48115
1.4671
1.45213
1.43081
1.41595
1.40088
1.39911
1.4138
1.49487
1.68866
1.88353
1.98763
2.02839
2.01331
1.96677
1.92343
1.89501
1.87812
1.86634
1.86824
1.88193
1.88894
1.88581
1.86859
1.84404
1.82017
1.79598
1.77087
1.74514
1.71963
1.69396
1.66808
1.64184
1.61532
1.59169
1.57291
1.55685
1.54168
1.52643
1.50966
1.49026
1.46763
1.44512
1.42657
1.41035
1.39694
1.38546
1.37645
1.36834
1.35838
1.34595
1.32919
1.3018
1.27864
1.27106
1.26383
1.25532
1.24892
1.24456
1.23778
1.22562
1.21182
1.20176
1.18925
1.1743
1.16253
1.15574
1.14746
1.13955
1.12992
1.46169
1.4855
1.49197
1.48797
1.47121
1.44944
1.43131
1.42348
1.45566
1.55361
1.70568
1.83618
1.89748
1.95143
1.99367
1.99073
1.96595
1.92061
1.89346
1.88706
1.89466
1.91455
1.92688
1.91964
1.8976
1.86767
1.83886
1.8126
1.7877
1.76309
1.73847
1.71398
1.68845
1.66232
1.63537
1.60797
1.58661
1.57195
1.55825
1.5444
1.53114
1.51637
1.49714
1.47346
1.44628
1.42131
1.40628
1.39626
1.38694
1.37852
1.3706
1.36092
1.34763
1.32929
1.30736
1.291
1.2824
1.27542
1.26703
1.25732
1.24697
1.23612
1.22435
1.21287
1.19936
1.18388
1.16989
1.16025
1.1528
1.14215
1.13478
1.12535
1.33762
1.44211
1.48487
1.48066
1.4727
1.47158
1.48929
1.55583
1.67459
1.77682
1.84935
1.85498
1.8542
1.86728
1.89964
1.92389
1.91986
1.91551
1.91144
1.9175
1.93458
1.95389
1.95298
1.93419
1.89888
1.86091
1.82898
1.80288
1.77881
1.75448
1.72985
1.70546
1.67984
1.65349
1.63011
1.60793
1.58529
1.56808
1.55332
1.53912
1.52549
1.51068
1.49206
1.46974
1.44564
1.42369
1.40708
1.39518
1.38555
1.37724
1.36882
1.35851
1.34593
1.33108
1.3124
1.28712
1.27215
1.26752
1.26215
1.25429
1.24538
1.23538
1.22471
1.21288
1.19943
1.18506
1.17164
1.16109
1.15177
1.14139
1.13498
1.12524
1.11259
1.27589
1.41665
1.4723
1.53574
1.59965
1.67786
1.76649
1.80448
1.83697
1.83516
1.81814
1.79205
1.78567
1.80543
1.84418
1.8774
1.91702
1.94903
1.96432
1.97085
1.96751
1.95108
1.92223
1.88726
1.85115
1.81904
1.79215
1.76893
1.74672
1.72429
1.70177
1.67914
1.65593
1.62891
1.60445
1.5906
1.57629
1.56007
1.54398
1.52899
1.51352
1.49417
1.47169
1.45314
1.43505
1.41688
1.40391
1.39471
1.38655
1.37751
1.3666
1.35415
1.33992
1.31919
1.29015
1.26927
1.26393
1.26149
1.25868
1.25248
1.24444
1.23534
1.2247
1.21229
1.19767
1.18306
1.17098
1.16081
1.15138
1.14429
1.1326
1.00832
1.07469
1.26349
1.49846
1.66726
1.81557
1.92361
1.98593
1.96852
1.9171
1.84533
1.7909
1.75428
1.73565
1.74433
1.77642
1.84834
1.92824
1.97857
2.01206
2.00671
1.98634
1.9513
1.91412
1.87901
1.84598
1.81552
1.78773
1.76302
1.74224
1.72465
1.7066
1.68381
1.65511
1.62736
1.60503
1.58385
1.56438
1.54629
1.52871
1.51206
1.49747
1.48614
1.47489
1.4555
1.42751
1.40478
1.39087
1.3815
1.37341
1.36457
1.35384
1.34127
1.32738
1.31255
1.29317
1.27374
1.2646
1.25799
1.25003
1.2417
1.23317
1.2239
1.21379
1.20249
1.1883
1.17302
1.16005
1.14841
1.1388
1.13269
1.12195
)
;

boundaryField
{
    inlet
    {
        type            fixedValue;
        value           uniform 1;
    }
    outlet
    {
        type            inletOutlet;
        inletValue      uniform 1;
        value           nonuniform List<scalar> 
32
(
2.51009
2.50654
2.45507
2.3601
2.25792
2.15738
2.06918
1.99635
1.93436
1.87692
1.82205
1.77759
1.73536
1.67462
1.5924
1.45364
1.32547
1.2851
1.26683
1.25522
1.24586
1.23387
1.21538
1.1917
1.1669
1.14918
1.13766
1.13045
1.12594
1.12588
1.13316
1.12263
)
;
    }
    bottom
    {
        type            zeroGradient;
    }
    top
    {
        type            zeroGradient;
    }
    obstacle
    {
        type            zeroGradient;
    }
    defaultFaces
    {
        type            empty;
    }
}


// ************************************************************************* //
