/*--------------------------------*- C++ -*----------------------------------*\
  =========                 |
  \\      /  F ield         | OpenFOAM: The Open Source CFD Toolbox
   \\    /   O peration     | Website:  https://openfoam.org
    \\  /    A nd           | Version:  7
     \\/     M anipulation  |
\*---------------------------------------------------------------------------*/
FoamFile
{
    version     2.0;
    format      ascii;
    class       volScalarField;
    location    "3.8";
    object      rho;
}
// * * * * * * * * * * * * * * * * * * * * * * * * * * * * * * * * * * * * * //

dimensions      [1 -3 0 0 0 0 0];

internalField   nonuniform List<scalar> 
16192
(
1.08017
1.07671
1.07224
1.06901
1.06652
1.06433
1.06282
1.06235
1.06238
1.06318
1.06538
1.06746
1.06786
1.06776
1.06669
1.06361
1.06038
1.05947
1.0596
1.06018
1.06127
1.06174
1.06122
1.05832
1.05383
1.0522
1.05229
1.05332
1.05596
1.05921
1.06044
1.06032
1.0596
1.05693
1.05337
1.05219
1.05207
1.05204
1.05214
1.05244
1.05299
1.05377
1.05442
1.05458
1.05464
1.05478
1.05527
1.0565
1.05893
1.06194
1.06388
1.06422
1.06309
1.06005
1.05741
1.05626
1.05606
1.05656
1.05922
1.06368
1.06684
1.06815
1.06866
1.06857
1.06703
1.06347
1.06066
1.05995
1.06016
1.06292
1.06619
1.06695
1.06692
1.0663
1.06381
1.06196
1.06141
1.06136
1.06314
1.06561
1.06598
1.06557
1.06535
1.06538
1.06573
1.06619
1.0658
1.06499
1.0641
1.06306
1.06165
1.06017
1.05956
1.05943
1.05978
1.0616
1.0635
1.06362
1.06244
1.05994
1.05735
1.05601
1.05569
1.05572
1.05668
1.05859
1.05989
1.06002
1.05962
1.05799
1.05377
1.04937
1.04773
1.04737
1.0475
1.04902
1.0517
1.05349
1.05444
1.05487
1.05488
1.05379
1.05131
1.04874
1.04708
1.04572
1.04432
1.04309
1.04249
1.04245
1.04266
1.04337
1.0447
1.046
1.04637
1.04639
1.04607
1.04457
1.04194
1.03979
1.03878
1.03834
1.038
1.03768
1.03734
1.03699
1.03654
1.0358
1.03508
1.03499
1.03523
1.03586
1.03643
1.03656
1.03616
1.03457
1.03272
1.0311
1.02936
1.02806
1.02761
1.02752
1.02775
1.02773
1.0275
1.02677
1.0252
1.02401
1.02407
1.02444
1.02535
1.02739
1.03018
1.03131
1.03117
1.03046
1.02831
1.02509
1.02346
1.3971
2.44769
2.61999
2.66107
2.69967
2.73681
2.7733
2.80141
2.81986
2.83262
2.84301
2.85241
2.85876
2.86092
2.86533
2.86942
2.87591
2.88294
2.88334
2.87617
2.86506
2.85273
2.84081
2.83211
2.82723
2.82229
2.81546
2.80958
2.80529
2.80033
2.7945
2.78893
2.78427
2.78084
2.77942
2.78208
2.78935
2.79625
2.79723
2.7955
2.79224
2.78691
2.78209
2.78028
2.78036
2.78251
2.78755
2.79166
2.79296
2.79138
2.78595
2.77929
2.7725
2.76717
2.76552
2.76778
2.77121
2.77194
2.76782
2.76129
2.75719
2.75801
2.76207
2.76361
2.75596
2.73801
2.72024
2.70788
2.70243
2.70165
2.70124
2.70002
2.69818
2.69339
1.07822
1.07677
1.07557
1.07429
1.07242
1.06983
1.06678
1.06468
1.0641
1.06421
1.06544
1.06692
1.06706
1.06661
1.06509
1.06233
1.05961
1.05833
1.05789
1.05776
1.05792
1.05855
1.05895
1.05835
1.05741
1.0565
1.0558
1.0557
1.05646
1.05795
1.0587
1.05865
1.05818
1.05701
1.05525
1.05465
1.05479
1.0552
1.05602
1.0573
1.05884
1.05966
1.05935
1.05849
1.05731
1.05613
1.05586
1.05632
1.05735
1.05888
1.06072
1.06251
1.06328
1.06336
1.06316
1.0625
1.06203
1.06189
1.06263
1.06477
1.06654
1.06658
1.06627
1.06549
1.06468
1.06465
1.06466
1.06451
1.06488
1.06628
1.06693
1.06689
1.06671
1.06581
1.06529
1.06514
1.06506
1.06551
1.06664
1.06671
1.06621
1.06525
1.06416
1.0638
1.06376
1.06457
1.06671
1.06827
1.06812
1.0673
1.06578
1.06324
1.06055
1.05956
1.05952
1.05997
1.06117
1.06268
1.06339
1.06315
1.06241
1.06082
1.05916
1.05829
1.05812
1.05863
1.05888
1.05849
1.05779
1.05682
1.055
1.05348
1.05243
1.05158
1.05111
1.05134
1.05256
1.05333
1.0533
1.05292
1.05211
1.05136
1.05094
1.05099
1.05102
1.05065
1.04968
1.04821
1.04658
1.04544
1.04504
1.04512
1.04573
1.0464
1.04654
1.0465
1.04593
1.04423
1.04167
1.03966
1.03896
1.03873
1.0387
1.03882
1.03869
1.03844
1.03812
1.03752
1.03652
1.03583
1.03577
1.0359
1.03586
1.03529
1.03393
1.03207
1.03116
1.03094
1.03075
1.03047
1.03042
1.03082
1.03096
1.03075
1.03032
1.02952
1.02778
1.02576
1.0252
1.02523
1.02563
1.02697
1.02834
1.02879
1.02872
1.02865
1.02854
1.02849
1.0281
1.37056
2.43211
2.63114
2.67219
2.70632
2.73654
2.77069
2.80215
2.82467
2.83983
2.85016
2.85695
2.86011
2.86104
2.86485
2.86987
2.87819
2.88683
2.88758
2.88069
2.87012
2.85829
2.84684
2.83735
2.83096
2.82407
2.81465
2.80649
2.80094
2.79576
2.79027
2.78511
2.78087
2.77793
2.77676
2.77932
2.78651
2.79377
2.79465
2.79283
2.78973
2.78599
2.78359
2.78369
2.7848
2.78793
2.792
2.79298
2.79014
2.78597
2.78079
2.77614
2.77195
2.76896
2.76867
2.77156
2.77633
2.78015
2.7803
2.77443
2.76402
2.75311
2.74554
2.74291
2.74372
2.74445
2.73955
2.73003
2.71905
2.70888
2.7004
2.69304
2.68568
2.6778
1.07645
1.0765
1.07818
1.07919
1.07928
1.07901
1.07767
1.07586
1.07446
1.07327
1.07218
1.07119
1.07016
1.06898
1.068
1.06687
1.06478
1.06165
1.059
1.05765
1.05713
1.05687
1.0566
1.05731
1.05921
1.06039
1.06079
1.06062
1.05954
1.05831
1.05764
1.05712
1.05649
1.05584
1.05545
1.05547
1.05588
1.05672
1.0582
1.0607
1.06414
1.06709
1.06834
1.06851
1.06802
1.0663
1.06331
1.06043
1.05897
1.05859
1.05902
1.06018
1.06223
1.06476
1.06659
1.06814
1.06994
1.07233
1.07405
1.07378
1.07246
1.07034
1.06708
1.06376
1.06278
1.06357
1.06636
1.07035
1.07438
1.07564
1.07495
1.07279
1.06905
1.06669
1.06661
1.06765
1.07019
1.07371
1.07568
1.07541
1.07418
1.07136
1.06734
1.06459
1.06364
1.06369
1.06627
1.07049
1.07245
1.07286
1.07274
1.07196
1.06957
1.06584
1.06278
1.06128
1.06083
1.06127
1.06311
1.06552
1.06684
1.06747
1.0677
1.06731
1.06605
1.0639
1.06138
1.05903
1.057
1.05534
1.05519
1.05593
1.05691
1.05811
1.0594
1.0597
1.05903
1.05758
1.0555
1.05312
1.05104
1.04964
1.04973
1.05121
1.05311
1.05419
1.0545
1.05448
1.05407
1.05339
1.05276
1.05234
1.05193
1.05145
1.05095
1.05025
1.04897
1.0468
1.04471
1.04418
1.04418
1.04432
1.04466
1.04487
1.04465
1.04457
1.04452
1.04421
1.04327
1.04179
1.04032
1.03901
1.03768
1.03598
1.0335
1.03116
1.03033
1.03021
1.0306
1.03185
1.03316
1.03412
1.03475
1.03517
1.03532
1.03531
1.0345
1.03286
1.03182
1.03135
1.03078
1.02992
1.02903
1.02824
1.02758
1.02719
1.02763
1.02991
1.03202
1.30718
2.39935
2.64938
2.68925
2.72005
2.74361
2.77329
2.80486
2.83038
2.84861
2.86007
2.86475
2.86343
2.86173
2.8645
2.87154
2.8838
2.89627
2.89882
2.89258
2.88239
2.86983
2.85676
2.84443
2.83546
2.82625
2.81374
2.80312
2.7964
2.7917
2.78762
2.78405
2.7813
2.7794
2.77893
2.78113
2.78705
2.79336
2.79435
2.79135
2.78635
2.78208
2.78101
2.78186
2.7854
2.79208
2.79822
2.79957
2.79551
2.78741
2.77956
2.77481
2.77323
2.7742
2.77679
2.7806
2.78549
2.79109
2.79603
2.7964
2.78606
2.77113
2.75637
2.74599
2.74475
2.75201
2.75969
2.76047
2.75337
2.73987
2.72236
2.7037
2.68756
2.67511
1.09123
1.09097
1.09077
1.09046
1.09012
1.08942
1.08791
1.08641
1.08565
1.08531
1.08524
1.08528
1.08518
1.08485
1.08435
1.08364
1.08224
1.0792
1.07549
1.07285
1.07112
1.0701
1.06965
1.06993
1.07125
1.07253
1.07362
1.0742
1.07398
1.07299
1.07161
1.07029
1.06927
1.06832
1.06713
1.06603
1.06581
1.06595
1.06642
1.06791
1.0709
1.0741
1.07578
1.07648
1.0768
1.07641
1.07517
1.07386
1.07281
1.07197
1.07142
1.07149
1.07235
1.07305
1.07369
1.07484
1.07696
1.08
1.0831
1.08467
1.08457
1.08355
1.08078
1.07691
1.07475
1.07421
1.07492
1.0779
1.08219
1.08454
1.08473
1.0839
1.08154
1.07888
1.07774
1.07759
1.07883
1.0818
1.08387
1.08423
1.08376
1.08241
1.08041
1.07849
1.07722
1.07661
1.07727
1.07916
1.07983
1.0798
1.07973
1.07936
1.07814
1.07622
1.07471
1.07357
1.07241
1.07169
1.07199
1.0727
1.07316
1.07394
1.07491
1.07539
1.07532
1.07483
1.07368
1.07144
1.06836
1.06541
1.06343
1.06268
1.06281
1.06405
1.06617
1.06774
1.06836
1.06821
1.06709
1.06452
1.06116
1.0588
1.05797
1.05806
1.05848
1.05926
1.05988
1.06007
1.06003
1.05979
1.05944
1.0593
1.05923
1.0591
1.05886
1.05849
1.05788
1.05673
1.05527
1.05421
1.05362
1.05323
1.05253
1.05142
1.05024
1.04976
1.04986
1.05011
1.05016
1.04987
1.04925
1.0485
1.04756
1.04612
1.04403
1.04211
1.04106
1.04033
1.03991
1.03994
1.04016
1.04002
1.03992
1.04012
1.04028
1.04003
1.03911
1.03862
1.0388
1.03933
1.04
1.03996
1.03936
1.03797
1.03609
1.03502
1.03476
1.03569
1.03715
1.21305
2.3367
2.67614
2.71459
2.74476
2.76272
2.78497
2.81331
2.83961
2.85963
2.87281
2.87755
2.87581
2.87478
2.87615
2.88073
2.89068
2.90278
2.90722
2.90137
2.89121
2.87875
2.86582
2.85417
2.84621
2.83975
2.8282
2.81642
2.80795
2.80234
2.79831
2.7948
2.79175
2.78881
2.78663
2.7863
2.78852
2.79271
2.79563
2.79481
2.7914
2.78696
2.78428
2.78359
2.78551
2.79019
2.79534
2.7985
2.7978
2.79282
2.78705
2.78295
2.78256
2.78632
2.79255
2.79808
2.8016
2.80418
2.80722
2.81027
2.80754
2.79574
2.78147
2.77076
2.76702
2.77148
2.78095
2.78577
2.77993
2.76789
2.75067
2.72845
2.708
2.69467
1.11437
1.11624
1.11653
1.11617
1.11495
1.11204
1.10738
1.10333
1.10125
1.10038
1.1
1.10019
1.10111
1.10152
1.10132
1.10083
1.0997
1.0967
1.09321
1.09231
1.09225
1.09252
1.09362
1.09517
1.09638
1.0967
1.09653
1.09564
1.09422
1.09266
1.09121
1.09057
1.09049
1.09041
1.08974
1.08859
1.08829
1.08829
1.08846
1.08922
1.09068
1.09124
1.091
1.09009
1.08839
1.08711
1.08705
1.08768
1.0887
1.09022
1.09227
1.094
1.09461
1.09458
1.09427
1.09382
1.09353
1.09334
1.0938
1.09574
1.09685
1.0969
1.09663
1.09641
1.09627
1.09634
1.09659
1.09665
1.09624
1.09575
1.09578
1.0966
1.09739
1.09783
1.09812
1.09823
1.09796
1.09737
1.09684
1.09603
1.09482
1.09405
1.09402
1.09453
1.09549
1.09717
1.09874
1.09871
1.0979
1.09659
1.09411
1.09023
1.08749
1.08695
1.08719
1.08818
1.08994
1.09156
1.09193
1.09144
1.09032
1.08857
1.08674
1.08577
1.08562
1.08614
1.08645
1.08619
1.08587
1.08533
1.08379
1.08155
1.07948
1.07804
1.07738
1.07726
1.07809
1.0792
1.07949
1.07945
1.07944
1.07913
1.07807
1.07679
1.07584
1.07512
1.07437
1.07342
1.07223
1.07082
1.0693
1.06839
1.06821
1.06809
1.06774
1.06738
1.06715
1.06696
1.06656
1.06583
1.06566
1.06561
1.06505
1.0637
1.06156
1.05907
1.05774
1.0575
1.0575
1.05783
1.05799
1.05795
1.05806
1.05799
1.0577
1.05734
1.05728
1.05754
1.05808
1.05801
1.05733
1.05653
1.05566
1.05443
1.05255
1.04981
1.04745
1.04692
1.04711
1.04774
1.04872
1.05004
1.05161
1.05266
1.05295
1.05279
1.05236
1.05216
1.05116
1.11902
2.23614
2.71424
2.74679
2.77636
2.7939
2.81275
2.83607
2.85651
2.87097
2.88247
2.889
2.89061
2.89229
2.89374
2.89634
2.90245
2.91143
2.9174
2.91388
2.9055
2.89603
2.88673
2.8786
2.87363
2.87062
2.86233
2.84925
2.83614
2.82492
2.81617
2.80973
2.80495
2.80121
2.7983
2.79573
2.79369
2.79282
2.79373
2.79564
2.79632
2.79499
2.79269
2.79079
2.78979
2.78988
2.79158
2.79437
2.79636
2.79731
2.79681
2.79584
2.79709
2.80245
2.81149
2.82043
2.82498
2.82465
2.8228
2.82253
2.824
2.82289
2.81798
2.81296
2.8103
2.81132
2.81573
2.81485
2.80579
2.79409
2.77874
2.76055
2.74477
2.73432
1.141
1.14222
1.14243
1.14208
1.14071
1.13787
1.13434
1.13202
1.13077
1.13004
1.12975
1.12993
1.12974
1.1293
1.12876
1.12777
1.1254
1.12075
1.11729
1.11673
1.11667
1.11726
1.11899
1.12088
1.12162
1.12158
1.12089
1.11934
1.11767
1.11608
1.11467
1.114
1.11383
1.11372
1.11296
1.11172
1.11147
1.1115
1.11195
1.11328
1.1155
1.11651
1.11641
1.11556
1.11356
1.11182
1.11139
1.11149
1.11222
1.11387
1.11594
1.11703
1.11713
1.11732
1.11769
1.11782
1.11769
1.11751
1.11801
1.11931
1.11944
1.11936
1.11901
1.1186
1.11864
1.11915
1.11982
1.11961
1.11888
1.11817
1.11773
1.118
1.11892
1.11987
1.12073
1.12105
1.12075
1.1199
1.11882
1.11773
1.1167
1.11588
1.11566
1.11602
1.11713
1.1189
1.11989
1.11971
1.11912
1.11802
1.11563
1.11144
1.10809
1.10732
1.10729
1.10805
1.11016
1.11197
1.11238
1.11223
1.11144
1.10979
1.10791
1.10674
1.10621
1.10599
1.10592
1.10587
1.10588
1.10564
1.10434
1.10244
1.10082
1.09952
1.09864
1.09813
1.09785
1.0978
1.09805
1.09866
1.09911
1.09916
1.09827
1.09678
1.09578
1.09508
1.09445
1.09378
1.09286
1.09149
1.0897
1.08839
1.08803
1.08787
1.08763
1.08738
1.08735
1.08743
1.08721
1.08639
1.08613
1.08615
1.08603
1.08528
1.08329
1.08008
1.07739
1.07619
1.07575
1.07565
1.07559
1.07543
1.07565
1.07621
1.07648
1.07642
1.07626
1.07647
1.07717
1.07723
1.07679
1.07614
1.07554
1.0746
1.07273
1.06986
1.06754
1.0667
1.06636
1.06621
1.06628
1.06714
1.06913
1.07099
1.07173
1.07199
1.07214
1.07219
1.07156
1.0766
2.04209
2.75028
2.79859
2.82036
2.83912
2.8582
2.87744
2.89094
2.89856
2.90471
2.91081
2.91578
2.91996
2.92309
2.9258
2.92951
2.9356
2.94184
2.94246
2.93631
2.92873
2.92117
2.9141
2.90852
2.90508
2.8989
2.88728
2.87364
2.85919
2.84549
2.83421
2.82588
2.82012
2.81656
2.81381
2.81054
2.80636
2.80276
2.80071
2.80099
2.80251
2.80392
2.8044
2.80343
2.80107
2.7985
2.7974
2.79972
2.80532
2.81097
2.8144
2.81645
2.82006
2.82715
2.83676
2.84471
2.84726
2.84556
2.84357
2.84447
2.84828
2.85176
2.85315
2.85263
2.85097
2.84802
2.83989
2.83013
2.81945
2.80834
2.79768
2.78823
2.78103
1.1698
1.16922
1.16832
1.16672
1.16441
1.16198
1.16055
1.16009
1.15986
1.1597
1.16002
1.16057
1.16029
1.15968
1.15881
1.15737
1.15397
1.14896
1.14704
1.14677
1.14677
1.14728
1.14809
1.14844
1.1484
1.14785
1.14658
1.14548
1.14465
1.14388
1.14327
1.14267
1.14194
1.14078
1.13851
1.13655
1.13611
1.13602
1.13634
1.13756
1.13978
1.14113
1.14123
1.14097
1.14014
1.13979
1.13978
1.14004
1.1408
1.14172
1.14213
1.14205
1.14151
1.14091
1.14079
1.14068
1.14066
1.14125
1.14317
1.14481
1.14499
1.14506
1.1449
1.1439
1.1425
1.1418
1.14137
1.14092
1.14069
1.14107
1.14244
1.14347
1.14348
1.14314
1.14267
1.14178
1.14072
1.14006
1.13979
1.13977
1.14015
1.14034
1.1404
1.14074
1.14121
1.14109
1.14062
1.13991
1.13883
1.13745
1.13569
1.13363
1.13212
1.13173
1.13177
1.13227
1.13284
1.13277
1.13245
1.13175
1.13068
1.12977
1.12945
1.12941
1.12973
1.13016
1.13021
1.13004
1.1293
1.12726
1.12413
1.12184
1.12106
1.1208
1.12069
1.12105
1.12187
1.12237
1.12262
1.12269
1.12241
1.12096
1.11834
1.11637
1.11546
1.11489
1.11438
1.114
1.11354
1.11268
1.11159
1.11101
1.1108
1.11095
1.11142
1.11164
1.11179
1.1119
1.11135
1.10986
1.10894
1.10855
1.10809
1.1071
1.1052
1.10179
1.09921
1.09868
1.09861
1.09891
1.09924
1.09942
1.0997
1.10003
1.10021
1.10024
1.09984
1.09925
1.09893
1.09862
1.09795
1.09666
1.09535
1.09426
1.09301
1.09133
1.09017
1.09
1.09001
1.0902
1.09078
1.09209
1.09367
1.09416
1.09402
1.09346
1.09278
1.09239
1.09206
1.09235
1.777
2.76161
2.8915
2.90172
2.91242
2.92157
2.93195
2.93829
2.94031
2.9408
2.94497
2.95097
2.95508
2.95757
2.95934
2.9617
2.96645
2.97312
2.97679
2.97269
2.96553
2.95791
2.95143
2.94669
2.9439
2.94055
2.93294
2.9224
2.91042
2.89734
2.88373
2.87111
2.86109
2.85332
2.84814
2.84473
2.84058
2.83423
2.82721
2.82152
2.81814
2.81769
2.81939
2.82166
2.82206
2.81924
2.81567
2.81502
2.81926
2.82793
2.83679
2.84163
2.84346
2.84573
2.85052
2.85777
2.86434
2.86696
2.86734
2.86854
2.87211
2.87715
2.88116
2.8824
2.87943
2.87136
2.86118
2.8506
2.84236
2.8369
2.83389
2.83192
2.82902
1.1962
1.19383
1.19112
1.18832
1.18565
1.18366
1.18268
1.18238
1.18247
1.18361
1.18558
1.18731
1.18838
1.18864
1.1878
1.18489
1.17992
1.17624
1.1754
1.17509
1.17515
1.1751
1.17482
1.17434
1.17336
1.1717
1.17039
1.16977
1.16939
1.16921
1.16901
1.16861
1.16786
1.16618
1.16375
1.16292
1.16278
1.16281
1.16327
1.16406
1.16506
1.16544
1.16536
1.16507
1.16473
1.16478
1.16543
1.16664
1.16796
1.16852
1.16841
1.16766
1.16595
1.16413
1.16295
1.16237
1.16228
1.16339
1.16609
1.16809
1.16898
1.16939
1.16913
1.16726
1.16479
1.16317
1.16217
1.16161
1.16143
1.16232
1.16437
1.16509
1.16495
1.16454
1.16349
1.16199
1.16115
1.16092
1.16089
1.16106
1.16137
1.16131
1.16108
1.16109
1.16112
1.16085
1.16047
1.15992
1.15895
1.15762
1.15629
1.15517
1.15398
1.15303
1.15289
1.15294
1.15285
1.15261
1.15221
1.15157
1.15093
1.15069
1.15068
1.15107
1.15166
1.15179
1.15165
1.15114
1.14961
1.14685
1.14438
1.14324
1.14277
1.14249
1.14235
1.14292
1.14413
1.14487
1.14507
1.145
1.14392
1.14133
1.13894
1.1378
1.13711
1.13635
1.13536
1.13462
1.13409
1.13343
1.13291
1.13257
1.13254
1.13312
1.13387
1.13412
1.13422
1.13389
1.13241
1.13068
1.12997
1.1299
1.12986
1.12938
1.12808
1.12532
1.12301
1.12247
1.12242
1.12264
1.12275
1.12269
1.12235
1.12181
1.12202
1.12242
1.12253
1.12219
1.12202
1.12187
1.12149
1.1206
1.11937
1.11817
1.11691
1.11514
1.11319
1.11241
1.11229
1.11241
1.11328
1.11492
1.11616
1.11647
1.11646
1.1161
1.11548
1.11478
1.1141
1.11261
1.48821
2.75049
3.0187
3.00335
3.00179
2.99782
2.99733
2.99509
2.99144
2.98917
2.99238
2.99746
2.99899
2.99844
2.9982
2.99933
3.00327
3.00981
3.0148
3.01211
3.00554
2.99862
2.99329
2.99017
2.98875
2.98563
2.97728
2.96737
2.95808
2.94949
2.94078
2.93032
2.91773
2.90458
2.89385
2.88542
2.87975
2.8759
2.86962
2.86063
2.85218
2.84564
2.84237
2.84304
2.84593
2.8476
2.84571
2.84274
2.84244
2.84765
2.85765
2.86604
2.86846
2.86893
2.87025
2.87354
2.87901
2.8842
2.88703
2.88848
2.88984
2.89151
2.89283
2.89306
2.89115
2.88621
2.88002
2.87371
2.86911
2.86714
2.86696
2.86593
2.86153
1.21054
1.20548
1.20181
1.19941
1.19825
1.19804
1.19887
1.20098
1.20377
1.20713
1.21024
1.2114
1.21094
1.20901
1.20483
1.1985
1.19343
1.19177
1.19128
1.19132
1.19173
1.19144
1.19095
1.1902
1.18888
1.18745
1.18682
1.18672
1.18712
1.18834
1.18916
1.18915
1.18828
1.18569
1.18336
1.18228
1.18143
1.18103
1.1813
1.18234
1.18364
1.18491
1.18619
1.18758
1.18895
1.18997
1.19055
1.19054
1.18992
1.18799
1.1848
1.18139
1.17871
1.17738
1.17704
1.17749
1.17998
1.18453
1.18896
1.19096
1.19115
1.18958
1.1851
1.17974
1.17655
1.17532
1.17495
1.17523
1.17736
1.18092
1.1832
1.18361
1.18329
1.18184
1.17955
1.17795
1.17735
1.17713
1.17708
1.17724
1.17728
1.17692
1.17622
1.17576
1.17536
1.17472
1.17393
1.17323
1.17265
1.17235
1.17236
1.17243
1.17202
1.17085
1.16961
1.16893
1.16837
1.16761
1.16681
1.16644
1.16645
1.16699
1.16817
1.16954
1.17023
1.17026
1.16938
1.16717
1.16402
1.16123
1.15971
1.15901
1.15872
1.15881
1.16009
1.16224
1.16393
1.16448
1.16418
1.16241
1.1591
1.15599
1.15453
1.15386
1.15349
1.15323
1.15286
1.15266
1.15291
1.15355
1.15396
1.154
1.15402
1.1542
1.15425
1.15418
1.15376
1.15242
1.15064
1.14974
1.14961
1.14977
1.14984
1.14971
1.1491
1.14761
1.14549
1.14457
1.14422
1.14384
1.1434
1.14292
1.14213
1.14101
1.14082
1.14102
1.14104
1.14064
1.14012
1.13968
1.13935
1.13883
1.13813
1.13743
1.1367
1.13561
1.134
1.13327
1.13326
1.13363
1.13467
1.13584
1.13623
1.13609
1.13553
1.1344
1.13304
1.13167
1.13097
1.13034
1.24923
2.66908
3.16095
3.11561
3.09046
3.07246
3.06073
3.05264
3.04539
3.04207
3.04417
3.04728
3.04566
3.04009
3.03564
3.03378
3.03572
3.0426
3.05031
3.05094
3.04624
3.03934
3.03298
3.02754
3.02571
3.02389
3.01639
3.00716
2.99946
2.99319
2.98774
2.98093
2.97047
2.95665
2.9409
2.92861
2.91995
2.91549
2.91436
2.90956
2.89969
2.88967
2.88105
2.87585
2.87595
2.88009
2.88201
2.87877
2.87515
2.87405
2.87756
2.88454
2.8895
2.89126
2.89275
2.89395
2.89534
2.8975
2.89978
2.90087
2.90041
2.89901
2.8975
2.89658
2.8967
2.89755
2.89813
2.89725
2.89468
2.89049
2.88489
2.87778
2.86975
1.21239
1.20998
1.20907
1.20913
1.21116
1.21507
1.21918
1.22198
1.22275
1.22209
1.22022
1.21785
1.21486
1.21044
1.206
1.20256
1.20124
1.20099
1.20172
1.20361
1.20428
1.20402
1.20344
1.20252
1.20154
1.20123
1.20136
1.20223
1.20424
1.20616
1.2063
1.20496
1.20114
1.1967
1.19458
1.19386
1.19368
1.19429
1.19649
1.19965
1.20281
1.20534
1.20679
1.2071
1.20674
1.20552
1.20311
1.19995
1.19649
1.19304
1.19005
1.18818
1.18778
1.18835
1.19075
1.19521
1.20092
1.2046
1.20496
1.20357
1.20006
1.19421
1.18848
1.18525
1.18439
1.18458
1.18625
1.19004
1.19497
1.19759
1.19752
1.19616
1.19339
1.19005
1.18792
1.18717
1.18702
1.18725
1.18805
1.18851
1.18848
1.18752
1.1859
1.18462
1.18362
1.18284
1.18246
1.1826
1.18415
1.18624
1.18727
1.18735
1.18612
1.18281
1.17972
1.178
1.1769
1.17623
1.17603
1.17653
1.17864
1.1816
1.1839
1.1847
1.18435
1.18228
1.17854
1.17452
1.17161
1.17008
1.16963
1.16975
1.17111
1.17383
1.17719
1.17905
1.1789
1.17745
1.17445
1.1705
1.16747
1.1663
1.16621
1.1669
1.16831
1.16973
1.17047
1.17067
1.17066
1.17048
1.17
1.16942
1.16901
1.16855
1.16806
1.16741
1.16623
1.16435
1.16289
1.16236
1.16219
1.16216
1.16232
1.16281
1.1628
1.16218
1.16108
1.16052
1.16029
1.16004
1.15956
1.15867
1.15721
1.15533
1.15386
1.15287
1.15204
1.15158
1.15136
1.15155
1.15266
1.15378
1.1544
1.15462
1.15461
1.1543
1.15302
1.15149
1.15099
1.15077
1.15039
1.14965
1.14856
1.14723
1.14571
1.14433
1.14362
1.14341
1.14419
1.14563
1.15727
2.4837
3.22462
3.18942
3.15167
3.13132
3.11433
3.10496
3.09845
3.09635
3.09774
3.09672
3.08835
3.075
3.06494
3.06104
3.06332
3.07294
3.08264
3.08275
3.07708
3.06767
3.05862
3.05201
3.05245
3.0569
3.05393
3.04409
3.03204
3.02115
3.01203
3.00718
3.00528
2.99922
2.98829
2.97533
2.96458
2.95601
2.95157
2.94908
2.94179
2.93069
2.919
2.91029
2.90571
2.90712
2.91113
2.91006
2.90583
2.90015
2.89729
2.89919
2.90491
2.9102
2.9131
2.91456
2.91276
2.90887
2.90727
2.90733
2.90694
2.90563
2.90435
2.90414
2.90557
2.90791
2.90935
2.90801
2.90326
2.89624
2.88696
2.87789
2.87078
1.21574
1.21584
1.21801
1.22307
1.22833
1.23017
1.22966
1.22739
1.22484
1.22296
1.22028
1.21625
1.21309
1.21104
1.20999
1.21003
1.21157
1.21435
1.21709
1.21836
1.21843
1.21799
1.21706
1.21625
1.21601
1.21613
1.2168
1.21777
1.21805
1.21721
1.21477
1.21044
1.20568
1.20341
1.20306
1.20354
1.2057
1.20942
1.21314
1.21479
1.21479
1.21373
1.21215
1.21065
1.20852
1.2063
1.20398
1.2014
1.19888
1.19719
1.19683
1.19745
1.19966
1.20351
1.20791
1.21034
1.21033
1.2092
1.20712
1.20395
1.19905
1.19489
1.19284
1.19271
1.19378
1.19666
1.20063
1.20287
1.20272
1.20165
1.20006
1.1974
1.19501
1.19382
1.19359
1.19398
1.19533
1.19665
1.19703
1.19671
1.19499
1.19227
1.19024
1.18923
1.18874
1.18862
1.18973
1.19306
1.19619
1.19678
1.19594
1.19294
1.18875
1.18495
1.183
1.18217
1.18188
1.18212
1.18396
1.18767
1.19149
1.19298
1.19265
1.19073
1.18775
1.18383
1.18041
1.17831
1.17756
1.17761
1.1788
1.18146
1.18464
1.18617
1.18585
1.18452
1.18249
1.17934
1.17664
1.17527
1.17516
1.17623
1.17872
1.18078
1.18132
1.18084
1.17918
1.17756
1.17605
1.17447
1.17354
1.17323
1.17318
1.17286
1.17244
1.17187
1.17071
1.16916
1.16842
1.16834
1.16848
1.16904
1.17008
1.17114
1.17166
1.1717
1.1715
1.17116
1.17058
1.16953
1.16812
1.16642
1.16443
1.16258
1.16138
1.16079
1.16068
1.16117
1.16262
1.16521
1.16795
1.16943
1.16968
1.16936
1.16807
1.16536
1.16208
1.15953
1.15798
1.1568
1.15567
1.15461
1.15378
1.15329
1.15315
1.15357
1.1549
1.15713
1.16019
1.16206
1.16215
2.25198
3.24396
3.26058
3.20613
3.18294
3.16409
3.15492
3.14774
3.14161
3.1354
3.12513
3.1095
3.09653
3.09196
3.09247
3.09757
3.10304
3.1006
3.09305
3.08468
3.07839
3.07338
3.07308
3.07732
3.07939
3.07406
3.06298
3.04857
3.03547
3.0272
3.02575
3.02833
3.02888
3.02186
3.00878
2.99103
2.97657
2.96643
2.96231
2.96262
2.95783
2.94887
2.93896
2.93103
2.92749
2.9295
2.93179
2.92989
2.92519
2.91758
2.91386
2.91628
2.92209
2.92664
2.92868
2.92717
2.92118
2.91506
2.91269
2.9124
2.91251
2.91293
2.91374
2.91444
2.91353
2.91022
2.90584
2.90021
2.89388
2.88771
2.88236
2.87977
1.22157
1.22591
1.23213
1.23509
1.2348
1.23306
1.23058
1.22748
1.22373
1.22001
1.21791
1.21672
1.21612
1.2168
1.21962
1.22279
1.22468
1.22501
1.22425
1.22263
1.22138
1.22102
1.22091
1.22115
1.22213
1.22257
1.22225
1.22153
1.22029
1.2184
1.21514
1.21158
1.21014
1.21013
1.21127
1.21406
1.21683
1.21754
1.21721
1.21644
1.21548
1.2139
1.2113
1.20944
1.20861
1.20777
1.20664
1.20538
1.20505
1.20562
1.20712
1.20942
1.21161
1.21235
1.21208
1.21163
1.21087
1.20917
1.20586
1.20245
1.20017
1.1998
1.20069
1.20285
1.20498
1.20568
1.20513
1.20424
1.20324
1.20143
1.19897
1.19792
1.19773
1.19833
1.20024
1.20233
1.20312
1.20292
1.20125
1.19839
1.19556
1.19385
1.19314
1.19289
1.19311
1.19524
1.19937
1.20175
1.20157
1.19997
1.19707
1.19264
1.18789
1.18611
1.18572
1.18579
1.18697
1.19015
1.1946
1.19707
1.19703
1.19576
1.19372
1.19089
1.18704
1.18453
1.18355
1.18353
1.18454
1.18693
1.18929
1.1899
1.18928
1.18806
1.18669
1.18444
1.18177
1.18062
1.18049
1.18154
1.1844
1.18698
1.18743
1.18638
1.18387
1.18148
1.17923
1.17678
1.17548
1.175
1.17486
1.17571
1.1767
1.17667
1.17642
1.17582
1.17462
1.17398
1.17426
1.17488
1.17597
1.17757
1.17915
1.17985
1.17968
1.17912
1.17829
1.17713
1.17579
1.17447
1.17322
1.17198
1.1707
1.16994
1.16996
1.17043
1.17129
1.17257
1.17431
1.17525
1.1749
1.17416
1.17301
1.17138
1.16909
1.1655
1.16252
1.16101
1.16014
1.15962
1.15943
1.1596
1.16053
1.16205
1.16392
1.16593
1.16742
1.16779
1.16721
1.1659
1.16292
2.04101
3.2425
3.30813
3.2486
3.22613
3.20727
3.19515
3.18252
3.17012
3.15703
3.14202
3.12853
3.12326
3.12375
3.1279
3.12709
3.1179
3.10338
3.09215
3.08675
3.08617
3.08985
3.09235
3.08881
3.08091
3.0723
3.06418
3.05499
3.04742
3.0432
3.04008
3.0356
3.03121
3.02788
3.01895
3.00518
2.99118
2.98224
2.97856
2.97926
2.97916
2.97436
2.96659
2.95646
2.94854
2.94523
2.94616
2.94623
2.94326
2.93711
2.92828
2.92439
2.92643
2.93081
2.93387
2.93429
2.93203
2.92693
2.92175
2.91929
2.91904
2.91972
2.92053
2.91972
2.91615
2.91029
2.90299
2.89712
2.89283
2.891
2.89319
2.89822
1.23263
1.23756
1.23825
1.23736
1.23576
1.23296
1.2283
1.22322
1.22073
1.22002
1.21962
1.22064
1.22429
1.22853
1.23036
1.23024
1.2288
1.22667
1.22487
1.22296
1.22139
1.2209
1.22078
1.22098
1.22229
1.22279
1.22243
1.22166
1.22008
1.21707
1.21473
1.21417
1.21448
1.21606
1.21809
1.21857
1.21828
1.21806
1.21746
1.21592
1.21352
1.2118
1.21116
1.21094
1.21147
1.21263
1.21329
1.21364
1.21364
1.21339
1.21338
1.21324
1.21306
1.21285
1.21233
1.21111
1.20914
1.20726
1.20587
1.20526
1.2061
1.20829
1.20978
1.20997
1.20903
1.20714
1.2056
1.20375
1.2015
1.20025
1.1999
1.20033
1.20253
1.20584
1.20774
1.20791
1.20702
1.20455
1.20109
1.19781
1.19631
1.1959
1.1958
1.19647
1.19929
1.20318
1.20428
1.20368
1.20245
1.20027
1.19576
1.19062
1.18876
1.18861
1.1891
1.19113
1.19507
1.19863
1.19932
1.19877
1.19778
1.19599
1.19283
1.18952
1.18796
1.18775
1.18839
1.19052
1.19281
1.1933
1.19262
1.19125
1.18981
1.18784
1.18529
1.18383
1.18339
1.18399
1.18667
1.19043
1.19194
1.19162
1.18985
1.18684
1.18285
1.17898
1.1773
1.17679
1.17653
1.17691
1.17906
1.18211
1.18321
1.18324
1.18286
1.1817
1.18084
1.18097
1.18148
1.18221
1.18293
1.1832
1.18292
1.18239
1.18164
1.18079
1.18005
1.17953
1.17912
1.17879
1.17863
1.17852
1.17826
1.17759
1.17685
1.17656
1.17632
1.176
1.17583
1.17584
1.17532
1.17435
1.17283
1.17045
1.1674
1.16503
1.16386
1.16358
1.16369
1.1645
1.16617
1.16844
1.17055
1.1717
1.17176
1.17113
1.16996
1.16886
1.16773
1.16602
1.1614
1.87653
3.21584
3.3391
3.28254
3.26127
3.24202
3.22643
3.20906
3.19224
3.17602
3.15988
3.14986
3.14563
3.14582
3.14473
3.13829
3.12601
3.10846
3.09793
3.09278
3.09483
3.09948
3.0986
3.08974
3.07815
3.06737
3.06006
3.06017
3.06073
3.05546
3.04503
3.0347
3.02616
3.02039
3.0204
3.01826
3.0103
3.00175
2.99378
2.98733
2.98429
2.98395
2.98046
2.97277
2.96252
2.95484
2.95212
2.95275
2.95241
2.94981
2.94352
2.9338
2.92803
2.92843
2.93122
2.93506
2.93785
2.93846
2.93609
2.9312
2.92717
2.92523
2.92381
2.92263
2.92084
2.91709
2.91089
2.90375
2.8993
2.89917
2.90533
2.91437
1.24054
1.24029
1.23938
1.23751
1.23361
1.22774
1.22344
1.22236
1.22202
1.22254
1.22575
1.23118
1.23465
1.23488
1.23392
1.23181
1.22875
1.22533
1.2224
1.22029
1.21931
1.21902
1.21942
1.22129
1.22277
1.22268
1.22214
1.22094
1.21882
1.21705
1.21668
1.21713
1.21864
1.2196
1.21941
1.21902
1.21844
1.21706
1.21492
1.21318
1.21256
1.21246
1.21323
1.2157
1.21842
1.21947
1.21958
1.21873
1.21619
1.21432
1.21388
1.2136
1.21297
1.21177
1.21026
1.20918
1.20865
1.20851
1.20966
1.21256
1.21475
1.2152
1.21446
1.21184
1.20863
1.2057
1.20334
1.202
1.20158
1.20147
1.2028
1.20653
1.21037
1.21154
1.21136
1.21001
1.20707
1.20291
1.19941
1.19818
1.19795
1.19802
1.19915
1.20221
1.20517
1.20542
1.20484
1.20403
1.20214
1.19807
1.19349
1.1918
1.19178
1.19271
1.19526
1.19875
1.20045
1.20034
1.19995
1.19907
1.1971
1.19404
1.19171
1.19094
1.19115
1.19276
1.1953
1.19638
1.19612
1.19494
1.19316
1.19079
1.18808
1.18631
1.18566
1.1856
1.1871
1.19101
1.19451
1.19505
1.19443
1.19255
1.18894
1.18381
1.17994
1.17874
1.17827
1.17842
1.18016
1.18386
1.18744
1.18847
1.18833
1.18749
1.18589
1.1847
1.18435
1.1842
1.18403
1.18389
1.18378
1.18359
1.1832
1.18258
1.18163
1.18083
1.18061
1.18108
1.18219
1.18266
1.1827
1.18236
1.18087
1.17869
1.1774
1.17691
1.17657
1.17618
1.17559
1.17472
1.17401
1.17313
1.17189
1.17015
1.16827
1.1677
1.16793
1.16892
1.17073
1.1729
1.17452
1.17496
1.17458
1.17361
1.17258
1.17153
1.17014
1.16834
1.16601
1.16401
1.16187
1.76157
3.1805
3.36559
3.31267
3.29144
3.27051
3.25139
3.23087
3.21169
3.19396
3.17843
3.16702
3.16007
3.15576
3.15056
3.14099
3.13113
3.12302
3.1121
3.10382
3.10044
3.10058
3.09685
3.08806
3.07656
3.06592
3.06134
3.0642
3.06701
3.06056
3.04812
3.03255
3.02078
3.01494
3.0183
3.02619
3.02504
3.01563
3.00225
2.99047
2.98357
2.98048
2.98015
2.97706
2.97059
2.96215
2.95527
2.95312
2.95451
2.95501
2.95366
2.94821
2.93848
2.93095
2.9293
2.93109
2.93686
2.94339
2.94681
2.94568
2.94087
2.93335
2.9274
2.92419
2.9229
2.92393
2.92517
2.92305
2.91925
2.91756
2.91929
2.92269
1.24193
1.24072
1.23805
1.23302
1.2272
1.22465
1.22407
1.22408
1.22597
1.23093
1.23615
1.23762
1.23722
1.23612
1.23383
1.22962
1.22431
1.22054
1.21906
1.21869
1.21863
1.21941
1.22162
1.22412
1.2245
1.22413
1.22307
1.22125
1.21979
1.21959
1.2199
1.22071
1.22085
1.22047
1.21981
1.21856
1.21653
1.2146
1.21374
1.21355
1.21406
1.21637
1.22026
1.22304
1.2236
1.2233
1.22169
1.21879
1.21581
1.21398
1.21293
1.21185
1.2107
1.21007
1.20988
1.20992
1.21128
1.21455
1.21797
1.21931
1.21921
1.21762
1.21413
1.20937
1.20512
1.20321
1.20268
1.20251
1.20304
1.20582
1.21066
1.21385
1.21423
1.21367
1.21197
1.20861
1.20383
1.20056
1.1996
1.19947
1.19979
1.20147
1.20461
1.20649
1.20632
1.20578
1.20488
1.20291
1.19938
1.1961
1.19495
1.19517
1.1967
1.19958
1.20167
1.20182
1.20142
1.20069
1.19923
1.19701
1.19475
1.19359
1.19334
1.19407
1.19655
1.19889
1.19921
1.19854
1.19687
1.19426
1.19095
1.18839
1.18747
1.18719
1.18762
1.19019
1.19469
1.1971
1.19704
1.19622
1.19423
1.1901
1.18458
1.1815
1.18063
1.18047
1.18133
1.18434
1.18854
1.19081
1.19087
1.19039
1.18937
1.18772
1.18594
1.18493
1.18462
1.18442
1.18422
1.18403
1.18369
1.18307
1.18218
1.18129
1.18076
1.18071
1.18157
1.18347
1.1845
1.18452
1.18422
1.18311
1.18092
1.17854
1.17711
1.17623
1.1755
1.17502
1.17473
1.17471
1.17453
1.17413
1.17341
1.17262
1.17267
1.17339
1.17466
1.17606
1.17694
1.177
1.1766
1.17591