/*--------------------------------*- C++ -*----------------------------------*\
  =========                 |
  \\      /  F ield         | OpenFOAM: The Open Source CFD Toolbox
   \\    /   O peration     | Website:  https://openfoam.org
    \\  /    A nd           | Version:  7
     \\/     M anipulation  |
\*---------------------------------------------------------------------------*/
FoamFile
{
    version     2.0;
    format      ascii;
    class       volScalarField;
    location    "3.8";
    object      T;
}
// * * * * * * * * * * * * * * * * * * * * * * * * * * * * * * * * * * * * * //

dimensions      [0 0 0 1 0 0 0];

internalField   nonuniform List<scalar> 
16192
(
1.71208
1.71137
1.70985
1.70926
1.70914
1.70918
1.70954
1.71054
1.71214
1.71416
1.71671
1.71906
1.72034
1.72095
1.72092
1.71993
1.7186
1.71849
1.71927
1.7207
1.72225
1.72313
1.7232
1.72188
1.71898
1.71784
1.71782
1.71799
1.7187
1.71985
1.72011
1.71957
1.71841
1.71619
1.71328
1.71155
1.71049
1.70937
1.70818
1.70713
1.70636
1.70578
1.70517
1.70429
1.70329
1.70236
1.70166
1.70135
1.70142
1.70151
1.70107
1.69939
1.69646
1.69289
1.68978
1.68762
1.68625
1.68566
1.68592
1.68745
1.68838
1.68823
1.68717
1.6854
1.68301
1.67978
1.67724
1.67599
1.67548
1.67597
1.67682
1.67657
1.67523
1.6732
1.67048
1.66845
1.66726
1.66651
1.66657
1.66689
1.66657
1.66538
1.66454
1.66401
1.66372
1.6635
1.66291
1.66232
1.6617
1.66096
1.66
1.65891
1.65834
1.65819
1.65832
1.65922
1.66008
1.65999
1.65911
1.65765
1.65628
1.65569
1.65566
1.65584
1.65676
1.65832
1.65957
1.66009
1.66028
1.66009
1.65839
1.65668
1.65652
1.65703
1.65825
1.66009
1.66225
1.66385
1.66482
1.66533
1.66548
1.66508
1.66384
1.66277
1.66249
1.66245
1.66257
1.66304
1.66401
1.66537
1.66672
1.66804
1.66944
1.67063
1.67127
1.67153
1.67152
1.67101
1.66976
1.66908
1.6691
1.66952
1.67022
1.67094
1.67165
1.67238
1.67277
1.67277
1.67261
1.67259
1.67272
1.6728
1.67276
1.6724
1.67158
1.67052
1.66968
1.66919
1.66895
1.66911
1.67002
1.67103
1.67167
1.67172
1.67164
1.67096
1.66917
1.66732
1.6666
1.66621
1.66617
1.66689
1.66856
1.66924
1.6691
1.66865
1.66733
1.6654
1.66387
2.0048
2.6188
2.71079
2.71947
2.72588
2.72904
2.73098
2.73129
2.73049
2.729
2.72777
2.72708
2.72605
2.72404
2.72358
2.72353
2.7256
2.72926
2.73139
2.7323
2.73422
2.73794
2.7441
2.75362
2.76611
2.77813
2.78665
2.79148
2.79318
2.79267
2.79013
2.78515
2.77869
2.77164
2.765
2.76011
2.75674
2.75329
2.74722
2.73925
2.73042
2.72046
2.71072
2.70272
2.69655
2.69227
2.68999
2.68832
2.68646
2.68385
2.68028
2.67678
2.67348
2.67099
2.67018
2.67113
2.67305
2.67423
2.67407
2.67381
2.67451
2.67786
2.68237
2.68546
2.68509
2.68173
2.67907
2.67856
2.6808
2.68577
2.69111
2.69606
2.70037
2.70301
1.70773
1.70824
1.70886
1.70925
1.70928
1.70901
1.70853
1.70857
1.70949
1.71108
1.71308
1.715
1.71594
1.7162
1.71619
1.71555
1.71454
1.71434
1.71466
1.71562
1.7169
1.7181
1.71873
1.71858
1.71824
1.71762
1.71688
1.71619
1.71584
1.71588
1.71602
1.71569
1.71495
1.71386
1.7122
1.71082
1.70994
1.70902
1.70812
1.70741
1.70698
1.70645
1.70515
1.70355
1.70194
1.70029
1.69899
1.69811
1.69737
1.69688
1.6964
1.69574
1.69447
1.69264
1.69062
1.68859
1.68682
1.68547
1.68503
1.68506
1.68508
1.68411
1.68236
1.68068
1.67917
1.67809
1.67705
1.67585
1.67535
1.67523
1.67483
1.67365
1.67198
1.67023
1.66892
1.66779
1.66665
1.66603
1.6657
1.66487
1.66345
1.66189
1.66054
1.65987
1.65967
1.65995
1.66107
1.66195
1.66172
1.66095
1.65982
1.65818
1.65647
1.65563
1.65545
1.65557
1.65621
1.65714
1.65757
1.65742
1.65691
1.65597
1.65516
1.65495
1.65504
1.6557
1.65624
1.65649
1.65686
1.65711
1.65697
1.65699
1.65709
1.65734
1.6579
1.65901
1.66047
1.66137
1.66159
1.66163
1.66156
1.66155
1.66159
1.66205
1.66269
1.66314
1.6635
1.66382
1.66422
1.66494
1.66596
1.66705
1.66806
1.66879
1.66914
1.66924
1.6691
1.66834
1.66717
1.66665
1.66683
1.66751
1.66849
1.66964
1.67061
1.67147
1.67189
1.67192
1.67172
1.6713
1.67098
1.67067
1.67009
1.66908
1.66789
1.66693
1.66677
1.66703
1.66779
1.6688
1.67001
1.67128
1.67167
1.67164
1.67146
1.67072
1.66887
1.66658
1.66525
1.66453
1.66419
1.66438
1.66496
1.66538
1.66543
1.66547
1.66552
1.6655
1.66473
1.98233
2.61059
2.71298
2.72108
2.72592
2.72683
2.72868
2.7307
2.7313
2.73096
2.72974
2.7279
2.72549
2.72301
2.72237
2.72269
2.72536
2.7294
2.73157
2.73247
2.73442
2.73814
2.7444
2.75363
2.76552
2.77679
2.78447
2.78875
2.79027
2.78992
2.78769
2.783
2.77678
2.77005
2.76368
2.75882
2.75548
2.75216
2.746
2.73802
2.72939
2.72014
2.71141
2.70423
2.69834
2.69417
2.69139
2.68839
2.68455
2.68082
2.67709
2.67383
2.67104
2.66896
2.66821
2.66884
2.67065
2.6726
2.67352
2.6729
2.67113
2.66933
2.66878
2.67027
2.67427
2.6782
2.67977
2.68039
2.68104
2.68232
2.68418
2.68645
2.68881
2.6911
1.6946
1.69593
1.6983
1.70005
1.70126
1.70219
1.70267
1.70299
1.70353
1.7042
1.70478
1.70533
1.70564
1.7058
1.70625
1.70656
1.70628
1.70521
1.7045
1.70456
1.70515
1.70565
1.70574
1.70631
1.70739
1.7078
1.70775
1.70719
1.706
1.70511
1.70476
1.70445
1.70406
1.70357
1.70278
1.7019
1.70113
1.70026
1.6996
1.69955
1.70001
1.70066
1.70059
1.69977
1.69837
1.69643
1.69368
1.6908
1.68869
1.68721
1.68614
1.68514
1.68454
1.68404
1.68316
1.68236
1.68192
1.68191
1.68186
1.68041
1.67816
1.67568
1.67273
1.66982
1.66835
1.66819
1.66847
1.66961
1.67118
1.67135
1.66993
1.66716
1.66366
1.66104
1.65999
1.65965
1.65976
1.66062
1.66102
1.65996
1.6579
1.65539
1.6526
1.65075
1.65008
1.65007
1.65155
1.65402
1.65506
1.65521
1.6551
1.65463
1.65318
1.65076
1.64876
1.64782
1.6476
1.64788
1.64893
1.65027
1.65103
1.65148
1.65173
1.65163
1.65113
1.65016
1.64913
1.64845
1.64811
1.64792
1.64858
1.65009
1.65165
1.65333
1.65502
1.65595
1.65603
1.65579
1.65495
1.6539
1.65305
1.65255
1.6529
1.65432
1.65602
1.65749
1.65877
1.66002
1.66124
1.66243
1.66354
1.66424
1.66443
1.66442
1.66433
1.66404
1.66335
1.66207
1.66111
1.66109
1.66157
1.66258
1.66406
1.66595
1.66758
1.66886
1.66949
1.66963
1.66942
1.66849
1.6671
1.66556
1.66385
1.66201
1.66016
1.65891
1.6587
1.65892
1.65997
1.66203
1.6643
1.66608
1.66719
1.66778
1.66789
1.66774
1.66658
1.6644
1.66259
1.66132
1.66009
1.65884
1.65799
1.65751
1.65723
1.65712
1.65757
1.65909
1.66013
1.92138
2.5847
2.70967
2.71837
2.72378
2.72401
2.72581
2.72884
2.73072
2.73125
2.7305
2.72791
2.72356
2.72001
2.71889
2.71961
2.7234
2.7287
2.73143
2.73221
2.73378
2.73659
2.74166
2.74923
2.75955
2.7698
2.77689
2.78117
2.78324
2.78379
2.78288
2.77972
2.77478
2.76897
2.76324
2.75836
2.75464
2.7511
2.74515
2.73706
2.72801
2.71871
2.71056
2.70376
2.69867
2.69561
2.6933
2.68992
2.68468
2.67871
2.673
2.66832
2.66491
2.66272
2.66135
2.66083
2.66118
2.66255
2.66425
2.66467
2.6618
2.65764
2.65406
2.65287
2.65566
2.66264
2.6693
2.67361
2.67533
2.67543
2.67396
2.6721
2.67171
2.67273
1.67713
1.67801
1.67884
1.67967
1.68062
1.68136
1.68173
1.68208
1.68289
1.68431
1.686
1.68759
1.68884
1.68989
1.69083
1.69175
1.6922
1.6919
1.6907
1.68972
1.68917
1.68871
1.68824
1.68806
1.6882
1.6884
1.6886
1.68888
1.68914
1.68941
1.68942
1.68929
1.68908
1.68865
1.6877
1.68631
1.68504
1.68376
1.68238
1.68163
1.68166
1.68219
1.68228
1.68185
1.68126
1.68035
1.67907
1.6776
1.67603
1.67428
1.67244
1.67087
1.66944
1.66768
1.66607
1.66506
1.66478
1.66489
1.66506
1.66483
1.66358
1.66177
1.65924
1.65603
1.65373
1.65241
1.65213
1.65281
1.65441
1.65488
1.65426
1.65251
1.65001
1.6472
1.6451
1.64377
1.64349
1.64376
1.64386
1.64322
1.64198
1.64085
1.6396
1.63826
1.63727
1.63682
1.63715
1.63836
1.63913
1.63939
1.63954
1.63951
1.63896
1.63791
1.63712
1.63643
1.63556
1.63496
1.63504
1.63542
1.63578
1.63635
1.63699
1.63742
1.63766
1.63791
1.63792
1.63729
1.63603
1.63513
1.63495
1.63531
1.63669
1.63879
1.64102
1.64278
1.64396
1.64438
1.64431
1.64328
1.64141
1.64034
1.64021
1.64064
1.64163
1.64301
1.64455
1.6461
1.6477
1.64936
1.65087
1.65189
1.65232
1.65245
1.65246
1.65236
1.6519
1.65094
1.64982
1.64917
1.64911
1.64946
1.65049
1.6523
1.65465
1.65676
1.65812
1.65873
1.65885
1.65862
1.65775
1.65617
1.65409
1.65176
1.64957
1.64818
1.64763
1.64753
1.64778
1.64907
1.6512
1.65295
1.65421
1.6551
1.65534
1.65512
1.65399
1.65244
1.65141
1.65064
1.65002
1.64918
1.64818
1.64698
1.64577
1.64526
1.64521
1.64605
1.64712
1.81998
2.52916
2.696
2.71018
2.71956
2.72123
2.72312
2.72649
2.72931
2.73043
2.72989
2.72661
2.72106
2.71704
2.71485
2.71434
2.71659
2.72137
2.72434
2.72444
2.72506
2.72661
2.73025
2.73652
2.74587
2.75659
2.76466
2.7702
2.77381
2.77583
2.77628
2.77523
2.77222
2.76749
2.76198
2.75667
2.75216
2.74823
2.74377
2.73711
2.72877
2.71976
2.71142
2.70412
2.69838
2.69422
2.69092
2.68724
2.68214
2.6758
2.66899
2.66237
2.65692
2.65309
2.65025
2.64779
2.64529
2.64328
2.64238
2.64227
2.64081
2.63704
2.63345
2.63155
2.63219
2.63715
2.64448
2.6502
2.65205
2.65271
2.65183
2.64934
2.64779
2.64867
1.64843
1.65031
1.65125
1.6517
1.65181
1.65121
1.64952
1.64845
1.64851
1.64956
1.65118
1.65291
1.65483
1.65668
1.65824
1.65989
1.66113
1.66115
1.66029
1.66019
1.66055
1.66098
1.66124
1.66137
1.66131
1.66073
1.65989
1.65955
1.65959
1.65995
1.66083
1.66216
1.66335
1.66383
1.66374
1.66292
1.66172
1.66042
1.65891
1.6573
1.65593
1.65467
1.65322
1.65183
1.65049
1.64945
1.64907
1.64886
1.64862
1.64856
1.64863
1.64849
1.64727
1.64502
1.64272
1.64054
1.63855
1.63673
1.63562
1.63518
1.63452
1.63342
1.63223
1.63133
1.63059
1.63
1.62942
1.62859
1.62749
1.62644
1.6257
1.62525
1.6247
1.62389
1.62287
1.62169
1.62009
1.61832
1.61679
1.61537
1.61407
1.61335
1.61321
1.61328
1.61366
1.61481
1.61615
1.61644
1.61649
1.6164
1.61558
1.61371
1.61241
1.61226
1.61254
1.6132
1.61417
1.61508
1.6153
1.61501
1.61435
1.61335
1.61243
1.61214
1.61225
1.61306
1.61387
1.61423
1.61479
1.61544
1.61565
1.61569
1.61579
1.61615
1.61694
1.618
1.61941
1.6206
1.62129
1.62168
1.62206
1.62224
1.62219
1.62211
1.62215
1.62243
1.62304
1.62389
1.62498
1.62626
1.62744
1.62847
1.62906
1.62907
1.62889
1.62852
1.62791
1.62707
1.62615
1.6257
1.62576
1.62622
1.6273
1.62934
1.63226
1.635
1.6365
1.63689
1.6369
1.63686
1.63632
1.63481
1.63262
1.63015
1.62807
1.62734
1.62734
1.62766
1.62864
1.62996
1.63159
1.6336
1.63489
1.63512
1.63484
1.63339
1.63119
1.62989
1.62914
1.62835
1.62758
1.62716
1.62715
1.62728
1.62739
1.62734
1.62738
1.62767
1.62749
1.68947
2.43229
2.67375
2.69596
2.71029
2.71606
2.71983
2.72313
2.72448
2.72389
2.72184
2.71773
2.71245
2.70839
2.70527
2.70351
2.7038
2.70615
2.70854
2.70837
2.70831
2.7091
2.71177
2.71702
2.72538
2.73581
2.7446
2.75097
2.75531
2.75799
2.75941
2.75981
2.75926
2.75729
2.75397
2.74979
2.74513
2.74054
2.73644
2.7319
2.72627
2.71931
2.71176
2.70423
2.69709
2.69058
2.68492
2.67992
2.67471
2.66866
2.66151
2.65373
2.64646
2.64036
2.63564
2.63148
2.6267
2.62092
2.61568
2.6124
2.61089
2.60943
2.60775
2.60688
2.60715
2.60966
2.61404
2.61652
2.61711
2.61754
2.6169
2.61545
2.61525
2.6172
1.61091
1.61216
1.61276
1.61292
1.61282
1.61196
1.61086
1.61068
1.61106
1.61216
1.61359
1.61524
1.61655
1.61794
1.61963
1.62129
1.62211
1.62185
1.62123
1.62145
1.62201
1.62261
1.62313
1.62335
1.62316
1.62222
1.62117
1.62072
1.62072
1.62113
1.62243
1.62441
1.62616
1.6271
1.62719
1.62662
1.62567
1.62465
1.6235
1.62221
1.62121
1.62012
1.61863
1.61714
1.61571
1.61456
1.61399
1.61374
1.61371
1.61404
1.61439
1.61416
1.61281
1.61099
1.60938
1.60775
1.60599
1.60435
1.60322
1.60235
1.60117
1.5999
1.5988
1.59801
1.59761
1.59743
1.59728
1.59663
1.59567
1.59472
1.59387
1.59351
1.59332
1.59301
1.5925
1.59152
1.58997
1.58823
1.58648
1.58494
1.58376
1.58298
1.58276
1.5829
1.58354
1.58478
1.58575
1.58605
1.58636
1.58648
1.58606
1.58436
1.5828
1.58262
1.58287
1.58372
1.58505
1.58605
1.58625
1.58611
1.58561
1.58475
1.58386
1.58344
1.5834
1.58356
1.58404
1.58466
1.58547
1.58621
1.58659
1.58678
1.58711
1.5878
1.58874
1.58957
1.59018
1.59075
1.59143
1.59229
1.59309
1.59353
1.59351
1.59334
1.59334
1.59359
1.5942
1.59511
1.59629
1.59764
1.59886
1.60003
1.60092
1.601
1.60084
1.60043
1.59976
1.59879
1.59764
1.59709
1.59712
1.59753
1.59869
1.60089
1.60419
1.60775
1.6098
1.60996
1.60984
1.60946
1.60871
1.60713
1.60489
1.60226
1.59975
1.59835
1.59806
1.59824
1.59906
1.60016
1.60167
1.60387
1.60595
1.60679
1.60674
1.60565
1.60379
1.60262
1.60167
1.60049
1.59928
1.59867
1.59868
1.59897
1.59911
1.59926
1.59958
1.6
1.60016
1.60372
2.29541
2.6498
2.68097
2.69467
2.704
2.71002
2.71299
2.71291
2.71044
2.70628
2.70215
2.69821
2.69457
2.69118
2.68841
2.68685
2.68689
2.68776
2.68772
2.68636
2.68623
2.68706
2.68976
2.69498
2.70262
2.71026
2.7165
2.72157
2.72514
2.7275
2.72923
2.73063
2.73138
2.73152
2.73096
2.72898
2.72577
2.72196
2.71804
2.71444
2.71049
2.70564
2.69975
2.69278
2.68503
2.67699
2.66945
2.66302
2.65699
2.65047
2.64264
2.63372
2.62503
2.61758
2.61145
2.60568
2.59914
2.59197
2.58615
2.58282
2.58158
2.5813
2.58122
2.58113
2.58142
2.58174
2.58078
2.58004
2.57943
2.57904
2.57918
2.58023
2.58268
1.57352
1.57366
1.57359
1.57311
1.57224
1.5715
1.57139
1.57174
1.57263
1.5737
1.57515
1.57675
1.57784
1.57892
1.58024
1.58152
1.58186
1.58156
1.58178
1.58268
1.5833
1.58375
1.58392
1.58384
1.58326
1.5822
1.58136
1.58119
1.58135
1.58216
1.58382
1.58567
1.58696
1.58737
1.58706
1.58608
1.58535
1.58461
1.58377
1.58283
1.58208
1.58118
1.57982
1.57854
1.5777
1.57736
1.57723
1.57724
1.57739
1.57751
1.57735
1.57654
1.57518
1.57365
1.5723
1.57094
1.56962
1.56869
1.56837
1.56808
1.56718
1.56612
1.56514
1.56409
1.56308
1.56241
1.56191
1.56143
1.56111
1.56114
1.56158
1.56187
1.56161
1.56082
1.55978
1.5584
1.55685
1.55549
1.55438
1.55365
1.55337
1.55313
1.55307
1.55321
1.55349
1.55348
1.55343
1.55344
1.55343
1.55339
1.55322
1.55286
1.55267
1.55277
1.55322
1.55392
1.55434
1.55434
1.55421
1.55377
1.55313
1.55271
1.55265
1.55278
1.55326
1.55386
1.55433
1.55471
1.5549
1.55472
1.55402
1.55379
1.55426
1.55551
1.55682
1.55812
1.55932
1.5602
1.56085
1.56135
1.56155
1.56132
1.56045
1.55996
1.55997
1.56024
1.56073
1.56148
1.56253
1.56384
1.56535
1.56705
1.56845
1.5693
1.56952
1.56944
1.56906
1.56813
1.56666
1.56546
1.56517
1.56525
1.56578
1.56717
1.56977
1.57305
1.57606
1.57768
1.57798
1.57801
1.5778
1.57684
1.57484
1.57207
1.56929
1.56717
1.56583
1.56557
1.56565
1.56604
1.56697
1.5684
1.5701
1.57124
1.57147
1.57125
1.57062
1.57018
1.56981
1.56935
1.56881
1.56845
1.56824
1.56775
1.56697
1.56647
1.5663
1.56633
1.56653
1.56662
2.09899
2.60404
2.66768
2.67756
2.68454
2.68804
2.68965
2.68924
2.68652
2.68225
2.67943
2.67708
2.67386
2.66995
2.66621
2.66324
2.66161
2.6613
2.66085
2.65819
2.65615
2.65531
2.65576
2.65807
2.66285
2.66876
2.67416
2.67903
2.68327
2.6866
2.68899
2.69087
2.69284
2.6949
2.69705
2.69874
2.6991
2.69785
2.69515
2.69201
2.68871
2.68548
2.68208
2.67778
2.67185
2.66392
2.655
2.64653
2.63959
2.63357
2.62715
2.61889
2.60907
2.59938
2.59096
2.58413
2.57814
2.57195
2.56612
2.56188
2.55959
2.55876
2.55846
2.55796
2.55642
2.55387
2.55123
2.54897
2.54792
2.54797
2.54934
2.55171
2.5542
1.54342
1.5429
1.54176
1.54051
1.53942
1.53884
1.53879
1.53917
1.54007
1.54142
1.54308
1.54471
1.54621
1.54749
1.54818
1.54824
1.54762
1.54729
1.54799
1.54895
1.54944
1.54959
1.54962
1.54944
1.54866
1.54749
1.54683
1.54675
1.54696
1.54795
1.54943
1.55068
1.55144
1.55154
1.55103
1.55058
1.55033
1.54999
1.54957
1.54886
1.54797
1.54688
1.54564
1.5446
1.54405
1.54395
1.54406
1.54455
1.5452
1.54542
1.54522
1.54442
1.54295
1.54131
1.53987
1.53866
1.53789
1.53782
1.53813
1.53825
1.53794
1.53735
1.53658
1.53523
1.53373
1.53269
1.53204
1.53172
1.53166
1.53221
1.53327
1.53356
1.53334
1.53277
1.53178
1.53047
1.52943
1.52869
1.5281
1.52769
1.52741
1.52704
1.52674
1.52667
1.52663
1.52645
1.52633
1.52625
1.52609
1.52588
1.52578
1.52582
1.52584
1.52582
1.52598
1.52625
1.52633
1.52633
1.52618
1.52582
1.5255
1.52543
1.5255
1.5259
1.52648
1.52684
1.52705
1.52716
1.52698
1.52621
1.52568
1.52573
1.5263
1.52725
1.52819
1.52939
1.53063
1.5315
1.53204
1.53229
1.53216
1.53132
1.53051
1.53041
1.53048
1.53056
1.5306
1.53082
1.53145
1.53245
1.53388
1.53546
1.53697
1.53833
1.53897
1.53902
1.53882
1.53778
1.53592
1.53452
1.5342
1.53426
1.53469
1.5357
1.53748
1.53992
1.54292
1.54526
1.546
1.5462
1.54614
1.54552
1.54377
1.54097
1.53853
1.53653
1.53509
1.53446
1.53449
1.53474
1.53538
1.5364
1.53762
1.53861
1.53888
1.53876
1.53816
1.53767
1.53747
1.53733
1.5373
1.53739
1.53737
1.53685
1.53613
1.53563
1.5353
1.53502
1.53483
1.53439
1.84511
2.51934
2.65344
2.65297
2.65658
2.65778
2.65867
2.65807
2.65592
2.65333
2.6527
2.65194
2.64927
2.64484
2.64057
2.63711
2.6347
2.63344
2.63232
2.62887
2.62532
2.62309
2.62234
2.62292
2.62532
2.62846
2.63093
2.63359
2.63668
2.64001
2.64323
2.64576
2.64748
2.64892
2.65099
2.65358
2.6566
2.65921
2.65976
2.65878
2.6567
2.65395
2.65101
2.64838
2.64529
2.64043
2.63304
2.62467
2.61687
2.61077
2.60565
2.59967
2.59138
2.58214
2.57348
2.56603
2.56019
2.55527
2.55054
2.54631
2.54298
2.5406
2.53884
2.53731
2.53551
2.53342
2.53142
2.52977
2.52899
2.52918
2.53045
2.53181
2.53223
1.5204
1.51824
1.51673
1.51596
1.51585
1.51605
1.51683
1.51816
1.52
1.52224
1.52435
1.52546
1.52559
1.52532
1.52392
1.52147
1.5198
1.51968
1.52013
1.52084
1.52126
1.52124
1.52126
1.52113
1.52049
1.51974
1.51953
1.51962
1.52024
1.52163
1.52313
1.52397
1.52414
1.52366
1.52273
1.52212
1.52151
1.52103
1.52098
1.52097
1.52086
1.52064
1.52053
1.52065
1.52105
1.52151
1.52185
1.52189
1.52164
1.52069
1.51901
1.51714
1.51554
1.51459
1.51422
1.5142
1.51481
1.51651
1.51821
1.51873
1.51854
1.51709
1.51431
1.51134
1.50951
1.50878
1.50865
1.50885
1.50994
1.51179
1.51298
1.51321
1.51305
1.51216
1.51069
1.50955
1.50893
1.50848
1.50814
1.50793
1.50766
1.50717
1.50668
1.50636
1.50606
1.50568
1.50528
1.50506
1.50501
1.5051
1.50538
1.50569
1.50575
1.50561
1.50517
1.50489
1.50467
1.50432
1.50392
1.50377
1.50385
1.50427
1.50498
1.50581
1.50639
1.50662
1.50651
1.50582
1.50457
1.50359
1.50333
1.50342
1.50393
1.50479
1.5061
1.50763
1.50892
1.50959
1.50966
1.50913
1.50771
1.50636
1.50597
1.50599
1.50623
1.50652
1.50671
1.50704
1.50785
1.50909
1.51051
1.51178
1.51287
1.51376
1.5142
1.51428
1.51397
1.51255
1.51069
1.50971
1.50955
1.50962
1.5099
1.51065
1.51183
1.51348
1.51552
1.51756
1.51834
1.51836
1.51828
1.51781
1.51641
1.51414
1.51217
1.51067
1.50934
1.50835
1.50795
1.50792
1.50823
1.50905
1.51001
1.51091
1.51152
1.51164
1.51141
1.51114
1.51114
1.5113
1.51163
1.51186
1.51178
1.51121
1.51041
1.50954
1.5087
1.50795
1.50771
1.50763
1.60147
2.41035
2.64667
2.63746
2.63495
2.63298
2.6314
2.63004
2.62828
2.62703
2.62728
2.62719
2.62463
2.61973
2.61482
2.61073
2.60817
2.60698
2.60631
2.60366
2.59959
2.59627
2.59388
2.5924
2.59277
2.59422
2.59478
2.59548
2.59681
2.59875
2.60105
2.60303
2.6042
2.60474
2.60496
2.60652
2.60947
2.61347
2.61802
2.62011
2.62
2.61874
2.61619
2.61339
2.61145
2.60988
2.60642
2.59989
2.59283
2.58624
2.58119
2.57675
2.57142
2.56486
2.55827
2.55188
2.54609
2.5413
2.53734
2.53374
2.53014
2.52689
2.5242
2.52219
2.52105
2.52058
2.52045
2.52014
2.51953
2.51852
2.51715
2.51539
2.51355
1.50269
1.50196
1.50203
1.50271
1.50423
1.50649
1.50879
1.51035
1.51086
1.51072
1.51009
1.50926
1.50822
1.50644
1.5045
1.5031
1.50272
1.50264
1.50296
1.50367
1.50381
1.50364
1.50346
1.50322
1.50288
1.50279
1.50295
1.50362
1.50497
1.50644
1.50695
1.50685
1.50566
1.50368
1.50261
1.50221
1.50208
1.50223
1.50307
1.50451
1.50592
1.50695
1.50745
1.50746
1.50708
1.50641
1.50531
1.50392
1.50236
1.50077
1.49938
1.49859
1.49845
1.4987
1.49979
1.50198
1.50461
1.50607
1.50604
1.5049
1.50275
1.49957
1.49647
1.4947
1.49426
1.49434
1.4951
1.49708
1.49962
1.50087
1.50079
1.5
1.4985
1.49667
1.49538
1.49479
1.49453
1.49449
1.49459
1.49462
1.49453
1.49392
1.49302
1.49231
1.49176
1.49141
1.49134
1.49154
1.49246
1.4936
1.49421
1.4943
1.49376
1.49211
1.49048
1.48954
1.48893
1.48857
1.48852
1.48888
1.49
1.49158
1.49294
1.49358
1.49358
1.49286
1.49126
1.4895
1.48834
1.48798
1.48804
1.48851
1.48963
1.4914
1.49348
1.49471
1.49478
1.49431
1.49296
1.49107
1.48969
1.48932
1.48942
1.49003
1.49102
1.49212
1.49295
1.49352
1.49407
1.49464
1.49502
1.49531
1.49558
1.49569
1.4957
1.49556
1.49481
1.49323
1.49177
1.491
1.49062
1.49052
1.49068
1.49146
1.49249
1.49349
1.49471
1.49609
1.49689
1.4971
1.49705
1.49654
1.49521
1.49332
1.49164
1.49028
1.48913
1.48853
1.48838
1.48852
1.4894
1.49072
1.49189
1.49286
1.49361
1.49403
1.494
1.49354
1.4933
1.49315
1.49285
1.49231
1.49156
1.49066
1.48975
1.48902
1.48868
1.48858
1.48893
1.48973
1.49678
2.31406
2.64079
2.63175
2.62289
2.61966
2.61571
2.61312
2.61118
2.61045
2.61061
2.60948
2.60505
2.59854
2.59275
2.58891
2.58733
2.58735
2.58754
2.58511
2.58042
2.57547
2.57145
2.56894
2.56922
2.57164
2.57214
2.57127
2.56964
2.56845
2.56798
2.56889
2.57136
2.57281
2.57349
2.57386
2.57521
2.5775
2.58093
2.58454
2.58569
2.58534
2.58347
2.581
2.57894
2.5785
2.5781
2.57492
2.56973
2.56374
2.55832
2.55465
2.55182
2.54863
2.54476
2.54057
2.53542
2.53008
2.52598
2.52306
2.52033
2.51768
2.51545
2.51394
2.51334
2.51332
2.51341
2.51267
2.511
2.50874
2.50573
2.50282
2.50077
1.49406
1.49444
1.49602
1.49904
1.50188
1.50296
1.50292
1.50203
1.50074
1.49985
1.49867
1.49702
1.49598
1.49552
1.49528
1.4953
1.49599
1.4971
1.49785
1.49794
1.49749
1.49673
1.49614
1.49576
1.4957
1.49584
1.49638
1.49711
1.49745
1.49728
1.4964
1.49463
1.49262
1.49168
1.49158
1.49183
1.49289
1.4947
1.49637
1.49707
1.49705
1.49652
1.49586
1.49529
1.49443
1.49348
1.49247
1.49141
1.49047
1.48988
1.48979
1.49022
1.49151
1.49353
1.49559
1.49665
1.49657
1.49579
1.49445
1.49261
1.49006
1.48799
1.48701
1.48694
1.48742
1.4889
1.49084
1.49186
1.49175
1.49107
1.49011
1.48864
1.48727
1.48656
1.48638
1.48644
1.48686
1.48729
1.48737
1.48711
1.48611
1.48473
1.48371
1.48323
1.48309
1.48316
1.48392
1.48572
1.48733
1.48765
1.48727
1.48569
1.48339
1.48127
1.48009
1.47951
1.47932
1.47949
1.48037
1.48224
1.48424
1.48512
1.48509
1.48439
1.48318
1.48152
1.48006
1.47937
1.4793
1.47956
1.48049
1.48211
1.4839
1.4848
1.48475
1.48423
1.48331
1.48181
1.48047
1.47994
1.47998
1.48062
1.48199
1.48324
1.48375
1.48372
1.48323
1.48281
1.48251
1.48225
1.48219
1.48219
1.48219
1.48202
1.48176
1.48133
1.48046
1.47934
1.47856
1.47812
1.47795
1.47799
1.47841
1.47926
1.48009
1.4808
1.4815
1.48207
1.48222
1.48209
1.48157
1.48064
1.47941
1.47822
1.47742
1.477
1.47691
1.47718
1.47812
1.47978
1.48161
1.48289
1.4835
1.48373
1.48359
1.48265
1.48129
1.48019
1.47947
1.47886
1.47821
1.47764
1.47729
1.47711
1.47707
1.4773
1.47808
1.4794
1.48107
1.48208
1.48167
2.2005
2.63472
2.63923
2.62297
2.61714
2.61161
2.6081
2.60485
2.60222
2.59964
2.59544
2.58901
2.58311
2.5799
2.57827
2.57771
2.57707
2.5738
2.56901
2.56423
2.56039
2.55746
2.55682
2.55807
2.55949
2.55871
2.55644
2.55309
2.55046
2.54958
2.55083
2.55428
2.5567
2.55682
2.55586
2.55357
2.55281
2.55325
2.55548
2.55897
2.55996
2.55965
2.55775
2.55535
2.55393
2.55409
2.55379
2.55128
2.54724
2.54187
2.53751
2.53559
2.5344
2.53278
2.53041
2.52687
2.52223
2.51776
2.51479
2.51288
2.51132
2.51001
2.50903
2.50826
2.50709
2.50538
2.5035
2.50136
2.49919
2.49725
2.49561
2.49484
1.49069
1.49312
1.49642
1.49802
1.49807
1.49735
1.4961
1.49459
1.49284
1.49131
1.49081
1.49081
1.49085
1.49143
1.49293
1.49433
1.4949
1.49478
1.49381
1.49239
1.4911
1.49033
1.49002
1.49001
1.4904
1.49078
1.49078
1.49069
1.49029
1.4895
1.48807
1.48657
1.48613
1.48625
1.48704
1.48852
1.48976
1.49005
1.48977
1.48914
1.48855
1.48781
1.48679
1.48637
1.48648
1.48651
1.48632
1.48589
1.48582
1.48631
1.48719
1.48833
1.4894
1.48979
1.48962
1.48912
1.48846
1.48741
1.48574
1.48425
1.48333
1.48317
1.48355
1.48462
1.48573
1.4861
1.48582
1.48516
1.48441
1.48334
1.48205
1.4815
1.48142
1.48166
1.48243
1.48324
1.48349
1.48331
1.48231
1.48078
1.47933
1.47848
1.47821
1.47819
1.47849
1.47976
1.48193
1.48313
1.48308
1.48233
1.48076
1.47833
1.47583
1.47479
1.47449
1.47448
1.47488
1.47633
1.47849
1.47967
1.47972
1.47922
1.47836
1.47717
1.47557
1.47473
1.4746
1.47484
1.47569
1.47712
1.47841
1.47882
1.47864
1.47806
1.47733
1.47621
1.47493
1.4745
1.47452
1.47511
1.47654
1.47784
1.47814
1.47776
1.47668
1.4757
1.4748
1.4739
1.47364
1.47376
1.47417
1.47481
1.47501
1.47483
1.47434
1.47361
1.47265
1.47216
1.47216
1.4722
1.4725
1.47319
1.47398
1.47442
1.47443
1.47436
1.47418
1.47378
1.47326
1.47273
1.47217
1.47157
1.47098
1.47073
1.47089
1.47144
1.47227
1.47342
1.47481
1.47562
1.47574
1.47579
1.47562
1.4751
1.47418
1.47254
1.47115
1.47048
1.47014
1.47
1.46998
1.47007
1.47053
1.47139
1.47249
1.47362
1.47444
1.47472
1.47457
1.47399
1.47236
2.08536
2.62225
2.64579
2.62634
2.61886
2.61245
2.60779
2.60285
2.59788
2.5926
2.58668
2.58103
2.5776
2.57661
2.57658
2.57457
2.56957
2.56314
2.55786
2.55459
2.55317
2.55331
2.55346
2.55227
2.55042
2.54857
2.54695
2.54525
2.54408
2.54393
2.54435
2.54477
2.54518
2.546
2.54539
2.54362
2.54198
2.54184
2.54315
2.54604
2.54783
2.54778
2.54647
2.54357
2.54089
2.53947
2.53932
2.53837
2.53578
2.53182
2.52669
2.5231
2.52206
2.52158
2.5206
2.51872
2.51607
2.51289
2.50968
2.50742
2.50604
2.50507
2.5042
2.50281
2.50066
2.49792
2.49484
2.49246
2.49082
2.49013
2.49079
2.49252
1.49162
1.49432
1.49485
1.49438
1.49352
1.49221
1.49009
1.48792
1.48712
1.48713
1.48719
1.48793
1.48989
1.492
1.49289
1.49282
1.49188
1.49026
1.48877
1.48736
1.48618
1.48554
1.48519
1.4852
1.48573
1.48602
1.48594
1.48575
1.48516
1.48391
1.48305
1.48293
1.4832
1.48419
1.48532
1.4856
1.48538
1.48494
1.48434
1.48342
1.48232
1.48186
1.48196
1.48232
1.4831
1.484
1.48457
1.48493
1.485
1.48495
1.48498
1.48492
1.48468
1.48435
1.48393
1.48319
1.48221
1.4815
1.48102
1.48077
1.48109
1.48211
1.48295
1.48314
1.48273
1.4817
1.48081
1.47979
1.47866
1.47811
1.47801
1.47815
1.47904
1.4805
1.48126
1.48131
1.48074
1.47935
1.47752
1.47588
1.4752
1.47508
1.47513
1.47566
1.47725
1.47924
1.47982
1.47954
1.47885
1.47767
1.47538
1.47294
1.47201
1.47186
1.47196
1.47272
1.47451
1.47605
1.47635
1.476
1.47542
1.47466
1.47336
1.47218
1.47185
1.47192
1.47254
1.47389
1.47517
1.47555
1.47532
1.47462
1.47385
1.47286
1.47169
1.47114
1.47105
1.47134
1.47265
1.47448
1.4752
1.47507
1.47415
1.47264
1.47077
1.46918
1.46877
1.46886
1.46916
1.46974
1.47099
1.4724
1.47272
1.47261
1.472
1.47091
1.47014
1.47013
1.47024
1.47043
1.47069
1.47081
1.47067
1.47039
1.47001
1.46958
1.46915
1.46881
1.46854
1.46832
1.46824
1.46825
1.46826
1.46818
1.46817
1.46834
1.46868
1.46915
1.46968
1.47002
1.47002
1.46991
1.46943
1.46844
1.46717
1.46628
1.46587
1.46579
1.46587
1.46625
1.46709
1.46821
1.46919
1.46975
1.46984
1.46969
1.46915
1.46857
1.46801
1.46721
1.46524
1.99242
2.60542
2.65129
2.63275
2.62443
2.61668
2.6103
2.60363
2.59693
2.59028
2.58366
2.57903
2.57624
2.57521
2.5741
2.57101
2.56588
2.55911
2.55441
2.55156
2.55146
2.55229
2.55176
2.54904
2.54596
2.54341
2.54209
2.54302
2.54428
2.54364
2.54147
2.5393
2.53804
2.53789
2.5397
2.54079
2.54061
2.54012
2.53951
2.5392
2.53943
2.54026
2.53971
2.53727
2.5335
2.53039
2.52889
2.52837
2.52707
2.52462
2.5208
2.51571
2.51183
2.51043
2.51007
2.50993
2.50951
2.50852
2.50657
2.5038
2.50122
2.4993
2.49759
2.49604
2.4944
2.49208
2.48904
2.4859
2.48376
2.48332
2.48499
2.48787
1.49252
1.49248
1.4919
1.49093
1.48915
1.48656
1.48483
1.48461
1.48459
1.4849
1.48658
1.48928
1.49117
1.49138
1.49089
1.4896
1.48779
1.48582
1.48413
1.48289
1.48226
1.48207
1.48216
1.48279
1.48332
1.48325
1.48303
1.4826
1.48187
1.48123
1.4811
1.48136
1.4822
1.48276
1.48271
1.48241
1.48195
1.48107
1.47994
1.47923
1.4791
1.47916
1.47975
1.48127
1.48289
1.4837
1.48398
1.48378
1.48265
1.48156
1.48119
1.48095
1.48056
1.47991
1.47922
1.47889
1.47876
1.47871
1.47921
1.48049
1.48158
1.4819
1.4816
1.48032
1.4787
1.47725
1.47617
1.47564
1.47556
1.47553
1.47606
1.4777
1.47939
1.47988
1.47973
1.4789
1.47732
1.47522
1.47359
1.47306
1.47301
1.47312
1.47381
1.47547
1.47697
1.47713
1.47677
1.47629
1.47537
1.47343
1.47137
1.47058
1.47048
1.47075
1.4718
1.47335
1.47406
1.47387
1.47338
1.47288
1.47206
1.47086
1.47014
1.47005
1.4703
1.47138
1.47284
1.47355
1.47353
1.47298
1.47207
1.47087
1.4696
1.46889
1.46873
1.46874
1.46946
1.47136
1.47306
1.47333
1.47296
1.47192
1.47011
1.46773
1.46619
1.46597
1.46597
1.46626
1.46745
1.46946
1.47119
1.47163
1.47153
1.47095
1.46977
1.46877
1.46837
1.46818
1.46803
1.46793
1.46782
1.46766
1.46746
1.4672
1.46675
1.4663
1.46612
1.46623
1.46654
1.46661
1.46656
1.46636
1.46579
1.46494
1.46459
1.46461
1.46475
1.465
1.46527
1.46551
1.46561
1.46553
1.46529
1.46473
1.464
1.46379
1.46392
1.46444
1.46534
1.46628
1.46688
1.46702
1.46677
1.46616
1.46553
1.46498
1.46434
1.46353
1.46257
1.46194
1.46134
1.92388
2.59087
2.65767
2.64029
2.6318
2.62308
2.61486
2.60624
2.59826
2.59097
2.58455
2.57975
2.57668
2.5744
2.57182
2.56787
2.56381
2.56035
2.55601
2.55265
2.55108
2.55112
2.55013
2.54791
2.54509
2.54251
2.54173
2.54336
2.54524
2.54417
2.54126
2.53724
2.5345
2.53366
2.53636
2.54058
2.54135
2.54004
2.53712
2.53422
2.53285
2.53256
2.53266
2.53131
2.52846
2.52469
2.52126
2.51934
2.51868
2.51754
2.51534
2.51172
2.5066
2.50221
2.50006
2.49952
2.50013
2.50114
2.50119
2.49944
2.49635
2.49238
2.48879
2.48605
2.48398
2.4829
2.48184
2.47954
2.47696
2.47526
2.47511
2.47526
1.491
1.49028
1.489
1.48675
1.48419
1.48315
1.48298
1.48297
1.48389
1.48625
1.48895
1.48986
1.48974
1.48908
1.48782
1.48574
1.48319
1.48133
1.48055
1.48032
1.48023
1.48045
1.48138
1.48242
1.48251
1.48229
1.48181
1.4811
1.48057
1.4805
1.48067
1.48111
1.48122
1.48105
1.48067
1.47998
1.47894
1.47805
1.47764
1.47754
1.47772
1.47879
1.48075
1.48242
1.48295
1.48295
1.48237
1.48096
1.47941
1.47847
1.47793
1.47738
1.47688
1.47673
1.47672
1.47673
1.47736
1.47879
1.4804
1.48117
1.48116
1.48037
1.47862
1.47631
1.47438
1.47363
1.47351
1.47349
1.47368
1.4749
1.47709
1.47865
1.47882
1.47837
1.47735
1.47562
1.47334
1.47189
1.47154
1.47152
1.47169
1.47256
1.47418
1.4752
1.4751
1.47473
1.47426
1.47335
1.47176
1.47036
1.4698
1.46978
1.47033
1.47158
1.47256
1.47261
1.47214
1.47151
1.47075
1.4698
1.46901
1.46876
1.46878
1.4693
1.47072
1.47212
1.47246
1.4722
1.47138
1.47006
1.46845
1.46733
1.467
1.46695
1.46713
1.46834
1.47055
1.47183
1.47181
1.47124
1.47013
1.46815
1.46565
1.46443
1.46425
1.46424
1.46481
1.46643
1.46866
1.46994
1.47002
1.46975
1.46917
1.46819
1.46706
1.46634
1.46602
1.46581
1.46567
1.46559
1.46547
1.46522
1.46487
1.46457
1.46444
1.46443
1.46471
1.46536
1.46561
1.46547
1.46507
1.46436
1.46334
1.46236
1.46187
1.46168
1.46163
1.46181
1.46231
1.46301
1.46347
1.46355
1.46345
1.46322
1.46331
1.46374
1.46436
1.46499
1.4653
1.46523