/*--------------------------------*- C++ -*----------------------------------*\
  =========                 |
  \\      /  F ield         | OpenFOAM: The Open Source CFD Toolbox
   \\    /   O peration     | Website:  https://openfoam.org
    \\  /    A nd           | Version:  7
     \\/     M anipulation  |
\*---------------------------------------------------------------------------*/
FoamFile
{
    version     2.0;
    format      ascii;
    class       volScalarField;
    location    "3.6";
    object      rho;
}
// * * * * * * * * * * * * * * * * * * * * * * * * * * * * * * * * * * * * * //

dimensions      [1 -3 0 0 0 0 0];

internalField   nonuniform List<scalar> 
16192
(
1.40001
1.40001
1.40001
1.40001
1.40001
1.40001
1.40001
1.40001
1.40001
1.40001
1.40001
1.40001
1.40001
1.40001
1.40001
1.40001
1.40001
1.40001
1.40001
1.40001
1.40001
1.40001
1.40001
1.40001
1.40001
1.40001
1.40001
1.40001
1.40001
1.40001
1.40001
1.40001
1.40001
1.40001
1.40001
1.40001
1.40001
1.40001
1.40001
1.40001
1.40001
1.40001
1.40001
1.40001
1.40001
1.40001
1.40001
1.40001
1.40001
1.40001
1.40001
1.40001
1.40001
1.40001
1.40001
1.40001
1.40001
1.40001
1.40001
1.40001
1.40001
1.40001
1.40001
1.40001
1.40001
1.40001
1.40001
1.40001
1.40001
1.40001
1.40001
1.40001
1.40001
1.40001
1.40001
1.40001
1.40001
1.40001
1.40001
1.40001
1.40001
1.40001
1.40001
1.40001
1.40001
1.40001
1.40001
1.40001
1.40001
1.40001
1.40001
1.40001
1.40001
1.40001
1.40001
1.40001
1.40001
1.40001
1.40001
1.40001
1.40001
1.40001
1.40001
1.40001
1.40001
1.40001
1.40001
1.40001
1.40001
1.40001
1.40001
1.40001
1.40001
1.40001
1.40001
1.40001
1.40001
1.40001
1.40001
1.40001
1.40001
1.40001
1.40001
1.40001
1.40001
1.40001
1.40001
1.40001
1.40001
1.40001
1.40001
1.40001
1.40001
1.40001
1.40001
1.40001
1.40001
1.40001
1.40001
1.40001
1.40001
1.40001
1.40001
1.40001
1.40001
1.40001
1.40001
1.40001
1.40001
1.40001
1.40001
1.40001
1.40001
1.40001
1.40001
1.40001
1.40001
1.40001
1.40001
1.40001
1.40001
1.40001
1.40001
1.40001
1.40001
1.40001
1.40001
1.40001
1.40001
1.40001
1.40001
1.40001
1.40001
1.40001
1.40001
1.40001
1.40001
1.40001
1.40001
1.40001
1.40001
1.40001
1.40001
1.40001
1.40001
1.40001
1.40001
1.40001
1.40001
1.40001
1.40001
1.40001
1.40001
1.40001
1.40001
1.40001
1.40001
1.40001
1.40001
1.40001
1.40001
1.40001
1.40001
1.40001
1.40001
1.40001
1.40001
1.40001
1.40001
1.40001
1.40001
1.40001
1.40001
1.40001
1.40001
1.40001
1.40001
1.40001
1.40001
1.40001
1.40001
1.40001
1.40001
1.40001
1.40001
1.40001
1.40001
1.40001
1.40001
1.40001
1.40001
1.40001
1.40001
1.40001
1.40001
1.40001
1.40001
1.40001
1.40001
1.40001
1.40001
1.40001
1.40001
1.40001
1.40001
1.40001
1.40001
1.40001
1.40001
1.40001
1.40001
1.40001
1.40001
1.40001
1.40001
1.40001
1.40001
1.40001
1.40001
1.40001
1.40001
1.40001
1.40001
1.40001
1.40001
1.40001
1.40001
1.40001
1.40001
1.40001
1.40001
1.40001
1.40001
1.40001
1.40001
1.40001
1.40001
1.40001
1.40001
1.40001
1.40001
1.40001
1.40001
1.40001
1.40001
1.40001
1.40001
1.40001
1.40001
1.40001
1.40001
1.40001
1.40001
1.40001
1.40001
1.40001
1.40001
1.40001
1.40001
1.40001
1.40001
1.40001
1.40001
1.40001
1.40001
1.40001
1.40001
1.40001
1.40001
1.40001
1.40001
1.40001
1.40001
1.40001
1.40001
1.40001
1.40001
1.40001
1.40001
1.40001
1.40001
1.40001
1.40001
1.40001
1.40001
1.40001
1.40001
1.40001
1.40001
1.40001
1.40001
1.40001
1.40001
1.40001
1.40001
1.40001
1.40001
1.40001
1.40001
1.40001
1.40001
1.40001
1.40001
1.40001
1.40001
1.40001
1.40001
1.40001
1.40001
1.40001
1.40001
1.40001
1.40001
1.40001
1.40001
1.40001
1.40001
1.40001
1.40001
1.40001
1.40001
1.40001
1.40001
1.40001
1.40001
1.40001
1.40001
1.40001
1.40001
1.40001
1.40001
1.40001
1.40001
1.40001
1.40001
1.40001
1.40001
1.40001
1.40001
1.40001
1.40001
1.40001
1.40001
1.40001
1.40001
1.40001
1.40001
1.40001
1.40001
1.40001
1.40001
1.40001
1.40001
1.40001
1.40001
1.40001
1.40001
1.40001
1.40001
1.40001
1.40001
1.40001
1.40001
1.40001
1.40001
1.40001
1.40001
1.40001
1.40001
1.40001
1.40001
1.40001
1.40001
1.40001
1.40001
1.40001
1.40001
1.40001
1.40001
1.40001
1.40001
1.40001
1.40001
1.40001
1.40001
1.40001
1.40001
1.40001
1.40001
1.40001
1.40001
1.40001
1.40001
1.40001
1.40001
1.40001
1.40001
1.40001
1.40001
1.40001
1.40001
1.40001
1.40001
1.40001
1.40001
1.40001
1.40001
1.40001
1.40001
1.40001
1.40001
1.40001
1.40001
1.40001
1.40001
1.40001
1.40001
1.40001
1.40001
1.40001
1.40001
1.40001
1.40001
1.40001
1.40001
1.40001
1.40001
1.40001
1.40001
1.40001
1.40001
1.40001
1.40001
1.40001
1.40001
1.40001
1.40001
1.40001
1.40001
1.40001
1.40001
1.40001
1.40001
1.40001
1.40001
1.40001
1.40001
1.40001
1.40001
1.40001
1.40001
1.40001
1.40001
1.40001
1.40001
1.40001
1.40001
1.40001
1.40001
1.40001
1.40001
1.40001
1.40001
1.40001
1.40001
1.40001
1.40001
1.40001
1.40001
1.40001
1.40001
1.40001
1.40001
1.40001
1.40001
1.40001
1.40001
1.40001
1.40001
1.40001
1.40001
1.40001
1.40001
1.40001
1.40001
1.40001
1.40001
1.40001
1.40001
1.40001
1.40001
1.40001
1.40001
1.40001
1.40001
1.40001
1.40001
1.40001
1.40001
1.40001
1.40001
1.40001
1.40001
1.40001
1.40001
1.40001
1.40001
1.40001
1.40001
1.40001
1.40001
1.40001
1.40001
1.40001
1.40001
1.40001
1.40001
1.40001
1.40001
1.40001
1.40001
1.40001
1.40001
1.40001
1.40001
1.40001
1.40001
1.40001
1.40001
1.40001
1.40001
1.40001
1.40001
1.40001
1.40001
1.40001
1.40001
1.40001
1.40001
1.40001
1.40001
1.40001
1.40001
1.40001
1.40001
1.40001
1.40001
1.40001
1.40001
1.40001
1.40001
1.40001
1.40001
1.40001
1.40001
1.40001
1.40001
1.40001
1.40001
1.40001
1.40001
1.40001
1.40001
1.40001
1.40001
1.40001
1.40001
1.40001
1.40001
1.40001
1.40001
1.40001
1.40001
1.40001
1.40001
1.40001
1.40001
1.40001
1.40001
1.40001
1.40001
1.40001
1.40001
1.40001
1.40001
1.40001
1.40001
1.40001
1.40001
1.40001
1.40001
1.40001
1.40001
1.40001
1.40001
1.40001
1.40001
1.40001
1.40001
1.40001
1.40001
1.40001
1.40001
1.40001
1.40001
1.40001
1.40001
1.40001
1.40001
1.40001
1.40001
1.40001
1.40001
1.40001
1.40001
1.40001
1.40001
1.40001
1.40001
1.40001
1.40001
1.40001
1.40001
1.40001
1.40001
1.40001
1.40001
1.40001
1.40001
1.40001
1.40001
1.40001
1.40001
1.40001
1.40001
1.40001
1.40001
1.40001
1.40001
1.40001
1.40001
1.40001
1.40001
1.40001
1.40001
1.40001
1.40001
1.40001
1.40001
1.40001
1.40001
1.40001
1.40001
1.40001
1.40001
1.40001
1.40001
1.40001
1.40001
1.40001
1.40001
1.40001
1.40001
1.40001
1.40001
1.40001
1.40001
1.40001
1.40001
1.40001
1.40001
1.40001
1.40001
1.40001
1.40001
1.40001
1.40001
1.40001
1.40001
1.40001
1.40001
1.40001
1.40001
1.40001
1.40001
1.40001
1.40001
1.40001
1.40001
1.40001
1.40001
1.40001
1.40001
1.40001
1.40001
1.40001
1.40001
1.40001
1.40001
1.40001
1.40001
1.40001
1.40001
1.40001
1.40001
1.40001
1.40001
1.40001
1.40001
1.40001
1.40001
1.40001
1.40001
1.40001
1.40001
1.40001
1.40001
1.40001
1.40001
1.40001
1.40001
1.40001
1.40001
1.40001
1.40001
1.40001
1.40001
1.40001
1.40001
1.40001
1.40001
1.40001
1.40001
1.40001
1.40001
1.40001
1.40001
1.40001
1.40001
1.40001
1.40001
1.40001
1.40001
1.40001
1.40001
1.40001
1.40001
1.40001
1.40001
1.40001
1.40001
1.40001
1.40001
1.40001
1.40001
1.40001
1.40001
1.40001
1.40001
1.40001
1.40001
1.40001
1.40001
1.40001
1.40001
1.40001
1.40001
1.40001
1.40001
1.40001
1.40001
1.40001
1.40001
1.40001
1.40001
1.40001
1.40001
1.40001
1.40001
1.40001
1.40001
1.40001
1.40001
1.40001
1.40001
1.40001
1.40001
1.40001
1.40001
1.40001
1.40001
1.40001
1.40001
1.40001
1.40001
1.40001
1.40001
1.40001
1.40001
1.40001
1.40001
1.40001
1.40001
1.40001
1.40001
1.40001
1.40001
1.40001
1.40001
1.40001
1.40001
1.40001
1.40001
1.40001
1.40001
1.40001
1.40001
1.40001
1.40001
1.40001
1.40001
1.40001
1.40001
1.40001
1.40001
1.40001
1.40001
1.40001
1.40001
1.40001
1.40001
1.40001
1.40001
1.40001
1.40001
1.40001
1.40001
1.40001
1.40001
1.40001
1.40001
1.40001
1.40001
1.40001
1.40001
1.40001
1.40001
1.40001
1.40001
1.40001
1.40001
1.40001
1.40001
1.40001
1.40001
1.40001
1.40001
1.40001
1.40001
1.40001
1.40001
1.40001
1.40001
1.40001
1.40001
1.40001
1.40001
1.40001
1.40001
1.40001
1.40001
1.40001
1.40001
1.40001
1.40001
1.40001
1.40001
1.40001
1.40001
1.40001
1.40001
1.40001
1.40001
1.40001
1.40001
1.40001
1.40001
1.40001
1.40001
1.40001
1.40001
1.40001
1.40001
1.40001
1.40001
1.40001
1.40001
1.40001
1.40001
1.40001
1.40001
1.40001
1.40001
1.40001
1.40001
1.40001
1.40001
1.40001
1.40001
1.40001
1.40001
1.40001
1.40001
1.40001
1.40001
1.40001
1.40001
1.40001
1.40001
1.40001
1.40001
1.40001
1.40001
1.40001
1.40001
1.40001
1.40001
1.40001
1.40001
1.40001
1.40001
1.40001
1.40001
1.40001
1.40001
1.40001
1.40001
1.40001
1.40001
1.40001
1.40001
1.40001
1.40001
1.40001
1.40001
1.40001
1.40001
1.40001
1.40001
1.40001
1.40001
1.40001
1.40001
1.40001
1.40001
1.40001
1.40001
1.40001
1.40001
1.40001
1.40001
1.40001
1.40001
1.40001
1.40001
1.40001
1.40001
1.40001
1.40001
1.40001
1.40001
1.40001
1.40001
1.40001
1.40001
1.40001
1.40001
1.40001
1.40001
1.40001
1.40001
1.40001
1.40001
1.40001
1.40001
1.40001
1.40001
1.40001
1.40001
1.40001
1.40001
1.40001
1.40001
1.40001
1.40001
1.40001
1.40001
1.40001
1.40001
1.40001
1.40001
1.40001
1.40001
1.40001
1.40001
1.40001
1.40001
1.40001
1.40001
1.40001
1.40001
1.40001
1.40001
1.40001
1.40001
1.40001
1.40001
1.40001
1.40001
1.40001
1.40001
1.40001
1.40001
1.40001
1.40001
1.40001
1.40001
1.40001
1.40001
1.40001
1.40001
1.40001
1.40001
1.40001
1.40001
1.40001
1.40001
1.40001
1.40001
1.40001
1.40001
1.40001
1.40001
1.40001
1.40001
1.40001
1.40001
1.40001
1.40001
1.40001
1.40001
1.40001
1.40001
1.40001
1.40001
1.40001
1.40001
1.40001
1.40001
1.40001
1.40001
1.40001
1.40001
1.40001
1.40001
1.40001
1.40001
1.40001
1.40001
1.40001
1.40001
1.40001
1.40001
1.40001
1.40001
1.40001
1.40001
1.40001
1.40001
1.40001
1.40001
1.40001
1.40001
1.40001
1.40001
1.40001
1.40001
1.40001
1.40001
1.40001
1.40001
1.40001
1.40001
1.40001
1.40001
1.40001
1.40001
1.40001
1.40001
1.40001
1.40001
1.40001
1.40001
1.40001
1.40001
1.40001
1.40001
1.40001
1.40001
1.40001
1.40001
1.40001
1.40001
1.40001
1.40001
1.40001
1.40001
1.40001
1.40001
1.40001
1.40001
1.40001
1.40001
1.40001
1.40001
1.40001
1.40001
1.40001
1.40001
1.40001
1.40001
1.40001
1.40001
1.40001
1.40001
1.40001
1.40001
1.40001
1.40001
1.40001
1.40001
1.40001
1.40001
1.40001
1.40001
1.40001
1.40001
1.40001
1.40001
1.40001
1.40001
1.40001
1.40001
1.40001
1.40001
1.40001
1.40001
1.40001
1.40001
1.40001
1.40001
1.40001
1.40001
1.40001
1.40001
1.40001
1.40001
1.40001
1.40001
1.40001
1.40001
1.40001
1.40001
1.40001
1.40001
1.40001
1.40001
1.40001
1.40001
1.40001
1.40001
1.40001
1.40001
1.40001
1.40001
1.40001
1.40001
1.40001
1.40001
1.40001
1.40001
1.40001
1.40001
1.40001
1.40001
1.40001
1.40001
1.40001
1.40001
1.40001
1.40001
1.40001
1.40001
1.40001
1.40001
1.40001
1.40001
1.40001
1.40001
1.40001
1.40001
1.40001
1.40001
1.40001
1.40001
1.40001
1.40001
1.40001
1.40001
1.40001
1.40001
1.40001
1.40001
1.40001
1.40001
1.40001
1.40001
1.40001
1.40001
1.40001
1.40001
1.40001
1.40001
1.40001
1.40001
1.40001
1.40001
1.40001
1.40001
1.40001
1.40001
1.40001
1.40001
1.40001
1.40001
1.40001
1.40001
1.40001
1.40001
1.40001
1.40001
1.40001
1.40003
1.40363
1.4957
1.91038
2.74462
3.69221
3.77172
3.71405
3.71394
3.70947
3.68241
3.67703
3.6733
3.66183
3.66373
3.66101
3.63595
3.62407
3.62934
3.62313
3.59746
3.57523
3.56721
3.54965
3.52246
3.5132
3.50861
3.49288
3.47411
3.45825
3.44003
3.42289
3.41211
3.39729
3.38144
3.37173
3.36556
3.3611
3.3572
3.35173
3.3401
3.32421
3.30533
3.2841
3.25947
3.23977
3.23329
3.2293
3.21917
3.20111
3.17738
3.16159
3.15829
3.15845
3.16893
3.1878
3.20296
3.22339
3.24758
3.26415
3.28063
3.30346
3.32325
3.32705
3.32294
3.30867
3.2832
3.25371
3.23732
3.23376
3.23743
3.2401
3.23205
3.2131
3.18565
3.16133
3.14635
3.1335
3.11961
3.10216
3.07748
3.0469
3.03155
3.02954
3.03625
3.04335
3.03694
3.01775
2.9848
2.94661
2.92772
2.92338
2.92074
2.91612
2.90904
2.89642
2.87027
2.83851
2.82169
2.81889
2.82304
2.83232
2.82927
2.81836
2.79658
2.75654
2.7129
2.69177
2.68572
2.68644
2.70061
2.71023
2.70386
2.68447
2.65215
2.62222
2.61162
2.60885
2.60621
2.60129
2.59524
2.58588
2.56311
2.53066
2.51524
2.51254
2.51162
2.51492
2.51385
2.51015
2.50594
2.49767
2.47638
2.43715
2.40923
2.4027
2.4018
2.4124
2.43845
2.44612
2.44111
2.42797
2.39899
2.34516
2.30715
2.29594
2.29389
2.29665
2.31655
2.3419
2.34583
2.34136
2.33465
2.32061
2.28849
2.23374
2.20485
2.19895
2.19814
2.2048
2.22607
2.23466
2.23126
2.22584
2.21499
2.18996
2.17009
2.16799
2.18358
2.36047
3.01006
3.81898
4.22388
4.38928
4.40481
4.3849
4.33897
4.28975
4.27062
4.26749
1.40001
1.40001
1.40001
1.40001
1.40001
1.40001
1.40001
1.40001
1.40001
1.40001
1.40001
1.40001
1.40001
1.40001
1.40001
1.40001
1.40001
1.40001
1.40001
1.40001
1.40001
1.40001
1.40001
1.40001
1.40001
1.40001
1.40001
1.40001
1.40001
1.40001
1.40001
1.40001
1.40001
1.40001
1.40001
1.40001
1.40001
1.40001
1.40001
1.40001
1.40001
1.40001
1.40001
1.40001
1.40001
1.40001
1.40001
1.40001
1.40001
1.40001
1.40001
1.40003
1.40219
1.43924
1.72143
2.77501
3.53328
3.63056
3.71519
3.71979
3.70036
3.70248
3.69403
3.69902
3.68924
3.656
3.64394
3.64984
3.64973
3.62298
3.59404
3.58754
3.57488
3.54544
3.5287
3.52804
3.51731
3.49751
3.48029
3.4644
3.44417
3.43342
3.42701
3.41401
3.40297
3.39628
3.38949
3.38387
3.37621
3.3623
3.34521
3.32716
3.30745
3.28409
3.26358
3.25673
3.25326
3.24326
3.226
3.20367
3.18426
3.17859
3.17682
3.18236
3.18928
3.18808
3.18102
3.17544
3.19243
3.22039
3.25918
3.30767
3.32715
3.32849
3.32431
3.3068
3.28345
3.26912
3.26374
3.26319
3.26282
3.25436
3.23739
3.2097
3.17854
3.16375
3.15252
3.14024
3.12633
3.10818
3.08407
3.0718
3.07036
3.0764
3.07647
3.06586
3.04534
3.01422
2.97667
2.95619
2.9511
2.94839
2.94455
2.93779
2.92592
2.90026
2.86822
2.85084
2.84801
2.85123
2.85771
2.85374
2.84291
2.82097
2.78075
2.73785
2.71744
2.7126
2.71488
2.73081
2.73882
2.73085
2.70929
2.67413
2.64237
2.63071
2.62811
2.62746
2.62389
2.61853
2.61103
2.59182
2.55922
2.53817
2.53442
2.53271
2.53487
2.53509
2.53149
2.52739
2.51997
2.50045
2.46221
2.43155
2.42331
2.42222
2.43117
2.45779
2.46818
2.46332
2.44988
2.42057
2.36548
2.32676
2.31553
2.31361
2.31649
2.33676
2.36162
2.36406
2.35905
2.3522
2.33869
2.30938
2.25588
2.2237
2.21622
2.21501
2.21949
2.24151
2.25721
2.25575
2.25147
2.24154
2.21553
2.19011
2.18786
2.22844
2.53474
3.32311
4.03643
4.36668
4.43957
4.43534
4.40924
4.36903
4.32354
4.30256
4.29941
4.30821
1.40001
1.40001
1.40001
1.40001
1.40001
1.40001
1.40001
1.40001
1.40001
1.40001
1.40001
1.40001
1.40001
1.40001
1.40001
1.40001
1.40001
1.40001
1.40001
1.40001
1.40001
1.40001
1.40001
1.40001
1.40001
1.40001
1.40001
1.40001
1.40001
1.40001
1.40001
1.40001
1.40001
1.40001
1.40001
1.40001
1.40001
1.40001
1.40001
1.40001
1.40001
1.40001
1.40001
1.40001
1.40001
1.40001
1.40001
1.40001
1.40001
1.40001
1.40001
1.40001
1.40001
1.40055
1.42025
1.69699
2.686
3.33178
3.65042
3.77513
3.75565
3.74044
3.73693
3.71007
3.66743
3.65624
3.66751
3.67642
3.64583
3.6145
3.60577
3.59649
3.56886
3.54615
3.54285
3.53964
3.52195
3.50383
3.49009
3.47205
3.45461
3.45142
3.44639
3.43465
3.42909
3.42041
3.40947
3.39805
3.38316
3.36593
3.3484
3.33057
3.30881
3.28768
3.28009
3.27629
3.26595
3.24875
3.22838
3.21174
3.20622
3.20484
3.20799
3.20731
3.1974
3.17924
3.15681
3.15509
3.16616
3.19482
3.24439
3.30401
3.32316
3.32554
3.31822
3.30465
3.29633
3.29503
3.29245
3.28624
3.27497
3.2573
3.23105
3.19788
3.17857
3.16788
3.15872
3.1483
3.13545
3.1195
3.11111
3.11045
3.11197
3.10516
3.09053
3.06946
3.0395
3.0054
2.98582
2.98032
2.97741
2.9741
2.96755
2.95576
2.93051
2.89832
2.87997
2.87711
2.87954
2.88357
2.87871
2.86825
2.8465
2.80759
2.765
2.74493
2.74092
2.74481
2.76189
2.76754
2.75822
2.73485
2.6966
2.66328
2.65086
2.64802
2.64918
2.64854
2.64376
2.63724
2.62004
2.58764
2.56206
2.55658
2.55444
2.55586
2.55689
2.55342
2.54915
2.54213
2.52374
2.48735
2.4544
2.44398
2.44281
2.4505
2.47711
2.49012
2.48555
2.47187
2.44209
2.38593
2.34648
2.33507
2.33305
2.33571
2.35587
2.38093
2.38353
2.37836
2.37097
2.35687
2.32907
2.2785
2.24423
2.23487
2.23338
2.23649
2.25778
2.28042
2.28146
2.2778
2.26898
2.24318
2.20792
2.208
2.29794
2.77802
3.6317
4.24226
4.47777
4.48288
4.45131
4.4166
4.38499
4.35988
4.34554
4.3423
4.34785
4.33944
1.40001
1.40001
1.40001
1.40001
1.40001
1.40001
1.40001
1.40001
1.40001
1.40001
1.40001
1.40001
1.40001
1.40001
1.40001
1.40001
1.40001
1.40001
1.40001
1.40001
1.40001
1.40001
1.40001
1.40001
1.40001
1.40001
1.40001
1.40001
1.40001
1.40001
1.40001
1.40001
1.40001
1.40001
1.40001
1.40001
1.40001
1.40001
1.40001
1.40001
1.40001
1.40001
1.40001
1.40001
1.40001
1.40001
1.40001
1.40001
1.40001
1.40001
1.40001
1.40001
1.40001
1.40001
1.40032
1.41675
1.70405
2.5508
3.2367
3.723
3.80005
3.76913
3.7157
3.67856
3.66892
3.68604
3.70269
3.66451
3.63417
3.62476
3.61374
3.58813
3.56795
3.56008
3.56165
3.54928
3.52893
3.51864
3.50399
3.48461
3.47777
3.47725
3.46814
3.46077
3.45284
3.43354
3.41617
3.40184
3.38625
3.36989
3.35365
3.3337
3.31227
3.30356
3.29934
3.28826
3.27067
3.25135
3.23875
3.23519
3.23547
3.23725
3.23155
3.21722
3.1925
3.16069
3.15155
3.1529
3.16198
3.18471
3.22958
3.28853
3.30654
3.30849
3.30986
3.31212
3.32044
3.31914
3.31169
3.2981
3.27775
3.24959
3.21733
3.19546
3.18285
3.17454
3.16796
3.16179
3.15482
3.14974
3.14833
3.14212
3.12898
3.11118
3.09011
3.06069
3.0317
3.01472
3.00977
3.00809
3.00482
2.99817
2.98602
2.96054
2.92828
2.90921
2.90594
2.90789
2.90975
2.90415
2.8938
2.87283
2.83608
2.79504
2.77471
2.77128
2.77702
2.79379
2.79671
2.78561
2.76043
2.71987
2.68559
2.67246
2.66944
2.67096
2.67546
2.67181
2.66499
2.64741
2.61506
2.58704
2.57916
2.57672
2.57774
2.5795
2.57606
2.57172
2.56508
2.54744
2.51238
2.47713
2.46506
2.46355
2.47043
2.49687
2.51181
2.50768
2.4939
2.46374
2.40655
2.36657
2.35489
2.35276
2.35535
2.37556
2.40121
2.4042
2.3991
2.39091
2.37552
2.34761
2.29997
2.26596
2.25527
2.25376
2.2567
2.27683
2.30318
2.30708
2.30348
2.2934
2.27003
2.22928
2.23575
2.41808
3.06956
3.90868
4.37772
4.53262
4.5254
4.47975
4.42849
4.40231
4.38985
4.38686
4.39849
4.39773
4.38304
4.35529
1.40001
1.40001
1.40001
1.40001
1.40001
1.40001
1.40001
1.40001
1.40001
1.40001
1.40001
1.40001
1.40001
1.40001
1.40001
1.40001
1.40001
1.40001
1.40001
1.40001
1.40001
1.40001
1.40001
1.40001
1.40001
1.40001
1.40001
1.40001
1.40001
1.40001
1.40001
1.40001
1.40001
1.40001
1.40001
1.40001
1.40001
1.40001
1.40001
1.40001
1.40001
1.40001
1.40001
1.40001
1.40001
1.40001
1.40001
1.40001
1.40001
1.40001
1.40001
1.40001
1.40001
1.40001
1.40001
1.40028
1.41885
1.64624
2.23347
3.19235
3.76986
3.72303
3.68238
3.69206
3.70864
3.72105
3.6802
3.65421
3.64501
3.63441
3.60607
3.58918
3.58382
3.59039
3.58199
3.55953
3.54847
3.5405
3.52097
3.50886
3.50989
3.50453
3.49037
3.47706
3.45645
3.43356
3.41932
3.406
3.39088
3.37591
3.35838
3.33707
3.32669
3.32236
3.31137
3.29342
3.27505
3.2657
3.26365
3.265
3.26497
3.25716
3.24057
3.21424
3.17708
3.15866
3.15535
3.15596
3.16578
3.1823
3.2105
3.24851
3.2691
3.28499
3.3094
3.33171
3.3358
3.33204
3.32086
3.301
3.26909
3.23739
3.21529
3.20043
3.19277
3.18869
3.18826
3.18972
3.18772
3.18154
3.168
3.14911
3.12945
3.10583
3.07876
3.0563
3.04195
3.03728
3.03831
3.03685
3.02969
3.01679
2.99012
2.95776
2.93851
2.93472
2.9357
2.93587
2.92951
2.91915
2.89906
2.86566
2.82759
2.8075
2.80469
2.81185
2.82655
2.82547
2.81192
2.78528
2.74347
2.70934
2.696
2.69297
2.69491
2.7031
2.70184
2.69457
2.67476
2.64137
2.61176
2.60204
2.59976
2.60051
2.60288
2.59975
2.59528
2.58869
2.5716
2.53718
2.5005
2.48674
2.4849
2.49096
2.51692
2.53324
2.52956
2.51595
2.48566
2.42786
2.38709
2.37522
2.37308
2.37615
2.39723
2.42283
2.42578
2.4205
2.41099
2.39432
2.36565
2.32012
2.28839
2.27723
2.27554
2.27912
2.30018
2.32588
2.33016
2.32627
2.31588
2.29227
2.25368
2.28257
2.60801
3.42116
4.13798
4.45901
4.56909
4.56907
4.53751
4.47601
4.43065
4.41868
4.42366
4.44618
4.4459
4.42692
4.39119
4.3399
1.40001
1.40001
1.40001
1.40001
1.40001
1.40001
1.40001
1.40001
1.40001
1.40001
1.40001
1.40001
1.40001
1.40001
1.40001
1.40001
1.40001
1.40001
1.40001
1.40001
1.40001
1.40001
1.40001
1.40001
1.40001
1.40001
1.40001
1.40001
1.40001
1.40001
1.40001
1.40001
1.40001
1.40001
1.40001
1.40001
1.40001
1.40001
1.40001
1.40001
1.40001
1.40001
1.40001
1.40001
1.40001
1.40001
1.40001
1.40001
1.40001
1.40001
1.40001
1.40001
1.40001
1.40001
1.40001
1.40001
1.40026
1.41032
1.51271
2.05193
3.22981
3.54568
3.63385
3.72224
3.75609
3.70541
3.67452
3.66846
3.66426
3.62965
3.61099
3.60841
3.62379
3.61576
3.59213
3.57923
3.577
3.56206
3.53864
3.53482
3.53122
3.51516
3.49669
3.47914
3.45503
3.43527
3.42459
3.41228
3.39753
3.38204
3.36345
3.35025
3.34544
3.33664
3.31868
3.30031
3.2931
3.29164
3.29246
3.29082
3.28147
3.26391
3.23746
3.2017
3.17666
3.16984
3.16818
3.17132
3.1766
3.17967
3.18686
3.20524
3.23299
3.2709
3.31817
3.33827
3.34014
3.33684
3.32278
3.29094
3.25754
3.2378
3.22405
3.21676
3.21456
3.2189
3.22412
3.22095
3.20915
3.18971
3.16876
3.14507
3.11867
3.09586
3.07853
3.06675
3.06236
3.0652
3.0681
3.0609
3.04713
3.01991
2.98695
2.96717
2.96267
2.96245
2.96046
2.95334
2.9428
2.92421
2.89555
2.86164
2.84295
2.841
2.84921
2.85889
2.85376
2.8368
2.80887
2.7671
2.73445
2.72149
2.71883
2.72212
2.73285
2.73298
2.72422
2.70162
2.66668
2.63644
2.6256
2.62338
2.62436
2.62731
2.62445
2.61989
2.61338
2.59648
2.56229
2.52438
2.50912
2.5069
2.51224
2.53754
2.55459
2.55129
2.53789
2.50793
2.44998
2.40831
2.3961
2.39412
2.39816
2.42089
2.44548
2.44741
2.44139
2.43013
2.41254
2.38337
2.34011
2.31106
2.30018
2.29839
2.30251
2.32459
2.34864
2.35105
2.34599
2.33525
2.30968
2.28038
2.3592
2.85517
3.80046
4.32032
4.48661
4.58277
4.61124
4.59471
4.54653
4.48674
4.46698
4.46321
4.48003
4.48141
4.46285
4.42727
4.36834
4.31975
1.40001
1.40001
1.40001
1.40001
1.40001
1.40001
1.40001
1.40001
1.40001
1.40001
1.40001
1.40001
1.40001
1.40001
1.40001
1.40001
1.40001
1.40001
1.40001
1.40001
1.40001
1.40001
1.40001
1.40001
1.40001
1.40001
1.40001
1.40001
1.40001
1.40001
1.40001
1.40001
1.40001
1.40001
1.40001
1.40001
1.40001
1.40001
1.40001
1.40001
1.40001
1.40001
1.40001
1.40001
1.40001
1.40001
1.40001
1.40001
1.40001
1.40001
1.40001
1.40001
1.40001
1.40001
1.40001
1.40001
1.40001
1.40007
1.40315
1.4699
2.04682
3.04239
3.46697
3.71439
3.77035
3.72738
3.70945
3.69231
3.65334
3.63274
3.6329
3.65467
3.64299
3.61806
3.60849
3.60835
3.59438
3.5637
3.55122
3.5507
3.53819
3.51612
3.49812
3.48106
3.45602
3.44127
3.43337
3.42096
3.40487
3.3898
3.37635
3.36918
3.36233
3.34816
3.32863
3.32114
3.31931
3.31813
3.31469
3.30451
3.28666
3.25963
3.22666
3.20207
3.19355
3.19176
3.19226
3.18913
3.1804
3.17345
3.17512
3.18762
3.21662
3.2625
3.31639
3.33653
3.33978
3.33465
3.30853
3.27743
3.26098
3.25183
3.24834
3.24975
3.25294
3.25509
3.24912
3.23203
3.21013
3.1869
3.1595
3.13213
3.11326
3.09889
3.08921
3.0854
3.08988
3.09663
3.0898
3.07552
3.04829
3.01397
2.99434
2.98911
2.98723
2.98334
2.97503
2.96408
2.9476
2.92458
2.8964
2.88021
2.87904
2.88734
2.88997
2.87999
2.85998
2.83066
2.79007
2.76078
2.74896
2.74706
2.75298
2.7655
2.76532
2.75412
2.7282
2.6908
2.66068
2.64979
2.64763
2.64925
2.6531
2.65045
2.64589
2.63947
2.6224
2.58772
2.54878
2.53231
2.52965
2.53434
2.55879
2.57614
2.57308
2.55995
2.53037
2.47291
2.4304
2.41767
2.4159
2.42105
2.44552
2.46831
2.4686
2.46156
2.4483
2.42981
2.40022
2.36029
2.33344
2.32344
2.32184
2.32628
2.34836
2.36924
2.37022
2.36416
2.35344
2.32269
2.32128
2.49203
3.16147
4.126
4.45672
4.53696
4.58512
4.64559
4.64276
4.61293
4.55002
4.51032
4.50042
4.50695
4.51112
4.4936
4.46092
4.40156
4.35101
4.33197
1.40001
1.40001
1.40001
1.40001
1.40001
1.40001
1.40001
1.40001
1.40001
1.40001
1.40001
1.40001
1.40001
1.40001
1.40001
1.40001
1.40001
1.40001
1.40001
1.40001
1.40001
1.40001
1.40001
1.40001
1.40001
1.40001
1.40001
1.40001
1.40001
1.40001
1.40001
1.40001
1.40001
1.40001
1.40001
1.40001
1.40001
1.40001
1.40001
1.40001
1.40001
1.40001
1.40001
1.40001
1.40001
1.40001
1.40001
1.40001
1.40001
1.40001
1.40001
1.40001
1.40001
1.40001
1.40001
1.40001
1.40001
1.40001
1.40002
1.40192
1.46792
2.02315
2.86968
3.48466
3.75896
3.76029
3.70835
3.66144
3.65105
3.65722
3.67953
3.67076
3.63994
3.62989
3.63146
3.61937
3.58625
3.566
3.56589
3.56064
3.53742
3.51495
3.50038
3.48392
3.46056
3.45253
3.44612
3.43156
3.41563
3.40572
3.39589
3.3885
3.37824
3.36068
3.34912
3.34574
3.34232
3.33746
3.32616
3.30828
3.28083
3.24989
3.22842
3.22069
3.21977
3.21972
3.21349
3.19635
3.17786
3.17228
3.17334
3.18341
3.21097
3.25552
3.29979
3.32028
3.32465
3.31094
3.28967
3.28074
3.27782
3.28592
3.2923
3.28918
3.28402
3.27355
3.25396
3.23071
3.20387
3.17468
3.14896
3.1312
3.11788
3.11049
3.10711
3.11292
3.12303
3.11677
3.10192
3.07477
3.03843
3.01871
3.01347
3.00975
3.00427
2.99548
2.98405
2.9695
2.95165
2.92922
2.91725
2.91743
2.92326
2.91901
2.90398
2.8815
2.84978
2.81258
2.7881
2.77811
2.77733
2.78728
2.80045
2.7983
2.78353
2.75425
2.71364
2.68443
2.67418
2.67224
2.67512
2.68029
2.67799
2.67347
2.66704
2.64939
2.61378
2.57382
2.55629
2.55329
2.55744
2.58099
2.59817
2.59511
2.58221
2.55317
2.49642
2.4534
2.44019
2.43848
2.44473
2.47019
2.49062
2.48953
2.4812
2.46627
2.44617
2.41611
2.38049
2.35632
2.34674
2.34536
2.35017
2.37145
2.38891
2.38834
2.38117
2.37138
2.34117
2.37181
2.69779
3.52061
4.37703
4.55117
4.58864
4.61208
4.67786
4.68737
4.66065
4.60543
4.54933
4.53363
4.53167
4.53912
4.5249
4.49645
4.44186
4.38685
4.36629
4.36155
1.40001
1.40001
1.40001
1.40001
1.40001
1.40001
1.40001
1.40001
1.40001
1.40001
1.40001
1.40001
1.40001
1.40001
1.40001
1.40001
1.40001
1.40001
1.40001
1.40001
1.40001
1.40001
1.40001
1.40001
1.40001
1.40001
1.40001
1.40001
1.40001
1.40001
1.40001
1.40001
1.40001
1.40001
1.40001
1.40001
1.40001
1.40001
1.40001
1.40001
1.40001
1.40001
1.40001
1.40001
1.40001
1.40001
1.40001
1.40001
1.40001
1.40001
1.40001
1.40001
1.40001
1.40001
1.40001
1.40001
1.40001
1.40001
1.40001
1.40002
1.40195
1.46757
1.85778
2.58159
3.5079
3.74215
3.66482
3.65912
3.68119
3.70322
3.69331
3.65991
3.64723
3.64784
3.639
3.60343
3.58132
3.58011
3.5835
3.56085
3.53227
3.51757
3.50594
3.48796
3.47266
3.47077
3.46318
3.44659
3.43759
3.42746
3.41523
3.40543
3.39099
3.37633
3.37044
3.36552
3.35865
3.34643
3.32923
3.30223
3.27255
3.25344
3.24744
3.24733
3.24722
3.2403
3.22165
3.19452
3.17991
3.17679
3.17711
3.18961
3.21322
3.2403
3.25756
3.27587
3.28602
3.28152
3.28621
3.29542
3.31622
3.32993
3.32466
3.31386
3.29814
3.27705
3.25253
3.22312
3.19314
3.16923
3.15098
3.138
3.13186
3.12902
3.13612
3.14708
3.1417
3.12716
3.10057
3.06128
3.03969
3.03464
3.03024
3.02266
3.01385
3.00305
2.99046
2.97565
2.95987
2.95258
2.95406
2.95573
2.94567
2.92593
2.89993
2.86577
2.83497
2.8154
2.80813
2.80937
2.82399
2.8361
2.83111
2.81225
2.77938
2.7354
2.70756
2.69808
2.69642
2.70168
2.7094
2.70721
2.70274
2.69614
2.67732
2.64033
2.59922
2.58108
2.57783
2.58164
2.6044
2.62092
2.61775
2.60515
2.57651
2.52075
2.47737
2.46375
2.46216
2.4692
2.49513
2.51277
2.5107
2.50111
2.48446
2.46201
2.43174
2.40107
2.37957
2.37053
2.36925
2.37373
2.39377
2.40856
2.40657
2.39904
2.38236
2.36589
2.45177
2.96979
3.89925
4.55752
4.62081
4.63151
4.64967
4.71692
4.73131
4.70561
4.65234
4.58634
4.56281
4.55736
4.56685
4.55785
4.53324
4.48552
4.42938
4.4063
4.40121
4.41772
1.40001
1.40001
1.40001
1.40001
1.40001
1.40001
1.40001
1.40001
1.40001
1.40001
1.40001
1.40001
1.40001
1.40001
1.40001
1.40001
1.40001
1.40001
1.40001
1.40001
1.40001
1.40001
1.40001
1.40001
1.40001
1.40001
1.40001
1.40001
1.40001
1.40001
1.40001
1.40001
1.40001
1.40001
1.40001
1.40001
1.40001
1.40001
1.40001
1.40001
1.40001
1.40001
1.40001
1.40001
1.40001
1.40001
1.40001
1.40001
1.40001
1.40001
1.40001
1.40001
1.40001
1.40001
1.40001
1.40001
1.40001
1.40001
1.40001
1.40001
1.40002
1.40147
1.43138
1.64049
2.47009
3.47323
3.55531
3.64174
3.71744
3.73013
3.68601
3.66702
3.66755
3.65913
3.61985
3.59624
3.59382
3.60507
3.58457
3.55332
3.53689
3.52804
3.51286
3.50004
3.49784
3.49804
3.48536
3.47294
3.46273
3.44328
3.42692
3.41644
3.40212
3.39288
3.38639
3.37762
3.3653
3.34916
3.32361
3.29576
3.27801
3.27349
3.27374
3.2731
3.26512
3.24664
3.22027
3.19853
3.19263
3.19093
3.19532
3.20452
3.20996
3.20865
3.2056
3.223
3.2461
3.26833
3.295
3.33108
3.35069
3.34957
3.34045
3.32355
3.30171
3.27635
3.24673
3.21784
3.1933
3.17309
3.16041
3.15503
3.15239
3.15966
3.16995
3.16422
3.1511
3.12666
3.08507
3.05768
3.05122
3.04904
3.04003
3.02997
3.01995
3.00895
2.9978
2.98854
2.98478
2.98823
2.98526
2.97011
2.94603
2.91423
2.88074
2.85775
2.84288
2.83819
2.84247
2.86152
2.87053
2.86193
2.83953
2.80316
2.75645
2.73051
2.72174
2.72002
2.72647
2.73959
2.73888
2.73383
2.72642
2.70569
2.66702
2.62491
2.60649
2.60311
2.60682
2.62904
2.64471
2.64125
2.62873
2.60057
2.54591
2.50249
2.48847
2.48696
2.49504
2.52094
2.53581
2.53279
2.52197
2.50296
2.47763
2.44814
2.42225
2.40272
2.3949
2.39368
2.39807
2.41605
2.42831
2.42492
2.41825
2.394
2.40627
2.59609
3.29839
4.25161
4.67546
4.68017
4.67482
4.69326
4.75869
4.77284
4.74816
4.69583
4.62356
4.59301
4.58637
4.59756
4.59481
4.57164
4.52736
4.47171
4.44659
4.44081
4.45555
4.46865
1.40001
1.40001
1.40001
1.40001
1.40001
1.40001
1.40001
1.40001
1.40001
1.40001
1.40001
1.40001
1.40001
1.40001
1.40001
1.40001
1.40001
1.40001
1.40001
1.40001
1.40001
1.40001
1.40001
1.40001
1.40001
1.40001
1.40001
1.40001
1.40001
1.40001
1.40001
1.40001
1.40001
1.40001
1.40001
1.40001
1.40001
1.40001
1.40001
1.40001
1.40001
1.40001
1.40001
1.40001
1.40001
1.40001
1.40001
1.40001
1.40001
1.40001
1.40001
1.40001
1.40001
1.40001
1.40001
1.40001
1.40001
1.40001
1.40001
1.40001
1.40001
1.40001
1.40035
1.41162
1.58555
2.45003
3.24933
3.55299
3.73437
3.73789
3.70107
3.68869
3.6726
3.63428
3.61402
3.6091
3.62368
3.60659
3.5779
3.56274
3.5563
3.54108
3.52853
3.52733
3.53452
3.52582
3.50774
3.49359
3.47383
3.4469
3.43557
3.42661
3.4153
3.40649
3.39595
3.38217
3.3679
3.3457
3.31968
3.30289
3.29935
3.29965
3.29821
3.28919
3.26937
3.24514
3.22487
3.21696
3.21453
3.21627
3.21729
3.21172
3.19775
3.17434
3.17564
3.19229
3.22436
3.26407
3.318
3.35482
3.35798
3.35594
3.34552
3.32665
3.30189
3.27437
3.24814
3.22244
3.19887
3.18547
3.18039
3.17808
3.18445
3.19212
3.1861
3.17331
3.15133
3.11158
3.07616
3.06581
3.06379
3.05741
3.04613
3.03589
3.02671
3.01959
3.0153