/*--------------------------------*- C++ -*----------------------------------*\
  =========                 |
  \\      /  F ield         | OpenFOAM: The Open Source CFD Toolbox
   \\    /   O peration     | Website:  https://openfoam.org
    \\  /    A nd           | Version:  7
     \\/     M anipulation  |
\*---------------------------------------------------------------------------*/
FoamFile
{
    version     2.0;
    format      ascii;
    class       volScalarField;
    location    "2.7";
    object      p;
}
// * * * * * * * * * * * * * * * * * * * * * * * * * * * * * * * * * * * * * //

dimensions      [1 -1 -2 0 0 0 0];

internalField   nonuniform List<scalar> 
16192
(
1
1
1
1
1
1
1
1
1
1
1
1
1
1
1
1
1
1
1
1
1
1
1
1
1
1
1
1
1
1
1
1
1
1
1
1
1
1
1
1
1
1
1
1
1
1
1
1
1
1
1
1
1
1
1
1
1
1
1
1
1
1
1
1
1
1
1
1
1
1
1
1
1
1
1
1
1
1
1
1
1
1
1
1
1
1
1
1
1
1
1
1
1
1
1
1
1
1
1
1
1
1
1
1
1
1
1
1
1
1
1
1
1
1
1
1
1
1
1
1
1
1
1
1
1
1
1
1
1
1
1
1
1
1
1
1
1
1
1
1
1
1
1
1
1
1
1
1
1
1
1
1
1
1
1
1
1
1
1
1
1
1
1
1
1
1
1
1
1
1
1
1
1
1
1
1
1
1
1
1
1
1
1
1
1
1
1
1
1
1
1
1
1
1
1
1
1
1
1
1
1
1
1
1
1
1
1
1
1
1
1
1
1
1
1
1
1
1
1
1
1
1
1
1
1
1
1
1
1
1
1
1
1
1
1
1
1
1
1
1
1
1
1
1
1
1
1
1
1
1
1
1
1
1
1
1
1
1
1
1
1
1
1
1
1
1
1
1
1
1
1
1
1
1
1
1
1
1
1
1
1
1
1
1
1
1
1
1
1
1
1
1
1
1
1
1
1
1
1
1
1
1
1
1
1
1
1
1
1
1
1
1
1
1
1
1
1
1
1
1
1
1
1
1
1
1
1
1
1
1
1
1
1
1
1
1
1
1
1
1
1
1
1
1
1
1
1
1
1
1
1
1
1
1
1
1
1
1
1
1
1
1
1
1
1
1
1
1
1
1
1
1
1
1
1
1
1
1
1
1
1
1
1
1
1
1
1
1
1
1
1
1
1
1
1
1
1
1
1
1
1
1
1
1
1
1
1
1
1
1
1
1
1
1
1
1
1
1
1
1
1
1
1
1
1
1
1
1
1
1
1
1
1
1
1
1
1
1
1
1
1
1
1
1
1
1
1
1
1
1
1
1
1
1
1
1
1
1
1
1
1
1
1
1
1
1
1
1
1
1
1
1
1
1
1
1
1
1
1
1
1
1
1
1
1
1
1
1
1
1
1
1
1
1
1
1
1
1
1
1
1
1
1
1
1
1
1
1
1
1
1
1
1
1
1
1
1
1
1
1
1
1
1
1
1
1
1
1
1
1
1
1
1
1
1
1
1
1
1
1
1
1
1
1
1
1
1
1
1
1
1
1
1
1
1
1
1
1
1
1
1
1
1
1
1
1
1
1
1
1
1
1
1
1
1
1
1
1
1
1
1
1
1
1
1
1
1
1
1
1
1
1
1
1
1
1
1
1
1
1
1
1
1
1
1
1
1
1
1
1
1
1
1
1
1
1
1
1
1
1
1
1
1
1
1
1
1
1
1
1
1
1
1
1
1
1
1
1
1
1
1
1
1
1
1
1
1
1
1
1
1
1
1
1
1
1
1
1
1
1
1
1
1
1
1
1
1
1
1
1
1
1
1
1
1
1
1
1
1
1
1
1
1
1
1
1
1
1
1
1
1
1
1
1
1
1
1
1
1
1
1
1
1
1
1
1
1
1
1
1
1
1
1
1
1
1
1
1
1
1
1
1
1
1
1
1
1
1
1
1
1
1
1
1
1
1
1
1
1
1
1
1
1
1
1
1
1
1
1
1
1
1
1
1
1
1
1
1
1
1
1
1
1
1
1
1
1
1
1
1
1
1
1
1
1
1
1
1
1
1
1
1
1
1
1
1
1
1
1
1
1
1
1
1
1
1
1
1
1
1
1
1
1
1
1
1
1
1
1
1
1
1
1
1
1
1
1
1
1
1
1
1
1
1
1
1
1
1
1
1
1
1
1
1
1
1
1
1
1
1
1
1
1
1
1
1
1
1
1
1
1
1
1
1
1
1
1
1
1
1
1
1
1
1
1
1
1
1
1
1
1
1
1
1
1
1
1
1
1
1
1
1
1
1
1
1
1
1
1
1
1
1
1
1
1
1
1
1
1
1
1
1
1
1
1
1
1
1
1
1
1
1
1
1
1
1
1
1
1
1
1
1
1
1
1
1
1
1
1
1
1
1
1
1
1
1
1
1
1
1
1
1
1
1
1
1
1
1
1
1
1
1
1
1
1
1
1
1
1
1
1
1
1
1
1
1
1
1
1
1
1
1
1
1
1
1
1
1
1
1
1
1
1
1
1
1
1
1
1
1
1
1
1
1
1
1
1
1
1
1
1
1
1
1
1
1
1
1
1
1
1
1
1
1
1
1
1
1
1
1
1
1
1
1
1
1
1
1
1
1
1
1
1
1
1
1
1
1
1
1
1
1
1
1
1
1
1
1
1
1
1
1
1
1
1
1
1
1
1
1
1
1
1
1
1
1
1
1
1
1
1
1
1
1
1
1
1
1
1
1
1
1
1
1
1
1
1
1
1
1
1
1
1
1
1
1
1
1
1
1
1
1
1
1
1
1
1
1
1
1
1
1
1
1
1
1
1
1
1
1
1
1
1
1
1
1
1
1
1
1
1
1
1
1
1
1
1
1
1
1
1
1
1
1
1
1
1
1
1
1
1
1
1
1
1
1
1
1
1
1
1
1
1
1
1
1
1
1
1
1
1
1
1
1
1
1
1
1
1
1
1
1
1
1
1
1
1
1
1
1
1
1
1
1
1
1
1
1
1
1
1
1
1
1
1
1
1
1
1
1
1
1
1
1
1
1
1
1
1
1
1
1
1
1
1
1
1
1
1
1
1
1
1
1
1
1
1
1
1
1
1
1
1
1
1
1
1
1
1
1
1
1
1
1
1
1
1
1
1
1
1
1
1
1
1
1
1
1
1
1
1
1
1
1
1
1
1
1
1
1
1
1
1
1
1
1
1
1
1
1
1
1
1.00011
1.00467
1.11186
2.12809
3.63147
4.25639
4.54942
4.5695
4.55729
4.55175
4.53515
4.47011
4.4178
4.38753
4.38338
4.37147
4.34226
4.33375
4.33667
4.31672
4.28287
4.26744
4.2689
4.24996
4.21704
4.19641
4.17739
4.1514
4.11677
4.09592
4.07757
4.06207
4.05365
4.04356
4.01787
3.97985
3.9511
3.9313
3.92285
3.91652
3.90653
3.87754
3.83923
3.81456
3.80548
3.80016
3.79281
3.78279
3.75666
3.71292
3.67184
3.65451
3.64695
3.64381
3.64333
3.64365
3.65234
3.68456
3.74003
3.81621
3.90717
3.94223
3.94647
3.93879
3.90098
3.85366
3.82306
3.8083
3.81107
3.83934
3.84724
3.82943
3.80487
3.77041
3.70425
3.61283
3.56088
3.54136
3.5349
3.53953
3.55929
3.57298
3.57634
3.57321
3.56321
3.53748
3.49801
3.44891
3.38516
3.32334
3.28538
3.26905
3.26551
3.27335
3.30951
3.34259
3.3412
3.32268
3.27875
3.20028
3.12258
3.08822
3.07321
3.06752
3.06647
3.07489
3.09253
3.10809
3.10872
3.10339
3.09458
3.06764
3.01376
2.93782
2.9021
2.89052
2.88245
2.87542
2.87077
2.87111
2.87809
2.87899
2.87108
2.84626
2.80456
2.7552
2.72437
2.70962
2.7055
2.71194
2.7285
2.72694
2.71238
2.68074
2.63283
2.59878
2.5855
2.58255
2.58521
2.58776
2.58309
2.57644
2.56077
2.52613
2.49065
2.47908
2.47923
2.49495
2.51236
2.50903
2.49961
2.47979
2.43614
2.37026
2.33407
2.32688
2.33019
2.35516
2.39206
2.39976
2.39367
2.38541
2.37093
2.33922
2.26554
2.19753
2.17831
2.17438
2.17531
2.21095
2.44895
3.35311
4.88627
6.15911
6.42323
6.33032
6.08029
5.96842
5.96421
6.08422
1
1
1
1
1
1
1
1
1
1
1
1
1
1
1
1
1
1
1
1
1
1
1
1
1
1
1
1
1
1
1
1
1
1
1
1
1
1
1
1
1
1
1
1
1
1
1
1
1
1
1
1.00004
1.00355
1.13556
2.08308
3.26038
4.22019
4.6057
4.60764
4.54101
4.47839
4.45804
4.43534
4.39322
4.37875
4.37438
4.36718
4.37253
4.36573
4.3299
4.30966
4.31007
4.28977
4.25015
4.22518
4.20912
4.18519
4.15137
4.13134
4.11952
4.09669
4.08215
4.07038
4.04787
4.0125
3.98755
3.97077
3.95944
3.95134
3.93896
3.90751
3.86914
3.84709
3.83898
3.83247
3.82565
3.8167
3.79132
3.74842
3.70852
3.69
3.68124
3.67055
3.6576
3.64438
3.64239
3.64533
3.66674
3.71142
3.77856
3.87517
3.91592
3.92217
3.90543
3.87687
3.85979
3.85078
3.86183
3.88827
3.88688
3.86639
3.84017
3.80192
3.73241
3.64852
3.60156
3.58104
3.57459
3.58395
3.61283
3.62631
3.62494
3.61795
3.6007
3.56946
3.52806
3.47205
3.40484
3.35008
3.31778
3.30434
3.30153
3.31306
3.3552
3.38622
3.3826
3.36116
3.31319
3.22701
3.14779
3.11498
3.1036
3.09972
3.10201
3.11708
3.13795
3.15036
3.14938
3.14341
3.13018
3.09887
3.04194
2.96087
2.9207
2.90813
2.90184
2.89752
2.8987
2.91155
2.92442
2.92274
2.90899
2.87525
2.82464
2.77474
2.74915
2.73746
2.73491
2.7458
2.76338
2.7608
2.74284
2.70625
2.65442
2.62287
2.61159
2.60914
2.61262
2.61549
2.61103
2.60459
2.59082
2.55876
2.52236
2.50871
2.50823
2.52046
2.5349
2.53124
2.52237
2.50335
2.46265
2.39987
2.36368
2.35592
2.35886
2.38195
2.41285
2.41652
2.41034
2.40273
2.39014
2.36354
2.30061
2.22893
2.20269
2.19896
2.20272
2.2616
2.66445
3.89295
5.43828
6.41825
6.5339
6.3856
6.12928
6.02929
6.02812
6.15269
6.31489
1
1
1
1
1
1
1
1
1
1
1
1
1
1
1
1
1
1
1
1
1
1
1
1
1
1
1
1
1
1
1
1
1
1
1
1
1
1
1
1
1
1
1
1
1
1
1
1
1
1
1
1
1.00004
1.00443
1.12912
1.68336
2.8621
4.38615
4.57392
4.48592
4.48723
4.47125
4.40514
4.38207
4.4042
4.40328
4.41161
4.41246
4.36923
4.34304
4.3437
4.3265
4.27847
4.24902
4.24277
4.22106
4.18458
4.16108
4.1556
4.13292
4.11221
4.0993
4.07843
4.04495
4.0214
4.01015
3.9965
3.9862
3.97224
3.93961
3.90075
3.88029
3.87388
3.86561
3.85812
3.84929
3.82381
3.78007
3.74267
3.72658
3.71737
3.70483
3.68813
3.6632
3.64698
3.64448
3.64709
3.66731
3.69979
3.73712
3.80377
3.85171
3.8643
3.86214
3.87066
3.88012
3.90682
3.93333
3.92569
3.9041
3.87728
3.83608
3.76399
3.68625
3.64384
3.62315
3.61693
3.6301
3.66628
3.67648
3.66905
3.65675
3.6336
3.60141
3.55741
3.49411
3.42583
3.37984
3.35184
3.34105
3.33864
3.35626
3.40324
3.42917
3.42269
3.39795
3.34615
3.25388
3.17549
3.14473
3.13556
3.13274
3.13976
3.16224
3.185
3.19243
3.18862
3.1805
3.16121
3.1272
3.0672
2.98511
2.9427
2.9293
2.92404
2.92186
2.93073
2.95478
2.96933
2.96479
2.94427
2.90277
2.84221
2.7951
2.77382
2.76527
2.76459
2.78095
2.7999
2.79583
2.7744
2.73184
2.67657
2.64745
2.63794
2.63611
2.64062
2.64302
2.63887
2.633
2.62124
2.59107
2.55405
2.53828
2.53724
2.54638
2.55762
2.55362
2.54533
2.52772
2.48984
2.42941
2.3935
2.38523
2.38751
2.40765
2.43203
2.43315
2.42732
2.42016
2.40956
2.38749
2.33433
2.26339
2.22957
2.22546
2.23228
2.34414
2.9921
4.48144
5.94384
6.58357
6.61663
6.43329
6.1803
6.09225
6.09782
6.22732
6.37665
6.3709
1
1
1
1
1
1
1
1
1
1
1
1
1
1
1
1
1
1
1
1
1
1
1
1
1
1
1
1
1
1
1
1
1
1
1
1
1
1
1
1
1
1
1
1
1
1
1
1
1
1
1
1
1
1.00004
1.00299
1.04875
1.40107
2.97584
4.18064
4.3749
4.47932
4.46423
4.41775
4.43367
4.44599
4.4744
4.46718
4.40102
4.36119
4.37054
4.35526
4.30182
4.27926
4.27112
4.24804
4.21695
4.19163
4.18599
4.17258
4.14525
4.1321
4.11142
4.07777
4.05331
4.04675
4.03377
4.02106
4.00548
3.97194
3.93297
3.9132
3.90899
3.90068
3.89085
3.88156
3.85571
3.81082
3.77358
3.75902
3.74975
3.73689
3.72043
3.69647
3.6696
3.6605
3.65872
3.66647
3.67808
3.68644
3.68951
3.71238
3.76206
3.80085
3.83797
3.87875
3.93033
3.96277
3.9591
3.93989
3.91369
3.8722
3.79965
3.72603
3.68553
3.66606
3.65995
3.67576
3.71157
3.71688
3.70649
3.69014
3.66516
3.63326
3.58533
3.51572
3.45168
3.4133
3.38852
3.37927
3.37844
3.40408
3.45327
3.47058
3.45977
3.43219
3.37715
3.2802
3.2058
3.17745
3.16961
3.16801
3.18198
3.21201
3.23315
3.23392
3.22694
3.21229
3.18765
3.15286
3.09168
3.01046
2.96762
2.9542
2.94975
2.94992
2.96693
2.9993
3.0118
3.0042
2.97776
2.92817
2.85941
2.81676
2.79905
2.79306
2.79494
2.8174
2.8376
2.83269
2.80774
2.75843
2.69885
2.67181
2.66381
2.66264
2.66943
2.67077
2.66653
2.66157
2.65198
2.62442
2.5867
2.56819
2.5664
2.57226
2.58019
2.57597
2.56864
2.5532
2.51785
2.45935
2.42333
2.4144
2.41564
2.43213
2.45096
2.45011
2.44472
2.43842
2.42935
2.41161
2.36853
2.30009
2.25927
2.25505
2.26979
2.48542
3.44947
5.05182
6.35546
6.7012
6.69225
6.48095
6.23324
6.15535
6.16533
6.29706
6.43523
6.42303
6.36173
1
1
1
1
1
1
1
1
1
1
1
1
1
1
1
1
1
1
1
1
1
1
1
1
1
1
1
1
1
1
1
1
1
1
1
1
1
1
1
1
1
1
1
1
1
1
1
1
1
1
1
1
1
1
1.00001
1.00068
1.02368
1.3993
2.88496
3.89429
4.35425
4.53802
4.5062
4.50725
4.5293
4.50668
4.43548
4.37926
4.38189
4.37574
4.32216
4.30733
4.29876
4.27135
4.24435
4.22507
4.21926
4.21884
4.19027
4.17013
4.14958
4.11539
4.08672
4.08107
4.0724
4.05562
4.03846
4.0051
3.96643
3.94621
3.9428
3.93618
3.92354
3.91247
3.88736
3.84277
3.80432
3.78899
3.77925
3.76628
3.75045
3.72999
3.70643
3.69438
3.69088
3.69518
3.69384
3.68417
3.66149
3.64125
3.65348
3.6952
3.75816
3.82788
3.91118
3.96455
3.97035
3.96499
3.94529
3.9055
3.83641
3.76764
3.72784
3.70931
3.70298
3.7193
3.75165
3.75198
3.73992
3.72181
3.69623
3.66339
3.61068
3.53873
3.48202
3.44902
3.42767
3.4196
3.42228
3.45651
3.50264
3.50893
3.49366
3.46356
3.40525
3.30656
3.23795
3.21231
3.20541
3.207
3.23038
3.26508
3.27826
3.27298
3.25941
3.23707
3.21037
3.17648
3.11706
3.03805
2.99569
2.98219
2.9787
2.98165
3.00681
3.04324
3.05158
3.04077
3.00951
2.95128
2.8776
2.83984
2.8251
2.82065
2.82625
2.8554
2.87604
2.87029
2.84243
2.78611
2.72188
2.69575
2.6888
2.68816
2.69771
2.69955
2.69477
2.69015
2.68234
2.65835
2.61992
2.59818
2.59559
2.59872
2.60332
2.59869
2.59205
2.57898
2.54707
2.49046
2.45209
2.44239
2.44265
2.45504
2.46999
2.46817
2.46296
2.45736
2.44932
2.43492
2.40161
2.33732
2.29101
2.28684
2.32482
2.71371
4.02193
5.59465
6.62803
6.80594
6.76136
6.53778
6.29733
6.22427
6.2347
6.36264
6.49093
6.47387
6.40918
6.26313
1
1
1
1
1
1
1
1
1
1
1
1
1
1
1
1
1
1
1
1
1
1
1
1
1
1
1
1
1
1
1
1
1
1
1
1
1
1
1
1
1
1
1
1
1
1
1
1
1
1
1
1
1
1
1
1
1.00039
1.02201
1.43309
2.63939
3.6462
4.43491
4.60613
4.56431
4.50055
4.44993
4.42134
4.39042
4.37666
4.34705
4.33294
4.32606
4.29897
4.27152
4.25891
4.25916
4.26825
4.24356
4.21097
4.19066
4.16306
4.12731
4.11743
4.11166
4.09142
4.06978
4.03835
4.00155
3.98008
3.97658
3.97079
3.95584
3.94116
3.91848
3.87524
3.83559
3.81984
3.80904
3.7953
3.77969
3.76213
3.74551
3.73667
3.73632
3.73703
3.72866
3.70693
3.66705
3.62669
3.62207
3.6341
3.66728
3.72943
3.82202
3.92276
3.95978
3.96729
3.96238
3.93035
3.86675
3.80642
3.77063
3.75387
3.74761
3.76324
3.7897
3.78665
3.77354
3.75391
3.72738
3.69182
3.63403
3.56336
3.51489
3.48561
3.46833
3.46209
3.47051
3.51198
3.54802
3.54466
3.52509
3.4929
3.42996
3.33284
3.2724
3.24918
3.24297
3.24981
3.28404
3.31656
3.31791
3.30599
3.28384
3.25782
3.23146
3.19912
3.14322
3.06853
3.02596
3.01305
3.01031
3.01643
3.04948
3.08581
3.08948
3.0758
3.04008
2.97256
2.89687
2.86365
2.85155
2.84865
2.85907
2.89467
2.91492
2.90789
2.87769
2.81556
2.74567
2.71925
2.71289
2.7126
2.72464
2.72901
2.72391
2.71935
2.71269
2.69287
2.654
2.62775
2.62407
2.62512
2.6269
2.62212
2.61588
2.60498
2.57705
2.52227
2.48005
2.46921
2.46837
2.47659
2.48882
2.48722
2.48233
2.47721
2.47024
2.45873
2.43241
2.37605
2.32529
2.32113
2.41442
3.06372
4.63485
6.07515
6.81727
6.88718
6.81847
6.59104
6.36374
6.29617
6.30693
6.43073
6.5454
6.52385
6.45814
6.31053
6.12168
1
1
1
1
1
1
1
1
1
1
1
1
1
1
1
1
1
1
1
1
1
1
1
1
1
1
1
1
1
1
1
1
1
1
1
1
1
1
1
1
1
1
1
1
1
1
1
1
1
1
1
1
1
1
1
1
1
1.00039
1.02683
1.3208
2.07251
3.61228
4.52836
4.48772
4.46215
4.45513
4.4197
4.36701
4.36665
4.35997
4.36301
4.34627
4.30759
4.29692
4.30347
4.31401
4.28271
4.24642
4.2306
4.21905
4.17948
4.15132
4.1457
4.12664
4.10202
4.07538
4.03957
4.01274
4.0084
4.00457
3.98869
3.97069
3.94925
3.91081
3.8672
3.85123
3.84266
3.82782
3.81123
3.79573
3.78443
3.77845
3.7805
3.7782
3.76474
3.73922
3.69577
3.63679
3.6177
3.61741
3.62714
3.65739
3.71442
3.80621
3.89909
3.93465
3.94631
3.93398
3.8837
3.83672
3.80885
3.79682
3.79425
3.81207
3.82893
3.82195
3.80846
3.78721
3.75879
3.71991
3.6586
3.59048
3.54874
3.52239
3.50965
3.50527
3.52118
3.56653
3.58932
3.57856
3.55568
3.52088
3.4521
3.36027
3.30925
3.28754
3.28256
3.2962
3.33779
3.36085
3.35359
3.33405
3.30738
3.27929
3.25231
3.22137
3.17036
3.1018
3.05911
3.04672
3.04426
3.05428
3.09329
3.12626
3.12551
3.10902
3.06966
2.9938
2.91807
2.88807
2.87885
2.87728
2.89379
2.93534
2.954
2.94542
2.91315
2.84539
2.77025
2.74278
2.73653
2.73629
2.75052
2.75888
2.754
2.74967
2.7438
2.72774
2.68938
2.65699
2.65123
2.65074
2.65101
2.64609
2.63981
2.63039
2.60642
2.55592
2.5085
2.49467
2.4931
2.49718
2.50763
2.50709
2.50286
2.49815
2.49213
2.48269
2.46137
2.41389
2.36201
2.36476
2.56933
3.56222
5.23074
6.46392
6.94251
6.96545
6.87119
6.64107
6.42563
6.36251
6.37378
6.49331
6.59896
6.57435
6.50527
6.35802
6.18131
6.101
1
1
1
1
1
1
1
1
1
1
1
1
1
1
1
1
1
1
1
1
1
1
1
1
1
1
1
1
1
1
1
1
1
1
1
1
1
1
1
1
1
1
1
1
1
1
1
1
1
1
1
1
1
1
1
1
1
1
1.00036
1.01246
1.12673
1.8877
3.72548
4.21825
4.40976
4.47996
4.42098
4.39792
4.39505
4.41142
4.40548
4.3501
4.33066
4.33794
4.35319
4.31073
4.2758
4.26654
4.26058
4.22335
4.186
4.17559
4.16118
4.13057
4.10724
4.08102
4.04704
4.03768
4.03711
4.02292
4.00132
3.97833
3.94635
3.90464
3.88196
3.87752
3.86555
3.84896
3.83371
3.82484
3.81941
3.81933
3.81329
3.79663
3.77015
3.72993
3.67063
3.63139
3.62205
3.62143
3.63334
3.66272
3.71134
3.78237
3.83949
3.87272
3.89058
3.87678
3.85113
3.83574
3.83182
3.8398
3.86554
3.87159
3.85857
3.84292
3.82065
3.79121
3.75065
3.6873
3.62189
3.58336
3.56044
3.55089
3.54887
3.57224
3.61625
3.62767
3.61164
3.58687
3.54777
3.47348
3.39025
3.34719
3.32787
3.32465
3.345
3.38747
3.39828
3.38515
3.36165
3.3321
3.30074
3.27263
3.24297
3.19827
3.13798
3.09565
3.0831
3.08114
3.09473
3.13731
3.16396
3.15922
3.13967
3.09775
3.0164
2.94127
2.91402
2.90694
2.90721
2.9307
2.97704
2.99315
2.98277
2.94809
2.87446
2.79499
2.76659
2.76014
2.75947
2.77529
2.78955
2.78551
2.78156
2.77657
2.76363
2.72605
2.68651
2.67709
2.67514
2.67475
2.67014
2.66381
2.6551
2.63532
2.59082
2.53782
2.51928
2.51696
2.51754
2.52574
2.52747
2.5242
2.52025
2.51462
2.50706
2.49014
2.45073
2.39958
2.4258
2.8213
4.18357
5.77955
6.73997
7.03676
7.03501
6.92627
6.6997
6.49151
6.4308
6.43916
6.55086
6.65043
6.62494
6.55502
6.40935
6.24237
6.16759
6.14955
1
1
1
1
1
1
1
1
1
1
1
1
1
1
1
1
1
1
1
1
1
1
1
1
1
1
1
1
1
1
1
1
1
1
1
1
1
1
1
1
1
1
1
1
1
1
1
1
1
1
1
1
1
1
1
1
1
1
1
1.00008
1.00349
1.09006
1.96945
3.41748
4.12212
4.46135
4.50009
4.47965
4.45697
4.43344
4.37832
4.35669
4.35891
4.37561
4.33501
4.30913
4.30262
4.29273
4.25314
4.21376
4.20201
4.19766
4.16359
4.13215
4.11538
4.09213
4.06734
4.06438
4.05849
4.03514
4.00977
3.98189
3.94513
3.9185
3.91388
3.90573
3.89006
3.8752
3.86498
3.85789
3.85329
3.84414
3.82536
3.79942
3.76129
3.70669
3.66406
3.64743
3.64071
3.64281
3.65551
3.67484
3.70412
3.73614
3.75359
3.78547
3.81811
3.83621
3.84264
3.85085
3.86912
3.90312
3.91217
3.89651
3.87633
3.85355
3.82453
3.78402
3.72154
3.65768
3.61982
3.59973
3.59195
3.5934
3.62247
3.66074
3.66234
3.64409
3.61778
3.57356
3.49571
3.42351
3.3872
3.37002
3.3691
3.39506
3.43214
3.43209
3.41529
3.38925
3.35491
3.31879
3.29089
3.26429
3.22707
3.17697
3.13537
3.12205
3.1206
3.13748
3.1809
3.19861
3.18984
3.16763
3.12378
3.03963
2.96726
2.9417
2.93609
2.93885
2.97
3.01973
3.03155
3.01918
2.98266
2.90311
2.81895
2.79057
2.78433
2.78339
2.79952
2.81993
2.81828
2.81452
2.81013
2.79989
2.76426
2.71715
2.70144
2.69884
2.69744
2.69347
2.68744
2.67935
2.66376
2.62639
2.57006
2.5439
2.54049
2.53921
2.54357
2.54818
2.54595
2.54306
2.53811
2.53152
2.51851
2.48455
2.44089
2.52673
3.20621
4.85925
6.23833
6.94297
7.10632
7.09078
6.98242
6.76101
6.56045
6.49894
6.50378
6.6076
6.70148
6.67603
6.60616
6.46387
6.30675
6.2384
6.22109
6.2529
1
1
1
1
1
1
1
1
1
1
1
1
1
1
1
1
1
1
1
1
1
1
1
1
1
1
1
1
1
1
1
1
1
1
1
1
1
1
1
1
1
1
1
1
1
1
1
1
1
1
1
1
1
1
1
1
1
1
1
1
1.00003
1.0026
1.10461
1.89026
2.99087
4.04975
4.51962
4.51072
4.44014
4.40123
4.39192
4.38477
4.37049
4.35305
4.33945
4.34048
4.32211
4.27851
4.23636
4.22213
4.22721
4.19997
4.15848
4.1436
4.13496
4.10761
4.09182
4.0898
4.07315
4.04403
4.0184
3.98614
3.95768
3.95169
3.94758
3.93213
3.91653
3.90265
3.89162
3.88329
3.87211
3.85287
3.82712
3.79017
3.741
3.70001
3.68341
3.67839
3.6745
3.67374
3.67574
3.6812
3.68955
3.69164
3.6876
3.7111
3.76086
3.80851
3.84128
3.87212
3.9086
3.93203
3.9258
3.9086
3.88634
3.85846
3.82021
3.7611
3.6981
3.65906
3.64044
3.63451
3.63898
3.67025
3.6989
3.69416
3.67486
3.64736
3.59843
3.51936
3.45872
3.42667
3.41321
3.41467
3.44442
3.47235
3.46527
3.44492
3.41563
3.37518
3.33758
3.31232
3.28888
3.25822
3.21794
3.17834
3.16382
3.16282
3.18215
3.22189
3.231
3.21803
3.19367
3.14781
3.06336
2.99622
2.97219
2.96717
2.97323
3.01222
3.06147
3.06899
3.05459
3.01597
2.93179
2.84319
2.81405
2.8081
2.80755
2.82546
2.85081
2.85179
2.84853
2.84503
2.83679
2.80332
2.74942
2.72487
2.72159
2.71936
2.71574
2.71038
2.70308
2.69094
2.66136
2.60571
2.56959
2.5639
2.56161
2.56254
2.56883
2.56906
2.56667
2.56257
2.55672
2.54716
2.5135
2.49842
2.70287
3.74565
5.50567
6.60439
7.08356
7.17411
7.14576
7.03966
6.82695
6.62735
6.56474
6.56686
6.6642
6.75498
6.72881
6.65797
6.51886
6.36914
6.30683
6.2912
6.32285
6.35986
1
1
1
1
1
1
1
1
1
1
1
1
1
1
1
1
1
1
1
1
1
1
1
1
1
1
1
1
1
1
1
1
1
1
1
1
1
1
1
1
1
1
1
1
1
1
1
1
1
1
1
1
1
1
1
1
1
1
1
1
1
1.00002
1.00303
1.08829
1.50227
2.57723
4.20069
4.42474
4.41572
4.43086
4.40313
4.35154
4.35892
4.36839
4.37271
4.34812
4.29919
4.25809
4.2421
4.25134
4.22703
4.18977
4.17322
4.16991
4.14915
4.12695
4.12164
4.11452
4.08405
4.05622
4.02916
3.99766
3.98847
3.98695
3.97371
3.95459
3.93959
3.92185
3.90898
3.89704
3.87941
3.855
3.81903
3.77361
3.73509
3.71911
3.71603
3.71723
3.7071
3.6973
3.69069
3.68552
3.67976
3.66402
3.64975
3.66772
3.71709
3.7814
3.83188
3.8808
3.92338
3.93583
3.93042
3.9151
3.8911
3.85713
3.80565
3.74405
3.70109
3.68394
3.67913
3.68649
3.71558
3.73217
3.72315
3.70384
3.67585
3.62304
3.54564
3.49394
3.4672
3.45658
3.45999
3.49098
3.50952
3.49791
3.47501
3.44093
3.39559
3.36125
3.33896
3.31764
3.29191
3.25927
3.22287
3.20805
3.20743
3.22799
3.2605
3.26112
3.24495
3.21878
3.17028
3.08783
3.02838
3.00591
3.00134
3.01194
3.05817
3.10268
3.1037
3.08708
3.04701
2.95987
2.86887
2.83889
2.8328
2.83202
2.85057
2.88257
2.88687
2.88338
2.88051
2.87336
2.8424
2.78275
2.74783
2.74297
2.74092
2.73767
2.73267
2.72653
2.71713
2.69488
2.645
2.59827
2.58753
2.58467
2.58347
2.5883
2.59309
2.59109
2.58828
2.58219
2.57688
2.54522
2.57229
2.99161
4.41395
6.07521
6.85641
7.17523
7.23226
7.19618
7.09887
6.90357
6.70133
6.63228
6.62807
6.71418
6.80915
6.78511
6.71525
6.57981
6.43203
6.37112
6.35663
6.389
6.41931
6.39153
1
1
1
1
1
1
1
1
1
1
1
1
1
1
1
1
1
1
1
1
1
1
1
1
1
1
1
1
1
1
1
1
1
1
1
1
1
1
1
1
1
1
1
1
1
1
1
1
1
1
1
1
1
1
1
1
1
1
1
1
1
1
1.00002
1.00161
1.02861
1.28598
2.64468
3.96553
4.26987
4.41713
4.40874
4.39959
4.40137
4.41131
4.39847
4.33809
4.29151
4.26564
4.26634
4.25005
4.21863
4.20773
4.20916
4.19365
4.16791
4.16058
4.1612
4.13634
4.09808
4.07201
4.04423
4.02481
4.02154
4.0113
3.99053
3.97214
3.95343
3.93358
3.92026
3.90468
3.88279
3.84967
3.80719
3.76895
3.75394
3.75087
3.75218
3.74524
3.73163
3.7161
3.70392
3.69176
3.67388
3.64523
3.63697
3.64776
3.68518
3.74935
3.81308
3.87216
3.92182
3.93059
3.92737
3.91485
3.89009
3.85032
3.79498
3.74767
3.73027
3.72587
3.73465
3.7571
3.76189
3.7509
3.73228
3.70338
3.64961
3.57534
3.5293
3.50656
3.4985
3.50474
3.53417
3.54443
3.5299
3.50507
3.46597
3.41787
3.3866
3.36561
3.34626
3.32492
3.29813
3.26704
3.25373
3.25376
3.27413
3.29628
3.28959
3.27074
3.24328
3.19163
3.11448
3.0639
3.04312
3.03954
3.05551
3.10684
3.14053
3.13574
3.11603
3.07567
2.98677
2.89529
2.86474
2.85853
2.85761
2.87645
2.91434
2.92293
2.91913
2.91637
2.90945
2.88026
2.81812
2.77167
2.7632
2.76111
2.7599
2.7555
2.75017
2.74284
2.72725
2.68572
2.62999
2.61092
2.60799
2.60582
2.6089
2.6175
2.61688
2.61416
2.60856
2.6041
2.58828
2.68775
3.42099
5.15901
6.5318
7.04463
7.23763
7.27819
7.24159
7.15743
6.98972
6.78577
6.70119
6.68944
6.75904
6.8586
6.84285
6.77778
6.6496
6.4996
6.43581
6.41961
6.44883
6.47654
6.44751
6.38927
1
1
1
1
1
1
1
1
1
1
1
1
1
1
1
1
1
1
1
1
1
1
1
1
1
1
1
1
1
1
1
1
1
1
1
1
1
1
1
1
1
1
1
1
1
1
1
1
1
1
1
1
1
1
1
1
1
1
1
1
1
1
1
1
1.00033
1.01417
1.27797
2.5722
3.67117
4.23184
4.46212
4.47206
4.45342
4.42228
4.36291
4.3345
4.30855
4.27693
4.26631
4.25031
4.24209
4.25115
4.24774
4.21673
4.20125
4.20161
4.18026
4.14152
4.11081
4.09439
4.07062
4.05599
4.04614
4.02534
4.00126
3.98206
3.9603
3.94315
3.92989
3.91039
3.88141
3.84293
3.80409
3.78824
3.78468
3.78409
3.77901
3.76744
3.75176
3.73343
3.71794
3.69978
3.66648
3.63614
3.63374
3.64224
3.66499
3.71716
3.78154
3.84816
3.90372
3.91892
3.9192
3.91098
3.88705
3.84459
3.79761
3.77871
3.77384
3.78063
3.79496
3.79102
3.77905
3.76026
3.73134
3.67738
3.60689
3.56491
3.54517
3.53962
3.54847
3.57512
3.57747
3.5609
3.53503
3.49226
3.44302
3.41336
3.39217
3.37423
3.35597
3.33429
3.31056
3.30047
3.30175
3.31999
3.32945
3.31678
3.29633
3.26654
3.21238
3.14349
3.10142
3.08286
3.08089
3.10252
3.1539
3.17426
3.16378
3.14213
3.1014
3.01228
2.92315
2.89238
2.88572
2.88456
2.90304
2.94605
2.96035
2.95613
2.95266
2.94392
2.91436
2.85238
2.79622
2.78316
2.78081
2.78152
2.77977
2.77522
2.76966
2.75918
2.72543
2.66555
2.63505
2.63105
2.62841
2.6303
2.64192
2.64431
2.64071
2.6384
2.63004
2.64988
2.89766
4.01762
5.87326
6.90046
7.1895
7.29377
7.31442
7.27765
7.21034
7.07731
6.88037
6.776
6.75545
6.80287
6.9032
6.89914
6.84031
6.72483
6.57347
6.50166
6.48227
6.505
6.5318
6.50307
6.44515
6.35948
1
1
1
1
1
1
1
1
1
1
1
1
1
1
1
1
1
1
1
1
1
1
1
1
1
1
1
1
1
1
1
1
1
1
1
1
1
1
1
1
1
1
1
1
1
1
1
1
1
1
1
1
1
1
1
1
1
1
1
1
1
1
1
1
1
1.0002
1.01309
1.29643
2.27788
3.32388
4.31168
4.51419
4.44007
4.37198
4.36596
4.35548
4.30216
4.27326
4.28223
4.2774
4.2864
4.29205
4.26034
4.23738
4.23541
4.21564
4.17574
4.14142
4.13417
4.11714
4.0879
4.07725
4.06021
4.03142
4.00776
3.9885
3.96889
3.95508
3.93879
3.91324
3.87913
3.84175
3.82423
3.81964
3.81676
3.81204
3.80159
3.7863
3.76828
3.75077
3.73283
3.70395
3.66143
3.63744
3.63713
3.64285
3.65625
3.68796
3.73773
3.79734
3.86584
3.90083
3.90926
3.90496
3.882
3.8443
3.82432
3.81963
3.82337
3.83033
3.82153
3.80817
3.78889
3.75949
3.7073
3.64023
3.6005
3.58331
3.57943
3.59005
3.61258
3.60966
3.59132
3.56327
3.52029
3.47221
3.44101
3.42004
3.40341
3.38682
3.36998
3.35514
3.34894
3.3523
3.36384
3.36038
3.34349
3.32118
3.28827
3.23275
3.17512
3.14028
3.12457
3.12435
3.15093
3.19657
3.20432
3.1897
3.16693
3.12394
3.03591
2.95311
2.92225
2.91485
2.91354
2.93215
2.97861
2.99919
2.99408
2.98871
2.9768
2.94596
2.88364
2.821
2.8038
2.80108
2.80222
2.80605
2.80291
2.79836
2.79066
2.76286
2.70298
2.6604
2.65373
2.65085
2.65218
2.66564
2.67352
2.66809
2.66882
2.66587
2.73246
3.24929
4.7288
6.51493
7.16131
7.29089
7.34098
7.35283
7.31594
7.25823
7.15222
6.97557
6.85497
6.82524
6.84961
6.94353
6.95662
6.90413
6.80193
6.65157
6.56881
6.54568
6.56024
6.58663
6.55938
6.50351
6.41782
6.33946
1
1
1
1
1
1
1
1
1
1
1
1
1
1
1
1
1
1
1
1
1
1
1
1
1
1
1
1
1
1
1
1
1
1
1
1
1
1
1
1
1
1
1
1
1
1
1
1
1
1
1
1
1
1
1
1
1
1
1
1
1
1
1
1
1
1
1.0002
1.01395
1.18276
1.75892
3.26929
4.36042
4.32059
4.37381
4.38351
4.3356
4.29031
4.30936
4.31373
4.33197
4.3324
4.28809
4.26007
4.26232
4.24897
4.20078
4.17086
4.16425
4.14572
4.11345
4.0989
4.09109
4.06422
4.03519
4.01611
3.99855
3.98308
3.96749
3.94432
3.91286
3.87968
3.86246
3.85651
3.8524
3.84844
3.83648
3.81958
3.80052
3.78294
3.76748
3.7439
3.70369
3.66453
3.64749
3.64422
3.64704
3.65436
3.66996
3.70353
3.74988
3.82225
3.87931
3.89781
3.89578
3.87564
3.85878
3.85504
3.85615
3.86393
3.85422
3.83965
3.81984
3.78956
3.73987
3.67588
3.6358
3.62099
3.61821
3.62853
3.64535
3.63923
3.62062
3.59199
3.54784
3.50314
3.47224
3.44938
3.43593
3.42317
3.41118
3.40396
3.40156
3.40341
3.40106
3.38824
3.36876
3.34483
3.3083
3.2548
3.20847
3.1788
3.16713
3.16917
3.19967
3.23507
3.23239
3.21471
3.18973
3.14255
3.05773
2.98631
2.95593
2.94775
2.94751
2.96931
3.01665
3.03709
3.03131
3.02249
3.0057
2.97446
2.9142
2.84761
2.82595
2.82231
2.82283
2.83376
2.83481
2.8309
2.8245
2.79924
2.73933
2.6868
2.67561
2.67241
2.67314
2.68911
2.70252
2.69743
2.69694
2.71056
2.88259
3.78267
5.49565
7.02177
7.32854
7.35757
7.36842
7.39044
7.36443
7.3141
7.22498
7.0656
6.93186
6.89261
6.89892
6.98037
7.01337
6.96979
6.88043
6.73411
6.6353
6.60685
6.61327
6.64085
6.61723
6.5651
6.48071
6.39819
6.36231
1
1
1
1
1
1
1
1
1
1
1
1
1
1
1
1
1
1
1
1
1
1
1
1
1
1
1
1
1
1
1
1
1
1
1
1
1
1
1
1
1
1
1
1
1
1
1
1
1
1
1
1
1
1
1
1
1
1
1
1
1
1
1
1
1
1
1
1.00013
1.00484
1.06814
1.61911
3.2284
4.00947
4.28247
4.41812
4.36874
4.34915
4.35386
4.39011
4.3781
4.3077
4.26995
4.28052
4.28008
4.22126
4.19577
4.18968
4.17163
4.13958
4.11732
4.11419
4.09902
4.06714
4.04672
4.03129
4.01332
3.99744
3.97555
3.94542
3.91614
3.9031
3.89479
3.89047
3.88688
3.87323
3.85176
3.83049
3.81345
3.79852
3.78018
3.7462
3.70391
3.67759
3.66109
3.65474
3.65339
3.65554
3.66508
3.69289
3.73802
3.79147
3.84918
3.87875
3.87972
3.87103
3.87205
3.87419
3.88724
3.88588
3.87194
3.85268
3.82284
3.77635
3.71493
3.67296
3.65904
3.65655
3.66498
3.67487
3.66653
3.64778
3.61954
3.57721
3.53439
3.50365
3.48374
3.47359
3.4678
3.46351
3.45882
3.45303
3.44362
3.42981
3.41216
3.39216
3.36684
3.3283
3.28011
3.24264
3.21809
3.20995
3.2148
3.24738
3.27057
3.26074
3.23933
3.20989
3.15678
3.0798
3.02299
2.9939
2.98564
2.98803
3.01603
3.05958
3.07096
3.06253
3.0498
3.03063
3.00146
2.94347
2.87512
2.85012
2.84548
2.84502
2.8601
2.87185
2.86783
2.86062
2.83408
2.77335
2.71293
2.6969
2.69376
2.69351
2.70968
2.72951
2.73287
2.72975
2.77584
3.15385
4.47542
6.24278
7.33676
7.46131
7.44179
7.4236
7.43574
7.41798
7.37612
7.30093
7.1591
7.01271
6.95982
6.95424
7.01986
7.06946
7.03476
6.95632
6.81843
6.70485
6.66904
6.66569
6.69255
6.67568
6.6285
6.54743
6.46002
6.41861
6.39349
1
1
1
1
1
1
1
1
1
1
1
1
1
1
1
1
1
1
1
1
1
1
1
1
1
1
1
1
1
1
1
1
1
1
1
1
1
1
1
1
1
1
1
1
1
1
1
1
1
1
1
1
1
1
1
1
1
1
1
1
1
1
1
1
1
1
1
1
1.00002
1.00147
1.04644
1.58971
3.0249
3.86813
4.29919
4.43613
4.4347
4.42325
4.39959
4.32805
4.28163
4.29152
4.30531
4.24069
4.21694
4.21143
4.19563
4.16808
4.14506
4.13688
4.13569
4.10919
4.08362
4.0683
4.04969
4.02844
4.01195
3.98287
3.95285
3.94391
3.93664
3.92953
3.92262
3.90664
3.8832
3.85941
3.84127
3.82826
3.81247
3.78448
3.74274
3.71033
3.69379
3.67787
3.66989
3.6648
3.66415
3.67372
3.70042
3.73358
3.76202
3.80446
3.8405
3.85382
3.86246
3.87204
3.89114
3.90629
3.90016
3.88463
3.85836
3.81698
3.75907
3.71308
3.69827
3.69562
3.70057
3.70311
3.69338
3.67354
3.64516
3.60663
3.56795
3.53806
3.52231
3.51631
3.5181
3.51775
3.51021
3.4919
3.46875
3.45072
3.43373
3.41413
3.38815
3.35063
3.30938
3.27748
3.25778
3.25225
3.26139
3.29309
3.30465
3.28894
3.26433
3.2275
3.16817
3.10454
3.06128
3.03546
3.0283
3.03575
3.06801
3.09801
3.09635
3.0857
3.07129
3.0533
3.02626
2.97176
2.9049
2.87646
2.87068
2.86976
2.88696
2.90961
2.90786
2.89815
2.86784
2.80485
2.73889
2.71895
2.71529
2.71413
2.73013
2.75391
2.76624
2.77583
2.88846
3.61902
5.24238
6.91242
7.48927
7.52475
7.49661
7.49006
7.50695
7.48644
7.44354
7.36969
7.23592
7.09171
7.03087
7.01718
7.06835
7.12814
7.10079
7.03117
6.90178
6.7759
6.73105
6.71977
6.74381
6.73423
6.69137
6.61577
6.52459
6.47421
6.44744
6.41817
1
1
1
1
1
1
1
1
1
1
1
1
1
1
1
1
1
1
1
1
1
1
1
1
1
1
1
1
1
1
1
1
1
1
1
1
1
1
1
1
1
1
1
1
1
1
1
1
1
1
1
1
1
1
1
1
1
1
1
1
1
1
1
1
1
1
1
1
1
1.00001
1.00099
1.04631
1.56165
2.60695
3.65813
4.39838
4.46748
4.39345
4.34646
4.32756
4.30871
4.31151
4.26028
4.2386
4.23858
4.23408
4.20011
4.17687
4.17135
4.18103
4.16087
4.1291
4.11194
4.09499
4.07041
4.04782
4.03057
3.99912
3.98427
3.98105
3.97012
3.95363
3.93672
3.91441
3.88918
3.86924
3.85563
3.84318
3.81888
3.77984
3.74174
3.72495
3.7133
3.70229
3.69335
3.68679
3.68843
3.70113
3.71352
3.72455
3.73147
3.7457
3.78164
3.81442
3.84117
3.87302
3.90528
3.91302
3.90797
3.89067
3.85804
3.8073
3.75733
3.73997
3.73672
3.73698
3.7324
3.71997
3.69857
3.67075
3.63747
3.60258
3.5759
3.56533
3.56371
3.5705
3.56705
3.55209
3.52181
3.49334
3.47286
3.45526
3.43627
3.41134
3.37739
3.34147
3.31269
3.29777
3.29463
3.30891
3.33667
3.33772
3.31736
3.28758
3.24132
3.18081
3.13242
3.09961
3.07861
3.07413
3.08798
3.11945
3.12964
3.11948
3.1061
3.09169
3.07486
3.04941
2.99939
2.93666
2.90533
2.89849
2.89744
2.91616
2.94598
2.9472
2.9349
2.90234
2.83593
2.76443
2.74117
2.73717
2.7352
2.74999
2.78365
2.79883
2.8304
3.09398
4.27013
6.09734
7.36931
7.56302
7.57502
7.54273
7.55009
7.5736
7.55851
7.51773
7.44276
7.31115
7.16286
7.09462
7.07808
7.12209
7.19032
7.16919
7.10508
6.98253
6.84881
6.79421
6.77787
6.79652
6.79372
6.75393
6.68249
6.5887
6.52729
6.49928
6.46967
6.43643
1
1
1
1
1
1
1
1
1
1
1
1
1
1
1
1
1
1
1
1
1
1
1
1
1
1
1
1
1
1
1
1
1
1
1
1
1
1
1
1
1
1
1
1
1
1
1
1
1
1
1
1
1
1
1
1
1
1
1
1
1
1
1
1
1
1
1
1
1
1
1.00001
1.00102
1.03781
1.30541
2.09759
3.74998
4.33477
4.31993
4.35622
4.34847
4.31043
4.2817
4.26527
4.27388
4.29148
4.24811
4.21464
4.20835
4.22469
4.20213
4.16828
4.15846
4.15211
4.12609
4.08942
4.07695
4.05654
4.02812
4.019
4.00819
3.98329
3.96169
3.9452
3.9216
3.89861
3.88369
3.87115
3.85026
3.81575
3.77575
3.75445
3.7482