/*--------------------------------*- C++ -*----------------------------------*\
  =========                 |
  \\      /  F ield         | OpenFOAM: The Open Source CFD Toolbox
   \\    /   O peration     | Website:  https://openfoam.org
    \\  /    A nd           | Version:  7
     \\/     M anipulation  |
\*---------------------------------------------------------------------------*/
FoamFile
{
    version     2.0;
    format      ascii;
    class       volScalarField;
    location    "2.9";
    object      p;
}
// * * * * * * * * * * * * * * * * * * * * * * * * * * * * * * * * * * * * * //

dimensions      [1 -1 -2 0 0 0 0];

internalField   nonuniform List<scalar> 
4128
(
0.182047
0.280545
0.373162
0.447083
0.534836
0.591537
0.631154
0.693146
0.766302
0.850539
0.90697
0.95063
0.982896
0.985497
0.994951
1.02956
1.05115
1.04955
1.0407
1.05469
1.09972
1.16831
1.20993
1.21774
1.21411
1.20344
1.20036
1.2133
1.23837
1.25856
1.26808
1.2669
1.26317
1.26596
1.28171
1.3088
1.32504
1.32709
1.32363
1.31384
1.3113
1.31455
1.32385
1.33655
1.34084
1.3393
1.33694
1.33687
1.34112
1.34967
1.35366
1.35313
2.70687
5.31084
5.72356
5.91164
6.03982
6.12616
6.20743
6.28939
6.35683
6.39937
6.42242
6.44437
6.48259
6.53792
6.5881
6.6097
6.59999
6.58451
6.59166
6.63264
6.67861
6.70207
6.69743
6.67764
6.66085
6.66819
6.6832
6.69865
6.70815
6.70507
6.69652
6.69335
6.69518
6.70195
6.70881
6.71616
0.220676
0.225703
0.248675
0.278024
0.306471
0.363892
0.44155
0.513481
0.592064
0.663767
0.728196
0.791055
0.857287
0.904687
0.927537
0.964289
1.01683
1.05708
1.06889
1.07616
1.09112
1.12005
1.15691
1.19231
1.20701
1.20952
1.20502
1.20416
1.21016
1.22219
1.24884
1.27414
1.277
1.27556
1.27962
1.28521
1.29594
1.31304
1.3215
1.32233
1.31747
1.3159
1.31956
1.32776
1.34047
1.34705
1.34682
1.344
1.33976
1.3384
1.34146
1.34779
2.51041
5.22285
5.74661
5.9283
6.05408
6.13681
6.21296
6.29439
6.36821
6.419
6.44395
6.46018
6.49084
6.54184
6.59208
6.61613
6.60801
6.5919
6.59559
6.63326
6.67973
6.70504
6.70099
6.68143
6.66474
6.67071
6.68555
6.70007
6.70877
6.70638
6.69911
6.69645
6.69852
6.70316
6.70816
6.71282
0.314254
0.305929
0.320802
0.324123
0.322953
0.346267
0.398597
0.439193
0.474891
0.519398
0.57839
0.641625
0.711121
0.792062
0.851065
0.899358
0.95814
1.0375
1.10035
1.11494
1.11121
1.11765
1.13699
1.17458
1.20788
1.21994
1.22671
1.22072
1.20163
1.20094
1.21522
1.24874
1.2828
1.29687
1.3006
1.29226
1.28681
1.2937
1.30569
1.32049
1.32638
1.32567
1.32278
1.32505
1.33409
1.34844
1.35566
1.35629
1.35275
1.34078
1.33444
1.33615
2.13506
5.04406
5.79778
5.95633
6.07767
6.15723
6.2236
6.28846
6.35364
6.40947
6.44805
6.47017
6.4922
6.53011
6.57607
6.60506
6.60763
6.59733
6.59533
6.62338
6.66598
6.69463
6.69819
6.68489
6.66973
6.66919
6.68115
6.69461
6.70689
6.70932
6.70329
6.69672
6.69482
6.69887
6.70798
6.71221
0.556741
0.474528
0.468252
0.473203
0.459445
0.433629
0.421556
0.425541
0.437117
0.451482
0.468505
0.495513
0.544201
0.619106
0.708144
0.769356
0.825679
0.910453
0.993402
1.04225
1.063
1.08476
1.11465
1.1484
1.17973
1.20431
1.22083
1.22193
1.20673
1.202
1.21452
1.24219
1.27763
1.29164
1.29586
1.29328
1.28085
1.28079
1.28871
1.30337
1.31976
1.32346
1.32122
1.31915
1.32373
1.33604
1.34778
1.35177
1.35189
1.34552
1.33632
1.33436
1.65606
4.66292
5.89446
6.00612
6.10606
6.17731
6.23953
6.29411
6.35039
6.4081
6.45718
6.48882
6.508
6.53279
6.5691
6.60041
6.61302
6.60932
6.60422
6.61927
6.65335
6.68336
6.69522
6.69026
6.67844
6.67098
6.67869
6.69104
6.70516
6.71179
6.70666
6.69619
6.68997
6.69571
6.70967
6.71582
0.855298
0.722916
0.622131
0.615519
0.606582
0.569531
0.524647
0.509141
0.511835
0.513336
0.514418
0.524242
0.522078
0.524432
0.536655
0.56068
0.596341
0.667095
0.778353
0.899382
0.985676
1.03192
1.06468
1.09788
1.12712
1.15108
1.17588
1.19785
1.20724
1.21319
1.22562
1.24156
1.26099
1.28388
1.29708
1.29949
1.29241
1.28054
1.28286
1.29043
1.30454
1.31816
1.32235
1.32484
1.33016
1.33631
1.33989
1.3419
1.34365
1.34208
1.33709
1.33265
1.38418
4.06223
5.95767
6.06597
6.12369
6.17449
6.24212
6.3037
6.35507
6.39714
6.43215
6.45878
6.48361
6.51407
6.54899
6.58116
6.60067
6.60839
6.61255
6.62148
6.64219
6.66585
6.6816
6.68701
6.68392
6.67685
6.67899
6.68677
6.69937
6.71053
6.7094
6.69816
6.68762
6.6922
6.70776
6.71756
1.10903
1.02222
0.898507
0.786997
0.76191
0.731746
0.685336
0.644918
0.613483
0.599741
0.591784
0.581057
0.570929
0.565811
0.561176
0.547817
0.539012
0.545197
0.575324
0.642989
0.742578
0.83787
0.907253
0.966298
1.01561
1.05248
1.09776
1.15068
1.18662
1.21405
1.21963
1.22464
1.23814
1.26031
1.2768
1.28401
1.28594
1.27928
1.27284
1.27757
1.28818
1.3101
1.33025
1.33512
1.334
1.32568
1.32202
1.32421
1.32993
1.33631
1.33811
1.33712
1.3401
3.29282
5.90805
6.16618
6.19613
6.2194
6.24491
6.29168
6.34698
6.3968
6.4369
6.46188
6.48298
6.50877
6.54211
6.57452
6.5977
6.60963
6.61725
6.62647
6.63978
6.65602
6.67091
6.68115
6.68486
6.68176
6.67915
6.68268
6.69252
6.70586
6.71023
6.70319
6.69268
6.69321
6.7041
6.71324
1.37383
1.25649
1.13416
1.00046
0.918146
0.882549
0.853139
0.815553
0.760699
0.702343
0.675338
0.664632
0.657642
0.652253
0.641968
0.624366
0.599921
0.575329
0.571362
0.57513
0.592536
0.625568
0.662724
0.713784
0.793662
0.878459
0.946689
1.01628
1.10274
1.18418
1.20741
1.203
1.20495
1.21661
1.23682
1.2633
1.27452
1.27599
1.2695
1.26987
1.27995
1.3004
1.32208
1.32939
1.33022
1.32446
1.31604
1.31697
1.32108
1.32876
1.33549
1.33754
1.33843
2.56328
5.7522
6.26266
6.23592
6.23885
6.26268
6.29179
6.32798
6.36613
6.40243
6.43086
6.45433
6.48171
6.51058
6.54049
6.5663
6.58638
6.60037
6.6126
6.62593
6.6415
6.65775
6.67212
6.67995
6.68123
6.67747
6.67714
6.68329
6.69646
6.70699
6.70807
6.70174
6.6982
6.70046
6.70487
1.64468
1.49894
1.37552
1.24304
1.08749
1.01673
0.99925
0.974974
0.937789
0.887354
0.822018
0.76712
0.744002
0.734706
0.722009
0.701298
0.675951
0.651623
0.622505
0.601699
0.602665
0.613969
0.623997
0.632783
0.64912
0.682829
0.730193
0.795648
0.881638
0.981977
1.09694
1.17345
1.18391
1.17969
1.19017
1.21621
1.25393
1.2692
1.27102
1.26447
1.26855
1.27981
1.30076
1.32072
1.3257
1.32684
1.32073
1.31292
1.31315
1.31835
1.32889
1.33658
1.33778
1.94651
5.44173
6.35789
6.28823
6.26312
6.25294
6.27268
6.30069
6.34025
6.38159
6.41101
6.43221
6.45269
6.48131
6.51479
6.54793
6.57389
6.59234
6.60543
6.61898
6.63417
6.65117
6.6678
6.67908
6.68119
6.67598
6.67155
6.67469
6.68724
6.70287
6.71173
6.70988
6.70371
6.69838
6.69758
1.91684
1.68904
1.56699
1.47391
1.36332
1.24962
1.12612
1.07144
1.05984
1.03609
0.992978
0.936669
0.866491
0.8066
0.784362
0.773057
0.765377
0.753503
0.730142
0.694178
0.66683
0.663802
0.659415
0.648593
0.652884
0.654839
0.654528
0.659396
0.68174
0.731398
0.81778
0.917547
1.0269
1.10792
1.13044
1.15423
1.19344
1.24316
1.26523
1.26758
1.25763
1.2626
1.27678
1.2995
1.31775
1.32107
1.31853
1.30724
1.30374
1.30622
1.31859
1.33447
1.33716
1.49594
4.99916
6.38374
6.30224
6.27154
6.26222
6.26095
6.27674
6.31046
6.34317
6.37324
6.40125
6.4274
6.45112
6.47406
6.49737
6.52713
6.5547
6.5756
6.58941
6.603
6.62179
6.64389
6.66334
6.6731
6.67025
6.66292
6.66252
6.67351
6.69248
6.70773
6.71034
6.70347
6.69364
6.68964
2.19258
1.97952
1.77383
1.62631
1.55348
1.4767
1.37604
1.2593
1.15795
1.12439
1.1082
1.07413
1.01977
0.94303
0.874349
0.855285
0.853508
0.846189
0.82926
0.80269
0.761621
0.728109
0.720914
0.707327
0.680448
0.674537
0.678748
0.676173
0.669949
0.669792
0.677609
0.700729
0.758497
0.843851
0.940071
1.01334
1.0708
1.12899
1.19777
1.25177
1.25771
1.26367
1.27426
1.28595
1.30122
1.30675
1.3048
1.29407
1.29262
1.29731
1.31173
1.33231
1.33738
1.34711
4.42805
6.32883
6.28294
6.26253
6.25604
6.25208
6.25985
6.26831
6.28436
6.31467
6.34189
6.37216
6.40433
6.43548
6.46627
6.4928
6.51641
6.53988
6.5618
6.58073
6.60045
6.62375
6.64725
6.66407
6.66803
6.66147
6.65707
6.66466
6.68365
6.70145
6.70586
6.69713
6.6849
6.67982
2.39196
2.19522
2.03713
1.88152
1.7165
1.60789
1.55068
1.47
1.37015
1.25874
1.17779
1.15008
1.12301
1.08006
1.02798
0.966022
0.917838
0.905954
0.902703
0.892755
0.871073
0.830103
0.798435
0.78103
0.75072
0.728874
0.727646
0.721955
0.709421
0.699271
0.688196
0.685109
0.688285
0.699312
0.727819
0.774007
0.842608
0.92845
1.0166
1.11142
1.20032
1.25005
1.26684
1.26948
1.27786
1.28088
1.27676
1.27708
1.28372
1.29723
1.31393
1.32912
1.33245
1.32704
3.76887
6.23912
6.27304
6.2354
6.23847
6.24211
6.23601
6.2324
6.24132
6.25579
6.27982
6.31021
6.3435
6.37686
6.41181
6.44207
6.47102
6.49388
6.51596
6.53624
6.55827
6.58329
6.60759
6.62855
6.64046
6.64092
6.63786
6.64319
6.66047
6.67962
6.68552
6.6789
6.66811
6.66226
2.63566
2.40822
2.24511
2.11323
1.96463
1.79762
1.6675
1.60412
1.54487
1.45616
1.33984
1.22994
1.187
1.17252
1.1489
1.10805
1.04912
0.987248
0.963816
0.961637
0.951898
0.921129
0.881859
0.854269
0.823691
0.789735
0.780091
0.774178
0.761796
0.749914
0.738721
0.718609
0.698682
0.700117
0.704374
0.709802
0.719715
0.746023
0.797002
0.871859
0.977833
1.09223
1.1793
1.20075
1.22222
1.23784
1.2487
1.26476
1.29006
1.30575
1.31366
1.31706
1.31883
1.31655
3.16426
6.12046
6.27636
6.19045
6.17266
6.18843
6.18979
6.18436
6.185
6.19643
6.22038
6.25446
6.2913
6.32541
6.3539
6.37795
6.40571
6.43654
6.46993
6.49889
6.52389
6.54363
6.56346
6.58827
6.60937
6.62023
6.62249
6.6271
6.64134
6.65697
6.66144
6.65366
6.64211
6.63563
2.86064
2.65573
2.45473
2.26636
2.1364
2.00807
1.87238
1.72281
1.62448
1.57556
1.50299
1.40377
1.30167
1.2422
1.226
1.21076
1.17795
1.12455
1.05574
1.01683
1.00772
0.990219
0.957093
0.92974
0.903583
0.870278
0.847986
0.838052
0.828706
0.818529
0.807074
0.785067
0.748041
0.73161
0.726093
0.720662
0.721412
0.723145
0.725898
0.736379
0.769991
0.830437
0.911034
1.00034
1.07986
1.14192
1.19674
1.24357
1.28186
1.29549
1.29504
1.28742
1.28654
1.29285
2.61861
5.94076
6.31467
6.20005
6.15438
6.14128
6.12634
6.11467
6.11676
6.1315
6.15967
6.20097
6.24534
6.28273
6.30674
6.32181
6.33797
6.36785
6.40496
6.44433
6.47835
6.4992
6.51685
6.53334
6.55195
6.56834
6.57751
6.58408
6.59462
6.60594
6.60661
6.59579
6.58568
6.58669
3.05658
2.84749
2.65707
2.45769
2.27998
2.16107
2.05642
1.91616
1.75668
1.65205
1.60363
1.55182
1.47907
1.38578
1.30646
1.28102
1.26882
1.2389
1.1853
1.10838
1.06362
1.05272
1.02893
0.998778
0.975903
0.9536
0.929513
0.903034
0.880921
0.873211
0.864452
0.846191
0.817271
0.787422
0.770332
0.75383
0.739029
0.736673
0.735889
0.736871
0.740662
0.744244
0.751849
0.777118
0.829136
0.919392
1.01561
1.11019
1.20301
1.24549
1.2642
1.26772
1.26596
1.26698
2.12276
5.68749
6.33589
6.18732
6.12307
6.07628
6.04393
6.02921
6.03734
6.05836
6.09328
6.1433
6.19582
6.23584
6.25724
6.26489
6.27494
6.29925
6.33486
6.37722
6.41297
6.43968
6.45946
6.47313
6.49026
6.50831
6.52227
6.5321
6.53996
6.54325
6.53597
6.52245
6.51463
6.47593
3.24186
3.00946
2.80758
2.64073
2.46941
2.29811
2.15655
2.05211
1.93649
1.81439
1.69467
1.63851
1.6044
1.54634
1.46321
1.37119
1.32815
1.31342
1.28337
1.22642
1.14956
1.11501
1.09791
1.07113
1.0423
1.02258
1.00415
0.9806
0.949526
0.932195
0.91771
0.898203
0.874538
0.850202
0.83151
0.817602
0.801057
0.789094
0.780351
0.768664
0.760069
0.753072
0.739884
0.732374
0.735407
0.752888
0.797327
0.875907
0.98562
1.08712
1.19229
1.24101
1.26241
1.24788
1.73765
5.35189
6.28099
6.09111
6.04189
6.00132
5.97245
5.95874
5.96785
5.98992
6.02588
6.08014
6.13804
6.18022
6.20183
6.2059
6.21182
6.23435
6.2714
6.31422
6.35117
6.37883
6.39293
6.39975
6.40934
6.42579
6.44305
6.45179
6.45587
6.44666
6.41544
6.36224
6.30339
6.27581
3.3909
3.15877
2.96304
2.7816
2.62096
2.46543
2.29857
2.15796
2.07378
1.98893
1.87219
1.74879
1.68578
1.65611
1.60518
1.52126
1.42189
1.36911
1.3484
1.31562
1.25639
1.19186
1.16919
1.15119
1.12022
1.089
1.06801
1.04765
1.0186
0.995489
0.975994
0.953295
0.920223
0.896041
0.882081
0.871642
0.86106
0.848147
0.834882
0.817177
0.795242
0.778564
0.761407
0.743109
0.740118
0.742776
0.746463
0.758408
0.791024
0.850608
0.935629
1.02529
1.11472
1.15311
1.50674
5.07101
6.15854
5.95765
5.90861
5.87179
5.85574
5.86901
5.89743
5.92797
5.96407
6.01491
6.07255
6.11734
6.13958
6.14014
6.14502
6.16972
6.20892
6.25195
6.28971
6.3152
6.32336
6.32171
6.32178
6.33175
6.34398
6.34838
6.34003
6.30979
6.25672
6.18095
6.08542
6.10719
3.51918
3.3048
3.12154
2.93679
2.74909
2.60364
2.46588
2.32064
2.18366
2.09708
2.01733
1.92021
1.81357
1.72447
1.68548
1.63701
1.55602
1.4589
1.40707
1.38355
1.34814
1.28948
1.23928
1.22048
1.1997
1.16598
1.1333
1.10713
1.07934
1.05452
1.03077
1.00897
0.980107
0.948364
0.930838
0.921137
0.915511
0.907664
0.894568
0.874544
0.843017
0.818616
0.803848
0.786921
0.777777
0.77301
0.766609
0.763568
0.765832
0.771342
0.7819
0.810038
0.858961
0.925327
1.26331
4.71592
5.88801
5.77458
5.78122
5.7742
5.78554
5.81435
5.84854
5.87417
5.90221
5.94621
6.00456
6.05031
6.06982
6.06732
6.07618
6.1051
6.14814
6.19147
6.22476
6.24264
6.24081
6.23107
6.22731
6.23526
6.24024
6.23257
6.20623
6.15223
6.06106
5.87935
5.42772
4.30675
3.64692
3.45027
3.25589
3.07091
2.89203
2.73815
2.59475
2.46743
2.34296
2.21835
2.1186
2.05161
1.96471
1.83869
1.75266
1.71474
1.66406
1.58376
1.491
1.44861
1.42669
1.39118
1.33397
1.28356
1.26584
1.24249
1.2107
1.17317
1.1357
1.10862
1.08246
1.05579
1.03668
1.01826
0.993145
0.965357
0.958888
0.955512
0.943987
0.926682
0.897763
0.856111
0.836298
0.825765
0.816934
0.81261
0.805578
0.794907
0.786004
0.779374
0.769207
0.763565
0.76655
0.780267
0.956257
4.10907
5.62444
5.64116
5.69815
5.68585
5.6906
5.71613
5.76572
5.8128
5.8489
5.88906
5.94273
5.98644
6.00165
5.99771
6.01136
6.05283
6.10231
6.14216
6.16244
6.16119
6.1454
6.13555
6.13543
6.13918
6.1326
6.10881
6.05829
5.96848
5.80707
5.51235
4.95595
3.83178
3.77965
3.57987
3.38591
3.19321
3.03303
2.87995
2.73195
2.58636
2.47853
2.36471
2.23837
2.13374
2.06319
1.97109
1.86557
1.78338
1.73768
1.68582
1.60617
1.52601
1.49375
1.47428
1.43526
1.3716
1.3206
1.30015
1.28043
1.25074
1.20494
1.16219
1.13365
1.10396
1.08591
1.0754
1.05793
1.03079
1.01056
0.998798
0.980063
0.961621
0.943117
0.91619
0.888463
0.874281
0.868633
0.863213
0.855828
0.844824
0.82761
0.80789
0.783967
0.768684
0.766667
0.767242
0.776051
3.2796
5.40635
5.50134
5.57245
5.60646
5.64412
5.6762
5.71497
5.76143
5.80527
5.84295
5.88274
5.92022
5.93423
5.93156
5.94739
5.99467
6.05125
6.08185
6.08331
6.05768
6.03954
6.03775
6.042
6.04217
6.02463
5.98134
5.89897
5.76832
5.55991
5.1955
4.62606
3.63452
3.89745
3.69771
3.49778
3.32206
3.15941
3.00375
2.85073
2.71519
2.59002
2.47503
2.35871
2.24524
2.14831
2.06935
1.98988
1.88709
1.80908
1.76725
1.71574
1.63974
1.56641
1.53993
1.51087
1.46616
1.41167
1.35606
1.327
1.30885
1.27643
1.22978
1.18871
1.15581
1.1403
1.12703
1.11094
1.09039
1.06873
1.04718
1.01991
0.986529
0.970507
0.959213
0.94249
0.922815
0.916104
0.909576
0.899919
0.889716
0.873476
0.848699
0.814406
0.785628
0.779143
0.778584
0.779597
2.2358
5.0733
5.46168
5.52004
5.54662
5.57579
5.61379
5.66578
5.71381
5.75797
5.79976
5.83488
5.85968
5.87305
5.87475
5.8854
5.9347
5.99388
6.01404
5.9931
5.94904
5.93081
5.93852
5.94861
5.94891
5.92029
5.85236
5.73592
5.57453
5.32923
4.97381
4.40115
3.58995
3.99949
3.79845
3.61061
3.44203
3.2755
3.11497
2.96343
2.83532
2.70593
2.58049
2.46014
2.36289
2.25927
2.15103
2.08023
2.00691
1.90924
1.8342
1.7979
1.7474
1.67071
1.61042
1.5684
1.53531
1.49832
1.44676
1.38285
1.34775
1.329
1.30072
1.25969
1.21454
1.19746
1.18186
1.16482
1.14609
1.12293
1.09503
1.06425
1.02427
1.00416
0.998439
0.988744
0.973794
0.964476
0.955185
0.939827
0.925392
0.910747
0.887028
0.858319
0.834115
0.825272
0.82234
0.81544
1.31424
4.45289
5.39064
5.46204
5.5288
5.57378
5.60551
5.64709
5.70082
5.75235
5.78625
5.80402
5.81156
5.81538
5.82306
5.83639
5.87479
5.93561
5.95024
5.90884
5.85416
5.83611
5.85039
5.87025
5.87605
5.82332
5.71264
5.57379
5.39036
5.15722
4.7848
4.26802
3.60764
4.09003
3.89413
3.72056
3.5473
3.38075
3.21624
3.07834
2.94031
2.81325
2.68146
2.56906
2.46168
2.36537
2.25712
2.17092
2.10265
2.0218
1.93183
1.87103
1.82792
1.77317
1.70618
1.63665
1.58719
1.5595
1.52337
1.46897
1.40326
1.37209
1.35407
1.32724
1.29252
1.26365
1.23514
1.20944
1.19342
1.17348
1.14373
1.109
1.06747
1.05097
1.04327
1.03356
1.02224
1.01181
1.00125
0.986068
0.960178
0.933581
0.911471
0.892732
0.879584
0.873179
0.866027
0.852409
0.895389
3.32013
5.30028
5.43651
5.48894
5.54064
5.58102
5.64745
5.70237
5.73128
5.74827
5.7458
5.73818
5.73602
5.75175
5.78367
5.82412
5.86905
5.88031
5.83287
5.7763
5.75222
5.76943
5.80001
5.79532
5.70985
5.56855
5.41869
5.23291
4.99178
4.64899
4.20359
3.6454
4.17525
3.99516
3.8176
3.64427
3.47366
3.32537
3.18277
3.04557
2.9097
2.78796
2.67681
2.56612
2.4604
2.36117
2.27548
2.18739
2.10851
2.0406
1.96644
1.89209
1.84397
1.79659
1.72512
1.65147
1.61729
1.58335
1.53978
1.48666
1.44209
1.405
1.37719
1.35684
1.3332
1.30487
1.26382
1.23049
1.2095
1.18454
1.1535
1.11726
1.10242
1.09037
1.07529
1.06362
1.05471
1.04419
1.02851
0.998454
0.959388
0.941414
0.931064
0.923833
0.919741
0.913576
0.900657
0.894964
1.99117
4.94518
5.39941
5.4515
5.51856
5.57989
5.63398
5.68744
5.72281
5.72035
5.70124
5.69843
5.71362
5.73656
5.76685
5.79872
5.81627
5.80519
5.76214
5.70753
5.67644
5.69406
5.72801
5.70842
5.60036
5.44044
5.27919
5.09306
4.86442
4.5649
4.18157
3.70427
4.26096
4.08598
3.9091
3.73116
3.57272
3.42738
3.28226
3.14185
3.00823
2.89324
2.7745
2.66795
2.55299
2.46113
2.37053
2.2846
2.19378
2.12942
2.06413
1.98123
1.90416
1.8617
1.80833
1.73927
1.68518
1.63904
1.59211
1.55567
1.51892
1.47681
1.42959
1.4059
1.38807
1.36402
1.32845
1.28331
1.24605
1.21857
1.19476
1.17342
1.15985
1.14502
1.1238
1.10522
1.09353
1.07906
1.05721
1.02547
0.991847
0.976704
0.966927
0.960773
0.958847
0.95538
0.946563
0.920868
1.08195
4.06348
5.35281
5.4384
5.49782
5.56098
5.62763
5.67775
5.69577
5.69247
5.67384
5.68324
5.71409
5.75309
5.78927
5.79744
5.7816
5.745
5.69795
5.65057
5.61823
5.6268
5.66078
5.62891
5.49897
5.32963
5.16042
4.97731
4.77269
4.51644
4.18145
3.76026
4.34562
4.16896
3.98988
3.82161
3.67263
3.5213
3.37524
3.23269
3.11197
2.98844
2.87326
2.75494
2.65191
2.55511
2.46054
2.37137
2.28761
2.21234
2.13824
2.06603
1.99076
1.92736
1.87179
1.81974
1.76573
1.70849
1.65113
1.61811
1.58646
1.54965
1.50048
1.46683
1.43836
1.40712
1.37519
1.33807
1.29752
1.26408
1.23755
1.22324
1.21213
1.19624
1.17526
1.15364
1.13592
1.11566
1.08572
1.0476
1.02871
1.0201
1.00856
1.00001
0.995417
0.990799
0.985566
0.966887
0.947755
2.6004
5.11433
5.39674
5.4852
5.56098
5.61941
5.65442
5.67032
5.67073
5.65816
5.65339
5.69421
5.73726
5.75466
5.74287
5.70869
5.66736
5.62485
5.59329
5.57805
5.57863
5.58789
5.54244
5.40428
5.23621
5.06552
4.88988
4.70817
4.48801
4.18878
3.80929
4.42258
4.24571
4.06699
3.91322
3.76183
3.611
3.45807
3.32944
3.20474
3.08135
2.95999
2.84429
2.74498
2.6422
2.55068
2.45347
2.3776
2.29651
2.21747
2.13743
2.07498
2.01017
1.93815
1.8793
1.83556
1.78502
1.72321
1.68237
1.64718
1.61001
1.56716
1.53136
1.49407
1.45446
1.41263
1.38032
1.34915
1.32275
1.29489
1.27753
1.26126
1.24173
1.22176
1.20063
1.17701
1.14912
1.11068
1.07686
1.06934
1.06323
1.0527
1.04446
1.03707
1.02258
1.01154
1.00069
0.967673
1.32145
4.4878
5.36923
5.4653
5.54407
5.60113
5.63019
5.64541
5.64024
5.63786
5.64175
5.66321
5.70487
5.70571
5.66079
5.60516
5.57026
5.55179
5.54007
5.53842
5.53956
5.51643
5.44259
5.31316
5.15702
4.99437
4.83059
4.66572
4.47017
4.19772
3.85501
4.49318
4.3137
4.14927
3.9985
3.84477
3.68778
3.54721
3.42164
3.29121
3.16617
3.04149
2.93804
2.8298
2.73105
2.62873
2.54274
2.45916
2.3756
2.2953
2.2173
2.14876
2.08474
2.01667
1.95111
1.9001
1.85213
1.80263
1.75758
1.71243
1.66403
1.62433
1.58837
1.55065
1.50641
1.45687
1.42498
1.39984
1.37805
1.35463
1.33584
1.31223
1.28528
1.26183
1.24135
1.21563
1.18145
1.13706
1.11701
1.11145
1.10466
1.09569
1.08759
1.0788
1.06461
1.03815
1.01841
0.990154
0.997244
3.09976
5.23435
5.43183
5.51492
5.57906
5.61081
5.61916
5.6156
5.61436
5.62159
5.64192
5.66739
5.66946
5.62545
5.57166
5.53874
5.52534
5.52551
5.52919
5.50728
5.44841
5.34989
5.22498
5.08568
4.93984
4.7926
4.64008
4.45979
4.20767
3.89852
4.55796
4.38168
4.22809
4.07574
3.91961
3.76387
3.63563
3.50387
3.375
3.24098
3.13057
3.02213
2.91518
2.81057
2.71102
2.62787
2.53708
2.45568
2.36897
2.29908
2.22532
2.1559
2.08577
2.02963
1.97438
1.9161
1.8677
1.82464
1.77837
1.7223
1.67945
1.64106
1.60306
1.55482
1.51147
1.48152
1.45655
1.433
1.41066
1.38902
1.36131
1.3327
1.30359
1.2758
1.24542
1.2106
1.17612
1.16669
1.15899
1.14815
1.13673
1.12741
1.11508
1.09966
1.07628
1.04406
1.01598
0.999136
1.6015
4.75301
5.42534
5.49609
5.55239
5.58688
5.59451
5.59207
5.59188
5.60287
5.62194
5.63393
5.63629
5.60704
5.54708
5.52228
5.52144
5.53682
5.5311
5.48437
5.39274
5.27512
5.14982
5.02377
4.89763
4.77295
4.63094
4.45663
4.21723
3.93376
4.61388
4.45179
4.30072
4.14648
3.98565
3.84663
3.7166
3.58365
3.44657
3.32364
3.21623
3.10256
2.99558
2.88551
2.79853
2.70479
2.61752
2.52691
2.44873
2.37357
2.30011
2.2269
2.15981
2.10241
2.04775
1.9891
1.93497
1.88378
1.83518
1.78402
1.73974
1.69553
1.65142
1.60026
1.56965
1.54293
1.51767
1.48819
1.46292
1.43536
1.40438
1.37536
1.3468
1.31296
1.27744
1.24295
1.22298
1.21687
1.20781
1.19572
1.18034
1.16583
1.14761
1.1246
1.10302
1.07649
1.04586
1.02489
1.07089
3.46756
5.33172
5.47245
5.52497
5.55766
5.56935
5.57011
5.57422
5.58396
5.59666
5.6032
5.59475
5.57435
5.53774
5.50402
5.50989
5.51133
5.48646
5.4161
5.31786
5.20307
5.08505
4.97342
4.87049
4.76764
4.63512
4.45834
4.22446
3.96205
4.67149
4.51923
4.36746
4.21059
4.05573
3.92585
3.79207
3.65721
3.51882
3.40869
3.29364
3.18295
3.06527
2.96885
2.87717
2.78209
2.69159
2.60084
2.52673
2.44561
2.37301
2.29598
2.23703
2.17502
2.11563
2.05445
2.00102
1.94608
1.8906
1.84124
1.79731
1.75217
1.70235
1.65721
1.63086
1.60336
1.5765
1.54359
1.51238
1.47756
1.44474
1.41372
1.38323
1.34717
1.31511
1.28684
1.2745
1.26643
1.25396
1.24008
1.22322
1.20257
1.17876
1.15152
1.12271
1.10129
1.08479
1.06481
1.06777
1.85884
4.90425
5.46647
5.50772
5.52926
5.54078
5.54549
5.5524
5.56278
5.57243
5.57721
5.56961
5.55001
5.5249
5.49862
5.47942
5.4635
5.41207
5.31653
5.20862
5.1086
5.01399
4.93208
4.85504
4.76942
4.64432
4.46036
4.22905
3.98485
4.7315
4.5818
4.42848
4.26884
4.13051
3.99814
3.86333
3.72084
3.59931
3.48668
3.37028
3.25193
3.14028
3.05011
2.95051
2.85833
2.75867
2.68073
2.59816
2.52014
2.43891
2.37158
2.30906
2.24605
2.1804
2.11945
2.06237
2.0078
1.95091
1.9011
1.8519
1.80629
1.75557
1.72283
1.69414
1.66325
1.62876
1.59276
1.55771
1.52066
1.48705
1.4538
1.4206
1.38574
1.35989
1.33842
1.32906
1.31676
1.29977
1.28081
1.26054
1.23585
1.2094
1.18051
1.14969
1.12969
1.11889
1.1085
1.09367
1.17871
3.70065
5.37994
5.47313
5.49582
5.50749
5.51677
5.52685
5.53957
5.54867
5.55227
5.54627
5.52774
5.50301
5.47446
5.44261
5.40784
5.35206
5.26128
5.16485
5.07698
4.99773
4.93009
4.86613
4.77606
4.64208
4.453
4.22969
4.00215
4.78932
4.64023
4.48525
4.3337
4.20182
4.06614
3.92735
3.78931
3.6775
3.55889
3.44301
3.31796
3.22159
3.12301
3.02579
2.92417
2.83397
2.75504
2.66953
2.59016
2.50813
2.44664
2.37746
2.31224
2.24144
2.18451
2.12491
2.06855
2.01023
1.96143
1.91046
1.86271
1.81632
1.78816
1.75455
1.71952
1.6769
1.63771
1.5985
1.56317
1.52875
1.49425
1.45996
1.43097
1.40859
1.39129
1.38027
1.36273
1.34231
1.3176
1.29194
1.2644
1.23875
1.20997
1.18488
1.16911
1.1553
1.14479
1.13203
1.13187
2.0272
4.97005
5.44983
5.47439
5.48874
5.49882
5.50854
5.51959
5.52657
5.52819
5.52221
5.50467
5.47734
5.44279
5.4039
5.35704
5.30329
5.22821
5.13554
5.0592
4.99311
4.9321
4.86748
4.76888
4.6246
4.43395
4.22541
4.01571
4.84385
4.69222
4.5361
4.40075
4.26658
4.1295
3.98395
3.86312
3.74755
3.62929
3.50405
3.39265
3.29757
3.19429
3.09443
2.98949
2.9108
2.8234
2.7421
2.65275
2.58359
2.51501
2.44519
2.37104
2.30577
2.24783
2.18907
2.12767
2.0712
2.02043
1.97129
1.92145
1.8828
1.84987
1.81054
1.76815
1.72148
1.68173
1.64199
1.60806
1.57012
1.53797
1.50626
1.4828
1.4609
1.44599
1.4292
1.40588
1.38057
1.35129
1.32211
1.29346
1.26838
1.24038
1.22222
1.20995
1.19677
1.18255
1.17151
1.15165
1.2564
3.77795
5.35906
5.43459
5.45848
5.4786
5.49351
5.50327
5.50856
5.50761
5.49916
5.48007
5.44846
5.40584
5.35723
5.30675
5.25087
5.18922
5.12104
5.04729
4.9874
4.91695
4.83275
4.71473
4.56805
4.39311
4.20898
4.02073
4.89587
4.74228
4.59485
4.46247
4.32707
4.1867
4.04913
3.93494
3.81426
3.69412
3.56736
3.47033
3.36697
3.26617
3.15519
3.06473
2.98138
2.89325
2.80705
2.72127
2.65553
2.58013
2.50897
2.43015
2.37274
2.31128
2.25238
2.18532
2.1338
2.08163
2.0334
1.98224
1.9467
1.90614
1.86235
1.81106
1.76675
1.72696
1.68969
1.65306
1.61462
1.58578
1.55757
1.53543
1.51248
1.49544
1.4717
1.44424
1.41315
1.38265
1.35334
1.32708
1.30283
1.27825
1.26361
1.24966
1.23562
1.22184
1.21071
1.18519
1.1753
2.06309
4.97703
5.41366
5.43804
5.4603
5.47935
5.49078
5.4956
5.49104
5.47721
5.45201
5.41472
5.3679
5.31932
5.2734
5.22531
5.17336
5.11584
5.04949
4.96853
4.87947
4.77651
4.64439
4.49773
4.33708
4.17527
4.01454
4.93931
4.78668
4.6529
4.51862
4.38232
4.23816
4.11802
3.9997
3.87957
3.74979
3.63838
3.54018
3.43475
3.32818
3.21995
3.13875
3.04739
2.96184
2.86575
2.79385
2.72022
2.64545
2.56545
2.49583
2.4378
2.37524
2.31021
2.2451
2.19617
2.14469
2.09358
2.04374
2.00465
1.95761
1.9086
1.85377
1.81433
1.77475
1.73966
1.69733
1.66524
1.63782
1.61165
1.58696
1.56423
1.54125
1.51036
1.47827
1.44189
1.41332
1.38612
1.36371
1.33902
1.31983
1.30558
1.29005
1.27334
1.25803
1.24618
1.22441
1.18986
1.28994
3.72817
5.32211
5.4239
5.45567
5.47327
5.48215
5.4828
5.47354
5.4534
5.42035
5.37787
5.33211
5.28946
5.25144
5.21164
5.16486
5.10608
5.03176
4.94102
4.83629
4.72704
4.60634
4.47729
4.34329
4.20533
4.06495
4.98316
4.84213
4.70878
4.57363
4.43322
4.30078
4.18468
4.06243
3.9395
3.81101
3.71168
3.6052
3.50119
3.38515
3.2936
3.2064
3.11541
3.02204
2.93222
2.86321
2.78332
2.70838
2.62402
2.56473
2.50067
2.43802
2.36497
2.30904
2.2584
2.20719
2.15017
2.10276
2.05743
2.0075
1.95172
1.90272
1.86596
1.82738
1.78944
1.74573
1.71987
1.69121
1.6646
1.63518
1.61018
1.57971
1.54536
1.50947
1.47499
1.44967
1.42477
1.40376
1.3791
1.36319
1.34642
1.32943
1.31035
1.29184
1.27437
1.25426
1.21825
1.21607
2.00624
4.94779
5.40864
5.436
5.45566
5.46756
5.46856
5.45598
5.42954
5.38993
5.34389
5.30074
5.26495
5.23526
5.20198
5.15698
5.09361
5.00945
4.90965
4.80158
4.69053
4.5828
4.47076
4.35065
4.2233
4.09421
5.02711
4.89565
4.75997
4.6231
4.48303
4.3648
4.24312
4.12208
3.99077
3.87939
3.77676
3.66878
3.55822
3.44784
3.36416
3.26998
3.18024
3.07801
3.00286
2.92612
2.84783
2.7643
2.68967
2.6299
2.56217
2.49512
2.42188
2.37278
2.31906
2.26555
2.20405
2.1575
2.10717
2.0563
1.9969
1.95657
1.91903
1.88155
1.83676
1.80053
1.77477
1.74419
1.71383
1.68091
1.65114
1.61386
1.5783
1.53873
1.51237
1.48966
1.46714
1.44434
1.42094
1.40546
1.38609
1.36735
1.34609
1.32703
1.30504
1.28277
1.25645
1.23
1.31468
3.64844
5.30803
5.40971
5.4377
5.45136
5.45127
5.43561
5.40541
5.36164
5.31298
5.27236
5.24325
5.21987
5.19057
5.14445
5.0732
4.97847
4.86965
4.76088
4.65962
4.56137
4.46595
4.36089
4.23973
4.11083
5.07836
4.94469
4.8101
4.66962
4.54355
4.42388
4.30034
4.17468
4.0495
3.94787
3.83722
3.73096
3.61194
3.51932
3.42906
3.33536
3.23725
3.14257
3.07079
2.98795
2.91003
2.82095
2.75797
2.69075
2.62343
2.54792
2.48506
2.43443
2.37819
2.31856
2.258
2.2108
2.15881
2.10561
2.04932
2.01361
1.97433
1.93488
1.88638
1.85717
1.82718
1.79463
1.75759
1.72265
1.68743
1.64849
1.61262
1.57625
1.55608
1.53302
1.51097
1.48477
1.46417
1.44596
1.42425
1.40251
1.37824
1.35759
1.33492
1.31231
1.29184
1.26287
1.26335
1.97542
4.84848
5.39741
5.42184
5.43234
5.43018
5.41348
5.3818
5.33919
5.29494
5.25909
5.23312
5.20987
5.17826
5.12605
5.04656
4.94209
4.83252
4.73234
4.64542
4.56146
4.47369
4.37467
4.25927
4.12247
5.12495
4.99136
4.85407
4.72081
4.60097
4.47616
4.35409
4.22358
4.1159
4.00759
3.89809
3.78413
3.67416
3.58772
3.48999
3.39748
3.29118
3.2122
3.13262
3.05092
2.96438
2.88358
2.82171
2.74962
2.68088
2.60202
2.54901
2.49226
2.43471
2.36765
2.31259
2.26338
2.21232
2.15554
2.10649
2.07005
2.02947
1.98464
1.93947
1.91122
1.87661
1.84057
1.79669
1.76071
1.72168
1.68567
1.64832
1.6209
1.60219
1.5778
1.55406
1.52517
1.506
1.48409
1.46112
1.43561
1.41069
1.38858
1.36627
1.34399
1.32506
1.30692
1.27924
1.34889
3.47632
5.26929
5.40094
5.41117
5.40391
5.38278
5.34999
5.31235
5.27703
5.2493
5.22691
5.20284
5.16599
5.10506
5.01622
4.90531
4.8014
4.7166
4.64256
4.56751
4.48433
4.38491
4.26496
4.12216
5.16595
5.0306
4.89599
4.77589
4.65181
4.52823
1.05108
0.37656
0.170899
0.142662
0.165244
0.243172
0.327161
0.421681
0.520429
0.584718
0.609063
0.609577
0.626357
0.662633
0.711507
0.736906
0.743283
0.756057
0.75984
0.759959
0.768417
0.793939
0.83369
0.873223
0.896733
0.91542
0.940209
0.960494
0.972931
0.986464
1.75821
1.02036
0.718969
0.491431
0.39308
0.406263
0.400675
0.386148
0.401231
0.433512
0.468783
0.500207
0.542364
0.592801
0.649409
0.688993
0.697599
0.712995
0.730054
0.745521
0.764157
0.791213
0.826506
0.864803
0.892323
0.910289
0.930228
0.947138
0.964804
0.983087
2.27564
1.49642
1.13833
0.886765
0.642835
0.535186
0.492621
0.434165
0.390445
0.400272
0.437925
0.480204
0.519443
0.554614
0.59305
0.637188
0.667901
0.698289
0.733253
0.762917
0.789004
0.816231
0.844789
0.877173
0.893654
0.902812
0.919766
0.936074
0.955581
0.974888
2.63666
1.931
1.4826
1.22043
0.96089
0.746704
0.683467
0.626542
0.526267
0.497735
0.496777
0.486594
0.481384
0.491062
0.514708
0.562207
0.609418
0.645807
0.686589
0.724295
0.756598
0.790797
0.82432
0.860964
0.898508
0.915774
0.930672
0.944097
0.963281
0.976713
2.87796
2.25678
1.80492
1.52029
1.26488
0.991357
0.856919
0.788002
0.700327
0.630242
0.601918
0.563046
0.507599
0.491019
0.501008
0.524775
0.557464
0.588878
0.625845
0.664265
0.701407
0.739725
0.776903
0.815454
0.862594
0.89585
0.915195
0.934954
0.961251
0.980501
3.05637
2.52096
2.07104
1.76915
1.51944
1.27478
1.09195
0.968667
0.855292
0.781646
0.748416
0.705326
0.637032
0.577783
0.560389
0.561799
0.572832
0.585939
0.593428
0.606417
0.62398
0.65686
0.695472
0.741097
0.798256
0.851763
0.882072
0.903879
0.934177
0.96181
3.20252
2.72135
2.30967
2.01615
1.74451
1.48891
1.31938
1.18053
1.04466
0.937398
0.889356
0.827576
0.758399
0.703943
0.65021
0.622893
0.621821