/*--------------------------------*- C++ -*----------------------------------*\
  =========                 |
  \\      /  F ield         | OpenFOAM: The Open Source CFD Toolbox
   \\    /   O peration     | Website:  https://openfoam.org
    \\  /    A nd           | Version:  7
     \\/     M anipulation  |
\*---------------------------------------------------------------------------*/
FoamFile
{
    version     2.0;
    format      ascii;
    class       volVectorField;
    location    "1.5";
    object      U;
}
// * * * * * * * * * * * * * * * * * * * * * * * * * * * * * * * * * * * * * //

dimensions      [0 1 -1 0 0 0 0];

internalField   nonuniform List<vector> 
16192
(
(3 -4.09915e-15 0)
(3 -3.09737e-15 0)
(3 -1.99934e-15 0)
(3 6.70619e-16 0)
(3 2.11895e-15 0)
(3 2.51736e-15 0)
(3 2.6468e-16 0)
(3 -4.14837e-16 0)
(3 -1.30799e-15 0)
(3 -2.02568e-15 0)
(3 -2.19736e-15 0)
(3 1.40806e-10 0)
(3 4.9354e-06 0)
(2.99936 0.00833983 0)
(2.76803 0.445233 0)
(2.13631 0.923695 0)
(1.97701 0.973444 0)
(1.97616 0.969653 0)
(1.98521 0.962272 0)
(1.99899 0.955754 0)
(3 -4.67207e-15 0)
(3 -2.86781e-15 0)
(3 -4.84431e-16 0)
(3 1.88977e-16 0)
(3 1.55288e-15 0)
(3 1.47692e-15 0)
(3 1.11424e-15 0)
(3 -1.13284e-15 0)
(3 -2.12885e-15 0)
(3 -2.72766e-15 0)
(3 -2.80424e-15 0)
(3 4.10933e-13 0)
(3 4.82035e-08 0)
(2.99986 0.000448061 0)
(2.9922 0.0937306 0)
(2.35294 0.784833 0)
(1.99312 0.98541 0)
(1.97886 0.971791 0)
(1.98462 0.966854 0)
(1.99575 0.960219 0)
(3 -3.68952e-15 0)
(3 -2.91558e-15 0)
(3 -1.20264e-15 0)
(3 -9.95551e-16 0)
(3 6.21372e-16 0)
(3 1.30184e-15 0)
(3 1.41527e-15 0)
(3 5.86674e-16 0)
(3 4.04838e-16 0)
(3 -2.41159e-17 0)
(3 -9.89222e-16 0)
(3 -2.14757e-15 0)
(3 3.06187e-10 0)
(3 8.89128e-06 0)
(3.00002 0.0114046 0)
(2.71405 0.479323 0)
(2.11572 0.941048 0)
(1.98886 0.971823 0)
(1.98964 0.966733 0)
(1.99728 0.960434 0)
(3 -2.6497e-15 0)
(3 -1.58426e-15 0)
(3 -1.67278e-15 0)
(3 -1.34922e-15 0)
(3 4.20824e-16 0)
(3 1.12205e-15 0)
(3 1.15384e-15 0)
(3 5.02814e-16 0)
(3 1.20281e-15 0)
(3 1.28519e-15 0)
(3 1.09598e-15 0)
(3 -1.87342e-15 0)
(3 9.13502e-13 0)
(3 9.00357e-08 0)
(2.99982 0.000655051 0)
(2.98305 0.110889 0)
(2.32006 0.80718 0)
(2.02439 0.967532 0)
(1.99887 0.972885 0)
(1.99724 0.968736 0)
(3 -1.25847e-15 0)
(3 -1.23798e-15 0)
(3 -1.56428e-15 0)
(3 1.40669e-16 0)
(3 -4.2959e-16 0)
(3 7.44791e-17 0)
(3 -5.27911e-17 0)
(3 2.05145e-17 0)
(3 4.69168e-17 0)
(3 1.10983e-15 0)
(3 6.15128e-16 0)
(3 -5.87322e-16 0)
(3 3.85659e-15 0)
(3 5.84477e-10 0)
(2.99999 1.34439e-05 0)
(3.00015 0.0138145 0)
(2.6864 0.495813 0)
(2.12565 0.936058 0)
(2.0021 0.97349 0)
(1.99865 0.971185 0)
(3 -6.37216e-16 0)
(3 -5.28607e-16 0)
(3 -3.5288e-16 0)
(3 -4.64179e-16 0)
(3 -5.93888e-16 0)
(3 -8.33045e-16 0)
(3 -8.77353e-16 0)
(3 -4.32847e-17 0)
(3 -1.97034e-16 0)
(3 -3.38576e-16 0)
(3 -1.96831e-16 0)
(3 -1.58164e-16 0)
(3 -3.83882e-16 0)
(3 1.92008e-12 0)
(3 1.31903e-07 0)
(2.99977 0.000869692 0)
(2.97354 0.119785 0)
(2.33161 0.803831 0)
(2.03202 0.968524 0)
(2.00347 0.970307 0)
(3 7.04883e-16 0)
(3 4.13506e-16 0)
(3 2.07786e-17 0)
(3 -5.96149e-16 0)
(3 -7.5868e-16 0)
(3 -1.47005e-15 0)
(3 -1.14665e-15 0)
(3 -7.01249e-16 0)
(3 -8.92909e-16 0)
(3 -1.46415e-15 0)
(3 -8.92686e-16 0)
(3 -3.96698e-16 0)
(3 -1.05396e-15 0)
(3 2.22417e-15 0)
(3 8.36275e-10 0)
(2.99999 2.09699e-05 0)
(3.00049 0.0142998 0)
(2.66093 0.517505 0)
(2.11796 0.931253 0)
(2.00495 0.974489 0)
(3 5.04671e-16 0)
(3 -4.3507e-16 0)
(3 -1.62636e-15 0)
(3 -1.25263e-15 0)
(3 -1.7611e-15 0)
(3 -1.77175e-15 0)
(3 -7.42309e-16 0)
(3 -2.25127e-16 0)
(3 4.34455e-16 0)
(3 6.16336e-16 0)
(3 -6.4611e-16 0)
(3 -1.44843e-15 0)
(3 -1.42804e-15 0)
(3 -5.48114e-16 0)
(3 2.97226e-12 0)
(3 2.45616e-07 0)
(2.99977 0.000956805 0)
(2.95398 0.136133 0)
(2.33134 0.781192 0)
(2.02137 0.995332 0)
(3 -5.4586e-16 0)
(3 -1.05867e-15 0)
(3 -2.74214e-15 0)
(3 -2.95989e-15 0)
(3 -2.17505e-15 0)
(3 -2.3155e-15 0)
(3 -2.95202e-15 0)
(3 -1.12174e-15 0)
(3 2.43055e-15 0)
(3 1.77395e-15 0)
(3 8.18509e-16 0)
(3 -4.46223e-16 0)
(3 -1.66147e-16 0)
(3 -4.87098e-16 0)
(3 2.42739e-15 0)
(3 2.21624e-09 0)
(2.99999 2.45081e-05 0)
(2.99965 0.0165163 0)
(2.61475 0.55026 0)
(2.14387 0.981301 0)
(3 2.97387e-16 0)
(3 -1.02674e-15 0)
(3 -4.68779e-15 0)
(3 -6.19139e-15 0)
(3 -5.05322e-15 0)
(3 -3.85895e-15 0)
(3 -4.24764e-15 0)
(3 -1.23162e-15 0)
(3 -6.31774e-16 0)
(3 4.28913e-16 0)
(3 1.51641e-15 0)
(3 1.6674e-15 0)
(3 1.38847e-15 0)
(3 -2.59181e-17 0)
(3 -1.78728e-15 0)
(3 1.15361e-11 0)
(3 3.02265e-07 0)
(2.99969 0.00132554 0)
(2.93124 0.166817 0)
(2.35786 0.824434 0)
(3 4.09016e-16 0)
(3 -8.29627e-16 0)
(3 -2.01467e-15 0)
(3 -5.72174e-15 0)
(3 -5.69629e-15 0)
(3 -3.22358e-15 0)
(3 -2.47984e-15 0)
(3 -1.97701e-15 0)
(3 -2.73045e-15 0)
(3 -3.88165e-16 0)
(3 1.77704e-15 0)
(3 1.6016e-15 0)
(3 2.75006e-15 0)
(3 2.02137e-15 0)
(3 1.25821e-15 0)
(3 3.0642e-14 0)
(3 2.63984e-09 0)
(2.99999 3.86483e-05 0)
(2.99655 0.0237758 0)
(2.65408 0.54787 0)
(3 -8.25866e-16 0)
(3 -4.87011e-16 0)
(3 -4.10874e-16 0)
(3 -2.31014e-15 0)
(3 -2.44996e-15 0)
(3 -6.84374e-16 0)
(3 -7.00264e-16 0)
(3 -2.8724e-15 0)
(3 -3.69907e-15 0)
(3 -2.38123e-15 0)
(3 1.45694e-16 0)
(3 1.36502e-15 0)
(3 3.65117e-15 0)
(3 3.37366e-15 0)
(3 3.02515e-15 0)
(3 1.37129e-15 0)
(3 1.15642e-11 0)
(3 5.14167e-07 0)
(2.99943 0.00213741 0)
(2.93078 0.171881 0)
(3 -1.67292e-15 0)
(3 -8.97774e-16 0)
(3 -3.69198e-16 0)
(3 1.26378e-17 0)
(3 5.82668e-16 0)
(3 -9.03062e-16 0)
(3 -1.11296e-15 0)
(3 -2.24543e-15 0)
(3 -2.71307e-15 0)
(3 -1.56352e-15 0)
(3 -2.31981e-16 0)
(3 1.07772e-15 0)
(3 5.95892e-16 0)
(3 5.56058e-16 0)
(3 1.33617e-15 0)
(3 1.20824e-15 0)
(3 2.38536e-14 0)
(3 4.61171e-09 0)
(2.99998 5.74493e-05 0)
(2.99128 0.0313143 0)
(3 -9.64639e-17 0)
(3 -6.2092e-16 0)
(3 -2.40023e-17 0)
(3 3.08865e-16 0)
(3 1.42111e-15 0)
(3 -8.44706e-16 0)
(3 -1.69623e-15 0)
(3 -1.11413e-15 0)
(3 1.717e-17 0)
(3 3.08746e-16 0)
(3 8.74166e-16 0)
(3 2.09706e-16 0)
(3 -9.28077e-16 0)
(3 -7.54256e-16 0)
(3 7.39281e-16 0)
(3 2.61591e-15 0)
(3 4.75085e-15 0)
(3 1.60096e-11 0)
(3 8.37777e-07 0)
(2.99928 0.00211656 0)
(3 -4.10461e-17 0)
(3 -3.0542e-16 0)
(3 -7.03284e-16 0)
(3 -7.1559e-17 0)
(3 5.87287e-16 0)
(3 8.59603e-16 0)
(3 1.30778e-15 0)
(3 5.11633e-16 0)
(3 1.67748e-16 0)
(3 -6.15917e-16 0)
(3 -2.65261e-16 0)
(3 -7.77092e-16 0)
(3 -1.34254e-15 0)
(3 -1.46658e-15 0)
(3 8.71397e-16 0)
(3 4.54566e-15 0)
(3 4.22978e-15 0)
(3 2.93592e-14 0)
(3 4.65045e-09 0)
(2.99997 7.6137e-05 0)
(3 1.07695e-15 0)
(3 5.85607e-16 0)
(3 -2.90893e-16 0)
(3 3.28871e-16 0)
(3 7.05699e-16 0)
(3 1.71122e-15 0)
(3 2.41659e-15 0)
(3 1.48155e-15 0)
(3 9.30206e-17 0)
(3 -1.13687e-15 0)
(3 -1.55949e-15 0)
(3 -1.40584e-15 0)
(3 -1.06922e-15 0)
(3 -4.9717e-16 0)
(3 2.15606e-15 0)
(3 3.34723e-15 0)
(3 4.24056e-15 0)
(3 4.50616e-15 0)
(3 1.28988e-11 0)
(3 1.23152e-06 0)
(3 2.96311e-15 0)
(3 1.7854e-15 0)
(3 1.89781e-15 0)
(3 2.09389e-15 0)
(3 1.52589e-15 0)
(3 1.67797e-15 0)
(3 1.68621e-15 0)
(3 -4.74275e-17 0)
(3 -1.63174e-15 0)
(3 -1.98101e-15 0)
(3 -1.38462e-15 0)
(3 -1.24744e-16 0)
(3 1.20537e-15 0)
(3 3.29693e-15 0)
(3 2.81582e-15 0)
(3 2.92255e-15 0)
(3 3.78466e-15 0)
(3 3.75373e-15 0)
(3 2.43773e-14 0)
(3 1.21287e-08 0)
(3 3.33742e-15 0)
(3 3.16298e-15 0)
(3 3.96927e-15 0)
(3 3.58749e-15 0)
(3 2.34982e-15 0)
(3 3.02977e-15 0)
(3 3.7807e-15 0)
(3 3.39461e-15 0)
(3 1.3416e-15 0)
(3 -6.62082e-16 0)
(3 2.82634e-16 0)
(3 1.97492e-15 0)
(3 4.25612e-15 0)
(3 5.68246e-15 0)
(3 4.98469e-15 0)
(3 4.92509e-15 0)
(3 5.76795e-15 0)
(3 4.08251e-15 0)
(3 3.92676e-15 0)
(3 9.15307e-11 0)
(3 1.86257e-15 0)
(3 1.81043e-15 0)
(3 2.94277e-15 0)
(3 3.12088e-15 0)
(3 2.47198e-15 0)
(3 2.69155e-15 0)
(3 3.73947e-15 0)
(3 4.17244e-15 0)
(3 3.97384e-15 0)
(3 2.27837e-15 0)
(3 2.77944e-15 0)
(3 4.38455e-15 0)
(3 5.8471e-15 0)
(3 4.97789e-15 0)
(3 6.46653e-15 0)
(3 5.90542e-15 0)
(3 5.70337e-15 0)
(3 5.36443e-15 0)
(3 5.06685e-15 0)
(3 1.224e-12 0)
(3 1.62945e-15 0)
(3 1.98618e-15 0)
(3 2.47779e-15 0)
(3 2.25901e-15 0)
(3 2.41565e-15 0)
(3 2.41712e-15 0)
(3 3.3997e-15 0)
(3 4.16113e-15 0)
(3 3.92352e-15 0)
(3 4.26118e-15 0)
(3 4.34153e-15 0)
(3 4.31022e-15 0)
(3 4.61595e-15 0)
(3 5.11046e-15 0)
(3 5.87905e-15 0)
(3 5.51348e-15 0)
(3 4.79734e-15 0)
(3 5.69807e-15 0)
(3 5.77851e-15 0)
(3 1.57496e-14 0)
(3 1.93172e-15 0)
(3 2.92326e-15 0)
(3 3.34378e-15 0)
(3 3.5531e-15 0)
(3 4.4213e-15 0)
(3 4.39486e-15 0)
(3 3.91974e-15 0)
(3 3.0054e-15 0)
(3 2.78328e-15 0)
(3 4.37764e-15 0)
(3 4.30376e-15 0)
(3 3.00065e-15 0)
(3 2.63762e-15 0)
(3 3.61831e-15 0)
(3 3.78456e-15 0)
(3 3.95076e-15 0)
(3 3.28006e-15 0)
(3 3.76918e-15 0)
(3 3.81122e-15 0)
(3 3.17979e-15 0)
(3 1.51033e-15 0)
(3 2.79302e-15 0)
(3 3.08536e-15 0)
(3 4.9941e-15 0)
(3 6.1643e-15 0)
(3 5.98631e-15 0)
(3 5.12533e-15 0)
(3 3.35201e-15 0)
(3 3.31414e-15 0)
(3 4.4453e-15 0)
(3 3.55133e-15 0)
(3 3.33666e-15 0)
(3 1.71255e-15 0)
(3 1.85714e-15 0)
(3 1.62595e-15 0)
(3 2.19649e-15 0)
(3 1.99928e-15 0)
(3 2.21718e-15 0)
(3 2.04197e-15 0)
(3 1.6525e-15 0)
(3 1.09606e-15 0)
(3 2.35927e-15 0)
(3 2.99745e-15 0)
(3 4.84792e-15 0)
(3 5.53314e-15 0)
(3 6.39592e-15 0)
(3 5.69616e-15 0)
(3 4.68238e-15 0)
(3 4.09911e-15 0)
(3 4.59071e-15 0)
(3 2.8441e-15 0)
(3 2.58338e-15 0)
(3 1.5803e-15 0)
(3 9.47032e-16 0)
(3 5.33338e-16 0)
(3 8.3756e-16 0)
(3 9.84042e-16 0)
(3 1.03599e-15 0)
(3 9.34034e-16 0)
(3 3.48968e-16 0)
(3 1.99891e-15 0)
(3 2.16951e-15 0)
(3 3.09769e-15 0)
(3 4.74462e-15 0)
(3 5.56602e-15 0)
(3 5.24626e-15 0)
(3 5.44577e-15 0)
(3 5.44207e-15 0)
(3 5.20755e-15 0)
(3 4.36114e-15 0)
(3 3.43609e-15 0)
(3 1.06077e-15 0)
(3 2.70324e-16 0)
(3 4.08713e-17 0)
(3 8.34986e-17 0)
(3 -9.21393e-16 0)
(3 3.4113e-16 0)
(3 3.89963e-16 0)
(3 3.20198e-16 0)
(3 -1.1465e-15 0)
(3 2.0332e-15 0)
(3 2.24908e-15 0)
(3 1.70033e-15 0)
(3 4.46907e-15 0)
(3 5.27218e-15 0)
(3 4.50664e-15 0)
(3 4.84533e-15 0)
(3 5.18115e-15 0)
(3 3.32962e-15 0)
(3 2.49069e-15 0)
(3 1.01791e-15 0)
(3 5.80515e-16 0)
(3 1.17346e-15 0)
(3 1.26862e-15 0)
(3 8.33056e-16 0)
(3 1.16023e-15 0)
(3 2.34786e-15 0)
(3 1.99589e-15 0)
(3 -1.32885e-15 0)
(3 -3.06461e-15 0)
(3 1.58152e-15 0)
(3 1.64591e-15 0)
(3 1.10558e-15 0)
(3 2.99431e-15 0)
(3 3.78828e-15 0)
(3 3.96916e-15 0)
(3 3.85844e-15 0)
(3 4.10403e-15 0)
(3 3.75073e-15 0)
(3 2.69283e-15 0)
(3 1.88301e-15 0)
(3 2.53613e-15 0)
(3 1.70222e-15 0)
(3 9.99693e-16 0)
(3 1.35939e-15 0)
(3 2.13297e-15 0)
(3 2.64608e-15 0)
(3 5.84582e-16 0)
(3 -4.10153e-15 0)
(3 -4.14131e-15 0)
(3 7.92025e-16 0)
(3 8.21322e-16 0)
(3 8.99256e-16 0)
(3 1.99885e-15 0)
(3 2.3299e-15 0)
(3 3.13574e-15 0)
(3 3.82463e-15 0)
(3 3.43214e-15 0)
(3 3.51718e-15 0)
(3 2.64868e-15 0)
(3 2.57231e-15 0)
(3 1.98445e-15 0)
(3 1.03906e-15 0)
(3 1.20794e-15 0)
(3 2.07618e-15 0)
(3 2.52751e-15 0)
(3 1.65248e-15 0)
(3 -1.3273e-15 0)
(3 -2.52903e-15 0)
(3 -3.6419e-15 0)
(3 -4.4761e-16 0)
(3 9.29707e-17 0)
(3 8.89606e-16 0)
(3 3.78564e-16 0)
(3 6.77819e-16 0)
(3 1.43424e-15 0)
(3 1.63785e-15 0)
(3 2.10111e-15 0)
(3 2.58165e-15 0)
(3 2.57197e-15 0)
(3 9.96782e-16 0)
(3 1.71048e-16 0)
(3 4.8626e-16 0)
(3 3.07119e-16 0)
(3 2.65364e-16 0)
(3 7.73732e-16 0)
(3 -9.25652e-16 0)
(3 -1.7684e-15 0)
(3 -2.2512e-15 0)
(3 -3.28958e-15 0)
(3 7.88538e-16 0)
(3 1.53049e-15 0)
(3 2.68031e-15 0)
(3 -1.98601e-16 0)
(3 -1.69527e-16 0)
(3 2.27782e-16 0)
(3 1.37183e-16 0)
(3 1.172e-15 0)
(3 2.4177e-15 0)
(3 2.25363e-15 0)
(3 2.03005e-15 0)
(3 2.4023e-15 0)
(3 1.18161e-15 0)
(3 -3.62182e-16 0)
(3 -1.89053e-15 0)
(3 -2.51748e-15 0)
(3 -3.07979e-15 0)
(3 -2.95246e-15 0)
(3 -2.63039e-15 0)
(3 -2.31072e-15 0)
(3 1.27088e-15 0)
(3 2.66214e-15 0)
(3 3.30198e-15 0)
(3 1.34875e-15 0)
(3 4.1419e-16 0)
(3 8.44289e-16 0)
(3 1.58976e-15 0)
(3 2.9961e-15 0)
(3 3.18528e-15 0)
(3 2.51134e-15 0)
(3 2.55695e-15 0)
(3 2.06215e-15 0)
(3 5.34827e-16 0)
(3 6.36411e-16 0)
(3 -1.27227e-16 0)
(3 -2.13192e-15 0)
(3 -1.14602e-15 0)
(3 -1.22045e-15 0)
(3 -1.69372e-15 0)
(3 -2.91428e-15 0)
(3 7.89267e-16 0)
(3 2.55542e-15 0)
(3 3.12536e-15 0)
(3 2.80494e-15 0)
(3 2.26842e-15 0)
(3 2.99819e-15 0)
(3 3.07299e-15 0)
(3 3.49928e-15 0)
(3 3.57326e-15 0)
(3 2.73221e-15 0)
(3 2.45639e-15 0)
(3 1.42947e-15 0)
(3 2.65691e-16 0)
(3 1.66034e-16 0)
(3 1.64159e-16 0)
(3 -3.6609e-16 0)
(3 -1.1659e-15 0)
(3 -1.20645e-15 0)
(3 -2.1378e-15 0)
(3 -1.75653e-15 0)
(3 8.32981e-16 0)
(3 2.01e-15 0)
(3 2.49828e-15 0)
(3 3.43802e-15 0)
(3 3.51945e-15 0)
(3 3.77912e-15 0)
(3 2.15539e-15 0)
(3 1.83891e-15 0)
(3 2.75403e-15 0)
(3 3.12928e-15 0)
(3 2.47392e-15 0)
(3 1.02079e-16 0)
(3 -4.4544e-16 0)
(3 -1.04361e-17 0)
(3 2.36207e-16 0)
(3 -8.16703e-16 0)
(3 -2.23965e-15 0)
(3 -2.47251e-15 0)
(3 -2.1306e-15 0)
(3 -1.28974e-15 0)
(3 2.21395e-15 0)
(3 2.33778e-15 0)
(3 1.95549e-15 0)
(3 1.8509e-15 0)
(3 1.94941e-15 0)
(3 1.85009e-15 0)
(3 2.58651e-15 0)
(3 1.96221e-15 0)
(3 2.20197e-15 0)
(3 2.66679e-15 0)
(3 2.34717e-15 0)
(3 -3.47373e-17 0)
(3 -5.71288e-16 0)
(3 -4.50087e-16 0)
(3 -4.82915e-16 0)
(3 -3.98519e-16 0)
(3 -1.86958e-15 0)
(3 -1.17642e-15 0)
(3 -5.92073e-16 0)
(3 -1.115e-15 0)
(3 -3.21126e-16 0)
(3 -7.31086e-16 0)
(3 -5.17479e-16 0)
(3 -4.90166e-16 0)
(3 -4.05757e-16 0)
(3 -3.51111e-16 0)
(3 1.76109e-15 0)
(3 1.85169e-15 0)
(3 1.74436e-15 0)
(3 1.99071e-15 0)
(3 2.01366e-15 0)
(3 7.7877e-16 0)
(3 1.27896e-16 0)
(3 -1.01849e-15 0)
(3 -2.52255e-16 0)
(3 -1.61955e-16 0)
(3 -3.13915e-16 0)
(3 3.44693e-16 0)
(3 4.03547e-16 0)
(3 1.22849e-16 0)
(3 -1.83332e-16 0)
(3 7.39614e-16 0)
(3 -5.1538e-17 0)
(3 -6.98522e-16 0)
(3 -1.74203e-15 0)
(3 -1.34841e-15 0)
(3 -2.81464e-16 0)
(3 5.65257e-16 0)
(3 1.61051e-15 0)
(3 1.23442e-15 0)
(3 1.5374e-15 0)
(3 1.07217e-15 0)
(3 -9.48911e-16 0)
(3 -1.18113e-15 0)
(3 -2.34163e-16 0)
(3 3.08638e-17 0)
(3 -1.92241e-16 0)
(3 -1.20067e-15 0)
(3 2.78912e-16 0)
(3 1.13313e-15 0)
(3 3.57374e-16 0)
(3 2.3265e-15 0)
(3 2.65652e-15 0)
(3 2.25424e-15 0)
(3 -6.71876e-17 0)
(3 -8.12375e-16 0)
(3 -6.6221e-16 0)
(3 -3.53454e-16 0)
(3 -2.51631e-16 0)
(3 -8.95659e-16 0)
(3 -2.48942e-15 0)
(3 -4.01769e-16 0)
(3 -9.20076e-17 0)
(3 -1.79389e-16 0)
(3 -3.29124e-16 0)
(3 5.9938e-16 0)
(3 3.65689e-16 0)
(3 -1.72002e-15 0)
(3 -5.05105e-17 0)
(3 6.78532e-16 0)
(3 -9.49164e-16 0)
(3 3.30578e-16 0)
(3 2.99865e-15 0)
(3 4.18728e-15 0)
(3 2.65785e-15 0)
(3 8.85208e-16 0)
(3 1.55131e-16 0)
(3 -8.15296e-17 0)
(3 -2.66877e-15 0)
(3 -3.69086e-15 0)
(3 -2.93765e-15 0)
(3 -2.2724e-15 0)
(3 1.53218e-15 0)
(3 2.04077e-15 0)
(3 1.14189e-15 0)
(3 1.08384e-15 0)
(3 7.35978e-16 0)
(3 3.22608e-16 0)
(3 -3.48071e-16 0)
(3 -6.61348e-16 0)
(3 -1.89781e-15 0)
(3 -3.4604e-16 0)
(3 1.79263e-15 0)
(3 3.24549e-15 0)
(3 3.16752e-15 0)
(3 1.70068e-15 0)
(3 1.33491e-15 0)
(3 1.13539e-15 0)
(3 -1.83693e-15 0)
(3 -3.57056e-15 0)
(3 -1.59053e-15 0)
(3 -9.36431e-16 0)
(3 1.01724e-15 0)
(3 2.03407e-15 0)
(3 8.88103e-16 0)
(3 1.62343e-16 0)
(3 8.01e-16 0)
(3 1.31067e-15 0)
(3 -8.03495e-16 0)
(3 -2.51427e-15 0)
(3 -7.99499e-16 0)
(3 -2.691e-16 0)
(3 1.28031e-15 0)
(3 1.72978e-15 0)
(3 3.00804e-15 0)
(3 1.88155e-15 0)
(3 7.65318e-16 0)
(3 -5.43491e-16 0)
(3 -1.98454e-15 0)
(3 -2.29061e-15 0)
(3 -1.07283e-15 0)
(3 9.40426e-16 0)
(3 9.16879e-16 0)
(3 5.22155e-16 0)
(3 4.87488e-16 0)
(3 4.16871e-18 0)
(3 9.69168e-16 0)
(3 9.43534e-16 0)
(3 -1.09001e-15 0)
(3 -3.73393e-15 0)
(3 -1.81644e-15 0)
(3 -8.15261e-16 0)
(3 -1.4701e-16 0)
(3 2.14337e-15 0)
(3 2.84135e-15 0)
(3 2.5037e-15 0)
(3 6.16996e-16 0)
(3 -1.54715e-15 0)
(3 -1.23556e-15 0)
(3 1.81167e-16 0)
(3 6.99245e-16 0)
(3 1.48404e-15 0)
(3 6.60657e-16 0)
(3 8.47867e-16 0)
(3 1.43589e-15 0)
(3 1.046e-15 0)
(3 9.27001e-16 0)
(3 5.35004e-16 0)
(3 -7.2336e-16 0)
(3 -2.14603e-15 0)
(3 -2.23692e-15 0)
(3 -1.48827e-16 0)
(3 7.77787e-16 0)
(3 8.33177e-16 0)
(3 -2.5981e-16 0)
(3 -4.38909e-16 0)
(3 -2.06481e-17 0)
(3 5.77965e-16 0)
(3 -2.14167e-18 0)
(3 -1.208e-15 0)
(3 -1.19413e-15 0)
(3 -9.10361e-16 0)
(3 -1.09587e-16 0)
(3 -4.84334e-18 0)
(3 1.03192e-15 0)
(3 9.94525e-16 0)
(3 5.87497e-16 0)
(3 7.63006e-19 0)
(3 -3.21346e-16 0)
(3 -3.88477e-16 0)
(3 -2.22045e-15 0)
(3 -2.1404e-15 0)
(3 -1.45782e-15 0)
(3 -1.23146e-15 0)
(3 -4.40517e-16 0)
(3 -6.82234e-16 0)
(3 -1.27564e-15 0)
(3 -6.96912e-16 0)
(3 -1.43977e-15 0)
(3 -2.85004e-15 0)
(3 -2.11332e-15 0)
(3 -2.22654e-15 0)
(3 -2.1191e-15 0)
(3 -1.10038e-15 0)
(3 -3.18401e-16 0)
(3 -6.2563e-16 0)
(3 -8.86981e-16 0)
(3 -6.91991e-16 0)
(3 6.06758e-16 0)
(3 1.57314e-15 0)
(3 -1.62925e-15 0)
(3 -3.65806e-15 0)
(3 -3.08213e-15 0)
(3 -1.46381e-15 0)
(3 3.53603e-16 0)
(3 1.15309e-15 0)
(3 -1.59548e-15 0)
(3 -2.03223e-15 0)
(3 -1.28274e-15 0)
(3 -7.137e-16 0)
(3 -1.96874e-15 0)
(3 -1.74182e-15 0)
(3 -9.35555e-16 0)
(3 2.53589e-16 0)
(3 -5.22773e-16 0)
(3 -7.02268e-16 0)
(3 -8.00268e-16 0)
(3 -8.22712e-16 0)
(3 4.91815e-16 0)
(3 8.86161e-16 0)
(3 -1.01895e-15 0)
(3 -3.07789e-15 0)
(3 -2.80194e-15 0)
(3 -1.50128e-15 0)
(3 -1.54974e-15 0)
(3 -1.45759e-15 0)
(3 -2.25522e-15 0)
(3 -2.58476e-15 0)
(3 -4.02499e-16 0)
(3 7.2209e-16 0)
(3 -1.21883e-15 0)
(3 -1.18678e-15 0)
(3 -8.45179e-16 0)
(3 -4.65821e-16 0)
(3 -9.61223e-16 0)
(3 -8.36254e-16 0)
(3 -8.43929e-16 0)
(3 -1.0843e-15 0)
(3 -6.32332e-16 0)
(3 -4.31229e-16 0)
(3 -7.34565e-16 0)
(3 -2.03971e-15 0)
(3 -8.35227e-16 0)
(3 -8.26873e-16 0)
(3 -1.82887e-15 0)
(3 -2.86352e-15 0)
(3 -3.31159e-15 0)
(3 -2.88589e-15 0)
(3 -1.19559e-15 0)
(3 -4.77929e-16 0)
(3 -8.49201e-16 0)
(3 -1.42072e-15 0)
(3 -2.12719e-15 0)
(3 -2.45738e-15 0)
(3 -2.49293e-15 0)
(3 -2.28461e-15 0)
(3 -1.8476e-15 0)
(3 -5.01577e-17 0)
(3 -2.54489e-16 0)
(3 6.39481e-16 0)
(3 1.03861e-16 0)
(3 8.9422e-16 0)
(3 -2.93284e-16 0)
(3 -1.5048e-15 0)
(3 -2.86909e-15 0)
(3 -3.74262e-15 0)
(3 -1.98496e-15 0)
(3 -1.02723e-15 0)
(3 -6.85027e-16 0)
(3 -1.41336e-15 0)
(3 -1.17465e-15 0)
(3 -1.63658e-15 0)
(3 -1.38656e-15 0)
(3 -1.78274e-15 0)
(3 -2.63433e-15 0)
(3 -2.59874e-15 0)
(3 -2.00063e-15 0)
(3 -2.09262e-16 0)
(3 -7.9523e-17 0)
(3 1.09256e-15 0)
(3 2.59276e-16 0)
(3 1.61827e-15 0)
(3 -5.41634e-16 0)
(3 -1.50898e-15 0)
(3 -1.37167e-15 0)
(3 -1.5111e-15 0)
(3 -2.60974e-16 0)
(3 -7.1357e-16 0)
(3 -7.74349e-16 0)
(3 -3.35316e-16 0)
(3 -7.67811e-16 0)
(3 -1.60409e-15 0)
(3 -1.70201e-15 0)
(3 -1.64023e-15 0)
(3 -1.31724e-15 0)
(3 -2.28658e-15 0)
(3 -2.1457e-15 0)
(3 -3.68618e-16 0)
(3 2.20636e-16 0)
(3 -6.18799e-16 0)
(3 -8.29992e-16 0)
(3 -1.95602e-17 0)
(3 4.50773e-16 0)
(3 7.06186e-16 0)
(3 8.04105e-16 0)
(3 6.74581e-16 0)
(3 3.86315e-16 0)
(3 -8.9672e-16 0)
(3 -1.82068e-15 0)
(3 -9.86065e-16 0)
(3 -5.87653e-16 0)
(3 -8.46763e-16 0)
(3 -3.15741e-15 0)
(3 -3.26878e-15 0)
(3 -2.85338e-15 0)
(3 -2.17808e-15 0)
(3 -1.64855e-15 0)
(3 -1.278e-15 0)
(3 -2.2523e-16 0)
(3 3.18893e-16 0)
(3 -1.25095e-15 0)
(3 4.0344e-16 0)
(3 8.12729e-16 0)
(3 6.11813e-16 0)
(3 7.89071e-16 0)
(3 1.34459e-15 0)
(3 1.573e-15 0)
(3 1.21686e-15 0)
(3 -2.15354e-15 0)
(3 -3.03171e-15 0)
(3 -2.61024e-15 0)
(3 -3.14832e-15 0)
(3 -2.63633e-15 0)
(3 -2.9018e-15 0)
(3 -2.00039e-15 0)
(3 -1.82113e-15 0)
(3 -2.14174e-15 0)
(3 -2.19638e-15 0)
(3 -1.24063e-15 0)
(3 1.68181e-15 0)
(3 4.22334e-17 0)
(3 -4.13893e-16 0)
(3 -2.68622e-16 0)
(3 -5.39773e-17 0)
(3 9.34347e-16 0)
(3 2.14218e-15 0)
(3 1.8412e-15 0)
(3 5.8393e-16 0)
(3 -2.22289e-15 0)
(3 -3.27264e-15 0)
(3 -3.81023e-15 0)
(3 -4.44625e-15 0)
(3 -3.76036e-15 0)
(3 -3.42933e-15 0)
(3 -1.8098e-15 0)
(3 -1.11404e-15 0)
(3 -1.64174e-15 0)
(3 -8.35198e-16 0)
(3 1.81702e-16 0)
(3 1.43686e-15 0)
(3 9.31819e-16 0)
(3 -1.80462e-15 0)
(3 -9.43006e-16 0)
(3 7.17678e-16 0)
(3 1.78929e-15 0)
(3 2.70141e-15 0)
(3 1.63089e-15 0)
(3 6.85461e-17 0)
(3 -7.23988e-16 0)
(3 -1.69228e-15 0)
(3 -3.50118e-15 0)
(3 -3.88822e-15 0)
(3 -4.32751e-15 0)
(3 -4.13217e-15 0)
(3 -4.02592e-15 0)
(3 -1.62257e-15 0)
(3 -7.06786e-16 0)
(3 -1.02506e-15 0)
(3 -5.23259e-16 0)
(3 6.72454e-16 0)
(3 -2.78115e-16 0)
(3 -1.64385e-16 0)
(3 -1.64815e-16 0)
(3 2.05418e-15 0)
(3 3.25775e-15 0)
(3 2.93814e-15 0)
(3 2.46644e-15 0)
(3 1.99319e-15 0)
(3 1.42613e-15 0)
(3 -1.2979e-15 0)
(3 -3.12152e-15 0)
(3 -2.52836e-15 0)
(3 -2.65793e-15 0)
(3 -3.49121e-15 0)
(3 -2.86113e-15 0)
(3 -1.99529e-16 0)
(3 1.41882e-16 0)
(3 2.225e-17 0)
(3 -5.1126e-16 0)
(3 -6.64237e-16 0)
(3 -1.12886e-15 0)
(3 7.49663e-16 0)
(3 1.04163e-15 0)
(3 1.47236e-15 0)
(3 2.15071e-15 0)
(3 1.28332e-15 0)
(3 1.9658e-15 0)
(3 2.25719e-15 0)
(3 2.50579e-15 0)
(3 6.89724e-16 0)
(3 -9.78457e-16 0)
(3 -3.34884e-16 0)
(3 -1.13875e-15 0)
(3 -1.97921e-15 0)
(3 -1.03386e-15 0)
(3 -9.82653e-16 0)
(3 -8.21501e-16 0)
(3 -2.76211e-16 0)
(3 5.15343e-16 0)
(3 5.50057e-16 0)
(3 2.81723e-16 0)
(3 1.4135e-15 0)
(3 1.62047e-15 0)
(3 1.26467e-15 0)
(3 1.02237e-15 0)
(3 2.45267e-16 0)
(3 3.21152e-16 0)
(3 4.754e-16 0)
(3 1.66096e-15 0)
(3 3.00148e-15 0)
(3 1.94492e-15 0)
(3 5.55414e-16 0)
(3 -1.28991e-15 0)
(3 -1.8584e-15 0)
(3 -1.85343e-15 0)
(3 -2.10366e-15 0)
(3 -1.11345e-15 0)
(3 -1.21188e-15 0)
(3 3.79482e-16 0)
(3 2.64818e-15 0)
(3 3.29329e-16 0)
(3 -2.86621e-16 0)
(3 -1.22357e-15 0)
(3 -7.79807e-17 0)
(3 -9.86724e-16 0)
(3 -1.12466e-15 0)
(3 4.90378e-16 0)
(3 4.18589e-16 0)
(3 3.8334e-16 0)
(3 1.29352e-15 0)
(3 1.89094e-15 0)
(3 1.35702e-15 0)
(3 2.22389e-16 0)
(3 -1.84104e-15 0)
(3 -6.90629e-16 0)
(3 -1.85479e-15 0)
(3 -1.00156e-15 0)
(3 -1.47438e-16 0)
(3 2.43227e-16 0)
(3 1.24226e-15 0)
(3 8.37422e-16 0)
(3 -2.82751e-16 0)
(3 -3.40158e-18 0)
(3 -1.60823e-15 0)
(3 -1.24015e-15 0)
(3 -1.70765e-15 0)
(3 -1.11199e-15 0)
(3 -3.12313e-16 0)
(3 -1.26909e-15 0)
(3 -1.46963e-15 0)
(3 -4.09424e-17 0)
(3 1.91177e-15 0)
(3 2.01805e-15 0)
(3 7.18896e-16 0)
(3 -9.42606e-16 0)
(3 -1.86243e-15 0)
(3 -8.11083e-16 0)
(3 -7.09954e-17 0)
(3 -4.92838e-18 0)
(3 3.54559e-16 0)
(3 8.83326e-16 0)
(3 3.6914e-16 0)
(3 4.66828e-16 0)
(3 -5.03447e-16 0)
(3 -4.77541e-16 0)
(3 -6.42262e-16 0)
(3 -3.91373e-16 0)
(3 1.29139e-15 0)
(3 4.78875e-16 0)
(3 6.5295e-16 0)
(3 3.00346e-16 0)
(3 9.75122e-16 0)
(3 7.97739e-16 0)
(3 7.85959e-16 0)
(3 -5.34438e-16 0)
(3 -7.71307e-16 0)
(3 -5.73019e-16 0)
(3 -2.66268e-15 0)
(3 -2.62721e-15 0)
(3 -3.24306e-15 0)
(3 -1.73255e-15 0)
(3 -1.57007e-15 0)
(3 -1.48558e-15 0)
(3 -1.32828e-15 0)
(3 -1.89881e-15 0)
(3 5.11336e-16 0)
(3 1.99334e-15 0)
(3 2.7173e-15 0)
(3 2.01081e-15 0)
(3 1.97671e-15 0)
(3 1.54255e-15 0)
(3 -1.10488e-16 0)
(3 -1.60173e-15 0)
(3 -6.79536e-16 0)
(3 -2.64124e-16 0)
(3 -5.77445e-16 0)
(3 -7.45324e-16 0)
(3 -1.14529e-15 0)
(3 -8.8875e-16 0)
(3 -1.48777e-15 0)
(3 -3.56795e-15 0)
(3 -2.47173e-15 0)
(3 -2.58254e-15 0)
(3 -2.72343e-15 0)
(3 -1.80724e-15 0)
(3 1.49558e-15 0)
(3 2.70087e-15 0)
(3 2.63834e-15 0)
(3 1.26373e-15 0)
(3 5.89803e-16 0)
(3 1.58862e-15 0)
(3 1.33134e-15 0)
(3 -1.06666e-15 0)
(3 -5.06545e-16 0)
(3 7.38768e-16 0)
(3 3.22919e-16 0)
(3 -2.54158e-16 0)
(3 2.702e-16 0)
(3 4.75133e-16 0)
(3 -8.32262e-17 0)
(3 -1.00931e-15 0)
(3 -1.79307e-15 0)
(3 -2.31433e-15 0)
(3 -1.8896e-15 0)
(3 -9.72343e-16 0)
(3 -4.84855e-16 0)
(3 1.23456e-15 0)
(3 2.26862e-15 0)
(3 2.71424e-15 0)
(3 1.43473e-15 0)
(3 1.11411e-15 0)
(3 2.45972e-15 0)
(3 2.49551e-15 0)
(3 2.32966e-15 0)
(3 1.00371e-15 0)
(3 1.17039e-15 0)
(3 6.77224e-16 0)
(3 2.83314e-16 0)
(3 -7.20688e-16 0)
(3 -1.06795e-15 0)
(3 5.29491e-16 0)
(3 -8.17032e-16 0)
(3 -2.28456e-16 0)
(3 -5.18908e-16 0)
(3 -1.15606e-15 0)
(3 -2.11831e-15 0)
(3 -2.45839e-15 0)
(3 -1.90415e-15 0)
(3 1.62275e-15 0)
(3 1.55453e-15 0)
(3 1.84286e-15 0)
(3 2.77191e-15 0)
(3 2.82639e-15 0)
(3 2.23852e-15 0)
(3 1.33179e-15 0)
(3 1.77374e-15 0)
(3 1.39449e-15 0)
(3 -2.43841e-17 0)
(3 -1.67382e-15 0)
(3 -1.61666e-15 0)
(3 -5.41865e-16 0)
(3 5.69665e-16 0)
(3 1.29809e-16 0)
(3 -9.05523e-16 0)
(3 -1.11928e-15 0)
(3 -3.29614e-15 0)
(3 -4.49999e-15 0)
(3 -2.61647e-15 0)
(3 9.2994e-16 0)
(3 1.20144e-15 0)
(3 1.14465e-15 0)
(3 1.7412e-15 0)
(3 1.80519e-15 0)
(3 7.93756e-16 0)
(3 1.28864e-15 0)
(3 1.66453e-15 0)
(3 2.40607e-15 0)
(3 2.17611e-15 0)
(3 6.7303e-16 0)
(3 6.35867e-16 0)
(3 -5.24335e-16 0)
(3 -2.15173e-16 0)
(3 -1.99232e-15 0)
(3 -3.23227e-15 0)
(3 -5.08476e-15 0)
(3 -5.82744e-15 0)
(3 -5.80779e-15 0)
(3 -3.97449e-15 0)
(3 -3.43003e-16 0)
(3 1.89249e-15 0)
(3 1.93351e-15 0)
(3 8.26046e-16 0)
(3 4.77137e-16 0)
(3 -1.17716e-15 0)
(3 -1.36887e-15 0)
(3 -1.13434e-15 0)
(3 -6.60954e-16 0)
(3 1.08739e-15 0)
(3 2.24323e-15 0)
(3 2.23848e-15 0)
(3 -8.73812e-16 0)
(3 -2.12768e-15 0)
(3 -3.33689e-15 0)
(3 -5.19916e-15 0)
(3 -7.13052e-15 0)
(3 -7.11148e-15 0)
(3 -7.18801e-15 0)
(3 -4.98104e-15 0)
(3 -2.56421e-15 0)
(3 5.128e-16 0)
(3 1.37624e-15 0)
(3 2.90774e-16 0)
(3 1.84836e-16 0)
(3 -6.42015e-16 0)
(3 -1.81924e-15 0)
(3 -2.15789e-15 0)
(3 -2.65937e-15 0)
(3 -1.73774e-15 0)
(3 -6.51083e-17 0)
(3 1.03353e-15 0)
(3 -1.99936e-15 0)
(3 -3.58587e-15 0)
(3 -4.27925e-15 0)
(3 -6.28804e-15 0)
(3 -7.1285e-15 0)
(3 -6.55144e-15 0)
(3 -5.5385e-15 0)
(3 -3.54347e-15 0)
(3 -1.46048e-15 0)
(3 1.0799e-15 0)
(3 7.59484e-16 0)
(3 6.16894e-16 0)
(3 1.02495e-15 0)
(3 1.91975e-15 0)
(3 1.2377e-15 0)
(3 1.14117e-15 0)
(3 2.20512e-16 0)
(3 -1.73118e-15 0)
(3 -2.38604e-15 0)
(3 -1.41241e-15 0)
(2.28657 0.671939 0)
(2.28716 0.6643 0)
(2.29155 0.661041 0)
(2.29795 0.661289 0)
(2.30675 0.658694 0)
(2.31615 0.654611 0)
(2.32372 0.651536 0)
(2.3302 0.64985 0)
(2.33575 0.648282 0)
(2.34027 0.643141 0)
(2.34392 0.633158 0)
(2.34671 0.622249 0)
(2.34846 0.612228 0)
(2.35011 0.603517 0)
(2.35333 0.597629 0)
(2.35932 0.597351 0)
(2.36646 0.598732 0)
(2.37797 0.600412 0)
(2.38723 0.600469 0)
(2.39494 0.599723 0)
(2.40216 0.597116 0)
(2.40385 0.587846 0)
(2.39695 0.570332 0)
(2.3956 0.555026 0)
(2.40145 0.550672 0)
(2.40785 0.548502 0)
(2.41356 0.54588 0)
(2.4191 0.543667 0)
(2.42449 0.542659 0)
(2.43022 0.542645 0)
(2.43726 0.543057 0)
(2.44416 0.543145 0)
(2.45148 0.541369 0)
(2.45257 0.533399 0)
(2.44608 0.516527 0)
(2.44174 0.497843 0)
(2.44727 0.491476 0)
(2.45223 0.491049 0)
(2.4606 0.488924 0)
(2.4659 0.486739 0)
(2.47143 0.484981 0)
(2.47669 0.4833 0)
(2.48145 0.48147 0)
(2.48634 0.478752 0)
(2.4904 0.474476 0)
(2.48933 0.466555 0)
(2.48298 0.454619 0)
(2.48623 0.448515 0)
(2.49179 0.44433 0)
(2.49732 0.438654 0)
(2.50088 0.431028 0)
(2.50215 0.422758 0)
(2.50474 0.418426 0)
(2.50832 0.418766 0)
(2.51472 0.420244 0)
(2.52127 0.421387 0)
(2.52568 0.42119 0)
(2.53127 0.419016 0)
(2.53375 0.412012 0)
(2.52849 0.397768 0)
(2.52065 0.380932 0)
(2.52142 0.372111 0)
(2.52445 0.37097 0)
(2.53345 0.371063 0)
(2.54759 0.37452 0)
(2.55688 0.37622 0)
(2.56128 0.374802 0)
(2.56628 0.370485 0)
(2.56674 0.362127 0)
(2.55585 0.346123 0)
(2.54126 0.327703 0)
(2.53945 0.319363 0)
(2.54222 0.318355 0)
(2.54775 0.318464 0)
(2.56173 0.322641 0)
(2.58057 0.331588 0)
(2.59072 0.334728 0)
(2.59521 0.333237 0)
(2.60117 0.330413 0)
(2.60584 0.327845 0)
(2.6072 0.32117 0)
(2.59922 0.306161 0)
(2.57974 0.27896 0)
(2.56763 0.259619 0)
(2.56873 0.253574 0)
(2.57177 0.2537 0)
(2.57806 0.255771 0)
(2.59105 0.262991 0)
(2.60603 0.272596 0)
(2.61364 0.275697 0)
(2.61782 0.27455 0)
(2.62319 0.272191 0)
(2.62756 0.270243 0)
(2.63167 0.268193 0)
(2.63546 0.264732 0)
(2.63522 0.256653 0)
(2.62438 0.24016 0)
(2.60921 0.218795 0)
(2.60725 0.209116 0)
(2.61042 0.208386 0)
(2.61565 0.209089 0)
(2.62778 0.213637 0)
(2.64182 0.220853 0)
(2.64785 0.222531 0)
(2.65186 0.221362 0)
(2.6561 0.219729 0)
(2.65892 0.217568 0)
(2.65899 0.210958 0)
(2.65146 0.196786 0)
(2.64051 0.180861 0)
(2.63946 0.175056 0)
(2.64244 0.17561 0)
(2.6475 0.175716 0)
(2.65483 0.175198 0)
(2.65857 0.175259 0)
(2.66405 0.174847 0)
(2.66902 0.173991 0)
(2.67293 0.172609 0)
(2.67595 0.170617 0)
(2.67781 0.169562 0)
(2.67918 0.167372 0)
(2.67879 0.162476 0)
(2.6749 0.156722 0)
(2.66954 0.147665 0)
(2.67389 0.144026 0)
(2.67798 0.143537 0)
(2.68193 0.141777 0)
(2.68533 0.13933 0)
(2.68836 0.137161 0)
(2.69152 0.135522 0)
(2.6945 0.135043 0)
(2.69746 0.13424 0)
(2.69862 0.129269 0)
(2.69326 0.119816 0)
(2.00728 0.952916 0)
(2.01236 0.951119 0)
(2.01788 0.948561 0)
(2.02201 0.94675 0)
(2.02374 0.947882 0)
(2.02443 0.9482 0)
(2.02856 0.944198 0)
(2.0339 0.938135 0)
(2.03647 0.935452 0)
(2.03633 0.936137 0)
(2.03749 0.932696 0)
(2.04563 0.925155 0)
(2.05351 0.915891 0)
(2.05714 0.913185 0)
(2.05761 0.915031 0)
(2.06024 0.912633 0)
(2.06911 0.906051 0)
(2.07593 0.898937 0)
(2.07841 0.898594 0)
(2.07733 0.901454 0)
(2.07973 0.899036 0)
(2.08844 0.891941 0)
(2.09467 0.884675 0)
(2.09701 0.88506 0)
(2.09892 0.883949 0)
(2.10558 0.877766 0)
(2.11128 0.872076 0)
(2.11479 0.87184 0)
(2.1179 0.870538 0)
(2.12235 0.865541 0)
(2.12586 0.860681 0)
(2.12875 0.860422 0)
(2.13082 0.860402 0)
(2.13474 0.856034 0)
(2.14045 0.847841 0)
(2.14354 0.842408 0)
(2.14535 0.842884 0)
(2.14921 0.839963 0)
(2.15778 0.833162 0)
(2.16588 0.82278 0)
(2.17033 0.817328 0)
(2.17176 0.819538 0)
(2.17157 0.821715 0)
(2.17416 0.816508 0)
(2.18177 0.806519 0)
(2.18756 0.798863 0)
(2.19016 0.797608 0)
(2.18971 0.801143 0)
(2.18954 0.801741 0)
(2.19693 0.795245 0)
(2.20722 0.781129 0)
(2.21282 0.771137 0)
(2.21348 0.77399 0)
(2.21048 0.775822 0)
(2.20623 0.778738 0)
(2.1935 0.78961 0)
(2.16687 0.812453 0)
(2.14455 0.823491 0)
(2.11682 0.841834 0)
(2.10317 0.862318 0)
(2.09854 0.863621 0)
(2.10093 0.86063 0)
(2.10995 0.850709 0)
(2.11774 0.837033 0)
(2.12042 0.834824 0)
(2.1203 0.837624 0)
(2.1248 0.829715 0)
(2.13415 0.814071 0)
(2.13905 0.804228 0)
(2.14079 0.80736 0)
(2.14055 0.808531 0)
(2.1479 0.802431 0)
(2.15648 0.793276 0)
(2.16048 0.791008 0)
(2.16083 0.79233 0)
(2.16736 0.786891 0)
(2.17788 0.774715 0)
(2.18515 0.763668 0)
(2.18806 0.759323 0)
(2.18736 0.760122 0)
(2.18914 0.755829 0)
(2.19868 0.744557 0)
(2.20807 0.733923 0)
(2.21302 0.729549 0)
(2.21406 0.732532 0)
(2.21584 0.733849 0)
(2.22391 0.732498 0)
(2.23459 0.725842 0)
(2.24246 0.719913 0)
(2.24675 0.71791 0)
(2.2499 0.716109 0)
(2.25618 0.712306 0)
(2.26492 0.705585 0)
(2.27282 0.697192 0)
(2.27695 0.688994 0)
(2.27631 0.680635 0)
(2.27651 0.673174 0)
(2.28056 0.669715 0)
(2.28673 0.670185 0)
(2.29588 0.667593 0)
(2.30585 0.663491 0)
(2.31351 0.660652 0)
(2.3201 0.658774 0)
(2.32544 0.656875 0)
(2.32951 0.652105 0)
(2.33313 0.642953 0)
(2.33577 0.631565 0)
(2.33766 0.620763 0)
(2.34002 0.612132 0)
(2.34441 0.607379 0)
(2.35046 0.60786 0)
(2.3586 0.60935 0)
(2.37029 0.611295 0)
(2.37934 0.611518 0)
(2.38737 0.610994 0)
(2.39427 0.608026 0)
(2.3953 0.598841 0)
(2.38799 0.581443 0)