/*--------------------------------*- C++ -*----------------------------------*\
  =========                 |
  \\      /  F ield         | OpenFOAM: The Open Source CFD Toolbox
   \\    /   O peration     | Website:  https://openfoam.org
    \\  /    A nd           | Version:  7
     \\/     M anipulation  |
\*---------------------------------------------------------------------------*/
FoamFile
{
    version     2.0;
    format      ascii;
    class       volScalarField;
    location    "4";
    object      T;
}
// * * * * * * * * * * * * * * * * * * * * * * * * * * * * * * * * * * * * * //

dimensions      [0 0 0 1 0 0 0];

internalField   nonuniform List<scalar> 
16512
(
1.78035
1.77997
1.78343
1.79475
1.80081
1.8026
1.80513
1.80809
1.80936
1.81011
1.81448
1.82511
1.83095
1.8337
1.83581
1.8399
1.84301
1.84463
1.84823
1.85476
1.85614
1.8544
1.85357
1.8543
1.85776
1.86678
1.87356
1.87501
1.87484
1.87297
1.8683
1.86478
1.86431
1.86505
1.86862
1.87469
1.87937
1.88056
1.88025
1.87895
1.87814
1.87877
1.88253
1.88754
1.89031
1.89102
1.89038
1.8878
1.88394
1.87921
1.87597
1.87488
1.87546
1.87924
1.88364
1.88472
1.88474
1.88442
1.88335
1.88178
1.8802
1.87905
1.87848
1.87848
1.87937
1.88187
1.88498
1.8858
1.8854
1.88455
1.88331
1.88205
1.88151
1.88163
1.88204
1.8823
1.88223
1.88166
1.88015
1.87774
1.87536
1.87325
1.87194
1.87158
1.87178
1.87318
1.87561
1.87754
1.87837
1.87845
1.87801
1.87691
1.87542
1.87382
1.87277
1.87235
1.87209
1.87195
1.87187
1.87153
1.87067
1.86936
1.86788
1.86623
1.86473
1.86364
1.86292
1.86244
1.86203
1.86166
1.86128
1.86089
1.86061
1.86021
1.85964
1.85917
1.85915
1.85937
1.85912
1.85834
1.85716
1.85506
1.8524
1.85008
1.84844
1.84726
1.8462
1.84559
1.84573
1.84561
1.84486
1.84424
1.84318
1.84136
1.84018
1.8398
1.83944
1.83882
1.83808
1.83735
1.83625
1.83476
1.83338
1.8326
1.83201
1.83148
1.83106
1.83058
1.83022
1.83013
1.8302
1.83013
1.82966
1.82871
1.8273
1.82519
1.82252
1.81986
1.818
1.81721
1.81673
1.81666
1.81681
1.81738
1.81837
1.81943
1.82037
1.82115
1.82144
1.82138
1.82084
1.81949
1.81719
1.81404
1.81089
1.8092
1.80885
1.80918
1.81004
1.81121
1.81266
1.8139
1.81445
1.81448
1.8144
1.81411
1.81822
2.46462
2.76305
2.79518
2.80039
2.79832
2.79419
2.79319
2.79717
2.80812
2.81982
2.82674
2.82767
2.82714
2.82725
2.82906
2.83249
2.83509
2.83563
2.83439
2.83198
2.8301
2.82986
2.83094
2.83291
2.83497
2.83594
2.83515
2.83387
2.83218
2.83049
2.82917
2.82854
2.82796
2.82663
2.82487
2.82336
2.82204
2.8207
2.81981
2.81938
2.81897
2.81808
2.81701
2.81623
2.81589
2.8161
2.81701
2.81867
2.82076
2.82296
2.82498
2.82644
2.8269
2.82622
2.82435
2.82179
2.81852
2.81487
2.81145
2.80845
2.80558
2.80327
2.80197
2.80109
2.80005
2.79839
2.79643
2.79454
2.7929
2.79174
2.79129
1.75623
1.75719
1.75975
1.76775
1.77665
1.7812
1.78492
1.78773
1.78894
1.78871
1.78967
1.79704
1.80739
1.81299
1.8181
1.82214
1.82518
1.82629
1.82781
1.83217
1.83568
1.83595
1.83632
1.8382
1.84361
1.85301
1.8603
1.86224
1.86193
1.8594
1.85435
1.85104
1.85082
1.8517
1.85535
1.86181
1.86714
1.8682
1.86777
1.86628
1.86484
1.86502
1.86814
1.8736
1.87761
1.87903
1.87884
1.8777
1.87506
1.87117
1.86811
1.86717
1.86776
1.87093
1.87438
1.87598
1.87628
1.87613
1.8754
1.87414
1.87264
1.87121
1.87061
1.87034
1.87045
1.87165
1.87439
1.87617
1.8762
1.8759
1.87561
1.87563
1.87569
1.87613
1.87656
1.87653
1.87623
1.87547
1.87414
1.87238
1.87059
1.86902
1.86762
1.86671
1.86644
1.8667
1.86752
1.86866
1.86994
1.8712
1.87184
1.87179
1.87124
1.87024
1.86885
1.8674
1.86666
1.86651
1.86649
1.86646
1.86631
1.86587
1.86507
1.86369
1.86222
1.86113
1.86044
1.86002
1.85966
1.85921
1.85856
1.85776
1.85689
1.85591
1.85478
1.85364
1.85284
1.85248
1.85204
1.85146
1.85078
1.84975
1.84836
1.84699
1.84588
1.84488
1.84389
1.84347
1.8435
1.84318
1.84267
1.84233
1.84175
1.84054
1.83892
1.83775
1.83696
1.83618
1.83525
1.83405
1.83239
1.83053
1.8287
1.82749
1.82737
1.8276
1.82819
1.82904
1.82965
1.82969
1.8294
1.82893
1.82834
1.82719
1.82554
1.82332
1.82085
1.81869
1.81679
1.81493
1.81388
1.81342
1.81332
1.81346
1.81397
1.81469
1.8159
1.81713
1.81799
1.81827
1.81815
1.81741
1.81579
1.81334
1.81058
1.80865
1.80788
1.80781
1.80805
1.80883
1.80998
1.81077
1.8108
1.81052
1.81035
1.81004
1.81025
2.44398
2.75827
2.79571
2.8007
2.79861
2.79451
2.79311
2.79729
2.8088
2.82019
2.82722
2.82798
2.82791
2.82784
2.82907
2.83171
2.83441
2.83504
2.83407
2.83183
2.82989
2.82938
2.83017
2.83183
2.8335
2.83422
2.83327
2.8312
2.82912
2.82724
2.82567
2.82478
2.82427
2.82327
2.82216
2.82143
2.82093
2.82045
2.8203
2.8204
2.82024
2.81905
2.81727
2.81562
2.81439
2.8138
2.81413
2.81548
2.81763
2.82005
2.82227
2.8238
2.8242
2.82348
2.82176
2.81938
2.81631
2.81279
2.80963
2.80697
2.80452
2.80273
2.80167
2.80084
2.79978
2.79805
2.7959
2.79373
2.79176
2.79031
2.78977
1.69779
1.70267
1.70806
1.71527
1.7225
1.72981
1.73502
1.74012
1.74486
1.74705
1.74753
1.74971
1.75678
1.76295
1.76927
1.77566
1.78042
1.78371
1.78704
1.79144
1.7936
1.79412
1.79472
1.79625
1.80149
1.81003
1.81864
1.82364
1.82423
1.82256
1.81808
1.81392
1.81278
1.81328
1.81699
1.82538
1.83345
1.83694
1.83776
1.83748
1.83629
1.83564
1.83661
1.84026
1.84369
1.84556
1.8457
1.84531
1.84409
1.84173
1.84001
1.83992
1.84159
1.84544
1.8479
1.84917
1.84982
1.84991
1.84968
1.84939
1.84901
1.84904
1.84922
1.84923
1.84915
1.84928
1.85036
1.85163
1.85187
1.85204
1.85235
1.85288
1.85359
1.85452
1.85523
1.85535
1.85513
1.85449
1.85339
1.85204
1.85074
1.84988
1.84975
1.84997
1.85038
1.85034
1.85002
1.84999
1.8503
1.85081
1.85156
1.85217
1.85222
1.85194
1.8514
1.85065
1.84995
1.84959
1.84932
1.84908
1.84896
1.84899
1.84887
1.84808
1.84705
1.84615
1.84572
1.84571
1.84571
1.84588
1.84625
1.84643
1.84621
1.84534
1.84375
1.84153
1.83908
1.83722
1.836
1.83495
1.83411
1.8335
1.83294
1.83226
1.83166
1.83115
1.83102
1.83125
1.83159
1.8312
1.8305
1.83018
1.83002
1.82969
1.82903
1.82846
1.82811
1.82769
1.82691
1.82557
1.82359
1.82105
1.81807
1.81543
1.81426
1.81419
1.81482
1.81689
1.81905
1.81987
1.82004
1.81989
1.81904
1.8175
1.81537
1.81264
1.81022
1.8087
1.80776
1.80673
1.80605
1.80573
1.80519
1.80443
1.80385
1.80378
1.80449
1.80548
1.80614
1.80667
1.80671
1.80635
1.80531
1.8036
1.80175
1.80093
1.80106
1.8014
1.8021
1.80307
1.80365
1.8035
1.80251
1.80157
1.80103
1.8004
1.79963
2.40007
2.75013
2.79298
2.79698
2.79452
2.78964
2.78869
2.79326
2.80476
2.81558
2.82219
2.82285
2.82215
2.82182
2.82303
2.82545
2.82852
2.82976
2.82924
2.8274
2.82516
2.82394
2.82424
2.82541
2.82709
2.82861
2.82884
2.82767
2.82602
2.82431
2.82254
2.82116
2.82024
2.81888
2.81713
2.81584
2.81512
2.81499
2.8154
2.81643
2.81729
2.81712
2.81572
2.81376
2.81182
2.81026
2.80949
2.8097
2.811
2.81307
2.81531
2.81698
2.81735
2.8167
2.8153
2.81329
2.81056
2.80727
2.80416
2.80164
2.7994
2.79796
2.79704
2.79636
2.79547
2.79405
2.79214
2.79004
2.78788
2.78601
2.78491
1.62829
1.6368
1.6436
1.65043
1.65696
1.66461
1.67166
1.6777
1.68388
1.68771
1.68965
1.69185
1.69613
1.70123
1.7071
1.71351
1.71907
1.72379
1.72899
1.7352
1.73803
1.73972
1.74116
1.74326
1.74738
1.75318
1.75978
1.7655
1.76829
1.7683
1.76672
1.7643
1.76332
1.76359
1.76621
1.77309
1.78088
1.78627
1.78969
1.7909
1.79111
1.79143
1.79258
1.79493
1.79693
1.79872
1.79961
1.79948
1.79921
1.79814
1.79742
1.79764
1.80002
1.80371
1.80562
1.80718
1.80847
1.80876
1.80866
1.80862
1.80881
1.8091
1.80956
1.81015
1.81086
1.81196
1.81381
1.81509
1.81569
1.81624
1.81666
1.81713
1.81785
1.81888
1.81991
1.8205
1.82062
1.82037
1.81944
1.81825
1.817
1.81597
1.81571
1.81585
1.8161
1.8164
1.81683
1.81788
1.81922
1.82051
1.82147
1.82161
1.82149
1.82098
1.82002
1.8189
1.81846
1.8185
1.81864
1.8189
1.81937
1.81967
1.81957
1.81922
1.81862
1.81785
1.81711
1.81685
1.81688
1.81707
1.81763
1.81816
1.81827
1.81793
1.81718
1.816
1.81455
1.81341
1.81264
1.81193
1.81134
1.81097
1.8106
1.80988
1.80876
1.80794
1.80754
1.80725
1.807
1.80637
1.80574
1.80528
1.80502
1.80488
1.80484
1.80486
1.80486
1.80471
1.80423
1.80337
1.80221
1.80086
1.79935
1.79783
1.7966
1.7959
1.79583
1.79637
1.79752
1.79817
1.79839
1.79826
1.79737
1.79606
1.79448
1.79245
1.79024
1.78827
1.78685
1.78583
1.78565
1.78583
1.78618
1.78676
1.78759
1.7884
1.78936
1.79012
1.79015
1.79
1.7896
1.78868
1.78712
1.78511
1.78341
1.78298
1.78304
1.7834
1.78424
1.7854
1.78647
1.78688
1.78676
1.78671
1.78658
1.78613
1.78522
2.33121
2.73568
2.78552
2.78632
2.78301
2.77746
2.7773
2.78353
2.79579
2.80678
2.81238
2.81185
2.81006
2.80888
2.80982
2.81231
2.8163
2.81924
2.81938
2.81822
2.81586
2.81389
2.8137
2.81472
2.81676
2.81924
2.82081
2.82052
2.8195
2.81797
2.81629
2.81482
2.81361
2.81194
2.80938
2.80665
2.80435
2.80296
2.80281
2.8036
2.80492
2.80551
2.80485
2.8032
2.8012
2.7993
2.79793
2.79738
2.79773
2.79905
2.80119
2.80335
2.80421
2.80401
2.80332
2.80208
2.80022
2.79783
2.79531
2.79293
2.79082
2.78908
2.78774
2.78648
2.78508
2.78334
2.78133
2.77924
2.77712
2.77515
2.77373
1.58547
1.59618
1.60181
1.60711
1.61302
1.62039
1.62838
1.63432
1.63877
1.64198
1.64524
1.64912
1.65393
1.6594
1.66531
1.67037
1.67348
1.67639
1.68049
1.68652
1.69018
1.69251
1.69551
1.69892
1.70256
1.70669
1.71184
1.71771
1.7219
1.72286
1.72315
1.72328
1.72362
1.7242
1.72532
1.72807
1.73246
1.73684
1.74023
1.74237
1.7442
1.74729
1.75136
1.75292
1.75368
1.75443
1.75432
1.75442
1.75499
1.75509
1.75546
1.75685
1.75967
1.76184
1.7629
1.76405
1.76489
1.76553
1.76648
1.76743
1.76843
1.76921
1.7696
1.76999
1.77067
1.77209
1.77426
1.77559
1.77634
1.77716
1.77778
1.7784
1.77908
1.77979
1.78049
1.78114
1.78163
1.78166
1.78151
1.78134
1.78096
1.78027
1.7795
1.77887
1.77829
1.77787
1.77787
1.77863
1.78022
1.78231
1.78449
1.78575
1.7861
1.78604
1.78509
1.7832
1.78188
1.78175
1.78199
1.78274
1.7841
1.78548
1.78615
1.78645
1.78648
1.78616
1.78514
1.78415
1.78385
1.78377
1.78367
1.78365
1.78341
1.78298
1.78232
1.78123
1.77996
1.77935
1.77899
1.77871
1.77868
1.77886
1.77921
1.7794
1.77942
1.7793
1.77891
1.77833
1.77765
1.77686
1.77601
1.7752
1.77459
1.77437
1.77445
1.77473
1.77488
1.77474
1.77408
1.77288
1.77137
1.77006
1.7693
1.76894
1.76888
1.76922
1.76996
1.77062
1.77098
1.77108
1.77079
1.76994
1.769
1.76824
1.76736
1.76628
1.76495
1.76314
1.76094
1.75938
1.7586
1.75831
1.75838
1.75891
1.76022
1.7621
1.76366
1.76477
1.76543
1.76563
1.76554
1.76489
1.76349
1.76167
1.76
1.75889
1.75839
1.75833
1.75841
1.75876
1.75938
1.76016
1.76099
1.76149
1.76166
1.76169
1.76166
2.24025
2.70867
2.76784
2.76637
2.76166
2.75554
2.75645
2.76542
2.77903
2.79038
2.7949
2.79389
2.79022
2.78677
2.78674
2.78871
2.79385
2.79934
2.80125
2.80081
2.79911
2.79675
2.79582
2.79645
2.79789
2.79981
2.8014
2.80147
2.80099
2.79993
2.7987
2.79757
2.79653
2.79494
2.79251
2.78979
2.78728
2.78543
2.78462
2.78485
2.78587
2.78688
2.78682
2.7856
2.78364
2.7814
2.77928
2.77773
2.77707
2.77734
2.77868
2.78072
2.78212
2.78247
2.78242
2.78194
2.78093
2.77964
2.77837
2.77702
2.77568
2.77435
2.77304
2.77152
2.76964
2.76739
2.765
2.76272
2.7606
2.75868
2.75715
1.56291
1.57246
1.57744
1.58113
1.5856
1.5918
1.59952
1.60589
1.6112
1.61581
1.62066
1.62661
1.63288
1.63792
1.64172
1.64434
1.64608
1.64835
1.65243
1.65947
1.66445
1.66731
1.67015
1.67271
1.67488
1.67786
1.68269
1.68775
1.69033
1.6918
1.69311
1.69398
1.69454
1.69539
1.69689
1.69939
1.70275
1.70602
1.70897
1.71156
1.71416
1.7172
1.71956
1.72045
1.72091
1.72144
1.72188
1.72287
1.72401
1.72509
1.7262
1.72745
1.72886
1.72978
1.73051
1.73159
1.73315
1.73497
1.73639
1.73699
1.73695
1.73607
1.73584
1.73651
1.73812
1.74088
1.74367
1.74487
1.74534
1.74543
1.74518
1.74489
1.74504
1.74551
1.74625
1.74723
1.74811
1.74868
1.74878
1.74851
1.74795
1.74727
1.74658
1.74614
1.74596
1.74598
1.74641
1.7475
1.74917
1.75125
1.75301
1.75375
1.75387
1.75361
1.75234
1.75028
1.74937
1.7494
1.74994
1.75136
1.7534
1.75498
1.75561
1.7558
1.75574
1.7549
1.7532
1.75222
1.75211
1.7521
1.75243
1.75296
1.75292
1.75247
1.75165
1.75027
1.74877
1.74798
1.74777
1.74779
1.74804
1.74861
1.74935
1.74979
1.74983
1.74948
1.74853
1.74754
1.74675
1.74604
1.74537
1.74488
1.74463
1.74462
1.74478
1.74513
1.74535
1.74531
1.74487
1.74397
1.74283
1.74183
1.74129
1.74106
1.74101
1.7413
1.74181
1.74186
1.74176
1.74121
1.74012
1.73917
1.73871
1.73837
1.73794
1.73754
1.73693
1.73566
1.7339
1.73248
1.73165
1.7314
1.73147
1.73193
1.7331
1.73479
1.73618
1.73725
1.73791
1.73797
1.73756
1.73651
1.73522
1.7339
1.73274
1.73192
1.7316
1.73159
1.73172
1.73207
1.73275
1.73392
1.73492
1.73541
1.73539
1.73538
1.73517
2.13636
2.66953
2.74061
2.73685
2.73243
2.72889
2.73234
2.74324
2.75691
2.76679
2.76914
2.76764
2.76294
2.75817
2.75774
2.75962
2.76563
2.77323
2.77696
2.77673
2.7754
2.77239
2.77004
2.77018
2.77124
2.77298
2.775
2.77597
2.77598
2.77548
2.77479
2.77419
2.77366
2.77247
2.77064
2.76803
2.76483
2.76224
2.7605
2.75985
2.76021
2.7612
2.7619
2.76154
2.76035
2.7585
2.75627
2.75417
2.75272
2.75225
2.75261
2.7538
2.7552
2.75601
2.75633
2.75619
2.75558
2.7549
2.7543
2.7537
2.75306
2.75229
2.75128
2.74978
2.74771
2.74523
2.74266
2.74028
2.73826
2.73665
2.73545
1.54883
1.5564
1.56098
1.564
1.56743
1.57298
1.58046
1.58801
1.59436
1.59938
1.60444
1.61093
1.61764
1.62283
1.62672
1.62933
1.63126
1.6338
1.63892
1.64619
1.65016
1.65233
1.65435
1.65601
1.65773
1.66093
1.66658
1.67047
1.67187
1.67272
1.67303
1.67396
1.67541
1.67815
1.683
1.68808
1.69141
1.69359
1.69477
1.69519
1.69549
1.69591
1.69696
1.69965
1.70233
1.7035
1.70452
1.70577
1.7072
1.70848
1.70936
1.71016
1.7113
1.71239
1.71322
1.71406
1.71458
1.71472
1.71456
1.71399
1.71361
1.71375
1.71466
1.71654
1.71948
1.7225
1.72397
1.72444
1.7246
1.72442
1.72423
1.72447
1.72509
1.72604
1.72724
1.72806
1.72824
1.72794
1.72718
1.72631
1.72586
1.72581
1.72594
1.7262
1.72648
1.72689
1.72744
1.72808
1.7288
1.72968
1.73035
1.73058
1.73063
1.73053
1.72988
1.72882
1.72862
1.72888
1.7296
1.73063
1.73156
1.73172
1.73165
1.73151
1.73118
1.73042
1.72951
1.72932
1.7294
1.72953
1.72974
1.72965
1.72911
1.7285
1.72786
1.72709
1.72654
1.72642
1.72664
1.72716
1.7277
1.72801
1.72816
1.72804
1.72732
1.726
1.72451
1.72349
1.72299
1.72267
1.72235
1.722
1.72158
1.72112
1.72068
1.72033
1.7201
1.71989
1.71954
1.71911
1.71888
1.71879
1.71871
1.71864
1.71862
1.71858
1.7183
1.71778
1.7167
1.71536
1.71468
1.71447
1.71436
1.71434
1.71438
1.71426
1.71367
1.71247
1.71096
1.7094
1.7086
1.70855
1.70881
1.7097
1.71099
1.7123
1.71342
1.714
1.7141
1.7138
1.71277
1.71171
1.71091
1.7101
1.70927
1.70848
1.70779
1.70734
1.70727
1.70748
1.70833
1.70957
1.7107
1.71157
1.71198
1.71238
1.7122
2.02194
2.6174
2.7108
2.70486
2.70416
2.705
2.71154
2.72262
2.73348
2.73962
2.73959
2.73724
2.73181
2.72674
2.72617
2.72778
2.73398
2.74234
2.74678
2.74676
2.7459
2.7433
2.74105
2.74138
2.74262
2.74429
2.74618
2.74755
2.74784
2.74757
2.74717
2.74711
2.7472
2.74672
2.74588
2.74417
2.74083
2.73712
2.73439
2.73253
2.73191
2.73227
2.73317
2.73374
2.73359
2.73282
2.73127
2.72932
2.72751
2.72638
2.72609
2.72638
2.72721
2.72802
2.72841
2.72829
2.72794
2.72762
2.72746
2.72755
2.72772
2.72771
2.72732
2.72613
2.72408
2.7216
2.71902
2.71661
2.7146
2.71314
2.71214
1.53791
1.54278
1.5468
1.54936
1.55147
1.55567
1.56366
1.57254
1.57997
1.58579
1.59147
1.59803
1.6039
1.60859
1.61289
1.61671
1.62042
1.62519
1.63279
1.6388
1.64089
1.64229
1.64358
1.64477
1.64645
1.64984
1.65603
1.66074
1.66201
1.66249
1.66235
1.66367
1.66596
1.67076
1.67828
1.68208
1.6833
1.68392
1.68415
1.68397
1.68342
1.68344
1.68499
1.68976
1.69333
1.69404
1.69447
1.69503
1.69573
1.69655
1.69764
1.69936
1.70139
1.70229
1.70259
1.7026
1.70196
1.70082
1.70053
1.70093
1.70186
1.70393
1.70747
1.71097
1.71292
1.71358
1.71377
1.71376
1.71392
1.71428
1.71474
1.7153
1.71565
1.71569
1.71539
1.71481
1.71431
1.71345
1.71301
1.71319
1.7139
1.71516
1.71604
1.71619
1.716
1.71544
1.71506
1.715
1.71506
1.71552
1.71623
1.71678
1.71727
1.71765
1.71753
1.71673
1.71584
1.71565
1.71575
1.71588
1.71614
1.71675
1.71708
1.71704
1.71693
1.71678
1.71653
1.71611
1.71591
1.71569
1.71539
1.71522
1.71525
1.71553
1.71606
1.71654
1.71662
1.71624
1.7154
1.7146
1.71402
1.71339
1.71264
1.71199
1.71142
1.71078
1.70998
1.70915
1.70849
1.70797
1.70744
1.70684
1.70621
1.70561
1.70501
1.70441
1.70392
1.70359
1.70337
1.70336
1.70363
1.70401
1.7042
1.70418
1.70391
1.70331
1.70225
1.70073
1.69921
1.69836
1.69799
1.69771
1.69755
1.69758
1.69762
1.6974
1.69687
1.69612
1.69492
1.69364
1.69333
1.69349
1.69408
1.69501
1.69591
1.69655
1.69686
1.69681
1.69613
1.69512
1.69442
1.694
1.69355
1.69293
1.69223
1.69145
1.6906
1.69011
1.69009
1.69033
1.69106
1.69226
1.69372
1.69521
1.69627
1.69673
1.69609
1.90691
2.56003
2.68892
2.68048
2.68297
2.68918
2.69821
2.70647
2.71208
2.71326
2.71163
2.70768
2.70244
2.69864
2.6987
2.70113
2.70773
2.71534
2.71908
2.71939
2.71871
2.7166
2.7149
2.71523
2.71619
2.71752
2.71892
2.71997
2.72036
2.72016
2.71985
2.72004
2.72058
2.72058
2.72062
2.7199
2.71735
2.7135
2.71043
2.70827
2.70707
2.70701
2.70762
2.70846
2.7089
2.70877
2.70798
2.7065
2.70478
2.70328
2.70237
2.70206
2.70219
2.70263
2.70295
2.70295
2.70285
2.70284
2.70309
2.70369
2.70428
2.70444
2.704
2.70279
2.70074
2.69836
2.69604
2.69392
2.69225
2.6913
2.69092
1.52573
1.52878
1.53187
1.53576
1.54081
1.54881
1.55865
1.56779
1.57536
1.58009
1.58338
1.58684
1.59051
1.59483
1.59973
1.60486
1.61015
1.61671
1.62496
1.63123
1.63418
1.63563
1.63622
1.6367
1.63806
1.64106
1.64747
1.65307
1.65485
1.65622
1.65752
1.65886
1.66109
1.66603
1.67176
1.67419
1.67528
1.67597
1.6759
1.67606
1.6762
1.67672
1.67982
1.68494
1.68691
1.68708
1.68707
1.68705
1.6874
1.68821
1.68996
1.69319
1.69501
1.69548
1.69566
1.69478
1.69343
1.69347
1.69419
1.69536
1.6978
1.70209
1.70559
1.70661
1.70689
1.70689
1.70673
1.70672
1.70702
1.70735
1.70768
1.70787
1.70785
1.70775
1.70723
1.70609
1.70527
1.70527
1.70557
1.70656
1.70822
1.70942
1.70963
1.70955
1.70901
1.70837
1.7082
1.70826
1.70867
1.70942
1.71005
1.71027
1.71028
1.71012
1.7097
1.7088
1.708
1.70777
1.70788
1.70824
1.70908
1.71038
1.71144
1.71185
1.71193
1.71157
1.71036
1.70895
1.70842
1.70829
1.70825
1.70879
1.71016
1.71117
1.71124
1.71071
1.70916
1.70705
1.70558
1.70448
1.70336
1.70263
1.70244
1.70258
1.70252
1.70235
1.70201
1.70121
1.70023
1.69955
1.69912
1.69887
1.69872
1.69861
1.69848
1.69824
1.69774
1.69687
1.69618
1.69617
1.69632
1.69651
1.69653
1.69623
1.69518
1.69338
1.69141
1.68986
1.6889
1.68841
1.68822
1.68821
1.68858
1.68909
1.68914
1.68871
1.68807
1.68712
1.68573
1.68506
1.68508
1.6854
1.68591
1.68621
1.68637
1.6863
1.68571
1.68471
1.68371
1.68321
1.68302
1.68287
1.68263
1.68244
1.6823
1.68201
1.68171
1.68168
1.68201
1.6826
1.68336
1.68435
1.68531
1.6856
1.68549
1.6851
1.6836
1.80915
2.50335
2.6765
2.6699
2.67541
2.68432
2.69064
2.69378
2.69374
2.69193
2.6886
2.68466
2.68183
2.68136
2.68293
2.68659
2.69175
2.6959
2.69699
2.69656
2.6952
2.69325
2.69249
2.69341
2.69506
2.69703
2.69847
2.69909
2.6993
2.69899
2.69871
2.69908
2.69989
2.70032
2.70081
2.7007
2.69922
2.69592
2.69272
2.69065
2.68919
2.68844
2.68825
2.68854
2.68903
2.68921
2.68899
2.68819
2.68685
2.68537
2.68427
2.68363
2.68352
2.68378
2.68421
2.68441
2.68439
2.68429
2.68427
2.68444
2.68456
2.68431
2.68382
2.68283
2.68125
2.67955
2.67792
2.67634
2.67515
2.67472
2.67488
1.51341
1.51443
1.51672
1.52132
1.52765
1.53677
1.54869
1.55842
1.56578
1.5719
1.57543
1.57743
1.57898
1.58146
1.58563
1.59138
1.59853
1.60709
1.61581
1.62184
1.6254
1.62758
1.62886
1.62959
1.63066
1.63372
1.63959
1.64516
1.6481
1.65051
1.65322
1.65595
1.6584
1.66198
1.66489
1.66613
1.66714
1.6674
1.66787
1.66869
1.6699
1.67311
1.67851
1.68168
1.68223
1.6823
1.68167
1.68086
1.68117
1.68253
1.68569
1.68912
1.69029
1.69089
1.69114
1.69056
1.69
1.69046
1.69142
1.6934
1.69695
1.70009
1.70133
1.70166
1.70196
1.70196
1.7017
1.70186
1.7021
1.70229
1.70246
1.70251
1.70232
1.70177
1.70143
1.7015
1.70165
1.70213
1.70329
1.70465
1.70529
1.70535
1.70533
1.70513
1.70498
1.70507
1.70542
1.70599
1.7064
1.70643
1.70619
1.70586
1.70554
1.7051
1.70454
1.70431
1.70428
1.70444
1.70496
1.70593
1.70747
1.70867
1.70893
1.70883
1.70838
1.70719
1.70554
1.70461
1.70451
1.70459
1.70539
1.70689
1.70753
1.70723
1.70647
1.70518
1.70316
1.70058
1.69877
1.69805
1.69769
1.6975
1.69787
1.6986
1.6986
1.69844
1.69813
1.69723
1.6963
1.69593
1.69584
1.69596
1.69637
1.69636
1.69614
1.69551
1.69421
1.69286
1.6922
1.69193
1.69173
1.69152
1.69121
1.69045
1.68891
1.68685
1.68535
1.68457
1.68429
1.68419
1.68432
1.68508
1.68636
1.687
1.68679
1.68606
1.6847
1.68277
1.68154
1.68127
1.68116
1.68112
1.68106
1.68091
1.68052
1.67979
1.67886
1.67804
1.6776
1.67753
1.67757
1.67771
1.67787
1.67826
1.67881
1.67912
1.67913
1.67891
1.67853
1.67831
1.67819
1.67809
1.67804
1.67788
1.67746
1.67666
1.67574
1.72911
2.44834
2.6724
2.67525
2.67947
2.68469
2.68552
2.6846
2.68161
2.67849
2.6755
2.67391
2.67411
2.67555
2.67773
2.67962
2.68082
2.68105
2.68046
2.67943
2.67853
2.67847
2.67959
2.68207
2.68447
2.68578
2.6857
2.68505
2.68404
2.68297
2.68257
2.68311
2.68462
2.68602
2.68735
2.68765
2.6865
2.6834
2.68019
2.67812
2.67691
2.67644
2.67659
2.67737
2.67804
2.67798
2.6773
2.67595
2.6743
2.67297
2.67217
2.67176
2.67179
2.67208
2.67226
2.67214
2.67182
2.67145
2.67125
2.67132
2.67138
2.67126
2.67098
2.67034
2.66907
2.66745
2.66583
2.66438
2.66336
2.66325
2.66412
1.50079
1.50206
1.50397
1.50831
1.51422
1.52178
1.53378
1.54474
1.55242
1.55879
1.56427
1.56891
1.57326
1.57731
1.57937
1.58102
1.58692
1.59682
1.60505
1.60978
1.61334
1.61641
1.61944
1.62293
1.62582
1.62858
1.63295
1.63758
1.6412
1.64425
1.64737
1.65114
1.65631
1.65976
1.66049
1.65993
1.65933
1.65986
1.66105
1.66241
1.6649
1.67041
1.67619
1.67815
1.67876
1.67897
1.67898
1.6789
1.67898
1.67993
1.68293
1.68564
1.68677
1.68766
1.68827
1.68849
1.68878
1.68933
1.69029
1.69206
1.69455
1.69661
1.69716
1.69744
1.69752
1.6977
1.69827
1.69849
1.69861
1.69862
1.69851
1.69845
1.69851
1.69883
1.69926
1.69988
1.70103
1.70247
1.70327
1.70336
1.7033
1.7032
1.70304
1.70308
1.70335
1.70393
1.7044
1.70447
1.70428
1.70389
1.70346
1.70294
1.70234
1.70197
1.70195
1.70234
1.70309
1.704
1.70505
1.70599
1.70635
1.70624
1.70596
1.70548
1.70457
1.70312
1.70205
1.70191
1.70201
1.70276
1.70409
1.70459
1.7043
1.70374
1.70286
1.70122
1.6986
1.69652
1.69583
1.69547
1.69528
1.69597
1.69723
1.69752
1.69727
1.69692
1.69618
1.69532
1.69493
1.69475
1.6947
1.69469
1.69456
1.69419
1.69348
1.6924
1.69101
1.69003
1.68954
1.68911
1.68868
1.68826
1.68774
1.68686
1.68536
1.68386
1.68313
1.68289
1.6828
1.68314
1.68426
1.68568
1.68618
1.68586
1.68507
1.68381
1.68193
1.67996
1.6792
1.67892
1.67864
1.67838
1.67816
1.6779
1.67741
1.67663
1.67591
1.6756
1.67559
1.67568
1.67588
1.67629
1.67701
1.67767
1.67775
1.67761
1.677
1.67583
1.67486
1.67446
1.67422
1.67398
1.67357
1.67313
1.67291
1.67267
1.67249
1.67803
2.39971
2.67556
2.69073
2.68766
2.68651
2.68425
2.68007
2.67578
2.67239
2.67002
2.66984
2.67105
2.67277
2.67385
2.67376
2.67309
2.67225
2.6712
2.67073
2.6715
2.67359
2.67644
2.67852
2.67923
2.67879
2.67745
2.67608
2.67482
2.67401
2.67414
2.67519
2.67683
2.67807
2.67901
2.67866
2.6768
2.67378
2.67106
2.66964
2.66912
2.66934
2.67028
2.67072
2.67046
2.66959
2.66812
2.66639
2.6651
2.6647
2.6649
2.66539
2.66592
2.66626
2.6663
2.6662
2.66599
2.66589
2.66597
2.66617
2.6661
2.6656
2.66474
2.66333
2.66148
2.65958
2.65812
2.6572
2.65696
2.65774
2.65956
1.48729
1.4931
1.4963
1.4983
1.50171
1.50777
1.5178
1.52819
1.53554
1.54215
1.54926
1.55619
1.56202
1.56672
1.57165
1.57813
1.58504
1.59146
1.59542
1.5975
1.59986
1.60307
1.60781
1.61502
1.62264
1.62674
1.62887
1.63128
1.63374
1.63638
1.63984
1.64524
1.65199
1.65596
1.65709
1.65746
1.65612
1.65537
1.65627
1.65783
1.66093
1.6672
1.67274
1.67418
1.67491
1.67532
1.6757
1.6761
1.67664
1.67829
1.68128
1.68317
1.68433
1.68542
1.6862
1.68673
1.68723
1.68788
1.68885
1.69023
1.69195
1.69277
1.6931
1.69344
1.6941
1.69518
1.69577
1.696
1.69594
1.69586
1.69612
1.69647
1.69691
1.69763
1.69896
1.70075
1.70196
1.70223
1.70217
1.70189
1.70175
1.70182
1.7019
1.70209
1.7025
1.70275
1.70273
1.70265
1.70243
1.70198
1.70136
1.70082
1.70064
1.70065
1.70121
1.70245
1.70371
1.70442
1.70462
1.70449
1.70416
1.70384
1.7034
1.70261
1.70126
1.70013
1.69993
1.70001
1.7007
1.7019
1.70231
1.70212
1.70181
1.70119
1.69985
1.69771
1.69585
1.69497
1.69465
1.69477
1.69578
1.69721
1.69745
1.69705
1.69647
1.69553
1.69472
1.69455
1.69446
1.69427
1.69387
1.69318
1.69239
1.69163
1.69061
1.68917
1.68837
1.6883
1.68824
1.688
1.68754
1.68699
1.68623
1.68506
1.68361
1.68294
1.68275
1.68273
1.68299
1.68378
1.68484
1.68509
1.68467
1.68404
1.68327
1.68207
1.68026
1.6788
1.67818
1.67786
1.67755
1.67723
1.67693
1.67663
1.67612
1.67544
1.67522
1.67523
1.67528
1.67552
1.67595
1.67652
1.67687
1.6768
1.67648
1.67574
1.67464
1.67329
1.67225
1.67174
1.6714
1.67116
1.67107
1.67101
1.67096
1.67139
1.67233
1.67314
2.36224
2.68171
2.70337
2.69365
2.68854
2.68373
2.679
2.6743
2.67018
2.66832
2.66903
2.67078
2.67199
2.67211
2.67134
2.67024
2.66889
2.66798
2.66856
2.6701
2.67216
2.67397
2.67524
2.67521
2.6744
2.67348
2.67245
2.67187
2.67201
2.67274
2.67422
2.67503
2.67518
2.67483
2.67353
2.67142
2.66904
2.66714
2.66642
2.66629
2.6664
2.66638
2.66585
2.66474
2.66341
2.66206
2.66103
2.66069
2.66106
2.66222
2.66355
2.6645
2.66497
2.66515
2.66514
2.66496
2.66453
2.6639
2.66319
2.66243
2.66146
2.66002
2.65819
2.65658
2.6555
2.65471
2.65468
2.65543
2.65684
2.65805
1.46734
1.47736
1.48627
1.49264
1.50048
1.50891
1.51273
1.51626
1.52043
1.52515
1.53054
1.53631
1.54256
1.55049
1.56243
1.57569
1.5842
1.58833
1.59026
1.59086
1.59129
1.59379
1.59852
1.60608
1.61643
1.62511
1.62889
1.62963
1.6289
1.63007
1.63272
1.63724
1.64436
1.65018
1.6523
1.65329
1.65383
1.65405
1.65528
1.65685
1.65932
1.66402
1.66791
1.6689
1.66963
1.67075
1.6719
1.67293
1.67423
1.67699
1.68022
1.68144
1.68234
1.68345
1.68427
1.68482
1.68539
1.68617
1.68731
1.68875
1.68947
1.6897
1.69001
1.69133
1.69307
1.69379
1.69405
1.69403
1.69391
1.69419
1.69469
1.69517
1.69605
1.69786
1.69994
1.70086
1.70102
1.70098
1.70088
1.70067
1.70068
1.70085
1.70107
1.70147
1.70165
1.70158
1.70131
1.70101
1.70057
1.70007
1.69985
1.69987
1.70002
1.70079
1.70216
1.70308
1.70334
1.70332
1.70306
1.70269
1.70227
1.70171
1.70087
1.69977
1.69897
1.69872
1.6987
1.69919
1.70019
1.70055
1.70045
1.7003
1.69988
1.69891
1.69752
1.69593
1.69487
1.69462
1.69484
1.69598
1.69718
1.69712
1.69666
1.69606
1.69531
1.69456
1.6942
1.69397
1.69371
1.6933
1.69266
1.69188
1.69091
1.68971
1.68846
1.68757
1.68725
1.68716
1.68739
1.68764
1.68747
1.68704
1.68601
1.68431
1.68342
1.68319
1.68314
1.68335
1.68385
1.68416
1.68404
1.6836
1.68305
1.68235
1.68133
1.6801
1.67916
1.67854
1.67808
1.67773
1.67744
1.67715
1.6768
1.67632
1.67564
1.67524
1.67523
1.67524
1.67535
1.67566
1.67597
1.67601
1.67595
1.67565
1.67512
1.67418
1.67267
1.67113
1.67039
1.67015
1.67002
1.66991
1.66988
1.67034
1.67132
1.67251
1.67352
1.67334
2.33121
2.68886
2.70727
2.69684
2.69044
2.68439
2.67852
2.67351
2.66991
2.66901
2.66994
2.67163
2.67267
2.67239
2.67142
2.66989
2.66794
2.66729
2.66784
2.66927
2.67102
2.67262
2.67336
2.67328
2.67288
2.67222
2.67157
2.67103
2.67094
2.67153
2.67306
2.67376
2.67388
2.67332
2.67198
2.67017
2.66827
2.66679
2.66595
2.6654
2.66488
2.66412
2.66315
2.66222
2.66116
2.66024
2.65985
2.66011
2.66112
2.6626
2.664
2.66497
2.66537
2.66536
2.6649
2.66398
2.66286
2.66169
2.66047
2.65923
2.65796
2.65679
2.65577
2.6549
2.65445
2.65456
2.65506
2.65583
2.65609
2.65607
1.42522
1.44284
1.4599
1.4756
1.49051
1.50296
1.51013
1.51365
1.5148
1.51383
1.51545
1.51986
1.52642
1.53662
1.55281
1.56923
1.57666
1.57946
1.58229
1.58562
1.58964
1.59289
1.59507
1.59908
1.60809
1.61853
1.62352
1.626
1.62819
1.62948
1.63003
1.63183
1.63616
1.64143
1.6457
1.64817
1.64967
1.65131
1.65408
1.65761
1.66071
1.66303
1.66445
1.66499
1.66553
1.6667
1.66831
1.66999
1.67218
1.67577
1.67857
1.67939
1.68002
1.68093
1.68192
1.68271
1.6835
1.68451
1.68572
1.68645
1.68687
1.68749
1.68941
1.69194
1.69319
1.69349
1.69332
1.69273
1.6928
1.6934
1.69403
1.69475
1.69604
1.69799
1.69938
1.69977
1.69984
1.69987
1.69973
1.69961
1.69978
1.70006
1.70051
1.7009
1.70099
1.7008
1.70022
1.69946
1.69901
1.69903
1.69907
1.69933
1.70032
1.70182
1.70244
1.70241
1.70211
1.70177
1.70134
1.70069
1.69989
1.69913
1.6986
1.69831
1.69817
1.69828
1.69872
1.69909
1.69907
1.69904
1.69896
1.69869
1.69821
1.69751
1.69645
1.69585
1.6958
1.69599
1.69647
1.69653
1.69615
1.6957
1.69525
1.69475
1.69437
1.69417
1.69391
1.69351
1.69286
1.69206
1.69129
1.69045
1.68945
1.68846
1.68762
1.68724
1.68712
1.6873
1.68806
1.68827
1.6882
1.68798
1.68652
1.68472
1.68421
1.68403
1.68394
1.68391
1.6838
1.68357
1.68314
1.68257
1.68186
1.68101
1.68006
1.67912
1.67866
1.67852
1.67837
1.67818
1.67792
1.67753
1.67685
1.67603
1.67552
1.67531
1.6752
1.67519
1.67526
1.6754
1.67538
1.67531
1.6751
1.67468
1.67391
1.67265
1.67111
1.67006
1.66969
1.66959
1.66956
1.66977
1.67058
1.67194
1.67307
1.67333
1.6732
1.67238
2.30405
2.6919
2.7078
2.69857
2.69224
2.68564
2.6792
2.6741
2.67085
2.67087
2.67222
2.67391
2.67446
2.67393
2.67206
2.66943
2.66718
2.66688
2.66763
2.66889
2.67023
2.67147
2.67254
2.67284
2.67258
2.67186
2.67052
2.66944
2.66946
2.67021
2.67191
2.67287
2.67315
2.67293
2.67188
2.67003
2.66795
2.66636
2.66544
2.66481
2.66406
2.66331
2.66266
2.66181
2.66093
2.6603
2.66026
2.66061
2.66142
2.66267
2.66411
2.6651
2.66531
2.66503
2.66403
2.66258
2.66102
2.65949
2.65815
2.65725
2.65667
2.65614
2.65568
2.65545
2.65546
2.65562
2.65551
2.65515
2.65474
2.65416
1.35061
1.37606
1.4047
1.4334
1.45896
1.47929
1.49287
1.49861
1.50212
1.50501
1.50654
1.5096
1.51618
1.52835
1.54292
1.55554
1.5606
1.56335
1.56756
1.5729
1.57857
1.58435
1.59086
1.59624
1.60146
1.60747
1.61281
1.61758
1.62171
1.62571
1.63011
1.63218
1.6332
1.63593
1.63882
1.641
1.64343
1.6468
1.65122
1.65616
1.65999
1.66235
1.66353
1.66419
1.66465
1.66491
1.66579
1.6679
1.67105
1.67454
1.67622
1.67685
1.67739
1.67815
1.67925
1.6803
1.68124
1.68195
1.68251
1.68315
1.68422
1.68673
1.69052
1.69285
1.69346
1.69377
1.69353
1.69281
1.69283
1.6933
1.69387
1.69472
1.69603
1.69732
1.69808
1.69829
1.69836
1.69826
1.69807
1.69821
1.69858
1.69928
1.70001
1.70028
1.70024
1.69979
1.69895
1.69844
1.69842
1.69847
1.69882
1.69969
1.70096
1.70168
1.70173
1.70159
1.7013
1.70053
1.69929
1.69822
1.6978
1.69774
1.69766
1.69777
1.69832
1.69876
1.69876