/*--------------------------------*- C++ -*----------------------------------*\
  =========                 |
  \\      /  F ield         | OpenFOAM: The Open Source CFD Toolbox
   \\    /   O peration     | Website:  https://openfoam.org
    \\  /    A nd           | Version:  7
     \\/     M anipulation  |
\*---------------------------------------------------------------------------*/
FoamFile
{
    version     2.0;
    format      ascii;
    class       volScalarField;
    location    "1.3";
    object      rho;
}
// * * * * * * * * * * * * * * * * * * * * * * * * * * * * * * * * * * * * * //

dimensions      [1 -3 0 0 0 0 0];

internalField   nonuniform List<scalar> 
4128
(
2.8341
2.82348
2.81123
2.79807
2.78536
2.77109
2.75081
2.71892
2.67445
2.64381
2.63501
2.62729
2.61893
2.60938
2.59888
2.58714
2.57293
2.55397
2.52722
2.49237
2.47322
2.46775
2.46225
2.45694
2.44905
2.43961
2.42894
2.41354
2.38575
2.35293
2.3291
2.3175
2.30725
2.29688
2.28893
2.28273
2.27706
2.27061
2.26068
2.2417
2.20914
2.1687
2.14488
2.13952
2.1335
2.12547
2.11955
2.1152
2.10975
2.10276
2.09501
2.08694
2.07538
2.0512
2.0177
2.00014
1.99317
1.98657
1.9784
1.97031
1.96339
1.95749
1.951
1.94195
1.92672
1.90357
1.88253
1.87016
1.862
1.8537
1.8446
1.83754
1.83139
1.82427
1.8138
1.79866
1.78617
1.77892
1.77201
1.76437
1.75568
1.74588
1.73609
1.72764
1.7196
1.71005
1.69667
1.67867
1.6678
1.66391
1.6619
1.66059
1.65704
1.65231
1.64751
1.64137
1.63514
1.62976
1.62289
1.6112
1.59198
1.57333
1.56654
1.56181
1.55579
1.54978
1.54364
1.53647
1.5271
1.51574
1.50506
1.49569
1.48848
1.48407
1.48157
1.48084
1.48102
1.48282
1.48415
1.48416
1.48146
1.47871
1.48648
1.5087
1.54005
1.57977
1.61683
1.65299
1.68131
2.85938
2.83921
2.82305
2.8131
2.80217
2.78848
2.77022
2.74066
2.69681
2.66461
2.65169
2.64316
2.63523
2.6268
2.61738
2.60736
2.59544
2.57769
2.54361
2.50228
2.48618
2.47986
2.47678
2.47579
2.4686
2.45817
2.4449
2.42442
2.38619
2.34823
2.33861
2.3345
2.32893
2.322
2.3141
2.30471
2.2933
2.2793
2.26371
2.24438
2.21518
2.17898
2.15263
2.13998
2.13473
2.13207
2.12961
2.12577
2.11984
2.11248
2.1041
2.09323
2.07897
2.06086
2.03722
2.01839
2.00792
1.99971
1.99154
1.9832
1.97595
1.96951
1.96186
1.95148
1.9379
1.92048
1.9032
1.8868
1.87318
1.86286
1.85297
1.84399
1.83616
1.82762
1.81665
1.80099
1.78951
1.78442
1.77922
1.77317
1.76599
1.75618
1.7439
1.73187
1.72056
1.70885
1.69632
1.68465
1.67585
1.66844
1.66198
1.6576
1.65446
1.65301
1.65085
1.64665
1.64035
1.63295
1.62403
1.61082
1.5965
1.58594
1.57513
1.56378
1.55416
1.54737
1.54346
1.53847
1.53042
1.52173
1.51409
1.5072
1.50027
1.49187
1.48382
1.48038
1.47906
1.4785
1.47667
1.47371
1.47051
1.46434
1.46265
1.468
1.48123
1.50567
1.5442
1.58529
1.63602
2.86021
2.84741
2.8391
2.83242
2.82432
2.8132
2.79558
2.76269
2.71634
2.68526
2.67233
2.66433
2.6578
2.64973
2.63906
2.62571
2.60889
2.58169
2.54529
2.5211
2.51124
2.50504
2.49971
2.4918
2.48273
2.47322
2.45944
2.43394
2.39485
2.36348
2.34875
2.33898
2.33266
2.3311
2.32708
2.31909
2.30874
2.29398
2.27261
2.24653
2.22241
2.20117
2.17865
2.15687
2.14446
2.13879
2.13474
2.13341
2.12901
2.12257
2.11526
2.10445
2.08834
2.06761
2.0458
2.03401
2.02587
2.01636
2.00447
1.99028
1.97461
1.96239
1.95283
1.93938
1.92832
1.92523
1.92033
1.91142
1.89945
1.88329
1.86281
1.84667
1.84077
1.83559
1.82457
1.81102
1.80344
1.79848
1.79305
1.78624
1.77696
1.76582
1.75416
1.74328
1.73116
1.71312
1.69464
1.68657
1.68263
1.67799
1.67109
1.66499
1.6623
1.65898
1.655
1.65208
1.64913
1.64369
1.63318
1.6174
1.60151
1.58901
1.57923
1.56956
1.55943
1.54999
1.54428
1.54077
1.53718
1.53229
1.52373
1.51291
1.50481
1.49909
1.49397
1.48929
1.48416
1.47879
1.47398
1.46943
1.46344
1.45791
1.45606
1.45707
1.46052
1.46593
1.48233
1.51077
1.56719
2.87265
2.86375
2.85581
2.84965
2.84177
2.83098
2.8136
2.77625
2.73401
2.71279
2.70057
2.68964
2.67893
2.66949
2.66086
2.64841
2.62279
2.58135
2.54921
2.54
2.53343
2.52797
2.52065
2.51064
2.49786
2.48072
2.45672
2.42637
2.40211
2.38718
2.37534
2.3627
2.34835
2.33602
2.32736
2.31938
2.30931
2.29941
2.28503
2.25794
2.22667
2.20762
2.19403
2.17787
2.16152
2.1515
2.1452
2.13909
2.13254
2.12563
2.11813
2.1108
2.10105
2.08548
2.06785
2.0537
2.04143
2.0292
2.01654
2.00259
1.98528
1.96574
1.95269
1.94103
1.93124
1.9267
1.92268
1.9184
1.91246
1.9024
1.88555
1.86229
1.83925
1.8266
1.81871
1.81084
1.80437
1.79851
1.79364
1.78964
1.78576
1.78056
1.77001
1.75003
1.72834
1.71275
1.69879
1.68982
1.68408
1.68025
1.6775
1.67571
1.67347
1.6703
1.66519
1.65894
1.65112
1.64133
1.63063
1.61956
1.60705
1.59451
1.58341
1.57555
1.5692
1.55956
1.54843
1.54439
1.54277
1.53991
1.53507
1.52873
1.52036
1.50992
1.49888
1.48897
1.48124
1.47588
1.47074
1.4651
1.45999
1.4559
1.45433
1.4545
1.45708
1.46052
1.46505
1.47339
1.5073
2.89404
2.88664
2.88294
2.87675
2.86599
2.85012
2.82336
2.78463
2.75473
2.73978
2.72821
2.71661
2.70416
2.68982
2.67069
2.64278
2.60839
2.57843
2.56869
2.56183
2.55489
2.54678
2.53667
2.52478
2.51066
2.49204
2.46606
2.43303
2.40757
2.39566
2.38686
2.37768
2.36462
2.34661
2.33384
2.32805
2.32379
2.31335
2.29743
2.27371
2.24754
2.22634
2.2074
2.18747
2.16791
2.15686
2.15016
2.14442
2.13965
2.13484
2.12822
2.11617
2.09621
2.07697
2.07131
2.06643
2.05938
2.04973
2.03652
2.01808
1.99179
1.96033
1.94443
1.94035
1.93888
1.93602
1.93158
1.92486
1.91751
1.91057
1.9008
1.87925
1.8435
1.82177
1.81718
1.81502
1.81212
1.80791
1.80256
1.7969
1.79157
1.78592
1.77715
1.75723
1.72712
1.71098
1.70513
1.70078
1.69732
1.69311
1.68635
1.67888
1.67536
1.67476
1.67435
1.66837
1.65902
1.64682
1.63175
1.6197
1.61212
1.60542
1.598
1.58843
1.57376
1.55487
1.54357
1.54033
1.53807
1.53619
1.53623
1.53458
1.53015
1.52205
1.50928
1.49475
1.48371
1.47728
1.47234
1.46523
1.45832
1.4566
1.45676
1.45785
1.4591
1.46038
1.46395
1.46609
1.47359
2.92738
2.90626
2.88525
2.86584
2.85326
2.83967
2.81857
2.80052
2.78811
2.77438
2.75831
2.7413
2.72284
2.70257
2.67857
2.64329
2.60106
2.58681
2.5818
2.57764
2.5715
2.56372
2.55463
2.54235
2.52488
2.50194
2.47312
2.44762
2.43329
2.42199
2.4072
2.38892
2.37368
2.36412
2.356
2.34096
2.31819
2.29869
2.28333
2.27263
2.26325
2.24921
2.22855
2.20595
2.18691
2.17148
2.15884
2.14823
2.13956
2.13353
2.12795
2.11947
2.10279
2.08464
2.07527
2.06952
2.0647
2.05924
2.05087
2.03376
2.0013
1.96408
1.94657
1.94116
1.93751
1.93496
1.93544
1.9335
1.92882
1.92309
1.91303
1.89042
1.85345
1.8277
1.81936
1.81514
1.81164
1.81041
1.81014
1.80624
1.80174
1.79698
1.78888
1.76707
1.73168
1.71362
1.70886
1.70573
1.70323
1.69895
1.693
1.68748
1.68278
1.67714
1.67078
1.66299
1.65193
1.63992
1.63024
1.621
1.61354
1.6082
1.60381
1.59726
1.58107
1.55544
1.54464
1.54258
1.54128
1.54143
1.54089
1.53747
1.53316
1.52816
1.52074
1.50902
1.49222
1.47858
1.47587
1.47308
1.46781
1.4634
1.46248
1.46315
1.46492
1.46658
1.46789
1.46717
1.46402
2.95894
2.93125
2.90188
2.87289
2.85117
2.84315
2.83513
2.8241
2.81057
2.79718
2.78531
2.77185
2.75375
2.72627
2.68576
2.64284
2.61407
2.60193
2.59471
2.58671
2.57695
2.56678
2.55882
2.55225
2.54275
2.51668
2.47461
2.45389
2.44697
2.43938
2.42939
2.41691
2.40195
2.38173
2.35522
2.33027
2.31082
2.29439
2.28389
2.27779
2.27169
2.26296
2.24657
2.21949
2.19857
2.18651
2.17519
2.16262
2.15015
2.13894
2.12823
2.11755
2.10634
2.09554
2.08757
2.08218
2.0768
2.06954
2.05828
2.04007
2.01147
1.97869
1.95717
1.949
1.94476
1.94264
1.94242
1.93922
1.93458
1.92893
1.91964
1.8995
1.86705
1.83917
1.82757
1.82298
1.81986
1.81739
1.81419
1.80963
1.80465
1.79893
1.79013
1.77085
1.74056
1.7246
1.71944
1.71561
1.71148
1.7056
1.69785
1.69021
1.68348
1.67572
1.66689
1.66097
1.65193
1.63877
1.63151
1.62847
1.62546
1.62138
1.61505
1.60484
1.58587
1.56433
1.55838
1.5567
1.55553
1.55439
1.55173
1.5478
1.54232
1.53537
1.52763
1.51803
1.50584
1.49175
1.47963
1.47327
1.47031
1.46795
1.4651
1.46342
1.46307
1.46416
1.46764
1.46833
1.46206
2.98962
2.96703
2.94068
2.90972
2.8777
2.84581
2.82307
2.81019
2.80094
2.79517
2.79312
2.78523
2.77307
2.75358
2.71194
2.65474
2.62615
2.61563
2.60795
2.60199
2.59506
2.58553
2.5719
2.55619
2.53792
2.51479
2.48726
2.47104
2.46136
2.45285
2.44471
2.4357
2.42323
2.39931
2.35749
2.3225
2.3054
2.29726
2.29157
2.287
2.28256
2.27672
2.26342
2.23762
2.21318
2.19921
2.18909
2.17955
2.16881
2.15478
2.13894
2.12356
2.10998
2.09929
2.09185
2.08562
2.07918
2.07235
2.06503
2.05176
2.02152
1.98761
1.97336
1.96826
1.96458
1.96082
1.95675
1.95133
1.9452
1.93858
1.92922
1.91016
1.88058
1.8513
1.83642
1.82991
1.82599
1.82382
1.82286
1.82023
1.81513
1.80829
1.79807
1.77737
1.74836
1.73172
1.72606
1.72179
1.71786
1.71321
1.70639
1.69819
1.69065
1.68178
1.66673
1.65435
1.65054
1.64646
1.64275
1.64012
1.63657
1.63189
1.62554
1.61662
1.60072
1.57384
1.55631
1.55296
1.5512
1.54935
1.54724
1.54458
1.54092
1.53604
1.5298
1.52144
1.50692
1.4885
1.4764
1.47227
1.4709
1.4703
1.46978
1.46883
1.46893
1.47008
1.47056
1.46939
1.45934
3.01883
3.00545
2.98459
2.94424
2.88416
2.83866
2.82139
2.81296
2.8063
2.80573
2.80457
2.79549
2.78348
2.76826
2.73803
2.68997
2.65564
2.63725
2.62399
2.61291
2.60445
2.59848
2.59141
2.5733
2.53744
2.50391
2.49395
2.48747
2.48073
2.4742
2.46525
2.45245
2.43195
2.39794
2.35589
2.32597
2.31577
2.30969
2.30303
2.29522
2.28656
2.27618
2.26406
2.25255
2.24092
2.2277
2.21088
2.1908
2.17013
2.14992
2.12886
2.11309
2.10707
2.10353
2.0988
2.09349
2.08775
2.07998
2.06986
2.05704
2.0378
2.01052
1.98722
1.97347
1.96379
1.95594
1.94865
1.94139
1.93392
1.92565
1.917
1.90841
1.8941
1.87384
1.85752
1.84512
1.83548
1.82813
1.82198
1.81624
1.81008
1.80279
1.79368
1.78088
1.76323
1.74865
1.73892
1.72964
1.72155
1.71687
1.71352
1.70976
1.70387
1.69209
1.67142
1.65275
1.64535
1.6428
1.64165
1.64054
1.63718
1.63268
1.62731
1.62091
1.60981
1.58489
1.55999
1.5535
1.55113
1.54903
1.54749
1.54689
1.54502
1.54118
1.5354
1.52576
1.50794
1.48651
1.47775
1.47575
1.47432
1.47293
1.47205
1.47335
1.47641
1.47732
1.47692
1.47507
1.46195
3.04125
3.0302
3.01312
2.96962
2.8936
2.84756
2.83321
2.82422
2.81696
2.81154
2.80686
2.80394
2.79821
2.78475
2.75371
2.71203
2.68436
2.66687
2.65134
2.63621
2.62143
2.60613
2.58688
2.55867
2.52763
2.50606
2.49784
2.49247
2.48974
2.4845
2.47541
2.46277
2.43888
2.39817
2.36334
2.35074
2.34213
2.33256
2.32331
2.31367
2.30135
2.28392
2.26704
2.25967
2.25396
2.24517
2.23051
2.20776
2.17968
2.152
2.12871
2.11568
2.10762
2.10041
2.0947
2.08981
2.08681
2.08308
2.07758
2.06863
2.05192
2.02615
2.00217
1.98466
1.97113
1.95982
1.95006
1.94163
1.93417
1.92548
1.91244
1.89803
1.88661
1.87945
1.87147
1.86152
1.8502
1.84005
1.83209
1.82439
1.81693
1.80771
1.7929
1.77186
1.75569
1.75147
1.74809
1.74309
1.73698
1.73015
1.72185
1.71158
1.69992
1.68417
1.66202
1.64776
1.64445
1.64262
1.6414
1.64102
1.64093
1.63908
1.636
1.63119
1.62069
1.59742
1.56897
1.55605
1.55241
1.55014
1.54871
1.54906
1.54826
1.54526
1.54077
1.5313
1.51119
1.49241
1.488
1.48659
1.48512
1.48394
1.48385
1.48518
1.48534
1.48496
1.48437
1.4813
1.4674
3.04894
3.03738
3.02229
2.98528
2.92187
2.87934
2.85885
2.84505
2.83597
2.82574
2.81331
2.80017
2.78402
2.76422
2.74293
2.72386
2.71021
2.69756
2.68371
2.66704
2.64508
2.61529
2.5803
2.54839
2.52677
2.51748
2.50885
2.50264
2.49874
2.4938
2.48606
2.47303
2.44836
2.41495
2.38961
2.36964
2.34932
2.32879
2.31363
2.30359
2.29338
2.28097
2.2699
2.26312
2.25679
2.24972
2.24071
2.22492
2.19583
2.15957
2.13482
2.12281
2.11432
2.10714
2.10108
2.09557
2.08956
2.08259
2.074
2.06115
2.04504
2.02872
2.01232
1.99873
1.98715
1.97632
1.96584
1.95435
1.9414
1.92782
1.91104
1.89624
1.88961
1.88566
1.88141
1.87591
1.86583
1.84923
1.83221
1.81881
1.80769
1.79682
1.78563
1.77182
1.76237
1.7562
1.75106
1.7485
1.74714
1.74399
1.73634
1.72186
1.70265
1.68203
1.66202
1.65219
1.64834
1.64599
1.644
1.64243
1.64025
1.63702
1.6333
1.62872
1.62109
1.60515
1.57927
1.56117
1.55586
1.55365
1.55221
1.55079
1.54832
1.54519
1.54119
1.53438
1.52027
1.49853
1.48571
1.48258
1.48108
1.47982
1.47927
1.47984
1.48052
1.48254
1.48474
1.48424
1.47455
3.067
3.05215
3.0288
2.98881
2.94083
2.91284
2.89635
2.87956
2.86062
2.84061
2.82002
2.79941
2.77767
2.75424
2.74071
2.73403
2.72784
2.71919
2.70816
2.69201
2.66512
2.6206
2.56877
2.54407
2.5374
2.53072
2.52229
2.51251
2.50281
2.49397
2.48362
2.46953
2.45269
2.43536
2.41659
2.39453
2.36711
2.33745
2.31589
2.30378
2.29682
2.2908
2.28447
2.27768
2.27096
2.26394
2.2551
2.23964
2.21162
2.17475
2.15266
2.143
2.13508
2.12646
2.11784
2.10958
2.10107
2.09206
2.08152
2.06732
2.04758
2.03299
2.02566
2.01778
2.00549
1.98793
1.96937
1.95311
1.93721
1.92384
1.91783
1.91346
1.90988
1.90524
1.89932
1.89168
1.88022
1.86219
1.83937
1.82087
1.80688
1.7917
1.77922
1.77501
1.77262
1.76995
1.76773
1.76393
1.75718
1.74806
1.73603
1.71783
1.69392
1.67778
1.67119
1.66596
1.66039
1.65642
1.65361
1.65075
1.64755
1.6442
1.64047
1.63589
1.62887
1.61454
1.59132
1.56835
1.55905
1.55615
1.55511
1.55641
1.5557
1.55277
1.54932
1.54386
1.53104
1.507
1.48984
1.48487
1.4825
1.48099
1.4804
1.48159
1.48401
1.48443
1.48561
1.48896
1.48334
3.05827
3.03089
2.9988
2.96676
2.94865
2.93947
2.92865
2.91238
2.88737
2.85627
2.82578
2.79605
2.76983
2.75661
2.74972
2.7417
2.73305
2.72348
2.71288
2.70037
2.67632
2.62759
2.57671
2.55369
2.54319
2.53581
2.52829
2.51865
2.50697
2.49633
2.48578
2.47376
2.4599
2.44274
2.42548
2.40851
2.38778
2.36075
2.33231
2.3068
2.2876
2.27801
2.27115
2.26434
2.25789
2.25175
2.24503
2.23832
2.22804
2.20424
2.16888
2.14515
2.13252
2.12228
2.11209
2.10241
2.09344
2.0845
2.07566
2.06877
2.06099
2.0515
2.04269
2.03353
2.02141
2.00397
1.97945
1.95582
1.94013
1.9264
1.91375
1.90838
1.90414
1.89902
1.89304
1.88621
1.88002
1.87268
1.85806
1.83211
1.80477
1.78863
1.78354
1.78122
1.77968
1.77876
1.77594
1.77106
1.76412
1.75444
1.74036
1.71786
1.69297
1.67931
1.67264
1.66647
1.6591
1.6514
1.64714
1.6443
1.64118
1.63785
1.63412
1.62943
1.62369
1.6162
1.60092
1.58334
1.57225
1.56327
1.55636
1.55215
1.54856
1.54438
1.53998
1.53437
1.52483
1.51034
1.49913
1.49472
1.49289
1.49185
1.49112
1.49195
1.49185
1.49073
1.48914
1.48651
1.47901
3.06799
3.03356
2.99343
2.96872
2.95981
2.95269
2.94385
2.93121
2.90939
2.8762
2.83752
2.79788
2.77329
2.76407
2.75612
2.7511
2.74882
2.74064
2.7301
2.71428
2.68369
2.63633
2.59583
2.57293
2.55572
2.54281
2.53497
2.52922
2.52244
2.51245
2.49997
2.48392
2.46624
2.44975
2.43549
2.4226
2.40666
2.38158
2.34534
2.30953
2.28825
2.27762
2.26988
2.2632
2.25684
2.25123
2.24571
2.23957
2.23178
2.21788
2.18913
2.15701
2.13903
2.12709
2.11571
2.10482
2.09532
2.08625
2.07696
2.06603
2.05378
2.04458
2.03617
2.02783
2.02106
2.01324
1.99765
1.96995
1.94394
1.92592
1.91497
1.91006
1.90549
1.90064
1.8963
1.89219
1.88756
1.88011
1.86269
1.82827
1.79921
1.79202
1.78943
1.78828
1.79046
1.7899
1.78651
1.78154
1.77245
1.75717
1.73509
1.70957
1.69083
1.68285
1.67788
1.67174
1.66347
1.65407
1.64761
1.64399
1.64131
1.63883
1.63563
1.63038
1.62019
1.60594
1.59508
1.58995
1.58403
1.57453
1.56364
1.55543
1.54905
1.54316
1.53729
1.53057
1.52219
1.51586
1.51135
1.50568
1.49911
1.49258
1.48686
1.48447
1.48395
1.4843
1.48528
1.48429
1.47976
3.07948
3.02449
2.99511
2.98409
2.97335
2.96268
2.95171
2.94002
2.92488
2.89577
2.84432
2.80102
2.7853
2.77622
2.76752
2.75906
2.75007
2.73941
2.72681
2.71068
2.68337
2.64051
2.60989
2.59517
2.58228
2.56717
2.55068
2.53488
2.51959
2.50191
2.48144
2.46475
2.45387
2.44757
2.44429
2.43859
2.42798
2.40199
2.35159
2.30959
2.29574
2.2889
2.28303
2.27696
2.27065
2.26411
2.25819
2.25208
2.24321
2.22755
2.20377
2.17759
2.15608
2.1408
2.13064
2.12173
2.1115
2.1002
2.08396
2.06295
2.05014
2.04476
2.0402
2.03496
2.02832
2.01959
2.00576
1.97638
1.94178
1.93072
1.92615
1.92163
1.9182
1.91641
1.91336
1.90832
1.90166
1.89132
1.8692
1.82989
1.80547
1.80115
1.79818
1.79574
1.79462
1.79342
1.78993
1.78574
1.78009
1.7657
1.73549
1.70117
1.69004
1.68759
1.68435
1.67926
1.6726
1.66455
1.65592
1.649
1.64445
1.64104
1.63734
1.63114
1.61935
1.6051
1.59894
1.59597
1.59155
1.58339
1.56803
1.55317
1.54735
1.54233
1.53621
1.52919
1.52347
1.52125
1.51999
1.51647
1.50925
1.4992
1.48986
1.48442
1.48278
1.48273
1.4852
1.48855
1.48817
3.07806
3.02191
3.00511
2.99529
2.98575
2.97749
2.96792
2.95655
2.942
2.91299
2.86012
2.81729
2.79849
2.78578
2.77464
2.76466
2.75638
2.74871
2.73805
2.72006
2.69306
2.6606
2.63572
2.6185
2.60477
2.59134
2.57567
2.55461
2.53
2.50483
2.47984
2.46591
2.45948
2.45467
2.44953
2.44156
2.4308
2.41058
2.37065
2.33158
2.30889
2.29234
2.27708
2.26713
2.26011
2.2523
2.2437
2.23366
2.22054
2.20727
2.19953
2.19271
2.18181
2.16564
2.14434
2.12291
2.10517
2.08738
2.06939
2.05613
2.05051
2.04694
2.04527
2.0425
2.03793
2.03209
2.01895
1.98848
1.95144
1.93175
1.92251
1.9168
1.91291
1.91007
1.90589
1.90067
1.89416
1.88494
1.86785
1.83576
1.81496
1.80955
1.8061
1.80331
1.8021
1.80028
1.79634
1.79068
1.77972
1.75895
1.72933
1.70245
1.695
1.69194
1.68862
1.68476
1.67956
1.67085
1.6587
1.65003
1.6455
1.64181
1.63692
1.63056
1.62522
1.62091
1.61656
1.61125
1.6045
1.594
1.57471
1.55445
1.54681
1.54483
1.54182
1.538
1.53414
1.52889
1.52228
1.51775
1.51381
1.50775
1.49866
1.49014
1.48562
1.48355
1.48238
1.48251
1.48245
3.07863
3.03343
3.01677
3.00459
2.99513
2.98962
2.98214
2.97119
2.95316
2.92334
2.87766
2.83866
2.81716
2.8023
2.7883
2.77297
2.75753
2.74422
2.72913
2.70435
2.6788
2.66869
2.66015
2.64971
2.63587
2.61648
2.58773
2.55028
2.51666
2.50024
2.49372
2.48749
2.47992
2.47194
2.46338
2.45355
2.43884
2.41491
2.38596
2.35888
2.33433
2.30893
2.28523
2.26859
2.26112
2.25599
2.24685
2.23198
2.2149
2.20521
2.19951
2.19478
2.19026
2.18207
2.16397
2.13503
2.10784
2.08574
2.06791
2.06102
2.0569
2.05373
2.04936
2.04374
2.03786
2.03005
2.01718
1.99484
1.9629
1.93928
1.92782
1.92084
1.91551
1.91052
1.90553
1.90043
1.89413
1.88498
1.87165
1.85389
1.83149
1.81561
1.80918
1.80532
1.80265
1.80075
1.79726
1.79228
1.78133
1.75545
1.72312
1.70942
1.70455
1.70079
1.69815
1.69541
1.69068
1.68045
1.66407
1.65512
1.65215
1.64907
1.6445
1.63728
1.62733
1.61847
1.61251
1.60624
1.59871
1.59024
1.58068
1.56767
1.5528
1.54071
1.53352
1.5295
1.52677
1.52447
1.52176
1.51862
1.51526
1.51143
1.50639
1.49897
1.49045
1.48398
1.48134
1.48169
1.4829
3.08446
3.05923
3.04223
3.02597
3.01105
2.99746
2.98516
2.97692
2.96311
2.93293
2.89528
2.86641
2.84307
2.81903
2.79786
2.78278
2.77034
2.75432
2.73299
2.70551
2.68635
2.67838
2.6707
2.66259
2.65111
2.63369
2.60084
2.55418
2.5209
2.5051
2.49225
2.48106
2.4716
2.46223
2.4513
2.43686
2.42069
2.40295
2.38712
2.37598
2.36324
2.34453
2.31772
2.28914
2.26629
2.24925
2.23574
2.22241
2.21497
2.21018
2.20835
2.2042
2.19705
2.18943
2.17846
2.15166
2.10752
2.08685
2.08219
2.07767
2.07302
2.06772
2.06139
2.05494
2.04775
2.03768
2.02138
1.99416
1.96494
1.94981
1.94315
1.9376
1.93059
1.92263
1.91652
1.91106
1.90462
1.89573
1.88357
1.86756
1.84734
1.82933
1.81811
1.81163
1.80734
1.80405
1.80028
1.79539
1.78351
1.75367
1.72478
1.71648
1.71143
1.70815
1.70634
1.70402
1.70039
1.69334
1.6804
1.66202
1.64635
1.63919
1.63538
1.63221
1.62784
1.62118
1.61453
1.6081
1.6012
1.59516
1.58931
1.57936
1.56123
1.54326
1.53363
1.52751
1.52447
1.5239
1.52551
1.52416
1.52183
1.52013
1.51657
1.50789
1.49529
1.48506
1.48208
1.48273
1.48515
3.09903
3.08531
3.06912
3.05058
3.03138
3.01604
3.0045
2.97983
2.94231
2.90847
2.89336
2.88346
2.86975
2.84973
2.82397
2.79475
2.76429
2.73442
2.71406
2.70486
2.69971
2.69392
2.68688
2.67713
2.66412
2.64561
2.61011
2.55924
2.52802
2.51262
2.49932
2.4862
2.4745
2.4651
2.45467
2.43797
2.416
2.40424
2.39842
2.39188
2.38353
2.37072
2.34865
2.3133
2.27079
2.24083
2.22794
2.22231
2.21958
2.22327
2.22966
2.22413
2.21564
2.20773
2.19509
2.16523
2.11738
2.08697
2.07671
2.07089
2.06558
2.05987
2.05391
2.04768
2.04069
2.0317
2.01798
1.99888
1.97985
1.9667
1.95624
1.94428
1.93021
1.91747
1.90787
1.9008
1.89384
1.8849
1.87252
1.85834
1.84753
1.83897
1.83157
1.8258
1.82043
1.81471
1.8086
1.79713
1.77907
1.75667
1.7403
1.73041
1.72156
1.71385
1.70892
1.70478
1.70034
1.6953
1.68751
1.6712
1.65058
1.63887
1.63311
1.62938
1.62628
1.62313
1.61938
1.6155
1.61194
1.60816
1.60203
1.58938
1.5645
1.54189
1.53386
1.5287
1.52473
1.52252
1.5214
1.52111
1.5218
1.52229
1.52075
1.517
1.50647
1.49349
1.49079
1.49191
1.49573
3.11438
3.1055
3.09391
3.08004
3.06185
3.03345
2.99541
2.96086
2.92994
2.90848
2.89832
2.88939
2.88034
2.86897
2.85056
2.81786
2.76981
2.73046
2.71379
2.70587
2.69901
2.69517
2.69409
2.68814
2.67913
2.66376
2.6308
2.57733
2.53506
2.51753
2.50827
2.50058
2.4923
2.48173
2.46782
2.44781
2.42559
2.41091
2.40229
2.3943
2.38631
2.37771
2.3638
2.33077
2.27503
2.24009
2.23129
2.22664
2.22249
2.22041
2.22028
2.21449
2.20691
2.19931
2.19032
2.17295
2.13356
2.09492
2.08008
2.07242
2.06593
2.0602
2.05462
2.04872
2.04218
2.03387
2.01896
1.99761
1.98313
1.97512
1.96704
1.95507
1.93765
1.92126
1.90976
1.90106
1.89336
1.88401
1.87179
1.86072
1.8547
1.84975
1.84361
1.8346
1.82191
1.80828
1.79549
1.78176
1.76564
1.75392
1.74698
1.73856
1.72915
1.72141
1.71652
1.71279
1.70885
1.70365
1.69379
1.67446
1.65144
1.63922
1.63424
1.63079
1.62745
1.62379
1.62006
1.61691
1.61392
1.60973
1.60251
1.58949
1.56591
1.54419
1.53647
1.53017
1.52584
1.52372
1.52291
1.52366
1.52754
1.52794
1.52572
1.51928
1.50464
1.48832
1.48479
1.48567
1.48962
3.12161
3.12622
3.12191
3.11106
3.09216
3.04889
2.98389
2.94197
2.92665
2.91878
2.91016
2.90242
2.8941
2.88331
2.86408
2.81978
2.75926
2.73105
2.72264
2.7155
2.70925
2.70463
2.69841
2.68944
2.67763
2.65869
2.62821
2.59038
2.55922
2.53947
2.52294
2.50631
2.48935
2.47121
2.45034
2.43209
2.42111
2.41492
2.4094
2.40335
2.39533
2.3855
2.37191
2.34267
2.29002
2.25344
2.2409
2.23339
2.22733
2.223
2.21921
2.21398
2.20787
2.20028
2.18887
2.17066
2.14473
2.11405
2.09086
2.07815
2.07054
2.06459
2.05886
2.05274
2.04543
2.03548
2.02255
2.00868
1.99843
1.99002
1.98092
1.96903
1.95011
1.92766
1.91577
1.90891
1.90135
1.89275
1.88563
1.88088
1.87559
1.86842
1.85845
1.84449
1.82705
1.81061
1.79063
1.77255
1.76217
1.75638
1.75034
1.74042
1.73187
1.72817
1.72678
1.72553
1.72228
1.71526
1.70162
1.67876
1.65616
1.647
1.64232
1.63775
1.63401
1.63086
1.62781
1.62509
1.62218
1.61797
1.61057
1.59438
1.56691
1.55187
1.54658
1.54041
1.53631
1.53465
1.53427
1.5365
1.53881
1.53724
1.53367
1.52626
1.50937
1.49051
1.48594
1.48659
1.49014
3.13672
3.13174
3.1208
3.10558
3.0831
3.03791
2.97919
2.94663
2.93535
2.92751
2.92589
2.92536
2.91601
2.90318
2.87914
2.82448
2.76117
2.73988
2.73199
2.72741
2.7271
2.7215
2.71273
2.70325
2.69024
2.66679
2.63186
2.59981
2.57979
2.56232
2.54315
2.52403
2.50285
2.475
2.44622
2.42863
2.42114
2.41583
2.41348
2.41301
2.40722
2.39851
2.38432
2.35653
2.31095
2.27405
2.2593
2.25175
2.24496
2.23793
2.23179
2.22602
2.21933
2.20995
2.19621
2.17825
2.15761
2.13385
2.11156
2.09281
2.07951
2.07092
2.06451
2.05809
2.0495
2.03688
2.02031
2.00417
1.99289
1.98346
1.97395
1.96344
1.95192
1.9381
1.92039
1.90368
1.89343
1.8862
1.88135
1.8769
1.87177
1.8661
1.85992
1.85115
1.83564
1.80921
1.7858
1.77045
1.76305
1.75812
1.75377
1.74972
1.7457
1.74014
1.73397
1.72834
1.72199
1.71377
1.7018
1.6836
1.66115
1.64346
1.63454
1.62954
1.62615
1.62322
1.62027
1.61726
1.6141
1.6102
1.60423
1.59256
1.57068
1.55156
1.54426
1.53769
1.53153
1.52936
1.52875
1.53002
1.53178
1.53017
1.5273
1.52341
1.51489
1.50108
1.49514
1.4953
1.49824
3.14965
3.14225
3.13321
3.11501
3.08122
3.02887
2.98441
2.96877
2.95772
2.94676
2.93418
2.91822
2.90064
2.88485
2.85991
2.82095
2.78439
2.76418
2.75023
2.73864
2.72625
2.71217
2.70021
2.6889
2.67337
2.65463
2.63477
2.62108
2.60789
2.58988
2.56297
2.52439
2.48597
2.46019
2.44429
2.43581
2.42881
2.42303
2.41852
2.41211
2.40369
2.39254
2.37716
2.35692
2.33424
2.30735
2.27903
2.25755
2.24269
2.23156
2.22149
2.21206
2.20343
2.19425
2.18122
2.16241
2.14517
2.1357
2.12574
2.11076
2.09476
2.08522
2.07874
2.0714
2.06026
2.04277
2.02237
2.00615
1.99428
1.98408
1.97518
1.96818
1.96088
1.94753
1.92561
1.90556
1.89469
1.88913
1.88461
1.87987
1.87513
1.8705
1.86499
1.85519
1.83428
1.80021
1.77837
1.77388
1.77111
1.76529
1.75828
1.75456
1.75265
1.75082
1.74651
1.73941
1.73073
1.72081
1.70887
1.6923
1.66911
1.64719
1.63573
1.63017
1.62667
1.62366
1.62066
1.61767
1.61439
1.61042
1.60471
1.59381
1.57305
1.55476
1.54787
1.54142
1.53353
1.53038
1.52967
1.53026
1.53168
1.53057
1.5285
1.52618
1.52065
1.50645
1.49262
1.49026
1.49239
3.17063
3.13083
3.10465
3.08408
3.05608
3.02143
3.00766
2.99683
2.98213
2.96412
2.94408
2.92636
2.90898
2.88189
2.85049
2.81921
2.80185
2.7879
2.77167
2.7536
2.73781
2.72484
2.70857
2.68904
2.66658
2.65081
2.64384
2.63704
2.62686
2.61226
2.58519
2.53424
2.47683
2.45285
2.44676
2.44386
2.44344
2.43956
2.43233
2.42461
2.41609
2.40455
2.38905
2.37298
2.35599
2.33218
2.30468
2.27493
2.252
2.23702
2.22455
2.21247
2.20171
2.19111
2.1788
2.16262
2.14841
2.1399
2.13292
2.12527
2.11297
2.09181
2.07018
2.05817
2.0474
2.03078
2.01352
2.00522
1.99914
1.99119
1.98223
1.97496
1.96673
1.95402
1.93642
1.92027
1.90966
1.90352
1.89821
1.89302
1.8879
1.88237
1.87509
1.86261
1.83731
1.8024
1.78333
1.77717
1.77238
1.76835
1.76593
1.76285
1.75838
1.75202
1.74335
1.73296
1.72206
1.71069
1.69704
1.68113
1.66443
1.65122
1.64458
1.64054
1.63615
1.63241
1.62914
1.62597
1.62233
1.61754
1.61089
1.60021
1.58009
1.56021
1.55253
1.54764
1.54238
1.53939
1.53808
1.53783
1.53918
1.53909
1.53782
1.5362
1.53114
1.51526
1.49661
1.49187
1.49311
3.20677
3.14043
3.08246
3.05209
3.03675
3.03006
3.02689
3.01847
3.0073
2.99224
2.97123
2.94166
2.89877
2.85569
2.83355
2.82523
2.81809
2.80889
2.79616
2.77781
2.75006
2.71278
2.68347
2.66754
2.65922
2.65695
2.65929
2.65338
2.64278
2.62813
2.59806
2.53676
2.4777
2.46068
2.45506
2.45
2.44413
2.43605
2.42637
2.41678
2.40696
2.39473
2.37736
2.35648
2.34097
2.3329
2.32002
2.29832
2.27148
2.25085
2.23895
2.22607
2.20541
2.18232
2.16769
2.16014
2.15519
2.15071
2.14618
2.13969
2.12772
2.10417
2.07468
2.05313
2.04061
2.02879
2.01612
2.00828
2.00404
2.00185
1.9987
1.9916
1.98203
1.96745
1.94465
1.91964
1.90433
1.89614
1.88995
1.88423
1.87842
1.87207
1.8643
1.8531
1.83371
1.80644
1.79052
1.78482
1.78088
1.77717
1.77316
1.76781
1.7615
1.75447
1.74592
1.73411
1.72105
1.70851
1.69458
1.67877
1.66591
1.65902
1.65194
1.64169
1.63228
1.62602
1.62152
1.61748
1.61312
1.60745
1.59891
1.58615
1.5752
1.56795
1.56207
1.55576
1.54637
1.53569
1.532
1.53085
1.53069
1.53087
1.52965
1.5274
1.52294
1.51459
1.50397
1.50025
1.5021
3.22538
3.14008
3.07291
3.04852
3.03762
3.02914
3.02708
3.03339
3.02857
3.01862
3.00238
2.95905
2.89223
2.84985
2.83608
2.82805
2.82164
2.81821
2.81009
2.79664
2.76719
2.71455
2.67589
2.66448
2.6579
2.65419
2.65675
2.65314
2.64318
2.63065
2.605
2.54665
2.49045
2.47199
2.46365
2.45644
2.44963
2.44288
2.43405
2.42203
2.41004
2.39701
2.37982
2.35758
2.33975
2.3279
2.31923
2.31024
2.29519
2.26893
2.23679
2.21566
2.20044
2.18273
2.17252
2.16742
2.16277
2.15824
2.15268
2.14534
2.13406
2.11283
2.07919
2.04965
2.03405
2.02555
2.02046
2.01663
2.0124
2.00568
1.99528
1.98488
1.97483
1.96368
1.94718
1.9245
1.90703
1.89759
1.89088
1.88477
1.8786
1.87189
1.86372
1.85237
1.83703
1.81911
1.79889
1.78843
1.78496
1.78387
1.7825
1.77821
1.77277
1.76659
1.75835
1.74361
1.71944
1.70141
1.69317
1.68661
1.68046
1.67345
1.66324
1.64895
1.63657
1.62853
1.62271
1.61792
1.61333
1.60781
1.59901
1.58421
1.57208
1.56872
1.56605
1.56166
1.5528
1.53951
1.53256
1.5307
1.52977
1.52941
1.52885
1.52666
1.52154
1.51615
1.51328
1.50896
1.50195
3.23178
3.14412
3.07811
3.05812
3.04745
3.03983
3.04093
3.04729
3.03855
3.02429
3.00072
2.95065
2.88709
2.85807
2.84709
2.83866
2.83487
2.82975
2.82023
2.80676
2.77564
2.71537
2.67544
2.66629
2.66241
2.66306
2.66675
2.66132
2.65167
2.63962
2.61681
2.57189
2.52391
2.49184
2.473
2.46032
2.45136
2.44503
2.44083
2.43676
2.42674
2.40711
2.37587
2.34926
2.33795
2.33158
2.32611
2.31973
2.30932
2.28485
2.24313
2.20912
2.19791
2.19477
2.19142
2.18693
2.18172
2.17577
2.16933
2.16183
2.14933
2.12305
2.08345
2.05421
2.0402
2.03186
2.02648
2.02147
2.01551
2.00756
1.99758
1.98673
1.97583
1.96389
1.94991
1.93448
1.91951
1.9085
1.90097
1.89388
1.88652
1.87891
1.87087
1.86136
1.84883
1.83231
1.81383
1.80158
1.79391
1.78776
1.78147
1.7754
1.76973
1.76304
1.7533
1.73732
1.71459
1.69714
1.68761
1.6808
1.67445
1.66718
1.65909
1.65165
1.64471
1.63826
1.63109
1.62444
1.61893
1.61251
1.60016
1.58425
1.5777
1.57509
1.57107
1.56458
1.55553
1.54616
1.53947
1.53282
1.52719
1.52544
1.52488
1.52518
1.52565
1.52582
1.52497
1.51912
1.50767
3.21795
3.15759
3.10617
3.08257
3.0721
3.06871
3.06872
3.06484
3.0544
3.03868
3.0078
2.94845
2.89477
2.87725
2.86827
2.86292
2.85679
2.84883
2.83765
2.82029
2.78553
2.73739
2.69692
2.672
2.65679
2.64757
2.6408
2.63507
2.62667
2.61498
2.59924
2.57965
2.5484
2.51309
2.48795
2.47442
2.46507
2.45524
2.44207
2.42686
2.41051
2.39194
2.3706
2.35364
2.34408
2.33703
2.33111
2.32392
2.31173
2.28805
2.24979
2.21806
2.20295
2.19244
2.18513
2.17968
2.17432
2.16894
2.16217
2.15334
2.13756
2.10963
2.08032
2.06525
2.05778
2.05043
2.04208
2.03468
2.02727
2.0187
2.00801
1.99533
1.98271
1.97084
1.95741
1.9393
1.91748
1.90052
1.8923
1.88623
1.87956
1.87171
1.86153
1.84834
1.83386
1.82226
1.8161
1.80976
1.80183
1.79373
1.7875
1.7825
1.77688
1.76945
1.75723
1.73526
1.70935
1.69396
1.68664
1.68073
1.6746
1.66852
1.66301
1.65737
1.64967
1.63921
1.62799
1.61738
1.60804
1.60258
1.59992
1.59661
1.59327
1.58877
1.58257
1.57473
1.56585
1.55642
1.54503
1.53355
1.52697
1.52409
1.52158
1.51912
1.51832
1.51856
1.51907
1.52127
1.51766
3.19743
3.17042
3.15211
3.13131
3.10342
3.07263
3.04789
3.03475
3.02408
3.00964
2.98303
2.94392
2.92486
2.91059
2.88899
2.86042
2.83616
2.82627
2.81712
2.80479
2.78872
2.76131
2.72386
2.68843
2.66389
2.64902
2.64044
2.63274
2.62313
2.60967
2.59311
2.57494
2.55426
2.5301
2.5104
2.49958
2.49014
2.47603
2.45289
2.4225
2.39728
2.37903
2.36806
2.36173
2.35565
2.34995
2.34428
2.33649
2.32136
2.29426
2.26084
2.2343
2.21517
2.19971
2.18901
2.18336
2.18019
2.17604
2.16887
2.15603
2.13424
2.10709
2.08749
2.07597
2.06306
2.04781
2.03449
2.02414
2.01496
2.00529
1.99415
1.982
1.97065
1.96086
1.95198
1.94083
1.92292
1.90279
1.89178
1.88791
1.88467
1.87752
1.86432
1.84571
1.82995
1.82196
1.8175
1.81402
1.81008
1.80359
1.79219
1.77814
1.76789
1.75896
1.74606
1.72498
1.70365
1.69338
1.6874
1.68126
1.67508