/*--------------------------------*- C++ -*----------------------------------*\
  =========                 |
  \\      /  F ield         | OpenFOAM: The Open Source CFD Toolbox
   \\    /   O peration     | Website:  https://openfoam.org
    \\  /    A nd           | Version:  7
     \\/     M anipulation  |
\*---------------------------------------------------------------------------*/
FoamFile
{
    version     2.0;
    format      ascii;
    class       volVectorField;
    location    "3.1";
    object      U;
}
// * * * * * * * * * * * * * * * * * * * * * * * * * * * * * * * * * * * * * //

dimensions      [0 1 -1 0 0 0 0];

internalField   nonuniform List<vector> 
16512
(
(2.33343 -0.0166558 0)
(2.32815 -0.0175037 0)
(2.32 -0.0184059 0)
(2.31056 -0.0182757 0)
(2.30112 -0.0176031 0)
(2.29156 -0.0163263 0)
(2.28263 -0.0150459 0)
(2.27605 -0.0136389 0)
(2.27336 -0.0124071 0)
(2.2733 -0.0116814 0)
(2.27104 -0.0117585 0)
(2.26591 -0.0126033 0)
(2.25912 -0.0142889 0)
(2.25341 -0.0159222 0)
(2.25001 -0.0149627 0)
(2.24834 -0.0142556 0)
(2.24861 -0.0130418 0)
(2.25043 -0.0117354 0)
(2.24884 -0.0114102 0)
(2.24329 -0.0112083 0)
(2.23733 -0.0103013 0)
(2.23048 -0.00888398 0)
(2.22315 -0.00814528 0)
(2.21729 -0.00804541 0)
(2.2159 -0.00809565 0)
(2.22202 -0.00750051 0)
(2.23092 -0.00685177 0)
(2.23134 -0.00684777 0)
(2.22879 -0.0067286 0)
(2.22524 -0.00680976 0)
(2.22061 -0.00692629 0)
(2.21517 -0.00655402 0)
(2.2096 -0.00573723 0)
(2.20487 -0.00475499 0)
(2.20218 -0.00392049 0)
(2.2043 -0.00379836 0)
(2.20946 -0.00466646 0)
(2.20951 -0.00527142 0)
(2.20792 -0.00532808 0)
(2.20491 -0.0050939 0)
(2.20146 -0.00501188 0)
(2.20016 -0.00506002 0)
(2.19826 -0.00493458 0)
(2.19724 -0.00499833 0)
(2.19832 -0.00574516 0)
(2.20059 -0.00521885 0)
(2.20095 -0.00459119 0)
(2.20006 -0.00420326 0)
(2.19847 -0.00292207 0)
(2.19685 -0.00187692 0)
(2.19504 -0.0010279 0)
(2.19452 -0.000233725 0)
(2.19719 0.000152653 0)
(2.20132 -9.35683e-05 0)
(2.20161 -0.00064527 0)
(2.20014 -0.00120751 0)
(2.19856 -0.00190939 0)
(2.19761 -0.00269161 0)
(2.19751 -0.00326385 0)
(2.1982 -0.0037227 0)
(2.19915 -0.00421327 0)
(2.19942 -0.00433377 0)
(2.1995 -0.00415616 0)
(2.19913 -0.00377826 0)
(2.19804 -0.00314311 0)
(2.19532 -0.00177586 0)
(2.19223 -0.00028443 0)
(2.19113 5.81075e-05 0)
(2.19017 0.000104904 0)
(2.19094 -6.26553e-05 0)
(2.19473 -0.000451681 0)
(2.19918 -0.000823993 0)
(2.20206 -0.000903362 0)
(2.20238 -0.000806333 0)
(2.2015 -0.000716018 0)
(2.20054 -0.000467881 0)
(2.19918 -0.00010546 0)
(2.19776 0.00023563 0)
(2.19596 0.000314836 0)
(2.19418 -3.88635e-05 0)
(2.19408 -0.000482637 0)
(2.19458 -0.000799592 0)
(2.19558 -0.00128977 0)
(2.197 -0.00145021 0)
(2.19855 -0.0012514 0)
(2.19964 -0.000644613 0)
(2.1998 0.00032099 0)
(2.19955 0.00122032 0)
(2.19959 0.00178058 0)
(2.20043 0.00186959 0)
(2.20205 0.00142202 0)
(2.20354 0.000741713 0)
(2.20418 -3.321e-05 0)
(2.20427 -0.000688592 0)
(2.20371 -0.00153653 0)
(2.20195 -0.00211125 0)
(2.19986 -0.00211243 0)
(2.19934 -0.00166274 0)
(2.19979 -0.00139455 0)
(2.2005 -0.00103715 0)
(2.20272 -0.00054581 0)
(2.20691 -0.000182137 0)
(2.21003 2.31123e-05 0)
(2.21086 0.000128016 0)
(2.21146 0.000447754 0)
(2.21107 0.00107757 0)
(2.21023 0.00182029 0)
(2.2102 0.00221925 0)
(2.21064 0.00228533 0)
(2.21131 0.00224602 0)
(2.21288 0.00196907 0)
(2.21508 0.00141893 0)
(2.21669 0.000814655 0)
(2.21736 0.000471364 0)
(2.21788 -7.19189e-05 0)
(2.21716 -0.000431648 0)
(2.21587 -3.61128e-05 0)
(2.21623 0.000438944 0)
(2.21706 0.000614639 0)
(2.21791 0.000775199 0)
(2.22032 0.000728368 0)
(2.22565 0.000404563 0)
(2.23162 -0.000230518 0)
(2.23364 -0.000662337 0)
(2.23516 -0.000853445 0)
(2.23615 -0.00106987 0)
(2.23458 -0.00109591 0)
(2.22934 -0.000392709 0)
(2.22523 0.00096647 0)
(2.2246 0.00222373 0)
(2.22515 0.00295159 0)
(2.22572 0.00318046 0)
(2.22749 0.00302595 0)
(2.23164 0.00219847 0)
(2.23607 0.00138164 0)
(2.23776 0.00113004 0)
(2.23941 0.000932843 0)
(2.23939 0.00089567 0)
(2.23756 0.00135675 0)
(2.23639 0.00207718 0)
(2.23678 0.00246032 0)
(2.23746 0.00256239 0)
(2.23807 0.00259167 0)
(2.23961 0.00248513 0)
(2.24198 0.0022302 0)
(2.24412 0.00183145 0)
(2.24551 0.00125976 0)
(2.24663 0.000607403 0)
(2.24742 0.000106657 0)
(2.24847 -0.000206976 0)
(2.24944 -0.000466914 0)
(2.25027 -0.000691326 0)
(2.25102 -0.000896002 0)
(2.25168 -0.00108778 0)
(2.25206 -0.00122457 0)
(2.2514 -0.00109093 0)
(2.25042 -0.000491176 0)
(2.25082 0.000355208 0)
(2.2519 0.000936323 0)
(2.25297 0.00128127 0)
(2.25515 0.00164579 0)
(2.25865 0.00171831 0)
(2.26087 0.00152249 0)
(2.26185 0.00137454 0)
(2.26172 0.00123478 0)
(2.26097 0.00116711 0)
(2.25932 0.00116381 0)
(2.25712 0.00135875 0)
(2.2567 0.00152537 0)
(2.25702 0.00157416 0)
(2.25756 0.00158109 0)
(2.25832 0.00156824 0)
(2.25932 0.00156531 0)
(2.26032 0.00151574 0)
(2.26103 0.00128968 0)
(2.26165 0.000900398 0)
(2.26244 0.000110813 0)
(2.26352 -0.00102623 0)
(2.26478 -0.00213971 0)
(2.26548 -0.00260778 0)
(2.26555 -0.00233301 0)
(2.26463 -0.00103337 0)
(2.2646 0.000318918 0)
(2.26523 0.000938441 0)
(2.26668 0.00149438 0)
(2.269 0.00171835 0)
(2.27079 0.0015509 0)
(2.2719 0.0013059 0)
(2.27277 0.00073199 0)
(2.27359 -0.000458566 0)
(2.27412 -0.00144873 0)
(2.27475 -0.00198119 0)
(2.2749 -0.00205842 0)
(2.27342 -0.00155077 0)
(2.27161 -0.000658151 0)
(2.27056 0.000392221 0)
(2.26995 0.00125023 0)
(2.26983 0.00167127 0)
(2.26994 0.00173898 0)
(2.27044 0.0016539 0)
(2.27167 0.0014557 0)
(2.27358 0.00121543 0)
(2.2757 0.000796656 0)
(2.27745 2.11212e-06 0)
(2.27853 -0.00067662 0)
(2.27916 -0.000842496 0)
(2.27959 -0.00049882 0)
(2.28002 0.000379203 0)
(2.28051 0.0010219 0)
(2.28109 0.0013638 0)
(2.2817 0.0015303 0)
(2.28221 0.0015975 0)
(2.28264 0.00167842 0)
(2.28312 0.00155534 0)
(2.28316 0.00146348 0)
(2.28334 0.000836176 0)
(2.28389 0.000594157 0)
(2.28442 0.000272242 0)
(2.28538 -0.000274059 0)
(2.28672 -0.000942389 0)
(2.28813 -0.00110816 0)
(2.2895 -0.000713842 0)
(2.29178 -0.00022931 0)
(2.29444 6.7141e-05 0)
(2.2952 1.28807e-05 0)
(2.29549 -0.000409934 0)
(2.29592 -0.000892808 0)
(1.72047 0.00674264 0)
(0.875569 0.0107529 0)
(0.761322 0.0121487 0)
(0.729148 0.00932927 0)
(0.703323 0.00938701 0)
(0.68576 0.00665993 0)
(0.677577 0.00415582 0)
(0.671614 0.00405099 0)
(0.665456 0.00357612 0)
(0.660501 0.00244361 0)
(0.657988 -0.00012116 0)
(0.655713 -0.00146489 0)
(0.654608 -0.00184874 0)
(0.653958 -0.00182276 0)
(0.653926 -0.00188951 0)
(0.654939 -0.00192786 0)
(0.657392 -0.00196865 0)
(0.660372 -0.00198557 0)
(0.663619 -0.00209335 0)
(0.66693 -0.00236143 0)
(0.670265 -0.00270632 0)
(0.674509 -0.00301584 0)
(0.679289 -0.00329197 0)
(0.684595 -0.00359852 0)
(0.690248 -0.00382539 0)
(0.696086 -0.00367896 0)
(0.702253 -0.00331218 0)
(0.70808 -0.00286775 0)
(0.712404 -0.00241665 0)
(0.714862 -0.00213993 0)
(0.716436 -0.00181245 0)
(2.36521 -0.0142093 0)
(2.35722 -0.0124265 0)
(2.34771 -0.0173325 0)
(2.33843 -0.0245431 0)
(2.32935 -0.0290755 0)
(2.31988 -0.0286234 0)
(2.31084 -0.024167 0)
(2.30416 -0.0178254 0)
(2.3006 -0.0108806 0)
(2.29865 -0.00670761 0)
(2.2956 -0.00776248 0)
(2.2909 -0.011198 0)
(2.28529 -0.0148785 0)
(2.28 -0.018466 0)
(2.27608 -0.0206978 0)
(2.27308 -0.0184032 0)
(2.27145 -0.0145187 0)
(2.2718 -0.0142624 0)
(2.27249 -0.0181778 0)
(2.26725 -0.0198743 0)
(2.26036 -0.0196321 0)
(2.25304 -0.0178531 0)
(2.246 -0.0147679 0)
(2.24054 -0.0119313 0)
(2.23832 -0.0087923 0)
(2.24256 -0.00576582 0)
(2.24971 -0.00431447 0)
(2.24935 -0.00565975 0)
(2.24612 -0.00721351 0)
(2.24184 -0.00897867 0)
(2.23696 -0.0106329 0)
(2.23169 -0.010471 0)
(2.22648 -0.00886088 0)
(2.22252 -0.00528645 0)
(2.22087 0.000159924 0)
(2.22229 0.00417295 0)
(2.22468 0.00260164 0)
(2.22343 -0.00143607 0)
(2.22032 -0.00456774 0)
(2.21692 -0.00789655 0)
(2.21449 -0.0105346 0)
(2.21287 -0.0108466 0)
(2.21109 -0.0106087 0)
(2.21064 -0.00959884 0)
(2.21165 -0.00820584 0)
(2.21301 -0.00815505 0)
(2.21342 -0.00901803 0)
(2.21213 -0.00912703 0)
(2.21027 -0.0083452 0)
(2.20872 -0.00599081 0)
(2.20785 -0.00241771 0)
(2.20798 0.00212667 0)
(2.20928 0.00667293 0)
(2.21075 0.00887285 0)
(2.21022 0.00844901 0)
(2.20867 0.00734461 0)
(2.20716 0.00566667 0)
(2.20618 0.00309236 0)
(2.20635 0.00028996 0)
(2.20786 -0.00206312 0)
(2.20947 -0.00382643 0)
(2.20931 -0.00508366 0)
(2.20892 -0.00621645 0)
(2.20765 -0.00721535 0)
(2.20568 -0.00765884 0)
(2.20348 -0.00709469 0)
(2.20077 -0.0044434 0)
(2.19985 -0.00240963 0)
(2.1994 -0.00147622 0)
(2.20008 -0.000762695 0)
(2.20255 -0.000737995 0)
(2.20568 -0.0014283 0)
(2.20825 -0.00223379 0)
(2.20944 -0.00271317 0)
(2.20905 -0.00256904 0)
(2.20865 -0.00193352 0)
(2.20789 -0.000502016 0)
(2.20679 0.00140353 0)
(2.20506 0.00341991 0)
(2.20243 0.00530581 0)
(2.20007 0.00589713 0)
(2.19954 0.00507452 0)
(2.19979 0.00342186 0)
(2.20082 0.000722557 0)
(2.2024 -0.0015222 0)
(2.20422 -0.00276437 0)
(2.20605 -0.00244037 0)
(2.20759 -0.000280292 0)
(2.20852 0.00284109 0)
(2.20871 0.00565717 0)
(2.20888 0.00741945 0)
(2.20888 0.007692 0)
(2.20869 0.00678523 0)
(2.20829 0.00485586 0)
(2.20749 0.00187851 0)
(2.20627 -0.00200745 0)
(2.20501 -0.00468686 0)
(2.20478 -0.00519142 0)
(2.20494 -0.00504935 0)
(2.20574 -0.0044872 0)
(2.20819 -0.00361468 0)
(2.21224 -0.00289996 0)
(2.21542 -0.00280318 0)
(2.21641 -0.0028241 0)
(2.21736 -0.00247165 0)
(2.21777 -0.00111015 0)
(2.2172 0.0013789 0)
(2.21615 0.00410467 0)
(2.21601 0.00597057 0)
(2.21676 0.00705484 0)
(2.21772 0.00779887 0)
(2.2189 0.00767349 0)
(2.2198 0.00667435 0)
(2.22033 0.00563535 0)
(2.22055 0.00412717 0)
(2.22002 0.00194234 0)
(2.21919 0.000522147 0)
(2.21978 0.000651172 0)
(2.22093 0.00130848 0)
(2.22258 0.00248655 0)
(2.22562 0.0041791 0)
(2.23017 0.00523498 0)
(2.23471 0.0039877 0)
(2.2373 0.00184629 0)
(2.23846 0.000183038 0)
(2.23915 -0.00179586 0)
(2.23747 -0.00421226 0)
(2.23299 -0.00552533 0)
(2.2297 -0.00415632 0)
(2.22962 -0.00171553 0)
(2.23045 0.00100419 0)
(2.23156 0.00429802 0)
(2.23321 0.00727244 0)
(2.23578 0.00859174 0)
(2.23845 0.00629841 0)
(2.2406 0.0025179 0)
(2.24156 0.00025177 0)
(2.24247 -0.00108754 0)
(2.24244 -0.000695808 0)
(2.24188 0.00151969 0)
(2.24164 0.00421863 0)
(2.24188 0.00646808 0)
(2.24231 0.00801037 0)
(2.24288 0.00883056 0)
(2.24406 0.00868884 0)
(2.24564 0.00737298 0)
(2.24703 0.00586609 0)
(2.24833 0.0045328 0)
(2.24938 0.0036287 0)
(2.25053 0.00313782 0)
(2.2516 0.00260134 0)
(2.25264 0.00175093 0)
(2.25357 0.000517388 0)
(2.25407 -0.000931325 0)
(2.25405 -0.00263828 0)
(2.25338 -0.00429359 0)
(2.25296 -0.00461682 0)
(2.25382 -0.00397733 0)
(2.25512 -0.00284507 0)
(2.25678 -0.00120934 0)
(2.25923 0.00130225 0)
(2.26178 0.00401604 0)
(2.2631 0.00500454 0)
(2.26357 0.00494316 0)
(2.26347 0.0043259 0)
(2.26269 0.00354248 0)
(2.26152 0.00267705 0)
(2.25976 0.00201159 0)
(2.25939 0.00218646 0)
(2.25983 0.0026848 0)
(2.26039 0.00342346 0)
(2.26115 0.00448641 0)
(2.26198 0.0054235 0)
(2.26243 0.00591652 0)
(2.26254 0.00576352 0)
(2.26266 0.00472469 0)
(2.26315 0.00355592 0)
(2.26364 0.00176576 0)
(2.26424 -0.000878445 0)
(2.26523 -0.00424466 0)
(2.26657 -0.00685527 0)
(2.26718 -0.00711239 0)
(2.26788 -0.00564774 0)
(2.26937 -0.00277959 0)
(2.27114 0.000561971 0)
(2.27246 0.0035441 0)
(2.27303 0.00504447 0)
(2.27331 0.00522521 0)
(2.27351 0.00439372 0)
(2.27377 0.00267149 0)
(2.27399 0.0005788 0)
(2.27417 -0.00190982 0)
(2.27432 -0.0047018 0)
(2.27439 -0.00648419 0)
(2.27443 -0.00612751 0)
(2.27407 -0.00429612 0)
(2.27357 -0.0018053 0)
(2.27313 0.000715097 0)
(2.27299 0.0027859 0)
(2.27325 0.00422722 0)
(2.2737 0.00503068 0)
(2.27452 0.00508647 0)
(2.27594 0.00405059 0)
(2.27725 0.00251327 0)
(2.27816 0.0007436 0)
(2.27924 -0.00132289 0)
(2.28054 -0.00285724 0)
(2.282 -0.00249938 0)
(2.28311 -0.00127253 0)
(2.28401 -2.91974e-05 0)
(2.28495 0.00137099 0)
(2.2856 0.00280732 0)
(2.28593 0.00427316 0)
(2.28582 0.00539326 0)
(2.28495 0.00556987 0)
(2.28395 0.0044208 0)
(2.28402 0.00344698 0)
(2.28452 0.00285552 0)
(2.28543 0.00182413 0)
(2.28676 6.11125e-05 0)
(2.28854 -0.00211895 0)
(2.29112 -0.00288009 0)
(2.29468 -0.00161261 0)
(2.29707 -7.00289e-05 0)
(2.29775 0.000421863 0)
(2.29833 0.000672058 0)
(2.29763 -0.000227662 0)
(1.74939 0.0373374 0)
(0.875824 0.0493754 0)
(0.750424 0.0402115 0)
(0.720514 0.0244296 0)
(0.696931 0.0204237 0)
(0.684181 0.0137061 0)
(0.678686 0.00836719 0)
(0.67387 0.00646736 0)
(0.66852 0.00564664 0)
(0.665445 0.00164067 0)
(0.66335 -0.000708534 0)
(0.661318 -0.00231063 0)
(0.659769 -0.00272307 0)
(0.658662 -0.00285962 0)
(0.658529 -0.00318545 0)
(0.659404 -0.0033557 0)
(0.66152 -0.00356511 0)
(0.663974 -0.00390871 0)
(0.666611 -0.00436649 0)
(0.669578 -0.00507315 0)
(0.672891 -0.00618347 0)
(0.677397 -0.00736154 0)
(0.682509 -0.00838058 0)
(0.688346 -0.00931381 0)
(0.694499 -0.0102275 0)
(0.701122 -0.0107837 0)
(0.707915 -0.0105098 0)
(0.714369 -0.00927739 0)
(0.71885 -0.00764434 0)
(0.721125 -0.00613071 0)
(0.722015 -0.0042375 0)
(2.41988 -0.050582 0)
(2.40912 -0.0480572 0)
(2.39781 -0.0474069 0)
(2.38682 -0.0459448 0)
(2.37722 -0.0433179 0)
(2.36965 -0.0411255 0)
(2.36363 -0.0407058 0)
(2.35909 -0.0397616 0)
(2.35566 -0.0368646 0)
(2.35247 -0.0326832 0)
(2.34851 -0.0300631 0)
(2.34327 -0.0304417 0)
(2.33757 -0.0334124 0)
(2.3328 -0.0353093 0)
(2.32822 -0.0327832 0)
(2.32407 -0.0287356 0)
(2.32076 -0.0263351 0)
(2.31913 -0.02543 0)
(2.3178 -0.0275748 0)
(2.31114 -0.0293562 0)
(2.30433 -0.0293321 0)
(2.29809 -0.0277924 0)
(2.29299 -0.0259944 0)
(2.28851 -0.0247073 0)
(2.28529 -0.0227949 0)
(2.28653 -0.0207093 0)
(2.29122 -0.0209762 0)
(2.28905 -0.0217235 0)
(2.28409 -0.0219581 0)
(2.27918 -0.0223135 0)
(2.27416 -0.0220398 0)
(2.26898 -0.0200184 0)
(2.26534 -0.0178993 0)
(2.26194 -0.0167805 0)
(2.25938 -0.0144377 0)
(2.25968 -0.0114586 0)
(2.26093 -0.0108481 0)
(2.25663 -0.0111335 0)
(2.25202 -0.0113229 0)
(2.24823 -0.0116053 0)
(2.24506 -0.0114551 0)
(2.24415 -0.0115458 0)
(2.24377 -0.0117181 0)
(2.24412 -0.0108317 0)
(2.24423 -0.00966197 0)
(2.24353 -0.00921768 0)
(2.2417 -0.0106075 0)
(2.23897 -0.0127681 0)
(2.23669 -0.0143038 0)
(2.23486 -0.0147997 0)
(2.23375 -0.0140815 0)
(2.23414 -0.0116317 0)
(2.2358 -0.00726531 0)
(2.23599 -0.00366744 0)
(2.23475 -0.00225448 0)
(2.23338 -0.00178191 0)
(2.23214 -0.00184103 0)
(2.23103 -0.00238232 0)
(2.2306 -0.00340196 0)
(2.23161 -0.00508256 0)
(2.23291 -0.00689038 0)
(2.23244 -0.00735882 0)
(2.23146 -0.00690088 0)
(2.22975 -0.0057588 0)
(2.22692 -0.00473865 0)
(2.22445 -0.00450068 0)
(2.2229 -0.00451248 0)
(2.2218 -0.00443906 0)
(2.2214 -0.00442535 0)
(2.22212 -0.00435181 0)
(2.22357 -0.00439536 0)
(2.22537 -0.00481942 0)
(2.22738 -0.00542058 0)
(2.22862 -0.00615946 0)
(2.22831 -0.00674646 0)
(2.22749 -0.00702217 0)
(2.22689 -0.00714221 0)
(2.22605 -0.00673429 0)
(2.2247 -0.00582366 0)
(2.22254 -0.0044976 0)
(2.21979 -0.0024657 0)
(2.21814 -0.00030837 0)
(2.21811 0.0012651 0)
(2.21843 0.00230728 0)
(2.21894 0.00292894 0)
(2.22004 0.00225485 0)
(2.22203 -2.61577e-06 0)
(2.22451 -0.00240552 0)
(2.22605 -0.00342483 0)
(2.22618 -0.00333798 0)
(2.22616 -0.00276129 0)
(2.22598 -0.000996247 0)
(2.22546 0.00100474 0)
(2.22435 0.0021299 0)
(2.22237 0.00224552 0)
(2.22029 0.00189087 0)
(2.21961 0.00166497 0)
(2.21967 0.00141834 0)
(2.22016 0.0010694 0)
(2.22158 0.00109926 0)
(2.22435 0.00128757 0)
(2.22784 0.000857563 0)
(2.23013 -0.000568833 0)
(2.23091 -0.00204542 0)
(2.23103 -0.00320842 0)
(2.23101 -0.00400428 0)
(2.23069 -0.0040094 0)
(2.22977 -0.00267962 0)
(2.22895 -0.00058107 0)
(2.22932 0.00089062 0)
(2.23025 0.00180423 0)
(2.23129 0.00266232 0)
(2.23214 0.00340141 0)
(2.23269 0.00393043 0)
(2.23257 0.00439535 0)
(2.23152 0.00491573 0)
(2.23079 0.0051612 0)
(2.2317 0.0049177 0)
(2.233 0.00447031 0)
(2.23514 0.00417071 0)
(2.23928 0.00562583 0)
(2.24328 0.00874146 0)
(2.24478 0.0100758 0)
(2.24599 0.01001 0)
(2.24625 0.00932444 0)
(2.24518 0.00857857 0)
(2.24263 0.00695899 0)
(2.24033 0.00342122 0)
(2.24018 0.000796332 0)
(2.24074 -0.000111524 0)
(2.242 -0.000228307 0)
(2.24438 0.00135115 0)
(2.24647 0.0039489 0)
(2.24791 0.0056579 0)
(2.24931 0.0062665 0)
(2.25022 0.00533918 0)
(2.25068 0.00324648 0)
(2.25093 0.0010765 0)
(2.25095 -0.000450445 0)
(2.2512 -0.000790576 0)
(2.25193 -7.0713e-05 0)
(2.25277 0.0019856 0)
(2.25341 0.00448767 0)
(2.25384 0.00646441 0)
(2.2542 0.00742712 0)
(2.25453 0.00758983 0)
(2.25511 0.00719782 0)
(2.256 0.0064734 0)
(2.25752 0.00545655 0)
(2.25857 0.00523617 0)
(2.25979 0.00548234 0)
(2.2607 0.00609163 0)
(2.26095 0.00674199 0)
(2.26032 0.00682994 0)
(2.2594 0.00583366 0)
(2.25934 0.00443887 0)
(2.2601 0.00270943 0)
(2.26141 0.000848506 0)
(2.26304 -0.000241336 0)
(2.26509 -0.000405933 0)
(2.2675 0.000461922 0)
(2.2692 0.00183823 0)
(2.26973 0.00248967 0)
(2.2698 0.00242367 0)
(2.26944 0.00147876 0)
(2.26855 -0.000307607 0)
(2.2673 -0.00130347 0)
(2.26646 -0.00166044 0)
(2.26663 -0.00145297 0)
(2.26701 -0.000985012 0)
(2.26759 -0.000291237 0)
(2.26848 0.000654401 0)
(2.26938 0.00187766 0)
(2.26999 0.00314748 0)
(2.27003 0.00437274 0)
(2.26929 0.00520213 0)
(2.26858 0.00537181 0)
(2.26828 0.00490739 0)
(2.26813 0.00401616 0)
(2.26825 0.00213469 0)
(2.26962 -0.000863513 0)
(2.2727 -0.00377257 0)
(2.27552 -0.00442002 0)
(2.27759 -0.00316263 0)
(2.27885 -0.00135499 0)
(2.27937 0.000174693 0)
(2.27984 0.00190388 0)
(2.27971 0.00356313 0)
(2.27867 0.00465627 0)
(2.27745 0.0047284 0)
(2.27675 0.00375808 0)
(2.27662 0.00228727 0)
(2.27682 0.000986304 0)
(2.27801 -0.00058233 0)
(2.27946 -0.00230465 0)
(2.27988 -0.00309164 0)
(2.28 -0.00305787 0)
(2.2801 -0.00198596 0)
(2.28011 -0.000138771 0)
(2.28018 0.00159796 0)
(2.2803 0.00328065 0)
(2.28031 0.00489979 0)
(2.2802 0.00592523 0)
(2.28041 0.00601283 0)
(2.28087 0.00557431 0)
(2.28145 0.00478568 0)
(2.28314 0.0032267 0)
(2.2865 0.00117316 0)
(2.2894 -4.77807e-05 0)
(2.29034 -0.00031259 0)
(2.29103 -0.000120718 0)
(2.29183 0.000760335 0)
(2.29238 0.00210026 0)
(2.29238 0.00336788 0)
(2.29135 0.00449084 0)
(2.2889 0.00547658 0)
(2.2875 0.00614186 0)
(2.28804 0.00626449 0)
(2.28875 0.00614991 0)
(2.28952 0.0053473 0)
(2.29128 0.0037666 0)
(2.2953 0.00190618 0)
(2.30058 0.00127689 0)
(2.3031 0.00156653 0)
(2.30378 0.00188281 0)
(2.30434 0.00307666 0)
(2.30242 0.00325163 0)
(1.82115 0.0655249 0)
(0.891222 0.0865646 0)
(0.755328 0.0668675 0)
(0.724647 0.0457381 0)
(0.699864 0.0365356 0)
(0.688718 0.0260748 0)
(0.68464 0.0177553 0)
(0.680734 0.0135227 0)
(0.678351 0.00959983 0)
(0.678451 0.00629512 0)
(0.676183 0.00452564 0)
(0.673972 0.0019083 0)
(0.672334 -0.000196583 0)
(0.671238 -0.00131446 0)
(0.671252 -0.00213137 0)
(0.672074 -0.00296892 0)
(0.673744 -0.00392826 0)
(0.675829 -0.00488084 0)
(0.678299 -0.00566979 0)
(0.681382 -0.00652107 0)
(0.685119 -0.00769406 0)
(0.689864 -0.00881035 0)
(0.695155 -0.00989734 0)
(0.700981 -0.0109627 0)
(0.707006 -0.0121086 0)
(0.713765 -0.0133211 0)
(0.721131 -0.0143695 0)
(0.727863 -0.0148583 0)
(0.732613 -0.0144022 0)
(0.735045 -0.0135095 0)
(0.73597 -0.0113741 0)
(2.47052 -0.0598661 0)
(2.45819 -0.0554469 0)
(2.44535 -0.0524098 0)
(2.43425 -0.0491589 0)
(2.42573 -0.047674 0)
(2.41822 -0.050048 0)
(2.41205 -0.0556271 0)
(2.40857 -0.0611084 0)
(2.40756 -0.0610625 0)
(2.40586 -0.0541175 0)
(2.40205 -0.0445883 0)
(2.39771 -0.0383258 0)
(2.39265 -0.0386319 0)
(2.38711 -0.0401585 0)
(2.38051 -0.0398369 0)
(2.37418 -0.0391908 0)
(2.36958 -0.0391743 0)
(2.3669 -0.0381305 0)
(2.36358 -0.0355122 0)
(2.35763 -0.0326199 0)
(2.35092 -0.0289363 0)
(2.34581 -0.0243365 0)
(2.3424 -0.020829 0)
(2.33932 -0.0190517 0)
(2.33636 -0.018449 0)
(2.33547 -0.0179178 0)
(2.33726 -0.0182758 0)
(2.33322 -0.0189313 0)
(2.32757 -0.0190926 0)
(2.32208 -0.0198156 0)
(2.31664 -0.0204779 0)
(2.31276 -0.0197916 0)
(2.30953 -0.0170785 0)
(2.30686 -0.0131635 0)
(2.30449 -0.00993345 0)
(2.3039 -0.0084171 0)
(2.30196 -0.0100675 0)
(2.29676 -0.0109242 0)
(2.29192 -0.0122838 0)
(2.2872 -0.0132805 0)
(2.28439 -0.0136419 0)
(2.28291 -0.0137735 0)
(2.28401 -0.013551 0)
(2.28631 -0.0120106 0)
(2.28611 -0.0109571 0)
(2.28348 -0.0106194 0)
(2.28033 -0.0104416 0)
(2.27668 -0.00990548 0)
(2.27279 -0.00868471 0)
(2.26979 -0.00757971 0)
(2.26749 -0.00626843 0)
(2.26753 -0.00434762 0)
(2.26951 -0.00306093 0)
(2.26949 -0.00317498 0)
(2.26862 -0.00345667 0)
(2.26706 -0.00429374 0)
(2.26533 -0.00565187 0)
(2.2641 -0.00666933 0)
(2.26305 -0.00735564 0)
(2.26289 -0.00824898 0)
(2.2637 -0.00934283 0)
(2.26351 -0.00999427 0)
(2.26217 -0.00997975 0)
(2.26082 -0.00954194 0)
(2.25914 -0.00785735 0)
(2.257 -0.0046486 0)
(2.25523 -0.00131228 0)
(2.25436 0.00103581 0)
(2.25402 0.00240568 0)
(2.25393 0.00316218 0)
(2.25418 0.00338214 0)
(2.25494 0.00303837 0)
(2.25649 0.00198218 0)
(2.25756 0.000570239 0)
(2.2572 -0.000272075 0)
(2.25651 -0.000898437 0)
(2.25551 -0.00173507 0)
(2.25423 -0.00268934 0)
(2.25246 -0.00343841 0)
(2.25 -0.00384871 0)
(2.24712 -0.00370917 0)
(2.24601 -0.00317475 0)
(2.24626 -0.00304553 0)
(2.24679 -0.00239026 0)
(2.24778 -0.000926895 0)
(2.24926 0.00136977 0)
(2.25096 0.00377792 0)
(2.25245 0.00492214 0)
(2.25301 0.00418221 0)
(2.2528 0.00276153 0)
(2.25231 0.00104676 0)
(2.25142 -0.000929504 0)
(2.25019 -0.00316615 0)
(2.24871 -0.00529552 0)
(2.24722 -0.00633994 0)
(2.24659 -0.00572057 0)
(2.24672 -0.00446435 0)
(2.24706 -0.00299702 0)
(2.24775 -0.00110684 0)
(2.24911 0.00122623 0)
(2.25104 0.00343692 0)
(2.25302 0.00517329 0)
(2.25376 0.00589429 0)
(2.25395 0.0061025 0)
(2.25385 0.0063559 0)
(2.25352 0.00663881 0)
(2.25302 0.00685889 0)
(2.25209 0.00679999 0)
(2.25066 0.00602236 0)
(2.25001 0.00426536 0)
(2.2505 0.00230891 0)
(2.2512 2.65815e-05 0)
(2.25173 -0.00219626 0)
(2.25213 -0.00388225 0)
(2.25237 -0.00487622 0)
(2.25255 -0.00486387 0)
(2.25299 -0.00358737 0)
(2.25384 -0.00132786 0)
(2.25517 0.000964591 0)
(2.25701 0.00276685 0)
(2.25997 0.00405572 0)
(2.26206 0.00391922 0)
(2.26293 0.00346669 0)
(2.26374 0.00302589 0)
(2.26401 0.00280131 0)
(2.26364 0.0029713 0)
(2.26235 0.004222 0)
(2.25999 0.00697457 0)
(2.25896 0.00904672 0)
(2.2597 0.00947857 0)
(2.2607 0.00917583 0)
(2.26328 0.00742018 0)
(2.26564 0.00502979 0)
(2.26681 0.00405348 0)
(2.26838 0.00406708 0)
(2.26946 0.00496178 0)
(2.26959 0.00636948 0)
(2.26901 0.00768757 0)
(2.26836 0.00818713 0)
(2.26843 0.00767929 0)
(2.26897 0.0067307 0)
(2.26949 0.00474615 0)
(2.26986 0.0023016 0)
(2.27032 -2.25596e-05 0)
(2.27081 -0.00175294 0)
(2.27142 -0.00273643 0)
(2.27221 -0.00306394 0)
(2.27317 -0.00300179 0)
(2.27428 -0.00283354 0)
(2.27498 -0.00289131 0)
(2.27582 -0.00298657 0)
(2.27658 -0.00296441 0)
(2.27715 -0.00274678 0)
(2.27739 -0.00201862 0)
(2.27733 -0.000342114 0)
(2.27723 0.00197542 0)
(2.27734 0.00404235 0)
(2.27771 0.00529777 0)
(2.27831 0.00589639 0)
(2.27968 0.00613242 0)
(2.28139 0.00565252 0)
(2.28228 0.004657 0)
(2.28264 0.00369191 0)
(2.28295 0.00306504 0)
(2.28293 0.0030135 0)
(2.28217 0.00319931 0)
(2.28133 0.00340517 0)
(2.2808 0.0035779 0)
(2.28066 0.00355807 0)
(2.28065 0.00321891 0)
(2.28083 0.00214043 0)
(2.28121 0.000623566 0)
(2.28143 -0.000921635 0)
(2.28149 -0.00255706 0)
(2.28134 -0.00429545 0)
(2.28102 -0.00556478 0)
(2.28103 -0.00595247 0)
(2.2815 -0.00570337 0)
(2.28193 -0.00476471 0)
(2.28257 -0.00303494 0)
(2.28388 -0.000916213 0)
(2.28579 0.000597582 0)
(2.28796 0.000996882 0)
(2.28959 0.000549771 0)
(2.28999 -0.000221795 0)
(2.28993 -0.00114078 0)
(2.28958 -0.00268975 0)
(2.28882 -0.00435488 0)
(2.28787 -0.00550171 0)
(2.28718 -0.00568061 0)
(2.2873 -0.00483393 0)
(2.28812 -0.00343471 0)
(2.28924 -0.00139947 0)
(2.29042 0.00100792 0)
(2.29091 0.00213971 0)
(2.29134 0.00244288 0)
(2.29162 0.00242995 0)
(2.29167 0.00206651 0)
(2.29117 0.00112295 0)
(2.29035 -0.000373532 0)
(2.2897 -0.00170473 0)
(2.28936 -0.00236316 0)
(2.28934 -0.00232403 0)
(2.29 -0.00177598 0)
(2.2911 -0.000865034 0)
(2.29265 0.000700205 0)
(2.29534 0.00312711 0)
(2.29831 0.00516572 0)
(2.30057 0.00545155 0)
(2.30135 0.00506943 0)
(2.30191 0.00472862 0)
(2.30248 0.00422125 0)
(2.30259 0.00321891 0)
(2.30155 0.00132627 0)
(2.29937 -0.00129618 0)
(2.29703 -0.00304634 0)
(2.29676 -0.0028944 0)
(2.29791 -0.00218963 0)
(2.2992 -0.00131814 0)
(2.30059 -4.77184e-05 0)
(2.30309 0.00188833 0)
(2.30679 0.00387982 0)
(2.31077 0.00393694 0)
(2.31283 0.00254217 0)
(2.3132 0.00138493 0)
(2.3132 -0.000422237 0)
(2.31206 -0.00147791 0)
(1.93522 0.0805941 0)
(0.922681 0.118821 0)
(0.764767 0.0915217 0)
(0.742098 0.0640036 0)
(0.720448 0.04815 0)
(0.709956 0.0349678 0)
(0.70617 0.0252161 0)
(0.701368 0.0183668 0)
(0.701715 0.0112388 0)
(0.703213 0.00494238 0)
(0.70146 0.000280593 0)
(0.699802 -0.00471882 0)
(0.698037 -0.00809577 0)
(0.697311 -0.00926876 0)
(0.697411 -0.00922974 0)
(0.698237 -0.00900451 0)
(0.699396 -0.00908001 0)
(0.70122 -0.00965447 0)
(0.703599 -0.0106716 0)
(0.706793 -0.0119454 0)
(0.711085 -0.0133305 0)
(0.715846 -0.0141459 0)
(0.721129 -0.0140264 0)
(0.726544 -0.0138306 0)
(0.732018 -0.0140467 0)
(0.738134 -0.014784 0)
(0.745419 -0.0161818 0)
(0.752442 -0.0177167 0)
(0.757295 -0.0186454 0)
(0.759594 -0.0189082 0)
(0.760651 -0.0183496 0)
(2.50297 -0.0688997 0)
(2.49048 -0.0683243 0)
(2.47744 -0.0693262 0)
(2.46479 -0.0722586 0)
(2.45315 -0.0739229 0)
(2.44275 -0.0743726 0)
(2.4361 -0.073414 0)
(2.43798 -0.0665636 0)
(2.44232 -0.0551005 0)
(2.44303 -0.0467719 0)
(2.43907 -0.0450988 0)
(2.43169 -0.0480628 0)
(2.42492 -0.055751 0)
(2.41781 -0.0604023 0)
(2.40955 -0.0599874 0)
(2.40218 -0.0572334 0)
(2.39964 -0.0503138 0)
(2.39916 -0.041142 0)
(2.39464 -0.0331595 0)
(2.38833 -0.0280508 0)
(2.38281 -0.0257861 0)
(2.378 -0.0261821 0)
(2.37341 -0.028701 0)
(2.36921 -0.033018 0)
(2.36659 -0.0373127 0)
(2.36698 -0.0383411 0)
(2.36823 -0.0350069 0)
(2.36369 -0.0310576 0)
(2.35742 -0.0280681 0)
(2.35188 -0.024234 0)
(2.34755 -0.0204511 0)
(2.34444 -0.0184373 0)
(2.34155 -0.0186518 0)
(2.33884 -0.0195176 0)
(2.33638 -0.0213817 0)
(2.33497 -0.0228927 0)
(2.33237 -0.021216 0)
(2.3278 -0.0190603 0)
(2.32323 -0.0157917 0)
(2.31897 -0.0119272 0)
(2.31585 -0.00812531 0)
(2.31493 -0.00599938 0)
(2.31689 -0.00777182 0)
(2.31921 -0.013866 0)
(2.31794 -0.0187013 0)
(2.31497 -0.0198806 0)
(2.31177 -0.0196352 0)
(2.30778 -0.017954 0)
(2.3038 -0.0149216 0)
(2.30057 -0.0120791 0)
(2.2984 -0.00955216 0)
(2.29836 -0.00790742 0)
(2.29917 -0.00786069 0)
(2.29902 -0.0082672 0)
(2.2984 -0.00862417 0)
(2.29676 -0.00875893 0)
(2.29557 -0.00828036 0)
(2.29419 -0.00674816 0)
(2.29322 -0.00448025 0)
(2.29311 -0.00278107 0)
(2.29332 -0.00264251 0)
(2.29263 -0.00392367 0)
(2.29136 -0.00557701 0)
(2.28979 -0.00757609 0)
(2.28831 -0.00914745 0)
(2.28723 -0.00930289 0)
(2.28637 -0.00775131 0)
(2.28611 -0.00446741 0)
(2.2859 -0.00177328 0)
(2.28564 -0.000594681 0)
(2.28527 -0.000561127 0)
(2.28505 -0.00169609 0)
(2.28523 -0.00395704 0)
(2.28581 -0.00637261 0)
(2.28611 -0.0074783 0)
(2.28552 -0.00739738 0)
(2.28494 -0.00647547 0)
(2.28392 -0.00476236 0)
(2.2819 -0.00257942 0)
(2.27906 -0.00105638 0)
(2.27615 -0.00104963 0)
(2.27494 -0.00188227 0)
(2.27511 -0.002862 0)
(2.27559 -0.0038936 0)
(2.27676 -0.00470286 0)
(2.27889 -0.00408599 0)
(2.28129 -0.00181429 0)
(2.28265 0.000940882 0)
(2.28284 0.00316488 0)
(2.28228 0.00498328 0)
(2.28141 0.00618557 0)
(2.28009 0.00562857 0)
(2.27809 0.00276773 0)
(2.27612 -0.00137181 0)
(2.27537 -0.00448601 0)
(2.27568 -0.00577234 0)
(2.27622 -0.00597078 0)
(2.27694 -0.00473706 0)
(2.278 -0.0021541 0)
(2.27936 0.000602242 0)
(2.28055 0.00249651 0)
(2.28099 0.00314725 0)
(2.28128 0.00314781 0)
(2.28148 0.00293286 0)
(2.28136 0.00269005 0)
(2.28101 0.00258947 0)
(2.28045 0.0027501 0)
(2.27938 0.00323208 0)
(2.2776 0.00415858 0)
(2.27583 0.00527312 0)
(2.27522 0.00571909 0)
(2.27554 0.00555287 0)
(2.27619 0.00513248 0)
(2.27693 0.00452297 0)
(2.2778 0.00382132 0)
(2.27885 0.00308592 0)
(2.27964 0.00263 0)
(2.28054 0.00256715 0)
(2.28163 0.00313663 0)
(2.28333 0.00510327 0)
(2.28456 0.00717128 0)
(2.28559 0.00798131 0)
(2.28645 0.00805321 0)
(2.28713 0.00734479 0)
(2.2876 0.00607625 0)
(2.28771 0.00469341 0)
(2.28708 0.00376365 0)
(2.28565 0.00413092 0)
(2.28492 0.00576307 0)
(2.28563 0.00751229 0)
(2.28696 0.00885101 0)
(2.28847 0.00942889 0)
(2.28994 0.00924443 0)
(2.29122 0.00824846 0)
(2.29225 0.00691555 0)
(2.29289 0.00604627 0)
(2.29331 0.00577613 0)
(2.29363 0.00647859 0)
(2.29377 0.00814132 0)
(2.29364 0.0100033 0)
(2.29311 0.0109379 0)
(2.2925 0.0102929 0)
(2.2927 0.00870727 0)
(2.29352 0.00736515 0)
(2.29429 0.00631231 0)
(2.29507 0.0053426 0)
(2.29596 0.0046809 0)
(2.29697 0.00475326 0)
(2.29747 0.00497347 0)
(2.29802 0.00500861 0)
(2.29858 0.00468341 0)
(2.29922 0.00405989 0)
(2.29978 0.0031905 0)
(2.30014 0.00226945 0)
(2.30037 0.00183408 0)
(2.30051 0.0020718 0)
(2.30046 0.00329712 0)
(2.30036 0.0051301 0)
(2.30054 0.00686604 0)
(2.3009 0.00799371 0)
(2.30124 0.00833914 0)
(2.30121 0.00781231 0)
(2.30121 0.00641615 0)
(2.30147 0.00490018 0)
(2.30156 0.00385089 0)
(2.30153 0.00362289 0)
(2.30143 0.00410969 0)
(2.30118 0.0051558 0)
(2.30067 0.0060932 0)
(2.30024 0.00681496 0)
(2.29996 0.00708091 0)
(2.2998 0.00672752 0)
(2.29967 0.00561903 0)
(2.29955 0.00374865 0)
(2.2996 0.00166867 0)
(2.29997 9.06627e-05 0)
(2.30071 -0.00122076 0)
(2.30151 -0.00238656 0)
(2.3023 -0.00285959 0)
(2.30316 -0.00212775 0)
(2.30428 -0.000139824 0)
(2.30561 0.00234286 0)
(2.30648 0.0040296 0)
(2.30669 0.00445085 0)
(2.30682 0.00428979 0)
(2.30638 0.00330749 0)
(2.30539 0.00152605 0)
(2.30451 -0.000471092 0)
(2.30428 -0.0019479 0)
(2.30464 -0.00260365 0)
(2.30516 -0.00264956 0)
(2.30633 -0.00199113 0)
(2.30772 -0.000782332 0)
(2.30842 0.000110877 0)
(2.30904 0.000879633 0)
(2.30969 0.00185819 0)
(2.31002 0.00296658 0)
(2.30966 0.00398588 0)
(2.30824 0.00464145 0)
(2.30628 0.00464054 0)
(2.30516 0.00395291 0)
(2.30513 0.00313821 0)
(2.3055 0.00254249 0)
(2.30614 0.00201119 0)
(2.30745 0.00163574 0)
(2.30993 0.00201636 0)
(2.31347 0.00338486 0)
(2.31635 0.00475697 0)
(2.31738 0.00534172 0)
(2.31821 0.00567243 0)
(2.31902 0.00617423 0)
(2.31954 0.00689894 0)
(2.31906 0.00738108 0)
(2.31658 0.00649561 0)
(2.31335 0.00395642 0)
(2.31263 0.00201807 0)
(2.3134 0.00150437 0)
(2.31425 0.00126648 0)
(2.31549 0.00125405 0)
(2.31744 0.00179712 0)
(2.32025 0.00298219 0)
(2.32373 0.00366972 0)
(2.32658 0.00333797 0)