/*--------------------------------*- C++ -*----------------------------------*\
  =========                 |
  \\      /  F ield         | OpenFOAM: The Open Source CFD Toolbox
   \\    /   O peration     | Website:  https://openfoam.org
    \\  /    A nd           | Version:  7
     \\/     M anipulation  |
\*---------------------------------------------------------------------------*/
FoamFile
{
    version     2.0;
    format      ascii;
    class       volVectorField;
    location    "3.5";
    object      U;
}
// * * * * * * * * * * * * * * * * * * * * * * * * * * * * * * * * * * * * * //

dimensions      [0 1 -1 0 0 0 0];

internalField   nonuniform List<vector> 
66048
(
(3 1.32342e-16 0)
(3 3.70934e-16 0)
(3 2.39466e-16 0)
(3 -6.42915e-17 0)
(3 -1.96318e-16 0)
(3 -4.10731e-16 0)
(3 -5.67404e-16 0)
(3 -1.03187e-15 0)
(3 -9.59582e-16 0)
(3 -1.49278e-15 0)
(3 -1.30148e-15 0)
(3 -1.132e-15 0)
(3 -9.68486e-16 0)
(3 -6.91512e-16 0)
(3 -1.08547e-15 0)
(3 -9.28518e-17 0)
(3 3.59846e-16 0)
(3 9.92271e-16 0)
(3 1.1534e-16 0)
(3 -2.96886e-16 0)
(3 7.57259e-17 0)
(3 8.12391e-16 0)
(3 1.03626e-15 0)
(3 6.58257e-16 0)
(3 1.65071e-16 0)
(3 -4.06859e-17 0)
(3 3.75892e-16 0)
(3 6.40574e-16 0)
(3 6.38935e-16 0)
(3 1.20328e-15 0)
(3 1.84796e-15 0)
(3 6.5699e-16 0)
(3 -3.4083e-17 0)
(3 -7.88542e-16 0)
(3 -6.30885e-16 0)
(3 -2.9421e-16 0)
(3 1.44408e-16 0)
(3 9.70346e-16 0)
(3 1.00756e-15 0)
(3 5.60439e-16 0)
(3 -6.92365e-17 0)
(3 -6.34232e-16 0)
(3 -1.02483e-15 0)
(3 -2.81632e-16 0)
(3 -1.06549e-15 0)
(3 -1.94436e-15 0)
(3 -1.84922e-15 0)
(3 -1.54046e-15 0)
(3 -1.31359e-15 0)
(3 -3.10486e-16 0)
(3 -3.05304e-17 0)
(3 -9.30376e-16 0)
(3 -7.72137e-16 0)
(3 -2.35803e-17 0)
(3 -3.12677e-16 0)
(3 -1.55342e-15 0)
(3 -2.18299e-15 0)
(3 -1.67251e-15 0)
(3 -1.16095e-15 0)
(3 -1.43497e-15 0)
(3 -9.8385e-16 0)
(3 -7.33247e-16 0)
(3 -8.18487e-16 0)
(3 -8.2652e-16 0)
(3 -6.65458e-16 0)
(3 -3.77605e-16 0)
(3 -5.75018e-16 0)
(3 -5.72284e-16 0)
(3 -3.53094e-16 0)
(3 5.11884e-17 0)
(3 2.75519e-16 0)
(3 3.67888e-15 0)
(1.45503 0.00830518 0)
(0.769839 0.00885895 0)
(0.723448 0.0111419 0)
(0.696895 0.0120563 0)
(0.667037 0.0125543 0)
(0.637667 0.0130557 0)
(0.60758 0.0134943 0)
(0.577163 0.0137647 0)
(0.546725 0.0138395 0)
(0.516595 0.0138002 0)
(0.486804 0.0138464 0)
(0.456915 0.0141845 0)
(0.426347 0.0147184 0)
(0.394973 0.015168 0)
(0.363025 0.0154991 0)
(0.330526 0.0158813 0)
(0.297222 0.0163886 0)
(0.26283 0.017006 0)
(0.2271 0.0177401 0)
(0.189775 0.0185986 0)
(0.150663 0.0195704 0)
(0.109492 0.020663 0)
(0.0665108 0.0212419 0)
(0.023114 0.0219294 0)
(3 9.15157e-17 0)
(3 2.538e-16 0)
(3 2.83379e-16 0)
(3 9.4296e-17 0)
(3 -1.87086e-16 0)
(3 -1.02169e-15 0)
(3 -1.90329e-15 0)
(3 -2.35109e-15 0)
(3 -2.52807e-15 0)
(3 -2.2453e-15 0)
(3 -2.18195e-15 0)
(3 -1.72939e-15 0)
(3 -2.0792e-15 0)
(3 -1.8678e-15 0)
(3 -1.2762e-15 0)
(3 -9.42157e-17 0)
(3 1.08505e-15 0)
(3 1.71528e-15 0)
(3 5.00624e-16 0)
(3 6.82956e-17 0)
(3 3.56207e-17 0)
(3 8.35955e-16 0)
(3 3.23534e-16 0)
(3 -4.74e-16 0)
(3 -1.13635e-15 0)
(3 -3.84631e-16 0)
(3 5.69039e-16 0)
(3 7.61291e-16 0)
(3 7.21527e-16 0)
(3 1.68543e-15 0)
(3 1.97013e-15 0)
(3 9.16354e-16 0)
(3 1.98492e-16 0)
(3 -6.38996e-16 0)
(3 -8.17893e-16 0)
(3 -3.38602e-16 0)
(3 1.28685e-15 0)
(3 3.01706e-15 0)
(3 3.02621e-15 0)
(3 1.58522e-15 0)
(3 2.77156e-16 0)
(3 -2.16653e-16 0)
(3 -1.12555e-15 0)
(3 -1.74444e-15 0)
(3 -3.2718e-15 0)
(3 -4.08252e-15 0)
(3 -3.83506e-15 0)
(3 -2.75533e-15 0)
(3 -2.44e-15 0)
(3 -1.0764e-15 0)
(3 -8.91437e-16 0)
(3 -1.08171e-15 0)
(3 -1.65984e-16 0)
(3 7.11212e-16 0)
(3 -3.61409e-16 0)
(3 -2.90037e-15 0)
(3 -3.54886e-15 0)
(3 -3.11455e-15 0)
(3 -2.43344e-15 0)
(3 -1.19435e-15 0)
(3 -9.31821e-16 0)
(3 -8.71006e-16 0)
(3 -6.38824e-16 0)
(3 -4.03169e-16 0)
(3 4.96105e-17 0)
(3 2.92229e-16 0)
(3 -1.17944e-16 0)
(3 -5.38295e-16 0)
(3 -3.4156e-16 0)
(3 1.91239e-16 0)
(3 7.36213e-16 0)
(3 -1.68962e-15 0)
(1.47007 0.0384709 0)
(0.765736 0.0357757 0)
(0.715917 0.0329543 0)
(0.68908 0.0347619 0)
(0.659228 0.0361873 0)
(0.629903 0.0377757 0)
(0.599869 0.0392312 0)
(0.569461 0.0401721 0)
(0.538973 0.0404785 0)
(0.508763 0.0403741 0)
(0.478905 0.0405186 0)
(0.449001 0.0416056 0)
(0.418474 0.0433383 0)
(0.387174 0.0448168 0)
(0.355368 0.0459278 0)
(0.323142 0.0472002 0)
(0.29031 0.0488705 0)
(0.256642 0.0508879 0)
(0.221916 0.05325 0)
(0.185834 0.0559846 0)
(0.148078 0.0590494 0)
(0.108209 0.0625482 0)
(0.0661332 0.0646274 0)
(0.0232099 0.0671973 0)
(3 -1.10209e-17 0)
(3 -3.10236e-16 0)
(3 -2.58977e-17 0)
(3 1.91151e-16 0)
(3 -1.45246e-16 0)
(3 -5.61888e-16 0)
(3 -4.05358e-16 0)
(3 -5.02034e-16 0)
(3 -7.51878e-16 0)
(3 -4.90673e-16 0)
(3 -5.90258e-16 0)
(3 -6.9107e-16 0)
(3 -1.64284e-15 0)
(3 -2.21283e-15 0)
(3 -1.85873e-15 0)
(3 -1.50138e-15 0)
(3 -1.06354e-15 0)
(3 -5.71734e-16 0)
(3 -1.13688e-16 0)
(3 -6.24628e-17 0)
(3 4.6825e-16 0)
(3 3.08032e-16 0)
(3 -7.57621e-17 0)
(3 -1.35548e-15 0)
(3 -2.16383e-15 0)
(3 -1.25963e-15 0)
(3 -5.4266e-16 0)
(3 -4.51384e-16 0)
(3 -2.62351e-16 0)
(3 8.83543e-17 0)
(3 4.0467e-16 0)
(3 2.25049e-16 0)
(3 1.13489e-16 0)
(3 -2.66999e-16 0)
(3 -4.03266e-16 0)
(3 -4.69551e-16 0)
(3 6.84462e-16 0)
(3 1.67631e-15 0)
(3 2.04274e-15 0)
(3 1.77847e-15 0)
(3 5.79982e-16 0)
(3 -1.01653e-15 0)
(3 -2.13568e-15 0)
(3 -2.80952e-15 0)
(3 -3.0094e-15 0)
(3 -2.57829e-15 0)
(3 -2.31111e-15 0)
(3 -2.04638e-15 0)
(3 -1.68574e-15 0)
(3 -1.66595e-15 0)
(3 -1.27379e-15 0)
(3 -3.81469e-16 0)
(3 1.20581e-15 0)
(3 9.5319e-16 0)
(3 -6.90394e-16 0)
(3 -1.44141e-15 0)
(3 -1.5071e-15 0)
(3 -1.59153e-15 0)
(3 -1.54247e-15 0)
(3 -4.80834e-16 0)
(3 -3.50368e-16 0)
(3 -3.08709e-16 0)
(3 -3.34462e-16 0)
(3 -1.23992e-16 0)
(3 -1.7033e-16 0)
(3 -8.528e-17 0)
(3 6.32766e-17 0)
(3 -2.80467e-17 0)
(3 -4.01679e-17 0)
(3 -1.57137e-16 0)
(3 1.91582e-16 0)
(3 -3.39879e-15 0)
(1.51816 0.0678533 0)
(0.772281 0.062438 0)
(0.71796 0.0570896 0)
(0.68958 0.059406 0)
(0.658739 0.0615041 0)
(0.628728 0.063932 0)
(0.598225 0.0662493 0)
(0.567404 0.0678043 0)
(0.536451 0.0683492 0)
(0.505688 0.0681644 0)
(0.475225 0.0683048 0)
(0.444743 0.0699744 0)
(0.413692 0.0727378 0)
(0.381834 0.0750902 0)
(0.349414 0.0767769 0)
(0.316568 0.0786313 0)
(0.283207 0.0810456 0)
(0.249234 0.0839647 0)
(0.214594 0.0874468 0)
(0.179128 0.0916628 0)
(0.142544 0.0966041 0)
(0.104354 0.102571 0)
(0.0639167 0.106448 0)
(0.0226607 0.111373 0)
(3 -4.64528e-17 0)
(3 3.06708e-16 0)
(3 2.94237e-16 0)
(3 -9.54622e-17 0)
(3 -4.98054e-17 0)
(3 1.40421e-16 0)
(3 4.77861e-16 0)
(3 7.19597e-16 0)
(3 1.19006e-15 0)
(3 8.88663e-16 0)
(3 5.27623e-16 0)
(3 2.31573e-16 0)
(3 -5.45001e-16 0)
(3 -9.34987e-16 0)
(3 -1.1393e-15 0)
(3 -1.06752e-15 0)
(3 -1.10526e-15 0)
(3 -1.46059e-15 0)
(3 -1.44295e-15 0)
(3 -1.05704e-15 0)
(3 -5.81997e-16 0)
(3 -4.87281e-16 0)
(3 -1.04273e-15 0)
(3 -1.44328e-15 0)
(3 -2.10881e-15 0)
(3 -2.13617e-15 0)
(3 -1.43787e-15 0)
(3 -6.70488e-16 0)
(3 -5.09547e-16 0)
(3 -6.42655e-16 0)
(3 -8.2546e-16 0)
(3 -2.1788e-16 0)
(3 7.42932e-17 0)
(3 1.05206e-16 0)
(3 7.00418e-16 0)
(3 7.7908e-16 0)
(3 5.92018e-16 0)
(3 4.44176e-16 0)
(3 7.44343e-16 0)
(3 5.5449e-16 0)
(3 -2.67016e-16 0)
(3 -1.39487e-15 0)
(3 -1.25623e-15 0)
(3 -9.16336e-16 0)
(3 -1.70877e-15 0)
(3 -1.55573e-15 0)
(3 -1.78291e-15 0)
(3 -1.77391e-15 0)
(3 -7.42406e-16 0)
(3 -6.30365e-16 0)
(3 3.33834e-16 0)
(3 7.54232e-16 0)
(3 1.12103e-15 0)
(3 6.00422e-16 0)
(3 9.37744e-17 0)
(3 2.8039e-17 0)
(3 -1.59119e-16 0)
(3 -4.44407e-16 0)
(3 -1.95643e-16 0)
(3 -3.269e-16 0)
(3 -4.45674e-16 0)
(3 -7.1331e-16 0)
(3 -8.57085e-16 0)
(3 -7.99057e-16 0)
(3 -9.39537e-16 0)
(3 -1.13567e-15 0)
(3 -1.02914e-15 0)
(3 -4.26617e-17 0)
(3 1.92905e-17 0)
(3 -7.12967e-16 0)
(3 -1.90374e-16 0)
(3 7.9941e-16 0)
(1.5911 0.0943272 0)
(0.780524 0.0890103 0)
(0.721047 0.082114 0)
(0.692045 0.0841996 0)
(0.661169 0.0866687 0)
(0.631404 0.0897633 0)
(0.601315 0.0929213 0)
(0.570853 0.095217 0)
(0.540053 0.0962374 0)
(0.509184 0.0962233 0)
(0.478404 0.0965371 0)
(0.447522 0.0989206 0)
(0.416034 0.102884 0)
(0.383567 0.106363 0)
(0.350308 0.108899 0)
(0.316414 0.111544 0)
(0.281857 0.114771 0)
(0.246633 0.118439 0)
(0.210861 0.122585 0)
(0.174624 0.127579 0)
(0.13786 0.133544 0)
(0.100399 0.141368 0)
(0.0611634 0.146822 0)
(0.0217492 0.154094 0)
(3 1.02311e-16 0)
(3 2.0536e-16 0)
(3 -5.64305e-16 0)
(3 -6.48324e-16 0)
(3 -4.81542e-16 0)
(3 -4.84356e-16 0)
(3 -4.99784e-16 0)
(3 7.50808e-16 0)
(3 1.81262e-15 0)
(3 1.24103e-15 0)
(3 5.9003e-16 0)
(3 1.74968e-16 0)
(3 -3.88247e-17 0)
(3 -2.54862e-16 0)
(3 -4.08525e-16 0)
(3 -9.94987e-16 0)
(3 -9.57311e-16 0)
(3 -8.58762e-16 0)
(3 -8.42813e-16 0)
(3 -5.69488e-16 0)
(3 -6.02313e-16 0)
(3 -1.05606e-15 0)
(3 -1.66454e-15 0)
(3 -1.61447e-15 0)
(3 -1.89462e-15 0)
(3 -2.74315e-15 0)
(3 -2.42169e-15 0)
(3 -1.46497e-15 0)
(3 -1.28121e-15 0)
(3 -1.29311e-15 0)
(3 -1.40399e-15 0)
(3 -2.08077e-16 0)
(3 1.47429e-16 0)
(3 8.86087e-16 0)
(3 1.13213e-15 0)
(3 1.09265e-15 0)
(3 1.03867e-15 0)
(3 3.30218e-16 0)
(3 -4.58772e-16 0)
(3 -1.60996e-16 0)
(3 4.22956e-17 0)
(3 8.02332e-17 0)
(3 -1.35059e-15 0)
(3 -1.70042e-15 0)
(3 -1.40741e-15 0)
(3 -1.78814e-15 0)
(3 -1.69276e-15 0)
(3 -1.71987e-15 0)
(3 -1.64376e-15 0)
(3 -2.29712e-15 0)
(3 -1.3435e-15 0)
(3 -8.34088e-17 0)
(3 5.13037e-17 0)
(3 -2.4775e-18 0)
(3 6.1367e-16 0)
(3 -1.98761e-16 0)
(3 -7.75681e-16 0)
(3 -1.10447e-15 0)
(3 -6.94309e-16 0)
(3 -1.31883e-15 0)
(3 -2.05069e-15 0)
(3 -1.9325e-15 0)
(3 -1.46614e-15 0)
(3 -1.51326e-15 0)
(3 -1.66428e-15 0)
(3 -1.84916e-15 0)
(3 -2.06229e-15 0)
(3 -1.20665e-15 0)
(3 -1.10882e-15 0)
(3 -1.28561e-15 0)
(3 -4.01487e-16 0)
(3 -1.89934e-15 0)
(1.69118 0.120739 0)
(0.790892 0.116122 0)
(0.723209 0.108654 0)
(0.693139 0.109526 0)
(0.661998 0.111907 0)
(0.632362 0.11535 0)
(0.602693 0.119218 0)
(0.572715 0.122306 0)
(0.542302 0.123974 0)
(0.511653 0.124298 0)
(0.480997 0.124799 0)
(0.450322 0.12781 0)
(0.419219 0.13294 0)
(0.387123 0.137638 0)
(0.3541 0.141191 0)
(0.320277 0.144832 0)
(0.285572 0.149122 0)
(0.24991 0.153812 0)
(0.213384 0.158805 0)
(0.176176 0.164558 0)
(0.138393 0.171125 0)
(0.100343 0.180176 0)
(0.0607511 0.186629 0)
(0.0216552 0.195727 0)
(3 7.30301e-17 0)
(3 -5.12492e-18 0)
(3 -1.47645e-16 0)
(3 -1.29419e-16 0)
(3 -6.58147e-16 0)
(3 -8.15314e-16 0)
(3 -5.11591e-16 0)
(3 -3.08828e-16 0)
(3 -7.19999e-17 0)
(3 4.1492e-16 0)
(3 3.5243e-16 0)
(3 -9.22129e-17 0)
(3 2.60014e-16 0)
(3 8.61391e-16 0)
(3 1.00364e-16 0)
(3 -7.58845e-16 0)
(3 -8.14706e-16 0)
(3 -3.18024e-16 0)
(3 1.82065e-16 0)
(3 7.21339e-17 0)
(3 3.05811e-16 0)
(3 3.56465e-16 0)
(3 -2.64341e-16 0)
(3 -8.24202e-16 0)
(3 -1.70883e-15 0)
(3 -2.05737e-15 0)
(3 -2.30817e-15 0)
(3 -1.86486e-15 0)
(3 -4.58372e-16 0)
(3 -4.49409e-16 0)
(3 -1.38087e-17 0)
(3 8.17032e-17 0)
(3 -3.2953e-17 0)
(3 -1.97051e-16 0)
(3 -6.81179e-16 0)
(3 -6.26956e-16 0)
(3 -3.32321e-16 0)
(3 -1.62698e-16 0)
(3 -9.53269e-16 0)
(3 -7.07737e-16 0)
(3 5.41391e-16 0)
(3 2.02726e-16 0)
(3 -7.97572e-16 0)
(3 -1.10244e-15 0)
(3 -1.06542e-15 0)
(3 -1.3939e-15 0)
(3 -1.22574e-15 0)
(3 -1.31192e-15 0)
(3 -2.18493e-15 0)
(3 -2.33573e-15 0)
(3 -3.85081e-15 0)
(3 -3.12359e-15 0)
(3 -1.48848e-15 0)
(3 5.95898e-16 0)
(3 6.59618e-16 0)
(3 1.7665e-16 0)
(3 -8.87224e-16 0)
(3 -8.12781e-16 0)
(3 -9.59173e-16 0)
(3 -9.61146e-16 0)
(3 -9.09045e-16 0)
(3 -5.7939e-16 0)
(3 -3.03733e-16 0)
(3 -1.14021e-15 0)
(3 -2.37084e-15 0)
(3 -2.1212e-15 0)
(3 -1.91662e-15 0)
(3 -2.44708e-15 0)
(3 -2.40343e-15 0)
(3 -2.04859e-15 0)
(3 3.44101e-16 0)
(3 -4.03461e-16 0)
(1.82713 0.145293 0)
(0.807042 0.143828 0)
(0.727549 0.136878 0)
(0.696307 0.135517 0)
(0.664718 0.137435 0)
(0.634955 0.140993 0)
(0.605388 0.145461 0)
(0.575595 0.14939 0)
(0.545311 0.151888 0)
(0.514638 0.152771 0)
(0.483844 0.153508 0)
(0.453096 0.157029 0)
(0.422121 0.163237 0)
(0.390162 0.169196 0)
(0.357145 0.173874 0)
(0.323205 0.178624 0)
(0.288279 0.18411 0)
(0.252267 0.189992 0)
(0.215232 0.195982 0)
(0.177404 0.202609 0)
(0.13889 0.209668 0)
(0.1004 0.219708 0)
(0.0604545 0.226866 0)
(0.0215824 0.237428 0)
(3 -1.24356e-16 0)
(3 1.1609e-16 0)
(3 3.4643e-16 0)
(3 3.18923e-16 0)
(3 6.22091e-17 0)
(3 3.1414e-17 0)
(3 -9.60154e-17 0)
(3 -8.64327e-16 0)
(3 -1.07233e-15 0)
(3 -3.52222e-16 0)
(3 6.6003e-17 0)
(3 4.7416e-16 0)
(3 9.30843e-16 0)
(3 1.19367e-15 0)
(3 -6.66287e-17 0)
(3 -2.79699e-16 0)
(3 9.06784e-17 0)
(3 3.71737e-16 0)
(3 2.85964e-16 0)
(3 -6.36233e-17 0)
(3 -1.20383e-16 0)
(3 -1.52032e-16 0)
(3 -3.2333e-16 0)
(3 -1.40563e-15 0)
(3 -9.08709e-16 0)
(3 -3.09543e-16 0)
(3 -8.48774e-16 0)
(3 -2.68874e-16 0)
(3 5.12347e-16 0)
(3 6.54159e-16 0)
(3 3.77926e-16 0)
(3 5.56459e-16 0)
(3 9.087e-16 0)
(3 -1.63016e-16 0)
(3 -1.02231e-15 0)
(3 -1.02929e-15 0)
(3 -9.14409e-16 0)
(3 -9.67195e-16 0)
(3 -1.21807e-15 0)
(3 -1.67801e-15 0)
(3 -1.62891e-15 0)
(3 -1.44281e-15 0)
(3 -1.53536e-15 0)
(3 -1.76421e-15 0)
(3 -2.03084e-15 0)
(3 -1.93671e-15 0)
(3 -1.87564e-15 0)
(3 -1.39637e-15 0)
(3 -2.72534e-15 0)
(3 -2.72093e-15 0)
(3 -2.59851e-15 0)
(3 -2.8428e-15 0)
(3 -3.39825e-15 0)
(3 -2.65847e-15 0)
(3 -6.34493e-16 0)
(3 -2.17891e-17 0)
(3 1.94183e-16 0)
(3 1.44881e-16 0)
(3 -1.36242e-16 0)
(3 1.50087e-16 0)
(3 6.75485e-16 0)
(3 9.68705e-16 0)
(3 5.98019e-16 0)
(3 -4.23248e-16 0)
(3 -1.61561e-15 0)
(3 -1.63743e-15 0)
(3 -1.73171e-15 0)
(3 -2.44567e-15 0)
(3 -1.39649e-15 0)
(3 2.88516e-16 0)
(3 6.7673e-16 0)
(3 1.15534e-15 0)
(1.99853 0.164253 0)
(0.829522 0.171871 0)
(0.733414 0.165899 0)
(0.701953 0.161482 0)
(0.670604 0.162595 0)
(0.641501 0.166012 0)
(0.612856 0.170864 0)
(0.584091 0.175529 0)
(0.55472 0.178908 0)
(0.524653 0.180552 0)
(0.494127 0.18163 0)
(0.463483 0.18561 0)
(0.432626 0.192891 0)
(0.400638 0.200304 0)
(0.367301 0.206407 0)
(0.332818 0.21255 0)
(0.297199 0.219481 0)
(0.260354 0.226803 0)
(0.222305 0.234021 0)
(0.183303 0.241755 0)
(0.143352 0.249384 0)
(0.103503 0.260325 0)
(0.0621058 0.268 0)
(0.0221949 0.279734 0)
(3 1.51852e-16 0)
(3 5.733e-17 0)
(3 1.88973e-16 0)
(3 2.80322e-16 0)
(3 1.74129e-16 0)
(3 2.11278e-16 0)
(3 -2.36578e-17 0)
(3 -8.23842e-17 0)
(3 -1.37573e-17 0)
(3 9.35404e-17 0)
(3 2.40765e-16 0)
(3 7.53018e-16 0)
(3 2.7644e-16 0)
(3 3.77867e-16 0)
(3 6.30618e-16 0)
(3 6.91691e-16 0)
(3 1.03311e-15 0)
(3 1.29713e-15 0)
(3 8.50401e-16 0)
(3 2.94907e-16 0)
(3 -4.21467e-16 0)
(3 -2.39656e-16 0)
(3 -1.13344e-16 0)
(3 5.9625e-16 0)
(3 8.6634e-16 0)
(3 1.59795e-15 0)
(3 1.66658e-15 0)
(3 1.52965e-15 0)
(3 1.16441e-15 0)
(3 1.19157e-15 0)
(3 8.00034e-16 0)
(3 2.42253e-16 0)
(3 4.13056e-16 0)
(3 6.0816e-16 0)
(3 1.14239e-15 0)
(3 8.71743e-16 0)
(3 3.70324e-17 0)
(3 -4.76734e-16 0)
(3 -5.51702e-16 0)
(3 -6.17358e-16 0)
(3 -1.64522e-15 0)
(3 -1.87517e-15 0)
(3 -2.41408e-15 0)
(3 -2.46995e-15 0)
(3 -1.64892e-15 0)
(3 -1.63653e-15 0)
(3 -1.7338e-15 0)
(3 -1.56684e-15 0)
(3 -1.51537e-15 0)
(3 -1.20015e-15 0)
(3 -6.53124e-16 0)
(3 -9.08929e-16 0)
(3 -8.80299e-16 0)
(3 -1.54975e-15 0)
(3 -6.16268e-16 0)
(3 -3.46754e-17 0)
(3 2.88797e-16 0)
(3 1.6863e-16 0)
(3 -7.39203e-17 0)
(3 -1.21317e-16 0)
(3 6.40074e-16 0)
(3 1.01641e-15 0)
(3 -7.33886e-17 0)
(3 -7.4854e-16 0)
(3 -7.33482e-16 0)
(3 -6.5341e-16 0)
(3 -9.72203e-16 0)
(3 -1.22354e-15 0)
(3 -9.54274e-16 0)
(3 7.21279e-17 0)
(3 6.27319e-16 0)
(3 -1.34633e-15 0)
(2.20112 0.177614 0)
(0.853583 0.204383 0)
(0.732455 0.196285 0)
(0.701139 0.188186 0)
(0.669637 0.188313 0)
(0.640722 0.19132 0)
(0.612477 0.196304 0)
(0.58438 0.201649 0)
(0.555882 0.206036 0)
(0.526767 0.208718 0)
(0.497176 0.210305 0)
(0.467578 0.214663 0)
(0.438081 0.222941 0)
(0.407489 0.231898 0)
(0.375215 0.239614 0)
(0.341386 0.247362 0)
(0.305967 0.255968 0)
(0.268842 0.265017 0)
(0.230021 0.273747 0)
(0.189913 0.282866 0)
(0.148471 0.291217 0)
(0.107108 0.30303 0)
(0.0640846 0.3111 0)
(0.0228248 0.32375 0)
(3 2.85621e-16 0)
(3 -5.3367e-16 0)
(3 -3.03114e-16 0)
(3 -8.4975e-17 0)
(3 1.31286e-16 0)
(3 1.69819e-16 0)
(3 6.38284e-16 0)
(3 1.15664e-15 0)
(3 1.24631e-15 0)
(3 4.26355e-16 0)
(3 -3.58586e-17 0)
(3 1.0035e-16 0)
(3 -1.76052e-16 0)
(3 2.65375e-16 0)
(3 1.87774e-15 0)
(3 2.15654e-15 0)
(3 1.14812e-15 0)
(3 -7.54884e-17 0)
(3 -1.74822e-16 0)
(3 -1.70709e-16 0)
(3 -3.93613e-16 0)
(3 2.83809e-16 0)
(3 9.21572e-16 0)
(3 2.38005e-15 0)
(3 2.62504e-15 0)
(3 2.80746e-15 0)
(3 2.65124e-15 0)
(3 2.37153e-15 0)
(3 2.23413e-15 0)
(3 2.04025e-15 0)
(3 1.75766e-15 0)
(3 1.38417e-16 0)
(3 -9.78864e-16 0)
(3 -7.65323e-16 0)
(3 4.01456e-16 0)
(3 2.6402e-16 0)
(3 -4.13993e-16 0)
(3 -1.1207e-16 0)
(3 4.3354e-16 0)
(3 1.25039e-17 0)
(3 -7.83689e-16 0)
(3 -1.78867e-15 0)
(3 -1.95663e-15 0)
(3 -1.82599e-15 0)
(3 -1.59127e-15 0)
(3 -8.13056e-16 0)
(3 -7.9022e-16 0)
(3 -1.17893e-15 0)
(3 -6.31842e-16 0)
(3 -3.54457e-16 0)
(3 8.80443e-16 0)
(3 1.72965e-15 0)
(3 1.7005e-15 0)
(3 1.779e-16 0)
(3 -4.13117e-16 0)
(3 -4.02093e-16 0)
(3 -2.56338e-16 0)
(3 -3.45581e-16 0)
(3 -3.02662e-16 0)
(3 -1.32568e-16 0)
(3 -1.43538e-16 0)
(3 -8.56346e-16 0)
(3 -1.48829e-15 0)
(3 -1.14439e-15 0)
(3 -9.63667e-16 0)
(3 -1.15093e-15 0)
(3 -1.42849e-15 0)
(3 -1.33764e-15 0)
(3 -1.31271e-15 0)
(3 -1.09132e-15 0)
(3 -9.33212e-16 0)
(3 -3.62378e-15 0)
(2.43916 0.188632 0)
(0.892886 0.244407 0)
(0.74337 0.225936 0)
(0.715051 0.216835 0)
(0.682358 0.216095 0)
(0.65201 0.218509 0)
(0.622121 0.223257 0)
(0.592718 0.228713 0)
(0.563321 0.233484 0)
(0.53362 0.236783 0)
(0.503641 0.238558 0)
(0.473967 0.242778 0)
(0.445073 0.251637 0)
(0.415652 0.26211 0)
(0.384594 0.271725 0)
(0.351838 0.281514 0)
(0.317208 0.292304 0)
(0.280457 0.303627 0)
(0.241404 0.314389 0)
(0.200485 0.325403 0)
(0.157417 0.334997 0)
(0.113914 0.348052 0)
(0.0682036 0.356737 0)
(0.0242717 0.37028 0)
(3 -3.04031e-16 0)
(3 -2.38581e-16 0)
(3 -2.82149e-16 0)
(3 -4.28424e-16 0)
(3 -4.35762e-17 0)
(3 1.83012e-16 0)
(3 9.06518e-16 0)
(3 1.38799e-15 0)
(3 1.1342e-15 0)
(3 5.81668e-16 0)
(3 1.95585e-16 0)
(3 -3.46239e-16 0)
(3 3.26641e-17 0)
(3 3.97097e-16 0)
(3 9.14743e-16 0)
(3 1.25598e-15 0)
(3 1.01027e-15 0)
(3 4.20459e-16 0)
(3 -4.22891e-16 0)
(3 -7.70769e-16 0)
(3 4.28594e-16 0)
(3 7.22534e-16 0)
(3 9.45609e-16 0)
(3 1.74537e-15 0)
(3 3.16473e-15 0)
(3 3.27866e-15 0)
(3 2.8816e-15 0)
(3 2.5146e-15 0)
(3 2.12211e-15 0)
(3 1.74068e-15 0)
(3 6.99544e-16 0)
(3 7.52044e-16 0)
(3 6.26336e-17 0)
(3 -6.77064e-17 0)
(3 -1.06043e-18 0)
(3 -2.32464e-16 0)
(3 -5.52256e-16 0)
(3 -1.75008e-16 0)
(3 -1.30901e-16 0)
(3 -5.00729e-16 0)
(3 -8.30699e-16 0)
(3 -1.33238e-15 0)
(3 -1.20015e-15 0)
(3 -1.6114e-15 0)
(3 -1.75844e-15 0)
(3 -8.69289e-16 0)
(3 -5.08624e-16 0)
(3 -6.63833e-16 0)
(3 -3.29345e-16 0)
(3 1.89649e-17 0)
(3 5.78261e-16 0)
(3 -8.02625e-16 0)
(3 -9.22817e-16 0)
(3 -2.96075e-16 0)
(3 -4.48182e-16 0)
(3 -3.8182e-16 0)
(3 -1.35299e-16 0)
(3 -1.53488e-16 0)
(3 -2.45879e-16 0)
(3 -6.38533e-16 0)
(3 -1.1254e-15 0)
(3 -9.6876e-16 0)
(3 -2.96807e-16 0)
(3 7.42343e-18 0)
(3 -2.6616e-16 0)
(3 -7.30605e-16 0)
(3 -1.09438e-15 0)
(3 -6.52502e-16 0)
(3 -7.45905e-16 0)
(3 -1.21931e-15 0)
(3 -1.80958e-15 0)
(3 -2.37198e-15 0)
(2.70928 0.184371 0)
(0.966757 0.279789 0)
(0.777701 0.241209 0)
(0.751115 0.23976 0)
(0.715123 0.241875 0)
(0.681655 0.245316 0)
(0.648129 0.250529 0)
(0.615194 0.256576 0)
(0.582554 0.262167 0)
(0.55006 0.266383 0)
(0.517633 0.268445 0)
(0.485894 0.272069 0)
(0.455714 0.280776 0)
(0.426094 0.292231 0)
(0.395462 0.303512 0)
(0.36348 0.315357 0)
(0.329674 0.328613 0)
(0.293398 0.342848 0)
(0.253976 0.356549 0)
(0.211903 0.370416 0)
(0.166843 0.382097 0)
(0.120933 0.396826 0)
(0.0723987 0.406327 0)
(0.025463 0.42053 0)
(3 5.58202e-17 0)
(3 4.46669e-16 0)
(3 5.55266e-16 0)
(3 4.73643e-16 0)
(3 4.80342e-16 0)
(3 4.83414e-16 0)
(3 -1.66849e-16 0)
(3 -5.31458e-16 0)
(3 -5.68769e-16 0)
(3 -5.33296e-17 0)
(3 4.82306e-16 0)
(3 2.15755e-16 0)
(3 3.55112e-16 0)
(3 1.87101e-16 0)
(3 1.48998e-16 0)
(3 -6.84759e-16 0)
(3 1.16922e-16 0)
(3 9.37435e-16 0)
(3 9.73866e-16 0)
(3 2.94907e-16 0)
(3 1.24807e-15 0)
(3 1.64888e-15 0)
(3 1.4406e-15 0)
(3 1.41381e-15 0)
(3 1.80611e-15 0)
(3 2.42689e-15 0)
(3 2.24158e-15 0)
(3 2.37407e-15 0)
(3 2.28599e-15 0)
(3 1.37209e-15 0)
(3 9.18739e-16 0)
(3 6.04625e-16 0)
(3 2.89728e-16 0)
(3 -4.0626e-16 0)
(3 -8.20401e-16 0)
(3 -2.24035e-16 0)
(3 3.35327e-16 0)
(3 -6.30521e-17 0)
(3 3.18053e-16 0)
(3 6.00635e-16 0)
(3 8.91506e-16 0)
(3 6.60953e-16 0)
(3 -5.61206e-17 0)
(3 -1.36063e-15 0)
(3 -1.51564e-15 0)
(3 -1.26549e-15 0)
(3 -1.38689e-15 0)
(3 -9.81999e-16 0)
(3 -6.68272e-16 0)
(3 -5.69837e-16 0)
(3 -1.53406e-15 0)
(3 -1.75685e-15 0)
(3 -2.18174e-15 0)
(3 -1.91639e-15 0)
(3 -1.74208e-15 0)
(3 -1.24079e-15 0)
(3 -7.55685e-16 0)
(3 -5.80999e-16 0)
(3 4.80015e-16 0)
(3 3.1928e-16 0)
(3 6.99181e-17 0)
(3 6.12217e-17 0)
(3 4.53574e-16 0)
(3 2.20194e-16 0)
(3 6.65152e-17 0)
(3 2.68109e-16 0)
(3 1.12735e-15 0)
(3 1.31292e-15 0)
(3 -5.40959e-17 0)
(3 -8.49127e-16 0)
(3 -1.23508e-15 0)
(3 -1.84954e-15 0)
(2.95735 0.0748535 0)
(1.06408 0.292061 0)
(0.806942 0.257018 0)
(0.789991 0.263432 0)
(0.753931 0.268787 0)
(0.718776 0.274217 0)
(0.6825 0.280724 0)
(0.646742 0.287556 0)
(0.611357 0.293562 0)
(0.576032 0.298464 0)
(0.540592 0.300948 0)
(0.505786 0.303734 0)
(0.47288 0.311558 0)
(0.441588 0.323244 0)
(0.410181 0.335612 0)
(0.378091 0.349186 0)
(0.344702 0.364918 0)
(0.30919 0.382463 0)
(0.270314 0.399684 0)
(0.228328 0.416951 0)
(0.182142 0.431488 0)
(0.133656 0.449014 0)
(0.0807048 0.460555 0)
(0.0285116 0.476024 0)
(3 1.58126e-16 0)
(3 7.79448e-17 0)
(3 -1.13412e-16 0)
(3 1.04208e-16 0)
(3 8.57941e-17 0)
(3 -1.14367e-16 0)
(3 -3.9616e-16 0)
(3 -7.91328e-16 0)
(3 -8.25336e-16 0)
(3 -7.4332e-16 0)
(3 -3.63725e-16 0)
(3 -2.93609e-17 0)
(3 1.55531e-16 0)
(3 4.95101e-16 0)
(3 3.68484e-16 0)
(3 1.28021e-16 0)
(3 5.5051e-16 0)
(3 1.14902e-15 0)
(3 2.03001e-15 0)
(3 1.88771e-15 0)
(3 1.3321e-15 0)
(3 1.50289e-15 0)
(3 1.65977e-15 0)
(3 8.70186e-16 0)
(3 4.5001e-16 0)
(3 8.30209e-16 0)
(3 1.13108e-15 0)
(3 1.13065e-15 0)
(3 1.55119e-15 0)
(3 2.66632e-15 0)
(3 1.72174e-15 0)
(3 6.37992e-16 0)
(3 1.09516e-16 0)
(3 -4.07994e-16 0)
(3 -7.01238e-16 0)
(3 4.40686e-17 0)
(3 1.11666e-15 0)
(3 1.49712e-15 0)
(3 1.65274e-15 0)
(3 1.84286e-15 0)
(3 1.23445e-15 0)
(3 5.14371e-16 0)
(3 -1.56698e-16 0)
(3 -1.60835e-16 0)
(3 -3.79432e-16 0)
(3 -9.34274e-16 0)
(3 -9.11614e-16 0)
(3 -1.07685e-15 0)
(3 -1.55185e-15 0)
(3 -1.82213e-15 0)
(3 -1.70994e-15 0)
(3 -1.13531e-15 0)
(3 -1.7141e-15 0)
(3 -2.44629e-15 0)
(3 -1.68997e-15 0)
(3 -8.67212e-16 0)
(3 -2.36386e-16 0)
(3 7.39534e-16 0)
(3 1.41682e-15 0)
(3 1.52331e-15 0)
(3 1.4569e-15 0)
(3 1.26695e-15 0)
(3 2.34439e-16 0)
(3 -2.27711e-16 0)
(3 7.94781e-18 0)
(3 2.93887e-17 0)
(3 5.26109e-16 0)
(3 6.22589e-16 0)
(3 -2.2687e-16 0)
(3 -1.36218e-15 0)
(3 -1.16466e-15 0)
(3 -1.07361e-15 0)
(3.01687 0.00671421 0)
(1.15251 0.287645 0)
(0.80779 0.270915 0)
(0.798006 0.293426 0)
(0.769188 0.301188 0)
(0.740633 0.30581 0)
(0.709889 0.311238 0)
(0.67742 0.318343 0)
(0.643219 0.326105 0)
(0.607736 0.332689 0)
(0.570953 0.336301 0)
(0.533688 0.338653 0)
(0.497683 0.345183 0)
(0.463706 0.356425 0)
(0.430431 0.369204 0)
(0.397345 0.383861 0)
(0.363841 0.40145 0)
(0.328913 0.422179 0)
(0.290202 0.443635 0)
(0.247168 0.466073 0)
(0.197999 0.485933 0)
(0.145676 0.508157 0)
(0.0881959 0.523023 0)
(0.0300018 0.539192 0)
(3 -7.71637e-17 0)
(3 -1.10826e-17 0)
(3 -1.35813e-16 0)
(3 -1.33607e-16 0)
(3 -1.76918e-16 0)
(3 -3.86906e-16 0)
(3 -3.48815e-16 0)
(3 -2.33048e-16 0)
(3 -1.10791e-16 0)
(3 -5.90877e-16 0)
(3 -1.40588e-15 0)
(3 -1.04653e-15 0)
(3 -2.62671e-16 0)
(3 1.4895e-16 0)
(3 6.20904e-16 0)
(3 1.22815e-15 0)
(3 1.3401e-15 0)
(3 2.49674e-15 0)
(3 3.16617e-15 0)
(3 2.93785e-15 0)
(3 2.66145e-15 0)
(3 1.46363e-15 0)
(3 1.38817e-15 0)
(3 1.47213e-15 0)
(3 1.04327e-15 0)
(3 -4.43291e-16 0)
(3 -2.76099e-16 0)
(3 -2.17619e-16 0)
(3 6.41001e-16 0)
(3 9.26904e-16 0)
(3 -2.64926e-16 0)
(3 -3.9553e-16 0)
(3 -4.84506e-16 0)
(3 -3.27036e-16 0)
(3 -1.16617e-16 0)
(3 1.53394e-15 0)
(3 1.77039e-15 0)
(3 1.46578e-15 0)
(3 4.32279e-16 0)
(3 1.87068e-16 0)
(3 1.17749e-16 0)
(3 8.09777e-16 0)
(3 1.4667e-15 0)
(3 1.50242e-15 0)
(3 2.49605e-16 0)
(3 -5.93325e-16 0)
(3 -4.01528e-16 0)
(3 -5.4653e-16 0)
(3 -9.79824e-16 0)
(3 -1.20289e-15 0)
(3 -1.07499e-15 0)
(3 -7.12421e-16 0)
(3 -2.24569e-16 0)
(3 -8.41495e-16 0)
(3 -1.21668e-15 0)
(3 -6.89262e-16 0)
(3 -5.60249e-16 0)
(3 3.40404e-17 0)
(3 1.10543e-15 0)
(3 1.74757e-15 0)
(3 1.71861e-15 0)
(3 1.29075e-15 0)
(3 -1.96182e-16 0)
(3 -4.5763e-16 0)
(3 -3.37666e-16 0)
(3 -6.49344e-16 0)
(3 -6.39608e-16 0)
(3 -4.95705e-16 0)
(3 -7.53932e-16 0)
(3 -1.5815e-15 0)
(3 -2.18261e-15 0)
(3 -2.33224e-15 0)
(3.00054 1.53584e-05 0)
(1.28553 0.307216 0)
(0.79756 0.278243 0)
(0.78047 0.3085 0)
(0.758225 0.325232 0)
(0.73597 0.332765 0)
(0.714534 0.339379 0)
(0.692682 0.347089 0)
(0.667831 0.355748 0)
(0.638125 0.364842 0)
(0.604122 0.371645 0)
(0.567205 0.37556 0)
(0.529562 0.381642 0)
(0.493096 0.392442 0)
(0.457473 0.405117 0)
(0.42266 0.420142 0)
(0.387893 0.439109 0)
(0.352909 0.463023 0)
(0.314711 0.489475 0)
(0.272581 0.518003 0)
(0.224159 0.543288 0)
(0.171153 0.571113 0)
(0.10669 0.593068 0)
(0.0384989 0.613549 0)
(3 -3.33614e-18 0)
(3 1.16025e-16 0)
(3 7.63843e-16 0)
(3 6.24049e-16 0)
(3 3.26456e-16 0)
(3 -4.19843e-16 0)
(3 -5.03534e-16 0)
(3 -9.80448e-17 0)
(3 -3.46879e-17 0)
(3 -1.1598e-16 0)
(3 -5.47984e-16 0)
(3 -7.25986e-17 0)
(3 5.34064e-16 0)
(3 6.71038e-16 0)
(3 9.22936e-16 0)
(3 1.61883e-15 0)
(3 2.04269e-15 0)
(3 2.02292e-15 0)
(3 1.73411e-15 0)
(3 1.99695e-15 0)
(3 3.14334e-15 0)
(3 2.654e-15 0)
(3 2.13573e-15 0)
(3 1.74934e-15 0)
(3 1.30809e-15 0)
(3 4.41421e-16 0)
(3 1.49097e-16 0)
(3 -3.2427e-16 0)
(3 -4.73998e-16 0)
(3 -1.16153e-15 0)
(3 -1.20364e-15 0)
(3 -6.34175e-16 0)
(3 -4.98583e-16 0)
(3 -3.44285e-17 0)
(3 5.58678e-16 0)
(3 8.1018e-16 0)
(3 4.61097e-16 0)
(3 -3.16174e-16 0)
(3 -2.34821e-17 0)
(3 -1.72479e-16 0)
(3 1.74907e-16 0)
(3 9.00812e-16 0)
(3 1.64637e-15 0)
(3 1.58553e-15 0)
(3 9.40629e-16 0)
(3 -1.40919e-16 0)
(3 -3.55116e-16 0)
(3 -1.39131e-16 0)
(3 -5.07241e-16 0)
(3 -9.31552e-16 0)
(3 -1.34414e-15 0)
(3 -1.44343e-15 0)
(3 -1.93466e-16 0)
(3 -1.39208e-16 0)
(3 -7.60544e-17 0)
(3 -2.40817e-16 0)
(3 -3.04577e-16 0)
(3 1.02734e-16 0)
(3 6.96221e-16 0)
(3 2.02996e-15 0)
(3 1.31269e-15 0)
(3 5.29023e-16 0)
(3 4.39526e-16 0)
(3 9.32749e-16 0)
(3 6.81062e-16 0)
(3 -2.37543e-16 0)
(3 -6.97124e-16 0)
(3 -8.85564e-16 0)
(3 -6.81412e-16 0)
(3 -1.22297e-15 0)
(3 -2.24937e-15 0)
(3 -2.10639e-15 0)
(3 -5.53559e-08 0)
(1.50599 0.336595 0)
(0.808445 0.310022 0)
(0.752024 0.31842 0)
(0.735466 0.332169 0)
(0.718539 0.341915 0)
(0.703834 0.35294 0)
(0.688071 0.365105 0)
(0.672542 0.379326 0)
(0.653752 0.392805 0)
(0.628969 0.404062 0)
(0.598057 0.411875 0)
(0.563262 0.419496 0)
(0.52731 0.43082 0)
(0.490669 0.443528 0)
(0.454227 0.458849 0)
(0.41851 0.478417 0)
(0.383735 0.504582 0)
(0.346643 0.535155 0)
(0.306143 0.570245 0)
(0.255291 0.605789 0)
(0.194983 0.646476 0)
(0.122832 0.684343 0)
(0.0388156 0.70971 0)
(3 -7.34173e-17 0)
(3 3.66657e-17 0)
(3 -3.2274e-17 0)
(3 -1.71426e-16 0)
(3 -2.22515e-16 0)
(3 5.71682e-18 0)
(3 -7.72447e-17 0)
(3 -3.3068e-16 0)
(3 -3.49376e-16 0)
(3 -6.81093e-17 0)
(3 7.25291e-16 0)
(3 6.82211e-16 0)
(3 5.73988e-16 0)
(3 6.82809e-16 0)
(3 6.70619e-16 0)
(3 8.44906e-16 0)
(3 1.58098e-15 0)
(3 1.36979e-15 0)
(3 2.81049e-16 0)
(3 5.69428e-16 0)
(3 1.10207e-15 0)
(3 1.00165e-15 0)
(3 -1.10136e-16 0)
(3 -4.23355e-16 0)
(3 -4.74292e-16 0)
(3 3.19487e-16 0)
(3 8.48948e-16 0)
(3 8.93101e-16 0)
(3 -6.47504e-17 0)
(3 -4.6294e-16 0)
(3 6.53159e-16 0)
(3 6.01978e-16 0)
(3 4.68067e-16 0)
(3 5.02769e-16 0)
(3 3.61305e-16 0)
(3 -7.19021e-16 0)
(3 -1.24698e-15 0)
(3 -1.10888e-15 0)
(3 -2.30341e-16 0)
(3 -1.04521e-18 0)
(3 6.85468e-17 0)
(3 3.68433e-16 0)
(3 8.48988e-16 0)
(3 1.43255e-15 0)
(3 1.52198e-15 0)
(3 5.5698e-16 0)
(3 -1.99538e-16 0)
(3 -6.57136e-16 0)
(3 -1.17654e-15 0)
(3 -1.76469e-15 0)
(3 -2.62525e-15 0)
(3 -3.75171e-15 0)
(3 -2.11737e-15 0)
(3 6.26141e-16 0)
(3 1.62033e-15 0)
(3 8.64256e-16 0)
(3 3.61608e-16 0)
(3 6.14301e-16 0)
(3 7.92887e-16 0)
(3 8.63734e-16 0)
(3 2.59351e-16 0)
(3 4.6897e-16 0)
(3 1.14427e-15 0)
(3 1.16235e-15 0)
(3 4.06009e-18 0)
(3 -4.40585e-16 0)
(3 -8.56347e-16 0)
(3 -1.12946e-15 0)
(3 -1.00619e-15 0)
(3 -7.21731e-16 0)
(3 -1.04772e-15 0)
(3 -1.23729e-15 0)
(3 -7.12045e-08 0)
(1.84256 0.375412 0)
(0.836972 0.37017 0)
(0.744947 0.349239 0)
(0.72557 0.349264 0)
(0.7108 0.356466 0)
(0.696479 0.36553 0)
(0.682564 0.377322 0)
(0.669034 0.392431 0)
(0.65621 0.410622 0)
(0.641032 0.428457 0)
(0.619429 0.442679 0)
(0.591987 0.454698 0)
(0.561115 0.46876 0)
(0.526533 0.483605 0)
(0.491079 0.499801 0)
(0.455258 0.519571 0)
(0.420521 0.547309 0)
(0.384607 0.582484 0)
(0.346091 0.626933 0)
(0.30038 0.676752 0)
(0.245992 0.728953 0)
(0.177564 0.781731 0)
(0.0692515 0.829041 0)
(3 -1.50596e-17 0)
(3 -2.13043e-16 0)
(3 -1.63498e-16 0)
(3 1.81464e-16 0)
(3 3.59844e-16 0)
(3 5.95794e-16 0)
(3 3.1536e-16 0)
(3 -1.08544e-15 0)
(3 -1.54118e-15 0)
(3 -1.18584e-15 0)
(3 -2.05325e-16 0)
(3 2.94299e-16 0)
(3 3.97293e-16 0)
(3 1.0154e-16 0)
(3 6.44825e-17 0)
(3 1.00274e-16 0)
(3 3.01781e-16 0)
(3 4.71653e-17 0)
(3 -1.18834e-17 0)
(3 2.7573e-16 0)
(3 3.86236e-16 0)
(3 5.62219e-16 0)
(3 -5.39179e-17 0)
(3 -3.64547e-16 0)
(3 -4.0518e-16 0)
(3 6.09901e-16 0)
(3 7.5694e-16 0)
(3 5.96009e-16 0)
(3 4.10078e-16 0)
(3 7.45727e-16 0)
(3 1.07496e-15 0)
(3 2.79285e-16 0)
(3 -1.69438e-16 0)
(3 -8.19494e-16 0)
(3 -1.8686e-15 0)
(3 -2.00068e-15 0)
(3 -1.19652e-15 0)
(3 -6.61693e-16 0)
(3 -6.43921e-16 0)
(3 4.13026e-16 0)
(3 1.2239e-15 0)
(3 1.9491e-15 0)
(3 1.02174e-15 0)
(3 1.32172e-15 0)
(3 1.82783e-15 0)
(3 1.64425e-15 0)
(3 8.06648e-16 0)
(3 -9.60232e-17 0)
(3 -9.64015e-16 0)
(3 -8.65147e-16 0)
(3 -1.05225e-15 0)
(3 -1.02412e-15 0)
(3 -4.21449e-16 0)
(3 6.89209e-16 0)
(3 1.8244e-15 0)
(3 1.85392e-15 0)
(3 1.19748e-15 0)
(3 -1.03541e-16 0)
(3 -1.28531e-17 0)
(3 -3.47372e-18 0)
(3 -1.53791e-16 0)
(3 -3.76256e-16 0)
(3 -4.99921e-16 0)
(3 -7.63031e-16 0)
(3 -6.95068e-16 0)
(3 1.11854e-16 0)
(3 -8.60761e-16 0)
(3 -1.75887e-15 0)
(3 -1.84164e-15 0)
(3 -1.83231e-15 0)
(3 -1.22804e-15 0)
(3 -1.81333e-15 0)
(3 -1.52058e-08 0)
(2.33353 0.374217 0)
(0.911623 0.438526 0)
(0.787734 0.376403 0)