/*--------------------------------*- C++ -*----------------------------------*\
  =========                 |
  \\      /  F ield         | OpenFOAM: The Open Source CFD Toolbox
   \\    /   O peration     | Website:  https://openfoam.org
    \\  /    A nd           | Version:  7
     \\/     M anipulation  |
\*---------------------------------------------------------------------------*/
FoamFile
{
    version     2.0;
    format      ascii;
    class       volScalarField;
    location    "2.2";
    object      T;
}
// * * * * * * * * * * * * * * * * * * * * * * * * * * * * * * * * * * * * * //

dimensions      [0 0 0 1 0 0 0];

internalField   nonuniform List<scalar> 
4128
(
1
1
1
1
1
1
1
1
1
1
1
1
1
1
1
1
1
1
1
1
1
1
1
1
1
1
1
1
1
1
1
1
1
1
1
1
1
1
1
1
1
1
1
1
1
1
1
1
1
1
1
1
1
1
1
1
1
1
1
1
1
1
1
1
1
1
1
1
1
1
1
1
1
1
1
1
1
1
1
1
1
1
1
1
1
1
1
1
1
1
1
1
1
1
1
1
1
1
1
1
1
1
1
1
1
1
1
1
1
1
1
1
1
1
1
1
1
1
1
1
1
1
1
1
1
1
1
1
1
1
1
1
1
1
1
1
1
1
1
1
1
1
1
1
1
1
1
1
1
1
1
1
1
1
1
1
1
1
1
1
1
1
1
1
1
1
1
1
1
1
1
1
1
1
1
1
1
1
1
1
1
1
1
1
1
1
1
1
1
1
1
1
1
1
1
1
1
1
1
1
1
1
1
1
1
1
1
1
1
1
1
1
1
1
1
1
1
1
1
1
1
1
1
1
1
1
1
1
1
1
1
1
1
1
1
1
1
1
1
1
1
1
1
1
1
1
1
1
1
1
1
1
1
1
1
1
1
1
1
1
1
1
1
1
1
1
1
1
1
1
1
1
1
1
1
1
1
1
1
1
1
1
1
1
1
1
1
1
1
1
1
1
1
1
1
1
1
1
1
1
1
1
1
1
1
1
1
1
1
1
1
1
1
1
1
1
1
1
1
1
1
1
1
1
1
1
1
1
1
1
1
1
1
1
1
1
1
1
1
1
1
1
1
1
1
1
1
1
1
1
1
1
1
1
1
1
1
1
1
1
1
1
1
1
1
1
1
1
1
1
1
1
1
1
1
1
1
1
1
1
1
1
1
1
1
1
1
1
1
1
1
1
1
1
1
1
1
1
1
1
1
1
1
1
1
1
1
1
1
1
1
1
1
1
1
1
1
1
1
1
1
1
1
1
1
1
1
1
1
1
1
1
1
1
1
1
1
1
1
1
1
1
1
1
1
1
1
1
1
1
1
1
1
1
1
1
1
1
1
1
1
1
1
1
1
1
1
1
1
1
1
1
1
1
1
1
1
1
1
1
1
1
1
1
1
1
1
1
1
1
1
1
1
1
1
1
1
1
1
1
1
1
1
1
1
1
1
1
1
1
1
1
1
1
1
1
1
1
1
1
1
1
1
1
1
1
1
1
1
1
1
1
1
1
1
1
1
1
1
1
1
1
1
1
1
1
1
1
1
1
1
1
1
1
1
1
1
1
1
1
1
1
1
1
1
1
1
1
1
1
1
1
1
1
1
1
1
1
1
1
1
1
1
1
1
1
1
1
1
1
1
1
1
1
1
1
1
1
1
1
1
1
1
1
1
1
1
1
1
1
1
1
1
1
1
1
1
1
1
1
1
1
1
1
1
1
1
1
1
1
1
1
1
1
1
1
1
1
1
1
1
1
1
1
1
1
1
1
1
1
1
1
1
1
1
1
1
1
1
1
1
1
1
1
1
1
1
1
1
1
1
1
1
1
1
1
1
1
1
1
1
1
1
1
1
1
1
1
1
1
1
1
1
1
1
1
1
1
1
1
1
1
1
1
1
1
1
1
1
1
1
1
1
1
1
1
1
1
1
1
1
1
1
1
1
1
1
1
1
1
1
1
1
1
1
1
1
1
1
1
1
1
1
1
1
1
1
1
1
1
1
1
1
1
1
1
1
1
1
1
1
1
1
1
1
1
1
1
1
1
1
1
1
1
1
1
1
1
1
1
1
1
1
1
1
1
1
1
1
1
1
1
1
1
1
1
1
1
1
1
1
1
1
1
1
1
1
1
1
1
1
1
1
1
1
1
1
1
1
1
1
1
1
1
1
1
1
1
1
1
1
1
1
1
1
1
1
1
1
1
1
1
1
1
1
1
1
1
1
1
1
1
1
1
1
1
1
1
1
1
1
1
1
1
1
1
1
1
1
1
1
1
1
1
1
1
1
1
1
1
1
1
1
1
1
1
1
1
1
1
1
1
1
1
1
1
1
1
1
1
1
1
1
1
1
1
1
1
1
1
1
1
1
1
1
1
1
1
1
1
1
1
1
1
1
1
1
1
1
1
1
1
1
1
1
1
1
1
1
1
1
1
1
1
1
1
1
1
1
1
1
1
1
1
1
1
1
1
1
1
1
1
1
1
1
1
1
1
1
1
1
1
1
1
1
1
1
1
1
1
1
1
1
1
1
1
1
1
1
1
1
1
1
1
1
1
1
1
1
1
1
1
1
1
1
1
1
1
1
1
1
1
1
1
1
1
1
1
1
1
1
1
1
1
1
1
1
1
1
1
1
1
1
1
1
1
1
1
1
1
1
1
1
1
1
1
1
1
1
1
1
1
1
1
1
1
1
1
1
1
1
1
1
1
1
1
1
1
1
1
1
1
1
1
1
1
1
1
1
1
1
1
1
1
1
1
1
1
1
1
1
1
1
1
1
1
1
1
1
1
1
1
1
1
1
1
1
1
1
1
1
1
1
1
1
1
1
1
1
1
1
1
1
1
1
1
1
1
1
1
1
1
1
1
1
1
1
1
1
1
1
1
1
1
1
1
1
1
1
1
1
1
1
1
1
1
1
1
1
1
1
1
1
1
1
1
1
1
1
1
1
1
1
1
1
1
1
1
1
1
1
1
1
1
1
1
1
1
1
1
1
1
1
1
1
1
1
1
1
1
1
1
1
1
1
1
1
1
1
1
1
1
1
1
1
1
1
1
1
1
1
1
1
1
1
1
1
1
1
1
1
1
1
1
1
1
1
1
1
1
1
1
1
1
1
1
1
1
1
1
1
1
1
1
1
1
1
1
1
1
1
1
1
1
1
1
1
1
1
1
1
1
1
1
1
1
1
1
1
1
1
1
1
1
1
1
1
1
1
1
1
1
1
1
1
1
1
1
1
1
1
1
1
1
1
1
1
1
1
1
1
1
1
1
1
1
1
1
1
1
1
1
1
1
1
1
1
1
1
1
1
1
1
1
1
1
1
1
1
1
1
1
1
1
1
1
1
1
1
1
1
1
1
1
1
1
1
1
1
1
1
1
1
1
1
1
1
1
1
1
1
1
1
1
1
1
1
1
1
1
1
1
1
1
1
1
1
1
1
1
1
1
1
1
1
1
1
1
1
1
1
1
1
1
1
1
1
1
1
1
1
1
1
1
1
1
1
1
1
1
1
1
1
1
1
1
1
1
1
1
1
1
1
1
1
1
1
1
1
1
1
1
1
1
1
1
1
1
1
1
1
1
1
1
1
1
1
1
1
1
1
1
1
1
1
1
1
1
1
1
1
1
1
1
1
1
1
1
1
1
1
1
1
1
1
1
1
1
1
1
1
1
1
1
1
1
1
1
1
1
1
1
1
1
1
1
1
1
1
1
1
1
1
1
1
1
1
1
1
1
1
1
1
1
1
1
1
1
1
1
1
1
1
1
1
1
1
1
1
1
1
1
1
1
1
1
1
1
1
1
1
1
1
1
1
1
1
1
1
1
1
1
1
1
1
1
1
1
1
1
1
1
1
1
1
1
1
1
1
1
1
1
1
1
1
1
1
1
1
1
1
1
1
1
1
1
1
1
1
1
1
1
1
1
1
1
1
1
1
1
1
1
1
1
1
1
1
1
1
1
1
1
1
1
1
1
1
1
1
1
1
1
1
1
1
1
1
1
1
1
1
1
1
1
1
1
1
1
1
1
1
1
1
1
1
1
1
1
1
1
1
1
1
1
1
1
1
1
1
1
1
1
1
1
1
1
1
1
1
1
1
1
1
1
1
1
1
1
1
1
1
1
1
1
1
1
1
1
1
1
1
1
1
1
1
1
1
1
1
1
1
1
1
1
1
1
1
1
1
1
1
1
1
1
1
1
1
1
1
1
1
1
1
1
1
1
1
1
1
1
1
1
1
1
1
1
1
1
1
1
1
1
1
1
1
1
1
1
1
1
1
1
1
1
1
1
1
1
1
1
1
1
1
1
1
1
1.4621
1.45388
1.45001
1.47465
1.67036
1.87605
1
1
1
1
1
1
1
1
1.00079
1.04447
1.32918
1.66022
1.75697
1.76933
1.76088
1.75118
1.73325
1.72145
1.71252
1.6993
1.68812
1.67191
1.66331
1.65703
1.64467
1.6342
1.61901
1.6089
1.60265
1.59074
1.58083
1.5671
1.55678
1.55244
1.54201
1.53198
1.52064
1.50916
1.50445
1.4956
1.48614
1.47619
1.46565
1.45938
1.44811
1.44821
1.49901
1.71374
1
1
1
1
1
1
1
1
1
1.00102
1.0458
1.33124
1.64972
1.73085
1.75698
1.75224
1.73366
1.72008
1.7084
1.69708
1.68487
1.6705
1.66625
1.65733
1.64522
1.63375
1.61778
1.61161
1.60324
1.5913
1.5814
1.56617
1.56005
1.55404
1.54278
1.53363
1.52014
1.51298
1.50745
1.49697
1.48842
1.47662
1.46809
1.46425
1.45388
1.44106
1.44497
1.52823
1
1
1
1
1
1
1
1
1
1.00001
1.00113
1.04562
1.33615
1.62016
1.718
1.74796
1.73688
1.71973
1.70659
1.69695
1.68204
1.67275
1.66807
1.65658
1.64559
1.63106
1.61927
1.61429
1.60332
1.59283
1.58132
1.56732
1.56303
1.55471
1.54429
1.53405
1.52121
1.51699
1.5095
1.49918
1.49015
1.47686
1.47186
1.46703
1.45811
1.44312
1.43845
1.44825
1
1
1
1
1
1
1
1
1
1
1.00001
1.00117
1.04706
1.3236
1.58963
1.71515
1.73504
1.72338
1.71027
1.69824
1.68083
1.67575
1.66838
1.65618
1.64422
1.62726
1.62147
1.61542
1.60388
1.59494
1.58059
1.57081
1.56575
1.55503
1.54554
1.53365
1.52428
1.52036
1.51124
1.50195
1.49003
1.47905
1.47581
1.46869
1.46056
1.44985
1.4389
1.43782
1
1
1
1
1
1
1
1
1
1
1
1.00001
1.00113
1.04546
1.28064
1.57801
1.7066
1.7227
1.71561
1.7017
1.68252
1.67547
1.66556
1.65463
1.64056
1.62661
1.62368
1.616
1.60574
1.59509
1.58001
1.57484
1.56719
1.55545
1.5471
1.53432
1.528
1.52308
1.51335
1.50366
1.48909
1.48282
1.47914
1.47046
1.46345
1.45344
1.44435
1.43548
1
1
1
1
1
1
1
1
1
1
1
1
1.00001
1.00106
1.03461
1.24838
1.58445
1.68675
1.7067
1.70118
1.68516
1.67258
1.66178
1.65276
1.63835
1.62877
1.62594
1.61723
1.6071
1.59209
1.58193
1.57756
1.567
1.55748
1.5491
1.53641
1.53216
1.52529
1.51491
1.50394
1.48986
1.48659
1.48205
1.47385
1.46604
1.45496
1.44896
1.44076
1
1
1
1
1
1
1
1
1
1
1
1
1
1.00001
1.00078
1.02679
1.26191
1.56666
1.65896
1.6922
1.68687
1.67355
1.66263
1.65392
1.63941
1.6318
1.62754
1.61858
1.60594
1.589
1.58409
1.57874
1.56822
1.56124
1.54945
1.54007
1.53589
1.52589
1.51539
1.50406
1.49245
1.49024
1.48511
1.47772
1.46715
1.457
1.45266
1.44503
1
1
1
1
1
1
1
1
1
1
1
1
1
1
1
1.00062
1.02936
1.26331
1.50685
1.63541
1.68335
1.68113
1.67379
1.66107
1.64181
1.63466
1.62865
1.61854
1.60403
1.58933
1.58593
1.58007
1.57221
1.56327
1.54898
1.54388
1.53712
1.52511
1.51656
1.50551
1.49672
1.49438
1.48837
1.47999
1.46707
1.45932
1.45499
1.44761
1
1
1
1
1
1
1
1
1
1
1
1
1
1
1
1
1.00067
1.0282
1.19874
1.43839
1.63681
1.68677
1.68063
1.66497
1.6465
1.63783
1.62801
1.61594
1.60385
1.5922
1.58827
1.58332
1.57613
1.5615
1.55024
1.54533
1.53559
1.52558
1.51959
1.50787
1.50235
1.49855
1.4903
1.48035
1.46707
1.46149
1.45697
1.45039
1
1
1
1
1
1
1
1
1
1
1
1
1
1
1
1
1
1.00049
1.01541
1.13213
1.43564
1.64902
1.66573
1.66131
1.6521
1.63921
1.62473
1.61324
1.60593
1.59765
1.59211
1.58787
1.57725
1.55934
1.55143
1.54433
1.53429
1.52948
1.52301
1.51197
1.50818
1.50052
1.49015
1.48024
1.46792
1.46431
1.4601
1.45422
1
1
1
1
1
1
1
1
1
1
1
1
1
1
1
1
1
1
1.0002
1.00838
1.12338
1.45083
1.60977
1.63679
1.64831
1.63987
1.62561
1.61634
1.61238
1.60475
1.59564
1.59011
1.57562
1.55927
1.55084
1.54284
1.53798
1.53562
1.52499
1.51835
1.51164
1.49889
1.48936
1.48026
1.46985
1.46825
1.46441
1.45789
1
1
1
1
1
1
1
1
1
1
1
1
1
1
1
1
1
1
1
1.00013
1.00773
1.12509
1.41922
1.55397
1.61434
1.64239
1.63713
1.63048
1.62211
1.60696
1.59617
1.5901
1.5745
1.55961
1.55089
1.54612
1.54548
1.53849
1.52935
1.52324
1.50962
1.49588
1.4905
1.48127
1.4744
1.47352
1.46852
1.4597
1
1
1
1
1
1
1
1
1
1
1
1
1
1
1
1
1
1
1
1
1.00012
1.0073
1.11094
1.32788
1.50015
1.62223
1.64854
1.64154
1.62611
1.60623
1.59673
1.58894
1.57315
1.56083
1.55568
1.55561
1.55139
1.54121
1.53487
1.52211
1.5035
1.49659
1.4937
1.48355
1.482
1.4798
1.47139
1.45999
1
1
1
1
1
1
1
1
1
1
1
1
1
1
1
1
1
1
1
1
1
1.0001
1.00494
1.0602
1.23417
1.50421
1.63352
1.63176
1.62488
1.61128
1.60057
1.58745
1.57252
1.56504
1.56519
1.56378
1.55468
1.54676
1.5356
1.51513
1.50258
1.50146
1.49625
1.49026
1.49036
1.48352
1.47143
1.45904
1
1
1
1
1
1
1
1
1
1
1
1
1
1
1
1
1
1
1
1
1
1
1.00004
1.00172
1.03007
1.21302
1.51313
1.60329
1.61116
1.60739
1.60171
1.58819
1.57497
1.57429
1.57461
1.56812
1.5586
1.54903
1.52901
1.51022
1.50847
1.5074
1.50056
1.50009
1.49659
1.48288
1.47042
1.45743
1
1
1
1
1
1
1
1
1
1
1
1
1
1
1
1
1
1
1
1
1
1
1
1.00001
1.00081
1.02381
1.20807
1.48559
1.55982
1.58308
1.60231
1.595
1.58826
1.58793
1.58148
1.56985
1.56185
1.54486
1.52052
1.51533
1.51633
1.51298
1.50973
1.50833
1.4965
1.48063
1.46944
1.45739
1
1
1
1
1
1
1
1
1
1
1
1
1
1
1
1
1
1
1
1
1
1
1
1
1.00001
1.00064
1.02149
1.19105
1.39992
1.509
1.58415
1.61024
1.60691
1.59643
1.58163
1.57176
1.56323
1.53715
1.5227
1.52478
1.52469
1.52122
1.51898
1.51112
1.49197
1.4799
1.46843
1.46327
1
1
1
1
1
1
1
1
1
1
1
1
1
1
1
1
1
1
1
1
1
1
1
1
1
1
1.0005
1.01536
1.11964
1.29121
1.49577
1.60305
1.60448
1.59495
1.58288
1.57649
1.55918
1.53364
1.53137
1.53412
1.53347
1.53036
1.52517
1.50744
1.48904
1.48105
1.47151
1.47246
1
1
1
1
1
1
1
1
1
1
1
1
1
1
1
1
1
1
1
1
1
1
1
1
1
1
1
1.00021
1.0059
1.05445
1.24137
1.51896
1.57956
1.58305
1.57737
1.57331
1.5535
1.53956
1.54402
1.54715
1.54385
1.53723
1.52533
1.50045
1.49047
1.48666
1.48074
1.48279
1
1
1
1
1
1
1
1
1
1
1
1
1
1
1
1
1
1
1
1
1
1
1
1
1
1
1
1
1.00005
1.00197
1.03483
1.24915
1.48005
1.54034
1.56145
1.56979
1.55984
1.56155
1.56147
1.55586
1.5497
1.54331
1.52278
1.499
1.49609
1.49563
1.49292
1.49227
1
1
1
1
1
1
1
1
1
1
1
1
1
1
1
1
1
1
1
1
1
1
1
1
1
1
1
1
1
1.00002
1.0012
1.03346
1.22807
1.39386
1.49615
1.55667
1.57242
1.56948
1.56333
1.55755
1.55271
1.54068
1.51459
1.5046
1.50596
1.50619
1.50213
1.49813
1
1
1
1
1
1
1
1
1
1
1
1
1
1
1
1
1
1
1
1
1
1
1
1
1
1
1
1
1
1
1.00001
1.00103
1.02759
1.13138
1.28905
1.49196
1.56186
1.56638
1.56416
1.5573
1.54959
1.5287
1.51356
1.51438
1.51659
1.51374
1.50787
1.50051
1
1
1
1
1
1
1
1
1
1
1
1
1
1
1
1
1
1
1
1
1
1
1
1
1
1
1
1
1
1
1
1.00001
1.00055
1.00805
1.05693
1.27802
1.48123
1.53911
1.55759
1.55657
1.54568
1.52945
1.5271
1.52881
1.52502
1.51738
1.50962
1.49808
1
1
1
1
1
1
1
1
1
1
1
1
1
1
1
1
1
1
1
1
1
1
1
1
1
1
1
1
1
1
1
1
1
1.00008
1.00246
1.04932
1.26026
1.41974
1.51118
1.54344
1.54493
1.54151
1.54109
1.53879
1.52859
1.51872
1.5078
1.49369
1
1
1
1
1
1
1
1
1
1
1
1
1
1
1
1
1
1
1
1
1
1
1
1
1
1
1
1
1
1
1
1
1
1
1.00003
1.00194
1.0438
1.17489
1.32883
1.48772
1.53015
1.54036
1.54808
1.54477
1.52872
1.5147
1.50301
1.49455
1
1
1
1
1
1
1
1
1
1
1
1
1
1
1
1
1
1
1
1
1
1
1
1
1
1
1
1
1
1
1
1
1
1
1
1.00002
1.00138
1.01661
1.0835
1.30244
1.46263
1.51667
1.54543
1.54543
1.52869
1.51788
1.50902
1.49863
1
1
1
1
1
1
1
1
1
1
1
1
1
1
1
1
1
1
1
1
1
1
1
1
1
1
1
1
1
1
1
1
1
1
1
1
1.00001
1.00026
1.00475
1.06583
1.27508
1.41597
1.5004
1.53563
1.53582
1.52986
1.51239
1.50687
1
1
1
1
1
1
1
1
1
1
1
1
1
1
1
1
1
1
1
1
1
1
1
1
1
1
1
1
1
1
1
1
1
1
1
1
1
1
1.00007
1.0032
1.05351
1.19051
1.32876
1.48673
1.52699
1.52064
1.51542
1.51671
1
1
1
1
1
1
1
1
1
1
1
1
1
1
1
1
1
1
1
1
1
1
1
1
1
1
1
1
1
1
1
1
1
1
1
1
1
1
1
1.00004
1.00187
1.0204
1.09105
1.29702
1.47151
1.49861
1.51062
1.5181
1
1
1
1
1
1
1
1
1
1
1
1
1
1
1
1
1
1
1
1
1
1
1
1
1
1
1
1
1
1
1
1
1
1
1
1
1
1
1
1
1.00001
1.00035
1.00589
1.06493
1.27438
1.42116
1.47735
1.50562
1
1
1
1
1
1
1
1
1
1
1
1
1
1
1
1
1
1
1
1
1
1
1
1
1
1
1
1
1
1
1
1
1
1
1
1
1
1
1
1
1
1
1.0001
1.00338
1.05346
1.21798
1.33709
1.44667
1
1
1
1
1
1
1
1
1
1
1
1
1
1
1
1
1
1
1
1
1
1
1
1
1
1
1
1
1
1
1
1
1
1
1
1
1
1
1
1
1
1
1
1.00005
1.00224
1.02867
1.10726
1.25752
1
1
1
1
1
1
1
1
1
1
1
1
1
1
1
1
1
1
1
1
1
1
1
1
1
1
1
1
1
1
1
1
1
1
1
1
1
1
1
1
1
1
1
1
1.00002
1.00056
1.007
1.05304
1
1
1
1
1
1
1
1
1
1
1
1
1
1
1
1
1
1
1
1
1
1
1
1
1
1
1
1
1
1
1
1
1
1
1
1
1
1
1
1
1
1
1
1
1
1
1.0001
1.00258
1
1
1
1
1
1
1
1
1
1
1
1
1
1
1
1
1
1
1
1
1
1
1
1
1
1
1
1
1
1
1
1
1
1
1
1
1
1
1
1
1
1
1
1
1
1
1
1.00004
1
1
1
1
1
1
1
1
1
1
1
1
1
1
1
1
1
1
1
1
1
1
1
1
1
1
1
1
1
1
1
1
1
1
1
1
1
1
1
1
1
1
1
1
1
1
1
1
1
1
1
1
1
1
1
1
1
1
1
1
1
1
1
1
1
1
1
1
1
1
1
1
1
1
1
1
1
1
1
1
1
1
1
1
1
1
1
1
1
1
1
1
1
1
1
1
1.9576
1.95631
1.9486
1.94128
1.93304
1.92401
1.91501
1.9048
1.89352
1.88215
1.87302
1.86185
1.84872
1.83614
1.82459
1.88276
1.93832
1.93308
1.92396
1.91395
1.90717
1.89982
1.89087
1.8792
1.87023
1.86153
1.85044
1.83764
1.82663
1.81582
1.74826
1.87792
1.91917
1.91258
1.89867
1.89034
1.88395
1.87605
1.86558
1.85795
1.849
1.83823
1.82553
1.81646
1.80599
1.55903
1.77197
1.86834
1.89888
1.88968
1.87804
1.8702
1.86154
1.85289
1.84561
1.83665
1.82561
1.81333
1.80522
1.79553
1.45252
1.58975
1.78186
1.85629
1.87793
1.87104
1.86091
1.8489
1.84114
1.83391
1.82542
1.81315
1.80173
1.79427
1.78505
1.43563
1.46252
1.6189
1.7805
1.84409
1.86032
1.85349
1.84043
1.83101
1.82335
1.81474
1.80244
1.79221
1.78407
1.77551
1.42961
1.43013
1.4759
1.63837
1.7774
1.84011
1.84041
1.83218
1.82205
1.81372
1.80445
1.79322
1.78398
1.77558
1.7674
1.43202
1.42371
1.42832
1.49188
1.65256
1.7798
1.82269
1.82048
1.81211
1.80276
1.79273
1.78399
1.77593
1.76731
1.75942
1.43856
1.4239
1.42411
1.43099
1.50175
1.6726
1.76743
1.80284
1.80154
1.79324
1.7823
1.77442
1.76671
1.75901
1.75098
1.44346
1.43091
1.42508
1.42163
1.42948
1.51787
1.67493
1.75414
1.79168
1.7876
1.77603
1.76653
1.75898
1.7518
1.74285
1.44582
1.43654
1.42959
1.41848
1.4179
1.43257
1.53459
1.66808
1.74976
1.78049
1.7737
1.76458
1.7552
1.74455
1.73426
1.44706
1.43903
1.4336
1.42315
1.41291
1.41346
1.43755
1.53802
1.66969
1.74613
1.77086
1.76529
1.75312
1.73659
1.72532
1.44718
1.4405
1.43533
1.42815
1.41597
1.41081
1.41306
1.44122
1.53868
1.68003
1.73748
1.75413
1.74792
1.73123
1.71782
1.44725
1.44182
1.43721
1.43234
1.42405
1.41319
1.41089
1.41265
1.43945
1.56097
1.6763
1.71937
1.73693
1.72844
1.71449
1.44803
1.44449
1.44099
1.43729
1.43035
1.41937
1.41283
1.40422
1.40573
1.44701
1.57612
1.66613
1.70984
1.72234
1.71415
1.45069
1.44959
1.4469
1.44285
1.4347
1.42349
1.41497
1.40287
1.39769
1.40362
1.46257
1.5702
1.6623
1.70424
1.71233
1.45705
1.45681
1.45337
1.4472
1.43541
1.42359
1.41641
1.40677
1.39714
1.39974
1.41047
1.46355
1.56431
1.66492
1.69334
1.46571
1.46459
1.45915
1.44924
1.43251
1.42224
1.41779
1.41233
1.40408
1.404
1.40774
1.41462
1.45781
1.57499
1.64881
1.47467
1.47125
1.46259
1.44808
1.42685
1.42119
1.42022
1.41893
1.41671
1.41393
1.41197
1.40456
1.4078
1.4592
1.57151
1.48257
1.47452
1.4616
1.44391
1.42622
1.42443
1.4261
1.42673
1.42622
1.42292
1.41456
1.40057
1.39103
1.40081
1.4665
1.48789
1.4742
1.45771
1.43982
1.42986
1.43092
1.43613
1.43669
1.43457
1.42683
1.41433
1.39887
1.38323
1.38421
1.4019
1.48838
1.47019
1.45368
1.44182
1.43822
1.44009
1.44605
1.4452
1.43794
1.42482
1.41276
1.40021
1.38384
1.38467
1.39028
1.48538
1.46687
1.45559
1.45011
1.44903
1.45251
1.45589
1.45089
1.43594
1.4207
1.41166
1.4002
1.39169
1.39259
1.39603
1.48111
1.46903
1.46499
1.46205
1.46136
1.46375
1.46282
1.45067
1.43054
1.41899
1.41034
1.40284
1.40454
1.40394
1.40274
1.48168
1.47739
1.47627
1.47397
1.47219
1.47158
1.46502
1.44625
1.42895
1.41838
1.4105
1.41128
1.41554
1.41404
1.40961
1.4892
1.4871
1.48615
1.48317
1.47811
1.47293
1.46273
1.44518
1.42999
1.41901
1.41641
1.42143
1.42394
1.42197
1.41533
1.49795
1.49676
1.49352
1.48823
1.48056
1.47203
1.46016
1.44625
1.43258
1.42368
1.42384
1.43012
1.43144
1.42811
1.41822
1.50834
1.50245
1.49393
1.48839
1.48133
1.47239
1.46083
1.44734
1.43585
1.43189
1.43241
1.43731
1.43797
1.43164
1.41815
1.51197
1.49902
1.49209
1.4892
1.48396
1.47453
1.46302
1.44791
1.44093
1.44092
1.44122
1.44425
1.4432
1.43285
1.41407
1.5106
1.49796
1.49676
1.49638
1.48838
1.47867
1.46708
1.4514
1.44936
1.45084
1.45056
1.45065
1.44587
1.43035
1.40889
1.51475
1.51292
1.50757
1.49776
1.48961
1.4862
1.47333
1.4591
1.45921
1.46073
1.45945
1.45562
1.44467
1.42483
1.40752
1.50989
1.51261
1.50736
1.49895
1.49612
1.49054
1.47277
1.46694
1.46809
1.46905
1.46562
1.45723
1.44094
1.41935
1.41386
1.45236
1.49926
1.49986
1.49712
1.4971
1.48741
1.47517
1.47685
1.48037
1.47731
1.46855
1.45519
1.43596
1.42531
1.43212
1.2369
1.42049
1.46986
1.48421
1.49368
1.48865
1.48918
1.49044
1.48482
1.47703
1.47056
1.45399
1.44413
1.46784
1.57649
1.03774
1.20814
1.3565
1.42392
1.4717
1.49505
1.49352
1.48856
1.48412
1.48023
1.47181
1.47726
1.54204
1.69704
1.86392
1.00156
1.02917
1.1328
1.2445
1.38913
1.48239
1.4871
1.48505
1.48725
1.50067
1.54152
1.64732
1.80306
1.93232
1.95887
1.00002
1.00077
1.0099
1.04796
1.18102
1.38272
1.44875
1.49753
1.57468
1.65505
1.73837
1.83928
1.91227
1.9381
1.92749
1
1
1.00012
1.00193
1.02586
1.17895
1.41809
1.58724
1.73581
1.87729
1.99348
2.05071
2.02779
1.97217
1.90895
)
;

boundaryField
{
    inlet
    {
        type            fixedValue;
        value           uniform 1;
    }
    outlet
    {
        type            inletOutlet;
        inletValue      nonuniform 0();
        value           nonuniform 0();
    }
    bottom
    {
        type            zeroGradient;
    }
    top
    {
        type            zeroGradient;
    }
    obstacle
    {
        type            zeroGradient;
    }
    defaultFaces
    {
        type            empty;
    }
    procBoundary2to0
    {
        type            processor;
        value           nonuniform List<scalar> 
112
(
1
1
1
1
1
1
1
1
1
1
1
1
1
1
1
1
1
1
1
1
1
1
1
1
1
1
1
1
1
1
1
1
1
1
1
1
1
1
1
1
1
1
1
1
1
1
1
1
1.45574
1.45217
1.46211
1.61469
1.86413
1.96457
1
1
1
1
1
1
1
1.00065
1.03838
1.33164
1.65308
1.77512
1.78991
1.77565
1.75988
1.74947
1.73604
1.72178
1.71429
1.70236
1.69002
1.67595
1.6609
1.65533
1.64492
1.63374
1.62142
1.60732
1.60174
1.59121
1.57952
1.56851
1.55396
1.54928
1.54144
1.53012
1.52051
1.50704
1.50069
1.49374
1.48407
1.47508
1.47508
1.98369
1.97585
1.96733
1.95981
1.95089
1.94024
1.9303
1.91911
1.90694
1.89424
1.88379
1.87181
1.85746
1.84455
1.83224
)
;
    }
    procBoundary2to1
    {
        type            processor;
        value           nonuniform List<scalar> 6(1.80933 1.80143 1.79248 1.7836 1.77383 1.76454);
    }
    procBoundary2to3
    {
        type            processor;
        value           nonuniform List<scalar> 
32
(
1.75679
1.74939
1.7421
1.7337
1.72481
1.71588
1.70756
1.70356
1.7046
1.70652
1.69864
1.67236
1.63054
1.56121
1.46712
1.40836
1.39906
1.39957
1.40166
1.40443
1.40406
1.39919
1.39606
1.39918
1.4055
1.41644
1.48127
1.74081
1.91195
1.94529
1.90736
1.87711
)
;
    }
}


// ************************************************************************* //
