/*--------------------------------*- C++ -*----------------------------------*\
  =========                 |
  \\      /  F ield         | OpenFOAM: The Open Source CFD Toolbox
   \\    /   O peration     | Website:  https://openfoam.org
    \\  /    A nd           | Version:  7
     \\/     M anipulation  |
\*---------------------------------------------------------------------------*/
FoamFile
{
    version     2.0;
    format      ascii;
    class       volScalarField;
    location    "2.8";
    object      T;
}
// * * * * * * * * * * * * * * * * * * * * * * * * * * * * * * * * * * * * * //

dimensions      [0 0 0 1 0 0 0];

internalField   nonuniform List<scalar> 
16512
(
1.87932
1.87643
1.87466
1.87131
1.86618
1.85723
1.84548
1.83638
1.83304
1.83221
1.83033
1.82608
1.81755
1.80564
1.79496
1.78993
1.78887
1.7884
1.78576
1.77922
1.76821
1.7563
1.74894
1.74684
1.74681
1.74561
1.74149
1.73258
1.72048
1.71051
1.70666
1.70605
1.70592
1.70367
1.69794
1.68762
1.67605
1.66861
1.66663
1.66664
1.66589
1.66297
1.65571
1.64525
1.63599
1.63249
1.63199
1.63152
1.62937
1.62378
1.61398
1.60426
1.5997
1.59886
1.59863
1.59702
1.59297
1.58414
1.57511
1.57211
1.57107
1.56967
1.56747
1.56355
1.55498
1.5446
1.54014
1.53956
1.53948
1.53882
1.53712
1.53406
1.52739
1.51892
1.51118
1.50741
1.50654
1.50549
1.50296
1.49781
1.49298
1.49011
1.48804
1.4861
1.4838
1.48005
1.47372
1.46855
1.46591
1.46382
1.4613
1.45715
1.45238
1.45077
1.44967
1.44823
1.44669
1.44514
1.44331
1.44103
1.43447
1.42421
1.44254
1.99393
2.31695
2.34669
2.35421
2.36015
2.36293
2.36172
2.35862
2.36144
2.36994
2.37856
2.38553
2.39103
2.39455
2.39421
2.38914
2.38738
2.39147
2.3972
2.40194
2.40536
2.40799
2.40943
2.40965
2.40865
2.4059
2.40324
2.40276
2.40481
2.4083
2.41098
2.41235
2.41213
2.40821
2.40028
2.39722
2.39721
2.3972
2.39697
2.39594
2.39319
2.38761
2.3802
2.37544
2.37279
2.37021
2.36703
2.36275
2.35686
2.01828
2.01304
2.0078
2.00307
1.99782
1.99241
1.98697
1.9815
1.97646
1.97101
1.96523
1.95938
1.95339
1.94835
1.94304
1.93699
1.93074
1.92404
1.91829
1.914
1.90913
1.90355
1.89544
1.88568
1.88202
1.87992
1.87651
1.872
1.86432
1.8529
1.84353
1.84002
1.83897
1.83688
1.83269
1.8245
1.81284
1.80242
1.79762
1.79658
1.79601
1.79323
1.78665
1.77565
1.76388
1.75678
1.75487
1.75483
1.75344
1.74912
1.74004
1.72794
1.71846
1.71486
1.71439
1.71426
1.71182
1.70575
1.69521
1.68373
1.67675
1.675
1.67501
1.67404
1.67082
1.66305
1.65237
1.64352
1.64042
1.64004
1.63962
1.63735
1.63145
1.62146
1.61181
1.6077
1.60709
1.6069
1.60519
1.60087
1.5918
1.58235
1.57891
1.57807
1.57697
1.5749
1.57126
1.56309
1.55286
1.54773
1.54711
1.54707
1.54641
1.5446
1.54103
1.53378
1.52519
1.51807
1.5152
1.51447
1.51339
1.51096
1.50516
1.49932
1.49719
1.49589
1.49431
1.4921
1.48802
1.48066
1.47466
1.47207
1.47025
1.46812
1.46497
1.45989
1.45646
1.45542
1.4544
1.45308
1.45154
1.4497
1.44689
1.4415
1.43285
1.42506
1.42606
1.60549
2.20712
2.33643
2.34715
2.35137
2.35185
2.34938
2.34827
2.3541
2.36287
2.37077
2.37711
2.38171
2.38311
2.3799
2.375
2.37715
2.38336
2.38994
2.39485
2.39851
2.40079
2.40114
2.39989
2.39673
2.39346
2.39237
2.39327
2.39599
2.39909
2.40149
2.40249
2.40172
2.39679
2.38935
2.38755
2.38773
2.38793
2.3877
2.38645
2.38305
2.37639
2.36927
2.36579
2.36357
2.36112
2.35788
2.35331
2.34672
2.01523
2.01009
2.00566
2.00079
1.99559
1.99032
1.9849
1.98007
1.97493
1.96931
1.96377
1.95769
1.95252
1.94748
1.9417
1.93578
1.92942
1.92328
1.91861
1.91368
1.90831
1.90179
1.89254
1.88735
1.88463
1.88084
1.87659
1.87042
1.86012
1.85053
1.84675
1.84542
1.84307
1.839
1.83127
1.81979
1.80949
1.80476
1.80373
1.80303
1.80017
1.79366
1.78281
1.77128
1.76446
1.76268
1.76258
1.76105
1.75661
1.74734
1.73524
1.72612
1.72284
1.72245
1.72222
1.71967
1.71332
1.70263
1.69137
1.68488
1.68333
1.68334
1.68216
1.67857
1.67032
1.65944
1.65097
1.64821
1.64792
1.64746
1.6451
1.63893
1.62887
1.61934
1.61563
1.61514
1.61494
1.61316
1.60865
1.59943
1.58968
1.58573
1.58497
1.58414
1.58217
1.57868
1.57083
1.56078
1.55522
1.5545
1.55448
1.55375
1.55185
1.54783
1.54015
1.53141
1.52514
1.52318
1.5227
1.52162
1.51882
1.51225
1.50595
1.50388
1.50304
1.50184
1.49993
1.49607
1.48802
1.48042
1.47799
1.47669
1.47495
1.47223
1.46751
1.46266
1.46109
1.46022
1.45922
1.45794
1.45626
1.45362
1.44793
1.43946
1.43241
1.43006
1.42903
1.4446
1.94084
2.30037
2.33694
2.33815
2.33898
2.33792
2.33984
2.34751
2.35575
2.36297
2.36892
2.37214
2.37119
2.36513
2.36353
2.36826
2.37508
2.38174
2.38684
2.39089
2.39319
2.39306
2.38978
2.38461
2.38224
2.38258
2.38465
2.38734
2.38982
2.39159
2.392
2.39058
2.38505
2.37872
2.37787
2.3784
2.3789
2.37873
2.37732
2.37308
2.36527
2.35907
2.35666
2.35476
2.3524
2.34908
2.34422
2.33703
2.01185
2.00757
2.00315
1.99822
1.99326
1.98786
1.98314
1.97836
1.97299
1.96773
1.96188
1.95651
1.95163
1.94608
1.94046
1.93449
1.92833
1.92336
1.9183
1.91284
1.90715
1.89919
1.89278
1.88919
1.88503
1.88066
1.87528
1.86626
1.85687
1.85296
1.85139
1.84889
1.84512
1.83805
1.82682
1.81636
1.81155
1.81043
1.80952
1.80662
1.80019
1.78946
1.77823
1.77174
1.77012
1.77003
1.7684
1.76389
1.75461
1.74258
1.73368
1.73058
1.73022
1.72987
1.72722
1.72057
1.70976
1.69886
1.69279
1.69144
1.69152
1.69019
1.68629
1.6777
1.66664
1.65842
1.65592
1.6557
1.65513
1.65263
1.64612
1.63603
1.62675
1.62339
1.62299
1.62281
1.62097
1.61638
1.60712
1.5971
1.59276
1.59198
1.5913
1.5894
1.58597
1.57823
1.56825
1.56247
1.56165
1.56166
1.5609
1.55891
1.55457
1.54654
1.53775
1.53234
1.53098
1.53068
1.5295
1.5264
1.51924
1.51241
1.51038
1.5097
1.50864
1.50684
1.50323
1.49545
1.48696
1.48394
1.48299
1.4816
1.47934
1.47503
1.46936
1.46696
1.46606
1.46516
1.4641
1.46266
1.46028
1.45474
1.44601
1.43824
1.4363
1.43581
1.43439
1.43539
1.57756
2.17624
2.32694
2.32546
2.32642
2.32838
2.33361
2.3412
2.34869
2.35538
2.3603
2.36166
2.35842
2.35342
2.35502
2.36075
2.36727
2.37319
2.3784
2.3827
2.38471
2.3836
2.37807
2.3734
2.37298
2.37453
2.3769
2.37905
2.3808
2.38178
2.38165
2.37935
2.37344
2.36855
2.36842
2.36944
2.37019
2.37008
2.3685
2.36329
2.35482
2.35002
2.3482
2.34657
2.34427
2.34084
2.33563
2.3278
2.00909
2.00494
2.00022
1.99558
1.99039
1.98566
1.98121
1.9761
1.9711
1.96568
1.96029
1.95554
1.95017
1.94472
1.93907
1.93306
1.92805
1.92298
1.91745
1.91204
1.90515
1.89851
1.89396
1.88939
1.88481
1.87966
1.87194
1.86293
1.85829
1.85628
1.85385
1.85053
1.84445
1.83397
1.82328
1.81819
1.81687
1.81574
1.81284
1.80652
1.79581
1.78474
1.77848
1.77697
1.77693
1.7753
1.77083
1.76168
1.74978
1.74107
1.73816
1.73784
1.73731
1.73452
1.72761
1.71664
1.70601
1.70037
1.69922
1.69938
1.69793
1.6938
1.68506
1.67393
1.66599
1.66368
1.66347
1.66275
1.66007
1.65322
1.64293
1.63393
1.63083
1.63052
1.63039
1.62853
1.62388
1.61469
1.60458
1.60001
1.59919
1.59858
1.59673
1.59328
1.58549
1.57552
1.56953
1.5686
1.56863
1.56787
1.56581
1.56126
1.55303
1.54425
1.53958
1.53863
1.53835
1.53705
1.53369
1.52614
1.51883
1.51674
1.51615
1.51517
1.51338
1.50999
1.50251
1.49373
1.49016
1.48937
1.4882
1.48628
1.48257
1.47653
1.47314
1.47211
1.47118
1.4701
1.46873
1.46648
1.46102
1.45247
1.44441
1.44193
1.44154
1.44115
1.44008
1.4378
1.44821
1.87363
2.27205
2.31337
2.31563
2.32002
2.3267
2.33386
2.34124
2.34741
2.35055
2.34964
2.3447
2.34371
2.34798
2.35392
2.35954
2.36463
2.36971
2.37365
2.37462
2.37109
2.36518
2.36367
2.36506
2.36742
2.36955
2.37116
2.37218
2.37243
2.37162
2.36801
2.36173
2.35864
2.35918
2.36059
2.36146
2.36138
2.35953
2.35342
2.34505
2.34156
2.34012
2.33874
2.33649
2.3329
2.32713
2.31856
2.0067
2.00202
1.99742
1.99246
1.98771
1.98351
1.97869
1.97387
1.96883
1.96364
1.95912
1.95401
1.94871
1.94334
1.93736
1.93238
1.92743
1.92194
1.91667
1.91053
1.90406
1.89905
1.89403
1.88932
1.88422
1.87734
1.86939
1.86339
1.86039
1.85786
1.85492
1.84989
1.84041
1.82992
1.82456
1.82312
1.82178
1.81893
1.81286
1.80227
1.79113
1.78486
1.78334
1.78326
1.78162
1.77724
1.76828
1.75659
1.74817
1.74547
1.74523
1.7446
1.74171
1.73463
1.72349
1.71294
1.70768
1.70665
1.70677
1.70528
1.70094
1.69207
1.68107
1.67358
1.67147
1.67131
1.67042
1.66755
1.66042
1.64983
1.64098
1.63801
1.63775
1.63762
1.63574
1.631
1.62188
1.61189
1.60727
1.60647
1.60598
1.60418
1.60073
1.59286
1.58274
1.57653
1.57547
1.57548
1.57472
1.57263
1.56785
1.55945
1.55082
1.54674
1.54605
1.5458
1.54439
1.54088
1.53312
1.52538
1.52315
1.52258
1.52168
1.51991
1.51667
1.5094
1.50055
1.49648
1.49576
1.49482
1.49314
1.48994
1.48392
1.47957
1.47839
1.47739
1.47616
1.47464
1.47225
1.46673
1.45849
1.45069
1.44785
1.4473
1.44697
1.44604
1.44492
1.44234
1.44122
1.54199
2.13242
2.29929
2.30789
2.31342
2.31935
2.32641
2.33346
2.33826
2.33917
2.33642
2.33324
2.33594
2.34197
2.34778
2.35242
2.357
2.36119
2.36341
2.3618
2.35652
2.35395
2.3554
2.35816
2.36063
2.36248
2.36366
2.36406
2.36379
2.36182
2.35658
2.35062
2.34954
2.35053
2.352
2.35277
2.35263
2.35039
2.34362
2.33587
2.33331
2.33219
2.33103
2.32881
2.32496
2.31843
2.30924
2.00416
1.99941
1.99451
1.98951
1.9854
1.98084
1.97613
1.97136
1.96629
1.96207
1.95739
1.95229
1.94734
1.94153
1.93647
1.93161
1.92617
1.92096
1.91528
1.90913
1.90407
1.89888
1.89394
1.88906
1.88279
1.87593
1.86932
1.86479
1.86162
1.85875
1.85432
1.84599
1.8358
1.83025
1.82879
1.82742
1.82477
1.8191
1.80888
1.79759
1.79114
1.78952
1.78925
1.78753
1.78324
1.7744
1.7629
1.75475
1.75227
1.75218
1.75156
1.7487
1.74161
1.73034
1.71987
1.71483
1.71385
1.71389
1.71223
1.70765
1.69863
1.6879
1.68081
1.67897
1.67899
1.67806
1.67505
1.66771
1.65689
1.64806
1.64517
1.64487
1.64466
1.64272
1.63777
1.62859
1.6188
1.61424
1.61355
1.61329
1.61161
1.60821
1.60035
1.59012
1.58364
1.58242
1.58235
1.58151
1.57936
1.57434
1.56581
1.55735
1.55374
1.55325
1.55304
1.55156
1.54795
1.54008
1.53208
1.52967
1.52913
1.5283
1.52653
1.52334
1.51614
1.50737
1.50301
1.50226
1.50145
1.49989
1.49711
1.49123
1.48591
1.48458
1.48365
1.48231
1.48059
1.47789
1.47211
1.46402
1.45656
1.45383
1.45338
1.45284
1.45191
1.45043
1.44876
1.44663
1.44233
1.44749
1.79205
2.23716
2.29499
2.30426
2.31138
2.31887
2.325
2.32752
2.3261
2.32232
2.3231
2.3291
2.33568
2.34124
2.34558
2.34955
2.35212
2.35154
2.34662
2.34282
2.34412
2.34758
2.35091
2.35342
2.35519
2.35603
2.35608
2.3552
2.3517
2.34503
2.34085
2.34104
2.34224
2.34344
2.34395
2.34365
2.34094
2.3338
2.32682
2.32485
2.324
2.32303
2.32087
2.31676
2.30947
2.30011
2.00172
1.99701
1.99189
1.98762
1.98309
1.97828
1.97362
1.96844
1.96426
1.96003
1.95517
1.95058
1.94527
1.9403
1.93561
1.93026
1.92511
1.91966
1.91371
1.90877
1.90364
1.89845
1.89372
1.88796
1.88191
1.87561
1.87006
1.86587
1.86238
1.85842
1.85125
1.84129
1.83526
1.83377
1.83242
1.82996
1.8249
1.81531
1.80404
1.79738
1.79564
1.79517
1.79336
1.78913
1.7803
1.76881
1.76078
1.75844
1.75846
1.75792
1.75519
1.74828
1.73717
1.72685
1.72199
1.72104
1.72088
1.71906
1.71424
1.70489
1.69424
1.68759
1.68594
1.68611
1.68525
1.68226
1.67484
1.66405
1.65528
1.65244
1.65206
1.65167
1.64964
1.64443
1.63508
1.62537
1.62087
1.62026
1.62022
1.61873
1.61542
1.60769
1.59753
1.59087
1.58953
1.58935
1.58842
1.58619
1.58093
1.57215
1.56378
1.56054
1.56019
1.55999
1.55844
1.55475
1.54693
1.53878
1.53623
1.53574
1.53501
1.53327
1.53009
1.52287
1.51405
1.50947
1.50879
1.5082
1.50666
1.50401
1.49829
1.49214
1.4904
1.48961
1.48839
1.4866
1.48368
1.47763
1.46943
1.46213
1.45967
1.45945
1.45908
1.45788
1.45622
1.45399
1.45176
1.45001
1.44626
1.44169
1.50463
2.0632
2.28456
2.30109
2.30682
2.31179
2.31525
2.3154
2.31243
2.31132
2.31578
2.32319
2.32955
2.3348
2.33886
2.34164
2.34193
2.3378
2.33245
2.33265
2.3362
2.34026
2.34344
2.34592
2.34742
2.34791
2.34773
2.34603
2.34109
2.33457
2.33274
2.33323
2.33431
2.33505
2.33525
2.33467
2.33138
2.32399
2.31786
2.31629
2.3156
2.31475
2.31267
2.30839
2.30061
2.29153
1.99929
1.99445
1.9902
1.98579
1.98088
1.97622
1.97095
1.96642
1.96226
1.95746
1.95297
1.94802
1.94321
1.93894
1.93392
1.92897
1.92389
1.91816
1.91332
1.90823
1.90288
1.89809
1.89257
1.88702
1.88138
1.87548
1.8708
1.86641
1.86242
1.85645
1.84741
1.83988
1.8382
1.83685
1.83447
1.82996
1.82121
1.8102
1.80333
1.80159
1.80106
1.79919
1.79507
1.78638
1.77474
1.76646
1.7641
1.76409
1.7636
1.76097
1.7543
1.74346
1.7335
1.72893
1.72814
1.72796
1.72604
1.72104
1.71134
1.70044
1.69403
1.69248
1.69268
1.69183
1.68879
1.68136
1.67083
1.66233
1.65964
1.65928
1.65881
1.65669
1.65128
1.64163
1.63183
1.62737
1.62676
1.62681
1.62545
1.62216
1.61458
1.60465
1.59803
1.59664
1.59646
1.59546
1.59314
1.58769
1.57868
1.57024
1.56726
1.56694
1.56668
1.5651
1.56129
1.55349
1.5453
1.54267
1.54225
1.54166
1.54
1.53688
1.52969
1.5207
1.51585
1.51512
1.5147
1.51332
1.51081
1.50504
1.49819
1.49601
1.4953
1.49423
1.49253
1.48968
1.48355
1.47515
1.46781
1.46553
1.46543
1.46533
1.46422
1.46218
1.45929
1.45679
1.45476
1.45301
1.44944
1.44132
1.44226
1.70615
2.20098
2.29329
2.30036
2.30457
2.30478
2.30172
2.29902
2.30165
2.30893
2.31623
2.32257
2.32781
2.33121
2.33225
2.32957
2.32316
2.32131
2.3244
2.32892
2.33273
2.3357
2.3378
2.33865
2.33873
2.33825
2.33582
2.33029
2.32566
2.32535
2.32591
2.32681
2.32708
2.327
2.32587
2.32163
2.31403
2.3091
2.30782
2.30714
2.30626
2.30418
2.29981
2.29191
2.28348
1.99608
1.99201
1.98816
1.98358
1.97907
1.974
1.96924
1.96493
1.96001
1.95532
1.95039
1.94545
1.94149
1.93687
1.93208
1.92744
1.92205
1.91743
1.9126
1.90723
1.9024
1.89696
1.89154
1.88652
1.88071
1.87572
1.87101
1.86658
1.86141
1.85385
1.84596
1.84207
1.84088
1.83859
1.83439
1.82659
1.81595
1.80876
1.80699
1.80655
1.8048
1.80086
1.79265
1.7811
1.77238
1.76973
1.76949
1.76882
1.76617
1.75957
1.7489
1.73937
1.73521
1.73468
1.73471
1.73291
1.72797
1.71823
1.70702
1.70054
1.699
1.69906
1.69807
1.69483
1.68724
1.67688
1.66877
1.66632
1.66616
1.66578
1.66365
1.6582
1.64841
1.63845
1.63393
1.6333
1.63331
1.63196
1.62861
1.621
1.61124
1.60478
1.60345
1.6034
1.60248
1.6001
1.59452
1.58528
1.5768
1.57399
1.57364
1.57328
1.57163
1.56769
1.55979
1.55158
1.54886
1.54853
1.54812
1.54653
1.54351
1.53647
1.52738
1.52228
1.52146
1.52104
1.51971
1.51727
1.51154
1.50419
1.50144
1.50079
1.49991
1.49834
1.49571
1.48973
1.48124
1.47396
1.47173
1.47154
1.47152
1.4706
1.46838
1.46469
1.46161
1.45976
1.458
1.45548
1.45042
1.4418
1.44065
1.47925
1.9952
2.27011
2.29247
2.29373
2.29275
2.2896
2.28988
2.29508
2.30239
2.30928
2.31564
2.32051
2.32282
2.32208
2.31602
2.311
2.31291
2.3175
2.32213
2.32548
2.32814
2.32936
2.32929
2.32872
2.32767
2.32487
2.32011
2.31795
2.3183
2.31914
2.31978
2.31981
2.31939
2.31717
2.31126
2.30421
2.30103
2.29989
2.29904
2.29788
2.29561
2.29112
2.28338
2.27588
1.99348
1.98977
1.9854
1.98107
1.97647
1.9717
1.96759
1.96293
1.95824
1.95341
1.9482
1.94416
1.93964
1.93476
1.9303
1.92513
1.92067
1.91629
1.91113
1.90641
1.90123
1.89575
1.89105
1.88561
1.88034
1.87569
1.87085
1.86623
1.85979
1.85261
1.84709
1.84464
1.84266
1.83861
1.83162
1.82141
1.81374
1.81184
1.81127
1.80965
1.80608
1.79867
1.7876
1.77867
1.77581
1.7753
1.7743
1.77148
1.7647
1.75386
1.74453
1.74066
1.74027
1.74052
1.73896
1.73429
1.72494
1.71384
1.70737
1.70582
1.70565
1.70438
1.70098
1.693
1.68247
1.6747
1.67243
1.67239
1.67215
1.67011
1.66474
1.65508
1.64511
1.6406
1.63997
1.63991
1.63852
1.63507
1.62725
1.61748
1.61118
1.60988
1.60994
1.60912
1.60678
1.60119
1.59192
1.58342
1.58066
1.5803
1.57985
1.57815
1.57408
1.566
1.55768
1.55482
1.55455
1.55431
1.5528
1.54985
1.54297
1.53395
1.52871
1.52783
1.52741
1.52611
1.52365
1.51789
1.51015
1.50685
1.50622
1.5055
1.50405
1.50157
1.49583
1.48749
1.48047
1.47852
1.47825
1.47798
1.47694
1.47457
1.47012
1.46646
1.46459
1.46308
1.46097
1.45665
1.44956
1.44481
1.44353
1.4459
1.64516
2.16962
2.28459
2.2811
2.27986
2.27949
2.28283
2.28841
2.29511
2.30176
2.30778
2.31171
2.31285
2.30988
2.30292
2.30189
2.30581
2.31087
2.31503
2.31805
2.32014
2.32054
2.31962
2.31807
2.31635
2.31351
2.31054
2.3104
2.31146
2.31254
2.31291
2.31284
2.3117
2.30736
2.30002
2.29543
2.29375
2.29263
2.29145
2.28983
2.28717
2.28242
2.27487
2.26848
1.99073
1.98677
1.98264
1.97821
1.97358
1.96973
1.9654
1.96079
1.95638
1.95127
1.94704
1.9427
1.9378
1.9333
1.9281
1.92359
1.91949
1.91451
1.9098
1.905
1.89958
1.89505
1.88996
1.8846
1.88004
1.8749
1.87045
1.86511
1.85847
1.85307
1.84885
1.84654
1.84289
1.83681
1.82729
1.81854
1.81627
1.81538
1.81369
1.81033
1.80368
1.79341
1.78463
1.78184
1.78141
1.78035
1.77743
1.7706
1.75943
1.74968
1.74574
1.74528
1.74555
1.74408
1.73959
1.7306
1.71995
1.71385
1.71252
1.71243
1.7111
1.7076
1.6993
1.68829
1.68052
1.67825
1.67821
1.678
1.67597
1.67065
1.66118
1.65148
1.64711
1.64654
1.64651
1.64513
1.64162
1.63359
1.62361
1.61736
1.61607
1.61617
1.61541
1.61313
1.60754
1.59834
1.58996
1.58722
1.58686
1.58637
1.58465
1.58052
1.57224
1.56373
1.56072
1.56044
1.56026
1.55882
1.55592
1.54916
1.54029
1.53501
1.53411
1.53377
1.5325
1.53005
1.52431
1.51623
1.5124
1.51173
1.51108
1.50969
1.5073
1.50168
1.49353
1.487
1.48542
1.48532
1.48505
1.48363
1.48069
1.47538
1.4713
1.46947
1.46809
1.46628
1.46284
1.45592
1.45036
1.44941
1.44874
1.44775
1.47092
1.9195
2.2401
2.26692
2.26852
2.27262
2.27724
2.28272
2.28872
2.29489
2.29948
2.30177
2.30144
2.29684
2.29296
2.29491
2.29982
2.30433
2.30771
2.31024
2.31159
2.31152
2.31
2.30768
2.30522
2.30258
2.30165
2.30286
2.3047
2.30578
2.30602
2.30562
2.30287
2.2958
2.2897
2.28794
2.28696
2.28589
2.28445
2.28238
2.27923
2.27385
2.26625
2.26115
1.98699
1.98349
1.97974
1.97534
1.97158
1.96748
1.96296
1.95874
1.95398
1.9498
1.94568
1.94082
1.93634
1.93129
1.92635
1.92236
1.91765
1.91293
1.90836
1.90315
1.89887
1.89408
1.8887
1.88413
1.87887
1.87403
1.86936
1.86335
1.85812
1.85328
1.85026
1.84713
1.84187
1.83433
1.82464
1.82099
1.81985
1.81771
1.81412
1.80795
1.79813
1.78952
1.78684
1.78671
1.78596
1.78324
1.77691
1.76604
1.75572
1.75132
1.75062
1.75051
1.74886
1.74426
1.73521
1.725
1.71939
1.71829
1.71853
1.71745
1.71416
1.70604
1.69468
1.68659
1.68425
1.68409
1.68375
1.68162
1.67615
1.66667
1.65737
1.65322
1.65274
1.65283
1.65152
1.64805
1.63998
1.62978
1.62349
1.62219
1.62226
1.62151
1.61924
1.61358
1.60443
1.59622
1.59357
1.59326
1.59279
1.59104
1.5869
1.57855
1.56985
1.56661
1.56629
1.56612
1.56473
1.56186
1.55512
1.54636
1.5411
1.5402
1.53997
1.53877
1.53638
1.53071
1.52243
1.51813
1.51738
1.51676
1.5154
1.51303
1.50746
1.49935
1.49327
1.49198
1.49198
1.49173
1.4904
1.48697
1.48058
1.47606
1.47444
1.4732
1.47155
1.46865
1.46251
1.45596
1.45459
1.45409
1.45377
1.45211
1.45191
1.58653
2.11783
2.25472
2.26054
2.26558
2.27088
2.27673
2.28305
2.28796
2.29021
2.29049
2.28838
2.28487
2.28504
2.28923
2.29405
2.29769
2.3003
2.30197
2.3026
2.30219
2.30037
2.29768
2.29479
2.29278
2.2932
2.29544
2.29761
2.29868
2.29884
2.29765
2.29239
2.28445
2.28153
2.28092
2.28043
2.27963
2.27815
2.27577
2.27189
2.26515
2.25754
2.25398
1.98276
1.97959
1.97597
1.97263
1.96907
1.96494
1.96087
1.95618
1.95208
1.94831
1.94367
1.93922
1.93449
1.9293
1.92517
1.92053
1.91568
1.91122
1.90607
1.90203
1.89789
1.89278
1.88829
1.88326
1.87805
1.87342
1.86764
1.86217
1.85725
1.85297
1.8504
1.84622
1.84029
1.83238
1.82599
1.8248
1.82248
1.8184
1.81253
1.80317
1.79399
1.79093
1.79073
1.79024
1.78783
1.78227
1.77237
1.76216
1.7576
1.75672
1.75619
1.75427
1.74937
1.7398
1.72957
1.72421
1.72315
1.72359
1.72278
1.71986
1.71226
1.70116
1.69292
1.69054
1.69027
1.68972
1.6875
1.68179
1.67202
1.66293
1.65893
1.65849
1.6587
1.65748
1.6541
1.64615
1.63591
1.62961
1.62831
1.62835
1.62757
1.62527
1.61949
1.61023
1.60219
1.59962
1.59939
1.59901
1.59723
1.5931
1.58478
1.57599
1.57254
1.57218
1.57198
1.57063
1.56777
1.561
1.55224
1.547
1.54612
1.54597
1.54485
1.54253
1.53693
1.5286
1.52392
1.5231
1.52253
1.5212
1.51885
1.51331
1.50511
1.49926
1.49809
1.49808
1.49772
1.49632
1.49284
1.48608
1.48087
1.47946
1.47838
1.47687
1.47432
1.4688
1.46185
1.45988
1.4594
1.45888
1.45818
1.45671
1.45204
1.4612
1.81429
2.1963
2.24929
2.25842
2.2649
2.27086
2.27732
2.28042
2.28063
2.27846
2.27481
2.27439
2.27823
2.28372
2.28805
2.29101
2.2927
2.29341
2.29341
2.29251
2.2905
2.2879
2.2854
2.28432
2.28544
2.28798
2.29007
2.29109
2.29104
2.28849
2.28104
2.27498
2.27431
2.27424
2.27424
2.27384
2.27253
2.26981
2.2645
2.25584
2.24944
2.24716
1.97951
1.976
1.97303
1.96969
1.9657
1.962
1.95774
1.95335
1.94993
1.94598
1.94184
1.93754
1.93268
1.92858
1.92385
1.91871
1.9141
1.90867
1.90422
1.90067
1.89612
1.89182
1.88752
1.88272
1.8782
1.87252
1.86675
1.86172
1.85596
1.8529
1.84952
1.84411
1.83832
1.83128
1.8289
1.82685
1.82302
1.81793
1.80981
1.79997
1.79567
1.79475
1.79383
1.7914
1.78626
1.77715
1.76774
1.76343
1.76278
1.76232
1.7603
1.75539
1.74554
1.7347
1.72901
1.72781
1.72816
1.72742
1.72461
1.71739
1.70685
1.69888
1.69666
1.69651
1.69594
1.69367
1.68781
1.67768
1.66846
1.6645
1.66402
1.66424
1.66302
1.65967
1.6519
1.64182
1.63559
1.63434
1.63441
1.63362
1.63132
1.6254
1.61593
1.60796
1.60545
1.60524
1.60494
1.60317
1.59907
1.59083
1.58203
1.57842
1.57805
1.57787
1.57654
1.5737
1.56687
1.55802
1.55277
1.5519
1.55181
1.55076
1.54847
1.54295
1.53463
1.52968
1.52881
1.52831
1.52704
1.52474
1.51929
1.51099
1.50513
1.50399
1.50388
1.50334
1.50186
1.49827
1.49141
1.48586
1.48447
1.48358
1.48219
1.47996
1.47505
1.46779
1.46502
1.46456
1.46414
1.46323
1.46199
1.46006
1.45348
1.44587
1.52097
2.03194
2.2379
2.25436
2.26064
2.2665
2.2713
2.27232
2.27121
2.26665
2.264
2.26639
2.27215
2.27777
2.28177
2.28419
2.28514
2.2851
2.2842
2.2825
2.28044
2.27853
2.27729
2.27715
2.27841
2.28053
2.28224
2.28298
2.28242
2.27814
2.2701
2.26719
2.2673
2.26796
2.26836
2.26815
2.26689
2.26333
2.25557
2.24647
2.24248
2.24073
1.97606
1.97312
1.97031
1.96661
1.96291
1.9587
1.95408
1.95045
1.94667
1.94269
1.93904
1.93494
1.93152
1.92756
1.92273
1.91822
1.91254
1.90711
1.90313
1.89852
1.89396
1.88992
1.88567
1.88207
1.87743
1.87181
1.8671
1.86105
1.85635
1.85267
1.84744
1.84194
1.8356
1.83134
1.82971
1.82671
1.82264
1.81652
1.80715
1.80172
1.80025
1.79821
1.79512
1.78988
1.78093
1.77209
1.76811
1.76773
1.76766
1.76583
1.76139
1.75208
1.74074
1.7344
1.73297
1.73298
1.73202
1.72908
1.72185
1.7117
1.70418
1.70211
1.70218
1.70181
1.69969
1.69396
1.68369
1.67412
1.6701
1.66958
1.66969
1.6684
1.66496
1.65721
1.64735
1.6413
1.64011
1.64026
1.63954
1.63731
1.63132
1.62167
1.61365
1.61115
1.61095
1.61067
1.60892
1.60482
1.59666
1.58786
1.58415
1.5838
1.58369
1.5824
1.5796
1.57274
1.56375
1.55845
1.55759
1.55752
1.55653
1.55429
1.54881
1.54046
1.53531
1.5344
1.53402
1.53283
1.53062
1.52534
1.51698
1.51099
1.50979
1.50959
1.50893
1.50737
1.50379
1.49677
1.49084
1.48944
1.48876
1.48749
1.48549
1.48121
1.47385
1.47007
1.46952
1.46908
1.46824
1.46697
1.46482
1.46009
1.45117
1.44409
1.44776
1.70394
2.15675
2.24323
2.2538
2.26137
2.26442
2.26418
2.26067
2.25584
2.25593
2.26033
2.26597
2.27106
2.27474
2.27679
2.27751
2.27689
2.27459
2.27193
2.27018
2.26954
2.26974
2.27064
2.27192
2.27328
2.27432
2.2745
2.27299
2.267
2.2604
2.25978
2.26047
2.26181
2.26227
2.26206
2.26034
2.25487
2.2451
2.2384
2.23618
2.23463
1.97214
1.96992
1.96703
1.96381
1.96035
1.9562
1.95198
1.94751
1.94312
1.93914
1.93497
1.93207
1.92946
1.92557
1.92182
1.91759
1.91243
1.90749
1.90214
1.89696
1.89211
1.88706
1.88389
1.88068
1.87579
1.87147
1.86676
1.86153
1.85714
1.85171
1.84611
1.84
1.8335
1.83155
1.82933
1.82573
1.82136
1.81399
1.80795
1.8062
1.80353
1.79981
1.7945
1.78546
1.77627
1.77209
1.77162
1.77177
1.77018
1.76633
1.75795
1.74689
1.74024
1.7387
1.73841
1.73717
1.7341
1.72656
1.71633
1.70904
1.707
1.70714
1.70697
1.70509
1.69972
1.68964
1.67988
1.67575
1.67521
1.6752
1.67381
1.67024
1.66234
1.65256
1.6467
1.64555
1.6458
1.64517
1.64305
1.63714
1.62743
1.61931
1.6168
1.61658
1.6163
1.61455
1.61043
1.60226
1.59348
1.58971
1.58937
1.58935
1.58812
1.58536
1.57854
1.56947
1.56407
1.56319
1.56313
1.56219
1.56
1.5545
1.5461
1.54078
1.53982
1.53956
1.53849
1.5364
1.53135
1.52301
1.51682
1.51556
1.51531
1.51456
1.513
1.50944
1.50231
1.49595
1.49442
1.49387
1.49275
1.49092
1.48712
1.47992
1.47514
1.47439
1.47389
1.47301
1.47176
1.46964
1.46463
1.4572
1.44952
1.44649
1.44691
1.48788
1.94692
2.2158
2.2487
2.25319
2.25473
2.25401
2.2505
2.24896
2.25128
2.25575
2.26028
2.26444
2.26741
2.26922
2.2698
2.26865
2.26511
2.26182
2.26077
2.26119
2.26266
2.26427
2.26546
2.26625
2.26656
2.26611
2.26308
2.25608
2.25199
2.25236
2.25379
2.25527
2.25561
2.25518
2.25231
2.24438
2.23504
2.23149
2.23
2.22876
1.96815
1.96542
1.96241
1.95983
1.95718
1.95425
1.95017
1.94564
1.94109
1.93547
1.9313
1.92901
1.92598
1.92271
1.91957
1.91591
1.91194
1.90688
1.90151
1.89648
1.89007
1.88546
1.88242
1.87825
1.87409
1.87026
1.8661
1.86219
1.85698
1.85128
1.84565
1.83789
1.83389
1.83162
1.82788
1.82412
1.81875
1.81321
1.811
1.80821
1.80459
1.79982
1.79158
1.78164
1.77648
1.77548
1.7753
1.77368
1.77023
1.7625
1.75227
1.74575
1.74426
1.74405
1.74276
1.73967
1.7321
1.72146
1.71393
1.71177
1.71182
1.71169
1.7099
1.70482
1.6951
1.68541
1.68125
1.68074
1.68071
1.67928
1.67563
1.66758
1.65766
1.65188
1.65074
1.65104
1.65049
1.64846
1.64269
1.63305
1.62488
1.62237
1.62215
1.62186
1.62013
1.61598
1.60776
1.5989
1.59512
1.59476
1.59481
1.59364
1.59094
1.58419
1.57511
1.56964
1.56874
1.56868
1.56778
1.56561
1.5601
1.55162
1.54607
1.54505
1.54486
1.54392
1.54195
1.53714
1.52892
1.52257
1.52123
1.52096
1.52022
1.51865
1.5152
1.50804
1.50125
1.49953
1.49904
1.498
1.49626
1.49284
1.48586
1.48022
1.47924
1.47872
1.47778
1.47643
1.47429
1.46938
1.46199
1.45515
1.45253
1.45207
1.45091
1.45336
1.62423
2.10777
2.24277
2.24072
2.24142
2.24124
2.23997
2.2418
2.24632
2.2506
2.25437
2.25749
2.25966
2.26102
2.26121
2.25949
2.25548
2.25257
2.25228
2.25352
2.25565
2.25744
2.25858
2.25909
2.25906
2.25781
2.25321
2.24627
2.24442
2.24525
2.24699
2.24818
2.24836
2.24742
2.24277
2.23318
2.22656
2.22486
2.22384
2.22302
1.96593
1.9616
1.95786
1.95511
1.95355
1.95145
1.94798
1.94448
1.93985
1.93417
1.92989
1.92604
1.92224
1.91872
1.91573
1.91348
1.91018
1.90557
1.90133
1.89579
1.8895
1.88516
1.88069
1.87611
1.87182
1.86806
1.86554
1.86183
1.85663
1.85172
1.84492
1.83821
1.83494
1.83083
1.82665
1.82192
1.81641
1.81417
1.81166
1.80825
1.80426
1.79771
1.78808
1.78203
1.78043
1.77938
1.77733
1.77385
1.7663
1.75679
1.75056
1.74906
1.74913
1.74801
1.74514
1.73798
1.72717
1.71915
1.71681
1.71671
1.71648
1.71463
1.70959
1.70008
1.69061
1.68648
1.686
1.68604
1.68467
1.68106
1.67296
1.66284
1.65701
1.65584
1.65612
1.65558
1.65358
1.6479
1.63839
1.63027
1.62775
1.62757
1.62732
1.62562
1.62149
1.6132
1.60424
1.60039
1.6
1.60009
1.59897
1.59632
1.58964
1.58062
1.57511
1.57422
1.57421
1.57335
1.57121
1.56568
1.55705
1.55125
1.55013
1.54998
1.54915
1.54729
1.54265
1.53456
1.52809
1.52667
1.52644
1.52574
1.5242
1.52091
1.51383
1.50669
1.50472
1.50424
1.50332
1.50164
1.49848
1.49178
1.48542
1.48412
1.48362
1.48269
1.48128
1.47905
1.47408
1.46686
1.4603
1.45818
1.45806
1.458
1.4565
1.45456
1.47352
1.84984
2.19208
2.23239
2.22945
2.22962
2.23146
2.23602
2.24063
2.24464
2.24822
2.2506
2.25185
2.25234
2.25193
2.24964
2.24629
2.24479
2.24515
2.24682
2.24879
2.25035
2.25137
2.25178
2.25159
2.24953
2.24363
2.23805
2.23765
2.23865
2.24011
2.24084
2.24076
2.23883
2.23214
2.22276
2.21935
2.21838
2.21784
2.21738
1.96486
1.95971
1.95435
1.95139
1.95019
1.94803
1.94527
1.94227
1.9381
1.93295
1.92781
1.9232
1.91877
1.91436
1.91232
1.91067
1.9074
1.90407
1.90037
1.89519
1.88963
1.8841
1.879
1.87421
1.86916
1.86687
1.86477
1.86063
1.85631
1.85142
1.84463
1.83973
1.835
1.83042
1.82591
1.81959
1.81654
1.81434
1.81103
1.80715
1.80173
1.79349
1.78779
1.78606
1.78417
1.78171
1.77801
1.77058
1.76116
1.75497
1.75331
1.75343
1.75245
1.74987
1.74338
1.73282
1.72444
1.722
1.72181
1.72147
1.7196
1.71452
1.70503
1.69559
1.69146
1.69096
1.69108
1.68981
1.68634
1.67834
1.66812
1.66217
1.66099
1.66122
1.66065
1.65862
1.65294
1.64347
1.63542
1.6329
1.63275
1.63256
1.63095
1.62689
1.61861
1.60953
1.60558
1.60516
1.60526
1.60416
1.60154
1.59489
1.58592
1.58042
1.57954
1.57961
1.57884
1.57677
1.57132
1.56258
1.55645
1.5552
1.55505
1.55427
1.55247
1.54798
1.53999
1.53331
1.53178
1.5316
1.531
1.5295
1.52637
1.51951
1.51211
1.5099
1.50947
1.50861
1.50698
1.50402
1.4975
1.4907
1.48905
1.4886
1.48774
1.48633
1.48406
1.47903
1.47171
1.46563
1.46393
1.46393
1.46395
1.46287
1.46089
1.45687
1.45678
1.55756
2.04991
2.21112
2.22329
2.22361
2.22572
2.22962
2.23329
2.23721
2.24076
2.24268
2.24328
2.24312
2.24189
2.23956
2.23799
2.2381
2.23929
2.24087
2.24225
2.24335
2.24417
2.24447
2.24401
2.24078
2.23426
2.23124
2.23155
2.23249
2.23337
2.2336
2.23301
2.22959
2.22113
2.21405
2.21277
2.21227
2.21213
2.21186
1.96332
1.95763
1.95268
1.95011
1.94738
1.94417
1.94159
1.93919
1.93595
1.9313
1.92628
1.92128
1.91511
1.91128
1.90965
1.90696
1.90392
1.90128
1.89831
1.8943
1.88893
1.88345
1.87847
1.87209
1.86824
1.86623
1.86281
1.85869
1.85485
1.84974
1.84497
1.84006
1.83512
1.8309
1.82479
1.81973
1.817
1.81332
1.8094
1.80455
1.79764
1.79265
1.79061
1.78854
1.78602
1.78252
1.77563
1.76597
1.75941
1.75748
1.75733
1.75632
1.75396
1.74806
1.73798
1.72947
1.7269
1.72673
1.72642
1.7246
1.71966
1.71019
1.70061
1.69634
1.69578
1.69592
1.69474
1.69142
1.68359
1.67341
1.66733
1.66612
1.66633
1.66576
1.66369
1.65801
1.6485
1.64043
1.63787
1.63772
1.63759
1.63605
1.6321
1.62391
1.61476
1.61071
1.61026
1.61036
1.60929
1.60667
1.6
1.59103
1.58551
1.58462
1.58477
1.5841
1.58216
1.57689
1.56811
1.56175
1.56037
1.56017
1.55941
1.55768
1.55331
1.54533
1.53834
1.53666
1.53646
1.53596
1.5345
1.53153
1.52487
1.51737
1.51492
1.51453
1.5138
1.51225
1.50942
1.50314
1.49597
1.49389
1.49352
1.49281
1.49146
1.48924
1.48415
1.47673
1.47106
1.46977
1.46986
1.46983
1.46881
1.46627
1.4628
1.45953
1.45651
1.46424
1.74112
2.14059
2.2108
2.21521
2.21901
2.22188
2.22498
2.22866
2.2322
2.23438
2.23502
2.2343
2.23178
2.22977
2.22998
2.23167
2.23351
2.23496
2.23593
2.23665
2.23722
2.23729
2.23605
2.23105
2.22565
2.22518
2.22581
2.22649
2.22683
2.22672
2.22526
2.21996
2.21086
2.20704
2.20668
2.20665
2.20674
2.20643
1.96145
1.95531
1.95035
1.94685
1.94355
1.94015
1.93798
1.93655
1.93386
1.92979
1.92551
1.91965
1.91318
1.90961
1.90633
1.9029
1.89974
1.8975
1.89565
1.89232
1.88763
1.88326
1.87769
1.87172
1.86847
1.86491
1.86063
1.85641
1.85169
1.8482
1.84447
1.83974
1.83585
1.83105
1.82467
1.82056
1.81631
1.81201
1.80755
1.80115
1.79683
1.79451
1.792
1.78935
1.78625
1.78049