/*--------------------------------*- C++ -*----------------------------------*\
  =========                 |
  \\      /  F ield         | OpenFOAM: The Open Source CFD Toolbox
   \\    /   O peration     | Website:  https://openfoam.org
    \\  /    A nd           | Version:  7
     \\/     M anipulation  |
\*---------------------------------------------------------------------------*/
FoamFile
{
    version     2.0;
    format      ascii;
    class       volScalarField;
    location    "1.4";
    object      rho;
}
// * * * * * * * * * * * * * * * * * * * * * * * * * * * * * * * * * * * * * //

dimensions      [1 -3 0 0 0 0 0];

internalField   nonuniform List<scalar> 
16192
(
2.18531
2.10165
2.02161
1.94864
1.8873
1.84328
1.7894
1.6693
1.50309
1.43602
1.46693
1.55421
1.685
1.82808
1.95844
2.10757
2.26829
2.46223
2.6374
2.78338
2.881
2.18308
2.09925
2.0193
1.94612
1.88505
1.83923
1.78835
1.67517
1.51969
1.45351
1.47894
1.56216
1.6863
1.8283
1.95894
2.09677
2.25286
2.4477
2.61384
2.75402
2.84744
2.18244
2.09804
2.01728
1.9437
1.88334
1.83769
1.78656
1.68344
1.54333
1.48629
1.50719
1.58643
1.70472
1.84128
1.97203
2.09984
2.24266
2.40543
2.56211
2.69
2.77971
2.18242
2.09844
2.01666
1.94187
1.88032
1.83457
1.78863
1.70004
1.58557
1.53668
1.55195
1.61923
1.72222
1.84287
1.9485
2.05372
2.18918
2.33312
2.47329
2.5876
2.66904
2.18474
2.10257
2.0216
1.94511
1.88128
1.8328
1.78672
1.71245
1.62438
1.58512
1.59324
1.6433
1.72328
1.82124
1.90656
1.99825
2.11361
2.23635
2.36365
2.46783
2.54366
2.1856
2.10712
2.02772
1.95265
1.88675
1.83317
1.78601
1.72267
1.65731
1.62426
1.62497
1.65575
1.71283
1.78455
1.84944
1.92309
2.0205
2.13465
2.25742
2.35394
2.42104
2.18548
2.11135
2.03676
1.96335
1.896
1.83834
1.78488
1.72986
1.68036
1.65359
1.64767
1.66346
1.69847
1.74491
1.79115
1.85349
1.94312
2.04618
2.15997
2.24982
2.31124
2.17493
2.10546
2.03884
1.97071
1.90695
1.84638
1.78998
1.73394
1.69154
1.66568
1.65238
1.6556
1.6722
1.7056
1.74357
1.79663
1.87588
1.96663
2.07404
2.15968
2.21541
2.15936
2.09075
2.0283
1.96995
1.91263
1.85414
1.79572
1.74202
1.69724
1.66852
1.65113
1.64726
1.65294
1.67617
1.70667
1.75225
1.82287
1.90153
2.00114
2.07967
2.13205
2.13938
2.07083
2.01044
1.95617
1.90519
1.85486
1.80116
1.74745
1.70409
1.67122
1.64946
1.63853
1.63625
1.65359
1.68095
1.71978
1.7803
1.84702
1.93969
2.01546
2.06812
2.12071
2.05257
1.99267
1.93998
1.89187
1.8457
1.79903
1.75177
1.70874
1.67315
1.64745
1.63321
1.6285
1.64122
1.66359
1.69466
1.74606
1.80375
1.89434
1.97348
2.03446
2.09376
2.02747
1.96845
1.91749
1.87395
1.83262
1.79099
1.75032
1.71127
1.67609
1.64943
1.63033
1.62439
1.633
1.65135
1.67619
1.72073
1.7721
1.86353
1.94502
2.01378
2.07246
2.00555
1.94687
1.8961
1.85416
1.81675
1.78182
1.74436
1.7101
1.67571
1.65091
1.62642
1.62402
1.62996
1.64547
1.66511
1.70451
1.75121
1.83994
1.91238
1.97623
2.05229
1.98022
1.91966
1.86788
1.82554
1.79031
1.75884
1.72989
1.69896
1.66807
1.64599
1.62399
1.62365
1.62815
1.64279
1.65934
1.69675
1.74191
1.82525
1.88187
1.93306
2.04283
1.96643
1.90314
1.84844
1.80424
1.76695
1.73655
1.70862
1.68258
1.65703
1.63684
1.6184
1.61953
1.62652
1.64444
1.66124
1.70008
1.74661
1.82749
1.87581
1.9285
2.04481
1.95776
1.88935
1.83035
1.78325
1.74254
1.70958
1.68242
1.65783
1.63428
1.61802
1.60586
1.61096
1.62551
1.65056
1.67114
1.71477
1.76567
1.8475
1.894
1.94732
2.05816
1.95802
1.8858
1.82332
1.77415
1.73217
1.69693
1.66463
1.63702
1.61478
1.60034
1.59385
1.60355
1.62536
1.66036
1.68901
1.74023
1.79674
1.88196
1.92884
1.98587
2.10776
1.98721
1.89732
1.8227
1.77013
1.72469
1.68795
1.65479
1.62571
1.6006
1.58446
1.57955
1.5954
1.62975
1.67791
1.71783
1.77838
1.84144
1.93004
1.97754
2.03815
2.1629
2.02233
1.917
1.83204
1.77362
1.72327
1.68616
1.65206
1.62237
1.59692
1.57986
1.57553
1.59391
1.64121
1.70334
1.75539
1.82476
1.89386
1.98704
2.03613
2.0997
2.27042
2.10908
1.98019
1.8734
1.79784
1.73581
1.69101
1.65207
1.62171
1.59696
1.58025
1.57623
1.60041
1.65923
1.73544
1.80098
1.88039
1.9545
2.04978
2.09855
2.16517
2.39039
2.20663
2.05044
1.92444
1.83287
1.75806
1.70502
1.66181
1.6295
1.60244
1.58314
1.57882
1.60788
1.6819
1.77391
1.85153
1.94022
2.018
2.11611
2.16657
2.23818
2.51376
2.32802
2.16123
2.02132
1.9096
1.81784
1.7481
1.69226
1.64892
1.6153
1.59207
1.58595
1.61617
1.70439
1.81604
1.90907
2.0071
2.08733
2.18614
2.2362
2.31109
2.62575
2.44852
2.27814
2.12683
1.99683
1.88911
1.80317
1.73608
1.68344
1.64394
1.61596
1.6022
1.62963
1.72797
1.8587
1.96853
2.07673
2.15838
2.25691
2.30746
2.39037
2.72449
2.55784
2.39159
2.24208
2.10697
1.99031
1.89123
1.81245
1.74584
1.69541
1.65584
1.63305
1.64931
1.75423
1.90601
2.03163
2.14756
2.23247
2.33359
2.38306
2.47061
2.7962
2.64908
2.49625
2.35167
2.21398
2.09537
1.98784
1.8983
1.81868
1.75854
1.71005
1.67911
1.67399
1.78385
1.96008
2.10782
2.2271
2.31292
2.41532
2.4592
2.55664
2.85418
2.71812
2.5779
2.44623
2.31634
2.20014
2.08768
1.99698
1.9118
1.84353
1.78276
1.74355
1.71264
1.80905
2.01258
2.19566
2.31759
2.40491
2.50386
2.54233
2.65085
2.90324
2.77555
2.6429
2.5194
2.39766
2.29182
2.18167
2.09279
2.00329
1.93082
1.86147
1.81788
1.76364
1.82011
2.04612
2.28411
2.42322
2.51566
2.60566
2.63555
2.75456
2.94559
2.82306
2.69873
2.57939
2.46039
2.3636
2.26019
2.17494
2.08968
2.01844
1.94448
1.8987
1.83034
1.84531
2.05111
2.35921
2.54769
2.64193
2.71945
2.7406
2.87259
2.98109
2.86448
2.74549
2.63302
2.51502
2.42157
2.3207
2.24021
2.16485
2.09362
2.0212
1.97363
1.90801
1.88576
2.01264
2.37785
2.66626
2.77953
2.84723
2.86733
2.99113
3.01298
2.90003
2.78564
2.67981
2.56394
2.47469
2.37474
2.29099
2.21986
2.15334
2.08881
2.03671
1.98366
1.92899
1.98373
2.35062
2.75187
2.92379
2.9877
3.00608
3.11413
3.04348
2.93246
2.82102
2.721
2.60513
2.51979
2.42483
2.33675
2.26685
2.19973
2.13939
2.08525
2.0443
1.98101
1.99194
2.24511
2.76121
3.05552
3.13335
3.16096
3.19604
3.07312
2.96351
2.85356
2.75745
2.6424
2.55803
2.46749
2.37803
2.30939
2.24219
2.18196
2.12788
2.08807
2.03227
2.00931
2.13775
2.71542
3.15592
3.28013
3.28806
3.25649
3.10191
2.99439
2.88453
2.79131
2.67716
2.59099
2.5043
2.41516
2.34645
2.27995
2.21933
2.16771
2.12588
2.07841
2.03219
2.07719
2.56546
3.177
3.41274
3.37687
2.90314
3.12993
3.02442
2.91432
2.82376
2.71084
2.62223
2.53723
2.44803
2.37932
2.31388
2.25321
2.20404
2.15804
2.11816
2.06311
2.08197
2.37823
3.15089
3.48197
3.42908
2.99783
3.15643
3.05389
2.94396
2.8544
2.74367
2.65421
2.56883
2.47907
2.41102
2.34344
2.28108
2.23571
2.18892
2.14965
2.10398
2.0949
2.22798
3.02174
3.49874
3.46479
3.09233
3.18215
3.08196
2.97257
2.88519
2.77698
2.68523
2.60186
2.50993
2.44151
2.37133
2.3081
2.26326
2.21343
2.17624
2.14203
2.11258
2.15683
2.80598
3.50714
3.49357
3.16725
3.20676
3.10945
3.00149
2.91493
2.80949
2.71803
2.63538
2.54056
2.47288
2.40035
2.33217
2.28912
2.23665
2.19886
2.17018
2.13366
2.15616
2.57168
3.45981
3.50785
3.22128
3.23098
3.13624
3.0302
2.94432
2.84281
2.74907
2.66902
2.57374
2.50305
2.42935
2.35858
2.3131
2.25957
2.21915
2.19438
2.15678
2.16915
2.39061
3.32452
3.51159
3.26123
3.25483
3.16249
3.05904
2.97294
2.87547
2.78053
2.70179
2.60571
2.5339
2.45991
2.38525
2.33734
2.28463
2.24044
2.2158
2.18322
2.18651
2.27919
3.10478
3.49833
3.28564
3.27796
3.1879
3.08773
3.00063
2.90745
2.8107
2.73308
2.63845
2.56305
2.49071
2.41367
2.36319
2.30975
2.26251
2.23908
2.21003
2.20187
2.24198
2.8567
3.4626
3.29725
3.30003
3.21189
3.11608
3.02739
2.93756
2.84084
2.76251
2.67073
2.59242
2.52166
2.44355
2.39013
2.33533
2.28609
2.26144
2.23612
2.21821
2.24117
2.63503
3.39022
3.29083
3.32068
3.23417
3.14313
3.05323
2.96592
2.87079
2.7908
2.70247
2.62258
2.55223
2.47383
2.41852
2.36174
2.30905
2.28292
2.26001
2.23751
2.25211
2.47124
3.26883
3.27607
3.33992
3.25498
3.16822
3.07816
2.9928
2.90056
2.81881
2.73351
2.65255
2.58342
2.50424
2.44585
2.38923
2.33181
2.30349
2.28089
2.26204
2.26845
2.37382
3.09271
3.26678
3.35751
3.27441
3.19126
3.10209
3.01865
2.92978
2.84653
2.76412
2.68218
2.61364
2.53454
2.4729
2.41632
2.3549
2.3237
2.3007
2.28589
2.28655
2.33329
2.9106
3.24651
3.37412
3.29298
3.21245
3.12508
3.04355
2.95793
2.87383
2.79403
2.71115
2.64258
2.56459
2.49934
2.44272
2.37922
2.34429
2.31939
2.3072
2.30608
2.32921
2.73683
3.21211
3.3899
3.31076
3.23243
3.14726
3.06724
2.98462
2.90044
2.82249
2.74002
2.6695
2.59395
2.52622
2.46854
2.40406
2.36549
2.33824
2.32659
2.32601
2.33567
2.59834
3.1448
3.40509
3.32811
3.25145
3.16893
3.08962
3.00955
2.92611
2.84914
2.76824
2.69574
2.62231
2.55285
2.49538
2.42981
2.38688
2.3577
2.34552
2.34521
2.34919
2.50534
3.0549
3.41917
3.34465
3.26952
3.18966
3.11079
3.03265
2.95104
2.87422
2.79553
2.72194
2.65053
2.5795
2.5227
2.45641
2.40967
2.37792
2.36309
2.36306
2.36455
2.45327
2.95197
3.43229
3.36021
3.28673
3.20934
3.13105
3.05442
2.97496
2.89864
2.82164
2.74825
2.67871
2.60653
2.55005
2.4835
2.43402
2.39827
2.37942
2.37993
2.38049
2.44056
2.86608
3.44428
3.37455
3.30285
3.22796
3.15046
3.07525
2.99788
2.92256
2.8469
2.77444
2.70616
2.63428
2.57661
2.51059
2.45898
2.41814
2.39515
2.3959
2.39626
2.44003
2.78332
3.45537
3.38819
3.31795
3.24519
3.16914
3.0952
3.01989
2.94584
2.87159
2.79985
2.73242
2.66175
2.60182
2.5373
2.48307
2.43799
2.41128
2.41089
2.41118
2.44536
2.7266
3.46495
3.4004
3.33163
3.2611
3.187
3.11452
3.04089
2.96847
2.89509
2.82431
2.75661
2.6881
2.62579
2.56246
2.50567
2.45813
2.42844
2.42438
2.42463
2.45493
2.69171
3.47302
3.41085
3.34391
3.27563
3.20412
3.13327
3.06091
2.99004
2.91772
2.84716
2.77913
2.7124
2.64879
2.5864
2.52709
2.47848
2.44561
2.43692
2.43694
2.46551
2.68397
3.47956
3.4198
3.35509
3.28917
3.2205
3.15136
3.08048
3.01027
2.93913
2.86899
2.80011
2.73491
2.67119
2.60942
2.54815
2.49974
2.46224
2.44899
2.44827
2.47576
2.68131
3.48507
3.42794
3.36581
3.30222
3.23625
3.16885
3.09915
3.02981
2.95925
2.8899
2.82056
2.75643
2.69283
2.63286
2.56965
2.52125
2.47851
2.46175
2.45914
2.48461
2.68357
3.49008
3.43581
3.37648
3.31501
3.25109
3.18511
3.11694
3.04818
2.97864
2.91035
2.84103
2.77769
2.71448
2.65594
2.59274
2.54261
2.49482
2.47555
2.469
2.49099
2.68876
3.49441
3.44302
3.38649
3.32691
3.26446
3.19981
3.13336
3.06595
2.9975
2.93045
2.86219
2.79879
2.73651
2.67851
2.61694
2.56401
2.5119
2.48951
2.47781
2.49556
2.69394
3.49834
3.44939
3.39521
3.33723
3.27625
3.2131
3.14873
3.0831
3.01608
2.95058
2.88331
2.82012
2.75846
2.70048
2.64058
2.58587
2.53035
2.50254
2.48583
2.49967
2.69709
3.5012
3.45424
3.40212
3.34583
3.28656
3.2255
3.16329
3.09969
3.03424
2.96996
2.90416
2.84063
2.77967
2.72188
2.66295
2.60738
2.5501
2.51524
2.49359
2.50424
2.69637
3.50358
3.4582
3.40796
3.35357
3.29626
3.23751
3.17747
3.11541
3.05154
2.98816
2.92353
2.86071
2.79949
2.74216
2.68417
2.62818
2.57066
2.52868
2.50162
2.50938
2.68835
3.50505
3.46103
3.41265
3.36044
3.30536
3.24878
3.1908
3.13006
3.06727
3.00493
2.94125
2.87946
2.81883
2.76131
2.70417
2.64786
2.59129
2.54322
2.51038
2.515
2.67424
3.50668
3.46371
3.41701
3.367
3.31413
3.25937
3.20305
3.14352
3.08188
3.02049
2.95826
2.89763
2.83761
2.77997
2.72323
2.66666
2.61195
2.55825
2.52131
2.52123
2.65539
3.50816
3.46598
3.42085
3.37297
3.32218
3.26885
3.21385
3.15572
3.09544
3.03544
2.97465
2.91539
2.85635
2.79814
2.74159
2.68409
2.63187
2.57484
2.53224
2.52829
2.63677
3.51033
3.46866
3.42481
3.37876
3.32978
3.27775
3.22374
3.16712
3.1085
3.05012
2.99094
2.93291
2.8745
2.81578
2.75899
2.70164
2.64938
2.59417
2.54344
2.53568
2.6246
3.51317
3.47159
3.4287
3.38413
3.3367
3.28595
3.23293
3.17787
3.12096
3.06435
3.00654
2.94921
2.8915
2.83256
2.77523
2.71868
2.6663
2.61318
2.55883
2.54398
2.6138
3.51711
3.47512
3.43277
3.38922
3.34304
3.29377
3.24179
3.18819
3.13295
3.07764
3.02116
2.96413
2.9069
2.84797
2.79103
2.73493
2.68395
2.63201
2.57815
2.55418
2.60607
3.52248
3.47959
3.4371
3.394
3.34878
3.30103
3.25036
3.19816
3.14431
3.08999
3.03412
2.97742
2.92049
2.86245
2.80599
2.75136
2.70157
2.65215
2.59918
2.56564
2.60114
3.52882
3.48478
3.44174
3.39862
3.35399
3.30781
3.25868
3.20789
3.15522
3.1014
3.04591
2.98949
2.93269
2.87617
2.82095
2.76804
2.71997
2.67337
2.62172
2.57823
2.59838
3.53664
3.49143
3.44744
3.40387
3.35945
3.31434
3.26665
3.21732
3.16566
3.11235
3.05682
3.00081
2.94436
2.88969
2.83636
2.78553
2.73907
2.69488
2.64459
2.59306
2.59789
3.54518
3.49899
3.454
3.40977
3.36524
3.3207
3.27412
3.22614
3.17533
3.12252
3.06736
3.01193
2.95621
2.90374
2.85294
2.80435
2.75863
2.71612
2.66571
2.60959
2.59729
3.55494
3.50805
3.46218
3.41714
3.37223
3.3276
3.2815
3.23434
3.18418
3.132
3.07778
3.02352
2.96934
2.91923
2.87088
2.82455
2.77826
2.73503
2.6853
2.62168
2.59821
3.56516
3.51794
3.47146
3.42568
3.38019
3.33492
3.28868
3.24179
3.19211
3.14075
3.08829
3.03613
2.98424
2.93645
2.89035
2.84416
2.79693
2.75099
2.70144
2.63258
2.60142
3.57594
3.52877
3.48208
3.43565
3.38941
3.34315
3.29621
3.24898
3.19976
3.14963
3.09966
3.05061
3.00159
2.95521
2.90975
2.86254
2.81281
2.76438
2.71242
2.6445
2.60553
3.58677
3.5399
3.49331
3.44647
3.39947
3.352
3.30413
3.25635
3.20788
3.15974
3.1129
3.06695
3.02062
2.97403
2.92771
2.87783
2.82532
2.77349
2.72105
2.65639
2.60511
3.59774
3.55117
3.50486
3.45778
3.41007
3.36151
3.31298
3.26504
3.21772
3.17219
3.1286
3.08481
3.04013
2.99128
2.94231
2.8889
2.83494
2.7801
2.72894
2.66651
2.60917
3.60878
3.56228
3.51607
3.46881
3.42074
3.37175
3.32339
3.2762
3.23075
3.18789
3.14642
3.10267
3.05698
3.00578
2.95309
2.89742
2.84176
2.78613
2.73614
2.67578
2.61968
3.61989
3.573
3.5266
3.47926
3.43133
3.38307
3.33626
3.29098
3.24759
3.206
3.16415
3.11834
3.0702
3.01606
2.96075
2.90434
2.84771
2.79251
2.74305
2.68724
2.63062
3.63108
3.58332
3.53646
3.48925
3.4425
3.39663
3.35261
3.3097
3.26758
3.2247
3.17988
3.13031
3.07863
3.02311
2.96688
2.91039
2.85413
2.79936
2.75143
2.70088
2.64557
3.6421
3.5932
3.54616
3.49993
3.45565
3.41334
3.37239
3.33074
3.28761
3.24089
3.19149
3.13826
3.08398
3.02752
2.97127
2.9165
2.862
2.8083
2.76203
2.71477
2.6632
3.65313
3.60363
3.55719
3.51312
3.47242
3.43354
3.39395
3.35131
3.30463
3.25346
3.19957
3.14337
3.08749
3.03162
2.97662
2.92333
2.87151
2.81975
2.77521
2.73052
2.68211
3.66476
3.61582
3.57149
3.53063
3.49292
3.45504
3.41381
3.36744
3.31647
3.26147
3.20488
3.1477
3.09149
3.0362
2.98287
2.93182
2.88313
2.83387
2.78981
2.74645
2.70034
3.67852
3.63226
3.59093
3.55229
3.51454
3.47366
3.42834
3.37794
3.32385
3.26708
3.2095
3.15243
3.09688
3.04318
2.99221
2.94306
2.89648
2.84933
2.80469
2.76241
2.71635
3.69629
3.65379
3.61461
3.57511
3.53287
3.48629
3.43627
3.38318
3.32811
3.27133
3.21451
3.15893
3.10512
3.05342
3.0047
2.95701
2.91144
2.86536
2.81911
2.77672
2.73112
3.71935
3.67921
3.63847
3.59353
3.54456
3.49273
3.43983
3.386
3.33146
3.27602
3.22118
3.16792
3.11634
3.06721
3.02044
2.97372
2.9273
2.88135
2.83358
2.78949
2.74552
3.7456
3.70253
3.65597
3.60444
3.55051
3.49573
3.44173
3.38835
3.33552
3.28282
3.23096
3.18035
3.13083
3.08339
3.03753
2.99118
2.94394
2.89752
2.84838
2.80211
2.75881
3.76888
3.71861
3.66494
3.60874
3.55306
3.49782
3.44436
3.39261
3.34235
3.29309
3.24459
3.19604
3.14756
3.10063
3.055
3.00848
2.96112
2.9134
2.8643
2.81646
2.7719
3.78326
3.72523
3.66736
3.61001
3.55502
3.5013
3.44993
3.40061
3.35316
3.30701
3.26113
3.21388
3.16566
3.11807
3.07166
3.0247
2.97766
2.92962
2.88074
2.83158
2.78615
3.78865
3.72649
3.66739
3.61097
3.55882
3.50877
3.46088
3.41378
3.36781
3.32311
3.27859
3.23213
3.18407
3.13597
3.08846
3.04087
2.99352
2.94537
2.89685
2.84732
2.80127
3.78987
3.72722
3.66852
3.61511
3.56729
3.5219
3.47717
3.43098
3.38445
3.33905
3.2945
3.24886
3.20191
3.15408
3.10553
3.05686
3.00876
2.96051
2.91174
2.86303
2.81581
3.79038
3.72925
3.67404
3.62526
3.58201
3.54018
3.49635
3.44933
3.40115
3.3544
3.30937
3.26422
3.21849
3.17144
3.1226
3.07287
3.0236
2.97486
2.92625
2.87808
2.83065
3.7923
3.73568
3.68704
3.64328
3.60243
3.55971
3.51392
3.46547
3.41643
3.36922
3.32396
3.27919
3.23426
3.18759
3.13826
3.0879
3.03814
2.98924
2.94084
2.89336
2.84677
3.80103
3.75289
3.70941
3.66664
3.62367
3.57724
3.52898
3.47979
3.43129
3.3847
3.33939
3.29423
3.24892
3.20194
3.15247
3.10191
3.0522
3.00375
2.95625
2.90949
2.86354
3.8211
3.77861
3.7347
3.68862
3.64112
3.59162
3.54247
3.4938
3.44663
3.4008
3.35524
3.30939
3.26327
3.21543
3.16561
3.11553
3.06664
3.019
2.97243
2.92663
2.88138
3.8466
3.80419
3.75699
3.70671
3.65546
3.60486
3.55632
3.50921
3.46355
3.41787
3.37139
3.32419
3.27697
3.22847
3.17886
3.12969
3.08178
3.03527
2.98943
2.94402
2.89903
1.36872
0.866371
0.730849
0.718597
0.71742
0.75375
0.820942
0.880538
0.908598
0.910937
0.94644
1.0495
1.10993
1.11432
1.1153
1.11277
1.09855
1.07866
1.06354
1.05222
1.04337
1.03617
1.02972
1.02358
1.01621
1.00518
0.994651
0.991076
0.989522
0.988783
0.989121
0.99042
0.99126
0.991146
0.990691
0.990451
0.990643
0.991185
0.991345
0.991081
0.991173
0.992675
0.995821
0.999468
1.00317
1.00756
1.01298
1.01879
1.02416
1.02876
1.0332
1.03806
1.04199
1.04412
1.04515
1.0455
1.04533
1.0456
1.04803
1.05219
1.05684
1.06164
1.06683
1.07295
1.08017
1.08722
1.09152
1.09356
1.09603
1.10029
1.10579
1.11079
1.11553
1.12224
1.13094
1.13483
1.13796
1.14526
1.15916
1.17043
1.17387
1.17406
1.17373
1.17277
1.17147
1.16903
1.16468
1.16024
1.15557
1.14942
1.14502
1.14279
1.14037
1.13818
1.13794
1.13772
1.13645
1.13502
1.13344
1.13097
1.12433
1.11497
1.10791
1.10262
1.09802
1.09574
1.09327
1.08796
1.07898
1.06976
1.0643
1.06115
1.06135
1.0643
1.06823
1.0716
1.07378
1.0731
1.06365
1.05142
1.04558
1.04259
1.03959
1.03546
1.02948
1.02155
1.01072
0.998412
0.992568
0.99216
0.993162
0.995999
0.997077
0.995943
0.984155
0.961384
0.949199
0.948063
0.948645
0.950283
0.950647
0.950423
0.948603
0.941916
0.930515
0.926002
0.926802
0.930557
0.936544
0.938108
0.937431
0.931135
0.91868
0.916161
0.919723
0.926486
0.939028
0.953574
0.960315
0.964219
0.966456
0.966733
0.968619
0.971272
0.973866
0.977145
0.980427
0.982169
0.983363
0.984396
0.985782
0.988627
0.994123
1.0016
1.00862
1.0141
1.01785
1.02095
1.02379
1.02497
1.02356
1.02341
1.03067
1.04259
1.05017
1.05465
1.05806
1.05668
1.05295
1.05025
1.05261
1.06491
1.07374
1.07307
1.06956
1.0658
1.06318
1.06198
1.0662
1.0797
1.09129
1.0928
1.09119
1.08589
1.07993
1.07801
1.07717
1.08014
1.0902
1.096
1.09552
1.09408
1.09056
1.08266
1.07754
1.0765
1.07572
1.07589
1.07797
1.07671
1.07403
1.07082
1.06654
1.06111
1.05549
1.04989
1.04398
1.03755
1.03052
1.02279
1.90074
1.40026
1.15776
1.03873
0.935006
0.89481
0.879295
0.870896
0.880909
0.899621
0.942585
1.04669
1.1284
1.13364
1.13427
1.12882
1.11542
1.09783
1.08235
1.06861
1.05628
1.04684
1.03874
1.03137
1.02411
1.01494
1.00544
1.00062
0.998427
0.996793
0.995431
0.993909
0.991804
0.989619
0.988085
0.987505
0.987673
0.988747
0.990378
0.992361
0.994911
0.99835
1.00226
1.00617
1.0092
1.01138
1.01391
1.01722
1.02144
1.02676
1.03259
1.03815
1.04283
1.04605
1.04776
1.04853
1.04905
1.05015
1.05252
1.05621
1.06091
1.06608
1.07131
1.07645
1.0813
1.08574
1.09006
1.09388
1.09747
1.10185
1.10724
1.11221
1.11674
1.12343
1.13148
1.13541
1.13905
1.14608
1.16007
1.17235
1.17655
1.17731
1.17732
1.1769
1.17562
1.17368
1.17079
1.16623
1.16152
1.15635
1.15197
1.14945
1.14694
1.14374
1.14248
1.14099
1.13894
1.13739
1.13573
1.13371
1.12925
1.12155
1.11505
1.11014
1.10363
1.09775
1.09476
1.08971
1.08189
1.07561
1.0718
1.06946
1.06841
1.068
1.06895
1.07132
1.07265
1.07047
1.06366
1.05685
1.05368
1.05183
1.04954
1.04571
1.03967
1.03089
1.01847
1.00372
0.994917
0.99347
0.993737
0.994673
0.99431
0.991385
0.982505
0.967003
0.956747
0.954947
0.955034
0.956
0.956154
0.955702
0.95366
0.946261
0.93293
0.926474
0.926509
0.92839
0.932743
0.934811
0.935054
0.93248
0.924064
0.919773
0.922693
0.929076
0.940736
0.952957
0.958267
0.96146
0.962757
0.964916
0.968137
0.971463
0.974951
0.979033
0.982355
0.984061
0.985244
0.986249
0.987489
0.989888
0.994616
1.0015
1.00773
1.011
1.01256
1.01324
1.01408
1.01643
1.02146
1.02802
1.03444
1.03923
1.04337
1.04649
1.04917
1.05186
1.05385
1.05565
1.05785
1.06145
1.06545
1.06837
1.06981
1.06923
1.06811
1.06795
1.07136
1.07951
1.08689
1.08805
1.08661
1.08486
1.08321
1.08162
1.08104
1.08373
1.09192
1.0956
1.09465
1.09277
1.08911
1.08401
1.08133
1.08047
1.07987
1.0803
1.08067
1.07852
1.07573
1.07236
1.06767
1.06141
1.05521
1.04966
1.04378
1.03776
1.03169
1.02501
2.24427
1.77355
1.44171
1.25201
1.1072
0.969966
0.935549
0.908566
0.905318
0.930704
0.978429
1.07292
1.18298
1.20765
1.20112
1.18203
1.1549
1.13433
1.11959
1.10595
1.09225
1.08073
1.0691
1.05526
1.04172
1.0312
1.02319
1.01701
1.01351
1.01185
1.01108
1.00913
1.00577
1.00164
0.99774
0.994386
0.991638
0.989927
0.989712
0.992178
0.997409
1.00394
1.00998
1.01608
1.02194
1.02626
1.02943
1.03215
1.03545
1.04021
1.04635
1.05265
1.05777
1.06118
1.06288
1.06336
1.0636
1.06473
1.06722
1.07075
1.0753
1.08067
1.08588
1.0897
1.09215
1.09446
1.09764
1.10187
1.10637
1.11079
1.11541
1.12002
1.12492
1.13224
1.14068
1.14466
1.14856
1.15521
1.16735
1.18066
1.18728
1.18903
1.18943
1.18941
1.18882
1.18764
1.18499
1.18006
1.17418
1.16777
1.16346
1.16051
1.15832
1.15799
1.15771
1.15551
1.15303
1.14946
1.14263
1.13949
1.13748
1.13277
1.13016
1.12849
1.12349
1.11435
1.10586
1.09752
1.08834
1.08411
1.084
1.08527
1.08704
1.08832
1.0885
1.08602
1.07924
1.07031
1.063
1.06169
1.06223
1.0626
1.06276
1.06253
1.06027
1.05368
1.04065
1.02289
1.00938
1.00357
1.0006
0.998353
0.995856
0.991287
0.981339
0.968831
0.96347
0.96393
0.965557
0.968589
0.97024
0.970301
0.96837
0.959076
0.941185
0.929874
0.928324
0.928857
0.931856
0.932947
0.932762
0.930735
0.926795
0.924572
0.927316
0.933564
0.943861
0.952049
0.95592
0.958191
0.958517
0.959743
0.962235
0.965867
0.97191
0.977875
0.981543
0.983701
0.985187
0.986485
0.988074
0.99071
0.995292
1.00161
1.00748
1.01109
1.01229
1.01208
1.01178
1.01383
1.0204
1.03005
1.0387
1.04463
1.04824
1.05037
1.05099
1.05107
1.05423
1.06047
1.06678
1.07019
1.07082
1.07107
1.07202
1.07326
1.07507
1.07834
1.08329
1.08812
1.09029
1.08965
1.08845
1.08795
1.08786
1.0875
1.08783
1.09175
1.09938
1.10199
1.10037
1.09712
1.09138
1.08699
1.08623
1.08589
1.08626
1.08893
1.08926
1.0869
1.0838
1.07985
1.07409
1.06567
1.0567
1.04973
1.04355
1.03766
1.03236
1.02668
2.48714
2.07136
1.72415
1.50665
1.34308
1.16363
1.09532
1.05201
1.00128
0.98623
1.00299
1.05965
1.16959
1.2623
1.26339
1.24045
1.21013
1.1909
1.1771
1.16157
1.14312
1.12924
1.11782
1.10308
1.08615
1.07282
1.0638
1.05574
1.04782
1.04198
1.03764
1.03242
1.02579
1.01983
1.01585
1.01286
1.01091
1.00958
1.00855
1.00887
1.01296
1.01931
1.02361
1.0283
1.03494
1.04123
1.04652
1.05124
1.05646
1.0626
1.06915
1.0753
1.08023
1.0834
1.08491
1.0855
1.08596
1.08706
1.08911
1.09193
1.0961
1.10153
1.1063
1.10889
1.1098
1.11059
1.11262
1.11672
1.12207
1.12674
1.12986
1.13326
1.13767
1.14417
1.15242
1.15632
1.15989
1.16751
1.18008
1.19428
1.20497
1.2091
1.21021
1.21028
1.20997
1.21
1.20913
1.20505
1.19854
1.19266
1.19019
1.18802
1.18543
1.1845
1.1837
1.1818
1.17979
1.17635
1.16869
1.16202
1.1589
1.15549
1.1526
1.15069
1.1474
1.14108
1.13307
1.12426
1.11347
1.10734
1.10506
1.10537
1.1075
1.11044
1.11295
1.11382
1.10862
1.0987
1.09162
1.08827
1.08643
1.08524
1.08453
1.0838
1.08177
1.07559
1.0624
1.04602
1.03507
1.02986
1.02635
1.02249
1.0174
1.01061
1.00133
0.989915
0.981757
0.980658
0.981855
0.984583
0.986333
0.98626
0.983916
0.975594
0.960001
0.947289
0.943552
0.942068
0.940673
0.939173
0.937536
0.935536
0.931742
0.929743
0.932151
0.937965
0.946801
0.952689
0.95563
0.956525
0.955565
0.956734
0.958896
0.96256
0.968894
0.975081
0.979602
0.982863
0.985037
0.986775
0.988768
0.991526
0.995235
0.999233
1.00283
1.00587
1.00829
1.00994
1.01171
1.01532
1.0222
1.03087
1.03824
1.04312
1.04629
1.04862
1.05044
1.05257
1.05701
1.06478
1.07385
1.08002
1.08213
1.08235
1.0824
1.08324
1.08556
1.08907
1.0925
1.09507
1.09712
1.09871
1.09942
1.0997
1.09955
1.09916
1.09949
1.10181
1.10658
1.10977
1.10905
1.10697
1.10303
1.098
1.09602
1.09571
1.09606
1.09833
1.09888
1.09736
1.09498
1.09192
1.08705
1.07936
1.07018
1.06229
1.0553
1.04883
1.04319
1.03716
2.66593
2.3045
1.97453
1.74143
1.55906
1.36938
1.26173
1.1998
1.12291
1.0463
1.04324
1.06477
1.13669
1.25567
1.31526
1.3072
1.28556
1.26205
1.24269
1.22403
1.20085
1.1805
1.1674
1.15324
1.1375
1.12377
1.11393
1.10483
1.09473
1.08521
1.07824
1.0701
1.05889
1.04768
1.04145
1.03758
1.03548
1.03523
1.03605
1.03809
1.0436
1.04808
1.04866
1.05082
1.057
1.06411
1.07057
1.07699
1.08452
1.09265
1.10015
1.10612
1.10989
1.11141
1.11169
1.11181
1.11235
1.11362
1.11568
1.11901
1.12368
1.12827
1.12996
1.12957
1.12895
1.12879
1.12957
1.13356
1.13996
1.14342
1.14506
1.14783
1.15259
1.15981
1.16858
1.17232
1.17517
1.18166
1.195
1.21013
1.22333
1.23252
1.2369
1.23811
1.23839
1.2383
1.23769
1.23457
1.2279
1.22055
1.21723
1.215
1.21338
1.21293
1.2117
1.20978
1.20824
1.20444
1.19696
1.19263
1.18972
1.18604
1.18357
1.18078
1.1759
1.16991
1.16282
1.15516
1.14701
1.14275
1.14131
1.14063
1.14073
1.14104
1.14136
1.14052
1.13781
1.13494
1.13348
1.13217
1.13049
1.1286
1.12596
1.1218
1.11513
1.1038
1.08739
1.07204
1.06345
1.05949
1.05689
1.05408
1.05045
1.046
1.04018
1.03149
1.02247
1.01841
1.01729
1.0163
1.01443
1.01052
1.00341
0.992717
0.979063
0.967506
0.963788
0.962767
0.961701
0.96057
0.95871
0.955038
0.947991
0.93992
0.938615
0.941191
0.946148
0.951456
0.954707
0.95659
0.958377
0.960361
0.962412
0.965247
0.969194
0.973303
0.977383
0.981519
0.985289
0.988491
0.991499
0.994514
0.997088
0.998754
1.0002
1.00251
1.0062
1.01047
1.01474
1.01974
1.02629
1.03352
1.03931
1.04334
1.04701
1.05104
1.05558
1.06092
1.06747
1.07587
1.08489
1.09143
1.09455
1.09608
1.09752
1.09954
1.10174
1.10317
1.10368
1.10437
1.10759
1.11344
1.11659
1.11678
1.11649
1.11649
1.11663
1.1169
1.11808
1.12044
1.12088
1.1203
1.1186
1.11489
1.1128
1.11255
1.11278
1.11387
1.11388
1.11272
1.11058
1.10762
1.10295
1.09574
1.08741
1.08023
1.07411
1.06878
1.06372
1.05799
2.80743
2.48889
2.1846
1.95692
1.76953
1.57864
1.44685
1.37297
1.28605
1.18524
1.15093
1.12554
1.14037
1.20157
1.28364
1.34341
1.3409
1.32459
1.30002
1.27717
1.25071
1.22824
1.2144
1.20057
1.18711
1.17377
1.16366
1.15403
1.1424
1.12973
1.12175
1.11253
1.09992
1.08654
1.07921
1.0747
1.07099
1.06932
1.06894
1.07034
1.0754
1.07652
1.07551
1.07749
1.08347
1.0901
1.09634
1.10329
1.11193
1.12103
1.12841
1.13358
1.13582
1.13603
1.13573
1.13578
1.13599
1.13655
1.13885
1.14402
1.14929
1.15039
1.14949
1.14734
1.14554
1.14489
1.14509
1.14869
1.15485
1.15664
1.15752
1.1602
1.16532
1.17101
1.17674
1.18032
1.18297
1.18874
1.20167
1.22075
1.23891
1.25307
1.261
1.263
1.2636
1.26384
1.26348
1.2603
1.25334
1.24701
1.24479
1.24308
1.24219
1.24243
1.24102
1.23896
1.23734
1.23346
1.22627
1.22136
1.21816
1.21462
1.21203
1.20902
1.20403
1.19834
1.1923
1.18579
1.17985
1.17714
1.1758
1.17538
1.17594
1.17654
1.17595
1.17297
1.172
1.17327
1.17393
1.17362
1.1732
1.17264
1.17063
1.16596
1.15784
1.1455
1.13047
1.1179
1.11021
1.10545
1.10174
1.09828
1.09462
1.09029
1.0843
1.07581
1.06763
1.06371
1.06234
1.06111
1.05863
1.05324
1.04375
1.03106
1.01718
1.00376
0.995472
0.992555
0.991031
0.989534
0.987258
0.982845
0.975515
0.96583
0.955823
0.951027
0.950613
0.951391
0.953625
0.957515
0.962294
0.966656
0.969921
0.972163
0.973702
0.975074
0.977514
0.981915
0.987387
0.992162
0.996014
0.999214
1.00124
1.00218
1.0032
1.00571
1.01049
1.01678
1.02286
1.02853
1.03484
1.04065
1.04408
1.04716
1.05187
1.0582
1.06544
1.07318
1.08148
1.09059
1.09974
1.1065
1.11002
1.1122
1.11425
1.11606
1.11707
1.11731
1.11737
1.11885
1.12495
1.13292
1.13572
1.136
1.13469
1.13312
1.13276
1.13244
1.13233
1.13393
1.13563
1.13568
1.13456
1.13097
1.12924
1.12915
1.12945
1.13047
1.1307
1.12998
1.12835
1.12593
1.12198
1.11555
1.10741
1.10004
1.0943
1.08972
1.08521
1.07958
2.91506
2.64076
2.36387
2.1462
1.96272
1.7714
1.63575
1.54434
1.44548
1.33016
1.277
1.22151
1.17236
1.18864
1.24555
1.31757
1.36469
1.3624
1.3474
1.3261
1.29648
1.2699
1.25488
1.24237
1.23181
1.22035
1.21068
1.20077
1.18826
1.17212
1.16245
1.15259
1.13885
1.12532
1.11967
1.1153
1.11092
1.10819
1.10719
1.10753
1.10881
1.10675
1.10452
1.10611
1.11119
1.11689
1.1232
1.13153
1.14082
1.14858
1.15358
1.15549
1.15594
1.15547
1.15382
1.15313
1.15307
1.15395
1.15777
1.16297
1.16389
1.1626
1.15963
1.15668
1.1555
1.15504
1.15553
1.15953
1.16416
1.16499
1.16519
1.16652
1.16954
1.1735
1.17795
1.18304
1.18704
1.19292
1.20486
1.22481
1.24858
1.26909
1.27935
1.28134
1.2818
1.28171
1.28129
1.27901
1.27395
1.27007
1.26754
1.26505
1.2634
1.26227
1.25986
1.25771
1.25538
1.25131
1.24623
1.24316
1.24026
1.23683
1.23438
1.23045
1.225
1.2207
1.21638
1.21171
1.208
1.20494
1.202
1.20041
1.20049
1.20126
1.20084
1.20099
1.20546
1.20991
1.21217
1.21322
1.21349
1.21248
1.20868
1.2015
1.19137
1.17963
1.16865
1.1609
1.15658
1.15422
1.15257
1.15073
1.14794
1.14331
1.13581
1.12542
1.11564
1.11
1.10734
1.10538
1.10249
1.09754
1.09007
1.08058
1.06959
1.05736
1.04658
1.03993
1.0355
1.03096
1.02484
1.01684
1.00772
0.99729
0.983938
0.973976
0.971058
0.969432
0.968789
0.96962
0.972358
0.97612
0.979312
0.98111
0.981922
0.98292
0.985524
0.99057
0.997185
1.00325
1.0078
1.01109
1.01318
1.01465
1.01677
1.02076
1.02686
1.03426
1.04125
1.04714
1.05255
1.05603
1.05772
1.06057
1.06599
1.07372
1.0824
1.09094
1.09935
1.10833
1.11783
1.12529
1.12869
1.12961
1.1298
1.12948
1.12929
1.12948
1.1305
1.13554
1.14622
1.15367
1.15515
1.15527
1.15209
1.14726
1.14549
1.14475
1.14441
1.1465
1.14949
1.15
1.14953
1.14666
1.14503
1.14485
1.14466
1.14475
1.14478
1.1441
1.14305
1.14167
1.13898
1.13406
1.12775
1.12169
1.1166
1.1121
1.10715
1.10092
2.99786
2.76276
2.51653
2.30861
2.13558
1.9538
1.8135
1.70932
1.60194
1.48359
1.4126
1.34534
1.25739
1.23146
1.2532
1.29511
1.34529
1.37082
1.36959
1.35934
1.33803
1.31372
1.29674
1.28362
1.27232
1.26063
1.25124
1.24063
1.22758
1.20958
1.19798
1.18803
1.17438
1.16084
1.15635
1.15273
1.1466
1.14291
1.14178
1.13908
1.13612
1.1333
1.13062
1.13156
1.13571
1.14118
1.1485
1.15835
1.1661
1.1692
1.17061
1.17103
1.17005
1.1675
1.16547
1.16477
1.16498
1.16744
1.17225
1.17383
1.1728
1.16969
1.1649
1.16211
1.16111
1.16065
1.16131
1.16515
1.16857
1.16896
1.1688
1.16896
1.17049
1.17348
1.17775
1.1834
1.188
1.19325
1.20397
1.22248
1.24694
1.27091
1.28926
1.29312
1.29344
1.29315
1.29235
1.29123
1.28857
1.28526
1.28135
1.27792
1.27597
1.27389
1.27141
1.26962
1.26737
1.26417
1.26184