/*--------------------------------*- C++ -*----------------------------------*\
  =========                 |
  \\      /  F ield         | OpenFOAM: The Open Source CFD Toolbox
   \\    /   O peration     | Website:  https://openfoam.org
    \\  /    A nd           | Version:  7
     \\/     M anipulation  |
\*---------------------------------------------------------------------------*/
FoamFile
{
    version     2.0;
    format      ascii;
    class       volScalarField;
    location    "1.3";
    object      T;
}
// * * * * * * * * * * * * * * * * * * * * * * * * * * * * * * * * * * * * * //

dimensions      [0 0 0 1 0 0 0];

internalField   nonuniform List<scalar> 
4048
(
1
1
1
1
1
1
1
1
1
1
1
1
1
1
1
1
1.71109
2.69343
2.78899
2.78398
2.79
2.80772
2.83719
2.85872
1
1
1
1
1
1
1
1
1
1
1
1
1
1
1
1
1.67558
2.67517
2.78513
2.77944
2.78469
2.80181
2.82975
2.84701
1
1
1
1
1
1
1
1
1
1
1
1
1
1
1
1
1.5649
2.62363
2.77433
2.76832
2.77176
2.78495
2.81075
2.83828
1
1
1
1
1
1
1
1
1
1
1
1
1
1
1
1
1.38973
2.5328
2.75374
2.75021
2.75671
2.77416
2.8048
2.86113
1
1
1
1
1
1
1
1
1
1
1
1
1
1
1
1
1.15438
2.40302
2.72117
2.72703
2.73742
2.74706
2.73996
2.74924
1
1
1
1
1
1
1
1
1
1
1
1
1
1
1
1
1.00721
2.24682
2.67256
2.69419
2.7071
2.7108
2.69825
2.70976
1
1
1
1
1
1
1
1
1
1
1
1
1
1
1
1
1.00002
2.01356
2.61742
2.66949
2.68073
2.67854
2.66859
2.67023
1
1
1
1
1
1
1
1
1
1
1
1
1
1
1
1
1
1.64148
2.50438
2.64098
2.65421
2.65171
2.64331
2.64234
1
1
1
1
1
1
1
1
1
1
1
1
1
1
1
1
1
1.14126
2.32447
2.61924
2.61812
2.6182
2.61398
2.61084
1
1
1
1
1
1
1
1
1
1
1
1
1
1
1
1
1
1.00473
2.13705
2.56316
2.56531
2.5731
2.5761
2.57522
1
1
1
1
1
1
1
1
1
1
1
1
1
1
1
1
1
0.999988
1.70677
2.45265
2.54489
2.54473
2.54475
2.54206
1
1
1
1
1
1
1
1
1
1
1
1
1
1
1
1
1
0.999996
1.12994
2.25315
2.5198
2.51471
2.51379
2.5075
1
1
1
1
1
1
1
1
1
1
1
1
1
1
1
1
1
0.999999
1.00364
1.95447
2.4395
2.48632
2.48371
2.4756
1
1
1
1
1
1
1
1
1
1
1
1
1
1
1
1
1
1
0.999996
1.33585
2.27844
2.46398
2.45436
2.4454
1
1
1
1
1
1
1
1
1
1
1
1
1
1
1
1
1
1
0.999999
1.02435
2.04831
2.41048
2.41823
2.41199
1
1
1
1
1
1
1
1
1
1
1
1
1
1
1
1
1
1
1
1.0001
1.45393
2.25987
2.40031
2.3825
1
1
1
1
1
1
1
1
1
1
1
1
1
1
1
1
1
1
1
1
1.04795
2.03667
2.36036
2.34938
1
1
1
1
1
1
1
1
1
1
1
1
1
1
1
1
1
1
1
1
1.00043
1.42913
2.19185
2.33177
1
1
1
1
1
1
1
1
1
1
1
1
1
1
1
1
1
1
1
1
1
1.04396
1.93256
2.29205
1
1
1
1
1
1
1
1
1
1
1
1
1
1
1
1
1
1
1
1
1
1.00043
1.33686
2.10731
1
1
1
1
1
1
1
1
1
1
1
1
1
1
1
1
1
1
1
1
1
1
1.02498
1.71434
1
1
1
1
1
1
1
1
1
1
1
1
1
1
1
1
1
1
1
1
1
1
1.00022
1.17013
1
1
1
1
1
1
1
1
1
1
1
1
1
1
1
1
1
1
1
1
1
1
1
1.00605
1
1
1
1
1
1
1
1
1
1
1
1
1
1
1
1
1
1
1
1
1
1
1
1.00004
1
1
1
1
1
1
1
1
1
1
1
1
1
1
1
1
1
1
1
1
1
1
1
1
1
1
1
1
1
1
1
1
1
1
1
1
1
1
1
1
1
1
1
1
1
1
1
1
1
1
1
1
1
1
1
1
1
1
1
1
1
1
1
1
1
1
1
1
1
1
1
1
1
1
1
1
1
1
1
1
1
1
1
1
1
1
1
1
1
1
1
1
1
1
1
1
1
1
1
1
1
1
1
1
1
1
1
1
1
1
1
1
1
1
1
1
1
1
1
1
1
1
1
1
1
1
1
1
1
1
1
1
1
1
1
1
1
1
1
1
1
1
1
1
1
1
1
1
1
1
1
1
1
1
1
1
1
1
1
1
1
1
1
1
1
1
1
1
1
1
1
1
1
1
1
1
1
1
1
1
1
1
1
1
1
1
1
1
1
1
1
1
1
1
1
1
1
1
1
1
1
1
1
1
1
1
1
1
1
1
1
1
1
1
1
1
1
1
1
1
1
1
1
1
1
1
1
1
1
1
1
1
1
1
1
1
1
1
1
1
1
1
1
1
1
1
1
1
1
1
1
1
1
1
1
1
1
1
1
1
1
1
1
1
1
1
1
1
1
1
1
1
1
1
1
1
1
1
1
1
1
1
1
1
1
1
1
1
1
1
1
1
1
1
1
1
1
1
1
1
1
1
1
1
1
1
1
1
1
1
1
1
1
1
1
1
1
1
1
1
1
1
1
1
1
1
1
1
1
1
1
1
1
1
1
1
1
1
1
1
1
1
1
1
1
1
1
1
1
1
1
1
1
1
1
1
1
1
1
1
1
1
1
1
1
1
1
1
1
1
1
1
1
1
1
1
1
1
1
1
1
1
1
1
2.62654
2.76416
2.8328
2.86891
2.74964
2.84299
2.86666
2.8854
2.70298
2.77818
2.82529
2.86725
2.66088
2.71696
2.79223
2.90273
2.61827
2.64445
2.66449
2.63127
2.57183
2.56733
2.54159
2.45408
2.53086
2.51239
2.46288
2.35869
2.4907
2.46457
2.40692
2.31117
2.45677
2.42547
2.3696
2.28697
2.42597
2.39336
2.34084
2.26831
2.39586
2.36573
2.31806
2.25428
2.36541
2.33749
2.296
2.24149
2.33203
2.30739
2.27272
2.22772
2.30733
2.28357
2.25291
2.2145
2.28058
2.25645
2.22932
2.197
2.26192
2.23214
2.20841
2.17985
2.17448
2.21233
2.18943
2.16269
1.93615
2.19387
2.17173
2.14861
1.42119
2.03075
2.15335
2.12911
1.04575
1.66763
2.05401
2.11744
1.00067
1.16038
1.80044
2.07476
1
1.00588
1.30811
1.87342
1
1.00004
1.02404
1.43734
1
1
1.00029
1.05842
1
1
1
1.00115
1
1
1
1
1
1
1
1
1
1
1
1
1
1
1
1
1
1
1
1
1
1
1
1
1
1
1
1
1
1
1
1
1
1
1
1
1
1
1
1
1
1
1
1
1.94115
1.55048
1.4448
1.46677
1.485
1.55881
1.63343
1.6953
1.73253
1.74726
1.74542
1.74411
1.75106
1.77816
1.79017
1.78796
1.76722
1.73298
1.71954
1.71859
1.72989
1.75056
1.75269
1.74515
1.72105
1.70312
1.70141
1.70567
1.72196
1.72898
1.72626
1.71723
1.70246
1.69772
1.69817
1.70505
1.71246
1.7123
1.70962
1.70152
1.69703
1.69726
1.699
1.70176
1.70147
1.70095
1.69729
1.69192
1.6898
1.68815
1.68627
1.6834
1.67911
1.67329
1.66549
1.65856
1.65484
1.65097
1.6467
1.64618
1.64821
1.65861
1.69535
1.76793
1.87506
1.98094
2.10074
2.20205
2.27289
2.32699
2.35542
2.37733
2.39075
2.38583
2.3779
2.36837
2.35942
2.34357
2.31936
2.29532
2.27918
2.26447
2.25005
2.23546
2.21657
2.19532
2.18691
2.18698
2.18743
2.19002
2.1922
2.18939
2.10134
1.84379
1.73929
1.67245
1.59888
1.56885
1.55621
1.54103
1.56065
1.58863
1.61753
1.63708
1.65515
1.68104
1.70089
1.70419
1.70128
1.68969
1.67869
1.67799
1.68438
1.69977
1.70701
1.70584
1.69944
1.68871
1.68218
1.68086
1.68514
1.69297
1.69319
1.69161
1.68718
1.68142
1.68065
1.68137
1.68466
1.68773
1.68737
1.68596
1.68268
1.68059
1.68024
1.68033
1.68054
1.68037
1.67904
1.67598
1.67336
1.6716
1.66946
1.66708
1.66349
1.65877
1.6534
1.64786
1.64144
1.63461
1.63648
1.64938
1.68738
1.75035
1.8283
1.88947
1.92434
1.9624
1.97488
1.97612
1.99404
2.02813
2.06323
2.08291
2.09649
2.1045
2.11152
2.12435
2.14258
2.15684
2.16499
2.17001
2.17517
2.1736
2.16787
2.16244
2.1559
2.14685
2.1395
2.13992
2.14101
2.1409
2.14337
2.14337
2.13531
1.94837
1.80873
1.72034
1.63357
1.54181
1.50237
1.46328
1.46527
1.48746
1.52327
1.54097
1.54477
1.5527
1.56485
1.57936
1.6001
1.61835
1.62168
1.6218
1.61924
1.61556
1.61499
1.61772
1.62388
1.62659
1.6275
1.62566
1.62087
1.61934
1.61965
1.62197
1.62671
1.63056
1.6317
1.6309
1.62745
1.62538
1.62669
1.62875
1.62956
1.63048
1.63083
1.63021
1.62711
1.62529
1.62565
1.62589
1.62564
1.62469
1.62195
1.61706
1.6116
1.60647
1.6014
1.59976
1.60634
1.62621
1.67068
1.73848
1.81069
1.86109
1.88114
1.90238
1.89618
1.88068
1.85376
1.83223
1.82003
1.79785
1.78304
1.78161
1.79109
1.81271
1.84367
1.872
1.90033
1.92579
1.94664
1.9625
1.97655
1.98979
2.00088
2.01385
2.02244
2.03176
2.03705
2.04143
2.04542
2.04354
2.04239
2.03762
2.15143
2.00499
1.87574
1.78525
1.70995
1.61522
1.54732
1.51046
1.48023
1.47074
1.46772
1.46344
1.4509
1.44518
1.4521
1.4691
1.49422
1.52278
1.54149
1.54516
1.54469
1.54191
1.54179
1.54732
1.5558
1.5614
1.56172
1.5589
1.55203
1.54682
1.5465
1.54757
1.55147
1.55843
1.56122
1.56139
1.55929
1.55614
1.55625
1.55782
1.55844
1.55924
1.56088
1.56116
1.55828
1.55658
1.55695
1.55825
1.5592
1.55885
1.55635
1.55086
1.54308
1.53946
1.54419
1.56028
1.60599
1.6826
1.7619
1.8218
1.8362
1.85014
1.84656
1.8345
1.81189
1.78681
1.7687
1.74969
1.72764
1.70471
1.68712
1.67119
1.6592
1.64951
1.64207
1.64147
1.64915
1.66861
1.6989
1.73129
1.76231
1.79176
1.8181
1.83923
1.85446
1.86711
1.87471
1.88003
1.88653
1.88651
1.8881
1.89758
2.16786
2.04971
1.93397
1.84168
1.76678
1.69808
1.63413
1.56106
1.49725
1.47254
1.46031
1.44506
1.42724
1.41439
1.40909
1.41044
1.42233
1.44975
1.47306
1.4786
1.47994
1.48198
1.48724
1.49443
1.50795
1.52071
1.52169
1.5186
1.50835
1.49973
1.49896
1.49878
1.49942
1.50186
1.50335
1.50215
1.49974
1.49965
1.50151
1.50532
1.50567
1.50487
1.50346
1.49935
1.4947
1.49451
1.49478
1.49599
1.49705
1.49664
1.49496
1.49149
1.494
1.50649
1.54812
1.62021
1.70039
1.77114
1.78698
1.80227
1.80467
1.80179
1.78563
1.76167
1.7438
1.731
1.71531
1.69462
1.67204
1.65408
1.64108
1.62987
1.61899
1.6073
1.59609
1.58298
1.56478
1.54814
1.54497
1.55114
1.56514
1.58673
1.61451
1.6455
1.67946
1.71068
1.72934
1.7408
1.75141
1.75472
1.75713
1.76861
2.1744
2.07755
1.97901
1.89908
1.81601
1.74185
1.69655
1.64473
1.56985
1.50413
1.49353
1.478
1.45132
1.43263
1.41353
1.39988
1.39865
1.40311
1.41533
1.42442
1.43092
1.44092
1.45052
1.45547
1.46499
1.47906
1.48393
1.48327
1.48059
1.47844
1.47825
1.47778
1.47521
1.47234
1.46891
1.46301
1.46164
1.46179
1.46406
1.46933
1.47047
1.46957
1.46626
1.4599
1.45653
1.4559
1.45515
1.45443
1.4545
1.4553
1.45854
1.47007
1.50938
1.58081
1.66555
1.74079
1.76062
1.76681
1.77553
1.77676
1.76985
1.75277
1.73384
1.72092
1.71293
1.70057
1.68059
1.65323
1.63429
1.62651
1.61818
1.60857
1.59839
1.58729
1.57617
1.56542
1.55227
1.53282
1.51507
1.50834
1.50493
1.50202
1.50153
1.50566
1.51651
1.53355
1.55411
1.57224
1.5892
1.60627
1.61512
1.64134
2.17775
2.09752
2.01057
1.94045
1.87333
1.79183
1.73172
1.69426
1.64081
1.57773
1.54112
1.50645
1.47169
1.45121
1.43542
1.41486
1.39148
1.3914
1.39122
1.38975
1.39148
1.39993
1.41537
1.42628
1.43287
1.44213
1.4528
1.45669
1.45659
1.45851
1.46215
1.46475
1.46284
1.45877
1.45241
1.44627
1.44315
1.44185
1.44237
1.44429
1.44423
1.443
1.43953
1.43681
1.43576
1.43535
1.43496
1.43336
1.43476
1.44372
1.48028
1.55741
1.65233
1.73336
1.76492
1.7678
1.76519
1.76231
1.75623
1.74361
1.72913
1.71641
1.71029
1.70554
1.69326
1.67541
1.65463
1.63095
1.61265
1.60362
1.59562
1.5868
1.57898
1.57315
1.56473
1.55555
1.54567
1.52903
1.50668
1.49161
1.48406
1.47964
1.47488
1.47098
1.46544
1.4606
1.45745
1.45554
1.45371
1.45397
1.45565
1.4773
2.17621
2.10902
2.03384
1.96666
1.90972
1.84133
1.77813
1.7307
1.68152
1.63544
1.5988
1.56039
1.50833
1.48052
1.47134
1.44946
1.4175
1.40532
1.393
1.37816
1.376
1.37923
1.38526
1.3911
1.39637
1.40411
1.41768
1.42899
1.43392
1.43849
1.44489
1.44903
1.44827
1.44641
1.44283
1.43955
1.43644
1.43273
1.43012
1.42893
1.42728
1.42409
1.42215
1.42137
1.42063
1.42097
1.42183
1.42664
1.4515
1.52186
1.62591
1.72357
1.76313
1.77881
1.77688
1.77297
1.7633
1.74309
1.72359
1.71221
1.70324
1.70146
1.69805
1.68552
1.67025
1.65379
1.63625
1.61864
1.59957
1.58556
1.57761
1.56962
1.56229
1.5567
1.54994
1.54241
1.53338
1.5215
1.50556
1.48608
1.47112
1.46278
1.45732
1.44946
1.44052
1.43219
1.4255
1.42136
1.41849
1.41455
1.40556
1.39199
2.17306
2.115
2.05178
1.99111
1.93404
1.87574
1.82327
1.77407
1.71764
1.66764
1.63969
1.60867
1.55973
1.52215
1.50056
1.47391
1.44422
1.42709
1.41041
1.38954
1.37278
1.37279
1.37487
1.37182
1.37128
1.37418
1.38255
1.39487
1.40629
1.41489
1.42597
1.43264
1.43397
1.43324
1.43229
1.43168
1.42983
1.42669
1.4232
1.41924
1.41484
1.41241
1.41129
1.41083
1.41179
1.41505
1.43333
1.49187
1.59043
1.69955
1.74996
1.77206
1.78157
1.7862
1.78013
1.764
1.74205
1.72009
1.70444
1.69488
1.69156
1.68274
1.67146
1.6597
1.64822
1.63676
1.62538
1.61153
1.59263
1.57181
1.55984
1.55258
1.54398
1.53495
1.5268
1.52008
1.51363
1.50694
1.49926
1.4871
1.46575
1.44657
1.4358
1.42621
1.41545
1.40586
1.4011
1.39895
1.39693
1.39474
1.39034
1.37519
2.16811
2.11609
2.06166
2.01037
1.95529
1.89696
1.85175
1.80963
1.75731
1.70407
1.67112
1.63771
1.59909
1.56782
1.54137
1.51
1.47246
1.45433
1.44142
1.4221
1.39531
1.38788
1.38044
1.36898
1.36335
1.36302
1.36337
1.36525
1.37104
1.38248
1.39715
1.40686
1.41145
1.41529
1.41803
1.41948
1.41915
1.41775
1.41506
1.41113
1.40725
1.40495
1.40531
1.40729
1.42004
1.46554
1.56389
1.68138
1.74443
1.76598
1.77846
1.78386
1.78212
1.77193
1.75792
1.74176
1.72321
1.70966
1.69897
1.68388
1.66716
1.65568
1.64664
1.63763
1.63018
1.62365
1.61417
1.60062
1.58456
1.56313
1.5411
1.52914
1.52068
1.51149
1.50323
1.49771
1.49594
1.49225
1.486
1.47634
1.45784
1.42968
1.41105
1.40066
1.39026
1.38108
1.37655
1.3765
1.37825
1.37741
1.37209
1.35747
2.1581
2.1138
2.06563
2.01911
1.97114
1.9183
1.87267
1.83347
1.78405
1.73641
1.70437
1.67088
1.62833
1.60046
1.57587
1.54706
1.50902
1.48835
1.47045
1.4482
1.42283
1.41022
1.39605
1.37654
1.35903
1.35529
1.35483
1.35524
1.3574
1.36098
1.36604
1.37172
1.37822
1.38598
1.39685
1.40442
1.40506
1.40518
1.40442
1.4013
1.39824
1.39854
1.40552
1.44324
1.53856
1.65626
1.74449
1.77356
1.78435
1.78673
1.78195
1.76938
1.75511
1.74345
1.73252
1.72475
1.71982
1.70863
1.68879
1.66538
1.64539
1.6306
1.62332
1.61829
1.61299
1.60721
1.59846
1.58561
1.57013
1.55031
1.52321
1.50338
1.49433
1.4871
1.48022
1.47488
1.47105
1.46665
1.46166
1.45501
1.44159
1.41568
1.3915
1.37861
1.36944
1.36092
1.3548
1.35084
1.34802
1.34586
1.34293
1.33488
2.14612
2.10722
2.06514
2.02504
1.9815
1.93374
1.89073
1.85127
1.80874
1.76544
1.73195
1.69768
1.65809
1.63019
1.60755
1.57697
1.53944
1.51944
1.50075
1.47787
1.4506
1.43673
1.42225
1.40057
1.37402
1.36656
1.36415
1.35676
1.35439
1.35527
1.35151
1.3445
1.34488
1.35148
1.36619
1.38252
1.38675
1.38855
1.38956
1.38741
1.38824
1.40305
1.47701
1.6202
1.74131
1.77871
1.79739
1.79663
1.79606
1.78381
1.76083
1.73821
1.7264
1.71891
1.7156
1.71223
1.70368
1.68929
1.6684
1.64578
1.62637
1.60911
1.5997
1.59459
1.58919
1.58334
1.57669
1.56561
1.55132
1.53378
1.50847
1.48247
1.471
1.46393
1.45729
1.452
1.44521
1.4393
1.43367
1.42694
1.41823
1.40237
1.38001
1.36199
1.35144
1.34441
1.33695
1.32938
1.32215
1.31642
1.31199
1.30571
2.13213
2.09835
2.06267
2.02655
1.98621
1.94322
1.90657
1.86839
1.82313
1.78624
1.7551
1.72073
1.68156
1.65516
1.63105
1.60199
1.56874
1.54696
1.52703
1.50255
1.47724
1.4628
1.44693
1.4247
1.39402
1.38559
1.37801
1.36517
1.35309
1.3489
1.34291
1.33411
1.33257
1.3346
1.34105
1.35216
1.3582
1.36073
1.36672
1.37387
1.4073
1.52109
1.68601
1.78014
1.80085
1.81137
1.81045
1.80175
1.78453
1.76171
1.73658
1.71669
1.70611
1.69999
1.69512
1.68576
1.67422
1.66121
1.64623
1.62764
1.60532
1.58408
1.57049
1.56418
1.55894
1.55459
1.54919
1.539
1.52742
1.51444
1.4962
1.47188
1.45297
1.44354
1.43516
1.42652
1.41845
1.41117
1.40441
1.39792
1.39098
1.38277
1.37017
1.35379
1.33607
1.32115
1.31183
1.30388
1.29578
1.28795
1.28237
1.27664
2.12136
2.09069
2.05884
2.02539
1.98946
1.95194
1.91567
1.87921
1.83957
1.80594
1.77409
1.73669
1.70052
1.678
1.65499
1.62227
1.58927
1.57019
1.5511
1.52651
1.50213
1.48738
1.47003
1.4481
1.42044
1.41008
1.39893
1.38339
1.36539
1.35717
1.35017
1.33806
1.32963
1.32931
1.33003
1.32846
1.32883
1.33132
1.34601
1.43154
1.58479
1.72343
1.78885
1.8081
1.80335
1.79476
1.78581
1.76979
1.75121
1.73197
1.71729
1.70318
1.68766
1.67548
1.66589
1.6562
1.64445
1.63354
1.62145
1.60489
1.58307
1.56107
1.54426
1.53353
1.52778
1.52311
1.51872
1.51042
1.49944
1.48856
1.47789
1.46411
1.44574
1.42594
1.41125
1.40103
1.39215
1.38329
1.37598
1.37124
1.36609
1.36054
1.35245
1.33893
1.31924
1.29671
1.28604
1.27954
1.27257
1.26446
1.25806
1.25056
2.10392
2.0768
2.04903
2.01975
1.98546
1.95123
1.92115
1.88595
1.84595
1.81605
1.78825
1.7545
1.7184
1.69256
1.66852
1.6407
1.61268
1.59182
1.5706
1.54331
1.5231
1.51031
1.49517
1.47139
1.44364
1.43174
1.41833
1.40214
1.38243
1.3716
1.36107
1.3461
1.33024
1.32345
1.323
1.32014
1.32315
1.35289
1.46962
1.64098
1.74858
1.79373
1.79041
1.77555
1.76046
1.74975
1.73574
1.72135
1.71179
1.70128
1.69078
1.67897
1.66321
1.64806
1.63579
1.62663
1.61815
1.60612
1.59273
1.57772
1.56119
1.54453
1.52613
1.50931
1.49999
1.49367
1.48711
1.48014
1.47163
1.46252
1.45534
1.4472
1.4347
1.41409
1.3897
1.37472
1.36543
1.35657
1.35043
1.34682
1.34347
1.33894
1.33055
1.31883
1.29988
1.27536
1.26297
1.25666
1.25059
1.24357
1.23808
1.22914
2.08973
2.06128
2.03676
2.01051
1.98053
1.95062
1.92036
1.8885
1.85525
1.82845
1.79965
1.7637
1.73262
1.71101
1.68667
1.6533
1.62754
1.60946
1.58938
1.56257
1.54166
1.52833
1.51211
1.49063
1.46828
1.45414
1.43845
1.41952
1.39879
1.38916
1.37882
1.36356
1.34401
1.33089
1.3271
1.3346
1.3933
1.5267
1.68249
1.78284
1.78285
1.77201
1.74856
1.72051
1.70303
1.69791
1.68956
1.67768
1.66895
1.66197
1.65611
1.64753
1.6347
1.62046
1.60882
1.59556
1.58286
1.57228
1.56379
1.55545
1.54448
1.53064
1.51412
1.49319
1.47469
1.46456
1.45758
1.4508
1.44394
1.4381
1.43192
1.4248
1.4154
1.39982
1.37481
1.35189
1.33991
1.33295
1.32803
1.32394
1.31993
1.3144
1.30613
1.29503
1.27989
1.25886
1.24397
1.23721
1.2322
1.22515
1.21847
1.20821
2.07228
2.0494
2.02546
1.99996
1.97293
1.94779
1.92079
1.88989
1.86109
1.83591
1.80861
1.77619
1.74571
1.72239
1.69819
1.66995
1.64619
1.6266
1.60404
1.57444
1.55823
1.54633
1.53101
1.50587
1.48622
1.47256
1.45696
1.43829
1.41748
1.4077
1.39551
1.37837
1.36056
1.34688
1.36153
1.44344
1.61614
1.73651
1.79387
1.79144
1.76751
1.73553
1.70852
1.68619
1.67404
1.66084
1.64665
1.63391
1.62457
1.6195
1.61628
1.61072
1.6015
1.58852
1.57205
1.5572
1.54552
1.53641
1.53449
1.53072
1.52078
1.50879
1.49535
1.47692
1.45433
1.43947
1.43125
1.42492
1.41802
1.41089
1.40488
1.39812
1.39025
1.38009
1.3616
1.33694
1.32008
1.31045
1.30368
1.29866
1.29443
1.28965
1.28285
1.27337
1.26156
1.24626
1.23159
1.22223
1.21443
1.20633
1.19886
1.18765
2.04442
2.03663
2.01324
1.98824
1.96454
1.94196
1.91732
1.88829
1.86467
1.84222
1.81578
1.78106
1.75611
1.73501
1.70927
1.67787
1.65863
1.64023
1.61862
1.59126
1.57258
1.55934
1.54275
1.52144
1.5041
1.48951
1.47315
1.45113
1.43252
1.42424
1.41164
1.39608
1.38861
1.41979
1.54275
1.70129
1.81066
1.80597
1.78965
1.76896
1.74211
1.71446
1.69216
1.67298
1.65373
1.63209
1.61768
1.6081
1.59943
1.59362
1.58453
1.57435
1.56263
1.54661
1.5292
1.51528
1.50547
1.49769
1.49335
1.49407
1.49209
1.48095
1.46919
1.4551
1.43659
1.41905
1.40652
1.39915
1.39279
1.38622
1.37938
1.37126
1.36282
1.35347
1.34164
1.32297
1.30297
1.2903
1.28157
1.27534
1.27024
1.26534
1.25956
1.25236
1.24334
1.23178
1.21523
1.19922
1.18951
1.18157
1.17492
1.16568
1.89908
2.01474
2.00231
1.9762
1.95176
1.9321
1.91164
1.88742
1.86224
1.84006
1.8178
1.79101
1.76532
1.74204
1.71528
1.6868
1.66973
1.65297
1.63019
1.60225
1.58821
1.57453
1.55654
1.53189
1.5174
1.50366
1.48754
1.46609
1.44592
1.43721
1.42684
1.44043
1.52035
1.67
1.79085
1.85424
1.84645
1.82132
1.78339
1.74841
1.72098
1.69821
1.6789
1.66165
1.64269
1.62115
1.60252
1.58856
1.57816
1.56812
1.55563
1.54365
1.5333
1.52181
1.50472
1.4825
1.46911
1.46136
1.45497
1.45017
1.44578
1.44104
1.43439
1.42431
1.41136
1.39701
1.38209
1.37234
1.3673
1.36116
1.35328
1.34476
1.3381
1.3312
1.32046
1.30434
1.28517
1.2698
1.25921
1.25246
1.24657
1.2404
1.23614
1.23295
1.22771
1.2178
1.19998
1.18058
1.16975
1.16176
1.15453
1.14448
1.53439
1.90371
1.98551
1.96914
1.94275
1.9211
1.90133
1.88087
1.86072
1.84065
1.8159
1.78911
1.77019
1.74885
1.72229
1.69222
1.67545
1.66001
1.64044
1.61668
1.60022
1.58494
1.56593
1.54425
1.53069
1.51618
1.4996
1.47378
1.4595
1.45699
1.48773
1.61829
1.78241
1.8835
1.88794
1.87487
1.83865
1.80195
1.76973
1.73916
1.71179
1.68969
1.67185
1.65593
1.63901
1.61955
1.59705
1.57401
1.55475
1.53962
1.52688
1.51453
1.503
1.49313
1.48282
1.4673
1.44648
1.4297
1.4179
1.40981
1.40318
1.39715
1.3914
1.3861
1.37905
1.36874
1.3547
1.33873
1.33148
1.32751
1.32283
1.31723
1.31372
1.30992
1.30248
1.28926
1.27058
1.25191
1.23973
1.23048
1.2216
1.21628
1.21587
1.21439
1.20976
1.20087
1.18565
1.16498
1.15103
1.14235
1.13485
1.12448
1.10594
1.59871
1.89301
1.95619
1.93856
1.91209
1.89033
1.87299
1.85453
1.835
1.81318
1.79083
1.77107
1.75064
1.72373
1.69748
1.68355
1.66881
1.64525
1.62242
1.61039
1.59537
1.57476
1.55296
1.53999
1.52444
1.50986
1.48882
1.49302
1.56128
1.71854
1.87313
1.92053
1.91433
1.89604
1.86409
1.82566
1.79189
1.76369
1.73661
1.71158
1.68924
1.66854
1.6483
1.62785
1.60758
1.5873
1.56579
1.54281
1.52264
1.50737
1.49407
1.48216
1.47175
1.46141
1.44945
1.43364
1.41352
1.39345
1.37943
1.37049
1.36133
1.35341
1.34697
1.34128
1.33514
1.3244
1.3057
1.2943
1.29096
1.28844
1.28263
1.27964
1.27789
1.27369
1.26398
1.24675
1.22919
1.2144
1.2044
1.20158
1.20035
1.19901
1.19663
1.19236
1.18513
1.17219
1.15124
1.13543
1.12534
1.11732
1.10734
1.00317
1.15663
1.63442
1.87395
1.92748
1.91065
1.88224
1.86
1.8462
1.82947
1.80793
1.7864
1.76911
1.74948
1.7267
1.70282
1.68773
1.67265
1.65154
1.63017
1.61568
1.60039
1.57844
1.56113
1.54688
1.53355
1.52292
1.55323
1.67566
1.84213
1.93745
1.96221
1.94802
1.9213
1.88365
1.84606
1.81149
1.78119
1.75743
1.73502
1.71187
1.6883
1.66409
1.6404
1.61847
1.59832
1.57916
1.55946
1.53761
1.51501
1.49646
1.48179
1.46857
1.45562
1.44272
1.42989
1.41596
1.39913
1.37744
1.35735
1.34531
1.33466
1.32469
1.3159
1.30896
1.30277
1.29421
1.27772
1.26005
1.25343
1.25183
1.24884
1.24498
1.24422
1.24331
1.23678
1.22314
1.20717
1.19071
1.18091
1.17827
1.17667
1.1746
1.17221
1.1687
1.16155
1.14964
1.13654
1.12431
1.11358
1.10544
1.09465
1.00002
1.00664
1.20019
1.64972
1.85082
1.89964
1.88296
1.85555
1.8363
1.81924
1.79975
1.78278
1.76546
1.74576
1.72273
1.70538
1.69336
1.67642
1.65208
1.63228
1.62094
1.60555
1.58349
1.56607
1.55353
1.56377
1.63248
1.81339
1.95662
2.00593
1.99356
1.96528
1.92348
1.88254
1.8483
1.8231
1.7993
1.77484
1.75255
1.73302
1.71306
1.69049
1.66345
1.63371
1.60675
1.58484
1.56691
1.55059
1.53222
1.50914
1.48513
1.46586
1.45042
1.43669
1.42369
1.41091
1.39835
1.38355
1.3627
1.34171
1.32711
1.31415
1.30163
1.29162
1.28418
1.27716
1.26787
1.25362
1.23595
1.22648
1.22221
1.21897
1.21544
1.21325
1.2107
1.20532
1.19531
1.18154
1.16495
1.15507
1.15432
1.15452
1.15432
1.15393
1.15229
1.14519
1.13051
1.11631
1.10662
1.09997
1.09447
1.08475
1
1.00005
1.01106
1.23162
1.64686
1.82699
1.87312
1.85608
1.83448
1.81229
1.78992
1.77525
1.75829
1.74095
1.71989
1.70551
1.69191
1.67556
1.65453
1.63606
1.6243
1.60738
1.58649
1.57891
1.61038
1.75223
1.91591
2.05099
2.04409
2.01002
1.9693
1.93231
1.89594
1.85921
1.82989
1.81211
1.79561
1.77515
1.75008
1.72314
1.69788
1.67534
1.65214
1.62636
1.59968
1.57556
1.55578
1.53861
1.52093
1.50035
1.47662
1.45443
1.43767
1.42419
1.41197
1.40043
1.38834
1.37276
1.35065
1.32912
1.31353
1.29975
1.28629
1.27589
1.2682
1.26019
1.24868
1.23419
1.22055
1.21082
1.20339
1.19772
1.19404
1.18991
1.18466
1.17796
1.16947
1.15875
1.14509
1.13245
1.13036
1.13057
1.13178
1.13322
1.13254
1.12632
1.1119
1.10014
1.09303
1.08709
1.08047
1.0695
1
1
1.00011
1.01548
1.24803
1.63657
1.81022
1.84625
1.8339
1.8103
1.78318
1.76756
1.75194
1.73454
1.71556
1.70475
1.68971
1.67419
1.65319
1.63641
1.62544
1.60884
1.61404
1.69613
1.87769
2.03283
2.06569
2.05756
2.02911
1.98907
1.94621
1.9103
1.88203
1.85565
1.82816
1.80184
1.77893
1.75598
1.73194
1.70755
1.68175
1.65666
1.63436
1.61197
1.58879
1.56603
1.54493
1.526
1.50776
1.48925
1.46923
1.44736
1.42684
1.40989
1.39627
1.38525
1.37526
1.36279
1.34458
1.32173
1.30363
1.29182
1.28063
1.2692
1.25999
1.25128
1.23797
1.22219
1.21204
1.201
1.19184
1.18632
1.18099
1.17414
1.16612
1.15803
1.14953
1.14009
1.12786
1.11352
1.10968
1.10947
1.11026
1.1127
1.11173
1.10567
1.09301
1.07997
1.07371
1.07015
1.06518
1.05613
1
1
1
1.00017
1.01904
1.24724
1.63707
1.77893
1.81757
1.80784
1.78187
1.76337
1.74786
1.72746
1.71323
1.7017
1.68599
1.67107
1.64835
1.63625
1.63097
1.6661
1.82323
2.00274
2.10304
2.11776
2.09785
2.05377
2.009
1.96532
1.92638
1.89399
1.86558
1.83899
1.81165
1.78533
1.76027
1.735
1.71065
1.68805
1.66498
1.6405
1.61719
1.59535
1.57486
1.5553
1.53473
1.51378
1.49294
1.47291
1.45524
1.43837
1.42128
1.40456
1.38894
1.37377
1.35876
1.34542
1.3352
1.32444
1.309
1.29154
1.27554
1.26125
1.24976
1.24032
1.23193
1.22138
1.20588
1.18886
1.1824
1.17955
1.17496
1.16709
1.15767
1.14798
1.13718
1.12626
1.11555
1.10078
1.09513
1.09418
1.09471
1.0953
1.09196
1.08455
1.07391
1.06084
1.0547
1.05222
1.04786
1.04153
1
1
1
1
1.00024
1.01963
1.25525
1.60781
1.74441
1.79363
1.78335
1.76408
1.74702
1.72367
1.71162
1.69721
1.68326
1.66426
1.64508
1.65217
1.74668
1.94904
2.13459
2.14287
2.11245
2.08817
2.05168
2.01066
1.97281
1.93806
1.9055
1.87419
1.84303
1.81269
1.78464
1.76013
1.73788
1.71551
1.69346
1.67285
1.65183
1.62793
1.60187
1.57627
1.55378
1.53517
1.51878
1.50224
1.48349
1.46357
1.446
1.42979
1.41258
1.39591
1.38255
1.37029
1.35543
1.34175
1.32896
1.31498
1.30297
1.29062
1.27535
1.26048
1.24812
1.23597
1.22281
1.20986
1.19727
1.18457
1.17796
1.17487
1.17272
1.16758
1.15813
1.14705
1.13439
1.11877
1.10487
1.09223
1.08555
1.08421
1.08494
1.08316
1.07758
1.07005
1.06007
1.04967
1.04315
1.03839
1.03288
1.02758
1
1
1
1
1
1.00027
1.02063
1.24554
1.55492
1.72112
1.77407
1.76924
1.75362
1.72649
1.71019
1.69335
1.67738
1.66468
1.69774
1.86738
2.0684
2.19341
2.18959
2.15399
2.09701
2.04527
2.00559
1.97102
1.94115
1.91343
1.8845
1.8527
1.81958
1.78857
1.76238
1.74003
1.71901
1.69811
1.67759
1.65715
1.63545
1.6118
1.5871
1.56374
1.54371
1.52557
1.5078
1.48987
1.47371
1.4641
1.45179
1.43471
1.41655
1.39481
1.37567
1.36712
1.36202
1.3529
1.33925
1.32292
1.30253
1.28519
1.27719
1.26964
1.25767
1.24275
1.22618
1.20892
1.19303
1.18369
1.17897
1.17455
1.16784
1.15691
1.14398
1.13201
1.12104
1.10946
1.09756
1.08874
1.08156
1.07909
1.07821
1.07463
1.06796
1.05988
1.0497
1.04195
1.03618
1.02856
1.02049
1.01422
1
1
1
1
1
1
1.00028
1.01962
1.20538
1.51117
1.70771
1.76022
1.75306
1.73343
1.70884
1.6864
1.68877
1.78106
2.01164
2.18957
2.1936
2.17721
2.14398
2.10216
2.05724
2.01567
1.9801
1.94801
1.91954
1.89149
1.86255
1.83303
1.80366
1.77582
1.7504
1.72752
1.70646
1.68621
1.6661
1.64513
1.62236
1.59798
1.57445
1.5556
1.54151
1.52755
1.51091
1.49267
1.47482
1.45748
1.43974
1.42065
1.40663
1.39668
1.38464
1.37082
1.35549
1.34016
1.32488
1.30962
1.29647
1.28751
1.27835
1.26439
1.2482
1.2319
1.21574
1.20522
1.20021
1.19509
1.18697
1.17739
1.16594
1.15257
1.13907
1.12691
1.11543
1.10459
1.09641
1.08739
1.07842
1.07605
1.0744
1.06946
1.06163
1.05148
1.04045
1.03261
1.02624
1.01661
1.00911
1.00347
1
1
1
1
1
1
1
1.00025
1.01437
1.16048
1.49613
1.68753
1.73469
1.72977
1.71574
1.73664
1.88124
2.11513
2.26128
2.25663
2.22236
2.1583
2.09979
2.0572
2.02228
1.99086
1.95976
1.92922
1.90015
1.87174
1.84407
1.81745
1.79094
1.76376
1.73767
1.71464
1.69397
1.67437
1.65512
1.63554
1.61501
1.59345
1.57161
1.55163
1.53486
1.51936
1.50358
1.4871
1.46954
1.45144
1.43456
1.41914
1.40631
1.39401
1.38122
1.36723
1.35121
1.33538
1.32069
1.30794
1.29764
1.2885
1.27758
1.26315
1.24673
1.23028
1.21595
1.20644
1.19976
1.19303
1.18551
1.17617
1.1642
1.15059
1.13733
1.12569
1.11531
1.10534
1.09594
1.08559
1.07787
1.07607
1.07378
1.06766
1.05826
1.04731
1.03805
1.03085
1.02216
1.00971
1.0042
0.99977
1
1
1
1
1
1
1
1
1.00017
1.00927
1.1482
1.46678
1.64012
1.71359
1.82244
2.00491
2.16295
2.23387
2.229
2.1975
2.16281
2.12339
2.07883
2.0436
2.01605
1.98775
1.96101
1.93487
1.9078
1.88015
1.85323
1.82714
1.80031
1.77175
1.74417
1.72098
1.70148
1.68363
1.66628
1.64858
1.62962
1.60856
1.58533
1.56251
1.5431
1.52672
1.51151
1.49588
1.47938
1.46316
1.44694
1.4303
1.41518
1.40207
1.38924
1.37496
1.35948
1.34448
1.3315
1.32052
1.31051
1.3001
1.28817
1.27347
1.25672
1.24005
1.22535
1.21459
1.20735
1.20121
1.19384
1.18306
1.1696
1.15617
1.14408
1.13331
1.12338
1.11298
1.10198
1.09087
1.08461
1.08225
1.07873
1.0721
1.06252
1.05194
1.0427
1.03432
1.02332
1.00922
1.00532
1.00124
1
1
1
1
1
1
1
1
1
1.0001
1.00882
1.13499
1.46231
1.78918
2.11425
2.35926
2.45267
2.37079
2.25456
2.16291
2.11115
2.09014
2.06644
2.03473
1.99787
1.96449
1.9388
1.9168
1.8931
1.86718
1.84041
1.81323
1.78479
1.75502
1.72724
1.70457
1.68583
1.66899
1.65276
1.63597
1.61733
1.59567
1.57146
1.54852
1.52967
1.51336
1.49749
1.4813
1.46566
1.45129
1.43627
1.41915
1.40188
1.38662
1.3729
1.35953
1.34601
1.33304
1.32148
1.31094
1.30014
1.28834
1.27456
1.25885
1.24353
1.22912
1.2151
1.20317
1.1948
1.1885
1.18112
1.17065
1.15813
1.14569
1.13394
1.12314
1.11325
1.10256
1.09032
1.07789
1.07367
1.0726
1.07003
1.06373
1.05361
1.04247
1.03227
1.02272
1.00867
0.99704
0.995736
0.992757
)
;

boundaryField
{
    inlet
    {
        type            fixedValue;
        value           uniform 1;
    }
    outlet
    {
        type            inletOutlet;
        inletValue      uniform 1;
        value           nonuniform List<scalar> 
32
(
2.19232
2.14566
2.03934
1.89728
1.76705
1.63725
1.47227
1.38963
1.37285
1.35599
1.33493
1.3067
1.278
1.25123
1.22921
1.20812
1.18753
1.16598
1.14486
1.12472
1.1077
1.09461
1.08459
1.06945
1.0561
1.04175
1.02783
1.01444
1.00383
1.00021
1.0018
0.993335
)
;
    }
    bottom
    {
        type            zeroGradient;
    }
    top
    {
        type            zeroGradient;
    }
    obstacle
    {
        type            zeroGradient;
    }
    defaultFaces
    {
        type            empty;
    }
}


// ************************************************************************* //
