/*--------------------------------*- C++ -*----------------------------------*\
  =========                 |
  \\      /  F ield         | OpenFOAM: The Open Source CFD Toolbox
   \\    /   O peration     | Website:  https://openfoam.org
    \\  /    A nd           | Version:  7
     \\/     M anipulation  |
\*---------------------------------------------------------------------------*/
FoamFile
{
    version     2.0;
    format      ascii;
    class       volScalarField;
    location    "0.8";
    object      p;
}
// * * * * * * * * * * * * * * * * * * * * * * * * * * * * * * * * * * * * * //

dimensions      [1 -1 -2 0 0 0 0];

internalField   nonuniform List<scalar> 
16192
(
5.54009
5.44432
5.34122
5.27643
5.2347
5.22633
5.21969
5.19937
5.16678
5.11997
5.05987
4.98557
4.90065
4.80943
4.71477
4.61902
4.52108
4.42561
4.32957
4.23131
4.14093
5.55534
5.45742
5.35216
5.27654
5.22715
5.2172
5.21178
5.19331
5.16222
5.11788
5.06207
4.99334
4.91481
4.82868
4.73699
4.64213
4.54463
4.44819
4.35297
4.25575
4.1658
5.56812
5.46575
5.3601
5.27949
5.2206
5.20419
5.19824
5.18179
5.15316
5.11321
5.06214
4.99938
4.92704
4.84567
4.7572
4.66368
4.56821
4.47196
4.37838
4.28316
4.19275
5.57823
5.47422
5.37048
5.28525
5.22013
5.19304
5.1831
5.16601
5.14107
5.10665
5.06075
5.00456
4.93748
4.85968
4.77418
4.6824
4.58882
4.49416
4.40268
4.3098
4.21942
5.58859
5.48663
5.38927
5.30262
5.22589
5.18634
5.16736
5.14808
5.12973
5.09989
5.05892
5.009
4.94604
4.87146
4.78841
4.69878
4.60731
4.51419
4.42402
4.33323
4.24295
5.60865
5.50581
5.41332
5.32435
5.23836
5.18669
5.15366
5.13109
5.12001
5.09486
5.05975
5.01341
4.9542
4.88275
4.80202
4.71479
4.62487
4.53326
4.44332
4.35239
4.26129
5.62935
5.52507
5.43666
5.34781
5.25263
5.18783
5.13719
5.11659
5.11336
5.09142
5.06099
5.01786
4.96266
4.89462
4.81659
4.73172
4.64335
4.55289
4.46245
4.37025
4.27717
5.63702
5.5397
5.45749
5.36857
5.26622
5.19343
5.12853
5.11046
5.09986
5.08107
5.05488
5.01976
4.96971
4.90598
4.83248
4.75054
4.66349
4.57353
4.48202
4.38756
4.29332
5.65917
5.56309
5.4785
5.38478
5.27821
5.20001
5.1289
5.09964
5.08196
5.06792
5.04661
5.01609
4.97133
4.91474
4.84816
4.77091
4.68588
4.59571
4.50317
4.40706
4.31181
5.66492
5.56782
5.48203
5.38883
5.28737
5.20607
5.1297
5.08729
5.06754
5.05058
5.03482
5.013
4.97045
4.91966
4.86043
4.78915
4.70719
4.61818
4.52568
4.42975
4.33553
5.6802
5.58172
5.49597
5.40139
5.30449
5.21867
5.13483
5.06975
5.05088
5.02997
5.01664
4.99969
4.96773
4.9211
4.86753
4.80197
4.72357
4.63791
4.54788
4.45474
4.36301
5.70597
5.60681
5.51714
5.42052
5.32407
5.23562
5.14294
5.0657
5.03468
5.00902
4.99747
4.9817
4.95471
4.92077
4.87149
4.81044
4.73516
4.65395
4.56773
4.47926
4.39236
5.71958
5.61971
5.52812
5.43153
5.33809
5.25532
5.15822
5.08452
5.03421
4.99841
4.98134
4.96379
4.94086
4.91262
4.87337
4.8154
4.74409
4.66767
4.58541
4.50138
4.41933
5.75151
5.64639
5.55204
5.4558
5.36214
5.27567
5.17433
5.10041
5.0419
4.99123
4.97291
4.95269
4.92892
4.90218
4.86677
4.81657
4.75039
4.67944
4.60203
4.52216
4.44451
5.76973
5.66178
5.56523
5.46732
5.37439
5.28841
5.18744
5.10815
5.04081
4.99045
4.96515
4.94487
4.91996
4.89345
4.85803
4.81341
4.75682
4.69025
4.61757
4.54138
4.46605
5.77807
5.68191
5.58596
5.49064
5.3995
5.31292
5.21658
5.1317
5.05355
4.99405
4.95724
4.93041
4.90934
4.88645
4.85506
4.81246
4.76369
4.70176
4.63248
4.55823
4.48354
5.82115
5.7076
5.59883
5.50132
5.41231
5.32716
5.23487
5.14778
5.06665
4.99512
4.94557
4.91206
4.89671
4.87546
4.84798
4.81096
4.76625
4.71249
4.64515
4.57073
4.49542
5.77429
5.71496
5.61359
5.51827
5.42942
5.3432
5.25369
5.16784
5.08368
5.008
4.95185
4.90777
4.87911
4.86026
4.83943
4.8082
4.76721
4.71764
4.65394
4.57838
4.50259
5.8189
5.76736
5.6479
5.54515
5.45286
5.36189
5.26984
5.18303
5.0952
5.01443
4.95111
4.89721
4.85979
4.84612
4.83052
4.8037
4.76744
4.71944
4.6586
4.58762
4.51172
5.63757
5.7302
5.66358
5.56582
5.47399
5.38272
5.29067
5.20325
5.11234
5.02454
4.9547
4.89431
4.8568
4.84056
4.8128
4.79079
4.76266
4.72031
4.66375
4.59698
4.52593
5.31126
5.77026
5.70582
5.5993
5.50092
5.40588
5.31283
5.22514
5.13428
5.04176
4.96506
4.89272
4.8524
4.82555
4.79616
4.77529
4.7518
4.71619
4.667
4.60771
4.54192
4.45699
5.67297
5.69447
5.61553
5.51918
5.4256
5.33369
5.2464
5.15769
5.06578
4.98263
4.9009
4.84991
4.81386
4.78778
4.76708
4.74342
4.70551
4.66414
4.61501
4.55352
2.97278
5.33771
5.71038
5.65143
5.54895
5.44997
5.35897
5.27025
5.18046
5.09045
5.00478
4.91877
4.85661
4.8093
4.77787
4.75547
4.72544
4.68837
4.65527
4.61768
4.56372
1.62093
4.63314
5.68754
5.67237
5.57526
5.46879
5.37713
5.28867
5.19862
5.11117
5.02572
4.94135
4.8698
4.81231
4.7693
4.74006
4.71111
4.6778
4.64822
4.61624
4.5681
1.08023
3.27267
5.29187
5.63535
5.59303
5.49654
5.40423
5.31477
5.22363
5.13523
5.04787
4.96442
4.88811
4.82403
4.77102
4.73457
4.69721
4.66249
4.63365
4.60704
4.5673
1.00373
1.82284
4.76841
5.65556
5.62616
5.52569
5.42477
5.33303
5.24269
5.1542
5.06709
4.98596
4.90891
4.84089
4.77749
4.7306
4.6865
4.64921
4.62173
4.60095
4.56662
1.00008
1.13049
3.53903
5.31155
5.57154
5.52517
5.43686
5.34839
5.26503
5.18055
5.09459
5.01211
4.93379
4.86039
4.79041
4.73361
4.68519
4.64178
4.60858
4.58907
4.55704
1
1.00736
2.02844
4.88292
5.60483
5.56499
5.46566
5.36613
5.28191
5.19974
5.11709
5.0358
4.95708
4.87776
4.80613
4.74364
4.68798
4.63593
4.59636
4.57635
4.54762
1
1.00019
1.19201
3.74531
5.32027
5.51322
5.46601
5.37849
5.29379
5.21423
5.13793
5.06181
4.98461
4.90008
4.82459
4.75711
4.69811
4.6394
4.59433
4.56342
4.53337
1
1
1.01267
2.20854
4.94553
5.55391
5.51302
5.41372
5.31709
5.23159
5.15479
5.08172
5.00521
4.91901
4.84291
4.77411
4.71234
4.64798
4.59558
4.55443
4.52013
1
1
1.00036
1.25571
3.88843
5.31756
5.47021
5.41964
5.33446
5.24815
5.16769
5.09514
5.02192
4.94062
4.86528
4.7954
4.72909
4.66202
4.60421
4.55212
4.50929
1
1
1.00001
1.01947
2.35642
4.97254
5.5114
5.47038
5.37318
5.27591
5.18745
5.10913
5.03384
4.95793
4.88544
4.81572
4.74623
4.67963
4.61834
4.55414
4.50108
1
1
1
1.00062
1.31633
3.98346
5.31766
5.43563
5.3839
5.2953
5.20661
5.12429
5.04372
4.97007
4.90308
4.83644
4.76569
4.69791
4.63399
4.56503
4.49897
1
1
1
1.00001
1.02713
2.46953
4.98384
5.47393
5.43414
5.33499
5.23715
5.14805
5.05907
4.98372
4.91973
4.8538
4.78237
4.71549
4.65099
4.57871
4.5017
1
1
1
1.00095
1.36791
4.04673
5.3136
5.40104
5.34652
5.25762
5.17006
5.0787
4.99793
4.93042
4.86675
4.79859
4.73368
4.66811
4.59437
4.51299
1
1
1
1.00002
1.03474
2.55488
4.98297
5.43466
5.39333
5.29593
5.19961
5.10565
5.01721
4.94367
4.87941
4.81257
4.74957
4.68466
4.61177
4.5296
1
1
1
1
1.00131
1.40986
4.08359
5.29659
5.36073
5.30665
5.21782
5.12876
5.03963
4.95752
4.88533
4.8221
4.76462
4.70286
4.6329
4.55258
1
1
1
1
1.00002
1.04126
2.60705
4.95973
5.38673
5.35026
5.25497
5.15863
5.0677
4.97717
4.8943
4.8338
4.77957
4.72144
4.65615
4.58023
1
1
1
1
1
1.00162
1.43355
4.07188
5.27937
5.32478
5.26756
5.17682
5.09017
4.99769
4.90518
4.84092
4.78992
4.73882
4.68059
4.60927
1
1
1
1
1
1.00003
1.04473
2.60939
4.9111
5.3526
5.30612
5.21365
5.12141
5.02541
4.92328
4.85542
4.80677
4.75608
4.70274
4.63621
1
1
1
1
1
1
1.0018
1.43505
4.00595
5.25983
5.30438
5.24131
5.14739
5.05034
4.94486
4.87028
4.81854
4.77231
4.72311
4.65918
1
1
1
1
1
1
1.00003
1.04483
2.56974
4.85216
5.32975
5.28495
5.18899
5.08172
4.97229
4.89146
4.83696
4.79008
4.7417
4.67919
1
1
1
1
1
1
1
1.00184
1.42038
3.92104
5.24004
5.2831
5.2205
5.11225
4.99895
4.91124
4.85274
4.80734
4.75986
4.69734
1
1
1
1
1
1
1
1.00004
1.04301
2.49984
4.81496
5.30729
5.26879
5.16392
5.0361
4.9366
4.87186
4.82571
4.77689
4.71394
1
1
1
1
1
1
1
1
1.00177
1.39326
3.83231
5.2235
5.25035
5.18125
5.06156
4.95672
4.88769
4.84115
4.79204
4.72888
1
1
1
1
1
1
1
1
1.00003
1.03924
2.40069
4.79307
5.26895
5.22409
5.11132
4.98541
4.90578
4.85963
4.80879
4.74527
1
1
1
1
1
1
1
1
1
1.00157
1.35203
3.76504
5.17606
5.16838
5.08094
4.99047
4.91626
4.87169
4.82205
4.76097
1
1
1
1
1
1
1
1
1
1.00003
1.03419
2.31165
4.77228
5.20191
5.12463
5.02526
4.94136
4.89271
4.84102
4.78111
1
1
1
1
1
1
1
1
1
1
1.00136
1.31556
3.77493
4.97662
5.03589
5.01063
4.96181
4.90684
4.85385
4.7978
1
1
1
1
1
1
1
1
1
1
1.00002
1.02967
2.2918
4.61159
5.0717
5.06296
5.00057
4.93586
4.87837
4.82371
1
1
1
1
1
1
1
1
1
1
1
1.00114
1.29053
3.63663
4.80652
5.03727
5.01686
4.95611
4.89717
4.84385
1
1
1
1
1
1
1
1
1
1
1
1.00002
1.02395
2.16159
4.39321
5.07451
5.08331
5.01359
4.9388
4.87528
1
1
1
1
1
1
1
1
1
1
1
1
1.00076
1.22975
3.28034
4.88316
5.06216
5.03567
4.97009
4.90167
1
1
1
1
1
1
1
1
1
1
1
1
1.00001
1.01564
1.86806
4.2581
5.09223
5.09236
5.02501
4.9405
1
1
1
1
1
1
1
1
1
1
1
1
1
1.0004
1.13514
2.96812
4.76483
5.08069
5.06379
4.98616
1
1
1
1
1
1
1
1
1
1
1
1
1
1
1.00711
1.64247
4.08212
5.04278
5.08378
5.03064
1
1
1
1
1
1
1
1
1
1
1
1
1
1
1.00016
1.08565
2.77776
4.61671
5.06957
5.07438
1
1
1
1
1
1
1
1
1
1
1
1
1
1
1
1.00451
1.54249
3.85465
4.95952
5.07125
1
1
1
1
1
1
1
1
1
1
1
1
1
1
1
1.00012
1.06597
2.50905
4.65856
5.03963
1
1
1
1
1
1
1
1
1
1
1
1
1
1
1
1
1.00308
1.40069
3.68765
4.71151
1
1
1
1
1
1
1
1
1
1
1
1
1
1
1
1
1.00006
1.03954
2.20719
4.28925
1
1
1
1
1
1
1
1
1
1
1
1
1
1
1
1
1
1.00135
1.2593
3.07596
1
1
1
1
1
1
1
1
1
1
1
1
1
1
1
1
1
1.00002
1.02077
1.74147
1
1
1
1
1
1
1
1
1
1
1
1
1
1
1
1
1
1
1.00062
1.12792
1
1
1
1
1
1
1
1
1
1
1
1
1
1
1
1
1
1
1.00001
1.0104
0.961885
0.959371
0.956743
0.952249
0.945846
0.937168
0.936011
0.939382
0.945085
0.952405
0.962413
0.972266
0.974128
0.974043
0.973445
0.970847
0.964861
0.957442
0.949845
0.939329
0.932669
0.931594
0.931494
0.933158
0.935833
0.937447
0.938945
0.938632
0.935023
0.928544
0.926573
0.927173
0.929547
0.937249
0.959788
1.00265
1.06239
1.08278
1.08371
1.07818
1.06682
1.06322
4.07592
4.03307
3.99665
3.95757
3.91885
3.88812
3.85624
3.82278
3.79094
3.7624
3.72872
3.69757
3.66668
3.62757
3.58897
3.53913
3.51284
3.51241
3.55685
3.73059
3.89938
3.93274
3.92252
3.8863
3.82115
3.74412
3.67901
3.61683
3.55578
3.49226
3.4289
3.37547
3.31925
3.26544
3.21749
3.16548
3.12552
3.08638
3.04149
3.00331
2.96118
2.92286
2.89064
2.84996
2.80835
2.77144
2.72812
2.69201
2.65523
2.61571
2.58211
2.54602
2.51132
2.48152
2.44597
2.41018
2.38066
2.3449
2.31351
2.28538
2.25335
2.22306
2.19769
2.16583
2.1325
2.09756
2.06279
2.03778
2.01648
1.99455
1.97259
1.94682
1.91991
1.8989
1.8748
1.84693
1.82682
1.80802
1.78836
1.76977
1.74956
1.72468
1.69661
1.67145
1.65304
1.64264
1.63651
1.62992
1.61899
1.60462
1.58825
1.57029
1.54494
1.50849
1.4768
1.46815
1.46269
1.45736
1.4509
1.44321
1.43486
1.42438
1.40738
1.37852
1.35532
1.35039
1.34679
1.34213
1.3369
1.32858
1.31572
1.29648
1.2715
1.26017
1.2565
1.25206
1.24556
1.23814
1.22955
1.21943
1.20939
1.19677
1.17826
1.15035
1.12904
1.12459
1.12086
1.11659
1.11174
1.10642
1.10099
1.09445
1.08578
1.07248
1.05101
1.02425
1.00811
1.00426
1.00343
1.0051
1.00937
1.01601
1.01892
1.02284
1.03723
1.06614
1.09387
1.11449
1.13195
1.14377
1.14409
1.13908
1.1296
1.12506
1.12234
1.11765
1.11178
1.10621
1.1009
1.09531
1.08748
1.07964
1.07586
1.07351
1.07131
1.0689
1.06558
1.06158
1.05617
1.0484
1.03725
1.02916
1.02514
1.02162
1.01753
1.0129
1.00775
1.00248
0.997536
0.99154
0.984668
0.977746
0.972271
0.969709
0.968719
0.968937
0.969541
0.96748
0.964724
0.962273
0.95832
0.951702
0.941575
0.936879
0.938847
0.943465
0.949598
0.95817
0.969419
0.974966
0.975364
0.975185
0.973908
0.969423
0.961315
0.953029
0.944691
0.934476
0.930963
0.930536
0.930765
0.932571
0.935353
0.936712
0.937473
0.936882
0.93346
0.928173
0.926781
0.927047
0.928804
0.932981
0.945612
0.974031
1.02775
1.07498
1.08104
1.07671
1.07073
1.06928
4.10272
4.05949
4.02028
3.98133
3.94449
3.9125
3.8748
3.844
3.81469
3.78647
3.75031
3.71916
3.6959
3.6611
3.62541
3.57131
3.54921
3.55117
3.586
3.73812
3.92156
3.96617
3.95759
3.92578
3.86488
3.79238
3.72486
3.66145
3.59935
3.53478
3.47871
3.42149
3.36366
3.31211
3.25604
3.21047
3.16906
3.1202
3.07764
3.03278
2.98699
2.95301
2.91217
2.86897
2.83171
2.788
2.74995
2.71253
2.67147
2.63618
2.60004
2.56291
2.53406
2.50015
2.46368
2.43348
2.39741
2.36437
2.33679
2.30455
2.27326
2.24749
2.21621
2.18346
2.14922
2.11385
2.08735
2.06657
2.04287
2.02027
1.99547
1.96756
1.94331
1.92359
1.90095
1.87909
1.85929
1.83873
1.81647
1.79343
1.76541
1.73919
1.71616
1.69966
1.68797
1.68043
1.67437
1.6648
1.64963
1.632
1.61048
1.58458
1.55244
1.51893
1.50821
1.50235
1.4948
1.4879
1.48047
1.47174
1.46142
1.44628
1.41893
1.3913
1.38379
1.38033
1.37557
1.36975
1.36311
1.35225
1.33112
1.30625
1.29337
1.28831
1.28332
1.2777
1.27004
1.26004
1.24913
1.23723
1.22538
1.21133
1.19038
1.16557
1.15414
1.14931
1.14442
1.1393
1.13426
1.12889
1.12343
1.11678
1.10433
1.08327
1.06037
1.04743
1.0387
1.03056
1.02597
1.02345
1.02147
1.0211
1.01937
1.01226
1.01524
1.03031
1.05591
1.08299
1.10882
1.12671
1.12833
1.12546
1.12148
1.1212
1.12078
1.11711
1.11141
1.10502
1.09784
1.08765
1.07977
1.0767
1.07438
1.07255
1.07104
1.06818
1.06449
1.05979
1.05322
1.04309
1.03454
1.03066
1.02784
1.02444
1.0202
1.01503
1.00874
1.00151
0.99328
0.984612
0.980229
0.977145
0.974063
0.97177
0.971117
0.971955
0.971707
0.969273
0.966753
0.963578
0.957683
0.947598
0.938687
0.938883
0.942481
0.947723
0.954863
0.96585
0.975529
0.977115
0.977157
0.976504
0.973726
0.967043
0.957222
0.949063
0.940107
0.931535
0.929788
0.929842
0.930585
0.932575
0.934515
0.935675
0.935878
0.93445
0.930848
0.927776
0.926733
0.926453
0.927378
0.929849
0.935861
0.953303
0.99123
1.05051
1.07732
1.07808
1.07739
1.07956
4.1296
4.08687
4.04891
4.00932
3.967
3.93296
3.89658
3.86592
3.83399
3.80335
3.77332
3.7439
3.72124
3.68736
3.65725
3.60625
3.58157
3.58496
3.61404
3.74313
3.9379
3.99786
3.99286
3.96246
3.90692
3.84083
3.77241
3.70652
3.64092
3.58376
3.52786
3.46861
3.41448
3.35578
3.30509
3.26218
3.21098
3.16376
3.1176
3.06564
3.0267
2.98461
2.93864
2.89953
2.85494
2.815
2.77756
2.73492
2.69736
2.66061
2.62058
2.59123
2.5584
2.52164
2.49127
2.45567
2.41928
2.39254
2.36053
2.32762
2.30101
2.26943
2.23731
2.20429
2.16894
2.14085
2.12004
2.09528
2.07199
2.04561
2.01782
1.9943
1.97235
1.95326
1.93344
1.91188
1.88964
1.86614
1.84017
1.80956
1.7804
1.7629
1.74906
1.73729
1.72753
1.71975
1.71083
1.69684
1.67748
1.65027
1.62293
1.59581
1.56577
1.54797
1.54175
1.53467
1.52629
1.5178
1.50884
1.4984
1.48408
1.45924
1.42999
1.41954
1.41511
1.40997
1.40446
1.39738
1.38744
1.36891
1.34009
1.32458
1.32036
1.31586
1.30984
1.30226
1.29245
1.27942
1.26642
1.25431
1.2405
1.22307
1.2009
1.18556
1.17941
1.17426
1.1685
1.16264
1.1573
1.15216
1.14626
1.13673
1.11429
1.08973
1.07815
1.07156
1.06555
1.05787
1.0503
1.0442
1.03767
1.03062
1.01987
1.00877
1.01046
1.01941
1.03521
1.0557
1.08079
1.10317
1.11241
1.11327
1.11469
1.11786
1.11787
1.11464
1.10904
1.10105
1.08921
1.08151
1.07819
1.07544
1.0731
1.0717
1.06982
1.06656
1.06234
1.05645
1.0473
1.03876
1.03484
1.03265
1.03031
1.02717
1.02283
1.01681
1.00844
0.998122
0.987806
0.98322
0.981139
0.979524
0.976742
0.974317
0.973747
0.974455
0.973165
0.970512
0.967568
0.962823
0.953894
0.942684
0.939797
0.941642
0.946389
0.952725
0.96207
0.974943
0.979203
0.979649
0.979457
0.977623
0.972726
0.963653
0.953828
0.946056
0.936486
0.930198
0.929443
0.92973
0.931091
0.933046
0.933703
0.934178
0.933781
0.93095
0.927756
0.92734
0.926537
0.925461
0.925312
0.926862
0.929347
0.938893
0.964581
1.01278
1.06193
1.08068
1.0864
1.09107
4.15726
4.11495
4.07453
4.03528
3.99424
3.95857
3.9193
3.88707
3.85712
3.8254
3.7981
3.76748
3.74814
3.71835
3.68854
3.64081
3.61151
3.61507
3.63902
3.74514
3.94329
4.02157
4.02483
3.99786
3.94711
3.88539
3.81984
3.75125
3.6887
3.63317
3.57464
3.51996
3.46136
3.40553
3.361
3.30923
3.25815
3.21075
3.15566
3.1114
3.06741
3.01835
2.97648
2.93023
2.88729
2.85034
2.80669
2.76639
2.72938
2.68588
2.65461
2.62261
2.58461
2.55327
2.52084
2.48045
2.45147
2.42121
2.38717
2.35878
2.32566
2.29355
2.26294
2.22807
2.19828
2.17731
2.15194
2.12719
2.09965
2.07116
2.04712
2.02554
2.00713
1.98799
1.96612
1.94221
1.9176
1.89034
1.85753
1.8236
1.80765
1.79915
1.78941
1.77855
1.76852
1.75844
1.74376
1.72165
1.6899
1.65943
1.63518
1.61277
1.59374
1.58215
1.57398
1.56603
1.5571
1.54719
1.53604
1.52153
1.49781
1.46902
1.45692
1.45236
1.44659
1.44035
1.43377
1.42459
1.40623
1.3757
1.35599
1.35124
1.34738
1.34214
1.33512
1.32516
1.31161
1.29595
1.28261
1.27085
1.25488
1.23236
1.21551
1.20879
1.20359
1.19819
1.19256
1.18683
1.18138
1.1756
1.16612
1.14439
1.11667
1.10551
1.10133
1.09488
1.0884
1.08251
1.07479
1.06633
1.05572
1.04053
1.02098
1.01131
1.01295
1.02009
1.03306
1.04872
1.06374
1.08022
1.09378
1.1026
1.10945
1.11366
1.1135
1.1107
1.10353
1.09104
1.0828
1.08001
1.07756
1.07486
1.07249
1.07055
1.06792
1.06431
1.05878
1.04975
1.04169
1.03836
1.03622
1.0345
1.03248
1.02951
1.02486
1.01736
1.00631
0.993748
0.98773
0.985543
0.984061
0.982962
0.979911
0.97729
0.976495
0.97618
0.974078
0.971095
0.966747
0.959308
0.947763
0.941986
0.942166
0.94526
0.951424
0.959156
0.971026
0.980705
0.982225
0.982365
0.981714
0.97835
0.971068
0.960701
0.951681
0.943619
0.933908
0.930284
0.929996
0.930534
0.931943
0.932689
0.932876
0.932553
0.930352
0.926499
0.925258
0.925184
0.925503
0.924403
0.92331
0.923713
0.924902
0.929613
0.946125
0.981743
1.03447
1.0747
1.09196
1.09628
4.18043
4.13952
4.0987
4.0597
4.01842
3.98461
3.94775
3.91522
3.88502
3.8524
3.82908
3.80137
3.78027
3.75079
3.71942
3.67566
3.63951
3.64218
3.65983
3.74538
3.94038
4.03558
4.04867
4.02968
3.98546
3.92638
3.86135
3.79678
3.73948
3.68118
3.62503
3.56797
3.50886
3.46184
3.41052
3.3567
3.30817
3.25194
3.20351
3.1579
3.10629
3.06152
3.01434
2.96736
2.93017
2.8864
2.84338
2.80579
2.75985
2.7245
2.69242
2.65394
2.62022
2.58652
2.55112
2.51557
2.4832
2.45078
2.42176
2.38709
2.35086
2.3238
2.29131
2.25949
2.23754
2.21179
2.18612
2.15822
2.12723
2.1029
2.08031
2.0625
2.04427
2.02091
1.99541
1.9683
1.94118
1.91041
1.87563
1.85434
1.84743
1.84106
1.8315
1.82011
1.80837
1.7933
1.7701
1.73422
1.69714
1.67248
1.656
1.64144
1.62768
1.61529
1.60571
1.59657
1.58651
1.57497
1.56005
1.53642
1.50757
1.49457
1.49013
1.48464
1.4782
1.47133
1.46241
1.44422
1.41188
1.3883
1.38275
1.37862
1.3736
1.36724
1.35819
1.34459
1.32718
1.31201
1.30006
1.28703
1.26619
1.24388
1.2363
1.23196
1.22654
1.22141
1.2168
1.21145
1.2053
1.19645
1.17591
1.14459
1.12958
1.12686
1.12239
1.11612
1.10958
1.10467
1.09826
1.08806
1.07285
1.04789
1.02465
1.02095
1.02198
1.02666
1.03591
1.04754
1.05932
1.07021
1.08172
1.09447
1.10387
1.10667
1.10645
1.10304
1.09314
1.08462
1.08168
1.07961
1.07822
1.07581
1.0725
1.06945
1.06615
1.06089
1.05139
1.04333
1.04083
1.0392
1.0376
1.03608
1.03409
1.03102
1.02564
1.01613
1.00214
0.993366
0.990907
0.98928
0.988257
0.986701
0.983131
0.980457
0.979124
0.977306
0.9746
0.97044
0.963619
0.952871
0.94508
0.943903
0.945208
0.95009
0.957949
0.96695
0.978793
0.984398
0.985048
0.984982
0.983488
0.97828
0.969305
0.959698
0.95131
0.942512
0.934109
0.93181
0.931599
0.932163
0.932578
0.93253
0.931751
0.929379
0.925283
0.923498
0.923268
0.923078
0.924193
0.923568
0.921608
0.920709
0.921525
0.923695
0.933105
0.958361
1.00305
1.05772
1.09047
1.09732
4.19886
4.15944
4.11857
4.08027
4.04253
4.01061
3.97611
3.94481
3.91771
3.88961
3.8658
3.83651
3.81623
3.789
3.75438
3.71405
3.66933
3.66868
3.6791
3.74423
3.92863
4.04325
4.06456
4.05409
4.01982
3.9645
3.9004
3.84252
3.78618
3.72999
3.67426
3.61358
3.56297
3.51242
3.45693
3.40692
3.35046
3.29904
3.25289
3.19974
3.15189
3.10436
3.05328
3.01485
2.97179
2.92646
2.88827
2.84152
2.80119
2.76784
2.72753
2.69225
2.65754
2.61931
2.58931
2.55252
2.51434
2.48672
2.45683
2.41234
2.38283
2.35629
2.32466
2.30061
2.2742
2.24722
2.2202
2.18739
2.16114
2.13786
2.11858
2.10122
2.07746
2.04975
2.02194
1.99093
1.96083
1.93268
1.90848
1.89794
1.89134
1.88372
1.87323
1.85925
1.84138
1.81636
1.77912
1.74037
1.71327
1.69891
1.68766
1.67543
1.66057
1.6467
1.63594
1.62553
1.61394
1.5992
1.57625
1.54713
1.53288
1.52862
1.52345
1.51667
1.50944
1.50012
1.48096
1.44766
1.42138
1.41502
1.41103
1.40561
1.39919
1.39074
1.37757
1.35915
1.34199
1.33
1.31912
1.3026
1.27673
1.26259
1.25811
1.25375
1.24909
1.24493
1.24082
1.23516
1.22651
1.20778
1.17598
1.15427
1.1511
1.14816
1.14296
1.1366
1.13018
1.12489
1.11839
1.1071
1.08667
1.0548
1.0381
1.03714
1.03769
1.04097
1.0454
1.05082
1.05832
1.06683
1.07695
1.08897
1.09522
1.0964
1.09609
1.09146
1.08499
1.08259
1.08089
1.08014
1.08018
1.07739
1.07354
1.06925
1.06315
1.05363
1.04489
1.04255
1.04132
1.04021
1.03896
1.03732
1.03509
1.03153
1.02487
1.01291
1.00031
0.996471
0.994951
0.993539
0.992744
0.990491
0.986482
0.983588
0.981168
0.978422
0.974396
0.967766
0.957274
0.948511
0.946253
0.946683
0.949305
0.956337
0.965492
0.974687
0.984165
0.987496
0.987747
0.987267
0.983914
0.977165
0.968764
0.960877
0.952337
0.943742
0.937125
0.934792
0.934193
0.934064
0.933636
0.932051
0.928894
0.924534
0.922406
0.922033
0.921606
0.921451
0.923049
0.923061
0.920591
0.9187
0.918897
0.919991
0.924217
0.940551
0.974256
1.02792
1.08052
1.0961
4.21345
4.17483
4.13471
4.10006
4.06573
4.03415
4.00401
3.97714
3.95286
3.92564
3.90518
3.87863
3.85472
3.8269
3.79028
3.75144
3.70038
3.6925
3.69901
3.74745
3.91334
4.04818
4.0783
4.07323
4.04691
3.99714
3.94025
3.88549
3.83037
3.77686
3.7183
3.66475
3.61445
3.55816
3.50603
3.44968
3.39521
3.34912
3.29603
3.2456
3.19848
3.14396
3.10255
3.06024
3.01302
2.97348
2.92751
2.88264
2.84744
2.8057
2.76708
2.73254
2.69114
2.66017
2.62662
2.58927
2.55091
2.52221
2.48907
2.44442
2.41726
2.39157
2.36661
2.33914
2.30833
2.28308
2.25145
2.222
2.19852
2.176
2.15837
2.13439
2.10511
2.07582
2.04507
2.01124
1.98732
1.96889
1.95404
1.94409
1.9351
1.92467
1.91022
1.89097
1.86452
1.82496
1.78404
1.75714
1.74447
1.73438
1.7234
1.70901
1.69164
1.67685
1.66494
1.65298
1.63839
1.61641
1.58761
1.57209
1.56781
1.56342
1.55633
1.54826
1.53791
1.51714
1.48322
1.45564
1.4482
1.4438
1.43839
1.43213
1.42387
1.41091
1.39149
1.3726
1.36057
1.35078
1.33779
1.3154
1.29232
1.28428
1.28031
1.27629
1.27247
1.26865
1.26374
1.25597
1.23849
1.20724
1.18117
1.1762
1.17334
1.16919
1.16422
1.15776
1.14984
1.14302
1.13426
1.11919
1.09478
1.06692
1.05754
1.0554
1.05521
1.05665
1.05747
1.05812
1.06111
1.06763
1.07714
1.08427
1.0865
1.08746
1.08609
1.08248
1.08126
1.08052
1.08053
1.08319
1.0829
1.07954
1.07507
1.06842
1.05799
1.04752
1.04425
1.04306
1.04239
1.04211
1.04067
1.03868
1.03602
1.03161
1.02299
1.00905
1.00149
1.00012
0.999022
0.998298
0.996785
0.993819
0.9901
0.986578
0.983149
0.979042
0.972544
0.962065
0.951899
0.948707
0.948728
0.950127
0.954575
0.964092
0.972982
0.981343
0.988197
0.990235
0.99022
0.988238
0.983039
0.975893
0.969781
0.963027
0.954283
0.946811
0.941653
0.938954
0.937636
0.936461
0.934145
0.92983
0.924521
0.922084
0.921503
0.921108
0.92053
0.92069
0.92273
0.923214
0.920991
0.917834
0.917221
0.917585
0.919101
0.927407
0.950884
0.992493
1.05532
1.09199
4.22896
4.19083
4.15002
4.1165
4.08657
4.05799
4.03192
4.00683
3.98598
3.96144
3.94123
3.91737
3.8919
3.86436
3.82655
3.78761
3.73251
3.71707
3.71936
3.75412
3.89352
4.04969
4.09304
4.09343
4.07038
4.02735
3.97832
3.92549
3.87301
3.81768
3.76434
3.71522
3.65995
3.60592
3.5499
3.49225
3.44565
3.39365
3.34086
3.29398
3.2385
3.19312
3.15088
3.10206
3.06022
3.01539
2.96746
2.9299
2.88707
2.84483
2.81011
2.76645
2.73317
2.70159
2.66241
2.629
2.58862
2.55663
2.52419
2.4822
2.45324
2.43222
2.40845
2.37335
2.34412
2.31682
2.28559
2.26112
2.23577
2.2162
2.19254
2.1616
2.13094
2.10014
2.06612
2.04253
2.02746
2.01379
2.00097
1.98815
1.97585
1.96068
1.93928
1.91115
1.87282
1.8293
1.80132
1.79144
1.78243
1.77162
1.75759
1.73948
1.72083
1.70586
1.69286
1.67843
1.65781
1.62979
1.6126
1.60781
1.60395
1.59724
1.58847
1.57665
1.55339
1.51843
1.49075
1.4833
1.47904
1.47273
1.4659
1.45823
1.44561
1.4244
1.40398
1.39166
1.38293
1.37258
1.35316
1.32751
1.31295
1.30798
1.30421
1.30013
1.29607
1.29132
1.2842
1.26816
1.23722
1.20783
1.20082
1.19906
1.19568
1.19113
1.18615
1.1791
1.16919
1.15918
1.14715
1.12554
1.10125
1.0859
1.07901
1.0755
1.07372
1.07209
1.07029
1.06941
1.06994
1.07399
1.07957
1.08235
1.08279
1.07991
1.07791
1.07813
1.07849
1.07927
1.08372
1.08778
1.08641
1.08262
1.07638
1.0654
1.05232
1.04712
1.04579
1.04479
1.04463
1.04465
1.04288
1.04063
1.03733
1.03138
1.01974
1.00747
1.00458
1.00363
1.00321
1.00254
1.00012
0.997063
0.993625
0.989616
0.985018
0.978483
0.968039
0.956155
0.951371
0.951129
0.951796
0.95465
0.961688
0.972056
0.979482
0.98716
0.991721
0.992714
0.991806
0.987422
0.980959
0.976416
0.972232
0.965163
0.956675
0.950425
0.946072
0.943417
0.941595
0.939069
0.933684
0.927342
0.924238
0.922806
0.922159
0.921421
0.920534
0.921333
0.92392
0.92425
0.922059
0.918558
0.915984
0.915472
0.91582
0.918995
0.933072
0.961448
1.01431
1.07801
4.24612
4.20788
4.16987
4.13762
4.10782
4.07899
4.05742
4.03453
4.01421
3.99168
3.97223
3.95002
3.92373
3.89655
3.8596
3.82132
3.76359
3.74289
3.74126
3.76607
3.87729
4.04622
4.10727
4.11402
4.0939
4.05805
4.01293
3.96307
3.91003
3.85851
3.81189
3.75979
3.70574
3.65116
3.59133
3.54269
3.49242
3.43818
3.39059
3.3354
3.28596
3.24329
3.1933
3.14838
3.10387
3.05336
3.0137
2.97065
2.92487
2.88866
2.84472
2.80665
2.77737
2.73805
2.70259
2.66708
2.62602
2.59497
2.56107
2.52329
2.49367
2.47419
2.44567
2.40752
2.37931
2.35148
2.32559
2.29871
2.27437
2.25133
2.21977
2.187
2.15658
2.12361
2.10132
2.08801
2.07329
2.05943
2.04488
2.02849
2.01025
1.98715
1.95849
1.92225
1.87834
1.84756
1.83874
1.8309
1.8199
1.8057
1.78698
1.76679
1.7492
1.73423
1.71941
1.70018
1.67357
1.65494
1.64939
1.64531
1.63923
1.63018
1.61611
1.58903
1.5533
1.52635
1.51922
1.51607
1.51107
1.50399
1.49549
1.48154
1.45768
1.4359
1.42409
1.41605
1.4069
1.39094
1.36352
1.34445
1.33727
1.33351
1.32962
1.32469
1.3192
1.31165
1.29595
1.26664
1.23594
1.22534
1.22344
1.22157
1.21807
1.21337
1.20756
1.19924
1.18751
1.17247
1.15207
1.12866
1.11403
1.10762
1.10113
1.09597
1.09223
1.08861
1.08511
1.08292
1.08255
1.08351
1.08487
1.08444
1.07879
1.07385
1.07408
1.07543
1.077
1.08181
1.09019
1.09224
1.09016
1.08568
1.07658
1.0613
1.05179
1.0497
1.04845
1.0478
1.04804
1.0475
1.04565
1.04312
1.03886
1.02999
1.01613
1.00962
1.00832
1.00742
1.00728
1.00611
1.00338
1.00035
0.997077
0.992618
0.98613
0.975706
0.962115
0.954702
0.953961
0.954129
0.955883
0.960502
0.970215
0.978759
0.985743
0.992227
0.99491
0.99494
0.991106
0.98469
0.981249
0.979162
0.97461
0.966457
0.959008
0.953911
0.950257
0.947737
0.945239
0.940385
0.932732
0.927084
0.925072
0.924269
0.923548
0.922535
0.922043
0.924202
0.926949
0.926055
0.923527
0.92013
0.915197
0.913101
0.913098
0.914059
0.921006
0.939177
0.974475
1.04393
4.26996
4.23101
4.19296
4.15962
4.12903
4.10319
4.08148
4.0585
4.03484
4.0159
3.99642
3.9745
3.94736
3.92357
3.88903
3.85103
3.79632
3.76816
3.76696
3.7814
3.86722
4.04112
4.1192
4.1326
4.11866
4.08922
4.04622
3.99547
3.94376
3.90052
3.85377
3.80206
3.74989
3.69096
3.63999
3.59164
3.53702
3.48803
3.43418
3.38138
3.33768
3.28682
3.2383
3.19382
3.14154
3.09914
3.05629
3.00802
2.96924
2.92633
2.88282
2.85386
2.81624
2.77772
2.74475
2.70163
2.66851
2.63397
2.60058
2.56486
2.53611
2.51342
2.48008
2.4425
2.41492
2.39027
2.36553
2.33503
2.30963
2.27991
2.24508
2.21408
2.18273
2.16092
2.15036
2.13566
2.11955
2.10322
2.08323
2.0602
2.03426
2.00454
1.97098
1.9299
1.89715
1.88823
1.88102
1.86923
1.85384
1.83436
1.81221
1.79305
1.77734
1.76191
1.74371
1.71911
1.6991
1.69251
1.68796
1.68208
1.67312
1.65651
1.62426
1.58695
1.5619
1.55594
1.55433
1.55033
1.54356
1.53559
1.52011
1.49052
1.46748
1.45777
1.4506
1.44172
1.42794
1.40059
1.37615
1.36802
1.36362
1.36018
1.35572
1.34945
1.34064
1.3238
1.29425
1.2637
1.25071
1.24832
1.24718
1.24442
1.24036
1.23507
1.22748
1.2169
1.20285
1.18196
1.1551
1.13729
1.1327
1.12835
1.12236
1.11623
1.1111
1.10636
1.1021
1.09901
1.09695
1.09528
1.0924
1.08332
1.073
1.07079
1.07227
1.07475
1.07976
1.08978
1.09673
1.09642
1.09373
1.08758
1.0747
1.06029
1.05552
1.05401
1.05288
1.05287
1.05224
1.05092
1.04891
1.04566
1.03917
1.02648
1.01602
1.01393
1.0127
1.0118
1.01134
1.0098
1.00713
1.00393
1.00034
0.994945
0.985284
0.97071
0.959576
0.957507
0.9575
0.958243
0.96125
0.968156
0.978229
0.984829
0.991845
0.996347
0.997714
0.995268
0.988394
0.984733
0.983588
0.981599
0.976045
0.967805
0.961553
0.957146
0.954016
0.951435
0.947452
0.939624
0.930739
0.927687
0.926999
0.926443
0.925641
0.924974
0.926294
0.929459
0.930538
0.928219
0.924989
0.921
0.913923
0.911171
0.91105
0.911391
0.914244
0.924925
0.946341
0.996827
4.29853
4.26032
4.22287
4.1875
4.15658
4.12816
4.10333
4.07841
4.0542
4.03748
4.01492
3.99177
3.96576
3.9432
3.91441
3.87812
3.82849
3.79248
3.79371
3.80363
3.86649
4.03487
4.13261
4.15134
4.14325
4.1187
4.07771
4.02498
3.9796
3.93735
3.89017
3.84229
3.78744
3.73553
3.68946
3.63635
3.58592
3.53329
3.47776
3.43306
3.38264
3.33068
3.28497
3.23118
3.18548
3.14327
3.09362
3.05126
3.01016
2.96206
2.93087
2.89574
2.85456
2.82249
2.78057
2.7439
2.7112
2.67387
2.64269
2.60502
2.57793
2.54989
2.51403
2.47882
2.45325
2.43064
2.40299
2.36918
2.33922
2.30547
2.27371
2.24395
2.22125
2.21171
2.19973
2.18158
2.16294
2.14012
2.11218
2.08213
2.05047
2.01791
1.98263
1.95
1.93958
1.93258
1.92042
1.90337
1.88191
1.85818
1.83721
1.82068
1.80589
1.78887
1.76596
1.74479
1.73699
1.73183
1.72545
1.71635
1.69744
1.6611
1.62141
1.5971
1.59194
1.59229
1.59071
1.58339
1.57461
1.5571
1.52469
1.49807
1.49038
1.48523
1.47724
1.46445
1.4388
1.40811
1.39898
1.39463
1.39103
1.38735
1.38179
1.37269
1.35446
1.323
1.29098
1.27625
1.27327
1.27177
1.27104
1.26759
1.26279
1.25608
1.24578
1.23166
1.21023
1.18527
1.16422
1.15569
1.15153
1.14782
1.1426
1.13635
1.13052
1.12523
1.12058
1.1166
1.11288
1.10771
1.09546
1.07857
1.07083
1.07144
1.07431
1.07967
1.08937
1.0993
1.10144
1.10029
1.09667
1.08754
1.07223
1.0627
1.06066
1.05923
1.05853
1.05885
1.05712
1.05523
1.0524
1.04716
1.03646
1.02391
1.02008
1.0187
1.01753
1.01698
1.01593
1.01413
1.01157
1.0081
1.00359
0.995782
0.981391
0.966568
0.962063
0.961851
0.962139
0.963845
0.968145
0.977321
0.98489
0.99077
0.996996
0.999941
0.999461
0.993548
0.988044
0.986627
0.985878
0.983791
0.977252
0.969316
0.963918
0.960043
0.957082
0.953758
0.947314
0.936833
0.930809
0.929889
0.9296
0.929164
0.928786
0.929981
0.933085
0.934942
0.933272
0.930053
0.925612
0.92007