/*--------------------------------*- C++ -*----------------------------------*\
  =========                 |
  \\      /  F ield         | OpenFOAM: The Open Source CFD Toolbox
   \\    /   O peration     | Website:  https://openfoam.org
    \\  /    A nd           | Version:  7
     \\/     M anipulation  |
\*---------------------------------------------------------------------------*/
FoamFile
{
    version     2.0;
    format      ascii;
    class       volScalarField;
    location    "0.8";
    object      rho;
}
// * * * * * * * * * * * * * * * * * * * * * * * * * * * * * * * * * * * * * //

dimensions      [1 -3 0 0 0 0 0];

internalField   nonuniform List<scalar> 
16192
(
3.9064
3.8451
3.78112
3.73511
3.70257
3.68888
3.6753
3.65485
3.62915
3.59728
3.55888
3.5141
3.46465
3.41227
3.35797
3.30274
3.24612
3.19081
3.13541
3.07905
3.02678
3.92176
3.86299
3.79853
3.74769
3.71017
3.69491
3.68128
3.662
3.63628
3.60562
3.5694
3.52738
3.48095
3.43078
3.37758
3.32248
3.26592
3.21007
3.15509
3.09919
3.04703
3.9318
3.87556
3.81357
3.76235
3.71889
3.69933
3.68475
3.66613
3.64097
3.61242
3.57869
3.5397
3.49613
3.44794
3.39601
3.34142
3.28591
3.23019
3.17603
3.12103
3.06847
3.93721
3.8831
3.82619
3.77623
3.73062
3.70539
3.68839
3.66844
3.64467
3.61803
3.58717
3.55142
3.51014
3.46336
3.41273
3.35906
3.30466
3.24984
3.19668
3.1427
3.08999
3.94146
3.89019
3.83883
3.79046
3.74508
3.7137
3.69218
3.67029
3.64953
3.62415
3.59556
3.56248
3.52289
3.47753
3.42816
3.37578
3.32267
3.26868
3.21605
3.16295
3.11013
3.95061
3.89921
3.85224
3.80463
3.75778
3.72395
3.69621
3.67309
3.65609
3.63246
3.60519
3.57353
3.53545
3.49157
3.44353
3.39262
3.34045
3.28723
3.23458
3.18123
3.12787
3.96263
3.90792
3.86314
3.81755
3.76712
3.73108
3.69617
3.67655
3.66438
3.64226
3.61548
3.58504
3.54856
3.50626
3.4597
3.41014
3.35883
3.30617
3.2532
3.19914
3.14473
3.97097
3.91687
3.87325
3.82761
3.77484
3.73542
3.698
3.68149
3.667
3.64764
3.62312
3.59557
3.56165
3.52136
3.47697
3.42877
3.37804
3.32561
3.27214
3.21698
3.16201
3.99021
3.93356
3.886
3.83585
3.78059
3.73912
3.70096
3.6806
3.66508
3.65004
3.6297
3.60405
3.57286
3.53599
3.49468
3.4484
3.39842
3.34584
3.29191
3.23601
3.18056
4.0043
3.94264
3.89155
3.83972
3.78529
3.74179
3.70081
3.67703
3.66208
3.64785
3.6329
3.61298
3.58337
3.54932
3.51119
3.46729
3.41843
3.36628
3.31236
3.25656
3.20163
4.02772
3.96119
3.90606
3.85006
3.79555
3.74824
3.70275
3.66783
3.65542
3.64165
3.63037
3.6148
3.59215
3.56069
3.52535
3.48387
3.43624
3.38547
3.33266
3.27818
3.22446
4.05981
3.98992
3.92886
3.86751
3.8101
3.75911
3.70751
3.66513
3.6475
3.63313
3.62448
3.61244
3.59336
3.56994
3.53754
3.49839
3.45191
3.403
3.35182
3.29955
3.24822
4.08732
4.01569
3.95063
3.88506
3.82486
3.77418
3.71768
3.67536
3.64778
3.62832
3.61816
3.60757
3.59246
3.57316
3.54719
3.51025
3.46608
3.41951
3.37008
3.31981
3.27079
4.12279
4.04991
3.98176
3.91375
3.8496
3.79289
3.73102
3.68711
3.65321
3.62532
3.61489
3.60396
3.59018
3.57293
3.54993
3.51845
3.47808
3.43487
3.388
3.3397
3.2927
4.14831
4.07728
4.0083
3.93834
3.87206
3.81178
3.74604
3.69611
3.65546
3.62637
3.61184
3.60084
3.58705
3.57131
3.54975
3.52263
3.48869
3.4489
3.40517
3.359
3.31305
4.16658
4.10416
4.03797
3.96948
3.90309
3.84018
3.77351
3.7169
3.66754
3.63138
3.60978
3.59434
3.58204
3.56855
3.55024
3.52577
3.49748
3.46165
3.42107
3.37678
3.33145
4.20403
4.13179
4.06075
3.99286
3.92782
3.86483
3.79857
3.73763
3.68337
3.6379
3.60748
3.58647
3.57608
3.56315
3.54741
3.52666
3.50191
3.47201
3.43409
3.39118
3.34654
4.18513
4.14769
4.08275
4.01769
3.95425
3.89112
3.826
3.76407
3.70525
3.65418
3.61654
3.58809
3.56877
3.55611
3.54331
3.52576
3.5038
3.47744
3.44304
3.40134
3.35806
4.2184
4.18545
4.11265
4.04569
3.98258
3.91874
3.85313
3.79014
3.72744
3.67059
3.62548
3.58861
3.56222
3.55062
3.53955
3.52379
3.50456
3.47978
3.44812
3.41031
3.36873
4.13866
4.16907
4.13036
4.06973
4.00887
3.94669
3.88256
3.81949
3.75432
3.69171
3.6401
3.59561
3.56685
3.55186
3.53255
3.51849
3.50301
3.48124
3.45242
3.41781
3.37984
4.00655
4.19809
4.161
4.09818
4.0365
3.97432
3.91126
3.84899
3.78402
3.71806
3.66086
3.60701
3.57402
3.55066
3.52872
3.51368
3.49933
3.4803
3.45531
3.42495
3.39054
3.57538
4.16094
4.15701
4.11343
4.05709
3.99805
3.93708
3.87636
3.81357
3.74825
3.68704
3.62675
3.58584
3.55472
3.53173
3.51521
3.49899
3.47701
3.45504
3.42968
3.39755
2.7471
4.01547
4.17204
4.13853
4.08041
4.02101
3.96244
3.90281
3.84123
3.77813
3.71634
3.65379
3.60531
3.56608
3.53745
3.51708
3.49545
3.4718
3.45272
3.43246
3.4036
1.90574
3.67766
4.171
4.15592
4.09912
4.03755
3.98138
3.92423
3.86455
3.80455
3.74434
3.68394
3.62973
3.58406
3.54718
3.52016
3.49624
3.47263
3.45317
3.43397
3.40727
1.4752
2.92022
3.9878
4.13954
4.11338
4.05713
4.00216
3.94713
3.88926
3.83084
3.77139
3.71303
3.65732
3.6076
3.56416
3.53132
3.5003
3.47306
3.45148
3.43298
3.40891
1.40371
2.04694
3.75289
4.15997
4.13924
4.07919
4.01912
3.96423
3.90894
3.85243
3.79474
3.73914
3.68462
3.63364
3.58457
3.54536
3.50881
3.47738
3.45345
3.43603
3.41303
1.40009
1.51995
3.0734
3.99491
4.11287
4.08463
4.03176
3.97867
3.92787
3.87504
3.81984
3.76532
3.71167
3.65982
3.60829
3.56352
3.52374
3.48725
3.45778
3.43835
3.41505
1.40001
1.40726
2.18293
3.81158
4.14012
4.11414
4.05445
3.9944
3.94294
3.89233
3.84054
3.78827
3.73595
3.6826
3.63196
3.58496
3.54123
3.49916
3.46502
3.443
3.41963
1.40001
1.4002
1.57281
3.19262
4.00308
4.09
4.06116
4.00792
3.95538
3.90633
3.859
3.81073
3.76062
3.70581
3.65473
3.60693
3.56187
3.51614
3.47881
3.45004
3.4239
1.40001
1.40001
1.41239
2.2988
3.84547
4.11984
4.09374
4.03372
3.97424
3.9218
3.87458
3.82875
3.78011
3.72553
3.67538
3.62812
3.58338
3.53573
3.49446
3.46003
3.43045
1.40001
1.40001
1.40037
1.62611
3.27796
4.0056
4.07346
4.0428
3.99092
3.93761
3.88782
3.84239
3.7963
3.74518
3.69639
3.64958
3.60412
3.55695
3.51349
3.47314
3.43886
1.40001
1.40001
1.40001
1.4189
2.39301
3.8603
4.10321
4.07771
4.01947
3.95966
3.9047
3.856
3.80917
3.7616
3.71503
3.66918
3.62312
3.57771
3.53398
3.48827
3.44819
1.40001
1.40001
1.40001
1.40063
1.67574
3.33559
4.01146
4.06199
4.03116
3.9775
3.92211
3.8706
3.82071
3.77459
3.73155
3.68808
3.64203
3.59705
3.55337
3.50652
3.46041
1.40001
1.40001
1.40001
1.40001
1.42618
2.46387
3.86858
4.09005
4.06572
4.00665
3.9461
3.89011
3.83519
3.78825
3.74728
3.70467
3.65867
3.6148
3.57181
3.52438
3.47401
1.40001
1.40001
1.40001
1.40095
1.717
3.37537
4.01639
4.05072
4.01856
3.96465
3.90941
3.85256
3.80237
3.75958
3.71857
3.67467
3.63222
3.58924
3.54176
3.49018
1.40001
1.40001
1.40001
1.40002
1.43336
2.51733
3.87295
4.07631
4.05109
3.99303
3.93322
3.87432
3.81944
3.77337
3.73229
3.68929
3.64804
3.60569
3.55908
3.50758
1.40001
1.40001
1.40001
1.40001
1.40132
1.74991
3.40204
4.01521
4.0359
4.00425
3.95051
3.89445
3.83872
3.7876
3.74211
3.70125
3.66321
3.62272
3.57774
3.52736
1.40001
1.40001
1.40001
1.40001
1.40003
1.43944
2.55155
3.86681
4.05779
4.03513
3.97804
3.91835
3.86108
3.80481
3.75346
3.71427
3.67823
3.63979
3.59731
3.54922
1.40001
1.40001
1.40001
1.40001
1.40001
1.40163
1.76831
3.40153
4.01377
4.02384
3.99039
3.93547
3.88063
3.82282
3.76592
3.72466
3.69051
3.65606
3.61753
3.57194
1.40001
1.40001
1.40001
1.40001
1.40001
1.40004
1.44264
2.55635
3.84717
4.04682
4.01871
3.96276
3.90536
3.84525
3.78252
3.73896
3.70623
3.67217
3.63641
3.5934
1.40001
1.40001
1.40001
1.40001
1.40001
1.40001
1.40181
1.77021
3.37012
4.01041
4.02019
3.98368
3.92708
3.86672
3.80164
3.75389
3.71927
3.68772
3.65424
3.61245
1.40001
1.40001
1.40001
1.40001
1.40001
1.40001
1.40004
1.44274
2.53566
3.82217
4.04212
4.01536
3.95763
3.89209
3.82452
3.77265
3.73617
3.70422
3.6711
3.6299
1.40001
1.40001
1.40001
1.40001
1.40001
1.40001
1.40001
1.40184
1.75973
3.32667
4.00692
4.01656
3.98044
3.91606
3.84694
3.79093
3.75181
3.72051
3.68784
3.64651
1.40001
1.40001
1.40001
1.40001
1.40001
1.40001
1.40001
1.40004
1.44111
2.49423
3.80773
4.03767
4.01441
3.95241
3.87503
3.81206
3.76914
3.73738
3.70405
3.6625
1.40001
1.40001
1.40001
1.40001
1.40001
1.40001
1.40001
1.40001
1.40177
1.73859
3.27846
4.00375
4.00733
3.96706
3.89512
3.82962
3.78434
3.75251
3.7193
3.67778
1.40001
1.40001
1.40001
1.40001
1.40001
1.40001
1.40001
1.40001
1.40004
1.4376
2.43276
3.79864
4.02528
3.99755
3.93004
3.85222
3.80045
3.76909
3.73546
3.69408
1.40001
1.40001
1.40001
1.40001
1.40001
1.40001
1.40001
1.40001
1.40001
1.40157
1.70568
3.23608
3.98348
3.97279
3.91818
3.86027
3.8122
3.78228
3.74995
3.71027
1.40001
1.40001
1.40001
1.40001
1.40001
1.40001
1.40001
1.40001
1.40001
1.40003
1.4329
2.37257
3.79077
3.99989
3.9512
3.88635
3.83139
3.80019
3.76767
3.72903
1.40001
1.40001
1.40001
1.40001
1.40001
1.40001
1.40001
1.40001
1.40001
1.40001
1.40137
1.67527
3.24043
3.88987
3.90835
3.88324
3.84915
3.81507
3.78229
3.74601
1.40001
1.40001
1.40001
1.40001
1.40001
1.40001
1.40001
1.40001
1.40001
1.40001
1.40003
1.4286
2.35959
3.71743
3.94213
3.91978
3.87828
3.83796
3.80239
3.76711
1.40001
1.40001
1.40001
1.40001
1.40001
1.40001
1.40001
1.40001
1.40001
1.40001
1.40001
1.40115
1.65401
3.17386
3.80846
3.91022
3.89509
3.85629
3.81933
3.78484
1.40001
1.40001
1.40001
1.40001
1.40001
1.40001
1.40001
1.40001
1.40001
1.40001
1.40001
1.40002
1.42308
2.27976
3.60506
3.94429
3.93979
3.8963
3.84932
3.8085
1.40001
1.40001
1.40001
1.40001
1.40001
1.40001
1.40001
1.40001
1.40001
1.40001
1.40001
1.40001
1.40077
1.60364
2.97226
3.85546
3.93039
3.91316
3.87231
3.82915
1.40001
1.40001
1.40001
1.40001
1.40001
1.40001
1.40001
1.40001
1.40001
1.40001
1.40001
1.40001
1.40001
1.41515
2.08443
3.53248
3.95731
3.95011
3.90796
3.8564
1.40001
1.40001
1.40001
1.40001
1.40001
1.40001
1.40001
1.40001
1.40001
1.40001
1.40001
1.40001
1.40001
1.4004
1.52314
2.7848
3.7924
3.94693
3.93583
3.88856
1.40001
1.40001
1.40001
1.40001
1.40001
1.40001
1.40001
1.40001
1.40001
1.40001
1.40001
1.40001
1.40001
1.40001
1.40697
1.92624
3.43525
3.93516
3.9517
3.92066
1.40001
1.40001
1.40001
1.40001
1.40001
1.40001
1.40001
1.40001
1.40001
1.40001
1.40001
1.40001
1.40001
1.40001
1.40017
1.48008
2.67397
3.71862
3.95111
3.95394
1.40001
1.40001
1.40001
1.40001
1.40001
1.40001
1.40001
1.40001
1.40001
1.40001
1.40001
1.40001
1.40001
1.40001
1.40001
1.40447
1.8549
3.30803
3.90433
3.95418
1.40001
1.40001
1.40001
1.40001
1.40001
1.40001
1.40001
1.40001
1.40001
1.40001
1.40001
1.40001
1.40001
1.40001
1.40001
1.40012
1.46232
2.50547
3.75755
3.94322
1.40001
1.40001
1.40001
1.40001
1.40001
1.40001
1.40001
1.40001
1.40001
1.40001
1.40001
1.40001
1.40001
1.40001
1.40001
1.40001
1.40306
1.74272
3.20802
3.7758
1.40001
1.40001
1.40001
1.40001
1.40001
1.40001
1.40001
1.40001
1.40001
1.40001
1.40001
1.40001
1.40001
1.40001
1.40001
1.40001
1.40007
1.43772
2.30387
3.57289
1.40001
1.40001
1.40001
1.40001
1.40001
1.40001
1.40001
1.40001
1.40001
1.40001
1.40001
1.40001
1.40001
1.40001
1.40001
1.40001
1.40001
1.40136
1.62711
2.88702
1.40001
1.40001
1.40001
1.40001
1.40001
1.40001
1.40001
1.40001
1.40001
1.40001
1.40001
1.40001
1.40001
1.40001
1.40001
1.40001
1.40001
1.40002
1.42008
2.00829
1.40001
1.40001
1.40001
1.40001
1.40001
1.40001
1.40001
1.40001
1.40001
1.40001
1.40001
1.40001
1.40001
1.40001
1.40001
1.40001
1.40001
1.40001
1.40063
1.51932
1.40001
1.40001
1.40001
1.40001
1.40001
1.40001
1.40001
1.40001
1.40001
1.40001
1.40001
1.40001
1.40001
1.40001
1.40001
1.40001
1.40001
1.40001
1.40001
1.41029
1.00072
0.999003
0.997266
0.994353
0.990307
0.984291
0.983464
0.98606
0.990389
0.995839
1.00308
1.01013
1.01171
1.01168
1.01128
1.00934
1.00471
0.998774
0.992646
0.984518
0.979335
0.978218
0.978098
0.97922
0.980761
0.981051
0.981145
0.980365
0.97674
0.970645
0.968617
0.968775
0.970074
0.975364
0.991727
1.02299
1.06631
1.08043
1.08101
1.077
1.06867
1.06592
2.98896
2.96402
2.94237
2.91924
2.89618
2.87724
2.85764
2.83708
2.81727
2.79923
2.77845
2.75894
2.7395
2.71557
2.69214
2.66405
2.6444
2.64288
2.66467
2.7542
2.84365
2.85266
2.84596
2.8253
2.78939
2.74707
2.71101
2.67645
2.64228
2.60662
2.57096
2.54059
2.50866
2.47793
2.45006
2.41984
2.39602
2.3725
2.34571
2.32252
2.29732
2.27429
2.25498
2.23112
2.2065
2.18445
2.15885
2.13722
2.11542
2.09204
2.07181
2.05023
2.02936
2.01134
1.98999
1.96838
1.9504
1.92878
1.90976
1.89271
1.87327
1.8548
1.83915
1.81957
1.79909
1.77773
1.75652
1.74122
1.72811
1.71464
1.70107
1.68501
1.66807
1.65454
1.63894
1.62092
1.60779
1.59555
1.5828
1.57073
1.55764
1.54156
1.52335
1.50694
1.49486
1.48796
1.48386
1.47949
1.47235
1.46299
1.45229
1.44047
1.42372
1.39953
1.37839
1.37252
1.36884
1.36531
1.36107
1.35601
1.3505
1.34352
1.33213
1.31254
1.29649
1.29282
1.29012
1.28664
1.28273
1.27669
1.26754
1.254
1.23646
1.22843
1.22581
1.22273
1.21829
1.21325
1.20737
1.20037
1.19335
1.18438
1.17107
1.1509
1.13524
1.13158
1.12854
1.12512
1.12133
1.11732
1.11336
1.10863
1.10233
1.09263
1.07683
1.05705
1.04486
1.04094
1.03971
1.04043
1.04289
1.04717
1.04908
1.05182
1.06223
1.08312
1.10279
1.11699
1.12899
1.13752
1.13782
1.13445
1.12797
1.12489
1.12303
1.1197
1.11536
1.11104
1.1069
1.10261
1.09671
1.09074
1.0877
1.0858
1.08419
1.08269
1.08084
1.07868
1.07543
1.07009
1.06152
1.05464
1.05092
1.04762
1.04387
1.03976
1.03546
1.0313
1.02762
1.02331
1.01836
1.01329
1.00928
1.00754
1.00695
1.00714
1.00761
1.00613
1.00423
1.00261
0.999961
0.995611
0.988708
0.985353
0.986896
0.990477
0.995156
1.00157
1.00972
1.01403
1.01448
1.01438
1.01345
1.01
1.00353
0.996674
0.989856
0.981962
0.978771
0.978258
0.978316
0.979411
0.980905
0.980954
0.980522
0.979338
0.975894
0.970967
0.969421
0.969321
0.970293
0.973281
0.98271
1.00381
1.04334
1.07731
1.08131
1.07818
1.07384
1.07279
3.01013
2.98495
2.96183
2.93879
2.91683
2.89731
2.87471
2.85569
2.83746
2.81975
2.79772
2.77822
2.76304
2.74153
2.7197
2.68897
2.67207
2.67161
2.68797
2.76549
2.86312
2.87783
2.87167
2.85291
2.81905
2.77904
2.74157
2.70624
2.67152
2.63537
2.60366
2.5713
2.5385
2.50893
2.47677
2.45021
2.4257
2.39697
2.3715
2.34456
2.3173
2.29684
2.27266
2.2471
2.22473
2.19882
2.17606
2.15377
2.12941
2.10823
2.08653
2.06425
2.04678
2.02631
2.00436
1.98603
1.96421
1.94426
1.92754
1.90798
1.88896
1.87309
1.85389
1.83383
1.81287
1.79124
1.77497
1.76212
1.74753
1.73359
1.71818
1.7007
1.68524
1.67239
1.65768
1.64347
1.63063
1.6174
1.60311
1.58833
1.57037
1.55345
1.5385
1.52769
1.51998
1.51496
1.51091
1.50461
1.4947
1.48319
1.46908
1.45203
1.43079
1.40853
1.40129
1.39731
1.39231
1.38778
1.38292
1.37718
1.37035
1.36028
1.34188
1.32302
1.31762
1.31502
1.31148
1.30716
1.30227
1.29453
1.27982
1.26249
1.25343
1.24983
1.24634
1.24248
1.23726
1.2304
1.22286
1.21456
1.2062
1.19613
1.18097
1.16292
1.15427
1.1504
1.14649
1.14248
1.13867
1.13478
1.13092
1.12623
1.11727
1.1019
1.08499
1.07521
1.06841
1.06177
1.05756
1.05506
1.0531
1.05238
1.05076
1.04545
1.04763
1.05852
1.07682
1.09601
1.11416
1.12725
1.12863
1.12677
1.12416
1.12398
1.12367
1.121
1.11667
1.11163
1.10596
1.09827
1.09245
1.09011
1.08833
1.08702
1.08611
1.08447
1.08248
1.07979
1.07545
1.06787
1.06074
1.05707
1.05431
1.05104
1.04712
1.04267
1.03765
1.03224
1.02627
1.01996
1.01675
1.01447
1.01222
1.0106
1.01015
1.01079
1.01062
1.0089
1.00723
1.00512
1.00116
0.994286
0.987978
0.988179
0.990985
0.99504
1.00051
1.00869
1.01592
1.01743
1.01749
1.01702
1.01489
1.0096
1.00156
0.994675
0.98749
0.980612
0.978711
0.978559
0.978864
0.979952
0.980674
0.980607
0.979847
0.977992
0.974406
0.97149
0.970286
0.969885
0.970558
0.972534
0.977281
0.990575
1.01887
1.06227
1.08092
1.08157
1.08116
1.08283
3.03145
3.0065
2.98402
2.9607
2.93596
2.91546
2.89372
2.87496
2.85547
2.83657
2.81791
2.7995
2.78465
2.76364
2.74484
2.71579
2.69727
2.69768
2.71094
2.77589
2.87922
2.90247
2.89756
2.87931
2.84793
2.81117
2.77314
2.73638
2.69979
2.66764
2.63611
2.6027
2.57189
2.53855
2.50943
2.48438
2.45464
2.42676
2.39921
2.36857
2.34526
2.32026
2.29313
2.26973
2.24313
2.21924
2.1968
2.17142
2.14895
2.12679
2.10281
2.08499
2.06507
2.04296
2.02453
2.00296
1.98109
1.96486
1.94549
1.92556
1.90923
1.88992
1.8703
1.85011
1.82847
1.8112
1.79829
1.78304
1.76867
1.75234
1.73498
1.72003
1.70586
1.69338
1.68046
1.66656
1.65231
1.63731
1.62076
1.6013
1.58268
1.57133
1.56227
1.55456
1.54814
1.54299
1.53709
1.52792
1.51525
1.49743
1.47945
1.46156
1.44171
1.42979
1.42557
1.42086
1.41536
1.40982
1.40398
1.39714
1.38769
1.37111
1.35132
1.344
1.34077
1.337
1.33291
1.32771
1.32059
1.30767
1.28778
1.27697
1.27397
1.27083
1.26669
1.26151
1.25477
1.24576
1.23669
1.2282
1.21841
1.20581
1.18966
1.17826
1.17343
1.16933
1.16479
1.16031
1.1564
1.15279
1.14873
1.14206
1.12589
1.10789
1.09919
1.09409
1.08924
1.08297
1.07667
1.07156
1.06633
1.06082
1.05253
1.04413
1.04534
1.05181
1.06322
1.07796
1.09601
1.11224
1.11922
1.12008
1.12122
1.12346
1.12343
1.12097
1.1166
1.11021
1.10103
1.09519
1.09269
1.0907
1.08913
1.08839
1.08745
1.0857
1.08338
1.07968
1.07296
1.06596
1.06222
1.05991
1.05749
1.05438
1.0504
1.04541
1.03903
1.03148
1.02391
1.02053
1.019
1.01784
1.01582
1.014
1.01357
1.0141
1.01318
1.01137
1.00943
1.00625
1.00013
0.992229
0.990201
0.99164
0.995308
1.0002
1.0073
1.01686
1.02039
1.02085
1.02071
1.01932
1.01547
1.00812
0.99989
0.993339
0.985891
0.980333
0.979302
0.979251
0.979878
0.980785
0.980562
0.980069
0.978992
0.976046
0.972853
0.972177
0.971376
0.970519
0.970804
0.972326
0.974586
0.982112
1.00151
1.03724
1.07234
1.08557
1.09015
1.09369
3.05341
3.02865
3.00489
2.98181
2.95777
2.93656
2.91349
2.89404
2.8757
2.85637
2.83923
2.82031
2.80726
2.78849
2.76975
2.74264
2.72115
2.7216
2.73216
2.78496
2.88914
2.92365
2.92138
2.90519
2.87609
2.84137
2.8047
2.76646
2.73147
2.70022
2.66735
2.63642
2.60333
2.57167
2.54599
2.51624
2.4865
2.45844
2.42609
2.39981
2.37374
2.34492
2.31997
2.29235
2.26669
2.24436
2.21831
2.19423
2.17188
2.14586
2.12687
2.10741
2.08452
2.06549
2.04576
2.02151
2.004
1.98572
1.96521
1.94791
1.92774
1.90816
1.88946
1.86816
1.84987
1.83685
1.82121
1.80595
1.78895
1.77123
1.75601
1.74211
1.73007
1.71758
1.7035
1.68825
1.67261
1.65534
1.6346
1.61314
1.60286
1.59725
1.59087
1.58378
1.57719
1.57054
1.56094
1.54651
1.52575
1.50571
1.48967
1.47483
1.46217
1.45442
1.449
1.44379
1.43799
1.43157
1.42432
1.41483
1.39913
1.3798
1.37144
1.36814
1.36399
1.35943
1.35461
1.34802
1.33522
1.3142
1.30057
1.29721
1.29453
1.29096
1.28619
1.27938
1.27002
1.25911
1.24977
1.24148
1.23007
1.21372
1.20119
1.19592
1.19179
1.18749
1.18309
1.17879
1.1749
1.17092
1.1644
1.14894
1.12891
1.12057
1.11728
1.11229
1.10707
1.10216
1.09587
1.08912
1.08103
1.06967
1.05485
1.04745
1.04859
1.05368
1.06313
1.07466
1.08569
1.09777
1.10783
1.11438
1.11926
1.12215
1.12198
1.11976
1.11407
1.10426
1.09774
1.09552
1.09374
1.09193
1.09055
1.08964
1.08837
1.08648
1.08316
1.07672
1.07014
1.06691
1.06467
1.06263
1.06042
1.0575
1.05335
1.04742
1.03927
1.03003
1.02554
1.02394
1.02285
1.02204
1.01976
1.01775
1.01714
1.01693
1.01547
1.01347
1.01056
1.00546
0.997337
0.993254
0.99343
0.995814
1.00054
1.00647
1.01538
1.02269
1.02411
1.02423
1.02374
1.02113
1.01527
1.00671
0.999076
0.992504
0.984919
0.981194
0.980583
0.980591
0.981146
0.981135
0.980631
0.979718
0.977359
0.97363
0.972217
0.971881
0.972142
0.971415
0.971317
0.972364
0.973618
0.977479
0.990074
1.01673
1.05508
1.08328
1.09646
1.09999
3.07328
3.04927
3.02536
3.00242
2.97832
2.95817
2.93641
2.91686
2.89857
2.87899
2.86394
2.8465
2.83267
2.81418
2.79442
2.7694
2.74416
2.74389
2.751
2.7932
2.89434
2.94058
2.94074
2.92918
2.90348
2.8699
2.83333
2.79712
2.76486
2.73216
2.70058
2.66848
2.63526
2.60845
2.57922
2.54831
2.51988
2.48708
2.45851
2.43157
2.40134
2.37477
2.34667
2.31864
2.29611
2.26993
2.24421
2.2215
2.19406
2.17269
2.15316
2.12997
2.10948
2.08898
2.06757
2.0462
2.02673
2.00724
1.98965
1.96864
1.94667
1.9301
1.91027
1.89082
1.87721
1.86135
1.84555
1.82836
1.8092
1.79385
1.77939
1.76775
1.75584
1.74084
1.72461
1.70746
1.69034
1.67098
1.64914
1.63563
1.63104
1.62683
1.62058
1.61314
1.60544
1.5956
1.58048
1.55709
1.53282
1.5165
1.50546
1.4957
1.48656
1.4784
1.47215
1.46623
1.45974
1.45229
1.44261
1.4271
1.40788
1.39898
1.39578
1.39185
1.38721
1.38223
1.37586
1.36322
1.34102
1.32481
1.32085
1.31797
1.31457
1.31029
1.30417
1.29485
1.28277
1.27217
1.26377
1.2545
1.23952
1.22313
1.21712
1.21359
1.20926
1.20516
1.20155
1.19761
1.19331
1.18726
1.17284
1.15046
1.1395
1.1373
1.1338
1.12888
1.12363
1.11952
1.11433
1.10643
1.09511
1.07681
1.05925
1.05635
1.05706
1.06035
1.06698
1.07556
1.08435
1.0925
1.10105
1.1104
1.11697
1.11867
1.11843
1.11565
1.1078
1.10087
1.09835
1.09678
1.0959
1.09444
1.09257
1.09105
1.08939
1.08631
1.07978
1.07332
1.07083
1.06907
1.06714
1.06515
1.06304
1.0601
1.05557
1.04843
1.0382
1.03162
1.02973
1.02848
1.02769
1.02649
1.02376
1.02169
1.0207
1.01942
1.0176
1.01479
1.01011
1.00256
0.997064
0.996262
0.997266
1.00098
1.00695
1.01376
1.02263
1.0269
1.02747
1.02743
1.02625
1.02208
1.01469
1.00664
0.999639
0.992629
0.985806
0.983264
0.982653
0.982611
0.982406
0.98186
0.98081
0.978391
0.974545
0.972646
0.972143
0.972022
0.973121
0.972879
0.972183
0.972579
0.973491
0.975349
0.982567
1.00158
1.03462
1.07342
1.09744
1.10335
3.09106
3.06784
3.04391
3.02138
2.9992
2.98009
2.95962
2.94081
2.92413
2.90682
2.89181
2.87378
2.86031
2.84291
2.8213
2.79771
2.76879
2.76578
2.76898
2.8006
2.89485
2.95436
2.95651
2.9493
2.92884
2.89714
2.86091
2.82814
2.79635
2.7647
2.73335
2.69941
2.67082
2.64224
2.61074
2.58179
2.54911
2.51903
2.49185
2.46084
2.4326
2.40437
2.37408
2.35081
2.325
2.29793
2.27482
2.2469
2.22264
2.20235
2.1781
2.15665
2.13548
2.11237
2.09414
2.0721
2.04929
2.03256
2.01442
1.98767
1.96966
1.95338
1.93409
1.91925
1.90301
1.88644
1.86983
1.84966
1.83323
1.81843
1.80593
1.79456
1.77932
1.76175
1.74417
1.72467
1.70583
1.68823
1.67304
1.66625
1.66191
1.65689
1.65003
1.64093
1.62936
1.6131
1.58885
1.56359
1.54572
1.53594
1.52827
1.5201
1.51035
1.50133
1.49438
1.48769
1.48025
1.47072
1.45575
1.43651
1.42684
1.42376
1.42009
1.41528
1.41011
1.40354
1.39031
1.36755
1.34963
1.34513
1.34229
1.33854
1.3342
1.32854
1.31963
1.30696
1.29503
1.28663
1.2789
1.26702
1.24831
1.23762
1.23391
1.23031
1.22646
1.22305
1.21986
1.21581
1.20988
1.19684
1.17436
1.15884
1.15635
1.154
1.14992
1.14489
1.13977
1.13549
1.13039
1.12188
1.10683
1.08359
1.07092
1.07
1.07039
1.07278
1.076
1.07991
1.08547
1.09185
1.09935
1.10808
1.11231
1.11281
1.11245
1.10863
1.10314
1.1008
1.09935
1.09891
1.0991
1.09753
1.09548
1.09317
1.08944
1.08301
1.0764
1.07412
1.0728
1.07137
1.06958
1.06764
1.0654
1.06219
1.05699
1.04833
1.03897
1.03588
1.03461
1.03345
1.03278
1.03099
1.02788
1.02566
1.02391
1.02205
1.01931
1.01474
1.00736
1.00121
0.999657
0.999998
1.00197
1.00727
1.01411
1.02097
1.02807
1.0305
1.03066
1.03026
1.02755
1.02199
1.01493
1.00834
1.00139
0.994419
0.988936
0.986477
0.985581
0.984998
0.984245
0.982617
0.97978
0.975889
0.973628
0.972919
0.972583
0.972815
0.974537
0.974834
0.973744
0.97351
0.973893
0.974835
0.978062
0.990366
1.01557
1.05442
1.09202
1.10498
3.10722
3.08441
3.06088
3.04029
3.01992
3.001
2.98286
2.96644
2.95131
2.93453
2.92135
2.90474
2.88938
2.87167
2.8489
2.82571
2.79438
2.78622
2.78737
2.81029
2.89413
2.96599
2.97239
2.96674
2.95036
2.92153
2.88916
2.85812
2.82689
2.79654
2.76361
2.73344
2.70508
2.6734
2.64359
2.61124
2.5797
2.55265
2.52177
2.49222
2.46431
2.43223
2.40733
2.38197
2.35384
2.32992
2.30239
2.27552
2.25414
2.22908
2.20568
2.18453
2.15951
2.14062
2.12041
2.09809
2.07513
2.05771
2.03765
2.01081
1.99414
1.97836
1.96299
1.94612
1.92729
1.91178
1.89242
1.8742
1.85937
1.84499
1.83349
1.81812
1.79957
1.78109
1.76178
1.74069
1.7258
1.7143
1.70493
1.69854
1.69266
1.68584
1.67648
1.66406
1.64697
1.6213
1.59468
1.57695
1.56822
1.56121
1.55377
1.54431
1.53305
1.52352
1.51588
1.50822
1.49883
1.48454
1.46561
1.45516
1.45207
1.44894
1.44399
1.43835
1.43117
1.41694
1.39389
1.37526
1.37011
1.36698
1.3632
1.35887
1.35328
1.34456
1.33135
1.31834
1.30996
1.30303
1.2937
1.27748
1.26066
1.25435
1.25098
1.24753
1.24424
1.24111
1.23744
1.23202
1.21988
1.198
1.17967
1.17599
1.17374
1.17046
1.16648
1.16137
1.15525
1.15
1.14342
1.13233
1.11444
1.09405
1.087
1.08527
1.0851
1.08619
1.08692
1.08742
1.08957
1.09429
1.10122
1.10619
1.10748
1.10793
1.1067
1.10344
1.10188
1.10086
1.10075
1.10291
1.10297
1.10118
1.09885
1.09481
1.08765
1.07998
1.07726
1.07606
1.07522
1.07433
1.07254
1.07047
1.06792
1.06426
1.05797
1.04791
1.04189
1.04054
1.03952
1.03884
1.03755
1.03515
1.03223
1.0296
1.02721
1.02441
1.01991
1.01253
1.00538
1.00322
1.00326
1.00431
1.00762
1.01467
1.02115
1.02731
1.03237
1.03368
1.03363
1.03196
1.02765
1.02164
1.01647
1.01094
1.00393
0.997758
0.993324
0.99076
0.989308
0.987994
0.98579
0.982157
0.977685
0.975244
0.974333
0.973888
0.973717
0.97445
0.976697
0.9774
0.97651
0.975219
0.974927
0.975195
0.9763
0.982505
1.00014
1.03094
1.07584
1.10403
3.12416
3.10158
3.07767
3.05763
3.03955
3.02223
3.00623
2.99075
2.97749
2.96221
2.9491
2.93395
2.91774
2.9002
2.87675
2.85322
2.82045
2.80729
2.80611
2.82191
2.89174
2.97477
2.98975
2.98493
2.97029
2.94499
2.91686
2.88681
2.85689
2.82548
2.79516
2.76729
2.73624
2.70563
2.67369
2.64063
2.6134
2.58322
2.55251
2.52486
2.49243
2.46546
2.44023
2.41129
2.38605
2.35913
2.33051
2.30775
2.28207
2.25662
2.23529
2.2089
2.18857
2.16941
2.14602
2.12593
2.10175
2.08236
2.06268
2.03738
2.01961
2.00653
1.99183
1.97043
1.95257
1.93586
1.91673
1.90144
1.8855
1.87289
1.85773
1.83817
1.81884
1.7995
1.77832
1.76372
1.75436
1.74582
1.73772
1.72949
1.7215
1.71169
1.69795
1.67986
1.65508
1.6269
1.60845
1.60146
1.59509
1.58769
1.57839
1.56664
1.55464
1.54503
1.53671
1.52744
1.51409
1.49575
1.48424
1.4808
1.47803
1.47337
1.46738
1.45929
1.44353
1.41992
1.40138
1.39632
1.39332
1.38894
1.38424
1.37899
1.37044
1.35608
1.34213
1.33362
1.32751
1.32012
1.30614
1.28748
1.27666
1.27252
1.26921
1.26568
1.26225
1.25852
1.25339
1.24213
1.22055
1.20018
1.19525
1.19384
1.19117
1.18752
1.1835
1.17801
1.17057
1.16315
1.15432
1.13859
1.1209
1.10965
1.10455
1.10193
1.10062
1.09951
1.09839
1.09784
1.09817
1.10096
1.1047
1.10629
1.10638
1.10396
1.10212
1.10178
1.10135
1.10148
1.10482
1.10822
1.10753
1.10558
1.10203
1.09469
1.08509
1.08103
1.07991
1.07893
1.07848
1.07789
1.07607
1.07383
1.07092
1.0664
1.05813
1.04887
1.04618
1.04514
1.04454
1.04385
1.0418
1.03927
1.03659
1.03369
1.03054
1.026
1.01863
1.01024
1.00699
1.00687
1.00736
1.00944
1.0146
1.02209
1.02735
1.03298
1.03615
1.03662
1.03581
1.03212
1.02663
1.02271
1.01924
1.01364
1.00688
1.00163
0.997811
0.995363
0.993582
0.991219
0.986694
0.981537
0.978708
0.977217
0.976526
0.976038
0.975934
0.977256
0.980003
0.98062
0.979764
0.978127
0.976222
0.975637
0.975837
0.978139
0.988676
1.00995
1.04869
1.09522
3.14201
3.11935
3.09686
3.07744
3.05939
3.04189
3.02824
3.01393
3.00094
2.98671
2.97402
2.95971
2.94304
2.9257
2.90277
2.87941
2.84573
2.82939
2.82574
2.83645
2.89174
2.98021
3.00706
3.00385
2.99078
2.96919
2.94291
2.91433
2.88401
2.85448
2.82774
2.79828
2.76769
2.73665
2.70257
2.67433
2.64516
2.61375
2.58584
2.55376
2.52475
2.49943
2.47
2.44312
2.41635
2.38626
2.36228
2.33647
2.30904
2.28683
2.26023
2.23706
2.2191
2.19558
2.1743
2.15294
2.12831
2.10942
2.08885
2.06597
2.04776
2.03553
2.01796
1.99477
1.97754
1.96053
1.94454
1.92785
1.9125
1.89779
1.87787
1.85725
1.83815
1.81762
1.80384
1.79561
1.78652
1.77785
1.76861
1.7581
1.74638
1.73159
1.7132
1.68984
1.66156
1.64136
1.63498
1.62933
1.62175
1.61228
1.60008
1.58706
1.57575
1.56615
1.55663
1.54422
1.52687
1.51447
1.51051
1.50758
1.50333
1.49722
1.48772
1.46958
1.44565
1.42774
1.42295
1.42071
1.41724
1.41242
1.40668
1.39721
1.38109
1.3663
1.35819
1.35261
1.34619
1.33482
1.31509
1.30098
1.29532
1.29198
1.28854
1.28441
1.28004
1.27444
1.26327
1.24277
1.22153
1.21434
1.21291
1.21141
1.2086
1.2048
1.20018
1.19386
1.18524
1.17432
1.15952
1.1426
1.13201
1.12732
1.12259
1.11886
1.1162
1.11368
1.1113
1.10983
1.10937
1.10979
1.11019
1.10945
1.10482
1.10096
1.10085
1.10113
1.10164
1.10504
1.11161
1.11338
1.11231
1.10994
1.10418
1.09332
1.08614
1.08448
1.08345
1.08281
1.08268
1.08185
1.08
1.07766
1.07424
1.06788
1.0578
1.0524
1.05101
1.04995
1.04945
1.04833
1.04596
1.04345
1.04098
1.03787
1.03337
1.02601
1.01636
1.01125
1.01082
1.01094
1.01219
1.01551
1.02249
1.02842
1.03334
1.03799
1.03952
1.03938
1.03615
1.03065
1.02751
1.02569
1.0221
1.01583
1.00985
1.00548
1.00227
0.999985
0.997694
0.993536
0.987349
0.982727
0.980882
0.98009
0.979524
0.979131
0.979407
0.98181
0.984639
0.98445
0.983381
0.981508
0.977803
0.975768
0.975705
0.976336
0.981437
0.995071
1.02159
1.07256
3.16313
3.14011
3.11761
3.0976
3.07907
3.06309
3.04934
3.03491
3.02007
3.00773
2.99504
2.9809
2.96375
2.94829
2.92672
2.90335
2.872
2.85094
2.84774
2.85301
2.89519
2.98465
3.02321
3.0221
3.01248
2.99407
2.96861
2.93913
2.90941
2.8844
2.8577
2.82829
2.79849
2.76495
2.73547
2.70735
2.67579
2.6472
2.61599
2.58533
2.55962
2.52993
2.50121
2.47449
2.44342
2.41787
2.39213
2.36334
2.33968
2.31362
2.28729
2.2694
2.24677
2.22372
2.20379
2.178
2.1579
2.13697
2.11666
2.0949
2.07713
2.06294
2.04252
2.01968
2.00282
1.98767
1.97238
1.95355
1.93755
1.91881
1.89697
1.87752
1.85798
1.84447
1.83794
1.82893
1.81896
1.80869
1.79602
1.78137
1.76481
1.74576
1.72417
1.69781
1.67644
1.66994
1.66466
1.65655
1.64629
1.63355
1.61922
1.60687
1.59674
1.5868
1.57505
1.55909
1.54587
1.54124
1.53798
1.53385
1.52778
1.51666
1.4952
1.47044
1.45395
1.45003
1.44885
1.44606
1.44145
1.43608
1.42563
1.4057
1.39021
1.38359
1.37864
1.37252
1.3629
1.34351
1.32564
1.31923
1.31547
1.31231
1.30843
1.30339
1.2968
1.28473
1.26401
1.2428
1.23395
1.23227
1.23135
1.22918
1.22594
1.22172
1.21587
1.20803
1.19784
1.18276
1.16344
1.15068
1.14739
1.14428
1.14002
1.13568
1.13207
1.12875
1.12579
1.12356
1.12179
1.12009
1.11727
1.10999
1.1021
1.10021
1.10083
1.10195
1.1053
1.1129
1.11837
1.11836
1.11704
1.11344
1.10464
1.09409
1.09053
1.08934
1.08837
1.08825
1.08761
1.08623
1.0843
1.08157
1.07681
1.06779
1.05968
1.05759
1.05629
1.05515
1.05437
1.05288
1.05051
1.04791
1.04531
1.04161
1.03483
1.02443
1.01659
1.01526
1.01525
1.01577
1.0179
1.0228
1.0298
1.03422
1.03924
1.04213
1.04269
1.04061
1.03484
1.03137
1.03027
1.02865
1.02443
1.01811
1.01301
1.00924
1.00653
1.00425
1.00082
0.994441
0.987418
0.984838
0.98418
0.983716
0.983322
0.983362
0.984998
0.988256
0.989555
0.988648
0.986951
0.984222
0.978773
0.976173
0.97597
0.976121
0.978121
0.986082
1.00239
1.0405
3.1865