/*--------------------------------*- C++ -*----------------------------------*\
  =========                 |
  \\      /  F ield         | OpenFOAM: The Open Source CFD Toolbox
   \\    /   O peration     | Website:  https://openfoam.org
    \\  /    A nd           | Version:  7
     \\/     M anipulation  |
\*---------------------------------------------------------------------------*/
FoamFile
{
    version     2.0;
    format      ascii;
    class       volScalarField;
    location    "1.1";
    object      p;
}
// * * * * * * * * * * * * * * * * * * * * * * * * * * * * * * * * * * * * * //

dimensions      [1 -1 -2 0 0 0 0];

internalField   nonuniform List<scalar> 
16512
(
3.26029
3.17984
3.08392
3.04454
3.03761
3.03568
3.04161
3.05404
3.0518
3.04293
3.03046
2.99806
2.92615
2.83652
2.79492
2.78611
2.78148
2.7772
2.77178
2.76467
2.75456
2.73424
2.67398
2.60365
2.5891
2.57806
2.5608
2.54894
2.53957
2.52804
2.51506
2.49608
2.46259
2.40839
2.36138
2.34477
2.33568
2.33248
2.32932
2.32421
2.32005
2.31551
2.31073
2.30384
2.29127
2.26048
2.20167
2.14188
2.11357
2.10259
2.09587
2.09211
2.09077
2.08755
2.08114
2.07441
2.06628
2.05073
2.01236
1.9676
1.94639
1.93894
1.93122
1.9198
1.90031
1.86996
1.84996
1.84671
1.8467
1.85017
1.85054
1.84432
1.83725
1.83097
1.82373
1.81297
1.7907
1.74586
1.69032
1.6678
1.66581
1.67043
1.689
1.69531
1.69182
1.68865
1.68268
1.6694
1.64004
1.58995
1.54783
1.53564
1.53488
1.54179
1.56306
1.57903
1.57857
1.57212
1.56218
1.54455
1.50886
1.45568
1.42514
1.42118
1.42069
1.43281
1.46997
1.49984
1.50105
1.49611
1.48174
1.44384
1.37093
1.32035
1.30943
1.30775
1.31298
1.33866
1.37996
1.39623
1.393
1.38686
1.37999
1.36511
1.32961
1.26838
1.23251
1.22777
1.22718
1.23164
1.25408
1.28375
1.29029
1.28775
1.28407
1.27598
1.25092
1.20453
1.17196
1.16573
1.16408
1.16779
1.18614
1.20757
1.2108
1.20683
1.19974
1.18234
1.14821
1.12419
1.12121
1.11997
1.12068
1.12905
1.13468
1.13312
1.13031
1.12593
1.11311
1.08597
1.06719
1.06431
1.06323
1.06605
1.07472
1.07636
1.07521
1.07369
1.06994
1.05896
1.0349
1.01622
1.01281
1.01119
1.01113
1.01676
1.02492
1.02574
1.02223
1.01764
1.01053
0.994068
0.972725
0.965396
0.96419
0.963703
0.96755
0.974824
0.974938
0.972954
0.969208
0.959112
0.939013
0.926899
0.92464
0.923207
0.923636
0.928686
0.932376
0.93055
0.926741
0.922244
0.915132
0.903198
0.892949
0.887871
0.885852
0.886084
0.886893
0.886639
0.885484
0.883981
0.88151
0.876174
0.866
0.856878
0.853287
0.851185
0.850642
0.852524
0.851906
0.849837
0.847811
0.844272
0.83602
0.826036
0.822619
0.82121
0.819872
0.819679
0.819346
0.816525
0.813178
0.809612
0.803764
0.794786
0.791258
0.790523
0.788651
0.786243
0.786104
0.787042
0.787509
0.78687
0.785834
0.783495
0.777221
0.769533
0.766502
0.764797
0.763138
0.761496
0.759994
0.758538
0.756663
0.753274
0.746865
0.740878
3.24522
3.14942
3.09528
3.08571
3.08193
3.08605
3.09861
3.10186
3.09311
3.08072
3.04944
2.97907
2.88457
2.83488
2.82341
2.8171
2.81584
2.81495
2.81055
2.8026
2.78791
2.74109
2.65594
2.61466
2.60818
2.5982
2.58328
2.5737
2.5651
2.55243
2.53695
2.51476
2.46727
2.40922
2.38889
2.3784
2.37124
2.36704
2.35889
2.35251
2.34742
2.34051
2.3326
2.32051
2.29715
2.24763
2.18495
2.14959
2.13491
2.12543
2.12034
2.1192
2.12078
2.11671
2.1091
2.10025
2.08658
2.0512
1.99836
1.96926
1.96099
1.95396
1.94466
1.92932
1.90549
1.88821
1.8847
1.88345
1.88211
1.87981
1.87477
1.8657
1.85576
1.84611
1.83526
1.81835
1.78389
1.73224
1.69888
1.69509
1.69668
1.71086
1.71897
1.71456
1.7105
1.70485
1.69385
1.66854
1.62248
1.5788
1.56469
1.56332
1.5669
1.58217
1.59374
1.59246
1.58721
1.57959
1.56678
1.53975
1.49221
1.45328
1.44531
1.44368
1.45162
1.48425
1.51821
1.52198
1.51774
1.50539
1.47233
1.40197
1.34236
1.32738
1.32557
1.32822
1.34797
1.38892
1.41533
1.4153
1.40922
1.40233
1.38978
1.35877
1.29773
1.25051
1.24188
1.24104
1.24386
1.26384
1.29796
1.31006
1.30794
1.30445
1.29786
1.27628
1.23073
1.18893
1.17849
1.17685
1.17848
1.19343
1.21874
1.22791
1.22522
1.21922
1.20658
1.1765
1.14169
1.13253
1.13107
1.13053
1.13655
1.14848
1.15011
1.14779
1.14411
1.13477
1.10979
1.08239
1.07511
1.07349
1.07403
1.08298
1.09113
1.09065
1.089
1.08622
1.07852
1.05726
1.03151
1.0238
1.02215
1.02118
1.0245
1.03386
1.03787
1.03548
1.03123
1.02566
1.01329
0.990704
0.975711
0.973592
0.972683
0.97441
0.983133
0.987073
0.985605
0.982772
0.9762
0.958379
0.939238
0.934394
0.932791
0.93202
0.935295
0.941969
0.943115
0.940227
0.936472
0.93049
0.917536
0.904827
0.899929
0.897058
0.895265
0.895636
0.896379
0.895916
0.894666
0.892917
0.889229
0.88054
0.868982
0.863535
0.861201
0.859606
0.860539
0.862076
0.86054
0.858077
0.855111
0.849309
0.83865
0.831567
0.829721
0.828278
0.827001
0.827382
0.826937
0.82393
0.820347
0.81589
0.807807
0.799174
0.797278
0.796848
0.79597
0.794405
0.794437
0.795297
0.795428
0.794619
0.793202
0.789154
0.780487
0.774623
0.772573
0.770905
0.769278
0.767841
0.766557
0.765074
0.762737
0.757956
0.750563
0.746531
3.21764
3.15143
3.13731
3.13166
3.13316
3.14251
3.14893
3.14161
3.1296
3.09988
3.03224
2.93259
2.87448
2.86123
2.85593
2.85513
2.85744
2.85706
2.85111
2.8393
2.80164
2.71793
2.64672
2.63311
2.62848
2.62037
2.61083
2.60303
2.59449
2.58265
2.56459
2.53172
2.46862
2.4286
2.41851
2.40988
2.40417
2.39671
2.38656
2.37856
2.37046
2.36072
2.34814
2.32839
2.29016
2.2282
2.18735
2.17344
2.16104
2.15217
2.14906
2.15034
2.15078
2.14431
2.13483
2.12128
2.09098
2.03571
1.99307
1.9841
1.97743
1.96827
1.95635
1.93923
1.92528
1.92147
1.92062
1.91819
1.91352
1.905
1.89185
1.88089
1.87028
1.8582
1.84279
1.81675
1.77401
1.73408
1.72578
1.72486
1.73228
1.74063
1.73714
1.73238
1.72656
1.71687
1.69704
1.65707
1.61149
1.59423
1.59256
1.59384
1.60346
1.61031
1.60765
1.60308
1.59715
1.58777
1.56814
1.52892
1.48533
1.47054
1.46807
1.47252
1.49971
1.53566
1.54221
1.53798
1.5276
1.49962
1.43421
1.36606
1.34604
1.34415
1.34503
1.3593
1.39693
1.43151
1.43647
1.43118
1.42439
1.4142
1.38769
1.32982
1.27119
1.25648
1.2552
1.2566
1.27355
1.31058
1.32976
1.32843
1.32502
1.31943
1.30117
1.25796
1.20829
1.19227
1.19046
1.19089
1.20232
1.22847
1.24391
1.24296
1.23776
1.2284
1.20436
1.1648
1.14445
1.14229
1.14121
1.14435
1.15867
1.16682
1.1654
1.16227
1.15545
1.13436
1.1017
1.08643
1.08413
1.08334
1.08911
1.10292
1.10635
1.10472
1.10241
1.09709
1.08047
1.05097
1.03514
1.03313
1.03194
1.03316
1.04182
1.04949
1.04874
1.04503
1.0403
1.03132
1.01075
0.988779
0.983361
0.982199
0.982458
0.989795
0.998492
0.998232
0.995992
0.991404
0.978236
0.955723
0.944338
0.942344
0.941057
0.942262
0.949233
0.95448
0.953094
0.94947
0.944747
0.934334
0.916905
0.909756
0.908745
0.906764
0.905192
0.905651
0.906229
0.905557
0.904171
0.901681
0.895079
0.882727
0.874344
0.871641
0.869618
0.868776
0.870536
0.870655
0.868675
0.865905
0.861552
0.852859
0.842222
0.838456
0.837019
0.83553
0.834709
0.835779
0.834685
0.831353
0.827425
0.821518
0.81131
0.804659
0.80354
0.802936
0.803315
0.803112
0.803065
0.803614
0.803475
0.802445
0.799801
0.792702
0.783803
0.780401
0.778642
0.776974
0.775442
0.774175
0.772958
0.7713
0.768184
0.761765
0.755045
0.752839
3.21176
3.19107
3.18472
3.18409
3.1899
3.19461
3.18855
3.1767
3.14805
3.08438
2.98325
2.91533
2.89848
2.89409
2.89834
2.90239
2.90404
2.90072
2.89056
2.85714
2.77797
2.68861
2.66106
2.65481
2.6526
2.64944
2.64407
2.63626
2.62692
2.61541
2.59104
2.53399
2.47775
2.45679
2.44599
2.43938
2.43454
2.42427
2.41182
2.40151
2.39115
2.37706
2.35752
2.32704
2.27666
2.22528
2.21082
2.20171
2.18927
2.18142
2.1798
2.18141
2.17777
2.16948
2.15678
2.1315
2.07944
2.02344
2.00617
2.00123
1.99282
1.98147
1.97005
1.9618
1.9577
1.95582
1.95396
1.94916
1.94074
1.92037
1.89993
1.89055
1.88141
1.86835
1.84793
1.81319
1.7725
1.75846
1.75552
1.75819
1.76175
1.75731
1.75287
1.74794
1.73945
1.72407
1.69231
1.64711
1.62379
1.62169
1.62181
1.62686
1.62905
1.62528
1.62091
1.61571
1.60827
1.59441
1.56341
1.52001
1.49713
1.4935
1.4955
1.51674
1.55239
1.56205
1.55756
1.54834
1.52465
1.46699
1.39291
1.36534
1.363
1.36295
1.37281
1.40553
1.4454
1.4564
1.45234
1.44579
1.43749
1.41591
1.36392
1.29572
1.27188
1.26974
1.26989
1.2835
1.32132
1.34872
1.34911
1.34563
1.34051
1.32501
1.28539
1.23001
1.20717
1.20489
1.20455
1.21302
1.2381
1.25873
1.26027
1.25574
1.24829
1.22997
1.19228
1.15971
1.15383
1.15241
1.15345
1.16622
1.18194
1.18287
1.18031
1.17517
1.15855
1.12468
1.09951
1.09509
1.0936
1.0961
1.11013
1.12163
1.12098
1.11872
1.11477
1.10278
1.0741
1.04837
1.04399
1.04275
1.0427
1.04936
1.06031
1.06215
1.05918
1.05499
1.0483
1.03118
1.00557
0.993605
0.99205
0.991557
0.99649
1.00833
1.01121
1.00935
1.00587
0.996841
0.97516
0.955775
0.951777
0.950306
0.950062
0.955147
0.963973
0.965598
0.9626
0.958229
0.95066
0.933821
0.919469
0.917414
0.917105
0.916518
0.915646
0.915951
0.916289
0.915472
0.913665
0.909024
0.897645
0.886065
0.882352
0.880319
0.878546
0.878669
0.879695
0.878564
0.876438
0.873139
0.866755
0.855466
0.847716
0.84589
0.844547
0.84319
0.843506
0.844649
0.842437
0.838718
0.834027
0.825786
0.814823
0.810924
0.810109
0.809593
0.810761
0.812293
0.812156
0.812149
0.811593
0.809889
0.804241
0.794502
0.788726
0.786546
0.784763
0.783073
0.781723
0.780579
0.779346
0.777322
0.772897
0.765168
0.760656
0.759423
3.24527
3.23867
3.23719
3.24061
3.24182
3.23527
3.22313
3.19511
3.13446
3.03518
2.95838
2.93575
2.93126
2.94063
2.95283
2.95336
2.95145
2.94252
2.91073
2.83424
2.73359
2.69149
2.68398
2.68126
2.68543
2.68659
2.68129
2.67261
2.66251
2.64591
2.59557
2.52874
2.49943
2.48461
2.47399
2.46803
2.46206
2.45121
2.43672
2.42163
2.40671
2.38761
2.36207
2.32317
2.2714
2.24769
2.24069
2.23019
2.21825
2.21127
2.20985
2.20863
2.20209
2.19108
2.17076
2.12695
2.06542
2.03165
2.02464
2.01755
2.00848
1.99948
1.99494
1.99405
1.99089
1.98736
1.9833
1.97458
1.95213
1.9225
1.90636
1.89839
1.89026
1.87693
1.85114
1.81194
1.79275
1.78815
1.78565
1.78465
1.77992
1.77327
1.76667
1.76028
1.74983
1.727
1.68582
1.65463
1.65062
1.64942
1.65089
1.65045
1.64589
1.64096
1.63576
1.62921
1.61839
1.59398
1.55498
1.52551
1.52
1.52021
1.53573
1.56843
1.5813
1.57691
1.56781
1.54734
1.49845
1.42297
1.38624
1.3823
1.38208
1.38785
1.41493
1.45775
1.4757
1.473
1.46685
1.45966
1.44283
1.39855
1.32504
1.28874
1.28467
1.2839
1.29412
1.33047
1.36595
1.36981
1.36624
1.36131
1.34782
1.31204
1.25377
1.22326
1.21965
1.2191
1.22525
1.24846
1.27295
1.27706
1.27324
1.26697
1.25344
1.22103
1.17967
1.16564
1.16405
1.16382
1.17333
1.19399
1.20029
1.1981
1.1939
1.18155
1.1504
1.11626
1.10647
1.10456
1.10488
1.11527
1.1335
1.13753
1.13545
1.13208
1.1237
1.09911
1.06586
1.05481
1.05359
1.05297
1.05715
1.06977
1.07545
1.07356
1.06991
1.06461
1.05106
1.02495
1.00526
1.00217
1.00125
1.00391
1.01614
1.02403
1.02293
1.02002
1.01377
0.995992
0.971039
0.961266
0.959609
0.958648
0.961255
0.970937
0.977122
0.975686
0.971717
0.965793
0.952553
0.932969
0.926187
0.925282
0.924943
0.926557
0.926727
0.926608
0.926532
0.925393
0.922196
0.913019
0.899179
0.893133
0.891104
0.889203
0.888079
0.888687
0.887873
0.886167
0.883826
0.879506
0.870316
0.858916
0.854987
0.853757
0.852478
0.851798
0.853347
0.853371
0.850111
0.845874
0.839558
0.828367
0.819333
0.817579
0.816853
0.816708
0.819557
0.821837
0.821327
0.820793
0.819491
0.815522
0.805667
0.797297
0.794771
0.792949
0.791056
0.789461
0.788286
0.787108
0.78569
0.782857
0.776598
0.769213
0.76697
0.76603
3.293
3.29033
3.29132
3.28962
3.28241
3.2694
3.24207
3.18457
3.0882
3.00501
2.97549
2.96943
2.97812
3.00515
3.00696
3.00362
2.99458
2.9627
2.88856
2.78029
2.72537
2.71443
2.7106
2.71745
2.72943
2.729
2.72169
2.71232
2.69801
2.6548
2.57888
2.53649
2.52433
2.51097
2.50244
2.49585
2.48796
2.47622
2.46008
2.43839
2.41486
2.39161
2.36279
2.3205
2.28827
2.2809
2.27081
2.25777
2.24645
2.23958
2.23638
2.23162
2.22226
2.20636
2.17289
2.11409
2.06471
2.05135
2.04383
2.03696
2.03126
2.02726
2.0261
2.02555
2.02063
2.01478
2.00662
1.98338
1.94649
1.92514
1.91533
1.90714
1.89815
1.884
1.85618
1.82695
1.81978
1.81526
1.80988
1.80231
1.79548
1.78799
1.77898
1.76942
1.75587
1.72791
1.6902
1.67955
1.67682
1.67473
1.67294
1.6687
1.66308
1.65711
1.65044
1.64077
1.62098
1.58749
1.55529
1.54708
1.54629
1.55701
1.58439
1.5996
1.59579
1.58647
1.56819
1.52753
1.45539
1.40946
1.40208
1.40226
1.40593
1.42651
1.46814
1.49391
1.49351
1.4879
1.48133
1.46807
1.43165
1.35931
1.30867
1.29993
1.29903
1.306
1.33883
1.38092
1.39022
1.38676
1.38176
1.36993
1.33765
1.27872
1.24029
1.23429
1.23392
1.23833
1.25936
1.2868
1.29368
1.29053
1.28499
1.27475
1.24843
1.20415
1.17908
1.17622
1.17533
1.18131
1.20284
1.21692
1.21586
1.21214
1.2029
1.17648
1.13702
1.11878
1.11622
1.11536
1.12143
1.141
1.1534
1.1524
1.14931
1.14311
1.12373
1.08781
1.06642
1.06432
1.06344
1.06557
1.07777
1.08849
1.08808
1.08499
1.08052
1.07003
1.04576
1.01966
1.01268
1.01153
1.0125
1.02289
1.03584
1.03654
1.03417
1.02955
1.01636
0.990164
0.971734
0.968959
0.967774
0.968476
0.976375
0.986968
0.98837
0.985205
0.980222
0.970809
0.951251
0.936281
0.934026
0.933229
0.933742
0.937389
0.937963
0.93747
0.936807
0.934601
0.928109
0.914094
0.904228
0.901808
0.899963
0.898341
0.898227
0.897629
0.895777
0.893806
0.890856
0.884481
0.872657
0.864876
0.863332
0.862256
0.861202
0.861825
0.863554
0.861663
0.857634
0.852445
0.843202
0.830382
0.825296
0.824325
0.823756
0.824973
0.829993
0.831198
0.830356
0.829126
0.826231
0.817898
0.80656
0.802546
0.801103
0.79937
0.797523
0.796189
0.795055
0.793798
0.791888
0.787633
0.779617
0.774518
0.773531
0.772674
3.3448
3.34011
3.33559
3.32792
3.31493
3.28872
3.2359
3.14476
3.05618
3.01904
3.01108
3.01667
3.04977
3.06302
3.05728
3.04641
3.01267
2.94041
2.8282
2.76204
2.74613
2.74131
2.74857
2.77022
2.77823
2.77349
2.76515
2.75196
2.71111
2.6316
2.5713
2.55948
2.54825
2.53779
2.53085
2.52267
2.51301
2.49933
2.47788
2.44732
2.41787
2.39463
2.36652
2.33197
2.32134
2.31305
2.2987
2.28269
2.27113
2.26384
2.25846
2.25048
2.2378
2.2146
2.16646
2.10612
2.08087
2.07364
2.0671
2.06299
2.06211
2.05934
2.05599
2.05229
2.04679
2.03697
2.01506
1.97588
1.94429
1.93437
1.92667
1.91778
1.90738
1.89296
1.87305
1.85474
1.84177
1.83514
1.82793
1.81773
1.80812
1.79996
1.79013
1.77709
1.7588
1.73347
1.71451
1.70471
1.69877
1.69485
1.69066
1.68556
1.67945
1.67221
1.66245
1.64517
1.61628
1.58541
1.57441
1.57296
1.58028
1.60174
1.61697
1.6141
1.60469
1.58782
1.55409
1.48894
1.43565
1.42309
1.42317
1.42555
1.44082
1.47976
1.51082
1.51335
1.50875
1.50278
1.49191
1.46195
1.39528
1.33237
1.3165
1.31544
1.3199
1.3475
1.39339
1.4102
1.40732
1.40194
1.39127
1.36246
1.30454
1.25822
1.24888
1.24856
1.25182
1.2704
1.29998
1.31021
1.30768
1.30291
1.29492
1.27379
1.23126
1.19555
1.18863
1.1875
1.19089
1.21037
1.23154
1.23298
1.22984
1.22288
1.20161
1.16107
1.13293
1.12825
1.12682
1.12973
1.14636
1.16677
1.16939
1.16667
1.16174
1.14712
1.11331
1.08134
1.07523
1.07421
1.07482
1.08473
1.10008
1.10269
1.10025
1.09643
1.08832
1.06682
1.0366
1.02359
1.02207
1.02206
1.02964
1.04574
1.05044
1.0485
1.04481
1.03567
1.01212
0.985515
0.978313
0.977054
0.976694
0.981653
0.994398
1.00041
0.998619
0.994339
0.987359
0.971138
0.950017
0.943098
0.94193
0.941474
0.944374
0.949153
0.949092
0.94813
0.94659
0.942252
0.930511
0.916506
0.912341
0.910604
0.908924
0.90822
0.907864
0.905875
0.903864
0.901566
0.897258
0.887615
0.876396
0.873286
0.872368
0.871406
0.871086
0.872834
0.873055
0.869609
0.864905
0.857681
0.844574
0.834039
0.832009
0.831217
0.831244
0.835609
0.840446
0.840156
0.838824
0.836553
0.830367
0.817718
0.810356
0.80881
0.807597
0.805974
0.804341
0.803222
0.802048
0.800575
0.797689
0.791374
0.783302
0.780852
0.780192
0.779361
3.38979
3.37943
3.36993
3.35695
3.33272
3.28635
3.20492
3.11419
3.06901
3.05833
3.06085
3.09235
3.11527
3.10986
3.09691
3.06111
2.99019
2.87564
2.80073
2.77952
2.77374
2.77961
2.80957
2.82785
2.82545
2.81914
2.80635
2.76644
2.68565
2.6095
2.58895
2.58473
2.57431
2.56658
2.55976
2.54988
2.53726
2.51849
2.48696
2.45092
2.42383
2.40493
2.38579
2.36699
2.35472
2.33997
2.32107
2.30256
2.29086
2.28333
2.27641
2.26627
2.24994
2.21657
2.15719
2.11328
2.105
2.09961
2.09509
2.09443
2.09505
2.08862
2.0826
2.0767
2.06846
2.04705
2.00589
1.96955
1.9549
1.94903
1.94147
1.93203
1.92178
1.90999
1.89756
1.88168
1.86128
1.84851
1.84036
1.83091
1.82006
1.81046
1.80037
1.78613
1.76708
1.75081
1.74026
1.72817
1.71684
1.71044
1.70572
1.70055
1.69375
1.68403
1.66818
1.64257
1.61445
1.60278
1.60066
1.60529
1.62135
1.63401
1.63175
1.62222
1.60633
1.57836
1.52284
1.46533
1.44619
1.44544
1.44718
1.4573
1.49119
1.52734
1.53287
1.52902
1.52385
1.51479
1.48966
1.43062
1.35997
1.3352
1.33338
1.33595
1.35783
1.40373
1.42923
1.42783
1.42231
1.41247
1.38681
1.33168
1.27761
1.26375
1.26309
1.26535
1.28121
1.31231
1.32634
1.32446
1.32048
1.31413
1.29747
1.25957
1.21585
1.20193
1.20059
1.20201
1.21761
1.24349
1.24989
1.24708
1.24151
1.2252
1.18785
1.15048
1.14067
1.13905
1.13991
1.15201
1.17625
1.18598
1.18408
1.17966
1.16879
1.1399
1.10052
1.08642
1.08521
1.08491
1.09179
1.10958
1.1173
1.11559
1.11223
1.10595
1.08799
1.05623
1.03564
1.03283
1.03213
1.03693
1.05342
1.06389
1.06289
1.05975
1.05329
1.03461
1.00395
0.988286
0.986523
0.985696
0.987917
0.999401
1.01099
1.0116
1.00821
1.00274
0.99099
0.968524
0.953169
0.950807
0.949888
0.950785
0.957334
0.960945
0.959962
0.958431
0.955381
0.947046
0.931266
0.922949
0.921048
0.91948
0.918493
0.918382
0.916453
0.914249
0.912258
0.909244
0.902281
0.889996
0.88356
0.882588
0.881837
0.881162
0.881964
0.883367
0.881348
0.87717
0.871382
0.860412
0.845571
0.840117
0.839047
0.838522
0.840733
0.847748
0.849618
0.848443
0.846484
0.842076
0.830782
0.819215
0.816475
0.815345
0.814461
0.812955
0.811532
0.810494
0.809299
0.807267
0.802733
0.794191
0.788418
0.787512
0.786923
0.786167
3.42367
3.40904
3.39458
3.37195
3.33192
3.2633
3.17722
3.12494
3.1115
3.11167
3.13861
3.16494
3.16013
3.1448
3.10787
3.03882
2.92407
2.84203
2.81624
2.80961
2.81264
2.84539
2.87832
2.8774
2.87195
2.85929
2.8193
2.738
2.6501
2.61936
2.6143
2.61376
2.60475
2.59765
2.58979
2.57867
2.55935
2.52659
2.48953
2.4596
2.44243
2.43202
2.42068
2.40593
2.38366
2.35942
2.33729
2.31839
2.3074
2.30011
2.29238
2.28079
2.25958
2.21339
2.15501
2.13713
2.13272
2.1284
2.12584
2.12735
2.12311
2.11514
2.10772
2.09902
2.08117
2.04015
1.9945
1.97954
1.97329
1.96721
1.96065
1.95188
1.94308
1.93439
1.92304
1.90221
1.87431
1.85928
1.8509
1.84255
1.83256
1.822
1.81194
1.80016
1.78618
1.77355
1.76111
1.74551
1.73154
1.72369
1.71848
1.71282
1.70457
1.69058
1.66781
1.64251
1.63223
1.63029
1.63352
1.64496
1.65247
1.64835
1.6383
1.62352
1.60025
1.55599
1.49878
1.4719
1.46967
1.47061
1.47706
1.50444
1.54213
1.55179
1.54849
1.54408
1.53636
1.5152
1.46413
1.39028
1.35664
1.35313
1.35412
1.37077
1.41335
1.44629
1.44809
1.44264
1.43343
1.41084
1.36019
1.29955
1.27939
1.27795
1.27928
1.29217
1.32344
1.34202
1.34088
1.33743
1.33239
1.31945
1.28692
1.23916
1.21676
1.21448
1.21474
1.22631
1.25333
1.26593
1.26395
1.25923
1.24696
1.2149
1.17131
1.15377
1.15169
1.15142
1.15927
1.18287
1.20089
1.20095
1.19728
1.18921
1.16589
1.1241
1.09914
1.09647
1.09561
1.09949
1.11674
1.13131
1.13121
1.12828
1.12312
1.10855
1.07769
1.04993
1.04391
1.04288
1.04519
1.05955
1.07588
1.07707
1.07458
1.06978
1.05613
1.02647
1.00078
0.996327
0.995288
0.995739
1.00397
1.01904
1.02384
1.02174
1.01727
1.00904
0.989549
0.966655
0.959878
0.958555
0.958198
0.962619
0.971097
0.972139
0.970614
0.968037
0.962309
0.948306
0.934614
0.931402
0.929865
0.92866
0.928909
0.927682
0.92521
0.923135
0.920825
0.916156
0.905355
0.894709
0.892751
0.892132
0.891496
0.891402
0.892723
0.892206
0.888644
0.883832
0.875618
0.86044
0.84949
0.8475
0.846634
0.847056
0.853045
0.858469
0.857906
0.856144
0.852899
0.844161
0.830132
0.824395
0.823125
0.822167
0.821803
0.820373
0.819033
0.817964
0.816565
0.813475
0.806606
0.797657
0.79494
0.794429
0.793875
0.793371
3.44758
3.42889
3.4067
3.37178
3.31536
3.23975
3.18523
3.1694
3.16761
3.18952
3.21273
3.20742
3.18983
3.15296
3.08726
2.97461
2.88707
2.85707
2.84971
2.85158
2.8827
2.92517
2.92961
2.92328
2.91
2.86941
2.78678
2.69084
2.65181
2.64449
2.64536
2.64645
2.63797
2.63045
2.62023
2.60238
2.56583
2.5253
2.50063
2.48593
2.47717
2.4708
2.4612
2.43501
2.39712
2.37128
2.35044
2.33319
2.32319
2.31657
2.30829
2.29474
2.26581
2.2088
2.1712
2.16595
2.16217
2.15905
2.15783
2.15585
2.14861
2.14024
2.1311
2.11585
2.07889
2.0264
2.00187
1.99885
1.99366
1.98875
1.98459
1.978
1.97031
1.96196
1.94608
1.90991
1.88163
1.87074
1.86314
1.85543
1.84659
1.83688
1.82797
1.82049
1.81193
1.79679
1.77434
1.75585
1.74394
1.73571
1.72928
1.72217
1.71142
1.69289
1.67072
1.66267
1.66155
1.66425
1.67177
1.67372
1.66599
1.65369
1.63889
1.61945
1.58672
1.53633
1.50082
1.49601
1.49605
1.49996
1.52068
1.55714
1.57002
1.56695
1.56313
1.55656
1.53892
1.49522
1.42245
1.38081
1.37443
1.37449
1.38666
1.42436
1.46149
1.46711
1.4625
1.45403
1.43475
1.39
1.32485
1.29633
1.29362
1.29387
1.3037
1.33397
1.3573
1.35732
1.35398
1.34973
1.33968
1.31234
1.26447
1.23365
1.22918
1.2287
1.2368
1.26237
1.28085
1.28017
1.27616
1.26699
1.24112
1.19608
1.16871
1.16497
1.16396
1.16845
1.18844
1.21298
1.21736
1.2144
1.20805
1.18995
1.15072
1.11513
1.10805
1.10698
1.10851
1.12259
1.14299
1.14671
1.1443
1.14008
1.12874
1.10082
1.06676
1.05516
1.05384
1.05447
1.06523
1.08534
1.09122
1.08925
1.08548
1.0761
1.0508
1.01777
1.00652
1.00534
1.0049
1.00962
1.02482
1.03525
1.03466
1.03121
1.02523
1.01054
0.985217
0.970055
0.967688
0.966658
0.968252
0.977324
0.9835
0.982815
0.980645
0.976433
0.965771
0.948721
0.941818
0.940174
0.938829
0.938666
0.939098
0.937034
0.934574
0.932365
0.929021
0.921192
0.908101
0.902833
0.902179
0.901657
0.901196
0.901696
0.90211
0.899529
0.895216
0.8889
0.876229
0.861136
0.856535
0.855397
0.85491
0.858209
0.866038
0.867197
0.865732
0.86324
0.857029
0.843254
0.83304
0.831073
0.829971
0.829503
0.82977
0.828134
0.826687
0.825462
0.823486
0.818741
0.809427
0.802913
0.802007
0.801569
0.801105
0.801186
3.46363
3.44092
3.40998
3.3626
3.2985
3.24664
3.22949
3.22612
3.24262
3.25826
3.25038
3.23039
3.19466
3.13409
3.02778
2.93728
2.90308
2.89488
2.89583
2.92634
2.97329
2.98083
2.97287
2.95914
2.91876
2.83482
2.72991
2.68428
2.67569
2.67475
2.68404
2.67966
2.67166
2.66233
2.64476
2.6068
2.56126
2.53852
2.53142
2.5248
2.51785
2.50959
2.4876
2.43689
2.40217
2.38276
2.36363
2.34916
2.34023
2.33399
2.3247
2.30716
2.26802
2.21392
2.19923
2.19507
2.19219
2.19104
2.18782
2.1816
2.17371
2.16444
2.15101
2.11981
2.0656
2.0286
2.02388
2.02085
2.01683
2.0144
2.0119
2.00672
1.99865
1.98558
1.95175
1.90703
1.89194
1.88539
1.87829
1.87095
1.86363
1.85659
1.85064
1.84548
1.83661
1.81063
1.7762
1.76331
1.75552
1.7469
1.73921
1.73059
1.71748
1.70095
1.69452
1.69448
1.69698
1.69969
1.6959
1.68444
1.66849
1.65336
1.63724
1.61392
1.57473
1.53399
1.52406
1.52351
1.52562
1.54031
1.57292
1.58824
1.58523
1.58145
1.57568
1.56069
1.52384
1.45525
1.40631
1.39659
1.39634
1.40499
1.43766
1.4761
1.48494
1.48117
1.47399
1.45829
1.42063
1.35476
1.31551
1.31006
1.30954
1.31637
1.34401
1.37222
1.37427
1.37077
1.36685
1.35868
1.33548
1.29035
1.25262
1.24441
1.24372
1.24908
1.27179
1.29473
1.29616
1.29252
1.28537
1.26526
1.22324
1.18664
1.17871
1.17746
1.17945
1.19496
1.22237
1.2328
1.23078
1.22565
1.21197
1.1782
1.1349
1.11991
1.11854
1.11876
1.12886
1.1519
1.16186
1.16019
1.15644
1.14789
1.1241
1.0865
1.06741
1.06517
1.06476
1.07155
1.09203
1.10466
1.10379
1.10064
1.09404
1.07454
1.03925
1.01813
1.01588
1.01504
1.01704
1.02954
1.0449
1.04724
1.04465
1.03993
1.02963
1.00653
0.983253
0.977519
0.975969
0.975797
0.981949
0.992521
0.994177
0.992692
0.989662
0.982234
0.965456
0.952887
0.950448
0.949025
0.948222
0.949473
0.948976
0.946628
0.944392
0.941457
0.935717
0.923867
0.913675
0.912037
0.911557
0.911104
0.910901
0.911367
0.909997
0.906274
0.901043
0.89151
0.875437
0.866184
0.864535
0.863646
0.864658
0.872003
0.876647
0.875557
0.873379
0.869085
0.857802
0.84353
0.839349
0.83806
0.8371
0.837781
0.838057
0.836015
0.834421
0.832811
0.829737
0.822504
0.812695
0.809768
0.809358
0.808983
0.808802
0.80962
3.47551
3.44923
3.41086
3.35648
3.30879
3.29252
3.28659
3.29548
3.30043
3.28875
3.26589
3.23193
3.17733
3.0817
2.99123
2.95313
2.94436
2.94492
2.97435
3.02354
3.03273
3.02254
3.00708
2.96785
2.88544
2.77315
2.71854
2.7076
2.70566
2.71721
2.72177
2.71262
2.70398
2.68807
2.64982
2.59987
2.5754
2.57166
2.5707
2.56373
2.55311
2.5342
2.48427
2.43212
2.41279
2.3969
2.37942
2.36803
2.35989
2.35302
2.34134
2.31652
2.2715
2.2357
2.22771
2.22364
2.22261
2.22204
2.21491
2.20735
2.1989
2.18728
2.16243
2.11032
2.06131
2.05161
2.04985
2.04543
2.04335
2.04181
2.03869
2.03273
2.02043
1.9909
1.94203
1.9127
1.90797
1.90334
1.89637
1.89006
1.88551
1.88152
1.87688
1.86998
1.84909
1.80673
1.77801
1.7708
1.76653
1.75939
1.7514
1.74243
1.73217
1.72802
1.7291
1.7312
1.72914
1.72026
1.70081
1.68196
1.66737
1.65392
1.63733
1.6101
1.57131
1.55341
1.55231
1.55325
1.5631
1.59024
1.60647
1.60371
1.59963
1.59406
1.58086
1.54981
1.488
1.43378
1.41944
1.41893
1.42476
1.45237
1.49077
1.50209
1.49889
1.49303
1.48093
1.45065
1.38915
1.33787
1.3272
1.32635
1.33047
1.35431
1.38621
1.39184
1.38813
1.38429
1.37719
1.35707
1.31565
1.27306
1.26023
1.25934
1.26285
1.28215
1.30764
1.31201
1.30856
1.3028
1.28759
1.25173
1.20855
1.19337
1.19188
1.19234
1.20317
1.22992
1.24692
1.24633
1.24211
1.23178
1.20448
1.15868
1.13354
1.13073
1.13001
1.1362
1.15829
1.17587
1.17595
1.17277
1.16616
1.14688
1.10934
1.08145
1.07677
1.07574
1.07915
1.09697
1.1164
1.11823
1.11571
1.11091
1.09666
1.06398
1.03301
1.02675
1.02584
1.02624
1.0351
1.05288
1.05951
1.05778
1.05389
1.04654
1.02801
1.00086
0.988086
0.985944
0.98486
0.987656
0.999029
1.00512
1.00418
1.00194
0.996955
0.983168
0.965745
0.960611
0.959096
0.957936
0.958672
0.960243
0.958665
0.956298
0.953937
0.949439
0.939489
0.926583
0.921972
0.921286
0.920802
0.920446
0.920453
0.920043
0.917238
0.912807
0.905672
0.891395
0.877237
0.873859
0.872709
0.872501
0.877322
0.885403
0.885733
0.883904
0.880633
0.872572
0.856964
0.848215
0.846476
0.84522
0.844965
0.846938
0.846393
0.844106
0.842198
0.839785
0.834685
0.824655
0.817978
0.817219
0.816947
0.81668
0.81701
0.817902
3.48625
3.45462
3.41259
3.37418
3.35913
3.35176
3.34908
3.3406
3.32209
3.29601
3.26437
3.21708
3.136
3.04887
3.00558
2.99662
2.99702
3.02516
3.07286
3.08261
3.0716
3.05476
3.01586
2.93682
2.82145
2.75904
2.74335
2.73925
2.74884
2.7636
2.75598
2.74536
2.73116
2.6954
2.64145
2.61248
2.60874
2.6107
2.60622
2.59528
2.57654
2.53263
2.4691
2.44118
2.43039
2.41469
2.40028
2.39084
2.38247
2.37366
2.35739
2.32248
2.28433
2.26271
2.25523
2.25174
2.25263
2.25015
2.24164
2.23325
2.22327
2.20476
2.15993
2.10159
2.081
2.08
2.07737
2.07254
2.07085
2.06758
2.06247
2.05277
2.02741
1.98066
1.93943
1.93035
1.92812
1.92371
1.91744
1.91407
1.91173
1.9078
1.90137
1.88392
1.84272
1.80077
1.78677
1.78093
1.77848
1.77641
1.77015
1.76401
1.76214
1.76367
1.76484
1.76114
1.746
1.717
1.69412
1.68092
1.67022
1.65811
1.63963
1.60813
1.58442
1.58198
1.58195
1.58822
1.60923
1.62433
1.62195
1.61781
1.61222
1.60013
1.5736
1.51973
1.46311
1.44347
1.44232
1.44566
1.46749
1.50486
1.51912
1.51623
1.51133
1.50217
1.47823
1.42532
1.36496
1.34543
1.34413
1.34626
1.36544
1.39913
1.4097
1.40621
1.40219
1.39578
1.37805
1.34022
1.29481
1.27709
1.27568
1.27785
1.29373
1.3198
1.3274
1.32429
1.31922
1.30784
1.27901
1.23383
1.20976
1.2072
1.20679
1.21374
1.23728
1.25942
1.26132
1.25772
1.2499
1.22835
1.18493
1.15003
1.14337
1.14231
1.1454
1.1638
1.18739
1.19128
1.18859
1.18341
1.16856
1.13418
1.09796
1.08828
1.08706
1.08821
1.10162
1.12531
1.13242
1.13049
1.12668
1.1168
1.08965
1.05208
1.03812
1.037
1.03663
1.0419
1.05909
1.07122
1.0708
1.06768
1.06214
1.04819
1.02128
1.00023
0.996223
0.994698
0.99526
1.0041
1.01525
1.01576
1.01393
1.01041
1.00053
0.98141
0.970852
0.968965
0.967634
0.967555
0.969987
0.970153
0.967906
0.965608
0.962379
0.954889
0.941026
0.932494
0.931017
0.930533
0.929963
0.929719
0.929553
0.927903
0.924362
0.918882
0.907631
0.890865
0.883557
0.882052
0.881248
0.883395
0.892203
0.896119
0.894762
0.892129
0.88653
0.872939
0.858656
0.855114
0.853682
0.852644
0.854024
0.856378
0.85506
0.852482
0.850009
0.84596
0.83729
0.827373
0.82499
0.824921
0.82465
0.824667
0.825195
0.825084
3.49751
3.46431
3.43922
3.42869
3.42173
3.40772
3.38275
3.34938
3.32185
3.2937
3.25451
3.19001
3.11105
3.06207
3.05221
3.05198
3.07726
3.12057
3.12806
3.1167
3.10046
3.06311
2.98761
2.87183
2.80412
2.78556
2.77919
2.78255
2.80234
2.80177
2.78933
2.77474
2.74267
2.68613
2.64944
2.64399
2.64517
2.64289
2.6336
2.61674
2.57889
2.51455
2.47021
2.46254
2.45284
2.43756
2.42637
2.41765
2.40828
2.39594
2.37014
2.32855
2.30491
2.28916
2.28175
2.27912
2.28132
2.27674
2.26789
2.25843
2.24439
2.20974
2.14913
2.11374
2.10984
2.10945
2.10556
2.10075
2.0967
2.09112
2.08242
2.06254
2.02023
1.97374
1.95596
1.95267
1.95125
1.94642
1.94259
1.94119
1.93801
1.93157
1.91647
1.87937
1.83003
1.80691
1.80063
1.79619
1.7961
1.80006
1.7979
1.79642
1.79819
1.79793
1.79213
1.77266
1.73741
1.70638
1.69402
1.68687
1.67781
1.66473
1.64129
1.61631
1.61207
1.61147
1.61534
1.62998
1.64133
1.63915
1.63528
1.6298
1.61882
1.59584
1.55017
1.49405
1.46922
1.4671
1.46838
1.48395
1.51815
1.53608
1.53383
1.52939
1.52206
1.50284
1.45896
1.39585
1.36584
1.36299
1.36372
1.37826
1.41107
1.42739
1.42475
1.42056
1.41456
1.39874
1.36444
1.31797
1.29537
1.29294
1.29381
1.30656
1.33199
1.34226
1.33958
1.33495
1.32626
1.30368
1.26145
1.22894
1.22355
1.22271
1.22655
1.24571
1.27047
1.27572
1.2728
1.26654
1.24983
1.21217
1.17009
1.15689
1.15554
1.15656
1.17002
1.19632
1.20629
1.20432
1.19993
1.18876
1.15947
1.11794
1.10051
1.09868
1.09853
1.10718
1.13137
1.14599
1.1452
1.14207
1.13534
1.11444
1.0755
1.0512
1.04861
1.04788
1.0505
1.06498
1.08161
1.08355
1.08109
1.0767
1.06661
1.04326
1.01594
1.00677
1.00495
1.00433
1.0096
1.02305
1.02776
1.02619
1.02328
1.01663
0.999488
0.98238
0.978521
0.977123
0.976371
0.978512
0.980761
0.979183
0.976784
0.974247
0.969208
0.957408
0.944026
0.940751
0.940257
0.939701
0.939118
0.938842
0.937991
0.935465
0.931227
0.923009
0.906837
0.894282
0.891715
0.890544
0.890955
0.897745
0.905694
0.905546
0.903518
0.899529
0.889402
0.872241
0.864074
0.862329
0.860983
0.860951