/*--------------------------------*- C++ -*----------------------------------*\
  =========                 |
  \\      /  F ield         | OpenFOAM: The Open Source CFD Toolbox
   \\    /   O peration     | Website:  https://openfoam.org
    \\  /    A nd           | Version:  7
     \\/     M anipulation  |
\*---------------------------------------------------------------------------*/
FoamFile
{
    version     2.0;
    format      ascii;
    class       volScalarField;
    location    "1.1";
    object      T;
}
// * * * * * * * * * * * * * * * * * * * * * * * * * * * * * * * * * * * * * //

dimensions      [0 0 0 1 0 0 0];

internalField   nonuniform List<scalar> 
16512
(
1.73889
1.72672
1.71395
1.7108
1.71186
1.71529
1.72043
1.72536
1.72594
1.72592
1.72514
1.7203
1.70768
1.69239
1.68664
1.68651
1.68735
1.68925
1.69124
1.69248
1.69287
1.69199
1.68362
1.67236
1.67126
1.67055
1.66883
1.66781
1.66662
1.66414
1.66033
1.65485
1.64742
1.63832
1.63211
1.63137
1.63189
1.63419
1.63632
1.63738
1.6383
1.63868
1.63855
1.63711
1.63333
1.62584
1.61379
1.6024
1.5981
1.59788
1.59844
1.60019
1.60212
1.60242
1.60206
1.60133
1.59962
1.59573
1.58623
1.57526
1.57062
1.5695
1.56864
1.56734
1.56448
1.55909
1.55604
1.55629
1.55774
1.56019
1.56109
1.56074
1.56006
1.55895
1.55686
1.55318
1.54608
1.53305
1.51789
1.51136
1.51059
1.51199
1.51803
1.52194
1.52386
1.52617
1.52706
1.52624
1.52057
1.5079
1.49716
1.49392
1.49361
1.49549
1.50074
1.50406
1.50331
1.50003
1.49537
1.48878
1.47741
1.46156
1.4522
1.45052
1.45033
1.454
1.46582
1.4766
1.47904
1.48037
1.47978
1.47157
1.45015
1.43402
1.42969
1.4282
1.4286
1.43381
1.44377
1.4469
1.44468
1.44144
1.43966
1.43693
1.42852
1.41169
1.40239
1.40207
1.4029
1.40579
1.4141
1.42346
1.42558
1.42501
1.4242
1.422
1.41381
1.39808
1.38672
1.38375
1.3825
1.38285
1.38706
1.39246
1.39267
1.38989
1.38632
1.38048
1.36985
1.36285
1.36252
1.36252
1.36329
1.36701
1.36896
1.36824
1.36643
1.3633
1.35678
1.34569
1.33837
1.33706
1.33663
1.33776
1.34195
1.34404
1.34525
1.34642
1.34666
1.34467
1.33635
1.32856
1.32655
1.32534
1.32474
1.32548
1.32678
1.32611
1.32285
1.31924
1.31547
1.30889
1.3008
1.29792
1.29748
1.29735
1.29902
1.30213
1.30233
1.3019
1.30081
1.29706
1.28868
1.28293
1.28122
1.27994
1.2795
1.28008
1.28039
1.27856
1.27534
1.27267
1.26994
1.26597
1.26311
1.26254
1.26306
1.26536
1.26817
1.26913
1.26913
1.2689
1.2678
1.26447
1.258
1.25144
1.2474
1.24458
1.24305
1.24271
1.24177
1.24056
1.23999
1.23899
1.23581
1.23112
1.22884
1.22746
1.22577
1.22418
1.22208
1.21847
1.21482
1.21174
1.20848
1.20502
1.20414
1.2042
1.2041
1.20438
1.20613
1.20866
1.21017
1.21042
1.21037
1.20949
1.20593
1.20078
1.19779
1.19592
1.1944
1.19338
1.19291
1.1927
1.19242
1.19142
1.18853
1.18479
1.72957
1.71627
1.71093
1.71144
1.71418
1.71917
1.72479
1.72673
1.72664
1.72608
1.72161
1.70923
1.69339
1.68628
1.68556
1.68595
1.68824
1.69138
1.6933
1.69396
1.69369
1.68784
1.67381
1.66839
1.66858
1.66815
1.66705
1.66662
1.66579
1.66331
1.6591
1.65306
1.64313
1.63386
1.63234
1.63241
1.63365
1.63598
1.6368
1.63769
1.63846
1.63839
1.6374
1.6342
1.62779
1.61665
1.60455
1.59828
1.59678
1.59689
1.59817
1.60085
1.60349
1.60355
1.60304
1.60185
1.59896
1.59042
1.57752
1.57077
1.56897
1.56781
1.56657
1.56435
1.56045
1.55812
1.55841
1.55969
1.56113
1.56201
1.56202
1.56097
1.55933
1.5573
1.55442
1.54938
1.53925
1.52477
1.51516
1.51343
1.51372
1.51759
1.52112
1.52218
1.52424
1.52541
1.52511
1.52092
1.50988
1.49925
1.49605
1.49578
1.49713
1.50143
1.50412
1.50349
1.50112
1.49758
1.49252
1.48353
1.46897
1.45691
1.45357
1.4528
1.45477
1.46418
1.47505
1.47786
1.47916
1.47914
1.47323
1.45426
1.43674
1.43201
1.43082
1.43099
1.43508
1.44487
1.45035
1.44907
1.44501
1.44191
1.43877
1.43116
1.41456
1.40185
1.40055
1.40117
1.40352
1.41149
1.42248
1.42629
1.42592
1.42541
1.42408
1.41763
1.40279
1.38916
1.38537
1.38431
1.38438
1.38795
1.39449
1.3961
1.39397
1.39011
1.38503
1.37527
1.36456
1.36228
1.36225
1.36241
1.36539
1.37001
1.37056
1.36955
1.36736
1.36251
1.35183
1.34101
1.33774
1.3369
1.33697
1.34026
1.34426
1.34517
1.34615
1.34678
1.34611
1.33998
1.33045
1.32716
1.32622
1.32546
1.32597
1.32794
1.32829
1.32608
1.32242
1.31885
1.31349
1.30488
1.2991
1.2982
1.29787
1.2986
1.30218
1.30389
1.30352
1.30278
1.30059
1.29359
1.28541
1.28267
1.28138
1.28048
1.28079
1.28187
1.2815
1.27874
1.27569
1.2726
1.26769
1.26347
1.26246
1.2624
1.26312
1.26565
1.26834
1.26921
1.26923
1.26898
1.26741
1.26258
1.25557
1.25089
1.24791
1.24561
1.24473
1.24436
1.2431
1.24196
1.24112
1.2392
1.23476
1.2311
1.22962
1.22814
1.22629
1.22464
1.22225
1.21838
1.21462
1.21128
1.20729
1.20424
1.204
1.2041
1.20442
1.20522
1.20724
1.20953
1.21065
1.21079
1.21061
1.20879
1.20382
1.19953
1.19734
1.19563
1.19432
1.19368
1.19352
1.19347
1.19321
1.19178
1.18833
1.18545
1.71904
1.71181
1.71171
1.71376
1.71845
1.72391
1.72708
1.72721
1.72684
1.72287
1.71091
1.69398
1.68564
1.68452
1.68482
1.68703
1.69103
1.69425
1.6954
1.69543
1.69124
1.67722
1.6661
1.6655
1.66619
1.66625
1.66625
1.66626
1.66561
1.66339
1.6589
1.6511
1.63851
1.63273
1.6327
1.63311
1.63496
1.63644
1.63692
1.6376
1.63775
1.63704
1.63461
1.62943
1.61986
1.60673
1.59949
1.59731
1.59638
1.59679
1.59876
1.6023
1.60438
1.60418
1.60344
1.60125
1.59436
1.58111
1.57136
1.56924
1.56776
1.56614
1.56431
1.56158
1.55988
1.56019
1.56164
1.56277
1.56331
1.56306
1.56119
1.55925
1.55726
1.5547
1.55088
1.54382
1.53191
1.52029
1.51676
1.51626
1.51784
1.52057
1.52112
1.52255
1.52382
1.52384
1.52128
1.51228
1.5013
1.4976
1.49745
1.49831
1.50164
1.50365
1.50311
1.50169
1.4993
1.49564
1.48897
1.47672
1.46318
1.45742
1.45596
1.45664
1.46363
1.47407
1.4769
1.47756
1.47781
1.47367
1.45741
1.43871
1.43361
1.43293
1.43305
1.43642
1.44564
1.45325
1.45329
1.44947
1.44536
1.44176
1.43462
1.41881
1.40262
1.39953
1.3998
1.40135
1.40851
1.42078
1.42671
1.42656
1.42616
1.42531
1.42033
1.40685
1.39142
1.38652
1.38573
1.38574
1.38887
1.39598
1.39928
1.3979
1.39409
1.38937
1.38091
1.36833
1.36235
1.36208
1.36205
1.36376
1.36958
1.37255
1.37211
1.37076
1.36749
1.35844
1.34539
1.33901
1.33762
1.33711
1.33888
1.34402
1.34596
1.3463
1.34698
1.34693
1.34304
1.33302
1.32731
1.32653
1.32595
1.3261
1.32836
1.32996
1.32885
1.32564
1.32212
1.31769
1.30961
1.30132
1.29905
1.29857
1.29867
1.30159
1.30511
1.30514
1.30459
1.30321
1.29839
1.28931
1.28415
1.28275
1.28166
1.28152
1.28278
1.28361
1.28207
1.27875
1.27547
1.27086
1.26446
1.26227
1.26235
1.26249
1.26356
1.2662
1.2686
1.26936
1.2694
1.26897
1.26612
1.25955
1.25398
1.25102
1.24849
1.24674
1.24618
1.24547
1.24417
1.2432
1.24192
1.23876
1.23403
1.23177
1.23053
1.22887
1.22704
1.22532
1.22245
1.21826
1.21444
1.21069
1.20613
1.20392
1.20392
1.20401
1.20495
1.20642
1.20837
1.21027
1.21112
1.21118
1.21049
1.20693
1.20161
1.1987
1.19687
1.19529
1.19427
1.19399
1.19404
1.1941
1.19375
1.19162
1.18824
1.18638
1.71315
1.71228
1.71383
1.7181
1.72344
1.72706
1.72772
1.72747
1.72392
1.71272
1.6952
1.68493
1.68323
1.68341
1.68624
1.69049
1.69471
1.69699
1.69737
1.69408
1.68088
1.66578
1.66275
1.66293
1.66434
1.66582
1.66651
1.66645
1.66581
1.66391
1.65867
1.64668
1.63553
1.63273
1.63264
1.63361
1.63577
1.63643
1.63664
1.63691
1.63657
1.63468
1.63059
1.62304
1.61107
1.60072
1.59827
1.59706
1.5965
1.59724
1.5998
1.6034
1.60443
1.60425
1.60298
1.59798
1.58588
1.57324
1.56942
1.56822
1.56642
1.56433
1.56258
1.56168
1.5618
1.56294
1.56439
1.56488
1.56482
1.56183
1.5577
1.55602
1.55436
1.5516
1.54665
1.53769
1.52654
1.52098
1.51931
1.51959
1.52043
1.52026
1.52112
1.52234
1.52255
1.52129
1.51493
1.5041
1.49891
1.49873
1.49924
1.50154
1.50267
1.50239
1.50177
1.50039
1.49796
1.49343
1.48382
1.47049
1.46223
1.45984
1.45965
1.4641
1.47351
1.47659
1.47633
1.4762
1.47295
1.45977
1.44059
1.43426
1.43414
1.43451
1.43761
1.44604
1.45539
1.45689
1.45399
1.4495
1.44556
1.43891
1.42431
1.40518
1.39925
1.39917
1.39981
1.40563
1.41844
1.42685
1.42713
1.42664
1.42591
1.42199
1.41009
1.39346
1.3872
1.38671
1.38671
1.38959
1.39698
1.40194
1.40147
1.39804
1.39351
1.38622
1.37375
1.36366
1.36215
1.36197
1.36272
1.36804
1.37386
1.37429
1.37354
1.37149
1.36467
1.35117
1.34118
1.33874
1.3378
1.33832
1.3429
1.34731
1.34741
1.34757
1.34765
1.34545
1.33627
1.3275
1.32626
1.32594
1.32589
1.328
1.33106
1.33108
1.32869
1.32541
1.32157
1.31447
1.30479
1.3001
1.29935
1.29914
1.30102
1.30564
1.30688
1.30638
1.30542
1.30241
1.29407
1.2861
1.28396
1.28289
1.28235
1.28323
1.28516
1.28499
1.28221
1.27859
1.27438
1.26752
1.26246
1.26203
1.26218
1.26284
1.26435
1.26683
1.26888
1.26955
1.26957
1.26836
1.26321
1.25678
1.25358
1.25131
1.24906
1.24785
1.24717
1.24609
1.24512
1.24418
1.24221
1.23782
1.23411
1.23278
1.23152
1.22975
1.22814
1.22615
1.22254
1.21809
1.21412
1.20974
1.20516
1.20397
1.20399
1.20417
1.20566
1.20799
1.20958
1.21099
1.21155
1.21145
1.20929
1.20404
1.20015
1.19814
1.1964
1.19494
1.19435
1.19436
1.19457
1.19467
1.19397
1.19106
1.18856
1.18737
1.71285
1.71396
1.71779
1.72307
1.7268
1.72803
1.72801
1.72501
1.71457
1.69711
1.68485
1.6819
1.68175
1.68492
1.69065
1.69477
1.69819
1.6993
1.69675
1.68438
1.66667
1.66069
1.66049
1.66123
1.66427
1.66666
1.6674
1.66731
1.6667
1.6643
1.65451
1.64065
1.63458
1.63263
1.63267
1.63398
1.63587
1.6364
1.63636
1.63582
1.63431
1.63116
1.62583
1.61655
1.60461
1.5995
1.59809
1.59694
1.59686
1.59789
1.60066
1.60345
1.60397
1.60355
1.60059
1.59116
1.57741
1.57024
1.56866
1.56711
1.56514
1.56356
1.5632
1.56374
1.56425
1.56519
1.5661
1.56605
1.56297
1.55692
1.55377
1.55246
1.55098
1.54812
1.54194
1.53188
1.52568
1.52327
1.52182
1.52107
1.52031
1.5203
1.52069
1.52125
1.52096
1.51741
1.50794
1.50049
1.49989
1.50004
1.50119
1.50178
1.50163
1.50132
1.50068
1.49936
1.4965
1.48939
1.47771
1.46787
1.46447
1.46363
1.46596
1.47342
1.4767
1.47583
1.47469
1.47157
1.46113
1.44266
1.4345
1.43445
1.43542
1.4382
1.44589
1.45646
1.45993
1.45797
1.45378
1.4497
1.44372
1.4307
1.40982
1.39989
1.39918
1.39926
1.40351
1.41584
1.42662
1.42783
1.42708
1.4262
1.42283
1.41243
1.39541
1.38735
1.38696
1.38722
1.39
1.39751
1.40397
1.40436
1.40165
1.39745
1.39123
1.37988
1.36666
1.36243
1.36213
1.36229
1.36632
1.374
1.37635
1.37584
1.37459
1.36997
1.35781
1.34465
1.34019
1.3389
1.33868
1.34157
1.3478
1.34942
1.34904
1.34874
1.34736
1.34006
1.32886
1.32555
1.32545
1.32539
1.32705
1.33128
1.33264
1.33132
1.32858
1.3252
1.31915
1.30907
1.30163
1.3002
1.29978
1.30073
1.30536
1.30846
1.3082
1.30742
1.30554
1.29908
1.28931
1.28507
1.28401
1.28325
1.28362
1.28599
1.2872
1.28568
1.28212
1.27803
1.27192
1.26429
1.26188
1.2618
1.26192
1.26359
1.26544
1.26752
1.2692
1.26974
1.26945
1.26622
1.25956
1.25559
1.25356
1.25147
1.2497
1.24875
1.24759
1.24659
1.24592
1.24479
1.24173
1.23709
1.235
1.23401
1.23264
1.23103
1.22949
1.22687
1.22243
1.21785
1.21351
1.20833
1.2047
1.20425
1.20425
1.2046
1.20709
1.20966
1.21073
1.21169
1.2119
1.21096
1.20641
1.2015
1.19937
1.19769
1.19594
1.19479
1.19462
1.19474
1.1951
1.19511
1.19367
1.19057
1.18918
1.18825
1.71427
1.71722
1.72211
1.72598
1.72789
1.72824
1.7261
1.71685
1.69979
1.68596
1.6814
1.68057
1.68285
1.6906
1.69497
1.69877
1.70075
1.69897
1.68784
1.66858
1.65973
1.6586
1.65864
1.66146
1.66635
1.66847
1.66894
1.66887
1.66786
1.66068
1.64561
1.63685
1.63408
1.6325
1.63286
1.63418
1.63565
1.63613
1.6359
1.63401
1.63054
1.62644
1.62052
1.61069
1.60254
1.60021
1.59806
1.59689
1.59708
1.5983
1.60077
1.60256
1.60267
1.60145
1.5954
1.58265
1.57231
1.5696
1.56808
1.56663
1.56526
1.56464
1.56496
1.56587
1.56609
1.56652
1.56671
1.56372
1.55624
1.55214
1.55063
1.54925
1.54746
1.54428
1.53762
1.52968
1.52654
1.52458
1.52262
1.52079
1.52022
1.52007
1.51987
1.51965
1.51838
1.51291
1.50379
1.50112
1.50078
1.50083
1.50111
1.50093
1.50057
1.50019
1.49958
1.49798
1.49311
1.48364
1.47367
1.46949
1.46826
1.46921
1.47425
1.47731
1.47594
1.47359
1.47014
1.4617
1.44484
1.43475
1.43425
1.43576
1.43867
1.44548
1.45623
1.46198
1.46114
1.45775
1.45381
1.44845
1.43716
1.41643
1.40205
1.39982
1.39973
1.40251
1.41353
1.42617
1.42874
1.42778
1.42645
1.42326
1.41397
1.39712
1.38714
1.38645
1.38711
1.3899
1.39745
1.40524
1.40657
1.40466
1.40101
1.3957
1.38576
1.37123
1.36339
1.36254
1.3624
1.36493
1.37295
1.37804
1.37792
1.37708
1.37415
1.36426
1.3494
1.34205
1.34034
1.33964
1.34105
1.34714
1.35143
1.35117
1.35045
1.34921
1.34372
1.33187
1.32503
1.32473
1.32467
1.32574
1.33036
1.33374
1.33328
1.33131
1.32848
1.3235
1.31383
1.30405
1.30115
1.30057
1.30086
1.30466
1.30957
1.30993
1.30934
1.30804
1.3036
1.29372
1.28644
1.28499
1.28424
1.28415
1.28614
1.28888
1.28868
1.28582
1.28182
1.27662
1.2685
1.26263
1.26176
1.26161
1.2621
1.26475
1.26663
1.26827
1.26955
1.26976
1.26834
1.26255
1.25727
1.25524
1.25347
1.25156
1.25034
1.24911
1.24781
1.24716
1.2465
1.24476
1.2406
1.23733
1.2364
1.23547
1.23407
1.23272
1.23089
1.22722
1.22218
1.21746
1.21236
1.20692
1.20487
1.20464
1.20464
1.20574
1.20929
1.21103
1.21179
1.21225
1.21195
1.20875
1.20295
1.20019
1.19882
1.19718
1.19555
1.19492
1.19494
1.19522
1.19558
1.19528
1.19284
1.19052
1.18985
1.189
1.71713
1.72046
1.72416
1.72677
1.72783
1.72669
1.71947
1.70372
1.68859
1.68223
1.68051
1.68154
1.68901
1.69532
1.69886
1.7014
1.70028
1.69065
1.67107
1.65976
1.65744
1.65697
1.65903
1.66508
1.66923
1.67061
1.67103
1.67073
1.66511
1.65012
1.63853
1.63583
1.63336
1.6326
1.63313
1.63415
1.63528
1.63558
1.63449
1.63054
1.62581
1.62169
1.61588
1.60746
1.60338
1.60089
1.59794
1.59647
1.59676
1.59801
1.59997
1.60082
1.60058
1.59779
1.58825
1.57569
1.57084
1.5695
1.56817
1.56726
1.56706
1.56655
1.5666
1.56692
1.56712
1.5669
1.56424
1.55658
1.55042
1.54917
1.54816
1.54663
1.54442
1.54095
1.5358
1.53036
1.52629
1.52412
1.52221
1.52021
1.51933
1.51922
1.51888
1.51783
1.51506
1.50954
1.5046
1.502
1.5008
1.50034
1.49995
1.49957
1.49925
1.49888
1.49793
1.49472
1.48757
1.47885
1.47434
1.47296
1.47334
1.47636
1.47855
1.47682
1.47326
1.46916
1.46196
1.44711
1.43541
1.43401
1.43562
1.43865
1.44495
1.45563
1.46301
1.46327
1.46091
1.45751
1.45276
1.44296
1.42366
1.40573
1.40132
1.40109
1.40282
1.41192
1.42558
1.43002
1.42898
1.42703
1.42365
1.41514
1.39873
1.38669
1.38541
1.38633
1.3892
1.39671
1.4056
1.40814
1.4069
1.40408
1.39965
1.39107
1.37664
1.3653
1.3631
1.36281
1.36422
1.37141
1.37892
1.37965
1.37914
1.37737
1.36996
1.35502
1.34442
1.34191
1.34093
1.34139
1.34614
1.35277
1.35362
1.35272
1.35137
1.34722
1.33624
1.32577
1.32413
1.32405
1.32452
1.32856
1.33395
1.33467
1.33347
1.33132
1.32742
1.31867
1.30727
1.30222
1.30138
1.3013
1.30394
1.30988
1.31173
1.3112
1.31023
1.30743
1.2989
1.28885
1.28584
1.28513
1.28479
1.28604
1.28973
1.29101
1.28938
1.28574
1.28111
1.27367
1.26519
1.26224
1.26173
1.26163
1.26315
1.26635
1.2677
1.26896
1.26976
1.26944
1.26558
1.25913
1.25642
1.25494
1.25325
1.25186
1.25066
1.24907
1.24823
1.24772
1.24678
1.24389
1.23989
1.23864
1.23808
1.2371
1.23589
1.23455
1.23191
1.22715
1.22186
1.21669
1.21058
1.20622
1.20537
1.20517
1.20538
1.20804
1.2114
1.21215
1.21259
1.2126
1.21078
1.20492
1.20078
1.19948
1.19829
1.19665
1.19539
1.19522
1.19533
1.19576
1.19595
1.19494
1.19204
1.19091
1.19048
1.18959
1.71926
1.7216
1.72437
1.72618
1.726
1.72143
1.70854
1.69305
1.68486
1.682
1.68197
1.68766
1.69493
1.69836
1.70116
1.70056
1.69244
1.67333
1.66039
1.65698
1.65606
1.65734
1.66386
1.66972
1.67169
1.67297
1.67307
1.66857
1.65431
1.64011
1.63628
1.63522
1.63312
1.63296
1.63349
1.63417
1.63482
1.63458
1.6313
1.62601
1.62187
1.61847
1.61404
1.60838
1.60434
1.60078
1.59704
1.59524
1.59557
1.59678
1.59826
1.59863
1.59785
1.59264
1.58057
1.57215
1.5709
1.56999
1.5691
1.56898
1.56914
1.56795
1.56751
1.56743
1.56723
1.56467
1.55698
1.55004
1.54792
1.54748
1.54662
1.54503
1.54273
1.53952
1.5356
1.53064
1.52505
1.52199
1.52054
1.51929
1.51835
1.51806
1.51767
1.51624
1.51299
1.50911
1.50603
1.50261
1.49971
1.49852
1.49809
1.49786
1.4976
1.49692
1.4947
1.48948
1.48264
1.47883
1.47749
1.47771
1.47949
1.48047
1.47834
1.47375
1.46889
1.46238
1.44972
1.43694
1.43408
1.43539
1.43854
1.44412
1.45433
1.46335
1.46452
1.46305
1.46044
1.45639
1.44786
1.43052
1.41057
1.40365
1.40312
1.40417
1.41134
1.42494
1.43162
1.43083
1.42838
1.42457
1.41647
1.40071
1.38648
1.38413
1.38503
1.38779
1.39519
1.40513
1.40898
1.40831
1.40642
1.40295
1.39577
1.38238
1.36838
1.36394
1.36345
1.36407
1.36976
1.3788
1.38126
1.38081
1.37977
1.37467
1.36128
1.34776
1.34355
1.34241
1.34231
1.34545
1.353
1.35605
1.35531
1.35376
1.35049
1.34118
1.32817
1.32379
1.32362
1.32368
1.32661
1.33316
1.33574
1.33508
1.33355
1.33071
1.32341
1.31131
1.30361
1.30222
1.30185
1.30343
1.30934
1.31324
1.31301
1.31219
1.3104
1.30403
1.29274
1.28679
1.28593
1.28549
1.28604
1.28955
1.29276
1.29237
1.28951
1.28541
1.27924
1.26983
1.26348
1.26223
1.2618
1.26217
1.26524
1.2679
1.26865
1.26958
1.26982
1.26803
1.26173
1.25739
1.25594
1.25457
1.25322
1.25215
1.25042
1.24924
1.24874
1.2482
1.24651
1.24265
1.24056
1.24029
1.23981
1.23888
1.23784
1.23601
1.23219
1.22682
1.22137
1.2152
1.20886
1.20651
1.20605
1.20592
1.20713
1.21099
1.21274
1.21302
1.21315
1.21227
1.2075
1.20162
1.19981
1.19891
1.19786
1.19629
1.19551
1.19555
1.19586
1.19628
1.19611
1.19395
1.19175
1.19139
1.19102
1.19009
1.71958
1.72122
1.72315
1.72361
1.72141
1.71247
1.6985
1.68895
1.68499
1.68424
1.68797
1.69442
1.69741
1.70012
1.6999
1.69321
1.67533
1.66151
1.65729
1.65596
1.65648
1.66267
1.67045
1.67255
1.67435
1.67479
1.671
1.65757
1.6419
1.63655
1.63545
1.6352
1.63356
1.6336
1.63404
1.63459
1.63444
1.63163
1.62675
1.62264
1.62024
1.61815
1.6148
1.61019
1.6046
1.59939
1.59515
1.59348
1.59389
1.59508
1.59622
1.59633
1.5946
1.58628
1.57473
1.57201
1.57157
1.57093
1.57047
1.57083
1.57001
1.56876
1.56809
1.56752
1.56549
1.55818
1.54953
1.54757
1.54703
1.54663
1.54606
1.54462
1.54247
1.53959
1.53553
1.52923
1.52233
1.51952
1.5186
1.51809
1.51763
1.51722
1.51674
1.51555
1.51317
1.51009
1.50639
1.50167
1.49767
1.49613
1.49581
1.49569
1.49532
1.4938
1.48996
1.48487
1.48252
1.48182
1.48224
1.48342
1.48332
1.48
1.47469
1.4693
1.46315
1.45275
1.43979
1.43491
1.43564
1.43842
1.44336
1.45285
1.4627
1.46508
1.46418
1.4624
1.45907
1.45171
1.43648
1.41585
1.4066
1.40564
1.40619
1.41179
1.42452
1.4332
1.43326
1.43058
1.42635
1.4184
1.40343
1.38714
1.38304
1.38364
1.38598
1.39299
1.40379
1.40922
1.40899
1.40788
1.40543
1.39969
1.38773
1.37221
1.36514
1.36426
1.36441
1.36856
1.3779
1.38242
1.38221
1.38156
1.37832
1.36731
1.35195
1.3453
1.34394
1.34354
1.34538
1.35243
1.358
1.35787
1.35636
1.35369
1.34613
1.33228
1.32418
1.32344
1.32328
1.32494
1.33141
1.33647
1.33644
1.33536
1.33331
1.3276
1.31587
1.30564
1.3031
1.30254
1.30323
1.30822
1.31413
1.31465
1.31402
1.31277
1.30846
1.29785
1.28849
1.28671
1.28624
1.28631
1.28895
1.29364
1.29463
1.29293
1.28939
1.28439
1.27568
1.26629
1.26309
1.26231
1.26209
1.26374
1.26775
1.26908
1.26962
1.27005
1.26948
1.26484
1.25867
1.25666
1.25549
1.25424
1.25346
1.25201
1.25035
1.24964
1.24928
1.24844
1.24551
1.24231
1.24201
1.24191
1.24143
1.24064
1.23945
1.23665
1.23175
1.22618
1.22019
1.21301
1.20832
1.20735
1.207
1.20725
1.21014
1.21326
1.2136
1.21374
1.21336
1.21012
1.2034
1.20008
1.19914
1.19836
1.19761
1.19622
1.19577
1.19593
1.19642
1.19663
1.19572
1.19295
1.19205
1.19191
1.19151
1.19068
1.71833
1.71924
1.72005
1.71928
1.71409
1.70332
1.69379
1.6891
1.68769
1.68987
1.69433
1.69638
1.69859
1.69861
1.69324
1.67711
1.66308
1.65831
1.65668
1.65683
1.66224
1.67085
1.67358
1.67522
1.67591
1.67255
1.6596
1.64321
1.63691
1.63548
1.63556
1.63567
1.63443
1.6345
1.63478
1.6347
1.63162
1.62675
1.624
1.62238
1.62121
1.61973
1.61682
1.61034
1.60216
1.59675
1.59301
1.59181
1.59224
1.59341
1.59421
1.59405
1.5906
1.57966
1.57289
1.57269
1.57241
1.572
1.57189
1.57165
1.57042
1.56927
1.56833
1.56657
1.56027
1.55038
1.54659
1.54675
1.54652
1.54649
1.54637
1.54537
1.54333
1.54025
1.53469
1.52492
1.51908
1.51767
1.51721
1.51719
1.51723
1.51709
1.51671
1.51614
1.51486
1.51122
1.50472
1.49887
1.49531
1.49367
1.49326
1.49305
1.49232
1.48984
1.48614
1.48525
1.48545
1.48658
1.48762
1.48674
1.48216
1.47597
1.46996
1.46403
1.45587
1.44425
1.43693
1.43684
1.43885
1.44291
1.45139
1.46159
1.46495
1.46439
1.4633
1.46075
1.45458
1.44133
1.42115
1.40992
1.40829
1.40858
1.41298
1.42456
1.43464
1.43567
1.43344
1.4291
1.42135
1.40716
1.38914
1.38253
1.38265
1.38422
1.39033
1.40179
1.40897
1.4092
1.40859
1.40701
1.40266
1.39229
1.37645
1.36682
1.36521
1.36506
1.3679
1.37666
1.38307
1.38325
1.38288
1.38098
1.37265
1.35714
1.34748
1.34556
1.34491
1.34586
1.3516
1.35912
1.3603
1.35901
1.35665
1.35066
1.33761
1.32588
1.32359
1.3233
1.32397
1.32923
1.33635
1.33763
1.33687
1.33541
1.33125
1.3208
1.30839
1.30395
1.30321
1.30331
1.30693
1.31403
1.31621
1.31569
1.31476
1.31208
1.30338
1.29157
1.28749
1.28701
1.28683
1.28844
1.29351
1.29647
1.29571
1.29299
1.28889
1.28172
1.27119
1.26464
1.26319
1.26259
1.26304
1.26649
1.26969
1.27013
1.27047
1.27038
1.26768
1.26083
1.25728
1.25612
1.25501
1.25426
1.25359
1.25187
1.2506
1.25015
1.24973
1.24807
1.24434
1.24326
1.2434
1.24334
1.24288
1.24215
1.24035
1.23639
1.23092
1.22503
1.21792
1.21125
1.20901
1.20843
1.20825
1.20973
1.21347
1.21441
1.21444
1.21432
1.21243
1.20624
1.2009
1.19941
1.19856
1.198
1.19764
1.19632
1.19604
1.19634
1.19683
1.19671
1.19461
1.19262
1.19253
1.19243
1.19202
1.19144
1.71565
1.71635
1.71637
1.71377
1.70652
1.69856
1.69363
1.69151
1.69243
1.69464
1.69539
1.69682
1.69691
1.69265
1.67872
1.66515
1.66
1.65814
1.65808
1.66315
1.67183
1.67455
1.67573
1.67657
1.67359
1.66113
1.64383
1.63688
1.63547
1.63528
1.63685
1.63604
1.63531
1.63528
1.63497
1.6318
1.62653
1.6247
1.62452
1.62417
1.62342
1.62148
1.61621
1.60538
1.59817
1.59437
1.59123
1.59058
1.59095
1.59198
1.59242
1.59157
1.58573
1.57517
1.5733
1.5733
1.57318
1.5732
1.57285
1.57195
1.57082
1.56963
1.56794
1.56284
1.55277
1.54641
1.54616
1.54636
1.54677
1.54741
1.54755
1.54679
1.54445
1.53995
1.52996
1.51907
1.51701
1.51658
1.51646
1.51677
1.51744
1.51794
1.51807
1.51795
1.51647
1.50973
1.49972
1.49548
1.4931
1.49128
1.49075
1.49046
1.4894
1.48742
1.4873
1.48861
1.49045
1.49127
1.48977
1.48482
1.47747
1.4708
1.46503
1.4586
1.44934
1.44044
1.43905
1.44028
1.44331
1.45033
1.46021
1.46444
1.46406
1.4634
1.46154
1.45642
1.44509
1.42607
1.41311
1.41076
1.41096
1.41447
1.42493
1.43579
1.43787
1.43624
1.4325
1.42543
1.41223
1.39301
1.38297
1.3823
1.38305
1.3877
1.39908
1.4083
1.40921
1.40884
1.4079
1.40468
1.39583
1.38063
1.36891
1.36619
1.3659
1.36776
1.37546
1.38325
1.3841
1.38383
1.38277
1.37689
1.36278
1.35035
1.34718
1.34643
1.34675
1.35108
1.35939
1.36236
1.36146
1.35941
1.35472
1.34341
1.32907
1.32407
1.32355
1.32367
1.32734
1.33536
1.33872
1.33822
1.33704
1.33416
1.32553
1.31198
1.30502
1.30389
1.30365
1.30583
1.31293
1.31741
1.31723
1.31645
1.31474
1.30841
1.29601
1.28861
1.28779
1.28752
1.28827
1.2927
1.2976
1.29799
1.29614
1.29278
1.28721
1.27721
1.26758
1.26453
1.26353
1.26332
1.26531
1.26957
1.27081
1.27103
1.27112
1.26988
1.26392
1.25824
1.25665
1.2556
1.25473
1.25452
1.25357
1.25189
1.2511
1.25068
1.24979
1.24681
1.24423
1.24437
1.24466
1.24458
1.24415
1.24317
1.24045
1.23563
1.22989
1.22319
1.21549
1.21116
1.21013
1.20969
1.2101
1.21329
1.21564
1.21553
1.21535
1.21429
1.20961
1.20274
1.20008
1.199
1.19816
1.19808
1.19779
1.19644
1.19633
1.19671
1.19701
1.19612
1.19344
1.19292
1.19305
1.19297
1.19267
1.19236
1.71301
1.71375
1.713
1.70866
1.70267
1.69868
1.69567
1.69508
1.69483
1.69453
1.69498
1.69489
1.69149
1.68003
1.66732
1.66197
1.6601
1.65999
1.66479
1.67334
1.67578
1.67628
1.67693
1.67428
1.66275
1.64503
1.63701
1.63543
1.63509
1.63706
1.63775
1.63632
1.63593
1.63546
1.63223
1.6266
1.62493
1.62564
1.6266
1.62616
1.62451
1.62044
1.6098
1.5992
1.59553
1.59267
1.59019
1.58999
1.59024
1.59089
1.5909
1.58854
1.58104
1.57412
1.57367
1.57374
1.574
1.57418
1.57324
1.57236
1.57135
1.5698
1.56576
1.55613
1.54749
1.54622
1.54642
1.5467
1.54789
1.54882
1.54881
1.54767
1.54407
1.53534
1.52212
1.51605
1.51599
1.51602
1.51625
1.51719
1.51875
1.51991
1.52016
1.51969
1.51508
1.50327
1.49466
1.49232
1.49107
1.48954
1.48898
1.4888
1.48849
1.48921
1.4915
1.49379
1.49429
1.49279
1.48668
1.47872
1.47191
1.46617
1.46068
1.45382
1.44523
1.44188
1.4426
1.44473
1.45016
1.45905
1.46373
1.46353
1.46311
1.46169
1.45739
1.44779
1.43059
1.41635
1.41294
1.41308
1.41585
1.42523
1.4365
1.43958
1.43855
1.43588
1.43012
1.41842
1.39918
1.38486
1.38255
1.3828
1.38573
1.39599
1.40707
1.40922
1.40886
1.40839
1.40603
1.39848
1.38432
1.37115
1.36717
1.36674
1.36796
1.37448
1.38301
1.38484
1.38453
1.384
1.38011
1.36847
1.35424
1.34893
1.34806
1.34803
1.35099
1.35903
1.364
1.3636
1.36185
1.35818
1.34892
1.33375
1.32537
1.32421
1.32393
1.32606
1.33361
1.33947
1.33953
1.33856
1.33648
1.32975
1.31641
1.30656
1.3046
1.30409
1.30513
1.31119
1.31793
1.31866
1.31802
1.31687
1.31256
1.30136
1.29065
1.28852
1.28829
1.28851
1.29183
1.29794
1.29984
1.29878
1.29619
1.29192
1.28347
1.27223
1.26639
1.26489
1.26417
1.2649
1.26894
1.27164
1.27171
1.27185
1.27137
1.26716
1.26005
1.25727
1.25615
1.25513
1.2549
1.25479
1.25338
1.25203
1.25156
1.25096
1.24886
1.24552
1.24493
1.24542
1.24572
1.2456
1.24514
1.24363
1.23997
1.23475
1.22854
1.2207
1.21414
1.21212
1.21138
1.21123
1.2131
1.21668
1.21705
1.21681
1.21604
1.21297
1.20592
1.20123
1.19979
1.19872
1.19822
1.19849
1.19791
1.19669
1.19666
1.19694
1.19679
1.1946
1.19302
1.19336
1.19364
1.19354
1.19345
1.19317
1.71104
1.71142
1.70972
1.70616
1.70353
1.70073
1.69796
1.69509
1.69328
1.69269
1.69235
1.68995
1.68126
1.66973
1.66401
1.66228
1.66223
1.66675
1.67465
1.67682
1.67689
1.67723
1.67468
1.66424
1.64687
1.63809
1.63601
1.63526
1.63691
1.63931
1.63792
1.63672
1.63607
1.63305
1.62693
1.62488
1.62587
1.62795
1.628
1.62677
1.62334
1.61414
1.60138
1.59626
1.5943
1.59171
1.59015
1.59005
1.59009
1.59022
1.58946
1.58476
1.57821
1.57412
1.57384
1.57401
1.57475
1.57463
1.5737
1.57294
1.5718
1.56895
1.56054
1.54973
1.54666
1.54688
1.54727
1.54787
1.54939
1.5499
1.54956
1.54738
1.54022
1.52717
1.51683
1.51545
1.51564
1.51598
1.51681
1.51886
1.52092
1.52179
1.52178
1.51894
1.50833
1.49628
1.49175
1.48988
1.48934
1.48912
1.48873
1.48912
1.49099
1.4939
1.49624
1.49695
1.49506
1.48769
1.47929
1.47317
1.46779
1.46254
1.45695
1.44977
1.44509
1.44535
1.4468
1.45086
1.45842
1.46304
1.46298
1.46273
1.46156
1.4578
1.44963
1.43456
1.41976
1.41504
1.41498
1.41696
1.42509
1.43658
1.44077
1.44021
1.43864
1.43453
1.42473
1.40697
1.38906
1.38367
1.38352
1.38498
1.39311
1.40524
1.40921
1.40892
1.4087
1.40702
1.40058
1.38752
1.37347
1.36817
1.36757
1.36835
1.37376
1.38243
1.38533
1.38507
1.38478
1.38238
1.37341
1.35881
1.35095
1.34976
1.34953
1.35143
1.3585
1.36504
1.36545
1.36397
1.36113
1.35374
1.33932
1.32774
1.32523
1.32475
1.32569
1.33177
1.33951
1.34077
1.33992
1.33833
1.33337
1.32138
1.30881
1.3052
1.30458
1.30487
1.30933
1.31742
1.3199
1.31941
1.31852
1.31581
1.30683
1.29394
1.28928
1.28898
1.28895
1.29109
1.29731
1.30127
1.30093
1.29915
1.29597
1.28933
1.27799
1.26905
1.26652
1.26544
1.26534
1.26804
1.27233
1.2728
1.27277
1.27255
1.27007
1.26295
1.25813
1.25678
1.25568
1.25514
1.25525
1.25471
1.25305
1.25218
1.25173
1.25047
1.24706
1.24534
1.2457
1.24641
1.24657
1.24642
1.24576
1.24351
1.23929
1.23375
1.22643
1.21836
1.21448
1.21337
1.21284
1.21352
1.21702
1.21888
1.21858
1.21795
1.21599
1.21015
1.2033
1.20088
1.19963
1.19864
1.19869
1.19907
1.19823
1.19715
1.19703
1.19695
1.1955
1.19312
1.19314
1.19397
1.19418
1.19417
1.19415
1.19354
1.7097
1.71002
1.70918
1.70808
1.70627
1.70182
1.69588
1.69118
1.68988
1.68955
1.68819
1.68237
1.67264
1.66645
1.66479
1.66476
1.66888
1.67583
1.67735
1.67714
1.6773
1.67482
1.66537
1.64875
1.63964
1.63745
1.63644
1.6371
1.64032
1.63997
1.63797
1.63682
1.63415
1.62771
1.62457
1.62552
1.62793
1.62872
1.62808
1.62543
1.61769
1.60486
1.59691
1.59559
1.59395
1.59174
1.591
1.59082
1.59056
1.59004
1.58742
1.58098
1.57699
1.57411
1.57387
1.57413
1.57526
1.5749
1.57421
1.57348
1.57175
1.56542
1.5534
1.54734
1.54714
1.54788
1.54853
1.5495
1.55054
1.55063
1.54963
1.54472
1.53306
1.52055
1.51592
1.51554
1.51599
1.51668
1.51854
1.52118
1.52272
1.52302
1.52144
1.51296
1.49968
1.49275
1.49032
1.48876
1.48861
1.48992
1.49069
1.49263
1.49589
1.49817
1.49875
1.4964
1.48834
1.47919
1.47403
1.46983
1.46483
1.45954
1.45348
1.44845
1.44823
1.44919
1.45218
1.45821
1.4623
1.4624
1.46235
1.46134
1.45798
1.4509
1.43802
1.42337
1.41732
1.41698
1.41811
1.42457
1.43593
1.4415
1.44132
1.44058
1.43803
1.43027
1.41467
1.39519
1.38616
1.38516
1.38565
1.3913
1.40307
1.40914
1.40909
1.40902
1.40787
1.40242
1.39045
1.37593
1.36927
1.36837
1.36874
1.37321
1.38177
1.38551
1.38538
1.3853
1.38393
1.37727
1.36378
1.35354
1.35155
1.35122
1.35231
1.3581
1.36549
1.3669
1.3658
1.36353
1.35777
1.34523
1.33142
1.32674
1.326
1.32621
1.33041
1.33888
1.34201
1.34137
1.33995
1.33632
1.32632
1.31215
1.30605
1.30513
1.30499
1.30776
1.31593
1.32089
1.32073
1.32
1.31833
1.31173
1.29853
1.29042
1.28965
1.28953
1.29071
1.29621
1.30197
1.30255
1.3015
1.29928
1.29449
1.28444
1.27312
1.26844
1.26701
1.26639
1.26765
1.27222
1.27425
1.27402
1.27375
1.27242
1.26664
1.25967
1.25743
1.25632
1.25546
1.2555
1.25554
1.25421
1.2528
1.25223
1.25149
1.24892
1.24578
1.24571
1.24662
1.24721
1.24724
1.24704
1.24594
1.24303
1.23845
1.2321
1.22366
1.2175
1.21564
1.21478
1.21475
1.21713
1.22045
1.22055
1.22003
1.21868
1.21452
1.2068
1.20233
1.20081
1.19956
1.19905
1.19961
1.19978
1.19867
1.19773
1.19729
1.19618
1.19335
1.19261
1.19363
1.19459
1.19465
1.19471
1.19451
1.19336
1.7096
1.71144
1.71235
1.71146
1.70669
1.69713
1.68903
1.68697
1.6869
1.68643
1.68327
1.67583
1.66938
1.66784
1.66784
1.67137
1.67688
1.67766
1.67709
1.67679
1.6744
1.66617
1.6504
1.64085
1.63895
1.63836
1.63876
1.6412
1.6417
1.63968
1.63792
1.63569
1.62927
1.62425
1.62476
1.62689
1.62845
1.62827
1.62645
1.62029
1.60867
1.5986
1.59638
1.59585
1.59426
1.59289
1.59263
1.59233
1.59168
1.58996
1.58404
1.5784
1.57627
1.57386
1.57376
1.57428
1.57541
1.57497
1.57456
1.57368
1.56989
1.55877
1.54863
1.54759
1.54779
1.54874
1.54973
1.55075
1.55125
1.55099
1.54834
1.53902
1.52593
1.51837
1.51655
1.51657
1.51706
1.51824
1.52072
1.52292
1.52361
1.52285
1.51644
1.50363
1.49481
1.49181
1.48977
1.48905
1.49047
1.49306
1.49469
1.49733
1.49966
1.50011
1.49722
1.48831
1.47901
1.47459