/*--------------------------------*- C++ -*----------------------------------*\
  =========                 |
  \\      /  F ield         | OpenFOAM: The Open Source CFD Toolbox
   \\    /   O peration     | Website:  https://openfoam.org
    \\  /    A nd           | Version:  7
     \\/     M anipulation  |
\*---------------------------------------------------------------------------*/
FoamFile
{
    version     2.0;
    format      ascii;
    class       volScalarField;
    location    "3.3";
    object      T;
}
// * * * * * * * * * * * * * * * * * * * * * * * * * * * * * * * * * * * * * //

dimensions      [0 0 0 1 0 0 0];

internalField   nonuniform List<scalar> 
4128
(
1.599
1.59134
1.58253
1.57514
1.56962
1.56532
1.56171
1.55906
1.55551
1.55154
1.5475
1.54331
1.54367
1.54658
1.5543
1.5644
1.57761
1.58891
1.59934
1.60517
1.60857
1.61196
1.61326
1.61296
1.61253
1.61186
1.61023
1.60725
1.60285
1.59821
1.59473
1.59196
1.58925
1.58564
1.58153
1.5772
1.57188
1.56466
1.55683
1.55016
1.54539
1.54352
1.54318
1.54455
1.5517
1.56495
1.58682
1.61809
1.65489
1.68505
1.70995
1.72833
1.73126
1.72796
1.7215
1.72124
1.72606
1.73567
1.74832
1.75447
1.75419
1.75151
1.74736
1.74043
1.73117
1.72471
1.72161
1.72023
1.72017
1.7216
1.72249
1.72267
1.7223
1.72032
1.71724
1.71457
1.71302
1.71285
1.71378
1.71435
1.71422
1.71361
1.7126
1.70972
1.70433
1.70002
1.69797
1.69621
1.69462
1.69431
1.69532
1.6965
1.69838
1.69943
1.69853
1.69583
1.69276
1.69097
1.68878
1.68439
1.67678
1.66924
1.66508
1.663
1.6621
1.66254
1.66765
1.67649
1.68076
1.6809
1.68047
1.67698
1.66852
1.65917
1.6534
1.65102
1.65
1.64951
1.65018
1.65351
1.66005
1.66588
1.66689
1.66566
1.66167
1.6544
1.64753
1.64333
1.64083
1.59812
1.58939
1.58027
1.57334
1.5676
1.56255
1.55798
1.55342
1.54916
1.5446
1.53947
1.53456
1.53112
1.5273
1.52384
1.52099
1.52166
1.52526
1.53073
1.54082
1.5522
1.56437
1.57345
1.58107
1.59029
1.59398
1.59321
1.59035
1.58815
1.58656
1.58449
1.5823
1.58057
1.5799
1.57851
1.57484
1.56961
1.56276
1.55479
1.54638
1.53896
1.53444
1.53232
1.5314
1.53232
1.53594
1.54048
1.54628
1.55729
1.57514
1.60051
1.63252
1.65989
1.6849
1.69937
1.7031
1.70687
1.71458
1.72422
1.73395
1.73873
1.73915
1.73731
1.73292
1.72462
1.71565
1.71186
1.71087
1.71127
1.71399
1.71592
1.71596
1.71504
1.7116
1.70678
1.70288
1.7005
1.69983
1.70151
1.70532
1.7068
1.70714
1.70648
1.70446
1.69935
1.69092
1.68537
1.68343
1.68249
1.68209
1.68352
1.68891
1.69317
1.69333
1.69191
1.68885
1.6835
1.67892
1.67527
1.67108
1.66602
1.66107
1.65743
1.6554
1.65491
1.65729
1.66431
1.66919
1.66993
1.67041
1.67025
1.66714
1.65879
1.64893
1.64387
1.64182
1.64124
1.64123
1.64342
1.65141
1.66176
1.66435
1.66288
1.65995
1.65422
1.64379
1.63249
1.62866
1.6281
1.59589
1.58653
1.57869
1.57264
1.56686
1.56185
1.55733
1.5524
1.54735
1.54187
1.53556
1.52919
1.52417
1.52017
1.51672
1.51476
1.51103
1.50547
1.49841
1.49517
1.49684
1.50119
1.50954
1.52138
1.53574
1.54975
1.55854
1.56215
1.56395
1.56499
1.5662
1.56556
1.56696
1.57089
1.57137
1.5695
1.56532
1.56033
1.55384
1.54572
1.5373
1.5294
1.52481
1.52312
1.52236
1.52228
1.52411
1.52582
1.52667
1.52669
1.52924
1.53806
1.55577
1.58665
1.62196
1.65426
1.68017
1.69213
1.69911
1.70686
1.71316
1.71945
1.72168
1.72077
1.71608
1.70969
1.70609
1.70516
1.70602
1.70835
1.70881
1.70835
1.70697
1.70329
1.69747
1.69272
1.69005
1.68896
1.68933
1.69179
1.69608
1.69664
1.69561
1.69379
1.69009
1.68354
1.67663
1.67403
1.67344
1.6733
1.67484
1.68057
1.68474
1.68422
1.68267
1.68039
1.67559
1.66792
1.662
1.65875
1.65642
1.65425
1.65223
1.65143
1.65247
1.65653
1.65852
1.65768
1.65767
1.65797
1.65761
1.65473
1.64829
1.64175
1.63712
1.63495
1.6347
1.63565
1.64126
1.65133
1.65594
1.65557
1.65362
1.65084
1.645
1.63315
1.62181
1.61872
1.61833
1.59237
1.58277
1.57623
1.57083
1.56588
1.56155
1.55653
1.55143
1.5463
1.54064
1.53434
1.52834
1.52251
1.51773
1.51384
1.50987
1.50557
1.50104
1.49586
1.48955
1.48397
1.47972
1.4764
1.47668
1.48015
1.48668
1.49456
1.50329
1.51344
1.52202
1.52892
1.53639
1.54381
1.55242
1.55526
1.55507
1.55398
1.55148
1.54588
1.54026
1.53561
1.52868
1.52189
1.5187
1.51635
1.51429
1.51266
1.51195
1.51267
1.51345
1.51336
1.51148
1.50882
1.51336
1.53011
1.5581
1.59221
1.6242
1.65363
1.6724
1.68337
1.69157
1.70071
1.70276
1.70169
1.70085
1.69927
1.6988
1.69945
1.70039
1.70011
1.69928
1.69785
1.69553
1.69176
1.68706
1.68285
1.68043
1.68026
1.68103
1.68159
1.68199
1.68151
1.68046
1.67867
1.67599
1.67238
1.66895
1.66754
1.66734
1.66839
1.67032
1.67204
1.67213
1.67108
1.66969
1.66642
1.65905
1.65173
1.64855
1.64757
1.64723
1.6477
1.64993
1.65347
1.65391
1.65138
1.64843
1.64639
1.64482
1.64282
1.63975
1.63647
1.63413
1.63274
1.6321
1.63221
1.63554
1.64137
1.64401
1.64395
1.64343
1.64178
1.63927
1.63397
1.6247
1.61585
1.61157
1.61058
1.58869
1.57964
1.57373
1.56885
1.56448
1.56027
1.55531
1.55041
1.54517
1.53851
1.53178
1.52699
1.52266
1.51841
1.5139
1.50891
1.50385
1.49869
1.49276
1.48656
1.48074
1.47613
1.47265
1.46918
1.46554
1.46296
1.46027
1.45919
1.46052
1.46488
1.47245
1.48366
1.49531
1.50559
1.5152
1.52213
1.52701
1.53014
1.52978
1.52835
1.52622
1.52242
1.51862
1.51719
1.51452
1.50958
1.50461
1.50212
1.50095
1.50015
1.50154
1.50266
1.50186
1.49949
1.49652
1.49691
1.50525
1.52141
1.54716
1.57781
1.61131
1.63608
1.6619
1.67682
1.68339
1.68844
1.68732
1.68655
1.68652
1.68714
1.68744
1.68716
1.68728
1.68694
1.68525
1.68324
1.68049
1.67678
1.67387
1.67248
1.67149
1.67069
1.66919
1.66705
1.66569
1.66545
1.66548
1.66515
1.66404
1.66371
1.66364
1.66262
1.66152
1.66098
1.65964
1.65844
1.65613
1.65074
1.64388
1.64124
1.64116
1.64235
1.64609
1.65084
1.65157
1.6486
1.64444
1.64026
1.63571
1.63113
1.62743
1.62554
1.62512
1.62541
1.62646
1.62966
1.6339
1.63569
1.63514
1.63386
1.63295
1.63159
1.6292
1.62552
1.62054
1.61526
1.6111
1.60862
1.60716
1.58429
1.57731
1.57222
1.56773
1.56336
1.55854
1.55366
1.54857
1.54281
1.53624
1.53019
1.52539
1.52112
1.51665
1.51193
1.50729
1.50264
1.49728
1.49128
1.48594
1.48128
1.47687
1.47211
1.46662
1.46114
1.45677
1.45337
1.45013
1.44725
1.44461
1.44215
1.44181
1.44412
1.44879
1.45516
1.46381
1.47274
1.48062
1.48905
1.49731
1.50508
1.50816
1.50703
1.50608
1.50515
1.50187
1.49772
1.49444
1.49116
1.48887
1.48903
1.49213
1.49594
1.49589
1.49258
1.4894
1.48369
1.47652
1.47727
1.48476
1.5043
1.53568
1.5716
1.61001
1.64141
1.66808
1.67198
1.67253
1.67447
1.67238
1.67126
1.67181
1.67301
1.67593
1.67756
1.67696
1.67489
1.67207
1.66868
1.66473
1.66201
1.66016
1.65825
1.65612
1.65494
1.65514
1.65723
1.65937
1.65954
1.65901
1.65706
1.6542
1.65195
1.64987
1.6478
1.64653
1.64525
1.64302
1.64037
1.63856
1.63836
1.6407
1.64453
1.64535
1.64395
1.64049
1.63667
1.63205
1.62586
1.62032
1.61742
1.61629
1.61627
1.61755
1.62304
1.63029
1.63247
1.63199
1.62954
1.62542
1.62203
1.61882
1.61479
1.61028
1.60712
1.60573
1.60565
1.60618
1.60703
1.58152
1.57622
1.57182
1.5674
1.56256
1.55735
1.55189
1.54615
1.53995
1.53384
1.52878
1.52424
1.51967
1.51472
1.50968
1.50462
1.49963
1.4949
1.49066
1.48656
1.48257
1.47855
1.47383
1.468
1.46089
1.45387
1.44837
1.44437
1.44122
1.43847
1.43678
1.43575
1.43331
1.4294
1.42458
1.42173
1.42251
1.42553
1.43222
1.44232
1.45414
1.46732
1.47652
1.48147
1.48505
1.487
1.48649
1.48357
1.47961
1.47816
1.47801
1.4791
1.48369
1.4879
1.48722
1.48392
1.47909
1.47388
1.4666
1.45993
1.45794
1.46269
1.47778
1.50667
1.54368
1.5849
1.62064
1.64409
1.65828
1.65913
1.65656
1.65916
1.65971
1.66257
1.66605
1.66615
1.66537
1.66423
1.66136
1.6563
1.651
1.64795
1.64638
1.64676
1.64746
1.64921
1.65299
1.65455
1.65478
1.65422
1.6514
1.64681
1.64225
1.6383
1.63537
1.63437
1.63449
1.63549
1.63754
1.63892
1.63933
1.639
1.63707
1.63465
1.63316
1.63134
1.62811
1.6237
1.61798
1.61283
1.61079
1.61062
1.61126
1.6157
1.62299
1.62544
1.625
1.62408
1.62154
1.61646
1.60986
1.60467
1.6013
1.59931
1.59844
1.59853
1.60125
1.60645
1.60743
1.57988
1.57567
1.57158
1.56714
1.56244
1.5573
1.55111
1.54362
1.53682
1.53202
1.52762
1.52314
1.51825
1.51294
1.50735
1.50156
1.49572
1.49173
1.48863
1.48573
1.48282
1.47952
1.47569
1.47086
1.46356
1.45363
1.44613
1.44196
1.43869
1.43565
1.43327
1.43115
1.42875
1.42583
1.42134
1.41385
1.40879
1.40592
1.40429
1.40471
1.40747
1.41359
1.4226
1.43248
1.44001
1.44529
1.44974
1.45538
1.46106
1.46351
1.46423
1.46515
1.46673
1.46989
1.47359
1.47452
1.473
1.46848
1.46358
1.45845
1.45387
1.44913
1.4464
1.44831
1.45831
1.47934
1.51329
1.54932
1.58427
1.61068
1.63008
1.64227
1.64588
1.64936
1.65594
1.65775
1.65717
1.65587
1.65295
1.64828
1.64183
1.6363
1.63456
1.63484
1.63887
1.644
1.64817
1.64947
1.64994
1.64927
1.64539
1.63885
1.63258
1.62776
1.62445
1.62277
1.62312
1.62708
1.63306
1.63632
1.63705
1.63641
1.63217
1.6267
1.6234
1.62091
1.61785
1.61421
1.61054
1.60778
1.60698
1.60723
1.61
1.61448
1.61523
1.61473
1.61493
1.61481
1.61264
1.60651
1.59899
1.59476
1.59342
1.59292
1.59308
1.59613
1.60311
1.607
1.60518
1.57805
1.57416
1.57026
1.56615
1.56192
1.55715
1.55063
1.54241
1.53588
1.53109
1.52644
1.52157
1.51661
1.51158
1.50546
1.49847
1.49335
1.48964
1.48645
1.48368
1.4812
1.47888
1.47599
1.47194
1.46567
1.45628
1.44694
1.44178
1.43858
1.43544
1.43234
1.42952
1.42666
1.42362
1.41936
1.41182
1.40501
1.40161
1.39881
1.39592
1.394
1.39395
1.39436
1.39492
1.39554
1.39757
1.40077
1.40433
1.41074
1.42071
1.43176
1.43957
1.44343
1.4474
1.45332
1.45849
1.45928
1.45901
1.45753
1.45366
1.45059
1.44698
1.44196
1.43749
1.43471
1.43507
1.43966
1.45351
1.47623
1.50956
1.54542
1.5795
1.60337
1.62103
1.63591
1.64377
1.6471
1.64774
1.6472
1.6447
1.63856
1.6303
1.62584
1.62519
1.62685
1.63436
1.63969
1.64088
1.64162
1.6414
1.63861
1.63185
1.62467
1.61983
1.61654
1.61461
1.61496
1.6201
1.6271
1.62931
1.63005
1.63004
1.62778
1.62133
1.6145
1.61059
1.60779
1.60516
1.60317
1.60257
1.60288
1.60527
1.60814
1.60812
1.60645
1.60514
1.60442
1.60359
1.60158
1.59742
1.59189
1.58839
1.58788
1.588
1.59033
1.59724
1.60159
1.60108
1.59732
1.57671
1.5723
1.56835
1.5646
1.56042
1.55547
1.54907
1.54176
1.53595
1.53115
1.52633
1.52126
1.51568
1.50951
1.50275
1.49568
1.49092
1.4877
1.48479
1.48224
1.48007
1.47752
1.47421
1.47025
1.46509
1.45755
1.44829
1.44156
1.43772
1.4352
1.433
1.43053
1.42735
1.42357
1.41871
1.41133
1.40367
1.399
1.39539
1.39234
1.3899
1.38783
1.38577
1.38452
1.38434
1.38329
1.38057
1.37619
1.37178
1.37305
1.37755
1.38612
1.39723
1.4077
1.41689
1.42644
1.43421
1.44214
1.44595
1.4454
1.4433
1.44071
1.43727
1.434
1.42946
1.42469
1.42244
1.42276
1.42554
1.43471
1.45194
1.48069
1.51696
1.54867
1.57498
1.59742
1.61619
1.62964
1.63502
1.63682
1.63595
1.63034
1.62232
1.61898
1.61885
1.61961
1.62249
1.62623
1.6281
1.62921
1.62857
1.62476
1.61829
1.61327
1.61054
1.60919
1.60974
1.61221
1.6148
1.61668
1.61797
1.61906
1.61874
1.61515
1.60809
1.60311
1.60052
1.59865
1.59748
1.59798
1.60075
1.60253
1.60173
1.59966
1.59757
1.59537
1.59344
1.59212
1.59121
1.58991
1.58765
1.58544
1.58475
1.58557
1.58937
1.59282
1.59263
1.59134
1.5878
1.57686
1.5719
1.56658
1.56143
1.5566
1.55164
1.54613
1.5408
1.53623
1.53179
1.5271
1.5219
1.51571
1.50828
1.50035
1.49379
1.48905
1.48557
1.48275
1.48031
1.47825
1.47582
1.47278
1.46926
1.46485
1.45869
1.45022
1.44195
1.43733
1.43412
1.43138
1.42909
1.42681
1.4241
1.42037
1.41487
1.40657
1.3989
1.39463
1.39124
1.38789
1.38479
1.38195
1.37928
1.37709
1.37546
1.37426
1.37295
1.37017
1.36286
1.35531
1.35223
1.35344
1.35827
1.36563
1.3751
1.38664
1.39919
1.41307
1.42314
1.42852
1.42917
1.4283
1.42649
1.4233
1.41744
1.41377
1.41295
1.41283
1.41438
1.41966
1.42615
1.43516
1.45261
1.48266
1.51509
1.5445
1.57013
1.59058
1.61167
1.62148
1.62067
1.62166
1.62117
1.6164
1.61252
1.61074
1.6106
1.61201
1.61448
1.6153
1.61484
1.61222
1.60946
1.6077
1.60729
1.60775
1.60812
1.60746
1.60715
1.60731
1.60765
1.6077
1.60663
1.60267
1.59726
1.59452
1.59326
1.593
1.59466
1.59595
1.5946
1.59262
1.59066
1.58785
1.58455
1.58221
1.58139
1.58125
1.58196
1.58422
1.58499
1.58485
1.58538
1.58587
1.58432
1.58241
1.58067
1.5772
1.57717
1.57218
1.56647
1.55968
1.55261
1.54602
1.54183
1.53845
1.53491
1.53108
1.52702
1.52267
1.51734
1.50947
1.49985
1.49305
1.48812
1.48377
1.48059
1.47794
1.47528
1.47257
1.4697
1.46649
1.46275
1.45809
1.4522
1.44523
1.43813
1.43307
1.42928
1.42632
1.42398
1.42173
1.41913
1.41559
1.41067
1.40485
1.39845
1.39236
1.38758
1.38377
1.38035
1.37711
1.37402
1.37126
1.36914
1.36781
1.36622
1.36307
1.35749
1.34951
1.34315
1.34038
1.34035
1.34164
1.34508
1.35082
1.35955
1.37065
1.3834
1.39369
1.39862
1.40111
1.40348
1.4044
1.40388
1.40295
1.40238
1.40282
1.40493
1.40846
1.41217
1.41432
1.41857
1.42757
1.44583
1.47778
1.51018
1.54269
1.56856
1.5906
1.60898
1.61
1.60965
1.60859
1.6043
1.60087
1.60147
1.60314
1.60327
1.6031
1.60278
1.60252
1.60292
1.60427
1.6047
1.60361
1.60144
1.59954
1.59839
1.59775
1.59725
1.59656
1.59485
1.59191
1.58964
1.58893
1.58974
1.59079
1.58968
1.5875
1.58521
1.58225
1.57853
1.57532
1.57334
1.57242
1.57272
1.5755
1.58066
1.58343
1.58411
1.58364
1.58019
1.57547
1.57217
1.56948
1.56596
1.57648
1.57206
1.56718
1.56006
1.55004
1.54246
1.53831
1.53493
1.53176
1.52897
1.52575
1.52178
1.5172
1.51099
1.50274
1.49429
1.48819
1.48359
1.47942
1.47562
1.47205
1.469
1.46601
1.46278
1.45937
1.45578
1.45188
1.44723
1.44154
1.43471
1.42859
1.42404
1.42094
1.4186
1.41589
1.41299
1.40999
1.4064
1.40185
1.3963
1.39
1.38437
1.38004
1.37652
1.3731
1.36992
1.36743
1.36535
1.36369
1.36147
1.35831
1.35245
1.34329
1.33769
1.33492
1.33356
1.33258
1.33233
1.33281
1.33439
1.33781
1.34373
1.35037
1.35637
1.36139
1.36628
1.37244
1.37928
1.3846
1.38815
1.39074
1.39371
1.39727
1.3988
1.3998
1.40064
1.40112
1.40468
1.41649
1.44234
1.48261
1.51921
1.55423
1.57325
1.58645
1.5936
1.59313
1.59281
1.59379
1.59375
1.59383
1.59504
1.59568
1.59656
1.59696
1.59627
1.59554
1.59446
1.59297
1.59106
1.58954
1.58878
1.58817
1.58733
1.58626
1.58527
1.58455
1.584
1.58362
1.583
1.58169
1.57997
1.57753
1.57439
1.57107
1.56806
1.56645
1.5663
1.56813
1.57351
1.57768
1.57925
1.57959
1.57787
1.57219
1.56543
1.56095
1.55869
1.5564
1.57575
1.57175
1.56689
1.5601
1.55043
1.54149
1.53614
1.53207
1.52852
1.52575
1.52301
1.5193
1.51515
1.51033
1.50446
1.49806
1.49145
1.48491
1.47912
1.47425
1.47008
1.46601
1.46239
1.45916
1.45594
1.45308
1.45001
1.4465
1.44265
1.43792
1.43121
1.42352
1.41817
1.4151
1.41332
1.4116
1.40937
1.40627
1.4026
1.39833
1.3929
1.38546
1.37872
1.37471
1.37218
1.37009
1.368
1.36604
1.36385
1.36122
1.35837
1.35464
1.34825
1.33879
1.33279
1.3299
1.32841
1.32744
1.32629
1.32492
1.32383
1.32394
1.32472
1.32542
1.32514
1.32632
1.32902
1.3336
1.34164
1.35111
1.36053
1.36874
1.37394
1.3777
1.3812
1.38454
1.38704
1.38735
1.38658
1.38815
1.39803
1.41865
1.4521
1.49274
1.52258
1.54401
1.55737
1.56629
1.57259
1.5784
1.5839
1.58917
1.59221
1.59279
1.59152
1.58863
1.5857
1.58258
1.57931
1.5778
1.5777
1.57828
1.57953
1.57993
1.58057
1.581
1.58093
1.58013
1.57773
1.57462
1.57281
1.57122
1.5693
1.56711
1.56474
1.56274
1.56194
1.56288
1.56641
1.56873
1.56982
1.57063
1.5706
1.56887
1.56316
1.55628
1.5523
1.5508
1.54949
1.57347
1.56933
1.56473
1.55884
1.55111
1.54335
1.53696
1.53166
1.52685
1.52212
1.51819
1.51481
1.51134
1.50774
1.50381
1.49939
1.49472
1.48924
1.48202
1.47418
1.46783
1.46282
1.45928
1.45625
1.45302
1.44974
1.44706
1.44479
1.44198
1.43902
1.43506
1.42854
1.41918
1.41308
1.40998
1.40768
1.40543
1.40354
1.40087
1.39781
1.39397
1.38848
1.38088
1.37443
1.37092
1.36843
1.36611
1.36373
1.36147
1.35946
1.35702
1.35464
1.35143
1.3454
1.33575
1.32908
1.32648
1.32485
1.32327
1.32154
1.31985
1.31832
1.31676
1.31561
1.31527
1.3138
1.31034
1.30518
1.30414
1.30591
1.31136
1.31975
1.32914
1.3385
1.34825
1.35663
1.36418
1.37075
1.37371
1.37413
1.37319
1.37467
1.3798
1.39426
1.41706
1.4483
1.48579
1.51424
1.52765
1.54384
1.56041
1.57178
1.58159
1.58592
1.58608
1.58433
1.58079
1.57576
1.56974
1.56595
1.56542
1.56614
1.56852
1.5727
1.57523
1.57584
1.57611
1.57566
1.57233
1.5667
1.56387
1.56284
1.56184
1.5607
1.55966
1.55925
1.55992
1.5616
1.56156
1.56074
1.56077
1.5611
1.56106
1.55959
1.55523
1.54955
1.54601
1.54478
1.54415
1.57106
1.56653
1.56164
1.55613
1.54993
1.54415
1.53934
1.53438
1.52817
1.52119
1.51523
1.51074
1.50727
1.50401
1.50119
1.49817
1.49478
1.49128
1.48674
1.47888
1.46785
1.46036
1.45627
1.4534
1.45055
1.44742
1.44431
1.44152
1.43914
1.43682
1.43447
1.4309
1.42422
1.41478
1.40878
1.40559
1.40312
1.40045
1.39778
1.39515
1.39223
1.38871
1.38274
1.37487
1.37016
1.36735
1.36494
1.3628
1.36033
1.35749
1.35465
1.35217
1.35009
1.34762
1.34218
1.33341
1.32709
1.324
1.32211
1.32022
1.31807
1.31592
1.31381
1.31204
1.31063
1.30876
1.30708
1.3047
1.29783
1.2905
1.28689
1.28728
1.28937
1.29416
1.30199
1.31208
1.32362
1.33692
1.34591
1.35083
1.35518
1.35533
1.35466
1.35534
1.35887
1.36963
1.38948
1.41822
1.45537
1.48944
1.51698
1.53458
1.55352
1.56932
1.57425
1.57512
1.57513
1.5721
1.56635
1.56067
1.55852
1.55859
1.55963
1.56394
1.56875
1.5693
1.56949
1.56915
1.56618
1.55975
1.55557
1.55513
1.55496
1.55482
1.5558
1.55811
1.5589
1.55725
1.55399
1.55243
1.55194
1.55155
1.55107
1.55019
1.54826
1.54531
1.54255
1.54102
1.54053
1.56939
1.5647
1.55935
1.55335
1.54778
1.54351
1.53974
1.53587
1.53114
1.5239
1.51464
1.50817
1.50439
1.5011
1.49806
1.49594
1.49379
1.49084
1.48735
1.48224
1.4733
1.46177
1.45457
1.4504
1.44718
1.44432
1.44181
1.43913
1.43643
1.4339
1.4316
1.42926
1.426
1.41932
1.40991
1.40441
1.40135
1.39893
1.39657
1.39397
1.39118
1.38815
1.38376
1.37757
1.37033
1.36584
1.36313
1.36062
1.35838
1.35637
1.35436
1.35246
1.35062
1.34833
1.34445
1.33803
1.32906
1.32331
1.32081
1.31914
1.31735
1.31501
1.31242
1.31021
1.30848
1.3069
1.30511
1.30295
1.29865
1.29115
1.28405
1.28022
1.27768
1.2762
1.27667
1.27879
1.28363
1.29175
1.30302
1.31249
1.31803
1.32164
1.32657
1.32916
1.33124
1.33376
1.33972
1.35245
1.37427
1.39916
1.43138
1.47015
1.50233
1.52796
1.54212
1.55388
1.55792
1.56023
1.56025
1.55897
1.55441
1.55295
1.55402
1.5577
1.56087
1.56145
1.56146
1.56097
1.55847
1.5529
1.54826
1.54726
1.54746
1.54911
1.55295
1.55534
1.55476
1.55185
1.54864
1.54598
1.54371
1.54199
1.54114
1.54089
1.54082
1.54083
1.54036
1.53938
1.53818
1.56745
1.56294
1.5575
1.5511
1.5459
1.54233
1.53907
1.5358
1.53193
1.52638
1.51729
1.50791
1.50265
1.49916
1.496
1.4934
1.4913
1.4885
1.48554
1.48209
1.47696
1.46861
1.45784
1.44996
1.44519
1.44172
1.43874
1.43593
1.43384
1.43254
1.43075
1.42864
1.42613
1.42217
1.4154
1.40605
1.39994
1.39634
1.39326
1.39002
1.38668
1.38404
1.38207
1.37914
1.37418
1.36858
1.36399
1.36026
1.35719
1.3543
1.35136
1.34861
1.34634
1.34469
1.34338
1.34066
1.3344
1.32587
1.32105
1.31865
1.31656
1.31412
1.31166
1.30939
1.30729
1.30526
1.30312
1.30081
1.29821
1.29323
1.28453
1.27796
1.2747
1.27268
1.27118
1.27001
1.27
1.27071
1.27319
1.27732
1.28209
1.28501
1.28694
1.2903
1.29669
1.30221
1.30733
1.31401
1.32342
1.33851
1.35306
1.37371
1.39978
1.43454
1.47154
1.50824
1.5207
1.53087
1.54255
1.54775
1.54641
1.54711
1.55085
1.55366
1.55579
1.55643
1.55618
1.55481
1.5515
1.5465
1.5418
1.5404
1.54055
1.54161
1.5443
1.54707
1.54754
1.54633
1.54327
1.53966
1.53643
1.53459
1.53372
1.5335
1.53457
1.53643
1.5369
1.53681
1.53483
1.56528
1.56077
1.55547
1.54933
1.5448
1.54137
1.53811
1.53476
1.53117
1.5268
1.52016
1.51026
1.50231
1.49772
1.49427
1.49094
1.48771
1.48486
1.48241
1.47993
1.47685
1.47205
1.46438
1.45367
1.44511
1.4401
1.43661
1.43371
1.43116
1.42876
1.42624
1.42401
1.42226
1.42027
1.41713
1.41124
1.40263
1.39594
1.39193
1.38868
1.3851
1.38154
1.37865
1.37632
1.37399
1.3703
1.36529
1.36097
1.35741
1.35388
1.35036
1.34733
1.34475
1.34251
1.34056
1.33875
1.33608
1.32987
1.32201
1.31777
1.31521
1.31334
1.31159
1.30935
1.30666
1.30459
1.30295
1.30128
1.29904
1.29511
1.28742
1.27833
1.27334
1.27068
1.26863
1.26705
1.26611
1.2656
1.26569
1.26656
1.26737
1.26718
1.26483
1.26066
1.26051
1.26348
1.27025
1.27726
1.28377
1.29295
1.30501
1.31448
1.32658
1.34382
1.3672
1.40177
1.44302
1.47587
1.50656
1.51834
1.5268
1.5346
1.53989
1.54264
1.54558
1.54912
1.5496
1.54874
1.54598
1.54256
1.53903
1.53563
1.5349
1.53553
1.53718
1.53834
1.53836
1.53778
1.5358
1.53294
1.53021
1.5285
1.52833
1.52916
1.53067
1.53149
1.53164
1.53142
1.52898
1.56419
1.55857
1.55233
1.5467
1.54304
1.53974
1.53636
1.53297
1.5296
1.52595
1.52112
1.51369
1.50395
1.49682
1.49225
1.48851
1.4849
1.48159
1.47878
1.47646
1.4743
1.47152
1.46738
1.45998
1.44811
1.43906
1.43443
1.4311
1.42845
1.42615
1.42383
1.42139
1.41903
1.41696
1.41492
1.41231
1.40744
1.39856
1.39084
1.38743
1.38521
1.38275
1.38
1.37755
1.37509
1.37178
1.36748
1.36184
1.35654
1.35338
1.35101
1.3488
1.3462
1.34341
1.34096
1.33888
1.33649
1.33233
1.32551
1.3184
1.31403
1.31128
1.30941
1.30827
1.30837
1.30776
1.30598
1.30414
1.30178
1.29812
1.29218
1.28341
1.2752
1.27049
1.26769
1.26581
1.26462
1.26373
1.26313
1.26291
1.26244
1.26168
1.26052
1.25651
1.24945
1.24451
1.24424
1.24577
1.24959
1.25575
1.26451
1.27341
1.28039
1.2896
1.30084
1.31493
1.3417
1.37514
1.41456
1.45358
1.49538
1.51666
1.51942
1.52474
1.52927
1.53308
1.53456
1.53545
1.53726
1.53729
1.53627
1.5339
1.53177
1.53145
1.53219
1.53225
1.53146
1.52989
1.52769
1.5251
1.52401
1.52431
1.5247
1.52517
1.52558
1.52572
1.52583
1.52561
1.52303
1.56457
1.55777
1.55002
1.5441
1.54037
1.53694
1.53358
1.53038
1.52731
1.52416
1.52057
1.51583
1.50856
1.49859
1.4906
1.48584
1.48239
1.479
1.47609
1.47367
1.47162
1.46987
1.46712
1.46296
1.45537
1.44314
1.43405
1.42943
1.42595
1.42317
1.42104
1.41974
1.4187
1.41723
1.41532
1.4128
1.40918
1.40371
1.3956
1.3874
1.38259
1.3791
1.37581
1.37329
1.37139
1.37
1.36816
1.36527
1.36102
1.3551
1.34979
1.34652
1.34434
1.342
1.33925
1.33647
1.33383
1.33122
1.32724
1.32038
1.3143
1.31102
1.30908
1.3075
1.30571
1.30363
1.30192
1.30033
1.2986
1.29639
1.29318
1.28738
1.27875
1.2719
1.26832
1.2661
1.26429
1.26278
1.26189
1.26143
1.26077
1.2596
1.25774
1.25465
1.2493
1.24304
1.23844
1.23632
1.23622
1.23684
1.23876
1.24302
1.24709
1.25036
1.25526
1.26179
1.27074
1.28716
1.31416
1.3494
1.39165
1.43145
1.46358
1.50079
1.51646
1.51733
1.51899
1.52026
1.52378
1.5264
1.52791
1.52916
1.5288
1.52894
1.52896
1.5285
1.52744
1.52549
1.52312
1.52065
1.51855
1.51807
1.51784
1.51738
1.51739
1.5176
1.51808
1.51835
1.51615
1.56495
1.55753
1.5491
1.54274
1.5383
1.53438
1.53071
1.5275
1.52471
1.52199
1.51908
1.51555
1.51054
1.50239
1.49212
1.48424
1.47947
1.47662
1.47419
1.47169
1.4694
1.46759
1.46513
1.46189
1.45723
1.44905
1.43813
1.43051
1.42603
1.42234
1.41927
1.41695
1.41492
1.41273
1.41048
1.40855
1.40648
1.4035
1.39863
1.3904
1.38202
1.37749
1.37458
1.37212
1.3701
1.36807
1.36616
1.36434
1.36208
1.35779
1.35065
1.34529
1.34318
1.34179
1.34002
1.3376
1.33496
1.33212
1.32841
1.32281
1.31574
1.31047
1.30745
1.30547
1.30367
1.30195
1.30043
1.29889
1.29746
1.2958
1.29341
1.2894
1.28237
1.27332
1.2674
1.26431
1.26255
1.26158
1.26113
1.26075
1.26014
1.25905
1.25703
1.25397
1.24935
1.24309
1.23766
1.23458
1.23282
1.23191
1.23193
1.23239
1.23271
1.23246
1.2316
1.23209
1.23412
1.23829
1.24676
1.26182
1.28243
1.31371
1.34956
1.39455
1.4359
1.4688
1.50081
1.51006
1.51303
1.51651
1.51815
1.51895
1.51938
1.52091
1.52351
1.52423
1.52362
1.52192
1.5199
1.51765
1.51571
1.51437
1.5127
1.51155
1.51106
1.51065
1.50981
1.50894
1.50719
1.56513
1.55793
1.54926
1.54244
1.53758
1.53319
1.52898
1.52542
1.52255
1.52002
1.51753
1.51438
1.51033
1.5046
1.4949
1.4839
1.47756
1.47406
1.47146
1.46951
1.4676
1.46485
1.46184
1.4587
1.45523
1.45068
1.44324
1.43357
1.42631
1.42167
1.41782
1.4147
1.41226
1.41009
1.40793
1.40574
1.4037
1.40147
1.39859
1.39383
1.38532
1.37685
1.37378
1.37227
1.37077
1.36917
1.36725
1.36495
1.36248
1.35916
1.35437
1.34824
1.34335
1.34045
1.33792
1.33531
1.33296
1.33031
1.32737
1.32404
1.31895
1.31192
1.30641
1.30358
1.30243
1.30169
1.30048
1.29876
1.29719
1.29544
1.29301
1.28985
1.28492
1.27704
1.26907
1.26461
1.2624
1.26127
1.2606
1.26004
1.25951
1.25888
1.25765
1.25534
1.25179
1.24649
1.23989
1.23467
1.23194
1.23035
1.22967
1.22941
1.2288
1.22775
1.22582
1.22269
1.22059
1.22042
1.22114
1.22355
1.22879
1.23715
1.2503
1.27146
1.30993
1.35239
1.40102
1.44195
1.47745
1.50693
1.5136
1.512
1.51374
1.51402
1.51425
1.51473
1.51466
1.5146
1.51545
1.51601
1.51517
1.51282
1.51063
1.50941
1.50854
1.50718
1.50501
1.50196
1.49916
1.56322
1.55689
1.54929
1.54289
1.53794
1.53326
1.52858
1.52449
1.521
1.51777
1.51491
1.51237
1.50957
1.50484
1.49697
1.48779
1.47964
1.4738
1.4698
1.46673
1.46407
1.4619
1.46014
1.45754
1.45454
1.45093
1.44582
1.43923
1.43065
1.42267
1.4174
1.41363
1.41062
1.40814
1.40588
1.4036
1.40136
1.39895
1.39655
1.39394
1.38936
1.38168
1.37407
1.37044
1.36846
1.36664
1.36449
1.36198
1.35947
1.35738
1.3551
1.35087
1.3446
1.33974
1.33655
1.33414
1.33216
1.3299
1.32715
1.32407
1.32041
1.31479
1.30763
1.30287
1.30064
1.2996
1.29902
1.29857
1.29781
1.29595
1.29297
1.28915
1.28496
1.27995
1.27314
1.26769
1.26533
1.26424
1.26383
1.26356
1.26322
1.26256
1.26111
1.25832
1.25393
1.24851
1.24246
1.2369
1.23271
1.23006
1.2288
1.22811
1.22739
1.22618
1.22409
1.22088
1.21744
1.21572
1.21509
1.215
1.2151
1.21547
1.21654
1.2184
1.22314
1.23719
1.26864
1.31548
1.36529
1.41835
1.4573
1.49181
1.50891
1.51205
1.51085
1.51194
1.50904
1.50703
1.50617
1.50616
1.50755
1.50829
1.50814
1.50756
1.50706
1.5059
1.50312
1.49923
1.49527
1.56033
1.55388
1.5473
1.54229
1.53827
1.53432
1.53019
1.52568
1.52121
1.51702
1.51269
1.50822
1.50398
1.49966
1.49478
1.48886
1.48286
1.47685
1.47073
1.46545
1.46159
1.45855
1.4555
1.45245
1.44947
1.44671
1.44407
1.44064
1.43514
1.42679
1.41853
1.41341
1.41006
1.40713
1.40445
1.40201
1.39945
1.39667
1.39382
1.39104
1.38818
1.38369
1.37584
1.36954
1.36658
1.36436
1.36232
1.36026
1.35808
1.35606
1.35423
1.35167
1.34666
1.33993
1.33552
1.33331
1.33134
1.32927
1.32687
1.32399
1.32082
1.31667
1.31069
1.3048
1.3024
1.30139
1.30013
1.29846
1.29661
1.29493
1.29317
1.29064
1.28737
1.2832
1.27659
1.26831
1.26303
1.26064
1.25961
1.25945
1.2593
1.2586
1.25696
1.25498
1.25229
1.24844
1.24423
1.23983
1.23584
1.23316
1.23117
1.22938
1.22786
1.22589
1.22305
1.21959
1.21624
1.21419
1.21302
1.2126
1.21253
1.21243
1.2118
1.20939
1.20392
1.2016
1.20368
1.21258
1.23393
1.27788
1.3291
1.38918
1.43822
1.47095
1.50071
1.50886
1.50767
1.50754
1.50623
1.50178
1.50059
1.49937
1.49919
1.5007
1.50195
1.50201
1.50125
1.4982
1.4938
1.55832
1.55153
1.54542
1.5411
1.53748
1.53399
1.53056
1.52687
1.52241
1.51718
1.51174
1.50605
1.50015
1.49497
1.49049
1.48667
1.48301
1.47876
1.47277
1.46525
1.45905
1.45514
1.45208
1.44913
1.44642
1.44374
1.44119
1.43879
1.43595
1.431
1.42183
1.4128
1.408
1.40476
1.40193
1.3994
1.39694
1.39443
1.392
1.3898
1.38759
1.38424
1.37847
1.37165
1.36658
1.36333
1.36077
1.35849
1.35661
1.35476
1.35299
1.35088
1.3472
1.34197
1.33766
1.33442
1.33155
1.32881
1.32584
1.32274
1.31974
1.31709
1.31373
1.30772
1.30161
1.29902
1.29801
1.29676
1.29496
1.29357
1.2924
1.29146
1.28881
1.28487
1.27874
1.26965
1.26264
1.25962
1.25786
1.25693
1.25675
1.25637
1.25495
1.25324
1.25164
1.2496
1.24689
1.24305
1.23797
1.2338
1.23148
1.22968
1.22762
1.22509
1.22181
1.21809
1.2154
1.21357
1.21212
1.21107
1.21062
1.21036
1.20988
1.20813
1.20323
1.19701
1.19467
1.19324
1.1936
1.19765
1.21142
1.24289
1.29757
1.35238
1.41226
1.44771
1.47647
1.50255
1.50464
1.50368
1.50203
1.49833
1.49607
1.49651
1.49655
1.49585
1.49519
1.49405
1.49308
1.55294
1.54593
1.54208
1.53891
1.53588
1.53293
1.53007
1.52711
1.5234
1.51833
1.51145
1.50339
1.49596
1.49089
1.48777
1.48526
1.48271
1.47967
1.47544
1.4685
1.45897
1.4522
1.44885
1.4464
1.44393
1.44148
1.43913
1.43663
1.43429
1.43147
1.42588
1.41618
1.40781
1.4037
1.40078
1.39814
1.3957
1.39323
1.39058
1.38798
1.38524
1.38207
1.37836
1.3736
1.36875
1.3651
1.36182
1.35837
1.35544
1.35314
1.35092
1.34844
1.34545
1.34185
1.33795
1.33451
1.33175
1.32938
1.32708
1.32468
1.32197
1.31886
1.31484
1.30923
1.30196
1.29796
1.29671
1.29608
1.29552
1.29472
1.29313
1.29078
1.28745
1.28339
1.27892
1.27249
1.26465
1.26
1.25758
1.25583
1.25488
1.25444
1.25415
1.25399
1.25325
1.25144
1.24871
1.24437
1.2388
1.23404
1.2315
1.23019
1.22896
1.22652
1.22287
1.21964
1.21694
1.21458
1.21256
1.2111
1.21021
1.20954
1.20886
1.20771
1.20379
1.19679
1.19319
1.19176
1.19077
1.18955
1.18919
1.19083
1.19833
1.21779
1.25914
1.31601
1.36708
1.41783
1.45058
1.47569
1.49425
1.4987
1.49834
1.49809
1.49725
1.49585
1.49397
1.49157
1.48905
1.54858
1.54334
1.53978
1.53638
1.53328
1.53049
1.52793
1.52562
1.52298
1.5187
1.51094
1.50068
1.4933
1.48916
1.48595
1.48317
1.48062
1.47809
1.47527
1.47043
1.4613
1.4518
1.44705
1.44447
1.44229
1.43998
1.43749
1.43451
1.43147
1.42868
1.42582
1.42039
1.41069
1.40366
1.40008
1.39705
1.39425
1.39208
1.39024
1.38797
1.38526
1.3821
1.37884
1.3755
1.37082
1.3653
1.36136
1.35883
1.35679
1.35456
1.35206
1.3496
1.34702
1.34342
1.33945
1.33591
1.3329
1.32976
1.32623
1.32269
1.31945
1.31664
1.31417
1.31061
1.30511
1.29964
1.29685
1.29561
1.2947
1.29356
1.29185
1.28966
1.28701
1.28399
1.28036
1.27481
1.26675
1.26011
1.25719
1.25574
1.25481
1.25419
1.25372
1.25289
1.25138
1.24914
1.24643
1.24331
1.2396
1.23601
1.2335
1.23137
1.22831
1.22427
1.22085
1.21872
1.21701
1.21531
1.21369
1.21242
1.21141
1.21044
1.20928
1.20737
1.20396
1.19829
1.19372
1.19194
1.19008
1.1878
1.18588
1.18523
1.18538
1.18626
1.18953
1.20005
1.22114
1.26355
1.32123
1.37257
1.41505
1.45003
1.47634
1.49025
1.49701
1.49785
1.49747
1.49565
1.49221
1.546
1.54206
1.53881
1.53552
1.53226
1.52927
1.52663
1.52414
1.52134
1.51689
1.50879
1.49924
1.49324
1.48909
1.48541
1.48212
1.47925
1.47664
1.47394
1.47033
1.46366
1.45335
1.44617
1.44285
1.44041
1.43822
1.43653
1.43481
1.43196
1.42902
1.42628
1.42238
1.4153
1.40629
1.40048
1.39696
1.39386
1.39085
1.38817
1.38562
1.38301
1.3809
1.37923
1.37704
1.37379
1.36944
1.364
1.35844
1.35373
1.35046
1.34813
1.34592
1.34402
1.34262
1.34061
1.33798
1.33495
1.33123
1.32684
1.32241
1.31869
1.31561
1.3127
1.30971
1.30623
1.30194
1.29815
1.29573
1.29432
1.29319
1.29153
1.28909
1.286
1.28237
1.27844
1.27434
1.26904
1.2618
1.25722
1.25586
1.25522
1.25475
1.25413
1.25301
1.25113
1.24852
1.24542
1.24222
1.23935
1.23732
1.2353
1.23255
1.22817
1.2234
1.22084
1.21918
1.21745
1.21552
1.21372
1.21242
1.21163
1.21106
1.21039
1.20912
1.20673
1.20201
1.19518
1.191
1.18846