/*--------------------------------*- C++ -*----------------------------------*\
  =========                 |
  \\      /  F ield         | OpenFOAM: The Open Source CFD Toolbox
   \\    /   O peration     | Website:  https://openfoam.org
    \\  /    A nd           | Version:  7
     \\/     M anipulation  |
\*---------------------------------------------------------------------------*/
FoamFile
{
    version     2.0;
    format      ascii;
    class       volScalarField;
    location    "3.1";
    object      p;
}
// * * * * * * * * * * * * * * * * * * * * * * * * * * * * * * * * * * * * * //

dimensions      [1 -1 -2 0 0 0 0];

internalField   nonuniform List<scalar> 
16192
(
2.01139
2.00995
2.00837
2.00538
2.00154
1.99831
1.99548
1.99289
1.99236
1.99498
1.99374
1.99123
1.98971
1.98663
1.98006
1.97154
1.96471
1.96066
1.95936
1.95976
1.96158
1.96499
1.96634
1.96501
1.9634
1.96487
1.96362
1.95869
1.95546
1.95188
1.94679
1.94048
1.93425
1.92893
1.92461
1.92087
1.91312
1.89926
1.88615
1.88187
1.88119
1.88516
1.88731
1.88466
1.88108
1.87732
1.87023
1.85445
1.8305
1.81663
1.8123
1.81128
1.81042
1.81091
1.81845
1.8268
1.82544
1.82301
1.82128
1.81911
1.81634
1.81235
1.803
1.78145
1.75468
1.74532
1.74349
1.74306
1.74682
1.75354
1.75472
1.75386
1.75285
1.75138
1.74909
1.74418
1.73479
1.72489
1.72197
1.72216
1.72378
1.72775
1.72995
1.72997
1.72941
1.72781
1.72332
1.71062
1.69547
1.6899
1.6887
1.68764
1.68985
1.69949
1.70545
1.70348
1.69983
1.69642
1.69128
1.6819
1.67053
1.66294
1.65904
1.65668
1.65434
1.65108
1.64516
1.63277
1.61342
1.59979
1.59601
1.59511
1.59463
1.59601
1.60198
1.61099
1.61254
1.61032
1.60782
1.60536
1.60359
1.60164
1.59786
1.58799
1.56804
1.55381
1.55182
1.55153
1.55249
1.55833
1.56846
1.57338
1.57434
1.57577
1.57726
1.57753
1.57506
1.56309
1.53242
1.51092
1.50835
1.50914
1.50995
1.51099
1.5142
1.52785
1.56356
1.59069
1.59188
1.59069
1.58904
1.58589
1.57784
1.55453
1.51612
1.49743
1.49473
1.49308
1.48896
1.48078
1.47112
1.46612
1.46431
1.46412
1.46794
1.4775
1.49046
1.50171
1.5037
1.50264
1.50112
1.49866
1.49279
1.47784
1.45413
1.43401
1.42288
1.41631
1.41234
1.41069
1.40985
1.41161
1.42076
1.42779
1.42739
1.42574
1.42538
1.42571
1.42619
1.42619
1.42562
1.42484
1.42333
1.42105
1.41801
1.41391
1.40728
1.39533
1.37541
1.36056
1.35626
1.35603
1.35695
1.36119
1.37129
1.38069
1.38333
1.38348
1.38287
1.38278
1.38217
1.37984
1.37651
1.37372
1.37127
1.36864
1.36487
1.35701
1.34331
1.33271
1.33064
1.32963
1.32871
1.3296
1.33661
1.34766
1.34922
1.34622
1.34218
1.33811
1.33204
1.32164
1.30697
1.29946
1.29852
1.29943
1.30332
1.3088
1.31226
1.31179
1.31042
1.30822
1.30657
1.30105
1.29219
1.30977
1.38789
1.57552
1.86688
2.16963
2.40542
2.45513
2.51554
2.00713
2.00447
2.00296
2.00293
2.00148
1.99873
1.99604
1.9944
1.99444
1.99182
1.9867
1.98147
1.97734
1.97396
1.96719
1.95539
1.947
1.94385
1.94223
1.94207
1.94398
1.94958
1.95852
1.96765
1.97248
1.97119
1.96347
1.95212
1.94374
1.93887
1.93337
1.9268
1.92151
1.91747
1.91439
1.9124
1.91118
1.90833
1.89943
1.88669
1.87998
1.87707
1.87559
1.87396
1.87132
1.8685
1.86486
1.85693
1.84069
1.82014
1.80911
1.8051
1.80415
1.80342
1.80476
1.81246
1.81658
1.8142
1.8119
1.81013
1.8081
1.80575
1.80255
1.79341
1.77224
1.74825
1.7413
1.74049
1.74145
1.74575
1.74713
1.74534
1.74354
1.74179
1.73951
1.7357
1.72929
1.72084
1.71372
1.71217
1.71271
1.71575
1.72222
1.72645
1.72662
1.7256
1.72249
1.715
1.70001
1.68719
1.68338
1.68211
1.68133
1.68505
1.69458
1.6975
1.69481
1.69122
1.68639
1.67754
1.66708
1.65985
1.65618
1.6549
1.65394
1.65242
1.64937
1.64295
1.62776
1.6039
1.58873
1.58478
1.58299
1.58144
1.58156
1.58795
1.60092
1.60593
1.60568
1.60567
1.60625
1.60546
1.60293
1.59758
1.5823
1.55669
1.54422
1.5433
1.54296
1.54375
1.54915
1.55916
1.56437
1.56566
1.56775
1.56975
1.57016
1.56787
1.55384
1.52103
1.50167
1.50033
1.50102
1.50154
1.5027
1.50734
1.5265
1.56912
1.59376
1.59412
1.59257
1.59015
1.58617
1.57569
1.54654
1.50623
1.48752
1.48105
1.47401
1.46431
1.45777
1.45494
1.45314
1.45372
1.46194
1.47785
1.49384
1.49766
1.49686
1.49521
1.49293
1.48916
1.48088
1.46538
1.44985
1.43967
1.42963
1.41784
1.41109
1.409
1.40896
1.41684
1.42523
1.42551
1.42468
1.42325
1.42067
1.41967
1.41937
1.41834
1.41736
1.41658
1.41536
1.41336
1.4106
1.40766
1.40452
1.39942
1.38885
1.36963
1.35552
1.35149
1.35123
1.35217
1.35661
1.36658
1.3763
1.37982
1.38106
1.38169
1.38129
1.37921
1.37591
1.37293
1.37044
1.36839
1.36584
1.3608
1.34967
1.33365
1.32373
1.32171
1.32021
1.31909
1.32004
1.32789
1.33899
1.34078
1.33888
1.33579
1.33362
1.33052
1.32284
1.30923
1.30278
1.30201
1.30148
1.30137
1.30279
1.30421
1.30349
1.30139
1.29904
1.29548
1.29223
1.28148
1.27731
1.29826
1.40156
1.61865
1.90709
2.20408
2.46191
2.00588
2.00237
2.00127
2.00084
2.00084
1.9992
1.99781
1.99763
1.99431
1.98919
1.98359
1.9772
1.96907
1.95995
1.94852
1.93756
1.93272
1.93035
1.92826
1.92748
1.92893
1.93512
1.94938
1.96509
1.96904
1.96761
1.96173
1.94903
1.93433
1.92496
1.91931
1.91386
1.91007
1.90769
1.90592
1.90655
1.91001
1.91019
1.90717
1.89938
1.88451
1.87326
1.87023
1.86796
1.86502
1.86169
1.85785
1.85339
1.845
1.83084
1.81266
1.80207
1.79803
1.7968
1.79584
1.7967
1.8036
1.80622
1.80381
1.80187
1.80041
1.79877
1.79641
1.79352
1.78682
1.76769
1.74381
1.73587
1.73487
1.73475
1.73682
1.73692
1.73484
1.73276
1.73069
1.72825
1.72494
1.71916
1.71092
1.7045
1.70383
1.70456
1.70818
1.71351
1.71644
1.71708
1.71654
1.71348
1.70541
1.68984
1.67881
1.67624
1.67492
1.67491
1.67967
1.68734
1.68769
1.68446
1.67991
1.67349
1.66568
1.65787
1.65368
1.65263
1.653
1.65206
1.64975
1.64625
1.63831
1.61835
1.59133
1.57623
1.57104
1.5688
1.56731
1.56792
1.57834
1.59698
1.60433
1.60614
1.60727
1.60702
1.60509
1.60195
1.59352
1.56969
1.54259
1.53458
1.53383
1.53315
1.53339
1.53862
1.55015
1.55753
1.56042
1.56299
1.56439
1.56436
1.561
1.5429
1.50764
1.49321
1.49312
1.49325
1.49364
1.49537
1.50354
1.53229
1.58038
1.59741
1.59505
1.59222
1.58862
1.58293
1.56839
1.53146
1.48848
1.46703
1.45676
1.45034
1.44707
1.44505
1.44381
1.44664
1.46152
1.48806
1.49605
1.49437
1.49301
1.49214
1.4893
1.48075
1.4636
1.44919
1.44415
1.4413
1.43767
1.42951
1.41719
1.41135
1.41103
1.41496
1.42063
1.42138
1.42073
1.41922
1.41678
1.41371
1.41131
1.4091
1.40747
1.40667
1.40634
1.40663
1.40531
1.40328
1.40147
1.39931
1.39438
1.3833
1.36384
1.35079
1.34748
1.34743
1.3488
1.3539
1.36379
1.37203
1.37466
1.37525
1.37555
1.37552
1.37477
1.37287
1.37018
1.36767
1.36521
1.36175
1.35472
1.33995
1.32286
1.31462
1.31185
1.30964
1.30825
1.31012
1.32114
1.33387
1.33763
1.33816
1.33765
1.33623
1.33308
1.32383
1.30672
1.29716
1.29591
1.29499
1.29435
1.29454
1.29561
1.29553
1.29354
1.29046
1.28761
1.28374
1.27907
1.2693
1.2731
1.31015
1.43526
1.66076
2.10384
2.00815
1.99933
1.99514
1.993
1.99133
1.99289
1.99834
1.99704
1.99316
1.98909
1.98425
1.97692
1.96524
1.94648
1.92732
1.92116
1.92011
1.91882
1.91735
1.91698
1.91979
1.92628
1.93801
1.95203
1.95777
1.95782
1.95419
1.9448
1.92853
1.91357
1.90553
1.90146
1.89883
1.89731
1.89657
1.90044
1.90983
1.91192
1.9094
1.90503
1.89533
1.8766
1.86397
1.86084
1.85762
1.85392
1.85005
1.84638
1.84293
1.83601
1.82384
1.80597
1.79337
1.78851
1.78696
1.78568
1.78697
1.79543
1.79749
1.7952
1.79378
1.79386
1.79534
1.79449
1.7905
1.7808
1.75749
1.73443
1.72819
1.72669
1.72543
1.72534
1.72576
1.7245
1.72307
1.72174
1.72006
1.71721
1.71091
1.70148
1.69641
1.69636
1.69771
1.70192
1.70658
1.70849
1.7088
1.70844
1.70491
1.69496
1.67899
1.67046
1.66879
1.66737
1.6673
1.67137
1.67713
1.6768
1.67345
1.66987
1.66552
1.65953
1.65442
1.65082
1.64953
1.64986
1.64903
1.6466
1.6417
1.63003
1.60463
1.57576
1.56231
1.55826
1.55676
1.55588
1.55919
1.5788
1.60522
1.61143
1.61036
1.60885
1.60674
1.60363
1.59837
1.58462
1.55335
1.52882
1.52392
1.52289
1.52204
1.52252
1.52991
1.54589
1.55482
1.55716
1.55895
1.55991
1.55899
1.55311
1.52883
1.49368
1.48459
1.48469
1.48513
1.48711
1.49269
1.50807
1.54419
1.58297
1.59304
1.59216
1.58988
1.58607
1.5778
1.55257
1.49761
1.45321
1.44309
1.44114
1.43973
1.43841
1.43861
1.44443
1.46375
1.48469
1.48816
1.48716
1.48642
1.48513
1.47999
1.46392
1.44522
1.44097
1.44009
1.43949
1.43827
1.43579
1.43064
1.42237
1.41713
1.41618
1.41684
1.41786
1.41719
1.41573
1.41289
1.4076
1.4024
1.39988
1.39883
1.39811
1.39762
1.39857
1.40028
1.3993
1.39743
1.39587
1.39414
1.38984
1.37925
1.36012
1.34707
1.34394
1.34399
1.34543
1.35043
1.3595
1.3673
1.37047
1.37082
1.37042
1.36986
1.36927
1.36841
1.36707
1.36554
1.36314
1.35831
1.34696
1.32684
1.30959
1.30214
1.2987
1.29676
1.29692
1.30492
1.32697
1.33945
1.34127
1.34061
1.339
1.3369
1.33169
1.3169
1.29777
1.29032
1.28896
1.2878
1.28676
1.28634
1.28776
1.28911
1.28799
1.28523
1.28323
1.28138
1.27794
1.26879
1.26449
1.27554
1.32275
1.59323
2.00792
1.99976
1.99215
1.98932
1.98794
1.98738
1.98949
1.99341
1.9925
1.98947
1.98506
1.97778
1.9623
1.9342
1.91307
1.90868
1.90801
1.90819
1.90926
1.90985
1.91296
1.9208
1.92975
1.93692
1.93956
1.93989
1.93947
1.93503
1.92353
1.90824
1.89673
1.89106
1.88869
1.88765
1.88824
1.89755
1.91316
1.91494
1.91185
1.90754
1.89977
1.88395
1.86197
1.85249
1.84946
1.84609
1.84268
1.83947
1.83659
1.83383
1.8276
1.81502
1.79644
1.78407
1.77946
1.77832
1.77763
1.78166
1.79075
1.79159
1.79023
1.78933
1.78877
1.78811
1.78655
1.78239
1.7702
1.74276
1.72218
1.71807
1.71631
1.71482
1.71478
1.71736
1.71808
1.71707
1.71604
1.7146
1.71102
1.70262
1.69268
1.68912
1.68918
1.69031
1.69389
1.69761
1.69939
1.69996
1.69959
1.69533
1.68406
1.66847
1.66209
1.66056
1.65902
1.65849
1.6614
1.66721
1.6688
1.66724
1.66536
1.66312
1.65928
1.65254
1.64356
1.63993
1.63984
1.63957
1.63755
1.63181
1.61532
1.58494
1.56231
1.55483
1.55222
1.55113
1.55136
1.55868
1.58005
1.6009
1.60485
1.6035
1.60211
1.60075
1.598
1.59072
1.56944
1.53397
1.51661
1.51361
1.51257
1.51183
1.51345
1.5258
1.54576
1.55256
1.55325
1.55369
1.55341
1.55105
1.54159
1.51072
1.48121
1.47753
1.47932
1.48174
1.48563
1.49362
1.51476
1.55623
1.58363
1.58527
1.58351
1.58108
1.5747
1.55794
1.51206
1.45526
1.43762
1.43566
1.43464
1.43361
1.43488
1.44611
1.47122
1.48401
1.48394
1.48282
1.48151
1.47787
1.46593
1.44501
1.43592
1.43469
1.43391
1.43354
1.43478
1.43812
1.43916
1.43653
1.42934
1.41945
1.41415
1.41315
1.41223
1.41034
1.40696
1.40095
1.39508
1.39267
1.39162
1.39061
1.38969
1.38925
1.39135
1.39481
1.39424
1.39274
1.39148
1.39006
1.38666
1.37643
1.35631
1.34321
1.3408
1.34105
1.34238
1.34683
1.35494
1.36167
1.36395
1.36439
1.36454
1.36491
1.36562
1.36546
1.36446
1.36264
1.35896
1.35039
1.331
1.30723
1.29519
1.29192
1.29072
1.29048
1.2942
1.31118
1.33801
1.34569
1.3442
1.34146
1.33863
1.33416
1.32499
1.3052
1.28732
1.28267
1.28138
1.28026
1.27945
1.2795
1.28209
1.28521
1.28636
1.28668
1.28552
1.28282
1.27749
1.26796
1.25832
1.2591
1.31159
2.00897
2.00384
1.99453
1.98831
1.98554
1.98343
1.98202
1.98393
1.9861
1.98368
1.9797
1.97344
1.95751
1.92851
1.90806
1.90122
1.89873
1.89818
1.89961
1.90588
1.91203
1.91605
1.91961
1.922
1.92186
1.92009
1.9188
1.91738
1.91329
1.90444
1.8916
1.88313
1.88076
1.88024
1.88214
1.89115
1.90324
1.90493
1.90289
1.90034
1.8969
1.88718
1.86535
1.84517
1.84048
1.83825
1.83578
1.83316
1.83051
1.82795
1.82543
1.81949
1.80658
1.7878
1.77649
1.77274
1.77169
1.77125
1.77654
1.78658
1.78786
1.78651
1.78515
1.78336
1.78121
1.77856
1.77205
1.75379
1.72489
1.71173
1.70978
1.70836
1.70744
1.70841
1.71242
1.71355
1.71224
1.70996
1.70733
1.70305
1.69321
1.68362
1.68128
1.68126
1.68255
1.68617
1.68951
1.691
1.69153
1.69113
1.68539
1.67116
1.65646
1.65239
1.65091
1.64919
1.64819
1.65081
1.6604
1.66677
1.66726
1.66566
1.66262
1.65638
1.64533
1.63502
1.63236
1.63135
1.62911
1.62494
1.61567
1.59771
1.57287
1.55637
1.55143
1.54964
1.54897
1.5503
1.55897
1.57887
1.59765
1.6003
1.59825
1.59606
1.59397
1.58989
1.57771
1.5486
1.51731
1.50646
1.50461
1.50385
1.50358
1.50803
1.52413
1.54226
1.54666
1.54633
1.54591
1.54532
1.54237
1.52962
1.49671
1.47438
1.47335
1.47577
1.47881
1.48408
1.49549
1.52146
1.55919
1.57595
1.57565
1.57276
1.56757
1.55516
1.52591
1.47138
1.43855
1.43344
1.43207
1.43114
1.43347
1.45068
1.47477
1.47975
1.47844
1.47633
1.47327
1.46505
1.44674
1.43262
1.43017
1.42932
1.42863
1.42907
1.43485
1.44288
1.44537
1.44396
1.43929
1.42902
1.41483
1.40721
1.40492
1.40263
1.39951
1.39534
1.39079
1.38703
1.38466
1.38338
1.38234
1.38143
1.38144
1.38605
1.3906
1.38986
1.38919
1.38885
1.38795
1.38486
1.37443
1.35323
1.33957
1.33674
1.33657
1.33765
1.34188
1.3485
1.35398
1.35692
1.35852
1.35954
1.36012
1.36048
1.36044
1.3596
1.35671
1.34945
1.33405
1.30973
1.29412
1.28982
1.28883
1.28841
1.29014
1.30011
1.32253
1.33869
1.33956
1.33725
1.33511
1.33292
1.32736
1.31298
1.28983
1.27789
1.27569
1.27461
1.27373
1.27347
1.27634
1.28331
1.28859
1.28921
1.28764
1.2855
1.28204
1.27444
1.263
1.25268
1.24718
1.99984
1.99766
1.99458
1.98828
1.98326
1.98001
1.97764
1.97619
1.97566
1.97305
1.96936
1.96371
1.95076
1.92685
1.90775
1.89944
1.89499
1.89296
1.89289
1.89583
1.90107
1.90558
1.90805
1.90815
1.90627
1.90132
1.89872
1.89848
1.89838
1.89563
1.8877
1.87758
1.87418
1.87435
1.87764
1.88671
1.89626
1.89692
1.89485
1.89203
1.88827
1.88189
1.86688
1.8445
1.83312
1.83106
1.8292
1.82738
1.8249
1.82257
1.82034
1.8181
1.81339
1.80138
1.78166
1.77016
1.76718
1.76621
1.76622
1.77228
1.78068
1.78081
1.77862
1.77655
1.77434
1.7718
1.76825
1.75899
1.73658
1.71169
1.7039
1.70255
1.701
1.69993
1.70151
1.70906
1.71058
1.70854
1.70586
1.70238
1.69549
1.68363
1.67569
1.6745
1.67447
1.67592
1.67914
1.68157
1.68245
1.68255
1.68075
1.67226
1.65639
1.64504
1.64196
1.64021
1.63886
1.63897
1.64677
1.66366
1.66788
1.66687
1.66458
1.66055
1.65199
1.63709
1.62469
1.62069
1.61772
1.61387
1.60873
1.60105
1.59016
1.57502
1.5586
1.55066
1.54863
1.54843
1.55051
1.55699
1.5722
1.5891
1.59228
1.59017
1.58752
1.58406
1.57652
1.56026
1.53083
1.50673
1.49968
1.49877
1.4984
1.499
1.50457
1.52076
1.53679
1.53878
1.53812
1.53843
1.53826
1.53533
1.5202
1.48636
1.46941
1.46964
1.47253
1.4767
1.48338
1.49617
1.52168
1.55328
1.56346
1.56163
1.55668
1.54856
1.53241
1.49743
1.45079
1.43426
1.43241
1.43183
1.4367
1.45671
1.4733
1.47426
1.47195
1.46886
1.46233
1.44669
1.43009
1.42587
1.42509
1.42471
1.42464
1.42668
1.43558
1.44607
1.44842
1.44681
1.44338
1.43693
1.42183
1.40452
1.3975
1.39475
1.39192
1.38891
1.38596
1.38284
1.37945
1.37707
1.37578
1.37476
1.37415
1.37549
1.38338
1.38816
1.38754
1.38697
1.38663
1.38592
1.38284
1.37008
1.34614
1.33389
1.33177
1.33161
1.33262
1.33659
1.34245
1.34736
1.35074
1.35307
1.35422
1.35426
1.35388
1.35321
1.35143
1.34619
1.33607
1.32053
1.30159
1.29119
1.28906
1.2885
1.28965
1.29466
1.30538
1.3223
1.33367
1.33371
1.33125
1.32881
1.32536
1.31656
1.2968
1.27826
1.273
1.27175
1.27099
1.27056
1.27323
1.28455
1.29125
1.29078
1.28908
1.28732
1.28496
1.27999
1.26962
1.25225
1.23237
1.99486
1.99037
1.9872
1.98514
1.98209
1.97872
1.97515
1.97062
1.96622
1.96232
1.95848
1.95281
1.94242
1.92688
1.91274
1.90256
1.89557
1.8921
1.89124
1.89298
1.89491
1.89619
1.89637
1.89523
1.89071
1.88341
1.88066
1.8805
1.88217
1.88342
1.88204
1.87606
1.86987
1.86921
1.87179
1.87784
1.88526
1.88606
1.88412
1.8813
1.87763
1.87255
1.86396
1.84702
1.82974
1.82367
1.82186
1.82027
1.81977
1.81888
1.81749
1.81601
1.81418
1.80969
1.7964
1.77486
1.76372
1.76144
1.76051
1.76067
1.76651
1.7738
1.77312
1.77031
1.76785
1.76549
1.76263
1.75801
1.74592
1.72028
1.70111
1.69686
1.69565
1.69425
1.69369
1.69761
1.70398
1.7033
1.70053
1.69769
1.69459
1.6878
1.67511
1.66761
1.66715
1.66731
1.66906
1.6716
1.67284
1.6731
1.67261
1.66918
1.65751
1.64136
1.63342
1.63124
1.63006
1.62969
1.63443
1.65087
1.66582
1.66709
1.66546
1.66217
1.65645
1.6432
1.6224
1.61002
1.60555
1.60202
1.59891
1.59684
1.59411
1.589
1.57934
1.56337
1.55078
1.54682
1.54582
1.54563
1.54971
1.56285
1.57942
1.58288
1.58029
1.57617
1.5711
1.56339
1.5491
1.52302
1.50064
1.49385
1.49283
1.49201
1.49219
1.49797
1.51482
1.52971
1.53249
1.53291
1.53368
1.53367
1.5303
1.51258
1.47794
1.46474
1.46586
1.46922
1.47388
1.48073
1.49258
1.51512
1.5413
1.54787
1.54508
1.53923
1.53002
1.51241
1.4791
1.44616
1.43792
1.43759
1.44435
1.46188
1.46904
1.46788
1.46493
1.4603
1.44857
1.43022
1.42262
1.4211
1.42034
1.42002
1.42083
1.42705
1.44162
1.44982
1.44955
1.44704
1.44382
1.43899
1.42793
1.40673
1.39125
1.38766
1.38556
1.38341
1.38141
1.37929
1.37662
1.37344
1.37119
1.3701
1.36952
1.36938
1.3726
1.38335
1.38853
1.38763
1.38706
1.38633
1.38428
1.37845
1.36299
1.33906
1.32775
1.32595
1.32609
1.32769
1.33201
1.33713
1.34087
1.34335
1.34532
1.34665
1.34664
1.34574
1.34361
1.33971
1.33462
1.32817
1.31769
1.30225
1.29225
1.29029
1.29038
1.29188
1.29479
1.30189
1.31601
1.32658
1.32632
1.32382
1.32125
1.31668
1.30461
1.28338
1.27266
1.27097
1.27037
1.27001
1.2707
1.27637
1.28723
1.29211
1.29227
1.29081
1.28848
1.28351
1.27101
1.24607
1.22443
1.98914
1.98487
1.98157
1.98025
1.97911
1.97606
1.9714
1.9649
1.95736
1.95063
1.94419
1.93705
1.92933
1.9222
1.9148
1.90991
1.90704
1.90367
1.89869
1.89333
1.88836
1.88626
1.88438
1.88038
1.87308
1.8684
1.86675
1.86623
1.86784
1.87145
1.87373
1.87368
1.87022
1.86553
1.86514
1.86811
1.87251
1.87353
1.87194
1.86915
1.86564
1.86113
1.85516
1.84523
1.82947
1.81766
1.81458
1.8132
1.81292
1.81615
1.81624
1.81494
1.81346
1.81138
1.80569
1.78904
1.76637
1.75652
1.75456
1.7534
1.7533
1.75881
1.7659
1.76521
1.76234
1.75985
1.75752
1.75464
1.74829
1.73205
1.70578
1.69284
1.6907
1.68963
1.68893
1.68935
1.69455
1.69953
1.69876
1.6965
1.69375
1.68919
1.67915
1.6658
1.66031
1.66021
1.66044
1.66163
1.66293
1.6633
1.6629
1.66098
1.65348
1.63774
1.62592
1.62278
1.6216
1.6217
1.62711
1.64267
1.65889
1.66284
1.66233
1.66089
1.65692
1.64589
1.62227
1.6007
1.59535
1.59367
1.59257
1.59214
1.59304
1.59212
1.58897
1.58116
1.56354
1.54672
1.54108
1.53968
1.53877
1.54058
1.55064
1.56711
1.57139
1.56892
1.56531
1.5614
1.5559
1.54227
1.51427
1.49268
1.48677
1.48569
1.48477
1.48524
1.49273
1.51272
1.52826
1.53014
1.53016
1.53083
1.53068
1.52597
1.50342
1.4678
1.4582
1.45993
1.4634
1.46774
1.47354
1.48336
1.50277
1.5267
1.53231
1.52955
1.52427
1.51634
1.50064
1.47299
1.45058
1.44678
1.44868
1.45736
1.46213
1.46071
1.45683
1.44861
1.43181
1.41938
1.41695
1.41588
1.41522
1.41544
1.41852
1.42866
1.43854
1.44291
1.44303
1.441
1.43857
1.4357
1.42929
1.41298
1.39119
1.38293
1.38169
1.38036
1.37871
1.37672
1.3742
1.37122
1.36847
1.36675
1.36588
1.36543
1.36574
1.37045
1.37914
1.38181
1.381
1.38041
1.37971
1.37782
1.37207
1.35558
1.3314
1.32156
1.3205
1.32102
1.32382
1.32852
1.33144
1.33264
1.33359
1.33509
1.33668
1.33664
1.33563
1.33464
1.3333
1.33129
1.32731
1.31853
1.30357
1.29263
1.28997
1.28919
1.28871
1.28999
1.29585
1.30958
1.31945
1.3189
1.31646
1.31368
1.30779
1.29431
1.27733
1.27151
1.27075
1.27039
1.27011
1.27159
1.27934
1.29091
1.2934
1.29153
1.28851
1.2833
1.26915
1.24103
1.2228
1.98211
1.98011
1.9784
1.97606
1.97352
1.97011
1.96566
1.95985
1.95191
1.94035
1.92806
1.91932
1.91543
1.91339
1.91364
1.9154
1.91676
1.9139
1.90736
1.89761
1.8871
1.87789
1.86969
1.8617
1.85796
1.85657
1.85538
1.85488
1.85636
1.86066
1.86452
1.86798
1.86892
1.86568
1.85901
1.85711
1.85789
1.85907
1.85822
1.85583
1.85257
1.84848
1.84381
1.83813
1.82845
1.81594
1.80889
1.80749
1.80692
1.81095
1.81668
1.8157
1.8139
1.81179
1.80773
1.79815
1.77837
1.75687
1.74824
1.74638
1.74515
1.74509
1.75071
1.75803
1.75769
1.75487
1.75232
1.74976
1.74623
1.73809
1.71827
1.69443
1.68625
1.68515
1.68427
1.6835
1.68491
1.69046
1.69174
1.68979
1.68745
1.68507
1.68106
1.67046
1.65652
1.65262
1.65236
1.65246
1.65311
1.65329
1.65258
1.65093
1.64607
1.63367
1.62078
1.61667
1.61559
1.61594
1.62205
1.63906
1.65253
1.65377
1.65305
1.65178
1.6491
1.64158
1.62252
1.5988
1.58964
1.58838
1.58769
1.58811
1.5911
1.59263
1.59132
1.58817
1.57922
1.55773
1.53803
1.53171
1.52965
1.5279
1.52834
1.53745
1.55654
1.56388
1.56258
1.56073
1.55767
1.55069
1.53336
1.50356
1.48491
1.47997
1.47904
1.47804
1.47998
1.49182
1.51584
1.52882
1.52882
1.52835
1.52807
1.52637
1.51871
1.49081
1.4564
1.45024
1.452
1.45515
1.45888
1.46323
1.47109
1.48938
1.51337
1.51887
1.51685
1.51417
1.50905
1.49836
1.47894
1.46162
1.45723
1.45614
1.455
1.45244
1.44711
1.4346
1.41913
1.41405
1.41276
1.4118
1.41131
1.41237
1.42073
1.43262
1.43557
1.43667
1.43725
1.43544
1.43306
1.43094
1.42774
1.41848
1.39819
1.38066
1.37686
1.37625
1.37514
1.37364
1.37148
1.3688
1.36645
1.36461
1.3633
1.36274
1.36273
1.36359
1.36823
1.37573
1.3775
1.37666
1.37579
1.37472
1.37242
1.36572
1.34735
1.32401
1.31603
1.31549
1.31702
1.32026
1.32146
1.32133
1.32124
1.32168
1.32306
1.32559
1.32907
1.33165
1.33333
1.33377
1.33284
1.32926
1.31995
1.30237
1.28787
1.28391
1.28307
1.28239
1.2835
1.28949
1.30348
1.31221
1.3113
1.30863
1.30551
1.30058
1.29028
1.27614
1.27089
1.26991
1.26921
1.26924
1.274
1.28377
1.28844
1.28797
1.28579
1.28127
1.26871
1.24091
1.22314
1.9777
1.97431
1.97304
1.97136
1.96915
1.96612
1.96246
1.95736
1.94569
1.92617
1.91301
1.90922
1.90702
1.90554
1.90941
1.91911
1.92229
1.92008
1.91565
1.90731
1.88884
1.86428
1.85072
1.84768
1.84647
1.84538
1.84473
1.84548
1.84816
1.85283
1.85974
1.86342
1.86349
1.86116
1.85453
1.84538
1.84309
1.84333
1.8428
1.84087
1.83776
1.83422
1.83129
1.82868
1.82473
1.81656
1.80728
1.80312
1.80245
1.80279
1.80529
1.80573
1.80455
1.80311
1.8015
1.79825
1.78784
1.76682
1.74735
1.73995
1.73826
1.73704
1.73706
1.74251
1.74981
1.74994
1.74736
1.74499
1.74267
1.73854
1.72786
1.70485
1.68554
1.68017
1.67921
1.6782
1.67826
1.68291
1.68659
1.68567
1.68399
1.68249
1.68021
1.67303
1.65831
1.64658
1.64471
1.64418
1.64387
1.64348
1.64252
1.64089
1.63762
1.62938
1.61738
1.61228
1.61188
1.61325
1.61909
1.63268
1.64418
1.64494
1.64396
1.64249
1.63954
1.63365
1.62133
1.60168
1.58859
1.58473
1.5837
1.58441
1.59147
1.5937
1.59206
1.58937
1.58403
1.57135
1.54582
1.52698
1.52132
1.51946
1.51817
1.51941
1.53088
1.55113
1.55677
1.55496
1.55304
1.55039
1.54313
1.52315
1.49244
1.47812
1.47517
1.47433
1.47437
1.47813
1.49135
1.51326
1.52276
1.52286
1.52306
1.52306
1.52073
1.50998
1.47655
1.44422
1.43999
1.4416
1.44412
1.44693
1.45067
1.45854
1.47807
1.50405
1.51185
1.51247
1.51359
1.51209
1.5049
1.48827
1.46509
1.45111
1.44646
1.44216
1.4339
1.41958
1.41153
1.41033
1.40942
1.40848
1.40846
1.41188
1.42291
1.42848
1.42904
1.42912
1.43042
1.4297
1.42741
1.42557
1.42342
1.41869
1.40561
1.38399
1.37308
1.37144
1.37094
1.37054
1.36951
1.36803
1.36637
1.36452
1.36248
1.36084
1.3599
1.3596
1.36015
1.36389
1.36963
1.37222
1.37204
1.37067
1.36895
1.36641
1.359
1.33936
1.31744
1.31114
1.31086
1.31092
1.31045
1.30996
1.30972
1.31005
1.31158
1.31481
1.32084
1.32901
1.3346
1.33686
1.33699
1.33536
1.33023
1.31624
1.29302
1.27988
1.27755
1.27632
1.2753
1.27605
1.28229
1.29744
1.30649
1.30583
1.30453
1.30313
1.29903
1.28825
1.27429
1.26977
1.26884
1.26855
1.27091
1.2781
1.28255
1.28217
1.2798
1.27577
1.26665
1.24706
1.22717
1.97469
1.96921
1.96714
1.96802
1.96764
1.96483
1.96071
1.95268
1.93617
1.91566
1.90564
1.90223
1.90028
1.89979
1.90541
1.9213
1.92767
1.92537
1.92021
1.90981
1.88598
1.85436
1.84194
1.83963
1.83833
1.83729
1.83667
1.83755
1.84138
1.84714
1.85211
1.85433
1.85465
1.85338
1.8489
1.83898
1.82979
1.82755
1.82641
1.82446
1.82156
1.8194
1.81843
1.81837
1.81771
1.81495
1.80926
1.80213
1.79827
1.7978
1.79769
1.79742
1.79667
1.79531
1.79352
1.79149
1.78738
1.77598
1.7556
1.73858
1.73201
1.73048
1.72925
1.72929
1.73409
1.74141
1.74235
1.73994
1.73747
1.73501
1.72972
1.71629
1.69271
1.67834
1.67468
1.67383
1.67319
1.67601
1.68036
1.67923
1.67698
1.67507
1.67329
1.67037
1.66134
1.64571
1.63759
1.63641
1.63561
1.63481
1.63358
1.63176
1.62932
1.6255
1.61758
1.60991
1.60878
1.61047
1.61538
1.62464
1.63312
1.6342
1.63316
1.63156
1.62869
1.62393
1.61725
1.60668
1.59258
1.58445
1.58261
1.58245
1.58469
1.58589
1.58512
1.58414
1.5823
1.57616
1.55945
1.53272
1.51701
1.5122
1.51057
1.50942
1.51117
1.52472
1.5463
1.55107
1.54919
1.54755
1.54504
1.53721
1.51524
1.48528
1.47262
1.47037
1.46921
1.46915
1.47324
1.48846
1.51176
1.51937
1.51908
1.51874
1.51788
1.51419
1.49817
1.45829
1.43069
1.42831
1.42986
1.43236
1.43493
1.43832
1.44728
1.47113
1.5035
1.51932
1.52445
1.52466
1.52101
1.5086
1.48139
1.45292
1.43778
1.42805
1.41632
1.40782
1.40638
1.40595
1.40586
1.40622
1.40773
1.41595
1.42329
1.4234
1.42294
1.42257
1.4233
1.42371
1.42153
1.41936
1.41749
1.41485
1.40836
1.39374
1.37518
1.36747
1.36654
1.36571
1.36481
1.36437
1.36373
1.36262
1.36123
1.35979
1.35805
1.35648
1.3559
1.35597
1.35791
1.36292
1.36661
1.36677
1.36535
1.36382
1.36118
1.35377
1.33505
1.3113
1.30209
1.30074
1.29995
1.29922
1.29885
1.29914
1.30089
1.30471
1.31183
1.32275
1.3332
1.33774
1.33839
1.33788
1.33542
1.32778
1.3076
1.28229
1.27182
1.26975
1.26805
1.26698
1.26808
1.27687
1.29546
1.30371
1.30277
1.30138
1.29981
1.29568
1.28543
1.27337
1.26959
1.26892
1.26909
1.27198
1.27493
1.27419
1.2714
1.2678
1.26216
1.25192
1.23535
1.97632
1.96859
1.96306
1.95959
1.95807
1.9559
1.95215
1.9435
1.92667
1.91147
1.90374
1.89959
1.89719
1.89691
1.9063
1.91872
1.91998
1.91825
1.9154
1.90715
1.88376
1.85393
1.8401
1.83515
1.83249
1.831
1.83014
1.83051
1.83503
1.84153
1.84499
1.84625
1.84607
1.84496
1.84207
1.83311
1.81882
1.81151
1.80942
1.80767
1.80577
1.80465
1.80473
1.80682
1.8104
1.81159
1.80924
1.80367
1.79577
1.79024
1.78925
1.78811
1.78709
1.78633
1.78487
1.78288
1.7805
1.77593
1.76482
1.74593
1.73038
1.72429
1.72295
1.72175
1.72171
1.72541
1.73228
1.73354
1.73103
1.72826
1.7255
1.71952
1.70574
1.68409
1.67235
1.66924
1.66847
1.66902
1.67294
1.67364
1.67162
1.6697
1.66815
1.66637
1.66117
1.64707
1.63314
1.62935
1.62779
1.62666
1.62545
1.62388
1.62217
1.62051
1.61751
1.61119
1.60697
1.60735
1.61112
1.61657
1.6205
1.62085
1.61967
1.61823
1.61652
1.61395
1.61063
1.60714
1.60093
1.59116
1.58389
1.5821
1.58191
1.58056
1.57923
1.57784
1.57601
1.57266
1.56409
1.54572
1.52166
1.50921
1.50494
1.50346
1.50256
1.5049
1.52057
1.54274
1.5464
1.54487
1.5433
1.54075
1.53173
1.50506
1.4755
1.46577
1.46402
1.46266
1.46223
1.46712
1.48642
1.51034
1.51548
1.51502
1.51449
1.51233
1.50593
1.4825
1.4381
1.41659
1.41601
1.41752
1.41898
1.42051
1.42458
1.43987
1.48001
1.5224
1.53253
1.53279
1.53068
1.52289
1.49981
1.45965
1.42709
1.41108
1.40388
1.40182
1.4009
1.40026
1.40009
1.40267
1.41121
1.42181
1.42195
1.41904
1.41767
1.41702
1.41642
1.41666
1.41558
1.41311
1.41107
1.4092
1.40666
1.39943
1.38362
1.36732
1.36203
1.36123
1.36073
1.36184
1.36336
1.36244
1.36106
1.35958
1.35756
1.35508
1.35251
1.3515
1.35131
1.3523
1.35633
1.36063
1.362
1.361
1.35925
1.35613
1.34737
1.3248
1.29935
1.29131
1.29024
1.28969
1.28939
1.28969
1.29169
1.29625
1.30462
1.31809
1.33148
1.33658
1.33739
1.33755
1.33686
1.33374
1.32232
1.29503
1.27118
1.26436
1.26235
1.26072
1.25996
1.26228
1.27514
1.29571
1.30148
1.30075
1.29952
1.29788
1.29432
1.2853
1.2728
1.26742
1.26639
1.26603
1.26707
1.26643
1.26383
1.26069
1.25656
1.25169
1.2427
1.98011
1.97188
1.9635
1.95579
1.94994
1.94605
1.94048
1.93068
1.91858
1.90918
1.90436
1.90085
1.8987
1.89982
1.90761
1.91083
1.90875
1.90583
1.90203
1.89365
1.87567
1.85396
1.84038
1.83378
1.82935
1.82644
1.82532
1.82582
1.82883
1.83212
1.834
1.83562
1.83604
1.83482
1.83252
1.82524
1.80752
1.7959
1.7939
1.79282
1.79176
1.79151
1.7929
1.79676
1.80264
1.80637
1.80633
1.80278
1.79551
1.78604
1.78014
1.77885
1.77744
1.77625
1.77566
1.77449
1.77222
1.76967
1.76531
1.75535
1.73734
1.72203
1.71662
1.71534
1.71399
1.7133
1.71564
1.72214
1.7235
1.72114
1.71873
1.71641
1.71022
1.69663
1.67692
1.66718
1.66466
1.66405
1.66481
1.66678
1.66581
1.66364
1.66192
1.66016
1.65708
1.64822
1.6322
1.62244
1.6201
1.61894
1.61811
1.61744
1.61701
1.61649
1.6154
1.613
1.60864
1.60549
1.60504
1.606
1.60644
1.60583
1.60473
1.6039
1.60384
1.60562
1.60599
1.60471
1.60319
1.59975
1.59172
1.58106
1.57655
1.57589
1.57428
1.57213
1.56976
1.56683
1.56242
1.55279
1.53478
1.51331
1.50187
1.49737
1.49608
1.49528
1.49874
1.51709
1.54099
1.54525
1.54374
1.54166
1.53667
1.52365
1.49306
1.46587
1.45833
1.45666
1.45527
1.45538
1.46261
1.48527
1.50612
1.50884
1.50841
1.50788
1.50491
1.49503
1.46157
1.41672
1.40326
1.40337
1.4044
1.40563
1.40867
1.41938
1.45306
1.51006
1.53868
1.54025
1.53847
1.53252
1.51344
1.46599
1.41731
1.40151
1.39784
1.39574
1.3942
1.39337
1.39421
1.4012
1.41636
1.42181
1.42022
1.41752
1.41348
1.41176
1.41055
1.40949
1.40915
1.40764
1.40538
1.40356
1.40189
1.39924
1.39122
1.37423
1.36029
1.35703
1.35643
1.35596
1.35655
1.3583
1.35831
1.35725
1.3559
1.35405
1.35153
1.34814
1.34661
1.34623
1.34666
1.35074
1.3561
1.35674
1.35479
1.35238
1.34824
1.33684
1.31116
1.28897
1.28294
1.28249
1.28246
1.28294
1.28464
1.28845
1.29601
1.30887
1.32375
1.33242
1.33531
1.33663
1.33708
1.33624
1.33094
1.31126
1.27746
1.25975
1.25647
1.25472
1.25327
1.25295
1.25765
1.2762
1.29768
1.30155
1.3011
1.30017
1.29861
1.29464
1.28342
1.26894
1.2632
1.26157
1.26008
1.25809
1.2555
1.25311
1.25109
1.24903
1.24586
1.97989
1.97478
1.96697
1.95625
1.94417
1.93373
1.92522
1.91742
1.91208
1.90961
1.90722
1.90532
1.90587
1.91014
1.90962
1.90559
1.90126
1.89647
1.88888
1.87647
1.86342
1.85356
1.84633
1.83854
1.83051
1.82506
1.82235
1.82169
1.82434
1.82604
1.82649
1.82758
1.82716
1.82542
1.82318
1.81669
1.7984
1.78292
1.78053
1.77976
1.77917
1.77948
1.78155
1.78621
1.7934
1.79834
1.79868
1.79753
1.7933
1.78411
1.77255
1.7681
1.76699
1.76584
1.7651
1.76565
1.76459
1.76251
1.76057
1.75648
1.74688
1.7283
1.71249
1.70779
1.70651
1.70511
1.70425
1.70612
1.713
1.71449
1.71217
1.70973
1.70752
1.70178
1.68964
1.67189
1.66172
1.65887
1.65802
1.65826
1.65909
1.6573
1.6555
1.65403
1.65213
1.64714
1.63217
1.61679
1.61371
1.61264
1.61172
1.61139
1.61251
1.6136
1.61426
1.61392
1.61153
1.60597
1.59791
1.59316
1.59196
1.59106
1.59039
1.59015
1.59089
1.59524
1.60167
1.60487
1.60528
1.60315
1.59751
1.58563
1.57288
1.56917
1.56774
1.56554
1.56316
1.5605
1.55715
1.55212
1.54234
1.52474
1.50451
1.49515
1.49191
1.49116
1.49097
1.49521
1.51273
1.53265
1.53619
1.5352
1.53418
1.52925
1.51298
1.47869
1.45608
1.45095
1.44948
1.44825
1.44917
1.45917
1.48422
1.50104
1.50229
1.50216
1.50144
1.4969
1.47902
1.43316
1.39646
1.39086
1.39139
1.39267
1.39574
1.40494
1.43239
1.48646
1.52775
1.53514
1.53478
1.5306
1.51668
1.47532
1.41912
1.39695