/*--------------------------------*- C++ -*----------------------------------*\
  =========                 |
  \\      /  F ield         | OpenFOAM: The Open Source CFD Toolbox
   \\    /   O peration     | Website:  https://openfoam.org
    \\  /    A nd           | Version:  7
     \\/     M anipulation  |
\*---------------------------------------------------------------------------*/
FoamFile
{
    version     2.0;
    format      ascii;
    class       volScalarField;
    location    "1";
    object      T;
}
// * * * * * * * * * * * * * * * * * * * * * * * * * * * * * * * * * * * * * //

dimensions      [0 0 0 1 0 0 0];

internalField   nonuniform List<scalar> 
16192
(
1.59645
1.59841
1.59977
1.6007
1.60028
1.59372
1.58022
1.576
1.57628
1.57624
1.57689
1.57897
1.58254
1.58818
1.59556
1.60582
1.62388
1.65996
1.73103
1.85857
2.05348
2.24966
2.31594
2.31414
2.31502
2.31442
2.31362
2.31585
2.3233
2.33087
2.33296
2.32735
2.30948
2.28346
2.26383
2.25578
2.25306
2.24716
2.22927
2.20116
2.18123
2.17555
2.17258
2.16853
2.16547
2.16246
2.16141
2.163
2.16957
2.18322
2.20163
2.2205
2.23931
2.25934
2.28017
2.29652
2.30366
2.30311
2.29534
2.28652
2.27738
2.26775
2.26464
2.27039
2.27425
2.27408
2.27117
2.26347
2.25745
2.25618
2.24969
2.24798
2.24666
2.24288
2.24214
2.24271
2.24338
2.24331
2.24021
2.23409
2.22732
2.21473
2.19642
2.1785
2.17016
2.16971
2.17028
2.17252
2.1766
2.18168
2.18696
2.19367
2.20226
2.20641
2.20621
2.204
2.20428
2.20624
2.20723
2.20796
2.20963
2.21339
2.21662
2.21658
2.21476
2.21264
2.21134
2.21046
2.20767
2.19946
2.1877
2.18399
2.18481
2.18642
2.18822
2.19138
2.19884
2.21156
2.21884
2.21857
2.21362
2.20631
2.1978
2.18371
2.16499
2.15664
2.15504
2.15516
2.16031
2.1757
2.18607
2.18608
2.18374
2.17969
2.17335
2.1667
2.16189
2.15687
2.15143
2.14856
2.14911
2.15685
2.1677
2.16935
2.1692
2.17011
2.17096
2.1691
2.16267
2.16057
2.16234
2.16652
2.1701
2.17512
2.18144
2.18341
2.18339
2.18385
2.1851
2.18714
2.19103
2.19691
2.20559
2.21688
2.22687
2.23232
2.23266
2.23214
2.22969
2.22492
2.21765
2.20606
2.19196
2.18224
2.17954
2.1802
2.18494
2.18819
2.18908
2.19037
2.19245
2.19506
2.19623
2.19466
2.1919
2.19229
2.19095
2.18616
2.1758
2.1548
2.11567
2.07051
2.06081
2.06251
2.06396
2.06657
2.07258
2.07974
2.08085
2.07587
2.07018
2.07134
2.06645
2.04795
2.00352
1.91577
1.79125
1.67749
1.64288
1.64174
1.64381
1.65345
1.6725
1.70124
1.73025
1.74498
1.74775
1.74517
1.73009
1.71407
1.71432
1.71413
1.71253
1.70924
1.70183
1.6934
1.69398
1.69767
1.70167
1.70392
1.7036
1.69351
1.66395
1.64235
1.64019
1.64267
1.64782
1.65756
1.67803
1.71341
1.75034
1.76604
1.76744
1.76167
1.7463
1.72248
1.69469
1.67006
1.64946
1.63203
1.62018
1.60992
1.60693
1.59393
1.59572
1.59749
1.59874
1.5985
1.59393
1.58259
1.57645
1.57668
1.57654
1.57687
1.57855
1.58187
1.5869
1.59677
1.60949
1.62654
1.65764
1.71717
1.82837
2.01194
2.22386
2.31951
2.32196
2.32144
2.32124
2.31947
2.31894
2.32269
2.33489
2.34207
2.33694
2.31726
2.29073
2.26994
2.25899
2.25452
2.24828
2.23103
2.2034
2.18738
2.18561
2.18393
2.17759
2.16859
2.16275
2.15838
2.15797
2.16219
2.17334
2.19066
2.21156
2.23317
2.25387
2.27175
2.28238
2.2848
2.28396
2.2829
2.28226
2.28098
2.27893
2.27471
2.26636
2.26073
2.25505
2.24858
2.23999
2.23078
2.22307
2.22021
2.22217
2.22065
2.22034
2.2232
2.22891
2.23519
2.23684
2.23564
2.2327
2.22737
2.21569
2.19729
2.17831
2.16825
2.16744
2.16795
2.16962
2.17189
2.17552
2.18237
2.19233
2.20193
2.20678
2.20712
2.20592
2.20485
2.20631
2.2073
2.20776
2.20888
2.211
2.21282
2.2138
2.21321
2.21114
2.20919
2.20779
2.20537
2.19973
2.18896
2.18102
2.18052
2.18138
2.18266
2.18557
2.19323
2.20619
2.21297
2.21226
2.20684
2.19931
2.19057
2.17776
2.1633
2.15562
2.15302
2.15242
2.15572
2.16903
2.1805
2.18126
2.17962
2.17653
2.17116
2.16439
2.15913
2.15404
2.14868
2.14558
2.14591
2.15308
2.16055
2.16003
2.15876
2.15891
2.15888
2.15692
2.15495
2.15543
2.1594
2.16499
2.16945
2.17459
2.17997
2.18095
2.18048
2.1807
2.18125
2.1818
2.18335
2.18814
2.19749
2.20977
2.22149
2.23022
2.2327
2.23247
2.23105
2.22576
2.21804
2.20682
2.19236
2.18056
2.1764
2.17654
2.17967
2.18285
2.18396
2.18535
2.1875
2.1906
2.19405
2.19439
2.19275
2.19285
2.1914
2.1865
2.17613
2.15562
2.11746
2.07046
2.05775
2.05932
2.06059
2.06299
2.06872
2.07677
2.08049
2.07911
2.07255
2.07161
2.06706
2.04869
2.00557
1.92059
1.79627
1.6838
1.64901
1.64797
1.65018
1.65982
1.67874
1.70711
1.73589
1.75087
1.75396
1.75197
1.73842
1.72105
1.71995
1.71947
1.71738
1.7137
1.70552
1.69425
1.69169
1.69572
1.70262
1.70653
1.70646
1.70007
1.68072
1.66061
1.6563
1.65785
1.6631
1.67289
1.69289
1.72127
1.74178
1.75062
1.75283
1.75149
1.74099
1.72123
1.69935
1.68258
1.66901
1.65566
1.64429
1.63735
1.63181
1.58582
1.58826
1.59106
1.59341
1.59389
1.59186
1.58361
1.57505
1.57417
1.57442
1.57515
1.5771
1.58087
1.58568
1.59299
1.60598
1.62299
1.64849
1.69482
1.78469
1.94501
2.15469
2.28967
2.32144
2.32933
2.3293
2.32774
2.326
2.32362
2.32014
2.31802
2.31433
2.30416
2.29248
2.27933
2.26248
2.24679
2.23734
2.22508
2.20292
2.19013
2.19403
2.19931
2.19771
2.1894
2.18419
2.18077
2.17989
2.18138
2.18817
2.20229
2.22245
2.24485
2.26599
2.28055
2.28495
2.28457
2.28245
2.28083
2.28105
2.2826
2.28412
2.284
2.28269
2.27962
2.27432
2.26719
2.25722
2.23992
2.21102
2.18967
2.18607
2.1812
2.18091
2.18561
2.19511
2.20853
2.21975
2.22253
2.22274
2.22086
2.21285
2.19735
2.17772
2.16173
2.15812
2.15808
2.15811
2.15872
2.16168
2.1691
2.18021
2.19152
2.19958
2.20399
2.20498
2.20432
2.20491
2.20535
2.20528
2.20507
2.20502
2.20546
2.20547
2.20468
2.20272
2.19982
2.19741
2.19551
2.19184
2.18302
2.17356
2.17063
2.1702
2.17018
2.17151
2.17848
2.19275
2.20072
2.20011
2.19486
2.1868
2.1762
2.1622
2.14923
2.14164
2.13684
2.13467
2.13561
2.14458
2.15622
2.15772
2.15714
2.15586
2.15193
2.14541
2.13993
2.13474
2.12909
2.12555
2.12573
2.13241
2.14021
2.13945
2.13622
2.13428
2.13204
2.12926
2.12891
2.13091
2.13755
2.14604
2.15344
2.16065
2.16723
2.16945
2.16969
2.17037
2.17059
2.16912
2.16789
2.16938
2.17656
2.18942
2.20402
2.21738
2.22553
2.2269
2.22648
2.22357
2.21657
2.20641
2.19271
2.1781
2.16986
2.16901
2.17071
2.17297
2.17381
2.17485
2.17701
2.18143
2.18698
2.18924
2.18989
2.19049
2.18948
2.18563
2.17653
2.1577
2.12242
2.07432
2.05028
2.05002
2.05034
2.05232
2.05805
2.06717
2.07575
2.07796
2.07505
2.07062
2.06609
2.04931
2.00612
1.91889
1.79368
1.6811
1.64419
1.64266
1.64443
1.65341
1.67177
1.69867
1.72674
1.74285
1.74664
1.74495
1.73189
1.71532
1.71524
1.71556
1.71486
1.71369
1.71053
1.70078
1.69394
1.69616
1.70386
1.71098
1.7122
1.71064
1.70208
1.68735
1.68065
1.68214
1.68941
1.70219
1.72139
1.74174
1.75382
1.75733
1.75668
1.75126
1.74234
1.73413
1.72752
1.71921
1.70966
1.69968
1.69073
1.68478
1.67754
1.57145
1.57532
1.57999
1.58453
1.58672
1.58647
1.58274
1.57473
1.56943
1.56923
1.57013
1.57323
1.5793
1.58439
1.58882
1.5998
1.61752
1.63809
1.67336
1.7457
1.88254
2.08494
2.2556
2.31458
2.33169
2.33519
2.3362
2.33745
2.32994
2.31572
2.30418
2.29714
2.29636
2.29658
2.2907
2.27052
2.24359
2.22857
2.21821
2.19691
2.18044
2.1889
2.20336
2.20703
2.20343
2.19992
2.20019
2.20084
2.20147
2.2047
2.21331
2.22742
2.245
2.26237
2.27451
2.27999
2.28198
2.28253
2.28286
2.28372
2.28403
2.28284
2.27925
2.27332
2.26828
2.25968
2.24946
2.23877
2.21718
2.17467
2.12939
2.10822
2.10139
2.10244
2.11029
2.12759
2.15451
2.18159
2.19895
2.20371
2.20361
2.20007
2.18838
2.16777
2.14282
2.13219
2.13168
2.13165
2.13248
2.13605
2.14384
2.15645
2.17298
2.18857
2.19706
2.1991
2.19838
2.19888
2.19894
2.19876
2.19856
2.19779
2.19677
2.19637
2.19489
2.19038
2.18488
2.17997
2.1754
2.1688
2.15733
2.14737
2.14382
2.14278
2.14275
2.14428
2.1518
2.1668
2.17484
2.17464
2.17096
2.1637
2.15184
2.13542
2.12157
2.11129
2.1017
2.09564
2.0949
2.09962
2.1104
2.11369
2.1142
2.1145
2.1129
2.10772
2.10263
2.09774
2.09169
2.08534
2.0827
2.08452
2.08914
2.08864
2.08482
2.08382
2.08393
2.08398
2.08519
2.08909
2.09606
2.10642
2.11645
2.1245
2.13034
2.1332
2.13448
2.13579
2.13698
2.13769
2.13849
2.14123
2.14868
2.16042
2.17514
2.19279
2.20761
2.21388
2.21419
2.21286
2.20732
2.1986
2.18616
2.16936
2.15406
2.15067
2.15186
2.15372
2.15538
2.15766
2.16138
2.16765
2.17522
2.18045
2.18383
2.18416
2.18346
2.18062
2.17338
2.15746
2.12587
2.07863
2.04138
2.02976
2.02914
2.03059
2.03622
2.04602
2.06052
2.07178
2.07249
2.06783
2.06351
2.04917
2.00943
1.9266
1.80283
1.68557
1.64315
1.6408
1.64219
1.64993
1.66693
1.69225
1.72054
1.73875
1.74384
1.74273
1.73049
1.71444
1.71498
1.7171
1.7181
1.71923
1.71935
1.71359
1.70428
1.70308
1.70826
1.71704
1.72307
1.72589
1.72642
1.72461
1.7188
1.7172
1.72178
1.73367
1.74806
1.75931
1.76145
1.76071
1.75579
1.7506
1.7505
1.75445
1.75933
1.76107
1.76093
1.75841
1.75437
1.7515
1.74567
1.54848
1.55539
1.56359
1.57157
1.57546
1.57569
1.57464
1.56981
1.56327
1.56041
1.56079
1.56508
1.57429
1.58084
1.58438
1.59154
1.60812
1.62836
1.65797
1.71586
1.82764
2.00921
2.20615
2.30799
2.33382
2.3379
2.33805
2.32979
2.31543
2.30459
2.29565
2.28833
2.28554
2.28982
2.2944
2.28211
2.25422
2.23392
2.21919
2.19274
2.16854
2.17246
2.19159
2.20629
2.20641
2.20572
2.21014
2.21625
2.22003
2.22364
2.22952
2.23821
2.24929
2.26101
2.27143
2.27941
2.28421
2.28544
2.28545
2.28487
2.28172
2.27463
2.2655
2.2499
2.23301
2.22048
2.203
2.18508
2.16358
2.12335
2.06494
2.02275
2.01233
2.01268
2.02025
2.04111
2.08042
2.1269
2.16061
2.17051
2.1714
2.16977
2.16053
2.13788
2.1044
2.08174
2.07908
2.07925
2.08069
2.08564
2.09716
2.1175
2.14524
2.17281
2.18354
2.18326
2.18217
2.18222
2.18118
2.17933
2.17776
2.17678
2.17696
2.17841
2.17722
2.17077
2.16258
2.15493
2.14656
2.13348
2.11655
2.10461
2.09764
2.09244
2.09005
2.09043
2.09737
2.11436
2.12352
2.12385
2.12252
2.11781
2.10688
2.0913
2.07874
2.06661
2.05313
2.04254
2.03923
2.04066
2.04799
2.0519
2.05186
2.05189
2.05108
2.04792
2.04486
2.04169
2.0371
2.03037
2.02364
2.02142
2.0215
2.01866
2.01426
2.01376
2.01457
2.01681
2.02101
2.02824
2.03778
2.04991
2.06256
2.07146
2.07538
2.07626
2.07721
2.07825
2.07851
2.07884
2.08174
2.08798
2.09781
2.11117
2.12916
2.15379
2.17978
2.19194
2.19264
2.19033
2.18489
2.17805
2.16765
2.15109
2.12975
2.11918
2.11939
2.12012
2.12151
2.125
2.1317
2.14361
2.15859
2.16843
2.17224
2.1726
2.17172
2.16876
2.16234
2.14931
2.12242
2.07827
2.03124
2.00153
1.99743
1.99838
2.00334
2.01392
2.03298
2.05648
2.06412
2.06157
2.05797
2.04734
2.01475
1.93959
1.81515
1.69313
1.64469
1.64208
1.64364
1.65101
1.66632
1.69054
1.72104
1.74278
1.74832
1.74679
1.73393
1.71596
1.71519
1.71983
1.72418
1.72744
1.7283
1.72516
1.71668
1.71174
1.71321
1.72053
1.73052
1.73925
1.74675
1.75228
1.75343
1.75238
1.75335
1.75812
1.76476
1.76596
1.76375
1.75625
1.7509
1.75157
1.75756
1.76699
1.77885
1.79193
1.80233
1.8108
1.81538
1.81603
1.81467
1.5186
1.52836
1.54092
1.55321
1.56096
1.56266
1.56231
1.55932
1.55316
1.54915
1.54855
1.55176
1.56283
1.5717
1.57611
1.58251
1.5966
1.6182
1.6459
1.69254
1.78029
1.93274
2.13857
2.29519
2.33716
2.34059
2.33492
2.31718
2.30296
2.29514
2.28946
2.28681
2.28679
2.28655
2.2818
2.27304
2.26117
2.24712
2.22906
2.19504
2.16015
2.1579
2.17296
2.19259
2.19745
2.20083
2.21007
2.22076
2.23007
2.2375
2.24489
2.25208
2.25663
2.26184
2.26934
2.278
2.28502
2.2871
2.28618
2.2816
2.27253
2.25631
2.23594
2.2093
2.17169
2.14525
2.11865
2.09122
2.07498
2.04757
1.99697
1.94079
1.92091
1.92099
1.9265
1.94708
1.99123
2.0539
2.10594
2.11911
2.12023
2.11897
2.11091
2.08717
2.04602
2.01254
2.00532
2.00523
2.00619
2.01127
2.02511
2.05235
2.09436
2.14179
2.16295
2.16242
2.1607
2.15927
2.1558
2.15069
2.1459
2.14338
2.14358
2.14523
2.1433
2.13427
2.12345
2.11377
2.10293
2.0862
2.06823
2.05587
2.04412
2.03348
2.0272
2.0262
2.03033
2.04537
2.05504
2.05554
2.05516
2.05231
2.04289
2.02911
2.01793
2.00594
1.99167
1.97841
1.97107
1.97
1.97225
1.97429
1.97275
1.96965
1.96694
1.9645
1.96313
1.96138
1.95843
1.95373
1.94872
1.94713
1.94646
1.94238
1.93906
1.9389
1.9401
1.94268
1.94629
1.95236
1.96185
1.97505
1.98867
1.99874
2.00399
2.00618
2.00833
2.01027
2.01059
2.01048
2.01356
2.02134
2.03191
2.04477
2.06276
2.08986
2.12611
2.15439
2.15968
2.15747
2.15307
2.14782
2.1397
2.12498
2.10215
2.0838
2.07898
2.07868
2.07972
2.08375
2.09177
2.10667
2.1274
2.14309
2.14869
2.149
2.14776
2.14401
2.13717
2.1251
2.10233
2.06291
2.01299
1.96949
1.95947
1.9601
1.96446
1.97609
1.99768
2.03077
2.05382
2.05486
2.05059
2.04325
2.01775
1.95209
1.83414
1.70566
1.64425
1.6387
1.63982
1.64629
1.66103
1.68436
1.71405
1.73504
1.74059
1.73937
1.72756
1.71329
1.71395
1.72122
1.72947
1.73511
1.73685
1.73519
1.72643
1.71831
1.7181
1.72396
1.73508
1.74865
1.76153
1.76978
1.77503
1.77656
1.77426
1.76865
1.76411
1.75739
1.74968
1.74688
1.74827
1.75396
1.76248
1.77314
1.7869
1.80455
1.82606
1.84555
1.85542
1.85685
1.85644
1.48596
1.49782
1.51346
1.53028
1.54241
1.54622
1.54641
1.54469
1.53929
1.53521
1.53445
1.53616
1.54594
1.55806
1.56335
1.56978
1.5817
1.60382
1.63283
1.67278
1.74141
1.86459
2.06049
2.26148
2.33449
2.33759
2.32315
2.29998
2.29052
2.28874
2.28969
2.29028
2.2888
2.28125
2.26852
2.26007
2.2551
2.25082
2.24094
2.21113
2.1658
2.1531
2.15819
2.16613
2.17356
2.18691
2.20129
2.21598
2.23106
2.24348
2.25346
2.2632
2.26432
2.26218
2.26421
2.27127
2.27814
2.28066
2.27926
2.27281
2.26138
2.23478
2.19794
2.16163
2.10276
2.04563
2.00459
1.97647
1.96459
1.9519
1.92192
1.87214
1.83667
1.8333
1.83903
1.85967
1.90284
1.96746
2.02577
2.04142
2.0425
2.04111
2.03353
2.01122
1.96727
1.92454
1.91504
1.91494
1.9157
1.92062
1.93448
1.96318
2.0117
2.07341
2.11744
2.12781
2.1278
2.12669
2.12334
2.11794
2.11155
2.10509
2.10116
2.09961
2.09345
2.07992
2.06733
2.05683
2.0437
2.02588
2.01183
1.99933
1.98537
1.9723
1.96252
1.95832
1.95892
1.96689
1.97546
1.97586
1.97463
1.97131
1.96314
1.95289
1.94451
1.93494
1.92318
1.91144
1.90317
1.89968
1.89917
1.8984
1.89341
1.885
1.87871
1.87504
1.87342
1.87225
1.87055
1.86918
1.86905
1.87077
1.87135
1.86976
1.86918
1.86981
1.87121
1.87271
1.87445
1.87784
1.88482
1.89543
1.90639
1.9149
1.9201
1.92317
1.92661
1.93097
1.93459
1.93714
1.94219
1.95125
1.96203
1.97353
1.98872
2.01113
2.04375
2.08159
2.10363
2.10547
2.10484
2.1027
2.09798
2.08752
2.06806
2.04692
2.03532
2.0336
2.03451
2.03898
2.04775
2.06327
2.08383
2.09971
2.10407
2.10348
2.09999
2.09448
2.08716
2.07577
2.05624
2.02186
1.97443
1.92697
1.91323
1.9136
1.91738
1.92949
1.95289
1.99285
2.03654
2.0494
2.04551
2.03843
2.01858
1.96256
1.8516
1.72058
1.64521
1.63576
1.63662
1.64195
1.6551
1.67635
1.70438
1.72729
1.7352
1.73453
1.72311
1.71006
1.71162
1.72054
1.73136
1.73956
1.743
1.74248
1.73437
1.72154
1.7194
1.72419
1.73558
1.75274
1.77184
1.78199
1.78574
1.78674
1.78262
1.7698
1.75674
1.74979
1.748
1.74842
1.75108
1.7556
1.76239
1.77274
1.78792
1.80915
1.83338
1.85196
1.86228
1.86739
1.86968
1.45667
1.47043
1.48732
1.50568
1.5208
1.52574
1.52612
1.52506
1.52076
1.51708
1.51655
1.51767
1.52522
1.53877
1.54586
1.55319
1.5649
1.58428
1.61305
1.64963
1.70502
1.80383
1.97318
2.18924
2.31155
2.32077
2.30463
2.28615
2.28402
2.28576
2.28954
2.2905
2.28969
2.28162
2.26135
2.24255
2.23957
2.24035
2.23959
2.2264
2.18474
2.16047
2.15695
2.1494
2.15046
2.16819
2.18937
2.20903
2.22901
2.24497
2.25557
2.26519
2.26825
2.26396
2.25625
2.25883
2.26571
2.2681
2.26655
2.26219
2.2515
2.21689
2.1654
2.10819
2.02118
1.93391
1.88062
1.86159
1.8527
1.84691
1.83455
1.80786
1.77285
1.7616
1.76516
1.78313
1.81907
1.87288
1.92322
1.94108
1.94167
1.93998
1.9329
1.91463
1.87693
1.83225
1.81966
1.82003
1.82078
1.825
1.83748
1.86438
1.91333
1.98107
2.03918
2.06807
2.07245
2.07196
2.07019
2.06655
2.0613
2.05394
2.0459
2.03923
2.0273
2.0105
1.99791
1.98815
1.97508
1.96012
1.94981
1.93899
1.92625
1.91373
1.90248
1.8933
1.88924
1.89008
1.8933
1.89193
1.886
1.87962
1.87292
1.86731
1.86256
1.8569
1.84965
1.84198
1.83641
1.83418
1.83299
1.82965
1.82112
1.8085
1.79733
1.79063
1.78759
1.78687
1.7868
1.78774
1.79241
1.79886
1.80332
1.80703
1.80986
1.81085
1.81021
1.80953
1.80986
1.8114
1.81555
1.82194
1.82914
1.83645
1.84111
1.84441
1.84887
1.85516
1.86133
1.86649
1.87377
1.88339
1.89326
1.90343
1.91522
1.93052
1.9537
1.98732
2.02119
2.04048
2.04441
2.0441
2.04267
2.03748
2.02451
2.00612
1.99036
1.98693
1.98774
1.99203
2.00064
2.01475
2.03121
2.04152
2.04206
2.03816
2.03
2.02243
2.01336
2.00135
1.98349
1.95449
1.91594
1.87606
1.86422
1.86444
1.86774
1.87929
1.9026
1.94659
2.00839
2.04016
2.03915
2.03242
2.0169
1.9711
1.87143
1.73967
1.64993
1.63342
1.634
1.63817
1.64961
1.66874
1.69466
1.71952
1.72995
1.72955
1.71833
1.70579
1.70711
1.71714
1.72996
1.74022
1.74512
1.74566
1.74055
1.72602
1.72132
1.72482
1.73502
1.75205
1.77308
1.78542
1.78805
1.78834
1.78302
1.7657
1.75049
1.74688
1.74671
1.74789
1.75194
1.75826
1.7675
1.78153
1.79929
1.81496
1.82829
1.84049
1.85059
1.85708
1.85827
1.43652
1.44983
1.46534
1.48223
1.49715
1.50297
1.50343
1.50278
1.50014
1.49749
1.49662
1.49738
1.50316
1.51571
1.52297
1.53178
1.54499
1.56287
1.58886
1.6225
1.66803
1.74408
1.8769
2.07127
2.24646
2.29313
2.28588
2.28149
2.28302
2.28641
2.28638
2.2852
2.28426
2.27841
2.25862
2.23117
2.22385
2.22588
2.22882
2.22466
2.20253
2.17642
2.16073
2.14721
2.14482
2.15895
2.17944
2.19965
2.2219
2.23814
2.2486
2.25992
2.26414
2.26187
2.24953
2.24486
2.24904
2.25107
2.24963
2.2493
2.24083
2.1986
2.13204
2.04133
1.92334
1.81405
1.76468
1.75572
1.75559
1.75487
1.75184
1.74417
1.72446
1.7084
1.70914
1.72238
1.74579
1.77861
1.8131
1.83182
1.8346
1.83331
1.8274
1.81358
1.78629
1.74854
1.73189
1.73207
1.7328
1.73585
1.74569
1.76874
1.81439
1.88287
1.94804
1.99294
2.00539
2.00535
2.00443
2.00194
1.99755
1.98926
1.9763
1.96221
1.94344
1.92435
1.91309
1.90547
1.89698
1.88767
1.88121
1.87463
1.86641
1.85722
1.84728
1.83749
1.82982
1.82502
1.8202
1.80975
1.79639
1.78783
1.78373
1.78156
1.77956
1.77751
1.77517
1.77298
1.77238
1.77281
1.77263
1.76867
1.75879
1.74469
1.7296
1.71938
1.71554
1.71528
1.71559
1.71909
1.72711
1.73589
1.74617
1.75627
1.76034
1.7602
1.75769
1.75525
1.7544
1.75429
1.75475
1.75809
1.76486
1.77089
1.77444
1.77799
1.78327
1.7903
1.7966
1.80258
1.81092
1.81976
1.82801
1.8371
1.84596
1.85552
1.87066
1.897
1.93424
1.96813
1.98351
1.98602
1.98599
1.98402
1.97628
1.9624
1.94576
1.94118
1.94195
1.94557
1.95186
1.96074
1.96995
1.97197
1.96897
1.95702
1.94535
1.93396
1.91971
1.90453
1.8868
1.86472
1.84064
1.81801
1.81281
1.8136
1.81816
1.83029
1.85485
1.90269
1.97432
2.02499
2.02909
2.0249
2.01417
1.97789
1.89035
1.75884
1.65771
1.6315
1.63138
1.63465
1.64495
1.6628
1.68644
1.71057
1.7223
1.7225
1.71246
1.69942
1.70006
1.71007
1.7248
1.73753
1.74395
1.7453
1.74341
1.73255
1.72519
1.72708
1.73514
1.74906
1.76792
1.78206
1.78555
1.78588
1.78284
1.7685
1.75113
1.74644
1.74636
1.74736
1.75103
1.75859
1.77028
1.78626
1.80598
1.81717
1.8178
1.81826
1.82079
1.82626
1.83368
1.42331
1.43424
1.44636
1.45967
1.47218
1.47879
1.47992
1.47987
1.47935
1.47869
1.47824
1.47888
1.48448
1.49385
1.49923
1.50931
1.52423
1.54117
1.5627
1.5921
1.6299
1.68537
1.77894
1.93038
2.11799
2.24072
2.27659
2.28586
2.29132
2.29205
2.28566
2.27911
2.27482
2.26759
2.25213
2.22741
2.21424
2.21442
2.216
2.21474
2.20372
2.18908
2.17069
2.15325
2.15053
2.16212
2.17822
2.19442
2.21592
2.23001
2.23637
2.247
2.25722
2.25583
2.24791
2.2395
2.23903
2.23766
2.23781
2.23809
2.22185
2.16509
2.08014
1.95208
1.80001
1.69319
1.66906
1.66814
1.67176
1.68121
1.68853
1.68897
1.68286
1.66951
1.66829
1.6741
1.68224
1.69397
1.71001
1.72235
1.73099
1.73144
1.7286
1.71989
1.7036
1.67982
1.66319
1.66203
1.66234
1.66478
1.67276
1.69157
1.7302
1.79029
1.85295
1.90633
1.92627
1.92771
1.92749
1.92617
1.92279
1.9137
1.89626
1.87508
1.85014
1.83052
1.82147
1.81709
1.81422
1.81092
1.80757
1.80543
1.80327
1.79949
1.79345
1.78634
1.77988
1.77247
1.75826
1.73604
1.7158
1.7064
1.70443
1.70428
1.70425
1.70452
1.70624
1.70904
1.71277
1.71558
1.71543
1.71201
1.70386
1.69139
1.67571
1.66343
1.65928
1.65892
1.66
1.6654
1.67301
1.68279
1.69736
1.71221
1.71597
1.71487
1.71267
1.7109
1.70813
1.70627
1.70648
1.71025
1.71613
1.71812
1.71942
1.72209
1.72671
1.73257
1.73876
1.74725
1.75791
1.76629
1.77353
1.78254
1.79039
1.79678
1.80749
1.82773
1.86067
1.89832
1.92297
1.93127
1.93236
1.93154
1.92708
1.91784
1.90291
1.8977
1.89834
1.90078
1.9032
1.9034
1.90306
1.89949
1.88527
1.86721
1.85298
1.83502
1.81624
1.79987
1.78567
1.77375
1.76463
1.75944
1.75978
1.76315
1.7706
1.78396
1.81186
1.8641
1.94092
2.00807
2.02203
2.01859
2.01067
1.98151
1.90637
1.77912
1.66832
1.63157
1.63024
1.63258
1.64142
1.65728
1.67849
1.70142
1.71421
1.71525
1.70743
1.69322
1.69212
1.69987
1.71477
1.72943
1.73832
1.74149
1.7419
1.73828
1.73032
1.72979
1.73433
1.74396
1.75858
1.7755
1.78209
1.78218
1.78107
1.77492
1.7625
1.75551
1.75528
1.75601
1.75898
1.76417
1.77082
1.77927
1.79034
1.80148
1.80519
1.80374
1.80008
1.79759
1.80226
1.41459
1.42247
1.43081
1.43981
1.44942
1.45626
1.45903
1.46014
1.46067
1.46094
1.46104
1.46256
1.47015
1.47552
1.47935
1.48944
1.50405
1.51977
1.53779
1.56074
1.59018
1.63044
1.69241
1.79594
1.95438
2.12644
2.2486
2.29228
2.30157
2.29905
2.28971
2.27646
2.26404
2.25338
2.24213
2.22878
2.21477
2.21002
2.20967
2.20789
2.19832
2.19467
2.18489
2.1649
2.16184
2.17531
2.18582
2.1929
2.2094
2.22402
2.22803
2.23624
2.25072
2.25169
2.24657
2.24108
2.23718
2.23158
2.23124
2.22535
2.18373
2.10546
1.99424
1.83873
1.67208
1.60282
1.59656
1.59719
1.60531
1.6245
1.64286
1.65247
1.65227
1.64802
1.64387
1.63315
1.62269
1.62268
1.62527
1.62886
1.63925
1.64823
1.64857
1.64564
1.63898
1.62925
1.62074
1.61501
1.61265
1.61415
1.61997
1.63364
1.66259
1.7086
1.76311
1.81721
1.84004
1.84423
1.8445
1.84392
1.84099
1.83066
1.81017
1.78497
1.75689
1.73878
1.73339
1.7329
1.73332
1.73361
1.73336
1.73542
1.74021
1.7405
1.73903
1.73614
1.73291
1.72529
1.70645
1.67928
1.65473
1.64204
1.64011
1.64012
1.64046
1.64182
1.64558
1.65164
1.65839
1.66125
1.66095
1.65912
1.65418
1.64476
1.63125
1.61963
1.61573
1.61542
1.61735
1.6227
1.62909
1.63948
1.65605
1.67246
1.67612
1.67537
1.67507
1.67387
1.6705
1.66766
1.66797
1.67057
1.67162
1.67154
1.67184
1.6734
1.67811
1.68601
1.69643
1.70876
1.71889
1.72746
1.73601
1.74344
1.74654
1.74957
1.75608
1.77097
1.79946
1.83672
1.86763
1.88122
1.88359
1.88319
1.88075
1.87542
1.86373
1.85697
1.85604
1.85492
1.85191
1.84749
1.84006
1.8227
1.79944
1.78088
1.75989
1.73702
1.71835
1.70462
1.6988
1.69916
1.70184
1.70464
1.70933
1.71647
1.72667
1.74325
1.77532
1.83328
1.91371
1.99039
2.01655
2.01532
2.0082
1.9849
1.92236
1.80356
1.67952
1.63353
1.62964
1.63111
1.6384
1.65266
1.67052
1.69027
1.70343
1.70598
1.7018
1.68933
1.68564
1.69024
1.70355
1.71906
1.73043
1.73686
1.74102
1.74167
1.73761
1.73219
1.73323
1.73872
1.74931
1.76495
1.77931
1.78358
1.78368
1.78302
1.77817
1.76955
1.76695
1.76677
1.76738
1.76901
1.77157
1.77484
1.77907
1.78378
1.78913
1.79094
1.7882
1.78245
1.7821
1.409
1.41422
1.41997
1.42649
1.43358
1.43889
1.44221
1.44442
1.44551
1.44595
1.44664
1.45032
1.45896
1.46059
1.46313
1.47195
1.48399
1.49619
1.51074
1.52911
1.55168
1.58079
1.62263
1.69066
1.80564
1.97486
2.16477
2.2818
2.30544
2.30525
2.29529
2.27329
2.25461
2.24274
2.23383
2.22551
2.21616
2.20972
2.20868
2.20675
2.19764
2.19869
2.19653
2.17748
2.17654
2.18973
2.1898
2.19201
2.20852
2.22428
2.22395
2.22813
2.24327
2.2495
2.24624
2.24111
2.23544
2.22947
2.22261
2.19581
2.12261
2.01918
1.87501
1.70686
1.57444
1.54276
1.54185
1.54372
1.55508
1.5824
1.60886
1.62447
1.62866
1.62767
1.61921
1.59289
1.56992
1.56347
1.5634
1.56482
1.57228
1.58678
1.59446
1.59456
1.59396
1.59297
1.59055
1.58325
1.57384
1.57296
1.57563
1.58433
1.60396
1.63597
1.68257
1.73186
1.75407
1.76084
1.76199
1.76125
1.75707
1.74555
1.72643
1.70305
1.67635
1.66089
1.6583
1.65853
1.65874
1.65955
1.66188
1.66951
1.68046
1.68556
1.68721
1.68738
1.68654
1.67912
1.66045
1.63608
1.61017
1.59286
1.5881
1.58725
1.58731
1.58858
1.59317
1.60142
1.60946
1.61221
1.6125
1.61212
1.60924
1.60286
1.5935
1.58563
1.58312
1.58328
1.58625
1.59042
1.59608
1.6064
1.62229
1.63653
1.64115
1.64194
1.64181
1.64051
1.63723
1.63372
1.63289
1.6327
1.63257
1.63288
1.63402
1.63703
1.64425
1.65667
1.67234
1.68424
1.6919
1.69743
1.70088
1.702
1.70323
1.70579
1.71113
1.72491
1.75381
1.79236
1.82423
1.83828
1.8412
1.84103
1.83983
1.83694
1.82837
1.8195
1.81367
1.80756
1.8009
1.79222
1.77164
1.74286
1.72074
1.6978
1.67298
1.65271
1.64069
1.63794
1.64013
1.64813
1.6546
1.66026
1.66758
1.67708
1.69006
1.71012
1.7463
1.80876
1.89262
1.97748
2.01372
2.01562
2.00863
1.98771
1.93406
1.82847
1.69935
1.63671
1.62869
1.62943
1.63532
1.64763
1.66322
1.68089
1.69333
1.69616
1.69406
1.68492
1.68007
1.68277
1.6936
1.70898
1.72266
1.73276
1.74039
1.7447
1.74408
1.73754
1.73469
1.73775
1.74544
1.75782
1.77409
1.78743
1.79293
1.79455
1.79381
1.78843
1.78085
1.77783
1.7756
1.77415
1.7751
1.77649
1.7772
1.77755
1.77783
1.77921
1.7798
1.77535
1.77245
1.40507
1.40854
1.41314
1.41835
1.42157
1.42463
1.42844
1.43162
1.43296
1.43352
1.43518
1.4412
1.44674
1.44736
1.44929
1.45572
1.46393
1.47228
1.48315
1.49766
1.51561
1.53745
1.56684
1.61235
1.6913
1.82735
2.02801
2.22144
2.29847
2.30319
2.29215
2.27051
2.25489
2.2435
2.23362
2.22311
2.21459
2.20859
2.20656
2.20559
2.20001
2.20178
2.20286
2.18601
2.18464
2.1955
2.19185
2.19282
2.21125
2.22577
2.22299
2.22512
2.23585
2.24525
2.24481
2.24069
2.23302
2.22432
2.20314
2.14324
2.04888
1.9151
1.74625
1.58879
1.50997
1.49987
1.50048
1.50521
1.52094
1.55285
1.58587
1.59954
1.60154
1.59915
1.58507
1.55498
1.53007
1.52071
1.51996
1.5213
1.52772
1.54234
1.5551
1.56089
1.56435
1.56508
1.56339
1.5551
1.54247
1.53669
1.53721
1.54162
1.55373
1.57522
1.61355
1.6546
1.67511
1.6839
1.68641
1.68556
1.68112
1.67178
1.65871
1.63921
1.61493
1.60105
1.59454
1.59203
1.5915
1.59282
1.59863
1.61229
1.62671
1.63462
1.63938
1.64134
1.64045
1.63306
1.61793
1.59856
1.57356
1.55462
1.54729
1.54598
1.54608
1.54715
1.5526
1.56262
1.56935
1.57134
1.57254
1.57275
1.57087
1.56667
1.56237
1.55925
1.5587
1.55993
1.56302
1.56574
1.57064
1.58009
1.59293
1.60336
1.60912
1.61075
1.61063
1.60931
1.60584
1.60263
1.60237
1.60244
1.60304
1.60478
1.6077
1.61354
1.6245
1.64012
1.65382
1.66035
1.66325
1.66455
1.66465
1.66426
1.66506
1.6688
1.67799
1.69695
1.72854
1.76465
1.79174
1.80256
1.80467
1.8045
1.80399
1.80201
1.79404
1.78217
1.77126
1.76152
1.75054
1.73015
1.69824
1.67122
1.64689
1.62264
1.60317
1.59469
1.59418
1.5984
1.60834
1.61496
1.62006
1.6262
1.63404
1.64475
1.66106
1.68502
1.72516
1.79353
1.88385
1.97492
2.01455
2.01859
2.01034
1.98755
1.9415
1.85193
1.72618
1.64429
1.62848
1.62859
1.63291
1.64233
1.65563
1.67263
1.6857
1.6892
1.68809
1.68001
1.67392
1.67645
1.68698
1.70133
1.71599
1.72946
1.7401
1.74756
1.74937
1.74563
1.7382
1.73813
1.74408
1.75576
1.77079
1.78807
1.80052
1.80509
1.80612
1.80422
1.79677
1.78886
1.78433
1.78057
1.77689
1.77545
1.77487
1.77594
1.77584
1.77351
1.77312
1.77083
1.76562
1.40191
1.40445
1.40834
1.41098
1.41188
1.41421
1.41804
1.42224
1.42355
1.42449
1.42765
1.43346
1.43495
1.43512
1.43607
1.43984
1.44463
1.45001
1.45755
1.46824
1.48238
1.50003
1.52256
1.55451
1.60781
1.70483
1.8712
2.08559
2.24728
2.28087
2.27555
2.26774
2.25912
2.25025
2.23981
2.22664
2.21839
2.21343
2.20925
2.20545
2.19708
2.19624
2.20058
2.18922
2.18737
2.1996
2.19609
2.19396
2.21063
2.22609
2.22166
2.22242
2.23186
2.23881
2.23803
2.23354
2.2234
2.20395
2.15706
2.07245
1.95514
1.79631
1.63236
1.51086
1.47269
1.47003
1.47115
1.4788
1.49939
1.53277
1.56227
1.56944
1.56866
1.56355
1.54857
1.52347
1.50207
1.49214
1.49091
1.49243
1.49923
1.51347
1.52826
1.53816
1.5421
1.54213
1.53894
1.53001
1.51808
1.50884
1.50686
1.50807
1.51367
1.52781
1.55702
1.58902
1.60798
1.61778
1.62213
1.62213
1.62057
1.61707
1.60875
1.5884
1.56509
1.5495
1.54082
1.53827
1.5385
1.54125
1.54959
1.56561
1.58062
1.59015
1.59586
1.59671
1.59486
1.58815
1.57766
1.56224
1.54207
1.52608
1.51902
1.51709
1.51662
1.51801
1.52526
1.53422
1.53747
1.53889
1.54037
1.5408
1.53939
1.53769
1.53774
1.53783
1.53853
1.54091
1.54268
1.54461
1.54887
1.55667
1.56565
1.57235
1.57794
1.58125
1.5815
1.58062
1.57824
1.57735
1.57811
1.58006
1.58271
1.58595
1.59029
1.59781
1.61002
1.62388
1.63168
1.6331
1.63361
1.63368
1.63357
1.63508
1.63855
1.64454
1.6572
1.68091
1.71298
1.74378
1.76314
1.77015
1.77106
1.77078
1.77055
1.76763
1.7579
1.74469
1.73168
1.71667
1.69298
1.66195
1.63328
1.60621
1.58229
1.56641
1.56225
1.56334
1.57014
1.57956
1.58534
1.5904
1.59656
1.60261
1.60961
1.62249
1.64245
1.67071
1.7148
1.78735
1.88748
1.98152
2.01412
2.01511
2.00633
1.98348
1.94538
1.87317
1.75868
1.65912
1.62946
1.62869
1.6311
1.63779
1.64927
1.66634
1.68101
1.68481
1.68212
1.67102
1.66706
1.67253
1.68501
1.69775
1.71197
1.72764
1.7404
1.74996
1.75451
1.75337
1.74505
1.74169
1.74513
1.75561
1.76962
1.78781
1.80405
1.81029
1.81209
1.81156
1.80531
1.79644
1.79302
1.79215
1.79124
1.78974
1.78761
1.78316
1.77846
1.77492
1.76997
1.7672
1.76213
1.39942
1.40131
1.40385
1.40485
1.40575
1.40752
1.41084
1.41582
1.41737
1.41898
1.42325
1.42591
1.42562
1.42402
1.42395
1.42482
1.42722
1.43011
1.43406
1.44149
1.45226
1.46581
1.48347
1.50776
1.54488
1.60953
1.72549
1.90749
2.10497
2.21417
2.25612
2.26153
2.26047
2.25869
2.25163
2.2408
2.23339
2.22568
2.2145
2.2024
2.19179
2.19096
2.20087
2.19385
2.18918
2.19992
2.19821
2.19422
2.20756
2.22552
2.22262
2.22241
2.22908
2.23206
2.22919
2.22042
2.20153
2.15987
2.0833
1.97478
1.83085
1.66953
1.53966
1.4667
1.4507
1.44999
1.45152
1.46078
1.48378
1.51451
1.532
1.53473
1.53427
1.52798
1.51559
1.4984
1.48251
1.47478
1.47389
1.47596
1.48345
1.49663
1.51161
1.5199
1.52117
1.52063
1.51621
1.50746
1.49681
1.487
1.48213
1.48185
1.48371
1.49227
1.51122
1.53417
1.55122
1.56297
1.57131
1.57556
1.57664
1.5754
1.56565
1.54542
1.52489
1.50863
1.50287
1.50217
1.50278
1.50574
1.51336
1.52661
1.53962
1.5494
1.5542
1.55425
1.55201
1.54757
1.5411
1.52956
1.51544
1.50496
1.49982
1.49755
1.49724
1.50003
1.50734
1.51164
1.5129
1.51393
1.51508
1.51528
1.5146
1.51481
1.51662
1.5188
1.52105
1.52355
1.52493
1.52668
1.53026
1.5357
1.54081
1.54461
1.549
1.55368
1.55559
1.55547
1.55533
1.55647
1.55965
1.56312
1.56636
1.56976
1.57522
1.58412
1.59574
1.60618
1.60924
1.60902
1.60895
1.60926
1.61014
1.61323
1.6182
1.62656
1.64267
1.66845
1.69753
1.72166
1.73362
1.73755
1.73779
1.73765