/*--------------------------------*- C++ -*----------------------------------*\
  =========                 |
  \\      /  F ield         | OpenFOAM: The Open Source CFD Toolbox
   \\    /   O peration     | Website:  https://openfoam.org
    \\  /    A nd           | Version:  7
     \\/     M anipulation  |
\*---------------------------------------------------------------------------*/
FoamFile
{
    version     2.0;
    format      ascii;
    class       volScalarField;
    location    "0.4";
    object      rho;
}
// * * * * * * * * * * * * * * * * * * * * * * * * * * * * * * * * * * * * * //

dimensions      [1 -3 0 0 0 0 0];

internalField   nonuniform List<scalar> 
16192
(
0.951299
0.954725
0.966525
0.97745
0.979829
0.980424
0.980835
0.976821
0.960818
0.945209
0.941514
0.940405
0.939608
0.942318
0.951881
0.964901
0.995955
1.04723
1.07798
1.08353
1.08295
1.0797
1.0672
1.03977
0.999629
0.95602
0.922163
0.899426
0.889725
0.890806
0.897066
0.908547
0.925045
0.946658
0.961602
0.963346
0.96255
0.958282
0.945422
0.927806
0.923215
0.924308
0.928413
0.939404
0.961513
0.988514
0.998068
0.999101
0.999718
0.999423
0.998375
0.99765
0.996599
0.995154
0.993085
0.991397
0.991599
0.993168
0.997562
1.00677
1.02109
1.03623
1.04623
1.0518
1.05695
1.0662
1.0852
1.10143
1.10466
1.10541
1.10536
1.10041
1.09061
1.07972
1.07829
1.08119
1.08915
1.10515
1.13474
1.19018
1.26248
1.2921
1.29489
1.29529
1.28762
1.25514
1.21093
1.19518
1.19399
1.19559
1.2052
1.23721
1.2758
1.28588
1.28602
1.28569
1.28316
1.27053
1.25124
1.24824
1.25078
1.25629
1.27289
1.30089
1.31324
1.31358
1.31262
1.3103
1.30455
1.29293
1.28263
1.28072
1.28172
1.28585
1.29282
1.30126
1.30878
1.31504
1.3202
1.32314
1.32549
1.32813
1.33176
1.33741
1.34709
1.35389
1.35473
1.35456
1.35218
1.35205
1.35339
1.35329
1.34862
1.34662
1.34736
1.34883
1.35039
1.3527
1.35826
1.36915
1.38517
1.40084
1.4115
1.41786
1.42066
1.42095
1.4207
1.42057
1.42038
1.41966
1.41656
1.41067
1.40831
1.4089
1.41052
1.41284
1.41575
1.41835
1.42028
1.42208
1.4243
1.42815
1.43624
1.4522
1.46994
1.47525
1.47551
1.47569
1.47564
1.47286
1.46286
1.44896
1.44474
1.44531
1.44678
1.44883
1.4537
1.46741
1.49374
1.51222
1.51465
1.51488
1.51498
1.51371
1.50641
1.4838
1.45337
1.44365
1.44347
1.44387
1.4455
1.45197
1.46973
1.49141
1.49785
1.49812
1.49787
1.49473
1.48178
1.45477
1.43749
1.43562
1.43584
1.43583
1.43445
1.43004
1.42537
1.42446
1.42465
1.42506
1.42582
1.42778
1.43212
1.43607
1.43682
1.43684
1.43665
1.43559
1.43335
1.43184
1.43162
1.4317
1.43201
1.433
1.43592
1.44055
1.44252
1.44265
1.44268
1.44262
1.44189
1.43888
1.43331
1.43024
1.43001
1.43012
1.43065
1.43249
1.43802
1.44675
1.45049
1.45074
1.45077
1.45036
1.44762
1.44096
1.43531
1.43428
1.43426
1.43427
1.43429
1.43427
1.43415
0.962416
0.97195
0.983277
0.98655
0.987173
0.98785
0.986606
0.974303
0.955605
0.949816
0.949616
0.94759
0.944498
0.944383
0.950664
0.95907
0.969255
0.999894
1.04003
1.06094
1.06288
1.06056
1.0466
1.01371
0.972387
0.93941
0.918261
0.902796
0.897241
0.899579
0.908608
0.922878
0.941964
0.963677
0.973037
0.97284
0.969871
0.960706
0.943456
0.932284
0.932972
0.936576
0.942883
0.957072
0.983666
1.00516
1.00851
1.00857
1.00717
1.00703
1.0067
1.00438
1.00174
0.998899
0.995678
0.99444
0.99544
0.999127
1.00655
1.01861
1.03317
1.0441
1.0515
1.05869
1.07148
1.09575
1.11582
1.1183
1.11743
1.11458
1.10853
1.09841
1.08457
1.07986
1.08106
1.08498
1.09263
1.10612
1.13326
1.19248
1.26473
1.28696
1.28913
1.28776
1.26725
1.22823
1.2097
1.20881
1.21129
1.21849
1.24017
1.2745
1.28754
1.28777
1.28681
1.28287
1.26761
1.24541
1.24321
1.2477
1.25406
1.26739
1.29451
1.31425
1.31601
1.315
1.31312
1.30713
1.293
1.28154
1.28043
1.28142
1.28428
1.29155
1.30385
1.31438
1.31948
1.32151
1.32234
1.32352
1.32486
1.32583
1.32655
1.3294
1.3426
1.35581
1.35827
1.35903
1.36011
1.36121
1.36083
1.35347
1.3445
1.34316
1.34381
1.34532
1.34811
1.35274
1.36223
1.38151
1.40438
1.41574
1.41859
1.41991
1.42119
1.42184
1.4216
1.42074
1.41974
1.41789
1.41407
1.40973
1.40848
1.40914
1.4106
1.41271
1.41494
1.41706
1.41877
1.42028
1.42272
1.42889
1.4432
1.46579
1.47902
1.48035
1.48042
1.48031
1.47859
1.47102
1.45539
1.44467
1.44395
1.44479
1.44634
1.44981
1.4595
1.4819
1.5074
1.51458
1.51504
1.5153
1.51517
1.51173
1.49632
1.46465
1.44462
1.44278
1.44309
1.44406
1.44815
1.462
1.48624
1.49885
1.49988
1.4999
1.4985
1.49047
1.46735
1.44253
1.43689
1.43694
1.43708
1.43664
1.43422
1.42894
1.42495
1.42453
1.42475
1.42524
1.42624
1.42885
1.4336
1.43649
1.4368
1.43679
1.4364
1.43492
1.43273
1.43178
1.43179
1.43201
1.43272
1.43482
1.4391
1.44209
1.44245
1.4425
1.44253
1.44238
1.441
1.43676
1.43189
1.43057
1.43057
1.4308
1.43177
1.43507
1.44297
1.45029
1.45165
1.45173
1.45166
1.45045
1.44575
1.43782
1.43418
1.43397
1.43398
1.43396
1.43391
1.43384
1.43364
0.978433
0.990492
0.995073
0.995666
0.996277
0.996197
0.987324
0.967471
0.956619
0.956251
0.955898
0.95197
0.948032
0.947293
0.950741
0.955705
0.95738
0.966735
0.991678
1.01782
1.02761
1.0266
1.01462
0.984919
0.956969
0.938436
0.921753
0.911442
0.911878
0.917455
0.927537
0.940465
0.957573
0.975569
0.981263
0.980728
0.976858
0.965619
0.948304
0.943328
0.94688
0.952715
0.961205
0.976856
1.00251
1.0172
1.01864
1.01825
1.01335
1.00841
1.00614
1.00426
1.00259
1.00015
0.996483
0.996924
1.0001
1.00645
1.01684
1.03034
1.04155
1.04958
1.05879
1.07566
1.1047
1.1278
1.13003
1.12721
1.12133
1.11428
1.1046
1.08898
1.07973
1.0806
1.08343
1.0887
1.09897
1.11502
1.1429
1.19252
1.25171
1.27119
1.27336
1.27046
1.25012
1.22961
1.22789
1.23095
1.23693
1.24818
1.26795
1.28443
1.28875
1.28791
1.28432
1.27218
1.24841
1.23889
1.24184
1.24863
1.25981
1.28065
1.30627
1.31689
1.31689
1.31479
1.30872
1.2953
1.28369
1.28199
1.28296
1.28604
1.29354
1.30689
1.31737
1.32074
1.32207
1.32278
1.32189
1.31876
1.31772
1.31767
1.3185
1.32796
1.34865
1.36387
1.36681
1.36808
1.36921
1.36933
1.36249
1.34816
1.34229
1.3426
1.34363
1.34512
1.34822
1.35613
1.37343
1.39902
1.41532
1.41823
1.41894
1.41973
1.42077
1.42176
1.42178
1.42119
1.41973
1.41687
1.41234
1.40979
1.41029
1.41124
1.41188
1.41207
1.41284
1.41431
1.41584
1.41773
1.42193
1.43332
1.45683
1.47993
1.48544
1.48548
1.48503
1.48339
1.47829
1.46616
1.45002
1.44392
1.44392
1.4448
1.44717
1.45349
1.46971
1.49704
1.51244
1.51409
1.51442
1.51463
1.51375
1.50543
1.47932
1.44959
1.44247
1.44247
1.44294
1.44534
1.45508
1.47825
1.49809
1.5014
1.50152
1.50112
1.49674
1.48017
1.45172
1.43866
1.4379
1.43807
1.438
1.43701
1.4337
1.4279
1.42463
1.42452
1.42479
1.4253
1.42654
1.42983
1.43477
1.43676
1.43689
1.43684
1.4361
1.43426
1.43275
1.43249
1.4326
1.43306
1.43434
1.43752
1.4412
1.44213
1.44222
1.44227
1.44228
1.44183
1.43943
1.43455
1.43153
1.43121
1.43128
1.43175
1.43357
1.43913
1.44826
1.45243
1.45274
1.45278
1.45242
1.44978
1.44256
1.43507
1.43352
1.43357
1.43363
1.43361
1.43351
1.43337
1.43303
0.997735
1.0049
1.00581
1.00637
1.00652
1.00019
0.980768
0.964966
0.962865
0.963063
0.962529
0.958594
0.953551
0.952266
0.952257
0.950654
0.943187
0.940855
0.949843
0.968542
0.979306
0.979069
0.972013
0.958783
0.950635
0.942511
0.932276
0.927809
0.931462
0.940533
0.948193
0.955662
0.969142
0.984587
0.988792
0.988615
0.985467
0.973729
0.958965
0.959104
0.964258
0.970945
0.980128
0.996031
1.01706
1.02561
1.026
1.02453
1.01763
1.00833
1.00267
1.00098
1.00021
0.998457
0.998509
1.00177
1.00803
1.01703
1.02909
1.04055
1.04852
1.05695
1.07455
1.10703
1.13431
1.13916
1.13773
1.13233
1.12312
1.11143
1.09386
1.07944
1.07904
1.08197
1.08784
1.09649
1.10835
1.12607
1.15332
1.18586
1.22018
1.25376
1.26182
1.26251
1.25491
1.25111
1.25301
1.25661
1.26089
1.26715
1.27714
1.28498
1.28456
1.28176
1.27483
1.25918
1.24175
1.23931
1.24381
1.25321
1.26752
1.28814
1.30934
1.31538
1.31434
1.30972
1.29938
1.28937
1.28654
1.28742
1.29049
1.29673
1.30692
1.31592
1.31926
1.32037
1.32111
1.32048
1.31393
1.30901
1.3093
1.31147
1.3191
1.33787
1.364
1.37467
1.37586
1.37651
1.37632
1.36991
1.35443
1.34429
1.34373
1.34464
1.34599
1.34833
1.35426
1.36827
1.38978
1.40809
1.41657
1.41843
1.41893
1.41924
1.41982
1.42104
1.42134
1.421
1.41967
1.41669
1.41339
1.41333
1.41425
1.41477
1.4142
1.41054
1.40921
1.41005
1.41181
1.41525
1.42401
1.44482
1.47449
1.4881
1.48903
1.48885
1.48734
1.48349
1.47506
1.45907
1.44631
1.44429
1.4446
1.44589
1.44967
1.46001
1.48288
1.50711
1.51328
1.51378
1.51417
1.51427
1.51076
1.49289
1.45933
1.44263
1.44172
1.44222
1.44379
1.45007
1.46903
1.49465
1.50302
1.50342
1.50342
1.50135
1.49097
1.46484
1.44221
1.43856
1.43868
1.4388
1.43851
1.43699
1.4329
1.42688
1.42434
1.42432
1.42456
1.42515
1.42675
1.43085
1.43579
1.43711
1.43719
1.43709
1.43602
1.434
1.43329
1.43337
1.4337
1.43449
1.43646
1.43983
1.44163
1.44181
1.44185
1.44189
1.4418
1.44074
1.43723
1.43308
1.43192
1.43193
1.43215
1.43312
1.43649
1.44466
1.45235
1.45381
1.45389
1.45381
1.45261
1.4478
1.4386
1.43338
1.43301
1.43311
1.43318
1.43313
1.43298
1.43273
1.4322
1.01459
1.01649
1.01704
1.01732
1.01409
0.997829
0.976564
0.969861
0.969751
0.970188
0.969617
0.966321
0.963959
0.961628
0.957472
0.94967
0.930923
0.916118
0.916789
0.921397
0.925023
0.924502
0.924492
0.934769
0.947818
0.949788
0.945318
0.944092
0.95181
0.959502
0.963168
0.968105
0.981925
0.994866
0.997199
0.997363
0.995042
0.983565
0.972897
0.975485
0.981277
0.987024
0.995517
1.01235
1.02915
1.0326
1.03186
1.02731
1.0164
1.00442
1.00187
1.00244
1.00282
1.00196
1.00307
1.00856
1.01745
1.02865
1.04056
1.04961
1.05719
1.07083
1.10132
1.13322
1.14141
1.14181
1.14047
1.13465
1.12239
1.10136
1.08381
1.08081
1.08181
1.08578
1.09412
1.1058
1.11909
1.13629
1.15791
1.17889
1.19922
1.22898
1.25947
1.26613
1.268
1.26799
1.26705
1.2671
1.26767
1.27065
1.27802
1.28081
1.27966
1.27752
1.27276
1.25972
1.24623
1.24617
1.25069
1.25961
1.27159
1.28836
1.30502
1.3089
1.3086
1.30645
1.30043
1.29489
1.29498
1.297
1.30127
1.30732
1.31319
1.317
1.31831
1.31858
1.3175
1.31053
1.30411
1.30474
1.30732
1.31279
1.32771
1.35675
1.37704
1.37995
1.38024
1.38003
1.3764
1.36358
1.34847
1.34505
1.34608
1.34749
1.34953
1.35417
1.36509
1.38321
1.39964
1.40899
1.41446
1.41678
1.41747
1.41779
1.4183
1.41982
1.42128
1.42115
1.42012
1.4185
1.41863
1.41959
1.42014
1.41972
1.41397
1.40539
1.40351
1.40446
1.40714
1.41381
1.4305
1.46175
1.4859
1.48982
1.48988
1.48954
1.48774
1.48234
1.47008
1.45347
1.44532
1.44482
1.44536
1.44748
1.45378
1.46967
1.49608
1.51146
1.51339
1.51385
1.51426
1.51336
1.50339
1.47333
1.44517
1.44054
1.44082
1.44193
1.44599
1.45995
1.48725
1.50379
1.50545
1.50559
1.50503
1.4993
1.47954
1.45024
1.43942
1.43903
1.43923
1.43925
1.43873
1.4367
1.43175
1.42577
1.42399
1.42399
1.4242
1.42484
1.42686
1.43182
1.43664
1.43756
1.43765
1.43745
1.43597
1.4345
1.43448
1.43471
1.43521
1.43629
1.43859
1.44092
1.44146
1.4415
1.44152
1.44151
1.44106
1.43902
1.43505
1.4327
1.43254
1.43269
1.43325
1.43516
1.44097
1.45049
1.45484
1.45515
1.45519
1.45475
1.45198
1.44421
1.435
1.43248
1.43245
1.43251
1.43255
1.43247
1.43226
1.43193
1.43139
1.02709
1.02761
1.02787
1.02638
1.01401
0.990963
0.97911
0.978468
0.978927
0.979122
0.977101
0.972726
0.967911
0.961821
0.95195
0.938455
0.922291
0.906129
0.891213
0.877286
0.871943
0.872417
0.877776
0.902461
0.94139
0.950549
0.951454
0.95571
0.963962
0.969636
0.974628
0.985031
1.00004
1.00625
1.00723
1.00765
1.00549
0.99315
0.98549
0.989119
0.994374
0.999375
1.00945
1.02895
1.03902
1.03829
1.035
1.02712
1.00995
1.00066
1.00066
1.00429
1.00652
1.00714
1.00953
1.0165
1.0273
1.0394
1.04999
1.05872
1.06985
1.09259
1.12484
1.1394
1.14103
1.14112
1.14014
1.13274
1.11258
1.09263
1.08775
1.0874
1.08843
1.09251
1.10099
1.11281
1.12623
1.14219
1.16042
1.17886
1.19722
1.22018
1.25381
1.26715
1.26918
1.26947
1.26795
1.26774
1.26821
1.27005
1.27623
1.28324
1.2833
1.28185
1.27797
1.26749
1.25568
1.25357
1.25521
1.25994
1.26875
1.28353
1.30213
1.30993
1.31031
1.31009
1.30764
1.30475
1.30472
1.30603
1.30813
1.31039
1.31365
1.3158
1.31606
1.31479
1.30912
1.30259
1.3025
1.3044
1.30856
1.31937
1.34451
1.37225
1.37991
1.3806
1.38092
1.38028
1.37327
1.35823
1.35036
1.35111
1.35277
1.35429
1.35709
1.36409
1.37781
1.39258
1.40135
1.40655
1.41024
1.41289
1.41414
1.41476
1.41555
1.41738
1.42093
1.42379
1.425
1.42618
1.42734
1.42791
1.4278
1.42216
1.40773
1.39787
1.39754
1.39922
1.40417
1.41637
1.4437
1.47718
1.4891
1.4899
1.49
1.48954
1.48643
1.4775
1.46243
1.45074
1.44789
1.44797
1.4487
1.45172
1.46092
1.48225
1.50605
1.51272
1.51327
1.51361
1.51364
1.50931
1.48769
1.4525
1.43943
1.43922
1.44012
1.44295
1.45249
1.47685
1.50209
1.50757
1.50782
1.50777
1.50502
1.49225
1.46341
1.44224
1.43952
1.43968
1.43983
1.4397
1.43879
1.4361
1.43023
1.42462
1.42347
1.42348
1.42367
1.42446
1.42713
1.4331
1.43765
1.43827
1.43837
1.43804
1.43632
1.43551
1.43568
1.43604
1.43665
1.43794
1.44
1.44113
1.44124
1.44127
1.44127
1.44108
1.43994
1.4369
1.4338
1.43311
1.43321
1.43359
1.43472
1.43836
1.44699
1.45496
1.45647
1.45655
1.45644
1.45507
1.44987
1.43941
1.43258
1.43185
1.43185
1.43183
1.43182
1.43176
1.43162
1.43139
1.43107
1.03835
1.03865
1.03799
1.02897
1.00697
0.988488
0.985764
0.985867
0.988121
0.988295
0.985043
0.979441
0.974345
0.966673
0.947963
0.923739
0.910777
0.897295
0.872506
0.842692
0.835732
0.836903
0.846329
0.870536
0.917478
0.942763
0.952715
0.963525
0.973321
0.980849
0.992247
1.01083
1.01989
1.01956
1.01917
1.01843
1.01093
0.996562
0.994485
0.999108
1.00412
1.01056
1.026
1.04441
1.04598
1.04268
1.03647
1.02272
1.00798
1.00443
1.00527
1.01036
1.01347
1.01485
1.0175
1.02434
1.03479
1.04547
1.05484
1.06513
1.08353
1.1155
1.13768
1.13997
1.13925
1.13797
1.13385
1.11975
1.09973
1.0945
1.09368
1.09361
1.09491
1.09921
1.10715
1.11834
1.13186
1.14742
1.16461
1.18228
1.19908
1.2178
1.24492
1.26427
1.26764
1.2682
1.2667
1.26584
1.26631
1.27042
1.28097
1.28998
1.29119
1.29074
1.28751
1.27514
1.25912
1.25518
1.25552
1.25755
1.26476
1.28109
1.3023
1.31208
1.31341
1.31397
1.31353
1.31056
1.30883
1.30891
1.30966
1.31086
1.31099
1.3105
1.30887
1.30577
1.30329
1.30334
1.30467
1.30776
1.31538
1.33386
1.36245
1.37797
1.3801
1.38059
1.38085
1.37952
1.37143
1.35888
1.35684
1.3583
1.35991
1.36165
1.36508
1.37314
1.38563
1.3949
1.39942
1.40224
1.40545
1.40866
1.41083
1.4122
1.41363
1.41713
1.42339
1.43081
1.4351
1.43648
1.43692
1.43673
1.43153
1.41545
1.39645
1.3917
1.39241
1.39582
1.4044
1.42531
1.4617
1.48559
1.48908
1.48949
1.48965
1.48862
1.48257
1.46958
1.45715
1.45224
1.4518
1.4519
1.45277
1.45687
1.47024
1.4957
1.51175
1.51366
1.514
1.51433
1.51275
1.49929
1.46452
1.43958
1.43706
1.43761
1.43974
1.44633
1.4656
1.49616
1.50946
1.51036
1.51052
1.50962
1.50208
1.4785
1.44876
1.44021
1.44007
1.44032
1.4404
1.44015
1.43894
1.43534
1.42836
1.42345
1.42282
1.42281
1.42298
1.42402
1.42775
1.43496
1.43904
1.43946
1.43957
1.43918
1.43747
1.43665
1.43684
1.43724
1.43792
1.43918
1.44051
1.44087
1.44089
1.44091
1.44087
1.44034
1.4384
1.43527
1.43377
1.43376
1.434
1.43471
1.43692
1.4433
1.45317
1.45747
1.45779
1.45781
1.45724
1.45424
1.44582
1.43493
1.43138
1.43127
1.4313
1.43124
1.43114
1.43117
1.4312
1.4312
1.4312
1.04906
1.04878
1.04281
1.02323
0.999868
0.99349
0.99336
0.994395
0.993724
0.989409
0.982442
0.97628
0.971192
0.96223
0.941034
0.914673
0.898256
0.881541
0.849385
0.829468
0.827974
0.830181
0.838756
0.853078
0.882539
0.924027
0.951046
0.96952
0.983694
0.998698
1.02058
1.03756
1.03892
1.03656
1.03274
1.02636
1.0126
1.0011
1.00233
1.00662
1.01185
1.02204
1.04276
1.0531
1.05046
1.04472
1.03659
1.02377
1.01361
1.01293
1.01519
1.02037
1.02269
1.02415
1.02531
1.02929
1.03737
1.04711
1.05723
1.07168
1.09919
1.13114
1.14164
1.14186
1.14043
1.13586
1.12481
1.107
1.09803
1.09683
1.09674
1.09693
1.09841
1.10342
1.11231
1.12387
1.13868
1.15643
1.17439
1.19057
1.20433
1.21693
1.23431
1.25519
1.26114
1.26226
1.26084
1.26034
1.26213
1.27311
1.29164
1.30156
1.30238
1.30166
1.29553
1.27739
1.25929
1.25518
1.25497
1.25566
1.26219
1.28018
1.30337
1.31224
1.31365
1.31442
1.31433
1.31209
1.30979
1.30944
1.30951
1.30871
1.30599
1.30324
1.30265
1.30325
1.30434
1.30639
1.30981
1.31591
1.32814
1.35044
1.37263
1.37927
1.38013
1.38069
1.38099
1.37984
1.37321
1.36503
1.36391
1.36496
1.36644
1.36822
1.37171
1.37963
1.38922
1.39402
1.39598
1.39815
1.40123
1.40437
1.40687
1.40963
1.41389
1.42122
1.43326
1.44356
1.44646
1.44685
1.44646
1.44117
1.42506
1.40005
1.38851
1.3883
1.38994
1.39501
1.40921
1.44135
1.47654
1.48701
1.48807
1.48856
1.48872
1.48626
1.47612
1.46346
1.45814
1.45701
1.45654
1.45649
1.4573
1.46318
1.48226
1.50704
1.51443
1.51494
1.51524
1.51477
1.50706
1.47829
1.44329
1.43488
1.43502
1.4364
1.44086
1.45492
1.48544
1.50949
1.51304
1.5133
1.51324
1.50948
1.49303
1.46068
1.44201
1.44038
1.4406
1.44075
1.44079
1.44053
1.43898
1.43405
1.42602
1.42214
1.42185
1.42185
1.42211
1.4238
1.42921
1.43748
1.44074
1.44102
1.4411
1.44049
1.43849
1.43762
1.43781
1.43827
1.43901
1.43997
1.44042
1.44045
1.44046
1.44046
1.44025
1.43919
1.43677
1.43475
1.43445
1.43458
1.43503
1.43637
1.44062
1.44989
1.45751
1.45878
1.45884
1.45871
1.45731
1.45197
1.44062
1.43192
1.43068
1.43072
1.43081
1.43082
1.43081
1.43085
1.43094
1.43113
1.43146
1.05812
1.05549
1.04077
1.01439
1.0015
1.0008
1.00123
1.00149
0.998191
0.990879
0.983571
0.976865
0.968132
0.952817
0.929231
0.906098
0.887221
0.859966
0.832215
0.827095
0.827339
0.832514
0.839835
0.849507
0.871132
0.910531
0.947709
0.972332
0.995548
1.0244
1.04946
1.05573
1.05532
1.05261
1.04487
1.03
1.01252
1.007
1.00912
1.01285
1.01887
1.03413
1.0552
1.05866
1.05416
1.04767
1.03995
1.02957
1.02516
1.02588
1.02891
1.0311
1.03194
1.03142
1.02845
1.03062
1.0376
1.04714
1.05941
1.08064
1.11534
1.13834
1.14201
1.14182
1.13931
1.13018
1.11156
1.09844
1.09761
1.0974
1.09729
1.09848
1.10297
1.11094
1.12085
1.13267
1.14917
1.17077
1.18925
1.19933
1.2062
1.21411
1.22499
1.24119
1.25021
1.25209
1.25263
1.25404
1.26144
1.284
1.30758
1.31363
1.3138
1.31166
1.29933
1.27429
1.25566
1.25304
1.25281
1.25414
1.2622
1.28187
1.30417
1.31144
1.31304
1.31396
1.31406
1.31234
1.30903
1.30637
1.3043
1.30249
1.302
1.30277
1.30435
1.30677
1.31083
1.31607
1.32215
1.3301
1.34216
1.35999
1.37546
1.37997
1.38085
1.3815
1.3818
1.38137
1.3776
1.37069
1.36849
1.36916
1.37043
1.37228
1.37632
1.38443
1.39117
1.39334
1.39449
1.39622
1.39912
1.40258
1.40575
1.40934
1.41649
1.43143
1.44825
1.45393
1.45434
1.45409
1.45027
1.43683
1.4093
1.38837
1.3858
1.38654
1.38921
1.39779
1.42187
1.46056
1.48181
1.48487
1.48561
1.48619
1.4861
1.48116
1.46867
1.46171
1.46104
1.46062
1.46005
1.45991
1.46156
1.47231
1.49775
1.51476
1.51665
1.51699
1.51688
1.51207
1.49019
1.45076
1.43319
1.43246
1.43322
1.43626
1.44589
1.47166
1.50499
1.51551
1.51608
1.51628
1.51492
1.50486
1.47618
1.44692
1.44097
1.44103
1.44128
1.44141
1.44143
1.44093
1.43833
1.43134
1.42302
1.4207
1.42067
1.4208
1.42161
1.42466
1.43245
1.44073
1.44274
1.44289
1.44284
1.44162
1.4391
1.43834
1.43857
1.43907
1.43969
1.44
1.44002
1.44003
1.44
1.43987
1.43934
1.43784
1.43584
1.43511
1.43521
1.43555
1.43644
1.43921
1.44666
1.45624
1.45936
1.45949
1.45945
1.45892
1.45635
1.44815
1.43576
1.43068
1.43045
1.4305
1.43052
1.43057
1.43065
1.43073
1.43085
1.43107
1.43152
1.06436
1.05413
1.02995
1.01106
1.00827
1.00792
1.0072
1.00336
0.995487
0.987867
0.980741
0.973463
0.961612
0.940769
0.916655
0.896126
0.870879
0.84034
0.831837
0.830693
0.833364
0.839696
0.843881
0.851789
0.872576
0.907485
0.941969
0.968916
0.998997
1.03958
1.06159
1.06375
1.06402
1.06316
1.05476
1.03438
1.01493
1.01318
1.01566
1.01956
1.02835
1.04811
1.06499
1.06551
1.06129
1.05463
1.04705
1.04003
1.03899
1.04014
1.04125
1.04157
1.04002
1.0336
1.0287
1.03071
1.03708
1.04699
1.06238
1.09166
1.12748
1.13951
1.14039
1.14019
1.13587
1.12122
1.10431
1.09964
1.09936
1.09975
1.10138
1.10554
1.11366
1.12425
1.13531
1.14872
1.16664
1.18639
1.19785
1.20134
1.20471
1.20923
1.21619
1.22649
1.23555
1.24037
1.24378
1.2491
1.26732
1.30208
1.32081
1.32267
1.32271
1.31769
1.29797
1.26791
1.25562
1.25471
1.25461
1.25706
1.26798
1.28557
1.30026
1.30816
1.31036
1.31146
1.31163
1.30879
1.30503
1.30351
1.30292
1.30278
1.303
1.30463
1.30865
1.31524
1.32299
1.32988
1.33568
1.34165
1.34994
1.36305
1.37614
1.38089
1.3821
1.38299
1.38366
1.38379
1.38066
1.37337
1.37121
1.37175
1.37296
1.37517
1.38034
1.38801
1.39204
1.39326
1.39436
1.396
1.39852
1.40199
1.40622
1.41278
1.42685
1.4474
1.45713
1.45791
1.45786
1.4556
1.44658
1.42329
1.39478
1.38565
1.38544
1.38609
1.39029
1.40619
1.44128
1.4729
1.48078
1.48205
1.48284
1.48336
1.48222
1.47364
1.46362
1.4615
1.46126
1.46119
1.46131
1.46246
1.46859
1.48829
1.51323
1.51994
1.5204
1.52061
1.51766
1.50065
1.46074
1.43258
1.42961
1.43005
1.4321
1.43854
1.45774
1.49409
1.51659
1.51896
1.51924
1.519
1.51367
1.4924
1.45709
1.44202
1.44128
1.4416
1.4419
1.44205
1.44204
1.44111
1.43682
1.42733
1.42034
1.41958
1.41975
1.42032
1.42196
1.42722
1.43741
1.44381
1.44457
1.44464
1.44433
1.44235
1.4394
1.43878
1.43904
1.43948
1.43973
1.43981
1.43986
1.43986
1.43971
1.43924
1.43825
1.43679
1.43579
1.43579
1.43606
1.43675
1.43865
1.44417
1.45394
1.45937
1.45986
1.45984
1.4596
1.45852
1.4543
1.44352
1.43272
1.43042
1.43035
1.43032
1.43031
1.43038
1.43049
1.43064
1.43084
1.43114
1.43187
1.06432
1.04416
1.02023
1.01339
1.01316
1.01309
1.00993
1.0022
0.994241
0.986596
0.979125
0.969325
0.952247
0.929462
0.907352
0.882349
0.851113
0.839335
0.837654
0.83943
0.846167
0.849377
0.852291
0.861324
0.883088
0.909964
0.932491
0.956803
0.992448
1.04222
1.06486
1.06657
1.06714
1.0672
1.06052
1.03917
1.02467
1.02521
1.0286
1.03424
1.04672
1.06647
1.07586
1.07546
1.07185
1.06491
1.05714
1.05154
1.0499
1.05019
1.05046
1.04907
1.04294
1.0332
1.03015
1.03206
1.03785
1.04839
1.0676
1.1022
1.13126
1.13723
1.1379
1.13709
1.12711
1.10822
1.10113
1.10062
1.10086
1.1027
1.10806
1.11824
1.13131
1.14316
1.15437
1.16835
1.18319
1.19332
1.19843
1.20109
1.20279
1.20289
1.20482
1.21154
1.22026
1.22763
1.23466
1.24817
1.28136
1.31917
1.3285
1.32917
1.32828
1.31829
1.28899
1.26137
1.25634
1.25597
1.25615
1.26138
1.27713
1.29075
1.2973
1.30413
1.30765
1.3087
1.30874
1.30725
1.30611
1.30516
1.30441
1.30438
1.30587
1.31095
1.32003
1.32972
1.33595
1.33946
1.34232
1.34608
1.35301
1.36549
1.37816
1.38281
1.38405
1.38496
1.38565
1.38541
1.38031
1.37381
1.37299
1.37363
1.37513
1.37863
1.38611
1.39152
1.39268
1.39339
1.39441
1.39594
1.39823
1.40149
1.40679
1.41842
1.44006
1.45671
1.45941
1.45958
1.45887
1.45357
1.43547
1.40483
1.38787
1.38583
1.38593
1.38745
1.39615
1.42257
1.45966
1.47552
1.47794
1.47896
1.47976
1.48004
1.47626
1.46586
1.46122
1.461
1.46094
1.4611
1.46212
1.46646
1.4814
1.50896
1.52347
1.52467
1.52493
1.52293
1.50966
1.47234
1.43455
1.42735
1.4276
1.42889
1.43302
1.44604
1.4781
1.51324
1.52185
1.52229
1.52243
1.52011
1.50632
1.47197
1.445
1.4415
1.44178
1.4422
1.44244
1.44254
1.4424
1.44059
1.43391
1.42339
1.41931
1.41928
1.41958
1.4204
1.42344
1.43202
1.44239
1.44544
1.44561
1.44562
1.44509
1.44283
1.43985
1.43923
1.43937
1.43948
1.43953
1.43966
1.43975
1.43975
1.43943
1.43853
1.43735
1.43645
1.4363
1.43648
1.43699
1.43837
1.44237
1.45105
1.45847
1.45983
1.45988
1.45986
1.45955
1.45782
1.4517
1.4393
1.43108
1.43016
1.43017
1.43016
1.43018
1.43026
1.43035
1.43048
1.43074
1.43133
1.43289
1.05672
1.03049
1.01901
1.01776
1.01655
1.01292
1.00574
0.997755
0.992277
0.987136
0.979419
0.964332
0.940872
0.919023
0.895729
0.862644
0.848114
0.845717
0.846742
0.854091
0.860106
0.862823
0.868709
0.882035
0.900011
0.913364
0.923738
0.940717
0.978174
1.03526
1.06066
1.06369
1.06574
1.06707
1.06195
1.04285
1.03311
1.03411
1.03852
1.04753
1.06486
1.08289
1.08689
1.0862
1.08268
1.07546
1.06651
1.0598
1.05695
1.05631
1.05584
1.05264
1.04384
1.03451
1.0331
1.03455
1.03982
1.05141
1.07502
1.11141
1.13103
1.13331
1.13395
1.13043
1.11599
1.10567
1.10346
1.10339
1.10495
1.11046
1.12177
1.13694
1.15007
1.16029
1.17117
1.18245
1.18895
1.19305
1.19707
1.19972
1.20045
1.19638
1.19254
1.19622
1.20466
1.21433
1.22692
1.25317
1.30049
1.32949
1.33267
1.33304
1.32978
1.31038
1.27641
1.26114
1.25914
1.25854
1.25875
1.26663
1.28544
1.29467
1.29785
1.30222
1.30615
1.30765
1.30777
1.30757
1.30776
1.30779
1.30764
1.30819
1.3124
1.3227
1.33435
1.34009
1.34218
1.3436
1.34534
1.34864
1.35619
1.36994
1.38138
1.38475
1.38582
1.38665
1.3871
1.38533
1.37847
1.37476
1.37495
1.37592
1.37805
1.38328
1.39125
1.39431
1.39477
1.39527
1.39589
1.39692
1.39861
1.40185
1.4096
1.42714
1.44959
1.4584
1.45936
1.45965
1.45827
1.44702
1.41932
1.39395
1.38747
1.38727
1.38764
1.39117
1.40717
1.44226
1.46887
1.47419
1.47547
1.47636
1.477
1.47604
1.46795
1.46097
1.46078
1.46123
1.4616
1.46237
1.46569
1.47746
1.50437
1.52694
1.53036
1.53047
1.5288
1.51836
1.48563
1.43988
1.42519
1.42511
1.42636
1.42944
1.43797
1.46197
1.50258
1.52355
1.52529
1.52552
1.52487
1.51715
1.48989
1.45291
1.4417
1.44158
1.44216
1.4426
1.44278
1.44286
1.44245
1.43925
1.43021
1.42097
1.41906
1.41916
1.41962
1.42124
1.42687
1.43816
1.44528
1.4461
1.44618
1.44616
1.4455
1.44324
1.44017
1.43916
1.43924
1.43934
1.4394
1.43945
1.43947
1.43935
1.4389
1.43812
1.43733
1.43721
1.43734
1.43764
1.43855
1.44142
1.44848
1.45676
1.45946
1.45969
1.45972
1.45967
1.45914
1.45662
1.44869
1.43595
1.43023
1.42993
1.43
1.43004
1.43006
1.43013
1.43025
1.43043
1.43074
1.43172
1.43496
1.04384
1.02551
1.02175
1.02099
1.01963
1.01517
1.00636
0.996693
0.988192
0.982111
0.973761
0.95612
0.932888
0.908354
0.874977
0.856644
0.853004
0.853245
0.859785
0.868665
0.873182
0.879285
0.894838
0.908648
0.915023
0.917823
0.922848
0.934343
0.9654
1.01755
1.04337
1.04888
1.05309
1.05473
1.05294
1.04095
1.03205
1.03301
1.03893
1.05271
1.07504
1.09091
1.09252
1.09203
1.0897
1.08282
1.07288
1.06534
1.06181
1.06029
1.05869
1.05427
1.044
1.03765
1.03721
1.03808
1.04269
1.05546
1.08366
1.11743
1.12817
1.12945
1.12935
1.12102
1.10835
1.10688
1.10722
1.10833
1.11238
1.12171
1.13607
1.15033
1.16107
1.17104
1.18238
1.18851
1.19028
1.19236
1.19493
1.19651
1.1952
1.1839
1.17844
1.18248
1.19147
1.20405
1.22424
1.26519
1.31711
1.33341
1.33451
1.33434
1.325
1.29482
1.26909
1.26386
1.26295
1.26228
1.26306
1.2743
1.29323
1.29916
1.30042
1.30228
1.30576
1.30781
1.30809
1.30828
1.30894
1.30962
1.31094
1.31472
1.32386
1.33636
1.34269
1.34439
1.34549
1.34669
1.34844
1.3523
1.36187
1.37656
1.38454
1.38631
1.38717
1.38782
1.38776
1.38354
1.37726
1.37641
1.37722
1.37897
1.38281
1.39033
1.39583
1.39683
1.39704
1.39665
1.39672
1.39767
1.39978
1.40449
1.41665
1.43896
1.45464
1.45757
1.45804
1.45798
1.45288
1.43228
1.40373
1.39262
1.39166
1.39189
1.39299
1.39984
1.42393
1.45852
1.47128
1.47272
1.47362
1.47439
1.47456
1.47018
1.46147
1.45951
1.45998
1.46074
1.462
1.46513
1.47515
1.50061
1.52931
1.53612
1.53589
1.53392
1.52627
1.50049
1.45165
1.42526
1.42364
1.42429
1.42607
1.43161
1.44857
1.48648
1.52138
1.52815
1.52845
1.52843
1.52473
1.50641
1.467
1.44329
1.44144
1.44194
1.44267
1.44296
1.44312
1.44317
1.44216
1.43678
1.426
1.41977
1.41922
1.41941
1.42021
1.42321
1.43189
1.44299
1.44633
1.44654
1.44663
1.44662
1.44596
1.44364
1.44033
1.43919
1.43924
1.43934
1.43939
1.43938
1.43921
1.43884
1.43839
1.43794
1.43787
1.43808
1.43846
1.4392
1.44139
1.44725
1.45534
1.45872
1.45912
1.45924
1.45927
1.45918
1.45837
1.45496
1.44551
1.4336
1.42989
1.4298
1.42987
1.4299
1.42995
1.43006
1.43025
1.43054
1.4312
1.43335
1.43949
1.03419
1.02695
1.02571
1.02405
1.01959
1.0117
1.00232
0.994035
0.98695
0.978025
0.96327
0.943053
0.921537
0.890502
0.865559
0.86048
0.860495
0.864665
0.873143
0.879189
0.885717
0.902785
0.920364
0.925534
0.924017
0.921163
0.923516
0.935041
0.956089
0.979949
0.999846
1.0108
1.01432
1.01693
1.02425
1.02717
1.02627
1.02763
1.03453
1.05183
1.07806
1.09181
1.09271
1.09249
1.09116
1.08518
1.07612
1.06964
1.06599
1.0636
1.06053
1.05351
1.0447
1.04188
1.0418
1.04286
1.0482
1.06346
1.09314
1.11849
1.12416
1.12544
1.12483
1.11598
1.10822
1.10835
1.11024
1.11321
1.1183
1.12724
1.13974
1.15258
1.16401
1.17629
1.18692
1.18969
1.19059
1.19205
1.19386
1.19413
1.18511
1.16946
1.16858
1.17323
1.18291
1.19922
1.22781
1.28104
1.32581
1.33376
1.3349
1.33247
1.31157
1.28079
1.2698
1.26833
1.26783
1.2675
1.27081
1.28644
1.30099
1.30319
1.30393
1.30485
1.30498
1.30498
1.3067
1.30805
1.30897
1.31026
1.31421
1.32408
1.33726
1.34454
1.34634
1.34747
1.34868
1.35009
1.35225
1.35734
1.36893
1.38149
1.38564
1.38666
1.38739
1.38796
1.38722
1.38198
1.37817
1.37829
1.37948
1.38226
1.38839
1.39658
1.39963
1.40019
1.40033
1.39877
1.39768
1.39817
1.40045
1.40815
1.42668
1.44769
1.45484
1.45573
1.45621
1.45522
1.44411
1.41753
1.39883
1.396
1.3962
1.39675
1.39938
1.41156
1.44224
1.46742
1.4716
1.47218
1.47256
1.47277
1.47048
1.46233
1.45864
1.45941
1.46026
1.46087
1.4626
1.4705
1.4937
1.52719
1.53947
1.53953
1.538
1.5328
1.51425
1.46917
1.42961
1.42327
1.42344
1.42432
1.42747
1.43856
1.46898
1.51256
1.52983
1.53088
1.53105
1.52979
1.51936
1.48616
1.44928
1.44126
1.44138
1.44226
1.44298
1.44322
1.44337
1.44329
1.44106
1.433
1.42277
1.41972
1.41975
1.42016
1.42155
1.42631
1.43708
1.44555
1.44684
1.44698
1.4471
1.4471
1.44633
1.44361
1.44009
1.43907
1.43911
1.43921
1.43924
1.43918
1.43891
1.43865
1.43837
1.43829
1.43839
1.43867
1.43938
1.44134
1.44651
1.45437
1.4582
1.45864
1.4587
1.45876
1.45877
1.45852
1.4573
1.45303
1.44271
1.43216
1.42975
1.42975
1.42983
1.42988
1.42989
1.42997
1.43019
1.43077
1.43239
1.43712
1.44603
1.03229
1.03081
1.03114
1.02948
1.02245
1.01091
1
0.992644
0.985142
0.972378
0.951755
0.927657
0.898121
0.870599
0.864693
0.864886
0.869972
0.876877
0.880797
0.885895
0.902357
0.925092
0.931774
0.93198
0.924717
0.922579
0.925205
0.938008
0.947101
0.949517
0.954486
0.960889
0.964674
0.965817
0.973526
0.989615
1.00571
1.01464
1.02612
1.04971
1.08195
1.0925
1.09233
1.09118
1.09039
1.08566
1.07728
1.07171
1.06856
1.06585
1.06205
1.05482
1.04818
1.04713
1.04723
1.04927
1.05752
1.0772
1.10322
1.11638
1.11916
1.12033
1.11944
1.11172
1.10766
1.10878
1.11154
1.11551
1.1214
1.12976
1.14035
1.15149
1.1632
1.17758
1.1884
1.19051
1.19122
1.19167
1.19146
1.18513
1.1675
1.16208
1.16456
1.1694
1.17872
1.19742
1.23642
1.29607
1.32786
1.33194
1.33277
1.32386
1.29453
1.27659
1.27451
1.27439
1.27429
1.27538
1.28406
1.3011
1.30859
1.30908
1.30926
1.30805
1.30361
1.30187
1.3038
1.30643
1.30873
1.31193
1.32021
1.33626
1.34701
1.34861
1.34942