/*--------------------------------*- C++ -*----------------------------------*\
  =========                 |
  \\      /  F ield         | OpenFOAM: The Open Source CFD Toolbox
   \\    /   O peration     | Website:  https://openfoam.org
    \\  /    A nd           | Version:  7
     \\/     M anipulation  |
\*---------------------------------------------------------------------------*/
FoamFile
{
    version     2.0;
    format      ascii;
    class       volScalarField;
    location    "1.8";
    object      T;
}
// * * * * * * * * * * * * * * * * * * * * * * * * * * * * * * * * * * * * * //

dimensions      [0 0 0 1 0 0 0];

internalField   nonuniform List<scalar> 
3328
(
1
1
1
1
1
1
1
1
1
1
1
2.28539
2.70559
2.7586
2.79493
2.82191
2.83668
2.84084
2.84065
2.84234
2.8525
2.87125
2.88828
2.89695
1
1
1
1
1
1
1
1
1
1
1
2.26966
2.70434
2.7591
2.79444
2.82083
2.83503
2.83882
2.8384
2.83986
2.84979
2.86827
2.88533
2.89397
1
1
1
1
1
1
1
1
1
1
1
2.23367
2.7045
2.75884
2.79251
2.81805
2.83162
2.83513
2.83462
2.83607
2.84588
2.86409
2.88119
2.88999
1
1
1
1
1
1
1
1
1
1
1
2.17721
2.70216
2.75679
2.78827
2.81303
2.82611
2.82936
2.82876
2.83029
2.84003
2.85764
2.87425
2.88247
1
1
1
1
1
1
1
1
1
1
1
2.09774
2.69399
2.75092
2.78063
2.80501
2.81807
2.82122
2.82037
2.82151
2.83027
2.84651
2.86184
2.87026
1
1
1
1
1
1
1
1
1
1
1
1.98916
2.67646
2.73973
2.77007
2.79492
2.80779
2.81027
2.80903
2.8102
2.81886
2.83443
2.84649
2.8476
1
1
1
1
1
1
1
1
1
1
1
1.84987
2.64656
2.72327
2.75536
2.78088
2.79438
2.79697
2.79535
2.79554
2.80113
2.81066
2.81912
2.82173
1
1
1
1
1
1
1
1
1
1
1
1.65322
2.58499
2.70023
2.73557
2.76329
2.77867
2.78232
2.78049
2.77915
2.7807
2.78867
2.80215
2.82648
1
1
1
1
1
1
1
1
1
1
1
1.38032
2.48281
2.68145
2.71079
2.7391
2.7579
2.76458
2.76337
2.76029
2.75465
2.75325
2.74037
2.73665
1
1
1
1
1
1
1
1
1
1
1
1.07544
2.36205
2.68053
2.69621
2.71687
2.73526
2.74319
2.74244
2.73804
2.72771
2.71699
2.70278
2.70319
1
1
1
1
1
1
1
1
1
1
1
1.00135
2.21368
2.65196
2.66808
2.6868
2.70578
2.71712
2.7171
2.71251
2.70134
2.68569
2.67292
2.66618
1
1
1
1
1
1
1
1
1
1
1
1
1.98982
2.62179
2.65932
2.67836
2.69143
2.69861
2.69709
2.69122
2.68027
2.66422
2.65352
2.64545
1
1
1
1
1
1
1
1
1
1
1
1
1.6406
2.52659
2.63809
2.6636
2.67599
2.68059
2.67848
2.6723
2.66254
2.6487
2.6393
2.63282
1
1
1
1
1
1
1
1
1
1
1
1
1.18344
2.37389
2.63242
2.64082
2.65272
2.65913
2.6586
2.65419
2.64679
2.63619
2.62868
2.62455
1
1
1
1
1
1
1
1
1
1
1
1
1.00753
2.20494
2.59033
2.60729
2.62232
2.6334
2.63802
2.63623
2.63173
2.62436
2.6191
2.61636
1
1
1
1
1
1
1
1
1
1
1
1
1
1.84939
2.52185
2.57956
2.59974
2.61428
2.62069
2.62025
2.61714
2.61182
2.60785
2.60669
1
1
1
1
1
1
1
1
1
1
1
1
0.999999
1.31742
2.38918
2.5753
2.5822
2.59366
2.60027
2.60168
2.60005
2.59674
2.59445
2.59416
1
1
1
1
1
1
1
1
1
1
1
1
1
1.02219
2.21751
2.54453
2.557
2.56823
2.57575
2.58142
2.58153
2.57999
2.57852
2.57835
1
1
1
1
1
1
1
1
1
1
1
1
1
1.00007
1.81322
2.47365
2.53798
2.54956
2.5564
2.56206
2.56381
2.56305
2.56198
2.56097
1
1
1
1
1
1
1
1
1
1
1
1
1
1
1.19993
2.32269
2.53036
2.52664
2.53264
2.53857
2.54329
2.54371
2.54354
2.54385
1
1
1
1
1
1
1
1
1
1
1
1
1
1
1.00807
2.08149
2.48363
2.49878
2.50833
2.51557
2.52222
2.52543
2.53162
2.54613
1
1
1
1
1
1
1
1
1
1
1
1
1
1
1
1.52173
2.37142
2.49867
2.49269
2.49671
2.50875
2.52636
2.56316
2.61922
1
1
1
1
1
1
1
1
1
1
1
1
1
1
0.999999
1.06183
2.19288
2.47445
2.46858
2.47923
2.52283
2.60053
2.67739
2.72354
1
1
1
1
1
1
1
1
1
1
1
1
1
1
1
1.00066
1.71939
2.3748
2.46796
2.54477
2.64752
2.72305
2.75203
2.75187
1
1
1
1
1
1
1
1
1
1
1
1
1
1
1
1
1.13508
2.19238
2.60272
2.69736
2.73828
2.74837
2.73714
2.72943
1
1
1
1
1
1
1
1
1
1
1
1
1
1
1
1
1.00356
2.21443
2.84752
2.80664
2.76676
2.73137
2.70838
2.69278
1
1
1
1
1
1
1
1
1
1
1
1
1
1
1
1
1.00003
2.36533
3.03216
2.91121
2.78483
2.71988
2.68755
2.66701
1
1
1
1
1
1
1
1
1
1
1
1
1
1
1
1
1.02213
2.53663
3.09552
2.96912
2.82888
2.74859
2.70114
2.6696
1
1
1
1
1
1
1
1
1
1
1
1
1
1
1
1
1.16106
2.62367
3.11268
3.04446
2.94071
2.85841
2.78539
2.72264
1
1
1
1
1
1
1
1
1
1
1
1
1
1
1
1
1.18282
2.61877
3.09288
3.07373
3.02632
2.97112
2.892
2.81106
1
1
1
1
1
1
1
1
1
1
1
1
1
1
1
1
1.15743
2.5869
3.07779
3.08163
3.05976
3.03176
2.97861
2.9109
1
1
1
1
1
1
1
1
1
1
1
1
1
1
1
1
1.10063
2.52863
3.06397
3.07736
3.06502
3.04898
3.02346
2.98616
1
1
1
1
1
1
1
1
1
1
1
1
1
1
1
1
1.04174
2.47853
3.04997
3.06621
3.05799
3.04831
3.03574
3.01993
1
1
1
1
1
1
1
1
1
1
1
1
1
1
1
1
1.01176
2.4527
3.04429
3.04965
3.04017
3.04056
3.03542
3.02568
1
1
1
1
1
1
1
1
1
1
1
1
1
1
1
1
1.00001
2.43486
3.04337
3.04299
3.02472
3.02713
3.02248
3.01702
1
1
1
1
1
1
1
1
1
1
1
1
1
1
1
1
1
2.42211
3.04477
3.04125
3.01472
3.01176
3.00422
2.99856
1
1
1
1
1
1
1
1
1
1
1
1
1
1
1
1
1
2.4126
3.04763
3.04196
3.01022
3.00016
2.98978
2.98208
1
1
1
1
1
1
1
1
1
1
1
1
1
1
1
1
1
2.40399
3.04918
3.04128
3.00876
2.99565
2.98457
2.97433
1
1
1
1
1
1
1
1
1
1
1
1
1
1
1
1
1
2.39541
3.04835
3.03799
3.00711
2.99479
2.98489
2.97322
1
1
1
1
1
1
1
1
1
1
1
1
1
1
1
1
1
2.38875
3.0447
3.03359
3.00504
2.99507
2.98589
2.97478
2.61302
2.77247
2.92565
3.07175
3.17458
3.22886
3.24792
3.25053
2.74683
2.84929
2.93624
3.06308
3.16133
3.21695
3.23847
3.2411
2.70142
2.78505
2.8744
3.00497
3.11376
3.18525
3.21074
3.21428
2.66592
2.72615
2.80911
2.93329
3.04627
3.13225
3.15922
3.17174
2.64274
2.67437
2.72923
2.82696
2.93823
3.04255
3.09036
3.11114
2.62917
2.645
2.67593
2.74171
2.83518
2.94752
3.02336
3.05271
2.6186
2.62511
2.63928
2.67466
2.73432
2.8291
2.94016
3.00815
2.60781
2.61034
2.61682
2.63387
2.66553
2.73263
2.8568
3.00942
2.59477
2.59573
2.59762
2.60354
2.61581
2.647
2.69366
2.70292
2.57856
2.57847
2.57729
2.57823
2.57834
2.57717
2.56282
2.48586
2.56074
2.56174
2.56172
2.5632
2.56012
2.54798
2.50209
2.40255
2.54802
2.55953
2.57784
2.59815
2.60561
2.59074
2.54337
2.44953
2.57496
2.61629
2.65069
2.6694
2.65963
2.63094
2.58164
2.50082
2.67048
2.69863
2.70894
2.69498
2.66931
2.63198
2.58453
2.51846
2.73691
2.72198
2.70116
2.67849
2.65081
2.61641
2.57234
2.5148
2.7379
2.71324
2.68484
2.65578
2.62304
2.58813
2.54867
2.5039
2.7173
2.69726
2.67085
2.6403
2.60714
2.57246
2.53639
2.49887
2.68464
2.67469
2.65697
2.63115
2.60094
2.56904
2.53592
2.50084
2.65606
2.65065
2.64114
2.62333
2.59763
2.56819
2.5363
2.50257
2.64897
2.63612
2.62693
2.61235
2.58974
2.56268
2.53285
2.50148
2.67684
2.64874
2.62731
2.60952
2.58722
2.55921
2.52887
2.49838
2.73778
2.68654
2.64966
2.62183
2.59291
2.56291
2.53125
2.50049
2.83244
2.7633
2.70707
2.6624
2.62152
2.58346
2.54571
2.5109
2.93625
2.87665
2.81453
2.75267
2.6908
2.6354
2.58552
2.54028
2.99347
2.95985
2.91318
2.85519
2.7898
2.72097
2.65544
2.59906
3.01157
2.99508
2.97358
2.93925
2.88878
2.8235
2.75613
2.69269
3.00643
2.99734
2.99166
2.97835
2.95059
2.90678
2.85313
2.79543
2.99198
2.98865
2.9891
2.98489
2.97016
2.94315
2.90797
2.86783
2.97585
2.97611
2.98119
2.98212
2.97254
2.95225
2.92758
2.90086
2.96712
2.9682
2.97511
2.9793
2.9745
2.9571
2.93368
2.91208
2.96577
2.96757
2.97558
2.98108
2.97551
2.95952
2.93865
2.91657
2.96803
2.9703
2.97859
2.98484
2.97876
2.9632
2.94199
2.91801
2.00155
1.60264
1.40812
1.40726
1.45096
1.55759
1.66377
1.77419
1.90018
2.04267
2.19357
2.34621
2.50509
2.74569
2.92534
2.89134
2.89245
2.92195
2.907
2.89569
2.89756
2.89574
2.8891
2.87518
2.85877
2.84441
2.83296
2.82385
2.81343
2.80025
2.78565
2.77061
2.75487
2.73698
2.71535
2.68937
2.66442
2.64527
2.62905
2.61849
2.61885
2.62213
2.61578
2.6055
2.59443
2.58046
2.55741
2.52026
2.48346
2.46095
2.44819
2.43823
2.42932
2.4237
2.42157
2.415
2.40225
2.38756
2.36965
2.34259
2.31041
2.28663
2.27043
2.25796
2.24685
2.23554
2.2231
2.20921
2.19486
2.18162
2.16976
2.15849
2.14699
2.13316
2.11155
2.0844
2.063
2.04742
2.03406
2.02237
2.01206
2.00237
1.9928
1.98174
1.96577
1.94006
1.91879
1.89993
2.10653
1.91985
1.79915
1.67606
1.61645
1.63508
1.67363
1.70529
1.75558
1.81809
1.86738
1.9495
2.07369
2.27215
2.5596
2.73219
2.80791
2.85091
2.84084
2.84101
2.84121
2.84042
2.83578
2.82527
2.81148
2.79772
2.78602
2.77481
2.76446
2.75428
2.74459
2.73653
2.72753
2.71448
2.6965
2.67155
2.64232
2.61989
2.60352
2.59143
2.58825
2.58737
2.57834
2.56754
2.5563
2.54257
2.52563
2.50473
2.48454
2.46276
2.44131
2.42731
2.41769
2.41052
2.40517
2.3939
2.37923
2.36398
2.34817
2.32899
2.30658
2.28342
2.2628
2.24737
2.23577
2.22519
2.2141
2.20186
2.18883
2.17627
2.16458
2.15257
2.13786
2.11889
2.09958
2.08084
2.06274
2.04699
2.03317
2.02091
2.00946
1.99801
1.98562
1.97243
1.95828
1.93965
1.9218
1.90174
2.17463
2.02185
1.94141
1.84884
1.75521
1.73616
1.76681
1.76336
1.73219
1.73289
1.74548
1.74965
1.75456
1.81779
2.06199
2.42262
2.62703
2.72362
2.72195
2.71976
2.70442
2.70301
2.70069
2.69795
2.69459
2.68602
2.67468
2.66161
2.6472
2.63532
2.62599
2.62173
2.62104
2.61688
2.60861
2.59553
2.57272
2.54606
2.52973
2.51962
2.51369
2.50522
2.49612
2.48628
2.474
2.45856
2.44307
2.43689
2.4315
2.42376
2.40983
2.39019
2.37659
2.36653
2.35437
2.34001
2.32415
2.30789
2.29192
2.27961
2.26906
2.25696
2.23963
2.21875
2.20343
2.19303
2.18366
2.1741
2.16422
2.15391
2.14262
2.129
2.11106
2.08922
2.06783
2.05316
2.04286
2.03277
2.02156
2.00931
1.99661
1.98309
1.96799
1.95169
1.93595
1.92244
1.91329
1.89775
2.28485
2.14513
2.06498
1.99669
1.90676
1.85822
1.85588
1.83619
1.79274
1.76872
1.74356
1.71475
1.72051
1.72914
1.75373
1.94912
2.28262
2.49725
2.5597
2.60118
2.58407
2.57312
2.56274
2.55793
2.55739
2.55022
2.54207
2.53213
2.51893
2.50424
2.49225
2.48335
2.48116
2.47988
2.47573
2.47003
2.458
2.4358
2.41461
2.40456
2.39819
2.39236
2.38656
2.37914
2.36731
2.35266
2.34602
2.34406
2.34309
2.34168
2.33678
2.32397
2.30317
2.2847
2.27032
2.25583
2.24026
2.22483
2.2133
2.20634
2.20083
2.195
2.18557
2.1689
2.15094
2.13931
2.1308
2.12295
2.1152
2.10714
2.09769
2.08443
2.06434
2.04123
2.02485
2.01393
2.00344
1.9942
1.98596
1.97784
1.96852
1.95638
1.93901
1.91943
1.90443
1.89476
1.88833
1.87533
2.37899
2.25861
2.17189
2.10664
2.02473
1.94766
1.91815
1.8984
1.8575
1.82551
1.80865
1.7839
1.78316
1.77914
1.7695
1.77361
1.86542
2.13461
2.35189
2.4629
2.49345
2.50544
2.4915
2.47513
2.46067
2.44611
2.43551
2.42858
2.42204
2.41122
2.39735
2.38297
2.37191
2.36691
2.36233
2.35803
2.35213
2.33985
2.32047
2.30197
2.28994
2.28206
2.27526
2.26694
2.25609
2.25107
2.25045
2.25073
2.25261
2.25276
2.25015
2.24131
2.21809
2.18742
2.16792
2.15463
2.14337
2.13512
2.12981
2.12583
2.12228
2.11822
2.11157
2.09861
2.08215
2.07156
2.06494
2.05871
2.05144
2.04217
2.03021
2.01465
1.99727
1.98521
1.97752
1.9687
1.95774
1.94577
1.93454
1.92579
1.91835
1.90853
1.89481
1.8815
1.87149
1.86186
1.8527
1.83741
2.42833
2.33268
2.24518
2.17835
2.11265
2.03333
1.98126
1.96698
1.94217
1.90237
1.88732
1.86724
1.85393
1.84817
1.83178
1.81299
1.80635
1.83715
2.00027
2.22744
2.38026
2.41797
2.44439
2.44211
2.42118
2.39989
2.37778
2.36709
2.36042
2.35178
2.33976
2.32495
2.31048
2.29776
2.2886
2.28172
2.27652
2.26993
2.25778
2.2387
2.22082
2.20913
2.19961
2.1887
2.17952
2.17639
2.17399
2.1732
2.17381
2.17254
2.16883
2.16113
2.13987
2.10372
2.08072
2.07134
2.06494
2.05982
2.05573
2.05216
2.04915
2.04574
2.03986
2.02816
2.0125
2.00281
1.99801
1.99372
1.98752
1.9753
1.95512
1.93684
1.92883
1.9252
1.92084
1.91508
1.90749
1.89728
1.88437
1.86973
1.8555
1.84443
1.83823
1.83443
1.83037
1.824
1.81459
1.79614
2.44606
2.3749
2.30132
2.23638
2.18191
2.11853
2.05177
2.02357
2.01374
1.984
1.95535
1.9421
1.92603
1.9131
1.89643
1.87561
1.85272
1.83214
1.83798
1.90445
2.1008
2.26687
2.36341
2.39594
2.38963
2.37852
2.35935
2.34188
2.32558
2.3121
2.29925
2.28528
2.27228
2.25988
2.25021
2.24321
2.23466
2.2268
2.2175
2.2026
2.18312
2.16613
2.15209
2.13897
2.131
2.12595
2.12094
2.11659
2.1128
2.10821
2.10266
2.094
2.07621
2.04546
2.02142
2.01396
2.00917
2.00436
1.99958
1.99514
1.99133
1.98735
1.98141
1.97086
1.95632
1.94503
1.93855
1.93325
1.92479
1.9082
1.88887
1.88027
1.87725
1.87409
1.87027
1.86544
1.85899
1.84895
1.83199
1.81002
1.79598
1.79148
1.78977
1.78841
1.78626
1.78235
1.77471
1.75315
2.45377
2.40265
2.34641
2.28723
2.23724
2.18868
2.13102
2.0857
2.06954
2.05411
2.02122
2.00074
1.98709
1.96808
1.9502
1.92912
1.90652
1.87795
1.85629
1.84435
1.86194
1.96249
2.13263
2.27237
2.32854
2.35259
2.3495
2.33292
2.30847
2.28549
2.26884
2.25431
2.24175
2.23097
2.2225
2.21798
2.20909
2.2
2.19081
2.17894
2.16168
2.14079
2.12176
2.10698
2.09721
2.08975
2.08266
2.07557
2.06869
2.06197
2.0547
2.04539
2.03169
2.01172
1.98877
1.97483
1.96881
1.96336
1.95745
1.95187
1.94691
1.94199
1.93576
1.92656
1.91357
1.90033
1.89144
1.88189
1.86737
1.85129
1.84325
1.83929
1.83501
1.83093
1.82692
1.82244
1.81709
1.80608
1.78075
1.75683
1.75025
1.74822
1.74709
1.74599
1.74458
1.74276
1.73698
1.71105
2.45969
2.42193
2.38043
2.33237
2.28433
2.24195
2.19894
2.15097
2.11877
2.10397
2.08021
2.04641
2.02802
2.01146
1.99144
1.97161
1.94945
1.9212
1.89529
1.87181
1.85108
1.8504
1.87549
1.98864
2.1367
2.25661
2.30414
2.30686
2.29632
2.27057
2.24574
2.22894
2.21507
2.20381
2.19529
2.18787
2.18278
2.17575
2.16705
2.15728
2.14357
2.12341
2.10144
2.08464
2.07175
2.0611
2.05202
2.0435
2.03527
2.02724
2.01908
2.01028
2.0002
1.98683
1.96843
1.95031
1.93895
1.93139
1.92458
1.918
1.91192
1.90617
1.90003
1.89244
1.8813
1.86552
1.84806
1.83252
1.81965
1.81532
1.81361
1.81025
1.80455
1.79835
1.79389
1.79038
1.78519
1.7707
1.74307
1.72471
1.71805
1.7143
1.7128
1.71256
1.71346
1.71195
1.704
1.67543
2.46619
2.43577
2.40347
2.36539
2.32509
2.28474
2.24792
2.21162
2.1691
2.13673
2.11605
2.08719
2.06107
2.0457
2.0255
2.00532
1.98329
1.95414
1.92735
1.90511
1.88102
1.85908
1.847
1.84678
1.88305
2.00301
2.13971
2.2211
2.25274
2.24422
2.22656
2.20961
2.19065
2.17767
2.16718
2.15863
2.1528
2.14883
2.14125
2.13315
2.12292
2.10654
2.08449
2.06495
2.04993
2.03663
2.02509
2.01534
2.00652
1.99816
1.99001
1.98196
1.97342
1.9627
1.94843
1.93176
1.91696
1.90605
1.89718
1.88889
1.88148
1.87548
1.87005
1.86377
1.85476
1.83752
1.81212
1.79382
1.78948
1.78823
1.7868
1.78421
1.78041
1.77575
1.76986
1.76009
1.74492
1.72797
1.71325
1.70454
1.6985
1.69351
1.689
1.6842
1.67741
1.66944
1.66017
1.6431
2.46941
2.44221
2.41625
2.38498
2.35238
2.31726
2.28006
2.24804
2.2117
2.16959
2.13829
2.11659
2.09587
2.07479
2.05106
2.02867
2.00681
1.97978
1.95064
1.92707
1.90342
1.87748
1.8553
1.83777
1.83152
1.83601
1.88296
1.9837
2.10118
2.16096
2.17842
2.17417
2.16532
2.15758
2.14372
2.12955
2.12386
2.11838
2.11289
2.10574
2.09742
2.08547
2.06673
2.04572
2.02873
2.01408
2.00003
1.98813
1.97866
1.97028
1.96244
1.95498
1.94715
1.93787
1.92607
1.91131
1.89628
1.88421
1.87439
1.86514
1.85574
1.84691
1.84098
1.83663
1.8283
1.81126
1.78751
1.77327
1.76721
1.76403
1.76247
1.76201
1.76207
1.76048
1.75319
1.73709
1.71483
1.69599
1.68858
1.68447
1.67962
1.67452
1.6693
1.66173
1.65
1.63438
1.62487
1.6172
2.47065
2.44463
2.42238
2.39572
2.36663
2.33849
2.30484
2.26987
2.23742
2.20215
2.16647
2.14085
2.12485
2.10495
2.07645
2.04756
2.02448
2.00083
1.97383
1.94654
1.91966
1.89345
1.8697
1.85015
1.83295
1.81941
1.81019
1.80877
1.84889
1.94074
2.03871
2.08581
2.10725
2.11686
2.11151
2.10288
2.09373
2.08815
2.0834
2.07814
2.07033
2.05996
2.04464
2.02406
2.00479
1.9897
1.97585
1.96243
1.95143
1.94253
1.93446
1.92686
1.91928
1.91096
1.90041
1.88635
1.87157
1.86046
1.85185
1.8434
1.83434
1.82452
1.81379
1.80095
1.78762
1.77592
1.76687
1.76043
1.75435
1.74822
1.74307
1.74073
1.73846
1.7316
1.721
1.70659
1.69027
1.67731
1.66833
1.66375
1.66127
1.65899
1.65348
1.64291
1.62659
1.61071
1.60495
1.59905
2.47054
2.44692
2.42641
2.40308
2.37611
2.35105
2.32418
2.29092
2.25664
2.227
2.19892
2.16834
2.14329
2.12423
2.09973
2.06849
2.03906
2.01381
1.98859
1.9602
1.92898
1.90108
1.88006
1.86089
1.84214
1.82198
1.80275
1.7857
1.77592
1.77394
1.81124
1.88887
1.96159
2.01607
2.049
2.05355
2.05451
2.05479
2.05614
2.0505
2.04397
2.03532
2.02238
2.0031
1.98236
1.96511
1.95098
1.9389
1.92796
1.91765
1.90887
1.90091
1.89353
1.88661
1.87788
1.86322
1.84552
1.83451
1.82677
1.81872
1.8104
1.80122
1.78953
1.77437
1.75862
1.74849
1.74493
1.74245
1.73945
1.73496
1.72982
1.72175
1.70891
1.69766
1.68799
1.67856
1.67066
1.66433
1.657
1.64905
1.64066
1.63086
1.62039
1.61061
1.60252
1.59883
1.59667
1.59248
2.47273
2.44966
2.4293
2.4079
2.38434
2.36035
2.33711
2.30941
2.27509
2.24186
2.21731
2.19198
2.16018
2.13351
2.11233
2.08692
2.05924
2.0309
2.00054
1.96886
1.93792
1.90991
1.88861
1.87154
1.85365
1.833
1.81073
1.78834
1.76745
1.75263
1.74256
1.73439
1.75907
1.8128
1.88973
1.96145
2.00266
2.00622
2.01262
2.02153
2.01687
2.0094
1.99922
1.98387
1.96542
1.94818
1.93228
1.91509
1.89948
1.88943
1.8826
1.87758
1.87357
1.8687
1.86104
1.84759
1.82808
1.80704
1.79875
1.79404
1.78743
1.77814
1.76581
1.75089
1.73866
1.73342
1.72978
1.7263
1.72319
1.71931
1.70785
1.68769
1.67198
1.66379
1.65775
1.65411
1.65232
1.64907
1.64381
1.63505
1.62132
1.60615
1.59408
1.58836
1.58899
1.59276
1.60129
1.62545
2.48107
2.45631
2.43372
2.41077
2.38958
2.36719
2.34426
2.3189
2.28736
2.25108
2.22201
2.20021
2.17388
2.1449
2.12084
2.0987
2.07412
2.04668
2.01572
1.98119
1.94777
1.92014
1.89738
1.87785
1.85969
1.84085
1.82008
1.79805
1.77561
1.75529
1.73448
1.71919
1.69845
1.67957
1.69901
1.76021
1.84865
1.91225
1.95419
1.97638
1.98613
1.9849
1.97595
1.95982
1.9449
1.93072
1.91492
1.8974
1.88181
1.87413
1.86845
1.86142
1.85154
1.84175
1.83419
1.82827
1.81553
1.79348
1.77385
1.7618
1.75335
1.74545
1.73717
1.73027
1.7274
1.72534
1.72253
1.71842
1.70876
1.69137
1.67207
1.65481
1.64296
1.63734
1.63609
1.63577
1.63481
1.63221
1.62781
1.62057
1.60364
1.58681
1.58779
1.59424
1.61148
1.64249
1.68173
1.74557
2.50273
2.47338
2.44609
2.42122
2.39933
2.37477
2.34869
2.32269
2.29276
2.25672
2.22456
2.20311
2.18183
2.15601
2.13186
2.1093
2.08535
2.05919
2.03019
1.99764
1.96299
1.93214
1.90738
1.88621
1.86621
1.84664
1.82734
1.80845
1.78906
1.76842
1.74503
1.71902
1.69135
1.66878
1.64842
1.64936
1.67389
1.73164
1.80976
1.87478
1.92347
1.95371
1.95548
1.94781
1.93081
1.90926
1.88796
1.87953
1.8754
1.86953
1.86379
1.85543
1.84313
1.832
1.82076
1.80745
1.79266
1.77591
1.75793
1.74416
1.73552
1.72816
1.72184
1.71797
1.714
1.70906
1.70327
1.69383
1.67783
1.65557
1.63845
1.62881
1.62113
1.62003
1.62037
1.62208
1.62361
1.62343
1.62059
1.61508
1.61698
1.62754
1.65188
1.68835
1.72527
1.77121
1.80397
1.82924
2.55309
2.51469
2.47951
2.44806
2.42049
2.39566
2.36399
2.33161
2.30005
2.26666
2.23199
2.20463
2.18712
2.16636
2.1418
2.11913
2.09703
2.07314
2.04658
2.01675
1.98219
1.94655
1.91781
1.89582
1.87621
1.85718
1.83848
1.82066
1.80336
1.78551
1.76611
1.7414
1.71214
1.67977
1.6544
1.64417
1.63668
1.63542
1.65524
1.70959
1.78161
1.85185
1.90344
1.93044
1.9273
1.91432
1.89379
1.87389
1.8557
1.84916
1.84672
1.84591
1.84188
1.83395
1.8215
1.80583
1.78941
1.76953
1.74595
1.73289
1.7269
1.72277
1.7192
1.71415
1.70765
1.69952
1.68676
1.66965
1.64963
1.63086
1.62047
1.61426
1.61287
1.61311
1.61461
1.6198
1.62836
1.64215
1.66544
1.69478
1.72255
1.75319
1.7833
1.80538
1.81697
1.82725
1.82902
1.82029
2.63518
2.58507
2.54332
2.50407
2.46777
2.43506
2.40171
2.36763
2.33429
2.30135
2.26621
2.23168
2.20844
2.19378
2.17088
2.14332
2.11724
2.09301
2.06775
2.03802
2.00391
1.96889
1.93676
1.9107
1.88961
1.87122
1.85416
1.83735
1.82002
1.80175
1.78227
1.76123
1.73858
1.71235
1.6853
1.66388
1.64778
1.63937
1.63566
1.63211
1.6466
1.69212
1.76162
1.83994
1.87709
1.90022
1.89887
1.88871
1.87066
1.85944
1.84845
1.83864
1.83178
1.82417
1.81505
1.80401
1.79058
1.77369
1.75172
1.73373
1.723
1.71301
1.7047
1.69718
1.68954
1.6811
1.66957
1.65139
1.63465
1.61984
1.61486
1.61598
1.62072
1.6332
1.65657
1.68717
1.72283
1.75615
1.78524
1.80599
1.82357
1.84023
1.85442
1.85505
1.85026
1.84015
1.83018
1.8108
2.73842
2.68514
2.63664
2.58879
2.54503
2.50536
2.46904
2.42733
2.38671
2.34785
2.30971
2.27412
2.24345
2.21821
2.19948
2.17601
2.15042
2.12445
2.09786
2.07211
2.04437
2.00872
1.97212
1.94605
1.92758
1.91142
1.89436
1.87628
1.8575
1.83853
1.81985
1.80136
1.78112
1.75477
1.71811
1.6879
1.67333
1.6642
1.64951
1.6359
1.62621
1.62188
1.63168
1.6711
1.73732
1.80276
1.85198
1.86593
1.87808
1.87584
1.8619
1.85377
1.84445
1.83296
1.81896
1.80304
1.78588
1.76998
1.75622
1.74129
1.72692
1.71368
1.70351
1.6945
1.68573
1.67633
1.66752
1.65354
1.63607
1.63465
1.64293
1.66814
1.70575
1.75553
1.79844
1.83635
1.85055
1.85217
1.84974
1.84858
1.85009
1.85241
1.85146
1.84756
1.84097
1.83005
1.81449
1.79565
2.82428
2.77856
2.73183
2.68682
2.64436
2.60164
2.56045
2.51481
2.4665
2.4201
2.37825
2.34107
2.30675
2.27756
2.25523
2.23263
2.20519
2.17804
2.15007
2.1199
2.08689
2.05166
2.0172
1.988
1.96326
1.94083
1.92001
1.89993
1.88008
1.86027
1.84039
1.81982
1.79735
1.77471
1.7519
1.72587
1.70079
1.67912
1.66244
1.64915
1.63578
1.62359
1.6138
1.60814
1.6151
1.64902
1.70507
1.76295
1.81681
1.84392
1.85762
1.857
1.85387
1.8454
1.83276
1.8163
1.79752
1.77768
1.75686
1.73818
1.72314
1.71426
1.70759
1.70225
1.69417
1.68519
1.67982
1.68875
1.70818
1.74202
1.78247
1.82414
1.86171
1.89207
1.90943
1.91327
1.91031
1.90513
1.89697
1.88618
1.8776
1.86801
1.85536
1.84295
1.83413
1.82097
1.80474
1.78771
2.87234
2.84238
2.81123
2.77946
2.74613
2.70953
2.66878
2.62218
2.57191
2.52214
2.4758
2.43388
2.39612
2.36226
2.33325
2.30896
2.2786
2.24731
2.21557
2.18123
2.14407
2.10527
2.0684
2.03707
2.00977
1.98473
1.96176
1.94028
1.91963
1.89892
1.87708
1.85319
1.82648
1.79747
1.76895
1.74597
1.72482
1.70414
1.68419
1.66592
1.65009
1.63639
1.62352
1.6123
1.60117
1.58924
1.58679
1.6086
1.65528
1.72284
1.79316
1.8219
1.83088
1.83789
1.83536
1.82557
1.81
1.79101
1.76895
1.7509
1.73712
1.72997
1.72463
1.72206
1.73206
1.76053
1.80199
1.84193
1.88121
1.90986
1.9276
1.93455
1.93881
1.93463
1.93439
1.93364
1.92716
1.91923
1.90977
1.89687
1.87962
1.86693
1.85771
1.84926
1.83684
1.8214
1.80622
1.7902
2.89104
2.87111
2.854
2.83928
2.82343
2.80212
2.77044
2.72743
2.67779
2.62729
2.57934
2.53448
2.49226
2.45276
2.41769
2.38917
2.3591
2.32185
2.28493
2.24614
2.2044
2.16068
2.11915
2.08367
2.05316
2.02557
2.00035
1.97671
1.95364
1.93007
1.90485
1.87756
1.848
1.81885
1.79238
1.76756
1.7426
1.71979
1.70024
1.68369
1.66845
1.6529
1.6373
1.62074
1.60434
1.58728
1.57214
1.55529
1.55013
1.56962
1.61958
1.69392
1.75044
1.80161
1.81892
1.81287
1.80242
1.79447
1.78637
1.77849
1.77883
1.78671
1.80865
1.84143
1.88752
1.93505
1.97424
1.99625
2.00685
2.00748
2.00427
1.99236
1.97745
1.96661
1.95903
1.94962
1.93723
1.92313
1.909
1.8934
1.87562
1.86179
1.85434
1.84662
1.83727
1.82612
1.81746
1.80178
2.8984
2.88232
2.8717
2.86638
2.86162
2.85116
2.82764
2.79041
2.74577
2.69837
2.64947
2.60097
2.55501
2.51265
2.47467
2.44442
2.41383
2.37224
2.33
2.28675
2.24227
2.19798
2.15524
2.11637
2.08232
2.05187
2.02395
1.99774
1.97247
1.9472
1.92077
1.89293
1.86321
1.83296
1.80335
1.7763
1.75247
1.73193
1.7141
1.69725
1.68061
1.66374
1.64752
1.62967
1.61123
1.59169
1.57192
1.55203
1.5357
1.52315
1.52154
1.5418
1.59277
1.6629
1.72916
1.77486
1.80607
1.82066
1.84622
1.88469
1.91684
1.93975
1.96465
1.98667
2.00792
2.02516
2.03857
2.0508
2.05185
2.04424
2.0294
2.00875
1.98505
1.97077
1.96126
1.95436
1.94242
1.92946
1.91673
1.90108
1.88066
1.86393
1.85422
1.84665
1.84075
1.8356
1.82987
1.81529
2.8993
2.88349
2.87262
2.86952
2.86955
2.86564
2.84836
2.81611
2.77552
2.73061
2.68301
2.63416
2.58703
2.54429
2.50533
2.47102
2.43574
2.39128
2.34644
2.30105
2.25547
2.21131
2.16809
2.12721
2.09144
2.05992
2.031
2.0038
1.97776
1.95209
1.92585
1.89872
1.86926
1.83729
1.80499
1.77685
1.75485
1.73695
1.72088
1.70462
1.68814
1.6701
1.65153
1.63124
1.61208
1.59245
1.57322
1.55265
1.53164
1.51692
1.50607
1.5001
1.50327
1.52334
1.58784
1.67915
1.78527
1.88828
1.96774
2.02604
2.07057
2.10857
2.13048
2.14726
2.14758
2.13899
2.12305
2.10276
2.08078
2.05694
2.03176
2.00311
1.97813
1.96571
1.95761
1.95265
1.94188
1.92948
1.91716
1.89951
1.87714
1.86197
1.85237
1.84456
1.83756
1.83144
1.82632
1.8133
)
;

boundaryField
{
    inlet
    {
        type            fixedValue;
        value           uniform 1;
    }
    outlet
    {
        type            inletOutlet;
        inletValue      uniform 1;
        value           nonuniform List<scalar> 
24
(
1.90054
1.90204
1.89803
1.87583
1.83753
1.79506
1.74996
1.70554
1.67044
1.64239
1.61878
1.59998
1.59253
1.62294
1.74095
1.82696
1.8189
1.81012
1.796
1.7875
1.79078
1.80174
1.81482
1.81309
)
;
    }
    bottom
    {
        type            zeroGradient;
    }
    top
    {
        type            zeroGradient;
    }
    obstacle
    {
        type            zeroGradient;
    }
    defaultFaces
    {
        type            empty;
    }
}


// ************************************************************************* //
