/*--------------------------------*- C++ -*----------------------------------*\
  =========                 |
  \\      /  F ield         | OpenFOAM: The Open Source CFD Toolbox
   \\    /   O peration     | Website:  https://openfoam.org
    \\  /    A nd           | Version:  7
     \\/     M anipulation  |
\*---------------------------------------------------------------------------*/
FoamFile
{
    version     2.0;
    format      ascii;
    class       volScalarField;
    location    "3.5";
    object      p;
}
// * * * * * * * * * * * * * * * * * * * * * * * * * * * * * * * * * * * * * //

dimensions      [1 -1 -2 0 0 0 0];

internalField   nonuniform List<scalar> 
4128
(
1
1
1
1
1
1
1
1
1
1
1
1
1
1
1
1
1
1
1
1
1
1
1
1
1
1
1
1
1
1
1
1
1
1
1
1.33199
7.59651
10.6058
10.7388
10.9482
11.1341
11.3113
11.4739
11.6201
11.7501
11.8552
11.9356
11.9948
1
1
1
1
1
1
1
1
1
1
1
1
1
1
1
1
1
1
1
1
1
1
1
1
1
1
1
1
1
1
1
1
1
1
1
1.29302
7.43279
10.5723
10.7266
10.9299
11.1118
11.2842
11.4416
11.581
11.7031
11.8003
11.8718
11.928
1
1
1
1
1
1
1
1
1
1
1
1
1
1
1
1
1
1
1
1
1
1
1
1
1
1
1
1
1
1
1
1
1
1
1
1.1894
7.13259
10.5439
10.6853
10.8869
11.0688
11.2396
11.3942
11.5286
11.6431
11.7314
11.789
11.8365
1
1
1
1
1
1
1
1
1
1
1
1
1
1
1
1
1
1
1
1
1
1
1
1
1
1
1
1
1
1
1
1
1
1
1
1.01686
6.63283
10.4937
10.6327
10.8204
10.9919
11.1505
11.2957
11.4237
11.5348
11.6192
11.6676
11.7046
1
1
1
1
1
1
1
1
1
1
1
1
1
1
1
1
1
1
1
1
1
1
1
1
1
1
1
1
1
1
1
1
1
1
1
1.0002
5.96001
10.3158
10.4984
10.6833
10.8585
11.0155
11.1549
11.2697
11.3592
11.425
11.4588
11.507
1
1
1
1
1
1
1
1
1
1
1
1
1
1
1
1
1
1
1
1
1
1
1
1
1
1
1
1
1
1
1
1
1
1
1
0.999999
5.11529
10.0851
10.3871
10.5567
10.7236
10.8627
10.9813
11.0792
11.1571
11.2167
11.2287
11.1886
1
1
1
1
1
1
1
1
1
1
1
1
1
1
1
1
1
1
1
1
1
1
1
1
1
1
1
1
1
1
1
1
1
1
1
1
4.14559
9.73115
10.2705
10.4276
10.5717
10.6804
10.7636
10.8228
10.8432
10.8069
10.7387
10.6949
1
1
1
1
1
1
1
1
1
1
1
1
1
1
1
1
1
1
1
1
1
1
1
1
1
1
1
1
1
1
1
1
1
1
1
1
3.09799
9.18254
10.1835
10.3212
10.4351
10.5077
10.541
10.5444
10.4978
10.4199
10.2913
10.2776
1
1
1
1
1
1
1
1
1
1
1
1
1
1
1
1
1
1
1
1
1
1
1
1
1
1
1
1
1
1
1
1
1
1
1
1
2.01269
8.32111
10.1409
10.1964
10.2866
10.3265
10.3113
10.2506
10.1051
9.83838
9.06056
7.17621
1
1
1
1
1
1
1
1
1
1
1
1
1
1
1
1
1
1
1
1
1
1
1
1
1
1
1
1
1
1
1
1
1
1
1
1
1.12822
7.18738
10.1924
10.0914
10.0868
10.0738
10.0166
9.89146
9.65209
9.1799
8.37682
6.32109
1
1
1
1
1
1
1
1
1
1
1
1
1
1
1
1
1
1
1
1
1
1
1
1
1
1
1
1
1
1
1
1
1
1
1
1
1.00159
5.57806
9.5895
9.72365
9.78645
9.76262
9.68743
9.51373
9.21669
8.65346
7.8258
5.88608
1
1
1
1
1
1
1
1
1
1
1
1
1
1
1
1
1
1
1
1
1
1
1
1
1
1
1
1
1
1
1
1
1
1
1
1
0.999976
3.7068
9.0111
9.59015
9.61784
9.55268
9.43251
9.20424
8.8462
8.27261
7.37532
5.8028
1
1
1
1
1
1
1
1
1
1
1
1
1
1
1
1
1
1
1
1
1
1
1
1
1
1
1
1
1
1
1
1
1
1
1
1
0.999994
1.97067
8.05317
9.52967
9.4417
9.3311
9.17154
8.9078
8.51354
7.95446
7.05713
5.83819
1
1
1
1
1
1
1
1
1
1
1
1
1
1
1
1
1
1
1
1
1
1
1
1
1
1
1
1
1
1
1
1
1
1
1
1
0.999999
1.0976
6.29281
9.20313
9.19065
9.09075
8.92143
8.64963
8.26073
7.69987
6.87716
5.92121
1
1
1
1
1
1
1
1
1
1
1
1
1
1
1
1
1
1
1
1
1
1
1
1
1
1
1
1
1
1
1
1
1
1
1
1
1
1.00052
3.8451
8.61094
9.04057
8.93636
8.74818
8.43934
8.05462
7.48633
6.77105
5.98725
1
1
1
1
1
1
1
1
1
1
1
1
1
1
1
1
1
1
1
1
1
1
1
1
1
1
1
1
1
1
1
1
1
1
1
1
1
0.999994
1.62625
7.64005
9.07446
8.79613
8.55658
8.24534
7.83392
7.32976
6.72096
6.05029
1
1
1
1
1
1
1
1
1
1
1
1
1
1
1
1
1
1
1
1
1
1
1
1
1
1
1
1
1
1
1
1
1
1
1
1
1
0.999999
1.0343
5.60914
8.64691
8.45874
8.29351
8.02426
7.65744
7.20799
6.67564
6.08983
1
1
1
1
1
1
1
1
1
1
1
1
1
1
1
1
1
1
1
1
1
1
1
1
1
1
1
1
1
1
1
1
1
1
1
1
1
1
0.999972
2.80468
7.90811
8.34955
8.20268
7.93675
7.57833
7.14209
6.64439
6.11774
1
1
1
1
1
1
1
1
1
1
1
1
1
1
1
1
1
1
1
1
1
1
1
1
1
1
1
1
1
1
1
1
1
1
1
1
1
1
0.999989
1.22832
6.08053
8.30192
8.11914
7.83366
7.47736
7.06705
6.6131
6.13819
1
1
1
1
1
1
1
1
1
1
1
1
1
1
1
1
1
1
1
1
1
1
1
1
1
1
1
1
1
1
1
1
1
1
1
1
1
1
0.999998
1.00402
3.23609
7.60705
7.99456
7.70675
7.3815
7.00217
6.5896
6.16374
1
1
1
1
1
1
1
1
1
1
1
1
1
1
1
1
1
1
1
1
1
1
1
1
1
1
1
1
1
1
1
1
1
1
1
1
1
1
1
1
1.34082
5.99049
7.96391
7.63796
7.32946
6.96367
6.57759
6.18847
1
1
1
1
1
1
1
1
1
1
1
1
1
1
1
1
1
1
1
1
1
1
1
1
1
1
1
1
1
1
1
1
1
1
1
1
1
1
1
1
1.00931
3.12646
7.23212
7.53522
7.23933
6.90444
6.55854
6.20713
1
1
1
1
1
1
1
1
1
1
1
1
1
1
1
1
1
1
1
1
1
1
1
1
1
1
1
1
1
1
1
1
1
1
1
1
1
1
1
1
1.00003
1.31261
5.46918
7.54785
7.21715
6.91155
6.58968
6.25585
1
1
1
1
1
1
1
1
1
1
1
1
1
1
1
1
1
1
1
1
1
1
1
1
1
1
1
1
1
1
1
1
1
1
1
1
1
1
1
1
1
1.00819
2.52284
6.52985
7.18215
6.89787
6.59463
6.27269
1
1
1
1
1
1
1
1
1
1
1
1
1
1
1
1
1
1
1
1
1
1
1
1
1
1
1
1
1
1
1
1
1
1
1
1
1
1
1
1
1
1.00004
1.16796
4.41942
7.1299
6.91654
6.63021
6.3133
1
1
1
1
1
1
1
1
1
1
1
1
1
1
1
1
1
1
1
1
1
1
1
1
1
1
1
1
1
1
1
1
1
1
1
1
1
1
1
1
1
1
1.00295
1.84717
5.78463
6.91394
6.6167
6.3132
1
1
1
1
1
1
1
1
1
1
1
1
1
1
1
1
1
1
1
1
1
1
1
1
1
1
1
1
1
1
1
1
1
1
1
1
1
1
1
1
1
1
1.00001
1.05484
3.10828
6.3063
6.62996
6.37017
1
1
1
1
1
1
1
1
1
1
1
1
1
1
1
1
1
1
1
1
1
1
1
1
1
1
1
1
1
1
1
1
1
1
1
1
1
1
1
1
1
1
1
1.00066
1.31457
4.42709
6.52799
6.43808
1
1
1
1
1
1
1
1
1
1
1
1
1
1
1
1
1
1
1
1
1
1
1
1
1
1
1
1
1
1
1
1
1
1
1
1
1
1
1
1
1
1
1
1
1.00962
1.91237
5.29673
6.39062
1
1
1
1
1
1
1
1
1
1
1
1
1
1
1
1
1
1
1
1
1
1
1
1
1
1
1
1
1
1
1
1
1
1
1
1
1
1
1
1
1
1
1
1
1.00007
1.0648
2.73814
5.72851
1
1
1
1
1
1
1
1
1
1
1
1
1
1
1
1
1
1
1
1
1
1
1
1
1
1
1
1
1
1
1
1
1
1
1
1
1
1
1
1
1
1
1
1
1
1.00095
1.22291
3.64332
1
1
1
1
1
1
1
1
1
1
1
1
1
1
1
1
1
1
1
1
1
1
1
1
1
1
1
1
1
1
1
1
1
1
1
1
1
1
1
1
1
1
1
1
1
1
1.00616
1.53845
1
1
1
1
1
1
1
1
1
1
1
1
1
1
1
1
1
1
1
1
1
1
1
1
1
1
1
1
1
1
1
1
1
1
1
1
1
1
1
1
1
1
1
1
1
1
1.00004
1.02658
1
1
1
1
1
1
1
1
1
1
1
1
1
1
1
1
1
1
1
1
1
1
1
1
1
1
1
1
1
1
1
1
1
1
1
1
1
1
1
1
1
1
1
1
1
1
1
1.00031
1
1
1
1
1
1
1
1
1
1
1
1
1
1
1
1
1
1
1
1
1
1
1
1
1
1
1
1
1
1
1
1
1
1
1
1
1
1
1
1
1
1
1
1
1
1
1
1
1
1
1
1
1
1
1
1
1
1
1
1
1
1
1
1
1
1
1
1
1
1
1
1
1
1
1
1
1
1
1
1
1
1
1
1
1
1
1
1
1
1
1
1
1
1
1
1
1
1
1
1
1
1
1
1
1
1
1
1
1
1
1
1
1
1
1
1
1
1
1
1
1
1
1
1
1
1
1
1
1
1
1
1
1
1
1
1
1
1
1
1
1
1
1
1
1
1
1
1
1
1
1
1
1
1
1
1
1
1
1
1
1
1
1
1
1
1
1
1
1
1
1
1
1
1
1
1
1
1
1
1
1
1
1
1
1
1
1
1
1
1
1
1
1
1
1
1
1
1
1
1
1
1
1
1
1
1
1
1
1
1
1
1
1
1
1
1
1
1
1
1
1
1
1
1
1
1
1
1
1
1
1
1
1
1
1
1
1
1
1
1
1
1
1
1
1
1
1
1
1
1
1
1
1
1
1
1
1
1
1
1
1
1
1
1
1
1
1
1
1
1
1
1
1
1
1
1
1
1
1
1
1
1
1
1
1
1
1
1
1
1
1
1
1
1
1
1
1
1
1
1
1
1
1
1
1
1
1
1
1
1
1
1
1
1
1
1
1
1
1
1
1
1
1
1
1
1
1
1
1
1
1
1
1
1
1
1
1
1
1
1
1
1
1
1
1
1
1
1
1
1
1
1
1
1
1
1
1
1
1
1
1
1
1
1
1
1
1
1
1
1
1
1
1
1
1
1
1
1
1
1
1
1
1
1
1
1
1
1
1
1
1
1
1
1
1
1
1
1
1
1
1
1
1
1
1
1
1
1
1
1
1
1
1
1
1
1
1
1
1
1
1
1
1
1
1
1
1
1
1
1
1
1
1.58547
0.435853
0.165438
0.16104
0.208099
0.266134
0.341104
0.441593
0.576646
0.739261
0.930986
1.10331
1.16596
1.16478
1.14419
1.17572
1.2164
1.26512
1.3197
1.33112
1.3209
1.2828
1.2744
1.28686
1.31894
1.35221
1.35754
1.35389
1.33941
1.79621
4.58824
5.52734
5.74197
5.88673
6.00289
6.1135
6.18989
6.2231
6.24656
6.28765
6.3371
6.36839
6.37434
6.37108
6.37493
6.38843
6.40016
6.40458
2.77623
1.42163
0.861755
0.661774
0.5897
0.559494
0.518004
0.478549
0.488276
0.538939
0.627907
0.733215
0.859044
0.954048
0.994114
1.0435
1.11421
1.1824
1.2312
1.26651
1.28079
1.28136
1.2874
1.29523
1.31052
1.32545
1.33062
1.3347
1.33787
1.64487
4.37588
5.53672
5.74702
5.89483
6.01228
6.12045
6.19528
6.22963
6.25509
6.2961
6.34616
6.37777
6.38303
6.37766
6.37902
6.39064
6.40259
6.40719
3.62976
2.41732
1.66762
1.18095
0.961254
0.859673
0.774685
0.679549
0.570465
0.548877
0.580146
0.638581
0.70283
0.80486
0.892438
0.937166
0.996138
1.08366
1.14793
1.20129
1.25295
1.28488
1.31727
1.34135
1.34588
1.34062
1.32486
1.31651
1.31814
1.40466
3.84547
5.56417
5.77592
5.90155
6.01228
6.12234
6.19782
6.2271
6.23966
6.27398
6.3281
6.36933
6.38127
6.37483
6.37125
6.37933
6.39273
6.39869
4.22774
3.15157
2.44618
1.89007
1.43034
1.19086
1.10902
1.03609
0.915776
0.777043
0.698572
0.689119
0.696317
0.719144
0.761969
0.800364
0.847612
0.927544
1.00687
1.06374
1.1288
1.18222
1.22891
1.29641
1.33129
1.33513
1.32423
1.32277
1.32721
1.3495
3.06158
5.50448
5.84903
5.92048
6.00334
6.10439
6.18833
6.23069
6.2482
6.27473
6.32128
6.36522
6.38238
6.37599
6.36772
6.37176
6.3873
6.39795
4.67205
3.70971
2.99181
2.48857
2.05486
1.64348
1.37576
1.29265
1.20859
1.08821
0.931853
0.810111
0.777563
0.752705
0.75767
0.785987
0.79975
0.810033
0.83249
0.8701
0.93988
1.03962
1.12401
1.20816
1.26653
1.27707
1.27408
1.28782
1.31793
1.33873
2.14237
5.25188
6.01329
5.96739
6.01105
6.09269
6.16669
6.20544
6.21954
6.24387
6.28538
6.325
6.34653
6.35007
6.348
6.35044
6.35941
6.36552
5.00791
4.19053
3.47039
2.90206
2.50949
2.15328
1.81256
1.53142
1.41625
1.33822
1.23385
1.09723
0.981375
0.899702
0.863411
0.862105
0.854429
0.826914
0.808432
0.807534
0.820923
0.864545
0.934452
1.01097
1.10207
1.16087
1.20616
1.23707
1.28358
1.30934
1.48994
4.69285
6.13298
5.99039
5.98666
6.02998
6.0939
6.14704
6.17403
6.20418
6.2553
6.30647
6.3291
6.32655
6.32168
6.32623
6.34392
6.33224
5.21524
4.51641
3.876
3.30414
2.84004
2.50536
2.22244
1.93629
1.68276
1.50222
1.41823
1.33974
1.23924
1.12097
1.00403
0.957649
0.92056
0.877562
0.844244
0.839411
0.839387
0.836485
0.84147
0.857825
0.892735
0.960778
1.04328
1.12284
1.21487
1.25849
1.29081
3.97919
6.05
5.94679
5.96799
6.00387
6.03446
6.04099
6.07021
6.12447
6.18631
6.22915
6.25423
6.25244
6.23633
6.22668
6.19209
6.19473
5.38428
4.75566
4.16679
3.65689
3.21062
2.8069
2.48827
2.24917
2.02183
1.80106
1.60461
1.49927
1.4236
1.33816
1.22997
1.13861
1.06412
1.00678
0.959435
0.935418
0.909147
0.877799
0.858461
0.847
0.842345
0.849679
0.875508
0.939705
1.021
1.11069
1.14601
3.16863
5.82345
5.80493
5.8358
5.86478
5.89897
5.95059
5.99566
6.05044
6.09588
6.14769
6.16777
6.16105
6.13735
6.1163
6.05065
6.14469
5.50123
4.93417
4.40405
3.91937
3.48529
3.10291
2.77328
2.48757
2.26509
2.05697
1.8644
1.71886
1.58449
1.47531
1.39449
1.31613
1.23857
1.15178
1.07716
1.02817
0.982371
0.942362
0.905353
0.883775
0.861726
0.854218
0.859633
0.869146
0.883432
0.92127
0.952
2.32463
5.43691
5.69896
5.74415
5.78409
5.8112
5.85068
5.90383
5.94816
5.99027
6.0096
6.0194
6.01824
5.98814
5.87099
5.50685
4.51108
5.59084
5.0805
4.58556
4.13369
3.73279
3.3567
3.01938
2.73821
2.49531
2.27548
2.08662
1.93273
1.78498
1.64637
1.53812
1.45575
1.38075
1.30331
1.2255
1.16385
1.10455
1.0536
1.01215
0.978475
0.943783
0.905971
0.89383
0.885935
0.866745
0.863059
0.866385
1.45313
4.9056
5.63993
5.62875
5.6728
5.70448
5.76975
5.83116
5.84508
5.85807
5.88531
5.89028
5.85508
5.76791
5.58124
5.07575
4.13226
5.66362
5.19462
4.73404
4.32433
3.93751
3.56259
3.24513
2.97731
2.71947
2.47756
2.29209
2.1187
1.96874
1.83075
1.71056
1.59974
1.50444
1.42722
1.36329
1.29432
1.23209
1.16799
1.11687
1.06957
1.02555
0.983586
0.95157
0.924152
0.890435
0.869304
0.870202
0.922564
3.79932
5.45563
5.48794
5.56224
5.61671
5.69114
5.74895
5.75965
5.75471
5.75164
5.73899
5.67654
5.55522
5.27601
4.7952
3.9389
5.72891
5.29094
4.87688
4.49036
4.11468
3.76192
3.4613
3.17672
2.91399
2.68729
2.49575
2.30736
2.12975
1.99377
1.8808
1.76391
1.64855
1.55276
1.48705
1.42171
1.3556
1.28706
1.22892
1.17511
1.12777
1.08457
1.04772
1.01175
0.971532
0.934053
0.915127
0.902799
2.44859
5.15625
5.45681
5.5229
5.57176
5.62835
5.67228
5.67933
5.65814
5.63877
5.60318
5.51031
5.32905
5.04988
4.6056
3.91511
5.7878
5.37897
5.00144
4.63654
4.26653
3.93925
3.64756
3.36794
3.09291
2.87256
2.67111
2.48811
2.30931
2.15477
2.02397
1.9045
1.80148
1.70419
1.61694
1.53312
1.45952
1.39452
1.3386
1.28118
1.22697
1.17279
1.13164
1.09005
1.04825
1.00996
0.980043
0.934032
1.32313
4.43344
5.39704
5.46037
5.51601
5.56897
5.59481
5.60096
5.58616
5.54666
5.48356
5.36251
5.1736
4.89122
4.48195
3.93206
5.83772
5.46972
5.11398
4.75517
4.40806
4.1068
3.81302
3.52055
3.26328
3.05327
2.84198
2.64084
2.4596
2.32297
2.17975
2.04853
1.92436
1.84081
1.74867
1.65871
1.56683
1.49843
1.44081
1.38136
1.33019
1.27597
1.22791
1.17887
1.1346
1.09562
1.06917
1.01526
1.02606
3.01958
5.18865
5.42122
5.48007
5.51105
5.53328
5.522
5.48817
5.45577
5.3822
5.24123
5.05241
4.78766
4.42219
3.9698
5.90152
5.55482
5.21258
4.86036
4.53805
4.24573
3.95749
3.66282
3.42689
3.2067
2.99928
2.78668
2.62119
2.46928
2.32244
2.18573
2.06752
1.97038
1.86327
1.76768
1.6762
1.6127
1.54759
1.48274
1.41613
1.36257
1.31413
1.26727
1.2228
1.17906
1.14666
1.10166
1.04472
1.58095
4.61996
5.38149
5.46401
5.4932
5.48666
5.46065
5.41522
5.34548
5.27253
5.14068
4.96232
4.71995
4.39452
4.01295
5.94207
5.61365
5.27931
4.94894
4.65289
4.36652
4.07524
3.80249
3.57783
3.35594
3.13852
2.93004
2.77489
2.61293
2.46749
2.31459
2.2023
2.0911
1.98304
1.88031
1.78725
1.72003
1.64717
1.5826
1.51499
1.45532
1.39777
1.3482
1.30326
1.2631
1.22733
1.18746
1.11902
1.15011
3.22907
5.19882
5.40526
5.42784
5.4329
5.40607
5.35067
5.27898
5.18974
5.06557
4.90649
4.69143
4.39638
4.05716
5.99384
5.67879
5.35415
5.0442
4.76052
4.48061
4.19412
3.94978
3.71935
3.49773
3.26749
3.08531
2.91899
2.7534
2.59435
2.44739
2.33472
2.2088
2.09951
1.98547
1.90773
1.83039
1.75105
1.6744
1.60221
1.5485
1.48659
1.4367
1.38453
1.34216
1.29745
1.25542
1.20703
1.16404
1.69917
4.62687
5.37393
5.37741
5.39476
5.37378
5.33222
5.23861
5.12447
5.00731
4.8541
4.66281
4.40675
4.09712
6.01398
5.71295
5.41337
5.12977
4.85481
4.57343
4.3053
4.0806
3.85053
3.6185
3.39465
3.22771
3.04775
2.88344
2.7087
2.58098
2.45283
2.32622
2.20845
2.10012
2.02278
1.93205
1.85203
1.76543
1.6983
1.63661
1.57389
1.51855
1.46511
1.42269
1.37436
1.32825
1.285
1.22678
1.26038
3.20615
5.1683
5.33584
5.34094
5.31515
5.26071
5.17586
5.07994
4.94931
4.81013
4.62292
4.37489
4.10304
6.07492
5.78615
5.5019
5.22292
4.95653
4.6812
4.42608
4.19769
3.97686
3.72804
3.53155
3.35787
3.17927
2.99765
2.83337
2.71247
2.56965
2.44693
2.31403
2.22342
2.13378
2.03584
1.95015
1.85878
1.79615
1.7263
1.66374
1.60372
1.54794
1.49705
1.44578
1.39868
1.35955
1.31653
1.26985
1.75289
4.44851
5.2901
5.29297
5.28947
5.23946
5.16403
5.06015
4.94034
4.78737
4.58802
4.34587
4.08664
6.14814
5.85995
5.58432
5.30692
5.03733
4.78014
4.52825
4.29931
4.07839
3.84002
3.65274
3.47502
3.29753
3.09496
2.96061
2.83019
2.69047
2.55093
2.42276
2.34071
2.23386
2.13773
2.03418
1.95768
1.89241
1.81506
1.74972
1.67885
1.63046
1.57395
1.52122
1.46698
1.42676
1.39462
1.32426
1.35095
2.9488
5.07387
5.26876
5.25012
5.20709
5.1308
5.02397
4.90106
4.74326
4.55311
4.32543
4.08885
6.19966
5.91457
5.63991
5.37271
5.12069
4.86968
4.61785
4.39669
4.18396
3.9559
3.75866
3.59207
3.40844
3.21096
3.08013
2.94223
2.80699
2.64784
2.54432
2.45036
2.33793
2.23298
2.12292
2.06137
1.98464
1.90805
1.83196
1.76443
1.71391
1.65028
1.59675
1.53949
1.50176
1.46685
1.40716
1.35681
1.70843
4.17519
5.20084
5.23872
5.19354
5.10804
4.99822
4.87263
4.72106
4.53939
4.33477
4.11793
6.23378
6.00514
5.71272
5.45249
5.2082
4.96697
4.72352
4.50104
4.28556
4.06889
3.87222
3.70672
3.5127
3.32435
3.18998
3.06226
2.91454
2.74842
2.65517
2.55099
2.44344
2.31812
2.22396
2.16109
2.07453
1.99643
1.90663
1.85063
1.79434
1.72917
1.67068
1.61099
1.5731
1.53136
1.48203
1.40742
1.42542
2.59128
4.84955
5.24996
5.17359
5.08009
4.9746
4.85837
4.71534
4.54207
4.34667
4.14417
5.87069
6.06494
5.81846
5.53929
5.29404
5.04911
4.81628
4.6023
4.3862
4.16768
3.97718
3.8088
3.62134
3.43645
3.29259
3.16707
3.01098
2.85699
2.75821
2.65377
2.54076
2.40089
2.32528
2.25505
2.16936
2.07846
1.98639
1.93808
1.87374
1.80958
1.73956
1.68789
1.64972
1.59861
1.54967
1.48543
1.44426
1.6416
3.78801
5.18319
5.14193
5.04103
4.94374
4.83792
4.70455
4.54413
4.36325
4.17797
4.33922
5.88498
5.89687
5.6469
5.37614
5.12993
4.9133
4.69652
4.47888
4.26621
4.09235
3.91221
3.72205
3.54121
3.4071
3.27196
3.10994
2.95993
2.8583
2.75551
2.63345
2.49735
2.42334
2.34576
2.25991
2.15345
2.07325
2.02377
1.95579
1.88851
1.80763
1.76401
1.72153
1.66745
1.61021
1.55824
1.49815
1.50401
2.29232
4.57995
5.10429
5.02514
4.95649
4.85288
4.71817
4.56071
4.38973
4.2188
1.9749
4.77753
5.81296
5.7373
5.47889
5.22042
5.00678
4.79528
4.57237
4.37597
4.19627
4.01272
3.82465
3.65295
3.51587
3.36977
3.20761
3.06411
2.96142
2.85355
2.72156
2.5922
2.51909
2.43858
2.34768
2.23121
2.16041
2.10656
2.03771
1.9624
1.8804
1.84124
1.79299
1.73742
1.67005
1.62151
1.58255
1.52903
1.61859
3.28877
4.91936
5.05086
4.96777
4.85792
4.72294
4.57408
4.41628
4.25786
1.07795
2.44563
5.04957
5.71505
5.58886
5.33104
5.10505
4.88487
4.66599
4.4866
4.29859
4.11375
3.9166
3.76622
3.62026
3.46749
3.30488
3.16743
3.06227
2.94707
2.81295
2.68978
2.61233
2.52847
2.4308
2.31416
2.24981
2.19065
2.11985
2.03245
1.95472
1.91677
1.86411
1.80672
1.73139
1.68844
1.66125
1.58573
1.57803
2.03739
4.12845
5.0336
4.95425
4.83826
4.71551
4.58605
4.44711
4.29892
1.00139
1.16767
2.90264
5.19166
5.61301
5.45519
5.2173
4.9636
4.76354
4.58557
4.40093
4.2041
4.02131
3.87815
3.71645
3.56306
3.39628
3.27794
3.1647
3.04019
2.90284
2.78588
2.70673
2.61714
2.51315
2.40012
2.33753
2.2737
2.19959
2.10409
2.03245
1.99151
1.93519
1.87344
1.79672
1.75605
1.73091
1.6716
1.59628
1.6351
2.72397
4.60449
4.94354
4.8519
4.74677
4.63329
4.50071
4.34999
1.00001
1.00429
1.29694
3.30403
5.23659
5.49479
5.3467
5.06595
4.85732
4.67923
4.49637
4.28702
4.13317
3.97869
3.81852
3.65255
3.49545
3.38784
3.2582
3.13293
2.99365
2.8881
2.80257
2.70371
2.59385
2.48636
2.42465
2.35643
2.27805
2.17746
2.11196
2.06687
2.00796
1.94023
1.86362
1.82825
1.7946
1.74574
1.65892
1.63711
1.84059
3.51307
4.78681
4.88773
4.78836
4.67207
4.53457
4.3793
1
1.00003
1.01071
1.4546
3.64184
5.19913
5.38127
5.20006
4.96356
4.77393
4.57435
4.38122
4.24067
4.08073
3.92303
3.7354
3.60768
3.48826
3.35149
3.22416
3.08317
2.99469
2.89519
2.78922
2.67634
2.57502
2.51177
2.43646
2.35317
2.25367
2.19256
2.14277
2.0819
2.00708
1.93287
1.89963
1.85842
1.80951
1.7386
1.67444
1.68621
2.24981
4.09949
4.85535
4.81581
4.6855
4.54541
4.39617
1
1
1.0001
1.02186
1.63584
3.85624
5.14739
5.27583
5.10998
4.90062
4.65735
4.4835
4.33939
4.18221
4.01082
3.83172
3.71885
3.58197
3.45086
3.30214
3.18161
3.096
2.9817
2.87749
2.756
2.66915
2.60082
2.51445
2.42744
2.33032
2.27381
2.21912
2.1545
2.07509
2.00552
1.97025
1.92359
1.87058
1.80098
1.74585
1.7091
1.76677
2.80439
4.43562
4.81643
4.71867
4.58053
4.44077
1
1
1
1.00025
1.03952
1.80495
3.99636
5.10518
5.18205
5.03038
4.76369
4.58574
4.43061
4.27491
4.0869
3.93913
3.82145
3.68051
3.5455
3.38191
3.28668
3.18634
3.07063
2.96285
2.83832
2.76812
2.68502
2.59377
2.50224
2.40974
2.35816
2.29456
2.22524
2.1429
2.07926
2.04116
1.9898
1.93088
1.85846
1.81919
1.76934
1.74866
1.95882
3.40818
4.57292
4.74139
4.64251
4.50603
1
1
1
1
1.00058
1.06083
1.94604
4.09589
5.03878
5.09102
4.90539
4.69871
4.5282
4.3577
4.1709
4.05076
3.91567
3.77839
3.62637
3.47852
3.39071
3.27329
3.16406
3.03702
2.93092
2.86241
2.76483
2.67695
2.57388
2.4956
2.44226
2.36753
2.29619
2.21096
2.155
2.11159
2.05481
1.99265
1.91778
1.88834
1.84941
1.77572
1.78319
2.26891
3.87364
4.66141
4.69006
4.5659
1
1
1
1
1
1.00105
1.0842
2.07535
4.16451
4.9754
4.98642
4.82232
4.64473
4.43356
4.27112
4.15172
4.00608
3.87212
3.70176
3.58764
3.48775
3.36338
3.25186
3.11074
3.0306
2.94914
2.8478
2.75755
2.645
2.58564
2.52169
2.44136
2.36739
2.28002
2.23321
2.1817
2.11963
2.05492
1.98412
1.95438
1.92077
1.84738
1.78903
1.84342
2.66889
4.18486
4.68854
4.61864
1
1
1
1
1
1
1.00173
1.1105
2.16919
4.19802
4.85099
4.89154
4.77323
4.53767
4.37342
4.23832
4.10278
3.95551
3.79371
3.69936
3.57573
3.45528
3.32743
3.19856
3.12972
3.03094
2.93475
2.8291
2.72605
2.67427
2.59627
2.51864
2.43366
2.35511
2.31271
2.24973
2.18683
2.1165
2.05525
2.0233
1.98106
1.92266
1.83686
1.83633
1.98581
3.08997
4.3452
4.62431
1
1
1
1
1
1
1.00001
1.00267
1.12858
2.26265
4.08973
4.78859
4.84345
4.68778
4.49206
4.33717
4.20147
4.02598
3.90506
3.79931
3.6608
3.54532
3.39605
3.29988
3.22269
3.1125
3.01919
2.89692
2.81765
2.75865
2.6716
2.5949
2.49616
2.43569
2.38832
2.31821
2.25643
2.17775
2.13039
2.09223
2.03987
1.98615
1.34556
0.544064
0.363995
0.404044
0.498773
0.581305
0.667888
0.76413
0.821354
0.897031
1.00806
1.07951
1.09777
1.08557
1.07571
2.14489
1.34696
0.906063
0.808132
0.756966
0.700585
0.679778
0.694624
0.733678
0.797455
0.884675
0.959335
1.02647
1.05815
1.06836
2.61262
1.88356
1.39777
1.07782
0.912789
0.808482
0.749001
0.714948
0.736584
0.782984
0.83521
0.882152
0.938661
1.01967
1.09329
2.96776
2.29201
1.83052
1.47233
1.19949
1.02519
0.964476
0.91525
0.858457
0.802503
0.784107
0.79677
0.838632
0.919199
1.02103
3.2411
2.65058
2.16485
1.83629
1.57071
1.30068
1.1289
1.0728
1.01174
0.924905
0.837538
0.812833
0.823614
0.856376
0.9273
3.41678
2.94191
2.4844
2.10917
1.87006
1.6383
1.39383
1.24043
1.17715
1.11056
1.03112
0.965262
0.902109
0.891436
0.903773
3.56057
3.15791
2.76077
2.38153
2.09527
1.8893
1.68623
1.5075
1.35467
1.24903
1.18431
1.12838
1.05864
0.979381
0.931315
3.67413
3.2954
2.97039
2.62402
2.33049
2.10277
1.90616
1.74728
1.60746
1.44463
1.31115
1.26494
1.21245
1.13213
1.05548
3.75357
3.40832
3.10148
2.81783
2.54078
2.32371
2.10864
1.92584
1.81054
1.66891
1.50933
1.39511
1.31293
1.24532
1.18814
3.79849
3.47536
3.21563
2.98056
2.71338
2.50915
2.32169
2.11344
1.9476
1.81917
1.68498
1.57087
1.47417
1.3535
1.28453
3.81911
3.56173
3.34125
3.11833
2.87755
2.66082
2.4663
2.27048
2.11011
1.96234
1.79559
1.69509
1.61829
1.51228
1.42021
3.85566
3.6322
3.42949
3.22396
3.00409
2.79264
2.59813
2.39745
2.23038
2.09152
1.94782
1.81865
1.7143
1.62372
1.54426
3.90178
3.69196
3.49252
3.30234
3.10271
2.89756
2.70341
2.52003
2.34646
2.19139
2.06352
1.94751
1.83853
1.72703
1.62942
3.94447
3.74851
3.55371
3.36947
3.1811
2.9842
2.79401
2.62343
2.45691
2.29948
2.16761
2.05624
1.9493
1.84411
1.74829
3.99224
3.80793
3.62145
3.43812
3.25177
3.05818
2.87509
2.70743
2.54889
2.39791
2.27865
2.16563
2.05052
1.94249
1.85756
4.04394
3.86433
3.68414
3.49957
3.31036
3.12263
2.95118
2.7885
2.63224
2.49229
2.38328
2.2693
2.15228
2.0383
1.94724
4.09177
3.91693
3.73954
3.55713
3.36849
3.18898
3.02844
2.87605
2.72206
2.59233
2.48182
2.36533
2.24056
2.12694
2.03018
4.13607
3.96426
3.78981
3.61037
3.42575
3.26105
3.11163
2.96448
2.81513
2.69236
2.57681
2.45663
2.3212
2.20717
2.10734
4.184
4.01334
3.84236
3.66825
3.49369
3.34331
3.20182
3.05649
2.91206
2.78953
2.66801
2.5408
2.39869
2.28497
2.18544
4.21554
4.05385
3.89299
3.72784
3.56898
3.4299
3.29084
3.14324
3.00204
2.87645
2.74829
2.61535
2.47151
2.36232
2.2653
4.24686
4.10016
3.95219
3.79815
3.65413
3.51737
3.37734
3.22454
3.08376
2.95335
2.82361
2.68637
2.54657
2.44364
2.35308
4.30434
4.16719
4.02378
3.87645
3.73457
3.59498
3.45093
3.29853
3.15595
3.0236
2.8939
2.75904
2.62797
2.53116
2.44455
4.37224
4.23606
4.09249
3.94563
3.79955
3.65832
3.51305
3.36145
3.22157
3.09566
2.97013
2.83753
2.71482
2.62618
2.5388
4.42702
4.28946
4.14857
4.00371
3.85785
3.71554
3.57287
3.42736
3.29177
3.17085
3.05012
2.92377
2.81017
2.72191
2.62958
4.47308
4.3301
4.19566
4.05413
3.91104
3.77767
3.6408
3.4963
3.36665
3.25338
3.1352
3.00814
2.90089
2.81249
2.71322
4.53578
4.38421
4.24536
4.10906
3.97306
3.84543
3.71251
3.5735
3.45124
3.33859
3.21824
3.08966
2.98739
2.89331
2.78925
)
;

boundaryField
{
    inlet
    {
        type            fixedValue;
        value           uniform 1;
    }
    outlet
    {
        type            zeroGradient;
    }
    bottom
    {
        type            zeroGradient;
    }
    top
    {
        type            zeroGradient;
    }
    obstacle
    {
        type            zeroGradient;
    }
    defaultFaces
    {
        type            empty;
    }
    procBoundary0to1
    {
        type            processor;
        value           nonuniform List<scalar> 
26
(
1.0953
1.08648
1.13557
1.08743
0.989924
0.920445
0.920032
0.992874
1.13495
1.25396
1.35037
1.47755
1.57531
1.66548
1.76428
1.84982
1.92772
2.00593
2.08737
2.1698
2.25961
2.34972
2.44004
2.52403
2.60225
2.67122
)
;
    }
    procBoundary0to2
    {
        type            processor;
        value           nonuniform List<scalar> 
112
(
1
1
1
1
1
1
1
1
1
1
1
1
1
1
1
1
1
1
1
1
1
1
1
1
1
1
1
1
1
1
1
1
1
1
1
1
1
1
1
1
1
1
1
1
1
1
1
1
1.91409
1.86322
1.87141
2.17368
3.47854
4.40708
1
1
1
1
1
1
1
1.00002
1.00331
1.14887
2.25196
4.02641
4.76688
4.77562
4.62888
4.46625
4.28502
4.10171
4.00882
3.88249
3.75252
3.62255
3.47455
3.40469
3.30673
3.19845
3.09766
2.97281
2.91237
2.83772
2.74933
2.66604
2.56488
2.51801
2.46034
2.39063
2.32291
2.24329
2.207
2.15895
2.10106
1.91409
2.04576
4.57117
4.46737
4.3217
4.17394
4.04409
3.92006
3.78803
3.64985
3.53572
3.42273
3.2992
3.16921
3.06798
2.96695
2.85854
)
;
    }
}


// ************************************************************************* //
