/*--------------------------------*- C++ -*----------------------------------*\
  =========                 |
  \\      /  F ield         | OpenFOAM: The Open Source CFD Toolbox
   \\    /   O peration     | Website:  https://openfoam.org
    \\  /    A nd           | Version:  7
     \\/     M anipulation  |
\*---------------------------------------------------------------------------*/
FoamFile
{
    version     2.0;
    format      ascii;
    class       volVectorField;
    location    "2";
    object      U;
}
// * * * * * * * * * * * * * * * * * * * * * * * * * * * * * * * * * * * * * //

dimensions      [0 1 -1 0 0 0 0];

internalField   nonuniform List<vector> 
16512
(
(3 9.61461e-17 0)
(3 -2.0486e-16 0)
(3 -8.81473e-16 0)
(3 -1.74908e-15 0)
(3 -2.22392e-15 0)
(3 -9.35016e-16 0)
(3 2.55645e-16 0)
(3 -7.76229e-16 0)
(3 -1.36501e-15 0)
(3 -1.24737e-15 0)
(3 -1.28401e-15 0)
(3 -1.07645e-15 0)
(3 -1.25816e-15 0)
(3 -2.12397e-15 0)
(3 -1.86306e-15 0)
(3 -1.52318e-15 0)
(3 -1.47184e-15 0)
(3 -1.26542e-15 0)
(3 -1.02797e-15 0)
(3 -1.02534e-15 0)
(3 -2.0919e-15 0)
(3 -2.03574e-15 0)
(3 -2.31224e-15 0)
(3 -2.36197e-15 0)
(3 -1.3884e-15 0)
(3 4.64564e-16 0)
(3 9.53664e-16 0)
(3 7.60724e-16 0)
(3 2.88467e-16 0)
(3 4.47623e-16 0)
(3 3.85501e-16 0)
(3 3.0026e-16 0)
(3 -6.1428e-16 0)
(3 -4.66912e-16 0)
(3 1.89766e-16 0)
(3 9.47623e-16 0)
(3 1.22805e-15 0)
(3 9.67431e-16 0)
(3 1.05004e-15 0)
(3 8.7757e-16 0)
(3 5.58582e-16 0)
(3 1.36255e-16 0)
(3 -3.62482e-16 0)
(3 -7.38123e-17 0)
(3 -7.88512e-16 0)
(3 -7.5722e-16 0)
(3 -7.39761e-16 0)
(3 -2.24628e-16 0)
(3 -1.2386e-16 0)
(3 2.78826e-16 0)
(3 1.05426e-15 0)
(3 1.63262e-15 0)
(3 1.99253e-15 0)
(3 2.13643e-15 0)
(3 2.18574e-15 0)
(3 1.7202e-15 0)
(3 1.67174e-15 0)
(3 3.19233e-16 0)
(3 3.02773e-16 0)
(3 9.30836e-16 0)
(3 1.878e-15 0)
(3 2.25895e-15 0)
(3 2.50143e-15 0)
(3 2.00696e-15 0)
(3 1.07317e-15 0)
(3 1.86454e-16 0)
(3 2.34251e-16 0)
(3 -3.07419e-16 0)
(3 -6.52039e-17 0)
(3 -1.00526e-16 0)
(3 -1.70132e-16 0)
(3 -1.47679e-16 0)
(3 4.42828e-16 0)
(3 7.20985e-16 0)
(3 1.2615e-15 0)
(3 1.50304e-15 0)
(3 1.20064e-15 0)
(3 4.02427e-16 0)
(3 3.75457e-17 0)
(3 -3.56179e-16 0)
(3 -5.98345e-16 0)
(3 -1.11097e-16 0)
(3 1.19917e-15 0)
(3 2.35e-15 0)
(3 2.99935e-15 0)
(3 2.24145e-15 0)
(3 3.92189e-16 0)
(3 -3.65403e-16 0)
(3 1.84888e-16 0)
(3 4.02469e-16 0)
(3 5.58082e-16 0)
(3 6.67204e-16 0)
(3 4.98699e-16 0)
(3 1.64712e-15 0)
(3 1.3537e-15 0)
(3 1.06575e-15 0)
(3 1.31638e-15 0)
(3 1.55862e-15 0)
(3 1.82987e-15 0)
(3 1.76505e-15 0)
(3 8.41938e-16 0)
(3 1.94937e-15 0)
(3 2.87457e-15 0)
(3 3.3259e-15 0)
(3 2.98487e-15 0)
(3 1.88044e-15 0)
(3 5.9049e-16 0)
(3 6.70218e-16 0)
(3 -6.02279e-17 0)
(3 -2.32247e-16 0)
(3 5.07063e-16 0)
(3 9.56772e-16 0)
(3 1.14562e-15 0)
(3 9.25518e-16 0)
(3 3.26672e-16 0)
(3 2.03714e-16 0)
(3 3.99789e-16 0)
(3 4.23944e-16 0)
(3 1.24074e-15 0)
(3 6.72216e-16 0)
(3 8.52588e-17 0)
(3 -2.5843e-16 0)
(3 -9.48323e-16 0)
(3 -1.47578e-15 0)
(3 -1.80313e-15 0)
(3 -1.55676e-15 0)
(3 -1.04784e-15 0)
(3 2.81329e-16 0)
(3 -4.26314e-16 0)
(3 -6.46426e-16 0)
(3 -5.94142e-16 0)
(3 -4.14028e-16 0)
(3 -1.28572e-15 0)
(3 -1.3127e-15 0)
(3 4.47678e-17 0)
(3 7.89927e-16 0)
(3 1.70861e-15 0)
(3 3.3394e-15 0)
(3 2.70183e-15 0)
(3 1.90274e-15 0)
(3 1.04774e-15 0)
(3 7.2627e-16 0)
(3 7.57595e-16 0)
(3 5.0983e-16 0)
(3 7.4267e-17 0)
(3 1.56566e-16 0)
(3 2.15249e-16 0)
(3 4.83061e-17 0)
(3 -4.23725e-16 0)
(3 -7.87092e-16 0)
(3 -1.67514e-15 0)
(3 -1.79614e-15 0)
(3 -1.68364e-15 0)
(3 -1.48165e-15 0)
(3 -9.59542e-16 0)
(3 -1.05877e-15 0)
(3 -8.82857e-16 0)
(3 -3.30734e-16 0)
(3 2.90326e-16 0)
(3 5.49771e-17 0)
(3 -7.02466e-16 0)
(3 -3.91236e-16 0)
(3 -1.10332e-16 0)
(3 -4.8249e-16 0)
(3 -1.25269e-16 0)
(3 -2.46949e-16 0)
(3 -3.97895e-16 0)
(3 -5.27397e-16 0)
(3 -7.08846e-16 0)
(3 4.72783e-17 0)
(3 2.63269e-16 0)
(3 1.17298e-16 0)
(3 6.62538e-16 0)
(3 8.84713e-16 0)
(3 7.00954e-16 0)
(3 9.34746e-16 0)
(3 1.25295e-15 0)
(3 1.34081e-15 0)
(3 1.42706e-15 0)
(3 9.8026e-16 0)
(3 6.4956e-16 0)
(3 3.35599e-16 0)
(3 -2.37794e-16 0)
(3 -6.10138e-16 0)
(3 3.63639e-16 0)
(3 -1.44353e-15 0)
(3 -2.94662e-15 0)
(3 -3.87095e-15 0)
(3 -3.83443e-15 0)
(3 -3.37669e-15 0)
(3 -2.65872e-15 0)
(3 -2.10907e-15 0)
(3 -1.84214e-15 0)
(3 -2.17566e-15 0)
(3 -1.25906e-15 0)
(3 -1.52208e-15 0)
(3 -1.37448e-15 0)
(3 -2.1322e-16 0)
(3 -6.53509e-16 0)
(3 1.08872e-16 0)
(3 3.17967e-17 0)
(3 -7.8093e-16 0)
(3 -1.22355e-16 0)
(3 -3.32417e-16 0)
(3 -8.10153e-16 0)
(3 -1.07387e-15 0)
(3 -2.11119e-15 0)
(3 -2.3048e-15 0)
(3 -2.22972e-15 0)
(3 -1.85521e-15 0)
(3 -1.31182e-15 0)
(3 -1.33704e-15 0)
(3 -2.04434e-15 0)
(3 -2.63047e-15 0)
(3 -2.53833e-15 0)
(3 -1.72906e-15 0)
(3 -1.00496e-15 0)
(3 -1.0671e-16 0)
(3 -1.0884e-17 0)
(3 -3.27991e-16 0)
(3 -1.11477e-16 0)
(3 2.23704e-16 0)
(3 -3.03032e-16 0)
(3 -7.6422e-16 0)
(3 -1.38761e-15 0)
(3 -1.98341e-15 0)
(3 -1.83838e-15 0)
(3 -9.83906e-16 0)
(3 -5.77853e-16 0)
(3 6.88036e-16 0)
(3 1.09362e-15 0)
(3 9.77875e-17 0)
(3 -4.34213e-16 0)
(3 -5.59297e-16 0)
(3 -4.26665e-16 0)
(3 -4.7267e-16 0)
(3 -9.25995e-16 0)
(3 -1.31426e-15 0)
(3 -1.16735e-16 0)
(3 -4.30764e-17 0)
(3 -8.19441e-17 0)
(3 -2.09445e-16 0)
(3 5.50201e-16 0)
(3 1.03323e-16 0)
(3 5.49563e-16 0)
(3 8.5046e-16 0)
(3 8.19735e-16 0)
(3 1.02332e-15 0)
(3 1.71593e-15 0)
(3 1.56642e-15 0)
(3 7.05774e-16 0)
(3 9.64242e-16 0)
(3 1.63895e-15 0)
(3 1.72888e-15 0)
(3 8.06751e-16 0)
(3 4.95634e-16 0)
(3 4.24781e-16 0)
(3 -3.68926e-16 0)
(3 -1.04427e-16 0)
(3 1.12398e-15 0)
(3 2.32853e-15 0)
(3 1.56485e-15 0)
(3 5.24757e-16 0)
(3 -6.31139e-16 0)
(3 -7.2707e-16 0)
(3 3.7951e-17 0)
(3 5.66617e-16 0)
(3 8.53839e-16 0)
(3 4.08527e-16 0)
(3 -1.97561e-17 0)
(3 1.75731e-16 0)
(3 5.26027e-17 0)
(3 3.4856e-16 0)
(3 1.85379e-15 0)
(3 3.1242e-15 0)
(3 3.06934e-15 0)
(3 1.85034e-15 0)
(3 2.18743e-15 0)
(3 7.05e-16 0)
(3 6.43056e-16 0)
(3 1.58521e-15 0)
(3 1.55784e-15 0)
(3 7.8742e-16 0)
(3 1.45249e-15 0)
(3 2.20992e-15 0)
(3 2.81516e-15 0)
(3 3.21057e-15 0)
(3 3.60975e-15 0)
(3 3.39124e-15 0)
(3 3.34491e-15 0)
(3 2.92842e-15 0)
(3 1.68945e-15 0)
(3 2.23568e-16 0)
(3 5.75636e-16 0)
(3 1.7157e-15 0)
(3 2.33384e-15 0)
(3 2.77122e-15 0)
(3 2.71581e-15 0)
(3 1.6539e-15 0)
(3 5.249e-16 0)
(3 9.55861e-16 0)
(3 1.70683e-15 0)
(3 9.63951e-16 0)
(3 8.7041e-16 0)
(3 7.52962e-16 0)
(3 5.52876e-16 0)
(3 4.02038e-16 0)
(3 -2.89339e-16 0)
(3 -2.01504e-16 0)
(3 3.06968e-16 0)
(3 1.792e-16 0)
(3 -2.1053e-16 0)
(3 -3.72546e-16 0)
(3 -8.8421e-16 0)
(3 -1.50942e-15 0)
(3 -2.31878e-15 0)
(3 -2.41077e-15 0)
(3 -1.37635e-15 0)
(3 2.26462e-16 0)
(3 4.8994e-16 0)
(3 -5.57366e-16 0)
(3 -7.97094e-16 0)
(3 -1.66235e-15 0)
(3 -2.34501e-15 0)
(3 -2.02734e-15 0)
(3 -9.83994e-16 0)
(3 -1.33397e-16 0)
(3 -1.37398e-16 0)
(3 1.19039e-15 0)
(3 2.34709e-15 0)
(3 1.98731e-15 0)
(3 6.73922e-16 0)
(3 -4.23347e-16 0)
(3 -5.0192e-16 0)
(3 6.30809e-16 0)
(3 6.24253e-16 0)
(3 -7.39694e-17 0)
(3 -1.79368e-16 0)
(3 -1.4955e-17 0)
(3 4.78183e-16 0)
(3 5.55766e-16 0)
(3 1.46358e-16 0)
(3 -4.83383e-16 0)
(3 -9.11675e-16 0)
(3 -1.2422e-15 0)
(3 -1.13608e-15 0)
(3 -9.73021e-16 0)
(3 -1.31055e-15 0)
(3 -1.72013e-16 0)
(3 5.15687e-16 0)
(3 9.29984e-16 0)
(3 5.62007e-16 0)
(3 3.16614e-16 0)
(3 -1.16917e-15 0)
(3 -1.93132e-15 0)
(3 -1.91188e-15 0)
(3 -1.82337e-15 0)
(3 -1.35663e-15 0)
(3 -1.44429e-15 0)
(3 -1.9599e-15 0)
(3 -2.09822e-15 0)
(3 -1.84263e-15 0)
(3 -1.64317e-15 0)
(3 -1.66168e-15 0)
(3 -1.15077e-15 0)
(3 2.04442e-16 0)
(3 6.1017e-16 0)
(3 3.84471e-16 0)
(3 -3.019e-17 0)
(3 8.19386e-17 0)
(3 -1.38323e-17 0)
(3 4.82988e-16 0)
(3 2.9995e-16 0)
(3 -2.66174e-16 0)
(3 -6.86586e-16 0)
(3 -7.93805e-16 0)
(3 -1.32925e-15 0)
(3 -2.15493e-15 0)
(3 -2.1876e-15 0)
(3 -2.84742e-15 0)
(3 -3.36774e-15 0)
(3 -3.39378e-15 0)
(3 -2.16507e-15 0)
(3 -1.54862e-15 0)
(3 -1.61938e-15 0)
(3 -1.97836e-15 0)
(3 -7.00107e-16 0)
(3 9.13962e-16 0)
(3 1.06418e-15 0)
(3 4.91481e-16 0)
(3 -1.37845e-15 0)
(3 -4.78001e-16 0)
(3 2.96271e-17 0)
(3 7.3769e-16 0)
(3 8.92902e-16 0)
(3 4.65359e-16 0)
(3 -1.02047e-15 0)
(3 -1.68229e-15 0)
(3 -1.91e-15 0)
(3 -2.29218e-15 0)
(3 -2.68309e-15 0)
(3 -2.64022e-15 0)
(3 -2.87321e-15 0)
(3 -2.57517e-15 0)
(3 -1.99341e-15 0)
(3 -2.16072e-15 0)
(3 -9.54173e-16 0)
(3 6.86224e-17 0)
(3 1.45539e-16 0)
(3 -1.20189e-16 0)
(3 -1.68783e-16 0)
(3 -2.08256e-16 0)
(3 -5.13138e-16 0)
(3 -1.46515e-15 0)
(3 -2.17324e-15 0)
(3 -2.38164e-15 0)
(3 -2.3004e-15 0)
(3 -1.67712e-15 0)
(3 -1.50488e-15 0)
(3 -1.36732e-15 0)
(3 -1.30363e-15 0)
(3 -1.50668e-15 0)
(3 -1.27739e-15 0)
(3 -1.66425e-15 0)
(3 -1.77537e-15 0)
(3 -2.3298e-15 0)
(3 -2.27695e-15 0)
(3 -1.75633e-15 0)
(3 -4.63081e-16 0)
(3 -3.73616e-16 0)
(3 -7.77055e-17 0)
(3 4.45765e-17 0)
(3 3.38407e-16 0)
(3 4.57882e-16 0)
(3 1.25342e-16 0)
(3 -1.68646e-15 0)
(3 -1.68906e-15 0)
(3 -1.35213e-15 0)
(3 -1.28989e-15 0)
(3 -5.61462e-16 0)
(3 -1.72154e-16 0)
(3 8.34446e-16 0)
(3 9.42161e-16 0)
(3 5.91315e-16 0)
(3 8.0866e-16 0)
(3 7.47856e-16 0)
(3 2.19994e-16 0)
(3 7.42941e-16 0)
(3 8.16245e-16 0)
(3 5.20215e-16 0)
(3 5.54721e-16 0)
(3 1.23902e-15 0)
(3 1.46754e-15 0)
(3 1.31288e-15 0)
(3 6.83051e-16 0)
(3 2.69973e-16 0)
(3 -3.49917e-16 0)
(3 -3.51324e-16 0)
(3 1.40278e-16 0)
(3 -4.72133e-16 0)
(3 -7.86452e-16 0)
(3 2.29475e-16 0)
(3 4.56744e-16 0)
(3 6.73893e-16 0)
(3 1.58211e-15 0)
(3 2.30839e-15 0)
(3 2.08405e-15 0)
(3 1.34553e-15 0)
(3 4.50803e-16 0)
(3 9.45035e-16 0)
(3 1.73316e-15 0)
(3 1.99936e-15 0)
(3 2.46339e-15 0)
(3 2.06528e-15 0)
(3 1.83883e-15 0)
(3 2.29321e-15 0)
(3 3.48328e-15 0)
(3 3.61228e-15 0)
(3 3.56621e-15 0)
(3 3.95264e-15 0)
(3 4.21543e-15 0)
(3 3.99189e-15 0)
(3 3.66951e-15 0)
(3 2.95203e-15 0)
(3 1.86025e-15 0)
(3 1.16621e-15 0)
(3 1.20175e-15 0)
(3 1.40107e-15 0)
(3 1.62894e-15 0)
(3 1.62521e-15 0)
(3 2.20052e-15 0)
(3 1.91232e-15 0)
(3 1.84515e-15 0)
(3 1.91994e-15 0)
(3 1.9159e-15 0)
(3 5.67215e-16 0)
(3 -2.90977e-17 0)
(3 -7.01815e-16 0)
(3 -7.43406e-16 0)
(3 -1.83957e-15 0)
(3 -1.7583e-15 0)
(3 -1.45917e-15 0)
(3 -1.75755e-15 0)
(3 -2.2729e-15 0)
(3 -2.64855e-15 0)
(3 -2.63562e-15 0)
(3 -2.44587e-15 0)
(3 -1.86547e-15 0)
(3 -2.08547e-16 0)
(3 4.53857e-17 0)
(3 4.40887e-16 0)
(3 6.36844e-17 0)
(3 -1.81313e-16 0)
(3 -2.80828e-16 0)
(3 -8.95281e-16 0)
(3 -1.13728e-15 0)
(3 -1.19748e-15 0)
(3 -7.93181e-16 0)
(3 6.33182e-17 0)
(3 7.31328e-16 0)
(3 2.28191e-16 0)
(3 -1.07866e-15 0)
(3 -3.80139e-16 0)
(3 -3.92484e-16 0)
(3 -2.15678e-16 0)
(3 -1.10567e-16 0)
(3 -2.57069e-16 0)
(3 -5.38295e-16 0)
(3 3.83728e-17 0)
(3 -2.55714e-16 0)
(3 -5.14795e-16 0)
(3 -3.06611e-16 0)
(3 -1.10717e-16 0)
(3 -2.66624e-16 0)
(3 4.13508e-16 0)
(3 6.18966e-16 0)
(3 7.49956e-16 0)
(3 8.55844e-16 0)
(3 1.83751e-17 0)
(3 1.22243e-16 0)
(3 -2.08174e-16 0)
(3 -2.69486e-16 0)
(3 -4.5958e-16 0)
(3 -1.02869e-16 0)
(3 1.29513e-16 0)
(3 -3.25079e-16 0)
(3 -2.819e-16 0)
(3 -4.81675e-16 0)
(3 -1.00986e-15 0)
(3 -9.90913e-16 0)
(3 -1.73483e-15 0)
(3 -2.19261e-15 0)
(3 -1.76951e-15 0)
(3 -1.26696e-15 0)
(3 -7.58557e-16 0)
(3 -6.3995e-16 0)
(3 -5.68297e-16 0)
(3 2.33213e-16 0)
(3 5.49506e-16 0)
(3 -4.94276e-16 0)
(3 -1.10075e-15 0)
(3 -1.08626e-15 0)
(3 4.63626e-17 0)
(3 8.50208e-16 0)
(3 2.44443e-16 0)
(3 2.08989e-17 0)
(3 -7.03195e-18 0)
(3 -2.28096e-16 0)
(3 -1.75251e-15 0)
(3 -2.31742e-15 0)
(3 -1.70465e-15 0)
(3 -1.04065e-15 0)
(3 -9.183e-16 0)
(3 -8.82998e-16 0)
(3 -9.92312e-16 0)
(3 -4.98857e-16 0)
(3 6.09827e-16 0)
(3 8.09191e-16 0)
(3 4.56232e-16 0)
(3 9.75514e-16 0)
(3 8.36986e-16 0)
(3 1.02807e-16 0)
(3 -8.19333e-16 0)
(3 -1.26986e-15 0)
(3 5.64626e-16 0)
(3 1.08924e-15 0)
(3 1.11575e-15 0)
(3 8.1565e-16 0)
(3 5.37953e-17 0)
(3 -8.48741e-16 0)
(3 -7.90404e-16 0)
(3 -1.35429e-15 0)
(3 -1.79213e-15 0)
(3 -2.40349e-15 0)
(3 -2.73294e-15 0)
(3 -2.73055e-15 0)
(3 -1.82617e-15 0)
(3 -6.64259e-16 0)
(3 -1.34437e-17 0)
(3 6.67349e-16 0)
(3 -6.48432e-16 0)
(3 -1.91527e-15 0)
(3 -5.00726e-16 0)
(3 -1.72398e-16 0)
(3 -6.59392e-16 0)
(3 -1.65735e-15 0)
(3 -1.52108e-15 0)
(3 -1.86805e-15 0)
(3 -1.15571e-15 0)
(3 -1.37314e-15 0)
(3 -2.2456e-15 0)
(3 -2.30799e-15 0)
(3 -2.21832e-15 0)
(3 -1.87013e-15 0)
(3 -1.39986e-15 0)
(3 -1.07523e-15 0)
(3 -1.11325e-15 0)
(3 -6.75662e-16 0)
(3 -1.78725e-16 0)
(3 3.76645e-16 0)
(3 6.59843e-16 0)
(3 6.57861e-16 0)
(3 1.48685e-16 0)
(3 -2.9504e-16 0)
(3 -7.32915e-16 0)
(3 -1.35226e-16 0)
(3 -8.18501e-17 0)
(3 -5.46112e-16 0)
(3 -1.29901e-15 0)
(3 -1.92461e-15 0)
(3 -1.90887e-15 0)
(3 -1.54942e-15 0)
(3 -1.2725e-15 0)
(3 -9.26088e-16 0)
(3 -1.01298e-16 0)
(3 -5.20435e-16 0)
(3 -1.01531e-15 0)
(3 -5.4578e-16 0)
(3 3.23814e-16 0)
(3 1.04669e-15 0)
(3 1.06497e-15 0)
(3 1.19676e-15 0)
(3 1.46719e-15 0)
(3 1.75072e-15 0)
(3 8.97749e-16 0)
(3 8.54891e-16 0)
(3 1.02363e-15 0)
(3 1.2016e-15 0)
(3 -2.42322e-16 0)
(3 -5.91512e-16 0)
(3 7.72531e-17 0)
(3 6.72983e-16 0)
(3 1.46452e-15 0)
(3 2.78654e-15 0)
(3 3.44188e-15 0)
(3 3.31054e-15 0)
(3 1.71621e-15 0)
(3 1.53543e-15 0)
(3 7.55204e-16 0)
(3 -9.91423e-16 0)
(3 -4.26435e-16 0)
(3 -6.72067e-16 0)
(3 -1.44179e-16 0)
(3 6.98694e-18 0)
(3 4.53936e-16 0)
(3 2.34257e-15 0)
(3 3.47367e-15 0)
(3 3.44772e-15 0)
(3 2.08318e-15 0)
(3 1.84459e-15 0)
(3 2.40466e-15 0)
(3 2.78933e-15 0)
(3 2.88567e-15 0)
(3 3.06925e-15 0)
(3 2.85546e-15 0)
(3 2.50768e-15 0)
(3 1.6357e-15 0)
(3 9.57205e-16 0)
(3 5.55955e-16 0)
(3 8.40338e-16 0)
(3 1.33806e-15 0)
(3 1.29895e-15 0)
(3 1.38068e-15 0)
(3 1.72816e-15 0)
(3 1.7145e-15 0)
(3 1.82525e-15 0)
(3 2.07667e-15 0)
(3 9.61801e-16 0)
(3 3.07898e-16 0)
(3 3.49461e-16 0)
(3 1.07139e-15 0)
(3 1.37243e-15 0)
(3 4.19654e-16 0)
(3 -7.90518e-16 0)
(3 -1.38661e-15 0)
(3 -2.23961e-15 0)
(3 -2.2282e-15 0)
(3 -1.03033e-15 0)
(3 -1.02245e-15 0)
(3 -1.566e-15 0)
(3 -1.37515e-15 0)
(3 -8.83725e-16 0)
(3 -8.26691e-16 0)
(3 -7.70836e-16 0)
(3 -1.22174e-15 0)
(3 -1.29536e-15 0)
(3 -1.38575e-15 0)
(3 -1.43049e-15 0)
(3 -1.49897e-15 0)
(3 -1.2187e-15 0)
(3 -3.09793e-16 0)
(3 -3.01631e-17 0)
(3 -7.35539e-16 0)
(3 -2.33319e-15 0)
(3 -2.67427e-15 0)
(3 -1.54098e-15 0)
(3 3.53234e-16 0)
(3 6.83874e-16 0)
(3 -4.06086e-16 0)
(3 -1.01958e-15 0)
(3 1.90613e-16 0)
(3 8.59994e-17 0)
(3 1.92232e-17 0)
(3 -7.80861e-16 0)
(3 -1.22783e-15 0)
(3 -7.69853e-16 0)
(3 -5.25439e-17 0)
(3 5.15214e-17 0)
(3 2.91304e-16 0)
(3 2.74956e-16 0)
(3 -4.31843e-16 0)
(3 -4.44172e-16 0)
(3 -8.24295e-16 0)
(3 -1.17037e-15 0)
(3 -8.66105e-16 0)
(3 -9.15941e-16 0)
(3 -5.07751e-16 0)
(3 3.51474e-16 0)
(3 9.03721e-16 0)
(3 4.12299e-16 0)
(3 -1.20334e-16 0)
(3 4.74367e-17 0)
(3 -1.23889e-16 0)
(3 -6.31967e-16 0)
(3 -5.52014e-16 0)
(3 -6.39911e-16 0)
(3 -4.94066e-16 0)
(3 -6.68936e-17 0)
(3 -2.17144e-16 0)
(3 -1.03913e-15 0)
(3 -1.13579e-15 0)
(3 -2.37841e-16 0)
(3 3.25256e-16 0)
(3 -1.08398e-16 0)
(3 -3.15642e-16 0)
(3 -9.64252e-16 0)
(3 -9.71584e-16 0)
(3 -6.06707e-16 0)
(3 -7.62724e-16 0)
(3 -1.45228e-15 0)
(3 -2.12599e-15 0)
(3 -2.42871e-15 0)
(3 -2.52676e-15 0)
(3 -1.96893e-15 0)
(3 -1.28655e-15 0)
(3 -1.3179e-15 0)
(3 -2.29616e-15 0)
(3 -1.15486e-15 0)
(3 8.40422e-16 0)
(3 1.37987e-15 0)
(3 1.67932e-15 0)
(3 1.66394e-15 0)
(3 1.74517e-15 0)
(3 1.76017e-15 0)
(3 1.68826e-15 0)
(3 1.03361e-15 0)
(3 1.23495e-15 0)
(3 7.76777e-16 0)
(3 3.89548e-16 0)
(3 1.27965e-15 0)
(3 1.98535e-15 0)
(3 1.52864e-15 0)
(3 4.15304e-16 0)
(3 -3.84635e-16 0)
(3 -3.32083e-16 0)
(3 -1.2296e-15 0)
(3 -9.55629e-16 0)
(3 -4.76304e-16 0)
(3 -8.83376e-17 0)
(3 1.08454e-15 0)
(3 1.81817e-15 0)
(3 1.56501e-15 0)
(3 5.19246e-16 0)
(3 -3.8567e-16 0)
(3 -5.79168e-16 0)
(3 -1.81139e-16 0)
(3 8.29472e-17 0)
(3 3.07407e-16 0)
(3 1.87016e-15 0)
(3 1.95266e-15 0)
(3 1.84725e-15 0)
(3 1.31091e-15 0)
(3 -4.78942e-17 0)
(3 -6.41287e-16 0)
(3 -5.47492e-16 0)
(3 -1.48429e-16 0)
(3 -4.1023e-17 0)
(3 3.46931e-16 0)
(3 5.60223e-16 0)
(3 1.43334e-15 0)
(3 1.529e-15 0)
(3 1.57067e-15 0)
(3 8.83314e-16 0)
(3 1.10279e-15 0)
(3 9.64179e-16 0)
(3 -4.82687e-16 0)
(3 -5.60943e-16 0)
(3 -2.87684e-16 0)
(3 -7.53086e-16 0)
(3 -8.39928e-16 0)
(3 -4.66368e-16 0)
(3 -3.54668e-16 0)
(3 -2.14873e-16 0)
(3 -2.1018e-16 0)
(3 -4.3558e-16 0)
(3 -7.06927e-16 0)
(3 -3.0069e-16 0)
(3 -6.51889e-16 0)
(3 -7.67346e-16 0)
(3 -5.37921e-16 0)
(3 4.55966e-16 0)
(3 3.75871e-16 0)
(3 9.55258e-16 0)
(3 1.14987e-15 0)
(3 1.32438e-15 0)
(3 9.89598e-16 0)
(3 5.14161e-16 0)
(3 1.27754e-16 0)
(3 6.39011e-16 0)
(3 8.06344e-16 0)
(3 -1.30373e-16 0)
(3 4.72167e-17 0)
(3 2.88661e-16 0)
(3 2.09071e-15 0)
(3 2.80962e-15 0)
(3 3.00504e-15 0)
(3 3.3805e-15 0)
(3 3.36099e-15 0)
(3 2.50965e-15 0)
(3 9.46605e-16 0)
(3 -6.31135e-16 0)
(3 -6.43514e-16 0)
(3 3.80926e-16 0)
(3 1.12866e-17 0)
(3 1.68587e-17 0)
(3 -3.86591e-16 0)
(3 -3.35761e-16 0)
(3 2.39103e-15 0)
(3 4.64004e-15 0)
(3 3.81099e-15 0)
(3 2.25592e-15 0)
(3 2.36251e-15 0)
(3 2.66751e-15 0)
(3 2.55456e-15 0)
(3 2.37905e-15 0)
(3 2.29187e-15 0)
(3 1.78226e-15 0)
(3 1.84485e-15 0)
(3 1.65037e-15 0)
(3 1.59747e-15 0)
(3 1.31497e-15 0)
(3 1.11772e-15 0)
(3 1.16869e-15 0)
(3 1.34873e-15 0)
(3 9.34885e-16 0)
(3 8.85367e-16 0)
(3 1.05894e-15 0)
(3 1.49441e-15 0)
(3 1.6464e-15 0)
(3 1.49598e-15 0)
(3 2.34986e-16 0)
(3 5.88069e-16 0)
(3 4.73659e-16 0)
(3 5.32101e-16 0)
(3 1.82206e-16 0)
(3 -4.16255e-16 0)
(3 -3.67126e-17 0)
(3 -5.21257e-16 0)
(3 -8.0968e-16 0)
(3 7.69434e-16 0)
(3 3.42619e-16 0)
(3 6.18555e-16 0)
(3 -6.20717e-18 0)
(3 -1.02645e-16 0)
(3 -3.63463e-17 0)
(3 -3.15263e-16 0)
(3 -1.4518e-15 0)
(3 -2.68158e-15 0)
(3 -2.97942e-15 0)
(3 -2.57237e-15 0)
(3 -9.86795e-16 0)
(3 -6.89378e-16 0)
(3 -5.96145e-16 0)
(3 -9.73852e-16 0)
(3 -1.08619e-15 0)
(3 -2.09117e-15 0)
(3 -2.72456e-15 0)
(3 -2.90026e-15 0)
(3 -1.60299e-15 0)
(3 -1.07762e-15 0)
(3 -7.51106e-16 0)
(3 -8.65905e-16 0)
(3 5.81788e-17 0)
(3 2.59636e-16 0)
(3 -1.91393e-16 0)
(3 -8.38287e-16 0)
(3 -8.63247e-16 0)
(3 -2.1864e-16 0)
(3 3.75851e-17 0)
(3 4.62405e-16 0)
(3 7.16083e-16 0)
(3 6.05036e-16 0)
(3 8.63671e-16 0)
(3 4.64861e-16 0)
(3 4.93498e-16 0)
(3 3.24922e-17 0)
(3 -4.57177e-17 0)
(3 -1.44588e-16 0)
(3 -1.88819e-16 0)
(3 4.42597e-16 0)
(3 9.81377e-17 0)
(3 1.38066e-16 0)
(3 -1.45425e-16 0)
(3 6.51397e-17 0)
(3 9.68814e-16 0)
(3 9.62677e-16 0)
(3 5.80223e-16 0)
(3 -2.25438e-16 0)
(3 -6.59463e-16 0)
(3 -7.05639e-16 0)
(3 -1.28881e-15 0)
(3 -1.98091e-15 0)
(3 -1.45887e-15 0)
(3 -6.32099e-16 0)
(3 -2.92782e-16 0)
(3 -1.39967e-16 0)
(3 -8.84877e-16 0)
(3 -1.08184e-15 0)
(3 -3.79902e-16 0)
(3 -4.67881e-17 0)
(3 -1.8575e-15 0)
(3 -2.67047e-15 0)
(3 -3.76814e-15 0)
(3 -3.50584e-15 0)
(3 -3.91002e-15 0)
(3 -3.77344e-15 0)
(3 -3.52946e-15 0)
(3 -3.2604e-15 0)
(3 -2.84073e-15 0)
(3 -1.5198e-15 0)
(3 -3.09123e-16 0)
(3 6.62163e-16 0)
(3 2.46066e-15 0)
(3 2.5431e-15 0)
(3 2.37886e-15 0)
(3 2.77072e-15 0)
(3 3.12542e-15 0)
(3 2.23768e-15 0)
(3 1.52835e-16 0)
(3 2.74471e-16 0)
(3 7.7224e-16 0)
(3 1.20396e-15 0)
(3 1.41988e-15 0)
(3 1.27438e-15 0)
(3 5.59518e-16 0)
(3 2.31516e-16 0)
(3 -2.09799e-16 0)
(3 5.2492e-16 0)
(3 1.3385e-15 0)
(3 1.8474e-15 0)
(3 2.30873e-15 0)
(3 2.08902e-15 0)
(3 1.34528e-15 0)
(3 2.77034e-16 0)
(3 4.95038e-16 0)
(3 7.53362e-16 0)
(3 -3.44212e-17 0)
(3 3.4068e-17 0)
(3 9.9283e-16 0)
(3 2.15922e-15 0)
(3 3.0683e-15 0)
(3 2.99885e-15 0)
(3 2.63287e-15 0)
(3 1.82635e-15 0)
(3 1.56106e-15 0)
(3 1.76022e-15 0)
(3 1.5603e-15 0)
(3 1.27564e-15 0)
(3 5.56479e-16 0)
(3 5.66764e-16 0)
(3 1.17828e-15 0)
(3 1.9446e-15 0)
(3 1.73817e-15 0)
(3 1.04195e-15 0)
(3 8.90145e-16 0)
(3 1.00697e-15 0)
(3 1.767e-15 0)
(3 1.93248e-15 0)
(3 1.11291e-15 0)
(3 2.7938e-16 0)
(3 -1.61315e-15 0)
(3 -1.21556e-15 0)
(3 -3.63112e-16 0)
(3 3.96545e-16 0)
(3 7.60602e-16 0)
(3 1.16923e-16 0)
(3 -3.01594e-16 0)
(3 -5.97014e-16 0)
(3 -7.46698e-16 0)
(3 -8.25749e-16 0)
(3 -1.90954e-16 0)
(3 3.5453e-16 0)
(3 3.84932e-16 0)
(3 3.89708e-16 0)
(3 1.22041e-15 0)
(3 1.8005e-15 0)
(3 1.71563e-15 0)
(3 5.7891e-16 0)
(3 -1.00284e-15 0)
(3 -9.92174e-16 0)
(3 -4.11974e-16 0)
(3 1.52196e-16 0)
(3 4.71654e-17 0)
(3 -1.28034e-16 0)
(3 -1.2774e-17 0)
(3 6.30775e-16 0)
(3 1.39838e-15 0)
(3 2.18037e-15 0)
(3 2.03686e-15 0)
(3 1.67815e-15 0)
(3 1.16628e-15 0)
(3 1.97181e-16 0)
(3 -4.11504e-16 0)
(3 3.21761e-17 0)
(3 7.48755e-16 0)
(3 1.29296e-15 0)
(3 2.03031e-15 0)
(3 2.56792e-15 0)
(3 2.32021e-15 0)
(3 2.75819e-15 0)
(3 3.79993e-15 0)
(3 3.2864e-15 0)
(3 3.06397e-15 0)
(3 3.07346e-15 0)
(3 2.45459e-15 0)
(3 2.67836e-15 0)
(3 3.02976e-15 0)
(3 2.47202e-15 0)
(3 1.85673e-15 0)
(3 1.78998e-15 0)
(3 1.85502e-15 0)
(3 1.65236e-15 0)
(3 1.60138e-15 0)
(3 1.60923e-15 0)
(3 1.11177e-15 0)
(3 6.67916e-16 0)
(3 9.75272e-16 0)
(3 1.08449e-15 0)
(3 4.8345e-16 0)
(3 3.87812e-16 0)
(3 6.9109e-16 0)
(3 1.26261e-15 0)
(3 9.84093e-16 0)
(3 4.19041e-16 0)
(3 -3.70051e-16 0)
(3 -3.43659e-16 0)
(3 -8.57426e-17 0)
(3 3.50146e-16 0)
(3 8.89972e-16 0)
(3 1.1069e-15 0)
(3 1.06082e-15 0)
(3 2.81639e-15 0)
(3 2.63137e-15 0)
(3 3.27304e-15 0)
(3 2.32449e-15 0)
(3 6.79058e-16 0)
(3 6.61965e-16 0)
(3 1.69409e-16 0)
(3 1.23792e-16 0)
(3 -3.15599e-16 0)
(3 -1.11201e-15 0)
(3 -8.4531e-16 0)
(3 -6.5126e-16 0)
(3 -5.05899e-17 0)
(3 -1.68074e-17 0)
(3 -4.05737e-16 0)
(3 -6.59243e-16 0)
(3 -9.79938e-16 0)
(3 -1.8934e-15 0)
(3 -2.41293e-15 0)
(3 -2.13618e-15 0)
(3 -2.38944e-15 0)
(3 -3.00833e-15 0)
(3 -1.78565e-15 0)
(3 2.18983e-18 0)
(3 1.10211e-16 0)
(3 -2.23761e-16 0)
(3 2.02609e-16 0)
(3 5.13389e-16 0)
(3 8.5522e-16 0)
(3 9.02937e-16 0)
(3 6.88428e-16 0)
(3 5.35719e-16 0)
(3 7.27511e-16 0)
(3 8.30311e-16 0)
(3 1.62155e-15 0)
(3 1.83242e-15 0)
(3 1.26222e-15 0)
(3 1.02825e-15 0)
(3 4.9076e-16 0)
(3 3.07377e-16 0)
(3 5.09102e-16 0)
(3 5.3519e-16 0)
(3 4.36778e-16 0)
(3 3.55762e-16 0)
(3 1.61934e-16 0)
(3 6.64632e-16 0)
(3 1.14688e-15 0)
(3 1.08371e-15 0)
(3 1.24105e-15 0)
(3 6.73299e-16 0)
(3 1.12105e-16 0)
(3 1.40443e-16 0)
(3 -2.21586e-17 0)
(3 -1.38162e-15 0)
(3 -1.60841e-15 0)
(3 -1.20512e-15 0)
(3 -7.05009e-16 0)
(3 -1.18152e-16 0)
(3 -7.1061e-17 0)
(3 -5.93799e-16 0)
(3 -5.75365e-16 0)
(3 -1.39537e-15 0)
(3 -2.12629e-15 0)
(3 -3.17327e-15 0)
(3 -3.36313e-15 0)
(3 -3.24374e-15 0)
(3 -3.82361e-15 0)
(3 -4.13198e-15 0)
(3 -3.2019e-15 0)
(3 -9.71075e-16 0)
(3 -7.09212e-16 0)
(3 -5.99871e-16 0)
(3 3.53567e-16 0)
(3 4.12588e-16 0)
(3 7.45144e-16 0)
(3 9.40486e-16 0)
(3 1.56285e-15 0)
(3 1.99382e-15 0)
(3 1.80659e-15 0)
(3 1.34396e-15 0)
(3 1.24821e-15 0)
(3 8.65375e-16 0)
(3 4.55786e-16 0)
(3 8.33097e-16 0)
(3 1.10933e-15 0)
(3 1.48574e-15 0)
(3 1.51947e-15 0)
(3 1.07075e-15 0)
(3 1.28676e-15 0)
(3 1.14954e-15 0)
(3 9.75667e-16 0)
(3 1.11146e-15 0)
(3 8.53954e-16 0)
(3 3.06208e-16 0)
(3 3.89155e-16 0)
(3 9.15148e-16 0)
(3 1.36491e-15 0)
(3 1.41728e-15 0)
(3 1.41184e-15 0)
(3 1.48411e-15 0)
(3 1.45525e-15 0)
(3 1.39105e-15 0)
(3 1.58167e-15 0)
(3 1.38179e-15 0)
(3 1.74838e-15 0)
(3 2.88958e-15 0)
(3 3.02311e-15 0)
(3 2.33287e-15 0)
(3 1.9434e-15 0)
(3 1.10597e-15 0)
(3 -2.4264e-16 0)
(3 1.20847e-16 0)
(3 4.93367e-16 0)
(3 1.07603e-15 0)
(3 7.86819e-16 0)
(3 7.14204e-16 0)
(3 6.41715e-16 0)
(3 1.08444e-15 0)
(3 1.48956e-15 0)
(3 1.4323e-15 0)
(3 6.14058e-16 0)
(3 -2.28482e-16 0)
(3 -2.98322e-16 0)
(3 8.38767e-17 0)
(3 2.49726e-16 0)
(3 -7.39016e-17 0)
(3 -1.85148e-16 0)
(3 -1.37463e-16 0)
(3 -5.50343e-16 0)
(3 -9.58603e-16 0)
(3 -6.92322e-16 0)
(3 3.82528e-16 0)
(3 1.17431e-15 0)
(3 9.91264e-16 0)
(3 8.70988e-16 0)
(3 6.44127e-16 0)
(3 9.96133e-16 0)
(3 1.26188e-15 0)
(3 1.52752e-15 0)
(3 1.45922e-15 0)
(3 1.48655e-15 0)
(3 5.50298e-16 0)
(3 -1.33191e-16 0)
(3 -7.07489e-16 0)
(3 -1.05045e-15 0)
(3 -1.43549e-15 0)
(3 -4.42229e-16 0)
(3 9.85508e-16 0)
(3 1.67645e-15 0)
(3 1.86463e-15 0)
(3 1.62067e-15 0)
(3 1.18245e-15 0)
(3 8.49253e-16 0)
(3 1.11975e-15 0)
(3 1.57936e-15 0)
(3 1.36198e-15 0)
(3 1.90583e-15 0)
(3 2.74648e-15 0)
(3 4.49447e-15 0)
(3 4.80859e-15 0)
(3 3.41874e-15 0)
(3 1.59637e-15 0)
(3 1.58514e-15 0)
(3 2.17659e-15 0)
(3 1.99683e-15 0)
(3 1.98568e-15 0)
(3 2.07803e-15 0)
(3 2.26505e-15 0)
(3 1.63349e-15 0)
(3 1.64734e-15 0)
(3 1.80413e-15 0)
(3 1.24183e-15 0)
(3 1.07092e-15 0)
(3 1.59687e-15 0)
(3 2.01766e-15 0)
(3 1.10846e-15 0)
(3 5.10076e-16 0)
(3 6.45067e-16 0)
(3 4.80014e-16 0)
(3 -5.60965e-17 0)
(3 -3.43295e-16 0)
(3 -9.77011e-16 0)
(3 -7.89451e-16 0)
(3 4.42892e-16 0)
(3 1.00983e-15 0)
(3 5.0199e-16 0)
(3 1.52333e-16 0)
(3 8.54419e-16 0)
(3 6.34195e-16 0)
(3 8.18162e-16 0)
(3 1.50933e-15 0)
(3 2.1828e-15 0)
(3 3.14075e-15 0)
(3 2.84061e-15 0)
(3 1.80558e-15 0)
(3 2.06243e-16 0)
(3 -4.90251e-16 0)
(3 -8.00866e-16 0)
(3 -4.98625e-16 0)
(3 -1.40529e-15 0)
(3 -1.33418e-15 0)
(3 -1.80955e-15 0)
(3 -1.72804e-15 0)
(3 -1.41348e-15 0)
(3 -8.96947e-16 0)
(3 -7.07051e-16 0)
(3 -1.28133e-15 0)
(3 -1.90676e-15 0)
(3 -1.45217e-15 0)
(3 -1.16944e-15 0)
(3 -1.12697e-15 0)
(3 -1.43886e-15 0)
(3 -2.36646e-15 0)
(3 -2.62352e-15 0)
(3 -1.12893e-15 0)
(3 -1.15204e-16 0)
(3 -3.36564e-17 0)
(3 1.22628e-16 0)
(3 3.18901e-16 0)
(3 4.18571e-16 0)
(3 3.83497e-16 0)
(3 3.9413e-16 0)
(3 3.78576e-18 0)
(3 -9.95533e-17 0)
(3 1.22259e-16 0)
(3 2.011e-16 0)
(3 9.64271e-16 0)
(3 1.12176e-15 0)
(3 1.34007e-15 0)
(3 1.16811e-15 0)
(3 8.45339e-16 0)
(3 7.41613e-16 0)
(3 2.05565e-16 0)
(3 -6.70978e-18 0)
(3 2.23634e-16 0)
(3 4.95946e-16 0)
(3 4.13049e-16 0)
(3 3.28551e-17 0)
(3 2.7223e-16 0)
(3 1.34574e-16 0)
(3 4.23699e-16 0)
(3 5.21768e-16 0)
(3 7.63449e-16 0)
(3 8.45535e-16 0)
(3 7.3159e-16 0)
(3 1.61635e-16 0)
(3 -8.6178e-17 0)
(3 3.3108e-16 0)
(3 5.39959e-16 0)
(3 1.05241e-15 0)
(3 9.73256e-16 0)
(3 5.16066e-16 0)
(3 3.35295e-16 0)
(3 1.65936e-16 0)
(3 -4.16127e-16 0)
(3 -1.09366e-15 0)
(3 -1.58899e-15 0)
(3 -2.12584e-15 0)
(3 -2.65868e-15 0)
(3 -3.16634e-15 0)
(3 -3.00294e-15 0)
(3 -2.75148e-15 0)
(3 -3.53499e-15 0)
(3 -4.42835e-15 0)
(3 -3.65779e-15 0)
(3 -2.89269e-15 0)
(3 -1.47155e-15 0)
(3 -7.64755e-16 0)
(3 -4.01597e-16 0)
(3 -9.29657e-17 0)
(3 7.77816e-17 0)
(3 6.5008e-16 0)
(3 6.57965e-16 0)
(3 7.44629e-16 0)
(3 4.47558e-16 0)
(3 6.39739e-16 0)
(3 1.04504e-15 0)
(3 8.63994e-16 0)
(3 7.01103e-16 0)
(3 7.80074e-16 0)
(3 9.06286e-16 0)
(3 4.39295e-16 0)
(3 4.15481e-16 0)
(3 -1.34542e-16 0)
(3 -2.32589e-16 0)
(3 -3.31324e-16 0)
(3 -1.16882e-16 0)
(3 7.75768e-16 0)
(3 1.2884e-15 0)
(3 1.95787e-15 0)
(3 1.73458e-15 0)
(3 1.25502e-15 0)
(3 1.02207e-15 0)
(3 2.45662e-16 0)
(3 1.05421e-16 0)
(3 5.87426e-16 0)
(3 1.07274e-15 0)
(3 1.16986e-15 0)
(3 1.40016e-15 0)
(3 1.5285e-15 0)
(3 1.23336e-15 0)
(3 2.93094e-16 0)
(3 -6.71311e-16 0)
(3 -9.08668e-16 0)
(3 -1.16978e-15 0)
(3 -4.37294e-16 0)
(3 1.70348e-16 0)
(3 4.81823e-17 0)
(3 8.20074e-17 0)
(3 -6.95934e-17 0)
(3 -3.92647e-16 0)
(3 -5.92414e-16 0)
(3 -2.68105e-16 0)
(3 1.32424e-16 0)
(3 4.2906e-16 0)
(3 1.04088e-16 0)
(3 1.73962e-16 0)
(3 -8.95614e-16 0)
(3 -7.42449e-17 0)
(3 -5.54165e-16 0)
(3 -4.97306e-16 0)
(3 -4.30332e-16 0)
(3 -2.90522e-16 0)
(3 6.8116e-16 0)
(3 6.9221e-16 0)
(3 4.26913e-16 0)
(3 4.29962e-16 0)
(3 1.70198e-16 0)
(3 2.18564e-16 0)
(3 1.15888e-15 0)
(3 1.81745e-15 0)
(3 1.92526e-15 0)
(3 1.7132e-15 0)
(3 4.746e-16 0)
(3 -3.42607e-16 0)
(3 -1.00558e-15 0)
(3 -1.04886e-15 0)
(3 -1.0338e-15 0)
(3 8.60556e-16 0)
(3 1.60553e-15 0)
(3 1.3332e-15 0)
(3 1.40574e-15 0)
(3 1.14714e-15 0)
(3 8.30825e-16 0)
(3 1.40514e-15 0)
(3 1.66328e-15 0)
(3 1.79604e-15 0)
(3 7.43909e-16 0)
(3 7.12432e-16 0)
(3 1.17419e-15 0)
(3 2.14388e-15 0)
(3 2.48623e-15 0)
(3 1.61879e-15 0)
(3 5.32017e-16 0)
(3 5.02255e-16 0)
(3 8.94909e-16 0)
(3 1.12631e-15 0)
(3 1.07605e-15 0)
(3 5.00193e-16 0)
(3 5.29205e-16 0)
(3 7.36353e-16 0)
(3 9.59023e-16 0)
(3 7.59644e-16 0)
(3 1.02176e-15 0)
(3 1.41758e-15 0)
(3 1.44937e-15 0)
(3 1.30912e-15 0)
(3 7.72346e-16 0)
(3 7.25256e-16 0)
(3 8.00916e-16 0)
(3 2.37951e-16 0)
(3 -3.01361e-16 0)
(3 -6.64485e-16 0)
(3 -1.39857e-15 0)
(3 -1.48625e-15 0)
(3 -1.14695e-15 0)
(3 -7.35178e-16 0)
(3 5.16025e-16 0)
(3 1.00423e-15 0)
(3 1.24336e-16 0)
(3 9.65563e-17 0)
(3 9.34492e-17 0)
(3 8.98021e-16 0)
(3 9.68956e-16 0)
(3 9.83832e-16 0)
(3 1.7627e-15 0)
(3 8.84876e-16 0)
(3 6.56669e-16 0)
(3 1.03904e-15 0)
(3 2.01837e-16 0)
(3 1.00237e-16 0)
(3 -8.30767e-16 0)
(3 -2.08499e-15 0)
(3 -2.58333e-15 0)
(3 -2.25238e-15 0)
(3 -7.98409e-16 0)
(3 -5.2278e-16 0)
(3 -1.00945e-15 0)
(3 -1.32976e-15 0)
(3 -1.94445e-15 0)
(3 -2.0395e-15 0)
(3 -1.51841e-15 0)
(3 -1.76498e-15 0)
(3 -2.21761e-15 0)
(3 -2.85853e-15 0)
(3 -2.28854e-15 0)
(3 -1.21044e-15 0)
(3 -2.53988e-17 0)
(3 1.77837e-16 0)
(3 3.78389e-16 0)
(3 -1.4832e-17 0)
(3 -9.97848e-17 0)
(3 -2.41971e-16 0)
(3 -5.22254e-16 0)
(3 -5.8144e-16 0)
(3 2.21362e-16 0)
(3 8.54817e-16 0)
(3 6.85265e-16 0)
(3 2.59958e-16 0)
(3 2.06872e-16 0)
(3 4.79045e-16 0)
(3 2.69528e-16 0)
(3 6.04324e-16 0)
(3 1.15661e-15 0)
(3 7.075e-16 0)
(3 2.21232e-16 0)
(3 2.85228e-16 0)
(3 1.08867e-15 0)
(3 1.03288e-15 0)
(3 6.17707e-16 0)
(3 6.47167e-18 0)
(3 -1.11039e-16 0)
(3 -2.19584e-16 0)
(3 1.6865e-16 0)
(3 3.51348e-16 0)
(3 3.07481e-16 0)
(3 6.0711e-16 0)
(3 1.25402e-15 0)
(3 5.34977e-16 0)
(3 1.24891e-15 0)
(3 1.24156e-15 0)
(3 9.57636e-16 0)
(3 1.08684e-15 0)
(3 1.74989e-15 0)
(3 1.43222e-15 0)
(3 8.72515e-16 0)
(3 -3.93636e-16 0)
(3 -1.10445e-15 0)
(3 -1.51093e-15 0)
(3 -2.17057e-15 0)
(3 -2.48038e-15 0)
(3 -2.49322e-15 0)
(3 -2.93644e-15 0)
(3 -3.71217e-15 0)
(3 -4.08066e-15 0)
(3 -4.53177e-15 0)
(3 -5.45858e-15 0)
(3 -4.69435e-15 0)
(3 -3.14438e-15 0)
(3 -1.89672e-15 0)
(3 -1.46053e-15 0)
(3 -9.49295e-16 0)
(3 -5.78381e-16 0)
(3 -3.90824e-16 0)
(3 2.07152e-16 0)
(3 1.45354e-16 0)
(3 -1.21514e-16 0)
(3 -2.82496e-16 0)
(3 2.49684e-16 0)
(3 4.99143e-16 0)
(3 6.43188e-16 0)
(3 8.16267e-16 0)
(3 1.42772e-15 0)
(3 1.32163e-15 0)
(3 -4.92799e-17 0)
(3 -5.17916e-16 0)
(3 -4.39365e-16 0)
(3 -4.09038e-16 0)
(3 -2.65686e-16 0)
(3 1.00545e-15 0)
(3 1.93338e-15 0)
(3 2.10479e-15 0)
(3 1.79996e-15 0)
(3 1.38464e-15 0)
(3 1.20784e-15 0)
(3 9.23967e-16 0)
(3 2.50956e-16 0)
(3 -8.79407e-16 0)
(3 -1.33213e-15 0)
(3 -1.58772e-15 0)
(3 -8.8637e-16 0)
(3 -1.00174e-16 0)
(3 -1.10615e-16 0)
(3 -1.10281e-15 0)
(3 -1.17264e-15 0)
(3 -1.4762e-15 0)
(3 -1.20988e-15 0)
(3 -1.26585e-15 0)
(3 -1.10421e-15 0)
(3 -1.06764e-15 0)
(3 -8.12585e-16 0)
(3 -1.55493e-16 0)
(3 -1.21702e-15 0)
(3 -1.82956e-15 0)
(3 -1.2041e-15 0)
(3 -4.98277e-16 0)
(3 -6.15613e-17 0)
(3 -5.28049e-17 0)
(3 -1.43706e-16 0)
(3 1.8935e-16 0)
(3 1.99855e-16 0)
(3 -2.83298e-16 0)
(3 -6.90285e-16 0)
(3 -3.23215e-16 0)
(3 4.49899e-17 0)
(3 4.49855e-16 0)
(3 3.23814e-16 0)