/*--------------------------------*- C++ -*----------------------------------*\
  =========                 |
  \\      /  F ield         | OpenFOAM: The Open Source CFD Toolbox
   \\    /   O peration     | Website:  https://openfoam.org
    \\  /    A nd           | Version:  7
     \\/     M anipulation  |
\*---------------------------------------------------------------------------*/
FoamFile
{
    version     2.0;
    format      ascii;
    class       volScalarField;
    location    "2.8";
    object      rho;
}
// * * * * * * * * * * * * * * * * * * * * * * * * * * * * * * * * * * * * * //

dimensions      [1 -3 0 0 0 0 0];

internalField   nonuniform List<scalar> 
16192
(
1.40001
1.40001
1.40001
1.40001
1.40001
1.40001
1.40001
1.40001
1.40001
1.40001
1.40001
1.40001
1.40001
1.40001
1.40001
1.40001
1.40001
1.40001
1.40001
1.40001
1.40001
1.40001
1.40001
1.40001
1.40001
1.40001
1.40001
1.40001
1.40001
1.40001
1.40001
1.40001
1.40001
1.40001
1.40001
1.40001
1.40001
1.40001
1.40001
1.40001
1.40001
1.40001
1.40001
1.40001
1.40001
1.40001
1.40001
1.40001
1.40001
1.40001
1.40001
1.40001
1.40001
1.40001
1.40001
1.40001
1.40001
1.40001
1.40001
1.40001
1.40001
1.40001
1.40001
1.40001
1.40001
1.40001
1.40001
1.40001
1.40001
1.40001
1.40001
1.40001
1.40001
1.40001
1.40001
1.40001
1.40001
1.40001
1.40001
1.40001
1.40001
1.40001
1.40001
1.40001
1.40001
1.40001
1.40001
1.40001
1.40001
1.40001
1.40001
1.40001
1.40001
1.40001
1.40001
1.40001
1.40001
1.40001
1.40001
1.40001
1.40001
1.40001
1.40001
1.40001
1.40001
1.40001
1.40001
1.40001
1.40001
1.40001
1.40001
1.40001
1.40001
1.40001
1.40001
1.40001
1.40001
1.40001
1.40001
1.40001
1.40001
1.40001
1.40001
1.40001
1.40001
1.40001
1.40001
1.40001
1.40001
1.40001
1.40001
1.40001
1.40001
1.40001
1.40001
1.40001
1.40001
1.40001
1.40001
1.40001
1.40001
1.40001
1.40001
1.40001
1.40001
1.40001
1.40001
1.40001
1.40001
1.40001
1.40001
1.40001
1.40001
1.40001
1.40001
1.40001
1.40001
1.40001
1.40001
1.40001
1.40001
1.40001
1.40001
1.40001
1.40001
1.40001
1.40001
1.40001
1.40001
1.40001
1.40001
1.40001
1.40001
1.40001
1.40001
1.40001
1.40001
1.40001
1.40001
1.40001
1.40001
1.40001
1.40001
1.40001
1.40001
1.40001
1.40001
1.40001
1.40001
1.40001
1.40001
1.40001
1.40001
1.40001
1.40001
1.40001
1.40001
1.40001
1.40001
1.40001
1.40001
1.40001
1.40001
1.40001
1.40001
1.40001
1.40001
1.40001
1.40001
1.40001
1.40001
1.40001
1.40001
1.40001
1.40001
1.40001
1.40001
1.40001
1.40001
1.40001
1.40001
1.40001
1.40001
1.40001
1.40001
1.40001
1.40001
1.40001
1.40001
1.40001
1.40001
1.40001
1.40001
1.40001
1.40001
1.40001
1.40001
1.40001
1.40001
1.40001
1.40001
1.40001
1.40001
1.40001
1.40001
1.40001
1.40001
1.40001
1.40001
1.40001
1.40001
1.40001
1.40001
1.40001
1.40001
1.40001
1.40001
1.40001
1.40001
1.40001
1.40001
1.40001
1.40001
1.40001
1.40001
1.40001
1.40001
1.40001
1.40001
1.40001
1.40001
1.40001
1.40001
1.40001
1.40001
1.40001
1.40001
1.40001
1.40001
1.40001
1.40001
1.40001
1.40001
1.40001
1.40001
1.40001
1.40001
1.40001
1.40001
1.40001
1.40001
1.40001
1.40001
1.40001
1.40001
1.40001
1.40001
1.40001
1.40001
1.40001
1.40001
1.40001
1.40001
1.40001
1.40001
1.40001
1.40001
1.40001
1.40001
1.40001
1.40001
1.40001
1.40001
1.40001
1.40001
1.40001
1.40001
1.40001
1.40001
1.40001
1.40001
1.40001
1.40001
1.40001
1.40001
1.40001
1.40001
1.40001
1.40001
1.40001
1.40001
1.40001
1.40001
1.40001
1.40001
1.40001
1.40001
1.40001
1.40001
1.40001
1.40001
1.40001
1.40001
1.40001
1.40001
1.40001
1.40001
1.40001
1.40001
1.40001
1.40001
1.40001
1.40001
1.40001
1.40001
1.40001
1.40001
1.40001
1.40001
1.40001
1.40001
1.40001
1.40001
1.40001
1.40001
1.40001
1.40001
1.40001
1.40001
1.40001
1.40001
1.40001
1.40001
1.40001
1.40001
1.40001
1.40001
1.40001
1.40001
1.40001
1.40001
1.40001
1.40001
1.40001
1.40001
1.40001
1.40001
1.40001
1.40001
1.40001
1.40001
1.40001
1.40001
1.40001
1.40001
1.40001
1.40001
1.40001
1.40001
1.40001
1.40001
1.40001
1.40001
1.40001
1.40001
1.40001
1.40001
1.40001
1.40001
1.40001
1.40001
1.40001
1.40001
1.40001
1.40001
1.40001
1.40001
1.40001
1.40001
1.40001
1.40001
1.40001
1.40001
1.40001
1.40001
1.40001
1.40001
1.40001
1.40001
1.40001
1.40001
1.40001
1.40001
1.40001
1.40001
1.40001
1.40001
1.40001
1.40001
1.40001
1.40001
1.40001
1.40001
1.40001
1.40001
1.40001
1.40001
1.40001
1.40001
1.40001
1.40001
1.40001
1.40001
1.40001
1.40001
1.40001
1.40001
1.40001
1.40001
1.40001
1.40001
1.40001
1.40001
1.40001
1.40001
1.40001
1.40001
1.40001
1.40001
1.40001
1.40001
1.40001
1.40001
1.40001
1.40001
1.40001
1.40001
1.40001
1.40001
1.40001
1.40001
1.40001
1.40001
1.40001
1.40001
1.40001
1.40001
1.40001
1.40001
1.40001
1.40001
1.40001
1.40001
1.40001
1.40001
1.40001
1.40001
1.40001
1.40001
1.40001
1.40001
1.40001
1.40001
1.40001
1.40001
1.40001
1.40001
1.40001
1.40001
1.40001
1.40001
1.40001
1.40001
1.40001
1.40001
1.40001
1.40001
1.40001
1.40001
1.40001
1.40001
1.40001
1.40001
1.40001
1.40001
1.40001
1.40001
1.40001
1.40001
1.40001
1.40001
1.40001
1.40001
1.40001
1.40001
1.40001
1.40001
1.40001
1.40001
1.40001
1.40001
1.40001
1.40001
1.40001
1.40001
1.40001
1.40001
1.40001
1.40001
1.40001
1.40001
1.40001
1.40001
1.40001
1.40001
1.40001
1.40001
1.40001
1.40001
1.40001
1.40001
1.40001
1.40001
1.40001
1.40001
1.40001
1.40001
1.40001
1.40001
1.40001
1.40001
1.40001
1.40001
1.40001
1.40001
1.40001
1.40001
1.40001
1.40001
1.40001
1.40001
1.40001
1.40001
1.40001
1.40001
1.40001
1.40001
1.40001
1.40001
1.40001
1.40001
1.40001
1.40001
1.40001
1.40001
1.40001
1.40001
1.40001
1.40001
1.40001
1.40001
1.40001
1.40001
1.40001
1.40001
1.40001
1.40001
1.40001
1.40001
1.40001
1.40001
1.40001
1.40001
1.40001
1.40001
1.40001
1.40001
1.40001
1.40001
1.40001
1.40001
1.40001
1.40001
1.40001
1.40001
1.40001
1.40001
1.40001
1.40001
1.40001
1.40001
1.40001
1.40001
1.40001
1.40001
1.40001
1.40001
1.40001
1.40001
1.40001
1.40001
1.40001
1.40001
1.40001
1.40001
1.40001
1.40001
1.40001
1.40001
1.40001
1.40001
1.40001
1.40001
1.40001
1.40001
1.40001
1.40001
1.40001
1.40001
1.40001
1.40001
1.40001
1.40001
1.40001
1.40001
1.40001
1.40001
1.40001
1.40001
1.40001
1.40001
1.40001
1.40001
1.40001
1.40001
1.40001
1.40001
1.40001
1.40001
1.40001
1.40001
1.40001
1.40001
1.40001
1.40001
1.40001
1.40001
1.40001
1.40001
1.40001
1.40001
1.40001
1.40001
1.40001
1.40001
1.40001
1.40001
1.40001
1.40001
1.40001
1.40001
1.40001
1.40001
1.40001
1.40001
1.40001
1.40001
1.40001
1.40001
1.40001
1.40001
1.40001
1.40001
1.40001
1.40001
1.40001
1.40001
1.40001
1.40001
1.40001
1.40001
1.40001
1.40001
1.40001
1.40001
1.40001
1.40001
1.40001
1.40001
1.40001
1.40001
1.40001
1.40001
1.40001
1.40001
1.40001
1.40001
1.40001
1.40001
1.40001
1.40001
1.40001
1.40001
1.40001
1.40001
1.40001
1.40001
1.40001
1.40001
1.40001
1.40001
1.40001
1.40001
1.40001
1.40001
1.40001
1.40001
1.40001
1.40001
1.40001
1.40001
1.40001
1.40001
1.40001
1.40001
1.40001
1.40001
1.40001
1.40001
1.40001
1.40001
1.40001
1.40001
1.40001
1.40001
1.40001
1.40001
1.40001
1.40001
1.40001
1.40001
1.40001
1.40001
1.40001
1.40001
1.40001
1.40001
1.40001
1.40001
1.40001
1.40001
1.40001
1.40001
1.40001
1.40001
1.40001
1.40001
1.40001
1.40001
1.40001
1.40001
1.40001
1.40001
1.40001
1.40001
1.40001
1.40001
1.40001
1.40001
1.40001
1.40001
1.40001
1.40001
1.40001
1.40001
1.40001
1.40001
1.40001
1.40001
1.40001
1.40001
1.40001
1.40001
1.40001
1.40001
1.40001
1.40001
1.40001
1.40001
1.40001
1.40001
1.40001
1.40001
1.40001
1.40001
1.40001
1.40001
1.40001
1.40001
1.40001
1.40001
1.40001
1.40001
1.40001
1.40001
1.40001
1.40001
1.40001
1.40001
1.40001
1.40001
1.40001
1.40001
1.40001
1.40001
1.40001
1.40001
1.40001
1.40001
1.40001
1.40001
1.40001
1.40001
1.40001
1.40001
1.40001
1.40001
1.40001
1.40001
1.40001
1.40001
1.40001
1.40001
1.40001
1.40001
1.40001
1.40001
1.40001
1.40001
1.40001
1.40001
1.40001
1.40001
1.40001
1.40001
1.40001
1.40001
1.40001
1.40001
1.40001
1.40001
1.40001
1.40001
1.40001
1.40001
1.40001
1.40001
1.40001
1.40001
1.40001
1.40001
1.40001
1.40001
1.40001
1.40001
1.40001
1.40001
1.40001
1.40001
1.40001
1.40001
1.40001
1.40001
1.40001
1.40001
1.40001
1.40001
1.40001
1.40001
1.40001
1.40001
1.40001
1.40001
1.40001
1.40001
1.40001
1.40001
1.40001
1.40001
1.40001
1.40001
1.40001
1.40001
1.40001
1.40001
1.40001
1.40001
1.40001
1.40001
1.40001
1.40001
1.40001
1.40001
1.40001
1.40001
1.40001
1.40001
1.40001
1.40001
1.40001
1.40001
1.40001
1.40001
1.40001
1.40001
1.40001
1.40001
1.40001
1.40001
1.40001
1.40001
1.40001
1.40001
1.40001
1.40001
1.40001
1.40001
1.40001
1.40001
1.40001
1.40001
1.40001
1.40001
1.40001
1.40001
1.40001
1.40001
1.40001
1.40001
1.40001
1.40001
1.40001
1.40001
1.40001
1.40001
1.40001
1.40001
1.40001
1.40001
1.40001
1.40001
1.40001
1.40001
1.40001
1.40001
1.40001
1.40001
1.40001
1.40001
1.40001
1.40001
1.40001
1.40001
1.40001
1.40001
1.40001
1.40001
1.40001
1.40001
1.40001
1.40001
1.40001
1.40001
1.40001
1.40001
1.40001
1.40001
1.40001
1.40001
1.40001
1.40001
1.40001
1.40001
1.40001
1.40001
1.40001
1.40001
1.40001
1.40001
1.40001
1.40001
1.40001
1.40001
1.40001
1.40001
1.40001
1.40001
1.40001
1.40001
1.40001
1.40001
1.40001
1.40001
1.40001
1.40001
1.40001
1.40001
1.40001
1.40001
1.40001
1.40001
1.40001
1.40001
1.40001
1.40001
1.40001
1.40001
1.40001
1.40001
1.40001
1.40001
1.40001
1.40001
1.40001
1.40001
1.40001
1.40001
1.40001
1.40001
1.40001
1.40001
1.40001
1.40001
1.40001
1.40001
1.40001
1.40001
1.40001
1.40001
1.40001
1.40001
1.40001
1.40001
1.40001
1.40001
1.40001
1.40001
1.40001
1.40001
1.40001
1.40001
1.40001
1.40001
1.40001
1.40001
1.40001
1.40001
1.40001
1.40001
1.40001
1.40001
1.40001
1.40001
1.40001
1.40001
1.40001
1.40001
1.40001
1.40001
1.40001
1.40001
1.40001
1.40001
1.40001
1.40001
1.40001
1.40001
1.40001
1.40001
1.40001
1.40001
1.40001
1.40001
1.40001
1.40001
1.40001
1.40001
1.40001
1.40001
1.40001
1.40001
1.40001
1.40001
1.40001
1.40001
1.40001
1.40001
1.40001
1.40001
1.40001
1.40001
1.40001
1.40001
1.40001
1.40001
1.40001
1.40001
1.40001
1.40001
1.40001
1.40001
1.40001
1.40001
1.40001
1.40001
1.40001
1.40001
1.40001
1.40001
1.40001
1.40001
1.40001
1.40001
1.40001
1.40001
1.40001
1.40001
1.40001
1.40001
1.40001
1.40001
1.40001
1.40001
1.40001
1.40001
1.40001
1.40001
1.40001
1.40001
1.40001
1.40001
1.40001
1.40001
1.40001
1.40001
1.40001
1.40001
1.40001
1.40001
1.40001
1.40001
1.40001
1.40001
1.40001
1.40001
1.40001
1.40001
1.40001
1.40001
1.40001
1.40001
1.40001
1.40001
1.40001
1.40001
1.40001
1.40001
1.40001
1.40001
1.40001
1.40001
1.40001
1.40001
1.40001
1.40001
1.40001
1.40001
1.40001
1.40001
1.40001
1.40001
1.40001
1.40001
1.40001
1.40001
1.40001
1.40001
1.40001
1.40001
1.40001
1.40001
1.40001
1.40001
1.40001
1.40001
1.40001
1.40001
1.40001
1.40001
1.40001
1.40001
1.40001
1.40001
1.40001
1.40001
1.40001
1.40001
1.40001
1.40001
1.40001
1.40001
1.40001
1.40001
1.40001
1.40001
1.40001
1.40001
1.40001
1.40001
1.40001
1.40001
1.40001
1.40001
1.40001
1.40001
1.40001
1.40001
1.40001
1.40001
1.40001
1.40001
1.40001
1.40001
1.40001
1.40001
1.40001
1.40001
1.40001
1.40001
1.40001
1.40001
1.40001
1.40001
1.40001
1.40001
1.40001
1.40001
1.40001
1.40001
1.40001
1.40001
1.40001
1.40024
1.41237
1.51955
2.04115
3.28873
3.58959
3.66969
3.71629
3.71163
3.69534
3.7014
3.70257
3.70534
3.68896
3.64278
3.6211
3.62594
3.62141
3.5977
3.58406
3.57885
3.56352
3.54182
3.52722
3.52422
3.51447
3.49612
3.47869
3.45497
3.43652
3.43273
3.43077
3.42252
3.41462
3.40472
3.38433
3.35721
3.33422
3.32449
3.32138
3.31616
3.31172
3.30636
3.29079
3.26219
3.23769
3.22431
3.21279
3.20016
3.18543
3.1711
3.16632
3.16545
3.16665
3.16395
3.15721
3.15884
3.17787
3.20885
3.24079
3.28499
3.32415
3.33263
3.33201
3.32394
3.29627
3.2533
3.22551
3.21576
3.21448
3.2283
3.24157
3.23502
3.21928
3.19769
3.16468
3.12184
3.09037
3.07205
3.06698
3.07173
3.08809
3.09207
3.08104
3.05957
3.02793
2.98108
2.94443
2.92892
2.92555
2.92879
2.94416
2.95041
2.94334
2.9268
2.89631
2.84566
2.80122
2.78447
2.77867
2.77456
2.77275
2.77742
2.79075
2.80067
2.79787
2.78356
2.75384
2.70354
2.6566
2.63643
2.63018
2.62951
2.64344
2.67976
2.69881
2.69456
2.67982
2.64955
2.58551
2.5238
2.50231
2.49613
2.49427
2.49951
2.52792
2.56677
2.57576
2.56858
2.54787
2.50368
2.4452
2.42274
2.41719
2.41532
2.42025
2.42528
2.42174
2.41789
2.41373
2.40123
2.38009
2.37224
2.36789
2.36283
2.35632
2.3476
2.33527
2.3191
2.30643
2.30384
2.3063
2.31055
2.3072
2.29378
2.26903
2.2403
2.22546
2.22052
2.21779
2.21356
2.20684
2.19445
2.18223
2.17984
2.17996
2.18154
2.1783
2.17484
2.18078
2.27063
2.73507
3.54651
4.19113
4.30187
4.31847
4.31438
4.32659
4.32815
4.3176
1.40001
1.40001
1.40001
1.40001
1.40001
1.40001
1.40001
1.40001
1.40001
1.40001
1.40001
1.40001
1.40001
1.40001
1.40001
1.40001
1.40001
1.40001
1.40001
1.40001
1.40001
1.40001
1.40001
1.40001
1.40001
1.40001
1.40001
1.40001
1.40001
1.40001
1.40001
1.40001
1.40001
1.40001
1.40001
1.40001
1.40001
1.40001
1.40001
1.40001
1.40001
1.40001
1.40001
1.40001
1.40001
1.40001
1.40001
1.40001
1.40001
1.40001
1.40001
1.40009
1.40319
1.46639
2.09385
3.08953
3.49282
3.72403
3.77408
3.7535
3.7463
3.74253
3.71759
3.66574
3.63864
3.63617
3.63314
3.61844
3.61039
3.60546
3.58267
3.56229
3.55108
3.55156
3.54685
3.52646
3.50642
3.48894
3.46623
3.45677
3.45422
3.44688
3.43685
3.42612
3.40747
3.38253
3.36091
3.35199
3.34841
3.34207
3.33662
3.33008
3.31484
3.28984
3.25829
3.24242
3.23207
3.22188
3.21129
3.20139
3.19647
3.19598
3.19274
3.18022
3.15854
3.1445
3.14477
3.15407
3.17809
3.21788
3.27796
3.32174
3.32854
3.32845
3.31283
3.2772
3.25209
3.24343
3.24275
3.25542
3.26425
3.25642
3.24029
3.21749
3.18272
3.14538
3.11994
3.106
3.10314
3.11238
3.12702
3.12376
3.10905
3.08617
3.05303
3.00726
2.97482
2.96077
2.95792
2.96372
2.98064
2.98438
2.97517
2.95538
2.92322
2.87103
2.8261
2.80784
2.80245
2.79972
2.80124
2.81225
2.82814
2.83376
2.82778
2.81002
2.77744
2.72321
2.67811
2.65956
2.65441
2.65411
2.66985
2.70689
2.72405
2.71911
2.70329
2.67081
2.60375
2.54361
2.52335
2.51769
2.51595
2.52269
2.5541
2.59384
2.60197
2.59438
2.57334
2.52753
2.465
2.44015
2.43383
2.43134
2.43389
2.44873
2.45338
2.45029
2.44644
2.4323
2.40377
2.38708
2.38106
2.37579
2.36981
2.3624
2.35236
2.33928
2.32997
2.32799
2.33192
2.33499
2.32937
2.31273
2.28517
2.257
2.24303
2.23825
2.23544
2.23174
2.22611
2.21547
2.20247
2.19918
2.19855
2.19882
2.19745
2.19458
2.21635
2.4063
3.02289
3.86058
4.25842
4.33267
4.34608
4.35735
4.37342
4.37097
4.35709
4.33654
1.40001
1.40001
1.40001
1.40001
1.40001
1.40001
1.40001
1.40001
1.40001
1.40001
1.40001
1.40001
1.40001
1.40001
1.40001
1.40001
1.40001
1.40001
1.40001
1.40001
1.40001
1.40001
1.40001
1.40001
1.40001
1.40001
1.40001
1.40001
1.40001
1.40001
1.40001
1.40001
1.40001
1.40001
1.40001
1.40001
1.40001
1.40001
1.40001
1.40001
1.40001
1.40001
1.40001
1.40001
1.40001
1.40001
1.40001
1.40001
1.40001
1.40001
1.40001
1.40001
1.40002
1.40187
1.47513
2.08197
2.88953
3.50916
3.79573
3.80057
3.76127
3.71862
3.68023
3.66382
3.65057
3.63785
3.63759
3.63493
3.63092
3.60413
3.58254
3.57547
3.58024
3.57885
3.55733
3.5337
3.52115
3.50638
3.48594
3.47881
3.47252
3.46003
3.44736
3.43019
3.40707
3.38717
3.37999
3.37612
3.36818
3.36097
3.3537
3.33803
3.31412
3.28258
3.26168
3.25205
3.24449
3.23783
3.23269
3.23032
3.22954
3.22234
3.20456
3.17453
3.14704
3.14254
3.14267
3.14855
3.17094
3.2069
3.26552
3.30655
3.31377
3.31062
3.28901
3.27144
3.26592
3.26938
3.28313
3.28732
3.27821
3.26102
3.23601
3.20018
3.16847
3.14735
3.13755
3.13676
3.14967
3.15887
3.15083
3.13368
3.10998
3.07458
3.03321
3.00606
2.99405
2.99213
3.00157
3.01759
3.01685
3.00439
2.98225
2.94909
2.89619
2.85313
2.83492
2.83
2.82849
2.83489
2.85185
2.8657
2.86546
2.85583
2.83514
2.80087
2.74446
2.70107
2.68378
2.67931
2.67961
2.69717
2.73476
2.74994
2.74436
2.72738
2.6924
2.62245
2.56417
2.54494
2.53986
2.53831
2.54662
2.58097
2.62084
2.62754
2.61957
2.5983
2.55105
2.48499
2.45801
2.45121
2.44859
2.45042
2.4687
2.48549
2.48486
2.4797
2.46185
2.42787
2.40146
2.39302
2.38756
2.38182
2.37528
2.3678
2.3594
2.35395
2.35373
2.35995
2.36082
2.35244
2.33162
2.29953
2.27264
2.26118
2.25762
2.25501
2.25126
2.24658
2.23817
2.22398
2.21838
2.21731
2.21617
2.21511
2.21733
2.26532
2.60606
3.38947
4.07759
4.30584
4.38259
4.40024
4.41315
4.42108
4.41384
4.39741
4.37169
4.3335
1.40001
1.40001
1.40001
1.40001
1.40001
1.40001
1.40001
1.40001
1.40001
1.40001
1.40001
1.40001
1.40001
1.40001
1.40001
1.40001
1.40001
1.40001
1.40001
1.40001
1.40001
1.40001
1.40001
1.40001
1.40001
1.40001
1.40001
1.40001
1.40001
1.40001
1.40001
1.40001
1.40001
1.40001
1.40001
1.40001
1.40001
1.40001
1.40001
1.40001
1.40001
1.40001
1.40001
1.40001
1.40001
1.40001
1.40001
1.40001
1.40001
1.40001
1.40001
1.40001
1.40001
1.40002
1.40221
1.48198
1.88146
2.61685
3.61518
3.7727
3.72173
3.6912
3.68182
3.66482
3.64241
3.65387
3.6579
3.65448
3.6348
3.60684
3.59905
3.60608
3.60416
3.58054
3.55851
3.55043
3.54332
3.51824
3.50193
3.4968
3.48449
3.46945
3.4542
3.4329
3.41217
3.40571
3.4022
3.39333
3.38447
3.37641
3.36042
3.33684
3.30723
3.28437
3.2739
3.26893
3.26537
3.26392
3.26381
3.2606
3.24926
3.22835
3.19846
3.16268
3.14792
3.14518
3.14494
3.15106
3.17468
3.20261
3.23983
3.27019
3.28284
3.27845
3.27351
3.27643
3.28857
3.30761
3.31031
3.30111
3.28322
3.2561
3.21926
3.19063
3.17287
3.16586
3.16694
3.18138
3.18497
3.17392
3.15561
3.12973
3.09271
3.05828
3.03632
3.02722
3.02684
3.0399
3.05236
3.04675
3.03098
3.0078
2.97269
2.92088
2.88242
2.86509
2.86094
2.86141
2.8737
2.89318
2.90029
2.89484
2.88068
2.85877
2.82374
2.76737
2.72561
2.7093
2.70541
2.70643
2.72582
2.76355
2.77667
2.77025
2.75206
2.71454
2.64187
2.58553
2.56717
2.56264
2.56139
2.57141
2.60849
2.64783
2.65298
2.64452
2.6228
2.57406
2.50518
2.47639
2.46918
2.46663
2.46864
2.48955
2.51585
2.5181
2.51172
2.49087
2.45162
2.41519
2.40392
2.39856
2.39315
2.38782
2.38279
2.37893
2.37788
2.38375
2.39017
2.3881
2.37516
2.34948
2.31317
2.28845
2.27881
2.27642
2.27703
2.27474
2.27018
2.26251
2.24685
2.23749
2.23534
2.23431
2.23273
2.24258
2.34847
2.85961
3.73896
4.26662
4.36702
4.41174
4.4564
4.47188
4.46585
4.45524
4.43512
4.4043
4.36463
4.31021
1.40001
1.40001
1.40001
1.40001
1.40001
1.40001
1.40001
1.40001
1.40001
1.40001
1.40001
1.40001
1.40001
1.40001
1.40001
1.40001
1.40001
1.40001
1.40001
1.40001
1.40001
1.40001
1.40001
1.40001
1.40001
1.40001
1.40001
1.40001
1.40001
1.40001
1.40001
1.40001
1.40001
1.40001
1.40001
1.40001
1.40001
1.40001
1.40001
1.40001
1.40001
1.40001
1.40001
1.40001
1.40001
1.40001
1.40001
1.40001
1.40001
1.40001
1.40001
1.40001
1.40001
1.40001
1.40002
1.40192
1.43534
1.65441
2.62685
3.52148
3.60194
3.68384
3.69889
3.6731
3.67759
3.6838
3.68655
3.67356
3.63997
3.62351
3.62092
3.6199
3.60207
3.58547
3.58005
3.56864
3.54223
3.52335
3.51822
3.50921
3.49196
3.47798
3.46114
3.43799
3.42941
3.42617
3.4171
3.40662
3.39654
3.38132
3.35899
3.33178
3.30976
3.29868
3.29516
3.29413
3.29477
3.2943
3.28845
3.27414
3.25139
3.22048
3.18695
3.16463
3.15828
3.15607
3.15816
3.17055
3.18504
3.19492
3.20342
3.22192
3.23988
3.25014
3.26762
3.29259
3.32079
3.32687
3.32119
3.30607
3.27995
3.2418
3.21304
3.19752
3.19219
3.19495
3.20824
3.20741
3.19454
3.17478
3.14535
3.10907
3.08249
3.06505
3.05871
3.06038
3.0763
3.08329
3.07387
3.05566
3.03071
2.99248
2.94471
2.9127
2.89752
2.89436
2.89838
2.9162
2.93213
2.93142
2.92069
2.90302
2.88107
2.84548
2.79145
2.7524
2.7365
2.73311
2.73486
2.75641
2.79358
2.8044
2.79705
2.77728
2.73727
2.6622
2.60779
2.59029
2.58614
2.58533
2.59712
2.63678
2.67495
2.67862
2.66951
2.64701
2.59665
2.52544
2.49529
2.48776
2.48544
2.48809
2.51158
2.54408
2.5488
2.54111
2.51873
2.47507
2.42902
2.41476
2.40926
2.40451
2.40044
2.39778
2.39808
2.40489
2.4163
2.42089
2.41535
2.39709
2.36556
2.32616
2.30458
2.29652
2.29473
2.29761
2.30012
2.29663
2.28817
2.26967
2.25664
2.25263
2.25117
2.25163
2.27713
2.50047
3.1693
4.05596
4.35009
4.40754
4.44031
4.50084
4.52291
4.51041
4.49405
4.47029
4.43791
4.39594
4.34044
4.28791
1.40001
1.40001
1.40001
1.40001
1.40001
1.40001
1.40001
1.40001
1.40001
1.40001
1.40001
1.40001
1.40001
1.40001
1.40001
1.40001
1.40001
1.40001
1.40001
1.40001
1.40001
1.40001
1.40001
1.40001
1.40001
1.40001
1.40001
1.40001
1.40001
1.40001
1.40001
1.40001
1.40001
1.40001
1.40001
1.40001
1.40001
1.40001
1.40001
1.40001
1.40001
1.40001
1.40001
1.40001
1.40001
1.40001
1.40001
1.40001
1.40001
1.40001
1.40001
1.40001
1.40001
1.40001
1.40001
1.40001
1.40042
1.41317
1.63409
2.5986
3.25079
3.60396
3.76714
3.74224
3.73484
3.72466
3.69732
3.66052
3.64924
3.6424
3.62904
3.62348
3.61683
3.60903
3.58915
3.56192
3.54459
3.54142
3.53606
3.51668
3.49884
3.48709
3.46826
3.45276
3.44923
3.44095
3.42895
3.41752
3.40298
3.38173
3.35675
3.33651
3.32605
3.32344
3.32356
3.32415
3.32222
3.31381
3.29721
3.27341
3.24062
3.21022
3.18948
3.18173
3.17869
3.18055
3.1889
3.19283
3.19026
3.18182
3.17174
3.18316
3.20571
3.23388
3.27181
3.31715
3.33194
3.33159
3.32473
3.30425
3.26802
3.23824
3.22331
3.21905
3.22267
3.23255
3.22821
3.21377
3.19169
3.1584
3.12538
3.10503
3.09163
3.08712
3.09221
3.10908
3.1107
3.09863
3.07844
3.04994
3.00866
2.96866
2.94341
2.93094
2.92883
2.93791
2.959
2.96717
2.96015
2.94406
2.9246
2.90139
2.86529
2.81649
2.78119
2.76559
2.76264
2.76538
2.78922
2.82503
2.83282
2.82405
2.80295
2.76042
2.68356
2.63115
2.61435
2.61062
2.61023
2.62405
2.66616
2.70233
2.70445
2.69462
2.67111
2.61897
2.54589
2.51476
2.50712
2.50504
2.50849
2.53437
2.57065
2.57665
2.56824
2.54545
2.49813
2.44377
2.42622
2.42054
2.41661
2.41367
2.4132
2.41957
2.43522
2.44969
2.45086
2.44124
2.4179
2.37983
2.33891
2.32078
2.31427
2.31303
2.31801
2.32463
2.32208
2.31277
2.29155
2.27492
2.26987
2.26777
2.27196
2.32941
2.71662
3.54925
4.29436
4.41205
4.44122
4.47378
4.54504
4.57202
4.55916
4.53411
4.49996
4.46507
4.42556
4.3743
4.32317
4.29418
1.40001
1.40001
1.40001
1.40001
1.40001
1.40001
1.40001
1.40001
1.40001
1.40001
1.40001
1.40001
1.40001
1.40001
1.40001
1.40001
1.40001
1.40001
1.40001
1.40001
1.40001
1.40001
1.40001
1.40001
1.40001
1.40001
1.40001
1.40001
1.40001
1.40001
1.40001
1.40001
1.40001
1.40001
1.40001
1.40001
1.40001
1.40001
1.40001
1.40001
1.40001
1.40001
1.40001
1.40001
1.40001
1.40001
1.40001
1.40001
1.40001
1.40001
1.40001
1.40001
1.40001
1.40001
1.40001
1.40001
1.40001
1.40019
1.41134
1.6566
2.42158
3.11475
3.7035
3.79648
3.76037
3.70503
3.66984
3.66454
3.66466
3.63952
3.63897
3.64176
3.63155
3.60366
3.57602
3.56417
3.56382
3.56321
3.54203
3.52017
3.51109
3.50055
3.47898
3.47047
3.46544
3.45305
3.43969
3.42516
3.40592
3.38193
3.36474
3.35586
3.35245
3.35155
3.35064
3.34726
3.33694
3.3195
3.29478
3.26101
3.23291
3.21474
3.20864
3.2072
3.21152
3.21698
3.21389
3.20363
3.18591
3.16202
3.15712
3.16703
3.18984
3.22561
3.28166
3.32381
3.3311
3.3321
3.32218
3.2918
3.26473
3.25178
3.24833
3.25214
3.25683
3.24934
3.23291
3.20806
3.17202
3.14281
3.12586
3.1158
3.11314
3.12229
3.13807
3.13537
3.12131
3.09898
3.06513
3.0232
2.99245
2.97265
2.96375
2.96345
2.97845
2.99855
2.99921
2.98715
2.96709
2.94472
2.91785
2.88266
2.84294
2.8118
2.79694
2.79401
2.79808
2.82453
2.8572
2.86127
2.85083
2.8284
2.78344
2.70562
2.6555
2.63968
2.63614
2.63649
2.65276
2.69694
2.73047
2.73067
2.71985
2.69524
2.64113
2.56661
2.5349
2.52712
2.52539
2.52977
2.55786
2.59636
2.60266
2.59388
2.57085
2.52073
2.46015
2.43931
2.4333
2.43005
2.42809
2.43068
2.44489
2.46858
2.48205
2.47988
2.46517
2.43712
2.39185
2.35257
2.3373
2.33204
2.33136
2.33882
2.34897
2.34719
2.33663
2.31398
2.29272
2.28669
2.28442
2.29647
2.42641
2.98816
3.91692
4.45538
4.48048
4.49224
4.5175
4.59234
4.61583
4.60402
4.57771
4.5401
4.50014
4.45699
4.4058
4.35738
4.33072
4.32093
1.40001
1.40001
1.40001
1.40001
1.40001
1.40001
1.40001
1.40001
1.40001
1.40001
1.40001
1.40001
1.40001
1.40001
1.40001
1.40001
1.40001
1.40001
1.40001
1.40001
1.40001
1.40001
1.40001
1.40001
1.40001
1.40001
1.40001
1.40001
1.40001
1.40001
1.40001
1.40001
1.40001
1.40001
1.40001
1.40001
1.40001
1.40001
1.40001
1.40001
1.40001
1.40001
1.40001
1.40001
1.40001
1.40001
1.40001
1.40001
1.40001
1.40001
1.40001
1.40001
1.40001
1.40001
1.40001
1.40001
1.40001
1.40001
1.40017
1.41399
1.59417
2.0736
3.09874
3.73167
3.68805
3.67624
3.67713
3.67276
3.64643
3.65399
3.66598
3.65854
3.62276
3.58955
3.57848
3.5813
3.58518
3.56361
3.54474
3.53806
3.53122
3.50917
3.49281
3.48985
3.48016
3.46493
3.44979
3.43116
3.40773
3.39148
3.38664
3.38102
3.37725
3.37471
3.37024
3.35832
3.34068
3.31518
3.2825
3.25675
3.24062
3.23613
3.23634
3.24343
3.24663
3.23912
3.22394
3.20082
3.16903
3.15542
3.15601
3.16344
3.18514
3.22279
3.27995
3.31728
3.32442
3.32393
3.30546
3.28587
3.27782
3.27868
3.28386
3.28209
3.27214
3.25364
3.22579
3.18837
3.16179
3.14619
3.13918
3.13819
3.15082
3.1638
3.15824
3.14212
3.11704
3.07786
3.03903
3.01546
3.00027
2.99443
2.99713
3.01777
3.03367
3.02899
3.01279
2.98934
2.96065
2.9295
2.89962
2.87067
2.8436
2.82969
2.82704
2.83303
2.86189
2.88933
2.88905
2.87668
2.85308
2.80554
2.72786
2.68136
2.66633
2.66316
2.66414
2.68368
2.72978
2.75909
2.75751
2.74517
2.71936
2.66311
2.58759
2.55584
2.54794
2.54645
2.55183
2.58194
2.62183
2.62822
2.61909
2.59544
2.54288
2.478
2.45458
2.44818
2.44535
2.44439
2.45166
2.47478
2.50308
2.51212
2.50618
2.48733
2.45405
2.40275
2.36732
2.35438
2.35032
2.35035
2.36076
2.37347
2.37222
2.36089
2.33648
2.31137
2.30288
2.30296
2.33281
2.59168
3.33256
4.24312
4.5457
4.53098
4.53226
4.57234
4.64583
4.65661
4.63869
4.60884
4.57316
4.53685
4.49585
4.44458
4.39249
4.36285
4.35352
4.35848
1.40001
1.40001
1.40001
1.40001
1.40001
1.40001
1.40001
1.40001
1.40001
1.40001
1.40001
1.40001
1.40001
1.40001
1.40001
1.40001
1.40001
1.40001
1.40001
1.40001
1.40001
1.40001
1.40001
1.40001
1.40001
1.40001
1.40001
1.40001
1.40001
1.40001
1.40001
1.40001
1.40001
1.40001
1.40001
1.40001
1.40001
1.40001
1.40001
1.40001
1.40001
1.40001
1.40001
1.40001
1.40001
1.40001
1.40001
1.40001
1.40001
1.40001
1.40001
1.40001
1.40001
1.40001
1.40001
1.40001
1.40001
1.40001
1.40001
1.40017
1.40693
1.47226
1.94585
3.12882
3.46668
3.62766
3.71285
3.69328
3.68551
3.69336
3.69108
3.65604
3.61476
3.59853
3.59331
3.59653
3.58541
3.57101
3.56795
3.56044
3.53696
3.51841
3.51655
3.51132
3.49373
3.47672
3.45935
3.4362
3.4185
3.41512
3.4097
3.40162
3.39597
3.38933
3.37815
3.36156
3.33627
3.30532
3.28105
3.26733
3.26413
3.26536
3.27295
3.2734
3.26325
3.24582
3.22193
3.18809
3.16439
3.15929
3.15923
3.16756
3.19358
3.22422
3.26502
3.29144
3.30122
3.29692
3.29206
3.29312
3.30286
3.31232
3.30803
3.29606
3.27644
3.24682
3.20884
3.18297
3.16888
3.16344
3.16417
3.17869
3.18765
3.17975
3.16217
3.13366
3.09072
3.05636
3.03714
3.02563
3.02185
3.02949
3.05425
3.06474
3.05618
3.03695
3.00864
2.97163
2.94061
2.91934
2.89849
2.87522
2.86292
2.86066
2.8699
2.90039
2.92004
2.91584
2.90108
2.87628
2.82544
2.74979
2.70813
2.69429
2.69131
2.69377
2.71744
2.76438
2.78814
2.78452
2.77039
2.74328
2.68502
2.60906
2.57766
2.56984
2.56844
2.57485
2.60702
2.64762
2.65392
2.64449
2.62002
2.56519
2.49715
2.47215
2.46545
2.46295
2.46345
2.47677
2.50876
2.53662
2.54007
2.53065
2.50842
2.46815
2.41365
2.38369
2.37257
2.36935
2.37051
2.38429
2.39866
2.39741
2.38471
2.35843
2.33025
2.31949
2.3233
2.39657
2.8265
3.71028
4.49084
4.61779
4.58279
4.57167
4.62121
4.69743
4.70084
4.67702
4.63941
4.59972
4.56653
4.53334
4.48839
4.43464
4.40195
4.39105
4.39448
4.42901
1.40001
1.40001
1.40001
1.40001
1.40001
1.40001
1.40001
1.40001
1.40001
1.40001
1.40001
1.40001
1.40001
1.40001
1.40001
1.40001
1.40001
1.40001
1.40001
1.40001
1.40001
1.40001
1.40001
1.40001
1.40001
1.40001
1.40001
1.40001
1.40001
1.40001
1.40001
1.40001
1.40001
1.40001
1.40001
1.40001
1.40001
1.40001
1.40001
1.40001
1.40001
1.40001
1.40001
1.40001
1.40001
1.40001
1.40001
1.40001
1.40001
1.40001
1.40001
1.40001
1.40001
1.40001
1.40001
1.40001
1.40001
1.40001
1.40001
1.40001
1.40004
1.40166
1.44914
1.98559
2.90145
3.40819
3.70397
3.75692
3.7443
3.71207
3.67248
3.63754
3.62627
3.61521
3.60344
3.60595
3.59939
3.59761
3.59033
3.56363
3.54332
3.54094
3.53886
3.52108
3.50114
3.48824
3.47124
3.44838
3.4421
3.43722
3.42563
3.41602
3.40726
3.39577
3.38116
3.35874
3.33051
3.30693
3.29553
3.29334
3.29449
3.29928
3.29653
3.28505
3.26745
3.24413
3.21302
3.18508
3.17415
3.17205
3.17598
3.19167
3.20627
3.21884
3.22992
3.24617
3.26124
3.27128
3.28956
3.31283
3.32901
3.32813
3.31862
3.30013
3.27132
3.23387
3.20729
3.19414
3.1898
3.19246
3.20627
3.21047
3.20077
3.18228
3.15063
3.10584
3.07493
3.05807
3.04967
3.04791
3.06101
3.0867
3.09184
3.0811
3.0601
3.02542
2.9815
2.95486
2.93957
2.92339
2.90461
2.89507
2.89376
2.90799
2.93812
2.94883
2.94097
2.92418
2.89717
2.842
2.77109
2.73541
2.72295
2.72036
2.72495
2.75396
2.80043
2.81702
2.81119
2.79524
2.76674
2.70597
2.63102
2.60071
2.59291
2.59164
2.59917
2.63365
2.67424
2.68007
2.67032
2.64494
2.58818
2.51785
2.49161
2.48496
2.48292
2.48578
2.50643
2.54502
2.56786
2.56655
2.55347
2.52742
2.47975
2.42567
2.40111
2.39188
2.38933
2.39227
2.40977
2.42431
2.42219
2.40805
2.37973
2.34861
2.33776
2.35076
2.50929
3.13345
4.08521
4.66065
4.66003
4.63085
4.6225
4.67593
4.74612
4.74387
4.71644
4.67111
4.62566
4.59501
4.56722
4.53032
4.48042
4.44387
4.43155
4.433
4.46449
4.49467
1.40001
1.40001
1.40001
1.40001
1.40001
1.40001
1.40001
1.40001
1.40001
1.40001
1.40001
1.40001
1.40001
1.40001
1.40001
1.40001
1.40001
1.40001
1.40001
1.40001
1.40001
1.40001
1.40001
1.40001
1.40001
1.40001
1.40001
1.40001
1.40001
1.40001
1.40001
1.40001
1.40001
1.40001
1.40001
1.40001
1.40001
1.40001
1.40001
1.40001
1.40001
1.40001
1.40001
1.40001
1.40001
1.40001
1.40001
1.40001
1.40001
1.40001
1.40001
1.40001
1.40001
1.40001
1.40001
1.40001
1.40001
1.40001
1.40001
1.40001
1.40001
1.40001
1.40125
1.45818
1.92531
2.63698
3.4087
3.76253
3.74243
3.68572
3.65074
3.64379
3.63641
3.61145
3.62074
3.62624
3.6232
3.619
3.58982
3.56656
3.56304
3.5607
3.54218
3.5221
3.51451
3.50594
3.48084
3.46558
3.46105
3.44963
3.43641
3.42572
3.4145
3.39911
3.38156
3.35766
3.33446
3.32527
3.32335
3.3234
3.32347
3.31755
3.30508
3.28762
3.26529
3.23826
3.21253
3.19901
3.19587
3.19858
3.20845
3.21094
3.20841
3.2019
3.19341
3.20567
3.22811
3.25777
3.29798
3.3301
3.33442
3.33263
3.32143
3.29597
3.26039
3.23467
3.2226
3.21894
3.22317
3.23421
3.23322
3.22208
3.20256
3.16924
3.12406
3.09532
3.08005
3.07392
3.07416
3.09219