/*--------------------------------*- C++ -*----------------------------------*\
  =========                 |
  \\      /  F ield         | OpenFOAM: The Open Source CFD Toolbox
   \\    /   O peration     | Website:  https://openfoam.org
    \\  /    A nd           | Version:  7
     \\/     M anipulation  |
\*---------------------------------------------------------------------------*/
FoamFile
{
    version     2.0;
    format      ascii;
    class       volVectorField;
    location    "4";
    object      U;
}
// * * * * * * * * * * * * * * * * * * * * * * * * * * * * * * * * * * * * * //

dimensions      [0 1 -1 0 0 0 0];

internalField   nonuniform List<vector> 
16192
(
(0.88388 -0.00815673 0)
(0.888731 -0.00786699 0)
(0.893329 -0.00616288 0)
(0.898956 -0.00443865 0)
(0.906449 -0.00315086 0)
(0.916853 -0.00269031 0)
(0.929051 -0.00311033 0)
(0.941986 -0.00484145 0)
(0.953433 -0.00698551 0)
(0.96074 -0.00798632 0)
(0.964715 -0.0069377 0)
(0.967231 -0.00450478 0)
(0.971004 -0.0020633 0)
(0.975532 -0.000227623 0)
(0.981179 0.000579966 0)
(0.987696 0.000590298 0)
(0.994725 -0.000259402 0)
(1.00248 -0.00228638 0)
(1.0103 -0.00452054 0)
(1.01653 -0.00571727 0)
(1.01941 -0.00574588 0)
(1.02048 -0.0046096 0)
(1.0208 -0.00297339 0)
(1.02063 -0.000971508 0)
(1.01978 0.00110663 0)
(1.01944 0.00243457 0)
(1.01993 0.00296357 0)
(1.02123 0.00328026 0)
(1.02429 0.00340248 0)
(1.02959 0.00311116 0)
(1.03627 0.00189095 0)
(1.04132 0.000295216 0)
(1.04275 -0.000513792 0)
(1.04243 -0.000633016 0)
(1.03993 -0.000345884 0)
(1.03533 0.00020566 0)
(1.03013 0.000996125 0)
(1.02607 0.00182046 0)
(1.0239 0.00259158 0)
(1.02309 0.00323424 0)
(1.0229 0.00360571 0)
(1.02331 0.00382896 0)
(1.02523 0.00388719 0)
(1.02823 0.00357841 0)
(1.03039 0.00275515 0)
(1.03047 0.00163714 0)
(1.02906 -0.00045678 0)
(1.0247 -0.00274418 0)
(1.02161 -0.00464538 0)
(1.024 -0.0055793 0)
(1.02889 -0.0064147 0)
(1.03692 -0.00674097 0)
(1.049 -0.00638585 0)
(1.06475 -0.00563016 0)
(1.08456 -0.00483846 0)
(1.10623 -0.00573903 0)
(1.12108 -0.00739162 0)
(1.12868 -0.00798134 0)
(1.13379 -0.00735337 0)
(1.13762 -0.00549868 0)
(1.14263 -0.00370481 0)
(1.14946 -0.00202481 0)
(1.15907 -0.000821594 0)
(1.17167 -0.000557549 0)
(1.18516 -0.00183932 0)
(1.19818 -0.00455771 0)
(1.20898 -0.00721278 0)
(1.21641 -0.00846415 0)
(1.22133 -0.0086671 0)
(1.22273 -0.00812746 0)
(1.22084 -0.00631703 0)
(1.21911 -0.00322847 0)
(1.21842 0.000251459 0)
(1.21958 0.00256636 0)
(1.22247 0.0033881 0)
(1.22737 0.00378411 0)
(1.23647 0.00378052 0)
(1.24918 0.00289794 0)
(1.25981 0.000441785 0)
(1.26513 -0.00171935 0)
(1.26798 -0.0023173 0)
(1.26918 -0.00240714 0)
(1.26671 -0.00195742 0)
(1.26332 -0.00100641 0)
(1.26322 -0.000470896 0)
(1.26522 -0.000565301 0)
(1.26771 -0.00104853 0)
(1.27112 -0.00181061 0)
(1.27444 -0.00235545 0)
(1.27669 -0.00239812 0)
(1.27804 -0.00172476 0)
(1.27907 -0.000792965 0)
(1.27985 0.000162029 0)
(1.27994 0.0010995 0)
(1.27952 0.00183132 0)
(1.2796 0.00209376 0)
(1.28028 0.00209049 0)
(1.28184 0.00195219 0)
(1.28495 0.0015153 0)
(1.28951 0.00053529 0)
(1.29555 -0.000899134 0)
(1.30113 -0.00217859 0)
(1.30354 -0.00229617 0)
(1.30458 -0.00157868 0)
(1.30417 -0.000239187 0)
(1.30195 0.00132966 0)
(1.29878 0.00251338 0)
(1.29718 0.00286119 0)
(1.29771 0.0027399 0)
(1.29912 0.00199268 0)
(1.30248 0.000474503 0)
(1.30759 -0.00141297 0)
(1.31244 -0.00265048 0)
(1.31483 -0.00270238 0)
(1.31519 -0.00170237 0)
(1.31246 0.000605411 0)
(1.30781 0.0030568 0)
(1.30311 0.00456697 0)
(1.30093 0.00500534 0)
(1.30068 0.00503139 0)
(1.30181 0.00452618 0)
(1.3052 0.00293296 0)
(1.31026 7.03486e-05 0)
(1.31515 -0.00271397 0)
(1.31822 -0.00391595 0)
(1.31974 -0.0040017 0)
(1.31925 -0.00288511 0)
(1.3185 -0.000991701 0)
(1.31851 0.000974862 0)
(1.32024 0.00173246 0)
(1.32328 0.00163265 0)
(1.3285 0.00074023 0)
(1.33639 -0.00203016 0)
(1.34882 -0.00581775 0)
(1.3634 -0.00922823 0)
(1.37359 -0.0108934 0)
(1.37985 -0.0105013 0)
(1.38254 -0.0077833 0)
(1.38409 -0.00347013 0)
(1.3865 0.000863064 0)
(1.38978 0.00323034 0)
(1.39375 0.00387172 0)
(1.39985 0.00363976 0)
(1.40786 0.0017206 0)
(1.41827 -0.0019755 0)
(1.42978 -0.00600244 0)
(1.43882 -0.00858613 0)
(1.44486 -0.00906099 0)
(1.4485 -0.00744291 0)
(1.44909 -0.00418559 0)
(1.45107 -0.000585543 0)
(1.45365 0.00192389 0)
(1.45684 0.0026318 0)
(1.46121 0.00260278 0)
(1.46673 0.00186 0)
(1.47198 -8.20166e-05 0)
(1.47653 -0.00187896 0)
(1.48038 -0.00269276 0)
(1.48344 -0.00267011 0)
(1.48491 -0.00185323 0)
(1.4877 -0.0011798 0)
(1.49109 -0.000792686 0)
(1.49536 -0.000531742 0)
(1.49921 -0.000461665 0)
(1.50208 -0.00053102 0)
(1.50436 -0.000573542 0)
(1.50622 -0.000439053 0)
(1.50663 0.000171032 0)
(1.50588 0.00108167 0)
(1.50573 0.00184068 0)
(1.50665 0.00204065 0)
(1.5081 0.00200809 0)
(1.51092 0.00146153 0)
(1.51454 -0.000379958 0)
(1.51724 -0.00240988 0)
(1.51862 -0.00325163 0)
(1.51862 -0.00354507 0)
(1.5146 -0.00231315 0)
(1.50769 0.000699972 0)
(1.50353 0.00423042 0)
(1.50289 0.00604654 0)
(1.50357 0.00665579 0)
(1.50675 0.00695436 0)
(1.51353 0.00676603 0)
(1.52282 0.00515273 0)
(1.53164 0.0016911 0)
(1.53718 -0.00238751 0)
(1.53958 -0.004578 0)
(1.54024 -0.00564965 0)
(1.53732 -0.00593012 0)
(1.52932 -0.00446365 0)
(1.51971 -0.00119552 0)
(1.51362 0.00208659 0)
(1.5116 0.00345406 0)
(1.51137 0.00370699 0)
(1.51184 0.00380642 0)
(1.51415 0.00386101 0)
(1.51829 0.00373148 0)
(1.52216 0.00316088 0)
(1.52371 0.00225753 0)
(1.52366 0.00160986 0)
(1.52257 0.00103431 0)
(1.51775 0.00077738 0)
(1.50855 0.00145728 0)
(1.50241 0.00286125 0)
(1.50194 0.00364932 0)
(1.50284 0.00396481 0)
(1.50504 0.00421292 0)
(1.51022 0.00415937 0)
(1.51942 0.00363941 0)
(1.53032 0.00276052 0)
(1.53777 0.0013371 0)
(1.54132 -0.000848581 0)
(1.54353 -0.00318842 0)
(1.54537 -0.00537736 0)
(1.54511 -0.00700278 0)
(1.54245 -0.00802416 0)
(1.5401 -0.00804934 0)
(1.54062 -0.00693093 0)
(1.54498 -0.00527531 0)
(1.55054 -0.00368048 0)
(1.55828 -0.00129507 0)
(1.57174 0.00131866 0)
(1.58808 0.00328099 0)
(1.59832 0.00421247 0)
(1.60288 0.00439323 0)
(1.60623 0.00442466 0)
(1.60882 0.00400405 0)
(1.61066 0.00199495 0)
(1.61274 -0.00117941 0)
(1.61389 -0.00359804 0)
(1.61475 -0.00622059 0)
(1.61882 -0.00729273 0)
(1.62457 -0.0084992 0)
(1.63291 -0.00928582 0)
(1.64345 -0.00814467 0)
(1.64991 -0.00629564 0)
(1.65505 -0.00466843 0)
(1.65837 -0.00250247 0)
(1.65953 -4.58854e-05 0)
(1.65871 0.00225585 0)
(1.65586 0.00388236 0)
(1.65149 0.00480343 0)
(1.64896 0.0053947 0)
(1.64955 0.00569703 0)
(1.65125 0.00587297 0)
(1.65361 0.00616153 0)
(1.65869 0.00611328 0)
(1.66951 0.00425385 0)
(1.6878 -0.000518328 0)
(1.70467 -0.00602297 0)
(1.71259 -0.0102764 0)
(1.72041 -0.0107135 0)
(0.886992 -0.0205334 0)
(0.897327 -0.0224082 0)
(0.90449 -0.0197625 0)
(0.910812 -0.0140016 0)
(0.917413 -0.00723189 0)
(0.924782 -0.00252564 0)
(0.932517 -0.00168514 0)
(0.940722 -0.00432371 0)
(0.949542 -0.0105841 0)
(0.959681 -0.0174893 0)
(0.969013 -0.0205593 0)
(0.975479 -0.0176857 0)
(0.980621 -0.0114173 0)
(0.98466 -0.00435894 0)
(0.988236 0.00118617 0)
(0.992089 0.00353353 0)
(0.996997 0.00332077 0)
(1.00317 0.00154623 0)
(1.00916 -0.00244225 0)
(1.0145 -0.00848001 0)
(1.01994 -0.013059 0)
(1.02406 -0.0139379 0)
(1.02618 -0.0122752 0)
(1.02695 -0.00917195 0)
(1.0267 -0.00511672 0)
(1.02589 -0.000391759 0)
(1.02574 0.0038734 0)
(1.02688 0.00709182 0)
(1.02916 0.00922225 0)
(1.03326 0.01003 0)
(1.03839 0.00893256 0)
(1.04246 0.0059702 0)
(1.04439 0.00309829 0)
(1.04454 0.000898143 0)
(1.04308 -0.000779808 0)
(1.0395 -0.000940484 0)
(1.03455 -0.000270873 0)
(1.0306 0.000421098 0)
(1.02895 0.00136472 0)
(1.02876 0.0026045 0)
(1.02927 0.00425157 0)
(1.03054 0.00646243 0)
(1.03271 0.00895216 0)
(1.03489 0.0102511 0)
(1.03584 0.00969697 0)
(1.0359 0.00793161 0)
(1.03381 0.00383355 0)
(1.03 -0.00356345 0)
(1.0299 -0.00958787 0)
(1.03377 -0.0134079 0)
(1.04041 -0.0166159 0)
(1.04993 -0.0183303 0)
(1.06219 -0.0182434 0)
(1.07687 -0.0169235 0)
(1.0931 -0.015412 0)
(1.10878 -0.0162476 0)
(1.12287 -0.020193 0)
(1.13492 -0.0226741 0)
(1.14213 -0.021973 0)
(1.14733 -0.0181487 0)
(1.15249 -0.0116815 0)
(1.15904 -0.00525815 0)
(1.1673 -0.000133904 0)
(1.17691 0.00236405 0)
(1.18785 0.00256843 0)
(1.19847 0.00034955 0)
(1.20712 -0.00489911 0)
(1.21362 -0.0117551 0)
(1.21857 -0.0174549 0)
(1.22229 -0.0208528 0)
(1.22542 -0.0209349 0)
(1.22708 -0.0169347 0)
(1.22715 -0.0103809 0)
(1.22744 -0.00305505 0)
(1.22952 0.00336447 0)
(1.23375 0.00815789 0)
(1.24045 0.0109522 0)
(1.25014 0.010519 0)
(1.25879 0.00760174 0)
(1.26431 0.00336705 0)
(1.26779 -0.0012748 0)
(1.26938 -0.00488744 0)
(1.26988 -0.00617178 0)
(1.26902 -0.00400274 0)
(1.26694 -0.000755227 0)
(1.26645 0.000298933 0)
(1.26827 -3.78036e-05 0)
(1.27063 -0.00142735 0)
(1.27343 -0.00377434 0)
(1.27678 -0.00588602 0)
(1.27995 -0.00664395 0)
(1.2822 -0.00566209 0)
(1.28361 -0.0039941 0)
(1.28425 -0.00190485 0)
(1.28391 0.000616192 0)
(1.2835 0.00293988 0)
(1.2841 0.00434112 0)
(1.28531 0.00507025 0)
(1.2875 0.00508107 0)
(1.29118 0.00465498 0)
(1.29598 0.00255565 0)
(1.30127 -0.00144845 0)
(1.30571 -0.0050434 0)
(1.30742 -0.00592411 0)
(1.30808 -0.00536501 0)
(1.30768 -0.00312735 0)
(1.30583 0.00109158 0)
(1.30285 0.0056042 0)
(1.3014 0.00743645 0)
(1.30241 0.00740078 0)
(1.30419 0.00586023 0)
(1.30711 0.00286486 0)
(1.31129 -0.00152155 0)
(1.31563 -0.00609008 0)
(1.31718 -0.00778905 0)
(1.31742 -0.00715255 0)
(1.31608 -0.00274441 0)
(1.31255 0.00447077 0)
(1.30775 0.011192 0)
(1.30541 0.0140785 0)
(1.30569 0.0143533 0)
(1.3072 0.0122467 0)
(1.31026 0.00762314 0)
(1.31432 0.000980455 0)
(1.31911 -0.00682763 0)
(1.32252 -0.0118042 0)
(1.32456 -0.013178 0)
(1.32674 -0.0110666 0)
(1.32795 -0.00601521 0)
(1.32839 -0.000196282 0)
(1.33054 0.00339693 0)
(1.33442 0.00442609 0)
(1.34112 0.00473618 0)
(1.35011 0.00127307 0)
(1.35922 -0.00736661 0)
(1.36978 -0.0187268 0)
(1.38109 -0.0258419 0)
(1.38878 -0.0255533 0)
(1.394 -0.0203762 0)
(1.39807 -0.0117336 0)
(1.40038 -0.00147549 0)
(1.40263 0.00726076 0)
(1.40638 0.0110374 0)
(1.41146 0.0112404 0)
(1.41827 0.00833019 0)
(1.425 0.00139687 0)
(1.43277 -0.00893029 0)
(1.44272 -0.0180022 0)
(1.45041 -0.0211697 0)
(1.4555 -0.0185144 0)
(1.45945 -0.0116311 0)
(1.46175 -0.00372735 0)
(1.46274 0.00363897 0)
(1.4646 0.00751937 0)
(1.46781 0.00756423 0)
(1.47129 0.00534221 0)
(1.4747 0.00123825 0)
(1.47879 -0.00345879 0)
(1.48355 -0.00700739 0)
(1.48761 -0.00734672 0)
(1.49111 -0.00482977 0)
(1.49438 -0.00146327 0)
(1.49752 0.000632326 0)
(1.50009 0.00112879 0)
(1.50238 0.000833776 0)
(1.50465 -0.000156623 0)
(1.50647 -0.0016198 0)
(1.50796 -0.00242387 0)
(1.50924 -0.00147368 0)
(1.50983 0.0010897 0)
(1.51026 0.00384664 0)
(1.51139 0.00554021 0)
(1.51289 0.00584729 0)
(1.51482 0.00472881 0)
(1.51618 0.00190033 0)
(1.5167 -0.00241544 0)
(1.51593 -0.00722322 0)
(1.51406 -0.0103856 0)
(1.51226 -0.00931273 0)
(1.51117 -0.00462516 0)
(1.51064 0.0021952 0)
(1.51168 0.00876989 0)
(1.51465 0.0144208 0)
(1.51971 0.0184238 0)
(1.52562 0.0192626 0)
(1.53001 0.0160039 0)
(1.53336 0.00955141 0)
(1.53612 0.00134006 0)
(1.53654 -0.00585582 0)
(1.5343 -0.0117458 0)
(1.53047 -0.0144897 0)
(1.52656 -0.0119699 0)
(1.52188 -0.00534144 0)
(1.51743 0.00161895 0)
(1.51598 0.00572911 0)
(1.51631 0.00798367 0)
(1.51776 0.00999567 0)
(1.52064 0.0110558 0)
(1.52344 0.0105614 0)
(1.52442 0.00898927 0)
(1.52432 0.00669148 0)
(1.52316 0.00349107 0)
(1.51969 0.000143051 0)
(1.51299 -0.00139271 0)
(1.50806 -0.000647562 0)
(1.50771 0.000898813 0)
(1.50897 0.00228773 0)
(1.51158 0.0040548 0)
(1.51671 0.00605546 0)
(1.52518 0.00734231 0)
(1.53526 0.00718423 0)
(1.54131 0.00592916 0)
(1.54398 0.00489536 0)
(1.54587 0.00315902 0)
(1.54606 7.62415e-06 0)
(1.54407 -0.00506866 0)
(1.54041 -0.0119407 0)
(1.54127 -0.016971 0)
(1.54472 -0.0184443 0)
(1.5493 -0.0185115 0)
(1.55562 -0.0170389 0)
(1.56526 -0.0139625 0)
(1.57992 -0.00848241 0)
(1.5954 -0.00142316 0)
(1.60415 0.00418287 0)
(1.60845 0.00763857 0)
(1.61147 0.0105619 0)
(1.61318 0.0128831 0)
(1.61381 0.0137378 0)
(1.61297 0.011177 0)
(1.61117 0.00473877 0)
(1.61206 -0.00135361 0)
(1.61564 -0.00598122 0)
(1.62072 -0.0113417 0)
(1.62967 -0.0164904 0)
(1.64383 -0.0202533 0)
(1.65492 -0.0209531 0)
(1.65975 -0.0196819 0)
(1.66386 -0.0167667 0)
(1.66654 -0.0127669 0)
(1.66743 -0.00688345 0)
(1.66511 0.00114152 0)
(1.65843 0.00938926 0)
(1.65325 0.0141949 0)
(1.65387 0.015661 0)
(1.65583 0.0163042 0)
(1.65862 0.0176087 0)
(1.6641 0.019756 0)
(1.67361 0.0214153 0)
(1.68562 0.0181849 0)
(1.69803 0.00887801 0)
(1.70754 -0.00468606 0)
(1.71192 -0.0137657 0)
(0.90663 -0.0221809 0)
(0.917719 -0.0248195 0)
(0.926623 -0.0253466 0)
(0.933724 -0.0238659 0)
(0.939778 -0.0210984 0)
(0.945546 -0.0176731 0)
(0.95112 -0.0145251 0)
(0.956763 -0.0130535 0)
(0.962388 -0.0136628 0)
(0.970968 -0.0165618 0)
(0.983002 -0.0193852 0)
(0.992845 -0.0195227 0)
(0.99879 -0.0173317 0)
(1.00271 -0.0139498 0)
(1.00577 -0.00936586 0)
(1.0076 -0.00475811 0)
(1.00995 -0.00206104 0)
(1.01324 -0.00217957 0)
(1.01702 -0.00471353 0)
(1.02226 -0.00783372 0)
(1.02907 -0.0105875 0)
(1.03597 -0.0124736 0)
(1.03984 -0.01258 0)
(1.04122 -0.011532 0)
(1.04161 -0.0089356 0)
(1.04105 -0.0049709 0)
(1.04031 -0.000337167 0)
(1.04049 0.0039966 0)
(1.04175 0.00738874 0)
(1.04365 0.00917612 0)
(1.04612 0.00928828 0)
(1.04912 0.00840114 0)
(1.05155 0.00692683 0)
(1.05225 0.00602233 0)
(1.05204 0.00528633 0)
(1.05069 0.00451655 0)
(1.04731 0.00468479 0)
(1.0442 0.00563322 0)
(1.04373 0.00657959 0)
(1.04436 0.00756788 0)
(1.04617 0.00862217 0)
(1.04908 0.00931305 0)
(1.05182 0.00930427 0)
(1.05336 0.00874903 0)
(1.05396 0.00756869 0)
(1.05314 0.00428097 0)
(1.05053 -0.000579883 0)
(1.0495 -0.00558438 0)
(1.05239 -0.0099437 0)
(1.05838 -0.0157125 0)
(1.06736 -0.0211644 0)
(1.07869 -0.0245181 0)
(1.09148 -0.0258981 0)
(1.10476 -0.0263184 0)
(1.11749 -0.0267287 0)
(1.12944 -0.0276434 0)
(1.14156 -0.0294568 0)
(1.15221 -0.0309432 0)
(1.1602 -0.0305232 0)
(1.16599 -0.0281749 0)
(1.17148 -0.0239911 0)
(1.17753 -0.0183692 0)
(1.18413 -0.0127215 0)
(1.19115 -0.00824639 0)
(1.19845 -0.006362 0)
(1.2053 -0.00731494 0)
(1.21195 -0.0100687 0)
(1.21865 -0.0136012 0)
(1.22489 -0.0169336 0)
(1.23022 -0.0190831 0)
(1.23419 -0.0202541 0)
(1.23692 -0.020498 0)
(1.23897 -0.0184893 0)
(1.24107 -0.0135059 0)
(1.24428 -0.00660874 0)
(1.24819 0.000997688 0)
(1.25266 0.00784547 0)
(1.25745 0.0114106 0)
(1.26195 0.0110218 0)
(1.26621 0.00804389 0)
(1.26937 0.00412688 0)
(1.27241 5.5683e-05 0)
(1.2747 -0.00307177 0)
(1.2755 -0.00470028 0)
(1.27502 -0.00470226 0)
(1.2741 -0.00384345 0)
(1.27471 -0.00334304 0)
(1.27676 -0.00318925 0)
(1.27932 -0.00327589 0)
(1.2825 -0.00348596 0)
(1.28691 -0.00355767 0)
(1.29052 -0.00325311 0)
(1.29209 -0.00273165 0)
(1.29272 -0.00190921 0)
(1.29256 -0.000387354 0)
(1.29185 0.00091965 0)
(1.29188 0.00172569 0)
(1.29311 0.00221302 0)
(1.29476 0.00279496 0)
(1.29704 0.00283308 0)
(1.30027 0.00209371 0)
(1.30506 0.000689149 0)
(1.31102 -0.000929866 0)
(1.31564 -0.00193989 0)
(1.31727 -0.00183962 0)
(1.3179 -0.00129711 0)
(1.31742 0.00028639 0)
(1.31419 0.00264984 0)
(1.30976 0.00482862 0)
(1.3084 0.00529487 0)
(1.30973 0.00506514 0)
(1.31167 0.00415074 0)
(1.31531 0.00171034 0)
(1.32045 -0.000960795 0)
(1.32612 -0.00215978 0)
(1.32927 -0.00121941 0)
(1.33006 0.000376511 0)
(1.32902 0.00374899 0)
(1.32493 0.00961953 0)
(1.31938 0.0150649 0)
(1.31658 0.0161297 0)
(1.31706 0.0153862 0)
(1.31856 0.0126049 0)
(1.32137 0.00712087 0)
(1.32568 0.00027248 0)
(1.33252 -0.0066209 0)
(1.3392 -0.0106833 0)
(1.34271 -0.0127396 0)
(1.34455 -0.0130259 0)
(1.34558 -0.01127 0)
(1.34593 -0.00767786 0)
(1.34765 -0.00500189 0)
(1.3521 -0.00489696 0)
(1.3571 -0.00713518 0)
(1.36312 -0.0118514 0)
(1.37351 -0.0184321 0)
(1.38804 -0.0255459 0)
(1.40111 -0.0286979 0)
(1.40908 -0.0265615 0)
(1.41424 -0.0217399 0)
(1.41843 -0.0148193 0)
(1.42025 -0.00588181 0)
(1.41839 0.00262364 0)
(1.41764 0.00553745 0)
(1.42063 0.00329081 0)
(1.42468 -0.00124956 0)
(1.43134 -0.00686944 0)
(1.44157 -0.0138683 0)
(1.45462 -0.0199835 0)
(1.46409 -0.0210515 0)
(1.46917 -0.0184592 0)
(1.47317 -0.0133138 0)
(1.47562 -0.00552158 0)
(1.47456 0.00282203 0)
(1.47125 0.00734162 0)
(1.47146 0.00600997 0)
(1.47421 0.00257328 0)
(1.47825 -0.00168108 0)
(1.48386 -0.00608323 0)
(1.49116 -0.0091789 0)
(1.4974 -0.00874055 0)
(1.50128 -0.00609364 0)
(1.50415 -0.00236024 0)
(1.50531 0.00138296 0)
(1.50535 0.00385955 0)
(1.50607 0.00397286 0)
(1.50771 0.00284944 0)
(1.51046 0.000968359 0)
(1.51308 -0.000136659 0)
(1.51463 -3.83817e-06 0)
(1.51611 0.00138434 0)
(1.51688 0.00313801 0)
(1.51654 0.00404343 0)
(1.51617 0.00315474 0)
(1.51613 0.000826533 0)
(1.51655 -0.00203002 0)
(1.51716 -0.00460105 0)
(1.51834 -0.00589137 0)
(1.52071 -0.00538414 0)
(1.5224 -0.00225959 0)
(1.52388 0.00336338 0)
(1.52533 0.0108862 0)
(1.52659 0.0179842 0)
(1.52785 0.0213808 0)
(1.52919 0.020699 0)
(1.53021 0.0167808 0)
(1.53136 0.0104091 0)
(1.53316 0.00281853 0)
(1.53509 -0.00499514 0)
(1.53587 -0.0102332 0)
(1.53609 -0.0120241 0)
(1.53572 -0.0115036 0)
(1.53349 -0.00837176 0)
(1.52959 -0.0017644 0)
(1.52642 0.00567209 0)
(1.52582 0.0106415 0)
(1.52688 0.0132259 0)
(1.52865 0.0144454 0)
(1.53045 0.0143747 0)
(1.53101 0.0137062 0)
(1.53057 0.0118401 0)
(1.5285 0.00878275 0)
(1.52485 0.00574999 0)
(1.52143 0.00421283 0)
(1.51967 0.00414825 0)
(1.5199 0.00436278 0)
(1.52121 0.0052122 0)
(1.5245 0.00635717 0)
(1.52995 0.00736479 0)
(1.53712 0.00732186 0)
(1.54418 0.00554597 0)
(1.54893 0.00312774 0)
(1.55191 0.000986847 0)
(1.55317 -0.00231188 0)
(1.55075 -0.00773274 0)
(1.54682 -0.0138428 0)
(1.54677 -0.0166694 0)
(1.5497 -0.0172434 0)
(1.55367 -0.0180139 0)
(1.55931 -0.018547 0)
(1.56716 -0.0176346 0)
(1.57826 -0.0144742 0)
(1.59336 -0.00956552 0)
(1.60674 -0.00498998 0)
(1.61317 -0.00198862 0)
(1.61792 0.000435043 0)
(1.62192 0.00370338 0)
(1.62346 0.00736646 0)
(1.62082 0.00878162 0)
(1.61523 0.00663115 0)
(1.6127 0.00216422 0)
(1.61429 -0.00144665 0)
(1.6171 -0.00478289 0)
(1.6215 -0.00854821 0)
(1.63118 -0.0127966 0)
(1.64673 -0.0173349 0)
(1.66041 -0.021295 0)
(1.66749 -0.0223939 0)
(1.67188 -0.0213798 0)
(1.67586 -0.0189959 0)
(1.6788 -0.014897 0)
(1.6792 -0.00835588 0)
(1.67437 0.00193726 0)
(1.66512 0.0144978 0)
(1.66096 0.0217485 0)
(1.66268 0.023515 0)
(1.66574 0.0241257 0)
(1.67044 0.0240799 0)
(1.67584 0.0228163 0)
(1.68211 0.018668 0)
(1.69059 0.0107702 0)
(1.70052 -0.00287452 0)
(1.70627 -0.0183901 0)
(0.953225 -0.0253738 0)
(0.961485 -0.0211441 0)
(0.968728 -0.0197764 0)
(0.974534 -0.0207557 0)
(0.97932 -0.0229875 0)
(0.983704 -0.0256335 0)
(0.988223 -0.0275837 0)
(0.992986 -0.0279151 0)
(0.998759 -0.0253943 0)
(1.00717 -0.0196577 0)
(1.01717 -0.0139595 0)
(1.02525 -0.0115438 0)
(1.03049 -0.0114831 0)
(1.03389 -0.0119868 0)
(1.03637 -0.0126162 0)
(1.03755 -0.0128402 0)
(1.03807 -0.0124715 0)
(1.03984 -0.0117503 0)
(1.04295 -0.0106468 0)
(1.0482 -0.00859388 0)
(1.05541 -0.00613475 0)
(1.0615 -0.00450037 0)
(1.06496 -0.00427219 0)
(1.06694 -0.00414862 0)
(1.06779 -0.00384882 0)
(1.06757 -0.00285171 0)
(1.06624 -0.0013222 0)
(1.06562 0.000159501 0)
(1.0661 0.0017403 0)
(1.06697 0.00368154 0)
(1.06844 0.00568722 0)
(1.07085 0.00689119 0)
(1.07356 0.00723736 0)
(1.07547 0.00735579 0)
(1.07634 0.00744479 0)
(1.07617 0.00754894 0)
(1.07444 0.00796214 0)
(1.0732 0.00916354 0)
(1.07375 0.0102686 0)
(1.0753 0.0109064 0)
(1.07825 0.010699 0)
(1.082 0.00926946 0)
(1.08563 0.00688839 0)
(1.08874 0.00407112 0)
(1.09098 0.00132279 0)
(1.09175 -0.00172678 0)
(1.09183 -0.00613635 0)
(1.0946 -0.00983761 0)
(1.09921 -0.0135855 0)
(1.1058 -0.018181 0)
(1.11441 -0.023144 0)
(1.12481 -0.0276862 0)
(1.13644 -0.0311364 0)
(1.14806 -0.0337821 0)
(1.15882 -0.0355325 0)
(1.16876 -0.0361313 0)
(1.17819 -0.0352311 0)
(1.18714 -0.0331547 0)
(1.19493 -0.0303219 0)
(1.20102 -0.0268914 0)
(1.2061 -0.0234606 0)
(1.21047 -0.0203612 0)
(1.21425 -0.0181544 0)
(1.2179 -0.0171435 0)
(1.22173 -0.0165892 0)
(1.22597 -0.0157482 0)
(1.23102 -0.0144494 0)
(1.2374 -0.0124071 0)
(1.24355 -0.0102295 0)
(1.24757 -0.00931137 0)
(1.25042 -0.00962539 0)
(1.25327 -0.0103282 0)
(1.25607 -0.0111749 0)
(1.25905 -0.0116493 0)
(1.26257 -0.0114425 0)
(1.26692 -0.00962245 0)
(1.27149 -0.00585908 0)
(1.27518 -0.000461509 0)
(1.27763 0.0053041 0)
(1.27905 0.00953344 0)
(1.28033 0.0113907 0)
(1.28215 0.0107884 0)
(1.28414 0.00693797 0)
(1.28556 0.00177487 0)
(1.28554 -0.00295228 0)
(1.28546 -0.00726634 0)
(1.28735 -0.00991926 0)
(1.29035 -0.0110223 0)
(1.29432 -0.0106082 0)
(1.29963 -0.00776951 0)
(1.30427 -0.0035901 0)
(1.3068 -0.00051874 0)
(1.3078 0.00170229 0)
(1.30753 0.00341515 0)
(1.30625 0.00384872 0)
(1.30485 0.00238092 0)
(1.30513 0.000599308 0)
(1.30675 -0.000565577 0)
(1.30888 -0.0014376 0)
(1.31123 -0.00129245 0)
(1.31451 -8.89408e-05 0)
(1.31986 0.0017086 0)
(1.32646 0.0032843 0)
(1.33087 0.00376173 0)
(1.33233 0.00363476 0)
(1.33299 0.00326845 0)
(1.33266 0.00229722 0)
(1.32972 0.00132195 0)
(1.32493 0.000847112 0)
(1.3227 0.00137037 0)
(1.32361 0.00215661 0)
(1.3258 0.00265919 0)
(1.32955 0.00344529 0)
(1.33665 0.00431717 0)
(1.34476 0.00507992 0)
(1.34893 0.00576764 0)
(1.35027 0.00604551 0)
(1.35023 0.00622194 0)
(1.34766 0.00675214 0)
(1.34182 0.00814547 0)
(1.3373 0.0104466 0)
(1.33646 0.0108959 0)
(1.33773 0.0101271 0)
(1.34 0.00857895 0)
(1.34519 0.00547456 0)
(1.35386 0.000374204 0)
(1.36217 -0.0064984 0)
(1.36758 -0.0117188 0)
(1.37053 -0.0148328 0)
(1.3722 -0.016975 0)
(1.37267 -0.0182456 0)
(1.37292 -0.017479 0)
(1.37349 -0.0154538 0)
(1.37549 -0.0136882 0)
(1.37998 -0.0131626 0)
(1.38702 -0.0131883 0)
(1.40054 -0.0146951 0)
(1.41773 -0.0173662 0)
(1.4294 -0.0190672 0)
(1.4352 -0.019165 0)
(1.43891 -0.0186254 0)
(1.44161 -0.0167842 0)
(1.43994 -0.0124023 0)
(1.43426 -0.00610428 0)
(1.43124 -0.00145171 0)
(1.43354 -0.000426798 0)
(1.43721 -0.00107201 0)
(1.445 -0.00316022 0)
(1.45894 -0.00700143 0)
(1.47274 -0.0106471 0)
(1.48081 -0.0119927 0)
(1.48512 -0.0118752 0)
(1.48851 -0.0111897 0)
(1.48937 -0.00847772 0)
(1.48518 -0.00287908 0)
(1.4797 0.00268214 0)
(1.47896 0.00419742 0)
(1.48141 0.00318136 0)
(1.48553 0.000239414 0)
(1.49403 -0.00444453 0)
(1.50333 -0.00857987 0)
(1.50911 -0.0100684 0)
(1.51215 -0.00959588 0)
(1.51462 -0.0071598 0)
(1.51565 -0.00290812 0)
(1.51493 0.00230056 0)
(1.51413 0.00639053 0)
(1.5149 0.00755149 0)
(1.5166 0.00644719 0)
(1.51907 0.00393111 0)
(1.52087 0.00152745 0)
(1.522 -0.000499416 0)
(1.5224 -0.00156228 0)
(1.5219 -0.00132328 0)
(1.52131 -0.000806069 0)
(1.52174 -0.000872496 0)
(1.52326 -0.00101606 0)
(1.52645 -0.00049433 0)
(1.53072 0.000956215 0)
(1.53428 0.00319458 0)
(1.53691 0.00612782 0)
(1.53857 0.00887306 0)
(1.53886 0.011364 0)
(1.53667 0.0135819 0)
(1.53397 0.0135103 0)
(1.53311 0.0113847 0)
(1.53441 0.00909039 0)
(1.53618 0.00565002 0)
(1.53819 0.00164644 0)
(1.54096 -0.00123238 0)
(1.54387 -0.00210768 0)
(1.54541 -0.00172967 0)
(1.5456 -0.00112886 0)
(1.54438 0.000116866 0)
(1.54168 0.002942 0)
(1.53997 0.00672928 0)
(1.53997 0.0102354 0)
(1.54065 0.0124891 0)
(1.54135 0.0132413 0)
(1.54179 0.0132983 0)
(1.54136 0.013006 0)
(1.5395 0.0126674 0)
(1.53752 0.0120309 0)
(1.53641 0.0114875 0)
(1.53605 0.0116687 0)
(1.53622 0.0116554 0)
(1.53741 0.0108374 0)
(1.54041 0.00939667 0)
(1.54518 0.00758209 0)
(1.55085 0.00528266 0)
(1.55575 0.00170266 0)
(1.55925 -0.00342462 0)
(1.5617 -0.00850015 0)
(1.56248 -0.012924 0)
(1.5611 -0.0151363 0)
(1.5598 -0.015301 0)
(1.56192 -0.0146753 0)
(1.56484 -0.0136866 0)
(1.5686 -0.0119426 0)
(1.57451 -0.00995962 0)
(1.58327 -0.00793717 0)
(1.59519 -0.00554735 0)
(1.60915 -0.00405355 0)
(1.62061 -0.00491947 0)
(1.62649 -0.00639561 0)
(1.63068 -0.00704452 0)
(1.63455 -0.00746011 0)
(1.63565 -0.00712713 0)
(1.63092 -0.00515763 0)
(1.62306 -0.00240777 0)
(1.61897 -0.000136008 0)
(1.62005 0.00036244 0)
(1.62264 0.000129577 0)
(1.62653 -0.000656964 0)
(1.63616 -0.00254663 0)
(1.65208 -0.00627965 0)
(1.66652 -0.0122927 0)
(1.67535 -0.0174543 0)
(1.6812 -0.0201286 0)
(1.6856 -0.0200934 0)
(1.6889 -0.0188174 0)
(1.69163 -0.0159535 0)
(1.6916 -0.00991222 0)
(1.68506 0.00104652 0)
(1.67519 0.0136349 0)
(1.6705 0.0210523 0)
(1.67136 0.0228627 0)
(1.67438 0.0220966 0)
(1.67813 0.0188695 0)
(1.68224 0.0137233 0)
(1.68768 0.00760244 0)
(1.69334 -0.00210187 0)
(1.70224 -0.0126571 0)
(1.01838 -0.0344725 0)
(1.02499 -0.0302632 0)
(1.02892 -0.0276574 0)
(1.03153 -0.026631 0)
(1.03337 -0.0273128 0)
(1.03567 -0.029332 0)
(1.03913 -0.0314579 0)
(1.04422 -0.0328675 0)
(1.05195 -0.0315215 0)
(1.06195 -0.0263101 0)
(1.07022 -0.0200725 0)
(1.07504 -0.0162387 0)
(1.07792 -0.0143609 0)
(1.07969 -0.01366 0)
(1.08053 -0.0142972 0)
(1.08063 -0.0156334 0)
(1.0812 -0.0163385 0)
(1.08338 -0.0159832 0)
(1.08682 -0.0145793 0)
(1.09245 -0.0117926 0)
(1.09921 -0.0085571 0)
(1.10427 -0.00599951 0)
(1.10713 -0.00415372 0)
(1.1089 -0.0025575 0)
(1.1097 -0.000942964 0)
(1.10878 0.000279201 0)
(1.10614 0.00045449 0)
(1.10472 -0.000610325 0)
(1.10572 -0.00142554 0)
(1.10746 -0.00144879 0)
(1.11009 -0.000673794 0)
(1.11347 0.0012163 0)
(1.11637 0.00383433 0)
(1.11795 0.00579099 0)
(1.11884 0.00759969 0)
(1.11907 0.00936123 0)
(1.11881 0.0114035 0)
(1.11922 0.0139259 0)
(1.12083 0.0159231 0)
(1.12332 0.0173036 0)
(1.12673 0.017349 0)
(1.13107 0.0155242 0)
(1.1362 0.011087 0)
(1.14171 0.00399733 0)
(1.14679 -0.00462051 0)
(1.15159 -0.0125986 0)
(1.15685 -0.0180496 0)
(1.16219 -0.0220567 0)
(1.16743 -0.0254527 0)
(1.17292 -0.0280562 0)
(1.17905 -0.0300117 0)
(1.186 -0.0318496 0)
(1.19386 -0.0341937 0)
(1.20221 -0.0369538 0)
(1.21071 -0.0395704 0)
(1.21922 -0.041186 0)
(1.22774 -0.0410945 0)
(1.23604 -0.0392028 0)
(1.24286 -0.0362548 0)
(1.24731 -0.0334483 0)
(1.25011 -0.0310921 0)
(1.25186 -0.0288996 0)
(1.25241 -0.0276234 0)
(1.25324 -0.0274255 0)
(1.2558 -0.0273348 0)
(1.2596 -0.0264498 0)
(1.26537 -0.023276 0)
(1.27213 -0.017842 0)
(1.27627 -0.0130316 0)
(1.27846 -0.00946835 0)
(1.27988 -0.00629939 0)
(1.28092 -0.00466139 0)
(1.28185 -0.00519925 0)
(1.28333 -0.00724432 0)
(1.28616 -0.00929584 0)
(1.29015 -0.0112832 0)
(1.29525 -0.0124421 0)
(1.3 -0.0116734 0)
(1.30352 -0.00919876 0)
(1.30602 -0.00443026 0)
(1.30722 0.00196075 0)
(1.3067 0.00789148 0)
(1.30489 0.0109223 0)
(1.30299 0.00959851 0)
(1.3022 0.00505533 0)
(1.30342 0.000507126 0)
(1.30635 -0.00297936 0)
(1.31052 -0.00593596 0)
(1.31647 -0.00749782 0)
(1.32357 -0.00738386 0)
(1.32873 -0.00610547 0)
(1.3316 -0.00423224 0)
(1.3337 -0.0017095 0)
(1.33373 0.00128185 0)
(1.33021 0.00321089 0)
(1.32622 0.00264788 0)
(1.32614 0.000643805 0)
(1.32783 -0.00176558 0)
(1.33028 -0.00441051 0)
(1.33419 -0.00622085 0)
(1.34038 -0.00589344 0)
(1.34797 -0.00239292 0)
(1.35373 0.00224036 0)
(1.356 0.00483419 0)
(1.35664 0.00599026 0)
(1.35573 0.00603872 0)
(1.3532 0.00358961 0)
(1.34964 -0.000857825 0)
(1.34716 -0.00368599 0)
(1.34791 -0.00382511 0)
(1.35019 -0.00266941 0)
(1.35352 0.000371261 0)
(1.35886 0.00518581 0)
(1.36605 0.0104872 0)
(1.37208 0.0134734 0)
(1.37529 0.0136113 0)
(1.37668 0.0126594 0)
(1.37704 0.0100315 0)
(1.37552 0.00640942 0)
(1.3726 0.00448497 0)
(1.37081 0.00477915 0)
(1.37116 0.00638368 0)
(1.37314 0.00797682 0)
(1.37618 0.00977937 0)
(1.38091 0.0107692 0)
(1.38688 0.00856392 0)
(1.39321 0.00302563 0)
(1.39916 -0.00572369 0)
(1.40316 -0.0156274 0)
(1.40523 -0.0238905 0)
(1.40636 -0.0289744 0)
(1.40761 -0.0305618 0)
(1.40894 -0.0292765 0)
(1.41068 -0.0257181 0)
(1.4137 -0.0210223 0)
(1.41958 -0.0160529 0)
(1.43008 -0.0127734 0)
(1.44315 -0.0136642 0)
(1.45326 -0.0173736 0)
(1.45827 -0.0212148 0)
(1.46072 -0.0242479 0)
(1.46185 -0.0273348 0)
(1.46086 -0.029062 0)
(1.45811 -0.0268631 0)
(1.456 -0.0204607 0)
(1.45629 -0.0125081 0)
(1.45962 -0.00559721 0)
(1.46581 -3.39523e-05 0)
(1.47629 0.00275426 0)
(1.48757 0.000377397 0)
(1.49514 -0.00498078 0)
(1.49904 -0.0101653 0)
(1.50137 -0.0141563 0)
(1.50252 -0.0170147 0)
(1.5012 -0.0172628 0)
(1.49784 -0.0129917 0)
(1.49492 -0.00597389 0)
(1.49516 -8.44069e-05 0)
(1.49809 0.00310744 0)
(1.50202 0.0038731 0)
(1.50959 0.000576761 0)
(1.51811 -0.00407322 0)
(1.52366 -0.00667292 0)
(1.5266 -0.00725943 0)
(1.52875 -0.00630359 0)
(1.52992 -0.00264464 0)
(1.52919 0.00308419 0)
(1.52652 0.00802412 0)
(1.52464 0.00899993 0)
(1.52495 0.00629613 0)
(1.52592 0.00163006 0)
(1.52722 -0.00310525 0)
(1.52875 -0.00664777 0)
(1.53048 -0.00812803 0)
(1.5323 -0.00713923 0)
(1.5337 -0.00277707 0)
(1.53559 0.00323336 0)
(1.53822 0.00900382 0)
(1.54135 0.0127962 0)
(1.54451 0.0142267 0)
(1.54713 0.0136296 0)
(1.54912 0.0111133 0)
(1.54946 0.00750042 0)
(1.54776 0.00484738 0)
(1.54553 0.00491349 0)
(1.54435 0.00691253 0)
(1.54424 0.00864801 0)
(1.54524 0.00970792 0)
(1.54692 0.0100583 0)
(1.55101 0.00944376 0)
(1.55609 0.00840098 0)
(1.55802 0.00609511 0)
(1.55833 0.00343957 0)
(1.55806 0.00212737 0)
(1.55817 0.00246787 0)
(1.55855 0.0037661 0)
(1.55896 0.00593074 0)
(1.55964 0.00820432 0)
(1.56033 0.0103077 0)
(1.5606 0.0118747 0)
(1.5602 0.0128168 0)
(1.55957 0.0139566 0)
(1.55944 0.0157185 0)
(1.55903 0.0176084 0)
(1.55807 0.0187699 0)
(1.55735 0.0181804 0)
(1.55785 0.0168644 0)
(1.55986 0.0140467 0)
(1.56352 0.00943481 0)
(1.56771 0.00315174 0)
(1.57151 -0.00408301 0)
(1.57595 -0.0109618 0)
(1.57955 -0.0173 0)
(1.58206 -0.0213761 0)
(1.58407 -0.0234378 0)
(1.58651 -0.0225568 0)
(1.58863 -0.0189698 0)
(1.59121 -0.0147742 0)
(1.59491 -0.0102369 0)
(1.60054 -0.00503172 0)
(1.60828 -0.00049119 0)
(1.61778 0.00125096 0)
(1.62675 -0.00151267 0)
(1.63458 -0.00769025 0)
(1.64127 -0.0136328 0)
(1.64535 -0.0172446 0)
(1.64827 -0.0200769 0)
(1.64929 -0.0226023 0)
(1.6474 -0.0223704 0)
(1.64272 -0.0172479 0)
(1.63812 -0.00876846 0)
(1.63686 -0.00120068 0)
(1.63907 0.00345185 0)
(1.64282 0.00668686 0)
(1.65005 0.00909618 0)
(1.66083 0.0074942 0)
(1.67238 0.00260676 0)
(1.68296 -0.00404562 0)
(1.6916 -0.00955867 0)
(1.69786 -0.0133537 0)
(1.70166 -0.0149724 0)
(1.70409 -0.0154691 0)
(1.70605 -0.0154011 0)
(1.70357 -0.0125537 0)
(1.6951 -0.00507537 0)
(1.68681 0.00415273 0)
(1.68273 0.0110506 0)
(1.68171 0.0143579 0)
(1.68313 0.0145138 0)
(1.6858 0.013019 0)
(1.68908 0.010825 0)
(1.69356 0.00766353 0)
(1.70178 0.00227404 0)
(1.08649 -0.0329784 0)