/*--------------------------------*- C++ -*----------------------------------*\
  =========                 |
  \\      /  F ield         | OpenFOAM: The Open Source CFD Toolbox
   \\    /   O peration     | Website:  https://openfoam.org
    \\  /    A nd           | Version:  7
     \\/     M anipulation  |
\*---------------------------------------------------------------------------*/
FoamFile
{
    version     2.0;
    format      ascii;
    class       volScalarField;
    location    "0.8";
    object      rho;
}
// * * * * * * * * * * * * * * * * * * * * * * * * * * * * * * * * * * * * * //

dimensions      [1 -3 0 0 0 0 0];

internalField   nonuniform List<scalar> 
16192
(
2.20722
2.23262
2.23611
2.22768
2.20877
2.17314
2.13981
2.12706
2.12273
2.12186
2.12289
2.12123
2.11877
2.1162
2.11298
2.10703
2.09283
2.0693
2.05021
2.03579
2.02259
2.01138
2.00543
2.00372
2.00514
2.02086
2.04902
2.05864
2.05458
2.04164
2.01317
1.96884
1.94723
1.94317
1.94279
1.95084
1.96521
1.96725
1.96377
1.94925
1.91017
1.86312
1.8472
1.84461
1.84315
1.84498
1.86401
1.90783
1.9361
1.93534
1.9275
1.90972
1.86986
1.80299
1.76328
1.75593
1.75649
1.76511
1.79703
1.8567
1.90281
1.90942
1.90534
1.8922
1.853
1.76242
1.68357
1.66412
1.66019
1.65818
1.65748
1.66981
1.71894
1.78458
1.80507
1.80385
1.79916
1.78381
1.72926
1.63625
1.59643
1.59151
1.59094
1.59256
1.60542
1.64298
1.71414
1.7686
1.7735
1.76725
1.75067
1.70785
1.61556
1.54045
1.52569
1.52534
1.52837
1.54262
1.58152
1.65422
1.71607
1.72622
1.72267
1.70839
1.66026
1.55914
1.49525
1.48523
1.48355
1.48235
1.48666
1.51809
1.58767
1.63676
1.64203
1.64044
1.63767
1.62539
1.58006
1.49787
1.46012
1.45698
1.45843
1.46797
1.49807
1.57778
1.73285
1.9447
2.17546
2.39083
2.56453
2.64424
2.70555
2.72833
2.70478
2.68939
2.70103
2.75363
2.8429
2.86886
2.86251
2.83903
2.76192
2.64629
2.54962
2.51401
2.50418
2.50206
2.51193
2.56535
2.67462
2.74834
2.74847
2.73099
2.68957
2.60336
2.48668
2.42645
2.413
2.41164
2.41871
2.45444
2.53205
2.61002
2.62853
2.6222
2.59586
2.52061
2.39533
2.31852
2.2974
2.29029
2.28689
2.29188
2.33477
2.42047
2.49053
2.50755
2.50323
2.47959
2.40743
2.29109
2.22639
2.21052
2.20418
2.19873
2.19557
2.20265
2.24423
2.31901
2.36124
2.361
2.35308
2.33825
2.30514
2.23333
2.1496
2.12325
2.12106
2.12055
2.12249
2.13337
2.15654
2.19554
2.24073
2.25859
2.25633
2.24364
2.2123
2.14732
2.06909
2.03855
2.03569
2.03637
2.04008
2.05097
2.06986
2.10057
2.13868
2.15418
2.15192
2.1352
2.09861
2.03714
1.98132
1.96332
1.96043
1.96203
1.97569
1.99921
2.0423
2.11243
2.16722
2.17328
2.1673
2.15266
2.11469
2.041
1.98012
1.96989
1.96939
1.97082
1.97891
2.0013
2.03242
2.04221
2.0376
2.02444
1.99821
1.94472
1.88305
1.86278
1.86283
2.25024
2.25297
2.24447
2.22494
2.18737
2.15425
2.14178
2.13777
2.13671
2.14108
2.14211
2.13995
2.1381
2.13596
2.13295
2.12222
2.095
2.06558
2.04594
2.03371
2.02416
2.01912
2.01727
2.01859
2.03443
2.06409
2.07529
2.07161
2.0592
2.03121
1.98519
1.96052
1.95548
1.95488
1.96215
1.97886
1.9836
1.98091
1.969
1.93411
1.88259
1.86158
1.8582
1.85658
1.85796
1.87587
1.92026
1.95319
1.9539
1.94649
1.92906
1.8912
1.82476
1.78176
1.77237
1.7726
1.78025
1.8107
1.86947
1.91579
1.92255
1.91849
1.90565
1.86696
1.77741
1.69843
1.67832
1.67431
1.67243
1.67148
1.68161
1.72612
1.79353
1.81964
1.81903
1.8148
1.80154
1.75438
1.66105
1.61173
1.60461
1.60392
1.60479
1.61563
1.65028
1.7203
1.78133
1.7897
1.78405
1.76854
1.72931
1.63958
1.55619
1.53737
1.53618
1.53811
1.54997
1.58468
1.65443
1.72303
1.73843
1.73585
1.72353
1.6817
1.58315
1.50842
1.4951
1.49331
1.49212
1.49511
1.52133
1.58772
1.64711
1.65671
1.65525
1.65368
1.64315
1.60851
1.52188
1.47857
1.48323
1.51216
1.57217
1.69937
1.88984
2.14469
2.40502
2.63376
2.76913
2.81726
2.83807
2.82291
2.80314
2.75055
2.73046
2.73388
2.78332
2.86321
2.88754
2.87743
2.83945
2.76293
2.64619
2.55573
2.52773
2.51711
2.51554
2.52504
2.57454
2.67817
2.75999
2.76582
2.74512
2.70147
2.61586
2.4979
2.43678
2.4243
2.42415
2.43323
2.4676
2.53847
2.61791
2.64218
2.63498
2.60821
2.53842
2.42222
2.34278
2.31629
2.30833
2.30479
2.30776
2.34107
2.42143
2.4979
2.51395
2.50746
2.48786
2.4228
2.30743
2.23592
2.21521
2.20592
2.20107
2.19854
2.20373
2.24073
2.31627
2.37135
2.37659
2.37164
2.36058
2.3318
2.26051
2.16819
2.1303
2.12179
2.1182
2.1168
2.12448
2.15205
2.20525
2.26811
2.29784
2.298
2.28641
2.25291
2.1762
2.0781
2.03572
2.02891
2.02723
2.02766
2.04058
2.06882
2.11609
2.16883
2.18916
2.18691
2.17221
2.13625
2.05632
1.98277
1.96383
1.96101
1.96031
1.96323
1.98391
2.04129
2.12679
2.18196
2.18873
2.18377
2.16624
2.11689
2.02639
1.96097
1.94948
1.94969
1.95913
1.98039
2.01687
2.05891
2.07527
2.0722
2.05719
2.0227
1.95407
1.88262
1.85909
1.85604
1.8555
2.26928
2.26046
2.24048
2.20155
2.16914
2.15743
2.15364
2.15191
2.15745
2.16445
2.16309
2.16114
2.15937
2.15706
2.14912
2.12302
2.08428
2.05684
2.04449
2.03645
2.03232
2.03044
2.03208
2.04882
2.08033
2.09274
2.08932
2.077
2.0494
2.00186
1.97385
1.9678
1.96706
1.97353
1.99182
1.99949
1.99747
1.98808
1.95827
1.90448
1.87689
1.872
1.8704
1.87153
1.88897
1.93443
1.97065
1.97266
1.96535
1.94827
1.91163
1.84595
1.80001
1.78914
1.78898
1.79561
1.82433
1.88183
1.92827
1.93526
1.93133
1.91884
1.88072
1.7921
1.71354
1.69319
1.68921
1.68745
1.68641
1.69476
1.73488
1.80249
1.83432
1.83447
1.83051
1.81855
1.77775
1.68626
1.62729
1.61765
1.61679
1.61709
1.62614
1.65797
1.72627
1.79358
1.80588
1.801
1.78642
1.75041
1.6635
1.57289
1.54924
1.54724
1.54837
1.55787
1.58862
1.65474
1.7289
1.75043
1.74877
1.73837
1.70243
1.60844
1.52279
1.50517
1.50304
1.50187
1.50384
1.52536
1.58766
1.65483
1.67203
1.6715
1.66953
1.67074
1.63564
1.55816
1.55722
1.61233
1.72715
1.90969
2.11763
2.34829
2.56923
2.77383
2.92032
2.93742
2.92573
2.90369
2.87953
2.83491
2.77585
2.75295
2.75583
2.79745
2.87607
2.89586
2.87826
2.84144
2.77046
2.65445
2.56859
2.5404
2.53392
2.53414
2.54486
2.59142
2.68915
2.77242
2.77736
2.75889
2.72345
2.64123
2.51924
2.45185
2.43707
2.43573
2.44279
2.47808
2.55308
2.62961
2.64574
2.63895
2.61589
2.54554
2.43094
2.35654
2.33717
2.33195
2.32851
2.33139
2.36157
2.43412
2.50017
2.51093
2.5074
2.49339
2.4368
2.32648
2.2519
2.22945
2.21957
2.2115
2.20527
2.20384
2.22734
2.30076
2.3726
2.38677
2.38372
2.37394
2.3515
2.29228
2.19887
2.14594
2.13264
2.12859
2.12566
2.12543
2.14108
2.19463
2.27267
2.31371
2.31725
2.31102
2.29075
2.22519
2.11514
2.05201
2.03588
2.02982
2.02819
2.0301
2.04793
2.10064
2.17019
2.20345
2.20236
2.19317
2.16977
2.1055
2.01696
1.97542
1.96555
1.96423
1.96822
1.99068
2.04619
2.13221
2.19138
2.19711
2.19118
2.17387
2.12301
2.02443
1.9513
1.93764
1.93616
1.94033
1.9605
2.01031
2.07055
2.09563
2.09487
2.08517
2.05625
1.98323
1.8941
1.86301
1.85825
1.85724
1.85807
2.27603
2.25527
2.21518
2.18361
2.17317
2.17
2.16853
2.1742
2.1865
2.18773
2.18553
2.18367
2.18132
2.17441
2.15013
2.10528
2.0687
2.05522
2.04838
2.04502
2.04326
2.04557
2.06394
2.09764
2.11141
2.10803
2.09563
2.0679
2.01883
1.98763
1.9804
1.97957
1.98509
2.00416
2.01493
2.01367
2.00635
1.98184
1.92891
1.89369
1.88641
1.88485
1.88585
1.90348
1.95014
1.98852
1.99127
1.98398
1.96715
1.93143
1.86618
1.81854
1.80639
1.80583
1.81138
1.83818
1.89408
1.94032
1.94753
1.94372
1.93175
1.89443
1.80663
1.72878
1.70857
1.70468
1.70312
1.70208
1.70921
1.74528
1.81201
1.84905
1.85036
1.84646
1.8352
1.79951
1.71138
1.64363
1.63073
1.62957
1.62949
1.63697
1.66607
1.73228
1.80494
1.82205
1.81774
1.80418
1.77116
1.68772
1.59032
1.56153
1.55874
1.55922
1.56649
1.59346
1.65556
1.73392
1.76224
1.76159
1.75301
1.72228
1.63434
1.53892
1.51536
1.51273
1.51147
1.51256
1.53037
1.58556
1.66074
1.68887
1.69164
1.69741
1.70332
1.69605
1.73563
1.81995
1.97169
2.16957
2.3784
2.53223
2.68531
2.84486
2.98357
3.01369
3.01059
2.98419
2.94734
2.91131
2.85096
2.79114
2.76692
2.76883
2.80786
2.88108
2.89566
2.8807
2.8498
2.77918
2.66669
2.585
2.55815
2.5522
2.55058
2.56047
2.60821
2.70613
2.78495
2.78799
2.77141
2.7364
2.66129
2.54772
2.47495
2.45736
2.45553
2.46006
2.49076
2.56374
2.6475
2.67044
2.66294
2.63497
2.55662
2.43319
2.36218
2.34622
2.34132
2.33841
2.34259
2.3782
2.45606
2.52027
2.52884
2.52247
2.50049
2.43898
2.3379
2.26876
2.24749
2.24073
2.23575
2.23226
2.23248
2.25031
2.30797
2.3732
2.38534
2.3804
2.37173
2.35459
2.305
2.22046
2.16718
2.15278
2.14858
2.14639
2.14584
2.15443
2.1922
2.26346
2.31458
2.32203
2.31822
2.30498
2.25759
2.16312
2.08872
2.06281
2.05257
2.04495
2.04159
2.04814
2.08676
2.15672
2.19554
2.19732
2.19608
2.18268
2.13914
2.06553
2.01739
2.00194
1.99509
1.99234
2.00199
2.04562
2.12535
2.18113
2.18654
2.18516
2.17398
2.12484
2.02427
1.95137
1.93765
1.93588
1.93493
1.9417
1.9826
2.05718
2.10023
2.10294
2.09782
2.08059
2.02549
1.93114
1.87597
1.86463
1.86278
1.8621
1.86716
2.26936
2.22837
2.19796
2.18846
2.18588
2.18564
2.19373
2.2086
2.21298
2.21082
2.20864
2.20597
2.19897
2.17584
2.12754
2.08185
2.0665
2.06054
2.05757
2.05592
2.0591
2.07958
2.11603
2.13111
2.12767
2.11504
2.08708
2.03636
2.0018
1.99343
1.99237
1.99695
2.01618
2.02998
2.02961
2.0241
2.0043
1.95548
1.91268
1.90205
1.90038
1.90138
1.91951
1.96747
2.00665
2.00947
2.00212
1.98562
1.95045
1.88559
1.83725
1.82428
1.82339
1.82792
1.85269
1.90673
1.9522
1.95938
1.95567
1.94424
1.90797
1.82122
1.7441
1.72412
1.72052
1.71917
1.71832
1.72479
1.75741
1.82225
1.86396
1.86656
1.86253
1.85179
1.82004
1.73616
1.66044
1.64384
1.64232
1.64191
1.64812
1.67479
1.73834
1.81557
1.83791
1.83444
1.822
1.79167
1.71194
1.60884
1.57444
1.57064
1.57075
1.5761
1.59941
1.65734
1.73834
1.77391
1.77432
1.76723
1.74103
1.6602
1.55671
1.52573
1.52195
1.52107
1.52166
1.53456
1.58726
1.66781
1.71447
1.74642
1.79595
1.88869
2.02229
2.14118
2.2862
2.44019
2.60397
2.68614
2.7676
2.86413
2.98791
3.06518
3.07184
3.05226
3.01955
2.98189
2.92729
2.85731
2.80546
2.78517
2.78526
2.81757
2.8857
2.90328
2.88946
2.85852
2.787
2.67582
2.5961
2.57411
2.57006
2.56907
2.57979
2.62626
2.72281
2.80693
2.81402
2.79755
2.75817
2.67664
2.55798
2.48686
2.47653
2.47595
2.48083
2.5095
2.57915
2.65862
2.68568
2.68134
2.6573
2.57998
2.45634
2.38169
2.35816
2.34985
2.34537
2.34711
2.38194
2.46272
2.53422
2.54399
2.53553
2.51135
2.44781
2.34189
2.27602
2.26241
2.25904
2.25561
2.25281
2.25503
2.27643
2.33126
2.39399
2.4096
2.40405
2.39152
2.36968
2.31693
2.22809
2.17549
2.16654
2.165
2.16371
2.16423
2.17455
2.20761
2.26555
2.30834
2.31353
2.30833
2.29295
2.24995
2.17061
2.10943
2.09481
2.09265
2.09176
2.09101
2.09249
2.11123
2.15844
2.19187
2.19261
2.18573
2.16959
2.13431
2.07687
2.03865
2.03127
2.02953
2.03057
2.04288
2.07725
2.13442
2.17462
2.17749
2.17283
2.15483
2.10104
2.008
1.94869
1.94202
1.9406
1.93934
1.94571
1.97591
2.03797
2.08463
2.08991
2.08779
2.07838
2.04358
1.96686
1.90202
1.88281
1.878
1.87584
1.87604
1.88807
2.24095
2.2126
2.2036
2.20125
2.20228
2.21505
2.23326
2.23835
2.23608
2.23366
2.23054
2.22298
2.20071
2.15141
2.09701
2.07845
2.07301
2.07035
2.06885
2.07299
2.09591
2.13522
2.15171
2.1483
2.13553
2.10705
2.05435
2.01664
2.00709
2.00578
2.00934
2.02788
2.04459
2.04536
2.04124
2.02555
1.98295
1.93469
1.91928
1.91731
1.91846
1.93734
1.98638
2.02488
2.02722
2.01974
2.0035
1.96852
1.90406
1.85603
1.84288
1.8417
1.84531
1.86831
1.92036
1.96441
1.97119
1.96736
1.95624
1.92102
1.83564
1.75946
1.73968
1.7364
1.7353
1.73483
1.74122
1.77111
1.83347
1.87917
1.88324
1.87917
1.86871
1.8397
1.76051
1.67803
1.65714
1.65502
1.65446
1.65964
1.68404
1.74492
1.82548
1.85366
1.85099
1.83963
1.81188
1.73627
1.62875
1.58788
1.58314
1.58296
1.58672
1.6067
1.66027
1.74286
1.78535
1.78708
1.78116
1.7586
1.68529
1.57617
1.53573
1.53149
1.53079
1.53147
1.54745
1.60262
1.70613
1.82486
1.96026
2.14682
2.34913
2.52416
2.61676
2.69173
2.78691
2.80657
2.8293
2.87204
2.9517
3.0597
3.10749
3.10159
3.08384
3.04967
2.99183
2.92691
2.86196
2.82122
2.80454
2.80501
2.83349
2.89515
2.91209
2.89959
2.86628
2.79181
2.67825
2.59891
2.57888
2.57606
2.57671
2.59038
2.64013
2.73849
2.82518
2.83625
2.82243
2.78682
2.70687
2.57617
2.49563
2.47879
2.476
2.4801
2.5118
2.58678
2.6717
2.69604
2.6889
2.66467
2.59238
2.47819
2.40667
2.3808
2.369
2.36203
2.3616
2.38973
2.46793
2.53626
2.54099
2.53281
2.51161
2.45077
2.34852
2.28523
2.26827
2.26299
2.26035
2.25983
2.26703
2.29379
2.35089
2.41533
2.43382
2.42894
2.41931
2.39866
2.34012
2.24607
2.18994
2.17513
2.17161
2.16981
2.17291
2.19134
2.23164
2.29137
2.32964
2.33097
2.32456
2.30663
2.25386
2.16501
2.10943
2.09909
2.09687
2.09746
2.10338
2.11636
2.14598
2.1926
2.21861
2.21746
2.20706
2.1836
2.13426
2.06943
2.04095
2.03775
2.0393
2.0489
2.07263
2.1181
2.17496
2.19868
2.19539
2.17985
2.14817
2.07803
1.98378
1.93776
1.93242
1.93244
1.94176
1.95805
1.98637
2.03912
2.08754
2.09608
2.09262
2.08095
2.05011
1.98147
1.91515
1.89561
1.8926
1.88992
1.88915
1.89662
1.92823
2.22754
2.21917
2.21702
2.21886
2.2354
2.25964
2.26492
2.26131
2.25813
2.25427
2.24583
2.22463
2.17712
2.11533
2.09158
2.08603
2.08368
2.08234
2.08751
2.11288
2.15513
2.17281
2.16942
2.15661
2.1278
2.07334
2.03219
2.02158
2.01997
2.02234
2.03976
2.05892
2.06105
2.05787
2.04554
2.01001
1.95963
1.93837
1.9359
1.93711
1.95672
2.00644
2.04314
2.04451
2.03676
2.02069
1.98555
1.92129
1.87482
1.86194
1.86061
1.86365
1.88517
1.93544
1.97768
1.98353
1.97929
1.96799
1.9332
1.84938
1.77473
1.75536
1.7522
1.75126
1.75118
1.75794
1.78578
1.84582
1.89469
1.90056
1.89643
1.88599
1.85901
1.78427
1.69644
1.67069
1.66772
1.66718
1.67146
1.6939
1.75186
1.83503
1.86931
1.86762
1.85728
1.83176
1.76033
1.64938
1.60223
1.59637
1.59602
1.59851
1.61531
1.66461
1.74744
1.79701
1.80026
1.79479
1.77526
1.70875
1.59669
1.5477
1.54246
1.54374
1.55489
1.59237
1.70197
1.91054
2.16552
2.4383
2.67603
2.86395
2.89527
2.90554
2.92735
2.91871
2.89176
2.8954
2.919
3.00696
3.10676
3.12858
3.12159
3.10238
3.05532
2.99226
2.92686
2.87073
2.83848
2.82528
2.82589
2.85252
2.91003
2.92911
2.91425
2.8766
2.80094
2.68486
2.60505
2.58453
2.58074
2.5809
2.59546
2.64826
2.75043
2.8408
2.8554
2.84178
2.80764
2.73244
2.6104
2.52485
2.49826
2.49236
2.49332
2.51753
2.58548
2.66844
2.6934
2.68924
2.66825
2.59778
2.48444
2.41865
2.40162
2.39527
2.39029
2.39076
2.41823
2.48807
2.53951
2.54105
2.53173
2.51087
2.45451
2.35562
2.293
2.27716
2.27323
2.27025
2.26985
2.27916
2.30973
2.36899
2.43245
2.44801
2.44438
2.43595
2.41112
2.35364
2.26327
2.20764
2.19828
2.19605
2.19441
2.19601
2.21141
2.25164
2.31238
2.35009
2.35105
2.34428
2.32371
2.267
2.17051
2.11417
2.10274
2.09999
2.09852
2.09973
2.11624
2.15809
2.21638
2.24807
2.24666
2.23666
2.21187
2.15315
2.07724
2.04557
2.03959
2.03926
2.04806
2.08169
2.14347
2.20484
2.22055
2.2157
2.20168
2.16228
2.07015
1.96694
1.92915
1.92457
1.924
1.92664
1.93862
1.97503
2.03666
2.09004
2.10251
2.10078
2.09023
2.05798
1.99137
1.9273
1.90552
1.9019
1.90124
1.90313
1.91201
1.9363
1.98891
2.23536
2.23348
2.23661
2.25639
2.28416
2.29075
2.2866
2.28189
2.27662
2.26706
2.24733
2.20403
2.13807
2.1065
2.0998
2.09774
2.09665
2.1026
2.12986
2.17504
2.19409
2.19067
2.17794
2.14936
2.09289
2.04844
2.03668
2.03469
2.03611
2.05189
2.07322
2.07696
2.0744
2.06492
2.0363
1.98673
1.95954
1.95599
1.95726
1.97726
2.02669
2.061
2.06134
2.05332
2.03725
2.0014
1.93735
1.89338
1.88125
1.87989
1.88259
1.90329
1.95231
1.99245
1.99709
1.99216
1.98004
1.94494
1.86217
1.78958
1.77086
1.76785
1.76696
1.76722
1.77442
1.80092
1.85867
1.91054
1.91839
1.91435
1.90402
1.87841
1.80777
1.71539
1.68434
1.68054
1.68001
1.68361
1.70416
1.75928
1.8441
1.88474
1.88415
1.87484
1.85128
1.78374
1.67061
1.61737
1.6102
1.60967
1.61116
1.62526
1.67017
1.75263
1.80863
1.81377
1.80917
1.79017
1.73315
1.61725
1.56287
1.56553
1.59034
1.65028
1.79619
2.02597
2.35012
2.67023
2.91656
3.09165
3.11115
3.07034
3.02871
3.00475
2.95967
2.93683
2.93113
2.96277
3.05473
3.13417
3.14501
3.13317
3.10065
3.05084
2.99064
2.92782
2.87973
2.85452
2.84513
2.84517
2.86786
2.92318
2.94193
2.92596
2.8935
2.82334
2.70826
2.62527
2.59734
2.59092
2.59074
2.60371
2.65283
2.7535
2.85234
2.86957
2.85746
2.82862
2.75739
2.63249
2.54486
2.52552
2.52347
2.52509
2.54609
2.60517
2.6743
2.69078
2.68458
2.66132
2.59059
2.48367
2.42514
2.40868
2.40176
2.39709
2.40097
2.44007
2.51843
2.56648
2.56509
2.55052
2.51847
2.44959
2.35672
2.30454
2.29182
2.28883
2.28752
2.28913
2.30043
2.33237
2.39501
2.45867
2.47124
2.46503
2.45045
2.42059
2.35418
2.25963
2.21496
2.20996
2.20862
2.20883
2.21506
2.23424
2.27678
2.33939
2.37495
2.37452
2.36455
2.33663
2.27273
2.17952
2.12494
2.11239
2.10892
2.10743
2.11112
2.13127
2.17511
2.23443
2.26534
2.26534
2.25859
2.23198
2.17573
2.10279
2.06402
2.05413
2.05227
2.05687
2.08753
2.15474
2.21594
2.22757
2.22374
2.21083
2.1666
2.06373
1.96181
1.93207
1.92846
1.92645
1.92516
1.9336
1.96933
2.03708
2.09201
2.09771
2.09273
2.08202
2.05372
1.98991
1.9269
1.91433
1.91405
1.9155
1.91928
1.92825
1.94996
1.99436
2.05538
2.25103
2.25582
2.27873
2.30783
2.31399
2.30951
2.3038
2.29708
2.28698
2.26893
2.23126
2.1652
2.1242
2.11501
2.11306
2.11204
2.11798
2.14599
2.1937
2.21509
2.21189
2.19939
2.17124
2.11351
2.06526
2.05223
2.04994
2.05035
2.06424
2.08764
2.09337
2.09105
2.08389
2.06124
2.01572
1.98321
1.97725
1.97877
1.99831
2.0464
2.07818
2.07765
2.06933
2.05312
2.01608
1.95205
1.91134
1.90047
1.89911
1.90175
1.92241
1.97076
2.00902
2.01239
2.00649
1.99297
1.95678
1.87448
1.8039
1.78598
1.78311
1.78229
1.78289
1.79069
1.81632
1.87194
1.92656
1.93655
1.93273
1.9226
1.89814
1.83093
1.73503
1.69851
1.69358
1.6931
1.69607
1.71478
1.76684
1.85248
1.89974
1.90047
1.89223
1.87037
1.80652
1.69203
1.6328
1.62441
1.6237
1.62456
1.63602
1.67737
1.75767
1.81962
1.83033
1.82569
1.81407
1.76221
1.64083
1.62298
1.66691
1.78249
1.97821
2.21939
2.51161
2.80177
3.0652
3.23735
3.24943
3.21746
3.15085
3.09214
3.03542
2.98887
2.9632
2.96417
3.00674
3.09753
3.15661
3.15226
3.13041
3.09739
3.0486
2.9861
2.92715
2.89001
2.86979
2.86112
2.86033
2.88115
2.93332
2.9468
2.93254
2.90393
2.83983
2.73655
2.65422
2.62414
2.61855
2.61822
2.63044
2.67535
2.76422
2.84641
2.8584
2.85176
2.83157
2.77367
2.66089
2.57056
2.54512
2.54107
2.54172
2.56455
2.6297
2.69821
2.70996
2.70258
2.67587
2.5961
2.48536
2.43169
2.41579
2.41014
2.40584
2.41181
2.4565
2.53799
2.58685
2.58528
2.57061
2.5375
2.45944
2.353
2.30676
2.30149
2.3004
2.30066
2.30724
2.32417
2.36
2.42586
2.49481
2.5127
2.50665
2.48668
2.45199
2.37402
2.26752
2.2165
2.20478
2.20109
2.20041
2.20668
2.23204
2.28582
2.35816
2.39551
2.39543
2.38665
2.35991
2.2897
2.18353
2.12712
2.11909
2.11757
2.11706
2.12191
2.1422
2.1906
2.2574
2.2879
2.28607
2.27694
2.2504
2.1913
2.11403
2.07985
2.07629
2.07611
2.08105
2.10714
2.16744
2.22564
2.23467
2.22754
2.2138
2.17119
2.06445
1.95939
1.93377
1.93244
1.93168
1.93328
1.94478
1.97788
2.0431
2.10625
2.11884
2.11387
2.09716
2.05876
1.98567
1.92032
1.90457
1.9033
1.90737
1.9217
1.93923
1.96614
2.01238
2.07241
2.09939
2.27655
2.30194
2.33007
2.33443
2.32956
2.32319
2.31575
2.30599
2.28981
2.25809
2.19614
2.14605
2.13237
2.13033
2.12919
2.13425
2.16113
2.21019
2.23506
2.2328
2.22119
2.19371
2.13465
2.08253
2.06819
2.06549
2.06524
2.07705
2.10218
2.11053
2.10824
2.10279
2.08485
2.04521
2.00846
1.9995
2.00125
2.01937
2.0649
2.09444
2.0934
2.0848
2.0683
2.02953
1.96565
1.92868
1.91914
1.91785
1.92072
1.94199
1.99055
2.02718
2.02949
2.02255
2.00732
1.96952
1.88689
1.81787
1.80067
1.79794
1.79725
1.79812
1.80659
1.83171
1.8857
1.94239
1.955
1.95151
1.94168
1.91819
1.85401
1.75539
1.71302
1.70705
1.70651
1.70888
1.72566
1.77455
1.86012
1.91386
1.91659
1.90923
1.88911
1.82872
1.71322
1.64805
1.63843
1.63746
1.63756
1.64749
1.6842
1.76335
1.83539
1.8465
1.85189
1.84479
1.79165
1.77595
1.83642
1.99614
2.22468
2.46212
2.66078
2.87404
3.11673
3.30243
3.34243
3.33434
3.28777
3.21243
3.1286
3.05463
3.00892
2.99236
3.00197
3.05405
3.13869
3.17053
3.15895
3.13709
3.10273
3.04714
2.97995
2.92582
2.8973
2.88187
2.8759
2.87552
2.89695
2.94261
2.95102
2.93802
2.91018
2.8482
2.74901
2.67341
2.65232
2.64963
2.65032
2.66469
2.71062
2.79622
2.8698
2.87753
2.86428
2.83426
2.76969
2.66416
2.58616
2.56682
2.56377
2.5645
2.58625
2.64673
2.71024
2.72316
2.71417
2.68126
2.60041
2.49875
2.4506
2.43457
2.42683
2.42279
2.42938
2.47432
2.5536
2.59263
2.58962
2.5759
2.5456
2.47255
2.37054
2.31893
2.30577
2.30149
2.29921
2.30168
2.32286
2.37142
2.45047
2.52603
2.5474
2.5422
2.52498
2.49259
2.40988
2.29566
2.23512
2.21745
2.21176
2.20903
2.20961
2.22858
2.28288
2.36201
2.40642
2.4083
2.39948
2.37666
2.31477
2.2059
2.13768
2.11993
2.11536
2.11415
2.11589
2.13576
2.19236
2.27244
2.31566
2.31747
2.30721
2.28062
2.21983
2.12956
2.08465
2.07484
2.07523
2.08238
2.1082
2.16945
2.2303
2.24051
2.23653
2.2265
2.18686
2.08529
1.97502
1.93757
1.9306
1.92751
1.9264
1.93223
1.96258
2.03262
2.11046
2.13424
2.13262
2.12211
2.08958
2.00883
1.92453
1.89937
1.89559
1.89405
1.89549
1.91305
1.95448
2.01673
2.08957
2.12869
2.131
2.32537
2.35008
2.35214
2.347
2.34045
2.33294
2.32392
2.31005
2.2841
2.22945
2.17234
2.15241
2.14988
2.14855
2.15225
2.17649
2.22521
2.25331
2.25235
2.24251
2.21664
2.15688
2.10041
2.08478
2.08156
2.08064
2.0907
2.11719
2.12853
2.12649
2.12168
2.10754
2.0742
2.03577
2.02287
2.02444
2.04047
2.08222
2.10981
2.10862
2.09992
2.08298
2.04222
1.9785
1.94534
1.93701
1.93576
1.93906
1.96165
2.01112
2.04639
2.04775
2.04003
2.02343
1.98408
1.90049
1.83191
1.81502
1.81247
1.81185
1.81308
1.82206
1.84705
1.89972
1.95826
1.97346
1.97024
1.96077
1.93826
1.87695
1.77635
1.72857
1.72106
1.72044
1.72219
1.73696
1.78249
1.86708
1.92713
1.93215
1.92565
1.9073
1.85035
1.73422
1.66333
1.65174
1.65041
1.65067
1.65766
1.69214
1.77467
1.85397
1.88994
1.91688
1.95955
2.0388
2.15495
2.31822
2.52519
2.70386
2.81573
2.94236
3.10045
3.2838
3.38453
3.39723
3.37762
3.33862
3.25689
3.15121
3.07094
3.03305
3.02571
3.03952
3.09862
3.17266
3.18742
3.17314
3.15009
3.10942
3.04639
2.97866
2.93032
2.9065
2.89277
2.88791
2.88882
2.91335
2.95879
2.96896
2.9552
2.92455
2.86309
2.75915
2.67704
2.65577
2.65361
2.65628
2.67387
2.72742
2.82372
2.89775
2.90358
2.89199
2.86085
2.78133
2.65879
2.58954
2.5749
2.57233
2.57441
2.60298
2.67095
2.72986
2.73535
2.72181
2.68597
2.60231
2.50148
2.45978
2.45151
2.44905
2.44829
2.46083
2.51103
2.58591
2.61548
2.60875
2.58759
2.54967
2.47266
2.38002
2.33503
2.32132
2.31579
2.31248
2.31262
2.32588
2.36947
2.452
2.53927
2.56421
2.56007
2.54916
2.52229
2.44709
2.33136
2.26651
2.25098
2.244
2.2398
2.23896
2.25022
2.29358
2.36273
2.3978
2.39982
2.39613
2.38127
2.32954
2.23549
2.16505
2.139
2.12931
2.12435
2.1236
2.13749
2.18648
2.27051
2.32852
2.33416
2.32843
2.31154
2.26151
2.17317
2.11152
2.09026
2.0857
2.08601
2.10195
2.15256
2.21051
2.23156
2.23298
2.22375
2.18561
2.09528
2.00221
1.96947
1.95475
1.94336
1.93725
1.93858
1.96017
2.01978
2.09908
2.13508
2.13609
2.12866
2.10374
2.03558
1.94284
1.90547
1.89794
1.89468
1.89327
1.8954
1.91567
1.97765
2.07584
2.14285
2.15417
2.1522
2.3676
2.36742
2.3623
2.35617
2.3491
2.34094
2.3296
2.30901
2.26383
2.20357
2.17545
2.17176
2.17014
2.17221
2.19285
2.23953
2.27018
2.27032
2.26199
2.23894
2.18052
2.11942
2.10196
2.09827
2.09685
2.10559
2.13326
2.14757
2.14564
2.1411
2.13011
2.10244
2.06432
2.04722
2.04811
2.06185
2.09888
2.12439
2.1233
2.11467
2.09742
2.05476
1.99137
1.96112
1.95389
1.95274
1.9567
1.98124
2.03214
2.06586
2.06633
2.05813
2.04085
2.00073
1.91615
1.84673
1.82957
1.82707
1.8265
1.82791
1.83716
1.86214
1.91391
1.97409
1.99171
1.98895
1.97998
1.95839
1.8994
1.79756
1.74445
1.73563
1.73491
1.73607
1.74881
1.79074
1.87371
1.93942
1.94735
1.94168
1.92476
1.87113
1.75525
1.67731
1.66462
1.66326
1.66257
1.67167
1.7112
1.80548
1.92867
2.04913
2.2063
2.40413
2.57342
2.69527
2.83243
2.91724
2.97392
3.03019
3.09191
3.20252
3.35388
3.43122
3.42664
3.40886
3.37258
3.28402
3.16798
3.09067
3.06163
3.0577
3.07688
3.1406
3.19936
3.19925
3.18426
3.15814
3.111
3.04614
2.98364
2.94448
2.922
2.90708
2.90249
2.90423
2.92963
2.9762
2.98453
2.97135
2.94684
2.89117
2.78919
2.70551
2.67417
2.66612
2.6653
2.67898
2.73171
2.8295
2.91107
2.92068
2.90946
2.87803
2.79999
2.67954
2.60899
2.58743
2.58184
2.58138
2.60781
2.68344
2.74906
2.7544
2.74381
2.71124
2.62217
2.5123
2.46785
2.456
2.45123
2.44984
2.46757
2.52868
2.61035
2.63661
2.62955
2.61291
2.57329
2.48186
2.38078
2.3448
2.33844
2.3362
2.33499
2.3387
2.3556
2.39467
2.4655
2.53766
2.55279
2.5514
2.54401
2.51985
2.45386
2.35528
2.29959
2.28679
2.28264
2.27891
2.2772
2.28631
2.32315
2.38356
2.4158
2.4137
2.40452
2.3833
2.33023
2.24419
2.18608
2.17134
2.16774
2.16413
2.16194
2.16888
2.20333
2.26836
2.311
2.31553
2.31344
2.30181
2.26542
2.20011
2.15314
2.14131
2.13619
2.13294
2.1361
2.15763
2.18624
2.19296
2.18912
2.17857
2.14699
2.07123
1.99928
1.98852
1.98938
1.98958
1.98774
1.98836
1.99937
2.03889
2.10189
2.12886
2.12749
2.12063
2.10172
2.04611
1.96278
1.91769
1.90561
1.90173
1.89901
1.89792
1.9051
1.94318
2.03226
2.12946
2.1565
2.156
2.1521
2.38107
2.37617
2.3706
2.36432
2.35716
2.3481
2.33219
2.29755
2.23926
2.20203
2.19548
2.19371
2.19432
2.21085
2.25407
2.28606
2.28709
2.2797
2.25964
2.20528
2.13926
2.11889
2.11508
2.11356
2.12177
2.15086
2.16778
2.16577
2.16115
2.15271
2.12973
2.09392
2.07293
2.07267
2.08388
2.11568
2.1382
2.13709
2.12879
2.11162
2.06804
2.00481
1.97654
1.97015
1.96901
1.97375
2.001
2.05347
2.08474
2.08425
2.07574
2.05881
2.01922
1.93441
1.86294
1.84479
1.84223
1.84166
1.84304
1.85228
1.87708
1.92846
1.98966
2.00956
2.00722
1.99871
1.97812
1.92147
1.81905
1.76105
1.75091
1.75002
1.75065
1.76128
1.7998
1.88027
1.9511
1.96211
1.95706
1.94146
1.89132
1.77507
1.69167
1.67757
1.6767
1.68084
1.70488
1.78368
1.9575
2.22708
2.50772
2.78569
2.96183
3.07299
3.07254
3.08921
3.10778
3.0977
3.10698
3.15886
3.26425
3.40001
3.46138
3.4598
3.44319
3.39256
3.29888
3.18293
3.11416
3.09154
3.09033
3.11636
3.17999
3.21409
3.20591
3.1881
3.15536
3.10423
3.04331
2.99172
2.96175
2.93947
2.92817
2.92508
2.92887
2.95337
2.98397
2.9821
2.97249
2.95466
2.91222
2.82894
2.74381
2.7046
2.69772
2.69726
2.70879
2.75332
2.83914
2.90518
2.9097
2.90299
2.88257
2.81656
2.70127
2.62602
2.60458
2.59915
2.59742
2.61717
2.6843
2.74855
2.75456
2.7461
2.72004
2.64652
2.54626
2.49488
2.4789
2.47423
2.47606
2.49872
2.55738
2.62381
2.63599
2.62846
2.61089
2.57104
2.48837
2.3987
2.36236
2.35383
2.35142
2.3504
2.35551
2.37673
2.42305
2.49757
2.56139
2.57239
2.56375
2.54521
2.51098
2.43763
2.34562
2.30905
2.30497
2.30237
2.30135
2.30588
2.3241
2.36535
2.41965
2.4387
2.43426
2.42071
2.38935
2.32358
2.23698
2.1922
2.18504
2.18431
2.18452
2.19163
2.2119
2.25291
2.30723
2.32951
2.32606
2.31214
2.28674
2.23604
2.176
2.15584
2.15481
2.16066
2.17159
2.18857
2.21509
2.22635
2.21974
2.19816
2.1662
2.11111
2.02821
1.97514
1.96837
1.9705
1.98315
2.00092
2.01365
2.03373
2.07608
2.13264
2.15279
2.14872
2.13656
2.10753
2.04492
1.96159
1.92202
1.91776
1.91658
1.9157
1.91594
1.9208
1.94346
2.00583
2.09304
2.13122
2.13588
2.13525
2.12962
2.38971
2.38434
2.37878
2.37275
2.36542
2.35369
2.32867
2.27799
2.23249
2.22069
2.21884
2.21824
2.23067
2.26999
2.30235
2.30388
2.2966
2.27839
2.22879
2.15996
2.13522
2.13101
2.12973
2.13781
2.16832
2.18944
2.18731
2.18184
2.1746
2.15585
2.12373
2.09992
2.09825
2.10675
2.13292
2.1512
2.14964
2.14174
2.12554
2.0828
2.01977
1.99199
1.98589
1.98489
1.99083
2.02105
2.07477
2.10252
2.10091
2.09211
2.07617
2.03858
1.95516
1.88103
1.86117
1.85844
1.85779
1.8589
1.86771
1.89224
1.94336
2.00515
2.02667
2.02475
2.01668
1.99711
1.94268
1.84008
1.77822
1.76685
1.76576
1.76585
1.77452
1.80939
1.88712
1.96247
1.97628
1.9724
1.95735
1.91032
1.79842
1.70547
1.69618
1.70649
1.74382
1.84519
2.0591
2.3813
2.76986
3.08927
3.27132
3.32094
3.27195
3.22058
3.19461
3.14986
3.13704
3.1411
3.17841
3.28787
3.42835
3.49131
3.49104
3.46342
3.40728
3.30727
3.19465
3.13942
3.1232
3.1258
3.15878
3.21225
3.22253
3.2094
3.18735
3.14949
3.09429
3.03555
2.99585
2.97381
2.95698
2.95113
2.94981
2.95874
2.98456
2.99792
2.98986
2.9748
2.95308
2.91237
2.84082
2.77037
2.74035
2.73606
2.73568
2.74672
2.7881
2.86509
2.92314
2.92505
2.91117
2.88172
2.81446
2.71422
2.648
2.62686
2.62157
2.62041
2.63871
2.69602
2.74536
2.74777
2.73649
2.70989
2.64724
2.56015
2.51943
2.51233
2.51019
2.51228
2.53774
2.60225
2.66346
2.67008
2.65395
2.62354
2.56763
2.47228
2.39188
2.37432
2.37239
2.37172
2.37412
2.38272
2.40382
2.45003
2.52607
2.58795
2.59593
2.58932
2.57166
2.5238
2.42825
2.33508
2.30575
2.30125
2.30167
2.31132
2.329
2.35819
2.40739
2.45927
2.47128
2.4641
2.44459
2.40355
2.32169
2.22736
2.1945
2.19181
2.19186
2.19356
2.20766
2.24075
2.29753
2.35853
2.37688
2.3707
2.34761
2.30172
2.22421
2.15076
2.12801
2.12633
2.13392
2.15884
2.20567
2.25541
2.27378
2.26986
2.24891
2.20335
2.1115
2.00079
1.94778
1.94131
1.94258
1.95611
1.98102
2.01274
2.05749
2.11857
2.17685
2.19175
2.18575
2.16547
2.12279
2.04514
1.95779
1.9232
1.91682
1.91454
1.91414
1.91885
1.92864
1.95092
2.00164
2.07659
2.1192
2.12394
2.12313
2.11839
2.09782
2.39832
2.3933
2.38813
2.38225
2.37394
2.35642
2.31671
2.26653
2.24701
2.24485
2.24357
2.25231
2.28738
2.31975
2.32169
2.31421
2.2964
2.24986
2.17988
2.15132
2.14621
2.14505
2.15249
2.18384
2.21157
2.21083
2.2042
2.19609
2.18097
2.15323
2.12749
2.12444
2.13058
2.15049
2.16327
2.16081
2.15331
2.13859
2.09877
2.03693
2.00771
2.00159
2.00084
2.00813
2.04154
2.09559
2.11867
2.11588
2.10704
2.0923
2.05742
1.97755
1.90116
1.87906
1.87603
1.87526
1.87596
1.88398
1.90816
1.95918
2.02074
2.04273
2.04116
2.03358
2.01515
1.96282
1.86061
1.7958
1.78321
1.7819
1.78164
1.78847
1.81994
1.89486
1.97262
1.99165
1.98808
1.97468
1.94064
1.81479
1.74088
1.76206
1.8384
2.00387
2.24607
2.56957
2.94451
3.25338
3.47636
3.49771
3.46367
3.36337
3.27664
3.21005
3.16828
3.1486
3.14503
3.18589
3.30835
3.45677
3.52014
3.51308
3.47938
3.41964
3.31068
3.20809
3.16478
3.15508
3.16257
3.19871
3.23407
3.231
3.21252
3.18436
3.14228
3.08735
3.03368
2.99971
2.98136
2.97097
2.96784
2.97028
2.98635
3.01212
3.02015
3.01256
2.99785
2.97305
2.92862
2.85114
2.77468
2.74827
2.74495
2.74782
2.76491
2.81365
2.89547
2.94687
2.94603
2.93405
2.90185
2.82232
2.71368
2.65791
2.64514
2.64219
2.64291
2.66691
2.72591
2.76741
2.76656
2.7543
2.72165
2.64503
2.56132
2.52972
2.52077
2.51882
2.52744
2.56557
2.63593
2.69102
2.69446
2.6832
2.65814
2.59214
2.47798
2.39671
2.37523
2.36974
2.36889
2.37546
2.39292
2.42448