/*--------------------------------*- C++ -*----------------------------------*\
  =========                 |
  \\      /  F ield         | OpenFOAM: The Open Source CFD Toolbox
   \\    /   O peration     | Website:  https://openfoam.org
    \\  /    A nd           | Version:  7
     \\/     M anipulation  |
\*---------------------------------------------------------------------------*/
FoamFile
{
    version     2.0;
    format      ascii;
    class       volScalarField;
    location    "2.9";
    object      rho;
}
// * * * * * * * * * * * * * * * * * * * * * * * * * * * * * * * * * * * * * //

dimensions      [1 -3 0 0 0 0 0];

internalField   nonuniform List<scalar> 
16192
(
1.40001
1.40001
1.40001
1.40001
1.40001
1.40001
1.40001
1.40001
1.40001
1.40001
1.40001
1.40001
1.40001
1.40001
1.40001
1.40001
1.40001
1.40001
1.40001
1.40001
1.40001
1.40001
1.40001
1.40001
1.40001
1.40001
1.40001
1.40001
1.40001
1.40001
1.40001
1.40001
1.40001
1.40001
1.40001
1.40001
1.40001
1.40001
1.40001
1.40001
1.40001
1.40001
1.40001
1.40001
1.40001
1.40001
1.40001
1.40001
1.40001
1.40001
1.40001
1.40001
1.40001
1.40001
1.40001
1.40001
1.40001
1.40001
1.40001
1.40001
1.40001
1.40001
1.40001
1.40001
1.40001
1.40001
1.40001
1.40001
1.40001
1.40001
1.40001
1.40001
1.40001
1.40001
1.40001
1.40001
1.40001
1.40001
1.40001
1.40001
1.40001
1.40001
1.40001
1.40001
1.40001
1.40001
1.40001
1.40001
1.40001
1.40001
1.40001
1.40001
1.40001
1.40001
1.40001
1.40001
1.40001
1.40001
1.40001
1.40001
1.40001
1.40001
1.40001
1.40001
1.40001
1.40001
1.40001
1.40001
1.40001
1.40001
1.40001
1.40001
1.40001
1.40001
1.40001
1.40001
1.40001
1.40001
1.40001
1.40001
1.40001
1.40001
1.40001
1.40001
1.40001
1.40001
1.40001
1.40001
1.40001
1.40001
1.40001
1.40001
1.40001
1.40001
1.40001
1.40001
1.40001
1.40001
1.40001
1.40001
1.40001
1.40001
1.40001
1.40001
1.40001
1.40001
1.40001
1.40001
1.40001
1.40001
1.40001
1.40001
1.40001
1.40001
1.40001
1.40001
1.40001
1.40001
1.40001
1.40001
1.40001
1.40001
1.40001
1.40001
1.40001
1.40001
1.40001
1.40001
1.40001
1.40001
1.40001
1.40001
1.40001
1.40001
1.40001
1.40001
1.40001
1.40001
1.40001
1.40001
1.40001
1.40001
1.40001
1.40001
1.40001
1.40001
1.40001
1.40001
1.40001
1.40001
1.40001
1.40001
1.40001
1.40001
1.40001
1.40001
1.40001
1.40001
1.40001
1.40001
1.40001
1.40001
1.40001
1.40001
1.40001
1.40001
1.40001
1.40001
1.40001
1.40001
1.40001
1.40001
1.40001
1.40001
1.40001
1.40001
1.40001
1.40001
1.40001
1.40001
1.40001
1.40001
1.40001
1.40001
1.40001
1.40001
1.40001
1.40001
1.40001
1.40001
1.40001
1.40001
1.40001
1.40001
1.40001
1.40001
1.40001
1.40001
1.40001
1.40001
1.40001
1.40001
1.40001
1.40001
1.40001
1.40001
1.40001
1.40001
1.40001
1.40001
1.40001
1.40001
1.40001
1.40001
1.40001
1.40001
1.40001
1.40001
1.40001
1.40001
1.40001
1.40001
1.40001
1.40001
1.40001
1.40001
1.40001
1.40001
1.40001
1.40001
1.40001
1.40001
1.40001
1.40001
1.40001
1.40001
1.40001
1.40001
1.40001
1.40001
1.40001
1.40001
1.40001
1.40001
1.40001
1.40001
1.40001
1.40001
1.40001
1.40001
1.40001
1.40001
1.40001
1.40001
1.40001
1.40001
1.40001
1.40001
1.40001
1.40001
1.40001
1.40001
1.40001
1.40001
1.40001
1.40001
1.40001
1.40001
1.40001
1.40001
1.40001
1.40001
1.40001
1.40001
1.40001
1.40001
1.40001
1.40001
1.40001
1.40001
1.40001
1.40001
1.40001
1.40001
1.40001
1.40001
1.40001
1.40001
1.40001
1.40001
1.40001
1.40001
1.40001
1.40001
1.40001
1.40001
1.40001
1.40001
1.40001
1.40001
1.40001
1.40001
1.40001
1.40001
1.40001
1.40001
1.40001
1.40001
1.40001
1.40001
1.40001
1.40001
1.40001
1.40001
1.40001
1.40001
1.40001
1.40001
1.40001
1.40001
1.40001
1.40001
1.40001
1.40001
1.40001
1.40001
1.40001
1.40001
1.40001
1.40001
1.40001
1.40001
1.40001
1.40001
1.40001
1.40001
1.40001
1.40001
1.40001
1.40001
1.40001
1.40001
1.40001
1.40001
1.40001
1.40001
1.40001
1.40001
1.40001
1.40001
1.40001
1.40001
1.40001
1.40001
1.40001
1.40001
1.40001
1.40001
1.40001
1.40001
1.40001
1.40001
1.40001
1.40001
1.40001
1.40001
1.40001
1.40001
1.40001
1.40001
1.40001
1.40001
1.40001
1.40001
1.40001
1.40001
1.40001
1.40001
1.40001
1.40001
1.40001
1.40001
1.40001
1.40001
1.40001
1.40001
1.40001
1.40001
1.40001
1.40001
1.40001
1.40001
1.40001
1.40001
1.40001
1.40001
1.40001
1.40001
1.40001
1.40001
1.40001
1.40001
1.40001
1.40001
1.40001
1.40001
1.40001
1.40001
1.40001
1.40001
1.40001
1.40001
1.40001
1.40001
1.40001
1.40001
1.40001
1.40001
1.40001
1.40001
1.40001
1.40001
1.40001
1.40001
1.40001
1.40001
1.40001
1.40001
1.40001
1.40001
1.40001
1.40001
1.40001
1.40001
1.40001
1.40001
1.40001
1.40001
1.40001
1.40001
1.40001
1.40001
1.40001
1.40001
1.40001
1.40001
1.40001
1.40001
1.40001
1.40001
1.40001
1.40001
1.40001
1.40001
1.40001
1.40001
1.40001
1.40001
1.40001
1.40001
1.40001
1.40001
1.40001
1.40001
1.40001
1.40001
1.40001
1.40001
1.40001
1.40001
1.40001
1.40001
1.40001
1.40001
1.40001
1.40001
1.40001
1.40001
1.40001
1.40001
1.40001
1.40001
1.40001
1.40001
1.40001
1.40001
1.40001
1.40001
1.40001
1.40001
1.40001
1.40001
1.40001
1.40001
1.40001
1.40001
1.40001
1.40001
1.40001
1.40001
1.40001
1.40001
1.40001
1.40001
1.40001
1.40001
1.40001
1.40001
1.40001
1.40001
1.40001
1.40001
1.40001
1.40001
1.40001
1.40001
1.40001
1.40001
1.40001
1.40001
1.40001
1.40001
1.40001
1.40001
1.40001
1.40001
1.40001
1.40001
1.40001
1.40001
1.40001
1.40001
1.40001
1.40001
1.40001
1.40001
1.40001
1.40001
1.40001
1.40001
1.40001
1.40001
1.40001
1.40001
1.40001
1.40001
1.40001
1.40001
1.40001
1.40001
1.40001
1.40001
1.40001
1.40001
1.40001
1.40001
1.40001
1.40001
1.40001
1.40001
1.40001
1.40001
1.40001
1.40001
1.40001
1.40001
1.40001
1.40001
1.40001
1.40001
1.40001
1.40001
1.40001
1.40001
1.40001
1.40001
1.40001
1.40001
1.40001
1.40001
1.40001
1.40001
1.40001
1.40001
1.40001
1.40001
1.40001
1.40001
1.40001
1.40001
1.40001
1.40001
1.40001
1.40001
1.40001
1.40001
1.40001
1.40001
1.40001
1.40001
1.40001
1.40001
1.40001
1.40001
1.40001
1.40001
1.40001
1.40001
1.40001
1.40001
1.40001
1.40001
1.40001
1.40001
1.40001
1.40001
1.40001
1.40001
1.40001
1.40001
1.40001
1.40001
1.40001
1.40001
1.40001
1.40001
1.40001
1.40001
1.40001
1.40001
1.40001
1.40001
1.40001
1.40001
1.40001
1.40001
1.40001
1.40001
1.40001
1.40001
1.40001
1.40001
1.40001
1.40001
1.40001
1.40001
1.40001
1.40001
1.40001
1.40001
1.40001
1.40001
1.40001
1.40001
1.40001
1.40001
1.40001
1.40001
1.40001
1.40001
1.40001
1.40001
1.40001
1.40001
1.40001
1.40001
1.40001
1.40001
1.40001
1.40001
1.40001
1.40001
1.40001
1.40001
1.40001
1.40001
1.40001
1.40001
1.40001
1.40001
1.40001
1.40001
1.40001
1.40001
1.40001
1.40001
1.40001
1.40001
1.40001
1.40001
1.40001
1.40001
1.40001
1.40001
1.40001
1.40001
1.40001
1.40001
1.40001
1.40001
1.40001
1.40001
1.40001
1.40001
1.40001
1.40001
1.40001
1.40001
1.40001
1.40001
1.40001
1.40001
1.40001
1.40001
1.40001
1.40001
1.40001
1.40001
1.40001
1.40001
1.40001
1.40001
1.40001
1.40001
1.40001
1.40001
1.40001
1.40001
1.40001
1.40001
1.40001
1.40001
1.40001
1.40001
1.40001
1.40001
1.40001
1.40001
1.40001
1.40001
1.40001
1.40001
1.40001
1.40001
1.40001
1.40001
1.40001
1.40001
1.40001
1.40001
1.40001
1.40001
1.40001
1.40001
1.40001
1.40001
1.40001
1.40001
1.40001
1.40001
1.40001
1.40001
1.40001
1.40001
1.40001
1.40001
1.40001
1.40001
1.40001
1.40001
1.40001
1.40001
1.40001
1.40001
1.40001
1.40001
1.40001
1.40001
1.40001
1.40001
1.40001
1.40001
1.40001
1.40001
1.40001
1.40001
1.40001
1.40001
1.40001
1.40001
1.40001
1.40001
1.40001
1.40001
1.40001
1.40001
1.40001
1.40001
1.40001
1.40001
1.40001
1.40001
1.40001
1.40001
1.40001
1.40001
1.40001
1.40001
1.40001
1.40001
1.40001
1.40001
1.40001
1.40001
1.40001
1.40001
1.40001
1.40001
1.40001
1.40001
1.40001
1.40001
1.40001
1.40001
1.40001
1.40001
1.40001
1.40001
1.40001
1.40001
1.40001
1.40001
1.40001
1.40001
1.40001
1.40001
1.40001
1.40001
1.40001
1.40001
1.40001
1.40001
1.40001
1.40001
1.40001
1.40001
1.40001
1.40001
1.40001
1.40001
1.40001
1.40001
1.40001
1.40001
1.40001
1.40001
1.40001
1.40001
1.40001
1.40001
1.40001
1.40001
1.40001
1.40001
1.40001
1.40001
1.40001
1.40001
1.40001
1.40001
1.40001
1.40001
1.40001
1.40001
1.40001
1.40001
1.40001
1.40001
1.40001
1.40001
1.40001
1.40001
1.40001
1.40001
1.40001
1.40001
1.40001
1.40001
1.40001
1.40001
1.40001
1.40001
1.40001
1.40001
1.40001
1.40001
1.40001
1.40001
1.40001
1.40001
1.40001
1.40001
1.40001
1.40001
1.40001
1.40001
1.40001
1.40001
1.40001
1.40001
1.40001
1.40001
1.40001
1.40001
1.40001
1.40001
1.40001
1.40001
1.40001
1.40001
1.40001
1.40001
1.40001
1.40001
1.40001
1.40001
1.40001
1.40001
1.40001
1.40001
1.40001
1.40001
1.40001
1.40001
1.40001
1.40001
1.40001
1.40001
1.40001
1.40001
1.40001
1.40001
1.40001
1.40001
1.40001
1.40001
1.40001
1.40001
1.40001
1.40001
1.40001
1.40001
1.40001
1.40001
1.40001
1.40001
1.40001
1.40001
1.40001
1.40001
1.40001
1.40001
1.40001
1.40001
1.40001
1.40001
1.40001
1.40001
1.40001
1.40001
1.40001
1.40001
1.40001
1.40001
1.40001
1.40001
1.40001
1.40001
1.40001
1.40001
1.40001
1.40001
1.40001
1.40001
1.40001
1.40001
1.40001
1.40001
1.40001
1.40001
1.40001
1.40001
1.40001
1.40001
1.40001
1.40001
1.40001
1.40001
1.40001
1.40001
1.40001
1.40001
1.40001
1.40001
1.40001
1.40001
1.40001
1.40001
1.40001
1.40001
1.40001
1.40001
1.40001
1.40001
1.40001
1.40001
1.40001
1.40001
1.40001
1.40001
1.40001
1.40001
1.40001
1.40001
1.40001
1.40001
1.40001
1.40001
1.40001
1.40001
1.40001
1.40001
1.40001
1.40001
1.40001
1.40001
1.40001
1.40001
1.40001
1.40001
1.40001
1.40001
1.40001
1.40001
1.40001
1.40001
1.40001
1.40001
1.40001
1.40001
1.40001
1.40001
1.40001
1.40001
1.40001
1.40001
1.40001
1.40001
1.40001
1.40001
1.40001
1.40001
1.40001
1.40001
1.40001
1.40001
1.40001
1.40001
1.40001
1.40001
1.40001
1.40001
1.40001
1.40001
1.40001
1.40001
1.40001
1.40001
1.40001
1.40001
1.40001
1.40001
1.40001
1.40001
1.40001
1.40001
1.40001
1.40001
1.40001
1.40001
1.40001
1.40001
1.40001
1.40001
1.40001
1.40001
1.40001
1.40001
1.40001
1.40001
1.40001
1.40001
1.40001
1.40001
1.40001
1.40001
1.40001
1.40001
1.40001
1.40001
1.40001
1.40001
1.40001
1.40001
1.40001
1.40001
1.40001
1.40001
1.40001
1.40001
1.40001
1.40001
1.40001
1.40001
1.40001
1.40001
1.40001
1.40001
1.40001
1.40001
1.40001
1.40001
1.40001
1.40001
1.40001
1.40001
1.40001
1.40001
1.40001
1.40001
1.40001
1.40001
1.40001
1.40001
1.40001
1.40001
1.40001
1.40001
1.40001
1.40001
1.40001
1.40001
1.40001
1.40001
1.40001
1.40001
1.40001
1.40001
1.40001
1.40001
1.40001
1.40001
1.40001
1.40001
1.40001
1.40001
1.40001
1.40001
1.40001
1.40001
1.40001
1.40001
1.40001
1.40001
1.40001
1.40001
1.40001
1.40001
1.40001
1.40001
1.40001
1.40001
1.40001
1.40001
1.40001
1.40001
1.40001
1.40001
1.40001
1.40001
1.40001
1.40001
1.40001
1.40001
1.40001
1.40001
1.40001
1.40001
1.40001
1.40001
1.40001
1.40001
1.40001
1.40001
1.40001
1.40001
1.40001
1.40001
1.40001
1.40001
1.40001
1.40001
1.40001
1.40001
1.40001
1.40001
1.40001
1.40001
1.40001
1.40001
1.40001
1.40001
1.40001
1.40001
1.40001
1.40001
1.40001
1.40001
1.40001
1.40001
1.40001
1.40001
1.40001
1.40001
1.40001
1.40001
1.40001
1.40001
1.40001
1.40001
1.40001
1.40001
1.40001
1.40001
1.40001
1.40001
1.40001
1.40001
1.40001
1.40001
1.40001
1.40001
1.40007
1.40687
1.55714
2.03609
2.94572
3.75464
3.75854
3.70668
3.6908
3.68461
3.65404
3.64372
3.6615
3.66289
3.66279
3.65508
3.62073
3.60653
3.60227
3.58396
3.5642
3.5509
3.54423
3.52648
3.50709
3.50068
3.49646
3.4808
3.46594
3.45712
3.44387
3.42811
3.41425
3.39687
3.37473
3.3581
3.34632
3.33361
3.32558
3.31904
3.30698
3.29334
3.2839
3.27441
3.26236
3.24939
3.23443
3.2177
3.20357
3.19018
3.17713
3.16389
3.14741
3.13488
3.13314
3.13458
3.1435
3.16498
3.20639
3.26682
3.29902
3.31864
3.32949
3.32741
3.32339
3.31687
3.30244
3.2767
3.24664
3.223
3.20919
3.20165
3.19892
3.20495
3.2111
3.2055
3.19065
3.16819
3.13419
3.0873
3.05138
3.03152
3.02548
3.02814
3.04743
3.06121
3.05587
3.03904
3.01002
2.96001
2.90699
2.87983
2.87074
2.86995
2.88311
2.90891
2.91844
2.91207
2.89217
2.85817
2.80775
2.77013
2.75278
2.74785
2.74813
2.76114
2.77392
2.77025
2.75561
2.72799
2.68532
2.6529
2.63979
2.63756
2.64423
2.66325
2.66704
2.65818
2.638
2.60121
2.55844
2.53822
2.53346
2.53321
2.54467
2.55967
2.55965
2.55527
2.55046
2.5408
2.52019
2.477
2.41947
2.39129
2.38199
2.37958
2.38131
2.40052
2.43825
2.45747
2.45501
2.44523
2.42671
2.38654
2.32261
2.28677
2.27634
2.27485
2.27821
2.29774
2.32055
2.32327
2.31968
2.31646
2.31193
2.30171
2.27821
2.22726
2.1849
2.17349
2.17171
2.17414
2.19556
2.22429
2.22791
2.22384
2.22026
2.21573
2.18633
2.19677
2.4293
3.14946
3.82206
4.18915
4.39841
4.48829
4.48029
4.44772
4.39099
4.27386
1.40001
1.40001
1.40001
1.40001
1.40001
1.40001
1.40001
1.40001
1.40001
1.40001
1.40001
1.40001
1.40001
1.40001
1.40001
1.40001
1.40001
1.40001
1.40001
1.40001
1.40001
1.40001
1.40001
1.40001
1.40001
1.40001
1.40001
1.40001
1.40001
1.40001
1.40001
1.40001
1.40001
1.40001
1.40001
1.40001
1.40001
1.40001
1.40001
1.40001
1.40001
1.40001
1.40001
1.40001
1.40001
1.40001
1.40001
1.40001
1.40001
1.40001
1.40001
1.40008
1.40514
1.46302
1.83391
3.05683
3.52433
3.64071
3.70656
3.6875
3.67479
3.68583
3.6994
3.7052
3.68553
3.64192
3.62422
3.62017
3.60199
3.58604
3.57964
3.56897
3.54664
3.53008
3.5233
3.52289
3.50968
3.49183
3.48072
3.46777
3.44876
3.43438
3.42024
3.39991
3.38168
3.37173
3.36032
3.35016
3.34467
3.33424
3.31975
3.30941
3.30123
3.28861
3.2723
3.25698
3.2406
3.22389
3.21252
3.20081
3.18919
3.17802
3.16153
3.14613
3.14115
3.14022
3.14404
3.15594
3.17918
3.22112
3.25185
3.28002
3.31297
3.3237
3.32285
3.3193
3.30478
3.27696
3.25001
3.23576
3.22911
3.2285
3.23606
3.23749
3.22846
3.21285
3.19045
3.15419
3.11114
3.08207
3.06578
3.06129
3.06737
3.08743
3.09394
3.08454
3.06535
3.0354
2.98449
2.93609
2.91147
2.90454
2.90553
2.92372
2.94684
2.94967
2.93995
2.91791
2.88172
2.83069
2.79597
2.78033
2.77658
2.77872
2.7934
2.80323
2.7978
2.78087
2.75133
2.70812
2.67756
2.66569
2.66387
2.67189
2.69063
2.69316
2.68357
2.66231
2.62424
2.58103
2.56099
2.55634
2.55611
2.5675
2.58235
2.58219
2.57766
2.57237
2.56178
2.5407
2.49724
2.44114
2.41433
2.40575
2.40368
2.40691
2.43026
2.46728
2.47981
2.4751
2.46387
2.44429
2.40256
2.3416
2.3089
2.29887
2.29759
2.3018
2.32092
2.34018
2.34129
2.33761
2.33422
2.32954
2.31996
2.29859
2.25059
2.20518
2.19156
2.18958
2.19117
2.21088
2.24281
2.24872
2.24502
2.24014
2.23899
2.21358
2.2765
2.66883
3.47445
4.00072
4.28632
4.46497
4.52373
4.5124
4.47396
4.4088
4.29065
4.16532
1.40001
1.40001
1.40001
1.40001
1.40001
1.40001
1.40001
1.40001
1.40001
1.40001
1.40001
1.40001
1.40001
1.40001
1.40001
1.40001
1.40001
1.40001
1.40001
1.40001
1.40001
1.40001
1.40001
1.40001
1.40001
1.40001
1.40001
1.40001
1.40001
1.40001
1.40001
1.40001
1.40001
1.40001
1.40001
1.40001
1.40001
1.40001
1.40001
1.40001
1.40001
1.40001
1.40001
1.40001
1.40001
1.40001
1.40001
1.40001
1.40001
1.40001
1.40001
1.40001
1.40003
1.40119
1.43304
1.88793
2.89043
3.39786
3.68166
3.76734
3.74451
3.73905
3.73485
3.70382
3.663
3.64566
3.63154
3.61786
3.60944
3.60919
3.59318
3.56491
3.55098
3.5466
3.55102
3.54067
3.51979
3.50419
3.49184
3.47393
3.45561
3.4433
3.42668
3.40625
3.39586
3.38672
3.3745
3.36815
3.36047
3.34632
3.33472
3.32696
3.31525
3.29642
3.27927
3.26326
3.24522
3.23259
3.2241
3.21475
3.20609
3.1942
3.1762
3.16047
3.15453
3.1507
3.14837
3.14968
3.15469
3.17059
3.19769
3.23659
3.2932
3.31893
3.32013
3.31722
3.29931
3.2763
3.26373
3.25849
3.25807
3.26243
3.25962
3.24852
3.23213
3.20857
3.17152
3.13493
3.11163
3.09921
3.09635
3.10637
3.12357
3.12283
3.11037
3.09012
3.05846
3.00796
2.96648
2.94553
2.94001
2.94402
2.96592
2.98228
2.97911
2.96577
2.9425
2.90448
2.85515
2.82307
2.80962
2.80722
2.81242
2.82814
2.83406
2.82634
2.80679
2.77495
2.73191
2.70315
2.69224
2.69086
2.70008
2.71819
2.71951
2.70935
2.68716
2.648
2.60463
2.58437
2.57982
2.57954
2.59069
2.60529
2.60477
2.59989
2.59375
2.58188
2.56076
2.51838
2.46441
2.43793
2.43005
2.42836
2.43329
2.45986
2.49398
2.50121
2.49492
2.48219
2.46094
2.41745
2.36074
2.33154
2.32233
2.32148
2.32694
2.34498
2.35937
2.35876
2.35499
2.3514
2.34657
2.33742
2.31823
2.27446
2.22678
2.21056
2.20819
2.20919
2.22695
2.26111
2.27075
2.26719
2.26201
2.25751
2.25003
2.39185
2.97159
3.75773
4.15264
4.35954
4.51767
4.56231
4.54664
4.50542
4.4278
4.29685
4.18573
4.14794
1.40001
1.40001
1.40001
1.40001
1.40001
1.40001
1.40001
1.40001
1.40001
1.40001
1.40001
1.40001
1.40001
1.40001
1.40001
1.40001
1.40001
1.40001
1.40001
1.40001
1.40001
1.40001
1.40001
1.40001
1.40001
1.40001
1.40001
1.40001
1.40001
1.40001
1.40001
1.40001
1.40001
1.40001
1.40001
1.40001
1.40001
1.40001
1.40001
1.40001
1.40001
1.40001
1.40001
1.40001
1.40001
1.40001
1.40001
1.40001
1.40001
1.40001
1.40001
1.40001
1.40001
1.40001
1.40074
1.43976
1.88983
2.66493
3.36779
3.77347
3.78419
3.75068
3.70061
3.67019
3.66435
3.64195
3.62991
3.63019
3.63285
3.61525
3.58283
3.57147
3.57021
3.57864
3.56724
3.5444
3.5268
3.51763
3.50313
3.47877
3.46674
3.45392
3.43425
3.42008
3.41217
3.39934
3.38967
3.38453
3.37236
3.35913
3.35139
3.34109
3.32208
3.30266
3.28599
3.26809
3.25312
3.24635
3.23886
3.23106
3.22025
3.20514
3.18828
3.17593
3.16961
3.16294
3.15258
3.14231
3.14018
3.14506
3.16519
3.20362
3.26941
3.30494
3.30953
3.30544
3.29336
3.28532
3.28585
3.28976
3.28744
3.28111
3.26854
3.25067
3.22454
3.18783
3.15728
3.13816
3.12953
3.12897
3.14259
3.15428
3.14816
3.1337
3.11256
3.07826
3.03127
2.99789
2.98029
2.97641
2.98465
3.00646
3.01371
3.00578
2.98951
2.96555
2.92636
2.88124
2.85256
2.84133
2.8404
2.84936
2.86421
2.86522
2.85434
2.83242
2.79926
2.7574
2.72998
2.72036
2.71955
2.72961
2.7462
2.74573
2.73476
2.71197
2.67221
2.62929
2.60903
2.60446
2.6039
2.61423
2.62854
2.62797
2.62242
2.61457
2.60116
2.58031
2.54038
2.48934
2.46231
2.45501
2.45368
2.4604
2.48906
2.51921
2.52205
2.51441
2.50049
2.47716
2.4314
2.38036
2.35532
2.34715
2.34674
2.35348
2.36941
2.3779
2.37562
2.37186
2.36805
2.36302
2.35417
2.33689
2.29805
2.24995
2.23053
2.22769
2.2283
2.24436
2.27956
2.29211
2.28839
2.2867
2.26839
2.30184
2.57319
3.32061
3.97262
4.26905
4.43022
4.56341
4.59005
4.56959
4.53201
4.45107
4.31422
4.20944
4.17739
4.1702
1.40001
1.40001
1.40001
1.40001
1.40001
1.40001
1.40001
1.40001
1.40001
1.40001
1.40001
1.40001
1.40001
1.40001
1.40001
1.40001
1.40001
1.40001
1.40001
1.40001
1.40001
1.40001
1.40001
1.40001
1.40001
1.40001
1.40001
1.40001
1.40001
1.40001
1.40001
1.40001
1.40001
1.40001
1.40001
1.40001
1.40001
1.40001
1.40001
1.40001
1.40001
1.40001
1.40001
1.40001
1.40001
1.40001
1.40001
1.40001
1.40001
1.40001
1.40001
1.40001
1.40001
1.40001
1.40001
1.40093
1.44342
1.71295
2.3671
3.47181
3.73194
3.69362
3.67879
3.67345
3.64758
3.63816
3.65027
3.65286
3.64349
3.60715
3.59181
3.59119
3.60202
3.58962
3.56399
3.54742
3.54355
3.53135
3.50302
3.48788
3.47938
3.46294
3.44531
3.43782
3.42536
3.41077
3.40593
3.39735
3.38279
3.37341
3.36459
3.34714
3.32624
3.30955
3.29273
3.27606
3.26911
3.26261
3.25394
3.24303
3.22903
3.21406
3.20146
3.19306
3.18598
3.17444
3.15218
3.14026
3.13971
3.14408
3.15658
3.18215
3.23493
3.275
3.28483
3.29016
3.29438
3.3032
3.31455
3.31213
3.303
3.28915
3.27051
3.24195
3.20567
3.17938
3.16259
3.15662
3.15818
3.17393
3.17995
3.17056
3.15473
3.13192
3.09509
3.05471
3.02793
3.01434
3.01225
3.02421
3.04185
3.0409
3.02936
3.01176
2.98691
2.9477
2.90911
2.88455
2.87622
2.87702
2.88874
2.89846
2.8943
2.87985
2.85717
2.82399
2.78481
2.75896
2.75077
2.75073
2.76164
2.77459
2.77186
2.75917
2.73589
2.69659
2.65489
2.63492
2.63035
2.62979
2.63895
2.65189
2.65126
2.64515
2.63498
2.61991
2.59957
2.56296
2.51637
2.4886
2.48125
2.48019
2.48804
2.51757
2.54291
2.54274
2.53405
2.51885
2.49291
2.44588
2.40151
2.3797
2.37327
2.37393
2.38272
2.39415
2.39604
2.39234
2.38827
2.38397
2.37859
2.37021
2.35495
2.32171
2.27492
2.25191
2.24839
2.24859
2.26357
2.29797
2.313
2.30745
2.30768
2.30074
2.38382
2.82371
3.67782
4.14415
4.3548
4.4957
4.60706
4.62222
4.59942
4.55717
4.46985
4.3356
4.24144
4.21538
4.2098
4.23929
1.40001
1.40001
1.40001
1.40001
1.40001
1.40001
1.40001
1.40001
1.40001
1.40001
1.40001
1.40001
1.40001
1.40001
1.40001
1.40001
1.40001
1.40001
1.40001
1.40001
1.40001
1.40001
1.40001
1.40001
1.40001
1.40001
1.40001
1.40001
1.40001
1.40001
1.40001
1.40001
1.40001
1.40001
1.40001
1.40001
1.40001
1.40001
1.40001
1.40001
1.40001
1.40001
1.40001
1.40001
1.40001
1.40001
1.40001
1.40001
1.40001
1.40001
1.40001
1.40001
1.40001
1.40001
1.40001
1.40001
1.40072
1.41599
1.5551
2.38542
3.38285
3.55468
3.67389
3.69584
3.67497
3.67338
3.68016
3.68196
3.64614
3.61825
3.60951
3.61288
3.60688
3.58605
3.57294
3.56967
3.55556
3.5268
3.50746
3.50198
3.48964
3.47088
3.4627
3.45293
3.43471
3.42543
3.4202
3.4066
3.39519
3.38788
3.37249
3.34873
3.33202
3.31727
3.30067
3.2921
3.287
3.27777
3.26534
3.25204
3.23775
3.22573
3.21794
3.21137
3.20108
3.17851
3.15268
3.1452
3.14445
3.14923
3.1567
3.1672
3.19576
3.23029
3.2536
3.27822
3.30443
3.3234
3.32576
3.32112
3.30947
3.29134
3.26216
3.22722
3.20254
3.18725
3.18229
3.18591
3.20128
3.20234
3.1909
3.17335
3.14777
3.11032
3.07756
3.05619
3.04645
3.04599
3.05996
3.07052
3.06428
3.05065
3.03247
3.00569
2.96915
2.93853
2.91869
2.9131
2.9161
2.92692
2.92793
2.91871
2.9022
2.88032
2.8484
2.81388
2.79059
2.78411
2.78502
2.7962
2.80331
2.79737
2.78208
2.75845
2.72061
2.68147
2.66182
2.65759
2.65731
2.66609
2.67651
2.67463
2.6674
2.65455
2.63821
2.61834
2.58628
2.54522
2.51692
2.50927
2.50824
2.51688
2.54528
2.56506
2.56298
2.55358
2.53739
2.50863
2.46166
2.42415
2.40595
2.40128
2.40329
2.41392
2.41894
2.415
2.40909
2.40407
2.39929
2.39374
2.38609
2.37245
2.34473
2.30092
2.27472
2.27009
2.27003
2.28384
2.31674
2.33266
2.3296
2.32173
2.33494
2.51267
3.13627
3.979
4.29159
4.42296
4.5478
4.64745
4.65586
4.63121
4.58416
4.48379
4.34901
4.27441
4.25321
4.25037
4.28659
4.3742
1.40001
1.40001
1.40001
1.40001
1.40001
1.40001
1.40001
1.40001
1.40001
1.40001
1.40001
1.40001
1.40001
1.40001
1.40001
1.40001
1.40001
1.40001
1.40001
1.40001
1.40001
1.40001
1.40001
1.40001
1.40001
1.40001
1.40001
1.40001
1.40001
1.40001
1.40001
1.40001
1.40001
1.40001
1.40001
1.40001
1.40001
1.40001
1.40001
1.40001
1.40001
1.40001
1.40001
1.40001
1.40001
1.40001
1.40001
1.40001
1.40001
1.40001
1.40001
1.40001
1.40001
1.40001
1.40001
1.40001
1.40001
1.40014
1.40631
1.55138
2.38304
3.1206
3.55842
3.7545
3.74309
3.72998
3.70188
3.66198
3.64634
3.63918
3.62917
3.6179
3.61099
3.605
3.59824
3.57658
3.54822
3.53056
3.52834
3.51906
3.49771
3.48525
3.47986
3.46413
3.44811
3.44351
3.43289
3.41829
3.40847
3.39509
3.372
3.35341
3.34123
3.32589
3.3147
3.31005
3.30234
3.28846
3.2755
3.26266
3.25054
3.24255
3.2367
3.22674
3.20554
3.17864
3.16242
3.15854
3.15785
3.15873
3.158
3.15648
3.16641
3.19224
3.22511
3.26808
3.31221
3.32658
3.32769
3.32454
3.31037
3.28202
3.2516
3.22873
3.21485
3.21058
3.21562
3.22725
3.22348
3.2098
3.18988
3.16037
3.125
3.09932
3.08248
3.07569
3.07751
3.0912
3.09384
3.08457
3.07008
3.05061
3.02238
2.99173
2.9678
2.95311
2.94959
2.95416
2.95898
2.95304
2.93953
2.92238
2.90056
2.87217
2.84388
2.82431
2.81957
2.82226
2.83155
2.83161
2.82144
2.80339
2.77937
2.74339
2.70879
2.69029
2.68628
2.68659
2.69599
2.704
2.70051
2.69037
2.67384
2.65612
2.63707
2.61039
2.57547
2.54714
2.53901
2.53808
2.54669
2.5722
2.58611
2.58242
2.57278
2.55603
2.52502
2.47915
2.44778
2.43317
2.43027
2.43492
2.44486
2.44445
2.43557
2.42496
2.41881
2.41383
2.40834
2.40133
2.3894
2.36656
2.3273
2.29896
2.29269
2.29256
2.30484
2.33586
2.34961
2.34972
2.3407
2.38621
2.71935
3.50817
4.19179
4.39512
4.48051
4.59939
4.68392
4.68286
4.65745
4.60964
4.50397
4.37143
4.30499
4.28675
4.28882
4.3351
4.42481
4.47269
1.40001
1.40001
1.40001
1.40001
1.40001
1.40001
1.40001
1.40001
1.40001
1.40001
1.40001
1.40001
1.40001
1.40001
1.40001
1.40001
1.40001
1.40001
1.40001
1.40001
1.40001
1.40001
1.40001
1.40001
1.40001
1.40001
1.40001
1.40001
1.40001
1.40001
1.40001
1.40001
1.40001
1.40001
1.40001
1.40001
1.40001
1.40001
1.40001
1.40001
1.40001
1.40001
1.40001
1.40001
1.40001
1.40001
1.40001
1.40001
1.40001
1.40001
1.40001
1.40001
1.40001
1.40001
1.40001
1.40001
1.40001
1.40001
1.40008
1.406
1.56864
2.20298
2.92585
3.65735
3.77297
3.7193
3.66531
3.66138
3.66343
3.64723
3.62688
3.63132
3.63437
3.62228
3.59345
3.56539
3.55261
3.55394
3.54829
3.52664
3.51084
3.50782
3.49614
3.47548
3.46801
3.46081
3.44469
3.43127
3.41831
3.39802
3.3749
3.36402
3.35188
3.33832
3.3327
3.32591
3.31217
3.29865
3.28877
3.27766
3.26859
3.26176
3.25084
3.2299
3.20489
3.18769
3.1826
3.17896
3.17415
3.16554
3.15444
3.15166
3.15634
3.17655
3.20798
3.2535
3.30709
3.32319
3.32515
3.31941
3.29576
3.27269
3.25634
3.24668
3.24422
3.25008
3.25378
3.2455
3.22897
3.20589
3.17279
3.14032
3.11968
3.10649
3.10198
3.10691
3.11859
3.1152
3.10347
3.08694
3.06503
3.03851
3.01506
2.99587
2.98575
2.98366
2.9875
2.9854
2.97484
2.95875
2.9399
2.91807
2.89527
2.87309
2.85886
2.85597
2.86085
2.86501
2.8591
2.84371
2.82373
2.79871
2.76572
2.73662
2.72002
2.71637
2.7175
2.7274
2.73288
2.72809
2.71477
2.69473
2.67537
2.65709
2.63551
2.60667
2.57888
2.5704
2.56932
2.57694
2.59815
2.60635
2.60145
2.59173
2.57474
2.54256
2.49816
2.47155
2.46055
2.45923
2.46652
2.47383
2.46976
2.45524
2.44048
2.43298
2.42788
2.42254
2.41605
2.40629
2.38783
2.35459
2.32496
2.31622
2.31593
2.32605
2.35551
2.36534
2.36644
2.37122
2.4717
2.9857
3.89266
4.35366
4.4755
4.53749
4.64735
4.71859
4.71359
4.68786
4.63662
4.52859
4.40116
4.34296
4.32772
4.33214
4.38554
4.47541
4.51093
4.49649
1.40001
1.40001
1.40001
1.40001
1.40001
1.40001
1.40001
1.40001
1.40001
1.40001
1.40001
1.40001
1.40001
1.40001
1.40001
1.40001
1.40001
1.40001
1.40001
1.40001
1.40001
1.40001
1.40001
1.40001
1.40001
1.40001
1.40001
1.40001
1.40001
1.40001
1.40001
1.40001
1.40001
1.40001
1.40001
1.40001
1.40001
1.40001
1.40001
1.40001
1.40001
1.40001
1.40001
1.40001
1.40001
1.40001
1.40001
1.40001
1.40001
1.40001
1.40001
1.40001
1.40001
1.40001
1.40001
1.40001
1.40001
1.40001
1.40001
1.40008
1.40689
1.51142
1.87771
2.90145
3.66493
3.62531
3.65718
3.67292
3.66064
3.64223
3.65069
3.65831
3.64681
3.61002
3.57931
3.56989
3.57613
3.57231
3.55071
3.53719
3.53467
3.52728
3.50482
3.49272
3.49017
3.47474
3.45618
3.44154
3.42366
3.39918
3.38508
3.37758
3.36397
3.35591
3.34951
3.33698
3.32185
3.31445
3.3059
3.2957
3.2868
3.27431
3.25337
3.22932
3.21306
3.20797
3.20448
3.19747
3.18482
3.16532
3.15431
3.15317
3.1563
3.17348
3.19615
3.23123
3.28158
3.30211
3.30367
3.29422
3.28495
3.27878
3.27685
3.28368
3.28691
3.28181
3.26951
3.2499
3.22323
3.18775
3.15804
3.13958
3.12907
3.1264
3.1345
3.14315
3.13625
3.12143
3.10144
3.07701
3.05529
3.03757
3.02267
3.01567
3.0147
3.0154
3.00868
2.99461
2.97571
2.95437
2.93511
2.91765
2.90109
2.89234
2.89174
2.89821
2.89679
2.88509
2.86479
2.84195
2.81573
2.7884
2.7645
2.75052
2.74743
2.75004
2.76009
2.76207
2.75481
2.73825
2.71638
2.69566
2.67813
2.66025
2.63681
2.61106
2.60237
2.60121
2.60718
2.62289
2.62644
2.62072
2.61101
2.59394
2.56161
2.51937
2.49537
2.48711
2.48735
2.49692
2.50189
2.4947
2.4757
2.45619
2.44713
2.44218
2.4371
2.43114
2.42319
2.40882
2.38158
2.35164
2.34038
2.33998
2.34788
2.37275
2.38554
2.3795
2.40212
2.61566
3.30256
4.21568
4.48095
4.55235
4.58929
4.68749
4.75091
4.74278
4.71687
4.66277
4.5504
4.43277
4.38362
4.36924
4.37725
4.43633
4.52255
4.54651
4.53037
4.49724
1.40001
1.40001
1.40001
1.40001
1.40001
1.40001
1.40001
1.40001
1.40001
1.40001
1.40001
1.40001
1.40001
1.40001
1.40001
1.40001
1.40001
1.40001
1.40001
1.40001
1.40001
1.40001
1.40001
1.40001
1.40001
1.40001
1.40001
1.40001
1.40001
1.40001
1.40001
1.40001
1.40001
1.40001
1.40001
1.40001
1.40001
1.40001
1.40001
1.40001
1.40001
1.40001
1.40001
1.40001
1.40001
1.40001
1.40001
1.40001
1.40001
1.40001
1.40001
1.40001
1.40001
1.40001
1.40001
1.40001
1.40001
1.40001
1.40001
1.40001
1.40006
1.40266
1.43812
1.79453
2.90975
3.38172
3.59429
3.71133
3.69759
3.69107
3.69449
3.68421
3.63949
3.59954
3.58647
3.58661
3.58948
3.57421
3.56295
3.56237
3.55688
3.53103
3.51314
3.51177
3.50167
3.48089
3.46375
3.44748
3.42597
3.40527
3.40046
3.39122
3.37979
3.37403
3.36313
3.34714
3.33935
3.33278
3.32174
3.31042
3.29677
3.27707
3.2533
3.23712
3.23201
3.22841
3.22066
3.20741
3.18634
3.16738
3.16179
3.16127
3.16667
3.1745
3.18252
3.19629
3.22628
3.25394
3.2668
3.27736
3.28802
3.29961
3.31639
3.31959
3.31099
3.29521
3.27347
3.2441
3.20689
3.17884
3.16087
3.1524
3.15084
3.1607
3.16639
3.15698
3.1395
3.11534
3.0898
3.07229
3.05801
3.04757
3.04281
3.04265
3.03919
3.02927
3.0123
2.98987
2.96807
2.95254
2.93882
2.92778
2.9228
2.92672
2.93195
2.92616
2.90923
2.88487
2.85672
2.83157
2.81091
2.79161
2.7809
2.77853
2.78383
2.79394
2.79265
2.78208
2.76123
2.73633
2.71468
2.69851
2.68332
2.66443
2.64223
2.63406
2.63269
2.6364
2.64671
2.64672
2.64063
2.63125
2.6141
2.5824
2.54215
2.51942
2.51326
2.51467
2.52574
2.52932
2.52053
2.49843
2.47339
2.46182
2.45725
2.45248
2.44705
2.44027
2.42968
2.40827
2.37931
2.36511
2.36421
2.37047
2.38898
2.40215
2.4018
2.45552
2.84274
3.68353
4.44795
4.57362
4.60355
4.635
4.72924
4.78295
4.76996
4.74343
4.68996
4.57968
4.46693
4.42162
4.40983
4.42339
4.48805
4.56804
4.58204
4.56279
4.52582
4.4487
1.40001
1.40001
1.40001
1.40001
1.40001
1.40001
1.40001
1.40001
1.40001
1.40001
1.40001
1.40001
1.40001
1.40001
1.40001
1.40001
1.40001
1.40001
1.40001
1.40001
1.40001
1.40001
1.40001
1.40001
1.40001
1.40001
1.40001
1.40001
1.40001
1.40001
1.40001
1.40001
1.40001
1.40001
1.40001
1.40001
1.40001
1.40001
1.40001
1.40001
1.40001
1.40001
1.40001
1.40001
1.40001
1.40001
1.40001
1.40001
1.40001
1.40001
1.40001
1.40001
1.40001
1.40001
1.40001
1.40001
1.40001
1.40001
1.40001
1.40001
1.40001
1.40001
1.40072
1.42803
1.82133
2.7361
3.31152
3.66969
3.75038
3.73937
3.70443
3.65818
3.62314
3.61097
3.60546
3.59392
3.59364
3.58777
3.58965
3.58759
3.55819
3.53115
3.52785
3.52488
3.50364
3.48265
3.46939
3.45333
3.42924
3.41968
3.417
3.40493
3.39748
3.38954
3.37435
3.36465
3.35791
3.34557
3.33137
3.31736
3.30031
3.27811
3.26137
3.25574
3.2508
3.24182
3.22854
3.20968
3.18946
3.18104
3.17914
3.18136
3.17943
3.17406
3.16362
3.15998
3.17622
3.20769
3.2404
3.27185
3.30357
3.33114
3.3378
3.33373
3.32044
3.29938
3.26873
3.23017
3.20309
3.18619
3.17867
3.17737
3.18686
3.189
3.17796
3.15819
3.13003
3.10463
3.08913
3.07732
3.07049
3.06882
3.06853
3.06152
3.04768
3.02706
3.00177