/*--------------------------------*- C++ -*----------------------------------*\
  =========                 |
  \\      /  F ield         | OpenFOAM: The Open Source CFD Toolbox
   \\    /   O peration     | Website:  https://openfoam.org
    \\  /    A nd           | Version:  7
     \\/     M anipulation  |
\*---------------------------------------------------------------------------*/
FoamFile
{
    version     2.0;
    format      ascii;
    class       volScalarField;
    location    "2.8";
    object      rho;
}
// * * * * * * * * * * * * * * * * * * * * * * * * * * * * * * * * * * * * * //

dimensions      [1 -3 0 0 0 0 0];

internalField   nonuniform List<scalar> 
4080
(
1.40001
1.40001
1.40001
1.40001
1.40001
1.40001
1.40001
1.40001
1.40001
1.40001
1.40001
1.40001
1.40001
1.40001
1.40001
1.40001
1.40001
1.87652
4.76312
5.51664
5.60162
5.71832
5.81689
5.90118
1.40001
1.40001
1.40001
1.40001
1.40001
1.40001
1.40001
1.40001
1.40001
1.40001
1.40001
1.40001
1.40001
1.40001
1.40001
1.40001
1.40001
1.80541
4.63874
5.48378
5.56883
5.6749
5.76234
5.8064
1.40001
1.40001
1.40001
1.40001
1.40001
1.40001
1.40001
1.40001
1.40001
1.40001
1.40001
1.40001
1.40001
1.40001
1.40001
1.40001
1.40001
1.65073
4.4335
5.44435
5.50079
5.57192
5.61082
5.65794
1.40001
1.40001
1.40001
1.40001
1.40001
1.40001
1.40001
1.40001
1.40001
1.40001
1.40001
1.40001
1.40001
1.40001
1.40001
1.40001
1.40001
1.43851
4.08894
5.38017
5.39922
5.44902
5.44089
5.49775
1.40001
1.40001
1.40001
1.40001
1.40001
1.40001
1.40001
1.40001
1.40001
1.40001
1.40001
1.40001
1.40001
1.40001
1.40001
1.40001
1.40001
1.4005
3.5086
5.21532
5.23174
5.22348
4.97879
4.25832
1.40001
1.40001
1.40001
1.40001
1.40001
1.40001
1.40001
1.40001
1.40001
1.40001
1.40001
1.40001
1.40001
1.40001
1.40001
1.40001
1.40001
1.4
2.78129
5.01678
5.12126
5.00239
4.71105
4.02048
1.40001
1.40001
1.40001
1.40001
1.40001
1.40001
1.40001
1.40001
1.40001
1.40001
1.40001
1.40001
1.40001
1.40001
1.40001
1.40001
1.40001
1.4
1.99012
4.69992
5.07644
4.868
4.56156
3.87143
1.40001
1.40001
1.40001
1.40001
1.40001
1.40001
1.40001
1.40001
1.40001
1.40001
1.40001
1.40001
1.40001
1.40001
1.40001
1.40001
1.40001
1.4
1.47737
3.88889
4.9296
4.70636
4.41773
3.82328
1.40001
1.40001
1.40001
1.40001
1.40001
1.40001
1.40001
1.40001
1.40001
1.40001
1.40001
1.40001
1.40001
1.40001
1.40001
1.40001
1.40001
1.40001
1.40035
2.71662
4.68431
4.66138
4.34227
3.8626
1.40001
1.40001
1.40001
1.40001
1.40001
1.40001
1.40001
1.40001
1.40001
1.40001
1.40001
1.40001
1.40001
1.40001
1.40001
1.40001
1.40001
1.40001
1.4
1.67895
4.08794
4.70739
4.35439
3.92456
1.40001
1.40001
1.40001
1.40001
1.40001
1.40001
1.40001
1.40001
1.40001
1.40001
1.40001
1.40001
1.40001
1.40001
1.40001
1.40001
1.40001
1.40001
1.4
1.40983
2.86679
4.52872
4.37471
3.97684
1.40001
1.40001
1.40001
1.40001
1.40001
1.40001
1.40001
1.40001
1.40001
1.40001
1.40001
1.40001
1.40001
1.40001
1.40001
1.40001
1.40001
1.40001
1.4
1.40002
1.72127
3.84882
4.4584
4.06856
1.40001
1.40001
1.40001
1.40001
1.40001
1.40001
1.40001
1.40001
1.40001
1.40001
1.40001
1.40001
1.40001
1.40001
1.40001
1.40001
1.40001
1.40001
1.40001
1.40001
1.41289
2.4948
4.20904
4.14192
1.40001
1.40001
1.40001
1.40001
1.40001
1.40001
1.40001
1.40001
1.40001
1.40001
1.40001
1.40001
1.40001
1.40001
1.40001
1.40001
1.40001
1.40001
1.40001
1.40001
1.40009
1.57487
3.28838
4.18853
1.40001
1.40001
1.40001
1.40001
1.40001
1.40001
1.40001
1.40001
1.40001
1.40001
1.40001
1.40001
1.40001
1.40001
1.40001
1.40001
1.40001
1.40001
1.40001
1.40001
1.40001
1.40449
1.97208
3.68438
1.40001
1.40001
1.40001
1.40001
1.40001
1.40001
1.40001
1.40001
1.40001
1.40001
1.40001
1.40001
1.40001
1.40001
1.40001
1.40001
1.40001
1.40001
1.40001
1.40001
1.40001
1.40003
1.44483
2.42009
1.40001
1.40001
1.40001
1.40001
1.40001
1.40001
1.40001
1.40001
1.40001
1.40001
1.40001
1.40001
1.40001
1.40001
1.40001
1.40001
1.40001
1.40001
1.40001
1.40001
1.40001
1.40001
1.4007
1.54686
1.40001
1.40001
1.40001
1.40001
1.40001
1.40001
1.40001
1.40001
1.40001
1.40001
1.40001
1.40001
1.40001
1.40001
1.40001
1.40001
1.40001
1.40001
1.40001
1.40001
1.40001
1.40001
1.40001
1.40435
1.40001
1.40001
1.40001
1.40001
1.40001
1.40001
1.40001
1.40001
1.40001
1.40001
1.40001
1.40001
1.40001
1.40001
1.40001
1.40001
1.40001
1.40001
1.40001
1.40001
1.40001
1.40001
1.40001
1.40004
1.40001
1.40001
1.40001
1.40001
1.40001
1.40001
1.40001
1.40001
1.40001
1.40001
1.40001
1.40001
1.40001
1.40001
1.40001
1.40001
1.40001
1.40001
1.40001
1.40001
1.40001
1.40001
1.40001
1.40001
1.40001
1.40001
1.40001
1.40001
1.40001
1.40001
1.40001
1.40001
1.40001
1.40001
1.40001
1.40001
1.40001
1.40001
1.40001
1.40001
1.40001
1.40001
1.40001
1.40001
1.40001
1.40001
1.40001
1.40001
1.40001
1.40001
1.40001
1.40001
1.40001
1.40001
1.40001
1.40001
1.40001
1.40001
1.40001
1.40001
1.40001
1.40001
1.40001
1.40001
1.40001
1.40001
1.40001
1.40001
1.40001
1.40001
1.40001
1.40001
1.40001
1.40001
1.40001
1.40001
1.40001
1.40001
1.40001
1.40001
1.40001
1.40001
1.40001
1.40001
1.40001
1.40001
1.40001
1.40001
1.40001
1.40001
1.40001
1.40001
1.40001
1.40001
1.40001
1.40001
1.40001
1.40001
1.40001
1.40001
1.40001
1.40001
1.40001
1.40001
1.40001
1.40001
1.40001
1.40001
1.40001
1.40001
1.40001
1.40001
1.40001
1.40001
1.40001
1.40001
1.40001
1.40001
1.40001
1.40001
1.40001
1.40001
1.40001
1.40001
1.40001
1.40001
1.40001
1.40001
1.40001
1.40001
1.40001
1.40001
1.40001
1.40001
1.40001
1.40001
1.40001
1.40001
1.40001
1.40001
1.40001
1.40001
1.40001
1.40001
1.40001
1.40001
1.40001
1.40001
1.40001
1.40001
1.40001
1.40001
1.40001
1.40001
1.40001
1.40001
1.40001
1.40001
1.40001
1.40001
1.40001
1.40001
1.40001
1.40001
1.40001
1.40001
1.40001
1.40001
1.40001
1.40001
1.40001
1.40001
1.40001
1.40001
1.40001
1.40001
1.40001
1.40001
1.40001
1.40001
1.40001
1.40001
1.40001
1.40001
1.40001
1.40001
1.40001
1.40001
1.40001
1.40001
1.40001
1.40001
1.40001
1.40001
1.40001
1.40001
1.40001
1.40001
1.40001
1.40001
1.40001
1.40001
1.40001
1.40001
1.40001
1.40001
1.40001
1.40001
1.40001
1.40001
1.40001
1.40001
1.40001
1.40001
1.40001
1.40001
1.40001
1.40001
1.40001
1.40001
1.40001
1.40001
1.40001
1.40001
1.40001
1.40001
1.40001
1.40001
1.40001
1.40001
1.40001
1.40001
1.40001
1.40001
1.40001
1.40001
1.40001
1.40001
1.40001
1.40001
1.40001
1.40001
1.40001
1.40001
1.40001
1.40001
1.40001
1.40001
1.40001
1.40001
1.40001
1.40001
1.40001
1.40001
1.40001
1.40001
1.40001
1.40001
1.40001
1.40001
1.40001
1.40001
1.40001
1.40001
1.40001
1.40001
1.40001
1.40001
1.40001
1.40001
1.40001
1.40001
1.40001
1.40001
1.40001
1.40001
1.40001
1.40001
1.40001
1.40001
1.40001
1.40001
1.40001
1.40001
1.40001
1.40001
1.40001
1.40001
1.40001
1.40001
1.40001
1.40001
1.40001
1.40001
1.40001
1.40001
1.40001
1.40001
1.40001
1.40001
1.40001
1.40001
1.40001
1.40001
1.40001
1.40001
1.40001
1.40001
1.40001
1.40001
1.40001
1.40001
1.40001
1.40001
1.40001
1.40001
1.40001
1.40001
1.40001
1.40001
1.40001
1.40001
1.40001
1.40001
1.40001
1.40001
1.40001
1.40001
1.40001
1.40001
1.40001
1.40001
1.40001
1.40001
1.40001
1.40001
1.40001
1.40001
1.40001
1.40001
1.40001
1.40001
1.40001
1.40001
1.40001
1.40001
1.40001
1.40001
1.40001
1.40001
1.40001
1.40001
1.40001
1.40001
1.40001
1.40001
1.40001
1.40001
1.40001
1.40001
1.40001
1.40001
1.40001
1.40001
1.40001
1.40001
1.40001
1.40001
1.40001
1.40001
1.40001
1.40001
1.40001
1.40001
1.40001
1.40001
1.40001
1.40001
1.40001
1.40001
1.40001
1.40001
1.40001
1.40001
1.40001
1.40001
1.40001
1.40001
1.40001
1.40001
1.40001
1.40001
1.40001
1.40001
1.40001
1.40001
1.40001
1.40001
1.40001
1.40001
1.40001
1.40001
1.40001
1.40001
1.40001
1.40001
1.40001
1.40001
1.40001
1.40001
1.40001
1.40001
1.40001
1.40001
1.40001
1.40001
1.40001
1.40001
1.40001
1.40001
1.40001
1.40001
1.40001
1.40001
1.40001
1.40001
1.40001
1.40001
1.40001
1.40001
1.40001
1.40001
1.40001
1.40001
1.40001
1.40001
1.40001
1.40001
1.40001
1.40001
1.40001
1.40001
1.40001
1.40001
1.40001
1.40001
1.40001
1.40001
1.40001
1.40001
1.40001
1.40001
1.40001
1.40001
1.40001
1.40001
1.40001
1.40001
1.40001
1.40001
1.40001
1.40001
1.40001
1.40001
1.40001
1.40001
1.40001
1.40001
1.40001
1.40001
1.40001
1.40001
1.40001
1.40001
1.40001
1.40001
1.40001
1.40001
1.40001
1.40001
1.40001
1.40001
1.40001
1.40001
1.40001
1.40001
1.40001
1.40001
1.40001
1.40001
1.40001
1.40001
1.40001
1.40001
1.40001
1.40001
1.40001
1.40001
1.40001
1.40001
1.40001
1.40001
1.40001
1.40001
1.63326
0.612415
1.06943
1.84687
2.1177
2.2604
2.32996
2.35294
2.34937
2.34353
2.33642
2.33933
2.31662
1.34952
1.67019
2.27086
2.29637
2.32101
2.3514
2.36615
2.35923
2.35257
2.34362
2.34434
2.81717
1.94757
1.82641
2.28556
2.41434
2.35835
2.36699
2.37793
2.37118
2.36508
2.34609
2.34474
3.11906
2.42407
2.03184
2.29388
2.65874
2.63151
2.59248
2.53222
2.4709
2.42893
2.38295
2.38806
3.32725
2.7745
2.25386
2.28925
2.61258
2.85456
2.83105
2.69979
2.59468
2.50591
2.38248
2.06047
3.47102
3.00289
2.50974
2.32768
2.49343
2.83658
3.00513
2.89896
2.81114
2.69562
2.53065
2.25997
3.57735
3.18347
2.75303
2.42096
2.44925
2.72411
3.05021
3.03379
2.96948
2.87778
2.71385
2.47356
3.70645
3.35743
2.97073
2.60712
2.48576
2.5879
2.96959
3.08459
3.0556
3.00126
2.88061
2.69351
3.83278
3.49927
3.16674
2.8063
2.55893
2.57892
2.82231
3.07404
3.10617
3.07221
2.98819
2.85412
3.99149
3.66034
3.35363
3.01043
2.71558
2.61406
2.70086
3.00161
3.1358
3.12073
3.05986
2.95853
4.04626
3.82761
3.51288
3.20447
2.88387
2.68532
2.69513
2.86732
3.10951
3.16464
3.12457
3.04023
3.79397
3.93692
3.70331
3.39761
3.08258
2.81605
2.73326
2.80332
3.04781
3.20104
3.18091
3.11692
2.79362
3.81119
3.8307
3.60415
3.30519
2.98657
2.80365
2.81225
2.93786
3.17723
3.22901
3.18697
1.70121
3.03298
3.77405
3.75428
3.52833
3.21011
2.93289
2.84641
2.89583
3.09515
3.26181
3.25131
1.41495
1.85305
3.15624
3.72115
3.68807
3.46277
3.12844
2.91754
2.91638
2.99216
3.21506
3.30535
1.40017
1.43186
1.96885
3.20624
3.66684
3.63485
3.39803
3.08456
2.9606
2.99618
3.13189
3.2994
1.40001
1.40049
1.4497
2.04228
3.20909
3.61295
3.58437
3.34422
3.0918
3.02517
3.07452
3.24986
1.40001
1.40001
1.40094
1.46424
2.07436
3.17617
3.55648
3.52726
3.31538
3.11701
3.10031
3.16704
1.40001
1.40001
1.40001
1.40139
1.47223
2.07004
3.11334
3.49321
3.46563
3.29999
3.1635
3.1788
1.40001
1.40001
1.40001
1.40001
1.40169
1.47278
2.0349
3.02221
3.42858
3.4083
3.30391
3.22394
1.40001
1.40001
1.40001
1.40001
1.40001
1.40175
1.46677
1.9727
2.92164
3.35718
3.35874
3.31785
1.40001
1.40001
1.40001
1.40001
1.40001
1.40001
1.40153
1.45721
1.90332
2.76937
3.28695
3.34829
1.40001
1.40001
1.40001
1.40001
1.40001
1.40001
1.40001
1.40133
1.44298
1.82467
2.59437
3.22759
1.40001
1.40001
1.40001
1.40001
1.40001
1.40001
1.40001
1.40001
1.40081
1.43433
1.71462
2.45021
1.40001
1.40001
1.40001
1.40001
1.40001
1.40001
1.40001
1.40001
1.40001
1.40061
1.42205
1.62355
1.40001
1.40001
1.40001
1.40001
1.40001
1.40001
1.40001
1.40001
1.40001
1.40001
1.40036
1.4121
1.40001
1.40001
1.40001
1.40001
1.40001
1.40001
1.40001
1.40001
1.40001
1.40001
1.40001
1.40017
1.40001
1.40001
1.40001
1.40001
1.40001
1.40001
1.40001
1.40001
1.40001
1.40001
1.40001
1.40001
1.40001
1.40001
1.40001
1.40001
1.40001
1.40001
1.40001
1.40001
1.40001
1.40001
1.40001
1.40001
1.40001
1.40001
1.40001
1.40001
1.40001
1.40001
1.40001
1.40001
1.40001
1.40001
1.40001
1.40001
1.40001
1.40001
1.40001
1.40001
1.40001
1.40001
1.40001
1.40001
1.40001
1.40001
1.40001
1.40001
1.40001
1.40001
1.40001
1.40001
1.40001
1.40001
1.40001
1.40001
1.40001
1.40001
1.40001
1.40001
1.40001
1.40001
1.40001
1.40001
1.40001
1.40001
1.40001
1.40001
1.40001
1.40001
1.40001
1.40001
1.40001
1.40001
1.40001
1.40001
1.40001
1.40001
1.40001
1.40001
1.40001
1.40001
1.40001
1.40001
1.40001
1.40001
1.40001
1.40001
1.40001
1.40001
1.40001
1.40001
1.40001
1.40001
1.40001
1.40001
1.40001
1.40001
1.40001
1.40001
1.40001
1.40001
1.40001
1.40001
1.40001
1.40001
1.40001
1.40001
1.07407
0.784245
0.829271
0.881571
0.943466
0.994153
1.01431
1.00798
0.993624
0.992684
0.996247
0.995976
0.990621
0.984309
0.977363
0.973244
0.972358
0.972337
0.976201
0.981786
0.982893
0.980763
0.97783
0.973433
0.96712
0.962752
0.961331
0.960998
0.963004
0.967005
0.967956
0.966524
0.964469
0.961387
0.956234
0.950394
0.9472
0.94609
0.946218
0.949429
0.952342
0.951826
0.950134
0.947357
0.941974
0.934197
0.92992
1.49937
2.22119
2.33188
2.35788
2.37556
2.38796
2.39009
2.38057
2.36791
2.36327
2.36567
2.37455
2.38808
2.398
2.39605
2.37596
2.33781
2.29782
2.26661
2.2464
2.23847
2.24283
2.25456
2.26566
2.25416
2.2216
2.17807
2.12187
2.07236
2.04251
2.02428
2.02152
2.03011
2.04115
2.05346
2.05387
2.01364
1.6043
1.21886
1.10614
1.02877
0.996948
0.990234
0.992036
0.998229
1.00147
1.00964
1.01228
1.01048
1.01065
1.00545
1.00112
0.999512
0.998348
0.997433
0.995642
0.991299
0.988167
0.986778
0.98667
0.9863
0.98502
0.983096
0.98061
0.978
0.975213
0.97282
0.971431
0.971322
0.971644
0.970893
0.969409
0.96707
0.962931
0.958075
0.954383
0.952638
0.95239
0.954751
0.955987
0.95507
0.953228
0.949777
0.939701
1.45311
2.23539
2.37397
2.39634
2.40986
2.42312
2.43176
2.44119
2.43519
2.40994
2.38501
2.36922
2.36571
2.37489
2.39177
2.40456
2.39813
2.37264
2.33936
2.30424
2.27291
2.24757
2.23138
2.22741
2.22657
2.21747
2.2008
2.17869
2.15288
2.12016
2.08779
2.06297
2.04751
2.0384
2.03116
2.02146
1.99298
1.9905
1.55668
1.28753
1.16406
1.04837
1.00112
1.01786
1.04903
1.0805
1.09064
1.09226
1.08971
1.0805
1.06398
1.05063
1.04678
1.04626
1.04801
1.04667
1.04238
1.03599
1.02959
1.02513
1.02249
1.02116
1.0209
1.02089
1.01991
1.01804
1.01351
1.00539
0.999808
0.997598
0.99643
0.996865
0.998369
0.997669
0.995931
0.992964
0.987194
0.980037
0.975764
0.973668
0.972576
0.972397
0.972557
0.977624
1.3866
2.36064
2.55743
2.49727
2.49463
2.50784
2.52012
2.55342
2.58975
2.58903
2.55924
2.52748
2.49662
2.46885
2.45706
2.46563
2.47635
2.47421
2.46351
2.44762
2.42355
2.38678
2.33515
2.28048
2.24357
2.22286
2.21791
2.22406
2.2306
2.22966
2.2179
2.19358
2.15281
2.0969
2.0456
2.01179
1.98282
2.3333
1.94423
1.58473
1.42317
1.28448
1.14695
1.1254
1.11727
1.11335
1.11539
1.11722
1.12724
1.13476
1.13187
1.1248
1.11829
1.11382
1.11117
1.10624
1.10127
1.09554
1.08861
1.08539
1.08373
1.08111
1.07815
1.07605
1.07381
1.07092
1.06617
1.05838
1.05318
1.05115
1.04959
1.04789
1.04639
1.04476
1.04242
1.03884
1.03315
1.02719
1.02373
1.02154
1.01846
1.01436
1.01762
1.05562
1.36238
2.44648
2.86255
2.76799
2.72724
2.68336
2.66061
2.66925
2.70362
2.72698
2.72655
2.71062
2.6863
2.65193
2.62219
2.60858
2.60239
2.59326
2.57943
2.56528
2.54811
2.52333
2.48768
2.43927
2.38634
2.34836
2.33068
2.32382
2.32222
2.3199
2.30986
2.29105
2.26159
2.211
2.1413
2.08602
2.05416
2.58358
2.26295
1.92209
1.67152
1.50857
1.34053
1.23845
1.19739
1.15597
1.13102
1.13728
1.15034
1.16852
1.18133
1.18893
1.19729
1.19613
1.19068
1.18041
1.16499
1.14765
1.13602
1.13453
1.13502
1.13769
1.14189
1.1429
1.14078
1.13471
1.12369
1.11081
1.10497
1.10357
1.10303
1.10292
1.10315
1.10259
1.10079
1.09527
1.08522
1.07787
1.07576
1.07336
1.07042
1.07335
1.10569
1.32921
1.68886
2.20124
2.6975
2.91701
2.97972
2.92101
2.88789
2.85526
2.83513
2.82905
2.83633
2.84025
2.83548
2.82177
2.80229
2.77876
2.74825
2.7225
2.69729
2.67476
2.65449
2.63154
2.60543
2.5774
2.54473
2.50437
2.46807
2.44682
2.42933
2.41019
2.3878
2.36231
2.33208
2.29397
2.24264
2.19154
2.15708
2.76549
2.49653
2.20041
1.94071
1.75404
1.56821
1.41259
1.3455
1.28211
1.2029
1.19358
1.18929
1.1821
1.18219
1.19076
1.21051
1.22497
1.23057
1.22926
1.22101
1.20071
1.18722
1.18235
1.17959
1.1793
1.1817
1.18491
1.18397
1.17737
1.16672
1.1571
1.15252
1.14997
1.14824
1.14722
1.14709
1.14712
1.14601
1.13996
1.13072
1.12547
1.12155
1.11784
1.1203
1.15409
1.33852
1.804
2.07674
2.12539
2.29222
2.58368
2.83832
2.93998
3.00361
2.99305
2.96909
2.95441
2.93681
2.92577
2.91748
2.91478
2.90897
2.88011
2.83214
2.7903
2.76183
2.73597
2.71743
2.70807
2.69856
2.68431
2.66332
2.63092
2.57851
2.52088
2.48827
2.46526
2.44206
2.41936
2.39782
2.37741
2.35451
2.32528
2.26969
2.89123
2.68309
2.42644
2.16804
1.96938
1.78863
1.6157
1.51194
1.4206
1.30787
1.25859
1.24021
1.20969
1.19384
1.19932
1.21087
1.22204
1.23117
1.24053
1.24663
1.24425
1.24058
1.23646
1.22983
1.22044
1.21045
1.20518
1.19904
1.19131
1.18778
1.18711
1.18792
1.18934
1.18972
1.18754
1.18451
1.18083
1.17383
1.16373
1.15875
1.15559
1.15407
1.15665
1.19943
1.39326
1.8344
2.15487
2.231
2.19787
2.17865
2.23567
2.43882
2.67506
2.84781
2.94047
2.96761
2.99793
3.00182
3.00287
2.99087
2.97082
2.95438
2.93214
2.88883
2.83207
2.79185
2.77073
2.75733
2.75392
2.75571
2.74441
2.72596
2.7001
2.65543
2.58631
2.52396
2.49027
2.46985
2.45412
2.44385
2.43797
2.42658
2.41153
2.36077
2.99732
2.82312
2.59829
2.3712
2.17843
1.98
1.79561
1.67972
1.58307
1.46029
1.37112
1.33551
1.28754
1.24111
1.2301
1.23437
1.22865
1.22572
1.23073
1.24245
1.25438
1.2591
1.26348
1.26237
1.25566
1.2427
1.2275
1.2147
1.20664
1.20531
1.20555
1.20872
1.21324
1.21359
1.21083
1.20595
1.19833
1.18729
1.18062
1.17812
1.17682
1.18065
1.21664
1.47025
1.88024
2.23928
2.25472
2.22824
2.21942
2.2066
2.22063
2.24039
2.31854
2.46524
2.66465
2.80952
2.9192
2.95669
2.98305
3.0197
3.00789
2.98026
2.95575
2.92331
2.88201
2.83059
2.79466
2.77618
2.76773
2.77004
2.76227
2.74474
2.72226
2.69157
2.6459
2.58333
2.52721
2.49904
2.48333
2.47334
2.46898
2.46015
2.44804
2.40635
3.08913
2.94284
2.75532
2.53882
2.34908
2.16683
1.9806
1.83945
1.73312
1.6019
1.49743
1.44478
1.39495
1.31038
1.2664
1.26457
1.24647
1.2284
1.23036
1.23979
1.25104
1.26005
1.26345
1.2659
1.26553
1.26231
1.25447
1.24319
1.23507
1.22887
1.22471
1.22461
1.22585
1.22463
1.22097
1.2141
1.20598
1.20051
1.19774
1.19669
1.20133
1.23863
1.47449
1.99672
2.24672
2.31638
2.28385
2.2376
2.22858
2.22946
2.23407
2.21625
2.20438
2.21254
2.28298
2.42103
2.61531
2.78485
2.8827
2.95431
2.98291
2.99029
2.97586
2.94615
2.92459
2.88928
2.84711
2.8048
2.78019
2.76543
2.75286
2.74267
2.72506
2.70412
2.68007
2.64597
2.59628
2.54133
2.50826
2.49103
2.47692
2.46482
2.453
2.41714
3.18172
3.0562
2.88563
2.69467
2.51518
2.33111
2.14078
2.00118
1.88235
1.75481
1.62585
1.56225
1.50348
1.4184
1.35058
1.33069
1.29932
1.2596
1.24725
1.25086
1.2532
1.25192
1.25329
1.25895
1.26482
1.26596
1.26611
1.26595
1.26336
1.25822
1.25123
1.24397
1.23872
1.23365
1.22727
1.21861
1.2135
1.21229
1.21212
1.21803
1.27616
1.50556
2.03611
2.35161
2.35729
2.33951
2.3205
2.2796
2.25838
2.24413
2.22754
2.20779
2.19547
2.19064
2.17966
2.17886
2.24044
2.38631
2.57423
2.74911
2.85797
2.91285
2.9471
2.969
2.96091
2.93541
2.90741
2.86329
2.81222
2.77125
2.75083
2.73615
2.72268
2.71225
2.69682
2.67875
2.65376
2.61218
2.55778
2.51347
2.48645
2.46502
2.44668
2.41094
3.26593
3.16861
3.01841
2.83545
2.66553
2.4929
2.30084
2.15131
2.03623
1.89746
1.76339
1.69172
1.62709
1.52876
1.43846
1.40942
1.37217
1.3176
1.27525
1.27245
1.26257
1.24831
1.24843
1.25462
1.26222
1.26503
1.26792
1.2726
1.27554
1.27504
1.2721
1.26578
1.25712
1.24802
1.23889
1.22831
1.2237
1.22347
1.22798
1.29044
1.6044
2.02918
2.41161
2.43205
2.3919
2.35453
2.33831
2.31136
2.28021
2.25398
2.2283
2.20247
2.18816
2.18207
2.18082
2.18489
2.15775
2.1464
2.19813
2.32794
2.52251
2.69226
2.82352
2.89308
2.94883
2.97586
2.95821
2.91495
2.86972
2.81129
2.76173
2.74022
2.72848
2.72078
2.71499
2.70191
2.68474
2.66116
2.61688
2.55227
2.50379
2.47462
2.45234
2.41824
3.32401
3.26833
3.14854
2.98136
2.81048
2.64573
2.46582
2.30182
2.18219
2.05002
1.90898
1.81428
1.74422
1.6506
1.55165
1.50231
1.45879
1.3911
1.32961
1.3221
1.30577
1.27844
1.26381
1.26531
1.26737
1.26535
1.26448
1.26806
1.27386
1.27556
1.27577
1.27532
1.27208
1.26601
1.25809
1.24839
1.24043
1.24415
1.29363
1.63982
2.13013
2.39619
2.46101
2.42237
2.38586
2.36917
2.36324
2.35073
2.30785
2.26464
2.23027
2.20397
2.18903
2.18246
2.18489
2.18686
2.16819
2.15729
2.11707
2.09339
2.13435
2.26082
2.47287
2.6595
2.82881
2.90831
2.93505
2.94407
2.92447
2.87294
2.81073
2.76165
2.74418
2.73393
2.72966
2.72159
2.70628
2.6882
2.6571
2.59617
2.52844
2.48929
2.47073
2.44319
3.3678
3.34565
3.26127
3.12056
2.95924
2.79357
2.61114
2.45694
2.33328
2.19356
2.03954
1.9508
1.87176
1.76707
1.65435
1.60652
1.55848
1.4894
1.41024
1.37898
1.35762
1.32095
1.28885
1.28336
1.28296
1.27276
1.26617
1.2684
1.27369
1.27499
1.27523
1.27783
1.28184
1.28112
1.27664
1.26958
1.27248
1.32948
1.63861
2.23119
2.44369
2.4651
2.43758
2.43517
2.41923
2.40388
2.39274
2.37671
2.33711
2.27776
2.23152
2.20486
2.19327
2.18912
2.18848
2.18361
2.17197
2.15623
2.13334
2.10119
2.05508
2.05128
2.10037
2.24464
2.45356
2.64476
2.79955
2.87513
2.89572
2.90413
2.878
2.81214
2.77828
2.76316
2.7506
2.7362
2.72059
2.70482
2.68162
2.63676
2.57111
2.51537
2.49672
2.47193
3.34106
3.4121
3.36781
3.25707
3.09886
2.94496
2.78115
2.59846
2.46402
2.34323
2.19423
2.07714
1.99501
1.89311
1.77492
1.71685
1.6656
1.59127
1.49974
1.46679
1.43886
1.39298
1.33142
1.31833
1.31604
1.29585
1.2838
1.28293
1.28492
1.2834
1.2802
1.27963
1.28299
1.28424
1.2852
1.2917
1.38377
1.71194
2.30386
2.54553
2.5145
2.50114
2.47772
2.46149
2.45044
2.43064
2.40678
2.38663
2.35985
2.31929
2.26998
2.23282
2.21474
2.20755
2.19301
2.17559
2.16147
2.14733
2.13245
2.11435
2.0928
2.05911
2.01945
2.02365
2.07837
2.20387
2.38486
2.58356
2.74538
2.83754
2.83659
2.83231
2.82626
2.80003
2.77892
2.75798
2.73996
2.7167
2.69258
2.66077
2.61486
2.55813
2.52631
2.49657
3.27735
3.42135
3.42763
3.37278
3.24934
3.08526
2.92396
2.76413
2.62124
2.47971
2.32715
2.2146
2.13068
2.02159
1.89166
1.82811
1.77689
1.70265
1.60663
1.5549
1.52363
1.47324
1.40314
1.37615
1.36411
1.33558
1.30203
1.29479
1.29786
1.29386
1.28805
1.28675
1.28634
1.28756
1.29549
1.39285
1.83198
2.32262
2.64008
2.62741
2.56414
2.51797
2.49843
2.47263
2.44372
2.42968
2.41938
2.39949
2.38172
2.36362
2.33442
2.28392
2.23484
2.21144
2.19223
2.17238
2.1561
2.14189
2.13155
2.12623
2.11467
2.08852
2.03997
1.99261
1.97408
1.9813
2.02149
2.1311
2.31678
2.54337
2.67495
2.75375
2.78882
2.78637
2.78676
2.78189
2.75746
2.72915
2.70725
2.68016
2.64569
2.59857
2.55483
2.51362
3.2497
3.37569
3.47781
3.45857
3.37461
3.2397
3.08018
2.89945
2.76061
2.63492
2.4863
2.3509
2.25708
2.14956
2.01769
1.94643
1.88956
1.80895
1.70565
1.66154
1.62485
1.56892
1.4822
1.44455
1.42976
1.39725
1.35046
1.32932
1.32935
1.31974
1.30273
1.2999
1.30084
1.3114
1.40242
1.85878
2.43157
2.62932
2.6686
2.66218
2.60275
2.54931
2.50197
2.47659
2.45595
2.44127
2.43717
2.42221
2.40397
2.38573
2.36415
2.32923
2.27518
2.21998
2.18874
2.17081
2.16181
2.15196
2.14142
2.13376
2.12262
2.10323
2.06273
1.99647
1.95819
1.94669
1.94281
1.9465
1.98394
2.09408
2.27665
2.44026
2.6003
2.67447
2.73605
2.74989
2.7493
2.74456
2.72646
2.70045
2.66649
2.62476
2.57839
2.52538
3.27933
3.31317
3.43753
3.5154
3.48259
3.38203
3.24021
3.06893
2.91291
2.76978
2.6208
2.49995
2.40696
2.29479
2.14573
2.0613
2.00394
1.92533
1.81547
1.76186
1.72491
1.66854
1.5841
1.53545
1.50798
1.46756
1.40116
1.37529
1.37459
1.35888
1.33666
1.32038
1.32884
1.45156
1.86735
2.47655
2.67341
2.69199
2.7029
2.68812
2.63204
2.57973
2.52885
2.49612
2.47564
2.45819
2.44848
2.43645
2.41135
2.38547
2.36208
2.3361
2.30253
2.25487
2.19955
2.1753
2.17177
2.16311
2.1451
2.12821
2.11318
2.09692
2.06794
2.01286
1.9591
1.94258
1.93039
1.9235
1.92003
1.91915
1.9508
2.02276
2.13873
2.29781
2.47151
2.60288
2.64952
2.70135
2.7223
2.71064
2.68616
2.65227
2.60259
2.53541
3.34354
3.33094
3.37775
3.48522
3.53139
3.49411
3.39222
3.23049
3.07671
2.93129
2.76819
2.62151
2.53506
2.43191
2.29985
2.19834
2.12886
2.03646
1.91498
1.86298
1.82768
1.77158
1.68002
1.6293
1.59852
1.55458
1.48579
1.43848
1.42533
1.4034
1.37872
1.39054
1.5487
2.01872
2.53914
2.77556
2.7446
2.72578
2.71126
2.66979
2.63558
2.61081
2.57705
2.53636
2.49901
2.46541
2.44298
2.42818
2.41038
2.3885
2.36483
2.34232
2.31852
2.28927
2.24323
2.18177
2.15346
2.1417
2.12825
2.10995
2.08999
2.06815
2.04814
2.02396
1.98428
1.96095
1.94423
1.92358
1.90612
1.88994
1.87723
1.86342
1.86565
1.90055
1.99507
2.18378
2.37366
2.53131
2.65534
2.68316
2.6805
2.65079
2.57937
2.51428
3.36077
3.35833
3.35259
3.43891
3.53728
3.53547
3.49338
3.38065
3.23894
3.09226
2.90948
2.77074
2.67443
2.5589
2.42051
2.33315
2.26281
2.16717
2.04083
1.96735
1.9264
1.86624
1.77865
1.72717
1.69391
1.64846
1.57253
1.52065
1.49916
1.46649
1.4775
1.66863
2.24347
2.69522
2.87292
2.83737
2.76003
2.71327
2.68788
2.66911
2.64931
2.63524
2.61418
2.57209
2.52434
2.47622
2.43124
2.40851
2.39984
2.38729
2.36572
2.34555
2.32411
2.29627
2.25913
2.20016
2.14312
2.12385
2.11108
2.0955
2.07721
2.05791
2.03997
2.01872
1.97912
1.93773
1.91702
1.90242
1.88799
1.87262
1.85783
1.84207
1.82378
1.79258
1.78275
1.82084
1.94182
2.11084
2.31517
2.49734
2.59881
2.60818
2.58428
2.51686
3.18449
3.30493
3.35763
3.43584
3.53236
3.56772
3.55131
3.48891
3.37768
3.24574
3.07163
2.92322
2.80983
2.69155
2.55153
2.45788
2.38608
2.29063
2.16204
2.09278
2.04404
1.97551
1.86949
1.81833
1.7844
1.74174
1.6723
1.61177
1.57523
1.61429
1.86269
2.51633
2.94323
3.03888
2.99372
2.9072
2.81741
2.75044
2.71716
2.69148
2.66903
2.65105
2.62496
2.58645
2.5383
2.48505
2.43027
2.3871
2.36905
2.35993
2.34567
2.32834
2.30899
2.28348
2.2512
2.20778
2.14787
2.11142
2.09918
2.08763
2.07241
2.05297
2.03116
2.00678
1.97538
1.92571
1.88781
1.87524
1.86509
1.8556
1.84271
1.82886
1.81318
1.79065
1.74122
1.71099
1.71759
1.75899
1.85767
2.03739
2.23993
2.40875
2.50785
2.49773
2.35551
2.98063
3.26234
3.45257
3.55832
3.58135
3.59184
3.56644
3.50229
3.38686
3.22029
3.08104
2.96265
2.831
2.67619
2.58455
2.5065
2.41005
2.2891
2.20993
2.15589
2.08268
1.98512
1.92231
1.88375
1.82503
1.75765
1.71043
1.77387
2.14087
2.72397
3.24264
3.25988
3.1945
3.08955
2.9991
2.91376
2.8243
2.76716
2.7281
2.69285
2.66088
2.63133
2.60108
2.56031
2.50396
2.43987
2.38422
2.35247
2.33315
2.31803
2.31004
2.29355
2.27376
2.24596
2.20342
2.14201
2.09637
2.083
2.07996
2.07457
2.05592
2.03255
2.00619
1.97164
1.9172
1.86283
1.8484
1.84475
1.84351
1.83416
1.82087
1.80798
1.78635
1.73507
1.68181
1.66542
1.66344
1.66894
1.70652
1.80942
1.98153
2.16376
2.32898
1.57137
2.15918
2.76361
3.29419
3.5163
3.5466
3.61861
3.63663
3.6042
3.50833
3.34758
3.19559
3.08663
2.96907
2.82576
2.72942
2.63596
2.52224
2.39113
2.3307
2.26981
2.1922
2.09107
2.03383
1.9817
1.91978
1.87642
1.97223
2.4766
3.09124
3.45565
3.49648
3.41444
3.30629
3.20397
3.1104
3.01139
2.91511
2.83826
2.7825
2.73556
2.69236
2.65489
2.61988
2.5804
2.52835
2.4576
2.38627
2.34032
2.3146
2.30109
2.28596
2.26427
2.24062
2.21408
2.18106
2.14133
2.08666
2.06287
2.05622
2.04397
2.02427
2.00331
1.98165
1.95358
1.91399
1.86073
1.8302
1.8236
1.81854
1.80674
1.79195
1.77662
1.75916
1.72372
1.67138
1.64709
1.63967
1.63253
1.62686
1.63168
1.66303
1.74567
1.95754
1.4074
1.51065
1.88516
2.64242
3.31304
3.39085
3.54427
3.67054
3.66541
3.59585
3.47597
3.33775
3.21561
3.07233
2.95001
2.8619
2.76697
2.65788
2.52431
2.44292
2.37592
2.28931
2.19285
2.13998
2.06926
2.08701
2.28056
2.88244
3.56372
3.72984
3.70967
3.6074
3.48121
3.38246
3.30683
3.22724
3.12861
3.02375
2.93084
2.85667
2.7945
2.73919
2.69
2.64322
2.59503
2.54297
2.47887
2.40561
2.34416
2.30593
2.28311
2.26077
2.23629
2.21386
2.19247
2.15864
2.10924
2.05313
2.02373
2.01531
2.00898
1.99553
1.97937
1.96537
1.94858
1.91487
1.8612
1.81955
1.80453
1.79411
1.77991
1.76483
1.74928
1.73215
1.70888
1.67103
1.63482
1.61876
1.60966
1.60015
1.58989
1.58076
1.58476
1.64195
1.40008
1.40346
1.45006
1.71897
2.5339
3.11751
3.42693
3.67737
3.71065
3.69381
3.61737
3.47385
3.35429
3.22138
3.10308
2.99083
2.8837
2.76336
2.65586
2.57399
2.50078
2.40092
2.29313
2.23002
2.29537
2.6982
3.40531
4.02058
4.10421
3.98951
3.82199
3.68993
3.58174
3.48876
3.40906
3.32948
3.2403
3.13828
3.03186
2.93774
2.86046
2.79344
2.73206
2.67324
2.61452
2.55582
2.49734
2.43257
2.36563
2.3179
2.28244
2.25328
2.22891
2.20294
2.17393
2.13558
2.08468
2.02775
1.98709
1.97487
1.97006
1.9616
1.94986
1.93602
1.92124
1.90434
1.86209
1.80147
1.77701
1.76495
1.75082
1.73806
1.7257
1.70997
1.68931
1.65798
1.62014
1.60033
1.59086
1.5803
1.56841
1.55621
1.54416
1.5333
1.40001
1.40003
1.40117
1.4225
1.6667
2.35032
2.9517
3.56191
3.71963
3.69942
3.62662
3.56125
3.49129
3.37351
3.24246
3.1176
3.01091
2.87198
2.76902
2.69103
2.59835
2.5105
2.44189
2.56535
3.16771
3.99197
4.42719
4.40942
4.24501
4.0421
3.89256
3.7908
3.70026
3.6091
3.52089
3.43144
3.3351
3.22856
3.11238
2.99968
2.90728
2.83446
2.77277
2.71546
2.65669
2.59238
2.51897
2.4391
2.37587
2.33065
2.28906
2.252
2.22044
2.19121
2.16242
2.12622
2.07491
2.01094
1.96296
1.94404
1.93754
1.93409
1.92427
1.90951
1.89164
1.86422
1.82016
1.76782
1.74563
1.73594
1.72676
1.71759
1.70796
1.6947
1.67546
1.64268
1.59895
1.57832
1.56764
1.55538
1.54544
1.53716
1.52646
1.50884
1.40001
1.40001
1.40001
1.40044
1.41728
1.59983
2.02098
2.88949
3.57085
3.61062
3.64403
3.63383
3.5854
3.46546
3.33851
3.23829
3.12645
2.98792
2.89387
2.80594
2.68886
2.70156
2.98883
3.74919
4.57529
4.80183
4.73815
4.56896
4.34854
4.15179
4.00866
3.90408
3.80791
3.70843
3.60715
3.50509
3.40046
3.29021
3.17302
3.05913
2.96436
2.88811
2.81996
2.75465
2.69104
2.62911
2.56299
2.48754
2.40597
2.3359
2.28797
2.25188
2.22048
2.18784
2.15108
2.10774
2.05861
2.00872
1.95789
1.92966
1.91659
1.90523
1.89223
1.87435
1.85492
1.82701
1.77931
1.73146
1.71405
1.70716
1.70088
1.69207
1.68347
1.67302
1.65575
1.62024
1.57527
1.55845
1.54826
1.53434
1.52695
1.52249
1.5159
1.49962
1.40001
1.40001
1.40001
1.40001
1.40028
1.40934
1.4742
1.84495
2.86844
3.33011
3.59359
3.70743
3.66864
3.58683
3.47305
3.36819
3.23069
3.1067
3.01741
2.91646
2.99993
3.57841
4.53494
5.06448
5.07162
4.95773
4.81248
4.65668
4.48822
4.31335
4.15105
4.0158
3.89686
3.78021
3.66101
3.54202
3.4279
3.31922
3.21298
3.10992
3.01919
2.94471
2.87776
2.81211
2.74207
2.66577
2.5874
2.50446
2.4218
2.35894
2.31212
2.26666
2.2243
2.18599
2.15266
2.11668
2.06337
1.99482
1.94268
1.91954
1.9038
1.88643
1.86904
1.84845
1.82779
1.80077
1.74898
1.69816
1.68539
1.68175
1.67731
1.66756
1.65841
1.64799
1.63056
1.59378
1.55186
1.54019
1.5349
1.52692
1.52109
1.51528
1.50855
1.49228
1.40001
1.40001
1.40001
1.40001
1.40001
1.40008
1.40199
1.43667
1.85501
2.60505
3.24296
3.67447
3.6935
3.63629
3.5506
3.47738
3.34551
3.22818
3.14876
3.37154
4.29093
5.27903
5.59138
5.531
5.30419
5.04993
4.85353
4.71161
4.57833
4.42432