/*--------------------------------*- C++ -*----------------------------------*\
  =========                 |
  \\      /  F ield         | OpenFOAM: The Open Source CFD Toolbox
   \\    /   O peration     | Website:  https://openfoam.org
    \\  /    A nd           | Version:  7
     \\/     M anipulation  |
\*---------------------------------------------------------------------------*/
FoamFile
{
    version     2.0;
    format      ascii;
    class       volScalarField;
    location    "0.9";
    object      p;
}
// * * * * * * * * * * * * * * * * * * * * * * * * * * * * * * * * * * * * * //

dimensions      [1 -1 -2 0 0 0 0];

internalField   nonuniform List<scalar> 
16192
(
3.48551
3.33811
3.26248
3.22857
3.22093
3.21889
3.22222
3.23409
3.25681
3.28158
3.31269
3.35732
3.40864
3.48048
3.59503
3.78787
4.07285
4.42879
4.80459
5.10519
5.33259
3.48543
3.34184
3.26397
3.2249
3.21246
3.20822
3.21143
3.22705
3.25294
3.28151
3.31292
3.3556
3.40374
3.4697
3.57482
3.7754
4.03644
4.38566
4.74275
5.0458
5.26607
3.48093
3.345
3.26974
3.23086
3.2134
3.20355
3.20136
3.21582
3.24444
3.27577
3.30398
3.34636
3.39633
3.45933
3.56157
3.74068
3.98946
4.32675
4.67217
4.96584
5.17652
3.47512
3.34633
3.27129
3.22551
3.19643
3.17787
3.17373
3.19267
3.22664
3.26263
3.2966
3.33662
3.38735
3.43909
3.53195
3.69301
3.92985
4.23211
4.53789
4.82253
5.02327
3.46679
3.34303
3.26988
3.22226
3.188
3.16174
3.15184
3.16757
3.20188
3.23946
3.27842
3.31995
3.37335
3.42624
3.51012
3.63185
3.8349
4.10877
4.40491
4.67449
4.85827
3.45644
3.3371
3.26638
3.21335
3.17273
3.14264
3.12779
3.14008
3.1755
3.21789
3.26242
3.31062
3.35695
3.40875
3.46759
3.56473
3.75654
4.00959
4.28419
4.51947
4.68166
3.44653
3.3272
3.25831
3.20472
3.15363
3.11283
3.08745
3.09896
3.14049
3.18848
3.23811
3.28784
3.33614
3.38446
3.43921
3.53232
3.6961
3.89982
4.15296
4.37436
4.52234
3.4371
3.31876
3.24915
3.18953
3.14503
3.10512
3.07921
3.08172
3.11023
3.15584
3.21066
3.26044
3.31721
3.37106
3.4242
3.49308
3.63363
3.81496
4.05543
4.25508
4.38793
3.42403
3.3108
3.2357
3.18523
3.13306
3.08816
3.05539
3.05546
3.09482
3.14699
3.20108
3.24877
3.30106
3.35104
3.40387
3.48075
3.61108
3.76154
3.98117
4.15891
4.28293
3.40926
3.29898
3.2273
3.17695
3.13122
3.08823
3.05722
3.05171
3.07447
3.11216
3.16634
3.21897
3.27656
3.33679
3.40398
3.47856
3.59766
3.73288
3.94254
4.09808
4.22479
3.38719
3.2814
3.21535
3.1727
3.13384
3.09446
3.0696
3.06214
3.07654
3.11614
3.16341
3.21512
3.2823
3.33575
3.41097
3.49062
3.61122
3.73899
3.93817
4.07199
4.2115
3.3613
3.25594
3.19918
3.16337
3.13732
3.10823
3.08566
3.07744
3.0928
3.12559
3.1634
3.21024
3.27123
3.33705
3.43014
3.51655
3.6426
3.7675
3.96046
4.08403
4.26072
3.32853
3.22733
3.17093
3.15181
3.13698
3.11744
3.10887
3.10304
3.10922
3.13855
3.18195
3.22442
3.28717
3.35914
3.46125
3.56025
3.69786
3.82367
4.0166
4.13663
4.33223
3.30057
3.18662
3.14494
3.12874
3.12477
3.1241
3.12445
3.12516
3.13735
3.15766
3.19873
3.23897
3.30899
3.39563
3.50959
3.62409
3.77143
3.90114
4.09777
4.21611
4.41975
3.26832
3.15016
3.11453
3.10216
3.10796
3.11916
3.12838
3.14111
3.15889
3.18319
3.21933
3.2667
3.33667
3.43857
3.56909
3.70104
3.86216
4.00135
4.20055
4.31372
4.52306
3.23079
3.12485
3.0749
3.08203
3.09092
3.11149
3.12823
3.14742
3.17127
3.20139
3.24211
3.28843
3.36914
3.48728
3.63778
3.79232
3.97002
4.12346
4.32513
4.43225
4.64522
3.21307
3.12718
3.07432
3.05966
3.08327
3.11206
3.13046
3.15212
3.17799
3.21272
3.25718
3.31605
3.4093
3.54534
3.71839
3.8921
4.08603
4.25553
4.45884
4.56106
4.77866
3.28139
3.15329
3.07988
3.07085
3.09842
3.12121
3.14436
3.16479
3.18756
3.22223
3.2677
3.33511
3.44561
3.60111
3.79926
3.99204
4.20743
4.39701
4.60426
4.70529
4.91049
3.34045
3.21878
3.14479
3.12602
3.1396
3.16183
3.17435
3.18629
3.20121
3.23381
3.27635
3.35239
3.47923
3.65807
3.88489
4.09293
4.32995
4.53737
4.75192
4.85353
5.05825
3.47164
3.34125
3.25884
3.22157
3.22162
3.22794
3.22467
3.22386
3.22184
3.2427
3.2833
3.3642
3.50985
3.71265
3.96695
4.18886
4.45138
4.67602
4.89901
5.00167
5.20106
3.62336
3.50907
3.42006
3.36918
3.34094
3.32031
3.29442
3.2723
3.25018
3.25863
3.28753
3.36359
3.52497
3.75875
4.05035
4.28417
4.57145
4.80606
5.04212
5.15008
5.35074
3.76973
3.66293
3.59023
3.53075
3.47746
3.432
3.37813
3.33366
3.2896
3.2733
3.28771
3.36215
3.52718
3.80299
4.1302
4.38182
4.68829
4.93109
5.18262
5.29231
5.49761
3.91834
3.82424
3.7506
3.69006
3.6165
3.54562
3.46939
3.39932
3.33355
3.29699
3.29095
3.34288
3.49707
3.81944
4.19229
4.48014
4.80513
5.04913
5.314
5.42462
5.63624
4.05953
3.98277
3.92072
3.84976
3.76071
3.66192
3.56125
3.47439
3.38807
3.32773
3.29797
3.32453
3.4527
3.80358
4.25345
4.57928
4.90929
5.15475
5.43576
5.55214
5.77324
4.18661
4.12291
4.06895
3.99962
3.90069
3.78347
3.66066
3.54893
3.44711
3.36859
3.31875
3.31486
3.39189
3.73353
4.25975
4.66599
4.99721
5.26424
5.55203
5.66729
5.89182
4.30076
4.25069
4.20521
4.13266
4.02671
3.89628
3.76047
3.63165
3.51053
3.41907
3.34896
3.31848
3.3376
3.63598
4.22517
4.74124
5.0864
5.36602
5.64859
5.77104
6.00971
4.40901
4.36978
4.33104
4.25494
4.14077
4.00244
3.85311
3.71495
3.58305
3.47441
3.39116
3.3393
3.32129
3.50288
4.10603
4.77316
5.1599
5.45877
5.73684
5.87751
6.10522
4.50958
4.48292
4.44633
4.36479
4.2463
4.10067
3.94541
3.79488
3.65619
3.53994
3.43866
3.3714
3.33495
3.38689
3.93752
4.73368
5.22133
5.54416
5.80038
5.98011
6.19472
4.60424
4.58748
4.55299
4.46632
4.34284
4.19333
4.03487
3.87778
3.728
3.60456
3.49488
3.41117
3.35988
3.34343
3.77958
4.6368
5.25275
5.59935
5.84885
6.07427
6.25398
4.68909
4.68602
4.64998
4.55923
4.43449
4.28274
4.12034
3.95878
3.80217
3.67093
3.55218
3.46089
3.39441
3.34417
3.60874
4.48494
5.24335
5.61828
5.88784
6.12996
6.30405
4.76494
4.77516
4.74049
4.6491
4.52136
4.36647
4.20341
4.0397
3.87437
3.73739
3.61199
3.51482
3.43745
3.367
3.46792
4.30404
5.17381
5.63741
5.89863
6.1329
6.23916
4.83061
4.85775
4.82255
4.73256
4.60532
4.44897
4.28178
4.11542
3.94818
3.80408
3.67405
3.56916
3.48613
3.40171
3.4199
4.0553
5.05326
5.65736
5.88172
6.0584
6.22024
4.88994
4.9311
4.8995
4.81353
4.68469
4.52677
4.3595
4.1902
4.01926
3.8699
3.73649
3.62837
3.53639
3.44613
3.41642
3.81055
4.93233
5.62612
5.83827
5.89937
5.04784
4.94436
4.99856
4.97358
4.89069
4.7608
4.60319
4.43134
4.26187
4.09021
3.93773
3.79877
3.68797
3.5884
3.49568
3.43693
3.62469
4.72378
5.56398
5.75609
5.68907
4.83299
4.98875
5.05816
5.05054
4.96625
4.83013
4.67311
4.50187
4.33148
4.16
4.00385
3.86334
3.74554
3.64299
3.54863
3.46659
3.51651
4.42006
5.45972
5.69971
5.53567
4.69227
5.02211
5.11043
5.13013
5.03556
4.89811
4.74094
4.56835
4.39913
4.22882
4.0706
3.92686
3.80296
3.69666
3.59968
3.50369
3.49657
4.08463
5.33568
5.69772
5.39795
4.66373
5.04137
5.14779
5.19944
5.10359
4.96632
4.8078
4.63368
4.46466
4.29477
4.13627
3.98785
3.86084
3.74892
3.6502
3.5435
3.49907
3.81993
5.11591
5.65041
5.30624
4.68763
5.04455
5.16707
5.25151
5.17192
5.03679
4.87331
4.69717
4.52791
4.35874
4.19872
4.04686
3.91758
3.79952
3.70166
3.5864
3.51908
3.65568
4.79501
5.57989
5.27084
4.73452
5.03169
5.17967
5.28043
5.23887
5.105
4.93729
4.76093
4.58966
4.42035
4.25849
4.10358
3.97166
3.85141
3.75079
3.63962
3.55181
3.58139
4.40563
5.4758
5.23433
4.79016
4.99472
5.18324
5.29447
5.29776
5.16763
5.00001
4.82391
4.65207
4.48055
4.31585
4.15965
4.02331
3.90215
3.8001
3.69603
3.58886
3.57474
4.05326
5.2775
5.16811
4.84258
4.93598
5.16655
5.29605
5.34069
5.22235
5.063
4.88728
4.71412
4.54057
4.37297
4.2141
4.07441
3.95229
3.84815
3.75132
3.63238
3.58733
3.81576
4.95243
5.14468
4.93003
4.85823
5.11965
5.28891
5.35947
5.26869
5.12408
4.94952
4.77656
4.60072
4.42937
4.26932
4.12549
4.00129
3.89594
3.80206
3.68348
3.61209
3.67183
4.54592
5.10766
4.96441
4.7719
5.02937
5.2788
5.36621
5.30441
5.17915
5.00954
4.83729
4.65986
4.4863
4.32363
4.1772
4.04957
3.94199
3.84877
3.73569
3.64381
3.62983
4.17225
5.00988
4.93752
4.69237
4.90848
5.23857
5.34641
5.32727
5.225
5.06382
4.89482
4.71693
4.54107
4.37775
4.22874
4.09547
3.98693
3.89072
3.78557
3.67937
3.62517
3.90432
4.79246
4.92327
4.63118
4.78386
5.15739
5.31557
5.33707
5.25447
5.10936
4.94562
4.77021
4.59552
4.42942
4.27918
4.14033
4.02979
3.92877
3.83315
3.71673
3.64037
3.74549
4.49914
4.87968
4.58103
4.6786
5.03173
5.28824
5.33838
5.27089
5.14476
4.99078
4.81972
4.64703
4.48125
4.32804
4.1828
4.07063
3.96533
3.87692
3.76281
3.66915
3.69284
4.20334
4.81293
4.54246
4.59994
4.8817
5.2432
5.31909
5.27791
5.17612
5.03086
4.86598
4.69699
4.53036
4.37445
4.22583
4.10976
4.00155
3.91707
3.81209
3.70174
3.68648
3.97902
4.72581
4.51136
4.54204
4.7383
5.15434
5.29136
5.27647
5.19755
5.06746
4.90863
4.74301
4.57862
4.4198
4.26811
4.14854
4.03859
3.95417
3.85991
3.73597
3.69453
3.84333
4.5792
4.48539
4.49544
4.61847
5.01764
5.25893
5.27505
5.21196
5.09898
4.95022
4.78754
4.62359
4.464
4.31178
4.18626
4.07408
3.98876
3.9027
3.77405
3.71089
3.80041
4.42059
4.46096
4.45182
4.52565
4.8525
5.20792
5.26196
5.21696
5.12501
4.98842
4.82963
4.6674
4.50603
4.35375
4.22357
4.108
4.02057
3.93951
3.81451
3.73317
3.80065
4.30732
4.43394
4.41578
4.45957
4.69428
5.11445
5.23733
5.21466
5.14326
5.02129
4.87008
4.70905
4.54675
4.39448
4.25944
4.13909
4.04997
3.9714
3.85442
3.76091
3.8194
4.2483
4.4315
4.38714
4.40773
4.55901
4.96861
5.21088
5.21159
5.1542
5.04772
4.90732
4.74925
4.58691
4.43336
4.29518
4.16918
4.07736
3.99951
3.8914
3.79418
3.85352
4.26478
4.43914
4.36873
4.37298
4.45924
4.79352
5.15843
5.19512
5.14982
5.06305
4.93651
4.78501
4.62565
4.47189
4.33037
4.19957
4.10417
4.02612
3.92367
3.83005
3.89867
4.30879
4.45935
4.36431
4.34932
4.3894
4.62519
5.05539
5.17174
5.14117
5.07077
4.95789
4.8166
4.6621
4.50958
4.36528
4.23257
4.13114
4.05241
3.95035
3.86396
3.94829
4.37183
4.48789
4.36717
4.33123
4.34266
4.48819
4.9012
5.13575
5.12742
5.07304
4.97285
4.84252
4.69538
4.54667
4.39949
4.26847
4.15834
4.07912
3.97078
3.89255
3.99559
4.43669
4.5165
4.38605
4.32132
4.31865
4.39419
4.72251
5.07582
5.10508
5.05865
4.97696
4.86281
4.72586
4.58321
4.43444
4.30691
4.18623
4.10427
3.98571
3.91589
4.03755
4.49636
4.5439
4.4097
4.31751
4.30409
4.33641
4.55807
4.96441
5.07912
5.04383
4.97745
4.87991
4.75337
4.61839
4.47099
4.34432
4.21713
4.12596
3.99888
3.93662
4.07581
4.55495
4.5722
4.43838
4.32538
4.29231
4.29956
4.43154
4.80888
5.04067
5.02297
4.96839
4.88432
4.77226
4.64829
4.50746
4.37839
4.24986
4.1458
4.01253
3.95671
4.1113
4.61154
4.59954
4.46796
4.34445
4.28285
4.27715
4.34765
4.63909
4.97245
4.99009
4.95231
4.88247
4.78616
4.67242
4.54149
4.4091
4.28251
4.16718
4.03061
3.97655
4.14292
4.66341
4.62894
4.49783
4.3711
4.27915
4.2659
4.2946
4.48759
4.85295
4.96828
4.93606
4.88055
4.79711
4.69237
4.57086
4.43731
4.31516
4.19215
4.05612
3.9968
4.167
4.70195
4.65778
4.52782
4.40074
4.28508
4.25463
4.25898
4.37333
4.69851
4.9259
4.91337
4.86565
4.79718
4.70652
4.59618
4.46622
4.34847
4.22398
4.08814
4.01747
4.1813
4.72447
4.6881
4.55837
4.43072
4.3067
4.24575
4.23675
4.29782
4.54173
4.8421
4.8844
4.85303
4.79497
4.71807
4.61892
4.49625
4.38267
4.26122
4.12477
4.03805
4.18648
4.72904
4.71812
4.58782
4.4599
4.33461
4.24442
4.22212
4.24635
4.40303
4.71272
4.85548
4.83257
4.78638
4.71664
4.63159
4.52347
4.41683
4.30019
4.16293
4.05736
4.18364
4.72641
4.74694
4.6188
4.48933
4.36578
4.25586
4.21493
4.21353
4.30008
4.56224
4.80127
4.79975
4.76973
4.71356
4.64386
4.55028
4.45033
4.33891
4.20116
4.07488
4.17541
4.71085
4.77585
4.64839
4.51854
4.39893
4.28292
4.20771
4.19176
4.23028
4.41646
4.69634
4.78083
4.7538
4.71069
4.65048
4.57055
4.47925
4.37407
4.23742
4.09153
4.16559
4.68277
4.80314
4.67867
4.55115
4.42975
4.316
4.21332
4.17903
4.18675
4.29971
4.56365
4.74704
4.73251
4.69899
4.65158
4.58214
4.49569
4.39675
4.26549
4.10763
4.15759
4.65244
4.83159
4.7078
4.58332
4.46445
4.35001
4.23221
4.17341
4.16248
4.21891
4.42126
4.67152
4.70893
4.69025
4.64636
4.58171
4.49978
4.40793
4.28339
4.12172
4.15311
4.61658
4.85903
4.73826
4.61718
4.49888
4.38374
4.26278
4.17603
4.15154
4.1723
4.29771
4.55622
4.68178
4.66196
4.63187
4.57618
4.49721
4.41036
4.29225
4.13326
4.1516
4.57573
4.88874
4.76849
4.64992
4.53413
4.4178
4.29931
4.19545
4.15017
4.14911
4.2106
4.41957
4.61008
4.64561
4.61397
4.5578
4.48514
4.40176
4.29288
4.14452
4.15192
4.53123
4.91742
4.79994
4.68209
4.56786
4.45134
4.33674
4.23054
4.163
4.13551
4.16135
4.29237
4.49708
4.60979
4.5805
4.52822
4.46139
4.38685
4.29029
4.15596
4.15486
4.47628
4.94788
4.82997
4.71274
4.60046
4.48651
4.37781
4.27156
4.19245
4.13617
4.13922
4.19823
4.36401
4.53893
4.53192
4.49776
4.43874
4.37053
4.28185
4.16441
4.15696
4.4185
4.97654
4.85899
4.74284
4.63272
4.52319
4.42051
4.32051
4.22981
4.15187
4.1233
4.13381
4.2359
4.41594
4.48748
4.45956
4.40832
4.35045
4.27438
4.17378
4.15593
4.37233
5.00449
4.88645
4.7717
4.66658
4.56376
4.46746
4.37064
4.27143
4.17746
4.11312
4.0954
4.13124
4.27304
4.411
4.41039
4.3777
4.33405
4.26867
4.17872
4.1497
4.3248
5.03014
4.91394
4.8038
4.70395
4.60842
4.5171
4.41893
4.3124
4.20664
4.1127
4.06885
4.06153
4.13971
4.28829
4.36597
4.34435
4.31025
4.26103
4.17766
4.1391
4.27301
5.05651
4.94401
4.83961
4.74621
4.65492
4.56354
4.4611
4.34935
4.23328
4.1262
4.05021
4.01759
4.03795
4.15494
4.28554
4.30586
4.28841
4.24726
4.17501
4.12967
4.22085
5.08558
4.97933
4.88146
4.79151
4.6996
4.60329
4.49542
4.37879
4.25911
4.14623
4.04797
3.99647
3.97924
4.03755
4.17199
4.25787
4.25686
4.23126
4.17081
4.11756
4.17422
5.12146
5.02172
4.92767
4.8341
4.73679
4.63289
4.51981
4.4031
4.28539
4.16856
4.0632
3.9862
3.9522
3.9592
4.05443
4.17357
4.22616
4.20506
4.15461
4.10617
4.13715
5.16392
5.06721
4.96933
4.86968
4.7631
4.65325
4.54003
4.42515
4.31133
4.19643
4.08975
3.99497
3.94486
3.91681
3.95945
4.06761
4.16568
4.17032
4.13959
4.09373
4.10452
5.21041
5.10985
5.00382
4.89206
4.77931
4.6685
4.5578
4.44896
4.34064
4.23002
4.12187
4.02214
3.95067
3.9064
3.90441
3.96504
4.0705
4.13322
4.10633
4.07627
4.0745
5.25312
5.14119
5.02396
4.90653
4.79168
4.68234
4.57779
4.47633
4.37453
4.26731
4.16169
4.05859
3.96956
3.90825
3.87383
3.88886
3.96374
4.05781
4.07217
4.05307
4.04026
5.28454
5.16096
5.03669
4.91613
4.80314
4.69865
4.6006
4.50743
4.41117
4.30766
4.20371
4.09727
4.0014
3.92215
3.86728
3.8412
3.86906
3.95368
4.01285
4.0149
4.00851
5.30133
5.17081
5.04529
4.92779
4.82054
4.72119
4.62941
4.54012
4.44701
4.34668
4.24344
4.13874
4.03684
3.94471
3.87681
3.83092
3.80608
3.84806
3.92235
3.95869
3.96587
5.3074
5.17688
5.05608
4.94587
4.84525
4.75079
4.66112
4.57216
4.47966
4.38071
4.28006
4.17638
4.07447
3.97766
3.89473
3.83214
3.78694
3.7747
3.81685
3.8743
3.90556
5.30793
5.1838
5.07295
4.97303
4.87925
4.78741
4.69642
4.60365
4.50762
4.40932
4.31217
4.21204
4.11162
4.01318
3.92287
3.84616
3.78239
3.73978
3.73597
3.77507
3.82125
5.31109
5.19743
5.09822
5.00716
4.9177
4.82611
4.7317
4.63456
4.53561
4.43821
4.34248
4.2456
4.14771
4.05044
3.95661
3.86915
3.79213
3.73534
3.69594
3.6933
3.72597
5.3248
5.22079
5.12867
5.0415
4.95377
4.86218
4.76526
4.66587
4.5653
4.46824
4.37456
4.2793
4.18373
4.08828
3.9922
3.89908
3.81265
3.7412
3.69024
3.65034
3.646
5.35231
5.254
5.16171
5.07179
4.9823
4.89001
4.79381
4.69536
4.59601
4.50109
4.40805
4.3137
4.21977
4.12543
4.02892
3.93282
3.84102
3.75951
3.69549
3.64446
3.60361
5.39095
5.29173
5.19452
5.09964
5.00768
4.91561
4.82091
4.72411
4.62671
4.53241
4.44016
4.34679
4.25401
4.1611
4.06474
3.96651
3.87241
3.78604
3.71005
3.64711
3.59488
5.42559
5.32424
5.22441
5.12695
5.03362
4.94123
4.84824
4.75341
4.65781
4.56472
4.47179
4.37825
4.28668
4.1942
4.09852
4.00132
3.90596
3.81606
3.73319
3.65909
3.59538
5.45525
5.35281
5.25296
5.15646
5.06392
4.9727
4.88081
4.78665
4.69129
4.59638
4.50154
4.40787
4.31645
4.22433
4.12944
4.03314
3.93885
3.84835
3.76113
3.67873
3.60515
5.48106
5.38038
5.28232
5.18707
5.09506
5.00451
4.91408
4.82147
4.72625
4.63013
4.53293
4.43749
4.34545
4.25332
4.15921
4.06544
3.97316
3.882
3.79231
3.70513
3.62328
5.50881
5.40836
5.31065
5.21637
5.12575
5.03709
4.94808
4.85596
4.76018
4.66204
4.56291
4.46706
4.37422
4.28224
4.18924
4.09737
4.00696
3.91688
3.82617
3.73568
3.64883
5.53334
5.43192
5.33436
5.24165
5.15333
5.06702
4.97992
4.88907
4.79341
4.69457
4.59481
4.49782
4.40402
4.31172
4.21984
4.13054
4.04208
3.95221
3.86056
3.76838
3.67916
5.55694
5.45373
5.35572
5.26523
5.18052
5.09742
5.01209
4.92165
4.82601
4.72707
4.62738
4.53009
4.43563
4.34254
4.2511
4.16289
4.07536
3.98631
3.8949
3.80213
3.71185
1.66765
0.882817
0.580992
0.593109
0.687578
0.779897
0.932151
1.35572
1.64635
1.67347
1.64091
1.59752
1.56985
1.56019
1.55084
1.53794
1.52357
1.51423
1.49962
1.47113
1.44265
1.41457
1.38999
1.36895
1.35615
1.35385
1.34716
1.33137
1.31375
1.29563
1.27679
1.25855
1.24324
1.23251
1.2278
1.22514
1.21843
1.20532
1.19051
1.17767
1.16716
1.15879
1.15237
1.14794
1.14343
1.13666
1.12898
1.12258
1.11735
1.11206
1.10609
1.09957
1.09348
1.0871
1.07855
1.06967
1.06414
1.06718
1.06405
1.05125
1.0384
1.02784
1.01949
1.01232
1.00679
0.998915
0.985919
0.980679
0.982349
1.00036
1.09014
1.32666
1.50684
1.53265
1.53962
1.54315
1.54224
1.54058
1.53805
1.53418
1.5305
1.52653
1.52132
1.51587
1.50724
1.49822
1.49242
1.48772
1.48225
1.47554
1.46495
1.45367
1.4472
1.4444
1.44362
1.44128
1.43396
1.42354
1.41424
1.40771
1.40186
1.40056
1.40464
1.40157
1.39125
1.38186
1.35749
1.33103
1.32884
1.32972
1.34182
1.32874
1.31073
1.3074
1.30204
1.29005
1.27482
1.25716
1.23669
1.215
1.19478
1.17694
1.1599
1.1419
1.12417
1.11124
1.10817
1.11129
1.11067
1.09903
1.075
1.05382
1.0479
1.04536
1.04443
1.04855
1.05987
1.07807
1.09958
1.12231
1.14597
1.16553
1.17391
1.16725
1.15339
1.1422
1.14194
1.15336
1.17107
1.18708
1.1964
1.19413
1.1854
1.17654
1.16882
1.16411
1.16469
1.16769
1.16885
1.17182
1.17807
1.1862
1.19331
1.19705
1.19855
1.20069
1.20568
1.21379
1.21215
1.20483
1.20058
1.19905
1.20154
1.20443
1.20017
1.1911
1.18083
1.16802
1.15512
1.14613
1.13939
1.1331
1.12749
1.12351
1.11942
1.11379
1.10758
1.10247
1.10287
1.11486
1.13137
1.13396
1.12588
1.11563
1.10306
1.0912
1.08208
1.07327
1.067
1.06894
1.08264
1.09385
1.09077
1.08302
1.076
1.06973
1.06414
1.06035
1.06184
1.06842
1.06833
1.06185
1.05447
1.04472
1.03419
1.0272
1.02345
1.02116
1.01962
1.01853
1.01727
1.01504
1.0111
1.00483
0.997564
0.993371
0.99242
0.991552
0.989898
0.987448
2.49044
1.73666
1.2561
1.05314
0.998882
0.919537
0.92509
1.12931
1.49552
1.62071
1.61277
1.59702
1.58932
1.58353
1.57082
1.55071
1.52747
1.50923
1.48989
1.46695
1.44515
1.42347
1.40166
1.38199
1.36592
1.35214
1.33639
1.31982
1.30349
1.2875
1.27211
1.25783
1.24537
1.23523
1.22757
1.22045
1.21068
1.19878
1.18633
1.17482
1.16489
1.15642
1.14932
1.1443
1.14083
1.1358
1.12719
1.11865
1.11158
1.10514
1.09899
1.09355
1.08949
1.08517
1.07833
1.06987
1.06194
1.05784
1.05661
1.04685
1.03626
1.02763
1.01908
1.01161
1.0048
0.996224
0.983952
0.978404
0.979696
0.996386
1.08253
1.31804
1.50798
1.53783
1.54665
1.55276
1.5513
1.54461
1.53781
1.53291
1.53024
1.52747
1.52184
1.5149
1.50795
1.50132
1.49577
1.49023
1.48349
1.47602
1.46735
1.45802
1.45092
1.44618
1.44223
1.43938
1.43512
1.42826
1.41997
1.41232
1.40571
1.3986
1.39395
1.38752
1.3797
1.37585
1.36027
1.33875
1.33454
1.3342
1.34135
1.32974
1.30698
1.29971
1.29362
1.28553
1.27508
1.26081
1.24153
1.21675
1.19219
1.1739
1.16012
1.14717
1.13328
1.11731
1.10306
1.09549
1.09299
1.08951
1.07583
1.06133
1.05878
1.05798
1.05858
1.06085
1.06577
1.07415
1.08672
1.10155
1.11637
1.12958
1.14072
1.15112
1.15967
1.16392
1.16541
1.16612
1.16749
1.17186
1.17577
1.18032
1.18464
1.18439
1.17928
1.17289
1.16508
1.15746
1.15327
1.15105
1.14977
1.15248
1.15996
1.17258
1.18719
1.19687
1.19721
1.19802
1.20588
1.20862
1.20383
1.19863
1.19514
1.19192
1.18755
1.18144
1.17471
1.16737
1.15992
1.1505
1.14064
1.13395
1.12801
1.1225
1.11723
1.1112
1.10481
1.10062
1.10265
1.11552
1.13075
1.13145
1.12296
1.11204
1.09967
1.09053
1.08252
1.075
1.07001
1.07238
1.08455
1.09339
1.08942
1.08162
1.0745
1.06824
1.06279
1.05999
1.06297
1.06961
1.06808
1.06111
1.05326
1.04302
1.03326
1.0275
1.02377
1.02091
1.01869
1.0172
1.01579
1.0136
1.00995
1.00451
0.998528
0.994995
0.993737
0.992496
0.990616
0.987829
2.95785
2.22605
1.70002
1.32666
1.16795
1.02785
0.922757
0.988313
1.28023
1.58691
1.65356
1.64436
1.62734
1.60535
1.57801
1.55515
1.53201
1.50539
1.4765
1.44914
1.4287
1.41317
1.40159
1.39607
1.38459
1.36275
1.34022
1.31823
1.29807
1.2808
1.2666
1.25475
1.24581
1.23991
1.23381
1.22435
1.21191
1.20058
1.18945
1.17796
1.16776
1.15906
1.15181
1.14639
1.14394
1.13963
1.12948
1.11996
1.11253
1.1057
1.09885
1.09225
1.0873
1.08411
1.07998
1.07404
1.06678
1.05968
1.05368
1.04426
1.03455
1.02637
1.01921
1.01298
1.00639
0.998311
0.986315
0.97961
0.980231
0.994496
1.07346
1.30214
1.51533
1.55183
1.55984
1.56151
1.55482
1.54469
1.53523
1.52908
1.52596
1.5222
1.51968
1.51629
1.50906
1.5015
1.49594
1.48905
1.48224
1.47625
1.46777
1.45759
1.4508
1.44522
1.44056
1.43863
1.43631
1.42979
1.42101
1.41569
1.4125
1.40659
1.40251
1.40112
1.39216
1.3788
1.37021
1.35382
1.34395
1.3422
1.3437
1.3395
1.31035
1.29655
1.2854
1.27398
1.26602
1.25902
1.24604
1.22257
1.19281
1.16768
1.15433
1.14857
1.14283
1.13003
1.10788
1.08566
1.07249
1.06391
1.05664
1.05285
1.05476
1.05934
1.06652
1.07541
1.08482
1.0935
1.10018
1.10572
1.11093
1.11794
1.12897
1.14402
1.1594
1.17091
1.178
1.18121
1.1814
1.179
1.1748
1.17261
1.17621
1.18241
1.18266
1.17697
1.17193
1.16741
1.16279
1.15874
1.15647
1.15894
1.16611
1.17502
1.18524
1.19828
1.20547
1.20448
1.21097
1.22137
1.21477
1.20508
1.1982
1.19149
1.18461
1.17787
1.17155
1.16584
1.16024
1.15364
1.14422
1.13421
1.12828
1.12294
1.11756
1.11164
1.10541
1.10128
1.10403
1.11844
1.13373
1.13229
1.12237
1.10938
1.09577
1.08761
1.08056
1.07435
1.07169
1.07707
1.0897
1.09432
1.08793
1.07963
1.07155
1.06504
1.05953
1.05754
1.06339
1.07201
1.06982
1.06194
1.05251
1.04015
1.03061
1.026
1.02282
1.02026
1.01816
1.01668
1.01513
1.01266
1.00877
1.00323
0.997467
0.995073
0.99467
0.993888
0.992581
0.990096
3.28209
2.62077
2.10901
1.66596
1.43843
1.28438
1.0883
1.05697
1.15125
1.40462
1.59806
1.64496
1.64031
1.62015
1.58653
1.56136
1.54159
1.51498
1.48704
1.45981
1.43392
1.41636
1.40241
1.39383
1.38319
1.36308
1.34156
1.32174
1.30279
1.28484
1.26888
1.25521
1.24462
1.23763
1.22989
1.21851
1.20602
1.19625
1.18677
1.1755
1.1648
1.15578
1.14806
1.14155
1.1408
1.13773
1.12623
1.11581
1.10811
1.10169
1.09582
1.08906
1.08259
1.07846
1.07558
1.07024
1.06382
1.05831
1.05195
1.04293
1.03318
1.02425
1.01706
1.01045
1.00319
0.99523
0.983934
0.977224
0.977487
0.98893
1.06129
1.28417
1.51986
1.5639
1.57252
1.5724
1.56343
1.55158
1.5403
1.53315
1.52999
1.52531
1.51811
1.51228
1.50602
1.50035
1.49676
1.49032
1.48069
1.47334
1.46682
1.45934
1.45465
1.44841
1.43955
1.43315
1.42963
1.42486
1.41975
1.41666
1.41276
1.40599
1.39782
1.39318
1.38856
1.37559
1.36714
1.36467
1.35347
1.34845
1.34566
1.34373
1.31696
1.29426
1.27935
1.26601
1.25569
1.24813
1.23907
1.22276
1.19556
1.16495
1.14621
1.1408
1.13864
1.13279
1.11634
1.08903
1.06795
1.0576
1.04984
1.04611
1.04665
1.04966
1.05674
1.06861
1.08241
1.09228
1.09606
1.09759
1.09957
1.10453
1.11666
1.1367
1.15621
1.17027
1.17906
1.18308
1.1837
1.18278
1.18022
1.17552
1.17255
1.17551
1.17651
1.16983
1.16394
1.15971
1.15552
1.1517
1.15078
1.15053
1.15217
1.15685
1.1647
1.17783
1.19541
1.2038
1.21242
1.22559
1.21267
1.19782
1.18893
1.18399
1.18046
1.17554
1.17096
1.1663
1.16119
1.15532
1.14695
1.13413
1.12365
1.11867
1.11407
1.10909
1.10409
1.10147
1.10493
1.11878
1.13211
1.12844
1.11878
1.10688
1.09474
1.08796
1.08193
1.07591
1.07406
1.08137
1.09317
1.09416
1.08684
1.07872
1.07064
1.06435
1.05864
1.05677
1.06409
1.07305
1.07013
1.06191
1.05241
1.04011
1.03092
1.02627
1.02276
1.0201
1.01819
1.01699
1.0158
1.0137
1.01
1.00426
0.99834
0.995771
0.995052
0.993858
0.992018
0.988827
3.55226
2.93102
2.43977
1.99388
1.71969
1.52527
1.3027
1.13431
1.15422
1.27785
1.50168
1.64796
1.66813
1.6561
1.62542
1.58542
1.55063
1.51722
1.48928
1.46422
1.44212
1.4293
1.41629
1.40337
1.38841
1.36744
1.34198
1.32086
1.30363
1.28784
1.27438
1.26299
1.2526
1.24345
1.23181
1.21729
1.20478
1.19555
1.18603
1.17574
1.16546
1.15676
1.14936
1.14327
1.14295
1.13771
1.12504
1.11484
1.10741
1.10096
1.0953
1.08804
1.08083
1.07636
1.07532
1.06897
1.06179
1.05685
1.05026
1.04143
1.03201
1.02413
1.01778
1.0111
1.00353
0.995233
0.983686
0.976516
0.976257
0.984965
1.04968
1.26877
1.52898
1.58329
1.59051
1.58434
1.5704
1.55367
1.53888
1.53081
1.52725
1.522
1.51623
1.51097
1.5037
1.49716
1.493
1.4866
1.47918
1.47341
1.46735
1.46116
1.45547
1.44779
1.43901
1.43215
1.42768
1.42339
1.4188
1.41295
1.40451
1.39499
1.38479
1.37402
1.36383
1.35323
1.33986
1.34386
1.35345
1.34896
1.34381
1.33802
1.32459
1.29749
1.27692
1.26185
1.24891
1.23804
1.22723
1.21248
1.19014
1.16306
1.14225
1.13294
1.12833
1.1219
1.10755
1.0812
1.06367
1.06127
1.0597
1.05711
1.05577
1.05517
1.05654
1.06264
1.07315
1.0835
1.09103
1.09693
1.10241
1.10917
1.12039
1.13859
1.15955
1.17415
1.18118
1.18321
1.18223
1.18
1.17838
1.17703
1.17452
1.17301
1.17358
1.16819
1.16027
1.15464
1.15264
1.14921
1.14788
1.15194
1.15804
1.16488
1.17395
1.18523
1.19599
1.20649
1.21915
1.23205
1.21513
1.19084
1.18092
1.17899
1.17881
1.17449
1.17103
1.16809
1.16418
1.15895
1.15133
1.13838
1.12281
1.11601
1.11261
1.1088
1.1049
1.10448
1.10994
1.12153
1.13044
1.12354
1.11336
1.10241
1.09174
1.08671
1.08259
1.07848
1.07881
1.08728
1.0945
1.09059
1.08271
1.07445
1.06751
1.06242
1.05797
1.05814
1.06699
1.07376
1.06896
1.06054
1.05071
1.03825
1.03007
1.02592
1.02227
1.01927
1.01727
1.01605
1.01488
1.01288
1.00933
1.00435
1.00025
0.998699
0.997654
0.995618
0.992508
0.987257
3.79873
3.21528
2.73421
2.28724
2.00291
1.79476
1.5626
1.3471
1.2914
1.33358
1.45777
1.60612
1.64827
1.64758
1.62998
1.59674
1.56043
1.52583
1.49813
1.47021
1.448
1.43818
1.42312
1.40772
1.39488
1.37479
1.34638
1.32362
1.30786
1.29135
1.27607
1.26428
1.25442
1.24416
1.22987
1.2144
1.20266
1.19345
1.18271
1.17173
1.16148
1.15356
1.1476
1.14448
1.14152
1.13117
1.11834
1.11009
1.10282
1.0964
1.09072
1.0832
1.0766
1.0738
1.07227
1.06558
1.05881
1.05391
1.04688
1.03777
1.02888
1.02185
1.01554
1.00873
1.00187
0.99483
0.983684
0.975068
0.97402
0.980206
1.03587
1.25374
1.53831
1.60175
1.6044
1.59465
1.57674
1.55641
1.54032
1.53265
1.52878
1.52336
1.5169
1.51016
1.50138
1.49491
1.49125
1.4854
1.47753
1.4716
1.46728
1.46224
1.45629
1.44762
1.43719
1.42867
1.42395
1.42194
1.41993
1.41463
1.40534
1.39539
1.38534
1.37426
1.36373
1.35527
1.34644
1.33498
1.33671
1.34481
1.33958
1.33206
1.32273
1.30157
1.27854
1.25815
1.24199
1.2294
1.21774
1.20324
1.18268
1.15687
1.1388
1.13213
1.12583
1.11611
1.09889
1.07197
1.05781
1.05535
1.06086
1.06177
1.05818
1.05657
1.05606
1.05796
1.06455
1.07488
1.08579
1.09624
1.10628
1.11554
1.12564
1.13955
1.15802
1.17528
1.18455
1.18589
1.18165
1.17699
1.17499
1.17441
1.17326
1.17074
1.16852
1.16342
1.155
1.1495
1.15033
1.15237
1.15077
1.15072
1.15445
1.16118
1.17071
1.18233
1.19418
1.20578
1.21636
1.22494
1.20873
1.18044
1.17421
1.17913
1.17719
1.17177
1.16813
1.1662
1.16336
1.15773
1.14871
1.13569
1.11971
1.11133
1.10868
1.10622
1.10375
1.1059
1.11413
1.12254
1.12638
1.12032
1.10966
1.10026
1.09098
1.08643
1.0835
1.08178
1.08566
1.09282
1.09341
1.08712
1.07944
1.07149
1.06566
1.06136
1.0582
1.06105
1.07054
1.07377
1.06775
1.0596
1.04932
1.03679
1.03036
1.02678
1.02298
1.01975
1.01753
1.01584
1.01412
1.01171
1.0079
1.00314
1.00054
0.999516
0.998088
0.995689
0.991689
0.985382
4.01331
3.48134
3.00789
2.57329
2.2786
2.06279
1.81992
1.603
1.5085
1.43798
1.46233
1.54987
1.61816
1.63189
1.62726
1.60828
1.57809
1.54532
1.51629
1.48504
1.46671
1.45724
1.44017
1.41905
1.40556
1.38594
1.3548
1.33255
1.31981
1.30576
1.28715
1.27407
1.26487
1.25038
1.23295
1.21716
1.20494
1.19404
1.18251
1.17168
1.16298
1.15646
1.15086
1.1439
1.13477
1.12391
1.11214
1.10485
1.09794
1.09169
1.08719
1.08096
1.07587
1.07367
1.06908
1.06129
1.05619
1.05159
1.04425
1.03526
1.02744
1.02121
1.01454
1.00768
1.00146
0.995555
0.984489
0.97227
0.970189
0.974511
1.02176
1.23582
1.54308
1.61564
1.61688
1.60536
1.58404
1.55938
1.54175
1.53407
1.52797
1.52154
1.51549
1.50764
1.49675
1.49048
1.48765
1.48287
1.47556
1.46942
1.46466
1.45958
1.45292
1.44364
1.43326
1.42457
1.41877
1.41574
1.41306
1.40889
1.40307
1.39566
1.38612
1.37515
1.36511
1.35801
1.35509
1.34947
1.33668
1.332
1.33332
1.32823
1.3191
1.30175
1.28027
1.25719
1.23583
1.21874
1.20715
1.19491
1.17567
1.14915
1.13407
1.12789
1.12188
1.10884
1.08874
1.0729
1.06405
1.05854
1.06283
1.07141
1.06794
1.06118
1.05824
1.05867
1.06281
1.07186
1.08462
1.09794
1.11057
1.12185
1.13211
1.14402
1.15847
1.17338
1.18276
1.18362
1.1793
1.17371
1.17023
1.16736
1.16505
1.16308
1.16086
1.15794
1.15328
1.14929
1.15025
1.15549
1.15635
1.1551
1.15653
1.16105
1.16865
1.17987
1.19291
1.20467
1.21388
1.21148
1.18974
1.16995
1.17523
1.1841
1.18155
1.17753
1.174
1.16943
1.16188
1.15178
1.14119
1.13011
1.11841
1.11115
1.10899
1.1076
1.10775
1.11227
1.11821
1.12051
1.11915
1.116
1.10668
1.09809
1.09117
1.08802
1.08652
1.08871
1.09383
1.09418
1.08916
1.08274
1.07581
1.06956
1.06498
1.06124
1.05975
1.06539
1.07304
1.07242
1.06619
1.05825
1.04694
1.03571
1.03074
1.02715
1.02311
1.01979
1.01763
1.01577
1.01368
1.01082
1.00659
1.00256
1.00053
0.999149
0.997322
0.994267
0.989253
0.983537
4.2046
3.71971
3.2625
2.84309
2.55926
2.33022
2.08534
1.86812
1.75478
1.62469
1.55544
1.58462
1.6225
1.62737
1.62871
1.61887
1.59495
1.56343
1.53305
1.5014
1.48667
1.47436
1.45518
1.43037
1.41457
1.3958
1.36477
1.33869
1.32615
1.31443
1.29539
1.28207
1.27126
1.25451
1.23701
1.22159
1.20704
1.19369
1.18252
1.17291
1.16629
1.15824
1.14759
1.13847
1.12967
1.11927
1.10617
1.09784
1.09178
1.08689
1.08424
1.07897
1.07341
1.07048
1.06544
1.05916
1.05507
1.05028
1.04337
1.0348
1.02762
1.02187
1.01602
1.00984
1.0032
0.996856
0.98573
0.97118
0.968514
0.972004
1.01313
1.22189
1.54372
1.62415
1.62488
1.61248
1.58831
1.56075
1.5439
1.53677
1.53006
1.52301
1.51541
1.50519
1.49433
1.48961
1.48661
1.48267
1.47574
1.46886
1.46417
1.45962
1.45327
1.44495
1.43574
1.42672
1.41888
1.41434
1.412
1.40892
1.40312
1.39541
1.38672
1.37698
1.3677
1.35966
1.35298
1.34896
1.34348
1.32824
1.32135
1.3212
1.31205
1.29996
1.28102
1.25804
1.23381
1.21276
1.1992