/*--------------------------------*- C++ -*----------------------------------*\
  =========                 |
  \\      /  F ield         | OpenFOAM: The Open Source CFD Toolbox
   \\    /   O peration     | Website:  https://openfoam.org
    \\  /    A nd           | Version:  7
     \\/     M anipulation  |
\*---------------------------------------------------------------------------*/
FoamFile
{
    version     2.0;
    format      ascii;
    class       volScalarField;
    location    "2.7";
    object      p;
}
// * * * * * * * * * * * * * * * * * * * * * * * * * * * * * * * * * * * * * //

dimensions      [1 -1 -2 0 0 0 0];

internalField   nonuniform List<scalar> 
16192
(
1
1
1
1
1
1
1
1
1
1
1
1.0001
1.09731
3.20801
5.04182
5.34742
5.32257
5.26675
5.20084
5.13679
1
1
1
1
1
1
1
1
1
1
1
1
1.00566
1.83891
4.55716
5.36634
5.35959
5.30396
5.22399
5.15367
1
1
1
1
1
1
1
1
1
1
1
1
1.00019
1.14798
3.42479
5.05675
5.3158
5.29285
5.23715
5.16669
1
1
1
1
1
1
1
1
1
1
1
1
1
1.01008
2.01278
4.63395
5.34204
5.32642
5.26711
5.18615
1
1
1
1
1
1
1
1
1
1
1
1
1
1.00037
1.20476
3.58764
5.10905
5.28725
5.26023
5.19908
1
1
1
1
1
1
1
1
1
1
1
1
1
1.00001
1.01595
2.17145
4.70637
5.29913
5.28786
5.23128
1
1
1
1
1
1
1
1
1
1
1
1
1
1
1.00064
1.2651
3.71001
5.17771
5.27646
5.24211
1
1
1
1
1
1
1
1
1
1
1
1
1
1
1.00002
1.02292
2.31029
4.78903
5.27381
5.26028
1
1
1
1
1
1
1
1
1
1
1
1
1
1
1
1.00097
1.32577
3.82921
5.18053
5.26158
1
1
1
1
1
1
1
1
1
1
1
1
1
1
1
1.00003
1.03144
2.43465
4.88661
5.24208
1
1
1
1
1
1
1
1
1
1
1
1
1
1
1
1
1.00136
1.38944
4.0195
5.05401
1
1
1
1
1
1
1
1
1
1
1
1
1
1
1
1
1.00004
1.04336
2.5886
4.72279
1
1
1
1
1
1
1
1
1
1
1
1
1
1
1
1
1
1.00204
1.45776
3.92296
1
1
1
1
1
1
1
1
1
1
1
1
1
1
1
1
1
1.00006
1.05702
2.54363
1
1
1
1
1
1
1
1
1
1
1
1
1
1
1
1
1
1
1.0031
1.45339
1
1
1
1
1
1
1
1
1
1
1
1
1
1
1
1
1
1
1.00009
1.0618
1
1
1
1
1
1
1
1
1
1
1
1
1
1
1
1
1
1
1
1.00433
1
1
1
1
1
1
1
1
1
1
1
1
1
1
1
1
1
1
1
1.00016
1
1
1
1
1
1
1
1
1
1
1
1
1
1
1
1
1
1
1
1
1
1
1
1
1
1
1
1
1
1
1
1
1
1
1
1
1
1
1
1
1
1
1
1
1
1
1
1
1
1
1
1
1
1
1
1
1
1
1
1
1
1
1
1
1
1
1
1
1
1
1
1
1
1
1
1
1
1
1
1
1
1
1
1
1
1
1
1
1
1
1
1
1
1
1
1
1
1
1
1
1
1
1
1
1
1
1
1
1
1
1
1
1
1
1
1
1
1
1
1
1
1
1
1
1
1
1
1
1
1
1
1
1
1
1
1
1
1
1
1
1
1
1
1
1
1
1
1
1
1
1
1
1
1
1
1
1
1
1
1
1
1
1
1
1
1
1
1
1
1
1
1
1
1
1
1
1
1
1
1
1
1
1
1
1
1
1
1
1
1
1
1
1
1
1
1
1
1
1
1
1
1
1
1
1
1
1
1
1
1
1
1
1
1
1
1
1
1
1
1
1
1
1
1
1
1
1
1
1
1
1
1
1
1
1
1
1
1
1
1
1
1
1
1
1
1
1
1
1
1
1
1
1
1
1
1
1
1
1
1
1
1
1
1
1
1
1
1
1
1
1
1
1
1
1
1
1
1
1
1
1
1
1
1
1
1
1
1
1
1
1
1
1
1
1
1
1
1
1
1
1
1
1
1
1
1
1
1
1
1
1
1
1
1
1
1
1
1
1
1
1
1
1
1
1
1
1
1
1
1
1
1
1
1
1
1
1
1
1
1
1
1
1
1
1
1
1
1
1
1
1
1
1
1
1
1
1
1
1
1
1
1
1
1
1
1
1
1
1
1
1
1
1
1
1
1
1
1
1
1
1
1
1
1
1
1
1
1
1
1
1
1
1
1
1
1
1
1
1
1
1
1
1
1
1
1
1
1
1
1
1
1
1
1
1
1
1
1
1
1
1
1
1
1
1
1
1
1
1
1
1
1
1
1
1
1
1
1
1
1
1
1
1
1
1
1
1
1
1
1
1
1
1
1
1
1
1
1
1
1
1
1
1
1
1
1
1
1
1
1
1
1
1
1
1
1
1
1
1
1
1
1
1
1
1
1
1
1
1
1
1
1
1
1
1
1
1
1
1
1
1
1
1
1
1
1
1
1
1
1
1
1
1
1
1
1
1
1
1
1
1
1
1
1
1
1
1
1
1
1
1
1
1
1
1
1
1
1
1
1
1
1
1
1
1
1
1
1
1
1
1
1
1
1
1
1
1
1
1
1
1
1
1
1
1
1
1
1
1
1
1
1
1
1
1
1
1
1
1
1
1
1
1
1
1
1
1
1
1
1
1
1
1
1
1
1
1
1
1
1
1
1
1
1
1
1
1
1
1
1
1
1
1
1
1
1
1
1
1
1
1
1
1
1
1
1
1
1
1
1
1
1
1
1
1
1
1
1
1
1
1
1
1
1
1
1
1
1
1
1
1
1
1
1
1
1
1
1
1
1
1
1
1
1
1
1
1
1
1
1
1
1
1
1
1
1
1
1
1
1
1
1
1
1
1
1
1
1
1
1
1
1
1
1
1
1
1
1
1
1
1
1
1
1
1
1
1
1
1
1
1
1
1
1
1
1
1
1
1
1
1
1
1
1
1
1
1
1
1
1
1
1
1
1
1
1
1
1
1
1
1
1
1
1
1
1
1
1
1
1
1
1
1
1
1
1
1
1
1
1
1
1
1
1
1
1
1
1
1
1
1
1
1
1
1
1
1
1
1
1
1
1
1
1
1
1
1
1
1
1
1
1
1
1
1
1
1
1
1
1
1
1
1
1
1
1
1
1
1
1
1
1
1
1
1
1
1
1
1
1
1
1
1
1
1
1
1
1
1
1
1
1
1
1
1
1
1
1
1
1
1
1
1
1
1
1
1
1
1
1
1
1
1
1
1
1
1
1
1
1
1
1
1
1
1
1
1
1
1
1
1
1
1
1
1
1
1
1
1
1
1
1
1
1
1
1
1
1
1
1
1
1
1
1
1
1
1
1
1
1
1
1
1
1
1
1
1
1
1
1
1
1
1
1
1
1
1
1
1
1
1
1
1
1
1
1
1
1
1
1
1
1
1
1
1
1
1
1
1
1
3.07544
3.05489
3.03125
3.01177
2.99606
2.9748
2.94326
2.9085
2.87639
2.8542
2.83733
2.81998
2.80231
2.77786
2.74508
2.72497
2.71924
2.713
2.70467
2.69387
2.67693
2.64382
2.59334
2.54559
2.52258
2.51746
2.51949
2.52488
2.52107
2.51178
2.48862
2.44959
2.40902
2.3833
2.3714
2.36456
2.35608
2.33318
2.29014
2.26132
2.25655
2.25565
2.25987
2.26396
2.26144
2.25574
2.24375
2.21106
2.15634
2.11711
2.10914
2.11001
2.10887
2.10176
2.0963
2.08995
2.08099
2.06151
2.02376
1.989
1.98088
1.9772
1.97114
1.95898
1.94214
1.93601
1.93336
1.93225
1.9313
1.92833
1.92385
1.91615
1.89535
1.85375
1.81068
1.79581
1.79379
1.79601
1.80853
1.81713
1.81599
1.8128
1.80754
1.79165
1.76046
1.71979
1.6921
1.6787
1.67425
1.67304
1.6777
1.69557
1.71314
1.71329
1.70685
1.69124
1.6547
1.5894
1.54564
1.53457
1.5341
1.54317
1.5789
1.62949
1.64794
1.64546
1.6353
1.61461
1.58216
1.53838
1.49572
1.46606
1.45025
1.44758
1.44709
1.45028
1.46632
1.49915
1.52027
1.51929
1.51291
1.49724
1.46229
1.40716
1.37711
1.37011
1.36907
1.3738
1.39446
1.41267
1.41259
1.40921
1.40215
1.38153
5.08955
5.06096
5.03237
4.99998
4.96797
4.9419
4.91138
4.88122
4.84828
4.82007
4.79454
4.76337
4.73597
4.70283
4.67453
4.65208
4.62235
4.5942
4.56029
4.53142
4.51015
4.47916
4.45186
4.42169
4.38993
4.36834
4.33882
4.31083
4.28051
4.24612
4.22508
4.19711
4.16975
4.13933
4.10929
4.09205
4.06647
4.04382
4.01617
3.98773
3.96516
3.93667
3.91305
3.88212
3.85718
3.83253
3.80296
3.77861
3.74703
3.72443
3.69883
3.6728
3.64873
3.61245
3.59287
3.57623
3.58026
3.59287
3.63698
3.75519
3.89927
4.00813
4.04218
4.04421
4.02396
3.98789
3.95538
3.91688
3.87911
3.84745
3.81878
3.79123
3.76234
3.74191
3.7202
3.68869
3.65547
3.62632
3.58667
3.55687
3.53425
3.50262
3.4751
3.44445
3.41864
3.39606
3.36796
3.34031
3.30933
3.28385
3.26142
3.23503
3.20822
3.18098
3.14423
3.11679
3.09874
3.07652
3.05723
3.04269
3.02296
2.98987
2.95297
2.91937
2.89489
2.87813
2.8618
2.84461
2.82217
2.7924
2.76871
2.7613
2.75399
2.74497
2.734
2.71729
2.68419
2.63281
2.58407
2.56324
2.5593
2.56219
2.56374
2.55701
2.54569
2.51999
2.47888
2.43815
2.41414
2.40517
2.40043
2.39325
2.37214
2.33033
2.29818
2.29239
2.29217
2.29664
2.29767
2.29511
2.29035
2.2792
2.24617
2.1888
2.14524
2.13453
2.13389
2.13664
2.13103
2.12414
2.11721
2.10829
2.0925
2.06013
2.02285
2.01062
2.00689
2.00179
1.9923
1.97394
1.96417
1.96092
1.9591
1.95741
1.95401
1.94946
1.94232
1.92357
1.88443
1.83957
1.82167
1.81953
1.82263
1.8376
1.84576
1.84309
1.83913
1.83261
1.81454
1.78039
1.73678
1.71022
1.69896
1.69569
1.69513
1.70194
1.7209
1.73676
1.73634
1.73005
1.71455
1.67858
1.6141
1.56981
1.55838
1.5579
1.56776
1.60617
1.65707
1.67256
1.669
1.65676
1.63166
1.59109
1.54508
1.51077
1.48727
1.47338
1.47117
1.4707
1.47369
1.48911
1.52061
1.54113
1.54011
1.53307
1.51622
1.47878
1.42189
1.39265
1.38608
1.3853
1.39053
1.4127
1.43505
1.43617
1.43197
1.42323
1.40058
1.36274
5.10654
5.07875
5.04936
5.0151
4.98628
4.95796
4.92812
4.8967
4.86373
4.8386
4.8097
4.78204
4.75238
4.71941
4.69613
4.66841
4.64065
4.6106
4.5769
4.55474
4.52646
4.4967
4.47062
4.43562
4.41213
4.38529
4.35493
4.32807
4.29223
4.26866
4.24345
4.21451
4.1885
4.15532
4.1356
4.11224
4.0865
4.06159
4.02822
4.00568
3.97835
3.95281
3.92436
3.89584
3.87408
3.84482
3.81975
3.78911
3.76128
3.73887
3.71094
3.69255
3.666
3.63966
3.61795
3.58888
3.57797
3.58491
3.61274
3.67477
3.7959
3.95284
4.0212
4.04316
4.03601
4.01571
3.98864
3.94824
3.90779
3.87564
3.84645
3.81209
3.78558
3.76578
3.73722
3.70378
3.67596
3.64004
3.60448
3.58252
3.55188
3.52266
3.49437
3.46572
3.44308
3.41471
3.38554
3.35462
3.32868
3.30602
3.27969
3.25227
3.22473
3.18845
3.15765
3.14074
3.12073
3.10209
3.08927
3.07097
3.03785
2.99892
2.96317
2.93657
2.91934
2.9036
2.88784
2.86795
2.84065
2.81474
2.80274
2.79437
2.7851
2.77417
2.75769
2.72534
2.67371
2.62345
2.60271
2.59935
2.60228
2.60127
2.5931
2.58035
2.55257
2.51017
2.47013
2.44823
2.44151
2.43815
2.43064
2.40867
2.36733
2.3344
2.32762
2.32853
2.3342
2.33289
2.3292
2.32429
2.31379
2.28139
2.22196
2.17464
2.16161
2.16035
2.16191
2.15869
2.1528
2.14602
2.13726
2.12352
2.09696
2.06065
2.04537
2.04195
2.03673
2.02705
2.00615
1.9921
1.98811
1.98589
1.98393
1.98022
1.97542
1.96837
1.95106
1.91424
1.86902
1.84863
1.84621
1.8493
1.86471
1.87275
1.8691
1.86417
1.85613
1.83651
1.80038
1.75542
1.72992
1.72049
1.71811
1.7186
1.72807
1.74775
1.76077
1.75924
1.75294
1.73779
1.70284
1.63964
1.59469
1.58278
1.58227
1.59266
1.63324
1.68443
1.69718
1.69266
1.67859
1.64935
1.60086
1.55413
1.52702
1.50788
1.49641
1.49457
1.49412
1.49712
1.51231
1.54249
1.5619
1.56085
1.5534
1.5352
1.49508
1.43679
1.40811
1.40188
1.40144
1.40764
1.43155
1.45777
1.46075
1.45635
1.44586
1.42034
1.37935
1.3527
5.11866
5.08987
5.05895
5.02788
5.00023
4.96986
4.93958
4.90597
4.88118
4.85579
4.82674
4.79794
4.76431
4.74214
4.71705
4.68703
4.65791
4.62319
4.59934
4.57381
4.54181
4.51621
4.48183
4.45514
4.43137
4.40048
4.37297
4.33793
4.3113
4.28972
4.25982
4.23453
4.20245
4.17789
4.15651
4.12803
4.10388
4.06976
4.04397
4.01965
3.9921
3.96657
3.93501
3.91432
3.88784
3.86033
3.83346
3.80055
3.77958
3.75251
3.73022
3.71093
3.68399
3.66729
3.64235
3.61215
3.58632
3.58641
3.60023
3.62821
3.70286
3.8628
3.97088
4.03246
4.04592
4.03537
4.01219
3.97621
3.93504
3.90288
3.86969
3.83263
3.80943
3.7839
3.7509
3.72259
3.69177
3.65368
3.62983
3.60039
3.56887
3.5432
3.51228
3.48941
3.46244
3.4325
3.4007
3.37187
3.34973
3.32442
3.29735
3.27003
3.23547
3.20293
3.18453
3.1656
3.14736
3.13502
3.11557
3.08266
3.04489
3.00811
2.97982
2.96186
2.94669
2.93146
2.91359
2.88859
2.86114
2.84386
2.83415
2.82495
2.81431
2.79823
2.76702
2.71708
2.66488
2.64183
2.63825
2.63997
2.6378
2.62885
2.61554
2.58654
2.54401
2.50448
2.48502
2.48001
2.47738
2.46901
2.44444
2.40234
2.36895
2.36162
2.36285
2.37184
2.36912
2.36419
2.3586
2.34725
2.31555
2.25616
2.20572
2.18973
2.18745
2.18844
2.18644
2.17999
2.17288
2.16484
2.15406
2.13392
2.10077
2.08446
2.08217
2.07641
2.06062
2.03501
2.0191
2.01443
2.01206
2.01059
2.00704
2.00215
1.99535
1.97928
1.94393
1.89845
1.87596
1.87314
1.8759
1.89052
1.8973
1.89325
1.88799
1.87932
1.85898
1.82104
1.77587
1.75142
1.74365
1.74201
1.74436
1.7569
1.77575
1.78474
1.78216
1.77533
1.76009
1.72679
1.66605
1.62034
1.60773
1.60719
1.6178
1.65944
1.71019
1.72122
1.71576
1.70018
1.66714
1.61121
1.56441
1.54236
1.52697
1.51867
1.51713
1.51668
1.52026
1.53628
1.56546
1.58297
1.58166
1.57372
1.55414
1.51098
1.45101
1.42327
1.4176
1.4175
1.42495
1.45124
1.48109
1.48561
1.481
1.46902
1.44076
1.3959
1.3669
1.36049
5.13334
5.10309
5.07208
5.0436
5.01503
4.98683
4.95546
4.92412
4.90014
4.87307
4.84726
4.81438
4.78666
4.76379
4.73452
4.7073
4.67347
4.64491
4.62094
4.58904
4.56213
4.53072
4.49844
4.47485
4.44492
4.41711
4.38583
4.3535
4.33279
4.30422
4.27784
4.24962
4.21938
4.19898
4.17066
4.14459
4.1131
4.08165
4.06001
4.03211
4.00803
3.97681
3.95346
3.93069
3.90141
3.87704
3.84334
3.82005
3.79788
3.77138
3.75394
3.72756
3.70965
3.69365
3.66753
3.64083
3.60598
3.59751
3.59717
3.60601
3.64039
3.76109
3.8904
3.98891
4.05067
4.05039
4.036
4.00802
3.96473
3.92939
3.88949
3.85383
3.82866
3.79799
3.76849
3.74063
3.70345
3.67724
3.65002
3.61597
3.59028
3.55883
3.53374
3.50952
3.4789
3.44884
3.4174
3.39386
3.36916
3.34233
3.31504
3.28177
3.25095
3.23197
3.21336
3.19443
3.17847
3.15676
3.12303
3.08772
3.0522
3.02331
3.00544
2.99103
2.97656
2.95955
2.9359
2.90762
2.88501
2.87236
2.86316
2.85308
2.83777
2.80807
2.76061
2.70709
2.68109
2.67655
2.6768
2.6743
2.66496
2.65112
2.62202
2.5798
2.54148
2.52392
2.51991
2.51764
2.50845
2.48148
2.43747
2.40346
2.39526
2.39538
2.40733
2.40602
2.39942
2.39353
2.38107
2.34812
2.28924
2.23924
2.22054
2.21602
2.21419
2.21353
2.2082
2.20043
2.19151
2.18134
2.16795
2.1462
2.12737
2.12164
2.11041
2.08645
2.05986
2.04431
2.03971
2.03775
2.03708
2.03417
2.02958
2.02317
2.00793
1.97345
1.92715
1.90308
1.89962
1.90189
1.91509
1.92034
1.91595
1.91054
1.90229
1.88224
1.84389
1.79928
1.7754
1.76893
1.76785
1.77304
1.78838
1.80425
1.80824
1.80436
1.79641
1.78053
1.74952
1.69308
1.6472
1.63338
1.63264
1.64302
1.68477
1.73427
1.74381
1.7378
1.72121
1.68486
1.62186
1.57449
1.55604
1.54471
1.53948
1.53814
1.53805
1.54335
1.56084
1.58935
1.60476
1.60322
1.59481
1.57345
1.52654
1.46513
1.43865
1.43333
1.43337
1.44215
1.47144
1.50472
1.51077
1.50599
1.49282
1.4623
1.41281
1.38143
1.37449
1.37432
5.14917
5.117
5.08853
5.06257
5.03397
5.00409
4.97089
4.94673
4.92058
4.89234
4.86075
4.83035
4.81044
4.78275
4.75338
4.72132
4.68982
4.66726
4.6374
4.60762
4.57837
4.5429
4.51874
4.4902
4.45984
4.43028
4.39498
4.37388
4.34847
4.3187
4.2931
4.25994
4.238
4.2121
4.18337
4.15618
4.12093
4.10022
4.07497
4.04985
4.02185
3.9943
3.97444
3.94602
3.92042
3.89017
3.86079
3.84275
3.81712
3.79714
3.77405
3.74918
3.73718
3.71657
3.69414
3.66832
3.63473
3.61417
3.59867
3.59714
3.61306
3.68521
3.8021
3.92397
4.03084
4.06168
4.06119
4.034
3.99006
3.95223
3.90904
3.87468
3.84573
3.81512
3.78877
3.75339
3.72418
3.70047
3.66598
3.63792
3.60874
3.57759
3.55593
3.52573
3.49625
3.46557
3.44045
3.41598
3.38856
3.36051
3.32688
3.29679
3.27922
3.26155
3.24272
3.22532
3.20329
3.166
3.12894
3.09428
3.0649
3.04741
3.03411
3.02125
3.00619
2.98355
2.95403
2.92778
2.91084
2.90013
2.88984
2.87508
2.84701
2.80327
2.75101
2.72104
2.71503
2.71398
2.71173
2.70235
2.68824
2.6586
2.61702
2.57931
2.56388
2.56061
2.55805
2.54791
2.5192
2.47412
2.43914
2.42985
2.42867
2.44043
2.44303
2.43524
2.42813
2.41525
2.38188
2.32055
2.27061
2.25326
2.24765
2.24211
2.23876
2.23525
2.22879
2.2201
2.21036
2.19969
2.1874
2.17523
2.1638
2.14126
2.10998
2.08233
2.06776
2.06397
2.0633
2.06399
2.06154
2.05741
2.05138
2.037
2.0031
1.95554
1.92996
1.92587
1.92742
1.93871
1.94249
1.93802
1.93282
1.92532
1.90672
1.86972
1.82543
1.80206
1.7971
1.79699
1.80593
1.82251
1.83285
1.8317
1.82532
1.8144
1.79813
1.77062
1.72032
1.67522
1.66001
1.65901
1.66863
1.70934
1.75706
1.76526
1.75876
1.7415
1.70188
1.6327
1.58562
1.56982
1.56193
1.55872
1.55762
1.55887
1.56699
1.58688
1.61444
1.62705
1.62526
1.6165
1.59317
1.54181
1.47919
1.45453
1.44959
1.44964
1.45952
1.49204
1.52852
1.53577
1.53126
1.51678
1.48361
1.43037
1.39697
1.38937
1.38898
1.39329
5.17917
5.14225
5.1126
5.08541
5.05737
5.02403
4.9917
4.9667
4.93961
4.91233
4.87726
4.85248
4.82803
4.79885
4.77082
4.73539
4.70992
4.68315
4.65206
4.62545
4.5897
4.5619
4.53451
4.50242
4.47467
4.43849
4.41256
4.3904
4.35938
4.33487
4.30238
4.27601
4.25355
4.22368
4.1983
4.16383
4.14034
4.11968
4.09343
4.06931
4.0388
4.01866
3.99344
3.9652
3.93997
3.90595
3.88727
3.866
3.84262
3.82271
3.79319
3.77722
3.76108
3.73783
3.7191
3.69141
3.66256
3.63479
3.60394
3.59472
3.60405
3.64008
3.72211
3.83592
3.98257
4.04501
4.05296
4.03703
4.00691
3.97227
3.93007
3.89604
3.86489
3.83745
3.80524
3.7709
3.74982
3.71886
3.68651
3.66087
3.6244
3.60154
3.57478
3.54324
3.51334
3.48618
3.46407
3.43691
3.40843
3.37413
3.34263
3.32581
3.30868
3.28944
3.2711
3.25018
3.21651
3.17594
3.1384
3.10783
3.08954
3.0757
3.06322
3.04992
3.02987
3.00088
2.97111
2.95036
2.93754
2.92648
2.91181
2.88531
2.84422
2.79377
2.76126
2.75353
2.7515
2.75008
2.74128
2.72722
2.69723
2.65533
2.61846
2.60425
2.60123
2.59833
2.58666
2.55645
2.51154
2.47626
2.46599
2.46378
2.47361
2.47971
2.47216
2.46362
2.44893
2.41586
2.3538
2.29933
2.28281
2.27969
2.27348
2.26629
2.26138
2.25659
2.24998
2.24149
2.23298
2.22527
2.21759
2.20355
2.17257
2.13477
2.10527
2.09178
2.08842
2.08871
2.09195
2.08988
2.08585
2.08028
2.06676
2.03321
1.98422
1.95658
1.95178
1.95246
1.96222
1.96484
1.96042
1.95546
1.94867
1.9326
1.89834
1.8551
1.83077
1.82694
1.82927
1.84264
1.85684
1.85884
1.85315
1.84202
1.82873
1.81347
1.78985
1.74728
1.7045
1.68754
1.68634
1.69504
1.73349
1.779
1.78619
1.77928
1.76139
1.71855
1.6446
1.59853
1.58468
1.57934
1.577
1.57642
1.5797
1.59132
1.61451
1.64119
1.65056
1.64824
1.6387
1.61281
1.55695
1.49403
1.47081
1.46602
1.46619
1.47753
1.51334
1.55216
1.55991
1.5555
1.54031
1.50504
1.44786
1.41341
1.40549
1.4047
1.40835
1.42382
5.19503
5.15679
5.1274
5.0988
5.06913
5.03772
5.01324
4.98622
4.9574
4.92322
4.893
4.87092
4.84121
4.81188
4.77706
4.74816
4.725
4.69367
4.66532
4.63172
4.60217
4.57887
4.54706
4.51855
4.48504
4.4536
4.43219
4.40161
4.37426
4.34567
4.3137
4.294
4.26649
4.24059
4.2099
4.18128
4.16534
4.14046
4.1173
4.08804
4.06454
4.043
4.0135
3.98878
3.9563
3.93083
3.91401
3.88995
3.86992
3.84187
3.81749
3.80358
3.78067
3.75972
3.73806
3.70909
3.68447
3.65322
3.61966
3.59947
3.60341
3.62222
3.66826
3.74776
3.90005
4.00121
4.02891
4.03146
4.01718
3.99139
3.95322
3.9195
3.88925
3.86016
3.82232
3.79846
3.77269
3.73685
3.71082
3.67571
3.6455
3.62453
3.59299
3.56409
3.53178
3.50914
3.4845
3.4566
3.42413
3.39104
3.3742
3.35712
3.33601
3.31513
3.2927
3.26262
3.22377
3.18542
3.15413
3.13513
3.12115
3.10585
3.09202
3.07336
3.04537
3.01341
2.98954
2.97494
2.9638
2.94973
2.92471
2.88508
2.83628
2.80167
2.79213
2.78931
2.78907
2.78126
2.76755
2.73754
2.69494
2.65826
2.64464
2.64141
2.6377
2.62447
2.59317
2.54862
2.51431
2.50354
2.50079
2.50862
2.51634
2.50939
2.4996
2.48242
2.44878
2.38896
2.33039
2.31048
2.30759
2.30547
2.29692
2.28996
2.28484
2.28024
2.27468
2.26831
2.26238
2.25564
2.23898
2.20342
2.15994
2.12975
2.11754
2.11445
2.11534
2.12118
2.11962
2.11533
2.10999
2.0969
2.06324
2.0124
1.98286
1.97724
1.97712
1.98575
1.98809
1.98386
1.97938
1.97322
1.95976
1.92862
1.88676
1.86177
1.85853
1.86284
1.87868
1.88804
1.88443
1.87203
1.85558
1.84129
1.82729
1.80758
1.77363
1.73483
1.7162
1.71466
1.72206
1.75781
1.80076
1.80692
1.79972
1.78136
1.73578
1.65826
1.61325
1.60098
1.59712
1.5953
1.59527
1.60062
1.61619
1.6438
1.66934
1.6751
1.67194
1.66123
1.63233
1.57145
1.50927
1.48774
1.48317
1.48342
1.49635
1.53545
1.57565
1.58321
1.57883
1.56301
1.52582
1.46548
1.43035
1.42215
1.42104
1.42471
1.4405
1.45586
5.22261
5.18316
5.14927
5.11952
5.08808
5.05888
5.03291
5.00486
4.97507
4.9389
4.91248
4.88306
4.85216
4.8213
4.78694
4.76458
4.73614
4.70661
4.67534
4.64026
4.6188
4.59105
4.56204
4.53401
4.49957
4.47671
4.44872
4.41774
4.39192
4.35679
4.33541
4.31198
4.28492
4.25933
4.22716
4.21057
4.18929
4.16468
4.13965
4.11124
4.09179
4.06475
4.03769
4.01014
3.97626
3.9594
3.93757
3.91495
3.89116
3.86006
3.84408
3.82395
3.79891
3.77822
3.74922
3.7247
3.7018
3.67162
3.64371
3.61433
3.60983
3.62004
3.63672
3.67716
3.79178
3.92679
3.99033
4.02447
4.02554
4.00912
3.97816
3.9469
3.91844
3.88342
3.85125
3.82779
3.79149
3.75891
3.72756
3.68699
3.66827
3.64375
3.61455
3.58612
3.55547
3.53199
3.50328
3.47195
3.43745
3.42043
3.40612
3.38477
3.36245
3.3376
3.30558
3.26727
3.23075
3.20007
3.18088
3.16895
3.15402
3.13851
3.11864
3.08958
3.0546
3.02696
3.01108
3.00055
2.98801
2.96519
2.92722
2.87994
2.84363
2.83247
2.82853
2.82861
2.822
2.80869
2.77871
2.73486
2.69813
2.68477
2.68093
2.67608
2.66138
2.62912
2.58495
2.55213
2.54175
2.5391
2.54611
2.55275
2.5466
2.53548
2.51511
2.48116
2.42455
2.36576
2.34113
2.33612
2.33445
2.32865
2.32112
2.31582
2.31199
2.30908
2.30523
2.30014
2.29259
2.27224
2.23245
2.18402
2.15509
2.14474
2.14203
2.14381
2.15179
2.15125
2.14652
2.14095
2.1275
2.09283
2.03973
2.00872
2.00239
2.00153
2.00938
2.01248
2.00831
2.00423
1.9987
1.98756
1.9596
1.91971
1.89462
1.89155
1.89676
1.9116
1.91606
1.90912
1.89146
1.87016
1.85423
1.84087
1.82477
1.79954
1.76608
1.74571
1.74374
1.74996
1.78255
1.82258
1.82791
1.82042
1.80147
1.75417
1.67417
1.62971
1.6184
1.61527
1.61372
1.6143
1.62185
1.64187
1.67416
1.69812
1.70099
1.69699
1.68422
1.65153
1.58546
1.52439
1.50468
1.50077
1.50131
1.51604
1.55835
1.59893
1.60553
1.60071
1.5841
1.54521
1.48258
1.44744
1.43938
1.43823
1.44162
1.4575
1.47361
1.47465
5.239
5.20385
5.16651
5.13027
5.09913
5.07502
5.04626
5.01523
4.9799
4.95124
4.9265
4.89445
4.86425
4.82628
4.79892
4.77528
4.74606
4.71942
4.68274
4.65814
4.63436
4.60322
4.57664
4.54414
4.52102
4.49787
4.46659
4.44119
4.4074
4.37998
4.36014
4.33295
4.30897
4.2778
4.25701
4.23976
4.21319
4.1891
4.15743
4.13534
4.11339
4.08462
4.05999
4.02588
4.00261
3.9843
3.95915
3.93669
3.90497
3.88263
3.86543
3.83973
3.81687
3.79002
3.75853
3.74056
3.71642
3.69348
3.67076
3.63877
3.62529
3.61976
3.62215
3.635
3.69603
3.83044
3.92673
3.99663
4.02585
4.02419
4.00541
3.98071
3.95221
3.91314
3.88368
3.84992
3.80956
3.77845
3.73449
3.70637
3.68986
3.66173
3.63789
3.60819
3.58069
3.55355
3.52161
3.48338
3.45888
3.44853
3.43083
3.40857
3.38534
3.35489
3.31327
3.27521
3.24404
3.22323
3.21145
3.19957
3.18629
3.16732
3.13793
3.10031
3.06643
3.04708
3.0367
3.02535
3.00455
2.96849
2.92322
2.88659
2.87499
2.87032
2.86989
2.86382
2.85039
2.82015
2.775
2.73757
2.7239
2.71973
2.71352
2.69724
2.66481
2.62119
2.58927
2.5796
2.57766
2.58513
2.58891
2.58215
2.56913
2.54629
2.51304
2.46056
2.40281
2.3742
2.3682
2.36498
2.36072
2.35388
2.349
2.34603
2.34488
2.34271
2.33803
2.32963
2.3057
2.26065
2.20792
2.18074
2.17238
2.17035
2.17396
2.1829
2.184
2.17945
2.17359
2.15948
2.12337
2.06717
2.03419
2.02686
2.02562
2.03306
2.03805
2.03425
2.03037
2.02533
2.01585
1.99041
1.95308
1.92863
1.9256
1.93075
1.94272
1.94288
1.93284
1.91073
1.88543
1.86771
1.85496
1.84234
1.82448
1.79728
1.77593
1.77327
1.77845
1.80813
1.84472
1.84911
1.8414
1.82209
1.77376
1.69201
1.64718
1.6365
1.63384
1.63245
1.63359
1.64338
1.66824
1.70507
1.72706
1.72773
1.72244
1.70695
1.67006
1.59927
1.5403
1.52233
1.51907
1.52005
1.53675
1.58175
1.62201
1.62729
1.62189
1.6045
1.56337
1.4992
1.46464
1.45663
1.45556
1.46028
1.47553
1.49019
1.4927
1.48992
5.24762
5.22439
5.1914
5.14152
5.09996
5.07626
5.05124
5.02038
4.98542
4.9644
4.93779
4.90928
4.87742
4.84345
4.81832
4.78755
4.76029
4.72931
4.70068
4.68141
4.65205
4.6242
4.59139
4.56221
4.5436
4.51621
4.49067
4.46377
4.43102
4.41096
4.38467
4.35904
4.33077
4.30312
4.28781
4.26316
4.23766
4.20869
4.17715
4.15682
4.12921
4.10351
4.07511
4.04463
4.02822
4.00364
3.97924
3.95125
3.92078
3.90401
3.88051
3.85515
3.83213
3.79708
3.77493
3.75753
3.73414
3.71903
3.69712
3.6698
3.64689
3.62233
3.61266
3.61053
3.63593
3.72701
3.84441
3.94347
4.01551
4.03372
4.0297
4.0153
3.98721
3.94641
3.90932
3.86445
3.82657
3.78851
3.74712
3.73207
3.71018
3.68287
3.66077
3.63015
3.60347
3.57359
3.53935
3.50011
3.48389
3.4718
3.45141
3.42858
3.40345
3.36674
3.32549
3.2911
3.26645
3.25232
3.23886
3.22765
3.21231
3.18581
3.14944
3.11207
3.08687
3.07458
3.06361
3.04383
3.00851
2.96433
2.92817
2.9174
2.91382
2.91392
2.90733
2.89357
2.86289
2.81521
2.77623
2.7618
2.75754
2.75019
2.73242
2.69985
2.65806
2.6269
2.61716
2.61577
2.62423
2.62527
2.61634
2.60033
2.57552
2.5431
2.49589
2.44286
2.41029
2.40233
2.39839
2.39445
2.38873
2.38404
2.38175
2.38162
2.38026
2.37523
2.36534
2.33924
2.2904
2.23399
2.20743
2.2004
2.19881
2.20501
2.21442
2.21644
2.21269
2.20709
2.19246
2.15551
2.0969
2.06087
2.05199
2.05041
2.0568
2.06433
2.06144
2.05765
2.0529
2.04405
2.02042
1.9855
1.96254
1.95961
1.96466
1.97281
1.97012
1.95672
1.92977
1.89938
1.88142
1.87015
1.85997
1.84669
1.82555
1.80629
1.80305
1.80739
1.83442
1.86713
1.87035
1.86234
1.84271
1.79416
1.71152
1.66587
1.6553
1.65292
1.65164
1.65346
1.66564
1.69534
1.73625
1.75602
1.75494
1.74808
1.72942
1.68726
1.61164
1.55638
1.54059
1.53786
1.5396
1.55857
1.60586
1.64476
1.64888
1.64279
1.62422
1.58046
1.5154
1.48223
1.47444
1.47348
1.47901
1.496
1.50754
1.50911
1.50766
1.50493
5.22745
5.21003
5.19194
5.15855
5.11648
5.08878
5.06391
5.03051
4.99781
4.97178
4.9442
4.9203
4.89168
4.86913
4.84053
4.8084
4.77528
4.73887
4.72209
4.70196
4.6751
4.64843
4.61224
4.59014
4.56589
4.53738
4.51289
4.48123
4.46075
4.43824
4.41007
4.38336
4.34899
4.32938
4.30856
4.28041
4.25619
4.22255
4.19751
4.17313
4.14439
4.11912
4.0863
4.0676
4.04781
4.02104
3.99625
3.96271
3.94188
3.92137
3.89388
3.87087
3.84119
3.80923
3.79637
3.77554
3.75886
3.7426
3.72143
3.69603
3.66389
3.62785
3.60509
3.59882
3.60318
3.64914
3.75102
3.86533
3.97873
4.03257
4.04166
4.03641
4.01279
3.97144
3.92545
3.87833
3.84016
3.79348
3.77153
3.75758
3.7307
3.70951
3.68332
3.65171
3.62318
3.5905
3.55774
3.52376
3.50688
3.49164
3.46923
3.44435
3.41499
3.38077
3.34617
3.31594
3.29781
3.2791
3.26461
3.25163
3.22943
3.19669
3.15866
3.13024
3.11489
3.10383
3.08512
3.05052
3.00535
2.96863
2.95854
2.95609
2.958
2.95166
2.93775
2.90711
2.85701
2.81455
2.79889
2.79468
2.78659
2.76787
2.73431
2.69471
2.66559
2.65583
2.65391
2.66185
2.66171
2.65089
2.63119
2.60343
2.57046
2.53047
2.48545
2.44938
2.43873
2.43388
2.42965
2.4253
2.42094
2.41867
2.41847
2.4171
2.41112
2.39913
2.37135
2.32018
2.26265
2.23632
2.22964
2.22824
2.23666
2.24683
2.24836
2.24518
2.23994
2.22527
2.1883
2.12791
2.08857
2.07847
2.07666
2.08173
2.09086
2.08941
2.08564
2.08103
2.07249
2.04985
2.01682
1.99528
1.99247
1.99768
2.0032
1.99819
1.98119
1.94854
1.91348
1.89541
1.88569
1.87819
1.86836
1.85209
1.83623
1.83309
1.83734
1.86198
1.88988
1.89147
1.88291
1.86296
1.81457
1.732
1.68551
1.67478
1.67262
1.67147
1.67406
1.68887
1.72399
1.76797
1.78469
1.78243
1.77385
1.75164
1.70268
1.62275
1.57288
1.55935
1.5571
1.55971
1.58112
1.63053
1.66753
1.67009
1.66327
1.64357
1.59703
1.53081
1.49918
1.49215
1.49169
1.49832
1.51699
1.52676
1.52594
1.5247
1.52287
1.52001
5.24038
5.22172
5.19651
5.16652
5.13822
5.11251
5.08107
5.0483
5.01996
4.98711
4.9545
4.91859
4.89751
4.8861
4.86229
4.83546
4.796
4.76326
4.74505
4.72065
4.69959
4.6724
4.64502
4.6208
4.58937
4.56108
4.52743
4.50093
4.48453
4.45854
4.43379
4.40148
4.37133
4.35043
4.32073
4.29451
4.26607
4.23588
4.21533
4.18716
4.16212
4.13127
4.10517
4.08935
4.06309
4.03794
4.0084
3.98063
3.96306
3.93669
3.9112
3.88609
3.85025
3.8335
3.81916
3.79821
3.78353
3.76162
3.74097
3.7125
3.67498
3.63935
3.60279
3.59265
3.59632
3.61257
3.67901
3.77876
3.91891
4.00948
4.03845
4.03928
4.02271
3.98593
3.94015
3.89801
3.85016
3.81039
3.80007
3.78055
3.75676
3.738
3.70574
3.67347
3.63913
3.6053
3.57791
3.54898
3.53066
3.51173
3.48686
3.45657
3.42455
3.39879
3.37013
3.34769
3.32885
3.30695
3.29147
3.27079
3.23992
3.20249
3.17142
3.1546
3.14401
3.12653
3.09315
3.04785
3.01093
3.00078
2.99821
3.00004
2.99477
2.98087
2.95054
2.89933
2.8528
2.83589
2.83154
2.82365
2.80515
2.76998
2.73054
2.70386
2.69493
2.69345
2.6994
2.69763
2.68667
2.66396
2.6312
2.59642
2.56374
2.52775
2.49034
2.47629
2.47073
2.46575
2.46212
2.45908
2.45689
2.45543
2.45253
2.4459
2.43196
2.40212
2.34866
2.29153
2.26609
2.26005
2.25927
2.26998
2.28107
2.2807
2.2774
2.2721
2.25671
2.21981
2.15898
2.11764
2.10661
2.10461
2.10892
2.11828
2.11742
2.11373
2.10904
2.10021
2.07816
2.04725
2.02713
2.02423
2.02895
2.03342
2.02732
2.00811
1.9693
1.92805
1.91047
1.90282
1.89721
1.8897
1.87806
1.86682
1.86411
1.86856
1.89141
1.9136
1.91273
1.90319
1.88253
1.83411
1.75283
1.70618
1.69509
1.69306
1.6921
1.69577
1.71373
1.75417
1.79985
1.81363
1.81016
1.79933
1.77333
1.71616
1.63323
1.59014
1.57862
1.57665
1.58019
1.60472
1.6561
1.69028
1.69156
1.68406
1.66259
1.6131
1.5466
1.51655
1.50985
1.50972
1.51762
1.53748
1.54662
1.54409
1.5423
1.54058
1.53803
1.53481
5.18951
5.24735
5.22483
5.18819
5.14889
5.10227
5.07292
5.05803
5.03699
5.00962
4.9756
4.9346
4.91384
4.89793
4.88266
4.86449
4.834
4.80527
4.77451
4.74315
4.71352
4.68544
4.66693
4.64126
4.6121
4.58054
4.54099
4.52117
4.49862
4.47237
4.44786
4.41566
4.39285
4.36479
4.33363
4.30629
4.27139
4.25163
4.2296
4.20375
4.17938
4.14762
4.13058
4.10821
4.07958
4.05318
4.02029
4.00165
3.98043
3.95278
3.92965
3.89728
3.87129
3.86149
3.84059
3.82235
3.80038
3.77551
3.75246
3.72161
3.6846
3.65323
3.61434
3.59172
3.59359
3.60491
3.6378
3.71071
3.83599
3.96943
4.0266
4.03591
4.02638
3.99507
3.95727
3.91965
3.86861
3.84482
3.83011
3.80452
3.78731
3.76439
3.7271
3.69183
3.65307
3.62419
3.59811
3.57196
3.55523
3.53251
3.50588
3.47209
3.4396
3.41846
3.39479
3.37662
3.35623
3.3372
3.31656
3.28615
3.24767
3.21186
3.19133
3.18115
3.16587
3.13395
3.08968
3.05437
3.04529
3.04316
3.04313
3.03706
3.02307
2.99283
2.94058
2.891
2.87222
2.86798
2.86065
2.84375
2.80849
2.76707
2.74112
2.73354
2.73335
2.73859
2.73412
2.72277
2.69925
2.6621
2.62451
2.5965
2.5678
2.53269
2.51412
2.50804
2.50203
2.49817
2.49623
2.49516
2.49283
2.48773
2.47983
2.46396
2.43184
2.37638
2.32157
2.29621
2.29022
2.29036
2.30443
2.31725
2.31492
2.31018
2.30361
2.28648
2.24927
2.18902
2.14738
2.13549
2.13357
2.13762
2.14634
2.14542
2.14129
2.13632
2.12701
2.10558
2.07698
2.05855
2.05565
2.05995
2.06288
2.05596
2.03549
1.99345
1.94594
1.92704
1.92135
1.91703
1.91119
1.90376
1.8976
1.89584
1.9025
1.9236
1.93776
1.93416
1.9226
1.90073
1.85223
1.77382
1.72808
1.71655
1.71466
1.71392
1.71894
1.74047
1.78632
1.83188
1.84207
1.8376
1.82438
1.79397
1.72815
1.64406
1.60763
1.59842
1.59671
1.60129
1.6292
1.68273
1.7135
1.71324
1.70476
1.68214
1.62953
1.56258
1.53477
1.52858
1.52827
1.53643
1.55693
1.56609
1.56304
1.56033
1.55862
1.5561
1.55314
1.54895
4.53125
5.14211
5.24136
5.22007
5.15592
5.08959
5.06069
5.05365
5.05861
5.0462
5.01941
4.98543
4.94897
4.91786
4.90319
4.88565
4.86338
4.83745
4.80393
4.76603
4.72033
4.6947
4.67653
4.65024
4.62779
4.59432
4.56414
4.54121
4.51117
4.48466
4.45332
4.42974
4.40783
4.3764
4.351
4.31684
4.28939
4.27247
4.24647
4.22353
4.19384
4.1704
4.15246
4.12395
4.09786
4.06674
4.03874
4.0216
3.99502
3.97101
3.94456
3.91269
3.90157
3.88552
3.86225
3.8401
3.80974
3.78535
3.75801
3.72702
3.69674
3.66877
3.63701
3.60409
3.59899
3.60497
3.62403
3.66678
3.76281
3.8918
3.99072
4.02794
4.02543
3.99985
3.97623
3.946
3.90475
3.8865
3.86171
3.83768
3.81464
3.7762
3.73921
3.70539
3.67112
3.64515
3.61308
3.59399
3.57922
3.55648
3.53165
3.49513
3.46167
3.43959
3.4194
3.4
3.38114
3.3624
3.33593
3.29828
3.25863
3.23113
3.21664
3.20397
3.17527
3.13068
3.09697
3.0892
3.08814
3.08797
3.08064
3.06556
3.03565
2.98184
2.92926
2.90839
2.90436
2.89748
2.882
2.84839
2.80624
2.77964
2.77233
2.77276
2.77876
2.77289
2.76037
2.73439
2.6936
2.6544
2.62837
2.60414
2.57432
2.55319
2.54653
2.53926
2.53389
2.53139
2.5312
2.52895
2.52289
2.51363
2.49513
2.46044
2.403
2.35279
2.32894
2.32226
2.32183
2.33667
2.35363
2.35063
2.34407
2.3352
2.31506
2.27742
2.21882
2.17787
2.16511
2.1631
2.16696
2.17411
2.17184
2.16775
2.16239
2.15244
2.13208
2.10595
2.08981
2.08712
2.09131
2.09266
2.08427
2.06192
2.01729
1.96721
1.94649
1.94086
1.93757
1.9337
1.92977
1.92737
1.92935
1.94056
1.95713
1.96166
1.95457
1.94045
1.91692
1.86862
1.79505
1.75158
1.73966
1.7379
1.73736
1.74393
1.76968
1.82024
1.86318