/*--------------------------------*- C++ -*----------------------------------*\
  =========                 |
  \\      /  F ield         | OpenFOAM: The Open Source CFD Toolbox
   \\    /   O peration     | Website:  https://openfoam.org
    \\  /    A nd           | Version:  7
     \\/     M anipulation  |
\*---------------------------------------------------------------------------*/
FoamFile
{
    version     2.0;
    format      ascii;
    class       volScalarField;
    location    "2.1";
    object      p;
}
// * * * * * * * * * * * * * * * * * * * * * * * * * * * * * * * * * * * * * //

dimensions      [1 -1 -2 0 0 0 0];

internalField   nonuniform List<scalar> 
4128
(
1
1
1
1
1
1
1
1
1
1
1
1
1
1
1
1
1
1
1
1
1
1
1
1
1
1
1
1
1
1
1
1
1
1
1
1
1
1
1
1
1
1
1
1
1
1
1
1
1
1
1
1
1
1
1
1
1
1
1
1
1
1
1
1
1
1
1
1
1
1
1
1
1
1
1
1
1
1
1
1
1
1
1
1
1
1
1
1
1
1
1
1
1
1
1
1
1
1
1
1
1
1
1
1
1
1
1
1
1
1
1
1
1
1
1
1
1
1
1
1
1
1
1
1
1
1
1
1
1
1
1
1
1
1
1
1
1
1
1
1
1
1
1
1
1
1
1
1
1
1
1
1
1
1
1
1
1
1
1
1
1
1
1
1
1
1
1
1
1
1
1
1
1
1
1
1
1
1
1
1
1
1
1
1
1
1
1
1
1
1
1
1
1
1
1
1
1
1
1
1
1
1
1
1
1
1
1
1
1
1
1
1
1
1
1
1
1
1
1
1
1
1
1
1
1
1
1
1
1
1
1
1
1
1
1
1
1
1
1
1
1
1
1
1
1
1
1
1
1
1
1
1
1
1
1
1
1
1
1
1
1
1
1
1
1
1
1
1
1
1
1
1
1
1
1
1
1
1
1
1
1
1
1
1
1
1
1
1
1
1
1
1
1
1
1
1
1
1
1
1
1
1
1
1
1
1
1
1
1
1
1
1
1
1
1
1
1
1
1
1
1
1
1
1
1
1
1
1
1
1
1
1
1
1
1
1
1
1
1
1
1
1
1
1
1
1
1
1
1
1
1
1
1
1
1
1
1
1
1
1
1
1
1
1
1
1
1
1
1
1
1
1
1
1
1
1
1
1
1
1
1
1
1
1
1
1
1
1
1
1
1
1
1
1
1
1
1
1
1
1
1
1
1
1
1
1
1
1
1
1
1
1
1
1
1
1
1
1
1
1
1
1
1
1
1
1
1
1
1
1
1
1
1
1
1
1
1
1
1
1
1
1
1
1
1
1
1
1
1
1
1
1
1
1
1
1
1
1
1
1
1
1
1
1
1
1
1
1
1
1
1
1
1
1
1
1
1
1
1
1
1
1
1
1
1
1
1
1
1
1
1
1
1
1
1
1
1
1
1
1
1
1
1
1
1
1
1
1
1
1
1
1
1
1
1
1
1
1
1
1
1
1
1
1
1
1
1
1
1
1
1
1
1
1
1
1
1
1
1
1
1
1
1
1
1
1
1
1
1
1
1
1
1
1
1
1
1
1
1
1
1
1
1
1
1
1
1
1
1
1
1
1
1
1
1
1
1
1
1
1
1
1
1
1
1
1
1
1
1
1
1
1
1
1
1
1
1
1
1
1
1
1
1
1
1
1
1
1
1
1
1
1
1
1
1
1
1
1
1
1
1
1
1
1
1
1
1
1
1
1
1
1
1
1
1
1
1
1
1
1
1
1
1
1
1
1
1
1
1
1
1
1
1
1
1
1
1
1
1
1
1
1
1
1
1
1
1
1
1
1
1
1
1
1
1
1
1
1
1
1
1
1
1
1
1
1
1
1
1
1
1
1
1
1
1
1
1
1
1
1
1
1
1
1
1
1
1
1
1
1
1
1
1
1
1
1
1
1
1
1
1
1
1
1
1
1
1
1
1
1
1
1
1
1
1
1
1
1
1
1
1
1
1
1
1
1
1
1
1
1
1
1
1
1
1
1
1
1
1
1
1
1
1
1
1
1
1
1
1
1
1
1
1
1
1
1
1
1
1
1
1
1
1
1
1
1
1
1
1
1
1
1
1
1
1
1
1
1
1
1
1
1
1
1
1
1
1
1
1
1
1
1
1
1
1
1
1
1
1
1
1
1
1
1
1
1
1
1
1
1
1
1
1
1
1
1
1
1
1
1
1
1
1
1
1
1
1
1
1
1
1
1
1
1
1
1
1
1
1
1
1
1
1
1
1
1
1
1
1
1
1
1
1
1
1
1
1
1
1
1
1
1
1
1
1
1
1
1
1
1
1
1
1
1
1
1
1
1
1
1
1
1
1
1
1
1
1
1
1
1
1
1
1
1
1
1
1
1
1
1
1
1
1
1
1
1
1
1
1
1
1
1
1
1
1
1
1
1
1
1
1
1
1
1
1
1
1
1
1
1
1
1
1
1
1
1
1
1
1
1
1
1
1
1
1
1
1
1
1
1
1
1
1
1
1
1
1
1
1
1
1
1
1
1
1
1
1
1
1
1
1
1
1
1
1
1
1
1
1
1
1
1
1
1
1
1
1
1
1
1
1
1
1
1
1
1
1
1
1
1
1
1
1
1
1
1
1
1
1
1
1
1
1
1
1
1
1
1
1
1
1
1
1
1
1
1
1
1
1
1
1
1
1
1
1
1
1
1
1
1
1
1
1
1
1
1
1
1
1
1
1
1
1
1
1
1
1
1
1
1
1
1
1
1
1
1
1
1
1
1
1
1
1
1
1
1
1
1
1
1
1
1
1
1
1
1
1
1
1
1
1
1
1
1
1
1
1
1
1
1
1
1
1
1
1
1
1
1
1
1
1
1
1
1
1
1
1
1
1
1
1
1
1
1
1
1
1
1
1
1
1
1
1
1
1
1
1
1
1
1
1
1
1
1
1
1
1
1
1
1
1
1
1
1
1
1
1
1
1
1
1
1
1
1
1
1
1
1
1
1
1
1
1
1
1
1
1
1
1
1
1
1
1
1
1
1
1
1
1
1
1
1
1
1
1
1
1
1
1
1
1
1
1
1
1
1
1
1
1
1
1
1
1
1
1
1
1
1
1
1
1
1
1
1
1
1
1
1
1
1
1
1
1
1
1
1
1
1
1
1
1
1
1
1
1
1
1
1
1
1
1
1
1
1
1
1
1
1
1
1
1
1
1
1
1
1
1
1
1
1
1
1
1
1
1
1
1
1
1
1
1
1
1
1
1
1
1
1
1
1
1
1
1
1
1
1
1
1
1
1
1
1
1
1
1
1
1
1
1
1
1
1
1
1
1
1
1
1
1
1
1
1
1
1
1
1
1
1
1
1
1
1
1
1
1
1
1
1
1
1
1
1
1
1
1
1
1
1
1
1
1
1
1
1
1
1
1
1
1
1
1
1
1
1
1
1
1
1
1
1
1
1
1
1
1
1
1
1
1
1
1
1
1
1
1
1
1
1
1
1
1
1
1
1
1
1
1
1
1
1
1
1
1
1
1
1
1
1
1
1
1
1
1
1
1
1
1
1
1
1
1
1
1
1
1
1
1
1
1
1
1
1
1
1
1
1
1
1
1
1
1
1
1
1
1
1
1
1
1
1
1
1
1
1
1
1
1
1
1
1
1
1
1
1
1
1
1
1
1
1
1
1
1
1
1
1
1
1
1
1
1
1
1
1
1
1
1
1
1
1
1
1
1
1
1
1
1
1
1
1
1
1
1
1
1
1
1
1
1
1
1
1
1
1
1
1
1
1
1
1
1
1
1
1
1
1
1
1
1
1
1
1
1
1
1
1
1
1
1
1
1
1
1
1
1
1
1
1
1
1
1
1
1
1
1
1
1
1
1
1
1
1
1
1
1
1
1
1
1
1
1
1
1
1
1
1
1
1
1
1
1
1
1
1
1
1
1
1
1
1
1
1
1
1
1
1
1
1
1
1
1
1
1
1
1
1
1
1
1
1
1
1
1
1
1
1
1
1
1
1
1
1
1
1
1
1
1
1
1
1
1
1
1
1
1
1
1
1
1
1
1
1
1
1
1
1
1
1
1
1
1
1
1
1
1
1
1
1
1
1
1
1
1
1
1
1
1
1
1
1
1
1
1
1
1
1
1
1
1
1
1
1
1
1
1
1
1
1
1
1
1
1
1
1
1
1
1
1
1
1
1
1
1
1
1
1
1
1
1
1
1
1
1
1
1
1
1
1
1
1
1
1
1
1
1
1
1
1
1
1
1
1
1
1
1
1
1
1
1
1
1
1
1
1
1
1
1
1
1
1
1
1
1
1
1
1
1.92506
1.88104
1.83979
1.91061
2.75322
4.09233
1
1
1
1
1
1
1
1.00001
1.00233
1.1197
2.10303
3.97525
4.73249
4.75161
4.63445
4.44195
4.23503
4.13343
4.00821
3.88553
3.73015
3.59855
3.52259
3.40705
3.30281
3.18501
3.07216
3.01222
2.92007
2.83246
2.73541
2.6379
2.59658
2.52761
2.45319
2.38665
2.30427
2.2639
2.21129
2.14916
2.09337
2.02497
1.99495
1.95691
1.87496
1.87603
2.05104
3.07923
1
1
1
1
1
1
1
1
1.00001
1.00295
1.12288
2.09341
3.96137
4.6285
4.66115
4.55807
4.36264
4.2209
4.09927
3.97403
3.81004
3.71159
3.61315
3.49036
3.38943
3.25159
3.16835
3.09965
2.99943
2.91389
2.79837
2.72658
2.67844
2.59746
2.53001
2.4452
2.38035
2.34072
2.27393
2.21561
2.153
2.0906
2.0617
2.02345
1.95
1.88182
1.89524
2.2068
1
1
1
1
1
1
1
1
1
1.00002
1.00309
1.12403
2.08762
3.89823
4.48291
4.58483
4.49334
4.33369
4.20452
4.04849
3.90214
3.81528
3.69869
3.58613
3.4606
3.32823
3.26829
3.17816
3.07804
2.98912
2.87137
2.81653
2.75509
2.67464
2.60103
2.50596
2.4618
2.41076
2.33843
2.28375
2.20853
2.16281
2.12821
2.07815
2.02332
1.93781
1.91158
1.94106
1
1
1
1
1
1
1
1
1
1
1.00002
1.00342
1.11835
2.09283
3.6836
4.41302
4.5702
4.46538
4.3202
4.14013
4.00314
3.90707
3.78931
3.67459
3.51837
3.42897
3.35855
3.24758
3.16105
3.06078
2.9553
2.90646
2.8309
2.75283
2.66296
2.57893
2.5404
2.47545
2.40962
2.34515
2.26855
2.23677
2.19067
2.13277
2.08584
2.01549
1.96514
1.94095
1
1
1
1
1
1
1
1
1
1
1
1.00002
1.00316
1.11735
2.00637
3.46292
4.43257
4.52597
4.4601
4.28244
4.09974
3.98994
3.88547
3.74329
3.59732
3.52624
3.43076
3.32663
3.24935
3.12584
3.05244
2.99548
2.90496
2.82599
2.72507
2.65843
2.61427
2.54322
2.48123
2.39785
2.34081
2.30862
2.24851
2.19438
2.1409
2.08198
2.04016
1.97617
1
1
1
1
1
1
1
1
1
1
1
1
1.00002
1.00291
1.10744
1.8136
3.40378
4.40288
4.44824
4.37931
4.21368
4.08794
3.96945
3.79929
3.68708
3.6082
3.50361
3.42383
3.31936
3.20252
3.15316
3.07028
2.97514
2.89836
2.79339
2.73873
2.68587
2.6154
2.54484
2.4551
2.4165
2.37355
2.30818
2.25963
2.19185
2.14327
2.11238
2.04993
1
1
1
1
1
1
1
1
1
1
1
1
1
1.00002
1.00254
1.07709
1.70332
3.45219
4.21862
4.33211
4.29173
4.18674
4.03888
3.86926
3.76694
3.6812
3.59908
3.51491
3.37784
3.30712
3.24023
3.13274
3.05281
2.96762
2.86354
2.8192
2.7564
2.68519
2.60319
2.52636
2.49161
2.43481
2.37532
2.31887
2.24508
2.21161
2.17194
2.11616
1
1
1
1
1
1
1
1
1
1
1
1
1
1
1.00001
1.00174
1.0604
1.74311
3.2944
4.02483
4.30355
4.27378
4.13852
3.97132
3.85266
3.7663
3.69373
3.57554
3.47288
3.40788
3.30638
3.20621
3.13945
3.02365
2.94454
2.89972
2.82216
2.74989
2.66322
2.6045
2.56398
2.4994
2.44345
2.36766
2.31024
2.27853
2.22395
2.17272
1
1
1
1
1
1
1
1
1
1
1
1
1
1
1
1.00001
1.00142
1.06405
1.71066
2.92074
3.94635
4.29103
4.27588
4.13248
3.96374
3.8557
3.76072
3.66135
3.58208
3.48173
3.3688
3.29762
3.20724
3.08094
3.03718
2.97259
2.88547
2.81685
2.72922
2.68284
2.63296
2.56759
2.50286
2.41803
2.38101
2.34057
2.27577
2.23294
1
1
1
1
1
1
1
1
1
1
1
1
1
1
1
1
1.00001
1.00143
1.05617
1.48985
2.57534
3.97648
4.25762
4.18464
4.06027
3.96903
3.85555
3.76116
3.65198
3.53121
3.44563
3.37859
3.24793
3.17348
3.127
3.03229
2.95645
2.88365
2.80017
2.7618
2.70087
2.63387
2.55389
2.48001
2.45076
2.39733
2.33549
2.2908
1
1
1
1
1
1
1
1
1
1
1
1
1
1
1
1
1
1.00001
1.00094
1.02904
1.31151
2.51658
3.94159
4.06902
4.09883
4.07848
3.96608
3.83188
3.69649
3.59242
3.53447
3.4287
3.31498
3.27696
3.19324
3.09203
3.0351
2.94297
2.88024
2.83885
2.76578
2.69482
2.60327
2.54927
2.51728
2.45414
2.39982
2.34274
1
1
1
1
1
1
1
1
1
1
1
1
1
1
1
1
1
1
1
1.00036
1.01659
1.27603
2.52218
3.61982
3.97265
4.1183
4.05006
3.90278
3.76084
3.69787
3.61234
3.47305
3.42415
3.36112
3.23955
3.17128
3.1093
3.00591
2.96704
2.91192
2.83069
2.75344
2.65697
2.61811
2.58065
2.51711
2.46276
2.39302
1
1
1
1
1
1
1
1
1
1
1
1
1
1
1
1
1
1
1
1
1.00024
1.01462
1.26723
2.34961
3.31602
3.94174
4.09441
4.02957
3.9373
3.80402
3.63406
3.56695
3.53862
3.41107
3.30128
3.25918
3.16886
3.08639
3.05196
2.97583
2.89221
2.80869
2.71665
2.68446
2.64271
2.58234
2.52136
2.45191
1
1
1
1
1
1
1
1
1
1
1
1
1
1
1
1
1
1
1
1
1
1.00021
1.01273
1.22697
1.9453
3.00209
3.98446
4.08335
3.99123
3.83481
3.71937
3.70697
3.60751
3.44678
3.38381
3.32978
3.21894
3.17099
3.12844
3.03624
2.95712
2.8696
2.77943
2.74975
2.70554
2.64747
2.58013
2.52322
1
1
1
1
1
1
1
1
1
1
1
1
1
1
1
1
1
1
1
1
1
1
1.00015
1.00822
1.10924
1.57914
3.01329
3.85613
3.87984
3.87516
3.85553
3.79616
3.62581
3.50572
3.467
3.38665
3.28708
3.26407
3.20149
3.09475
3.02259
2.9331
2.84998
2.81921
2.77229
2.71188
2.64487
2.59453
1
1
1
1
1
1
1
1
1
1
1
1
1
1
1
1
1
1
1
1
1
1
1
1.00005
1.00262
1.0491
1.53918
2.89971
3.54035
3.83114
3.94199
3.86807
3.7161
3.65406
3.57343
3.43706
3.37885
3.35376
3.24919
3.14607
3.09242
3.00341
2.91963
2.88946
2.84393
2.77856
2.71217
2.65257
1
1
1
1
1
1
1
1
1
1
1
1
1
1
1
1
1
1
1
1
1
1
1
1
1.00001
1.00121
1.04199
1.5517
2.5749
3.41569
3.85895
3.90386
3.85601
3.77092
3.63823
3.51555
3.48616
3.4306
3.30755
3.22048
3.14589
3.042
2.98106
2.95819
2.91725
2.85107
2.7772
2.71006
1
1
1
1
1
1
1
1
1
1
1
1
1
1
1
1
1
1
1
1
1
1
1
1
1
1.00001
1.00102
1.04698
1.39402
2.10443
3.31923
3.80351
3.80247
3.761
3.67458
3.57371
3.54548
3.48517
3.39427
3.31664
3.20791
3.09446
3.04772
3.02751
2.98725
2.91322
2.83457
2.77999
1
1
1
1
1
1
1
1
1
1
1
1
1
1
1
1
1
1
1
1
1
1
1
1
1
1
1.00001
1.00092
1.02279
1.15667
1.92446
3.07457
3.62156
3.82895
3.78017
3.67904
3.60014
3.53128
3.47159
3.38657
3.26228
3.15961
3.11959
3.09919
3.05121
2.96696
2.89837
2.85226
1
1
1
1
1
1
1
1
1
1
1
1
1
1
1
1
1
1
1
1
1
1
1
1
1
1
1
1
1.00023
1.00518
1.10816
1.77856
2.72861
3.57642
3.77316
3.75617
3.69937
3.62496
3.54009
3.43363
3.31633
3.22889
3.19342
3.17264
3.11377
3.02634
2.97061
2.91073
1
1
1
1
1
1
1
1
1
1
1
1
1
1
1
1
1
1
1
1
1
1
1
1
1
1
1
1
1
1.00005
1.00337
1.08815
1.49621
2.46584
3.46865
3.66066
3.69325
3.6826
3.59407
3.47922
3.38112
3.30741
3.27381
3.24927
3.17369
3.09317
3.03669
2.9571
1
1
1
1
1
1
1
1
1
1
1
1
1
1
1
1
1
1
1
1
1
1
1
1
1
1
1
1
1
1
1.00003
1.00229
1.04017
1.30784
2.33576
3.1654
3.56305
3.70689
3.66419
3.5795
3.4892
3.3904
3.35487
3.32962
3.23891
3.15893
3.0968
3.00976
1
1
1
1
1
1
1
1
1
1
1
1
1
1
1
1
1
1
1
1
1
1
1
1
1
1
1
1
1
1
1
1.00001
1.00074
1.01874
1.24893
2.03693
2.7994
3.5248
3.69785
3.66083
3.53757
3.46389
3.46056
3.4247
3.29917
3.20922
3.14784
3.06714
1
1
1
1
1
1
1
1
1
1
1
1
1
1
1
1
1
1
1
1
1
1
1
1
1
1
1
1
1
1
1
1
1
1.0003
1.01186
1.1503
1.5891
2.52209
3.5457
3.55873
3.54132
3.53964
3.54774
3.46062
3.32947
3.25668
3.20629
3.13218
1
1
1
1
1
1
1
1
1
1
1
1
1
1
1
1
1
1
1
1
1
1
1
1
1
1
1
1
1
1
1
1
1
1
1.00012
1.00441
1.05461
1.36257
2.46066
3.22577
3.4274
3.5586
3.58362
3.48226
3.38756
3.35286
3.28929
3.19235
1
1
1
1
1
1
1
1
1
1
1
1
1
1
1
1
1
1
1
1
1
1
1
1
1
1
1
1
1
1
1
1
1
1
1
1.00003
1.00121
1.02621
1.30257
2.25669
2.95123
3.37883
3.56461
3.56368
3.53015
3.42502
3.31417
3.27051
1
1
1
1
1
1
1
1
1
1
1
1
1
1
1
1
1
1
1
1
1
1
1
1
1
1
1
1
1
1
1
1
1
1
1
1
1.00001
1.00057
1.01937
1.26004
1.89473
2.56653
3.37569
3.57516
3.5138
3.41005
3.36924
3.37557
1
1
1
1
1
1
1
1
1
1
1
1
1
1
1
1
1
1
1
1
1
1
1
1
1
1
1
1
1
1
1
1
1
1
1
1
1
1
1.00038
1.0132
1.12199
1.44101
2.3743
3.33523
3.36496
3.39394
3.4323
3.44133
1
1
1
1
1
1
1
1
1
1
1
1
1
1
1
1
1
1
1
1
1
1
1
1
1
1
1
1
1
1
1
1
1
1
1
1
1
1
1
1.00013
1.00316
1.03488
1.29056
2.24567
2.95377
3.2545
3.44425
3.46471
1
1
1
1
1
1
1
1
1
1
1
1
1
1
1
1
1
1
1
1
1
1
1
1
1
1
1
1
1
1
1
1
1
1
1
1
1
1
1
1
1.00001
1.00072
1.0183
1.23942
1.99796
2.63104
3.19793
3.46513
1
1
1
1
1
1
1
1
1
1
1
1
1
1
1
1
1
1
1
1
1
1
1
1
1
1
1
1
1
1
1
1
1
1
1
1
1
1
1
1
1
1
1.00038
1.01416
1.17465
1.57652
2.24173
3.21907
1
1
1
1
1
1
1
1
1
1
1
1
1
1
1
1
1
1
1
1
1
1
1
1
1
1
1
1
1
1
1
1
1
1
1
1
1
1
1
1
1
1
1
1.00023
1.00655
1.05493
1.27002
2.11567
1
1
1
1
1
1
1
1
1
1
1
1
1
1
1
1
1
1
1
1
1
1
1
1
1
1
1
1
1
1
1
1
1
1
1
1
1
1
1
1
1
1
1
1
1.00004
1.00103
1.01729
1.18907
1
1
1
1
1
1
1
1
1
1
1
1
1
1
1
1
1
1
1
1
1
1
1
1
1
1
1
1
1
1
1
1
1
1
1
1
1
1
1
1
1
1
1
1
1
1
1.00031
1.00983
1
1
1
1
1
1
1
1
1
1
1
1
1
1
1
1
1
1
1
1
1
1
1
1
1
1
1
1
1
1
1
1
1
1
1
1
1
1
1
1
1
1
1
1
1
1
1
1.00016
1
1
1
1
1
1
1
1
1
1
1
1
1
1
1
1
1
1
1
1
1
1
1
1
1
1
1
1
1
1
1
1
1
1
1
1
1
1
1
1
1
1
1
1
1
1
1
1
1
1
1
1
1
1
1
1
1
1
1
1
1
1
1
1
1
1
1
1
1
1
1
1
1
1
1
1
1
1
1
1
1
1
1
1
1
1
1
1
1
1
1
1
1
1
1
1
4.53528
4.48407
4.34477
4.19708
4.05573
3.92147
3.78783
3.65257
3.52474
3.41457
3.29738
3.16709
3.04845
2.94892
2.84406
4.2187
4.50486
4.42616
4.27298
4.12085
3.99368
3.86423
3.72529
3.59967
3.4931
3.37417
3.24228
3.12269
3.02468
2.91858
3.3663
4.25744
4.45026
4.36144
4.20156
4.06665
3.93745
3.79478
3.67312
3.56631
3.44809
3.31418
3.20225
3.10472
2.99526
2.38033
3.588
4.26571
4.40259
4.30114
4.15514
4.01333
3.86705
3.74726
3.63926
3.52061
3.38492
3.27979
3.18557
3.07882
1.98803
2.57371
3.75432
4.28333
4.34649
4.25484
4.10594
3.94722
3.82525
3.71474
3.59231
3.45282
3.35322
3.26782
3.16578
1.96921
2.06877
2.78546
3.88561
4.27392
4.30516
4.20007
4.03772
3.90193
3.78825
3.66581
3.52874
3.42616
3.344
3.2442
1.97848
1.98355
2.15823
2.98847
3.96142
4.27956
4.26752
4.13824
3.98696
3.86585
3.74371
3.60841
3.50182
3.41789
3.31812
2.0412
1.9915
2.00943
2.26613
3.14215
4.01131
4.25632
4.20584
4.08054
3.94426
3.81672
3.68827
3.57911
3.49332
3.39528
2.12022
2.0394
2.03175
2.05619
2.36034
3.26823
4.04183
4.19565
4.1465
4.03274
3.89739
3.76662
3.66147
3.57344
3.47172
2.18214
2.11843
2.08915
2.06099
2.08564
2.4416
3.42795
3.97754
4.16031
4.1202
4.00079
3.85659
3.74362
3.64837
3.54354
2.22841
2.19654
2.16412
2.1037
2.07232
2.11344
2.57073
3.4465
3.98423
4.16966
4.10089
3.96382
3.83198
3.72781
3.62075
2.2823
2.26707
2.23437
2.16717
2.09392
2.09011
2.16776
2.67363
3.46256
4.03171
4.1392
4.06812
3.94342
3.8254
3.7023
2.34983
2.33256
2.28822
2.2289
2.15724
2.09743
2.09833
2.21002
2.70737
3.55461
4.0531
4.11384
4.04347
3.92587
3.77621
2.42165
2.39026
2.33827
2.28719
2.23006
2.15076
2.11987
2.12403
2.24571
2.76947
3.68952
4.00695
4.05543
4.00448
3.85849
2.48916
2.44081
2.39272
2.34159
2.28249
2.22889
2.17794
2.13333
2.14318
2.28711
2.9521
3.70081
3.94017
4.02637
3.94898
2.54687
2.49558
2.45673
2.37865
2.33126
2.30041
2.23983
2.18293
2.14321
2.1615
2.36595
3.0571
3.63311
3.94202
4.00476
2.59737
2.56151
2.50353
2.42415
2.39549
2.35617
2.29626
2.24296
2.19142
2.16377
2.18351
2.42721
3.00986
3.64473
3.97415
2.664
2.61748
2.52724
2.49085
2.4556
2.39703
2.35279
2.31215
2.26687
2.19856
2.18794
2.21222
2.43191
2.98172
3.74633
2.73504
2.64601
2.58638
2.56305
2.50185
2.4377
2.41738
2.3818
2.32232
2.272
2.23003
2.21079
2.22778
2.42846
3.1186
2.77806
2.6912
2.66803
2.6251
2.5383
2.49681
2.4838
2.42476
2.37002
2.34686
2.29373
2.23525
2.21566
2.24153
2.50656
2.81357
2.76652
2.74563
2.67526
2.58976
2.56761
2.53127
2.45677
2.43311
2.4076
2.34866
2.28104
2.24238
2.22035
2.26945
2.868
2.84425
2.80807
2.71854
2.66187
2.63184
2.56119
2.51165
2.50274
2.46367
2.39312
2.33254
2.29617
2.24331
2.22884
2.93834
2.91308
2.85889
2.77601
2.73441
2.68057
2.59986
2.57932
2.56726
2.51553
2.43694
2.39557
2.36305
2.2904
2.24842
3.00641
2.97607
2.91227
2.84129
2.79389
2.72569
2.65396
2.6446
2.62518
2.55992
2.49015
2.45796
2.41092
2.34652
2.3083
3.0747
3.04088
2.97113
2.90258
2.85048
2.77968
2.71851
2.70603
2.67609
2.60027
2.54982
2.51472
2.44803
2.40548
2.38307
3.15257
3.11175
3.0235
2.96059
2.91455
2.84918
2.79095
2.76963
2.72118
2.64424
2.6047
2.56196
2.4915
2.46636
2.45075
3.26198
3.18048
3.07708
3.01918
2.97609
2.90785
2.86402
2.83184
2.76106
2.69817
2.6626
2.60424
2.54866
2.52465
2.49754
3.32748
3.20595
3.13338
3.08991
3.04392
2.96822
2.93236
2.87913
2.79987
2.75755
2.71025
2.65965
2.6238
2.58536
2.54426
3.33958
3.24422
3.22567
3.19901
3.10297
3.03415
2.99425
2.91469
2.85676
2.81255
2.7615
2.73012
2.68786
2.64111
2.58945
3.40465
3.38667
3.33078
3.22638
3.14821
3.12
3.04653
2.9637
2.92204
2.86142
2.83174
2.79813
2.74522
2.68671
2.61696
3.48547
3.41121
3.30953
3.24662
3.23508
3.18312
3.0778
3.02757
2.97802
2.92328
2.90186
2.85754
2.79152
2.71787
2.64257
3.41945
3.354
3.31672
3.31184
3.29569
3.19497
3.12289
3.1046
3.04884
2.99719
2.96033
2.89469
2.82972
2.74453
2.69057
3.00646
3.19054
3.29436
3.37502
3.33336
3.25175
3.24472
3.20751
3.11511
3.07802
3.02087
2.91886
2.85149
2.79865
2.81265
1.91078
2.64389
3.05659
3.32822
3.38873
3.37237
3.30824
3.21525
3.16797
3.14964
3.06612
2.96196
2.9307
3.02073
3.60602
1.14279
1.63709
2.21259
2.95918
3.34
3.36054
3.28829
3.2277
3.20412
3.18776
3.10167
3.13622
3.5279
4.58226
6.15657
1.00623
1.0678
1.28535
1.89795
2.84312
3.18502
3.23121
3.26795
3.28373
3.34743
3.59927
4.38662
5.80966
7.20323
7.81031
1.00006
1.00136
1.01724
1.13652
1.70442
2.51733
2.96594
3.28759
3.895
4.72746
5.6468
6.67353
7.32444
7.80548
7.78126
1
1
1.00026
1.00558
1.09477
1.52977
2.52965
3.97621
5.72219
7.55327
8.97856
9.48694
9.01607
8.33972
7.65435
)
;

boundaryField
{
    inlet
    {
        type            fixedValue;
        value           uniform 1;
    }
    outlet
    {
        type            zeroGradient;
    }
    bottom
    {
        type            zeroGradient;
    }
    top
    {
        type            zeroGradient;
    }
    obstacle
    {
        type            zeroGradient;
    }
    defaultFaces
    {
        type            empty;
    }
    procBoundary2to0
    {
        type            processor;
        value           nonuniform List<scalar> 
112
(
1
1
1
1
1
1
1
1
1
1
1
1
1
1
1
1
1
1
1
1
1
1
1
1
1
1
1
1
1
1
1
1
1
1
1
1
1
1
1
1
1
1
1
1
1
1
1
1
1.85153
1.81649
1.84341
2.43163
3.89152
4.51789
1
1
1
1
1
1
1.00001
1.00175
1.10216
2.10579
3.98286
4.8024
4.84091
4.69242
4.51677
4.34181
4.14589
4.0421
3.92449
3.79026
3.65803
3.49666
3.41844
3.32611
3.21504
3.1139
2.98517
2.91962
2.84317
2.74699
2.6681
2.5623
2.50925
2.45798
2.38074
2.31946
2.23952
2.18535
2.14407
2.08552
2.032
1.96657
1.96657
4.54934
4.42269
4.27368
4.13364
3.99245
3.85172
3.71507
3.57809
3.45043
3.33914
3.22051
3.08887
2.97125
2.87409
2.77133
)
;
    }
    procBoundary2to1
    {
        type            processor;
        value           nonuniform List<scalar> 6(2.7236 2.79816 2.87009 2.95127 3.03473 3.11735);
    }
    procBoundary2to3
    {
        type            processor;
        value           nonuniform List<scalar> 
32
(
3.19275
3.26973
3.34729
3.42179
3.49285
3.55586
3.614
3.69345
3.80521
3.91722
3.99165
3.94966
3.75404
3.23519
2.60646
2.30251
2.25881
2.29246
2.34449
2.40311
2.45427
2.49577
2.53283
2.57277
2.6138
2.67504
3.00836
4.80026
6.92438
7.73895
7.56334
7.26535
)
;
    }
}


// ************************************************************************* //
