/*--------------------------------*- C++ -*----------------------------------*\
  =========                 |
  \\      /  F ield         | OpenFOAM: The Open Source CFD Toolbox
   \\    /   O peration     | Website:  https://openfoam.org
    \\  /    A nd           | Version:  7
     \\/     M anipulation  |
\*---------------------------------------------------------------------------*/
FoamFile
{
    version     2.0;
    format      ascii;
    class       volScalarField;
    location    "0.2";
    object      rho;
}
// * * * * * * * * * * * * * * * * * * * * * * * * * * * * * * * * * * * * * //

dimensions      [1 -3 0 0 0 0 0];

internalField   nonuniform List<scalar> 
16512
(
0.287765
0.297304
0.301438
0.302387
0.308324
0.330625
0.365807
0.401374
0.437474
0.46743
0.478519
0.477786
0.484749
0.496065
0.499909
0.503792
0.515187
0.532674
0.550932
0.564633
0.574402
0.581135
0.585198
0.586864
0.587394
0.591706
0.606568
0.621943
0.632496
0.640343
0.642737
0.643177
0.640393
0.632106
0.629716
0.630599
0.635471
0.644152
0.652624
0.658496
0.662718
0.66693
0.672724
0.680012
0.686339
0.689314
0.689638
0.688229
0.683349
0.680103
0.680634
0.683896
0.692235
0.702158
0.704976
0.704876
0.703054
0.696885
0.69022
0.688599
0.688346
0.688895
0.692685
0.698039
0.6989
0.69782
0.695209
0.690288
0.683495
0.67739
0.673085
0.669355
0.664831
0.659604
0.656572
0.655312
0.654491
0.654395
0.656134
0.658087
0.657321
0.656026
0.654115
0.650013
0.64543
0.64365
0.642504
0.64185
0.641829
0.642856
0.643104
0.642332
0.641108
0.639176
0.637198
0.636557
0.636645
0.637356
0.639068
0.641702
0.644902
0.648611
0.652852
0.656821
0.659095
0.660083
0.659904
0.655091
0.649965
0.650238
0.652157
0.655831
0.662439
0.668796
0.671028
0.671749
0.671579
0.668986
0.668902
0.670744
0.673033
0.676378
0.68124
0.686035
0.688427
0.689748
0.690403
0.690011
0.689863
0.690175
0.690391
0.690185
0.69097
0.69291
0.695302
0.697867
0.70096
0.704562
0.707109
0.842332
2.03719
2.59858
2.73438
2.95282
3.36789
3.86368
4.2421
4.45093
4.56983
4.67085
4.7108
4.73035
4.76722
4.83277
4.92318
5.02873
5.15054
5.29004
5.3911
5.476
5.52217
5.53204
5.51282
5.47602
5.42261
5.34922
5.26677
5.19208
5.12932
5.07668
5.03719
5.02747
5.03937
5.06092
5.07356
5.1042
0.217353
0.24708
0.275395
0.302456
0.323102
0.33927
0.356743
0.380092
0.410456
0.43731
0.459442
0.467943
0.477916
0.492354
0.507712
0.519251
0.532912
0.547265
0.561059
0.571936
0.576312
0.58013
0.585038
0.590608
0.597051
0.603802
0.615656
0.628363
0.637152
0.644158
0.647021
0.64839
0.648131
0.64336
0.641501
0.643494
0.649604
0.658353
0.665884
0.670372
0.672999
0.675314
0.677998
0.681359
0.685182
0.689765
0.693855
0.694884
0.694704
0.692548
0.691321
0.692045
0.695916
0.702172
0.705263
0.705894
0.705878
0.703458
0.698086
0.69538
0.694684
0.694493
0.696117
0.699793
0.700837
0.700007
0.698187
0.695032
0.690066
0.684084
0.679128
0.67542
0.671923
0.66836
0.664423
0.660463
0.657865
0.656295
0.65574
0.656721
0.65769
0.656939
0.655364
0.652752
0.648892
0.645733
0.644458
0.643745
0.643479
0.643772
0.644798
0.645242
0.645016
0.644607
0.643906
0.643469
0.643632
0.644258
0.645133
0.646279
0.647958
0.650516
0.653649
0.65587
0.657379
0.658488
0.658867
0.657774
0.657275
0.657372
0.6583
0.660468
0.664257
0.668301
0.670982
0.672668
0.673366
0.673839
0.674294
0.674783
0.676077
0.678335
0.681596
0.684546
0.687307
0.689553
0.691309
0.692583
0.693612
0.694302
0.694698
0.694737
0.694885
0.696572
0.69897
0.70162
0.704662
0.708241
0.711016
0.824575
2.00267
2.59645
2.7351
2.95443
3.37164
3.86494
4.23906
4.44384
4.56239
4.6574
4.69849
4.72326
4.76872
4.84428
4.9377
5.04408
5.16459
5.30036
5.39415
5.47761
5.52191
5.53022
5.51062
5.47398
5.4213
5.34861
5.26689
5.19239
5.12936
5.07598
5.03585
5.02596
5.0383
5.06025
5.07319
5.10369
0.208559
0.22045
0.245412
0.275842
0.302803
0.319749
0.33228
0.351851
0.380773
0.404344
0.433981
0.464269
0.486332
0.506569
0.530345
0.551513
0.569275
0.58189
0.596266
0.601769
0.601669
0.603101
0.608585
0.61931
0.634043
0.646262
0.652253
0.657384
0.662771
0.665817
0.667757
0.670033
0.671646
0.670761
0.671622
0.674757
0.681673
0.690761
0.697518
0.700553
0.701099
0.701268
0.702615
0.704606
0.705951
0.708249
0.712204
0.715504
0.716216
0.715663
0.714536
0.714482
0.716859
0.719601
0.720322
0.720861
0.721052
0.718882
0.71436
0.712955
0.712681
0.712499
0.713455
0.71463
0.714177
0.713076
0.7114
0.708975
0.705449
0.700525
0.69479
0.689458
0.685556
0.682975
0.680586
0.677974
0.67525
0.671954
0.668093
0.665587
0.664398
0.663575
0.662479
0.660852
0.658529
0.655986
0.65407
0.652669
0.651532
0.6507
0.650274
0.650238
0.65101
0.651655
0.652018
0.652524
0.653573
0.655438
0.658015
0.660659
0.662481
0.663384
0.663576
0.66222
0.65984
0.65851
0.658773
0.660912
0.664573
0.669075
0.673084
0.675257
0.675776
0.674931
0.67334
0.67355
0.675549
0.679197
0.683642
0.68702
0.68878
0.689544
0.689153
0.687993
0.68805
0.689065
0.691031
0.694211
0.697136
0.698518
0.699519
0.700321
0.700458
0.701209
0.703067
0.705388
0.70826
0.711936
0.716637
0.786505
1.93419
2.60607
2.73753
2.95829
3.37359
3.85462
4.22142
4.43538
4.56078
4.64273
4.68166
4.71671
4.7749
4.85827
4.95738
5.06522
5.18436
5.31496
5.39873
5.47965
5.5207
5.52654
5.50639
5.47041
5.41894
5.34713
5.26633
5.19244
5.12916
5.07454
5.03319
5.02316
5.03634
5.05927
5.07272
5.10321
0.254917
0.25388
0.254352
0.261528
0.27454
0.282662
0.286596
0.291563
0.301234
0.3169
0.347727
0.400492
0.446544
0.479499
0.511439
0.539307
0.556904
0.567355
0.584684
0.60234
0.61113
0.622016
0.633914
0.648434
0.665922
0.680488
0.682235
0.684811
0.690559
0.693481
0.694228
0.696247
0.699248
0.699527
0.700103
0.702132
0.706985
0.714102
0.720735
0.725461
0.729148
0.732215
0.734522
0.735382
0.735521
0.735834
0.73817
0.739742
0.739409
0.737904
0.737094
0.738055
0.742281
0.746005
0.747474
0.748169
0.747256
0.742334
0.736374
0.734384
0.73422
0.734447
0.736101
0.736833
0.736194
0.73467
0.732297
0.729275
0.725878
0.721967
0.717461
0.713029
0.709222
0.706024
0.703817
0.70189
0.699632
0.696823
0.693379
0.689102
0.685195
0.683036
0.681293
0.679339
0.676901
0.674896
0.673854
0.673092
0.672363
0.671473
0.670421
0.669789
0.669518
0.669339
0.669021
0.668823
0.669322
0.670635
0.672873
0.675508
0.677089
0.678015
0.678612
0.678329
0.676573
0.675499
0.676079
0.677822
0.680989
0.685739
0.690012
0.691999
0.692896
0.692728
0.690898
0.690122
0.690873
0.69316
0.696928
0.700776
0.703027
0.704153
0.704766
0.704775
0.70396
0.704382
0.706232
0.708755
0.710383
0.711549
0.712455
0.713
0.713094
0.712269
0.712729
0.714174
0.715932
0.718324
0.72211
0.743962
1.80152
2.60388
2.73674
2.94989
3.3571
3.81585
4.18162
4.42078
4.55966
4.63267
4.67244
4.71364
4.78377
4.8802
4.98682
5.09573
5.21274
5.33298
5.40586
5.48246
5.51898
5.52206
5.50238
5.46868
5.41957
5.34842
5.26759
5.19314
5.12883
5.07243
5.02939
5.01937
5.03409
5.05859
5.07234
5.10322
0.318306
0.318717
0.315701
0.307487
0.30751
0.311493
0.311028
0.310151
0.312493
0.318992
0.327131
0.339492
0.358331
0.384834
0.416761
0.450599
0.475352
0.492907
0.520948
0.562784
0.59364
0.616282
0.631625
0.643642
0.662088
0.681112
0.684867
0.688283
0.700047
0.712119
0.714521
0.717207
0.721736
0.722393
0.721531
0.722204
0.72503
0.730434
0.739712
0.749911
0.75676
0.761039
0.763144
0.763447
0.76118
0.75558
0.753806
0.755641
0.758004
0.760379
0.764163
0.768968
0.772393
0.773977
0.774664
0.773352
0.767948
0.761235
0.756453
0.75503
0.755221
0.756718
0.759661
0.760781
0.760409
0.759162
0.756869
0.75379
0.749989
0.745296
0.740288
0.736986
0.735251
0.733434
0.731118
0.72864
0.726212
0.723609
0.720453
0.716134
0.710534
0.705818
0.702918
0.700198
0.697179
0.695487
0.69452
0.69391
0.693632
0.693469
0.693318
0.693311
0.693396
0.693481
0.693486
0.693212
0.693197
0.693778
0.694464
0.694968
0.69522
0.694924
0.694189
0.694322
0.695416
0.697029
0.69986
0.704149
0.708348
0.710999
0.712255
0.712716
0.71198
0.711665
0.712394
0.71366
0.7163
0.719449
0.720972
0.721789
0.722031
0.721692
0.721682
0.722373
0.723561
0.725592
0.728876
0.732394
0.734178
0.735432
0.736361
0.736955
0.737246
0.736552
0.735998
0.736741
0.737884
0.739109
0.740485
0.741704
1.58857
2.58079
2.73875
2.93598
3.32078
3.74963
4.11884
4.39718
4.55656
4.62939
4.67426
4.72097
4.79902
4.90427
5.01762
5.12976
5.24625
5.35165
5.41708
5.4857
5.5171
5.5174
5.49938
5.46893
5.42308
5.35269
5.27093
5.19477
5.12862
5.07
5.02482
5.01485
5.03151
5.05819
5.07231
5.10389
0.395142
0.389188
0.38456
0.374256
0.364396
0.360497
0.355333
0.346832
0.343566
0.344289
0.349609
0.360801
0.367653
0.367437
0.368992
0.371089
0.374635
0.383445
0.401875
0.442147
0.495487
0.545337
0.589982
0.614955
0.6382
0.668008
0.678785
0.685727
0.701014
0.714765
0.71575
0.717831
0.723716
0.726052
0.72464
0.724219
0.727884
0.736355
0.75143
0.768357
0.773818
0.775624
0.776588
0.776094
0.772108
0.765177
0.763564
0.765947
0.77154
0.780509
0.78912
0.791907
0.791939
0.791165
0.788929
0.784287
0.778808
0.775504
0.773703
0.773456
0.774943
0.777954
0.780958
0.781508
0.780627
0.778528
0.775693
0.772652
0.768715
0.762982
0.758406
0.756678
0.755509
0.754953
0.754103
0.751898
0.749818
0.747804
0.745375
0.741857
0.73646
0.729865
0.724927
0.721689
0.719152
0.71753
0.716544
0.715879
0.715473
0.715214
0.715063
0.715081
0.715132
0.715102
0.71488
0.714163
0.71367
0.713755
0.71431
0.715074
0.71557
0.715577
0.715458
0.716469
0.71849
0.722095
0.727468
0.733043
0.736413
0.737768
0.738188
0.736784
0.735309
0.73567
0.736684
0.739127
0.743591
0.746621
0.747732
0.748449
0.748584
0.747993
0.747333
0.747398
0.748684
0.751293
0.75394
0.756478
0.758225
0.759371
0.76036
0.761132
0.761497
0.761133
0.761374
0.762391
0.763905
0.765531
0.76707
0.767705
1.32652
2.52676
2.76076
2.94348
3.27404
3.66339
4.04786
4.37389
4.55478
4.63358
4.68779
4.74367
4.82782
4.93669
5.05242
5.16607
5.28092
5.36846
5.42835
5.48873
5.51519
5.51361
5.49823
5.47206
5.42977
5.35995
5.27661
5.19787
5.12869
5.067
5.01929
5.00941
5.02824
5.05771
5.07279
5.10536
0.465282
0.456864
0.453931
0.447772
0.427933
0.409503
0.408334
0.404282
0.397194
0.39608
0.399283
0.402808
0.401079
0.396419
0.392276
0.387364
0.382977
0.383042
0.384185
0.390157
0.406424
0.433373
0.468584
0.50989
0.544745
0.583533
0.624372
0.649482
0.676554
0.702762
0.706376
0.710455
0.719053
0.722584
0.721225
0.722417
0.728298
0.737298
0.755515
0.773265
0.777586
0.778559
0.779188
0.778959
0.776244
0.772922
0.772708
0.776266
0.78506
0.794708
0.798526
0.798531
0.797597
0.795964
0.793207
0.790789
0.790487
0.791389
0.793191
0.794029
0.794098
0.793361
0.792854
0.792291
0.791122
0.789337
0.787482
0.785315
0.782049
0.777147
0.7741
0.772771
0.771357
0.770222
0.769497
0.768237
0.766438
0.764698
0.762817
0.760184
0.755973
0.749651
0.743605
0.740192
0.737923
0.736002
0.734803
0.73406
0.733489
0.733061
0.732858
0.732915
0.73284
0.732484
0.731605
0.730372
0.729534
0.729188
0.729474
0.730133
0.731135
0.732597
0.73483
0.738769
0.744813
0.751639
0.756863
0.759094
0.759685
0.758982
0.756363
0.755593
0.756778
0.758852
0.762266
0.767167
0.770392
0.771417
0.772106
0.772268
0.772495
0.773198
0.773748
0.774737
0.777238
0.779349
0.780728
0.782487
0.783994
0.784858
0.785637
0.786155
0.786268
0.786687
0.787677
0.788744
0.790505
0.792973
0.794524
0.795024
1.05606
2.39587
2.82647
3.00195
3.23797
3.5819
3.99202
4.36013
4.55396
4.64327
4.71195
4.77907
4.86677
4.97424
5.08847
5.20189
5.31336
5.3834
5.43812
5.49088
5.5129
5.5115
5.49988
5.47875
5.43983
5.37061
5.28507
5.20247
5.12865
5.06307
5.01272
5.00306
5.0243
5.05723
5.07407
5.10795
0.545234
0.528281
0.521615
0.517592
0.503771
0.47757
0.4674
0.46395
0.452804
0.445158
0.445167
0.446361
0.443919
0.436632
0.42898
0.420432
0.411827
0.406645
0.406395
0.408057
0.417019
0.419904
0.421852
0.42659
0.436106
0.454986
0.490711
0.53719
0.584114
0.630006
0.6565
0.671506
0.68855
0.707236
0.712669
0.719268
0.729478
0.742844
0.761114
0.774016
0.776252
0.776484
0.775554
0.773955
0.775959
0.778577
0.781378
0.788092
0.797127
0.800182
0.800675
0.800023
0.79816
0.795982
0.796047
0.797994
0.802216
0.806376
0.807293
0.805915
0.802862
0.800081
0.798705
0.798334
0.798296
0.798851
0.798767
0.797799
0.795691
0.791832
0.786452
0.783084
0.781123
0.779403
0.778345
0.778668
0.778203
0.776541
0.774858
0.772945
0.769703
0.76348
0.757444
0.754389
0.752288
0.750323
0.748784
0.747833
0.747176
0.746748
0.746529
0.746229
0.745706
0.744614
0.743357
0.742768
0.742517
0.742644
0.743298
0.74467
0.747213
0.751477
0.757696
0.765422
0.772065
0.774972
0.775609
0.775221
0.772469
0.770295
0.770752
0.772602
0.776042
0.781513
0.787496
0.790565
0.791456
0.792144
0.792721
0.79337
0.794394
0.795975
0.798129
0.800907
0.803008
0.803844
0.804959
0.806557
0.808383
0.809526
0.809892
0.810037
0.810976
0.812516
0.814074
0.815666
0.818251
0.822618
0.825157
0.825519
0.86325
2.16787
2.93074
3.10294
3.22611
3.53162
3.9664
4.35709
4.55828
4.66434
4.74858
4.82622
4.91396
5.01549
5.12516
5.23661
5.34171
5.39601
5.44538
5.49105
5.5107
5.51236
5.50593
5.48861
5.45155
5.38287
5.29514
5.20814
5.12883
5.05857
5.00536
4.99586
5.01965
5.05657
5.07589
5.11126
0.637989
0.612935
0.593495
0.576852
0.561019
0.53904
0.52659
0.523749
0.514019
0.498213
0.495807
0.498022
0.495685
0.486736
0.476449
0.465117
0.454335
0.443217
0.439635
0.440476
0.440794
0.438441
0.435723
0.436429
0.43929
0.440599
0.444917
0.455818
0.475511
0.503488
0.537842
0.566527
0.595783
0.634642
0.670056
0.691816
0.714321
0.743116
0.761867
0.768555
0.770652
0.769842
0.766181
0.767634
0.774393
0.781011
0.788112
0.798545
0.80218
0.802747
0.802118
0.799081
0.797089
0.797456
0.800147
0.80638
0.811445
0.812623
0.811987
0.809129
0.805336
0.803583
0.80354
0.804462
0.806954
0.810607
0.811991
0.81149
0.809135
0.802641
0.794378
0.790341
0.788389
0.786799
0.785975
0.787418
0.788207
0.786765
0.784948
0.782644
0.777945
0.770545
0.766288
0.764595
0.763104
0.761644
0.76057
0.760066
0.759584
0.758907
0.758156
0.756872
0.754817
0.753473
0.753216
0.753378
0.754235
0.755654
0.757798
0.761281
0.766646
0.773588
0.779524
0.782683
0.784261
0.784936
0.783761
0.781219
0.78058
0.781666
0.784643
0.790023
0.796864
0.803354
0.80649
0.807187
0.807624
0.808483
0.809826
0.812005
0.814988
0.818053
0.820953
0.823173
0.823728
0.824238
0.825298
0.826749
0.829069
0.831464
0.831815
0.831858
0.833233
0.835611
0.8372
0.839135
0.842936
0.849187
0.853912
0.856506
0.860638
1.80727
2.99094
3.19757
3.24658
3.53402
3.98091
4.36499
4.57481
4.69656
4.7945
4.87878
4.96267
5.05652
5.16185
5.27126
5.36635
5.4066
5.44906
5.48966
5.50969
5.51729
5.51586
5.49968
5.46288
5.3949
5.30559
5.2145
5.12956
5.05396
4.99769
4.98824
5.01449
5.05547
5.07778
5.11466
0.720247
0.69827
0.674193
0.649828
0.631103
0.604151
0.585247
0.581137
0.574436
0.558702
0.551537
0.549738
0.544104
0.53281
0.518449
0.503867
0.492763
0.481082
0.477052
0.477507
0.477743
0.475493
0.469262
0.466617
0.464065
0.461478
0.461377
0.463928
0.464709
0.46284
0.460474
0.465136
0.478931
0.507774
0.553387
0.600832
0.649233
0.706592
0.735151
0.753308
0.764511
0.766699
0.763041
0.763963
0.771769
0.781867
0.795126
0.80333
0.804318
0.803998
0.802848
0.804368
0.805585
0.807365
0.812611
0.815547
0.816376
0.816069
0.812797
0.808503
0.806491
0.806028
0.80709
0.811319
0.818353
0.823216
0.823739
0.822597
0.816876
0.807388
0.800804
0.798393
0.796767
0.795479
0.795624
0.798719
0.798948
0.797244
0.794886
0.789972
0.781649
0.775978
0.774212
0.773069
0.772383
0.771992
0.771708
0.771579
0.771069
0.770254
0.76879
0.765741
0.763232
0.762727
0.762866
0.764211
0.767267
0.771106
0.775217
0.779737
0.784138
0.786816
0.788081
0.78872
0.789447
0.790313
0.790321
0.790385
0.791688
0.795392
0.80251
0.810182
0.814338
0.816824
0.81884
0.819875
0.820937
0.823183
0.826981
0.830842
0.833369
0.835849
0.838857
0.839963
0.840123
0.840987
0.843197
0.84588
0.848819
0.852415
0.853486
0.853923
0.8555
0.857725
0.859523
0.862304
0.867024
0.874033
0.88024
0.885633
0.889423
1.41839
2.92582
3.25107
3.31238
3.58709
4.01753
4.37223
4.6021
4.7412
4.84832
4.93154
5.00694
5.09407
5.1986
5.30719
5.38825
5.41597
5.44997
5.48769
5.51096
5.52645
5.52818
5.51071
5.47306
5.40576
5.31562
5.22123
5.13092
5.04963
4.99052
4.98094
5.00914
5.05361
5.07914
5.11733
0.804664
0.775065
0.749545
0.724182
0.702057
0.67892
0.654093
0.640303
0.628992
0.611608
0.602891
0.600025
0.593417
0.580126
0.561675
0.544375
0.532418
0.521482
0.518615
0.519191
0.518533
0.515048
0.510641
0.506609
0.502218
0.496502
0.492225
0.488739
0.483192
0.472094
0.462783
0.462231
0.463894
0.468949
0.480656
0.504244
0.540599
0.589572
0.634924
0.668641
0.698672
0.726191
0.747997
0.754307
0.762851
0.778932
0.796276
0.802131
0.80082
0.799179
0.802531
0.809385
0.816261
0.823871
0.827914
0.826779
0.823344
0.817361
0.810309
0.807838
0.807416
0.808403
0.813362
0.823365
0.831134
0.833026
0.83277
0.828861
0.820054
0.810871
0.808012
0.806857
0.805959
0.806317
0.810473
0.812823
0.811469
0.808751
0.803064
0.793751
0.786252
0.784044
0.78293
0.781991
0.781779
0.782626
0.782575
0.781928
0.781169
0.780051
0.777448
0.77409
0.772887
0.772824
0.773536
0.776665
0.782109
0.787087
0.789925
0.791251
0.791881
0.791929
0.791886
0.792945
0.79468
0.797005
0.799753
0.803033
0.80785
0.814915
0.821586
0.824298
0.825313
0.82683
0.829225
0.831477
0.834331
0.839435
0.844809
0.846889
0.847623
0.849096
0.852737
0.853707
0.85421
0.856487
0.861446
0.866115
0.869056
0.872384
0.874636
0.875845
0.877328
0.879247
0.881244
0.884557
0.890218
0.897398
0.903918
0.911572
0.916019
1.09837
2.69288
3.31018
3.45264
3.67453
4.0488
4.37659
4.64296
4.79695
4.90298
4.97836
5.0443
5.12887
5.23725
5.34492
5.40752
5.42431
5.44876
5.48547
5.5156
5.53853
5.54145
5.52131
5.48158
5.41474
5.32451
5.22775
5.13256
5.04591
4.9848
4.97485
5.00385
5.05066
5.07958
5.11865
0.894138
0.857333
0.83011
0.807445
0.775318
0.742142
0.718018
0.703032
0.691938
0.675504
0.660869
0.652938
0.642094
0.625981
0.604131
0.584819
0.572683
0.561556
0.55814
0.55784
0.556153
0.552374
0.548313
0.543785
0.537987
0.531424
0.525535
0.520648
0.512909
0.496663
0.48431
0.482619
0.48285
0.484235
0.488481
0.494188
0.499627
0.507143
0.521146
0.536958
0.556855
0.591234
0.639584
0.687137
0.721248
0.759079
0.787664
0.79242
0.791923
0.793666
0.800648
0.812273
0.827236
0.834689
0.834386
0.831435
0.826075
0.818247
0.815607
0.816306
0.816488
0.819151
0.829412
0.838983
0.841254
0.84178
0.839431
0.83146
0.819927
0.815299
0.814401
0.814172
0.8163
0.823057
0.82826
0.827392
0.824271
0.817643
0.806782
0.797475
0.794699
0.793509
0.792425
0.79179
0.792223
0.792985
0.79219
0.791206
0.790063
0.787963
0.78493
0.783554
0.783441
0.783965
0.786235
0.790194
0.793936
0.796105
0.796945
0.797186
0.796954
0.796537
0.797383
0.799268
0.802155
0.806509
0.81287
0.820137
0.826326
0.830495
0.832476
0.833461
0.834405
0.836168
0.839556
0.844626
0.850185
0.855534
0.858341
0.859422
0.859578
0.860411
0.864242
0.866641
0.868734
0.874185
0.882574
0.887364
0.889514
0.892171
0.894489
0.895821
0.89697
0.89876
0.901198
0.90559
0.911893
0.919185
0.92624
0.933763
0.938222
0.949799
2.31021
3.39626
3.63769
3.75238
4.05718
4.39433
4.69517
4.85474
4.94841
5.0155
5.07721
5.16571
5.28058
5.38266
5.42472
5.43177
5.44603
5.48377
5.52397
5.55281
5.55513
5.53124
5.48815
5.4214
5.33173
5.23355
5.13422
5.04316
4.98099
4.97041
4.99897
5.04644
5.07888
5.11811
0.984079
0.946936
0.910936
0.882674
0.849595
0.813767
0.782407
0.764818
0.750106
0.734763
0.722842
0.711414
0.695839
0.673254
0.6409
0.619293
0.61082
0.603286
0.600575
0.599219
0.596694
0.593258
0.589606
0.584096
0.576175
0.567475
0.55934
0.551151
0.539681
0.521461
0.513188
0.51231
0.512373
0.513864
0.51308
0.512037
0.511639
0.511761
0.510099
0.502311
0.499366
0.504728
0.523503
0.564778
0.619076
0.676672
0.730769
0.76792
0.78629
0.790492
0.797173
0.814309
0.830941
0.833712
0.83397
0.831833
0.825173
0.815871
0.81547
0.818767
0.823803
0.834656
0.847665
0.85054
0.85082
0.848698
0.841746
0.828244
0.820784
0.819646
0.819437
0.822412
0.83239
0.842669
0.843645
0.84098
0.833437
0.820693
0.808348
0.804351
0.803053
0.802029
0.801665
0.802777
0.803616
0.802599
0.801209
0.799523
0.797001
0.794493
0.793622
0.793534
0.794109
0.795925
0.798173
0.799084
0.799362
0.799974
0.801366
0.802386
0.802921
0.803791
0.805786
0.809464
0.814439
0.820317
0.826863
0.832745
0.836378
0.838454
0.840089
0.841713
0.843818
0.846904
0.851965
0.859439
0.864538
0.867081
0.869103
0.870534
0.870933
0.872208
0.876332
0.881168
0.886052
0.8946
0.903556
0.906168
0.907624
0.910258
0.912371
0.913225
0.91422
0.916385
0.919894
0.925924
0.93293
0.940304
0.947687
0.953881
0.960133
0.966311
1.81458
3.38977
3.75719
3.82766
4.09266
4.44924
4.751
4.90056
4.98312
5.04531
5.11123
5.20959
5.32809
5.41495
5.44019
5.43748
5.44278
5.48356
5.53538
5.56841
5.56876
5.54033
5.49266
5.42536
5.33689
5.23819
5.13563
5.04139
4.97907
4.96772
4.99457
5.04151
5.07651
5.11542
1.07457
1.03753
0.996123
0.956222
0.91874
0.876128
0.84987
0.833558
0.817738
0.796015
0.779895
0.765151
0.745159
0.718363
0.68342
0.662463
0.652807
0.645865
0.64409
0.641197
0.636252
0.632787
0.628624
0.621063
0.610983
0.601349
0.591946
0.580526
0.563646
0.547968
0.545073
0.544428
0.544444
0.545331
0.543717
0.541208
0.539104
0.535118
0.527108
0.5131
0.505745
0.506277
0.508443
0.514226
0.528192
0.551659
0.586242
0.635467
0.688666
0.733133
0.768954
0.792752
0.815536
0.826461
0.828729
0.827259
0.818007
0.810844
0.811777
0.818682
0.83348
0.851413
0.858256
0.858425
0.856488
0.850572
0.837095
0.826374
0.824429
0.823891
0.825858
0.836451
0.851157
0.855664
0.854385
0.84866
0.837339
0.821094
0.813776
0.812119
0.810805
0.810159
0.81214
0.814713
0.813958
0.812191
0.809419
0.805693
0.803392
0.802708
0.802592
0.803285
0.804415
0.804758
0.804448
0.803796
0.803646
0.804066
0.805738
0.808578
0.811492
0.814358
0.817898
0.822105
0.826169
0.830139
0.834269
0.838536
0.842288
0.845258
0.848179
0.851659
0.855799
0.860346
0.865316
0.870414
0.873726
0.875857
0.878371
0.881314
0.883947
0.887267
0.892523
0.899442
0.905972
0.913208
0.919612
0.921532
0.922919
0.925531
0.928112
0.929446
0.930905
0.933672
0.938395
0.945751
0.953853
0.962073
0.970056
0.976345
0.984945
0.99132
1.35869
3.19961
3.81809
3.94443
4.19353
4.5385
4.80096
4.92812
5.00942
5.07678
5.15356
5.26241
5.37446
5.43812
5.45281
5.44081
5.44051
5.48635
5.54879
5.58472
5.58205
5.54831
5.49507
5.42686
5.33992
5.24154
5.1368
5.04056
4.97888
4.9665
4.99051
5.03588
5.07252
5.11054
1.16842
1.12215
1.07231
1.02679
0.988819
0.951633
0.920471
0.899725
0.880897
0.860867
0.841898
0.821685
0.795412
0.75282
0.720201
0.708818
0.700615
0.69476
0.691835
0.686718
0.678369
0.671752
0.665639
0.656751
0.644992
0.634409
0.622651
0.607468
0.58915
0.579645
0.578387
0.578
0.578573
0.578833
0.576912
0.573636
0.569529
0.562034
0.548064
0.532898
0.526586
0.524914
0.524519
0.525273
0.526627
0.52681
0.528388
0.536986
0.563213
0.611253
0.670724
0.735543
0.776448
0.80811
0.824139
0.823036
0.811797
0.805287
0.807562
0.825228
0.850876
0.864295
0.865965
0.863754
0.857791
0.845871
0.831975
0.828713
0.828616
0.83042
0.83966
0.854969
0.861577
0.861342
0.858983
0.851968
0.837142
0.825688
0.822454
0.82093
0.819917
0.821203
0.825375
0.82539
0.823481
0.820029
0.814934
0.812197
0.811426
0.811231
0.811668
0.811839
0.811322
0.810383
0.808976
0.808222
0.808307
0.809428
0.812808
0.818118
0.822449
0.825104
0.82722
0.82935
0.831693
0.834673
0.838735
0.843777
0.849237
0.854734
0.860078
0.864657
0.868354
0.871708
0.874859
0.877915
0.880788
0.883767
0.887906
0.893609
0.899902
0.906311
0.912912
0.918614
0.922568
0.926691
0.931924
0.9345
0.936587
0.939839
0.943659
0.946142
0.94862
0.95206
0.957743
0.965893
0.974959
0.984839
0.993932
1.00139
1.01161
1.01791
1.05145
2.77234
3.88626
4.1489
4.32918
4.61326
4.83261
4.94973
5.04071
5.11977
5.2083
5.31837
5.41117
5.45343
5.45959
5.44277
5.44243
5.49246
5.56268
5.60097
5.59485
5.55495
5.49548
5.42591
5.34087
5.24361
5.13792
5.04083
4.98023
4.9662
4.98647
5.02923
5.0669
5.104
1.25218
1.20236
1.14672
1.10025
1.05843
1.01941
0.996057
0.974576
0.950008
0.92374
0.897851
0.870026
0.837671
0.792668
0.766548
0.756955
0.74656
0.741038
0.739471
0.733956
0.72505
0.715467
0.704985
0.691805
0.676591
0.663382
0.64915
0.631389
0.614018
0.609384
0.608935
0.609214
0.609356
0.609631
0.608637
0.605729
0.600568
0.588637
0.570493
0.55822
0.552543
0.54998
0.549262
0.548499
0.545838
0.541499
0.535326
0.534836
0.53647
0.544174
0.562844
0.59661
0.638817
0.680763
0.727442
0.765293
0.780254
0.788015
0.805416
0.840654
0.866512
0.871867
0.872004
0.867848
0.856238
0.84008
0.832144
0.832936
0.835864
0.844329
0.859598
0.866373
0.865733
0.863804
0.859169
0.848013
0.835569
0.831895
0.830424
0.829608
0.831201
0.835886
0.836469
0.834449
0.830789
0.824833
0.82085
0.819736
0.819136
0.818973
0.818517
0.817637
0.816257
0.814737
0.814104
0.814038
0.814861
0.818118
0.823577
0.827963
0.829484
0.830013
0.8308
0.832369
0.834858
0.83863
0.844335
0.85206
0.860656
0.868173
0.872576
0.874117
0.875302
0.87754
0.880678
0.884103
0.888219
0.893767
0.901617
0.909806
0.916166
0.923073
0.929951
0.932553
0.934298
0.937734
0.943671
0.947897
0.951074
0.955165
0.960204
0.964314
0.968092
0.972035
0.977809
0.98625
0.997117
1.00921
1.01882
1.02779
1.03605
1.04245
1.05088
2.14191
3.86917
4.3526
4.42303
4.6526
4.85795
4.9835
5.08491
5.17657
5.26867
5.36328
5.43263
5.46388
5.46204
5.44506
5.44924
5.50103
5.57559
5.61589
5.60677
5.56064
5.49428
5.42237
5.33961
5.24449
5.13927
5.0426
4.98287
4.96625
4.98232
5.02117
5.05924
5.09566
1.3311
1.27703
1.21837
1.1697
1.13392
1.10038
1.07093
1.0417
1.00957
0.981741
0.953679
0.919323
0.867809
0.830579
0.819782
0.810843
0.799145
0.793157
0.789122
0.77979
0.765668
0.754663
0.743517
0.729156
0.712253
0.692296
0.673532
0.65793
0.646082
0.643037
0.643057
0.644126
0.641629
0.639416
0.638958
0.636085
0.62789
0.609917
0.592096
0.585672
0.582085
0.577863
0.575258
0.572651
0.568628
0.56259
0.555772
0.551014
0.550176
0.551455
0.551337
0.54903
0.550781
0.560304
0.588192
0.643152
0.704211
0.754491
0.796609
0.836348
0.859172
0.865148
0.866822
0.863083
0.84989
0.836807
0.837299
0.841559
0.848825
0.86266
0.872394
0.872301
0.869838
0.864424
0.853711
0.84132
0.837463
0.83652
0.836466
0.840189
0.845629
0.846212
0.844068
0.839868
0.83352
0.828862
0.827437
0.826543
0.825683
0.824624
0.823286
0.821602
0.820412
0.819977
0.820008
0.821269
0.824761
0.829442
0.832364
0.832979
0.832682
0.831983
0.832674
0.834687
0.838677
0.845061
0.854117
0.865491
0.874207
0.877717
0.878947
0.879334
0.880064
0.882142
0.885806
0.891119
0.898472
0.908563
0.918838
0.923912
0.927308
0.933034
0.940095
0.942848
0.944968
0.949864
0.958252
0.963629
0.967155
0.971686
0.977369
0.982655
0.987744
0.992552
0.999133
1.00884
1.02169
1.03435
1.04264
1.05033
1.05504
1.06115
1.06512
1.55957
3.6772
4.39322
4.49061
4.70159
4.90137
5.04078
5.14856
5.24004
5.31879
5.38775
5.44142
5.47017
5.46586
5.45341
5.45989
5.50987
5.58542
5.62796
5.61719
5.56548
5.49155
5.41629
5.33574
5.2439
5.14095
5.04628
4.98689
4.96663
4.97816
5.01146
5.04914
5.08518
1.40385
1.3443
1.29462
1.24636
1.20524
1.17506
1.14426
1.10952
1.07197
1.03271
0.9958
0.957384
0.907544
0.885799
0.877031
0.86456
0.848878
0.844183
0.839827
0.828779
0.809543
0.792089
0.777767
0.761176
0.742751
0.719906
0.701303
0.690597
0.680508
0.676544
0.676581
0.677411
0.674771
0.669964
0.66597
0.660378
0.64882
0.628729
0.615659
0.611862
0.608333
0.604979
0.603289
0.60076
0.595996
0.588523
0.578092
0.572108
0.570693
0.568524
0.563671
0.554822
0.546659
0.545586
0.548573
0.561546
0.596502
0.650814
0.712601
0.773409
0.80684
0.827583
0.841659
0.842894
0.836891
0.833522
0.83867
0.848551
0.864021
0.875922
0.877237
0.875903
0.872214
0.863026
0.848443
0.840657
0.839671
0.840146
0.845847
0.853979
0.855046
0.852957
0.848823
0.841679
0.836063
0.834423
0.833442
0.832387
0.830928
0.828852
0.826755
0.825655
0.825198
0.825276
0.827083
0.831254
0.835443
0.837151
0.83712
0.835824
0.833826
0.833864
0.835227
0.838807
0.846283
0.856715
0.867461
0.876439
0.880358
0.882044
0.882666
0.88323
0.884909
0.888501
0.895039
0.90452
0.915655
0.925344
0.929501
0.930952
0.933426
0.939046
0.946211
0.951423
0.956742
0.966463
0.977329
0.981178
0.983865
0.988357
0.994045
0.999696
1.00575
1.01233
1.02168
1.0333
1.04698
1.05687
1.0626
1.06765
1.07049
1.07466
1.07774
1.14724
3.22879
4.40023
4.60635
4.78341
4.97048
5.11663
5.2176
5.28881
5.34547
5.39577
5.44326
5.47469
5.47604
5.46892
5.47328
5.51717
5.59096
5.63595
5.62566
5.5699
5.48796
5.40832
5.32962
5.24195
5.14325
5.05226
4.99254
4.96774
4.9738
4.99975
5.03598
5.07163
1.46934
1.41955
1.36787
1.32262
1.28161
1.2492
1.20841
1.16471
1.12285
1.08271
1.04043
0.991607
0.951079
0.943397
0.935508
0.922027
0.90549
0.897129
0.887158
0.869603
0.847026
0.830848
0.816367
0.796401
0.768477
0.740554
0.731291
0.727327
0.718338
0.712931
0.712513
0.711921
0.708441
0.702527
0.694937
0.684695
0.667021
0.647066
0.640468
0.637562
0.633708
0.629989
0.627684
0.62461
0.619421
0.612639
0.606448
0.602161
0.598419
0.593365
0.583929
0.567106
0.556407
0.555513
0.556443
0.559398
0.564463
0.576014
0.601468
0.645623
0.696985
0.741038
0.780313
0.813119
0.819635
0.824461
0.834099
0.854155
0.87368
0.87969
0.880182
0.879396
0.873061
0.858422
0.84647
0.843983
0.844514
0.84876
0.858469
0.862281
0.860471
0.856758
0.850639
0.844197
0.841715
0.840388
0.839053
0.837546
0.835214
0.83236
0.831028
0.830378
0.830197
0.831823
0.836598
0.840937
0.84205
0.841605
0.839573
0.836508
0.835964
0.836878
0.840262
0.848202
0.86068
0.871192
0.876433
0.87976
0.882407
0.884245
0.885719
0.887792
0.891711
0.899572
0.911517
0.923618
0.931244
0.934062
0.935155
0.93589
0.938714
0.944459
0.952418
0.961207
0.972164
0.987035
0.995255
0.996711
0.999018
1.00362
1.00905
1.01498
1.02202
1.031
1.04289
1.05532
1.06725
1.07414
1.07921
1.08286
1.08573
1.08926
1.09544
1.10966
2.58514
4.3787
4.79142
4.8944
5.05013
5.17795
5.26208
5.31233
5.35414
5.39731
5.44494
5.4825
5.49356
5.48777
5.48729
5.52148
5.59215
5.63977
5.63259
5.57434
5.48403
5.39865
5.32081
5.23824
5.14599
5.06042
5.00031
4.96966
4.96872
4.98657
5.01971
5.05443
1.54441
1.49474
1.44438
1.39644
1.35507
1.31272
1.26429
1.21682
1.1685
1.12289
1.08261
1.03764
1.0119
1.00605
0.994521
0.975958
0.956264
0.947094
0.934528
0.914384
0.88394
0.864413
0.849475
0.827489
0.794412
0.770998
0.768074
0.765714
0.755112
0.747811
0.747237
0.745707
0.741117
0.733511
0.723543
0.709733