/*--------------------------------*- C++ -*----------------------------------*\
  =========                 |
  \\      /  F ield         | OpenFOAM: The Open Source CFD Toolbox
   \\    /   O peration     | Website:  https://openfoam.org
    \\  /    A nd           | Version:  7
     \\/     M anipulation  |
\*---------------------------------------------------------------------------*/
FoamFile
{
    version     2.0;
    format      ascii;
    class       volScalarField;
    location    "1.1";
    object      p;
}
// * * * * * * * * * * * * * * * * * * * * * * * * * * * * * * * * * * * * * //

dimensions      [1 -1 -2 0 0 0 0];

internalField   nonuniform List<scalar> 
4128
(
1
1
1
1
1
1
1
1
1
1
1
1
1
1
1
1
1
1.37205
7.72635
10.8339
11.0984
11.4362
11.6952
11.9199
1
1
1
1
1
1
1
1
1
1
1
1
1
1
1
1
1
1.27615
7.40108
10.7496
11.0134
11.3269
11.5362
11.6499
1
1
1
1
1
1
1
1
1
1
1
1
1
1
1
1
1
1.03252
6.67401
10.5327
10.7591
10.9823
11.1256
11.2885
1
1
1
1
1
1
1
1
1
1
1
1
1
1
1
1
1
1.00056
5.55883
10.1339
10.4067
10.6118
10.704
11.0037
1
1
1
1
1
1
1
1
1
1
1
1
1
1
1
1
1
0.999997
4.16699
9.51812
10.015
10.0444
9.4331
7.82321
1
1
1
1
1
1
1
1
1
1
1
1
1
1
1
1
1
0.999999
2.59017
8.55494
9.68976
9.48326
8.74923
7.11437
1
1
1
1
1
1
1
1
1
1
1
1
1
1
1
1
1
1
1.24362
6.99427
9.46902
8.95355
8.17952
6.56229
1
1
1
1
1
1
1
1
1
1
1
1
1
1
1
1
1
1
1.0064
4.8566
8.68149
8.36121
7.66974
6.36723
1
1
1
1
1
1
1
1
1
1
1
1
1
1
1
1
1
1
0.999928
2.21977
7.48753
8.20264
7.40752
6.32335
1
1
1
1
1
1
1
1
1
1
1
1
1
1
1
1
1
1
0.999983
1.12026
5.30237
7.94651
7.14993
6.27955
1
1
1
1
1
1
1
1
1
1
1
1
1
1
1
1
1
1
0.999997
1.00107
2.24998
6.77204
7.16269
6.37047
1
1
1
1
1
1
1
1
1
1
1
1
1
1
1
1
1
1
1
1
1.11736
4.45814
7.1035
6.4331
1
1
1
1
1
1
1
1
1
1
1
1
1
1
1
1
1
1
1
1
1.00136
1.82058
5.66312
6.50218
1
1
1
1
1
1
1
1
1
1
1
1
1
1
1
1
1
1
1
1
1
1.05095
3.04449
5.8709
1
1
1
1
1
1
1
1
1
1
1
1
1
1
1
1
1
1
1
1
1
1.00056
1.30477
3.95385
1
1
1
1
1
1
1
1
1
1
1
1
1
1
1
1
1
1
1
1
1
1
1.00953
1.71244
1
1
1
1
1
1
1
1
1
1
1
1
1
1
1
1
1
1
1
1
1
1
1.00007
1.0438
1
1
1
1
1
1
1
1
1
1
1
1
1
1
1
1
1
1
1
1
1
1
1
1.00059
1
1
1
1
1
1
1
1
1
1
1
1
1
1
1
1
1
1
1
1
1
1
1
1
1
1
1
1
1
1
1
1
1
1
1
1
1
1
1
1
1
1
1
1
1
1
1
1
1
1
1
1
1
1
1
1
1
1
1
1
1
1
1
1
1
1
1
1
1
1
1
1
1
1
1
1
1
1
1
1
1
1
1
1
1
1
1
1
1
1
1
1
1
1
1
1
1
1
1
1
1
1
1
1
1
1
1
1
1
1
1
1
1
1
1
1
1
1
1
1
1
1
1
1
1
1
1
1
1
1
1
1
1
1
1
1
1
1
1
1
1
1
1
1
1
1
1
1
1
1
1
1
1
1
1
1
1
1
1
1
1
1
1
1
1
1
1
1
1
1
1
1
1
1
1
1
1
1
1
1
1
1
1
1
1
1
1
1
1
1
1
1
1
1
1
1
1
1
1
1
1
1
1
1
1
1
1
1
1
1
1
1
1
1
1
1
1
1
1
1
1
1
1
1
1
1
1
1
1
1
1
1
1
1
1
1
1
1
1
1
1
1
1
1
1
1
1
1
1
1
1
1
1
1
1
1
1
1
1
1
1
1
1
1
1
1
1
1
1
1
1
1
1
1
1
1
1
1
1
1
1
1
1
1
1
1
1
1
1
1
1
1
1
1
1
1
1
1
1
1
1
1
1
1
1
1
1
1
1
1
1
1
1
1
1
1
1
1
1
1
1
1
1
1
1
1
1
1
1
1
1
1
1
1
1
1
1
1
1
1
1
1
1
1
1
1
1
1
1
1
1
1
1
1
1
1
1
1
1
1
1
1
1
1
1
1
1
1
1
1
1
1
1
1
1
1
1
1
1
1
1
1
1
1
1
1
1
1
1
1
1
1
1
1
1
1
1
1
1
1
1
1
1
1
1
1
1
1
1
1
1
1
1
1
1
1
1
1
1
1
1
1
1
1
1
1
1
1
1
1
1
1
1
1
1
1
1
1
1
1
1
1
1
1
1
1
1
1
1
1
1
1
1
1
1
1
1
1
1
1
1
1
1
1
1
1
1
1
1
1
1
1
1
1
1
1
1
1
1
1
1
1
1
1
1
1
1
1
1
1
1
1
1
1
1
1
1
1
1
1
1
1
1
1
1
1
1
1
1
1
1
1
1
1
1
1
1
1
1
1
1
1
1
1
1
1
1
1
2.10174
0.787319
0.379856
0.38251
0.514301
0.65707
0.801982
1.05162
1.23006
1.31385
1.32023
1.31595
1.31602
1.32844
1.33302
2.11933
5.06738
5.79339
5.93316
6.07115
6.2547
6.43503
6.52197
6.54228
3.36959
2.09087
1.3822
1.0346
1.00699
0.932976
0.878217
0.896331
0.958731
1.02345
1.07343
1.14192
1.20242
1.24805
1.26623
1.92655
4.88287
5.79607
5.93413
6.06311
6.22917
6.40274
6.48452
6.46142
4.2007
2.94054
2.2056
1.68666
1.38815
1.17599
0.991007
0.880104
0.893857
0.926761
0.984463
1.06857
1.14122
1.18553
1.20697
1.50299
4.4158
5.77204
5.92826
6.04665
6.1695
6.29235
6.31064
6.33465
4.77938
3.68599
2.85836
2.24941
1.86162
1.58535
1.33372
1.15629
1.0981
1.01692
0.974658
0.988186
1.01873
1.05024
1.08663
1.1743
3.55894
5.65731
5.86828
5.9699
6.07421
6.17093
6.15461
6.27159
5.0991
4.16153
3.39736
2.75437
2.29935
1.96122
1.65095
1.43881
1.3172
1.19729
1.0624
0.993417
0.990331
0.991021
1.00036
1.01581
2.3133
5.34424
5.82396
5.91509
5.96941
5.95377
5.61517
4.68433
5.3206
4.52004
3.80419
3.17259
2.71235
2.34816
1.99919
1.72705
1.56754
1.42645
1.27264
1.15389
1.11332
1.06
1.01814
1.00954
1.23722
4.48148
5.70442
5.78704
5.77882
5.66276
5.21056
4.31451
5.53989
4.80103
4.14096
3.5376
3.05371
2.67606
2.31598
2.03114
1.83252
1.66958
1.48365
1.32583
1.24558
1.16233
1.06955
1.01376
1.02833
3.00107
5.47752
5.6845
5.60927
5.3726
4.94946
4.0953
5.68075
4.98175
4.35401
3.81419
3.35427
2.95607
2.60137
2.30456
2.0656
1.88425
1.71162
1.54219
1.42608
1.33093
1.20732
1.10712
1.0803
1.5571
4.80022
5.59554
5.45153
5.16447
4.74486
4.02739
5.80378
5.14356
4.56438
4.05388
3.61598
3.21519
2.85841
2.58241
2.32839
2.09319
1.91
1.74332
1.61045
1.51465
1.39308
1.26072
1.16239
1.18878
3.19498
5.24564
5.28867
5.01495
4.61036
4.04838
5.90242
5.34876
4.75699
4.28096
3.86167
3.46485
3.10366
2.81766
2.55522
2.30677
2.12065
1.95848
1.7783
1.65642
1.5534
1.42517
1.32755
1.23602
1.69315
4.40323
5.20249
4.98362
4.62466
4.15312
5.73011
5.56604
5.02136
4.50493
4.07243
3.66949
3.33787
3.0615
2.79919
2.51065
2.3044
2.14936
1.97208
1.82468
1.7234
1.59013
1.47766
1.35011
1.3707
2.77724
4.92097
4.98442
4.6295
4.20982
4.35185
5.4517
5.25697
4.76208
4.30077
3.88543
3.53176
3.25209
2.99798
2.72941
2.50844
2.33998
2.15019
1.96262
1.86311
1.75708
1.64383
1.52751
1.40481
1.65098
3.7626
4.9375
4.63948
4.24487
2.07815
4.46306
5.21001
5.01009
4.56013
4.09536
3.74868
3.46292
3.19197
2.91678
2.69823
2.52144
2.33861
2.14746
2.01137
1.90058
1.77515
1.6787
1.54063
1.52355
2.28433
4.23809
4.691
4.34144
1.09829
2.34004
4.43892
4.98108
4.81179
4.38135
3.96271
3.65977
3.37149
3.10187
2.89425
2.71407
2.51302
2.30001
2.17035
2.06018
1.92189
1.80406
1.69705
1.57755
1.65406
2.95228
4.3211
4.4279
1.00197
1.15647
2.48766
4.32807
4.79262
4.64515
4.24774
3.88607
3.57866
3.29215
3.05609
2.87638
2.68968
2.49043
2.33072
2.20915
2.06102
1.93438
1.85312
1.726
1.63896
1.91324
3.35284
4.2802
1.00001
1.00405
1.20267
2.51446
4.20426
4.61037
4.49591
4.16631
3.79796
3.47259
3.25694
3.07613
2.85754
2.61896
2.48826
2.37208
2.22812
2.05401
1.97562
1.88499
1.72162
1.72587
2.21373
3.56195
1
1.00002
1.00621
1.22335
2.47787
4.05049
4.43345
4.37752
4.10809
3.73465
3.41236
3.22388
3.03566
2.8223
2.65565
2.52209
2.36156
2.19388
2.10328
2.03037
1.88543
1.75284
1.79965
2.45985
1
1
1.00004
1.00763
1.21816
2.39963
3.80886
4.29674
4.28372
4.03493
3.68822
3.42727
3.19356
2.95342
2.80151
2.68511
2.54234
2.35453
2.21658
2.14458
2.03474
1.88862
1.80601
1.89082
1
1
1
1.00006
1.00741
1.20264
2.21186
3.61348
4.20584
4.17844
3.95632
3.65417
3.3994
3.15864
2.97039
2.81194
2.65543
2.49454
2.38159
2.28669
2.17047
2.03409
1.90546
1.86646
1
1
1
1
1.00006
1.0065
1.16574
2.00148
3.48948
4.02379
4.02571
3.90108
3.64944
3.35565
3.14001
2.97546
2.82948
2.65572
2.49105
2.38675
2.28936
2.18312
2.06876
1.94008
1
1
1
1
1
1.00005
1.00507
1.11811
1.86145
3.23747
3.80408
3.9217
3.8638
3.63149
3.35273
3.12458
2.94546
2.8116
2.68578
2.56702
2.40488
2.24305
2.17946
2.10307
1
1
1
1
1
1
1.00003
1.00327
1.08497
1.72106
2.8881
3.64878
3.86061
3.80735
3.5924
3.36291
3.15891
2.91626
2.77798
2.70402
2.58244
2.43723
2.30255
2.17274
1
1
1
1
1
1
1
1.00002
1.00204
1.06078
1.53112
2.51671
3.52764
3.78762
3.74999
3.57926
3.37416
3.15055
2.96346
2.77997
2.6376
2.57036
2.4836
2.37061
1
1
1
1
1
1
1
1
1.00001
1.00116
1.03659
1.3311
2.23915
3.39675
3.61268
3.60778
3.55953
3.3751
3.1559
2.9631
2.81041
2.64152
2.5428
2.49672
1
1
1
1
1
1
1
1
1
1
1.00054
1.01784
1.20883
2.05392
3.07606
3.43421
3.54662
3.5213
3.34208
3.12717
2.98745
2.83687
2.6729
2.54817
1
1
1
1
1
1
1
1
1
1
1
1.00021
1.00961
1.14183
1.80959
2.65091
3.29688
3.4998
3.49022
3.37327
3.18345
3.0075
2.83834
2.69
1
1
1
1
1
1
1
1
1
1
1
1
1.00011
1.00469
1.09071
1.47937
2.25441
3.11425
3.36181
3.37008
3.32933
3.2035
3.01586
2.85096
1
1
1
1
1
1
1
1
1
1
1
1
1
1.00003
1.00233
1.03357
1.24055
1.92333
2.9553
3.24376
3.25036
3.26633
3.20414
3.04507
1
1
1
1
1
1
1
1
1
1
1
1
1
1
1.00001
1.00043
1.01203
1.1382
1.71344
2.48889
3.02257
3.27955
3.28108
3.23987
1
1
1
1
1
1
1
1
1
1
1
1
1
1
1
1
1.00016
1.00534
1.07137
1.43879
2.13012
2.85493
3.09254
3.1842
1
1
1
1
1
1
1
1
1
1
1
1
1
1
1
1
1
1.00005
1.00165
1.03653
1.20754
1.77801
2.47787
3.03025
1
1
1
1
1
1
1
1
1
1
1
1
1
1
1
1
1
1
1.00001
1.00064
1.00885
1.09928
1.47314
2.09496
1
1
1
1
1
1
1
1
1
1
1
1
1
1
1
1
1
1
1
1
1.00008
1.00296
1.03924
1.22496
1
1
1
1
1
1
1
1
1
1
1
1
1
1
1
1
1
1
1
1
1
1.00002
1.00067
1.01139
1
1
1
1
1
1
1
1
1
1
1
1
1
1
1
1
1
1
1
1
1
1
1
1.00012
1
1
1
1
1
1
1
1
1
1
1
1
1
1
1
1
1
1
1
1
1
1
1
1
1.4419
0.604082
0.428209
0.480166
0.628022
0.800957
0.987817
1.13143
1.15277
1.14534
1.16999
1.21822
1.25263
1.2618
1.25549
1.24032
1.21069
1.17984
1.15567
1.14362
1.13912
1.13863
1.14102
1.14335
1.1454
1.14564
1.13911
1.12661
1.11435
1.10514
1.0963
1.08681
1.07816
1.06998
1.06216
1.05357
1.0436
1.03387
1.02621
1.02109
1.0151
1.00329
0.984532
0.963113
0.946826
0.935781
0.926332
0.918987
0.915814
0.912346
0.908393
0.902407
0.893869
0.881974
0.868525
0.85591
0.84497
0.836646
0.832119
0.83065
0.828027
0.822248
0.814698
0.807414
0.800297
0.794626
0.790976
0.785185
0.779882
0.77565
0.772446
0.774805
2.25109
1.4986
1.04127
0.917629
0.913871
0.884853
0.878772
0.916007
0.994738
1.05353
1.10022
1.14076
1.19105
1.21659
1.21433
1.20016
1.1825
1.16919
1.15808
1.15166
1.15029
1.15426
1.15323
1.14937
1.14649
1.13993
1.12774
1.11663
1.10973
1.10673
1.10286
1.0969
1.08958
1.07987
1.06743
1.05298
1.03797
1.02499
1.01505
1.00924
1.00587
0.998875
0.987319
0.97459
0.962884
0.950623
0.937766
0.925087
0.915545
0.90907
0.902719
0.897967
0.894064
0.885694
0.87218
0.858959
0.84829
0.840302
0.833698
0.827637
0.823365
0.818699
0.811937
0.804893
0.798177
0.7922
0.787929
0.784838
0.782141
0.779869
0.775212
0.773113
2.78279
2.08115
1.61324
1.2451
1.08266
0.989789
0.883936
0.868071
0.905802
0.982375
1.04632
1.08888
1.14638
1.19459
1.21432
1.22245
1.21846
1.19849
1.17299
1.15514
1.1511
1.15156
1.1501
1.14742
1.14703
1.13961
1.12056
1.10919
1.10517
1.10277
1.1021
1.09835
1.09265
1.08628
1.07798
1.06573
1.04879
1.03004
1.01175
0.994832
0.984527
0.979298
0.973861
0.968496
0.964439
0.9605
0.954061
0.942408
0.925608
0.906965
0.895218
0.888777
0.883374
0.879407
0.87585
0.865458
0.853357
0.842258
0.832506
0.825094
0.820472
0.815763
0.809118
0.802084
0.795881
0.790457
0.786493
0.785481
0.784563
0.784961
0.78052
0.771929
3.15998
2.50584
2.07845
1.67888
1.36437
1.24608
1.11868
0.996193
0.950483
0.944372
0.944338
0.961586
1.0158
1.07747
1.1276
1.16066
1.18476
1.19912
1.19751
1.17542
1.16239
1.15453
1.14507
1.1386
1.1361
1.13372
1.12149
1.11415
1.1119
1.10721
1.10242
1.09738
1.09072
1.08354
1.07626
1.06751
1.05422
1.03698
1.01948
1.00395
0.992283
0.984391
0.977614
0.971616
0.966165
0.960516
0.954806
0.945851
0.929087
0.906615
0.890804
0.884527
0.879034
0.877781
0.879385
0.873036
0.862837
0.849378
0.833184
0.822769
0.816039
0.813647
0.809484
0.801597
0.794863
0.789308
0.784259
0.780875
0.779133
0.782568
0.780499
0.775158
3.42715
2.85974
2.41005
2.0519
1.68984
1.45244
1.31742
1.18824
1.05626
0.99122
0.941809
0.931228
0.940169
0.972539
1.01772
1.06018
1.09248
1.12607
1.15802
1.17593
1.1832
1.17897
1.17104
1.15565
1.13959
1.12426
1.11332
1.10833
1.10759
1.10555
1.10508
1.10446
1.0981
1.08907
1.07857
1.0667
1.05209
1.03354
1.01402
0.999929
0.992231
0.987687
0.984583
0.983469
0.982553
0.977795
0.965667
0.9435
0.916011
0.893116
0.880828
0.878548
0.878487
0.878969
0.880027
0.877688
0.871605
0.857847
0.835444
0.82249
0.815753
0.812006
0.810848
0.805599
0.797594
0.789588
0.78261
0.776909
0.773624
0.776311
0.784644
0.815313
3.62546
3.1371
2.68811
2.31635
2.01419
1.7102
1.49612
1.3824
1.2465
1.12903
1.05883
0.998086
0.956812
0.950646
0.947248
0.958118
0.987485
1.03648
1.08714
1.12928
1.14517
1.14145
1.1422
1.14915
1.14981
1.13422
1.12492
1.12089
1.11515
1.10688
1.104
1.10498
1.10122
1.09172
1.07899
1.06488
1.05109
1.03548
1.01777
1.00451
0.995843
0.989831
0.986824
0.986813
0.987732
0.984604
0.969495
0.940769
0.911599
0.894097
0.885319
0.880413
0.878812
0.878976
0.878916
0.877503
0.873649
0.856856
0.831562
0.820654
0.816042
0.811916
0.808568
0.805853
0.801557
0.793904
0.785627
0.783323
0.790005
0.81589
0.868929
1.03165
3.73257
3.29843
2.90312
2.52073
2.22608
1.97028
1.70683
1.53562
1.43359
1.29574
1.17189
1.10458
1.03444
0.963114
0.936619
0.936267
0.938535
0.957292
1.00111
1.05235
1.08433
1.09021
1.09613
1.11524
1.13028
1.1384
1.14793
1.14637
1.13864
1.1255
1.10923
1.10403
1.09779
1.08412
1.07143
1.0599
1.04924
1.03734
1.02308
1.01262
1.00525
0.999307
0.995268
0.992248
0.986798
0.973095
0.949035
0.924561
0.908645
0.901286
0.895929
0.890124
0.886162
0.884828
0.884353
0.881734
0.87083
0.847583
0.827974
0.822879
0.819563
0.813943
0.807212
0.804614
0.806004
0.807131
0.820315
0.866399
0.958828
1.08564
1.23809
1.44702
3.82984
3.42652
3.06461
2.72066
2.41537
2.1767
1.93833
1.70956
1.59215
1.48458
1.33495
1.22228
1.1612
1.06759
0.996087
0.973035
0.955858
0.951679
0.955423
0.964829
0.981702
1.00421
1.03003
1.06259
1.09355
1.1165
1.1288
1.14592
1.15223
1.14677
1.12918
1.11102
1.09663
1.07817
1.06578
1.05693
1.05016
1.04321
1.03327
1.02584
1.01881
1.00971
1.00028
0.992629
0.97839
0.953126
0.930317
0.919768
0.913809
0.909356
0.904698
0.900871
0.900428
0.900287
0.896474
0.883706
0.858668
0.835324
0.826615
0.82114
0.814439
0.809093
0.80884
0.820112
0.86039
0.937111
1.06344
1.22834
1.3843
1.51318
1.62768
1.69416
3.95126
3.58276
3.22945
2.90485
2.60878
2.35813
2.13671
1.91946
1.7537
1.6371
1.50582
1.35898
1.27911
1.20084
1.08953
1.03205
1.00234
0.965348
0.938814
0.935974
0.938275
0.940008
0.954209
0.987777
1.02892
1.06713
1.08456
1.10443
1.12937
1.1492
1.14416
1.12635
1.10342
1.08477
1.06828
1.05682
1.05265
1.05069
1.04661
1.03931
1.03164
1.01867
1.00096
0.984488
0.962682
0.937798
0.928343
0.925495
0.923097
0.91945
0.918228
0.919797
0.920614
0.915986
0.901451
0.869755
0.835088
0.820494
0.817406
0.815203
0.81895
0.846625
0.921133
1.04092
1.21354
1.36695
1.51239
1.64115
1.68494
1.71943
1.74199
1.71016
4.09911
3.73422
3.38629
3.05801
2.79136
2.5504
2.30656
2.08569
1.92465
1.79202
1.65678
1.50296
1.3899
1.31788
1.22603
1.13665
1.09558
1.04827
0.978246
0.955165
0.937846
0.92555
0.926117
0.934042
0.94962
0.973847
1.01313
1.04771
1.08008
1.11673
1.13436
1.12756
1.11213
1.09922
1.08389
1.06821
1.05595
1.05287
1.05208
1.04705
1.03803
1.02272
1.00101
0.978013
0.956285
0.943711
0.938706
0.936445
0.932328
0.930441
0.933122
0.933338
0.926535
0.908282
0.881664
0.848506
0.825042
0.822395
0.831639
0.866735
0.951672
1.12492
1.34467
1.5439
1.6713
1.73671
1.75225
1.73844
1.71662
1.70542
1.68611
1.62435
4.23405
3.9039
3.56171
3.23568
2.95006
2.71648
2.49332
2.27363
2.09431
1.93836
1.78867
1.65378
1.53853
1.44047
1.33889
1.24386
1.19337
1.14802
1.07437
1.00732
0.972108
0.933752
0.90718
0.90718
0.918007
0.941166
0.958667
0.979606
1.00827
1.04737
1.08631
1.09353
1.10391
1.1125
1.10729
1.09373
1.07571
1.05792
1.0504
1.04308
1.03261
1.0178
0.999252
0.979789
0.969593
0.961701
0.954695
0.950991
0.943294
0.938135
0.938264
0.931823
0.912885
0.88434
0.860674
0.841588
0.841521
0.872015
0.956387
1.14958
1.40072
1.71335
1.82603
1.8787
1.8556
1.8152
1.74935
1.69093
1.65844
1.62668
1.60578
1.56598
4.19495
4.06827
3.7476
3.40926
3.12829
2.88793
2.64573
2.42721
2.25623
2.10165
1.93458
1.77308
1.67143
1.57191
1.46526
1.3537
1.29889
1.24471
1.17268
1.09437
1.0534
1.01127
0.952682
0.922301
0.919734
0.924225
0.92479
0.922817
0.929308
0.947333
0.990626
1.03756
1.06462
1.09152
1.11854
1.11718
1.10435
1.07881
1.0534
1.03762
1.02489
1.01092
0.999161
0.992296
0.987227
0.980304
0.971826
0.964655
0.952036
0.937764
0.929017
0.91566
0.890223
0.871984
0.872877
0.895677
0.983518
1.16061
1.46199
1.7207
1.94491
2.03851
1.99211
1.91253
1.83874
1.76446
1.68731
1.64692
1.6175
1.57877
1.55803
1.52877
3.632
4.09368
3.94894
3.63066
3.30157
3.05381
2.82023
2.59856
2.40681
2.24785
2.08001
1.91304
1.79519
1.70781
1.59527
1.46729
1.39964
1.3505
1.27859
1.18572
1.1355
1.09335
1.03034
0.966884
0.952978
0.941231
0.917685
0.899675
0.902663
0.913181
0.920493
0.951401
0.996587
1.03445
1.07385
1.10487
1.1042
1.08905
1.07111
1.05284
1.03422
1.01691
1.00767
1.00248
0.996708
0.989878
0.980309
0.966742
0.949905
0.932516
0.91966
0.905699
0.907142
0.933979
1.02372
1.19577
1.50141
1.80866
2.05744
2.10661
2.10785
2.05065
1.95869
1.84908
1.78078
1.72652
1.66563
1.62798
1.59275
1.54851
1.52168
1.48867
2.61326
3.6192
3.99067
3.8532
3.54642
3.24363
2.97136
2.73886
2.57295
2.40761
2.22945
2.03586
1.9303
1.84008
1.72566
1.59511
1.50836
1.45897
1.38128
1.2814
1.22198
1.18657
1.13069
1.04737
1.01756
0.999073
0.966067
0.921784
0.898308
0.895697
0.898724
0.901043
0.921145
0.958986
1.00497
1.05017
1.06715
1.0677
1.07349
1.07047
1.05618
1.03995
1.02617
1.01472
1.00146
0.988466
0.975864
0.958699
0.944471
0.944667
0.95787
1.00515
1.10739
1.31756
1.578
1.86962
2.10417
2.24743
2.25612
2.19434
2.07845
1.96197
1.86191
1.80339
1.76508
1.71705
1.66263
1.60998
1.55875
1.509
1.48172
1.45138
1.97666
2.70064
3.58133
3.88411
3.75959
3.48345
3.18398
2.89358
2.6869
2.54698
2.38893
2.1999
2.07156
1.97366
1.85698
1.71225
1.63204
1.57269
1.4939
1.3742
1.31264
1.27948
1.22612
1.14812
1.09425
1.07304
1.03426
0.97224
0.917113
0.907432
0.90123
0.89071
0.897183
0.920018
0.939895
0.969009
1.00352
1.01952
1.03444
1.06087
1.0663
1.05995
1.04757
1.03135
1.00977
0.990739
0.974151
0.977685
1.00364
1.08586
1.24075
1.454
1.69367
1.99231
2.14842
2.30576
2.34553
2.3109
2.22357
2.12744
2.02585
1.90742
1.82845
1.78535
1.74007
1.68502
1.62574
1.57369
1.53214
1.48832
1.45829
1.42791
1.92338
2.06086
2.756
3.5191
3.7705
3.67868
3.43037
3.10791
2.84057
2.68271
2.52805
2.35883
2.22842
2.12889
1.99991
1.84424
1.72232
1.67882
1.61041
1.49182
1.40766
1.37076
1.32717
1.24225
1.18125
1.15315
1.11457
1.04514
0.971661
0.958296
0.950093
0.920215
0.901147
0.907397
0.92434
0.924254
0.930353
0.951335
0.978747
1.02046
1.0388
1.04809
1.05166
1.04702
1.03515
1.0357
1.07627
1.1943
1.38699
1.65689
1.90055
2.02424
2.2024
2.34408
2.35914
2.36136
2.32292
2.25472
2.16949
2.08222
1.99468
1.90781
1.82571
1.74928
1.68434
1.62497
1.58976
1.56596
1.53519
1.48792
1.44551
1.40437
2.0054
1.98208
2.14841
2.7767
3.42125
3.66315
3.59843
3.37605
3.08453
2.86816
2.67739
2.48635
2.37933
2.27506
2.14683
1.9653
1.85264
1.7915
1.7064
1.5939
1.50428
1.47915
1.4319
1.34684
1.25911
1.22829
1.19539
1.12889
1.0459
1.0259
1.01395
0.985051
0.931912
0.916144
0.91565
0.905798
0.904535
0.913654
0.935005
0.971834
1.00831
1.03344
1.05653
1.09266
1.17374
1.32942
1.59598
1.84946
2.12214
2.28416
2.30002
2.31324
2.34575
2.34244
2.32898
2.30819
2.27223
2.20695
2.13284
2.05641
1.97203
1.87497
1.78131
1.69737
1.63911
1.61255
1.59532
1.57558
1.53878
1.48259
1.41967
1.36894
2.08465
2.03027
2.03302
2.21223
2.7634
3.35452
3.52309
3.50193
3.32911
3.09969
2.90016
2.66681
2.48961
2.39455
2.28729
2.1132
1.97769
1.90777
1.83443
1.70725
1.60873
1.57313
1.53374
1.45127
1.35164
1.3124
1.27679
1.2155
1.12792
1.09946
1.09114
1.06054
1.00186
0.954328
0.938346
0.915573
0.897895
0.901056
0.91664
0.947932
1.00032
1.08275
1.21472
1.41372
1.70355
2.00561
2.21474
2.38619
2.52736
2.50235
2.42259
2.37566
2.33056
2.28676
2.26073
2.24977
2.2212
2.15825
2.08266
2.01287
1.94657
1.86721
1.75191
1.6732
1.6381
1.61161
1.58886
1.56532
1.52387
1.43386
1.36797
1.33618
2.23105
2.08134
2.03636
2.05487
2.22106
2.75397
3.27906
3.40617
3.44646
3.33128
3.12508
2.88238
2.66272
2.52573
2.40056
2.24412
2.11153
2.04311
1.95851
1.84092
1.71541
1.66999
1.63505
1.55421
1.44062
1.38592
1.36146
1.31186
1.21667
1.17971
1.1657
1.13842
1.07603
1.00509
0.985464
0.966492
0.942544
0.945662
0.972458
1.05162
1.21271
1.45151
1.72686
2.02939
2.23317
2.39476
2.46979
2.52057
2.53627
2.49199
2.4134
2.3502
2.31304
2.27398
2.2395
2.22064
2.19024
2.13887
2.07211
2.00128
1.92657
1.84691
1.75455
1.67586
1.63819
1.61272
1.58658
1.54086
1.45788
1.36869
1.33181
1.31574
2.40768
2.27077
2.11995
2.02853
2.04885
2.2199
2.74487
3.17872
3.34676
3.42299
3.32039
3.11657
2.86826
2.68184
2.55138
2.36923
2.23422
2.15962
2.08911
1.97419
1.83414
1.78156
1.73524
1.65705
1.52887
1.47102
1.44807
1.40137
1.31955
1.26077
1.2442
1.21505
1.15821
1.08548
1.05649
1.05959
1.09786
1.18365
1.33235
1.56488
1.7876
2.0161
2.20406
2.32969
2.40524
2.46432
2.45302
2.41841
2.40176
2.37962
2.34223
2.29494
2.25789
2.23758
2.23013
2.22204
2.19423
2.14509
2.07766
1.99684
1.91089
1.82851
1.75504
1.69451
1.65071
1.60769
1.5471
1.47837
1.40037
1.32864
1.31452
1.30645
2.48168
2.40903
2.29985
2.15129
2.04867
2.06286
2.22896
2.6741
3.08831
3.32967
3.39096
3.30674
3.11247
2.87482
2.71062
2.54101
2.37289
2.27065
2.19864
2.097
1.97364
1.88652
1.83775
1.76104
1.63316
1.55414
1.53014
1.49721
1.41318
1.35209
1.324
1.30154
1.25723
1.25227
1.2906
1.41396
1.61598
1.81112
2.02682
2.17517
2.27013
2.35748
2.38896
2.41728
2.44413
2.41393
2.35497
2.276
2.23233
2.21537
2.19304
2.17888
2.16761
2.16304
2.18412
2.19384
2.17585
2.13344
2.07313
2.00455
1.91794
1.8344
1.76644
1.71068
1.63519
1.55113
1.49553
1.44364
1.38151
1.32953
1.30832
1.29305
2.5721
2.46956
2.39825
2.32689
2.20797
2.09033
2.08579
2.20618
2.54055
3.0136
3.29518
3.33822
3.25374
3.08745
2.89393
2.70681
2.53515
2.4157
2.32644
2.22099
2.08118
1.99686
1.93843
1.86376
1.7497
1.65525
1.61774
1.58592
1.52912
1.45837
1.45256
1.51503
1.62149
1.77813
1.942
2.17755
2.36139
2.49962
2.53117
2.48277
2.4957
2.49951
2.48454
2.48411
2.46339
2.39875
2.30835
2.2012
2.12656
2.09145
2.06424
2.06599
2.07212
2.0536
2.05023
2.06442
2.05668
2.04656
2.04502
2.01138
1.93794
1.85547
1.77861
1.68245
1.58434
1.51124
1.45953
1.43867
1.42099
1.3838
1.35331
1.31692
2.72101
2.62416
2.51017
2.382
2.32329
2.23677
2.1379
2.12272
2.18643
2.47427
2.98354
3.21845
3.25385
3.22308
3.10295
2.92392
2.72584
2.55943
2.44244
2.34056
2.22744
2.12033
2.03896
1.95496
1.84494
1.78056
1.74753
1.71737
1.75819
1.83188
1.97955
2.17649
2.41531
2.59198
2.70398
2.85326
2.90266
2.88512
2.84936
2.81627
2.78285
2.72944
2.64827
2.56294
2.47972
2.39014
2.29448
2.19283
2.10708
2.05281
2.02081
1.99996
1.98772
1.98064
1.96126
1.94968
1.94925
1.94728
1.94573
1.92009
1.85889
1.78341
1.71163
1.61542
1.52426
1.49576
1.46789
1.43263
1.39526
1.35711
1.33483
1.29233
2.85528
2.76071
2.66233
2.53479
2.39183
2.29363
2.22837
2.17148
2.16706
2.20511
2.4764
2.87031
3.11339
3.20606
3.21776
3.11643
2.92696
2.75413
2.60915
2.459
2.33679
2.23933
2.15548
2.0902
2.00375
1.99724
2.08304
2.29238
2.55042
2.75484
2.94032
2.98995
3.07733
3.10682
3.07573
3.05638
3.05186
3.02438
2.97457
2.92887
2.88627
2.826
2.74429
2.64794
2.54453
2.43793
2.32584
2.22147
2.1405
2.08373
2.03898
1.99925
1.96044
1.92693
1.90281
1.87833
1.86355
1.86245
1.86679
1.84653
1.79378
1.7267
1.65761
1.57238
1.48904
1.45358
1.42259
1.39558
1.38155
1.36145
1.34121
1.28616
3.1084
2.92461
2.76158
2.64152
2.52698
2.42533
2.31059
2.22201
2.20121
2.21001
2.2372
2.4541
2.75712
3.02675
3.15913
3.19009
3.11642
2.95129
2.78229
2.60022
2.50495
2.40029
2.3698
2.47207
2.65285
2.86195
3.15032
3.44836
3.55705
3.58913
3.60637
3.59165
3.57339
3.55252
3.48115
3.37681
3.345
3.31079
3.21494
3.09376
3.0239
2.95301
2.85253
2.73057
2.60409
2.48655
2.37832
2.27954
2.19647
2.12942
2.0649
1.99874
1.93882
1.88961
1.85887
1.84328
1.82839
1.82353
1.8181
1.78781
1.73905
1.68249
1.61258
1.5273
1.45939
1.43209
1.40266
1.37481
1.35016
1.322
1.29931
1.24463
3.18404
3.10441
2.93795
2.76212
2.64087
2.56084
2.47624
2.36203
2.2244
2.21922
2.23623
2.25765
2.40288
2.66016
2.94894
3.122
3.1515
3.09165
3.0036
2.91151
2.9419
3.08839
3.40071
3.83043
3.99245
4.09188
4.17713
4.12878
3.99228
3.88425
3.80568
3.77121
3.73541
3.70683
3.67423
3.61059
3.59095
3.56436
3.48184
3.35276
3.22598
3.09938
2.95241
2.79703
2.65804
2.5361
2.42632
2.3298
2.24571
2.17388
2.11036
2.04456
1.97672
1.91641
1.87156
1.84503
1.8292
1.81546
1.79506
1.7613
1.71454
1.65154
1.56457
1.48166
1.45508
1.4337
1.40745
1.37205
1.33533
1.30493
1.27823
1.21851
3.16323
3.12271
3.02922
2.93464
2.82196
2.68524
2.59537
2.5007
2.38386
2.25717
2.21326
2.22776
2.2406
2.3466
2.60203
2.9621
3.1119
3.31337
3.67038
4.19117
4.49235
4.71946
4.95481
4.91902
4.80727
4.71293
4.6054
4.44706
4.26435
4.12383
3.96768
3.90919
3.93741
3.91561
3.87672
3.83607
3.77861
3.70213
3.59493
3.45668
3.31153
3.17126
3.01558
2.83407
2.66286
2.53942
2.45108
2.37177
2.29404
2.21512
2.13498
2.0644
2.00904
1.96141
1.91783
1.88319
1.85508
1.82619
1.79351
1.75357
1.6984
1.62668
1.54857
1.46554
1.41519
1.39559
1.3734
1.34127
1.30824
1.28281
1.25883
1.20527
2.77931
3.02727
3.0399
3.02549
2.9856
2.88087
2.7386
2.59036
2.48462
2.37517
2.26848
2.23204
2.23683
2.25519
2.37982
2.74744
3.57291
4.51897
5.40265
5.92153
6.03714
5.95491
5.82417
5.51366
5.19141
4.95205
4.7557
4.60163
4.48382
4.39808
4.32681
4.34674
4.3877
4.348
4.21945
4.0809
3.94589
3.8049
3.65713
3.49486
3.32572
3.16849
3.02634
2.88462
2.74159
2.61418
2.50694
2.41426
2.33114
2.25009
2.17238
2.10739
2.06001
2.02186
1.98256
1.93644
1.88568
1.83655
1.78791
1.73735
1.68174
1.62019
1.55014
1.46522
1.41183
1.3901
1.36537
1.33302
1.30006
1.2668
1.23379
1.18599
1.7091
2.53134
2.8578
2.93436
2.94526
2.93809
2.87544
2.76706
2.62978
2.5124
2.41985
2.35986
2.41462
2.66884
3.19985
3.99124
4.8261
5.51701
5.94188
6.20507
6.23735
6.16843
6.03327
5.79823
5.43537
5.15838
4.97023
4.84531
4.81815
4.78344
4.79821
4.85144
4.81514
4.68631
4.47088
4.24126
4.03059
3.83468
3.64886
3.47197
3.31065
3.16032
3.01693
2.88061
2.79577
2.74195
2.64875
2.53105
2.41726
2.32002
2.23837
2.17408
2.12873
2.09058
2.04773
1.99279
1.9257
1.8577
1.79285
1.73101
1.67308
1.61543
1.55314
1.48477
1.4288
1.39348
1.36125
1.32507
1.28934
1.25743
1.22973
1.17205
1.09491
1.47461
2.13749
2.58715
2.88582
2.94871
2.93086
2.86423
2.80801
2.81906
2.92173
3.16525
3.64429
4.29291
4.84557
5.15068
5.29168
5.35402
5.53525
5.83092
5.96895
5.90652
5.77859
5.63538
5.56107
5.47928
5.42744
5.44279
5.39371
5.31519
5.28028
5.19983
5.06352
4.89502
4.69754
4.48722
4.26721
4.04034
3.81353
3.60506
3.42675
3.26652
3.12318
3.00379
2.88643
2.74262
2.61219
2.49736
2.40038
2.31455
2.23792
2.17213
2.12046
2.07891
2.04023
1.99896
1.95371
1.89949
1.83268
1.7609
1.69291
1.62558
1.55418
1.4886
1.44372
1.41099
1.37907
1.34353
1.30674
1.26896
1.23086
1.16732
1.0033
1.03987
1.27317
1.68823
2.25717
2.68583
2.86589
3.17758
3.54122
4.00932
4.41886
4.74398
5.15176
5.31567
5.34711
5.28954
5.14692
4.97437
4.88997
5.00349
5.22715
5.34678
5.42778
5.54862
5.73674
5.91451
5.98743
6.00235
5.88949
5.69056
5.51643
5.31337
5.05983
4.7861
4.53536
4.31172
4.10101
3.89001
3.68
3.48742
3.31952
3.16806
3.03039
2.91371
2.81169
2.70191
2.60997
2.54106
2.4625
2.3826
2.30754
2.24174
2.19149
2.15656
2.13134
2.10519
2.06709
2.00855
1.92983
1.84108
1.7537
1.67313
1.6035
1.5517
1.51127
1.47444
1.43716
1.39427
1.34727
1.29744
1.25284
1.19074
1.00003
1.00076
1.01655
1.09487
1.37621
2.14243
3.26609
4.29131
5.33732
6.28027
6.80008
7.05647
6.97193
6.66328
6.08555
5.45193
4.92263
4.64645
4.46612
4.4304
4.54699
4.79234
5.19458
5.68189
6.12129
6.37984
6.59027
6.58995
6.48279
6.19819
5.82222
5.44913
5.0838
4.73768
4.44577
4.21363
4.01508
3.82188
3.62872
3.44879
3.28947
3.14635
3.01651
2.8966
2.78339
2.68282
2.58732
2.48288
2.38031
2.28876
2.21401
2.1555
2.11193
2.08379
2.06507
2.04189
2.00437
1.9439
1.86405
1.77438
1.68589
1.60981
1.54852
1.501
1.45964
1.42538
1.39146
1.34598
1.297
1.24535
1.19854
1.13925
)
;

boundaryField
{
    inlet
    {
        type            fixedValue;
        value           uniform 1;
    }
    outlet
    {
        type            zeroGradient;
    }
    bottom
    {
        type            zeroGradient;
    }
    top
    {
        type            zeroGradient;
    }
    obstacle
    {
        type            zeroGradient;
    }
    defaultFaces
    {
        type            empty;
    }
}


// ************************************************************************* //
