/*--------------------------------*- C++ -*----------------------------------*\
  =========                 |
  \\      /  F ield         | OpenFOAM: The Open Source CFD Toolbox
   \\    /   O peration     | Website:  https://openfoam.org
    \\  /    A nd           | Version:  7
     \\/     M anipulation  |
\*---------------------------------------------------------------------------*/
FoamFile
{
    version     2.0;
    format      ascii;
    class       volScalarField;
    location    "0.6";
    object      T;
}
// * * * * * * * * * * * * * * * * * * * * * * * * * * * * * * * * * * * * * //

dimensions      [0 0 0 1 0 0 0];

internalField   nonuniform List<scalar> 
4128
(
1.377
1.36183
1.37033
1.42228
1.51007
1.5788
1.64323
1.72276
1.73313
1.72402
1.70827
1.70529
1.70902
1.72394
1.75665
1.78265
1.77753
1.75018
1.74386
1.7555
1.7806
1.80319
1.80819
1.80649
1.79679
1.77893
1.76948
1.76986
1.77742
1.79152
1.80221
1.80385
1.80249
1.79879
1.79697
1.79462
1.79383
1.79506
1.79482
1.79491
1.79759
1.80047
1.79983
1.79657
1.79084
1.78497
1.78115
1.78047
1.78163
1.78214
1.78244
1.7829
1.7841
1.78736
1.79242
1.79753
1.79752
1.82433
2.60543
2.84381
2.89814
2.94447
2.99599
3.04501
3.08525
3.12032
3.15763
3.20955
3.28384
3.3832
3.51284
3.65341
3.74834
3.79219
3.79037
3.7157
3.50798
3.17342
2.83753
2.61121
2.52161
2.50896
2.52602
2.57358
2.66179
2.76203
2.83268
2.85704
1.10593
1.11518
1.14278
1.17232
1.21451
1.28749
1.36963
1.42116
1.46423
1.49678
1.51134
1.52438
1.54662
1.58435
1.62635
1.65689
1.67905
1.68121
1.68161
1.69365
1.7098
1.7265
1.73866
1.7417
1.73874
1.73193
1.72947
1.73056
1.73654
1.74807
1.75962
1.76389
1.7631
1.76066
1.76078
1.76155
1.76206
1.76387
1.76411
1.76398
1.76567
1.76742
1.767
1.76518
1.76223
1.7596
1.75839
1.75877
1.76109
1.76191
1.76237
1.76287
1.76287
1.76326
1.76607
1.77006
1.77236
1.78847
2.55286
2.82102
2.87869
2.92929
2.98326
3.03457
3.07877
3.11717
3.15506
3.20447
3.27418
3.36958
3.49639
3.63873
3.74061
3.78749
3.78762
3.71845
3.51597
3.18432
2.84713
2.61706
2.52467
2.51057
2.52653
2.57289
2.6609
2.76179
2.83341
2.8585
1.17342
1.17444
1.15001
1.12052
1.1289
1.16354
1.20634
1.21962
1.22483
1.25569
1.30364
1.33877
1.36563
1.40008
1.44567
1.48233
1.51548
1.55799
1.58504
1.60365
1.61277
1.61824
1.62829
1.63929
1.64191
1.64285
1.64466
1.64775
1.6528
1.66031
1.67111
1.68024
1.68298
1.68368
1.6839
1.68351
1.68345
1.68403
1.68559
1.69038
1.69516
1.69617
1.69622
1.69458
1.69233
1.69207
1.69272
1.69545
1.69976
1.70171
1.70302
1.70426
1.70586
1.70838
1.71126
1.7136
1.71451
1.71905
2.40629
2.75544
2.82182
2.8796
2.93946
2.99633
3.04867
3.09462
3.13663
3.18416
3.24667
3.33101
3.44873
3.58944
3.70792
3.77086
3.78229
3.72361
3.53933
3.21822
2.87506
2.63351
2.53133
2.51328
2.5275
2.57183
2.65895
2.76069
2.83386
2.8602
1.27517
1.27738
1.26785
1.22561
1.18285
1.1703
1.17455
1.17068
1.17165
1.17388
1.18792
1.20719
1.22958
1.26355
1.30803
1.34216
1.37298
1.4202
1.46087
1.4787
1.49512
1.50972
1.52659
1.54575
1.55978
1.56471
1.56895
1.57276
1.57675
1.58219
1.58961
1.59539
1.59902
1.60056
1.59966
1.59623
1.59223
1.59102
1.59264
1.59921
1.60713
1.6125
1.61367
1.61316
1.61251
1.61301
1.61519
1.61873
1.62251
1.62425
1.62444
1.62459
1.62627
1.63059
1.63595
1.64064
1.64159
1.64177
2.16171
2.6359
2.72626
2.79164
2.85688
2.9201
2.98315
3.03994
3.09005
3.13892
3.19543
3.26742
3.37049
3.50376
3.64207
3.7328
3.76485
3.72605
3.57958
3.28885
2.94021
2.67203
2.54607
2.51908
2.53026
2.5712
2.65616
2.7587
2.83365
2.86107
1.41477
1.35999
1.33618
1.31326
1.26834
1.23433
1.23612
1.2285
1.20549
1.20066
1.20546
1.20427
1.19682
1.19781
1.2052
1.21879
1.23831
1.27613
1.32918
1.36435
1.39973
1.4363
1.45584
1.47168
1.48734
1.4961
1.50231
1.51332
1.52468
1.53053
1.53425
1.54069
1.54584
1.54863
1.54781
1.54275
1.53666
1.53507
1.53603
1.53925
1.54334
1.54824
1.55269
1.55454
1.55539
1.55556
1.55581
1.5565
1.55775
1.5592
1.56033
1.56181
1.56453
1.56889
1.57322
1.57639
1.57736
1.5758
1.8337
2.47337
2.61832
2.68893
2.75209
2.81464
2.88238
2.94915
3.01
3.06513
3.1193
3.17977
3.26328
3.38039
3.52605
3.65216
3.71613
3.71075
3.62024
3.38724
3.04859
2.74397
2.57569
2.52972
2.53563
2.57079
2.65164
2.75481
2.83197
2.86055
1.51862
1.46807
1.42175
1.39182
1.34951
1.30563
1.2986
1.29384
1.27134
1.25111
1.24256
1.23042
1.20977
1.19624
1.19821
1.20152
1.20087
1.20475
1.21973
1.24047
1.26739
1.31765
1.36166
1.39458
1.42585
1.44711
1.45794
1.46994
1.48568
1.49284
1.49472
1.50058
1.50623
1.50948
1.51285
1.51425
1.51388
1.51268
1.51157
1.5116
1.51233
1.51391
1.51586
1.51647
1.5166
1.51626
1.51628
1.51691
1.51897
1.52233
1.52596
1.52826
1.52923
1.53
1.53099
1.53185
1.5318
1.5307
1.59276
2.33053
2.53749
2.59294
2.64616
2.70002
2.76114
2.82919
2.89838
2.96325
3.02214
3.07853
3.14578
3.24197
3.3758
3.52999
3.64124
3.6806
3.6388
3.48508
3.19269
2.86033
2.63289
2.54999
2.544
2.57128
2.64475
2.74758
2.82775
2.8579
1.58036
1.53235
1.49307
1.46384
1.43171
1.38721
1.35704
1.34034
1.32159
1.29745
1.28645
1.27866
1.26008
1.23785
1.2364
1.23441
1.22303
1.21128
1.21444
1.21557
1.21649
1.22266
1.24101
1.2727
1.31689
1.36855
1.40731
1.42817
1.452
1.46319
1.463
1.46663
1.47247
1.47717
1.48465
1.49396
1.50084
1.5009
1.50053
1.49924
1.49742
1.49589
1.4948
1.49478
1.49502
1.49525
1.49556
1.49727
1.50194
1.5073
1.50909
1.50873
1.50671
1.50515
1.50482
1.50458
1.50512
1.50679
1.51265
2.19804
2.4895
2.5253
2.55899
2.60083
2.64883
2.70596
2.77395
2.84521
2.91086
2.96826
3.02628
3.10158
3.21231
3.36347
3.52055
3.61539
3.62397
3.55162
3.34324
3.02027
2.73195
2.58737
2.55656
2.57483
2.63612
2.73582
2.81996
2.85238
1.65427
1.60329
1.55422
1.51914
1.4866
1.45782
1.43341
1.40613
1.37874
1.34873
1.32501
1.31666
1.30869
1.29078
1.27306
1.26779
1.26081
1.2463
1.23733
1.23376
1.22425
1.21791
1.21922
1.22336
1.23524
1.25813
1.29563
1.33313
1.36619
1.39751
1.41736
1.43005
1.44292
1.44743
1.45654
1.47424
1.48912
1.49349
1.49332
1.49215
1.48946
1.48474
1.48015
1.47907
1.47974
1.48186
1.48455
1.48821
1.49443
1.49906
1.49937
1.49828
1.49475
1.48979
1.48875
1.48906
1.49162
1.497
1.49821
2.02343
2.47443
2.48651
2.50263
2.5293
2.56751
2.61262
2.66966
2.7359
2.80094
2.85896
2.91155
2.97166
3.05793
3.1849
3.35315
3.50635
3.58397
3.56793
3.45771
3.1975
2.87777
2.65568
2.58099
2.58405
2.62808
2.71978
2.8078
2.84358
1.712
1.66155
1.62227
1.58563
1.54007
1.50378
1.48254
1.45704
1.4316
1.41082
1.38443
1.35184
1.34242
1.33567
1.31812
1.30261
1.29953
1.29331
1.27736
1.26917
1.26079
1.2485
1.24103
1.23642
1.23698
1.23884
1.24214
1.24868
1.26044
1.28122
1.31029
1.33802
1.37147
1.40519
1.42691
1.44488
1.46604
1.48187
1.48215
1.48136
1.47926
1.47407
1.4703
1.46944
1.47085
1.4737
1.47754
1.48327
1.48957
1.49221
1.49238
1.49144
1.48728
1.48374
1.48297
1.48297
1.48574
1.49121
1.49149
1.81517
2.42187
2.47008
2.4831
2.50078
2.52665
2.56377
2.60592
2.65797
2.71157
2.76136
2.80745
2.85555
2.92099
3.01916
3.16321
3.34313
3.48893
3.54394
3.50475
3.34782
3.05782
2.77242
2.62599
2.59735
2.62584
2.70245
2.79104
2.83077
1.76687
1.72013
1.67475
1.63576
1.59394
1.56193
1.53629
1.50463
1.46611
1.44977
1.43483
1.40936
1.38569
1.37776
1.36621
1.3441
1.33336
1.33183
1.32313
1.30454
1.29066
1.27687
1.2677
1.2628
1.25873
1.2548
1.25034
1.24625
1.24203
1.2419
1.24399
1.25117
1.26726
1.30073
1.34073
1.37494
1.40266
1.43104
1.44623
1.45688
1.46332
1.46451
1.4659
1.4648
1.4658
1.46864
1.474
1.4803
1.48406
1.4841
1.48365
1.48262
1.48104
1.48092
1.4808
1.48071
1.48301
1.48592
1.48485
1.59865
2.33607
2.4727
2.48409
2.49735
2.51433
2.54014
2.57217
2.60796
2.64491
2.68342
2.72199
2.76303
2.81169
2.88337
2.9927
3.15297
3.34097
3.47412
3.49514
3.43433
3.23327
2.93323
2.70378
2.62337
2.63142
2.68725
2.77057
2.81378
1.81183
1.76704
1.72755
1.6902
1.64041
1.60702
1.58047
1.55261
1.51655
1.49021
1.47233
1.4517
1.42837
1.41475
1.40695
1.39432
1.37242
1.35853
1.35363
1.34201
1.3277
1.31619
1.30053
1.29498
1.29184
1.28782
1.28274
1.27352
1.26105
1.24669
1.24006
1.23992
1.24073
1.24494
1.25393
1.26994
1.29564
1.33337
1.37399
1.4061
1.43169
1.45163
1.45611
1.45523
1.45632
1.46325
1.46909
1.47402
1.47571
1.47553
1.47427
1.47306
1.47344
1.47407
1.47462
1.47754
1.48058
1.48059
1.47806
1.4957
2.25472
2.47704
2.48513
2.49794
2.51144
2.5285
2.54981
2.57539
2.60186
2.63165
2.66268
2.69552
2.73325
2.78325
2.8616
2.98139
3.15553
3.34212
3.45097
3.44803
3.3533
3.10955
2.82769
2.67219
2.64372
2.67911
2.74976
2.79317
1.85654
1.80778
1.76458
1.73123
1.6877
1.64866
1.62135
1.59075
1.55793
1.53318
1.51302
1.4955
1.47491
1.45259
1.43866
1.43167
1.42045
1.39613
1.37972
1.37149
1.3598
1.35057
1.34179
1.33048
1.32161
1.31462
1.30957
1.3023
1.28957
1.27442
1.26196
1.24979
1.24304
1.24317
1.24419
1.24629
1.24995
1.25644
1.27227
1.29939
1.33071
1.37115
1.40033
1.41855
1.43077
1.44506
1.46065
1.46906
1.47357
1.4743
1.47191
1.46582
1.46457
1.46473
1.46723
1.47363
1.47616
1.47558
1.47296
1.471
2.15183
2.47876
2.48374
2.49233
2.505
2.51619
2.53008
2.54958
2.5729
2.59673
2.62121
2.64691
2.67559
2.71272
2.76784
2.85311
2.98378
3.16849
3.3464
3.42591
3.39914
3.25449
2.98589
2.75416
2.66839
2.68036
2.73048
2.76977
1.8877
1.84193
1.80086
1.76492
1.72788
1.68717
1.65583
1.63007
1.60366
1.57682
1.55028
1.52978
1.51428
1.49627
1.47669
1.46448
1.45378
1.43472
1.40914
1.39657
1.38833
1.38053
1.37537
1.36793
1.35512
1.33939
1.33102
1.32593
1.31739
1.30301
1.28981
1.27885
1.2689
1.26264
1.25783
1.25213
1.25025
1.24887
1.24567
1.24553
1.25071
1.26865
1.30405
1.3466
1.38525
1.41704
1.44265
1.45789
1.46254
1.46649
1.46746
1.46335
1.45746
1.4582
1.46239
1.46932
1.47161
1.47073
1.4684
1.46103
1.99206
2.4708
2.482
2.4841
2.49224
2.50296
2.51458
2.53028
2.54853
2.56724
2.58739
2.60821
2.63222
2.66444
2.70692
2.76741
2.85567
2.9967
3.18837
3.3439
3.38315
3.33033
3.14193
2.87692
2.71468
2.68639
2.71248
2.74292
1.9126
1.87162
1.83446
1.79495
1.75816
1.72807
1.69551
1.6604
1.63757
1.61847
1.59437
1.56743
1.54766
1.52898
1.51025
1.49771
1.4846
1.46682
1.44554
1.42644
1.4152
1.40783
1.40413
1.4007
1.39267
1.37597
1.35339
1.34254
1.33665
1.32787
1.31559
1.30467
1.29355
1.284
1.28039
1.27544
1.26821
1.26126
1.2531
1.24654
1.24511
1.24585
1.25216
1.26841
1.29921
1.33466
1.36602
1.39381
1.41141
1.42715
1.44676
1.4502
1.4487
1.45305
1.46422
1.46905
1.46885
1.4663
1.46133
1.4518
1.79977
2.42327
2.48672
2.48187
2.48439
2.4916
2.50219
2.51691
2.53232
2.54789
2.56509
2.58367
2.60541
2.63271
2.6689
2.7141
2.77396
2.86648
3.01814
3.20753
3.33124
3.33645
3.24988
3.02418
2.7937
2.7017
2.69955
2.70494
1.93349
1.89761
1.8617
1.82637
1.78865
1.75892
1.73125
1.70097
1.67288
1.65127
1.6257
1.59993
1.58283
1.56761
1.54493
1.52518
1.50886
1.49158
1.47714
1.46649
1.45408
1.43474
1.42418
1.42169
1.41734
1.4072
1.39017
1.36673
1.35018
1.34441
1.33852
1.33131
1.32293
1.31114
1.30118
1.29633
1.28981
1.28055
1.27203
1.26386
1.25502
1.25302
1.25405
1.25684
1.26184
1.26908
1.28065
1.29905
1.32425
1.34893
1.37707
1.40327
1.42657
1.44124
1.45593
1.45851
1.45797
1.45465
1.44681
1.44095
1.60238
2.33855
2.48841
2.48107
2.4831
2.48717
2.49554
2.50776
2.51994
2.53255
2.54698
2.56432
2.58559
2.61167
2.64435
2.68237
2.72614
2.78318
2.88212
3.04403
3.22185
3.3119
3.2878
3.14869
2.90849
2.7306
2.67445
2.66566
1.95535
1.92025
1.88541
1.85032
1.81941
1.78972
1.76085
1.73236
1.70601
1.68158
1.65852
1.63295
1.61097
1.59478
1.57666
1.55815
1.54093
1.51696
1.49864
1.4936
1.48618
1.47438
1.46018
1.44203
1.4281
1.42155
1.41301
1.39778
1.37718
1.36241
1.35742
1.35271
1.34624
1.33817
1.3273
1.31596
1.30739
1.29904
1.29007
1.28301
1.27733
1.27146
1.26374
1.26364
1.26534
1.2679
1.26685
1.26279
1.26237
1.26805
1.28535
1.31807
1.35862
1.39194
1.41762
1.42746
1.42828
1.42648
1.42825
1.42948
1.46423
2.24398
2.49658
2.48221
2.48136
2.48252
2.49031
2.5004
2.50809
2.51653
2.52843
2.54624
2.56813
2.59412
2.62484
2.65756
2.69151
2.73252
2.79049
2.90121
3.0734
3.22957
3.27448
3.2136
3.02953
2.79877
2.68055
2.66377
1.97416
1.93991
1.90504
1.87378
1.84507
1.81655
1.78859
1.76171
1.73531
1.70883
1.68494
1.66486
1.64332
1.62132
1.60019
1.58364
1.56818
1.55037
1.53345
1.52058
1.50678
1.49679
1.48771
1.47397
1.45244
1.43112
1.423
1.41492
1.40315
1.39008
1.37833
1.36896
1.36317
1.35841
1.35141
1.33902
1.32408
1.3163
1.3113
1.30639
1.30263
1.29844
1.29134
1.2846
1.28099
1.27695
1.27113
1.26306
1.25608
1.25344
1.25384
1.25795
1.2716
1.29899
1.32824
1.35491
1.37943
1.39488
1.41028
1.4189
1.42542
2.16065
2.49163
2.4707
2.47157
2.474
2.48384
2.49324
2.49757
2.5009
2.51143
2.52846
2.55074
2.57733
2.60711
2.63608
2.6612
2.68923
2.72776
2.7949
2.92238
3.09677
3.21859
3.21481
3.11199
2.90099
2.68776
2.48773
1.98965
1.95604
1.92403
1.89565
1.86697
1.83925
1.81212
1.78695
1.76067
1.7356
1.71136
1.69082
1.67077
1.64777
1.62656
1.61052
1.5953
1.57881
1.56315
1.54819
1.53363
1.51665
1.5054
1.49432
1.47694
1.45282
1.43578
1.42885
1.42248
1.41471
1.40526
1.39227
1.37712
1.37205
1.36863
1.36116
1.34705
1.33089
1.32765
1.32618
1.32331
1.31996
1.31595
1.30973
1.3016
1.29051
1.2788
1.26773
1.26193
1.25987
1.25715
1.25491
1.25495
1.25624
1.25978
1.26752
1.2834
1.31206
1.34209
1.37669
1.38764
2.0782
2.49438
2.4644
2.4634
2.46913
2.48296
2.49179
2.49359
2.49383
2.50007
2.51597
2.53818
2.56427
2.59151
2.61494
2.63455
2.65515
2.68265
2.72335
2.80172
2.94209
3.1022
3.18407
3.13924
2.9958
2.77298
2.46893
2.00303
1.97042
1.94211
1.91349
1.88582
1.85809
1.83358
1.80784
1.78454
1.76042
1.73749
1.71484
1.69466
1.67509
1.65431
1.63508
1.61942
1.60555
1.59117
1.57493
1.55628
1.53668
1.52144
1.50863
1.49492
1.47848
1.4611
1.44553
1.43622
1.4315
1.426
1.41723
1.40306
1.38645
1.37942
1.37424
1.36543
1.35375
1.34721
1.34495
1.34198
1.33925
1.33756
1.33452
1.32625
1.3117
1.29493
1.28299
1.27878
1.27695
1.27251
1.26736
1.26149
1.25638
1.25153
1.24495
1.24271
1.24767
1.26193
1.29619
1.32029
1.98457
2.50669
2.48551
2.47427
2.4766
2.4881
2.49774
2.49826
2.49674
2.50023
2.51288
2.53298
2.55492
2.57556
2.59294
2.60958
2.62848
2.64922
2.68115
2.72488
2.81255
2.95538
3.08921
3.10842
3.04224
2.86453
2.52118
2.0154
1.98551
1.95623
1.92859
1.90118
1.87656
1.85185
1.82827
1.80453
1.78238
1.76015
1.73821
1.71621
1.69629
1.6795
1.66186
1.64385
1.62622
1.61224
1.59644
1.58011
1.5629
1.54208
1.52122
1.50674
1.49652
1.48594
1.47393
1.45831
1.44484
1.43915
1.43376
1.425
1.4109
1.39597
1.38603
1.37922
1.37316
1.36905
1.3659
1.36033
1.3528
1.35132
1.35012
1.34425
1.33184
1.31316
1.29909
1.2943
1.29047
1.28555
1.28097
1.27556
1.26953
1.26114
1.24775
1.24052
1.24029
1.24148
1.2475
1.25698
1.77997
2.48887
2.51754
2.5145
2.51424
2.5188
2.52111
2.51641
2.50886
2.50877
2.51807
2.53585
2.55333
2.56739
2.57758
2.59061
2.60825
2.62702
2.64846
2.67614
2.72389
2.81798
2.94663
3.03172
3.01132
2.90339
2.64401
2.02616
1.99775
1.96918
1.94092
1.91622
1.89225
1.86865
1.84532
1.82285
1.80096
1.77817
1.75764
1.73619
1.71853
1.6995
1.68198
1.66414
1.64945
1.63324
1.61389
1.59445
1.58074
1.56371
1.54444
1.52461
1.51027
1.50141
1.49261
1.48164
1.46862
1.45659
1.44649
1.43804
1.42905
1.4165
1.40181
1.39307
1.3898
1.38835
1.38663
1.38242
1.37399
1.36208
1.35696
1.35304
1.345
1.33282
1.32142
1.31505
1.30934
1.30218
1.29531
1.28997
1.28393
1.27483
1.26225
1.24858
1.24338
1.24317
1.24434
1.24513
1.40999
2.38298
2.55586
2.55756
2.55912
2.55826
2.55232
2.54339
2.53313
2.52922
2.53476
2.54863
2.56002
2.56732
2.57148
2.58143
2.59609
2.61204
2.62684
2.63729
2.66022
2.71026
2.80083
2.902
2.93234
2.88284
2.74249
2.03385
2.0065
1.97931
1.9542
1.92984
1.90552
1.88246
1.85994
1.83814
1.8153
1.79519
1.77349
1.75459
1.73591
1.71847
1.70033
1.68218
1.66632
1.64953
1.63288
1.61364
1.59446
1.57704
1.56148
1.54584
1.53287
1.52076
1.50729
1.49614
1.48681
1.47576
1.46293
1.45024
1.44154
1.43328
1.42366
1.41198
1.40383
1.40341
1.40302
1.40006
1.39393
1.38244
1.36896
1.35911
1.35136
1.34378
1.33812
1.33402
1.32831
1.31982
1.30854
1.2993
1.2926
1.28426
1.27448
1.26588
1.26049
1.25685
1.25199
1.24622
1.25349
2.16912
2.54691
2.56938
2.58128
2.57794
2.5685
2.56458
2.56091
2.56122
2.56601
2.57317
2.57586
2.57485
2.57479
2.58146
2.59429
2.60559
2.61367
2.61277
2.61709
2.63603
2.68077
2.75531
2.82672
2.8152
2.73825
2.03951
2.01306
1.9882
1.96488
1.941
1.91708
1.89371
1.87206
1.84939
1.82882
1.8078
1.78847
1.76992
1.75129
1.7341
1.71502
1.69948
1.68191
1.66461
1.64662
1.63007
1.61203
1.59411
1.57778
1.56362
1.55245
1.5395
1.52491
1.51123
1.5014
1.4921
1.48136
1.46694
1.4527
1.44518
1.43978
1.43388
1.42724
1.42113
1.41637
1.41085
1.40472
1.39651
1.38487
1.37325
1.36244
1.35427
1.34998
1.34746
1.34304
1.33636
1.32768
1.31447
1.30157
1.29272
1.28631
1.28192
1.2793
1.27609
1.27202
1.26186
1.25444
1.74056
2.45268
2.55253
2.57281
2.57736
2.57496
2.57591
2.58187
2.59266
2.5989
2.59946
2.59698
2.59216
2.58791
2.58952
2.59914
2.60781
2.60771
2.59933
2.59024
2.59145
2.60361
2.63734
2.69347
2.71942
2.6944
2.04189
2.01867
1.99617
1.97239
1.94874
1.92566
1.90396
1.88119
1.85944
1.83854
1.81892
1.80075
1.7818
1.76561
1.74661
1.73029
1.71338
1.69613
1.67927
1.66106
1.64498
1.6271
1.6116
1.59527
1.58235
1.56913
1.55529
1.54256
1.52864
1.51641
1.50496
1.49503
1.48439
1.4713
1.46058
1.45251
1.44802
1.44553
1.44182
1.43477
1.42487
1.41256
1.40141
1.39388
1.38712
1.37935
1.37022
1.3627
1.35831
1.35336
1.34614
1.33832
1.32844
1.31567
1.30582
1.29876
1.29261
1.2913
1.28933
1.28511
1.27922
1.26847
1.34685
2.25572
2.51116
2.54744
2.56306
2.56577
2.57232
2.58578
2.598
2.60743
2.60837
2.60804
2.60772
2.60724
2.6081
2.61409
2.61711
2.61093
2.59451
2.579
2.56558
2.56094
2.56757
2.58716
2.61254
2.61158
2.04405
2.0229
2.00104
1.97798
1.95437
1.93296
1.91112
1.88945
1.8683
1.84757
1.82947
1.81052
1.79412
1.77662
1.75998
1.74387
1.72618
1.7102
1.69135
1.67586
1.65902
1.6427
1.62685
1.6127
1.60029
1.58518
1.57032
1.55709
1.54592
1.53366
1.52046
1.50671
1.49434
1.48613
1.47817
1.47154
1.46439
1.45886
1.45476
1.4478
1.4385
1.42424
1.41013
1.40342
1.39747
1.39155
1.38496
1.37925
1.37312
1.36473
1.35453
1.34268
1.33308
1.32544
1.31955
1.31518
1.30993
1.305
1.30147
1.2956
1.28858
1.28108
1.28262
1.88726
2.42442
2.49736
2.52615
2.54404
2.55931
2.57817
2.59491
2.6036
2.60467
2.60795
2.61708
2.62826
2.63616
2.63834
2.63502
2.62008
2.59808
2.57846
2.56044
2.54149
2.5326
2.52318
2.5246
2.52413
2.04658
2.02527
2.00302
1.98059
1.96009
1.93898
1.91688
1.89565
1.87488
1.85681
1.83796
1.82067
1.80372
1.78702
1.77189
1.75436
1.73914
1.72152
1.7048
1.68925
1.67249
1.65814
1.64154
1.62885
1.61465
1.59979
1.5863
1.57214
1.5599
1.54629
1.53389
1.52146
1.50848
1.49987
1.49203
1.48641
1.48127
1.47523
1.4673
1.45731
1.44689
1.433
1.42247
1.41602
1.40942
1.40247
1.39649
1.39227
1.38632
1.37778
1.36698
1.35097
1.33704
1.33263
1.32937
1.32595
1.32334
1.32023
1.31545
1.30763
1.29775
1.29183
1.2882
1.41868
2.23726
2.44265
2.48316
2.51049
2.5328
2.55687
2.57841
2.59196
2.59689
2.60519
2.62174
2.64372
2.66077
2.66228
2.65449
2.6356
2.61074
2.58618
2.56548
2.54398
2.52223
2.4982
2.47219
2.44992
2.04635
2.02622
2.00443
1.98374
1.9642
1.94352
1.92279
1.90122
1.88282
1.8644
1.84655
1.82973
1.81245
1.79786
1.781
1.76537
1.74967
1.73248
1.71778
1.70103
1.68647
1.6699
1.6557
1.64282
1.62712
1.6132
1.5986
1.58657
1.57331
1.55889
1.5456
1.53156
1.52327
1.51494
1.50727
1.50083
1.49373
1.48713
1.47734
1.46641
1.45527
1.44113
1.43436
1.42852
1.42186
1.41431
1.40737
1.40205
1.39499
1.38604
1.37529
1.35973
1.34952
1.34539
1.34099
1.33607
1.33086
1.32825
1.32462
1.31764
1.3099
1.30613
1.30155
1.30589
1.91673
2.36905
2.43475
2.4689
2.50002
2.52801
2.55269
2.5701
2.57972
2.5918
2.61541
2.64065
2.66176
2.666
2.66281
2.65145
2.63061
2.60686
2.58362
2.55832
2.52979
2.4985
2.45904
2.41696
2.04396
2.02448
2.00434
1.98558
1.96578
1.94616
1.92586
1.90747
1.88936
1.87094
1.85406
1.83638
1.82194
1.80602
1.7898
1.77524
1.7579
1.74364
1.7276
1.71247
1.69783
1.68136
1.66915
1.65393
1.63958
1.62552
1.612
1.59932
1.58394
1.5708
1.557
1.54508
1.53711
1.52786
1.52079
1.51368
1.50613
1.49709
1.48555
1.47524
1.46207
1.45211
1.44696
1.44009
1.43375
1.42665
1.42045
1.41369
1.40351
1.39214
1.37836
1.36623
1.3624
1.35878
1.35431
1.35041
1.34394
1.33433
1.32785
1.32323
1.3194
1.31746
1.31543
1.31066
1.45765
2.20335
2.38086
2.42335
2.45629
2.48675
2.51417
2.53647
2.55375
2.57191
2.5958
2.62477
2.64633
2.65536
2.65572
2.65408
2.64679
2.6323
2.61352
2.5878
2.55252
2.51069
2.46554
2.41947
2.04013
2.02153
2.00389
1.98552
1.96703
1.94793
1.93012
1.91313
1.8949
1.8777
1.85911
1.84411
1.82937
1.813
1.79908
1.78244
1.76776
1.75253
1.73659
1.723
1.70606
1.69355
1.67985
1.66466
1.65131
1.63631
1.62428
1.60967
1.59468
1.5819
1.56732
1.55875
1.54947
1.54015
1.53301
1.5243
1.51583
1.50466
1.49336
1.48406
1.47132
1.46502
1.45924
1.45149
1.44372
1.43625
1.43069
1.42274
1.41184
1.39995
1.38491
1.37693
1.37357
1.36919
1.36473
1.36074
1.35435
1.34423
1.33662
1.33266
1.32832
1.32603
1.32504
1.31957
1.32419
1.88995
2.32538
2.38361
2.41527
2.44613
2.47529
2.49993
2.5189
2.53843
2.5629
2.59221
2.61819
2.63749
2.6469
2.65523
2.65964
2.65588
2.64544
2.6238
2.58702
2.53823
2.48446
2.43196
2.03466
2.01803
2.00159
1.98422
1.96629
1.94902
1.9334
1.91607
1.89937
1.88133
1.86519
1.85118
1.83499
1.82089
1.80543
1.79044
1.77593
1.7594
1.74578
1.72953
1.71563
1.70375
1.68863
1.67589
1.661
1.64812
1.63489
1.61881
1.60577
1.59097
1.58003
1.5712
1.56015
1.55196
1.54299
1.53413
1.52423
1.51187
1.50231
1.49093
1.48198
1.47749
1.47033
1.46321
1.45546
1.447
1.43944
1.42847
1.41712
1.40602
1.39449
1.39022
1.38598
1.38038
1.37552
1.36889
1.35792
1.35072
1.34723
1.34418
1.34073
1.33715
1.33374
1.32778
1.31994
1.45359
2.16369
2.33754
2.37875
2.4101
2.43772
2.46163
2.48129
2.50002
2.52256
2.54906
2.57755
2.60591
2.62623
2.64598
2.66104
2.66883
2.66556
2.65118
2.6188
2.57203
2.5158
2.4574
2.02995
2.01467
1.99894
1.98246
1.96535
1.95046
1.9345
1.91827
1.90156
1.88474
1.8711
1.85556
1.84086
1.82619
1.8111
1.79762
1.7813
1.76677
1.75175
1.73585
1.72505
1.71111
1.69798
1.68452
1.67023
1.65814
1.64234
1.62793
1.61467
1.6007
1.59195
1.58095
1.57079
1.56238
1.55212
1.54276
1.53066
1.51956
1.51127
1.50027
1.49475
1.48868
1.48023
1.47277
1.46406
1.45655
1.44709
1.43468
1.42392
1.41246
1.40556
1.40169
1.39617
1.39041
1.38512
1.37575
1.36333
1.35951
1.35706
1.35388
1.3504
1.34755
1.34455
1.3383
1.32277
1.32434
1.81256
2.27354
2.34425
2.37917
2.40544
2.4278
2.44578
2.46094
2.47878
2.50124
2.52909
2.56066
2.5928
2.61947
2.64627
2.66341
2.66319
2.65474
2.63245
2.59655
2.54876
2.49496
2.02464
2.01018
1.99508
1.97877
1.96371
1.94963
1.93403
1.91816
1.90131
1.88819
1.87405
1.85931
1.84564
1.82998
1.81707
1.80181
1.78623
1.77252
1.7555
1.74422
1.73188
1.71811
1.70644
1.69162
1.67969
1.66526
1.64949
1.63675
1.62147
1.61161
1.60164
1.58957
1.58089
1.57042
1.56063
1.54989
1.53731
1.52919
1.51961
1.51162
1.50624
1.4979
1.48982
1.48127
1.4712
1.46279
1.45141
1.44025
1.43184
1.42301
1.41809
1.41243
1.40541
1.39919
1.39108
1.37787
1.37186
1.37019
1.36711
1.36369
1.35915
1.35454
1.35018
1.34398
1.33119
1.31909
1.42193
2.09773
2.30122
2.3479
2.37661
2.39846
2.41456
2.42672
2.44068
2.45835
2.48061
2.50787
2.54075
2.57404
2.60531
2.63035
2.6391
2.63438
2.6216
2.59914
2.56886
2.53038
2.0186
2.00475
1.99013
1.97474
1.96158
1.94758
1.93254
1.91551
1.90122
1.88911
1.87512
1.86213
1.84669
1.83368
1.82038
1.80451
1.79119
1.77476
1.76188
1.75111
1.73724
1.72578
1.7116
1.69891
1.68617
1.66995
1.65687
1.64239
1.63009
1.62123
1.60907
1.59894
1.58898
1.57752
1.56796
1.55562
1.54567
1.53853
1.52963
1.52365
1.51591
1.50645
1.49852
1.4871
1.47772
1.4684
1.45642
1.44755
1.43988
1.43399
1.42889
1.42171
1.41452
1.40741
1.39509
1.38387
1.38224
1.38013
1.37602
1.37263
1.36866
1.36354
1.35568
1.34474
1.33376
1.32399
1.32823
1.71298
2.2165
2.3139
2.34418
2.36705
2.38326
2.39533
2.40854
2.42292
2.43973
2.45997
2.48597
2.51611
2.5466
2.57392
2.59523
2.602
2.5989
2.59097
2.57343
2.55093
2.01318
1.99917
1.98481
1.97147
1.95869
1.94466
1.92976
1.91361
1.90169
1.88895
1.87661
1.86337
1.84941
1.83745
1.82219
1.80796
1.79273
1.77799
1.7685
1.7555
1.7433
1.73081
1.71656
1.70494
1.68967
1.67548
1.66272
1.64801
1.6395
1.62869
1.61667
1.60732
1.5946
1.58443
1.57349
1.56163
1.55498
1.547
1.54039
1.53349
1.52359
1.51486
1.50487
1.49204
1.48323
1.47277
1.46258
1.45565
1.44891
1.44406
1.43746
1.42887
1.42144
1.41216
1.39878
1.39461
1.39346
1.38982
1.38492
1.38053
1.37552
1.36895
1.35985
1.34773
1.33781
1.33147
1.32836
1.39455
2.01826
2.27016
2.31616
2.33963
2.35501
2.36736
2.38072
2.39392
2.4071
2.41937
2.43597
2.45743
2.48258
2.50876
2.53529
2.55748
2.56896
2.5744
2.57036
2.56148
2.00742
1.99337
1.97952
1.968
1.95493
1.94118
1.92569
1.91282
1.9013
1.88864
1.87708
1.86358
1.85222
1.83867
1.82401
1.81042
1.79413
1.78429
1.7731
1.75993
1.74841
1.73325
1.7214
1.7078
1.69249
1.68068
1.66578
1.65615
1.64748
1.63508
1.6255
1.61385
1.60103
1.59075
1.57828
1.5696
1.56247
1.55529
1.54952
1.54056
1.53043
1.52203
1.5088
1.49799
1.4894
1.47875
1.47087
1.46357
1.45772
1.45212
1.44366
1.43498
1.4268
1.41428
1.40646
1.40553
1.40324
1.39858
1.39391
1.38924
1.3825
1.37223
1.36031
1.35052
1.34449
1.34089
1.33489
1.33718
1.6154
2.14898
2.27659
2.30763
2.32862
2.3423
2.35529
2.36795
2.3776
2.38436
2.39353
2.40649
2.4239
2.44522
2.46872
2.49461
2.51852
2.53545
2.54684
2.54825
2.00093
1.98712
1.97461
1.96277
1.94975
1.9357
1.92207
1.91186
1.90003
1.88859
1.87584
1.86462
1.85323
1.83884
1.82587
1.81016
1.7984
1.78905
1.77563
1.76406
1.75015
1.73649
1.72435
1.70901
1.69672
1.68329
1.67077
1.66398
1.65309
1.64213
1.63224
1.61843
1.60764
1.59568
1.58445
1.57792
1.56932
1.56349
1.55616
1.5456
1.53662
1.52564
1.5122
1.5046
1.49544
1.48602
1.47953
1.47212
1.46615
1.45837
1.44835
1.43988
1.42985
1.41893
1.41688
1.41562
1.4116
1.40669
1.40135
1.39556
1.38745
1.37499
1.36303
1.35606
1.35121
1.34862
1.34487
1.33932
1.3729
1.91462
2.21599
2.27706
2.29963
2.31566
2.33043
2.34222
2.34884
2.35237
2.35724
2.36565
2.37877
2.39484
2.41238
2.43217
2.45463
2.47766
2.49627
2.51078
1.99369
1.98099
1.96962
1.95746
1.94502
1.93097
1.9196
1.90938
1.89822
1.88698
1.87452
1.86467
1.85198
1.83918
1.82562
1.81171
1.80338
1.79133
1.77876
1.76634
1.75119
1.7397
1.72539
1.71141
1.69986
1.68508
1.67792
1.66963
1.65773
1.64865
1.63615
1.62384
1.61283
1.60011
1.59257
1.58444
1.57671
1.57059
1.56079
1.55055
1.54148
1.52727
1.51828
1.51132
1.50151
1.49421
1.48711
1.48005
1.4727
1.46249
1.45263
1.44402
1.43247
1.42764
1.42691
1.42403
1.41888
1.4139
1.40783
1.39942
1.38862
1.37615
1.36778
1.36364
1.35953
1.35585
1.35244
1.34581
1.34182
1.5213
2.0684
2.23048
2.26905
2.29107
2.30691
2.3158
2.32047
2.3217
2.32446
2.33263
2.34557
2.35901
2.37086
2.38284
2.39615
2.41252
2.43124
2.44957
1.98523
1.9744
1.96361
1.95167
1.93883
1.92594
1.91697
1.9065
1.89606
1.8836
1.8734
1.86308
1.8507
1.83934
1.82501
1.81549
1.8051
1.7916
1.78005
1.76559
1.75356
1.74143
1.72659
1.71556
1.70137
1.69099
1.68473
1.67348
1.66288
1.65135
1.63764
1.62781
1.61567
1.60564
1.59964
1.59066
1.58438
1.5759
1.56483
1.55579
1.54339
1.53108
1.52558
1.5172
1.50797
1.50143
1.4939
1.48655
1.47678
1.46534
1.45668
1.44706
1.43892
1.4376
1.43585
1.43124
1.42583
1.42031
1.41243
1.40132
1.38928
1.37947
1.37418
1.37094
1.36745
1.36399
1.36053
1.35432
1.34073
1.35108
1.75645
2.15278
2.24034
2.26605
2.28116
2.28776
2.2902
2.29068
2.29369
2.30468
2.31879
2.33198
2.34074
2.34631
2.35042
2.35595
2.36537
2.38036
1.9774
1.96764
1.95694
1.94569
1.93281
1.92275
1.91371
1.9031
1.89126
1.87946
1.87084
1.85955
1.84904
1.83688
1.82569
1.81703
1.80454
1.79267
1.77954
1.7654
1.755
1.7411
1.72899
1.71757
1.70408
1.69831
1.68909
1.67709
1.66671
1.6518
1.64071
1.63043
1.61842
1.6119
1.60363
1.59628
1.58959
1.57891
1.56922
1.55978
1.54574
1.53907
1.53263
1.52269
1.51529
1.50727
1.49934
1.49056
1.47877
1.46853
1.46055
1.45119
1.44815
1.447
1.44314
1.43764
1.43189
1.4247
1.41383
1.40107
1.39137
1.3854
1.38109
1.37805
1.37414
1.37022
1.36596
1.35946
1.34383
1.33966
1.42774
1.96122
2.19389
2.23841
2.2518
2.25806
2.25923
2.26061
2.26627
2.27958
2.29438
2.3082
2.31497
2.31596
2.31402
2.3113
2.31207
2.31866
1.96884
1.95966
1.94998
1.93946
1.92728
1.91837
1.66684
1.22214
1.03155
1.06882
1.14534
1.27686
1.40451
1.49251
1.54567
1.57283
1.59834
1.63694
1.68289
1.7014
1.7002
1.68433
1.68621
1.69742
1.72092
1.73748
1.74436
1.74594
1.74718
1.75419
1.76304
1.77426
1.78306
1.79078
1.79833
1.80551
1.92609
1.6197
1.44749
1.35211
1.30415
1.30505
1.31096
1.32212
1.35428
1.40553
1.45314
1.50259
1.56497
1.61259
1.63818
1.65743
1.67386
1.6892
1.70652
1.71778
1.72827
1.73823
1.7475
1.75583
1.76438
1.77292
1.78123
1.79096
1.80157
1.81191
2.12713
1.86156
1.68603
1.55868
1.46166
1.37142
1.32068
1.29763
1.30318
1.33568
1.38633
1.42223
1.46427
1.51592
1.56435
1.61362
1.6583
1.68392
1.69879
1.70589
1.71235
1.72853
1.74498
1.7605
1.77185
1.78061
1.78591
1.79321
1.80715
1.82247
2.35007
2.0981
1.90433
1.76399
1.65942
1.56064
1.45821
1.41622
1.40255
1.40091
1.39648
1.39996
1.41162
1.45175
1.51856
1.57665
1.63211
1.68279
1.70964
1.72127
1.72584
1.73965
1.75728
1.77759
1.79278
1.8036
1.81214
1.81869
1.83269
1.8521
2.53837
2.33104
2.13885
1.96738
1.85179
1.76843
1.68907
1.59769
1.51863
1.50055
1.4926
1.47714
1.48173
1.49842
1.51767
1.56112
1.62559
1.69153
1.73913
1.76796
1.7813
1.7913
1.80478
1.82351
1.84118
1.85396
1.86566
1.87542
1.88788
1.90771
2.62029
2.47805
2.33797
2.19695
2.0463
1.93623
1.88255
1.81678
1.7316
1.64796
1.63605
1.61994
1.59807
1.60644
1.60798
1.60986
1.62551
1.67532
1.75041
1.81316
1.84569
1.86566
1.88141
1.8983
1.91515
1.92925
1.94007
1.9501
1.96328
1.98097
2.6335
2.5521
2.45154
2.35415
2.24353
2.1257
2.03305
1.97597
1.91378
1.84352
1.8049
1.76956
1.70972
1.69706
1.7061
1.70743
1.70509
1.71284
1.74176
1.80081
1.86684
1.92042
1.94483
1.96518
1.98713
2.00387
2.01255
2.02224
2.03474
2.05039
2.59464
2.54874
2.48747
2.41835
2.34704
2.26379
2.18435
2.11554
2.04106
1.98192
1.95121
1.92153
1.86772
1.80212
1.80183
1.80613
1.79681
1.78388
1.78818
1.80608
1.83698
1.89159
1.95833
2.00352
2.02945
2.04668
2.05722
2.06929
2.08231
2.09733
2.52184
2.50844
2.47473
2.42801
2.37837
2.32136
2.26578
2.21303
2.15474
2.08677
2.04612
2.02425
1.99067
1.93168
1.89034
1.88834
1.87667
1.84466
1.83556
1.8417
1.85797
1.87501
1.90893
1.96105
2.00765
2.04643
2.07101
2.08577
2.10084
2.11851
2.44631
2.4415
2.42887
2.40385
2.37016
2.33062
2.28288
2.24307
2.21058
2.16709