/*--------------------------------*- C++ -*----------------------------------*\
  =========                 |
  \\      /  F ield         | OpenFOAM: The Open Source CFD Toolbox
   \\    /   O peration     | Website:  https://openfoam.org
    \\  /    A nd           | Version:  7
     \\/     M anipulation  |
\*---------------------------------------------------------------------------*/
FoamFile
{
    version     2.0;
    format      ascii;
    class       volScalarField;
    location    "1.2";
    object      T;
}
// * * * * * * * * * * * * * * * * * * * * * * * * * * * * * * * * * * * * * //

dimensions      [0 0 0 1 0 0 0];

internalField   nonuniform List<scalar> 
4128
(
1
1
1
1
1
1
1
1
1
1
1
1
1
1
1
1
1
1
1
1
1
1
1
1
1
1
1
1
1
1
1
1
1
1
1
1
1
1
1
1
1
1
1
1
1
1
1
1
1
1
1
1
1
1
1
1
1
1
1
1
1
1
1
1
1
1
1
1
1
1
1
1
1.66298
2.60801
2.71794
2.72228
2.72908
2.73371
2.73769
2.74178
2.74722
2.75478
2.76398
2.77308
2.78065
2.7864
2.79085
2.79451
2.79751
2.79987
2.80242
2.80664
2.81359
2.82203
2.82933
2.8326
1
1
1
1
1
1
1
1
1
1
1
1
1
1
1
1
1
1
1
1
1
1
1
1
1
1
1
1
1
1
1
1
1
1
1
1
1
1
1
1
1
1
1
1
1
1
1
1
1
1
1
1
1
1
1
1
1
1
1
1
1
1
1
1
1
1
1
1
1
1
1
1
1.64979
2.60278
2.71765
2.72213
2.72886
2.7334
2.73733
2.74144
2.74691
2.75451
2.76368
2.77273
2.78023
2.78592
2.7903
2.79389
2.79682
2.79913
2.80166
2.80588
2.81282
2.82126
2.82852
2.83178
1
1
1
1
1
1
1
1
1
1
1
1
1
1
1
1
1
1
1
1
1
1
1
1
1
1
1
1
1
1
1
1
1
1
1
1
1
1
1
1
1
1
1
1
1
1
1
1
1
1
1
1
1
1
1
1
1
1
1
1
1
1
1
1
1
1
1
1
1
1
1
1
1.61044
2.58947
2.71541
2.72034
2.72749
2.73214
2.73618
2.74042
2.74605
2.75375
2.76295
2.77196
2.77941
2.78505
2.78941
2.79296
2.79584
2.79808
2.80055
2.80476
2.81169
2.82006
2.82722
2.83045
1
1
1
1
1
1
1
1
1
1
1
1
1
1
1
1
1
1
1
1
1
1
1
1
1
1
1
1
1
1
1
1
1
1
1
1
1
1
1
1
1
1
1
1
1
1
1
1
1
1
1
1
1
1
1
1
1
1
1
1
1
1
1
1
1
1
1
1
1
1
1
1
1.55545
2.56965
2.71195
2.7175
2.72518
2.72998
2.73419
2.7386
2.7444
2.75218
2.76135
2.77029
2.7777
2.78337
2.78778
2.79139
2.79426
2.79646
2.79889
2.80314
2.81005
2.81836
2.82538
2.82854
1
1
1
1
1
1
1
1
1
1
1
1
1
1
1
1
1
1
1
1
1
1
1
1
1
1
1
1
1
1
1
1
1
1
1
1
1
1
1
1
1
1
1
1
1
1
1
1
1
1
1
1
1
1
1
1
1
1
1
1
1
1
1
1
1
1
1
1
1
1
1
1
1.48627
2.54441
2.70801
2.71369
2.72175
2.72679
2.73131
2.73602
2.74203
2.74988
2.75897
2.76782
2.77521
2.78097
2.78551
2.78924
2.79215
2.79428
2.79663
2.80085
2.80775
2.81606
2.82299
2.82616
1
1
1
1
1
1
1
1
1
1
1
1
1
1
1
1
1
1
1
1
1
1
1
1
1
1
1
1
1
1
1
1
1
1
1
1
1
1
1
1
1
1
1
1
1
1
1
1
1
1
1
1
1
1
1
1
1
1
1
1
1
1
1
1
1
1
1
1
1
1
1
1
1.401
2.51057
2.70392
2.70957
2.71791
2.72321
2.72803
2.73294
2.73904
2.74683
2.75575
2.76445
2.7718
2.77766
2.7824
2.78634
2.78936
2.79147
2.79373
2.79787
2.80471
2.81303
2.8199
2.82311
1
1
1
1
1
1
1
1
1
1
1
1
1
1
1
1
1
1
1
1
1
1
1
1
1
1
1
1
1
1
1
1
1
1
1
1
1
1
1
1
1
1
1
1
1
1
1
1
1
1
1
1
1
1
1
1
1
1
1
1
1
1
1
1
1
1
1
1
1
1
1
1
1.29647
2.46179
2.69903
2.70488
2.71378
2.7193
2.72433
2.72935
2.73547
2.74315
2.75188
2.7604
2.76767
2.77361
2.77857
2.78279
2.78602
2.78817
2.79033
2.79431
2.80099
2.80924
2.81598
2.81917
1
1
1
1
1
1
1
1
1
1
1
1
1
1
1
1
1
1
1
1
1
1
1
1
1
1
1
1
1
1
1
1
1
1
1
1
1
1
1
1
1
1
1
1
1
1
1
1
1
1
1
1
1
1
1
1
1
1
1
1
1
1
1
1
1
1
1
1
1
1
1
1
1.17625
2.39752
2.6931
2.69964
2.70908
2.71473
2.71994
2.72517
2.73138
2.73899
2.74747
2.7557
2.76271
2.76854
2.7736
2.77808
2.78159
2.78388
2.78598
2.78975
2.79625
2.80448
2.81126
2.81453
1
1
1
1
1
1
1
1
1
1
1
1
1
1
1
1
1
1
1
1
1
1
1
1
1
1
1
1
1
1
1
1
1
1
1
1
1
1
1
1
1
1
1
1
1
1
1
1
1
1
1
1
1
1
1
1
1
1
1
1
1
1
1
1
1
1
1
1
1
1
1
1
1.04818
2.32754
2.69122
2.69675
2.70455
2.71002
2.71516
2.72048
2.72676
2.73429
2.7425
2.7503
2.75692
2.76248
2.76752
2.77226
2.77613
2.77865
2.78068
2.78417
2.79032
2.79836
2.80512
2.8084
1
1
1
1
1
1
1
1
1
1
1
1
1
1
1
1
1
1
1
1
1
1
1
1
1
1
1
1
1
1
1
1
1
1
1
1
1
1
1
1
1
1
1
1
1
1
1
1
1
1
1
1
1
1
1
1
1
1
1
1
1
1
1
1
1
1
1
1
1
1
1
1
1.00126
2.24623
2.68578
2.69222
2.69886
2.70474
2.71012
2.71575
2.72214
2.72945
2.73719
2.74448
2.75056
2.75564
2.76045
2.76527
2.76947
2.77229
2.7743
2.77751
2.78314
2.79069
2.79739
2.80062
1
1
1
1
1
1
1
1
1
1
1
1
1
1
1
1
1
1
1
1
1
1
1
1
1
1
1
1
1
1
1
1
1
1
1
1
1
1
1
1
1
1
1
1
1
1
1
1
1
1
1
1
1
1
1
1
1
1
1
1
1
1
1
1
1
1
1
1
1
1
1
1
1
2.1345
2.67683
2.68973
2.69521
2.70115
2.70672
2.71261
2.71908
2.72607
2.73296
2.73901
2.74401
2.74827
2.75256
2.75722
2.7616
2.76458
2.76631
2.76893
2.77372
2.78081
2.78755
2.79102
1
1
1
1
1
1
1
1
1
1
1
1
1
1
1
1
1
1
1
1
1
1
1
1
1
1
1
1
1
1
1
1
1
1
1
1
1
1
1
1
1
1
1
1
1
1
1
1
1
1
1
1
1
1
1
1
1
1
1
1
1
1
1
1
1
1
1
1
1
1
1
1
1
1.98801
2.65234
2.68339
2.69022
2.69713
2.70345
2.70964
2.7159
2.72208
2.72783
2.73276
2.73666
2.73989
2.74339
2.74766
2.75205
2.75516
2.75672
2.75884
2.76258
2.76861
2.77456
2.77717
1
1
1
1
1
1
1
1
1
1
1
1
1
1
1
1
1
1
1
1
1
1
1
1
1
1
1
1
1
1
1
1
1
1
1
1
1
1
1
1
1
1
1
1
1
1
1
1
1
1
1
1
1
1
1
1
1
1
1
1
1
1
1
1
1
1
1
1
1
1
1
1
1
1.81124
2.60517
2.67037
2.68026
2.69008
2.6985
2.70596
2.71268
2.71854
2.72332
2.7269
2.72938
2.73144
2.7339
2.73741
2.7414
2.74425
2.74518
2.74579
2.74704
2.75158
2.75665
2.75993
1
1
1
1
1
1
1
1
1
1
1
1
1
1
1
1
1
1
1
1
1
1
1
1
1
1
1
1
1
1
1
1
1
1
1
1
1
1
1
1
1
1
1
1
1
1
1
1
1
1
1
1
1
1
1
1
1
1
1
1
1
1
1
1
1
1
1
1
1
1
1
1
1
1.58386
2.51991
2.65034
2.6659
2.67832
2.68874
2.69809
2.70611
2.71256
2.71729
2.72028
2.72187
2.72283
2.72417
2.72661
2.72951
2.73139
2.73108
2.73021
2.72979
2.73206
2.73358
2.73097
1
1
1
1
1
1
1
1
1
1
1
1
1
1
1
1
1
1
1
1
1
1
1
1
1
1
1
1
1
1
1
1
1
1
1
1
1
1
1
1
1
1
1
1
1
1
1
1
1
1
1
1
1
1
1
1
1
1
1
1
1
1
1
1
1
1
1
1
1
1
1
1
1
1.28039
2.40851
2.64175
2.64683
2.66026
2.67341
2.68506
2.69482
2.70266
2.70831
2.71169
2.71316
2.71376
2.71441
2.7154
2.71667
2.71711
2.71533
2.7116
2.7063
2.70076
2.69611
2.69093
1
1
1
1
1
1
1
1
1
1
1
1
1
1
1
1
1
1
1
1
1
1
1
1
1
1
1
1
1
1
1
1
1
1
1
1
1
1
1
1
1
1
1
1
1
1
1
1
1
1
1
1
1
1
1
1
1
1
1
1
1
1
1
1
1
1
1
1
1
1
1
1
1
1.02296
2.30706
2.64646
2.64167
2.64743
2.65604
2.66713
2.678
2.68748
2.69487
2.69969
2.70214
2.7031
2.70303
2.70295
2.70264
2.70114
2.69681
2.68874
2.67768
2.66703
2.66113
2.66749
1
1
1
1
1
1
1
1
1
1
1
1
1
1
1
1
1
1
1
1
1
1
1
1
1
1
1
1
1
1
1
1
1
1
1
1
1
1
1
1
1
1
1
1
1
1
1
1
1
1
1
1
1
1
1
1
1
1
1
1
1
1
1
1
1
1
1
1
1
1
1
1
1
1.00011
2.16085
2.6328
2.63242
2.63605
2.64207
2.65039
2.6598
2.66929
2.67787
2.68422
2.68825
2.69013
2.69014
2.68941
2.68753
2.68389
2.67669
2.66467
2.64639
2.61881
2.56093
2.44238
1
1
1
1
1
1
1
1
1
1
1
1
1
1
1
1
1
1
1
1
1
1
1
1
1
1
1
1
1
1
1
1
1
1
1
1
1
1
1
1
1
1
1
1
1
1
1
1
1
1
1
1
1
1
1
1
1
1
1
1
1
1
1
1
1
1
1
1
1
1
1
1
1
0.999999
1.95129
2.61273
2.63414
2.63756
2.64116
2.64322
2.64723
2.6532
2.66035
2.66651
2.67143
2.67432
2.67482
2.67372
2.67063
2.66495
2.65478
2.6376
2.61014
2.56236
2.4918
2.30417
1
1
1
1
1
1
1
1
1
1
1
1
1
1
1
1
1
1
1
1
1
1
1
1
1
1
1
1
1
1
1
1
1
1
1
1
1
1
1
1
1
1
1
1
1
1
1
1
1
1
1
1
1
1
1
1
1
1
1
1
1
1
1
1
1
1
1
1
1
1
1
1
1
1
1.63994
2.51795
2.62514
2.63339
2.63728
2.63877
2.64034
2.64265
2.64645
2.65
2.65388
2.65663
2.65724
2.65588
2.65193
2.64446
2.63167
2.61006
2.57596
2.52
2.42696
2.23127
1
1
1
1
1
1
1
1
1
1
1
1
1
1
1
1
1
1
1
1
1
1
1
1
1
1
1
1
1
1
1
1
1
1
1
1
1
1
1
1
1
1
1
1
1
1
1
1
1
1
1
1
1
1
1
1
1
1
1
1
1
1
1
1
1
1
1
1
1
1
1
1
1
1
1.23724
2.37581
2.62166
2.62122
2.62616
2.63125
2.6332
2.63414
2.63518
2.63585
2.63724
2.63843
2.63821
2.63625
2.63145
2.62253
2.60764
2.58334
2.54426
2.48559
2.3808
2.20946
1
1
1
1
1
1
1
1
1
1
1
1
1
1
1
1
1
1
1
1
1
1
1
1
1
1
1
1
1
1
1
1
1
1
1
1
1
1
1
1
1
1
1
1
1
1
1
1
1
1
1
1
1
1
1
1
1
1
1
1
1
1
1
1
1
1
1
1
1
1
1
1
1
1
1.01507
2.24558
2.60361
2.60168
2.60876
2.61778
2.62311
2.62535
2.62509
2.62416
2.62309
2.62177
2.61955
2.61577
2.60944
2.59911
2.58268
2.55709
2.51677
2.45806
2.3545
2.21958
1
1
1
1
1
1
1
1
1
1
1
1
1
1
1
1
1
1
1
1
1
1
1
1
1
1
1
1
1
1
1
1
1
1
1
1
1
1
1
1
1
1
1
1
1
1
1
1
1
1
1
1
1
1
1
1
1
1
1
1
1
1
1
1
1
1
1
1
1
1
1
1
1
1
1.00003
2.01581
2.56839
2.59079
2.59959
2.60646
2.61113
2.61454
2.61453
2.61333
2.61089
2.60747
2.60283
2.59654
2.58795
2.57579
2.55798
2.53179
2.49254
2.43535
2.34337
2.23359
1
1
1
1
1
1
1
1
1
1
1
1
1
1
1
1
1
1
1
1
1
1
1
1
1
1
1
1
1
1
1
1
1
1
1
1
1
1
1
1
1
1
1
1
1
1
1
1
1
1
1
1
1
1
1
1
1
1
1
1
1
1
1
1
1
1
1
1
1
1
1
1
1
1
1
1.63628
2.48057
2.57992
2.58804
2.59391
2.59784
2.60116
2.60209
2.60121
2.59867
2.59435
2.58799
2.57932
2.56794
2.55332
2.53381
2.50734
2.46944
2.41612
2.33725
2.24748
1
1
1
1
1
1
1
1
1
1
1
1
1
1
1
1
1
1
1
1
1
1
1
1
1
1
1
1
1
1
1
1
1
1
1
1
1
1
1
1
1
1
1
1
1
1
1
1
1
1
1
1
1
1
1
1
1
1
1
1
1
1
1
1
1
1
1
1
1
1
1
1
1
1
1
1.15029
2.33214
2.58214
2.57657
2.57834
2.58192
2.58505
2.58694
2.5868
2.58512
2.58112
2.57425
2.5643
2.55081
2.53392
2.51233
2.48534
2.44785
2.39903
2.33159
2.25791
1
1
1
1
1
1
1
1
1
1
1
1
1
1
1
1
1
1
1
1
1
1
1
1
1
1
1
1
1
1
1
1
1
1
1
1
1
1
1
1
1
1
1
1
1
1
1
1
1
1
1
1
1
1
1
1
1
1
1
1
1
1
1
1
1
1
1
1
1
1
1
1
1
1
1
1.00561
2.16977
2.552
2.55402
2.56064
2.56554
2.56761
2.56954
2.5702
2.56925
2.56614
2.55989
2.54989
2.53557
2.51715
2.49414
2.46576
2.42849
2.38341
2.32633
2.26406
1
1
1
1
1
1
1
1
1
1
1
1
1
1
1
1
1
1
1
1
1
1
1
1
1
1
1
1
1
1
1
1
1
1
1
1
1
1
1
1
1
1
1
1
1
1
1
1
1
1
1
1
1
1
1
1
1
1
1
1
1
1
1
1
1
1
1
1
1
1
1
1
1
1
1
0.999983
1.81083
2.49267
2.53802
2.54711
2.55218
2.55306
2.5538
2.55368
2.55265
2.54991
2.54443
2.53521
2.52143
2.50282
2.4793
2.44998
2.41357
2.37086
2.32151
2.26739
1
1
1
1
1
1
1
1
1
1
1
1
1
1
1
1
1
1
1
1
1
1
1
1
1
1
1
1
1
1
1
1
1
1
1
1
1
1
1
1
1
1
1
1
1
1
1
1
1
1
1
1
1
1
1
1
1
1
1
1
1
1
1
1
1
1
1
1
1
1
1
1
1
1
1
0.999995
1.28246
2.36026
2.5426
2.53648
2.53673
2.53723
2.53688
2.53598
2.53447
2.53181
2.52705
2.51898
2.50657
2.48911
2.46615
2.43729
2.40195
2.36142
2.31725
2.26747
1
1
1
1
1
1
1
1
1
1
1
1
1
1
1
1
1
1
1
1
1
1
1
1
1
1
1
1
1
1
1
1
1
1
1
1
1
1
1
1
1
1
1
1
1
1
1
1
1
1
1
1
1
1
1
1
1
1
1
1
1
1
1
1
1
1
1
1
1
1
1
1
1
1
1
0.999999
1.01924
2.19428
2.51637
2.5158
2.51942
2.52057
2.52003
2.51879
2.51674
2.51374
2.50903
2.50178
2.49081
2.47513
2.45353
2.42659
2.39309
2.3554
2.31474
2.26875
1
1
1
1
1
1
1
1
1
1
1
1
1
1
1
1
1
1
1
1
1
1
1
1
1
1
1
1
1
1
1
1
1
1
1
1
1
1
1
1
1
1
1
1
1
1
1
1
1
1
1
1
1
1
1
1
1
1
1
1
1
1
1
1
1
1
1
1
1
1
1
1
1
1
1
1
1.00003
1.79566
2.4544
2.50333
2.50571
2.50674
2.50605
2.50401
2.50087
2.49676
2.49128
2.48391
2.4738
2.45978
2.4402
2.41605
2.38528
2.3511
2.31314
2.27037
1
1
1
1
1
1
1
1
1
1
1
1
1
1
1
1
1
1
1
1
1
1
1
1
1
1
1
1
1
1
1
1
1
1
1
1
1
1
1
1
1
1
1
1
1
1
1
1
1
1
1
1
1
1
1
1
1
1
1
1
1
1
1
1
1
1
1
1
1
1
1
1
1
1
1
1
0.999999
1.20443
2.31232
2.50682
2.49548
2.49278
2.4911
2.48851
2.48492
2.48028
2.47423
2.46647
2.45638
2.44356
2.42625
2.4048
2.37748
2.34705
2.31164
2.27283
1
1
1
1
1
1
1
1
1
1
1
1
1
1
1
1
1
1
1
1
1
1
1
1
1
1
1
1
1
1
1
1
1
1
1
1
1
1
1
1
1
1
1
1
1
1
1
1
1
1
1
1
1
1
1
1
1
1
1
1
1
1
1
1
1
1
1
1
1
1
1
1
1
1
1
1
1
1.00954
2.12005
2.47097
2.47254
2.47666
2.47538
2.47307
2.46968
2.46481
2.45825
2.44995
2.43972
2.42708
2.41146
2.3922
2.36844
2.34134
2.30899
2.27419
1
1
1
1
1
1
1
1
1
1
1
1
1
1
1
1
1
1
1
1
1
1
1
1
1
1
1
1
1
1
1
1
1
1
1
1
1
1
1
1
1
1
1
1
1
1
1
1
1
1
1
1
1
1
1
1
1
1
1
1
1
1
1
1
1
1
1
1
1
1
1
1
1
1
1
1
1
0.999995
1.63222
2.37796
2.46007
2.46436
2.46308
2.46065
2.45687
2.45148
2.44422
2.4352
2.42443
2.41164
2.39682
2.37911
2.35812
2.3338
2.30526
2.27392
1
1
1
1
1
1
1
1
1
1
1
1
1
1
1
1
1
1
1
1
1
1
1
1
1
1
1
1
1
1
1
1
1
1
1
1
1
1
1
1
1
1
1
1
1
1
1
1
1
1
1
1
1
1
1
1
1
1
1
1
1
1
1
1
1
1
1
1
1
1
1
1
1
1
1
1
1
0.999996
1.10526
2.2056
2.45461
2.44903
2.44845
2.44657
2.44314
2.4377
2.43017
2.42082
2.40977
2.39705
2.38272
2.36617
2.34712
2.32503
2.29992
2.2718
1
1
1
1
1
1
1
1
1
1
1
1
1
1
1
1
1
1
1
1
1
1
1
1
1
1
1
1
1
1
1
1
1
1
1
1
1
1
1
1
1
1
1
1
1
1
1
1
1
1
1
1
1
1
1
1
1
1
1
1
1
1
1
1
1
1
1
1
1
1
1
1
1
1
1
1
1
0.999999
1.00226
1.85325
2.39017
2.42482
2.42915
2.43071
2.42916
2.42454
2.41714
2.40773
2.39659
2.38397
2.36988
2.35395
2.33602
2.31568
2.29313
2.26769
1
1
1
1
1
1
1
1
1
1
1
1
1
1
1
1
1
1
1
1
1
1
1
1
1
1
1
1
1
1
1
1
1
1
1
1
1
1
1
1
1
1
1
1
1
1
1
1
1
1
1
1
1
1
1
1
1
1
1
1
1
1
1
1
1
1
1
1
1
1
1
1
1
1
1
1
1
1
0.999997
1.22269
2.23065
2.42225
2.41571
2.41651
2.41482
2.41045
2.40365
2.39479
2.38399
2.37156
2.35768
2.34222
2.32509
2.30624
2.28551
2.26235
1
1
1
1
1
1
1
1
1
1
1
1
1
1
1
1
1
1
1
1
1
1
1
1
1
1
1
1
1
1
1
1
1
1
1
1
1
1
1
1
1
1
1
1
1
1
1
1
1
1
1
1
1
1
1
1
1
1
1
1
1
1
1
1
1
1
1
1
1
1
1
1
1
1
1
1
1
1
0.999999
1.01098
1.97167
2.37985
2.39457
2.39656
2.39581
2.39329
2.38843
2.38109
2.37128
2.35938
2.34591
2.33095
2.31458
2.29682
2.27744
2.25605
1
1
1
1
1
1
1
1
1
1
1
1
1
1
1
1
1
1
1
1
1
1
1
1
1
1
1
1
1
1
1
1
1
1
1
1
1
1
1
1
1
1
1
1
1
1
1
1
1
1
1
1
1
1
1
1
1
1
1
1
1
1
1
1
1
1
1
1
1
1
1
1
1
1
1
1
1
1
1
1.00002
1.32987
2.2393
2.39082
2.38395
2.38166
2.3785
2.37372
2.36694
2.35796
2.34687
2.33396
2.31956
2.30394
2.28707
2.26885
2.24902
1
1
1
1
1
1
1
1
1
1
1
1
1
1
1
1
1
1
1
1
1
1
1
1
1
1
1
1
1
1
1
1
1
1
1
1
1
1
1
1
1
1
1
1
1
1
1
1
1
1
1
1
1
1
1
1
1
1
1
1
1
1
1
1
1
1
1
1
1
1
1
1
1
1
1
1
1
1
1
1
1.02487
2.02726
2.35871
2.36754
2.36575
2.36248
2.35784
2.35151
2.3433
2.33318
2.32113
2.30762
2.29294
2.27706
2.25991
2.24146
1
1
1
1
1
1
1
1
1
1
1
1
1
1
1
1
1
1
1
1
1
1
1
1
1
1
1
1
1
1
1
1
1
1
1
1
1
1
1
1
1
1
1
1
1
1
1
1
1
1
1
1
1
1
1
1
1
1
1
1
1
1
1
1
1
1
1
1
1
1
1
1
1
1
1
1
1
1
1
1
1.00011
1.41512
2.23046
2.35872
2.3526
2.3487
2.3437
2.33732
2.3294
2.31994
2.30894
2.29638
2.28243
2.26729
2.25095
2.23354
1
1
1
1
1
1
1
1
1
1
1
1
1
1
1
1
1
1
1
1
1
1
1
1
1
1
1
1
1
1
1
1
1
1
1
1
1
1
1
1
1
1
1
1
1
1
1
1
1
1
1
1
1
1
1
1
1
1
1
1
1
1
1
1
1
1
1
1
1
1
1
1
1
1
1
1
1
1
1
1
1
1.04049
2.02791
2.33648
2.33766
2.33356
2.32871
2.32256
2.31513
2.30626
2.29606
2.28446
2.27145
2.2572
2.24184
2.22547
1
1
1
1
1
1
1
1
1
1
1
1
1
1
1
1
1
1
1
1
1
1
1
1
1
1
1
1
1
1
1
1
1
1
1
1
1
1
1
1
1
1
1
1
1
1
1
1
1
1
1
1
1
1
1
1
1
1
1
1
1
1
1
1
1
1
1
1
1
1
1
1
1
1
1
1
1
1
1
1
1
1.00031
1.42408
2.20642
2.32735
2.31909
2.31491
2.30914
2.30208
2.29366
2.28409
2.27339
2.26137
2.24802
2.23351
2.21795
1.57669
0.982406
0.493174
0.674994
0.847151
0.930295
1.08033
1.18031
1.80712
1.45464
1.19475
1.18252
1.1044
0.99789
0.997555
1.02376
1.90313
1.67222
1.51153
1.38905
1.30931
1.24251
1.14448
1.09971
1.98134
1.81542
1.69271
1.55327
1.44008
1.37673
1.31781
1.27219
2.05524
1.90643
1.78717
1.69055
1.60035
1.49583
1.40883
1.37002
2.10711
1.98695
1.87515
1.77069
1.69
1.61828
1.55356
1.47369
2.14433
2.04084
1.94469
1.85613
1.76887
1.69378
1.63891
1.57976
2.17172
2.08517
2.00232
1.91829
1.84031
1.77298
1.7021
1.6442
2.19011
2.11858
2.04637
1.96714
1.89994
1.83816
1.77096
1.70936
2.20421
2.14347
2.07856
2.0095
1.94958
1.88992
1.82922
1.77764
2.213
2.15988
2.10055
2.04324
1.99016
1.93361
1.87586
1.83023
2.22104
2.17143
2.11822
2.06916
2.01914
1.96537
1.91824
1.87326
2.2269
2.18005
2.13309
2.08845
2.04054
1.99212
1.95006
1.9071
2.23237
2.18884
2.14655
2.10385
2.05793
2.01641
1.9757
1.93325
2.23627
2.19657
2.15771
2.11615
2.07486
2.03647
1.99699
1.95479
2.23913
2.20342
2.1667
2.1276
2.09071
2.05329
2.01412
1.97626
2.2402
2.20785
2.17306
2.1377
2.10344
2.06717
2.02962
1.99684
2.23942
2.20962
2.17776
2.14585
2.11316
2.07853
2.04544
2.01326
2.237
2.20925
2.18046
2.15107
2.11977
2.08835
2.05811
2.02686
2.23277
2.20755
2.18098
2.15331
2.12472
2.09641
2.06717
2.03698
2.22741
2.20451
2.18013
2.15415
2.12821
2.10177
2.07365
2.04537
2.22155
2.2003
2.17775
2.15415
2.12997
2.10462
2.0787
2.0534
2.21513
2.19532
2.17442
2.15307
2.13033
2.10634
2.08292
2.05921
2.20807
2.18971
2.17055
2.15046
2.12922
2.10779
2.08589
2.0629
)
;

boundaryField
{
    inlet
    {
        type            fixedValue;
        value           uniform 1;
    }
    outlet
    {
        type            inletOutlet;
        inletValue      nonuniform 0();
        value           nonuniform 0();
    }
    bottom
    {
        type            zeroGradient;
    }
    top
    {
        type            zeroGradient;
    }
    obstacle
    {
        type            zeroGradient;
    }
    defaultFaces
    {
        type            empty;
    }
    procBoundary0to1
    {
        type            processor;
        value           nonuniform List<scalar> 
24
(
1.3015
1.06465
1.07168
1.23135
1.34607
1.40699
1.51957
1.60011
1.66022
1.72494
1.78458
1.82529
1.86133
1.88947
1.91686
1.94196
1.96276
1.98055
1.99431
2.00754
2.01895
2.02736
2.03419
2.0392
)
;
    }
    procBoundary0to4
    {
        type            processor;
        value           nonuniform List<scalar> 
105
(
1
1
1
1
1
1
1
1
1
1
1
1
1
1
1
1
1
1
1
1
1
1
1
1
1
1
1
1
1
1
1
1
1
1
1
1
1
1
1
1
1
1
1
1
1
1
1
1
1
1
1
1
1
1
1
1
1
1
1
1
1
1
1
1
1
1
1
1
1
1
1
1
1
1
1
1
1
1
1
1
1
1
1.04307
1.99361
2.30609
2.30547
2.3004
2.29478
2.28817
2.28067
2.27211
2.26238
2.25134
2.23896
2.22526
2.21036
2.20125
2.20125
2.18387
2.16591
2.14682
2.1271
2.10745
2.08699
2.06508
)
;
    }
}


// ************************************************************************* //
