/*--------------------------------*- C++ -*----------------------------------*\
  =========                 |
  \\      /  F ield         | OpenFOAM: The Open Source CFD Toolbox
   \\    /   O peration     | Website:  https://openfoam.org
    \\  /    A nd           | Version:  7
     \\/     M anipulation  |
\*---------------------------------------------------------------------------*/
FoamFile
{
    version     2.0;
    format      ascii;
    class       volScalarField;
    location    "3.8";
    object      p;
}
// * * * * * * * * * * * * * * * * * * * * * * * * * * * * * * * * * * * * * //

dimensions      [1 -1 -2 0 0 0 0];

internalField   nonuniform List<scalar> 
16512
(
1
1
1
1
1
1
1
1
1
1
1
1
1
1
1
1
1
1
1
1
1
1
1
1
1
1
1
1
1
1
1
1
1
1
1
1
1
1
1
1
1
1
1
1
1
1
1
1
1
1
1
1
1
1
1
1
1
1
1
1
1
1
1
1
1
1
1
1
1
1
1
1
1
1
1
1
1
1
1
1
1
1
1
1
1
1
1
1
1
1
1
1
1
1
1
1
1
1
1
1
1.00006
1.00357
1.09002
1.6083
2.38717
3.46551
4.00101
3.97489
3.94057
3.9367
3.93155
3.87865
3.83476
3.82495
3.83685
3.81376
3.78752
3.78183
3.78061
3.7527
3.7045
3.6457
3.60719
3.61026
3.61611
3.62475
3.62512
3.60325
3.5726
3.54061
3.49814
3.44644
3.40518
3.37616
3.35992
3.35223
3.36285
3.39188
3.40837
3.40052
3.37773
3.34538
3.30441
3.26115
3.22278
3.18685
3.15106
3.12273
3.11569
3.12039
3.14652
3.18239
3.1913
3.17715
3.15228
3.11556
3.05035
2.97017
2.92517
2.9057
2.89912
2.90045
2.92362
2.96972
2.9929
2.98776
2.96868
2.92977
1
1
1
1
1
1
1
1
1
1
1
1
1
1
1
1
1
1
1
1
1
1
1
1
1
1
1
1
1
1
1
1
1
1
1
1
1
1
1
1
1
1
1
1
1
1
1
1
1
1
1
1
1
1
1
1
1
1
1
1
1
1
1
1
1
1
1
1
1
1
1
1
1
1
1
1
1
1
1
1
1
1
1
1
1
1
1
1
1
1
1
1
1
1
1
1
1
1
1
1
1
1
1
1
1
1
1
1
1
1.00004
1.00243
1.0486
1.28267
2.13201
3.53975
3.8052
3.88523
3.96498
3.9616
3.8786
3.86587
3.88773
3.86949
3.82959
3.82035
3.81887
3.79685
3.75465
3.70379
3.65965
3.64846
3.65169
3.65346
3.6567
3.63807
3.60411
3.57105
3.52968
3.4802
3.43926
3.41274
3.40045
3.39604
3.41181
3.43848
3.44392
3.43332
3.40875
3.3723
3.32617
3.28415
3.25195
3.22239
3.19005
3.16446
3.15954
3.16701
3.19467
3.22052
3.21996
3.20277
3.17715
3.13928
3.07307
2.99712
2.95613
2.93844
2.93301
2.93602
2.96259
3.00803
3.02585
3.01858
2.99774
2.95692
2.8829
1
1
1
1
1
1
1
1
1
1
1
1
1
1
1
1
1
1
1
1
1
1
1
1
1
1
1
1
1
1
1
1
1
1
1
1
1
1
1
1
1
1
1
1
1
1
1
1
1
1
1
1
1
1
1
1
1
1
1
1
1
1
1
1
1
1
1
1
1
1
1
1
1
1
1
1
1
1
1
1
1
1
1
1
1
1
1
1
1
1
1
1
1
1
1
1
1
1
1
1
1
1
1
1
1
1
1
1
1
1
1.00001
1.00074
1.0147
1.17413
2.16313
3.20704
3.68412
3.98304
3.98713
3.96864
3.95062
3.91769
3.87369
3.85283
3.85029
3.83247
3.79217
3.75313
3.72558
3.70398
3.68908
3.68464
3.68329
3.6699
3.63825
3.60418
3.56487
3.51751
3.47582
3.44947
3.43975
3.43903
3.45957
3.48436
3.48204
3.46564
3.43755
3.39657
3.3479
3.31044
3.28174
3.25521
3.22751
3.20695
3.20434
3.2153
3.24077
3.25318
3.24463
3.22517
3.19908
3.16048
3.09613
3.02671
2.98851
2.97244
2.96821
2.97341
3.00403
3.04693
3.0581
3.04841
3.02588
2.98315
2.9073
2.84534
1
1
1
1
1
1
1
1
1
1
1
1
1
1
1
1
1
1
1
1
1
1
1
1
1
1
1
1
1
1
1
1
1
1
1
1
1
1
1
1
1
1
1
1
1
1
1
1
1
1
1
1
1
1
1
1
1
1
1
1
1
1
1
1
1
1
1
1
1
1
1
1
1
1
1
1
1
1
1
1
1
1
1
1
1
1
1
1
1
1
1
1
1
1
1
1
1
1
1
1
1
1
1
1
1
1
1
1
1
1
1
1
1.0002
1.00771
1.1804
1.97217
2.81997
3.68243
3.97367
3.96338
3.93606
3.89778
3.87107
3.88654
3.85551
3.81089
3.78642
3.77446
3.76174
3.73654
3.72524
3.71816
3.7011
3.67311
3.63995
3.60201
3.55689
3.51621
3.48944
3.48064
3.4822
3.50451
3.52681
3.52032
3.49832
3.46644
3.4205
3.369
3.33561
3.30964
3.28543
3.2633
3.24976
3.24996
3.26489
3.2833
3.28185
3.26754
3.24483
3.21754
3.17898
3.12043
3.05991
3.02306
3.00852
3.0055
3.01271
3.04631
3.0848
3.08944
3.07738
3.05334
3.00868
2.93143
2.87149
2.84799
1
1
1
1
1
1
1
1
1
1
1
1
1
1
1
1
1
1
1
1
1
1
1
1
1
1
1
1
1
1
1
1
1
1
1
1
1
1
1
1
1
1
1
1
1
1
1
1
1
1
1
1
1
1
1
1
1
1
1
1
1
1
1
1
1
1
1
1
1
1
1
1
1
1
1
1
1
1
1
1
1
1
1
1
1
1
1
1
1
1
1
1
1
1
1
1
1
1
1
1
1
1
1
1
1
1
1
1
1
1
1
1
1
1.00011
1.00773
1.1376
1.53072
2.52387
3.67976
3.84483
3.89539
3.89456
3.92666
3.89263
3.8462
3.83365
3.82247
3.79594
3.77449
3.76503
3.75378
3.72787
3.70131
3.67569
3.64499
3.60168
3.55978
3.53477
3.52577
3.52782
3.54797
3.56468
3.55543
3.53
3.49515
3.44574
3.39174
3.35832
3.33525
3.31566
3.29984
3.29287
3.29679
3.31496
3.32228
3.31249
3.29037
3.26297
3.23225
3.19429
3.14562
3.09597
3.05981
3.0465
3.04478
3.05473
3.08933
3.1198
3.11914
3.10462
3.07982
3.03404
2.95635
2.8984
2.87561
2.86905
1
1
1
1
1
1
1
1
1
1
1
1
1
1
1
1
1
1
1
1
1
1
1
1
1
1
1
1
1
1
1
1
1
1
1
1
1
1
1
1
1
1
1
1
1
1
1
1
1
1
1
1
1
1
1
1
1
1
1
1
1
1
1
1
1
1
1
1
1
1
1
1
1
1
1
1
1
1
1
1
1
1
1
1
1
1
1
1
1
1
1
1
1
1
1
1
1
1
1
1
1
1
1
1
1
1
1
1
1
1
1
1
1
1
1.00009
1.00401
1.03976
1.31368
2.51963
3.38585
3.74644
3.95391
3.97092
3.93341
3.91189
3.87186
3.82921
3.78979
3.77955
3.78379
3.75306
3.72283
3.70506
3.68456
3.64981
3.60697
3.58335
3.57476
3.57653
3.591
3.59942
3.5877
3.56088
3.52347
3.4699
3.41471
3.38122
3.36055
3.34716
3.33709
3.33592
3.34803
3.36242
3.36204
3.34483
3.31518
3.28153
3.24641
3.21132
3.17393
3.13424
3.09926
3.08684
3.0863
3.09919
3.13203
3.1524
3.14655
3.12965
3.10482
3.05887
2.98249
2.92687
2.90464
2.89813
2.9007
1
1
1
1
1
1
1
1
1
1
1
1
1
1
1
1
1
1
1
1
1
1
1
1
1
1
1
1
1
1
1
1
1
1
1
1
1
1
1
1
1
1
1
1
1
1
1
1
1
1
1
1
1
1
1
1
1
1
1
1
1
1
1
1
1
1
1
1
1
1
1
1
1
1
1
1
1
1
1
1
1
1
1
1
1
1
1
1
1
1
1
1
1
1
1
1
1
1
1
1
1
1
1
1
1
1
1
1
1
1
1
1
1
1
1
1.00002
1.00067
1.01911
1.32483
2.29991
3.08568
3.76602
3.98746
3.97402
3.91509
3.84245
3.79152
3.77566
3.78884
3.77761
3.75057
3.73565
3.719
3.6902
3.6568
3.63762
3.62792
3.62702
3.63205
3.63082
3.61656
3.59074
3.55252
3.49556
3.43907
3.40566
3.38709
3.37866
3.37399
3.38123
3.39979
3.4079
3.40141
3.3781
3.34248
3.302
3.2658
3.23592
3.20637
3.1726
3.14008
3.12887
3.12991
3.14549
3.17238
3.18202
3.17149
3.153
3.12812
3.08291
3.01002
2.95684
2.93511
2.92887
2.93177
2.95999
1
1
1
1
1
1
1
1
1
1
1
1
1
1
1
1
1
1
1
1
1
1
1
1
1
1
1
1
1
1
1
1
1
1
1
1
1
1
1
1
1
1
1
1
1
1
1
1
1
1
1
1
1
1
1
1
1
1
1
1
1
1
1
1
1
1
1
1
1
1
1
1
1
1
1
1
1
1
1
1
1
1
1
1
1
1
1
1
1
1
1
1
1
1
1
1
1
1
1
1
1
1
1
1
1
1
1
1
1
1
1
1
1
1
1
1
1
1.0004
1.02029
1.25448
1.8139
2.83609
3.83898
3.88946
3.87093
3.85238
3.80609
3.78465
3.79174
3.78435
3.77503
3.7567
3.72529
3.70232
3.6974
3.68371
3.6678
3.66081
3.65273
3.6359
3.61483
3.58151
3.52673
3.46988
3.43406
3.41619
3.41092
3.41119
3.4264
3.45081
3.45336
3.44038
3.41112
3.37085
3.32493
3.28952
3.26294
3.23713
3.2084
3.18103
3.17204
3.17505
3.19197
3.20941
3.20832
3.19416
3.17411
3.1493
3.10639
3.03865
2.98772
2.96664
2.96112
2.96444
2.99312
3.02985
1
1
1
1
1
1
1
1
1
1
1
1
1
1
1
1
1
1
1
1
1
1
1
1
1
1
1
1
1
1
1
1
1
1
1
1
1
1
1
1
1
1
1
1
1
1
1
1
1
1
1
1
1
1
1
1
1
1
1
1
1
1
1
1
1
1
1
1
1
1
1
1
1
1
1
1
1
1
1
1
1
1
1
1
1
1
1
1
1
1
1
1
1
1
1
1
1
1
1
1
1
1
1
1
1
1
1
1
1
1
1
1
1
1
1
1
1
1
1.00033
1.01081
1.09192
1.51189
2.80673
3.55993
3.78421
3.86117
3.82631
3.82163
3.82931
3.83517
3.81271
3.76547
3.74472
3.74607
3.73427
3.69906
3.68528
3.67911
3.66429
3.63817
3.60755
3.56116
3.50915
3.47001
3.45046
3.44623
3.44945
3.47142
3.49696
3.49501
3.47626
3.44513
3.4022
3.35033
3.31304
3.28785
3.26439
3.24068
3.22167
3.21586
3.22156
3.23666
3.24107
3.23244
3.21489
3.19346
3.16902
3.12963
3.06845
3.01986
2.99901
2.99439
2.99805
3.02674
3.06115
3.06197
1
1
1
1
1
1
1
1
1
1
1
1
1
1
1
1
1
1
1
1
1
1
1
1
1
1
1
1
1
1
1
1
1
1
1
1
1
1
1
1
1
1
1
1
1
1
1
1
1
1
1
1
1
1
1
1
1
1
1
1
1
1
1
1
1
1
1
1
1
1
1
1
1
1
1
1
1
1
1
1
1
1
1
1
1
1
1
1
1
1
1
1
1
1
1
1
1
1
1
1
1
1
1
1
1
1
1
1
1
1
1
1
1
1
1
1
1
1
1
1.00008
1.0022
1.04328
1.44191
2.59361
3.36568
3.70173
3.85641
3.89809
3.89334
3.85133
3.79618
3.78062
3.7889
3.78682
3.7345
3.70102
3.69663
3.68806
3.66582
3.63342
3.59275
3.55154
3.51456
3.49463
3.49049
3.49419
3.51476
3.53549
3.5288
3.50614
3.47612
3.43469
3.38045
3.33825
3.31253
3.29192
3.27404
3.26288
3.26084
3.271
3.27751
3.27123
3.25468
3.2333
3.21154
3.18778
3.15283
3.09974
3.05352
3.03234
3.02873
3.03259
3.06065
3.09249
3.09191
3.07566
1
1
1
1
1
1
1
1
1
1
1
1
1
1
1
1
1
1
1
1
1
1
1
1
1
1
1
1
1
1
1
1
1
1
1
1
1
1
1
1
1
1
1
1
1
1
1
1
1
1
1
1
1
1
1
1
1
1
1
1
1
1
1
1
1
1
1
1
1
1
1
1
1
1
1
1
1
1
1
1
1
1
1
1
1
1
1
1
1
1
1
1
1
1
1
1
1
1
1
1
1
1
1
1
1
1
1
1
1
1
1
1
1
1
1
1
1
1
1
1
1.00001
1.00105
1.03389
1.39157
2.28947
3.02457
3.71437
3.94277
3.91302
3.82327
3.79935
3.81146
3.83467
3.78674
3.72184
3.71168
3.71102
3.69139
3.65779
3.62328
3.5902
3.56023
3.54669
3.5443
3.54915
3.55977
3.56556
3.55625
3.53196
3.50208
3.46264
3.41174
3.36782
3.34027
3.32374
3.31143
3.30514
3.31119
3.31931
3.31714
3.30198
3.27731
3.2528
3.23009
3.20725
3.17698
3.13228
3.08843
3.06631
3.0632
3.06764
3.09482
3.12396
3.12227
3.10498
3.07193
1
1
1
1
1
1
1
1
1
1
1
1
1
1
1
1
1
1
1
1
1
1
1
1
1
1
1
1
1
1
1
1
1
1
1
1
1
1
1
1
1
1
1
1
1
1
1
1
1
1
1
1
1
1
1
1
1
1
1
1
1
1
1
1
1
1
1
1
1
1
1
1
1
1
1
1
1
1
1
1
1
1
1
1
1
1
1
1
1
1
1
1
1
1
1
1
1
1
1
1
1
1
1
1
1
1
1
1
1
1
1
1
1
1
1
1
1
1
1
1
1
1.00001
1.0008
1.02558
1.22884
1.78083
2.84443
3.83735
3.84258
3.79216
3.82027
3.85793
3.84243
3.75412
3.72716
3.73198
3.72136
3.68781
3.65738
3.63197
3.60687
3.59648
3.59896
3.60523
3.59923
3.59072
3.5808
3.55767
3.52506
3.48636
3.44096
3.4003
3.37196
3.35934
3.35122
3.35205
3.36278
3.36421
3.35487
3.3324
3.30307
3.27534
3.25139
3.22949
3.20358
3.16624
3.12479
3.10103
3.09804
3.10273
3.12855
3.155
3.1525
3.13466
3.10059
3.03896
1
1
1
1
1
1
1
1
1
1
1
1
1
1
1
1
1
1
1
1
1
1
1
1
1
1
1
1
1
1
1
1
1
1
1
1
1
1
1
1
1
1
1
1
1
1
1
1
1
1
1
1
1
1
1
1
1
1
1
1
1
1
1
1
1
1
1
1
1
1
1
1
1
1
1
1
1
1
1
1
1
1
1
1
1
1
1
1
1
1
1
1
1
1
1
1
1
1
1
1
1
1
1
1
1
1
1
1
1
1
1
1
1
1
1
1
1
1
1
1
1
1
1
1.00035
1.00829
1.09101
1.54981
2.79321
3.56578
3.70516
3.81516
3.87008
3.82728
3.76315
3.75999
3.76225
3.72502
3.69122
3.67665
3.665
3.64064
3.63681
3.64362
3.63309
3.6121
3.60276
3.58597
3.55217
3.51144
3.47026
3.43371
3.40635
3.39674
3.39327
3.39995
3.41077
3.40494
3.38946
3.36292
3.33091
3.30007
3.2751
3.25353
3.23142
3.20054
3.16191
3.1364
3.13303
3.13758
3.16168
3.18556
3.18233
3.16411
3.12943
3.06749
3.00749
1
1
1
1
1
1
1
1
1
1
1
1
1
1
1
1
1
1
1
1
1
1
1
1
1
1
1
1
1
1
1
1
1
1
1
1
1
1
1
1
1
1
1
1
1
1
1
1
1
1
1
1
1
1
1
1
1
1
1
1
1
1
1
1
1
1
1
1
1
1
1
1
1
1
1
1
1
1
1
1
1
1
1
1
1
1
1
1
1
1
1
1
1
1
1
1
1
1
1
1
1
1
1
1
1
1
1
1
1
1
1
1
1
1
1
1
1
1
1
1
1
1
1
1
1.00006
1.00247
1.04978
1.43152
2.55742
3.34212
3.68414
3.83346
3.83683
3.81268
3.79074
3.75515
3.72964
3.71872
3.72508
3.69007
3.6663
3.66932
3.66951
3.64414
3.62172
3.613
3.58649
3.5458
3.50564
3.469
3.44289
3.43688
3.43623
3.44542
3.4529
3.44126
3.42061
3.39251
3.35898
3.32697
3.30132
3.28006
3.26016
3.23424
3.19923
3.17205
3.16786
3.17202
3.19438
3.21553
3.21154
3.19309
3.15788
3.09613
3.03749
3.01292
1
1
1
1
1
1
1
1
1
1
1
1
1
1
1
1
1
1
1
1
1
1
1
1
1
1
1
1
1
1
1
1
1
1
1
1
1
1
1
1
1
1
1
1
1
1
1
1
1
1
1
1
1
1
1
1
1
1
1
1
1
1
1
1
1
1
1
1
1
1
1
1
1
1
1
1
1
1
1
1
1
1
1
1
1
1
1
1
1
1
1
1
1
1
1
1
1
1
1
1
1
1
1
1
1
1
1
1
1
1
1
1
1
1
1
1
1
1
1
1
1
1
1
1
1
1.00002
1.00118
1.03239
1.36005
2.28427
3.0583
3.66326
3.85516
3.8308
3.76189
3.75681
3.77102
3.78542
3.74054
3.68924
3.68623
3.70086
3.68894
3.65036
3.63109
3.61888
3.58435
3.5467
3.51118
3.48192
3.47956
3.47973
3.4864
3.49023
3.4747
3.44991
3.42028
3.38668
3.35588
3.33006
3.30933
3.29066
3.26759
3.23481
3.20744
3.20226
3.20622
3.22693
3.24511
3.24035
3.22175
3.18606
3.12451
3.06784
3.04412
3.03967
1
1
1
1
1
1
1
1
1
1
1
1
1
1
1
1
1
1
1
1
1
1
1
1
1
1
1
1
1
1
1
1
1
1
1
1
1
1
1
1
1
1
1
1
1
1
1
1
1
1
1
1
1
1
1
1
1
1
1
1
1
1
1
1
1
1
1
1
1
1
1
1
1
1
1
1
1
1
1
1
1
1
1
1
1
1
1
1
1
1
1
1
1
1
1
1
1
1
1
1
1
1
1
1
1
1
1
1
1
1
1
1
1
1
1
1
1
1
1
1
1
1
1
1
1
1
1.00001
1.00074
1.02272
1.23471
1.8158
2.78434
3.74074
3.79261
3.73566
3.77383
3.80519
3.81265
3.73163
3.7047
3.71967
3.71866
3.68405
3.65563
3.64762
3.62911
3.58757
3.55385
3.52768
3.52252
3.52343
3.52283
3.52217
3.50545
3.47849
3.44832
3.41501
3.38535
3.36057
3.34133
3.32431
3.30255
3.27096
3.24278
3.23658
3.24056
3.25938
3.2746
3.26909
3.2503
3.21442
3.15383
3.09871
3.07566
3.07186
3.07676
1
1
1
1
1
1
1
1
1
1
1
1
1
1
1
1
1
1
1
1
1
1
1
1
1
1
1
1
1
1
1
1
1
1
1
1
1
1
1
1
1
1
1
1
1
1
1
1
1
1
1
1
1
1
1
1
1
1
1
1
1
1
1
1
1
1
1
1
1
1
1
1
1
1
1
1
1
1
1
1
1
1
1
1
1
1
1
1
1
1
1
1
1
1
1
1
1
1
1
1
1
1
1
1
1
1
1
1
1
1
1
1
1
1
1
1
1
1
1
1
1
1
1
1
1
1
1
1
1.00033
1.00896
1.09637
1.51405
2.72423
3.50535
3.63481
3.75638
3.83193
3.80328
3.7452
3.74957
3.7518
3.71082
3.68331
3.67565
3.67468
3.63912
3.59708
3.57783
3.57267
3.56252
3.55507
3.54967
3.53172
3.50484
3.47854
3.44883
3.41793
3.39171
3.3741
3.35911
3.33855
3.30823
3.28002
3.27282
3.27604
3.29152
3.30364
3.29747
3.27864
3.243
3.18393
3.13073
3.10824
3.10496
3.11072
3.13349
1
1
1
1
1
1
1
1
1
1
1
1
1
1
1
1
1
1
1
1
1
1
1
1
1
1
1
1
1
1
1
1
1
1
1
1
1
1
1
1
1
1
1
1
1
1
1
1
1
1
1
1
1
1
1
1
1
1
1
1
1
1
1
1
1
1
1
1
1
1
1
1
1
1
1
1
1
1
1
1
1
1
1
1
1
1
1
1
1
1
1
1
1
1
1
1
1
1
1
1
1
1
1
1
1
1
1
1
1
1
1
1
1
1
1
1
1
1
1
1
1
1
1
1
1
1
1
1
1
1.00006
1.00258
1.04426
1.40042
2.51251
3.25218
3.62788
3.81926
3.81331
3.79233
3.76655
3.72743
3.70779
3.70294
3.71294
3.67594
3.63708
3.62582
3.62881
3.60784
3.58673
3.57576
3.55839
3.53134
3.50708
3.4831
3.45552
3.42698
3.40882
3.39415
3.37376
3.3452
3.31872
3.31054
3.31318
3.32529
3.33281
3.32587
3.30665
3.27048
3.2139
3.16355
3.14151
3.13872
3.14511
3.16602
3.17532
1
1
1
1
1
1
1
1
1
1
1
1
1
1
1
1
1
1
1
1
1
1
1
1
1
1
1
1
1
1
1
1
1
1
1
1
1
1
1
1
1
1
1
1
1
1
1
1
1
1
1
1
1
1
1
1
1
1
1
1
1
1
1
1
1
1
1
1
1
1
1
1
1
1
1
1
1
1
1
1
1
1
1
1
1
1
1
1
1
1
1
1
1
1
1
1
1
1
1
1
1
1
1
1
1
1
1
1
1
1
1
1
1
1
1
1
1
1
1
1
1
1
1
1
1
1
1
1
1
1
1.00002
1.00104
1.02801
1.36267
2.21997
2.98345
3.66027
3.81488
3.78043
3.748
3.7384
3.72514
3.7369
3.69922
3.66553
3.65906
3.66591
3.64579
3.62445
3.61291
3.59458
3.56242
3.53574
3.51322
3.49174
3.4675
3.44775
3.43055
3.40842
3.38063
3.35662
3.34846
3.35018
3.35999
3.3633
3.35543
3.33492
3.29793
3.24386
3.19659
3.17517
3.17274
3.17961
3.19865
3.20466
3.19297
1
1
1
1
1
1
1
1
1
1
1
1
1
1
1
1
1
1
1
1
1
1
1
1
1
1
1
1
1
1
1
1
1
1
1
1
1
1
1
1
1
1
1
1
1
1
1
1
1
1
1
1
1
1
1
1
1
1
1
1
1
1
1
1
1
1
1
1
1
1
1
1
1
1
1
1
1
1
1
1
1
1
1
1
1
1
1
1
1
1
1
1
1
1
1
1
1
1
1
1
1
1
1
1
1
1
1
1
1
1
1
1
1
1
1
1
1
1
1
1
1
1
1
1
1
1
1
1
1
1
1
1.00001
1.00065
1.02383
1.23157
1.73161
2.81849
3.6399
3.68588
3.73125
3.74546
3.76945
3.73059
3.69979
3.70271
3.70793
3.6774
3.66039
3.65391
3.63944
3.60218
3.56852
3.54407
3.52516
3.50572
3.48922
3.46948
3.44365
3.41573
3.39443
3.38707
3.38767
3.39356
3.39248
3.38339
3.36215
3.32638
3.27568
3.23051
3.20956
3.20734
3.21423
3.23062
3.23356
3.22064
3.19465
1
1
1
1
1
1
1
1
1
1
1
1
1
1
1
1
1
1
1
1
1
1
1
1
1
1
1
1
1
1
1
1
1
1
1
1
1
1
1
1
1
1
1
1
1
1
1
1
1
1
1
1
1
1
1
1
1
1
1
1
1
1
1
1
1
1
1
1
1
1
1
1
1
1
1
1
1
1
1
1
1
1
1
1
1
1
1
1
1
1
1
1
1
1
1
1
1
1
1
1
1
1
1
1
1
1
1
1
1
1
1
1
1
1
1
1
1
1
1
1
1
1
1
1
1
1
1
1
1
1
1
1
1
1.00035
1.00935
1.0799
1.50627
2.71147
3.33237
3.62628
3.79796
3.80666
3.77498
3.77303
3.75681
3.71837
3.68961
3.68099
3.67516
3.63581
3.60489
3.58207
3.5645
3.54417
3.52461
3.50722
3.48125
3.45204
3.43129
3.42625
3.42756
3.42744
3.42013
3.40777
3.38687
3.35368
3.30777
3.26564
3.24541
3.2434
3.24998
3.26298
3.26277
3.24879
3.22129
3.17861
1
1
1
1
1
1
1
1
1
1
1
1
1
1
1
1
1
1
1
1
1
1
1
1
1
1
1
1
1
1
1
1
1
1
1
1
1
1
1
1
1
1
1
1
1
1
1
1
1
1
1
1
1
1
1
1
1
1
1
1
1
1
1
1
1
1
1
1
1
1
1
1
1
1
1
1
1
1
1
1
1
1
1
1
1
1
1
1
1
1
1
1
1
1
1
1
1
1
1
1
1
1
1
1
1
1
1
1
1
1
1
1
1
1
1
1
1
1
1
1
1
1
1
1
1
1
1
1
1
1
1
1
1
1
1.00006
1.00215
1.04039
1.45611
2.40651
3.09054
3.65803
3.80852
3.8103
3.77602
3.73813
3.69739
3.68673
3.69675
3.65819
3.63501
3.62356
3.60893
3.58535
3.56691
3.54809
3.52138
3.49277
3.46891
3.46077
3.46381
3.46218
3.45002
3.43334
3.41231
3.38072
3.33947
3.30035
3.28135
3.27993
3.28685
3.29592
3.29255
3.27728
3.24794
3.2049
3.15998
1
1
1
1
1
1
1
1
1
1
1
1
1
1
1
1
1
1
1
1
1
1
1
1
1
1
1
1
1
1
1
1
1
1
1
1
1
1
1
1
1
1
1
1
1
1
1
1
1
1
1
1
1
1
1
1
1
1
1
1
1
1
1
1
1
1
1
1
1
1
1
1
1
1
1
1
1
1
1
1
1
1
1
1
1
1
1
1
1
1
1
1
1
1
1
1
1
1
1
1
1
1
1
1
1
1
1
1
1
1
1
1
1
1
1
1
1
1
1
1
1
1
1
1
1
1
1
1
1
1
1
1
1
1
1
1.00002
1.00101
1.03616
1.34235
1.90414
2.89271
3.67047
3.75027
3.75093
3.72274
3.69743
3.70436
3.68512
3.66902
3.66699
3.65121
3.62299
3.61069
3.60011
3.56915
3.53418
3.51515
3.50284
3.49523
3.49016
3.47889
3.4613
3.43977
3.40995
3.37215
3.33545
3.31684
3.31603
3.32303
3.3277
3.32188
3.30506
3.27427
3.23171
3.19093
3.16669
1
1
1
1
1
1
1
1
1
1
1
1
1
1
1
1
1
1
1
1
1
1
1
1
1
1
1
1
1
1
1
1
1
1
1
1
1
1
1
1
1
1
1
1
1
1
1
1
1
1
1
1
1
1
1
1
1
1
1
1
1
1
1
1
1
1
1
1
1
1
1
1
1
1
1
1
1
1
1
1
1
1
1
1
1
1
1
1
1
1
1
1
1
1
1
1
1
1
1
1
1
1
1
1
1
1
1
1
1
1
1
1
1
1
1
1
1
1
1
1
1
1
1
1
1
1
1
1
1
1
1
1
1
1
1
1
1.00001
1.00077
1.01966
1.12362
1.58367
2.86034
3.431
3.65288
3.75144
3.75952
3.74821
3.73941
3.7217
3.69349
3.65366
3.63057
3.63145
3.60744
3.57047
3.55982
3.55522
3.53239
3.51304
3.50323
3.48792
3.4662
3.43944
3.40615
3.3718
3.3534
3.35267
3.3578
3.35774
3.34991
3.33084
3.29955
3.2593
3.22283
3.20136
3.19628
1
1
1
1
1
1
1
1
1
1
1
1
1
1
1
1
1
1
1
1
1
1
1
1
1
1
1
1
1
1
1
1
1
1
1
1
1
1
1
1
1
1
1
1
1
1
1
1
1
1
1
1
1
1
1
1
1
1
1
1
1
1
1
1
1
1
1
1
1
1
1
1
1
1
1
1
1
1
1
1
1
1
1
1
1
1
1
1
1
1
1
1
1
1
1
1
1
1
1
1
1
1
1
1
1
1
1
1
1
1
1
1
1
1
1
1
1
1
1
1
1
1
1
1
1
1
1
1
1
1
1
1
1
1
1
1
1
1
1.00019
1.00388
1.05454
1.55264
2.59611
3.20866
3.63086
3.79351
3.80219
3.75439
3.7062
3.66779
3.64079
3.63901
3.63048
3.60233
3.59066
3.58316
3.5617
3.54188
3.53046
3.51648
3.49212
3.46697
3.43908
3.40737
3.391
3.39269
3.39383
3.38675
3.37437
3.35419
3.32368
3.28696
3.25498
3.23679
3.23283
3.23661
1
1
1
1
1
1
1
1
1
1
1
1
1
1
1
1
1
1
1
1
1
1
1
1
1
1
1
1
1
1
1
1
1
1
1
1
1
1
1
1
1
1
1
1
1
1
1
1
1
1
1
1
1
1
1
1
1
1
1
1
1
1
1
1
1
1
1
1
1
1
1
1
1
1
1
1
1
1
1
1
1
1
1
1
1
1
1
1
1
1
1
1
1
1
1
1
1
1
1
1
1
1
1
1
1
1
1
1
1
1
1
1
1
1
1
1
1
1
1
1
1
1
1
1
1
1
1
1
1
1
1
1
1
1
1
1
1
1
1
1.00003
1.00163
1.05007
1.45108
2.10653
2.97323
3.7128
3.76792
3.72771
3.70288
3.66229
3.63683
3.63641
3.6324
3.62388
3.61475
3.59295
3.57073
3.56226
3.55604
3.52794
3.4974
3.47339
3.4447
3.42461
3.42549
3.42674
3.41748
3.40172
3.38056
3.34943
3.3151
3.28642
3.27223
3.26977
3.27469
3.2819
1
1
1
1
1
1
1
1
1
1
1
1
1
1
1
1
1
1
1
1
1
1
1
1
1
1
1
1
1
1
1
1
1
1
1
1
1
1
1
1
1
1
1
1
1
1
1
1
1
1
1
1
1
1
1
1
1
1
1
1
1
1
1
1
1
1
1
1
1
1
1
1
1
1
1
1
1
1
1
1
1
1
1
1
1
1
1
1
1
1
1
1
1
1
1
1
1
1
1
1
1
1
1
1
1
1
1
1
1
1
1
1
1
1
1
1
1
1
1
1
1
1
1
1
1
1
1
1
1
1
1
1
1
1
1
1
1
1
1
1
1.00002
1.0013
1.03177
1.19106
1.70034
2.99234
3.50041
3.64337
3.71568
3.69239
3.66449
3.66598
3.67249
3.66938
3.63489
3.59587
3.58224
3.58713
3.56532
3.52841
3.51012
3.49576
3.46709
3.45559
3.45317
3.44426
3.42743
3.40596
3.37754
3.34649
3.31908
3.30738
3.30686
3.31215
3.31369
3.3053
1
1
1
1
1
1
1
1
1
1
1
1
1
1
1
1
1
1
1
1
1
1
1
1
1
1
1
1
1
1
1
1
1
1
1
1
1
1
1
1
1
1
1
1
1
1
1
1
1
1
1
1
1
1
1
1
1
1
1
1
1
1
1
1
1
1
1
1
1
1
1
1
1
1
1
1
1
1
1
1
1
1
1
1
1
1
1
1
1
1
1
1
1
1
1
1
1
1
1
1
1
1
1
1
1
1
1
1
1
1
1
1
1
1
1
1
1
1
1
1
1
1
1
1
1
1
1
1
1
1
1
1
1
1
1
1
1
1
1
1
1
1.00001
1.00042
1.0074
1.0783
1.61348
2.73493
3.31653
3.60002
3.72913
3.73967
3.73493
3.70707
3.65964
3.61171
3.59083
3.60669
3.59309
3.55629
3.54556
3.54529
3.52068
3.48911
3.48025
3.47271
3.45367
3.43094
3.40589
3.3765
3.35017
3.34174
3.34407
3.34843
3.34377
3.33294
3.31341
1
1
1
1
1
1
1
1
1
1
1
1
1
1
1
1
1
1
1
1
1
1
1
1
1
1
1
1
1
1
1
1
1
1
1
1
1
1
1
1
1
1
1
1
1
1
1
1
1
1
1
1
1
1
1
1
1
1
1
1
1
1
1
1
1
1
1
1
1
1
1
1
1
1
1
1
1
1
1
1
1
1
1
1
1
1
1
1
1
1
1
1
1
1
1
1
1
1
1
1
1
1
1
1
1
1
1
1
1
1
1
1
1
1
1
1
1
1
1
1
1
1
1
1
1
1
1
1
1
1
1
1
1
1
1
1
1
1
1
1
1
1
1
1.00006
1.00255
1.05797
1.53932
2.40106
3.03614
3.61507
3.77881
3.75434
3.68585
3.63197
3.60829
3.62079
3.61477
3.58093
3.5744
3.57579
3.55152
3.5215
3.50883
3.50633
3.4869
3.45754
3.43518
3.41038
3.38235
3.37504
3.3795
3.38312
3.37419
3.35995
3.33754
3.30779
1
1
1
1
1
1
1
1
1
1
1
1
1
1
1
1
1
1
1
1
1
1
1
1
1
1
1
1
1
1
1
1
1
1
1
1
1
1
1
1
1
1
1
1
1
1
1
1
1
1
1
1
1
1
1
1
1
1
1
1
1
1
1
1
1
1
1
1
1
1
1
1
1
1
1
1
1
1
1
1
1
1
1
1
1
1
1
1
1
1
1
1
1
1
1
1
1
1
1
1
1
1
1
1
1
1
1
1
1
1
1
1
1
1
1
1
1
1
1
1
1
1
1
1
1
1
1
1
1
1
1
1
1
1
1
1
1
1
1
1
1
1
1
1
1.00003
1.00179
1.04775
1.32179
1.85857
2.91633
3.68244
3.66153
3.64601
3.65092
3.6495
3.62766
3.59888
3.59598
3.60911
3.5882
3.54646
3.53055
3.53507
3.52342
3.48675
3.46402
3.44935
3.4244
3.4079
3.41003
3.4138
3.40367
3.38545
3.36155
3.33216
3.29668
1
1
1
1
1
1
1
1
1
1
1
1
1
1
1
1
1
1
1
1
1
1
1
1
1
1
1
1
1
1
1
1
1
1
1
1
1
1
1
1
1
1
1
1
1
1
1
1
1
1
1
1
1
1
1
1
1
1
1
1
1
1
1
1
1
1
1
1
1
1
1
1
1
1
1
1
1
1
1
1
1
1
1
1
1
1
1
1
1
1
1
1
1
1
1
1
1
1
1
1
1
1
1
1
1
1
1
1
1
1
1
1
1
1
1
1
1
1
1
1
1
1
1
1
1
1
1
1
1
1
1
1
1
1
1
1
1
1
1
1
1
1
1
1
1
1.00002
1.00095
1.01616
1.11805
1.62941
2.86993
3.37978
3.56321
3.68192
3.69583
3.63538
3.62087
3.64178
3.62636
3.57279
3.55139
3.55682
3.55407
3.51506
3.49361
3.4915
3.47888
3.44631
3.43797
3.43894
3.43099
3.41154
3.38837
3.35968
3.32656
3.29742
1
1
1
1
1
1
1
1
1
1
1
1
1
1
1
1
1
1
1
1
1
1
1
1
1
1
1
1
1
1
1
1
1
1
1
1
1
1
1
1
1
1
1
1
1
1
1
1
1
1
1
1
1
1
1
1
1
1
1
1
1
1
1
1
1
1
1
1
1
1
1
1
1
1
1
1
1
1
1
1
1
1
1
1
1
1
1
1
1
1
1
1
1
1
1
1
1
1
1
1
1
1
1
1
1
1
1
1
1
1
1
1
1
1
1
1
1
1
1
1
1
1
1
1
1
1
1
1
1
1
1
1
1
1
1
1
1
1
1
1
1
1
1
1
1
1
1
1.00015
1.0041
1.06498
1.53739
2.60156
3.19774
3.54271
3.68793
3.69589
3.68711
3.65761
3.60147
3.57591
3.5737
3.57926
3.54105
3.52434
3.52601
3.52252
3.49147
3.46835
3.46501
3.45911
3.43696
3.41414
3.38916
3.35915
3.33056
3.31806
1
1
1
1
1
1
1
1
1
1
1
1
1
1
1
1
1
1
1
1
1
1
1
1
1
1
1
1
1
1
1
1
1
1
1
1
1
1
1
1
1
1
1
1
1
1
1
1
1
1
1
1
1
1
1
1
1
1
1
1
1
1
1
1
1
1
1
1
1
1
1
1
1
1
1
1
1
1
1
1
1
1
1
1
1
1
1
1
1
1
1
1
1
1
1
1
1
1
1
1
1
1
1
1
1
1
1
1
1
1
1
1
1
1
1
1
1
1
1
1
1
1
1
1
1
1
1
1
1
1
1
1
1
1
1
1
1
1
1
1
1
1
1
1
1
1
1
1
1.00004
1.002
1.04895
1.45293
2.2112
2.89728
3.56753
3.72886
3.69187
3.61909
3.6092
3.60758
3.59591
3.56384
3.5487
3.55296
3.56014
3.52908
3.49872
3.49146
3.49097
3.46846
3.44106
3.41921
3.39292
3.36402
3.35296
3.35358
1
1
1
1
1
1
1
1
1
1
1
1
1
1
1
1
1
1
1
1
1
1
1
1
1
1
1
1
1
1
1
1
1
1
1
1
1
1
1
1
1
1
1
1
1
1
1
1
1
1
1
1
1
1
1
1
1
1
1
1
1
1
1
1
1
1
1
1
1
1
1
1
1
1
1
1
1
1
1
1
1
1
1
1
1
1
1
1
1
1
1
1
1
1
1
1
1
1
1
1
1
1
1
1
1
1
1
1
1
1
1
1
1
1
1
1
1
1
1
1
1
1
1
1
1
1
1
1
1
1
1
1
1
1
1
1
1
1
1
1
1
1
1
1
1
1
1
1
1
1.00002
1.00139
1.0336
1.23199
1.70786
2.76669
3.60173
3.57389
3.58679
3.63829
3.65179
3.59057
3.5696
3.57699
3.59746
3.56363
3.52394
3.51274
3.51913
3.49856
3.46579
3.45069
3.43638
3.40561
3.38598
3.38569
3.38801
1
1
1
1
1
1
1
1
1
1
1
1
1
1
1
1
1
1
1
1
1
1
1
1
1
1
1
1
1
1
1
1
1
1
1
1
1
1
1
1
1
1
1
1
1
1
1
1
1
1
1
1
1
1
1
1
1
1
1
1
1
1
1
1
1
1
1
1
1
1
1
1
1
1
1
1
1
1
1
1
1
1
1
1
1
1
1
1
1
1
1
1
1
1
1
1
1
1
1
1
1
1
1
1
1
1
1
1
1
1
1
1
1
1
1
1
1
1
1
1
1
1
1
1
1
1
1
1
1
1
1
1
1
1
1
1
1
1
1
1
1
1
1
1
1
1
1
1
1
1
1.00001
1.00051
1.00931
1.08271
1.51566
2.67911
3.27075
3.49894
3.65329
3.67122
3.61744
3.61105
3.62962
3.59263
3.54332
3.52814
3.54239
3.52381
3.48721
3.47725
3.47718
3.45557
3.42188
3.41467
3.41502
3.40239
1
1
1
1
1
1
1
1
1
1
1
1
1
1
1
1
1
1
1
1
1
1
1
1
1
1
1
1
1
1
1
1
1
1
1
1
1
1
1
1
1
1
1
1
1
1
1
1
1
1
1
1
1
1
1
1
1
1
1
1
1
1
1
1
1
1
1
1
1
1
1
1
1
1
1
1
1
1
1
1
1
1
1
1
1
1
1
1
1
1
1
1
1
1
1
1
1
1
1
1
1
1
1
1
1
1
1
1
1
1
1
1
1
1
1
1
1
1
1
1
1
1
1
1
1
1
1
1
1
1
1
1
1
1
1
1
1
1
1
1
1
1
1
1
1
1
1
1
1
1
1
1
1.00007
1.00254
1.04668
1.42835
2.41431
3.05993
3.47992
3.65164
3.68091
3.65634
3.60936
3.56502
3.54725
3.56145
3.54727
3.50804
3.49951
3.50392
3.4885
3.45844
3.44402
3.44457
3.43507
3.40843
1
1
1
1
1
1
1
1
1
1
1
1
1
1
1
1
1
1
1
1
1
1
1
1
1
1
1
1
1
1
1
1
1
1
1
1
1
1
1
1
1
1
1
1
1
1
1
1
1
1
1
1
1
1
1
1
1
1
1
1
1
1
1
1
1
1
1
1
1
1
1
1
1
1
1
1
1
1
1
1
1
1
1
1
1
1
1
1
1
1
1
1
1
1
1
1
1
1
1
1
1
1
1
1
1
1
1
1
1
1
1
1
1
1
1
1
1
1
1
1
1
1
1
1
1
1
1
1
1
1
1
1
1
1
1
1
1
1
1
1
1
1
1
1
1
1
1
1
1
1
1
1
1
1.00002
1.00128
1.03406
1.34618
2.00261
2.71855
3.50607
3.6828
3.62911
3.57711
3.57778
3.58511
3.56066
3.52841
3.5216
3.53404
3.52475
3.4873
3.47
3.47248
3.4704
3.44137
3.41504
1
1
1
1
1
1
1
1
1
1
1
1
1
1
1
1
1
1
1
1
1
1
1
1
1
1
1
1
1
1
1
1
1
1
1
1
1
1
1
1
1
1
1
1
1
1
1
1
1
1
1
1
1
1
1
1
1
1
1
1
1
1
1
1
1
1
1
1
1
1
1
1
1
1
1
1
1
1
1
1
1
1
1
1
1
1
1
1
1
1
1
1
1
1
1
1
1
1
1
1
1
1
1
1
1
1
1
1
1
1
1
1
1
1
1
1
1
1
1
1
1
1
1
1
1
1
1
1
1
1
1
1
1
1
1
1
1
1
1
1
1
1
1
1
1
1
1
1
1
1
1
1
1
1
1.00001
1.00081
1.02087
1.15573
1.54468
2.60498
3.45523
3.49294
3.54306
3.61804
3.61541
3.55709
3.54744
3.57005
3.56767
3.51885
3.495
3.4943
3.49696
3.46619
3.44495
3.43565
1
1
1
1
1
1
1
1
1
1
1
1
1
1
1
1
1
1
1
1
1
1
1
1
1
1
1
1
1
1
1
1
1
1
1
1
1
1
1
1
1
1
1
1
1
1
1
1
1
1
1
1
1
1
1
1
1
1
1
1
1
1
1
1
1
1
1
1
1
1
1
1
1
1
1
1
1
1
1
1
1
1
1
1
1
1
1
1
1
1
1
1
1
1
1
1
1
1
1
1
1
1
1
1
1
1
1
1
1
1
1
1
1
1
1
1
1
1
1
1
1
1
1
1
1
1
1
1
1
1
1
1
1
1
1
1
1
1
1
1
1
1
1
1
1
1
1
1
1
1
1
1
1
1
1
1
1.00024
1.00492
1.05268
1.39806
2.44424
3.11968
3.4353
3.6136
3.63416
3.61037
3.604
3.59264
3.54495
3.51702
3.51223
3.51946
3.48486
3.46874
3.47144
3.46322
1
1
1
1
1
1
1
1
1
1
1
1
1
1
1
1
1
1
1
1
1
1
1
1
1
1
1
1
1
1
1
1
1
1
1
1
1
1
1
1
1
1
1
1
1
1
1
1
1
1
1
1
1
1
1
1
1
1
1
1
1
1
1
1
1
1
1
1
1
1
1
1
1
1
1
1
1
1
1
1
1
1
1
1
1
1
1
1
1
1
1
1
1
1
1
1
1
1
1
1
1
1
1
1
1
1
1
1
1
1
1
1
1
1
1
1
1
1
1
1
1
1
1
1
1
1
1
1
1
1
1
1
1
1
1
1
1
1
1
1
1
1
1
1
1
1
1
1
1
1
1
1
1
1
1
1
1
1.00003
1.00139
1.02942
1.3277
2.1853
2.8442
3.39943
3.61967
3.64345
3.61191
3.56133
3.53971
3.53086
3.54264
3.5064
3.48865
3.49155
3.48738
3.46301
1
1
1
1
1
1
1
1
1
1
1
1
1
1
1
1
1
1
1
1
1
1
1
1
1
1
1
1
1
1
1
1
1
1
1
1
1
1
1
1
1
1
1
1
1
1
1
1
1
1
1
1
1
1
1
1
1
1
1
1
1
1
1
1
1
1
1
1
1
1
1
1
1
1
1
1
1
1
1
1
1
1
1
1
1
1
1
1
1
1
1
1
1
1
1
1
1
1
1
1
1
1
1
1
1
1
1
1
1
1
1
1
1
1
1
1
1
1
1
1
1
1
1
1
1
1
1
1
1
1
1
1
1
1
1
1
1
1
1
1
1
1
1
1
1
1
1
1
1
1
1
1
1
1
1
1
1
1
1.00001
1.0007
1.02247
1.24038
1.72515
2.49583
3.43967
3.59506
3.55465
3.56272
3.5621
3.55661
3.53453
3.51788
3.52622
3.52944
3.49405
3.47287
1
1
1
1
1
1
1
1
1
1
1
1
1
1
1
1
1
1
1
1
1
1
1
1
1
1
1
1
1
1
1
1
1
1
1
1
1
1
1
1
1
1
1
1
1
1
1
1
1
1
1
1
1
1
1
1
1
1
1
1
1
1
1
1
1
1
1
1
1
1
1
1
1
1
1
1
1
1
1
1
1
1
1
1
1
1
1
1
1
1
1
1
1
1
1
1
1
1
1
1
1
1
1
1
1
1
1
1
1
1
1
1
1
1
1
1
1
1
1
1
1
1
1
1
1
1
1
1
1
1
1
1
1
1
1
1
1
1
1
1
1
1
1
1
1
1
1
1
1
1
1
1
1
1
1
1
1
1
1
1.00001
1.00042
1.01072
1.08362
1.38238
2.42574
3.22021
3.41471
3.55133
3.62523
3.59494
3.56547
3.57138
3.57607
3.53795
3.49837
3.48451
1
1
1
1
1
1
1
1
1
1
1
1
1
1
1
1
1
1
1
1
1
1
1
1
1
1
1
1
1
1
1
1
1
1
1
1
1
1
1
1
1
1
1
1
1
1
1
1
1
1
1
1
1
1
1
1
1
1
1
1
1
1
1
1
1
1
1
1
1
1
1
1
1
1
1
1
1
1
1
1
1
1
1
1
1
1
1
1
1
1
1
1
1
1
1
1
1
1
1
1
1
1
1
1
1
1
1
1
1
1
1
1
1
1
1
1
1
1
1
1
1
1
1
1
1
1
1
1
1
1
1
1
1
1
1
1
1
1
1
1
1
1
1
1
1
1
1
1
1
1
1
1
1
1
1
1
1
1
1
1
1
1.00008
1.00203
1.02966
1.29476
2.20803
2.92171
3.35392
3.60109
3.63516
3.62913
3.6005
3.55519
3.51147
3.49251
3.50379
1
1
1
1
1
1
1
1
1
1
1
1
1
1
1
1
1
1
1
1
1
1
1
1
1
1
1
1
1
1
1
1
1
1
1
1
1
1
1
1
1
1
1
1
1
1
1
1
1
1
1
1
1
1
1
1
1
1
1
1
1
1
1
1
1
1
1
1
1
1
1
1
1
1
1
1
1
1
1
1
1
1
1
1
1
1
1
1
1
1
1
1
1
1
1
1
1
1
1
1
1
1
1
1
1
1
1
1
1
1
1
1
1
1
1
1
1
1
1
1
1
1
1
1
1
1
1
1
1
1
1
1
1
1
1
1
1
1
1
1
1
1
1
1
1
1
1
1
1
1
1
1
1
1
1
1
1
1
1
1
1
1
1.00001
1.00067
1.01837
1.24754
1.89269
2.53628
3.34745
3.60589
3.61792
3.57455
3.53785
3.51253
3.50374
3.4991
1
1
1
1
1
1
1
1
1
1
1
1
1
1
1
1
1
1
1
1
1
1
1
1
1
1
1
1
1
1
1
1
1
1
1
1
1
1
1
1
1
1
1
1
1
1
1
1
1
1
1
1
1
1
1
1
1
1
1
1
1
1
1
1
1
1
1
1
1
1
1
1
1
1
1
1
1
1
1
1
1
1
1
1
1
1
1
1
1
1
1
1
1
1
1
1
1
1
1
1
1
1
1
1
1
1
1
1
1
1
1
1
1
1
1
1
1
1
1
1
1
1
1
1
1
1
1
1
1
1
1
1
1
1
1
1
1
1
1
1
1
1
1
1
1
1
1
1
1
1
1
1
1
1
1
1
1
1
1
1
1
1
1
1
1.00039
1.0135
1.12889
1.44133
2.30509
3.30973
3.46033
3.53527
3.56108
3.53963
3.53305
3.52274
1
1
1
1
1
1
1
1
1
1
1
1
1
1
1
1
1
1
1
1
1
1
1
1
1
1
1
1
1
1
1
1
1
1
1
1
1
1
1
1
1
1
1
1
1
1
1
1
1
1
1
1
1
1
1
1
1
1
1
1
1
1
1
1
1
1
1
1
1
1
1
1
1
1
1
1
1
1
1
1
1
1
1
1
1
1
1
1
1
1
1
1
1
1
1
1
1
1
1
1
1
1
1
1
1
1
1
1
1
1
1
1
1
1
1
1
1
1
1
1
1
1
1
1
1
1
1
1
1
1
1
1
1
1
1
1
1
1
1
1
1
1
1
1
1
1
1
1
1
1
1
1
1
1
1
1
1
1
1
1
1
1
1
1
1
1.00016
1.00361
1.03557
1.26488
2.17313
2.98587
3.3482
3.54032
3.60113
3.59251
3.57649
1
1
1
1
1
1
1
1
1
1
1
1
1
1
1
1
1
1
1
1
1
1
1
1
1
1
1
1
1
1
1
1
1
1
1
1
1
1
1
1
1
1
1
1
1
1
1
1
1
1
1
1
1
1
1
1
1
1
1
1
1
1
1
1
1
1
1
1
1
1
1
1
1
1
1
1
1
1
1
1
1
1
1
1
1
1
1
1
1
1
1
1
1
1
1
1
1
1
1
1
1
1
1
1
1
1
1
1
1
1
1
1
1
1
1
1
1
1
1
1
1
1
1
1
1
1
1
1
1
1
1
1
1
1
1
1
1
1
1
1
1
1
1
1
1
1
1
1
1
1
1
1
1
1
1
1
1
1
1
1
1
1
1
1
1
1
1.00002
1.00069
1.01614
1.20893
1.95142
2.63833
3.23287
3.57001
3.60924
3.57186
1
1
1
1
1
1
1
1
1
1
1
1
1
1
1
1
1
1
1
1
1
1
1
1
1
1
1
1
1
1
1
1
1
1
1
1
1
1
1
1
1
1
1
1
1
1
1
1
1
1
1
1
1
1
1
1
1
1
1
1
1
1
1
1
1
1
1
1
1
1
1
1
1
1
1
1
1
1
1
1
1
1
1
1
1
1
1
1
1
1
1
1
1
1
1
1
1
1
1
1
1
1
1
1
1
1
1
1
1
1
1
1
1
1
1
1
1
1
1
1
1
1
1
1
1
1
1
1
1
1
1
1
1
1
1
1
1
1
1
1
1
1
1
1
1
1
1
1
1
1
1
1
1
1
1
1
1
1
1
1
1
1
1
1
1
1
1
1
1.00031
1.01135
1.14878
1.54663
2.22448
3.26643
3.52239
3.50231
1
1
1
1
1
1
1
1
1
1
1
1
1
1
1
1
1
1
1
1
1
1
1
1
1
1
1
1
1
1
1
1
1
1
1
1
1
1
1
1
1
1
1
1
1
1
1
1
1
1
1
1
1
1
1
1
1
1
1
1
1
1
1
1
1
1
1
1
1
1
1
1
1
1
1
1
1
1
1
1
1
1
1
1
1
1
1
1
1
1
1
1
1
1
1
1
1
1
1
1
1
1
1
1
1
1
1
1
1
1
1
1
1
1
1
1
1
1
1
1
1
1
1
1
1
1
1
1
1
1
1
1
1
1
1
1
1
1
1
1
1
1
1
1
1
1
1
1
1
1
1
1
1
1
1
1
1
1
1
1
1
1
1
1
1
1
1
1
1
1.00017
1.00497
1.04915
1.26246
2.08321
3.048
3.32868
1
1
1
1
1
1
1
1
1
1
1
1
1
1
1
1
1
1
1
1
1
1
1
1
1
1
1
1
1
1
1
1
1
1
1
1
1
1
1
1
1
1
1
1
1
1
1
1
1
1
1
1
1
1
1
1
1
1
1
1
1
1
1
1
1
1
1
1
1
1
1
1
1
1
1
1
1
1
1
1
1
1
1
1
1
1
1
1
1
1
1
1
1
1
1
1
1
1
1
1
1
1
1
1
1
1
1
1
1
1
1
1
1
1
1
1
1
1
1
1
1
1
1
1
1
1
1
1
1
1
1
1
1
1
1
1
1
1
1
1
1
1
1
1
1
1
1
1
1
1
1
1
1
1
1
1
1
1
1
1
1
1
1
1
1
1
1
1
1
1
1.00003
1.0009
1.01638
1.16962
1.8852
2.74297
1
1
1
1
1
1
1
1
1
1
1
1
1
1
1
1
1
1
1
1
1
1
1
1
1
1
1
1
1
1
1
1
1
1
1
1
1
1
1
1
1
1
1
1
1
1
1
1
1
1
1
1
1
1
1
1
1
1
1
1
1
1
1
1
1
1
1
1
1
1
1
1
1
1
1
1
1
1
1
1
1
1
1
1
1
1
1
1
1
1
1
1
1
1
1
1
1
1
1
1
1
1
1
1
1
1
1
1
1
1
1
1
1
1
1
1
1
1
1
1
1
1
1
1
1
1
1
1
1
1
1
1
1
1
1
1
1
1
1
1
1
1
1
1
1
1
1
1
1
1
1
1
1
1
1
1
1
1
1
1
1
1
1
1
1
1
1
1
1
1
1
1
1.00027
1.00807
1.12834
1.66144
1
1
1
1
1
1
1
1
1
1
1
1
1
1
1
1
1
1
1
1
1
1
1
1
1
1
1
1
1
1
1
1
1
1
1
1
1
1
1
1
1
1
1
1
1
1
1
1
1
1
1
1
1
1
1
1
1
1
1
1
1
1
1
1
1
1
1
1
1
1
1
1
1
1
1
1
1
1
1
1
1
1
1
1
1
1
1
1
1
1
1
1
1
1
1
1
1
1
1
1
1
1
1
1
1
1
1
1
1
1
1
1
1
1
1
1
1
1
1
1
1
1
1
1
1
1
1
1
1
1
1
1
1
1
1
1
1
1
1
1
1
1
1
1
1
1
1
1
1
1
1
1
1
1
1
1
1
1
1
1
1
1