/*--------------------------------*- C++ -*----------------------------------*\
  =========                 |
  \\      /  F ield         | OpenFOAM: The Open Source CFD Toolbox
   \\    /   O peration     | Website:  https://openfoam.org
    \\  /    A nd           | Version:  7
     \\/     M anipulation  |
\*---------------------------------------------------------------------------*/
FoamFile
{
    version     2.0;
    format      ascii;
    class       volVectorField;
    location    "0.2";
    object      U;
}
// * * * * * * * * * * * * * * * * * * * * * * * * * * * * * * * * * * * * * //

dimensions      [0 1 -1 0 0 0 0];

internalField   nonuniform List<vector> 
16192
(
(3 -7.45745e-17 0)
(3 -2.31474e-15 0)
(3 -1.879e-15 0)
(3 -2.2227e-15 0)
(3 -2.35257e-15 0)
(3 -2.20076e-15 0)
(3 -1.31448e-15 0)
(3 -4.89739e-17 0)
(3 2.58211e-16 0)
(3 -1.54957e-16 0)
(3 2.04621e-15 0)
(3 3.94008e-15 0)
(3 4.04321e-15 0)
(3 2.59549e-15 0)
(3 1.02004e-15 0)
(3 1.80086e-15 0)
(3 2.60033e-15 0)
(3 2.73622e-15 0)
(3 1.40958e-15 0)
(3 6.85345e-16 0)
(3 5.95246e-16 0)
(3 -1.29547e-15 0)
(3 -1.33521e-15 0)
(3 -2.07217e-15 0)
(3 -1.55194e-15 0)
(3 -9.91735e-16 0)
(3 -2.97184e-16 0)
(3 -7.56661e-17 0)
(3 -3.17331e-16 0)
(3 -2.10082e-16 0)
(3 1.58861e-16 0)
(3 1.34815e-15 0)
(3 8.82098e-16 0)
(3 3.53458e-16 0)
(3 1.71016e-15 0)
(3 1.89227e-15 0)
(3 1.96844e-15 0)
(3 2.24875e-15 0)
(3 2.18454e-15 0)
(3 1.20667e-15 0)
(3 2.41447e-15 0)
(3 8.24872e-16 0)
(3 -4.85e-16 0)
(3 7.12631e-16 0)
(3 1.23668e-15 0)
(3 1.04772e-15 0)
(3 1.26415e-15 0)
(3 -5.6669e-16 0)
(3 -3.0549e-16 0)
(3 4.43945e-16 0)
(3 -1.56346e-15 0)
(3 -1.59572e-15 0)
(3 -7.77365e-16 0)
(3 5.03933e-16 0)
(3 1.82474e-15 0)
(3 2.35902e-15 0)
(3 1.84525e-15 0)
(3 3.37254e-15 0)
(3 4.71255e-15 0)
(3 3.06797e-15 0)
(3 1.58757e-15 0)
(3 1.33726e-15 0)
(3 8.14549e-16 0)
(3 2.54502e-15 0)
(3 2.69897e-15 0)
(3 2.42785e-15 0)
(3 2.95276e-16 0)
(3 -1.06266e-15 0)
(3 -8.25416e-16 0)
(3 -6.19002e-16 0)
(3 -6.2178e-16 0)
(3 2.9369e-16 0)
(3 1.31138e-15 0)
(3 2.17992e-15 0)
(3 3.31147e-15 0)
(3 3.43781e-15 0)
(3 3.73194e-15 0)
(3 3.58497e-15 0)
(3 3.2098e-15 0)
(3 2.74766e-15 0)
(3 2.36747e-15 0)
(3 2.40036e-15 0)
(3 1.92856e-15 0)
(3 1.51465e-15 0)
(3 4.98549e-16 0)
(3 -8.42581e-18 0)
(3 -1.58388e-15 0)
(3 -1.71463e-15 0)
(3 -2.38562e-15 0)
(3 -2.19136e-15 0)
(3 -7.58304e-16 0)
(3 -2.79487e-16 0)
(3 5.5161e-17 0)
(3 5.80489e-16 0)
(3 1.70428e-15 0)
(3 3.1116e-15 0)
(3 4.7328e-15 0)
(3 3.73507e-15 0)
(3 2.01214e-15 0)
(3 2.56687e-15 0)
(3 3.37795e-15 0)
(3 3.51166e-15 0)
(3 2.94484e-15 0)
(3 8.86465e-16 0)
(3 3.02147e-16 0)
(3 -1.75293e-15 0)
(3 -1.72692e-15 0)
(3 -2.75482e-15 0)
(3 -4.80097e-15 0)
(3 -3.53732e-15 0)
(3 -2.18788e-15 0)
(3 -1.91711e-15 0)
(3 -1.38249e-15 0)
(3 -8.61991e-16 0)
(3 4.89465e-16 0)
(3 3.18816e-15 0)
(3 2.76666e-15 0)
(3 2.48624e-15 0)
(3 2.22675e-15 0)
(3 2.01517e-15 0)
(3 2.07633e-15 0)
(3 2.05739e-15 0)
(3 1.9851e-15 0)
(3 1.09713e-15 0)
(3 1.12988e-15 0)
(3 4.72096e-18 0)
(3 -1.69822e-15 0)
(3 -3.16894e-15 0)
(3 -4.11362e-15 0)
(3 -3.66347e-15 0)
(3 -1.54079e-15 0)
(3 -1.96398e-15 0)
(3 -2.77131e-15 0)
(3 -1.00742e-15 0)
(3 1.21442e-15 0)
(3 2.39681e-15 0)
(3 9.37862e-16 0)
(3 9.87278e-16 0)
(3 2.64421e-15 0)
(3 2.65874e-15 0)
(3 1.37343e-15 0)
(3 1.67719e-15 0)
(3 2.90043e-15 0)
(3 3.80087e-15 0)
(3 3.35605e-15 0)
(3 1.41692e-15 0)
(3 5.83186e-18 0)
(3 -1.56459e-15 0)
(3 -3.33143e-15 0)
(3 -3.35335e-15 0)
(3 -1.06435e-15 0)
(3 -1.3889e-16 0)
(3 2.21249e-16 0)
(3 1.02343e-15 0)
(3 2.56074e-15 0)
(3 2.35244e-15 0)
(3 1.82726e-15 0)
(3 1.7033e-15 0)
(3 1.72763e-15 0)
(3 2.79287e-15 0)
(3 2.69012e-15 0)
(3 3.51064e-15 0)
(3 5.38517e-15 0)
(3 5.00129e-15 0)
(3 4.18499e-15 0)
(3 2.59464e-15 0)
(3 1.17338e-15 0)
(3 2.87094e-16 0)
(3 -1.29816e-15 0)
(3 -1.02078e-15 0)
(3 -5.82804e-16 0)
(3 4.78571e-16 0)
(3 3.26595e-15 0)
(3 3.21239e-15 0)
(3 4.0978e-15 0)
(3 3.57078e-15 0)
(3 3.97528e-15 0)
(3 2.8909e-15 0)
(3 2.11845e-15 0)
(3 2.97246e-15 0)
(3 3.52264e-15 0)
(3 4.84364e-15 0)
(3 4.85234e-15 0)
(3 4.25964e-15 0)
(3 4.11124e-15 0)
(3 3.55163e-15 0)
(3 1.4848e-15 0)
(3 2.64948e-16 0)
(3 7.9079e-16 0)
(3 -1.49324e-16 0)
(3 -5.28958e-16 0)
(3 -7.55142e-16 0)
(3 1.1668e-15 0)
(3 2.69354e-15 0)
(3 3.79399e-15 0)
(3 3.60005e-15 0)
(3 3.42876e-15 0)
(3 3.1149e-15 0)
(3 3.44443e-15 0)
(3 2.68108e-15 0)
(3 2.70094e-15 0)
(3 3.61037e-15 0)
(3 4.18568e-15 0)
(3 4.32037e-15 0)
(3 4.62638e-15 0)
(3 3.66701e-15 0)
(3 1.18882e-15 0)
(3 3.91609e-16 0)
(3 1.61903e-15 0)
(3 1.0881e-15 0)
(3 -1.74289e-16 0)
(3 -5.91148e-16 0)
(3 4.93119e-16 0)
(3 2.64161e-15 0)
(3 2.80929e-15 0)
(3 2.36181e-15 0)
(3 2.20472e-15 0)
(3 2.59395e-15 0)
(3 2.74952e-15 0)
(3 2.91638e-15 0)
(3 1.84286e-15 0)
(3 2.77276e-15 0)
(3 3.22783e-15 0)
(3 3.34122e-15 0)
(3 3.37695e-15 0)
(3 3.09394e-15 0)
(3 2.61695e-15 0)
(3 7.7871e-16 0)
(3 8.90991e-16 0)
(3 9.88406e-16 0)
(3 8.692e-16 0)
(3 9.62865e-16 0)
(3 1.84586e-15 0)
(3 2.95474e-15 0)
(3 1.54375e-15 0)
(3 1.14234e-15 0)
(3 9.23328e-16 0)
(3 1.97067e-15 0)
(3 2.412e-15 0)
(3 3.4e-15 0)
(3 2.50775e-15 0)
(3 2.95724e-15 0)
(3 1.99333e-15 0)
(3 2.11176e-15 0)
(3 2.9246e-15 0)
(3 3.40117e-15 0)
(3 4.66189e-15 0)
(3 2.28053e-15 0)
(3 1.84792e-15 0)
(3 1.34078e-15 0)
(3 1.57975e-15 0)
(3 1.80446e-15 0)
(3 1.53899e-15 0)
(3 1.32645e-15 0)
(3 1.42207e-16 0)
(3 -2.71487e-16 0)
(3 -1.23059e-15 0)
(3 -8.30445e-16 0)
(3 9.55879e-16 0)
(3 1.19753e-15 0)
(3 3.49879e-15 0)
(3 3.6109e-15 0)
(3 3.0825e-15 0)
(3 2.94099e-15 0)
(3 2.96826e-15 0)
(3 3.18263e-15 0)
(3 3.26392e-15 0)
(3 3.20262e-15 0)
(3 2.22637e-15 0)
(3 1.79708e-15 0)
(3 9.61234e-16 0)
(3 5.78834e-16 0)
(3 -2.12488e-15 0)
(3 -3.35379e-15 0)
(3 -2.66531e-15 0)
(3 -1.46367e-15 0)
(3 -3.99393e-16 0)
(3 -2.17296e-15 0)
(3 -1.97671e-15 0)
(3 -7.91112e-16 0)
(3 1.55578e-15 0)
(3 1.85977e-15 0)
(3 2.71733e-15 0)
(3 3.05232e-15 0)
(3 1.79221e-15 0)
(3 2.08076e-15 0)
(3 2.19349e-15 0)
(3 2.95607e-15 0)
(3 1.33829e-15 0)
(3 1.24025e-15 0)
(3 1.7543e-15 0)
(3 1.10695e-15 0)
(3 -1.09724e-16 0)
(3 -1.99629e-15 0)
(3 -2.28245e-15 0)
(3 -1.72854e-15 0)
(3 5.56526e-18 0)
(3 -6.0264e-16 0)
(3 -1.87313e-15 0)
(3 -1.2779e-15 0)
(3 -1.47589e-15 0)
(3 -1.59353e-15 0)
(3 -4.8551e-16 0)
(3 4.61239e-16 0)
(3 1.14292e-15 0)
(3 1.80643e-15 0)
(3 2.775e-15 0)
(3 2.33878e-15 0)
(3 1.98158e-15 0)
(3 1.05688e-15 0)
(3 -6.0675e-16 0)
(3 -4.29828e-16 0)
(3 -5.77942e-17 0)
(3 4.78094e-16 0)
(3 -1.45627e-15 0)
(3 -5.14662e-16 0)
(3 7.65351e-16 0)
(3 9.37266e-16 0)
(3 5.14468e-16 0)
(3 -1.41272e-16 0)
(3 -1.72021e-15 0)
(3 -3.84448e-15 0)
(3 -3.74447e-15 0)
(3 -3.11827e-15 0)
(3 -9.40285e-16 0)
(3 8.2904e-16 0)
(3 1.29014e-15 0)
(3 5.33683e-16 0)
(3 -1.06671e-15 0)
(3 -1.28034e-15 0)
(3 -1.29997e-15 0)
(3 -1.12677e-15 0)
(3 -2.49926e-17 0)
(3 9.12219e-16 0)
(3 1.19541e-16 0)
(3 6.3872e-16 0)
(3 9.00846e-16 0)
(3 9.36653e-16 0)
(3 1.71117e-15 0)
(3 1.45703e-15 0)
(3 1.24104e-15 0)
(3 -7.59152e-16 0)
(3 -3.95012e-15 0)
(3 -3.45086e-15 0)
(3 -2.08223e-15 0)
(3 2.28032e-16 0)
(3 -4.67309e-16 0)
(3 -1.00215e-15 0)
(3 -2.09971e-15 0)
(3 -1.22057e-15 0)
(3 -1.25449e-15 0)
(3 -1.27404e-15 0)
(3 8.8209e-16 0)
(3 2.45808e-15 0)
(3 1.84312e-15 0)
(3 -4.6438e-16 0)
(3 -1.20894e-15 0)
(3 -3.6861e-16 0)
(3 1.3524e-15 0)
(3 2.25592e-15 0)
(3 1.80356e-15 0)
(3 9.96475e-16 0)
(3 -1.44068e-15 0)
(3 -2.65275e-15 0)
(3 -2.49907e-15 0)
(3 -2.0658e-15 0)
(3 -1.66618e-15 0)
(3 -1.0969e-15 0)
(3 -6.9802e-16 0)
(3 -1.14199e-15 0)
(3 -1.37487e-15 0)
(3 -1.07848e-15 0)
(3 1.01943e-15 0)
(3 2.95446e-15 0)
(3 2.71986e-15 0)
(3 1.1015e-15 0)
(3 -3.01002e-17 0)
(3 7.93882e-17 0)
(3 1.83552e-15 0)
(3 2.48461e-15 0)
(3 -1.39706e-15 0)
(3 1.84245e-16 0)
(3 2.81756e-18 0)
(3 -1.44259e-15 0)
(3 -3.09752e-15 0)
(3 -2.76158e-15 0)
(3 -1.45204e-16 0)
(3 1.27873e-15 0)
(3 2.64424e-15 0)
(3 7.00294e-17 0)
(3 -3.85266e-16 0)
(3 6.46836e-16 0)
(3 1.70195e-15 0)
(3 3.41743e-15 0)
(3 4.62632e-15 0)
(3 3.88713e-15 0)
(3 2.57221e-15 0)
(3 1.82381e-15 0)
(3 1.83181e-15 0)
(3 3.34747e-15 0)
(3 -3.08918e-15 0)
(3 -1.92811e-15 0)
(3 -1.0917e-15 0)
(3 -3.38237e-15 0)
(3 -3.02015e-15 0)
(3 -1.98839e-15 0)
(3 -9.09398e-16 0)
(3 -3.14168e-16 0)
(3 5.07292e-16 0)
(3 1.59798e-16 0)
(3 1.91981e-17 0)
(3 1.69571e-15 0)
(3 2.35848e-15 0)
(3 3.8668e-15 0)
(3 4.64031e-15 0)
(3 5.30128e-15 0)
(3 4.96771e-15 0)
(3 4.37655e-15 0)
(3 2.47383e-15 0)
(3 3.87471e-15 0)
(3 -2.2589e-15 0)
(3 -2.45665e-15 0)
(3 -2.50317e-15 0)
(3 -3.80991e-15 0)
(3 -3.46323e-15 0)
(3 -2.81161e-15 0)
(3 -2.24121e-15 0)
(3 -2.06975e-15 0)
(3 -2.28351e-16 0)
(3 5.2555e-16 0)
(3 2.19735e-15 0)
(3 2.9012e-15 0)
(3 2.61084e-15 0)
(3 2.21093e-15 0)
(3 3.53552e-15 0)
(3 5.17339e-15 0)
(3 5.1939e-15 0)
(3 4.08108e-15 0)
(3 1.47667e-15 0)
(3 1.26283e-15 0)
(3 -1.43336e-15 0)
(3 -8.45887e-16 0)
(3 -2.0461e-15 0)
(3 -2.06919e-15 0)
(3 -2.15407e-15 0)
(3 -2.67606e-15 0)
(3 -1.73977e-15 0)
(3 -1.55745e-15 0)
(3 -9.06425e-16 0)
(3 -2.53589e-16 0)
(3 1.01906e-15 0)
(3 1.32546e-15 0)
(3 1.31564e-15 0)
(3 1.38278e-15 0)
(3 1.78878e-15 0)
(3 2.71277e-15 0)
(3 2.28401e-15 0)
(3 1.67062e-15 0)
(3 2.03898e-16 0)
(3 -3.5181e-16 0)
(3 8.89729e-16 0)
(3 -7.17e-16 0)
(3 -1.52604e-15 0)
(3 -7.29863e-16 0)
(3 -9.01752e-16 0)
(3 -7.54603e-16 0)
(3 -8.78237e-16 0)
(3 -9.53689e-16 0)
(3 -2.12638e-15 0)
(3 -1.57998e-15 0)
(3 -8.76199e-16 0)
(3 1.06548e-16 0)
(3 1.70135e-15 0)
(3 1.85853e-15 0)
(3 1.55153e-15 0)
(3 -7.57254e-16 0)
(3 -9.54804e-16 0)
(3 -2.21553e-16 0)
(3 2.13624e-16 0)
(3 1.89158e-16 0)
(3 1.8355e-15 0)
(3 -1.1594e-15 0)
(3 -1.92247e-15 0)
(3 -2.88612e-15 0)
(3 -2.39017e-15 0)
(3 -4.75873e-16 0)
(3 -1.67872e-15 0)
(3 -1.21195e-15 0)
(3 -1.98531e-15 0)
(3 -1.7022e-15 0)
(3 -1.09463e-15 0)
(3 5.56277e-16 0)
(3 3.24989e-15 0)
(3 2.43857e-15 0)
(3 1.12156e-15 0)
(3 -1.52602e-15 0)
(3 -1.76351e-15 0)
(3 -2.32184e-16 0)
(3 1.63413e-15 0)
(3 1.61758e-15 0)
(3 4.24139e-17 0)
(3 -1.40338e-15 0)
(3 -3.79819e-15 0)
(3 -4.14814e-15 0)
(3 -2.2772e-15 0)
(3 -1.47923e-15 0)
(3 2.58119e-16 0)
(3 6.39822e-16 0)
(3 1.43165e-15 0)
(3 8.68994e-16 0)
(3 8.97738e-16 0)
(3 8.42996e-16 0)
(3 1.04992e-15 0)
(3 2.75412e-15 0)
(3 1.44168e-15 0)
(3 9.75042e-16 0)
(3 1.64076e-15 0)
(3 2.07425e-15 0)
(3 4.05857e-15 0)
(3 4.31434e-15 0)
(3 -8.77931e-16 0)
(3 -2.84599e-15 0)
(3 -3.76776e-15 0)
(3 -4.08286e-15 0)
(3 -3.27421e-15 0)
(3 -4.35654e-16 0)
(3 1.51436e-15 0)
(3 2.83338e-15 0)
(3 3.29383e-15 0)
(3 2.42998e-15 0)
(3 1.54616e-15 0)
(3 4.74912e-16 0)
(3 -1.12225e-15 0)
(3 1.25329e-16 0)
(3 2.71746e-15 0)
(3 2.47624e-15 0)
(3 1.11728e-15 0)
(3 1.79835e-15 0)
(3 3.0066e-15 0)
(3 4.89972e-15 0)
(3 -9.03769e-16 0)
(3 -2.52964e-15 0)
(3 -2.86123e-15 0)
(3 -4.45365e-15 0)
(3 -2.07686e-15 0)
(3 -1.46272e-16 0)
(3 8.26924e-16 0)
(3 2.56367e-15 0)
(3 2.98398e-15 0)
(3 1.22696e-15 0)
(3 4.27817e-16 0)
(3 3.88194e-16 0)
(3 8.43365e-16 0)
(3 1.20396e-15 0)
(3 3.46407e-15 0)
(3 3.83719e-15 0)
(3 3.13851e-15 0)
(3 2.0824e-15 0)
(3 2.95746e-15 0)
(3 3.80653e-15 0)
(3 -5.39283e-16 0)
(3 -1.4253e-15 0)
(3 -2.73793e-15 0)
(3 -2.23463e-15 0)
(3 -1.48532e-15 0)
(3 -4.37744e-17 0)
(3 5.03602e-16 0)
(3 6.38102e-16 0)
(3 7.09494e-17 0)
(3 1.18564e-15 0)
(3 1.94502e-15 0)
(3 1.33921e-15 0)
(3 3.11311e-15 0)
(3 4.10218e-15 0)
(3 3.809e-15 0)
(3 4.14454e-15 0)
(3 4.95219e-15 0)
(3 3.24192e-15 0)
(3 4.40974e-15 0)
(3 4.13288e-15 0)
(3 -5.894e-16 0)
(3 -1.09903e-15 0)
(3 -1.52646e-15 0)
(3 4.5307e-16 0)
(3 7.64424e-16 0)
(3 2.41201e-15 0)
(3 1.47276e-15 0)
(3 2.83863e-16 0)
(3 -4.46993e-16 0)
(3 2.4716e-16 0)
(3 1.55554e-15 0)
(3 5.27912e-16 0)
(3 2.43502e-15 0)
(3 3.05789e-15 0)
(3 2.81279e-15 0)
(3 3.74656e-15 0)
(3 4.36656e-15 0)
(3 4.51435e-15 0)
(3 3.78108e-15 0)
(3 2.92662e-15 0)
(3 -1.10497e-15 0)
(3 -2.03567e-15 0)
(3 -9.74467e-16 0)
(3 8.97205e-16 0)
(3 3.3124e-15 0)
(3 4.36164e-15 0)
(3 2.90875e-15 0)
(3 7.46672e-16 0)
(3 1.77948e-18 0)
(3 2.738e-16 0)
(3 9.33401e-17 0)
(3 5.03306e-16 0)
(3 5.38705e-16 0)
(3 3.20265e-16 0)
(3 1.35808e-15 0)
(3 3.06291e-15 0)
(3 4.02987e-15 0)
(3 4.55984e-15 0)
(3 3.39022e-15 0)
(3 2.2554e-15 0)
(3 -2.64414e-15 0)
(3 -1.16789e-15 0)
(3 -9.25918e-16 0)
(3 1.20207e-15 0)
(3 2.41644e-15 0)
(3 3.29538e-15 0)
(3 3.61474e-15 0)
(3 2.5392e-15 0)
(3 1.87717e-15 0)
(3 1.31537e-15 0)
(3 7.61367e-16 0)
(3 5.55925e-16 0)
(3 -2.92015e-16 0)
(3 -6.32421e-16 0)
(3 4.30424e-16 0)
(3 1.62102e-15 0)
(3 2.32087e-15 0)
(3 2.41989e-15 0)
(3 3.22498e-15 0)
(3 2.58622e-15 0)
(3 -2.60221e-15 0)
(3 -1.51265e-15 0)
(3 -2.91693e-16 0)
(3 1.31006e-15 0)
(3 9.4815e-16 0)
(3 8.96855e-16 0)
(3 1.06267e-15 0)
(3 8.25648e-16 0)
(3 9.21674e-16 0)
(3 4.56566e-16 0)
(3 -7.18855e-17 0)
(3 -1.05773e-16 0)
(3 -1.11221e-15 0)
(3 -1.01294e-15 0)
(3 -4.26634e-16 0)
(3 1.47845e-15 0)
(3 1.75045e-15 0)
(3 1.83942e-15 0)
(3 2.3029e-15 0)
(3 3.08396e-15 0)
(3 -4.79633e-15 0)
(3 -1.02926e-15 0)
(3 1.3771e-15 0)
(3 2.2435e-15 0)
(3 2.2031e-15 0)
(3 1.70686e-15 0)
(3 1.87361e-16 0)
(3 3.84687e-16 0)
(3 4.17229e-16 0)
(3 4.5134e-16 0)
(3 -4.25467e-16 0)
(3 -1.0466e-15 0)
(3 -2.50871e-15 0)
(3 -2.22957e-15 0)
(3 -8.69718e-16 0)
(3 4.21231e-16 0)
(3 1.40901e-15 0)
(3 2.11897e-15 0)
(3 1.60678e-15 0)
(3 1.98595e-15 0)
(3 -4.90597e-15 0)
(3 -1.52103e-15 0)
(3 1.64968e-15 0)
(3 3.2566e-15 0)
(3 3.30007e-15 0)
(3 3.13754e-15 0)
(3 1.62408e-15 0)
(3 1.26406e-15 0)
(3 8.83279e-16 0)
(3 2.47629e-16 0)
(3 1.6054e-16 0)
(3 1.36817e-16 0)
(3 -1.197e-15 0)
(3 -1.8703e-15 0)
(3 -3.74574e-16 0)
(3 2.41095e-16 0)
(3 1.47023e-15 0)
(3 3.05551e-15 0)
(3 3.48118e-15 0)
(3 2.92307e-15 0)
(3 -3.25563e-15 0)
(3 -2.21369e-15 0)
(3 5.48887e-16 0)
(3 2.05127e-15 0)
(3 2.95654e-15 0)
(3 2.8081e-15 0)
(3 2.28806e-15 0)
(3 2.2479e-15 0)
(3 2.09991e-15 0)
(3 6.75613e-16 0)
(3 -6.95395e-17 0)
(3 -3.25171e-16 0)
(3 -9.4097e-16 0)
(3 -1.44805e-15 0)
(3 1.9056e-16 0)
(3 4.59961e-16 0)
(3 1.87206e-15 0)
(3 3.0103e-15 0)
(3 4.55533e-15 0)
(3 4.72435e-15 0)
(3 -4.16095e-15 0)
(3 -1.98723e-15 0)
(3 -1.68027e-15 0)
(3 -1.60528e-15 0)
(3 1.09373e-15 0)
(3 8.5228e-16 0)
(3 1.53132e-15 0)
(3 2.49721e-15 0)
(3 2.43519e-15 0)
(3 1.63197e-15 0)
(3 -2.11301e-16 0)
(3 -1.38845e-15 0)
(3 -2.76946e-15 0)
(3 -1.33445e-15 0)
(3 3.26567e-16 0)
(3 -7.97342e-17 0)
(3 1.37945e-16 0)
(3 -5.86351e-16 0)
(3 1.20244e-15 0)
(3 3.95726e-15 0)
(3 -2.84339e-15 0)
(3 -3.68564e-15 0)
(3 -4.55018e-15 0)
(3 -3.76473e-15 0)
(3 -2.36491e-15 0)
(3 -1.30718e-15 0)
(3 1.55605e-16 0)
(3 1.1126e-15 0)
(3 1.97151e-15 0)
(3 1.39264e-15 0)
(3 6.58e-16 0)
(3 -1.69764e-15 0)
(3 -1.90158e-15 0)
(3 -1.93181e-15 0)
(3 -2.32197e-15 0)
(3 -1.66352e-15 0)
(3 -1.96719e-15 0)
(3 -1.99215e-15 0)
(3 -2.08126e-15 0)
(3 -4.80758e-16 0)
(3 -2.13512e-15 0)
(3 -2.39358e-15 0)
(3 -3.11111e-15 0)
(3 -4.04269e-15 0)
(3 -4.07326e-15 0)
(3 -3.65297e-15 0)
(3 9.05446e-17 0)
(3 1.11927e-15 0)
(3 1.41575e-15 0)
(3 1.79003e-15 0)
(3 9.41648e-16 0)
(3 -7.94483e-16 0)
(3 2.47455e-16 0)
(3 -6.12577e-16 0)
(3 -3.48829e-15 0)
(3 -2.80309e-15 0)
(3 -2.58402e-15 0)
(3 -2.44953e-15 0)
(3 -3.84278e-15 0)
(3 -2.9195e-15 0)
(3 -2.15502e-16 0)
(3 -5.15513e-16 0)
(3 -3.08019e-15 0)
(3 -4.25944e-15 0)
(3 -5.24346e-15 0)
(3 -5.2543e-15 0)
(3 -2.14256e-15 0)
(3 1.59361e-15 0)
(3 8.04593e-16 0)
(3 6.15314e-16 0)
(3 1.30289e-16 0)
(3 7.32776e-16 0)
(3 4.37055e-16 0)
(3 -1.28146e-15 0)
(3 -2.60451e-15 0)
(3 -4.61079e-15 0)
(3 -3.74875e-15 0)
(3 -3.17698e-15 0)
(3 -3.9568e-15 0)
(3 -3.15485e-15 0)
(3 7.03567e-16 0)
(3 8.09928e-16 0)
(3 -2.76491e-15 0)
(3 -3.84013e-15 0)
(3 -3.98299e-15 0)
(3 -4.07124e-15 0)
(3 -2.60555e-15 0)
(3 4.45232e-16 0)
(3 3.10756e-16 0)
(3 3.81066e-16 0)
(3 7.25086e-16 0)
(3 -6.65336e-17 0)
(3 -1.20382e-15 0)
(3 -2.12914e-15 0)
(3 -1.18698e-15 0)
(3 -3.30795e-15 0)
(3 -4.83937e-15 0)
(3 -4.24884e-15 0)
(3 -1.77107e-15 0)
(3 -1.43594e-15 0)
(3 -6.50472e-16 0)
(3 -4.37065e-16 0)
(3 -1.64398e-15 0)
(3 -2.51737e-15 0)
(3 -2.04811e-15 0)
(3 -1.51182e-15 0)
(3 -8.17023e-16 0)
(3 -7.76854e-16 0)
(3 -1.87505e-17 0)
(3 1.11139e-15 0)
(3 8.58772e-16 0)
(3 -8.83466e-16 0)
(3 -1.30469e-15 0)
(3 -1.39071e-15 0)
(3 -1.58525e-15 0)
(3 -2.33554e-15 0)
(3 -5.15778e-15 0)
(3 -4.69187e-15 0)
(3 -3.55057e-15 0)
(3 -3.26688e-15 0)
(3 -2.54559e-16 0)
(3 -8.65466e-16 0)
(3 -1.31995e-15 0)
(3 -3.09734e-15 0)
(3 -2.95744e-15 0)
(3 -3.36291e-15 0)
(3 -2.11336e-15 0)
(3 -1.18922e-15 0)
(3 -6.79121e-16 0)
(3 -4.67953e-16 0)
(3 -8.34609e-17 0)
(3 -2.01373e-15 0)
(3 -2.13937e-15 0)
(3 -1.70021e-15 0)
(3 -1.51223e-15 0)
(3 -1.88959e-15 0)
(3 -2.26698e-15 0)
(3 -3.50615e-15 0)
(3 -4.04373e-15 0)
(3 -3.47341e-15 0)
(3 5.39588e-16 0)
(3 -1.38433e-15 0)
(3 -1.42083e-15 0)
(3 -1.95224e-15 0)
(3 -2.73151e-15 0)
(3 -3.65082e-15 0)
(3 -3.211e-15 0)
(3 -2.0356e-15 0)
(3 -1.56173e-15 0)
(3 -1.53714e-15 0)
(3 -1.62552e-15 0)
(3 -1.74009e-15 0)
(3 -3.16376e-15 0)
(3 -3.07447e-15 0)
(3 -1.82955e-15 0)
(3 -1.13749e-15 0)
(3 -5.26756e-17 0)
(3 -1.66333e-15 0)
(3 -3.76327e-15 0)
(3 -4.00086e-15 0)
(3 7.95856e-16 0)
(3 -3.78007e-16 0)
(3 -6.98745e-16 0)
(3 -9.49243e-16 0)
(3 -1.03112e-15 0)
(3 -7.73979e-16 0)
(3 -6.36025e-16 0)
(3 -1.36406e-15 0)
(3 -7.12051e-16 0)
(3 -1.85977e-15 0)
(3 -2.4716e-15 0)
(3 -1.55291e-15 0)
(3 -1.40598e-15 0)
(3 -9.57472e-16 0)
(3 -2.75904e-16 0)
(3 3.3928e-17 0)
(3 1.23723e-15 0)
(3 5.70347e-16 0)
(3 -1.40452e-15 0)
(3 -4.13968e-15 0)
(3 8.97503e-16 0)
(3 1.59875e-15 0)
(3 -1.05024e-15 0)
(3 -1.26979e-15 0)
(3 -2.77007e-17 0)
(3 4.74172e-16 0)
(3 1.06401e-15 0)
(3 1.66499e-16 0)
(3 -5.91516e-17 0)
(3 -8.3988e-16 0)
(3 -9.81436e-16 0)
(3 -6.64798e-16 0)
(3 3.49346e-16 0)
(3 1.68518e-15 0)
(3 1.1432e-15 0)
(3 5.8601e-16 0)
(3 -1.11952e-16 0)
(3 1.98282e-16 0)
(3 -6.04918e-16 0)
(3 -1.4371e-15 0)
(3 -1.37906e-15 0)
(3 3.05296e-16 0)
(3 -1.0914e-15 0)
(3 -1.8634e-15 0)
(3 -1.30303e-15 0)
(3 -8.53945e-16 0)
(3 -6.23847e-16 0)
(3 -1.13688e-15 0)
(3 -2.19256e-15 0)
(3 -1.59277e-15 0)
(3 -1.71799e-15 0)
(3 -1.17251e-15 0)
(3 1.41112e-15 0)
(3 2.8944e-15 0)
(3 2.25514e-15 0)
(3 6.51111e-17 0)
(3 -1.55659e-15 0)
(3 -1.24441e-15 0)
(3 -6.87659e-16 0)
(3 -4.98708e-16 0)
(3 -2.69588e-15 0)
(3 -1.48723e-15 0)
(3 8.38892e-16 0)
(3 5.92865e-16 0)
(3 -2.38607e-16 0)
(3 1.51217e-17 0)
(3 -1.81728e-16 0)
(3 -1.42995e-15 0)
(3 -3.34327e-15 0)
(3 -3.28954e-15 0)
(3 -2.75076e-15 0)
(3 -9.0217e-16 0)
(3 4.93975e-16 0)
(3 1.36469e-15 0)
(3 1.74819e-15 0)
(3 7.09043e-16 0)
(3 -1.05165e-15 0)
(3 -1.26103e-15 0)
(3 -9.21212e-16 0)
(3 -2.1373e-15 0)
(3 -3.19618e-15 0)
(3 -2.92943e-15 0)
(3 -8.2026e-16 0)
(3 1.25641e-15 0)
(3 7.63789e-16 0)
(3 4.68956e-16 0)
(3 1.0304e-15 0)
(3 -1.44751e-16 0)
(3 -2.09417e-15 0)
(3 -2.8457e-15 0)
(3 -2.30538e-15 0)
(3 -4.59428e-16 0)
(3 -3.07524e-16 0)
(3 -5.94991e-16 0)
(3 4.13392e-16 0)
(3 2.00598e-15 0)
(3 1.10716e-15 0)
(3 1.57594e-16 0)
(3 -2.0097e-15 0)
(3 -2.90799e-15 0)
(3 -1.46467e-15 0)
(3 -2.07893e-15 0)
(3 -2.79914e-15 0)
(3 -1.15508e-15 0)
(3 -7.94178e-16 0)
(3 -1.20732e-15 0)
(3 -8.83669e-16 0)
(3 1.41987e-16 0)
(3 -3.52042e-16 0)
(3 -3.38046e-16 0)
(3 6.98791e-16 0)
(3 1.87601e-15 0)
(3 1.48688e-15 0)
(3 8.45486e-16 0)
(3 1.90279e-15 0)
(3 2.78092e-15 0)
(3 2.59239e-15 0)
(3 2.1891e-15 0)
(3 -3.0294e-16 0)
(3 -1.01622e-15 0)
(3 2.44539e-16 0)
(3 4.45964e-16 0)
(3 -1.20104e-15 0)
(3 -2.46962e-15 0)
(3 -2.581e-15 0)
(3 -2.22462e-15 0)
(3 -2.29055e-15 0)
(3 -1.22902e-16 0)
(3 6.39431e-16 0)
(3 9.0772e-16 0)
(3 1.55146e-15 0)
(3 2.28892e-15 0)
(3 1.73374e-15 0)
(3 1.45727e-15 0)
(3 1.47454e-15 0)
(3 1.11917e-15 0)
(3 3.65354e-16 0)
(3 3.14892e-16 0)
(3 -4.06612e-16 0)
(3 -1.07908e-15 0)
(3 8.60869e-19 0)
(3 1.14996e-15 0)
(3 1.70943e-15 0)
(3 8.73918e-17 0)
(3 -9.85114e-16 0)
(3 -2.9609e-16 0)
(3 -8.19719e-16 0)
(3 2.0878e-17 0)
(3 1.55438e-16 0)
(3 3.93781e-16 0)
(3 4.6995e-17 0)
(3 2.90875e-16 0)
(3 4.14953e-16 0)
(3 6.61973e-16 0)
(3 -1.1493e-16 0)
(3 1.37264e-15 0)
(3 9.25511e-16 0)
(3 2.08483e-16 0)
(3 7.88846e-16 0)
(3 -1.03318e-15 0)
(3 2.95543e-16 0)
(3 6.47411e-16 0)
(3 3.25941e-15 0)
(3 2.58031e-15 0)
(3 1.88477e-15 0)
(3 1.53571e-15 0)
(3 5.04538e-16 0)
(3 -1.2487e-15 0)
(3 -9.24892e-16 0)
(3 -3.89375e-16 0)
(3 5.68826e-16 0)
(3 8.34105e-16 0)
(3 1.37377e-15 0)
(3 1.69422e-15 0)
(3 2.03215e-16 0)
(3 7.0452e-16 0)
(3 7.9482e-17 0)
(3 -1.42983e-15 0)
(3 -1.59702e-15 0)
(3 -3.17037e-15 0)
(3 2.39628e-15 0)
(3 1.78969e-15 0)
(3 3.26844e-15 0)
(3 3.40082e-15 0)
(3 2.35205e-15 0)
(3 1.03649e-15 0)
(3 -4.78806e-16 0)
(3 -1.5287e-15 0)
(3 -1.48328e-15 0)
(3 -1.06957e-15 0)
(3 -2.33026e-16 0)
(3 5.16077e-16 0)
(3 1.39101e-15 0)
(3 1.26952e-15 0)
(3 7.57605e-16 0)
(3 1.55481e-16 0)
(3 3.18096e-16 0)
(3 -1.49543e-15 0)
(3 -3.73855e-15 0)
(3 -4.00513e-15 0)
(3 3.3067e-15 0)
(3 3.09111e-15 0)
(3 1.83902e-15 0)
(3 1.90095e-15 0)
(3 8.36205e-16 0)
(3 -8.06007e-16 0)
(3 -2.22382e-15 0)
(3 -1.04205e-15 0)
(3 -1.2436e-16 0)
(3 -5.15962e-16 0)
(3 -1.48464e-15 0)
(3 -1.19609e-15 0)
(3 -7.20974e-16 0)
(3 -9.00592e-16 0)
(3 -1.71588e-15 0)
(3 -9.63967e-16 0)
(3 1.46517e-15 0)
(3 -1.05903e-15 0)
(3 -2.75603e-15 0)
(3 -3.4376e-15 0)
(3 2.01473e-15 0)
(3 1.56662e-15 0)
(3 7.65579e-16 0)
(3 -3.75164e-16 0)
(3 -7.24255e-17 0)
(3 8.71301e-16 0)
(3 -9.22906e-16 0)
(3 -1.44138e-15 0)
(3 1.39877e-16 0)
(3 1.72633e-16 0)
(3 8.1849e-16 0)
(3 -4.91578e-16 0)
(3 -1.44351e-15 0)
(3 -1.62639e-15 0)
(3 -3.1283e-15 0)
(3 -1.83558e-15 0)
(3 -2.29707e-15 0)
(3 -2.7024e-15 0)
(3 -4.34421e-15 0)
(3 -6.80014e-15 0)
(3 1.21983e-15 0)
(3 -3.65138e-16 0)
(3 -1.90379e-15 0)
(3 -2.94267e-15 0)
(3 -2.3937e-15 0)
(3 3.73177e-16 0)
(3 1.07994e-15 0)
(3 9.35389e-17 0)
(3 -1.6791e-16 0)
(3 -9.40035e-17 0)
(3 7.9532e-16 0)
(3 1.45134e-15 0)
(3 -3.11723e-16 0)
(3 -1.80137e-15 0)
(3 -4.75609e-15 0)
(3 -3.32499e-15 0)
(3 -3.96355e-15 0)
(3 -3.95705e-15 0)
(3 -5.50454e-15 0)
(3 -7.07079e-15 0)
(3 1.48744e-16 0)
(3 -1.94874e-15 0)
(3 -3.30836e-15 0)
(3 -3.7661e-15 0)
(3 -2.38639e-15 0)
(3 -9.72145e-16 0)
(3 1.24198e-15 0)
(3 1.60264e-15 0)
(3 -1.03176e-15 0)
(3 -1.09181e-15 0)
(3 4.316e-19 0)
(3 1.0564e-15 0)
(3 1.94425e-15 0)
(3 -6.72619e-16 0)
(3 -3.63684e-15 0)
(3 -3.07912e-15 0)
(3 -1.98312e-15 0)
(3 -2.60642e-15 0)
(3 -3.55278e-15 0)
(3 -3.95656e-15 0)
(3 -2.31444e-15 0)
(3 -2.26241e-15 0)
(3 -1.93461e-15 0)
(3 -1.37072e-15 0)
(3 -4.97789e-16 0)
(3 -5.65679e-16 0)
(3 9.10512e-16 0)
(3 1.26088e-15 0)
(3 -2.33823e-16 0)
(3 3.80559e-16 0)
(3 1.05362e-15 0)
(3 1.20678e-15 0)
(3 3.479e-16 0)
(3 -1.41566e-15 0)
(3 -2.63245e-16 0)
(3 -4.13194e-16 0)
(3 -1.41401e-15 0)
(3 -5.69883e-16 0)
(3 -9.00906e-16 0)
(3 -1.94872e-15 0)
(3 -1.11858e-15 0)
(3 3.67172e-16 0)
(3 3.39183e-16 0)
(3 4.9335e-16 0)
(3 -5.75808e-16 0)
(3 -5.60144e-16 0)
(3 -2.74735e-17 0)
(3 1.11522e-15 0)
(3 3.17135e-15 0)
(3 3.07476e-15 0)
(3 1.55854e-15 0)
(3 -7.41388e-16 0)
(3 -1.77847e-15 0)
(3 4.54463e-16 0)
(3 7.51163e-16 0)
(3 -5.287e-16 0)
(3 -8.61702e-16 0)
(3 -1.41639e-15 0)
(3 -1.95938e-15 0)
(3 -2.44092e-15 0)
(3 1.69946e-16 0)
(3 2.36498e-15 0)
(3 2.54668e-15 0)
(3 2.27935e-15 0)
(3 7.69922e-17 0)
(3 -5.68761e-16 0)
(3 -5.68921e-16 0)
(3 1.25533e-15 0)
(3 3.6352e-15 0)
(3 3.46793e-15 0)
(3 7.00264e-16 0)
(3 5.54292e-16 0)
(3 6.72615e-16 0)
(3 -6.26175e-17 0)
(3 -1.98123e-15 0)
(3 -1.81173e-15 0)
(3 -1.3503e-15 0)
(3 -8.31518e-16 0)
(3 -8.20363e-16 0)
(3 -1.35177e-16 0)
(3 7.01881e-16 0)
(3 1.51037e-15 0)
(3 3.11652e-15 0)
(3 4.55777e-15 0)
(3 4.31114e-15 0)
(3 2.96066e-15 0)
(3 2.37363e-15 0)
(3 3.13868e-15 0)
(3 3.08472e-15 0)
(3 3.20403e-15 0)
(3 1.60401e-15 0)
(3 1.6362e-15 0)
(3 1.36134e-15 0)
(3 6.87482e-16 0)
(3 -6.29747e-16 0)
(3 -1.61505e-15 0)
(3 -2.53861e-15 0)
(3 -1.64312e-15 0)
(3 3.33432e-16 0)
(3 1.75362e-15 0)
(3 2.47855e-15 0)
(3 2.10655e-15 0)
(3 3.10831e-15 0)
(3 4.92471e-15 0)
(3 6.9998e-15 0)
(3 7.2596e-15 0)
(3 5.97049e-15 0)
(3 5.35454e-15 0)
(3 4.36342e-15 0)
(3 2.70352e-15 0)
(3 3.58644e-15 0)
(3 1.38453e-15 0)
(3 1.19194e-15 0)
(3 1.07312e-15 0)
(3 8.8078e-16 0)
(3 4.43252e-16 0)
(3 -4.4855e-16 0)
(3 3.96521e-16 0)
(3 6.66617e-16 0)
(3 7.35934e-16 0)
(3 3.45079e-15 0)
(3 4.50914e-15 0)
(3 4.7235e-15 0)
(3 3.91228e-15 0)
(3 6.51771e-15 0)
(3 7.27959e-15 0)
(3 6.54789e-15 0)
(3 5.15508e-15 0)
(3 5.15244e-15 0)
(3 3.04795e-15 0)
(3 1.86277e-18 0)
(3 -5.82358e-16 0)
(3 -8.93776e-16 0)
(3 -1.64323e-16 0)
(3 -6.63507e-16 0)
(3 9.63298e-16 0)
(3 2.17473e-15 0)
(3 2.11477e-15 0)
(3 1.03339e-15 0)
(3 5.70194e-16 0)
(3 4.18504e-15 0)
(3 4.73109e-15 0)
(3 4.36841e-15 0)
(3 3.98682e-15 0)
(3 4.31595e-15 0)
(3 3.50052e-15 0)
(3 2.8861e-15 0)
(3 3.27854e-15 0)
(3 3.21118e-15 0)
(3 2.70088e-15 0)
(3 5.08968e-16 0)
(3 -1.76336e-15 0)
(3 -2.23661e-15 0)
(3 -4.28817e-16 0)
(3 6.12349e-16 0)
(3 6.33023e-16 0)
(3 1.09785e-15 0)
(3 2.95199e-16 0)
(3 -7.22775e-16 0)
(3 -4.87754e-16 0)
(3 -7.72161e-17 0)
(3 -2.3814e-16 0)
(3 -1.04217e-15 0)
(3 -3.38919e-16 0)
(3 -9.56346e-16 0)
(3 -1.39379e-15 0)
(3 -1.80308e-15 0)
(3 -6.04414e-16 0)
(3 -3.08766e-16 0)
(3 4.97198e-16 0)
(3 5.54208e-16 0)
(3 2.13877e-16 0)
(3 6.28686e-17 0)
(3 -3.44809e-16 0)
(3 -5.58681e-16 0)
(3 -6.11546e-16 0)
(3 -1.25199e-15 0)
(3 -1.79561e-15 0)
(3 -1.95215e-15 0)
(3 -2.59609e-15 0)
(3 -3.85104e-15 0)
(3 -4.59593e-15 0)
(3 -4.49644e-15 0)
(3 -2.81253e-15 0)
(3 -1.23439e-15 0)
(3 -9.07967e-16 0)
(3 -1.04072e-15 0)
(3 -1.49894e-15 0)
(3 -2.3192e-15 0)
(3 -2.74746e-15 0)
(3 -2.7051e-15 0)
(3 -1.82475e-15 0)
(3 -1.69803e-15 0)
(3 -1.37203e-15 0)
(3 -1.20331e-15 0)
(3 -1.10273e-15 0)
(3 5.64459e-16 0)
(3 1.33183e-15 0)
(3 1.2173e-15 0)
(3 8.78822e-16 0)
(3 9.61428e-16 0)
(3 1.66814e-15 0)
(3 1.89442e-15 0)
(3 7.93005e-16 0)
(3 -1.22092e-15 0)
(3 -1.40011e-15 0)
(3 -1.62189e-15 0)
(3 6.33e-16 0)
(3 -3.35867e-16 0)
(3 -7.11039e-16 0)
(3 4.139e-16 0)
(3 2.48879e-15 0)
(3 2.70756e-15 0)
(3 1.63065e-15 0)
(3 1.83891e-15 0)
(3 1.76409e-15 0)
(3 2.14936e-15 0)
(3 1.3924e-15 0)
(3 -9.21345e-16 0)
(3 -1.16818e-15 0)
(3 -1.06508e-15 0)
(3 -7.64071e-16 0)
(3 -1.02314e-15 0)
(3 -1.12793e-15 0)
(3 -1.68384e-15 0)
(3 -1.24722e-15 0)
(3 -8.46511e-16 0)
(3 5.0953e-16 0)
(3 2.2956e-15 0)
(3 3.17563e-15 0)
(3 3.32471e-15 0)
(3 3.73625e-15 0)
(3 3.01979e-15 0)
(3 1.90384e-15 0)
(3 2.53248e-15 0)
(3 2.64955e-15 0)
(3 2.44371e-15 0)
(3 1.80516e-15 0)
(3 1.69572e-15 0)
(3 1.67359e-15 0)
(3 1.80837e-15 0)
(3 2.15827e-15 0)
(3 2.29337e-15 0)
(3 2.92882e-15 0)
(3 3.48915e-15 0)
(3 3.13961e-15 0)
(3 3.05562e-15 0)
(3 2.27278e-15 0)
(3 2.49918e-15 0)
(3 2.19587e-15 0)
(3 1.91155e-15 0)
(3 8.33223e-16 0)
(3 3.18801e-16 0)
(3 5.29687e-16 0)
(3 3.16524e-16 0)
(3 -2.43629e-16 0)
(3 5.83374e-16 0)
(3 -2.42001e-16 0)
(3 -9.42599e-16 0)
(3 -8.57366e-16 0)
(3 -8.03877e-16 0)
(3 -9.87637e-16 0)
(3 -1.08722e-15 0)
(3 -9.83275e-16 0)
(3 -1.74969e-15 0)
(3 -2.01292e-15 0)
(3 -1.2462e-15 0)
(3 1.25863e-16 0)
(3 7.64743e-16 0)
(3 5.21971e-16 0)
(3 4.749e-16 0)
(3 5.83932e-16 0)
(3 -2.54482e-17 0)
(3 -1.04548e-15 0)
(3 -9.02347e-16 0)
(3 -5.66149e-16 0)
(3 6.20241e-16 0)
(3 3.18114e-15 0)
(3 3.43078e-15 0)
(3 2.22496e-15 0)
(3 4.33794e-16 0)
(3 -1.53733e-16 0)
(3 -1.66859e-16 0)
(3 -1.39529e-16 0)
(3 8.34526e-16 0)
(3 1.18052e-15 0)
(3 6.36628e-16 0)
(3 1.04329e-15 0)
(3 2.27594e-15 0)
(3 2.9208e-15 0)
(3 3.49858e-15 0)
(3 2.16437e-15 0)
(3 1.68451e-15 0)
(3 -2.11281e-16 0)
(3 5.18986e-16 0)
(3 6.85258e-16 0)
(3 1.46755e-15 0)
(3 1.92737e-15 0)
(3 2.49875e-15 0)
(3 1.69356e-15 0)
(3 1.74432e-15 0)
(3 1.66667e-15 0)
(3 1.40644e-15 0)
(3 1.40149e-15 0)
(3 1.47444e-15 0)
(3 2.12444e-15 0)
(3 2.49389e-15 0)
(3 2.62106e-15 0)
(3 1.79244e-15 0)
(3 1.81323e-15 0)
(3 2.41509e-15 0)
(3 2.35732e-15 0)
(3 1.50054e-15 0)
(3 1.03977e-15 0)
(3 1.21875e-15 0)
(3 1.57026e-15 0)
(3 2.48244e-15 0)
(3 2.33184e-15 0)
(3 1.09365e-15 0)
(3 3.00466e-16 0)
(3 -2.87766e-16 0)
(3 4.57599e-16 0)
(3 8.03039e-16 0)
(3 1.51028e-15 0)
(3 1.32105e-15 0)
(3 1.10701e-15 0)
(3 1.32697e-15 0)
(3 2.18976e-15 0)
(3 2.37665e-15 0)
(3 1.48878e-15 0)
(3 1.36273e-15 0)
(3 1.71034e-15 0)
(3 1.04929e-15 0)
(3 2.25592e-16 0)
(3 -1.07493e-15 0)
(3 -1.5017e-15 0)
(3 -1.81073e-15 0)
(3 -9.93154e-16 0)
(3 -6.19643e-16 0)
(3 -6.498e-16 0)
(3 -9.13383e-16 0)
(3 -5.09792e-16 0)
(3 -1.1846e-15 0)
(3 -2.30627e-15 0)
(3 -1.39339e-15 0)
(3 -1.64802e-16 0)
(3 -3.18784e-16 0)
(3 -8.76062e-16 0)
(3 -1.95766e-15 0)
(3 -2.11197e-15 0)
(3 -2.52544e-15 0)
(3 -3.26031e-15 0)
(3 -3.21528e-15 0)
(3 -2.42184e-15 0)
(3 -1.27527e-15 0)
(3 -1.00182e-15 0)
(3 -5.51126e-16 0)
(3 -2.61944e-16 0)
(3 5.02681e-16 0)
(3 4.81846e-16 0)
(3 7.36583e-16 0)
(3 1.20239e-15 0)
(3 1.70099e-15 0)
(3 1.76618e-15 0)
(3 1.52477e-15 0)
(3 1.42011e-15 0)
(3 8.23047e-16 0)
(3 3.43358e-16 0)
(3 4.08236e-16 0)
(3 8.30389e-16 0)
(3 -1.25913e-16 0)
(3 -2.67319e-16 0)
(3 -1.21297e-16 0)
(3 4.04796e-16 0)
(3 4.13978e-16 0)
(3 1.89295e-16 0)
(3 1.20465e-16 0)
(3 9.33815e-17 0)
(3 5.48491e-16 0)
(3 -1.17422e-17 0)
(3 -1.47448e-16 0)
(3 4.12662e-18 0)
(3 2.45671e-16 0)
(3 -9.34172e-16 0)
(3 -2.11885e-15 0)
(3 -2.29473e-15 0)
(3 -1.755e-15 0)
(3 -1.00962e-15 0)
(3 -8.01795e-16 0)
(3 -9.93135e-16 0)
(3 -8.6708e-16 0)
(3 -6.04022e-16 0)
(3 -6.1852e-17 0)
(3 -1.0125e-15 0)
(3 -1.13009e-15 0)
(3 -8.12159e-16 0)
(3 4.37097e-17 0)
(3 -1.39116e-15 0)
(3 -1.35927e-15 0)
(3 -1.55181e-15 0)
(3 -2.06887e-15 0)
(3 -2.95425e-15 0)
(3 -2.66551e-15 0)
(3 -1.70653e-15 0)
(3 -1.32814e-15 0)
(3 -1.70693e-15 0)
(3 -2.38712e-15 0)
(3 -3.51485e-15 0)
(3 -2.64234e-15 0)
(3 -2.08559e-15 0)
(3 -3.58443e-15 0)
(3 -3.981e-15 0)
(3 -4.22253e-15 0)
(3 -2.3881e-15 0)
(3 -6.4691e-16 0)
(3 -5.72751e-16 0)
(3 -4.61222e-16 0)
(3 -5.45718e-16 0)
(3 -1.65914e-15 0)
(3 -2.52855e-15 0)
(3 -2.20957e-15 0)
(3 -1.25794e-15 0)
(3 -9.96946e-16 0)
(3 -2.13183e-15 0)
(3 -2.52498e-15 0)
(3 -1.29442e-15 0)
(3 8.76671e-16 0)
(3 2.70939e-15 0)
(3 2.67256e-15 0)
(3 1.92002e-15 0)
(3 1.65921e-15 0)
(3 9.17086e-16 0)
(3 4.13622e-16 0)
(3 2.36015e-16 0)
(3 -1.60629e-15 0)
(3 -2.70522e-15 0)
(3 -2.71826e-15 0)
(3 -2.1105e-15 0)
(3 -2.59185e-15 0)
(3 -1.24773e-15 0)
(3 4.23784e-16 0)
(3 3.0453e-15 0)
(3 3.83064e-15 0)
(3 3.19781e-15 0)
(3 3.81708e-15 0)
(3 2.53793e-15 0)
(3 1.09555e-15 0)
(3 5.30169e-16 0)
(3 1.73477e-16 0)
(3 -4.49149e-17 0)
(3 -1.96622e-16 0)
(3 -1.44748e-16 0)
(3 -2.08043e-16 0)
(3 -1.3769e-15 0)
(3 -3.14153e-15 0)
(3 -2.37872e-15 0)
(3 -7.55435e-16 0)
(3 3.70986e-16 0)