/*--------------------------------*- C++ -*----------------------------------*\
  =========                 |
  \\      /  F ield         | OpenFOAM: The Open Source CFD Toolbox
   \\    /   O peration     | Website:  https://openfoam.org
    \\  /    A nd           | Version:  7
     \\/     M anipulation  |
\*---------------------------------------------------------------------------*/
FoamFile
{
    version     2.0;
    format      ascii;
    class       volScalarField;
    location    "0.5";
    object      p;
}
// * * * * * * * * * * * * * * * * * * * * * * * * * * * * * * * * * * * * * //

dimensions      [1 -1 -2 0 0 0 0];

internalField   nonuniform List<scalar> 
16192
(
0.997369
0.986981
0.986737
0.991575
0.997616
1.00568
1.01656
1.0229
1.02397
1.02314
1.02079
1.01522
1.00718
1.00397
1.0027
1.00165
1.00138
1.00173
0.99975
0.997134
0.994567
0.990085
0.982919
0.97948
0.978705
0.978091
0.977641
0.977402
0.977581
0.98157
0.997275
1.02244
1.03823
1.04123
1.04086
1.03956
1.03808
1.03676
1.03489
1.03056
1.01881
0.999086
0.988477
0.98686
0.986328
0.985886
0.985465
0.985116
0.984859
0.985056
0.989805
1.00751
1.04095
1.0656
1.0694
1.06931
1.06906
1.0687
1.06826
1.06757
1.06625
1.06512
1.06483
1.06469
1.06454
1.0644
1.06427
1.06405
1.06357
1.06309
1.06297
1.0629
1.06283
1.06279
1.06292
1.0642
1.06914
1.0795
1.08688
1.08774
1.08762
1.08694
1.08415
1.07572
1.06283
1.05723
1.05677
1.0567
1.05664
1.05658
1.0565
1.05635
1.05595
1.05457
1.04995
1.03912
1.02863
1.02633
1.02622
1.02618
1.02615
1.02622
1.02694
1.02899
1.03089
1.03122
1.03121
1.0312
1.03119
1.03123
1.03141
1.03161
1.03165
1.0316
1.03153
1.03151
1.0315
1.03157
1.03191
1.03259
1.03329
1.03359
1.03368
1.03371
1.0337
1.03369
1.03364
1.03337
1.03243
1.03083
1.02969
1.02926
1.02903
1.0288
1.02852
1.02825
1.02802
1.02772
1.02711
1.02548
1.02192
1.01882
1.01828
1.01828
1.01833
1.01842
1.01857
1.01871
1.01879
1.01881
1.01883
1.01889
1.0191
1.01979
1.02159
1.02403
1.02494
1.02499
1.02499
1.02496
1.0247
1.02365
1.02071
1.01696
1.01577
1.01574
1.01577
1.01592
1.01651
1.01857
1.02393
1.0305
1.03261
1.03273
1.03275
1.03277
1.03279
1.03274
1.03225
1.03009
1.02321
1.01003
1.00118
1.00001
1
1
1
1
1
1
1
1
1
1
1
1
1
1
1
1
1
1
1
1
1
1
1
1
1
1
1
1
1
1
1
1
1
1
1
1
1
1
1
1
1
1
1
1
1
1
1
1
1
1
1
1
1
1
1
1
1
1
1
1
1
1
1
1
1
1
1
1
1
0.995792
0.985261
0.984076
0.988364
0.993905
0.999682
1.00833
1.01749
1.01916
1.01827
1.01691
1.01464
1.00996
1.00336
1.00053
0.999291
0.998559
0.998677
0.997155
0.995004
0.992904
0.989193
0.982515
0.978857
0.977994
0.977522
0.977221
0.977043
0.97745
0.982587
0.999252
1.02354
1.03709
1.03976
1.03959
1.03831
1.03675
1.03533
1.03347
1.02931
1.01798
0.998772
0.988017
0.986508
0.98609
0.98574
0.985456
0.985321
0.985565
0.987697
0.994856
1.01242
1.03955
1.05962
1.06719
1.0686
1.06853
1.06818
1.06776
1.06731
1.06669
1.06565
1.06469
1.06442
1.06432
1.06422
1.0641
1.06391
1.06349
1.06301
1.06288
1.06281
1.06274
1.0627
1.06283
1.06419
1.06936
1.07983
1.08693
1.08769
1.08757
1.08688
1.08406
1.07557
1.06267
1.05709
1.05663
1.05656
1.0565
1.05643
1.05635
1.05621
1.0558
1.05442
1.04981
1.03901
1.02857
1.02629
1.02621
1.02618
1.02617
1.02629
1.02696
1.02873
1.03066
1.03115
1.03115
1.03114
1.03114
1.03118
1.03128
1.03141
1.03153
1.03161
1.03162
1.03161
1.03161
1.0317
1.03204
1.03272
1.0334
1.03362
1.03362
1.0336
1.03357
1.03351
1.03338
1.033
1.03199
1.03051
1.02966
1.02945
1.02933
1.02917
1.02892
1.02861
1.0283
1.02795
1.02728
1.02543
1.02169
1.01867
1.01818
1.01819
1.01824
1.01832
1.01845
1.01862
1.01875
1.01883
1.01889
1.01896
1.01917
1.01985
1.02162
1.02403
1.02495
1.025
1.025
1.02495
1.02466
1.02358
1.02075
1.01708
1.01583
1.01579
1.01582
1.01597
1.01656
1.01864
1.024
1.03054
1.03261
1.03271
1.03273
1.03274
1.03275
1.03265
1.03209
1.02997
1.0233
1.01023
1.00122
1.00002
1
1
1
1
1
1
1
1
1
1
1
1
1
1
1
1
1
1
1
1
1
1
1
1
1
1
1
1
1
1
1
1
1
1
1
1
1
1
1
1
1
1
1
1
1
1
1
1
1
1
1
1
1
1
1
1
1
1
1
1
1
1
1
1
1
1
1
1
1
0.994512
0.987683
0.986685
0.989427
0.993152
0.996718
1.00254
1.01702
1.02587
1.02378
1.02072
1.01816
1.01536
1.01093
1.00559
1.00233
1.00061
0.999215
0.997587
0.995756
0.993373
0.988351
0.979999
0.976229
0.975815
0.975674
0.975644
0.975715
0.976695
0.983727
1.00314
1.02687
1.03682
1.03855
1.03874
1.03774
1.0364
1.03518
1.03355
1.02924
1.0169
0.996234
0.985924
0.984876
0.984574
0.984316
0.984161
0.984174
0.984796
0.988721
0.999827
1.0206
1.04299
1.05531
1.06114
1.06553
1.06828
1.06875
1.06842
1.06787
1.06731
1.06656
1.06547
1.0646
1.0643
1.06418
1.06407
1.06388
1.06342
1.06284
1.06264
1.06255
1.06246
1.0624
1.06253
1.06404
1.06962
1.08039
1.08714
1.08776
1.08761
1.08688
1.08402
1.07544
1.06256
1.05713
1.05669
1.05662
1.05656
1.05649
1.05641
1.05627
1.05587
1.05448
1.04987
1.03908
1.02867
1.02641
1.02633
1.02631
1.0263
1.0264
1.02704
1.02879
1.03068
1.03113
1.03112
1.03111
1.03112
1.03112
1.03115
1.03124
1.03141
1.03158
1.03168
1.0317
1.03172
1.03183
1.0322
1.03289
1.03343
1.03357
1.03359
1.03359
1.03356
1.0335
1.03329
1.03269
1.03142
1.03009
1.02968
1.02959
1.02953
1.02943
1.02927
1.02904
1.02875
1.02833
1.02746
1.02532
1.02137
1.0185
1.01809
1.0181
1.01813
1.0182
1.01832
1.0185
1.01869
1.01883
1.01893
1.01903
1.01926
1.01993
1.02166
1.02403
1.02494
1.02499
1.02499
1.02494
1.02465
1.02359
1.02075
1.01709
1.01585
1.01581
1.01584
1.01599
1.01658
1.01865
1.02403
1.03057
1.03261
1.03271
1.03272
1.03274
1.03274
1.03265
1.0321
1.02994
1.02314
1.01002
1.00117
1.00001
1
1
1
1
1
1
1
1
1
1
1
1
1
1
1
1
1
1
1
1
1
1
1
1
1
1
1
1
1
1
1
1
1
1
1
1
1
1
1
1
1
1
1
1
1
1
1
1
1
1
1
1
1
1
1
1
1
1
1
1
1
1
1
1
1
1
1
1
1
0.993378
0.989899
0.989054
0.989979
0.991138
0.99247
0.996442
1.01036
1.02343
1.02487
1.02243
1.01976
1.01708
1.0141
1.01042
1.00577
1.00088
0.997921
0.996354
0.994728
0.992293
0.987635
0.980482
0.976762
0.976005
0.975931
0.976071
0.976292
0.977676
0.986367
1.00847
1.02989
1.03617
1.03725
1.03737
1.03666
1.03548
1.03426
1.03249
1.02783
1.01493
0.995498
0.986766
0.98564
0.985252
0.985009
0.984909
0.985
0.985837
0.990873
1.00587
1.03009
1.04708
1.05261
1.05553
1.06008
1.06625
1.0687
1.06866
1.06829
1.06777
1.06715
1.06629
1.06516
1.0643
1.06402
1.06386
1.06361
1.06307
1.06259
1.06248
1.06242
1.06236
1.06233
1.06259
1.06431
1.07021
1.08109
1.08733
1.08781
1.08765
1.08687
1.08387
1.07509
1.06228
1.05708
1.05667
1.0566
1.05654
1.05647
1.05639
1.05625
1.05584
1.05446
1.04985
1.03906
1.02867
1.02644
1.02636
1.02633
1.02632
1.02641
1.02708
1.02887
1.03069
1.03107
1.03106
1.03104
1.03103
1.03102
1.03102
1.0311
1.03128
1.03151
1.03166
1.03176
1.03185
1.03204
1.03252
1.03315
1.03341
1.03344
1.03345
1.03345
1.03341
1.0333
1.033
1.03224
1.03091
1.03001
1.02985
1.02982
1.02978
1.02973
1.02963
1.02948
1.02922
1.02875
1.02771
1.02523
1.02098
1.01827
1.01795
1.01796
1.01799
1.01805
1.01817
1.01837
1.01861
1.01882
1.01897
1.01911
1.01936
1.02003
1.02173
1.02405
1.02494
1.02499
1.02499
1.02494
1.02465
1.02359
1.02073
1.01709
1.0159
1.01586
1.01588
1.01603
1.01662
1.01872
1.02413
1.03066
1.03268
1.03278
1.0328
1.03281
1.03282
1.03275
1.0322
1.02998
1.02299
1.00975
1.00109
1.00001
1
1
1
1
1
1
1
1
1
1
1
1
1
1
1
1
1
1
1
1
1
1
1
1
1
1
1
1
1
1
1
1
1
1
1
1
1
1
1
1
1
1
1
1
1
1
1
1
1
1
1
1
1
1
1
1
1
1
1
1
1
1
1
1
1
1
1
1
1
0.993608
0.992106
0.992162
0.992242
0.991838
0.991317
0.992827
1.00207
1.01609
1.02493
1.02538
1.02323
1.02042
1.01735
1.01364
1.00882
1.0035
0.999032
0.995484
0.992691
0.99005
0.985803
0.979569
0.976039
0.975174
0.975522
0.976044
0.976412
0.97843
0.990021
1.01435
1.03214
1.03616
1.03693
1.03678
1.03579
1.03448
1.03301
1.03067
1.02516
1.01187
0.993934
0.98645
0.985362
0.984856
0.984525
0.984465
0.98467
0.986346
0.994964
1.01624
1.03944
1.04787
1.04938
1.05075
1.0547
1.0626
1.0683
1.06904
1.06881
1.06833
1.06773
1.06696
1.06595
1.06492
1.06416
1.06363
1.06308
1.06251
1.06234
1.06228
1.06222
1.06218
1.06216
1.06248
1.06448
1.07094
1.08196
1.08757
1.08791
1.08774
1.08692
1.08379
1.0747
1.06187
1.05689
1.05653
1.05646
1.05639
1.05633
1.05625
1.05611
1.05571
1.05433
1.04974
1.03898
1.02866
1.02645
1.02636
1.02634
1.02632
1.02641
1.02709
1.02894
1.03072
1.03104
1.03102
1.03099
1.03097
1.03095
1.03095
1.03102
1.03119
1.03144
1.03165
1.03179
1.03196
1.03226
1.03283
1.03331
1.03338
1.03336
1.03334
1.0333
1.03321
1.03302
1.03261
1.03177
1.03064
1.03013
1.03009
1.03008
1.03006
1.03002
1.02996
1.02984
1.02961
1.02914
1.02799
1.02517
1.02062
1.01805
1.0178
1.01781
1.01785
1.01791
1.01803
1.01822
1.0185
1.01877
1.01897
1.01915
1.01944
1.02014
1.02184
1.02411
1.02495
1.025
1.025
1.02494
1.02465
1.02358
1.02071
1.0171
1.01594
1.01591
1.01593
1.01608
1.01668
1.0188
1.02423
1.03069
1.03264
1.03273
1.03275
1.03276
1.03277
1.03269
1.03212
1.02986
1.02274
1.00945
1.00102
1.00001
1
1
1
1
1
1
1
1
1
1
1
1
1
1
1
1
1
1
1
1
1
1
1
1
1
1
1
1
1
1
1
1
1
1
1
1
1
1
1
1
1
1
1
1
1
1
1
1
1
1
1
1
1
1
1
1
1
1
1
1
1
1
1
1
1
1
1
1
1
0.992585
0.992144
0.991883
0.99146
0.990681
0.990502
0.992862
0.998913
1.00897
1.02053
1.02697
1.02671
1.02433
1.021
1.01682
1.0117
1.00604
1.00057
0.995803
0.99158
0.987694
0.9833
0.977378
0.972644
0.972116
0.973244
0.974287
0.975214
0.979924
0.995991
1.02063
1.03333
1.03581
1.03636
1.03595
1.0345
1.03298
1.03133
1.0286
1.02224
1.00803
0.991237
0.985244
0.984145
0.983576
0.983295
0.983338
0.983946
0.988102
1.0033
1.02971
1.04394
1.04548
1.04544
1.04623
1.05026
1.05939
1.06778
1.06948
1.06935
1.06894
1.06837
1.0676
1.0666
1.06547
1.0644
1.06346
1.06261
1.06225
1.06216
1.06208
1.06201
1.06195
1.06194
1.06237
1.06469
1.07181
1.08294
1.08784
1.08805
1.08786
1.08697
1.08363
1.07414
1.06138
1.05686
1.05655
1.05649
1.05643
1.05636
1.05628
1.05614
1.05574
1.05437
1.04979
1.03908
1.02877
1.02652
1.02644
1.02641
1.0264
1.02649
1.02717
1.02898
1.03068
1.03097
1.03095
1.03093
1.03091
1.0309
1.03089
1.03096
1.03119
1.03147
1.03168
1.03185
1.03207
1.0325
1.03307
1.03333
1.03331
1.03326
1.03319
1.03308
1.03289
1.03261
1.03216
1.03142
1.03062
1.03037
1.03036
1.03036
1.03036
1.03033
1.03027
1.03016
1.02995
1.02947
1.02824
1.02515
1.02033
1.01785
1.01764
1.01766
1.0177
1.01777
1.01788
1.01808
1.01836
1.01869
1.01895
1.01918
1.01951
1.02025
1.02198
1.0242
1.02498
1.02501
1.02501
1.02495
1.02465
1.02356
1.02067
1.01711
1.016
1.01597
1.016
1.01616
1.01678
1.01892
1.02438
1.03076
1.03265
1.03274
1.03275
1.03277
1.03278
1.03269
1.0321
1.02974
1.02243
1.00909
1.00093
1.00001
1
1
1
1
1
1
1
1
1
1
1
1
1
1
1
1
1
1
1
1
1
1
1
1
1
1
1
1
1
1
1
1
1
1
1
1
1
1
1
1
1
1
1
1
1
1
1
1
1
1
1
1
1
1
1
1
1
1
1
1
1
1
1
1
1
1
1
1
1
0.988973
0.989265
0.989056
0.989258
0.989187
0.990087
0.993179
0.9977
1.00481
1.01504
1.02492
1.0283
1.02685
1.02393
1.0201
1.01514
1.00926
1.00226
0.994825
0.989157
0.984135
0.978455
0.973705
0.971838
0.972628
0.974264
0.975532
0.977061
0.98421
1.00405
1.02606
1.0336
1.03493
1.03527
1.03454
1.03272
1.03096
1.02897
1.02552
1.01768
1.00298
0.990642
0.987015
0.985911
0.985183
0.984838
0.984921
0.986069
0.993813
1.01594
1.03808
1.0426
1.04218
1.04192
1.0428
1.04698
1.05668
1.06712
1.06992
1.06989
1.06955
1.06902
1.06829
1.06733
1.06606
1.06444
1.06285
1.06219
1.06204
1.06195
1.06186
1.06179
1.06175
1.06175
1.06229
1.06501
1.07289
1.084
1.08813
1.08825
1.08804
1.08705
1.08342
1.07343
1.06082
1.05676
1.05651
1.05645
1.05638
1.05632
1.05625
1.0561
1.0557
1.05432
1.04975
1.03906
1.02879
1.02657
1.02648
1.02646
1.02644
1.02655
1.02725
1.02901
1.0306
1.03086
1.03085
1.03083
1.03082
1.03081
1.03086
1.03102
1.03126
1.0315
1.03169
1.03185
1.03208
1.03259
1.03313
1.03318
1.03314
1.03309
1.033
1.03282
1.03257
1.03227
1.03187
1.03126
1.03073
1.03061
1.03062
1.03062
1.03062
1.0306
1.03055
1.03044
1.03024
1.02975
1.02845
1.02517
1.02015
1.01768
1.01748
1.0175
1.01754
1.01761
1.01773
1.01793
1.01822
1.01858
1.01889
1.01917
1.01954
1.02035
1.02215
1.02431
1.02501
1.02504
1.02504
1.02497
1.02466
1.02354
1.02063
1.01713
1.01607
1.01604
1.01607
1.01623
1.01685
1.01904
1.02453
1.03085
1.03267
1.03276
1.03277
1.03279
1.0328
1.0327
1.03208
1.02962
1.02207
1.00866
1.00084
1.00001
1
1
1
1
1
1
1
1
1
1
1
1
1
1
1
1
1
1
1
1
1
1
1
1
1
1
1
1
1
1
1
1
1
1
1
1
1
1
1
1
1
1
1
1
1
1
1
1
1
1
1
1
1
1
1
1
1
1
1
1
1
1
1
1
1
1
1
1
1
0.98865
0.99174
0.994486
0.995198
0.994592
0.994145
0.995934
0.99894
1.00219
1.00962
1.02104
1.02881
1.02931
1.02702
1.02391
1.01917
1.01255
1.00339
0.993022
0.984425
0.979309
0.975868
0.972362
0.970705
0.972128
0.974143
0.975814
0.978743
0.990107
1.01347
1.03047
1.03364
1.03411
1.03417
1.03323
1.03125
1.02935
1.02695
1.02199
1.01103
0.995839
0.988321
0.986922
0.986251
0.985733
0.985528
0.985978
0.989689
1.00422
1.02848
1.03943
1.03967
1.03916
1.0391
1.0402
1.04438
1.0543
1.06637
1.07036
1.07046
1.07019
1.06971
1.06902
1.06805
1.06654
1.06426
1.06236
1.06189
1.06176
1.06166
1.06158
1.06152
1.06148
1.06151
1.06221
1.06545
1.07423
1.08511
1.08839
1.08843
1.0882
1.08713
1.0832
1.07273
1.06031
1.05663
1.0564
1.05632
1.05624
1.05616
1.05607
1.05593
1.05555
1.05421
1.04967
1.03902
1.02879
1.0266
1.02652
1.02649
1.02648
1.02659
1.02733
1.02913
1.03064
1.03087
1.03086
1.03084
1.03083
1.03083
1.03088
1.03107
1.03133
1.03155
1.03168
1.03181
1.03205
1.03256
1.03312
1.03323
1.03318
1.03305
1.03291
1.03272
1.03247
1.03216
1.03172
1.03114
1.03084
1.03082
1.03083
1.03084
1.03084
1.03081
1.03076
1.03067
1.03047
1.03
1.02868
1.02531
1.02011
1.01753
1.01732
1.01733
1.01737
1.01745
1.01757
1.01778
1.01808
1.01844
1.01879
1.01911
1.01954
1.02044
1.02235
1.02446
1.02506
1.02508
1.02507
1.025
1.02467
1.02351
1.02056
1.01714
1.01616
1.01614
1.01617
1.01633
1.01698
1.0192
1.02473
1.03096
1.0327
1.03278
1.0328
1.03282
1.03282
1.03271
1.03205
1.02946
1.02164
1.00817
1.00073
1.00001
1
1
1
1
1
1
1
1
1
1
1
1
1
1
1
1
1
1
1
1
1
1
1
1
1
1
1
1
1
1
1
1
1
1
1
1
1
1
1
1
1
1
1
1
1
1
1
1
1
1
1
1
1
1
1
1
1
1
1
1
1
1
1
1
1
1
1
1
1
0.988436
0.991363
0.997496
1.00089
1.0006
0.999279
0.997789
0.997842
0.999645
1.00493
1.01625
1.02796
1.03183
1.0299
1.02672
1.02253
1.01549
1.00379
0.989245
0.978931
0.974712
0.97238
0.970493
0.970418
0.972015
0.97408
0.976198
0.981279
0.997807
1.02179
1.03233
1.03349
1.03331
1.03301
1.03189
1.0298
1.02771
1.02456
1.01678
1.00202
0.990522
0.988245
0.98769
0.987282
0.987001
0.987099
0.98871
0.99715
1.01763
1.03482
1.03746
1.03705
1.0368
1.03693
1.03811
1.04213
1.05212
1.06557
1.07084
1.07113
1.07092
1.07045
1.06974
1.06865
1.06671
1.06388
1.06209
1.0617
1.06155
1.06145
1.06137
1.06132
1.06128
1.06133
1.0622
1.06604
1.0758
1.08619
1.08864
1.08864
1.08838
1.08724
1.08298
1.07193
1.05966
1.05644
1.0563
1.05625
1.0562
1.05614
1.05607
1.05595
1.05557
1.05422
1.04962
1.03889
1.02877
1.02665
1.02657
1.02654
1.02653
1.02667
1.02746
1.02929
1.03068
1.03086
1.03084
1.03083
1.03082
1.03083
1.03092
1.03109
1.03132
1.03153
1.03165
1.03176
1.03195
1.03238
1.03298
1.03319
1.03317
1.0331
1.03298
1.03277
1.0325
1.03212
1.03156
1.03104
1.03093
1.03094
1.03097
1.031
1.031
1.03097
1.03093
1.03085
1.03067
1.03022
1.02894
1.02557
1.0202
1.01739
1.01715
1.01716
1.0172
1.01728
1.01741
1.01763
1.01794
1.01831
1.01865
1.01899
1.01948
1.0205
1.02259
1.02464
1.02513
1.02514
1.02513
1.02505
1.0247
1.02348
1.02047
1.01713
1.01625
1.01623
1.01627
1.01644
1.01711
1.01938
1.02495
1.03109
1.03274
1.03281
1.03283
1.03285
1.03285
1.03273
1.03202
1.02928
1.02113
1.00761
1.00063
1
1
1
1
1
1
1
1
1
1
1
1
1
1
1
1
1
1
1
1
1
1
1
1
1
1
1
1
1
1
1
1
1
1
1
1
1
1
1
1
1
1
1
1
1
1
1
1
1
1
1
1
1
1
1
1
1
1
1
1
1
1
1
1
1
1
1
1
1
1
0.985647
0.988652
0.996249
1.0039
1.00363
1.00198
1.00003
0.997616
0.997301
1.00158
1.01206
1.02582
1.03211
1.03097
1.0276
1.02364
1.01642
1.00219
0.983248
0.974974
0.973365
0.972074
0.970645
0.970617
0.971937
0.973818
0.976533
0.9853
1.00723
1.02758
1.03221
1.03217
1.03175
1.03139
1.03063
1.02869
1.02615
1.0207
1.00773
0.993272
0.989099
0.988487
0.988158
0.987937
0.987923
0.988863
0.994226
1.00967
1.02889
1.03501
1.03501
1.03478
1.03481
1.03499
1.03611
1.04005
1.0502
1.06477
1.07131
1.07179
1.07159
1.07112
1.07041
1.06916
1.06671
1.06342
1.06169
1.06133
1.0612
1.06111
1.06107
1.06104
1.06101
1.06112
1.0623
1.06691
1.07758
1.08716
1.08889
1.08886
1.08856
1.0873
1.08267
1.07105
1.05908
1.0563
1.05621
1.05618
1.05614
1.05608
1.05601
1.05589
1.05553
1.05418
1.04954
1.03875
1.02874
1.0267
1.02662
1.02659
1.02658
1.02675
1.02763
1.0295
1.03074
1.03086
1.03084
1.03082
1.03081
1.03086
1.031
1.03115
1.03128
1.03138
1.03144
1.03153
1.03175
1.0323
1.03301
1.03325
1.03325
1.0332
1.03309
1.0329
1.0326
1.03208
1.03136
1.03102
1.031
1.03102
1.03106
1.03111
1.03112
1.0311
1.03106
1.03098
1.03083
1.03041
1.02921
1.02594
1.02042
1.01729
1.01698
1.01699
1.01703
1.01711
1.01725
1.01748
1.01779
1.01815
1.01848
1.01883
1.01938
1.02057
1.02285
1.02482
1.02521
1.02522
1.02521
1.02511
1.02473
1.02345
1.02038
1.01715
1.01636
1.01635
1.01639
1.01657
1.01726
1.01958
1.02521
1.03123
1.03278
1.03285
1.03286
1.03288
1.03288
1.03275
1.03198
1.02906
1.02054
1.00701
1.00052
1
1
1
1
1
1
1
1
1
1
1
1
1
1
1
1
1
1
1
1
1
1
1
1
1
1
1
1
1
1
1
1
1
1
1
1
1
1
1
1
1
1
1
1
1
1
1
1
1
1
1
1
1
1
1
1
1
1
1
1
1
1
1
1
1
1
1
1
1
1
0.981252
0.984187
0.992017
1.00399
1.00612
1.00472
1.00252
1.00091
1.00026
1.00185
1.00894
1.02115
1.02995
1.03023
1.02725
1.02344
1.01545
0.997175
0.978402
0.973265
0.972198
0.971165
0.970446
0.970519
0.971495
0.973303
0.97787
0.993106
1.01772
1.02942
1.03
1.02978
1.02965
1.02959
1.02899
1.02723
1.02335
1.01297
0.996773
0.98957
0.988774
0.988332
0.98805
0.987895
0.988645
0.992861
1.00524
1.02442
1.03296
1.03331
1.03287
1.03279
1.03288
1.03298
1.03394
1.03801
1.04883
1.0646
1.0719
1.07248
1.07227
1.07178
1.07103
1.06953
1.06658
1.06292
1.06126
1.06099
1.06088
1.06081
1.06078
1.06076
1.06074
1.06092
1.06245
1.06799
1.07951
1.088
1.08911
1.08905
1.0887
1.08728
1.0822
1.07004
1.05858
1.05624
1.05614
1.05607
1.05599
1.05592
1.05586
1.05575
1.05542
1.05407
1.04939
1.03855
1.02868
1.02675
1.02668
1.02665
1.02664
1.02685
1.02784
1.02974
1.03079
1.03086
1.03083
1.03082
1.03082
1.0309
1.03104
1.03118
1.03123
1.03122
1.03121
1.03123
1.03147
1.03217
1.03308
1.03338
1.03339
1.03338
1.03328
1.03309
1.03271
1.03195
1.03116
1.03097
1.03097
1.03101
1.0311
1.03119
1.03121
1.03119
1.03116
1.03109
1.03095
1.03058
1.02948
1.02638
1.02081
1.01725
1.01682
1.01683
1.01686
1.01695
1.01709
1.01732
1.01762
1.01794
1.01826
1.01862
1.01924
1.02063
1.02314
1.02502
1.02531
1.02531
1.02529
1.02518
1.02476
1.02341
1.02027
1.01717
1.01648
1.01647
1.01652
1.01671
1.01742
1.01981
1.02549
1.03138
1.03283
1.03289
1.0329
1.03292
1.03292
1.03276
1.03193
1.02881
1.01986
1.00637
1.00042
1
1
1
1
1
1
1
1
1
1
1
1
1
1
1
1
1
1
1
1
1
1
1
1
1
1
1
1
1
1
1
1
1
1
1
1
1
1
1
1
1
1
1
1
1
1
1
1
1
1
1
1
1
1
1
1
1
1
1
1
1
1
1
1
1
1
1
1
1
1
0.977308
0.978432
0.984403
1.00017
1.00882
1.00866
1.00657
1.00453
1.00412
1.00486
1.00798
1.01614
1.02453
1.02593
1.0235
1.02047
1.01403
1.00035
0.98174
0.973083
0.971471
0.970753
0.970236
0.970273
0.971018
0.973202
0.982075
1.00459
1.02572
1.02982
1.02967
1.02943
1.02908
1.02861
1.02749
1.0245
1.01626
1.00076
0.990194
0.988319
0.987739
0.987299
0.987097
0.988192
0.992101
1.00272
1.02136
1.03227
1.03296
1.03216
1.03099
1.03064
1.03073
1.03086
1.03176
1.03614
1.04814
1.06513
1.07248
1.07301
1.07276
1.07223
1.07137
1.06955
1.06609
1.06241
1.06107
1.06082
1.06069
1.06062
1.0606
1.06058
1.06059
1.06085
1.06275
1.06934
1.08149
1.08866
1.0893
1.08921
1.08879
1.0872
1.08166
1.06897
1.05804
1.05609
1.05602
1.05599
1.05599
1.05596
1.05588
1.05573
1.05533
1.05393
1.04918
1.03831
1.02862
1.02679
1.02673
1.02671
1.02672
1.02699
1.02812
1.02998
1.03081
1.03084
1.03082
1.03081
1.03084
1.03095
1.03104
1.03104
1.03099
1.03094
1.03092
1.03095
1.03122
1.0321
1.03324
1.0336
1.03362
1.03361
1.03353
1.0333
1.03274
1.03173
1.03103
1.03093
1.03094
1.03097
1.03109
1.03124
1.03128
1.03127
1.03124
1.03118
1.03106
1.03073
1.02974
1.02689
1.02135
1.01728
1.01667
1.01667
1.0167
1.01678
1.01693
1.01714
1.01742
1.0177
1.01799
1.01837
1.01909
1.02071
1.02345
1.0252
1.02542
1.02543
1.0254
1.02527
1.02481
1.02338
1.02017
1.01721
1.01661
1.01661
1.01665
1.01686
1.0176
1.02006
1.0258
1.03154
1.03288
1.03293
1.03294
1.03296
1.03296
1.03278
1.03187
1.0285
1.01908
1.0057
1.00033
1
1
1
1
1
1
1
1
1
1
1
1
1
1
1
1
1
1
1
1
1
1
1
1
1
1
1
1
1
1
1
1
1
1
1
1
1
1
1
1
1
1
1
1
1
1
1
1
1
1
1
1
1
1
1
1
1
1
1
1
1
1
1
1
1
1
1
1
1
1
0.97194
0.971767
0.976176
0.994456
1.01156
1.01404
1.01339
1.01093
1.00883
1.00822
1.00873
1.01215
1.01802
1.01962
1.01771
1.0153
1.01092
1.00157
0.985763
0.973274
0.970699
0.970151
0.969735
0.96973
0.970636
0.975111
0.990427
1.01637
1.0291
1.02993
1.02987
1.02994
1.02954
1.02855
1.02594
1.0185
1.00333
0.990516
0.987363
0.986412
0.985689
0.985525
0.986734
0.990377
1.0002
1.01894
1.03248
1.03385
1.03302
1.03105
1.02891
1.02829
1.02839
1.02863
1.02967
1.03469
1.04845
1.06629
1.07284
1.07319
1.07288
1.07235
1.07147
1.06944
1.06549
1.06179
1.06072
1.06055
1.06043
1.06036
1.06035
1.06037
1.06041
1.06084
1.06329
1.07104
1.08344
1.08915
1.08948
1.08934
1.08885
1.08706
1.08099
1.06783
1.05752
1.05594
1.05589
1.05587
1.0559
1.05592
1.05585
1.05571
1.05533
1.05391
1.04905
1.03811
1.02854
1.02677
1.02672
1.02671
1.02675
1.02715
1.02847
1.03024
1.03082
1.03082
1.0308
1.03079
1.03084
1.03094
1.03093
1.03085
1.03073
1.03067
1.03065
1.0307
1.03107
1.0322
1.03349
1.03386
1.03389
1.03388
1.03377
1.03344
1.03264
1.03146
1.03095
1.03091
1.03091
1.03093
1.03106
1.03127
1.03134
1.03133
1.03131
1.03126
1.03114
1.03085
1.02998
1.02742
1.02202
1.0174
1.01653
1.01652
1.01654
1.01661
1.01675
1.01695
1.01719
1.01744
1.01771
1.01811
1.01892
1.02079
1.02374
1.02539
1.02555
1.02556
1.02552
1.02538
1.02487
1.02334
1.02005
1.01724
1.01674
1.01674
1.01679
1.01701
1.01779
1.02032
1.02614
1.03171
1.03293
1.03298
1.03299
1.03301
1.033
1.0328
1.0318
1.02814
1.01821
1.00501
1.00025
1
1
1
1
1
1
1
1
1
1
1
1
1
1
1
1
1
1
1
1
1
1
1
1
1
1
1
1
1
1
1
1
1
1
1
1
1
1
1
1
1
1
1
1
1
1
1
1
1
1
1
1
1
1
1
1
1
1
1
1
1
1
1
1
1
1
1
1
1
1
0.96921
0.969479
0.973845
0.99137
1.0139
1.02055
1.02068
1.01869
1.01387
1.00982
1.00802
1.00809
1.01098
1.01333
1.01226
1.01049
1.00766
1.00208
0.990872
0.977713
0.972599
0.971693
0.971237
0.971092
0.972169
0.979443
1.00022
1.02369
1.02962
1.02977
1.02979
1.02976
1.0291
1.02719
1.02078
1.00592
0.990869
0.986393
0.985315
0.984446
0.983976
0.984901
0.988121
0.996785
1.01533
1.03252
1.03542
1.03481
1.03297
1.02949
1.02651
1.02594
1.02609
1.02642
1.02773
1.03394
1.04995
1.06785
1.07305
1.07325
1.07292
1.07235
1.0714
1.06916
1.06492
1.06113
1.06022
1.06009
1.05999
1.05993
1.05994
1.05999
1.0601
1.06079
1.06398
1.07307
1.08527
1.08951
1.08963
1.08946
1.08889
1.08686
1.08018
1.06656
1.057
1.05575
1.05572
1.0557
1.05576
1.05583
1.05579
1.05567
1.05528
1.05383
1.04893
1.03795
1.02843
1.02668
1.02663
1.02663
1.02672
1.0273
1.02888
1.0305
1.03083
1.03081
1.03078
1.03079
1.03082
1.03079
1.03071
1.03056
1.03044
1.03041
1.0304
1.03051
1.03109
1.03251
1.03385
1.03414
1.03415
1.03413
1.03397
1.03348
1.03237
1.03118
1.03089
1.03088
1.03087
1.03089
1.03103
1.03127
1.03138
1.03138
1.03137
1.03132
1.03122
1.03097
1.03022
1.02796
1.0228
1.01762
1.01638
1.01635
1.01637
1.01644
1.01656
1.01674
1.01695
1.01716
1.01742
1.01784
1.01875
1.02086
1.02401
1.02557
1.0257
1.0257
1.02566
1.0255
1.02495
1.02329
1.01992
1.01729
1.01688
1.01688
1.01694
1.01717
1.01799
1.02062
1.02651
1.03189
1.03298
1.03302
1.03304
1.03305
1.03304
1.03281
1.0317
1.02771
1.01723
1.00432
1.00019
1
1
1
1
1
1
1
1
1
1
1
1
1
1
1
1
1
1
1
1
1
1
1
1
1
1
1
1
1
1
1
1
1
1
1
1
1
1
1
1
1
1
1
1
1
1
1
1
1
1
1
1
1
1
1
1
1
1
1
1
1
1
1
1
1
1
1
1
1
1
0.970961
0.971153
0.974345
0.987391
1.01171
1.02349
1.02395
1.02218
1.01779
1.01069
1.00626
1.00473
1.00538
1.00776
1.00796
1.00675
1.00493
1.00137
0.993611
0.981137
0.973962
0.972673
0.972266
0.972327
0.974781
0.985775
1.00927
1.02664
1.0291
1.02902
1.02909
1.0289
1.02757
1.02269
1.00895
0.991638
0.985578
0.984521
0.983615
0.982947
0.983416
0.985969
0.992846
1.00989
1.03105
1.03728
1.03699
1.03558
1.03232
1.02688
1.02398
1.02362
1.02385
1.02426
1.02603
1.03398
1.05252
1.06946
1.07311
1.07317
1.07282
1.07224
1.07117
1.06861
1.06428
1.06124
1.06046
1.06019
1.06001
1.05992
1.05992
1.05999
1.06014
1.06101
1.06496
1.07532
1.08683
1.08976
1.08978
1.08958
1.08893
1.08665
1.07931
1.06527
1.05647
1.05549
1.05547
1.05546
1.05563
1.05594
1.05595
1.05584
1.05543
1.05393
1.04888
1.03777
1.02839
1.02671
1.02666
1.02666
1.02679
1.02754
1.02926
1.03062
1.03082
1.03079
1.03077
1.03075
1.0307
1.0306
1.03042
1.03027
1.03022
1.0302
1.03021
1.0304
1.03125
1.033
1.03422
1.03439
1.0344
1.03435
1.03411
1.03337
1.03196
1.03101
1.0309
1.03089
1.03089
1.0309
1.03099
1.03123
1.03141
1.03143
1.03142
1.03138
1.03129
1.03108
1.03045
1.02849
1.02364
1.01796
1.01624
1.01618
1.01619
1.01625
1.01636
1.01652
1.0167
1.01689
1.01714
1.01757
1.01856
1.02091
1.02424
1.02574
1.02585
1.02585
1.02581
1.02563
1.02502
1.02324
1.0198
1.01735
1.01702
1.01703
1.0171
1.01734
1.01821
1.02095
1.02691
1.03207
1.03304
1.03308
1.0331
1.03311
1.03309
1.03282
1.03158
1.0272
1.01615
1.00364
1.00013
1
1
1
1
1
1
1
1
1
1
1
1
1
1
1
1
1
1
1
1
1
1
1
1
1
1
1
1
1
1
1
1
1
1
1
1
1
1
1
1
1
1
1
1
1
1
1
1
1
1
1
1
1
1
1
1
1
1
1
1
1
1
1
1
1
1
1
1
1
1
0.976201
0.974498
0.975842
0.984102
1.0049
1.02151
1.02455
1.0234
1.02003
1.01367
1.0061
1.00273
1.00182
1.00278
1.004
1.00344
1.00222
0.999804
0.994401
0.984104
0.976201
0.974676
0.974448
0.974968
0.979292
0.993733
1.01663
1.02748
1.02822
1.0281
1.02794
1.02702
1.02363
1.01245
0.993539
0.98426
0.983163
0.982571
0.981935
0.982001
0.983752
0.988784
1.0027
1.02635
1.03873
1.03927
1.03842
1.03597
1.03054
1.02387
1.02173
1.02153
1.02181
1.02229
1.02467
1.03497
1.05604
1.0708
1.07291
1.07287
1.07252
1.07197
1.07077
1.06783
1.06358
1.06122
1.06058
1.0602
1.05987
1.05974
1.05974
1.05981
1.06002
1.06126
1.06622
1.07778
1.08807
1.08993
1.0899
1.08968
1.08898
1.08643
1.07843
1.06406
1.05599
1.05521
1.05518
1.05518
1.05542
1.05589
1.05596
1.05587
1.05548
1.05397
1.04881
1.03754
1.02838
1.02682
1.02678
1.02678
1.02698
1.02786
1.02961
1.03066
1.03075
1.03072
1.03068
1.03062
1.0305
1.0303
1.03014
1.03009
1.03007
1.03006
1.03008
1.03041
1.03161
1.03358
1.03454
1.03462
1.03461
1.03452
1.03414
1.03309
1.03155
1.03092
1.03089
1.03088
1.03088
1.03089
1.03097
1.03119
1.03142
1.03148
1.03148
1.03145
1.03138
1.03121
1.03068
1.02897
1.02448
1.01841
1.01612
1.016
1.01601
1.01606
1.01616
1.0163
1.01645
1.01663
1.01686
1.0173
1.01837
1.02091
1.02443
1.02591
1.02602
1.02602
1.02597
1.02577
1.02511
1.0232
1.0197
1.01744
1.01718
1.01719
1.01727
1.01753
1.01844
1.0213
1.02733
1.03225
1.03311
1.03314
1.03315
1.03317
1.03314
1.03283
1.03144
1.02661
1.01498
1.00299
1.00009
1
1
1
1
1
1
1
1
1
1
1
1
1
1
1
1
1
1
1
1
1
1
1
1
1
1
1
1
1
1
1
1
1
1
1
1
1
1
1
1
1
1
1
1
1
1
1
1
1
1
1
1
1
1
1
1
1
1
1
1
1
1
1
1
1
1
1
1
1
1
0.981992
0.978704
0.977741
0.981802
0.995128
1.01486
1.02353
1.02389
1.02172
1.01748
1.00971
1.00244
0.999995
0.999185
0.99946
0.999765
0.999098
0.997612
0.993862
0.986238
0.978895
0.976974
0.97683
0.978056
0.984741
1.00263
1.02233
1.02717
1.02716
1.02687
1.02613
1.02362
1.01515
0.997422
0.985048
0.983448
0.98302
0.982428
0.981863
0.982295
0.985294
0.995206
1.0176
1.03781
1.04123
1.04081
1.03923
1.03543
1.02747
1.02116
1.01998
1.01993
1.02021
1.02074
1.02412
1.03723
1.05993
1.07157
1.07252
1.07241
1.07207
1.0715
1.07001
1.06649
1.06259
1.06103
1.0605
1.06016
1.05999
1.05987
1.05983
1.05988
1.06012
1.06172
1.06781
1.08027
1.08897
1.09005
1.08999
1.08976
1.089
1.08619
1.07751
1.06291
1.05556
1.05495
1.05492
1.05492
1.05519
1.05581
1.05595
1.05587
1.05548
1.05396
1.04868
1.03731
1.02843
1.02702
1.02697
1.02698
1.02722
1.02816
1.02978
1.0306
1.03064
1.03061
1.03055
1.03043
1.03021
1.03004
1.03
1.02999
1.02997
1.02996
1.03004
1.03057
1.03212
1.03414
1.03481
1.03483
1.0348
1.03464
1.03406
1.03267
1.0312
1.03086
1.03085
1.03084
1.03084
1.03086
1.03093
1.03113
1.03143
1.03156
1.03156
1.03155
1.03149
1.03134
1.03089
1.02942
1.02529
1.01897
1.01604
1.01582
1.01582
1.01586
1.01596
1.01608
1.01621
1.01637
1.01659
1.01704
1.01817
1.02087
1.02456
1.02608
1.02618
1.02618
1.02613
1.02591
1.0252
1.02316
1.01962
1.01755
1.01735
1.01736
1.01744
1.01773
1.0187
1.02168
1.02778
1.03244
1.03317
1.0332
1.03321
1.03323
1.03319
1.03283
1.03125
1.02591
1.0137
1.00239
1.00006
1
1
1
1
1
1
1
1
1
1
1
1
1
1
1
1
1
1
1
1
1
1
1
1
1
1
1
1
1
1
1
1
1
1
1
1
1
1
1
1
1
1
1
1
1
1
1
1
1
1
1
1
1
1
1
1
1
1
1
1
1
1
1
1
1
1
1
1
1
1
0.987477
0.982629
0.979728
0.979644
0.986439
1.00357
1.02087
1.02492
1.02392
1.02098
1.01542
1.0054
0.998117
0.996129
0.995484
0.995651
0.995529
0.994654
0.992303
0.987291
0.982336
0.980773
0.980708
0.982798
0.99189
1.01089
1.02464
1.02659
1.02642
1.02578
1.02376
1.01727
1.00192
0.986941
0.983404
0.98296
0.982539
0.981976
0.981731
0.983104
0.989111
1.00678
1.03243
1.04218
1.04234
1.04149
1.03933
1.03342
1.02376
1.01919
1.01869
1.01874
1.01903
1.01982
1.02469
1.0409
1.06352
1.0717
1.07204
1.07191
1.07161
1.07097
1.06896
1.0649
1.06174
1.06073
1.06028
1.06008
1.05996
1.05986
1.0598
1.05983
1.0602
1.06242
1.06984
1.08273
1.08958
1.09012
1.09004
1.08979
1.08896
1.08587
1.07655
1.06182
1.05517
1.0547
1.05467
1.05467
1.055
1.05575
1.05593
1.05585
1.05546
1.0539
1.04853
1.03714
1.02854
1.02725
1.02721
1.02722
1.02744
1.02831
1.02978
1.03044
1.03045
1.03042
1.03035
1.03021
1.02999
1.02991
1.0299
1.02989
1.02989
1.0299
1.03009
1.03086
1.03275
1.03465
1.03505
1.03504
1.03497
1.03469
1.03386
1.03218
1.03094
1.03077
1.03076
1.03076
1.03076
1.0308
1.0309
1.03115
1.0315
1.03167
1.03168
1.03167
1.03162
1.03149
1.0311
1.02982
1.02606
1.01962
1.016
1.01564
1.01564
1.01567
1.01575
1.01586
1.01598
1.01612
1.01634
1.01679
1.01795
1.02078
1.02466
1.02625
1.02636
1.02636
1.0263
1.02607
1.0253
1.02315
1.01957
1.01768
1.01752
1.01754
1.01763
1.01794
1.01897
1.0221
1.02824
1.03262
1.03324
1.03326
1.03328
1.03329
1.03324
1.03282
1.03103
1.0251
1.01235
1.00186
1.00003
1
1
1
1
1
1
1
1
1
1
1
1
1
1
1
1
1
1
1
1
1
1
1
1
1
1
1
1
1
1
1
1
1
1
1
1
1
1
1
1
1
1
1
1
1
1
1
1
1
1
1
1
1
1
1
1
1
1
1
1
1
1
1
1
1
1
1
1
1
1
0.990783
0.978583
0.974775
0.973959
0.978266
0.993976
1.01764
1.02697
1.0271
1.02452
1.02024
1.00991
0.997186
0.992626
0.991708
0.991381
0.991599
0.991276
0.990318
0.988386
0.986369
0.985639
0.985909
0.989324
1.00058
1.01727
1.02425
1.0246
1.02434
1.02316
1.01864
1.00561
0.989491