/*--------------------------------*- C++ -*----------------------------------*\
  =========                 |
  \\      /  F ield         | OpenFOAM: The Open Source CFD Toolbox
   \\    /   O peration     | Website:  https://openfoam.org
    \\  /    A nd           | Version:  7
     \\/     M anipulation  |
\*---------------------------------------------------------------------------*/
FoamFile
{
    version     2.0;
    format      ascii;
    class       volScalarField;
    location    "0.5";
    object      rho;
}
// * * * * * * * * * * * * * * * * * * * * * * * * * * * * * * * * * * * * * //

dimensions      [1 -3 0 0 0 0 0];

internalField   nonuniform List<scalar> 
16192
(
1.44674
1.43181
1.42663
1.42306
1.42024
1.42063
1.42546
1.42696
1.42467
1.4217
1.41797
1.41076
1.40203
1.39914
1.39822
1.39763
1.3979
1.39908
1.39847
1.39709
1.39495
1.39022
1.38229
1.37815
1.37704
1.37609
1.37517
1.37445
1.37423
1.37772
1.39334
1.41907
1.43583
1.43934
1.4393
1.43903
1.43871
1.43812
1.43664
1.43242
1.42047
1.40036
1.38951
1.38773
1.38705
1.38644
1.38584
1.38527
1.3848
1.3848
1.38926
1.40681
1.44002
1.46439
1.46815
1.46808
1.46789
1.46766
1.46741
1.46692
1.46575
1.4647
1.46445
1.46435
1.46422
1.46407
1.46388
1.4636
1.46305
1.46255
1.4624
1.46231
1.46222
1.46217
1.46228
1.46351
1.46837
1.47857
1.48583
1.48668
1.48658
1.48595
1.48325
1.47499
1.4623
1.45678
1.45632
1.45625
1.45617
1.45609
1.456
1.45585
1.45545
1.45411
1.44959
1.4389
1.42852
1.42625
1.42615
1.42611
1.42608
1.42615
1.42686
1.42888
1.43075
1.43108
1.43107
1.43105
1.43104
1.43108
1.43126
1.43147
1.43151
1.43146
1.4314
1.43138
1.43137
1.43144
1.43177
1.43244
1.43313
1.43343
1.43352
1.43355
1.43354
1.43353
1.43348
1.43321
1.43228
1.43069
1.42956
1.42914
1.42892
1.42868
1.42841
1.42814
1.42791
1.42761
1.427
1.42538
1.42186
1.41877
1.41823
1.41824
1.41828
1.41837
1.41852
1.41867
1.41874
1.41876
1.41878
1.41884
1.41905
1.41974
1.42153
1.42395
1.42485
1.4249
1.42491
1.42487
1.42462
1.42357
1.42065
1.41692
1.41574
1.41571
1.41574
1.41589
1.41647
1.41853
1.42385
1.43036
1.43246
1.43258
1.4326
1.43262
1.43264
1.43259
1.4321
1.42996
1.42313
1.41001
1.40118
1.40002
1.40001
1.40001
1.40001
1.40001
1.40001
1.40001
1.40001
1.40001
1.40001
1.40001
1.40001
1.40001
1.40001
1.40001
1.40001
1.40001
1.40001
1.40001
1.40001
1.40001
1.40001
1.40001
1.40001
1.40001
1.40001
1.40001
1.40001
1.40001
1.40001
1.40001
1.40001
1.40001
1.40001
1.40001
1.40001
1.40001
1.40001
1.40001
1.40001
1.40001
1.40001
1.40001
1.40001
1.40001
1.40001
1.40001
1.40001
1.40001
1.40001
1.40001
1.40001
1.40001
1.40001
1.40001
1.40001
1.40001
1.40001
1.40001
1.40001
1.40001
1.40001
1.40001
1.40001
1.40001
1.40001
1.40001
1.40001
1.40001
1.40001
1.44308
1.42815
1.42249
1.4189
1.4158
1.41444
1.41709
1.42174
1.42041
1.41731
1.41445
1.41107
1.40527
1.39856
1.39634
1.39567
1.39558
1.39655
1.39624
1.39515
1.39337
1.38937
1.38185
1.37742
1.37616
1.37529
1.37443
1.37376
1.37376
1.37851
1.39527
1.42017
1.43467
1.43791
1.43811
1.4379
1.43751
1.43682
1.43534
1.43126
1.41968
1.40008
1.38907
1.38737
1.38681
1.38631
1.38583
1.38548
1.38548
1.3873
1.39425
1.41176
1.43871
1.45852
1.46598
1.46741
1.46738
1.46714
1.4669
1.46664
1.46618
1.46523
1.46434
1.46411
1.46401
1.46388
1.46371
1.46345
1.46297
1.46246
1.46231
1.46222
1.46213
1.46208
1.46219
1.46351
1.46859
1.4789
1.48588
1.48663
1.48653
1.48589
1.48316
1.47484
1.46215
1.45665
1.45619
1.45611
1.45603
1.45595
1.45586
1.4557
1.45531
1.45396
1.44945
1.43879
1.42846
1.42621
1.42613
1.42611
1.4261
1.42621
1.42688
1.42863
1.43053
1.43101
1.43101
1.43099
1.43099
1.43102
1.43112
1.43126
1.43139
1.43148
1.43149
1.43148
1.43148
1.43157
1.4319
1.43257
1.43324
1.43346
1.43346
1.43344
1.43341
1.43335
1.43323
1.43285
1.43185
1.43037
1.42954
1.42933
1.42921
1.42905
1.4288
1.4285
1.42819
1.42785
1.42717
1.42534
1.42162
1.41862
1.41814
1.41815
1.4182
1.41828
1.41841
1.41857
1.4187
1.41878
1.41884
1.41891
1.41912
1.41979
1.42155
1.42395
1.42487
1.42492
1.42491
1.42486
1.42457
1.42351
1.42069
1.41704
1.4158
1.41575
1.41578
1.41593
1.41652
1.41859
1.42392
1.43041
1.43246
1.43256
1.43258
1.43259
1.4326
1.4325
1.43194
1.42984
1.42322
1.4102
1.40122
1.40002
1.40001
1.40001
1.40001
1.40001
1.40001
1.40001
1.40001
1.40001
1.40001
1.40001
1.40001
1.40001
1.40001
1.40001
1.40001
1.40001
1.40001
1.40001
1.40001
1.40001
1.40001
1.40001
1.40001
1.40001
1.40001
1.40001
1.40001
1.40001
1.40001
1.40001
1.40001
1.40001
1.40001
1.40001
1.40001
1.40001
1.40001
1.40001
1.40001
1.40001
1.40001
1.40001
1.40001
1.40001
1.40001
1.40001
1.40001
1.40001
1.40001
1.40001
1.40001
1.40001
1.40001
1.40001
1.40001
1.40001
1.40001
1.40001
1.40001
1.40001
1.40001
1.40001
1.40001
1.40001
1.40001
1.40001
1.40001
1.40001
1.40001
1.43438
1.42457
1.41991
1.41623
1.41272
1.41031
1.41101
1.4213
1.4279
1.42474
1.42017
1.4164
1.41255
1.40752
1.40245
1.39978
1.39873
1.3981
1.3973
1.39614
1.39401
1.38861
1.37924
1.37461
1.37381
1.37311
1.37239
1.37184
1.37225
1.37897
1.39884
1.42341
1.43429
1.43663
1.4375
1.4376
1.43739
1.43689
1.43564
1.43139
1.41871
1.39758
1.38697
1.38573
1.38531
1.3849
1.38453
1.38429
1.38457
1.38812
1.39913
1.41991
1.44211
1.45426
1.46001
1.46438
1.46719
1.46773
1.46752
1.46718
1.46681
1.46619
1.46516
1.4643
1.46398
1.46382
1.46367
1.46341
1.46289
1.46229
1.46207
1.46196
1.46185
1.46177
1.46189
1.46335
1.46885
1.47945
1.48609
1.4867
1.48658
1.48589
1.48313
1.47471
1.46204
1.45668
1.45624
1.45617
1.45609
1.45601
1.45592
1.45576
1.45537
1.45402
1.44951
1.43886
1.42856
1.42633
1.42625
1.42623
1.42622
1.42633
1.42696
1.42869
1.43055
1.43099
1.43098
1.43097
1.43096
1.43097
1.43099
1.43109
1.43127
1.43144
1.43154
1.43157
1.43159
1.4317
1.43206
1.43274
1.43328
1.43341
1.43343
1.43343
1.4334
1.43334
1.43313
1.43254
1.43128
1.42997
1.42955
1.42947
1.42941
1.42931
1.42915
1.42893
1.42864
1.42822
1.42736
1.42523
1.4213
1.41845
1.41804
1.41805
1.41809
1.41816
1.41828
1.41845
1.41864
1.41878
1.41888
1.41898
1.41921
1.41988
1.42159
1.42395
1.42486
1.42491
1.4249
1.42485
1.42456
1.42351
1.42069
1.41705
1.41582
1.41578
1.41581
1.41595
1.41654
1.4186
1.42394
1.43044
1.43247
1.43256
1.43258
1.43259
1.43259
1.4325
1.43195
1.42981
1.42306
1.40999
1.40117
1.40002
1.40001
1.40001
1.40001
1.40001
1.40001
1.40001
1.40001
1.40001
1.40001
1.40001
1.40001
1.40001
1.40001
1.40001
1.40001
1.40001
1.40001
1.40001
1.40001
1.40001
1.40001
1.40001
1.40001
1.40001
1.40001
1.40001
1.40001
1.40001
1.40001
1.40001
1.40001
1.40001
1.40001
1.40001
1.40001
1.40001
1.40001
1.40001
1.40001
1.40001
1.40001
1.40001
1.40001
1.40001
1.40001
1.40001
1.40001
1.40001
1.40001
1.40001
1.40001
1.40001
1.40001
1.40001
1.40001
1.40001
1.40001
1.40001
1.40001
1.40001
1.40001
1.40001
1.40001
1.40001
1.40001
1.40001
1.40001
1.40001
1.40001
1.41981
1.41462
1.41129
1.40831
1.40531
1.40309
1.40378
1.41521
1.42728
1.42839
1.42527
1.42153
1.41785
1.41412
1.41011
1.40546
1.40086
1.39832
1.3971
1.39567
1.39315
1.3879
1.37971
1.37509
1.37378
1.37284
1.37199
1.37144
1.37216
1.38067
1.40362
1.42621
1.43345
1.43516
1.43635
1.43689
1.43679
1.43631
1.43488
1.43018
1.41681
1.39688
1.38786
1.38656
1.38603
1.38562
1.38525
1.38502
1.38542
1.39006
1.40503
1.42926
1.44609
1.45155
1.45444
1.45899
1.46519
1.46775
1.46777
1.4676
1.46732
1.46684
1.46602
1.46487
1.46397
1.46364
1.46343
1.46313
1.46255
1.46205
1.46191
1.46183
1.46175
1.46171
1.46195
1.46362
1.46943
1.48014
1.48628
1.48676
1.48662
1.48588
1.48298
1.47436
1.46177
1.45664
1.45623
1.45615
1.45607
1.45599
1.4559
1.45575
1.45535
1.454
1.44949
1.43884
1.42856
1.42635
1.42628
1.42626
1.42624
1.42634
1.42699
1.42877
1.43056
1.43093
1.43091
1.43089
1.43088
1.43087
1.43087
1.43095
1.43115
1.43137
1.43153
1.43162
1.43171
1.4319
1.43237
1.433
1.43326
1.43328
1.43329
1.43329
1.43325
1.43314
1.43285
1.43209
1.43077
1.42988
1.42972
1.42969
1.42966
1.4296
1.42951
1.42935
1.4291
1.42864
1.42761
1.42514
1.42092
1.41823
1.4179
1.41791
1.41794
1.41801
1.41813
1.41832
1.41856
1.41877
1.41892
1.41906
1.41931
1.41998
1.42167
1.42397
1.42486
1.42491
1.4249
1.42485
1.42457
1.42351
1.42067
1.41705
1.41586
1.41582
1.41585
1.41599
1.41659
1.41867
1.42404
1.43053
1.43254
1.43263
1.43265
1.43267
1.43267
1.4326
1.43206
1.42985
1.42291
1.40972
1.40109
1.40002
1.40001
1.40001
1.40001
1.40001
1.40001
1.40001
1.40001
1.40001
1.40001
1.40001
1.40001
1.40001
1.40001
1.40001
1.40001
1.40001
1.40001
1.40001
1.40001
1.40001
1.40001
1.40001
1.40001
1.40001
1.40001
1.40001
1.40001
1.40001
1.40001
1.40001
1.40001
1.40001
1.40001
1.40001
1.40001
1.40001
1.40001
1.40001
1.40001
1.40001
1.40001
1.40001
1.40001
1.40001
1.40001
1.40001
1.40001
1.40001
1.40001
1.40001
1.40001
1.40001
1.40001
1.40001
1.40001
1.40001
1.40001
1.40001
1.40001
1.40001
1.40001
1.40001
1.40001
1.40001
1.40001
1.40001
1.40001
1.40001
1.40001
1.40395
1.40149
1.40018
1.39873
1.39731
1.39626
1.39739
1.40677
1.42152
1.43056
1.43099
1.42877
1.42558
1.42177
1.41726
1.41189
1.40635
1.4018
1.3981
1.39493
1.39166
1.38648
1.37901
1.37432
1.37263
1.37156
1.37067
1.37018
1.3716
1.38338
1.40888
1.42797
1.43295
1.43455
1.4359
1.43639
1.43625
1.43551
1.43342
1.42771
1.41385
1.39548
1.38773
1.38644
1.38575
1.38521
1.3848
1.38456
1.38566
1.39391
1.41524
1.43843
1.44678
1.44827
1.44966
1.45363
1.46159
1.46742
1.46824
1.46815
1.46791
1.46746
1.4667
1.46564
1.46456
1.46375
1.46318
1.46259
1.462
1.46179
1.46171
1.46163
1.46157
1.46154
1.46184
1.46379
1.47016
1.48101
1.48652
1.48686
1.48671
1.48594
1.48289
1.47397
1.46136
1.45645
1.45608
1.456
1.45593
1.45585
1.45576
1.45561
1.45522
1.45388
1.44938
1.43876
1.42855
1.42636
1.42628
1.42626
1.42624
1.42633
1.42701
1.42883
1.43058
1.4309
1.43087
1.43084
1.43082
1.43081
1.43081
1.43088
1.43106
1.43131
1.43152
1.43166
1.43182
1.43212
1.43268
1.43315
1.43323
1.43321
1.43318
1.43314
1.43305
1.43286
1.43246
1.43163
1.4305
1.43
1.42996
1.42995
1.42994
1.4299
1.42983
1.42971
1.42949
1.42902
1.42788
1.42508
1.42056
1.41801
1.41776
1.41777
1.4178
1.41787
1.41798
1.41818
1.41845
1.41872
1.41892
1.4191
1.41939
1.42008
1.42178
1.42403
1.42487
1.42491
1.42491
1.42486
1.42457
1.4235
1.42065
1.41706
1.41591
1.41587
1.4159
1.41605
1.41664
1.41875
1.42414
1.43056
1.43249
1.43258
1.4326
1.43261
1.43262
1.43254
1.43198
1.42973
1.42266
1.40942
1.40102
1.40002
1.40001
1.40001
1.40001
1.40001
1.40001
1.40001
1.40001
1.40001
1.40001
1.40001
1.40001
1.40001
1.40001
1.40001
1.40001
1.40001
1.40001
1.40001
1.40001
1.40001
1.40001
1.40001
1.40001
1.40001
1.40001
1.40001
1.40001
1.40001
1.40001
1.40001
1.40001
1.40001
1.40001
1.40001
1.40001
1.40001
1.40001
1.40001
1.40001
1.40001
1.40001
1.40001
1.40001
1.40001
1.40001
1.40001
1.40001
1.40001
1.40001
1.40001
1.40001
1.40001
1.40001
1.40001
1.40001
1.40001
1.40001
1.40001
1.40001
1.40001
1.40001
1.40001
1.40001
1.40001
1.40001
1.40001
1.40001
1.40001
1.40001
1.38965
1.3882
1.38748
1.38702
1.38673
1.38778
1.3923
1.4009
1.41372
1.4269
1.4341
1.43421
1.4326
1.42935
1.42441
1.41836
1.41207
1.40618
1.40086
1.39584
1.3909
1.38519
1.37773
1.3714
1.36959
1.36863
1.36789
1.36774
1.37187
1.38858
1.41451
1.42845
1.43181
1.43356
1.43506
1.43536
1.43515
1.43423
1.43167
1.425
1.4102
1.39299
1.3867
1.38536
1.38457
1.38404
1.38369
1.38372
1.38716
1.40206
1.42854
1.44277
1.44429
1.44426
1.44508
1.44921
1.45847
1.46698
1.46879
1.46875
1.46856
1.46812
1.46734
1.46626
1.46506
1.46396
1.463
1.46211
1.46172
1.4616
1.4615
1.4614
1.46133
1.46131
1.46172
1.464
1.47103
1.48197
1.48679
1.487
1.48683
1.48598
1.48273
1.47341
1.46087
1.45642
1.45611
1.45604
1.45596
1.45589
1.4558
1.45565
1.45525
1.45392
1.44943
1.43886
1.42865
1.42644
1.42636
1.42633
1.42632
1.42641
1.42708
1.42887
1.43054
1.43083
1.43081
1.43078
1.43076
1.43075
1.43075
1.43082
1.43105
1.43133
1.43155
1.43171
1.43194
1.43235
1.43292
1.43317
1.43316
1.4331
1.43303
1.43292
1.43273
1.43246
1.43202
1.43128
1.43049
1.43024
1.43023
1.43024
1.43023
1.4302
1.43014
1.43004
1.42983
1.42935
1.42812
1.42506
1.42027
1.41781
1.4176
1.41761
1.41765
1.41773
1.41784
1.41803
1.41832
1.41864
1.4189
1.41913
1.41945
1.42019
1.42192
1.42411
1.42489
1.42493
1.42492
1.42487
1.42457
1.42348
1.42061
1.41707
1.41597
1.41593
1.41597
1.41612
1.41674
1.41887
1.42429
1.43062
1.4325
1.43259
1.43261
1.43262
1.43263
1.43254
1.43196
1.42962
1.42235
1.40906
1.40093
1.40001
1.40001
1.40001
1.40001
1.40001
1.40001
1.40001
1.40001
1.40001
1.40001
1.40001
1.40001
1.40001
1.40001
1.40001
1.40001
1.40001
1.40001
1.40001
1.40001
1.40001
1.40001
1.40001
1.40001
1.40001
1.40001
1.40001
1.40001
1.40001
1.40001
1.40001
1.40001
1.40001
1.40001
1.40001
1.40001
1.40001
1.40001
1.40001
1.40001
1.40001
1.40001
1.40001
1.40001
1.40001
1.40001
1.40001
1.40001
1.40001
1.40001
1.40001
1.40001
1.40001
1.40001
1.40001
1.40001
1.40001
1.40001
1.40001
1.40001
1.40001
1.40001
1.40001
1.40001
1.40001
1.40001
1.40001
1.40001
1.40001
1.40001
1.37809
1.37716
1.377
1.3775
1.37816
1.38051
1.38651
1.39525
1.40597
1.41971
1.43204
1.43653
1.4363
1.43462
1.43052
1.42457
1.41784
1.4103
1.40227
1.39564
1.38935
1.38207
1.37552
1.37212
1.37055
1.36941
1.36866
1.36885
1.3754
1.39614
1.41937
1.4279
1.43002
1.43186
1.43325
1.4334
1.43319
1.43208
1.42886
1.42066
1.40534
1.3926
1.3887
1.38737
1.38639
1.38576
1.38541
1.38584
1.39275
1.41462
1.4368
1.44129
1.44085
1.4406
1.44155
1.44592
1.45585
1.4664
1.46931
1.46936
1.46922
1.46881
1.46804
1.46697
1.46563
1.46398
1.46238
1.46168
1.46151
1.46139
1.46127
1.46117
1.46111
1.4611
1.46163
1.46432
1.47211
1.48302
1.48707
1.4872
1.487
1.48606
1.48252
1.47271
1.46032
1.45633
1.45607
1.456
1.45593
1.45585
1.45577
1.45562
1.45522
1.45388
1.44939
1.43884
1.42868
1.42648
1.4264
1.42637
1.42636
1.42647
1.42715
1.4289
1.43046
1.43073
1.43071
1.43069
1.43067
1.43067
1.43072
1.43089
1.43113
1.43137
1.43156
1.43171
1.43194
1.43244
1.43298
1.43303
1.43298
1.43294
1.43285
1.43267
1.43242
1.43212
1.43173
1.43112
1.4306
1.43048
1.43049
1.4305
1.43049
1.43047
1.43042
1.43032
1.43011
1.42963
1.42834
1.42508
1.42009
1.41764
1.41744
1.41746
1.4175
1.41757
1.41769
1.41788
1.41818
1.41853
1.41885
1.41912
1.41949
1.42029
1.42208
1.42423
1.42492
1.42495
1.42495
1.42489
1.42458
1.42346
1.42057
1.41709
1.41603
1.416
1.41603
1.41619
1.41682
1.41899
1.42444
1.43072
1.43252
1.43261
1.43263
1.43264
1.43265
1.43255
1.43194
1.42949
1.42199
1.40863
1.40084
1.40001
1.40001
1.40001
1.40001
1.40001
1.40001
1.40001
1.40001
1.40001
1.40001
1.40001
1.40001
1.40001
1.40001
1.40001
1.40001
1.40001
1.40001
1.40001
1.40001
1.40001
1.40001
1.40001
1.40001
1.40001
1.40001
1.40001
1.40001
1.40001
1.40001
1.40001
1.40001
1.40001
1.40001
1.40001
1.40001
1.40001
1.40001
1.40001
1.40001
1.40001
1.40001
1.40001
1.40001
1.40001
1.40001
1.40001
1.40001
1.40001
1.40001
1.40001
1.40001
1.40001
1.40001
1.40001
1.40001
1.40001
1.40001
1.40001
1.40001
1.40001
1.40001
1.40001
1.40001
1.40001
1.40001
1.40001
1.40001
1.40001
1.40001
1.37455
1.37541
1.37833
1.37934
1.37925
1.38005
1.38425
1.39128
1.39926
1.41064
1.42603
1.43637
1.43825
1.43801
1.43577
1.43043
1.42277
1.41287
1.40205
1.39255
1.38607
1.38124
1.37609
1.37243
1.37094
1.36987
1.36924
1.37037
1.38106
1.40541
1.42342
1.42719
1.4283
1.42994
1.43116
1.43129
1.43119
1.42999
1.42548
1.41417
1.3984
1.39054
1.38895
1.38808
1.38733
1.38682
1.38673
1.38949
1.40322
1.42722
1.43806
1.43825
1.43766
1.4376
1.4388
1.44327
1.45352
1.4657
1.46979
1.46996
1.46989
1.46955
1.46881
1.46771
1.4661
1.4638
1.4619
1.46139
1.46123
1.4611
1.46097
1.46088
1.46082
1.46084
1.46154
1.46476
1.47344
1.48412
1.48733
1.48738
1.48716
1.48614
1.4823
1.47201
1.45981
1.45619
1.45596
1.45588
1.45579
1.4557
1.45561
1.45546
1.45508
1.45377
1.44931
1.4388
1.42868
1.42651
1.42643
1.4264
1.42639
1.4265
1.42723
1.42902
1.43051
1.43073
1.43072
1.4307
1.43069
1.43069
1.43074
1.43093
1.4312
1.43141
1.43155
1.43168
1.43191
1.43241
1.43297
1.43307
1.43302
1.4329
1.43276
1.43257
1.43233
1.43202
1.43158
1.43101
1.43071
1.43069
1.43069
1.43071
1.43071
1.43068
1.43063
1.43054
1.43035
1.42987
1.42857
1.42522
1.42006
1.41748
1.41728
1.41729
1.41733
1.41741
1.41753
1.41773
1.41803
1.4184
1.41874
1.41906
1.41948
1.42038
1.42228
1.42438
1.42497
1.42499
1.42499
1.42492
1.42459
1.42344
1.4205
1.4171
1.41613
1.4161
1.41613
1.4163
1.41694
1.41915
1.42464
1.43083
1.43256
1.43263
1.43265
1.43267
1.43267
1.43257
1.43191
1.42934
1.42156
1.40814
1.40073
1.40001
1.40001
1.40001
1.40001
1.40001
1.40001
1.40001
1.40001
1.40001
1.40001
1.40001
1.40001
1.40001
1.40001
1.40001
1.40001
1.40001
1.40001
1.40001
1.40001
1.40001
1.40001
1.40001
1.40001
1.40001
1.40001
1.40001
1.40001
1.40001
1.40001
1.40001
1.40001
1.40001
1.40001
1.40001
1.40001
1.40001
1.40001
1.40001
1.40001
1.40001
1.40001
1.40001
1.40001
1.40001
1.40001
1.40001
1.40001
1.40001
1.40001
1.40001
1.40001
1.40001
1.40001
1.40001
1.40001
1.40001
1.40001
1.40001
1.40001
1.40001
1.40001
1.40001
1.40001
1.40001
1.40001
1.40001
1.40001
1.40001
1.40001
1.3739
1.3738
1.37918
1.38312
1.38311
1.38288
1.38344
1.38658
1.39266
1.4023
1.41809
1.43348
1.43922
1.43948
1.43834
1.4343
1.42634
1.41371
1.39864
1.38752
1.38228
1.37896
1.37581
1.3737
1.37232
1.37128
1.37076
1.37344
1.38914
1.41401
1.42512
1.42652
1.42684
1.42787
1.42873
1.42887
1.42883
1.42727
1.42016
1.40508
1.3932
1.39075
1.39005
1.38948
1.38898
1.38874
1.38964
1.39714
1.41694
1.43366
1.43606
1.43553
1.43514
1.43522
1.43649
1.44089
1.45133
1.4649
1.47028
1.47065
1.47062
1.47033
1.4696
1.46837
1.4663
1.46344
1.46165
1.46122
1.46103
1.46089
1.46076
1.46066
1.46059
1.46063
1.4615
1.46534
1.47498
1.48517
1.48758
1.48758
1.48734
1.48625
1.48208
1.47122
1.45917
1.45601
1.45586
1.45581
1.45575
1.45569
1.45561
1.45548
1.45511
1.45378
1.44926
1.43866
1.42865
1.42655
1.42648
1.42645
1.42644
1.42658
1.42736
1.42917
1.43055
1.43073
1.43071
1.43069
1.43068
1.43069
1.43078
1.43095
1.43119
1.43139
1.43151
1.43162
1.43181
1.43224
1.43283
1.43303
1.43301
1.43295
1.43282
1.43262
1.43235
1.43198
1.43142
1.43091
1.4308
1.43081
1.43084
1.43087
1.43087
1.43084
1.4308
1.43072
1.43054
1.43009
1.42882
1.42548
1.42014
1.41735
1.41711
1.41712
1.41716
1.41724
1.41737
1.41759
1.4179
1.41826
1.41861
1.41894
1.41943
1.42045
1.42252
1.42455
1.42504
1.42505
1.42505
1.42496
1.42461
1.42341
1.42041
1.41709
1.41621
1.41619
1.41623
1.4164
1.41707
1.41932
1.42486
1.43095
1.43259
1.43266
1.43268
1.4327
1.4327
1.43258
1.43188
1.42916
1.42106
1.40759
1.40063
1.40001
1.40001
1.40001
1.40001
1.40001
1.40001
1.40001
1.40001
1.40001
1.40001
1.40001
1.40001
1.40001
1.40001
1.40001
1.40001
1.40001
1.40001
1.40001
1.40001
1.40001
1.40001
1.40001
1.40001
1.40001
1.40001
1.40001
1.40001
1.40001
1.40001
1.40001
1.40001
1.40001
1.40001
1.40001
1.40001
1.40001
1.40001
1.40001
1.40001
1.40001
1.40001
1.40001
1.40001
1.40001
1.40001
1.40001
1.40001
1.40001
1.40001
1.40001
1.40001
1.40001
1.40001
1.40001
1.40001
1.40001
1.40001
1.40001
1.40001
1.40001
1.40001
1.40001
1.40001
1.40001
1.40001
1.40001
1.40001
1.40001
1.40001
1.37258
1.37183
1.37739
1.3856
1.38556
1.38466
1.38446
1.38472
1.3879
1.39621
1.41113
1.42922
1.4377
1.43843
1.43777
1.43484
1.42714
1.41179
1.39212
1.38328
1.38114
1.37926
1.37684
1.37517
1.374
1.37303
1.37282
1.37875
1.39964
1.42027
1.42503
1.42504
1.42498
1.4255
1.42629
1.42647
1.42627
1.42279
1.41056
1.39597
1.39181
1.39119
1.39079
1.39046
1.39026
1.39073
1.3953
1.40998
1.42856
1.43405
1.43375
1.43319
1.43302
1.43312
1.43432
1.43865
1.44928
1.46402
1.4707
1.47128
1.47126
1.47103
1.47036
1.46897
1.46635
1.46302
1.46129
1.46088
1.4607
1.46057
1.46045
1.46036
1.4603
1.46039
1.46157
1.46618
1.47672
1.48612
1.48782
1.48779
1.48753
1.48632
1.48178
1.47036
1.45859
1.45586
1.45577
1.45575
1.4557
1.45563
1.45556
1.45544
1.45507
1.45375
1.44919
1.43853
1.42862
1.4266
1.42652
1.42649
1.42648
1.42665
1.42753
1.42938
1.43061
1.43072
1.4307
1.43068
1.43068
1.43072
1.43086
1.43101
1.43114
1.43124
1.43131
1.43139
1.43161
1.43215
1.43286
1.43309
1.43309
1.43305
1.43294
1.43275
1.43245
1.43193
1.43122
1.43088
1.43087
1.43088
1.43093
1.43098
1.43099
1.43097
1.43093
1.43085
1.43069
1.43028
1.42909
1.42584
1.42036
1.41725
1.41694
1.41695
1.41699
1.41707
1.41721
1.41744
1.41775
1.4181
1.41844
1.41878
1.41933
1.42051
1.42278
1.42474
1.42512
1.42513
1.42512
1.42502
1.42464
1.42337
1.42032
1.41711
1.41633
1.41632
1.41636
1.41654
1.41722
1.41953
1.42512
1.43109
1.43263
1.4327
1.43271
1.43273
1.43273
1.4326
1.43184
1.42894
1.42047
1.40699
1.40052
1.40001
1.40001
1.40001
1.40001
1.40001
1.40001
1.40001
1.40001
1.40001
1.40001
1.40001
1.40001
1.40001
1.40001
1.40001
1.40001
1.40001
1.40001
1.40001
1.40001
1.40001
1.40001
1.40001
1.40001
1.40001
1.40001
1.40001
1.40001
1.40001
1.40001
1.40001
1.40001
1.40001
1.40001
1.40001
1.40001
1.40001
1.40001
1.40001
1.40001
1.40001
1.40001
1.40001
1.40001
1.40001
1.40001
1.40001
1.40001
1.40001
1.40001
1.40001
1.40001
1.40001
1.40001
1.40001
1.40001
1.40001
1.40001
1.40001
1.40001
1.40001
1.40001
1.40001
1.40001
1.40001
1.40001
1.40001
1.40001
1.40001
1.40001
1.37022
1.36953
1.37412
1.38589
1.38836
1.38731
1.38642
1.38708
1.38975
1.39521
1.40602
1.42247
1.43408
1.43607
1.43589
1.43379
1.42581
1.40635
1.38667
1.38115
1.37978
1.37833
1.37694
1.37579
1.3749
1.37431
1.37591
1.38856
1.41187
1.42279
1.42321
1.42296
1.42292
1.42325
1.42367
1.42374
1.42231
1.41403
1.39866
1.39192
1.39143
1.39112
1.39087
1.39067
1.39127
1.39497
1.40654
1.42499
1.43286
1.43281
1.43186
1.43128
1.43107
1.43105
1.432
1.4364
1.44773
1.46371
1.47118
1.47187
1.47186
1.4717
1.47105
1.46944
1.4663
1.46259
1.46091
1.46057
1.46042
1.46028
1.46016
1.46007
1.46001
1.46016
1.46167
1.46722
1.4786
1.48692
1.48802
1.48797
1.48766
1.48631
1.48133
1.46937
1.4581
1.4558
1.4557
1.45564
1.45555
1.45548
1.45542
1.4553
1.45497
1.45365
1.44904
1.43832
1.42855
1.42665
1.42658
1.42655
1.42655
1.42675
1.42774
1.42961
1.43066
1.43072
1.4307
1.43069
1.43069
1.43077
1.43091
1.43104
1.43109
1.43108
1.43107
1.4311
1.43133
1.43202
1.43293
1.43323
1.43324
1.43322
1.43313
1.43294
1.43256
1.43181
1.43103
1.43083
1.43084
1.43088
1.43097
1.43106
1.43107
1.43106
1.43102
1.43096
1.43082
1.43045
1.42936
1.42628
1.42075
1.41721
1.41679
1.41679
1.41683
1.41691
1.41705
1.41728
1.41758
1.4179
1.41821
1.41857
1.41919
1.42057
1.42307
1.42493
1.42522
1.42523
1.42521
1.42509
1.42468
1.42333
1.42022
1.41713
1.41644
1.41644
1.41648
1.41667
1.41738
1.41975
1.42539
1.43124
1.43268
1.43274
1.43275
1.43277
1.43277
1.43262
1.43179
1.42869
1.41979
1.40635
1.40043
1.40001
1.40001
1.40001
1.40001
1.40001
1.40001
1.40001
1.40001
1.40001
1.40001
1.40001
1.40001
1.40001
1.40001
1.40001
1.40001
1.40001
1.40001
1.40001
1.40001
1.40001
1.40001
1.40001
1.40001
1.40001
1.40001
1.40001
1.40001
1.40001
1.40001
1.40001
1.40001
1.40001
1.40001
1.40001
1.40001
1.40001
1.40001
1.40001
1.40001
1.40001
1.40001
1.40001
1.40001
1.40001
1.40001
1.40001
1.40001
1.40001
1.40001
1.40001
1.40001
1.40001
1.40001
1.40001
1.40001
1.40001
1.40001
1.40001
1.40001
1.40001
1.40001
1.40001
1.40001
1.40001
1.40001
1.40001
1.40001
1.40001
1.40001
1.36669
1.36592
1.369
1.38315
1.39205
1.39202
1.3907
1.39067
1.39307
1.39744
1.40412
1.4157
1.4272
1.43053
1.4307
1.42958
1.42347
1.4089
1.38939
1.38033
1.37842
1.37742
1.37649
1.37574
1.37515
1.37535
1.3817
1.40219
1.42159
1.42442
1.42369
1.42307
1.42258
1.42213
1.42156
1.42002
1.41403
1.4005
1.39124
1.39024
1.39015
1.39004
1.38999
1.39123
1.39513
1.40515
1.42288
1.43303
1.43331
1.43201
1.43018
1.42933
1.42904
1.42893
1.42972
1.43433
1.44683
1.46406
1.47158
1.47223
1.47223
1.47211
1.47145
1.46956
1.4659
1.46215
1.46076
1.46045
1.46027
1.46012
1.46
1.4599
1.45984
1.46006
1.46193
1.4685
1.48051
1.48755
1.4882
1.48812
1.48775
1.48624
1.4808
1.46832
1.45757
1.45566
1.45559
1.45556
1.45555
1.45553
1.45545
1.45529
1.45489
1.45352
1.44883
1.43809
1.4285
1.42668
1.42663
1.42661
1.42661
1.42689
1.42801
1.42986
1.43068
1.43071
1.43069
1.43068
1.43071
1.43081
1.43091
1.4309
1.43085
1.43081
1.43079
1.43081
1.43108
1.43196
1.43308
1.43344
1.43347
1.43346
1.43337
1.43314
1.43259
1.4316
1.43089
1.4308
1.4308
1.43084
1.43095
1.43111
1.43114
1.43113
1.4311
1.43105
1.43092
1.4306
1.42961
1.42678
1.42128
1.41724
1.41664
1.41664
1.41667
1.41675
1.41689
1.41711
1.41738
1.41766
1.41795
1.41833
1.41904
1.42065
1.42337
1.42512
1.42534
1.42534
1.42531
1.42518
1.42473
1.4233
1.42012
1.41717
1.41657
1.41657
1.41662
1.41682
1.41756
1.42
1.4257
1.4314
1.43273
1.43278
1.43279
1.43281
1.43281
1.43263
1.43173
1.42839
1.41902
1.40568
1.40034
1.40001
1.40001
1.40001
1.40001
1.40001
1.40001
1.40001
1.40001
1.40001
1.40001
1.40001
1.40001
1.40001
1.40001
1.40001
1.40001
1.40001
1.40001
1.40001
1.40001
1.40001
1.40001
1.40001
1.40001
1.40001
1.40001
1.40001
1.40001
1.40001
1.40001
1.40001
1.40001
1.40001
1.40001
1.40001
1.40001
1.40001
1.40001
1.40001
1.40001
1.40001
1.40001
1.40001
1.40001
1.40001
1.40001
1.40001
1.40001
1.40001
1.40001
1.40001
1.40001
1.40001
1.40001
1.40001
1.40001
1.40001
1.40001
1.40001
1.40001
1.40001
1.40001
1.40001
1.40001
1.40001
1.40001
1.40001
1.40001
1.40001
1.40001
1.36007
1.35947
1.36272
1.37936
1.39603
1.39866
1.39841
1.39761
1.39821
1.40064
1.40427
1.4108
1.41975
1.42346
1.42364
1.42289
1.41895
1.40903
1.39251
1.37974
1.37694
1.37618
1.37553
1.37504
1.37496
1.37771
1.39112
1.41533
1.42624
1.426
1.42494
1.4242
1.42346
1.4222
1.41969
1.41337
1.40021
1.3893
1.38758
1.38758
1.38762
1.38799
1.38968
1.39388
1.4036
1.42146
1.43416
1.43509
1.4338
1.43103
1.42822
1.42724
1.4269
1.42676
1.42754
1.4327
1.44694
1.46501
1.47176
1.47222
1.47223
1.47216
1.47157
1.46953
1.4654
1.4616
1.46046
1.46022
1.46006
1.45991
1.4598
1.45971
1.45966
1.46001
1.46241
1.47013
1.48239
1.48801
1.48834
1.48824
1.48781
1.48611
1.48016
1.4672
1.45707
1.45551
1.45546
1.45544
1.45546
1.45549
1.45542
1.45528
1.4549
1.45349
1.44871
1.43789
1.42842
1.42666
1.42662
1.4266
1.42664
1.42704
1.42836
1.43011
1.43069
1.43069
1.43067
1.43067
1.43071
1.43081
1.4308
1.43072
1.4306
1.43053
1.43052
1.43056
1.43093
1.43205
1.43334
1.43371
1.43373
1.43372
1.43361
1.43329
1.43249
1.43133
1.43081
1.43078
1.43078
1.4308
1.43092
1.43113
1.4312
1.4312
1.43117
1.43112
1.43101
1.43072
1.42986
1.42732
1.42195
1.41735
1.41649
1.41648
1.4165
1.41658
1.41671
1.41691
1.41715
1.4174
1.41767
1.41807
1.41887
1.42073
1.42367
1.4253
1.42546
1.42547
1.42543
1.42529
1.42479
1.42326
1.41999
1.4172
1.4167
1.4167
1.41676
1.41697
1.41774
1.42027
1.42604
1.43157
1.43278
1.43283
1.43284
1.43286
1.43285
1.43265
1.43166
1.42803
1.41815
1.40499
1.40026
1.40001
1.40001
1.40001
1.40001
1.40001
1.40001
1.40001
1.40001
1.40001
1.40001
1.40001
1.40001
1.40001
1.40001
1.40001
1.40001
1.40001
1.40001
1.40001
1.40001
1.40001
1.40001
1.40001
1.40001
1.40001
1.40001
1.40001
1.40001
1.40001
1.40001
1.40001
1.40001
1.40001
1.40001
1.40001
1.40001
1.40001
1.40001
1.40001
1.40001
1.40001
1.40001
1.40001
1.40001
1.40001
1.40001
1.40001
1.40001
1.40001
1.40001
1.40001
1.40001
1.40001
1.40001
1.40001
1.40001
1.40001
1.40001
1.40001
1.40001
1.40001
1.40001
1.40001
1.40001
1.40001
1.40001
1.40001
1.40001
1.40001
1.40001
1.35538
1.35579
1.36052
1.37775
1.39946
1.40629
1.4068
1.4063
1.40419
1.40323
1.40398
1.40667
1.41238
1.41693
1.41736
1.41688
1.41448
1.40856
1.39679
1.38342
1.37814
1.37701
1.37636
1.37588
1.37615
1.38196
1.40122
1.42314
1.42762
1.42688
1.42581
1.42484
1.42363
1.42117
1.41459
1.40077
1.38749
1.38455
1.38455
1.38476
1.38535
1.38702
1.39124
1.40061
1.41864
1.43492
1.43744
1.43654
1.43395
1.42957
1.42604
1.42512
1.42477
1.42462
1.42557
1.43184
1.44829
1.46642
1.47181
1.47214
1.47214
1.47208
1.47146
1.46928
1.46489
1.46099
1.46001
1.45983
1.45969
1.45956
1.45946
1.45939
1.45937
1.45992
1.46303
1.47209
1.48415
1.48834
1.48847
1.48834
1.48785
1.48593
1.47938
1.46596
1.45656
1.45533
1.4553
1.45528
1.45533
1.4554
1.45536
1.45523
1.45485
1.45342
1.44859
1.43774
1.42831
1.42657
1.42653
1.42653
1.42662
1.4272
1.42877
1.43038
1.4307
1.43068
1.43066
1.43066
1.43069
1.43066
1.43058
1.43043
1.43031
1.43028
1.43027
1.43037
1.43095
1.43236
1.43369
1.43398
1.43399
1.43397
1.43382
1.43333
1.43222
1.43105
1.43076
1.43075
1.43074
1.43076
1.43089
1.43113
1.43124
1.43125
1.43123
1.43118
1.43108
1.43084
1.4301
1.42786
1.42273
1.41758
1.41635
1.41632
1.41633
1.4164
1.41653
1.4167
1.41691
1.41713
1.41738
1.4178
1.4187
1.4208
1.42393
1.42548
1.42561
1.42561
1.42557
1.42541
1.42486
1.42322
1.41986
1.41725
1.41684
1.41685
1.41691
1.41713
1.41794
1.42056
1.42641
1.43174
1.43283
1.43287
1.43289
1.4329
1.43289
1.43266
1.43156
1.4276
1.41718
1.4043
1.40019
1.40001
1.40001
1.40001
1.40001
1.40001
1.40001
1.40001
1.40001
1.40001
1.40001
1.40001
1.40001
1.40001
1.40001
1.40001
1.40001
1.40001
1.40001
1.40001
1.40001
1.40001
1.40001
1.40001
1.40001
1.40001
1.40001
1.40001
1.40001
1.40001
1.40001
1.40001
1.40001
1.40001
1.40001
1.40001
1.40001
1.40001
1.40001
1.40001
1.40001
1.40001
1.40001
1.40001
1.40001
1.40001
1.40001
1.40001
1.40001
1.40001
1.40001
1.40001
1.40001
1.40001
1.40001
1.40001
1.40001
1.40001
1.40001
1.40001
1.40001
1.40001
1.40001
1.40001
1.40001
1.40001
1.40001
1.40001
1.40001
1.40001
1.40001
1.3538
1.35516
1.35957
1.37402
1.39808
1.40998
1.4109
1.41074
1.40916
1.40497
1.40334
1.40402
1.40686
1.41125
1.41262
1.41233
1.41092
1.40718
1.39889
1.38608
1.37868
1.37715
1.37657
1.37638
1.37803
1.3878
1.41007
1.42609
1.42755
1.42667
1.42573
1.42472
1.42277
1.41708
1.4033
1.38708
1.38221
1.38203
1.38208
1.38262
1.38417
1.38782
1.3961
1.41351
1.43388
1.4397
1.43929
1.43743
1.43338
1.4272
1.42375
1.42304
1.42271
1.42256
1.42387
1.43185
1.45078
1.46793
1.47174
1.47192
1.47193
1.47186
1.47116
1.4687
1.46427
1.46114
1.46031
1.46
1.45978
1.45962
1.45952
1.45945
1.45944
1.46012
1.46396
1.47426
1.48564
1.48855
1.48857
1.48844
1.48789
1.48573
1.47853
1.4647
1.45604
1.45508
1.45505
1.45504
1.4552
1.4555
1.45551
1.4554
1.455
1.45352
1.44854
1.43755
1.42827
1.4266
1.42656
1.42656
1.42669
1.42743
1.42914
1.43049
1.43069
1.43066
1.43064
1.43062
1.43058
1.43048
1.4303
1.43014
1.43009
1.43008
1.43008
1.43027
1.43111
1.43285
1.43405
1.43423
1.43423
1.43418
1.43395
1.43322
1.43183
1.43088
1.43076
1.43076
1.43075
1.43076
1.43086
1.4311
1.43127
1.43129
1.43128
1.43124
1.43116
1.43095
1.43033
1.42837
1.42356
1.41791
1.41621
1.41614
1.41615
1.41621
1.41633
1.41649
1.41666
1.41685
1.4171
1.41753
1.41852
1.42085
1.42416
1.42565
1.42576
1.42576
1.42572