/*--------------------------------*- C++ -*----------------------------------*\
  =========                 |
  \\      /  F ield         | OpenFOAM: The Open Source CFD Toolbox
   \\    /   O peration     | Website:  https://openfoam.org
    \\  /    A nd           | Version:  7
     \\/     M anipulation  |
\*---------------------------------------------------------------------------*/
FoamFile
{
    version     2.0;
    format      ascii;
    class       volScalarField;
    location    "2.7";
    object      rho;
}
// * * * * * * * * * * * * * * * * * * * * * * * * * * * * * * * * * * * * * //

dimensions      [1 -3 0 0 0 0 0];

internalField   nonuniform List<scalar> 
4128
(
2.72335
2.7156
2.71117
2.70793
2.70026
2.69174
2.67927
2.65151
2.61123
2.58102
2.5624
2.5477
2.53575
2.5254
2.51549
2.50659
2.49797
2.48447
2.46091
2.43206
2.41121
2.39891
2.3892
2.38023
2.37162
2.36284
2.35439
2.34365
2.32334
2.28545
2.25207
2.23827
2.23161
2.22596
2.22032
2.21413
2.20674
2.19849
2.18845
2.17161
2.14118
2.10908
2.09419
2.08751
2.08246
2.07779
2.07294
2.06722
2.06106
2.05455
2.04829
2.04072
2.02485
2.00034
1.97696
1.96331
1.95521
1.94923
1.94322
1.93498
1.92426
1.91497
1.90556
1.89694
1.89024
1.88245
1.87197
1.85901
1.84548
1.83149
1.81721
1.804
1.79292
1.78428
1.77588
1.7672
1.75952
1.7542
1.7497
1.74437
1.73844
1.73205
1.72559
1.71913
1.70552
1.68407
1.66635
1.65776
1.65228
1.64775
1.64402
1.64042
1.63615
1.63045
1.62342
1.6167
1.6111
1.60474
1.59549
1.58351
1.56883
1.55419
1.54325
1.53646
1.5321
1.52712
1.51971
1.51146
1.50637
1.50285
1.49955
1.49593
1.49121
1.4834
1.46859
1.44936
1.43925
1.43627
1.43387
1.43101
1.42775
1.42448
1.42113
1.4174
1.41291
1.40726
1.401
1.3953
1.384
2.73803
2.72855
2.72041
2.71177
2.7012
2.68872
2.6754
2.6598
2.63729
2.61449
2.5936
2.57191
2.55145
2.5356
2.52317
2.51078
2.49857
2.48824
2.47435
2.45541
2.43688
2.41768
2.40341
2.39579
2.38917
2.38076
2.36978
2.35665
2.33793
2.30748
2.27141
2.24766
2.2363
2.22865
2.22239
2.2181
2.21318
2.20645
2.19789
2.18448
2.16181
2.13168
2.10644
2.09356
2.08662
2.0813
2.0763
2.07051
2.06432
2.05769
2.0501
2.04206
2.03493
2.02474
2.0043
1.97617
1.95526
1.94217
1.93398
1.927
1.91913
1.91254
1.90923
1.90714
1.9029
1.89691
1.88736
1.87277
1.85194
1.82892
1.81077
1.80205
1.79702
1.79082
1.78232
1.77163
1.76069
1.75474
1.75209
1.75028
1.74633
1.74007
1.73072
1.71855
1.70831
1.6969
1.68346
1.66676
1.65172
1.64312
1.63844
1.63439
1.62988
1.62385
1.61589
1.60868
1.60353
1.59907
1.59533
1.59084
1.58288
1.57018
1.55429
1.54018
1.53221
1.52768
1.52165
1.51404
1.50897
1.5051
1.50196
1.49931
1.49662
1.49222
1.47984
1.45658
1.4408
1.43635
1.43391
1.43146
1.42872
1.42513
1.42148
1.41778
1.41334
1.4075
1.40055
1.39484
1.38582
2.76172
2.74359
2.72786
2.71825
2.71092
2.70143
2.68447
2.66407
2.6469
2.633
2.61933
2.60248
2.58064
2.55668
2.53376
2.51066
2.48893
2.4752
2.46788
2.4634
2.45509
2.44361
2.43022
2.41399
2.39583
2.37867
2.3631
2.34736
2.33098
2.31386
2.29001
2.26407
2.24774
2.23821
2.23053
2.22348
2.2162
2.20822
2.19903
2.18869
2.17571
2.15442
2.12629
2.10664
2.09772
2.09248
2.08733
2.08143
2.07508
2.06822
2.06059
2.05327
2.04617
2.03744
2.02271
1.99812
1.96619
1.94515
1.93388
1.92683
1.92154
1.91659
1.91061
1.90586
1.90346
1.90159
1.89599
1.88499
1.86292
1.83411
1.81489
1.80394
1.79453
1.78708
1.78308
1.77926
1.77281
1.7642
1.75606
1.74806
1.7411
1.73419
1.72553
1.71518
1.7059
1.7004
1.69338
1.67894
1.65828
1.64474
1.6389
1.63445
1.62963
1.62364
1.61471
1.60777
1.60391
1.60004
1.59543
1.59059
1.58598
1.57923
1.56428
1.54103
1.52772
1.52433
1.52287
1.52163
1.51852
1.51554
1.51237
1.50878
1.50443
1.49772
1.4859
1.46632
1.44646
1.43754
1.43455
1.43256
1.43141
1.43044
1.42771
1.42401
1.41949
1.41377
1.40748
1.40372
1.39596
2.7919
2.76831
2.74777
2.72871
2.71029
2.69358
2.67759
2.65989
2.64882
2.64099
2.63312
2.6226
2.60566
2.57854
2.54331
2.51142
2.49076
2.47863
2.46942
2.46055
2.45316
2.44937
2.44251
2.43033
2.40925
2.38499
2.36542
2.34907
2.33365
2.31833
2.30098
2.27934
2.26088
2.25018
2.24089
2.23125
2.2222
2.21372
2.2059
2.1987
2.18992
2.17593
2.15337
2.12367
2.10013
2.08561
2.07752
2.07183
2.06565
2.05765
2.04916
2.04194
2.03531
2.02926
2.02458
2.01584
1.99419
1.96234
1.94344
1.93589
1.93045
1.92469
1.91746
1.91031
1.9067
1.90259
1.89703
1.88972
1.876
1.84837
1.82078
1.80817
1.80147
1.79452
1.78621
1.78033
1.77718
1.77333
1.7658
1.75387
1.74156
1.73337
1.72545
1.71768
1.71131
1.70439
1.69634
1.68661
1.67178
1.65588
1.6472
1.64194
1.63562
1.62592
1.61434
1.60761
1.60488
1.60245
1.60059
1.59874
1.59467
1.58627
1.56884
1.54315
1.52911
1.52515
1.52219
1.51913
1.51633
1.51341
1.5096
1.50541
1.50108
1.49609
1.48856
1.47395
1.4531
1.4417
1.43835
1.43582
1.43277
1.42912
1.4246
1.42014
1.41577
1.41075
1.40507
1.40077
1.39238
2.8292
2.80225
2.77209
2.74645
2.72012
2.691
2.67352
2.66584
2.65953
2.65272
2.64536
2.6369
2.62557
2.60453
2.56364
2.51709
2.49279
2.48294
2.476
2.46981
2.46327
2.45572
2.44771
2.43873
2.4241
2.39826
2.3714
2.35356
2.34111
2.33027
2.31834
2.30148
2.27701
2.25279
2.23827
2.22882
2.2206
2.21317
2.20589
2.19796
2.1905
2.18325
2.17164
2.14744
2.11301
2.09028
2.07889
2.072
2.06603
2.05769
2.04885
2.04255
2.03759
2.03285
2.02791
2.02229
2.01267
1.98646
1.94929
1.92987
1.9227
1.91826
1.91647
1.91821
1.91492
1.91058
1.90632
1.90051
1.88852
1.86326
1.83287
1.81518
1.80783
1.80254
1.79658
1.78953
1.78191
1.77296
1.763
1.75158
1.73745
1.72966
1.7266
1.72415
1.7202
1.71446
1.70736
1.69766
1.68045
1.65752
1.64221
1.63565
1.63056
1.6234
1.61464
1.61058
1.60827
1.60642
1.60599
1.60522
1.60195
1.59529
1.5785
1.55163
1.53353
1.52723
1.52387
1.52122
1.51869
1.51561
1.51141
1.50638
1.50176
1.49731
1.4916
1.48109
1.46437
1.45171
1.44623
1.44231
1.43775
1.43178
1.42511
1.41964
1.41564
1.41187
1.40722
1.40251
1.39416
2.85434
2.83564
2.80402
2.75905
2.7176
2.69117
2.67895
2.6707
2.66305
2.66009
2.6585
2.65123
2.64183
2.62381
2.58482
2.53484
2.50761
2.49529
2.48675
2.48035
2.47731
2.47333
2.46512
2.4544
2.43688
2.40814
2.38044
2.36426
2.35315
2.34253
2.33053
2.3139
2.28817
2.25914
2.24149
2.2315
2.22291
2.21475
2.20817
2.20211
2.19612
2.18988
2.18192
2.16798
2.1427
2.10793
2.08157
2.06957
2.06244
2.05693
2.0543
2.05354
2.05167
2.04823
2.04363
2.03841
2.0292
2.00498
1.96267
1.93409
1.92558
1.92086
1.91646
1.91157
1.90662
1.90172
1.89682
1.89083
1.8828
1.87174
1.85344
1.83514
1.82061
1.81145
1.80604
1.80067
1.79183
1.78023
1.76617
1.75062
1.73834
1.73219
1.72815
1.72473
1.72195
1.7199
1.7163
1.70906
1.69187
1.66479
1.64486
1.63538
1.63078
1.62831
1.62605
1.62357
1.62137
1.6195
1.61716
1.61394
1.60958
1.60167
1.58594
1.56254
1.5451
1.53769
1.53352
1.53003
1.52658
1.52265
1.51751
1.5112
1.50582
1.50146
1.49636
1.48747
1.46992
1.45078
1.44192
1.43783
1.43411
1.42986
1.42491
1.42009
1.41578
1.4129
1.41063
1.4092
1.404
2.87151
2.85772
2.83093
2.77415
2.7178
2.69851
2.68958
2.68119
2.67393
2.6677
2.6611
2.65233
2.64227
2.62885
2.60221
2.56317
2.5327
2.51665
2.50538
2.49371
2.4807
2.4678
2.45622
2.44352
2.42801
2.41092
2.39543
2.38251
2.36931
2.35484
2.33916
2.3215
2.29913
2.2731
2.25196
2.23781
2.22704
2.21804
2.2104
2.20356
2.1973
2.19151
2.18569
2.17854
2.16301
2.12517
2.08425
2.07091
2.06535
2.05933
2.05329
2.0481
2.04355
2.03888
2.03337
2.02771
2.02169
2.01211
1.99034
1.95987
1.93677
1.92537
1.91794
1.91342
1.90886
1.90303
1.89671
1.88947
1.87945
1.86745
1.85881
1.85163
1.84379
1.83325
1.81889
1.80209
1.78635
1.77075
1.7569
1.74638
1.74104
1.73718
1.73403
1.7318
1.72931
1.72563
1.71978
1.71
1.69365
1.67171
1.65348
1.64223
1.63308
1.62631
1.62268
1.61984
1.6173
1.6149
1.61195
1.60858
1.60464
1.59959
1.59139
1.57494
1.55151
1.53611
1.52957
1.52539
1.52198
1.51924
1.51811
1.51792
1.51508
1.51127
1.50628
1.49693
1.47744
1.45427
1.44292
1.43842
1.43495
1.43078
1.42671
1.42366
1.42065
1.41751
1.41353
1.40974
1.40194
2.89049
2.87714
2.85002
2.79509
2.735
2.71145
2.70016
2.6913
2.68522
2.68164
2.67496
2.66554
2.65314
2.63551
2.61371
2.58756
2.56321
2.53953
2.52029
2.50646
2.4935
2.47833
2.46001
2.44147
2.42594
2.41604
2.40843
2.3994
2.38735
2.37128
2.3515
2.32994
2.30725
2.28428
2.26392
2.2466
2.23219
2.22205
2.21468
2.20873
2.20327
2.19831
2.19283
2.1859
2.17452
2.14627
2.09939
2.07571
2.06831
2.06189
2.05524
2.04936
2.04408
2.03862
2.03257
2.02529
2.01678
2.01015
2.00339
1.98806
1.9657
1.94196
1.92222
1.90729
1.90084
1.89598
1.88993
1.88348
1.87563
1.86733
1.86349
1.86105
1.85744
1.85019
1.83469
1.81039
1.78734
1.7695
1.756
1.75047
1.74739
1.74368
1.73956
1.73564
1.73222
1.72872
1.72437
1.71767
1.70481
1.68237
1.65917
1.64427
1.6348
1.62926
1.62546
1.6219
1.61876
1.61576
1.61268
1.60941
1.60579
1.60167
1.59613
1.58396
1.56001
1.53977
1.5313
1.52709
1.52435
1.52211
1.51974
1.51647
1.51204
1.50756
1.50235
1.49432
1.48033
1.4618
1.45051
1.44551
1.44218
1.43947
1.43721
1.43448
1.43082
1.42632
1.42078
1.41503
1.40521
2.88744
2.87746
2.85977
2.81861
2.76794
2.73687
2.72069
2.70789
2.69504
2.68158
2.66779
2.65426
2.63816
2.61749
2.60193
2.59394
2.58316
2.56691
2.545
2.51948
2.49513
2.47435
2.45544
2.43795
2.42693
2.41994
2.413
2.40574
2.39719
2.38326
2.36233
2.3408
2.32223
2.30168
2.27687
2.25669
2.24536
2.23722
2.23038
2.22428
2.21848
2.21249
2.20562
2.19754
2.1863
2.1637
2.12636
2.08956
2.07262
2.06394
2.05703
2.05045
2.04428
2.03869
2.03299
2.02647
2.01808
2.00843
2.00185
1.99655
1.98543
1.96402
1.93409
1.91054
1.899
1.89306
1.88603
1.87942
1.87434
1.87113
1.87082
1.87021
1.86693
1.86181
1.84859
1.81719
1.78255
1.77135
1.76763
1.76371
1.75915
1.75456
1.74913
1.74265
1.73686
1.7321
1.72707
1.72091
1.71118
1.69196
1.66757
1.65287
1.64604
1.64136
1.63719
1.63312
1.62932
1.626
1.62287
1.61959
1.61574
1.61035
1.60106
1.586
1.56572
1.54943
1.54234
1.53825
1.53389
1.52891
1.5236
1.51869
1.51376
1.50793
1.50244
1.49617
1.48651
1.46897
1.45163
1.44269
1.43885
1.43676
1.43472
1.43194
1.42824
1.42375
1.4184
1.41427
1.40531
2.89661
2.87377
2.84475
2.81718
2.79125
2.76936
2.74831
2.72788
2.7107
2.69581
2.67908
2.65825
2.63757
2.61792
2.60385
2.59463
2.58637
2.57747
2.5631
2.53675
2.50429
2.47639
2.45415
2.44206
2.43601
2.42978
2.42203
2.41222
2.40074
2.38636
2.36716
2.34464
2.32565
2.31092
2.2951
2.27468
2.25011
2.23113
2.22198
2.21561
2.20929
2.20282
2.1958
2.18774
2.17876
2.16926
2.14813
2.11603
2.0864
2.07007
2.06168
2.05486
2.04765
2.04146
2.03552
2.02879
2.02096
2.0126
2.00487
1.99787
1.99128
1.98131
1.95907
1.92371
1.89687
1.88669
1.88228
1.87992
1.88092
1.88633
1.888
1.88447
1.87983
1.87343
1.85805
1.82422
1.78653
1.76922
1.76342
1.75873
1.75395
1.75046
1.74965
1.75017
1.7464
1.74132
1.73598
1.72926
1.71887
1.70168
1.67613
1.65375
1.6439
1.63928
1.63518
1.63098
1.62678
1.62272
1.61873
1.61452
1.60971
1.60363
1.59494
1.58348
1.57262
1.56183
1.5489
1.53794
1.5306
1.52468
1.51958
1.51633
1.51441
1.51277
1.50921
1.5044
1.49559
1.47765
1.4566
1.44455
1.44012
1.4378
1.43564
1.43288
1.42942
1.42519
1.42012
1.41586
1.40639
2.88476
2.86078
2.83405
2.81519
2.80599
2.79577
2.78101
2.75768
2.72604
2.69496
2.6697
2.64661
2.62717
2.61684
2.61062
2.60474
2.59742
2.58813
2.57639
2.55324
2.51186
2.47793
2.46323
2.45313
2.4429
2.43554
2.42977
2.42383
2.41403
2.39671
2.374
2.35195
2.33567
2.32326
2.30951
2.28929
2.26048
2.2357
2.2231
2.21585
2.20964
2.20292
2.19586
2.18849
2.17812
2.16418
2.15112
2.134
2.10949
2.08143
2.06553
2.06015
2.05662
2.0523
2.04661
2.04052
2.03395
2.0264
2.01866
2.0123
2.00623
1.99688
1.97584
1.9368
1.9013
1.88944
1.88537
1.88265
1.88099
1.88086
1.88046
1.87749
1.87319
1.86748
1.85721
1.83517
1.79798
1.77294
1.76468
1.76024
1.75689
1.75434
1.75179
1.74802
1.74315
1.73752
1.73144
1.72496
1.71724
1.70522
1.68409
1.65862
1.64603
1.6413
1.63743
1.63334
1.62899
1.62443
1.61975
1.61499
1.60998
1.60399
1.59711
1.58963
1.58208
1.57245
1.55854
1.54349
1.53234
1.52577
1.52196
1.51841
1.51411
1.50936
1.50433
1.49807
1.49021
1.47999
1.46685
1.45555
1.44969
1.44637
1.44347
1.43994
1.43547
1.43078
1.42572
1.42092
1.40946
2.8821
2.8533
2.83278
2.82371
2.81668
2.80958
2.79963
2.78204
2.74817
2.70451
2.6685
2.64535
2.6324
2.62302
2.61472
2.61073
2.61134
2.60542
2.59307
2.56737
2.52104
2.48503
2.47366
2.466
2.45713
2.44633
2.43509
2.42329
2.40778
2.38353
2.3603
2.35115
2.34523
2.33719
2.32473
2.30476
2.27614
2.24908
2.23496
2.22762
2.22116
2.21421
2.2056
2.19472
2.18218
2.16725
2.15486
2.1457
2.13215
2.1074
2.08157
2.06535
2.05372
2.04573
2.04006
2.03426
2.02717
2.01896
2.0115
2.0048
1.99776
1.98945
1.97833
1.95646
1.92393
1.90299
1.89668
1.89239
1.88779
1.88347
1.87971
1.87626
1.87249
1.86784
1.86076
1.84448
1.81463
1.78472
1.77133
1.76661
1.76299
1.75881
1.7541
1.74941
1.74465
1.73907
1.73274
1.72611
1.7187
1.70891
1.69221
1.66778
1.65134
1.64513
1.64119
1.6376
1.63404
1.63011
1.62521
1.61872
1.6105
1.60047
1.59044
1.58217
1.57507
1.56872
1.5628
1.55402
1.5438
1.53635
1.53065
1.5252
1.51845
1.51071
1.50427
1.49796
1.4914
1.48522
1.47563
1.45982
1.44744
1.44206
1.43857
1.43486
1.43021
1.42582
1.42339
1.42172
1.4139
2.86866
2.85103
2.84337
2.83701
2.82875
2.81831
2.80694
2.7934
2.76674
2.71451
2.66756
2.65057
2.64234
2.63405
2.62552
2.61683
2.60772
2.59715
2.58365
2.56714
2.54054
2.50976
2.4871
2.47447
2.46688
2.45991
2.44994
2.43417
2.41089
2.38382
2.36544
2.35634
2.34778
2.33892
2.32945
2.31753
2.29864
2.27069
2.24331
2.22421
2.21255
2.20558
2.1994
2.19062
2.18234
2.17792
2.17336
2.16501
2.15082
2.12903
2.10003
2.07553
2.06128
2.05069
2.04212
2.03556
2.02858
2.01952
2.01171
2.00498
1.99784
1.9895
1.98019
1.96983
1.95084
1.91864
1.89402
1.88544
1.88178
1.87882
1.87465
1.87001
1.86519
1.85883
1.84976
1.83978
1.82869
1.81122
1.78857
1.77271
1.76548
1.76091
1.75621
1.7508
1.74481
1.73937
1.73486
1.7306
1.72496
1.71452
1.69561
1.67439
1.66277
1.6568
1.65217
1.64847
1.64501
1.64082
1.63474
1.62456
1.60994
1.59797
1.58983
1.58283
1.57719
1.57291
1.56846
1.56129
1.54925
1.53558
1.52566
1.51888
1.51282
1.50635
1.50144
1.4986
1.49654
1.49334
1.48478
1.4665
1.44916
1.44182
1.43783
1.43395
1.43029
1.42762
1.42492
1.42193
1.41391
2.87365
2.86078
2.85086
2.84149
2.83683
2.83389
2.8258
2.81246
2.78407
2.73034
2.68276
2.66192
2.65086
2.64258
2.6355
2.62629
2.61566
2.60275
2.58393
2.558
2.53865
2.52481
2.51068
2.49663
2.48141
2.46384
2.44531
2.42451
2.40107
2.38894
2.38317
2.37492
2.36558
2.35717
2.34832
2.33597
2.31704
2.28945
2.25752
2.23145
2.21505
2.20411
2.19746
2.19206
2.18692
2.17953
2.16967
2.16016
2.15099
2.13976
2.12125
2.09157
2.05909
2.0425
2.03609
2.03093
2.02702
2.02509
2.02017
2.01483
2.00918
2.00309
1.99705
1.98894
1.97106
1.93664
1.90198
1.88727
1.88074
1.87628
1.87227
1.86779
1.8629
1.85721
1.8491
1.83991
1.83319
1.82522
1.80939
1.7867
1.77396
1.76837
1.76294
1.75654
1.74925
1.74225
1.73667
1.73211
1.72731
1.71977
1.70611
1.686
1.66608
1.65455
1.64816
1.64305
1.63894
1.63525
1.63038
1.62201
1.60778
1.59423
1.58921
1.58726
1.58587
1.58351
1.57928
1.57127
1.55702
1.53961
1.52665
1.51813
1.51167
1.50686
1.504
1.5013
1.49808
1.49394
1.48707
1.47372
1.45562
1.44479
1.44018
1.43679
1.43397
1.43121
1.42799
1.42502
1.41744
2.88625
2.87263
2.86326
2.85395
2.84264
2.82971
2.81663
2.8013
2.77634
2.74057
2.7079
2.68672
2.67017
2.65509
2.64061
2.62653
2.61292
2.59751
2.57924
2.55858
2.54104
2.5303
2.52144
2.51092
2.49542
2.47311
2.44788
2.42386
2.4058
2.39412
2.38225
2.37071
2.36017
2.3499
2.33932
2.32714
2.31278
2.29693
2.27589
2.24993
2.22555
2.20865
2.19809
2.19166
2.18615
2.17948
2.17116
2.16368
2.15738
2.14965
2.13602
2.10704
2.06461
2.04149
2.03534
2.03069
2.0254
2.01925
2.01416
2.00925
2.00356
1.99704
1.9899
1.98126
1.96989
1.94961
1.92097
1.89917
1.88756
1.87876
1.87128
1.8649
1.8586
1.85224
1.84713
1.84364
1.84056
1.83554
1.82521
1.80368
1.77517
1.75966
1.75408
1.74935
1.74544
1.74219
1.73863
1.73412
1.72831
1.72126
1.71189
1.69575
1.67291
1.65698
1.64927
1.64351
1.63787
1.63338
1.62859
1.6212
1.60946
1.60025
1.59528
1.591
1.58672
1.58206
1.57665
1.57048
1.56145
1.54702
1.5311
1.52139
1.51762
1.51503
1.51197
1.50827
1.50412
1.49906
1.49177
1.47948
1.46333
1.4542
1.45015
1.44714
1.44416
1.44107
1.43779
1.43491
1.42676
2.91483
2.89219
2.87429
2.86217
2.85192
2.84114
2.82474
2.79977
2.77083
2.74485
2.72616
2.70905
2.68928
2.66885
2.65264
2.63823
2.61966
2.59661
2.57404
2.56092
2.55351
2.54646
2.5366
2.52252
2.50434
2.48047
2.44948
2.42409
2.41123
2.40066
2.38882
2.37603
2.36371
2.35103
2.33788
2.32602
2.3145
2.3014
2.28627
2.26586
2.23914
2.21734
2.20348
2.19156
2.1831
2.17783
2.17403
2.17093
2.16638
2.16017
2.14855
2.1217
2.07568
2.04518
2.03563
2.02924
2.02365
2.01912
2.01501
2.01074
2.00566
1.99912
1.99119
1.9819
1.97001
1.95642
1.93914
1.91487
1.89116
1.87613
1.86736
1.86124
1.85663
1.85295
1.85013
1.84825
1.84535
1.8411
1.83414
1.81636
1.78321
1.75946
1.75197
1.74789
1.74418
1.74102
1.73889
1.73614
1.73284
1.72825
1.71977
1.70386
1.68187
1.66303
1.65166
1.64566
1.64139
1.6344
1.62494
1.61648
1.61204
1.60851
1.60367
1.59787
1.59202
1.58649
1.5812
1.5745
1.56361
1.54862
1.53277
1.51913
1.51273
1.5098
1.50671
1.50325
1.49996
1.49669
1.49257
1.48552
1.4725
1.45584
1.44713
1.44344
1.44025
1.43701
1.43356
1.43069
1.42315
2.93644
2.92062
2.90158
2.87992
2.85703
2.83658
2.8169
2.79095
2.76416
2.75021
2.74134
2.73026
2.71302
2.68732
2.65626
2.63037
2.61143
2.59158
2.57746
2.56996
2.56335
2.55646
2.54872
2.53794
2.5182
2.48934
2.45824
2.43407
2.41674
2.40516
2.39737
2.39001
2.37906
2.36249
2.34031
2.32246
2.31325
2.30625
2.29803
2.28453
2.26051
2.22875
2.20593
2.19327
2.18536
2.17937
2.1745
2.1701
2.16448
2.15764
2.1485
2.13143
2.09629
2.05695
2.03846
2.03003
2.02427
2.01957
2.01582
2.01364
2.0104
2.00638
2.00145
1.99315
1.98215
1.97086
1.95474
1.92888
1.89712
1.87735
1.86853
1.86359
1.86011
1.85741
1.85579
1.85386
1.85016
1.84552
1.83815
1.82228
1.7917
1.76336
1.7529
1.74865
1.74524
1.742
1.73866
1.7351
1.73115
1.72636
1.7196
1.70769
1.68927
1.67273
1.66221
1.65256
1.64113
1.63104
1.62221
1.6163
1.61301
1.61064
1.60892
1.6065
1.60367
1.59958
1.59227
1.58202
1.56851
1.55271
1.53616
1.522
1.51357
1.50968
1.50653
1.50306
1.49995
1.4973
1.49492
1.49153
1.48143
1.46172
1.44884
1.44426
1.4409
1.4375
1.43387
1.43074
1.42356
2.94677
2.93542
2.92063
2.89949
2.87265
2.84233
2.8145
2.78978
2.77272
2.76094
2.74857
2.73664
2.72368
2.70293
2.6674
2.62897
2.60618
2.59618
2.59004
2.58418
2.57716
2.56792
2.55697
2.54044
2.5105
2.47379
2.45479
2.44256
2.43066
2.41942
2.40706
2.39033
2.37087
2.35373
2.33848
2.32655
2.3179
2.30958
2.30085
2.29128
2.27564
2.24186
2.20799
2.1974
2.1928
2.18819
2.18376
2.17887
2.17298
2.16642
2.15814
2.143
2.11162
2.07254
2.04877
2.03765
2.03025
2.02496
2.02122
2.01727
2.01237
2.00669
1.99894
1.9881
1.97422
1.96089
1.95009
1.93567
1.91091
1.88782
1.88007
1.87726
1.87415
1.8714
1.86859
1.86479
1.86037
1.85482
1.84622
1.83023
1.8025
1.77354
1.75814
1.75148
1.7472
1.74372
1.74058
1.73756
1.73431
1.7301
1.72363
1.71348
1.69873
1.67969
1.66012
1.64676
1.63804
1.63025
1.62525
1.62226
1.62057
1.61928
1.61651
1.61227
1.60649
1.59836
1.5872
1.57285
1.55764
1.54562
1.53821
1.52947
1.51961
1.51286
1.50926
1.50628
1.50359
1.50106
1.49824
1.4939
1.48501
1.46929
1.45616
1.45031
1.44673
1.44316
1.4393
1.43604
1.4292
2.95979
2.94806
2.93403
2.91303
2.87926
2.83494
2.80436
2.79279
2.78524
2.77587
2.76465
2.75152
2.73476
2.70915
2.66732
2.62633
2.61165
2.6049
2.59897
2.59628
2.59167
2.58332
2.57142
2.55132
2.51601
2.47434
2.45334
2.44632
2.44148
2.4354
2.42344
2.40085
2.37196
2.35018
2.3387
2.33066
2.32371
2.3177
2.31147
2.30291
2.28668
2.25764
2.22609
2.20579
2.19208
2.18234
2.17603
2.16999
2.16337
2.15592
2.14639
2.1322
2.1119
2.08489
2.06218
2.05011
2.04376
2.03893
2.03347
2.02784
2.02203
2.01507
2.005
1.99078
1.97531
1.96061
1.94736
1.93629
1.92582
1.90978
1.8889
1.87452
1.86816
1.86437
1.86055
1.85601
1.85023
1.84279
1.83296
1.81916
1.80193
1.78321
1.76944
1.76272
1.75869
1.75504
1.75185
1.7488
1.74528
1.74013
1.73224
1.72153
1.70753
1.68812
1.6629
1.64322
1.63648
1.63452
1.63456
1.63588
1.63345
1.62974
1.62553
1.61985
1.61181
1.60177
1.58889
1.57209
1.55511
1.54336
1.5354
1.53133
1.52813
1.52428
1.51983
1.51646
1.51342
1.51016
1.50648
1.50149
1.49251
1.47691
1.4577
1.44587
1.44107
1.4374
1.43321
1.42959
1.4231
2.97286
2.96017
2.94545
2.92339
2.87909
2.83339
2.81168
2.8005
2.79035
2.78193
2.77377
2.76322
2.74762
2.7183
2.67082
2.63382
2.62299
2.6163
2.60978
2.60238
2.59303
2.5818
2.56677
2.54393
2.51083
2.48013
2.46641
2.45763
2.4481
2.43499
2.41704
2.39324
2.37038
2.3571
2.34799
2.33793
2.32747
2.31811
2.30865
2.29686
2.27992
2.2606
2.23986
2.2183
2.19932
2.18592
2.17719
2.17039
2.16329
2.15533
2.14506
2.1305
2.1121
2.09633
2.08388
2.06985
2.05318
2.03798
2.02795
2.02094
2.0144
2.00711
1.99776
1.98527
1.97243
1.96331
1.95686
1.95059
1.94209
1.92618
1.90195
1.88016
1.86965
1.86462
1.86075
1.85615
1.84981
1.84034
1.82765
1.81483
1.80388
1.79546
1.78496
1.77033
1.75692
1.74955
1.74473
1.74033
1.73597
1.73109
1.72499
1.71735
1.7075
1.69044
1.66241
1.64451
1.64175
1.6401
1.63698
1.63347
1.63042
1.62707
1.624
1.6215
1.61802
1.61058
1.59497
1.57186
1.55198
1.54356
1.54107
1.53808
1.53225
1.52405
1.51659
1.51137
1.50756
1.5041
1.50073
1.49698
1.49181
1.48152
1.46288
1.44706
1.44061
1.43682
1.43271
1.42899
1.42248
2.98689
2.97749
2.96187
2.92351
2.86705
2.83515
2.82526
2.81601
2.80666
2.79699
2.7855
2.77218
2.75444
2.72092
2.67038
2.64353
2.63481
2.62684
2.6183
2.60883
2.59853
2.58694
2.57136
2.54606
2.51216
2.49331
2.48475
2.47584
2.46312
2.44412
2.41704
2.39096
2.37594
2.36618
2.35566
2.34479
2.33445
2.32545
2.31739
2.30542
2.28709
2.2653
2.24644
2.23004
2.21382
2.19767
2.18679
2.18042
2.17208
2.15961
2.14449
2.12718
2.11517
2.10896
2.10109
2.08766
2.06691
2.04493
2.03102
2.0224
2.01485
2.00662
1.9972
1.98681
1.97616
1.96495
1.95382
1.94439
1.93601
1.9281
1.91663
1.89928
1.87949
1.86512
1.85725
1.85172
1.84543
1.83612
1.82329
1.81342
1.80928
1.80501
1.79708
1.78088
1.76208
1.75109
1.74495
1.73969
1.7342
1.72854
1.72311
1.71746
1.70966
1.695
1.66999
1.65064
1.64423
1.64006
1.6363
1.63347
1.6312
1.62923
1.6269
1.62363
1.61796
1.60745
1.58815
1.56727
1.55821
1.55427
1.55017
1.54472
1.5367
1.5271
1.5181
1.51153
1.50718
1.5036
1.50021
1.49665
1.49204
1.48483
1.47072
1.45249
1.44199
1.43732
1.43356
1.43036
1.42451
2.99233
2.97404
2.94716
2.90802
2.86723
2.8478
2.83608
2.82618
2.8184
2.81086
2.80188
2.7894
2.7679
2.73256
2.68638
2.65054
2.63192
2.62203
2.61376
2.60608
2.59846
2.58999
2.57774
2.55677
2.53365
2.51465
2.49551
2.474
2.45116
2.42871
2.40817
2.39526
2.38812
2.37957
2.36952
2.35821
2.34447
2.32711
2.30717
2.28863
2.27314
2.25824
2.2464
2.23837
2.23011
2.21722
2.19561
2.1724
2.16122
2.15265
2.14185
2.13079
2.12129
2.11085
2.10098
2.0915
2.07781
2.0577
2.03844
2.0257
2.01611
2.00706
1.9979
1.98909
1.98023
1.96967
1.95748
1.94638
1.93821
1.93211
1.9253
1.91252
1.88989
1.86845
1.85671
1.84939
1.84274
1.83574
1.82968
1.8259
1.8219
1.81541
1.8046
1.78908
1.77111
1.75595
1.74615
1.73975
1.73426
1.72943
1.72503
1.72013
1.71289
1.6997
1.67704
1.65631
1.64741
1.64258
1.63915
1.63645
1.63405
1.63175
1.62871
1.62497
1.61935
1.60856
1.58888
1.56867
1.55775
1.55214
1.54867
1.54602
1.54301
1.53733
1.52829
1.51923
1.51345
1.50942
1.50567
1.50161
1.49656
1.48896
1.47667
1.46053
1.44965
1.44455
1.44099
1.43797
1.43135
3.00934
2.98157
2.93561
2.8926
2.87519
2.86607
2.85604
2.84505
2.83301
2.8198
2.80513
2.78463
2.75605
2.72377
2.69496
2.66601
2.6413
2.62696
2.61907
2.61178
2.60327
2.59106
2.57552
2.56127
2.55006
2.53611
2.5159
2.48599
2.44724
2.41868
2.40769
2.40241
2.39633
2.38968
2.38234
2.37323
2.36099
2.34154
2.30948
2.27972
2.26523
2.25828
2.25354
2.24943
2.24342
2.23268
2.20958
2.17654
2.15938
2.15442
2.14825
2.14064
2.13153
2.12034
2.10911
2.0962
2.08148
2.06717
2.05183
2.03602
2.02399
2.01455
2.00589
1.99683
1.98723
1.97667
1.96519
1.95494
1.94679
1.93926
1.92976
1.91668
1.89895
1.87995
1.86436
1.85123
1.83929
1.82921
1.82244
1.8179
1.81344
1.80858
1.80247
1.7922
1.77669
1.76163
1.75192
1.74582
1.74155
1.7378
1.73379
1.72851
1.72023
1.70572
1.68258
1.66453
1.65711
1.65299
1.6499
1.64687
1.64385
1.64048
1.63672
1.63226
1.62575
1.61419
1.59402
1.57177
1.56044
1.55625
1.55294
1.54872
1.54235
1.5339
1.52333
1.51349
1.50718
1.50276
1.49888
1.49508
1.4912
1.48674
1.48057
1.47013
1.45432
1.44049
1.43399
1.43062
1.42428
2.99497
2.96145
2.92674
2.9006
2.88732
2.875
2.86473
2.85558
2.84672
2.83728
2.82106
2.7937
2.75724
2.72398
2.70159
2.68313
2.6616
2.64341
2.63367
2.62461
2.61165
2.59466
2.58079
2.57292
2.56406
2.54868
2.51718
2.47268
2.43937
2.42368
2.41682
2.41161
2.40713
2.40125
2.39357
2.38254
2.36348
2.33315
2.30035
2.27765
2.26962
2.26482
2.26057
2.25499
2.24779
2.23782
2.22
2.19173
2.1649
2.14733
2.13691
2.12937
2.12391
2.12075
2.11585
2.10698
2.09402
2.07534
2.05063
2.02837
2.01501
2.00563
1.9968
1.98811
1.98002
1.97506
1.97209
1.96877
1.9631
1.95317
1.94016
1.92536
1.90883
1.8899
1.87026
1.85311
1.8397
1.82999
1.82326
1.81772
1.8124
1.80725
1.80205
1.79567
1.78509
1.76719
1.74838
1.73887
1.73395
1.72977
1.72568
1.7214
1.71553
1.70491
1.68918
1.67036
1.65442
1.64747
1.6443
1.6412
1.63807
1.63463
1.63059
1.62545
1.61785
1.60604
1.59057
1.57647
1.5689
1.56418
1.55912
1.55235
1.54446
1.53537
1.52414
1.51376
1.5072
1.50264
1.49858
1.49474
1.49141
1.48834
1.48475
1.47734
1.46114
1.44292
1.43363
1.42943
1.42291
2.9813
2.94043
2.92285
2.9145
2.90502
2.89499
2.88409
2.87012
2.85254
2.83048
2.80456
2.77648
2.74946
2.73149
2.72094
2.70788
2.68613
2.65114
2.62104
2.61087
2.60555
2.60441
2.6007
2.59334
2.58351
2.56556
2.52544
2.46735
2.43942
2.43548
2.4341
2.43227
2.42784
2.42111
2.41248
2.39884
2.37115
2.32646
2.29297
2.28427
2.2796
2.275
2.27026
2.26451
2.25799
2.24917
2.23212
2.20039
2.16559
2.14623
2.13752
2.13153
2.12556
2.11881
2.11278
2.10799
2.10171
2.087
2.05733
2.02891
2.01454
2.00565
1.99675
1.98876
1.98454
1.98157
1.97715
1.97049
1.96086
1.94794
1.93376
1.92056
1.90847
1.89421
1.87566
1.8586
1.8464
1.83629
1.82664
1.81912
1.81402
1.80927
1.80407
1.79766
1.788
1.77102
1.75111
1.73978
1.73421
1.72979
1.72534
1.72057
1.71623
1.71074
1.69892
1.67885
1.65876
1.6485
1.64454
1.64154
1.63831
1.63485
1.63103
1.62604
1.61841
1.60644
1.59248
1.5818
1.57315
1.5658
1.56137
1.55799
1.55274
1.54375
1.53136
1.52011
1.51344
1.50913
1.50564
1.50285
1.50062
1.49818
1.49445
1.48672
1.47048
1.44919
1.43493
1.42882
1.42222
2.97193
2.94264
2.93089
2.9199
2.91047
2.90529
2.89894
2.88887
2.87127
2.83521
2.79083
2.76265
2.75027
2.74446
2.73766
2.7273
2.70735
2.66722
2.62746
2.61072
2.60185
2.5936
2.58757
2.58048
2.57101
2.55413
2.51876
2.47396
2.45172
2.43991
2.43097
2.42322
2.41641
2.4104
2.40338
2.39157
2.36642
2.32687
2.30197
2.28991
2.28009
2.27261
2.26716
2.26254
2.25659
2.24872
2.23489
2.20703
2.17313
2.15316
2.14232
2.13366
2.12673
2.12162
2.11737
2.11254
2.10386
2.08466
2.05271
2.0301
2.02165
2.01579
2.01026
2.00523
2.00031
1.99489
1.98798
1.97872
1.96582
1.94989
1.93519
1.92278
1.91005
1.89398
1.87523
1.85939
1.84904
1.84144
1.83474
1.82841
1.8234
1.8189
1.81334
1.80604
1.79519
1.7792
1.7619
1.7497
1.74257
1.73743
1.73263
1.7272
1.71887
1.70654
1.69196
1.67945
1.66876
1.65934
1.65278
1.64895
1.64562
1.64165
1.637
1.63105
1.62103
1.60722
1.5942
1.58469
1.5775
1.57189
1.56631
1.5586
1.54884
1.53714
1.52441
1.51433
1.50787
1.50328
1.49992
1.4972
1.49461
1.49158
1.48742
1.4806
1.46892
1.45225
1.4373
1.43167
1.42667
2.96793
2.95314
2.94394
2.93592
2.9295
2.92076
2.90814
2.88973
2.86207
2.81786
2.78021
2.76697
2.76087
2.75317
2.74351
2.73239
2.71551
2.68326
2.63866
2.61063
2.59959
2.59282
2.5853
2.57634
2.56558
2.54836
2.51849
2.48653
2.46431
2.44875
2.43576
2.42404
2.41371
2.40523
2.39804
2.38764
2.36723
2.33699
2.31239
2.29611
2.28593
2.27987
2.27523
2.27083
2.26446
2.25602
2.24047
2.21039
2.17858
2.16295
2.15497
2.14815
2.14193
2.13613
2.13007
2.1227
2.11121
2.08893
2.05636
2.02832
2.01505
2.00937
2.00524
2.00047
1.99435
1.98813
1.9812
1.97222
1.9638
1.95662
1.94706
1.93382
1.91695
1.89722
1.87676
1.86405
1.85617
1.84811
1.83752
1.82555
1.8158
1.81053
1.80587
1.79963
1.79128
1.77952
1.76327
1.74745
1.73713
1.73036
1.72474
1.71927
1.71316
1.70447
1.69342
1.68328
1.67243
1.66057
1.64988
1.64197
1.63718
1.63338
1.62855
1.62301
1.61718
1.60997
1.599
1.58865
1.58259
1.57783
1.57134
1.56196
1.5505
1.53736
1.52437
1.51502
1.50891
1.50419
1.50059
1.49768
1.49478
1.49133
1.48664
1.47998
1.47033
1.45751
1.4417
1.42956
1.42107
2.98702
2.96833
2.95674
2.94825
2.94004
2.93003
2.9189
2.90144
2.85918
2.80928
2.78552
2.77649
2.7676
2.75891
2.74992
2.73962
2.72389
2.69368
2.64752
2.61641
2.60561
2.59747
2.58679
2.57382
2.56001
2.54253
2.52082
2.49788
2.47855
2.46278
2.44833
2.43466
2.42181
2.40819
2.39245
2.37269
2.35349
2.33831
2.32583
2.31437
2.30034
2.28101
2.26216
2.25422
2.24818
2.23942
2.22731
2.21253
2.19428
2.1761
2.15818
2.14432
2.13623
2.1293
2.12213
2.11373
2.10288
2.08738
2.06125
2.03384
2.01927
2.01125
2.00615
2.00279
1.99868
1.99188
1.98286
1.97366
1.96441
1.95405
1.94267
1.92749
1.90535
1.88659
1.87965
1.87338
1.86618
1.85667
1.84441
1.83067
1.8178
1.80945
1.8053
1.80195
1.79636
1.78616
1.77002
1.75186
1.73934
1.73136
1.72503
1.71838
1.71114
1.70434
1.69807
1.68932
1.67834
1.66589
1.65359
1.6439
1.63695
1.6325
1.62885
1.62213
1.61086
1.60179
1.59928
1.59668
1.59192
1.58544
1.57822
1.5699
1.558
1.54296
1.53062
1.52306
1.51745
1.51213
1.50732
1.50331
1.49958
1.49545
1.49033
1.48404
1.47613
1.46491
1.448
1.43313
1.42237
3.01977
2.99779
2.97879
2.967
2.95911
2.94873
2.92887
2.89186
2.84416
2.80945
2.79836
2.79002
2.78267
2.77487
2.76598
2.75413
2.73598
2.70727
2.67097
2.63583
2.60529
2.58952
2.58396
2.57599
2.55996
2.53449
2.51075
2.49647
2.48569
2.47459
2.46398
2.45417
2.4408
2.41797
2.38529
2.3593
2.34507
2.33846
2.33374
2.32719
2.31495
2.29225
2.26724
2.25116
2.24427
2.23567
2.22097
2.20718
2.19874
2.18738
2.16933
2.14949
2.13781
2.13258
2.12721
2.11722
2.10093
2.07852
2.05668
2.04328
2.03512
2.02756
2.01758
2.00506
1.99361
1.98461
1.97615
1.96783
1.96008
1.95248
1.94354
1.92909
1.90561
1.88346
1.87224
1.8654
1.85907
1.85404
1.84888
1.84001
1.82731
1.81632
1.80656
1.79638
1.78653
1.77571
1.76416
1.75515
1.74775
1.74002
1.73199
1.72343
1.71359
1.70378
1.6941
1.68526
1.67719
1.66934
1.66127
1.65306
1.6457
1.63695
1.62548
1.61423
1.60644
1.6024
1.59851
1.59361