/*--------------------------------*- C++ -*----------------------------------*\
  =========                 |
  \\      /  F ield         | OpenFOAM: The Open Source CFD Toolbox
   \\    /   O peration     | Website:  https://openfoam.org
    \\  /    A nd           | Version:  7
     \\/     M anipulation  |
\*---------------------------------------------------------------------------*/
FoamFile
{
    version     2.0;
    format      ascii;
    class       volScalarField;
    location    "1";
    object      rho;
}
// * * * * * * * * * * * * * * * * * * * * * * * * * * * * * * * * * * * * * //

dimensions      [1 -3 0 0 0 0 0];

internalField   nonuniform List<scalar> 
16192
(
3.86017
3.82333
3.78715
3.74388
3.69649
3.64576
3.60509
3.57731
3.58272
3.61011
3.6309
3.62403
3.59521
3.54153
3.47491
3.40654
3.33981
3.2793
3.21813
3.16201
3.10691
3.8625
3.82356
3.78709
3.74422
3.69881
3.65207
3.60874
3.58213
3.57929
3.59957
3.63486
3.64015
3.61936
3.57189
3.50769
3.43894
3.36979
3.307
3.24551
3.18691
3.13172
3.8712
3.82657
3.78612
3.74215
3.69874
3.65488
3.6093
3.58441
3.57097
3.58747
3.62969
3.64903
3.63619
3.59934
3.54037
3.47215
3.40148
3.33527
3.27291
3.21251
3.15676
3.88363
3.8344
3.78778
3.74018
3.69799
3.65624
3.60981
3.58312
3.55895
3.57109
3.61234
3.65181
3.64975
3.62475
3.57222
3.5055
3.43413
3.36478
3.30117
3.23896
3.18224
3.89455
3.84242
3.79213
3.74132
3.69753
3.65529
3.6071
3.57531
3.54776
3.55301
3.58822
3.64419
3.6584
3.64313
3.60115
3.53888
3.46746
3.3953
3.32999
3.26631
3.20826
3.90267
3.8482
3.79578
3.744
3.69868
3.65656
3.60628
3.56406
3.53766
3.53427
3.56158
3.62209
3.66359
3.65687
3.62809
3.57146
3.50046
3.42662
3.35915
3.29478
3.23393
3.9037
3.85013
3.80047
3.75129
3.7057
3.66122
3.6085
3.56064
3.5255
3.51463
3.53413
3.59069
3.65845
3.66479
3.6472
3.60063
3.53358
3.45926
3.38859
3.32341
3.26052
3.9025
3.85392
3.8064
3.76051
3.71424
3.66844
3.61468
3.56504
3.52224
3.49744
3.50551
3.55135
3.63157
3.66711
3.6582
3.6254
3.56551
3.49274
3.41953
3.35285
3.28836
3.90829
3.86188
3.81658
3.76817
3.72224
3.67624
3.62472
3.57465
3.52763
3.48288
3.4786
3.50873
3.58634
3.65646
3.65792
3.64204
3.59535
3.52736
3.45256
3.38302
3.3182
3.92144
3.87231
3.82406
3.77579
3.72699
3.68032
3.63047
3.58453
3.53767
3.48457
3.4566
3.46596
3.52839
3.62211
3.65842
3.64949
3.62017
3.56105
3.48852
3.41577
3.34894
3.93881
3.88226
3.82793
3.77939
3.73124
3.68488
3.63831
3.5968
3.54983
3.49232
3.45135
3.43182
3.47099
3.56687
3.64489
3.646
3.6313
3.59113
3.52581
3.45168
3.3821
3.94817
3.88911
3.83408
3.78412
3.73582
3.68961
3.64549
3.60184
3.55816
3.50295
3.45488
3.41572
3.42905
3.50228
3.60234
3.64683
3.6374
3.61253
3.56018
3.48889
3.41656
3.9694
3.90358
3.8441
3.79106
3.74096
3.69447
3.65161
3.6089
3.567
3.5149
3.46434
3.41915
3.40409
3.44303
3.53951
3.63149
3.63353
3.619
3.58647
3.52488
3.45212
3.98505
3.91649
3.85451
3.8005
3.74929
3.70132
3.65927
3.61587
3.57205
3.52547
3.47795
3.42833
3.38979
3.40147
3.47032
3.58254
3.62943
3.6212
3.5966
3.55244
3.48614
4.01067
3.94094
3.87659
3.81852
3.76327
3.71197
3.66763
3.62383
3.57946
3.53798
3.49176
3.44042
3.39111
3.3786
3.41179
3.51156
3.60707
3.61322
3.59845
3.57011
3.51519
4.03971
3.96866
3.9011
3.83814
3.77781
3.72404
3.6765
3.63178
3.58758
3.54401
3.50421
3.45692
3.39924
3.36548
3.37172
3.43718
3.55017
3.60389
3.59573
3.57176
3.53382
4.06979
3.99609
3.9257
3.8594
3.79601
3.73954
3.68956
3.64163
3.5957
3.55135
3.5114
3.46424
3.41159
3.36917
3.35059
3.3814
3.47487
3.5725
3.58336
3.56914
3.54292
4.10554
4.02926
3.95842
3.89012
3.82361
3.7626
3.70614
3.65331
3.60489
3.55875
3.51724
3.47289
3.42493
3.37818
3.34228
3.34621
3.40205
3.50952
3.56949
3.56161
3.54256
4.12552
4.05662
3.98656
3.91596
3.84672
3.78148
3.72041
3.66448
3.61457
3.56805
3.52589
3.48262
3.43613
3.39116
3.34339
3.33048
3.35129
3.43188
3.52703
3.55444
3.5436
4.15424
4.08837
4.01946
3.94828
3.87731
3.80946
3.74511
3.68559
3.63245
3.58315
3.53801
3.49373
3.44722
3.40497
3.35213
3.32282
3.31808
3.36391
3.4609
3.53216
3.53611
4.18464
4.11245
4.03964
3.97059
3.90266
3.83551
3.77064
3.70873
3.6519
3.59904
3.55055
3.50656
3.4596
3.41836
3.36569
3.32656
3.30474
3.31845
3.38681
3.47734
3.52415
4.16331
4.12616
4.05943
3.99443
3.93123
3.8667
3.80192
3.7383
3.67811
3.62145
3.56894
3.523
3.4752
3.4333
3.38147
3.33526
3.3017
3.29311
3.32785
3.41217
3.48496
4.18895
4.16254
4.08987
4.0213
3.95913
3.89589
3.83151
3.76733
3.7057
3.64661
3.59049
3.54005
3.49034
3.44699
3.39683
3.34723
3.30591
3.28153
3.28953
3.34227
3.42639
4.05579
4.14767
4.10886
4.04452
3.98156
3.91949
3.85698
3.7947
3.73299
3.67241
3.61373
3.55974
3.5074
3.46176
3.41354
3.362
3.31541
3.27938
3.27049
3.29077
3.35738
3.90641
4.17601
4.13978
4.07188
4.00628
3.94441
3.88375
3.82301
3.76205
3.70102
3.64064
3.58385
3.52922
3.48012
3.43184
3.38044
3.33076
3.28421
3.26239
3.25834
3.29704
3.40053
4.13182
4.1328
4.08532
4.02283
3.96359
3.90539
3.84607
3.78572
3.72526
3.66488
3.60685
3.55077
3.49917
3.44945
3.39912
3.34991
3.29631
3.26481
3.24123
3.25579
2.57239
3.98063
4.14253
4.10903
4.04827
3.98752
3.93003
3.87102
3.81105
3.75177
3.69296
3.63477
3.57761
3.52351
3.47214
3.42108
3.37218
3.31581
3.27445
3.24257
3.2305
1.80529
3.59496
4.15428
4.13911
4.07487
4.00615
3.94755
3.89003
3.83187
3.77454
3.71754
3.66019
3.60325
3.54811
3.495
3.44313
3.39363
3.3387
3.28906
3.24762
3.21943
1.45367
2.83355
3.95907
4.1148
4.08579
4.02415
3.96535
3.90996
3.85455
3.79944
3.74414
3.68795
3.63177
3.57621
3.52239
3.46926
3.41906
3.36421
3.31082
3.26213
3.22263
1.40268
2.00076
3.71953
4.1393
4.11947
4.05492
3.98974
3.93195
3.87654
3.82229
3.76803
3.71347
3.65887
3.60411
3.54986
3.49623
3.4449
3.39008
3.33494
3.28145
3.23336
1.40008
1.51122
3.06392
3.98955
4.1011
4.06797
4.00873
3.94996
3.89578
3.84341
3.79039
3.73759
3.68487
3.63156
3.57768
3.5242
3.47179
3.41737
3.36227
3.30533
3.25136
1.40001
1.40703
2.21359
3.81725
4.12398
4.10017
4.03803
3.97388
3.91773
3.86558
3.81324
3.76149
3.71003
3.65794
3.60478
3.55188
3.49884
3.44512
3.38997
3.33161
3.27422
1.40001
1.40024
1.60075
3.26011
4.0396
4.0885
4.05324
3.99111
3.93451
3.88316
3.83143
3.78073
3.73101
3.68081
3.62996
3.57794
3.52451
3.47091
3.41633
3.35923
3.3003
1.40001
1.40001
1.41688
2.41842
3.88643
4.10818
4.07775
4.01476
3.956
3.90372
3.8524
3.80252
3.75328
3.70357
3.65444
3.60347
3.55144
3.49793
3.44362
3.38792
3.32953
1.40001
1.40066
1.70969
3.42907
4.07596
4.07492
4.03126
3.97508
3.92176
3.87043
3.82154
3.77263
3.72326
3.67549
3.62547
3.57445
3.52115
3.46874
3.41504
3.35855
1.40001
1.40002
1.43437
2.62248
3.91694
4.07519
4.05006
3.99627
3.94211
3.89121
3.84263
3.79294
3.74367
3.69634
3.64776
3.59795
3.54563
3.49451
3.44223
3.38855
1.40001
1.40001
1.40159
1.83836
3.55802
4.09106
4.0779
4.02289
3.96147
3.90822
3.85964
3.80995
3.76091
3.71352
3.66592
3.61636
3.5666
3.5173
3.46655
3.41475
1.40001
1.40001
1.40005
1.46232
2.80696
3.89195
4.05249
4.03088
3.97894
3.9239
3.87513
3.82662
3.77884
3.73185
3.68504
3.63576
3.58846
3.53993
3.4906
3.44021
1.40001
1.40001
1.40001
1.40338
1.9771
3.63792
4.07952
4.06349
4.00832
3.94643
3.89466
3.84497
3.79696
3.75027
3.70321
3.65508
3.60967
3.56226
3.51387
3.46384
1.40001
1.40001
1.40001
1.40011
1.50318
2.96526
3.91756
4.04248
4.0169
3.96404
3.91131
3.86153
3.81456
3.76913
3.72186
3.67543
3.62984
3.58318
3.53605
3.4875
1.40001
1.40001
1.40001
1.40001
1.40655
2.12059
3.7117
4.06736
4.04817
3.99234
3.93376
3.88141
3.83429
3.78872
3.74103
3.69555
3.64961
3.60323
3.55595
3.50893
1.40001
1.40001
1.40001
1.40001
1.40023
1.5587
3.10204
3.94391
4.03246
4.00386
3.95207
3.89924
3.8522
3.80632
3.75899
3.7141
3.66852
3.62243
3.57539
3.52992
1.40001
1.40001
1.40001
1.40001
1.40001
1.41221
2.25517
3.7692
4.05278
4.03266
3.97813
3.92134
3.87336
3.82654
3.77866
3.73303
3.68753
3.6409
3.59461
3.55016
1.40001
1.40001
1.40001
1.40001
1.40001
1.40047
1.62206
3.22124
3.97656
4.01985
3.99189
3.93893
3.89015
3.84312
3.79573
3.75007
3.70531
3.65889
3.61376
3.56914
1.40001
1.40001
1.40001
1.40001
1.40001
1.40002
1.42058
2.38469
3.81641
4.03314
4.01334
3.96153
3.91072
3.86408
3.81636
3.76905
3.72361
3.67786
3.63396
3.58883
1.40001
1.40001
1.40001
1.40001
1.40001
1.40001
1.40088
1.69283
3.32995
3.99476
4.01411
3.97694
3.92515
3.87956
3.8339
3.78645
3.73959
3.69457
3.65196
3.60698
1.40001
1.40001
1.40001
1.40001
1.40001
1.40001
1.40003
1.43218
2.51081
3.85219
4.01621
3.99434
3.94622
3.89863
3.85387
3.80654
3.75751
3.71327
3.67183
3.62683
1.40001
1.40001
1.40001
1.40001
1.40001
1.40001
1.40001
1.40151
1.76847
3.41582
3.99551
4.00522
3.96857
3.91717
3.87249
3.82633
3.77651
3.73108
3.68947
3.64474
1.40001
1.40001
1.40001
1.40001
1.40001
1.40001
1.40001
1.40005
1.4467
2.61825
3.86587
4.01418
3.98738
3.93222
3.88414
3.84106
3.79539
3.75219
3.71099
3.66591
1.40001
1.40001
1.40001
1.40001
1.40001
1.40001
1.40001
1.40001
1.40236
1.83723
3.47402
4.01152
4.00829
3.957
3.90302
3.86017
3.81512
3.77151
3.72924
3.68405
1.40001
1.40001
1.40001
1.40001
1.40001
1.40001
1.40001
1.40001
1.40007
1.46266
2.68787
3.9002
3.98484
3.96293
3.92049
3.88035
3.83641
3.79227
3.74827
3.7026
1.40001
1.40001
1.40001
1.40001
1.40001
1.40001
1.40001
1.40001
1.40001
1.4035
1.88086
3.53316
4.01611
3.99829
3.95752
3.90559
3.85917
3.81362
3.76721
3.72049
1.40001
1.40001
1.40001
1.40001
1.40001
1.40001
1.40001
1.40001
1.40001
1.40011
1.47504
2.77178
3.84084
3.96146
3.94963
3.92009
3.87607
3.8318
3.78605
3.73926
1.40001
1.40001
1.40001
1.40001
1.40001
1.40001
1.40001
1.40001
1.40001
1.40001
1.40452
1.95043
3.57145
3.97866
3.97553
3.94663
3.89901
3.85107
3.80306
3.75718
1.40001
1.40001
1.40001
1.40001
1.40001
1.40001
1.40001
1.40001
1.40001
1.40001
1.40016
1.49687
2.90536
3.8062
3.96942
3.96139
3.921
3.87194
3.82143
3.77403
1.40001
1.40001
1.40001
1.40001
1.40001
1.40001
1.40001
1.40001
1.40001
1.40001
1.40001
1.40633
2.07494
3.57885
3.98142
3.98469
3.94718
3.89474
3.84369
3.79695
1.40001
1.40001
1.40001
1.40001
1.40001
1.40001
1.40001
1.40001
1.40001
1.40001
1.40001
1.40024
1.53817
2.94208
3.88815
4.0069
3.97691
3.92067
3.8641
3.81391
1.40001
1.40001
1.40001
1.40001
1.40001
1.40001
1.40001
1.40001
1.40001
1.40001
1.40001
1.40001
1.40963
2.10565
3.58026
4.01979
4.01051
3.96625
3.90559
3.84482
1.40001
1.40001
1.40001
1.40001
1.40001
1.40001
1.40001
1.40001
1.40001
1.40001
1.40001
1.40001
1.40033
1.54559
2.88055
3.96443
3.99922
3.96391
3.902
3.84707
1.40001
1.40001
1.40001
1.40001
1.40001
1.40001
1.40001
1.40001
1.40001
1.40001
1.40001
1.40001
1.40001
1.41013
2.04391
3.62139
4.02564
3.99806
3.92751
3.86169
1.40001
1.40001
1.40001
1.40001
1.40001
1.40001
1.40001
1.40001
1.40001
1.40001
1.40001
1.40001
1.40001
1.40033
1.52542
2.881
3.951
3.9356
3.90269
3.87097
1.40001
1.40001
1.40001
1.40001
1.40001
1.40001
1.40001
1.40001
1.40001
1.40001
1.40001
1.40001
1.40001
1.40001
1.40873
2.05134
3.68153
3.96109
3.92205
3.89105
1.40001
1.40001
1.40001
1.40001
1.40001
1.40001
1.40001
1.40001
1.40001
1.40001
1.40001
1.40001
1.40001
1.40001
1.40034
1.54114
3.0503
3.83005
3.89824
3.89445
1.40001
1.40001
1.40001
1.40001
1.40001
1.40001
1.40001
1.40001
1.40001
1.40001
1.40001
1.40001
1.40001
1.40001
1.40001
1.41207
2.21583
3.62724
3.92718
3.92856
1.40001
1.40001
1.40001
1.40001
1.40001
1.40001
1.40001
1.40001
1.40001
1.40001
1.40001
1.40001
1.40001
1.40001
1.40001
1.40061
1.6071
3.11504
3.8187
3.92315
1.16252
1.1612
1.15995
1.15871
1.15711
1.15429
1.15146
1.15039
1.14995
1.14968
1.14901
1.14838
1.14821
1.14759
1.14655
1.14521
1.14313
1.13968
1.1346
1.13084
1.12897
1.12781
1.12688
1.12596
1.12542
1.12571
1.12666
1.12804
1.1313
1.13698
1.1433
1.14872
1.15234
1.15488
1.15723
1.15768
1.15666
1.15464
1.15182
1.1473
1.13994
1.13354
3.06217
3.03869
3.01503
2.98801
2.9651
2.93975
2.91851
2.89189
2.86243
2.83306
2.81531
2.81687
2.82888
2.88164
3.01858
3.14901
3.15945
3.14674
3.12532
3.09878
3.06456
3.02593
2.98555
2.9459
2.90908
2.87147
2.83327
2.79933
2.76531
2.72813
2.69259
2.66217
2.63002
2.59771
2.56278
2.53633
2.50768
2.47927
2.44848
2.41973
2.39464
2.36626
2.33913
2.30787
2.28362
2.25769
2.23238
2.20422
2.17963
2.15524
2.13056
2.10457
2.07966
2.05858
2.03604
2.01435
1.99124
1.9731
1.95179
1.93124
1.90633
1.88577
1.86606
1.84763
1.82878
1.81435
1.7988
1.78188
1.76197
1.73876
1.72403
1.70958
1.6967
1.68292
1.67216
1.66372
1.65407
1.64075
1.62547
1.62098
1.62313
1.62147
1.61848
1.61206
1.59765
1.5811
1.56527
1.5411
1.52247
1.51534
1.50688
1.49865
1.49087
1.48093
1.46375
1.45019
1.44361
1.43568
1.42837
1.42346
1.41888
1.41366
1.40636
1.39517
1.38235
1.37139
1.36216
1.35349
1.3452
1.33686
1.32669
1.31425
1.303
1.29403
1.28573
1.27777
1.27241
1.26873
1.26465
1.25829
1.24644
1.23123
1.22541
1.22427
1.22241
1.21927
1.21632
1.21314
1.20828
1.19706
1.18041
1.16872
1.16605
1.16342
1.15764
1.15296
1.152
1.15444
1.15777
1.16334
1.17981
1.21523
1.25335
1.27501
1.28515
1.29349
1.29694
1.29469
1.29058
1.28659
1.28241
1.27802
1.27334
1.26684
1.25715
1.24996
1.24681
1.24435
1.24185
1.23937
1.23712
1.23504
1.23255
1.22885
1.22236
1.21529
1.21229
1.21051
1.20869
1.20687
1.20515
1.20347
1.20146
1.19842
1.19506
1.19332
1.19213
1.19085
1.18919
1.18711
1.18414
1.17948
1.17509
1.17253
1.17
1.16812
1.16683
1.16559
1.16427
1.1629
1.16138
1.15927
1.15604
1.15277
1.15133
1.15054
1.15021
1.15047
1.14991
1.14905
1.14871
1.1481
1.14708
1.14565
1.14333
1.13928
1.13486
1.13226
1.13086
1.12992
1.12905
1.12804
1.12702
1.12616
1.12528
1.12447
1.12591
1.13039
1.13682
1.14417
1.15083
1.15589
1.15822
1.15835
1.1577
1.15539
1.1523
1.14675
1.13976
1.13706
3.08786
3.06284
3.03836
3.0122
2.99075
2.96437
2.94009
2.91423
2.8864
2.86015
2.83731
2.83787
2.84388
2.87979
2.96625
3.08777
3.14471
3.14014
3.12599
3.10532
3.07955
3.04723
3.0104
2.97201
2.93408
2.89476
2.8569
2.82237
2.78748
2.74944
2.71698
2.68526
2.65333
2.6177
2.58802
2.56135
2.53215
2.5033
2.47222
2.44703
2.41838
2.39074
2.35943
2.33209
2.30711
2.28077
2.25407
2.22696
2.20389
2.17832
2.15419
2.1264
2.10518
2.08244
2.06089
2.03655
2.01639
1.99632
1.97478
1.95188
1.92653
1.9086
1.88945
1.87073
1.85312
1.83833
1.82091
1.80249
1.77881
1.76091
1.74671
1.73233
1.71895
1.70504
1.69449
1.68407
1.67149
1.65634
1.64951
1.65181
1.65241
1.64878
1.64377
1.63196
1.61412
1.59715
1.57571
1.55105
1.54249
1.53519
1.52646
1.51845
1.50876
1.49265
1.4745
1.46908
1.46254
1.45378
1.44785
1.44258
1.43712
1.4307
1.42041
1.40641
1.39371
1.38307
1.37515
1.36784
1.35845
1.34795
1.33639
1.3232
1.31059
1.30244
1.29601
1.29077
1.28641
1.28219
1.27671
1.26669
1.25005
1.24079
1.23916
1.23808
1.23538
1.23192
1.22829
1.22345
1.21348
1.19642
1.18177
1.17814
1.17711
1.17466
1.16959
1.16377
1.15982
1.15748
1.1544
1.14699
1.14989
1.16782
1.20383
1.24158
1.26992
1.28898
1.29428
1.29301
1.2894
1.28502
1.28086
1.27666
1.27105
1.26194
1.25313
1.25004
1.24819
1.24631
1.24403
1.24155
1.23896
1.23604
1.23252
1.22656
1.21887
1.21541
1.21375
1.2122
1.21068
1.20903
1.20739
1.20554
1.20289
1.19967
1.19746
1.19603
1.19485
1.19346
1.19152
1.18854
1.18459
1.17991
1.1761
1.17416
1.17226
1.1703
1.16888
1.16771
1.16644
1.16498
1.16282
1.15911
1.15446
1.15231
1.15135
1.15065
1.15046
1.15098
1.15013
1.14914
1.14878
1.14815
1.14718
1.14571
1.14285
1.13866
1.13539
1.13348
1.13239
1.13161
1.13087
1.13001
1.12885
1.12691
1.12379
1.121
1.1217
1.12517
1.13129
1.13963
1.14916
1.15616
1.1581
1.15833
1.15807
1.15564
1.15156
1.14691
1.14313
1.1418
3.11322
3.0877
3.06447
3.03747
3.01335
2.98724
2.96485
2.94114
2.90928
2.88341
2.86107
2.8601
2.86447
2.88642
2.95239
3.04814
3.11122
3.12774
3.12001
3.10693
3.08837
3.06341
3.03233
2.99721
2.96011
2.92062
2.88262
2.84705
2.81021
2.77361
2.74234
2.71035
2.6763
2.64137
2.61491
2.58573
2.55724
2.52529
2.49872
2.47117
2.44198
2.41205
2.38132
2.35673
2.32987
2.30428
2.27543
2.2523
2.22719
2.20301
2.17593
2.15156
2.12999
2.10694
2.08412
2.06032
2.04084
2.01844
1.99735
1.97021
1.94993
1.93227
1.91398
1.89414
1.87794
1.86119
1.84279
1.82081
1.80017
1.78471
1.76916
1.75547
1.74006
1.72641
1.71456
1.70207
1.68819
1.67903
1.68011
1.68327
1.68049
1.67516
1.66615
1.64916
1.63001
1.60983
1.5835
1.57007
1.56414
1.55553
1.54698
1.53774
1.52329
1.50162
1.49252
1.48875
1.48021
1.47296
1.46779
1.46171
1.455
1.44556
1.43153
1.41657
1.40603
1.3965
1.3895
1.38241
1.37151
1.35771
1.34462
1.33236
1.31974
1.31324
1.30912
1.30498
1.30062
1.29523
1.28718
1.27211
1.25856
1.25554
1.25427
1.25227
1.24881
1.24491
1.23988
1.23063
1.21433
1.19736
1.19152
1.19028
1.1894
1.18678
1.18213
1.17621
1.16962
1.16201
1.15062
1.14056
1.14177
1.15026
1.17087
1.2039
1.24242
1.27448
1.28418
1.28407
1.28142
1.27696
1.27338
1.2698
1.2642
1.25589
1.25136
1.24964
1.24849
1.24782
1.24569
1.24295
1.23979
1.23597
1.23031
1.22261
1.21831
1.21644
1.21491
1.21369
1.21237
1.21067
1.20881
1.20612
1.20305
1.20108
1.19967
1.19826
1.1969
1.19523
1.19274
1.18893
1.18436
1.18096
1.17829
1.17649
1.17486
1.17311
1.17165
1.17036
1.16892
1.16701
1.16359
1.15797
1.15427
1.15293
1.15186
1.15112
1.15105
1.15102
1.14988
1.149
1.1485
1.14779
1.14682
1.145
1.14162
1.13833
1.13596
1.13453
1.13366
1.13312
1.13253
1.13179
1.13047
1.12739
1.12191
1.11873
1.11924
1.12167
1.12678
1.13503
1.14651
1.1554
1.1571
1.15742
1.15718
1.15457
1.1503
1.14885
1.14761
1.14579
3.13992
3.11353
3.08932
3.06214
3.0395
3.01416
2.98837
2.96411
2.93499
2.90944
2.8842
2.88169
2.88504
2.90005
2.95137
3.02061
3.08725
3.11084
3.11155
3.10398
3.08909
3.07028
3.04741
3.01902
2.98553
2.94812
2.91024
2.87361
2.83524
2.8002
2.76844
2.73634
2.69998
2.66956
2.64132
2.61186
2.58013
2.55017
2.52392
2.49388
2.46496
2.43233
2.40649
2.37996
2.35408
2.32572
2.30067
2.27697
2.25148
2.22685
2.19885
2.17779
2.15397
2.13165
2.10649
2.0854
2.06344
2.041
2.01739
1.99103
1.97492
1.95661
1.93816
1.91776
1.90167
1.88379
1.8637
1.84163
1.8244
1.8079
1.79191
1.77675
1.76045
1.74658
1.73296
1.72028
1.71014
1.70919
1.71284
1.71326
1.70755
1.69957
1.68526
1.66455
1.64367
1.6185
1.59883
1.5929
1.5856
1.57637
1.56733
1.55472
1.53321
1.51641
1.5133
1.50751
1.49866
1.49348
1.48753
1.48026
1.4706
1.45718
1.44094
1.42859
1.41974
1.41178
1.40454
1.39567
1.38251
1.36558
1.35198
1.34153
1.33192
1.32757
1.32414
1.3196
1.31433
1.30692
1.29456
1.27973
1.27399
1.27163
1.26951
1.26651
1.26259
1.25765
1.24898
1.23324
1.21563
1.20664
1.20446
1.20337
1.20213
1.19924
1.1949
1.18878
1.17944
1.16414
1.14724
1.14009
1.1411
1.1474
1.16048
1.18096
1.20996
1.24169
1.26055
1.26476
1.26503
1.26443
1.26308
1.26055
1.25639
1.25187
1.2499
1.24866
1.24868
1.24881
1.24649
1.2433
1.23954
1.23364
1.22579
1.22115
1.21905
1.21735
1.21601
1.21513
1.21364
1.21182
1.2093
1.20585
1.20374
1.20249
1.20108
1.19952
1.19788
1.19594
1.19289
1.1882
1.18504
1.18292
1.18099
1.17931
1.17785
1.1764
1.17495
1.17341
1.17151
1.16849
1.1632
1.15675
1.1547
1.15383
1.15287
1.15207
1.1519
1.1509
1.14955
1.14866
1.14797
1.14712
1.14575
1.14312
1.14049
1.13849
1.13677
1.13557
1.13481
1.13442
1.13382
1.13301
1.13123
1.12705
1.12157
1.11928
1.11946
1.12129
1.12451
1.13092
1.14252
1.15313
1.15519
1.15554
1.15494
1.15224
1.1504
1.15001
1.14972
1.14799
3.16648
3.139
3.11567
3.08955
3.06487
3.03717
3.01219
2.99113
2.95988
2.93276
2.90648
2.90359
2.90634
2.91698
2.95576
3.01566
3.06417
3.09013
3.10097
3.09623
3.08733
3.07329
3.05524
3.03335
3.00608
2.9733
2.93778
2.90114
2.8631
2.82864
2.79604
2.76195
2.72664
2.6982
2.66823
2.63748
2.6038
2.57677
2.54721
2.51771
2.48539
2.45714
2.43126
2.40425
2.37697
2.34949
2.32681
2.30081
2.27704
2.24842
2.22519
2.20252
2.17853
2.15445
2.13039
2.10942
2.08542
2.0635
2.03604
2.01654
1.99978
1.98127
1.96158
1.94129
1.92493
1.90653
1.88465
1.8653
1.84824
1.83108
1.81448
1.7966
1.78019
1.7653
1.7524
1.74295
1.73983
1.74208
1.74466
1.74077
1.73239
1.72089
1.70137
1.67847
1.65466
1.63061
1.62165
1.61608
1.60692
1.5975
1.58616
1.5669
1.54375
1.53741
1.53411
1.52579
1.51925
1.51363
1.50628
1.49655
1.48287
1.4663
1.45174
1.44281
1.43489
1.42794
1.41959
1.40712
1.39078
1.37289
1.36028
1.35319
1.34773
1.34377
1.33959
1.33442
1.32754
1.31619
1.30167
1.29455
1.29122
1.2879
1.28459
1.28082
1.27585
1.26777
1.25238
1.23517
1.22464
1.22126
1.21884
1.2174
1.21539
1.21205
1.2075
1.2003
1.18573
1.16402
1.1488
1.14611
1.14652
1.1508
1.16245
1.17668
1.1895
1.20504
1.2224
1.23501
1.24178
1.24676
1.25057
1.2505
1.24916
1.24797
1.24714
1.24694
1.24887
1.24854
1.24607
1.24255
1.2368
1.22813
1.22306
1.22118
1.21968
1.21845
1.21744
1.216
1.21431
1.21216
1.20886
1.20575
1.20425
1.20295
1.20146
1.19982
1.19805
1.19571
1.19136
1.18803
1.18668
1.1853
1.18376
1.18239
1.18115
1.17983
1.17825
1.17635
1.17366
1.16914
1.16157
1.1567
1.15552
1.15496
1.15456
1.15342
1.1522
1.15094
1.14967
1.14854
1.14741
1.14593
1.14349
1.14133
1.1403
1.13911
1.13767
1.1365
1.13579
1.1353
1.1346
1.13357
1.13129
1.12572
1.12181
1.12103
1.12076
1.12165
1.12436
1.12851
1.13719
1.14854
1.15218
1.15266
1.15206
1.15065
1.14991
1.14964
1.15034
1.14943
3.19205
3.16502
3.14145
3.11498
3.09015
3.06582
3.03845
3.01433
2.98283
2.95641
2.92978
2.92315
2.92602
2.9342
2.96549
3.01872
3.05957
3.07693
3.08338
3.08656
3.081
3.06981
3.05523
3.03812
3.01844
2.99329
2.96306
2.92883
2.89303
2.85878
2.82519
2.78852
2.75546
2.72592
2.69547
2.66117
2.63015
2.60198
2.57156
2.53999
2.50852
2.48312
2.45584
2.42913
2.3997
2.37625
2.35091
2.32608
2.2996
2.27249
2.25145
2.22633
2.20294
2.17635
2.15505
2.13167
2.10824
2.0837
2.05903
2.04334
2.02383
2.00599
1.98407
1.96477
1.94857
1.92917
1.90743
1.88894
1.87219
1.85481
1.83459
1.81578
1.79937
1.7855
1.77574
1.77134
1.77207
1.77529
1.77357
1.76527
1.75475
1.73877
1.71477
1.6908
1.66582
1.65136
1.64623
1.63851
1.62832
1.61756
1.60131
1.57575
1.56216
1.55952
1.5537
1.54535
1.54015
1.53304
1.52343
1.50955
1.49231
1.47588
1.46584
1.45877
1.45146
1.44371
1.43256
1.41595
1.39734
1.38158
1.37271
1.36862
1.36488
1.36048
1.35547
1.34932
1.33957
1.32381
1.31452
1.3112
1.30765
1.30387
1.29991
1.29512
1.28741
1.27203
1.25316
1.24351
1.24034
1.23661
1.23391
1.23194
1.22916
1.22518
1.21913
1.20741
1.18723
1.16628
1.1599
1.15939
1.15974
1.16363
1.17232
1.17967
1.18332
1.18769
1.19605
1.20726
1.21841
1.22831
1.23685
1.24099
1.24194
1.24226
1.24281
1.2451
1.24791
1.24715
1.24429
1.23887
1.23004
1.22379
1.2218
1.22056
1.22057
1.2201
1.21833
1.21658
1.21447
1.21129
1.20767
1.20577
1.20437
1.20294
1.20136
1.19958
1.19737
1.19366
1.19008
1.18889
1.18811
1.18757
1.18684
1.18566
1.18446
1.183
1.18114
1.17861
1.17476
1.16842
1.16064
1.15793
1.15701
1.15651
1.15599
1.15467
1.15315
1.15178
1.15033
1.14858
1.14634
1.14369
1.14191
1.14099
1.14035
1.13959
1.13839
1.13734
1.13661
1.13596
1.13518
1.1338
1.13042
1.1252
1.1231
1.12289
1.1228
1.12332
1.12558
1.12768
1.13193
1.14135
1.14765
1.14902
1.14906
1.14909
1.14903
1.14938
1.15087
1.15055
3.21819
3.19121
3.16638
3.14085
3.11449
3.09008
3.06267
3.04026
3.01049
2.97991
2.95181
2.9413
2.9441
2.95068
2.97619
3.02591
3.06254
3.07424
3.0764
3.07409
3.06901
3.06196
3.05156
3.03921
3.02424
3.00565
2.98272
2.95459
2.92229
2.88865
2.85382
2.81701
2.78497
2.754
2.72163
2.68624
2.65681
2.62684
2.59641
2.5625
2.5347
2.50794
2.48149
2.45226
2.42628
2.4015
2.37504
2.35021
2.32056
2.29919
2.27528
2.25083
2.22488
2.19951
2.17887
2.15441
2.13112
2.10398
2.08598
2.06828
2.04851
2.02974
2.00611
1.9894
1.97238
1.95205
1.93106
1.91242
1.89522
1.87575
1.85446
1.83523
1.81954
1.80922
1.80349
1.80291
1.80598
1.8061
1.79894
1.78774
1.77448
1.75304
1.72718
1.70374
1.68371
1.67592
1.67012
1.66023
1.64943
1.63526
1.61112
1.58934
1.5846
1.5812
1.57298
1.56645
1.55998
1.55064
1.53719
1.5195
1.50176
1.48946
1.48227
1.47564
1.46846
1.45814
1.44191
1.42192
1.40458
1.39392
1.38957
1.38631
1.38228
1.37744
1.37181
1.36388
1.34985
1.33538
1.33066
1.32717
1.32331
1.31948
1.31502
1.30811
1.29351
1.27297
1.2608
1.25886
1.25625
1.25207
1.24908
1.24641
1.2429
1.23758
1.22729
1.20924
1.18871
1.17887
1.17681
1.17609
1.17654
1.17901
1.18211
1.18425
1.18547
1.18443
1.18815
1.19502
1.20365
1.2148
1.22445
1.22983
1.23255
1.23461
1.23772
1.24274
1.24452
1.24303
1.23862
1.23038
1.22371
1.2217
1.22053
1.22095
1.22232
1.22102
1.21901
1.21672
1.2136
1.20943
1.20703
1.20565
1.20422
1.20262
1.20081
1.1986
1.19528
1.19148
1.19024
1.18966
1.18926
1.18973
1.1899
1.18867
1.18731
1.18559
1.18325
1.17974
1.17469
1.16677
1.16149
1.16001
1.15908
1.15842
1.1575
1.15613
1.15475
1.15333
1.1513
1.14812
1.14456
1.14268
1.14166
1.14092
1.14062
1.14017
1.13911
1.13813
1.1373
1.13651
1.13554
1.13365
1.12956
1.12622
1.12509
1.12465
1.12471
1.12539
1.12676
1.12764
1.12806
1.13309
1.14128
1.14482
1.14638
1.1474
1.14823
1.14955
1.15211
1.15224
3.24234
3.21595
3.19239
3.16768
3.13895
3.11565
3.08824
3.0628
3.03262
3.00326
2.97691
2.95949
2.96147
2.96617
2.98738
3.03697
3.07106
3.07597
3.07605
3.07103
3.06021
3.05313
3.0449
3.0343
3.02243
3.00927
2.99148
2.97058
2.94467
2.91469
2.88095
2.84634
2.81465
2.78294
2.74796
2.71379
2.68327
2.6528
2.62018
2.58863
2.56112
2.53401
2.50568
2.47743
2.45246
2.42513
2.40012
2.37021
2.34565
2.32423
2.29813
2.27455
2.24564
2.22348
2.20196
2.17843
2.15231
2.12837
2.11205
2.09235
2.07389
2.05055
2.03072
2.01448
1.99529
1.9755
1.95567
1.93622
1.91654
1.89505
1.87394
1.85649
1.84484
1.83681
1.83405
1.83582
1.83766
1.83215
1.82147
1.80883
1.79126
1.76498
1.7411
1.72
1.70711
1.70108
1.69255
1.68138
1.66868
1.64793
1.62041
1.61054
1.60782
1.60158
1.59346
1.58727
1.57856
1.56561
1.54745
1.52847
1.51442
1.50609
1.49967
1.4931
1.4841
1.4693
1.44812
1.42905
1.41652
1.41139
1.40832
1.40456
1.39986
1.39465
1.38791
1.37647
1.3602
1.35118
1.34725
1.3433
1.33904
1.33466
1.32876
1.31633
1.29539
1.27935
1.27662
1.27543
1.27215
1.26808
1.26463
1.26109
1.2561
1.24666
1.2289
1.20984
1.19995
1.19746
1.19511
1.19386
1.19369
1.19322
1.19264
1.19158
1.18668
1.18401
1.18711
1.19266
1.20085
1.21
1.21525
1.21848
1.22187
1.22639
1.23231
1.23651
1.23633
1.23399
1.22819
1.22219
1.22021
1.21913
1.21995
1.22319
1.2229
1.22105
1.21899
1.21609
1.21098
1.20783
1.20669
1.2054
1.20387
1.20208
1.19988
1.19673
1.19259
1.19086
1.19034
1.19
1.19022
1.19201
1.19221
1.1908
1.18915
1.18711
1.18412
1.17976
1.17312
1.16671
1.1639
1.16268
1.1616
1.16061
1.15944
1.15817
1.15689
1.15519
1.15204
1.14706
1.14391
1.14272
1.14179
1.1411
1.14104
1.14084
1.13978
1.13873
1.13778
1.13683
1.13564
1.13294
1.12951
1.12788
1.12708
1.12645
1.12636
1.12678
1.12708
1.12683
1.12491
1.12668
1.13361
1.14039
1.14364
1.14602
1.14815
1.1511
1.1534
1.15299
3.27041
3.24338
3.21687
3.19089
3.16338
3.14023
3.11283
3.08607
3.05995
3.02733
2.99951
2.97687
2.97795
2.98196
2.99968
3.04788
3.08272
3.08525
3.0837
3.07542
3.0586
3.04803
3.03537
3.02575
3.01955
3.00789
2.99303
2.97662
2.95717
2.93347
2.90523
2.8747
2.84352
2.81108
2.77559
2.74236
2.71111
2.67971
2.64666
2.6163
2.58817
2.56055
2.53116
2.50441
2.4764
2.44989
2.42159
2.39263
2.37243
2.3469
2.322
2.29607
2.26766
2.24762
2.2253
2.20198
2.17518
2.15427
2.13619
2.11748
2.09613
2.07324
2.05668
2.03801
2.01895
1.99963
1.97836
1.95797
1.93658
1.91451
1.89547
1.88257
1.87286
1.8661
1.86572
1.86822
1.86416
1.85499
1.84303
1.82771
1.8047
1.77829
1.75869
1.74135
1.73238
1.72507
1.7141
1.70192
1.68441
1.65544
1.63735
1.6337
1.62976
1.62151
1.61462
1.60678
1.59471
1.57697
1.55625
1.54042
1.53087
1.52391
1.51756
1.50975
1.49672
1.47546
1.45441
1.44044
1.43402
1.43091
1.42776
1.42299
1.41782
1.41202
1.40281
1.38669
1.37311
1.36818
1.36424
1.35985
1.35497
1.34893
1.33819
1.31881
1.30018
1.29567
1.29437
1.29198
1.28807
1.28415
1.28031
1.27561
1.26747
1.2499
1.22882
1.21857
1.21716
1.21476
1.2124
1.21106
1.20945
1.20755
1.20489
1.19841
1.18788
1.18627
1.18963
1.19603
1.20344
1.20907
1.21231
1.21408
1.21591
1.21975
1.22477
1.22574
1.22512
1.22252
1.2191
1.21749
1.21671
1.2176
1.22164
1.22381
1.22249
1.2205
1.21807
1.21363
1.20965
1.20823
1.20695
1.20545
1.20371
1.20164
1.19878
1.19441
1.19135
1.19058
1.19
1.18982
1.19145
1.19405
1.19349
1.19173
1.18972
1.18736
1.18376
1.17786
1.17238
1.16866
1.16689
1.16557
1.16428
1.16305
1.16185
1.16062
1.15919
1.15684
1.15213
1.1469
1.14479
1.14366
1.14262
1.14183
1.1417
1.14139
1.14023
1.13908
1.13802
1.13697
1.13512
1.13208
1.13033
1.1295
1.12871
1.1279
1.12751
1.12745
1.12729
1.12582
1.12116
1.12156
1.12645
1.1346
1.14166
1.14633
1.15024
1.15382
1.15452
1.15405
3.29891
3.27086
3.24462
3.2177
3.18957
3.164
3.13826
3.10998
3.08476
3.05188
3.02442
2.99769
2.99559
2.99868
3.01221
3.05607
3.09712
3.10142
3.09819
3.08556
3.0632
3.04887
3.03222
3.02325
3.0147
3.00493
2.99265
2.97658
2.9605
2.94148
2.92038
2.89642
2.86822
2.83678
2.80324
2.7714
2.74075
2.70893
2.67647
2.64556
2.61645
2.58727
2.55905
2.53025
2.50155
2.47409
2.44211
2.41991
2.39691
2.36981
2.34588
2.31601
2.29197
2.27236
2.24907
2.22507
2.19941
2.17922
2.16127
2.14184
2.11823
2.099
2.08037
2.06116
2.04355
2.02172
2.00008
1.97898
1.95641
1.93596
1.92154
1.91106
1.90082
1.89672
1.89814
1.89497
1.88702
1.87722
1.86352
1.84383
1.81726
1.79601
1.77904
1.76564
1.75792
1.74793
1.73562
1.72019
1.69216
1.66625
1.66003
1.65716
1.6503
1.64235
1.63518
1.62437
1.60742
1.5856
1.56699
1.5561
1.5487
1.54219
1.5351
1.52388
1.50406
1.48102
1.46537
1.45762
1.45377
1.45116
1.44697
1.44172
1.43616
1.4287
1.41532
1.39734
1.38909
1.38545
1.38145
1.37663
1.37047
1.36033
1.34169
1.32232
1.31613
1.3145
1.31208
1.30829
1.30407
1.29991
1.29531
1.28814
1.27224
1.25039
1.23719
1.23545
1.23445
1.23151
1.22912
1.22709
1.22464
1.22151
1.21503
1.20191
1.1947
1.19577
1.19977
1.20506
1.2081
1.20926
1.2112
1.21344
1.21555
1.21761
1.21875
1.21876
1.21764
1.21499
1.21381
1.21383
1.21483
1.21802
1.22254
1.22294
1.22119
1.21833
1.21419
1.21144
1.20983
1.20844
1.20711
1.20557
1.20364
1.20107
1.19695
1.19206
1.19064
1.19006
1.18974
1.19044
1.19359
1.19498
1.19343
1.19134
1.18935
1.18659
1.18125
1.17557
1.17319
1.17153
1.16996
1.16848
1.16706
1.16574
1.1645
1.16318
1.16139
1.15799
1.15226
1.14796
1.1463
1.14516
1.14409
1.14311
1.14236
1.14174
1.14066
1.13935
1.13807
1.13646
1.13374
1.13198
1.13153
1.1308
1.1299
1.12884
1.12806
1.12763
1.12713
1.12457
1.12056
1.12155
1.12537
1.13079
1.13874
1.14659
1.15345
1.15586
1.15608
1.15582
3.3302
3.30046
3.27284
3.24334
3.2161
3.191
3.16469
3.13361
3.11105
3.08197
3.04801
3.01863
3.01198
3.01553
3.02738
3.06487
3.11048
3.12194
3.11817
3.10302
3.07682
3.05541
3.03615
3.02253
3.01192
3.00304
2.98758
2.97401
2.96102
2.94403
2.92743
2.90813
2.88525
2.85815
2.82903