/*--------------------------------*- C++ -*----------------------------------*\
  =========                 |
  \\      /  F ield         | OpenFOAM: The Open Source CFD Toolbox
   \\    /   O peration     | Website:  https://openfoam.org
    \\  /    A nd           | Version:  7
     \\/     M anipulation  |
\*---------------------------------------------------------------------------*/
FoamFile
{
    version     2.0;
    format      ascii;
    class       volScalarField;
    location    "1.9";
    object      p;
}
// * * * * * * * * * * * * * * * * * * * * * * * * * * * * * * * * * * * * * //

dimensions      [1 -1 -2 0 0 0 0];

internalField   nonuniform List<scalar> 
16192
(
1
1
1
1
1
1
1
1
1
1
1
1
1
1
1
1
1
1
1
1
1
1
1
1
1
1
1
1
1
1
1
1
1
1
1
1
1
1
1
1
1
1
1
1
1
1
1
1
1
1
1
1
1
1
1
1
1
1
1
1
1
1
1
1
1
1
1
1
1
1
1
1
1
1
1
1
1
1
1
1
1
1
1
1
1
1
1
1
1
1
1
1
1
1
1
1
1
1
1
1
1
1
1
1
1
1
1
1
1
1
1
1
1
1
1
1
1
1
1
1
1
1
1
1
1
1
1
1
1
1
1
1
1
1
1
1
1
1
1
1
1
1
1
1.31246
7.51527
10.4217
10.4508
10.5018
10.5521
10.6076
10.6662
10.7259
10.7832
10.8365
10.8877
10.9389
10.9892
11.0383
11.0872
11.1371
11.1877
11.2379
11.2856
11.3286
11.3674
11.4046
11.442
11.4803
11.5193
11.5581
11.5963
11.6343
11.6718
11.7075
11.7415
11.7744
11.8072
11.8401
11.8724
11.9031
11.9308
11.9538
11.9711
11.9828
11.9914
12.0004
12.0122
12.0272
12.0434
12.0573
12.0666
12.0718
1
1
1
1
1
1
1
1
1
1
1
1
1
1
1
1
1
1
1
1
1
1
1
1
1
1
1
1
1
1
1
1
1
1
1
1
1
1
1
1
1
1
1
1
1
1
1
1
1
1
1
1
1
1
1
1
1
1
1
1
1
1
1
1
1
1
1
1
1
1
1
1
1
1
1
1
1
1
1
1
1
1
1
1
1
1
1
1
1
1
1
1
1
1
1
1
1
1
1
1
1
1
1
1
1
1
1
1
1
1
1
1
1
1
1
1
1
1
1
1
1
1
1
1
1
1
1
1
1
1
1
1
1
1
1
1
1
1
1
1
1
1
1
1.29987
7.46918
10.4129
10.4553
10.5032
10.5532
10.6085
10.667
10.7263
10.783
10.8365
10.888
10.9392
10.9894
11.0381
11.087
11.1368
11.1869
11.236
11.2824
11.3248
11.3643
11.4029
11.4417
11.4807
11.5197
11.558
11.5955
11.6328
11.6697
11.7052
11.7391
11.772
11.8049
11.8379
11.8701
11.9005
11.9278
11.9505
11.9678
11.9799
11.9889
11.9982
12.0101
12.0248
12.0405
12.0538
12.0628
12.0676
1
1
1
1
1
1
1
1
1
1
1
1
1
1
1
1
1
1
1
1
1
1
1
1
1
1
1
1
1
1
1
1
1
1
1
1
1
1
1
1
1
1
1
1
1
1
1
1
1
1
1
1
1
1
1
1
1
1
1
1
1
1
1
1
1
1
1
1
1
1
1
1
1
1
1
1
1
1
1
1
1
1
1
1
1
1
1
1
1
1
1
1
1
1
1
1
1
1
1
1
1
1
1
1
1
1
1
1
1
1
1
1
1
1
1
1
1
1
1
1
1
1
1
1
1
1
1
1
1
1
1
1
1
1
1
1
1
1
1
1
1
1
1
1.27343
7.38495
10.4131
10.4545
10.5017
10.5521
10.6077
10.6665
10.7257
10.7823
10.8357
10.8868
10.9372
10.9868
11.0356
11.0846
11.1343
11.1834
11.231
11.2759
11.3177
11.3577
11.3978
11.4381
11.4782
11.5178
11.5561
11.5931
11.6298
11.666
11.7012
11.7351
11.7683
11.8017
11.8352
11.8676
11.8977
11.9241
11.946
11.9628
11.9749
11.9841
11.9937
12.0056
12.02
12.0352
12.0478
12.0562
12.0608
1
1
1
1
1
1
1
1
1
1
1
1
1
1
1
1
1
1
1
1
1
1
1
1
1
1
1
1
1
1
1
1
1
1
1
1
1
1
1
1
1
1
1
1
1
1
1
1
1
1
1
1
1
1
1
1
1
1
1
1
1
1
1
1
1
1
1
1
1
1
1
1
1
1
1
1
1
1
1
1
1
1
1
1
1
1
1
1
1
1
1
1
1
1
1
1
1
1
1
1
1
1
1
1
1
1
1
1
1
1
1
1
1
1
1
1
1
1
1
1
1
1
1
1
1
1
1
1
1
1
1
1
1
1
1
1
1
1
1
1
1
1
1
1.23155
7.25739
10.4151
10.4527
10.4998
10.5515
10.6078
10.6675
10.727
10.7831
10.8359
10.8862
10.9356
10.9843
11.0328
11.0817
11.1309
11.1791
11.2252
11.2689
11.3102
11.3505
11.3915
11.433
11.4742
11.5143
11.5523
11.5885
11.6239
11.659
11.6934
11.7271
11.7607
11.7947
11.8287
11.8616
11.8916
11.9177
11.9394
11.9563
11.9686
11.9783
11.9881
11.9998
12.0136
12.0278
12.0394
12.0468
12.0506
1
1
1
1
1
1
1
1
1
1
1
1
1
1
1
1
1
1
1
1
1
1
1
1
1
1
1
1
1
1
1
1
1
1
1
1
1
1
1
1
1
1
1
1
1
1
1
1
1
1
1
1
1
1
1
1
1
1
1
1
1
1
1
1
1
1
1
1
1
1
1
1
1
1
1
1
1
1
1
1
1
1
1
1
1
1
1
1
1
1
1
1
1
1
1
1
1
1
1
1
1
1
1
1
1
1
1
1
1
1
1
1
1
1
1
1
1
1
1
1
1
1
1
1
1
1
1
1
1
1
1
1
1
1
1
1
1
1
1
1
1
1
1
1.17436
7.0904
10.4135
10.4529
10.4989
10.5503
10.6047
10.6627
10.7212
10.7774
10.831
10.8818
10.9312
10.9795
11.0279
11.0768
11.1257
11.1733
11.2187
11.2618
11.3027
11.3433
11.385
11.4274
11.4693
11.5099
11.5476
11.5829
11.617
11.6507
11.6843
11.7178
11.7517
11.7863
11.8211
11.8543
11.8841
11.9096
11.9308
11.9475
11.9601
11.9701
11.9801
11.9918
12.005
12.0181
12.0283
12.0345
12.0376
1
1
1
1
1
1
1
1
1
1
1
1
1
1
1
1
1
1
1
1
1
1
1
1
1
1
1
1
1
1
1
1
1
1
1
1
1
1
1
1
1
1
1
1
1
1
1
1
1
1
1
1
1
1
1
1
1
1
1
1
1
1
1
1
1
1
1
1
1
1
1
1
1
1
1
1
1
1
1
1
1
1
1
1
1
1
1
1
1
1
1
1
1
1
1
1
1
1
1
1
1
1
1
1
1
1
1
1
1
1
1
1
1
1
1
1
1
1
1
1
1
1
1
1
1
1
1
1
1
1
1
1
1
1
1
1
1
1
1
1
1
1
1
1.09372
6.91649
10.4161
10.4519
10.4945
10.5462
10.5998
10.6572
10.7154
10.7717
10.8253
10.876
10.9253
10.9737
11.0221
11.0708
11.1193
11.1664
11.2113
11.2539
11.2946
11.3352
11.377
11.4197
11.462
11.5028
11.5404
11.575
11.6081
11.6408
11.6736
11.7069
11.741
11.776
11.8113
11.8447
11.8744
11.8995
11.9202
11.9368
11.9495
11.9598
11.9701
11.9817
11.9942
12.0062
12.0148
12.0195
12.0215
1
1
1
1
1
1
1
1
1
1
1
1
1
1
1
1
1
1
1
1
1
1
1
1
1
1
1
1
1
1
1
1
1
1
1
1
1
1
1
1
1
1
1
1
1
1
1
1
1
1
1
1
1
1
1
1
1
1
1
1
1
1
1
1
1
1
1
1
1
1
1
1
1
1
1
1
1
1
1
1
1
1
1
1
1
1
1
1
1
1
1
1
1
1
1
1
1
1
1
1
1
1
1
1
1
1
1
1
1
1
1
1
1
1
1
1
1
1
1
1
1
1
1
1
1
1
1
1
1
1
1
1
1
1
1
1
1
1
1
1
1
1
1
1.0052
6.68128
10.403
10.4508
10.4912
10.544
10.5976
10.6556
10.714
10.7708
10.8243
10.8739
10.9211
10.9672
11.0138
11.0613
11.1092
11.1561
11.2013
11.2442
11.2853
11.326
11.368
11.4106
11.453
11.494
11.5317
11.5659
11.5981
11.6295
11.6611
11.6934
11.7269
11.7619
11.7976
11.8316
11.8616
11.8866
11.9071
11.9235
11.9362
11.9468
11.9574
11.9691
11.9814
11.9923
11.9995
12.0028
12.004
1
1
1
1
1
1
1
1
1
1
1
1
1
1
1
1
1
1
1
1
1
1
1
1
1
1
1
1
1
1
1
1
1
1
1
1
1
1
1
1
1
1
1
1
1
1
1
1
1
1
1
1
1
1
1
1
1
1
1
1
1
1
1
1
1
1
1
1
1
1
1
1
1
1
1
1
1
1
1
1
1
1
1
1
1
1
1
1
1
1
1
1
1
1
1
1
1
1
1
1
1
1
1
1
1
1
1
1
1
1
1
1
1
1
1
1
1
1
1
1
1
1
1
1
1
1
1
1
1
1
1
1
1
1
1
1
1
1
1
1
1
1
1
1.00006
6.36686
10.3633
10.437
10.4798
10.5341
10.5871
10.6448
10.7032
10.7605
10.8142
10.8635
10.9102
10.956
11.0028
11.0508
11.0991
11.1467
11.1925
11.2358
11.2772
11.3178
11.3591
11.4008
11.4423
11.4826
11.5199
11.5539
11.5856
11.6161
11.6465
11.6777
11.7103
11.7448
11.7808
11.8155
11.8461
11.8713
11.8916
11.9077
11.9205
11.9316
11.9428
11.9548
11.9667
11.9765
11.9823
11.9844
11.9846
1
1
1
1
1
1
1
1
1
1
1
1
1
1
1
1
1
1
1
1
1
1
1
1
1
1
1
1
1
1
1
1
1
1
1
1
1
1
1
1
1
1
1
1
1
1
1
1
1
1
1
1
1
1
1
1
1
1
1
1
1
1
1
1
1
1
1
1
1
1
1
1
1
1
1
1
1
1
1
1
1
1
1
1
1
1
1
1
1
1
1
1
1
1
1
1
1
1
1
1
1
1
1
1
1
1
1
1
1
1
1
1
1
1
1
1
1
1
1
1
1
1
1
1
1
1
1
1
1
1
1
1
1
1
1
1
1
1
1
1
1
1
1
1
6.00351
10.3198
10.4254
10.4712
10.5258
10.5788
10.6366
10.695
10.7524
10.8065
10.8563
10.9029
10.9481
10.9942
11.0414
11.0889
11.1359
11.1812
11.2241
11.2651
11.3052
11.3459
11.3868
11.4278
11.4677
11.5051
11.5393
11.5709
11.601
11.6304
11.6603
11.6915
11.7254
11.7617
11.7975
11.8292
11.8548
11.8747
11.8903
11.9028
11.9141
11.9254
11.9374
11.9486
11.9573
11.9619
11.9628
11.9624
1
1
1
1
1
1
1
1
1
1
1
1
1
1
1
1
1
1
1
1
1
1
1
1
1
1
1
1
1
1
1
1
1
1
1
1
1
1
1
1
1
1
1
1
1
1
1
1
1
1
1
1
1
1
1
1
1
1
1
1
1
1
1
1
1
1
1
1
1
1
1
1
1
1
1
1
1
1
1
1
1
1
1
1
1
1
1
1
1
1
1
1
1
1
1
1
1
1
1
1
1
1
1
1
1
1
1
1
1
1
1
1
1
1
1
1
1
1
1
1
1
1
1
1
1
1
1
1
1
1
1
1
1
1
1
1
1
1
1
1
1
1
1
1
5.60357
10.2597
10.4128
10.4618
10.5164
10.5695
10.6272
10.6855
10.7427
10.7972
10.8474
10.8936
10.938
10.9836
11.0302
11.0771
11.1238
11.1693
11.212
11.2527
11.2924
11.3324
11.3724
11.4125
11.4516
11.4884
11.5224
11.5539
11.5835
11.6119
11.6401
11.6698
11.7029
11.7397
11.7768
11.8097
11.8358
11.8554
11.8704
11.8826
11.8939
11.9055
11.9173
11.9279
11.9356
11.9392
11.9392
11.9382
1
1
1
1
1
1
1
1
1
1
1
1
1
1
1
1
1
1
1
1
1
1
1
1
1
1
1
1
1
1
1
1
1
1
1
1
1
1
1
1
1
1
1
1
1
1
1
1
1
1
1
1
1
1
1
1
1
1
1
1
1
1
1
1
1
1
1
1
1
1
1
1
1
1
1
1
1
1
1
1
1
1
1
1
1
1
1
1
1
1
1
1
1
1
1
1
1
1
1
1
1
1
1
1
1
1
1
1
1
1
1
1
1
1
1
1
1
1
1
1
1
1
1
1
1
1
1
1
1
1
1
1
1
1
1
1
1
1
1
1
1
1
1
1
5.17537
10.177
10.3979
10.4495
10.5049
10.5587
10.6165
10.6745
10.7313
10.7859
10.8365
10.8829
10.927
10.9725
11.0186
11.0646
11.1107
11.1557
11.1978
11.238
11.2773
11.3168
11.3561
11.3952
11.4333
11.4698
11.5038
11.5355
11.5647
11.5917
11.618
11.646
11.6782
11.7153
11.7536
11.7876
11.8139
11.8331
11.8474
11.8592
11.8705
11.8823
11.894
11.9041
11.911
11.914
11.9134
11.912
1
1
1
1
1
1
1
1
1
1
1
1
1
1
1
1
1
1
1
1
1
1
1
1
1
1
1
1
1
1
1
1
1
1
1
1
1
1
1
1
1
1
1
1
1
1
1
1
1
1
1
1
1
1
1
1
1
1
1
1
1
1
1
1
1
1
1
1
1
1
1
1
1
1
1
1
1
1
1
1
1
1
1
1
1
1
1
1
1
1
1
1
1
1
1
1
1
1
1
1
1
1
1
1
1
1
1
1
1
1
1
1
1
1
1
1
1
1
1
1
1
1
1
1
1
1
1
1
1
1
1
1
1
1
1
1
1
1
1
1
1
1
1
1
4.72244
10.069
10.3803
10.4342
10.491
10.546
10.6043
10.6622
10.7184
10.7729
10.8241
10.8708
10.9148
10.96
11.0054
11.05
11.0949
11.1391
11.1803
11.22
11.2593
11.2986
11.3373
11.3755
11.4128
11.4491
11.4835
11.5155
11.5441
11.5695
11.5937
11.62
11.6515
11.6888
11.7279
11.7626
11.789
11.8077
11.8215
11.833
11.8443
11.856
11.8675
11.8772
11.8837
11.8862
11.8851
11.8836
1
1
1
1
1
1
1
1
1
1
1
1
1
1
1
1
1
1
1
1
1
1
1
1
1
1
1
1
1
1
1
1
1
1
1
1
1
1
1
1
1
1
1
1
1
1
1
1
1
1
1
1
1
1
1
1
1
1
1
1
1
1
1
1
1
1
1
1
1
1
1
1
1
1
1
1
1
1
1
1
1
1
1
1
1
1
1
1
1
1
1
1
1
1
1
1
1
1
1
1
1
1
1
1
1
1
1
1
1
1
1
1
1
1
1
1
1
1
1
1
1
1
1
1
1
1
1
1
1
1
1
1
1
1
1
1
1
1
1
1
1
1
1
1
4.24511
9.93294
10.3613
10.4167
10.4762
10.5325
10.5914
10.6491
10.7045
10.7587
10.8104
10.8578
10.9023
10.9476
10.9925
11.036
11.0794
11.1223
11.1624
11.2015
11.2404
11.2791
11.3169
11.3538
11.3902
11.4264
11.4611
11.4931
11.5208
11.5444
11.5668
11.5918
11.6228
11.66
11.6993
11.7342
11.7604
11.7788
11.7923
11.8036
11.8147
11.8262
11.8376
11.847
11.8532
11.8555
11.8541
11.8526
1
1
1
1
1
1
1
1
1
1
1
1
1
1
1
1
1
1
1
1
1
1
1
1
1
1
1
1
1
1
1
1
1
1
1
1
1
1
1
1
1
1
1
1
1
1
1
1
1
1
1
1
1
1
1
1
1
1
1
1
1
1
1
1
1
1
1
1
1
1
1
1
1
1
1
1
1
1
1
1
1
1
1
1
1
1
1
1
1
1
1
1
1
1
1
1
1
1
1
1
1
1
1
1
1
1
1
1
1
1
1
1
1
1
1
1
1
1
1
1
1
1
1
1
1
1
1
1
1
1
1
1
1
1
1
1
1
1
1
1
1
1
1
1
3.74745
9.76035
10.342
10.3988
10.4602
10.5172
10.5764
10.6334
10.688
10.7413
10.793
10.8408
10.8857
10.9313
10.9762
11.019
11.0613
11.1033
11.1427
11.1815
11.2202
11.2581
11.2951
11.3308
11.3666
11.4027
11.4375
11.469
11.4953
11.517
11.5379
11.562
11.5924
11.6291
11.6681
11.7027
11.7287
11.7469
11.7602
11.7713
11.782
11.7931
11.8041
11.8133
11.8192
11.8213
11.8196
11.8182
1
1
1
1
1
1
1
1
1
1
1
1
1
1
1
1
1
1
1
1
1
1
1
1
1
1
1
1
1
1
1
1
1
1
1
1
1
1
1
1
1
1
1
1
1
1
1
1
1
1
1
1
1
1
1
1
1
1
1
1
1
1
1
1
1
1
1
1
1
1
1
1
1
1
1
1
1
1
1
1
1
1
1
1
1
1
1
1
1
1
1
1
1
1
1
1
1
1
1
1
1
1
1
1
1
1
1
1
1
1
1
1
1
1
1
1
1
1
1
1
1
1
1
1
1
1
1
1
1
1
1
1
1
1
1
1
1
1
1
1
1
1
1
1
3.23808
9.53572
10.3276
10.3832
10.4457
10.5013
10.5593
10.6152
10.6695
10.7223
10.7741
10.8221
10.867
10.9121
10.9568
10.9992
11.0409
11.0827
11.122
11.1604
11.1985
11.2352
11.2712
11.3059
11.3414
11.3775
11.4119
11.4421
11.4667
11.4869
11.5069
11.5306
11.5602
11.5956
11.6334
11.6673
11.6932
11.7114
11.7247
11.7355
11.7458
11.7564
11.7671
11.776
11.7815
11.7835
11.7817
11.7808
1
1
1
1
1
1
1
1
1
1
1
1
1
1
1
1
1
1
1
1
1
1
1
1
1
1
1
1
1
1
1
1
1
1
1
1
1
1
1
1
1
1
1
1
1
1
1
1
1
1
1
1
1
1
1
1
1
1
1
1
1
1
1
1
1
1
1
1
1
1
1
1
1
1
1
1
1
1
1
1
1
1
1
1
1
1
1
1
1
1
1
1
1
1
1
1
1
1
1
1
1
1
1
1
1
1
1
1
1
1
1
1
1
1
1
1
1
1
1
1
1
1
1
1
1
1
1
1
1
1
1
1
1
1
1
1
1
1
1
1
1
1
1
1
2.7407
9.23228
10.3263
10.3748
10.4374
10.4901
10.5456
10.6003
10.6537
10.7053
10.756
10.8037
10.8483
10.8928
10.937
10.9794
11.0205
11.0621
11.1011
11.1384
11.1749
11.2099
11.2451
11.2794
11.315
11.3509
11.3844
11.4129
11.4356
11.4548
11.4744
11.4975
11.5257
11.5591
11.5952
11.6284
11.6544
11.6729
11.6862
11.6967
11.7064
11.7163
11.7263
11.7345
11.7394
11.7411
11.7394
11.7392
1
1
1
1
1
1
1
1
1
1
1
1
1
1
1
1
1
1
1
1
1
1
1
1
1
1
1
1
1
1
1
1
1
1
1
1
1
1
1
1
1
1
1
1
1
1
1
1
1
1
1
1
1
1
1
1
1
1
1
1
1
1
1
1
1
1
1
1
1
1
1
1
1
1
1
1
1
1
1
1
1
1
1
1
1
1
1
1
1
1
1
1
1
1
1
1
1
1
1
1
1
1
1
1
1
1
1
1
1
1
1
1
1
1
1
1
1
1
1
1
1
1
1
1
1
1
1
1
1
1
1
1
1
1
1
1
1
1
1
1
1
1
1
1
2.26041
8.83086
10.339
10.3711
10.4305
10.4769
10.5296
10.5835
10.6365
10.6875
10.7372
10.7846
10.829
10.8732
10.9173
10.9598
11.0002
11.0411
11.0796
11.115
11.1497
11.1832
11.218
11.2522
11.2879
11.3228
11.3542
11.3803
11.4014
11.4201
11.4398
11.4623
11.4886
11.5196
11.5537
11.5861
11.6121
11.6306
11.6436
11.6536
11.6627
11.672
11.6812
11.6884
11.6927
11.6945
11.6932
11.6942
1
1
1
1
1
1
1
1
1
1
1
1
1
1
1
1
1
1
1
1
1
1
1
1
1
1
1
1
1
1
1
1
1
1
1
1
1
1
1
1
1
1
1
1
1
1
1
1
1
1
1
1
1
1
1
1
1
1
1
1
1
1
1
1
1
1
1
1
1
1
1
1
1
1
1
1
1
1
1
1
1
1
1
1
1
1
1
1
1
1
1
1
1
1
1
1
1
1
1
1
1
1
1
1
1
1
1
1
1
1
1
1
1
1
1
1
1
1
1
1
1
1
1
1
1
1
1
1
1
1
1
1
1
1
1
1
1
1
1
1
1
1
1
1
1.79921
8.3406
10.3847
10.3698
10.4242
10.4655
10.5146
10.5659
10.6174
10.6676
10.7164
10.7634
10.8081
10.8523
10.8966
10.9392
10.9791
11.0186
11.0564
11.0902
11.1236
11.1559
11.1905
11.2247
11.2594
11.292
11.3207
11.3445
11.3647
11.3837
11.4036
11.4251
11.4492
11.4772
11.509
11.5403
11.5661
11.5845
11.5971
11.6067
11.6153
11.6239
11.6318
11.6376
11.6409
11.6426
11.6419
11.6443
1
1
1
1
1
1
1
1
1
1
1
1
1
1
1
1
1
1
1
1
1
1
1
1
1
1
1
1
1
1
1
1
1
1
1
1
1
1
1
1
1
1
1
1
1
1
1
1
1
1
1
1
1
1
1
1
1
1
1
1
1
1
1
1
1
1
1
1
1
1
1
1
1
1
1
1
1
1
1
1
1
1
1
1
1
1
1
1
1
1
1
1
1
1
1
1
1
1
1
1
1
1
1
1
1
1
1
1
1
1
1
1
1
1
1
1
1
1
1
1
1
1
1
1
1
1
1
1
1
1
1
1
1
1
1
1
1
1
1
1
1
1
1
1
1.3952
7.74994
10.4187
10.3633
10.4079
10.4443
10.4906
10.5407
10.5934
10.6451
10.694
10.7403
10.7848
10.8291
10.8737
10.9167
10.9564
10.9943
11.0313
11.0639
11.0965
11.1281
11.1622
11.1958
11.2287
11.2584
11.2844
11.3065
11.3265
11.3458
11.3653
11.3852
11.4065
11.4314
11.4608
11.4909
11.5162
11.5341
11.5459
11.5548
11.5628
11.5704
11.5769
11.581
11.5834
11.5855
11.5862
11.5902
1
1
1
1
1
1
1
1
1
1
1
1
1
1
1
1
1
1
1
1
1
1
1
1
1
1
1
1
1
1
1
1
1
1
1
1
1
1
1
1
1
1
1
1
1
1
1
1
1
1
1
1
1
1
1
1
1
1
1
1
1
1
1
1
1
1
1
1
1
1
1
1
1
1
1
1
1
1
1
1
1
1
1
1
1
1
1
1
1
1
1
1
1
1
1
1
1
1
1
1
1
1
1
1
1
1
1
1
1
1
1
1
1
1
1
1
1
1
1
1
1
1
1
1
1
1
1
1
1
1
1
1
1
1
1
1
1
1
1
1
1
1
1
1
1.1083
7.12551
10.3709
10.3331
10.3778
10.4205
10.4697
10.5214
10.5719
10.6202
10.667
10.7131
10.7582
10.803
10.8478
10.8911
10.9307
10.9673
11.0031
11.0351
11.0676
11.0989
11.1319
11.1645
11.1953
11.2222
11.2461
11.2672
11.287
11.306
11.3242
11.342
11.3605
11.3826
11.4098
11.4383
11.4626
11.4795
11.4904
11.4985
11.5056
11.512
11.5167
11.5187
11.5198
11.5221
11.524
11.5294
1
1
1
1
1
1
1
1
1
1
1
1
1
1
1
1
1
1
1
1
1
1
1
1
1
1
1
1
1
1
1
1
1
1
1
1
1
1
1
1
1
1
1
1
1
1
1
1
1
1
1
1
1
1
1
1
1
1
1
1
1
1
1
1
1
1
1
1
1
1
1
1
1
1
1
1
1
1
1
1
1
1
1
1
1
1
1
1
1
1
1
1
1
1
1
1
1
1
1
1
1
1
1
1
1
1
1
1
1
1
1
1
1
1
1
1
1
1
1
1
1
1
1
1
1
1
1
1
1
1
1
1
1
1
1
1
1
1
1
1
1
1
1
1
1.00344
6.33149
10.2297
10.294
10.3378
10.3822
10.4302
10.483
10.5365
10.5883
10.6373
10.6834
10.728
10.7728
10.818
10.8617
10.9011
10.9369
10.9717
11.0037
11.0365
11.068
11.0993
11.1303
11.1589
11.1838
11.2062
11.2267
11.2459
11.2637
11.2801
11.2954
11.3114
11.331
11.3556
11.3821
11.4046
11.4199
11.4293
11.4362
11.4415
11.4462
11.449
11.4493
11.4496
11.4523
11.456
11.4626
1
1
1
1
1
1
1
1
1
1
1
1
1
1
1
1
1
1
1
1
1
1
1
1
1
1
1
1
1
1
1
1
1
1
1
1
1
1
1
1
1
1
1
1
1
1
1
1
1
1
1
1
1
1
1
1
1
1
1
1
1
1
1
1
1
1
1
1
1
1
1
1
1
1
1
1
1
1
1
1
1
1
1
1
1
1
1
1
1
1
1
1
1
1
1
1
1
1
1
1
1
1
1
1
1
1
1
1
1
1
1
1
1
1
1
1
1
1
1
1
1
1
1
1
1
1
1
1
1
1
1
1
1
1
1
1
1
1
1
1
1
1
1
1
1.00001
5.50031
10.1017
10.244
10.3061
10.365
10.4168
10.4675
10.516
10.5634
10.6095
10.6542
10.698
10.7415
10.7858
10.8287
10.8682
10.9034
10.9373
10.9694
11.0024
11.034
11.0633
11.0925
11.1192
11.1429
11.1645
11.1846
11.2029
11.219
11.233
11.2459
11.2596
11.2764
11.298
11.3217
11.3419
11.3553
11.3633
11.3687
11.3717
11.3742
11.3746
11.3732
11.372
11.3743
11.3788
11.3855
1
1
1
1
1
1
1
1
1
1
1
1
1
1
1
1
1
1
1
1
1
1
1
1
1
1
1
1
1
1
1
1
1
1
1
1
1
1
1
1
1
1
1
1
1
1
1
1
1
1
1
1
1
1
1
1
1
1
1
1
1
1
1
1
1
1
1
1
1
1
1
1
1
1
1
1
1
1
1
1
1
1
1
1
1
1
1
1
1
1
1
1
1
1
1
1
1
1
1
1
1
1
1
1
1
1
1
1
1
1
1
1
1
1
1
1
1
1
1
1
1
1
1
1
1
1
1
1
1
1
1
1
1
1
1
1
1
1
1
1
1
1
1
1
1
4.59256
9.88609
10.212
10.2748
10.3323
10.3864
10.4403
10.4913
10.5399
10.586
10.6296
10.6712
10.7127
10.7538
10.7952
10.8323
10.8668
10.9003
10.9324
10.9647
10.996
11.0235
11.0509
11.0763
11.0998
11.1212
11.1407
11.1575
11.1713
11.1827
11.1934
11.2047
11.2187
11.2367
11.2567
11.2739
11.2849
11.2912
11.2938
11.2935
11.2925
11.2901
11.2872
11.2856
11.288
11.2931
11.2998
1
1
1
1
1
1
1
1
1
1
1
1
1
1
1
1
1
1
1
1
1
1
1
1
1
1
1
1
1
1
1
1
1
1
1
1
1
1
1
1
1
1
1
1
1
1
1
1
1
1
1
1
1
1
1
1
1
1
1
1
1
1
1
1
1
1
1
1
1
1
1
1
1
1
1
1
1
1
1
1
1
1
1
1
1
1
1
1
1
1
1
1
1
1
1
1
1
1
1
1
1
1
1
1
1
1
1
1
1
1
1
1
1
1
1
1
1
1
1
1
1
1
1
1
1
1
1
1
1
1
1
1
1
1
1
1
1
1
1
1
1
1
1
1
1
3.68532
9.58554
10.1869
10.2636
10.3273
10.3786
10.4237
10.4686
10.513
10.557
10.6003
10.6421
10.6826
10.7227
10.7615
10.7985
10.8298
10.8613
10.8926
10.9236
10.954
10.98
11.006
11.0307
11.0543
11.0754
11.0939
11.1088
11.1203
11.1294
11.1381
11.1471
11.1578
11.1716
11.1871
11.2005
11.2088
11.2126
11.2117
11.2081
11.2035
11.1981
11.1927
11.1894
11.1901
11.1935
11.1979
1
1
1
1
1
1
1
1
1
1
1
1
1
1
1
1
1
1
1
1
1
1
1
1
1
1
1
1
1
1
1
1
1
1
1
1
1
1
1
1
1
1
1
1
1
1
1
1
1
1
1
1
1
1
1
1
1
1
1
1
1
1
1
1
1
1
1
1
1
1
1
1
1
1
1
1
1
1
1
1
1
1
1
1
1
1
1
1
1
1
1
1
1
1
1
1
1
1
1
1
1
1
1
1
1
1
1
1
1
1
1
1
1
1
1
1
1
1
1
1
1
1
1
1
1
1
1
1
1
1
1
1
1
1
1
1
1
1
1
1
1
1
1
1
1
2.85474
9.12123
10.1967
10.2534
10.3049
10.3488
10.3974
10.4464
10.4911
10.5341
10.5739
10.612
10.6495
10.6874
10.7254
10.7609
10.794
10.8227
10.8519
10.8791
10.9081
10.9334
10.9582
10.9823
11.0059
11.0264
11.0435
11.0565
11.0659
11.073
11.0797
11.0862
11.0932
11.1018
11.1121
11.1211
11.1263
11.1266
11.1208
11.1123
11.1027
11.0929
11.0846
11.0794
11.0785
11.0806
11.0835
1
1
1
1
1
1
1
1
1
1
1
1
1
1
1
1
1
1
1
1
1
1
1
1
1
1
1
1
1
1
1
1
1
1
1
1
1
1
1
1
1
1
1
1
1
1
1
1
1
1
1
1
1
1
1
1
1
1
1
1
1
1
1
1
1
1
1
1
1
1
1
1
1
1
1
1
1
1
1
1
1
1
1
1
1
1
1
1
1
1
1
1
1
1
1
1
1
1
1
1
1
1
1
1
1
1
1
1
1
1
1
1
1
1
1
1
1
1
1
1
1
1
1
1
1
1
1
1
1
1
1
1
1
1
1
1
1
1
1
1
1
1
1
1
1
2.03683
8.46981
10.2833
10.2543
10.3039
10.3434
10.3819
10.4185
10.4599
10.504
10.5465
10.5857
10.6215
10.656
10.6903
10.7232
10.7537
10.7827
10.8087
10.8343
10.8596
10.8841
10.9078
10.9312
10.9541
10.9737
10.9893
11.0005
11.0082
11.0136
11.0179
11.0216
11.0245
11.028
11.0321
11.0357
11.037
11.0325
11.0218
11.0076
10.9925
10.9783
10.966
10.956
10.9487
10.945
10.9427
1
1
1
1
1
1
1
1
1
1
1
1
1
1
1
1
1
1
1
1
1
1
1
1
1
1
1
1
1
1
1
1
1
1
1
1
1
1
1
1
1
1
1
1
1
1
1
1
1
1
1
1
1
1
1
1
1
1
1
1
1
1
1
1
1
1
1
1
1
1
1
1
1
1
1
1
1
1
1
1
1
1
1
1
1
1
1
1
1
1
1
1
1
1
1
1
1
1
1
1
1
1
1
1
1
1
1
1
1
1
1
1
1
1
1
1
1
1
1
1
1
1
1
1
1
1
1
1
1
1
1
1
1
1
1
1
1
1
1
1
1
1
1
1
1
1.33072
7.7182
10.3769
10.2632
10.2674
10.2974
10.3411
10.3878
10.4331
10.4751
10.516
10.554
10.5896
10.6238
10.657
10.6877
10.715
10.7404
10.7645
10.7863
10.8093
10.8341
10.8554
10.8774
10.8984
10.9166
10.9308
10.9409
10.947
10.9504
10.9524
10.9529
10.9512
10.9487
10.9466
10.9439
10.9399
10.93
10.9134
10.8914
10.8679
10.8452
10.825
10.808
10.7948
10.7865
10.7823
1
1
1
1
1
1
1
1
1
1
1
1
1
1
1
1
1
1
1
1
1
1
1
1
1
1
1
1
1
1
1
1
1
1
1
1
1
1
1
1
1
1
1
1
1
1
1
1
1
1
1
1
1
1
1
1
1
1
1
1
1
1
1
1
1
1
1
1
1
1
1
1
1
1
1
1
1
1
1
1
1
1
1
1
1
1
1
1
1
1
1
1
1
1
1
1
1
1
1
1
1
1
1
1
1
1
1
1
1
1
1
1
1
1
1
1
1
1
1
1
1
1
1
1
1
1
1
1
1
1
1
1
1
1
1
1
1
1
1
1
1
1
1
1
1
1.0149
6.82795
10.2424
10.1619
10.2281
10.2722
10.3141
10.3544
10.399
10.4432
10.4836
10.5213
10.5569
10.5902
10.6215
10.6507
10.6766
10.6999
10.7214
10.741
10.7602
10.7816
10.8026
10.8212
10.8392
10.8556
10.8683
10.8777
10.8823
10.8837
10.883
10.8797
10.8728
10.8644
10.8556
10.8462
10.8357
10.8194
10.795
10.7636
10.7303
10.6988
10.6702
10.6427
10.6141
10.5893
10.5711
1
1
1
1
1
1
1
1
1
1
1
1
1
1
1
1
1
1
1
1
1
1
1
1
1
1
1
1
1
1
1
1
1
1
1
1
1
1
1
1
1
1
1
1
1
1
1
1
1
1
1
1
1
1
1
1
1
1
1
1
1
1
1
1
1
1
1
1
1
1
1
1
1
1
1
1
1
1
1
1
1
1
1
1
1
1
1
1
1
1
1
1
1
1
1
1
1
1
1
1
1
1
1
1
1
1
1
1
1
1
1
1
1
1
1
1
1
1
1
1
1
1
1
1
1
1
1
1
1
1
1
1
1
1
1
1
1
1
1
1
1
1
1
1
1
1.00003
5.64879
9.96088
10.1048
10.1868
10.2349
10.2821
10.3261
10.3663
10.405
10.4461
10.4852
10.5213
10.5544
10.5848
10.6125
10.6367
10.658
10.6779
10.6964
10.7138
10.7302
10.7476
10.7634
10.7776
10.7913
10.8027
10.8109
10.8141
10.813
10.8089
10.8013
10.7891
10.7745
10.7586
10.742
10.7241
10.6998
10.6662
10.6238
10.5774
10.5302
10.4812
10.4304
10.381
10.3404
10.3219
1
1
1
1
1
1
1
1
1
1
1
1
1
1
1
1
1
1
1
1
1
1
1
1
1
1
1
1
1
1
1
1
1
1
1
1
1
1
1
1
1
1
1
1
1
1
1
1
1
1
1
1
1
1
1
1
1
1
1
1
1
1
1
1
1
1
1
1
1
1
1
1
1
1
1
1
1
1
1
1
1
1
1
1
1
1
1
1
1
1
1
1
1
1
1
1
1
1
1
1
1
1
1
1
1
1
1
1
1
1
1
1
1
1
1
1
1
1
1
1
1
1
1
1
1
1
1
1
1
1
1
1
1
1
1
1
1
1
1
1
1
1
1
1
1
1
4.53678
9.73038
10.0362
10.1368
10.212
10.2587
10.2944
10.331
10.3704
10.4084
10.4445
10.4812
10.5153
10.5456
10.5721
10.5952
10.6153
10.6334
10.6504
10.6661
10.6796
10.6928
10.7044
10.7149
10.7256
10.7352
10.7415
10.743
10.7385
10.7303
10.7179
10.7003
10.6796
10.6564
10.6321
10.6056
10.5719
10.5272
10.4711
10.4075
10.34
10.2696
10.1947
10.1153
10.0272
9.9513
1
1
1
1
1
1
1
1
1
1
1
1
1
1
1
1
1
1
1
1
1
1
1
1
1
1
1
1
1
1
1
1
1
1
1
1
1
1
1
1
1
1
1
1
1
1
1
1
1
1
1
1
1
1
1
1
1
1
1
1
1
1
1
1
1
1
1
1
1
1
1
1
1
1
1
1
1
1
1
1
1
1
1
1
1
1
1
1
1
1
1
1
1
1
1
1
1
1
1
1
1
1
1
1
1
1
1
1
1
1
1
1
1
1
1
1
1
1
1
1
1
1
1
1
1
1
1
1
1
1
1
1
1
1
1
1
1
1
1
1
1
1
1
1
1
1
3.4385
9.25022
10.0522
10.143
10.1997
10.2389
10.2744
10.3039
10.335
10.3679
10.404
10.4386
10.4714
10.5017
10.5282
10.5508
10.5702
10.5871
10.6027
10.6166
10.6275
10.637
10.6454
10.6521
10.6591
10.6661
10.67
10.6685
10.6602
10.6472
10.6298
10.6065
10.5797
10.5492
10.5163
10.4799
10.4351
10.3777
10.3061
10.2226
10.1289
10.0208
9.88642
9.72328
9.55983
9.44508
1
1
1
1
1
1
1
1
1
1
1
1
1
1
1
1
1
1
1
1
1
1
1
1
1
1
1
1
1
1
1
1
1
1
1
1
1
1
1
1
1
1
1
1
1
1
1
1
1
1
1
1
1
1
1
1
1
1
1
1
1
1
1
1
1
1
1
1
1
1
1
1
1
1
1
1
1
1
1
1
1
1
1
1
1
1
1
1
1
1
1
1
1
1
1
1
1
1
1
1
1
1
1
1
1
1
1
1
1
1
1
1
1
1
1
1
1
1
1
1
1
1
1
1
1
1
1
1
1
1
1
1
1
1
1
1
1
1
1
1
1
1
1
1
1
1
2.33959
8.54717
10.1257
10.1385
10.1744
10.206
10.2404
10.2735
10.3047
10.3349
10.3647
10.3951
10.4268
10.4557
10.4814
10.5035
10.5224
10.5385
10.5529
10.5649
10.5739
10.5807
10.5862
10.5898
10.5928
10.596
10.5968
10.5915
10.579
10.5606
10.5377
10.5091
10.476
10.4379
10.3957
10.3482
10.2911
10.2197
10.1305
10.0225
9.89278
9.73446
9.5389
9.29961
9.03861
8.88179
1
1
1
1
1
1
1
1
1
1
1
1
1
1
1
1
1
1
1
1
1
1
1
1
1
1
1
1
1
1
1
1
1
1
1
1
1
1
1
1
1
1
1
1
1
1
1
1
1
1
1
1
1
1
1
1
1
1
1
1
1
1
1
1
1
1
1
1
1
1
1
1
1
1
1
1
1
1
1
1
1
1
1
1
1
1
1
1
1
1
1
1
1
1
1
1
1
1
1
1
1
1
1
1
1
1
1
1
1
1
1
1
1
1
1
1
1
1
1
1
1
1
1
1
1
1
1
1
1
1
1
1
1
1
1
1
1
1
1
1
1
1
1
1
1
1
1.39023
7.7627
10.2756
10.1365
10.1375
10.1655
10.2025
10.2369
10.2684
10.2996
10.3292
10.3572
10.384
10.4101
10.4338
10.4542
10.472
10.4871
10.5002
10.5106
10.5184
10.5232
10.526
10.5271
10.5261
10.5247
10.5212
10.5115
10.4948
10.4711
10.4426
10.4084
10.369
10.3231
10.2708
10.2112
10.1405
10.0539
9.9455
9.81063
9.64285
9.43232
9.14893
8.7285
7.93123
6.53891
1
1
1
1
1
1
1
1
1
1
1
1
1
1
1
1
1
1
1
1
1
1
1
1
1
1
1
1
1
1
1
1
1
1
1
1
1
1
1
1
1
1
1
1
1
1
1
1
1
1
1
1
1
1
1
1
1
1
1
1
1
1
1
1
1
1
1
1
1
1
1
1
1
1
1
1
1
1
1
1
1
1
1
1
1
1
1
1
1
1
1
1
1
1
1
1
1
1
1
1
1
1
1
1
1
1
1
1
1
1
1
1
1
1
1
1
1
1
1
1
1
1
1
1
1
1
1
1
1
1
1
1
1
1
1
1
1
1
1
1
1
1
1
1
1
1
1.01876
6.66596
10.0737
10.035
10.0841
10.1218
10.162
10.1999
10.2314
10.2619
10.2907
10.3178
10.3436
10.3675
10.3883
10.406
10.4216
10.4347
10.4463
10.4547
10.4611
10.4643
10.4653
10.4638
10.4592
10.4529
10.4439
10.4298
10.4088
10.3802
10.3459
10.3059
10.2599
10.2061
10.1433
10.0709
9.98584
9.88345
9.75544
9.5933
9.38513
9.11347
8.73963
8.1792
7.40007
6.15725
1
1
1
1
1
1
1
1
1
1
1
1
1
1
1
1
1
1
1
1
1
1
1
1
1
1
1
1
1
1
1
1
1
1
1
1
1
1
1
1
1
1
1
1
1
1
1
1
1
1
1
1
1
1
1
1
1
1
1
1
1
1
1
1
1
1
1
1
1
1
1
1
1
1
1
1
1
1
1
1
1
1
1
1
1
1
1
1
1
1
1
1
1
1
1
1
1
1
1
1
1
1
1
1
1
1
1
1
1
1
1
1
1
1
1
1
1
1
1
1
1
1
1
1
1
1
1
1
1
1
1
1
1
1
1
1
1
1
1
1
1
1
1
1
1
1
0.99999
5.22554
9.71992
9.96251
10.0443
10.0924
10.1263
10.161
10.1912
10.2206
10.2488
10.2752
10.3
10.3229
10.3425
10.3581
10.3711
10.382
10.391
10.3974
10.4019
10.4038
10.4029
10.3992
10.3912
10.3797
10.3648
10.3459
10.3204
10.2876
10.248
10.202
10.1493
10.0874
10.0143
9.92897
9.82924
9.71088
9.56397
9.37621
9.13322
8.81282
8.38728
7.7844
7.01809
5.85172
1
1
1
1
1
1
1
1
1
1
1
1
1
1
1
1
1
1
1
1
1
1
1
1
1
1
1
1
1
1
1
1
1
1
1
1
1
1
1
1
1
1
1
1
1
1
1
1
1
1
1
1
1
1
1
1
1
1
1
1
1
1
1
1
1
1
1
1
1
1
1
1
1
1
1
1
1
1
1
1
1
1
1
1
1
1
1
1
1
1
1
1
1
1
1
1
1
1
1
1
1
1
1
1
1
1
1
1
1
1
1
1
1
1
1
1
1
1
1
1
1
1
1
1
1
1
1
1
1
1
1
1
1
1
1
1
1
1
1
1
1
1
1
1
1
1
0.999995
3.90857
9.37664
9.94463
10.019
10.0715
10.1034
10.1221
10.147
10.1752
10.2033
10.2297
10.2543
10.2767
10.2956
10.3103
10.3212
10.3296
10.3358
10.3407
10.342
10.342
10.3389
10.3327
10.3216
10.3057
10.2854
10.2614
10.2315
10.1945
10.1502
10.0983
10.0384
9.96855
9.88556
9.78793
9.67392
9.53989
9.37598
9.167
8.89855
8.54929
8.09889
7.49978
6.74862
5.8314
1
1
1
1
1
1
1
1
1
1
1
1
1
1
1
1
1
1
1
1
1
1
1
1
1
1
1
1
1
1
1
1
1
1
1
1
1
1
1
1
1
1
1
1
1
1
1
1
1
1
1
1
1
1
1
1
1
1
1
1
1
1
1
1
1
1
1
1
1
1
1
1
1
1
1
1
1
1
1
1
1
1
1
1
1
1
1
1
1
1
1
1
1
1
1
1
1
1
1
1
1
1
1
1
1
1
1
1
1
1
1
1
1
1
1
1
1
1
1
1
1
1
1
1
1
1
1
1
1
1
1
1
1
1
1
1
1
1
1
1
1
1
1
1
1
1
0.999999
2.58968
8.65508
9.99323
10.016
10.0437
10.0679
10.0903
10.1131
10.1369
10.1618
10.1861
10.2091
10.2298
10.2474
10.2611
10.2707
10.2767
10.2807
10.2836
10.2814
10.2791
10.2732
10.2641
10.2501
10.2306
10.2057
10.1765
10.1421
10.1006
10.0515
9.99431
9.92763
9.85014
9.75832
9.64967
9.52263
9.3739
9.19512
8.97078
8.68673
8.32526
7.87062
7.30736
6.63777
5.95972
1
1
1
1
1
1
1
1
1
1
1
1
1
1
1
1
1
1
1
1
1
1
1
1
1
1
1
1
1
1
1
1
1
1
1
1
1
1
1
1
1
1
1
1
1
1
1
1
1
1
1
1
1
1
1
1
1
1
1
1
1
1
1
1
1
1
1
1
1
1
1
1
1
1
1
1
1
1
1
1
1
1
1
1
1
1
1
1
1
1
1
1
1
1
1
1
1
1
1
1
1
1
1
1
1
1
1
1
1
1
1
1
1
1
1
1
1
1
1
1
1
1
1
1
1
1
1
1
1
1
1
1
1
1
1
1
1
1
1
1
1
1
1
1
1
1
1
1.47422
7.86281
10.1456
10.0086
9.9954
10.0223
10.0524
10.0767
10.0989
10.1208
10.1424
10.1631
10.182
10.1979
10.2106
10.2195
10.2236
10.2257
10.2259
10.2211
10.2158
10.2068
10.1944
10.1772
10.1544
10.1258
10.092
10.053
10.0075
9.95348
9.89089
9.81811
9.73356
9.63394
9.51598
9.37775
9.21595
9.02442
8.79039
8.50093
8.14228
7.70532
7.19176
6.63044
6.08553
1
1
1
1
1
1
1
1
1
1
1
1
1
1
1
1
1
1
1
1
1
1
1
1
1
1
1
1
1
1
1
1
1
1
1
1
1
1
1
1
1
1
1
1
1
1
1
1
1
1
1
1
1
1
1
1
1
1
1
1
1
1
1
1
1
1
1
1
1
1
1
1
1
1
1
1
1
1
1
1
1
1
1
1
1
1
1
1
1
1
1
1
1
1
1
1
1
1
1
1
1
1
1
1
1
1
1
1
1
1
1
1
1
1
1
1
1
1
1
1
1
1
1
1
1
1
1
1
1
1
1
1
1
1
1
1
1
1
1
1
1
1
1
1
1
1
1
1.02647
6.59215
9.91329
9.89702
9.93569
9.97485
10.0108
10.0372
10.0593
10.0797
10.0991
10.1176
10.1343
10.1481
10.1591
10.1669
10.1699
10.1699
10.1665
10.1598
10.1514
10.1392
10.1238
10.1035
10.078
10.0462
10.0086
9.96513
9.91521
9.85653
9.78807
9.70931
9.61864
9.51262
9.38753
9.24073
9.06852
8.86699
8.62795
8.34129
7.99649
7.58784
7.1287
6.65254
6.19266
1
1
1
1
1
1
1
1
1
1
1
1
1
1
1
1
1
1
1
1
1
1
1
1
1
1
1
1
1
1
1
1
1
1
1
1
1
1
1
1
1
1
1
1
1
1
1
1
1
1
1
1
1
1
1
1
1
1
1
1
1
1
1
1
1
1
1
1
1
1
1
1
1
1
1
1
1
1
1
1
1
1
1
1
1
1
1
1
1
1
1
1
1
1
1
1
1
1
1
1
1
1
1
1
1
1
1
1
1
1
1
1
1
1
1
1
1
1
1
1
1
1
1
1
1
1
1
1
1
1
1
1
1
1
1
1
1
1
1
1
1
1
1
1
1
1
1
0.999994
4.94551
9.50878
9.82037
9.90215
9.94328
9.97146
9.99628
10.0176
10.0368
10.0546
10.0714
10.0862
10.0981
10.1077
10.1143
10.1159
10.1138
10.1078
10.0987
10.0873
10.072
10.0539
10.0307
10.002
9.96691
9.92563
9.87803
9.82384
9.76097
9.68766
9.60327
9.5068
9.39584
9.26542
9.11254
8.93299
8.72466
8.48411
8.20517
7.8803
7.50554
7.09202
6.67751
6.26553
1
1
1
1
1
1
1
1
1
1
1
1
1
1
1
1
1
1
1
1
1
1
1
1
1
1
1
1
1
1
1
1
1
1
1
1
1
1
1
1
1
1
1
1
1
1
1
1
1
1
1
1
1
1
1
1
1
1
1
1
1
1
1
1
1
1
1
1
1
1
1
1
1
1
1
1
1
1
1
1
1
1
1
1
1
1
1
1
1
1
1
1
1
1
1
1
1
1
1
1
1
1
1
1
1
1
1
1
1
1
1
1
1
1
1
1
1
1
1
1
1
1
1
1
1
1
1
1
1
1
1
1
1
1
1
1
1
1
1
1
1
1
1
1
1
1
1
0.999994
3.40916
9.06774
9.82842
9.88068
9.92109
9.94266
9.95923
9.97568
9.99209
10.008
10.0229
10.0361
10.0467
10.0551
10.0602
10.0604
10.0569
10.0488
10.0372
10.0226
10.0044
9.98336
9.95785
9.92656
9.88849
9.844
9.79288
9.73465
9.66763
9.59004
9.50071
9.39842
9.28265
9.14904
8.99291
8.80985
8.59892
8.35942
8.08996
7.78655
7.44418
7.07386
6.70021
6.33455
1
1
1
1
1
1
1
1
1
1
1
1
1
1
1
1
1
1
1
1
1
1
1
1
1
1
1
1
1
1
1
1
1
1
1
1
1
1
1
1
1
1
1
1
1
1
1
1
1
1
1
1
1
1
1
1
1
1
1
1
1
1
1
1
1
1
1
1
1
1
1
1
1
1
1
1
1
1
1
1
1
1
1
1
1
1
1
1
1
1
1
1
1
1
1
1
1
1
1
1
1
1
1
1
1
1
1
1
1
1
1
1
1
1
1
1
1
1
1
1
1
1
1
1
1
1
1
1
1
1
1
1
1
1
1
1
1
1
1
1
1
1
1
1
1
1
1
0.999999
2.00528
8.27503
9.90775
9.85906
9.88132
9.90561
9.92486
9.93986
9.95317
9.96595
9.97806
9.98874
9.99754
10.0044
10.0075
10.006
10.0008
9.99062
9.97655
9.95893
9.93789
9.91382
9.88592
9.85252
9.81159
9.76365
9.70886
9.64669
9.57573
9.49447
9.40145
9.29483
9.17422
9.03745
8.88028
8.69728
8.48777
8.25234
7.99189
7.7082
7.39634
7.06658
6.72374
6.4104
1
1
1
1
1
1
1
1
1
1
1
1
1
1
1
1
1
1
1
1
1
1
1
1
1
1
1
1
1
1
1
1
1
1
1
1
1
1
1
1
1
1
1
1
1
1
1
1
1
1
1
1
1
1
1
1
1
1
1
1
1
1
1
1
1
1
1
1
1
1
1
1
1
1
1
1
1
1
1
1
1
1
1
1
1
1
1
1
1
1
1
1
1
1
1
1
1
1
1
1
1
1
1
1
1
1
1
1
1
1
1
1
1
1
1
1
1
1
1
1
1
1
1
1
1
1
1
1
1
1
1
1
1
1
1
1
1
1
1
1
1
1
1
1
1
1
1
1
1.11087
7.00631
9.95161
9.85514
9.84391
9.86554
9.88563
9.89987
9.91141
9.92193
9.93142
9.93971
9.94675
9.95179
9.95336
9.95043
9.94353
9.93188
9.91585
9.89558
9.87183
9.84479
9.81393
9.77834
9.73563
9.68499
9.62692
9.56118
9.4867
9.40217
9.3061
9.19633
9.07187
8.93169
8.77357
8.59382
8.39016
8.16157
7.9109
7.64414
7.3579
7.06329
6.75493
6.48042
1
1
1
1
1
1
1
1
1
1
1
1
1
1
1
1
1
1
1
1
1
1
1
1
1
1
1
1
1
1
1
1
1
1
1
1
1
1
1
1
1
1
1
1
1
1
1
1
1
1
1
1
1
1
1
1
1
1
1
1
1
1
1
1
1
1
1
1
1
1
1
1
1
1
1
1
1
1
1
1
1
1
1
1
1
1
1
1
1
1
1
1
1
1
1
1
1
1
1
1
1
1
1
1
1
1
1
1
1
1
1
1
1
1
1
1
1
1
1
1
1
1
1
1
1
1
1
1
1
1
1
1
1
1
1
1
1
1
1
1
1
1
1
1
1
1
1
1
1.00096
5.34655
9.49634
9.70485
9.7752
9.80811
9.83526
9.85465
9.86802
9.87788
9.88544
9.89144
9.8967
9.90004
9.90013
9.8958
9.88711
9.87391
9.85577
9.83306
9.8067
9.77692
9.74325
9.70511
9.66079
9.60822
9.54702
9.47762
9.39968
9.31221
9.21374
9.10201
8.97546
8.83338
8.67516
8.49926
8.30395
8.0866
7.84535
7.59384
7.32818
7.06098
6.78878
6.53539
1
1
1
1
1
1
1
1
1
1
1
1
1
1
1
1
1
1
1
1
1
1
1
1
1
1
1
1
1
1
1
1
1
1
1
1
1
1
1
1
1
1
1
1
1
1
1
1
1
1
1
1
1
1
1
1
1
1
1
1
1
1
1
1
1
1
1
1
1
1
1
1
1
1
1
1
1
1
1
1
1
1
1
1
1
1
1
1
1
1
1
1
1
1
1
1
1
1
1
1