/*--------------------------------*- C++ -*----------------------------------*\
  =========                 |
  \\      /  F ield         | OpenFOAM: The Open Source CFD Toolbox
   \\    /   O peration     | Website:  https://openfoam.org
    \\  /    A nd           | Version:  7
     \\/     M anipulation  |
\*---------------------------------------------------------------------------*/
FoamFile
{
    version     2.0;
    format      ascii;
    class       volScalarField;
    location    "3.7";
    object      p;
}
// * * * * * * * * * * * * * * * * * * * * * * * * * * * * * * * * * * * * * //

dimensions      [1 -1 -2 0 0 0 0];

internalField   nonuniform List<scalar> 
16192
(
2.40462
2.39807
2.38957
2.37784
2.36426
2.35565
2.35077
2.3482
2.34834
2.34939
2.34701
2.34442
2.33972
2.32976
2.31091
2.28887
2.27716
2.27228
2.27045
2.27195
2.27922
2.28848
2.29061
2.28516
2.27346
2.25311
2.22456
2.20355
2.19762
2.19752
2.20268
2.21285
2.22862
2.25049
2.26731
2.26946
2.26347
2.24863
2.21803
2.16826
2.13397
2.12596
2.12405
2.12539
2.13317
2.15041
2.17876
2.21158
2.22624
2.22475
2.21735
2.2019
2.16629
2.11048
2.08081
2.07469
2.0722
2.0708
2.07126
2.07766
2.09448
2.12604
2.15826
2.16662
2.16291
2.15252
2.1309
2.08398
2.03154
2.01337
2.00877
2.0065
2.00545
2.00733
2.01271
2.02051
2.03321
2.05499
2.0803
2.0899
2.0878
2.08057
2.06567
2.03243
1.97386
1.92941
1.91863
1.91581
1.91458
1.91522
1.92549
1.95742
2.03228
2.17466
2.45365
2.87
3.24568
3.51658
3.64249
3.63483
3.56852
3.53793
3.53542
3.58136
3.69765
3.78268
3.79503
3.79741
3.79351
3.7655
3.69925
3.6077
3.54196
3.52405
3.5251
3.54578
3.61032
3.70555
3.74453
3.73911
3.72755
3.69518
3.61292
3.50742
3.46197
3.45599
3.45906
3.48547
3.56691
3.66657
3.69142
3.68399
3.6657
3.6124
3.49584
3.38104
3.35086
3.34809
3.34966
3.35727
3.3969
3.50282
3.62431
3.65699
3.65309
3.63569
3.57541
3.46335
3.39343
3.38481
3.38403
3.38919
3.41735
3.46565
3.4829
3.47636
3.4542
3.40498
3.36143
3.34977
3.3468
3.34554
3.35459
3.38837
3.4099
3.41049
3.40758
3.4011
3.38376
3.34569
3.31165
3.29917
3.29342
3.28871
3.28625
3.28556
3.28379
3.28205
3.27945
3.27461
3.26334
3.24325
3.22848
3.22625
3.22556
3.22407
3.22596
3.23767
3.2515
3.25119
3.24448
3.23342
3.21383
3.18323
3.16183
3.15841
3.15736
3.15683
3.16122
3.17413
3.17967
3.1759
3.16795
3.15429
3.13376
3.11727
3.11254
3.11273
3.11255
3.1117
3.10888
3.1021
3.08882
3.07061
3.05144
3.03759
3.03236
3.03233
3.03995
3.05113
3.05789
3.06144
3.05857
3.04874
3.03195
3.00832
2.9811
2.95891
2.95089
2.95143
2.96185
2.97754
2.9928
3.0037
3.00268
2.99419
2.97365
2.94163
2.90678
2.88681
2.8826
2.88515
2.89889
2.91882
2.94248
2.95496
2.95411
2.94418
2.91848
2.88273
2.85305
2.83901
2.83719
2.40348
2.39805
2.38972
2.37524
2.35606
2.33958
2.33151
2.32845
2.32706
2.33241
2.34531
2.35153
2.35199
2.34839
2.3393
2.31598
2.2817
2.26246
2.25462
2.25058
2.24845
2.25094
2.26298
2.27353
2.27207
2.26783
2.25761
2.23869
2.21553
2.2033
2.20074
2.20065
2.20369
2.21026
2.2236
2.2399
2.24528
2.24166
2.23086
2.20954
2.17177
2.13641
2.12574
2.12448
2.12842
2.13614
2.14569
2.16165
2.18836
2.20733
2.20736
2.20121
2.18787
2.15834
2.10865
2.07633
2.06994
2.06786
2.06715
2.06915
2.07516
2.08656
2.1092
2.13807
2.14809
2.14512
2.13587
2.11727
2.07869
2.02957
2.00834
2.00432
2.00279
2.00335
2.0076
2.01247
2.01652
2.02243
2.0354
2.05662
2.06981
2.0692
2.06319
2.05073
2.02681
1.98197
1.93434
1.91711
1.91418
1.91332
1.9156
1.92155
1.94008
1.98255
2.05716
2.19617
2.45746
2.84719
3.20767
3.47906
3.57952
3.53314
3.49818
3.51031
3.56652
3.69742
3.798
3.80476
3.80349
3.79857
3.7733
3.7081
3.60521
3.52502
3.5016
3.49977
3.51449
3.57412
3.67874
3.73382
3.73376
3.7261
3.69585
3.61193
3.49553
3.44575
3.43874
3.43757
3.46062
3.54175
3.64592
3.68192
3.67913
3.66306
3.61624
3.5066
3.38057
3.33467
3.32605
3.32466
3.33259
3.3735
3.47699
3.60352
3.64215
3.63582
3.61898
3.56937
3.46765
3.38932
3.37568
3.37377
3.37599
3.39944
3.44625
3.4648
3.45798
3.43745
3.39449
3.35284
3.34173
3.34013
3.34311
3.35776
3.38781
3.40609
3.40374
3.39826
3.38756
3.35719
3.30978
3.28212
3.27378
3.27099
3.26964
3.27108
3.27657
3.28097
3.28341
3.28253
3.27876
3.26935
3.24974
3.22563
3.21151
3.206
3.20361
3.20348
3.21333
3.23537
3.24174
3.23923
3.23318
3.21566
3.18142
3.15144
3.13963
3.13478
3.13279
3.13525
3.14893
3.16234
3.16553
3.16287
3.15637
3.14218
3.12157
3.10527
3.09538
3.0894
3.08524
3.08058
3.07543
3.07219
3.06841
3.05908
3.04571
3.04111
3.03935
3.03615
3.03113
3.0296
3.02961
3.0247
3.01647
3.01141
3.00754
2.99755
2.97887
2.96733
2.96531
2.96312
2.9628
2.96905
2.97324
2.96765
2.95785
2.9459
2.93391
2.91799
2.90456
2.90272
2.90502
2.90629
2.90843
2.91364
2.913
2.90425
2.89206
2.8821
2.87704
2.87585
2.87465
2.4019
2.39651
2.38939
2.37564
2.35284
2.33284
2.32192
2.31675
2.31467
2.31594
2.33342
2.35452
2.3561
2.35293
2.34788
2.33696
2.30874
2.26673
2.24346
2.23438
2.22995
2.22766
2.22932
2.24518
2.26527
2.26796
2.26724
2.26304
2.25126
2.22674
2.20196
2.19167
2.18856
2.18683
2.18782
2.19567
2.21353
2.22555
2.22451
2.22073
2.20964
2.18365
2.14824
2.13068
2.12788
2.12759
2.12907
2.13157
2.14056
2.16455
2.18898
2.19157
2.187
2.17767
2.15628
2.11388
2.0764
2.0672
2.06509
2.06476
2.06621
2.06844
2.07392
2.09015
2.11729
2.12976
2.12783
2.12116
2.10767
2.07919
2.03447
2.00729
2.00222
2.00111
2.00312
2.00636
2.0068
2.00626
2.00729
2.01402
2.03135
2.04883
2.05102
2.04761
2.0412
2.02685
1.99421
1.94462
1.91823
1.91361
1.91245
1.91322
1.91657
1.92454
1.95268
2.00131
2.06082
2.18274
2.43768
2.82461
3.18734
3.44417
3.4917
3.46663
3.49102
3.5494
3.68416
3.79891
3.81483
3.80571
3.79198
3.76604
3.7083
3.60592
3.50972
3.48444
3.48262
3.49233
3.54656
3.6543
3.71622
3.71501
3.70708
3.6836
3.61522
3.50216
3.43455
3.42796
3.43062
3.45441
3.52609
3.63001
3.66754
3.66258
3.65083
3.61009
3.50126
3.36711
3.31625
3.312
3.31166
3.31828
3.35621
3.45258
3.57782
3.63083
3.62903
3.61494
3.56891
3.47005
3.38278
3.36492
3.36289
3.36472
3.38589
3.42964
3.44855
3.44349
3.42863
3.39222
3.35153
3.3402
3.33892
3.33949
3.34962
3.37516
3.39303
3.39091
3.3821
3.36452
3.32608
3.2823
3.26493
3.26051
3.25914
3.25881
3.26635
3.27975
3.28254
3.28152
3.27981
3.27637
3.26571
3.23814
3.2076
3.19429
3.18947
3.18762
3.18819
3.20107
3.2292
3.2401
3.23569
3.22555
3.20262
3.16142
3.12998
3.11873
3.11537
3.11459
3.12353
3.15592
3.17523
3.17498
3.17005
3.15912
3.133
3.09653
3.07599
3.06931
3.06667
3.06566
3.06804
3.07621
3.07905
3.07561
3.06541
3.04539
3.02572
3.01177
3.00286
2.9983
2.99776
3.00554
3.0163
3.02637
3.02906
3.02496
3.01108
2.98152
2.95345
2.94044
2.9346
2.93176
2.93448
2.94364
2.94963
2.95595
2.95681
2.95266
2.94176
2.92093
2.90094
2.88779
2.87616
2.8658
2.86064
2.86374
2.87243
2.88417
2.90249
2.92021
2.91499
2.39617
2.39182
2.38544
2.37439
2.35433
2.3321
2.32003
2.31392
2.3105
2.30991
2.31505
2.33192
2.34781
2.34951
2.34505
2.33799
2.32416
2.29247
2.24916
2.22694
2.21842
2.21427
2.21235
2.21502
2.23693
2.26547
2.27151
2.27128
2.26693
2.2549
2.22491
2.18943
2.17412
2.1685
2.1655
2.16477
2.17147
2.1946
2.21561
2.21811
2.21753
2.21204
2.19445
2.15917
2.1295
2.11988
2.1169
2.11503
2.11437
2.12022
2.14409
2.17411
2.17947
2.17741
2.17217
2.15681
2.12086
2.07901
2.06397
2.0601
2.0584
2.05675
2.05595
2.05861
2.07205
2.10012
2.11491
2.11357
2.11001
2.10167
2.08097
2.0416
2.00882
2.00116
1.99914
1.99831
1.99628
1.99332
1.99054
1.98905
1.99191
2.00861
2.03316
2.04072
2.03997
2.03697
2.02815
2.00367
1.95575
1.91844
1.90971
1.90693
1.90613
1.90583
1.91016
1.92589
1.97066
2.00776
2.04895
2.17197
2.4407
2.8235
3.19839
3.3938
3.4175
3.46631
3.53524
3.64433
3.76082
3.80338
3.79771
3.78119
3.75696
3.70097
3.595
3.49231
3.46265
3.46025
3.46867
3.51489
3.61536
3.69326
3.70148
3.69763
3.68322
3.63265
3.52717
3.43925
3.4259
3.42599
3.4375
3.49057
3.58721
3.63669
3.63374
3.61926
3.58678
3.50205
3.37675
3.313
3.30611
3.31077
3.32556
3.35511
3.43257
3.55362
3.61114
3.60745
3.59494
3.55857
3.47159
3.37984
3.35598
3.35381
3.35449
3.37292
3.41743
3.44068
3.43568
3.42249
3.3904
3.34925
3.3334
3.33114
3.33058
3.3359
3.35511
3.3724
3.37113
3.36261
3.34468
3.30915
3.26935
3.25512
3.25251
3.25191
3.25316
3.26431
3.2795
3.27912
3.2757
3.27252
3.26646
3.25169
3.22347
3.19319
3.18177
3.17932
3.17857
3.18087
3.19431
3.21573
3.22296
3.21814
3.20571
3.18148
3.14317
3.11521
3.10852
3.10718
3.11019
3.12585
3.15224
3.16522
3.16372
3.15582
3.13683
3.1001
3.07048
3.06106
3.05822
3.05755
3.06784
3.08464
3.08526
3.08144
3.07295
3.0509
3.0177
2.9966
2.98924
2.98623
2.98509
2.99445
3.02494
3.03922
3.03717
3.03226
3.0222
2.99476
2.95137
2.92491
2.91569
2.91273
2.91284
2.92772
2.96242
2.97814
2.97651
2.97135
2.95954
2.92981
2.88681
2.85526
2.83788
2.83061
2.82887
2.83562
2.86864
2.91973
2.94522
2.94811
2.93348
2.3731
2.37805
2.37632
2.37032
2.35885
2.3438
2.32981
2.32012
2.314
2.31084
2.3098
2.30926
2.31475
2.32529
2.33194
2.32969
2.32192
2.30617
2.27584
2.23715
2.21651
2.20901
2.2054
2.20437
2.21111
2.24027
2.26989
2.27301
2.26866
2.26156
2.24622
2.20946
2.16923
2.15399
2.14844
2.14629
2.14621
2.15595
2.18741
2.21423
2.21906
2.21968
2.21543
2.19889
2.15854
2.11879
2.10554
2.10136
2.09905
2.09779
2.10269
2.13015
2.16806
2.17514
2.17447
2.17071
2.1587
2.12555
2.07708
2.05518
2.04949
2.0472
2.04446
2.0421
2.04283
2.05641
2.08867
2.10602
2.10656
2.10415
2.09823
2.08326
2.04917
2.01014
1.99446
1.98872
1.98527
1.98064
1.9752
1.97148
1.96972
1.97266
1.99471
2.02928
2.03886
2.03902
2.03716
2.03112
2.01172
1.96348
1.91489
1.90012
1.89663
1.89342
1.89136
1.89134
1.90662
1.94869
1.99497
2.00483
2.04521
2.18071
2.47325
2.83039
3.21037
3.37908
3.43423
3.50406
3.5992
3.71745
3.78104
3.78274
3.76724
3.7404
3.68173
3.57254
3.47293
3.44611
3.44221
3.44651
3.48816
3.5939
3.69365
3.71338
3.70971
3.69325
3.64174
3.5267
3.42102
3.39452
3.39023
3.39723
3.44687
3.55059
3.6203
3.62575
3.62118
3.59857
3.52406
3.39495
3.31674
3.30476
3.30332
3.30487
3.32311
3.39034
3.51092
3.58643
3.58983
3.58334
3.55471
3.47334
3.37653
3.34781
3.34558
3.34696
3.36344
3.4039
3.42918
3.42499
3.41325
3.38557
3.34367
3.31944
3.31358
3.31201
3.31428
3.33119
3.35339
3.35448
3.34956
3.33572
3.30333
3.26368
3.24841
3.24601
3.24549
3.24702
3.25528
3.26323
3.26178
3.25855
3.25554
3.25126
3.24083
3.21807
3.18807
3.17529
3.17305
3.17159
3.17155
3.17774
3.19279
3.19972
3.19619
3.18764
3.17135
3.14387
3.11728
3.10873
3.10799
3.11215
3.12202
3.13582
3.14368
3.14148
3.12986
3.10959
3.08472
3.06434
3.05756
3.05686
3.0616
3.07089
3.07385
3.07142
3.06535
3.05047
3.01933
2.99091
2.98296
2.98124
2.98109
2.98746
3.00468
3.02423
3.02764
3.02443
3.01719
3.00132
2.96602
2.92588
2.90999
2.90697
2.9075
2.91668
2.94178
2.96563
2.97011
2.96688
2.95512
2.9295
2.88645
2.84752
2.83013
2.82393
2.82302
2.82988
2.85939
2.90724
2.93736
2.94453
2.93036
2.34745
2.3502
2.35443
2.35763
2.35673
2.35275
2.34712
2.34096
2.33426
2.32433
2.31165
2.29997
2.29429
2.29382
2.29965
2.30762
2.30832
2.30284
2.28981
2.26671
2.23521
2.21231
2.20425
2.20199
2.20424
2.21339
2.23425
2.25531
2.26056
2.25664
2.24685
2.22619
2.18618
2.15022
2.13867
2.13456
2.13329
2.1347
2.15034
2.19004
2.21899
2.22125
2.21806
2.21119
2.19191
2.1461
2.1034
2.09037
2.08634
2.08451
2.08356
2.09052
2.12444
2.16761
2.1745
2.17292
2.16863
2.15642
2.12104
2.06794
2.04374
2.03705
2.03373
2.03033
2.02773
2.02902
2.04838
2.08907
2.10461
2.10391
2.10091
2.09555
2.08201
2.04771
2.00312
1.98236
1.97402
1.96764
1.9615
1.95733
1.95522
1.95424
1.96031
1.98964
2.03016
2.04058
2.04065
2.03886
2.03328
2.01392
1.96076
1.90458
1.88675
1.88092
1.87714
1.87425
1.87507
1.8899
1.94282
1.98471
2.00096
2.00478
2.05255
2.19628
2.48287
2.8457
3.20055
3.34938
3.44747
3.54157
3.66791
3.75301
3.76223
3.74938
3.71857
3.66067
3.56419
3.46561
3.43408
3.43517
3.44292
3.48381
3.58511
3.68375
3.69954
3.6914
3.67526
3.62094
3.49819
3.39337
3.37447
3.37257
3.38126
3.43177
3.53959
3.61937
3.62997
3.62748
3.60619
3.53106
3.39338
3.29884
3.27861
3.27423
3.27337
3.29041
3.36035
3.49102
3.58174
3.58743
3.5796
3.55129
3.47159
3.37363
3.33835
3.33295
3.33349
3.34859
3.38872
3.41602
3.41347
3.40134
3.37104
3.32467
3.30044
3.29444
3.29314
3.29595
3.31685
3.34523
3.34702
3.34319
3.3308
3.29819
3.25647
3.24135
3.2388
3.23786
3.23784
3.24316
3.25134
3.25059
3.2483
3.24591
3.24271
3.23432
3.21167
3.18029
3.16164
3.15578
3.15234
3.15023
3.15326
3.16926
3.1831
3.18273
3.17929
3.17162
3.15411
3.12662
3.10798
3.10442
3.10282
3.10238
3.10768
3.11399
3.11219
3.10635
3.0995
3.08623
3.06838
3.06096
3.05989
3.05987
3.05856
3.05571
3.05092
3.04226
3.02683
3.00586
2.98938
2.98463
2.98421
2.98677
2.9906
2.99866
3.00881
3.00892
3.00451
2.99626
2.97941
2.95148
2.92305
2.91078
2.9093
2.91369
2.92537
2.93761
2.94558
2.94461
2.93641
2.91733
2.89116
2.86444
2.84307
2.83335
2.83174
2.84082
2.86512
2.88869
2.9039
2.91247
2.90512
2.33039
2.32713
2.32562
2.32886
2.34066
2.35167
2.35453
2.35442
2.35062
2.34272
2.32709
2.30232
2.28247
2.27469
2.27263
2.27371
2.28098
2.28785
2.28601
2.27938
2.26768
2.24829
2.22505
2.21037
2.20595
2.20569
2.20908
2.21842
2.23215
2.2382
2.23558
2.22507
2.20343
2.16826
2.13973
2.13069
2.12763
2.12738
2.13319
2.15398
2.18743
2.20934
2.2124
2.20841
2.19853
2.1756
2.12841
2.08923
2.07879
2.07558
2.07435
2.07478
2.08676
2.12553
2.16639
2.17125
2.16793
2.16292
2.14942
2.11049
2.05463
2.03042
2.02383
2.02092
2.01835
2.01666
2.02145
2.04924
2.0915
2.10218
2.09993
2.09565
2.08907
2.07451
2.03707
1.9882
1.96479
1.95587
1.95105
1.94787
1.94584
1.94457
1.94574
1.95834
1.99282
2.0327
2.04233
2.04045
2.0377
2.03086
2.00759
1.94606
1.88681
1.87014
1.86507
1.86267
1.86097
1.86312
1.88549
1.94298
1.98836
1.99206
2.00016
1.99886
2.04203
2.17243
2.45249
2.84176
3.14221
3.31598
3.45244
3.59645
3.71525
3.74126
3.73764
3.70518
3.64875
3.56892
3.4816
3.43933
3.43721
3.44275
3.47454
3.55971
3.65456
3.67426
3.66564
3.648
3.59865
3.4878
3.38396
3.36316
3.36227
3.37118
3.41639
3.52204
3.60801
3.61506
3.60799
3.58744
3.5154
3.36955
3.2741
3.25999
3.25912
3.26151
3.28069
3.3474
3.47343
3.56959
3.58149
3.57456
3.54547
3.46262
3.35877
3.32431
3.32
3.32004
3.33495
3.37397
3.39829
3.39514
3.38247
3.3512
3.306
3.28574
3.28183
3.28091
3.28488
3.30806
3.33853
3.34048
3.33693
3.32548
3.29312
3.25063
3.23231
3.22846
3.22692
3.22633
3.23075
3.24309
3.24821
3.24596
3.24213
3.23636
3.22382
3.19418
3.15757
3.1393
3.13332
3.1299
3.12847
3.13607
3.1623
3.1814
3.18604
3.18479
3.17858
3.15861
3.12117
3.09209
3.08067
3.07588
3.07379
3.07685
3.09185
3.10289
3.10213
3.09842
3.08927
3.07372
3.05764
3.04746
3.04309
3.04095
3.03739
3.03284
3.02907
3.02227
3.00872
2.99042
2.98104
2.97784
2.97537
2.97398
2.97837
2.9899
2.99043
2.9856
2.97852
2.96943
2.95511
2.93415
2.92019
2.91618
2.91246
2.91094
2.91186
2.90958
2.90339
2.89477
2.8856
2.8773
2.8678
2.86038
2.8606
2.86885
2.87779
2.87974
2.87857
2.87556
2.85962
2.32076
2.31079
2.30629
2.30426
2.30837
2.33092
2.35648
2.36039
2.35775
2.3526
2.34347
2.32212
2.28689
2.26301
2.25409
2.25107
2.25028
2.25665
2.27238
2.27821
2.27583
2.27112
2.26101
2.24394
2.22162
2.20616
2.19902
2.19683
2.1987
2.20532
2.21053
2.20993
2.20326
2.18797
2.16291
2.13774
2.12757
2.1259
2.12908
2.1386
2.15376
2.17206
2.18796
2.19332
2.19056
2.17982
2.15701
2.11484
2.08015
2.0713
2.06905
2.06872
2.07276
2.08829
2.12199
2.15755
2.16501
2.16118
2.15335
2.13616
2.09259
2.03846
2.01962
2.01477
2.01252
2.01064
2.01093
2.02116
2.05266
2.08623
2.092
2.08985
2.0864
2.0786
2.05947
2.01505
1.96696
1.95028
1.94509
1.94236
1.94022
1.93905
1.94035
1.94825
1.96488
1.9931
2.02541
2.03853
2.0367
2.03115
2.01959
1.98835
1.92141
1.87035
1.85907
1.85559
1.85384
1.85344
1.85976
1.88857
1.94707
1.98534
1.98646
1.98626
1.98437
1.9609
1.98508
2.11983
2.42377
2.82888
3.10801
3.31058
3.50494
3.67465
3.72035
3.72522
3.70157
3.64795
3.5805
3.50249
3.44234
3.42293
3.42201
3.4457
3.52447
3.62373
3.65311
3.64984
3.63559
3.58967
3.48174
3.3753
3.34915
3.34545
3.35186
3.39678
3.50692
3.60248
3.61432
3.60771
3.58426
3.50494
3.35567
3.26424
3.2526
3.25215
3.25435
3.27088
3.33235
3.45734
3.55571
3.56515
3.55717
3.53006
3.44914
3.34488
3.31224
3.30966
3.30903
3.31915
3.35299
3.37834
3.37622
3.36527
3.33814
3.29657
3.27627
3.27346
3.27323
3.27814
3.301
3.33376
3.33941
3.33271
3.31799
3.28136
3.23645
3.22008
3.21631
3.21446
3.21404
3.22267
3.23688
3.23709
3.23405
3.23064
3.2247
3.20615
3.16686
3.13412
3.12353
3.12044
3.11908
3.12074
3.13665
3.1742
3.19352
3.19186
3.18618
3.17413
3.14235
3.0926
3.06376
3.05583
3.05347
3.05291
3.06109
3.087
3.10236
3.10213
3.09889
3.08879
3.06656
3.04407
3.03574
3.03232
3.03045
3.03159
3.03278
3.02856
3.01828
2.99752
2.97499
2.9626
2.95662
2.95401
2.95323
2.96163
2.97852
2.98612
2.98974
2.98965
2.98338
2.96498
2.93369
2.90814
2.89187
2.87939
2.87083
2.86706
2.86986
2.87787
2.88365
2.89036
2.89774
2.9031
2.90273
2.89538
2.88145
2.86486
2.84467
2.81977
2.80528
2.32792
2.30304
2.29387
2.29091
2.29013
2.29856
2.3309
2.35794
2.35835
2.35448
2.34897
2.33795
2.3099
2.26713
2.24351
2.23563
2.23286
2.23165
2.2382
2.26155
2.27728
2.27859
2.27641
2.27028
2.25564
2.22502
2.19613
2.18393
2.17932
2.1766
2.17755
2.18487
2.19085
2.18815
2.18209
2.16903
2.15009
2.13609
2.13249
2.13295
2.13711
2.14249
2.15062
2.16259
2.17005
2.16898
2.16102
2.14375
2.11052
2.07776
2.06778
2.06616
2.06791
2.07426
2.08727
2.11165
2.14078
2.15003
2.14721
2.139
2.12036
2.07657
2.02729
2.01228
2.00879
2.00691
2.00598
2.00909
2.02316
2.0538
2.07707
2.07823
2.07522
2.07094
2.06125
2.03859
1.99373
1.95385
1.94263
1.93937
1.93733
1.93614
1.93776
1.94555
1.9568
1.96889
1.9846
2.00656
2.02064
2.0201
2.01364
1.99847
1.96538
1.90533
1.86212
1.85296
1.85037
1.84938
1.85196
1.8632
1.89089
1.94031
1.97505
1.97849
1.97316
1.96986
1.94202
1.88809
1.92403
2.0895
2.43416
2.80371
3.11698
3.39041
3.62448
3.70737
3.71251
3.69888
3.65528
3.59257
3.50807
3.42927
3.40104
3.39767
3.41782
3.49657
3.6044
3.63855
3.63554
3.62252
3.57875
3.47673
3.3654
3.33426
3.33229
3.33966
3.38681
3.49753
3.59376
3.60621
3.59793
3.57305
3.49017
3.34256
3.25188
3.23757
3.23537
3.23726
3.2542
3.31448
3.43883
3.54316
3.55772
3.54955
3.52035
3.4359
3.33203
3.29649
3.29164
3.29079
3.30078
3.33569
3.36244
3.36201
3.35487
3.33161
3.29257
3.27069
3.26753
3.26757
3.27318
3.29263
3.3185
3.32523
3.31851
3.30159
3.26454
3.2208
3.20605
3.20314
3.20247
3.20469
3.21542
3.22592
3.22422
3.22089
3.21668
3.20696
3.18406
3.14674
3.12149
3.11665
3.11531
3.11618
3.12555
3.14503
3.17096
3.18123
3.17818
3.16964
3.1513
3.11071
3.0644
3.04599
3.04164
3.04045
3.04115
3.05355
3.08353
3.0982
3.09636
3.09171
3.08115
3.0597
3.03609
3.02713
3.02539
3.02495
3.0227
3.01924
3.01178
2.99686
2.97552
2.95796
2.94978
2.94671
2.94531
2.94899
2.97098
2.99901
3.00416
3.00107
2.99378
2.97493
2.93558
2.88866
2.85719
2.8438
2.83874
2.83743
2.84488
2.86797
2.89874
2.92622
2.94161
2.94275
2.93555
2.91407
2.87687
2.83043
2.78621
2.76389
2.76596
2.36406
2.31215
2.29091
2.28439
2.28187
2.28238
2.29496
2.32693
2.35114
2.35233
2.34721
2.33983
2.3258
2.29173
2.24823
2.2288
2.22168
2.21919
2.21833
2.22808
2.26071
2.28117
2.2816
2.27835
2.27202
2.25613
2.21817
2.17904
2.16333
2.1578
2.15523
2.15548
2.16588
2.18126
2.18257
2.18094
2.17617
2.16432
2.14498
2.13129
2.12616
2.12448
2.12394
2.12687
2.13691
2.14949
2.1517
2.1472
2.13708
2.11391
2.08313
2.06944
2.06756
2.06891
2.07315
2.08049
2.09739
2.12345
2.1341
2.13184
2.12442
2.10758
2.06881
2.02266
2.00717
2.00396
2.00252
2.00224
2.00632
2.02147
2.0495
2.06416
2.0627
2.05853
2.05303
2.04255
2.02235
1.98634
1.95133
1.93994
1.93741
1.93636
1.93818
1.9458
1.95479
1.95869
1.96159
1.96873
1.98456
1.99713
1.99669
1.99083
1.97795
1.95233
1.90354
1.86058
1.85027
1.84837
1.84963
1.85548
1.86619
1.88692
1.92568
1.95981
1.96401
1.96064
1.95092
1.93315
1.86497
1.83737
1.90166
2.108
2.46124
2.83291
3.21253
3.52661
3.6723
3.68854
3.68532
3.65769
3.5982
3.5119
3.41573
3.37256
3.36913
3.3896
3.47219
3.58607
3.62063
3.61706
3.60339
3.56593
3.47893
3.36838
3.32834
3.32853
3.33814
3.37576
3.47207
3.56785
3.58197
3.57043
3.54782
3.47477
3.33467
3.23893
3.22448
3.22356
3.22481
3.24027
3.30388
3.42911
3.52955
3.54286
3.53189
3.49821
3.41129
3.31096
3.28123
3.2769
3.27578
3.28925
3.33184
3.35693
3.35678
3.35037
3.32805
3.28846
3.26528
3.26191
3.26129
3.26426
3.27966
3.30053
3.30456
3.29911
3.28374
3.24963
3.2091
3.19414
3.19098
3.18893
3.18934
3.20021
3.21128
3.20978
3.20622
3.20169
3.19312
3.1736
3.14076
3.12018
3.11728
3.11716
3.11928
3.12411
3.13739
3.15694
3.16277
3.15854
3.1481
3.12732
3.08812
3.04829
3.03467
3.03189
3.03077
3.03187
3.04682
3.07738
3.08976
3.08827
3.08514
3.07731
3.05943
3.0359
3.02134
3.01395
3.00895
3.00362
2.99725
2.98883
2.97711
2.96208
2.94962
2.94473
2.9434
2.94845
2.96491
2.98248
2.99136
2.9915
2.98711
2.97014
2.9288
2.87393
2.84618
2.8366
2.83232
2.83134
2.83834
2.87392
2.93149
2.95202
2.95075
2.94641
2.93701
2.91344
2.85776
2.79124
2.76285
2.75172
2.75608
2.38982
2.35145
2.30718
2.28474
2.2789
2.2773
2.27963
2.29019
2.3102
2.33106
2.33877
2.33596
2.32729
2.30967
2.27439
2.23533
2.21936
2.21346
2.21126
2.21178
2.22611
2.26164
2.28165
2.28
2.27419
2.26564
2.24485
2.19815
2.15851
2.14609
2.14128
2.13912
2.14021
2.15628
2.17921
2.18594
2.1863
2.18228
2.16923
2.14086
2.11708
2.1091
2.10633
2.1046
2.10544
2.11558
2.13452
2.14124
2.13994
2.13429
2.11768
2.089
2.07041
2.06646
2.06519
2.06484
2.06766
2.08031
2.10626
2.11966
2.11804
2.11238
2.09927
2.06693
2.02141
2.00232
1.99812
1.99658
1.99606
2.0004
2.01532
2.03912
2.04817
2.04555
2.04051
2.03533
2.02766
2.01364
1.98686
1.95477
1.94134
1.93943
1.94212
1.95014
1.95086
1.94864
1.94654
1.94542
1.94806
1.96043
1.97499
1.97604
1.97243
1.96509
1.94786
1.90927
1.86579
1.8526
1.85085
1.85265
1.85644
1.86171
1.87538
1.9088
1.94497
1.95092
1.94781
1.93982
1.91986
1.86962
1.8105
1.82128
1.91179
2.15333
2.51315
2.93685
3.33029
3.58307
3.6539
3.65251
3.64017
3.59359
3.50487
3.39812
3.34461
3.33876
3.35981
3.44955
3.56848
3.60087
3.60093
3.59318
3.56647
3.49627
3.38696
3.32493
3.31457
3.31673
3.35011
3.44532
3.54531
3.56582
3.55775
3.53474
3.467
3.33723
3.23738
3.21755
3.21645
3.22395
3.24407
3.29709
3.40442
3.50105
3.51797
3.50955
3.47808
3.39497
3.29828
3.26931
3.26685
3.26829
3.28965
3.33655
3.35416
3.3524
3.34562
3.32218
3.28121
3.25762
3.25375
3.25202
3.25226
3.26218
3.28128
3.28554
3.2799
3.26536
3.23245
3.19226
3.17554
3.17105
3.16876
3.17022
3.18413
3.1985
3.20143
3.20009
3.19803
3.19236
3.17388
3.13924
3.11701
3.11311
3.11158
3.11081
3.1123
3.12123
3.13647
3.13981
3.13546
3.12692
3.11004
3.07753
3.04046
3.02632
3.02402
3.02359
3.02737
3.04276
3.07163
3.08984
3.0889
3.0837
3.07354
3.05293
3.02231
3.00133
2.99155
2.98526
2.97993
2.97536
2.97172
2.96663
2.95963
2.95392
2.95263
2.9568
2.96564
2.971
2.97134
2.96975
2.96402
2.94774
2.91585
2.88049
2.8534
2.84012
2.83567
2.83569
2.85015
2.8883
2.92077
2.93533
2.93858
2.93613
2.92621
2.8944
2.83149
2.78342
2.76159
2.75275
2.75691
2.39088
2.37622
2.3534
2.3216
2.29274
2.28012
2.27716
2.27605
2.27959
2.28851
2.30505
2.31821
2.31832
2.31092
2.29462
2.26603
2.23257
2.21458
2.20935
2.20779
2.21025
2.2238
2.24905
2.2672
2.26802
2.26173
2.24958
2.22365
2.17723
2.14403
2.13429
2.13041
2.12922
2.13545
2.16513
2.18865
2.18882
2.18554
2.17872
2.15956
2.12258
2.0985
2.09136
2.08874
2.08721
2.08836
2.10211
2.12854
2.13745
2.1376
2.13428
2.12169
2.0932
2.06563
2.05634
2.05414
2.05278
2.05331
2.06424
2.09218
2.10851
2.10769
2.10461
2.09508
2.0671
2.02049
1.99583
1.98988
1.98837
1.98777
1.99152
2.00466
2.0253
2.03267
2.03007
2.02609
2.02369
2.01937
2.00954
1.98977
1.96162
1.94571
1.9431
1.94229
1.94078
1.93753
1.93294
1.92821
1.92551
1.92648
1.93992
1.95993
1.9635
1.96205
1.95842
1.94641
1.91359
1.86989
1.85366
1.85073
1.84947
1.8488
1.85059
1.86092
1.89346
1.93266
1.93999
1.9379
1.93287
1.91471
1.86612
1.80215
1.79247
1.82134
1.9317
2.19901
2.59074
3.05469
3.39829
3.57838
3.61012
3.60316
3.57634
3.49388
3.37878
3.32621
3.31949
3.33886
3.43687
3.56435
3.59425
3.59561
3.59305
3.57236
3.50155
3.37759
3.308
3.30059
3.30439
3.33721
3.43262
3.53285
3.55194
3.54622
3.52756
3.46757
3.35061
3.24412
3.21639
3.21327
3.212
3.22234
3.26988
3.37245
3.4741
3.4932
3.48343
3.45709
3.38732
3.29675
3.26399
3.2617
3.26492
3.28959
3.33753
3.35543
3.35096
3.33939
3.31013
3.26519
3.24023
3.23249
3.23042
3.2313
3.24299
3.26351
3.26739
3.26252
3.24768
3.21125
3.17345
3.16222
3.15945
3.15814
3.16573
3.19254
3.20097
3.20132
3.20095
3.19858
3.19113
3.16769
3.12989
3.10687
3.10052
3.09755
3.09505
3.09457
3.10172
3.11809
3.12189
3.11878
3.11422
3.10252
3.07338
3.03587
3.02154
3.02021
3.02062
3.02446
3.03769
3.06056
3.07627
3.07542
3.06903
3.05696
3.03175
2.99875
2.97856
2.97042
2.96754
2.96624
2.96618
2.96889
2.97129
2.97253
2.97153
2.96799
2.96304
2.95708
2.95051
2.94164
2.92849
2.91217
2.89773
2.88349
2.86852
2.85653
2.8523
2.8576
2.88009
2.90295
2.91014
2.91355
2.91344
2.90798
2.89093
2.85526
2.82048
2.79716
2.78129
2.7728
2.77551
2.3785
2.37583
2.37152
2.36142
2.34289
2.31374
2.28555
2.27206
2.26594
2.26439
2.2669
2.27774
2.29409
2.29966
2.29492
2.28582
2.2697
2.24569
2.22202
2.21074
2.20773
2.2069
2.21238
2.22603
2.24206
2.24646
2.24206
2.22888
2.20406
2.16542
2.13674
2.12837
2.12627
2.12884
2.14247
2.16955
2.18283
2.18153
2.17593
2.1639
2.1381
2.10144
2.0832
2.07755
2.07536
2.07422
2.07686
2.09545
2.12714
2.13775
2.1372
2.13309
2.11947
2.08638
2.05365
2.04307
2.04045
2.03899
2.03918
2.05109
2.08478
2.10395
2.10328
2.1004
2.09162
2.06504
2.01629
1.98653
1.97903
1.97729
1.97651
1.97968
1.99175
2.0115
2.02041
2.01951
2.01828
2.01804
2.01665
2.01216
1.9999
1.97412
1.94693
1.9352
1.93057
1.9259
1.91914
1.91226
1.9081
1.90607
1.90832
1.92772
1.95493
1.96067
1.96074
1.95805
1.94836
1.91846
1.86968
1.8466
1.84161
1.83976
1.83809
1.83811
1.84713
1.88197
1.92659
1.93494
1.93357
1.92928
1.91283
1.86338
1.7982
1.77841
1.78294
1.82239
1.94804
2.23884
2.66516
3.12548
3.41138
3.54423
3.55671
3.54737
3.48273
3.37076
3.3167
3.31277
3.33125
3.42693
3.5567
3.5936
3.59629
3.59194
3.56827
3.49761
3.37675
3.29832
3.28663
3.28991
3.32009
3.41192
3.51227
3.52995
3.52259
3.50902
3.463
3.3589
3.24324
3.20317
3.20057
3.20124
3.20965
3.2465
3.33856
3.44712
3.47755
3.47185
3.45034
3.38809
3.29773
3.26
3.25832
3.26537
3.29108
3.32779
3.34121
3.3366
3.32055
3.28339
3.23743
3.2184
3.21363
3.21265
3.21518
3.22923
3.24703
3.24883
3.24318
3.22729
3.19473
3.16376
3.15557
3.15424
3.15971
3.17184
3.19274
3.20531
3.20403
3.20018
3.1939
3.18117
3.15056
3.10822
3.0874
3.08064
3.07608
3.07353
3.07435
3.08702
3.10786
3.11393
3.11299
3.10971
3.0991
3.07069
3.03223
3.01616
3.01425
3.01452
3.0163
3.02391
3.04137
3.0582
3.05813
3.05023
3.03661
3.01108
2.97922
2.96448
2.96138
2.96071
2.96655
2.97954
2.98725
2.98772
2.98341
2.97236
2.9551
2.93644
2.91829
2.90308
2.8933
2.88822
2.88578
2.88543
2.88558
2.88674
2.89164
2.89809
2.8982
2.89512
2.89269
2.8881
2.87917
2.86318
2.84089
2.82391
2.81586
2.81122
2.80704
2.80743
2.81354
2.35141
2.37025
2.37342
2.37426
2.3709
2.35859
2.32674
2.28167
2.25778
2.24926
2.24613
2.24509
2.25109
2.27128
2.28762
2.28609
2.28249
2.27528
2.26145
2.23747
2.21257
2.20019
2.19559
2.19481
2.19957
2.20986
2.21821
2.21786
2.20998
2.19468
2.17088
2.14614
2.13344
2.13085
2.13484
2.14383
2.15523
2.16195
2.16143
2.15641
2.14256
2.11718
2.08762
2.07361
2.06882
2.06689
2.06701
2.07364
2.09649
2.12584
2.1339
2.13127
2.12456
2.10898
2.0728
2.0395
2.02981
2.02731
2.02614
2.02698
2.04246
2.08146
2.10101
2.09973
2.09626
2.08712
2.0592
2.00636
1.97435
1.96664
1.96463
1.96348
1.96587
1.97785
2.0003
2.01339
2.01679
2.01963
2.02202
2.02117
2.01667
2.0032
1.97025
1.93494
1.92
1.91279
1.9056
1.89877
1.89447
1.89203
1.89094
1.89779
1.92787
1.95862
1.96265
1.96185
1.95839
1.94797
1.91422
1.8599
1.83554
1.83011
1.82807
1.82642
1.8263
1.83642
1.87625
1.92403
1.93193
1.93068
1.92635
1.90973
1.85737
1.78925
1.76682
1.76544
1.77341
1.81792
1.96536
2.28214
2.74008
3.15078
3.40359
3.49368
3.5015
3.47212
3.37639
3.31517
3.31486
3.33681
3.42986
3.55809
3.60007
3.59751
3.58625
3.55858
3.48438
3.35743
3.27537
3.26323
3.26382
3.29178
3.38401
3.484
3.50851
3.5092
3.50051
3.46266
3.36378
3.24036
3.19168
3.18407
3.18165
3.18592
3.22215
3.32152
3.43707
3.46568
3.46011
3.44142
3.38641
3.30179
3.26158
3.25972
3.26455
3.28482
3.31126
3.31638
3.30881
3.29032
3.25533
3.21716
3.20314
3.20008
3.19939
3.201
3.21183
3.22743
3.22933
3.22559
3.21518
3.19063
3.1665
3.1611
3.16156
3.16661
3.17326
3.1848
3.1924
3.19036
3.18694
3.17991
3.16046
3.11862
3.07989
3.06581
3.0613
3.05868
3.05711
3.06243
3.0871
3.1082
3.11166
3.11119
3.1083
3.09782
3.06784
3.02833
3.00876
3.00386
3.00162
3.00054
3.0037
3.01851
3.03582
3.03625
3.03046
3.01967
3.00136
2.97893
2.96696
2.96554
2.97505
2.99066
2.99204
2.98808
2.98039
2.96442
2.93529
2.90236
2.88394
2.87783
2.87558
2.87592
2.88135
2.89618
2.91535
2.9296
2.93222
2.92535
2.90716
2.88618
2.86751
2.84712
2.8255
2.8119
2.80911
2.8106
2.8153
2.82564
2.84162
2.85562
2.84997
2.30137
2.34693
2.37524
2.38035
2.38001
2.37509
2.36152
2.32397
2.26793
2.2395
2.23028
2.22637
2.22459
2.22993
2.25672
2.28317
2.286
2.28499
2.28078
2.26995
2.24282
2.20463
2.18425
2.17701
2.17345
2.17224
2.17777
2.19293
2.20205
2.19937
2.19472
2.18494
2.16766
2.14921
2.1385
2.13326
2.13242
2.13574
2.13852
2.1375
2.13312
2.12278
2.10516
2.08214
2.06781
2.0636
2.06277
2.06642
2.0755
2.09271
2.11203
2.12025
2.11893
2.1115
2.09358
2.05683
2.02663
2.01884
2.017
2.01624
2.01881
2.03835
2.07959
2.09752
2.0953
2.09096
2.08068
2.04932
1.99252
1.9597
1.95175
1.94933
1.94764
1.95025
1.96784
2.00011
2.01811
2.02473
2.02669
2.02623
2.02373
2.01732
1.99605
1.94883
1.91123
1.89832
1.89265
1.88836
1.88526
1.88312
1.8818
1.88414
1.89997
1.93582
1.96082
1.96147
1.95844
1.95289
1.93964
1.90053
1.84538
1.82403
1.81954
1.81796
1.81664
1.81707
1.82968
1.8738
1.92188
1.92854
1.92642
1.92144
1.90267
1.84597
1.77653
1.75627
1.75276
1.7535
1.76524
1.82036
2.00669
2.35931
2.81528
3.16071
3.38015
3.43917
3.44249
3.37369
3.32524
3.32826
3.35652
3.44183
3.55027
3.58122
3.57282
3.55735
3.5286
3.45173
3.3244
3.24875
3.2378
3.23845
3.26991
3.37854
3.49796
3.52047
3.52201
3.51422
3.47058
3.34904
3.21158
3.17389
3.17043
3.16893
3.17425
3.20947
3.30457
3.41996
3.45163
3.44811
3.43428
3.38999
3.31107
3.2607
3.25584
3.25697
3.26635
3.28367
3.28727
3.28089
3.26735
3.24314