/*--------------------------------*- C++ -*----------------------------------*\
  =========                 |
  \\      /  F ield         | OpenFOAM: The Open Source CFD Toolbox
   \\    /   O peration     | Website:  https://openfoam.org
    \\  /    A nd           | Version:  7
     \\/     M anipulation  |
\*---------------------------------------------------------------------------*/
FoamFile
{
    version     2.0;
    format      ascii;
    class       volScalarField;
    location    "4";
    object      p;
}
// * * * * * * * * * * * * * * * * * * * * * * * * * * * * * * * * * * * * * //

dimensions      [1 -1 -2 0 0 0 0];

internalField   nonuniform List<scalar> 
16192
(
6.23183
6.1712
6.06224
5.96483
5.92952
5.92049
5.93349
5.92117
5.8842
5.81241
5.70386
5.62507
5.59751
5.59659
5.65149
5.72106
5.71509
5.67538
5.59692
5.46906
5.3729
5.33615
5.3239
5.33966
5.36357
5.348
5.31532
5.25798
5.1877
5.13788
5.11705
5.10066
5.08093
5.05747
5.02126
4.97225
4.94216
4.92636
4.9226
4.93519
4.92908
4.90543
4.8606
4.78192
4.70323
4.66869
4.65471
4.65557
4.69167
4.72003
4.70565
4.67001
4.60703
4.51185
4.43513
4.40666
4.39368
4.39435
4.43137
4.47178
4.46444
4.44253
4.39788
4.31449
4.22352
4.17586
4.16139
4.15404
4.16578
4.20035
4.21088
4.19706
4.17901
4.15167
4.09685
4.01919
3.95732
3.93351
3.92271
3.9188
3.93615
3.95992
3.9548
3.9418
3.9281
3.90752
3.85746
3.78717
3.74466
3.73047
3.71999
3.71524
3.71764
3.71077
3.6966
3.68251
3.66887
3.64644
3.61088
3.57132
3.55669
3.54778
3.53886
3.52807
3.51558
3.50175
3.4856
3.4576
3.42201
3.40137
3.39217
3.38528
3.3817
3.37947
3.3745
3.36776
3.35168
3.31372
3.26824
3.24387
3.23423
3.22705
3.22252
3.21562
3.20431
3.1911
3.17558
3.15708
3.13315
3.10056
3.07181
3.0626
3.05769
3.05559
3.06353
3.06496
3.0575
3.04835
3.03502
3.01142
2.97496
2.94393
2.93072
2.92493
2.91916
2.91217
2.90262
2.88832
2.86311
2.82529
2.79194
2.77658
2.77055
2.76656
2.76812
2.78942
2.81405
2.81954
2.81537
2.80788
2.79213
2.74967
2.68307
2.64108
2.62756
2.62148
2.6172
2.61731
2.63387
2.65232
2.65726
2.6534
2.64594
2.63126
2.59501
2.54231
2.50968
2.49882
2.4933
2.4893
2.48837
2.49984
2.51852
2.52162
2.51559
2.50862
2.49821
2.47612
2.4418
2.40711
2.38417
2.37474
2.37136
2.37007
2.37228
2.37647
2.37875
2.37869
2.38005
2.38139
2.37958
2.37797
2.37499
2.36662
2.34506
2.30599
2.26816
2.24493
2.2306
2.2201
2.21459
2.21459
2.22687
2.25007
2.2703
2.28599
2.29101
2.28682
2.2718
2.24347
2.21384
2.19314
2.1782
2.17025
2.16739
2.16536
2.16488
2.16366
2.15971
2.15431
2.14707
2.14149
2.13886
2.13661
2.13517
2.13541
2.13669
2.135
2.1301
2.11872
2.09733
2.08227
2.07871
2.07731
2.0762
2.07596
2.07997
2.09042
2.09589
2.0953
2.09271
2.08768
2.07633
6.23431
6.12906
6.02245
5.98122
5.96924
5.98035
5.97112
5.93588
5.86653
5.75944
5.681
5.65332
5.65156
5.70495
5.77153
5.76408
5.72529
5.64913
5.5226
5.42103
5.38329
5.37118
5.38764
5.41206
5.39589
5.36251
5.30456
5.2318
5.1789
5.15712
5.141
5.12256
5.10158
5.07117
5.02152
4.98187
4.96475
4.95948
4.97356
4.97051
4.94589
4.90493
4.8313
4.74707
4.6976
4.68255
4.68489
4.72494
4.75784
4.74413
4.71338
4.65113
4.5443
4.46263
4.43043
4.41943
4.42624
4.47118
4.51172
4.50455
4.48012
4.43314
4.35629
4.26672
4.21352
4.19655
4.18717
4.19222
4.22445
4.24288
4.23123
4.21375
4.19018
4.13835
4.05476
3.99146
3.96993
3.95883
3.95196
3.96116
3.98064
3.97428
3.96072
3.94882
3.93356
3.89511
3.83338
3.77986
3.76331
3.75371
3.7489
3.74892
3.74109
3.72777
3.71391
3.69796
3.6702
3.62599
3.58954
3.5774
3.57034
3.56323
3.55423
3.54393
3.5317
3.51289
3.48242
3.4514
3.43009
3.41794
3.40911
3.40445
3.39909
3.38882
3.3773
3.36221
3.33467
3.29344
3.26342
3.25541
3.2505
3.25114
3.2503
3.24124
3.22938
3.21374
3.19125
3.15397
3.10541
3.07716
3.06932
3.06564
3.06579
3.0743
3.08635
3.08452
3.07765
3.06844
3.05076
3.01159
2.96362
2.93901
2.93027
2.92396
2.91884
2.91515
2.9085
2.89661
2.87146
2.82881
2.79711
2.78529
2.77848
2.77407
2.77528
2.79653
2.82488
2.82741
2.82136
2.81215
2.79461
2.75486
2.69582
2.6542
2.63711
2.62892
2.6243
2.62389
2.63684
2.65877
2.66332
2.65767
2.64757
2.63022
2.59549
2.55269
2.52456
2.50808
2.4987
2.49419
2.49307
2.49566
2.49764
2.49957
2.49654
2.48953
2.48111
2.46963
2.45481
2.43887
2.42027
2.40014
2.38365
2.37345
2.36897
2.36498
2.35951
2.35568
2.35584
2.36521
2.37706
2.38477
2.3875
2.38481
2.37483
2.34616
2.28753
2.23078
2.20423
2.19401
2.18928
2.18794
2.1973
2.23355
2.2774
2.30041
2.30359
2.30026
2.28954
2.25919
2.20776
2.17524
2.16651
2.16269
2.16029
2.15929
2.16036
2.15955
2.15543
2.15024
2.1424
2.13392
2.13008
2.1278
2.1263
2.12821
2.13313
2.13244
2.1291
2.12337
2.10804
2.08107
2.06638
2.06328
2.06183
2.06065
2.06153
2.0703
2.0824
2.08506
2.08403
2.08192
2.07642
6.19878
6.08387
6.03276
6.01732
6.02399
6.01901
5.98789
5.92611
5.82457
5.73758
5.70685
5.70455
5.75708
5.82171
5.81197
5.77051
5.6918
5.5644
5.46942
5.43469
5.42145
5.4367
5.46077
5.44437
5.41082
5.3529
5.27955
5.22654
5.20464
5.18881
5.16931
5.14433
5.10801
5.05984
5.02726
5.01053
5.00391
5.01415
5.0083
4.98494
4.947
4.88003
4.79689
4.75038
4.73501
4.73483
4.76797
4.79311
4.77818
4.74723
4.68859
4.59815
4.51041
4.46985
4.45699
4.46009
4.50254
4.54974
4.54517
4.52277
4.47983
4.39638
4.29669
4.24773
4.23159
4.22108
4.22318
4.25076
4.26862
4.25671
4.23968
4.22066
4.17758
4.10232
4.02848
3.99565
3.9848
3.97995
3.9926
4.01568
4.01072
3.99424
3.97686
3.95357
3.91102
3.85173
3.8057
3.79145
3.78343
3.78051
3.78405
3.77796
3.76418
3.74937
3.73023
3.70048
3.65609
3.61326
3.58955
3.58103
3.57511
3.57115
3.56274
3.55229
3.54093
3.51689
3.47914
3.45333
3.44497
3.43948
3.43539
3.4279
3.41666
3.40222
3.38082
3.34417
3.29985
3.27768
3.27154
3.2682
3.27039
3.27829
3.27541
3.26661
3.25532
3.23614
3.19753
3.13817
3.09363
3.07516
3.06693
3.06114
3.06313
3.09013
3.10324
3.09763
3.08993
3.08069
3.05783
3.01109
2.96418
2.9442
2.93402
2.92567
2.91911
2.91339
2.90742
2.89916
2.87872
2.846
2.82174
2.8079
2.79986
2.79453
2.79418
2.80139
2.80469
2.8025
2.79776
2.79051
2.77688
2.75094
2.71818
2.69445
2.67421
2.65611
2.64528
2.64147
2.64293
2.64153
2.63928
2.6355
2.62655
2.6106
2.58823
2.56808
2.55482
2.54013
2.52308
2.50936
2.50034
2.49263
2.48756
2.48418
2.48002
2.47108
2.4639
2.46033
2.45871
2.45565
2.44973
2.43841
2.41553
2.38531
2.36279
2.35032
2.34238
2.33775
2.33596
2.34392
2.37252
2.39508
2.40278
2.40063
2.39261
2.37062
2.30698
2.2225
2.18537
2.17726
2.17413
2.17243
2.17831
2.21755
2.28652
2.31157
2.31038
2.30461
2.2928
2.26323
2.20618
2.17056
2.16228
2.1583
2.15548
2.15506
2.15703
2.15462
2.15086
2.14653
2.13848
2.12842
2.12345
2.12087
2.1193
2.12046
2.12775
2.12894
2.126
2.12137
2.1116
2.08992
2.06321
2.05255
2.05003
2.04896
2.04877
2.05359
2.06421
2.07013
2.07069
2.06961
2.06792
6.14615
6.08527
6.06671
6.06914
6.06712
6.03755
5.98231
5.88883
5.80086
5.76759
5.7623
5.80789
5.8687
5.85833
5.81775
5.74098
5.61431
5.51502
5.47723
5.46553
5.48346
5.5091
5.49323
5.45937
5.40033
5.32641
5.27287
5.25079
5.23546
5.21788
5.19609
5.16313
5.10981
5.06628
5.04714
5.03934
5.05127
5.05147
5.02778
4.98743
4.91577
4.83519
4.79108
4.77541
4.77415
4.80578
4.83709
4.82412
4.79056
4.72666
4.62278
4.54292
4.51466
4.50222
4.50251
4.53837
4.58096
4.57567
4.55568
4.51743
4.44589
4.34962
4.28434
4.26161
4.2507
4.25331
4.28358
4.30355
4.29149
4.27275
4.24932
4.20334
4.13293
4.06246
4.03043
4.01967
4.01326
4.02048
4.04724
4.05144
4.03768
4.021
3.99707
3.94839
3.87377
3.82052
3.79992
3.79186
3.78939
3.80069
3.80604
3.79709
3.7849
3.76985
3.7438
3.69539
3.64673
3.61606
3.60303
3.59314
3.58575
3.57669
3.56801
3.56013
3.54263
3.51412
3.48395
3.47344
3.46725
3.46577
3.46124
3.45136
3.43803
3.41737
3.37454
3.31693
3.28449
3.27433
3.26831
3.26902
3.28592
3.29747
3.29474
3.28628
3.27513
3.25145
3.19927
3.13401
3.09684
3.08418
3.07599
3.07093
3.07245
3.09083
3.11106
3.10962
3.10065
3.08413
3.05252
3.00859
2.97931
2.96219
2.9462
2.93162
2.92005
2.9106
2.90059
2.88589
2.86931
2.85451
2.84372
2.83393
2.82812
2.82613
2.82032
2.81085
2.801
2.79159
2.78046
2.76497
2.74682
2.73006
2.72059
2.71513
2.70957
2.70053
2.68695
2.66885
2.6508
2.63795
2.62964
2.61987
2.60308
2.58282
2.57554
2.57359
2.57034
2.56486
2.55564
2.5388
2.51443
2.495
2.48111
2.46988
2.45913
2.45292
2.45171
2.45629
2.4658
2.46889
2.46612
2.46063
2.44692
2.41115
2.36417
2.33793
2.32951
2.32539
2.32285
2.32697
2.35773
2.40417
2.41347
2.40817
2.39825
2.37798
2.31943
2.22722
2.18427
2.17472
2.17157
2.16993
2.17595
2.20946
2.26321
2.29038
2.29248
2.28996
2.28303
2.26091
2.21467
2.17386
2.16133
2.15684
2.15393
2.15418
2.15349
2.1504
2.14696
2.14156
2.13235
2.12367
2.11913
2.11623
2.11454
2.1142
2.11549
2.11609
2.11411
2.11131
2.10724
2.09514
2.07074
2.04978
2.0425
2.04028
2.03978
2.04182
2.04887
2.05453
2.05632
2.05668
2.05572
6.13661
6.11489
6.11431
6.11734
6.0902
6.04256
5.95582
5.86352
5.82549
5.81732
5.85571
5.91162
5.90112
5.86135
5.78731
5.66443
5.56554
5.52914
5.51565
5.53125
5.55668
5.54124
5.5078
5.45038
5.37591
5.31888
5.29553
5.27998
5.26273
5.24065
5.20955
5.16174
5.11893
5.09818
5.08704
5.09299
5.09009
5.06693
5.03083
4.9661
4.8828
4.82558
4.80758
4.80534
4.83687
4.86783
4.85558
4.82969
4.77688
4.68168
4.58727
4.54088
4.52619
4.52705
4.56774
4.61583
4.61321
4.59158
4.55212
4.47848
4.37881
4.32195
4.30372
4.29283
4.29212
4.31752
4.34273
4.33354
4.31508
4.29212
4.24742
4.16639
4.08601
4.05029
4.04017
4.03531
4.0439
4.0734
4.08347
4.0719
4.05758
4.03845
3.9949
3.92175
3.8537
3.82077
3.81009
3.80218
3.80466
3.82118
3.81811
3.80805
3.79858
3.78274
3.74448
3.6855
3.64633
3.63568
3.62556
3.61304
3.59981
3.58581
3.57047
3.54879
3.52076
3.50333
3.49795
3.49348
3.4923
3.49124
3.48435
3.47423
3.45686
3.41824
3.35614
3.30843
3.28912
3.28128
3.27544
3.27429
3.28713
3.30298
3.30567
3.29919
3.28572
3.25698
3.1989
3.14361
3.11957
3.10607
3.09657
3.09109
3.09259
3.10014
3.09747
3.09207
3.08357
3.06568
3.03549
3.01027
2.99874
2.98771
2.97263
2.95225
2.9302
2.9096
2.89172
2.87524
2.86246
2.85782
2.85603
2.85577
2.85584
2.85021
2.83882
2.82301
2.80582
2.78646
2.7629
2.73779
2.72318
2.71764
2.71718
2.72599
2.73448
2.73217
2.72342
2.70578
2.6752
2.64337
2.6169
2.59466
2.57726
2.57003
2.56761
2.57154
2.57847
2.57745
2.57272
2.56472
2.54622
2.5114
2.47464
2.45325
2.44462
2.44045
2.43934
2.45127
2.47357
2.48061
2.47729
2.47214
2.46293
2.4333
2.37384
2.33534
2.32513
2.32137
2.31885
2.32229
2.35089
2.39122
2.40196
2.39884
2.39157
2.37393
2.3268
2.24638
2.19315
2.18021
2.17685
2.17619
2.18532
2.21624
2.25322
2.26854
2.26796
2.26412
2.2577
2.24355
2.21693
2.19012
2.17452
2.16545
2.15923
2.15433
2.1494
2.14491
2.14056
2.13463
2.12639
2.12008
2.1163
2.11316
2.11105
2.11084
2.10953
2.10683
2.10369
2.10017
2.09634
2.09058
2.07745
2.05698
2.04119
2.03524
2.03308
2.03334
2.03567
2.0382
2.03962
2.04099
2.04268
6.16426
6.16009
6.16789
6.14486
6.10353
6.02481
5.93129
5.88708
5.87497
5.90347
5.95452
5.94391
5.90353
5.83105
5.71179
5.61446
5.57717
5.56357
5.57857
5.60398
5.5888
5.55533
5.49899
5.42569
5.37046
5.34746
5.33111
5.31184
5.28768
5.25311
5.2008
5.15764
5.13742
5.12759
5.13511
5.13267
5.10852
5.07021
5.00706
4.92871
4.8775
4.85956
4.85447
4.87924
4.90694
4.89432
4.86367
4.80601
4.71826
4.63247
4.59416
4.57941
4.57609
4.60589
4.65
4.64695
4.62692
4.59254
4.52288
4.42211
4.35267
4.32607
4.31528
4.3155
4.34393
4.37519
4.36902
4.35217
4.33255
4.29474
4.2222
4.13435
4.08073
4.06447
4.05538
4.05713
4.08908
4.11476
4.10637
4.09296
4.07778
4.03952
3.97075
3.89623
3.85546
3.84134
3.83141
3.82571
3.82757
3.82827
3.81931
3.80835
3.79456
3.76948
3.72953
3.68506
3.6651
3.65455
3.64397
3.63233
3.61919
3.60282
3.57529
3.54001
3.51289
3.50087
3.495
3.49681
3.50891
3.50881
3.5009
3.49092
3.46869
3.41481
3.3465
3.31168
3.30032
3.29183
3.287
3.29145
3.30759
3.30516
3.29647
3.2878
3.27281
3.2404
3.19556
3.16721
3.15147
3.13722
3.12949
3.12607
3.11896
3.1069
3.09334
3.08057
3.06295
3.03609
3.01834
3.01366
3.00946
3.003
2.99368
2.97829
2.95043
2.91363
2.88446
2.87131
2.86619
2.86316
2.86503
2.87365
2.87454
2.86736
2.85771
2.84202
2.81167
2.77028
2.7378
2.72313
2.71738
2.71399
2.71806
2.73907
2.75259
2.75077
2.74474
2.73361
2.70406
2.64835
2.59895
2.57765
2.56914
2.56517
2.56336
2.57079
2.58624
2.58815
2.58342
2.57695
2.56435
2.52896
2.4772
2.44884
2.4397
2.43505
2.43241
2.44289
2.47894
2.48646
2.48221
2.47729
2.46972
2.44836
2.39262
2.33968
2.32649
2.32269
2.32078
2.32661
2.35057
2.37281
2.37889
2.37625
2.36848
2.35344
2.32078
2.26956
2.22855
2.20861
2.2007
2.19982
2.21018
2.23344
2.24642
2.24901
2.24656
2.23898
2.22906
2.21716
2.20434
2.19599
2.18993
2.18182
2.16945
2.15607
2.14739
2.14114
2.1346
2.1283
2.1222
2.11736
2.11408
2.11209
2.10986
2.10634
2.10247
2.09876
2.09465
2.0899
2.08496
2.08034
2.07485
2.06573
2.0527
2.03824
2.02947
2.02571
2.02491
2.02434
2.02418
2.02429
2.02562
6.20791
6.21972
6.20143
6.16354
6.0909
5.9974
5.94749
5.93159
5.95011
5.9952
5.98648
5.94698
5.87803
5.76328
5.66364
5.62484
5.61127
5.62576
5.65139
5.63642
5.60321
5.54765
5.47401
5.4188
5.39618
5.38098
5.36315
5.34048
5.3073
5.25277
5.20461
5.18303
5.17237
5.17795
5.17372
5.14996
5.11225
5.04452
4.96463
4.91574
4.89786
4.89314
4.91875
4.95014
4.93857
4.91091
4.8537
4.74942
4.65985
4.6234
4.61058
4.61007
4.64381
4.68817
4.68559
4.66446
4.62819
4.56129
4.46524
4.39184
4.36431
4.35297
4.34954
4.37143
4.40545
4.40249
4.38532
4.36768
4.3363
4.27228
4.18162
4.12051
4.10089
4.09054
4.08607
4.10151
4.13094
4.13183
4.12247
4.10802
4.07649
4.01369
3.93501
3.89478
3.87986
3.86872
3.86424
3.86494
3.85587
3.84044
3.82475
3.80933
3.7844
3.74142
3.70753
3.69733
3.68916
3.6805
3.66888
3.6538
3.63356
3.60461
3.57081
3.53773
3.52065
3.51183
3.50552
3.50662
3.52073
3.5212
3.51171
3.49524
3.46231
3.40278
3.35232
3.33314
3.32079
3.31132
3.30966
3.31094
3.30233
3.29273
3.28212
3.2678
3.24385
3.20772
3.18832
3.1828
3.17944
3.17942
3.17624
3.16473
3.14688
3.12414
3.0959
3.0611
3.03098
3.01727
3.01186
3.01258
3.01622
3.01271
3.00527
2.99436
2.97131
2.92539
2.88892
2.87858
2.87315
2.86979
2.87594
2.88661
2.88349
2.87638
2.86728
2.84929
2.80676
2.75782
2.73102
2.72088
2.71553
2.71262
2.72187
2.74824
2.7631
2.76085
2.75475
2.74482
2.71732
2.65603
2.59834
2.5762
2.56916
2.56488
2.56352
2.57618
2.59411
2.59422
2.58925
2.58293
2.57123
2.54298
2.48972
2.45293
2.44193
2.43689
2.43428
2.43777
2.45669
2.48253
2.48477
2.47821
2.46945
2.4531
2.4205
2.3758
2.34501
2.33499
2.33251
2.33948
2.35582
2.35977
2.35804
2.35326
2.34357
2.3263
2.2996
2.27304
2.2543
2.24029
2.22907
2.22634
2.23389
2.24007
2.23653
2.23228
2.22665
2.21547
2.20088
2.19471
2.19394
2.19601
2.19406
2.18905
2.18066
2.16709
2.15152
2.13972
2.13016
2.12307
2.11954
2.11694
2.11438
2.1106
2.10589
2.10079
2.09557
2.09097
2.08603
2.08027
2.07491
2.07079
2.06793
2.0655
2.06043
2.05016
2.03408
2.02109
2.01563
2.01351
2.01134
2.00962
2.00875
6.27405
6.26046
6.22456
6.15778
6.06364
6.00596
5.98666
5.99683
6.03586
6.02926
5.98979
5.92308
5.81333
5.71575
5.67641
5.66175
5.67404
5.69904
5.68446
5.65132
5.59646
5.52331
5.46797
5.44538
5.43039
5.41214
5.38846
5.35247
5.30005
5.2555
5.23376
5.22297
5.22767
5.21991
5.1943
5.15304
5.09043
5.0156
4.95862
4.93903
4.93334
4.95803
4.98834
4.97689
4.95123
4.89679
4.80654
4.7105
4.65838
4.64205
4.63829
4.66947
4.72211
4.72557
4.70599
4.67523
4.61024
4.50378
4.42575
4.39674
4.38571
4.3802
4.39341
4.42707
4.43106
4.41704
4.40232
4.37502
4.31853
4.23143
4.16447
4.13892
4.12808
4.12397
4.13858
4.1595
4.1507
4.13414
4.1154
4.08538
4.03496
3.96908
3.92288
3.90988
3.90345
3.90358
3.90798
3.90014
3.88528
3.86801
3.84509
3.80779
3.76133
3.7244
3.70586
3.69752
3.69314
3.69287
3.68401
3.6701
3.64837
3.61081
3.56958
3.54773
3.53623
3.52771
3.52524
3.52173
3.51289
3.50372
3.49191
3.47079
3.43319
3.39088
3.37122
3.36248
3.35674
3.35251
3.34275
3.32628
3.30802
3.29266
3.27482
3.24481
3.20891
3.1906
3.18483
3.18665
3.20131
3.21588
3.21375
3.20232
3.18331
3.14554
3.0868
3.03914
3.02047
3.01228
3.00585
3.00268
3.01314
3.0175
3.01069
3.00126
2.98419
2.95303
2.91835
2.89888
2.88949
2.88371
2.88192
2.88693
2.891
2.88486
2.87235
2.84817
2.80336
2.75589
2.7374
2.72863
2.72274
2.72107
2.73413
2.7578
2.76401
2.76223
2.75506
2.74275
2.71747
2.67139
2.62301
2.59229
2.5771
2.5706
2.56727
2.56694
2.57629
2.58784
2.5849
2.57892
2.57002
2.55026
2.5187
2.48586
2.46118
2.44882
2.44373
2.44202
2.44461
2.45234
2.46104
2.45911
2.45122
2.44034
2.42669
2.4071
2.38248
2.36008
2.35064
2.34867
2.34727
2.34463
2.33941
2.33084
2.31692
2.29997
2.28339
2.27633
2.27531
2.2764
2.27231
2.26336
2.2522
2.24068
2.23118
2.2207
2.20594
2.18978
2.1828
2.18085
2.18207
2.18957
2.19232
2.18984
2.18547
2.17625
2.15706
2.1375
2.12809
2.12373
2.1203
2.1168
2.11256
2.10758
2.10197
2.09597
2.09034
2.08352
2.07608
2.07057
2.06772
2.06503
2.06277
2.061
2.05885
2.0546
2.04399
2.0248
2.00892
2.0023
1.99907
1.99678
1.99512
6.32037
6.2861
6.22442
6.13073
6.06586
6.04273
6.04442
6.07629
6.07198
6.03338
5.96986
5.86514
5.76715
5.72579
5.71081
5.72216
5.74678
5.7327
5.69999
5.64569
5.57288
5.5178
5.49514
5.47984
5.46108
5.43679
5.39954
5.34268
5.29402
5.27308
5.26464
5.27192
5.26442
5.24042
5.19948
5.12487
5.04493
5.00535
4.98862
4.9814
5.00346
5.03667
5.02698
4.99717
4.93765
4.83612
4.7406
4.70217
4.68735
4.68059
4.70224
4.75049
4.7552
4.73731
4.71259
4.65912
4.56602
4.47646
4.43284
4.41878
4.41149
4.42242
4.4537
4.45385
4.436
4.41807
4.39758
4.35564
4.27555
4.2043
4.17872
4.16989
4.16685
4.18143
4.20309
4.19675
4.17907
4.15625
4.11567
4.04566
3.97153
3.94047
3.92978
3.92552
3.92848
3.94056
3.94014
3.9282
3.91401
3.89255
3.85256
3.79329
3.74468
3.72083
3.71173
3.70648
3.70466
3.6987
3.69114
3.68126
3.65713
3.6149
3.58559
3.57366
3.56349
3.55413
3.54365
3.52922
3.51396
3.49997
3.47547
3.43151
3.39717
3.38828
3.38575
3.3886
3.39547
3.39052
3.37767
3.36001
3.33398
3.29656
3.25155
3.21259
3.19484
3.188
3.18411
3.19026
3.22081
3.24019
3.23567
3.22458
3.20492
3.15793
3.08395
3.03577
3.01955
3.01143
3.00507
3.00158
3.00333
3.00881
3.00611
2.99778
2.98681
2.96882
2.9511
2.93511
2.92266
2.91077
2.89803
2.88699
2.87565
2.86778
2.85559
2.83215
2.79723
2.76988
2.75857
2.74996
2.74314
2.74146
2.74811
2.74983
2.74319
2.73721
2.7312
2.71928
2.6995
2.67629
2.65517
2.63429
2.60849
2.58563
2.57499
2.57035
2.56832
2.56912
2.56531
2.55791
2.54982
2.54047
2.52921
2.51547
2.49849
2.47639
2.45653
2.44669
2.44227
2.44002
2.44038
2.43896
2.43428
2.42995
2.42613
2.42376
2.41852
2.40507
2.37987
2.35368
2.33994
2.33278
2.32263
2.30504
2.2861
2.27823
2.27667
2.28211
2.29487
2.30479
2.30298
2.29391
2.27753
2.25361
2.22743
2.20222
2.18216
2.17432
2.17155
2.17064
2.17572
2.18672
2.19187
2.19016
2.18658
2.1796
2.16009
2.13666
2.1294
2.12612
2.12214
2.11699
2.11139
2.10616
2.101
2.09486
2.0848
2.07285
2.06579
2.06297
2.06092
2.05957
2.05963
2.06073
2.0591
2.05576
2.04909
2.03104
2.00463
1.99115
1.98755
1.98546
1.98378
6.34894
6.28825
6.1955
6.12514
6.09907
6.09377
6.11731
6.11419
6.07653
6.01602
5.91763
5.82108
5.77859
5.7629
5.77255
5.79563
5.78109
5.74865
5.69479
5.62288
5.568
5.5452
5.52895
5.50926
5.48591
5.44801
5.38998
5.34312
5.32289
5.31479
5.3205
5.30976
5.28341
5.23804
5.17337
5.10043
5.04277
5.01964
5.01114
5.03317
5.07237
5.066
5.0416
4.98956
4.89036
4.78733
4.73281
4.71391
4.70668
4.72898
4.77953
4.78866
4.77056
4.74467
4.69284
4.60403
4.51985
4.48098
4.46649
4.4571
4.45969
4.48225
4.48602
4.47053
4.45391
4.42975
4.38156
4.30962
4.24399
4.21222
4.20301
4.20001
4.21489
4.24058
4.23621
4.21994
4.19874
4.1572
4.08361
4.00341
3.9603
3.94362
3.93475
3.93141
3.94945
3.9643
3.95691
3.94436
3.93155
3.90578
3.85271
3.79099
3.75459
3.73834
3.72544
3.71478
3.70453
3.69542
3.68516
3.66982
3.647
3.62338
3.6147
3.60817
3.59959
3.58748
3.57067
3.54883
3.5223
3.4851
3.43748
3.39988
3.38741
3.38267
3.38475
3.40541
3.41919
3.41371
3.4034
3.38812
3.35538
3.29228
3.23042
3.20122
3.19125
3.18508
3.18293
3.20082
3.24032
3.25574
3.24859
3.23423
3.20998
3.16162
3.09807
3.05592
3.03324
3.01889
3.01056
3.00665
3.00382
2.99651
2.98992
2.98047
2.97126
2.96764
2.96595
2.9626
2.9558
2.9434
2.92351
2.89904
2.8789
2.85803
2.83358
2.809
2.79057
2.78198
2.77653
2.77394
2.77116
2.76536
2.75697
2.74745
2.73808
2.72621
2.71119
2.6929
2.67576
2.66932
2.66562
2.65952
2.64816
2.62734
2.59682
2.57425
2.56528
2.5604
2.55328
2.54195
2.53346
2.52978
2.52884
2.52676
2.52125
2.51074
2.48974
2.46057
2.4391
2.42783
2.41896
2.413
2.4134
2.42421
2.437
2.44246
2.43991
2.43263
2.41611
2.38193
2.34251
2.31484
2.29299
2.27638
2.27093
2.27039
2.27515
2.29139
2.31648
2.32586
2.32254
2.31382
2.29556
2.25935
2.21331
2.18389
2.17372
2.16914
2.16589
2.16471
2.17641
2.19501
2.19631
2.19276
2.1882
2.18057
2.16231
2.14119
2.1327
2.1275
2.122
2.1165
2.11169
2.10729
2.10169
2.09144
2.07637
2.06575
2.061
2.05753
2.05494
2.05383
2.0581
2.06268
2.06067
2.05668
2.04978
2.03246
2.00244
1.98408
1.97921
1.97702
1.97559
6.35461
6.26197
6.184
6.15511
6.14467
6.1608
6.15716
6.11994
6.0608
5.96699
5.87431
5.83169
5.816
5.82502
5.84655
5.83119
5.79859
5.74368
5.67208
5.61797
5.59553
5.57919
5.55853
5.53196
5.48796
5.43203
5.38849
5.3692
5.3625
5.3676
5.3551
5.33062
5.28421
5.20228
5.12587
5.09195
5.07537
5.06722
5.08733
5.11826
5.10812
5.07948
5.02115
4.93009
4.83453
4.78268
4.76494
4.75611
4.77225
4.81691
4.82279
4.80378
4.77951
4.73073
4.64199
4.5537
4.50965
4.49621
4.48945
4.49873
4.52363
4.52228
4.50477
4.48545
4.46167
4.41754
4.33795
4.26604
4.23653
4.22951
4.22795
4.24383
4.27196
4.27155
4.25679
4.23684
4.19696
4.12859
4.04825
3.99331
3.96969
3.95916
3.9528
3.95614
3.96849
3.97339
3.97039
3.95988
3.93778
3.89673
3.84228
3.80432
3.78771
3.77242
3.75441
3.73449
3.71569
3.69668
3.67318
3.64762
3.63372
3.62869
3.62965
3.63167
3.62634
3.61721
3.60395
3.57917
3.52811
3.45593
3.40805
3.39119
3.38401
3.38072
3.39316
3.42148
3.43325
3.42799
3.41836
3.40391
3.36778
3.29452
3.22881
3.20658
3.19736
3.19151
3.19634
3.2309
3.24473
3.23817
3.23078
3.21836
3.19115
3.14976
3.11496
3.09384
3.0745
3.05233
3.03054
3.01497
3.00346
2.9922
2.97912
2.96949
2.96572
2.96628
2.97365
2.97851
2.97378
2.96529
2.95142
2.92382
2.88128
2.83893
2.81284
2.79778
2.79163
2.78952
2.79407
2.79817
2.79268
2.78321
2.76988
2.75319
2.73393
2.71039
2.68697
2.67371
2.66909
2.66705
2.67006
2.67299
2.66815
2.65773
2.63581
2.59956
2.56908
2.54996
2.53657
2.52722
2.52303
2.5237
2.53124
2.53612
2.53529
2.53041
2.51941
2.49114
2.44521
2.41313
2.40231
2.3974
2.39627
2.41365
2.44641
2.45804
2.45667
2.45207
2.44175
2.41046
2.34618
2.28917
2.26949
2.26328
2.26012
2.26037
2.27764
2.31595
2.34099
2.34127
2.33614
2.3264
2.30254
2.25167
2.20089
2.17994
2.17285
2.1689
2.16602
2.1659
2.17507
2.18316
2.18192
2.17811
2.17345
2.16557
2.15358
2.14353
2.13712
2.1315
2.12563
2.11999
2.11438
2.10818
2.10017
2.08741
2.0712
2.06186
2.05842
2.05558
2.05252
2.05019
2.04912
2.04982
2.04986
2.04768
2.0437
2.03144
2.00389
1.98219
1.97483
1.97144
1.96957
6.32819
6.2465
6.21476
6.20014
6.20818
6.20103
6.16447
6.10677
6.01701
5.92641
5.8831
5.86774
5.87707
5.89813
5.8821
5.85024
5.7939
5.72203
5.66712
5.64421
5.62701
5.60618
5.58224
5.54022
5.48005
5.43112
5.41257
5.40666
5.41192
5.39783
5.3718
5.32246
5.25334
5.17993
5.12742
5.1053
5.09798
5.12608
5.16728
5.15931
5.13088
5.06998
4.95867
4.85925
4.81934
4.80368
4.79612
4.81172
4.85685
4.86806
4.8489
4.81988
4.76602
4.68077
4.59598
4.54649
4.53058
4.52246
4.52478
4.54927
4.55941
4.54521
4.52687
4.50492
4.46005
4.38769
4.31576
4.26995
4.25502
4.24686
4.25229
4.28535
4.29942
4.28972
4.27186
4.23857
4.17379
4.09131
4.03998
4.01784
4.00312
3.992
3.99051
3.99558
3.9854
3.96866
3.95561
3.94121
3.91316
3.86722
3.83427
3.82409
3.81519
3.80393
3.78881
3.7671
3.73658
3.6986
3.66215
3.64162
3.63351
3.62828
3.62855
3.64118
3.6439
3.63504
3.62169
3.59076
3.52278
3.44479
3.40568
3.39411
3.38623
3.38264
3.39916
3.43648
3.44704
3.43926
3.42722
3.40914
3.3705
3.3063
3.25579
3.23588
3.22391
3.21737
3.22328
3.23355
3.2313
3.22259
3.21035
3.18998
3.15787
3.13127
3.12348
3.11682
3.10696
3.09134
3.06579
3.03323
3.00411
2.98325
2.97157
2.96535
2.96111
2.96613
2.98587
2.99073
2.98524
2.97753
2.96619
2.93757
2.87998
2.82902
2.80823
2.8017
2.79707
2.79752
2.81029
2.8133
2.80694
2.79887
2.78594
2.7594
2.71906
2.68786
2.67354
2.66796
2.66476
2.667
2.67803
2.68343
2.68028
2.67368
2.66186
2.63166
2.5791
2.54115
2.52751
2.5215
2.51754
2.51768
2.5326
2.54756
2.5465
2.54052
2.53182
2.51031
2.45835
2.41078
2.39536
2.39075
2.38808
2.39496
2.43905
2.47029
2.47042
2.4648
2.45456
2.42338
2.34607
2.2791
2.263
2.25872
2.25555
2.25698
2.28463
2.33732
2.35335
2.34929
2.34228
2.33156
2.29971
2.23917
2.19595
2.18512
2.17983
2.17527
2.17222
2.17307
2.18022
2.18053
2.17708
2.17351
2.16765
2.15656
2.14372
2.13921
2.13668
2.13303
2.12812
2.12289
2.11702
2.10963
2.09932
2.08452
2.06902
2.06109
2.05708
2.05403
2.05224
2.05049
2.04731
2.04336
2.03997
2.03705
2.03286
2.02408
2.0057
1.98469
1.97366
1.96869
1.96584
6.30674
6.27245
6.25638
6.2587
6.24669
6.21049
6.15301
6.06535
5.97915
5.93658
5.92101
5.93012
5.95006
5.93339
5.90201
5.84507
5.77372
5.71794
5.69502
5.67697
5.65489
5.62807
5.58098
5.52563
5.48421
5.4652
5.45841
5.45724
5.44062
5.41422
5.35981
5.27085
5.20229
5.17626
5.16115
5.15509
5.18097
5.21209
5.20082
5.17189
5.11146
5.01082
4.91096
4.85544
4.83448
4.82614
4.84517
4.89469
4.90642
4.88846
4.86313
4.81292
4.72143
4.62755
4.58012
4.56351
4.55465
4.5554
4.57504
4.5834
4.56996
4.55442
4.53944
4.50497
4.43702
4.3556
4.30898
4.2947
4.28462
4.28361
4.30472
4.30772
4.29193
4.27663
4.25297
4.20322
4.12948
4.07647
4.05717
4.0489
4.04679
4.04767
4.04336
4.02903
4.00913
3.98669
3.95534
3.91472
3.87145
3.84516
3.83624
3.83272
3.83298
3.82595
3.81385
3.79567
3.75942
3.70358
3.6618
3.64594
3.63663
3.63163
3.64131
3.6612
3.65866
3.64587
3.62713
3.58804
3.515
3.45321
3.42556
3.41035
3.40216
3.39994
3.41301
3.42478
3.42309
3.41674
3.40658
3.38607
3.35235
3.31609
3.29183
3.2783
3.27208
3.26463
3.25083
3.23614
3.22682
3.21274
3.18576
3.15096
3.13535
3.13092
3.13049
3.13198
3.1271
3.1175
3.09917
3.05768
3.00686
2.98139
2.97285
2.96715
2.96266
2.96469
2.98122
2.99712
2.99552
2.98716
2.97374
2.94254
2.87936
2.82776
2.81469
2.80917
2.80553
2.80858
2.81937
2.81968
2.81402
2.80674
2.79293
2.75737
2.70763
2.6799
2.67184
2.66709
2.66332
2.66367
2.6759
2.68773
2.68733
2.68173
2.67331
2.65072
2.59303
2.54166
2.52697
2.52125
2.51683
2.51649
2.53545
2.55352
2.55214
2.54667
2.53847
2.52083
2.47624
2.41822
2.39713
2.3917
2.38905
2.39174
2.41777
2.46558
2.47636
2.46908
2.45617
2.42706
2.3565
2.28201
2.26305
2.25895
2.2563
2.2628
2.29844
2.34119
2.35166
2.34889
2.34295
2.32791
2.28836
2.22846
2.19855
2.19188
2.18749
2.18392
2.18334
2.18841
2.18778
2.1825
2.17688
2.16996
2.15589
2.1459
2.14344
2.14019
2.13718
2.13438
2.13104
2.12667
2.12084
2.11184
2.0971
2.07926
2.06799
2.06352
2.06015
2.05705
2.05346
2.04875
2.04361
2.03847
2.03268
2.02651
2.0202
2.01288
2.00327
1.99071
1.97893
1.97009
1.96516
6.33053
6.31339
6.3109
6.29356
6.25845
6.20137
6.11569
6.03197
5.98937
5.97399
5.9833
6.00283
5.98549
5.95402
5.89571
5.824
5.76754
5.74393
5.72429
5.70196
5.67528
5.62778
5.571
5.52795
5.51133
5.50772
5.50715
5.48806
5.45708
5.40027
5.32066
5.24782
5.20306
5.18421
5.18172
5.22479
5.26708
5.25423
5.21839
5.14905
5.03629
4.93726
4.89634
4.88006
4.87072
4.88312
4.93021
4.947
4.93019
4.90363
4.85206
4.76822
4.68091
4.62492
4.60182
4.58941
4.58314
4.59294
4.60889
4.59986
4.58575
4.56803
4.5343
4.47899
4.40712
4.35167
4.33201
4.32277
4.32234
4.33816
4.34011
4.32341
4.30374
4.26847
4.21167
4.14348
4.10172
4.08711
4.08025
4.08046
4.09047
4.09246
4.08167
4.06535
4.04129
4.00018
3.93752
3.88035
3.85167
3.84086
3.83564
3.8412
3.845
3.8381
3.8268
3.81167
3.77917
3.72787
3.69059
3.66852
3.65415
3.64686
3.64392
3.63953
3.63344
3.62227
3.60134
3.56073
3.51021
3.47977
3.46252
3.44572
3.43635
3.43677
3.43278
3.42082
3.41071
3.3998
3.38308
3.35531
3.32955
3.32283
3.32127
3.32327
3.32014
3.30707
3.28548
3.2568
3.22235
3.18383
3.14856
3.1323
3.12677
3.12703
3.14051
3.15061
3.14558
3.13583
3.12081
3.08206
3.02164
2.99056
2.97964
2.97288
2.96861
2.97204
2.98721
2.98602
2.97893
2.97251
2.9616
2.93544
2.88977
2.85382
2.83467
2.82417
2.81985
2.82273
2.83087
2.82711
2.82001
2.81086
2.79303
2.75482
2.70643
2.68393
2.67549
2.66933
2.66494
2.66533
2.68129
2.69532
2.6941
2.68827
2.67929
2.66002
2.61732
2.56274
2.53603
2.52787
2.52331
2.52119
2.52546
2.54175
2.54559
2.54044
2.53425
2.52348
2.49756
2.45602
2.41724
2.40171
2.39746
2.39704
2.40534
2.42742
2.44838
2.44936
2.44041
2.42085
2.3798
2.31839
2.27689
2.26752
2.266
2.27675
2.31605
2.34452
2.34637
2.34214
2.33442
2.31653
2.27413
2.22508
2.20656
2.20045
2.19641
2.19478
2.19784
2.19796
2.19217
2.18621
2.17996
2.16611
2.14869
2.13952
2.13554
2.13198
2.12927
2.12951
2.13023
2.12725
2.12284
2.11458
2.09729
2.07623
2.06873
2.06586
2.06287
2.05917
2.05405
2.04748
2.04061
2.03451
2.02805
2.01912
2.00799
1.99946
1.99453
1.99062
1.98599
1.98046
1.97327
6.3694
6.36286
6.34294
6.30799
6.24999
6.1656
6.08595
6.04522
6.0295
6.03845
6.05655
6.03843
6.00678
5.94868
5.87635
5.81786
5.79357
5.77373
5.75122
5.72181
5.67469
5.62002
5.58008
5.56279
5.55776
5.55256
5.53331
5.50127
5.43874
5.34721
5.28213
5.25229
5.23649
5.23366
5.26809
5.30517
5.29575
5.26311
5.19741
5.08187
4.98087
4.92907
4.90823
4.89949
4.91598
4.96291
4.97663
4.96113
4.93689
4.89083
4.80618
4.71523
4.6677
4.64929
4.638
4.63455
4.64281
4.64121
4.62381
4.6033
4.58119
4.55375
4.50391
4.43302
4.38934
4.37405
4.36565
4.36721
4.37967
4.37638
4.35975
4.33854
4.30015
4.23229
4.1576
4.11624
4.09941
4.09336
4.09655
4.1135
4.12329
4.11838
4.10664
4.09131
4.06198
4.00347
3.92998
3.87841
3.85749
3.84639
3.83846
3.83729
3.84772
3.84852
3.83683
3.81605
3.78488
3.75403
3.73516
3.71768
3.69757
3.67452
3.65228
3.63625
3.62253
3.60124
3.56461
3.52155
3.50193
3.49522
3.49183
3.49077
3.48292
3.46756
3.44634
3.4253
3.40367
3.37729
3.34842
3.33383
3.32957
3.33073
3.34569
3.35965
3.35537
3.34228
3.31809
3.26878
3.20366
3.15951
3.1375
3.12822
3.12239
3.12516
3.1491
3.15845
3.15306
3.14501
3.13075
3.09984
3.05445
3.01749
2.99732
2.98744
2.98291
2.98214
2.97939
2.97336
2.96468
2.95317
2.93594
2.91374
2.89284
2.88101
2.8708
2.85789
2.84279
2.83123
2.82113
2.81184
2.80418
2.79481
2.77843
2.75067
2.72172
2.70239
2.68911
2.68077
2.67555
2.67289
2.67242
2.67302
2.6717