/*--------------------------------*- C++ -*----------------------------------*\
  =========                 |
  \\      /  F ield         | OpenFOAM: The Open Source CFD Toolbox
   \\    /   O peration     | Website:  https://openfoam.org
    \\  /    A nd           | Version:  7
     \\/     M anipulation  |
\*---------------------------------------------------------------------------*/
FoamFile
{
    version     2.0;
    format      ascii;
    class       volScalarField;
    location    "4";
    object      rho;
}
// * * * * * * * * * * * * * * * * * * * * * * * * * * * * * * * * * * * * * //

dimensions      [1 -3 0 0 0 0 0];

internalField   nonuniform List<scalar> 
16192
(
4.33468
4.30609
4.25246
4.20319
4.18607
4.18213
4.18935
4.18368
4.16611
4.13139
4.07719
4.03737
4.02435
4.02448
4.05332
4.08965
4.08671
4.0674
4.02903
3.96462
3.91516
3.89735
3.89206
3.90108
3.91459
3.90694
3.89055
3.86162
3.82526
3.79937
3.78933
3.78165
3.77193
3.75974
3.74095
3.71597
3.70116
3.69417
3.6931
3.7011
3.69877
3.6873
3.66452
3.6234
3.58109
3.56286
3.55652
3.55763
3.57858
3.59491
3.58755
3.56941
3.53634
3.48494
3.44304
3.42811
3.42248
3.42387
3.44612
3.46971
3.46636
3.45549
3.43248
3.38715
3.3365
3.31004
3.30278
3.29945
3.30677
3.32738
3.33375
3.32641
3.31687
3.30209
3.27164
3.2276
3.19235
3.17949
3.17404
3.17221
3.18271
3.19694
3.19437
3.18764
3.18006
3.16873
3.1406
3.09993
3.07549
3.06809
3.06265
3.06028
3.062
3.05847
3.05098
3.04337
3.03574
3.02321
3.00292
2.97998
2.97207
2.96738
2.96254
2.95656
2.94945
2.9413
2.93161
2.91489
2.89335
2.8809
2.87541
2.87118
2.86891
2.86752
2.86449
2.86038
2.85083
2.82811
2.8006
2.78593
2.78023
2.77605
2.77355
2.76967
2.7631
2.75533
2.74613
2.73518
2.72088
2.70099
2.68338
2.67785
2.6749
2.6737
2.67879
2.67974
2.67514
2.66945
2.66111
2.64636
2.62371
2.60446
2.59628
2.59274
2.58925
2.58495
2.57894
2.56993
2.55399
2.52994
2.50884
2.49937
2.49583
2.49357
2.49488
2.5092
2.52531
2.529
2.52655
2.52196
2.51188
2.48439
2.44125
2.41395
2.40513
2.40119
2.39853
2.39872
2.4098
2.42204
2.42537
2.42305
2.4184
2.40892
2.38525
2.35063
2.32931
2.32238
2.31896
2.31654
2.31602
2.32384
2.33661
2.33889
2.33533
2.3311
2.32446
2.30998
2.28716
2.26401
2.24875
2.24254
2.24043
2.23971
2.24122
2.24409
2.24574
2.2458
2.2469
2.24805
2.24716
2.24646
2.24488
2.23964
2.22543
2.19905
2.17332
2.15753
2.14779
2.14067
2.13697
2.13704
2.14572
2.16192
2.17608
2.18712
2.19073
2.18803
2.178
2.15871
2.13847
2.12441
2.11441
2.1092
2.10739
2.10615
2.10614
2.10571
2.10347
2.10008
2.09527
2.09158
2.08991
2.08845
2.08754
2.08773
2.08867
2.08763
2.08441
2.07653
2.06153
2.05101
2.0485
2.04763
2.04699
2.0469
2.04992
2.05751
2.06155
2.0613
2.05983
2.05673
2.0492
4.3421
4.29061
4.23675
4.21653
4.21119
4.21735
4.21332
4.19654
4.16315
4.10982
4.07023
4.0573
4.05706
4.08508
4.11973
4.11601
4.09714
4.05972
3.99599
3.94419
3.92596
3.92092
3.93049
3.9444
3.93659
3.91996
3.89071
3.85297
3.82561
3.81508
3.80732
3.79812
3.7877
3.77254
3.74699
3.72719
3.71948
3.71758
3.72643
3.72584
3.71409
3.69377
3.6553
3.60982
3.58382
3.57679
3.57864
3.60149
3.62022
3.6134
3.59824
3.56608
3.5086
3.46366
3.44666
3.44189
3.44663
3.47329
3.49714
3.4939
3.48151
3.45701
3.41513
3.36536
3.33606
3.3275
3.32311
3.32658
3.34572
3.35666
3.35058
3.34131
3.32862
3.30012
3.25301
3.21651
3.20446
3.19882
3.19541
3.20106
3.21257
3.20904
3.20164
3.19526
3.1872
3.16582
3.13044
3.09968
3.09062
3.08538
3.08285
3.08324
3.07925
3.07197
3.06427
3.05532
3.03963
3.0141
2.9928
2.98616
2.98255
2.97882
2.97384
2.96794
2.96077
2.94953
2.93127
2.91254
2.89972
2.8923
2.8868
2.88378
2.88033
2.87397
2.86702
2.85808
2.84162
2.81671
2.79852
2.79369
2.79092
2.79151
2.79126
2.78615
2.77929
2.77004
2.75658
2.73403
2.7043
2.68704
2.68242
2.68035
2.68053
2.68606
2.69372
2.69263
2.68839
2.68268
2.67173
2.64732
2.61725
2.60198
2.59673
2.59294
2.58983
2.58755
2.58343
2.57596
2.55998
2.5329
2.51298
2.50575
2.50165
2.49908
2.50008
2.51414
2.53252
2.53433
2.53081
2.52512
2.51393
2.48836
2.45001
2.42309
2.41207
2.40676
2.40377
2.40354
2.41204
2.42642
2.42962
2.42624
2.42004
2.40902
2.3865
2.3585
2.34028
2.32971
2.32374
2.32103
2.32056
2.32261
2.32442
2.32607
2.32449
2.32036
2.31506
2.30774
2.29816
2.28772
2.27546
2.26206
2.251
2.24417
2.24117
2.23849
2.23488
2.23242
2.23262
2.23925
2.24762
2.2532
2.2553
2.25381
2.2476
2.22857
2.1888
2.15005
2.13182
2.12485
2.12168
2.12081
2.1274
2.15264
2.18312
2.19918
2.20154
2.19959
2.1927
2.17215
2.13689
2.11448
2.10853
2.10597
2.10443
2.1039
2.10481
2.10451
2.10212
2.09887
2.09363
2.08789
2.08539
2.08394
2.08296
2.08435
2.08782
2.08739
2.08525
2.08149
2.07089
2.05195
2.0416
2.03941
2.03851
2.03782
2.03855
2.04502
2.05379
2.05581
2.05532
2.05422
2.05076
4.32997
4.27219
4.24686
4.23976
4.24358
4.24167
4.22698
4.19744
4.14728
4.10361
4.08919
4.08863
4.1163
4.14991
4.14499
4.12468
4.08602
4.02198
3.9735
3.95685
3.95149
3.96055
3.97442
3.96671
3.95026
3.92114
3.88317
3.85581
3.84529
3.83783
3.82819
3.81558
3.7973
3.77296
3.75681
3.74923
3.74691
3.75354
3.75152
3.74054
3.72182
3.68688
3.6424
3.61794
3.61081
3.61145
3.6308
3.64527
3.63765
3.62218
3.59173
3.54302
3.49531
3.47409
3.46819
3.47065
3.49553
3.52294
3.52113
3.50999
3.48802
3.44278
3.38729
3.36
3.35179
3.34699
3.34874
3.36521
3.37591
3.36952
3.36053
3.35045
3.32684
3.2843
3.24212
3.22382
3.21805
3.21542
3.22289
3.2365
3.23386
3.22477
3.21517
3.20205
3.1781
3.14419
3.11764
3.10974
3.10548
3.10405
3.10634
3.10321
3.09575
3.08745
3.0765
3.0593
3.03353
3.00823
2.99465
2.99008
2.98698
2.985
2.98035
2.97428
2.96743
2.95297
2.93034
2.91483
2.90967
2.90613
2.90343
2.8987
2.89177
2.88299
2.87008
2.84807
2.82131
2.80785
2.80421
2.80232
2.80383
2.80894
2.80741
2.80244
2.7959
2.78444
2.761
2.7247
2.69734
2.68617
2.68131
2.67797
2.67946
2.69667
2.70491
2.70146
2.69673
2.69095
2.67671
2.64768
2.61848
2.60613
2.59989
2.59477
2.59072
2.58708
2.58336
2.57822
2.56542
2.54479
2.52964
2.52117
2.51626
2.51305
2.51303
2.51816
2.52059
2.51935
2.51665
2.5122
2.50352
2.48688
2.46579
2.45037
2.43733
2.42564
2.41863
2.41623
2.41738
2.41659
2.41538
2.4133
2.4079
2.39785
2.38361
2.37073
2.36226
2.35297
2.34213
2.33342
2.32783
2.32319
2.32009
2.31823
2.31592
2.31037
2.30581
2.30364
2.30278
2.30092
2.29713
2.28972
2.27446
2.2541
2.23896
2.23048
2.22512
2.22206
2.22093
2.22653
2.24629
2.26197
2.26744
2.26623
2.26132
2.24685
2.20373
2.14604
2.12062
2.11502
2.11287
2.11173
2.11583
2.14289
2.19038
2.20781
2.20718
2.20376
2.19636
2.17667
2.13754
2.11315
2.10754
2.1048
2.10281
2.10254
2.10408
2.10265
2.10042
2.09771
2.09228
2.08539
2.08209
2.08045
2.0795
2.08044
2.08575
2.08665
2.0847
2.08159
2.07496
2.05989
2.04112
2.03359
2.03178
2.03114
2.03109
2.03474
2.04248
2.04688
2.04741
2.04698
2.04615
4.30814
4.27765
4.26904
4.27064
4.2702
4.25624
4.22998
4.18434
4.1403
4.12476
4.12286
4.14711
4.1787
4.1735
4.15367
4.11592
4.05214
4.00168
3.9837
3.97907
3.98971
4.00454
3.9973
3.98096
3.95161
3.91362
3.88597
3.87531
3.86816
3.85971
3.8489
3.83219
3.80492
3.78322
3.77463
3.77155
3.7792
3.78047
3.76955
3.74966
3.7126
3.66949
3.64593
3.63858
3.63851
3.65688
3.67481
3.66839
3.65158
3.61855
3.56294
3.51914
3.50411
3.49857
3.49962
3.52075
3.54538
3.54298
3.53299
3.51351
3.47478
3.42134
3.38529
3.37356
3.36823
3.37013
3.38803
3.4
3.39372
3.3839
3.37107
3.34564
3.3059
3.26566
3.2474
3.24173
3.23833
3.24254
3.25801
3.26052
3.25289
3.24359
3.22991
3.20231
3.15933
3.12815
3.11647
3.11223
3.1111
3.11809
3.12158
3.1167
3.10996
3.10133
3.08616
3.05809
3.02952
3.01169
3.00433
2.99871
2.99448
2.98922
2.98417
2.97961
2.96932
2.95232
2.93415
2.92772
2.92378
2.92264
2.91967
2.91357
2.90541
2.89284
2.86693
2.83203
2.81241
2.80636
2.80286
2.80347
2.81416
2.82154
2.82006
2.81523
2.80872
2.7945
2.76259
2.72253
2.6999
2.6924
2.68762
2.68474
2.68591
2.69759
2.71013
2.7093
2.70386
2.69376
2.67423
2.64697
2.62894
2.61846
2.60855
2.5994
2.59219
2.58635
2.58013
2.57098
2.56078
2.55162
2.54502
2.53913
2.53585
2.53499
2.5317
2.52605
2.52016
2.51438
2.50747
2.4976
2.48595
2.47522
2.46922
2.46573
2.4622
2.45651
2.44791
2.43632
2.42477
2.41673
2.41161
2.4056
2.39505
2.38216
2.37769
2.37672
2.37491
2.37169
2.36609
2.35543
2.3397
2.32721
2.31831
2.31103
2.30416
2.30031
2.29964
2.3029
2.3094
2.31145
2.30964
2.30603
2.29692
2.27298
2.24138
2.22372
2.21799
2.21517
2.21346
2.21632
2.23737
2.26908
2.27554
2.27225
2.26605
2.25284
2.21326
2.15013
2.12069
2.11413
2.1119
2.11077
2.115
2.13832
2.17555
2.19464
2.19632
2.19515
2.19116
2.17653
2.14483
2.11655
2.10798
2.105
2.1032
2.10347
2.10307
2.10115
2.09902
2.09549
2.08927
2.08339
2.08038
2.07852
2.07754
2.07747
2.07861
2.07914
2.07788
2.07605
2.07335
2.06507
2.04801
2.03333
2.02823
2.02654
2.02622
2.02779
2.03297
2.03718
2.03867
2.03915
2.03884
4.30818
4.2979
4.29796
4.3
4.2872
4.26463
4.22268
4.17683
4.1591
4.15598
4.17663
4.20591
4.20075
4.18141
4.14498
4.08309
4.03289
4.01555
4.01029
4.01978
4.03462
4.02778
4.01194
3.98357
3.94534
3.91614
3.90502
3.89771
3.88936
3.87857
3.86328
3.83908
3.81749
3.80786
3.80344
3.80771
3.80732
3.79665
3.77915
3.7457
3.70104
3.67079
3.66224
3.66152
3.67947
3.69706
3.69096
3.67835
3.65137
3.60017
3.54865
3.52424
3.51735
3.51851
3.54218
3.56984
3.56894
3.55783
3.53737
3.49756
3.44247
3.41067
3.40114
3.39605
3.39613
3.41112
3.42604
3.42133
3.41165
3.39905
3.37441
3.32867
3.28247
3.26201
3.25658
3.25393
3.25896
3.27596
3.28172
3.27507
3.26692
3.25585
3.23099
3.18887
3.14915
3.13025
3.12437
3.12004
3.12167
3.1317
3.13017
3.12454
3.11904
3.10988
3.08772
3.05325
3.03055
3.02464
3.01886
3.0116
3.00389
2.99565
2.98647
2.9736
2.95703
2.94654
2.9432
2.94035
2.93944
2.9386
2.93424
2.92801
2.91747
2.89406
2.85644
2.82738
2.8158
2.81123
2.8079
2.80736
2.81556
2.82554
2.82732
2.82363
2.81564
2.79834
2.76299
2.72934
2.71496
2.70694
2.7013
2.69812
2.69925
2.70414
2.70248
2.69929
2.69428
2.68347
2.66492
2.64939
2.64234
2.63563
2.62642
2.61388
2.60025
2.58759
2.57655
2.56625
2.55824
2.55568
2.55497
2.5552
2.55573
2.55279
2.54605
2.53639
2.52574
2.51368
2.49874
2.48273
2.47335
2.46974
2.46946
2.47532
2.48099
2.47964
2.47433
2.46328
2.44368
2.42326
2.40616
2.3919
2.38088
2.37647
2.3751
2.37787
2.38274
2.38225
2.37952
2.37463
2.36279
2.3401
2.31606
2.30199
2.29636
2.29369
2.29301
2.30128
2.31646
2.32109
2.31882
2.31529
2.30895
2.28885
2.24885
2.22302
2.21621
2.21367
2.21192
2.21425
2.23366
2.2613
2.26895
2.26719
2.26292
2.25149
2.21969
2.16445
2.12794
2.11917
2.11696
2.11655
2.12304
2.1447
2.17054
2.1815
2.18129
2.17917
2.17538
2.16609
2.14795
2.12948
2.11865
2.11249
2.10838
2.10514
2.10167
2.09857
2.09576
2.09192
2.08645
2.08231
2.07983
2.07777
2.07648
2.07653
2.07581
2.07407
2.07204
2.06974
2.0672
2.06331
2.05429
2.03987
2.02878
2.0247
2.02309
2.02328
2.02504
2.027
2.02823
2.02944
2.03094
4.32779
4.32603
4.33044
4.31948
4.29987
4.26217
4.21616
4.19553
4.19081
4.20659
4.23365
4.22863
4.20918
4.17362
4.11358
4.06402
4.04616
4.04083
4.05001
4.06492
4.05838
4.04281
4.01521
3.97781
3.94963
3.93876
3.93127
3.92212
3.9102
3.89296
3.86639
3.84465
3.83531
3.83139
3.83651
3.83655
3.82559
3.80676
3.77396
3.73223
3.70494
3.69628
3.69431
3.70858
3.72445
3.71805
3.7025
3.67265
3.62571
3.57901
3.55859
3.55178
3.5508
3.56843
3.59358
3.59227
3.5819
3.56416
3.52643
3.47045
3.43173
3.41766
3.41229
3.41277
3.42948
3.44763
3.4445
3.43559
3.42481
3.40399
3.36323
3.31303
3.28236
3.27324
3.26804
3.26892
3.28708
3.30189
3.29702
3.28913
3.28014
3.25823
3.21871
3.1753
3.15171
3.14384
3.13823
3.13499
3.13622
3.13677
3.13178
3.12563
3.11785
3.10344
3.08016
3.05408
3.0426
3.03656
3.03046
3.02373
3.01607
3.00642
2.99006
2.96899
2.95271
2.94542
2.94182
2.94282
2.94991
2.94975
2.94481
2.93862
2.92513
2.89265
2.85126
2.83022
2.82344
2.8184
2.81556
2.81842
2.82845
2.82707
2.82227
2.81754
2.80884
2.78934
2.76223
2.7452
2.73595
2.7276
2.7232
2.72131
2.71711
2.70986
2.70165
2.69385
2.68299
2.66655
2.65592
2.6534
2.65103
2.64715
2.64151
2.63213
2.61495
2.59187
2.5736
2.56563
2.5628
2.56136
2.56301
2.56913
2.57003
2.56612
2.56056
2.55101
2.5319
2.50555
2.48488
2.47563
2.47202
2.46976
2.47243
2.48629
2.49522
2.49414
2.49053
2.48365
2.4647
2.42862
2.39666
2.38295
2.37758
2.37517
2.37414
2.37952
2.3901
2.39149
2.38865
2.38458
2.37633
2.35296
2.3188
2.30023
2.29437
2.29139
2.28967
2.29672
2.3211
2.32642
2.32365
2.32019
2.31496
2.30051
2.26255
2.2268
2.21808
2.21572
2.21464
2.21894
2.23556
2.25103
2.25553
2.25409
2.24942
2.23961
2.21752
2.18259
2.15446
2.14083
2.13558
2.13507
2.1425
2.15869
2.16801
2.17003
2.16853
2.16374
2.15734
2.1495
2.14093
2.13544
2.13129
2.12554
2.11682
2.10754
2.10163
2.09741
2.09306
2.08899
2.085
2.08187
2.07984
2.07867
2.07732
2.07503
2.07246
2.07001
2.0673
2.06414
2.06085
2.05776
2.05407
2.04782
2.03856
2.02834
2.0223
2.01961
2.01908
2.01879
2.01882
2.01901
2.02015
4.35594
4.36228
4.35352
4.33539
4.30078
4.25512
4.23178
4.22555
4.23637
4.26082
4.25702
4.23831
4.20464
4.14673
4.09592
4.07722
4.07181
4.0807
4.09567
4.08932
4.0741
4.04714
4.00976
3.98181
3.97132
3.9645
3.9561
3.94494
3.92817
3.90028
3.87602
3.86613
3.86172
3.86572
3.86458
3.85364
3.83554
3.80084
3.758
3.73178
3.72318
3.72121
3.73568
3.75329
3.74738
3.7334
3.704
3.64819
3.59924
3.57983
3.57395
3.57426
3.59384
3.61915
3.61817
3.60691
3.58754
3.55112
3.498
3.45697
3.44209
3.43639
3.43482
3.4476
3.46734
3.46604
3.45687
3.44704
3.42968
3.39388
3.34218
3.30717
3.29614
3.29021
3.28745
3.29601
3.31252
3.31292
3.30726
3.29881
3.28072
3.2446
3.19898
3.17567
3.16718
3.16079
3.15824
3.15874
3.15365
3.14489
3.13597
3.12728
3.11306
3.08805
3.06821
3.06236
3.05767
3.05266
3.04591
3.03708
3.02512
3.00799
2.98791
2.9681
2.95779
2.95242
2.94852
2.94906
2.95722
2.9574
2.95161
2.94169
2.92197
2.88619
2.85572
2.84428
2.83688
2.83131
2.83048
2.83146
2.8266
2.82113
2.81504
2.80678
2.7927
2.77108
2.75952
2.75649
2.75493
2.75546
2.75413
2.74759
2.73684
2.72294
2.70564
2.684
2.66514
2.65672
2.65363
2.65431
2.65717
2.65549
2.65115
2.64447
2.62994
2.60096
2.57826
2.5723
2.56929
2.56745
2.57177
2.57924
2.57769
2.57386
2.56855
2.55736
2.53051
2.49904
2.48164
2.47523
2.47198
2.47028
2.47656
2.49393
2.50365
2.5023
2.49848
2.49218
2.47456
2.43464
2.39714
2.38293
2.37858
2.37606
2.3753
2.38399
2.39641
2.3968
2.3939
2.38993
2.38236
2.36366
2.32811
2.30392
2.29688
2.29375
2.29216
2.2946
2.30733
2.32482
2.32643
2.32221
2.31653
2.30576
2.28394
2.25368
2.23304
2.22665
2.22528
2.2303
2.24188
2.24485
2.24396
2.24122
2.23506
2.22355
2.20547
2.1875
2.1747
2.16512
2.15751
2.15575
2.16123
2.16576
2.16343
2.16072
2.15709
2.14964
2.13984
2.13588
2.13544
2.13694
2.13568
2.13226
2.12642
2.11695
2.1063
2.09827
2.09174
2.08701
2.08482
2.0833
2.08185
2.07952
2.07644
2.07303
2.06952
2.06643
2.06308
2.05917
2.05558
2.05284
2.05094
2.04936
2.04585
2.03858
2.02718
2.01806
2.01421
2.01275
2.01127
2.01012
2.00958
4.39639
4.38986
4.37247
4.34063
4.29483
4.26763
4.26
4.26663
4.28838
4.28602
4.26775
4.23543
4.1801
4.13015
4.11088
4.10486
4.11249
4.12699
4.12081
4.10571
4.07923
4.04229
4.0145
4.00419
3.99752
3.98888
3.97721
3.95922
3.93248
3.90962
3.89938
3.89501
3.89852
3.89564
3.8835
3.86296
3.83059
3.791
3.76107
3.75149
3.74887
3.76249
3.77932
3.77335
3.7601
3.7318
3.68332
3.63123
3.60361
3.59568
3.59414
3.61205
3.64165
3.6438
3.63322
3.61682
3.58143
3.52217
3.47841
3.46276
3.45711
3.45427
3.46195
3.48131
3.4838
3.47627
3.46827
3.45335
3.42186
3.37238
3.33405
3.31947
3.31313
3.31057
3.31865
3.33036
3.32513
3.31525
3.3042
3.2869
3.25783
3.21961
3.19273
3.18532
3.18167
3.18182
3.18454
3.18017
3.17183
3.16202
3.14885
3.12731
3.10029
3.07866
3.06799
3.06331
3.06089
3.06082
3.05569
3.0475
3.03458
3.01216
2.98767
2.97466
2.96772
2.9625
2.96094
2.95874
2.95331
2.94772
2.94061
2.92795
2.90549
2.88028
2.86839
2.86322
2.86002
2.8578
2.85233
2.84281
2.83219
2.82328
2.81269
2.79457
2.77306
2.7624
2.75926
2.76071
2.77055
2.78016
2.77925
2.77289
2.76153
2.73827
2.70188
2.67225
2.66073
2.65569
2.65175
2.64989
2.65677
2.65994
2.65626
2.65082
2.64033
2.62057
2.59883
2.58694
2.58134
2.57794
2.57698
2.58057
2.58345
2.58011
2.57291
2.55801
2.52954
2.49913
2.48736
2.48177
2.47799
2.47694
2.48549
2.50068
2.50481
2.50387
2.49957
2.49187
2.47576
2.44597
2.41446
2.3947
2.38499
2.38097
2.37911
2.37908
2.38557
2.39361
2.39199
2.38862
2.38326
2.3706
2.34983
2.32805
2.31187
2.30389
2.30085
2.29999
2.30186
2.30716
2.31312
2.312
2.30701
2.30001
2.29115
2.27807
2.26157
2.24661
2.24056
2.23956
2.23877
2.23723
2.23406
2.22861
2.21937
2.20793
2.19669
2.19206
2.19154
2.19236
2.18965
2.1836
2.17608
2.16838
2.16215
2.15515
2.14502
2.13393
2.12933
2.12814
2.12915
2.13446
2.13637
2.13471
2.13171
2.12534
2.11207
2.0986
2.09219
2.08937
2.08726
2.08513
2.08251
2.07932
2.07557
2.07153
2.0678
2.06315
2.05794
2.05409
2.05219
2.05047
2.04907
2.04794
2.04655
2.04363
2.03605
2.02233
2.01098
2.00626
2.00397
2.00237
2.00125
4.42778
4.41098
4.38137
4.33575
4.30488
4.29549
4.29777
4.31612
4.31524
4.2979
4.26755
4.21484
4.16453
4.14412
4.13779
4.14469
4.15878
4.15272
4.1377
4.11157
4.07494
4.04734
4.03705
4.03041
4.02169
4.00955
3.99065
3.96129
3.9365
3.92673
3.92311
3.92768
3.92458
3.91317
3.89329
3.85478
3.8119
3.79091
3.783
3.77985
3.79213
3.81036
3.80507
3.7892
3.75809
3.70372
3.65135
3.63067
3.6237
3.62075
3.63324
3.66033
3.66315
3.6534
3.64004
3.61092
3.55925
3.50922
3.48502
3.47745
3.47346
3.47975
3.49764
3.49798
3.48835
3.47851
3.46726
3.44403
3.39872
3.35804
3.34344
3.33829
3.33636
3.34438
3.35645
3.35266
3.34225
3.32876
3.30532
3.26489
3.22192
3.20366
3.19747
3.19508
3.1969
3.20416
3.20413
3.19754
3.18956
3.17731
3.15407
3.11947
3.09099
3.07722
3.07211
3.06923
3.06832
3.06489
3.06049
3.05471
3.04046
3.01533
2.99794
2.99091
2.98486
2.97925
2.97297
2.96435
2.95537
2.94713
2.93251
2.90604
2.88538
2.88029
2.87901
2.88089
2.8854
2.8828
2.87563
2.86546
2.85011
2.82769
2.80029
2.77665
2.76618
2.7624
2.76036
2.76477
2.78466
2.79707
2.79459
2.78831
2.77651
2.74725
2.70095
2.67098
2.66115
2.65652
2.65296
2.65096
2.6523
2.65612
2.6548
2.6501
2.64369
2.63273
2.62155
2.61148
2.60386
2.59669
2.58893
2.58233
2.57569
2.57132
2.56425
2.54978
2.52761
2.51029
2.50322
2.49768
2.49323
2.49218
2.49657
2.49772
2.49347
2.48969
2.48595
2.47839
2.46578
2.45114
2.43766
2.42424
2.40762
2.39289
2.3863
2.38384
2.38272
2.38346
2.3814
2.37722
2.37241
2.36672
2.35978
2.35099
2.34
2.32556
2.31253
2.30624
2.30346
2.30201
2.30236
2.30154
2.29856
2.29575
2.29338
2.29201
2.28869
2.27981
2.2629
2.24532
2.23634
2.23175
2.22505
2.2132
2.20038
2.19512
2.1941
2.19794
2.20693
2.21387
2.21272
2.20669
2.19561
2.17927
2.16156
2.14433
2.13044
2.12498
2.12305
2.12245
2.1261
2.13398
2.13772
2.1366
2.13418
2.12935
2.11576
2.09955
2.09482
2.09281
2.09032
2.08699
2.08329
2.07986
2.07646
2.07237
2.06546
2.05711
2.05214
2.05015
2.04873
2.04794
2.04814
2.04912
2.04816
2.04593
2.04125
2.02835
2.00935
1.99957
1.99697
1.99551
1.99437
4.45131
4.42191
4.37651
4.34253
4.33155
4.3304
4.34434
4.34438
4.32792
4.29938
4.25003
4.20044
4.17934
4.17254
4.17834
4.19136
4.18487
4.16972
4.14363
4.10746
4.08004
4.06975
4.0625
4.05303
4.04135
4.02222
3.99226
3.96824
3.95877
3.95534
3.959
3.95407
3.94092
3.91793
3.88457
3.84617
3.8159
3.80426
3.79998
3.81205
3.83325
3.82976
3.81684
3.78952
3.73615
3.67998
3.65078
3.64114
3.63748
3.65019
3.67845
3.68364
3.6739
3.65989
3.63157
3.5822
3.53507
3.51349
3.50563
3.50036
3.50184
3.51464
3.51693
3.50859
3.49957
3.48634
3.45954
3.41893
3.38156
3.36345
3.35811
3.35627
3.36456
3.37886
3.37617
3.36654
3.35405
3.33001
3.28757
3.24102
3.21587
3.20618
3.20109
3.19918
3.20984
3.2188
3.21478
3.20792
3.20064
3.18574
3.15494
3.11891
3.09774
3.08843
3.081
3.07481
3.06885
3.06364
3.05779
3.04895
3.03577
3.02194
3.01666
3.01278
3.0078
3.0007
2.99086
2.97806
2.96243
2.94037
2.91191
2.88936
2.88179
2.879
2.88057
2.89361
2.90223
2.8992
2.89339
2.88442
2.86479
2.82667
2.78882
2.77088
2.76505
2.76168
2.76082
2.77297
2.79796
2.8077
2.80362
2.79526
2.78068
2.75098
2.7116
2.6856
2.67174
2.66317
2.65839
2.65648
2.65523
2.6511
2.64738
2.64187
2.63644
2.63458
2.63374
2.63173
2.62762
2.62007
2.60794
2.59308
2.58104
2.56829
2.5532
2.53795
2.52628
2.52094
2.51756
2.516
2.51433
2.5107
2.50537
2.49937
2.4934
2.48576
2.47598
2.46418
2.45328
2.44938
2.44727
2.44353
2.43647
2.42329
2.40361
2.38912
2.38372
2.38089
2.3767
2.36973
2.36452
2.36246
2.3623
2.36137
2.35806
2.35145
2.33775
2.31832
2.30401
2.2964
2.29045
2.28651
2.28682
2.29425
2.30307
2.30683
2.30524
2.30061
2.28975
2.26682
2.24025
2.22148
2.20659
2.1953
2.19165
2.19131
2.19471
2.20608
2.22335
2.22982
2.22764
2.22184
2.20944
2.18454
2.15289
2.13281
2.12589
2.12268
2.1203
2.11941
2.12743
2.14049
2.14151
2.13932
2.1365
2.13146
2.11887
2.10427
2.09845
2.09493
2.0913
2.08776
2.08469
2.08184
2.0781
2.07103
2.06044
2.053
2.04974
2.04737
2.04562
2.04487
2.04795
2.05135
2.0501
2.0475
2.04275
2.03056
2.00913
1.9958
1.99218
1.99058
1.98961
4.46439
4.4187
4.3805
4.36783
4.36415
4.3739
4.37382
4.3578
4.33025
4.28349
4.23582
4.2146
4.20773
4.21299
4.22485
4.21766
4.20207
4.17529
4.13915
4.11199
4.10184
4.09466
4.08482
4.07133
4.04881
4.01965
3.99742
3.98839
3.98543
3.98851
3.98235
3.9701
3.94672
3.90382
3.86271
3.84506
3.83728
3.83343
3.84442
3.86107
3.85557
3.84002
3.80902
3.76017
3.70819
3.68017
3.67115
3.66675
3.67579
3.70058
3.70395
3.6937
3.68049
3.6538
3.60449
3.55511
3.53054
3.5231
3.51933
3.52453
3.53857
3.53798
3.52849
3.51796
3.50482
3.48028
3.43547
3.39466
3.37793
3.37391
3.37297
3.38184
3.39765
3.39724
3.38847
3.37665
3.35362
3.31431
3.26779
3.23575
3.22195
3.21588
3.21219
3.21418
3.22162
3.22472
3.22314
3.21753
3.20517
3.18158
3.14999
3.12796
3.11849
3.10969
3.0993
3.08785
3.07708
3.06617
3.05256
3.03773
3.02959
3.02683
3.02747
3.02878
3.02578
3.0205
3.01282
2.99829
2.96781
2.92474
2.8961
2.88613
2.88199
2.88015
2.88815
2.90587
2.91314
2.9101
2.90452
2.89583
2.87374
2.82898
2.78911
2.77583
2.7705
2.76729
2.77069
2.79265
2.80162
2.79839
2.79492
2.78797
2.77158
2.74642
2.72523
2.71245
2.70077
2.68731
2.67413
2.66502
2.65849
2.65194
2.64415
2.63852
2.63642
2.637
2.64216
2.64538
2.64269
2.63777
2.62947
2.61253
2.58601
2.5594
2.54303
2.53376
2.5302
2.529
2.53214
2.53499
2.53161
2.52566
2.51719
2.50655
2.49429
2.47903
2.46379
2.45525
2.45236
2.45115
2.45331
2.45547
2.4526
2.44629
2.43244
2.40896
2.38928
2.37697
2.36848
2.36269
2.36023
2.36089
2.36631
2.36983
2.36946
2.36655
2.35948
2.34072
2.30995
2.2884
2.28103
2.27768
2.27692
2.28874
2.31111
2.31908
2.31823
2.31534
2.30865
2.28777
2.24433
2.2054
2.19194
2.18773
2.18565
2.18586
2.19779
2.22426
2.24143
2.2416
2.23814
2.23156
2.21516
2.18017
2.14505
2.13059
2.12587
2.12327
2.12137
2.12138
2.12807
2.13395
2.13316
2.13072
2.12774
2.12252
2.11434
2.10731
2.10278
2.09887
2.09489
2.09116
2.08747
2.08329
2.07777
2.06884
2.05745
2.05096
2.04868
2.04681
2.04477
2.04326
2.04256
2.0431
2.04323
2.04187
2.03919
2.0306
2.01103
1.99561
1.99033
1.98779
1.98638
4.46126
4.42057
4.40607
4.4003
4.4055
4.40355
4.38778
4.36095
4.31642
4.26992
4.24851
4.24166
4.24691
4.25821
4.25033
4.23461
4.20674
4.17033
4.14283
4.13239
4.12458
4.11439
4.10221
4.08088
4.04959
4.02452
4.01551
4.01266
4.0156
4.00844
3.99509
3.96962
3.93353
3.89464
3.86694
3.85558
3.85185
3.86716
3.8894
3.88506
3.86984
3.83738
3.77723
3.72304
3.7017
3.69372
3.68986
3.69861
3.72357
3.72985
3.71946
3.70359
3.67404
3.62684
3.57951
3.55181
3.54294
3.5384
3.53973
3.55352
3.5593
3.55155
3.54159
3.52949
3.50459
3.46406
3.42337
3.3974
3.38896
3.38427
3.38729
3.40597
3.41374
3.40793
3.39745
3.37825
3.3411
3.29363
3.26376
3.25084
3.24224
3.23577
3.23496
3.23805
3.23231
3.22299
3.21597
3.20828
3.19262
3.16629
3.14732
3.14158
3.13649
3.13004
3.12136
3.10893
3.09141
3.0694
3.04789
3.0358
3.03115
3.02824
3.02872
3.03659
3.03827
3.03317
3.02524
3.00676
2.9662
2.91914
2.89579
2.88924
2.88493
2.88311
2.89357
2.91633
2.92278
2.91824
2.9112
2.90058
2.87742
2.83855
2.80819
2.79648
2.78952
2.78601
2.79033
2.79746
2.79652
2.79224
2.78579
2.77387
2.75442
2.73826
2.73379
2.72995
2.7242
2.71498
2.69963
2.67979
2.6621
2.64929
2.64219
2.63862
2.6363
2.63981
2.65273
2.65625
2.65324
2.6489
2.64211
2.62429
2.58806
2.55565
2.54266
2.53897
2.53651
2.53707
2.54574
2.5478
2.54389
2.53883
2.5306
2.51358
2.48756
2.46734
2.45801
2.45442
2.4524
2.45398
2.4614
2.46513
2.46327
2.45934
2.45194
2.43238
2.39796
2.37326
2.36451
2.36075
2.35835
2.35861
2.36905
2.3793
2.37872
2.37491
2.36911
2.35457
2.31969
2.28777
2.27745
2.27433
2.27252
2.27712
2.30702
2.32851
2.3287
2.32515
2.31848
2.2975
2.24492
2.19945
2.18861
2.18571
2.18355
2.18464
2.20387
2.23984
2.25077
2.24806
2.24328
2.23598
2.21432
2.17273
2.14281
2.13545
2.132
2.12916
2.12737
2.12816
2.13354
2.13394
2.13174
2.12937
2.12531
2.1176
2.10872
2.10563
2.1039
2.10135
2.09787
2.09419
2.0901
2.08498
2.07778
2.06739
2.05653
2.05105
2.04839
2.04648
2.04544
2.0444
2.04228
2.0395
2.03712
2.03508
2.03216
2.02599
2.01302
1.99813
1.99042
1.98702
1.98498
4.45932
4.44322
4.43642
4.43854
4.43389
4.41783
4.39092
4.34752
4.30331
4.28237
4.27534
4.28032
4.29072
4.28228
4.26641
4.23794
4.20165
4.17352
4.16284
4.15442
4.14355
4.12987
4.10573
4.07692
4.05573
4.04641
4.04297
4.04233
4.03357
4.01985
3.99161
3.94457
3.90779
3.8944
3.88704
3.88403
3.89791
3.91466
3.90864
3.89317
3.86081
3.8066
3.75245
3.72246
3.71137
3.70708
3.71773
3.74504
3.75156
3.7418
3.72791
3.70033
3.6498
3.59759
3.57115
3.56186
3.5569
3.55732
3.56835
3.57323
3.56595
3.5574
3.54911
3.53007
3.49221
3.44638
3.4201
3.41209
3.40639
3.40582
3.41777
3.41939
3.41023
3.40127
3.38769
3.35921
3.3168
3.28609
3.27494
3.2701
3.26885
3.2694
3.26711
3.2592
3.24816
3.23576
3.21833
3.19545
3.17092
3.1559
3.15101
3.14926
3.14949
3.14552
3.13846
3.12774
3.10639
3.0736
3.04907
3.03989
3.03459
3.03171
3.03755
3.04943
3.04811
3.04083
3.02998
3.00691
2.96329
2.92626
2.91002
2.9013
2.89672
2.89556
2.90391
2.91136
2.91063
2.90738
2.90173
2.88976
2.8698
2.84813
2.83374
2.82596
2.82269
2.81869
2.81103
2.80304
2.7983
2.79046
2.77431
2.7531
2.74382
2.7414
2.74128
2.74234
2.73952
2.73388
2.72281
2.69721
2.66549
2.64983
2.64483
2.64154
2.63899
2.64059
2.65165
2.66208
2.66137
2.65658
2.64854
2.62926
2.58937
2.55692
2.54916
2.54609
2.54414
2.5465
2.55395
2.55424
2.55075
2.54602
2.53702
2.51416
2.48179
2.46371
2.45864
2.4557
2.45338
2.45372
2.46212
2.47015
2.47003
2.46659
2.46123
2.44639
2.40825
2.37448
2.36504
2.36148
2.35877
2.35871
2.37176
2.38425
2.38351
2.38007
2.37469
2.36287
2.33255
2.29346
2.27934
2.27573
2.27399
2.27584
2.29343
2.32591
2.33336
2.3287
2.32039
2.30105
2.25296
2.20204
2.18929
2.18672
2.18507
2.18982
2.21474
2.24362
2.2507
2.2489
2.24507
2.23511
2.20831
2.16699
2.14638
2.142
2.13921
2.13708
2.13686
2.14073
2.14043
2.13693
2.13314
2.12836
2.11848
2.11136
2.10961
2.10745
2.10547
2.10353
2.10114
2.09797
2.09377
2.0874
2.07718
2.06472
2.05692
2.05402
2.05188
2.0499
2.04754
2.04432
2.04072
2.03709
2.03299
2.02857
2.02407
2.0189
2.01216
2.00336
1.99504
1.98892
1.98561
4.47971
4.47214
4.47183
4.46419
4.44797
4.42085
4.37834
4.33564
4.31468
4.30755
4.31241
4.32237
4.31343
4.29724
4.26782
4.23123
4.20269
4.19152
4.18211
4.17086
4.15714
4.13276
4.10339
4.08117
4.07274
4.0708
4.07046
4.06034
4.04408
4.0143
3.97219
3.93338
3.90964
3.8998
3.89859
3.92191
3.94469
3.93788
3.91883
3.88177
3.82102
3.7673
3.74534
3.73693
3.73205
3.73904
3.76507
3.77438
3.76518
3.75057
3.72226
3.67613
3.62777
3.59659
3.58374
3.57683
3.57335
3.57889
3.58792
3.58303
3.57531
3.5657
3.54719
3.51648
3.47625
3.44494
3.43401
3.42888
3.4287
3.43786
3.43907
3.42965
3.41829
3.39829
3.36591
3.32705
3.30283
3.29429
3.29034
3.29042
3.29618
3.29746
3.29164
3.28281
3.26963
3.24648
3.21081
3.17781
3.16141
3.15554
3.15275
3.15623
3.15892
3.15522
3.14871
3.13963
3.1202
3.08978
3.06804
3.05522
3.04681
3.04269
3.04121
3.03886
3.03556
3.0293
3.01725
2.99327
2.96331
2.94552
2.93559
2.926
2.92099
2.92158
2.9196
2.91296
2.90742
2.90145
2.89172
2.87507
2.85958
2.85591
2.85548
2.85718
2.8559
2.8487
2.83617
2.8194
2.79917
2.77589
2.75443
2.74469
2.74147
2.74175
2.7506
2.75697
2.75391
2.748
2.73869
2.71426
2.67656
2.65759
2.65108
2.64702
2.64446
2.64675
2.65688
2.65644
2.65263
2.64934
2.64315
2.62714
2.59833
2.57578
2.56394
2.55747
2.55493
2.55697
2.56232
2.55998
2.55568
2.54999
2.53853
2.51369
2.48211
2.46755
2.4622
2.45831
2.45554
2.45587
2.46647
2.47589
2.47529
2.47179
2.46624
2.4539
2.42582
2.38964
2.37226
2.36706
2.36424
2.36304
2.36609
2.37729
2.38008
2.37695
2.37313
2.36612
2.34877
2.32052
2.29434
2.28392
2.28117
2.28098
2.28674
2.30179
2.3162
2.31703
2.3114
2.29861
2.27103
2.22891
2.20046
2.19412
2.19316
2.20068
2.2277
2.24753
2.24892
2.24627
2.24131
2.22934
2.20028
2.16651
2.15396
2.14989
2.14723
2.14621
2.14854
2.1488
2.14504
2.14095
2.13661
2.12695
2.11474
2.10824
2.10542
2.10302
2.10122
2.10142
2.10194
2.09977
2.0965
2.09054
2.07844
2.06386
2.05895
2.05719
2.05532
2.05289
2.04938
2.04475
2.03988
2.03558
2.03102
2.02466
2.01668
2.0106
2.00717
2.00454
2.00141
1.99758
1.99262
4.50645
4.50374
4.49436
4.47778
4.44982
4.40773
4.36727
4.34714
4.33968
4.34416
4.35318
4.34372
4.32733
4.29779
4.2608
4.23106
4.21925
4.20949
4.19818
4.1833
4.15907
4.13073
4.11007
4.10121
4.09835
4.0954
4.08514
4.06824
4.03528
3.98673
3.95207
3.93635
3.92818
3.92671
3.94517
3.96516
3.96026
3.94304
3.90805
3.846
3.79144
3.76361
3.7526
3.74815
3.75744
3.78343
3.79114
3.78268
3.76943
3.74417
3.69761
3.64739
3.62104
3.61089
3.60466
3.60279
3.60748
3.6067
3.5972
3.58604
3.57403
3.55929
3.53194
3.4924
3.46775
3.45929
3.45462
3.45555
3.4628
3.46106
3.45186
3.43998
3.4185
3.38011
3.33735
3.31331
3.30383
3.30058
3.30252
3.31234
3.31797
3.31516
3.30869
3.3004
3.28408
3.25066
3.20813
3.1784
3.16661
3.16055
3.15624
3.15572
3.16205
3.16272
3.15631
3.14455
3.12656
3.10845
3.09741
3.0873
3.07566
3.0623
3.04954
3.04059
3.03288
3.02059
2.99901
2.97355
2.96213
2.95853
2.95702
2.95699
2.95314
2.94471
2.93251
2.92042
2.90775
2.89192
2.87449
2.8657
2.86329
2.86422
2.87389
2.88292
2.88072
2.87351
2.85937
2.82958
2.79008
2.76307
2.74958
2.74408
2.74061
2.74257
2.75784
2.76382
2.76059
2.75579
2.74726
2.72842
2.70022
2.67739
2.66501
2.65899
2.65629
2.65596
2.65451
2.65121
2.64639
2.6398
2.62941
2.61575
2.60272
2.59535
2.589
2.58088
2.57139
2.56417
2.55796
2.55206
2.54725
2.54142
2.53094
2.51281
2.49387
2.48125
2.47263
2.4673
2.46407
2.46247
2.46223
2.46271
2.46201
2.46038
2.45678