/*--------------------------------*- C++ -*----------------------------------*\
  =========                 |
  \\      /  F ield         | OpenFOAM: The Open Source CFD Toolbox
   \\    /   O peration     | Website:  https://openfoam.org
    \\  /    A nd           | Version:  7
     \\/     M anipulation  |
\*---------------------------------------------------------------------------*/
FoamFile
{
    version     2.0;
    format      ascii;
    class       volScalarField;
    location    "1.6";
    object      rho;
}
// * * * * * * * * * * * * * * * * * * * * * * * * * * * * * * * * * * * * * //

dimensions      [1 -3 0 0 0 0 0];

internalField   nonuniform List<scalar> 
4040
(
1.40001
1.40001
1.40001
1.40001
1.40001
1.40001
1.40001
1.40001
1.40001
1.40001
1.40001
1.40001
1.40001
1.40001
2.78015
5.28262
5.47761
5.51907
5.59024
5.66877
5.74983
5.81335
5.8483
5.87044
1.40001
1.40001
1.40001
1.40001
1.40001
1.40001
1.40001
1.40001
1.40001
1.40001
1.40001
1.40001
1.40001
1.40001
2.70866
5.22684
5.46606
5.50776
5.5769
5.65372
5.73382
5.79335
5.81594
5.82066
1.40001
1.40001
1.40001
1.40001
1.40001
1.40001
1.40001
1.40001
1.40001
1.40001
1.40001
1.40001
1.40001
1.40001
2.55456
5.15032
5.45227
5.48843
5.55181
5.6216
5.69155
5.73721
5.74806
5.75615
1.40001
1.40001
1.40001
1.40001
1.40001
1.40001
1.40001
1.40001
1.40001
1.40001
1.40001
1.40001
1.40001
1.40001
2.33154
5.03416
5.45111
5.47211
5.52534
5.58927
5.65444
5.70012
5.68881
5.75512
1.40001
1.40001
1.40001
1.40001
1.40001
1.40001
1.40001
1.40001
1.40001
1.40001
1.40001
1.40001
1.40001
1.40001
2.04259
4.85489
5.46928
5.46884
5.50417
5.55119
5.59377
5.61252
5.50474
5.35392
1.40001
1.40001
1.40001
1.40001
1.40001
1.40001
1.40001
1.40001
1.40001
1.40001
1.40001
1.40001
1.40001
1.40001
1.72772
4.61716
5.48928
5.45361
5.47296
5.50076
5.52011
5.51353
5.41885
5.32692
1.40001
1.40001
1.40001
1.40001
1.40001
1.40001
1.40001
1.40001
1.40001
1.40001
1.40001
1.40001
1.40001
1.40001
1.43773
4.2067
5.48639
5.43932
5.44329
5.43785
5.43204
5.41082
5.34446
5.239
1.40001
1.40001
1.40001
1.40001
1.40001
1.40001
1.40001
1.40001
1.40001
1.40001
1.40001
1.40001
1.40001
1.40001
1.4003
3.61481
5.29594
5.33223
5.3415
5.33916
5.32576
5.29572
5.24625
5.17294
1.40001
1.40001
1.40001
1.40001
1.40001
1.40001
1.40001
1.40001
1.40001
1.40001
1.40001
1.40001
1.40001
1.40001
1.4
2.94437
5.11557
5.30417
5.28897
5.27192
5.2438
5.19838
5.13797
5.02821
1.40001
1.40001
1.40001
1.40001
1.40001
1.40001
1.40001
1.40001
1.40001
1.40001
1.40001
1.40001
1.40001
1.40001
1.4
2.21474
4.88993
5.30169
5.25153
5.2164
5.16784
5.09461
4.99258
4.80794
1.40001
1.40001
1.40001
1.40001
1.40001
1.40001
1.40001
1.40001
1.40001
1.40001
1.40001
1.40001
1.40001
1.40001
1.4
1.55165
4.41038
5.3333
5.23287
5.15862
5.08311
4.98479
4.8515
4.63182
1.40001
1.40001
1.40001
1.40001
1.40001
1.40001
1.40001
1.40001
1.40001
1.40001
1.40001
1.40001
1.40001
1.40001
1.40001
1.40316
3.5857
5.13931
5.10981
5.0593
4.9901
4.88448
4.73086
4.50848
1.40001
1.40001
1.40001
1.40001
1.40001
1.40001
1.40001
1.40001
1.40001
1.40001
1.40001
1.40001
1.40001
1.40001
1.40001
1.39997
2.51162
4.9074
5.0844
5.04308
4.96251
4.83715
4.65725
4.42073
1.40001
1.40001
1.40001
1.40001
1.40001
1.40001
1.40001
1.40001
1.40001
1.40001
1.40001
1.40001
1.40001
1.40001
1.40001
1.4
1.61449
4.36339
5.10314
5.02222
4.92683
4.78317
4.59671
4.34477
1.40001
1.40001
1.40001
1.40001
1.40001
1.40001
1.40001
1.40001
1.40001
1.40001
1.40001
1.40001
1.40001
1.40001
1.40001
1.4
1.40588
3.28667
4.9567
4.94676
4.87075
4.73454
4.54478
4.302
1.40001
1.40001
1.40001
1.40001
1.40001
1.40001
1.40001
1.40001
1.40001
1.40001
1.40001
1.40001
1.40001
1.40001
1.40001
1.4
1.39997
1.99229
4.72482
4.98533
4.85847
4.70841
4.5105
4.27509
1.40001
1.40001
1.40001
1.40001
1.40001
1.40001
1.40001
1.40001
1.40001
1.40001
1.40001
1.40001
1.40001
1.40001
1.40001
1.40001
1.4
1.45166
3.7612
4.90001
4.81589
4.67357
4.48881
4.26346
1.40001
1.40001
1.40001
1.40001
1.40001
1.40001
1.40001
1.40001
1.40001
1.40001
1.40001
1.40001
1.40001
1.40001
1.40001
1.40001
1.4
1.40019
2.32344
4.68267
4.8269
4.67371
4.49105
4.27267
1.40001
1.40001
1.40001
1.40001
1.40001
1.40001
1.40001
1.40001
1.40001
1.40001
1.40001
1.40001
1.40001
1.40001
1.40001
1.40001
1.4
1.4
1.52338
3.82411
4.79177
4.65378
4.48554
4.28708
1.40001
1.40001
1.40001
1.40001
1.40001
1.40001
1.40001
1.40001
1.40001
1.40001
1.40001
1.40001
1.40001
1.40001
1.40001
1.40001
1.40001
1.4
1.40157
2.30857
4.52456
4.67695
4.51214
4.32292
1.40001
1.40001
1.40001
1.40001
1.40001
1.40001
1.40001
1.40001
1.40001
1.40001
1.40001
1.40001
1.40001
1.40001
1.40001
1.40001
1.40001
1.40001
1.40001
1.51595
3.60887
4.66339
4.52614
4.34045
1.40001
1.40001
1.40001
1.40001
1.40001
1.40001
1.40001
1.40001
1.40001
1.40001
1.40001
1.40001
1.40001
1.40001
1.40001
1.40001
1.40001
1.40001
1.40001
1.40157
2.13573
4.25823
4.54375
4.36327
1.40001
1.40001
1.40001
1.40001
1.40001
1.40001
1.40001
1.40001
1.40001
1.40001
1.40001
1.40001
1.40001
1.40001
1.40001
1.40001
1.40001
1.40001
1.40001
1.40001
1.47103
3.07282
4.47861
4.41202
1.40001
1.40001
1.40001
1.40001
1.40001
1.40001
1.40001
1.40001
1.40001
1.40001
1.40001
1.40001
1.40001
1.40001
1.40001
1.40001
1.40001
1.40001
1.40001
1.40001
1.40094
1.80601
3.8183
4.48636
1.40001
1.40001
1.40001
1.40001
1.40001
1.40001
1.40001
1.40001
1.40001
1.40001
1.40001
1.40001
1.40001
1.40001
1.40001
1.40001
1.40001
1.40001
1.40001
1.40001
1.40001
1.42097
2.3999
4.17358
1.40001
1.40001
1.40001
1.40001
1.40001
1.40001
1.40001
1.40001
1.40001
1.40001
1.40001
1.40001
1.40001
1.40001
1.40001
1.40001
1.40001
1.40001
1.40001
1.40001
1.40001
1.40021
1.53082
3.06581
1.40001
1.40001
1.40001
1.40001
1.40001
1.40001
1.40001
1.40001
1.40001
1.40001
1.40001
1.40001
1.40001
1.40001
1.40001
1.40001
1.40001
1.40001
1.40001
1.40001
1.40001
1.40001
1.40298
1.8008
1.40001
1.40001
1.40001
1.40001
1.40001
1.40001
1.40001
1.40001
1.40001
1.40001
1.40001
1.40001
1.40001
1.40001
1.40001
1.40001
1.40001
1.40001
1.40001
1.40001
1.40001
1.40001
1.40002
1.42137
1.40001
1.40001
1.40001
1.40001
1.40001
1.40001
1.40001
1.40001
1.40001
1.40001
1.40001
1.40001
1.40001
1.40001
1.40001
1.40001
1.40001
1.40001
1.40001
1.40001
1.40001
1.40001
1.40001
1.40024
1.40001
1.40001
1.40001
1.40001
1.40001
1.40001
1.40001
1.40001
1.40001
1.40001
1.40001
1.40001
1.40001
1.40001
1.40001
1.40001
1.40001
1.40001
1.40001
1.40001
1.40001
1.40001
1.40001
1.40001
1.40001
1.40001
1.40001
1.40001
1.40001
1.40001
1.40001
1.40001
1.40001
1.40001
1.40001
1.40001
1.40001
1.40001
1.40001
1.40001
1.40001
1.40001
1.40001
1.40001
1.40001
1.40001
1.40001
1.40001
1.40001
1.40001
1.40001
1.40001
1.40001
1.40001
1.40001
1.40001
1.40001
1.40001
1.40001
1.40001
1.40001
1.40001
1.40001
1.40001
1.40001
1.40001
1.40001
1.40001
1.40001
1.40001
1.40001
1.40001
1.40001
1.40001
1.40001
1.40001
1.40001
1.40001
1.40001
1.40001
1.40001
1.40001
1.40001
1.40001
1.40001
1.40001
1.40001
1.40001
1.40001
1.40001
1.40001
1.40001
1.40001
1.40001
1.40001
1.40001
1.40001
1.40001
1.40001
1.40001
1.40001
1.40001
1.40001
1.40001
1.40001
1.40001
1.40001
1.40001
1.40001
1.40001
1.40001
1.40001
1.40001
1.40001
1.40001
1.40001
1.40001
1.40001
1.40001
1.40001
1.40001
1.40001
1.40001
1.40001
1.40001
1.40001
1.40001
1.40001
1.40001
1.40001
1.40001
1.40001
1.40001
1.40001
1.40001
1.40001
1.40001
1.40001
1.40001
1.40001
1.40001
1.40001
1.40001
1.40001
1.40001
1.40001
1.40001
1.40001
1.40001
1.40001
1.40001
1.40001
1.40001
1.40001
1.40001
1.40001
1.40001
1.40001
1.40001
1.40001
1.40001
1.40001
1.40001
1.40001
1.40001
1.40001
1.40001
1.40001
1.40001
1.40001
1.40001
1.40001
1.40001
1.40001
1.40001
1.40001
1.40001
1.40001
1.40001
1.40001
1.40001
1.40001
1.40001
1.40001
1.40001
1.40001
1.40001
1.40001
1.40001
1.40001
1.40001
1.40001
1.40001
1.40001
1.40001
1.40001
1.40001
1.40001
1.40001
1.40001
1.40001
1.40001
1.40001
1.40001
1.40001
1.40001
1.40001
1.40001
1.40001
1.40001
1.40001
1.40001
1.40001
1.40001
1.40001
1.40001
1.40001
1.40001
1.40001
1.40001
1.40001
1.40001
1.40001
1.40001
1.40001
1.40001
1.40001
1.40001
1.40001
1.40001
1.40001
1.40001
1.40001
1.40001
1.40001
1.40001
1.40001
1.40001
1.40001
1.40001
1.40001
1.40001
1.40001
1.40001
1.40001
1.40001
1.40001
1.40001
1.40001
1.40001
1.40001
1.40001
1.40001
1.40001
1.40001
1.40001
1.40001
1.40001
1.40001
1.40001
1.40001
1.40001
1.40001
1.40001
4.83946
5.02616
5.17916
5.29163
5.11571
5.12561
5.07824
5.0971
4.70307
3.82049
4.45102
3.59337
4.2767
3.53055
4.12416
3.53468
4.03801
3.57016
4.00016
3.61405
4.00239
3.66873
4.00526
3.70948
4.01256
3.74776
4.03741
3.79491
4.07089
3.84329
4.11501
3.89683
4.14264
3.93941
4.18685
3.99695
4.24032
4.05803
4.31299
4.12971
4.36221
4.18798
4.2709
4.24732
3.56319
4.25869
2.17301
3.84602
1.47674
2.55809
1.40145
1.58051
1.40001
1.40554
1.40001
1.40004
1.40001
1.40001
1.40001
1.40001
1.40001
1.40001
1.40001
1.40001
1.40001
1.40001
1.40001
1.40001
1.40001
1.40001
1.40001
1.40001
1.35544
0.566571
0.368523
0.321697
0.319758
0.348889
0.451838
0.576265
0.686713
0.753044
0.808342
0.857229
0.891172
0.931795
0.979229
0.983373
0.975967
0.978242
0.985623
0.992051
1.00813
1.02236
1.02345
1.01879
1.01362
1.00996
1.00381
0.999335
0.998456
0.999735
1.0104
1.0299
1.03836
1.03929
1.03766
1.02918
1.01884
1.01483
1.01321
1.01283
1.01719
1.01609
1.01235
1.0079
1.00077
0.988458
0.981969
0.988283
1.03658
1.20594
1.52765
1.95355
2.34166
2.61184
2.80454
2.83744
2.81765
2.76249
2.69196
2.60862
2.55411
2.50891
2.4679
2.42557
2.37934
2.33345
2.29852
2.27307
2.25253
2.23607
2.21649
2.19444
2.16115
2.11144
2.05839
2.01586
1.99124
1.97424
1.96197
1.95557
1.94479
1.92752
1.90793
1.87647
1.814
1.73953
1.69488
1.67375
1.65859
1.64622
1.63982
1.6386
1.64143
1.62008
2.03373
1.27711
0.930005
0.797785
0.679463
0.631191
0.647437
0.641338
0.645254
0.672291
0.710791
0.762082
0.824404
0.886182
0.945794
0.966217
0.967375
0.974817
0.989365
1.00266
1.02101
1.03126
1.03188
1.03295
1.03438
1.03424
1.03207
1.02766
1.02598
1.02515
1.02896
1.03961
1.04484
1.0459
1.04505
1.04035
1.03278
1.02717
1.02505
1.0239
1.02514
1.02329
1.01965
1.01439
1.00824
1.00302
1.01692
1.09996
1.29782
1.52608
1.69201
1.80699
2.00638
2.22935
2.3669
2.46508
2.57171
2.63832
2.6598
2.63978
2.61056
2.57617
2.53383
2.49065
2.44511
2.39756
2.35483
2.31567
2.28304
2.25512
2.2312
2.20917
2.17994
2.13737
2.09088
2.04644
2.01078
1.98921
1.97301
1.95933
1.94897
1.93593
1.91611
1.88641
1.84253
1.79093
1.73993
1.69934
1.67429
1.65934
1.64894
1.64234
1.63781
1.61481
2.50483
1.87935
1.44742
1.17469
0.99347
0.869149
0.814891
0.774888
0.716182
0.72757
0.758062
0.789228
0.836616
0.888078
0.936217
0.970126
0.992748
1.01656
1.05018
1.06812
1.07908
1.08991
1.09537
1.09481
1.09061
1.08406
1.07593
1.0697
1.06846
1.06823
1.06969
1.07339
1.07612
1.07653
1.07604
1.07274
1.06882
1.06673
1.06535
1.06559
1.06352
1.05694
1.04904
1.03883
1.04155
1.07557
1.20588
1.45704
1.68024
1.82044
1.87172
1.85714
1.85038
1.88232
1.97594
2.15566
2.36139
2.54313
2.66473
2.70506
2.71953
2.70326
2.66311
2.61578
2.56231
2.50971
2.45569
2.40089
2.34777
2.30056
2.26238
2.23625
2.20907
2.18338
2.16277
2.13529
2.09613
2.05274
2.01928
1.99628
1.97704
1.95441
1.92432
1.89234
1.86726
1.84325
1.81535
1.77945
1.73733
1.70211
1.68302
1.66788
1.65434
1.62534
2.83512
2.27835
1.88315
1.58727
1.35467
1.17566
1.0701
0.998791
0.913438
0.874295
0.851706
0.819909
0.818189
0.835848
0.864467
0.905352
0.949702
0.989618
1.03272
1.06415
1.07874
1.09569
1.12283
1.13443
1.13446
1.13455
1.13062
1.12537
1.12246
1.11984
1.1172
1.11248
1.10999
1.10921
1.10804
1.1066
1.10581
1.10377
1.10374
1.10637
1.10466
1.09995
1.09226
1.10187
1.17392
1.36237
1.6182
1.84676
1.93609
1.93729
1.91215
1.88467
1.86873
1.86829
1.85727
1.88336
1.97325
2.14318
2.35471
2.52992
2.6446
2.6747
2.67033
2.65147
2.64083
2.63027
2.59654
2.544
2.4708
2.39885
2.34546
2.30653
2.27254
2.24667
2.2289
2.20789
2.17442
2.12963
2.08359
2.04529
2.0191
1.99421
1.96293
1.93579
1.92029
1.90422
1.88426
1.85998
1.8261
1.77794
1.73574
1.70989
1.68972
1.65371
3.06459
2.59831
2.21846
1.91934
1.66005
1.46214
1.33339
1.21958
1.10834
1.02161
0.963777
0.90858
0.852281
0.847527
0.853445
0.86544
0.890594
0.928596
0.971119
1.01245
1.04211
1.06377
1.09875
1.11902
1.12533
1.13936
1.14837
1.15924
1.16317
1.16227
1.15938
1.15291
1.14454
1.13785
1.1329
1.1316
1.13131
1.12959
1.12944
1.13338
1.13522
1.13812
1.16519
1.28356
1.54042
1.80925
1.96705
1.99911
1.98705
1.97297
1.95027
1.9276
1.90358
1.87625
1.84817
1.82826
1.81968
1.82897
1.887
2.01711
2.1991
2.37652
2.51419
2.58247
2.62084
2.62497
2.61962
2.59426
2.54467
2.47993
2.42596
2.37892
2.33843
2.30321
2.27756
2.25156
2.21904
2.18841
2.15468
2.10713
2.05049
2.0122
1.9919
1.97855
1.97185
1.9638
1.94725
1.92961
1.90844
1.86876
1.8031
1.74741
1.71759
1.6862
3.1993
2.80962
2.47017
2.18059
1.92699
1.71821
1.55464
1.41882
1.29972
1.21233
1.13679
1.0676
0.988041
0.954369
0.929601
0.904792
0.905546
0.910075
0.912366
0.920951
0.945334
0.974954
1.01733
1.05992
1.08784
1.1151
1.13554
1.15086
1.15925
1.15928
1.15881
1.15964
1.15833
1.157
1.1582
1.15863
1.15784
1.1537
1.14837
1.14687
1.1581
1.21093
1.39567
1.71476
1.92655
2.01678
2.05846
2.05579
2.03526
2.00675
1.96761
1.92363
1.88854
1.86258
1.84005
1.82532
1.81553
1.80795
1.79113
1.77595
1.79861
1.87654
2.02314
2.19764
2.35163
2.46755
2.54077
2.55562
2.5371
2.49733
2.45876
2.41754
2.37827
2.34968
2.31934
2.29036
2.26383
2.23748
2.20605
2.16061
2.08996
2.03626
2.01681
2.00344
1.9958
1.99766
1.99054
1.97614
1.95716
1.92139
1.85513
1.78403
1.74744
1.72211
3.30725
2.96549
2.67017
2.39259
2.13173
1.94026
1.76808
1.61603
1.4718
1.37854
1.28866
1.20591
1.13335
1.08006
1.03023
0.981195
0.941523
0.928709
0.916109
0.910411
0.914245
0.922744
0.939448
0.971474
1.00898
1.04888
1.08926
1.11451
1.13702
1.1444
1.14857
1.15374
1.15458
1.15531
1.16258
1.1714
1.17151
1.16914
1.16353
1.17479
1.28507
1.52648
1.82023
2.00661
2.08162
2.08872
2.07951
2.05479
2.02399
1.98932
1.95377
1.91275
1.87519
1.85347
1.84521
1.84163
1.82804
1.80899
1.78537
1.75935
1.73042
1.71402
1.71857
1.76564
1.86508
2.01158
2.16295
2.29631
2.38873
2.43929
2.43211
2.40783
2.37706
2.34177
2.31745
2.30482
2.2926
2.26976
2.23978
2.19726
2.13858
2.07708
2.04286
2.02791
2.01709
2.00723
1.99435
1.97886
1.95875
1.9293
1.88247
1.82842
1.78925
1.75873
3.39213
3.09213
2.82192
2.55441
2.31575
2.12645
1.95634
1.781
1.64089
1.53937
1.4437
1.3446
1.26356
1.2102
1.15013
1.09683
1.04651
1.01608
0.981644
0.945009
0.937522
0.937905
0.928891
0.928468
0.938798
0.96643
1.00792
1.03975
1.06927
1.09745
1.11411
1.12715
1.13353
1.14231
1.15519
1.16843
1.17297
1.17696
1.20508
1.36084
1.69253
1.93129
2.0689
2.11107
2.10438
2.07925
2.0553
2.0294
2.00213
1.97414
1.94513
1.91759
1.88739
1.85619
1.83459
1.8201
1.80235
1.78568
1.76873
1.75254
1.7402
1.7243
1.70388
1.67793
1.6611
1.67458
1.72307
1.81976
1.95891
2.11912
2.23457
2.29532
2.33346
2.32586
2.29793
2.28102
2.27575
2.27713
2.26116
2.2295
2.19045
2.13996
2.09132
2.05413
2.03381
2.01528
1.99737
1.97726
1.95199
1.9218
1.89457
1.86892
1.83935
1.7913
3.46367
3.19537
2.95023
2.70339
2.47442
2.28223
2.11233
1.94527
1.80579
1.68528
1.57797
1.47426
1.3986
1.33607
1.2704
1.19797
1.1417
1.10018
1.05679
1.01082
0.975987
0.966974
0.950296
0.937316
0.94183
0.948846
0.956277
0.963762
0.975808
1.00378
1.03567
1.0662
1.09083
1.11317
1.13413
1.15227
1.17728
1.25458
1.45535
1.8272
2.06825
2.11082
2.10745
2.09706
2.07656
2.05687
2.02937
2.00831
1.99413
1.97897
1.95747
1.93304
1.90552
1.86651
1.82585
1.79933
1.78219
1.76837
1.75839
1.75653
1.75507
1.74145
1.71722
1.67782
1.64576
1.6305
1.61904
1.61249
1.63095
1.68729
1.79699
1.9217
2.0431
2.1271
2.19198
2.21815
2.23205
2.237
2.22863
2.22347
2.20999
2.18783
2.15251
2.10947
2.06629
2.03244
2.0042
1.97867
1.95104
1.9233
1.90505
1.88966
1.87341
1.82904
3.53165
3.28694
3.0579
2.82098
2.61091
2.43166
2.25261
2.07624
1.9486
1.82704
1.71385
1.59757
1.51949
1.44735
1.37844
1.3109
1.25353
1.20359
1.15168
1.09968
1.06023
1.04015
1.01596
0.985613
0.973505
0.969711
0.958568
0.943191
0.942261
0.946991
0.96015
0.983087
1.01737
1.05899
1.09354
1.13217
1.26807
1.58097
1.88773
2.14487
2.16254
2.15877
2.14835
2.11435
2.06414
2.02637
2.00125
1.9887
1.98145
1.97553
1.96253
1.93964
1.91401
1.87846
1.82659
1.78909
1.77261
1.76286
1.75988
1.76201
1.75218
1.74007
1.72073
1.68159
1.64419
1.62846
1.61458
1.60196
1.58264
1.562
1.56187
1.58441
1.63845
1.72547
1.82589
1.93147
2.0245
2.09426
2.12828
2.15498
2.17296
2.16585
2.15963
2.14355
2.11278
2.07431
2.03616
1.99831
1.97441
1.95859
1.93933
1.91758
1.89889
1.85834
3.59797
3.36961
3.15151
2.92999
2.73401
2.55474
2.37215
2.20955
2.08139
1.95489
1.8265
1.71568
1.64284
1.56405
1.48311
1.40276
1.35597
1.30306
1.24991
1.19374
1.15244
1.11895
1.08129
1.03994
1.0127
0.996372
0.973505
0.951734
0.947195
0.949529
0.949057
0.949941
0.959827
0.987004
1.01853
1.1753
1.58634
1.89058
2.0636
2.14502
2.15966
2.157
2.1408
2.10554
2.04816
2.00371
1.9839
1.97299
1.97022
1.97787
1.96648
1.94265
1.91495
1.88256
1.83736
1.79129
1.77192
1.761
1.75688
1.74794
1.73241
1.7206
1.70944
1.68997
1.66413
1.64282
1.62356
1.60379
1.58216
1.5583
1.53317
1.52038
1.51706
1.52213
1.53574
1.57023
1.63676
1.72937
1.83874
1.92598
1.99195
2.03808
2.08446
2.11032
2.0995
2.07902
2.05402
2.03126
2.02391
2.01342
1.99362
1.96615
1.93982
1.89024
3.66711
3.45026
3.23837
3.02631
2.84149
2.66831
2.48397
2.32618
2.19717
2.07417
1.94162
1.83614
1.75291
1.66827
1.58349
1.50753
1.45514
1.39574
1.3365
1.27749
1.24189
1.205
1.16416
1.1196
1.08361
1.05762
1.02833
0.994799
0.97701
0.974917
0.963743
0.954193
0.956372
0.973892
1.12714
1.51804
1.82368
1.92847
1.99856
2.04078
2.07927
2.08577
2.08385
2.07133
2.04209
1.99793
1.97751
1.96719
1.97098
1.97562
1.96032
1.93845
1.90919
1.87823
1.84893
1.8146
1.78346
1.7643
1.74671
1.72789
1.71651
1.70626
1.69747
1.68857
1.67791
1.65988
1.63116
1.60523
1.5856
1.56496
1.53744
1.51206
1.49706
1.4883
1.48639
1.48529
1.48044
1.48072
1.50608
1.55642
1.63155
1.72541
1.81137
1.89011
1.9456
1.9903
2.0061
2.01528
2.01
2.0098
2.0105
1.9987
1.98067
1.93183
3.72962
3.52495
3.31934
3.1203
2.94281
2.77006
2.58934
2.44123
2.31376
2.18382
2.04249
1.94839
1.8636
1.77683
1.67719
1.60517
1.54856
1.48477
1.42474
1.36567
1.32733
1.28305
1.23733
1.19062
1.15773
1.12543
1.09221
1.05051
1.02011
1.00177
0.984475
0.97251
1.00862
1.18431
1.53443
1.8785
1.88205
1.8908
1.88863
1.89726
1.91688
1.9477
1.96644
1.97492
1.98417
1.9728
1.9479
1.94634
1.95739
1.94758
1.9337
1.91767
1.89415
1.87474
1.86111
1.8403
1.81007
1.77743
1.74375
1.71396
1.69623
1.68794
1.68088
1.67501
1.67055
1.66197
1.6417
1.60927
1.58647
1.56947
1.54853
1.52018
1.49771
1.48292
1.4704
1.46343
1.46152
1.45764
1.44449
1.4212
1.40758
1.42262
1.459
1.51753
1.59254
1.67582
1.7664
1.84855
1.88575
1.91974
1.96273
1.97522
1.96817
1.93376
3.80017
3.60564
3.4059
3.21412
3.04223
2.87157
2.69607
2.54862
2.41903
2.28687
2.15377
2.05729
1.96406
1.87072
1.77107
1.70573
1.64181
1.57512
1.50181
1.4488
1.41075
1.36355
1.31635
1.26454
1.22945
1.19263
1.15713
1.12022
1.08405
1.05819
1.05158
1.1046
1.34707
1.67384
1.9511
1.97988
1.93071
1.8805
1.85776
1.84794
1.84275
1.83868
1.83641
1.83432
1.83869
1.85195
1.86385
1.87974
1.88886
1.88291
1.87984
1.87251
1.86392
1.86235
1.86549
1.85139
1.8191
1.78452
1.74787
1.71143
1.68444
1.66886
1.66277
1.66347
1.66336
1.65821
1.64538
1.61257
1.57898
1.56354
1.5498
1.53159
1.51361
1.49628
1.47511
1.45656
1.44615
1.43829
1.43034
1.41732
1.39975
1.38203
1.36692
1.35082
1.35133
1.3697
1.40894
1.46959
1.55323
1.63529
1.71531
1.78742
1.85879
1.87072
3.86914
3.67925
3.48819
3.30574
3.13615
2.9643
2.79459
2.65392
2.52406
2.38117
2.25375
2.15986
2.06439
1.96366
1.86262
1.79696
1.7266
1.65927
1.58681
1.53631
1.48927
1.43617
1.38337
1.33668
1.3037
1.26398
1.22565
1.18061
1.14055
1.1319
1.19811
1.50619
1.88147
2.08051
2.09749
2.03732
1.96903
1.90925
1.86541
1.84745
1.83931
1.82624
1.81698
1.81455
1.8008
1.7736
1.75498
1.74856
1.75048
1.76095
1.77446
1.78811
1.79567
1.80948
1.82735
1.82507
1.80718
1.78188
1.75249
1.72168
1.68953
1.66414
1.65023
1.64429
1.6529
1.65481
1.64139
1.61136
1.5698
1.55326
1.54461
1.53591
1.52623
1.51256
1.48882
1.45662
1.43264
1.41833
1.40896
1.40316
1.39729
1.38631
1.37077
1.35244
1.32876
1.3072
1.28843
1.27988
1.2877
1.31005
1.35712
1.42246
1.50893
1.63611
3.94372
3.75598
3.57134
3.39318
3.22297
3.05654
2.89646
2.75326
2.61859
2.4786
2.35894
2.26021
2.16226
2.04797
1.95652
1.89083
1.81957
1.7441
1.66585
1.62193
1.56919
1.51439
1.45496
1.40893
1.37205
1.33086
1.28873
1.24798
1.23688
1.33267
1.67375
2.09749
2.24802
2.23753
2.18416
2.10615
2.03734
1.9847
1.9372
1.90592
1.88367
1.85762
1.82986
1.80963
1.79239
1.77577
1.75605
1.71145
1.66903
1.6562
1.65526
1.66398
1.67833
1.69444
1.72448
1.74899
1.7462
1.73156
1.71696
1.69943
1.67822
1.66554
1.64898
1.63593
1.62818
1.62392
1.61798
1.60351
1.57387
1.55367
1.5407
1.52878
1.52257
1.51133
1.49163
1.45888
1.42751
1.41076
1.40018
1.39295
1.38748
1.38106
1.3713
1.35574
1.3341
1.31063
1.28774
1.26735
1.24638
1.23305
1.23146
1.23669
1.25489
1.32063
4.0032
3.81964
3.64299
3.47494
3.30492
3.13602
2.99022
2.85292
2.71389
2.57252
2.45796
2.35556
2.25288
2.141
2.05192
1.97931
1.90557
1.8232
1.75096
1.70261
1.64484
1.58637
1.52266
1.48008
1.44124
1.39907
1.34667
1.36032
1.51146
1.89175
2.29565
2.42971
2.39516
2.32077
2.24125
2.18231
2.12389
2.06862
2.01774
1.97018
1.93023
1.89807
1.86698
1.83578
1.80866
1.78749
1.76622
1.73504
1.68156
1.64685
1.62679
1.6127
1.60495
1.60505
1.61409
1.61598
1.61462
1.61823
1.61154
1.61163
1.62615
1.63799
1.63215
1.60398
1.5884
1.58295
1.58308
1.58367
1.57294
1.56156
1.54438
1.51923
1.50559
1.5012
1.48936
1.46192
1.43197
1.41306
1.39944
1.38803
1.37723
1.36543
1.35306
1.34053
1.32997
1.31533
1.29779
1.2799
1.25586
1.23306
1.21783
1.21173
1.20835
1.20342
4.08583
3.90049
3.72882
3.56456
3.39612
3.23223
3.09178
2.95425
2.81166
2.67379
2.56561
2.45423
2.34396
2.22989
2.15164
2.07289
1.99219
1.90363
1.83511
1.78325
1.72152
1.65968
1.5953
1.54703
1.5088
1.46713
1.50355
1.75046
2.17605
2.52096
2.59531
2.53846
2.45667
2.38395
2.32559
2.28566
2.23701
2.16799
2.09866
2.04197
1.99548
1.95723
1.92411
1.89128
1.86056
1.83235
1.80277
1.77048
1.72599
1.66848
1.62086
1.59846
1.5877
1.57893
1.57035
1.56021
1.55217
1.5421
1.52317
1.5137
1.5178
1.53323
1.5492
1.54939
1.53022
1.52051
1.52194
1.53079
1.54489
1.55239
1.54421
1.52231
1.49257
1.47782
1.46986
1.45489
1.43929
1.42618
1.40882
1.38918
1.37344
1.36062
1.3469
1.3288
1.31075
1.30266
1.2976
1.28715
1.26872
1.24774
1.22034
1.20458
1.19899
1.18871
4.18557
3.99923
3.82068
3.6551
3.48993
3.33344
3.19024
3.05301
2.90287
2.77321
2.66398
2.55434
2.43069
2.31922
2.2443
2.16263
2.0781
1.98165
1.92242
1.86313
1.79806
1.72918
1.65992
1.61889
1.58511
1.65472
2.01975
2.53033
2.78958
2.78678
2.70891
2.60097
2.51301
2.46442
2.42899
2.39479
2.34292
2.26931
2.1842
2.11122
2.06267
2.02461
1.98657
1.94605
1.90771
1.87636
1.84682
1.81565
1.78041
1.73401
1.66924
1.61322
1.5893
1.57458
1.55903
1.54375
1.53247
1.5181
1.50223
1.48728
1.46644
1.44859
1.44297
1.44539
1.44449
1.43777
1.44135
1.45089
1.46634
1.49396
1.51116
1.50305
1.47884
1.45231
1.44191
1.44052
1.44042
1.43555
1.41953
1.39399
1.3766
1.36204
1.34531
1.32672
1.31045
1.29682
1.28178
1.26968
1.26566
1.25732
1.23502
1.20562
1.19557
1.18383
4.20504
4.09701
3.9149
3.74548
3.58488
3.42575
3.28209
3.14972
3.00775
2.87196
2.75398
2.64407
2.52431
2.41918
2.33694
2.25188
2.15893
2.06476
2.00724
1.94332
1.87853
1.79664
1.73456
1.71254
1.83221
2.27298
2.84955
3.07027
3.00561
2.87043
2.76594
2.67047
2.6021
2.56298
2.5258
2.47974
2.41995
2.34746
2.26888
2.19425
2.13408
2.08961
2.05126
2.01394
1.97519
1.93171
1.88681
1.84915
1.8185
1.78441
1.73526
1.6777
1.63434
1.60537
1.57962
1.55822
1.53991
1.51987
1.49753
1.47428
1.45123
1.42349
1.41017
1.41051
1.40158
1.38096
1.37258
1.37314
1.3735
1.38219
1.40744
1.42921
1.43193
1.41777
1.40161
1.39909
1.40068
1.39943
1.39282
1.38942
1.38338
1.37191
1.35087
1.33151
1.31587
1.30008
1.28323
1.26287
1.24403
1.23292
1.22502
1.20751
1.19261
1.17879
3.98597
4.15317
4.02622
3.84163
3.67847
3.52722
3.38203
3.23935
3.09687
2.97337
2.85892
2.74009
2.60778
2.514
2.43164
2.34124
2.24184
2.15142
2.08832
2.02317
1.94991
1.87129
1.8654
2.06671
2.60228
3.11702
3.24313
3.1858
3.07468
2.96127
2.86087
2.7686
2.70902
2.65968
2.61088
2.55412
2.4855
2.41197
2.34513
2.28481
2.22407
2.16546
2.1137
2.06957
2.03176
1.99485
1.95363
1.9077
1.86118
1.81809
1.77534
1.72914
1.68302
1.6446
1.6143
1.58933
1.56821
1.54766
1.52321
1.49183
1.45791
1.42488
1.39827
1.38451
1.38025
1.37388
1.36132
1.34648
1.32918
1.31666
1.31576
1.32267
1.33822
1.34857
1.34475
1.33728
1.3427
1.34624
1.34517
1.34579
1.34437
1.34045
1.33999
1.33738
1.32922
1.31142
1.28904
1.26604
1.23971
1.2101
1.19134
1.18581
1.18348
1.17291
2.9038
4.02697
4.09844
3.9596
3.7838
3.62543
3.47634
3.33873
3.20336
3.06928
2.95281
2.83342
2.7043
2.61083
2.52541
2.43126
2.32072
2.23827
2.16945
2.10398
2.02016
2.05747
2.37762
3.01641
3.38493
3.49513
3.41826
3.28904
3.17735
3.08971
2.9963
2.89107
2.80479
2.73633
2.67539
2.61338
2.54623
2.47907
2.41985
2.3637
2.30318
2.23834
2.1743
2.11878
2.07696
2.0426
2.00737
1.96682
1.91989
1.87104
1.82573
1.78577
1.74801
1.70769
1.6597
1.61379
1.58876
1.57164
1.55566
1.53651
1.511
1.47334
1.42106
1.38783
1.37344
1.36598
1.35682
1.34154
1.32467
1.30809
1.2864
1.27801
1.27723
1.27518
1.26933
1.26716
1.267
1.26739
1.27021
1.27077
1.27262
1.27948
1.29119
1.29783
1.30135
1.30089
1.2913
1.26818
1.23274
1.19877
1.17691
1.16733
1.16495
1.15752
1.72456
3.17143
4.01498
4.03803
3.90341
3.72867
3.57844
3.4387
3.29594
3.16461
3.05547
2.93664
2.80268
2.6983
2.61316
2.51997
2.41482
2.32131
2.25286
2.19136
2.284
2.78042
3.47425
3.7595
3.6966
3.60769
3.48653
3.36153
3.26318
3.18192
3.0938
2.99391
2.89635
2.81085
2.73753
2.67093
2.60724
2.54767
2.49007
2.42875
2.3627
2.29462
2.22948
2.17508
2.1325
2.09528
2.05827
2.01941
1.97661
1.92723
1.87428
1.8261
1.7883
1.75576
1.71872
1.67666
1.63666
1.60063
1.56942
1.55234
1.54223
1.52545
1.48885
1.43183
1.38785
1.36662
1.34936
1.33507
1.32271
1.30663
1.28224
1.26144
1.2525
1.24553
1.23736
1.22809
1.21465
1.19761
1.18766
1.1836
1.18386
1.1898
1.20621
1.23259
1.25517
1.26027
1.25515
1.23763
1.21222
1.18621
1.16484
1.15594
1.15298
1.14617
1.41541
1.88672
3.3475
3.99898
3.98483
3.8477
3.67773
3.53773
3.40388
3.26801
3.14799
3.02992
2.90419
2.80566
2.7092
2.61084
2.48812
2.40896
2.37628
2.57914
3.2261
3.89251
4.14306
4.05781
3.86379
3.68253
3.54286
3.43692
3.34967
3.26688
3.17961
3.08631
2.99002
2.89646
2.8132
2.74136
2.67546
2.61323
2.55279
2.48881
2.41944
2.34893
2.28365
2.22822
2.1814
2.13969
2.09998
2.06127
2.02364
1.98402
1.93909
1.88441
1.81791
1.76671
1.74393
1.72358
1.69744
1.66549
1.62583
1.57809
1.54497
1.53319
1.51925
1.484
1.43354
1.39514
1.37062
1.35142
1.3333
1.31069
1.28491
1.26096
1.24401
1.23347
1.22312
1.21
1.19387
1.17641
1.157
1.13371
1.1227
1.12142
1.12514
1.14185
1.16928
1.18305
1.18173
1.17383
1.16086
1.14864
1.13914
1.13462
1.13307
1.12979
1.40016
1.43277
2.04344
3.45397
3.96591
3.94771
3.80585
3.64385
3.49493
3.36798
3.2553
3.13122
3.006
2.89735
2.80754
2.70456
2.57617
2.59296
2.94171
3.74061
4.33906
4.40508
4.3018
4.12237
3.9448
3.78482
3.65962
3.55351
3.45715
3.367
3.27715
3.18306
3.08289
2.98354
2.89636
2.82138
2.7523
2.68396
2.61294
2.54049
2.47092
2.40609
2.34514
2.28659
2.23089
2.17975
2.1328
2.09088
2.05525
2.02217
1.98666
1.94274
1.88208
1.80479
1.75909
1.74362
1.7267
1.70362
1.67292
1.63151
1.58407
1.54567
1.51948
1.4973
1.46789
1.43699
1.41086
1.38567
1.36025
1.33253
1.30655
1.27934
1.25406
1.23741
1.2244
1.20942
1.19085
1.16812
1.14136
1.11937
1.10466
1.09537
1.09161
1.09276
1.09877
1.09823
1.09496
1.09321
1.08593
1.0836
1.08664
1.08757
1.09215
1.09795
1.40001
1.40045
1.45677
2.16721
3.51822
3.92948
3.90439
3.77429
3.60337
3.46627
3.34935
3.2291
3.1137
2.99828
2.90615
2.78612
2.86817
3.44525
4.34698
4.76346
4.77715
4.62281
4.40138
4.19646
4.03862
3.90433
3.78584
3.67534
3.57051
3.47061
3.37475
3.27883
3.17479
3.06476
2.96579
2.88361
2.81215
2.74616
2.67931
2.60738
2.53349
2.46485
2.40324
2.3426
2.27942
2.21978
2.16995
2.12993
2.09456
2.05785
2.01696
1.97174
1.91852
1.85246
1.7933
1.76211
1.74063
1.71722
1.69205
1.66281
1.62607
1.57859
1.53306
1.49794
1.48065
1.46795
1.44314
1.39671
1.36435
1.3534
1.33591
1.30712
1.27527
1.24818
1.23055
1.21877
1.20526
1.17974
1.14252
1.11099
1.09351
1.08601
1.08192
1.07751
1.07189
1.06372
1.05413
1.04205
1.02457
1.01723
1.01935
1.02282
1.02609
1.04033
1.40001
1.40001
1.401
1.48155
2.2667
3.54248
3.88187
3.864
3.73072
3.58119
3.45087
3.32757
3.19928
3.10261
3.01604
3.21757
4.10687
4.98496
5.16376
5.02484
4.86107
4.6968
4.5154
4.33916
4.17887
4.03096
3.90029
3.78185
3.66869
3.55835
3.45167
3.34824
3.24393
3.13805
3.03794
2.94931
2.87186
2.80432
2.74134
2.67522
2.60253
2.52534
2.45018
2.38314
2.3214
2.26354
2.21422
2.17369
2.13704
2.09882
2.05248
1.99692
1.93785
1.88349
1.83342
1.79309
1.76246
1.7382
1.72005
1.69537
1.65541
1.60329
1.55544
1.5257
1.50342
1.4787
1.45163
1.42088
1.38607
1.34969
1.32496
1.30366
1.28413
1.26867
1.25308
1.23419
1.20861
1.17429
1.14293
1.11787
1.0992
1.08896
1.08155
1.07263
1.06364
1.05585
1.0473
1.03192
0.999358
0.975645
0.972813
0.970337
0.966464
0.970674
1.40001
1.40001
1.40001
1.40177
1.50411
2.33824
3.50227
3.86181
3.84393
3.7143
3.57184
3.41663
3.29135
3.23552
3.65187
4.77949
5.62499
5.71281
5.51194
5.18934
4.93241
4.76235
4.62052
4.47187
4.31112
4.15259
4.00929
3.88172
3.76298
3.6476
3.53341
3.41924
3.30563
3.19809
3.10268
3.01909
2.94416
2.87441
2.80543
2.73457
2.66139
2.58437
2.50028
2.41696
2.35015
2.2992
2.25522
2.21379
2.17277
2.13359
2.09545
2.04112
1.9765
1.91776
1.86836
1.82649
1.79256
1.76392
1.72958
1.68363
1.64202
1.62194
1.60184
1.57661
1.54748
1.51484
1.48223
1.45053
1.40848
1.35982
1.33434
1.32823
1.32378
1.30821
1.28692
1.26084
1.22535
1.17961
1.14504
1.13239
1.11858
1.10385
1.09343
1.08338
1.07356
1.06506
1.05443
1.03253
0.991403
0.959918
0.953486
0.947098
0.941671
0.939209
1.40001
1.40001
1.40001
1.40001
1.40251
1.52466
2.3352
3.50255
3.83492
3.80508
3.69653
3.51126
3.45116
4.0823
5.5708
6.13331
5.98624
5.80186
5.58838
5.33857
5.08355
4.8834
4.72344
4.57071
4.41578
4.2614
4.11396