/*--------------------------------*- C++ -*----------------------------------*\
  =========                 |
  \\      /  F ield         | OpenFOAM: The Open Source CFD Toolbox
   \\    /   O peration     | Website:  https://openfoam.org
    \\  /    A nd           | Version:  7
     \\/     M anipulation  |
\*---------------------------------------------------------------------------*/
FoamFile
{
    version     2.0;
    format      ascii;
    class       volScalarField;
    location    "0.8";
    object      p;
}
// * * * * * * * * * * * * * * * * * * * * * * * * * * * * * * * * * * * * * //

dimensions      [1 -1 -2 0 0 0 0];

internalField   nonuniform List<scalar> 
16192
(
1
1
1
1
1
1
1
1
1
1
1
1
1
1
1
1
1
1
1
1.00038
1
1
1
1
1
1
1
1
1
1
1
1
1
1
1
1
1
1
1
1
1
1
1
1
1
1
1
1
1
1
1
1
1
1
1
1
1
1
1
1
1
1
1
1
1
1
1
1
1
1
1
1
1
1
1
1
1
1
1
1
1
1
1
1
1
1
1
1
1
1
1
1
1
1
1
1
1
1
1
1
1
1
1
1
1
1
1
1
1
1
1
1
1
1
1
1
1
1
1
1
1
1
1
1
1
1
1
1
1
1
1
1
1
1
1
1
1
1
1
1
1
1
1
1
1
1
1
1
1
1
1
1
1
1
1
1
1
1
1
1
1
1
1
1
1
1
1
1
1
1
1
1
1
1
1
1
1
1
1
1
1
1
1
1
1
1
1
1
1
1
1
1
1
1
1
1
1
1
1
1
1
1
1
1
1
1
1
1
1
1
1
1
1
1
1
1
1
1
1
1
1
1
1
1
1
1
1
1
1
1
1
1
1
1
1
1
1
1
1
1
1
1
1
1
1
1
1
1
1
1
1
1
1
1
1
1
1
1
1
1
1
1
1
1
1
1
1
1
1
1
1
1
1
1
1
1
1
1
1
1
1
1
1
1
1
1
1
1
1
1
1
1
1
1
1
1
1
1
1
1
1
1
1
1
1
1
1
1
1
1
1
1
1
1
1
1
1
1
1
1
1
1
1
1
1
1
1
1
1
1
1
1
1
1
1
1
1
1
1
1
1
1
1
1
1
1
1
1
1
1
1
1
1
1
1
1
1
1
1
1
1
1
1
1
1
1
1
1
1
1
1
1
1
1
1
1
1
1
1
1
1
1
1
1
1
1
1
1
1
1
1
1
1
1
1
1
1
1
1
1
1
1
1
1
1
1
1
1
1
1
1
1
1
1
1
1
1
1
1
1
1
1
1
1
1
1
1
1
1
1
1
1
1
1
1
1
1
1
1
1
1
1
1
1
1
1
1
1
1
1
1
1
1
1
1
1
1
1
1
1
1
1
1
1
1
1
1
1
1
1
1
1
1
1
1
1
1
1
1
1
1
1
1
1
1
1
1
1
1
1
1
1
1
1
1
1
1
1
1
1
1
1
1
1
1
1
1
1
1
1
1
1
1
1
1
1
1
1
1
1
1
1
1
1
1
1
1
1
1
1
1
1
1
1
1
1
1
1
1
1
1
1
1
1
1
1
1
1
1
1
1
1
1
1
1
1
1
1
1
1
1
1
1
1
1
1
1
1
1
1
1
1
1
1
1
1
1
1
1
1
1
1
1
1
1
1
1
1
1
1
1
1
1
1
1
1
1
1
1
1
1
1
1
1
1
1
1
1
1
1
1
1
1
1
1
1
1
1
1
1
1
1
1
1
1
1
1
1
1
1
1
1
1
1
1
1
1
1
1
1
1
1
1
1
1
1
1
1
1
1
1
1
1
1
1
1
1
1
1
1
1
1
1
1
1
1
1
1
1
1
1
1
1
1
1
1
1
1
1
1
1
1
1
1
1
1
1
1
1
1
1
1
1
1
1
1
1
1
1
1
1
1
1
1
1
1
1
1
1
1
1
1
1
1
1
1
1
1
1
1
1
1
1
1
1
1
1
1
1
1
1
1
1
1
1
1
1
1
1
1
1
1
1
1
1
1
1
1
1
1
1
1
1
1
1
1
1
1
1
1
1
1
1
1
1
1
1
1
1
1
1
1
1
1
1
1
1
1
1
1
1
1
1
1
1
1
1
1
1
1
1
1
1
1
1
1
1
1
1
1
1
1
1
1
1
1
1
1
1
1
1
1
1
1
1
1
1
1
1
1
1
1
1
1
1
1
1
1
1
1
1
1
1
1
1
1
1
1
1
1
1
1
1
1
1
1
1
1
1
1
1
1
1
1
1
1
1
1
1
1
1
1
1
1
1
1
1
1
1
1
1
1
1
1
1
1
1
1
1
1
1
1
1
1
1
1
1
1
1
1
1
1
1
1
1
1
1
1
1
1
1
1
1
1
1
1
1
1
1
1
1
1
1
1
1
1
1
1
1
1
1
1
1
1
1
1
1
1
1
1
1
1
1
1
1
1
1
1
1
1
1
1
1
1
1
1
1
1
1
1
1
1
1
1
1
1
1
1
1
1
1
1
1
1
1
1
1
1
1
1
1
1
1
1
1
1
1
1
1
1
1
1
1
1
1
1
1
1
1
1
1
1
1
1
1
1
1
1
1
1
1
1
1
1
1
1
1
1
1
1
1
1
1
1
1
1
1
1
1
1
1
1
1
1
1
1
1
1
1
1
1
1
1
1
1
1
1
1
1
1
1
1
1
1
1
1
1
1
1
1
1
1
1
1
1
1
1
1
1
1
1
1
1
1
1
1
1
1
1
1
1
1
1
1
1
1
1
1
1
1
1
1
1
1
1
1
1
1
1
1
1
1
1
1
1
1
1
1
1
1
1
1
1
1
1
1
1
1
1
1
1
1
1
1
1
1
1
1
1
1
1
1
1
1
1
1
1
1
1
1
1
1
1
1
1
1
1
1
1
1
1
1
1
1
1
1
1
1
1
1
1
1
1
1
1
1
1
1
1
1
1
1
1
1
1
1
1
1
1
1
1
1
1
1
1
1
1
1
1
1
1
1
1
1
1
1
1
1
1
1
1
1
1
1
1
1
1
1
1
1
1
1
1
1
1
1
1
1
1
1
1
1
1
1
1
1
1
1
1
1
1
1
1
1
1
1
1
1
1
1
1
1
1
1
1
1
1
1
1
1
1
1
1
1
1
1
1
1
1
1
1
1
1
1
1
1
1
1
1
1
1
1
1
1
1
1
1
1
1
1
1
1
1
1
1
1
1
1
1
1
1
1
1
1
1
1
1
1
1
1
1
1
1
1
1
1
1
1
1
1
2.99315
2.97346
2.93987
2.91561
2.89935
2.87355
2.85723
2.84796
2.83301
2.82199
2.80594
2.77879
2.74316
2.70541
2.67082
2.63969
2.60702
2.56667
2.52325
2.49675
2.49029
2.48869
2.48892
2.4899
2.48823
2.48143
2.46834
2.4412
2.40424
2.36823
2.33595
2.31147
2.29164
2.26651
2.22741
2.1913
2.18109
2.17919
2.18732
2.2013
2.20233
2.19517
2.18579
2.1708
2.13432
2.07486
2.02137
1.99426
1.97792
1.96487
1.95217
1.94339
1.94056
1.94114
1.94579
1.94882
1.94554
1.94013
1.93322
1.92411
1.90789
1.87674
1.83233
1.78385
1.7517
1.73815
1.73509
1.73473
1.74533
1.76733
1.77462
1.76941
1.76255
1.75029
1.72362
1.67722
1.61677
1.58359
1.57641
1.58156
1.59774
1.62717
1.66493
1.69911
1.71297
1.71171
1.70602
1.698
1.6879
1.66927
1.63207
1.56297
1.49535
1.47067
1.46591
1.4645
1.47262
1.50576
1.54834
1.56189
1.55987
1.55576
1.54902
1.5301
1.48712
1.41624
1.37515
1.36686
1.36585
1.36867
1.38988
1.42894
1.44581
1.44299
1.43891
1.43467
1.42261
1.3896
1.32989
1.28863
1.27909
1.27809
1.28046
1.29642
1.32386
1.3331
1.33024
1.32753
1.326
1.32367
1.32022
1.31622
1.30682
1.28581
1.0044
1.04658
1.4835
2.49676
3.98859
4.7432
4.8577
4.88912
4.8584
4.80127
4.74866
4.73171
4.73217
4.72227
4.71914
4.69604
4.66133
4.63161
4.60732
4.58292
4.55741
4.52505
4.47707
4.41915
4.39025
4.38786
4.38796
4.39528
4.41337
4.43693
4.45436
4.46208
4.46403
4.45981
4.45662
4.44261
4.41969
4.39968
4.37998
4.3504
4.31049
4.26699
4.21606
4.16389
4.15208
4.15825
4.17777
4.21475
4.27097
4.33286
4.39015
4.40268
4.40338
4.40182
4.38836
4.36459
4.33591
4.30518
4.27274
4.23744
4.19767
4.15041
4.09865
4.05971
4.02307
3.98631
3.9539
3.91608
3.86378
3.81348
3.7778
3.75199
3.72917
3.69722
3.66086
3.63424
3.60913
3.57385
3.55465
3.53742
3.51437
3.48979
3.46568
3.43609
3.40007
3.36805
3.32727
3.28913
3.25576
3.22176
3.18911
3.14447
3.11117
3.09582
3.07204
3.04599
3.02861
3.00472
2.97309
2.95062
2.92452
2.90072
2.88724
2.86975
2.85874
2.8484
2.82512
2.79092
2.7527
2.71526
2.68123
2.64704
2.60564
2.56367
2.5425
2.53789
2.53929
2.54009
2.53546
2.52974
2.52164
2.5061
2.47421
2.43445
2.3991
2.36866
2.34654
2.32935
2.30626
2.26729
2.2298
2.21837
2.21565
2.22262
2.2372
2.23804
2.23283
2.2254
2.21285
2.18206
2.12304
2.05646
2.01888
1.99957
1.98757
1.97903
1.9742
1.97241
1.97301
1.97585
1.97874
1.97678
1.97194
1.96523
1.95625
1.94112
1.91023
1.86322
1.81287
1.78172
1.77019
1.76735
1.76781
1.7804
1.80204
1.80875
1.80385
1.79655
1.7809
1.74834
1.69314
1.63059
1.60085
1.59352
1.59698
1.61169
1.64185
1.68292
1.71774
1.73496
1.73649
1.73374
1.72779
1.71862
1.70024
1.66256
1.59201
1.52136
1.49474
1.48938
1.48749
1.49392
1.52428
1.56654
1.58261
1.58127
1.57774
1.57168
1.55337
1.51136
1.44013
1.39632
1.38705
1.38602
1.38863
1.40914
1.44973
1.47021
1.46774
1.46306
1.4584
1.44716
1.41554
1.3537
1.30597
1.29455
1.29354
1.29579
1.30927
1.33622
1.3533
1.35219
1.34869
1.34669
1.3446
1.34091
1.33532
1.32319
1.3015
1.26991
1.00005
1.00072
1.02484
1.22918
2.10457
3.94321
4.6257
4.81612
4.83372
4.84795
4.84317
4.84686
4.79913
4.77036
4.77203
4.74323
4.70172
4.67206
4.64677
4.61486
4.56973
4.52007
4.46749
4.41437
4.39518
4.3928
4.39005
4.3942
4.41334
4.44036
4.4569
4.46668
4.47124
4.47381
4.48108
4.47937
4.46465
4.45033
4.43424
4.40496
4.3575
4.29579
4.23448
4.17958
4.15946
4.16283
4.17422
4.20065
4.24491
4.30019
4.35559
4.39747
4.41948
4.42316
4.41531
4.39676
4.367
4.33068
4.29447
4.25729
4.21714
4.16503
4.11308
4.07273
4.03302
3.99165
3.95046
3.91439
3.87962
3.85251
3.82782
3.79996
3.76728
3.72887
3.69193
3.66303
3.6275
3.59596
3.58352
3.56652
3.54417
3.51798
3.49412
3.46059
3.42626
3.39272
3.35422
3.3133
3.2701
3.23314
3.19366
3.15149
3.13622
3.12308
3.10233
3.0876
3.06845
3.03857
3.00713
2.97709
2.94819
2.93246
2.90975
2.89058
2.88202
2.86396
2.83293
2.79887
2.76545
2.73207
2.69495
2.65146
2.61035
2.59155
2.58718
2.58834
2.59128
2.58438
2.57515
2.56376
2.54354
2.50722
2.46484
2.42813
2.40127
2.38384
2.36897
2.34759
2.30974
2.27242
2.25955
2.25527
2.25833
2.27176
2.27106
2.26514
2.25814
2.24817
2.22577
2.1761
2.10416
2.05218
2.02697
2.0156
2.00951
2.00639
2.00585
2.00556
2.00514
2.00613
2.00538
2.00123
1.99478
1.98618
1.97247
1.94365
1.896
1.84311
1.81242
1.80278
1.80031
1.80243
1.81818
1.83867
1.84286
1.83785
1.83037
1.81193
1.77408
1.71007
1.64627
1.61972
1.61263
1.61442
1.62681
1.65659
1.69855
1.73519
1.75456
1.75994
1.75937
1.75619
1.74877
1.73089
1.69296
1.6212
1.54874
1.52067
1.51449
1.51207
1.5174
1.54638
1.58757
1.60368
1.6025
1.59935
1.5936
1.57532
1.53393
1.46288
1.4172
1.4069
1.4059
1.40847
1.42845
1.47013
1.49471
1.49301
1.48783
1.48271
1.47189
1.44171
1.37948
1.32511
1.3102
1.30872
1.31027
1.32441
1.35107
1.3715
1.37384
1.37094
1.36841
1.36596
1.36203
1.35465
1.33923
1.31527
1.28525
1.26329
1
1
1.00022
1.00705
1.11419
2.03318
3.51096
4.38412
4.89491
4.95185
4.91103
4.84561
4.83038
4.83026
4.80616
4.74731
4.70447
4.67617
4.65193
4.62128
4.57668
4.51457
4.45284
4.40874
4.39467
4.3925
4.39018
4.3946
4.41021
4.4316
4.45102
4.46697
4.47848
4.49108
4.50956
4.51536
4.5047
4.49132
4.47473
4.4425
4.38726
4.31373
4.24571
4.19132
4.16933
4.17084
4.17785
4.19773
4.23497
4.2831
4.33421
4.386
4.41898
4.4273
4.42637
4.4131
4.38497
4.34768
4.31055
4.27345
4.23186
4.18178
4.13289
4.08614
4.03878
3.99508
3.9656
3.93746
3.91164
3.89048
3.86925
3.84112
3.80435
3.7631
3.72294
3.68278
3.6442
3.62952
3.61254
3.58757
3.56081
3.54127
3.51852
3.48593
3.45676
3.41711
3.37332
3.32893
3.28488
3.24236
3.20537
3.18082
3.16472
3.14977
3.13502
3.11976
3.09991
3.07358
3.04044
3.00211
2.97591
2.95556
2.92394
2.90831
2.89576
2.87115
2.83962
2.80889
2.77961
2.74684
2.70382
2.66119
2.6429
2.6376
2.63595
2.63808
2.63242
2.62132
2.60629
2.58116
2.54129
2.49817
2.45995
2.43542
2.42414
2.41314
2.3915
2.34979
2.31332
2.30237
2.29784
2.2977
2.30556
2.30457
2.29801
2.29135
2.28143
2.26111
2.21904
2.1569
2.10004
2.06467
2.05071
2.04474
2.04094
2.03978
2.03837
2.03488
2.03287
2.03153
2.02784
2.02186
2.01379
2.00172
1.97615
1.92995
1.8753
1.84383
1.83565
1.83363
1.83822
1.85751
1.87609
1.87675
1.87132
1.86349
1.84284
1.80024
1.72866
1.66468
1.64035
1.63392
1.63445
1.64419
1.67236
1.71404
1.75067
1.77238
1.78142
1.78346
1.78256
1.77745
1.76057
1.72277
1.6506
1.57735
1.54838
1.5418
1.53903
1.5437
1.57193
1.61224
1.62673
1.62457
1.62103
1.61461
1.59573
1.5543
1.48427
1.4381
1.42645
1.42544
1.428
1.4475
1.49022
1.51891
1.51824
1.51296
1.50749
1.49691
1.46786
1.40604
1.34571
1.32744
1.32519
1.32565
1.33777
1.36735
1.39121
1.39401
1.39208
1.39052
1.38809
1.38357
1.37396
1.35558
1.3291
1.29912
1.2799
1.27361
1
1
1
1.00004
1.00258
1.09148
1.72397
2.84081
4.46329
4.88551
4.83682
4.84289
4.83339
4.8585
4.78748
4.73577
4.72762
4.70649
4.65988
4.62075
4.578
4.51684
4.45638
4.41555
4.39758
4.39862
4.40048
4.40534
4.41868
4.43453
4.45096
4.46853
4.48775
4.511
4.53592
4.54244
4.53585
4.52304
4.50525
4.46755
4.40385
4.32757
4.26329
4.21114
4.183
4.18155
4.18688
4.20386
4.23643
4.27826
4.32291
4.37208
4.40629
4.42118
4.42541
4.41558
4.39092
4.35746
4.32286
4.28788
4.24782
4.20398
4.15517
4.10063
4.04856
4.01829
3.99379
3.9683
3.94623
3.9253
3.90311
3.87153
3.8312
3.78867
3.75257
3.71193
3.67481
3.65334
3.63362
3.60977
3.5837
3.56646
3.54014
3.5101
3.4798
3.44245
3.39528
3.34552
3.2951
3.25053
3.22807
3.21079
3.19309
3.18244
3.17109
3.15337
3.13144
3.10282
3.06406
3.02599
3.00101
2.97011
2.94265
2.92946
2.9089
2.878
2.84862
2.82477
2.79963
2.76097
2.7182
2.69875
2.69143
2.68552
2.68227
2.67691
2.66498
2.64673
2.6167
2.5756
2.53317
2.49464
2.47305
2.46598
2.45913
2.43966
2.39264
2.35225
2.34265
2.34038
2.33917
2.33978
2.33864
2.33215
2.32519
2.31628
2.29821
2.25721
2.19783
2.14374
2.11424
2.09876
2.08578
2.07869
2.07422
2.07101
2.06567
2.06063
2.05707
2.05273
2.04713
2.03979
2.0291
2.00686
1.96404
1.90913
1.87613
1.86862
1.86708
1.87438
1.89693
1.91281
1.91056
1.90448
1.89572
1.87292
1.82624
1.74894
1.68584
1.66265
1.65734
1.6571
1.6646
1.69036
1.73062
1.76605
1.78844
1.80099
1.80601
1.80666
1.80374
1.78832
1.75118
1.67943
1.60687
1.57771
1.57117
1.56843
1.5738
1.60241
1.64002
1.65141
1.64812
1.64359
1.63536
1.6147
1.57231
1.50412
1.45844
1.44595
1.44489
1.4473
1.46608
1.50941
1.54267
1.54356
1.53812
1.53223
1.52176
1.49422
1.4336
1.36766
1.3456
1.34275
1.34258
1.35245
1.38205
1.41085
1.41547
1.41313
1.41173
1.40968
1.40497
1.39309
1.37217
1.34393
1.31447
1.29634
1.29129
1.29173
1
1
1
1
1.00001
1.00155
1.04546
1.34323
2.62278
4.39497
4.69699
4.80191
4.82663
4.85406
4.82144
4.81502
4.78622
4.71148
4.66141
4.61655
4.55166
4.4846
4.44382
4.42637
4.41998
4.41809
4.41506
4.41802
4.43016
4.44451
4.4599
4.47722
4.50053
4.53117
4.55474
4.55769
4.55367
4.54251
4.52482
4.48484
4.41464
4.34182
4.2841
4.23401
4.21081
4.20652
4.21068
4.22251
4.24535
4.27627
4.3138
4.362
4.39537
4.41246
4.42103
4.41371
4.39254
4.36383
4.33502
4.30384
4.26872
4.22782
4.1764
4.11732
4.07375
4.04984
4.02793
4.00592
3.97988
3.95274
3.92608
3.89582
3.86254
3.82205
3.77426
3.72975
3.70558
3.68415
3.65971
3.62981
3.60599
3.58785
3.56053
3.53151
3.50019
3.46294
3.41621
3.36287
3.30778
3.27903
3.26035
3.24191
3.22235
3.2124
3.19777
3.17898
3.1587
3.12844
3.08809
3.05341
3.02144
2.98296
2.96202
2.94707
2.92311
2.89451
2.87009
2.84744
2.81932
2.78243
2.75752
2.74728
2.73737
2.72863
2.72018
2.70612
2.68446
2.65135
2.61088
2.56996
2.53373
2.51456
2.50867
2.50326
2.48845
2.44123
2.39189
2.38101
2.38085
2.38042
2.37556
2.37252
2.36625
2.3586
2.34923
2.33334
2.29671
2.23963
2.18391
2.1559
2.1481
2.13988
2.12506
2.10982
2.10381
2.09727
2.08994
2.08388
2.07804
2.07191
2.0648
2.055
2.03587
1.99723
1.94416
1.90921
1.90175
1.90062
1.91032
1.93513
1.94837
1.94414
1.9373
1.92749
1.90288
1.85243
1.771
1.70951
1.68738
1.68276
1.68196
1.68812
1.71171
1.74968
1.78277
1.80399
1.81852
1.82646
1.82875
1.82732
1.81317
1.77698
1.7068
1.6369
1.60832
1.60214
1.59989
1.60737
1.63782
1.67118
1.6778
1.67301
1.66711
1.65579
1.63235
1.58811
1.5227
1.4791
1.46588
1.46469
1.46686
1.48439
1.52741
1.56549
1.56874
1.56335
1.55699
1.54668
1.52047
1.46177
1.39156
1.36485
1.36129
1.36073
1.36937
1.39744
1.42921
1.43714
1.43489
1.43317
1.43081
1.42527
1.41133
1.38814
1.35859
1.33135
1.31411
1.30952
1.30952
1.3112
1
1
1
1
1
1
1.00046
1.01407
1.23761
2.56501
3.86934
4.55206
4.91187
4.90888
4.85791
4.79554
4.74902
4.6847
4.6642
4.60534
4.52794
4.49286
4.47484
4.44261
4.43413
4.43831
4.43432
4.43767
4.44404
4.45405
4.46926
4.48853
4.51672
4.55112
4.56587
4.56929
4.56735
4.55765
4.53957
4.49809
4.42114
4.35685
4.30573
4.25734
4.24304
4.23666
4.23747
4.24525
4.26091
4.28288
4.31211
4.34981
4.38
4.39805
4.40729
4.40394
4.38884
4.36744
4.34617
4.32113
4.29031
4.25082
4.19684
4.13895
4.10892
4.08639
4.06117
4.03333
4.0044
3.9783
3.94899
3.91592
3.88284
3.84896
3.80935
3.76556
3.72979
3.70501
3.68147
3.65098
3.63045
3.60994
3.58229
3.54772
3.51416
3.48033
3.44118
3.38939
3.34183
3.31283
3.29164
3.26677
3.24831
3.23942
3.22475
3.20295
3.17747
3.14451
3.1085
3.07685
3.04091
3.00471
2.98468
2.96429
2.93772
2.91534
2.8927
2.86946
2.84455
2.81978
2.8052
2.79162
2.77733
2.76314
2.74489
2.71976
2.68308
2.64322
2.60563
2.57413
2.56038
2.55385
2.54745
2.53343
2.49066
2.43649
2.41986
2.41668
2.4196
2.41295
2.40702
2.40058
2.39247
2.38236
2.36695
2.33331
2.28066
2.22632
2.19802
2.19207
2.18709
2.17819
2.1588
2.13724
2.12777
2.12009
2.11257
2.10514
2.09762
2.0898
2.08043
2.06415
2.02948
1.97961
1.94306
1.93513
1.93438
1.946
1.97167
1.98247
1.97726
1.96993
1.95924
1.93319
1.87942
1.79481
1.73516
1.71421
1.70986
1.70883
1.71421
1.73645
1.77194
1.80186
1.82038
1.83467
1.84459
1.84863
1.84821
1.83493
1.79921
1.73136
1.66644
1.63957
1.63398
1.63261
1.64374
1.6766
1.70452
1.70607
1.69984
1.69199
1.67645
1.64905
1.60207
1.53999
1.49996
1.4869
1.48548
1.48714
1.50321
1.54475
1.58657
1.59326
1.58828
1.58165
1.57147
1.5467
1.49102
1.41685
1.38534
1.38072
1.38002
1.38761
1.41555
1.44757
1.45785
1.45632
1.45435
1.4517
1.44525
1.42912
1.40282
1.37204
1.34828
1.33346
1.3295
1.32895
1.32889
1.32919
1
1
1
1
1
1
1
1.00012
1.00815
1.21292
2.14237
3.27755
4.59803
4.88351
4.84293
4.80266
4.70228
4.65063
4.63816
4.58411
4.54729
4.52667
4.48845
4.47305
4.47448
4.47301
4.45661
4.4521
4.45972
4.47098
4.48451
4.50301
4.52737
4.55733
4.57035
4.57806
4.57857
4.5716
4.55338
4.51012
4.43133
4.3793
4.33387
4.29168
4.28087
4.26852
4.2595
4.2635
4.27395
4.28954
4.31094
4.3408
4.36931
4.38566
4.39554
4.39721
4.38576
4.37035
4.35463
4.33542
4.30796
4.26805
4.21518
4.17179
4.14482
4.11848
4.08975
4.05855
4.02858
3.99909
3.96893
3.93727
3.90569
3.87302
3.83688
3.79913
3.76373
3.73389
3.70427
3.67291
3.65293
3.6295
3.5999
3.56668
3.53585
3.50303
3.46423
3.41793
3.37571
3.34589
3.32161
3.2936
3.28167
3.26616
3.24078
3.21715
3.19321
3.16346
3.13223
3.10196
3.0639
3.02632
3.004
2.98149
2.96013
2.94412
2.91928
2.89679
2.88051
2.86417
2.84808
2.82894
2.80723
2.78346
2.755
2.7167
2.6759
2.63895
2.61435
2.60634
2.60148
2.59298
2.57735
2.53872
2.48625
2.46189
2.45603
2.45521
2.45149
2.44267
2.43428
2.42505
2.41394
2.39887
2.36963
2.32046
2.2681
2.24162
2.23573
2.23085
2.22334
2.21038
2.18361
2.1594
2.14964
2.14196
2.13378
2.12504
2.11608
2.10618
2.0917
2.06123
2.0155
1.97781
1.96897
1.96847
1.98123
2.00701
2.01498
2.00929
2.00223
1.99111
1.96407
1.908
1.82081
1.76256
1.74284
1.73866
1.73739
1.7426
1.76436
1.79728
1.82316
1.83828
1.85056
1.86082
1.86612
1.86668
1.85437
1.81839
1.7521
1.69397
1.67036
1.6656
1.66571
1.68141
1.71669
1.73867
1.73629
1.72884
1.71829
1.69787
1.66575
1.6154
1.55712
1.52186
1.50921
1.50766
1.50887
1.52315
1.5627
1.6064
1.61627
1.61211
1.60581
1.596
1.573
1.52111
1.44434
1.40687
1.40088
1.4003
1.4069
1.43432
1.46831
1.47789
1.47678
1.47504
1.47204
1.46458
1.44703
1.41775
1.38507
1.36497
1.35376
1.35047
1.34998
1.34881
1.34742
1.34563
1
1
1
1
1
1
1
1
1.00006
1.00602
1.11287
1.56712
3.01981
4.47715
4.69911
4.7605
4.69606
4.67553
4.65638
4.62478
4.59768
4.55216
4.52567
4.51651
4.51121
4.491
4.47566
4.46602
4.46789
4.4789
4.48799
4.50247
4.51873
4.54521
4.56907
4.58219
4.58814
4.58653
4.57061
4.51739
4.44106
4.40228
4.3632
4.33101
4.3139
4.29475
4.27955
4.28122
4.2892
4.29859
4.31268
4.3365
4.36009
4.37433
4.38781
4.3914
4.38397
4.37271
4.35871
4.34186
4.31756
4.28169
4.23876
4.20437
4.17558
4.14584
4.11339
4.08126
4.05003
4.02044
3.99143
3.95923
3.92568
3.89517
3.866
3.83317
3.79655
3.76227
3.72405
3.69737
3.67715
3.65064
3.61786
3.5803
3.55309
3.52873
3.49688
3.45762
3.4171
3.38184
3.33983
3.31381
3.30463
3.28889
3.26052
3.23198
3.20677
3.18123
3.15484
3.12769
3.09214
3.05519
3.02781
3.00383
2.98885
2.96976
2.94517
2.93339
2.92073
2.9031
2.88164
2.85518
2.82502
2.79394
2.75604
2.7141
2.67381
2.65231
2.64893
2.64864
2.63986
2.62393
2.58608
2.53499
2.50924
2.49941
2.49173
2.48688
2.47846
2.46851
2.45828
2.44683
2.43227
2.40743
2.36188
2.30984
2.2833
2.27867
2.27394
2.26581
2.2546
2.23407
2.2009
2.17949
2.17088
2.16307
2.15429
2.14457
2.13382
2.11961
2.092
2.05096
2.01405
2.00389
2.00299
2.01585
2.04095
2.04629
2.04025
2.03366
2.02278
1.99564
1.93814
1.84929
1.79165
1.77303
1.76904
1.76763
1.77302
1.79489
1.82514
1.84601
1.85732
1.86709
1.87626
1.88176
1.88289
1.87123
1.83458
1.7696
1.71934
1.69981
1.69615
1.69843
1.71913
1.75614
1.77287
1.76818
1.75948
1.74591
1.72068
1.68324
1.62923
1.57509
1.54451
1.53311
1.53149
1.53218
1.54487
1.58195
1.62577
1.63774
1.63422
1.6287
1.61994
1.59943
1.5521
1.47435
1.42924
1.4213
1.42095
1.42724
1.45341
1.48898
1.49902
1.4969
1.49525
1.49213
1.48381
1.46478
1.43326
1.39983
1.38144
1.37437
1.37194
1.37187
1.37038
1.36772
1.36397
1.36067
1
1
1
1
1
1
1
1
1
1.00003
1.00177
1.03137
1.3788
2.89718
4.0216
4.56031
4.78828
4.76479
4.72731
4.66363
4.61306
4.56957
4.54515
4.54556
4.53055
4.50913
4.5038
4.49563
4.48632
4.487
4.49044
4.49603
4.50754
4.53648
4.5756
4.59356
4.60349
4.60726
4.58234
4.50753
4.45243
4.4256
4.3961
4.36912
4.34145
4.32056
4.30139
4.29819
4.30421
4.30945
4.31947
4.3384
4.35552
4.36964
4.38466
4.38767
4.38318
4.37238
4.35804
4.34525
4.32552
4.29591
4.2623
4.23075
4.19969
4.16716
4.1351
4.10325
4.07232
4.04286
4.014
3.98343
3.95218
3.92188
3.89484
3.86354
3.82874
3.79
3.75076
3.72676
3.6997
3.66887
3.6333
3.60072
3.5787
3.55594
3.52672
3.49135
3.45475
3.41206
3.36176
3.34098
3.32359
3.29992
3.27178
3.24852
3.22778
3.20608
3.18315
3.15675
3.12165
3.08351
3.05141
3.03172
3.01724
2.99368
2.97871
2.97028
2.95444
2.93238
2.90508
2.87283
2.83711
2.798
2.75671
2.71427
2.69036
2.68676
2.68984
2.68408
2.66937
2.6367
2.58395
2.55567
2.54743
2.5364
2.5245
2.51241
2.50075
2.48936
2.47756
2.46378
2.44338
2.40527
2.35387
2.32405
2.31942
2.31564
2.30781
2.29684
2.27926
2.24909
2.21615
2.20066
2.19257
2.18441
2.17505
2.16408
2.14949
2.12326
2.08519
2.05066
2.04017
2.03879
2.0501
2.07313
2.07675
2.07055
2.06407
2.05353
2.02714
1.97041
1.88035
1.82241
1.80441
1.8007
1.79936
1.8057
1.82795
1.85494
1.87006
1.87734
1.88458
1.89205
1.89693
1.89755
1.88519
1.84762
1.78491
1.74266
1.72746
1.72512
1.73057
1.75647
1.79474
1.80714
1.80099
1.79133
1.77492
1.74544
1.70231
1.64501
1.59513
1.5684
1.55849
1.5569
1.55727
1.56851
1.60292
1.64534
1.65782
1.65463
1.64998
1.64259
1.62505
1.5832
1.50695
1.45348
1.44224
1.44183
1.4477
1.4731
1.50957
1.52054
1.5177
1.5153
1.51191
1.50327
1.48295
1.44937
1.41621
1.39944
1.39447
1.39339
1.39453
1.39247
1.38928
1.38372
1.37862
1.37573
1
1
1
1
1
1
1
1
1
1
1
1.00033
1.01705
1.34981
2.47263
3.55114
4.59489
4.80515
4.74662
4.6942
4.63312
4.5983
4.57547
4.56759
4.55318
4.54583
4.53297
4.51942
4.50358
4.50046
4.50265
4.50515
4.51182
4.54397
4.58553
4.60157
4.60973
4.6082
4.56377
4.49096
4.46545
4.44905
4.42811
4.40136
4.36947
4.34627
4.32533
4.31639
4.31882
4.3215
4.33041
4.34553
4.35898
4.37307
4.38472
4.38675
4.38331
4.36936
4.35858
4.35011
4.33278
4.30653
4.27732
4.24768
4.21626
4.18517
4.15486
4.12568
4.09639
4.06813
4.03936
4.01064
3.97815
3.9487
3.92315
3.89253
3.85895
3.81587
3.77993
3.75274
3.72123
3.68831
3.65105
3.62204
3.60294
3.58384
3.55833
3.52527
3.48932
3.43748
3.3824
3.3602
3.34177
3.31584
3.29342
3.27457
3.25504
3.23351
3.21021
3.18316
3.15037
3.11409
3.08286
3.06298
3.04071
3.0218
3.01253
2.99943
2.9789
2.95181
2.91958
2.88387
2.84548
2.80453
2.76277
2.738
2.73128
2.72816
2.72421
2.71163
2.68304
2.63566
2.60204
2.59259
2.58151
2.56732
2.55072
2.53346
2.51986
2.50848
2.49573
2.47886
2.44998
2.40188
2.36539
2.35905
2.35517
2.34773
2.33722
2.32161
2.29582
2.25986
2.23449
2.22351
2.21541
2.20649
2.19556
2.18085
2.15557
2.11894
2.08692
2.07689
2.07546
2.08517
2.10373
2.10597
2.10014
2.09347
2.08242
2.05696
2.00353
1.91501
1.85492
1.83694
1.83355
1.83235
1.83992
1.86342
1.88622
1.89542
1.89854
1.90339
1.90896
1.91253
1.91176
1.8977
1.85792
1.79818
1.76472
1.75349
1.75251
1.76149
1.79327
1.83305
1.84188
1.83456
1.82395
1.80494
1.77178
1.72336
1.66336
1.61713
1.59328
1.58548
1.58397
1.58406
1.59397
1.62548
1.66525
1.6769
1.67376
1.66983
1.66369
1.64902
1.6131
1.54147
1.47972
1.46384
1.46312
1.46823
1.49229
1.53018
1.5428
1.53941
1.53594
1.53192
1.52308
1.50204
1.46665
1.43328
1.41812
1.41465
1.41461
1.41672
1.41437
1.41051
1.40477
1.39805
1.39407
1.39205
1
1
1
1
1
1
1
1
1
1
1
1
1.00019
1.0151
1.20994
1.81787
3.3917
4.544
4.65255
4.708
4.66684
4.6126
4.6092
4.62129
4.61434
4.59268
4.56371
4.53238
4.51571
4.51479
4.52188
4.51931
4.52729
4.5492
4.57628
4.58776
4.59155
4.58386
4.53988
4.49698
4.48896
4.47992
4.46081
4.43276
4.40142
4.37329
4.34841
4.33516
4.33529
4.33746
4.34656
4.35911
4.37103
4.38237
4.38864
4.39028
4.38322
4.36597
4.35991
4.35088
4.33266
4.30839
4.28381
4.25842
4.23095
4.20349
4.17538
4.14814
4.12034
4.09344
4.06602
4.03564
4.00176
3.97652
3.95082
3.92083
3.88714
3.84577
3.80876
3.77278
3.73853
3.70475
3.67228
3.64987
3.63039
3.60838
3.58141
3.55086
3.51596
3.46495
3.41233
3.38195
3.35828
3.33385
3.3197
3.30646
3.28934
3.26751
3.24034
3.20866
3.17549
3.14338
3.117
3.09051
3.06608
3.0538
3.04068
3.02039
2.99415
2.96336
2.92978
2.8939
2.85752
2.8174
2.78999
2.78272
2.77471
2.76397
2.74941
2.72559
2.6844
2.64848
2.63808
2.62677
2.61061
2.59157
2.57135
2.55224
2.53766
2.52606
2.51275
2.4917
2.45218
2.40921
2.39875
2.39324
2.38536
2.3748
2.36048
2.33938
2.30712
2.27348
2.25628
2.24722
2.23868
2.22823
2.21321
2.18836
2.15322
2.12358
2.11454
2.11334
2.12124
2.13298
2.13306
2.12776
2.12083
2.10885
2.08414
2.03583
1.95244
1.88999
1.87079
1.86773
1.86685
1.87549
1.90042
1.91905
1.92174
1.92154
1.92386
1.92728
1.92906
1.92625
1.91009
1.8678
1.81064
1.78437
1.77798
1.77914
1.79177
1.82844
1.87005
1.8769
1.86854
1.85649
1.83521
1.79923
1.74645
1.68435
1.64074
1.6194
1.61358
1.61217
1.61232
1.62127
1.64946
1.6853
1.69545
1.69228
1.68879
1.68354
1.67137
1.6409
1.57595
1.50845
1.48654
1.485
1.48893
1.51121
1.55002
1.5656
1.5622
1.5576
1.55288
1.54362
1.52194
1.48555
1.45169
1.43719
1.43446
1.43556
1.43838
1.43571
1.4309
1.4249
1.41923
1.41433
1.41127
1.41002
1
1
1
1
1
1
1
1
1
1
1
1
1
1.00012
1.00516
1.0664
1.60812
3.29424
4.17599
4.58666
4.74715
4.72307
4.72431
4.70904
4.67854
4.62621
4.57884
4.53868
4.52541
4.5279
4.52815
4.52338
4.53007
4.54648
4.56519
4.569
4.56778
4.55076
4.53561
4.52673
4.52259
4.51475
4.49371
4.46596
4.43527
4.40153
4.37358
4.35653
4.35386
4.35744
4.36768
4.37897
4.38867
4.39501
4.39869
4.39898
4.38497
4.36572
4.35731
4.34673
4.3299
4.30847
4.28866
4.26796
4.24506
4.22044
4.19684
4.17079
4.14345
4.11716
4.09138
4.05791
4.02698
4.00391
3.97705
3.94865
3.91452
3.87107
3.8272
3.7885
3.75522
3.72166
3.69645
3.67671
3.6558
3.63179
3.60355
3.57281
3.53735
3.49035
3.44027
3.40656
3.38408
3.36965
3.35886
3.34467
3.32334
3.29429
3.2615
3.22924
3.19967
3.17386
3.14918
3.11788
3.09564
3.08024
3.06093
3.03584
3.00462
2.97174
2.93881
2.90712
2.87704
2.84959
2.83794
2.82829
2.81259
2.78852
2.76085
2.72848
2.69375
2.681
2.67158
2.65618
2.63483
2.61174
2.5901
2.57131
2.55683
2.54406
2.52887
2.50228
2.45723
2.43699
2.43
2.42036
2.40941
2.39611
2.3783
2.35254
2.31866
2.29244
2.27996
2.27108
2.26121
2.24719
2.22367
2.18953
2.16265
2.15508
2.15383
2.15855
2.16133
2.15761
2.15193
2.14446
2.13205
2.10903
2.06639
1.99087
1.92745
1.90608
1.90313
1.90261
1.91241
1.93745
1.95344
1.95023
1.94684
1.94669
1.94703
1.94659
1.94149
1.92287
1.8786
1.82381
1.80224
1.7997
1.80457
1.82217
1.86329
1.90497
1.91022
1.90158
1.8882
1.86439
1.82621
1.77017
1.70706
1.66582
1.64668
1.64229
1.64111
1.64166
1.65006
1.67491
1.7057
1.71357
1.71052
1.7074
1.70272
1.69235
1.66622
1.60881
1.53885
1.51048
1.50776
1.51024
1.52991
1.56871
1.58832
1.58585
1.58053
1.57489
1.56535
1.54314
1.50556
1.47084
1.457
1.45466
1.45603
1.45918
1.45672
1.45107
1.44366
1.4393
1.4366
1.43244
1.42999
1.42972
1
1
1
1
1
1
1
1
1
1
1
1
1
1
1.00002
1.0011
1.03951
1.57106
2.89883
3.8673
4.62055
4.81698
4.78418
4.74271
4.67805
4.62822
4.57541
4.54639
4.5426
4.54478
4.53386
4.52581
4.52724
4.54579
4.54823
4.53945
4.52476
4.52812
4.54565
4.55738
4.5549
4.54499
4.52393
4.49783
4.46693
4.43092
4.39848
4.38221
4.37652
4.38276
4.39153
4.40115
4.40943
4.4131
4.41468
4.40812
4.38963
4.36544
4.35169
4.34288
4.32707
4.30884
4.29375
4.27808
4.25871
4.2381
4.21741
4.18951
4.16336
4.13951
4.11161
4.07586
4.05196
4.02952
4.00225
3.97364
3.93536
3.88585
3.83889
3.80252
3.76949
3.74077
3.72149
3.70168
3.67911
3.65404
3.62603
3.59518
3.55976
3.51777
3.47507
3.44424
3.42672
3.41523
3.4016
3.37865
3.34667
3.31248
3.27937
3.24991
3.22457
3.2021
3.1779
3.15013
3.12559
3.10102
3.07383
3.04337
3.01104
2.98066
2.9533
2.93008
2.91171
2.89887
2.88765
2.87004
2.83674
2.7982
2.7653
2.73706
2.72288
2.71386
2.70066
2.68096
2.65483
2.62973
2.61003
2.59372
2.57955
2.56519
2.54638
2.51295
2.47642
2.46429
2.45417
2.44253
2.42942
2.41368
2.39305
2.3646
2.33373
2.31481
2.30418
2.29428
2.2816
2.26122
2.2302
2.2058
2.19985
2.19998
2.19755
2.18968
2.18066
2.1727
2.1642
2.15194
2.13126
2.09488
2.02947
1.96728
1.94319
1.93996
1.93957
1.95046
1.97491
1.98762
1.98247
1.9756
1.97153
1.96846
1.96516
1.95708
1.93664
1.8917
1.83822
1.81916
1.81988
1.82855
1.85078
1.89717
1.93887
1.94206
1.93284
1.91815
1.89233
1.85218
1.7929
1.73052
1.69222
1.67522
1.67164
1.67074
1.67178
1.68007
1.70164
1.72703
1.73194
1.7288
1.72602
1.72175
1.71263
1.68955
1.63891
1.56934
1.53572
1.53137
1.53252
1.54948
1.58692
1.61014
1.60928
1.60443
1.59833
1.58833
1.56589
1.5274
1.49075
1.47684
1.47505
1.47685
1.47974
1.47746
1.47178
1.46318
1.45767
1.45686
1.45494
1.45101
1.44975
1.44973
1
1
1
1
1
1
1
1
1
1
1
1
1
1
1
1
1.00062
1.03598
1.4003
2.17403
3.67079
4.59554
4.70093
4.74313
4.69575
4.61936
4.59126
4.58728
4.58655
4.57406
4.54458
4.52887
4.54226
4.53587
4.51206
4.49204
4.49536
4.52243
4.54535
4.56147
4.5668
4.56138
4.54788
4.52261
4.49583
4.46082
4.43198
4.41119
4.40586
4.40978
4.41678
4.4268
4.43164
4.4338
4.43022
4.41757
4.39674
4.36581
4.34846
4.34153
4.32576
4.31126
4.30154
4.28872
4.27112
4.25396
4.23368
4.20638
4.1824
4.15991
4.12781
4.09538
4.0763
4.05307
4.02617
3.9927
3.94471
3.89229
3.85046
3.81817
3.78735
3.76551
3.74659
3.72537
3.70215
3.67653
3.649
3.61907
3.58546
3.55031
3.52276
3.50453
3.48763
3.4608
3.42251
3.38905
3.35796
3.32698
3.29779
3.27257
3.25076
3.22934
3.20595
3.18036
3.15196
3.11791
3.08088
3.04934
3.02145
2.9957
2.97775
2.96703
2.95761
2.94699
2.92877
2.88823
2.84021
2.80296
2.77653
2.76324
2.75507
2.74353
2.7266
2.70195
2.67186
2.64771
2.63241
2.61983
2.60716
2.59212
2.56537
2.52254
2.49804
2.48687
2.47562
2.4628
2.44809
2.43039
2.4073
2.37796
2.35214
2.33812
2.32783
2.316
2.29894
2.27382
2.25364
2.24861
2.24665
2.23855
2.21959
2.20196
2.19054
2.1807
2.16913
2.15104
2.12111
2.06768
2.00957
1.98221
1.97853
1.97813
1.99003
2.01389
2.02325
2.01726
2.00745
1.99805
1.99083
1.98432
1.97353
1.95179
1.90733
1.85494
1.836
1.83878
1.85115
1.87742
1.92705
1.96991
1.97275
1.96275
1.94634
1.91922
1.87707
1.81464
1.75431
1.71971
1.70536
1.70228
1.70154
1.70323
1.71137
1.72929
1.74862
1.75096
1.74761
1.7449
1.74076
1.73243
1.71155
1.66637
1.59913
1.56193
1.55554
1.55595
1.57014
1.60607
1.63147
1.63188
1.62808
1.62273
1.61283
1.59012
1.55093
1.51234
1.49716
1.4955
1.49729
1.50037
1.49834
1.49326
1.484
1.47617
1.47463
1.47519
1.4726
1.46977
1.46951
1.46825
1
1
1
1
1
1
1
1
1
1
1
1
1
1
1
1
1
1.00046
1.01555
1.12989
1.81747
3.52697
4.27287
4.63573
4.77079
4.70655
4.68616
4.66108
4.62687
4.58322
4.54868
4.54791
4.52304
4.50042
4.48699
4.47586
4.49525
4.52204
4.53831
4.55911
4.57033
4.57261
4.56292
4.54313
4.52717
4.49831
4.47228
4.45071
4.43633
4.4345
4.44061
4.44699
4.44627
4.44744
4.44202
4.42791
4.40614
4.37076
4.3544
4.34475
4.32721
4.31658
4.30852
4.29664
4.28509
4.27046
4.24618
4.22133
4.2007
4.17762
4.14285
4.11769
4.10054
4.07701
4.04586
4.00194
3.9482
3.89991
3.86578
3.83605
3.81081
3.79127
3.7709
3.74928
3.72586
3.70049
3.67394
3.64629
3.62076
3.60182
3.58712
3.56591
3.52465
3.46992
3.42443
3.3938
3.36865
3.34396
3.3199
3.29831
3.27873
3.25839
3.23585
3.20909
3.17135
3.1242
3.08578
3.05938
3.03878
3.02316
3.01547
3.01048
3.00216
2.98555
2.94267
2.88561
2.84368
2.818
2.80391
2.79505
2.78474
2.77074
2.74946