/*--------------------------------*- C++ -*----------------------------------*\
  =========                 |
  \\      /  F ield         | OpenFOAM: The Open Source CFD Toolbox
   \\    /   O peration     | Website:  https://openfoam.org
    \\  /    A nd           | Version:  7
     \\/     M anipulation  |
\*---------------------------------------------------------------------------*/
FoamFile
{
    version     2.0;
    format      ascii;
    class       volScalarField;
    location    "2.2";
    object      T;
}
// * * * * * * * * * * * * * * * * * * * * * * * * * * * * * * * * * * * * * //

dimensions      [0 0 0 1 0 0 0];

internalField   nonuniform List<scalar> 
16512
(
2.11675
2.1163
2.11893
2.11971
2.11548
2.109
2.10204
2.09516
2.08997
2.08536
2.08246
2.08119
2.07649
2.07035
2.06415
2.05815
2.0533
2.04893
2.04567
2.04547
2.04698
2.04641
2.04152
2.03509
2.02716
2.01949
2.01458
2.01162
2.01136
2.01211
2.0117
2.00768
2.00252
1.99803
1.99389
1.99022
1.98739
1.985
1.98161
1.97779
1.97345
1.96865
1.96367
1.95921
1.95596
1.9533
1.95063
1.94708
1.9431
1.93947
1.93587
1.9322
1.92855
1.92487
1.92131
1.91838
1.91619
1.91528
1.91596
1.91693
1.91597
1.91234
1.9083
1.90416
1.89963
1.89449
1.88934
1.88584
1.88376
1.88335
1.88493
1.88619
1.8847
1.88198
1.8792
1.87586
1.87198
1.86804
1.86409
1.86027
1.85736
1.85478
1.85111
1.84726
1.84382
1.84061
1.83818
1.83646
1.835
1.834
1.83357
1.83299
1.83098
1.82745
1.82315
1.8184
1.81376
1.80882
1.80395
1.80031
1.79814
1.79724
1.79735
1.79742
1.79732
1.79648
1.79467
1.79229
1.78938
1.78584
1.781
1.77499
1.76969
1.76615
1.76397
1.7634
1.76302
1.76302
1.76344
1.76367
1.76186
1.7594
1.75666
1.74836
1.74841
1.76194
1.81401
1.89273
1.97798
2.03778
2.0751
2.09655
2.10175
2.10838
2.10839
2.10698
2.10635
2.10632
2.10698
2.10768
2.10807
2.10792
2.10621
2.10276
2.09787
2.09267
2.08769
2.08447
2.08413
2.08523
2.08819
2.09094
2.09295
2.09375
2.09323
2.09031
2.08527
2.08001
2.07487
2.07028
2.06807
2.06827
2.06983
2.07042
2.07029
2.07026
2.06953
2.06721
2.06362
2.06087
2.05966
2.05886
2.05791
2.05705
2.05588
2.05444
2.05281
2.05083
2.04834
2.04639
2.04466
2.04267
2.04005
2.03688
2.03375
2.03178
2.03131
2.0313
2.03147
2.03347
2.03623
2.03802
2.03897
2.03908
2.03868
2.03658
2.0329
2.02988
2.02864
2.02862
2.02902
2.02814
2.02615
2.0236
2.0203
2.01629
2.01275
2.01048
2.00897
2.00878
2.00933
2.01009
2.00995
2.00904
2.00837
2.00705
2.00395
1.99883
1.99428
1.99231
1.99125
1.99045
1.99041
1.99072
1.99218
1.99599
1.99983
2.00154
2.00285
2.00357
2.00307
1.99965
1.99271
1.98691
1.98518
1.98503
1.985
1.98444
1.9835
1.98296
1.98246
1.98057
1.97802
1.97607
1.97405
1.97109
1.96703
1.96393
1.96333
1.96417
1.96664
1.97072
1.97463
1.97665
1.97649
1.97435
1.971
1.96241
2.11062
2.10611
2.10581
2.10734
2.10617
2.10072
2.09466
2.08829
2.08285
2.07793
2.07402
2.07304
2.07144
2.06573
2.0594
2.05235
2.04549
2.04057
2.03642
2.03391
2.03442
2.03639
2.03529
2.03055
2.02473
2.01757
2.01054
2.00566
2.00235
2.00132
2.00088
1.99911
1.99439
1.98936
1.98487
1.98079
1.97747
1.97542
1.97303
1.96964
1.96604
1.96211
1.95785
1.95338
1.94934
1.94684
1.94466
1.94068
1.93685
1.93353
1.93008
1.92635
1.92293
1.91989
1.91704
1.91444
1.91224
1.9109
1.91052
1.91003
1.90807
1.90479
1.90119
1.89717
1.89289
1.8885
1.88421
1.88104
1.87908
1.87874
1.87908
1.87874
1.87671
1.87446
1.87197
1.86908
1.86578
1.86218
1.85837
1.85471
1.85189
1.84889
1.8446
1.84063
1.83706
1.83348
1.83013
1.8277
1.82591
1.82431
1.82315
1.82225
1.82125
1.81938
1.81643
1.81329
1.80994
1.80661
1.80301
1.79873
1.79461
1.79147
1.78921
1.78802
1.78735
1.78634
1.78499
1.78353
1.78196
1.77984
1.77699
1.77341
1.76871
1.76367
1.75935
1.75635
1.75459
1.75371
1.75308
1.75328
1.75392
1.75361
1.75121
1.74827
1.74474
1.73726
1.73662
1.74861
1.79086
1.86926
1.94713
2.01737
2.0543
2.07965
2.08766
2.09323
2.09902
2.09915
2.09909
2.09963
2.09917
2.09768
2.09475
2.09173
2.08898
2.08553
2.08159
2.07796
2.07514
2.07469
2.0756
2.07774
2.08031
2.08223
2.08272
2.08192
2.07921
2.07545
2.07089
2.06544
2.06023
2.05715
2.05675
2.05781
2.05847
2.0584
2.0585
2.05813
2.0566
2.05395
2.05154
2.05017
2.04924
2.04803
2.04664
2.04536
2.04387
2.0422
2.04016
2.03769
2.03576
2.03416
2.03246
2.03028
2.02737
2.02383
2.02059
2.01911
2.01903
2.01964
2.02151
2.02472
2.02743
2.02924
2.02986
2.02936
2.02769
2.024
2.0193
2.01645
2.01546
2.01491
2.01422
2.01323
2.01199
2.01035
2.00806
2.00561
2.00359
2.00187
2.00075
2.00057
2.00069
1.99987
1.99916
1.99885
1.99794
1.9953
1.99027
1.98466
1.98127
1.97966
1.97834
1.97769
1.97761
1.97821
1.98114
1.9867
1.99064
1.99316
1.99483
1.99525
1.9937
1.98762
1.97929
1.97456
1.97322
1.97255
1.97176
1.9706
1.96935
1.96868
1.96802
1.96672
1.9653
1.96382
1.96196
1.95921
1.95663
1.95613
1.95715
1.96006
1.96396
1.96614
1.96632
1.96521
1.9631
1.95832
2.10678
2.10139
2.09699
2.09608
2.0955
2.09116
2.08526
2.07909
2.07351
2.06865
2.0653
2.06522
2.06559
2.06193
2.05551
2.0485
2.04021
2.03287
2.02824
2.02452
2.02303
2.02409
2.02574
2.02436
2.02006
2.01495
2.00851
2.00152
1.99606
1.99184
1.98927
1.98781
1.98555
1.98113
1.97651
1.97237
1.96888
1.96663
1.96459
1.96155
1.95831
1.955
1.95145
1.94756
1.94366
1.94091
1.9385
1.9345
1.93089
1.92776
1.92449
1.92097
1.91819
1.91575
1.91344
1.91133
1.90931
1.90752
1.90587
1.9036
1.90073
1.89754
1.89401
1.89026
1.88647
1.8827
1.87893
1.87596
1.874
1.87316
1.8724
1.87035
1.86837
1.86648
1.86436
1.86182
1.85883
1.85556
1.85212
1.84881
1.84613
1.84298
1.83855
1.83472
1.8313
1.82794
1.8244
1.82089
1.81799
1.81573
1.81368
1.8121
1.81091
1.80962
1.80795
1.80606
1.80412
1.80209
1.79962
1.79689
1.79338
1.78925
1.78523
1.78178
1.77895
1.77684
1.77505
1.77328
1.7721
1.77151
1.77057
1.76853
1.7656
1.7619
1.75718
1.75195
1.74768
1.74529
1.7439
1.74309
1.74323
1.74461
1.74517
1.74415
1.74131
1.73767
1.73331
1.7261
1.7218
1.73103
1.76568
1.83757
1.91922
1.99107
2.03479
2.06274
2.07784
2.08259
2.08637
2.09046
2.09084
2.08958
2.08676
2.08242
2.07868
2.0759
2.07299
2.07012
2.06785
2.06599
2.06547
2.06581
2.06708
2.069
2.0702
2.07014
2.06941
2.06758
2.06471
2.06061
2.05528
2.05018
2.04675
2.04561
2.04613
2.04651
2.04645
2.0466
2.04644
2.04547
2.04395
2.0427
2.04171
2.04059
2.03916
2.03732
2.03514
2.03326
2.03141
2.02933
2.02691
2.02481
2.02317
2.02168
2.01999
2.01767
2.01453
2.01131
2.0095
2.00915
2.00952
2.01131
2.01435
2.01716
2.01859
2.01911
2.01848
2.01672
2.01342
2.00859
2.00471
2.00321
2.00287
2.00289
2.00305
2.00291
2.00215
2.00039
1.99806
1.99568
1.99315
1.99127
1.99059
1.99007
1.9892
1.98924
1.98935
1.98883
1.98665
1.98208
1.97602
1.97128
1.96868
1.96689
1.96596
1.96589
1.96666
1.96926
1.97545
1.98131
1.98414
1.98622
1.98695
1.9858
1.98096
1.97251
1.96508
1.96177
1.96046
1.95962
1.95864
1.95782
1.95735
1.95675
1.95558
1.95483
1.95444
1.95409
1.95292
1.95044
1.94854
1.94867
1.94977
1.9507
1.95195
1.95291
1.95264
1.95072
2.10291
2.09841
2.09329
2.08839
2.08454
2.07957
2.07413
2.06877
2.06374
2.0593
2.05655
2.05636
2.05681
2.05585
2.05074
2.04475
2.03756
2.0287
2.02127
2.01677
2.01332
2.01245
2.01417
2.01581
2.01457
2.01029
2.0052
1.99868
1.99111
1.98504
1.98041
1.97682
1.97495
1.97283
1.96931
1.96549
1.96224
1.95973
1.9572
1.95402
1.9509
1.94781
1.94462
1.94137
1.93824
1.93589
1.93314
1.92898
1.92537
1.92208
1.91878
1.91583
1.91352
1.91139
1.90943
1.90785
1.90663
1.90422
1.90114
1.89787
1.89466
1.89144
1.88784
1.88388
1.88021
1.8771
1.87413
1.87123
1.86903
1.86735
1.865
1.86287
1.86087
1.85885
1.85675
1.85433
1.85148
1.84839
1.84517
1.84203
1.83919
1.83652
1.83301
1.82934
1.82624
1.82331
1.82023
1.81673
1.81289
1.80918
1.80605
1.80343
1.8014
1.80023
1.79899
1.79738
1.79591
1.79496
1.79388
1.79221
1.78985
1.787
1.78343
1.77917
1.77444
1.76988
1.76636
1.76383
1.76203
1.76116
1.76124
1.76128
1.76009
1.75736
1.75408
1.74981
1.74426
1.73893
1.73589
1.7344
1.73377
1.73418
1.73599
1.73742
1.73683
1.73452
1.73034
1.72539
1.71941
1.71093
1.70593
1.7125
1.74309
1.80453
1.8934
1.96421
2.0256
2.04636
2.06274
2.07017
2.07601
2.07759
2.07617
2.07355
2.06952
2.06553
2.06246
2.06041
2.05942
2.05887
2.05818
2.05748
2.05723
2.05728
2.05762
2.0578
2.0576
2.05679
2.05521
2.05265
2.04911
2.04449
2.04035
2.03747
2.03613
2.03566
2.03536
2.03524
2.03522
2.035
2.03448
2.03404
2.03378
2.03338
2.03247
2.03092
2.02885
2.02644
2.02379
2.02112
2.01869
2.0161
2.01378
2.01211
2.01092
2.00982
2.00835
2.0061
2.00319
2.001
2.00034
2.00045
2.0014
2.00268
2.00469
2.00599
2.00607
2.0052
2.00379
2.00159
1.9986
1.99598
1.99474
1.99464
1.99491
1.99507
1.99477
1.99351
1.99104
1.98809
1.98499
1.982
1.98018
1.97947
1.97888
1.97894
1.97943
1.97984
1.97962
1.97807
1.97435
1.96841
1.96269
1.95919
1.95697
1.95577
1.95565
1.95642
1.95835
1.96301
1.96968
1.97329
1.97509
1.97624
1.97583
1.97315
1.96674
1.95835
1.95254
1.95006
1.94902
1.94782
1.94547
1.94364
1.94382
1.94522
1.94673
1.94703
1.94691
1.94606
1.94318
1.93894
1.93682
1.93711
1.93806
1.93918
1.94161
1.94252
2.09833
2.09451
2.08954
2.08348
2.07696
2.0706
2.06472
2.05953
2.05496
2.05097
2.04788
2.04651
2.04643
2.04657
2.04489
2.03991
2.03422
2.02669
2.01745
2.01036
2.00617
2.00345
2.00381
2.00654
2.00732
2.00457
1.99963
1.99432
1.98757
1.98008
1.97424
1.96959
1.9656
1.96366
1.96214
1.95992
1.9572
1.95402
1.95055
1.94719
1.94394
1.94078
1.93769
1.93485
1.93308
1.93174
1.92861
1.9243
1.92034
1.91638
1.91278
1.91022
1.90801
1.90602
1.90442
1.90398
1.90325
1.90022
1.89636
1.89207
1.8883
1.88502
1.88144
1.87755
1.87387
1.87094
1.86817
1.86531
1.86306
1.86077
1.85801
1.85608
1.85426
1.85203
1.8496
1.84711
1.84425
1.84097
1.83741
1.83417
1.83147
1.82924
1.82719
1.82434
1.82132
1.81861
1.81583
1.81277
1.80929
1.80535
1.80118
1.79733
1.79421
1.79176
1.79037
1.78898
1.78712
1.78543
1.78483
1.78454
1.78362
1.78191
1.77949
1.77647
1.77238
1.76696
1.76087
1.75605
1.75327
1.75161
1.75099
1.7512
1.75162
1.75093
1.74855
1.74555
1.74183
1.7366
1.73092
1.72734
1.72582
1.72558
1.72618
1.72782
1.72905
1.72865
1.726
1.72169
1.71625
1.71019
1.70368
1.69674
1.69412
1.69897
1.72514
1.78061
1.86241
1.94411
2.00437
2.03406
2.04937
2.06112
2.06062
2.06094
2.05739
2.05276
2.05094
2.05028
2.04957
2.04885
2.04947
2.05033
2.0504
2.04978
2.0491
2.04844
2.04758
2.04645
2.04451
2.04214
2.03968
2.03698
2.03394
2.03092
2.02866
2.0272
2.02627
2.02554
2.02487
2.0242
2.02395
2.02401
2.02432
2.0246
2.02458
2.02418
2.02308
2.02098
2.01793
2.01472
2.01155
2.00833
2.00558
2.00331
2.00186
2.00118
2.00072
1.99998
1.99846
1.99582
1.9928
1.99109
1.9903
1.98982
1.98918
1.98918
1.99068
1.9918
1.99138
1.99091
1.99052
1.98997
1.98904
1.98815
1.98777
1.98755
1.98711
1.98594
1.98342
1.9798
1.97604
1.97243
1.96946
1.96801
1.96809
1.96815
1.96863
1.96955
1.97045
1.97067
1.96993
1.96704
1.96143
1.95507
1.95073
1.94807
1.94617
1.94531
1.94539
1.94627
1.94907
1.95486
1.96073
1.96354
1.96564
1.96628
1.96515
1.9607
1.95281
1.94506
1.94063
1.93795
1.93556
1.93376
1.93349
1.93487
1.93749
1.93873
1.93883
1.93867
1.93765
1.93465
1.92987
1.9269
1.92679
1.92772
1.93081
1.9343
2.09282
2.08789
2.08287
2.07727
2.07156
2.06563
2.05937
2.05345
2.04827
2.04381
2.03999
2.03701
2.03552
2.0354
2.03558
2.03335
2.02825
2.02253
2.01504
2.00691
2.00121
1.99755
1.99588
1.99673
1.99829
1.99726
1.9928
1.98797
1.98266
1.97605
1.96953
1.96442
1.95993
1.95656
1.95578
1.95528
1.95254
1.94849
1.94472
1.94091
1.93745
1.93418
1.93107
1.92885
1.92839
1.92773
1.92425
1.91984
1.91544
1.91048
1.90636
1.90367
1.90136
1.89936
1.89876
1.89917
1.89865
1.8954
1.89147
1.88671
1.88199
1.87823
1.87456
1.87068
1.8668
1.86358
1.86064
1.85783
1.85587
1.854
1.85123
1.84943
1.84788
1.84593
1.84339
1.84054
1.83741
1.8339
1.83014
1.82643
1.82375
1.82225
1.82096
1.81886
1.81577
1.8129
1.81007
1.80711
1.80412
1.80101
1.79759
1.79391
1.79016
1.78649
1.78319
1.78041
1.77833
1.7764
1.77488
1.7746
1.77486
1.77482
1.77373
1.77134
1.76803
1.76403
1.75869
1.75228
1.74687
1.74374
1.74191
1.74133
1.74141
1.74171
1.74122
1.7394
1.73669
1.73353
1.72911
1.72381
1.72004
1.71836
1.71796
1.71839
1.719
1.71936
1.71892
1.71628
1.71166
1.70656
1.70095
1.69559
1.69135
1.68747
1.68583
1.68924
1.70762
1.75874
1.83221
1.91504
1.97498
2.02423
2.03786
2.04501
2.0429
2.03914
2.03907
2.03786
2.03834
2.03878
2.0392
2.03995
2.04043
2.0411
2.04209
2.04217
2.04125
2.03924
2.03681
2.03388
2.03039
2.02766
2.02557
2.02324
2.02081
2.01919
2.01797
2.01678
2.01546
2.01435
2.0141
2.01415
2.01448
2.01508
2.01563
2.01583
2.01565
2.01469
2.01242
2.00882
2.00511
2.00171
1.99833
1.99555
1.99398
1.99286
1.99258
1.99259
1.99242
1.99145
1.98889
1.98473
1.98092
1.97874
1.97724
1.97594
1.97504
1.97551
1.97793
1.97954
1.98039
1.98122
1.98195
1.98195
1.98127
1.98053
1.97996
1.97904
1.97698
1.97324
1.96839
1.96365
1.95943
1.95659
1.95641
1.95686
1.95738
1.95863
1.96054
1.9624
1.96326
1.96299
1.96073
1.95512
1.94749
1.94139
1.93785
1.93537
1.93373
1.93345
1.93415
1.93673
1.9421
1.94935
1.95414
1.95661
1.95765
1.95731
1.95438
1.94734
1.93782
1.93078
1.92711
1.92483
1.92298
1.92216
1.92303
1.92647
1.92841
1.92857
1.9287
1.92827
1.92631
1.92273
1.92016
1.91992
1.9211
1.92343
2.08432
2.07886
2.07377
2.06877
2.06407
2.06026
2.05602
2.05052
2.04463
2.03882
2.03365
2.02918
2.02545
2.02339
2.02298
2.02297
2.02032
2.01559
2.01039
2.00436
1.99837
1.99366
1.99019
1.98802
1.98754
1.98746
1.98527
1.98069
1.97605
1.97078
1.96498
1.95984
1.95541
1.95228
1.95155
1.95063
1.94703
1.94316
1.93931
1.93514
1.93151
1.92831
1.92535
1.92394
1.92402
1.92326
1.91926
1.91479
1.9101
1.90446
1.89954
1.89628
1.89379
1.89209
1.8921
1.89315
1.89285
1.88987
1.88635
1.88213
1.87697
1.87222
1.86798
1.86374
1.85947
1.85537
1.85202
1.84971
1.84852
1.84738
1.84481
1.84275
1.84115
1.83939
1.8372
1.83461
1.83154
1.82802
1.82436
1.82076
1.81768
1.81575
1.81423
1.81202
1.80882
1.80579
1.80288
1.79996
1.79718
1.7946
1.79217
1.78974
1.78703
1.78363
1.77919
1.77433
1.7705
1.76785
1.76599
1.76538
1.76554
1.76607
1.76601
1.76456
1.76171
1.75839
1.75462
1.74989
1.74415
1.73892
1.73543
1.73326
1.7323
1.73203
1.73184
1.73138
1.73016
1.72818
1.72544
1.7219
1.71733
1.71336
1.71125
1.71026
1.71002
1.70968
1.70919
1.70802
1.70534
1.7013
1.69681
1.69251
1.68868
1.68548
1.68283
1.68018
1.67808
1.67976
1.6923
1.73317
1.79947
1.88256
1.95098
1.99962
2.02431
2.02559
2.02868
2.02663
2.02656
2.02864
2.02795
2.02821
2.02876
2.02995
2.03121
2.0323
2.03301
2.03284
2.03157
2.02888
2.0252
2.02117
2.01762
2.01456
2.01158
2.0095
2.00802
2.00679
2.00563
2.00495
2.00486
2.00489
2.00508
2.00566
2.00637
2.00687
2.00706
2.00686
2.0056
2.00261
1.99864
1.99505
1.99162
1.98835
1.98609
1.98507
1.98433
1.98444
1.98483
1.98499
1.98439
1.98187
1.97701
1.9717
1.968
1.9657
1.96407
1.96324
1.96344
1.96611
1.96896
1.97027
1.97163
1.97275
1.97324
1.97319
1.97302
1.97262
1.9715
1.96878
1.96402
1.95801
1.95193
1.94712
1.9448
1.94434
1.94517
1.94761
1.95047
1.95327
1.9558
1.95705
1.95688
1.95452
1.94834
1.93934
1.93152
1.92678
1.92409
1.92266
1.92252
1.92378
1.92721
1.93268
1.94009
1.9456
1.94853
1.94966
1.94961
1.94757
1.94117
1.93068
1.92108
1.91568
1.91255
1.91077
1.91019
1.91085
1.91416
1.91747
1.91866
1.91934
1.91952
1.91892
1.91668
1.91354
1.91249
1.9128
2.07431
2.06864
2.06344
2.05851
2.05442
2.05252
2.05147
2.04874
2.04285
2.03648
2.02954
2.02271
2.01729
2.01294
2.01034
2.00992
2.00991
2.00803
2.00415
2.00025
1.99588
1.99076
1.98559
1.98149
1.97836
1.97687
1.97567
1.97274
1.96875
1.96446
1.95988
1.9554
1.95154
1.94928
1.94792
1.94502
1.9412
1.93767
1.93383
1.92985
1.92638
1.92332
1.92068
1.91972
1.91948
1.9175
1.91297
1.90857
1.90373
1.89807
1.89291
1.88905
1.88621
1.88462
1.88495
1.88627
1.88604
1.88339
1.8802
1.8766
1.87197
1.86696
1.86218
1.8574
1.85257
1.84801
1.8442
1.84235
1.84191
1.84105
1.83826
1.83585
1.83393
1.83197
1.82995
1.82795
1.82571
1.82297
1.81982
1.81649
1.81308
1.80983
1.80699
1.80407
1.80094
1.79789
1.79493
1.79192
1.78925
1.78726
1.78584
1.78441
1.78202
1.77935
1.77611
1.77147
1.76625
1.76213
1.75932
1.75766
1.75753
1.75749
1.75676
1.75498
1.75294
1.75086
1.74812
1.74476
1.74094
1.7364
1.73192
1.72831
1.72572
1.72396
1.72307
1.72213
1.72155
1.72122
1.72023
1.71794
1.7149
1.71098
1.70682
1.70385
1.70218
1.70116
1.70035
1.69904
1.69699
1.69418
1.69092
1.68777
1.68488
1.68195
1.67922
1.67709
1.67503
1.67314
1.6699
1.67036
1.67833
1.70786
1.77099
1.8471
1.92366
1.97061
2.00396
2.01123
2.01341
2.01588
2.01573
2.01765
2.01882
2.01917
2.01941
2.02023
2.02141
2.02227
2.02245
2.02194
2.02031
2.01692
2.01241
2.00765
2.00325
1.99982
1.9973
1.99556
1.99499
1.99495
1.99512
1.99535
1.99565
1.99623
1.99697
1.99749
1.99781
1.99786
1.99733
1.99546
1.99228
1.9887
1.98515
1.98156
1.97844
1.97652
1.97555
1.97535
1.97568
1.97633
1.97668
1.97628
1.9743
1.97001
1.96426
1.95932
1.95608
1.95398
1.95276
1.95224
1.95345
1.957
1.95918
1.96087
1.96276
1.96434
1.96541
1.96564
1.96539
1.96407
1.96083
1.9555
1.94859
1.94141
1.936
1.934
1.9339
1.93523
1.93887
1.94319
1.9467
1.94929
1.95035
1.95003
1.94724
1.94043
1.93065
1.92197
1.91694
1.9146
1.91359
1.91374
1.91549
1.91904
1.92384
1.93085
1.93763
1.94078
1.94182
1.94174
1.93989
1.93389
1.92324
1.91156
1.90393
1.90032
1.89902
1.89903
1.9004
1.90454
1.90825
1.90996
1.91113
1.91199
1.91194
1.9104
1.90657
1.90325
2.0647
2.05885
2.05349
2.04883
2.04502
2.04409
2.04441
2.04412
2.04013
2.0338
2.02691
2.01861
2.01044
2.00464
2.0004
1.99822
1.99844
1.99943
1.9989
1.99563
1.99172
1.98742
1.98207
1.97654
1.97209
1.96856
1.9658
1.96359
1.96125
1.95834
1.95493
1.95132
1.9485
1.94651
1.94347
1.93933
1.93559
1.93184
1.92809
1.92479
1.92176
1.91889
1.91669
1.91558
1.91394
1.91011
1.90568
1.90097
1.89591
1.89089
1.88652
1.88277
1.87976
1.87819
1.87844
1.87878
1.87788
1.87532
1.87254
1.86944
1.86551
1.86105
1.85648
1.85179
1.84713
1.84271
1.83914
1.83733
1.8363
1.83435
1.8312
1.82868
1.82621
1.82397
1.82207
1.82028
1.81875
1.81719
1.81518
1.81284
1.80972
1.80554
1.80066
1.79622
1.79263
1.78939
1.78639
1.7838
1.78179
1.7805
1.77956
1.77785
1.77506
1.77263
1.77032
1.76753
1.76392
1.76006
1.75651
1.75353
1.75113
1.74956
1.74812
1.74579
1.74315
1.74086
1.73919
1.73748
1.73502
1.73204
1.72893
1.72556
1.72198
1.71847
1.71582
1.71402
1.71282
1.71234
1.71252
1.71231
1.71055
1.70785
1.70454
1.70039
1.69642
1.69391
1.69221
1.69069
1.68891
1.68656
1.68374
1.68108
1.67907
1.6771
1.67455
1.67243
1.67054
1.66858
1.6665
1.66475
1.662
1.66126
1.66615
1.6871
1.74061
1.812
1.88645
1.94311
1.97703
1.99523
1.99897
2.00425
2.00746
2.00866
2.01018
2.01099
2.01124
2.01129
2.0115
2.01172
2.01127
2.00944
2.00653
2.00237
1.99726
1.99242
1.98859
1.98599
1.9851
1.98489
1.98521
1.9857
1.98596
1.98654
1.98714
1.98742
1.98754
1.9876
1.98738
1.9864
1.98457
1.98221
1.97931
1.97571
1.97188
1.9687
1.96654
1.9657
1.96574
1.96619
1.96703
1.96779
1.9678
1.96669
1.96351
1.95807
1.95213
1.94746
1.94423
1.94195
1.94081
1.94097
1.94382
1.94806
1.95105
1.95355
1.95608
1.95778
1.95817
1.95782
1.95613
1.95247
1.94682
1.93959
1.93209
1.92647
1.92456
1.92465
1.92613
1.9304
1.93535
1.93913
1.94163
1.94233
1.94178
1.93857
1.93163
1.92211
1.91345
1.90855
1.90659
1.90587
1.90602
1.9076
1.91114
1.91594
1.92216
1.92915
1.93247
1.93305
1.93278
1.9303
1.92441
1.91481
1.90318
1.89412
1.89015
1.88918
1.8894
1.89062
1.89446
1.89945
1.90235
1.90401
1.90477
1.90492
1.9035
1.8974
2.05742
2.05171
2.04589
2.04124
2.03741
2.03547
2.03544
2.03598
2.03447
2.02878
2.02226
2.0148
2.00603
1.99863
1.99369
1.99024
1.98991
1.99151
1.99235
1.98989
1.98558
1.98171
1.9775
1.9728
1.96794
1.96334
1.95953
1.95636
1.95389
1.95213
1.9501
1.94789
1.94578
1.94271
1.93816
1.93393
1.9298
1.92575
1.92243
1.91964
1.91703
1.91465
1.91309
1.91121
1.90704
1.90235
1.89744
1.89203
1.8871
1.88308
1.87957
1.87669
1.87467
1.87374
1.87312
1.87121
1.86851
1.86626
1.86379
1.86068
1.85707
1.85348
1.84975
1.84584
1.84216
1.83869
1.83616
1.83461
1.8317
1.82777
1.82418
1.821
1.81811
1.81566
1.81364
1.81195
1.81102
1.81084
1.81045
1.80882
1.80578
1.802
1.79713
1.79154
1.78651
1.78241
1.77892
1.77608
1.77466
1.77358
1.77186
1.76906
1.76625
1.76401
1.76208
1.76041
1.75894
1.75725
1.75515
1.75242
1.7487
1.74395
1.73956
1.73662
1.73409
1.73149
1.7291
1.72785
1.72711
1.72596
1.72442
1.72196
1.71892
1.71529
1.71086
1.70732
1.70527
1.70386
1.70346
1.70384
1.70409
1.70301
1.70061
1.69782
1.69403
1.68941
1.68567
1.6832
1.68092
1.67883
1.67659
1.67417
1.67204
1.67047
1.66882
1.66673
1.66497
1.66348
1.66208
1.66047
1.6586
1.65655
1.65399
1.6517
1.65407
1.66864
1.70679
1.77682
1.8454
1.91039
1.94763
1.97422
1.9849
1.99056
1.99753
2.00094
2.00265
2.00389
2.00355
2.00282
2.0016
1.99994
1.99773
1.99441
1.99018
1.98577
1.98156
1.97837
1.97673
1.97596
1.97587
1.97667
1.97709
1.97764
1.97784
1.97765
1.97707
1.97628
1.97566
1.97516
1.97448
1.97358
1.97211
1.96982
1.96664
1.96296
1.95959
1.95727
1.95634
1.9563
1.9568
1.95791
1.95904
1.95938
1.95877
1.95631
1.95162
1.94528
1.93917
1.93443
1.93112
1.92984
1.93
1.93252
1.93772
1.94206
1.94513
1.94778
1.94952
1.94993
1.94941
1.94734
1.94338
1.93768
1.93066
1.92322
1.9174
1.91541
1.91566
1.91714
1.92094
1.92608
1.93027
1.93271
1.93318
1.93252
1.92955
1.92339
1.91479
1.90621
1.90088
1.89884
1.89831
1.89847
1.90017
1.90361
1.90774
1.91216
1.91781
1.92179
1.92221
1.92157
1.91916
1.91421
1.90644
1.89614
1.88633
1.88161
1.88063
1.8811
1.8832
1.88748
1.89315
1.89632
1.89757
1.89798
1.89772
1.89352
2.05162
2.04679
2.041
2.03532
2.03097
2.02726
2.02514
2.02456
2.02444
2.02126
2.01499
2.00867
2.00167
1.9949
1.98989
1.98614
1.98422
1.98428
1.98423
1.9823
1.97823
1.97451
1.97117
1.96783
1.96418
1.96007
1.95598
1.95247
1.94927
1.94649
1.9451
1.94407
1.94183
1.93719
1.93262
1.9283
1.92388
1.92003
1.91693
1.91412
1.91186
1.91073
1.90924
1.90541
1.90061
1.89504
1.88866
1.88301
1.87861
1.87485
1.87181
1.87056
1.87062
1.87084
1.86855
1.86449
1.86039
1.85673
1.8535
1.85045
1.84764
1.84481
1.84199
1.83899
1.8364
1.83493
1.83415
1.83213
1.82789
1.82337
1.81844
1.81366
1.81001
1.80734
1.80512
1.80362
1.80357
1.80431
1.80452
1.80296
1.80007
1.79692
1.79314
1.78842
1.78331
1.77845
1.77423
1.7706
1.76783
1.76558
1.76242
1.75912
1.75619
1.75389
1.75228
1.75138
1.75123
1.75151
1.7516
1.74999
1.74673
1.74202
1.73544
1.72929
1.72532
1.72257
1.72025
1.71866
1.71845
1.7188
1.71883
1.71741
1.71437
1.71131
1.70765
1.70291
1.69903
1.69682
1.69536
1.69515
1.69572
1.6962
1.69542
1.69315
1.69057
1.6871
1.68221
1.67763
1.67467
1.67211
1.66958
1.66741
1.66542
1.66354
1.66183
1.66037
1.65899
1.6577
1.65662
1.65548
1.6543
1.65272
1.65056
1.64769
1.64443
1.64129
1.64125
1.64976
1.6762
1.73249
1.80656
1.87272
1.91993
1.94786
1.97021
1.97853
1.9852
1.99106
1.99536
1.99575
1.99494
1.99268
1.98982
1.9864
1.98272
1.97872
1.97428
1.97013
1.96747
1.96626
1.96586
1.96651
1.9681
1.969
1.96952
1.96961
1.96887
1.96688
1.96436
1.96304
1.96283
1.96269
1.96228
1.96154
1.95995
1.9575
1.95443
1.95147
1.94915
1.94794
1.94766
1.94785
1.94861
1.94962
1.95013
1.94986
1.94813
1.94436
1.93847
1.93171
1.92596
1.92208
1.9207
1.92119
1.92374
1.92848
1.93293
1.93623
1.93866
1.94027
1.94069
1.94012
1.93803
1.9341
1.92845
1.92163
1.91446
1.90854
1.90607
1.9062
1.9078
1.91102
1.91581
1.92056
1.92331
1.9239
1.9233
1.92076
1.91558
1.90785
1.89935
1.89326
1.89089
1.89063
1.89096
1.89263
1.8951
1.89772
1.90054
1.90444
1.90931
1.91135
1.91098
1.909
1.90502
1.89872
1.88976
1.87995
1.87458
1.87371
1.87442
1.87678
1.8802
1.88514
1.88812
1.88841
1.88808
1.88613
2.04548
2.04161
2.03689
2.03107
2.02527
2.02045
2.01612
2.01343
2.01202
2.01061
2.00646
2.00123
1.99604
1.99114
1.98728
1.98399
1.98117
1.97854
1.97588
1.97289
1.97028
1.96739
1.9645
1.9619
1.95926
1.95612
1.95263
1.94939
1.94621
1.94306
1.9409
1.93928
1.93582
1.93102
1.92656
1.9222
1.91798
1.9144
1.91123
1.90855
1.9072
1.90636
1.9036
1.89893
1.89386
1.88746
1.88039
1.87497
1.87077
1.86725
1.86546
1.86584
1.86728
1.86698
1.8635
1.85951
1.85466
1.84874
1.84407
1.84101
1.83834
1.83577
1.83358
1.8321
1.83142
1.83155
1.83121
1.82783
1.82353
1.81937
1.81431
1.80861
1.80382
1.80048
1.79797
1.79616
1.79608
1.79701
1.79714
1.79551
1.79299
1.79042
1.78739
1.78379
1.77988
1.77565
1.77139
1.76759
1.76323
1.75816
1.75338
1.74978
1.74685
1.74444
1.74277
1.74237
1.7435
1.74558
1.74615
1.7448
1.74198
1.7387
1.734
1.72738
1.72103
1.71645
1.71342
1.71161
1.71145
1.7118
1.71171
1.71056
1.70821
1.70553
1.70285
1.6994
1.69495
1.69139
1.68925
1.6879
1.68786
1.68825
1.68846
1.6875
1.68514
1.68249
1.67904
1.67425
1.67003
1.66732
1.66487
1.66242
1.66004
1.65778
1.65571
1.65389
1.65243
1.65141
1.65057
1.64978
1.64898
1.64785
1.64633
1.64416
1.64119
1.63732
1.63333
1.62988
1.62738
1.63173
1.65064
1.69228
1.76462
1.83256
1.89421
1.92719
1.95054
1.96655
1.97511
1.98023
1.98347
1.9841
1.98359
1.98117
1.97748
1.9737
1.96931
1.96421
1.95932
1.95628
1.95524
1.95548
1.95735
1.95898
1.95999
1.96094
1.96108
1.96042
1.95809
1.95518
1.9531
1.952
1.95132
1.95072
1.9505
1.9497
1.94792
1.94552
1.94308
1.94136
1.94018
1.93938
1.93899
1.93896
1.93926
1.93959
1.93945
1.9383
1.93538
1.93084
1.92514
1.91961
1.91558
1.91371
1.91393
1.91578
1.91958
1.92311
1.92584
1.9284
1.93029
1.9308
1.93046
1.9287
1.92488
1.91945
1.91305
1.90617
1.89995
1.89681
1.89668
1.89809
1.90124
1.90526
1.91038
1.91384
1.91471
1.91429
1.91188
1.90736
1.90069
1.89271
1.88579
1.88264
1.88242
1.88276
1.88353
1.88486
1.88677
1.88904
1.89258
1.89778
1.90117
1.901
1.89919
1.89565
1.89068
1.88346
1.87446
1.86818
1.86702
1.86737
1.86904
1.87074
1.8728
1.87562
1.8762
1.87583
2.03729
2.03461
2.03088
2.02629
2.02078
2.01495
2.0095
2.0046
2.00086
1.99876
1.99708
1.99446
1.99112
1.98793
1.98552
1.98263
1.97852
1.9737
1.96902
1.96498
1.96245
1.9614
1.95884
1.9561
1.9537
1.95099
1.94812
1.94534
1.94248
1.93958
1.93726
1.93413
1.92936
1.92464
1.92006
1.91577
1.912
1.90851
1.90544
1.90359
1.90272
1.90085
1.89654
1.89184
1.88635
1.87953
1.87304
1.8682
1.86425
1.86145
1.86114
1.86249
1.86345
1.86136
1.85759
1.85394
1.84919
1.84328
1.83806
1.83425
1.83107
1.8284
1.82658
1.8264
1.82693
1.82731
1.82579
1.8217
1.81777
1.81388
1.8095
1.8046
1.79973
1.79567
1.79254
1.7901
1.78893
1.78903
1.78897
1.78751
1.78524
1.783
1.7805
1.77755
1.77437
1.77137
1.768
1.76418
1.75989
1.75484
1.74898
1.7434
1.73944
1.73704
1.73552
1.73522
1.73647
1.73812
1.73825
1.73738
1.73519
1.73258
1.72948
1.72532
1.72006
1.71514
1.71115
1.70813
1.70617
1.70507
1.70408
1.7021
1.69988
1.69822
1.69646
1.69397
1.69099
1.68749
1.68465
1.68269
1.68131
1.68089
1.68048
1.68011
1.6788
1.67631
1.67353
1.66994
1.66577
1.66281
1.66049
1.65849
1.65633
1.65376
1.65126
1.64887
1.64674
1.64505
1.64394
1.6433
1.64267
1.64187
1.64076
1.63916
1.63706
1.6342
1.63027
1.62555
1.62116
1.61762
1.61455
1.61631
1.6284
1.66099
1.71985
1.79763
1.86169
1.90836
1.9327
1.9497
1.96128
1.96711
1.96993
1.97107
1.97147
1.97004
1.9666
1.96237
1.95734
1.95217
1.94798
1.94574
1.94527
1.9456
1.9477
1.95027
1.9509
1.95093
1.95118
1.95083
1.94895
1.94603
1.94339
1.94171
1.94043
1.93961
1.93896
1.93758
1.93558
1.93386
1.93256
1.93163
1.93095
1.93028
1.92959
1.92904
1.92872
1.92843
1.92775
1.92596
1.92268
1.91835
1.91355
1.9093
1.90687
1.90645
1.90702
1.90833
1.91089
1.91463
1.918
1.92003
1.92084
1.92077
1.91937
1.91586
1.91096
1.90516
1.89864
1.8922
1.88838
1.888
1.88937
1.89261
1.89664
1.90092
1.90437
1.90544
1.90525
1.90334
1.89924
1.89372
1.88665
1.87901
1.87393
1.87276
1.87286
1.87324
1.87433
1.87617
1.87824
1.8812
1.88591
1.89054
1.89096
1.88971
1.8869
1.88301
1.87722
1.86872
1.86083
1.85848
1.85866
1.85893
1.85934
1.8608
1.86383
1.86575
2.02704
2.02501
2.02297
2.01968
2.01562
2.01089
2.00501
1.99863
1.99351
1.98975
1.98815
1.98811
1.98797
1.98705
1.98367
1.9796
1.97488
1.96944
1.96459
1.96049
1.95724
1.95608
1.95386
1.95061
1.94781
1.9449
1.94225
1.93947
1.93667
1.93473
1.93271
1.92842
1.92348
1.91852
1.91361
1.90952
1.90589
1.90247
1.89985
1.89882
1.8976
1.89388
1.88924
1.88437
1.87846
1.87202
1.8667
1.86262
1.85927
1.85774
1.85824
1.85898
1.85787
1.85438
1.85061
1.8466
1.84234
1.83799
1.83372
1.82986
1.82647
1.82355
1.82196
1.82172
1.82153
1.82058
1.81766
1.81424
1.81079
1.80714
1.80325
1.79921
1.79525
1.79148
1.78813
1.78537
1.78322
1.78178
1.78079
1.77926
1.77735
1.77535
1.77311
1.77056
1.768
1.76558
1.76272
1.75879
1.75506
1.75138
1.74697
1.74157
1.73665
1.73316
1.73079
1.72971
1.72988
1.72989
1.72889
1.72737
1.726
1.72449
1.72239
1.71958
1.71658
1.71365
1.71065
1.70773
1.70439
1.70023
1.69633
1.69379
1.69162
1.68947
1.68822
1.68746
1.68561
1.68319
1.68076
1.67845
1.67634
1.67444
1.67305
1.67184
1.67083
1.66938
1.66683
1.66393
1.66038
1.65721
1.65491
1.65333
1.65205
1.64978
1.64751
1.64518
1.64253
1.63992
1.638
1.63666
1.63571
1.63505
1.63419
1.63295
1.63131
1.62916
1.62633
1.6228
1.61824
1.61322
1.60892
1.60575
1.60318
1.60413
1.6109
1.63519
1.68245
1.75524
1.82672
1.88481
1.9117
1.9303
1.94087
1.9504
1.9573
1.96003
1.96033
1.95966
1.95662
1.95249
1.94757
1.94199
1.93698
1.93477
1.93479
1.93518
1.93611
1.93896
1.94152
1.94198
1.94222
1.94198
1.94015
1.9366
1.93333
1.93119
1.92925
1.92787
1.92665
1.92488
1.92326
1.92227
1.92182
1.9217
1.92161
1.92132
1.92076
1.92005
1.91929
1.91836
1.91694
1.91447
1.91087
1.90669
1.90251
1.89905
1.8975
1.89758
1.89851
1.90017
1.90264
1.90653
1.90989
1.91099
1.91082
1.9096
1.90638
1.9019
1.89671
1.89108
1.88534
1.88155
1.88113
1.88263
1.88558
1.88878
1.89204
1.8953
1.89671
1.89653
1.89518
1.89148
1.88659
1.88025
1.87205
1.86511
1.86267
1.86263
1.86315
1.86433
1.86597
1.86776
1.87042
1.87463
1.88004
1.8818
1.88103
1.87881
1.87544
1.87048
1.86231
1.85296
1.84877
1.84839
1.84856
1.84895
1.85084
1.85494
2.01627
2.01389
2.01312
2.01252
2.01022
2.00631
2.00164
1.99547
1.98926
1.98516
1.98274
1.98299
1.98426
1.98322
1.97867
1.974
1.96944
1.96474
1.96063
1.95705
1.95408
1.95197
1.94843
1.9448
1.94109
1.93767
1.93485
1.93198
1.92982
1.92877
1.92673
1.92199
1.91723
1.91248
1.90767
1.90371
1.90023
1.89701
1.89499
1.89385
1.8912
1.8865
1.8817
1.87643
1.87077
1.86571
1.86163
1.85825
1.85621
1.85587
1.8559
1.85433
1.85027
1.84611
1.84191
1.83775
1.83447
1.83167
1.82865
1.82564
1.82321
1.82095
1.81942
1.81792
1.81462
1.8113
1.80842
1.80562
1.80261
1.79925
1.79578
1.79242
1.78927
1.78628
1.7834
1.78076
1.77839
1.77607
1.77377
1.77166
1.76971
1.76771
1.76557
1.76342
1.76112
1.75864
1.75589
1.75224
1.7487
1.7457
1.74281
1.73944
1.73589
1.73267
1.72973
1.72702
1.72435
1.72199
1.72018
1.71813
1.71598
1.714