/*--------------------------------*- C++ -*----------------------------------*\
  =========                 |
  \\      /  F ield         | OpenFOAM: The Open Source CFD Toolbox
   \\    /   O peration     | Website:  https://openfoam.org
    \\  /    A nd           | Version:  7
     \\/     M anipulation  |
\*---------------------------------------------------------------------------*/
FoamFile
{
    version     2.0;
    format      ascii;
    class       volScalarField;
    location    "0.8";
    object      rho;
}
// * * * * * * * * * * * * * * * * * * * * * * * * * * * * * * * * * * * * * //

dimensions      [1 -3 0 0 0 0 0];

internalField   nonuniform List<scalar> 
16192
(
1.0927
1.0887
1.08465
1.08038
1.07427
1.06618
1.06135
1.05999
1.05938
1.05962
1.06328
1.06986
1.07273
1.07264
1.07171
1.06903
1.06355
1.05918
1.05789
1.05707
1.05676
1.05859
1.05944
1.05792
1.05566
1.05214
1.04522
1.03733
1.035
1.03414
1.03349
1.03319
1.03341
1.03538
1.0378
1.03761
1.03632
1.0341
1.0308
1.02679
1.02301
1.02012
1.01772
1.01454
1.01244
1.01201
1.01226
1.0126
1.01271
1.01309
1.01429
1.01637
1.01988
1.02677
1.03441
1.04187
1.04898
1.05153
1.0519
1.05158
1.05202
1.05277
1.05316
1.05462
1.05446
1.05107
1.04581
1.04015
1.03527
1.03354
1.03355
1.03503
1.03906
1.04568
1.05438
1.06644
1.08013
1.08605
1.08657
1.08576
1.08262
1.07737
1.07149
1.06379
1.05537
1.05276
1.05184
1.05152
1.05252
1.05425
1.05346
1.05128
1.04846
1.04449
1.03931
1.03436
1.02995
1.02558
1.02087
1.01605
1.01112
1.00556
0.998495
0.988802
0.97929
0.975091
0.973934
0.973363
0.97297
0.972095
0.971492
0.97121
0.97046
0.968857
0.965405
0.959953
0.953515
0.949409
0.948241
0.947983
0.948872
0.948492
0.946772
0.944962
0.943095
0.940464
0.936466
0.931883
0.928779
0.928283
0.928972
0.931669
0.936924
0.942348
0.943785
0.942921
0.940772
0.937668
0.932143
0.922396
0.913204
0.910781
0.91059
0.910732
0.911388
0.912429
0.91351
0.915134
0.917919
0.920214
0.92003
0.918674
0.916092
0.912579
0.907927
0.901928
0.89779
0.897129
0.897376
0.898809
0.902385
0.907875
0.911333
0.911539
0.910412
0.907128
0.90247
0.89998
0.89854
0.897187
0.895815
0.894911
0.894505
0.894019
0.893097
0.892198
0.892156
0.893259
0.894845
0.895179
0.894319
0.892646
0.892157
0.892229
0.893672
0.89596
0.897772
0.898999
0.899403
0.899163
0.89881
0.898439
0.897487
0.893635
0.883464
0.872201
0.867786
0.866948
0.867035
0.869106
0.875025
0.883938
0.890528
0.892315
0.892488
0.892501
0.891923
0.889757
0.885084
0.881334
0.88129
0.881782
0.883575
0.888064
0.894111
0.897133
0.897393
0.896928
0.895621
0.892882
0.88717
0.878708
0.873094
0.872191
0.872271
0.87356
0.877274
0.885014
0.896749
0.906352
0.909468
0.910086
0.910161
0.910028
0.908817
0.904847
0.897677
0.891512
0.889111
0.888593
0.889009
0.890951
0.894549
0.898464
0.900576
0.900609
0.900194
0.899954
0.900376
0.902591
0.905847
0.907988
0.908304
1.0988
1.09475
1.08961
1.08359
1.07478
1.06607
1.06357
1.06266
1.0622
1.06301
1.06753
1.07222
1.07286
1.0724
1.07106
1.0676
1.06259
1.06031
1.05941
1.05887
1.05978
1.06282
1.0627
1.06105
1.05845
1.05332
1.04423
1.03885
1.03761
1.03674
1.03615
1.03598
1.03692
1.03989
1.04141
1.0409
1.0393
1.03653
1.03258
1.02836
1.02499
1.02239
1.01976
1.01615
1.01456
1.01442
1.01486
1.01568
1.01616
1.01697
1.01867
1.02134
1.02612
1.03393
1.04098
1.0477
1.05118
1.05193
1.05172
1.05126
1.05147
1.05241
1.05442
1.05519
1.05294
1.04862
1.04316
1.0368
1.03414
1.03348
1.03318
1.03478
1.03855
1.04496
1.05503
1.0679
1.08218
1.08637
1.08659
1.08594
1.08288
1.07744
1.07163
1.0655
1.06033
1.05788
1.0566
1.05643
1.05717
1.05654
1.05504
1.05214
1.04766
1.04312
1.03911
1.03538
1.03189
1.02823
1.02407
1.01959
1.01467
1.00822
0.998895
0.989245
0.984983
0.9836
0.982979
0.982967
0.982075
0.980916
0.979856
0.978581
0.976179
0.971696
0.964889
0.956996
0.952462
0.951182
0.950982
0.952356
0.954537
0.953832
0.952163
0.950305
0.947435
0.942704
0.937549
0.934848
0.934466
0.934885
0.937322
0.942011
0.946235
0.947033
0.94598
0.943959
0.941031
0.935488
0.925612
0.916226
0.913164
0.912718
0.912731
0.913387
0.915198
0.917865
0.921464
0.925851
0.92819
0.927637
0.925449
0.921648
0.91705
0.910802
0.903202
0.899159
0.898486
0.898741
0.900503
0.904867
0.91072
0.914058
0.914383
0.913516
0.910497
0.90615
0.903422
0.902209
0.901254
0.900132
0.898758
0.897627
0.896976
0.896311
0.895243
0.894821
0.895106
0.897473
0.900214
0.900558
0.899647
0.899
0.898857
0.899526
0.900261
0.900236
0.900298
0.900513
0.900199
0.899625
0.89898
0.897683
0.893915
0.885842
0.877998
0.874721
0.874092
0.874328
0.877061
0.883127
0.889836
0.89288
0.89303
0.892834
0.892651
0.891496
0.88823
0.883309
0.88133
0.881481
0.882584
0.885938
0.892228
0.898231
0.900121
0.900201
0.899101
0.896647
0.892144
0.884805
0.877718
0.875466
0.875283
0.875577
0.877446
0.882481
0.891361
0.901565
0.907337
0.909148
0.909946
0.910076
0.909859
0.908213
0.904102
0.898784
0.895651
0.89437
0.894429
0.895689
0.898426
0.901648
0.903362
0.903333
0.902987
0.902682
0.902381
0.902472
0.904824
0.908773
0.910541
0.911185
0.911055
1.1028
1.10004
1.09499
1.08789
1.07661
1.06881
1.06718
1.06625
1.06588
1.06716
1.0713
1.07343
1.07321
1.07241
1.07041
1.06622
1.06302
1.06183
1.06112
1.06124
1.06425
1.06615
1.06527
1.06346
1.06021
1.05297
1.04405
1.04128
1.04015
1.03925
1.03878
1.03888
1.04091
1.04373
1.04403
1.04331
1.04133
1.03794
1.03378
1.03005
1.02738
1.02495
1.02217
1.01866
1.0175
1.01747
1.0181
1.01907
1.01976
1.02095
1.02297
1.02613
1.03252
1.04033
1.04642
1.05147
1.05298
1.05273
1.05189
1.05143
1.05193
1.05406
1.0552
1.05386
1.05047
1.04563
1.03923
1.03536
1.0343
1.03374
1.03342
1.03519
1.04106
1.04732
1.05603
1.06614
1.07867
1.08519
1.08592
1.08562
1.08259
1.07642
1.0719
1.06919
1.06627
1.06372
1.06214
1.06145
1.0601
1.05822
1.05545
1.05023
1.0446
1.0424
1.04022
1.03732
1.03439
1.03133
1.02774
1.02352
1.01827
1.01013
0.999858
0.994987
0.993394
0.992196
0.991674
0.991016
0.989816
0.988546
0.986985
0.98377
0.978385
0.970398
0.961421
0.956688
0.955397
0.955099
0.95614
0.959698
0.960472
0.959263
0.957389
0.954332
0.949055
0.943366
0.940929
0.940611
0.940818
0.942741
0.946603
0.949807
0.950151
0.948942
0.946715
0.943634
0.938293
0.92906
0.920234
0.917265
0.916841
0.91674
0.917392
0.919671
0.923334
0.92784
0.932221
0.933888
0.9332
0.930739
0.926945
0.922073
0.91474
0.906329
0.902384
0.901484
0.901594
0.90317
0.907658
0.913225
0.91596
0.91627
0.915846
0.913557
0.909289
0.907083
0.906405
0.905529
0.904309
0.902919
0.901347
0.89999
0.899449
0.899295
0.898962
0.898723
0.899566
0.903347
0.905324
0.905174
0.904015
0.903526
0.903528
0.903117
0.901984
0.901281
0.901256
0.901147
0.900495
0.899605
0.897933
0.894226
0.888211
0.883159
0.881087
0.881021
0.882122
0.885906
0.891648
0.89524
0.895512
0.894814
0.893844
0.892781
0.890549
0.886529
0.883312
0.882894
0.883044
0.884544
0.888908
0.89546
0.899527
0.900301
0.900417
0.900362
0.898859
0.893214
0.8843
0.878313
0.876922
0.876933
0.878161
0.881589
0.8883
0.89724
0.904101
0.906993
0.90841
0.908919
0.909016
0.908781
0.906954
0.902994
0.900516
0.900006
0.900123
0.901195
0.903594
0.90615
0.907168
0.907044
0.906397
0.905472
0.9049
0.904691
0.905226
0.90736
0.910381
0.912227
0.912539
0.91278
0.912745
1.10513
1.10391
1.09997
1.09237
1.08055
1.07376
1.0716
1.07041
1.07002
1.07155
1.07423
1.07442
1.07386
1.07268
1.06957
1.06616
1.06474
1.06389
1.06354
1.06554
1.06903
1.06874
1.06741
1.06529
1.06061
1.05152
1.0453
1.0437
1.04256
1.0417
1.04133
1.04191
1.04469
1.04615
1.04582
1.04464
1.04224
1.03857
1.03489
1.03226
1.03015
1.02786
1.02499
1.02211
1.02114
1.02134
1.02192
1.02237
1.02308
1.02452
1.0268
1.03109
1.03902
1.04546
1.05118
1.05441
1.05468
1.054
1.05294
1.05268
1.05407
1.05499
1.05397
1.05133
1.04761
1.04195
1.03744
1.03611
1.03534
1.03511
1.03579
1.03841
1.04532
1.05121
1.05529
1.06226
1.07152
1.08138
1.08404
1.08383
1.08067
1.07608
1.07432
1.07346
1.07234
1.06985
1.06795
1.06548
1.06224
1.05823
1.05239
1.04681
1.04446
1.04335
1.04226
1.04021
1.0377
1.03505
1.03183
1.02758
1.02101
1.01144
1.00528
1.00329
1.00163
1.00016
0.998889
0.997526
0.996132
0.994441
0.991086
0.985523
0.976755
0.967098
0.962218
0.960986
0.960584
0.961211
0.964741
0.966439
0.965558
0.963864
0.960859
0.955364
0.949043
0.946406
0.946053
0.946067
0.947471
0.950697
0.952981
0.952918
0.951771
0.949649
0.946626
0.941566
0.933364
0.925095
0.921605
0.921272
0.921403
0.922806
0.925827
0.929828
0.933861
0.936712
0.937163
0.936216
0.934334
0.931551
0.926992
0.919475
0.911082
0.907004
0.906102
0.906094
0.907308
0.911152
0.915644
0.917391
0.917391
0.917204
0.915932
0.912738
0.910557
0.91014
0.909938
0.909146
0.907734
0.905505
0.903432
0.902794
0.902623
0.902955
0.903387
0.903476
0.904837
0.907556
0.908151
0.90714
0.905964
0.905711
0.905249
0.903825
0.902611
0.902018
0.901257
0.900453
0.899604
0.898189
0.895398
0.891603
0.88853
0.8877
0.888278
0.890464
0.895122
0.899511
0.900199
0.899281
0.8975
0.895643
0.893649
0.890203
0.885971
0.884264
0.8841
0.884455
0.886656
0.891756
0.897486
0.899882
0.900337
0.900389
0.899891
0.897241
0.891183
0.884214
0.881521
0.88113
0.881577
0.883703
0.888303
0.895098
0.901527
0.904737
0.906209
0.907486
0.907487
0.906349
0.905377
0.904783
0.904157
0.90322
0.902811
0.904085
0.906882
0.909902
0.911665
0.911856
0.911252
0.90998
0.909069
0.908395
0.90796
0.908207
0.910303
0.913125
0.914218
0.914111
0.913699
0.913431
0.913114
1.10666
1.10638
1.10402
1.09637
1.0855
1.07959
1.07658
1.07473
1.07427
1.07558
1.07639
1.07584
1.07499
1.07279
1.06933
1.06774
1.06701
1.06655
1.06754
1.07158
1.07265
1.07143
1.06942
1.06622
1.05973
1.05082
1.04742
1.04603
1.04487
1.04411
1.04386
1.04501
1.0475
1.04774
1.04692
1.04516
1.04271
1.03947
1.03666
1.03486
1.03306
1.03087
1.02799
1.0258
1.0252
1.02528
1.02539
1.02543
1.02629
1.02791
1.03091
1.03719
1.04444
1.05051
1.05567
1.057
1.05653
1.05535
1.05461
1.05504
1.05514
1.05391
1.05191
1.04902
1.04459
1.04015
1.03831
1.03753
1.03735
1.03818
1.04074
1.04406
1.04798
1.05195
1.05354
1.0563
1.06255
1.07155
1.07861
1.08009
1.07868
1.07733
1.07713
1.0792
1.07865
1.07566
1.07268
1.06819
1.06242
1.0551
1.04941
1.04728
1.04625
1.04551
1.04532
1.04424
1.04202
1.03961
1.03656
1.03143
1.02298
1.01609
1.01343
1.01107
1.00881
1.00663
1.00443
1.00244
1.0003
0.997075
0.992009
0.983459
0.973952
0.969176
0.968006
0.967469
0.96766
0.970535
0.972249
0.971292
0.969713
0.966976
0.961498
0.95433
0.950904
0.950405
0.950257
0.951157
0.954026
0.955932
0.955712
0.954683
0.952774
0.949905
0.945338
0.938156
0.930749
0.927226
0.926921
0.927353
0.929747
0.933818
0.93768
0.939882
0.940323
0.939685
0.938512
0.936941
0.934506
0.930482
0.923896
0.916764
0.913004
0.912239
0.912104
0.91295
0.915807
0.918588
0.919057
0.918709
0.9181
0.91701
0.915732
0.914569
0.914159
0.914177
0.913884
0.91295
0.910934
0.907738
0.906372
0.905996
0.90609
0.906879
0.907502
0.907763
0.908545
0.90956
0.909479
0.907818
0.907111
0.906992
0.906306
0.904388
0.903111
0.902686
0.902373
0.901697
0.900546
0.898696
0.896139
0.893939
0.893957
0.895149
0.89808
0.90291
0.905686
0.90524
0.903564
0.90092
0.898167
0.89473
0.890164
0.887314
0.886519
0.886366
0.886914
0.889414
0.894112
0.898115
0.899623
0.900084
0.900095
0.899366
0.896126
0.889759
0.88465
0.883165
0.883189
0.884655
0.888371
0.894483
0.900952
0.904757
0.905973
0.906225
0.906033
0.905711
0.905844
0.905891
0.905351
0.904771
0.905295
0.905854
0.906609
0.908994
0.912893
0.914988
0.915198
0.91505
0.914364
0.91371
0.913396
0.913146
0.91315
0.913725
0.914404
0.915099
0.915506
0.915197
0.914561
0.913775
0.912688
1.10753
1.10764
1.10612
1.09863
1.09103
1.08623
1.08233
1.07947
1.07849
1.07882
1.07842
1.07765
1.07593
1.07251
1.07063
1.07
1.06956
1.07003
1.07366
1.07659
1.07593
1.07408
1.07112
1.06628
1.05868
1.05217
1.04983
1.04838
1.04727
1.04663
1.04655
1.04799
1.04917
1.04891
1.04749
1.04526
1.0435
1.04134
1.03907
1.03746
1.03582
1.03361
1.03096
1.02929
1.02874
1.02861
1.02837
1.02863
1.02973
1.03181
1.03648
1.04341
1.04981
1.0567
1.05946
1.0593
1.05804
1.05704
1.05702
1.05647
1.05485
1.05306
1.05063
1.04678
1.04257
1.04075
1.03997
1.03964
1.04032
1.04347
1.04646
1.04773
1.04886
1.05017
1.05022
1.04989
1.05273
1.05945
1.06916
1.07594
1.07799
1.07908
1.08151
1.08509
1.08372
1.07983
1.07542
1.06931
1.06033
1.05314
1.05087
1.04995
1.04933
1.0493
1.0503
1.04954
1.04752
1.04491
1.04121
1.03492
1.02722
1.02293
1.02009
1.01731
1.01448
1.01152
1.00849
1.00535
1.00189
0.997305
0.989484
0.980903
0.976759
0.975743
0.975129
0.975121
0.977193
0.978438
0.977307
0.97551
0.97273
0.967364
0.959416
0.954605
0.953832
0.953533
0.954001
0.956652
0.958837
0.958724
0.957897
0.956371
0.95385
0.949778
0.9434
0.936663
0.933292
0.933001
0.933664
0.936928
0.941829
0.944944
0.945437
0.944722
0.942757
0.940556
0.938236
0.935537
0.931993
0.927453
0.922698
0.919656
0.919105
0.919045
0.91989
0.921539
0.922154
0.921615
0.920505
0.918787
0.917657
0.917645
0.917852
0.918416
0.919324
0.918909
0.917907
0.916241
0.912828
0.910304
0.909648
0.909504
0.910028
0.910511
0.910578
0.910752
0.910874
0.910972
0.910254
0.908842
0.908448
0.908465
0.907558
0.905534
0.904457
0.904073
0.903776
0.903262
0.902338
0.900777
0.899716
0.900021
0.901342
0.904056
0.908204
0.910231
0.909584
0.907692
0.904853
0.901435
0.896466
0.891758
0.889983
0.889211
0.889092
0.889581
0.891936
0.896037
0.898868
0.899601
0.899657
0.899336
0.897933
0.894168
0.889478
0.887609
0.887285
0.887853
0.89049
0.895
0.899803
0.902999
0.904468
0.905477
0.906084
0.906008
0.905848
0.906266
0.906676
0.906643
0.90629
0.906124
0.906983
0.908812
0.910518
0.912779
0.916146
0.91819
0.918482
0.918422
0.918288
0.918187
0.918289
0.918308
0.917578
0.91681
0.916387
0.916035
0.915577
0.914956
0.91417
0.913002
0.910428
1.10511
1.10782
1.10651
1.09975
1.09658
1.09416
1.08902
1.08482
1.08262
1.08145
1.08044
1.07907
1.07588
1.07335
1.07284
1.07243
1.07247
1.075
1.07963
1.08014
1.0788
1.07664
1.07258
1.06554
1.05904
1.05545
1.05286
1.0511
1.04998
1.04942
1.04949
1.05046
1.05043
1.04976
1.04798
1.04586
1.045
1.04372
1.04168
1.04003
1.03833
1.03602
1.03373
1.03224
1.03157
1.03113
1.03123
1.03214
1.03384
1.03724
1.04344
1.04952
1.05682
1.06219
1.06272
1.06144
1.06
1.0595
1.0589
1.05692
1.05482
1.05254
1.04896
1.04463
1.04256
1.0419
1.04164
1.0421
1.04488
1.04911
1.04941
1.04847
1.048
1.04705
1.04538
1.04279
1.04365
1.04892
1.05898
1.07095
1.07836
1.0822
1.08634
1.08797
1.08624
1.08205
1.07688
1.0694
1.05952
1.0554
1.05434
1.05378
1.05377
1.0554
1.05644
1.05546
1.05368
1.05074
1.04505
1.03782
1.03287
1.02927
1.02547
1.02202
1.01881
1.0153
1.01127
1.00673
1.00155
0.994298
0.987329
0.984084
0.983296
0.982872
0.98301
0.984481
0.984799
0.983587
0.981866
0.978892
0.973366
0.964742
0.958261
0.956892
0.956473
0.956523
0.958645
0.961596
0.961931
0.961376
0.960294
0.958315
0.954762
0.94909
0.942879
0.93981
0.939507
0.940228
0.943869
0.94872
0.95081
0.950723
0.949207
0.946233
0.942456
0.938438
0.935042
0.932722
0.930744
0.92825
0.926441
0.926131
0.926542
0.92761
0.927689
0.926884
0.925169
0.922631
0.919782
0.918801
0.918918
0.919776
0.921762
0.924273
0.924607
0.923448
0.921312
0.917968
0.914699
0.913589
0.913193
0.91335
0.913609
0.913397
0.913205
0.912795
0.912443
0.912492
0.911663
0.910639
0.910421
0.910442
0.909194
0.907492
0.906782
0.906603
0.906634
0.906384
0.905894
0.905383
0.905548
0.906306
0.907868
0.910714
0.912963
0.912743
0.911339
0.908745
0.905146
0.899308
0.894751
0.893322
0.892862
0.892709
0.89308
0.894873
0.897363
0.899003
0.899597
0.899538
0.898981
0.89696
0.893223
0.89071
0.890096
0.890279
0.892406
0.896857
0.901351
0.903824
0.904716
0.904946
0.904843
0.904572
0.904611
0.905202
0.906701
0.908236
0.908649
0.908658
0.908657
0.908727
0.909358
0.911161
0.913441
0.915953
0.919624
0.921937
0.922235
0.922246
0.921937
0.921357
0.92108
0.920772
0.919956
0.918736
0.91774
0.916741
0.915582
0.914136
0.912395
0.909272
0.904929
1.09301
1.10659
1.10607
1.10299
1.10194
1.10131
1.09635
1.09016
1.08624
1.0838
1.08181
1.07891
1.07598
1.07533
1.07511
1.07503
1.07632
1.08076
1.08374
1.08297
1.08126
1.07889
1.0742
1.06665
1.06158
1.05927
1.05687
1.05455
1.05322
1.05254
1.05248
1.0523
1.05175
1.05066
1.04861
1.04735
1.04671
1.04602
1.04439
1.04259
1.04066
1.03836
1.03622
1.03472
1.03371
1.03353
1.03425
1.03616
1.03924
1.04452
1.05035
1.05657
1.06434
1.06647
1.066
1.0639
1.06274
1.06192
1.06002
1.05734
1.05466
1.0513
1.04684
1.04396
1.04315
1.04296
1.04315
1.04498
1.04951
1.05181
1.05039
1.0483
1.04664
1.0441
1.04006
1.03655
1.03686
1.04134
1.05114
1.065
1.07773
1.08501
1.08856
1.08869
1.08718
1.08344
1.07778
1.0702
1.06315
1.06044
1.05941
1.05916
1.06002
1.06195
1.06187
1.0608
1.05851
1.05421
1.04759
1.04137
1.0378
1.03451
1.03036
1.02615
1.02239
1.01836
1.01304
1.00637
0.998602
0.992968
0.990644
0.990061
0.98993
0.990884
0.992051
0.991349
0.989955
0.988398
0.985553
0.979872
0.970537
0.962532
0.960331
0.959833
0.959607
0.960742
0.963987
0.965259
0.964966
0.964248
0.962755
0.959691
0.954673
0.94914
0.946605
0.946302
0.947014
0.950544
0.954592
0.955708
0.955283
0.953505
0.949854
0.944017
0.938079
0.935322
0.934551
0.933872
0.93299
0.932558
0.93292
0.934442
0.935086
0.934468
0.932612
0.929211
0.924919
0.921339
0.920382
0.92048
0.921488
0.924136
0.927845
0.929262
0.928701
0.9269
0.923588
0.919565
0.917911
0.917264
0.917131
0.917213
0.916839
0.916413
0.915615
0.914215
0.914337
0.914581
0.913855
0.913168
0.913181
0.913109
0.911717
0.910629
0.910271
0.910474
0.910694
0.910478
0.909797
0.909353
0.909456
0.910007
0.911562
0.914057
0.914714
0.914038
0.912233
0.909058
0.903276
0.8986
0.897156
0.896722
0.896537
0.896735
0.89791
0.899508
0.900215
0.900038
0.899653
0.898662
0.896341
0.894336
0.893624
0.89354
0.894697
0.898438
0.90313
0.905125
0.905305
0.905205
0.905342
0.905627
0.90571
0.905826
0.906112
0.907512
0.910231
0.911541
0.911517
0.9112
0.910979
0.911052
0.911512
0.913228
0.91646
0.919803
0.922969
0.924238
0.924482
0.92452
0.924131
0.922611
0.921655
0.921228
0.920735
0.919599
0.918149
0.916834
0.915716
0.914303
0.911082
0.907504
0.905515
1.06531
1.09972
1.10565
1.10695
1.1067
1.10669
1.1026
1.09563
1.09002
1.08585
1.08199
1.07855
1.07724
1.07715
1.07717
1.07796
1.08099
1.0858
1.08654
1.08516
1.08331
1.08068
1.0755
1.0689
1.06551
1.06336
1.06098
1.0587
1.05707
1.05602
1.05519
1.05422
1.05303
1.05142
1.04997
1.04908
1.04845
1.04841
1.04723
1.04523
1.04312
1.04081
1.03851
1.03667
1.03594
1.0362
1.03789
1.04132
1.04607
1.05181
1.05705
1.06459
1.07033
1.07073
1.06942
1.06707
1.06561
1.0638
1.06092
1.05738
1.05374
1.04939
1.04552
1.04404
1.04376
1.04379
1.04468
1.04805
1.05254
1.05279
1.05083
1.04804
1.04538
1.04131
1.03624
1.03314
1.03303
1.03633
1.04488
1.05803
1.07378
1.08589
1.08887
1.08875
1.08762
1.08404
1.0783
1.07374
1.07073
1.06771
1.0658
1.06555
1.06643
1.06655
1.06563
1.06362
1.05985
1.05538
1.05064
1.04601
1.04229
1.03884
1.03482
1.03035
1.02587
1.02055
1.01301
1.00398
0.998599
0.996892
0.996425
0.996489
0.998088
0.99942
0.998487
0.996763
0.994974
0.992154
0.986665
0.977103
0.967762
0.964687
0.964037
0.963669
0.964036
0.966556
0.968635
0.968582
0.968082
0.966923
0.964154
0.959575
0.954902
0.953036
0.95283
0.953865
0.957272
0.960032
0.960202
0.959414
0.957402
0.953159
0.945565
0.93854
0.936744
0.936437
0.936405
0.936797
0.937921
0.940042
0.942164
0.942291
0.941175
0.938465
0.934058
0.927931
0.923338
0.922308
0.922353
0.923305
0.926071
0.930303
0.932533
0.932439
0.931567
0.929532
0.92573
0.922874
0.92196
0.921529
0.921505
0.921186
0.920656
0.91972
0.917331
0.916019
0.916861
0.917191
0.916788
0.916398
0.916857
0.916729
0.9155
0.914714
0.914618
0.914603
0.914095
0.912822
0.911453
0.91118
0.911295
0.912048
0.914125
0.916018
0.915867
0.914777
0.91257
0.907759
0.902724
0.901259
0.900878
0.900629
0.90064
0.901309
0.901897
0.901681
0.901333
0.900892
0.899598
0.898016
0.896929
0.896416
0.896796
0.899704
0.904939
0.907912
0.908009
0.907088
0.905957
0.905145
0.905058
0.905224
0.905938
0.90744
0.909797
0.912619
0.913977
0.913908
0.913388
0.9126
0.91231
0.912358
0.913245
0.916163
0.920472
0.922918
0.924045
0.924806
0.925219
0.925253
0.924938
0.92346
0.921936
0.921309
0.920824
0.919721
0.917744
0.915943
0.914594
0.913189
0.911731
0.910617
0.910603
1.03461
1.08155
1.10283
1.10875
1.10981
1.11037
1.10751
1.10096
1.09437
1.08839
1.08262
1.07945
1.07912
1.07893
1.0791
1.08092
1.0856
1.0894
1.08868
1.08696
1.08508
1.08231
1.07713
1.07201
1.0696
1.0676
1.06523
1.06305
1.06129
1.05968
1.05787
1.05591
1.0542
1.05285
1.05186
1.05099
1.05057
1.05113
1.05017
1.04808
1.0458
1.04321
1.04035
1.03875
1.03863
1.03945
1.04263
1.04747
1.05306
1.05804
1.06394
1.07228
1.07501
1.07481
1.0731
1.07066
1.0683
1.06529
1.06119
1.05673
1.0523
1.0478
1.04528
1.04438
1.04429
1.04449
1.04648
1.05114
1.05395
1.05322
1.05116
1.04817
1.04461
1.0393
1.0338
1.03219
1.03143
1.03316
1.03951
1.05032
1.06651
1.08302
1.08819
1.08825
1.08749
1.08484
1.08171
1.08036
1.07923
1.07587
1.07297
1.07172
1.07087
1.06946
1.06711
1.06354
1.0605
1.05775
1.05442
1.05041
1.04648
1.04281
1.03888
1.03426
1.02848
1.0211
1.01163
1.00513
1.00353
1.00295
1.00288
1.00464
1.00647
1.00562
1.00388
1.00197
0.998974
0.993316
0.983795
0.974173
0.97044
0.96953
0.968933
0.968819
0.970211
0.972247
0.972353
0.971886
0.970669
0.967848
0.963605
0.959824
0.958581
0.958577
0.960295
0.963805
0.965439
0.964947
0.963751
0.961294
0.956266
0.947328
0.939992
0.938418
0.938315
0.938772
0.9402
0.942809
0.946594
0.949408
0.949369
0.947858
0.944376
0.939161
0.931685
0.926208
0.924989
0.924862
0.925295
0.927669
0.931986
0.934954
0.935062
0.934692
0.934095
0.932283
0.929062
0.927518
0.926795
0.926541
0.926268
0.925776
0.924741
0.922008
0.918697
0.918403
0.919467
0.920187
0.920221
0.920416
0.921466
0.920988
0.919928
0.919307
0.918728
0.917608
0.915548
0.913308
0.912563
0.912524
0.912803
0.914192
0.91662
0.917391
0.916787
0.915088
0.911656
0.907247
0.905392
0.904996
0.904879
0.904984
0.904992
0.90471
0.904217
0.903426
0.902125
0.900984
0.900279
0.899824
0.899752
0.901001
0.905437
0.910781
0.912283
0.911495
0.909281
0.906503
0.905234
0.905167
0.905331
0.906039
0.908153
0.911733
0.914538
0.9154
0.915365
0.914874
0.913877
0.91335
0.913238
0.91375
0.916533
0.920785
0.922831
0.923461
0.92393
0.924229
0.92476
0.9248
0.924473
0.923833
0.923132
0.922561
0.922078
0.921321
0.920184
0.918455
0.916875
0.915845
0.915556
0.916074
0.918378
1.01219
1.05547
1.09044
1.10706
1.11188
1.113
1.11125
1.10584
1.09909
1.09216
1.08503
1.08216
1.08151
1.08102
1.08119
1.08401
1.08999
1.09202
1.09057
1.08868
1.08663
1.08354
1.07858
1.07513
1.07346
1.07163
1.06947
1.06752
1.06564
1.0634
1.0603
1.05748
1.05592
1.05488
1.05394
1.05318
1.05355
1.05438
1.053
1.05086
1.0484
1.04515
1.04221
1.04152
1.04168
1.04349
1.04797
1.05379
1.05907
1.06386
1.07154
1.0783
1.07891
1.07839
1.07661
1.07396
1.07062
1.06634
1.06109
1.05595
1.05095
1.04712
1.04533
1.0448
1.04471
1.04538
1.04904
1.05394
1.05465
1.05343
1.05149
1.04858
1.04418
1.03871
1.03342
1.03169
1.03068
1.0313
1.03518
1.04275
1.05584
1.07443
1.0845
1.08758
1.08816
1.08753
1.08688
1.08799
1.08734
1.08366
1.07962
1.07633
1.07327
1.07017
1.06611
1.06378
1.06263
1.06096
1.05793
1.05407
1.0504
1.0468
1.04256
1.03688
1.02943
1.02051
1.01364
1.01147
1.01057
1.0102
1.01105
1.01316
1.01268
1.01093
1.00893
1.00606
1.00047
0.990697
0.980823
0.977018
0.976148
0.975493
0.97508
0.975391
0.97647
0.976426
0.975842
0.974347
0.971054
0.966717
0.96373
0.962979
0.963296
0.965882
0.96964
0.97063
0.969788
0.968282
0.965442
0.959854
0.949933
0.942128
0.940336
0.940272
0.941003
0.943298
0.947364
0.952444
0.955756
0.955928
0.954546
0.950656
0.944363
0.935525
0.929591
0.928237
0.927923
0.927955
0.92918
0.932749
0.936723
0.937729
0.937486
0.937214
0.937353
0.936076
0.934061
0.933035
0.932499
0.932021
0.931331
0.929854
0.926767
0.922667
0.920868
0.921119
0.922253
0.923328
0.924067
0.925548
0.926209
0.925353
0.924363
0.923384
0.921485
0.918617
0.915467
0.914271
0.914104
0.914151
0.914978
0.917177
0.918734
0.918535
0.917311
0.914522
0.910983
0.909525
0.909146
0.908908
0.908894
0.908646
0.908092
0.907206
0.905878
0.904499
0.903533
0.903037
0.902869
0.903333
0.906067
0.911691
0.91613
0.916586
0.915235
0.91187
0.907252
0.905828
0.905594
0.90566
0.906368
0.908637
0.913007
0.916018
0.916496
0.916482
0.916193
0.91535
0.91471
0.914528
0.914818
0.917084
0.920893
0.922758
0.923247
0.923534
0.923106
0.922587
0.923308
0.923442
0.9231
0.922881
0.922893
0.92342
0.924239
0.924483
0.923934
0.922585
0.922046
0.922037
0.922237
0.923016
0.924578
1.00056
1.02751
1.06907
1.09816
1.11249
1.11509
1.11411
1.11028
1.10423
1.09757
1.09025
1.08596
1.08467
1.08382
1.08389
1.08757
1.09355
1.09392
1.09228
1.0903
1.08771
1.08395
1.07974
1.07822
1.07713
1.07546
1.07367
1.07203
1.07005
1.06678
1.06221
1.0594
1.05823
1.05727
1.05636
1.05618
1.05779
1.05739
1.05555
1.05335
1.05041
1.04658
1.04474
1.04457
1.0451
1.04787
1.05326
1.05957
1.06434
1.07014
1.07912
1.08251
1.08252
1.08172
1.07971
1.07655
1.07233
1.06707
1.06122
1.0555
1.0501
1.04706
1.04575
1.04532
1.04523
1.04706
1.05252
1.05583
1.05532
1.05381
1.05187
1.04897
1.04418
1.03851
1.03394
1.03199
1.03074
1.0303
1.03225
1.03661
1.04519
1.06181
1.07786
1.08599
1.08969
1.09136
1.09321
1.09539
1.09372
1.0895
1.08426
1.0786
1.07351
1.06845
1.06594
1.06524
1.06474
1.06358
1.06098
1.05762
1.05427
1.05053
1.04524
1.03785
1.02907
1.02279
1.02066
1.01935
1.01855
1.01855
1.01972
1.01962
1.01806
1.01596
1.01307
1.00786
0.998604
0.9881
0.983944
0.983089
0.982583
0.982494
0.982318
0.981808
0.981229
0.980369
0.978092
0.973829
0.969305
0.966964
0.966514
0.967226
0.970578
0.974759
0.975685
0.97478
0.973026
0.969776
0.96365
0.953063
0.945054
0.943139
0.943008
0.943575
0.946204
0.951521
0.95775
0.961288
0.961651
0.960736
0.95709
0.950151
0.939778
0.932921
0.931511
0.931075
0.930929
0.931391
0.933609
0.937354
0.93989
0.940476
0.940624
0.941368
0.942469
0.941644
0.940233
0.939269
0.938385
0.93708
0.934495
0.930973
0.926715
0.923834
0.923576
0.924057
0.925325
0.92682
0.928914
0.930966
0.930652
0.929588
0.928271
0.925868
0.922314
0.918175
0.91654
0.916231
0.91618
0.916676
0.918522
0.920276
0.920248
0.919294
0.917009
0.914126
0.912943
0.912762
0.912851
0.912692
0.912247
0.911591
0.910375
0.908785
0.907574
0.906881
0.90653
0.906452
0.907566
0.911497
0.917535
0.920852
0.920737
0.918868
0.914809
0.908685
0.906912
0.90659
0.906551
0.907116
0.909381
0.913444
0.916629
0.917266
0.917334
0.917219
0.916615
0.916116
0.915975
0.916489
0.918736
0.921493
0.922464
0.922671
0.922862
0.922755
0.921464
0.921871
0.923357
0.924385
0.924614
0.924814
0.925731
0.927763
0.929791
0.930401
0.93009
0.929298
0.927445
0.926089
0.925928
0.926038
0.926116
0.995537
1.00802
1.04186
1.07967
1.10814
1.11689
1.11682
1.11483
1.11046
1.10434
1.09636
1.09047
1.08842
1.08724
1.08725
1.09137
1.09579
1.09528
1.09363
1.09143
1.08803
1.08384
1.08176
1.08129
1.08058
1.07913
1.07773
1.07633
1.07392
1.06893
1.06381
1.06193
1.06101
1.06009
1.05952
1.06084
1.06162
1.05999
1.05788
1.05535
1.05147
1.04813
1.04754
1.04757
1.04869
1.05222
1.05852
1.06461
1.06956
1.07697
1.08495
1.08624
1.08603
1.08489
1.08246
1.07868
1.07374
1.06787
1.0616
1.05513
1.04999
1.04766
1.04663
1.04618
1.04645
1.0502
1.05605
1.05708
1.05602
1.0544
1.05233
1.0491
1.04435
1.03932
1.03557
1.03314
1.03127
1.02974
1.03014
1.03226
1.03752
1.05065
1.06953
1.08273
1.09055
1.09527
1.09912
1.09983
1.09748
1.09295
1.0868
1.07937
1.07153
1.06743
1.06672
1.06632
1.0666
1.06617
1.06416
1.0613
1.05794
1.0532
1.04619
1.03737
1.03142
1.02943
1.028
1.02713
1.0271
1.02693
1.02651
1.02542
1.02347
1.0205
1.0153
1.00677
0.996631
0.991814
0.990647
0.989969
0.989893
0.989904
0.988924
0.987649
0.985768
0.982072
0.976644
0.97175
0.969714
0.96945
0.970474
0.974441
0.979364
0.980554
0.979737
0.977961
0.974537
0.968075
0.95708
0.948675
0.946588
0.946367
0.9467
0.949224
0.955151
0.962431
0.966201
0.966646
0.966111
0.963075
0.956305
0.944901
0.936259
0.934495
0.934013
0.933762
0.933872
0.935051
0.937929
0.941202
0.943069
0.944184
0.945751
0.948276
0.949005
0.948001
0.946522
0.944844
0.942299
0.9388
0.934979
0.93049
0.926848
0.92607
0.926267
0.927255
0.929015
0.931613
0.93499
0.935818
0.934926
0.933385
0.930608
0.926538
0.921572
0.919454
0.919025
0.918924
0.919302
0.920929
0.922385
0.922237
0.92124
0.919169
0.91687
0.915952
0.915776
0.916124
0.916506
0.91611
0.915256
0.913827
0.912174
0.911238
0.910769
0.910463
0.910509
0.912247
0.916907
0.922398
0.924555
0.924196
0.922369
0.918025
0.910786
0.908355
0.907945
0.907876
0.908441
0.91068
0.913853
0.916152
0.917116
0.917348
0.917454
0.917375
0.917372
0.91761
0.918595
0.920578
0.92232
0.922799
0.922845
0.922682
0.921932
0.919739
0.919054
0.920008
0.921501
0.923257
0.925705
0.929022
0.932622
0.935123
0.935993
0.93585
0.934997
0.932814
0.929336
0.927086
0.92678
0.926701
0.926543
0.993566
0.998846
1.01878
1.05347
1.09152
1.11691
1.12007
1.11946
1.11696
1.1113
1.10244
1.09581
1.09303
1.09139
1.09129
1.09496
1.09718
1.09634
1.09475
1.09225
1.08793
1.08506
1.08434
1.08427
1.08393
1.0827
1.08146
1.0799
1.07616
1.06974
1.06608
1.06506
1.06425
1.06355
1.06416
1.06604
1.06485
1.06256
1.06014
1.05652
1.05192
1.05013
1.05001
1.0503
1.05213
1.05674
1.06371
1.06933
1.07502
1.08366
1.08942
1.0898
1.08937
1.0879
1.08503
1.08068
1.07518
1.06888
1.06204
1.05514
1.05098
1.04908
1.04813
1.04773
1.04902
1.05466
1.05851
1.05815
1.05678
1.05504
1.05263
1.04912
1.04491
1.04076
1.03744
1.03445
1.03154
1.0296
1.02948
1.0308
1.03364
1.04239
1.06033
1.07734
1.09019
1.09854
1.10189
1.10168
1.09944
1.09462
1.0882
1.07876
1.06995
1.0681
1.0676
1.06764
1.06919
1.06907
1.06734
1.06462
1.06048
1.0541
1.04533
1.03919
1.03737
1.03602
1.03476
1.03459
1.03519
1.03388
1.03269
1.03122
1.02857
1.0238
1.01545
1.0055
1.0005
0.999358
0.998365
0.997717
0.997436
0.996644
0.995285
0.99232
0.986957
0.980086
0.974685
0.972628
0.972395
0.973371
0.977475
0.983284
0.985304
0.984639
0.982886
0.979453
0.973012
0.962025
0.953254
0.950876
0.95057
0.95071
0.952865
0.958742
0.966522
0.97057
0.971095
0.970778
0.968272
0.962129
0.950828
0.94032
0.93751
0.936861
0.93649
0.936394
0.93685
0.938776
0.942072
0.945218
0.947661
0.950443
0.953942
0.955532
0.954923
0.953329
0.950763
0.947059
0.943184
0.939036
0.93402
0.929796
0.928616
0.928623
0.929309
0.931185
0.93425
0.938483
0.940751
0.940242
0.938599