/*--------------------------------*- C++ -*----------------------------------*\
  =========                 |
  \\      /  F ield         | OpenFOAM: The Open Source CFD Toolbox
   \\    /   O peration     | Website:  https://openfoam.org
    \\  /    A nd           | Version:  7
     \\/     M anipulation  |
\*---------------------------------------------------------------------------*/
FoamFile
{
    version     2.0;
    format      ascii;
    class       volVectorField;
    location    "0.8";
    object      U;
}
// * * * * * * * * * * * * * * * * * * * * * * * * * * * * * * * * * * * * * //

dimensions      [0 1 -1 0 0 0 0];

internalField   nonuniform List<vector> 
16192
(
(2.7291 0.0253284 0)
(2.7358 0.0238709 0)
(2.74231 0.0187959 0)
(2.74518 0.0137863 0)
(2.74392 0.00925738 0)
(2.73943 0.00664256 0)
(2.73818 0.008195 0)
(2.74029 0.0109378 0)
(2.74267 0.0139463 0)
(2.74644 0.0160805 0)
(2.75292 0.0176397 0)
(2.76085 0.0180128 0)
(2.76502 0.0170533 0)
(2.76559 0.0166688 0)
(2.7662 0.0158904 0)
(2.7661 0.0154507 0)
(2.76392 0.0159654 0)
(2.76347 0.0176365 0)
(2.76617 0.0186017 0)
(2.7688 0.0191463 0)
(2.77199 0.0195465 0)
(2.77823 0.0203005 0)
(2.78223 0.0204731 0)
(2.78504 0.0201211 0)
(2.78878 0.0202317 0)
(2.79147 0.0208124 0)
(2.79122 0.0197531 0)
(2.78957 0.0171793 0)
(2.79233 0.0167064 0)
(2.79487 0.0168102 0)
(2.79746 0.0167138 0)
(2.80008 0.0161738 0)
(2.80312 0.0158249 0)
(2.8069 0.0164665 0)
(2.81053 0.0176547 0)
(2.81179 0.0179964 0)
(2.81367 0.0186255 0)
(2.81533 0.0199463 0)
(2.81652 0.0211107 0)
(2.81774 0.0209814 0)
(2.82 0.020452 0)
(2.82349 0.0200452 0)
(2.82748 0.019607 0)
(2.83187 0.0203859 0)
(2.83777 0.0206602 0)
(2.84003 0.0206345 0)
(2.84184 0.020704 0)
(2.84203 0.0210216 0)
(2.84172 0.0212805 0)
(2.84127 0.021378 0)
(2.8401 0.0208712 0)
(2.83827 0.0204844 0)
(2.83586 0.02159 0)
(2.8316 0.0197625 0)
(2.82455 0.0119397 0)
(2.81827 0.00769485 0)
(2.81171 0.00800439 0)
(2.80508 0.00856123 0)
(2.80257 0.00754791 0)
(2.80112 0.00390087 0)
(2.80151 0.00148484 0)
(2.8023 0.00139389 0)
(2.80488 0.00386196 0)
(2.81006 0.0100055 0)
(2.81327 0.0154846 0)
(2.8183 0.0184185 0)
(2.82581 0.0202038 0)
(2.8312 0.0212723 0)
(2.83309 0.0243029 0)
(2.8337 0.0260819 0)
(2.8339 0.0259219 0)
(2.83347 0.0265163 0)
(2.83127 0.0303216 0)
(2.82766 0.0360147 0)
(2.82182 0.0446743 0)
(2.81549 0.0555117 0)
(2.81207 0.0671579 0)
(2.8122 0.0718444 0)
(2.8125 0.0718626 0)
(2.8133 0.0714846 0)
(2.81585 0.0710624 0)
(2.81895 0.0706785 0)
(2.82125 0.0690724 0)
(2.82178 0.0656524 0)
(2.82477 0.0620394 0)
(2.83144 0.0618554 0)
(2.83554 0.0619671 0)
(2.83967 0.0625474 0)
(2.84517 0.0642086 0)
(2.84942 0.0664038 0)
(2.85127 0.0668357 0)
(2.85438 0.0658876 0)
(2.85666 0.0624622 0)
(2.8581 0.0586218 0)
(2.8602 0.0544804 0)
(2.86333 0.0502882 0)
(2.8673 0.0473839 0)
(2.87211 0.0455799 0)
(2.87781 0.0435035 0)
(2.88421 0.0405802 0)
(2.89087 0.0372529 0)
(2.89713 0.0335443 0)
(2.90171 0.0283746 0)
(2.90317 0.0212874 0)
(2.90272 0.0144219 0)
(2.90594 0.0123373 0)
(2.90967 0.0130005 0)
(2.91378 0.0147623 0)
(2.91898 0.015985 0)
(2.92467 0.016019 0)
(2.93028 0.0154945 0)
(2.93482 0.0143277 0)
(2.93767 0.0127341 0)
(2.94008 0.0097397 0)
(2.94111 0.0050718 0)
(2.93901 -0.00108896 0)
(2.93479 -0.00809426 0)
(2.93257 -0.0131925 0)
(2.93379 -0.0151364 0)
(2.93582 -0.0158666 0)
(2.94123 -0.0169504 0)
(2.94408 -0.0175186 0)
(2.94838 -0.0185764 0)
(2.95248 -0.0200556 0)
(2.95548 -0.0212486 0)
(2.95705 -0.0229206 0)
(2.95685 -0.0256447 0)
(2.95492 -0.0293199 0)
(2.95334 -0.0324678 0)
(2.95318 -0.0334852 0)
(2.95393 -0.0339592 0)
(2.95658 -0.0335678 0)
(2.96193 -0.0310518 0)
(2.96869 -0.028669 0)
(2.9724 -0.0285608 0)
(2.97417 -0.0295411 0)
(2.97617 -0.032292 0)
(2.97593 -0.0352372 0)
(2.9731 -0.0382142 0)
(2.96716 -0.0439459 0)
(2.96111 -0.0505732 0)
(2.95927 -0.0534248 0)
(2.95928 -0.0539136 0)
(2.95957 -0.054117 0)
(2.96022 -0.0537629 0)
(2.96107 -0.0522369 0)
(2.96263 -0.0499781 0)
(2.96575 -0.0473746 0)
(2.97021 -0.043575 0)
(2.97512 -0.0395512 0)
(2.97747 -0.0381724 0)
(2.98055 -0.0380976 0)
(2.98272 -0.0395286 0)
(2.98221 -0.0428004 0)
(2.97965 -0.0473832 0)
(2.9756 -0.0538764 0)
(2.97249 -0.0591121 0)
(2.9718 -0.0607449 0)
(2.97173 -0.0609721 0)
(2.97232 -0.0602638 0)
(2.97488 -0.0575293 0)
(2.97943 -0.052906 0)
(2.98271 -0.0497168 0)
(2.98309 -0.0494476 0)
(2.98316 -0.0507561 0)
(2.98239 -0.0535271 0)
(2.98168 -0.0567508 0)
(2.98283 -0.0588112 0)
(2.98462 -0.0591294 0)
(2.98634 -0.0592166 0)
(2.98803 -0.0599557 0)
(2.98971 -0.0602477 0)
(2.99121 -0.0598331 0)
(2.99216 -0.058837 0)
(2.99267 -0.0571425 0)
(2.99243 -0.0557701 0)
(2.99249 -0.0557805 0)
(2.99256 -0.0553865 0)
(2.98956 -0.0518431 0)
(2.9872 -0.0491853 0)
(2.9843 -0.0482568 0)
(2.9847 -0.0481789 0)
(2.98646 -0.0479102 0)
(2.98862 -0.0467352 0)
(2.9932 -0.0439372 0)
(2.99975 -0.0404617 0)
(3.00631 -0.0377488 0)
(3.01171 -0.0362863 0)
(3.01504 -0.0366518 0)
(3.01678 -0.0378118 0)
(3.0188 -0.0394831 0)
(3.01982 -0.0416333 0)
(3.01976 -0.0437931 0)
(3.01672 -0.0477585 0)
(3.00825 -0.0553622 0)
(2.99846 -0.0612948 0)
(2.99516 -0.0617276 0)
(2.99533 -0.060368 0)
(2.99627 -0.0585286 0)
(2.99889 -0.0543766 0)
(3.00369 -0.0470966 0)
(3.01114 -0.037528 0)
(3.0177 -0.0312138 0)
(3.02045 -0.0300461 0)
(3.02118 -0.0305498 0)
(3.02121 -0.0309951 0)
(3.02088 -0.0322402 0)
(3.0195 -0.0351257 0)
(3.01626 -0.0402657 0)
(3.01264 -0.0445153 0)
(3.01171 -0.045294 0)
(3.0108 -0.0446018 0)
(3.01076 -0.0413263 0)
(3.01247 -0.0344715 0)
(3.01552 -0.0258421 0)
(3.01671 -0.0200393 0)
(3.0166 -0.0185993 0)
(3.01576 -0.018424 0)
(3.01406 -0.0198099 0)
(3.0119 -0.0227376 0)
(3.00823 -0.0277847 0)
(3.00296 -0.0347716 0)
(2.99868 -0.0389897 0)
(2.99758 -0.03983 0)
(2.99751 -0.0398664 0)
(2.99792 -0.0392077 0)
(2.99998 -0.035301 0)
(3.00532 -0.0266454 0)
(3.01342 -0.0150446 0)
(3.01974 -0.00609602 0)
(3.02149 -0.0026765 0)
(3.02122 -0.00196464 0)
(3.02087 -0.00167674 0)
(3.01967 -0.00115476 0)
(3.01744 -0.00077719 0)
(3.01436 -0.00207536 0)
(3.00984 -0.00605749 0)
(3.00472 -0.0101673 0)
(3.00228 -0.0114854 0)
(3.00192 -0.011106 0)
(3.00241 -0.00960547 0)
(3.00402 -0.00597408 0)
(3.00679 -0.000541174 0)
(3.01074 0.00473543 0)
(3.01415 0.00754364 0)
(3.01545 0.00813636 0)
(3.01699 0.00834033 0)
(3.01826 0.00862413 0)
(3.02036 0.00977092 0)
(3.02379 0.0130047 0)
(3.02816 0.015888 0)
(3.03155 0.0174833 0)
(3.0329 0.0183758 0)
(2.73184 0.0232143 0)
(2.73685 0.0213324 0)
(2.7421 0.0165801 0)
(2.74413 0.0120514 0)
(2.74135 0.00875588 0)
(2.73754 0.00743874 0)
(2.7394 0.00895563 0)
(2.74195 0.0113376 0)
(2.74513 0.0138509 0)
(2.75038 0.0153724 0)
(2.75799 0.01602 0)
(2.76438 0.0157931 0)
(2.76613 0.015486 0)
(2.76677 0.0152024 0)
(2.76727 0.0145799 0)
(2.76602 0.0142438 0)
(2.76379 0.0155482 0)
(2.76524 0.0175886 0)
(2.76768 0.0187916 0)
(2.77023 0.0197695 0)
(2.77493 0.0211592 0)
(2.78115 0.0227606 0)
(2.78347 0.022751 0)
(2.78646 0.0221833 0)
(2.78925 0.0219367 0)
(2.79054 0.0212346 0)
(2.78856 0.0185142 0)
(2.78992 0.0168415 0)
(2.79324 0.0169103 0)
(2.79604 0.017024 0)
(2.7989 0.0168004 0)
(2.80159 0.0163915 0)
(2.80522 0.0165359 0)
(2.80902 0.0176471 0)
(2.81145 0.0181839 0)
(2.81235 0.0182276 0)
(2.81395 0.0188104 0)
(2.8155 0.0197529 0)
(2.81677 0.0204535 0)
(2.81854 0.019515 0)
(2.82158 0.0192154 0)
(2.82558 0.0190636 0)
(2.82974 0.0191281 0)
(2.8349 0.0200971 0)
(2.83973 0.0202903 0)
(2.84134 0.0204072 0)
(2.84294 0.0207715 0)
(2.84308 0.0213281 0)
(2.8426 0.0217014 0)
(2.84182 0.0218623 0)
(2.84035 0.0213498 0)
(2.83825 0.0207123 0)
(2.83549 0.0214889 0)
(2.82967 0.0175986 0)
(2.82155 0.00823672 0)
(2.81558 0.00515025 0)
(2.80734 0.00558294 0)
(2.80454 0.00579432 0)
(2.80334 0.00444834 0)
(2.80358 0.00143305 0)
(2.80501 -0.000121913 0)
(2.8073 0.000754851 0)
(2.81139 0.00535546 0)
(2.81498 0.0108356 0)
(2.81838 0.013469 0)
(2.82459 0.0159088 0)
(2.83025 0.0173396 0)
(2.83203 0.0187915 0)
(2.83357 0.0212295 0)
(2.83612 0.0231205 0)
(2.83748 0.023097 0)
(2.83874 0.0235002 0)
(2.83753 0.0299794 0)
(2.83639 0.0358322 0)
(2.83208 0.0455982 0)
(2.82652 0.0596932 0)
(2.82183 0.0703499 0)
(2.81638 0.0722485 0)
(2.81561 0.0715198 0)
(2.81525 0.0704786 0)
(2.81612 0.0698439 0)
(2.81764 0.0699691 0)
(2.81881 0.0692364 0)
(2.81956 0.0671889 0)
(2.82451 0.0651468 0)
(2.83147 0.064903 0)
(2.83735 0.0641442 0)
(2.84314 0.0642747 0)
(2.84893 0.0660301 0)
(2.85116 0.0666906 0)
(2.85372 0.0667842 0)
(2.85488 0.065395 0)
(2.85502 0.0611432 0)
(2.85562 0.0567755 0)
(2.85799 0.0537221 0)
(2.86176 0.0507509 0)
(2.86624 0.0483793 0)
(2.87116 0.0468928 0)
(2.87663 0.045228 0)
(2.8826 0.0425352 0)
(2.88857 0.0388668 0)
(2.89361 0.0340912 0)
(2.89615 0.0270291 0)
(2.89669 0.0197817 0)
(2.90097 0.0177488 0)
(2.90571 0.0185879 0)
(2.91062 0.0206561 0)
(2.91643 0.0223547 0)
(2.92139 0.0223081 0)
(2.92692 0.0217876 0)
(2.93132 0.0210946 0)
(2.9348 0.0199634 0)
(2.93741 0.016666 0)
(2.93774 0.0106704 0)
(2.93507 0.00307583 0)
(2.93098 -0.0047145 0)
(2.92928 -0.00937424 0)
(2.93028 -0.0110463 0)
(2.93177 -0.0116171 0)
(2.93684 -0.0124565 0)
(2.94276 -0.0126993 0)
(2.94521 -0.0129884 0)
(2.94928 -0.0143244 0)
(2.95265 -0.015828 0)
(2.95459 -0.0179251 0)
(2.95436 -0.0214675 0)
(2.95234 -0.0255165 0)
(2.95195 -0.0277173 0)
(2.95263 -0.0279735 0)
(2.95378 -0.0279568 0)
(2.95661 -0.0274307 0)
(2.96133 -0.0256761 0)
(2.96696 -0.0243167 0)
(2.96994 -0.0247809 0)
(2.97206 -0.0264504 0)
(2.97432 -0.0304263 0)
(2.97484 -0.0342014 0)
(2.97236 -0.0388852 0)
(2.96568 -0.0463231 0)
(2.95949 -0.0515295 0)
(2.95861 -0.051747 0)
(2.95893 -0.0512279 0)
(2.95919 -0.0511515 0)
(2.95976 -0.0510026 0)
(2.96069 -0.0497328 0)
(2.96252 -0.0470559 0)
(2.96592 -0.0432248 0)
(2.97083 -0.0385624 0)
(2.97527 -0.0352504 0)
(2.97715 -0.0347165 0)
(2.98007 -0.0353702 0)
(2.98171 -0.0376863 0)
(2.981 -0.0414178 0)
(2.97808 -0.0466681 0)
(2.97366 -0.0535 0)
(2.97099 -0.0579824 0)
(2.9708 -0.0591906 0)
(2.97096 -0.0592801 0)
(2.97219 -0.0583635 0)
(2.97541 -0.0549862 0)
(2.98009 -0.0504825 0)
(2.98303 -0.0477923 0)
(2.98328 -0.0474866 0)
(2.98281 -0.0483797 0)
(2.98136 -0.0514436 0)
(2.98006 -0.0559043 0)
(2.98101 -0.0582636 0)
(2.98321 -0.0588033 0)
(2.98536 -0.0591627 0)
(2.98774 -0.0592948 0)
(2.99029 -0.0593516 0)
(2.99241 -0.0600558 0)
(2.99311 -0.0605546 0)
(2.99317 -0.0600687 0)
(2.99328 -0.0579509 0)
(2.99349 -0.0562772 0)
(2.99367 -0.0562211 0)
(2.9932 -0.054237 0)
(2.9891 -0.0480791 0)
(2.98674 -0.0458591 0)
(2.98512 -0.0444869 0)
(2.98697 -0.0439212 0)
(2.98858 -0.0429557 0)
(2.99199 -0.0409935 0)
(2.99721 -0.0392764 0)
(3.00225 -0.0389479 0)
(3.00683 -0.0388902 0)
(3.0111 -0.0390353 0)
(3.01322 -0.0398358 0)
(3.01549 -0.0410326 0)
(3.017 -0.0427365 0)
(3.01731 -0.0452486 0)
(3.01455 -0.0501255 0)
(3.00756 -0.0576763 0)
(2.99969 -0.0630667 0)
(2.99702 -0.0636856 0)
(2.9974 -0.0622869 0)
(2.99898 -0.0592313 0)
(3.00256 -0.0528294 0)
(3.00772 -0.0436496 0)
(3.01427 -0.0353207 0)
(3.01839 -0.0317109 0)
(3.01946 -0.0314737 0)
(3.02032 -0.0324329 0)
(3.02047 -0.0340529 0)
(3.02007 -0.0361627 0)
(3.01858 -0.0398659 0)
(3.01548 -0.0441883 0)
(3.01342 -0.0460669 0)
(3.01309 -0.0460081 0)
(3.01286 -0.0446046 0)
(3.01378 -0.0403369 0)
(3.01689 -0.0329743 0)
(3.02035 -0.0254039 0)
(3.02109 -0.0221988 0)
(3.02071 -0.0213666 0)
(3.01862 -0.0202012 0)
(3.01552 -0.0203205 0)
(3.01186 -0.023525 0)
(3.00683 -0.0307828 0)
(3.00171 -0.0389649 0)
(2.99954 -0.0427813 0)
(2.9993 -0.0434665 0)
(2.99955 -0.0429056 0)
(3.00072 -0.0402169 0)
(3.00357 -0.0345424 0)
(3.00923 -0.0252681 0)
(3.01737 -0.0145057 0)
(3.02275 -0.00822836 0)
(3.02323 -0.00728038 0)
(3.02217 -0.00741221 0)
(3.02167 -0.00737536 0)
(3.02072 -0.00671584 0)
(3.01843 -0.00655857 0)
(3.01457 -0.00884481 0)
(3.00971 -0.0115407 0)
(3.00627 -0.0122713 0)
(3.00474 -0.0116016 0)
(3.00448 -0.0104402 0)
(3.00532 -0.00724603 0)
(3.00737 -0.00305912 0)
(3.01029 0.0012222 0)
(3.01298 0.0041103 0)
(3.01421 0.00537576 0)
(3.01582 0.00549048 0)
(3.01722 0.00550499 0)
(3.01857 0.00590172 0)
(3.02069 0.00707474 0)
(3.02489 0.0095927 0)
(3.02931 0.0126144 0)
(3.03255 0.0131933 0)
(3.03464 0.0128012 0)
(3.0354 0.0128071 0)
(2.73446 0.021046 0)
(2.73729 0.0196927 0)
(2.74078 0.0160437 0)
(2.74138 0.0116377 0)
(2.73725 0.00875957 0)
(2.73705 0.0088217 0)
(2.74095 0.00964409 0)
(2.74442 0.0117452 0)
(2.74862 0.0134455 0)
(2.75531 0.0140588 0)
(2.76273 0.0137214 0)
(2.76679 0.0132806 0)
(2.76766 0.0131767 0)
(2.76858 0.0128934 0)
(2.76808 0.0126005 0)
(2.76552 0.0130255 0)
(2.76504 0.0150806 0)
(2.76715 0.0170431 0)
(2.76948 0.0186841 0)
(2.77284 0.0205184 0)
(2.77894 0.0237773 0)
(2.78318 0.0254038 0)
(2.78487 0.0250999 0)
(2.78729 0.0242176 0)
(2.78913 0.0233171 0)
(2.78852 0.0210053 0)
(2.78725 0.0176808 0)
(2.79111 0.0171361 0)
(2.79431 0.0173016 0)
(2.79742 0.0174285 0)
(2.80031 0.01733 0)
(2.80332 0.0172162 0)
(2.80728 0.0179974 0)
(2.81055 0.0191822 0)
(2.81164 0.0190895 0)
(2.81245 0.0187007 0)
(2.81384 0.0186193 0)
(2.81528 0.0187338 0)
(2.81688 0.0186638 0)
(2.8196 0.0178193 0)
(2.82339 0.017556 0)
(2.82786 0.0180565 0)
(2.83229 0.0183156 0)
(2.83795 0.0199058 0)
(2.84175 0.0203242 0)
(2.84302 0.020819 0)
(2.84421 0.02144 0)
(2.84393 0.021889 0)
(2.84313 0.0221519 0)
(2.84191 0.0221393 0)
(2.84017 0.0210716 0)
(2.83759 0.0202242 0)
(2.83395 0.0202959 0)
(2.82595 0.013695 0)
(2.81868 0.00478071 0)
(2.81077 0.0037166 0)
(2.80582 0.00416099 0)
(2.80458 0.00395296 0)
(2.80524 0.00199919 0)
(2.80713 -0.00017374 0)
(2.80977 -0.000556311 0)
(2.81345 0.00240468 0)
(2.81688 0.00687383 0)
(2.81947 0.00886344 0)
(2.82449 0.0112371 0)
(2.82956 0.0129103 0)
(2.8315 0.0142943 0)
(2.83357 0.017164 0)
(2.83668 0.0182698 0)
(2.83957 0.0197978 0)
(2.84225 0.0211041 0)
(2.84553 0.0211853 0)
(2.84542 0.0291362 0)
(2.84511 0.0393263 0)
(2.84293 0.0471592 0)
(2.83626 0.059437 0)
(2.83157 0.0698526 0)
(2.82106 0.0715155 0)
(2.8183 0.0706515 0)
(2.81673 0.0692688 0)
(2.81563 0.0690818 0)
(2.81477 0.0696217 0)
(2.81639 0.0696376 0)
(2.81973 0.069355 0)
(2.82493 0.068915 0)
(2.83201 0.0684832 0)
(2.83913 0.0664854 0)
(2.84638 0.0656978 0)
(2.85077 0.0662515 0)
(2.85398 0.0666411 0)
(2.85451 0.0655538 0)
(2.85278 0.0627659 0)
(2.85265 0.0580477 0)
(2.85488 0.0552331 0)
(2.85742 0.05392 0)
(2.86144 0.0519927 0)
(2.86617 0.0499335 0)
(2.87099 0.048724 0)
(2.87615 0.0475614 0)
(2.8815 0.0453227 0)
(2.88631 0.0412024 0)
(2.88901 0.0346342 0)
(2.8899 0.0267886 0)
(2.89482 0.0238132 0)
(2.90029 0.0241813 0)
(2.90616 0.0254926 0)
(2.9128 0.027272 0)
(2.9187 0.0278088 0)
(2.9238 0.0272587 0)
(2.92808 0.0266211 0)
(2.93168 0.0255756 0)
(2.93415 0.022483 0)
(2.934 0.016129 0)
(2.93104 0.00755895 0)
(2.92698 -0.00118924 0)
(2.92596 -0.00582454 0)
(2.92738 -0.00692078 0)
(2.92895 -0.00712999 0)
(2.93343 -0.00722909 0)
(2.94001 -0.00646251 0)
(2.94359 -0.00657078 0)
(2.94638 -0.00762426 0)
(2.95 -0.00979772 0)
(2.9523 -0.0125184 0)
(2.95209 -0.0168089 0)
(2.95002 -0.0214512 0)
(2.95025 -0.0233084 0)
(2.9513 -0.0232373 0)
(2.9529 -0.022874 0)
(2.95595 -0.021996 0)
(2.96019 -0.0207548 0)
(2.96481 -0.0204853 0)
(2.96713 -0.0211778 0)
(2.96943 -0.023371 0)
(2.97184 -0.0275386 0)
(2.97288 -0.0315805 0)
(2.97134 -0.0370987 0)
(2.96546 -0.0450593 0)
(2.95873 -0.0512497 0)
(2.95751 -0.0526464 0)
(2.95822 -0.0521673 0)
(2.95893 -0.0509955 0)
(2.96033 -0.0494879 0)
(2.96189 -0.0470508 0)
(2.9639 -0.0434828 0)
(2.96703 -0.0389143 0)
(2.97142 -0.0345265 0)
(2.97464 -0.0325722 0)
(2.97617 -0.0326333 0)
(2.97848 -0.0340832 0)
(2.97966 -0.0368412 0)
(2.97932 -0.0404987 0)
(2.97649 -0.0460219 0)
(2.97214 -0.0529272 0)
(2.96998 -0.0569145 0)
(2.97 -0.0577437 0)
(2.97038 -0.0576169 0)
(2.97199 -0.0563154 0)
(2.97547 -0.0526262 0)
(2.98003 -0.0481599 0)
(2.98273 -0.0462761 0)
(2.98309 -0.0463099 0)
(2.9826 -0.0471863 0)
(2.9809 -0.0495032 0)
(2.97895 -0.0534192 0)
(2.97989 -0.0562647 0)
(2.98168 -0.0574261 0)
(2.98365 -0.0579782 0)
(2.98623 -0.0584283 0)
(2.98905 -0.0590057 0)
(2.99184 -0.0599272 0)
(2.99395 -0.0603766 0)
(2.99479 -0.0602439 0)
(2.99481 -0.0598677 0)
(2.99461 -0.0582348 0)
(2.99504 -0.0557745 0)
(2.99568 -0.0548733 0)
(2.99376 -0.0495662 0)
(2.98963 -0.0444887 0)
(2.98739 -0.0433057 0)
(2.98697 -0.0421533 0)
(2.98874 -0.0417534 0)
(2.9911 -0.0407291 0)
(2.99363 -0.0401079 0)
(2.99798 -0.0405254 0)
(3.00275 -0.0410209 0)
(3.00706 -0.041611 0)
(3.00954 -0.0423639 0)
(3.0116 -0.0431379 0)
(3.01348 -0.0445066 0)
(3.01423 -0.0471038 0)
(3.01259 -0.0518269 0)
(3.00732 -0.0577172 0)
(3.00118 -0.061425 0)
(2.9988 -0.0615734 0)
(2.99889 -0.0601738 0)
(3.00106 -0.0560747 0)
(3.00526 -0.0490662 0)
(3.01115 -0.0403788 0)
(3.01635 -0.0342253 0)
(3.01801 -0.0324585 0)
(3.01943 -0.0324778 0)
(3.01982 -0.0335784 0)
(3.01928 -0.0352398 0)
(3.01828 -0.0380594 0)
(3.0165 -0.0428765 0)
(3.01449 -0.0470907 0)
(3.01401 -0.0482487 0)
(3.01415 -0.0481389 0)
(3.01497 -0.0462888 0)
(3.01714 -0.041088 0)
(3.02108 -0.0334959 0)
(3.02363 -0.0283289 0)
(3.02336 -0.027124 0)
(3.02276 -0.0268553 0)
(3.02148 -0.0267923 0)
(3.01895 -0.0276664 0)
(3.01474 -0.0310156 0)
(3.0084 -0.0366312 0)
(3.00308 -0.0402365 0)
(3.00119 -0.0409237 0)
(3.00079 -0.0407713 0)
(3.00077 -0.039473 0)
(3.0026 -0.0359879 0)
(3.00722 -0.0294983 0)
(3.01393 -0.0216618 0)
(3.01957 -0.0158761 0)
(3.02254 -0.0132127 0)
(3.02392 -0.0121825 0)
(3.02385 -0.0119364 0)
(3.0232 -0.0123869 0)
(3.02175 -0.0131023 0)
(3.01962 -0.0134273 0)
(3.01624 -0.0140458 0)
(3.0119 -0.0150433 0)
(3.00917 -0.0147987 0)
(3.00795 -0.013195 0)
(3.00748 -0.00942574 0)
(3.00874 -0.00488244 0)
(3.01103 -0.000974573 0)
(3.01269 0.00102719 0)
(3.01337 0.00133054 0)
(3.01461 0.00131269 0)
(3.01628 0.00195736 0)
(3.01812 0.00253998 0)
(3.0194 0.00280749 0)
(3.02174 0.00367811 0)
(3.02558 0.00671597 0)
(3.0307 0.0103727 0)
(3.03439 0.0113719 0)
(3.03648 0.0106631 0)
(3.03824 0.00919994 0)
(3.0392 0.00765375 0)
(2.7372 0.0194942 0)
(2.73776 0.0189663 0)
(2.73873 0.0171875 0)
(2.73755 0.0132612 0)
(2.73284 0.00967699 0)
(2.73678 0.00980332 0)
(2.74265 0.0105407 0)
(2.74761 0.0120152 0)
(2.7528 0.0129349 0)
(2.76047 0.0128754 0)
(2.7665 0.0116158 0)
(2.76843 0.0109562 0)
(2.76958 0.0107673 0)
(2.76989 0.0106598 0)
(2.76774 0.0107567 0)
(2.76587 0.0119329 0)
(2.7672 0.0138614 0)
(2.76925 0.0159384 0)
(2.77186 0.0181957 0)
(2.77714 0.0221117 0)
(2.78274 0.0266081 0)
(2.78438 0.0273285 0)
(2.78649 0.0269331 0)
(2.78798 0.0258886 0)
(2.78838 0.0238613 0)
(2.78618 0.019908 0)
(2.78798 0.0175039 0)
(2.79216 0.0174802 0)
(2.79551 0.0176701 0)
(2.79882 0.0179159 0)
(2.8017 0.018079 0)
(2.80523 0.0184159 0)
(2.80907 0.0196393 0)
(2.81102 0.0203795 0)
(2.81152 0.020141 0)
(2.81237 0.0189604 0)
(2.81339 0.0175545 0)
(2.81477 0.0171365 0)
(2.8173 0.0171772 0)
(2.8211 0.0166797 0)
(2.82525 0.0165053 0)
(2.83008 0.0172112 0)
(2.83509 0.0179005 0)
(2.84075 0.0197981 0)
(2.84401 0.020475 0)
(2.84519 0.0213108 0)
(2.84529 0.0220534 0)
(2.84432 0.0221448 0)
(2.84311 0.0221874 0)
(2.84149 0.0215419 0)
(2.83942 0.0199167 0)
(2.83603 0.0194372 0)
(2.83094 0.0177356 0)
(2.82165 0.00875855 0)
(2.81526 0.00364211 0)
(2.80675 0.00330167 0)
(2.80543 0.00338257 0)
(2.8057 0.0024271 0)
(2.80848 0.000552841 0)
(2.81134 -0.000316171 0)
(2.81552 0.00108264 0)
(2.81868 0.00390014 0)
(2.82086 0.00540654 0)
(2.82511 0.00709128 0)
(2.82948 0.00826477 0)
(2.83182 0.0102412 0)
(2.83343 0.0133743 0)
(2.83688 0.014684 0)
(2.84002 0.0163996 0)
(2.84329 0.0174367 0)
(2.84706 0.0197798 0)
(2.8506 0.0237009 0)
(2.85437 0.03024 0)
(2.85347 0.0422177 0)
(2.85151 0.0480012 0)
(2.84604 0.0554788 0)
(2.84002 0.0655592 0)
(2.82903 0.0690809 0)
(2.82081 0.0683064 0)
(2.81741 0.0669492 0)
(2.81377 0.0673148 0)
(2.81276 0.0699125 0)
(2.81566 0.0710682 0)
(2.82024 0.0720378 0)
(2.82569 0.0726533 0)
(2.83328 0.0716482 0)
(2.84165 0.0682723 0)
(2.84806 0.0664634 0)
(2.85278 0.0658871 0)
(2.85376 0.0651379 0)
(2.85207 0.0625658 0)
(2.85087 0.0584456 0)
(2.85271 0.0563896 0)
(2.85549 0.0555878 0)
(2.85835 0.0543614 0)
(2.86222 0.0534594 0)
(2.86688 0.0524379 0)
(2.87147 0.0516894 0)
(2.87608 0.0508539 0)
(2.88037 0.048908 0)
(2.88336 0.0437696 0)
(2.88359 0.0359571 0)
(2.88796 0.0312607 0)
(2.89427 0.0310038 0)
(2.90068 0.0307788 0)
(2.90758 0.0312886 0)
(2.91442 0.0319941 0)
(2.92029 0.0318715 0)
(2.92494 0.0311888 0)
(2.92871 0.0297732 0)
(2.93084 0.0266563 0)
(2.93028 0.0207367 0)
(2.92724 0.0120577 0)
(2.92339 0.00272207 0)
(2.92287 -0.00182316 0)
(2.92464 -0.00254991 0)
(2.92659 -0.00257663 0)
(2.93083 -0.00208469 0)
(2.93733 -1.68998e-05 0)
(2.94177 0.000632185 0)
(2.94405 -0.000365634 0)
(2.9475 -0.00320623 0)
(2.95003 -0.00674866 0)
(2.94992 -0.0118364 0)
(2.94764 -0.0172952 0)
(2.94812 -0.0194753 0)
(2.94953 -0.0194593 0)
(2.95131 -0.0192977 0)
(2.95451 -0.0184611 0)
(2.95849 -0.0171146 0)
(2.9624 -0.0171038 0)
(2.96405 -0.0179048 0)
(2.96635 -0.0206427 0)
(2.96872 -0.0249225 0)
(2.97024 -0.0292673 0)
(2.96963 -0.034749 0)
(2.96526 -0.0421603 0)
(2.95929 -0.0482019 0)
(2.95735 -0.0500935 0)
(2.95769 -0.049623 0)
(2.95865 -0.0483112 0)
(2.96055 -0.0455173 0)
(2.96304 -0.0416388 0)
(2.96591 -0.0376622 0)
(2.96895 -0.0341327 0)
(2.97175 -0.0317357 0)
(2.97325 -0.0311129 0)
(2.97469 -0.0317247 0)
(2.97619 -0.0339068 0)
(2.97711 -0.0366447 0)
(2.9772 -0.0399816 0)
(2.97477 -0.0454538 0)
(2.97074 -0.0518262 0)
(2.9693 -0.054943 0)
(2.96984 -0.0552618 0)
(2.9705 -0.0549437 0)
(2.97239 -0.0535471 0)
(2.97564 -0.0501057 0)
(2.97955 -0.0465504 0)
(2.98173 -0.0453309 0)
(2.98213 -0.0454739 0)
(2.98185 -0.0466496 0)
(2.98055 -0.0484819 0)
(2.97857 -0.0514744 0)
(2.97912 -0.053605 0)
(2.98061 -0.0540225 0)
(2.98227 -0.055177 0)
(2.98426 -0.0559786 0)
(2.98713 -0.0567059 0)
(2.99001 -0.0579828 0)
(2.99306 -0.0600998 0)
(2.99535 -0.0604292 0)
(2.99637 -0.0600887 0)
(2.99746 -0.0589217 0)
(2.99688 -0.0566396 0)
(2.99686 -0.0540197 0)
(2.99746 -0.0520841 0)
(2.99392 -0.0473719 0)
(2.9911 -0.0455914 0)
(2.98776 -0.0440336 0)
(2.98846 -0.0429241 0)
(2.99006 -0.0422612 0)
(2.9914 -0.0416837 0)
(2.99472 -0.0421421 0)
(2.99903 -0.0431874 0)
(3.00328 -0.0443925 0)
(3.00637 -0.044596 0)
(3.00893 -0.0449999 0)
(3.01072 -0.0462139 0)
(3.01159 -0.0484641 0)
(3.01069 -0.0519942 0)
(3.00691 -0.0564319 0)
(3.00274 -0.0592609 0)
(3.00079 -0.0593171 0)
(3.00058 -0.057562 0)
(3.00269 -0.053066 0)
(3.00755 -0.0459833 0)
(3.0135 -0.0386243 0)
(3.01646 -0.0351343 0)
(3.01841 -0.0342445 0)
(3.01979 -0.0341124 0)
(3.0193 -0.0354213 0)
(3.01837 -0.0373456 0)
(3.01695 -0.0407389 0)
(3.01497 -0.0451884 0)
(3.01393 -0.0477204 0)
(3.01397 -0.0481425 0)
(3.0144 -0.0477739 0)
(3.01619 -0.045648 0)
(3.01972 -0.0406951 0)
(3.02395 -0.0349103 0)
(3.02557 -0.0320186 0)
(3.02529 -0.0313006 0)
(3.02482 -0.0308238 0)
(3.02321 -0.0299399 0)
(3.02051 -0.0305541 0)
(3.01582 -0.0351154 0)
(3.00957 -0.0413228 0)
(3.00623 -0.0443135 0)
(3.00544 -0.0448656 0)
(3.00515 -0.0440187 0)
(3.00533 -0.0407314 0)
(3.00732 -0.034881 0)
(3.01176 -0.0271052 0)
(3.01702 -0.0200746 0)
(3.02047 -0.0170315 0)
(3.0222 -0.0169286 0)
(3.02321 -0.0170929 0)
(3.02359 -0.0169814 0)
(3.02422 -0.0171287 0)
(3.02354 -0.0179428 0)
(3.02131 -0.0194379 0)
(3.0184 -0.0201361 0)
(3.01572 -0.0186085 0)
(3.01402 -0.016683 0)
(3.01238 -0.0145968 0)
(3.01119 -0.00946775 0)
(3.01242 -0.00454746 0)
(3.01389 -0.00223876 0)
(3.01435 -0.00180939 0)
(3.0147 -0.00185951 0)
(3.01527 -0.00194909 0)
(3.01653 -0.00145099 0)
(3.01826 -0.00037878 0)
(3.02009 0.00139077 0)
(3.0226 0.00318736 0)
(3.02643 0.00535498 0)
(3.03038 0.00639565 0)
(3.0338 0.0065564 0)
(3.036 0.0062079 0)
(3.03814 0.00542912 0)
(3.04031 0.00353171 0)
(3.04136 0.000591843 0)
(2.74008 0.0198661 0)
(2.73899 0.020416 0)
(2.73664 0.0205963 0)
(2.73351 0.0174183 0)
(2.73005 0.0112109 0)
(2.73594 0.0102367 0)
(2.74402 0.0107277 0)
(2.75095 0.011585 0)
(2.75715 0.0121181 0)
(2.76495 0.0116803 0)
(2.76894 0.0103972 0)
(2.77034 0.00981465 0)
(2.77117 0.00927003 0)
(2.76972 0.00881475 0)
(2.76727 0.00919116 0)
(2.76781 0.0106915 0)
(2.76941 0.0124026 0)
(2.77158 0.0145531 0)
(2.77587 0.0183408 0)
(2.78202 0.0246179 0)
(2.78499 0.027603 0)
(2.78649 0.0282744 0)
(2.78804 0.0283232 0)
(2.78862 0.0265435 0)
(2.7872 0.0228548 0)
(2.78529 0.0186987 0)
(2.78946 0.0177355 0)
(2.79332 0.0177861 0)
(2.79681 0.0178925 0)
(2.80012 0.0183193 0)
(2.80309 0.018886 0)
(2.8071 0.0197377 0)
(2.81008 0.0210785 0)
(2.81079 0.0214054 0)
(2.81133 0.0210618 0)
(2.81226 0.0190453 0)
(2.81331 0.0170557 0)
(2.8148 0.0163618 0)
(2.81833 0.0161446 0)
(2.82269 0.0162695 0)
(2.82704 0.0164109 0)
(2.83203 0.0170696 0)
(2.83748 0.0182099 0)
(2.84323 0.0198613 0)
(2.84623 0.0208616 0)
(2.84676 0.0213625 0)
(2.84581 0.021403 0)
(2.84432 0.0212441 0)
(2.84291 0.021049 0)
(2.84092 0.0197253 0)
(2.83815 0.0186733 0)
(2.83382 0.018327 0)
(2.82595 0.0123868 0)
(2.81846 0.00673393 0)
(2.81033 0.00425024 0)
(2.80613 0.00388041 0)
(2.80591 0.00261241 0)
(2.80858 0.000822887 0)
(2.8121 -3.69243e-05 0)
(2.8165 0.000711141 0)
(2.81957 0.00217391 0)
(2.82236 0.00312459 0)
(2.82624 0.00438781 0)
(2.83016 0.00542702 0)
(2.83248 0.00653946 0)
(2.83361 0.00947205 0)
(2.83713 0.0120636 0)
(2.84023 0.0138523 0)
(2.8433 0.0151068 0)
(2.8476 0.0174396 0)
(2.8521 0.0213621 0)
(2.85642 0.0263874 0)
(2.86075 0.0327392 0)
(2.86196 0.0394095 0)
(2.85769 0.0455962 0)
(2.85429 0.0504284 0)
(2.84675 0.0581069 0)
(2.83819 0.0618924 0)
(2.82412 0.0640479 0)
(2.81709 0.0636984 0)
(2.81228 0.0664376 0)
(2.81221 0.0705525 0)
(2.8146 0.0722217 0)
(2.82237 0.0751154 0)
(2.82726 0.0760065 0)
(2.83518 0.0743237 0)
(2.84298 0.069419 0)
(2.84878 0.0660724 0)
(2.85177 0.0638837 0)
(2.85083 0.0613883 0)
(2.84991 0.0588034 0)
(2.85169 0.057507 0)
(2.85421 0.0570262 0)
(2.85698 0.0565987 0)
(2.86083 0.0559199 0)
(2.86374 0.0556435 0)
(2.86832 0.0553717 0)
(2.8725 0.055377 0)
(2.87603 0.0552601 0)
(2.87892 0.0525299 0)
(2.87985 0.0457003 0)
(2.88235 0.0401944 0)
(2.8879 0.0390118 0)
(2.89422 0.0377753 0)
(2.90147 0.0361146 0)
(2.90845 0.0354388 0)
(2.9151 0.0352714 0)
(2.92095 0.0346533 0)
(2.92541 0.0329412 0)
(2.92761 0.0297511 0)
(2.9271 0.0245078 0)
(2.92387 0.0162232 0)
(2.92029 0.00679164 0)
(2.92032 0.00228895 0)
(2.92254 0.00177192 0)
(2.92488 0.00191028 0)
(2.92876 0.00267734 0)
(2.93501 0.00531768 0)
(2.93952 0.00704999 0)
(2.94192 0.00645588 0)
(2.94546 0.00378501 0)
(2.94793 -0.000126796 0)
(2.94785 -0.00600541 0)
(2.94521 -0.0128804 0)
(2.94542 -0.0160912 0)
(2.94717 -0.0163043 0)
(2.94907 -0.0165335 0)
(2.95243 -0.0161596 0)
(2.95643 -0.0148712 0)
(2.95979 -0.0147521 0)
(2.96109 -0.0154824 0)
(2.96321 -0.0181185 0)
(2.96537 -0.0218114 0)
(2.96707 -0.0260615 0)
(2.96704 -0.0312264 0)
(2.96413 -0.0381086 0)
(2.95966 -0.0442286 0)
(2.958 -0.04672 0)
(2.95833 -0.0465169 0)
(2.95961 -0.0451684 0)
(2.96194 -0.0417354 0)
(2.96492 -0.0365256 0)
(2.96821 -0.0318662 0)
(2.97052 -0.029432 0)
(2.97138 -0.0288229 0)
(2.97237 -0.0293863 0)
(2.97321 -0.0314061 0)
(2.9737 -0.0338645 0)
(2.97435 -0.0364435 0)
(2.97428 -0.0398778 0)
(2.97268 -0.0447898 0)
(2.96962 -0.0502026 0)
(2.96884 -0.0526093 0)
(2.97002 -0.0525332 0)
(2.97108 -0.0517334 0)
(2.97336 -0.0501241 0)
(2.97647 -0.0472889 0)
(2.97936 -0.0449354 0)
(2.98046 -0.0445324 0)
(2.98091 -0.0451206 0)
(2.98076 -0.046434 0)
(2.97977 -0.0481764 0)
(2.97806 -0.050343 0)
(2.97795 -0.0515905 0)
(2.97939 -0.0515635 0)
(2.98168 -0.0517054 0)
(2.98329 -0.0522922 0)
(2.98556 -0.0533968 0)
(2.9882 -0.0553129 0)
(2.99098 -0.0587285 0)
(2.99451 -0.0597497 0)
(2.99624 -0.059429 0)
(2.99805 -0.0584868 0)
(2.99954 -0.0565802 0)
(2.99971 -0.0550233 0)
(2.99871 -0.0537337 0)
(2.9979 -0.0515654 0)
(2.99452 -0.0494192 0)
(2.99101 -0.0479448 0)
(2.98811 -0.0458055 0)
(2.98957 -0.0450669 0)
(2.99117 -0.043944 0)
(2.99256 -0.0432819 0)
(2.99609 -0.0443609 0)
(3.00043 -0.0454049 0)
(3.00372 -0.0467038 0)
(3.00592 -0.0477768 0)
(3.00765 -0.0484 0)
(3.0091 -0.0496941 0)
(3.00925 -0.0517037 0)
(3.00711 -0.0543561 0)
(3.00392 -0.0559473 0)
(3.0027 -0.0557481 0)
(3.00206 -0.0536066 0)
(3.00413 -0.0494151 0)
(3.00917 -0.0434821 0)
(3.01399 -0.0385132 0)
(3.01598 -0.0373216 0)
(3.01859 -0.0366091 0)
(3.01956 -0.0365336 0)
(3.01881 -0.037444 0)
(3.01742 -0.0394347 0)
(3.01564 -0.0431376 0)
(3.01423 -0.0468501 0)
(3.01396 -0.0484513 0)
(3.01416 -0.0487331 0)
(3.01491 -0.0483218 0)
(3.01725 -0.0459166 0)
(3.02131 -0.0412294 0)
(3.02517 -0.0372794 0)
(3.02656 -0.0361372 0)
(3.02646 -0.0359933 0)
(3.02616 -0.0360379 0)
(3.02513 -0.0362639 0)
(3.02284 -0.0379375 0)
(3.01813 -0.0412448 0)
(3.01299 -0.042979 0)
(3.01064 -0.042625 0)
(3.01003 -0.041902 0)
(3.00964 -0.0391703 0)
(3.01045 -0.034919 0)
(3.01307 -0.0297112 0)
(3.01687 -0.0246184 0)
(3.01984 -0.0214018 0)
(3.02138 -0.0204356 0)
(3.0219 -0.0204314 0)
(3.02227 -0.0205587 0)
(3.02314 -0.0214548 0)
(3.02422 -0.022662 0)
(3.02451 -0.0228651 0)
(3.0243 -0.0224739 0)
(3.02245 -0.0220079 0)
(3.02094 -0.0215597 0)
(3.01831 -0.018965 0)
(3.01709 -0.0151414 0)
(3.01623 -0.012254 0)
(3.01596 -0.00829084 0)
(3.01619 -0.00496734 0)
(3.01629 -0.00459044 0)
(3.0163 -0.00468374 0)
(3.01646 -0.00442465 0)
(3.01751 -0.00371899 0)
(3.01877 -0.00294447 0)
(3.02034 -0.00122204 0)
(3.02322 0.00118535 0)
(3.02696 0.00322839 0)
(3.03033 0.00421238 0)
(3.03338 0.00400707 0)
(3.03581 0.00262568 0)
(3.03743 0.00115052 0)
(3.03961 -0.000301632 0)
(3.04143 -0.00260541 0)
(3.04207 -0.00592992 0)
(2.74333 0.0191591 0)
(2.74026 0.023595 0)
(2.73508 0.0250792 0)
(2.72996 0.0217582 0)
(2.73032 0.0150753 0)
(2.73474 0.0117372 0)
(2.7445 0.0115217 0)
(2.75358 0.0117369 0)
(2.76144 0.0118327 0)
(2.76818 0.0112202 0)
(2.77071 0.0104176 0)
(2.77225 0.00979355 0)
(2.77162 0.00857094 0)
(2.76876 0.00748032 0)
(2.76837 0.00814982 0)
(2.76969 0.00939378 0)
(2.77141 0.011089 0)
(2.7748 0.013758 0)
(2.78078 0.0198357 0)
(2.78578 0.0255454 0)
(2.78731 0.0268542 0)
(2.78895 0.0284339 0)
(2.78969 0.028683 0)
(2.78907 0.0259818 0)
(2.7866 0.0208311 0)
(2.78619 0.0179364 0)
(2.79076 0.0178963 0)
(2.79468 0.0179512 0)
(2.79824 0.0181011 0)
(2.80144 0.0187328 0)
(2.80458 0.019675 0)
(2.80848 0.0210567 0)
(2.81024 0.0218079 0)
(2.81062 0.0218063 0)
(2.81101 0.0215009 0)
(2.81216 0.0192436 0)
(2.8138 0.0170074 0)
(2.81585 0.0162233 0)
(2.81958 0.0161958 0)
(2.82408 0.0163707 0)
(2.82858 0.0169559 0)