/*--------------------------------*- C++ -*----------------------------------*\
  =========                 |
  \\      /  F ield         | OpenFOAM: The Open Source CFD Toolbox
   \\    /   O peration     | Website:  https://openfoam.org
    \\  /    A nd           | Version:  7
     \\/     M anipulation  |
\*---------------------------------------------------------------------------*/
FoamFile
{
    version     2.0;
    format      ascii;
    class       volScalarField;
    location    "3.9";
    object      T;
}
// * * * * * * * * * * * * * * * * * * * * * * * * * * * * * * * * * * * * * //

dimensions      [0 0 0 1 0 0 0];

internalField   nonuniform List<scalar> 
16192
(
1
1
1
1
1
1
1
1
1
1
1
1.00001
1.01326
1.45149
1.78655
1.8489
1.84812
1.84378
1.83897
1.83476
1
1
1
1
1
1
1
1
1
1
1
1
1.00061
1.15772
1.69178
1.842
1.84952
1.8451
1.83869
1.83387
1
1
1
1
1
1
1
1
1
1
1
1
1.00002
1.0203
1.49578
1.78891
1.84199
1.84103
1.83734
1.8324
1
1
1
1
1
1
1
1
1
1
1
1
1
1.00102
1.19785
1.70764
1.837
1.84315
1.83905
1.83274
1
1
1
1
1
1
1
1
1
1
1
1
1
1.00003
1.03072
1.53464
1.79147
1.83652
1.83553
1.83181
1
1
1
1
1
1
1
1
1
1
1
1
1
1
1.00174
1.23943
1.72
1.8324
1.83766
1.83361
1
1
1
1
1
1
1
1
1
1
1
1
1
1
1.00006
1.0441
1.56357
1.79848
1.83265
1.83086
1
1
1
1
1
1
1
1
1
1
1
1
1
1
1
1.00285
1.2768
1.72912
1.82717
1.83261
1
1
1
1
1
1
1
1
1
1
1
1
1
1
1
1.00011
1.05827
1.57869
1.80497
1.83047
1
1
1
1
1
1
1
1
1
1
1
1
1
1
1
1
1.00404
1.30425
1.74549
1.82041
1
1
1
1
1
1
1
1
1
1
1
1
1
1
1
1
1.00014
1.07201
1.6106
1.78049
1
1
1
1
1
1
1
1
1
1
1
1
1
1
1
1
1
1.00592
1.33993
1.72198
1
1
1
1
1
1
1
1
1
1
1
1
1
1
1
1
1
1.00023
1.08846
1.57937
1
1
1
1
1
1
1
1
1
1
1
1
1
1
1
1
1
1.00001
1.00828
1.3156
1
1
1
1
1
1
1
1
1
1
1
1
1
1
1
1
1
1
1.00037
1.08369
1
1
1
1
1
1
1
1
1
1
1
1
1
1
1
1
1
1
1.00001
1.00907
1
1
1
1
1
1
1
1
1
1
1
1
1
1
1
1
1
1
1
1.00055
1
1
1
1
1
1
1
1
1
1
1
1
1
1
1
1
1
1
1
1.00002
1
1
1
1
1
1
1
1
1
1
1
1
1
1
1
1
1
1
1
1
1
1
1
1
1
1
1
1
1
1
1
1
1
1
1
1
1
1
1
1
1
1
1
1
1
1
1
1
1
1
1
1
1
1
1
1
1
1
1
1
1
1
1
1
1
1
1
1
1
1
1
1
1
1
1
1
1
1
1
1
1
1
1
1
1
1
1
1
1
1
1
1
1
1
1
1
1
1
1
1
1
1
1
1
1
1
1
1
1
1
1
1
1
1
1
1
1
1
1
1
1
1
1
1
1
1
1
1
1
1
1
1
1
1
1
1
1
1
1
1
1
1
1
1
1
1
1
1
1
1
1
1
1
1
1
1
1
1
1
1
1
1
1
1
1
1
1
1
1
1
1
1
1
1
1
1
1
1
1
1
1
1
1
1
1
1
1
1
1
1
1
1
1
1
1
1
1
1
1
1
1
1
1
1
1
1
1
1
1
1
1
1
1
1
1
1
1
1
1
1
1
1
1
1
1
1
1
1
1
1
1
1
1
1
1
1
1
1
1
1
1
1
1
1
1
1
1
1
1
1
1
1
1
1
1
1
1
1
1
1
1
1
1
1
1
1
1
1
1
1
1
1
1
1
1
1
1
1
1
1
1
1
1
1
1
1
1
1
1
1
1
1
1
1
1
1
1
1
1
1
1
1
1
1
1
1
1
1
1
1
1
1
1
1
1
1
1
1
1
1
1
1
1
1
1
1
1
1
1
1
1
1
1
1
1
1
1
1
1
1
1
1
1
1
1
1
1
1
1
1
1
1
1
1
1
1
1
1
1
1
1
1
1
1
1
1
1
1
1
1
1
1
1
1
1
1
1
1
1
1
1
1
1
1
1
1
1
1
1
1
1
1
1
1
1
1
1
1
1
1
1
1
1
1
1
1
1
1
1
1
1
1
1
1
1
1
1
1
1
1
1
1
1
1
1
1
1
1
1
1
1
1
1
1
1
1
1
1
1
1
1
1
1
1
1
1
1
1
1
1
1
1
1
1
1
1
1
1
1
1
1
1
1
1
1
1
1
1
1
1
1
1
1
1
1
1
1
1
1
1
1
1
1
1
1
1
1
1
1
1
1
1
1
1
1
1
1
1
1
1
1
1
1
1
1
1
1
1
1
1
1
1
1
1
1
1
1
1
1
1
1
1
1
1
1
1
1
1
1
1
1
1
1
1
1
1
1
1
1
1
1
1
1
1
1
1
1
1
1
1
1
1
1
1
1
1
1
1
1
1
1
1
1
1
1
1
1
1
1
1
1
1
1
1
1
1
1
1
1
1
1
1
1
1
1
1
1
1
1
1
1
1
1
1
1
1
1
1
1
1
1
1
1
1
1
1
1
1
1
1
1
1
1
1
1
1
1
1
1
1
1
1
1
1
1
1
1
1
1
1
1
1
1
1
1
1
1
1
1
1
1
1
1
1
1
1
1
1
1
1
1
1
1
1
1
1
1
1
1
1
1
1
1
1
1
1
1
1
1
1
1
1
1
1
1
1
1
1
1
1
1
1
1
1
1
1
1
1
1
1
1
1
1
1
1
1
1
1
1
1
1
1
1
1
1
1
1
1
1
1
1
1
1
1
1
1
1
1
1
1
1
1
1
1
1
1
1
1
1
1
1
1
1
1
1
1
1
1
1
1
1
1
1
1
1
1
1
1
1
1
1
1
1
1
1
1
1
1
1
1
1
1
1
1
1
1
1
1
1
1
1
1
1
1
1
1
1
1
1
1
1
1
1
1
1
1
1
1
1
1
1
1
1
1
1
1
1
1
1
1
1
1
1
1
1
1
1
1
1
1
1
1
1
1
1
1
1
1
1
1
1
1
1
1
1
1
1
1
1
1
1
1
1
1
1
1
1
1
1
1
1
1
1
1
1
1
1
1
1
1
1
1
1
1
1
1
1
1
1
1
1
1
1
1
1
1
1
1
1
1
1
1
1
1
1
1
1
1
1
1
1
1
1
1
1
1
1
1
1
1
1
1
1
1
1
1
1
1
1
1
1
1
1
1
1
1
1
1
1
1
1
1
1
1
1
1
1
1
1
1
1
1
1
1
1
1
1
1
1
1
1
1
1
1
1
1
1
1
1
1
1.6778
1.67417
1.67152
1.66938
1.66574
1.66242
1.65839
1.65344
1.64996
1.64555
1.64221
1.64058
1.63751
1.63393
1.63074
1.62971
1.62948
1.62779
1.62453
1.62119
1.61758
1.61259
1.60658
1.60257
1.60163
1.60182
1.60148
1.60035
1.59701
1.59
1.58216
1.57808
1.57737
1.57761
1.57927
1.57973
1.57949
1.57852
1.57414
1.56481
1.55625
1.55343
1.55318
1.55457
1.55548
1.55491
1.55379
1.54932
1.54069
1.53448
1.53334
1.53341
1.53352
1.53289
1.53186
1.52879
1.5217
1.51506
1.51379
1.51378
1.51416
1.5136
1.51252
1.50988
1.5041
1.4984
1.49708
1.4972
1.49756
1.49683
1.49539
1.49136
1.48351
1.47816
1.47759
1.47741
1.47695
1.47601
1.47429
1.47073
1.46682
1.46578
1.46505
1.46423
1.46317
1.46127
1.45635
1.44999
1.44768
1.44746
1.44694
1.44582
1.44392
1.4408
1.43767
1.4355
1.43348
1.43097
1.4281
1.42675
1.4266
1.42688
1.4269
1.42631
1.42551
1.42439
1.42254
1.4178
1.40901
1.40168
1.39987
1.39996
1.40273
1.40706
1.40756
1.40652
1.4035
1.39637
1.38701
1.38214
1.38134
1.38179
1.3838
1.38443
1.38383
1.38274
1.38065
1.37796
1.37681
1.37628
1.37562
1.37437
1.37093
1.36486
1.83157
1.82954
1.82762
1.82555
1.82319
1.82083
1.81926
1.81712
1.81502
1.81243
1.81028
1.80889
1.80664
1.80452
1.80159
1.79945
1.79785
1.79535
1.79314
1.79009
1.78784
1.78596
1.78304
1.7807
1.77752
1.77498
1.77335
1.77056
1.76826
1.76516
1.76247
1.76123
1.75865
1.75623
1.75337
1.75032
1.74906
1.74653
1.74392
1.74145
1.73771
1.73654
1.73492
1.73276
1.73085
1.72724
1.72586
1.7244
1.72252
1.72108
1.71831
1.71717
1.71585
1.71376
1.71226
1.71328
1.71698
1.72121
1.73009
1.75227
1.77182
1.78238
1.78891
1.79192
1.79153
1.7902
1.78654
1.7832
1.78117
1.7782
1.77485
1.77017
1.76813
1.76638
1.76336
1.76046
1.75677
1.75212
1.74805
1.74386
1.74053
1.73713
1.73309
1.73062
1.72786
1.72396
1.72033
1.71511
1.70866
1.70395
1.69935
1.69535
1.69255
1.68881
1.68574
1.6836
1.68014
1.67721
1.67513
1.67064
1.66655
1.66265
1.6577
1.65402
1.65052
1.64634
1.6447
1.64225
1.63853
1.63658
1.63513
1.63401
1.63149
1.62766
1.62355
1.61962
1.61539
1.61
1.60592
1.60489
1.60491
1.60438
1.60324
1.59982
1.59302
1.58561
1.58189
1.58125
1.58153
1.58262
1.58287
1.58264
1.58166
1.57747
1.56852
1.55994
1.55694
1.55662
1.55783
1.55887
1.55825
1.55715
1.55297
1.54448
1.53776
1.53641
1.53638
1.53684
1.53628
1.53529
1.53256
1.52589
1.51889
1.51715
1.51712
1.5175
1.51711
1.51616
1.51368
1.50784
1.50186
1.5003
1.5003
1.50089
1.50037
1.49928
1.49583
1.48785
1.48119
1.48021
1.48018
1.47999
1.47924
1.47784
1.47475
1.47062
1.46908
1.46833
1.4675
1.46655
1.46493
1.46052
1.45384
1.45048
1.44994
1.4494
1.44861
1.44727
1.44514
1.44225
1.43956
1.43694
1.43381
1.43083
1.42986
1.42979
1.43001
1.43004
1.42946
1.42866
1.4275
1.42576
1.42141
1.41331
1.40584
1.40368
1.40369
1.40598
1.40995
1.41051
1.4096
1.40682
1.39997
1.3906
1.38545
1.38453
1.38471
1.38666
1.38776
1.38727
1.38627
1.38432
1.38134
1.37948
1.37883
1.37822
1.37719
1.37445
1.36882
1.36394
1.83065
1.82885
1.82698
1.8249
1.82222
1.82036
1.81854
1.81636
1.81419
1.8114
1.80993
1.80806
1.80596
1.80366
1.80084
1.79944
1.79733
1.79505
1.79255
1.78973
1.78814
1.78565
1.78306
1.78049
1.77726
1.7757
1.77339
1.77084
1.76843
1.76511
1.76367
1.76162
1.75887
1.7566
1.75313
1.75122
1.74926
1.74615
1.74389
1.74035
1.73786
1.73659
1.73406
1.73198
1.72879
1.72576
1.72445
1.72208
1.72036
1.71782
1.71559
1.71518
1.71367
1.71224
1.70942
1.70912
1.71101
1.71322
1.71667
1.7304
1.7524
1.76986
1.78017
1.787
1.78976
1.78919
1.78618
1.78327
1.78088
1.77795
1.77342
1.76937
1.76819
1.76594
1.76317
1.76028
1.75637
1.75278
1.74869
1.74524
1.74243
1.73848
1.73599
1.73383
1.73026
1.72661
1.72239
1.71577
1.71044
1.70602
1.70199
1.69906
1.69558
1.69226
1.69026
1.68719
1.68408
1.68182
1.67651
1.67142
1.66748
1.6627
1.65873
1.65578
1.65152
1.64929
1.64735
1.64398
1.642
1.64086
1.63852
1.63512
1.63098
1.62641
1.62261
1.61865
1.61361
1.60991
1.60898
1.60834
1.60739
1.60605
1.60244
1.59592
1.58895
1.58557
1.5851
1.58556
1.58621
1.58623
1.58583
1.58466
1.58056
1.57205
1.56363
1.56051
1.56014
1.56108
1.56209
1.56149
1.56031
1.55628
1.54815
1.5411
1.53944
1.53936
1.54006
1.53972
1.53884
1.53635
1.52986
1.52262
1.52042
1.52035
1.52072
1.5205
1.51967
1.51747
1.51165
1.50525
1.50349
1.50346
1.50413
1.50379
1.50291
1.50007
1.49247
1.48455
1.48274
1.48275
1.48282
1.48234
1.48124
1.47872
1.47437
1.47224
1.47154
1.47074
1.46983
1.46844
1.46472
1.45789
1.45359
1.45294
1.45228
1.4514
1.45032
1.44853
1.44572
1.44304
1.44071
1.43778
1.43428
1.433
1.43292
1.43293
1.43304
1.4326
1.43176
1.43059
1.42887
1.42496
1.41753
1.41002
1.40753
1.40743
1.40928
1.41283
1.41333
1.41251
1.41001
1.4035
1.39428
1.38905
1.38797
1.38787
1.38916
1.39067
1.39048
1.38976
1.38811
1.38517
1.38257
1.38156
1.38087
1.37996
1.37784
1.37283
1.36751
1.36629
1.82919
1.82747
1.8258
1.82371
1.82154
1.81998
1.81788
1.81579
1.81313
1.81132
1.80973
1.80748
1.8053
1.80226
1.80069
1.79913
1.79678
1.7946
1.79153
1.78987
1.78801
1.78534
1.78314
1.77987
1.77796
1.77626
1.77357
1.77132
1.76808
1.766
1.76448
1.76163
1.75932
1.75629
1.75339
1.75178
1.74887
1.74619
1.74348
1.73989
1.73849
1.73629
1.73363
1.73113
1.72724
1.72562
1.72356
1.72105
1.71916
1.71591
1.71505
1.71409
1.71252
1.71128
1.70865
1.70639
1.70572
1.70678
1.70893
1.71558
1.7322
1.75148
1.7691
1.77958
1.78649
1.78661
1.78506
1.78243
1.77953
1.7761
1.77041
1.76827
1.76708
1.76466
1.76217
1.75879
1.75579
1.7524
1.74876
1.74629
1.7427
1.73994
1.73823
1.73512
1.73156
1.72808
1.72271
1.717
1.71253
1.70858
1.70565
1.70238
1.69917
1.69726
1.69468
1.69145
1.68893
1.68322
1.67719
1.67301
1.66859
1.66447
1.66161
1.65763
1.65453
1.65288
1.64983
1.64765
1.64653
1.64326
1.63901
1.63484
1.62991
1.62619
1.62271
1.61806
1.61458
1.61334
1.61207
1.61067
1.60896
1.60518
1.59904
1.5926
1.58936
1.58895
1.58952
1.58989
1.58967
1.58901
1.5876
1.58358
1.57555
1.56734
1.56415
1.56376
1.56446
1.56524
1.56467
1.56341
1.55933
1.55153
1.54455
1.54259
1.54248
1.54322
1.54316
1.54239
1.54004
1.53376
1.52616
1.52347
1.52338
1.52377
1.52369
1.52303
1.52116
1.51563
1.50878
1.50658
1.50656
1.50727
1.50713
1.50635
1.50391
1.49699
1.48819
1.48533
1.48527
1.48556
1.48531
1.48451
1.48256
1.47831
1.47536
1.47466
1.47389
1.473
1.47178
1.46868
1.46209
1.45677
1.45589
1.45539
1.45452
1.45336
1.45182
1.44921
1.44563
1.44335
1.44163
1.43918
1.43673
1.43623
1.43599
1.43579
1.43541
1.4347
1.4336
1.43194
1.42851
1.4217
1.41423
1.41144
1.41127
1.41259
1.41567
1.41608
1.41528
1.41302
1.40694
1.39792
1.39273
1.3916
1.39139
1.39193
1.39315
1.39325
1.39297
1.39193
1.38936
1.38619
1.38452
1.38361
1.38262
1.38091
1.37659
1.37115
1.36961
1.36939
1.82884
1.82695
1.8252
1.82305
1.82124
1.81947
1.81749
1.8152
1.81264
1.81118
1.80913
1.80702
1.80435
1.80188
1.80058
1.79843
1.7964
1.79376
1.79136
1.7899
1.78745
1.78529
1.78269
1.77995
1.77846
1.77601
1.77372
1.77113
1.76816
1.76672
1.76429
1.76163
1.75926
1.75578
1.75395
1.75166
1.74851
1.74621
1.74262
1.7404
1.73871
1.73581
1.73348
1.73007
1.72735
1.72596
1.72335
1.72138
1.71864
1.71607
1.71547
1.71393
1.71262
1.71082
1.7082
1.70576
1.70209
1.70213
1.70336
1.70741
1.71651
1.73183
1.75385
1.768
1.77792
1.78239
1.78134
1.77885
1.77603
1.77252
1.76735
1.76622
1.76466
1.76241
1.75947
1.75667
1.75478
1.75162
1.74915
1.74625
1.74283
1.74124
1.73862
1.73526
1.73218
1.7281
1.72272
1.71821
1.71433
1.71158
1.70869
1.70572
1.70406
1.70205
1.69876
1.69587
1.69047
1.68339
1.67903
1.67505
1.67103
1.66818
1.66453
1.66075
1.6589
1.65617
1.65365
1.65232
1.64837
1.64342
1.63926
1.63438
1.63035
1.62736
1.62333
1.62002
1.61818
1.6162
1.61409
1.61183
1.60814
1.60261
1.59666
1.59354
1.59311
1.59356
1.59361
1.59308
1.59218
1.5906
1.58673
1.57916
1.57112
1.56784
1.56746
1.56796
1.56845
1.5679
1.56653
1.56231
1.55463
1.548
1.54591
1.54576
1.54645
1.54661
1.546
1.54371
1.53739
1.52956
1.52646
1.52629
1.52667
1.52667
1.52612
1.52452
1.51941
1.51235
1.50967
1.50963
1.51035
1.51038
1.50972
1.50746
1.50101
1.49221
1.48824
1.48795
1.48821
1.48826
1.4877
1.48624
1.48246
1.47858
1.47771
1.47698
1.47611
1.47498
1.47238
1.46617
1.45997
1.45866
1.45826
1.45762
1.45672
1.45528
1.45264
1.44866
1.44575
1.44443
1.44331
1.4419
1.44023
1.43904
1.43848
1.43793
1.43726
1.43634
1.43488
1.43196
1.42586
1.41853
1.41529
1.41509
1.41606
1.41855
1.41875
1.41796
1.41586
1.41016
1.40147
1.39625
1.39514
1.39506
1.39533
1.39552
1.39581
1.39576
1.3953
1.39367
1.39047
1.38783
1.38646
1.38529
1.3837
1.38002
1.37482
1.37287
1.37265
1.37314
1.82828
1.82597
1.82382
1.82197
1.82047
1.81857
1.81656
1.81379
1.81224
1.81074
1.80857
1.8062
1.80329
1.80203
1.80034
1.79809
1.79581
1.79286
1.79149
1.7896
1.78722
1.78498
1.78188
1.78035
1.77836
1.77581
1.77354
1.77033
1.76856
1.76665
1.76371
1.76151
1.75823
1.75564
1.75397
1.75102
1.74865
1.74574
1.74263
1.74124
1.73868
1.73602
1.7334
1.72982
1.72852
1.72651
1.72408
1.72218
1.71878
1.71753
1.71632
1.71448
1.71295
1.71035
1.70808
1.70535
1.70183
1.69879
1.69933
1.70128
1.70566
1.7152
1.7357
1.75418
1.76748
1.77556
1.77542
1.77414
1.77238
1.76892
1.76453
1.76333
1.76128
1.75892
1.75576
1.75479
1.75347
1.7511
1.74891
1.74511
1.74298
1.74108
1.7381
1.73521
1.73194
1.72725
1.72289
1.71886
1.71627
1.71389
1.71109
1.7098
1.70844
1.7054
1.70216
1.69747
1.68985
1.68499
1.68142
1.67769
1.67495
1.67174
1.66777
1.6655
1.663
1.66005
1.65828
1.65412
1.64844
1.64418
1.63969
1.63536
1.63276
1.62947
1.62626
1.6238
1.62105
1.61821
1.61541
1.61181
1.60667
1.6011
1.59825
1.59786
1.59799
1.59747
1.59653
1.59538
1.59366
1.58999
1.58312
1.57517
1.57158
1.57119
1.57153
1.57179
1.57118
1.56966
1.56536
1.5578
1.55138
1.54939
1.54924
1.54994
1.55013
1.54964
1.5474
1.54111
1.53309
1.52953
1.52921
1.52953
1.52959
1.52906
1.52759
1.52283
1.51592
1.51281
1.51271
1.51333
1.51352
1.51305
1.51092
1.50454
1.49592
1.49151
1.4908
1.49089
1.49119
1.4908
1.48973
1.48667
1.48209
1.48071
1.48009
1.47921
1.47808
1.47592
1.47026
1.4634
1.4613
1.46095
1.46035
1.45965
1.45859
1.45638
1.45213
1.44844
1.44736
1.44674
1.44601
1.44504
1.44317
1.44113
1.4402
1.43945
1.4386
1.43738
1.43511
1.42979
1.42266
1.419
1.41877
1.41952
1.42145
1.42141
1.42056
1.41855
1.41315
1.40475
1.39959
1.39847
1.39849
1.39923
1.39869
1.39851
1.39846
1.39822
1.3974
1.39498
1.39158
1.38942
1.38792
1.38625
1.38313
1.3783
1.37605
1.37581
1.37621
1.37763
1.82893
1.82582
1.82286
1.82109
1.8196
1.81798
1.81596
1.81359
1.81208
1.81018
1.8083
1.8058
1.80359
1.80215
1.79993
1.79789
1.7951
1.79283
1.79128
1.78891
1.78691
1.78406
1.78178
1.78017
1.77761
1.77546
1.7726
1.77005
1.76855
1.7659
1.7635
1.76087
1.75756
1.756
1.75357
1.75084
1.74863
1.7453
1.74367
1.74178
1.7389
1.73675
1.73338
1.73121
1.73001
1.72747
1.72573
1.72288
1.72033
1.71934
1.71723
1.71522
1.71263
1.70958
1.70764
1.70482
1.70181
1.69864
1.69691
1.69755
1.6993
1.70409
1.71869
1.73804
1.75555
1.76558
1.77042
1.77062
1.76959
1.76567
1.76196
1.75997
1.75759
1.75485
1.75277
1.75296
1.75183
1.75004
1.7468
1.74344
1.74205
1.73968
1.73707
1.73445
1.73062
1.7268
1.72264
1.71976
1.71784
1.71498
1.71375
1.71296
1.71045
1.70728
1.70349
1.69665
1.69063
1.68718
1.6838
1.6812
1.67848
1.67471
1.67224
1.66996
1.66683
1.66451
1.66067
1.65404
1.6496
1.64567
1.64134
1.63878
1.63612
1.63293
1.63011
1.62676
1.62324
1.61993
1.61638
1.61156
1.60621
1.60361
1.6031
1.6028
1.60171
1.60026
1.59874
1.59689
1.59346
1.58725
1.57946
1.57545
1.57497
1.57517
1.57533
1.57454
1.57283
1.5685
1.56116
1.55487
1.55291
1.55281
1.55389
1.55398
1.5534
1.55109
1.54471
1.53652
1.53271
1.53222
1.53247
1.53256
1.53201
1.53058
1.52601
1.51942
1.51605
1.51582
1.51631
1.51659
1.51627
1.51434
1.50805
1.49929
1.49489
1.49394
1.49384
1.49409
1.49386
1.49305
1.49068
1.48593
1.48373
1.48315
1.4823
1.48119
1.47934
1.47423
1.46694
1.4639
1.46358
1.46303
1.46238
1.46152
1.45978
1.45599
1.45193
1.4507
1.45022
1.4497
1.44903
1.44765
1.44457
1.44242
1.44148
1.44061
1.43951
1.43773
1.43337
1.42663
1.42257
1.42225
1.42276
1.42432
1.42414
1.42328
1.42134
1.4161
1.40786
1.40268
1.40154
1.40162
1.40299
1.40262
1.40202
1.4019
1.40166
1.40102
1.3992
1.39542
1.39237
1.39058
1.38877
1.38594
1.38153
1.37908
1.37879
1.37913
1.38052
1.38027
1.82834
1.8256
1.82265
1.8211
1.81941
1.81744
1.81499
1.81337
1.81175
1.80969
1.80744
1.80484
1.80352
1.80173
1.79948
1.79704
1.79412
1.79264
1.79051
1.78821
1.78573
1.78287
1.78157
1.77942
1.77702
1.77456
1.7713
1.76988
1.76781
1.76516
1.76314
1.75986
1.75805
1.75629
1.7535
1.75129
1.74815
1.74597
1.74483
1.74221
1.74002
1.73747
1.7343
1.73334
1.73128
1.7291
1.727
1.72367
1.72241
1.72053
1.71792
1.71534
1.71142
1.70911
1.70711
1.70442
1.70217
1.69894
1.69651
1.69501
1.69539
1.69768
1.70602
1.72197
1.74005
1.75529
1.7626
1.76611
1.76551
1.76259
1.75973
1.75705
1.75456
1.75098
1.75047
1.75066
1.74952
1.74725
1.74293
1.74106
1.73955
1.73736
1.73531
1.73226
1.72945
1.72602
1.72275
1.72105
1.71806
1.7162
1.71562
1.71361
1.7107
1.70764
1.70272
1.69609
1.69217
1.68901
1.68654
1.68423
1.68072
1.67832
1.67641
1.67339
1.67074
1.66744
1.66062
1.65537
1.65196
1.64803
1.64528
1.64309
1.63984
1.6367
1.63307
1.62912
1.6255
1.62179
1.61712
1.61225
1.61004
1.60922
1.60809
1.60645
1.60438
1.60245
1.60047
1.59726
1.59173
1.58436
1.57971
1.579
1.57901
1.57903
1.57806
1.57613
1.5718
1.56477
1.55866
1.55659
1.55649
1.55796
1.55824
1.55747
1.55483
1.54825
1.54
1.53603
1.53541
1.5356
1.53567
1.5351
1.53366
1.52919
1.52276
1.51937
1.51905
1.51952
1.51967
1.51941
1.51764
1.51147
1.5024
1.49789
1.49711
1.49719
1.49726
1.49701
1.49636
1.49457
1.48991
1.48676
1.48616
1.48538
1.4843
1.4826
1.47806
1.47064
1.46656
1.4662
1.4658
1.46514
1.46435
1.46293
1.4597
1.45582
1.45468
1.45432
1.45383
1.45314
1.45188
1.44831
1.44484
1.44357
1.44267
1.44163
1.44013
1.4367
1.43052
1.42603
1.42553
1.42581
1.42697
1.4268
1.42603
1.42427
1.41921
1.411
1.40563
1.40445
1.40452
1.40645
1.40676
1.40593
1.40577
1.40567
1.40532
1.40347
1.39885
1.39503
1.39309
1.39133
1.38867
1.3846
1.38206
1.38169
1.38188
1.38327
1.3832
1.38235
1.83046
1.82743
1.82422
1.82212
1.81994
1.81739
1.81485
1.8133
1.81139
1.80939
1.80657
1.80432
1.8028
1.80061
1.79869
1.79586
1.79387
1.79209
1.78952
1.78728
1.78409
1.78235
1.78094
1.77852
1.7766
1.77363
1.77143
1.76967
1.76696
1.76499
1.76236
1.76012
1.75895
1.75655
1.75425
1.75171
1.7486
1.7475
1.74553
1.74308
1.74138
1.73822
1.73661
1.73504
1.73239
1.73036
1.72705
1.72477
1.72317
1.72049
1.71799
1.7146
1.71095
1.7091
1.70664
1.70454
1.7024
1.69946
1.69689
1.69335
1.69307
1.6941
1.69818
1.70803
1.72238
1.74242
1.7535
1.75764
1.76076
1.75968
1.75756
1.75502
1.75234
1.74813
1.7481
1.7478
1.7462
1.74272
1.73884
1.73782
1.73622
1.73457
1.73199
1.72974
1.72793
1.72498
1.72341
1.72122
1.71806
1.7173
1.71568
1.71293
1.71019
1.70664
1.70066
1.69632
1.69312
1.69068
1.6888
1.68554
1.68319
1.68176
1.67907
1.67632
1.67348
1.66746
1.66117
1.6581
1.65478
1.65189
1.65005
1.64695
1.64344
1.63967
1.63538
1.63171
1.62809
1.62357
1.61931
1.61739
1.61611
1.61433
1.612
1.60922
1.60678
1.60457
1.6015
1.59641
1.58942
1.58435
1.58338
1.58317
1.58297
1.58186
1.57977
1.57542
1.56871
1.56277
1.56064
1.56053
1.56217
1.5627
1.5618
1.55874
1.55181
1.54352
1.53953
1.53881
1.53896
1.53902
1.53839
1.5369
1.53251
1.52614
1.52265
1.52228
1.52288
1.52301
1.52267
1.52086
1.5147
1.50549
1.50075
1.49995
1.50031
1.50081
1.50049
1.49994
1.4985
1.49402
1.48992
1.48915
1.48848
1.48744
1.48587
1.48184
1.47447
1.46936
1.46875
1.46859
1.46808
1.4673
1.46601
1.46316
1.45958
1.45865
1.45856
1.45828
1.45762
1.45611
1.4518
1.44734
1.44574
1.44486
1.44388
1.44254
1.43982
1.43434
1.42942
1.42872
1.42877
1.42953
1.42944
1.42885
1.42734
1.4225
1.41429
1.40851
1.40724
1.40732
1.40948
1.41099
1.41013
1.40964
1.40948
1.40914
1.40708
1.40188
1.39725
1.39521
1.39375
1.39145
1.38767
1.38506
1.3846
1.38463
1.38583
1.38611
1.38517
1.38433
1.82975
1.82747
1.82423
1.82162
1.81928
1.81652
1.81436
1.81244
1.81026
1.80801
1.80537
1.80371
1.80151
1.79924
1.79654
1.79403
1.79314
1.79118
1.78893
1.78594
1.78319
1.78204
1.77983
1.77787
1.77583
1.77348
1.77205
1.76975
1.76732
1.76474
1.76175
1.76096
1.75952
1.7572
1.75525
1.75204
1.75027
1.74871
1.74601
1.74412
1.74141
1.73919
1.73822
1.73579
1.73344
1.73057
1.72708
1.72544
1.72298
1.72019
1.71745
1.71339
1.71127
1.70922
1.70685
1.70517
1.70242
1.69999
1.69741
1.69365
1.6916
1.69234
1.69425
1.69806
1.70644
1.72504
1.74142
1.74887
1.75513
1.75661
1.75559
1.75401
1.75098
1.74687
1.74617
1.74466
1.74217
1.73757
1.73497
1.73416
1.7328
1.73094
1.72827
1.72749
1.72585
1.72424
1.7231
1.71967
1.71795
1.71672
1.71413
1.71146
1.70865
1.70388
1.69981
1.69637
1.69365
1.69196
1.68907
1.68662
1.68574
1.68359
1.68082
1.67822
1.67349
1.66668
1.66345
1.66084
1.65807
1.65643
1.65378
1.65013
1.64632
1.64188
1.63805
1.6347
1.63045
1.62673
1.62499
1.62334
1.6211
1.61835
1.61499
1.61193
1.60946
1.6065
1.60158
1.59482
1.58932
1.58806
1.58766
1.58727
1.58606
1.58388
1.57949
1.57313
1.56734
1.56518
1.56508
1.56678
1.56741
1.56632
1.56274
1.55538
1.54717
1.54323
1.54246
1.5426
1.54261
1.54194
1.5404
1.53602
1.5297
1.52611
1.52567
1.52632
1.52656
1.52612
1.52415
1.51792
1.50855
1.5036
1.50269
1.50311
1.50436
1.50399
1.50353
1.50231
1.49789
1.49312
1.49211
1.49161
1.49066
1.48916
1.4855
1.4784
1.47244
1.47143
1.47139
1.47109
1.4704
1.46926
1.46668
1.46313
1.46222
1.46218
1.46205
1.46157
1.45991
1.455
1.44972
1.4479
1.44714
1.44621
1.44494
1.44267
1.43791
1.43302
1.43188
1.4318
1.43211
1.43212
1.43163
1.43032
1.42586
1.41776
1.41148
1.41004
1.41012
1.41212
1.41484
1.41441
1.41365
1.41323
1.41261
1.41009
1.40442
1.39914
1.39701
1.39588
1.39413
1.39081
1.3881
1.38752
1.38743
1.38836
1.38895
1.38805
1.38702
1.38598
1.8322
1.83036
1.8269
1.82331
1.81993
1.81665
1.81395
1.8114
1.8092
1.80668
1.80505
1.80341
1.80102
1.79835
1.79449
1.7928
1.79184
1.7903
1.78878
1.78616
1.78439
1.78235
1.7798
1.77753
1.77498
1.77403
1.77275
1.77041
1.76836
1.76501
1.76288
1.76173
1.75955
1.75775
1.75537
1.75304
1.75172
1.74922
1.74683
1.74439
1.74118
1.74005
1.73831
1.73577
1.73364
1.7302
1.72789
1.7256
1.72238
1.71971
1.71608
1.71321
1.7119
1.70956
1.70789
1.70569
1.70263
1.70078
1.69798
1.69474
1.69177
1.69145
1.69181
1.69196
1.69543
1.70774
1.72666
1.74018
1.74896
1.75356
1.7545
1.75386
1.75045
1.74687
1.74483
1.74206
1.73841
1.73291
1.7315
1.73065
1.72937
1.72691
1.72556
1.72514
1.72385
1.72311
1.72053
1.71721
1.7162
1.71401
1.71143
1.70935
1.70577
1.70248
1.69937
1.69621
1.69433
1.69178
1.6887
1.68807
1.68682
1.6842
1.68189
1.67835
1.67172
1.6678
1.66579
1.66327
1.66171
1.65946
1.65606
1.65247
1.64826
1.64432
1.64124
1.63729
1.63376
1.63211
1.63029
1.62781
1.62493
1.62145
1.61793
1.61512
1.61214
1.60739
1.60084
1.59485
1.59303
1.59251
1.59195
1.59069
1.58853
1.58411
1.57799
1.57239
1.57029
1.57017
1.57199
1.57246
1.57108
1.567
1.55914
1.55093
1.54717
1.54638
1.54654
1.54648
1.54574
1.54414
1.53978
1.53356
1.52989
1.52937
1.52999
1.53037
1.52982
1.52761
1.52124
1.51184
1.50662
1.50555
1.50589
1.50777
1.50757
1.50702
1.50578
1.50138
1.4962
1.49488
1.49457
1.49385
1.49251
1.48915
1.48224
1.47583
1.47431
1.47429
1.4742
1.47363
1.47265
1.47042
1.46673
1.46543
1.46533
1.46511
1.46459
1.46296
1.45818
1.45223
1.44998
1.44944
1.44864
1.44741
1.44535
1.44121
1.43656
1.4353
1.435
1.43501
1.43487
1.43436
1.43311
1.42893
1.42121
1.41479
1.41304
1.41301
1.41462
1.41784
1.41821
1.41746
1.41684
1.41593
1.41306
1.4069
1.40094
1.39866
1.39781
1.39656
1.39383
1.39113
1.39048
1.39028
1.39091
1.39176
1.39102
1.38984
1.38868
1.38656
1.82555
1.82612
1.82541
1.82293
1.81966
1.81686
1.81444
1.8119
1.80832
1.80513
1.80394
1.80246
1.8009
1.79845
1.79509
1.79296
1.79068
1.78901
1.78736
1.78624
1.78545
1.78321
1.78096
1.7776
1.77509
1.77444
1.77286
1.7712
1.76916
1.76628
1.76459
1.7621
1.75945
1.75695
1.75419
1.75313
1.75162
1.74933
1.7475
1.74411
1.74181
1.74029
1.73762
1.73543
1.73282
1.73013
1.7283
1.72534
1.72246
1.71934
1.71533
1.71403
1.71234
1.7103
1.70862
1.70544
1.70332
1.70141
1.69863
1.69608
1.69273
1.69095
1.68932
1.68881
1.68986
1.69645
1.71193
1.72885
1.74233
1.74839
1.75246
1.75288
1.75053
1.7472
1.74389
1.74034
1.73527
1.72989
1.72916
1.72795
1.72623
1.72364
1.72336
1.72294
1.72223
1.72064
1.71602
1.71428
1.7126
1.71007
1.70846
1.70585
1.70337
1.70158
1.69871
1.69647
1.69423
1.69021
1.68918
1.68875
1.68663
1.68454
1.68193
1.67621
1.67156
1.66968
1.66746
1.66585
1.66368
1.66038
1.6574
1.65377
1.65009
1.64738
1.64382
1.63997
1.63826
1.63648
1.63395
1.63112
1.6279
1.62438
1.62131
1.61823
1.61365
1.60719
1.60092
1.59844
1.59779
1.59707
1.59574
1.59358
1.58926
1.58338
1.57788
1.57594
1.57587
1.57772
1.57796
1.57615
1.57152
1.5632
1.55505
1.55139
1.55061
1.55084
1.55073
1.54983
1.54812
1.54377
1.53773
1.53404
1.53347
1.53413
1.53452
1.53381
1.53124
1.52465
1.51522
1.50993
1.5087
1.50892
1.51117
1.5114
1.51065
1.50916
1.50467
1.49929
1.49769
1.49751
1.49703
1.49585
1.4928
1.48619
1.47938
1.47735
1.47727
1.47738
1.4769
1.47611
1.47434
1.47058
1.46851
1.46822
1.46781
1.4672
1.46559
1.46096
1.45472
1.45208
1.45165
1.45106
1.45
1.44816
1.44446
1.43989
1.43864
1.43842
1.43822
1.43785
1.43727
1.43588
1.43169
1.42426
1.41817
1.41635
1.41621
1.41747
1.42032
1.42117
1.42057
1.41999
1.41903
1.41616
1.40999
1.40317
1.40045
1.39969
1.39871
1.39652
1.39401
1.39335
1.39312
1.39351
1.39452
1.39403
1.39284
1.39152
1.3895
1.38443
1.82191
1.82393
1.82384
1.82226
1.81993
1.81819
1.81601
1.81325
1.80944
1.80541
1.8018
1.80103
1.80068
1.79929
1.7973
1.79463
1.7919
1.78838
1.78617
1.78634
1.78594
1.78456
1.78293
1.77933
1.77657
1.7746
1.77236
1.77058
1.76834
1.76705
1.76524
1.76241
1.75964
1.75555
1.75356
1.75275
1.75066
1.74913
1.7472
1.74446
1.74279
1.74011
1.73731
1.73459
1.73132
1.72993
1.72795
1.725
1.72281
1.71912
1.71669
1.71538
1.71304
1.71114
1.70833
1.70528
1.70379
1.70143
1.69937
1.69712
1.69405
1.69138
1.68773
1.68621
1.6868
1.69023
1.69994
1.71467
1.73288
1.74117
1.74739
1.751
1.75001
1.74689
1.74306
1.73921
1.73279
1.72917
1.72822
1.7264
1.72401
1.72219
1.72209
1.72158
1.72032
1.71556
1.71178
1.7105
1.70814
1.70655
1.70464
1.70243
1.70198
1.70039
1.69807
1.69605
1.69166
1.6893
1.68941
1.68821
1.68621
1.6844
1.68016
1.67499
1.67259
1.6705
1.66892
1.66693
1.66342
1.66087
1.65809
1.6548
1.65245
1.64976
1.64527
1.643
1.64144
1.63906
1.63642
1.63362
1.63048
1.62749
1.62444
1.62004
1.61359
1.60711
1.60405
1.60333
1.60259
1.60125
1.59907
1.59483
1.58909
1.58385
1.58208
1.58209
1.58393
1.58392
1.58156
1.57637
1.56756
1.55953
1.55603
1.55526
1.55553
1.55542
1.55433
1.55245
1.54805
1.54221
1.53855
1.53798
1.53865
1.53916
1.5382
1.53512
1.52818
1.51881
1.51367
1.51234
1.51247
1.51486
1.5155
1.51465
1.51279
1.50809
1.50255
1.50064
1.50052
1.50022
1.49919
1.49634
1.49001
1.48303
1.48049
1.48028
1.48057
1.48025
1.47957
1.47828
1.47495
1.47172
1.47109
1.47047
1.46967
1.46806
1.46366
1.45724
1.45413
1.45373
1.45333
1.45248
1.45099
1.4479
1.44342
1.44194
1.44181
1.44169
1.44119
1.44046
1.43878
1.43432
1.42705
1.42139
1.41962
1.41951
1.42099
1.42351
1.42399
1.42343
1.42284
1.42147
1.41855
1.41354
1.40679
1.4027
1.40168
1.40064
1.39872
1.39666
1.39603
1.39584
1.39612
1.39723
1.39701
1.39594
1.39462
1.39271
1.38792
1.37945
1.79007
1.81933
1.81789
1.81774
1.817
1.81583
1.81553
1.81423
1.81166
1.80772
1.80346
1.80094
1.7995
1.79942
1.79881
1.79701
1.79457
1.79055
1.78725
1.78551
1.78487
1.78428
1.78293
1.78103
1.7784
1.77513
1.77211
1.76879
1.76674
1.76607
1.7642
1.76235
1.75994
1.75625
1.75448
1.75218
1.74988
1.74826
1.74588
1.7443
1.74239
1.73967
1.73728
1.73354
1.73149
1.73004
1.72707
1.72485
1.72249
1.71949
1.71845
1.71635
1.71404
1.71148
1.70759
1.70581
1.70381
1.70137
1.69972
1.69747
1.69511
1.69185
1.68755
1.68496
1.68516
1.68701
1.69155
1.70079
1.71832
1.73197
1.7414
1.74817
1.74837
1.74628
1.74306
1.73854
1.7313
1.72931
1.72783
1.72591
1.7237
1.72271
1.72205
1.72034
1.71618
1.7099
1.70818
1.70642
1.70449
1.70319
1.70103
1.70109
1.70073
1.69883
1.69683
1.69272
1.68846
1.68873
1.68836
1.68674
1.68544
1.68283
1.67841
1.67512
1.67267
1.67092
1.66921
1.66574
1.66318
1.66142
1.65875
1.65666
1.65474
1.65049
1.64643
1.64484
1.64277
1.64041
1.63811
1.63563
1.63303
1.63018
1.62621
1.61994
1.61307
1.60943
1.60871
1.60807
1.6069
1.60479
1.6006
1.5949
1.59002
1.58852
1.58856
1.59032
1.59006
1.58731
1.58151
1.57222
1.56444
1.56113
1.56038
1.56066
1.56051
1.5593
1.55727
1.55276
1.54706
1.54346
1.54289
1.54365
1.54413
1.54294
1.53932
1.5319
1.52265
1.5178
1.51646
1.51657
1.51908
1.52006
1.51905
1.51686
1.51182
1.50602
1.5038
1.50368
1.50352
1.50257
1.49985
1.49383
1.48687
1.48391
1.48356
1.48381
1.4837
1.48309
1.48208
1.47945
1.47543
1.4741
1.47336
1.47239
1.47074
1.46649
1.45994
1.45633
1.45585
1.45556
1.4549
1.45371
1.45127
1.44724
1.44541
1.44525
1.44519
1.44479
1.44404
1.44199
1.43694
1.42968
1.42453
1.42293
1.42291
1.4248
1.42737
1.42752
1.42674
1.42556
1.42316
1.41991
1.41614
1.41129
1.40616
1.40385
1.40236
1.40056
1.39902
1.39851
1.39836
1.39866
1.39995
1.39992
1.39902
1.3978
1.39604
1.39159
1.38318
1.37652
1.66852
1.7826
1.80898
1.80851
1.80852
1.81055
1.81365
1.81421
1.81371
1.81246
1.80845
1.80292
1.79988
1.79834
1.79835
1.798
1.79648
1.79355
1.78996
1.78657
1.78356
1.78184
1.78099
1.77997
1.77812
1.77582
1.77227
1.76813
1.76676
1.76491
1.76263
1.76131
1.75916
1.75707
1.75496
1.7523
1.75006
1.74685
1.74507
1.74388
1.74126
1.73906
1.7366
1.73353
1.73223
1.72993
1.72717
1.7251
1.72198
1.72052
1.71891
1.71648
1.71438
1.71086
1.70818
1.70664
1.70392
1.70198
1.69979
1.69764
1.69572
1.69227
1.68836
1.68592
1.68441
1.68505
1.68635
1.6904
1.70302
1.71917
1.7338
1.74388
1.74639
1.74581
1.74313
1.73804
1.73224
1.7305
1.72819
1.7262
1.7245
1.72349
1.72125
1.71729
1.71108
1.70651
1.70538
1.7034
1.7021
1.70028
1.7
1.70034
1.69916
1.69704
1.69333
1.68734
1.68691
1.68708
1.68603
1.68495
1.68337
1.68038
1.67754
1.67475
1.67242
1.67056
1.66725
1.66427
1.6635
1.66183
1.65995
1.65865
1.65579
1.65026
1.64732
1.64524
1.64304
1.64109
1.63929
1.6374
1.63505
1.63155
1.62577
1.61861
1.61426
1.61353
1.6131
1.61216
1.61015
1.60601
1.60049
1.59612
1.59488
1.59499
1.59649
1.59598
1.59299
1.5867
1.57705
1.56968
1.5666
1.5659
1.56621
1.56606
1.56469
1.56257
1.55796
1.55233
1.54888
1.5483
1.54903
1.54942
1.54787
1.54369
1.53578
1.52674
1.52227
1.521
1.52118
1.52386
1.52497
1.52385
1.52135
1.51602
1.51001
1.50741
1.50717
1.50698
1.50606
1.50335
1.49747
1.49056
1.48753
1.48711
1.48748
1.48761
1.48696
1.48605
1.48396
1.47943
1.47721
1.47652
1.47553
1.47382
1.46964
1.46297
1.45875
1.45813
1.45796
1.45742
1.45645
1.45457
1.45116
1.44913
1.44893
1.44889
1.44857