/*--------------------------------*- C++ -*----------------------------------*\
  =========                 |
  \\      /  F ield         | OpenFOAM: The Open Source CFD Toolbox
   \\    /   O peration     | Website:  https://openfoam.org
    \\  /    A nd           | Version:  7
     \\/     M anipulation  |
\*---------------------------------------------------------------------------*/
FoamFile
{
    version     2.0;
    format      ascii;
    class       volScalarField;
    location    "2.1";
    object      T;
}
// * * * * * * * * * * * * * * * * * * * * * * * * * * * * * * * * * * * * * //

dimensions      [0 0 0 1 0 0 0];

internalField   nonuniform List<scalar> 
4128
(
1.5475
1.53995
1.53232
1.52693
1.52308
1.51949
1.51633
1.51368
1.51115
1.50829
1.50439
1.49953
1.49387
1.48691
1.48021
1.47485
1.47041
1.46677
1.46328
1.45941
1.45586
1.45304
1.45025
1.4467
1.4398
1.43053
1.42485
1.4218
1.41918
1.41688
1.41479
1.41299
1.41142
1.40975
1.40718
1.40092
1.39054
1.38305
1.37921
1.37666
1.37486
1.37338
1.37215
1.37053
1.36877
1.36738
1.366
1.36426
1.35994
1.34979
1.34018
1.33561
1.33241
1.32864
1.32612
1.32521
1.32451
1.32347
1.32163
1.3176
1.31019
1.30371
1.30026
1.29778
1.29554
1.2937
1.29213
1.29042
1.28842
1.28591
1.28279
1.27952
1.2769
1.2746
1.2726
1.27075
1.26834
1.26522
1.2606
1.25306
1.24612
1.24293
1.24109
1.23968
1.23851
1.23754
1.23629
1.23475
1.23299
1.23096
1.22768
1.22154
1.21512
1.21145
1.20926
1.20835
1.2085
1.20871
1.2087
1.20828
1.20703
1.20465
1.20091
1.19512
1.1866
1.17987
1.17686
1.17536
1.17468
1.17404
1.17311
1.1722
1.17175
1.17104
1.16992
1.16853
1.16641
1.16335
1.15972
1.15497
1.14995
1.14669
1.14464
1.14306
1.14167
1.14048
1.1395
1.1388
1.13654
1.54584
1.54049
1.53445
1.52849
1.52333
1.51876
1.51437
1.51044
1.50729
1.50461
1.50234
1.5
1.49685
1.49205
1.48471
1.47569
1.46828
1.46314
1.45996
1.45786
1.45659
1.45472
1.45221
1.44867
1.44263
1.43316
1.42448
1.42077
1.41881
1.41681
1.41409
1.41143
1.40965
1.40782
1.40539
1.40155
1.39429
1.38545
1.37969
1.37625
1.37382
1.37205
1.37064
1.37015
1.37041
1.36936
1.36785
1.36615
1.36217
1.35258
1.34055
1.33439
1.33185
1.3304
1.32945
1.32871
1.32789
1.32677
1.32476
1.32001
1.31131
1.30356
1.2997
1.29712
1.29515
1.29399
1.29304
1.29196
1.29034
1.28739
1.2825
1.27758
1.27433
1.27182
1.26984
1.26851
1.26709
1.26477
1.26115
1.2556
1.24914
1.2455
1.24365
1.24212
1.24057
1.23877
1.237
1.23562
1.23407
1.23207
1.22906
1.22365
1.21626
1.21127
1.20869
1.20687
1.20648
1.20642
1.20614
1.20558
1.20464
1.20297
1.20071
1.19749
1.19113
1.18167
1.17723
1.17639
1.17591
1.17533
1.17434
1.17318
1.17206
1.1709
1.16965
1.16808
1.16561
1.16242
1.159
1.15599
1.15234
1.14742
1.1435
1.14102
1.13927
1.13801
1.1369
1.13606
1.1336
1.54349
1.53891
1.53466
1.53007
1.52479
1.51881
1.51253
1.50803
1.50512
1.50248
1.49997
1.49749
1.49512
1.49222
1.48748
1.47859
1.46861
1.46295
1.45946
1.45647
1.45362
1.45098
1.44844
1.44575
1.44269
1.43777
1.43034
1.42328
1.41906
1.41693
1.41536
1.41379
1.41167
1.40921
1.40647
1.40281
1.39657
1.38915
1.38269
1.37834
1.3749
1.37229
1.37073
1.36979
1.36907
1.36763
1.36539
1.36282
1.35975
1.35413
1.34488
1.33662
1.33266
1.33028
1.32822
1.32631
1.32471
1.32318
1.32122
1.31797
1.31161
1.30499
1.30161
1.2994
1.29733
1.2952
1.29324
1.29155
1.28948
1.28647
1.28219
1.27716
1.27355
1.27091
1.26835
1.2662
1.26508
1.264
1.262
1.25885
1.25335
1.24679
1.24249
1.23971
1.2378
1.23638
1.23509
1.23379
1.23234
1.23034
1.22793
1.22511
1.22038
1.21405
1.20929
1.20631
1.20573
1.20552
1.20517
1.20461
1.20376
1.20222
1.19992
1.19709
1.19355
1.18749
1.18004
1.17639
1.17531
1.17491
1.17503
1.17477
1.1736
1.17217
1.17049
1.16791
1.16473
1.16186
1.15989
1.15797
1.15437
1.14869
1.14367
1.14071
1.13866
1.13739
1.13622
1.13519
1.1326
1.54208
1.53835
1.53485
1.53128
1.5267
1.5199
1.51206
1.50663
1.50357
1.50089
1.49846
1.49619
1.49388
1.49141
1.48829
1.48245
1.47225
1.46343
1.45911
1.45582
1.4525
1.44931
1.44674
1.44462
1.44219
1.43839
1.43312
1.42812
1.42384
1.41989
1.41575
1.41125
1.40738
1.404
1.40075
1.39802
1.396
1.39202
1.38659
1.38189
1.3781
1.37482
1.37245
1.37114
1.36996
1.36833
1.36597
1.3628
1.3586
1.35388
1.34732
1.34001
1.33443
1.33072
1.3279
1.3255
1.32344
1.3216
1.31939
1.31631
1.31227
1.30706
1.30266
1.30026
1.29865
1.29752
1.29624
1.29453
1.29209
1.28779
1.28161
1.2762
1.27278
1.27024
1.26802
1.26599
1.26446
1.26401
1.26386
1.26156
1.25618
1.24882
1.24296
1.23933
1.23704
1.23545
1.23402
1.23259
1.23138
1.23012
1.22857
1.2267
1.22309
1.21644
1.20995
1.20749
1.20704
1.20682
1.20652
1.20604
1.2053
1.20385
1.2016
1.1988
1.19521
1.18977
1.1828
1.17787
1.17593
1.17485
1.17366
1.1719
1.17028
1.16909
1.16797
1.16641
1.16415
1.16194
1.15951
1.15638
1.15292
1.14945
1.14579
1.1426
1.14061
1.13949
1.13828
1.13705
1.13432
1.54009
1.53674
1.53426
1.53213
1.52909
1.52266
1.51229
1.50572
1.50286
1.50023
1.49746
1.49503
1.49274
1.49033
1.48763
1.48418
1.47795
1.46825
1.46049
1.45628
1.45274
1.44911
1.44582
1.4426
1.43927
1.43614
1.43343
1.43056
1.42719
1.42278
1.41679
1.41064
1.40619
1.40287
1.39942
1.39587
1.39262
1.39074
1.38902
1.38642
1.38255
1.37713
1.37136
1.36658
1.36357
1.36163
1.35986
1.35758
1.35437
1.35032
1.34665
1.34271
1.33771
1.33337
1.33055
1.3283
1.32604
1.32345
1.32005
1.31567
1.31078
1.30679
1.30409
1.3018
1.29942
1.29701
1.29477
1.29258
1.28986
1.28568
1.27989
1.27691
1.27539
1.27364
1.27153
1.26932
1.26724
1.26473
1.26132
1.2576
1.25366
1.24992
1.24603
1.24214
1.23853
1.23556
1.23376
1.23243
1.23104
1.22942
1.22748
1.22523
1.2227
1.21892
1.21269
1.20687
1.20385
1.20282
1.20231
1.20177
1.20102
1.19973
1.19758
1.19447
1.19082
1.18751
1.18443
1.18088
1.17766
1.17521
1.17289
1.17054
1.16895
1.16796
1.16701
1.16617
1.16538
1.16389
1.16061
1.1563
1.15295
1.15038
1.14745
1.14304
1.13893
1.13724
1.13593
1.13438
1.13132
1.54027
1.53656
1.53305
1.53055
1.52825
1.52444
1.51632
1.50675
1.5024
1.50049
1.49925
1.49807
1.49583
1.49296
1.48951
1.48526
1.47974
1.47294
1.46519
1.45797
1.45345
1.45047
1.44734
1.44285
1.43829
1.43512
1.4328
1.43077
1.42874
1.42607
1.42146
1.41367
1.40497
1.3994
1.39643
1.39396
1.39144
1.38904
1.38732
1.386
1.38414
1.38025
1.37271
1.36564
1.36143
1.35854
1.35646
1.35498
1.35371
1.35168
1.34866
1.34541
1.34186
1.33793
1.33329
1.32877
1.32498
1.32158
1.3184
1.31471
1.31035
1.30646
1.3035
1.30097
1.29851
1.29618
1.29386
1.29123
1.2882
1.28451
1.28114
1.27859
1.27597
1.27323
1.27028
1.26724
1.26431
1.26125
1.25802
1.25494
1.25217
1.24972
1.24746
1.24484
1.24157
1.2384
1.23609
1.23437
1.23268
1.23081
1.22872
1.22642
1.22384
1.22014
1.21476
1.20811
1.20337
1.20152
1.20074
1.20009
1.19912
1.19782
1.19611
1.19343
1.18984
1.18662
1.18462
1.18297
1.18031
1.17647
1.17286
1.16985
1.16854
1.16809
1.1675
1.16638
1.16476
1.16247
1.15935
1.15562
1.15277
1.15068
1.1481
1.14354
1.13852
1.1365
1.13523
1.13359
1.13035
1.54037
1.5374
1.53513
1.53294
1.52977
1.52509
1.51806
1.51108
1.50589
1.50164
1.49768
1.49366
1.49032
1.48684
1.48282
1.47885
1.47585
1.47331
1.46965
1.46396
1.45602
1.44792
1.44245
1.43916
1.43599
1.43354
1.432
1.43138
1.43007
1.42815
1.42454
1.41665
1.40522
1.39779
1.3946
1.39241
1.39076
1.38998
1.38867
1.3871
1.38531
1.38212
1.37625
1.36821
1.36144
1.35748
1.35517
1.35252
1.34966
1.34721
1.34451
1.34229
1.34086
1.33924
1.33637
1.33135
1.32565
1.32125
1.31759
1.31432
1.3114
1.30827
1.30503
1.30217
1.29928
1.29609
1.29327
1.29021
1.28669
1.28394
1.2819
1.27952
1.27664
1.2735
1.2702
1.26674
1.2632
1.26011
1.257
1.25404
1.25169
1.2504
1.2493
1.24768
1.24444
1.23907
1.23426
1.23125
1.22903
1.22698
1.22492
1.22265
1.22023
1.21822
1.21604
1.21225
1.20672
1.20235
1.20056
1.19963
1.19858
1.1968
1.19513
1.19391
1.19176
1.18906
1.18668
1.18445
1.18148
1.17729
1.17325
1.17128
1.17071
1.17043
1.1698
1.16828
1.16583
1.1624
1.15863
1.15557
1.15325
1.15121
1.14869
1.14447
1.13879
1.13637
1.13562
1.13486
1.13232
1.54451
1.53912
1.53338
1.52765
1.52294
1.5188
1.51566
1.51281
1.50898
1.50378
1.49763
1.49174
1.48723
1.48358
1.47987
1.47658
1.474
1.4718
1.46984
1.46693
1.46022
1.44865
1.43978
1.43642
1.43467
1.43294
1.43109
1.42956
1.42802
1.42627
1.42379
1.41827
1.40693
1.39794
1.3947
1.39229
1.38993
1.38786
1.38597
1.38405
1.38194
1.37958
1.3766
1.37141
1.36451
1.35919
1.35481
1.35068
1.34705
1.34486
1.34351
1.34236
1.34093
1.33944
1.33749
1.33385
1.32846
1.3229
1.31848
1.31494
1.31158
1.30811
1.30436
1.30098
1.29879
1.29728
1.29553
1.29271
1.28904
1.28581
1.2831
1.2803
1.27732
1.27435
1.2712
1.26738
1.26272
1.25924
1.25805
1.257
1.25593
1.2547
1.253
1.25054
1.24661
1.24048
1.23428
1.23051
1.22801
1.22574
1.22349
1.22109
1.21857
1.21627
1.21449
1.21286
1.20984
1.20493
1.20206
1.20113
1.20008
1.19853
1.19623
1.19296
1.18935
1.18612
1.18335
1.181
1.17953
1.17848
1.17708
1.17474
1.17125
1.16813
1.16647
1.16492
1.16249
1.15901
1.15566
1.15364
1.15244
1.15134
1.14953
1.14571
1.14072
1.13773
1.13569
1.1338
1.13029
1.54793
1.5413
1.53328
1.52535
1.51974
1.51646
1.51423
1.51207
1.5095
1.50581
1.50041
1.49339
1.48588
1.48095
1.47821
1.47601
1.47378
1.47153
1.46928
1.467
1.46279
1.45232
1.44061
1.43568
1.43326
1.43133
1.42947
1.42772
1.42627
1.42484
1.42297
1.41938
1.41074
1.39974
1.39485
1.3922
1.3893
1.38644
1.38427
1.38233
1.38046
1.37865
1.37657
1.37311
1.36618
1.35743
1.35188
1.34889
1.34672
1.34453
1.34225
1.34043
1.33887
1.33718
1.33521
1.33314
1.33012
1.32491
1.31921
1.31471
1.31117
1.30801
1.30508
1.30219
1.299
1.29577
1.29287
1.29007
1.28654
1.28331
1.28123
1.27952
1.27773
1.2753
1.27198
1.26806
1.26357
1.25815
1.25463
1.25367
1.25288
1.25179
1.25032
1.2483
1.24568
1.242
1.23665
1.23181
1.22863
1.22582
1.22325
1.22049
1.2175
1.21515
1.21387
1.21294
1.21169
1.20838
1.20225
1.19769
1.19599
1.19472
1.19308
1.19053
1.18768
1.18494
1.18249
1.18031
1.17853
1.1777
1.17734
1.17624
1.17276
1.16804
1.16485
1.163
1.16096
1.15795
1.15515
1.15341
1.15204
1.15072
1.14912
1.14647
1.14214
1.13801
1.13542
1.13335
1.12968
1.55016
1.54477
1.53604
1.52559
1.5184
1.51537
1.51354
1.51192
1.51005
1.50736
1.50259
1.49378
1.48474
1.48004
1.47732
1.47507
1.47339
1.47242
1.47078
1.4686
1.46476
1.45666
1.44552
1.43727
1.43312
1.43084
1.42966
1.42935
1.42799
1.42626
1.42427
1.42092
1.41365
1.40341
1.3956
1.39204
1.39005
1.38849
1.38718
1.38567
1.38378
1.38165
1.37918
1.3753
1.36761
1.35741
1.351
1.34829
1.34631
1.34404
1.34139
1.33915
1.33759
1.33636
1.33505
1.33339
1.33101
1.32639
1.31935
1.31424
1.31113
1.30862
1.30625
1.30373
1.30085
1.2969
1.29212
1.2882
1.28514
1.28269
1.28091
1.27917
1.27728
1.27526
1.27285
1.26916
1.26325
1.25658
1.25311
1.25193
1.25105
1.25013
1.24905
1.24773
1.24607
1.24354
1.23875
1.23193
1.22837
1.22682
1.2248
1.22237
1.22006
1.21839
1.21709
1.21584
1.21408
1.21029
1.2032
1.19646
1.19409
1.19289
1.19116
1.18854
1.18577
1.1838
1.1819
1.1802
1.17915
1.17857
1.17802
1.17684
1.17356
1.16746
1.1628
1.16074
1.15925
1.15777
1.1565
1.15526
1.15428
1.15328
1.15179
1.14905
1.14389
1.13798
1.13523
1.1342
1.13155
1.55158
1.54713
1.53821
1.5264
1.51935
1.51574
1.51314
1.51142
1.51042
1.50899
1.50402
1.49393
1.48518
1.48116
1.47816
1.47533
1.47299
1.47096
1.46845
1.46518
1.46147
1.45691
1.45037
1.4433
1.43756
1.43308
1.42944
1.42589
1.42292
1.42046
1.41787
1.41501
1.41152
1.40587
1.40037
1.39589
1.39156
1.38739
1.38411
1.38218
1.38072
1.37888
1.37622
1.37261
1.36751
1.36023
1.35282
1.34831
1.34561
1.34352
1.34198
1.34111
1.34052
1.33978
1.3384
1.3358
1.33103
1.32466
1.31949
1.3168
1.31458
1.31195
1.30866
1.3045
1.299
1.29223
1.28667
1.28424
1.2831
1.28229
1.28109
1.27964
1.278
1.27625
1.27396
1.2699
1.26291
1.25639
1.25289
1.2513
1.25028
1.24935
1.24836
1.24724
1.24579
1.24393
1.24055
1.23432
1.22812
1.22418
1.22166
1.21949
1.21756
1.21589
1.21438
1.21291
1.21134
1.20952
1.2061
1.20006
1.19337
1.18958
1.18752
1.18579
1.18405
1.18241
1.18204
1.18181
1.18065
1.1799
1.1794
1.17827
1.17449
1.16717
1.16214
1.16026
1.15906
1.15772
1.15612
1.15442
1.15292
1.15153
1.14971
1.14662
1.14249
1.13873
1.13595
1.13366
1.12957
1.5491
1.54504
1.53866
1.52943
1.52207
1.51791
1.51471
1.51144
1.50857
1.50553
1.50105
1.49397
1.48665
1.48226
1.4793
1.47664
1.4744
1.47229
1.46964
1.46599
1.46107
1.45623
1.45139
1.44712
1.44307
1.43751
1.43081
1.42527
1.42131
1.41834
1.41543
1.41154
1.4077
1.40531
1.40292
1.39956
1.39474
1.38877
1.38377
1.3807
1.37924
1.37813
1.37628
1.37291
1.36774
1.36163
1.35599
1.35146
1.34791
1.34515
1.34279
1.34047
1.33806
1.3358
1.33344
1.32944
1.32405
1.32074
1.31968
1.31857
1.31701
1.31477
1.31164
1.3069
1.29917
1.28966
1.28459
1.28284
1.28162
1.28049
1.27933
1.27865
1.27788
1.2768
1.27536
1.27151
1.26254
1.25496
1.25393
1.25354
1.25272
1.2518
1.25085
1.24954
1.24787
1.24575
1.2423
1.23605
1.22835
1.22336
1.22059
1.21856
1.21675
1.21503
1.21338
1.21183
1.21035
1.20881
1.2066
1.20155
1.19335
1.18831
1.18644
1.18515
1.18367
1.18216
1.18161
1.18066
1.17903
1.17811
1.17759
1.17676
1.17357
1.1674
1.16354
1.16203
1.16074
1.15928
1.15748
1.15544
1.15332
1.15104
1.14841
1.1454
1.14235
1.1395
1.1366
1.13364
1.1289
1.54988
1.54523
1.53911
1.53154
1.52503
1.52064
1.51727
1.51387
1.50912
1.5027
1.49707
1.49263
1.4889
1.48564
1.48184
1.47693
1.47144
1.46654
1.46276
1.45893
1.45481
1.45133
1.4492
1.44752
1.44521
1.44133
1.43528
1.42813
1.42233
1.41788
1.41302
1.4084
1.40542
1.40368
1.40191
1.39996
1.39697
1.3921
1.38698
1.38326
1.37984
1.37616
1.37186
1.36689
1.36247
1.35924
1.35687
1.35402
1.35026
1.3465
1.3437
1.34143
1.33881
1.33492
1.33036
1.32558
1.32128
1.31963
1.31878
1.31866
1.31785
1.31611
1.3134
1.30792
1.29792
1.28822
1.28383
1.28199
1.28068
1.2799
1.27959
1.27874
1.27746
1.27608
1.27415
1.27045
1.26357
1.2573
1.25409
1.25208
1.25032
1.24909
1.248
1.24663
1.24487
1.24266
1.23975
1.23552
1.22974
1.22542
1.22299
1.22093
1.21894
1.21707
1.21532
1.21371
1.21223
1.21074
1.20843
1.20282
1.19384
1.18854
1.18654
1.185
1.18346
1.18207
1.1815
1.18008
1.17846
1.17742
1.17655
1.17524
1.17282
1.16917
1.16494
1.1613
1.15839
1.15613
1.15413
1.15215
1.15028
1.14852
1.14634
1.14392
1.14202
1.14
1.13755
1.1348
1.12969
1.54408
1.53918
1.53517
1.53186
1.52835
1.52445
1.51923
1.51225
1.50449
1.49824
1.49372
1.49099
1.48903
1.48675
1.48342
1.47797
1.47062
1.464
1.45886
1.45448
1.45133
1.44957
1.44785
1.44588
1.44389
1.44179
1.43869
1.43273
1.4238
1.41524
1.40949
1.40613
1.40456
1.40302
1.40115
1.39907
1.39689
1.39398
1.38895
1.38228
1.37662
1.37276
1.36943
1.36483
1.36062
1.35869
1.35704
1.35514
1.35249
1.34845
1.34408
1.34013
1.33573
1.33015
1.32477
1.32223
1.32106
1.32
1.31904
1.31861
1.31764
1.31627
1.31414
1.30868
1.29722
1.28816
1.28577
1.28454
1.28364
1.28298
1.28209
1.28083
1.27944
1.27762
1.2745
1.26926
1.26347
1.25878
1.25517
1.25218
1.24966
1.24805
1.24687
1.24546
1.24371
1.2416
1.2389
1.23532
1.23078
1.226
1.22208
1.21895
1.21633
1.21413
1.21221
1.2104
1.20852
1.20643
1.20405
1.20091
1.1957
1.19119
1.18922
1.18809
1.18691
1.18548
1.18394
1.18227
1.18077
1.17939
1.17798
1.17623
1.17385
1.17056
1.16633
1.16167
1.15783
1.15518
1.15308
1.15105
1.14894
1.14708
1.14554
1.14405
1.14202
1.1393
1.13671
1.13477
1.13099
1.54141
1.53634
1.53271
1.53062
1.52876
1.52607
1.52088
1.51202
1.50198
1.49593
1.49342
1.49098
1.48808
1.4851
1.48213
1.47871
1.47324
1.4641
1.45563
1.45178
1.44962
1.44776
1.44631
1.44552
1.44409
1.4422
1.43983
1.43489
1.42469
1.41297
1.40754
1.4056
1.404
1.40251
1.40087
1.39895
1.39677
1.39403
1.38922
1.38212
1.37568
1.37101
1.36797
1.36638
1.36522
1.36353
1.36137
1.35859
1.35482
1.34985
1.3447
1.33988
1.33461
1.32818
1.3236
1.32188
1.32056
1.31951
1.31994
1.32088
1.31988
1.31815
1.31529
1.30902
1.29892
1.29126
1.28716
1.2844
1.28207
1.27997
1.27812
1.27662
1.27517
1.27334
1.27049
1.26614
1.26167
1.25857
1.25636
1.25419
1.25223
1.25085
1.24948
1.24774
1.24577
1.24355
1.24064
1.23681
1.23209
1.22679
1.22219
1.21855
1.21546
1.21296
1.21097
1.20912
1.20716
1.20478
1.20183
1.19913
1.19754
1.19528
1.19123
1.18737
1.18473
1.18265
1.18043
1.17824
1.1769
1.17586
1.17466
1.17315
1.17107
1.16844
1.16563
1.16252
1.15891
1.15551
1.15296
1.15088
1.14871
1.14659
1.14453
1.1426
1.14071
1.13894
1.13729
1.13575
1.13166
1.53819
1.53469
1.53222
1.52973
1.52708
1.52419
1.51973
1.51087
1.5005
1.49649
1.49407
1.49141
1.48863
1.48588
1.48299
1.47931
1.47304
1.4628
1.45453
1.45151
1.44934
1.44722
1.44539
1.44428
1.44318
1.44129
1.43929
1.43538
1.42506
1.41334
1.4079
1.40521
1.40326
1.40165
1.40038
1.39952
1.39845
1.39574
1.38986
1.38161
1.37505
1.37117
1.36834
1.36562
1.36298
1.3605
1.35798
1.35528
1.35255
1.35021
1.34725
1.34205
1.33426
1.32709
1.32367
1.32196
1.32062
1.31981
1.3191
1.31772
1.31604
1.31404
1.31111
1.3061
1.29968
1.2939
1.28931
1.2855
1.2822
1.27917
1.27659
1.2748
1.27318
1.27098
1.26782
1.26424
1.26136
1.25976
1.25829
1.25601
1.25182
1.24729
1.24532
1.24385
1.24187
1.23948
1.23631
1.23221
1.22825
1.22532
1.22276
1.22024
1.21785
1.21551
1.21319
1.2111
1.20899
1.20648
1.20364
1.20169
1.20008
1.19703
1.19285
1.18784
1.18395
1.18122
1.17884
1.17656
1.17463
1.17367
1.17314
1.17252
1.17131
1.1694
1.16676
1.16289
1.15886
1.15652
1.15523
1.15334
1.15023
1.14633
1.14341
1.14143
1.13989
1.13867
1.13755
1.1364
1.13235
1.5366
1.5335
1.53148
1.52996
1.52855
1.52626
1.52121
1.5104
1.50059
1.49682
1.49429
1.4919
1.48945
1.48661
1.48341
1.47972
1.4733
1.46277
1.45503
1.45156
1.44937
1.44788
1.44746
1.4468
1.44496
1.4426
1.43898
1.43312
1.42484
1.41696
1.41197
1.40797
1.40455
1.40181
1.39976
1.39799
1.39581
1.39229
1.38593
1.37906
1.37513
1.37234
1.3692
1.36567
1.36235
1.35935
1.35656
1.35426
1.3523
1.34986
1.34615
1.34025
1.33227
1.32689
1.32516
1.32403
1.32307
1.32178
1.31978
1.31697
1.3138
1.31088
1.30813
1.30445
1.29879
1.29352
1.28987
1.28678
1.28387
1.28129
1.2787
1.27594
1.27331
1.26973
1.26536
1.26328
1.26258
1.2618
1.26027
1.25753
1.25234
1.24573
1.24228
1.24125
1.2398
1.23705
1.23357
1.23006
1.22704
1.225
1.22312
1.22074
1.2174
1.21359
1.21039
1.20778
1.20544
1.20304
1.20049
1.19812
1.19679
1.19604
1.19405
1.18997
1.18508
1.18108
1.17826
1.17585
1.17364
1.17191
1.17066
1.16931
1.16759
1.16568
1.16422
1.16288
1.16117
1.15854
1.15435
1.15094
1.14835
1.14527
1.14295
1.14147
1.14005
1.13855
1.13696
1.13545
1.13194
1.53793
1.53482
1.53162
1.5284
1.52488
1.52044
1.51479
1.50863
1.5029
1.49884
1.49538
1.49243
1.4899
1.48758
1.48507
1.48011
1.47137
1.46258
1.45762
1.45448
1.45151
1.4485
1.44546
1.44222
1.4392
1.43604
1.43138
1.42485
1.42008
1.41754
1.41477
1.41115
1.4071
1.40395
1.40174
1.39891
1.39463
1.38976
1.3843
1.37848
1.37461
1.37215
1.37019
1.36821
1.36562
1.36235
1.35936
1.35679
1.35417
1.35078
1.34575
1.33893
1.33266
1.32902
1.32646
1.32409
1.32156
1.31857
1.31537
1.31255
1.31032
1.30757
1.30428
1.30044
1.29695
1.29387
1.29133
1.2887
1.28537
1.28101
1.27593
1.27118
1.26827
1.26703
1.26611
1.26506
1.26359
1.2613
1.2587
1.25606
1.25294
1.24835
1.24253
1.23792
1.23541
1.23317
1.23035
1.22847
1.2273
1.22594
1.22414
1.22145
1.21729
1.21275
1.20932
1.20646
1.2039
1.20138
1.1989
1.19681
1.19485
1.19295
1.19121
1.18951
1.18683
1.18269
1.17843
1.17538
1.17269
1.16998
1.16777
1.16649
1.16546
1.16402
1.16287
1.16216
1.16137
1.15946
1.15447
1.14912
1.14753
1.14639
1.14494
1.14347
1.14192
1.14034
1.13872
1.13713
1.13311
1.53919
1.53567
1.53272
1.52973
1.52496
1.51749
1.50932
1.50485
1.50264
1.50018
1.49733
1.49443
1.49111
1.48663
1.48014
1.47275
1.46577
1.46106
1.45845
1.4559
1.45284
1.44903
1.44454
1.44012
1.43647
1.43228
1.42728
1.42158
1.41809
1.41628
1.41476
1.41299
1.4099
1.40428
1.39791
1.39326
1.38873
1.38376
1.38048
1.37842
1.37638
1.37425
1.37168
1.36798
1.36344
1.3595
1.35611
1.35292
1.34983
1.34658
1.3429
1.33914
1.33511
1.33129
1.3279
1.32453
1.32092
1.3172
1.31352
1.31023
1.30808
1.30619
1.30274
1.29811
1.29478
1.29339
1.29207
1.29012
1.2868
1.28123
1.27431
1.26898
1.26598
1.26435
1.26326
1.26224
1.26123
1.25999
1.25845
1.25628
1.25363
1.24979
1.24292
1.23522
1.23166
1.23014
1.22932
1.22853
1.22704
1.22524
1.22327
1.2206
1.21666
1.21194
1.20893
1.20737
1.20557
1.20301
1.19938
1.19523
1.19247
1.19115
1.19014
1.18894
1.18724
1.18443
1.18044
1.17684
1.17376
1.17013
1.16605
1.16364
1.16315
1.16309
1.16303
1.16285
1.16232
1.16034
1.15502
1.1481
1.14482
1.14347
1.14214
1.1406
1.13899
1.13746
1.13603
1.13474
1.13162
1.54266
1.53751
1.5321
1.52627
1.52007
1.51312
1.50676
1.50327
1.50091
1.49894
1.49744
1.4951
1.49126
1.48552
1.47706
1.46748
1.46262
1.46051
1.45809
1.45524
1.45208
1.44856
1.44521
1.44181
1.43484
1.42686
1.42257
1.4207
1.41934
1.4184
1.41691
1.41492
1.41147
1.40469
1.39601
1.38991
1.386
1.38199
1.37841
1.37644
1.37511
1.37387
1.37198
1.36794
1.36253
1.35829
1.35487
1.35123
1.34752
1.34412
1.3401
1.33479
1.33093
1.32874
1.32666
1.32418
1.32115
1.3181
1.31538
1.31234
1.30792
1.30283
1.29862
1.29584
1.29447
1.29309
1.29126
1.2891
1.28632
1.28185
1.27459
1.26723
1.26395
1.26264
1.26162
1.26069
1.25972
1.25874
1.2581
1.25703
1.25535
1.25167
1.24328
1.23384
1.23029
1.22922
1.22841
1.22794
1.22757
1.22673
1.22543
1.22301
1.21889
1.2138
1.20944
1.20637
1.20398
1.20155
1.19809
1.19392
1.19181
1.19098
1.1901
1.1889
1.18717
1.1844
1.17959
1.17384
1.17061
1.16783
1.16443
1.1628
1.16248
1.16225
1.16214
1.16201
1.16166
1.1604
1.15553
1.14725
1.14321
1.14181
1.14048
1.13891
1.13726
1.13571
1.1344
1.13343
1.13084
1.54343
1.53924
1.53267
1.52446
1.51623
1.50986
1.50656
1.50422
1.50166
1.49874
1.49552
1.4927
1.49007
1.48489
1.47472
1.46589
1.46226
1.45956
1.45679
1.45405
1.45165
1.44955
1.44655
1.43999
1.43146
1.4246
1.42189
1.42036
1.41895
1.41733
1.41509
1.41243
1.40945
1.40496
1.39697
1.38798
1.3831
1.3805
1.37839
1.37637
1.37451
1.37248
1.36974
1.36614
1.36202
1.35798
1.3548
1.35197
1.34842
1.343
1.33699
1.33234
1.32952
1.32737
1.32539
1.32358
1.32161
1.31882
1.3145
1.30889
1.30286
1.29863
1.29673
1.29582
1.29467
1.29311
1.29138
1.2894
1.28671
1.2823
1.27482
1.2667
1.26318
1.26191
1.26097
1.26015
1.25939
1.25871
1.2577
1.25626
1.25417
1.25037
1.24274
1.23422
1.23068
1.22928
1.22837
1.2276
1.22661
1.22519
1.22308
1.21974
1.21489
1.2106
1.20765
1.20528
1.2032
1.20101
1.19837
1.19565
1.194
1.19307
1.19209
1.1908
1.18894
1.18589
1.18032
1.17317
1.16875
1.16722
1.16612
1.16538
1.16485
1.16453
1.16434
1.16411
1.16363
1.16197
1.1566
1.14773
1.14292
1.1413
1.13996
1.1384
1.13673
1.13515
1.13376
1.13273
1.13023
1.5443
1.54104
1.53396
1.52239
1.51257
1.50848
1.50613
1.50364
1.50108
1.49815
1.49463
1.49111
1.48639
1.47894
1.47109
1.46651
1.46358
1.46075
1.45799
1.45512
1.45187
1.44813
1.44282
1.43514
1.4283
1.42468
1.42228
1.42002
1.41798
1.41604
1.41408
1.41158
1.40848
1.40426
1.39678
1.38719
1.38185
1.37993
1.37875
1.37789
1.37659
1.37433
1.37096
1.36658
1.36214
1.35841
1.35497
1.3511
1.34558
1.33756
1.33195
1.33015
1.32894
1.32769
1.32654
1.32513
1.32333
1.32034
1.31485
1.30675
1.29978
1.29682
1.29589
1.29495
1.29408
1.29296
1.29153
1.29
1.28784
1.28328
1.27453
1.26741
1.26523
1.26407
1.26319
1.26238
1.26151
1.26045
1.25912
1.25738
1.25464
1.24941
1.24125
1.23538
1.23342
1.23222
1.23087
1.22945
1.22799
1.22608
1.22304
1.21849
1.21313
1.20901
1.20654
1.20478
1.20324
1.20145
1.19823
1.1931
1.1905
1.18972
1.18882
1.1876
1.18593
1.18356
1.17988
1.17423
1.16862
1.16542
1.1639
1.1631
1.16253
1.16208
1.1617
1.16129
1.16059
1.15891
1.15452
1.148
1.1448
1.1433
1.14183
1.14015
1.13838
1.13668
1.13519
1.13415
1.13166
1.53964
1.53577
1.52961
1.51948
1.51219
1.50915
1.50624
1.50289
1.49954
1.49691
1.49478
1.49086
1.48221
1.47298
1.46906
1.46717
1.46475
1.46196
1.45925
1.45652
1.45334
1.44835
1.43963
1.43087
1.42683
1.42519
1.42336
1.42105
1.41784
1.41461
1.41252
1.41116
1.40885
1.40374
1.39587
1.38888
1.38488
1.38181
1.37871
1.37565
1.37287
1.36975
1.36576
1.362
1.35964
1.35811
1.35617
1.35236
1.34476
1.33608
1.33142
1.32933
1.32784
1.32681
1.32568
1.32421
1.32232
1.31953
1.3139
1.30445
1.29876
1.29736
1.29628
1.29506
1.29369
1.29228
1.2908
1.28916
1.2868
1.28244
1.27495
1.26742
1.26338
1.26132
1.25982
1.25874
1.2577
1.25647
1.25493
1.25301
1.25045
1.24684
1.24255
1.23897
1.23534
1.23176
1.22874
1.22634
1.22429
1.22218
1.21929
1.21577
1.2133
1.21111
1.20914
1.20743
1.20578
1.2036
1.19928
1.19283
1.18917
1.18828
1.18751
1.18634
1.18468
1.18254
1.17968
1.17486
1.16876
1.16508
1.16333
1.16241
1.16183
1.16134
1.1609
1.16039
1.15952
1.15766
1.15396
1.1488
1.14415
1.14143
1.13945
1.13756
1.13563
1.13368
1.13187
1.13066
1.12833
1.53653
1.53128
1.5233
1.51542
1.51215
1.50986
1.50722
1.50427
1.50113
1.49726
1.49149
1.48399
1.47588
1.47025
1.46838
1.46667
1.46462
1.46241
1.46007
1.45717
1.45246
1.44386
1.43368
1.42812
1.42619
1.42443
1.42249
1.4202
1.41748
1.41467
1.41145
1.40707
1.40214
1.39695
1.39182
1.38883
1.38657
1.38376
1.38032
1.37613
1.37134
1.36703
1.36286
1.36008
1.3589
1.3577
1.35555
1.35053
1.34162
1.33458
1.3321
1.33055
1.32919
1.32781
1.32632
1.32464
1.32229
1.31902
1.3134
1.3052
1.29938
1.29672
1.29513
1.29396
1.29348
1.29321
1.29233
1.29091
1.28852
1.28383
1.27585
1.26745
1.26282
1.26043
1.25863
1.25722
1.25613
1.25486
1.25324
1.25118
1.24846
1.24538
1.24299
1.24055
1.23698
1.23243
1.22843
1.22548
1.22311
1.22071
1.21772
1.21407
1.21113
1.20907
1.20711
1.20515
1.20326
1.20123
1.19833
1.1937
1.19055
1.18974
1.18913
1.18797
1.18606
1.18326
1.17942
1.17479
1.17029
1.16752
1.16577
1.16458
1.16393
1.16337
1.16282
1.16215
1.16117
1.15928
1.15561
1.14971
1.14395
1.14079
1.13861
1.13663
1.13462
1.13258
1.13069
1.12936
1.12707
1.53225
1.52362
1.51611
1.51338
1.51157
1.50956
1.50732
1.50481
1.50187
1.49769
1.48943
1.47739
1.47151
1.46981
1.46827
1.46693
1.46592
1.46441
1.46249
1.4594
1.45247
1.44041
1.43058
1.42708
1.42492
1.42301
1.42133
1.41951
1.41699
1.4137
1.40978
1.40304
1.39571
1.3921
1.39073
1.38961
1.38772
1.38466
1.37961
1.37223
1.366
1.36322
1.36188
1.36072
1.35946
1.35803
1.35557
1.35013
1.34087
1.33463
1.33217
1.32993
1.32726
1.32513
1.32373
1.32285
1.32208
1.32018
1.31509
1.30669
1.30047
1.29765
1.29554
1.29383
1.29277
1.2915
1.28978
1.28765
1.28451
1.27905
1.27157
1.26661
1.26469
1.26326
1.26134
1.25911
1.25768
1.25649
1.25491
1.25285
1.25035
1.24762
1.24459
1.24092
1.23694
1.233
1.22962
1.22711
1.22466
1.22118
1.21629
1.21215
1.2099
1.20832
1.20658
1.20448
1.2023
1.20023
1.1979
1.19467
1.19024
1.1865
1.18484
1.18385
1.18258
1.18046
1.1773
1.17391
1.17104
1.16802
1.16463
1.16188
1.16026
1.15939
1.15878
1.1581
1.15714
1.15532
1.15183
1.14815
1.14572
1.1435
1.1412
1.13891
1.13663
1.13445
1.13254
1.13114
1.12871
1.52823
1.51891
1.51412
1.51197
1.5098
1.50789
1.50705
1.50581
1.50367
1.49898
1.48812
1.47569
1.47063
1.46854
1.4668
1.4656
1.46429
1.46237
1.45999
1.45647
1.44903
1.43774
1.43081
1.4278
1.42519
1.42248
1.42018
1.41837
1.41699
1.41468
1.40896
1.40008
1.393
1.39091
1.38974
1.38859
1.38695
1.38455
1.37947
1.37044
1.36423
1.36235
1.36104
1.3596
1.35807
1.35632
1.35383
1.34902
1.34077
1.33419
1.33133
1.32911
1.32664
1.32434
1.32283
1.32152
1.31956
1.31605
1.31013
1.304
1.30074
1.29894
1.29732
1.29587
1.29418
1.29219
1.28971
1.28647
1.28218
1.27651
1.27072
1.26735
1.26487
1.26219
1.25922
1.25606
1.25315
1.25163
1.25054
1.24894
1.24664
1.24371
1.24084
1.23839
1.23598
1.23352
1.23076
1.22705
1.22237
1.21768
1.21347
1.21051
1.20902
1.20768
1.20639
1.20515
1.20396
1.20244
1.20013
1.19645
1.19072
1.18599
1.18352
1.18188
1.18059
1.17948
1.1779
1.17556
1.17272
1.16907
1.16488
1.16128
1.15894
1.1576
1.15674
1.15594
1.15486
1.15294
1.15009
1.14726
1.14481
1.14244
1.13973
1.13694
1.13423
1.13182
1.1299
1.12836
1.12557
1.52299
1.51533
1.51272
1.511
1.5096
1.50847
1.5069
1.5044
1.50061
1.49407
1.48398
1.47525
1.47082
1.46796
1.46589
1.4643
1.46276
1.4613
1.45947
1.45503
1.44678
1.43689
1.4306
1.42721
1.4249
1.42309
1.4214
1.4197
1.41698
1.41185
1.40381
1.39778
1.39599
1.39443
1.39288
1.39133
1.38953
1.38676
1.38063
1.37013
1.36341
1.36136
1.36005
1.35905
1.3582
1.35721
1.3552
1.35083
1.34307
1.33472
1.33028
1.32811
1.32654
1.32525
1.32412
1.32222
1.31869
1.31336
1.30728
1.30357
1.30206
1.30037
1.29785
1.29416
1.29033
1.28758
1.28532
1.28266
1.27863
1.27359
1.27028
1.26812
1.26554
1.26215
1.25837
1.25488
1.2516
1.24906
1.24775
1.24657
1.24492
1.2421
1.23906
1.23697
1.2356
1.2342
1.23188
1.22749
1.22177
1.21619
1.21191
1.21006
1.20892
1.20766
1.20623
1.20466
1.2029
1.2009
1.1981
1.19373
1.18937
1.18574
1.18313
1.18153
1.18
1.17813
1.17579
1.17338
1.17076
1.16808
1.16551
1.16273
1.15983
1.15762
1.15626
1.15514
1.15371
1.1515
1.14867
1.14616
1.14418
1.14208
1.1393
1.13616
1.13335
1.13095
1.12905
1.12756
1.12474
1.52049
1.51511
1.5121
1.5099
1.50822
1.50683
1.50508
1.50312
1.49854
1.48975
1.47998
1.47469
1.47172
1.46901
1.46642
1.46412
1.46194
1.45903
1.45478
1.44881
1.44199
1.43628
1.43249
1.42958
1.42681
1.42397
1.42102
1.41759
1.41341
1.40826
1.40226
1.39734
1.39405
1.39173
1.38978
1.38777
1.38545
1.38237
1.37781
1.37118
1.36543
1.36188
1.3595
1.35773
1.35619
1.35406
1.35075
1.34526
1.33935
1.33498
1.33186
1.32909
1.32644
1.32382
1.32086
1.31764
1.31337
1.30887
1.30678
1.30589
1.30447
1.30217
1.29856
1.2935
1.28884
1.28568
1.28317
1.28017
1.27654
1.2728
1.27017
1.26791
1.26555
1.2632
1.26061
1.25731
1.2541
1.25072
1.24664
1.24404
1.24301
1.2421
1.24065
1.23903
1.23717
1.23509
1.2325
1.22884
1.22314
1.21715
1.21405
1.21253
1.21106
1.20951
1.20784
1.20602
1.20401
1.20166
1.19848
1.19365
1.18796
1.1859
1.18516
1.18368
1.18113
1.17746
1.17485
1.17333
1.17169
1.16971
1.16747
1.16449
1.16126
1.15905
1.15743
1.15594
1.15421
1.15204
1.14983
1.14807
1.14633
1.14414
1.14085
1.13637
1.13317
1.13194
1.13074
1.12926
1.12623
1.52073
1.51681
1.51342
1.51103
1.50947
1.50804
1.50519
1.49975
1.49224
1.48496
1.47958
1.47605
1.4728
1.47012
1.4681
1.46658
1.4644
1.45968
1.45105
1.44294
1.43819
1.43599
1.43437
1.43252
1.43021
1.42737
1.4233
1.41693
1.40962
1.40419
1.40055
1.39728
1.39369
1.39073
1.38866
1.38665
1.38359
1.37934
1.37476
1.37099
1.36693
1.36262
1.35971
1.35823
1.35682
1.35404
1.34901
1.34232
1.33681
1.33451
1.33286
1.33094
1.32857
1.32543
1.3205
1.3146
1.3103
1.30816
1.30716
1.3058
1.30382
1.3012
1.29834
1.29539
1.29169
1.28652
1.28052
1.27631
1.27394
1.27243
1.27092
1.26927
1.26742
1.26456
1.25981
1.25448
1.2505
1.2475
1.2447
1.24252
1.24086
1.23944
1.23829
1.23714
1.23588
1.23431
1.23201
1.22771
1.22077
1.21455
1.21171
1.20997
1.20818
1.20628
1.20442
1.20266
1.20089
1.19889
1.19627
1.1925
1.18893
1.18633
1.18334
1.18047
1.17777
1.17539