/*--------------------------------*- C++ -*----------------------------------*\
  =========                 |
  \\      /  F ield         | OpenFOAM: The Open Source CFD Toolbox
   \\    /   O peration     | Website:  https://openfoam.org
    \\  /    A nd           | Version:  7
     \\/     M anipulation  |
\*---------------------------------------------------------------------------*/
FoamFile
{
    version     2.0;
    format      ascii;
    class       volScalarField;
    location    "4";
    object      T;
}
// * * * * * * * * * * * * * * * * * * * * * * * * * * * * * * * * * * * * * //

dimensions      [0 0 0 1 0 0 0];

internalField   nonuniform List<scalar> 
4128
(
2.62846
2.62649
2.6252
2.6235
2.61937
2.61125
2.60389
2.59969
2.59815
2.59816
2.59871
2.5985
2.59715
2.59447
2.59037
2.58525
2.58057
2.57894
2.57972
2.57946
2.57565
2.57124
2.56604
2.55996
2.55421
2.54825
2.5421
2.53678
2.53556
2.53768
2.54109
2.54086
2.53491
2.52702
2.51816
2.50923
2.50051
2.49133
2.4818
2.47353
2.47015
2.47053
2.47245
2.47162
2.46528
2.4585
2.45167
2.44509
2.4389
2.43359
2.43071
2.42809
2.42297
2.41412
2.40274
2.39044
2.37825
2.36664
2.35599
2.34666
2.33893
2.33249
2.32675
2.32168
2.31726
2.31355
2.31058
2.30885
2.3075
2.30482
2.2995
2.29271
2.28512
2.27756
2.27049
2.26358
2.25711
2.25189
2.24746
2.24194
2.2344
2.22661
2.21775
2.2085
2.20103
2.19612
2.19414
2.19459
2.19621
2.19661
2.19471
2.18967
2.18349
2.17614
2.16631
2.15523
2.14628
2.14112
2.13912
2.14097
2.14557
2.14864
2.14851
2.1454
2.1409
2.13342
2.12228
2.11114
2.10439
2.10135
2.10166
2.10616
2.11183
2.11376
2.11203
2.10805
2.10275
2.09386
2.0823
2.07389
2.07013
2.06866
2.07052
2.07522
2.07831
2.07841
2.0767
2.07394
2.06562
2.61897
2.61884
2.61828
2.6155
2.60709
2.59796
2.59016
2.58653
2.58539
2.58689
2.59094
2.59304
2.59074
2.58462
2.57576
2.56765
2.56167
2.55947
2.56167
2.56583
2.56563
2.56031
2.55295
2.54387
2.53483
2.52632
2.51807
2.511
2.50711
2.50742
2.5111
2.51485
2.51392
2.50669
2.49718
2.48713
2.47642
2.46477
2.45234
2.44013
2.43045
2.42473
2.42361
2.42379
2.42006
2.4125
2.40556
2.39887
2.3925
2.38672
2.3821
2.3792
2.37549
2.36936
2.36054
2.34998
2.33867
2.32727
2.31632
2.306
2.29632
2.28724
2.27901
2.27185
2.266
2.26169
2.259
2.25865
2.25981
2.26191
2.26181
2.25783
2.25154
2.24393
2.23534
2.22663
2.21866
2.21216
2.20787
2.20519
2.20222
2.19632
2.1899
2.18266
2.17497
2.1685
2.16441
2.1619
2.16081
2.15971
2.15844
2.15686
2.15443
2.15024
2.14527
2.13849
2.13033
2.12306
2.11836
2.11661
2.11725
2.11858
2.11927
2.11881
2.11625
2.11224
2.10628
2.098
2.08969
2.08477
2.08305
2.08515
2.08985
2.09216
2.09159
2.08866
2.08471
2.07922
2.0716
2.06308
2.05687
2.05396
2.05362
2.05597
2.05899
2.05993
2.05928
2.05709
2.05091
2.61287
2.61271
2.6109
2.60546
2.5962
2.58725
2.57993
2.57629
2.57478
2.57649
2.58136
2.58437
2.58121
2.57371
2.56254
2.55082
2.54253
2.53773
2.53918
2.54541
2.54901
2.54541
2.53481
2.52196
2.50855
2.49636
2.48531
2.47681
2.47198
2.47121
2.47306
2.47824
2.4815
2.47712
2.46698
2.45601
2.44423
2.43135
2.41779
2.40472
2.39246
2.38213
2.37514
2.37137
2.36802
2.36087
2.35372
2.34758
2.34201
2.3371
2.33297
2.32954
2.32621
2.32145
2.31487
2.30668
2.29746
2.28777
2.27821
2.26925
2.26079
2.25142
2.24215
2.23333
2.22544
2.2197
2.21604
2.21476
2.21592
2.22025
2.22428
2.22349
2.21903
2.2128
2.20431
2.19432
2.18613
2.17966
2.17453
2.17281
2.17236
2.17151
2.16809
2.16327
2.15789
2.15092
2.14234
2.1344
2.1295
2.12669
2.12521
2.1253
2.12582
2.12632
2.12624
2.12412
2.12033
2.11513
2.10807
2.10011
2.09435
2.09202
2.09162
2.09187
2.09141
2.09007
2.08821
2.08544
2.08112
2.07629
2.07244
2.06998
2.06871
2.06915
2.06948
2.06816
2.06569
2.06302
2.05994
2.0557
2.05047
2.04543
2.0421
2.04047
2.04042
2.0409
2.04052
2.0383
2.03378
2.60644
2.60371
2.59877
2.59286
2.5857
2.57778
2.57143
2.56698
2.56411
2.56353
2.56497
2.56674
2.56613
2.56002
2.55035
2.53786
2.52661
2.51831
2.51541
2.51692
2.51955
2.51754
2.50664
2.49061
2.47465
2.45895
2.44474
2.43378
2.42735
2.42526
2.42557
2.42863
2.43288
2.43269
2.42463
2.41433
2.40317
2.39092
2.37817
2.36622
2.35424
2.34261
2.3322
2.32402
2.31795
2.31209
2.30511
2.29926
2.29448
2.29065
2.28741
2.28428
2.28062
2.27582
2.26987
2.26322
2.25609
2.24855
2.24116
2.2345
2.22883
2.22303
2.21485
2.20636
2.19759
2.18961
2.18429
2.18116
2.1809
2.1836
2.18854
2.19005
2.1873
2.18322
2.17751
2.16925
2.16058
2.1543
2.14947
2.14692
2.1471
2.14823
2.14847
2.14626
2.14174
2.13651
2.12893
2.11846
2.10805
2.10198
2.09974
2.09888
2.10024
2.10373
2.10699
2.10875
2.10883
2.10601
2.10094
2.09308
2.08195
2.07187
2.0673
2.06561
2.06553
2.068
2.07031
2.07152
2.07158
2.07021
2.06682
2.06088
2.05373
2.04923
2.0472
2.04625
2.04656
2.04708
2.04729
2.04669
2.04478
2.04119
2.03511
2.02805
2.02368
2.02118
2.01857
2.01683
2.01594
2.59585
2.58917
2.58167
2.57561
2.57047
2.56523
2.55928
2.55372
2.54861
2.54377
2.53967
2.53758
2.53699
2.53514
2.52879
2.51989
2.51024
2.50094
2.49286
2.48703
2.48227
2.47635
2.46582
2.451
2.43423
2.41728
2.40181
2.38941
2.381
2.37577
2.37296
2.37238
2.37347
2.37525
2.37234
2.36452
2.35555
2.34584
2.33555
2.32574
2.3156
2.30478
2.29396
2.28434
2.27669
2.27055
2.26501
2.25979
2.25577
2.25255
2.24954
2.24606
2.24174
2.23618
2.23009
2.22388
2.21772
2.21174
2.20605
2.20171
2.19896
2.19693
2.19309
2.18642
2.17925
2.1711
2.16324
2.15785
2.15469
2.15451
2.15669
2.15928
2.159
2.15628
2.15305
2.14841
2.1421
2.13589
2.13125
2.12776
2.12628
2.12646
2.12732
2.1273
2.12468
2.12061
2.11593
2.10914
2.09944
2.08892
2.08227
2.08038
2.08009
2.08184
2.08648
2.09203
2.09447
2.09424
2.09085
2.08541
2.07712
2.06523
2.05377
2.0481
2.04677
2.047
2.05056
2.0562
2.05958
2.05975
2.05757
2.05379
2.04698
2.03777
2.03148
2.0296
2.02913
2.03067
2.03387
2.03596
2.03559
2.03318
2.02897
2.02131
2.01121
2.00407
2.00088
1.99894
1.99744
2.58164
2.57189
2.56172
2.55432
2.54937
2.545
2.53937
2.53121
2.52173
2.51236
2.50391
2.49751
2.49425
2.49232
2.4896
2.48476
2.4786
2.47164
2.46367
2.45409
2.44304
2.43134
2.41899
2.40523
2.38978
2.3739
2.3593
2.34716
2.3375
2.32974
2.32307
2.31801
2.31558
2.31598
2.31684
2.31348
2.30712
2.30019
2.29297
2.28534
2.27721
2.26815
2.25875
2.25011
2.24311
2.23794
2.23388
2.23034
2.22712
2.22353
2.21989
2.21565
2.21058
2.20498
2.1987
2.19197
2.18569
2.18056
2.17612
2.17319
2.17252
2.17257
2.17207
2.16905
2.16407
2.15835
2.15105
2.14305
2.13675
2.1326
2.13101
2.13198
2.13328
2.13294
2.13088
2.12863
2.12587
2.12223
2.118
2.11357
2.10967
2.10649
2.10531
2.1056
2.10543
2.10354
2.10056
2.09735
2.0926
2.08516
2.07534
2.06769
2.06508
2.06475
2.06649
2.07
2.07435
2.0758
2.07448
2.07113
2.06702
2.06115
2.05238
2.04225
2.03566
2.03351
2.03433
2.03865
2.04319
2.04467
2.04396
2.04173
2.03822
2.03223
2.02399
2.01783
2.01578
2.0158
2.01849
2.02191
2.02284
2.02136
2.01856
2.0138
2.00523
1.99406
1.98653
1.98391
1.98289
2.56387
2.5518
2.53942
2.52978
2.5229
2.51681
2.50858
2.4963
2.48192
2.46871
2.45753
2.44899
2.44354
2.44005
2.43728
2.43398
2.42976
2.42457
2.41807
2.40949
2.39873
2.3863
2.37384
2.36105
2.34755
2.3338
2.32084
2.30957
2.29991
2.29058
2.2813
2.27378
2.26846
2.26713
2.26857
2.26938
2.26583
2.26061
2.255
2.24861
2.24136
2.23383
2.22631
2.21943
2.21469
2.21189
2.21023
2.20808
2.20408
2.19938
2.19494
2.19044
2.18572
2.18086
2.17546
2.16929
2.1628
2.15718
2.15315
2.15053
2.15009
2.15025
2.15051
2.15015
2.14848
2.1449
2.14044
2.13429
2.12657
2.11899
2.1135
2.11032
2.10989
2.11081
2.1111
2.11064
2.10944
2.10783
2.10559
2.10207
2.09697
2.09136
2.08742
2.08506
2.08479
2.0855
2.08559
2.08449
2.0822
2.07914
2.07359
2.06416
2.05441
2.04927
2.04769
2.04759
2.04826
2.05027
2.05279
2.05366
2.05286
2.05017
2.04663
2.04122
2.03369
2.02699
2.02348
2.0223
2.02263
2.02514
2.02719
2.02696
2.02507
2.02229
2.0178
2.0113
2.00533
2.00275
2.00207
2.00305
2.00485
2.00462
2.00286
2.00019
1.9959
1.9888
1.9792
1.97343
1.97094
2.53461
2.52227
2.50973
2.49915
2.48985
2.48044
2.46828
2.4522
2.43446
2.41856
2.40576
2.39658
2.39047
2.38635
2.38262
2.37815
2.37254
2.36675
2.36068
2.3541
2.3467
2.33842
2.32958
2.32016
2.30981
2.2988
2.2877
2.27749
2.26818
2.25816
2.2485
2.24036
2.2342
2.23235
2.23383
2.23595
2.2341
2.22967
2.22427
2.21741
2.21005
2.20382
2.19809
2.19288
2.19067
2.19065
2.19075
2.188
2.18271
2.17795
2.17311
2.16876
2.16491
2.16114
2.15722
2.15303
2.14819
2.14289
2.13797
2.13428
2.13179
2.13044
2.12996
2.13011
2.13014
2.12941
2.1269
2.12353
2.11911
2.11277
2.10481
2.09732
2.09264
2.09047
2.09057
2.09134
2.09153
2.0914
2.09039
2.0885
2.08567
2.08104
2.07521
2.07082
2.06855
2.06835
2.06975
2.07086
2.07075
2.06895
2.06602
2.06069
2.05192
2.04128
2.03317
2.02947
2.02851
2.02929
2.03128
2.03365
2.03537
2.0359
2.03571
2.03365
2.0301
2.02469
2.0172
2.01027
2.00703
2.00624
2.00697
2.00896
2.00953
2.00853
2.0064
2.00331
1.99833
1.99155
1.98628
1.98416
1.98323
1.98385
1.98444
1.98328
1.98146
1.97867
1.97334
1.96661
1.96047
2.48981
2.47901
2.46885
2.45895
2.44852
2.43655
2.42162
2.40381
2.38549
2.36942
2.35659
2.34745
2.34165
2.33755
2.33329
2.32687
2.31927
2.31219
2.30581
2.30037
2.29583
2.29171
2.28777
2.28301
2.27663
2.26842
2.25923
2.25025
2.24102
2.23185
2.22347
2.21611
2.21071
2.20976
2.21163
2.21355
2.21104
2.20631
2.20095
2.19352
2.18562
2.17997
2.1755
2.17204
2.17181
2.17293
2.17216
2.16741
2.16245
2.15715
2.15171
2.14775
2.1446
2.1419
2.14019
2.13947
2.13743
2.13411
2.12962
2.12382
2.11791
2.11345
2.11044
2.10897
2.10925
2.1096
2.10941
2.10879
2.10714
2.10417
2.0996
2.09236
2.08338
2.0759
2.07195
2.07021
2.07038
2.07145
2.07184
2.07181
2.07087
2.06902
2.0659
2.0612
2.0568
2.05404
2.05298
2.05353
2.05361
2.05223
2.05032
2.04787
2.04391
2.03789
2.02946
2.0211
2.01605
2.01417
2.01419
2.01488
2.01598
2.01835
2.02051
2.02103
2.02
2.01663
2.01223
2.00576
1.99747
1.99107
1.98891
1.98841
1.98986
1.99157
1.99135
1.98962
1.98695
1.98247
1.97555
1.96886
1.96583
1.9648
1.96495
1.96619
1.96666
1.96585
1.96391
1.96052
1.95163
2.43437
2.42525
2.4176
2.40969
2.4003
2.38836
2.3734
2.35656
2.3402
2.32617
2.31487
2.30686
2.30178
2.29796
2.29307
2.28467
2.27593
2.26818
2.2617
2.25674
2.25343
2.25214
2.25173
2.25108
2.24797
2.24121
2.23394
2.22617
2.21812
2.21052
2.20368
2.19781
2.19436
2.19434
2.19645
2.19663
2.19228
2.18734
2.1814
2.17349
2.16655
2.16198
2.15829
2.15662
2.15728
2.15741
2.1533
2.1478
2.14182
2.13505
2.12969
2.12646
2.12384
2.12238
2.12342
2.12584
2.12651
2.12487
2.12145
2.1164
2.1091
2.10081
2.09391
2.08958
2.08704
2.08662
2.08795
2.08941
2.09022
2.09045
2.08881
2.08512
2.07924
2.07051
2.06098
2.05397
2.05066
2.04921
2.0493
2.05109
2.05287
2.05386
2.05326
2.05104
2.04744
2.04234
2.03691
2.03303
2.03061
2.02907
2.02832
2.02774
2.02693
2.02552
2.02317
2.01907
2.01258
2.00538
2.00066
1.99873
1.99843
1.9987
1.99993
2.00234
2.00304
2.00269
2.00037
1.99716
1.99206
1.98376
1.97494
1.97062
1.96961
1.97035
1.97222
1.97205
1.97056
1.96845
1.96502
1.95964
1.95373
1.95034
1.94921
1.94969
1.95164
1.95249
1.95142
1.94916
1.9425
2.37867
2.37037
2.36412
2.3586
2.35207
2.34198
2.32928
2.31555
2.3023
2.29082
2.28162
2.27467
2.27037
2.26737
2.26147
2.25279
2.24457
2.2367
2.2302
2.22536
2.22255
2.22254
2.22412
2.22487
2.22135
2.21605
2.21073
2.20453
2.19794
2.19206
2.18684
2.1825
2.18084
2.18133
2.18208
2.17909
2.17355
2.168
2.16132
2.15438
2.14973
2.14625
2.14392
2.14422
2.14496
2.14213
2.13628
2.12952
2.12113
2.11295
2.1081
2.10522
2.10316
2.10331
2.10689
2.11105
2.11209
2.11093
2.10859
2.10534
2.10014
2.09296
2.08447
2.07606
2.06979
2.06644
2.06548
2.06639
2.06861
2.07043
2.07131
2.07116
2.06844
2.06408
2.05722
2.0477
2.0379
2.03178
2.02975
2.02949
2.03125
2.0345
2.03665
2.03685
2.03463
2.03095
2.02521
2.01739
2.01055
2.00703
2.00529
2.00471
2.00627
2.00952
2.01169
2.01109
2.00834
2.00232
1.99236
1.98364
1.97985
1.97775
1.97657
1.97672
1.97962
1.98293
1.98368
1.98258
1.97996
1.97587
1.96897
1.95992
1.95338
1.95113
1.95061
1.95143
1.95186
1.95099
1.9496
1.94738
1.94363
1.93908
1.936
1.93458
1.93415
1.93459
1.93441
1.93284
1.92912
2.33137
2.3237
2.31744
2.31304
2.30906
2.30195
2.29245
2.28244
2.27248
2.26334
2.25556
2.24932
2.24521
2.24237
2.2364
2.22898
2.2217
2.2144
2.20803
2.20319
2.20051
2.20073
2.20227
2.20161
2.19698
2.19264
2.18843
2.18357
2.17868
2.17456
2.17085
2.16784
2.16716
2.16732
2.16512
2.15922
2.15311
2.14656
2.13982
2.13511
2.13183
2.12962
2.12985
2.13156
2.13147
2.12686
2.12106
2.11364
2.10371
2.09465
2.08925
2.08584
2.084
2.08537
2.09013
2.09316
2.09293
2.09165
2.08993
2.0876
2.08461
2.08089
2.07583
2.06895
2.06071
2.05278
2.04751
2.04507
2.04477
2.04562
2.04798
2.05005
2.05081
2.0498
2.0465
2.04161
2.03401
2.02367
2.01483
2.01122
2.01032
2.01131
2.01485
2.01762
2.01754
2.01497
2.01123
2.0055
1.99745
1.99049
1.98743
1.98644
1.98798
1.99294
1.99745
1.99849
1.99723
1.99405
1.98694
1.97461
1.96303
1.95717
1.95464
1.9542
1.95624
1.96032
1.96297
1.96333
1.96271
1.96085
1.95827
1.95359
1.94602
1.93797
1.93328
1.93202
1.93182
1.93246
1.93261
1.93173
1.93026
1.9279
1.92399
1.91929
1.91599
1.9142
1.91347
1.91333
1.91157
2.29483
2.28772
2.28136
2.27659
2.27417
2.27084
2.26409
2.25708
2.24962
2.24205
2.23507
2.22885
2.22378
2.22036
2.21575
2.20955
2.20339
2.19705
2.19116
2.1863
2.18354
2.18349
2.18369
2.18068
2.17562
2.17119
2.16689
2.16254
2.15895
2.15597
2.15346
2.15227
2.15278
2.15221
2.14735
2.14096
2.13345
2.12541
2.11942
2.11585
2.11315
2.1127
2.11439
2.11648
2.11492
2.11021
2.10511
2.09804
2.08894
2.08103
2.07531
2.0712
2.06942
2.07053
2.07218
2.07108
2.06921
2.0673
2.06509
2.06337
2.0622
2.06146
2.06042
2.0577
2.05337
2.04663
2.03751
2.02875
2.02405
2.02217
2.02198
2.0241
2.02813
2.03037
2.03058
2.0285
2.0246
2.01834
2.00825
1.9975
1.9919
1.99015
1.99046
1.99339
1.9961
1.9958
1.99356
1.99051
1.98574
1.97944
1.97455
1.97269
1.97314
1.9766
1.98092
1.98239
1.98155
1.97965
1.97554
1.96723
1.95564
1.94536
1.93944
1.93676
1.93686
1.93936
1.94111
1.94205
1.94291
1.94365
1.94351
1.94152
1.93793
1.93221
1.92434
1.9171
1.91403
1.91365
1.91396
1.91477
1.91445
1.91294
1.90999
1.90543
1.90068
1.8973
1.89524
1.89427
1.89415
2.26622
2.25968
2.25369
2.24928
2.2479
2.24699
2.24276
2.23726
2.23136
2.22431
2.2172
2.21104
2.20536
2.20079
2.19737
2.1923
2.18701
2.18162
2.17632
2.17176
2.16928
2.16866
2.16707
2.16201
2.15689
2.15172
2.14641
2.14198
2.13861
2.13577
2.13416
2.13483
2.13661
2.13519
2.13079
2.125
2.11695
2.10833
2.10248
2.09874
2.09631
2.0964
2.09837
2.09894
2.0959
2.09145
2.08643
2.08001
2.07334
2.06817
2.06367
2.06024
2.05988
2.05919
2.05458
2.04928
2.04439
2.04044
2.03809
2.0369
2.03652
2.03799
2.04095
2.04269
2.04212
2.03826
2.03169
2.02147
2.0102
2.00338
2.00084
2.00085
2.00406
2.00933
2.01177
2.0117
2.00954
2.00589
2.00007
1.99056
1.97937
1.97211
1.96939
1.96904
1.97123
1.9742
1.97458
1.97332
1.97138
1.96857
1.9648
1.96154
1.95984
1.95946
1.96032
1.96101
1.96028
1.95861
1.95582
1.95139
1.94555
1.93894
1.93214
1.92656
1.92322
1.92201
1.92223
1.923
1.9238
1.92437
1.92504
1.92531
1.92444
1.92199
1.91792
1.91091
1.90188
1.89603
1.89505
1.89519
1.89525
1.89416
1.8923
1.88987
1.88674
1.88383
1.88144
1.88036
1.88083
2.24258
2.23687
2.23186
2.22918
2.22909
2.22895
2.22509
2.21977
2.21444
2.20791
2.20066
2.19438
2.18873
2.18383
2.18045
2.17637
2.17164
2.16689
2.16206
2.15791
2.15599
2.15483
2.15096
2.14589
2.14061
2.1345
2.12794
2.1226
2.11869
2.11552
2.11436
2.11595
2.11818
2.11644
2.11287
2.10842
2.10211
2.09507
2.08967
2.08562
2.08272
2.08224
2.08227
2.0798
2.07562
2.07129
2.06607
2.06103
2.05703
2.05335
2.05155
2.05167
2.052
2.04823
2.04174
2.03386
2.02443
2.01722
2.01436
2.01323
2.01304
2.01606
2.02166
2.02551
2.02622
2.02479
2.02094
2.01475
2.00504
1.99417
1.98687
1.98364
1.98367
1.98733
1.99084
1.99156
1.99101
1.98871
1.98525
1.97989
1.97177
1.96196
1.95415
1.95051
1.94973
1.95164
1.95427
1.95536
1.95565
1.95537
1.95375
1.95114
1.94718
1.94235
1.9389
1.93726
1.93589
1.93423
1.93249
1.93101
1.92943
1.92763
1.92519
1.92127
1.91554
1.90948
1.90588
1.90417
1.90225
1.9007
1.9008
1.90412
1.90683
1.90713
1.90557
1.90268
1.89716
1.8876
1.87805
1.8741
1.873
1.87257
1.8728
1.87308
1.87245
1.87161
1.87077
1.87096
1.87258
2.22299
2.21793
2.21402
2.21354
2.21418
2.21326
2.20803
2.20261
2.19716
2.19091
2.18449
2.17883
2.17356
2.16906
2.16568
2.16165
2.15712
2.15273
2.14822
2.14423
2.14225
2.14022
2.13554
2.13105
2.12603
2.11982
2.11274
2.10623
2.10134
2.09765
2.09629
2.09774
2.0996
2.09779
2.09464
2.09144
2.08743
2.08276
2.07862
2.07491
2.07182
2.07009
2.06646
2.06147
2.05645
2.05122
2.04634
2.04263
2.03938
2.03817
2.03916
2.04174
2.04122
2.036
2.03031
2.02312
2.01323
2.00366
1.99792
1.99562
1.99531
1.99862
2.00391
2.00666
2.00716
2.00696
2.00554
2.00238
1.99734
1.98991
1.9814
1.97435
1.97008
1.96857
1.9688
1.96913
1.96911
1.96819
1.96584
1.96324
1.95971
1.95414
1.94696
1.93993
1.93566
1.93436
1.93522
1.93723
1.93894
1.93983
1.93952
1.93725
1.93395
1.92893
1.9224
1.91717
1.91433
1.91259
1.91157
1.91173
1.91339
1.9156
1.91622
1.91446
1.91032
1.90265
1.8919
1.88398
1.88101
1.87982
1.87941
1.88049
1.88501
1.88971
1.89101
1.8901
1.88787
1.88286
1.87237
1.86046
1.85511
1.85386
1.85342
1.85474
1.85782
1.86093
1.86355
1.86555
1.86526
2.20678
2.20211
2.19925
2.19976
2.20018
2.19677
2.19102
2.18543
2.17961
2.17371
2.16844
2.16372
2.1597
2.15678
2.15323
2.14816
2.14332
2.13889
2.13461
2.13047
2.12741
2.12478
2.12042
2.11633
2.11195
2.10669
2.10048
2.09404
2.0884
2.08393
2.08165
2.08184
2.08229
2.0805
2.07742
2.07473
2.07209
2.0693
2.06648
2.06366
2.06122
2.05792
2.05289
2.04727
2.04098
2.03443
2.02964
2.0264
2.0239
2.02376
2.02598
2.02818
2.02679
2.02184
2.01689
2.01128
2.00416
1.9964
1.98973
1.98518
1.9834
1.98431
1.98622
1.9865
1.98597
1.98552
1.98519
1.98441
1.98262
1.97955
1.97586
1.97073
1.9636
1.95578
1.9507
1.94839
1.94612
1.94422
1.94355
1.94292
1.94183
1.93985
1.93733
1.93372
1.92836
1.92303
1.92046
1.91978
1.9202
1.92137
1.92192
1.92108
1.91856
1.91499
1.90962
1.90285
1.89788
1.89615
1.8956
1.89657
1.90035
1.90447
1.90532
1.90356
1.90047
1.89488
1.88453
1.87193
1.86456
1.86227
1.86116
1.86126
1.86464
1.87099
1.87461
1.87489
1.87389
1.87155
1.86631
1.85671
1.84611
1.8409
1.8397
1.84044
1.84503
1.85152
1.85576
1.85663
1.85452
2.19406
2.18937
2.18664
2.18678
2.18534
2.18011
2.17471
2.16893
2.16299
2.15747
2.15266
2.1491
2.14779
2.14665
2.14223
2.13626
2.13061
2.1255
2.12074
2.11609
2.11183
2.10853
2.10515
2.1013
2.09752
2.0934
2.08875
2.08372
2.07867
2.07407
2.07057
2.06857
2.06686
2.06418
2.06135
2.05869
2.0562
2.05393
2.05177
2.05
2.04842
2.04489
2.04042
2.03537
2.02929
2.02253
2.01697
2.01317
2.01048
2.01007
2.0107
2.01083
2.00915
2.00504
2.0009
1.99676
1.99219
1.98808
1.98496
1.98192
1.97766
1.97241
1.96817
1.9662
1.96434
1.96213
1.96076
1.96131
1.96319
1.96494
1.96565
1.96368
1.95876
1.95077
1.93922
1.92971
1.92565
1.92276
1.91996
1.91929
1.92056
1.92264
1.9247
1.92467
1.92228
1.91734
1.90969
1.90424
1.90264
1.90176
1.90215
1.90313
1.90261
1.90045
1.89744
1.89281
1.88711
1.88346
1.88243
1.88291
1.88531
1.88763
1.88802
1.88677
1.88438
1.88099
1.87558
1.8672
1.85691
1.84985
1.84759
1.84697
1.84809
1.85082
1.8545
1.8575
1.85785
1.85671
1.85407
1.84926
1.84189
1.83443
1.83101
1.83088
1.83441
1.8401
1.84286
1.84277
1.83961
2.18385
2.17909
2.17594
2.17406
2.1698
2.16483
2.15952
2.15379
2.14811
2.14265
2.13837
2.13705
2.13731
2.13622
2.13101
2.12522
2.11901
2.11267
2.10699
2.1017
2.09685
2.09301
2.09017
2.08658
2.08301
2.07957
2.07609
2.0725
2.06883
2.06515
2.06157
2.05794
2.05385
2.04977
2.04615
2.04286
2.03984
2.03728
2.03526
2.03422
2.03365
2.0312
2.02748
2.02339
2.01849
2.01277
2.00725
2.00285
1.99951
1.99732
1.99527
1.99275
1.98975
1.98644
1.98342
1.98071
1.97867
1.97806
1.97834
1.97735
1.97315
1.96637
1.95627
1.9473
1.94308
1.94097
1.93939
1.93875
1.94119
1.94762
1.95228
1.95248
1.94936
1.94413
1.93493
1.92023
1.90799
1.90324
1.90072
1.89882
1.89918
1.90402
1.91088
1.91344
1.91265
1.90984
1.90397
1.89423
1.88729
1.88519
1.88411
1.88422
1.8858
1.88614
1.88472
1.88246
1.87906
1.87443
1.8708
1.86933
1.86821
1.86688
1.86686
1.86706
1.86576
1.86398
1.86189
1.85839
1.85241
1.84417
1.83769
1.83551
1.83484
1.83503
1.83637
1.83826
1.8401
1.84022
1.83908
1.83736
1.83509
1.83166
1.82749
1.82474
1.82414
1.82451
1.82517
1.82487
1.82131
2.17409
2.16927
2.16561
2.1615
2.15623
2.15095
2.14541
2.14001
2.13464
2.12949
2.12623
2.12618
2.12641
2.12359
2.1185
2.11332
2.10726
2.10042
2.09407
2.08848
2.08356
2.07963
2.07675
2.07299
2.06909
2.06558
2.06246
2.05966
2.05707
2.05459
2.05158
2.04762
2.04299
2.03787
2.03263
2.02805
2.02416
2.0209
2.0186
2.01794
2.01804
2.01707
2.01421
2.01095
2.0073
2.0033
1.99925
1.99513
1.9907
1.98579
1.98067
1.97589
1.97168
1.96808
1.96573
1.96488
1.96516
1.96711
1.96871
1.96723
1.96346
1.95847
1.94996
1.93741
1.92692
1.92277
1.92127
1.92059
1.92296
1.93043
1.93738
1.93865
1.93684
1.93326
1.92786
1.91758
1.90193
1.89009
1.88578
1.88388
1.88419
1.8893
1.89766
1.90124
1.90097
1.89871
1.89527
1.88827
1.87795
1.87134
1.86918
1.86818
1.86878
1.87121
1.87227
1.87189
1.87001
1.86703
1.86208
1.85584
1.85171
1.84965
1.84819
1.84739
1.84796
1.84847
1.84804
1.8468
1.84488
1.841
1.83393
1.82635
1.82296
1.82197
1.82121
1.82061
1.82041
1.82176
1.8236
1.8249
1.82591
1.82608
1.82464
1.82073
1.81405
1.80861
1.80649
1.80521
1.80174
2.16302
2.15883
2.15478
2.14944
2.14366
2.13786
2.13227
2.12706
2.12204
2.11732
2.11471
2.1143
2.11285
2.10827
2.10388
2.09927
2.09363
2.08726
2.08115
2.07572
2.07134
2.06823
2.06504
2.06054
2.05609
2.05199
2.04844
2.04546
2.0429
2.04073
2.03839
2.03483
2.03066
2.02591
2.02027
2.01438
2.0095
2.0057
2.00302
2.00236
2.00277
2.0027
2.00092
1.99855
1.99622
1.99374
1.9907
1.98676
1.98164
1.97522
1.96809
1.96154
1.95656
1.95287
1.95047
1.95032
1.95156
1.95375
1.95428
1.95252
1.94962
1.94651
1.9416
1.93304
1.92124
1.91191
1.90818
1.90721
1.90903
1.91344
1.91729
1.92075
1.92172
1.91974
1.91651
1.91134
1.90196
1.88869
1.87905
1.87534
1.87519
1.87922
1.8855
1.8887
1.88898
1.88716
1.8842
1.88001
1.87267
1.86337
1.85772
1.85571
1.85524
1.85759
1.86069
1.86123
1.85989
1.85743
1.85353
1.84654
1.83908
1.83531
1.8335
1.83251
1.83311
1.83512
1.83648
1.83683
1.83611
1.83422
1.83044
1.82294
1.81364
1.8081
1.80622
1.80514
1.80443
1.80446
1.80659
1.81119
1.81504
1.81618
1.81528
1.81265
1.80761
1.79883
1.79013
1.78621
1.78217
2.15039
2.14709
2.14253
2.13699
2.13099
2.12496
2.11946
2.11442
2.10974
2.10534
2.10236
2.10019
2.09535
2.09068
2.08669
2.08239
2.07747
2.07204
2.06651
2.06172
2.05903
2.05698
2.05283
2.04794
2.043
2.03818
2.03394
2.03042
2.02748
2.02512
2.02305
2.01986
2.01607
2.01186
2.00678
2.0008
1.99512
1.99082
1.98788
1.98727
1.98788
1.98822
1.98722
1.98569
1.98449
1.98287
1.9799
1.9761
1.97135
1.96528
1.958
1.95033
1.94397
1.93974
1.93723
1.93702
1.93741
1.93737
1.93633
1.93502
1.9333
1.93111
1.92838
1.92413
1.91776
1.90958
1.90242
1.89887
1.89828
1.89899
1.89938
1.89936
1.90079
1.9028
1.9019
1.89913
1.89481
1.88792
1.87952
1.87319
1.8711
1.87145
1.87186
1.87087
1.87051
1.87092
1.87033
1.86774
1.86382
1.858
1.8513
1.84714
1.84573
1.84657
1.8491
1.84989
1.84869
1.84648
1.84364
1.83888
1.83182
1.82565
1.82276
1.82156
1.82193
1.82442
1.82652
1.82686
1.82609
1.8245
1.82208
1.81752
1.80944
1.79926
1.79279
1.7909
1.79009
1.78973
1.79172
1.79735
1.80237
1.80387
1.80354
1.80198
1.79925
1.79277
1.7812
1.77181
1.76621
2.13715
2.13393
2.1288
2.12328
2.11717
2.1112
2.10575
2.10089
2.09649
2.09261
2.08905
2.08345
2.07751
2.07242
2.06794
2.06375
2.0595
2.05475
2.05018
2.04742
2.04577
2.0427
2.0377
2.03283
2.02763
2.02244
2.01795
2.01426
2.01124
2.00906
2.00715
2.00417
2.00067
1.99682
1.99246
1.98729
1.98152
1.97651
1.97306
1.972
1.97235
1.97269
1.97207
1.97108
1.97019
1.96869
1.96592
1.96239
1.95833
1.95356
1.94793
1.94138
1.93447
1.92879
1.92539
1.92399
1.92244
1.91958
1.91699
1.91485
1.9138
1.91354
1.91248
1.91072
1.90867
1.90575
1.90115
1.89449
1.88781
1.88423
1.88283
1.88177
1.88094
1.88137
1.88339
1.88431
1.88382
1.88202
1.8796
1.87568
1.86969
1.8632
1.85919
1.85712
1.85493
1.85317
1.85265
1.85217
1.85042
1.8487
1.84623
1.84306
1.84034
1.83873
1.83788
1.8372
1.83664
1.83484
1.83242
1.82933
1.82517
1.82018
1.81569
1.81306
1.81206
1.81202
1.81169
1.81136
1.81134
1.81103
1.80964
1.80731
1.80329
1.79626
1.7868
1.78052
1.77886
1.77849
1.77988
1.78319
1.78704
1.79038
1.79079
1.78947
1.78719
1.78303
1.77496
1.76396
1.75664
2.12285
2.11889
2.11322
2.10771
2.10155
2.09561
2.09003
2.08519
2.08135
2.07834
2.07352
2.06715
2.0608
2.05477
2.04961
2.04545
2.04164
2.03772
2.03475
2.03312
2.03065
2.02514
2.01987
2.0148
2.00944
2.00428
1.99971
1.99603
1.99348
1.99213
1.99037
1.98782
1.9849
1.98168
1.97833
1.97455
1.96989
1.96479
1.96042
1.9573
1.95581
1.95492
1.95368
1.95273
1.95178
1.9504
1.94838
1.9456
1.94238
1.93915
1.93596
1.93235
1.92789
1.92238
1.91616
1.91024
1.90527
1.90149
1.89883
1.89674
1.89502
1.89442
1.89532
1.89696
1.89829
1.89835
1.89597
1.89134
1.88313
1.87281
1.86669
1.86475
1.86365
1.86306
1.86403
1.86766
1.87149
1.87396
1.87462
1.8727
1.86799
1.85968
1.84904
1.84209
1.83881
1.83625
1.83427
1.83394
1.83545
1.83755
1.83875
1.83886
1.8374
1.83374
1.82836
1.82461
1.82237
1.82043
1.81895
1.81772
1.81597
1.8137
1.81056
1.80653
1.80229
1.79958
1.79846
1.79753
1.79652
1.79589
1.7957
1.79487
1.79334
1.79033
1.78477
1.77712
1.77173
1.77029
1.77052
1.77172
1.7725
1.77294
1.7741
1.77446
1.77316
1.77083
1.7671
1.76138
1.7537
2.10713
2.10121
2.09547
2.08992
2.0837
2.07803
2.07261
2.06777
2.06451
2.06153
2.05629
2.05029
2.04399
2.03747
2.03194
2.028
2.02483
2.02202
2.0202
2.0182
2.01306
2.00685
2.00114
1.99546
1.98991
1.98485
1.98025
1.9767
1.97503
1.97416
1.972
1.96984
1.96766
1.9653
1.96299
1.96066
1.95798
1.95463
1.95059
1.94576
1.94039
1.93587
1.93341
1.93204
1.93086
1.92958
1.92795
1.92601
1.92431
1.92314
1.92255
1.92183
1.91961
1.9156
1.9093
1.9004
1.89152
1.88544
1.88187
1.87956
1.87788
1.87715
1.87861
1.88246
1.88573
1.88658
1.8853
1.88244
1.87757
1.86885
1.85762
1.85021
1.84779
1.84702
1.8474
1.85031
1.85652
1.86233
1.86405
1.86306
1.8602
1.85505
1.84527
1.83246
1.82437
1.82141
1.81986
1.81926
1.82126
1.82675
1.83135
1.83215
1.83078
1.828
1.82222
1.81363
1.80835
1.80648
1.80513
1.80433
1.80454
1.8043
1.80236
1.79951
1.79542
1.78979
1.78536
1.78345
1.78232
1.78143
1.78103
1.78156
1.78168
1.78067
1.77872
1.77511
1.76936
1.76409
1.76197
1.76109
1.76016
1.75933
1.75887
1.75941
1.75992
1.75943
1.75848
1.7573
1.75342
2.09057
2.08343
2.07712
2.07097
2.06486
2.05975
2.05479
2.05044
2.04744
2.0436
2.03839
2.03276
2.02655
2.01996
2.01434
2.01044
2.00809
2.00672
2.00532
2.00152
1.99586
1.98963
1.98327
1.97731
1.97199
1.96712
1.96277
1.95964
1.95822
1.95558
1.95256
1.95072
1.94918
1.94743
1.94568
1.94437
1.94382
1.94312
1.9408
1.93663
1.9303
1.92218
1.91511
1.91137
1.90952
1.90782
1.90601
1.90534
1.90567
1.90705
1.9089
1.90954
1.90826
1.9052
1.90076
1.8936
1.8841
1.87503
1.86837
1.86439
1.8624
1.8616
1.86271
1.86623
1.86943
1.87046
1.87006
1.86855
1.86627
1.86208
1.85478
1.84473
1.83684
1.83384
1.83327
1.83532
1.83999
1.84506
1.84813
1.84807
1.84656
1.84421
1.83956
1.83056
1.81819
1.81051
1.80833
1.80791
1.81001
1.81619
1.82093
1.82092
1.81925
1.81725
1.8139
1.80682
1.79745
1.7928
1.7915
1.79066
1.79082
1.79211
1.79213
1.79021
1.78731
1.78274
1.77576
1.77062
1.76892
1.768
1.76723
1.76698
1.76833
1.77058
1.77162
1.77092
1.76823
1.76263
1.75486
1.75008
1.74827
1.74704
1.74622
1.74588
1.74711
1.74959
1.75115
1.75154
1.7496
2.07495
2.06722
2.05965
2.05292
2.04765
2.04307
2.03866
2.03473
2.03121
2.0266
2.02152
2.01594
2.00954
2.00306
1.99754
1.99347
1.9915
1.99057
1.9881
1.9841
1.97886
1.97265
1.96642
1.9611
1.95647
1.95246
1.94918
1.94713
1.94355
1.93874
1.93438
1.93149
1.92986
1.92831
1.92685
1.92639
1.92739
1.92853
1.92757
1.92467
1.9204
1.91385
1.90489
1.8964
1.89125
1.88867
1.88694
1.88651
1.88853
1.89264
1.895
1.89469
1.89257
1.89038
1.88774
1.88337
1.87673
1.86891
1.86123
1.85479
1.8506
1.84863
1.8486
1.84999
1.85036
1.85015
1.8508
1.85166
1.85093
1.84927
1.84623
1.84101
1.83368
1.82667
1.82321
1.82269
1.8238
1.82486
1.82626
1.82896
1.83007
1.82942
1.82802
1.82493
1.81878
1.80914
1.80182
1.79963
1.79995
1.80157
1.80341
1.80535
1.80513
1.80371
1.80193
1.79851
1.79172
1.78356
1.77925
1.77796
1.77778
1.77948
1.78061
1.77958
1.7775
1.77466
1.76959
1.76203
1.757
1.75536
1.7546
1.75439
1.75656
1.76103
1.76412
1.76465
1.76341
1.75983
1.75227
1.74215
1.73689
1.7354
1.73462
1.73414
1.73477
1.73888
1.74268
1.74368
1.74214
2.0594
2.05111
2.04291
2.03654
2.03188
2.02792
2.02452
2.02094
2.01641
2.01137
2.00612
2.00026
1.99409
1.98819
1.98285
1.97872
1.9762
1.97345
1.97017
1.96621
1.96114
1.95541
1.95017
1.94545
1.94147
1.93892
1.93814
1.93612
1.93125
1.9259
1.91998
1.91468
1.9115
1.90964
1.90828
1.90805
1.90981
1.91187
1.91142
1.9095
1.90694
1.90307
1.89692
1.88853
1.88008
1.87467
1.87209
1.87123
1.87325
1.87726
1.87855
1.87687
1.87461
1.8731
1.87156
1.86903
1.86463
1.85924
1.854
1.84896
1.84418
1.84004
1.83687
1.83467
1.83324
1.83215
1.83115
1.83098
1.83229
1.8329
1.83234
1.83049
1.82771
1.82328
1.81699
1.81149
1.80922
1.80847
1.80851
1.80983
1.81263
1.81398
1.81385
1.81327
1.81148
1.80709
1.79959
1.79237
1.78935
1.78815
1.78832
1.78868
1.78915
1.78865
1.78749
1.78568
1.78279
1.77826
1.77231
1.76818
1.76698
1.76698
1.7677
1.76791
1.76695
1.76536
1.76264
1.75698
1.74975
1.74574
1.7446
1.74454
1.7479
1.75451
1.7578
1.75754
1.75611
1.75352
1.74835
1.73901
1.72909
1.72501
1.72399
1.72352
1.72382
1.72699
1.73121
1.73352
1.73238
2.04374
2.03454
2.02643
2.02007
2.01552
2.01286
2.01072
2.00674
2.00205
1.99677
1.99077
1.98494
1.97997
1.97515
1.97063
1.96671
1.96244
1.95821
1.95399
1.94925
1.94401
1.93908
1.93428
1.92977
1.92693
1.92651
1.92622
1.92327
1.91911
1.91456
1.9089
1.90281
1.89791
1.89473
1.89273
1.89174
1.89262
1.89436
1.89398
1.89244
1.89085
1.88871
1.88506
1.87942
1.87246
1.86595
1.86184
1.86001
1.86023
1.86084
1.86065
1.85834
1.85612
1.85477
1.85348
1.8515
1.84832
1.84521
1.84273
1.84052
1.83792
1.83428
1.82889
1.82226
1.8175
1.81524
1.81382
1.81281
1.81274
1.8145
1.81671
1.81791
1.8179
1.816
1.81219
1.80541
1.79781
1.79465
1.79387
1.79393
1.79513
1.79797
1.80009
1.80062
1.80021
1.79873
1.79507
1.78808
1.77975
1.77542
1.77392
1.77304
1.77231
1.77163
1.77105
1.77058
1.76988
1.76884
1.76665
1.76267
1.75819
1.75619
1.75571
1.75532
1.75514