/*--------------------------------*- C++ -*----------------------------------*\
  =========                 |
  \\      /  F ield         | OpenFOAM: The Open Source CFD Toolbox
   \\    /   O peration     | Website:  https://openfoam.org
    \\  /    A nd           | Version:  7
     \\/     M anipulation  |
\*---------------------------------------------------------------------------*/
FoamFile
{
    version     2.0;
    format      ascii;
    class       volVectorField;
    location    "1.8";
    object      U;
}
// * * * * * * * * * * * * * * * * * * * * * * * * * * * * * * * * * * * * * //

dimensions      [0 1 -1 0 0 0 0];

internalField   nonuniform List<vector> 
16192
(
(3 5.3626e-16 0)
(3 8.17119e-17 0)
(3 -3.51799e-16 0)
(3 5.73822e-16 0)
(3 1.34385e-16 0)
(3 -6.0438e-16 0)
(3 -9.80214e-16 0)
(3 -3.43025e-15 0)
(3 -4.12907e-15 0)
(3 -3.44169e-15 0)
(3 -2.44905e-15 0)
(3 -1.95007e-15 0)
(3 -1.20707e-15 0)
(3 2.31546e-16 0)
(3 5.11954e-16 0)
(3 2.55026e-16 0)
(3 6.44041e-16 0)
(3 1.12214e-15 0)
(3 1.16561e-15 0)
(3 9.32571e-16 0)
(3 6.14609e-16 0)
(3 -8.58814e-17 0)
(3 -1.31083e-15 0)
(3 -1.13117e-15 0)
(3 -7.24726e-16 0)
(3 -1.79241e-16 0)
(3 -2.22509e-16 0)
(3 -2.59397e-16 0)
(3 -1.8195e-16 0)
(3 -1.82346e-16 0)
(3 2.08526e-16 0)
(3 1.2873e-15 0)
(3 6.92628e-16 0)
(3 -2.62927e-16 0)
(3 1.20642e-15 0)
(3 3.12824e-15 0)
(3 3.32394e-15 0)
(3 3.48409e-15 0)
(3 3.62798e-15 0)
(3 2.95308e-15 0)
(3 1.16454e-15 0)
(3 5.22945e-16 0)
(3 -2.87273e-16 0)
(3 -1.51314e-15 0)
(3 -2.3855e-15 0)
(3 -3.35363e-15 0)
(3 -3.6585e-15 0)
(3 -3.3056e-15 0)
(3 -1.81878e-15 0)
(3 -1.09767e-15 0)
(3 -1.12758e-15 0)
(3 -9.87016e-16 0)
(3 -8.73922e-16 0)
(3 -4.32193e-16 0)
(3 -7.0911e-17 0)
(3 1.04537e-15 0)
(3 1.14176e-15 0)
(3 3.43774e-15 0)
(3 -9.2246e-13 0)
(3 -4.31141e-10 0)
(3 2.97029e-07 0)
(3.05178 0.0194865 0)
(1.69749 0.767525 0)
(1.24012 0.845237 0)
(1.23646 0.839855 0)
(1.23923 0.838 0)
(1.24069 0.839732 0)
(1.24278 0.840718 0)
(1.24389 0.841665 0)
(1.24483 0.841931 0)
(1.24558 0.842217 0)
(1.24667 0.842303 0)
(1.24798 0.842314 0)
(1.24976 0.842179 0)
(1.25209 0.841979 0)
(1.25507 0.841841 0)
(1.25872 0.841868 0)
(1.26308 0.842116 0)
(1.26825 0.842576 0)
(1.27416 0.843273 0)
(1.28078 0.844135 0)
(1.28807 0.845035 0)
(1.29591 0.845883 0)
(1.30408 0.846601 0)
(1.31251 0.847096 0)
(1.32096 0.847337 0)
(1.32943 0.847246 0)
(1.33773 0.84687 0)
(1.34605 0.846123 0)
(1.35418 0.845136 0)
(1.36249 0.843798 0)
(3 -4.95858e-17 0)
(3 -2.43555e-16 0)
(3 -5.76834e-16 0)
(3 -9.03514e-16 0)
(3 -1.3545e-15 0)
(3 -7.89931e-16 0)
(3 -7.52453e-16 0)
(3 -1.08851e-15 0)
(3 -1.10373e-15 0)
(3 -1.22539e-16 0)
(3 1.78527e-16 0)
(3 9.35146e-16 0)
(3 1.72523e-15 0)
(3 2.11598e-15 0)
(3 1.97482e-15 0)
(3 1.50392e-15 0)
(3 1.43446e-15 0)
(3 1.09575e-15 0)
(3 5.1584e-16 0)
(3 -9.25375e-16 0)
(3 -2.03203e-15 0)
(3 -2.28311e-15 0)
(3 4.94934e-16 0)
(3 1.7579e-15 0)
(3 2.60343e-15 0)
(3 4.58403e-15 0)
(3 4.87796e-15 0)
(3 4.80875e-15 0)
(3 3.78224e-15 0)
(3 1.88649e-15 0)
(3 9.6957e-16 0)
(3 9.47954e-16 0)
(3 8.65127e-16 0)
(3 9.80345e-16 0)
(3 1.35669e-15 0)
(3 2.87547e-15 0)
(3 3.8776e-15 0)
(3 2.92916e-15 0)
(3 1.76014e-15 0)
(3 3.47027e-16 0)
(3 -6.98265e-16 0)
(3 -2.28841e-16 0)
(3 4.47937e-16 0)
(3 6.97595e-16 0)
(3 4.43439e-17 0)
(3 -8.2219e-17 0)
(3 -1.04341e-15 0)
(3 -2.62809e-15 0)
(3 -2.33386e-15 0)
(3 -2.23132e-15 0)
(3 -1.94614e-15 0)
(3 -1.56732e-15 0)
(3 -1.68064e-15 0)
(3 -1.98763e-15 0)
(3 -1.36731e-15 0)
(3 9.56473e-16 0)
(3 2.22328e-15 0)
(3 1.72711e-15 0)
(3 -3.50734e-17 0)
(3 -8.35006e-16 0)
(3 -2.93914e-16 0)
(3 2.56687e-16 0)
(3 -2.33842e-16 0)
(3 2.49907e-16 0)
(3 1.02725e-15 0)
(3 1.5748e-15 0)
(3 1.76023e-15 0)
(3 1.87115e-15 0)
(3 1.88912e-15 0)
(3 1.91671e-15 0)
(3 2.31334e-15 0)
(3 1.71782e-15 0)
(3 1.21019e-15 0)
(3 1.83717e-15 0)
(3 2.4288e-15 0)
(3 4.26465e-16 0)
(3 -4.4786e-16 0)
(3 -1.48685e-15 0)
(3 -1.30572e-15 0)
(3 -1.20567e-15 0)
(3 -3.08242e-16 0)
(3 1.33769e-15 0)
(3 1.6795e-15 0)
(3 1.30394e-15 0)
(3 -3.74957e-16 0)
(3 -2.88178e-15 0)
(3 -2.72197e-15 0)
(3 -1.81799e-15 0)
(3 -2.68464e-16 0)
(3 4.05118e-16 0)
(3 1.60172e-15 0)
(3 3.57151e-15 0)
(3 4.04258e-15 0)
(3 3.48526e-15 0)
(3 5.34916e-16 0)
(3 -1.31614e-16 0)
(3 7.50999e-17 0)
(3 1.28228e-15 0)
(3 2.59061e-15 0)
(3 3.8567e-15 0)
(3 4.05114e-15 0)
(3 3.56348e-15 0)
(3 2.34622e-15 0)
(3 1.28771e-15 0)
(3 1.85326e-15 0)
(3 1.72023e-15 0)
(3 1.48529e-16 0)
(3 -5.07557e-16 0)
(3 -2.15896e-15 0)
(3 -2.68726e-15 0)
(3 -2.69846e-15 0)
(3 -1.3863e-15 0)
(3 -1.7544e-15 0)
(3 -3.54572e-16 0)
(3 1.41728e-15 0)
(3 8.92607e-16 0)
(3 -1.13386e-16 0)
(3 7.75247e-16 0)
(3 1.14911e-15 0)
(3 4.88599e-16 0)
(3 -1.01064e-15 0)
(3 -1.5038e-15 0)
(3 -1.67941e-15 0)
(3 1.55707e-16 0)
(3 5.35833e-16 0)
(3 7.23297e-16 0)
(3 2.93227e-16 0)
(3 -5.9809e-16 0)
(3 -5.08235e-16 0)
(3 5.68427e-16 0)
(3 1.47822e-15 0)
(3 1.5467e-15 0)
(3 2.16104e-15 0)
(3 2.95393e-15 0)
(3 6.92812e-16 0)
(3 4.15207e-16 0)
(3 2.22659e-15 0)
(3 2.47504e-15 0)
(3 2.97508e-15 0)
(3 3.15763e-15 0)
(3 3.42577e-15 0)
(3 3.56405e-15 0)
(3 2.36455e-15 0)
(3 7.9618e-16 0)
(3 -1.91399e-15 0)
(3 -3.53087e-15 0)
(3 -3.87294e-15 0)
(3 -4.44767e-15 0)
(3 -4.26391e-15 0)
(3 -1.78469e-15 0)
(3 -1.48228e-15 0)
(3 -1.71013e-15 0)
(3 -1.84194e-15 0)
(3 -4.42401e-16 0)
(3 1.29136e-16 0)
(3 -6.7933e-16 0)
(3 8.93424e-16 0)
(3 1.58339e-15 0)
(3 3.12419e-15 0)
(3 3.1692e-15 0)
(3 -4.24862e-11 0)
(3 -1.76035e-11 0)
(3.00166 0.00039158 0)
(2.62157 0.470192 0)
(1.34943 0.860294 0)
(1.24139 0.835841 0)
(1.24756 0.837089 0)
(1.24994 0.840951 0)
(1.25198 0.843187 0)
(1.25359 0.844318 0)
(1.25509 0.844926 0)
(1.25637 0.845473 0)
(1.25793 0.84559 0)
(1.25934 0.845829 0)
(1.26112 0.845953 0)
(1.26324 0.84612 0)
(1.26593 0.846191 0)
(1.26921 0.846197 0)
(1.27315 0.846198 0)
(1.27783 0.846258 0)
(1.2832 0.846487 0)
(1.28926 0.846882 0)
(1.29597 0.847424 0)
(1.30328 0.848056 0)
(1.31103 0.848692 0)
(1.31913 0.849215 0)
(1.32744 0.849538 0)
(1.33588 0.849588 0)
(1.34429 0.849366 0)
(1.35271 0.8488 0)
(1.36094 0.847951 0)
(1.36924 0.846726 0)
(3 -6.28202e-18 0)
(3 -9.70045e-17 0)
(3 -3.09135e-16 0)
(3 -1.7686e-16 0)
(3 -7.03098e-16 0)
(3 -9.99198e-16 0)
(3 -1.03122e-15 0)
(3 -7.05442e-16 0)
(3 -5.97504e-16 0)
(3 -5.1448e-16 0)
(3 -4.81854e-16 0)
(3 -4.80882e-17 0)
(3 1.47549e-15 0)
(3 1.21773e-15 0)
(3 1.26536e-15 0)
(3 4.86655e-16 0)
(3 -8.57339e-16 0)
(3 -1.14403e-15 0)
(3 -8.46381e-16 0)
(3 -8.13778e-16 0)
(3 -5.36914e-16 0)
(3 4.40773e-17 0)
(3 1.00048e-15 0)
(3 1.12469e-15 0)
(3 1.75197e-15 0)
(3 2.74642e-15 0)
(3 3.75874e-15 0)
(3 3.35044e-15 0)
(3 3.00727e-15 0)
(3 2.95856e-15 0)
(3 2.32601e-15 0)
(3 9.5526e-16 0)
(3 7.40938e-16 0)
(3 1.09747e-15 0)
(3 1.90987e-15 0)
(3 2.30184e-15 0)
(3 1.91272e-15 0)
(3 2.35275e-15 0)
(3 2.30335e-15 0)
(3 1.39761e-15 0)
(3 -5.38497e-16 0)
(3 -8.86082e-16 0)
(3 -1.03636e-15 0)
(3 -2.99896e-16 0)
(3 -7.7915e-16 0)
(3 -1.46634e-15 0)
(3 -2.13322e-15 0)
(3 -2.20601e-15 0)
(3 -1.00677e-15 0)
(3 6.64102e-16 0)
(3 -2.39803e-16 0)
(3 -7.4227e-16 0)
(3 -1.65542e-15 0)
(3 -1.67646e-15 0)
(3 -2.78128e-16 0)
(3 9.3325e-16 0)
(3 1.14949e-15 0)
(3 7.07401e-16 0)
(3 1.82798e-16 0)
(3 1.49865e-16 0)
(3 1.18776e-16 0)
(3 4.74512e-16 0)
(3 8.13793e-16 0)
(3 9.88711e-16 0)
(3 9.29586e-16 0)
(3 8.10997e-16 0)
(3 1.11302e-15 0)
(3 6.80906e-16 0)
(3 8.93533e-16 0)
(3 1.32753e-15 0)
(3 1.82118e-15 0)
(3 1.58027e-15 0)
(3 1.74339e-15 0)
(3 2.00138e-15 0)
(3 2.09076e-15 0)
(3 -5.25163e-16 0)
(3 -1.08979e-15 0)
(3 -1.56369e-15 0)
(3 -2.01738e-15 0)
(3 -6.48986e-16 0)
(3 5.09758e-18 0)
(3 4.64798e-16 0)
(3 3.41942e-16 0)
(3 -6.86809e-16 0)
(3 -1.72726e-15 0)
(3 -2.78888e-15 0)
(3 -2.88399e-15 0)
(3 -2.67987e-15 0)
(3 -1.39909e-15 0)
(3 -6.73804e-16 0)
(3 2.52336e-16 0)
(3 3.73275e-15 0)
(3 4.28509e-15 0)
(3 4.15841e-15 0)
(3 1.95018e-15 0)
(3 8.26491e-16 0)
(3 1.18012e-15 0)
(3 2.58316e-15 0)
(3 2.92437e-15 0)
(3 2.5913e-15 0)
(3 2.62351e-15 0)
(3 2.81206e-15 0)
(3 2.53956e-15 0)
(3 1.74649e-15 0)
(3 1.30668e-15 0)
(3 1.22261e-15 0)
(3 2.10118e-16 0)
(3 -7.04023e-16 0)
(3 -1.1221e-15 0)
(3 -1.61154e-15 0)
(3 -1.91969e-15 0)
(3 -2.26658e-15 0)
(3 -1.63069e-15 0)
(3 -3.47031e-16 0)
(3 1.09275e-15 0)
(3 2.06925e-15 0)
(3 2.17998e-15 0)
(3 1.77865e-15 0)
(3 5.94631e-16 0)
(3 -1.47501e-15 0)
(3 -2.67011e-15 0)
(3 -2.02507e-15 0)
(3 -1.09999e-15 0)
(3 -4.86425e-16 0)
(3 -7.15366e-16 0)
(3 -7.5102e-16 0)
(3 6.92039e-16 0)
(3 1.04829e-15 0)
(3 4.29168e-16 0)
(3 6.73204e-16 0)
(3 1.71253e-15 0)
(3 1.7037e-15 0)
(3 -2.66139e-16 0)
(3 -1.14072e-15 0)
(3 -2.00557e-16 0)
(3 -1.56133e-16 0)
(3 -4.52749e-16 0)
(3 2.60971e-16 0)
(3 3.31702e-16 0)
(3 1.1938e-15 0)
(3 1.54185e-15 0)
(3 1.26217e-15 0)
(3 2.36312e-16 0)
(3 -1.329e-15 0)
(3 -2.01218e-15 0)
(3 -2.96705e-15 0)
(3 -3.73626e-15 0)
(3 -4.08271e-15 0)
(3 -4.10028e-15 0)
(3 -3.47924e-15 0)
(3 -2.69049e-15 0)
(3 -3.09686e-15 0)
(3 -3.03357e-15 0)
(3 -1.80514e-18 0)
(3 9.57221e-16 0)
(3 8.76893e-16 0)
(3 1.33904e-15 0)
(3 3.37008e-15 0)
(3 4.16256e-15 0)
(3 4.15051e-15 0)
(3 -6.617e-13 0)
(3 -9.2106e-12 0)
(3 8.31929e-07 0)
(3.05595 0.035099 0)
(1.68669 0.786602 0)
(1.25879 0.847419 0)
(1.25666 0.846698 0)
(1.2571 0.847206 0)
(1.25816 0.848074 0)
(1.25979 0.848816 0)
(1.26211 0.849459 0)
(1.26453 0.850134 0)
(1.267 0.850521 0)
(1.26927 0.850877 0)
(1.27169 0.851071 0)
(1.27417 0.851237 0)
(1.27693 0.851243 0)
(1.28007 0.851079 0)
(1.2837 0.850854 0)
(1.2879 0.850669 0)
(1.29272 0.850602 0)
(1.2982 0.850677 0)
(1.30426 0.850923 0)
(1.31089 0.851283 0)
(1.31803 0.851664 0)
(1.32559 0.851972 0)
(1.33353 0.852112 0)
(1.34176 0.852031 0)
(1.35017 0.851727 0)
(1.35867 0.851159 0)
(1.36709 0.850355 0)
(1.3755 0.849272 0)
(3 -1.04119e-16 0)
(3 -8.28379e-17 0)
(3 -2.83868e-18 0)
(3 1.26872e-16 0)
(3 -6.63531e-17 0)
(3 -8.62631e-17 0)
(3 2.41692e-16 0)
(3 2.38642e-16 0)
(3 2.16114e-16 0)
(3 -2.98307e-17 0)
(3 3.24135e-16 0)
(3 7.54455e-16 0)
(3 7.14038e-16 0)
(3 9.83866e-16 0)
(3 1.28125e-15 0)
(3 7.54307e-16 0)
(3 4.14008e-17 0)
(3 -1.16717e-15 0)
(3 -1.12804e-15 0)
(3 -2.27725e-16 0)
(3 1.79535e-15 0)
(3 1.71669e-15 0)
(3 9.22829e-16 0)
(3 8.04635e-16 0)
(3 8.66513e-16 0)
(3 7.70724e-16 0)
(3 5.43195e-16 0)
(3 5.70525e-16 0)
(3 1.26695e-15 0)
(3 1.30678e-15 0)
(3 1.20937e-15 0)
(3 1.27993e-15 0)
(3 8.70617e-16 0)
(3 5.19657e-16 0)
(3 6.91301e-16 0)
(3 1.72886e-15 0)
(3 1.99693e-15 0)
(3 1.62598e-15 0)
(3 1.32807e-15 0)
(3 1.15806e-15 0)
(3 9.4113e-16 0)
(3 -5.88955e-16 0)
(3 -1.09332e-15 0)
(3 -1.50683e-16 0)
(3 -4.88108e-17 0)
(3 -4.81317e-16 0)
(3 -2.06159e-16 0)
(3 8.95053e-19 0)
(3 1.70008e-16 0)
(3 4.32246e-16 0)
(3 -4.50651e-16 0)
(3 -1.2863e-15 0)
(3 -2.15771e-15 0)
(3 -1.5667e-15 0)
(3 -1.37012e-16 0)
(3 7.50154e-17 0)
(3 6.8173e-16 0)
(3 1.2792e-15 0)
(3 1.45997e-15 0)
(3 7.11722e-16 0)
(3 8.27264e-16 0)
(3 1.53355e-15 0)
(3 1.74316e-15 0)
(3 1.24783e-16 0)
(3 1.0388e-16 0)
(3 -1.2542e-16 0)
(3 6.08559e-16 0)
(3 1.50337e-15 0)
(3 2.49162e-15 0)
(3 2.63223e-15 0)
(3 1.99762e-15 0)
(3 1.5952e-15 0)
(3 1.88312e-15 0)
(3 1.67178e-15 0)
(3 9.56715e-16 0)
(3 1.44642e-16 0)
(3 -1.72401e-16 0)
(3 2.60785e-17 0)
(3 4.5395e-16 0)
(3 5.23572e-16 0)
(3 3.88089e-16 0)
(3 8.10907e-16 0)
(3 5.6934e-16 0)
(3 -3.95609e-16 0)
(3 -5.67579e-16 0)
(3 -1.14321e-16 0)
(3 -5.83619e-16 0)
(3 -1.09383e-15 0)
(3 -6.09071e-16 0)
(3 1.39247e-16 0)
(3 1.56806e-15 0)
(3 2.60993e-15 0)
(3 2.71413e-15 0)
(3 2.87778e-15 0)
(3 2.78745e-15 0)
(3 3.40574e-15 0)
(3 4.38024e-15 0)
(3 4.27388e-15 0)
(3 2.97417e-15 0)
(3 1.60171e-15 0)
(3 1.23986e-15 0)
(3 8.71856e-16 0)
(3 5.8689e-16 0)
(3 3.78654e-16 0)
(3 -1.57006e-16 0)
(3 5.02948e-16 0)
(3 -1.59218e-16 0)
(3 -1.04738e-15 0)
(3 -3.58727e-16 0)
(3 4.49461e-16 0)
(3 1.27422e-15 0)
(3 -7.87363e-16 0)
(3 -1.38422e-15 0)
(3 -2.09521e-15 0)
(3 -9.55936e-16 0)
(3 1.75295e-15 0)
(3 2.20763e-15 0)
(3 1.68417e-15 0)
(3 3.74786e-16 0)
(3 -9.56584e-16 0)
(3 -1.02035e-15 0)
(3 3.47756e-16 0)
(3 1.01601e-15 0)
(3 -4.49113e-16 0)
(3 -1.01701e-15 0)
(3 -3.83051e-16 0)
(3 4.67543e-16 0)
(3 1.55144e-15 0)
(3 9.97764e-16 0)
(3 1.27749e-16 0)
(3 4.58281e-16 0)
(3 2.45804e-16 0)
(3 1.55762e-16 0)
(3 2.80041e-16 0)
(3 9.55199e-18 0)
(3 -4.24535e-16 0)
(3 -1.23782e-15 0)
(3 -1.22925e-15 0)
(3 -7.23267e-16 0)
(3 -9.34599e-16 0)
(3 -2.03033e-15 0)
(3 -3.04605e-15 0)
(3 -4.28018e-15 0)
(3 -5.25787e-15 0)
(3 -3.40212e-15 0)
(3 -2.69145e-15 0)
(3 -2.95418e-15 0)
(3 -3.65581e-15 0)
(3 -4.64451e-15 0)
(3 -4.40168e-15 0)
(3 -3.52206e-15 0)
(3 -3.05245e-15 0)
(3 -2.74492e-15 0)
(3 -1.87084e-15 0)
(3 -1.12101e-15 0)
(3 4.26655e-16 0)
(3 3.10188e-15 0)
(3 5.43527e-15 0)
(3 5.40708e-15 0)
(3 4.58146e-15 0)
(3 2.01126e-15 0)
(3 -1.08672e-12 0)
(3 9.34021e-11 0)
(3.00289 0.000813813 0)
(2.57201 0.507952 0)
(1.36117 0.87123 0)
(1.26216 0.854327 0)
(1.264 0.852511 0)
(1.26405 0.85194 0)
(1.26601 0.851749 0)
(1.26861 0.852495 0)
(1.27183 0.853297 0)
(1.27501 0.85425 0)
(1.27825 0.855081 0)
(1.28134 0.855849 0)
(1.28438 0.856335 0)
(1.28742 0.856498 0)
(1.2906 0.856428 0)
(1.29408 0.856211 0)
(1.29798 0.855915 0)
(1.30242 0.855572 0)
(1.30745 0.855226 0)
(1.31299 0.854965 0)
(1.31901 0.854797 0)
(1.32551 0.854689 0)
(1.33242 0.854602 0)
(1.33979 0.854452 0)
(1.34758 0.854197 0)
(1.3557 0.853818 0)
(1.36406 0.853275 0)
(1.37251 0.85256 0)
(1.38101 0.85165 0)
(3 1.13396e-17 0)
(3 1.66487e-16 0)
(3 6.394e-17 0)
(3 5.67524e-16 0)
(3 6.5986e-16 0)
(3 2.83541e-16 0)
(3 3.10045e-16 0)
(3 3.70277e-16 0)
(3 6.76533e-16 0)
(3 9.41262e-16 0)
(3 9.1342e-16 0)
(3 1.13449e-15 0)
(3 1.07591e-15 0)
(3 -3.49917e-16 0)
(3 -4.47916e-16 0)
(3 -4.65712e-17 0)
(3 6.07201e-17 0)
(3 -5.50109e-16 0)
(3 -1.09189e-15 0)
(3 5.31385e-16 0)
(3 2.7674e-15 0)
(3 2.35767e-15 0)
(3 2.48937e-16 0)
(3 -1.50804e-16 0)
(3 -7.57386e-16 0)
(3 -1.68976e-15 0)
(3 -2.5743e-15 0)
(3 -2.00858e-15 0)
(3 -1.526e-15 0)
(3 -1.94877e-15 0)
(3 -2.42473e-16 0)
(3 5.48455e-16 0)
(3 7.23222e-16 0)
(3 7.48717e-16 0)
(3 9.29701e-17 0)
(3 1.04946e-15 0)
(3 1.51477e-15 0)
(3 7.87834e-16 0)
(3 5.39684e-17 0)
(3 -2.08165e-16 0)
(3 2.63043e-17 0)
(3 -4.98159e-16 0)
(3 -5.29805e-16 0)
(3 -1.23764e-16 0)
(3 2.56029e-16 0)
(3 5.63955e-16 0)
(3 1.3797e-15 0)
(3 1.50655e-15 0)
(3 1.01216e-15 0)
(3 3.11863e-16 0)
(3 -9.93205e-16 0)
(3 -2.24679e-15 0)
(3 -2.18025e-15 0)
(3 -8.67597e-16 0)
(3 3.82138e-16 0)
(3 4.42833e-16 0)
(3 3.82875e-16 0)
(3 2.22575e-16 0)
(3 2.01813e-16 0)
(3 1.8421e-16 0)
(3 2.5694e-16 0)
(3 1.89828e-16 0)
(3 2.69076e-16 0)
(3 7.6883e-17 0)
(3 3.70495e-16 0)
(3 1.01167e-15 0)
(3 1.66588e-15 0)
(3 2.65063e-15 0)
(3 2.99377e-15 0)
(3 1.95272e-15 0)
(3 9.99747e-16 0)
(3 8.46894e-16 0)
(3 8.38783e-16 0)
(3 1.23699e-15 0)
(3 1.08179e-15 0)
(3 1.3103e-15 0)
(3 9.86987e-16 0)
(3 5.92978e-16 0)
(3 1.76982e-16 0)
(3 -3.78645e-16 0)
(3 -5.39616e-16 0)
(3 -1.61421e-17 0)
(3 2.06284e-16 0)
(3 1.49044e-17 0)
(3 7.23446e-16 0)
(3 6.28458e-16 0)
(3 4.53342e-16 0)
(3 1.85949e-16 0)
(3 4.41022e-16 0)
(3 1.51613e-15 0)
(3 1.00364e-15 0)
(3 -8.53503e-16 0)
(3 -9.42889e-16 0)
(3 -1.40281e-16 0)
(3 2.75102e-15 0)
(3 4.66836e-15 0)
(3 4.41356e-15 0)
(3 3.86258e-15 0)
(3 2.67758e-15 0)
(3 6.18283e-16 0)
(3 -5.8114e-16 0)
(3 -1.11331e-15 0)
(3 -5.22436e-16 0)
(3 -3.16729e-16 0)
(3 -7.70856e-16 0)
(3 -1.43277e-15 0)
(3 -1.41243e-15 0)
(3 -1.4144e-15 0)
(3 -9.65822e-16 0)
(3 1.05043e-15 0)
(3 1.70256e-15 0)
(3 5.8602e-16 0)
(3 -7.33371e-16 0)
(3 -1.5028e-15 0)
(3 -7.69407e-16 0)
(3 9.5919e-16 0)
(3 1.44904e-15 0)
(3 7.76899e-16 0)
(3 6.83666e-16 0)
(3 6.06155e-16 0)
(3 9.48461e-16 0)
(3 7.41231e-16 0)
(3 -5.74513e-17 0)
(3 -4.00814e-16 0)
(3 -7.82092e-16 0)
(3 -9.31494e-16 0)
(3 -9.81199e-16 0)
(3 -4.55356e-16 0)
(3 -7.69836e-16 0)
(3 -1.7614e-15 0)
(3 -2.27903e-15 0)
(3 -2.14744e-15 0)
(3 -1.41663e-15 0)
(3 -7.58621e-16 0)
(3 3.27537e-16 0)
(3 -1.35646e-16 0)
(3 -1.27368e-15 0)
(3 -8.95787e-16 0)
(3 -5.89732e-16 0)
(3 -1.62146e-15 0)
(3 -3.21474e-15 0)
(3 -6.2788e-15 0)
(3 -7.74093e-15 0)
(3 -7.43465e-15 0)
(3 -3.57749e-15 0)
(3 -6.17489e-16 0)
(3 -9.14483e-16 0)
(3 -1.55745e-15 0)
(3 -1.7262e-15 0)
(3 -2.7199e-15 0)
(3 -1.97239e-15 0)
(3 -1.19738e-15 0)
(3 -1.69633e-15 0)
(3 -3.36932e-15 0)
(3 -3.41758e-15 0)
(3 -2.87365e-16 0)
(3 3.40494e-15 0)
(3 4.53361e-15 0)
(3 5.34548e-15 0)
(3 5.35335e-15 0)
(3 5.40321e-15 0)
(3 -6.31365e-14 0)
(3 -5.82419e-14 0)
(3.00001 3.17583e-06 0)
(3.05493 0.0439706 0)
(1.70697 0.803333 0)
(1.28017 0.856714 0)
(1.27647 0.854751 0)
(1.27507 0.853466 0)
(1.27604 0.85312 0)
(1.27774 0.854018 0)
(1.28056 0.855075 0)
(1.28367 0.856489 0)
(1.28727 0.857695 0)
(1.29086 0.858748 0)
(1.29451 0.859427 0)
(1.29797 0.859898 0)
(1.30144 0.860119 0)
(1.30499 0.860162 0)
(1.30885 0.859992 0)
(1.31306 0.859661 0)
(1.31765 0.859235 0)
(1.32258 0.858811 0)
(1.32789 0.858383 0)
(1.33363 0.857926 0)
(1.33982 0.857427 0)
(1.34653 0.856877 0)
(1.35373 0.856293 0)
(1.36138 0.85568 0)
(1.36943 0.855011 0)
(1.37774 0.854268 0)
(1.3862 0.853458 0)
(3 1.68656e-17 0)
(3 -1.61042e-16 0)
(3 4.73412e-18 0)
(3 -3.98706e-17 0)
(3 1.91115e-16 0)
(3 7.34569e-17 0)
(3 4.76793e-16 0)
(3 1.51857e-15 0)
(3 1.35179e-15 0)
(3 5.91835e-16 0)
(3 1.1802e-16 0)
(3 7.86377e-17 0)
(3 1.90441e-16 0)
(3 -1.60452e-15 0)
(3 -2.3287e-15 0)
(3 -1.49993e-15 0)
(3 -2.49612e-16 0)
(3 9.00656e-17 0)
(3 1.90821e-15 0)
(3 3.11194e-15 0)
(3 3.03957e-15 0)
(3 3.20235e-15 0)
(3 2.67282e-15 0)
(3 2.02423e-15 0)
(3 8.72807e-16 0)
(3 -8.65167e-17 0)
(3 -3.82028e-16 0)
(3 -9.95263e-16 0)
(3 -2.17403e-15 0)
(3 -2.24699e-15 0)
(3 -1.02284e-15 0)
(3 2.82052e-16 0)
(3 1.13467e-15 0)
(3 2.08375e-15 0)
(3 2.66663e-15 0)
(3 1.86343e-15 0)
(3 -3.04341e-16 0)
(3 -4.81865e-16 0)
(3 -9.04617e-16 0)
(3 -9.39929e-16 0)
(3 -7.22958e-16 0)
(3 -3.23725e-16 0)
(3 -7.81352e-16 0)
(3 -1.1569e-15 0)
(3 -6.74482e-16 0)
(3 4.58875e-16 0)
(3 8.6762e-16 0)
(3 1.38552e-15 0)
(3 1.72732e-15 0)
(3 6.476e-16 0)
(3 3.9235e-16 0)
(3 -6.88945e-16 0)
(3 -1.66234e-15 0)
(3 -1.64699e-15 0)
(3 -6.98649e-16 0)
(3 -3.619e-16 0)
(3 -9.69416e-16 0)
(3 -8.17865e-16 0)
(3 -1.83996e-16 0)
(3 -7.72881e-17 0)
(3 -5.54153e-16 0)
(3 -1.48961e-15 0)
(3 -1.25827e-15 0)
(3 6.52728e-16 0)
(3 3.10833e-15 0)
(3 3.57148e-15 0)
(3 3.48815e-15 0)
(3 4.35479e-15 0)
(3 3.99776e-15 0)
(3 1.44483e-15 0)
(3 6.41698e-16 0)
(3 8.21144e-17 0)
(3 9.98121e-16 0)
(3 1.72125e-15 0)
(3 2.01455e-15 0)
(3 1.47863e-15 0)
(3 1.56271e-15 0)
(3 1.65659e-15 0)
(3 -3.28379e-16 0)
(3 -1.1625e-15 0)
(3 -8.69723e-16 0)
(3 -7.99642e-16 0)
(3 -1.85036e-15 0)
(3 -5.57219e-16 0)
(3 9.61636e-16 0)
(3 5.12709e-16 0)
(3 -2.87149e-16 0)
(3 -1.06811e-15 0)
(3 -1.38384e-15 0)
(3 -1.45311e-15 0)
(3 -1.47418e-15 0)
(3 -2.58264e-15 0)
(3 -1.8162e-15 0)
(3 -9.77123e-16 0)
(3 1.00326e-15 0)
(3 3.45947e-15 0)
(3 4.08287e-15 0)
(3 3.98649e-15 0)
(3 2.48611e-15 0)
(3 1.63572e-15 0)
(3 1.0674e-15 0)
(3 3.36418e-16 0)
(3 -5.07642e-16 0)
(3 -2.11035e-16 0)
(3 4.76806e-16 0)
(3 -8.42968e-16 0)
(3 -1.31445e-15 0)
(3 -1.42722e-15 0)
(3 -7.08051e-16 0)
(3 1.32032e-16 0)
(3 1.53756e-15 0)
(3 1.86324e-15 0)
(3 7.25182e-16 0)
(3 3.79076e-16 0)
(3 1.07629e-16 0)
(3 -2.34847e-16 0)
(3 2.51861e-16 0)
(3 5.33189e-16 0)
(3 6.09973e-16 0)
(3 3.26377e-16 0)
(3 1.98039e-16 0)
(3 -4.88295e-16 0)
(3 -3.2551e-16 0)
(3 1.48986e-15 0)
(3 2.69018e-16 0)
(3 -1.94082e-15 0)
(3 -2.67119e-15 0)
(3 -3.43529e-15 0)
(3 -3.16742e-15 0)
(3 -3.3456e-15 0)
(3 -3.17542e-15 0)
(3 -3.11264e-15 0)
(3 -2.11382e-15 0)
(3 -2.90728e-16 0)
(3 1.42887e-15 0)
(3 1.26668e-15 0)
(3 -1.23052e-15 0)
(3 -1.28273e-15 0)
(3 -2.26467e-15 0)
(3 -3.82357e-15 0)
(3 -4.21691e-15 0)
(3 -5.73921e-15 0)
(3 -6.37597e-15 0)
(3 -5.77835e-15 0)
(3 -2.82837e-15 0)
(3 -1.69679e-15 0)
(3 -1.88152e-15 0)
(3 -1.4908e-15 0)
(3 -1.14841e-15 0)
(3 -1.20677e-15 0)
(3 7.24096e-17 0)
(3 -1.02245e-15 0)
(3 -1.52924e-15 0)
(3 -1.54711e-15 0)
(3 -1.66035e-15 0)
(3 4.4118e-16 0)
(3 1.08538e-15 0)
(3 1.44415e-15 0)
(3 2.34034e-15 0)
(3 2.52987e-15 0)
(3 2.80598e-15 0)
(3 1.51486e-15 0)
(3 -1.7994e-14 0)
(3 7.03085e-10 0)
(3.00337 0.0011893 0)
(2.61329 0.500434 0)
(1.39016 0.882904 0)
(1.28236 0.864679 0)
(1.28465 0.862029 0)
(1.28396 0.861244 0)
(1.28515 0.860819 0)
(1.28754 0.860855 0)
(1.29042 0.8616 0)
(1.29416 0.862415 0)
(1.29809 0.863417 0)
(1.30235 0.864207 0)
(1.30649 0.864838 0)
(1.31057 0.865224 0)
(1.31462 0.865348 0)
(1.3188 0.865298 0)
(1.323 0.865066 0)
(1.32738 0.864559 0)
(1.33193 0.863844 0)
(1.33677 0.862932 0)
(1.34195 0.861896 0)
(1.34755 0.860795 0)
(1.35362 0.85974 0)
(1.3602 0.858782 0)
(1.36728 0.857925 0)
(1.37484 0.85713 0)
(1.38281 0.856346 0)
(1.39109 0.855547 0)
(3 4.18738e-17 0)
(3 -7.88815e-17 0)
(3 -1.96032e-18 0)
(3 -1.36659e-16 0)
(3 1.53589e-17 0)
(3 1.54771e-16 0)
(3 4.65465e-16 0)
(3 6.17789e-16 0)
(3 4.07926e-16 0)
(3 1.08871e-16 0)
(3 -4.14219e-16 0)
(3 -4.83567e-16 0)
(3 -4.75444e-16 0)
(3 -1.1274e-15 0)
(3 -2.0159e-15 0)
(3 -1.5385e-15 0)
(3 1.10951e-15 0)
(3 2.73088e-15 0)
(3 3.87182e-15 0)
(3 3.90187e-15 0)
(3 3.53553e-15 0)
(3 3.19822e-15 0)
(3 2.68502e-15 0)
(3 1.88353e-15 0)
(3 1.67534e-15 0)
(3 2.45483e-15 0)
(3 2.53443e-15 0)
(3 1.66807e-15 0)
(3 -1.86215e-15 0)
(3 -3.55003e-15 0)
(3 -2.92691e-15 0)
(3 -1.00945e-15 0)
(3 2.46183e-15 0)
(3 3.2824e-15 0)
(3 2.7354e-15 0)
(3 1.31756e-15 0)
(3 7.24043e-16 0)
(3 1.40768e-16 0)
(3 -5.23127e-16 0)
(3 -8.42086e-16 0)
(3 -1.43123e-15 0)
(3 -1.84794e-15 0)
(3 -1.97183e-15 0)
(3 -1.38538e-15 0)
(3 1.13711e-16 0)
(3 1.6158e-16 0)
(3 -1.86985e-16 0)
(3 -2.57655e-16 0)
(3 1.04452e-16 0)
(3 4.76125e-16 0)
(3 -4.48451e-16 0)
(3 -1.57053e-15 0)
(3 -9.55434e-16 0)
(3 -1.07977e-15 0)
(3 -1.52792e-15 0)
(3 -1.25993e-15 0)
(3 -1.19302e-15 0)
(3 -5.31706e-16 0)
(3 -6.86636e-17 0)
(3 -3.16056e-16 0)
(3 -1.15811e-15 0)
(3 -9.20251e-16 0)
(3 -6.08631e-17 0)
(3 2.60768e-15 0)
(3 3.86775e-15 0)
(3 4.15039e-15 0)
(3 3.62727e-15 0)
(3 3.65846e-15 0)
(3 2.78824e-15 0)
(3 1.77214e-15 0)
(3 1.72125e-15 0)
(3 1.04632e-15 0)
(3 3.01438e-16 0)
(3 1.21356e-16 0)
(3 8.6636e-16 0)
(3 2.08045e-15 0)
(3 3.25257e-15 0)
(3 3.19453e-15 0)
(3 1.69449e-15 0)
(3 1.5475e-15 0)
(3 1.14279e-15 0)
(3 1.2358e-15 0)
(3 1.70567e-16 0)
(3 -7.25424e-16 0)
(3 -1.19761e-15 0)
(3 -7.45901e-16 0)
(3 1.10347e-17 0)
(3 1.79745e-16 0)
(3 -7.06564e-16 0)
(3 -1.43754e-15 0)
(3 -1.80421e-15 0)
(3 -2.90349e-15 0)
(3 -2.19862e-15 0)
(3 -1.74231e-15 0)
(3 -9.06192e-16 0)
(3 7.83895e-16 0)
(3 1.40158e-15 0)
(3 1.79689e-15 0)
(3 1.12836e-15 0)
(3 1.25018e-15 0)
(3 1.02986e-15 0)
(3 1.04605e-15 0)
(3 2.93331e-16 0)
(3 -4.75847e-16 0)
(3 -6.50269e-17 0)
(3 2.28936e-16 0)
(3 -2.70741e-16 0)
(3 -2.68091e-16 0)
(3 -3.34093e-16 0)
(3 -5.50124e-16 0)
(3 -3.47008e-16 0)
(3 -4.22782e-16 0)
(3 -5.83169e-16 0)
(3 -5.9842e-16 0)
(3 -1.25381e-16 0)
(3 -8.91477e-18 0)
(3 -1.26451e-17 0)
(3 -5.70676e-16 0)
(3 -1.07251e-15 0)
(3 -1.0029e-15 0)
(3 -1.35112e-15 0)
(3 -4.08161e-16 0)
(3 1.26901e-15 0)
(3 8.2483e-16 0)
(3 3.89982e-16 0)
(3 -1.59366e-15 0)
(3 -3.38352e-15 0)
(3 -4.03053e-15 0)
(3 -2.90508e-15 0)
(3 -3.28331e-15 0)
(3 -3.24672e-15 0)
(3 -2.82795e-15 0)
(3 -1.94068e-15 0)
(3 -5.81846e-16 0)
(3 -9.07099e-17 0)
(3 -7.65523e-16 0)
(3 -2.86868e-15 0)
(3 -4.40474e-15 0)
(3 -4.63613e-15 0)
(3 -4.0305e-15 0)
(3 -2.7714e-15 0)
(3 -1.99117e-15 0)
(3 -1.33849e-15 0)
(3 -2.159e-15 0)
(3 -3.36415e-15 0)
(3 -4.75348e-15 0)
(3 -4.04254e-15 0)
(3 -1.28907e-15 0)
(3 5.81716e-16 0)
(3 1.50114e-15 0)
(3 2.7312e-15 0)
(3 2.61153e-15 0)
(3 1.06006e-15 0)
(3 6.30463e-16 0)
(3 1.07465e-15 0)
(3 6.83744e-16 0)
(3 9.3664e-17 0)
(3 7.57301e-17 0)
(3 1.01908e-15 0)
(3 1.42608e-15 0)
(3 2.09967e-15 0)
(3 2.97743e-15 0)
(3 -9.97625e-16 0)
(3 3.88305e-14 0)
(3.00001 5.93179e-06 0)
(3.0536 0.0392341 0)
(1.74456 0.804363 0)
(1.30108 0.870668 0)
(1.29696 0.868019 0)
(1.29626 0.865762 0)
(1.29671 0.864095 0)
(1.2976 0.86356 0)
(1.29944 0.863628 0)
(1.30247 0.864134 0)
(1.30622 0.865063 0)
(1.3106 0.866053 0)
(1.31504 0.867134 0)
(1.31954 0.868025 0)
(1.32392 0.86877 0)
(1.32853 0.869059 0)
(1.33295 0.869009 0)
(1.3373 0.868568 0)
(1.34162 0.867834 0)
(1.34606 0.866801 0)
(1.35072 0.86556 0)
(1.35579 0.864163 0)
(1.36131 0.862785 0)
(1.36733 0.861507 0)
(1.37386 0.860386 0)
(1.3809 0.859387 0)
(1.38841 0.858463 0)
(1.39632 0.857582 0)
(3 2.01364e-16 0)
(3 2.03077e-16 0)
(3 -3.19805e-16 0)
(3 -4.34601e-16 0)
(3 -1.2108e-16 0)
(3 2.73022e-16 0)
(3 -1.26981e-18 0)
(3 -4.75437e-16 0)
(3 -6.89764e-17 0)
(3 -4.85932e-16 0)
(3 -1.06503e-15 0)
(3 -1.38981e-15 0)
(3 -1.01298e-15 0)
(3 -1.23901e-16 0)
(3 1.30942e-16 0)
(3 -1.44814e-17 0)
(3 3.60767e-16 0)
(3 9.93225e-16 0)
(3 1.1668e-15 0)
(3 1.39739e-15 0)
(3 1.58865e-15 0)
(3 8.1228e-16 0)
(3 4.07295e-16 0)
(3 3.85075e-16 0)
(3 2.11039e-15 0)
(3 3.66413e-15 0)
(3 4.29866e-15 0)
(3 2.6191e-15 0)
(3 -6.35753e-16 0)
(3 -2.03451e-15 0)
(3 -2.00063e-15 0)
(3 1.24539e-15 0)
(3 2.60892e-15 0)
(3 3.97759e-15 0)
(3 2.37257e-15 0)
(3 -1.20828e-15 0)
(3 -1.65059e-15 0)
(3 -1.33936e-15 0)
(3 -9.36339e-16 0)
(3 -4.39503e-16 0)
(3 -2.67916e-15 0)
(3 -3.0942e-15 0)
(3 -2.40904e-15 0)
(3 -3.01652e-15 0)
(3 -2.90126e-15 0)
(3 1.99747e-17 0)
(3 1.26916e-15 0)
(3 1.29118e-15 0)
(3 6.86937e-16 0)
(3 2.47958e-16 0)
(3 -1.5686e-16 0)
(3 -1.68013e-15 0)
(3 -1.76708e-15 0)
(3 -1.89966e-15 0)
(3 -2.64204e-15 0)
(3 -2.61266e-15 0)
(3 -1.3405e-15 0)
(3 -6.19494e-16 0)
(3 -1.65093e-15 0)
(3 -1.66442e-15 0)
(3 -1.80973e-15 0)
(3 -1.18671e-15 0)
(3 7.65578e-16 0)
(3 7.37424e-16 0)
(3 1.22678e-15 0)
(3 1.73812e-15 0)
(3 2.02628e-15 0)
(3 2.02993e-15 0)
(3 1.86296e-15 0)
(3 1.79589e-15 0)
(3 1.64611e-15 0)
(3 6.31297e-16 0)
(3 -7.26341e-16 0)
(3 -1.31814e-15 0)
(3 -9.03285e-16 0)
(3 1.56031e-15 0)
(3 3.61511e-15 0)
(3 2.89283e-15 0)
(3 1.80976e-15 0)
(3 1.32708e-15 0)
(3 1.32833e-15 0)
(3 1.27202e-15 0)
(3 1.68304e-15 0)
(3 -9.59418e-16 0)
(3 -2.22401e-15 0)
(3 -1.93926e-15 0)
(3 -1.0324e-15 0)
(3 -6.69155e-16 0)
(3 -1.55078e-15 0)
(3 -1.86876e-15 0)
(3 -2.72931e-15 0)
(3 -2.268e-15 0)
(3 -1.73664e-15 0)
(3 -1.07617e-15 0)
(3 -2.64059e-16 0)
(3 -3.38646e-17 0)
(3 -1.56836e-16 0)
(3 -6.29643e-16 0)
(3 1.55889e-16 0)
(3 3.11942e-17 0)
(3 4.31432e-16 0)
(3 1.40215e-15 0)
(3 7.38992e-16 0)
(3 -8.12364e-17 0)
(3 -6.84581e-17 0)
(3 9.80399e-16 0)
(3 4.90955e-16 0)
(3 2.60397e-16 0)
(3 -2.55433e-16 0)
(3 -8.66778e-16 0)
(3 -1.3202e-15 0)
(3 -1.57537e-15 0)
(3 -1.64286e-15 0)
(3 -1.51359e-15 0)
(3 -1.47262e-15 0)
(3 -1.46765e-15 0)
(3 -1.86509e-15 0)
(3 -2.43947e-15 0)
(3 -2.88963e-15 0)
(3 -2.10607e-15 0)
(3 -2.2143e-15 0)
(3 -1.44246e-15 0)
(3 -3.34298e-16 0)
(3 3.14708e-16 0)
(3 5.71969e-16 0)
(3 4.76268e-16 0)
(3 -1.83949e-15 0)
(3 -2.89393e-15 0)
(3 -2.87434e-15 0)
(3 -2.98978e-15 0)
(3 -3.69157e-15 0)
(3 -3.08875e-15 0)
(3 -2.35457e-15 0)
(3 -2.41365e-15 0)
(3 -2.58322e-15 0)
(3 -2.75311e-15 0)
(3 -3.40305e-15 0)
(3 -3.34602e-15 0)
(3 -3.75886e-15 0)
(3 -4.23664e-15 0)
(3 -4.37445e-15 0)
(3 -3.43018e-15 0)
(3 -1.69645e-15 0)
(3 -1.72111e-15 0)
(3 -2.3049e-15 0)
(3 -2.55725e-15 0)
(3 -2.02688e-15 0)
(3 -1.04369e-15 0)
(3 1.83186e-15 0)
(3 4.13674e-15 0)
(3 4.80145e-15 0)
(3 5.05649e-15 0)
(3 2.55401e-15 0)
(3 1.48823e-15 0)
(3 1.6636e-15 0)
(3 5.53583e-16 0)
(3 4.96634e-16 0)
(3 1.09249e-15 0)
(3 1.7295e-15 0)
(3 2.39694e-15 0)
(3 2.7691e-15 0)
(3 2.92371e-15 0)
(3 3.04455e-15 0)
(3 2.88421e-15 0)
(3 2.0029e-09 0)
(3.00277 0.00111286 0)
(2.65729 0.469226 0)
(1.42549 0.888496 0)
(1.30416 0.873885 0)
(1.30956 0.872661 0)
(1.30839 0.872376 0)
(1.30841 0.870755 0)
(1.3088 0.869712 0)
(1.31067 0.869119 0)
(1.31383 0.869196 0)
(1.31774 0.869895 0)
(1.32214 0.870889 0)
(1.32689 0.871844 0)
(1.33184 0.872567 0)
(1.3369 0.872895 0)
(1.34167 0.872909 0)
(1.34619 0.872571 0)
(1.35052 0.871874 0)
(1.35491 0.870742 0)
(1.35944 0.869301 0)
(1.36434 0.867659 0)
(1.36957 0.866071 0)
(1.37523 0.864613 0)
(1.38127 0.863338 0)
(1.38776 0.862188 0)
(1.39468 0.861119 0)
(1.40204 0.860078 0)
(3 -4.41258e-17 0)
(3 -2.17929e-17 0)
(3 -3.00688e-16 0)
(3 -4.25939e-16 0)
(3 -1.3538e-16 0)
(3 2.24879e-16 0)
(3 3.16012e-16 0)
(3 1.02462e-16 0)
(3 1.46515e-16 0)
(3 3.69249e-17 0)
(3 1.10477e-16 0)
(3 -2.43332e-17 0)
(3 -4.67942e-16 0)
(3 6.71911e-16 0)
(3 1.57986e-15 0)
(3 2.17422e-15 0)
(3 1.44142e-15 0)
(3 4.03645e-19 0)
(3 -6.30044e-16 0)
(3 -5.76974e-16 0)
(3 -9.96996e-16 0)
(3 -1.11701e-15 0)
(3 -7.10141e-16 0)
(3 1.00391e-15 0)
(3 1.26516e-15 0)
(3 1.62703e-15 0)
(3 2.257e-15 0)
(3 1.55638e-15 0)
(3 9.27284e-16 0)
(3 1.23321e-15 0)
(3 7.41201e-16 0)
(3 1.00084e-15 0)
(3 8.85468e-16 0)
(3 1.16661e-15 0)
(3 1.23169e-15 0)
(3 -3.39072e-16 0)
(3 -1.97811e-15 0)
(3 -1.94365e-15 0)
(3 -9.45022e-16 0)
(3 -9.21504e-16 0)
(3 -1.1307e-15 0)
(3 -1.96475e-15 0)
(3 -2.38129e-15 0)
(3 -2.66745e-15 0)
(3 -2.81673e-15 0)
(3 -1.85501e-15 0)
(3 -3.06155e-16 0)
(3 3.71413e-16 0)
(3 -2.16469e-16 0)
(3 -1.44434e-15 0)
(3 -1.59229e-15 0)
(3 -1.74306e-15 0)
(3 -2.27069e-15 0)
(3 -2.29583e-15 0)
(3 -2.09978e-15 0)
(3 -2.15779e-15 0)
(3 -1.28483e-15 0)
(3 -9.80819e-16 0)
(3 -2.26238e-15 0)
(3 -2.3095e-15 0)
(3 -2.04401e-15 0)
(3 -1.11475e-15 0)
(3 -4.82812e-16 0)
(3 -5.16485e-16 0)
(3 -1.10664e-16 0)
(3 9.33252e-16 0)
(3 1.28988e-15 0)
(3 2.12336e-15 0)
(3 2.90427e-15 0)
(3 2.34628e-15 0)
(3 1.6705e-15 0)
(3 6.12878e-16 0)
(3 -7.64379e-17 0)
(3 -8.68826e-16 0)
(3 -6.80966e-16 0)
(3 2.23771e-17 0)
(3 1.66684e-16 0)
(3 3.12013e-16 0)
(3 3.62673e-16 0)
(3 3.17507e-16 0)
(3 2.93458e-16 0)
(3 -8.91965e-16 0)
(3 -1.34856e-15 0)
(3 -7.13278e-16 0)
(3 -1.82086e-16 0)
(3 -6.69464e-16 0)
(3 -1.52055e-15 0)
(3 -1.91368e-15 0)
(3 -1.36612e-15 0)
(3 -1.14315e-15 0)
(3 -1.18079e-15 0)
(3 2.71159e-16 0)
(3 3.4037e-16 0)
(3 9.53089e-16 0)
(3 1.49549e-15 0)
(3 3.99579e-16 0)
(3 -7.75613e-16 0)
(3 -2.11363e-15 0)
(3 -1.20979e-15 0)
(3 -8.08801e-17 0)
(3 6.17066e-16 0)
(3 -5.69906e-17 0)
(3 -1.87459e-15 0)
(3 -2.53769e-15 0)
(3 -1.64386e-15 0)
(3 -4.7565e-16 0)
(3 8.17699e-16 0)
(3 1.2613e-15 0)
(3 8.81454e-16 0)
(3 7.27098e-16 0)
(3 5.44046e-16 0)
(3 5.09337e-16 0)
(3 2.60715e-16 0)
(3 -4.86434e-17 0)
(3 -1.98943e-15 0)
(3 -3.36135e-15 0)
(3 -3.45865e-15 0)
(3 -2.53407e-15 0)
(3 -2.1361e-15 0)
(3 -1.22368e-15 0)
(3 -2.24755e-16 0)
(3 -8.85612e-16 0)
(3 -1.98995e-16 0)
(3 3.87704e-16 0)
(3 4.51469e-16 0)
(3 3.94545e-16 0)
(3 -3.44623e-16 0)
(3 -1.82196e-15 0)