/*--------------------------------*- C++ -*----------------------------------*\
  =========                 |
  \\      /  F ield         | OpenFOAM: The Open Source CFD Toolbox
   \\    /   O peration     | Website:  https://openfoam.org
    \\  /    A nd           | Version:  7
     \\/     M anipulation  |
\*---------------------------------------------------------------------------*/
FoamFile
{
    version     2.0;
    format      ascii;
    class       volScalarField;
    location    "1";
    object      rho;
}
// * * * * * * * * * * * * * * * * * * * * * * * * * * * * * * * * * * * * * //

dimensions      [1 -3 0 0 0 0 0];

internalField   nonuniform List<scalar> 
16512
(
2.5997
2.57479
2.57027
2.56688
2.56267
2.55727
2.55078
2.54058
2.52826
2.51384
2.49296
2.45381
2.39727
2.36343
2.35672
2.35212
2.35202
2.35721
2.3536
2.34651
2.33793
2.32558
2.29891
2.24526
2.199
2.19112
2.18589
2.18067
2.17746
2.1743
2.1687
2.16062
2.14647
2.1137
2.0642
2.03752
2.03296
2.02913
2.02673
2.02473
2.02106
2.01634
2.00935
1.99367
1.96543
1.94322
1.93035
1.9218
1.91589
1.90916
1.90043
1.89018
1.878
1.86171
1.83885
1.81691
1.81033
1.80724
1.80305
1.79458
1.77908
1.76489
1.7556
1.74839
1.74091
1.73122
1.71589
1.69462
1.68553
1.68324
1.67984
1.67349
1.665
1.65834
1.65254
1.6459
1.63618
1.61894
1.59296
1.5728
1.56899
1.56729
1.5669
1.56798
1.56765
1.56555
1.56282
1.55845
1.54782
1.52617
1.49799
1.48234
1.48034
1.48071
1.48854
1.49678
1.49518
1.49059
1.48193
1.46204
1.42678
1.39804
1.39132
1.39033
1.39283
1.40686
1.42313
1.42529
1.42289
1.41976
1.41283
1.39355
1.35817
1.33255
1.32807
1.32682
1.32978
1.34161
1.34624
1.34328
1.34023
1.33707
1.33086
1.31372
1.28192
1.25803
1.25435
1.25432
1.26088
1.28
1.29555
1.29582
1.2923
1.28427
1.26495
1.23211
1.21195
1.20978
1.20934
1.21447
1.23175
1.24627
1.24661
1.2436
1.23581
1.21543
1.18453
1.16952
1.16772
1.16671
1.16924
1.17867
1.18155
1.17975
1.17687
1.16952
1.15062
1.12531
1.11556
1.11476
1.11542
1.12402
1.1415
1.14963
1.14877
1.1464
1.14033
1.12276
1.09582
1.08455
1.08368
1.08402
1.09197
1.11114
1.12124
1.11976
1.11494
1.10344
1.07778
1.04589
1.03469
1.03374
1.03337
1.03741
1.05359
1.07182
1.07504
1.07349
1.07064
1.06375
1.04665
1.02174
1.00979
1.00898
1.00966
1.01708
1.03194
1.0395
1.03917
1.03709
1.02987
1.01192
0.990004
0.982738
0.982259
0.983249
0.991715
1.00639
1.01123
1.01
1.00739
1.00189
0.989542
0.974328
0.968223
0.967359
0.966128
0.964948
0.963794
0.962593
0.961284
0.959279
0.95444
0.943849
0.935757
0.934531
0.934076
0.934393
0.938781
0.946934
0.950783
0.950753
0.949944
0.946149
0.934451
0.922157
0.919849
0.919376
0.920001
0.924032
0.92512
0.92325
0.920203
0.91461
0.903707
0.894097
0.892314
0.891771
0.891337
0.891676
0.893423
0.893726
0.892885
0.893096
0.893042
0.892558
0.895905
0.910543
2.61795
2.61335
2.60967
2.60338
2.59502
2.58686
2.57774
2.56657
2.55288
2.53486
2.50375
2.45071
2.40406
2.39309
2.38757
2.38467
2.38712
2.38787
2.38229
2.37436
2.36381
2.34415
2.29914
2.23963
2.21875
2.21513
2.21076
2.20613
2.20314
2.19945
2.19312
2.18242
2.15862
2.11205
2.07329
2.06571
2.06113
2.05734
2.05475
2.05187
2.04695
2.04119
2.03342
2.01614
1.98293
1.95865
1.9455
1.93564
1.92931
1.92248
1.91339
1.90245
1.8888
1.87023
1.85248
1.84751
1.84482
1.83881
1.82476
1.80406
1.7882
1.77784
1.76999
1.76264
1.75431
1.74281
1.72728
1.71824
1.7154
1.71114
1.70195
1.68697
1.67734
1.67134
1.66507
1.6568
1.64339
1.62143
1.60055
1.59541
1.59327
1.59186
1.59151
1.59082
1.58896
1.58636
1.5817
1.5702
1.54891
1.52163
1.50438
1.50166
1.50146
1.50777
1.51644
1.51567
1.51138
1.50352
1.48525
1.45191
1.42039
1.41094
1.40973
1.41061
1.42142
1.43877
1.44366
1.44148
1.43857
1.43302
1.41646
1.38314
1.35289
1.34556
1.3445
1.34706
1.35915
1.36586
1.36323
1.36004
1.35679
1.35106
1.33585
1.3059
1.27779
1.27091
1.27058
1.2746
1.29072
1.30872
1.31125
1.30829
1.30203
1.28677
1.25653
1.22928
1.22369
1.22297
1.22515
1.23878
1.25791
1.26254
1.26053
1.25512
1.2394
1.20943
1.18716
1.18373
1.18238
1.18302
1.19107
1.19647
1.19504
1.19221
1.18629
1.17014
1.14368
1.12906
1.12758
1.12748
1.13339
1.15001
1.16162
1.16148
1.15913
1.15447
1.14112
1.11488
1.09624
1.09399
1.09377
1.0987
1.11632
1.13378
1.13495
1.13161
1.12322
1.10231
1.06776
1.04825
1.04621
1.04545
1.04695
1.0588
1.07939
1.08701
1.08589
1.08342
1.07823
1.06403
1.03872
1.02168
1.0196
1.01957
1.02427
1.03779
1.04828
1.04902
1.04763
1.04285
1.02873
1.00592
0.994107
0.993154
0.99329
0.998983
1.01368
1.02275
1.02231
1.02019
1.01575
1.00453
0.987307
0.978166
0.97727
0.977122
0.976071
0.974752
0.973676
0.972479
0.970907
0.967491
0.95817
0.946506
0.943391
0.942827
0.942646
0.945153
0.952629
0.95833
0.958941
0.958525
0.956841
0.949256
0.935037
0.928627
0.92792
0.92779
0.930983
0.935281
0.934525
0.931899
0.927319
0.917842
0.905804
0.902296
0.901702
0.901278
0.901255
0.902989
0.904498
0.903817
0.902232
0.899907
0.895782
0.889473
0.886248
0.887398
2.65573
2.65385
2.64751
2.63727
2.62543
2.61377
2.60263
2.5911
2.57586
2.55177
2.50728
2.45231
2.43112
2.42531
2.41993
2.41804
2.41894
2.41628
2.40968
2.40027
2.38538
2.35027
2.28857
2.24805
2.24247
2.23998
2.23633
2.23216
2.22936
2.22478
2.21712
2.20115
2.16294
2.11502
2.09929
2.09417
2.08926
2.0856
2.08293
2.07929
2.07405
2.06791
2.05869
2.0354
1.99309
1.96807
1.95635
1.94652
1.94009
1.93399
1.92558
1.91483
1.90131
1.88861
1.88431
1.88232
1.8771
1.85914
1.82828
1.80964
1.80059
1.7932
1.78596
1.77843
1.7695
1.75863
1.75144
1.74879
1.74485
1.73437
1.71206
1.69571
1.68881
1.68314
1.67611
1.66562
1.64853
1.62905
1.62287
1.62086
1.61937
1.61832
1.61677
1.61434
1.61096
1.60447
1.59116
1.57079
1.54538
1.52738
1.52394
1.52324
1.52818
1.53671
1.53648
1.53247
1.525
1.50768
1.47592
1.44262
1.43075
1.42924
1.42925
1.43743
1.45456
1.46204
1.46031
1.45746
1.45252
1.43812
1.40723
1.37337
1.36251
1.36148
1.36366
1.37595
1.38554
1.38362
1.38032
1.37701
1.37173
1.35828
1.33047
1.29928
1.28882
1.28811
1.29017
1.30296
1.32147
1.32626
1.32374
1.31854
1.30682
1.28151
1.24958
1.23788
1.23697
1.23748
1.24668
1.2667
1.27732
1.27649
1.27286
1.26152
1.23534
1.20724
1.20001
1.19857
1.19805
1.20378
1.21132
1.21062
1.20797
1.20306
1.18951
1.16357
1.14412
1.14119
1.14068
1.1443
1.15895
1.17349
1.17469
1.17231
1.168
1.15754
1.13468
1.11046
1.10437
1.10401
1.10655
1.12056
1.14255
1.14944
1.14738
1.14154
1.12576
1.09305
1.06457
1.05919
1.05827
1.05826
1.06558
1.08562
1.09889
1.09881
1.09667
1.09248
1.08092
1.05717
1.03534
1.03047
1.03015
1.03258
1.04374
1.05633
1.05873
1.05774
1.05466
1.04438
1.02309
1.00631
1.0039
1.00361
1.00683
1.01964
1.03291
1.03432
1.03262
1.02921
1.02011
1.00249
0.988931
0.986796
0.986173
0.986736
0.986705
0.985359
0.984135
0.98279
0.980126
0.972355
0.959083
0.952659
0.951846
0.951421
0.95251
0.958683
0.965761
0.967231
0.966828
0.96592
0.961925
0.949727
0.938232
0.936351
0.935883
0.937279
0.943246
0.945037
0.943259
0.939607
0.932301
0.919638
0.912702
0.911629
0.910941
0.910593
0.911212
0.913519
0.91387
0.912968
0.911201
0.907477
0.899046
0.889421
0.887208
0.887393
2.69663
2.69236
2.68242
2.66904
2.65239
2.63765
2.62588
2.61379
2.59582
2.56263
2.50802
2.47077
2.46406
2.45771
2.45233
2.44952
2.44768
2.44297
2.43478
2.42288
2.39743
2.34334
2.28555
2.27075
2.26722
2.26641
2.26306
2.25935
2.25596
2.25028
2.23973
2.21345
2.1642
2.13375
2.1276
2.12191
2.11736
2.11441
2.11183
2.10736
2.10204
2.09519
2.07916
2.04008
1.99483
1.97521
1.96573
1.9576
1.95142
1.94686
1.94083
1.93257
1.92526
1.92175
1.91968
1.9143
1.89644
1.86017
1.83017
1.82187
1.81688
1.81027
1.80357
1.79665
1.78925
1.7839
1.78102
1.77717
1.7675
1.74202
1.71562
1.70538
1.69998
1.6939
1.68571
1.67336
1.65811
1.65192
1.65017
1.64924
1.64842
1.64617
1.64273
1.63658
1.62523
1.61013
1.59171
1.56927
1.55162
1.54758
1.5467
1.5504
1.55805
1.55808
1.55408
1.54635
1.52924
1.49881
1.46498
1.45088
1.44904
1.44864
1.45465
1.47087
1.48051
1.47928
1.47648
1.47195
1.45899
1.43019
1.39389
1.37932
1.37792
1.37958
1.39162
1.40469
1.4042
1.40078
1.39742
1.39257
1.381
1.35577
1.32253
1.30802
1.30673
1.30749
1.3171
1.33466
1.34098
1.33871
1.3342
1.3254
1.30519
1.27238
1.25335
1.25147
1.25104
1.25634
1.27409
1.29018
1.29161
1.28916
1.28149
1.26056
1.22982
1.21643
1.21482
1.21389
1.21721
1.22576
1.22646
1.22395
1.21976
1.20864
1.18466
1.16095
1.15533
1.15469
1.15669
1.16879
1.18504
1.18824
1.18604
1.18202
1.17342
1.15408
1.12701
1.11526
1.11458
1.11561
1.12561
1.14803
1.16246
1.16207
1.15823
1.14705
1.11976
1.08456
1.07254
1.07149
1.07091
1.07447
1.09118
1.10979
1.11229
1.11039
1.1069
1.09754
1.07614
1.05055
1.0419
1.04131
1.04224
1.0505
1.06389
1.06834
1.0676
1.06548
1.05846
1.04075
1.02022
1.01446
1.01404
1.01542
1.02512
1.04098
1.04609
1.04489
1.04216
1.0354
1.01939
1.00135
0.996494
0.995704
0.995499
0.997597
0.99789
0.996506
0.995032
0.992815
0.986648
0.973265
0.962869
0.961329
0.960732
0.960902
0.965264
0.973211
0.975911
0.975454
0.974653
0.972445
0.963663
0.949725
0.944443
0.943857
0.94413
0.949057
0.9545
0.953932
0.951311
0.945933
0.93485
0.924164
0.922025
0.921071
0.920283
0.920098
0.92147
0.922709
0.922237
0.921148
0.91885
0.912445
0.900826
0.893991
0.893038
0.892813
2.73689
2.72826
2.71556
2.69643
2.67387
2.65929
2.64811
2.63449
2.61182
2.56916
2.51653
2.50151
2.49552
2.48896
2.48281
2.47854
2.47447
2.46729
2.45693
2.43925
2.39777
2.33278
2.3008
2.29607
2.29409
2.2945
2.29092
2.28711
2.28256
2.27511
2.25836
2.21824
2.17275
2.16087
2.1549
2.14949
2.14596
2.14409
2.14095
2.1357
2.12977
2.11819
2.08536
2.03333
1.9966
1.9844
1.97708
1.971
1.96717
1.96528
1.96418
1.96177
1.9595
1.95692
1.95144
1.93384
1.89502
1.85526
1.84221
1.83924
1.83516
1.8291
1.82405
1.81959
1.81568
1.81225
1.80785
1.79899
1.77492
1.7406
1.72244
1.71647
1.71107
1.70448
1.69597
1.68662
1.68208
1.68095
1.68124
1.68024
1.67753
1.673
1.66164
1.64497
1.62871
1.6117
1.59263
1.57694
1.57282
1.57187
1.57491
1.58118
1.58079
1.57651
1.56764
1.54976
1.51998
1.48688
1.47172
1.46946
1.46877
1.47343
1.4883
1.49915
1.49845
1.49565
1.49143
1.47931
1.45197
1.4141
1.39626
1.39417
1.39512
1.40626
1.42264
1.42467
1.42127
1.41779
1.41325
1.40368
1.38141
1.34751
1.32831
1.32613
1.32595
1.33274
1.34869
1.35602
1.35387
1.34959
1.34258
1.32689
1.29725
1.27125
1.26612
1.26544
1.26795
1.28187
1.30092
1.30619
1.30454
1.29935
1.28349
1.25384
1.23371
1.23106
1.22985
1.23147
1.23973
1.24232
1.24003
1.23632
1.22735
1.2062
1.17951
1.17014
1.1693
1.17012
1.17962
1.19656
1.20199
1.19999
1.1963
1.18912
1.17286
1.1453
1.12753
1.12554
1.1257
1.13204
1.15187
1.17285
1.17607
1.17355
1.16613
1.14536
1.10854
1.08707
1.08486
1.084
1.08531
1.09746
1.11885
1.12599
1.12456
1.12146
1.11404
1.09544
1.06763
1.0543
1.05313
1.05314
1.05859
1.07147
1.078
1.07752
1.07581
1.07114
1.05745
1.03564
1.02505
1.02433
1.0247
1.03117
1.04693
1.057
1.05676
1.0547
1.04983
1.03664
1.01615
1.0065
1.00543
1.00489
1.00641
1.0098
1.00935
1.00778
1.00573
1.00098
0.988638
0.974731
0.971246
0.970548
0.970217
0.972752
0.980647
0.985104
0.984729
0.983773
0.982075
0.975967
0.962518
0.952658
0.951498
0.951314
0.954353
0.962069
0.964028
0.962364
0.958616
0.950169
0.937189
0.932363
0.931451
0.93051
0.929861
0.930131
0.931376
0.931123
0.930291
0.928822
0.924578
0.914182
0.904865
0.903086
0.902427
0.902277
2.77522
2.76361
2.74348
2.71315
2.69191
2.6803
2.66917
2.65291
2.62437
2.5761
2.53938
2.53109
2.52514
2.51802
2.51084
2.50561
2.49898
2.48959
2.47595
2.44669
2.38856
2.33731
2.32708
2.32306
2.32288
2.3237
2.31935
2.31473
2.30888
2.29764
2.26915
2.22148
2.19442
2.18772
2.18189
2.17767
2.17545
2.17367
2.16932
2.16332
2.15383
2.1267
2.07452
2.02379
2.00519
1.99845
1.99311
1.98969
1.98943
1.99384
1.99778
1.99661
1.99316
1.98771
1.97123
1.93227
1.88422
1.86439
1.86072
1.85881
1.85577
1.85159
1.8487
1.84624
1.8426
1.83766
1.82915
1.80712
1.76976
1.74138
1.73329
1.72856
1.72335
1.718
1.7136
1.71138
1.71254
1.71431
1.71292
1.70969
1.7032
1.68667
1.66544
1.64693
1.63117
1.61539
1.60309
1.59957
1.5988
1.60181
1.60631
1.60499
1.60006
1.58917
1.56943
1.5393
1.50818
1.4932
1.4906
1.4898
1.49374
1.50755
1.51868
1.51807
1.51517
1.51096
1.49943
1.47316
1.4342
1.41358
1.4105
1.4108
1.42048
1.43914
1.44474
1.44168
1.43805
1.43376
1.42596
1.40677
1.37382
1.34957
1.34574
1.34507
1.34952
1.36353
1.37153
1.36951
1.36537
1.35941
1.34705
1.32184
1.2916
1.28109
1.28031
1.28114
1.29103
1.31024
1.31989
1.31918
1.31574
1.30425
1.27857
1.25288
1.24705
1.24582
1.24626
1.2533
1.25798
1.2561
1.25265
1.24551
1.22748
1.1997
1.18577
1.18443
1.18447
1.19137
1.20791
1.21594
1.21424
1.21066
1.20458
1.191
1.16539
1.14213
1.1369
1.13675
1.1403
1.15601
1.18009
1.18933
1.18799
1.1831
1.16827
1.13526
1.10437
1.09816
1.09729
1.09738
1.10515
1.12607
1.13933
1.13891
1.13629
1.13038
1.1147
1.08661
1.068
1.06556
1.06507
1.06813
1.07953
1.08778
1.08766
1.08603
1.08267
1.07252
1.05206
1.03647
1.03451
1.03436
1.03824
1.0519
1.0663
1.06831
1.06673
1.06321
1.05315
1.03308
1.01755
1.01527
1.01457
1.0151
1.01975
1.02201
1.02079
1.01879
1.0151
1.00471
0.988752
0.981682
0.980761
0.98018
0.981196
0.988055
0.994638
0.994744
0.993625
0.991968
0.987564
0.975666
0.962079
0.958693
0.958405
0.959868
0.967327
0.973474
0.972919
0.970367
0.964614
0.952336
0.942861
0.941413
0.940611
0.939951
0.939791
0.940454
0.940365
0.939593
0.93853
0.93567
0.927116
0.916419
0.913593
0.91295
0.912676
0.913777
2.81301
2.79053
2.75457
2.72527
2.71186
2.70158
2.68898
2.66931
2.63597
2.59135
2.56658
2.55883
2.55302
2.54487
2.53729
2.53075
2.52207
2.51062
2.49072
2.44559
2.38459
2.36027
2.35472
2.3514
2.35315
2.35303
2.34765
2.34194
2.33388
2.31448
2.27321
2.2329
2.22044
2.21429
2.20945
2.20689
2.20524
2.20186
2.19628
2.18795
2.1655
2.11645
2.05542
2.02901
2.02239
2.01781
2.01473
2.01516
2.02244
2.03139
2.0321
2.02832
2.02275
2.00798
1.97111
1.91712
1.8892
1.88427
1.88186
1.88181
1.87984
1.87688
1.87497
1.87132
1.86603
1.85797
1.83878
1.80147
1.76309
1.75038
1.74657
1.74287
1.74004
1.73877
1.74036
1.74417
1.74622
1.74451
1.74103
1.7331
1.71293
1.68626
1.66412
1.64968
1.63768
1.63005
1.62747
1.62756
1.63114
1.63335
1.63089
1.62479
1.611
1.58842
1.55711
1.52896
1.51538
1.51266
1.51182
1.51561
1.52884
1.53962
1.53877
1.5354
1.53099
1.51964
1.49395
1.45459
1.43144
1.42709
1.42705
1.43509
1.4547
1.46429
1.46194
1.45823
1.45408
1.44739
1.43139
1.40094
1.37198
1.36512
1.36432
1.36696
1.3789
1.38754
1.38578
1.38177
1.37642
1.3664
1.34541
1.31434
1.29714
1.29566
1.29563
1.30218
1.31934
1.33229
1.33307
1.33069
1.32276
1.30211
1.27391
1.26299
1.2617
1.26138
1.2667
1.27325
1.27207
1.26883
1.26309
1.24809
1.22115
1.20241
1.19991
1.19942
1.20402
1.21919
1.22982
1.22869
1.22522
1.21994
1.20862
1.1859
1.15879
1.14897
1.14854
1.15021
1.16161
1.18511
1.20099
1.2014
1.19834
1.18824
1.16197
1.12535
1.11157
1.1105
1.11009
1.1144
1.1323
1.15113
1.15327
1.15108
1.14645
1.13369
1.10718
1.08339
1.07844
1.07776
1.07899
1.08826
1.09803
1.09841
1.09666
1.09387
1.08629
1.0687
1.04961
1.04459
1.04432
1.04631
1.057
1.07366
1.07946
1.07841
1.0757
1.06848
1.05096
1.03066
1.02495
1.02422
1.02412
1.028
1.03373
1.03367
1.03194
1.02893
1.02082
1.00464
0.992961
0.991324
0.99058
0.990659
0.995566
1.00399
1.00545
1.00429
1.00255
0.998949
0.98869
0.973334
0.966038
0.965541
0.965989
0.971447
0.980905
0.983003
0.98147
0.977648
0.968422
0.955164
0.951107
0.950249
0.949583
0.949505
0.95021
0.950108
0.94934
0.948447
0.946491
0.93981
0.928283
0.923489
0.922821
0.922386
0.923028
0.924574
2.83528
2.79567
2.7612
2.74342
2.73474
2.72412
2.70892
2.68531
2.64935
2.61192
2.59283
2.58559
2.57953
2.571
2.56322
2.5552
2.54515
2.53057
2.498
2.43953
2.39778
2.38894
2.38313
2.38091
2.38406
2.38161
2.37526
2.3681
2.35464
2.32133
2.27781
2.25436
2.24671
2.2412
2.23809
2.2367
2.23375
2.22839
2.22078
2.2023
2.15845
2.09177
2.05677
2.04846
2.04449
2.0419
2.04299
2.05209
2.06314
2.06504
2.0614
2.05612
2.04371
2.01047
1.95428
1.9171
1.90956
1.90673
1.90717
1.90845
1.90506
1.90236
1.89904
1.89361
1.88573
1.86881
1.83448
1.79004
1.76973
1.76604
1.76317
1.76166
1.76301
1.76865
1.77482
1.77626
1.77386
1.77015
1.76155
1.73977
1.70832
1.68184
1.66797
1.66041
1.6567
1.65581
1.65863
1.66207
1.66187
1.65843
1.65058
1.63327
1.60689
1.57383
1.54955
1.53806
1.5355
1.53482
1.5391
1.55223
1.56227
1.56092
1.55694
1.55174
1.5397
1.51438
1.47483
1.44982
1.44429
1.4441
1.45067
1.47004
1.48348
1.48214
1.47842
1.47433
1.46839
1.45517
1.42792
1.3955
1.38417
1.38328
1.38465
1.39462
1.40399
1.40265
1.3988
1.39396
1.38571
1.36784
1.33796
1.31519
1.31167
1.31116
1.31511
1.32946
1.34385
1.34633
1.34465
1.33946
1.32377
1.29671
1.27954
1.27749
1.2767
1.28012
1.28796
1.28801
1.28495
1.27998
1.26779
1.24328
1.22042
1.2155
1.21482
1.21746
1.23054
1.24339
1.24331
1.23994
1.23514
1.22574
1.20619
1.17767
1.16238
1.16121
1.16171
1.16929
1.18968
1.21027
1.214
1.21208
1.20553
1.18627
1.14967
1.12635
1.12375
1.12302
1.12498
1.1386
1.1606
1.16737
1.16583
1.1621
1.15214
1.12878
1.10071
1.09177
1.09093
1.09107
1.09764
1.10845
1.10997
1.10805
1.10527
1.09923
1.08453
1.06378
1.05484
1.05436
1.05523
1.063
1.07959
1.0899
1.08976
1.08768
1.0825
1.06844
1.04611
1.0349
1.03384
1.03344
1.0358
1.04336
1.04619
1.04495
1.04247
1.03659
1.02185
1.00582
1.00204
1.00122
1.00081
1.00377
1.01269
1.01658
1.01564
1.01381
1.01058
1.0019
0.986141
0.974451
0.972993
0.972901
0.976066
0.985833
0.992307
0.991877
0.989533
0.983517
0.970483
0.96107
0.959624
0.958813
0.958422
0.959619
0.960376
0.959518
0.958626
0.957229
0.95234
0.941022
0.933541
0.932567
0.932002
0.932004
0.933784
0.934012
2.83769
2.79929
2.77741
2.76782
2.76018
2.74853
2.72979
2.70022
2.66243
2.63227
2.61881
2.61216
2.60615
2.5979
2.58972
2.58064
2.56903
2.54714
2.49723
2.4422
2.42531
2.41779
2.41252
2.41208
2.4143
2.40936
2.40204
2.39154
2.36583
2.32394
2.29134
2.27954
2.27317
2.26891
2.2676
2.26537
2.26031
2.25305
2.23737
2.19927
2.13215
2.08828
2.077
2.07304
2.07058
2.07241
2.08315
2.09466
2.09615
2.09248
2.08765
2.07768
2.04924
1.99445
1.94828
1.93648
1.93339
1.93264
1.93717
1.93422
1.92968
1.9263
1.92094
1.91335
1.89857
1.86739
1.82062
1.79306
1.78792
1.78533
1.78415
1.78689
1.79574
1.80366
1.80407
1.80089
1.79684
1.7882
1.76621
1.73122
1.70123
1.68808
1.6835
1.68191
1.68466
1.69031
1.69293
1.69092
1.6867
1.67687
1.65618
1.62504
1.59057
1.57021
1.56117
1.559
1.55871
1.56421
1.57752
1.58647
1.5846
1.58008
1.57352
1.55979
1.53387
1.49462
1.46881
1.46243
1.4622
1.46759
1.48588
1.5024
1.50257
1.49883
1.49469
1.48921
1.47802
1.45403
1.4201
1.40334
1.40194
1.40239
1.41028
1.42065
1.42016
1.41643
1.41199
1.40501
1.38967
1.36213
1.33556
1.32868
1.32788
1.32972
1.341
1.35523
1.35906
1.35779
1.35416
1.34316
1.32002
1.29779
1.29347
1.29237
1.29395
1.30177
1.30375
1.30097
1.29671
1.28702
1.26537
1.23962
1.23115
1.23039
1.23164
1.24214
1.25647
1.25798
1.25479
1.25034
1.24243
1.22575
1.1981
1.17764
1.17454
1.17451
1.17915
1.19547
1.21751
1.22558
1.22459
1.22041
1.20696
1.1756
1.14415
1.13693
1.1361
1.13656
1.14579
1.16789
1.18062
1.18009
1.17728
1.16993
1.15049
1.12025
1.1058
1.10442
1.10399
1.10803
1.11883
1.12211
1.1202
1.11728
1.11222
1.09982
1.07908
1.06595
1.06468
1.06489
1.07016
1.08502
1.09911
1.10083
1.09918
1.0954
1.08471
1.06335
1.04609
1.04345
1.04289
1.04396
1.0511
1.05778
1.05753
1.05561
1.05132
1.03945
1.02108
1.01296
1.01194
1.01132
1.01265
1.02078
1.02775
1.02738
1.02565
1.02276
1.01553
1.0003
0.984874
0.981046
0.980775
0.982121
0.989921
0.999898
1.00161
1.00029
0.996646
0.98687
0.973057
0.968727
0.967832
0.96716
0.967576
0.970047
0.970092
0.969097
0.967855
0.964458
0.954657
0.944395
0.942475
0.941819
0.941409
0.942522
0.943773
0.942876
2.83948
2.81446
2.80446
2.79624
2.78774
2.77378
2.74933
2.70992
2.67474
2.65484
2.64522
2.63909
2.63372
2.62587
2.61746
2.60767
2.59251
2.55459
2.49403
2.4622
2.45409
2.44681
2.44299
2.44409
2.44285
2.43655
2.42755
2.40786
2.36839
2.33023
2.31303
2.30562
2.3001
2.29772
2.2963
2.29184
2.2851
2.27213
2.23895
2.17461
2.12239
2.10737
2.1034
2.10087
2.10304
2.1146
2.12621
2.12634
2.12245
2.11791
2.1099
2.08684
2.03624
1.98175
1.96406
1.96082
1.95934
1.96419
1.9643
1.9583
1.95396
1.94863
1.94138
1.92878
1.90112
1.85488
1.82015
1.81239
1.81001
1.80867
1.81157
1.82193
1.83058
1.82979
1.82602
1.82161
1.81329
1.79208
1.75536
1.72239
1.70939
1.70635
1.70652
1.71268
1.72061
1.72218
1.71909
1.71422
1.70287
1.67955
1.64341
1.60838
1.59105
1.58455
1.58286
1.58362
1.59122
1.60479
1.6119
1.60953
1.60464
1.59651
1.58035
1.55258
1.51332
1.48828
1.48147
1.48124
1.48607
1.50304
1.52124
1.52315
1.51951
1.51526
1.50995
1.50023
1.47921
1.44557
1.42325
1.42042
1.42015
1.42598
1.43719
1.43827
1.43458
1.43028
1.42424
1.41126
1.38637
1.35761
1.34689
1.3458
1.34633
1.35441
1.36717
1.37151
1.37044
1.36784
1.36086
1.34268
1.31844
1.30958
1.30844
1.3087
1.31509
1.31919
1.31688
1.31301
1.30542
1.28698
1.26
1.2471
1.24603
1.24639
1.25421
1.26906
1.27265
1.2697
1.26554
1.25895
1.24474
1.21926
1.19501
1.18874
1.18851
1.19094
1.20319
1.22417
1.23594
1.23601
1.23347
1.22438
1.2001
1.16483
1.15039
1.14921
1.14892
1.15446
1.17403
1.19229
1.194
1.19182
1.18655
1.17127
1.14178
1.12093
1.1181
1.11738
1.11942
1.12912
1.13466
1.13304
1.12999
1.12541
1.11474
1.09512
1.0785
1.07538
1.07527
1.07852
1.091
1.10714
1.1116
1.11033
1.10731
1.09944
1.08115
1.05949
1.05299
1.0524
1.05264
1.05805
1.06759
1.06971
1.06832
1.06522
1.05653
1.03833
1.02456
1.02261
1.02183
1.02211
1.02834
1.0382
1.03953
1.03789
1.0352
1.02914
1.01529
0.997242
0.989836
0.989341
0.989668
0.994818
1.00572
1.0108
1.01022
1.00799
1.00181
0.988128
0.978174
0.976614
0.97582
0.975569
0.977924
0.980196
0.979588
0.978388
0.975992
0.968491
0.956581
0.952563
0.951858
0.951243
0.951497
0.953515
0.953143
0.95175
2.85518
2.84368
2.83491
2.82669
2.81533
2.79651
2.75846
2.71646
2.69311
2.68132
2.67288
2.66755
2.66243
2.65494
2.64661
2.63547
2.60879
2.55189
2.50249
2.49057
2.48273
2.47657
2.47447
2.47465
2.47027
2.46286
2.44834
2.41308
2.37032
2.34715
2.33856
2.33225
2.3284
2.32671
2.32269
2.31647
2.30602
2.2783
2.21918
2.15896
2.13893
2.13461
2.13206
2.13501
2.14603
2.15709
2.15657
2.15209
2.14774
2.14106
2.12295
2.07848
2.01737
1.99156
1.98773
1.9859
1.99024
1.99368
1.98773
1.98236
1.97685
1.9698
1.95893
1.93553
1.8927
1.85138
1.83918
1.8369
1.8353
1.83781
1.84811
1.85601
1.85435
1.8502
1.84548
1.83764
1.8178
1.78119
1.74531
1.73128
1.72897
1.73018
1.73897
1.74844
1.74893
1.74529
1.74006
1.72806
1.70316
1.66287
1.62738
1.61229
1.60797
1.6068
1.60945
1.62007
1.6341
1.63884
1.63572
1.63036
1.62041
1.60137
1.57042
1.53077
1.50799
1.50147
1.50115
1.50559
1.52158
1.54049
1.54377
1.54032
1.53605
1.53084
1.52219
1.50351
1.47151
1.44463
1.43891
1.43817
1.44162
1.45294
1.45679
1.45355
1.44907
1.44352
1.43249
1.4102
1.3808
1.36637
1.36471
1.36441
1.36972
1.38036
1.38436
1.38321
1.38117
1.37674
1.3639
1.34091
1.32629
1.32465
1.32418
1.3286
1.3344
1.33285
1.32928
1.3232
1.30771
1.28136
1.26368
1.26168
1.26145
1.2669
1.28117
1.28735
1.28484
1.28075
1.27509
1.26328
1.2407
1.21418
1.20402
1.20346
1.20442
1.21301
1.23141
1.24526
1.24672
1.24499
1.23908
1.22156
1.18761
1.165
1.16221
1.16151
1.16439
1.1802
1.20215
1.20756
1.20591
1.20203
1.19068
1.16462
1.13797
1.13176
1.13095
1.13157
1.13941
1.14737
1.14644
1.14342
1.13912
1.12985
1.11162
1.09231
1.08663
1.08638
1.08811
1.09788
1.11449
1.12206
1.1213
1.11879
1.11298
1.09826
1.07511
1.06302
1.06201
1.06179
1.06517
1.07538
1.08127
1.08061
1.07831
1.07231
1.05667
1.03821
1.03322
1.03235
1.03199
1.03583
1.04692
1.05169
1.05046
1.04785
1.04285
1.03068
1.01146
0.999845
0.998674
0.998478
1.00123
1.0108
1.01907
1.01956
1.01815
1.01432
1.00372
0.989653
0.985282
0.984413
0.983849
0.985031
0.989053
0.989698
0.988719
0.987008
0.981908
0.970245
0.962886
0.961911
0.961232
0.960944
0.962791
0.963851
0.962512
0.960639
2.88591
2.87547
2.86675
2.85646
2.8399
2.80767
2.76069
2.73104
2.72007
2.71041
2.70292
2.69857
2.6931
2.68563
2.67667
2.65819
2.61031
2.54957
2.52699
2.519
2.51179
2.50735
2.50597
2.50318
2.49708
2.4867
2.45844
2.41234
2.38161
2.37191
2.36536
2.3605
2.35803
2.35369
2.34758
2.33873
2.31646
2.26529
2.19871
2.17123
2.1661
2.16322
2.16673
2.17857
2.18717
2.18697
2.18241
2.17799
2.17198
2.15776
2.12005
2.0561
2.01936
2.01356
2.01127
2.01498
2.02198
2.01739
2.0113
2.00568
1.99888
1.98931
1.97049
1.93279
1.88707
1.86822
1.8655
1.86357
1.86534
1.87496
1.88104
1.8785
1.87426
1.86943
1.86212
1.84415
1.8089
1.77013
1.75401
1.75182
1.7533
1.76331
1.77325
1.77299
1.76918
1.76393
1.75224
1.72692
1.68383
1.64769
1.63407
1.63114
1.63075
1.63607
1.65012
1.66479
1.66746
1.66354
1.65737
1.64507
1.62261
1.58728
1.54757
1.52764
1.52196
1.52153
1.526
1.54167
1.56035
1.56447
1.56126
1.55715
1.55215
1.54407
1.52705
1.49704
1.46674
1.45745
1.45655
1.45817
1.46794
1.47479
1.47283
1.46873
1.46336
1.45339
1.43328
1.40433
1.38672
1.38433
1.38355
1.3866
1.3946
1.39804
1.3968
1.395
1.39193
1.38346
1.36372
1.34455
1.34113
1.34026
1.34271
1.34924
1.3489
1.34563
1.34039
1.32761
1.30309
1.28139
1.2773
1.27684
1.28022
1.29293
1.30186
1.30021
1.29624
1.29108
1.2812
1.26171
1.2349
1.22074
1.21945
1.21941
1.22481
1.24013
1.25425
1.25681
1.25553
1.25177
1.23951
1.21105
1.1821
1.17502
1.17425
1.17541
1.18716
1.21007
1.22055
1.21965
1.21665
1.20847
1.18718
1.15714
1.14547
1.1445
1.1444
1.14976
1.15961
1.16029
1.15747
1.15332
1.14513
1.12853
1.1075
1.09871
1.09821
1.09896
1.10612
1.12176
1.1321
1.13207
1.12994
1.12541
1.11399
1.09229
1.07463
1.0718
1.07138
1.07307
1.08197
1.0916
1.09246
1.09085
1.08678
1.07461
1.05437
1.04397
1.0428
1.04215
1.04387
1.05384
1.06304
1.06289
1.06071
1.05658
1.04651
1.02751
1.01149
1.00864
1.00829
1.00934
1.01635
1.02624
1.02864
1.02766
1.02514
1.01813
1.00397
0.994406
0.992989
0.992275
0.992472
0.996369
0.999395
0.998843
0.997491
0.994249
0.984865
0.974018
0.971809
0.971125
0.97061
0.971634
0.974297
0.973692
0.97178
0.969119
2.91794
2.90761
2.89803
2.88252
2.85339
2.80731
2.76919
2.75846
2.75031
2.74207
2.73617
2.73196
2.72574
2.7177
2.70395
2.66537
2.60053
2.56332
2.55472
2.54698
2.54146
2.53847
2.53563
2.53026
2.52206
2.50198
2.45775
2.41697
2.40491
2.39877
2.39367
2.39062
2.38589
2.37921
2.37102
2.35332
2.31065
2.24192
2.2049
2.19797
2.19443
2.19681
2.2109
2.21864
2.21773
2.21379
2.20938
2.20365
2.19207
2.15994
2.09717
2.0492
2.03888
2.03595
2.03738
2.04777
2.0471
2.04089
2.03527
2.02869
2.02012
2.00549
1.97374
1.9268
1.89981
1.89573
1.89321
1.89345
1.90171
1.90647
1.90291
1.89863
1.89386
1.88705
1.87135
1.83853
1.79734
1.77799
1.77546
1.77657
1.78635
1.79583
1.7949
1.79108
1.78617
1.77545
1.75092
1.70668
1.66917
1.65596
1.65379
1.65449
1.6629
1.68065
1.6958
1.69709
1.69272
1.68554
1.67047
1.64408
1.60352
1.56427
1.54704
1.54247
1.54204
1.54697
1.5629
1.58144
1.5858
1.58275
1.57884
1.57407
1.56617
1.55003
1.52183
1.48944
1.47634
1.47504
1.47546
1.48325
1.49224
1.49178
1.48867
1.48406
1.47491
1.45586
1.42736
1.40751
1.40424
1.40332
1.40497
1.41013
1.41257
1.41141
1.40976
1.40748
1.40196
1.38618
1.36479
1.35761
1.35662
1.35755
1.36363
1.36488
1.3619
1.35732
1.34698
1.32514
1.30066
1.29301
1.29249
1.2943
1.30472
1.31579
1.31551
1.31196
1.30711
1.29882
1.28197
1.25639
1.23885
1.23643
1.23582
1.23864
1.25068
1.26386
1.26683
1.26565
1.26294
1.25462
1.23295
1.20144
1.18803
1.18698
1.1872
1.19532
1.21704
1.23257
1.23293
1.23054
1.22461
1.20804
1.17809
1.15996
1.15805
1.15748
1.16068
1.17085
1.17422
1.17184
1.16789
1.16091
1.14593
1.12408
1.1118
1.11074
1.11084
1.11572
1.12951
1.14188
1.14297
1.14106
1.13737
1.12856
1.10978
1.08835
1.0818
1.08133
1.08189
1.08849
1.10021
1.10398
1.10294
1.10006
1.0914
1.07238
1.0559
1.05323
1.05242
1.05279
1.06006
1.07251
1.07506
1.07339
1.07008
1.06221
1.0449
1.02521
1.01923
1.01876
1.01886
1.02315
1.03275
1.0374
1.03684
1.03504
1.0306
1.01909
1.00539
1.00171
1.00092
1.00055
1.00305
1.00819
1.00881
1.00778
1.00567
0.999236
0.98696
0.981601
0.980852
0.98026
0.980533
0.983818
0.984751
0.983177
0.980678
0.976172
2.95037
2.94078
2.92564
2.89792
2.85342
2.80968
2.79524
2.79
2.78402
2.77733
2.77203
2.76616
2.75886
2.74707
2.71547
2.65438
2.60302
2.59001
2.5821
2.57556
2.57177
2.56835
2.56326
2.55607
2.54202
2.50514
2.45645
2.43689
2.43141
2.42687
2.42381
2.41903
2.41192
2.40366
2.3891
2.35407
2.2882
2.24062
2.23023
2.22624
2.22664
2.24105
2.25182
2.24996
2.24643
2.24229
2.23672
2.22664
2.19816
2.13922
2.08108
2.06416
2.0612
2.06029
2.06889
2.07587
2.07095
2.06542
2.05928
2.05156
2.03981
2.01454
1.96962
1.93368
1.92717
1.92405
1.92269
1.92777
1.93219
1.92803
1.92353
1.91873
1.91225
1.89895
1.86955
1.82721
1.80371
1.80036
1.80069
1.80914
1.81753
1.816
1.81215
1.80752
1.79826
1.77545
1.73182
1.69194
1.67784
1.67601
1.67757
1.68899
1.71059
1.7263
1.72676
1.72221
1.71416
1.69659
1.66608
1.61984
1.58129
1.5662
1.56269
1.56245
1.5682
1.58496
1.60385
1.60839
1.60548
1.6017
1.59681
1.58811
1.57184
1.54529
1.51232
1.49599
1.49399
1.4936
1.49918
1.5095
1.51092
1.50846
1.50482
1.49669
1.47853
1.45031
1.42862
1.42419
1.42322
1.42418
1.42736
1.42823
1.42713
1.42565
1.42374
1.41983
1.40759
1.38628
1.37446
1.37318
1.3732
1.3779
1.38052
1.37799
1.37388
1.3656
1.34673
1.32093
1.30916
1.30832
1.30907
1.31705
1.32912
1.33074
1.32773
1.32334
1.31631
1.30179
1.27801
1.25799
1.25399
1.25316
1.25438
1.26336
1.2747
1.27731
1.27606
1.2739
1.26841
1.25239
1.22243
1.20219
1.19978
1.19942
1.20471
1.22376
1.24329
1.24593
1.24388
1.23942
1.22666
1.19972
1.17585
1.17134
1.17067
1.17217
1.18128
1.18785
1.18629
1.18267
1.17672
1.16363
1.14196
1.12609
1.12385
1.12363
1.12656
1.138
1.15145
1.15402
1.1523
1.14906
1.14216
1.12676
1.10414
1.09249
1.09158
1.09154
1.09583
1.10748
1.1149
1.11463
1.11262
1.10665
1.09083
1.07042
1.06367
1.06279
1.06244
1.06673
1.07981
1.08677
1.08582
1.08319
1.0775
1.06282
1.04106
1.03069
1.02984
1.02952
1.03151
1.03939
1.04576
1.04578
1.04439
1.04147
1.03344
1.01903
1.0109
1.00981
1.00921
1.01023
1.01573
1.01865
1.01799
1.01644
1.0124
1.00157
0.991907
0.990392
0.989785
0.989588
0.992247
0.995468
0.994578
0.992268
0.98853
0.980159
2.98584
2.97068
2.94272
2.89933
2.85284
2.83146
2.82673
2.82563
2.82147
2.8149
2.80802
2.80017
2.78898
2.76103
2.70525
2.64555
2.62492
2.61763
2.61077
2.60581
2.60196
2.59676
2.58975
2.57869
2.54973
2.50018
2.46945
2.46331
2.45931
2.45663
2.45226
2.44523
2.43683
2.42442
2.39544
2.33635
2.27939
2.26279
2.25883
2.25749
2.26946
2.28535
2.28436
2.28045
2.27673
2.27114
2.26157