/*--------------------------------*- C++ -*----------------------------------*\
  =========                 |
  \\      /  F ield         | OpenFOAM: The Open Source CFD Toolbox
   \\    /   O peration     | Website:  https://openfoam.org
    \\  /    A nd           | Version:  7
     \\/     M anipulation  |
\*---------------------------------------------------------------------------*/
FoamFile
{
    version     2.0;
    format      ascii;
    class       volScalarField;
    location    "4";
    object      T;
}
// * * * * * * * * * * * * * * * * * * * * * * * * * * * * * * * * * * * * * //

dimensions      [0 0 0 1 0 0 0];

internalField   nonuniform List<scalar> 
16512
(
2.79147
2.79245
2.79399
2.7951
2.79531
2.7946
2.79284
2.79064
2.78838
2.78625
2.78434
2.78243
2.78017
2.77763
2.7747
2.77131
2.76837
2.76647
2.7655
2.76629
2.76887
2.77288
2.77691
2.77913
2.77938
2.77853
2.77722
2.77591
2.77479
2.77396
2.77355
2.77324
2.77245
2.77049
2.76771
2.76441
2.76024
2.75529
2.75016
2.74539
2.74141
2.73826
2.73595
2.73508
2.73574
2.73774
2.74008
2.74137
2.74157
2.74118
2.74059
2.74012
2.73991
2.74027
2.74166
2.74384
2.74568
2.74541
2.74337
2.74027
2.73572
2.73051
2.72559
2.72158
2.71849
2.71614
2.7145
2.71348
2.71384
2.71615
2.7201
2.72419
2.72725
2.72957
2.73185
2.73443
2.73665
2.73802
2.73752
2.73538
2.73135
2.72406
2.71474
2.70628
2.70002
2.69669
2.69561
2.69545
2.69644
2.69861
2.70124
2.70399
2.70637
2.70787
2.70827
2.70815
2.70805
2.7087
2.71008
2.71155
2.71278
2.71359
2.71371
2.71288
2.71091
2.70712
2.70254
2.69918
2.6973
2.69647
2.6966
2.698
2.69999
2.7019
2.70279
2.70205
2.69961
2.69472
2.68628
2.67598
2.66753
2.6628
2.66077
2.6609
2.66383
2.66979
2.67612
2.68031
2.682
2.68205
2.68023
2.67702
2.67192
2.66455
2.65595
2.64835
2.64377
2.64131
2.63957
2.63919
2.63987
2.64173
2.64383
2.64528
2.64542
2.64244
2.63847
2.63485
2.63255
2.63212
2.63341
2.6351
2.6361
2.63604
2.63503
2.63326
2.63012
2.62424
2.61605
2.609
2.60488
2.60287
2.60192
2.60297
2.60644
2.61115
2.61404
2.61392
2.61167
2.60847
2.60433
2.6004
2.59798
2.59695
2.59684
2.59929
2.60472
2.61182
2.61865
2.6245
2.62921
2.63192
2.63147
2.62914
2.62203
2.6059
2.5845
2.56822
2.56077
2.55889
2.55866
2.56064
2.56653
2.57625
2.58764
2.59578
2.59811
2.59682
2.59355
2.58513
2.57336
2.56445
2.56063
2.55989
2.56107
2.5656
2.57306
2.58032
2.58384
2.58362
2.58145
2.57623
2.56797
2.56262
2.56081
2.56043
2.56227
2.56651
2.57068
2.57169
2.56941
2.56466
2.55352
2.53606
2.52161
2.51484
2.51264
2.51269
2.51565
2.52232
2.53119
2.54002
2.5451
2.54538
2.54249
2.53589
2.52431
2.50969
2.49769
2.49162
2.4893
2.48961
2.49415
2.5041
2.51704
2.5292
2.53562
2.53623
2.5342
2.52845
2.51543
2.49914
2.49121
2.49023
2.49114
2.4951
2.50201
2.50629
2.78999
2.79108
2.79272
2.79378
2.79387
2.79288
2.79107
2.78906
2.78705
2.78515
2.78331
2.78122
2.7789
2.77636
2.77367
2.77116
2.76889
2.76694
2.76577
2.76588
2.76761
2.77089
2.77436
2.77629
2.77648
2.77542
2.77374
2.77203
2.77048
2.76913
2.76808
2.76722
2.76602
2.76392
2.76115
2.758
2.7545
2.75083
2.74738
2.74451
2.742
2.73989
2.73835
2.73754
2.73766
2.73856
2.7397
2.74015
2.73977
2.73877
2.7376
2.73659
2.73597
2.73586
2.73658
2.73813
2.73948
2.73948
2.7383
2.73633
2.73389
2.73083
2.72708
2.72336
2.72035
2.71794
2.716
2.71474
2.71462
2.71633
2.71966
2.7231
2.72549
2.7269
2.72779
2.72841
2.72929
2.72977
2.72916
2.72667
2.72234
2.71813
2.71455
2.71052
2.70589
2.70148
2.69814
2.69662
2.69658
2.69736
2.69858
2.69979
2.70099
2.70246
2.70426
2.70576
2.70688
2.70788
2.70864
2.70901
2.70911
2.7089
2.70831
2.70734
2.70597
2.70455
2.70325
2.70155
2.69956
2.69794
2.69721
2.69719
2.69729
2.69695
2.69652
2.69525
2.69249
2.6875
2.68188
2.67744
2.6728
2.66796
2.66429
2.66285
2.66419
2.66798
2.67178
2.67381
2.67494
2.67551
2.67518
2.67305
2.66997
2.66603
2.6604
2.65368
2.64726
2.64259
2.6399
2.63858
2.63845
2.63904
2.63999
2.64078
2.64085
2.64064
2.6389
2.63594
2.63316
2.63153
2.63115
2.63143
2.63143
2.63102
2.63015
2.6284
2.6246
2.61872
2.61343
2.60951
2.60626
2.60361
2.60199
2.60192
2.60403
2.60722
2.6097
2.61081
2.61105
2.60992
2.60765
2.60425
2.60055
2.5981
2.59743
2.5989
2.60295
2.60831
2.61291
2.61618
2.61896
2.62137
2.62216
2.62004
2.6129
2.60093
2.58991
2.5804
2.57063
2.56342
2.5611
2.56203
2.56661
2.57387
2.58039
2.5854
2.58892
2.58918
2.5861
2.58178
2.5772
2.57198
2.56692
2.5638
2.56371
2.56672
2.57175
2.57559
2.57736
2.57713
2.57512
2.57067
2.56575
2.56214
2.55959
2.55851
2.55921
2.5611
2.56302
2.56388
2.56239
2.5572
2.54834
2.54
2.53232
2.52443
2.51893
2.51713
2.51876
2.524
2.53044
2.53396
2.53517
2.53516
2.53255
2.52625
2.51559
2.50597
2.50053
2.49705
2.49499
2.49507
2.49833
2.50606
2.51683
2.52509
2.5283
2.52882
2.52712
2.52144
2.51095
2.50233
2.49573
2.49127
2.49077
2.49326
2.49688
2.50026
2.78489
2.78581
2.78758
2.78878
2.78877
2.78738
2.78531
2.78331
2.78163
2.78016
2.7784
2.77615
2.77367
2.77082
2.76804
2.76602
2.7643
2.76312
2.76269
2.76299
2.76415
2.76621
2.76856
2.77027
2.77082
2.76989
2.76784
2.76559
2.76336
2.76131
2.75956
2.75814
2.75677
2.75494
2.75253
2.74979
2.74687
2.74385
2.7413
2.73919
2.73741
2.73626
2.73593
2.73613
2.73682
2.73763
2.7379
2.7375
2.73622
2.73451
2.7326
2.73075
2.72923
2.72832
2.72819
2.72879
2.72984
2.73018
2.7297
2.72849
2.72702
2.72519
2.72261
2.71947
2.71681
2.71499
2.71366
2.713
2.71336
2.7149
2.71717
2.71905
2.71969
2.71934
2.71841
2.7172
2.7157
2.71425
2.71291
2.71174
2.71091
2.70988
2.70885
2.70754
2.7058
2.70339
2.7005
2.69772
2.69538
2.69359
2.69235
2.69156
2.69156
2.69237
2.69391
2.69652
2.69982
2.70255
2.70419
2.70429
2.70309
2.70135
2.69953
2.69798
2.69719
2.69724
2.69768
2.69778
2.69772
2.6975
2.69665
2.6947
2.69195
2.68887
2.68552
2.68231
2.67922
2.67673
2.67529
2.6739
2.67214
2.66996
2.66747
2.66546
2.6644
2.66421
2.66441
2.66493
2.66494
2.66479
2.66478
2.66494
2.66442
2.66212
2.65938
2.65566
2.6506
2.64508
2.64036
2.63702
2.63456
2.63294
2.63224
2.63178
2.63184
2.63262
2.63359
2.63381
2.63266
2.63061
2.62801
2.6249
2.62244
2.62076
2.61912
2.61682
2.61377
2.61052
2.6079
2.60571
2.60336
2.60124
2.59962
2.59878
2.59884
2.59958
2.6006
2.60209
2.60436
2.6058
2.60613
2.60524
2.6033
2.60056
2.59834
2.59755
2.59837
2.60072
2.60359
2.60548
2.60619
2.60617
2.60493
2.60137
2.59618
2.59141
2.58781
2.58396
2.57798
2.571
2.56565
2.56387
2.56491
2.56722
2.56933
2.57091
2.57255
2.57445
2.57531
2.57477
2.57334
2.57183
2.56991
2.56779
2.5666
2.5668
2.56712
2.56695
2.56644
2.56507
2.56259
2.56063
2.55953
2.55823
2.55674
2.55537
2.55447
2.55361
2.55254
2.55054
2.54709
2.54354
2.54076
2.53832
2.53519
2.53071
2.52612
2.52316
2.52314
2.52511
2.52702
2.52665
2.52462
2.52158
2.51668
2.51005
2.50418
2.50048
2.49775
2.49571
2.49541
2.49718
2.50169
2.50873
2.51398
2.51593
2.51713
2.51699
2.51363
2.50738
2.50328
2.50083
2.49805
2.49392
2.48986
2.48873
2.48932
2.49077
2.77331
2.77381
2.77538
2.77682
2.77713
2.77617
2.77414
2.77203
2.77022
2.76865
2.76695
2.76501
2.76287
2.76042
2.75793
2.75581
2.75424
2.75339
2.7533
2.7537
2.75443
2.75532
2.75633
2.7573
2.75782
2.75718
2.75517
2.75281
2.75045
2.74815
2.74604
2.74432
2.74286
2.74127
2.73946
2.73743
2.7352
2.73285
2.73068
2.72871
2.72725
2.72664
2.7268
2.72742
2.72826
2.72863
2.72824
2.7268
2.72481
2.72267
2.72047
2.71838
2.71665
2.71551
2.71506
2.71519
2.71577
2.71623
2.71608
2.7153
2.71431
2.71315
2.71146
2.70901
2.70684
2.70553
2.70471
2.70466
2.70568
2.70753
2.70932
2.70989
2.70884
2.70667
2.70414
2.70131
2.69843
2.6959
2.69443
2.69425
2.69514
2.69622
2.69687
2.69733
2.69733
2.69655
2.69488
2.69238
2.68934
2.6864
2.68388
2.68187
2.68043
2.67971
2.68008
2.68212
2.68494
2.68799
2.69058
2.69176
2.6911
2.68954
2.68759
2.68596
2.68511
2.68517
2.68604
2.68734
2.68861
2.68901
2.68827
2.68642
2.68308
2.67839
2.67304
2.66809
2.66478
2.66356
2.66356
2.66432
2.66504
2.66525
2.66524
2.66493
2.66342
2.66055
2.65713
2.65412
2.65205
2.65136
2.6514
2.65193
2.6525
2.65278
2.65248
2.65059
2.64791
2.64423
2.63933
2.63364
2.62827
2.62402
2.62059
2.61811
2.61758
2.6185
2.62154
2.62499
2.62655
2.62553
2.62241
2.61817
2.61257
2.60689
2.60256
2.59943
2.59749
2.59688
2.59683
2.59655
2.59599
2.59524
2.59437
2.5931
2.59107
2.58896
2.58778
2.58796
2.58975
2.59278
2.59572
2.59749
2.59822
2.59807
2.59743
2.59616
2.59377
2.59084
2.58918
2.58873
2.58806
2.58545
2.58173
2.57872
2.57734
2.57831
2.5794
2.5787
2.57726
2.57461
2.57031
2.56497
2.55992
2.55639
2.55394
2.55303
2.55381
2.55623
2.5606
2.56464
2.56713
2.56876
2.56993
2.56979
2.56728
2.56206
2.55593
2.55158
2.54858
2.54688
2.54656
2.54757
2.54915
2.54988
2.54977
2.54855
2.54621
2.54267
2.53736
2.53237
2.52944
2.52856
2.52997
2.53182
2.53211
2.53193
2.53147
2.52986
2.52672
2.52265
2.5186
2.51449
2.50898
2.50198
2.49664
2.49457
2.49431
2.49447
2.49448
2.49483
2.49629
2.49958
2.50402
2.50609
2.50452
2.50121
2.49803
2.49465
2.49281
2.49378
2.49544
2.49681
2.4971
2.49569
2.49123
2.48408
2.47873
2.47744
2.75634
2.75631
2.75702
2.75794
2.75817
2.7576
2.75602
2.75424
2.75243
2.75056
2.74856
2.74657
2.74461
2.74272
2.74099
2.7395
2.73851
2.73809
2.73808
2.73815
2.73806
2.73781
2.73775
2.738
2.73827
2.73773
2.7358
2.73351
2.73133
2.72935
2.72757
2.72604
2.72453
2.72292
2.72134
2.71981
2.7182
2.71652
2.71485
2.71331
2.71214
2.71168
2.71167
2.71194
2.71233
2.71224
2.71125
2.70923
2.70686
2.70438
2.70191
2.69956
2.69757
2.69618
2.69555
2.69558
2.69615
2.69688
2.69716
2.69696
2.69636
2.69555
2.69425
2.69237
2.69079
2.68985
2.68935
2.68956
2.69093
2.69293
2.69426
2.69364
2.69145
2.68838
2.68458
2.68078
2.67769
2.67574
2.67502
2.67563
2.67726
2.67884
2.67977
2.6801
2.68016
2.67977
2.67859
2.67634
2.67337
2.67031
2.66776
2.66619
2.66532
2.66501
2.6652
2.66574
2.66638
2.66736
2.66886
2.67038
2.67105
2.67089
2.6704
2.66991
2.66972
2.66977
2.67016
2.67085
2.67124
2.67109
2.6703
2.66837
2.66518
2.6612
2.65707
2.65344
2.65102
2.64963
2.64899
2.64914
2.6502
2.65197
2.65388
2.65489
2.65438
2.65218
2.64907
2.64512
2.64126
2.63853
2.63683
2.63646
2.63678
2.63747
2.63804
2.63826
2.63775
2.63545
2.63174
2.62619
2.61946
2.61295
2.60773
2.60394
2.60168
2.60212
2.60517
2.61
2.61358
2.61398
2.61134
2.60763
2.60197
2.59386
2.58553
2.58052
2.57886
2.57854
2.57944
2.58121
2.58311
2.58447
2.58453
2.58325
2.58026
2.5764
2.57356
2.572
2.57143
2.57287
2.57602
2.57982
2.58368
2.5873
2.58993
2.59019
2.58803
2.58318
2.57619
2.57009
2.56574
2.56165
2.55748
2.55494
2.55554
2.5591
2.56351
2.56697
2.56888
2.56901
2.56747
2.56278
2.55473
2.54659
2.54092
2.53782
2.53674
2.53861
2.544
2.55167
2.55866
2.5636
2.56607
2.56556
2.56228
2.55439
2.54313
2.53421
2.52975
2.52791
2.52811
2.53112
2.53558
2.53869
2.53922
2.53808
2.53498
2.529
2.52154
2.51562
2.51294
2.51257
2.51477
2.51947
2.52463
2.52879
2.53106
2.53045
2.52635
2.51864
2.50889
2.49909
2.48966
2.48373
2.48126
2.48117
2.48361
2.4876
2.49115
2.49456
2.49806
2.50007
2.49922
2.49578
2.48919
2.48119
2.47377
2.47126
2.47283
2.47772
2.48467
2.49069
2.49385
2.494
2.49139
2.48393
2.47218
2.46181
2.73477
2.73467
2.73501
2.73555
2.73565
2.73495
2.73309
2.73121
2.72923
2.72709
2.72502
2.72322
2.72163
2.72017
2.71888
2.71789
2.7173
2.71705
2.71686
2.71639
2.71556
2.7147
2.71424
2.71432
2.71452
2.71427
2.71274
2.71075
2.70879
2.70701
2.7054
2.70386
2.70229
2.70075
2.6993
2.69791
2.69649
2.69502
2.69355
2.69222
2.69116
2.69062
2.69042
2.6904
2.69039
2.68999
2.68893
2.68736
2.6856
2.68369
2.68164
2.67954
2.67754
2.67585
2.67473
2.67424
2.67415
2.67409
2.67402
2.67385
2.67333
2.67258
2.6715
2.67024
2.66945
2.66907
2.66904
2.6698
2.67149
2.67316
2.67348
2.6721
2.66956
2.66598
2.66184
2.65804
2.65529
2.6535
2.65324
2.65434
2.65616
2.65779
2.6588
2.65888
2.65843
2.65759
2.65615
2.654
2.65152
2.64905
2.64684
2.64536
2.64478
2.64478
2.64494
2.64482
2.64429
2.64381
2.6439
2.64517
2.64693
2.64819
2.64881
2.64916
2.64951
2.64965
2.64953
2.64905
2.64838
2.64719
2.64516
2.64234
2.63929
2.63649
2.63424
2.6327
2.63168
2.63095
2.63051
2.63042
2.63112
2.63279
2.63488
2.63653
2.63708
2.63634
2.63436
2.63151
2.62775
2.62362
2.62063
2.619
2.61815
2.61819
2.61878
2.6197
2.62015
2.61922
2.61648
2.6123
2.60638
2.59955
2.5936
2.58941
2.58631
2.58567
2.58714
2.59095
2.59486
2.59653
2.59525
2.59188
2.58707
2.58025
2.57212
2.56522
2.56199
2.5611
2.56158
2.56386
2.56707
2.56966
2.57003
2.56887
2.56583
2.56094
2.55644
2.55379
2.55237
2.55188
2.55372
2.55813
2.56419
2.57072
2.57577
2.57724
2.57593
2.57277
2.56607
2.55585
2.54528
2.53731
2.53292
2.53206
2.53359
2.53806
2.54431
2.55032
2.5543
2.55563
2.55516
2.55214
2.54475
2.53565
2.52932
2.52619
2.52438
2.52449
2.52907
2.53785
2.54738
2.55372
2.55523
2.55382
2.55022
2.54201
2.52954
2.51813
2.51258
2.51103
2.51115
2.51477
2.52105
2.52585
2.52692
2.52557
2.52063
2.51233
2.50519
2.50137
2.49955
2.49895
2.50144
2.5077
2.51598
2.52275
2.52528
2.52408
2.51972
2.51026
2.49594
2.4824
2.47477
2.47133
2.46984
2.47065
2.4749
2.4824
2.4903
2.49634
2.49856
2.4961
2.48933
2.47915
2.46736
2.45594
2.45158
2.45091
2.45312
2.46061
2.4722
2.48178
2.48619
2.48694
2.48594
2.48119
2.46988
2.45155
2.71163
2.71159
2.71197
2.71254
2.71258
2.7115
2.70949
2.70745
2.70508
2.70265
2.70065
2.69915
2.69796
2.69709
2.69652
2.69597
2.69542
2.69479
2.69383
2.69251
2.69113
2.69007
2.68965
2.68991
2.69049
2.69082
2.69013
2.68857
2.68695
2.6854
2.68392
2.68245
2.681
2.67964
2.67834
2.67697
2.67546
2.67387
2.67227
2.67079
2.66957
2.66872
2.6683
2.66803
2.66767
2.66704
2.66613
2.66516
2.66427
2.66336
2.66221
2.66077
2.65917
2.6575
2.65591
2.65464
2.65363
2.65264
2.65171
2.65095
2.65019
2.64935
2.64849
2.64789
2.64764
2.64767
2.64809
2.64917
2.65051
2.65092
2.65009
2.64832
2.64587
2.64304
2.64034
2.6381
2.63627
2.6352
2.63511
2.63545
2.63592
2.63629
2.63659
2.63635
2.63542
2.63409
2.6324
2.63056
2.62898
2.62773
2.62661
2.62554
2.62458
2.62379
2.62296
2.62188
2.62062
2.61967
2.61952
2.62112
2.62422
2.6269
2.6281
2.62832
2.62826
2.62778
2.62692
2.62564
2.62362
2.62065
2.61724
2.61427
2.61224
2.61117
2.61067
2.6103
2.60992
2.60957
2.60936
2.60937
2.60982
2.61102
2.61277
2.61498
2.61699
2.61776
2.6171
2.61542
2.61261
2.60828
2.60322
2.59957
2.59777
2.59666
2.59638
2.59649
2.5967
2.59663
2.59531
2.59258
2.58872
2.58382
2.57849
2.57406
2.57113
2.57013
2.57042
2.57188
2.57383
2.57522
2.57535
2.57312
2.56972
2.56554
2.56039
2.55422
2.5485
2.54616
2.54627
2.54813
2.55084
2.55286
2.55314
2.55202
2.54935
2.54506
2.54017
2.53603
2.53374
2.53282
2.53379
2.53816
2.54499
2.55226
2.5578
2.56055
2.56061
2.5592
2.55452
2.54438
2.53071
2.51964
2.51509
2.51421
2.51474
2.51845
2.52488
2.53165
2.53597
2.53701
2.53658
2.53452
2.529
2.52135
2.51523
2.5125
2.51148
2.51223
2.51652
2.52435
2.53263
2.53764
2.53859
2.53675
2.53271
2.52569
2.51613
2.50615
2.49937
2.49753
2.49824
2.50209
2.50723
2.50956
2.50917
2.50684
2.50189
2.49494
2.49
2.48776
2.48653
2.48682
2.49065
2.49843
2.50767
2.51363
2.51463
2.51304
2.50864
2.49738
2.48011
2.46671
2.46094
2.45864
2.4576
2.45929
2.4658
2.47693
2.48843
2.49409
2.49349
2.48898
2.47821
2.46013
2.44333
2.43617
2.4336
2.43314
2.4359
2.44523
2.45969
2.47162
2.47704
2.47829
2.47771
2.47431
2.46537
2.44795
2.69103
2.69162
2.69248
2.6929
2.69232
2.69027
2.68789
2.6852
2.68248
2.68022
2.6787
2.67766
2.67714
2.67709
2.67689
2.67603
2.67474
2.6732
2.67152
2.66994
2.66865
2.6679
2.66799
2.66882
2.6701
2.67113
2.67105
2.66982
2.66837
2.6669
2.66552
2.6642
2.66294
2.66175
2.66057
2.65925
2.6578
2.65627
2.6547
2.65313
2.65166
2.6504
2.64948
2.64883
2.64821
2.64748
2.64683
2.64646
2.64635
2.64636
2.64618
2.64546
2.64429
2.64287
2.64109
2.63895
2.63689
2.63511
2.63347
2.63217
2.63124
2.63049
2.62994
2.62958
2.62945
2.62949
2.62974
2.63014
2.63017
2.62935
2.62782
2.62595
2.62422
2.62302
2.62225
2.62174
2.62156
2.62154
2.62127
2.6204
2.61929
2.61824
2.61744
2.6168
2.61591
2.61475
2.6135
2.61214
2.61093
2.60991
2.60887
2.60749
2.60565
2.60372
2.60219
2.60094
2.59994
2.59934
2.59975
2.60203
2.60575
2.60896
2.60992
2.60954
2.60883
2.60773
2.60612
2.60349
2.59945
2.5949
2.59142
2.58962
2.58909
2.5891
2.5895
2.58977
2.58978
2.58968
2.58956
2.58953
2.58972
2.59043
2.59194
2.59448
2.59774
2.59997
2.59998
2.59882
2.59689
2.59344
2.58817
2.58256
2.57875
2.57681
2.57535
2.57422
2.57351
2.57335
2.57325
2.57247
2.57054
2.56813
2.56512
2.56155
2.55838
2.55618
2.55465
2.55374
2.55333
2.55359
2.55465
2.55531
2.55445
2.55259
2.55049
2.54741
2.54298
2.53825
2.53625
2.53638
2.53649
2.53605
2.53541
2.53467
2.53315
2.53071
2.52741
2.52359
2.52044
2.51915
2.51977
2.5237
2.52991
2.53644
2.54157
2.54477
2.54553
2.54409
2.53988
2.53123
2.52004
2.51031
2.50427
2.50192
2.50169
2.50401
2.50877
2.51401
2.51765
2.51869
2.51786
2.51548
2.51133
2.5065
2.50233
2.49992
2.49942
2.50116
2.50557
2.51065
2.51375
2.51517
2.51607
2.51523
2.5122
2.50799
2.50339
2.49852
2.49347
2.48984
2.48942
2.49048
2.49053
2.48941
2.48711
2.48414
2.48102
2.47867
2.47711
2.47596
2.47553
2.4773
2.48297
2.49169
2.49955
2.50289
2.50267
2.50042
2.49427
2.48162
2.46513
2.45348
2.44885
2.44713
2.447
2.45039
2.45994
2.47422
2.48417
2.48569
2.48315
2.47779
2.46646
2.44867
2.43328
2.42544
2.42253
2.42184
2.42463
2.43348
2.44602
2.45683
2.46241
2.46377
2.46278
2.45953
2.45354
2.44326
2.67581
2.67718
2.67796
2.67755
2.67555
2.67298
2.67
2.66718
2.66501
2.6636
2.66258
2.6619
2.66174
2.66163
2.66079
2.65947
2.6579
2.65624
2.65491
2.65379
2.65293
2.65257
2.65292
2.65393
2.65536
2.65654
2.65666
2.6556
2.65424
2.65294
2.65179
2.65075
2.64976
2.64874
2.64767
2.64657
2.64541
2.64412
2.64261
2.64084
2.63886
2.63699
2.63561
2.63483
2.63431
2.63379
2.63337
2.63328
2.63361
2.63445
2.63522
2.63528
2.63444
2.63289
2.63071
2.62765
2.62416
2.62146
2.61953
2.61811
2.61717
2.61666
2.61635
2.61606
2.61576
2.61547
2.61515
2.61465
2.61371
2.61242
2.61098
2.60975
2.60896
2.60873
2.60914
2.61003
2.61101
2.61145
2.61064
2.60885
2.60664
2.60477
2.6034
2.60245
2.60189
2.60141
2.60063
2.59955
2.59823
2.59667
2.59494
2.59286
2.59033
2.58792
2.58657
2.5857
2.58501
2.58477
2.58556
2.58788
2.59141
2.5945
2.59557
2.59513
2.59414
2.59251
2.58953
2.58466
2.57912
2.57509
2.57317
2.5724
2.572
2.57199
2.57222
2.57245
2.57252
2.57261
2.57288
2.57331
2.57401
2.57506
2.57659
2.57881
2.58155
2.58368
2.58379
2.58279
2.58129
2.579
2.57538
2.57025
2.5647
2.56051
2.55781
2.55565
2.55395
2.55303
2.55312
2.55386
2.55472
2.55504
2.55473
2.55321
2.55023
2.54578
2.54138
2.53823
2.53599
2.53531
2.53656
2.53906
2.54128
2.54251
2.54309
2.54307
2.54185
2.53816
2.53182
2.52611
2.52278
2.52011
2.51818
2.51739
2.51758
2.51763
2.51675
2.51554
2.51431
2.51342
2.51392
2.51621
2.51982
2.52316
2.52579
2.52705
2.5269
2.52547
2.52183
2.5161
2.51036
2.50527
2.50039
2.49677
2.49542
2.49619
2.49861
2.50096
2.50211
2.50219
2.5012
2.49901
2.49618
2.4939
2.49248
2.49144
2.49135
2.49287
2.49446
2.49427
2.49332
2.49315
2.4933
2.49398
2.49399
2.49343
2.49335
2.49357
2.493
2.4897
2.48379
2.47754
2.47194
2.4675
2.46363
2.46157
2.46177
2.46337
2.4645
2.46501
2.46685
2.47127
2.47887
2.48719
2.49164
2.49187
2.4899
2.4855
2.47784
2.46627
2.45427
2.44554
2.4407
2.43893
2.43977
2.44532
2.45678
2.46755
2.47035
2.46999
2.46759
2.46227
2.45227
2.44023
2.43059
2.42321
2.41867
2.41769
2.42011
2.42628
2.43171
2.43446
2.43806
2.44169
2.44287
2.44146
2.43884
2.43607
2.666
2.66768
2.66787
2.6663
2.6639
2.66085
2.65774
2.65523
2.65358
2.65247
2.65163
2.65125
2.65131
2.65119
2.6504
2.64917
2.64763
2.64596
2.6445
2.64329
2.64238
2.64187
2.64203
2.64302
2.64471
2.64635
2.64702
2.64657
2.64544
2.6443
2.64329
2.6424
2.64153
2.64064
2.63972
2.63883
2.63788
2.63662
2.63507
2.63345
2.63202
2.63084
2.62997
2.62931
2.62865
2.62789
2.62714
2.62659
2.62666
2.62746
2.62859
2.62878
2.62745
2.62557
2.62304
2.61952
2.61547
2.61247
2.61092
2.60981
2.60917
2.60885
2.60856
2.60815
2.60756
2.60681
2.60591
2.60486
2.60358
2.60221
2.6009
2.59989
2.59926
2.59914
2.59983
2.60132
2.60301
2.60368
2.60275
2.60112
2.59897
2.59673
2.59519
2.59407
2.59327
2.59271
2.59221
2.59149
2.59033
2.58882
2.58693
2.58457
2.58153
2.57827
2.57607
2.57504
2.57439
2.57439
2.5758
2.57869
2.58261
2.58591
2.58723
2.58673
2.58523
2.58261
2.57791
2.57147
2.56588
2.56298
2.56172
2.56078
2.56001
2.55963
2.55979
2.5605
2.56138
2.56217
2.5631
2.56419
2.56528
2.56617
2.56667
2.56704
2.56798
2.56948
2.57018
2.56964
2.56871
2.56748
2.56548
2.56171
2.55586
2.54964
2.54522
2.54251
2.54068
2.53955
2.53965
2.5416
2.54502
2.54804
2.54898
2.54756
2.54455
2.53911
2.53208
2.52657
2.52366
2.52226
2.52283
2.52676
2.53254
2.53717
2.54051
2.54233
2.54188
2.53884
2.53117
2.51978
2.51167
2.50776
2.50527
2.504
2.50411
2.50574
2.5083
2.51078
2.5129
2.51443
2.51487
2.51365
2.51193
2.51059
2.50925
2.50832
2.50741
2.50623
2.50459
2.50286
2.50179
2.50092
2.49949
2.49747
2.49526
2.49378
2.49285
2.49161
2.49
2.48882
2.48829
2.4879
2.48723
2.48686
2.48713
2.48742
2.48658
2.48447
2.48183
2.47924
2.47725
2.47576
2.47565
2.47763
2.48084
2.48445
2.48831
2.49195
2.49294
2.49038
2.4818
2.46772
2.45626
2.4483
2.44393
2.44278
2.44414
2.44803
2.45234
2.45662
2.46196
2.46992
2.47847
2.48249
2.48192
2.47935
2.47555
2.47001
2.4622
2.4541
2.44816
2.44315
2.43868
2.43659
2.43796
2.44335
2.44968
2.45113
2.45158
2.45128
2.44871
2.44344
2.43716
2.43279
2.42934
2.42585
2.42263
2.42069
2.42079
2.42134
2.42124
2.42067
2.42013
2.42017
2.42155
2.42423
2.42622
2.42802
2.6616
2.66252
2.66179
2.65982
2.65703
2.65394
2.65113
2.64894
2.6475
2.64656
2.64606
2.64603
2.64618
2.6459
2.64489
2.64343
2.64134
2.63912
2.63749
2.6364
2.63557
2.63521
2.63559
2.6368
2.63867
2.64043
2.64134
2.64125
2.64056
2.63965
2.63877
2.6379
2.63699
2.63605
2.63506
2.63404
2.63296
2.63174
2.63066
2.62999
2.62997
2.63018
2.62997
2.62877
2.62685
2.62461
2.62275
2.62148
2.6208
2.62114
2.62247
2.6232
2.62214
2.62043
2.61833
2.61564
2.61229
2.60913
2.60719
2.60606
2.60519
2.60442
2.60368
2.60299
2.60229
2.60145
2.60044
2.59924
2.59791
2.59648
2.59504
2.59383
2.59294
2.59264
2.59344
2.59551
2.59793
2.59905
2.59848
2.59726
2.59561
2.59335
2.59091
2.58903
2.58754
2.5864
2.58568
2.58532
2.58505
2.58425
2.58288
2.58087
2.578
2.57429
2.57097
2.56925
2.56861
2.56897
2.57092
2.57413
2.5776
2.57979
2.58036
2.57971
2.578
2.57506
2.57025
2.56414
2.55902
2.55598
2.55436
2.55338
2.55286
2.55303
2.55417
2.55587
2.5577
2.55906
2.55964
2.55948
2.55866
2.55751
2.55655
2.55594
2.55592
2.55711
2.5589
2.55952
2.55919
2.55859
2.55745
2.55472
2.54971
2.54336
2.53797
2.53487
2.53342
2.5327
2.53333
2.53591
2.53949
2.5415
2.54164
2.54041
2.53794
2.53332
2.5268
2.52133
2.51832
2.51685
2.51707
2.52091
2.52851
2.53631
2.54048
2.54122
2.5399
2.537
2.53021
2.51808
2.50543
2.49911
2.4969
2.49574
2.49558
2.49789
2.50352
2.51028
2.51538
2.51767
2.51695
2.51419
2.50884
2.5031
2.49863
2.4944
2.49083
2.48923
2.49042
2.49402
2.49648
2.4982
2.49945
2.49952
2.4979
2.4943
2.48977
2.48626
2.48367
2.48181
2.48108
2.48185
2.48379
2.48555
2.48642
2.48561
2.48298
2.47817
2.47245
2.46822
2.4651
2.4634
2.46318
2.46567
2.47188
2.48134
2.49028
2.4938
2.49296
2.48978
2.48075
2.46289
2.44345
2.43384
2.43128
2.43069
2.43148
2.43565
2.44356
2.45353
2.46379
2.4725
2.475
2.47362
2.47077
2.46694
2.46175
2.45499
2.44874
2.44601
2.44473
2.44347
2.4424
2.44218
2.44251
2.44196
2.43966
2.43703
2.43402
2.43001
2.42605
2.42483
2.4259
2.42672
2.42744
2.42881
2.43031
2.42953
2.42529
2.41878
2.41419
2.41093
2.40737
2.40554
2.40631
2.40983
2.41587
2.42429
2.65859
2.65853
2.65784
2.65616
2.65376
2.65129
2.64905
2.6472
2.64594
2.64524
2.64502
2.64501
2.64455
2.64336
2.64182
2.63982
2.63744
2.63521
2.63377
2.63287
2.63229
2.6322
2.63269
2.63387
2.63558
2.6373
2.63846
2.63887
2.63866
2.63817
2.63748
2.63651
2.63532
2.63394
2.63253
2.63118
2.62998
2.62915
2.629
2.62979
2.63106
2.6314
2.63031
2.62842
2.62563
2.62242
2.61975
2.61796
2.61665
2.61638
2.61758
2.61915
2.61933
2.61836
2.61695
2.61517
2.61263
2.60929
2.60595
2.60359
2.60208
2.60067
2.59941
2.5984
2.59763
2.59696
2.59626
2.59549
2.59459
2.5935
2.5924
2.59136
2.59051
2.59017
2.59103
2.59354
2.59663
2.59799
2.59742
2.59599
2.59416
2.59144
2.58792
2.58489
2.58284
2.58136
2.58036
2.58003
2.58041
2.58106
2.58067
2.57947
2.57757
2.57459
2.57099
2.56834
2.56735
2.56747
2.56863
2.57042
2.57209
2.57333
2.57392
2.57328
2.57152
2.56853
2.56446
2.56019
2.55653
2.55343
2.5514
2.55045
2.5504
2.55176
2.55398
2.55608
2.55701
2.55676
2.55571
2.55408
2.55197
2.5496
2.54786
2.54703
2.54748
2.54944
2.55188
2.5532
2.55295
2.55217
2.55084
2.54851
2.54467
2.54007
2.53546
2.53204
2.53047
2.53013
2.53074
2.53145
2.53161
2.53209
2.5327
2.53212
2.53031
2.52748
2.52389
2.52039
2.51767
2.51636
2.51697
2.52056
2.52633
2.53205
2.53533
2.5357
2.53453
2.53176
2.52627
2.51772
2.50718
2.49795
2.49368
2.49221
2.49231
2.49611
2.50447
2.5128
2.51705
2.5182
2.51704
2.5146
2.50912
2.49941
2.49004
2.48469
2.48233
2.48163
2.48269
2.48771
2.49516
2.49981
2.50151
2.50101
2.49891
2.49422
2.48789
2.48254
2.47936
2.47785
2.47728
2.47895
2.48317
2.48663
2.48671
2.48519
2.48219
2.4762
2.46789
2.46147
2.45854
2.4574
2.45723
2.45998
2.46911
2.48182
2.48856
2.48954
2.48813
2.48436
2.47549
2.46126
2.4453
2.43329
2.42772
2.42603
2.42627
2.43155
2.44354
2.45802
2.46772
2.46933
2.46751
2.4644
2.46001
2.45409
2.44687
2.44188
2.44069
2.44081
2.44238
2.44588
2.45013
2.45166
2.44884
2.44218
2.43432
2.42742
2.41977
2.41187
2.40787
2.40829
2.41271
2.42
2.42579
2.43104
2.43432
2.43417
2.43118
2.42288
2.4106
2.40338
2.40113
2.40076
2.4013
2.40448
2.41344
2.42674
2.65586
2.65533
2.6546
2.65377
2.6526
2.65103
2.64949
2.64823
2.64739
2.64689
2.6464
2.64555
2.64426
2.64261
2.64054
2.6383
2.63609
2.63411
2.63271
2.63185
2.6313
2.63099
2.63092
2.63112
2.63196
2.63401
2.6365
2.63783
2.63799
2.63752
2.63654
2.63529
2.63366
2.63186
2.63031
2.62907
2.6282
2.62807
2.629
2.63051
2.63103
2.63019
2.62856
2.6261
2.62286
2.61972
2.61739
2.61584
2.61464
2.61436
2.61578
2.61783
2.6187
2.61839
2.61737
2.61595
2.61395
2.61077
2.60653
2.60257
2.59984
2.59796
2.59632
2.59488
2.59385
2.59345
2.59347
2.5934
2.59298
2.59235
2.59173
2.59115
2.59065
2.59044
2.59116
2.59317
2.5955
2.59643
2.59599
2.59459
2.59267
2.58985
2.58595
2.5822
2.57966
2.578
2.57678
2.57625
2.57676
2.57787
2.57866
2.57861
2.57785
2.57661
2.57463
2.57184
2.56922
2.56772
2.56682
2.56629
2.56615
2.56618
2.56606
2.56546
2.56391
2.5615
2.55922
2.55767
2.55613
2.5541
2.55224
2.55132
2.55167
2.5532
2.55454
2.55464
2.55419
2.55333
2.55193
2.54994
2.54747
2.54543
2.54388
2.54312
2.54355
2.54531
2.54749
2.54839
2.54792
2.54686
2.54519
2.54311
2.5408
2.53847
2.53612
2.53363
2.53141
2.52985
2.52845
2.52668
2.5249
2.52349
2.52246
2.52186
2.5216
2.52145
2.52098
2.51993
2.51916
2.51905
2.52019
2.52238
2.52428
2.52518
2.52619
2.52728
2.52669
2.52415
2.51988
2.51515
2.50954
2.5023
2.49584
2.49338
2.49393
2.49722
2.50237
2.50834
2.51352
2.5153
2.5144
2.51205
2.50779
2.50056
2.49098
2.48355
2.4809
2.48038
2.48197
2.48671
2.49374
2.49885
2.49948
2.49824
2.49556
2.49023
2.48312
2.4777
2.47556
2.4746
2.47482
2.47773
2.48251
2.48561
2.48593
2.48449
2.48205
2.47728
2.46971
2.46163
2.45674
2.4552
2.45548
2.4594
2.46657
2.47235
2.47587
2.47803
2.47769
2.47398
2.46593
2.45538
2.44601
2.43851
2.43301
2.43034
2.4309
2.43728
2.45041
2.46204
2.46469
2.46302
2.46078
2.45717
2.45047
2.44123
2.43455
2.43263
2.43314
2.43677
2.44302
2.45106
2.45687
2.45722
2.45396
2.44614
2.43334
2.41962
2.40754
2.40013
2.39784
2.39809
2.40213
2.41235
2.42566
2.4336
2.43474
2.43405
2.43232
2.4268
2.41651
2.40617
2.40117
2.40024
2.40131
2.40584
2.41303
2.41962
2.6534
2.65264
2.65208
2.65199
2.65188
2.65149
2.6509
2.65044
2.65007
2.64951
2.64849
2.64699
2.6452
2.6432
2.64111
2.63904
2.63707
2.63518
2.63354
2.63238
2.63146
2.63053
2.62971
2.62934
2.62976
2.6313
2.63388
2.63614
2.63668
2.63599
2.63484
2.63346
2.63179
2.62997
2.62852
2.62743
2.62695
2.62754
2.62901
2.62985
2.62929
2.6278
2.62584
2.62292
2.61941
2.61677
2.61538
2.61441
2.61399
2.61442
2.61596
2.61792
2.61889
2.61866
2.61779
2.61651
2.6148
2.61207
2.60812
2.60343
2.59894
2.59569
2.59371
2.59235
2.59171
2.59162
2.59184
2.59226
2.59244
2.5923
2.59193
2.59153
2.59125
2.59123
2.59172
2.59289
2.59418
2.5948
2.59433
2.59307
2.59125
2.58872
2.58517
2.58098
2.57764
2.57571
2.57438
2.57367
2.57386
2.57504
2.57684
2.57829
2.57897
2.57901
2.57836
2.57664
2.57357
2.56984
2.56668
2.56439
2.56268
2.56082
2.55854
2.55625
2.55487
2.55485
2.55571
2.55638
2.55659
2.55649
2.55601
2.55506
2.55414
2.55351
2.55289
2.55208
2.55093
2.54952
2.54802
2.54673
2.54581
2.54492
2.54394
2.54317
2.54309
2.54353
2.54387
2.54376
2.5435
2.54283
2.5416
2.54029
2.53963
2.53921
2.53833
2.53628
2.53298
2.52924
2.52613
2.52348
2.52023
2.51655
2.51385
2.51292
2.51395
2.51671
2.51933
2.5216
2.52383
2.52548
2.52537
2.5236
2.52168
2.52019
2.51873
2.51776
2.51723
2.51633
2.51478
2.51321
2.51144
2.50826
2.50329
2.49906
2.49792
2.49833
2.49931
2.5008
2.50371
2.50704
2.5081
2.50667
2.50373
2.49976
2.49511
2.49
2.48588
2.48438
2.48531
2.48797
2.49036
2.49187
2.49236
2.49125
2.48846
2.48326
2.47673
2.47301
2.47168
2.47136
2.4729
2.47639
2.47982
2.48205
2.4828
2.48237
2.4807
2.47763
2.47254
2.46661
2.46187
2.45928
2.45958
2.46269
2.46518
2.46528
2.4649
2.4642
2.4623
2.45833
2.45303
2.44844
2.44535
2.44246
2.43981
2.43915
2.44202
2.44895
2.45614
2.45978
2.46064
2.45963
2.45675
2.45031
2.44028
2.43228
2.42944
2.42873
2.42954
2.43452
2.44543
2.45657
2.45922
2.458
2.45527
2.44833
2.43315
2.41217
2.39971
2.39623
2.3953
2.39516
2.39821
2.40731
2.42025
2.42864
2.43144
2.43097
2.42864
2.42382
2.41808
2.41242
2.40826
2.40648
2.40719
2.40993
2.41266
2.41436
2.65107
2.65075
2.65113
2.65178
2.65241
2.65278
2.65276
2.65235
2.65174
2.6509
2.64974
2.64815
2.64641
2.64474
2.64316
2.64162
2.63997
2.63803
2.63583
2.63375
2.6321
2.6307
2.62934
2.62829
2.62838
2.62977
2.63193
2.63362
2.63405
2.63366
2.63285
2.63164
2.63004
2.62847
2.6273
2.62639
2.62622
2.62728
2.62855
2.62849
2.62718
2.62544
2.62318
2.6205
2.61792
2.61621
2.61508
2.6144
2.61435
2.61508
2.61644
2.61787
2.6185
2.61807
2.61707
2.61573
2.61393
2.61154
2.60861
2.60516
2.60136
2.59736
2.59396
2.59199
2.59118
2.59127
2.59165
2.59173
2.59163
2.59151
2.59141
2.59123
2.59112
2.59142
2.59215
2.59301
2.59351
2.59324
2.59238
2.59114
2.58948
2.58735
2.58481
2.58192
2.57876
2.57586
2.57393
2.57292
2.57297
2.57426
2.57667
2.5793
2.58077
2.58077
2.58014
2.57888
2.57678
2.57355
2.56932
2.5647
2.56036
2.5559
2.55167