/*--------------------------------*- C++ -*----------------------------------*\
  =========                 |
  \\      /  F ield         | OpenFOAM: The Open Source CFD Toolbox
   \\    /   O peration     | Website:  https://openfoam.org
    \\  /    A nd           | Version:  7
     \\/     M anipulation  |
\*---------------------------------------------------------------------------*/
FoamFile
{
    version     2.0;
    format      ascii;
    class       volVectorField;
    location    "4";
    object      U;
}
// * * * * * * * * * * * * * * * * * * * * * * * * * * * * * * * * * * * * * //

dimensions      [0 1 -1 0 0 0 0];

internalField   nonuniform List<vector> 
16512
(
(0.75828 -0.00176171 0)
(0.764321 -0.00182047 0)
(0.771212 -0.00181013 0)
(0.777558 -0.00172751 0)
(0.782347 -0.00163774 0)
(0.78601 -0.00159846 0)
(0.788294 -0.00173918 0)
(0.789928 -0.00195123 0)
(0.791644 -0.00215558 0)
(0.793681 -0.00227837 0)
(0.796043 -0.00223466 0)
(0.798415 -0.00209926 0)
(0.80043 -0.0019808 0)
(0.802137 -0.00188291 0)
(0.803323 -0.00170501 0)
(0.803728 -0.00125291 0)
(0.804329 -0.000398612 0)
(0.805624 0.000468178 0)
(0.808414 0.00116546 0)
(0.813041 0.00153296 0)
(0.820148 0.00155899 0)
(0.829373 0.00144144 0)
(0.838646 0.0011829 0)
(0.845439 0.000848238 0)
(0.849496 0.0005662 0)
(0.852219 0.000396585 0)
(0.85417 0.000247701 0)
(0.856154 2.72576e-05 0)
(0.858492 -0.000310593 0)
(0.861429 -0.000909443 0)
(0.865028 -0.00176339 0)
(0.869153 -0.00265998 0)
(0.873055 -0.00339096 0)
(0.875742 -0.00397375 0)
(0.877521 -0.0044145 0)
(0.878793 -0.00481514 0)
(0.879119 -0.00512253 0)
(0.878614 -0.00521584 0)
(0.878059 -0.00500099 0)
(0.878066 -0.00448894 0)
(0.878981 -0.00370235 0)
(0.880806 -0.00275496 0)
(0.883517 -0.0016633 0)
(0.887924 -0.000410561 0)
(0.893826 0.000550309 0)
(0.901392 0.000997427 0)
(0.909099 0.0010218 0)
(0.915168 0.000855978 0)
(0.919521 0.000654338 0)
(0.923125 0.000459631 0)
(0.926208 0.000251703 0)
(0.929244 1.3739e-07 0)
(0.932782 -0.000310875 0)
(0.937097 -0.000807513 0)
(0.942586 -0.00141624 0)
(0.949635 -0.00222236 0)
(0.9564 -0.00313653 0)
(0.960933 -0.00388374 0)
(0.963312 -0.00429432 0)
(0.964571 -0.00444175 0)
(0.964149 -0.00407251 0)
(0.962604 -0.0033621 0)
(0.961192 -0.00235679 0)
(0.960646 -0.00135538 0)
(0.960909 -0.000408845 0)
(0.96171 0.00056451 0)
(0.963043 0.0014035 0)
(0.96521 0.00210166 0)
(0.968955 0.00272877 0)
(0.975076 0.0030923 0)
(0.983466 0.00328429 0)
(0.991714 0.0033868 0)
(0.998069 0.00335568 0)
(1.00304 0.00309452 0)
(1.00771 0.00231425 0)
(1.01279 0.00037841 0)
(1.01861 -0.00237558 0)
(1.02427 -0.00500567 0)
(1.02882 -0.00679826 0)
(1.03156 -0.00758829 0)
(1.03225 -0.00834461 0)
(1.02966 -0.00831912 0)
(1.02468 -0.00691432 0)
(1.02028 -0.00437127 0)
(1.01779 -0.00119026 0)
(1.01733 0.00136043 0)
(1.01849 0.00253742 0)
(1.02055 0.00297855 0)
(1.02394 0.00318704 0)
(1.02851 0.00319417 0)
(1.03356 0.00293653 0)
(1.03867 0.00219791 0)
(1.04368 0.000906452 0)
(1.04834 -0.000517248 0)
(1.05236 -0.00124261 0)
(1.05588 -0.00116776 0)
(1.05963 -0.000659288 0)
(1.06401 -0.000118509 0)
(1.06909 0.000164353 0)
(1.07421 0.000133533 0)
(1.07875 -0.000340376 0)
(1.08263 -0.00141207 0)
(1.08606 -0.00269873 0)
(1.08892 -0.00363653 0)
(1.09074 -0.00398644 0)
(1.09065 -0.00377465 0)
(1.0894 -0.00265075 0)
(1.08932 -0.000875326 0)
(1.09031 0.000860591 0)
(1.09204 0.00188451 0)
(1.09467 0.0023975 0)
(1.09836 0.00241554 0)
(1.1026 0.0019817 0)
(1.10642 0.00023777 0)
(1.10983 -0.00252767 0)
(1.11271 -0.00498267 0)
(1.11431 -0.00621437 0)
(1.11319 -0.00704621 0)
(1.10855 -0.0068739 0)
(1.10203 -0.00514973 0)
(1.09767 -0.00206556 0)
(1.09674 0.000999891 0)
(1.09813 0.00249131 0)
(1.10158 0.00345032 0)
(1.10904 0.00385105 0)
(1.12019 0.00379936 0)
(1.13123 0.00282545 0)
(1.13946 0.000807755 0)
(1.14532 -0.00155588 0)
(1.14953 -0.00330771 0)
(1.15236 -0.00424659 0)
(1.15409 -0.0045407 0)
(1.15379 -0.0043267 0)
(1.15041 -0.00325176 0)
(1.14505 -0.00118937 0)
(1.14012 0.00119487 0)
(1.1382 0.00257991 0)
(1.13851 0.00293577 0)
(1.13984 0.00297415 0)
(1.14284 0.00288795 0)
(1.14773 0.00258348 0)
(1.15406 0.00182854 0)
(1.16107 0.000338619 0)
(1.16843 -0.00146604 0)
(1.17457 -0.00268917 0)
(1.17795 -0.00312268 0)
(1.17998 -0.0026529 0)
(1.18168 -0.00135683 0)
(1.18434 -0.000292936 0)
(1.18884 0.000678835 0)
(1.19504 0.0010154 0)
(1.20121 0.000808074 0)
(1.20585 -0.000355255 0)
(1.2095 -0.00192831 0)
(1.21237 -0.0032553 0)
(1.21477 -0.00386433 0)
(1.21534 -0.00428581 0)
(1.21249 -0.00460672 0)
(1.20737 -0.00394508 0)
(1.20354 -0.00274802 0)
(1.2033 -0.00111144 0)
(1.20482 0.000147922 0)
(1.20725 0.000830597 0)
(1.21208 0.00105033 0)
(1.22066 0.000780928 0)
(1.23089 -0.000225988 0)
(1.23917 -0.00190779 0)
(1.24419 -0.00296308 0)
(1.24722 -0.00303434 0)
(1.24876 -0.00200383 0)
(1.2485 -0.000267481 0)
(1.24769 0.00175241 0)
(1.2479 0.00318721 0)
(1.24925 0.00390826 0)
(1.25169 0.00451137 0)
(1.25676 0.00513542 0)
(1.26549 0.00558832 0)
(1.276 0.00558272 0)
(1.28538 0.00454929 0)
(1.29335 0.00226776 0)
(1.30103 -0.00146108 0)
(1.30752 -0.00556974 0)
(1.31156 -0.00849653 0)
(1.314 -0.0100716 0)
(1.31061 -0.0114898 0)
(1.29647 -0.0114116 0)
(1.27637 -0.00819423 0)
(1.26269 -0.00232275 0)
(1.25767 0.0026904 0)
(1.25771 0.00476591 0)
(1.2592 0.0054692 0)
(1.2633 0.00600715 0)
(1.2727 0.00623087 0)
(1.28685 0.0055309 0)
(1.30267 0.00256181 0)
(1.31601 -0.00200553 0)
(1.32321 -0.00538292 0)
(1.3268 -0.00658549 0)
(1.32838 -0.00714962 0)
(1.32431 -0.00628292 0)
(1.31519 -0.00338125 0)
(1.30893 0.00141248 0)
(1.30742 0.00519589 0)
(1.30842 0.00659274 0)
(1.31119 0.00719112 0)
(1.31867 0.0071923 0)
(1.32985 0.00656685 0)
(1.34005 0.00478031 0)
(1.34552 0.00206598 0)
(1.34772 -0.000347847 0)
(1.34889 -0.00182703 0)
(1.34654 -0.00240222 0)
(1.34012 -0.00151577 0)
(1.3372 -0.000211806 0)
(1.33855 0.000524181 0)
(1.34144 0.00111205 0)
(1.34728 0.00119912 0)
(1.35588 -0.000632314 0)
(1.36557 -0.00424826 0)
(1.37205 -0.00724608 0)
(1.37545 -0.00871124 0)
(1.37607 -0.00981348 0)
(1.3693 -0.00989586 0)
(1.35497 -0.00715101 0)
(1.34433 -0.00182097 0)
(1.34115 0.00330281 0)
(1.34182 0.00579719 0)
(1.34427 0.00726215 0)
(1.35075 0.00806767 0)
(1.36213 0.00834214 0)
(1.37565 0.00793494 0)
(1.38758 0.00546436 0)
(1.39508 0.000727306 0)
(1.39848 -0.00400923 0)
(1.39986 -0.00683627 0)
(1.39701 -0.00883574 0)
(1.38733 -0.00927101 0)
(1.37469 -0.0076292 0)
(1.36587 -0.00421595 0)
(1.36391 0.000267377 0)
(1.365 0.0041567 0)
(1.36776 0.00704593 0)
(1.37539 0.00870255 0)
(1.38997 0.00855233 0)
(1.40851 0.00719965 0)
(1.42499 0.00431295 0)
(1.43421 -7.8452e-05 0)
(1.43765 -0.00436736 0)
(1.43949 -0.00656594 0)
(1.43687 -0.00731156 0)
(1.42372 -0.00631418 0)
(1.40618 -0.00335112 0)
(1.39908 0.000753863 0)
(1.39904 0.002278 0)
(1.40076 0.00275455 0)
(1.40657 0.00303339 0)
(1.41559 0.00138357 0)
(1.42065 -0.00121565 0)
(0.762036 -0.00326108 0)
(0.768367 -0.00371154 0)
(0.775541 -0.00393376 0)
(0.781973 -0.0039579 0)
(0.786668 -0.00398886 0)
(0.790153 -0.0042532 0)
(0.792422 -0.00469454 0)
(0.794416 -0.00499945 0)
(0.796594 -0.00508437 0)
(0.798961 -0.00500459 0)
(0.80127 -0.00497225 0)
(0.803148 -0.00517354 0)
(0.804553 -0.00545877 0)
(0.80544 -0.00577177 0)
(0.805956 -0.00607983 0)
(0.806612 -0.00574629 0)
(0.807783 -0.00438305 0)
(0.809732 -0.0024242 0)
(0.812891 -7.18334e-05 0)
(0.817453 0.00231687 0)
(0.823798 0.00400383 0)
(0.832153 0.00462606 0)
(0.840914 0.00415157 0)
(0.847632 0.00323051 0)
(0.851854 0.00263797 0)
(0.854573 0.00231744 0)
(0.856361 0.00209741 0)
(0.858201 0.00180004 0)
(0.860426 0.00132117 0)
(0.863192 0.000681715 0)
(0.86657 -0.000230371 0)
(0.870317 -0.0017193 0)
(0.873786 -0.00367243 0)
(0.876322 -0.00558808 0)
(0.87788 -0.00725347 0)
(0.878871 -0.00906444 0)
(0.879251 -0.0109451 0)
(0.879211 -0.0125201 0)
(0.879452 -0.0136532 0)
(0.880504 -0.0138708 0)
(0.882194 -0.0131069 0)
(0.88461 -0.011453 0)
(0.887937 -0.00913129 0)
(0.892646 -0.00635168 0)
(0.898563 -0.00350162 0)
(0.905448 -0.0010465 0)
(0.912346 0.000575382 0)
(0.91779 0.00130503 0)
(0.922025 0.00160107 0)
(0.925276 0.00171797 0)
(0.927998 0.00162052 0)
(0.930762 0.00140893 0)
(0.933977 0.0010281 0)
(0.938124 0.000558938 0)
(0.943249 -0.000271563 0)
(0.949529 -0.00178846 0)
(0.955683 -0.00421672 0)
(0.96041 -0.00685965 0)
(0.963126 -0.00904192 0)
(0.964627 -0.010962 0)
(0.965386 -0.0123078 0)
(0.965416 -0.0118869 0)
(0.964501 -0.0100932 0)
(0.963622 -0.00795019 0)
(0.963728 -0.00606691 0)
(0.964826 -0.00429803 0)
(0.966583 -0.00237255 0)
(0.969231 -0.000131528 0)
(0.973411 0.00252988 0)
(0.979496 0.00521832 0)
(0.987496 0.00746077 0)
(0.995347 0.00894916 0)
(1.00146 0.00971056 0)
(1.00624 0.00978401 0)
(1.01058 0.00917422 0)
(1.01481 0.00783052 0)
(1.01894 0.00499189 0)
(1.02275 0.000794381 0)
(1.02588 -0.00476674 0)
(1.02759 -0.010897 0)
(1.02774 -0.016816 0)
(1.02713 -0.0212359 0)
(1.02691 -0.0221657 0)
(1.02622 -0.0189871 0)
(1.02477 -0.0132655 0)
(1.02387 -0.0066706 0)
(1.02394 -0.00053806 0)
(1.02546 0.00417521 0)
(1.02795 0.0073338 0)
(1.03111 0.00901585 0)
(1.03491 0.00920076 0)
(1.03906 0.00818086 0)
(1.04331 0.00623977 0)
(1.0476 0.00354238 0)
(1.05223 0.000437274 0)
(1.05701 -0.0018692 0)
(1.06185 -0.00220303 0)
(1.06708 -0.00103417 0)
(1.07203 0.000612242 0)
(1.07631 0.0015666 0)
(1.07996 0.00146926 0)
(1.08314 0.000574062 0)
(1.08567 -0.00124078 0)
(1.08748 -0.00435768 0)
(1.08908 -0.00798222 0)
(1.09063 -0.0104618 0)
(1.09222 -0.0105087 0)
(1.09378 -0.00815558 0)
(1.09541 -0.0045481 0)
(1.09729 -0.000537654 0)
(1.09971 0.00325387 0)
(1.10252 0.00597453 0)
(1.10526 0.00672896 0)
(1.10768 0.00612553 0)
(1.10936 0.00391336 0)
(1.11037 -0.000315156 0)
(1.1103 -0.00632211 0)
(1.10854 -0.0129568 0)
(1.10598 -0.0178591 0)
(1.10455 -0.0180337 0)
(1.10338 -0.0140402 0)
(1.10266 -0.00779252 0)
(1.10373 -0.00111904 0)
(1.10727 0.00480464 0)
(1.11331 0.0092548 0)
(1.12242 0.0110974 0)
(1.1319 0.0105435 0)
(1.13876 0.00817485 0)
(1.1435 0.00434358 0)
(1.14762 -0.000550951 0)
(1.15089 -0.00570347 0)
(1.15279 -0.00991542 0)
(1.15338 -0.0126632 0)
(1.15282 -0.0133148 0)
(1.15038 -0.0112756 0)
(1.14692 -0.00646566 0)
(1.14419 -0.000555364 0)
(1.14331 0.00398381 0)
(1.1442 0.00660658 0)
(1.14634 0.00811505 0)
(1.15015 0.00854464 0)
(1.15553 0.00761389 0)
(1.1617 0.00540856 0)
(1.1674 0.0015224 0)
(1.17302 -0.00391405 0)
(1.17887 -0.00821099 0)
(1.1831 -0.00917221 0)
(1.18593 -0.00733206 0)
(1.18894 -0.00317804 0)
(1.19294 0.000881795 0)
(1.19774 0.00351659 0)
(1.20257 0.00396228 0)
(1.2068 0.00324299 0)
(1.20989 0.00155481 0)
(1.21205 -0.000997839 0)
(1.21333 -0.00384292 0)
(1.21299 -0.00721382 0)
(1.21013 -0.0109391 0)
(1.20728 -0.0132272 0)
(1.20668 -0.0116136 0)
(1.20715 -0.0079614 0)
(1.20855 -0.00398239 0)
(1.21117 -0.000230214 0)
(1.21531 0.00294246 0)
(1.22181 0.0041791 0)
(1.23036 0.00296128 0)
(1.23744 -0.000639357 0)
(1.24295 -0.00567738 0)
(1.24731 -0.00911776 0)
(1.25034 -0.0100115 0)
(1.25239 -0.00833591 0)
(1.25303 -0.00431433 0)
(1.25317 0.00117082 0)
(1.25414 0.00647897 0)
(1.25649 0.0106994 0)
(1.26058 0.0141671 0)
(1.26786 0.0165605 0)
(1.27721 0.0174229 0)
(1.28583 0.0169648 0)
(1.29268 0.0149284 0)
(1.29837 0.0108132 0)
(1.30321 0.00431214 0)
(1.3061 -0.0038515 0)
(1.30636 -0.0130764 0)
(1.30215 -0.023853 0)
(1.29235 -0.0323323 0)
(1.28227 -0.0319608 0)
(1.27472 -0.0230067 0)
(1.26864 -0.0105115 0)
(1.26523 0.000260061 0)
(1.26653 0.00687893 0)
(1.27042 0.0119042 0)
(1.2784 0.0161609 0)
(1.29042 0.0181111 0)
(1.30239 0.0160426 0)
(1.31179 0.00925696 0)
(1.31879 -0.000293754 0)
(1.32257 -0.00894605 0)
(1.32374 -0.0155695 0)
(1.32212 -0.0203453 0)
(1.32005 -0.0191434 0)
(1.31805 -0.0130532 0)
(1.31677 -0.00442314 0)
(1.31737 0.00407952 0)
(1.32053 0.011017 0)
(1.32617 0.0165822 0)
(1.33399 0.0190627 0)
(1.34093 0.0172057 0)
(1.34534 0.0125972 0)
(1.34717 0.00773874 0)
(1.3472 0.00248245 0)
(1.34495 -0.00318085 0)
(1.34213 -0.00509261 0)
(1.34187 -0.00206588 0)
(1.3431 0.00164651 0)
(1.34578 0.0042712 0)
(1.35039 0.00580531 0)
(1.35717 0.00596791 0)
(1.36322 0.00301497 0)
(1.36746 -0.00322181 0)
(1.36938 -0.0111287 0)
(1.36881 -0.019891 0)
(1.36389 -0.0278675 0)
(1.35803 -0.0288099 0)
(1.35361 -0.0217733 0)
(1.35064 -0.0114201 0)
(1.35023 -0.00164713 0)
(1.35316 0.00599921 0)
(1.35924 0.0129355 0)
(1.36917 0.0187802 0)
(1.38011 0.0219199 0)
(1.38828 0.0208736 0)
(1.39314 0.0159529 0)
(1.39497 0.00941914 0)
(1.39438 0.00150658 0)
(1.3901 -0.00802622 0)
(1.38134 -0.0170573 0)
(1.37294 -0.0213995 0)
(1.36965 -0.0187194 0)
(1.36971 -0.0132097 0)
(1.3722 -0.00720344 0)
(1.37696 9.12561e-07 0)
(1.38551 0.00816748 0)
(1.39907 0.0155771 0)
(1.41497 0.0192904 0)
(1.42757 0.0175096 0)
(1.43344 0.0112034 0)
(1.43515 0.0044807 0)
(1.43474 -0.00287301 0)
(1.43046 -0.0120282 0)
(1.42081 -0.0195136 0)
(1.41258 -0.0171626 0)
(1.40768 -0.00826702 0)
(1.40549 0.000905598 0)
(1.40649 0.0062699 0)
(1.40974 0.00950624 0)
(1.41551 0.00866148 0)
(1.41836 0.0038998 0)
(0.773356 -0.00663168 0)
(0.779819 -0.00700389 0)
(0.78735 -0.00729438 0)
(0.794134 -0.00716962 0)
(0.798996 -0.00680615 0)
(0.802386 -0.00661452 0)
(0.804439 -0.00687514 0)
(0.806303 -0.00753258 0)
(0.808593 -0.00826741 0)
(0.811211 -0.00847477 0)
(0.813502 -0.00820713 0)
(0.815091 -0.00791911 0)
(0.816077 -0.00740303 0)
(0.816295 -0.00693464 0)
(0.816424 -0.00665559 0)
(0.817421 -0.00644674 0)
(0.819013 -0.00606612 0)
(0.821403 -0.0050227 0)
(0.824982 -0.00316009 0)
(0.829463 -0.00069939 0)
(0.835168 0.00166427 0)
(0.8421 0.00292659 0)
(0.849408 0.00238887 0)
(0.855861 0.000694763 0)
(0.860526 -0.000829948 0)
(0.863794 -0.00144731 0)
(0.865684 -0.00153309 0)
(0.867441 -0.00155991 0)
(0.869425 -0.00179841 0)
(0.871831 -0.0024852 0)
(0.874784 -0.0038366 0)
(0.878171 -0.00564785 0)
(0.881456 -0.00757902 0)
(0.883963 -0.00938001 0)
(0.885571 -0.0108559 0)
(0.886647 -0.0121268 0)
(0.887297 -0.0132384 0)
(0.887729 -0.0141362 0)
(0.888578 -0.0146919 0)
(0.889963 -0.0147156 0)
(0.891891 -0.014561 0)
(0.894759 -0.0140871 0)
(0.898702 -0.0129903 0)
(0.903646 -0.0112107 0)
(0.909497 -0.00893996 0)
(0.915797 -0.00667136 0)
(0.921597 -0.00506114 0)
(0.926442 -0.00416679 0)
(0.930344 -0.00375987 0)
(0.933402 -0.00349046 0)
(0.936057 -0.00313574 0)
(0.938696 -0.00270472 0)
(0.941669 -0.0022963 0)
(0.945376 -0.00206485 0)
(0.950121 -0.00225852 0)
(0.955624 -0.00341229 0)
(0.961233 -0.00565864 0)
(0.965855 -0.00817435 0)
(0.96901 -0.0101994 0)
(0.97093 -0.0115628 0)
(0.972344 -0.0124077 0)
(0.973172 -0.0126084 0)
(0.972958 -0.0118025 0)
(0.972092 -0.0103307 0)
(0.972102 -0.0089124 0)
(0.973454 -0.00758978 0)
(0.97559 -0.00597424 0)
(0.97893 -0.00371786 0)
(0.983667 -0.000616019 0)
(0.990085 0.00307343 0)
(0.997664 0.00672412 0)
(1.0046 0.00941953 0)
(1.00953 0.0106412 0)
(1.01319 0.0104099 0)
(1.01622 0.00895414 0)
(1.01921 0.00632613 0)
(1.02193 0.00270031 0)
(1.02417 -0.00296386 0)
(1.02643 -0.0100965 0)
(1.02884 -0.0168715 0)
(1.03097 -0.0215111 0)
(1.03293 -0.0239223 0)
(1.03456 -0.0242869 0)
(1.03569 -0.0230298 0)
(1.03617 -0.0192624 0)
(1.03625 -0.0136136 0)
(1.03635 -0.0069708 0)
(1.03684 -0.000347441 0)
(1.03783 0.00515933 0)
(1.03946 0.00879154 0)
(1.04152 0.0105354 0)
(1.04368 0.0106321 0)
(1.04652 0.00933517 0)
(1.04998 0.00728558 0)
(1.05421 0.00475535 0)
(1.05982 0.00196237 0)
(1.06649 -0.00057203 0)
(1.07279 -0.00204979 0)
(1.07818 -0.00235287 0)
(1.0824 -0.00171161 0)
(1.08529 -0.00113081 0)
(1.08739 -0.0014447 0)
(1.08905 -0.00310046 0)
(1.09059 -0.0052797 0)
(1.09259 -0.00744735 0)
(1.09543 -0.00928735 0)
(1.09873 -0.0102343 0)
(1.10149 -0.00991932 0)
(1.10403 -0.00814797 0)
(1.10667 -0.00484592 0)
(1.10898 -0.000933481 0)
(1.11038 0.00233304 0)
(1.11095 0.00416467 0)
(1.11121 0.00367751 0)
(1.11091 0.000892547 0)
(1.1099 -0.00404334 0)
(1.10885 -0.0104868 0)
(1.10851 -0.0160908 0)
(1.10936 -0.0192333 0)
(1.11081 -0.0199804 0)
(1.11221 -0.0184984 0)
(1.11382 -0.0137748 0)
(1.11619 -0.00698244 0)
(1.1197 0.0008417 0)
(1.12451 0.00811736 0)
(1.13008 0.0124967 0)
(1.13558 0.012837 0)
(1.14053 0.0106999 0)
(1.14448 0.00748103 0)
(1.14793 0.00296464 0)
(1.15155 -0.00233906 0)
(1.15494 -0.0075985 0)
(1.15715 -0.0116021 0)
(1.15812 -0.0139109 0)
(1.15846 -0.0141726 0)
(1.15788 -0.0116221 0)
(1.1565 -0.006741 0)
(1.15505 -0.000579243 0)
(1.15448 0.00516506 0)
(1.15551 0.00909574 0)
(1.15764 0.0107211 0)
(1.16069 0.0100831 0)
(1.1647 0.00713989 0)
(1.16909 0.00243752 0)
(1.17418 -0.0033984 0)
(1.18036 -0.0094121 0)
(1.18737 -0.0138813 0)
(1.19369 -0.0143491 0)
(1.19872 -0.0111285 0)
(1.20301 -0.00582942 0)
(1.20644 -0.000358522 0)
(1.2086 0.00324441 0)
(1.21056 0.00389681 0)
(1.21262 0.00220699 0)
(1.21442 -0.00126231 0)
(1.21507 -0.00652063 0)
(1.21446 -0.0122339 0)
(1.21381 -0.015568 0)
(1.2144 -0.0156392 0)
(1.2156 -0.0136845 0)
(1.21672 -0.0104573 0)
(1.2183 -0.00616845 0)
(1.22061 -0.00112677 0)
(1.22387 0.00391372 0)
(1.22806 0.00710754 0)
(1.23266 0.00653788 0)
(1.23744 0.00301293 0)
(1.24254 -0.0014678 0)
(1.24845 -0.00671259 0)
(1.25384 -0.0111918 0)
(1.25812 -0.0128253 0)
(1.26133 -0.0114386 0)
(1.26402 -0.006812 0)
(1.26624 0.000497048 0)
(1.26883 0.00881327 0)
(1.27263 0.0166132 0)
(1.27752 0.0221759 0)
(1.28343 0.0239519 0)
(1.28962 0.0225372 0)
(1.29419 0.0191284 0)
(1.29711 0.0143441 0)
(1.29944 0.007392 0)
(1.30078 -0.00313811 0)
(1.29991 -0.0166456 0)
(1.29674 -0.0294994 0)
(1.29345 -0.0368808 0)
(1.29186 -0.0369679 0)
(1.29032 -0.0321536 0)
(1.2871 -0.0230803 0)
(1.28337 -0.00998568 0)
(1.2819 0.00385098 0)
(1.28431 0.0142106 0)
(1.28958 0.0202934 0)
(1.29675 0.0214457 0)
(1.30333 0.0178442 0)
(1.30882 0.010806 0)
(1.31465 0.000838148 0)
(1.32109 -0.0101681 0)
(1.32572 -0.0180208 0)
(1.329 -0.0208166 0)
(1.33131 -0.0204806 0)
(1.333 -0.0162242 0)
(1.33398 -0.00768341 0)
(1.33471 0.0036831 0)
(1.33608 0.0150403 0)
(1.33874 0.0225568 0)
(1.34155 0.0246381 0)
(1.34377 0.0221552 0)
(1.34558 0.0157763 0)
(1.34682 0.00783706 0)
(1.34666 0.000371346 0)
(1.34678 -0.0045267 0)
(1.34848 -0.00606747 0)
(1.35037 -0.00530752 0)
(1.35247 -0.0017971 0)
(1.35497 0.00291084 0)
(1.35817 0.00644938 0)
(1.36155 0.00699428 0)
(1.36379 0.00433089 0)
(1.36549 -0.00346855 0)
(1.36641 -0.0146836 0)
(1.3667 -0.0256653 0)
(1.36731 -0.0317145 0)
(1.36887 -0.0320712 0)
(1.36946 -0.0278457 0)
(1.36877 -0.0192631 0)
(1.36864 -0.00698122 0)
(1.37036 0.0065679 0)
(1.37459 0.0181457 0)
(1.38104 0.0252715 0)
(1.38723 0.026875 0)
(1.39005 0.024247 0)
(1.39112 0.0185055 0)
(1.39101 0.00849288 0)
(1.3895 -0.00403823 0)
(1.38603 -0.0154962 0)
(1.38223 -0.0212535 0)
(1.3813 -0.0206683 0)
(1.38222 -0.0166032 0)
(1.38368 -0.0103376 0)
(1.38683 -0.0029124 0)
(1.39231 0.00584222 0)
(1.40108 0.0159019 0)
(1.41227 0.0244217 0)
(1.42123 0.0269502 0)
(1.4257 0.0215535 0)
(1.42954 0.0119763 0)
(1.43184 0.00034281 0)
(1.43111 -0.0118244 0)
(1.42771 -0.0226176 0)
(1.42503 -0.0262235 0)
(1.42492 -0.0238652 0)
(1.42416 -0.0163366 0)
(1.42183 -0.00465646 0)
(1.41893 0.0070234 0)
(1.41819 0.0131815 0)
(1.41861 0.0134222 0)
(1.41861 0.00855855 0)
(0.796736 -0.00710034 0)
(0.80278 -0.0077489 0)
(0.810007 -0.00878207 0)
(0.816923 -0.0100068 0)
(0.82202 -0.0110223 0)
(0.825778 -0.011427 0)
(0.828096 -0.011084 0)
(0.82986 -0.0104482 0)
(0.831772 -0.0099313 0)
(0.833758 -0.0099353 0)
(0.835433 -0.0104623 0)
(0.836703 -0.0109846 0)
(0.83765 -0.0112177 0)
(0.838258 -0.0109323 0)
(0.838923 -0.00981975 0)
(0.840126 -0.00826625 0)
(0.841959 -0.00660609 0)
(0.84469 -0.00471087 0)
(0.848473 -0.00262399 0)
(0.852944 -0.000665333 0)
(0.858082 0.000799261 0)
(0.863713 0.00124505 0)
(0.869705 0.000443611 0)
(0.875772 -0.00117298 0)
(0.880931 -0.00288533 0)
(0.884816 -0.00421095 0)
(0.886904 -0.00505066 0)
(0.88853 -0.00568797 0)
(0.890319 -0.00623663 0)
(0.892327 -0.00664722 0)
(0.894607 -0.00701757 0)
(0.89723 -0.00754556 0)
(0.899858 -0.00852659 0)
(0.901996 -0.00998127 0)
(0.903653 -0.0115144 0)
(0.904966 -0.0127623 0)
(0.905946 -0.0135289 0)
(0.906778 -0.0137415 0)
(0.907877 -0.0134501 0)
(0.909306 -0.0129176 0)
(0.911347 -0.0122285 0)
(0.914544 -0.0114078 0)
(0.918806 -0.0103844 0)
(0.924203 -0.00930634 0)
(0.93035 -0.00825875 0)
(0.936341 -0.00749624 0)
(0.941494 -0.00717926 0)
(0.945741 -0.00739366 0)
(0.949124 -0.00789658 0)
(0.952043 -0.00829974 0)
(0.954716 -0.00838108 0)
(0.957259 -0.00820275 0)
(0.959964 -0.00788754 0)
(0.963215 -0.00755858 0)
(0.967293 -0.00740111 0)
(0.971959 -0.00756382 0)
(0.976783 -0.00814631 0)
(0.981121 -0.00896941 0)
(0.984269 -0.00958324 0)
(0.986103 -0.00984605 0)
(0.987501 -0.0099248 0)
(0.988576 -0.00984206 0)
(0.988973 -0.00947788 0)
(0.988564 -0.00871402 0)
(0.988703 -0.00766021 0)
(0.990156 -0.006662 0)
(0.992418 -0.00532054 0)
(0.996017 -0.00346709 0)
(1.00101 -0.00115 0)
(1.00761 0.00167732 0)
(1.0145 0.00459721 0)
(1.01968 0.00653669 0)
(1.02313 0.00704835 0)
(1.02524 0.00666911 0)
(1.02695 0.00497 0)
(1.02833 0.00202216 0)
(1.02979 -0.00204306 0)
(1.03167 -0.00653049 0)
(1.03413 -0.0107197 0)
(1.0374 -0.0145119 0)
(1.0415 -0.0176546 0)
(1.04521 -0.0191397 0)
(1.04796 -0.0193455 0)
(1.05014 -0.0187892 0)
(1.05182 -0.0175009 0)
(1.05295 -0.0150584 0)
(1.05334 -0.0113567 0)
(1.0532 -0.00706604 0)
(1.05303 -0.00299832 0)
(1.05327 0.000430999 0)
(1.05417 0.00307069 0)
(1.05579 0.00518112 0)
(1.05798 0.00690961 0)
(1.06079 0.0080513 0)
(1.06461 0.00858798 0)
(1.06966 0.00809207 0)
(1.07559 0.00594695 0)
(1.08204 0.00257052 0)
(1.08831 -0.001011 0)
(1.09306 -0.00392418 0)
(1.0962 -0.00564816 0)
(1.09829 -0.00626698 0)
(1.09983 -0.00625961 0)
(1.10141 -0.00581674 0)
(1.10346 -0.00516701 0)
(1.1061 -0.00451248 0)
(1.10915 -0.00437762 0)
(1.11251 -0.00428022 0)
(1.11584 -0.00385923 0)
(1.11853 -0.00339797 0)
(1.12038 -0.00308388 0)
(1.1215 -0.00272079 0)
(1.12123 -0.0025826 0)
(1.11964 -0.00300752 0)
(1.11734 -0.00430117 0)
(1.11525 -0.00680081 0)
(1.11409 -0.00943495 0)
(1.1148 -0.0117376 0)
(1.1171 -0.0140267 0)
(1.12035 -0.0160563 0)
(1.12399 -0.0167563 0)
(1.12775 -0.0156078 0)
(1.13201 -0.0120914 0)
(1.13687 -0.00631761 0)
(1.14137 0.000576231 0)
(1.14463 0.00683648 0)
(1.14689 0.0112157 0)
(1.14863 0.0125946 0)
(1.15059 0.011405 0)
(1.15334 0.00860805 0)
(1.15663 0.00490169 0)
(1.16023 0.000570261 0)
(1.16394 -0.00409524 0)
(1.16717 -0.00806439 0)
(1.16966 -0.0105318 0)
(1.17113 -0.0113683 0)
(1.17206 -0.0101337 0)
(1.17223 -0.00614742 0)
(1.17162 -0.000645271 0)
(1.17056 0.00437916 0)
(1.17005 0.00734858 0)
(1.17092 0.00793268 0)
(1.17261 0.00642061 0)
(1.17546 0.00282667 0)
(1.17994 -0.00153477 0)
(1.18663 -0.00632082 0)
(1.19615 -0.0109253 0)
(1.20641 -0.0136413 0)
(1.21434 -0.0132053 0)
(1.21924 -0.0106265 0)
(1.22194 -0.00781352 0)
(1.22328 -0.00432105 0)
(1.22259 -0.000821257 0)
(1.22093 -2.24155e-05 0)
(1.2201 -0.00304997 0)
(1.21998 -0.00784844 0)
(1.22082 -0.0126658 0)
(1.22297 -0.0160706 0)
(1.22559 -0.0172718 0)
(1.22823 -0.0167081 0)
(1.23089 -0.0140157 0)
(1.23363 -0.00918559 0)
(1.23641 -0.00325182 0)
(1.23886 0.00247686 0)
(1.24045 0.00664213 0)
(1.24179 0.00857123 0)
(1.24378 0.00821203 0)
(1.24692 0.00523798 0)
(1.25189 0.000403525 0)
(1.25877 -0.004996 0)
(1.26585 -0.00972792 0)
(1.27204 -0.0124035 0)
(1.27728 -0.0120292 0)
(1.28201 -0.00823323 0)
(1.2869 -0.000693472 0)
(1.29141 0.00927569 0)
(1.29425 0.0187715 0)
(1.29557 0.0250013 0)
(1.29714 0.0259452 0)
(1.29958 0.0227836 0)
(1.30158 0.0170027 0)
(1.30105 0.00829937 0)
(1.29904 -0.00302305 0)
(1.29734 -0.0153566 0)
(1.29759 -0.0256772 0)
(1.29984 -0.0318963 0)
(1.3029 -0.034138 0)
(1.30467 -0.0333892 0)
(1.30562 -0.0278062 0)
(1.30576 -0.0173846 0)
(1.30515 -0.00440611 0)
(1.30378 0.00813312 0)
(1.303 0.0162308 0)
(1.30418 0.0180875 0)
(1.30655 0.015387 0)
(1.31001 0.00911167 0)
(1.31506 0.00156157 0)
(1.32163 -0.00720813 0)
(1.33019 -0.0153518 0)
(1.33843 -0.0195379 0)
(1.34448 -0.0188369 0)
(1.34913 -0.014405 0)
(1.35298 -0.00654404 0)
(1.35565 0.00372935 0)
(1.35603 0.0141995 0)
(1.35329 0.0222163 0)
(1.34938 0.0241568 0)
(1.34757 0.0204852 0)
(1.34713 0.0140025 0)
(1.34752 0.00634164 0)
(1.34952 -0.000402243 0)
(1.35347 -0.00453257 0)
(1.35853 -0.00555822 0)
(1.36253 -0.00392448 0)
(1.36549 -0.00103157 0)
(1.36764 0.00204988 0)
(1.36894 0.00419788 0)
(1.36924 0.00418026 0)
(1.3683 1.88399e-05 0)
(1.3669 -0.00778392 0)
(1.36744 -0.0163876 0)
(1.37001 -0.0238819 0)
(1.37474 -0.0294174 0)
(1.38075 -0.0314997 0)
(1.38507 -0.0291946 0)
(1.38856 -0.0218694 0)
(1.39208 -0.00959003 0)
(1.39475 0.00502977 0)
(1.39566 0.0180974 0)
(1.39529 0.0260304 0)
(1.39514 0.0271045 0)
(1.39475 0.0233086 0)
(1.39278 0.0149341 0)
(1.38967 0.00303616 0)
(1.38743 -0.00917203 0)
(1.38813 -0.0176308 0)
(1.39107 -0.021291 0)
(1.39528 -0.0207082 0)
(1.39899 -0.0162547 0)
(1.40253 -0.00825044 0)
(1.40691 0.00298108 0)
(1.41294 0.0155852 0)
(1.42027 0.0265002 0)
(1.42509 0.0323642 0)
(1.42597 0.0317031 0)
(1.42559 0.0259934 0)
(1.42518 0.0135734 0)
(1.4253 -0.0032567 0)
(1.42683 -0.0191772 0)
(1.43023 -0.0287459 0)
(1.43531 -0.0315813 0)
(1.43968 -0.0285831 0)
(1.4423 -0.0215583 0)
(1.44291 -0.0110902 0)
(1.43998 0.00132798 0)
(1.4328 0.0126891 0)
(1.42577 0.0170766 0)
(1.42328 0.0117527 0)
(0.832703 -0.0106053 0)
(0.838399 -0.0101699 0)
(0.845006 -0.0101401 0)
(0.851521 -0.0106419 0)
(0.856649 -0.0114085 0)
(0.860304 -0.0121057 0)
(0.862597 -0.0126212 0)
(0.864103 -0.0128484 0)
(0.865451 -0.0128591 0)
(0.866708 -0.0129785 0)
(0.867799 -0.0134312 0)
(0.868828 -0.0140598 0)
(0.869837 -0.0145696 0)
(0.870861 -0.014702 0)
(0.87205 -0.0142619 0)
(0.873573 -0.0130836 0)
(0.87576 -0.0113455 0)
(0.878796 -0.00920366 0)
(0.882576 -0.00690222 0)
(0.886754 -0.00492541 0)
(0.891122 -0.00372861 0)
(0.895645 -0.00358695 0)
(0.900664 -0.00444705 0)
(0.906104 -0.00595637 0)
(0.911281 -0.00773933 0)
(0.915427 -0.00941684 0)
(0.917568 -0.0105022 0)
(0.918975 -0.0112263 0)
(0.920443 -0.0118045 0)
(0.922109 -0.0121634 0)
(0.924029 -0.0123817 0)
(0.926236 -0.0126502 0)
(0.928382 -0.0131774 0)
(0.930206 -0.013872 0)
(0.931852 -0.0144886 0)
(0.933398 -0.0148486 0)
(0.934752 -0.014912 0)
(0.936022 -0.0146142 0)
(0.937478 -0.0139355 0)
(0.939265 -0.0130082 0)
(0.941705 -0.011838 0)
(0.945066 -0.0104885 0)
(0.949478 -0.00915477 0)
(0.954884 -0.0082319 0)
(0.960792 -0.008032 0)
(0.966407 -0.00854489 0)
(0.971134 -0.00952761 0)
(0.974977 -0.0106121 0)
(0.978137 -0.0114457 0)
(0.98094 -0.0119115 0)
(0.983462 -0.0119563 0)
(0.9857 -0.0115691 0)
(0.987915 -0.0109019 0)
(0.990466 -0.0101401 0)
(0.993646 -0.009468 0)
(0.997392 -0.00902252 0)
(1.00137 -0.00895044 0)
(1.00513 -0.00943301 0)
(1.00811 -0.010215 0)
(1.01016 -0.0106671 0)
(1.0117 -0.0107635 0)
(1.01296 -0.0108004 0)
(1.01357 -0.0107416 0)
(1.01349 -0.010325 0)
(1.0139 -0.00927576 0)
(1.01534 -0.00806741 0)
(1.0176 -0.00658478 0)
(1.02104 -0.00468351 0)
(1.02597 -0.00255884 0)
(1.03234 -0.000411657 0)
(1.03803 0.0010479 0)
(1.04181 0.00122222 0)
(1.04394 0.000642066 0)
(1.04514 -0.000928115 0)
(1.04561 -0.00343561 0)
(1.04614 -0.00665567 0)
(1.04736 -0.00996646 0)
(1.04959 -0.0127866 0)
(1.05309 -0.0150385 0)
(1.05759 -0.0164228 0)
(1.06255 -0.0166595 0)
(1.06682 -0.0161574 0)
(1.06984 -0.0151484 0)
(1.07212 -0.0139601 0)
(1.07397 -0.0128786 0)
(1.07544 -0.0118981 0)
(1.07626 -0.0106856 0)
(1.07615 -0.00911552 0)
(1.07548 -0.00734019 0)
(1.07489 -0.00552375 0)
(1.07504 -0.00382621 0)
(1.0764 -0.0023329 0)
(1.07866 -0.000819433 0)
(1.08169 0.00127323 0)
(1.08545 0.00377008 0)
(1.08964 0.00573911 0)
(1.0939 0.00622685 0)
(1.09839 0.00471119 0)
(1.10354 0.00113519 0)
(1.10886 -0.00336788 0)
(1.1131 -0.00689794 0)
(1.11619 -0.0085879 0)
(1.11847 -0.00878165 0)
(1.12055 -0.00788271 0)
(1.12281 -0.00601399 0)
(1.12518 -0.00376928 0)
(1.12772 -0.00181479 0)
(1.13042 -0.000636954 0)
(1.13278 -0.000583357 0)
(1.13444 -0.00149468 0)
(1.13545 -0.0034055 0)
(1.13539 -0.00628555 0)
(1.13416 -0.00971731 0)
(1.13232 -0.0128791 0)
(1.13065 -0.0150641 0)
(1.1297 -0.0156152 0)
(1.13034 -0.0147737 0)
(1.13204 -0.0133755 0)
(1.13419 -0.011944 0)
(1.13698 -0.0113986 0)
(1.14078 -0.0117156 0)
(1.14588 -0.0120294 0)
(1.15176 -0.0115273 0)
(1.15722 -0.0100828 0)
(1.16151 -0.00780219 0)
(1.16445 -0.00474739 0)
(1.1664 -0.00103133 0)
(1.1675 0.00297853 0)
(1.16843 0.00645638 0)
(1.16996 0.00805223 0)
(1.1719 0.00780469 0)
(1.17474 0.00580512 0)
(1.17806 0.00263718 0)
(1.18153 -0.000976769 0)
(1.185 -0.00449883 0)
(1.18826 -0.00702065 0)
(1.19089 -0.00801401 0)
(1.1925 -0.00774991 0)
(1.19323 -0.00618367 0)
(1.19233 -0.00334442 0)
(1.19046 -0.000391539 0)
(1.18916 0.00117733 0)
(1.18955 0.00109809 0)
(1.19131 0.000444912 0)
(1.19475 -0.00148604 0)
(1.20135 -0.00480444 0)
(1.21121 -0.00851134 0)
(1.22288 -0.012164 0)
(1.23286 -0.0148122 0)
(1.23868 -0.0155161 0)
(1.24171 -0.0149046 0)
(1.24354 -0.0134824 0)
(1.24304 -0.0109308 0)
(1.23938 -0.0080143 0)
(1.23447 -0.00651913 0)
(1.23266 -0.00764974 0)
(1.23401 -0.00918992 0)
(1.23632 -0.0106808 0)
(1.23979 -0.0124329 0)
(1.24422 -0.0132166 0)
(1.24899 -0.0121443 0)
(1.25329 -0.00906166 0)
(1.25664 -0.00485581 0)
(1.25862 -0.000995558 0)
(1.25886 0.00238932 0)
(1.25804 0.00494095 0)
(1.25856 0.00601709 0)
(1.26057 0.00607339 0)
(1.26364 0.00468634 0)
(1.26862 0.000746755 0)
(1.27577 -0.00473428 0)
(1.28377 -0.00927276 0)
(1.29178 -0.0114556 0)
(1.29981 -0.0103936 0)
(1.30709 -0.00584295 0)
(1.31224 0.000607346 0)
(1.3151 0.00703691 0)
(1.31528 0.0141549 0)
(1.31247 0.0204788 0)
(1.30974 0.0216653 0)
(1.30821 0.01712 0)
(1.30576 0.00947417 0)
(1.3022 -0.000638307 0)
(1.30069 -0.00991454 0)
(1.30265 -0.0162231 0)
(1.30781 -0.0215626 0)
(1.31459 -0.0257593 0)
(1.32004 -0.0262467 0)
(1.32357 -0.0236139 0)
(1.32581 -0.0188104 0)
(1.32689 -0.0120089 0)
(1.32535 -0.00357099 0)
(1.32068 0.00442737 0)
(1.31618 0.00881063 0)
(1.31495 0.00934178 0)
(1.31664 0.00786067 0)
(1.31949 0.00454706 0)
(1.32474 -0.000430294 0)
(1.33439 -0.0061709 0)
(1.34685 -0.0103206 0)
(1.3579 -0.0101873 0)
(1.36603 -0.00615047 0)
(1.37141 -0.000658019 0)
(1.37427 0.00409213 0)
(1.37472 0.00861039 0)
(1.36992 0.0134814 0)
(1.36032 0.0160818 0)
(1.35326 0.0141417 0)
(1.35183 0.00960933 0)
(1.35319 0.00538744 0)
(1.35639 0.00134759 0)
(1.36283 -0.00249382 0)
(1.37119 -0.00406723 0)
(1.37754 -0.0031967 0)
(1.38044 -0.00146639 0)
(1.382 -0.000113447 0)