/*--------------------------------*- C++ -*----------------------------------*\
  =========                 |
  \\      /  F ield         | OpenFOAM: The Open Source CFD Toolbox
   \\    /   O peration     | Website:  https://openfoam.org
    \\  /    A nd           | Version:  7
     \\/     M anipulation  |
\*---------------------------------------------------------------------------*/
FoamFile
{
    version     2.0;
    format      ascii;
    class       volVectorField;
    location    "2.6";
    object      U;
}
// * * * * * * * * * * * * * * * * * * * * * * * * * * * * * * * * * * * * * //

dimensions      [0 1 -1 0 0 0 0];

internalField   nonuniform List<vector> 
4128
(
(2.16734 0.667143 0)
(2.18384 0.650834 0)
(2.19441 0.645803 0)
(2.20039 0.648751 0)
(2.20922 0.640052 0)
(2.22453 0.619961 0)
(2.23409 0.60258 0)
(2.23692 0.597625 0)
(2.23615 0.596066 0)
(2.23229 0.582623 0)
(2.24139 0.556382 0)
(2.25643 0.536616 0)
(2.26768 0.530861 0)
(2.27632 0.533494 0)
(2.28577 0.529877 0)
(2.29994 0.516781 0)
(2.31043 0.501787 0)
(2.31742 0.498064 0)
(2.32334 0.493911 0)
(2.33338 0.479917 0)
(2.34077 0.466394 0)
(2.344 0.45719 0)
(2.34298 0.43945 0)
(2.34483 0.420305 0)
(2.35246 0.412716 0)
(2.36071 0.410389 0)
(2.37252 0.405386 0)
(2.38497 0.398029 0)
(2.39572 0.391155 0)
(2.4063 0.384384 0)
(2.41608 0.376761 0)
(2.4228 0.366017 0)
(2.41752 0.346708 0)
(2.40294 0.323031 0)
(2.40832 0.316505 0)
(2.41821 0.312788 0)
(2.43003 0.306754 0)
(2.44386 0.302431 0)
(2.4568 0.298436 0)
(2.46923 0.293866 0)
(2.48064 0.288421 0)
(2.49008 0.282697 0)
(2.49623 0.275051 0)
(2.49372 0.258935 0)
(2.47718 0.231828 0)
(2.46933 0.213114 0)
(2.47692 0.211667 0)
(2.48688 0.208805 0)
(2.50114 0.206623 0)
(2.5183 0.203534 0)
(2.52736 0.200066 0)
(2.54089 0.197971 0)
(2.55239 0.19446 0)
(2.56126 0.189262 0)
(2.5651 0.180659 0)
(2.5575 0.163339 0)
(2.53709 0.137792 0)
(2.53176 0.122779 0)
(2.53855 0.121297 0)
(2.5475 0.118686 0)
(2.56106 0.117351 0)
(2.57563 0.115689 0)
(2.58602 0.111525 0)
(2.59299 0.107432 0)
(2.60059 0.103279 0)
(2.60715 0.0978844 0)
(2.6081 0.0886414 0)
(2.59633 0.0700947 0)
(2.58187 0.0509073 0)
(2.58552 0.0473257 0)
(2.59233 0.0466523 0)
(2.60293 0.0444057 0)
(2.61435 0.0418824 0)
(2.62545 0.0385942 0)
(2.63212 0.0341643 0)
(2.63618 0.0310551 0)
(2.64142 0.0280214 0)
(2.64469 0.0223427 0)
(2.64037 0.00603358 0)
(2.62439 -0.0273068 0)
(2.59255 -0.0698093 0)
(2.4624 -0.242224 0)
(2.24482 -0.545646 0)
(2.19402 -0.599941 0)
(2.18409 -0.588943 0)
(2.18769 -0.587828 0)
(2.19346 -0.600829 0)
(2.1866 -0.631672 0)
(2.17454 -0.65194 0)
(2.18146 -0.65618 0)
(2.1953 -0.652543 0)
(2.21513 -0.639857 0)
(2.23395 -0.636148 0)
(2.24249 -0.640912 0)
(2.24227 -0.650195 0)
(2.22993 -0.668084 0)
(2.19829 -0.704526 0)
(2.13718 -0.761991 0)
(2.09229 -0.788163 0)
(2.06241 -0.818853 0)
(2.06784 -0.836733 0)
(2.07726 -0.839914 0)
(2.09173 -0.837093 0)
(2.10701 -0.831337 0)
(2.12007 -0.83192 0)
(2.13059 -0.835893 0)
(2.13676 -0.839268 0)
(2.1373 -0.843168 0)
(2.14056 -0.847304 0)
(2.14907 -0.850689 0)
(2.15806 -0.852772 0)
(2.17376 -0.852492 0)
(2.19247 -0.848879 0)
(2.20093 -0.848953 0)
(2.20897 -0.852327 0)
(2.21215 -0.855675 0)
(2.21123 -0.858632 0)
(2.21622 -0.860606 0)
(2.22349 -0.862034 0)
(2.23163 -0.861944 0)
(2.24239 -0.861209 0)
(2.25125 -0.860506 0)
(2.25942 -0.862286 0)
(2.26698 -0.864357 0)
(2.27132 -0.86674 0)
(2.2735 -0.869054 0)
(2.28054 -0.869149 0)
(2.28866 -0.867766 0)
(2.29647 -0.866581 0)
(2.17083 0.680319 0)
(2.18716 0.662707 0)
(2.19772 0.659852 0)
(2.20553 0.658536 0)
(2.21819 0.645694 0)
(2.22999 0.626252 0)
(2.2341 0.61538 0)
(2.23258 0.613299 0)
(2.22911 0.604852 0)
(2.22762 0.582418 0)
(2.24489 0.56451 0)
(2.25914 0.549839 0)
(2.27004 0.54794 0)
(2.2784 0.549 0)
(2.29125 0.542479 0)
(2.30534 0.527016 0)
(2.31424 0.514912 0)
(2.31921 0.514421 0)
(2.32417 0.510378 0)
(2.33323 0.494306 0)
(2.33798 0.478991 0)
(2.3372 0.467234 0)
(2.33769 0.448453 0)
(2.34655 0.434434 0)
(2.35583 0.428127 0)
(2.36483 0.425153 0)
(2.37616 0.419213 0)
(2.38816 0.410723 0)
(2.39829 0.403641 0)
(2.40811 0.396706 0)
(2.41631 0.388025 0)
(2.41875 0.37512 0)
(2.40688 0.353494 0)
(2.40048 0.336011 0)
(2.41054 0.333449 0)
(2.42151 0.329727 0)
(2.43301 0.323423 0)
(2.44569 0.318049 0)
(2.45927 0.313331 0)
(2.47163 0.307547 0)
(2.48207 0.301408 0)
(2.48969 0.295248 0)
(2.49063 0.28453 0)
(2.47797 0.260732 0)
(2.46314 0.236445 0)
(2.46898 0.231839 0)
(2.47845 0.229947 0)
(2.49072 0.226524 0)
(2.50784 0.223976 0)
(2.52066 0.219689 0)
(2.53099 0.216578 0)
(2.54346 0.213681 0)
(2.55398 0.20925 0)
(2.56053 0.201796 0)
(2.55746 0.187344 0)
(2.53908 0.162551 0)
(2.52695 0.142812 0)
(2.53294 0.140012 0)
(2.54086 0.138247 0)
(2.55323 0.136589 0)
(2.56781 0.135575 0)
(2.58031 0.132758 0)
(2.58867 0.128476 0)
(2.59577 0.124756 0)
(2.60259 0.119752 0)
(2.60589 0.111148 0)
(2.59849 0.0940653 0)
(2.58056 0.0716695 0)
(2.57954 0.0629003 0)
(2.58578 0.062862 0)
(2.59427 0.0616039 0)
(2.60583 0.0596746 0)
(2.61731 0.0574609 0)
(2.6271 0.0533858 0)
(2.63161 0.0497706 0)
(2.63728 0.0466596 0)
(2.64125 0.0419427 0)
(2.63868 0.0291101 0)
(2.61714 -0.0164793 0)
(2.57131 -0.0845402 0)
(2.42169 -0.285278 0)
(2.28866 -0.436809 0)
(2.19451 -0.591971 0)
(2.14832 -0.62558 0)
(2.15623 -0.611751 0)
(2.17163 -0.592234 0)
(2.1892 -0.59684 0)
(2.19813 -0.612111 0)
(2.19171 -0.625216 0)
(2.19285 -0.628382 0)
(2.20195 -0.628932 0)
(2.21761 -0.623514 0)
(2.23694 -0.622697 0)
(2.24681 -0.629783 0)
(2.24173 -0.643478 0)
(2.21176 -0.676773 0)
(2.15929 -0.730212 0)
(2.10019 -0.774259 0)
(2.06058 -0.806443 0)
(2.06837 -0.817187 0)
(2.08019 -0.82153 0)
(2.09325 -0.822364 0)
(2.10845 -0.820612 0)
(2.12136 -0.81981 0)
(2.13122 -0.822839 0)
(2.13974 -0.826214 0)
(2.14205 -0.830486 0)
(2.14124 -0.837385 0)
(2.14867 -0.841407 0)
(2.15763 -0.8429 0)
(2.16878 -0.841435 0)
(2.187 -0.837488 0)
(2.20026 -0.834111 0)
(2.20773 -0.836172 0)
(2.21404 -0.839835 0)
(2.21469 -0.843857 0)
(2.21575 -0.846952 0)
(2.22296 -0.848174 0)
(2.23088 -0.848499 0)
(2.23995 -0.847004 0)
(2.25048 -0.845541 0)
(2.25861 -0.847257 0)
(2.26665 -0.850471 0)
(2.27329 -0.853628 0)
(2.27715 -0.855622 0)
(2.2809 -0.855134 0)
(2.28856 -0.854386 0)
(2.29614 -0.853845 0)
(2.30396 -0.85411 0)
(2.17526 0.690346 0)
(2.19123 0.673509 0)
(2.2009 0.671992 0)
(2.2106 0.666864 0)
(2.2235 0.651988 0)
(2.23125 0.635872 0)
(2.23048 0.63055 0)
(2.22584 0.62576 0)
(2.22125 0.607324 0)
(2.22996 0.589494 0)
(2.24868 0.576412 0)
(2.26241 0.563738 0)
(2.27221 0.564064 0)
(2.28191 0.562589 0)
(2.29673 0.553962 0)
(2.30931 0.538724 0)
(2.31671 0.531664 0)
(2.32013 0.532481 0)
(2.32529 0.525048 0)
(2.3329 0.503814 0)
(2.33476 0.485178 0)
(2.33195 0.471414 0)
(2.33814 0.456997 0)
(2.34937 0.449168 0)
(2.35852 0.444493 0)
(2.36813 0.440509 0)
(2.37956 0.433138 0)
(2.39126 0.423315 0)
(2.40109 0.415533 0)
(2.41018 0.40777 0)
(2.41609 0.39783 0)
(2.41326 0.383793 0)
(2.39997 0.364597 0)
(2.4015 0.353416 0)
(2.41222 0.350281 0)
(2.42415 0.346351 0)
(2.43642 0.339191 0)
(2.44844 0.332567 0)
(2.46216 0.326651 0)
(2.47384 0.319884 0)
(2.4828 0.313441 0)
(2.48683 0.306112 0)
(2.47905 0.289655 0)
(2.46074 0.263305 0)
(2.46039 0.251749 0)
(2.46992 0.250717 0)
(2.48215 0.247284 0)
(2.4964 0.244167 0)
(2.51297 0.240367 0)
(2.52238 0.235653 0)
(2.53404 0.2323 0)
(2.54533 0.228265 0)
(2.55422 0.221921 0)
(2.55562 0.210154 0)
(2.54192 0.187815 0)
(2.5244 0.164722 0)
(2.52732 0.158391 0)
(2.53482 0.157195 0)
(2.54586 0.155403 0)
(2.56024 0.154458 0)
(2.57238 0.152798 0)
(2.58359 0.149251 0)
(2.59108 0.145229 0)
(2.59796 0.141316 0)
(2.60298 0.13443 0)
(2.60032 0.119821 0)
(2.58357 0.0959443 0)
(2.57512 0.0805157 0)
(2.58061 0.0791847 0)
(2.58809 0.0781141 0)
(2.597 0.0758232 0)
(2.60817 0.0744178 0)
(2.61919 0.072192 0)
(2.62704 0.0681712 0)
(2.633 0.065641 0)
(2.63787 0.0612087 0)
(2.63661 0.0514069 0)
(2.6112 -0.000304848 0)
(2.53838 -0.100058 0)
(2.38259 -0.325604 0)
(2.26479 -0.45992 0)
(2.18073 -0.56317 0)
(2.16228 -0.616286 0)
(2.16061 -0.617121 0)
(2.16582 -0.606365 0)
(2.1765 -0.58931 0)
(2.19121 -0.591371 0)
(2.20179 -0.599979 0)
(2.20528 -0.60694 0)
(2.20734 -0.608349 0)
(2.21536 -0.608733 0)
(2.22543 -0.610498 0)
(2.23544 -0.616696 0)
(2.24288 -0.627208 0)
(2.22486 -0.651507 0)
(2.17947 -0.699834 0)
(2.11925 -0.746262 0)
(2.06491 -0.788331 0)
(2.06027 -0.813823 0)
(2.07049 -0.816634 0)
(2.08843 -0.813207 0)
(2.10822 -0.802365 0)
(2.12348 -0.799231 0)
(2.13369 -0.804053 0)
(2.1418 -0.810668 0)
(2.14504 -0.818584 0)
(2.14351 -0.825591 0)
(2.14704 -0.828101 0)
(2.15632 -0.829176 0)
(2.16619 -0.828239 0)
(2.18164 -0.825099 0)
(2.19821 -0.819494 0)
(2.20597 -0.819427 0)
(2.21381 -0.822873 0)
(2.21733 -0.826834 0)
(2.217 -0.831359 0)
(2.22194 -0.833923 0)
(2.22982 -0.834675 0)
(2.23845 -0.833632 0)
(2.24898 -0.832022 0)
(2.25783 -0.831443 0)
(2.26619 -0.833831 0)
(2.2736 -0.836073 0)
(2.27855 -0.838358 0)
(2.28145 -0.84148 0)
(2.28812 -0.843925 0)
(2.29571 -0.844389 0)
(2.30396 -0.842493 0)
(2.31214 -0.840302 0)
(2.18142 0.694805 0)
(2.19527 0.683803 0)
(2.20262 0.682893 0)
(2.21318 0.675196 0)
(2.22459 0.659463 0)
(2.22938 0.647339 0)
(2.22589 0.642975 0)
(2.2197 0.630091 0)
(2.2199 0.608472 0)
(2.23623 0.601049 0)
(2.25352 0.585873 0)
(2.26536 0.57938 0)
(2.27317 0.580855 0)
(2.28489 0.577604 0)
(2.30039 0.566517 0)
(2.31226 0.551918 0)
(2.31893 0.54836 0)
(2.32204 0.547494 0)
(2.32675 0.533762 0)
(2.32972 0.508927 0)
(2.32902 0.4915 0)
(2.32864 0.480732 0)
(2.3396 0.472931 0)
(2.35077 0.466889 0)
(2.36074 0.4612 0)
(2.37113 0.454601 0)
(2.38277 0.445157 0)
(2.39407 0.434766 0)
(2.40371 0.427197 0)
(2.41208 0.418655 0)
(2.4146 0.407921 0)
(2.40663 0.394594 0)
(2.39695 0.379369 0)
(2.40364 0.370201 0)
(2.4148 0.365704 0)
(2.4275 0.36082 0)
(2.44083 0.352936 0)
(2.4521 0.346151 0)
(2.46481 0.339719 0)
(2.47537 0.332333 0)
(2.48196 0.324977 0)
(2.4798 0.314428 0)
(2.46285 0.292495 0)
(2.45365 0.272638 0)
(2.46259 0.270428 0)
(2.47307 0.267311 0)
(2.48672 0.264105 0)
(2.5019 0.261008 0)
(2.51532 0.2558 0)
(2.52504 0.251135 0)
(2.53603 0.246888 0)
(2.54615 0.241111 0)
(2.55141 0.231333 0)
(2.54379 0.212315 0)
(2.52429 0.188177 0)
(2.52214 0.177588 0)
(2.52936 0.176609 0)
(2.53902 0.174147 0)
(2.55341 0.173217 0)
(2.56385 0.171508 0)
(2.57607 0.169396 0)
(2.5861 0.164832 0)
(2.59305 0.161119 0)
(2.59913 0.156042 0)
(2.60011 0.144896 0)
(2.58831 0.121976 0)
(2.57407 0.101255 0)
(2.57772 0.0975104 0)
(2.58277 0.0960964 0)
(2.59253 0.0931021 0)
(2.59901 0.0909206 0)
(2.61015 0.0889673 0)
(2.62058 0.0857466 0)
(2.62831 0.0839473 0)
(2.63339 0.0803888 0)
(2.63178 0.0697573 0)
(2.60768 0.0152201 0)
(2.53252 -0.0874866 0)
(2.34114 -0.316264 0)
(2.1761 -0.58222 0)
(2.16005 -0.562033 0)
(2.17979 -0.551342 0)
(2.1851 -0.558576 0)
(2.18564 -0.573664 0)
(2.18437 -0.577513 0)
(2.18607 -0.581533 0)
(2.19136 -0.587845 0)
(2.19967 -0.59315 0)
(2.20809 -0.596272 0)
(2.21705 -0.598626 0)
(2.22603 -0.599574 0)
(2.2331 -0.598871 0)
(2.23951 -0.604137 0)
(2.23041 -0.622391 0)
(2.19123 -0.668938 0)
(2.14209 -0.719228 0)
(2.08155 -0.756486 0)
(2.06097 -0.797632 0)
(2.066 -0.807399 0)
(2.07767 -0.806299 0)
(2.09997 -0.797284 0)
(2.12216 -0.787628 0)
(2.13428 -0.78775 0)
(2.14403 -0.792692 0)
(2.14879 -0.798413 0)
(2.1467 -0.806835 0)
(2.1455 -0.816749 0)
(2.15332 -0.820598 0)
(2.16228 -0.820665 0)
(2.17602 -0.816823 0)
(2.19469 -0.809059 0)
(2.20483 -0.806002 0)
(2.21329 -0.808831 0)
(2.21873 -0.812441 0)
(2.21938 -0.817103 0)
(2.22154 -0.820185 0)
(2.22926 -0.820902 0)
(2.23768 -0.820885 0)
(2.24772 -0.819169 0)
(2.25733 -0.817299 0)
(2.26579 -0.819017 0)
(2.27357 -0.821037 0)
(2.27917 -0.82342 0)
(2.28229 -0.826517 0)
(2.28694 -0.82824 0)
(2.29426 -0.828872 0)
(2.30228 -0.828587 0)
(2.31134 -0.827484 0)
(2.31955 -0.827168 0)
(2.18678 0.697279 0)
(2.19574 0.696435 0)
(2.20061 0.695675 0)
(2.2119 0.685523 0)
(2.22205 0.668658 0)
(2.22471 0.658743 0)
(2.22008 0.651156 0)
(2.21448 0.631786 0)
(2.22453 0.62047 0)
(2.24262 0.611723 0)
(2.25725 0.598382 0)
(2.26625 0.598122 0)
(2.27325 0.597734 0)
(2.28749 0.591953 0)
(2.30329 0.577131 0)
(2.31446 0.564786 0)
(2.3199 0.56394 0)
(2.32246 0.559001 0)
(2.32552 0.536459 0)
(2.32545 0.510686 0)
(2.32484 0.50052 0)
(2.32982 0.494394 0)
(2.34241 0.488924 0)
(2.35382 0.48162 0)
(2.36372 0.47493 0)
(2.37396 0.466446 0)
(2.3851 0.456423 0)
(2.39649 0.446047 0)
(2.40624 0.438515 0)
(2.41335 0.429804 0)
(2.41174 0.418847 0)
(2.40006 0.406291 0)
(2.3961 0.393239 0)
(2.40687 0.385966 0)
(2.41798 0.380648 0)
(2.43148 0.374902 0)
(2.44509 0.36675 0)
(2.45587 0.359545 0)
(2.46709 0.352524 0)
(2.47598 0.344933 0)
(2.47892 0.336131 0)
(2.46862 0.320631 0)
(2.45099 0.297708 0)
(2.45607 0.289844 0)
(2.46603 0.288035 0)
(2.47731 0.283839 0)
(2.49113 0.280136 0)
(2.50552 0.276278 0)
(2.51713 0.270654 0)
(2.52696 0.265577 0)
(2.53704 0.260011 0)
(2.54495 0.25171 0)
(2.54316 0.23602 0)
(2.52608 0.21224 0)
(2.51751 0.197259 0)
(2.52476 0.196566 0)
(2.53298 0.19412 0)
(2.54628 0.191451 0)
(2.55657 0.190257 0)
(2.56744 0.188325 0)
(2.57944 0.184763 0)
(2.58777 0.179727 0)
(2.59434 0.175334 0)
(2.59754 0.167155 0)
(2.59064 0.147946 0)
(2.57477 0.123464 0)
(2.57586 0.115599 0)
(2.58166 0.115404 0)
(2.58761 0.113553 0)
(2.59641 0.108642 0)
(2.60191 0.106606 0)
(2.61237 0.103168 0)
(2.62254 0.100835 0)
(2.62802 0.0991673 0)
(2.6248 0.0823404 0)
(2.59671 0.0247632 0)
(2.50944 -0.11948 0)
(2.32781 -0.323755 0)
(2.17317 -0.51483 0)
(2.14785 -0.56804 0)
(2.15968 -0.555662 0)
(2.17445 -0.547196 0)
(2.18749 -0.540175 0)
(2.19619 -0.544735 0)
(2.19718 -0.562302 0)
(2.19008 -0.579324 0)
(2.18877 -0.590082 0)
(2.19919 -0.593544 0)
(2.21155 -0.592981 0)
(2.22343 -0.587499 0)
(2.23426 -0.585264 0)
(2.24265 -0.590133 0)
(2.23736 -0.603441 0)
(2.20425 -0.640035 0)
(2.15348 -0.696831 0)
(2.09805 -0.736704 0)
(2.06777 -0.772865 0)
(2.06729 -0.789754 0)
(2.07514 -0.792254 0)
(2.09172 -0.788881 0)
(2.11484 -0.779373 0)
(2.13204 -0.773962 0)
(2.14288 -0.777093 0)
(2.15069 -0.781744 0)
(2.15049 -0.790448 0)
(2.14637 -0.801417 0)
(2.15167 -0.806225 0)
(2.15968 -0.807191 0)
(2.17046 -0.805156 0)
(2.18861 -0.800003 0)
(2.20341 -0.795131 0)
(2.21155 -0.796369 0)
(2.21921 -0.799033 0)
(2.22169 -0.803025 0)
(2.22225 -0.807912 0)
(2.22926 -0.810102 0)
(2.23782 -0.810583 0)
(2.24753 -0.8088 0)
(2.25784 -0.806184 0)
(2.26632 -0.806547 0)
(2.27429 -0.807405 0)
(2.28011 -0.808033 0)
(2.28288 -0.809786 0)
(2.28571 -0.812841 0)
(2.29282 -0.814936 0)
(2.30021 -0.815815 0)
(2.30879 -0.815522 0)
(2.31827 -0.814001 0)
(2.32664 -0.812992 0)
(2.18769 0.707389 0)
(2.19124 0.711816 0)
(2.19785 0.708227 0)
(2.21022 0.693452 0)
(2.21862 0.675355 0)
(2.21909 0.667087 0)
(2.21401 0.655833 0)
(2.21566 0.637623 0)
(2.23198 0.632669 0)
(2.24932 0.619182 0)
(2.26085 0.613218 0)
(2.26608 0.616579 0)
(2.27347 0.613967 0)
(2.28969 0.604208 0)
(2.30477 0.586719 0)
(2.31443 0.578287 0)
(2.31896 0.576591 0)
(2.32231 0.56128 0)
(2.32279 0.53283 0)
(2.32165 0.517975 0)
(2.32179 0.516657 0)
(2.33134 0.512948 0)
(2.34506 0.505074 0)
(2.3557 0.496723 0)
(2.36422 0.489643 0)
(2.37595 0.478155 0)
(2.38728 0.467116 0)
(2.39859 0.457215 0)
(2.40749 0.45074 0)
(2.41202 0.442832 0)
(2.4061 0.431509 0)
(2.39378 0.417288 0)
(2.39745 0.405083 0)
(2.41145 0.399808 0)
(2.42236 0.393655 0)
(2.43597 0.386997 0)
(2.44873 0.379447 0)
(2.45816 0.372823 0)
(2.46755 0.366117 0)
(2.47488 0.358553 0)
(2.47443 0.345993 0)
(2.45903 0.325711 0)
(2.44992 0.308754 0)
(2.46045 0.305682 0)
(2.4709 0.303931 0)
(2.48177 0.299385 0)
(2.49449 0.294976 0)
(2.50777 0.290584 0)
(2.51876 0.284699 0)
(2.52824 0.278754 0)
(2.53687 0.271536 0)
(2.53985 0.259016 0)
(2.52857 0.237053 0)
(2.51429 0.217686 0)
(2.51947 0.214829 0)
(2.52801 0.2143 0)
(2.53839 0.211875 0)
(2.5514 0.208314 0)
(2.55876 0.20676 0)
(2.57117 0.204005 0)
(2.58158 0.199366 0)
(2.58882 0.193727 0)
(2.59324 0.186648 0)
(2.59021 0.171272 0)
(2.57583 0.14787 0)
(2.57185 0.133704 0)
(2.57956 0.133287 0)
(2.58669 0.132906 0)
(2.59358 0.130785 0)
(2.59983 0.125825 0)
(2.60579 0.122371 0)
(2.61623 0.118394 0)
(2.62311 0.117399 0)
(2.61542 0.0963879 0)
(2.58895 0.0299765 0)
(2.4367 -0.184088 0)
(2.32319 -0.34032 0)
(2.2037 -0.453713 0)
(2.14778 -0.562389 0)
(2.13481 -0.574621 0)
(2.1414 -0.564632 0)
(2.1667 -0.545836 0)
(2.18607 -0.535348 0)
(2.20289 -0.539181 0)
(2.20761 -0.546445 0)
(2.19863 -0.559857 0)
(2.19479 -0.570896 0)
(2.20402 -0.574824 0)
(2.21463 -0.574941 0)
(2.22773 -0.57039 0)
(2.24354 -0.571097 0)
(2.24567 -0.581293 0)
(2.21857 -0.615028 0)
(2.16836 -0.669746 0)
(2.11507 -0.716603 0)
(2.07171 -0.753433 0)
(2.06866 -0.770296 0)
(2.07758 -0.77347 0)
(2.091 -0.771357 0)
(2.11079 -0.763486 0)
(2.12993 -0.760744 0)
(2.14028 -0.76385 0)
(2.14953 -0.769193 0)
(2.15248 -0.774915 0)
(2.14806 -0.782771 0)
(2.15058 -0.789233 0)
(2.15871 -0.791516 0)
(2.16799 -0.791311 0)
(2.18394 -0.788053 0)
(2.20102 -0.782237 0)
(2.20958 -0.782164 0)
(2.2185 -0.786027 0)
(2.22328 -0.791087 0)
(2.2239 -0.796086 0)
(2.22911 -0.798089 0)
(2.23774 -0.798509 0)
(2.24747 -0.797041 0)
(2.25871 -0.794545 0)
(2.2675 -0.794079 0)
(2.276 -0.795106 0)
(2.28268 -0.795872 0)
(2.28597 -0.797602 0)
(2.28679 -0.79998 0)
(2.29141 -0.80079 0)
(2.29869 -0.80101 0)
(2.30645 -0.800888 0)
(2.31561 -0.799954 0)
(2.32485 -0.798924 0)
(2.33307 -0.800247 0)
(2.18606 0.721653 0)
(2.18765 0.725828 0)
(2.19664 0.718741 0)
(2.2082 0.699363 0)
(2.21345 0.681775 0)
(2.21214 0.674882 0)
(2.20975 0.660745 0)
(2.22297 0.649888 0)
(2.24098 0.639939 0)
(2.25374 0.630586 0)
(2.26045 0.633849 0)
(2.26163 0.636499 0)
(2.27312 0.629923 0)
(2.2911 0.61352 0)
(2.30483 0.595347 0)
(2.31342 0.588457 0)
(2.31857 0.580745 0)
(2.3208 0.559267 0)
(2.3184 0.537474 0)
(2.31802 0.535332 0)
(2.32064 0.534945 0)
(2.33401 0.529428 0)
(2.34758 0.517443 0)
(2.35642 0.509632 0)
(2.36501 0.500628 0)
(2.37833 0.488022 0)
(2.38933 0.477658 0)
(2.39945 0.46997 0)
(2.40691 0.464157 0)
(2.40784 0.455969 0)
(2.39931 0.441394 0)
(2.39094 0.426094 0)
(2.4009 0.417001 0)
(2.41562 0.411807 0)
(2.42655 0.406066 0)
(2.43823 0.400279 0)
(2.44985 0.393555 0)
(2.45835 0.386386 0)
(2.46652 0.379128 0)
(2.47287 0.371017 0)
(2.47005 0.353659 0)
(2.45531 0.334699 0)
(2.45292 0.323996 0)
(2.46401 0.321896 0)
(2.47463 0.32014 0)
(2.48556 0.315019 0)
(2.4972 0.309355 0)
(2.51009 0.303761 0)
(2.52056 0.297452 0)
(2.52909 0.290463 0)
(2.53426 0.280481 0)
(2.52896 0.262117 0)
(2.51372 0.240674 0)
(2.51391 0.23378 0)
(2.52161 0.232969 0)
(2.53181 0.231159 0)
(2.54392 0.228895 0)
(2.55373 0.224794 0)
(2.56272 0.221931 0)
(2.57374 0.218603 0)
(2.58278 0.213529 0)
(2.58823 0.205614 0)
(2.5872 0.192104 0)
(2.576 0.170475 0)
(2.56861 0.154353 0)
(2.57436 0.152536 0)
(2.58212 0.149975 0)
(2.59071 0.14934 0)
(2.59865 0.146745 0)
(2.60407 0.143829 0)
(2.61127 0.138569 0)
(2.61954 0.136168 0)
(2.60904 0.113233 0)
(2.56044 0.0179354 0)
(2.44912 -0.152676 0)
(2.23576 -0.413085 0)
(2.12812 -0.54296 0)
(2.13879 -0.534122 0)
(2.16439 -0.521672 0)
(2.16619 -0.523207 0)
(2.16906 -0.527221 0)
(2.18059 -0.526981 0)
(2.19348 -0.527338 0)
(2.20387 -0.529945 0)
(2.20662 -0.534712 0)
(2.20332 -0.545561 0)
(2.20566 -0.555349 0)
(2.21437 -0.559403 0)
(2.2226 -0.560566 0)
(2.23648 -0.562941 0)
(2.24706 -0.569828 0)
(2.22756 -0.597185 0)
(2.18795 -0.646012 0)
(2.13013 -0.697727 0)
(2.07403 -0.73893 0)
(2.06703 -0.761025 0)
(2.07506 -0.762541 0)
(2.08852 -0.75988 0)
(2.10993 -0.750219 0)
(2.12972 -0.744764 0)
(2.14059 -0.74724 0)
(2.14994 -0.753254 0)
(2.15444 -0.759739 0)
(2.15104 -0.768154 0)
(2.15034 -0.775058 0)
(2.15857 -0.776958 0)
(2.1675 -0.776306 0)
(2.1813 -0.773448 0)
(2.19919 -0.768412 0)
(2.20899 -0.767766 0)
(2.2184 -0.77221 0)
(2.22411 -0.776847 0)
(2.22487 -0.780908 0)
(2.22856 -0.783683 0)
(2.23723 -0.784999 0)
(2.24659 -0.784829 0)
(2.25805 -0.783157 0)
(2.26851 -0.781322 0)
(2.27737 -0.782151 0)
(2.2853 -0.783431 0)
(2.29031 -0.7845 0)
(2.29079 -0.785936 0)
(2.29185 -0.787172 0)
(2.29831 -0.787487 0)
(2.30573 -0.787522 0)
(2.31371 -0.787036 0)
(2.32286 -0.785985 0)
(2.33102 -0.785838 0)
(2.33925 -0.787455 0)
(2.18275 0.737329 0)
(2.18495 0.739708 0)
(2.19592 0.7277 0)
(2.20522 0.704732 0)
(2.20758 0.689391 0)
(2.20691 0.681662 0)
(2.21476 0.667555 0)
(2.23422 0.657809 0)
(2.24813 0.647682 0)
(2.25645 0.647195 0)
(2.25669 0.655358 0)
(2.25756 0.652991 0)
(2.27406 0.640706 0)
(2.29166 0.618604 0)
(2.30366 0.602411 0)
(2.31147 0.594851 0)
(2.31676 0.582462 0)
(2.31754 0.562106 0)
(2.31568 0.551688 0)
(2.31623 0.554609 0)
(2.32206 0.552512 0)
(2.33694 0.541966 0)
(2.34848 0.52872 0)
(2.35566 0.520989 0)
(2.36602 0.51058 0)
(2.37974 0.498907 0)
(2.38975 0.490179 0)
(2.39843 0.484217 0)
(2.4034 0.479196 0)
(2.40025 0.468087 0)
(2.39355 0.447288 0)
(2.39294 0.435476 0)
(2.40391 0.429083 0)
(2.41839 0.423605 0)
(2.42877 0.418233 0)
(2.43843 0.413982 0)
(2.4495 0.407484 0)
(2.4579 0.399395 0)
(2.46574 0.390261 0)
(2.4703 0.381259 0)
(2.46468 0.36302 0)
(2.45481 0.348207 0)
(2.456 0.340244 0)
(2.46739 0.337134 0)
(2.4784 0.334473 0)
(2.48983 0.328366 0)
(2.50069 0.32215 0)
(2.5127 0.315858 0)
(2.52215 0.309404 0)
(2.5283 0.300835 0)
(2.52696 0.28631 0)
(2.51383 0.264136 0)
(2.50973 0.252791 0)
(2.51645 0.252466 0)
(2.5249 0.249493 0)
(2.53609 0.247208 0)
(2.54738 0.244164 0)
(2.55639 0.240135 0)
(2.5659 0.23634 0)
(2.57559 0.232127 0)
(2.58293 0.225813 0)
(2.58392 0.213559 0)
(2.57424 0.192526 0)
(2.56457 0.174126 0)
(2.56924 0.171024 0)
(2.57717 0.168857 0)
(2.5847 0.16577 0)
(2.5943 0.165204 0)
(2.60271 0.164129 0)
(2.60924 0.159992 0)
(2.6138 0.154891 0)
(2.60102 0.123654 0)
(2.5359 0.00895246 0)
(2.41173 -0.180002 0)
(2.20028 -0.421905 0)
(2.13552 -0.545741 0)
(2.11961 -0.524502 0)
(2.14814 -0.502205 0)
(2.16919 -0.48731 0)
(2.18426 -0.488968 0)
(2.19543 -0.495784 0)
(2.20045 -0.509363 0)
(2.20169 -0.520853 0)
(2.19862 -0.530582 0)
(2.19847 -0.540809 0)
(2.20799 -0.543267 0)
(2.21851 -0.542782 0)
(2.22588 -0.541342 0)
(2.23579 -0.541698 0)
(2.24474 -0.548734 0)
(2.23402 -0.571403 0)
(2.19326 -0.62255 0)
(2.14626 -0.675094 0)
(2.09373 -0.712874 0)
(2.07401 -0.744196 0)
(2.07565 -0.753323 0)
(2.08482 -0.752299 0)
(2.10332 -0.74329 0)
(2.12692 -0.732513 0)
(2.14043 -0.731488 0)
(2.15155 -0.737002 0)
(2.15791 -0.743362 0)
(2.15661 -0.750973 0)
(2.15292 -0.758328 0)
(2.15928 -0.761334 0)
(2.16802 -0.76201 0)
(2.17934 -0.760116 0)
(2.19667 -0.75647 0)
(2.20899 -0.754296 0)
(2.21833 -0.757334 0)
(2.22611 -0.760826 0)
(2.22744 -0.765733 0)
(2.22888 -0.771409 0)
(2.2368 -0.773247 0)
(2.2456 -0.772796 0)
(2.25622 -0.770405 0)
(2.26803 -0.767228 0)
(2.27722 -0.767191 0)
(2.28618 -0.769322 0)
(2.29352 -0.771341 0)
(2.29675 -0.773946 0)
(2.29612 -0.776241 0)
(2.2996 -0.776 0)
(2.30639 -0.774703 0)
(2.31386 -0.773245 0)
(2.32188 -0.770935 0)
(2.32926 -0.770019 0)
(2.33696 -0.771684 0)
(2.34448 -0.774041 0)
(2.18108 0.750404 0)
(2.18478 0.750095 0)
(2.19412 0.734863 0)
(2.19976 0.712908 0)
(2.20203 0.699639 0)
(2.20867 0.688105 0)
(2.22756 0.676211 0)
(2.24357 0.665362 0)
(2.25247 0.66102 0)
(2.25374 0.669524 0)
(2.24855 0.676201 0)
(2.25569 0.665932 0)
(2.27572 0.64562 0)
(2.29135 0.621982 0)
(2.30203 0.607906 0)
(2.3091 0.598733 0)
(2.31351 0.586011 0)
(2.31404 0.573328 0)
(2.31367 0.572357 0)
(2.31582 0.57357 0)
(2.32628 0.56607 0)
(2.34002 0.549533 0)
(2.34842 0.53798 0)
(2.35487 0.530675 0)
(2.36765 0.520837 0)
(2.38019 0.51043 0)
(2.38871 0.503333 0)
(2.39478 0.500139 0)
(2.39774 0.493323 0)
(2.39399 0.473114 0)
(2.39066 0.453062 0)
(2.39633 0.446255 0)
(2.40626 0.441719 0)
(2.41932 0.43597 0)
(2.42863 0.431197 0)
(2.43726 0.427533 0)
(2.44832 0.420895 0)
(2.45708 0.412206 0)
(2.46466 0.40184 0)
(2.4665 0.390865 0)
(2.45854 0.37281 0)
(2.45529 0.361112 0)
(2.45925 0.356047 0)
(2.47051 0.352053 0)
(2.48207 0.348772 0)
(2.4935 0.342045 0)
(2.50391 0.335342 0)
(2.51466 0.328515 0)
(2.52217 0.321673 0)
(2.52398 0.310165 0)
(2.51426 0.289255 0)
(2.50514 0.271588 0)
(2.51161 0.27036 0)
(2.51957 0.268881 0)
(2.52898 0.265251 0)
(2.53996 0.262074 0)
(2.54975 0.258567 0)
(2.55898 0.254502 0)
(2.5681 0.249918 0)
(2.57643 0.244219 0)
(2.58026 0.234783 0)
(2.5735 0.215817 0)
(2.56061 0.194378 0)
(2.56321 0.188138 0)
(2.57058 0.187586 0)
(2.58052 0.184616 0)
(2.58803 0.183123 0)
(2.59887 0.182237 0)
(2.60658 0.180938 0)
(2.60754 0.173572 0)
(2.59118 0.130573 0)
(2.51088 -0.0118803 0)
(2.31566 -0.285687 0)
(2.22167 -0.377682 0)
(2.17638 -0.444673 0)
(2.15183 -0.505981 0)
(2.13757 -0.517727 0)
(2.14606 -0.511329 0)
(2.16699 -0.492616 0)
(2.18386 -0.481878 0)
(2.19955 -0.484347 0)
(2.20912 -0.495515 0)
(2.20931 -0.512937 0)
(2.20263 -0.525228 0)
(2.20476 -0.529591 0)
(2.21615 -0.529155 0)
(2.22638 -0.523708 0)
(2.237 -0.52149 0)
(2.24669 -0.526385 0)
(2.24147 -0.544084 0)
(2.20223 -0.592007 0)
(2.15402 -0.649987 0)
(2.0999 -0.691002 0)
(2.07842 -0.727402 0)
(2.07725 -0.737933 0)
(2.08647 -0.739713 0)
(2.09933 -0.734243 0)
(2.12092 -0.724726 0)
(2.13904 -0.719471 0)
(2.15003 -0.722424 0)
(2.15932 -0.726548 0)
(2.16163 -0.731603 0)
(2.15742 -0.740475 0)
(2.16109 -0.746356 0)
(2.16934 -0.74794 0)
(2.17902 -0.746824 0)
(2.19429 -0.743563 0)
(2.20875 -0.740176 0)
(2.21794 -0.742791 0)
(2.22733 -0.748098 0)
(2.23206 -0.754164 0)
(2.23258 -0.758892 0)
(2.23764 -0.75977 0)
(2.24611 -0.759825 0)
(2.25556 -0.7588 0)
(2.26687 -0.756403 0)
(2.27644 -0.755311 0)
(2.2857 -0.756631 0)
(2.29366 -0.758206 0)
(2.2992 -0.760228 0)
(2.30116 -0.762731 0)
(2.30256 -0.764232 0)
(2.30838 -0.763834 0)
(2.31595 -0.762432 0)
(2.3232 -0.75959 0)
(2.32989 -0.757721 0)
(2.33649 -0.757556 0)
(2.34282 -0.758211 0)
(2.34866 -0.759669 0)
(2.17778 0.763866 0)
(2.18096 0.761119 0)
(2.18883 0.743068 0)
(2.19549 0.721646 0)
(2.20352 0.706935 0)
(2.22047 0.6947 0)
(2.23893 0.683836 0)
(2.24996 0.677044 0)
(2.25271 0.681666 0)
(2.24674 0.693131 0)
(2.24278 0.690217 0)
(2.25862 0.670652 0)
(2.27817 0.644025 0)
(2.29186 0.622852 0)
(2.30054 0.612499 0)
(2.30525 0.605625 0)
(2.3081 0.597347 0)
(2.30956 0.592802 0)
(2.31193 0.592469 0)
(2.31921 0.587725 0)
(2.33148 0.573415 0)
(2.34161 0.555599 0)
(2.34805 0.546506 0)
(2.35568 0.540319 0)
(2.36845 0.532616 0)
(2.37872 0.52412 0)
(2.38497 0.519625 0)
(2.38986 0.515627 0)
(2.39374 0.499588 0)
(2.38887 0.47635 0)
(2.38951 0.46348 0)
(2.39831 0.458842 0)
(2.40826 0.454537 0)
(2.41906 0.448986 0)
(2.42753 0.444714 0)
(2.43613 0.440697 0)
(2.44772 0.43321 0)
(2.45702 0.423755 0)
(2.46335 0.413097 0)
(2.46132 0.399011 0)
(2.45177 0.382785 0)
(2.45597 0.373848 0)
(2.46232 0.370989 0)
(2.47351 0.366417 0)
(2.48602 0.361741 0)
(2.49699 0.354726 0)
(2.50681 0.347872 0)
(2.51577 0.340993 0)
(2.52051 0.332669 0)
(2.51498 0.317947 0)
(2.50226 0.293966 0)
(2.50565 0.2866 0)
(2.51366 0.285993 0)
(2.52286 0.283036 0)
(2.5327 0.279727 0)
(2.54283 0.276213 0)
(2.55206 0.272543 0)
(2.56115 0.26818 0)
(2.5695 0.262548 0)
(2.57502 0.254008 0)
(2.57212 0.238279 0)
(2.5595 0.217466 0)
(2.55758 0.206933 0)
(2.56429 0.20619 0)
(2.57417 0.203637 0)
(2.58398 0.200532 0)
(2.59381 0.200502 0)
(2.6032 0.200105 0)
(2.60268 0.189974 0)
(2.5762 0.129992 0)
(2.47422 -0.0297236 0)
(2.31781 -0.271276 0)
(2.15224 -0.46442 0)
(2.11983 -0.478486 0)
(2.15115 -0.483602 0)
(2.16357 -0.483171 0)
(2.16518 -0.485399 0)
(2.16713 -0.490128 0)
(2.17774 -0.491155 0)
(2.19258 -0.489212 0)
(2.20762 -0.488681 0)
(2.21663 -0.489748 0)
(2.21741 -0.498126 0)
(2.21321 -0.510976 0)
(2.21797 -0.517111 0)
(2.22665 -0.517532 0)
(2.23442 -0.513165 0)
(2.24589 -0.512437 0)
(2.24732 -0.523043 0)
(2.21516 -0.56388 0)
(2.16874 -0.620472 0)
(2.11247 -0.666784 0)
(2.07902 -0.705479 0)
(2.07612 -0.718703 0)
(2.08679 -0.723246 0)
(2.09984 -0.721825 0)
(2.11819 -0.712957 0)
(2.1368 -0.705962 0)
(2.14804 -0.707838 0)
(2.15858 -0.712498 0)
(2.16403 -0.717537 0)
(2.16203 -0.724782 0)
(2.1625 -0.730154 0)
(2.17082 -0.731788 0)
(2.17986 -0.731651 0)
(2.19273 -0.729852 0)
(2.20849 -0.727265 0)
(2.2175 -0.728558 0)
(2.22743 -0.732875 0)
(2.23386 -0.736978 0)
(2.23555 -0.741468 0)
(2.23923 -0.745467 0)
(2.24765 -0.747416 0)
(2.25635 -0.747414 0)
(2.2665 -0.745191 0)
(2.27578 -0.742998 0)
(2.28468 -0.743021 0)
(2.29283 -0.743412 0)
(2.29913 -0.744894 0)
(2.30267 -0.748163 0)
(2.30444 -0.751848 0)
(2.3101 -0.753152 0)
(2.3174 -0.752579 0)
(2.32486 -0.750109 0)
(2.332 -0.747453 0)
(2.33856 -0.745731 0)
(2.34411 -0.744599 0)
(2.34847 -0.74454 0)
(2.35184 -0.746033 0)
(2.17326 0.776641 0)
(2.17594 0.769045 0)
(2.18476 0.748784 0)
(2.19709 0.72943 0)
(2.21305 0.7142 0)
(2.23192 0.701956 0)
(2.24555 0.694459 0)
(2.25063 0.695475 0)
(2.24593 0.707425 0)
(2.23787 0.712984 0)
(2.24292 0.6965 0)
(2.2639 0.668723 0)
(2.28063 0.641936 0)
(2.29176 0.626354 0)
(2.29752 0.620671 0)
(2.29994 0.617756 0)
(2.3019 0.614952 0)
(2.30509 0.613095 0)
(2.31227 0.608648 0)
(2.32399 0.596559 0)
(2.33512 0.576532 0)
(2.34217 0.560817 0)
(2.34821 0.554929 0)
(2.35677 0.551044 0)
(2.36744 0.545585 0)
(2.37547 0.539657 0)
(2.38089 0.535494 0)
(2.38681 0.525817 0)
(2.38895 0.502353 0)
(2.38523 0.482699 0)
(2.38961 0.47622 0)
(2.39974 0.47224 0)
(2.4097 0.467693 0)
(2.41874 0.462828 0)
(2.4269 0.458465 0)
(2.43679 0.453003 0)
(2.44816 0.445012 0)
(2.45705 0.435923 0)
(2.46002 0.425224 0)
(2.45243 0.406971 0)
(2.44731 0.391674 0)
(2.45696 0.3872 0)
(2.46516 0.38455 0)
(2.47661 0.379698 0)
(2.48887 0.374163 0)
(2.49923 0.367791 0)
(2.50819 0.361241 0)
(2.51519 0.353742 0)
(2.51585 0.342952 0)
(2.50436 0.324181 0)
(2.49937 0.304775 0)
(2.50781 0.302503 0)
(2.5165 0.299226 0)
(2.52513 0.296288 0)
(2.53553 0.293186 0)
(2.5452 0.289549 0)
(2.55414 0.285754 0)
(2.56274 0.281067 0)
(2.56938 0.273676 0)
(2.56913 0.259661 0)
(2.55847 0.23867 0)
(2.55432 0.22599 0)
(2.5599 0.225379 0)
(2.56915 0.222393 0)
(2.5786 0.22001 0)
(2.58805 0.218474 0)
(2.59908 0.218765 0)
(2.59715 0.203405 0)
(2.54714 0.112145 0)
(2.43929 -0.0649296 0)
(2.27459 -0.280257 0)
(2.14921 -0.471665 0)
(2.11964 -0.486322 0)
(2.1269 -0.464511 0)
(2.14788 -0.452236 0)
(2.1694 -0.451269 0)
(2.18312 -0.455113 0)
(2.18928 -0.462676 0)
(2.1949 -0.472014 0)
(2.20297 -0.476044 0)
(2.21406 -0.477161 0)
(2.2206 -0.476656 0)
(2.21975 -0.481156 0)
(2.21989 -0.48982 0)
(2.22787 -0.494246 0)
(2.23354 -0.496106 0)
(2.2409 -0.50078 0)
(2.24595 -0.511561 0)
(2.22304 -0.545511 0)
(2.17967 -0.600621 0)