/*--------------------------------*- C++ -*----------------------------------*\
  =========                 |
  \\      /  F ield         | OpenFOAM: The Open Source CFD Toolbox
   \\    /   O peration     | Website:  https://openfoam.org
    \\  /    A nd           | Version:  7
     \\/     M anipulation  |
\*---------------------------------------------------------------------------*/
FoamFile
{
    version     2.0;
    format      ascii;
    class       volScalarField;
    location    "12";
    object      p;
}
// * * * * * * * * * * * * * * * * * * * * * * * * * * * * * * * * * * * * * //

dimensions      [1 -1 -2 0 0 0 0];

internalField   nonuniform List<scalar> 
3328
(
360.723
27.929
13.4307
13.4561
13.4733
13.4948
13.5254
13.5635
13.6061
13.649
13.6909
13.7325
13.7784
13.8344
13.9041
13.9844
14.0642
14.1319
14.1827
14.2223
14.2578
14.2913
14.3235
14.3477
360.743
27.9126
13.4286
13.4545
13.4721
13.494
13.5251
13.5632
13.605
13.6466
13.6869
13.727
13.771
13.8243
13.89
13.9658
14.0424
14.1096
14.1621
14.2035
14.2405
14.2736
14.3037
14.3268
360.739
27.8667
13.4248
13.4507
13.4683
13.49
13.5211
13.5589
13.6
13.6402
13.6793
13.7179
13.7594
13.8079
13.8661
13.9335
14.0046
14.0713
14.1272
14.1728
14.2123
14.245
14.2727
14.295
360.716
27.8018
13.4176
13.443
13.4605
13.4814
13.5116
13.5484
13.5887
13.6279
13.6658
13.703
13.7419
13.7845
13.8328
13.8885
13.9513
14.0174
14.0797
14.1327
14.1735
14.1989
14.2132
14.2259
360.689
27.7236
13.407
13.4311
13.4484
13.4679
13.4965
13.5314
13.57
13.6077
13.6448
13.6815
13.7187
13.7559
13.7936
13.8349
13.8842
13.9423
14.0023
14.0538
14.0908
14.1133
14.1227
14.1439
360.658
27.6282
13.393
13.4146
13.4316
13.4496
13.4767
13.5088
13.5445
13.5794
13.615
13.6517
13.6886
13.7218
13.7495
13.7749
13.807
13.8521
13.9092
13.9673
14.0162
14.0425
14.032
13.9997
360.621
27.5172
13.3769
13.3937
13.4105
13.4267
13.4524
13.4817
13.5139
13.5442
13.5764
13.6122
13.6497
13.681
13.7014
13.7123
13.7263
13.7528
13.7955
13.8414
13.8691
13.847
13.8151
13.8381
360.606
27.4004
13.3636
13.3694
13.3861
13.3993
13.4236
13.4506
13.4799
13.505
13.5319
13.5644
13.6013
13.6322
13.6489
13.6494
13.6455
13.6474
13.6651
13.6926
13.7107
13.7095
13.6657
13.9294
360.609
27.2811
13.3555
13.3451
13.358
13.3673
13.389
13.414
13.4412
13.4629
13.4844
13.5117
13.5456
13.5753
13.5908
13.5873
13.5676
13.5453
13.5333
13.5344
13.516
13.4538
13.0792
12.5986
360.582
27.1739
13.3614
13.3309
13.3261
13.3294
13.3481
13.3715
13.3962
13.4163
13.4341
13.4569
13.4857
13.5127
13.5273
13.5248
13.4958
13.4543
13.4109
13.3756
13.3301
13.2057
13.0272
12.5554
360.478
27.1558
13.3554
13.3171
13.2925
13.2901
13.3059
13.3278
13.3476
13.365
13.3799
13.3999
13.424
13.4462
13.4584
13.458
13.427
13.3725
13.3047
13.2348
13.1659
13.0052
12.855
12.472
360.283
27.3157
13.3277
13.2856
13.2585
13.2505
13.2649
13.2845
13.2971
13.3089
13.3218
13.3403
13.3608
13.3767
13.385
13.3821
13.3551
13.2962
13.2172
13.127
13.0371
12.8945
12.7362
12.4763
360.047
27.5053
13.2744
13.2382
13.2012
13.2061
13.2267
13.2452
13.25
13.2509
13.2591
13.2769
13.296
13.308
13.3105
13.2987
13.2739
13.2185
13.1392
13.0438
12.9404
12.815
12.6389
12.4676
359.862
27.6233
13.2187
13.1791
13.1373
13.1536
13.1909
13.2111
13.2063
13.1929
13.1935
13.2096
13.2293
13.2404
13.2371
13.2146
13.1846
13.1327
13.058
12.9665
12.8645
12.7492
12.5894
12.4082
359.728
27.6613
13.1568
13.1133
13.0789
13.1149
13.1643
13.1824
13.1641
13.1339
13.1259
13.1396
13.1607
13.1731
13.1659
13.1348
13.094
13.0392
12.9678
12.8825
12.7875
12.6801
12.5386
12.3805
359.671
27.5819
13.101
13.0665
13.0513
13.1021
13.1512
13.1591
13.1231
13.0735
13.0562
13.066
13.0885
13.105
13.0981
13.0626
13.0104
12.9458
12.87
12.7867
12.6989
12.6016
12.4736
12.332
359.677
27.3734
13.058
13.0403
13.0564
13.1091
13.1357
13.1178
13.0626
13.0077
12.9836
12.9892
13.0125
13.0348
13.033
12.9997
12.9396
12.8631
12.7745
12.6837
12.5967
12.5086
12.396
12.2587
359.733
27.0728
13.0293
13.0544
13.0955
13.1185
13.1143
13.0698
12.9971
12.9366
12.906
12.9097
12.9349
12.9633
12.9692
12.9438
12.8848
12.7991
12.6939
12.5856
12.4885
12.4013
12.302
12.1722
359.812
26.7311
13.0416
13.11
13.1213
13.1119
13.0811
13.0096
12.9234
12.8615
12.8267
12.8317
12.8616
12.8934
12.9051
12.8895
12.8406
12.7567
12.639
12.5078
12.389
12.2897
12.1939
12.0725
359.843
26.5135
13.095
13.1242
13.1104
13.0848
13.0337
12.9377
12.8406
12.7816
12.7538
12.765
12.7981
12.8257
12.8372
12.8287
12.7953
12.7271
12.611
12.462
12.3156
12.1909
12.082
11.9618
359.829
26.4147
13.0939
13.097
13.073
13.0388
12.9692
12.8605
12.7657
12.7154
12.6999
12.7127
12.7375
12.753
12.7581
12.7535
12.7374
12.6931
12.5952
12.4441
12.278
12.1238
11.9876
11.8527
359.844
26.3591
13.053
13.0421
13.0146
12.9704
12.8917
12.8004
12.7272
12.6854
12.6702
12.6701
12.6735
12.6711
12.6658
12.6639
12.6609
12.6411
12.5696
12.4311
12.261
12.0912
11.9302
11.7709
359.915
26.3149
12.9803
12.9562
12.9328
12.8868
12.8316
12.7826
12.734
12.6917
12.6584
12.6327
12.6102
12.5881
12.5702
12.5665
12.5739
12.5734
12.5211
12.3973
12.2345
12.0661
11.9007
11.7308
359.963
26.2663
12.8936
12.8653
12.8472
12.8307
12.8148
12.799
12.7636
12.7067
12.6466
12.5949
12.5498
12.5119
12.4864
12.4849
12.4986
12.5022
12.4508
12.3322
12.1773
12.0174
11.8624
11.7058
359.927
26.3009
12.7693
12.7975
12.8123
12.8195
12.8278
12.826
12.779
12.6977
12.6137
12.5417
12.4838
12.4461
12.4349
12.443
12.4512
12.437
12.3687
12.245
12.0926
11.9371
11.7906
11.6547
359.926
26.2003
12.688
12.7743
12.8169
12.8368
12.8465
12.8265
12.7567
12.6537
12.5497
12.4654
12.4112
12.3988
12.4173
12.4351
12.433
12.3914
12.2952
12.1563
11.9981
11.8399
11.6927
11.5645
359.967
26.021
12.6757
12.799
12.843
12.8503
12.8388
12.7928
12.6979
12.5738
12.4647
12.3884
12.3592
12.3754
12.4097
12.4327
12.4253
12.3657
12.2478
12.0916
11.9201
11.7511
11.5961
11.463
359.965
25.8748
12.7092
12.8304
12.8532
12.8435
12.8077
12.7289
12.6071
12.4842
12.3982
12.3491
12.3422
12.3621
12.39
12.4083
12.3991
12.3369
12.2165
12.0573
11.8791
11.6986
11.5296
11.3807
359.844
25.8654
12.7443
12.8349
12.8407
12.8152
12.7506
12.6439
12.5165
12.422
12.3673
12.3446
12.3449
12.3533
12.3597
12.3602
12.3434
12.2845
12.1752
12.0301
11.863
11.6866
11.5115
11.3443
359.631
26.001
12.7516
12.8074
12.7972
12.7587
12.6795
12.5622
12.454
12.3862
12.354
12.3526
12.3607
12.3607
12.3414
12.3114
12.2736
12.2115
12.1126
11.9861
11.8406
11.6838
11.5209
11.3546
359.432
26.1956
12.7387
12.7601
12.737
12.695
12.6142
12.5
12.4099
12.3549
12.3328
12.3465
12.3717
12.3832
12.3549
12.2975
12.223
12.1389
12.0366
11.9187
11.7901
11.6552
11.5157
11.3705
359.298
26.3764
12.7282
12.7213
12.6891
12.6436
12.56
12.4483
12.3653
12.3107
12.2894
12.3127
12.3599
12.4003
12.393
12.334
12.2242
12.0952
11.966
11.8386
11.7128
11.5892
11.4708
11.3562
359.21
26.5204
12.7258
12.7018
12.6611
12.6075
12.5129
12.3962
12.3139
12.2551
12.2312
12.2608
12.327
12.3958
12.4256
12.3914
12.2751
12.1044
11.9299
11.7706
11.6289
11.5027
11.397
11.3109
359.138
26.6126
12.7219
12.6907
12.6444
12.5838
12.4785
12.3515
12.2656
12.2046
12.1786
12.2109
12.2887
12.3692
12.4179
12.4151
12.3261
12.1515
11.948
11.7515
11.5798
11.4364
11.329
11.2567
359.071
26.696
12.7017
12.6686
12.621
12.5593
12.4555
12.3293
12.2415
12.1809
12.1578
12.187
12.2564
12.3261
12.3692
12.3786
12.3229
12.1827
11.9891
11.7781
11.5825
11.4202
11.3022
11.2232
359.016
26.826
12.6614
12.626
12.5828
12.5204
12.4249
12.3287
12.2569
12.2061
12.1844
12.1965
12.2334
12.2713
12.292
12.2877
12.2425
12.1503
12.0136
11.8393
11.6502
11.4794
11.3449
11.2389
358.945
27.0293
12.5986
12.5649
12.523
12.4578
12.3823
12.3353
12.2992
12.2719
12.2549
12.2479
12.2402
12.2262
12.2056
12.1718
12.1231
12.0602
11.9793
11.8723
11.736
11.5838
11.4404
11.3067
358.857
27.3166
12.5302
12.4953
12.452
12.3907
12.3486
12.3227
12.3289
12.3405
12.342
12.3257
12.2854
12.2221
12.1465
12.0718
12.0059
11.9494
11.9
11.8549
11.795
11.6931
11.5561
11.3985
358.806
27.551
12.4907
12.4538
12.3973
12.3451
12.3112
12.297
12.3212
12.3696
12.4012
12.3958
12.343
12.2477
12.1256
12.0043
11.9094
11.8481
11.8111
11.791
11.7738
11.7307
11.6341
11.4798
358.789
27.7168
12.4501
12.4101
12.352
12.3209
12.2933
12.2977
12.3386
12.4006
12.4479
12.4503
12.3855
12.2577
12.1061
11.9569
11.8428
11.7903
11.7891
11.8
11.8053
11.7884
11.7118
11.553
10.3554
11.4647
11.9321
12.1664
12.2415
12.3098
12.362
12.3925
12.1664
12.4361
12.268
12.2754
12.2541
12.2636
12.2602
12.2807
12.214
12.2665
12.2011
12.2563
12.2351
12.2419
12.2019
12.2196
12.2988
12.3074
12.3176
12.3713
12.3058
12.2541
12.185
12.17
12.2966
12.2984
12.2992
12.3181
12.2434
12.1817
12.1343
12.1372
12.2923
12.2579
12.2968
12.2994
12.2297
12.1677
12.1647
12.142
12.258
12.2023
12.2104
12.2089
12.1061
12.0045
11.9624
12.0168
12.2038
12.1347
12.1112
12.0715
11.9179
11.7769
11.7197
12.0042
12.1249
12.0285
11.9828
11.9236
11.7208
11.387
10.6647
8.60464
12.0316
11.9116
11.8307
11.7169
11.4666
10.9269
9.97251
7.91621
11.9234
11.7752
11.6549
11.5024
11.2177
10.5943
9.60491
7.74702
11.8056
11.6322
11.4689
11.2844
10.988
10.409
9.44738
7.93754
11.6869
11.4903
11.2853
11.0702
10.7751
10.2741
9.44394
8.24945
11.5885
11.3686
11.1242
10.8751
10.5751
10.1524
9.48073
8.56543
11.5349
11.2959
11.0157
10.7261
10.409
10.0379
9.50971
8.8056
11.521
11.2857
10.9902
10.6653
10.3213
9.95594
9.52072
8.96014
11.5018
11.3032
11.0314
10.6992
10.3349
9.94917
9.54719
9.0638
11.4404
11.2965
11.0857
10.7914
10.4385
10.036
9.62872
9.17086
11.3475
11.238
11.093
10.8728
10.5759
10.1959
9.79434
9.34145
11.2557
11.1482
11.0321
10.8754
10.658
10.3401
9.98121
9.56697
11.1945
11.0641
10.9445
10.8131
10.6506
10.4103
10.109
9.75041
11.1894
11.0276
10.8789
10.736
10.5911
10.4004
10.1575
9.85803
11.217
11.0514
10.8818
10.7087
10.5408
10.3541
10.1371
9.87883
11.2398
11.1085
10.9547
10.7652
10.557
10.3339
10.0958
9.84291
11.2362
11.1511
11.0377
10.8712
10.6526
10.3836
10.0951
9.8063
11.2065
11.1504
11.0729
10.9448
10.7505
10.4826
10.1623
9.82359
11.1732
11.1236
11.0579
10.9446
10.7756
10.5442
10.2508
9.91173
11.1554
11.0787
10.993
10.8733
10.7133
10.5128
10.283
10.0177
11.1782
11.0457
10.9124
10.7662
10.6047
10.4309
10.248
10.0474
11.228
11.0422
10.8516
10.6686
10.4973
10.332
10.1729
10.0238
11.2846
11.0617
10.8257
10.6025
10.4115
10.2417
10.0853
9.95519
11.3292
11.0659
10.7909
10.5315
10.3246
10.1901
10.0995
10.0062
2.44846
0.902867
0.704529
0.816774
0.959891
1.30942
1.95361
2.61326
3.15827
3.65688
4.26398
4.64804
5.36431
6.34914
6.52031
6.50815
6.60764
6.73623
6.79755
6.72879
6.59505
6.48098
6.40673
6.43258
6.43869
6.34462
6.2422
6.14998
6.09687
6.067
5.9708
5.8359
5.64339
5.44383
5.2954
5.15907
5.02045
4.86612
4.70394
4.58951
4.51524
4.46526
4.45604
4.45775
4.42577
4.36966
4.29912
4.20827
4.09975
3.96727
3.83141
3.72497
3.79135
4.17612
4.98922
5.79152
5.77324
5.68916
5.67918
5.72997
5.80553
5.87534
5.89322
5.84685
5.78744
5.70508
5.56849
5.36816
5.17161
5.01871
4.91087
4.84456
4.80203
4.76979
4.76842
4.8189
4.882
4.90306
4.89086
4.86032
4.8208
4.77462
4.70572
4.60253
4.47096
4.33249
4.19771
4.11158
4.0775
2.40959
1.87887
1.71261
1.62494
1.60646
1.68535
1.95365
2.42039
3.0013
3.73225
4.31828
5.00933
6.07846
6.47728
6.64748
6.78224
6.89924
6.91857
6.86011
6.75474
6.61579
6.50178
6.43294
6.34921
6.22736
6.1155
6.02381
5.96793
5.9209
5.82117
5.68672
5.54389
5.43091
5.32917
5.22831
5.11631
4.98119
4.8147
4.65259
4.55015
4.48705
4.45218
4.4281
4.38303
4.31506
4.22822
4.1213
4.00275
3.90333
3.84136
3.89657
4.11101
4.48278
4.99746
5.749
5.79471
5.71927
5.69995
5.72363
5.74361
5.74199
5.74456
5.7307
5.68368
5.60271
5.4899
5.36891
5.23717
5.09929
4.97915
4.89211
4.83538
4.79901
4.7908
4.82587
4.86912
4.88145
4.87022
4.84461
4.80594
4.7565
4.68242
4.57303
4.44554
4.33183
4.22093
4.14301
5.33544
3.84648
2.91197
2.50504
2.27664
2.04388
1.86236
1.92798
2.2055
2.67662
3.18953
3.90921
4.73877
5.72683
6.40835
6.81914
6.95632
7.04087
6.98418
6.90231
6.84138
6.78159
6.70725
6.57549
6.39389
6.20375
6.06039
5.95502
5.86209
5.77264
5.67171
5.5594
5.45407
5.36643
5.29407
5.2119
5.12438
5.03336
4.92944
4.80165
4.65481
4.53252
4.45098
4.38268
4.3115
4.23275
4.13832
4.03564
3.92327
3.85354
3.90281
4.1203
4.45985
4.6901
4.96096
5.59574
5.86242
5.83825
5.77909
5.72074
5.6712
5.63949
5.60976
5.58738
5.55851
5.50579
5.43491
5.36285
5.27759
5.16649
5.04103
4.93914
4.88269
4.85099
4.83949
4.8463
4.85338
4.84682
4.83279
4.81345
4.77887
4.7297
4.65643
4.54247
4.4169
4.31865
4.22977
4.18779
6.2926
5.09825
4.07202
3.40026
3.09416
2.87098
2.56668
2.34299
2.34792
2.48235
2.68606
3.15067
3.84796
4.83908
5.89402
6.94417
7.12803
7.14342
7.00984
6.92665
6.89327
6.84435
6.75477
6.59252
6.35957
6.14907
5.98804
5.85897
5.7561
5.66144
5.57423
5.50002
5.43933
5.38949
5.32432
5.23931
5.15119
5.06541
4.98054
4.88454
4.76376
4.61719
4.46584
4.33594
4.22432
4.1189
4.01232
3.91948
3.86391
3.91285
4.11518
4.45378
4.76207
4.85127
4.92235
5.28312
5.82269
5.91033
5.83823
5.71909
5.60577
5.52641
5.47076
5.43006
5.41855
5.43044
5.40772
5.35952
5.30423
5.23413
5.14153
5.04131
4.9638
4.9182
4.89013
4.8676
4.84104
4.81114
4.78507
4.75956
4.72452
4.67111
4.59718
4.5057
4.42165
4.35053
4.28947
4.27946
7.03544
6.04831
5.166
4.37467
3.8443
3.58537
3.32588
2.97842
2.75905
2.66567
2.73735
2.84966
3.08296
3.69955
4.94167
6.38123
7.0468
7.20247
7.10647
6.99736
6.8959
6.77037
6.6212
6.42988
6.23566
6.08065
5.93912
5.79455
5.67154
5.58079
5.50302
5.44672
5.42987
5.42971
5.38921
5.32282
5.24851
5.16126
5.06187
4.9514
4.82066
4.65446
4.45684
4.26687
4.1032
3.97139
3.87571
3.83148
3.86486
4.07926
4.42397
4.75678
4.95739
4.96811
4.92043
5.06592
5.50396
5.84124
5.84121
5.71872
5.55761
5.42794
5.35698
5.32055
5.31786
5.34903
5.36513
5.33633
5.2934
5.24981
5.20396
5.1561
5.09609
5.01731
4.93395
4.8694
4.82195
4.77853
4.73553
4.69607
4.64697
4.5836
4.51345
4.45186
4.40521
4.36567
4.36052
4.4135
7.6452
6.76951
6.0125
5.31588
4.67754
4.24133
4.00026
3.71694
3.39661
3.1436
3.02478
3.02058
3.07295
3.16302
3.67329
5.08061
6.5304
7.12468
7.10938
6.99212
6.84869
6.68558
6.49781
6.3311
6.21385
6.10522
5.9836
5.83991
5.69855
5.59866
5.52617
5.48415
5.50799
5.51985
5.45286
5.37121
5.28068
5.16478
5.0294
4.89322
4.75334
4.58865
4.38033
4.16995
4.00269
3.88373
3.83134
3.84621
4.02858
4.39152
4.75611
4.99357
5.10221
5.07935
4.98218
4.95909
5.1417
5.54592
5.75107
5.6946
5.53096
5.37221
5.29275
5.24861
5.22019
5.22784
5.28835
5.31675
5.29688
5.27243
5.26349
5.2519
5.20903
5.13234
5.01199
4.8849
4.79803
4.73652
4.67627
4.61122
4.55261
4.50335
4.45515
4.42152
4.39822
4.39648
4.44111
4.59264
8.07886
7.34535
6.65997
6.04121
5.47497
4.95823
4.57673
4.31522
4.04571
3.74196
3.45387
3.29391
3.23613
3.23104
3.27205
3.65848
5.07506
6.54118
7.02091
6.97674
6.8235
6.63513
6.47459
6.36386
6.28273
6.19776
6.08224
5.94081
5.79454
5.68019
5.59475
5.53576
5.49192
5.43384
5.35896
5.277
5.1856
5.07562
4.94998
4.81649
4.67551
4.5165
4.32621
4.11107
3.93829
3.88652
3.89702
4.04055
4.41033
4.76906
5.01838
5.14594
5.193
5.14763
5.0463
4.94154
4.92923
5.14302
5.49435
5.62121
5.52363
5.36759
5.26986
5.2145
5.17455
5.16269
5.2013
5.28087
5.3186
5.33087
5.3314
5.30399
5.25868
5.19236
5.07839
4.9177
4.77209
4.67673
4.60358
4.53052
4.46547
4.4189
4.39198
4.38672
4.39903
4.44489
4.54999
4.7885
8.37339
7.76121
7.16266
6.59821
6.08146
5.63144
5.2029
4.83945
4.57571
4.32427
4.01806
3.73359
3.58132
3.48984
3.37421
3.35702
3.70647
5.15128
6.6463
6.91809
6.77494
6.61571
6.51174
6.45104
6.39764
6.30052
6.16908
6.01436
5.87583
5.76103
5.651
5.53935
5.43505
5.34505
5.25801
5.16464
5.06085
4.9508
4.83959
4.72483
4.59844
4.45475
4.2957
4.10995
3.98926
3.99036
4.09134
4.42883
4.81018
5.02836
5.13875
5.18747
5.16247
5.11138
5.03844
4.92382
4.83501
4.86414
5.11148
5.40858
5.48756
5.38527
5.28518
5.22138
5.17441
5.15632
5.18071
5.25066
5.34088
5.36479
5.33895
5.29796
5.25259
5.19392
5.10686
4.96332
4.77447
4.6274
4.54318
4.48057
4.42953
4.39331
4.37401
4.3825
4.43131
4.51269
4.66697
4.93217
8.56667
8.0499
7.53423
7.02744
6.57159
6.14534
5.766
5.39067
5.04312
4.77959
4.54069
4.28076
4.00041
3.77922
3.63071
3.47437
3.48172
3.86331
5.39162
6.47869
6.60539
6.53879
6.54581
6.5378
6.45835
6.34574
6.19854
6.03849
5.90492
5.78782
5.66577
5.5254
5.37017
5.22236
5.10979
5.01601
4.9279
4.84261
4.75839
4.66972
4.55875
4.41183
4.2628
4.16317
4.11596
4.18718
4.47599
4.88842
5.07151
5.12993
5.1443
5.15808
5.12339
5.07479
5.01109
4.90785
4.8011
4.75664
4.83091
5.07808
5.33947
5.37118
5.31631
5.25893
5.20912
5.18889
5.20207
5.23588
5.25927
5.27855
5.2777
5.25343
5.21741
5.17011
5.09992
4.99227
4.81418
4.62354
4.52067
4.46849
4.43292
4.40553
4.39578
4.39944
4.44422
4.58191
4.77406
5.00317
8.71274
8.2509
7.78528
7.33756
6.93027
6.54413
6.19744
5.86054
5.50911
5.19095
4.95552
4.74287
4.49652
4.19913
3.9455
3.76056
3.59677
3.60481
4.02977
5.46548
6.28787
6.43868
6.41812
6.45551
6.41177
6.30709
6.17404
6.02157
5.89041
5.76766
5.63976
5.48976
5.29263
5.09906
4.97355
4.89058
4.82468
4.7696
4.70109
4.62392
4.52423
4.3917
4.29417
4.23303
4.29402
4.55807
5.00534
5.21481
5.2059
5.16063
5.11581
5.10746
5.0851
5.03786
4.98112
4.9046
4.80559
4.73456
4.71834
4.80285
5.06355
5.27947
5.32343
5.30303
5.26522
5.24533
5.24459
5.22248
5.20308
5.19753
5.20098
5.19429
5.16975
5.1328
5.08234
5.00086
4.86323
4.67484
4.54463
4.47847
4.43863
4.41326
4.40766
4.42932
4.53898
4.71787
4.88444
5.04557
8.87726
8.42182
7.97676
7.55343
7.18681
6.84488
6.47649
6.17518
5.89084
5.58635
5.31953
5.10682
4.89495
4.6476
4.35921
4.07713
3.85228
3.6987
3.714
4.17022
5.50226
6.18679
6.32622
6.30948
6.27757
6.1911
6.08248
5.96784
5.84963
5.72644
5.59278
5.42962
5.23412
5.05838
4.9257
4.82627
4.75804
4.70527
4.63739
4.55318
4.44969
4.36236
4.32105
4.36984
4.63209
5.0677
5.36209
5.36751
5.29057
5.18975
5.11838
5.06968
5.04637
5.01246
4.96667
4.91829
4.84545
4.75464
4.66865
4.65298
4.77847
5.07012
5.25707
5.33469
5.31735
5.28795
5.24276
5.191
5.15066
5.13318
5.12972
5.12603
5.11277
5.08481
5.04239
4.98268
4.88476
4.73403
4.58293
4.48327
4.44405
4.42904
4.45087
4.55283
4.73844
4.90086
5.0228
5.09918
9.11496
8.6329
8.16728
7.74857
7.38773
7.0603
6.72341
6.38814
6.11878
5.88684
5.64258
5.41022
5.20173
4.98524
4.73768
4.46877
4.18207
3.93987
3.79081
3.8066
4.28207
5.48338
6.12711
6.18893
6.118
6.03918
5.95124
5.85855
5.7642
5.65298
5.52413
5.37289
5.20609
5.04702
4.91724
4.80842
4.70772
4.62394
4.53972
4.44995
4.3725
4.35765
4.40984
4.67585
5.12838
5.4484
5.49504
5.44894
5.35788
5.23912
5.13543
5.07246
5.03037
4.99835
4.96356
4.92358
4.86315
4.77147
4.65747
4.59674
4.62406
4.80754
5.07827
5.29051
5.34027
5.29922
5.22895
5.16994
5.12663
5.10135
5.086
5.06955
5.05003
5.02134
4.98131
4.92904
4.85722
4.74795
4.6035
4.49696
4.47103
4.48918
4.58096
4.77766
4.97568
5.09712
5.16575
5.16556
9.35507
8.90905
8.43185
7.9754
7.59365
7.25365
6.91145
6.5964
6.32384
6.07861
5.86013
5.65019
5.43963
5.23091
5.01248
4.78093
4.53966
4.27228
4.00314
3.84857
3.85968
4.3181
5.42524
5.95573
5.99066
5.89831
5.81772
5.73318
5.64604
5.54513
5.4257
5.29472
5.16919
5.05373
4.9436
4.82049
4.68665
4.53985
4.42859
4.36011
4.34011
4.40477
4.675
5.17821
5.5469
5.62073
5.58493
5.51438
5.41939
5.29821
5.16988
5.08702
5.0343
4.98711
4.94452
4.9035
4.84931
4.76739
4.66414
4.58755
4.57817
4.63375
4.82574
5.13005
5.29225
5.2733
5.2165
5.17019
5.13643
5.10712
5.06994
5.03376
4.99625
4.95513
4.9087
4.85379
4.78815
4.70995
4.60357
4.52612
4.531
4.60464
4.78986
5.01174
5.15655
5.23921
5.27251
5.22268
9.50775
9.12114
8.71291
8.29233
7.8636
7.46151
7.11591
6.79757
6.51906
6.28529
6.04097
5.79765
5.5905
5.39571
5.19968
4.99739
4.79347
4.57119
4.30285
4.02019
3.87549
3.88946
4.32515
5.31074
5.74268
5.78495
5.71176
5.62459
5.53442
5.43581
5.31807
5.20215
5.11999
5.04728
4.95785
4.83789
4.6815
4.49661
4.37865
4.33785
4.37995
4.61318
5.15495
5.60445
5.73528
5.7099
5.64052
5.54901
5.44392
5.3227
5.19745
5.09915
5.03001
4.97403
4.91862
4.86788
4.81381
4.74657
4.67221
4.61143
4.56947
4.58356
4.64188
4.85377
5.11398
5.19473
5.20623
5.19495
5.17326
5.12907
5.08049
5.02532
4.96157
4.90098
4.8432
4.78175
4.71724
4.65018
4.58991
4.57141
4.62766
4.7938
5.01829
5.17492
5.26339
5.31664
5.33362
5.26546
9.57893
9.23826
8.88114
8.52075
8.16199
7.7906
7.39545
7.03901
6.74852
6.48143
6.22586
5.96106
5.70713
5.50833
5.33176
5.14969
4.95764
4.75859
4.54395
4.27475
4.00473
3.8856
3.89902
4.31014
5.13397
5.55661
5.6154
5.53344
5.4361
5.33627
5.2321
5.13824
5.05937
4.9854
4.912
4.81679
4.67829
4.49364
4.39347
4.39566
4.55338
5.05402
5.59497
5.80156
5.79639
5.72664
5.63492
5.54389
5.44626
5.3301
5.20788
5.10568
5.02586
4.95919
4.90064
4.84134
4.78519
4.73719
4.69065
4.64003
4.58849
4.55631
4.58006
4.64151
4.8458
5.04349
5.15994
5.20857
5.19563
5.14656
5.085
5.00915
4.92374
4.84891
4.78588
4.72766
4.67157
4.62399
4.60525
4.6487
4.79143
5.01971
5.18483
5.27092
5.31969
5.34446
5.34656
5.27503
9.56886
9.27723
8.96978
8.65322
8.331
8.01353
7.69331
7.34846
7.00376
6.70476
6.42357
6.13535
5.85467
5.61783
5.4311
5.25167
5.06595
4.87613
4.68185
4.47301
4.22726
3.9971
3.88893
3.88341
4.24703
4.94974
5.39553
5.42808
5.34482
5.25351
5.16608
5.08139
5.00397
4.93503
4.85258
4.75541
4.63019
4.52446
4.46305
4.564
5.01136
5.55512
5.82464
5.85022
5.79132
5.70851
5.61293
5.52143
5.42198
5.31184
5.21246
5.12944
5.04462
4.97086
4.91002
4.84727
4.79075
4.74848
4.71236
4.67836
4.62706
4.57538
4.55266
4.56484
4.63308
4.82478
5.03595
5.16793
5.16899
5.12815
5.05929
4.96565
4.87502
4.81144
4.75997
4.71324
4.67292
4.64612
4.67553
4.79631
5.01211
5.19946
5.28276
5.30542
5.29938
5.27213
5.24805
5.18498
9.52634
9.25679
8.99078
8.71818
8.43605
8.15913
7.88537
7.59395
7.27499
6.94407
6.62463
6.3249
6.02752
5.7554
5.5431
5.35356
5.15667
4.96183
4.77218
4.58309
4.39109
4.17573
3.97152
3.85124
3.82299
4.12793
4.78246
5.20921
5.21983
5.16268
5.09815
5.01662
4.93977
4.87198
4.78256
4.66383
4.5745
4.53555
4.61314
5.02248
5.58963
5.85416
5.87696
5.824
5.7521
5.66801
5.56676
5.47155
5.38064
5.2966
5.22412
5.15418
5.07578
4.99735
4.93382
4.87669
4.83038
4.79161
4.76658
4.73709
4.68083
4.61689
4.55253
4.50592
4.49736
4.57908
4.78152
5.01346
5.07885
5.05786
4.9921
4.899
4.83267
4.79115
4.75401
4.72578
4.72207
4.75769
4.87224
5.06238
5.24438
5.32383
5.30464
5.26614
5.21834
5.16377
5.09803
5.01917
9.51094
9.23184
8.98212
8.73851
8.49502
8.2582
8.02153
7.74922
7.44926
7.13862
6.8257
6.51168
6.20794
5.91341
5.65677
5.4439
5.24073
5.04329
4.85988
4.68698
4.51041
4.31328
4.08717
3.87873
3.74692
3.72309
4.00413
4.65985
5.00937
5.04107
5.00943
4.93835
4.86008
4.79008
4.68156
4.58684
4.55267
4.62386
5.00034
5.64207
5.93047
5.93841
5.87081
5.79313
5.70507
5.59922
5.49679
5.43041
5.37093
5.30544
5.2406
5.17498
5.10464
5.03819
4.98291
4.93573
4.89617
4.8631
4.83335
4.79305
4.74099
4.67326
4.5782
4.47907
4.40549
4.38388
4.47135
4.67645
4.86556
4.918
4.8893
4.82677
4.78148
4.7605
4.7638
4.78451
4.86233
5.01116
5.22549
5.4043
5.46424
5.41827
5.33831
5.25106
5.15083
5.03658
4.92716
4.86827
9.5601
9.24384
8.98525
8.75549
8.53219
8.31865
8.09227
7.8351
7.55449
7.26222
6.96489
6.66981
6.36645
6.05417
5.7707
5.54036
5.33201
5.13343
4.94473
4.76596
4.59468
4.41772
4.21079
3.97072
3.75446
3.62535
3.62061
3.90381
4.53491
4.83173
4.88067
4.85181
4.77365
4.67295
4.56597
4.53726
4.59233
4.92865
5.63218
6.0084
6.01733
5.95523
5.87348
5.77049
5.64731
5.52855
5.45614
5.40684
5.37153
5.32896
5.27416
5.2172
5.1557
5.09968
5.05301
5.01143
4.97237
4.93309
4.89003
4.83308
4.76
4.67572
4.57471
4.45893
4.35019
4.25936
4.24292
4.33785
4.55137
4.72125
4.77796
4.7452
4.71713
4.72224
4.7712
4.87492
5.0612
5.32222
5.56809
5.65859
5.64246
5.54096
5.38859
5.22476
5.04345
4.90681
4.83576
4.80381
9.70846
9.38273
9.0688
8.79352
8.5723
8.36483
8.12352
7.85628
7.58012
7.3057
7.03473
6.76344
6.4754
6.17086
5.88259
5.64197
5.42676
5.22374
5.03099
4.84641
4.6666
4.4819
4.27701
4.05133
3.81857
3.64298
3.53092
3.52866
3.80646
4.3659
4.63576
4.73348
4.66962
4.54704
4.47286
4.51567
4.80343
5.5356
6.03631
6.14449
6.08226
5.98823
5.88101
5.74488
5.60499
5.50853
5.44881
5.40628
5.39112
5.3746
5.32449
5.27093
5.21908
5.1678
5.11915
5.07427
5.0287
4.97083
4.90174
4.82999
4.74903
4.65393
4.5492
4.44202
4.34007
4.23963
4.17057
4.17261
4.28599
4.48736
4.65677
4.68417
4.68716
4.7225
4.82795
5.00956
5.25663
5.55231
5.73554
5.76232
5.7219
5.60563
5.42207
5.16893
4.98272
4.89141
4.83965
4.81024
9.81902
9.54447
9.25317
8.9694
8.69292
8.42275
8.14049
7.85255
7.57784
7.30667
7.03743
6.77663
6.52073
6.25276
5.98977
5.75324
5.53332
5.32247
5.11775
4.91661
4.71725
4.51996
4.32371
4.11972
3.89925
3.68455
3.52596
3.42749
3.42676
3.68695
4.13196
4.48641
4.53287
4.45677
4.46566
4.6746
5.34498
6.05275
6.18665
6.17176
6.09728
6.00261
5.88306
5.73753
5.60238
5.5211
5.4665
5.43204
5.44104
5.42827
5.37706
5.32698
5.27589
5.21359
5.15148
5.09025
5.02557
4.95596
4.87752
4.79016
4.69992
4.61361
4.53262
4.44882
4.35326
4.25016
4.16681
4.13763
4.1637
4.28332
4.49774
4.63939
4.69799
4.78994
4.9331
5.14267
5.40584
5.65055
5.77016
5.76937
5.71073
5.58613
5.41328
5.22924
5.07421
4.97366
4.91011
4.875
9.87607
9.68897
9.42899
9.14654
8.8455
8.50541
8.1681
7.86931
7.58411
7.29906
7.01656
6.74412
6.50204
6.29185
6.07159
5.85445
5.63874
5.42211
5.20452
4.98422
4.76196
4.54662
4.34477
4.15281
3.95996
3.75127
3.55727
3.40174
3.30961
3.30663
3.524
3.96983
4.28865
4.36807
4.60409
5.19416
5.93095
6.27308
6.27433
6.19912
6.1039
6.0065
5.88805
5.74476
5.62641
5.56218
5.51099
5.46867
5.43687
5.41652
5.37623
5.32598
5.27073
5.20452
5.13305
5.05941
4.98475
4.90131
4.80926
4.72157
4.64857
4.58544
4.52346
4.45572
4.37477
4.28465
4.21327
4.17337
4.16093
4.19023
4.33798
4.54306
4.68916
4.85249
5.05904
5.30084
5.50623
5.63468
5.67852
5.65084
5.58453
5.49715
5.39448
5.27382
5.17271
5.10438
5.05253
5.01338
9.84371
9.71054
9.52835
9.27815
8.95652
8.6136
8.26597
7.92329
7.59395
7.27962
6.98256
6.71346
6.48364
6.29819
6.1277
5.92032
5.71215
5.49921
5.27495
5.03966
4.80391
4.5774
4.36218
4.15988
3.97162
3.78626
3.60026
3.4237
3.2744
3.17502
3.18023
3.40526
3.86873
4.36617
5.00298
5.77876
6.19396
6.31054
6.27926
6.2002
6.10378
6.00408
5.89196
5.77716
5.68108
5.61063
5.54886
5.48745
5.43304
5.39192
5.3588
5.31944
5.26526
5.20041
5.13032
5.04635
4.94157
4.82752
4.72921
4.6555
4.59683
4.54522
4.49444
4.43747
4.37735
4.32945
4.28589
4.24205
4.2039
4.19274
4.23287
4.40827
4.65785
4.93676
5.2329
5.46473
5.5485
5.52848
5.50495
5.48115
5.42931
5.38604
5.34315
5.28303
5.23131
5.20191
5.18906
5.15239
9.89828
9.78788
9.64109
9.38152
9.05003
8.70642
8.33739
7.94356
7.56189
7.22806
6.94643
6.69589
6.47733
6.30573
6.16106
5.96543
5.75929
5.55283
5.33442
5.09523
4.83927
4.58836
4.35892
4.15167
3.96571
3.79478
3.6243
3.45145
3.28168
3.12349
3.04671
3.09946
3.45047
4.31527
5.3397
6.30358
6.45136
6.36809
6.293
6.2171
6.1171
6.00583
5.90379
5.81429
5.71863
5.62593
5.54641
5.47467
5.41521
5.37097
5.33934
5.30281
5.25041
5.18762
5.11767
5.02532
4.89835
4.77004
4.67662
4.60951
4.55193
4.50014
4.45617
4.42694
4.42143
4.42072
4.39466
4.33904
4.26677
4.20069
4.19542
4.29836
4.59149
4.99259
5.36725
5.55343
5.52557
5.42846
5.38869
5.37209
5.33655
5.30458
5.27908
5.2753
5.30349
5.33438
5.33379
5.25835
)
;

boundaryField
{
    inlet
    {
        type            fixedValue;
        value           uniform 1;
    }
    outlet
    {
        type            zeroGradient;
    }
    bottom
    {
        type            zeroGradient;
    }
    top
    {
        type            zeroGradient;
    }
    obstacle
    {
        type            zeroGradient;
    }
    defaultFaces
    {
        type            empty;
    }
}


// ************************************************************************* //
