/*--------------------------------*- C++ -*----------------------------------*\
  =========                 |
  \\      /  F ield         | OpenFOAM: The Open Source CFD Toolbox
   \\    /   O peration     | Website:  https://openfoam.org
    \\  /    A nd           | Version:  7
     \\/     M anipulation  |
\*---------------------------------------------------------------------------*/
FoamFile
{
    version     2.0;
    format      ascii;
    class       volScalarField;
    location    "0.8";
    object      rho;
}
// * * * * * * * * * * * * * * * * * * * * * * * * * * * * * * * * * * * * * //

dimensions      [1 -3 0 0 0 0 0];

internalField   nonuniform List<scalar> 
4128
(
1.40001
1.40001
1.40001
1.40001
1.40001
1.40001
1.40001
1.40001
1.40001
1.40001
1.40001
1.40001
1.40001
1.40001
1.40001
1.40001
1.40001
1.40001
3.8248
5.55424
5.59577
5.66762
5.73949
5.81852
1.40001
1.40001
1.40001
1.40001
1.40001
1.40001
1.40001
1.40001
1.40001
1.40001
1.40001
1.40001
1.40001
1.40001
1.40001
1.40001
1.40001
1.40001
3.67436
5.48273
5.55219
5.61909
5.67405
5.71618
1.40001
1.40001
1.40001
1.40001
1.40001
1.40001
1.40001
1.40001
1.40001
1.40001
1.40001
1.40001
1.40001
1.40001
1.40001
1.40001
1.40001
1.40001
3.37884
5.37535
5.46639
5.49644
5.51154
5.55417
1.40001
1.40001
1.40001
1.40001
1.40001
1.40001
1.40001
1.40001
1.40001
1.40001
1.40001
1.40001
1.40001
1.40001
1.40001
1.40001
1.40001
1.40001
2.95416
5.21284
5.37945
5.39596
5.35623
5.38383
1.40001
1.40001
1.40001
1.40001
1.40001
1.40001
1.40001
1.40001
1.40001
1.40001
1.40001
1.40001
1.40001
1.40001
1.40001
1.40001
1.40001
1.40001
2.41682
4.98814
5.29394
5.22389
4.92406
4.15066
1.40001
1.40001
1.40001
1.40001
1.40001
1.40001
1.40001
1.40001
1.40001
1.40001
1.40001
1.40001
1.40001
1.40001
1.40001
1.40001
1.40001
1.40001
1.80943
4.60537
5.22069
5.06709
4.69755
3.94661
1.40001
1.40001
1.40001
1.40001
1.40001
1.40001
1.40001
1.40001
1.40001
1.40001
1.40001
1.40001
1.40001
1.40001
1.40001
1.40001
1.40001
1.40001
1.44206
3.79965
5.01786
4.82016
4.50695
3.80264
1.40001
1.40001
1.40001
1.40001
1.40001
1.40001
1.40001
1.40001
1.40001
1.40001
1.40001
1.40001
1.40001
1.40001
1.40001
1.40001
1.40001
1.40001
1.40011
2.66836
4.77576
4.74872
4.40988
3.83691
1.40001
1.40001
1.40001
1.40001
1.40001
1.40001
1.40001
1.40001
1.40001
1.40001
1.40001
1.40001
1.40001
1.40001
1.40001
1.40001
1.40001
1.40001
1.4
1.66035
4.16118
4.76229
4.35942
3.87268
1.40001
1.40001
1.40001
1.40001
1.40001
1.40001
1.40001
1.40001
1.40001
1.40001
1.40001
1.40001
1.40001
1.40001
1.40001
1.40001
1.40001
1.40001
1.4
1.40873
2.94776
4.5705
4.34899
3.90979
1.40001
1.40001
1.40001
1.40001
1.40001
1.40001
1.40001
1.40001
1.40001
1.40001
1.40001
1.40001
1.40001
1.40001
1.40001
1.40001
1.40001
1.40001
1.4
1.40001
1.7529
3.92576
4.43327
4.01726
1.40001
1.40001
1.40001
1.40001
1.40001
1.40001
1.40001
1.40001
1.40001
1.40001
1.40001
1.40001
1.40001
1.40001
1.40001
1.40001
1.40001
1.40001
1.40001
1.40001
1.41561
2.55884
4.21374
4.11267
1.40001
1.40001
1.40001
1.40001
1.40001
1.40001
1.40001
1.40001
1.40001
1.40001
1.40001
1.40001
1.40001
1.40001
1.40001
1.40001
1.40001
1.40001
1.40001
1.40001
1.4001
1.59247
3.31874
4.17507
1.40001
1.40001
1.40001
1.40001
1.40001
1.40001
1.40001
1.40001
1.40001
1.40001
1.40001
1.40001
1.40001
1.40001
1.40001
1.40001
1.40001
1.40001
1.40001
1.40001
1.40001
1.40517
1.98558
3.68218
1.40001
1.40001
1.40001
1.40001
1.40001
1.40001
1.40001
1.40001
1.40001
1.40001
1.40001
1.40001
1.40001
1.40001
1.40001
1.40001
1.40001
1.40001
1.40001
1.40001
1.40001
1.40003
1.44524
2.39951
1.40001
1.40001
1.40001
1.40001
1.40001
1.40001
1.40001
1.40001
1.40001
1.40001
1.40001
1.40001
1.40001
1.40001
1.40001
1.40001
1.40001
1.40001
1.40001
1.40001
1.40001
1.40001
1.40065
1.537
1.40001
1.40001
1.40001
1.40001
1.40001
1.40001
1.40001
1.40001
1.40001
1.40001
1.40001
1.40001
1.40001
1.40001
1.40001
1.40001
1.40001
1.40001
1.40001
1.40001
1.40001
1.40001
1.40001
1.40366
1.40001
1.40001
1.40001
1.40001
1.40001
1.40001
1.40001
1.40001
1.40001
1.40001
1.40001
1.40001
1.40001
1.40001
1.40001
1.40001
1.40001
1.40001
1.40001
1.40001
1.40001
1.40001
1.40001
1.40003
1.40001
1.40001
1.40001
1.40001
1.40001
1.40001
1.40001
1.40001
1.40001
1.40001
1.40001
1.40001
1.40001
1.40001
1.40001
1.40001
1.40001
1.40001
1.40001
1.40001
1.40001
1.40001
1.40001
1.40001
1.40001
1.40001
1.40001
1.40001
1.40001
1.40001
1.40001
1.40001
1.40001
1.40001
1.40001
1.40001
1.40001
1.40001
1.40001
1.40001
1.40001
1.40001
1.40001
1.40001
1.40001
1.40001
1.40001
1.40001
1.40001
1.40001
1.40001
1.40001
1.40001
1.40001
1.40001
1.40001
1.40001
1.40001
1.40001
1.40001
1.40001
1.40001
1.40001
1.40001
1.40001
1.40001
1.40001
1.40001
1.40001
1.40001
1.40001
1.40001
1.40001
1.40001
1.40001
1.40001
1.40001
1.40001
1.40001
1.40001
1.40001
1.40001
1.40001
1.40001
1.40001
1.40001
1.40001
1.40001
1.40001
1.40001
1.40001
1.40001
1.40001
1.40001
1.40001
1.40001
1.40001
1.40001
1.40001
1.40001
1.40001
1.40001
1.40001
1.40001
1.40001
1.40001
1.40001
1.40001
1.40001
1.40001
1.40001
1.40001
1.40001
1.40001
1.40001
1.40001
1.40001
1.40001
1.40001
1.40001
1.40001
1.40001
1.40001
1.40001
1.40001
1.40001
1.40001
1.40001
1.40001
1.40001
1.40001
1.40001
1.40001
1.40001
1.40001
1.40001
1.40001
1.40001
1.40001
1.40001
1.40001
1.40001
1.40001
1.40001
1.40001
1.40001
1.40001
1.40001
1.40001
1.40001
1.40001
1.40001
1.40001
1.40001
1.40001
1.40001
1.40001
1.40001
1.40001
1.40001
1.40001
1.40001
1.40001
1.40001
1.40001
1.40001
1.40001
1.40001
1.40001
1.40001
1.40001
1.40001
1.40001
1.40001
1.40001
1.40001
1.40001
1.40001
1.40001
1.40001
1.40001
1.40001
1.40001
1.40001
1.40001
1.40001
1.40001
1.40001
1.40001
1.40001
1.40001
1.40001
1.40001
1.40001
1.40001
1.40001
1.40001
1.40001
1.40001
1.40001
1.40001
1.40001
1.40001
1.40001
1.40001
1.40001
1.40001
1.40001
1.40001
1.40001
1.40001
1.40001
1.40001
1.40001
1.40001
1.40001
1.40001
1.40001
1.40001
1.40001
1.40001
1.40001
1.40001
1.40001
1.40001
1.40001
1.40001
1.40001
1.40001
1.40001
1.40001
1.40001
1.40001
1.40001
1.40001
1.40001
1.40001
1.40001
1.40001
1.40001
1.40001
1.40001
1.40001
1.40001
1.40001
1.40001
1.40001
1.40001
1.40001
1.40001
1.40001
1.40001
1.40001
1.40001
1.40001
1.40001
1.40001
1.40001
1.40001
1.40001
1.40001
1.40001
1.40001
1.40001
1.40001
1.40001
1.40001
1.40001
1.40001
1.40001
1.40001
1.40001
1.40001
1.40001
1.40001
1.40001
1.40001
1.40001
1.40001
1.40001
1.40001
1.40001
1.40001
1.40001
1.40001
1.40001
1.40001
1.40001
1.40001
1.40001
1.40001
1.40001
1.40001
1.40001
1.40001
1.40001
1.40001
1.40001
1.40001
1.40001
1.40001
1.40001
1.40001
1.40001
1.40001
1.40001
1.40001
1.40001
1.40001
1.40001
1.40001
1.40001
1.40001
1.40001
1.40001
1.40001
1.40001
1.40001
1.40001
1.40001
1.40001
1.40001
1.40001
1.40001
1.40001
1.40001
1.40001
1.40001
1.40001
1.40001
1.40001
1.40001
1.40001
1.40001
1.40001
1.40001
1.40001
1.40001
1.40001
1.40001
1.40001
1.40001
1.40001
1.40001
1.40001
1.40001
1.40001
1.40001
1.40001
1.40001
1.40001
1.40001
1.40001
1.40001
1.40001
1.40001
1.40001
1.40001
1.40001
1.40001
1.40001
1.40001
1.40001
1.40001
1.40001
1.40001
1.40001
1.40001
1.40001
1.40001
1.40001
1.40001
1.40001
1.40001
1.40001
1.40001
1.40001
1.40001
1.40001
1.40001
1.40001
1.40001
1.40001
1.40001
1.40001
1.40001
1.40001
1.40001
1.40001
1.40001
1.40001
1.40001
1.40001
1.40001
1.40001
1.40001
1.40001
1.40001
1.40001
1.40001
1.40001
1.40001
1.40001
1.40001
1.40001
1.40001
1.40001
1.40001
1.40001
1.40001
1.40001
1.40001
1.40001
1.40001
1.40001
1.40001
1.40001
1.40001
1.40001
1.40001
1.40001
1.40001
1.40001
1.40001
1.40001
1.40001
1.40001
1.40001
1.40001
1.40001
1.40001
1.40001
1.40001
1.40001
1.40001
1.40001
1.40001
1.40001
1.40001
1.40001
1.40001
1.40001
1.40001
1.40001
1.40001
1.40001
1.40001
1.40001
1.40001
1.40001
1.40001
1.40001
1.40001
1.40001
1.40001
1.40001
1.40001
1.40001
1.40001
1.40001
1.40001
1.40001
1.40001
1.40001
1.40001
1.40001
1.40001
1.40001
1.40001
1.40001
1.40001
1.40001
1.40001
1.40001
1.40001
1.40001
1.40001
1.40001
1.40001
1.40001
1.40001
1.40001
1.40001
1.40001
1.40001
1.40001
1.40001
1.40001
1.40001
1.40001
1.40001
1.40001
1.40001
1.40001
1.40001
1.40001
1.40001
1.40001
1.40001
1.40001
1.40001
1.40001
1.40001
1.40001
1.40001
1.40001
1.40001
1.40001
1.40001
1.40001
1.40001
1.40001
1.40001
1.40001
1.40001
1.40001
1.40001
1.40001
1.40001
1.40001
1.40001
1.40001
1.40001
1.40001
1.40001
1.40001
1.40001
1.40001
1.56506
0.714196
0.402194
0.419676
0.507599
0.582265
0.687136
0.845561
0.95044
0.966259
0.954055
0.95822
0.985161
1.02455
1.04422
1.04098
1.91523
2.67228
2.76398
2.82512
2.82755
2.76603
2.69383
2.68127
2.24991
1.54798
1.08145
0.925465
0.89298
0.829942
0.798938
0.813132
0.847515
0.868286
0.889874
0.929026
0.971264
1.01525
1.03373
1.03263
1.82562
2.67285
2.79152
2.84324
2.83421
2.76373
2.68624
2.65815
2.72426
2.1061
1.66609
1.33339
1.16704
1.04336
0.911095
0.865151
0.872055
0.88245
0.918418
0.97037
1.00365
1.03398
1.04333
1.04992
1.67144
2.70366
2.86117
2.88923
2.85952
2.76821
2.64867
2.62051
3.08251
2.52712
2.09384
1.73094
1.5035
1.3445
1.15785
1.06845
1.03423
0.984339
0.958769
0.95819
0.966866
0.978734
1.00068
1.01637
1.35503
2.67827
2.97563
2.9753
2.93026
2.81911
2.6475
2.58998
3.29078
2.81915
2.41434
2.04808
1.79739
1.61104
1.40607
1.26512
1.19082
1.11494
1.02178
0.984203
0.967415
0.960912
0.964761
0.973975
1.05965
2.3678
3.02964
3.02472
2.9749
2.84705
2.57137
2.09809
3.43206
3.03729
2.67843
2.31603
2.04784
1.85284
1.64048
1.46775
1.37263
1.28496
1.17151
1.10023
1.06252
1.02379
0.996038
0.989877
0.988754
1.78547
2.97526
3.04864
2.99053
2.85135
2.57691
2.14017
3.59273
3.22043
2.89488
2.5596
2.2706
2.06162
1.85583
1.67257
1.55961
1.45166
1.32092
1.23268
1.17054
1.10665
1.05425
1.02617
1.0028
1.20795
2.69851
3.03319
2.96722
2.84641
2.6074
2.22596
3.73668
3.37035
3.0602
2.75615
2.47929
2.26558
2.05349
1.85242
1.72923
1.621
1.48241
1.3828
1.30929
1.22944
1.16377
1.13042
1.07632
1.07385
2.04742
2.94426
2.91901
2.82843
2.63817
2.32608
3.93029
3.55813
3.23648
2.94953
2.67474
2.45259
2.25037
2.04947
1.9022
1.77996
1.63271
1.52354
1.45346
1.3686
1.27438
1.22878
1.17486
1.09804
1.34798
2.69314
2.92914
2.84639
2.67617
2.41479
4.00672
3.75686
3.41189
3.11369
2.8601
2.63483
2.42477
2.22691
2.06637
1.93372
1.79218
1.66425
1.58805
1.5021
1.39392
1.33684
1.29312
1.19597
1.19728
2.01753
2.92022
2.8699
2.70122
2.47484
3.75891
3.86558
3.62935
3.31085
3.03662
2.80071
2.59129
2.40746
2.24863
2.09672
1.93678
1.80902
1.72492
1.6374
1.52254
1.44777
1.40223
1.3258
1.23678
1.42013
2.53844
2.90681
2.76047
2.5513
2.70538
3.71745
3.75918
3.53772
3.24443
2.99647
2.76936
2.56238
2.408
2.26848
2.11684
1.96439
1.86635
1.77142
1.65156
1.56106
1.51701
1.46398
1.34476
1.34003
1.83608
2.76327
2.84005
2.6712
1.6518
2.85768
3.66197
3.67536
3.48002
3.20407
2.95529
2.75319
2.5869
2.42496
2.25757
2.11401
2.01484
1.92511
1.80891
1.67765
1.61737
1.57569
1.50082
1.40588
1.46059
2.21429
2.82477
2.78409
1.41044
1.74127
2.90464
3.60205
3.60669
3.44656
3.18431
2.9299
2.74545
2.59541
2.44355
2.27848
2.14653
2.05576
1.95277
1.84046
1.75862
1.69461
1.61931
1.5275
1.48753
1.66894
2.47104
2.8485
1.4001
1.41834
1.78411
2.88764
3.5398
3.53452
3.4149
3.17821
2.94421
2.74809
2.59004
2.43831
2.31564
2.21893
2.1083
1.9678
1.87602
1.81807
1.75241
1.67009
1.56615
1.57108
1.88063
2.60782
1.40001
1.40021
1.42327
1.78562
2.81888
3.45978
3.48653
3.40137
3.18254
2.95069
2.78218
2.61786
2.43273
2.34114
2.26392
2.15036
2.04113
1.94486
1.85568
1.77471
1.69769
1.63179
1.65783
2.05255
1.40001
1.40001
1.4003
1.42313
1.76167
2.68184
3.3891
3.44336
3.3854
3.1951
2.97211
2.80618
2.63287
2.50265
2.38531
2.25761
2.17365
2.11026
2.03217
1.92427
1.80187
1.72427
1.69288
1.75023
1.40001
1.40001
1.40001
1.40029
1.42106
1.70025
2.52485
3.30271
3.38287
3.34082
3.21081
3.02279
2.81592
2.66055
2.5537
2.44094
2.28876
2.20104
2.15519
2.07568
1.97212
1.88273
1.76522
1.75118
1.40001
1.40001
1.40001
1.40001
1.40026
1.416
1.6178
2.38848
3.13869
3.31715
3.3108
3.23778
3.06744
2.8402
2.68238
2.59491
2.47169
2.35489
2.26607
2.16276
2.08931
2.03234
1.93932
1.8195
1.40001
1.40001
1.40001
1.40001
1.40001
1.40017
1.40947
1.56262
2.20643
2.9219
3.28134
3.29115
3.23877
3.0796
2.8935
2.73414
2.61058
2.51492
2.4178
2.28935
2.19076
2.13991
2.08548
1.97433
1.40001
1.40001
1.40001
1.40001
1.40001
1.40001
1.40009
1.40593
1.50714
1.97907
2.70487
3.22957
3.24377
3.20015
3.09604
2.95522
2.77631
2.64209
2.55665
2.46076
2.31862
2.22566
2.19185
2.12882
1.40001
1.40001
1.40001
1.40001
1.40001
1.40001
1.40001
1.40005
1.40279
1.45965
1.7699
2.52099
3.0371
3.17331
3.16003
3.12527
3.00445
2.83022
2.68325
2.58888
2.49193
2.37661
2.27056
2.2134
1.40001
1.40001
1.40001
1.40001
1.40001
1.40001
1.40001
1.40001
1.40002
1.40128
1.42477
1.65285
2.25913
2.88338
3.06925
3.12504
3.11789
3.03393
2.89081
2.73768
2.61579
2.52311
2.43356
2.34464
1.40001
1.40001
1.40001
1.40001
1.40001
1.40001
1.40001
1.40001
1.40001
1.40001
1.40033
1.4149
1.54255
2.0101
2.57349
3.01461
3.12396
3.10633
3.0302
2.91405
2.7766
2.62438
2.54702
2.48837
1.40001
1.40001
1.40001
1.40001
1.40001
1.40001
1.40001
1.40001
1.40001
1.40001
1.40001
1.4002
1.40492
1.47199
1.74487
2.31774
2.79642
3.05082
3.04575
3.01644
2.95402
2.84048
2.71087
2.56855
1.40001
1.40001
1.40001
1.40001
1.40001
1.40001
1.40001
1.40001
1.40001
1.40001
1.40001
1.40001
1.40003
1.4018
1.42305
1.57415
2.01358
2.62555
2.86615
2.9498
2.97336
2.95832
2.87629
2.75243
1.40001
1.40001
1.40001
1.40001
1.40001
1.40001
1.40001
1.40001
1.40001
1.40001
1.40001
1.40001
1.40001
1.40001
1.40027
1.40767
1.47859
1.77058
2.2609
2.73807
2.95285
2.94804
2.90791
2.86848
1.40001
1.40001
1.40001
1.40001
1.40001
1.40001
1.40001
1.40001
1.40001
1.40001
1.40001
1.40001
1.40001
1.40001
1.40001
1.40008
1.402
1.42828
1.5931
1.98951
2.46043
2.77589
2.92101
2.91832
1.40001
1.40001
1.40001
1.40001
1.40001
1.40001
1.40001
1.40001
1.40001
1.40001
1.40001
1.40001
1.40001
1.40001
1.40001
1.40001
1.40001
1.40047
1.40949
1.47083
1.71578
2.15867
2.55318
2.77034
1.40001
1.40001
1.40001
1.40001
1.40001
1.40001
1.40001
1.40001
1.40001
1.40001
1.40001
1.40001
1.40001
1.40001
1.40001
1.40001
1.40001
1.40001
1.40008
1.40168
1.42326
1.52888
1.85885
2.26283
1.40001
1.40001
1.40001
1.40001
1.40001
1.40001
1.40001
1.40001
1.40001
1.40001
1.40001
1.40001
1.40001
1.40001
1.40001
1.40001
1.40001
1.40001
1.40001
1.40001
1.40032
1.40462
1.45223
1.59928
1.40001
1.40001
1.40001
1.40001
1.40001
1.40001
1.40001
1.40001
1.40001
1.40001
1.40001
1.40001
1.40001
1.40001
1.40001
1.40001
1.40001
1.40001
1.40001
1.40001
1.40001
1.40004
1.40105
1.41038
1.40001
1.40001
1.40001
1.40001
1.40001
1.40001
1.40001
1.40001
1.40001
1.40001
1.40001
1.40001
1.40001
1.40001
1.40001
1.40001
1.40001
1.40001
1.40001
1.40001
1.40001
1.40001
1.40001
1.40009
1.40001
1.40001
1.40001
1.40001
1.40001
1.40001
1.40001
1.40001
1.40001
1.40001
1.40001
1.40001
1.40001
1.40001
1.40001
1.40001
1.40001
1.40001
1.40001
1.40001
1.40001
1.40001
1.40001
1.40001
1.40001
1.40001
1.40001
1.40001
1.40001
1.40001
1.40001
1.40001
1.40001
1.40001
1.40001
1.40001
1.40001
1.40001
1.40001
1.40001
1.40001
1.40001
1.40001
1.40001
1.40001
1.40001
1.40001
1.40001
1.40001
1.40001
1.40001
1.40001
1.40001
1.40001
1.40001
1.40001
1.40001
1.40001
1.40001
1.40001
1.40001
1.40001
1.40001
1.40001
1.40001
1.40001
1.40001
1.40001
1.40001
1.40001
1.40001
1.40001
0.858523
0.439095
0.331634
0.362098
0.422476
0.483339
0.563845
0.631249
0.669272
0.689523
0.692137
0.695087
0.703832
0.710653
0.716626
0.71815
0.71815
0.718875
0.713656
0.696957
0.689489
0.692332
0.699878
0.712838
0.72021
0.721916
0.721194
0.718819
0.719238
0.722571
0.731866
0.741559
0.742117
0.739405
0.736148
0.732657
0.729937
0.729163
0.729926
0.72868
0.726679
0.725927
0.726829
0.727548
0.724958
0.721835
0.720959
0.726889
0.741441
0.760142
0.771408
0.771702
0.768714
0.766526
0.766985
0.775461
0.77779
0.773352
0.769909
0.765972
0.757306
0.745457
0.736033
0.727839
0.715598
0.700442
0.695337
0.695711
0.696469
0.696317
0.697858
0.708318
1.27501
0.912001
0.690397
0.643814
0.606388
0.566583
0.569947
0.59127
0.617874
0.652805
0.682209
0.698278
0.713034
0.722912
0.727957
0.728711
0.728107
0.726234
0.72057
0.70751
0.696373
0.696446
0.700693
0.70974
0.716762
0.718866
0.718942
0.716439
0.716213
0.718099
0.723954
0.728424
0.7303
0.731002
0.73133
0.731584
0.733374
0.733834
0.730146
0.72543
0.721505
0.71858
0.717005
0.717847
0.723001
0.727613
0.730665
0.734713
0.741321
0.750177
0.762256
0.776197
0.784221
0.784485
0.782287
0.782489
0.787921
0.78821
0.785696
0.783254
0.779388
0.771343
0.758934
0.745133
0.727418
0.703094
0.693783
0.693962
0.699186
0.703236
0.707381
0.718753
1.62113
1.27036
1.02315
0.862885
0.761209
0.667528
0.617177
0.61985
0.631739
0.663155
0.709177
0.740097
0.76743
0.781341
0.779616
0.771674
0.760897
0.749603
0.736519
0.723232
0.712611
0.70648
0.70591
0.707345
0.708899
0.708532
0.707194
0.70691
0.707078
0.706913
0.705248
0.704321
0.704052
0.704043
0.706696
0.713644
0.719948
0.723511
0.72392
0.72216
0.719095
0.715574
0.712572
0.711604
0.7196
0.734906
0.745461
0.749529
0.75113
0.753876
0.763001
0.781324
0.804447
0.826377
0.83919
0.841955
0.84048
0.837492
0.833439
0.829545
0.826291
0.820734
0.812013
0.801243
0.784122
0.755039
0.721352
0.708506
0.708703
0.71332
0.718846
0.731556
1.89286
1.54654
1.30252
1.10526
0.966453
0.852226
0.773471
0.733464
0.688945
0.68137
0.697399
0.728967
0.766845
0.803804
0.824209
0.818223
0.800733
0.780509
0.7615
0.747074
0.736799
0.72829
0.720541
0.714609
0.710207
0.704525
0.697752
0.695392
0.695126
0.693584
0.689538
0.683175
0.678776
0.677546
0.678645
0.683608
0.691007
0.696706
0.699794
0.701269
0.702825
0.704408
0.70491
0.708
0.722715
0.741009
0.749025
0.750208
0.750353
0.754116
0.765743
0.787118
0.81782
0.852341
0.882574
0.900807
0.906589
0.906694
0.905504
0.902135
0.897347
0.88983
0.878771
0.864068
0.843979
0.816899
0.780918
0.751401
0.745757
0.74636
0.748874
0.756507
2.07908
1.77174
1.5284
1.33549
1.1717
1.03799
0.938579
0.865632
0.797785
0.730802
0.714096
0.725602
0.752935
0.786379
0.815443
0.833953
0.837564
0.831162
0.811177
0.791571
0.776216
0.763376
0.750469
0.735128
0.71931
0.7061
0.69543
0.690495
0.68893
0.687574
0.683968
0.677074
0.669142
0.665748
0.66411
0.664195
0.66769
0.67057
0.672113
0.675075
0.679861
0.68459
0.689876
0.700747
0.720426
0.734025
0.740206
0.744132
0.746691
0.752419
0.767258
0.795104
0.828721
0.856562
0.88267
0.912191
0.940443
0.96204
0.969898
0.970507
0.970267
0.966841
0.9557
0.937038
0.912688
0.883664
0.850678
0.814089
0.796699
0.794505
0.794609
0.795944
2.19931
1.93968
1.71261
1.53538
1.37011
1.22281
1.1135
1.02133
0.938125
0.846406
0.793678
0.776761
0.760958
0.762885
0.779609
0.814655
0.842042
0.861983
0.860857
0.844294
0.823727
0.804799
0.787109
0.7657
0.742209
0.721937
0.705752
0.697129
0.693414
0.68949
0.683965
0.677844
0.670664
0.666112
0.663846
0.661194
0.658867
0.657518
0.657358
0.658627
0.660975
0.665239
0.674322
0.690689
0.709096
0.71809
0.724235
0.73316
0.74181
0.751922
0.771458
0.80168
0.830139
0.851536
0.873234
0.904366
0.951298
0.998641
1.01436
1.0164
1.01866
1.01913
1.01067
0.993546
0.970699
0.940923
0.906652
0.865641
0.839317
0.83379
0.831372
0.829919
2.31337
2.082
1.878
1.71289
1.55366
1.39548
1.2793
1.18007
1.08019
0.973267
0.898022
0.858252
0.812538
0.776631
0.78354
0.807941
0.834853
0.860012
0.884085
0.889809
0.877135
0.852486
0.825754
0.800934
0.778633
0.758237
0.739347
0.724142
0.712276
0.702213
0.693476
0.685624
0.677829
0.672219
0.668656
0.664912
0.661159
0.658428
0.657264
0.656413
0.65623
0.659365
0.668858
0.683169
0.695911
0.702314
0.708944
0.721183
0.737535
0.754895
0.778697
0.806407
0.828887
0.847681
0.869416
0.904507
0.96911
1.03562
1.05084
1.05199
1.05187
1.04708
1.03539
1.0194
0.99674
0.96495
0.927407
0.889945
0.875147
0.871641
0.867542
0.862539
2.45349
2.23551
2.03446
1.86967
1.72144
1.56416
1.4302
1.32353
1.22218
1.11075
1.02348
0.974333
0.921134
0.866592
0.828408
0.830656
0.840577
0.855338
0.879098
0.907327
0.906285
0.894129
0.872104
0.849259
0.826548
0.805175
0.785781
0.767838
0.752138
0.737049
0.721322
0.70602
0.690978
0.680138
0.676429
0.673582
0.670329
0.667935
0.666141
0.665201
0.665456
0.667998
0.675334
0.684495
0.690503
0.693631
0.697965
0.709408
0.729748
0.753233
0.78088
0.808053
0.828725
0.847083
0.869819
0.909239
0.987505
1.06015
1.07195
1.07332
1.0703
1.05939
1.04672
1.03237
1.01074
0.979401
0.942175
0.91784
0.91188
0.909715
0.904039
0.897119
2.60786
2.39653
2.19142
2.01399
1.85899
1.7095
1.57498
1.46549
1.36163
1.24087
1.14548
1.09629
1.04543
0.985426
0.90536
0.870513
0.872369
0.873863
0.878528
0.89315
0.916267
0.93006
0.926588
0.915631
0.896918
0.874165
0.848568
0.824165
0.802793
0.781968
0.76215
0.743
0.720038
0.701599
0.696791
0.693089
0.687933
0.682104
0.678005
0.677226
0.678148
0.681613
0.687732
0.694025
0.696216
0.695834
0.697053
0.705579
0.725942
0.753599
0.783601
0.809607
0.829347
0.848787
0.873632
0.91532
0.997089
1.06876
1.07972
1.08177
1.0801
1.07121
1.06074
1.04904
1.02952
0.999843
0.972884
0.959397
0.951588
0.946881
0.939368
0.932624
2.76837
2.57437
2.36309
2.17034
2.00356
1.85186
1.71189
1.59788
1.49897
1.38875
1.27856
1.22048
1.16949
1.10502
1.01694
0.954123
0.945054
0.924383
0.900761
0.899087
0.912868
0.935149
0.952093
0.958462
0.959135
0.947105
0.918536
0.882585
0.853513
0.830566
0.810862
0.791824
0.769126
0.748041
0.73669
0.727552
0.715696
0.704386
0.700151
0.698695
0.698359
0.699292
0.701787
0.707258
0.711081
0.712005
0.713728
0.721475
0.739973
0.765057
0.790365
0.811364
0.828923
0.850092
0.878893
0.923052
1.00403
1.07108
1.08169
1.08399
1.08399
1.08007
1.07299
1.06596
1.05355
1.02807
1.00441
0.987966
0.975544
0.970869
0.967349
0.963713
2.86717
2.76527
2.56292
2.35015
2.1647
2.00738
1.86124
1.73464
1.63657
1.53516
1.42266
1.34583
1.29162
1.23029
1.13613
1.05223
1.028
0.997303
0.9535
0.927811
0.932032
0.946349
0.963187
0.975592
0.978605
0.977484
0.964864
0.936719
0.908091
0.885422
0.865621
0.846324
0.827281
0.809452
0.796089
0.781546
0.762377
0.747158
0.741413
0.73739
0.731834
0.726652
0.724905
0.727004
0.731846
0.734156
0.736035
0.742658
0.760167
0.78338
0.804393
0.819853
0.834386
0.856776
0.890733
0.939778
1.01922
1.07688
1.08561
1.08802
1.08871
1.08752
1.08306
1.07609
1.06223
1.03909
1.01824
1.00276
0.994017
0.992599
0.992299
0.991166
2.69346
2.85862
2.75386
2.55382
2.35013
2.17897
2.02652
1.88167
1.77141
1.67717
1.57596
1.47623
1.41138
1.34742
1.26081
1.16273
1.12308
1.0961
1.05351
1.00185
0.976052
0.981482
0.987986
0.98049
0.973491
0.981142
0.982219
0.974611
0.963216
0.950045
0.936295
0.918616
0.89835
0.875867
0.851803
0.827806
0.808229
0.797013
0.791322
0.787952
0.782841
0.774896
0.769737
0.768931
0.770778
0.770365
0.769653
0.771583
0.784214
0.807799
0.830015
0.845741
0.86078
0.884414
0.923287
0.977674
1.05231
1.09935
1.10529
1.10656
1.10733
1.10606
1.09784
1.0828
1.06214
1.0383
1.01874
1.01149
1.01133
1.01276
1.01249
1.01261
2.1926
2.73099
2.85186
2.75398
2.55751
2.36635
2.2102
2.05985
1.92459
1.81998
1.72116
1.61625
1.5331
1.46904
1.39057
1.28194
1.22556
1.20143
1.16466
1.10427
1.04092
1.03223
1.02913
1.00262
0.981617
0.984583
0.992389
0.99582
0.99877
1.00178
0.99786
0.986568
0.968927
0.944778
0.908764
0.878534
0.863111
0.85201
0.844924
0.841062
0.837731
0.828363
0.817973
0.815186
0.815108
0.812809
0.811034
0.811719
0.820707
0.841091
0.862967
0.881265
0.89897
0.921493
0.955603
1.00454
1.07139
1.11983
1.12672
1.12808
1.12873
1.12645
1.11237
1.08515
1.0546
1.02587
1.00847
1.00716
1.01439
1.03205
1.03348
1.03483
1.83016
2.2754
2.749
2.85108
2.76147
2.58443
2.40164
2.23662
2.09105
1.97515
1.87097
1.76099
1.6569
1.59131
1.52001
1.42485
1.33786
1.30733
1.27818
1.22044
1.13471
1.10796
1.09445
1.05973
1.01833
1.01028
1.01436
1.01685
1.01936
1.02797
1.0357
1.0337
1.02221
0.999738
0.965267
0.939963
0.929706
0.919444
0.911717
0.906952
0.904301
0.896687
0.881521
0.865555
0.857839
0.854714
0.853199
0.854572
0.865002
0.880859
0.897014
0.910715
0.922858
0.936899
0.959891
1.00195
1.06876
1.11785
1.12487
1.12631
1.12732
1.12576
1.11189
1.0815
1.04024
1.00314
0.994312
0.996418
1.00802
1.03401
1.05117
1.06703
1.82439
1.9122
2.3362
2.76767
2.84023
2.76809
2.61431
2.44093
2.27405
2.13029
2.01178
1.90351
1.80182
1.7195
1.65118
1.57066
1.4692
1.41297
1.38471
1.33994
1.2566
1.19348
1.17254
1.13774
1.08537
1.0557
1.05557
1.05664
1.04982
1.05056
1.06068
1.06181
1.05271
1.03299
1.01341
1.00284
0.997262
0.988786
0.979672
0.975562
0.974241
0.967039
0.947979
0.918296
0.902743
0.899598
0.898785
0.904097
0.91253
0.916497
0.922746
0.925762
0.929043
0.938384
0.955271
0.986637
1.04711
1.10679
1.11775
1.11943
1.12042
1.11904
1.10476
1.07209
1.03023
0.998965
0.993061
0.995045
1.00804
1.03652
1.06348
1.09725
1.87924
1.89362
2.00012
2.40757
2.76181
2.84741
2.79714
2.65527
2.47215
2.31261
2.17916
2.06288
1.94508
1.84529
1.78
1.7112
1.62574
1.5362
1.4917
1.44869
1.372
1.29191
1.26287
1.23729
1.18267
1.12073
1.11393
1.11475
1.09935
1.08563
1.08783
1.08795
1.07382
1.05813
1.05288
1.05143
1.05136
1.04838
1.03874
1.03478
1.03465
1.02519
1.00124
0.960613
0.938714
0.935354
0.934793
0.94168
0.943267
0.935842
0.934543
0.936144
0.92885
0.925669
0.929317
0.947149
0.988023
1.05591
1.0929
1.09705
1.09759
1.09553
1.08147
1.05255
1.01692
0.994017
0.991825
0.995201
1.00956
1.03788
1.06869
1.11646
2.02911
1.93933
1.94059
2.05357
2.42994
2.75869
2.87044
2.83175
2.70008
2.52335
2.35144
2.2227
2.1131
2.00588
1.91623
1.84494
1.76323
1.66277
1.60065
1.56141
1.50128
1.40056
1.34925
1.33622
1.29694
1.21693
1.19303
1.18966
1.17556
1.14213
1.12484
1.11745
1.09791
1.08684
1.08643
1.08949
1.09621
1.09584
1.08469
1.07811
1.07854
1.06763
1.03884
0.992246
0.967681
0.964403
0.963823
0.968153
0.967442
0.955442
0.945047
0.944905
0.941466
0.934267
0.93311
0.938252
0.9566
1.00068
1.0454
1.05402
1.05607
1.05588
1.04722
1.02413
0.99816
0.987037
0.988584
0.998433
1.01667
1.03975
1.0699
1.12953
2.16015
2.08759
1.99826
1.98712
2.0941
2.41938
2.76471
2.87828
2.85387
2.73914
2.57287
2.41123
2.28521
2.16091
2.04945
1.98205
1.91183
1.81003
1.70844
1.66641
1.61669
1.5293
1.45742
1.44039
1.41324
1.3379
1.28275
1.27627
1.26053
1.21954
1.17596
1.1585
1.14047
1.12977
1.13035
1.13463
1.14167
1.141
1.12791
1.11767
1.11514
1.10199
1.07301
1.02574
0.996708
0.993129
0.993094
0.994195
0.990769
0.980177
0.964414
0.947469
0.937455
0.932118
0.931979
0.939181
0.960463
0.987078
1.00164
1.00738
1.01091
1.01172
1.00684
0.989169
0.976768
0.977015
0.983706
1.00002
1.02423
1.04969
1.07951
1.14583
2.24419
2.1891
2.12734
2.04796
2.03739
2.12936
2.41547
2.78802
2.85688
2.84682
2.7776
2.62479
2.48151
2.35889
2.22052
2.10544
2.02932
1.93553
1.84276
1.78968
1.74054
1.6563
1.55665
1.53816
1.52555
1.47256
1.40043
1.37423
1.35188
1.29863
1.23017
1.21956
1.20981
1.19018
1.18375
1.18712
1.19475
1.19395
1.17677
1.1621
1.15607
1.14038
1.11308
1.06574
1.03
1.02572
1.02683
1.02537
1.01961
1.01046
0.992985
0.968907
0.955568
0.952442
0.954553
0.969524
0.988386
0.996001
0.99947
1.00073
1.00459
1.00681
1.00244
0.986675
0.98048
0.981544
0.988534
1.00458
1.02842
1.05938
1.09455
1.16238
2.40844
2.31089
2.2179
2.14687
2.08669
2.08665
2.15734
2.44096
2.7624
2.82146
2.86376
2.82075
2.69233
2.55004
2.39577
2.25974
2.17924
2.08338
1.95048
1.8952
1.86209
1.79783
1.69604
1.65088
1.63418
1.58975
1.5097
1.47108
1.44874
1.3988
1.31859
1.29712
1.28704
1.26572
1.24921
1.25137
1.25949
1.25763
1.23714
1.20984
1.19892
1.1859
1.16342
1.11616
1.07705
1.07229
1.07304
1.07166
1.0669
1.05694
1.03342
1.01084
1.00623
1.00633
1.01422
1.03608
1.04404
1.03928
1.02456
1.01811
1.01937
1.01779
1.007
0.993901
0.993391
0.996867
1.0064
1.02337
1.04827
1.08305
1.12512
1.19137
2.50027
2.4345
2.3484
2.24685
2.17389
2.12964
2.12652
2.19344
2.45597
2.68884
2.82878
2.88278
2.84769
2.75173
2.61073
2.41979
2.31328
2.22967
2.11199
2.03234
1.97987
1.91298
1.81319
1.77046
1.74889
1.70701
1.63026
1.57336
1.5391
1.48846
1.41628
1.39338
1.37962
1.35817
1.32877
1.32619
1.33171
1.32832
1.30155
1.27018
1.25595
1.24452
1.22522
1.17533
1.12826
1.12342
1.12405
1.1227
1.11863
1.10556
1.07662
1.06318
1.06266
1.06868
1.09419
1.11095
1.11348
1.10973
1.09348
1.08098
1.08386
1.09263
1.10444
1.12081
1.13523
1.14562
1.15728
1.17308
1.19727
1.23512
1.28055
1.33733
2.63696
2.53801
2.45665
2.37872
2.2966
2.21322
2.15373
2.16027
2.22529
2.42956
2.64826
2.84852
2.87319
2.85495
2.78351
2.63499
2.48515
2.37367
2.25171
2.16943
2.11111
2.04161
1.93978
1.88603
1.85564
1.80903
1.73858
1.6825
1.64645
1.59136
1.51399
1.48782
1.47454
1.45585
1.41991
1.41508
1.41777
1.40878
1.37243
1.34152
1.3244
1.31096
1.29297
1.25028
1.19528
1.18506
1.18568
1.18766
1.18838
1.17815
1.17202
1.17912
1.19604
1.2322
1.29336
1.34767
1.39825
1.44327
1.45324
1.44961
1.44985
1.46546
1.47924
1.48917
1.50066
1.50922
1.51545
1.52449
1.54209
1.57437
1.62006
1.63975
2.79448
2.68788
2.57442
2.48482
2.4198
2.34894
2.25508
2.17331
2.17696
2.22675
2.38157
2.63572
2.85359
2.86517
2.84141
2.77107
2.66034
2.55252
2.42057
2.3079
2.236
2.15904
2.06058
2.01561
1.97154
1.91569
1.83039
1.77546
1.75154
1.70647
1.62075
1.58672
1.57904
1.56428
1.5222
1.50888
1.5078
1.49613
1.4531
1.42344
1.40894
1.3915
1.36815
1.33017
1.28367
1.26912
1.27639
1.30025
1.3443
1.39714
1.46371
1.54426
1.62707
1.71816
1.78973
1.83758
1.8825
1.90192
1.89265
1.85699
1.83164
1.81855
1.80136
1.77932
1.76503
1.7613
1.76083
1.76238
1.77052
1.79611
1.83331
1.82712
2.89736
2.83534
2.73231
2.62015
2.50539
2.44386
2.38618
2.29491
2.21534
2.2126
2.23534
2.36221
2.63068
2.83112
2.83215
2.82317
2.79072
2.7174
2.60136
2.46202
2.37713
2.29835
2.17641
2.11487
2.08094
2.04067
1.94172
1.8613
1.84358
1.81836
1.73949
1.68617
1.67908
1.66818
1.62674
1.59958
1.59646
1.5853
1.54101
1.50544
1.49902
1.49208
1.47786
1.45811
1.47383
1.52676
1.62887
1.76095
1.88816
1.9997
2.10442
2.17718
2.23484
2.26632
2.26125
2.23288
2.18223
2.13833
2.095
2.0474
2.01399
1.99
1.96602
1.93671
1.90222
1.88228
1.87644
1.87389
1.87462
1.89123
1.90688
1.89023
2.88425
2.87603
2.84622
2.7883
2.6911
2.59594
2.48397
2.38407
2.31983
2.27124
2.24566
2.25822
2.36426
2.59253
2.75289
2.80939
2.82823
2.81655
2.76106
2.64142
2.52332
2.44565
2.34447
2.21315
2.16876
2.1424
2.06982
1.96174
1.93337
1.91472
1.85593
1.78671
1.77397
1.76612
1.72723
1.68683
1.67929
1.67654
1.6484