/*--------------------------------*- C++ -*----------------------------------*\
  =========                 |
  \\      /  F ield         | OpenFOAM: The Open Source CFD Toolbox
   \\    /   O peration     | Website:  https://openfoam.org
    \\  /    A nd           | Version:  7
     \\/     M anipulation  |
\*---------------------------------------------------------------------------*/
FoamFile
{
    version     2.0;
    format      ascii;
    class       volVectorField;
    location    "3.1";
    object      U;
}
// * * * * * * * * * * * * * * * * * * * * * * * * * * * * * * * * * * * * * //

dimensions      [0 1 -1 0 0 0 0];

internalField   nonuniform List<vector> 
16192
(
(3 -2.07484e-15 0)
(3 -1.2414e-15 0)
(3 1.52287e-15 0)
(3 8.2941e-16 0)
(3 4.45805e-16 0)
(3 1.38111e-15 0)
(3 2.15141e-15 0)
(3 1.8838e-15 0)
(3 1.01292e-15 0)
(3 8.37927e-15 0)
(3 3.1546e-09 0)
(2.99997 6.79309e-05 0)
(3.00383 0.0380978 0)
(2.47975 0.699095 0)
(1.95979 0.9783 0)
(1.94269 0.980095 0)
(1.94834 0.976699 0)
(1.95893 0.970259 0)
(1.97155 0.962136 0)
(1.98036 0.954417 0)
(3 1.25302e-16 0)
(3 1.06215e-15 0)
(3 9.46531e-16 0)
(3 2.71887e-15 0)
(3 2.63025e-15 0)
(3 1.4697e-15 0)
(3 8.24279e-16 0)
(3 6.85957e-16 0)
(3 -1.2527e-15 0)
(3 -2.80053e-15 0)
(3 1.5358e-11 0)
(3 9.88278e-07 0)
(2.99958 0.00352721 0)
(2.86057 0.331937 0)
(2.16224 0.892356 0)
(1.95059 0.968754 0)
(1.94976 0.970961 0)
(1.9567 0.968737 0)
(1.97186 0.961689 0)
(1.98216 0.954706 0)
(3 3.38035e-16 0)
(3 9.60922e-16 0)
(3 1.06478e-15 0)
(3 2.13561e-15 0)
(3 2.77607e-15 0)
(3 1.49392e-15 0)
(3 3.8525e-16 0)
(3 -2.65832e-15 0)
(3 -3.42865e-15 0)
(3 -4.37548e-15 0)
(3 3.58846e-14 0)
(3 8.62363e-09 0)
(2.99995 0.000135722 0)
(3.00035 0.0563355 0)
(2.43012 0.738125 0)
(1.96352 0.982855 0)
(1.94791 0.977267 0)
(1.95413 0.973641 0)
(1.96549 0.966154 0)
(1.97704 0.959225 0)
(3 1.68118e-17 0)
(3 6.84067e-16 0)
(3 2.41592e-15 0)
(3 1.85259e-15 0)
(3 1.51265e-15 0)
(3 9.79522e-16 0)
(3 3.3602e-16 0)
(3 -7.86693e-16 0)
(3 -1.94461e-15 0)
(3 -3.35567e-15 0)
(3 -5.02898e-15 0)
(3 4.70176e-11 0)
(3 2.21053e-06 0)
(2.99954 0.00587589 0)
(2.80087 0.403486 0)
(2.14077 0.915806 0)
(1.9568 0.968151 0)
(1.95664 0.969172 0)
(1.96414 0.965434 0)
(1.97664 0.959497 0)
(3 5.78372e-16 0)
(3 3.23622e-16 0)
(3 7.59011e-16 0)
(3 5.2829e-16 0)
(3 1.14337e-16 0)
(3 6.26627e-16 0)
(3 1.27306e-15 0)
(3 2.0344e-15 0)
(3 1.61412e-15 0)
(3 -7.06829e-16 0)
(3 -2.41826e-15 0)
(3 1.2723e-13 0)
(3 1.99889e-08 0)
(2.99991 0.000277788 0)
(2.99424 0.0787193 0)
(2.38409 0.770114 0)
(1.97315 0.97856 0)
(1.9573 0.97605 0)
(1.96229 0.97226 0)
(1.97198 0.965504 0)
(3 1.11921e-15 0)
(3 3.3013e-16 0)
(3 -1.15453e-15 0)
(3 -1.04369e-15 0)
(3 7.76953e-16 0)
(3 1.68063e-15 0)
(3 1.62961e-15 0)
(3 2.05842e-15 0)
(3 3.35071e-15 0)
(3 3.20261e-15 0)
(3 1.45173e-15 0)
(3 1.95942e-15 0)
(3 1.1971e-10 0)
(3 5.26761e-06 0)
(2.99971 0.00888175 0)
(2.74028 0.463786 0)
(2.12142 0.929048 0)
(1.96678 0.972907 0)
(1.96564 0.971096 0)
(1.97282 0.964639 0)
(3 2.20903e-15 0)
(3 1.84318e-15 0)
(3 1.81077e-16 0)
(3 -8.12182e-17 0)
(3 -1.78757e-16 0)
(3 1.01758e-15 0)
(3 1.41374e-15 0)
(3 2.21103e-15 0)
(3 2.33079e-15 0)
(3 3.64363e-15 0)
(3 4.12241e-15 0)
(3 3.16051e-16 0)
(3 3.77865e-13 0)
(3 5.16311e-08 0)
(2.99985 0.000500268 0)
(2.98805 0.101021 0)
(2.33027 0.797145 0)
(1.99558 0.97693 0)
(1.96762 0.974782 0)
(1.97072 0.969959 0)
(3 1.97548e-15 0)
(3 2.18181e-15 0)
(3 2.97466e-15 0)
(3 2.30822e-15 0)
(3 1.78755e-15 0)
(3 7.05953e-16 0)
(3 4.42108e-16 0)
(3 1.45299e-15 0)
(3 3.89684e-15 0)
(3 6.11789e-15 0)
(3 6.50539e-15 0)
(3 3.45251e-15 0)
(3 4.41956e-15 0)
(3 3.50016e-10 0)
(3 1.06676e-05 0)
(3.00053 0.0121739 0)
(2.67524 0.508504 0)
(2.10534 0.941815 0)
(1.97322 0.975412 0)
(1.9721 0.973122 0)
(3 7.50505e-16 0)
(3 1.3334e-15 0)
(3 1.93921e-15 0)
(3 2.26784e-15 0)
(3 1.91291e-15 0)
(3 1.50797e-16 0)
(3 2.56124e-16 0)
(3 -1.615e-16 0)
(3 4.35132e-15 0)
(3 6.79223e-15 0)
(3 9.12476e-15 0)
(3 8.70569e-15 0)
(3 3.93624e-15 0)
(3 1.2588e-12 0)
(3 1.14275e-07 0)
(2.9998 0.000771849 0)
(2.97303 0.125618 0)
(2.30262 0.813694 0)
(1.99687 0.977386 0)
(1.97701 0.972863 0)
(3 2.18192e-15 0)
(3 1.78959e-15 0)
(3 1.24505e-15 0)
(3 1.95827e-15 0)
(3 8.18126e-16 0)
(3 4.90848e-16 0)
(3 3.67769e-16 0)
(3 6.11743e-16 0)
(3 2.55442e-15 0)
(3 5.72519e-15 0)
(3 8.02621e-15 0)
(3 7.18018e-15 0)
(3 4.34164e-15 0)
(3 6.55169e-15 0)
(3 8.51699e-10 0)
(2.99999 1.86735e-05 0)
(3.00174 0.0150141 0)
(2.61042 0.558025 0)
(2.09203 0.939915 0)
(1.98212 0.976427 0)
(3 2.21446e-15 0)
(3 2.55026e-15 0)
(3 3.12375e-15 0)
(3 3.28511e-15 0)
(3 3.06203e-15 0)
(3 2.17517e-15 0)
(3 1.10262e-15 0)
(3 2.56259e-15 0)
(3 3.86722e-15 0)
(3 4.99053e-15 0)
(3 5.47652e-15 0)
(3 6.53747e-15 0)
(3 6.77758e-15 0)
(3 5.01942e-15 0)
(3 3.54542e-12 0)
(3 2.1581e-07 0)
(2.99979 0.0010536 0)
(2.93989 0.160281 0)
(2.29381 0.805566 0)
(1.99926 0.991357 0)
(3 1.54916e-15 0)
(3 9.57914e-16 0)
(3 1.01146e-15 0)
(3 1.62548e-15 0)
(3 2.80072e-15 0)
(3 2.68066e-15 0)
(3 2.8392e-15 0)
(3 3.26527e-15 0)
(3 2.96753e-15 0)
(3 3.93495e-15 0)
(3 3.73086e-15 0)
(3 5.52776e-15 0)
(3 6.86391e-15 0)
(3 6.19484e-15 0)
(3 1.33159e-14 0)
(3 1.72928e-09 0)
(2.99999 2.74491e-05 0)
(3.00015 0.0198206 0)
(2.57459 0.591957 0)
(2.11053 0.987646 0)
(3 1.12436e-15 0)
(3 1.32725e-15 0)
(3 4.56076e-16 0)
(3 5.88469e-16 0)
(3 1.04467e-15 0)
(3 3.39713e-15 0)
(3 3.57909e-15 0)
(3 3.1857e-15 0)
(3 1.24093e-15 0)
(3 2.34883e-15 0)
(3 2.87696e-15 0)
(3 3.15148e-15 0)
(3 5.02066e-15 0)
(3 4.99992e-15 0)
(3 3.83282e-15 0)
(3 7.8399e-12 0)
(3 3.34635e-07 0)
(2.9997 0.00155803 0)
(2.91058 0.198728 0)
(2.34985 0.837449 0)
(3 2.38663e-15 0)
(3 3.55533e-15 0)
(3 4.18029e-15 0)
(3 2.3437e-15 0)
(3 2.49908e-15 0)
(3 3.52488e-15 0)
(3 3.10964e-15 0)
(3 2.99441e-15 0)
(3 1.9035e-15 0)
(3 2.00826e-15 0)
(3 2.36569e-15 0)
(3 3.0018e-15 0)
(3 3.18799e-15 0)
(3 2.73199e-15 0)
(3 1.86687e-15 0)
(3 2.03618e-14 0)
(3 2.75404e-09 0)
(2.99998 4.43725e-05 0)
(2.99603 0.0275938 0)
(2.61031 0.605421 0)
(3 1.26269e-15 0)
(3 2.36968e-15 0)
(3 4.70381e-15 0)
(3 4.85339e-15 0)
(3 4.59292e-15 0)
(3 3.74558e-15 0)
(3 2.34949e-15 0)
(3 1.77367e-15 0)
(3 2.89324e-15 0)
(3 1.77949e-15 0)
(3 1.28373e-15 0)
(3 1.54442e-15 0)
(3 2.2293e-15 0)
(3 1.52635e-15 0)
(3 -3.44245e-16 0)
(3 -7.66369e-16 0)
(3 1.29419e-11 0)
(3 5.59702e-07 0)
(2.9994 0.00243977 0)
(2.91931 0.199349 0)
(3 1.22409e-15 0)
(3 1.93188e-15 0)
(3 4.50642e-15 0)
(3 5.73683e-15 0)
(3 4.20274e-15 0)
(3 3.15801e-15 0)
(3 1.73112e-15 0)
(3 -9.38987e-17 0)
(3 2.28563e-16 0)
(3 3.0069e-16 0)
(3 6.66656e-16 0)
(3 8.06989e-17 0)
(3 8.63423e-16 0)
(3 9.80641e-16 0)
(3 -6.5821e-17 0)
(3 -1.01431e-15 0)
(3 2.36775e-14 0)
(3 5.42885e-09 0)
(2.99998 6.27944e-05 0)
(2.98788 0.0407952 0)
(3 4.24409e-15 0)
(3 3.47463e-15 0)
(3 3.22846e-15 0)
(3 3.13369e-15 0)
(3 3.2654e-15 0)
(3 2.76402e-15 0)
(3 2.58417e-15 0)
(3 6.09289e-16 0)
(3 -1.46489e-15 0)
(3 -1.165e-15 0)
(3 -4.84222e-16 0)
(3 4.11919e-16 0)
(3 1.07663e-15 0)
(3 1.20095e-15 0)
(3 1.24267e-15 0)
(3 7.32445e-16 0)
(3 1.15679e-15 0)
(3 2.24091e-11 0)
(3 1.09417e-06 0)
(2.99897 0.00290311 0)
(3 5.55265e-15 0)
(3 5.61305e-15 0)
(3 3.10249e-15 0)
(3 1.22449e-15 0)
(3 1.54241e-15 0)
(3 1.61226e-16 0)
(3 -4.03879e-16 0)
(3 -5.22469e-16 0)
(3 -4.98711e-16 0)
(3 -1.26675e-16 0)
(3 8.697e-16 0)
(3 1.71574e-15 0)
(3 7.84175e-16 0)
(3 7.12415e-16 0)
(3 1.22434e-15 0)
(3 1.23444e-15 0)
(3 7.16797e-16 0)
(3 6.31941e-14 0)
(3 9.1681e-09 0)
(2.99995 0.000113499 0)
(3 3.29389e-15 0)
(3 1.58659e-15 0)
(3 -4.2736e-17 0)
(3 -3.75026e-16 0)
(3 -7.4126e-16 0)
(3 -1.06405e-15 0)
(3 -1.34964e-15 0)
(3 -6.5797e-16 0)
(3 1.14398e-15 0)
(3 2.30409e-16 0)
(3 6.28158e-16 0)
(3 8.60429e-16 0)
(3 -2.85645e-16 0)
(3 -4.77459e-16 0)
(3 5.32886e-16 0)
(3 1.27562e-15 0)
(3 1.04267e-15 0)
(3 1.133e-16 0)
(3 4.80569e-11 0)
(3 2.22582e-06 0)
(3 1.10212e-15 0)
(3 -1.65796e-16 0)
(3 -1.93029e-15 0)
(3 -2.53437e-15 0)
(3 -2.61881e-15 0)
(3 -1.92242e-15 0)
(3 -1.09317e-15 0)
(3 3.58992e-17 0)
(3 -4.45047e-16 0)
(3 -1.54304e-15 0)
(3 -2.40841e-15 0)
(3 -1.40061e-15 0)
(3 -5.44003e-16 0)
(3 -3.10033e-16 0)
(3 4.54439e-16 0)
(3 6.88824e-16 0)
(3 1.09314e-15 0)
(3 1.82921e-16 0)
(3 1.17632e-13 0)
(3 3.40813e-08 0)
(3 -7.96063e-16 0)
(3 -2.78304e-15 0)
(3 -4.64023e-15 0)
(3 -5.90697e-15 0)
(3 -4.74669e-15 0)
(3 -2.47256e-15 0)
(3 -1.75191e-15 0)
(3 -9.82644e-16 0)
(3 -2.17746e-16 0)
(3 3.63482e-16 0)
(3 6.36466e-16 0)
(3 5.97743e-16 0)
(3 1.36981e-15 0)
(3 2.53455e-16 0)
(3 -5.52608e-16 0)
(3 -2.99377e-16 0)
(3 1.4319e-15 0)
(3 2.02297e-15 0)
(3 6.2442e-16 0)
(3 3.2711e-10 0)
(3 -2.29954e-15 0)
(3 -3.64181e-15 0)
(3 -5.3218e-15 0)
(3 -4.33952e-15 0)
(3 -3.23962e-15 0)
(3 -1.04118e-15 0)
(3 -9.39057e-16 0)
(3 -8.83418e-16 0)
(3 4.52914e-16 0)
(3 6.17703e-17 0)
(3 -1.3164e-16 0)
(3 1.57372e-16 0)
(3 2.74687e-16 0)
(3 3.78343e-16 0)
(3 -1.9781e-16 0)
(3 1.86506e-15 0)
(3 4.12849e-15 0)
(3 4.14181e-15 0)
(3 9.88206e-16 0)
(3 2.38868e-12 0)
(3 -1.77465e-15 0)
(3 -2.71948e-15 0)
(3 -4.40581e-15 0)
(3 -4.37268e-15 0)
(3 -2.90358e-15 0)
(3 -1.66199e-15 0)
(3 1.38134e-15 0)
(3 2.7607e-15 0)
(3 3.07856e-15 0)
(3 6.14814e-17 0)
(3 -1.34524e-15 0)
(3 -1.25168e-15 0)
(3 -1.19907e-15 0)
(3 1.08177e-17 0)
(3 1.59117e-15 0)
(3 3.28928e-15 0)
(3 4.16711e-15 0)
(3 4.4686e-15 0)
(3 3.42528e-15 0)
(3 1.28913e-14 0)
(3 -3.59181e-15 0)
(3 -2.95183e-15 0)
(3 -1.25031e-15 0)
(3 -1.70165e-15 0)
(3 -1.7801e-15 0)
(3 -2.23625e-15 0)
(3 -1.96663e-15 0)
(3 -1.82953e-15 0)
(3 -1.42184e-15 0)
(3 1.51593e-15 0)
(3 9.70933e-17 0)
(3 -1.32239e-15 0)
(3 -9.31442e-16 0)
(3 4.66289e-17 0)
(3 1.45811e-15 0)
(3 2.70229e-15 0)
(3 2.5634e-15 0)
(3 3.63364e-15 0)
(3 2.97385e-15 0)
(3 1.13896e-15 0)
(3 -3.46118e-15 0)
(3 -2.76244e-15 0)
(3 -1.80557e-15 0)
(3 -1.69063e-15 0)
(3 -1.55516e-15 0)
(3 -1.82252e-15 0)
(3 -2.26531e-15 0)
(3 -3.27105e-15 0)
(3 -2.40971e-15 0)
(3 -9.19858e-16 0)
(3 -3.43896e-15 0)
(3 -4.72609e-15 0)
(3 -3.79518e-15 0)
(3 -1.92538e-15 0)
(3 -6.39187e-16 0)
(3 7.68794e-17 0)
(3 2.74454e-16 0)
(3 8.30951e-16 0)
(3 2.88772e-16 0)
(3 -1.0662e-15 0)
(3 -4.53492e-16 0)
(3 -7.55873e-16 0)
(3 7.59885e-16 0)
(3 5.1002e-16 0)
(3 -1.56973e-16 0)
(3 -1.13312e-15 0)
(3 -1.19866e-15 0)
(3 -1.61873e-15 0)
(3 -3.35024e-15 0)
(3 -5.40717e-15 0)
(3 -3.65917e-15 0)
(3 -3.27603e-15 0)
(3 -2.67355e-15 0)
(3 -2.59203e-15 0)
(3 -2.49975e-15 0)
(3 -1.76209e-15 0)
(3 -6.92796e-16 0)
(3 2.31112e-16 0)
(3 -2.49845e-16 0)
(3 9.15342e-18 0)
(3 -9.36724e-16 0)
(3 -6.18094e-16 0)
(3 1.34353e-15 0)
(3 1.45928e-15 0)
(3 5.81177e-16 0)
(3 1.84763e-16 0)
(3 -3.25981e-16 0)
(3 -8.38072e-16 0)
(3 -2.15726e-15 0)
(3 -2.96139e-15 0)
(3 -2.14691e-15 0)
(3 -2.35411e-15 0)
(3 -7.70893e-16 0)
(3 -6.32971e-16 0)
(3 -1.2222e-15 0)
(3 -9.91802e-16 0)
(3 -1.01998e-15 0)
(3 4.72031e-16 0)
(3 1.52803e-15 0)
(3 6.82362e-16 0)
(3 -3.62624e-15 0)
(3 -2.00699e-15 0)
(3 -1.68533e-15 0)
(3 -1.28072e-15 0)
(3 -6.73552e-16 0)
(3 -3.41767e-16 0)
(3 -2.46652e-16 0)
(3 -4.60552e-17 0)
(3 8.8789e-17 0)
(3 -1.31017e-15 0)
(3 -2.30471e-15 0)
(3 -2.35621e-15 0)
(3 -1.42422e-15 0)
(3 -1.11679e-16 0)
(3 -6.05197e-16 0)
(3 -1.78354e-15 0)
(3 -3.0771e-15 0)
(3 -2.21808e-15 0)
(3 -5.38747e-16 0)
(3 -1.07549e-15 0)
(3 -3.84424e-15 0)
(3 -1.89278e-15 0)
(3 -1.19443e-15 0)
(3 -3.95914e-16 0)
(3 -4.52704e-16 0)
(3 -1.71688e-15 0)
(3 -1.48476e-15 0)
(3 -1.03959e-15 0)
(3 -6.0728e-16 0)
(3 -1.49382e-15 0)
(3 -3.16078e-15 0)
(3 -2.65529e-15 0)
(3 -2.31647e-15 0)
(3 -1.11861e-15 0)
(3 -1.36351e-15 0)
(3 -3.09308e-15 0)
(3 -4.15248e-15 0)
(3 -4.7096e-15 0)
(3 -3.26814e-15 0)
(3 -2.39491e-15 0)
(3 -1.40537e-15 0)
(3 -1.37858e-16 0)
(3 1.83688e-16 0)
(3 -1.62445e-15 0)
(3 -2.65247e-15 0)
(3 -2.93262e-15 0)
(3 -2.36245e-15 0)
(3 -1.83403e-15 0)
(3 -1.89936e-15 0)
(3 -1.82706e-15 0)
(3 -1.71349e-15 0)
(3 -1.85282e-15 0)
(3 -2.75827e-15 0)
(3 -3.16774e-15 0)
(3 -2.84209e-15 0)
(3 -3.43722e-15 0)
(3 -4.5797e-15 0)
(3 -4.479e-15 0)
(3 -3.57475e-15 0)
(3 -3.2108e-15 0)
(3 7.37238e-16 0)
(3 -3.35981e-16 0)
(3 -1.98967e-15 0)
(3 -1.81655e-15 0)
(3 -2.21748e-15 0)
(3 -1.79307e-15 0)
(3 -3.26663e-15 0)
(3 -2.16372e-15 0)
(3 -1.61325e-15 0)
(3 -3.17082e-15 0)
(3 -3.11217e-15 0)
(3 -2.70594e-15 0)
(3 -2.89687e-15 0)
(3 -2.59013e-15 0)
(3 -2.62293e-15 0)
(3 -2.40032e-15 0)
(3 -2.9872e-15 0)
(3 -2.51266e-15 0)
(3 -1.96049e-15 0)
(3 -1.64649e-15 0)
(3 -2.15454e-16 0)
(3 -2.70858e-15 0)
(3 -3.07027e-15 0)
(3 -2.39527e-15 0)
(3 -1.78083e-15 0)
(3 -1.58533e-15 0)
(3 -2.57735e-15 0)
(3 -2.32932e-15 0)
(3 -2.76447e-16 0)
(3 -1.9346e-15 0)
(3 -2.32851e-15 0)
(3 -2.96291e-15 0)
(3 -2.93824e-15 0)
(3 -3.02764e-15 0)
(3 -2.43835e-15 0)
(3 -4.67397e-16 0)
(3 -6.85639e-16 0)
(3 -1.12832e-15 0)
(3 -7.58296e-16 0)
(3 7.00956e-16 0)
(3 4.11914e-17 0)
(3 -1.87285e-15 0)
(3 -4.01746e-15 0)
(3 -4.64517e-15 0)
(3 -4.65868e-15 0)
(3 -4.40235e-15 0)
(3 -3.67196e-15 0)
(3 -2.85578e-15 0)
(3 -8.54058e-16 0)
(3 -1.47736e-17 0)
(3 5.44766e-16 0)
(3 -1.45229e-15 0)
(3 -2.1939e-15 0)
(3 -3.37184e-15 0)
(3 -2.13482e-15 0)
(3 -1.50416e-15 0)
(3 -1.60077e-15 0)
(3 -1.26742e-15 0)
(3 -1.77221e-15 0)
(3 -4.51959e-16 0)
(3 -1.60381e-15 0)
(3 -2.06206e-15 0)
(3 -3.65231e-15 0)
(3 -4.90918e-15 0)
(3 -5.26021e-15 0)
(3 -5.19286e-15 0)
(3 -4.06809e-15 0)
(3 -1.91173e-15 0)
(3 -1.86881e-15 0)
(3 -7.92243e-16 0)
(3 -7.19886e-16 0)
(3 -1.24908e-15 0)
(3 -2.83665e-15 0)
(3 -3.09574e-15 0)
(3 -4.05078e-15 0)
(3 -4.54987e-15 0)
(3 -3.59524e-15 0)
(3 -2.3316e-15 0)
(3 -1.64884e-15 0)
(3 -7.65049e-16 0)
(3 -1.46148e-15 0)
(3 -2.01494e-15 0)
(3 -1.23117e-15 0)
(3 -1.35844e-15 0)
(3 -1.67882e-15 0)
(3 -1.63615e-15 0)
(3 -1.77283e-15 0)
(3 -1.28302e-15 0)
(3 -2.74302e-16 0)
(3 -1.3552e-16 0)
(3 -1.74606e-15 0)
(3 -2.30313e-15 0)
(3 -3.52809e-15 0)
(3 -4.57683e-15 0)
(3 -5.87203e-15 0)
(3 -5.87296e-15 0)
(3 -3.92013e-15 0)
(3 -2.02403e-15 0)
(3 -1.35227e-15 0)
(3 -1.48905e-16 0)
(3 5.43586e-16 0)
(3 -1.32515e-16 0)
(3 3.59168e-16 0)
(3 6.85338e-16 0)
(3 5.52318e-16 0)
(3 3.66093e-16 0)
(3 2.78908e-16 0)
(3 -4.53072e-16 0)
(3 -4.28512e-16 0)
(3 -1.69867e-15 0)
(3 -2.51493e-15 0)
(3 -2.36778e-15 0)
(3 -3.17079e-15 0)
(3 -2.66811e-15 0)
(3 -4.1665e-15 0)
(3 -5.29856e-15 0)
(3 -4.41797e-15 0)
(3 -3.82979e-15 0)
(3 -2.74358e-15 0)
(3 -1.90235e-15 0)
(3 -9.30894e-16 0)
(3 -5.37504e-16 0)
(3 -7.77018e-16 0)
(3 -3.87855e-16 0)
(3 8.43029e-18 0)
(3 6.25899e-16 0)
(3 5.58477e-16 0)
(3 -6.86474e-16 0)
(3 -1.31385e-15 0)
(3 -3.05802e-16 0)
(3 -4.87868e-16 0)
(3 1.30419e-16 0)
(3 -2.0469e-16 0)
(3 -1.14228e-15 0)
(3 -1.76107e-15 0)
(3 -3.1475e-15 0)
(3 -3.66054e-15 0)
(3 -4.66247e-15 0)
(3 -3.89148e-15 0)
(3 -1.84493e-15 0)
(3 -1.92135e-15 0)
(3 -1.55825e-15 0)
(3 -7.25538e-16 0)
(3 -5.57035e-16 0)
(3 -1.16273e-15 0)
(3 -8.48591e-16 0)
(3 4.99461e-16 0)
(3 1.05328e-15 0)
(3 6.14686e-17 0)
(3 -6.56806e-16 0)
(3 7.35316e-17 0)
(3 1.20704e-15 0)
(3 6.53509e-16 0)
(3 -1.41406e-15 0)
(3 -1.11566e-15 0)
(3 -1.24136e-15 0)
(3 -2.06027e-15 0)
(3 -2.49211e-15 0)
(3 -2.68913e-15 0)
(3 -2.45686e-15 0)
(3 -1.35696e-15 0)
(3 -1.59464e-15 0)
(3 -1.08964e-15 0)
(3 -1.08181e-15 0)
(3 -1.25089e-15 0)
(3 -1.88159e-15 0)
(3 -1.02727e-15 0)
(3 -9.96435e-16 0)
(3 -1.69701e-15 0)
(3 -1.24245e-15 0)
(3 8.94243e-17 0)
(3 -4.79009e-17 0)
(3 -1.21443e-15 0)
(3 -1.64026e-15 0)
(3 -1.52069e-15 0)
(3 -1.3562e-15 0)
(3 -1.67841e-15 0)
(3 -2.36022e-15 0)
(3 -3.62261e-15 0)
(3 -4.87175e-15 0)
(3 -3.96519e-16 0)
(3 -3.97823e-16 0)
(3 -1.03877e-15 0)
(3 -2.72962e-15 0)
(3 -2.66595e-15 0)
(3 -2.41145e-15 0)
(3 -2.12404e-15 0)
(3 -2.60613e-15 0)
(3 -1.6229e-15 0)
(3 -2.27331e-15 0)
(3 -2.443e-15 0)
(3 -2.62377e-15 0)
(3 -2.51302e-15 0)
(3 -2.11258e-15 0)
(3 -7.40183e-16 0)
(3 2.21024e-16 0)
(3 -4.54791e-16 0)
(3 -2.46707e-15 0)
(3 -5.1746e-15 0)
(3 -5.44901e-15 0)
(3 -1.62937e-15 0)
(3 -2.7924e-15 0)
(3 -4.05665e-15 0)
(3 -4.01382e-15 0)
(3 -4.0688e-15 0)
(3 -4.2251e-15 0)
(3 -3.18385e-15 0)
(3 -3.17422e-15 0)
(3 -2.44386e-15 0)
(3 -4.77992e-15 0)
(3 -6.45353e-15 0)
(3 -5.61557e-15 0)
(3 -2.07383e-15 0)
(3 -9.12801e-16 0)
(3 1.3473e-15 0)
(3 2.01978e-15 0)
(3 2.16775e-15 0)
(3 -9.21843e-17 0)
(3 -2.39882e-15 0)
(3 -2.95274e-15 0)
(3 -1.95539e-15 0)
(3 -4.10173e-15 0)
(3 -6.05589e-15 0)
(3 -3.94341e-15 0)
(3 -3.85286e-15 0)
(3 -5.07697e-15 0)
(3 -4.63803e-15 0)
(3 -3.54002e-15 0)
(3 -3.32878e-15 0)
(3 -5.58315e-15 0)
(3 -6.43497e-15 0)
(3 -5.83532e-15 0)
(3 -2.50105e-15 0)
(3 -2.18306e-16 0)
(3 4.96355e-16 0)
(3 9.43135e-16 0)
(3 1.32575e-15 0)
(3 1.10464e-15 0)
(3 3.11833e-17 0)
(3 -1.96191e-16 0)
(3 -1.4157e-15 0)
(3 -1.98196e-15 0)
(3 -2.50975e-15 0)
(3 -2.31375e-15 0)
(3 -3.03372e-15 0)
(3 -3.49449e-15 0)
(3 -3.62451e-15 0)
(3 -3.11096e-15 0)
(3 -4.76921e-15 0)
(3 -4.96533e-15 0)
(3 -4.63471e-15 0)
(3 -3.51728e-15 0)
(3 -3.04387e-15 0)
(3 -2.17783e-15 0)
(3 -1.9925e-15 0)
(3 -1.50076e-15 0)
(3 -8.57104e-16 0)
(3 -8.36797e-16 0)
(3 -4.24248e-16 0)
(3 4.32799e-16 0)
(3 6.70627e-16 0)
(3 -6.0101e-16 0)
(3 -6.68159e-16 0)
(3 -1.87744e-15 0)
(3 -2.21259e-15 0)
(3 -1.47896e-15 0)
(3 -2.18935e-15 0)
(3 -3.39337e-15 0)
(3 -5.54359e-15 0)
(3 -4.97669e-15 0)
(3 -3.62322e-15 0)
(3 -2.99501e-15 0)
(3 -2.81737e-15 0)
(3 -3.01817e-15 0)
(3 -2.6714e-15 0)
(3 -2.15297e-15 0)
(3 -1.45268e-15 0)
(3 -4.60094e-16 0)
(3 -9.01057e-17 0)
(3 5.96686e-16 0)
(3 2.06386e-15 0)
(3 -3.81141e-17 0)
(3 -2.05546e-15 0)
(3 -1.06858e-15 0)
(3 -3.87403e-16 0)
(3 3.99555e-16 0)
(3 -4.59017e-16 0)
(3 -1.72984e-15 0)
(3 -2.73e-15 0)
(3 -2.40214e-15 0)
(3 -1.50669e-15 0)
(3 -1.50757e-15 0)
(3 -1.57175e-15 0)
(3 -9.29888e-16 0)
(3 -4.19571e-17 0)
(3 -6.19295e-16 0)
(3 -5.56681e-16 0)
(3 5.38707e-17 0)
(3 -1.86037e-16 0)
(3 5.15789e-16 0)
(3 -9.85547e-16 0)
(3 -6.87271e-16 0)
(3 -9.31747e-16 0)
(3 4.39978e-17 0)
(3 9.69654e-16 0)
(3 5.13897e-16 0)
(3 -6.01001e-16 0)
(3 -1.86637e-15 0)
(3 -1.95431e-15 0)
(3 -2.12366e-15 0)
(3 -2.33522e-15 0)
(3 -2.57092e-15 0)
(3 -2.28088e-15 0)
(3 -2.14414e-15 0)
(3 -1.0032e-15 0)
(3 -8.18239e-16 0)
(3 -3.66312e-16 0)
(3 1.2686e-15 0)
(3 1.89497e-15 0)
(3 1.41525e-15 0)
(3 -1.35962e-15 0)
(3 5.9738e-16 0)
(3 1.36285e-15 0)
(3 2.19552e-15 0)
(3 1.40205e-15 0)
(3 -3.43463e-16 0)
(3 -2.04832e-15 0)
(3 -2.66678e-15 0)
(3 -2.39592e-15 0)
(3 -3.06165e-15 0)
(3 -2.79802e-15 0)
(3 -2.16147e-15 0)
(3 -1.81472e-15 0)
(3 -2.3448e-15 0)
(3 -1.69e-15 0)
(3 6.40825e-17 0)
(3 1.79153e-15 0)
(3 3.58231e-15 0)
(3 3.28844e-15 0)
(3 2.24265e-15 0)
(3 -1.57728e-16 0)
(3 8.80515e-16 0)
(3 1.61435e-15 0)
(3 2.22939e-15 0)
(3 2.27799e-15 0)
(3 3.13583e-16 0)
(3 -8.7192e-16 0)
(3 -1.60795e-15 0)
(3 -2.28437e-15 0)
(3 -1.29758e-15 0)
(3 -6.68368e-16 0)
(3 5.95969e-16 0)
(3 4.92768e-16 0)
(3 -1.30417e-16 0)
(3 -9.12372e-17 0)
(3 1.12324e-15 0)
(3 2.98221e-15 0)
(3 3.00249e-15 0)
(3 2.07498e-15 0)
(3 1.94984e-15 0)
(3 -8.69966e-16 0)
(3 6.92549e-16 0)
(3 3.52288e-16 0)
(3 4.34953e-16 0)
(3 9.07161e-16 0)
(3 1.42569e-15 0)
(3 7.10029e-16 0)
(3 -1.81833e-15 0)
(3 -2.09557e-15 0)
(3 -2.50307e-16 0)
(3 -4.91354e-16 0)
(3 -3.56341e-16 0)
(3 3.24489e-16 0)
(3 1.41851e-15 0)
(3 6.99253e-16 0)
(3 6.65081e-16 0)
(3 1.62519e-15 0)
(3 1.61785e-15 0)
(3 2.11993e-15 0)
(3 2.4888e-16 0)
(3 8.61697e-16 0)
(3 6.23157e-16 0)
(3 -3.62132e-16 0)
(3 -1.43301e-15 0)
(3 -1.86208e-15 0)
(3 -2.35588e-15 0)
(3 -3.41458e-15 0)
(3 -4.59399e-15 0)
(3 -3.80295e-15 0)
(3 -2.64009e-15 0)
(3 -9.09956e-16 0)
(3 1.89712e-16 0)
(3 -4.24811e-16 0)
(3 3.90444e-16 0)
(3 1.74952e-15 0)
(3 2.62459e-15 0)
(3 4.18869e-15 0)
(3 3.98937e-15 0)
(3 2.37105e-15 0)
(3 6.30804e-16 0)
(3 2.28025e-15 0)
(3 1.21076e-15 0)
(3 1.23481e-15 0)
(3 7.86546e-16 0)
(3 -1.28922e-15 0)
(3 -2.44962e-15 0)
(3 -3.79418e-15 0)
(3 -3.86879e-15 0)
(3 -3.93718e-15 0)
(3 -3.82885e-15 0)
(3 -1.59607e-15 0)
(3 -2.02068e-16 0)
(3 -6.34308e-16 0)
(3 -7.58651e-16 0)
(3 -2.003e-16 0)
(3 8.71169e-16 0)
(3 2.4005e-15 0)
(3 1.86136e-15 0)
(3 4.15973e-16 0)
(3 -6.96266e-16 0)
(3 2.424e-15 0)
(3 1.63682e-15 0)
(3 1.96056e-15 0)
(3 1.62098e-15 0)
(3 2.7851e-16 0)
(3 -9.93512e-16 0)
(3 -3.0023e-15 0)
(3 -2.77542e-15 0)
(3 -1.68185e-15 0)
(3 -6.1192e-16 0)
(3 -6.75579e-16 0)
(3 -2.20609e-15 0)
(3 -1.88427e-15 0)
(3 -2.14979e-15 0)
(3 -2.19515e-15 0)
(3 -1.67499e-15 0)
(3 -1.3379e-15 0)
(3 -9.23396e-16 0)
(3 -1.2916e-15 0)
(3 -9.75643e-16 0)
(3 1.47174e-15 0)
(3 5.71361e-16 0)
(3 1.04676e-16 0)
(3 -3.46851e-16 0)
(3 -8.19999e-16 0)
(3 -1.92354e-15 0)
(3 -2.03317e-15 0)
(3 -2.54041e-15 0)
(3 -2.2331e-15 0)
(3 -1.55881e-15 0)
(3 -1.18471e-15 0)
(3 -1.50378e-15 0)
(3 -2.21343e-15 0)
(3 -2.43035e-15 0)
(3 -1.7055e-15 0)
(3 -2.27773e-15 0)
(3 -3.71666e-15 0)
(3 -2.91171e-15 0)
(3 -1.93009e-15 0)
(3 -1.25017e-16 0)
(3 4.11868e-16 0)
(3 7.99408e-16 0)
(3 -1.13842e-15 0)
(3 -1.9307e-15 0)
(3 -8.17278e-16 0)
(3 -1.33743e-15 0)
(3 -4.97624e-16 0)
(3 -7.06195e-16 0)
(3 -1.69338e-15 0)
(3 -2.73636e-15 0)
(3 -2.0662e-15 0)
(3 -7.63049e-16 0)
(3 -7.22727e-16 0)
(3 -6.65405e-16 0)
(3 -1.95514e-15 0)
(3 -3.263e-15 0)
(3 -3.7981e-15 0)
(3 -3.58833e-15 0)
(3 -2.96646e-15 0)
(3 -2.05624e-15 0)
(3 5.80968e-16 0)
(3 1.01352e-15 0)
(3 -5.61431e-17 0)
(3 1.04517e-17 0)
(3 1.50715e-15 0)
(3 2.18929e-15 0)
(3 1.50162e-15 0)
(3 1.25099e-15 0)
(3 6.55939e-16 0)
(3 4.81342e-17 0)
(3 1.53657e-17 0)
(3 -1.26177e-16 0)
(3 5.95712e-16 0)
(3 8.55685e-16 0)
(3 -1.30398e-15 0)
(3 -2.94627e-15 0)
(3 -4.23319e-15 0)
(3 -3.85013e-15 0)
(3 -3.54536e-15 0)
(3 -2.19724e-15 0)
(3 9.6353e-16 0)
(3 8.56813e-16 0)
(3 1.71489e-15 0)
(3 2.28491e-15 0)
(3 2.0564e-15 0)
(3 1.91884e-15 0)
(3 9.2448e-16 0)
(3 9.92798e-16 0)
(3 9.24972e-16 0)
(3 5.51246e-16 0)
(3 -2.32014e-16 0)
(3 -1.21119e-16 0)
(3 2.44993e-16 0)
(3 -7.75806e-16 0)
(3 -7.1688e-16 0)
(3 -2.08992e-15 0)
(3 -3.04332e-15 0)
(3 -2.65503e-15 0)
(3 -1.98888e-15 0)
(3 -1.04088e-15 0)
(3 -9.22072e-16 0)
(3 -2.64223e-16 0)
(3 2.37168e-15 0)
(3 3.05773e-15 0)
(3 1.54493e-15 0)
(3 9.61909e-17 0)
(3 8.95138e-16 0)
(3 9.57949e-16 0)
(3 4.34281e-16 0)
(3 1.01418e-15 0)
(3 1.74401e-15 0)
(3 1.71845e-15 0)
(3 6.84824e-16 0)
(3 -1.01701e-15 0)
(3 -7.86368e-16 0)
(3 -1.90729e-15 0)
(3 -2.7793e-15 0)
(3 -2.67506e-15 0)
(3 -1.77871e-15 0)
(3 -6.5231e-16 0)
(3 -1.37613e-15 0)
(3 -7.26022e-16 0)
(3 7.83013e-16 0)
(3 1.03933e-15 0)
(3 1.09602e-15 0)
(3 8.61044e-16 0)
(3 5.15172e-16 0)
(3 5.46901e-16 0)
(3 1.341e-15 0)
(3 2.09379e-15 0)
(3 3.33286e-15 0)
(3 3.59763e-15 0)
(3 2.71654e-15 0)
(3 9.92049e-16 0)
(3 -1.30844e-15 0)
(3 -2.93965e-15 0)
(3 -2.61124e-15 0)
(3 -2.55454e-15 0)
(3 -2.50204e-15 0)
(3 2.91984e-17 0)
(3 -1.8089e-15 0)
(3 -1.08283e-15 0)
(3 -8.17741e-16 0)
(3 -2.86457e-16 0)
(3 -3.35203e-17 0)
(3 2.3481e-17 0)
(3 -6.83487e-16 0)
(3 -4.06102e-16 0)
(3 1.82585e-15 0)
(3 2.13739e-15 0)
(3 2.8394e-15 0)
(3 3.71381e-15 0)
(3 4.16496e-15 0)
(3 3.00929e-15 0)
(3 -1.45951e-15 0)
(3 -1.80555e-15 0)
(3 -1.27368e-15 0)
(3 -1.11587e-15 0)
(3 -1.31066e-16 0)
(3 9.10178e-16 0)
(3 -3.06077e-15 0)
(3 -1.49015e-15 0)
(3 -3.84749e-16 0)
(3 -5.44183e-16 0)
(3 -9.66736e-16 0)
(3 -9.17451e-16 0)
(3 -1.1931e-15 0)
(3 3.65164e-16 0)
(3 1.16469e-15 0)
(3 1.4615e-15 0)
(3 1.29522e-15 0)
(3 2.16005e-15 0)
(3 3.2299e-15 0)
(3 3.01265e-15 0)
(3 3.10423e-16 0)
(3 -1.12575e-15 0)
(3 -1.04353e-16 0)
(3 3.6113e-16 0)
(3 1.40785e-15 0)
(3 1.38766e-15 0)
(3 -3.01193e-15 0)
(3 -1.01624e-15 0)
(3 -1.20902e-15 0)
(3 -1.59866e-15 0)
(3 -1.51926e-15 0)
(3 -3.28222e-16 0)
(3 2.11381e-16 0)
(3 2.19654e-15 0)
(3 1.71359e-15 0)
(3 1.31238e-15 0)
(3 -7.84351e-17 0)
(3 7.29238e-16 0)
(3 1.83207e-15 0)
(3 2.26292e-15 0)
(3 1.70038e-15 0)
(3 -6.3903e-16 0)
(3 3.64575e-16 0)
(3 7.52769e-16 0)
(3 7.65756e-16 0)
(3 -7.68499e-16 0)
(3 -1.99143e-15 0)
(3 -2.01213e-15 0)
(3 -2.5462e-15 0)
(3 -1.16368e-15 0)
(3 -6.15475e-16 0)
(3 -2.4601e-16 0)
(3 1.17631e-15 0)
(3 7.80625e-16 0)
(3 9.28499e-16 0)
(3 1.59337e-15 0)
(3 2.19156e-15 0)
(3 2.07304e-15 0)
(3 2.10224e-15 0)
(3 2.44275e-15 0)
(3 2.25603e-15 0)
(3 1.36784e-15 0)
(3 1.38016e-15 0)
(3 1.00163e-15 0)
(3 -5.43694e-16 0)
(3 -3.15736e-15 0)
(3 -3.59514e-15 0)
(3 -3.44757e-15 0)
(3 -2.11662e-15 0)
(3 -4.85031e-16 0)
(3 -5.28709e-16 0)
(3 8.48963e-16 0)
(3 1.19311e-15 0)
(3 1.32252e-15 0)
(3 1.60987e-15 0)
(3 1.41772e-15 0)
(3 2.61767e-15 0)
(3 2.38459e-15 0)
(3 8.33841e-16 0)
(3 1.80713e-15 0)
(3 2.47911e-15 0)
(3 1.81382e-15 0)
(3 9.92654e-16 0)
(3 -9.87138e-16 0)
(3 -1.88656e-15 0)
(3 -4.33242e-15 0)
(3 -3.12301e-15 0)
(3 -2.57756e-15 0)
(3 -1.58665e-15 0)
(3 -7.70706e-16 0)
(3 4.94438e-17 0)
(3 9.89579e-16 0)
(3 1.52221e-15 0)
(3 1.37607e-15 0)
(3 7.41319e-16 0)
(3 5.47087e-17 0)
(3 -6.51661e-18 0)
(3 -6.91853e-16 0)
(3 -1.05497e-15 0)
(3 -1.26549e-16 0)
(3 1.96472e-15 0)
(3 2.27945e-15 0)
(3 3.61739e-17 0)
(3 -2.3205e-15 0)
(3 -3.09557e-15 0)
(3 -3.42051e-15 0)
(3 -1.87487e-15 0)
(3 -7.14239e-16 0)
(3 3.13144e-16 0)
(3 3.83823e-16 0)
(3 6.79991e-16 0)
(3 1.17383e-16 0)
(3 3.09512e-16 0)
(3 -3.15705e-16 0)
(3 -4.33342e-16 0)
(3 6.17277e-16 0)
(3 -1.21025e-15 0)
(3 -1.98503e-15 0)
(3 -1.01079e-15 0)
(3 1.20456e-15 0)
(3 1.19472e-15 0)
(3 1.2237e-15 0)
(3 -1.91055e-16 0)
(3 -1.63429e-15 0)
(3 -1.92984e-15 0)
(3 -1.18634e-15 0)
(2.26971 0.659473 0)
(2.28048 0.653849 0)
(2.28963 0.645862 0)
(2.29537 0.640297 0)
(2.29774 0.636043 0)
(2.29876 0.631731 0)
(2.30109 0.626731 0)
(2.30459 0.618634 0)
(2.30833 0.606953 0)
(2.31287 0.59809 0)
(2.31927 0.596433 0)
(2.32546 0.596669 0)
(2.33251 0.596419 0)
(2.34079 0.59474 0)
(2.34935 0.591959 0)
(2.35733 0.589222 0)
(2.36419 0.586254 0)
(2.36833 0.580762 0)
(2.36628 0.570713 0)
(2.35788 0.553631 0)
(2.3556 0.538055 0)
(2.36086 0.53213 0)
(2.36664 0.532501 0)
(2.37406 0.533452 0)
(2.38276 0.5348 0)
(2.39189 0.535101 0)
(2.40158 0.534898 0)
(2.4099 0.534843 0)
(2.41555 0.534612 0)
(2.4218 0.534181 0)
(2.42769 0.531588 0)
(2.43003 0.52356 0)
(2.4268 0.510036 0)
(2.41707 0.489289 0)
(2.40962 0.471465 0)
(2.4105 0.462181 0)
(2.4146 0.459646 0)
(2.4196 0.459695 0)
(2.42897 0.460986 0)
(2.44217 0.465789 0)
(2.45144 0.468518 0)
(2.45654 0.467676 0)
(2.4625 0.46598 0)
(2.46676 0.462408 0)
(2.4645 0.452164 0)
(2.45885 0.438679 0)
(2.46188 0.431996 0)
(2.46717 0.429949 0)
(2.47257 0.427479 0)
(2.47731 0.423332 0)
(2.4788 0.415254 0)
(2.47523 0.404104 0)
(2.47535 0.397186 0)
(2.4789 0.397161 0)
(2.48642 0.398185 0)
(2.49914 0.401384 0)
(2.50699 0.402627 0)
(2.5119 0.400636 0)
(2.51522 0.393873 0)
(2.51065 0.381439 0)
(2.5046 0.368212 0)
(2.50691 0.362924 0)
(2.51121 0.362766 0)
(2.51723 0.360881 0)
(2.52237 0.358325 0)
(2.52653 0.353848 0)
(2.52695 0.344738 0)
(2.52258 0.333015 0)
(2.52104 0.324781 0)
(2.52363 0.323847 0)
(2.5295 0.326618 0)
(2.54243 0.333617 0)
(2.5545 0.339969 0)
(2.55904 0.340266 0)
(2.56454 0.336622 0)
(2.56586 0.32851 0)
(2.5621 0.316654 0)
(2.55307 0.299374 0)
(2.54777 0.286013 0)
(2.5501 0.280919 0)
(2.55375 0.280856 0)
(2.55894 0.279822 0)
(2.56356 0.277966 0)
(2.56773 0.274419 0)
(2.57032 0.268763 0)
(2.57371 0.265205 0)
(2.57751 0.265117 0)
(2.58207 0.265387 0)
(2.58967 0.266329 0)
(2.59668 0.266289 0)
(2.60138 0.264865 0)
(2.606 0.26318 0)
(2.60968 0.260829 0)
(2.61092 0.254773 0)
(2.60353 0.241607 0)
(2.58981 0.223129 0)
(2.58673 0.213875 0)
(2.58946 0.213174 0)
(2.59491 0.21405 0)
(2.60765 0.219032 0)
(2.62064 0.224965 0)
(2.62464 0.225322 0)
(2.62821 0.222826 0)
(2.62753 0.215199 0)
(2.61826 0.201405 0)
(2.61229 0.190256 0)
(2.61498 0.188119 0)
(2.61933 0.187799 0)
(2.62453 0.185898 0)
(2.62883 0.183722 0)
(2.63248 0.181255 0)
(2.63477 0.178011 0)
(2.635 0.173596 0)
(2.63794 0.170974 0)
(2.64156 0.169624 0)
(2.64545 0.168011 0)
(2.64928 0.166102 0)
(2.65277 0.164178 0)
(2.65572 0.161881 0)
(2.65713 0.157244 0)
(2.65255 0.147257 0)
(2.64337 0.134562 0)
(2.64218 0.128569 0)
(2.64454 0.128649 0)
(2.65012 0.129451 0)
(2.66059 0.132816 0)
(2.66975 0.134988 0)
(2.67315 0.133864 0)
(2.6773 0.132219 0)
(2.68048 0.130686 0)
(2.68305 0.127881 0)
(2.68186 0.120781 0)
(2.67266 0.10768 0)
(2.66325 0.0951018 0)
(1.98593 0.948924 0)
(1.9892 0.945556 0)
(1.99111 0.944609 0)
(1.99352 0.943105 0)
(1.99879 0.938369 0)
(2.00404 0.932718 0)
(2.00692 0.930996 0)
(2.00862 0.931788 0)
(2.013 0.92845 0)
(2.02166 0.920011 0)
(2.02846 0.911791 0)
(2.03099 0.910675 0)
(2.03141 0.912429 0)
(2.03522 0.909286 0)
(2.04361 0.901539 0)
(2.04943 0.894028 0)
(2.05121 0.894095 0)
(2.04992 0.897812 0)
(2.05271 0.896021 0)
(2.06103 0.889237 0)
(2.06738 0.881093 0)
(2.0699 0.880729 0)
(2.07052 0.882405 0)
(2.07541 0.878281 0)
(2.08491 0.869048 0)
(2.09107 0.860337 0)
(2.09328 0.860475 0)
(2.09379 0.861624 0)
(2.09916 0.856833 0)
(2.1073 0.847964 0)
(2.11171 0.841579 0)
(2.1128 0.843945 0)
(2.11291 0.845457 0)
(2.11885 0.84104 0)
(2.12739 0.832352 0)
(2.132 0.826398 0)
(2.13327 0.828589 0)
(2.13437 0.828518 0)
(2.14198 0.822438 0)
(2.15049 0.811988 0)
(2.1544 0.806651 0)
(2.15452 0.809801 0)
(2.15599 0.809234 0)
(2.16447 0.803256 0)
(2.17144 0.793594 0)
(2.17389 0.79164 0)
(2.17336 0.794032 0)
(2.17508 0.790203 0)
(2.18372 0.78218 0)
(2.18955 0.773412 0)
(2.19214 0.773547 0)
(2.19199 0.776851 0)
(2.19606 0.773295 0)
(2.20462 0.760512 0)
(2.2089 0.74823 0)
(2.20839 0.748791 0)
(2.2012 0.754396 0)
(2.19547 0.756851 0)
(2.18582 0.761921 0)
(2.16287 0.777308 0)
(2.13671 0.793816 0)
(2.11022 0.813214 0)
(2.09185 0.819955 0)
(2.0886 0.818516 0)
(2.09029 0.812633 0)
(2.09492 0.803749 0)
(2.09994 0.796407 0)
(2.10481 0.793622 0)
(2.10953 0.790233 0)
(2.11668 0.782067 0)
(2.12261 0.772677 0)
(2.12655 0.769197 0)
(2.12967 0.76983 0)
(2.13445 0.766476 0)
(2.14241 0.756567 0)
(2.1484 0.746284 0)
(2.15125 0.744077 0)
(2.1526 0.744507 0)
(2.15807 0.740905 0)
(2.16859 0.734672 0)
(2.17863 0.725497 0)
(2.18482 0.720229 0)
(2.18673 0.720682 0)
(2.18589 0.721048 0)
(2.18972 0.713214 0)
(2.20152 0.701964 0)
(2.21049 0.693596 0)
(2.21575 0.690164 0)
(2.21734 0.692026 0)
(2.21987 0.692447 0)
(2.2274 0.686193 0)
(2.23925 0.675572 0)
(2.24754 0.668483 0)
(2.25178 0.667897 0)
(2.25275 0.669749 0)
(2.25757 0.668141 0)
(2.26804 0.663363 0)
(2.27831 0.655474 0)
(2.28546 0.649102 0)
(2.28875 0.644627 0)
(2.28937 0.64061 0)
(2.29075 0.635939 0)
(2.29385 0.628523 0)
(2.2981 0.617307 0)
(2.30398 0.607732 0)
(2.31071 0.606305 0)
(2.31672 0.606188 0)
(2.3238 0.605657 0)
(2.33192 0.604167 0)
(2.34047 0.601446 0)