/*--------------------------------*- C++ -*----------------------------------*\
  =========                 |
  \\      /  F ield         | OpenFOAM: The Open Source CFD Toolbox
   \\    /   O peration     | Website:  https://openfoam.org
    \\  /    A nd           | Version:  7
     \\/     M anipulation  |
\*---------------------------------------------------------------------------*/
FoamFile
{
    version     2.0;
    format      ascii;
    class       volScalarField;
    location    "1.8";
    object      p;
}
// * * * * * * * * * * * * * * * * * * * * * * * * * * * * * * * * * * * * * //

dimensions      [1 -1 -2 0 0 0 0];

internalField   nonuniform List<scalar> 
4128
(
2.32132
2.30765
2.2997
2.28814
2.26994
2.25125
2.22768
2.19393
2.15828
2.13858
2.1272
2.11878
2.11297
2.11582
2.11643
2.10729
2.0949
2.07921
2.07203
2.0728
2.0878
2.12115
2.17243
2.2375
2.29505
2.34297
2.38068
2.40468
2.42012
2.44213
2.4643
2.4609
2.44861
2.45938
2.48424
2.49166
2.48408
2.47055
2.45283
2.42445
2.40009
2.38884
2.3794
2.37081
2.36911
2.37531
2.37424
2.35754
2.33631
2.30785
2.27561
2.25595
2.24444
2.23931
2.23797
2.23742
2.22743
2.20923
2.18805
2.174
2.16289
2.14776
2.13936
2.13207
2.12984
2.13401
2.12872
2.11842
2.10306
2.0729
2.02885
2.00178
1.99091
1.98388
1.97946
1.98009
1.99042
2.00023
1.99896
1.99139
1.97609
1.946
1.90677
1.87864
1.86569
1.85989
1.85648
1.85545
1.85426
1.84659
1.83896
1.8311
1.81687
1.79183
1.76397
1.74932
1.7441
1.7426
1.7477
1.75947
1.76605
1.76244
1.75272
1.73376
1.69962
1.66852
1.65527
1.6474
1.64236
1.64245
1.64416
1.63885
1.63103
1.62394
1.61477
1.60556
1.60257
1.60157
1.60366
1.60589
1.60683
1.60053
1.58346
1.56009
1.54171
1.53147
1.52447
1.52014
1.51646
2.35368
2.3418
2.33517
2.32434
2.30669
2.28539
2.25585
2.21832
2.18851
2.17061
2.1572
2.14738
2.13992
2.12526
2.1095
2.09506
2.08105
2.06129
2.04572
2.03592
2.02826
2.02481
2.02323
2.02239
2.03758
2.0559
2.07582
2.10469
2.13793
2.17694
2.23058
2.29497
2.34179
2.37645
2.41167
2.43255
2.43262
2.41976
2.39598
2.38556
2.37969
2.37268
2.36804
2.37782
2.38085
2.37136
2.35798
2.34247
2.32153
2.2951
2.27919
2.26679
2.25547
2.2513
2.24748
2.23916
2.22558
2.2049
2.178
2.15169
2.1368
2.12877
2.12427
2.1258
2.1321
2.13496
2.12622
2.11651
2.10604
2.08653
2.05172
2.01513
1.99174
1.97953
1.97229
1.96851
1.96577
1.9678
1.9697
1.96597
1.96029
1.95023
1.93259
1.91077
1.88719
1.86708
1.85581
1.84775
1.8389
1.82962
1.82093
1.8135
1.80714
1.79754
1.78432
1.76964
1.75643
1.74743
1.74282
1.73963
1.73897
1.73496
1.72879
1.72086
1.70576
1.68339
1.6668
1.6581
1.65219
1.64653
1.63925
1.63069
1.62001
1.60539
1.59262
1.58799
1.58675
1.58848
1.59612
1.60765
1.61009
1.60496
1.58967
1.5594
1.53023
1.5189
1.51464
1.51188
1.50966
2.38011
2.37571
2.37126
2.35397
2.33367
2.30866
2.27484
2.24294
2.22313
2.20629
2.19143
2.18076
2.16711
2.15125
2.13511
2.11682
2.09447
2.07013
2.04886
2.03481
2.02506
2.01725
2.01367
2.00767
1.99426
1.97252
1.94993
1.9434
1.94558
1.95781
1.98138
2.02365
2.08592
2.13915
2.1747
2.1983
2.22147
2.244
2.26137
2.27806
2.30016
2.31993
2.34288
2.36655
2.36891
2.35777
2.34241
2.32539
2.30201
2.28424
2.27749
2.27567
2.2728
2.26479
2.25448
2.24203
2.22743
2.20562
2.17223
2.1413
2.12404
2.11535
2.10973
2.11355
2.12858
2.12895
2.1198
2.11117
2.10045
2.0839
2.06208
2.03598
2.01077
1.99237
1.9792
1.96631
1.95476
1.94732
1.94306
1.93889
1.93713
1.93828
1.93503
1.92745
1.91334
1.89087
1.86327
1.84243
1.82713
1.81391
1.80297
1.79617
1.79206
1.79044
1.78542
1.78031
1.77265
1.7606
1.74326
1.72505
1.71399
1.7089
1.70542
1.70436
1.70225
1.69711
1.69178
1.68179
1.66836
1.65351
1.63917
1.62465
1.60687
1.58857
1.57911
1.57587
1.57412
1.57813
1.59641
1.60746
1.60571
1.59964
1.58808
1.56094
1.5237
1.50769
1.50503
1.50345
1.50319
2.41056
2.40915
2.39617
2.3778
2.35712
2.32484
2.28486
2.26428
2.25074
2.23975
2.23227
2.21931
2.20168
2.18352
2.16311
2.13711
2.10632
2.08039
2.06675
2.05537
2.04429
2.03471
2.02436
2.01168
1.99597
1.97184
1.93991
1.92799
1.92194
1.9173
1.91747
1.91913
1.91415
1.90997
1.9208
1.92665
1.93846
1.96864
2.01417
2.06306
2.11608
2.17126
2.23081
2.29147
2.31595
2.31538
2.30467
2.28243
2.27019
2.2652
2.26256
2.26976
2.27301
2.26489
2.25309
2.24062
2.22561
2.20563
2.17655
2.14375
2.12228
2.11195
2.10645
2.10649
2.10507
2.09538
2.09029
2.08567
2.07973
2.07215
2.05582
2.03774
2.0259
2.01517
1.99965
1.97721
1.95305
1.93257
1.92083
1.91597
1.91364
1.91974
1.93053
1.93024
1.92194
1.909
1.88527
1.84963
1.81815
1.79855
1.78833
1.78092
1.77571
1.77514
1.7831
1.78399
1.77774
1.76787
1.74942
1.71955
1.69658
1.68878
1.68484
1.68284
1.69071
1.70323
1.70398
1.69768
1.68731
1.67043
1.64449
1.61485
1.59287
1.57992
1.57257
1.56822
1.56603
1.56884
1.58433
1.59532
1.59388
1.59
1.58257
1.56412
1.52971
1.50264
1.49609
1.49507
1.49705
2.45451
2.43998
2.42072
2.4001
2.37289
2.3334
2.29594
2.27812
2.26668
2.26052
2.25734
2.2445
2.22914
2.21252
2.19039
2.15676
2.12176
2.10419
2.09005
2.07686
2.06593
2.05398
2.04019
2.02574
2.00858
1.98503
1.95814
1.94463
1.93442
1.92552
1.91868
1.91257
1.90453
1.89388
1.87598
1.84767
1.8225
1.81976
1.82465
1.84225
1.87532
1.92089
1.97417
2.02865
2.07429
2.10795
2.13697
2.15796
2.17179
2.18332
2.19906
2.22117
2.2365
2.23584
2.23025
2.2201
2.20835
2.19412
2.17808
2.1619
2.14656
2.13582
2.12631
2.11263
2.09592
2.07883
2.06544
2.05674
2.04933
2.04293
2.03574
2.031
2.02992
2.02533
2.01372
1.9941
1.96293
1.92672
1.90489
1.89857
1.89547
1.89834
1.91957
1.92823
1.92256
1.91299
1.89652
1.86203
1.81643
1.79088
1.77865
1.76993
1.76357
1.76119
1.76932
1.78036
1.77563
1.76561
1.74973
1.72133
1.69073
1.67606
1.67166
1.66945
1.67237
1.69223
1.70513
1.70325
1.69565
1.68096
1.64953
1.60745
1.58351
1.57547
1.56966
1.56413
1.56089
1.56277
1.57633
1.58379
1.58038
1.57564
1.57053
1.56128
1.54185
1.5115
1.49266
1.48905
1.48827
2.48504
2.46603
2.44756
2.42597
2.39184
2.34424
2.31271
2.29756
2.28663
2.28129
2.27956
2.26968
2.25638
2.24044
2.2154
2.17621
2.14191
2.12433
2.1111
2.09909
2.08655
2.07208
2.05675
2.04027
2.02186
2.00027
1.97866
1.96513
1.95577
1.94896
1.9406
1.9293
1.91647
1.90006
1.87477
1.84266
1.81623
1.80778
1.80395
1.79771
1.792
1.79012
1.79614
1.80922
1.82101
1.83765
1.86486
1.90589
1.958
2.00555
2.04572
2.08574
2.11882
2.13761
2.1425
2.14485
2.15189
2.16033
2.15627
2.15214
2.152
2.154
2.14405
2.124
2.09954
2.07485
2.04911
2.02714
2.01944
2.01739
2.02113
2.02593
2.03139
2.02739
2.0163
1.99935
1.97319
1.93389
1.90015
1.88771
1.88348
1.8815
1.88872
1.91159
1.91751
1.90928
1.89478
1.86986
1.82903
1.79123
1.77339
1.76466
1.75818
1.75359
1.75055
1.7532
1.75496
1.7507
1.74297
1.72369
1.69267
1.67172
1.66435
1.66114
1.66103
1.67395
1.69798
1.7005
1.69313
1.67954
1.65128
1.60533
1.57974
1.57317
1.56804
1.56253
1.55805
1.55642
1.56098
1.56947
1.56813
1.5637
1.55911
1.55385
1.54578
1.52837
1.50111
1.48904
1.48234
2.51745
2.49766
2.47659
2.44792
2.40533
2.35887
2.33245
2.31798
2.30744
2.30332
2.30249
2.2904
2.27488
2.25697
2.23062
2.19513
2.16709
2.1502
2.13698
2.1246
2.11045
2.09554
2.08
2.05882
2.02634
1.99878
1.98777
1.97926
1.97289
1.97054
1.96383
1.95173
1.9387
1.9229
1.89775
1.8634
1.83865
1.82234
1.80803
1.79477
1.78523
1.78094
1.77714
1.76752
1.75597
1.74752
1.74402
1.74732
1.75796
1.78144
1.81982
1.85994
1.89271
1.92348
1.95301
1.98102
2.0104
2.03655
2.06561
2.09721
2.11423
2.12569
2.12595
2.11514
2.09484
2.06947
2.03881
2.00925
1.99601
1.99462
2.00145
2.02507
2.0349
2.02846
2.01498
1.99771
1.97669
1.94847
1.91194
1.88607
1.87691
1.87186
1.86882
1.87291
1.88522
1.88705
1.88031
1.86821
1.84351
1.80781
1.77874
1.7668
1.76113
1.75409
1.74315
1.7329
1.7297
1.72693
1.72253
1.71629
1.70041
1.6786
1.66443
1.65874
1.65666
1.6598
1.66982
1.67489
1.67189
1.66532
1.65
1.61708
1.58304
1.57002
1.56422
1.55892
1.55361
1.54925
1.54737
1.55143
1.55423
1.55118
1.54887
1.54784
1.54509
1.5362
1.51797
1.4929
1.47405
2.54675
2.52552
2.50151
2.46517
2.41269
2.37397
2.35673
2.34377
2.33532
2.33482
2.32758
2.31211
2.29563
2.27306
2.23567
2.2058
2.19237
2.18085
2.16852
2.15361
2.13708
2.11874
2.09711
2.07184
2.04167
2.01411
1.99917
1.98951
1.98186
1.97896
1.97706
1.96582
1.95366
1.94004
1.91971
1.89262
1.86859
1.84811
1.8304
1.81551
1.80259
1.78988
1.776
1.76112
1.7484
1.73701
1.72759
1.72441
1.72304
1.71998
1.71635
1.71286
1.71066
1.71056
1.71973
1.74463
1.78286
1.824
1.86683
1.92102
1.97953
2.02166
2.04702
2.05868
2.05947
2.04976
2.02354
1.99255
1.98169
1.98132
1.98275
1.99311
2.01257
2.01854
2.01148
1.99678
1.97836
1.95675
1.93261
1.90606
1.88251
1.86733
1.85908
1.85372
1.85299
1.85657
1.85399
1.8487
1.84117
1.82311
1.80186
1.78666
1.77376
1.7583
1.74063
1.72211
1.70943
1.70453
1.70081
1.6997
1.69795
1.69019
1.67892
1.66729
1.66
1.65617
1.65454
1.65491
1.65073
1.64397
1.63579
1.62013
1.59356
1.56998
1.55964
1.55395
1.54899
1.54428
1.54065
1.53955
1.54048
1.53866
1.53679
1.53516
1.53415
1.53207
1.52233
1.49984
1.46962
2.57435
2.55277
2.52338
2.47633
2.42469
2.39588
2.38023
2.36936
2.36496
2.36158
2.34702
2.32925
2.30836
2.28096
2.24751
2.22542
2.21348
2.20407
2.19259
2.17981
2.16636
2.14877
2.11929
2.07681
2.04682
2.03025
2.01715
2.00717
1.99965
1.9938
1.98345
1.96998
1.95636
1.94264
1.92712
1.91167
1.89758
1.88371
1.86823
1.84963
1.82694
1.80429
1.78808
1.77643
1.76436
1.74903
1.73108
1.71996
1.71331
1.70726
1.702
1.69724
1.69004
1.67388
1.653
1.64504
1.6458
1.65481
1.67462
1.70463
1.74109
1.78196
1.8226
1.85248
1.87686
1.90471
1.94205
1.96049
1.96007
1.95941
1.95767
1.95696
1.964
1.97094
1.96962
1.96459
1.96246
1.95778
1.94379
1.92489
1.90513
1.88276
1.85894
1.84407
1.83629
1.83214
1.83044
1.83085
1.82802
1.82401
1.81715
1.80642
1.79074
1.76902
1.74317
1.71809
1.69814
1.68775
1.68403
1.68199
1.68394
1.68766
1.68467
1.67954
1.67052
1.65797
1.64681
1.64103
1.6354
1.628
1.61998
1.61257
1.60039
1.58061
1.56178
1.55232
1.54714
1.54315
1.53786
1.53308
1.52941
1.52699
1.52629
1.52517
1.52289
1.51985
1.51554
1.50189
1.46922
2.5965
2.57316
2.53797
2.4857
2.44316
2.42411
2.41116
2.40331
2.39915
2.38586
2.36998
2.35177
2.32098
2.27447
2.2523
2.24159
2.23326
2.22762
2.21819
2.20654
2.19312
2.17468
2.14312
2.09848
2.06747
2.04915
2.03393
2.02322
2.01433
2.00392
1.99217
1.97886
1.9632
1.9475
1.93216
1.9215
1.91331
1.90489
1.89426
1.88038
1.85861
1.82185
1.7942
1.78447
1.77704
1.76809
1.75733
1.7445
1.7306
1.71768
1.70639
1.69536
1.6825
1.66761
1.6502
1.63851
1.63362
1.62878
1.62218
1.61724
1.61313
1.61188
1.61897
1.63591
1.65504
1.68262
1.72566
1.77867
1.82923
1.86844
1.89224
1.89615
1.9038
1.91472
1.91367
1.91249
1.91996
1.93379
1.93111
1.92138
1.91376
1.89934
1.87657
1.84988
1.82928
1.81713
1.81376
1.81393
1.822
1.82256
1.81857
1.81204
1.80131
1.7824
1.75463
1.72209
1.69444
1.67918
1.67343
1.6708
1.66907
1.67484
1.68554
1.68274
1.67557
1.6636
1.64368
1.62807
1.6219
1.61613
1.60997
1.60419
1.59928
1.59195
1.57888
1.55935
1.54381
1.53617
1.53111
1.52558
1.52104
1.51802
1.51712
1.51732
1.5152
1.51131
1.50624
1.49775
1.47046
2.61668
2.58889
2.54376
2.49354
2.46865
2.45446
2.446
2.44193
2.42897
2.41108
2.3908
2.36305
2.32554
2.28869
2.26981
2.25873
2.25063
2.24686
2.23871
2.22483
2.20889
2.1878
2.15474
2.1172
2.09402
2.07763
2.06138
2.04515
2.02931
2.01379
1.99961
1.98531
1.9655
1.94802
1.93956
1.93299
1.92717
1.92181
1.91404
1.90249
1.88438
1.85102
1.81232
1.79408
1.78412
1.77463
1.76689
1.76005
1.75246
1.74351
1.73194
1.71478
1.68902
1.66713
1.65617
1.64742
1.63894
1.63013
1.62122
1.61311
1.60308
1.58385
1.56912
1.56634
1.56642
1.57104
1.5797
1.59436
1.62068
1.65557
1.69052
1.72043
1.74127
1.77054
1.80245
1.82103
1.83869
1.8566
1.87252
1.88795
1.89555
1.8918
1.87674
1.85783
1.8337
1.80992
1.79895
1.79863
1.8063
1.82265
1.81974
1.8121
1.8022
1.78684
1.76344
1.73257
1.70013
1.67774
1.66741
1.66227
1.65936
1.65819
1.66556
1.67669
1.6735
1.66264
1.64193
1.61815
1.60884
1.60563
1.60287
1.59938
1.5957
1.59122
1.58482
1.57164
1.54887
1.53116
1.5234
1.51858
1.5139
1.51045
1.50923
1.51133
1.51093
1.50685
1.5018
1.49519
1.4705
2.63183
2.59546
2.54832
2.51324
2.49596
2.485
2.48059
2.47131
2.45551
2.4382
2.41401
2.3712
2.32177
2.30001
2.2873
2.27839
2.27422
2.26696
2.25341
2.23853
2.22114
2.19575
2.16161
2.14023
2.12699
2.11177
2.09398
2.0741
2.05232
2.02928
2.00543
1.98456
1.96988
1.95874
1.95094
1.94584
1.94248
1.93846
1.93088
1.91985
1.90233
1.86841
1.82574
1.80764
1.79742
1.786
1.77412
1.76595
1.75971
1.75363
1.74616
1.73383
1.71092
1.68539
1.66983
1.65847
1.65003
1.64312
1.63665
1.62873
1.61383
1.58717
1.56386
1.55297
1.54762
1.54466
1.54416
1.54897
1.55421
1.55334
1.55194
1.55374
1.55479
1.56336
1.5902
1.63193
1.67184
1.70914
1.74594
1.783
1.81887
1.84311
1.8479
1.8384
1.82055
1.79975
1.78739
1.7826
1.78215
1.7899
1.80928
1.8113
1.80347
1.78993
1.76722
1.73899
1.71065
1.68633
1.66857
1.6584
1.65329
1.65007
1.64797
1.65052
1.65382
1.64901
1.6362
1.61367
1.59781
1.59237
1.59107
1.59474
1.59454
1.58968
1.58397
1.57475
1.55613
1.52987
1.51517
1.50972
1.5058
1.50241
1.50141
1.5087
1.51337
1.50926
1.50295
1.49519
1.47143
2.6426
2.5918
2.55527
2.53885
2.52663
2.52163
2.51302
2.49637
2.47829
2.45525
2.42072
2.37994
2.34889
2.32562
2.30861
2.29738
2.29019
2.27868
2.26387
2.24701
2.22499
2.19235
2.16538
2.15528
2.14675
2.13578
2.1226
2.10696
2.08601
2.05756
2.02162
1.98668
1.96883
1.96014
1.95299
1.94925
1.95167
1.95228
1.94602
1.93693
1.92304
1.89562
1.85197
1.81843
1.80341
1.79304
1.78414
1.77609
1.76814
1.75931
1.74844
1.73418
1.71665
1.70116
1.69061
1.68102
1.67169
1.66432
1.65734
1.64836
1.635
1.61033
1.57552
1.55409
1.54513
1.53926
1.53673
1.53661
1.53738
1.53735
1.53637
1.53009
1.51216
1.48614
1.47619
1.47915
1.49237
1.51916
1.55735
1.60065
1.64727
1.68827
1.71738
1.73679
1.75106
1.76309
1.76262
1.75272
1.75026
1.75231
1.76176
1.77422
1.77529
1.77226
1.76343
1.74276
1.71838
1.6976
1.68095
1.66504
1.65172
1.64456
1.64034
1.63629
1.63325
1.6271
1.61845
1.60786
1.59266
1.58075
1.5762
1.575
1.57963
1.58591
1.58171
1.57237
1.55643
1.53186
1.5098
1.49967
1.49525
1.49278
1.4913
1.49374
1.49975
1.49855
1.49369
1.48848
1.47124
2.64412
2.59783
2.57657
2.5633
2.55692
2.55245
2.53792
2.52107
2.50265
2.47577
2.4271
2.38636
2.3721
2.35874
2.34553
2.33126
2.31408
2.29529
2.27541
2.25318
2.22439
2.19164
2.17586
2.16669
2.16014
2.15331
2.14428
2.13299
2.11593
2.08412
2.03673
1.99786
1.97859
1.96898
1.96315
1.95981
1.95773
1.9545
1.95052
1.94389
1.93384
1.91517
1.88543
1.85601
1.83151
1.81131
1.79775
1.78826
1.78027
1.77254
1.7628
1.74659
1.72088
1.70019
1.69088
1.68422
1.67971
1.67696
1.67054
1.66177
1.64954
1.62929
1.59739
1.57276
1.56019
1.54987
1.54256
1.53866
1.53554
1.53296
1.53056
1.52453
1.51451
1.49678
1.47293
1.45318
1.44457
1.44282
1.44552
1.45444
1.47088
1.49507
1.5247
1.55829
1.58887
1.61718
1.64864
1.67539
1.69042
1.69975
1.71586
1.73491
1.73731
1.73491
1.73227
1.72681
1.71602
1.70029
1.68311
1.67021
1.65834
1.64762
1.63737
1.62998
1.622
1.61299
1.60461
1.59664
1.58811
1.57762
1.56884
1.56477
1.56267
1.56236
1.56012
1.55417
1.54748
1.53267
1.50874
1.49262
1.48575
1.48231
1.48101
1.48102
1.48251
1.48522
1.48388
1.47962
1.46902
2.64416
2.61676
2.60167
2.59102
2.58761
2.57582
2.5584
2.5401
2.51566
2.48149
2.44187
2.41338
2.39776
2.387
2.37626
2.36152
2.34372
2.32266
2.29623
2.25821
2.2134
2.19347
2.18387
2.17628
2.17233
2.17072
2.1643
2.15386
2.14022
2.11473
2.06641
2.01892
1.99218
1.97707
1.96792
1.96318
1.96435
1.95871
1.95047
1.94203
1.93158
1.91864
1.90031
1.8766
1.85409
1.83543
1.81914
1.8045
1.79135
1.7796
1.76844
1.75535
1.73632
1.71656
1.70479
1.69511
1.68481
1.6764
1.66959
1.66358
1.65634
1.64296
1.6187
1.59327
1.57559
1.56276
1.55541
1.55024
1.54494
1.53829
1.53121
1.52366
1.5162
1.50584
1.48601
1.45954
1.44306
1.43607
1.42973
1.42589
1.42359
1.42418
1.42844
1.4343
1.44299
1.45599
1.47563
1.49975
1.52702
1.55966
1.5928
1.63728
1.66276
1.67598
1.69148
1.69554
1.69069
1.6775
1.67419
1.67041
1.66231
1.652
1.64091
1.62929
1.61642
1.60739
1.60103
1.59482
1.5887
1.58132
1.57079
1.56111
1.55749
1.55369
1.54776
1.54052
1.53178
1.52015
1.50534
1.49039
1.48194
1.47721
1.4731
1.47061
1.46817
1.46601
1.46558
1.46254
1.45364
2.65847
2.6419
2.62887
2.62072
2.61235
2.59596
2.57855
2.55953
2.52931
2.47816
2.4492
2.43778
2.42699
2.41898
2.40805
2.39347
2.37663
2.35346
2.31576
2.26039
2.21438
2.19733
2.18738
2.17962
2.17741
2.18123
2.17724
2.16604
2.15356
2.13514
2.09843
2.05304
2.02492
2.00714
1.99056
1.97569
1.9661
1.95913
1.95353
1.946
1.93835
1.93008
1.91678
1.89735
1.8778
1.85886
1.83956
1.82112
1.80566
1.79299
1.77859
1.75984
1.74062
1.72739
1.71715
1.7069
1.6957
1.68375
1.6724
1.66381
1.65647
1.64777
1.63539
1.61974
1.60348
1.5855
1.56729
1.55703
1.55071
1.54526
1.53907
1.53065
1.52072
1.51108
1.49849
1.48027
1.46008
1.44117
1.42702
1.41903
1.41507
1.41211
1.40837
1.40469
1.40416
1.40367
1.40113
1.39656
1.39577
1.40161
1.41663
1.44615
1.48748
1.52275
1.56089
1.61366
1.63144
1.63373
1.64306
1.64606
1.64205
1.63461
1.6263
1.61612
1.61052
1.60485
1.60145
1.59971
1.59396
1.58834
1.5798
1.56678
1.55643
1.54923
1.54255
1.53531
1.52587
1.5145
1.5025
1.492
1.48335
1.47671
1.4699
1.46246
1.45905
1.45617
1.45413
1.4522
1.44314
2.68547
2.66989
2.659
2.65181
2.6366
2.61807
2.59799
2.57105
2.53098
2.48788
2.46775
2.45673
2.44833
2.44359
2.4366
2.42437
2.40846
2.3845
2.3377
2.26963
2.22799
2.21064
2.19813
2.18829
2.18418
2.18883
2.18431
2.17258
2.15979
2.14277
2.11438
2.07852
2.05105
2.03209
2.01448
1.99618
1.97951
1.96475
1.94966
1.93857
1.9298
1.92179
1.91522
1.90595
1.89582
1.88387
1.86743
1.84256
1.81332
1.79287
1.78238
1.77231
1.76075
1.74871
1.7362
1.72238
1.70655
1.68889
1.67577
1.66776
1.66027
1.65188
1.6414
1.62888
1.61828
1.60867
1.5967
1.57838
1.55891
1.54811
1.54227
1.53733
1.53079
1.52173
1.5116
1.49958
1.48402
1.46298
1.43923
1.42135
1.41333
1.4077
1.40165
1.3959
1.39204
1.3892
1.38797
1.38746
1.37976
1.36115
1.347
1.34576
1.35291
1.37019
1.39356
1.42618
1.46728
1.51258
1.55183
1.56831
1.56837
1.567
1.57107
1.57724
1.57985
1.57569
1.57485
1.58152
1.58734
1.58526
1.57986
1.57089
1.55933
1.54643
1.53875
1.53264
1.52366
1.51338
1.50529
1.49679
1.48713
1.47873
1.47017
1.45939
1.45293
1.45027
1.44836
1.44658
1.43796
2.71825
2.7035
2.69317
2.67944
2.66041
2.64102
2.61883
2.58226
2.5264
2.49518
2.4837
2.4745
2.46937
2.46871
2.46223
2.44888
2.43228
2.40684
2.3577
2.29156
2.25147
2.23308
2.21838
2.20593
2.1961
2.18744
2.1792
2.17062
2.15904
2.14536
2.12967
2.11243
2.09283
2.0677
2.03728
2.00983
1.99019
1.97183
1.95242
1.93944
1.93029
1.92191
1.91503
1.90992
1.90505
1.89875
1.88953
1.87139
1.83632
1.79605
1.77607
1.76878
1.76415
1.75917
1.75288
1.74453
1.73235
1.71241
1.684
1.66311
1.65312
1.64557
1.6387
1.63128
1.62448
1.61816
1.61144
1.60069
1.5809
1.55804
1.54444
1.53602
1.52738
1.51807
1.51256
1.50889
1.50341
1.49262
1.46979
1.43932
1.42151
1.41229
1.4046
1.39663
1.38945
1.38488
1.38154
1.37893
1.37549
1.36682
1.3488
1.33085
1.32135
1.31916
1.32037
1.32571
1.33732
1.35604
1.38111
1.4153
1.43942
1.44662
1.45457
1.46877
1.48635
1.50057
1.51206
1.52536
1.53684
1.54325
1.54575
1.54633
1.54213
1.53844
1.53514
1.53127
1.52428
1.51657
1.51177
1.50295
1.49191
1.48237
1.47296
1.45996
1.44918
1.44614
1.44448
1.44325
1.4355
2.75297
2.74071
2.7258
2.70716
2.68626
2.66174
2.63152
2.58653
2.53714
2.51482
2.50262
2.49263
2.48839
2.49085
2.47926
2.46281
2.44547
2.41861
2.37292
2.3195
2.28595
2.26746
2.25047
2.23098
2.21045
2.1937
2.18081
2.1687
2.15465
2.14229
2.13391
2.126
2.1151
2.10062
2.07989
2.04608
2.00448
1.97656
1.96047
1.94859
1.93862
1.9294
1.92144
1.91404
1.90786
1.90162
1.89389
1.88255
1.85753
1.81754
1.78752
1.77328
1.76369
1.75621
1.75081
1.74745
1.74237
1.73049
1.70214
1.66915
1.65589
1.64837
1.64193
1.63398
1.62794
1.62497
1.62145
1.61385
1.59756
1.57038
1.54659
1.53477
1.52718
1.5218
1.51726
1.51255
1.50835
1.50303
1.4912
1.46752
1.43905
1.42075
1.40995
1.40163
1.39358
1.38685
1.38335
1.38072
1.37798
1.37218
1.35898
1.33655
1.31904
1.31097
1.30758
1.30578
1.30532
1.30715
1.3115
1.31719
1.32015
1.32471
1.32865
1.33313
1.34664
1.37757
1.40692
1.42942
1.45281
1.472
1.48681
1.49717
1.50064
1.49895
1.49625
1.49645
1.5028
1.50801
1.50403
1.49332
1.48384
1.4776
1.47076
1.45931
1.44873
1.44581
1.44383
1.44154
1.43508
2.78716
2.77239
2.75442
2.73504
2.71221
2.68032
2.6353
2.58484
2.55295
2.53837
2.52657
2.51817
2.51615
2.50624
2.48936
2.47284
2.45449
2.42367
2.37624
2.33805
2.32015
2.3055
2.28718
2.26285
2.23471
2.20812
2.18554
2.1677
2.15572
2.14557
2.13684
2.13112
2.12487
2.11763
2.10791
2.08842
2.04388
1.98599
1.95993
1.95022
1.94277
1.93817
1.93515
1.92647
1.91713
1.90787
1.89807
1.88532
1.8637
1.83146
1.80466
1.78899
1.77742
1.76828
1.76077
1.75339
1.74619
1.73799
1.72164
1.68882
1.66554
1.65733
1.65006
1.64097
1.63134
1.62422
1.61953
1.61599
1.61004
1.59058
1.55778
1.5393
1.53169
1.52597
1.52043
1.51411
1.50769
1.50198
1.4961
1.48542
1.46169
1.43795
1.4267
1.41927
1.41095
1.402
1.39506
1.38966
1.38437
1.37835
1.36968
1.35436
1.33172
1.31399
1.30532
1.30007
1.29732
1.29551
1.29535
1.29502
1.29411
1.29193
1.28566
1.27014
1.25615
1.25731
1.26945
1.29166
1.32049
1.35257
1.38993
1.41025
1.42012
1.43124
1.44088
1.44993
1.46488
1.47656
1.47677
1.47242
1.46344
1.45356
1.44542
1.43855
1.43347
1.43146
1.431
1.43538
1.43593
2.82045
2.80463
2.78647
2.7657
2.73961
2.69923
2.63553
2.58665
2.57028
2.55745
2.54774
2.54563
2.53907
2.5219
2.50463
2.48514
2.4566
2.41331
2.36949
2.35397
2.34297
2.32978
2.31341
2.29229
2.26317
2.22612
2.18962
2.17057
2.16172
2.15291
2.14463
2.14004
2.13659
2.12952
2.12078
2.10767
2.08034
2.02595
1.97654
1.9583
1.94761
1.93871
1.93234
1.93327
1.92912
1.91992
1.9109
1.89905
1.87562
1.83861
1.80939
1.79592
1.78733
1.78012
1.77343
1.76644
1.75808
1.74721
1.73055
1.70064
1.67544
1.66656
1.66046
1.65348
1.64368
1.63383
1.62532
1.61781
1.61002
1.59634
1.56854
1.54354
1.53304
1.52701
1.52316
1.51991
1.51551
1.51196
1.50798
1.50041
1.48193
1.44921
1.42522
1.4137
1.40547
1.397
1.39177
1.38807
1.38412
1.37961
1.37455
1.36688
1.35106
1.3305
1.31714
1.30829
1.29906
1.29027
1.28641
1.28421
1.28134
1.27836
1.27536
1.27079
1.2584
1.23518
1.22409
1.22274
1.22623
1.23363
1.24943
1.26728
1.28467
1.30975
1.34176
1.3641
1.38496
1.41746
1.44146
1.44315
1.43426
1.42733
1.42224
1.41488
1.40704
1.40389
1.40248
1.40475
1.41208
2.85073
2.83537
2.8169
2.79337
2.75926
2.70673
2.64132
2.60844
2.59622
2.58528
2.57794
2.57437
2.5604
2.54274
2.52439
2.501
2.46228
2.40879
2.38279
2.37235
2.36108
2.34905
2.33651
2.32031
2.2935
2.24548
2.19585
2.17522
2.1658
2.15767
2.1518
2.15035
2.1459
2.13604
2.12605
2.11605
2.10102
2.06429
2.00767
1.97816
1.96466
1.95353
1.94528
1.93722
1.92743
1.91651
1.90583
1.89623
1.88506
1.86396
1.83415
1.81123
1.79691
1.78484
1.77417
1.7667
1.76037
1.75409
1.74233
1.71633
1.6877
1.67499
1.66857
1.66113
1.65161
1.64247
1.6338
1.62445
1.61359
1.59976
1.57815
1.55374
1.54024
1.53189
1.52618
1.52327
1.52423
1.52456
1.51873
1.50974
1.49366
1.46439
1.43181
1.41477
1.40591
1.39844
1.39288
1.38922
1.38657
1.38509
1.38258
1.37745
1.3666
1.34661
1.3238
1.30842
1.29736
1.28776
1.28045
1.27754
1.27557
1.27264
1.26948
1.26714
1.2619
1.24711
1.22535
1.21855
1.21364
1.20715
1.20262
1.19997
1.19953
1.2029
1.21372
1.23065
1.2497
1.27626
1.31469
1.35092
1.37258
1.38093
1.38304
1.38346
1.3827
1.38193
1.37929
1.37944
1.38468
2.87739
2.86306
2.84487
2.82039
2.77706
2.70549
2.64949
2.62859
2.617
2.60908
2.60476
2.5978
2.58396
2.56746
2.54682
2.51418
2.45866
2.40904
2.39279
2.38252
2.37335
2.36485
2.35419
2.34057
2.31907
2.2804
2.22594
2.19048
2.17599
2.16536
2.15579
2.15181
2.15593
2.14809
2.13653
2.12607
2.11265
2.08616
2.0401
1.99885
1.98152
1.96853
1.95477
1.9428
1.93302
1.92226
1.91029
1.8993
1.88496
1.86546
1.84613
1.83003
1.81666
1.80403
1.79066
1.77627
1.76214
1.74848
1.73375
1.72014
1.70541
1.69554
1.68787
1.67855
1.6673
1.65529
1.64376
1.63187
1.61727
1.59798
1.57505
1.55968
1.55327
1.54711
1.53941
1.53039
1.52115
1.51445
1.50905
1.5035
1.49666
1.48222
1.45404
1.42409
1.41136
1.40594
1.39944
1.39334
1.38988
1.38671
1.38355
1.37991
1.37425
1.36161
1.33956
1.31713
1.30216
1.29147
1.2832
1.278
1.27443
1.27126
1.26801
1.26516
1.26158
1.25421
1.24067
1.22533
1.21242
1.20329
1.19464
1.18802
1.17779
1.17222
1.17161
1.17221
1.17507
1.18249
1.19697
1.22088
1.24856
1.26505
1.27672
1.29059
1.31546
1.33979
1.34225
1.34691
1.35973
2.89713
2.88087
2.86193
2.8354
2.78787
2.72264
2.67892
2.65514
2.63918
2.628
2.61977
2.61183
2.59874
2.58321
2.56339
2.52817
2.46873
2.42236
2.40559
2.39386
2.38351
2.37266
2.3603
2.34725
2.32984
2.30105
2.25798
2.2163
2.19302
2.18001
2.16955
2.1612
2.15225
2.14213
2.1314
2.11986
2.10784
2.09402
2.07048
2.04134
2.01411
1.98858
1.96505
1.94697
1.93452
1.92575
1.91914
1.91019
1.89653
1.87776
1.85963
1.84387
1.82865
1.81384
1.8
1.78656
1.7732
1.75538
1.73327
1.71793
1.71135
1.70598
1.6995
1.6913
1.68137
1.67014
1.6577
1.6439
1.6277
1.60738
1.5841
1.56467
1.55197
1.54316
1.53716
1.52954
1.52022
1.51289
1.50763
1.50324
1.49884
1.49267
1.47849
1.44868
1.4185
1.40913
1.40672
1.40529
1.40159
1.39606
1.389
1.38144
1.37417
1.36605
1.35325
1.33573
1.31866
1.30717
1.2991
1.2926
1.28564
1.27642
1.26864
1.26482
1.261
1.25754
1.25342
1.24584
1.23095
1.21091
1.19466
1.18191
1.17112
1.16247
1.15978
1.15854
1.15753
1.15787
1.16155
1.16691
1.17052
1.17493
1.18085
1.18223
1.1882
1.20656
1.23228
1.25314
1.29046
2.90702
2.88918
2.86975
2.83875
2.78483
2.73673
2.7156
2.69771
2.67983
2.66383
2.64661
2.62742
2.6072
2.58757
2.56687
2.53698
2.48899
2.44494
2.42497
2.41158
2.39716
2.38145
2.36561
2.35007
2.33299
2.3097
2.27998
2.24778
2.22112
2.20355
2.18872
2.17334
2.15875
2.14591
2.134
2.1225
2.10902
2.09419
2.07967
2.063
2.04478
2.02423
2.00003
1.97382
1.94949
1.92667
1.9068
1.89599
1.89019
1.88629
1.87778
1.86691
1.85369
1.8373
1.81589
1.7916
1.7679
1.74715
1.7322
1.72531
1.7194
1.71272
1.70489
1.69603
1.68644
1.67681
1.66591
1.65136
1.63236
1.61237
1.59514
1.5792
1.56247
1.54834
1.54086
1.53692
1.5322
1.5251
1.51843
1.51285
1.50777
1.50178
1.49173
1.47413
1.44979
1.42541
1.40808
1.39883
1.39463
1.39031
1.3851
1.37897
1.37205
1.36654
1.36233
1.35437
1.33668
1.31448
1.29818
1.28794
1.28247
1.2765
1.27162
1.26859
1.26612
1.26452
1.26035
1.25468
1.24655
1.228
1.19957
1.17957
1.16845
1.16058
1.1561
1.15391
1.15257
1.15191
1.15318
1.1549
1.15312
1.15001
1.14587
1.13645
1.12245
1.11954
1.12566
1.13812
1.17222
2.91861
2.89699
2.87052
2.83075
2.77862
2.75179
2.73833
2.72586
2.71447
2.70076
2.68262
2.65953
2.63165
2.60031
2.56644
2.52966
2.49503
2.46581
2.44748
2.43192
2.41492
2.39608
2.37558
2.35359
2.3319
2.31217
2.29324
2.27332
2.25536
2.23742
2.21614
2.19275
2.17294
2.15699
2.14108
2.12275
2.1028
2.08624
2.07556
2.06717
2.05745
2.04466
2.02622
1.99879
1.96494
1.93395
1.91109
1.89635
1.88651
1.87773
1.87023
1.86652
1.86071
1.85179
1.83736
1.81182
1.77209
1.74655
1.73941
1.73356
1.7282
1.72183
1.71482
1.70796
1.70051
1.69091
1.67768
1.66084
1.64025
1.61493
1.59315
1.58162
1.57423
1.56709
1.55757
1.54285
1.52712
1.51708
1.51004
1.50355
1.4977
1.49276
1.48865
1.48355
1.47198
1.4498
1.41812
1.4003
1.39653
1.39386
1.3903
1.38604
1.38166
1.37729
1.37166
1.36349
1.35015
1.33076
1.30746
1.28951
1.28264
1.28187
1.2824
1.28279
1.27981
1.27502
1.26972
1.26345
1.25503
1.24041
1.21555
1.18631
1.17042
1.16296
1.15776
1.15449
1.15257
1.15148
1.15148
1.15114
1.14836
1.14463
1.13928
1.13022
1.11251
1.09498
1.09155
1.09109
1.09791
2.93401
2.91188
2.87867
2.82699
2.78438
2.76937
2.75717
2.74614
2.73527
2.72191
2.70638
2.68831
2.66447
2.63045
2.58364
2.52977
2.48768
2.47091
2.45947
2.44713
2.43304
2.41657
2.39623
2.37006
2.33907
2.30915
2.29099
2.28183
2.27205
2.25819
2.23822
2.21185
2.18403
2.16184
2.14431
2.1242
2.10162
2.08992
2.08229
2.07594
2.06954
2.0606
2.04867
2.02892
1.99471
1.94881
1.91472
1.89949
1.89031
1.88289
1.87567
1.86804
1.86015
1.85265
1.84461
1.8287
1.79288
1.75405
1.73919
1.73224
1.72572
1.71993
1.71494
1.71112
1.70749
1.70217
1.69322
1.67539
1.64704
1.62031
1.60427
1.59375
1.5842
1.57431
1.56268
1.54668
1.52873
1.51657
1.50972
1.50431
1.49922
1.49508
1.49136
1.48706
1.48126
1.46859
1.43898
1.40552
1.39182
1.38665
1.38199
1.37726
1.37273
1.36802
1.36262
1.35695
1.35209
1.34395
1.32644
1.30722
1.29684
1.28704
1.27814
1.27424
1.27035
1.26606
1.26159
1.25632
1.25065
1.24506
1.23361
1.2087
1.18597
1.17672
1.17113
1.1662
1.16213
1.15835
1.15442
1.15133
1.14853
1.14484
1.13924
1.12935
1.11116
1.09317
1.08705
1.08512
1.08277
2.95275
2.91267
2.86666
2.82208
2.80114
2.78756
2.7753
2.76438
2.75207
2.73666
2.71935
2.70162
2.68174
2.65269
2.60467
2.54349
2.50206
2.48063
2.46367
2.44807
2.43403
2.42233
2.40904
2.38656
2.35263
2.32351
2.30919
2.29805
2.2861
2.27234
2.25498
2.23049
2.19917
2.16852
2.13999
2.11866
2.10785
2.09952
2.09181
2.0847
2.07633
2.06682
2.05685
2.04373
2.01763
1.97268
1.93205
1.91147
1.90088
1.89295
1.88525
1.87696
1.86796
1.8582
1.84768
1.83422
1.8077
1.76713
1.74537
1.73819
1.73314
1.72799
1.72101
1.71387
1.7074
1.70124
1.69511
1.68587
1.66158
1.62655
1.60974
1.60178
1.59389
1.58443
1.57252
1.557
1.53757
1.52056
1.51088
1.50525
1.50184
1.49921
1.4952
1.48989
1.48394
1.47588
1.45574
1.41615
1.39143
1.38409
1.37962
1.37536
1.37111
1.36693
1.36297
1.35957
1.35609
1.35087
1.33941
1.31718
1.29795
1.28568
1.27707
1.27267
1.26896
1.26521
1.26118
1.25661
1.25218
1.24825
1.24305
1.22774
1.19667
1.17487
1.16682
1.16154
1.15739
1.15401
1.15125
1.14832
1.14527
1.14196
1.13812
1.13217
1.1191
1.09927
1.08922
1.08526
1.07882
2.97434
2.91307
2.85282
2.82987
2.81767
2.80577
2.79534
2.78667
2.77661
2.76152
2.74228
2.71984
2.69326
2.65871
2.61225
2.56311
2.53031
2.508
2.48659
2.46435
2.44192
2.42047
2.40211
2.3856
2.36553
2.34588
2.33294
2.32168
2.30978
2.29579
2.27761
2.25198
2.21652
2.17514
2.13913
2.12137
2.11353
2.10653
2.10159
2.09755
2.08979
2.08048
2.07018
2.05684
2.03357
1.98894
1.94215
1.92168
1.91137
1.90223
1.89392
1.88585
1.87696
1.86646
1.85338
1.83639
1.8126
1.77852
1.75248
1.74314
1.73813
1.73466
1.72962
1.72307
1.71651
1.70943
1.70097
1.68819
1.66654
1.63681
1.61507
1.60397
1.59564
1.58731
1.57646
1.56039
1.54265
1.52986
1.51967
1.51013
1.50389
1.49966
1.4968
1.49398
1.48966
1.48321
1.46848
1.43787
1.40238
1.38706
1.38159
1.37756
1.37357
1.37038
1.36771
1.36445
1.36142
1.3584
1.35154
1.33152
1.3026
1.28935
1.28468
1.28125
1.27793
1.27441