/*--------------------------------*- C++ -*----------------------------------*\
  =========                 |
  \\      /  F ield         | OpenFOAM: The Open Source CFD Toolbox
   \\    /   O peration     | Website:  https://openfoam.org
    \\  /    A nd           | Version:  7
     \\/     M anipulation  |
\*---------------------------------------------------------------------------*/
FoamFile
{
    version     2.0;
    format      ascii;
    class       volScalarField;
    location    "1.1";
    object      T;
}
// * * * * * * * * * * * * * * * * * * * * * * * * * * * * * * * * * * * * * //

dimensions      [0 0 0 1 0 0 0];

internalField   nonuniform List<scalar> 
16192
(
1.61506
1.61173
1.60713
1.60101
1.59579
1.5932
1.59274
1.59277
1.59332
1.59488
1.59753
1.60138
1.60637
1.61168
1.61595
1.6193
1.62315
1.62799
1.63281
1.63972
1.65024
1.65995
1.66923
1.68027
1.6944
1.71267
1.73563
1.76507
1.80405
1.85208
1.9129
1.99547
2.10242
2.19402
2.21461
2.20569
2.18373
2.12971
2.04649
2.00091
1.99437
1.9925
1.99161
1.99026
1.98707
1.98113
1.97283
1.96308
1.95168
1.94334
1.94238
1.94703
1.94953
1.9439
1.92648
1.91003
1.90415
1.90134
1.89932
1.89979
1.90355
1.91074
1.92148
1.93514
1.94709
1.95219
1.95136
1.94145
1.92774
1.91548
1.90746
1.90682
1.91339
1.93024
1.94768
1.94955
1.94496
1.93994
1.93327
1.92061
1.90772
1.90386
1.90257
1.90588
1.9122
1.91225
1.90944
1.90604
1.90105
1.89455
1.89058
1.8876
1.88416
1.88028
1.87647
1.87396
1.87253
1.8709
1.86912
1.868
1.86787
1.86833
1.86874
1.86831
1.8652
1.86099
1.85726
1.85414
1.8498
1.84303
1.83457
1.82463
1.81346
1.80008
1.78768
1.77569
1.75884
1.7366
1.71398
1.69233
1.67751
1.67006
1.66591
1.66336
1.66201
1.66135
1.66334
1.66764
1.67096
1.6741
1.67911
1.68884
1.708
1.73871
1.75927
1.7594
1.75799
1.75603
1.75252
1.74577
1.73507
1.7233
1.71047
1.69514
1.67767
1.66219
1.65382
1.64992
1.64491
1.63887
1.63256
1.62568
1.61789
1.60837
1.59668
1.58416
1.57411
1.56609
1.55669
1.54802
1.54086
1.5331
1.5246
1.51372
1.49842
1.48046
1.46971
1.46819
1.46891
1.46973
1.47147
1.47451
1.47664
1.47676
1.47603
1.47648
1.47953
1.48417
1.48884
1.49314
1.49673
1.49949
1.50123
1.50243
1.50281
1.50134
1.4964
1.49353
1.49326
1.49387
1.49569
1.49794
1.50015
1.50188
1.50337
1.50468
1.50612
1.50809
1.51039
1.51271
1.51585
1.51922
1.52177
1.52343
1.52525
1.52748
1.52882
1.53033
1.53264
1.53597
1.54087
1.54856
1.55967
1.57059
1.57481
1.57514
1.57526
1.57548
1.57626
1.57891
1.58451
1.59436
1.60443
1.61412
1.62721
1.64583
1.66559
1.68376
1.70231
1.72281
1.7466
1.77769
1.81332
1.82904
1.82869
1.82421
1.81933
1.81733
1.81735
1.8189
1.82444
1.83647
1.85618
1.8774
1.88686
1.88764
1.88713
1.88562
1.88342
1.88098
1.87727
1.87385
1.87296
1.61196
1.6086
1.60381
1.59771
1.59276
1.59125
1.59127
1.59144
1.59214
1.59374
1.59617
1.59961
1.60394
1.60864
1.61309
1.61782
1.62312
1.62825
1.63309
1.63937
1.64832
1.6574
1.66738
1.68054
1.69691
1.71514
1.73664
1.76204
1.79635
1.84275
1.90033
1.97907
2.08567
2.18481
2.2135
2.20565
2.18301
2.13013
2.0503
2.00132
1.99556
1.9959
1.99815
2.00147
2.00114
1.99546
1.98397
1.96997
1.9578
1.94789
1.94319
1.94314
1.94397
1.94177
1.93197
1.92401
1.92287
1.92147
1.91911
1.91638
1.91556
1.91721
1.92346
1.93458
1.94405
1.9487
1.94861
1.94449
1.93814
1.93253
1.92696
1.922
1.92195
1.92875
1.93929
1.94192
1.93855
1.93375
1.92778
1.917
1.90665
1.90332
1.90202
1.90417
1.91081
1.91259
1.91071
1.90813
1.90493
1.89951
1.89265
1.88832
1.88493
1.88126
1.8774
1.87436
1.87395
1.87428
1.87424
1.87293
1.87075
1.86953
1.86894
1.86792
1.86525
1.86152
1.85791
1.85459
1.84991
1.84305
1.83494
1.82402
1.81024
1.79518
1.78192
1.77058
1.75506
1.73288
1.70925
1.68693
1.67098
1.66312
1.65976
1.65824
1.65796
1.65808
1.65952
1.66347
1.667
1.67019
1.67525
1.68515
1.70474
1.73658
1.75831
1.75854
1.75732
1.75559
1.75213
1.74543
1.73457
1.72235
1.70942
1.69408
1.67664
1.6603
1.65003
1.64579
1.64235
1.63739
1.63188
1.62532
1.61746
1.60796
1.59641
1.58395
1.57361
1.5653
1.55596
1.5473
1.54011
1.53226
1.5238
1.51312
1.49821
1.48062
1.46951
1.46785
1.46845
1.46896
1.47044
1.47336
1.47554
1.47575
1.47526
1.47579
1.47888
1.48348
1.48787
1.49199
1.49541
1.49796
1.4997
1.50079
1.50107
1.50001
1.49618
1.4934
1.49311
1.49331
1.49446
1.49641
1.49845
1.50017
1.50162
1.503
1.50454
1.50657
1.50904
1.51162
1.51456
1.51774
1.52007
1.52155
1.52302
1.52529
1.52681
1.52823
1.53034
1.53349
1.53831
1.54607
1.55763
1.56878
1.57277
1.57313
1.57307
1.57313
1.57385
1.57605
1.58131
1.59077
1.60178
1.61187
1.62493
1.64277
1.66246
1.68128
1.69985
1.71969
1.74263
1.7723
1.80717
1.82647
1.82764
1.82532
1.82046
1.81724
1.81691
1.81797
1.82277
1.83404
1.85274
1.87178
1.88121
1.88392
1.88423
1.88415
1.88299
1.8802
1.8761
1.87212
1.87064
1.60408
1.60057
1.59556
1.58965
1.58519
1.58403
1.58394
1.58452
1.58596
1.58785
1.59035
1.59416
1.59863
1.60304
1.60712
1.61206
1.6188
1.62495
1.62946
1.63612
1.64554
1.65465
1.66467
1.67668
1.69206
1.71303
1.7324
1.75069
1.77929
1.82014
1.86966
1.93714
2.03648
2.15122
2.20445
2.20199
2.18081
2.13422
2.05891
2.00217
1.99242
1.99311
1.99449
1.99443
1.99189
1.98428
1.97286
1.96441
1.95943
1.95499
1.95173
1.94973
1.94642
1.9403
1.93624
1.93841
1.94393
1.94963
1.95515
1.95908
1.95992
1.95952
1.95966
1.96075
1.96218
1.9646
1.96662
1.96608
1.96275
1.95829
1.95477
1.95318
1.95171
1.94558
1.93571
1.93211
1.93204
1.93026
1.92506
1.91706
1.9082
1.90434
1.90301
1.90382
1.90869
1.91181
1.91108
1.90961
1.90783
1.90436
1.89815
1.89385
1.89172
1.88933
1.88649
1.8837
1.88261
1.88332
1.88385
1.8835
1.88219
1.88039
1.87809
1.87526
1.87259
1.86947
1.86379
1.85716
1.84999
1.84275
1.83442
1.82474
1.81531
1.8035
1.79024
1.77661
1.759
1.73421
1.70571
1.67722
1.65593
1.64546
1.64137
1.63982
1.63959
1.6403
1.64203
1.64557
1.65001
1.65411
1.65973
1.67034
1.69063
1.72307
1.75053
1.75383
1.75336
1.75238
1.74928
1.74253
1.73127
1.71832
1.70553
1.69067
1.67326
1.65557
1.64279
1.63682
1.63324
1.62905
1.62429
1.61881
1.61211
1.6038
1.59352
1.58183
1.57126
1.56259
1.55316
1.5444
1.53713
1.52932
1.52108
1.51097
1.49691
1.47992
1.4681
1.46641
1.467
1.46715
1.46824
1.4708
1.47254
1.47252
1.47191
1.47262
1.47574
1.48026
1.48467
1.48859
1.4918
1.494
1.49548
1.49636
1.49645
1.49529
1.49156
1.48907
1.4889
1.48915
1.49007
1.49171
1.49335
1.49469
1.49582
1.49696
1.49842
1.50043
1.50295
1.50573
1.50897
1.51198
1.5141
1.51544
1.5166
1.51849
1.51991
1.52136
1.52355
1.52676
1.53167
1.53941
1.55091
1.56168
1.56516
1.56537
1.56514
1.56504
1.56564
1.5679
1.57243
1.58078
1.59242
1.60335
1.61648
1.63387
1.65278
1.6711
1.68928
1.70874
1.73146
1.75992
1.7929
1.81683
1.8214
1.82082
1.81877
1.81574
1.81475
1.81531
1.81884
1.82834
1.84437
1.86055
1.87059
1.87493
1.87555
1.8754
1.87475
1.87321
1.8702
1.86647
1.86359
1.58847
1.58636
1.58278
1.57818
1.57431
1.57257
1.57226
1.57264
1.57385
1.57527
1.57757
1.58131
1.58561
1.58999
1.59417
1.60055
1.60988
1.61638
1.62189
1.63025
1.63966
1.64834
1.65733
1.66708
1.68342
1.70476
1.72176
1.73809
1.75926
1.78977
1.82945
1.88326
1.96757
2.08806
2.18054
2.19186
2.17506
2.13915
2.07673
2.01112
1.9897
1.98944
1.99081
1.99089
1.99
1.98451
1.97274
1.96586
1.96594
1.9672
1.96683
1.96257
1.95487
1.94663
1.94326
1.94624
1.95438
1.96559
1.97794
1.99006
1.99672
1.99636
1.99253
1.98506
1.98138
1.98318
1.98738
1.98961
1.98949
1.98819
1.98443
1.98182
1.97961
1.95954
1.93411
1.92235
1.91881
1.91781
1.91581
1.9131
1.90931
1.90571
1.90475
1.90499
1.90706
1.90974
1.91064
1.90994
1.90893
1.90711
1.90319
1.89825
1.89593
1.89529
1.89487
1.89426
1.89347
1.89402
1.89542
1.8959
1.89589
1.89512
1.89084
1.8856
1.88148
1.87607
1.86973
1.86291
1.85595
1.84821
1.83748
1.8254
1.81417
1.80388
1.7925
1.77848
1.75973
1.73338
1.69739
1.65835
1.62817
1.61555
1.61026
1.60861
1.60813
1.60843
1.61023
1.61384
1.61952
1.62521
1.63229
1.64433
1.66635
1.70013
1.73057
1.7403
1.7409
1.7406
1.73833
1.73255
1.72207
1.70931
1.69699
1.68301
1.6659
1.64702
1.63149
1.62304
1.61843
1.61404
1.60964
1.60508
1.60017
1.59398
1.5859
1.57592
1.56566
1.55657
1.54691
1.5379
1.53062
1.52321
1.51531
1.50618
1.49364
1.47838
1.46596
1.46234
1.46248
1.46235
1.46316
1.46543
1.46688
1.46666
1.46587
1.46652
1.46945
1.47362
1.47759
1.48112
1.48408
1.48625
1.48756
1.48817
1.48813
1.48645
1.48207
1.47921
1.47879
1.47887
1.47945
1.48071
1.48215
1.48323
1.48406
1.48492
1.48615
1.48796
1.49012
1.49283
1.49592
1.49845
1.50014
1.50117
1.50238
1.50425
1.5055
1.5068
1.50875
1.5117
1.51655
1.52452
1.53625
1.54649
1.54886
1.54874
1.54831
1.54822
1.54864
1.55102
1.55615
1.56393
1.57531
1.58702
1.59953
1.61571
1.63372
1.65129
1.66853
1.68671
1.70817
1.73565
1.7686
1.79679
1.80656
1.80697
1.80641
1.80396
1.8028
1.8032
1.80581
1.81342
1.82732
1.84333
1.85418
1.85924
1.86032
1.86021
1.85993
1.85888
1.85672
1.85393
1.85034
1.56464
1.56358
1.56163
1.55918
1.55713
1.5561
1.55609
1.55685
1.55825
1.55905
1.56062
1.56357
1.56701
1.57056
1.57441
1.58243
1.59336
1.6
1.60661
1.61593
1.62568
1.63423
1.64194
1.65063
1.66856
1.68719
1.70257
1.71979
1.7387
1.76063
1.78886
1.82872
1.89419
2.00237
2.12788
2.17449
2.16668
2.14197
2.09667
2.035
1.99258
1.98595
1.98689
1.98858
1.98924
1.98647
1.97682
1.96841
1.96908
1.97475
1.97857
1.97708
1.96683
1.95163
1.94806
1.9505
1.95792
1.96784
1.97974
1.99398
2.00758
2.01502
2.01755
2.01789
2.017
2.01867
2.02196
2.02287
2.02083
2.01241
2.00422
1.99748
1.99076
1.96568
1.92878
1.90759
1.90066
1.89952
1.90103
1.90197
1.90176
1.90145
1.90183
1.90289
1.90403
1.90521
1.90682
1.90716
1.90682
1.90594
1.90393
1.90029
1.89757
1.8972
1.89776
1.89928
1.90132
1.90391
1.90616
1.90683
1.90656
1.90468
1.90045
1.89438
1.88683
1.87975
1.87278
1.86509
1.85615
1.84588
1.83555
1.8256
1.81525
1.8049
1.79384
1.77954
1.75852
1.72655
1.68247
1.63094
1.58774
1.57015
1.56552
1.56487
1.56491
1.56529
1.56676
1.56988
1.57576
1.58317
1.59226
1.60622
1.63101
1.66815
1.69952
1.71491
1.71915
1.71894
1.71679
1.7118
1.70253
1.69081
1.67959
1.667
1.65069
1.63068
1.61226
1.60162
1.596
1.59183
1.58885
1.58588
1.58243
1.57851
1.57283
1.56496
1.55546
1.54581
1.5358
1.52658
1.51941
1.51269
1.50576
1.49816
1.48798
1.47504
1.46293
1.45691
1.45536
1.45461
1.45499
1.4566
1.4579
1.45772
1.457
1.45761
1.4606
1.46441
1.46761
1.47041
1.47278
1.4743
1.47511
1.47536
1.47515
1.47315
1.46859
1.46548
1.46455
1.46414
1.46433
1.465
1.466
1.46676
1.46738
1.46819
1.46937
1.47087
1.4725
1.47491
1.47738
1.47913
1.48012
1.48085
1.4822
1.48382
1.48478
1.48602
1.48795
1.49081
1.49561
1.50355
1.51457
1.52326
1.52432
1.52371
1.52307
1.52303
1.52321
1.52508
1.53063
1.53817
1.54904
1.56155
1.57368
1.58867
1.60555
1.62173
1.6372
1.65345
1.67255
1.69717
1.72819
1.76004
1.77782
1.78091
1.78071
1.77849
1.7756
1.7755
1.77679
1.78139
1.79139
1.8064
1.82233
1.83337
1.83568
1.83565
1.83538
1.8341
1.83158
1.82829
1.82408
1.53911
1.53879
1.53784
1.53716
1.53661
1.53657
1.5369
1.53835
1.53995
1.54058
1.54177
1.54378
1.54627
1.54904
1.55327
1.5628
1.57327
1.57918
1.58616
1.59555
1.6051
1.61292
1.61884
1.6278
1.64471
1.66069
1.67636
1.69408
1.71211
1.72948
1.74917
1.77755
1.82603
1.91216
2.04085
2.14217
2.15401
2.13979
2.11242
2.06599
2.01185
1.98535
1.98309
1.98342
1.98567
1.98644
1.98245
1.97261
1.96851
1.97176
1.97889
1.9804
1.97417
1.95804
1.94998
1.94996
1.95149
1.95692
1.96557
1.97725
1.99284
2.00995
2.0223
2.02993
2.03766
2.04119
2.0408
2.03988
2.03667
2.02423
2.00537
1.99595
1.9877
1.96659
1.92463
1.89096
1.87823
1.87695
1.87821
1.88035
1.88207
1.88444
1.88705
1.88931
1.8912
1.89287
1.89487
1.89668
1.89753
1.89783
1.89763
1.89636
1.8947
1.89451
1.89556
1.89888
1.90344
1.90778
1.91087
1.91142
1.91066
1.90828
1.90419
1.8986
1.89082
1.88318
1.87645
1.86863
1.8584
1.84726
1.83543
1.82311
1.81148
1.8005
1.78847
1.77295
1.751
1.71782
1.66702
1.60146
1.546
1.52222
1.51726
1.51685
1.51719
1.51803
1.51928
1.52156
1.52679
1.53518
1.5461
1.56148
1.58705
1.62608
1.65866
1.67908
1.68829
1.68867
1.68744
1.68388
1.6762
1.66566
1.65551
1.64447
1.62951
1.60905
1.58764
1.57366
1.56642
1.56282
1.56186
1.56133
1.55974
1.55778
1.55463
1.54907
1.54112
1.53174
1.52153
1.51234
1.50544
1.49949
1.49375
1.48775
1.48001
1.46963
1.45849
1.45109
1.44776
1.44562
1.44559
1.44656
1.44757
1.44736
1.44665
1.44728
1.45012
1.45333
1.45578
1.45791
1.45973
1.46044
1.46064
1.46057
1.4598
1.45687
1.4519
1.44893
1.44792
1.44715
1.44718
1.44755
1.44816
1.44858
1.44898
1.44961
1.45047
1.45145
1.45271
1.45456
1.45614
1.45693
1.45735
1.45826
1.4596
1.46042
1.46112
1.46227
1.46395
1.46634
1.47042
1.47745
1.48657
1.49335
1.49421
1.49365
1.49307
1.49308
1.49325
1.49469
1.50008
1.50813
1.51875
1.53175
1.54344
1.55692
1.57241
1.58721
1.60102
1.61545
1.63224
1.65344
1.68045
1.7112
1.73445
1.74091
1.74106
1.73935
1.73562
1.735
1.73568
1.73817
1.74397
1.75498
1.77131
1.78744
1.79441
1.79523
1.79513
1.79388
1.79095
1.78654
1.78075
1.51665
1.51668
1.51662
1.51731
1.51797
1.51861
1.51979
1.52204
1.52278
1.52298
1.52383
1.52518
1.5269
1.52907
1.53367
1.54389
1.55243
1.55688
1.56334
1.57211
1.58077
1.58681
1.59169
1.60128
1.61465
1.62766
1.64272
1.66014
1.67783
1.69387
1.7093
1.72919
1.76332
1.82765
1.93786
2.07278
2.13709
2.13472
2.11967
2.09015
2.04532
2.00137
1.98226
1.97742
1.97776
1.98057
1.98069
1.97653
1.96863
1.96636
1.9693
1.97261
1.97102
1.96137
1.94862
1.94241
1.94056
1.94065
1.9432
1.94939
1.96178
1.98143
2.00349
2.02397
2.04131
2.04555
2.04424
2.0417
2.03719
2.02639
2.00841
1.98269
1.96321
1.94504
1.91626
1.881
1.85283
1.84165
1.84173
1.8441
1.84601
1.84857
1.85213
1.85587
1.8596
1.86373
1.86849
1.87291
1.87562
1.87721
1.87856
1.87906
1.87904
1.88037
1.8844
1.88977
1.89606
1.90324
1.90784
1.90837
1.90817
1.90653
1.90225
1.8954
1.88664
1.87817
1.87033
1.86165
1.85107
1.84021
1.82892
1.81494
1.80032
1.78659
1.77219
1.75524
1.73272
1.69867
1.64494
1.57201
1.50867
1.481
1.4755
1.47511
1.47565
1.47707
1.47813
1.47947
1.48363
1.49239
1.50477
1.52033
1.54456
1.58253
1.61415
1.6353
1.64841
1.65032
1.65
1.64862
1.64359
1.63492
1.62633
1.61713
1.60451
1.58538
1.56249
1.54527
1.53649
1.53376
1.5337
1.5343
1.53412
1.53334
1.5321
1.52877
1.52268
1.51465
1.50512
1.49658
1.4903
1.48527
1.48071
1.47608
1.47032
1.46233
1.45278
1.44518
1.44063
1.43689
1.43614
1.43664
1.43726
1.43694
1.43647
1.43743
1.44018
1.44279
1.44465
1.44636
1.44714
1.44722
1.44719
1.44674
1.44505
1.44105
1.436
1.43341
1.43241
1.43148
1.43137
1.43157
1.43198
1.43227
1.43257
1.43296
1.43343
1.43396
1.43485
1.4359
1.43652
1.43672
1.43726
1.43833
1.43889
1.43903
1.4394
1.44023
1.44143
1.44309
1.44595
1.4511
1.45794
1.4632
1.46434
1.46411
1.46363
1.46354
1.46369
1.46494
1.46961
1.47776
1.48796
1.50115
1.51271
1.52449
1.53828
1.55161
1.56348
1.57543
1.58918
1.60653
1.6288
1.65527
1.67899
1.68784
1.68811
1.68678
1.68404
1.68327
1.68379
1.68574
1.68987
1.69757
1.71036
1.72653
1.73778
1.73972
1.73952
1.73859
1.73642
1.73232
1.7256
1.50029
1.50038
1.50068
1.5021
1.5034
1.50474
1.50685
1.50901
1.509
1.5092
1.50996
1.51088
1.51202
1.51373
1.51829
1.52792
1.53309
1.53569
1.54084
1.54816
1.55489
1.55908
1.56395
1.57317
1.58283
1.59304
1.60605
1.62147
1.63767
1.65295
1.66708
1.6829
1.70728
1.75328
1.83883
1.96926
2.09205
2.12525
2.11932
2.10429
2.07507
2.03447
1.9968
1.97742
1.96945
1.96919
1.97104
1.97109
1.96763
1.96004
1.95694
1.95792
1.96029
1.9574
1.94514
1.93269
1.92854
1.92828
1.92869
1.9307
1.9368
1.95121
1.97683
2.00818
2.0304
2.03622
2.03554
2.02734
2.0203
2.01078
1.99128
1.96704
1.94484
1.92328
1.89765
1.86141
1.82122
1.79682
1.79341
1.79439
1.79483
1.79679
1.8002
1.80365
1.80774
1.8138
1.82185
1.83024
1.83704
1.84159
1.84475
1.84723
1.84968
1.85358
1.85911
1.86614
1.8751
1.88528
1.89372
1.89728
1.89758
1.89638
1.89175
1.88407
1.875
1.86592
1.85753
1.84791
1.83535
1.82132
1.80746
1.79155
1.77395
1.75797
1.74315
1.72705
1.70599
1.67366
1.62106
1.54704
1.48103
1.45097
1.44401
1.44309
1.44375
1.44503
1.44527
1.44569
1.44939
1.45892
1.47162
1.48601
1.5073
1.54188
1.57214
1.59196
1.60599
1.60922
1.60934
1.60919
1.60602
1.5994
1.59313
1.58648
1.57677
1.56051
1.5389
1.52054
1.5107
1.50828
1.50832
1.50915
1.50962
1.50937
1.50917
1.50759
1.5032
1.49666
1.48847
1.48127
1.47598
1.47162
1.46786
1.46439
1.46005
1.45409
1.44667
1.4401
1.43534
1.43081
1.42894
1.42901
1.42897
1.42824
1.4281
1.42942
1.43184
1.43383
1.43553
1.43666
1.43655
1.43647
1.43628
1.43538
1.43287
1.42818
1.42358
1.42151
1.42053
1.41961
1.41924
1.41932
1.41955
1.41967
1.41977
1.41997
1.42026
1.42063
1.42107
1.42143
1.42149
1.42161
1.42221
1.42265
1.42242
1.42208
1.4222
1.4226
1.42325
1.42426
1.42614
1.42957
1.43443
1.43842
1.43952
1.43945
1.43902
1.43872
1.4389
1.44001
1.44379
1.45156
1.46151
1.47477
1.48666
1.49688
1.50867
1.5202
1.52975
1.53873
1.54907
1.56227
1.57948
1.60016
1.61974
1.62831
1.62853
1.62767
1.62656
1.62512
1.62502
1.62593
1.62876
1.63428
1.6437
1.65744
1.6709
1.67492
1.67449
1.67365
1.67228
1.66903
1.66259
1.49008
1.48989
1.4904
1.49218
1.49397
1.49589
1.49855
1.50011
1.4999
1.50022
1.50094
1.50151
1.50218
1.50347
1.50785
1.51571
1.51747
1.51866
1.52218
1.52727
1.53166
1.53493
1.54013
1.54694
1.55289
1.5604
1.57037
1.58237
1.59587
1.60966
1.62276
1.63666
1.65579
1.68865
1.75015
1.85651
1.99487
2.0948
2.11239
2.10763
2.0924
2.06519
2.02824
1.99245
1.96953
1.95912
1.95736
1.95834
1.95834
1.95409
1.94695
1.94344
1.94371
1.94774
1.94206
1.92763
1.91908
1.91836
1.91933
1.92197
1.92711
1.93723
1.95721
1.98657
2.00978
2.01565
2.01496
2.00811
1.99623
1.98724
1.9694
1.94213
1.91369
1.88639
1.85774
1.82098
1.77713
1.74747
1.74025
1.7373
1.73592
1.73703
1.73869
1.74036
1.74378
1.75073
1.761
1.77281
1.78425
1.79403
1.80149
1.8068
1.81116
1.81556
1.8203
1.82654
1.83528
1.84658
1.8597
1.86963
1.87231
1.87161
1.86727
1.8607
1.85331
1.84447
1.83464
1.82219
1.80621
1.78721
1.76872
1.7509
1.73162
1.71497
1.70221
1.68965
1.67262
1.64469
1.59673
1.52719
1.46408
1.43339
1.42453
1.42216
1.4217
1.42147
1.42122
1.42163
1.42655
1.43659
1.44763
1.45988
1.47773
1.50827
1.5379
1.55657
1.56911
1.57204
1.57246
1.57241
1.56922
1.56422
1.56044
1.55596
1.54882
1.53613
1.51836
1.50165
1.49101
1.48797
1.48782
1.48831
1.48919
1.48916
1.48922
1.48849
1.48543
1.48027
1.47379
1.46827
1.46376
1.45951
1.45635
1.45389
1.4506
1.44613
1.44091
1.43618
1.43189
1.42722
1.42463
1.4238
1.42298
1.4223
1.42258
1.42397
1.42583
1.42728
1.42873
1.42942
1.42922
1.42906
1.4287
1.42745
1.42431
1.41918
1.41526
1.41363
1.41266
1.4118
1.41133
1.41133
1.41143
1.41149
1.41153
1.41167
1.41192
1.4122
1.41235
1.41229
1.41219
1.41228
1.4126
1.41259
1.41173
1.41063
1.41035
1.41038
1.41054
1.41095
1.41201
1.41412
1.41725
1.42015
1.42102
1.42097
1.42071
1.42037
1.42061
1.42171
1.4248
1.43175
1.44151
1.45477
1.46719
1.4762
1.48614
1.49595
1.50337
1.50946
1.51627
1.52519
1.53681
1.54994
1.56075
1.56697
1.5698
1.56982
1.56985
1.56923
1.56807
1.56821
1.57004
1.57363
1.57921
1.58784
1.59868
1.60649
1.60778
1.60755
1.60675
1.60396
1.59826
1.48409
1.484
1.48517
1.48732
1.4893
1.49135
1.49422
1.49548
1.4954
1.49577
1.49626
1.49631
1.49629
1.49705
1.50124
1.50618
1.50604
1.50634
1.50827
1.51125
1.51397
1.51681
1.52088
1.52433
1.52794
1.53288
1.53936
1.54761
1.55759
1.5687
1.58053
1.59357
1.60956
1.63372
1.67634
1.75276
1.87245
2.00432
2.08528
2.10107
2.09736
2.08295
2.05763
2.02302
1.98748
1.96258
1.94837
1.94447
1.94455
1.94272
1.93828
1.93344
1.93056
1.93646
1.9382
1.92896
1.91619
1.91278
1.91525
1.91966
1.92577
1.9345
1.94804
1.96902
1.98931
1.99551
1.99531
1.99003
1.97677
1.96695
1.94801
1.91378
1.87268
1.83315
1.79649
1.75892
1.72024
1.69521
1.68717
1.68138
1.67785
1.67781
1.67794
1.6784
1.68068
1.68644
1.69606
1.70875
1.72316
1.73785
1.75079
1.7599
1.76607
1.77092
1.77516
1.77978
1.78608
1.79542
1.80879
1.82259
1.82794
1.82728
1.82381
1.81956
1.81389
1.8053
1.7936
1.77932
1.76153
1.74028
1.71935
1.70006
1.6823
1.66788
1.6581
1.65031
1.63791
1.6148
1.57291
1.51165
1.45537
1.42334
1.4121
1.40846
1.40659
1.40602
1.40609
1.4076
1.41433
1.42363
1.43221
1.44216
1.45716
1.48425
1.51427
1.53074
1.53993
1.54097
1.54048
1.53858
1.53472
1.53263
1.531
1.528
1.52313
1.51459
1.5022
1.48898
1.47856
1.47413
1.47321
1.47334
1.47377
1.4737
1.47349
1.4729
1.4708
1.46696
1.46207
1.45725
1.45293
1.44933
1.44723
1.44543
1.4429
1.43965
1.43644
1.43336
1.42934
1.42467
1.42197
1.42051
1.41913
1.41878
1.41913
1.42013
1.42137
1.42254
1.42399
1.42462
1.42452
1.42448
1.4242
1.42281
1.41901
1.41372
1.41059
1.40929
1.40835
1.40759
1.4072
1.40711
1.40703
1.40689
1.40691
1.40707
1.40715
1.40718
1.40717
1.40717
1.40711
1.40713
1.40729
1.407
1.40542
1.40365
1.40268
1.4024
1.4024
1.40261
1.40343
1.40509
1.40749
1.40991
1.41069
1.41058
1.40985
1.40912
1.40922
1.40999
1.41227
1.41804
1.42724
1.44056
1.45413
1.46267
1.47107
1.4795
1.48486
1.48797
1.49096
1.495
1.50061
1.5065
1.51074
1.51596
1.52075
1.52167
1.52226
1.52222
1.52051
1.51792
1.51756
1.5179
1.51969
1.5249
1.53421
1.54396
1.54873
1.54949
1.54874
1.5451
1.53977
1.48075
1.48128
1.48359
1.48595
1.48779
1.48978
1.49263
1.49343
1.49364
1.49366
1.49286
1.49199
1.49206
1.49305
1.4968
1.49908
1.49843
1.49843
1.49932
1.50078
1.5022
1.50421
1.5061
1.50717
1.50921
1.5122
1.51606
1.52106
1.5276
1.53575
1.54523
1.55595
1.56927
1.58794
1.61731
1.66766
1.75348
1.87548
1.99426
2.0683
2.08883
2.08658
2.07377
2.05104
2.01845
1.9833
1.95675
1.93928
1.93521
1.93202
1.9263
1.92315
1.9206
1.92393
1.93259
1.93148
1.91985
1.9121
1.91503
1.91991
1.9262
1.93446
1.94565
1.96074
1.97513
1.98047
1.98059
1.97521
1.96145
1.9485
1.92531
1.88304
1.82605
1.76882
1.72213
1.68611
1.65968
1.64532
1.63775
1.63146
1.62783
1.62647
1.62618
1.62618
1.62705
1.63033
1.6376
1.64929
1.66441
1.68184
1.69934
1.71277
1.72037
1.72484
1.72805
1.73047
1.73354
1.73981
1.75103
1.76353
1.7699
1.76949
1.7684
1.76657
1.76247
1.75379
1.7406
1.72532
1.70698
1.68689
1.66774
1.64839
1.63354
1.62324
1.61589
1.61142
1.60372
1.58605
1.55109
1.49958
1.44938
1.41539
1.40307
1.39957
1.39747
1.39724
1.39794
1.40126
1.40869
1.41622
1.42267
1.43035
1.44296
1.46722
1.49671
1.50967
1.51513
1.51513
1.51321
1.50935
1.5073
1.5071
1.50617
1.50398
1.50152
1.49726
1.49006
1.48072
1.4719
1.4665
1.4641
1.46338
1.46299
1.46245
1.462
1.46146
1.45998
1.45706
1.45275
1.44807
1.44409
1.44191
1.44058
1.43911
1.43715
1.43515
1.43351
1.43121
1.42715
1.42307
1.42029
1.41809
1.41671
1.41665
1.41686
1.41744
1.41836
1.41983
1.42145
1.42189
1.42204
1.42218
1.42197
1.42045
1.41625
1.41119
1.40872
1.40752
1.4065
1.40573
1.40529
1.40498
1.40448
1.40409
1.40406
1.40408
1.40414
1.40424
1.40439
1.40465
1.40484
1.40487
1.40482
1.4039
1.40131
1.39919
1.39814
1.39782
1.39784
1.39824
1.39944
1.40137
1.40381
1.40572
1.40618
1.40552
1.40355
1.40237
1.40233
1.40275
1.40441
1.40933
1.41849
1.43274
1.44756
1.45543
1.46252
1.46969
1.47281
1.47285
1.47282
1.4731
1.47436
1.47611
1.47915
1.48447
1.48671
1.48666
1.48531
1.48278
1.47858
1.47477
1.47347
1.47348
1.47518
1.48111
1.49049
1.49888
1.50326
1.50367
1.50085
1.49525
1.49117
1.47869
1.48064
1.48369
1.48597
1.48787
1.49034
1.49228
1.49241
1.49232
1.4915
1.48987
1.48909
1.48934
1.49034
1.49298
1.4947
1.49417
1.49427
1.49474
1.49508
1.49534
1.49586
1.49561
1.49507
1.49563
1.49741
1.49932
1.50177
1.50571
1.5112
1.51781
1.5263
1.53707
1.55061
1.57017
1.60216
1.65609
1.74215
1.85649
1.96559
2.04223
2.07306
2.07261
2.06302
2.04212
2.01126
1.97809
1.95199
1.94042
1.93546
1.92559
1.91795
1.91524
1.91561
1.92517
1.92937
1.92327
1.91545
1.91893
1.9236
1.92838
1.93585
1.94682
1.95891
1.9673
1.97042
1.97028
1.96359
1.94735
1.92642
1.89465
1.84435
1.77584
1.70258
1.64636
1.61712
1.60618
1.59979
1.59314
1.58853
1.58588
1.58481
1.58403
1.58342
1.58347
1.58488
1.59015
1.60007
1.61401
1.63154
1.64973
1.66453
1.67337
1.67773
1.68001
1.68132
1.68308
1.68744
1.69529
1.70232
1.70435
1.70586
1.7066
1.70548
1.70227
1.69379
1.68171
1.66863
1.65276
1.63606
1.61816
1.60131
1.5911
1.58374
1.57875
1.57627
1.57176
1.55915
1.53136
1.48883
1.44266
1.4087
1.39682
1.39301
1.39165
1.39202
1.39396
1.39882
1.40571
1.41118
1.4158
1.42131
1.43146
1.45203
1.48083
1.49286
1.49639
1.49601
1.49325
1.48928
1.48865
1.48836
1.48716
1.48543
1.48486
1.4838
1.48052
1.47461
1.4679
1.46267
1.45939
1.45748
1.45602
1.45495
1.45443
1.45383
1.45247
1.44955
1.44515
1.44047
1.43804
1.43697
1.43597
1.4348
1.43358
1.43292
1.43195
1.42919
1.42541
1.42226
1.41937
1.41649
1.41544
1.41546
1.41553
1.41586
1.41683
1.41901
1.42052
1.4206
1.42085
1.42098
1.42068
1.41909
1.41512
1.41068
1.40846
1.40717
1.40604
1.4051
1.40429
1.40341
1.40254
1.40216
1.40214
1.40217
1.40233
1.40263
1.40311
1.40368
1.40413
1.4042
1.40383
1.40203
1.39864
1.39658
1.39589
1.39578
1.39591
1.39666
1.39851
1.40093
1.403
1.40385
1.40364
1.40178
1.39951
1.39852
1.39842
1.39878
1.40029
1.40476
1.41401
1.42927
1.44475
1.45183
1.45844
1.46394
1.46426
1.46341
1.46167
1.45994
1.45959
1.46004
1.46133
1.46148
1.45995
1.45705
1.45351
1.4491
1.44628
1.44546
1.44549
1.44617
1.44968
1.45643
1.46203
1.46552
1.46678
1.46559
1.46081
1.45705
1.45511
1.47805
1.48138
1.48435
1.48659
1.48878
1.49087
1.49183
1.49196
1.49129
1.48916
1.48753
1.48737
1.48777
1.48874
1.49056
1.49229
1.49239
1.49251
1.49258
1.49229
1.49149
1.49004
1.48774
1.48666
1.48672
1.4876
1.48842
1.48978
1.49206
1.49532
1.50018
1.50699
1.51487
1.52431
1.53714
1.55652
1.58746
1.63787
1.71617
1.81932
1.92421
2.00366
2.04832
2.05267
2.0446
2.02422
1.99893
1.97409
1.95478
1.94466
1.93581
1.92246
1.92009
1.92012
1.92642
1.9328
1.93108
1.92561
1.92527
1.92706
1.92979
1.93808
1.9487
1.95723
1.96087
1.96164
1.95968
1.94786
1.92431
1.89281
1.85068
1.79319
1.71917
1.63935
1.58276
1.56565
1.56337
1.55971
1.55586
1.5524
1.55087
1.5508
1.55058
1.55034
1.55039
1.55162
1.5559
1.56364
1.57486
1.58971
1.60496
1.61737
1.6256
1.63008
1.63264
1.63496
1.63799
1.64206
1.64471
1.64445
1.64374
1.64685
1.64853
1.64817
1.64565
1.63762
1.62787
1.61802
1.60598
1.59149
1.57373
1.56128
1.55481
1.55041
1.54737
1.5459
1.54359
1.53533
1.51395
1.47836
1.43439
1.40216
1.39128
1.38804
1.38804
1.38936
1.39256
1.39794
1.4037
1.40771
1.4105
1.41407
1.42187
1.4396
1.46742
1.48111
1.48423
1.48392
1.48099
1.4773
1.47628
1.47523
1.47376
1.47271
1.47311
1.47363
1.47287
1.46934
1.46437
1.46017
1.45701
1.45458
1.45247
1.45093
1.44992
1.44884
1.44691
1.44335
1.43843
1.43527
1.4343
1.43366
1.43294
1.43224
1.43214
1.43201
1.43037
1.4274
1.42449
1.42173
1.41842
1.41545
1.41483
1.41479
1.41482
1.41504
1.41631
1.41866
1.41935
1.41963
1.41994
1.41996
1.41966
1.41816
1.41479
1.4111
1.40894
1.40755
1.4063
1.40505
1.4037
1.40232
1.40136
1.40115
1.40114
1.40124
1.40155
1.40196
1.4026
1.40346
1.40405
1.40401
1.40312
1.4008
1.39717
1.39531
1.39505
1.39514
1.39571
1.3971
1.39929
1.40147
1.40264
1.40276
1.40177
1.39894
1.39755
1.39681
1.39657
1.39694
1.39846
1.40254
1.41105
1.42586
1.4419
1.44949
1.45626
1.4595
1.45912
1.45753
1.45505
1.45247
1.45032
1.4483
1.44585
1.44303
1.43924
1.4337
1.43028
1.42923
1.42888
1.4289
1.43028
1.43348
1.43622
1.4374
1.4381
1.43819
1.43709
1.43544
1.4339
1.4329
1.43179
1.47865
1.48235
1.48512
1.4874
1.4893
1.49078
1.49152
1.49137
1.48964
1.48727
1.48649
1.48649
1.48706
1.48808
1.48983
1.49145
1.49159
1.49153
1.49125
1.49006
1.48772
1.48446
1.48175
1.48082
1.4807
1.48103
1.48303
1.48433
1.48566
1.48815
1.49233
1.49739
1.50233
1.5074
1.515
1.52687
1.54409
1.57087
1.6144
1.68127
1.76966
1.8673
1.95381
2.00972
2.02182
2.0157
2.00345
1.98843
1.97108
1.95833
1.95248
1.93809
1.93227
1.93193
1.93357
1.93673
1.93674
1.9344
1.93073
1.92814
1.93075
1.93994
1.94793
1.9508
1.95098
1.94985
1.94149
1.91842
1.88383
1.84158
1.79094
1.73118
1.66027
1.58639
1.53888
1.52913
1.52821
1.52605
1.52451
1.52255
1.5216
1.52213
1.52341
1.52477
1.52565
1.52727
1.53052
1.53536
1.54256
1.55277
1.56384
1.57351
1.58072
1.58582
1.59011
1.59439
1.59824
1.59895
1.59612
1.59211
1.5933
1.59755
1.59973
1.60006
1.59744
1.59047
1.58374
1.57636
1.56646
1.55259
1.53777
1.52797
1.52425
1.52287
1.52116
1.52032
1.51964
1.51477
1.49823
1.46709
1.42504
1.39572
1.3861
1.38495
1.38577
1.38838
1.39266
1.39778
1.40248
1.40548
1.40667
1.40852
1.4142
1.42935
1.45605
1.47269
1.47644
1.47627
1.47383
1.47024
1.46832
1.46665
1.4652
1.46473
1.46556
1.46642
1.46612
1.46382
1.46095
1.45809
1.45545
1.45315
1.45103
1.44919
1.4475
1.44546
1.44219
1.43732
1.43336
1.43222
1.43179
1.43141
1.43118
1.43137
1.43154
1.43066
1.42864
1.42642
1.42409
1.42115
1.41737
1.41508
1.4145
1.41435
1.41436
1.41452
1.41599
1.41784
1.41826
1.41874
1.41905
1.41906
1.41877
1.41739
1.41463
1.41166
1.40965
1.40816
1.40665
1.40503
1.40331
1.4016
1.40091
1.4008
1.4008
1.40092
1.40127
1.40173
1.40266
1.40391
1.40448
1.40412
1.40247
1.39956
1.39634
1.39516
1.39523
1.39557
1.39645
1.39798
1.3997
1.40123
1.4021
1.40211
1.40038
1.39778
1.39701
1.39641
1.39611
1.39645
1.39775
1.40107
1.40876
1.4231
1.43948
1.44802
1.45427
1.45546
1.45472
1.45249
1.44928
1.44579
1.44227
1.4386
1.43445
1.42984
1.42521
1.42118
1.42013
1.42015
1.42046
1.42248
1.42475
1.42482
1.42426
1.42301
1.42092
1.41894
1.41854
1.41862
1.41864
1.41839
1.41765
1.4801
1.48336
1.48569
1.48736
1.48896
1.49034
1.49071
1.49015
1.48826
1.4867
1.48614
1.48625
1.48692
1.48812
1.49024
1.49084
1.49061
1.49033
1.4895
1.48747
1.48419
1.48044
1.47786
1.47688
1.47678
1.47698
1.47907
1.48045
1.48157
1.48371
1.48707
1.49049
1.49265
1.49491
1.49985
1.50699
1.5153
1.5275
1.54805
1.58231
1.63583
1.71048
1.79919
1.88505
1.94763
1.97817
1.9842
1.98321
1.9766
1.96721
1.96234
1.95273
1.94392
1.94032
1.93969
1.94017
1.94025
1.93863
1.93244
1.92707
1.93095
1.93822
1.93942
1.9388
1.93635
1.92843
1.90622
1.86827
1.82326
1.77368
1.72025
1.66435
1.60425
1.54638
1.51223
1.50503
1.50325
1.501
1.50008
1.4993
1.49891
1.49954
1.50137
1.50326
1.50463
1.50614
1.50782
1.50991
1.51411
1.52086
1.52869
1.53691
1.54372
1.54839
1.55328
1.55742
1.55793
1.55453
1.54964
1.55051
1.5553
1.55997
1.5626
1.56234
1.55887
1.55379
1.54947
1.54339
1.53331
1.52118
1.50988
1.5011
1.4993
1.49967
1.49933
1.49952
1.49954
1.4961
1.48236
1.45404
1.41535
1.39002
1.38314
1.38315
1.38477
1.38853
1.39352
1.39807
1.4016
1.40333
1.40298
1.40358
1.40791
1.42086
1.44605
1.46573
1.47098
1.47096
1.46889
1.46575
1.46374
1.46187
1.46016
1.45971
1.46003
1.46017
1.45993
1.4593
1.45802
1.45612
1.45406
1.45222
1.45041
1.44853
1.44631
1.4428
1.43746
1.43231
1.43064
1.43025
1.43
1.42992
1.4304
1.43073
1.43027
1.4291
1.42759
1.4259
1.42366
1.4202
1.41642
1.41488
1.41431