/*--------------------------------*- C++ -*----------------------------------*\
  =========                 |
  \\      /  F ield         | OpenFOAM: The Open Source CFD Toolbox
   \\    /   O peration     | Website:  https://openfoam.org
    \\  /    A nd           | Version:  7
     \\/     M anipulation  |
\*---------------------------------------------------------------------------*/
FoamFile
{
    version     2.0;
    format      ascii;
    class       volScalarField;
    location    "1.6";
    object      T;
}
// * * * * * * * * * * * * * * * * * * * * * * * * * * * * * * * * * * * * * //

dimensions      [0 0 0 1 0 0 0];

internalField   nonuniform List<scalar> 
16512
(
1.54988
1.54814
1.54581
1.543
1.53918
1.53453
1.53063
1.52785
1.52563
1.52359
1.5217
1.51986
1.51786
1.51561
1.51348
1.51175
1.51035
1.50897
1.50741
1.50552
1.50318
1.50027
1.49693
1.49245
1.48709
1.48318
1.48053
1.47857
1.47651
1.47448
1.47241
1.47018
1.46765
1.46479
1.46216
1.45984
1.45757
1.45523
1.45377
1.45316
1.45303
1.45339
1.45316
1.45247
1.45129
1.44855
1.44219
1.43392
1.42865
1.42657
1.42533
1.42425
1.42328
1.42217
1.42087
1.41943
1.41763
1.41541
1.4135
1.41223
1.41091
1.40912
1.4071
1.40516
1.40342
1.40189
1.40037
1.39854
1.39645
1.39456
1.39254
1.39002
1.38596
1.38156
1.37798
1.37627
1.37549
1.37531
1.37522
1.37426
1.37331
1.37228
1.37102
1.36951
1.3676
1.36518
1.36226
1.35903
1.35573
1.35314
1.35141
1.3499
1.34821
1.34638
1.34423
1.34146
1.33903
1.33696
1.33496
1.33367
1.33297
1.33234
1.33164
1.33094
1.33012
1.32912
1.32781
1.32563
1.32161
1.31626
1.31244
1.31077
1.31017
1.30973
1.30922
1.30869
1.30842
1.30806
1.30756
1.30688
1.30501
1.30025
1.29516
1.29331
1.29236
1.29121
1.29014
1.28921
1.28777
1.28586
1.28292
1.27947
1.27711
1.27572
1.27496
1.27448
1.27346
1.27209
1.2716
1.27122
1.27068
1.26997
1.26911
1.26823
1.26685
1.26359
1.25909
1.25629
1.25494
1.25374
1.25216
1.25017
1.2484
1.24724
1.24621
1.24512
1.24408
1.24321
1.24228
1.24102
1.23968
1.23819
1.23628
1.23432
1.23224
1.22974
1.22771
1.22662
1.22574
1.22492
1.2244
1.22409
1.2237
1.22315
1.22236
1.22112
1.219
1.21489
1.21054
1.20882
1.20804
1.20757
1.20769
1.20828
1.20812
1.2073
1.20669
1.2062
1.20569
1.20488
1.20298
1.1991
1.19367
1.18979
1.18853
1.1878
1.18714
1.1869
1.18672
1.18564
1.18417
1.18294
1.18205
1.18133
1.18067
1.18017
1.17968
1.17891
1.17775
1.17509
1.16972
1.16548
1.16324
1.16178
1.16093
1.16037
1.15978
1.1591
1.15844
1.15787
1.15741
1.15687
1.15612
1.15535
1.15447
1.15324
1.15157
1.1504
1.14982
1.14905
1.14786
1.14618
1.14421
1.14228
1.14016
1.13774
1.13604
1.13533
1.13526
1.13535
1.13511
1.13443
1.13335
1.13169
1.1296
1.12728
1.12473
1.12262
1.12139
1.121
1.12086
1.12066
1.12011
1.11904
1.11796
1.11688
1.11613
1.11503
1.5498
1.54857
1.54659
1.5425
1.53693
1.53232
1.52972
1.52789
1.52591
1.52361
1.52124
1.51902
1.51658
1.5142
1.5123
1.51059
1.50897
1.5075
1.50611
1.50478
1.50325
1.50064
1.49582
1.48958
1.48455
1.48129
1.47968
1.47845
1.47737
1.47563
1.47351
1.47111
1.46825
1.46511
1.46128
1.45717
1.45433
1.45299
1.45227
1.4518
1.45227
1.45385
1.45367
1.45296
1.4519
1.44961
1.44374
1.43434
1.42846
1.42595
1.42421
1.42279
1.42151
1.42023
1.41887
1.41746
1.41585
1.4138
1.41211
1.41097
1.41011
1.40918
1.40793
1.40639
1.4045
1.40237
1.40031
1.39813
1.39506
1.39152
1.38881
1.38695
1.38544
1.38355
1.38124
1.37843
1.37599
1.37447
1.3732
1.37208
1.37088
1.36952
1.36791
1.36624
1.36473
1.36311
1.36172
1.36054
1.35876
1.35558
1.35184
1.34886
1.34626
1.34395
1.34229
1.34097
1.33917
1.33713
1.33534
1.33381
1.33286
1.33219
1.33155
1.33084
1.33003
1.32919
1.32807
1.32593
1.32168
1.31579
1.31194
1.31048
1.30959
1.309
1.3088
1.30883
1.30834
1.30748
1.30676
1.30603
1.30464
1.30065
1.29527
1.29314
1.29222
1.2912
1.29005
1.28897
1.28752
1.2862
1.28458
1.28143
1.27779
1.27559
1.27413
1.27329
1.27326
1.2732
1.27285
1.2725
1.27199
1.27125
1.27046
1.26962
1.26842
1.26621
1.26197
1.25688
1.25365
1.25204
1.25051
1.24848
1.24708
1.24629
1.24544
1.24452
1.24359
1.24268
1.24207
1.24164
1.24076
1.239
1.2365
1.23384
1.23178
1.23039
1.22935
1.22856
1.22763
1.22659
1.22589
1.22529
1.22466
1.22389
1.22287
1.22144
1.2194
1.21641
1.21296
1.20992
1.20818
1.20723
1.20654
1.20622
1.20565
1.2047
1.20404
1.20356
1.20303
1.20225
1.20146
1.20023
1.19786
1.19379
1.18947
1.1874
1.18637
1.18568
1.18489
1.18363
1.18242
1.18153
1.18082
1.18024
1.17973
1.17931
1.17909
1.17899
1.17855
1.17679
1.17231
1.16695
1.16323
1.16122
1.16049
1.16001
1.15947
1.15884
1.15826
1.15768
1.15723
1.15703
1.15671
1.15602
1.15501
1.15345
1.15135
1.14968
1.14889
1.1482
1.14738
1.14619
1.1445
1.14259
1.14085
1.13918
1.13748
1.13589
1.13476
1.13408
1.13347
1.13249
1.13129
1.13011
1.1285
1.12692
1.12582
1.12459
1.1226
1.12065
1.11973
1.11918
1.11852
1.11751
1.11645
1.11545
1.11474
1.11361
1.5483
1.54651
1.54338
1.53897
1.53462
1.53209
1.53028
1.52843
1.52629
1.52363
1.5203
1.51675
1.51464
1.51342
1.51196
1.51033
1.5086
1.50704
1.50575
1.50449
1.50277
1.4992
1.49275
1.48681
1.4835
1.48183
1.48037
1.47925
1.4781
1.47633
1.47433
1.47196
1.46863
1.46374
1.45831
1.45454
1.45267
1.45181
1.45111
1.45079
1.45195
1.45349
1.45284
1.452
1.45121
1.4492
1.44418
1.43684
1.43045
1.42676
1.42431
1.42221
1.42037
1.41878
1.41729
1.41603
1.41455
1.41273
1.41146
1.41036
1.4093
1.40834
1.40724
1.40613
1.4049
1.40309
1.40043
1.39693
1.3926
1.38904
1.3868
1.38535
1.38418
1.38322
1.38201
1.38032
1.37768
1.37432
1.37191
1.37053
1.36945
1.36815
1.36649
1.36458
1.36343
1.36267
1.36204
1.3613
1.36008
1.35773
1.35371
1.34907
1.34579
1.34354
1.34153
1.33966
1.33816
1.33694
1.33582
1.33447
1.33342
1.33288
1.33263
1.33242
1.33164
1.33055
1.32912
1.3264
1.32137
1.31587
1.31255
1.31064
1.30947
1.30875
1.30835
1.3082
1.30831
1.30799
1.3074
1.30652
1.30501
1.30156
1.29631
1.29335
1.2922
1.29134
1.29113
1.2908
1.28909
1.28726
1.2855
1.28289
1.27882
1.27589
1.27493
1.27407
1.27261
1.27134
1.27088
1.27059
1.2703
1.26975
1.26902
1.26836
1.26769
1.26675
1.26444
1.25915
1.25367
1.25115
1.24972
1.24793
1.24663
1.24577
1.24481
1.24396
1.24339
1.24293
1.24235
1.24136
1.23969
1.23693
1.23461
1.23347
1.23264
1.23179
1.23087
1.22959
1.22775
1.22581
1.22451
1.22373
1.22299
1.2221
1.22076
1.2188
1.217
1.21583
1.21458
1.21257
1.20967
1.20741
1.20631
1.20566
1.20491
1.20403
1.20332
1.20266
1.20194
1.20096
1.20014
1.19985
1.19914
1.19696
1.19297
1.18848
1.18631
1.1853
1.18423
1.18294
1.18181
1.18093
1.18022
1.1796
1.17899
1.17868
1.17842
1.17762
1.17654
1.17528
1.17315
1.16954
1.16509
1.16239
1.16169
1.16122
1.16067
1.16008
1.15948
1.15882
1.15812
1.15733
1.1564
1.15554
1.15477
1.15408
1.15295
1.15079
1.14851
1.14714
1.14592
1.14444
1.14277
1.14124
1.13996
1.13916
1.13831
1.13682
1.13504
1.13368
1.13281
1.13183
1.13052
1.12969
1.12898
1.12794
1.12673
1.1255
1.12376
1.12135
1.11966
1.11884
1.11808
1.11708
1.11604
1.1151
1.11439
1.11325
1.54855
1.54456
1.53933
1.53543
1.53377
1.53246
1.5312
1.52978
1.52788
1.52488
1.52045
1.51611
1.51343
1.51165
1.5101
1.50884
1.50852
1.50752
1.50633
1.50495
1.50254
1.49767
1.49027
1.48531
1.48381
1.48271
1.48194
1.48079
1.47903
1.47709
1.47494
1.47233
1.46838
1.46205
1.45601
1.45317
1.45203
1.45113
1.45054
1.45053
1.45221
1.45339
1.4529
1.45172
1.44977
1.44722
1.44373
1.43923
1.43469
1.42987
1.42548
1.42227
1.41981
1.41786
1.41611
1.41432
1.41295
1.41189
1.41087
1.40989
1.40915
1.40826
1.40704
1.40592
1.40482
1.40332
1.40057
1.39614
1.39132
1.38798
1.38643
1.38509
1.38381
1.38282
1.38168
1.38049
1.37896
1.37623
1.37247
1.36978
1.36852
1.36728
1.36549
1.36387
1.36291
1.36203
1.361
1.35986
1.3588
1.35768
1.35565
1.35176
1.34747
1.34439
1.34182
1.33982
1.33842
1.33719
1.33609
1.33512
1.33423
1.33346
1.33276
1.3319
1.33064
1.32883
1.32656
1.32376
1.32006
1.31633
1.31358
1.3118
1.31053
1.30978
1.30907
1.30831
1.3078
1.30726
1.30647
1.30535
1.30381
1.30153
1.29792
1.29479
1.29318
1.29175
1.29025
1.28896
1.28766
1.28628
1.28483
1.28337
1.28094
1.27686
1.274
1.27279
1.27161
1.27065
1.27032
1.26999
1.26976
1.26934
1.26863
1.26793
1.26714
1.26628
1.26518
1.26224
1.2558
1.25069
1.24876
1.24783
1.24688
1.24583
1.24476
1.24386
1.24311
1.24247
1.24179
1.2408
1.23919
1.23627
1.2338
1.23351
1.23337
1.23286
1.23188
1.23045
1.22837
1.22592
1.22414
1.22324
1.22245
1.22148
1.22006
1.2179
1.21609
1.21516
1.21443
1.2135
1.21171
1.20909
1.20733
1.20632
1.20539
1.20453
1.2038
1.20285
1.2015
1.20035
1.19945
1.1986
1.19786
1.19713
1.19549
1.19234
1.1885
1.18636
1.18508
1.18382
1.18264
1.18165
1.18084
1.18015
1.17946
1.1786
1.17779
1.17691
1.17575
1.17469
1.17356
1.17153
1.16739
1.16257
1.16039
1.15973
1.15915
1.15852
1.15807
1.15765
1.15712
1.15659
1.15611
1.15575
1.15532
1.15451
1.15266
1.14991
1.14775
1.14651
1.14535
1.14391
1.14223
1.1409
1.14007
1.1394
1.13849
1.13673
1.1345
1.13309
1.13213
1.13125
1.13041
1.12931
1.12784
1.12628
1.12496
1.12413
1.1237
1.12303
1.12162
1.12021
1.11922
1.11822
1.11705
1.11598
1.11524
1.11418
1.5448
1.54038
1.53632
1.5343
1.53298
1.53189
1.5307
1.52943
1.52788
1.52497
1.52042
1.5165
1.51371
1.51134
1.50962
1.50846
1.50714
1.50528
1.50334
1.50152
1.49883
1.49437
1.48893
1.48613
1.4848
1.48373
1.48312
1.48181
1.47983
1.47777
1.47537
1.47223
1.46726
1.46001
1.45452
1.45274
1.45173
1.45086
1.45044
1.45134
1.45189
1.45135
1.45036
1.44872
1.44606
1.44302
1.44079
1.43907
1.43706
1.43403
1.42923
1.42413
1.42072
1.41787
1.41513
1.41323
1.41213
1.41122
1.41038
1.40966
1.40908
1.40812
1.40682
1.4057
1.40461
1.40307
1.39981
1.39452
1.39017
1.38832
1.3872
1.38596
1.38457
1.38311
1.38165
1.38032
1.37907
1.37725
1.37382
1.37001
1.36796
1.36656
1.36455
1.36297
1.36202
1.36108
1.36016
1.35933
1.3586
1.35783
1.35668
1.35415
1.349
1.3442
1.34222
1.34081
1.33936
1.33787
1.33659
1.3356
1.33468
1.3337
1.33268
1.33164
1.3304
1.32855
1.32537
1.32183
1.31935
1.31697
1.31436
1.31271
1.31201
1.31144
1.31068
1.30973
1.30888
1.30813
1.30724
1.30602
1.30445
1.30251
1.29984
1.29677
1.29377
1.29133
1.28941
1.28795
1.28675
1.28587
1.285
1.2839
1.28193
1.27826
1.27423
1.27224
1.27166
1.27149
1.2713
1.27106
1.2711
1.27072
1.26986
1.26907
1.26836
1.26753
1.26634
1.26345
1.2579
1.25155
1.24851
1.24717
1.24617
1.24558
1.24487
1.2441
1.24329
1.24245
1.24173
1.24073
1.23859
1.2358
1.2343
1.23362
1.23295
1.23212
1.23104
1.22986
1.22871
1.22719
1.22534
1.22419
1.22325
1.22199
1.22006
1.21764
1.21596
1.21495
1.21417
1.2135
1.21259
1.21063
1.20744
1.20463
1.20265
1.20155
1.20113
1.20086
1.20039
1.19973
1.19898
1.19815
1.19726
1.19652
1.19593
1.19478
1.19159
1.18698
1.18399
1.18202
1.18063
1.17964
1.17879
1.17802
1.1773
1.17656
1.17615
1.1762
1.17631
1.1759
1.17485
1.17285
1.16917
1.16373
1.16014
1.15901
1.15837
1.15782
1.15743
1.15717
1.1567
1.15625
1.15608
1.15593
1.15566
1.15488
1.15276
1.14963
1.14805
1.14726
1.14632
1.14505
1.1437
1.14254
1.14154
1.14057
1.13935
1.13719
1.1344
1.13255
1.13174
1.13098
1.13007
1.12893
1.12741
1.12573
1.12443
1.12382
1.12362
1.12356
1.12309
1.12103
1.11859
1.11691
1.11535
1.11418
1.1135
1.11252
1.54172
1.53743
1.53563
1.53441
1.53345
1.53228
1.53072
1.52916
1.52738
1.52417
1.51958
1.51643
1.51426
1.51192
1.50925
1.50698
1.50547
1.50413
1.50213
1.49896
1.49481
1.49065
1.48869
1.48757
1.48659
1.48583
1.48487
1.48304
1.48076
1.47832
1.47564
1.47144
1.46495
1.45817
1.45419
1.45239
1.45147
1.4511
1.45188
1.45241
1.45139
1.45026
1.44889
1.44665
1.44353
1.44075
1.43946
1.43857
1.43764
1.43613
1.43316
1.42724
1.42097
1.41699
1.41432
1.41288
1.41196
1.41101
1.41
1.40946
1.40998
1.40937
1.4079
1.40665
1.4051
1.40253
1.39839
1.39326
1.38978
1.38857
1.38781
1.38683
1.38544
1.38378
1.38223
1.38089
1.37957
1.37792
1.37503
1.37008
1.36578
1.36446
1.36385
1.36296
1.36159
1.36048
1.3597
1.35901
1.35834
1.35759
1.35658
1.35459
1.35032
1.34542
1.34261
1.34083
1.33919
1.33741
1.33568
1.33461
1.33413
1.33366
1.33304
1.33208
1.33061
1.32795
1.32367
1.32002
1.31799
1.31672
1.31565
1.31487
1.31404
1.31277
1.31091
1.30892
1.30726
1.30602
1.30489
1.30377
1.30241
1.30114
1.30023
1.29864
1.29572
1.29211
1.28949
1.28774
1.28628
1.28507
1.284
1.283
1.28183
1.27998
1.2772
1.27358
1.27079
1.26975
1.26942
1.26907
1.2688
1.2683
1.2675
1.26676
1.26604
1.2652
1.2642
1.26283
1.25973
1.25482
1.24973
1.2473
1.2462
1.2452
1.24433
1.24394
1.24365
1.24323
1.24276
1.24156
1.23899
1.23545
1.2333
1.23239
1.23185
1.2315
1.23117
1.23056
1.22945
1.22761
1.22482
1.22214
1.22101
1.22011
1.21879
1.21746
1.21646
1.21548
1.21453
1.21372
1.21281
1.21113
1.20786
1.20442
1.20206
1.20078
1.20008
1.19979
1.19984
1.20001
1.19962
1.19904
1.19843
1.19783
1.1971
1.19588
1.19332
1.18872
1.18422
1.18171
1.18009
1.17907
1.17822
1.17738
1.17652
1.17564
1.17512
1.17474
1.17403
1.17325
1.17234
1.17112
1.16941
1.16633
1.1618
1.1589
1.158
1.1575
1.15732
1.15729
1.15681
1.15626
1.15586
1.15547
1.15501
1.15429
1.15296
1.15026
1.14727
1.14564
1.14458
1.14342
1.14214
1.14095
1.13996
1.13914
1.13833
1.13733
1.13579
1.13366
1.13155
1.13023
1.12934
1.12847
1.12793
1.12719
1.12614
1.12552
1.12519
1.12491
1.12416
1.12197
1.11887
1.11672
1.11489
1.1137
1.11307
1.11208
1.53863
1.5364
1.53527
1.53425
1.53349
1.53227
1.53075
1.52924
1.52728
1.52395
1.51999
1.51698
1.51458
1.51223
1.50971
1.50685
1.50384
1.50089
1.4979
1.49408
1.49014
1.48796
1.48717
1.48676
1.48666
1.48636
1.48531
1.48367
1.48133
1.4784
1.47455
1.46907
1.46285
1.45806
1.4554
1.45372
1.4523
1.45108
1.45032
1.44967
1.44831
1.44665
1.44492
1.44293
1.44047
1.43935
1.43875
1.43839
1.43795
1.43656
1.43442
1.43019
1.42256
1.41657
1.41408
1.41275
1.41181
1.41101
1.41034
1.4101
1.40939
1.40781
1.40583
1.40387
1.40157
1.3985
1.39563
1.39356
1.39198
1.3902
1.38842
1.38724
1.38634
1.38558
1.38429
1.38261
1.38084
1.37874
1.37551
1.37051
1.36564
1.36346
1.3625
1.36165
1.36092
1.35997
1.35893
1.35822
1.35773
1.35717
1.35639
1.3546
1.35034
1.34526
1.34239
1.34078
1.33935
1.33776
1.33592
1.33449
1.33397
1.33378
1.33354
1.33314
1.33153
1.32726
1.32246
1.31957
1.31791
1.31658
1.31578
1.31512
1.31442
1.31342
1.31154
1.30897
1.30681
1.30533
1.30409
1.30287
1.30189
1.30093
1.29988
1.29867
1.29694
1.29416
1.2911
1.28901
1.28728
1.28522
1.28338
1.28214
1.28133
1.28059
1.27902
1.2757
1.27126
1.26934
1.2688
1.26839
1.26797
1.2673
1.26647
1.26568
1.26479
1.26381
1.2626
1.26104
1.25936
1.25674
1.25275
1.24872
1.24654
1.24552
1.24482
1.24416
1.24348
1.24272
1.24157
1.23946
1.23657
1.23458
1.2333
1.23228
1.2315
1.23106
1.2307
1.23022
1.22956
1.22826
1.22526
1.22134
1.2197
1.21904
1.21836
1.21746
1.21656
1.21577
1.21494
1.2141
1.21315
1.21173
1.20918
1.20573
1.20308
1.20155
1.20067
1.19968
1.1985
1.19783
1.19735
1.19679
1.19618
1.19551
1.19478
1.19405
1.1932
1.19119
1.18714
1.18318
1.18095
1.17981
1.17901
1.17816
1.17729
1.17635
1.17499
1.17333
1.17214
1.1715
1.17096
1.17022
1.16902
1.1671
1.1638
1.15988
1.15816
1.15764
1.15727
1.15699
1.15649
1.15592
1.15545
1.15498
1.15453
1.15414
1.15339
1.15107
1.14741
1.14523
1.144
1.14288
1.14161
1.14037
1.13941
1.13871
1.13815
1.13734
1.13559
1.13279
1.13054
1.12961
1.12902
1.12837
1.12746
1.12627
1.12511
1.12433
1.12399
1.12384
1.12368
1.12302
1.12103
1.11835
1.11616
1.11464
1.11392
1.11283
1.53765
1.53638
1.5354
1.53438
1.53306
1.53141
1.52943
1.52691
1.52398
1.52177
1.51987
1.51807
1.51611
1.51378
1.51085
1.50727
1.50338
1.4993
1.49462
1.49052
1.48798
1.48702
1.48625
1.48593
1.48644
1.48633
1.48528
1.48387
1.48162
1.47756
1.47179
1.46676
1.46279
1.46034
1.45844
1.45657
1.45443
1.45178
1.44894
1.44775
1.44689
1.44472
1.44168
1.43962
1.4388
1.43832
1.43781
1.4376
1.43722
1.43581
1.43397
1.43126
1.42602
1.41893
1.41467
1.41296
1.41193
1.41117
1.41028
1.40901
1.40774
1.40678
1.40519
1.40253
1.39907
1.39593
1.39421
1.3936
1.39291
1.39195
1.39067
1.38906
1.38713
1.38494
1.38275
1.38071
1.37874
1.37688
1.37488
1.37174
1.36697
1.36339
1.36192
1.3609
1.36
1.35935
1.35955
1.35952
1.35874
1.35805
1.35715
1.35528
1.35131
1.34616
1.34242
1.34057
1.33937
1.33822
1.33696
1.33565
1.33453
1.33389
1.33334
1.33224
1.32972
1.32558
1.32184
1.3202
1.31888
1.31749
1.31614
1.31503
1.31412
1.31315
1.31172
1.30952
1.30734
1.30577
1.3042
1.30236
1.30131
1.30073
1.30021
1.29949
1.29807
1.29555
1.29155
1.28769
1.28576
1.28436
1.28288
1.28169
1.28066
1.27968
1.27887
1.27749
1.27445
1.27068
1.26895
1.26826
1.26775
1.26707
1.26618
1.26524
1.26407
1.26267
1.26131
1.25992
1.25844
1.25689
1.25488
1.25205
1.24921
1.24737
1.24608
1.24509
1.24427
1.24323
1.24144
1.2386
1.23545
1.23404
1.23359
1.23311
1.23257
1.23203
1.23149
1.23075
1.22955
1.22788
1.22493
1.22108
1.21931
1.21864
1.21801
1.21717
1.21619
1.21535
1.21435
1.21345
1.21289
1.2124
1.21101
1.20733
1.20294
1.20011
1.19869
1.19792
1.19725
1.1968
1.19649
1.196
1.19539
1.19464
1.19388
1.19328
1.19273
1.19193
1.18973
1.18506
1.18065
1.17814
1.17701
1.17618
1.17529
1.17442
1.1735
1.1723
1.17133
1.1708
1.17037
1.16983
1.1691
1.16802
1.16574
1.1613
1.15845
1.15793
1.15786
1.15808
1.15775
1.15712
1.15666
1.15615
1.15537
1.15447
1.15354
1.15176
1.14883
1.14647
1.14507
1.14389
1.14265
1.14135
1.14046
1.13992
1.13935
1.1383
1.13587
1.13238
1.13044
1.12956
1.12885
1.12813
1.12713
1.12592
1.12465
1.12368
1.12344
1.12346
1.12355
1.12352
1.12259
1.1194
1.11583
1.11318
1.11202
1.11083
1.53763
1.53626
1.53504
1.53381
1.53237
1.53062
1.52852
1.52577
1.52209
1.51917
1.51774
1.51673
1.51569
1.51415
1.51185
1.50856
1.5037
1.4972
1.49156
1.48842
1.48718
1.48632
1.48589
1.48596
1.48613
1.48567
1.4846
1.48348
1.48117
1.4755
1.46924
1.46572
1.46418
1.46274
1.46099
1.45892
1.4564
1.45341
1.45034
1.44694
1.44392
1.44142
1.43926
1.43841
1.43799
1.43773
1.43845
1.43906
1.43817
1.4365
1.43442
1.43186
1.42826
1.42355
1.41778
1.41373
1.41204
1.41095
1.4099
1.40844
1.40673
1.40517
1.40305
1.39993
1.39659
1.39454
1.39394
1.39345
1.39301
1.3923
1.39116
1.38956
1.38728
1.38447
1.38188
1.37985
1.37799
1.3761
1.37449
1.37267
1.36925
1.36442
1.36165
1.36041
1.35945
1.35867
1.35792
1.35708
1.35614
1.35513
1.35404
1.35247
1.35032
1.34759
1.34519
1.34319
1.34103
1.3389
1.33751
1.33662
1.33585
1.33506
1.33414
1.33223
1.32828
1.32416
1.32239
1.32125
1.3199
1.31843
1.31697
1.31568
1.31462
1.31364
1.31245
1.31047
1.30733
1.30457
1.30305
1.302
1.30143
1.30092
1.30052
1.29988
1.29856
1.29634
1.29232
1.2875
1.285
1.28414
1.28332
1.28226
1.28124
1.28023
1.27915
1.27795
1.27614
1.27329
1.27042
1.26919
1.26853
1.26778
1.26669
1.26522
1.26358
1.26173
1.26025
1.25928
1.25827
1.25713
1.2561
1.25482
1.25238
1.2485
1.24527
1.24329
1.24219
1.24118
1.23962
1.23754
1.23582
1.2349
1.23422
1.23346
1.23256
1.2316
1.23078
1.23021
1.22976
1.22861
1.22577
1.22165
1.21932
1.21837
1.21757
1.21684
1.21671
1.21691
1.21602
1.2148
1.21408
1.21346
1.21217
1.20881
1.20346
1.19987
1.19817
1.19714
1.19652
1.19615
1.19606
1.19667
1.19661
1.19592
1.19529
1.19485
1.19424
1.19327
1.19114
1.18687
1.18127
1.17782
1.17629
1.17542
1.17445
1.17326
1.17269
1.17251
1.17233
1.17218
1.17185
1.1713
1.1705
1.16929
1.16738
1.16423
1.16003
1.15783
1.1574
1.15714
1.15659
1.15592
1.15529
1.15493
1.15456
1.15389
1.15295
1.15193
1.1502
1.1472
1.14442
1.14251
1.14106
1.13968
1.13845
1.13816
1.13797
1.1373
1.13531
1.13289
1.13172
1.13077
1.12991
1.12914
1.12834
1.12727
1.12589
1.12503
1.12495
1.12502
1.12505
1.12498
1.12398
1.12069
1.11635
1.11304
1.11155
1.1103
1.5374
1.53541
1.53362
1.53197
1.5305
1.52897
1.52711
1.52434
1.52082
1.51841
1.51679
1.51547
1.51429
1.51305
1.51154
1.50906
1.50404
1.49628
1.49046
1.48849
1.48715
1.48609
1.48544
1.48531
1.48596
1.48583
1.48485
1.48251
1.47864
1.4732
1.46858
1.46688
1.46584
1.46498
1.46342
1.46161
1.45924
1.4555
1.44991
1.44387
1.44033
1.43883
1.43825
1.43779
1.43744
1.43765
1.43773
1.43689
1.43553
1.43381
1.43161
1.42962
1.42823
1.42627
1.4232
1.41889
1.41394
1.41071
1.40938
1.4089
1.40754
1.40464
1.4009
1.39762
1.39562
1.39467
1.39395
1.39363
1.39345
1.39286
1.39164
1.38987
1.38748
1.38452
1.38154
1.37934
1.37802
1.377
1.3758
1.37408
1.37122
1.36721
1.3632
1.36069
1.35921
1.3581
1.35723
1.35638
1.35543
1.35421
1.35269
1.35081
1.34866
1.34714
1.34602
1.3447
1.34305
1.34113
1.33918
1.33732
1.33554
1.33393
1.33214
1.32981
1.32679
1.3245
1.32319
1.32161
1.31991
1.31849
1.31737
1.31633
1.31531
1.31445
1.31316
1.31056
1.30676
1.30374
1.30249
1.302
1.30161
1.30128
1.30071
1.29968
1.29825
1.29634
1.2936
1.28944
1.28526
1.28252
1.28091
1.27978
1.27888
1.27814
1.27747
1.27691
1.27649
1.27542
1.27266
1.26907
1.26674
1.26558
1.26469
1.26371
1.26259
1.26121
1.25996
1.25911
1.25882
1.25878
1.25773
1.25615
1.25388
1.25007
1.24564
1.24283
1.24132
1.24002
1.23878
1.23723
1.23621
1.23552
1.23479
1.23397
1.2329
1.23172
1.23065
1.22974
1.22864
1.22693
1.22389
1.22102
1.21971
1.21883
1.21789
1.21711
1.21655
1.21598
1.21492
1.214
1.21336
1.2128
1.21206
1.21009
1.20571
1.20093
1.1981
1.1968
1.19627
1.19591
1.19563
1.1954
1.19499
1.1944
1.19376
1.19317
1.19254
1.19177
1.19078
1.18864
1.18413
1.17875
1.17597
1.17489
1.17406
1.17284
1.17161
1.17102
1.17071
1.17065
1.17046
1.16992
1.16918
1.16825
1.16704
1.16528
1.1622
1.15898
1.15746
1.15661
1.15601
1.15544
1.15464
1.15413
1.15408
1.15413
1.15387
1.15314
1.1514
1.14811
1.14464
1.1423
1.14066
1.13931
1.13793
1.13715
1.137
1.13675
1.1358
1.13338
1.13154
1.13058
1.12951
1.12836
1.12734
1.12622
1.12492
1.12391
1.12367
1.12371
1.12377
1.12377
1.12354
1.12207
1.11877
1.1146
1.1124
1.11108
1.53927
1.53672
1.53408
1.53166
1.52958
1.52761
1.52521
1.5222
1.51967
1.51818
1.51684
1.51538
1.51381
1.51229
1.51084
1.50844
1.50335
1.49618
1.49153
1.48959
1.48818
1.48699
1.48606
1.4852
1.48428
1.48293
1.48097
1.4781
1.4742
1.47083
1.46947
1.46844
1.46796
1.46754
1.46602
1.46421
1.4619
1.45761
1.45005
1.44243
1.4389
1.438
1.43759
1.4374
1.43782
1.43836
1.43758
1.436
1.43427
1.43265
1.43072
1.42886
1.42754
1.42645
1.42528
1.42315
1.41884
1.4137
1.41044
1.40782
1.40509
1.40172
1.39835
1.39623
1.39532
1.39499
1.39462
1.39393
1.39319
1.39272
1.39239
1.3908
1.38762
1.38447
1.3822
1.38035
1.37848
1.37637
1.37409
1.37221
1.37075
1.36897
1.36624
1.36289
1.36061
1.35936
1.35848
1.35764
1.35667
1.35508
1.35212
1.34946
1.34835
1.34754
1.34657
1.34537
1.34399
1.34231
1.34015
1.3379
1.33603
1.33415
1.3312
1.3278
1.32622
1.32558
1.32459
1.32304
1.32098
1.31878
1.31737
1.31668
1.31623
1.31538
1.31345
1.30998
1.30657
1.30454
1.30296
1.30173
1.30109
1.30051
1.29994
1.29948
1.29852
1.2971
1.29477
1.29077
1.28572
1.28214
1.28018
1.279
1.2781
1.27741
1.27693
1.27649
1.276
1.27534
1.27365
1.26983
1.26648
1.26488
1.26387
1.26285
1.26178
1.26085
1.26009
1.25939
1.25864
1.25765
1.25646
1.25513
1.25359
1.25143
1.24794
1.24424
1.2411
1.23876
1.23785
1.23768
1.23743
1.23663
1.23522
1.23411
1.23338
1.23275
1.23193
1.23053
1.22844
1.22584
1.22291
1.2207
1.21997
1.21944
1.21869
1.21758
1.2164
1.21532
1.21435
1.21358
1.21304
1.21252
1.21174
1.21035
1.20729
1.20287
1.19974
1.19806
1.19729
1.19678
1.19615
1.19517
1.19429
1.19378
1.19332
1.19261
1.19189
1.19116
1.19026
1.18887
1.18606
1.18109
1.17671
1.17467
1.17353
1.17235
1.17118
1.17056
1.1702
1.17012
1.16998
1.16941
1.16865
1.16797
1.1672
1.16603
1.16358
1.15947
1.1566
1.15559
1.15512
1.15476
1.15441
1.15405
1.15363
1.15306
1.15232
1.15144
1.15028
1.14857
1.14614
1.14364
1.14168
1.14014
1.1388
1.13732
1.13611
1.13528
1.13399
1.13244
1.13143
1.13062
1.12959
1.12818
1.12694
1.12578
1.12458
1.12346
1.12314
1.12317
1.12326
1.12332
1.12325
1.12268
1.12071
1.11617
1.1118
1.10926
1.54094
1.5384
1.53541
1.53228
1.52944
1.52708
1.52457
1.52133
1.51878
1.51726
1.51591
1.5148
1.51391
1.51265
1.51078
1.50743
1.50184
1.49642
1.49352
1.49159
1.48959
1.48757
1.48576
1.48417
1.48311
1.4815
1.4784
1.47414
1.47078
1.4692
1.46838
1.46835
1.46896
1.46913
1.46771
1.46579
1.46356
1.45921
1.45049
1.44217
1.43906
1.43791
1.43727
1.43701
1.43673
1.43582
1.43449
1.43309
1.43149
1.43001
1.42905
1.42838
1.42808
1.42761
1.42673
1.42557
1.42311
1.41746
1.41026
1.40516
1.40237
1.39995
1.3979
1.39643
1.39526
1.39462
1.39464
1.39488
1.39448
1.39354
1.39135
1.38845
1.38567
1.38386
1.38263
1.38128
1.37932
1.37656
1.37363
1.3716
1.37054
1.36974
1.36849
1.36587
1.36179
1.3584
1.35633
1.35503
1.35383
1.35249
1.35048
1.34895
1.34812
1.34742
1.34698
1.34591
1.34467
1.34334
1.34144
1.33881
1.33561
1.33224
1.32955
1.32731
1.32613
1.32512
1.32402
1.32295
1.32158
1.32005
1.31841
1.31674
1.31471
1.31231
1.31035
1.30875
1.30732
1.3057
1.30359
1.30199
1.30106
1.30027
1.29949
1.29857
1.29739
1.29591
1.29402
1.29129
1.28737
1.28362
1.28132
1.28004
1.27928
1.2787
1.27814
1.27748
1.27666
1.2756
1.27407
1.27157
1.26797
1.26516
1.26372
1.26266
1.2616
1.26062
1.2597
1.25884
1.25795
1.25695
1.25593
1.25497
1.25396
1.25253
1.24944
1.24407
1.23997
1.2382
1.23771
1.23741
1.23701
1.23666
1.23626
1.23569
1.23466
1.23304
1.23104
1.22887
1.22629
1.22349
1.22236
1.2218
1.22111
1.22025
1.21913
1.21772
1.21631
1.21503
1.21388
1.2129
1.21219
1.21185
1.21149
1.21057
1.20868
1.20511
1.20088
1.19785
1.19588
1.19482
1.19418
1.19361
1.19315
1.19285
1.19288
1.19295
1.19234
1.19168
1.19091
1.18971
1.18719
1.1834
1.17858
1.17499
1.1732
1.1723
1.1718
1.17153
1.17138
1.17144
1.17164
1.17117
1.17038
1.16958
1.16864
1.16726
1.16462
1.16017
1.15667
1.15546
1.15491
1.15451
1.15407
1.1536
1.15303
1.15233
1.15152
1.15063
1.14976
1.14889
1.14737
1.1446
1.14134
1.13862
1.13689
1.13557
1.13434
1.13352
1.13251
1.13175
1.13147
1.13109
1.13048
1.12928
1.12814
1.12708
1.12584
1.12457
1.12424
1.12429
1.1245
1.12466
1.12462
1.12419
1.1224
1.11783
1.11223
1.10893
1.54151
1.53967
1.53725
1.53403
1.53014
1.52623
1.52321
1.52064
1.51881
1.51747
1.51614
1.51457
1.5126
1.51003
1.50685
1.50307
1.4991
1.4965
1.49518
1.49378
1.49196
1.48961
1.48687
1.48384
1.48056
1.47761
1.47487
1.47178
1.47005
1.46896
1.46811
1.46837
1.46971
1.46975
1.4682
1.46625
1.4641
1.45983
1.4527
1.44561
1.44152
1.43951
1.43842
1.4378
1.43678
1.43515
1.43304
1.4312
1.42985
1.42863
1.42784
1.42809
1.42913
1.42891
1.42796
1.42683
1.42485
1.41994
1.41106
1.40427
1.40098
1.39936
1.39811
1.39682
1.39601
1.39557
1.39501
1.39434
1.39321
1.39109
1.38866
1.38643
1.38502
1.38394
1.38262
1.38115
1.37961
1.37777
1.37572
1.37387
1.37253
1.37134
1.3698
1.36729
1.36333
1.35871
1.35576
1.35407
1.35241
1.35056
1.34969
1.34913
1.34849
1.34786
1.34699
1.34567
1.34428
1.34311
1.34207
1.34018
1.33601
1.33098
1.32819
1.32733
1.3267
1.32591
1.32466
1.32294
1.32138
1.32026
1.31928
1.31768
1.31449
1.31061
1.30849
1.30802
1.30781
1.30721
1.30566
1.30302
1.30096
1.29981
1.29888
1.2978
1.29651
1.29506
1.29358
1.29187
1.28908
1.28477
1.28092
1.27848
1.27713
1.27638
1.27586
1.27533
1.27468
1.27389
1.27306
1.27201
1.26966
1.26608
1.26451
1.26365
1.26258
1.26154
1.26039
1.25898
1.25788
1.25712
1.25658
1.25589
1.25499
1.25367
1.25062
1.2443
1.23919
1.23826
1.23795
1.23766
1.23716
1.2367
1.23647
1.23608
1.23522
1.23349
1.23088
1.22812
1.22541
1.22285
1.22133
1.22076
1.22052
1.22017
1.21944
1.21825
1.21665
1.2151
1.21394
1.21295
1.21199
1.21132
1.21111
1.2108
1.20964
1.20699
1.20288
1.1985
1.19568
1.19429
1.19348
1.19303
1.1927
1.19251
1.19247
1.19211
1.19132
1.19028
1.18913
1.1881
1.18694
1.18446
1.18072
1.17733
1.17505
1.17307
1.17135
1.17059
1.1702
1.17011
1.17025
1.16984
1.16899
1.168
1.1668
1.16533
1.16349
1.16089
1.15784
1.15618
1.1556
1.15515
1.15465
1.15413
1.15362
1.15309
1.15253
1.15193
1.15123
1.15024
1.14857
1.14571
1.14175
1.13837
1.13629
1.13481
1.13301
1.13188
1.13156
1.13154
1.13143
1.13124
1.13065
1.12949
1.12795
1.12627
1.12475
1.12343
1.12288
1.12291
1.1231
1.12321
1.12317
1.12288
1.12208
1.11954
1.11471
1.11006
1.5419
1.54061
1.53892
1.53616
1.53112
1.52518
1.52144
1.51983
1.51865
1.51749
1.516
1.51395
1.5115
1.50856
1.5047
1.50053
1.49803
1.49712
1.49619
1.49499
1.49348
1.49148
1.48867
1.48483
1.47958
1.47482
1.47236
1.47101
1.46987
1.46902
1.46897
1.46951
1.46959
1.4685
1.46752
1.46613
1.46338
1.45921
1.4549
1.45129
1.44712
1.442
1.43783
1.43513
1.43375
1.43255
1.43113
1.42996
1.42914
1.42827
1.42756
1.42792
1.42852
1.42797
1.427
1.42662
1.42535
1.42116
1.41286
1.40465
1.40115
1.39978
1.39902
1.39923
1.39863
1.39727
1.39612
1.39468
1.39202
1.38899
1.38696
1.38577
1.38487
1.384
1.38291
1.38154
1.37988
1.37757
1.37471
1.37241
1.37082
1.36947
1.36817
1.36689
1.36495
1.36155
1.35718
1.35365
1.35135
1.3499
1.34909
1.34831
1.3474
1.34686
1.34706
1.34656
1.34523
1.34384
1.34191
1.33871
1.33405
1.33023
1.32856
1.32747
1.32642
1.32553
1.32506
1.32387
1.32217
1.3203
1.31846
1.31627
1.31304
1.30974
1.30837
1.30783
1.30734
1.30678
1.30596
1.30426
1.30227
1.30108
1.30002
1.29888
1.2976
1.2962
1.29474
1.29309
1.29045
1.2863
1.28147
1.27833
1.27668
1.27572
1.27512
1.27459
1.27395
1.27326
1.27269
1.27216
1.27117
1.2683
1.2645
1.26218
1.26075
1.25975
1.25887
1.25808
1.25738
1.25708
1.25629
1.25533
1.25426
1.25287
1.25067
1.24603
1.24007
1.23789
1.23737
1.23702
1.23676
1.23652
1.2364
1.23615
1.23554
1.23417
1.23134
1.22721
1.22396
1.22204
1.22108
1.22059
1.22012
1.21947
1.21881
1.21831
1.21762
1.21656
1.21511
1.21381
1.21274
1.21168
1.21032
1.20867
1.20701
1.20559
1.20385
1.20106
1.19769
1.19537
1.19437
1.19395
1.19363
1.19322
1.19274
1.19223
1.19154
1.19048
1.18883
1.18658
1.1844
1.18275
1.18121
1.17972
1.1779
1.1748
1.17155
1.17035
1.16988
1.16961
1.16956
1.16931
1.16856
1.16751
1.16621
1.16463
1.16296
1.16141
1.15937
1.1565
1.1542
1.1532
1.15264
1.15209
1.15166
1.15131
1.15096
1.15053
1.14994
1.14909
1.14788
1.14618
1.14347
1.14009
1.13681
1.13417
1.1323
1.13145
1.13144
1.13139
1.13148
1.13172
1.13107
1.12973
1.12799
1.12607
1.12438
1.12305
1.12237
1.12239
1.12258
1.12267
1.12262
1.12238
1.12176
1.12037
1.1173
1.11139
1.5426
1.5412
1.53958
1.53694
1.53143
1.52504
1.52176
1.51971
1.51781
1.51608
1.51452
1.51281
1.5107
1.50809
1.50387
1.49924
1.49773
1.49698
1.49639
1.49562
1.49461
1.49309
1.49029
1.48515
1.47846
1.47379
1.47211
1.47105
1.46991
1.46909
1.46952
1.47094
1.47055
1.46876
1.46643
1.46388
1.46075
1.45749
1.45566
1.45431
1.45202
1.44699
1.43945
1.43447
1.43234
1.43105
1.42986
1.42885
1.42802
1.42768
1.42872
1.4301
1.42988
1.42871
1.42727
1.42546
1.42325
1.41979
1.41496
1.41015
1.4056
1.40179
1.39953
1.3979
1.39638
1.39485
1.39325
1.39155
1.38973
1.3879
1.38687
1.38586
1.38468
1.38364
1.38298
1.38228
1.381
1.37821
1.37425
1.37165
1.37017
1.36894
1.36781
1.36675
1.36546
1.36331
1.359
1.35367
1.35082
1.34979
1.34895
1.34808
1.34721
1.34646
1.34637
1.34576
1.34432
1.34352
1.34216
1.33803
1.33229