/*--------------------------------*- C++ -*----------------------------------*\
  =========                 |
  \\      /  F ield         | OpenFOAM: The Open Source CFD Toolbox
   \\    /   O peration     | Website:  https://openfoam.org
    \\  /    A nd           | Version:  7
     \\/     M anipulation  |
\*---------------------------------------------------------------------------*/
FoamFile
{
    version     2.0;
    format      ascii;
    class       volScalarField;
    location    "1.2";
    object      rho;
}
// * * * * * * * * * * * * * * * * * * * * * * * * * * * * * * * * * * * * * //

dimensions      [1 -3 0 0 0 0 0];

internalField   nonuniform List<scalar> 
16512
(
0.645804
0.651367
0.662641
0.674507
0.680457
0.683172
0.684989
0.686863
0.689901
0.695564
0.704624
0.71477
0.721293
0.725353
0.729424
0.73468
0.742465
0.749838
0.752542
0.75419
0.75554
0.756943
0.758768
0.76282
0.770677
0.776399
0.777815
0.778502
0.779123
0.780479
0.782516
0.78636
0.792211
0.795705
0.796955
0.797939
0.798957
0.800107
0.801618
0.804166
0.808549
0.81142
0.81175
0.811582
0.810929
0.810795
0.811366
0.813573
0.817972
0.821886
0.823221
0.82361
0.823784
0.823959
0.824369
0.825047
0.826574
0.829322
0.831396
0.832146
0.832575
0.832653
0.832521
0.832758
0.833008
0.833415
0.834271
0.835085
0.835426
0.835677
0.836105
0.836823
0.837822
0.839186
0.841216
0.843699
0.845529
0.846297
0.846491
0.846418
0.845885
0.844851
0.84385
0.843384
0.843332
0.843829
0.845197
0.846837
0.847698
0.84762
0.847124
0.846247
0.84481
0.84389
0.843464
0.843467
0.84419
0.845362
0.846867
0.847721
0.847439
0.84668
0.845503
0.844542
0.844393
0.844478
0.845037
0.846563
0.849386
0.853434
0.856462
0.856455
0.855821
0.854676
0.853094
0.85153
0.850243
0.849584
0.849455
0.849514
0.849985
0.851112
0.852907
0.855267
0.857818
0.860066
0.860288
0.859325
0.857807
0.856125
0.854932
0.854345
0.85398
0.853914
0.854328
0.855091
0.855094
0.854325
0.852257
0.84943
0.847455
0.846084
0.844753
0.843894
0.843431
0.843341
0.843859
0.844705
0.845667
0.846913
0.848831
0.85073
0.851161
0.850863
0.849545
0.847033
0.844249
0.842293
0.841014
0.840286
0.840104
0.840902
0.842173
0.843377
0.844557
0.845484
0.846044
0.845999
0.845474
0.844625
0.843094
0.841174
0.840159
0.839508
0.839037
0.838651
0.838401
0.838416
0.838966
0.840377
0.842666
0.84553
0.847106
0.84698
0.845625
0.843947
0.842637
0.841263
0.8396
0.838288
0.837661
0.837208
0.836537
0.835832
0.835817
0.836308
0.837842
0.840196
0.842022
0.843077
0.843924
0.844115
0.843552
0.842769
0.842014
0.841214
0.840156
0.838502
0.836259
0.834349
0.833068
0.831752
0.829989
0.828236
0.827201
0.826674
0.826425
0.826733
0.827369
0.828131
0.828967
0.829514
0.82974
0.82956
0.82895
0.828168
0.827505
0.826866
0.825995
0.824552
0.822872
0.822047
0.821551
0.821008
0.820446
0.819585
0.818705
0.817908
0.817172
0.816598
0.816025
0.815144
0.81459
0.8147
0.81507
0.815721
0.816384
0.816768
0.816881
0.816938
0.816901
0.816513
0.815666
0.814578
0.813621
0.813574
0.814256
0.81542
0.654568
0.659194
0.667078
0.67629
0.682824
0.687115
0.690312
0.693017
0.696177
0.700986
0.708506
0.717618
0.72465
0.729152
0.733247
0.738191
0.744935
0.752171
0.755792
0.757851
0.759724
0.76172
0.764143
0.76824
0.776295
0.782697
0.784374
0.785024
0.784462
0.78424
0.785461
0.787642
0.791718
0.795969
0.798392
0.800094
0.801609
0.803067
0.80463
0.806913
0.811043
0.815866
0.818403
0.819322
0.81965
0.81958
0.819602
0.820351
0.822003
0.82281
0.823123
0.823589
0.824396
0.825254
0.826011
0.826946
0.82869
0.831555
0.83412
0.835482
0.836236
0.836793
0.837244
0.837688
0.838159
0.838718
0.839109
0.83905
0.838708
0.838123
0.838047
0.838492
0.839244
0.840428
0.842276
0.844431
0.84601
0.846993
0.847777
0.848396
0.848824
0.849044
0.849012
0.848651
0.848058
0.847584
0.847331
0.847279
0.84764
0.848344
0.848848
0.84904
0.849067
0.849106
0.849436
0.850162
0.851195
0.852107
0.852499
0.851999
0.85088
0.849548
0.847913
0.846293
0.845777
0.845677
0.845772
0.846678
0.849027
0.852526
0.855537
0.856934
0.856784
0.856172
0.855031
0.853401
0.851453
0.849908
0.849295
0.849133
0.849349
0.850281
0.852335
0.855622
0.859694
0.863867
0.865081
0.864224
0.862587
0.860398
0.858025
0.856084
0.854773
0.854124
0.853938
0.854084
0.854672
0.854577
0.853731
0.852655
0.851236
0.849503
0.847633
0.845799
0.844753
0.844459
0.844491
0.844835
0.845482
0.84648
0.847913
0.849564
0.850511
0.850476
0.849543
0.847712
0.846507
0.845918
0.845421
0.845026
0.844724
0.84466
0.844865
0.84535
0.845788
0.845897
0.845444
0.844689
0.844125
0.843856
0.844311
0.845006
0.844993
0.844325
0.843385
0.842218
0.840958
0.840231
0.840298
0.841065
0.842811
0.84484
0.846337
0.847447
0.847877
0.847718
0.847039
0.845768
0.844005
0.842317
0.84116
0.840111
0.838746
0.837339
0.836963
0.837239
0.838404
0.840419
0.841982
0.842875
0.843835
0.844158
0.843583
0.842804
0.842027
0.841184
0.83998
0.837891
0.835151
0.833462
0.832983
0.8327
0.832295
0.831785
0.830903
0.829826
0.828957
0.828341
0.82794
0.827745
0.827793
0.827985
0.82826
0.828954
0.830028
0.830498
0.830518
0.830164
0.829272
0.827698
0.825953
0.825152
0.82467
0.824167
0.823745
0.822988
0.822095
0.821192
0.82026
0.819346
0.818272
0.816808
0.815653
0.815513
0.815747
0.816244
0.816741
0.816819
0.816796
0.81669
0.816449
0.815968
0.815222
0.814298
0.813341
0.813174
0.813717
0.814799
0.680154
0.686765
0.6936
0.699169
0.702712
0.705822
0.709341
0.713451
0.718326
0.724273
0.731469
0.739045
0.745287
0.749812
0.753691
0.758344
0.765318
0.772107
0.775043
0.777141
0.778585
0.779546
0.781461
0.784764
0.791692
0.798688
0.802159
0.804398
0.806013
0.807182
0.808241
0.809554
0.811622
0.81375
0.815063
0.816382
0.81776
0.819012
0.820132
0.821531
0.824125
0.828308
0.831643
0.833553
0.835135
0.836859
0.839012
0.841473
0.84266
0.842685
0.842279
0.841236
0.840337
0.840654
0.841277
0.841924
0.843206
0.845604
0.847305
0.847987
0.848619
0.849275
0.849959
0.850687
0.851641
0.852996
0.854109
0.854466
0.854589
0.854368
0.853726
0.853712
0.854058
0.85472
0.856035
0.857158
0.85728
0.857245
0.857078
0.857113
0.857523
0.858293
0.859351
0.860278
0.860646
0.860513
0.859749
0.858161
0.856403
0.85536
0.855006
0.855096
0.85594
0.857011
0.858271
0.859931
0.862056
0.864449
0.865564
0.865259
0.864211
0.862702
0.860817
0.858961
0.85834
0.858163
0.858196
0.858674
0.859913
0.861815
0.864181
0.866192
0.866661
0.866557
0.866132
0.86525
0.86363
0.86131
0.859218
0.858302
0.857849
0.857719
0.858403
0.86071
0.865107
0.870866
0.873405
0.873151
0.87244
0.871402
0.870058
0.868393
0.866289
0.863692
0.860878
0.858765
0.857796
0.857658
0.858224
0.859019
0.859167
0.858794
0.858118
0.856961
0.855612
0.854207
0.852594
0.851321
0.850924
0.850948
0.851425
0.852756
0.853409
0.853211
0.851851
0.850472
0.850044
0.849963
0.850698
0.852404
0.854081
0.855029
0.855407
0.855169
0.854435
0.852844
0.850364
0.848026
0.846538
0.846029
0.846688
0.849493
0.851779
0.852461
0.852489
0.852194
0.851442
0.850031
0.848429
0.8477
0.847603
0.847704
0.848061
0.849097
0.851142
0.852847
0.853106
0.852768
0.852096
0.851557
0.851157
0.850461
0.848917
0.846796
0.845633
0.845525
0.845715
0.846084
0.846383
0.847124
0.849194
0.850553
0.850248
0.849573
0.848679
0.847321
0.844955
0.841298
0.83736
0.835217
0.834603
0.834437
0.835042
0.836274
0.837221
0.837323
0.836767
0.835812
0.834388
0.832647
0.831175
0.830257
0.829873
0.83037
0.832254
0.834018
0.834527
0.834467
0.833831
0.832066
0.829961
0.829112
0.828679
0.82836
0.828318
0.828216
0.827779
0.827354
0.826945
0.826467
0.825697
0.824186
0.822342
0.821178
0.820635
0.82021
0.819654
0.81911
0.818703
0.818328
0.81799
0.817589
0.817077
0.816528
0.816002
0.815459
0.815011
0.81542
0.701004
0.711032
0.719419
0.725083
0.729553
0.733783
0.737851
0.741783
0.745565
0.750093
0.756861
0.764705
0.770734
0.77523
0.779318
0.784318
0.791782
0.799131
0.80297
0.8054
0.807156
0.807913
0.809396
0.81236
0.817215
0.822415
0.825895
0.828496
0.830948
0.833273
0.835318
0.837429
0.839682
0.841117
0.842288
0.843489
0.844812
0.846221
0.847682
0.849368
0.851647
0.854409
0.856057
0.856735
0.857464
0.858828
0.861559
0.865039
0.866601
0.867008
0.867273
0.866946
0.865623
0.865006
0.865359
0.866026
0.86754
0.8704
0.872102
0.872723
0.873155
0.873411
0.873839
0.874278
0.874727
0.875343
0.876025
0.876388
0.876653
0.876877
0.877063
0.877193
0.877482
0.878315
0.879779
0.880363
0.880421
0.88034
0.880277
0.880427
0.880659
0.881082
0.881741
0.882272
0.882396
0.882304
0.881841
0.881049
0.880255
0.87959
0.879106
0.878901
0.878978
0.879156
0.879374
0.879829
0.88081
0.88227
0.882666
0.882134
0.880881
0.878883
0.876258
0.874662
0.874324
0.87429
0.874898
0.876566
0.878873
0.881381
0.883437
0.883869
0.88345
0.882292
0.88087
0.879688
0.878397
0.876682
0.875761
0.875599
0.875727
0.876566
0.878414
0.881274
0.885294
0.888696
0.888964
0.888201
0.886794
0.885097
0.883841
0.882948
0.881888
0.880527
0.878891
0.877104
0.87584
0.875447
0.875348
0.874976
0.874324
0.873478
0.872385
0.871031
0.869678
0.868565
0.867397
0.866437
0.866261
0.866338
0.866829
0.867957
0.869401
0.869541
0.868593
0.866831
0.865668
0.864928
0.86465
0.865259
0.866527
0.867367
0.867712
0.86759
0.867017
0.865792
0.864238
0.86306
0.862291
0.861739
0.86181
0.863383
0.864322
0.864266
0.864165
0.86402
0.86347
0.8622
0.861144
0.861073
0.86126
0.861734
0.862193
0.862948
0.864379
0.865095
0.864914
0.864285
0.863393
0.862879
0.862487
0.861786
0.860479
0.85899
0.858441
0.858471
0.858996
0.859743
0.860156
0.860747
0.862426
0.863451
0.863116
0.862497
0.861729
0.860588
0.858536
0.85533
0.851971
0.849664
0.848281
0.847396
0.847006
0.847118
0.847534
0.847433
0.846925
0.846004
0.844736
0.84388
0.843406
0.842974
0.842633
0.842928
0.844104
0.844567
0.84426
0.843534
0.842218
0.840086
0.838184
0.837448
0.837015
0.836721
0.836789
0.837006
0.836798
0.8364
0.835948
0.835327
0.834269
0.832657
0.831008
0.829911
0.829215
0.828647
0.828208
0.827785
0.827238
0.826767
0.826427
0.826108
0.825727
0.825285
0.824964
0.824727
0.824247
0.824209
0.721403
0.736436
0.745842
0.751312
0.755857
0.760035
0.763198
0.765782
0.769185
0.775198
0.784864
0.79297
0.797061
0.800427
0.803966
0.808302
0.814739
0.822309
0.828228
0.832664
0.836189
0.839259
0.842529
0.846224
0.849732
0.852527
0.854356
0.85577
0.857292
0.85943
0.86311
0.868182
0.871746
0.873493
0.874707
0.875625
0.876337
0.877143
0.878212
0.879754
0.882471
0.885926
0.887958
0.8889
0.889841
0.891199
0.893227
0.895388
0.896391
0.896662
0.896805
0.89635
0.895237
0.895294
0.896015
0.897099
0.898971
0.901279
0.902067
0.902284
0.902131
0.902358
0.903254
0.904703
0.906545
0.907408
0.907546
0.90724
0.906167
0.9051
0.904715
0.904699
0.905405
0.907569
0.909319
0.909623
0.909552
0.908965
0.908582
0.908694
0.909135
0.909909
0.910622
0.910725
0.910594
0.910015
0.908959
0.908268
0.908186
0.908158
0.90827
0.90881
0.909088
0.908816
0.908695
0.908814
0.909379
0.910082
0.910029
0.909307
0.907729
0.904928
0.900832
0.897914
0.897119
0.896746
0.896928
0.898314
0.900854
0.904339
0.90692
0.907292
0.907022
0.905827
0.903733
0.901054
0.89822
0.896276
0.895776
0.895692
0.896148
0.89777
0.900907
0.905915
0.911707
0.913942
0.913628
0.912176
0.909873
0.907161
0.904375
0.90221
0.900945
0.900053
0.89916
0.898162
0.897268
0.89698
0.896867
0.896445
0.89559
0.894531
0.89326
0.891491
0.889134
0.886655
0.884686
0.883787
0.88356
0.883519
0.88386
0.885032
0.887196
0.88827
0.888322
0.887811
0.887563
0.887742
0.887953
0.8877
0.887088
0.886241
0.885206
0.883744
0.881811
0.880324
0.879958
0.88028
0.881155
0.882481
0.884493
0.885784
0.885552
0.8848
0.883642
0.881919
0.879609
0.877417
0.876612
0.87658
0.876993
0.878378
0.880731
0.883358
0.885285
0.885851
0.885734
0.885043
0.883556
0.881601
0.879756
0.878042
0.876664
0.875854
0.875361
0.875173
0.875433
0.87611
0.876841
0.877914
0.879707
0.880525
0.880069
0.879167
0.878031
0.876518
0.874414
0.872012
0.869956
0.868579
0.867883
0.867481
0.867103
0.866434
0.865341
0.863804
0.861778
0.859745
0.858577
0.85817
0.858276
0.859196
0.860567
0.861973
0.86279
0.862658
0.862001
0.860617
0.858225
0.855687
0.854537
0.853987
0.853584
0.853436
0.85389
0.854032
0.853535
0.852817
0.851782
0.85011
0.847747
0.845211
0.843082
0.841458
0.840081
0.83894
0.83834
0.837961
0.837476
0.837071
0.836785
0.836464
0.836096
0.835839
0.835685
0.835655
0.835978
0.836821
0.743914
0.755431
0.760616
0.764075
0.766926
0.769328
0.772396
0.77651
0.783782
0.79553
0.805619
0.810431
0.813625
0.816846
0.820531
0.825549
0.833332
0.842551
0.849511
0.854612
0.859403
0.864105
0.867759
0.870396
0.872986
0.875613
0.87748
0.878964
0.880694
0.883207
0.887896
0.894565
0.897623
0.898393
0.898788
0.89875
0.899022
0.899916
0.901414
0.904609
0.910728
0.915914
0.917422
0.91784
0.91782
0.91773
0.917882
0.918773
0.920775
0.922382
0.92301
0.923445
0.923844
0.924535
0.925246
0.925726
0.926271
0.927102
0.927479
0.927698
0.928067
0.929179
0.931037
0.933373
0.935467
0.936319
0.936337
0.935601
0.934175
0.933137
0.933037
0.933734
0.935805
0.938751
0.940035
0.939982
0.939155
0.937448
0.936124
0.935893
0.93614
0.93722
0.938753
0.939449
0.939568
0.939197
0.938046
0.936982
0.936522
0.936275
0.936208
0.936763
0.937189
0.936988
0.936893
0.936981
0.937121
0.937196
0.936658
0.935554
0.934053
0.931807
0.928437
0.925478
0.9245
0.924229
0.924539
0.925698
0.92775
0.930434
0.931865
0.932043
0.931657
0.93033
0.928185
0.925315
0.92282
0.921978
0.921797
0.921819
0.922445
0.924105
0.927095
0.931755
0.935624
0.936181
0.935714
0.934078
0.932151
0.930513
0.928859
0.927239
0.925892
0.924749
0.923632
0.922281
0.920495
0.918954
0.918178
0.91769
0.917233
0.916772
0.916138
0.915039
0.913162
0.910547
0.908121
0.906831
0.90635
0.90612
0.906155
0.90664
0.90782
0.909019
0.909271
0.909146
0.909079
0.909577
0.910357
0.909877
0.909047
0.908144
0.906977
0.905316
0.903149
0.901627
0.901436
0.901725
0.902758
0.904722
0.906692
0.907072
0.906744
0.90611
0.904996
0.903174
0.900975
0.899298
0.898361
0.898035
0.898154
0.89909
0.901309
0.904025
0.905465
0.906001
0.906354
0.906217
0.905406
0.903941
0.902277
0.900882
0.900135
0.899736
0.899302
0.898736
0.898506
0.898759
0.899206
0.899841
0.900746
0.901638
0.901621
0.900903
0.899701
0.897869
0.895562
0.893464
0.891868
0.890566
0.889441
0.888619
0.888009
0.887239
0.885984
0.88401
0.881503
0.879616
0.878728
0.878212
0.878192
0.879293
0.880992
0.881996
0.881998
0.881642
0.880769
0.878802
0.875838
0.873721
0.872905
0.872344
0.871988
0.871958
0.872575
0.873072
0.872907
0.87238
0.87139
0.869702
0.867546
0.86538
0.863191
0.860972
0.858721
0.856474
0.854703
0.853507
0.852808
0.852496
0.852309
0.852117
0.851823
0.851717
0.851647
0.851625
0.851908
0.852802
0.758438
0.763161
0.765767
0.768385
0.770624
0.772314
0.774575
0.782215
0.797322
0.810352
0.816416
0.820351
0.824056
0.828045
0.83298
0.83956
0.849026
0.858888
0.864391
0.8678
0.870868
0.8746
0.878725
0.883304
0.889337
0.893976
0.895829
0.897139
0.898681
0.900424
0.903217
0.90851
0.9128
0.913794
0.914423
0.915456
0.917099
0.919529
0.923392
0.928996
0.934516
0.937055
0.937552
0.937077
0.935744
0.935437
0.936034
0.938131
0.941656
0.944153
0.945073
0.945439
0.945384
0.944588
0.944029
0.944258
0.945277
0.94742
0.949637
0.951402
0.952788
0.953569
0.953934
0.953928
0.954223
0.955191
0.956556
0.957289
0.957766
0.958551
0.959748
0.961055
0.962006
0.962195
0.961855
0.960867
0.959685
0.958908
0.958853
0.959627
0.96142
0.963543
0.964643
0.964545
0.963691
0.961891
0.960032
0.959406
0.959435
0.960134
0.962022
0.964177
0.964724
0.964313
0.962947
0.960829
0.958631
0.957101
0.955974
0.955091
0.954529
0.953658
0.952039
0.950419
0.949631
0.949505
0.949538
0.94968
0.950229
0.950944
0.951406
0.951537
0.951232
0.950134
0.948412
0.946454
0.945542
0.945335
0.945212
0.945096
0.945448
0.946913
0.94968
0.953243
0.955061
0.955185
0.954672
0.952843
0.950883
0.949407
0.947999
0.946607
0.945331
0.944202
0.943241
0.942266
0.94088
0.93905
0.937718
0.936934
0.93628
0.935564
0.934628
0.933436
0.931935
0.930289
0.929043
0.928364
0.927806
0.927313
0.927142
0.927193
0.927524
0.928263
0.928775
0.92886
0.928786
0.928976
0.929483
0.92891
0.92793
0.926835
0.925629
0.924383
0.923255
0.922434
0.922245
0.922535
0.923427
0.924749
0.925275
0.924971
0.92407
0.922642
0.920982
0.919439
0.918524
0.91827
0.918196
0.918417
0.919131
0.920313
0.921932
0.923446
0.924106
0.924325
0.924563
0.924575
0.923937
0.922844
0.921746
0.921107
0.920859
0.92072
0.920599
0.92038
0.920238
0.920493
0.920955
0.921203
0.921197
0.921385
0.921441
0.920605
0.919175
0.917563
0.916102
0.915093
0.914245
0.913239
0.911903
0.910202
0.908424
0.906696
0.904736
0.902435
0.900598
0.899668
0.899186
0.899108
0.899743
0.901149
0.902237
0.902249
0.90169
0.900504
0.89857
0.896028
0.893628
0.89228
0.891506
0.890961
0.890707
0.890724
0.891053
0.891525
0.891583
0.891112
0.889841
0.887987
0.886205
0.884652
0.883053
0.881254
0.879088
0.876518
0.874003
0.872117
0.871247
0.870957
0.870816
0.870693
0.870406
0.870296
0.870356
0.870616
0.871187
0.872241
0.763588
0.766582
0.767503
0.766264
0.767349
0.771516
0.779486
0.794562
0.81022
0.817205
0.821186
0.82487
0.828692
0.83297
0.839017
0.848433
0.85901
0.86684
0.870295
0.87271
0.874935
0.877304
0.882154
0.891936
0.901494
0.904954
0.906709
0.907931
0.908825
0.910194
0.912948
0.919063
0.92518
0.928152
0.929918
0.93161
0.933573
0.935885
0.938633
0.941414
0.943087
0.944603
0.946352
0.947456
0.948328
0.949876
0.952702
0.956236
0.958099
0.958398
0.958355
0.957553
0.956464
0.956096
0.956626
0.958616
0.962513
0.966448
0.968258
0.968635
0.96819
0.966528
0.9653
0.965305
0.966178
0.968525
0.972346
0.975767
0.977776
0.97862
0.978743
0.978448
0.977453
0.976394
0.975835
0.975808
0.976332
0.977525
0.978761
0.979685
0.980257
0.980177
0.979315
0.977887
0.976594
0.975863
0.97578
0.976506
0.978563
0.981623
0.983597
0.983311
0.981994
0.979197
0.975401
0.972332
0.970666
0.969967
0.969782
0.970691
0.971878
0.971935
0.971361
0.970349
0.968993
0.967406
0.96639
0.966075
0.96601
0.966205
0.96675
0.967232
0.967289
0.96688
0.965814
0.964446
0.963179
0.962239
0.961596
0.961403
0.961988
0.963887
0.96674
0.968877
0.969058
0.968426
0.966775
0.964373
0.962453
0.961399
0.960708
0.96048
0.960494
0.960169
0.959555
0.958367
0.95601
0.953097
0.951071
0.949796
0.948773
0.948079
0.947664
0.947511
0.947445
0.947198
0.946846
0.946225
0.945096
0.943757
0.942596
0.941775
0.941549
0.941617
0.94183
0.94202
0.942125
0.942467
0.943174
0.942985
0.942259
0.941321
0.940356
0.939717
0.939375
0.938813
0.937811
0.93765
0.937721
0.937646
0.93715
0.93623
0.935228
0.934406
0.933931
0.933928
0.934784
0.935971
0.936676
0.937049
0.937151
0.936789
0.936745
0.93684
0.936803
0.936813
0.937085
0.937556
0.937895
0.938016
0.938103
0.938379
0.938665
0.938775
0.938853
0.938901
0.938825
0.938642
0.938462
0.938138
0.937629
0.937317
0.936982
0.936196
0.935123
0.934416
0.933982
0.933627
0.932954
0.931702
0.929472
0.926389
0.923498
0.921203
0.919259
0.917912
0.917149
0.916892
0.917348
0.918354
0.919203
0.919327
0.918901
0.91787
0.916171
0.914129
0.912088
0.910584
0.909766
0.909301
0.909336
0.909214
0.90882
0.908511
0.908279
0.908127
0.90786
0.907206
0.906151
0.905043
0.904117
0.90321
0.902303
0.901198
0.899478
0.896932
0.893707
0.890584
0.888937
0.888571
0.888439
0.888169
0.887856
0.887793
0.887981
0.888543
0.889464
0.890672
0.761721
0.765084
0.76738
0.769991
0.774168
0.780764
0.793333
0.808952
0.817701
0.820599
0.822768
0.825555
0.828735
0.833344
0.84206
0.854813
0.865551
0.869788
0.871659
0.872797
0.87508
0.880363
0.890482
0.902293
0.907848
0.91023
0.912375
0.914438
0.916228
0.918786
0.924331
0.932729
0.938098
0.940239
0.941677
0.942757
0.943582
0.944383
0.945054
0.945569
0.947026
0.9503
0.954152
0.957224
0.960007
0.962726
0.964851
0.965761
0.965916
0.965329
0.964424
0.964571
0.965278
0.966527
0.968956
0.972454
0.974889
0.975687
0.97622
0.975966
0.973922
0.973235
0.973783
0.975123
0.978058
0.982584
0.986416
0.987868
0.988193
0.988125
0.987123
0.986733
0.986963
0.987665
0.988517
0.989175
0.989477
0.989304
0.988885
0.988086
0.987028
0.986317
0.985961
0.98597
0.986591
0.987935
0.989911
0.992168
0.993617
0.993839
0.993369
0.991178
0.987833
0.98474
0.982423
0.981291
0.980998
0.981671
0.983763
0.985876
0.986186
0.985608
0.98453
0.982969
0.981119
0.979179
0.978015
0.97782
0.977887
0.978022
0.977618
0.976927
0.976591
0.976133
0.975166
0.973787
0.972627
0.972076
0.971866
0.972299
0.973883
0.975588
0.976039
0.975725
0.97492
0.973328
0.971494
0.970312
0.969789
0.969873
0.971179
0.972342
0.97223
0.971401
0.969075
0.965272
0.961262
0.95851
0.957182
0.956546
0.956253
0.956575
0.957846
0.958866
0.958899
0.958252
0.956551
0.954862
0.953407
0.951935
0.950677
0.949835
0.949446
0.949315
0.949286
0.949424
0.949801
0.950551
0.951556
0.952158
0.952212
0.952071
0.951853
0.951502
0.95082
0.949254
0.947216
0.945939
0.945185
0.944453
0.943748
0.943355
0.9433
0.944059
0.945781
0.947782
0.94909
0.949398
0.948801
0.94684
0.944907
0.94346
0.942852
0.942828
0.943148
0.943946
0.945461
0.947568
0.949559
0.951157
0.952433
0.953255
0.953496
0.953357
0.952846
0.952242
0.951604
0.950795
0.949822
0.948842
0.947988
0.947237
0.946646
0.946457
0.946308
0.945922
0.945484
0.9448
0.943492
0.941076
0.937746
0.934656
0.932592
0.931436
0.930753
0.930509
0.931122
0.932345
0.93281
0.93229
0.931297
0.929702
0.927853
0.926228
0.924959
0.924121
0.923595
0.923523
0.924207
0.924884
0.924765
0.924079
0.923055
0.921747
0.920823
0.920397
0.920268
0.920294
0.920445
0.920548
0.920284
0.919476
0.918685
0.917473
0.915444
0.912769
0.909338
0.905352
0.903514
0.903105
0.902896
0.902559
0.902357
0.902428
0.902755
0.903439
0.904322
0.905147
0.756619
0.76101
0.764574
0.767956
0.775546
0.790461
0.807266
0.817522
0.8213
0.82291
0.823201
0.824482
0.827665
0.833405
0.843256
0.855437
0.863137
0.867627
0.872001
0.877144
0.882795
0.89102
0.901159
0.907528
0.91
0.911912
0.914053
0.916851
0.920651
0.927012
0.936114
0.941804
0.943964
0.944933
0.945885
0.946998
0.94767
0.947884
0.948656
0.951043
0.955208
0.960209
0.963966
0.966226
0.967768
0.968744
0.969186
0.969415
0.96958
0.969873
0.97045
0.971685
0.973436
0.975467
0.977415
0.978692
0.979275
0.979343
0.978485
0.978191
0.978878
0.980097
0.982495
0.986512
0.990716
0.992648
0.992923
0.992782
0.991988
0.991783
0.992147
0.993285
0.995403
0.996967
0.997259
0.996753
0.995357
0.993605
0.99191
0.991271
0.991167
0.991377
0.992528
0.994661
0.996951
0.998739
0.999474
0.99943
0.999084
0.997649
0.99596
0.99457
0.992972
0.991428
0.990661
0.990681
0.99165
0.993326
0.994333
0.994077
0.99332
0.992341
0.991028
0.989685
0.988464
0.987259
0.98613
0.98515
0.983931
0.982304
0.981058
0.980104
0.979381
0.97881
0.978623
0.978508
0.978406
0.978621
0.979228
0.979732
0.979622
0.979174
0.978534
0.977634
0.976593
0.975709
0.97516
0.975126
0.976277
0.978347
0.979335
0.97878
0.977282
0.974758
0.971165
0.9666
0.963086
0.961585
0.961037
0.960945
0.961866
0.963916
0.965048
0.96474
0.96346
0.961254
0.958603
0.95646
0.955583
0.955149
0.954757
0.954553
0.95455
0.954559
0.954643
0.954969
0.955711
0.956951
0.958335
0.95928
0.959662
0.959589
0.959083
0.957651
0.955253
0.952737
0.950862
0.949764
0.949087
0.948688
0.948596
0.949162
0.951043
0.953655
0.955459
0.955746
0.955104
0.953519
0.951233
0.948714
0.946591
0.94592
0.94606
0.946571
0.947696
0.950066
0.953595
0.956858
0.95873
0.959341
0.959295
0.958785
0.958209
0.957697
0.957069
0.95631
0.955692
0.955025
0.95411
0.953
0.952028
0.951409
0.951125
0.951159
0.951413
0.951153
0.950617
0.949736
0.948186
0.945773
0.94315
0.941697
0.941146
0.94097
0.941317
0.942104
0.942307
0.94159
0.940358
0.938472
0.936402
0.934831
0.933907
0.933552
0.933582
0.934369
0.935609
0.936675
0.936811
0.936109
0.93514
0.933782
0.932173
0.930933
0.930438
0.930366
0.930642
0.931018
0.930979
0.930299
0.928965
0.927412
0.92607
0.924563
0.922583
0.920427
0.918021
0.915368
0.913902
0.913294
0.913032
0.91288
0.912941
0.913243
0.913571
0.914094
0.91456
0.915135
0.748853
0.753624
0.759117
0.765108
0.778753
0.798681
0.811215
0.816831
0.819382
0.821057
0.82183
0.823366
0.826956
0.833126
0.842364
0.851436
0.857266
0.862909
0.869146
0.877123
0.889501
0.901738
0.90729
0.90952
0.910721
0.911929
0.913871
0.916814
0.922964
0.933252
0.940808
0.944086
0.945116
0.945725
0.945961
0.945845
0.946472
0.948078
0.952534
0.959702
0.965731
0.968817
0.970448
0.971146
0.97139
0.971431
0.971455
0.97176
0.972976
0.974803
0.975959
0.976903
0.978111
0.979504
0.980324
0.980523
0.980706
0.981105
0.981581
0.982422
0.984213
0.987238
0.991592
0.994959
0.996027
0.996297
0.996016
0.995112
0.995085
0.99567
0.997273
0.999457
1.00049
1.00049
1.00013
0.999199
0.997072
0.99518
0.994807
0.995059
0.996172
0.998672
1.0019
1.00392
1.00419
1.00356
1.0026
1.00136
1.00044
0.999953
0.99958
0.999545
0.999747
0.999479
0.998757
0.998113
0.997583
0.99707
0.996654
0.996134
0.995414
0.994593
0.993925
0.993296
0.992596
0.991673
0.990272
0.988304
0.986049
0.983646
0.981419
0.980469
0.980231
0.980554
0.981583
0.982994
0.984014
0.984086
0.983654
0.982631
0.981207
0.980026
0.979267
0.978765
0.978362
0.978345
0.979359
0.9812
0.982587
0.982354
0.981417
0.980161
0.978276
0.974969
0.970254
0.966413
0.96494
0.964528
0.964698
0.965994
0.967879
0.968382
0.967787
0.96656
0.964334
0.961027
0.958417
0.957419
0.957082
0.957181
0.957994
0.958502
0.958795
0.959092
0.959462
0.960059
0.961019
0.962273
0.963203
0.963295
0.962914
0.962206
0.960975
0.95896
0.956249
0.953892
0.952604
0.951949
0.951642
0.951649
0.952713
0.955187
0.957646
0.958452
0.958222
0.957467
0.956023
0.953584
0.950633
0.948386
0.947499
0.94768
0.948427
0.949977
0.952807
0.956701
0.959745
0.960749
0.960971
0.96088
0.960443
0.959682
0.958864
0.958273
0.958003
0.957839
0.957591
0.957198
0.95651
0.955523
0.954653
0.954257
0.954162
0.954407
0.954768
0.954521
0.954014
0.953199
0.951862
0.950421
0.949597
0.949153
0.948803
0.948465
0.947931
0.947078
0.945874
0.944429
0.94264
0.940991
0.93997
0.939594
0.939652
0.940543
0.941914
0.942729
0.942462
0.941751
0.940945
0.940004
0.938982
0.938366
0.938057
0.937859
0.937512
0.937113
0.93642
0.935352
0.934266
0.933111
0.931544
0.930058
0.929085
0.928229
0.927351
0.926379
0.925324
0.924339
0.923037
0.921832
0.921297
0.921032
0.920996
0.920997
0.920999
0.921425
0.922138
0.922985
0.741321
0.745404
0.754089
0.765637
0.780945
0.798155
0.806389
0.809048
0.811733
0.814122
0.815823
0.819039
0.826308
0.835984
0.843403
0.846634
0.849796
0.855012
0.863083
0.87511
0.891678
0.90405
0.907628
0.909268
0.908747
0.908267
0.910334
0.914504
0.923315
0.93507
0.940793
0.941829
0.942255
0.941707
0.940494
0.94098
0.94286
0.948519
0.957725
0.96551
0.969881
0.972245
0.973333
0.973539
0.973261
0.972759
0.972769
0.973914
0.976009
0.977689
0.978388
0.978795
0.979521
0.980936
0.982192
0.9826
0.983193
0.984143
0.985391
0.986981
0.988966
0.991462
0.994339
0.996637
0.997294
0.997239
0.997347
0.997725
0.998577
1.00006
1.00141
1.00196
1.00198
1.00165
1.00045
0.998648
0.997782
0.997795
0.998474
1.00034
1.00356
1.00676
1.00768
1.00734
1.00655
1.00528
1.00333
1.00255
1.0025
1.00324
1.00446
1.00485
1.00445
1.00323
1.00159
1.00012
0.998961
0.997984
0.997036
0.996272
0.995945
0.995874
0.995693
0.995269
0.994691
0.993844
0.992304
0.989582
0.986219
0.983438
0.982003
0.981529
0.98158
0.983116
0.986015
0.987909
0.987901
0.987161
0.985658
0.983431
0.981511
0.980571
0.980171
0.980057
0.980812
0.982578
0.984178
0.98424
0.983545
0.982799
0.981821
0.980093
0.977052
0.972769
0.969162
0.967682
0.967487
0.968167
0.969787
0.970948
0.970749
0.969922
0.968453
0.966092
0.962853
0.960126
0.958955
0.958719
0.95897
0.960479
0.962252
0.962529
0.962626
0.962858
0.963148
0.963407
0.963757
0.964158
0.964169
0.963835
0.963319
0.962443
0.960907
0.958498
0.956028
0.954601
0.954058
0.953768
0.953869
0.955126
0.957454
0.959164
0.959377
0.959077
0.958388
0.957007
0.954802
0.952232
0.949978
0.948956
0.949234
0.950193
0.95188
0.954315
0.957228
0.959504
0.960711
0.961105
0.961046
0.960513
0.959718
0.959098
0.958825
0.958824
0.959082
0.959712
0.959955
0.959895
0.959507
0.958568
0.957731
0.957461
0.957449
0.95784
0.958108
0.95782
0.957353
0.956769
0.956094
0.955318
0.954243
0.952842
0.951411
0.950164
0.949129
0.948074
0.9467
0.945109
0.943952
0.943444
0.94338
0.944017
0.944968
0.945269
0.944827
0.944299
0.943671
0.942877
0.941881
0.941214
0.940988
0.941335
0.942028
0.941964
0.941387
0.939973
0.938243
0.936524
0.934972
0.933757
0.933002
0.932584
0.932315
0.932432
0.933016
0.93346
0.933359
0.932699
0.931488
0.92981
0.928272
0.927484
0.926987
0.926624
0.926651
0.927224
0.928288
0.929563
0.732782
0.738609
0.75103
0.768536
0.782998
0.791782
0.794418
0.795717
0.798381
0.802573
0.807364
0.815312
0.826043
0.83514
0.841144
0.843487
0.845083
0.84933
0.857724
0.871248
0.88854
0.898218
0.900792
0.902785
0.90501
0.908907
0.913423
0.918594
0.92638
0.934531
0.936515
0.937064
0.936968
0.936163
0.935438
0.936585
0.942059
0.95114
0.959471
0.965468
0.969168
0.97107
0.972054
0.972219
0.972099
0.972697
0.97445
0.976541
0.9781
0.978597
0.978729
0.978946
0.979591
0.981215
0.983646
0.984578
0.985068
0.986061
0.987325
0.988772
0.990489
0.992638
0.994782
0.99579
0.996362
0.997513
0.998974
1.00029
1.0012
1.00189
1.00243
1.00256
1.00209
1.00089
1.00005
0.999793
1.00006
1.00129
1.00354
1.00602
1.00763
1.00845
1.00863
1.0082
1.00703
1.00519
1.00455
1.00457
1.00543
1.00651
1.00654
1.00608
1.00519
1.00379
1.00216
1.00043
0.99852
0.997497
0.997075
0.996994
0.997224
0.997367
0.996963
0.996382
0.995759
0.994938
0.993488
0.990577
0.986733
0.984591
0.98405
0.983887
0.984491
0.986788
0.988989
0.989122
0.988617
0.987766
0.986078
0.983778
0.982317
0.981879
0.981818
0.982652
0.984472
0.985455
0.985096
0.984446
0.983663
0.982539
0.980776
0.978011
0.974692
0.97186
0.970573
0.970623
0.971714
0.972937
0.973022
0.972371
0.971254
0.969719
0.967352
0.964289
0.961924
0.960796
0.960607
0.961124
0.962906
0.964454
0.964417
0.963846
0.963475
0.963348
0.963247
0.963346
0.96384
0.963983
0.963693
0.963223
0.962519
0.961397
0.959568
0.957479
0.956017
0.955611
0.955431
0.955813
0.957282
0.959042
0.959587
0.959361
0.959026
0.958376
0.957133
0.955382
0.953634
0.951979
0.951481
0.951936
0.952958
0.954323
0.955461
0.9561
0.956901
0.958352
0.959558
0.959988
0.959863
0.959591
0.959355
0.95934
0.959615
0.960364
0.961832
0.963059
0.963404
0.963406
0.962829
0.961473
0.960517
0.960229
0.960184
0.96029
0.960032
0.959512
0.958981
0.958395