/*--------------------------------*- C++ -*----------------------------------*\
  =========                 |
  \\      /  F ield         | OpenFOAM: The Open Source CFD Toolbox
   \\    /   O peration     | Website:  https://openfoam.org
    \\  /    A nd           | Version:  7
     \\/     M anipulation  |
\*---------------------------------------------------------------------------*/
FoamFile
{
    version     2.0;
    format      ascii;
    class       volScalarField;
    location    "3.7";
    object      p;
}
// * * * * * * * * * * * * * * * * * * * * * * * * * * * * * * * * * * * * * //

dimensions      [1 -1 -2 0 0 0 0];

internalField   nonuniform List<scalar> 
4128
(
1.16557
1.16733
1.17836
1.19496
1.21571
1.24652
1.28639
1.3202
1.33608
1.34319
1.34861
1.35318
1.35648
1.36053
1.36986
1.38915
1.40781
1.41131
1.40739
1.39599
1.38255
1.3779
1.37883
1.38716
1.39625
1.39487
1.38777
1.37676
1.36989
1.36602
1.3639
1.36128
1.35649
1.3509
1.34467
1.34123
1.33991
1.34257
1.34403
1.33956
1.33243
1.3219
1.31255
1.30812
1.30482
1.3029
1.30208
1.30004
1.2972
1.29396
1.28886
1.2839
3.00165
4.49415
4.63559
4.72577
4.7936
4.82986
4.84339
4.85841
4.87397
4.89688
4.91445
4.9175
4.90949
4.89155
4.86523
4.84027
4.82379
4.81637
4.81207
4.80369
4.79054
4.77555
4.76217
4.75098
4.73962
4.72465
4.70416
4.67954
4.65416
4.63084
4.60977
4.58856
4.56426
4.53559
4.50472
4.47584
4.45241
4.43606
4.42627
4.41688
4.40212
4.3722
4.32446
4.2722
4.22829
4.20404
4.2056
4.2171
4.20957
4.16948
4.11372
4.05413
4.0055
3.97372
3.95777
3.96306
3.99346
4.03608
4.06459
4.05461
4.01004
3.91844
3.77279
3.64715
3.58184
3.5586
3.56344
3.61281
3.69701
3.76701
3.78465
3.75883
3.70406
3.58435
3.46416
3.41626
3.43144
1.1304
1.13513
1.14654
1.16448
1.1966
1.25388
1.30553
1.3188
1.32011
1.31916
1.3259
1.33882
1.35645
1.36943
1.37785
1.38116
1.38084
1.38283
1.38955
1.39325
1.39382
1.39209
1.38748
1.38203
1.37922
1.37964
1.3782
1.3746
1.37107
1.36813
1.36598
1.3633
1.35948
1.3553
1.35026
1.3437
1.33847
1.33558
1.3347
1.33369
1.33001
1.32543
1.31856
1.31077
1.30573
1.30254
1.30091
1.30049
1.29866
1.29585
1.29265
1.28624
2.90127
4.49146
4.6714
4.74791
4.81544
4.85634
4.86531
4.87663
4.88506
4.8956
4.90132
4.90129
4.89494
4.8839
4.86588
4.84478
4.82638
4.81191
4.79938
4.78682
4.77392
4.7615
4.75087
4.74163
4.73144
4.71723
4.69736
4.67424
4.65209
4.63364
4.61876
4.60482
4.58856
4.56687
4.53614
4.49663
4.4548
4.41845
4.38953
4.36737
4.34485
4.32429
4.30649
4.28553
4.25743
4.22813
4.20452
4.18409
4.16707
4.15672
4.14745
4.12246
4.07924
4.02701
3.98486
3.96213
3.95254
3.95177
3.94955
3.94427
3.92576
3.88842
3.85089
3.79404
3.71446
3.6436
3.61549
3.6218
3.6375
3.64637
3.6534
3.65441
3.63069
3.60111
3.57311
3.52594
3.50486
1.13091
1.15936
1.16795
1.17562
1.1997
1.25111
1.30371
1.31918
1.326
1.32179
1.31283
1.31917
1.33638
1.36959
1.39761
1.40181
1.39717
1.38072
1.37412
1.37718
1.38624
1.40034
1.4043
1.40019
1.38683
1.37189
1.36801
1.36779
1.37025
1.3702
1.36738
1.36302
1.35728
1.35196
1.34854
1.34631
1.34303
1.3367
1.32933
1.32519
1.32367
1.32284
1.32058
1.31728
1.31192
1.30456
1.29893
1.29615
1.2943
1.29275
1.29128
1.28669
2.6766
4.5034
4.71926
4.78249
4.83002
4.85274
4.86847
4.88917
4.89831
4.89973
4.89421
4.88243
4.8707
4.86275
4.85472
4.84433
4.8326
4.81936
4.80367
4.78636
4.76966
4.7562
4.7469
4.74
4.7317
4.71805
4.69667
4.66892
4.64116
4.61869
4.60291
4.5921
4.5835
4.57494
4.56424
4.54722
4.51643
4.46805
4.40607
4.3422
4.29493
4.26777
4.26247
4.26678
4.27159
4.26198
4.22665
4.18207
4.14484
4.1286
4.13593
4.14575
4.14496
4.1231
4.07672
4.00503
3.92726
3.87374
3.84151
3.82079
3.81797
3.84337
3.87298
3.88044
3.86428
3.81701
3.73009
3.63435
3.57326
3.53837
3.51564
3.51238
3.53962
3.59024
3.62238
3.63624
3.61608
1.04056
1.10684
1.14189
1.16819
1.19865
1.23472
1.27998
1.30764
1.31649
1.31664
1.30692
1.30752
1.32194
1.3522
1.37733
1.3839
1.38612
1.37806
1.36623
1.36557
1.37319
1.38987
1.39732
1.39691
1.39006
1.37609
1.36907
1.36854
1.36974
1.36975
1.36764
1.36422
1.35923
1.3534
1.34786
1.34352
1.33949
1.33419
1.32831
1.32419
1.32211
1.32093
1.31988
1.31809
1.31388
1.30735
1.3012
1.29718
1.29558
1.29469
1.29381
1.28968
2.38367
4.49108
4.81501
4.83836
4.87168
4.88389
4.90156
4.9193
4.92178
4.91687
4.90796
4.89344
4.87995
4.87056
4.86232
4.85371
4.84253
4.82886
4.81076
4.7888
4.76527
4.74373
4.72791
4.71919
4.7145
4.70922
4.69892
4.67795
4.64743
4.61551
4.58712
4.56436
4.5482
4.53803
4.53306
4.53113
4.52485
4.49853
4.4517
4.3859
4.3121
4.25906
4.231
4.22438
4.23378
4.24311
4.23085
4.19434
4.15415
4.1268
4.11774
4.12639
4.1443
4.15131
4.12613
4.07117
3.9769
3.86224
3.78399
3.75336
3.74971
3.78352
3.84652
3.90093
3.91796
3.89413
3.83367
3.71238
3.5726
3.48501
3.45551
3.44718
3.47604
3.55642
3.64418
3.68271
3.67048
0.939364
1.01442
1.06633
1.10714
1.14099
1.17616
1.22053
1.25832
1.28479
1.30968
1.31878
1.32374
1.33626
1.35445
1.36646
1.37024
1.37061
1.36736
1.36544
1.36991
1.3798
1.38711
1.38756
1.3847
1.37856
1.3714
1.36501
1.36263
1.36252
1.36267
1.36391
1.36507
1.36432
1.3613
1.35396
1.3432
1.33447
1.32925
1.32665
1.32553
1.32509
1.3242
1.32214
1.31816
1.31286
1.30835
1.30495
1.30182
1.2985
1.295
1.29167
1.28643
2.05582
4.44408
4.95675
4.908
4.91768
4.9168
4.92735
4.93959
4.93476
4.92683
4.91601
4.90137
4.88866
4.88218
4.87465
4.86756
4.85789
4.84391
4.82168
4.79668
4.77139
4.74754
4.72759
4.71242
4.70174
4.69485
4.68956
4.68089
4.66126
4.63085
4.59592
4.56098
4.53001
4.50545
4.48823
4.47742
4.47222
4.4691
4.45485
4.4205
4.36831
4.30124
4.24511
4.21228
4.19352
4.1905
4.19723
4.19619
4.17518
4.15141
4.13223
4.11816
4.10934
4.10458
4.09556
4.06923
4.02372
3.94377
3.84287
3.77393
3.75123
3.76575
3.80365
3.83891
3.85734
3.85032
3.81933
3.75593
3.6527
3.54232
3.47504
3.45335
3.47475
3.53981
3.60709
3.64196
3.63481
0.899815
0.940964
0.987058
1.02818
1.06761
1.10718
1.15318
1.20111
1.23528
1.2683
1.29448
1.30838
1.3198
1.33124
1.33769
1.34361
1.35075
1.36138
1.37386
1.37815
1.37661
1.37308
1.37395
1.37614
1.37823
1.37746
1.37294
1.36672
1.36517
1.36549
1.3667
1.36598
1.36372
1.35768
1.3461
1.33534
1.33145
1.33048
1.33036
1.32924
1.32681
1.32185
1.3156
1.3128
1.31243
1.31294
1.31185
1.30808
1.30111
1.29368
1.28933
1.28727
1.75821
4.33325
5.1111
4.99868
4.97353
4.9648
4.97376
4.97873
4.96646
4.95003
4.93255
4.91654
4.90857
4.90453
4.89762
4.88735
4.87256
4.85313
4.83119
4.8099
4.78791
4.76348
4.73596
4.70645
4.68067
4.66559
4.66107
4.66159
4.65882
4.64538
4.61886
4.58074
4.53475
4.49217
4.46043
4.43876
4.42837
4.42761
4.43167
4.42917
4.40514
4.3634
4.30241
4.24043
4.20164
4.18176
4.18371
4.20173
4.19959
4.16726
4.12594
4.08014
4.0457
4.02378
4.01717
4.02468
4.02901
4.00872
3.96522
3.89164
3.81418
3.77006
3.74802
3.73618
3.73318
3.74631
3.74835
3.73007
3.70181
3.65856
3.60454
3.56031
3.53873
3.53058
3.53582
3.55142
3.54444
0.915769
0.927861
0.952869
0.968536
0.98524
1.01053
1.05126
1.10608
1.15464
1.205
1.25655
1.28876
1.30836
1.31567
1.31689
1.32256
1.33219
1.34713
1.36285
1.36718
1.36632
1.36272
1.36368
1.36634
1.36992
1.37159
1.37065
1.36647
1.36423
1.36316
1.36173
1.35976
1.35646
1.35012
1.34141
1.33743
1.3361
1.3354
1.33405
1.33135
1.32549
1.31827
1.31516
1.3147
1.31515
1.31412
1.31124
1.30502
1.29877
1.29622
1.29526
1.293
1.57316
4.18665
5.19246
5.06944
5.03133
5.01542
5.00159
4.98915
4.97863
4.96789
4.9546
4.94415
4.93663
4.92181
4.90236
4.88339
4.8656
4.851
4.84109
4.82902
4.807
4.78004
4.75135
4.72047
4.692
4.67471
4.67132
4.67416
4.6733
4.66336
4.64323
4.61205
4.57031
4.5158
4.46315
4.42608
4.40069
4.38978
4.39293
4.40513
4.40951
4.3973
4.36518
4.31146
4.25073
4.20992
4.18377
4.17678
4.17958
4.15358
4.10765
4.0495
4.00111
3.97139
3.95862
3.97673
4.01532
4.04626
4.04351
4.00574
3.92276
3.80419
3.70787
3.66038
3.63841
3.62791
3.64044
3.67969
3.71471
3.72556
3.71368
3.67779
3.61196
3.5379
3.48887
3.4601
3.45677
0.997316
0.970823
0.967204
0.963526
0.954016
0.953206
0.965373
1.00239
1.06157
1.11929
1.17555
1.23262
1.28125
1.29687
1.29408
1.29509
1.30567
1.3218
1.34544
1.35641
1.35784
1.35308
1.35285
1.35595
1.36075
1.36474
1.36524
1.36341
1.35976
1.35645
1.3536
1.35066
1.34696
1.34467
1.34453
1.34333
1.3405
1.33671
1.33279
1.32943
1.3265
1.32369
1.32159
1.31902
1.31514
1.31034
1.30626
1.30542
1.30436
1.30297
1.3008
1.29502
1.45575
4.05357
5.22755
5.1386
5.08743
5.06607
5.03961
5.0192
5.00618
4.99207
4.97822
4.96911
4.95753
4.93316
4.90632
4.88344
4.86338
4.84997
4.84308
4.82925
4.80651
4.78309
4.76157
4.73915
4.71371
4.68964
4.67416
4.6637
4.65377
4.63974
4.623
4.60778
4.58723
4.55049
4.49479
4.43032
4.38452
4.35583
4.34288
4.34965
4.37691
4.39445
4.38748
4.35866
4.30838
4.24136
4.19056
4.15638
4.13979
4.1387
4.10907
4.06128
4.00593
3.96686
3.94641
3.94863
3.97107
4.00983
4.03498
4.02213
3.97162
3.87869
3.75466
3.6511
3.59526
3.57223
3.58713
3.6393
3.7014
3.74036
3.73735
3.70528
3.64776
3.56739
3.49334
3.44681
3.4354
1.1299
1.07379
1.02431
0.993887
0.961175
0.953333
0.956022
0.969312
1.00019
1.0419
1.08038
1.12325
1.17116
1.21447
1.25148
1.27426
1.29411
1.31186
1.32689
1.33791
1.34225
1.34263
1.34417
1.3477
1.35205
1.35733
1.36002
1.36023
1.35826
1.35417
1.34954
1.3452
1.34231
1.34117
1.34131
1.34168
1.3397
1.33622
1.33079
1.32652
1.32501
1.32444
1.32353
1.32138
1.31744
1.31087
1.30577
1.30401
1.30297
1.30164
1.29948
1.29351
1.39402
3.94416
5.22227
5.1819
5.142
5.11777
5.08068
5.04798
5.02676
5.00897
4.99783
4.98922
4.97655
4.94897
4.92056
4.89509
4.87185
4.8545
4.8428
4.82384
4.79769
4.77331
4.75352
4.73953
4.73016
4.70768
4.67675
4.65018
4.62423
4.60171
4.58713
4.57647
4.56596
4.5579
4.53119
4.48127
4.41
4.35321
4.32357
4.31565
4.32111
4.33812
4.35512
4.35041
4.31855
4.26778
4.20649
4.16203
4.13064
4.12981
4.13918
4.11342
4.06614
4.00944
3.96148
3.92954
3.91561
3.922
3.94249
3.95748
3.94301
3.90269
3.83712
3.74535
3.66522
3.62214
3.61049
3.62611
3.651
3.66803
3.66773
3.64415
3.60552
3.55647
3.50714
3.47433
3.46982
1.24209
1.19601
1.13545
1.0813
1.02044
0.976189
0.969498
0.974324
0.985751
0.992378
1.00304
1.02068
1.05447
1.1006
1.15297
1.21222
1.28075
1.31258
1.31479
1.31258
1.31514
1.31603
1.32101
1.33359
1.34534
1.35256
1.3549
1.3544
1.35148
1.34666
1.34214
1.33995
1.339
1.33941
1.34252
1.34251
1.34029
1.33596
1.32937
1.32544
1.32372
1.32224
1.32198
1.32122
1.31885
1.31474
1.3094
1.3056
1.30333
1.30117
1.29853
1.29246
1.37699
3.89103
5.20302
5.21389
5.18077
5.15386
5.11453
5.08005
5.0524
5.02814
5.0129
5.00346
4.98935
4.96288
4.93834
4.9123
4.88708
4.86486
4.83954
4.80817
4.7764
4.75138
4.734
4.72477
4.72289
4.72328
4.69149
4.63914
4.59257
4.5608
4.53919
4.52682
4.52431
4.52675
4.53029
4.52159
4.48306
4.41773
4.34895
4.3073
4.28834
4.28633
4.28757
4.29322
4.28747
4.25774
4.21391
4.1709
4.13815
4.12978
4.15042
4.16531
4.13731
4.08444
4.01057
3.93049
3.87456
3.84028
3.8325
3.84617
3.87777
3.89021
3.86874
3.83073
3.78162
3.73019
3.68323
3.63986
3.59908
3.56907
3.55881
3.55983
3.55127
3.53351
3.51348
3.50352
3.50855
1.34295
1.26924
1.22244
1.17974
1.1266
1.07311
1.02551
1.00316
0.991862
0.980046
0.980415
0.986962
0.997652
1.02109
1.06139
1.11505
1.18476
1.25654
1.28013
1.28628
1.29054
1.29118
1.29883
1.31809
1.33787
1.34823
1.35072
1.34933
1.34263
1.33458
1.33143
1.33043
1.33088
1.33619
1.3421
1.34287
1.34124
1.33579
1.32865
1.32504
1.323
1.32181
1.32182
1.32131
1.3191
1.31571
1.31095
1.30687
1.30386
1.30095
1.29761
1.29203
1.37617
3.86796
5.17409
5.21746
5.198
5.17255
5.13824
5.10754
5.0773
5.04771
5.02569
5.00921
4.99018
4.96826
4.94951
4.92924
4.90591
4.87858
4.84035
4.79956
4.75953
4.72837
4.70609
4.69417
4.6982
4.70802
4.70299
4.6646
4.60878
4.5551
4.51643
4.4915
4.47683
4.47096
4.48154
4.50089
4.51816
4.50192
4.44799
4.37355
4.30618
4.26085
4.22995
4.2138
4.21001
4.21124
4.19549
4.16331
4.13391
4.11784
4.12867
4.15719
4.16459
4.12542
4.0652
3.98204
3.88978
3.81635
3.77061
3.75742
3.78763
3.83399
3.86094
3.86051
3.83733
3.79865
3.74427
3.67708
3.61264
3.56153
3.52437
3.51732
3.52266
3.52238
3.51817
3.51695
3.50758
1.47074
1.3912
1.30858
1.25098
1.20843
1.16694
1.12038
1.07517
1.03258
0.998395
0.980685
0.982184
0.989115
0.991968
1.00018
1.02615
1.06904
1.12592
1.1787
1.21862
1.26383
1.27826
1.28896
1.30837
1.32571
1.33642
1.33905
1.33784
1.33109
1.32569
1.32483
1.32496
1.32975
1.33879
1.34209
1.34164
1.33842
1.33099
1.32624
1.32505
1.32526
1.3264
1.3256
1.32271
1.31822
1.31307
1.3096
1.30715
1.3048
1.30224
1.29916
1.29398
1.382
3.86689
5.15326
5.20245
5.19712
5.18408
5.16103
5.13597
5.10481
5.07334
5.0477
5.02371
4.99796
4.97478
4.95683
4.94183
4.9267
4.90246
4.86123
4.81342
4.76513
4.72043
4.68754
4.67048
4.66625
4.6727
4.68218
4.6847
4.65773
4.6085
4.5499
4.4955
4.44911
4.41673
4.40586
4.42145
4.4594
4.50021
4.50708
4.46862
4.40037
4.32627
4.26455
4.20899
4.17338
4.16951
4.17086
4.15026
4.12188
4.09827
4.08721
4.09928
4.12248
4.12017
4.07747
4.0196
3.94392
3.86236
3.79911
3.76094
3.74995
3.77671
3.81905
3.8368
3.8202
3.78477
3.74056
3.68527
3.63181
3.58661
3.55232
3.53542
3.53061
3.52232
3.50949
3.49111
3.46206
1.56021
1.4918
1.41936
1.35859
1.29572
1.22338
1.17895
1.15067
1.11019
1.06225
1.01639
0.996149
0.994717
0.991437
0.990508
0.994523
1.00159
1.02086
1.06213
1.11421
1.17494
1.23771
1.27066
1.29576
1.30766
1.31633
1.32262
1.32165
1.31618
1.31478
1.31653
1.32085
1.33029
1.3387
1.33937
1.33745
1.33183
1.32718
1.32572
1.32509
1.32672
1.32851
1.32665
1.32243
1.31703
1.3127
1.31003
1.30808
1.306
1.3037
1.30086
1.29574
1.38291
3.86489
5.15609
5.20629
5.20945
5.20583
5.18959
5.16484
5.12994
5.09511
5.06299
5.03004
4.99752
4.96912
4.94876
4.93795
4.93133
4.91371
4.88404
4.84979
4.81366
4.77257
4.72705
4.68249
4.64421
4.62088
4.62464
4.64635
4.66585
4.66356
4.63312
4.58296
4.52108
4.45336
4.3937
4.35628
4.36078
4.40513
4.45482
4.46536
4.43196
4.3829
4.32862
4.27366
4.22448
4.1917
4.17649
4.14952
4.11162
4.07745
4.04975
4.03443
4.04407
4.06598
4.06316
4.02229
3.97048
3.9065
3.83961
3.78878
3.75813
3.74899
3.76708
3.78932
3.77841
3.74718
3.71258
3.6768
3.6434
3.61495
3.59059
3.57199
3.55305
3.52075
3.4849
3.44615
3.4068
1.65475
1.5626
1.50409
1.45535
1.39338
1.32347
1.25159
1.20508
1.16975
1.13161
1.09196
1.05194
1.02627
1.00099
0.987483
0.988543
0.994495
0.995517
1.00158
1.02648
1.06844
1.13518
1.18928
1.24271
1.2722
1.2823
1.29449
1.30007
1.30169
1.30661
1.31129
1.31771
1.32839
1.33237
1.33241
1.32914
1.32433
1.32288
1.32269
1.32414
1.32769
1.3277
1.3253
1.32032
1.31465
1.31147
1.30966
1.30812
1.30642
1.30442
1.30196
1.29781
1.37774
3.85923
5.1851
5.23939
5.23997
5.23757
5.21902
5.18678
5.14971
5.11696
5.08586
5.05498
5.02397
4.99281
4.962
4.93606
4.9131
4.88857
4.86594
4.84668
4.82946
4.81022
4.7812
4.73452
4.67395
4.61509
4.57492
4.56956
4.5907
4.61502
4.62183
4.60767
4.577
4.53098
4.47174
4.41135
4.36875
4.35443
4.36845
4.38065
4.37257
4.34419
4.30782
4.27359
4.24472
4.22011
4.20317
4.16813
4.11462
4.06263
4.02181
3.99087
3.97657
3.99156
4.0208
4.02799
3.99633
3.95159
3.89201
3.82361
3.77253
3.741
3.72773
3.73807
3.74221
3.72248
3.69813
3.67379
3.65072
3.62927
3.60942
3.58533
3.5527
3.51494
3.46972
3.41682
3.36743
1.75256
1.65555
1.58975
1.53222
1.46837
1.40586
1.33982
1.28953
1.24023
1.18838
1.14782
1.12076
1.09097
1.05156
1.01151
0.992709
0.991335
0.994936
0.997105
0.996793
1.0046
1.03266
1.07606
1.12648
1.1903
1.23033
1.26691
1.28734
1.28811
1.29539
1.3027
1.31108
1.32056
1.32339
1.32369
1.32171
1.31941
1.31919
1.32011
1.32445
1.32641
1.32595
1.32292
1.31798
1.31535
1.31348
1.31114
1.3085
1.30583
1.30279
1.29925
1.29734
1.35746
3.82641
5.23098
5.30168
5.29981
5.28681
5.25231
5.21029
5.16225
5.1214
5.08926
5.06339
5.03843
5.00826
4.96954
4.92448
4.87855
4.83752
4.80862
4.7948
4.79124
4.78986
4.78273
4.76359
4.72752
4.67199
4.6127
4.57124
4.54918
4.54546
4.54827
4.54572
4.53325
4.51304
4.48931
4.45538
4.41448
4.3782
4.35458
4.33871
4.32177
4.29812
4.26897
4.2434
4.22804
4.22272
4.22261
4.19162
4.13603
4.06993
4.00464
3.96054
3.93038
3.92164
3.94706
3.98633
3.99825
3.97329
3.93381
3.87632
3.80476
3.75161
3.72079
3.70809
3.71226
3.70037
3.67844
3.65631
3.63337
3.61018
3.5874
3.56374
3.53697
3.5082
3.4746
3.43288
3.37444
1.83918
1.74748
1.686
1.61889
1.54619
1.46798
1.40768
1.36887
1.32067
1.27057
1.21345
1.17679
1.14851
1.1102
1.06668
1.02772
1.01109
1.00372
0.99433
0.991412
0.998268
0.99708
1.00101
1.01839
1.06651
1.12749
1.18648
1.24097
1.26023
1.2813
1.29807
1.30316
1.30831
1.31039
1.3098
1.31007
1.31239
1.31628
1.32241
1.32557
1.32493
1.32156
1.31636
1.31445
1.31424
1.31514
1.31439
1.31193
1.30733
1.30076
1.29585
1.29412
1.32071
3.75706
5.31073
5.39065
5.37173
5.34035
5.28139
5.22398
5.16474
5.12005
5.08926
5.07003
5.05712
5.0389
5.00506
4.95252
4.8909
4.83354
4.78619
4.75505
4.73992
4.73565
4.73362
4.72612
4.71239
4.68887
4.6538
4.61374
4.57903
4.55156
4.53186
4.51575
4.49979
4.48144
4.46235
4.44458
4.4173
4.38511
4.35509
4.32574
4.29922
4.27303
4.24489
4.21867
4.20396
4.20703
4.22149
4.20732
4.16224
4.10593
4.03278
3.95948
3.91482
3.88942
3.88682
3.91622
3.9539
3.96105
3.93754
3.90266
3.8491
3.78238
3.73553
3.70912
3.69624
3.67624
3.65071
3.62454
3.59589
3.5713
3.55011
3.53093
3.51653
3.50376
3.48549
3.46445
3.41537
1.92516
1.83283
1.77145
1.69995
1.6237
1.53722
1.4754
1.43711
1.39157
1.34608
1.2926
1.24782
1.20778
1.16008
1.11564
1.07644
1.06317
1.04657
1.02154
1.00232
0.993892
0.990445
0.988374
0.983217
0.992045
1.02518
1.07409
1.1449
1.19667
1.2339
1.26562
1.27817
1.29282
1.29593
1.29527
1.29774
1.30487
1.31449
1.32055
1.32107
1.31867
1.31317
1.30988
1.31059
1.31259
1.31588
1.31582
1.31426
1.31018
1.30349
1.29897
1.29555
1.29208
3.66147
5.42098
5.48668
5.43733
5.39431
5.3221
5.25265
5.18213
5.12798
5.08938
5.06526
5.05189
5.04122
5.02016
4.97634
4.91835
4.85828
4.80378
4.75784
4.72358
4.70304
4.69419
4.6871
4.67637
4.66272
4.6397
4.60972
4.58053
4.55473
4.53136
4.51269
4.4957
4.47539
4.45203
4.43268
4.4118
4.38009
4.34786
4.31461
4.28134
4.24892
4.21852
4.19398
4.17903
4.17764
4.18524
4.18778
4.16532
4.12634
4.07209
3.99748
3.9224
3.87757
3.85466
3.85291
3.87691
3.90465
3.90938
3.88992
3.86009
3.81402
3.75925
3.72289
3.69242
3.66099
3.63173
3.60121
3.56803
3.54289
3.52496
3.51065
3.50304
3.49995
3.49282
3.48051
3.44289
2.01061
1.91765
1.85033
1.77333
1.69359
1.60478
1.55215
1.51482
1.46584
1.41534
1.35828
1.31481
1.27107
1.22178
1.17315
1.13268
1.11849
1.09966
1.07121
1.04203
1.00771
0.99347
0.982459
0.97658
0.980066
0.99376
1.0091
1.04313
1.09298
1.14488
1.20167
1.23228
1.25585
1.26874
1.27718
1.29042
1.30661
1.31436
1.3164
1.31538
1.311
1.30614
1.30637
1.30868
1.31184
1.31444
1.31342
1.3111
1.30793
1.30424
1.30034
1.29439
1.28863
3.50487
5.54716
5.60718
5.51515
5.4627
5.38371
5.297
5.21284
5.14398
5.0904
5.05412
5.03044
5.01816
5.0086
4.98262
4.93693
4.88305
4.82934
4.77801
4.72995
4.69245
4.67166
4.66191
4.65319
4.64228
4.62183
4.59195
4.56043
4.53274
4.50937
4.4939
4.48412
4.46802
4.44466
4.42301
4.40237
4.37297
4.34327
4.31523
4.28616
4.25245
4.21491
4.18081
4.1554
4.138
4.12713
4.1247
4.12726
4.11469
4.08238
4.03522
3.96759
3.89343
3.84183
3.81604
3.80608
3.81949
3.84399
3.85241
3.8368
3.81212
3.78136
3.74561
3.70436
3.66346
3.6277
3.59447
3.56111
3.53196
3.51221
3.49817
3.48902
3.4834
3.47644
3.46734
3.43478
2.09479
2.00123
1.92858
1.84808
1.76377
1.67424
1.63025
1.59317
1.54115
1.48589
1.41997
1.37128
1.32758
1.28343
1.23795
1.19821
1.1803
1.1572
1.1231
1.08496
1.04234
1.02216
1.00409
0.985282
0.980593
0.984196
0.998252
1.00102
1.01024
1.03582
1.08694
1.14133
1.18546
1.22138
1.24102
1.26931
1.2975
1.3059
1.3109
1.3112
1.30713
1.30204
1.30226
1.30405
1.30556
1.3073
1.30785
1.30817
1.30818
1.30698
1.30191
1.29296
1.29836
3.2477
5.72291
5.78401
5.61759
5.54474
5.44964
5.34303
5.24666
5.16368
5.09781
5.04758
5.00613
4.98068
4.9674
4.95413
4.92397
4.87964
4.8286
4.77672
4.72777
4.68673
4.66009
4.64702
4.63907
4.63015
4.60953
4.57673
4.54339
4.51442
4.48867
4.47325
4.4729
4.46499
4.4387
4.409
4.38134
4.3526
4.32648
4.3096
4.29868
4.27233
4.23362
4.18547
4.13121
4.09084
4.06485
4.04651
4.04559
4.06075
4.06331
4.03923
4.00334
3.94849
3.87653
3.80961
3.77389
3.75764
3.76062
3.78378
3.79738
3.79271
3.77795
3.75515
3.72328
3.68223
3.6378
3.59867
3.56479
3.53178
3.50085
3.47861
3.46268
3.4491
3.43658
3.4278
3.40128
2.1766
2.08042
2.00464
1.92336
1.83698
1.74869
1.70787
1.66876
1.61339
1.55212
1.47848
1.42871
1.38762
1.34593
1.302
1.26518
1.24678
1.218
1.17681
1.12677
1.0786
1.06151
1.04479
1.02221
1.00045
0.993745
0.994852
0.993714
0.996333
0.994556
1.00254
1.03215
1.07485
1.13506
1.17978
1.22272
1.2626
1.27664
1.29339
1.30088
1.30084
1.29891
1.29648
1.29648
1.29645
1.29777
1.30176
1.30819
1.30984
1.30709
1.30008
1.29888
1.34559
2.90664
5.92165
6.07849
5.72964
5.57801
5.46767
5.37192
5.2936
5.20646
5.12364
5.05223
4.99423
4.95622
4.93393
4.92616
4.90839
4.86801
4.82052
4.77111
4.72489
4.68636
4.65688
4.64047
4.63562
4.62791
4.59964
4.55994
4.52208
4.48784
4.45783
4.44208
4.4522
4.45704
4.42768
4.38845
4.35136
4.32205
4.29822
4.28879
4.29694
4.28035
4.24549
4.19932
4.13297
4.05704
4.00634
3.98043
3.96584
3.97605
4.00554
4.01989
4.00625
3.97846
3.93354
3.86407
3.78535
3.73633
3.71733
3.71425
3.73696
3.7602
3.75742
3.74021
3.71896
3.68886
3.64477
3.59914
3.56316
3.53098
3.49657
3.4593
3.42987
3.41157
3.39549
3.38284
3.36212
2.25891
2.15957
2.08059
2.00121
1.91572
1.83068
1.78917
1.74417
1.6829
1.6131
1.53303
1.48893
1.45215
1.41189
1.367
1.3297
1.30839
1.27423
1.23002
1.17787
1.12852
1.11114
1.09392
1.07015
1.04097
1.02444
1.01262
1.00028
0.991346
0.987127
0.987789
0.98555
0.99313
1.02798
1.08094
1.13858
1.20117
1.23089
1.25662
1.27221
1.27933
1.28276
1.28356
1.28529
1.28978
1.29707
1.30643
1.31106
1.30746
1.30147
1.30204
1.34557
1.59932
2.62055
5.63372
6.3989
5.97828
5.65337
5.45584
5.34759
5.29465
5.22417
5.14699
5.07148
5.00409
4.94791
4.90544
4.88928
4.88058
4.84774
4.80088
4.75086
4.70746
4.67228
4.64481
4.6322
4.63922
4.63118
4.59219
4.54529
4.49894
4.45947
4.42838
4.41199
4.42472
4.43401
4.4052
4.36565
4.31922
4.28546
4.26222
4.25011
4.25913
4.26234
4.23702
4.20208
4.15086
4.07442
3.99103
3.93861
3.91443
3.90525
3.92648
3.96347
3.98085
3.97256
3.94953
3.91183
3.84848
3.76825
3.71163
3.68939
3.68639
3.70628
3.71897
3.7076
3.68875
3.66618
3.63212
3.59102
3.55694
3.52768
3.49624
3.45701
3.41215
3.37849
3.36035
3.34698
3.32651
2.34095
2.2384
2.15887
2.08138
1.99539
1.91205
1.86721
1.81642
1.7497
1.67078
1.58843
1.5522
1.51825
1.47818
1.43141
1.39237
1.36601
1.32601
1.27904
1.22851
1.18672
1.16872
1.14738
1.11908
1.0866
1.06525
1.0473
1.02763
1.01059
0.995237
0.979387
0.975066
0.977183
0.980377
0.997997
1.03694
1.10249
1.15543
1.19709
1.22686
1.24233
1.25354
1.25912
1.26674
1.28466
1.30605
1.31476
1.3119
1.30098
1.30378
1.35006
1.62021
2.27491
2.69617
4.36234
5.9735
6.10526
5.84478
5.53599
5.34137
5.26621
5.20891
5.14732
5.07958
5.01941
4.95568
4.90313
4.87348
4.85968
4.82633
4.77721
4.72902
4.68587
4.6511
4.62528
4.61915
4.63614
4.62494
4.58431
4.53569
4.4844
4.44205
4.4101
4.39194
4.40117
4.40891
4.38032
4.3431
4.29491
4.24852
4.22009
4.20084
4.19589
4.20488
4.20248
4.18019
4.15002
4.10398
4.03418
3.95425
3.89863
3.87375
3.8671
3.88575
3.91616
3.93164
3.92617
3.90656
3.87633
3.82457
3.753
3.69374
3.66811
3.657
3.65914
3.65805
3.643
3.62441
3.60243
3.57658
3.55167
3.52721
3.50014
3.46594
3.4191
3.36497
3.33021
3.31478
3.29408
2.42213
2.32014
2.24129
2.16193
2.07617
1.99331
1.94423
1.88546
1.81248
1.72815
1.65156
1.62216
1.58774
1.54484
1.49412
1.4516
1.42029
1.37619
1.32901
1.28192
1.24638
1.22661
1.20256
1.17149
1.13303
1.11023
1.09188
1.07056
1.04925
1.02441
0.990647
0.975166
0.971254
0.972825
0.984948
0.99834
1.02353
1.06063
1.09463
1.13584
1.17251
1.20133
1.21944
1.2371
1.27195
1.30218
1.30352
1.29784
1.30169
1.36494
1.68821
2.19799
2.85472
3.01731
3.45216
4.75147
5.74308
5.84621
5.65987
5.45744
5.29919
5.19534
5.11603
5.05111
5.00678
4.95598
4.90956
4.8767
4.85574
4.81358
4.75917
4.70554
4.65925
4.62374
4.59809
4.59559
4.61768
4.6064
4.56722
4.52181
4.47109
4.42945
4.39764
4.37839
4.38292
4.38711
4.3598
4.32652
4.28427
4.22982
4.18311
4.15447
4.13581
4.13023
4.13479
4.13416
4.12086
4.09849
4.06441
4.01026
3.94038
3.87867
3.84595
3.83181
3.8347
3.85385
3.87118
3.87112
3.85511
3.83229
3.79405
3.7334
3.66691
3.63096
3.61339
3.59971
3.59156
3.58347
3.57191
3.55952
3.54537
3.52766
3.50526
3.47588
3.43458
3.37692
3.31675
3.28186
3.2592
2.50354
2.40149
2.32201
2.24592
2.15557
2.07027
2.01582
1.95098
1.87604
1.78688
1.72132
1.69473
1.65615
1.61
1.55385
1.50729
1.47193
1.42585
1.3803
1.33727
1.30446
1.28155
1.25411
1.22119
1.18375
1.16088
1.14147
1.1191
1.09148
1.05915
1.01658
0.993991
0.985948
0.98398
0.987076
0.997447
0.99941
0.999828
1.00573
1.02436
1.05748
1.10389
1.15157
1.19244
1.2403
1.27012
1.27335
1.28525
1.35403
1.73471
2.32226
2.71035
3.01855
3.22461
3.41565
3.73622
4.6295
5.32131
5.51098
5.51257
5.37032
5.25345
5.13396
5.02847
4.97196
4.92668
4.89922
4.88144
4.86446
4.8129
4.75361
4.69025
4.63958
4.6001
4.57178
4.56692
4.58868
4.57921
4.54147
4.49947
4.45163
4.41228
4.38166
4.36102
4.36001
4.36052
4.33739
4.30916
4.27591
4.23058
4.1737
4.12248
4.08976
4.06922
4.06025
4.06208
4.06577
4.06549
4.05251
4.02834
3.98908
3.93051
3.86109
3.81105
3.78892
3.77848
3.78673
3.80746
3.81386
3.80264
3.78375
3.75141
3.69285
3.62109
3.5804
3.56239
3.54947
3.54508
3.54813
3.54484
3.53358
3.51867
3.49933
3.47265
3.43622
3.38839
3.3282
3.26599
3.22432
2.58432
2.48128
2.40368
2.3246
2.23333
2.14627
2.08463
2.0156
1.93907
1.85157
1.79536
1.76732
1.72508
1.67473
1.61099
1.56108
1.52407
1.47966
1.43543
1.39359
1.3622
1.33549
1.30465
1.26973
1.23464
1.21499
1.19524
1.16951
1.13438
1.09067
1.0507
1.03435
1.02352
1.0155
1.01163
1.00978
1.00383
0.991505
0.972897
0.970563
0.978539
1.00628
1.05703
1.11935
1.18918
1.21958
1.24484
1.33267
1.67154
2.37786
2.69023
2.87855
3.08698
3.40368
3.56255
3.57321
3.70337
4.21515
4.868
5.20844
5.32263
5.29512
5.19706
5.07756
4.96743
4.90183
4.88067
4.86734
4.85684
4.81552
4.75718
4.68947
4.63376
4.58903
4.55391
4.54396
4.56017
4.54523
4.508
4.46943
4.42506
4.38526
4.35514
4.33366
4.32632
4.32046
4.30147
4.27987
4.25601
4.22548
4.18308
4.12812
4.07101
4.0291
4.00467
3.99087
3.98869
3.99641
4.00756
4.00931
3.99029
3.95827
3.90596
3.83161
3.76736
3.73934
3.72641
3.73061
3.75379
3.76232
3.75083
3.73194
3.69895
3.63495
3.56394
3.53352
3.5204
3.51605
3.5251
3.52352
3.50963
3.49418
3.47531
3.44823
3.414
3.37796
3.33683
3.28174
3.21085
2.6557
2.55873
2.48421
2.405
2.30924
2.21846
2.15497
2.08136
2.00464
1.91972
1.87047
1.83999
1.79163
1.7357
1.66626
1.61571
1.5787
1.53542
1.49074
1.44788
1.41627
1.38679
1.35431
1.31938
1.28701
1.26824
1.24721
1.21629
1.17089
1.1223
1.09519
1.08165
1.07031
1.05774
1.04898
1.03985
1.02315
0.992557
0.967595
0.964584
0.967331
0.97347
0.992136
1.03599
1.09566
1.15648
1.27183
1.62584
2.22583
2.62414
2.79233
2.99528
3.25748
3.55685
3.6361
3.58262
3.5306
3.5538
3.84538
4.40352
4.94819
5.07851
5.13394
5.08042
4.99779
4.92175
4.87669
4.86165
4.84439
4.8049
4.74941
4.68613
4.6282
4.58448
4.54704
4.53599
4.542
4.51434
4.47603
4.43823
4.39651
4.35525
4.32355
4.30151
4.28743
4.27002
4.24934
4.23042
4.21421
4.19907
4.17496
4.13876
4.08858
4.02708
3.97169
3.94098
3.92594
3.92087
3.93272
3.95411
3.96064
3.94317
3.91402
3.8641
3.7869
3.71951
3.6923
3.68063
3.68755
3.70976
3.71033
3.69645
3.67772
3.64284
3.57766
3.51763
3.49725
3.49047
3.49485
3.4882
3.47224
3.45638
3.4365
3.4074
3.37423
3.34771
3.32284
3.29168
3.22508
2.73364
2.63302
2.5583
2.47978
2.38257
2.29109
2.22298
2.15
2.07362
1.98966
1.94546
1.91006
1.85685
1.79517
1.71843
1.6725
1.63663
1.59352
1.54733
1.50161
1.46981
1.43848
1.40494
1.37063
1.34053
1.32128
1.29637
1.25712
1.20027
1.15983
1.14805
1.1347
1.12181
1.10707
1.09385
1.07814
1.0488
0.998509
0.972338
0.968899
0.968216
0.971928
0.983651
0.998171
1.02081
1.10742
1.50932
2.04681
2.45609
2.58936
2.7448
3.00875
3.34123
3.56249
3.5905
3.55125
3.49797
3.48225
3.53112
3.68021
4.07612
4.49889
4.80282
4.89929
4.90521
4.90931
4.90569
4.92135
4.87153
4.80042
4.73307
4.66564
4.60582
4.56672
4.53905
4.53842
4.52712
4.48911
4.45083
4.41206
4.37188
4.33077
4.29724
4.27562
4.25
4.21767
4.19117
4.17076
4.1535
4.14196
4.13828
4.12397
4.09567
4.05157
3.98587
3.91641
3.88007
3.86526
3.86093
3.87476
3.89908
3.90225
3.88486
3.85871
3.81107
3.73438
3.67178
3.65003
3.64287
3.6533
3.66526
3.65632
3.64211
3.62439
3.59028
3.52986
3.47877
3.46145
3.45267
3.44129
3.42615
3.41033
3.39041
3.36264
3.3337
3.3151
3.2996
3.28341
3.24146
2.80325
2.70782
2.63725
2.55482
2.45369
2.36048
2.29355
2.2208
2.1443
2.06322
2.01947
1.97839
1.9192
1.85197
1.77342
1.73141
1.69618
1.65266
1.60323
1.55487
1.52343
1.4911
1.45722
1.42327
1.39336
1.37096
1.33967
1.28985
1.23042
1.20865
1.20146
1.18728
1.17221
1.15733
1.14043
1.11709
1.07482
1.02102
1.00301
0.998646
0.994704
0.989437
0.991591
1.01019
1.10618
1.44104
2.00788
2.25255
2.33998
2.44934
2.64398
2.94782
3.28158
3.38648
3.41921
3.4264
3.42021
3.43193
3.47765
3.51775
3.53403
3.67681
3.97379
4.34441
4.5737
4.71888
4.82247
4.91559
4.88132
4.81475
4.74192
4.64696
4.58172
4.54592
4.53009
4.5311
4.50068
4.4578
4.41929
4.38177
4.34527
4.31403
4.29452
4.26777
4.22721
4.1788
4.13243
4.10578
4.08716
4.07243
4.0713
4.08398
4.07598
4.05068
4.00976
3.93946
3.86036
3.82272
3.80774
3.8024
3.81699
3.84019
3.84006
3.82475
3.80111
3.75621
3.68359
3.62886
3.61112
3.60564
3.61259
3.61318
3.60332
3.5919
3.57524
3.54268
3.48547
3.42894
3.40432
3.39063
3.37698
3.36202
3.34451
3.32383
3.30406
3.29033
3.27802
3.26766
3.24054
2.87974
2.78528
2.71275
2.62902
2.52188
2.43199
2.36608
2.29435
2.21549
2.13356
2.09182
2.04418
1.97969
1.90686
1.82951
1.79466
1.7581
1.71179
1.65817
1.60686
1.57766
1.54572
1.51059
1.47628
1.44496
1.41728
1.37791
1.31978
1.27233
1.26196
1.25489
1.2399
1.22256
1.20657
1.18521
1.15044
1.09804
1.05412
1.04343
1.0385
1.02954
1.01996
1.03087
1.12792
1.49352
2.03102
2.19539
2.26139
2.3556
2.48539
2.66768
2.93665
3.07371
3.09061
3.10777
3.16817
3.25867
3.34357
3.39569
3.39473
3.3809
3.35295
3.3697
3.54203
3.8699
4.23795
4.54106
4.68624
4.71968
4.73104
4.70286
4.63568
4.59655
4.56423
4.55455
4.51876
4.46612
4.40877
4.36159
4.32986
4.30451
4.29327
4.29592
4.26687
4.22203
4.16507
4.0936
4.04276
4.01857
4.0008
3.99612
4.01967
4.03951