/*--------------------------------*- C++ -*----------------------------------*\
  =========                 |
  \\      /  F ield         | OpenFOAM: The Open Source CFD Toolbox
   \\    /   O peration     | Website:  https://openfoam.org
    \\  /    A nd           | Version:  7
     \\/     M anipulation  |
\*---------------------------------------------------------------------------*/
FoamFile
{
    version     2.0;
    format      ascii;
    class       volScalarField;
    location    "4";
    object      p;
}
// * * * * * * * * * * * * * * * * * * * * * * * * * * * * * * * * * * * * * //

dimensions      [1 -1 -2 0 0 0 0];

internalField   nonuniform List<scalar> 
16192
(
2.43502
2.42285
2.39371
2.35092
2.32503
2.31412
2.30707
2.30289
2.30018
2.29832
2.30071
2.31984
2.35453
2.37112
2.37081
2.3673
2.36168
2.34849
2.31237
2.25971
2.23327
2.22537
2.22103
2.21901
2.21901
2.223
2.23285
2.25023
2.27483
2.2951
2.29943
2.29567
2.28692
2.26969
2.23749
2.20347
2.18881
2.1847
2.18393
2.18873
2.20284
2.20615
2.20247
2.19624
2.18648
2.17027
2.15494
2.14743
2.14445
2.14288
2.14563
2.15364
2.15543
2.15107
2.14233
2.12401
2.099
2.08585
2.08315
2.0834
2.08659
2.09251
2.10457
2.12103
2.12723
2.12446
2.11638
2.09902
2.06304
2.02809
2.01786
2.01492
2.01373
2.01457
2.02614
2.05523
2.07696
2.077
2.07171
2.06047
2.03782
1.99434
1.98448
2.01197
2.13242
2.43228
2.88074
3.31338
3.60426
3.76193
3.80834
3.80892
3.80474
3.78846
3.76152
3.72773
3.71426
3.71353
3.72688
3.75622
3.76665
3.76531
3.75068
3.71046
3.6558
3.63034
3.62776
3.63081
3.64635
3.68977
3.75159
3.77763
3.77257
3.75466
3.70423
3.61187
3.55356
3.54398
3.5443
3.55775
3.61058
3.67838
3.69206
3.68995
3.67739
3.64176
3.58825
3.56216
3.55823
3.55583
3.55437
3.55756
3.56866
3.57184
3.56726
3.55389
3.52076
3.47834
3.46173
3.45841
3.45789
3.46728
3.50149
3.54332
3.54847
3.54544
3.53984
3.52248
3.47917
3.43052
3.41702
3.41459
3.41062
3.40667
3.40437
3.40302
3.4045
3.41458
3.43235
3.43854
3.43592
3.42766
3.4065
3.3684
3.32807
3.31169
3.31008
3.31312
3.31869
3.3301
3.35025
3.36734
3.36776
3.35875
3.33999
3.30751
3.27582
3.25796
3.24908
3.2464
3.24658
3.25389
3.26698
3.27832
3.28156
3.27891
3.27431
3.2677
3.259
3.24358
3.21631
3.18679
3.16881
3.16069
3.15848
3.16028
3.17893
3.20488
3.20841
3.20476
3.19889
3.18448
3.14822
3.10757
3.09042
3.08479
3.08258
3.08387
3.10354
3.12925
3.13452
3.13116
3.12297
3.10306
3.06977
3.04352
3.03199
3.02672
3.02487
3.02929
3.03645
3.04417
3.0516
3.05486
3.05257
3.04446
3.02918
3.01054
2.98724
2.96197
2.94709
2.94134
2.94004
2.94402
2.9637
2.98939
2.99552
2.9935
2.98878
2.97736
2.94728
2.90317
2.87747
2.86713
2.86231
2.86312
2.87918
2.90386
2.90978
2.90962
2.90699
2.89896
2.8783
2.43202
2.42317
2.40598
2.37136
2.33053
2.30917
2.29998
2.29444
2.29132
2.28923
2.28861
2.29594
2.32007
2.35097
2.36484
2.36409
2.35931
2.3512
2.33454
2.30015
2.25588
2.22844
2.21857
2.21475
2.21322
2.21445
2.21766
2.22226
2.23052
2.24665
2.26944
2.28119
2.27994
2.27303
2.26073
2.23859
2.20857
2.18828
2.18331
2.18298
2.18585
2.19143
2.19371
2.19106
2.18495
2.1737
2.15556
2.13898
2.13118
2.12808
2.12616
2.12821
2.13979
2.14605
2.14431
2.13968
2.12791
2.10665
2.08829
2.08224
2.0803
2.07938
2.08087
2.08854
2.10365
2.11161
2.10937
2.10238
2.08795
2.05727
2.0232
2.01179
2.00888
2.00781
2.00906
2.01935
2.04284
2.06268
2.0647
2.06047
2.0502
2.02799
1.99135
1.97152
1.97484
2.01899
2.17801
2.52252
2.98114
3.45624
3.60565
3.69348
3.7611
3.77381
3.7748
3.75006
3.7081
3.69645
3.69563
3.71622
3.74579
3.74791
3.74528
3.73154
3.69815
3.65797
3.63078
3.62582
3.62676
3.63741
3.67163
3.72813
3.75302
3.74614
3.72701
3.67584
3.58604
3.5365
3.53023
3.53067
3.54612
3.60979
3.68198
3.69293
3.69047
3.67694
3.63265
3.57136
3.54753
3.54177
3.53829
3.53612
3.53857
3.55145
3.55705
3.55444
3.54289
3.50841
3.46432
3.44752
3.44341
3.4418
3.45165
3.49018
3.53915
3.54881
3.54355
3.53475
3.51381
3.46797
3.42216
3.40744
3.40262
3.39833
3.39375
3.38996
3.38726
3.38644
3.39243
3.40991
3.4201
3.4209
3.41777
3.4081
3.38474
3.34606
3.31653
3.30954
3.30728
3.30548
3.30737
3.31891
3.33555
3.33939
3.3327
3.31719
3.29269
3.26485
3.24923
3.2454
3.24798
3.26585
3.28067
3.28132
3.27806
3.2733
3.26612
3.25767
3.24653
3.22868
3.20305
3.17788
3.16209
3.15684
3.15546
3.1605
3.17772
3.19344
3.19697
3.19457
3.19004
3.17982
3.15667
3.11637
3.0866
3.07967
3.07852
3.07985
3.09109
3.11429
3.12734
3.12607
3.11755
3.09986
3.06423
3.02712
3.01047
3.00614
3.0049
3.012
3.04079
3.06829
3.07636
3.07531
3.06844
3.04862
3.01715
2.98257
2.95811
2.94626
2.94149
2.94058
2.9456
2.96588
2.98842
2.99152
2.98809
2.98034
2.9653
2.93623
2.90311
2.88831
2.88399
2.88344
2.88964
2.89918
2.90226
2.89868
2.89255
2.88505
2.87837
2.87102
2.86496
2.41939
2.41449
2.40495
2.38427
2.34952
2.31443
2.29778
2.29093
2.28685
2.28418
2.28311
2.28816
2.3031
2.31976
2.33159
2.33976
2.34378
2.34247
2.33533
2.31972
2.29681
2.26772
2.23789
2.21808
2.21115
2.20797
2.20644
2.20625
2.20701
2.20953
2.21932
2.24197
2.26304
2.26624
2.26432
2.25952
2.24784
2.22608
2.19831
2.18297
2.17794
2.17643
2.17755
2.17842
2.17514
2.16947
2.15787
2.13861
2.12315
2.11681
2.11407
2.11238
2.1164
2.13362
2.14336
2.14416
2.14142
2.13285
2.11134
2.08397
2.07237
2.0695
2.06747
2.06663
2.07114
2.08639
2.09753
2.09639
2.09143
2.08077
2.05588
2.02158
2.00712
2.00396
2.00309
2.00407
2.01194
2.03142
2.05008
2.05249
2.04886
2.04077
2.02257
1.98791
1.96563
1.9628
1.97294
2.03609
2.22236
2.58563
3.08797
3.4109
3.59735
3.70276
3.74002
3.73593
3.70554
3.6905
3.68961
3.70663
3.73936
3.74294
3.73795
3.72736
3.70931
3.68766
3.66379
3.63697
3.62102
3.61763
3.61975
3.64188
3.69288
3.72293
3.71877
3.70215
3.65561
3.57503
3.52666
3.52227
3.52829
3.55267
3.61977
3.68447
3.69287
3.68533
3.66084
3.60333
3.54742
3.53085
3.52659
3.52422
3.52443
3.53311
3.54548
3.54747
3.54424
3.5296
3.49062
3.44718
3.43383
3.43131
3.43191
3.44472
3.48354
3.52618
3.53484
3.53115
3.5232
3.49853
3.44605
3.40496
3.39343
3.38822
3.38256
3.37675
3.37247
3.36978
3.36999
3.38194
3.41083
3.4232
3.42282
3.42174
3.4147
3.39114
3.34496
3.30558
3.29071
3.28466
3.28127
3.27986
3.28491
3.30251
3.3146
3.31302
3.30798
3.29596
3.27811
3.26351
3.25979
3.25844
3.25842
3.26135
3.26167
3.25874
3.25339
3.24359
3.22909
3.21355
3.19791
3.18217
3.17113
3.16606
3.16651
3.17257
3.17532
3.17559
3.17808
3.17712
3.17275
3.16679
3.15599
3.13632
3.10723
3.08498
3.08016
3.07995
3.0848
3.09518
3.10742
3.11074
3.10553
3.09106
3.06427
3.02741
3.00516
3.00041
2.99975
3.009
3.0438
3.07602
3.07822
3.07369
3.06396
3.0404
2.99507
2.95939
2.94675
2.94248
2.9412
2.94656
2.96812
2.99041
2.99246
2.98804
2.97699
2.95583
2.92183
2.89561
2.88696
2.88496
2.89264
2.91367
2.92719
2.92494
2.91203
2.88828
2.86515
2.85229
2.84778
2.8494
2.8589
2.40125
2.39751
2.3925
2.38287
2.36234
2.33199
2.30468
2.29125
2.28569
2.28261
2.28124
2.28574
2.29886
2.30669
2.30792
2.30851
2.31142
2.3168
2.31955
2.31658
2.30813
2.29722
2.28084
2.25303
2.22052
2.20375
2.19658
2.19348
2.19119
2.18926
2.18895
2.19537
2.22014
2.25344
2.26298
2.2633
2.26138
2.25504
2.23839
2.20427
2.1752
2.16551
2.16307
2.16266
2.16178
2.15834
2.1526
2.14088
2.12341
2.11136
2.10618
2.10377
2.10344
2.11453
2.13902
2.14593
2.14515
2.14136
2.13097
2.10381
2.0711
2.05841
2.05488
2.05244
2.0511
2.05508
2.07298
2.08694
2.08714
2.08426
2.07682
2.05655
2.02227
2.00255
1.99749
1.99631
1.99599
2.00106
2.01871
2.03938
2.04283
2.03964
2.03326
2.01845
1.98779
1.96078
1.95477
1.9553
1.97163
2.04518
2.26809
2.63171
3.09407
3.40762
3.60795
3.66303
3.65495
3.65638
3.66962
3.70222
3.74733
3.75903
3.75412
3.74217
3.72369
3.70325
3.68367
3.6573
3.62224
3.59201
3.58271
3.58427
3.6069
3.66112
3.69703
3.69472
3.68242
3.64798
3.58611
3.53803
3.53038
3.53692
3.56131
3.61262
3.66008
3.66794
3.65966
3.63172
3.57615
3.52939
3.51718
3.51408
3.51225
3.51597
3.53076
3.53614
3.53476
3.53092
3.5168
3.48009
3.43775
3.42291
3.42012
3.42003
3.43227
3.47306
3.51804
3.52414
3.51952
3.50833
3.47541
3.41976
3.38725
3.3783
3.37293
3.36725
3.36286
3.36048
3.36063
3.36983
3.38792
3.40786
3.42114
3.42071
3.41567
3.40412
3.37618
3.32453
3.28167
3.26604
3.26064
3.25773
3.25684
3.26304
3.28683
3.31051
3.31404
3.31304
3.30831
3.29629
3.27444
3.252
3.24116
3.23876
3.23824
3.23668
3.23272
3.22494
3.21332
3.2027
3.19783
3.19563
3.19261
3.18586
3.17593
3.16495
3.15928
3.15574
3.15373
3.15535
3.15662
3.15335
3.14963
3.14451
3.13423
3.11136
3.0885
3.08373
3.08182
3.07974
3.08171
3.08557
3.08264
3.07304
3.05971
3.04171
3.0227
3.01149
3.00947
3.01851
3.03883
3.05406
3.06027
3.05828
3.04915
3.02177
2.97845
2.95416
2.94755
2.94571
2.94937
2.96963
2.99343
2.99511
2.98974
2.9783
2.95448
2.91596
2.89153
2.88435
2.88318
2.89194
2.92073
2.94222
2.9409
2.93171
2.908
2.86833
2.84365
2.83747
2.83519
2.83862
2.86183
2.3874
2.38127
2.37571
2.36934
2.35858
2.34063
2.32172
2.3071
2.29692
2.29147
2.28935
2.29213
2.29901
2.29916
2.29471
2.28932
2.28545
2.28479
2.29045
2.30156
2.30423
2.30218
2.29777
2.28671
2.26006
2.21856
2.19299
2.18317
2.17749
2.17429
2.17212
2.17127
2.17776
2.20684
2.2505
2.2655
2.26516
2.26248
2.2562
2.23902
2.19999
2.16309
2.15078
2.14725
2.14557
2.14422
2.1417
2.13729
2.12695
2.11218
2.104
2.10068
2.09982
2.10519
2.12391
2.14379
2.14515
2.14125
2.13407
2.11894
2.08664
2.05427
2.04367
2.04033
2.03822
2.03716
2.04386
2.06769
2.08208
2.08314
2.08125
2.075
2.05608
2.01866
1.99386
1.98738
1.98584
1.98503
1.98889
2.00689
2.03015
2.03459
2.03256
2.02793
2.01528
1.98508
1.95558
1.94611
1.94516
1.94777
1.97239
2.06135
2.28651
2.65551
3.10611
3.41941
3.50588
3.54631
3.5809
3.62256
3.69952
3.76334
3.7715
3.76816
3.75945
3.73716
3.70407
3.66828
3.62651
3.58259
3.55779
3.55378
3.55806
3.5831
3.63811
3.67632
3.6753
3.66905
3.64858
3.60255
3.55143
3.53827
3.53804
3.55002
3.58906
3.63449
3.64288
3.6344
3.60579
3.55175
3.50964
3.49819
3.49585
3.49645
3.50978
3.52622
3.53094
3.5309
3.52734
3.51072
3.46628
3.42139
3.40576
3.40287
3.40353
3.41942
3.46575
3.51031
3.51438
3.50796
3.49189
3.44882
3.39183
3.36832
3.36258
3.35955
3.35736
3.3559
3.3572
3.3661
3.38025
3.39481
3.40071
3.40015
3.39846
3.39467
3.38306
3.35283
3.29924
3.26141
3.25042
3.24708
3.24567
3.24568
3.25412
3.28502
3.31717
3.32028
3.31797
3.31153
3.29488
3.26336
3.23338
3.21839
3.21201
3.20769
3.20419
3.2028
3.20164
3.19991
3.20288
3.20807
3.20717
3.20038
3.18362
3.15939
3.14244
3.13665
3.13449
3.13375
3.14062
3.15256
3.15352
3.15321
3.14957
3.13738
3.10936
3.08122
3.06899
3.06258
3.05751
3.05448
3.0563
3.05633
3.05208
3.0487
3.04624
3.03927
3.03197
3.03185
3.03249
3.03196
3.03204
3.02808
3.01646
2.99544
2.97526
2.9643
2.95992
2.96062
2.97366
2.99016
2.99057
2.98641
2.97874
2.95914
2.92195
2.89337
2.88302
2.88144
2.8866
2.91282
2.94047
2.94134
2.93617
2.92563
2.89962
2.85834
2.83601
2.83174
2.83069
2.8356
2.85691
2.38
2.36988
2.36073
2.35232
2.34444
2.33566
2.32701
2.3194
2.31114
2.3047
2.30361
2.30406
2.29944
2.29263
2.28512
2.27596
2.2678
2.26392
2.26308
2.27183
2.29347
2.30019
2.29789
2.29427
2.2852
2.25959
2.21288
2.17937
2.16828
2.1633
2.16121
2.15999
2.16073
2.17055
2.20115
2.24515
2.26285
2.26125
2.25724
2.25072
2.23303
2.19088
2.14929
2.13529
2.131
2.12907
2.12836
2.12828
2.12512
2.11885
2.10894
2.10313
2.10125
2.1042
2.11134
2.12088
2.12848
2.12898
2.12583
2.1182
2.09913
2.06491
2.03903
2.03162
2.02897
2.02727
2.02743
2.04118
2.07162
2.08218
2.08136
2.07825
2.07094
2.04865
2.00632
1.98138
1.97548
1.97383
1.9729
1.97668
1.99743
2.02491
2.02965
2.02786
2.02336
2.01039
1.97888
1.94686
1.93769
1.93556
1.93578
1.94216
1.97618
2.07584
2.29959
2.66203
3.11707
3.42546
3.47232
3.52292
3.57949
3.66313
3.755
3.78629
3.78396
3.7724
3.74419
3.6953
3.64128
3.58987
3.54846
3.53017
3.52815
3.53492
3.5654
3.62813
3.66973
3.67604
3.6728
3.65744
3.61523
3.55438
3.52923
3.52688
3.53311
3.56631
3.61099
3.61829
3.60784
3.5787
3.52596
3.4917
3.48496
3.48389
3.49432
3.52284
3.53401
3.53275
3.5293
3.52064
3.49453
3.44228
3.40024
3.38995
3.3887
3.3909
3.41105
3.46067
3.50058
3.50181
3.49314
3.47079
3.4188
3.36785
3.355
3.35249
3.3508
3.35097
3.35574
3.36068
3.3681
3.38132
3.38425
3.38159
3.37906
3.37685
3.3734
3.3608
3.3305
3.28162
3.24925
3.24233
3.2406
3.24009
3.24282
3.25375
3.28076
3.31212
3.31679
3.31126
3.30187
3.28224
3.24659
3.211
3.19152
3.18324
3.18037
3.18002
3.18827
3.2058
3.21465
3.21372
3.20984
3.20381
3.19024
3.1629
3.13732
3.12701
3.12416
3.12284
3.12453
3.13807
3.15402
3.15419
3.15022
3.1421
3.12171
3.08258
3.05132
3.03865
3.03304
3.0298
3.03279
3.04448
3.05723
3.0679
3.07263
3.06953
3.06017
3.0417
3.02062
3.00669
2.99494
2.98358
2.97693
2.97563
2.97535
2.97703
2.98168
2.98998
2.99412
2.99125
2.98555
2.97584
2.95842
2.92692
2.89863
2.88703
2.88463
2.88694
2.90502
2.92902
2.93099
2.92769
2.9223
2.91141
2.88887
2.86179
2.8436
2.83607
2.8346
2.83986
2.85258
2.37545
2.36261
2.35044
2.33891
2.33066
2.32526
2.32218
2.32126
2.32166
2.32059
2.31741
2.31103
2.30119
2.28938
2.27646
2.26351
2.25455
2.25039
2.24809
2.24854
2.26077
2.28402
2.29366
2.29165
2.28657
2.27686
2.25145
2.20373
2.16874
2.15879
2.15498
2.15343
2.15358
2.15722
2.16735
2.19064
2.2279
2.25174
2.25304
2.24868
2.24103
2.22214
2.1778
2.13469
2.12134
2.11724
2.1156
2.11567
2.12025
2.12129
2.119
2.11565
2.11249
2.11087
2.1104
2.10888
2.11023
2.11159
2.10951
2.10499
2.09579
2.07692
2.04815
2.02974
2.02441
2.02233
2.02161
2.02654
2.04783
2.07517
2.08123
2.07809
2.07207
2.06065
2.03379
1.99029
1.9685
1.96348
1.96201
1.96127
1.96677
1.99305
2.022
2.0249
2.02311
2.01832
2.00431
1.96895
1.93711
1.92807
1.92676
1.92553
1.92852
1.94603
1.98592
2.08788
2.34204
2.71758
3.17823
3.44394
3.4747
3.53363
3.6223
3.73289
3.77923
3.7794
3.76579
3.72734
3.6723
3.61643
3.56235
3.52254
3.50836
3.50779
3.51638
3.56032
3.64452
3.68641
3.691
3.68658
3.66793
3.61369
3.53649
3.50257
3.49895
3.50551
3.53724
3.58234
3.59262
3.58455
3.56164
3.51779
3.48688
3.48202
3.48548
3.49865
3.51465
3.52035
3.51732
3.51189
3.50146
3.47517
3.4241
3.38533
3.37903
3.37898
3.38217
3.40162
3.45051
3.48538
3.48384
3.47392
3.44824
3.39524
3.35592
3.34979
3.34921
3.34988
3.34924
3.34914
3.35541
3.36898
3.37169
3.36902
3.36584
3.3611
3.35622
3.3518
3.33892
3.31327
3.27588
3.24759
3.23982
3.23832
3.23819
3.24176
3.24933
3.26842
3.29492
3.30168
3.29646
3.28775
3.26691
3.22595
3.187
3.17209
3.16843
3.168
3.17025
3.18211
3.19845
3.2034
3.20096
3.19669
3.19
3.17546
3.14989
3.12606
3.11876
3.11743
3.11818
3.12537
3.13746
3.14145
3.13931
3.13352
3.11895
3.08901
3.05097
3.03236
3.02514
3.02201
3.02342
3.04233
3.07837
3.09207
3.08986
3.08346
3.07028
3.04076
2.99839
2.96592
2.95257
2.94868
2.94992
2.96066
2.98027
2.99962
3.01058
3.01109
3.00508
2.99174
2.97374
2.95137
2.9234
2.9022
2.8925
2.89032
2.89204
2.90564
2.92194
2.92185
2.91843
2.91318
2.90402
2.88997
2.8751
2.86529
2.86001
2.85318
2.84631
2.8442
2.84124
2.37319
2.35661
2.34198
2.33169
2.32401
2.32045
2.31922
2.32363
2.33152
2.33093
2.32641
2.31878
2.30464
2.28433
2.26517
2.25335
2.2469
2.24257
2.23963
2.2383
2.24115
2.25157
2.26654
2.27782
2.27954
2.27543
2.26558
2.24402
2.2027
2.16489
2.15286
2.15001
2.1492
2.15046
2.15336
2.15922
2.17467
2.2056
2.23466
2.24085
2.23711
2.22814
2.20783
2.16393
2.12262
2.11024
2.10623
2.10454
2.10432
2.11193
2.12124
2.1261
2.1257
2.12071
2.11213
2.10244
2.09676
2.09367
2.09014
2.08656
2.08248
2.07542
2.06155
2.03938
2.02441
2.0209
2.02002
2.02319
2.03306
2.04891
2.06286
2.06601
2.06349
2.0582
2.04551
2.01555
1.97456
1.9574
1.95331
1.95205
1.95175
1.96053
1.99282
2.01976
2.01997
2.0175
2.01208
1.99494
1.95512
1.92583
1.91948
1.91781
1.91688
1.91965
1.93663
1.95688
1.99338
2.10781
2.39536
2.80172
3.21988
3.37871
3.47466
3.57607
3.6985
3.75324
3.75147
3.73305
3.6975
3.65824
3.60803
3.54514
3.50226
3.48765
3.48685
3.50181
3.56823
3.66466
3.69299
3.68982
3.68265
3.65823
3.58894
3.506
3.48001
3.476
3.47769
3.50165
3.55335
3.57672
3.57451
3.5618
3.52861
3.49443
3.4856
3.48378
3.48465
3.49538
3.50776
3.5057
3.49974
3.48929
3.46254
3.41252
3.3739
3.36269
3.36113
3.36328
3.38436
3.43565
3.46755
3.4667
3.45939
3.43488
3.3852
3.34831
3.34053
3.33837
3.33655
3.33619
3.34627
3.3626
3.36316
3.3603
3.35691
3.35091
3.34065
3.33264
3.32867
3.31901
3.30308
3.27697
3.24824
3.23624
3.23375
3.23202
3.23078
3.2328
3.24799
3.27625
3.2861
3.28109
3.27131
3.2512
3.21199
3.17355
3.16332
3.16236
3.1631
3.16444
3.17032
3.18336
3.1898
3.18688
3.18293
3.17779
3.16768
3.14782
3.12415
3.1148
3.11378
3.11444
3.1166
3.11947
3.1188
3.11499
3.10697
3.09122
3.06582
3.03825
3.0252
3.02251
3.02582
3.04324
3.06838
3.08413
3.08482
3.07863
3.0648
3.03185
2.97948
2.94873
2.93824
2.93558
2.93787
2.96008
3.00531
3.02385
3.02256
3.01786
3.00799
2.98712
2.953
2.91987
2.90211
2.89493
2.89376
2.89816
2.91201
2.91979
2.91734
2.91009
2.9005
2.89106
2.88266
2.87599
2.87242
2.8751
2.87699
2.87267
2.86134
2.84071
2.82403
2.36714
2.35174
2.33806
2.32954
2.32465
2.3216
2.32219
2.33146
2.33726
2.33443
2.32908
2.32009
2.30154
2.27485
2.25665
2.24856
2.24276
2.23799
2.23453
2.23265
2.23325
2.23633
2.24038
2.24698
2.25746
2.26426
2.26275
2.2551
2.24026
2.20983
2.17112
2.15192
2.14748
2.14548
2.14468
2.14497
2.14816
2.1594
2.18405
2.2132
2.2244
2.22226
2.21317
2.19381
2.15428
2.11432
2.10128
2.09735
2.09589
2.09956
2.11816
2.12988
2.12915
2.12493
2.11712
2.10279
2.08716
2.07775
2.07224
2.06854
2.06672
2.06571
2.06263
2.0546
2.03968
2.02757
2.02444
2.02468
2.02907
2.03474
2.04248
2.0502
2.05117
2.0476
2.0411
2.02752
1.99852
1.96253
1.94903
1.94569
1.94449
1.94526
1.95834
1.99185
2.0151
2.01498
2.01107
2.00355
1.9818
1.93919
1.91572
1.91126
1.91015
1.90939
1.91369
1.93433
1.94708
1.95482
1.9974
2.13007
2.43244
2.82743
3.2048
3.36497
3.5135
3.62762
3.69229
3.70265
3.7022
3.68898
3.65669
3.60148
3.52509
3.47953
3.47345
3.47662
3.49942
3.57103
3.65543
3.68313
3.67974
3.66785
3.6397
3.57056
3.48407
3.45254
3.44724
3.4474
3.47137
3.53623
3.57482
3.57622
3.56884
3.53986
3.49557
3.47144
3.46529
3.46552
3.47558
3.49168
3.49403
3.48895
3.47859
3.44752
3.39148
3.35417
3.34344
3.34045
3.34267
3.36964
3.42944
3.46466
3.46286
3.45275
3.42346
3.36836
3.33548
3.32939
3.32736
3.32604
3.33116
3.34965
3.35469
3.35149
3.34782
3.34225
3.33219
3.31846
3.3126
3.31332
3.30957
3.29704
3.27251
3.24208
3.22643
3.22085
3.21749
3.2149
3.21545
3.23016
3.25899
3.26961
3.26752
3.26132
3.24441
3.20987
3.17185
3.15359
3.14867
3.14731
3.14699
3.15215
3.16814
3.17978
3.1803
3.17848
3.17439
3.16642
3.14864
3.12395
3.10623
3.09861
3.09551
3.09419
3.09404
3.09293
3.08965
3.08396
3.07466
3.05892
3.0422
3.03558
3.03737
3.04624
3.05623
3.06342
3.06571
3.06139
3.04857
3.02072
2.98099
2.94767
2.93571
2.93381
2.93743
2.95762
2.99182
3.01363
3.01543
3.01193
3.00236
2.97624
2.93248
2.90637
2.89874
2.89706
2.90104
2.915
2.92083
2.91803
2.90907
2.89321
2.87986
2.87363
2.87087
2.87096
2.8802
2.89097
2.88897
2.882
2.86444
2.83024
2.80342
2.34676
2.3437
2.33929
2.3361
2.33291
2.3311
2.33551
2.34286
2.34038
2.33433
2.32644
2.31344
2.29118
2.26592
2.25204
2.24606
2.24085
2.23593
2.23235
2.23017
2.22941
2.22877
2.2281
2.22775
2.23001
2.23885
2.25016
2.25205
2.24665
2.23699
2.2153
2.17862
2.15045
2.14135
2.13745
2.13575
2.13532
2.13752
2.1455
2.16234
2.18752
2.20461
2.2054
2.19847
2.18183
2.14773
2.10949
2.09559
2.09326
2.09616
2.11289
2.12856
2.12801
2.12355
2.11661
2.10382
2.08174
2.06515
2.05903
2.05601
2.05389
2.05331
2.05568
2.05507
2.05092
2.04134
2.03143
2.02794
2.02662
2.02573
2.02609
2.0294
2.03433
2.03451
2.03069
2.02447
2.01262
1.98729
1.95507
1.94309
1.94066
1.94001
1.94254
1.95634
1.98484
2.00588
2.00716
2.00246
1.99166
1.96595
1.92475
1.90745
1.90448
1.90385
1.9038
1.91308
1.93215
1.94145
1.94016
1.94696
1.99491
2.13456
2.43801
2.82473
3.18554
3.40453
3.52762
3.62118
3.68364
3.69443
3.68588
3.6496
3.59317
3.52261
3.48068
3.47455
3.48187
3.50304
3.55009
3.61712
3.6549
3.65627
3.64658
3.61581
3.53941
3.45417
3.43048
3.42737
3.4298
3.46418
3.5421
3.57811
3.57747
3.56803
3.53043
3.47655
3.45456
3.45002
3.45043
3.45962
3.47555
3.47809
3.47136
3.45832
3.42655
3.37417
3.33661
3.32838
3.32843
3.33784
3.36745
3.41914
3.45162
3.45077
3.43819
3.4051
3.35108
3.32393
3.32
3.31856
3.31955
3.33205
3.34508
3.34358
3.3402
3.33522
3.32613
3.31306
3.30155
3.29768
3.29646
3.29314
3.28176
3.2596
3.23094
3.21366
3.20795
3.20514
3.20328
3.2043
3.22005
3.25246
3.26508
3.26242
3.25662
3.24033
3.20093
3.15584
3.13842
3.13438
3.13332
3.13308
3.13933
3.1618
3.18311
3.18471
3.18082
3.17529
3.164
3.13787
3.10098
3.07881
3.07161
3.06788
3.06639
3.06901
3.07655
3.08086
3.07982
3.07748
3.07144
3.05814
3.04934
3.04641
3.04359
3.04227
3.03907
3.03172
3.01915
3.00404
2.9865
2.9678
2.95268
2.94693
2.94872
2.96103
2.97661
2.98904
2.99515
2.99312
2.98349
2.95868
2.928
2.91138
2.9069
2.90739
2.9169
2.92293
2.92016
2.91281
2.8985
2.88097
2.87029
2.86657
2.86517
2.86881
2.88312
2.88673
2.88423
2.8776
2.85998
2.82367
2.7978
2.31502
2.32146
2.33262
2.33648
2.3384
2.34479
2.35501
2.35522
2.34887
2.3386
2.32255
2.29922
2.27249
2.25677
2.2501
2.24596
2.242
2.23746
2.23388
2.23165
2.22837
2.2241
2.22029
2.21837
2.21715
2.21767
2.22505
2.23832
2.24358
2.23977
2.23143
2.21486
2.18295
2.14922
2.13415
2.12852
2.12608
2.12538
2.12649
2.13064
2.14041
2.16069
2.18341
2.18856
2.18362
2.17236
2.14975
2.11871
2.10122
2.09854
2.10159
2.10954
2.11426
2.113
2.10853
2.09926
2.08067
2.0605
2.05188
2.04843
2.04607
2.04488
2.04831
2.05409
2.0548
2.05189
2.04308
2.02786
2.01917
2.01708
2.01482
2.0131
2.01366
2.01783
2.01902
2.01602
2.01189
2.00328
1.98312
1.95365
1.94041
1.93812
1.93788
1.94087
1.95159
1.97334
1.99153
1.99302
1.98904
1.97843
1.95264
1.91495
1.90092
1.89894
1.89807
1.89951
1.9121
1.93048
1.93184
1.93268
1.92871
1.92888
1.97077
2.12501
2.41377
2.82856
3.17296
3.40235
3.57622
3.6654
3.6697
3.66857
3.64544
3.60161
3.55678
3.51501
3.49562
3.49391
3.49895
3.52287
3.57581
3.61925
3.62405
3.6138
3.58053
3.50852
3.43729
3.42092
3.42128
3.43103
3.47366
3.54793
3.57672
3.57082
3.55439
3.51665
3.46386
3.43966
3.43533
3.43422
3.43829
3.45004
3.45322
3.44857
3.44058
3.41852
3.37583
3.33539
3.32347
3.32212
3.32806
3.35465
3.40557
3.43506
3.43362
3.42108
3.38858
3.33757
3.31451
3.31113
3.30978
3.31363
3.32987
3.33573
3.33302
3.32922
3.3231
3.31244
3.29745
3.28488
3.27971
3.2762
3.2716
3.26192
3.24742
3.22524
3.20581
3.19917
3.19631
3.195
3.19694
3.21216
3.24224
3.25567
3.25324
3.24722
3.22889
3.18421
3.13989
3.127
3.12413
3.12356
3.12478
3.1348
3.15675
3.17294
3.1737
3.16952
3.16143
3.14366
3.10749
3.07334
3.05786
3.05228
3.05096
3.05283
3.06818
3.08566
3.09323
3.09538
3.09195
3.08121
3.05917
3.03846
3.02666
3.01648
3.00614
3.0003
2.99614
2.99139
2.98952
2.98768
2.98228
2.97294
2.96581
2.96445
2.96307
2.96312
2.96349
2.9604
2.952
2.93984
2.93092
2.92799
2.92762
2.92743
2.92466
2.91948
2.91172
2.90191
2.88904
2.87338
2.86564
2.86366
2.86403
2.8718
2.87599
2.87549
2.87255
2.86544
2.84886
2.82483
2.80361
2.29085
2.29031
2.29831
2.32125
2.34367
2.35946
2.36386
2.36108
2.35618
2.34764
2.32648
2.28896
2.25876
2.24777
2.24437
2.2419
2.23962
2.23804
2.2366
2.2333
2.22831
2.22223
2.21622
2.21167
2.20971
2.20856
2.20854
2.21346
2.22473
2.23162
2.22965
2.22295
2.21069
2.18588
2.15054
2.12735
2.11895
2.1153
2.11394
2.11306
2.11367
2.11807
2.13392
2.16187
2.17518
2.17354
2.17006
2.15959
2.13835
2.11393
2.10156
2.09681
2.09598
2.09646
2.09385
2.08883
2.07868
2.06242
2.05018
2.04518
2.04249
2.04124
2.04494
2.05337
2.05497
2.05265
2.04765
2.03465
2.01506
2.00593
2.00286
1.99997
1.99789
1.99844
2.00449
2.00794
2.0067
2.00389
1.99777
1.98165
1.95438
1.93864
1.93543
1.9349
1.9356
1.94242
1.96028
1.97809
1.97994
1.97601
1.96611
1.94234
1.90858
1.89585
1.89398
1.89368
1.89701
1.91152
1.92607
1.92612
1.92277
1.92057
1.9026
1.89421
1.93406
2.11459
2.44877
2.86855
3.19856
3.43717
3.59029
3.64167
3.63947
3.63568
3.6147
3.57975
3.53769
3.50011
3.49159
3.4904
3.5038
3.54669
3.5828
3.58557
3.57667
3.55107
3.50234
3.44565
3.4259
3.42737
3.44155
3.47994
3.53435
3.5578
3.55441
3.53932
3.50272
3.449
3.41904
3.41104
3.40847
3.40973
3.42245
3.44028
3.44487
3.44002
3.42112
3.37495
3.32688
3.31094
3.30946
3.31436
3.33834
3.38809
3.4197
3.41879
3.40652
3.3739
3.32516
3.30452
3.30121
3.30003
3.30636
3.32292
3.32575
3.3234
3.31998
3.31318
3.29886
3.27752
3.26341
3.25916
3.25657
3.25522
3.24993
3.23979
3.22202
3.20136
3.19194
3.18883
3.1876
3.18919
3.20446
3.23538
3.25009
3.24775
3.23917
3.21673
3.17205
3.13047
3.11797
3.11578
3.11562
3.11831
3.12811
3.14509
3.15765
3.15715
3.15181
3.13962
3.11765
3.0834
3.05541
3.04747
3.04634
3.04826
3.06127
3.08994
3.10149
3.09911
3.0941
3.08464
3.06185
3.02577
3.00037
2.98783
2.98129
2.97865
2.98143
2.99036
3.00333
3.00957
3.00796
3.0002
2.98128
2.9584
2.94377
2.93386
2.92496
2.91966
2.92063
2.92683
2.93665
2.94431
2.94585
2.9415
2.93059
2.91558
2.90267
2.89204
2.8816
2.87494
2.86899
2.86416
2.86361
2.86333
2.86215
2.85948
2.85381
2.84331
2.8307
2.82167
2.81458
2.27651
2.27424
2.27464
2.2904
2.33548
2.36376
2.36427
2.35989
2.35496
2.34805
2.33154
2.29372
2.2577
2.24369
2.23635
2.23199
2.23177
2.23657
2.23737
2.23376
2.2297
2.22388
2.21582
2.20839
2.20356
2.20117
2.19968
2.19889
2.20123
2.21064
2.21931
2.21853
2.21425
2.20633
2.18801
2.15326
2.12072
2.10789
2.1023
2.09932
2.09686
2.0952
2.0967
2.11094
2.14596
2.17047
2.17405
2.1739
2.16859
2.1516
2.11694
2.08961
2.08074
2.07811
2.07604
2.07384
2.07094
2.06405
2.053
2.04545
2.04238
2.0417
2.04703
2.05264
2.05134
2.04869
2.04468
2.03552
2.01613
1.99604
1.98988
1.98703
1.98472
1.98361
1.98781
1.99779
2.00208
2.00249
2.00059
1.99586
1.98274
1.9552
1.93359
1.92745
1.92632
1.9258
1.9298
1.94564
1.96488
1.96779
1.96412
1.95572
1.93579
1.90543
1.89241
1.8904
1.89002
1.89333
1.90472
1.91411
1.91399
1.91107
1.90498
1.89076
1.85785
1.8649
1.9303
2.1419
2.50797
2.95125
3.30492
3.48819
3.61003
3.62162
3.60846
3.58374
3.54754
3.50349
3.47592
3.47044
3.46908
3.48279
3.52518
3.55298
3.55405
3.55165
3.54115
3.50568
3.45225
3.43323
3.43205
3.4378
3.46827
3.51726
3.53614
3.53262
3.51957
3.48325
3.42726
3.39582
3.38757
3.38595
3.39013
3.41911
3.44488
3.4473
3.44216
3.42135
3.36865
3.31449
3.29754
3.29541
3.29805
3.31973
3.37094
3.40421
3.40318
3.39133
3.3606
3.31568
3.29512
3.29215
3.29276
3.30453
3.31821
3.3179
3.31601
3.31221
3.30036
3.27378
3.25191
3.24701
3.24514
3.24321
3.24252
3.23931
3.2308
3.21573
3.19638
3.18532
3.18171
3.18087
3.1849
3.19918
3.22171
3.23196
3.2303
3.22394
3.20613
3.16693
3.12484
3.112
3.11042
3.10892
3.10832
3.11191
3.1244
3.13527
3.13382
3.12854
3.1192
3.10284
3.07761
3.05619
3.05078
3.05159
3.05961
3.07199
3.08497
3.08781
3.08465
3.0769
3.05839
3.02437
2.99355
2.97983
2.97401
2.97204
2.97619
3.00126
3.02222
3.02248
3.01789
3.00939
2.9866
2.94675
2.91684
2.90475
2.89965
2.89755
2.9005
2.92419
2.95099
2.9551
2.95211
2.94637
2.93381
2.91288
2.89546
2.88656
2.88362
2.88152
2.87703
2.87062
2.86029
2.84976
2.84214
2.83413
2.82733
2.82315
2.82087
2.82165
2.82753
2.27253
2.26807
2.26709
2.27306
2.29517
2.32584
2.34675
2.35264
2.34981
2.34294
2.32938
2.30606
2.27846
2.25522
2.23868
2.22976
2.22493
2.22318
2.22661
2.23104
2.229
2.22432
2.21836
2.20921
2.20035
2.19485
2.19159
2.18945
2.18777
2.18821
2.19759
2.21003
2.21063
2.20751
2.20157
2.18646
2.15234
2.11311
2.09552
2.08751
2.08225
2.07931
2.07768
2.07947
2.09798
2.14406
2.1761
2.17839
2.17607
2.16908
2.14849
2.10552
2.0726
2.06217
2.05904
2.05789
2.05874
2.06012
2.0567
2.05308
2.04985
2.04971
2.05181
2.04945
2.04454
2.04031
2.0363
2.03023
2.01596
1.99267
1.97916
1.97596
1.9737
1.97201
1.97334
1.9856
1.99873
2.0021
2.00209
1.99992
1.99514
1.9805
1.94729
1.92211
1.91588
1.91458
1.91378
1.91658
1.93205
1.9533
1.95689
1.95444
1.94878
1.93212
1.90314
1.88878
1.88662
1.88619
1.8889
1.89753
1.90442
1.90353
1.90055
1.89284
1.87564
1.84487
1.83649
1.85696
1.95032
2.18462
2.59813
2.99318
3.4268
3.57866
3.59398
3.57161
3.53016
3.48706
3.45688
3.44161
3.43749
3.43992
3.46553
3.51458
3.54298
3.5491
3.54861
3.53785
3.49987
3.44352
3.42333
3.42224
3.42584
3.45053
3.49706
3.51735
3.51418
3.50023
3.46096
3.40308
3.37753
3.37369
3.37371
3.38672
3.42683
3.4463
3.44663
3.44107
3.41575
3.35128
3.29432
3.27762
3.27387
3.27553
3.29908
3.35255
3.38664
3.38574
3.3774
3.35219
3.312
3.29032
3.28765
3.28938
3.30004
3.31485
3.31502
3.31042
3.29961
3.27457
3.24604
3.23616
3.23429
3.23264
3.23077
3.22854
3.22546
3.21965
3.20813
3.19127
3.18089
3.17839
3.17814
3.17996
3.1904
3.21271
3.22294
3.22059
3.21531
3.19891
3.16012
3.11684
3.09734
3.09176
3.08839
3.08596
3.08679
3.09884
3.11619
3.11783
3.11554
3.11186
3.10342
3.0838
3.0623
3.05777
3.05872
3.06008
3.06423
3.068
3.06622
3.06041
3.04827
3.02676
2.99779
2.97856
2.97353
2.97261
2.97829
2.99444
3.01194
3.01556
3.01199
3.00313
2.98511
2.94684
2.90988
2.89605
2.89175
2.8912
2.89388
2.90732
2.93193
2.94407
2.94335
2.93895
2.92972
2.91324
2.89987
2.89531
2.89306
2.88939
2.88323
2.87094
2.84977
2.82835
2.81577
2.80987
2.8079
2.80899
2.81612
2.83571
2.84927
2.28033
2.26943
2.26692
2.26933
2.27654
2.28626
2.2984
2.31301
2.32492
2.32692
2.32132
2.30896
2.29692
2.28433
2.26597
2.24194
2.22464
2.21597
2.21186
2.2121
2.21768
2.22095
2.2173
2.21069
2.20137
2.19157
2.18535
2.18135
2.17882
2.17713
2.17804
2.18973
2.20398
2.20514
2.20124
2.19453
2.18021
2.14537
2.10058
2.0791
2.07166
2.06828
2.06694
2.06726
2.07481
2.10055
2.14453
2.17163
2.17281
2.16795
2.15814
2.13373
2.08774
2.05712
2.04871
2.04598
2.0448
2.04631
2.05277
2.05557
2.05793
2.05716
2.05255
2.04636
2.04053
2.035
2.02963
2.02316
2.01199
1.99147
1.97225
1.96588
1.96372
1.96184
1.96144
1.97078
1.99277
2.00248
2.00225
1.99973
1.99637
1.99008
1.97068
1.93196
1.90822
1.90311
1.90164
1.90067
1.90333
1.9212
1.94631
1.95056
1.94917
1.94407
1.92887
1.90086
1.88482
1.88177
1.881
1.88168
1.8875
1.89376
1.89306
1.88982
1.88278
1.86543
1.83772
1.8268
1.82817
1.85765
1.98291
2.25176
2.68745
3.12708
3.43565
3.55204
3.55617
3.50595
3.4617
3.431
3.40195
3.39819
3.41299
3.46579
3.53569
3.55811
3.56038
3.55652
3.5399
3.49404
3.43031
3.4064
3.40381
3.40589
3.42948
3.47746
3.49843
3.49471
3.47864
3.44019
3.38907
3.36882
3.3672
3.37347
3.39487
3.43299
3.4462
3.4427
3.43123
3.39533
3.3216
3.26914
3.2593
3.25723
3.25942
3.28137
3.33504
3.37377
3.37437
3.36918
3.34984
3.31368
3.28748
3.28375
3.28406
3.2902
3.29837
3.29776
3.29229
3.27644
3.24811
3.22852
3.22283
3.22063
3.21897