/*--------------------------------*- C++ -*----------------------------------*\
  =========                 |
  \\      /  F ield         | OpenFOAM: The Open Source CFD Toolbox
   \\    /   O peration     | Website:  https://openfoam.org
    \\  /    A nd           | Version:  7
     \\/     M anipulation  |
\*---------------------------------------------------------------------------*/
FoamFile
{
    version     2.0;
    format      ascii;
    class       volScalarField;
    location    "2.6";
    object      T;
}
// * * * * * * * * * * * * * * * * * * * * * * * * * * * * * * * * * * * * * //

dimensions      [0 0 0 1 0 0 0];

internalField   nonuniform List<scalar> 
16192
(
2.04251
2.03923
2.03492
2.03037
2.0261
2.02168
2.01648
2.0104
2.00381
1.99727
1.99124
1.98542
1.97937
1.97283
1.96558
1.95797
1.9503
1.94248
1.9349
1.92751
1.91965
2.04016
2.03718
2.03289
2.02781
2.02281
2.01809
2.01329
2.00797
2.00202
1.99574
1.98965
1.98361
1.97738
1.9709
1.96387
1.95636
1.94876
1.9411
1.93357
1.92627
1.91875
2.03699
2.03382
2.0296
2.02462
2.01962
2.01495
2.0104
2.00554
2.00011
1.99415
1.98801
1.98179
1.97545
1.96892
1.96194
1.95461
1.94722
1.93963
1.93203
1.92487
1.91772
2.03323
2.02979
2.02593
2.02149
2.01678
2.01232
2.00803
2.00349
1.9983
1.99245
1.98626
1.97994
1.9735
1.96694
1.96008
1.95288
1.9456
1.9382
1.93073
1.92358
1.91651
2.0294
2.02596
2.0224
2.01843
2.01415
2.00993
2.00573
2.00133
1.99638
1.99067
1.98438
1.97788
1.97138
1.96481
1.95807
1.95114
1.9441
1.93684
1.92938
1.92219
1.91508
2.02588
2.02245
2.01921
2.0157
2.01175
2.00762
2.00347
1.99915
1.9943
1.98864
1.98237
1.97582
1.96926
1.96271
1.95618
1.94948
1.94259
1.93549
1.92814
1.92084
1.91354
2.02279
2.0192
2.01604
2.01293
2.00946
2.00551
2.00121
1.99666
1.99176
1.98622
1.98008
1.97366
1.96721
1.96079
1.9544
1.94788
1.94114
1.93409
1.92671
1.91926
1.91185
2.0195
2.01619
2.01319
2.01033
2.00707
2.00315
1.99869
1.99393
1.98886
1.98341
1.97758
1.97151
1.9653
1.95904
1.95279
1.94636
1.93954
1.93245
1.92515
1.91766
1.91019
2.01608
2.01353
2.01076
2.00786
2.00444
2.00036
1.99569
1.99081
1.98578
1.98061
1.97519
1.96957
1.96365
1.95753
1.95128
1.94471
1.93782
1.93073
1.92343
1.916
1.90869
2.01292
2.01068
2.00801
2.00489
2.00111
1.99685
1.99226
1.98754
1.98273
1.97795
1.97305
1.96781
1.96204
1.95587
1.94954
1.94288
1.93585
1.92877
1.92172
1.91455
1.90744
2.00954
2.00722
2.00442
2.00111
1.99726
1.99309
1.98879
1.98448
1.98022
1.97588
1.97131
1.96607
1.9602
1.95398
1.94757
1.94084
1.93392
1.92708
1.92023
1.91326
1.90636
2.00751
2.00296
1.99972
1.99647
1.99297
1.98931
1.98575
1.982
1.97811
1.97396
1.96935
1.96396
1.95792
1.9516
1.94529
1.93883
1.93217
1.92555
1.91896
1.91221
1.90541
2.00553
1.99964
1.99483
1.99166
1.98872
1.98593
1.98317
1.97988
1.97603
1.97182
1.96697
1.96138
1.9553
1.9492
1.9431
1.9369
1.9306
1.92434
1.91788
1.91115
1.90433
2.00592
1.99755
1.99167
1.98792
1.98527
1.98297
1.98055
1.97736
1.97336
1.96898
1.96401
1.95854
1.95269
1.94688
1.94109
1.93526
1.92927
1.92309
1.9166
1.9099
1.90303
2.00662
1.9982
1.99169
1.9863
1.98251
1.98002
1.97735
1.97403
1.97
1.96569
1.96085
1.95566
1.95032
1.94502
1.93952
1.9338
1.92788
1.9217
1.91516
1.90842
1.90155
2.00836
2.00011
1.99308
1.98669
1.98104
1.97685
1.97346
1.9699
1.96611
1.96212
1.95774
1.95305
1.94828
1.94325
1.93783
1.93215
1.92631
1.92003
1.91344
1.90682
1.90019
2.0116
2.00347
1.99504
1.98718
1.98022
1.97435
1.96961
1.96561
1.96212
1.95876
1.95502
1.95081
1.94636
1.94134
1.93588
1.93017
1.92435
1.91823
1.91187
1.90543
1.89904
2.01283
2.00539
1.99679
1.98828
1.98083
1.97347
1.96709
1.96217
1.9587
1.95564
1.9523
1.94845
1.94414
1.93903
1.93342
1.92787
1.92235
1.91647
1.91034
1.90419
1.89809
2.01124
2.00506
1.99794
1.98993
1.982
1.97426
1.96679
1.96039
1.95613
1.95267
1.94913
1.94544
1.94126
1.93629
1.93086
1.92559
1.92029
1.91483
1.90908
1.90313
1.89705
2.00848
2.00407
1.99763
1.99077
1.98362
1.97578
1.96775
1.96077
1.95495
1.95009
1.9458
1.942
1.93804
1.93337
1.92824
1.92341
1.91849
1.91331
1.90775
1.90184
1.89572
2.00218
2.00035
1.99587
1.9907
1.98526
1.97815
1.96975
1.96214
1.95495
1.94807
1.94274
1.9386
1.9346
1.93028
1.92572
1.92128
1.91654
1.91154
1.90618
1.90027
1.894
1.99615
1.99634
1.99464
1.99129
1.98687
1.9805
1.97209
1.96352
1.95548
1.94817
1.94143
1.93618
1.93175
1.9273
1.92303
1.91889
1.91432
1.9094
1.90416
1.89831
1.89201
1.98983
1.9914
1.99126
1.98951
1.98589
1.98023
1.97307
1.96495
1.95662
1.94866
1.9417
1.93555
1.92982
1.92474
1.92039
1.91611
1.91152
1.90677
1.9018
1.89611
1.88992
1.98276
1.98427
1.98533
1.98483
1.98284
1.97885
1.97306
1.96623
1.9582
1.94997
1.94276
1.93612
1.92928
1.9228
1.91776
1.91309
1.90839
1.90379
1.89915
1.89382
1.88798
1.9777
1.97802
1.97881
1.97933
1.97874
1.97673
1.97282
1.96705
1.95967
1.95177
1.9449
1.93718
1.92958
1.92254
1.91607
1.91032
1.90507
1.90062
1.89634
1.89143
1.88603
1.97211
1.97056
1.97091
1.97185
1.97269
1.97237
1.97067
1.96652
1.96029
1.95341
1.94663
1.93875
1.93029
1.92247
1.91555
1.90888
1.90278
1.89786
1.89353
1.88901
1.88409
1.96709
1.96411
1.96452
1.96567
1.9671
1.96794
1.9674
1.96496
1.95996
1.95399
1.94764
1.94009
1.93149
1.92338
1.91609
1.90872
1.90152
1.89607
1.89141
1.88672
1.88193
1.96531
1.96103
1.95944
1.96021
1.96131
1.96225
1.96211
1.96092
1.95776
1.95308
1.94734
1.94079
1.93305
1.9253
1.91738
1.90958
1.90201
1.89532
1.88984
1.88486
1.87996
1.95885
1.95634
1.95462
1.95451
1.95472
1.95519
1.95518
1.95482
1.95341
1.95083
1.94663
1.94132
1.935
1.9277
1.9194
1.91089
1.90296
1.8961
1.88944
1.88356
1.87811
1.9608
1.95702
1.9524
1.94964
1.9484
1.94813
1.94836
1.94872
1.94857
1.94773
1.94527
1.94111
1.93625
1.92966
1.92127
1.91266
1.90471
1.89652
1.88969
1.88348
1.87723
1.95033
1.95546
1.94969
1.94489
1.94235
1.94106
1.94134
1.942
1.94274
1.94293
1.94206
1.9394
1.93558
1.92984
1.92236
1.91435
1.90665
1.89812
1.89033
1.88361
1.87684
1.8944
1.94899
1.94645
1.94128
1.93838
1.93666
1.93641
1.93666
1.93715
1.93771
1.9375
1.93621
1.93372
1.92928
1.92258
1.91574
1.90857
1.90009
1.89168
1.88448
1.87725
1.81001
1.9467
1.94659
1.94132
1.93664
1.93371
1.9319
1.93098
1.93089
1.93131
1.93151
1.93119
1.92992
1.92713
1.92175
1.91566
1.90939
1.9018
1.89354
1.88602
1.87835
1.65165
1.91137
1.94182
1.93913
1.93476
1.93096
1.92803
1.92615
1.92495
1.92486
1.92495
1.92506
1.92456
1.92309
1.91953
1.91477
1.90927
1.90289
1.89549
1.88804
1.88021
1.85121
1.94274
1.94078
1.935
1.92932
1.92511
1.92239
1.92044
1.91934
1.91875
1.91864
1.91845
1.91779
1.91596
1.91285
1.90858
1.90317
1.89695
1.88998
1.88231
1.72745
1.92716
1.93879
1.93385
1.92743
1.92241
1.91889
1.91618
1.91403
1.9127
1.91199
1.91182
1.91146
1.91083
1.90934
1.90664
1.90247
1.89725
1.89127
1.88433
1.47331
1.87815
1.93625
1.93398
1.92807
1.92249
1.91773
1.91377
1.9105
1.90814
1.90663
1.90609
1.90577
1.90562
1.90508
1.90359
1.90075
1.89671
1.8915
1.88541
1.15914
1.77614
1.93142
1.93356
1.92779
1.92153
1.9163
1.9116
1.90761
1.90447
1.90215
1.90079
1.90007
1.89981
1.89955
1.8988
1.89715
1.89454
1.89057
1.88515
1.01928
1.58624
1.88486
1.92696
1.92488
1.91989
1.91509
1.91042
1.9064
1.90274
1.89959
1.89711
1.89542
1.89432
1.89378
1.8932
1.89235
1.8909
1.88832
1.8841
1.00081
1.26488
1.81312
1.92597
1.92587
1.92138
1.91548
1.91046
1.90609
1.90179
1.89767
1.89404
1.89126
1.88923
1.88793
1.8871
1.88663
1.88599
1.88453
1.88154
1.00002
1.04999
1.67014
1.89656
1.92199
1.91965
1.91484
1.90988
1.90531
1.90054
1.89572
1.89153
1.88797
1.88493
1.88263
1.88128
1.88072
1.88028
1.87942
1.8775
1
1.00299
1.38114
1.84148
1.92308
1.92019
1.91468
1.90925
1.90455
1.8999
1.89488
1.89006
1.88569
1.8819
1.8787
1.87654
1.8754
1.87472
1.87394
1.87265
1
1.00009
1.10248
1.72403
1.9103
1.9192
1.91369
1.908
1.90309
1.89855
1.89367
1.88874
1.88372
1.87925
1.87544
1.87261
1.87066
1.86931
1.86825
1.86716
1
1
1.00915
1.4883
1.85408
1.91459
1.91268
1.90735
1.90242
1.89781
1.893
1.88792
1.88289
1.87821
1.87398
1.87037
1.86744
1.86513
1.86339
1.86208
1
1
1.00034
1.17497
1.76019
1.90989
1.91292
1.90819
1.90149
1.8964
1.89189
1.88697
1.882
1.87725
1.87288
1.86867
1.86484
1.86154
1.85896
1.85713
1
1
1.00001
1.02323
1.57826
1.86444
1.90662
1.90458
1.89974
1.89454
1.89042
1.88619
1.88168
1.87709
1.87248
1.86777
1.86332
1.85923
1.85577
1.85318
1
1
1
1.00107
1.26457
1.79244
1.90528
1.90521
1.90038
1.89449
1.89003
1.88575
1.8812
1.87669
1.87203
1.86715
1.86231
1.85768
1.85347
1.85004
1
1
1
1.00003
1.05052
1.64705
1.87516
1.90125
1.89856
1.89358
1.88894
1.88473
1.88036
1.87607
1.87136
1.8665
1.86173
1.8569
1.85206
1.84779
1
1
1
1
1.00311
1.35911
1.81838
1.89988
1.89861
1.89387
1.88869
1.88401
1.87977
1.87558
1.87107
1.8663
1.86139
1.85628
1.85106
1.84621
1
1
1
1
1.0001
1.09287
1.696
1.88292
1.89762
1.89325
1.88772
1.88288
1.87895
1.87469
1.87005
1.86541
1.86069
1.85549
1.84995
1.84466
1
1
1
1
1
1.00801
1.44703
1.83229
1.89522
1.89365
1.88833
1.88308
1.87858
1.87395
1.86933
1.86477
1.86001
1.85475
1.84928
1.8439
1
1
1
1
1
1.00031
1.14711
1.7274
1.8881
1.89406
1.88912
1.88216
1.87732
1.87266
1.868
1.86369
1.85905
1.85377
1.84822
1.84284
1
1
1
1
1
1.00001
1.01737
1.52461
1.83277
1.88683
1.88522
1.88056
1.87583
1.87178
1.86745
1.86315
1.85831
1.85314
1.84792
1.84283
1
1
1
1
1
1
1.00078
1.21413
1.7524
1.88192
1.88661
1.88215
1.87598
1.87105
1.86669
1.86247
1.85768
1.85251
1.84742
1.84259
1
1
1
1
1
1
1.00002
1.03437
1.58931
1.84096
1.88105
1.87914
1.87502
1.86974
1.86554
1.86133
1.85674
1.85196
1.84733
1.84262
1
1
1
1
1
1
1
1.00188
1.2887
1.77475
1.87918
1.8798
1.87563
1.86948
1.86505
1.8608
1.85631
1.85163
1.84717
1.8425
1
1
1
1
1
1
1
1.00006
1.06086
1.63485
1.85083
1.87609
1.8739
1.86855
1.8641
1.85994
1.85547
1.85103
1.84678
1.84209
1
1
1
1
1
1
1
1
1.00422
1.35683
1.79393
1.87373
1.87357
1.86908
1.8643
1.8597
1.85477
1.85025
1.84605
1.84156
1
1
1
1
1
1
1
1
1.00015
1.09378
1.67021
1.85571
1.87265
1.86862
1.86334
1.85836
1.8533
1.84903
1.84474
1.84032
1
1
1
1
1
1
1
1
1
1.00827
1.42035
1.805
1.87014
1.86816
1.86331
1.8579
1.85332
1.8492
1.84474
1.84012
1
1
1
1
1
1
1
1
1
1.00032
1.13273
1.69513
1.8616
1.86839
1.86329
1.85739
1.85302
1.84896
1.84437
1.83947
1
1
1
1
1
1
1
1
1
1.00001
1.01491
1.47926
1.8021
1.86186
1.86146
1.85712
1.85239
1.84828
1.84374
1.83881
1
1
1
1
1
1
1
1
1
1
1.00069
1.17811
1.71431
1.85675
1.86307
1.85822
1.85194
1.84743
1.84291
1.83807
1
1
1
1
1
1
1
1
1
1
1.00002
1.0249
1.53337
1.80808
1.85599
1.85434
1.8503
1.84579
1.84159
1.83728
1
1
1
1
1
1
1
1
1
1
1
1.00128
1.23262
1.73357
1.85249
1.85595
1.85189
1.84583
1.84089
1.83675
1.45438
1.4553
1.45643
1.45816
1.46144
1.46498
1.46562
1.46567
1.46564
1.46524
1.46443
1.46335
1.46248
1.46239
1.46235
1.46221
1.46209
1.46162
1.46105
1.46041
1.45953
1.45808
1.45671
1.45657
1.45656
1.45662
1.45657
1.45641
1.45613
1.45562
1.45463
1.4535
1.45331
1.4534
1.45364
1.45398
1.45424
1.45433
1.4543
1.45396
1.45334
1.45247
1.91362
1.90949
1.90494
1.901
1.89684
1.89275
1.88772
1.88403
1.88094
1.87703
1.87309
1.86861
1.86562
1.86092
1.85303
1.85174
1.85421
1.88035
1.94587
1.98954
2.0001
1.99717
1.98898
1.98014
1.97204
1.96442
1.95745
1.95133
1.94467
1.93779
1.93054
1.92321
1.91642
1.90901
1.90166
1.89429
1.8867
1.87981
1.87274
1.86562
1.85886
1.85137
1.84431
1.83773
1.83025
1.82341
1.81619
1.80832
1.80235
1.79533
1.78865
1.78202
1.7745
1.76845
1.76198
1.75463
1.74775
1.74384
1.7382
1.73031
1.72546
1.71999
1.71399
1.70675
1.7018
1.69647
1.69046
1.68482
1.68003
1.67472
1.66775
1.65824
1.64689
1.64108
1.63998
1.63754
1.6347
1.63086
1.62677
1.62071
1.61457
1.6079
1.60367
1.60053
1.59544
1.58972
1.58144
1.5767
1.57375
1.56942
1.56569
1.5609
1.5563
1.55151
1.54678
1.54238
1.53754
1.53515
1.53312
1.52959
1.52595
1.52305
1.51828
1.5092
1.49971
1.49724
1.49627
1.4945
1.49275
1.4905
1.4876
1.48413
1.48029
1.47521
1.46927
1.46717
1.46687
1.4668
1.46738
1.46774
1.46715
1.46624
1.46477
1.46135
1.45657
1.45467
1.45434
1.4542
1.45495
1.45703
1.45821
1.45806
1.45747
1.45606
1.45331
1.45154
1.45139
1.45154
1.45276
1.45552
1.4574
1.45818
1.45889
1.46002
1.46115
1.46199
1.4627
1.46375
1.46545
1.46745
1.46805
1.468
1.46751
1.4666
1.4655
1.46392
1.46264
1.46204
1.4617
1.46142
1.46104
1.46056
1.4599
1.45907
1.45764
1.45539
1.45351
1.45294
1.45274
1.45264
1.45259
1.45266
1.45279
1.45259
1.45202
1.451
1.44975
1.44938
1.44933
1.44938
1.44988
1.45117
1.45216
1.45231
1.45233
1.45215
1.45132
1.45102
1.45142
1.45233
1.45354
1.45575
1.45998
1.46371
1.46408
1.46415
1.46416
1.4639
1.46315
1.46206
1.46148
1.4615
1.46154
1.46156
1.46156
1.46105
1.46047
1.45976
1.45862
1.45665
1.45533
1.45519
1.45516
1.45512
1.45501
1.45483
1.45451
1.45388
1.45275
1.45218
1.45224
1.45239
1.45266
1.45297
1.45315
1.45318
1.45304
1.45263
1.45184
1.45061
1.91299
1.90883
1.90472
1.90083
1.89673
1.89234
1.88758
1.88441
1.88058
1.87672
1.87197
1.86819
1.8656
1.86168
1.85393
1.84946
1.8503
1.85922
1.90478
1.96782
1.99283
1.99482
1.98975
1.98151
1.97254
1.96425
1.95795
1.95163
1.94503
1.93811
1.93115
1.9249
1.91804
1.91098
1.90387
1.89662
1.88986
1.88277
1.87561
1.8687
1.86117
1.85401
1.8472
1.8398
1.83285
1.82594
1.81815
1.81193
1.80528
1.79841
1.79233
1.78477
1.77863
1.77193
1.76563
1.75872
1.75264
1.74835
1.74231
1.73453
1.72939
1.72455
1.71769
1.71085
1.70653
1.70106
1.69558
1.68965
1.68443
1.67739
1.6686
1.65757
1.65095
1.65005
1.64801
1.64501
1.64074
1.63537
1.62996
1.62363
1.61859
1.61329
1.61019
1.60581
1.5994
1.59179
1.58414
1.58187
1.579
1.57503
1.57094
1.56587
1.56136
1.55639
1.55236
1.54768
1.54407
1.54177
1.5389
1.53533
1.53121
1.52766
1.52085
1.50939
1.50487
1.50442
1.50339
1.5012
1.4985
1.49503
1.49095
1.48687
1.48213
1.4756
1.47191
1.47139
1.47084
1.47046
1.47011
1.46937
1.46834
1.46673
1.46309
1.45796
1.45534
1.45475
1.45443
1.45481
1.45671
1.45792
1.45774
1.45707
1.45539
1.45213
1.45
1.44977
1.44974
1.45034
1.45269
1.45446
1.45482
1.45515
1.45501
1.45564
1.45696
1.4583
1.46013
1.46281
1.46569
1.46638
1.46644
1.46632
1.46564
1.46463
1.46323
1.46226
1.46188
1.4616
1.46169
1.46151
1.46091
1.46022
1.45931
1.45758
1.45494
1.45306
1.45243
1.45206
1.45192
1.45194
1.45206
1.45204
1.45173
1.45109
1.44978
1.44805
1.44741
1.44728
1.44725
1.44751
1.44861
1.4498
1.45008
1.45009
1.44993
1.44897
1.44791
1.448
1.44841
1.44926
1.45119
1.45408
1.45814
1.4613
1.46206
1.46221
1.46225
1.46214
1.4615
1.46068
1.46052
1.46069
1.46091
1.46138
1.46123
1.46069
1.46004
1.4591
1.45734
1.45503
1.45417
1.45396
1.45381
1.45369
1.45355
1.45333
1.45293
1.45216
1.45123
1.45115
1.45121
1.45138
1.45162
1.45188
1.45202
1.452
1.4518
1.45118
1.44999
1.44875
1.91212
1.9081
1.90439
1.90046
1.8965
1.89174
1.88779
1.88426
1.88015
1.87613
1.87109
1.86823
1.86533
1.86144
1.85568
1.84852
1.84792
1.85009
1.87265
1.93315
1.97834
1.99101
1.98883
1.98253
1.97335
1.96518
1.95834
1.95173
1.94518
1.9385
1.93245
1.92604
1.91939
1.91262
1.90564
1.89907
1.89213
1.88505
1.87817
1.87072
1.86353
1.85644
1.84902
1.84208
1.83526
1.82784
1.82134
1.81476
1.80788
1.80189
1.7946
1.78839
1.78202
1.77547
1.7696
1.76275
1.7579
1.75243
1.74623
1.7386
1.73356
1.72874
1.72139
1.71529
1.7108
1.70561
1.69953
1.69323
1.68684
1.6786
1.66902
1.66116
1.65977
1.65859
1.65515
1.65096
1.64424
1.63846
1.63301
1.62808
1.62413
1.61965
1.61535
1.6088
1.60144
1.59346
1.58885
1.58746
1.58448
1.58082
1.57579
1.571
1.56619
1.56171
1.55793
1.55293
1.55039
1.54768
1.54398
1.54025
1.53589
1.53031
1.52176
1.51375
1.51213
1.51136
1.50999
1.50715
1.50306
1.49845
1.49396
1.49012
1.48547
1.47917
1.47728
1.47647
1.47522
1.47396
1.47275
1.47146
1.46973
1.46613
1.46034
1.45631
1.45549
1.45519
1.4555
1.45713
1.45813
1.45785
1.4572
1.45566
1.45213
1.44875
1.44804
1.44791
1.44831
1.45032
1.45204
1.45215
1.45214
1.45155
1.4509
1.45167
1.45316
1.45527
1.45863
1.46284
1.46408
1.4642
1.46425
1.46413
1.4635
1.4622
1.46138
1.46128
1.46121
1.46162
1.46192
1.46138
1.46064
1.45958
1.45764
1.4547
1.45256
1.45192
1.45166
1.45154
1.45158
1.4517
1.45163
1.45128
1.4505
1.44887
1.44667
1.4457
1.44547
1.44537
1.44552
1.44644
1.4476
1.44799
1.44802
1.44777
1.44674
1.44506
1.44459
1.44484
1.44552
1.44689
1.44948
1.45301
1.45571
1.45805
1.45935
1.45991
1.46006
1.46007
1.45967
1.45937
1.45954
1.45998
1.46085
1.46131
1.46091
1.46034
1.45952
1.45799
1.45559
1.45368
1.45314
1.45287
1.45266
1.45249
1.45231
1.45201
1.45149
1.45068
1.45015
1.45016
1.45023
1.45037
1.45061
1.45086
1.4509
1.45084
1.45043
1.4493
1.4479
1.44736
1.91092
1.90716
1.90361
1.89985
1.89582
1.89128
1.88783
1.88383
1.87993
1.87529
1.8711
1.86832
1.8648
1.86108
1.85639
1.85025
1.84601
1.84651
1.85439
1.89511
1.95663
1.98208
1.98755
1.98348
1.9749
1.9665
1.95892
1.95188
1.94528
1.93938
1.93326
1.92695
1.92037
1.91358
1.90724
1.90052
1.8936
1.88684
1.87961
1.87263
1.86547
1.85804
1.85109
1.84415
1.8372
1.83066
1.82394
1.81713
1.811
1.80396
1.79764
1.79165
1.78505
1.77973
1.77299
1.76774
1.76238
1.75629
1.74997
1.74262
1.73779
1.73242
1.72521
1.71951
1.71485
1.70953
1.70237
1.69533
1.68796
1.68006
1.67251
1.6695
1.6684
1.66552
1.66105
1.65432
1.64652
1.64206
1.6376
1.63388
1.62996
1.62469
1.61796
1.61007
1.60358
1.5972
1.59453
1.59301
1.5902
1.58606
1.58069
1.57581
1.57096
1.5674
1.56251
1.55871
1.55616
1.55254
1.54861
1.54456
1.5387
1.53136
1.52489
1.52145
1.51929
1.51768
1.51548
1.51168
1.50673
1.5018
1.49762
1.49417
1.49025
1.48553
1.48289
1.48124
1.47952
1.47773
1.47595
1.47389
1.4703
1.46419
1.45906
1.45776
1.45738
1.45747
1.45859
1.45915
1.45863
1.45788
1.45632
1.4523
1.44818
1.4472
1.447
1.4471
1.44862
1.45034
1.45039
1.4499
1.44878
1.44714
1.44715
1.44822
1.45025
1.45342
1.45819
1.46088
1.46129
1.46161
1.46179
1.46152
1.46058
1.46006
1.46016
1.4605
1.46136
1.46213
1.46178
1.46101
1.4598
1.45769
1.45458
1.45226
1.45154
1.45121
1.45118
1.45157
1.45152
1.45139
1.45108
1.45022
1.44827
1.44563
1.44439
1.44405
1.44388
1.44395
1.44476
1.44581
1.44619
1.44622
1.44594
1.44479
1.44262
1.44166
1.44178
1.44228
1.44335
1.44531
1.44847
1.45142
1.4528
1.45398
1.4557
1.45697
1.45755
1.45771
1.45769
1.45799
1.45863
1.45983
1.46111
1.46095
1.46041
1.45968
1.45841
1.45623
1.45389
1.45279
1.45239
1.45207
1.4518
1.45159
1.45136
1.45091
1.45019
1.44955
1.44926
1.44926
1.44932
1.44946
1.44974
1.44987
1.44984
1.44957
1.44854
1.44695
1.44629
1.44608
1.90955
1.90607
1.90255
1.89894
1.89465
1.89087
1.88735
1.88325
1.87934
1.87443
1.87136
1.86801
1.86433
1.86049
1.8563
1.85258
1.84639
1.84399
1.84617
1.86603
1.92126
1.96833
1.98359
1.98213
1.97602
1.96777
1.9594
1.9521
1.94605
1.93985
1.93354
1.92721
1.9208
1.91475
1.90824
1.90143
1.89473
1.88771
1.88104
1.87404
1.86672
1.85991
1.85287
1.84619
1.8398
1.83298
1.82625
1.82001
1.81314
1.80668
1.80075
1.79432
1.78905
1.78295
1.77736
1.77231
1.76596
1.76034
1.75304
1.747
1.74166
1.73574
1.72882
1.72335
1.71836
1.71235
1.70424
1.69654
1.68968
1.6843
1.67977
1.67744
1.67538
1.67096
1.66495
1.6558
1.65023
1.64716
1.64329
1.63957
1.63473
1.62681
1.61863
1.61206
1.60762
1.60281
1.60028
1.59853
1.59566
1.59072
1.58525
1.58013
1.57634
1.57215
1.56715
1.56441
1.56079
1.55677
1.55299
1.54758
1.54016
1.53451
1.53113
1.52872
1.52598
1.52319
1.51962
1.51484
1.50995
1.50595
1.50259
1.49933
1.4956
1.49146
1.48824
1.48603
1.48401
1.48191
1.47951
1.47592
1.4694
1.46291
1.46117
1.4608
1.46069
1.46118
1.4612
1.46038
1.45947
1.45803
1.45388
1.44836
1.44631
1.44598
1.44606
1.44752
1.44923
1.44925
1.44861
1.44729
1.44485
1.44388
1.44437
1.4459
1.44854
1.45297
1.45664
1.45766
1.45814
1.45847
1.45831
1.45777
1.45776
1.45836
1.45914
1.46063
1.46214
1.462
1.46127
1.45992
1.45767
1.45447
1.45198
1.45118
1.45084
1.45077
1.45152
1.45163
1.45135
1.45102
1.45005
1.4478
1.44486
1.44343
1.44299
1.44278
1.44281
1.44354
1.44445
1.44476
1.44477
1.44454
1.44332
1.44066
1.43912
1.43909
1.4393
1.44001
1.44161
1.44446
1.44739
1.4488
1.4493
1.44985
1.4511
1.45301
1.45427
1.45492
1.45558
1.45655
1.45818
1.46027
1.46064
1.46015
1.45939
1.45826
1.4565
1.45432
1.45275
1.45223
1.45192
1.45165
1.45137
1.45109
1.45068
1.44977
1.449
1.4487
1.4485
1.44848
1.44855
1.44875
1.44894
1.44892
1.44871
1.44771
1.44595
1.44511
1.44488
1.44476
1.90805
1.90464
1.9012
1.89749
1.89336
1.89019
1.88645
1.88274
1.87836
1.87434
1.87144
1.8676
1.86404
1.8595
1.85652
1.85383
1.84782
1.8421
1.84269
1.84896
1.88448
1.94485
1.97221
1.97955
1.97603
1.96888
1.95999
1.95284
1.94645
1.94017
1.93378
1.92731
1.92135
1.91505
1.90858
1.9021
1.89522
1.88885
1.88213
1.87501
1.86841
1.86144
1.85485
1.84857
1.84179
1.8352
1.82884
1.8222
1.81584
1.80967
1.80334
1.79792
1.79214
1.78655
1.78172
1.77549
1.76985
1.7635
1.75637
1.75104
1.74473
1.73872
1.732
1.72671
1.72112
1.71427
1.70523
1.69848
1.69435
1.69089
1.68701
1.68427
1.68051
1.67468
1.66686
1.65847
1.65576
1.65286
1.64872
1.64399
1.63634
1.62671
1.62047
1.61645
1.6131
1.60913
1.60618
1.6039
1.60022
1.59471
1.58907
1.58486
1.58148
1.57614
1.57262
1.56895
1.56449
1.56083
1.55642
1.54903
1.54377
1.54033
1.53763
1.53504
1.53131
1.52731
1.52288
1.51793
1.51388
1.51095
1.50819
1.5049
1.50096
1.4969
1.49361
1.4911
1.48878
1.4862
1.48254
1.47581
1.46848
1.46606
1.46559
1.46529
1.46506
1.46442
1.46331
1.46207
1.46045
1.45625
1.45003
1.44686
1.44626
1.44614
1.44725
1.44896
1.44893
1.44799
1.44601
1.44294
1.44181
1.44189
1.44257
1.44452
1.4483
1.45204
1.45334
1.45378
1.45409
1.45381
1.45353
1.45418
1.45526
1.4568
1.45929
1.4616
1.46178
1.46125
1.45988
1.45758
1.45431
1.45166
1.45079
1.45044
1.45037
1.45133
1.45187
1.45149
1.45107
1.44997
1.44745
1.44424
1.44269
1.4422
1.44195
1.44204
1.44282
1.4435
1.44365
1.44368
1.44352
1.44231
1.43928
1.43709
1.43686
1.43684
1.43713
1.43828
1.44073
1.44373
1.44516
1.44542
1.4456
1.44573
1.44647
1.44809
1.45011
1.45181
1.45343
1.4556
1.45833
1.45945
1.45926
1.45864
1.45764
1.45613
1.45435
1.45286
1.45222
1.45193
1.45175
1.4516
1.4514
1.45092
1.44968
1.44851
1.44817
1.44803
1.44797
1.44794
1.44799
1.44815
1.44814
1.44795
1.44693
1.44496
1.44388
1.44362
1.44349
1.44355
1.90648
1.90309
1.89972
1.89578
1.8923
1.88913
1.88545
1.88179
1.87726
1.87431
1.87093
1.86721
1.86332
1.85894
1.85682
1.85379
1.8492
1.84197
1.84035
1.84223
1.85801
1.9087
1.95684
1.97434
1.97404
1.96928
1.96104
1.95354
1.94654
1.93993
1.93361
1.92783
1.9216
1.91507
1.90866
1.90198
1.89593
1.88965
1.88285
1.87652
1.86978
1.86337
1.85718
1.85042
1.8439
1.83737
1.83086
1.82486
1.81863
1.81233
1.8068
1.80098
1.79536
1.79052
1.78456
1.77869
1.77319
1.76569
1.76008
1.75375
1.74751
1.74128
1.73505
1.72946
1.72323
1.71563
1.70688
1.70342
1.70078
1.6973
1.69317
1.68945
1.68399
1.6772
1.66863
1.66364
1.66148
1.65786
1.65295
1.64621
1.63561
1.62837
1.62537
1.62217
1.61905
1.6151
1.6117
1.60862
1.6039
1.59809
1.59329
1.5899
1.58524
1.58097
1.57722
1.57231
1.56831
1.56471
1.55796
1.55255
1.54941
1.54613
1.54347
1.54003
1.5349
1.53052
1.52609
1.52199
1.51891
1.51643
1.51373
1.51022
1.50614
1.50222
1.499
1.4963
1.49349
1.48968
1.48288
1.47499
1.47213
1.4717
1.47118
1.4702
1.46894
1.4675
1.46591
1.46395
1.4597
1.4529
1.44818
1.44728
1.44704
1.44801
1.44964
1.44962
1.44868
1.44662
1.44275
1.44015
1.4399
1.43995
1.44109
1.44445
1.44799
1.44903
1.44921
1.44928
1.44835
1.44823
1.44919
1.45061
1.45314
1.457
1.46024
1.46073
1.46055
1.45946
1.45734
1.45414
1.45124
1.45029
1.44995
1.4499
1.45106
1.4521
1.45177
1.45123
1.44995
1.44716
1.44372
1.44214
1.44164
1.44134
1.4415
1.44243
1.44293
1.44292
1.44294
1.44279
1.44152
1.43828
1.43551
1.43494
1.43476
1.43477
1.43543
1.43742
1.44033
1.44188
1.44206
1.44207
1.44205
1.44173
1.44209
1.44321
1.44539
1.44824
1.45139
1.45519
1.45741
1.45753
1.45737
1.4567
1.45544
1.45389
1.45271
1.45229
1.452
1.45179
1.45172
1.45166
1.45126
1.44983
1.44821
1.44773
1.4476
1.44763
1.44772
1.44762
1.44761
1.44757
1.44734
1.44627
1.44405
1.44264
1.44233
1.44221
1.4423
1.4426
1.90487
1.90153
1.89803
1.89417
1.89124
1.88791
1.88455
1.8804
1.87675
1.87393
1.87015
1.86674
1.86215
1.85895
1.85652
1.85319
1.84921
1.84286
1.83824
1.83864
1.84317
1.87386
1.93054
1.96181
1.9711
1.96853
1.96195
1.95421
1.94651
1.93948
1.93385
1.92797
1.92166
1.91532
1.90855
1.90253
1.89654
1.89004
1.88399
1.8776
1.87155
1.86557
1.8589
1.85251
1.84591
1.83924
1.83347
1.82735
1.82113
1.81562
1.80972
1.80406
1.79904
1.79318
1.78716
1.78193
1.77469
1.76861
1.76253
1.7558
1.75018
1.74351
1.73796
1.73167
1.72531
1.71722
1.71171
1.70984
1.70678
1.70273
1.69803
1.69302
1.68638
1.67939
1.6722
1.66933
1.6664
1.66178
1.65543
1.64575
1.63615
1.6338
1.63131
1.62823
1.62505
1.62038
1.61646
1.61229
1.60681
1.60176
1.59814
1.59394
1.58951
1.58563
1.5806
1.57582
1.57259
1.567
1.56123
1.55817
1.55466
1.55135
1.54831
1.54288
1.53773
1.53388
1.53009
1.52715
1.52458
1.52212
1.51908
1.51523
1.51114
1.50742
1.50425
1.50119
1.4973
1.49039
1.48216
1.4789
1.47853
1.47788
1.47655
1.47485
1.47296
1.471
1.46863
1.46423
1.45705
1.45113
1.44972
1.4494
1.44991
1.45131
1.45125
1.45025
1.44792
1.44334
1.43997
1.43941
1.43925
1.43962
1.44193
1.44494
1.44579
1.44573
1.44503
1.44312
1.4425
1.44348
1.44503
1.44798
1.45292
1.4577
1.45858
1.4586
1.45816
1.45671
1.45386
1.45072
1.44964
1.44935
1.44937
1.45076
1.45225
1.45201
1.45144
1.45008
1.4471
1.44333
1.44163
1.44113
1.44086
1.44111
1.44225
1.44267
1.44254
1.44257
1.44232
1.44089
1.43752
1.43432
1.43341
1.43305
1.43291
1.43319
1.43462
1.43722
1.43898
1.43922
1.43917
1.43908
1.4385
1.43779
1.43811
1.43894
1.44087
1.44439
1.44908
1.45364
1.45512
1.45523
1.45517
1.45448
1.45312
1.45211
1.45187
1.45193
1.45186
1.45169
1.45158
1.45117
1.44978
1.44802
1.44738
1.44725
1.44724
1.44763
1.4476
1.44744
1.44731
1.44699
1.44579
1.44333
1.44147
1.44106
1.44093
1.44104
1.44158
1.44159
1.90349
1.90022
1.8965
1.89317
1.89022
1.88688
1.88334
1.87907
1.87634
1.87295
1.86938
1.86563
1.86132
1.8588
1.85546
1.85233
1.84846
1.84373
1.8387
1.83551
1.83697
1.85033
1.89503
1.94491
1.96549
1.96625
1.96218
1.95505
1.94635
1.93953
1.93386
1.92781
1.92169
1.91502
1.90901
1.90321
1.89686
1.89093
1.88469
1.87898
1.87346
1.86703
1.86084
1.85442
1.84759
1.84185
1.83581
1.82966
1.82413
1.81815
1.81254
1.80736
1.80144
1.79536
1.79009
1.78317
1.77683
1.77085
1.76403
1.75845
1.75207
1.74628
1.74045
1.73399
1.72797
1.72088
1.71834
1.71574
1.71192
1.70702
1.70143
1.69535
1.68862
1.68219
1.67702
1.67427
1.67013
1.66433
1.65595
1.64533
1.64161
1.64018
1.63715
1.63434
1.63023
1.62464
1.62026
1.61518
1.60982
1.60617
1.60236
1.5979
1.59404
1.58921
1.58366
1.58014
1.57578
1.57001
1.56677
1.56319
1.55921
1.55591
1.55116
1.54489
1.54136
1.53806
1.53516
1.53272
1.53024
1.52767
1.52434
1.52026
1.51605
1.51224
1.50879
1.50473
1.49788
1.48963
1.48612
1.48573
1.48503
1.48362
1.48173
1.47952
1.47724
1.47465
1.47012
1.46236
1.45535
1.45342
1.45307
1.45314
1.45396
1.4539
1.453
1.45087
1.44578
1.44035
1.43875
1.43859
1.43908
1.44127
1.44351
1.44381
1.44347
1.44241
1.43957
1.43749
1.43796
1.4395
1.44239
1.4472
1.45339
1.4554
1.45564
1.45569
1.45494
1.45255
1.44959
1.44864
1.44852
1.44878
1.4505
1.45236
1.45219
1.45159
1.4502
1.44718
1.44315
1.4413
1.44073
1.44043
1.44071
1.44215
1.44272
1.44248
1.4424
1.44196
1.44034
1.43689
1.43352
1.43233
1.43182
1.43151
1.43156
1.43254
1.43459
1.43634
1.43676
1.43674
1.43662
1.43602
1.43466
1.43413
1.43455
1.43549
1.43747
1.44109
1.44598
1.45058
1.45221
1.45251
1.4525
1.4518
1.45106
1.45095
1.45114
1.45164
1.45156
1.45131
1.45077
1.44948
1.44776
1.44702
1.44689
1.44687
1.44738
1.44768
1.44749
1.44733
1.44696
1.44564
1.44288
1.44049
1.4399
1.43973
1.43982
1.44058
1.44074
1.44064
1.90234
1.89899
1.89527
1.89229
1.88911
1.88588
1.88177
1.87836
1.87557
1.87186
1.86855
1.86413
1.86102
1.85807
1.85436
1.85117
1.84703
1.84402
1.83938
1.83336
1.83367
1.83749
1.86331
1.91633
1.95266
1.96291
1.96124
1.9556
1.94694
1.94002
1.93363
1.9276
1.9213
1.91541
1.90976
1.90352
1.89771
1.89155
1.88591
1.88085
1.87478
1.86872
1.86256
1.85578
1.85002
1.84401
1.83787
1.8324
1.82627
1.82064
1.81541
1.80937
1.80322
1.79786
1.79118
1.78477
1.77887
1.77217
1.76643
1.76064
1.7544
1.74924
1.74274
1.73743
1.73122
1.72691
1.72454
1.72057
1.71608
1.70992
1.70372
1.6973
1.69132
1.68566
1.68169
1.67812
1.67264
1.66553
1.65566
1.6496
1.64845
1.64617
1.64309
1.63987
1.63372
1.62785
1.62322
1.6178
1.61384
1.61054
1.6062
1.60238
1.59792
1.59211
1.58778
1.58407
1.57863
1.57509
1.57157
1.56713
1.56328
1.55911
1.55243
1.54855
1.54589
1.54296
1.54071
1.53824
1.5358
1.53292
1.52922
1.52497
1.52054
1.51636
1.5118
1.50495
1.49697
1.4934
1.49304
1.49243
1.49106
1.48917
1.48682
1.48427
1.48148
1.4771
1.46907
1.46086
1.45823
1.45785
1.45775
1.45782
1.45751
1.45665
1.45471
1.44948
1.44297
1.44019
1.43977
1.44008
1.44208
1.44382
1.44359
1.44283
1.44085
1.43688
1.43396
1.43394
1.43497
1.43733
1.44129
1.44752
1.45127
1.452
1.45231
1.45194
1.4496
1.44698
1.44667
1.44692
1.44766
1.45006
1.45251
1.4524
1.45169
1.45022
1.44732
1.44313
1.44101
1.44037
1.43998
1.44026
1.44191
1.44279
1.44253
1.44229
1.44156
1.43975
1.43629
1.43302
1.43171
1.4311
1.43064
1.43052
1.43112
1.43262
1.43408
1.43463
1.43464
1.43449
1.43392
1.43253
1.43129
1.43131
1.43185
1.43304
1.43497
1.43804
1.44244
1.44621
1.44811
1.44905
1.44919
1.44912
1.44917
1.44967
1.45074
1.45102
1.45082
1.45025
1.44906
1.44739
1.44659
1.44645
1.44644
1.44698
1.4477
1.44759
1.44741
1.44708
1.44576
1.44284
1.43988
1.43892
1.4387
1.43872
1.43955
1.44004
1.43984
1.43974
1.90135
1.89781
1.89443
1.89141
1.88817
1.88464
1.88055
1.87784
1.87441
1.87098
1.86713
1.86319
1.86059
1.85692
1.8536
1.84965
1.84623
1.84399
1.84005
1.83356
1.83092
1.83252
1.84292
1.88205
1.93333
1.95423
1.95939
1.95559
1.94801
1.94068
1.9338
1.927
1.92117
1.91599
1.91003
1.9043
1.89825
1.89248
1.88775
1.88206
1.87618
1.87029
1.86359
1.85784
1.85185
1.84562
1.84022
1.83404
1.82831
1.82318
1.8171
1.81088
1.80537
1.79874
1.79237
1.7866
1.78009
1.77429
1.76898
1.76266
1.75774
1.75174
1.74622
1.74135
1.73577
1.73304
1.72907
1.72449
1.71883
1.71164
1.70569
1.69961
1.69447
1.68937
1.6856
1.68072
1.67417
1.66609
1.65843
1.65651
1.65489
1.65175
1.64857
1.64347
1.63555
1.63063
1.6258
1.62126
1.6183
1.61445
1.61064
1.60663
1.60099
1.59571
1.5921
1.58711
1.58325
1.57977
1.57514
1.5707
1.56662
1.56039
1.55545
1.55351
1.5508
1.54846
1.54617
1.54372
1.54106
1.53766
1.5335
1.52876
1.52406
1.51872
1.51156
1.50392
1.50056
1.50024
1.49988
1.49866
1.49687
1.49455
1.49185
1.48883
1.48444
1.47652
1.46767
1.46417
1.46359
1.46333
1.46292
1.46217
1.46116
1.45932
1.45416
1.44684
1.44278
1.4421
1.44221
1.444
1.44554
1.44511
1.44401