/*--------------------------------*- C++ -*----------------------------------*\
  =========                 |
  \\      /  F ield         | OpenFOAM: The Open Source CFD Toolbox
   \\    /   O peration     | Website:  https://openfoam.org
    \\  /    A nd           | Version:  7
     \\/     M anipulation  |
\*---------------------------------------------------------------------------*/
FoamFile
{
    version     2.0;
    format      ascii;
    class       volVectorField;
    location    "3.2";
    object      U;
}
// * * * * * * * * * * * * * * * * * * * * * * * * * * * * * * * * * * * * * //

dimensions      [0 1 -1 0 0 0 0];

internalField   nonuniform List<vector> 
16192
(
(3 1.05785e-16 0)
(3 3.22586e-17 0)
(3 -1.52232e-16 0)
(3 -1.65004e-16 0)
(3 -2.62709e-16 0)
(3 -7.69491e-17 0)
(3 2.56334e-16 0)
(3 1.09299e-15 0)
(3 1.15994e-15 0)
(3 7.43508e-16 0)
(3 -3.97766e-16 0)
(3 -7.19711e-16 0)
(3 -7.16565e-16 0)
(3 -1.49073e-16 0)
(3 2.7437e-16 0)
(3 3.66039e-16 0)
(3 1.88843e-16 0)
(3 6.32422e-16 0)
(3 8.05108e-16 0)
(3 4.33618e-16 0)
(3 2.92449e-16 0)
(3 1.36506e-17 0)
(3 -2.53043e-16 0)
(3 -2.87758e-16 0)
(3 -9.01596e-16 0)
(3 -1.56121e-15 0)
(3 -2.3818e-16 0)
(3 1.15097e-16 0)
(3 3.20638e-17 0)
(3 2.35645e-16 0)
(3 1.38758e-15 0)
(3 2.88705e-15 0)
(3 7.34811e-16 0)
(3 5.98077e-17 0)
(3 -9.10975e-16 0)
(3 -1.64566e-15 0)
(3 -1.07476e-15 0)
(3 -5.62275e-16 0)
(3 1.56939e-16 0)
(3 6.82002e-16 0)
(3 -2.99575e-16 0)
(3 -5.77616e-16 0)
(3 -5.20981e-16 0)
(3 -7.09655e-16 0)
(3 -7.90662e-16 0)
(3 -2.47151e-16 0)
(3 -2.8338e-16 0)
(3 3.49159e-16 0)
(3 6.23088e-16 0)
(3 8.94974e-16 0)
(3 1.27696e-15 0)
(3 1.11867e-15 0)
(3 7.5797e-16 0)
(3 -9.69538e-17 0)
(3 -4.70112e-16 0)
(3 -2.77749e-16 0)
(3 1.24147e-16 0)
(3 5.8639e-17 0)
(3 -2.25371e-16 0)
(3 -5.39176e-16 0)
(3 -4.03198e-16 0)
(3 -2.39987e-16 0)
(3 -1.80565e-16 0)
(3 2.67426e-16 0)
(3 9.09538e-16 0)
(3 1.18239e-15 0)
(3 1.2362e-15 0)
(3 1.34608e-15 0)
(3 9.20685e-16 0)
(3 8.13562e-16 0)
(3 1.21558e-15 0)
(3 1.47989e-15 0)
(3 1.05425e-15 0)
(3 4.2822e-16 0)
(3 1.13866e-15 0)
(3 2.21905e-15 0)
(3 2.75975e-15 0)
(3 1.66293e-15 0)
(3 -5.97187e-16 0)
(3 -7.52944e-16 0)
(3 -5.49562e-16 0)
(3 -2.8595e-16 0)
(3 -2.55248e-16 0)
(3 -1.91573e-16 0)
(3 -6.91046e-17 0)
(3 -9.81082e-16 0)
(3 -1.25359e-15 0)
(3 -9.73421e-16 0)
(3 -1.34306e-15 0)
(3 -1.52414e-15 0)
(3 -1.39034e-15 0)
(3 -1.1919e-15 0)
(3 -9.49107e-16 0)
(3 -3.28854e-16 0)
(3 2.47592e-16 0)
(3 4.25511e-16 0)
(3 2.54231e-16 0)
(3 3.1734e-16 0)
(3 -1.09668e-17 0)
(3 -3.03624e-16 0)
(3 -8.00279e-16 0)
(3 -9.03043e-16 0)
(3 -8.28997e-16 0)
(3 -5.33632e-16 0)
(3 -4.60074e-16 0)
(3 -2.15569e-16 0)
(3 -1.95213e-16 0)
(3 1.24498e-15 0)
(3 1.37725e-15 0)
(3 1.04504e-15 0)
(3 2.06933e-16 0)
(3 -2.34918e-16 0)
(3 -1.02638e-15 0)
(3 -4.28567e-16 0)
(3 4.05127e-16 0)
(3 5.74781e-16 0)
(3 6.07263e-16 0)
(3 8.29781e-16 0)
(3 7.8086e-16 0)
(3 7.78744e-16 0)
(3 8.59018e-16 0)
(3 4.65678e-16 0)
(3 1.20476e-16 0)
(3 2.83282e-16 0)
(3 2.62173e-16 0)
(3 1.13954e-16 0)
(3 -1.89722e-16 0)
(3 -4.60089e-16 0)
(3 -5.83966e-16 0)
(3 -9.08404e-16 0)
(3 -1.17862e-15 0)
(3 -1.05821e-15 0)
(3 -4.88009e-16 0)
(3 3.72663e-16 0)
(3 5.18504e-16 0)
(3 -1.40827e-16 0)
(3 -1.13327e-16 0)
(3 -3.24308e-16 0)
(3 -3.54485e-16 0)
(3 1.866e-16 0)
(3 1.34408e-16 0)
(3 -5.59802e-16 0)
(3 -2.26927e-15 0)
(2.79317 0.0019568 0)
(0.965262 0.00558466 0)
(0.75942 0.00300078 0)
(0.748943 0.00626598 0)
(0.732246 0.00674453 0)
(0.716725 0.00738696 0)
(0.699915 0.00740124 0)
(0.683939 0.00652334 0)
(0.669507 0.00563929 0)
(0.655903 0.00544311 0)
(0.642014 0.00584224 0)
(0.627284 0.00657608 0)
(0.611778 0.00721005 0)
(0.596347 0.00713528 0)
(0.582076 0.00646016 0)
(0.56869 0.00613508 0)
(0.554754 0.00644273 0)
(0.539399 0.00686499 0)
(0.523238 0.00699547 0)
(0.507229 0.0069478 0)
(0.491611 0.00698099 0)
(0.476083 0.00709719 0)
(0.460361 0.00723702 0)
(0.444369 0.0073931 0)
(0.428289 0.00754271 0)
(0.412462 0.0076409 0)
(0.397102 0.00769721 0)
(0.382102 0.00774458 0)
(0.367166 0.00779375 0)
(0.352003 0.00784086 0)
(0.336392 0.00788584 0)
(0.320229 0.0079323 0)
(0.303568 0.00798454 0)
(0.28659 0.00804668 0)
(0.269501 0.00812364 0)
(0.252449 0.00822062 0)
(0.235496 0.00833434 0)
(0.218604 0.00845129 0)
(0.201612 0.0085592 0)
(0.184292 0.00865795 0)
(0.166492 0.00876794 0)
(0.14826 0.00891885 0)
(0.12979 0.00912947 0)
(0.111193 0.00939612 0)
(0.0924344 0.00970787 0)
(0.0730413 0.0100023 0)
(0.0531108 0.0102592 0)
(0.0323274 0.0103313 0)
(0.0107231 0.0103727 0)
(3 1.83803e-17 0)
(3 -4.5259e-16 0)
(3 -3.51219e-16 0)
(3 -1.01086e-17 0)
(3 4.85347e-17 0)
(3 5.3922e-17 0)
(3 2.70782e-16 0)
(3 1.47057e-15 0)
(3 2.56789e-15 0)
(3 2.02957e-15 0)
(3 3.4255e-16 0)
(3 3.08613e-18 0)
(3 -2.63165e-16 0)
(3 -2.09306e-16 0)
(3 -1.9774e-16 0)
(3 -3.8553e-16 0)
(3 2.43304e-16 0)
(3 1.09266e-15 0)
(3 1.17232e-15 0)
(3 -7.42624e-16 0)
(3 -2.17797e-15 0)
(3 -3.1043e-15 0)
(3 -2.99512e-15 0)
(3 -2.7694e-15 0)
(3 -2.45098e-15 0)
(3 -2.42749e-15 0)
(3 -2.8617e-15 0)
(3 -1.5915e-15 0)
(3 -9.93325e-16 0)
(3 3.0968e-16 0)
(3 2.40108e-15 0)
(3 3.48563e-15 0)
(3 2.35646e-15 0)
(3 7.64661e-16 0)
(3 -7.82356e-16 0)
(3 -1.94238e-15 0)
(3 -1.1151e-15 0)
(3 3.85285e-16 0)
(3 1.26422e-15 0)
(3 1.31194e-15 0)
(3 7.87049e-16 0)
(3 -6.16703e-16 0)
(3 -7.98495e-16 0)
(3 -1.2986e-15 0)
(3 -9.22919e-16 0)
(3 -5.27047e-16 0)
(3 3.27827e-16 0)
(3 4.57017e-16 0)
(3 1.1366e-15 0)
(3 2.32969e-15 0)
(3 2.22761e-15 0)
(3 2.84518e-15 0)
(3 3.2323e-15 0)
(3 1.80493e-15 0)
(3 9.01527e-16 0)
(3 6.63681e-16 0)
(3 1.18975e-15 0)
(3 8.47019e-16 0)
(3 5.41391e-16 0)
(3 -5.14072e-16 0)
(3 -8.37397e-16 0)
(3 -4.84309e-16 0)
(3 -1.9012e-16 0)
(3 -2.89054e-17 0)
(3 6.062e-16 0)
(3 9.0959e-16 0)
(3 1.04386e-15 0)
(3 1.35315e-15 0)
(3 1.02845e-15 0)
(3 7.12978e-16 0)
(3 1.19961e-15 0)
(3 1.43951e-15 0)
(3 9.22941e-16 0)
(3 2.01985e-16 0)
(3 8.85402e-16 0)
(3 1.8172e-15 0)
(3 2.42327e-15 0)
(3 1.41746e-15 0)
(3 -1.29174e-15 0)
(3 -2.50707e-15 0)
(3 -5.09144e-16 0)
(3 8.30075e-16 0)
(3 9.43681e-16 0)
(3 9.5391e-16 0)
(3 1.3696e-15 0)
(3 1.45922e-16 0)
(3 -5.38804e-16 0)
(3 -3.05652e-16 0)
(3 -4.28939e-16 0)
(3 -1.05489e-15 0)
(3 -2.09998e-15 0)
(3 -2.10071e-15 0)
(3 -2.04926e-15 0)
(3 -1.747e-15 0)
(3 -3.54688e-16 0)
(3 5.57814e-16 0)
(3 6.42331e-16 0)
(3 8.01843e-16 0)
(3 8.30623e-16 0)
(3 2.19337e-16 0)
(3 -3.22392e-16 0)
(3 -4.28747e-16 0)
(3 -2.29487e-16 0)
(3 -6.11242e-16 0)
(3 -5.43215e-16 0)
(3 7.82392e-16 0)
(3 8.10055e-16 0)
(3 1.24392e-15 0)
(3 1.26372e-15 0)
(3 7.55144e-16 0)
(3 -3.28911e-16 0)
(3 -8.92459e-16 0)
(3 -1.74417e-15 0)
(3 -7.09385e-16 0)
(3 2.2207e-16 0)
(3 2.59242e-16 0)
(3 5.09166e-16 0)
(3 1.53321e-15 0)
(3 1.63446e-15 0)
(3 1.95641e-15 0)
(3 1.64414e-15 0)
(3 5.3167e-16 0)
(3 1.24709e-15 0)
(3 1.88909e-15 0)
(3 1.78542e-15 0)
(3 9.67155e-16 0)
(3 3.50467e-16 0)
(3 -2.96682e-16 0)
(3 -1.3203e-15 0)
(3 -2.36028e-15 0)
(3 -2.78298e-15 0)
(3 -2.03547e-15 0)
(3 8.04079e-16 0)
(3 1.71456e-15 0)
(3 1.48341e-15 0)
(3 2.73895e-16 0)
(3 -9.39777e-16 0)
(3 -1.8929e-15 0)
(3 -9.43203e-16 0)
(3 4.24833e-16 0)
(3 6.44767e-16 0)
(3 -6.95002e-16 0)
(3 -3.11075e-15 0)
(2.80066 0.00914257 0)
(0.967423 0.0225069 0)
(0.755863 0.0128054 0)
(0.743038 0.0152244 0)
(0.728011 0.0182257 0)
(0.71316 0.0206818 0)
(0.697084 0.0211434 0)
(0.681532 0.0192994 0)
(0.666929 0.0169455 0)
(0.652828 0.0160705 0)
(0.638578 0.016968 0)
(0.623788 0.0189862 0)
(0.608483 0.0208108 0)
(0.593345 0.0207329 0)
(0.579254 0.0190254 0)
(0.565699 0.0181059 0)
(0.551576 0.0189289 0)
(0.536151 0.0201142 0)
(0.520022 0.0204523 0)
(0.504097 0.0203199 0)
(0.488524 0.0204522 0)
(0.472985 0.0208098 0)
(0.457212 0.0211732 0)
(0.441165 0.0216252 0)
(0.42502 0.0221103 0)
(0.409116 0.0224885 0)
(0.393671 0.0227355 0)
(0.378597 0.0229257 0)
(0.363606 0.0230828 0)
(0.348407 0.0232043 0)
(0.332774 0.0233089 0)
(0.316604 0.0234253 0)
(0.299958 0.0235762 0)
(0.283024 0.0237751 0)
(0.266007 0.0240287 0)
(0.249049 0.0243425 0)
(0.232203 0.0247074 0)
(0.215426 0.0250928 0)
(0.198576 0.025467 0)
(0.181457 0.0258215 0)
(0.163955 0.0261982 0)
(0.146135 0.0266762 0)
(0.128164 0.0273239 0)
(0.110087 0.0281497 0)
(0.0917934 0.0291343 0)
(0.0727611 0.0300935 0)
(0.0530818 0.030938 0)
(0.0324212 0.0312359 0)
(0.0108363 0.031479 0)
(3 -2.3458e-16 0)
(3 -1.44619e-16 0)
(3 2.46445e-16 0)
(3 3.36708e-16 0)
(3 8.26468e-16 0)
(3 8.90528e-16 0)
(3 1.3363e-15 0)
(3 1.15593e-15 0)
(3 1.45177e-15 0)
(3 1.40042e-15 0)
(3 1.15525e-15 0)
(3 8.9194e-16 0)
(3 1.02273e-15 0)
(3 8.67602e-16 0)
(3 3.33113e-16 0)
(3 -8.33062e-16 0)
(3 -3.75298e-16 0)
(3 3.09346e-16 0)
(3 1.67665e-16 0)
(3 -1.60797e-15 0)
(3 -1.84933e-15 0)
(3 -1.47252e-15 0)
(3 -9.20421e-16 0)
(3 -2.0872e-15 0)
(3 -1.75348e-15 0)
(3 -1.80468e-15 0)
(3 -1.65658e-15 0)
(3 -1.88895e-15 0)
(3 -8.6152e-16 0)
(3 5.835e-16 0)
(3 1.62622e-15 0)
(3 8.25157e-16 0)
(3 3.45787e-16 0)
(3 -3.44121e-16 0)
(3 -1.3806e-15 0)
(3 -1.56937e-15 0)
(3 2.73348e-16 0)
(3 1.50144e-15 0)
(3 1.84733e-15 0)
(3 9.93249e-16 0)
(3 9.4508e-16 0)
(3 6.03412e-16 0)
(3 -1.63144e-17 0)
(3 3.72878e-16 0)
(3 4.18324e-16 0)
(3 6.61348e-16 0)
(3 1.12493e-15 0)
(3 1.54891e-15 0)
(3 1.11915e-15 0)
(3 1.04021e-15 0)
(3 2.54401e-15 0)
(3 3.12505e-15 0)
(3 3.061e-15 0)
(3 2.94376e-15 0)
(3 2.05021e-15 0)
(3 1.16064e-15 0)
(3 6.17629e-16 0)
(3 -6.13853e-16 0)
(3 -8.77107e-17 0)
(3 -4.90452e-16 0)
(3 -1.1782e-15 0)
(3 -1.72669e-15 0)
(3 -1.47806e-15 0)
(3 -1.84138e-15 0)
(3 -1.37564e-15 0)
(3 -1.06869e-15 0)
(3 -1.81281e-16 0)
(3 3.79011e-16 0)
(3 3.5518e-16 0)
(3 2.82528e-16 0)
(3 2.3302e-17 0)
(3 -4.32973e-16 0)
(3 -5.81851e-16 0)
(3 3.57275e-16 0)
(3 1.09116e-15 0)
(3 2.49713e-15 0)
(3 3.14444e-15 0)
(3 1.85723e-15 0)
(3 9.20444e-16 0)
(3 1.29938e-15 0)
(3 1.25206e-15 0)
(3 1.21717e-15 0)
(3 9.11233e-16 0)
(3 -6.52357e-16 0)
(3 -1.39831e-15 0)
(3 -8.14949e-16 0)
(3 -1.15706e-15 0)
(3 -1.29903e-15 0)
(3 -9.09851e-16 0)
(3 -2.18339e-15 0)
(3 -2.50721e-15 0)
(3 -2.35634e-15 0)
(3 -1.81288e-15 0)
(3 -1.48385e-15 0)
(3 -1.01265e-15 0)
(3 3.90671e-16 0)
(3 7.93436e-16 0)
(3 4.22043e-16 0)
(3 8.9347e-16 0)
(3 9.41823e-16 0)
(3 8.55045e-16 0)
(3 4.76368e-16 0)
(3 -2.62986e-17 0)
(3 -2.61367e-16 0)
(3 -5.76231e-16 0)
(3 1.6142e-16 0)
(3 9.67141e-16 0)
(3 8.89087e-16 0)
(3 6.28129e-16 0)
(3 1.48524e-16 0)
(3 -3.27016e-16 0)
(3 5.58103e-16 0)
(3 -5.83119e-16 0)
(3 -1.1047e-15 0)
(3 -6.71119e-16 0)
(3 -7.82742e-16 0)
(3 4.28804e-16 0)
(3 1.40074e-15 0)
(3 1.81096e-15 0)
(3 1.50986e-15 0)
(3 1.23118e-16 0)
(3 -4.30293e-16 0)
(3 2.05752e-15 0)
(3 3.66528e-15 0)
(3 3.32885e-15 0)
(3 2.80828e-15 0)
(3 1.41772e-15 0)
(3 -2.44481e-16 0)
(3 -2.2173e-15 0)
(3 -2.20721e-15 0)
(3 -1.35854e-15 0)
(3 -6.29824e-16 0)
(3 9.31873e-17 0)
(3 4.37686e-16 0)
(3 -5.15011e-16 0)
(3 -1.42615e-15 0)
(3 -3.9551e-15 0)
(3 -4.62215e-15 0)
(3 -1.35953e-15 0)
(3 4.50346e-16 0)
(3 8.05729e-16 0)
(3 -7.52263e-16 0)
(3 1.16421e-15 0)
(2.81921 0.0154521 0)
(0.975725 0.0374556 0)
(0.757697 0.0240017 0)
(0.742934 0.0266414 0)
(0.72768 0.0306212 0)
(0.713028 0.0340245 0)
(0.697572 0.0347403 0)
(0.68246 0.0323204 0)
(0.667654 0.0291311 0)
(0.652847 0.0278296 0)
(0.637937 0.02908 0)
(0.622865 0.032017 0)
(0.607637 0.03464 0)
(0.592749 0.0344799 0)
(0.578871 0.0320012 0)
(0.565144 0.0307181 0)
(0.550815 0.0320699 0)
(0.535285 0.0339502 0)
(0.519125 0.0344581 0)
(0.503226 0.0342563 0)
(0.487651 0.0344862 0)
(0.472071 0.0350281 0)
(0.456228 0.0355901 0)
(0.440097 0.0362573 0)
(0.423839 0.0370185 0)
(0.407773 0.0376174 0)
(0.392128 0.0380287 0)
(0.376848 0.038366 0)
(0.361671 0.0386535 0)
(0.346302 0.0388741 0)
(0.330506 0.0390562 0)
(0.314167 0.0392486 0)
(0.297345 0.039488 0)
(0.280224 0.03979 0)
(0.263009 0.040158 0)
(0.245844 0.0405972 0)
(0.228782 0.0410988 0)
(0.21179 0.041625 0)
(0.194752 0.0421374 0)
(0.177529 0.0426369 0)
(0.160068 0.0431974 0)
(0.142482 0.0439418 0)
(0.124933 0.0449733 0)
(0.107403 0.0463005 0)
(0.0896855 0.0479059 0)
(0.0711933 0.0495521 0)
(0.0520226 0.0511062 0)
(0.0318185 0.0518247 0)
(0.0107003 0.0524992 0)
(3 2.36942e-16 0)
(3 7.07637e-16 0)
(3 4.94564e-16 0)
(3 1.20893e-16 0)
(3 -6.72572e-17 0)
(3 -1.8643e-16 0)
(3 -4.41239e-17 0)
(3 -2.28956e-16 0)
(3 -1.02519e-16 0)
(3 1.76985e-16 0)
(3 7.68324e-16 0)
(3 1.39659e-16 0)
(3 -2.7186e-16 0)
(3 -4.8798e-16 0)
(3 -6.26626e-16 0)
(3 -1.3125e-15 0)
(3 -1.95524e-15 0)
(3 -2.46186e-15 0)
(3 -2.34455e-15 0)
(3 -1.421e-15 0)
(3 -2.30168e-17 0)
(3 8.1596e-16 0)
(3 7.99331e-16 0)
(3 2.12713e-16 0)
(3 -7.62467e-16 0)
(3 -1.1415e-15 0)
(3 -5.99585e-16 0)
(3 -6.09505e-16 0)
(3 4.21939e-16 0)
(3 1.20232e-15 0)
(3 1.67931e-15 0)
(3 -4.70791e-16 0)
(3 -1.43806e-15 0)
(3 -1.66939e-15 0)
(3 -2.32028e-15 0)
(3 -2.22918e-15 0)
(3 2.77227e-16 0)
(3 1.09476e-15 0)
(3 1.10663e-15 0)
(3 9.8231e-16 0)
(3 -2.04016e-16 0)
(3 -6.81942e-16 0)
(3 -5.19065e-16 0)
(3 -3.88814e-17 0)
(3 4.26021e-16 0)
(3 2.20893e-16 0)
(3 -3.58477e-16 0)
(3 2.97453e-16 0)
(3 8.69005e-16 0)
(3 1.11937e-15 0)
(3 1.94018e-15 0)
(3 2.04886e-15 0)
(3 3.11466e-15 0)
(3 3.41974e-15 0)
(3 2.86176e-15 0)
(3 2.41622e-15 0)
(3 2.2043e-15 0)
(3 1.54955e-15 0)
(3 1.35187e-15 0)
(3 7.52401e-16 0)
(3 3.59968e-17 0)
(3 -1.38089e-15 0)
(3 -1.26201e-15 0)
(3 -8.5884e-16 0)
(3 -8.39542e-16 0)
(3 -7.68042e-16 0)
(3 -1.70558e-17 0)
(3 2.44084e-16 0)
(3 4.79164e-16 0)
(3 2.74911e-16 0)
(3 -2.77798e-16 0)
(3 -2.01799e-16 0)
(3 1.95712e-16 0)
(3 1.68395e-15 0)
(3 2.08144e-15 0)
(3 2.42661e-15 0)
(3 2.64312e-15 0)
(3 2.35619e-15 0)
(3 2.12024e-15 0)
(3 3.34984e-15 0)
(3 3.09272e-15 0)
(3 1.81786e-15 0)
(3 -1.72144e-16 0)
(3 -1.53841e-15 0)
(3 -2.56817e-15 0)
(3 -2.69144e-15 0)
(3 -2.7253e-15 0)
(3 -2.99284e-15 0)
(3 -2.96993e-15 0)
(3 -3.11332e-15 0)
(3 -2.90216e-15 0)
(3 -2.88291e-15 0)
(3 -2.42439e-15 0)
(3 -1.88207e-15 0)
(3 -1.50929e-15 0)
(3 -7.06427e-16 0)
(3 -9.25401e-16 0)
(3 -6.96332e-16 0)
(3 -4.27637e-16 0)
(3 -6.25754e-16 0)
(3 -4.83912e-16 0)
(3 -5.16583e-16 0)
(3 -7.63715e-16 0)
(3 -8.75283e-16 0)
(3 1.1594e-15 0)
(3 1.37029e-15 0)
(3 1.45829e-15 0)
(3 1.18832e-15 0)
(3 6.55238e-16 0)
(3 1.4489e-15 0)
(3 1.84997e-15 0)
(3 1.87763e-15 0)
(3 6.24498e-16 0)
(3 -1.08621e-16 0)
(3 2.18467e-16 0)
(3 3.79562e-16 0)
(3 4.49035e-16 0)
(3 3.20203e-16 0)
(3 -2.4834e-16 0)
(3 -2.48294e-15 0)
(3 -2.65936e-15 0)
(3 -2.05784e-15 0)
(3 9.40558e-16 0)
(3 1.79919e-15 0)
(3 1.78768e-15 0)
(3 5.84149e-16 0)
(3 -3.93179e-16 0)
(3 -1.1933e-15 0)
(3 -2.52212e-15 0)
(3 -2.3852e-15 0)
(3 -1.45849e-15 0)
(3 -1.03219e-15 0)
(3 -1.1433e-15 0)
(3 -1.61312e-15 0)
(3 -2.43374e-15 0)
(3 -3.95026e-15 0)
(3 -4.25454e-15 0)
(3 -3.21168e-15 0)
(3 -2.15297e-15 0)
(3 -5.94485e-16 0)
(3 -3.42799e-16 0)
(3 -5.7417e-16 0)
(3 -1.84632e-15 0)
(2.84392 0.0197808 0)
(0.986712 0.0508202 0)
(0.759567 0.0357874 0)
(0.744585 0.0378303 0)
(0.730022 0.0422609 0)
(0.715843 0.0462769 0)
(0.700996 0.0472214 0)
(0.68623 0.0447654 0)
(0.671351 0.041283 0)
(0.656161 0.0397355 0)
(0.640918 0.0412491 0)
(0.625801 0.0448241 0)
(0.610709 0.04792 0)
(0.595952 0.0477236 0)
(0.582072 0.0447773 0)
(0.568062 0.0433269 0)
(0.553555 0.0451757 0)
(0.538014 0.0476506 0)
(0.521898 0.0482854 0)
(0.506041 0.0480639 0)
(0.490447 0.048489 0)
(0.47481 0.0492893 0)
(0.458901 0.049995 0)
(0.442698 0.0508321 0)
(0.426336 0.0518151 0)
(0.410091 0.0526457 0)
(0.394198 0.0532767 0)
(0.378644 0.0538413 0)
(0.363204 0.0543446 0)
(0.347593 0.0547421 0)
(0.331566 0.0550696 0)
(0.314989 0.0554012 0)
(0.297906 0.0557905 0)
(0.280488 0.0562544 0)
(0.262931 0.0567868 0)
(0.245371 0.0573825 0)
(0.227861 0.0580237 0)
(0.210369 0.0586602 0)
(0.19281 0.0592463 0)
(0.175111 0.0597948 0)
(0.157302 0.0604104 0)
(0.139562 0.0612578 0)
(0.122066 0.0624838 0)
(0.104752 0.0641157 0)
(0.0873582 0.0661653 0)
(0.0692909 0.0684089 0)
(0.0506233 0.0706857 0)
(0.0309589 0.0719319 0)
(0.0104724 0.0731831 0)
(3 3.78079e-16 0)
(3 2.32813e-16 0)
(3 6.50162e-17 0)
(3 -7.72668e-17 0)
(3 -4.96764e-16 0)
(3 -1.26323e-15 0)
(3 -1.53889e-15 0)
(3 -9.50511e-16 0)
(3 -6.59867e-16 0)
(3 -1.41684e-16 0)
(3 1.98551e-16 0)
(3 4.54832e-16 0)
(3 -3.87247e-16 0)
(3 -1.14794e-15 0)
(3 -2.19634e-15 0)
(3 -1.9399e-15 0)
(3 -2.72884e-15 0)
(3 -2.78247e-15 0)
(3 -2.55212e-15 0)
(3 -8.13901e-16 0)
(3 -1.06241e-16 0)
(3 -1.3563e-16 0)
(3 -3.67651e-16 0)
(3 -3.46616e-16 0)
(3 -8.08365e-16 0)
(3 -1.56991e-15 0)
(3 -1.26319e-15 0)
(3 -4.67527e-16 0)
(3 7.08279e-16 0)
(3 2.20549e-15 0)
(3 2.24613e-15 0)
(3 1.03158e-15 0)
(3 -1.10091e-15 0)
(3 -1.3009e-15 0)
(3 -2.01494e-15 0)
(3 -1.69495e-15 0)
(3 5.83678e-17 0)
(3 1.0956e-16 0)
(3 -2.41651e-16 0)
(3 -1.48342e-16 0)
(3 -6.02297e-16 0)
(3 -1.22304e-15 0)
(3 -1.29488e-15 0)
(3 -9.55603e-16 0)
(3 -4.66538e-16 0)
(3 -6.33384e-16 0)
(3 -6.82804e-16 0)
(3 -2.87748e-16 0)
(3 1.85241e-16 0)
(3 7.74199e-16 0)
(3 1.93914e-15 0)
(3 3.41016e-15 0)
(3 4.68129e-15 0)
(3 4.32001e-15 0)
(3 3.50334e-15 0)
(3 3.01443e-15 0)
(3 3.55444e-15 0)
(3 3.74952e-15 0)
(3 3.22894e-15 0)
(3 1.2278e-15 0)
(3 9.31543e-16 0)
(3 7.94958e-16 0)
(3 5.76673e-16 0)
(3 7.71726e-16 0)
(3 7.88491e-16 0)
(3 9.74002e-16 0)
(3 6.34162e-16 0)
(3 4.16022e-16 0)
(3 1.53455e-15 0)
(3 1.39293e-15 0)
(3 1.0653e-15 0)
(3 7.46554e-16 0)
(3 1.33366e-15 0)
(3 1.23445e-15 0)
(3 8.59531e-16 0)
(3 1.16126e-16 0)
(3 8.21307e-18 0)
(3 6.80441e-16 0)
(3 2.00901e-15 0)
(3 2.00511e-15 0)
(3 2.30641e-15 0)
(3 2.26323e-15 0)
(3 1.31063e-15 0)
(3 -4.54818e-16 0)
(3 -6.69807e-16 0)
(3 -1.39836e-15 0)
(3 -1.414e-15 0)
(3 -1.68271e-15 0)
(3 -2.40453e-15 0)
(3 -2.38918e-15 0)
(3 -2.55417e-15 0)
(3 -3.00763e-15 0)
(3 -3.49294e-15 0)
(3 -3.57916e-15 0)
(3 -2.19835e-15 0)
(3 -1.25285e-15 0)
(3 -7.95818e-16 0)
(3 -8.64417e-16 0)
(3 -1.04178e-15 0)
(3 -1.63514e-15 0)
(3 -1.56399e-15 0)
(3 -1.45957e-15 0)
(3 -1.1513e-15 0)
(3 -1.21617e-15 0)
(3 -2.39453e-17 0)
(3 1.60146e-15 0)
(3 2.0444e-15 0)
(3 2.31127e-15 0)
(3 1.50782e-15 0)
(3 7.24664e-16 0)
(3 8.0571e-16 0)
(3 2.37063e-16 0)
(3 2.3061e-16 0)
(3 1.02706e-16 0)
(3 -9.9088e-16 0)
(3 -1.04253e-15 0)
(3 -7.21707e-16 0)
(3 -8.91295e-16 0)
(3 -1.39863e-15 0)
(3 -2.70124e-15 0)
(3 -3.89668e-15 0)
(3 -2.69618e-15 0)
(3 -7.6651e-16 0)
(3 -3.25671e-16 0)
(3 9.51039e-17 0)
(3 -2.42699e-16 0)
(3 -1.52038e-15 0)
(3 -1.79987e-15 0)
(3 -1.19635e-15 0)
(3 -9.36154e-16 0)
(3 -2.30744e-15 0)
(3 -2.6129e-15 0)
(3 -2.18513e-15 0)
(3 -4.26874e-15 0)
(3 -5.14695e-15 0)
(3 -5.14929e-15 0)
(3 -3.48048e-15 0)
(3 -1.56907e-15 0)
(3 -1.27248e-15 0)
(3 -1.76245e-15 0)
(3 -1.99269e-15 0)
(3 -1.93839e-15 0)
(3 -4.59781e-15 0)
(2.87243 0.0236427 0)
(0.999992 0.0639002 0)
(0.760386 0.0476538 0)
(0.744442 0.0488336 0)
(0.729984 0.053857 0)
(0.715836 0.058396 0)
(0.701154 0.0596573 0)
(0.68636 0.0575496 0)
(0.671304 0.0541262 0)
(0.655854 0.0522836 0)
(0.640472 0.053673 0)
(0.625593 0.0575634 0)
(0.610914 0.0610645 0)
(0.596454 0.0610326 0)
(0.58263 0.0579945 0)
(0.568413 0.0564864 0)
(0.553783 0.0586703 0)
(0.538318 0.061542 0)
(0.522347 0.0622379 0)
(0.506606 0.0620502 0)
(0.491067 0.0627379 0)
(0.475478 0.0638136 0)
(0.459645 0.0646307 0)
(0.443567 0.0655318 0)
(0.427334 0.0666463 0)
(0.411158 0.0676493 0)
(0.395251 0.0684795 0)
(0.379632 0.0692891 0)
(0.364127 0.0700526 0)
(0.34848 0.0706781 0)
(0.332449 0.0711934 0)
(0.315892 0.0716963 0)
(0.298825 0.0722644 0)
(0.281392 0.0729225 0)
(0.263761 0.0736555 0)
(0.246052 0.0744425 0)
(0.2283 0.0752528 0)
(0.210469 0.0760269 0)
(0.192492 0.0767146 0)
(0.17435 0.0773352 0)
(0.15614 0.0780041 0)
(0.138089 0.0788982 0)
(0.120379 0.0801839 0)
(0.10295 0.0819119 0)
(0.0855456 0.0841615 0)
(0.0676831 0.0868199 0)
(0.0493467 0.0897346 0)
(0.0301306 0.091535 0)
(0.0102442 0.0934199 0)
(3 -9.55107e-17 0)
(3 -3.27012e-16 0)
(3 -4.70744e-16 0)
(3 -3.89876e-16 0)
(3 -3.86331e-16 0)
(3 -2.65067e-16 0)
(3 4.51943e-17 0)
(3 3.33653e-16 0)
(3 1.26434e-16 0)
(3 1.1735e-16 0)
(3 5.43229e-16 0)
(3 1.07952e-15 0)
(3 4.94803e-16 0)
(3 -9.63122e-16 0)
(3 -1.61132e-15 0)
(3 -2.4082e-15 0)
(3 -2.00546e-15 0)
(3 -1.72015e-15 0)
(3 -2.33176e-15 0)
(3 -2.51251e-15 0)
(3 -2.37626e-15 0)
(3 -1.31296e-15 0)
(3 -1.63674e-15 0)
(3 -2.38449e-15 0)
(3 -2.73548e-15 0)
(3 -2.84173e-15 0)
(3 -2.35417e-15 0)
(3 -2.0407e-15 0)
(3 4.49618e-16 0)
(3 1.24329e-15 0)
(3 9.37606e-16 0)
(3 1.41575e-15 0)
(3 7.83406e-16 0)
(3 -3.14275e-16 0)
(3 -1.11686e-15 0)
(3 -9.30769e-16 0)
(3 -3.4974e-16 0)
(3 -7.39489e-16 0)
(3 -1.87634e-15 0)
(3 -1.59033e-15 0)
(3 -5.94953e-16 0)
(3 -2.1995e-16 0)
(3 -2.9926e-16 0)
(3 -8.89104e-16 0)
(3 -4.71736e-16 0)
(3 -5.82827e-18 0)
(3 -3.79061e-16 0)
(3 -5.87588e-16 0)
(3 2.48592e-16 0)
(3 9.85525e-16 0)
(3 2.04295e-15 0)
(3 2.66497e-15 0)
(3 2.51965e-15 0)
(3 3.92908e-15 0)
(3 4.25828e-15 0)
(3 3.80342e-15 0)
(3 3.37351e-15 0)
(3 4.17649e-15 0)
(3 4.02709e-15 0)
(3 1.75782e-15 0)
(3 1.42879e-15 0)
(3 1.35189e-15 0)
(3 5.30773e-16 0)
(3 4.87359e-16 0)
(3 3.97045e-16 0)
(3 3.60437e-16 0)
(3 2.19073e-16 0)
(3 6.16152e-16 0)
(3 1.63958e-15 0)
(3 1.96557e-15 0)
(3 1.90765e-15 0)
(3 1.57625e-15 0)
(3 1.41662e-15 0)
(3 1.27073e-15 0)
(3 9.40346e-16 0)
(3 9.21637e-16 0)
(3 -1.52729e-16 0)
(3 -6.19817e-16 0)
(3 -2.17879e-16 0)
(3 9.18766e-16 0)
(3 1.53603e-15 0)
(3 1.47118e-15 0)
(3 1.82305e-15 0)
(3 1.43148e-15 0)
(3 1.26588e-15 0)
(3 9.40449e-16 0)
(3 -3.48265e-16 0)
(3 -1.03012e-15 0)
(3 -1.93827e-15 0)
(3 -2.75605e-15 0)
(3 -3.70071e-15 0)
(3 -3.41923e-15 0)
(3 -2.92496e-15 0)
(3 -2.52716e-15 0)
(3 -1.86928e-15 0)
(3 -8.47037e-16 0)
(3 -2.96839e-16 0)
(3 -5.72096e-16 0)
(3 -1.23972e-15 0)
(3 -1.31849e-15 0)
(3 -1.44398e-15 0)
(3 -1.68883e-15 0)
(3 -2.18535e-15 0)
(3 -2.14867e-15 0)
(3 -1.99178e-15 0)
(3 -5.67989e-16 0)
(3 1.34107e-16 0)
(3 4.29764e-16 0)
(3 4.83539e-16 0)
(3 -5.07541e-16 0)
(3 -9.7409e-16 0)
(3 -1.26867e-15 0)
(3 -1.4151e-15 0)
(3 -1.61695e-15 0)
(3 -1.90726e-15 0)
(3 -1.88545e-15 0)
(3 -1.98444e-15 0)
(3 -1.8108e-15 0)
(3 -1.73667e-15 0)
(3 -2.06575e-15 0)
(3 -2.64463e-15 0)
(3 -2.37604e-15 0)
(3 -1.71985e-15 0)
(3 -4.09718e-16 0)
(3 4.01927e-16 0)
(3 3.39907e-16 0)
(3 -6.87394e-16 0)
(3 -6.97795e-16 0)
(3 2.64916e-16 0)
(3 7.17381e-16 0)
(3 -1.98343e-15 0)
(3 -2.81378e-15 0)
(3 -2.3701e-15 0)
(3 -3.88211e-15 0)
(3 -4.94436e-15 0)
(3 -4.28903e-15 0)
(3 -2.83621e-15 0)
(3 -1.86598e-15 0)
(3 -2.41092e-15 0)
(3 -3.20629e-15 0)
(3 -3.503e-15 0)
(3 -3.11199e-15 0)
(3 -2.69335e-15 0)
(2.90473 0.0277828 0)
(1.01681 0.0776677 0)
(0.761758 0.0600991 0)
(0.744711 0.0607146 0)
(0.729859 0.0658169 0)
(0.715853 0.0702243 0)
(0.701909 0.0716291 0)
(0.687941 0.0699316 0)
(0.673463 0.0668211 0)
(0.65813 0.0649383 0)
(0.642469 0.0661931 0)
(0.6273 0.0701818 0)
(0.612493 0.0739254 0)
(0.597959 0.0741706 0)
(0.584037 0.0713003 0)
(0.569672 0.0698891 0)
(0.554998 0.0723202 0)
(0.539653 0.0754198 0)
(0.523832 0.0760987 0)
(0.508142 0.0759495 0)
(0.492541 0.0769267 0)
(0.476833 0.0783078 0)
(0.460885 0.0792443 0)
(0.444755 0.0801835 0)
(0.428525 0.0813934 0)
(0.412342 0.0825389 0)
(0.396375 0.0835532 0)
(0.380663 0.0846133 0)
(0.365077 0.085666 0)
(0.349401 0.0865625 0)
(0.333417 0.0873072 0)
(0.316985 0.0880119 0)
(0.30009 0.08878 0)
(0.282828 0.0896529 0)
(0.265319 0.0906149 0)
(0.247643 0.0916311 0)
(0.229814 0.0926567 0)
(0.211791 0.0936218 0)
(0.193527 0.0944706 0)
(0.175043 0.0952235 0)
(0.156482 0.0959919 0)
(0.138081 0.0969387 0)
(0.120013 0.0982255 0)
(0.102245 0.0999208 0)
(0.0845808 0.102182 0)
(0.0667297 0.105064 0)
(0.0485103 0.108475 0)
(0.0295547 0.11077 0)
(0.0100948 0.113256 0)
(3 -1.86642e-16 0)
(3 -2.21833e-16 0)
(3 -2.68814e-16 0)
(3 -3.74186e-16 0)
(3 -1.81375e-16 0)
(3 -2.82385e-17 0)
(3 2.51243e-16 0)
(3 3.23643e-16 0)
(3 5.70725e-16 0)
(3 9.74387e-16 0)
(3 1.07502e-15 0)
(3 4.28297e-16 0)
(3 -2.39349e-16 0)
(3 -6.46414e-16 0)
(3 -8.12211e-16 0)
(3 -1.48396e-15 0)
(3 -9.18479e-16 0)
(3 -8.81066e-16 0)
(3 -7.67438e-16 0)
(3 -8.39001e-16 0)
(3 -4.79706e-17 0)
(3 -9.30995e-17 0)
(3 -7.40413e-16 0)
(3 -9.78363e-16 0)
(3 -1.26936e-15 0)
(3 -1.90727e-15 0)
(3 -2.64145e-15 0)
(3 -1.74809e-15 0)
(3 3.06649e-16 0)
(3 3.61717e-16 0)
(3 3.92258e-16 0)
(3 2.25374e-16 0)
(3 4.39369e-16 0)
(3 5.96329e-16 0)
(3 9.89829e-19 0)
(3 -6.04766e-16 0)
(3 -5.39601e-16 0)
(3 -4.84851e-16 0)
(3 -1.00117e-15 0)
(3 -8.20954e-16 0)
(3 -5.14953e-16 0)
(3 -1.41797e-16 0)
(3 7.07096e-17 0)
(3 7.33877e-17 0)
(3 2.30153e-16 0)
(3 1.25185e-16 0)
(3 3.37593e-16 0)
(3 8.29837e-16 0)
(3 1.59014e-15 0)
(3 -1.72333e-16 0)
(3 6.21146e-16 0)
(3 1.08967e-15 0)
(3 1.44925e-15 0)
(3 1.81667e-15 0)
(3 2.84481e-15 0)
(3 3.02663e-15 0)
(3 2.82303e-15 0)
(3 3.2139e-15 0)
(3 3.11408e-15 0)
(3 2.52686e-15 0)
(3 9.57891e-16 0)
(3 -2.25717e-17 0)
(3 -3.36434e-16 0)
(3 -9.00852e-16 0)
(3 -5.99465e-16 0)
(3 -3.00852e-16 0)
(3 3.121e-16 0)
(3 7.16577e-16 0)
(3 9.55681e-16 0)
(3 2.32337e-15 0)
(3 2.34151e-15 0)
(3 2.69378e-15 0)
(3 2.04081e-15 0)
(3 1.69967e-15 0)
(3 1.90077e-15 0)
(3 1.95254e-15 0)
(3 1.37419e-15 0)
(3 1.40059e-15 0)
(3 9.57464e-16 0)
(3 7.87843e-16 0)
(3 2.1661e-17 0)
(3 5.23365e-17 0)
(3 8.73319e-16 0)
(3 2.2163e-15 0)
(3 2.52674e-15 0)
(3 1.87561e-15 0)
(3 6.51503e-16 0)
(3 1.56834e-16 0)
(3 -8.29402e-16 0)
(3 -2.10303e-15 0)
(3 -3.65715e-15 0)
(3 -3.54998e-15 0)
(3 -1.69367e-15 0)
(3 -3.34557e-16 0)
(3 -3.39416e-16 0)
(3 -1.25961e-15 0)
(3 -1.43969e-15 0)
(3 -1.56127e-15 0)
(3 -1.9918e-15 0)
(3 -2.27129e-15 0)
(3 -2.32958e-15 0)
(3 -3.12876e-15 0)
(3 -3.1173e-15 0)
(3 -2.25341e-15 0)
(3 -2.06977e-15 0)
(3 -1.82348e-15 0)
(3 -1.25708e-15 0)
(3 -1.73493e-15 0)
(3 -5.9997e-16 0)
(3 1.4512e-16 0)
(3 -9.14979e-17 0)
(3 -7.32609e-16 0)
(3 -1.96371e-15 0)
(3 -2.1518e-15 0)
(3 -1.98245e-15 0)
(3 -2.67303e-15 0)
(3 -3.15791e-15 0)
(3 -3.18795e-15 0)
(3 -2.89238e-15 0)
(3 -2.74696e-15 0)
(3 -2.80918e-15 0)
(3 -2.07267e-15 0)
(3 -1.29208e-15 0)
(3 -1.01843e-15 0)
(3 -1.51804e-15 0)
(3 -1.51921e-15 0)
(3 -9.20756e-16 0)
(3 -3.32713e-16 0)
(3 2.01017e-16 0)
(3 -3.28875e-16 0)
(3 -1.50238e-15 0)
(3 -2.92383e-15 0)
(3 -2.96444e-15 0)
(3 -2.91422e-15 0)
(3 -2.7754e-15 0)
(3 -2.70689e-15 0)
(3 -2.66679e-15 0)
(3 -2.79415e-15 0)
(3 -3.10415e-15 0)
(3 -3.30788e-15 0)
(3 -3.12394e-15 0)
(3 -2.6558e-15 0)
(3 -1.98968e-15 0)
(2.94334 0.0321464 0)
(1.03997 0.0903882 0)
(0.767496 0.0716612 0)
(0.749948 0.0732151 0)
(0.734525 0.077943 0)
(0.720375 0.0815621 0)
(0.70692 0.0825684 0)
(0.693457 0.0812505 0)
(0.679189 0.078948 0)
(0.663668 0.0776697 0)
(0.647425 0.0791822 0)
(0.631566 0.0832468 0)
(0.616337 0.0869923 0)
(0.601705 0.0873407 0)
(0.587793 0.0846835 0)
(0.5734 0.0834757 0)
(0.558682 0.0861344 0)
(0.543296 0.0894058 0)
(0.527354 0.0900958 0)
(0.511399 0.090046 0)
(0.49545 0.0913509 0)
(0.479374 0.0930733 0)
(0.46309 0.0941501 0)
(0.446721 0.0951101 0)
(0.430348 0.0963657 0)
(0.414047 0.0975963 0)
(0.397922 0.0987336 0)
(0.382004 0.0999849 0)
(0.366201 0.101282 0)
(0.350348 0.102424 0)
(0.334282 0.103388 0)
(0.317892 0.10429 0)
(0.30115 0.105257 0)
(0.284096 0.106348 0)
(0.266782 0.107553 0)
(0.249233 0.10883 0)
(0.231431 0.110122 0)
(0.213332 0.111348 0)
(0.194914 0.11244 0)
(0.176231 0.113405 0)
(0.157443 0.114337 0)
(0.138764 0.115366 0)
(0.120346 0.11664 0)
(0.102206 0.118241 0)
(0.08423 0.120408 0)
(0.0662728 0.123352 0)
(0.0480864 0.127121 0)
(0.0292411 0.129801 0)
(0.0100291 0.132806 0)
(3 -9.482e-17 0)
(3 -2.923e-16 0)
(3 -2.97442e-16 0)
(3 -4.93607e-16 0)
(3 -4.64508e-16 0)
(3 -5.10229e-17 0)
(3 -8.62095e-17 0)
(3 -4.84976e-17 0)
(3 9.4923e-16 0)
(3 1.75953e-15 0)
(3 1.69855e-15 0)
(3 5.54293e-16 0)
(3 -3.05421e-17 0)
(3 -2.42287e-16 0)
(3 -1.6804e-16 0)
(3 -2.89361e-16 0)
(3 -1.15729e-15 0)
(3 -1.48082e-15 0)
(3 1.81689e-16 0)
(3 1.66102e-16 0)
(3 1.82281e-16 0)
(3 5.0911e-16 0)
(3 1.47272e-16 0)
(3 -7.08473e-16 0)
(3 -1.05045e-15 0)
(3 -1.02539e-15 0)
(3 -1.60245e-15 0)
(3 -1.49907e-15 0)
(3 -1.29742e-15 0)
(3 -9.8609e-16 0)
(3 -4.46766e-16 0)
(3 -5.14892e-16 0)
(3 -4.05558e-16 0)
(3 -8.64959e-17 0)
(3 4.80427e-17 0)
(3 -2.16661e-16 0)
(3 -7.49282e-16 0)
(3 -6.82941e-16 0)
(3 -6.05766e-16 0)
(3 -9.42165e-16 0)
(3 -1.17665e-15 0)
(3 -8.36813e-16 0)
(3 4.31608e-16 0)
(3 1.56516e-15 0)
(3 1.17022e-15 0)
(3 1.7937e-16 0)
(3 2.79542e-17 0)
(3 2.35285e-15 0)
(3 2.41183e-15 0)
(3 1.52192e-15 0)
(3 8.63536e-16 0)
(3 5.64248e-16 0)
(3 5.15536e-17 0)
(3 -3.08731e-16 0)
(3 4.02697e-16 0)
(3 1.55437e-15 0)
(3 1.80843e-15 0)
(3 1.53422e-15 0)
(3 1.30537e-15 0)
(3 1.42188e-15 0)
(3 1.41795e-15 0)
(3 1.34937e-15 0)
(3 8.58129e-16 0)
(3 -7.49583e-17 0)
(3 3.77574e-17 0)
(3 3.15747e-16 0)
(3 1.61954e-16 0)
(3 3.93155e-16 0)
(3 7.66522e-16 0)
(3 1.33774e-15 0)
(3 1.89806e-15 0)
(3 2.57049e-15 0)
(3 2.47568e-15 0)
(3 2.29428e-15 0)
(3 1.97165e-15 0)
(3 1.81461e-15 0)
(3 1.30877e-15 0)
(3 1.17921e-15 0)
(3 9.86166e-16 0)
(3 4.56081e-16 0)
(3 2.34451e-16 0)
(3 -1.64092e-16 0)
(3 -3.51752e-16 0)
(3 -3.03048e-16 0)
(3 6.24558e-16 0)
(3 1.50167e-15 0)
(3 1.05575e-15 0)
(3 3.51436e-16 0)
(3 -3.6953e-16 0)
(3 -9.43183e-16 0)
(3 -1.53185e-15 0)
(3 -1.36575e-15 0)
(3 7.60226e-16 0)
(3 1.14523e-15 0)
(3 5.69956e-16 0)
(3 -1.4056e-15 0)
(3 -2.12087e-15 0)
(3 -2.44576e-15 0)
(3 -2.42785e-15 0)
(3 -2.29981e-15 0)
(3 -2.39531e-15 0)
(3 -5.43939e-16 0)
(3 7.80662e-16 0)
(3 4.66158e-16 0)
(3 -6.17769e-16 0)
(3 -5.52671e-16 0)
(3 -5.60186e-16 0)
(3 -9.58252e-16 0)
(3 -1.55786e-15 0)
(3 -4.54485e-16 0)
(3 -3.79895e-16 0)
(3 -5.48855e-16 0)
(3 -9.96329e-16 0)
(3 -1.66265e-15 0)
(3 -1.84489e-15 0)
(3 -2.87359e-15 0)
(3 -3.41208e-15 0)
(3 -3.93951e-15 0)
(3 -3.779e-15 0)
(3 -3.03992e-15 0)
(3 -1.97328e-15 0)
(3 -1.08427e-15 0)
(3 -1.21377e-15 0)
(3 -2.14144e-15 0)
(3 -2.27138e-15 0)
(3 -1.86174e-15 0)
(3 -7.10057e-16 0)
(3 -4.30513e-16 0)
(3 -6.13605e-16 0)
(3 -1.32067e-15 0)
(3 -2.10433e-15 0)
(3 -3.4412e-15 0)
(3 -4.35452e-15 0)
(3 -4.06169e-15 0)
(3 -3.44084e-15 0)
(3 -3.67688e-15 0)
(3 -3.90881e-15 0)
(3 -3.65286e-15 0)
(3 -3.18179e-15 0)
(3 -2.49241e-15 0)
(3 -2.2765e-15 0)
(3 -2.56167e-15 0)
(3 -3.56512e-15 0)
(2.97321 0.00663368 0)
(1.06805 0.10217 0)
(0.774538 0.0809976 0)
(0.757654 0.0851325 0)
(0.741975 0.0894809 0)
(0.727604 0.0918351 0)
(0.714252 0.0923668 0)
(0.700879 0.0916168 0)
(0.6866 0.0904932 0)
(0.670919 0.0903592 0)
(0.654303 0.0924649 0)
(0.637957 0.0965049 0)
(0.622458 0.0998957 0)
(0.607899 0.100067 0)
(0.594082 0.0976648 0)
(0.579687 0.096871 0)