/*--------------------------------*- C++ -*----------------------------------*\
  =========                 |
  \\      /  F ield         | OpenFOAM: The Open Source CFD Toolbox
   \\    /   O peration     | Website:  https://openfoam.org
    \\  /    A nd           | Version:  7
     \\/     M anipulation  |
\*---------------------------------------------------------------------------*/
FoamFile
{
    version     2.0;
    format      ascii;
    class       volVectorField;
    location    "3.8";
    object      U;
}
// * * * * * * * * * * * * * * * * * * * * * * * * * * * * * * * * * * * * * //

dimensions      [0 1 -1 0 0 0 0];

internalField   nonuniform List<vector> 
4128
(
(2.46314 -0.437564 0)
(2.46884 -0.443051 0)
(2.47106 -0.447697 0)
(2.4704 -0.447391 0)
(2.47348 -0.442173 0)
(2.47863 -0.435934 0)
(2.48344 -0.430264 0)
(2.48836 -0.426479 0)
(2.49413 -0.425267 0)
(2.50078 -0.427075 0)
(2.50737 -0.431191 0)
(2.5137 -0.435143 0)
(2.51961 -0.438733 0)
(2.52379 -0.443715 0)
(2.52702 -0.447151 0)
(2.53032 -0.445344 0)
(2.53356 -0.439276 0)
(2.53526 -0.431083 0)
(2.53581 -0.424075 0)
(2.53853 -0.421008 0)
(2.54357 -0.420708 0)
(2.54981 -0.422202 0)
(2.55555 -0.425265 0)
(2.55995 -0.428505 0)
(2.56251 -0.430903 0)
(2.5675 -0.431551 0)
(2.57446 -0.431178 0)
(2.58139 -0.430908 0)
(2.588 -0.430959 0)
(2.5941 -0.431378 0)
(2.59786 -0.429911 0)
(2.59905 -0.425466 0)
(2.60068 -0.421121 0)
(2.60225 -0.420244 0)
(2.60307 -0.422702 0)
(2.60287 -0.425338 0)
(2.60413 -0.42597 0)
(2.60944 -0.425213 0)
(2.61603 -0.424509 0)
(2.62297 -0.42321 0)
(2.62997 -0.420593 0)
(2.63594 -0.418243 0)
(2.64142 -0.416477 0)
(2.64611 -0.414844 0)
(2.65032 -0.416014 0)
(2.6526 -0.418941 0)
(2.65281 -0.421254 0)
(2.65212 -0.422769 0)
(2.65276 -0.42318 0)
(2.65466 -0.420029 0)
(2.65624 -0.414005 0)
(2.65654 -0.408385 0)
(2.66074 -0.406969 0)
(2.66665 -0.407709 0)
(2.6721 -0.408676 0)
(2.6779 -0.409859 0)
(2.68477 -0.411278 0)
(2.68999 -0.412267 0)
(2.69236 -0.413076 0)
(2.69411 -0.412996 0)
(2.69584 -0.410628 0)
(2.69612 -0.405521 0)
(2.69386 -0.398771 0)
(2.69473 -0.394177 0)
(2.69902 -0.393027 0)
(2.70379 -0.393977 0)
(2.70953 -0.395347 0)
(2.71532 -0.397063 0)
(2.71994 -0.399194 0)
(2.7215 -0.401399 0)
(2.71839 -0.405304 0)
(2.7208 -0.407273 0)
(2.7268 -0.407241 0)
(2.7325 -0.406462 0)
(2.73764 -0.403584 0)
(2.74033 -0.397398 0)
(2.74013 -0.390503 0)
(2.73919 -0.386033 0)
(2.73792 -0.385175 0)
(2.73432 -0.386248 0)
(2.73687 -0.386424 0)
(2.74165 -0.387035 0)
(2.74573 -0.387841 0)
(2.75076 -0.388185 0)
(2.75591 -0.388168 0)
(2.76128 -0.388678 0)
(2.76569 -0.38844 0)
(2.76896 -0.388032 0)
(2.77359 -0.388325 0)
(2.77743 -0.388265 0)
(2.77644 -0.385408 0)
(2.76747 -0.377928 0)
(2.76386 -0.37259 0)
(2.76825 -0.371658 0)
(2.77004 -0.369272 0)
(2.77022 -0.358772 0)
(2.7628 -0.327955 0)
(2.74711 -0.273142 0)
(2.71587 -0.179129 0)
(2.6987 -0.0910671 0)
(2.68742 -0.0123072 0)
(2.62889 0.121752 0)
(2.60817 0.168602 0)
(2.60421 0.150376 0)
(2.60513 0.153546 0)
(2.59949 0.168373 0)
(2.59409 0.182973 0)
(2.59189 0.185506 0)
(2.59304 0.184769 0)
(2.59676 0.186145 0)
(2.59813 0.189381 0)
(2.59718 0.19314 0)
(2.59602 0.197829 0)
(2.59457 0.204447 0)
(2.59239 0.21155 0)
(2.58937 0.216503 0)
(2.58952 0.218725 0)
(2.59037 0.218601 0)
(2.59231 0.218541 0)
(2.59431 0.219053 0)
(2.59551 0.219794 0)
(2.59627 0.220783 0)
(2.59595 0.221917 0)
(2.59516 0.224268 0)
(2.59475 0.227918 0)
(2.59534 0.233185 0)
(2.59708 0.239747 0)
(2.60071 0.246539 0)
(2.60208 0.254807 0)
(2.46684 -0.42198 0)
(2.47088 -0.42647 0)
(2.47006 -0.433055 0)
(2.47384 -0.434446 0)
(2.48128 -0.432197 0)
(2.48865 -0.428258 0)
(2.49464 -0.423114 0)
(2.49793 -0.417499 0)
(2.49993 -0.413294 0)
(2.50296 -0.412543 0)
(2.5076 -0.416224 0)
(2.51225 -0.421084 0)
(2.51533 -0.425555 0)
(2.52024 -0.427869 0)
(2.52792 -0.429049 0)
(2.53492 -0.4282 0)
(2.54132 -0.425533 0)
(2.54655 -0.421452 0)
(2.54802 -0.415726 0)
(2.5462 -0.409993 0)
(2.54807 -0.408238 0)
(2.55297 -0.40982 0)
(2.5588 -0.411963 0)
(2.56029 -0.415325 0)
(2.56322 -0.417981 0)
(2.57093 -0.419092 0)
(2.57752 -0.417853 0)
(2.58365 -0.415128 0)
(2.58949 -0.412952 0)
(2.59509 -0.411291 0)
(2.59979 -0.409696 0)
(2.60314 -0.408154 0)
(2.60399 -0.407796 0)
(2.60384 -0.409989 0)
(2.60246 -0.412146 0)
(2.6015 -0.41345 0)
(2.60834 -0.414103 0)
(2.61482 -0.412849 0)
(2.62014 -0.409619 0)
(2.62484 -0.405755 0)
(2.62962 -0.402617 0)
(2.63539 -0.400881 0)
(2.64202 -0.400914 0)
(2.64807 -0.402155 0)
(2.65318 -0.403961 0)
(2.65594 -0.404697 0)
(2.65399 -0.406836 0)
(2.65261 -0.407958 0)
(2.6557 -0.407602 0)
(2.66029 -0.407083 0)
(2.66422 -0.405428 0)
(2.66641 -0.400837 0)
(2.66792 -0.394663 0)
(2.66924 -0.391665 0)
(2.67108 -0.392852 0)
(2.67483 -0.395536 0)
(2.67921 -0.397498 0)
(2.68389 -0.397841 0)
(2.68905 -0.397428 0)
(2.69489 -0.397492 0)
(2.7008 -0.397602 0)
(2.70531 -0.395606 0)
(2.70478 -0.389535 0)
(2.69838 -0.382191 0)
(2.69568 -0.379945 0)
(2.69895 -0.380689 0)
(2.70364 -0.38256 0)
(2.70853 -0.384327 0)
(2.71326 -0.385922 0)
(2.71636 -0.388094 0)
(2.71808 -0.390033 0)
(2.72197 -0.390797 0)
(2.72673 -0.390909 0)
(2.73189 -0.389749 0)
(2.73779 -0.387051 0)
(2.74331 -0.383739 0)
(2.74545 -0.379116 0)
(2.74075 -0.375513 0)
(2.7343 -0.374742 0)
(2.73313 -0.374929 0)
(2.73458 -0.375077 0)
(2.73761 -0.375441 0)
(2.74313 -0.375726 0)
(2.74819 -0.375653 0)
(2.75356 -0.374751 0)
(2.75996 -0.373989 0)
(2.76668 -0.374806 0)
(2.77233 -0.376202 0)
(2.77736 -0.377211 0)
(2.78172 -0.377783 0)
(2.78228 -0.377011 0)
(2.77596 -0.371018 0)
(2.77008 -0.364031 0)
(2.77021 -0.361142 0)
(2.77425 -0.360282 0)
(2.77801 -0.360324 0)
(2.78136 -0.35956 0)
(2.78363 -0.354701 0)
(2.77997 -0.336707 0)
(2.76867 -0.293376 0)
(2.75065 -0.230679 0)
(2.71423 -0.127856 0)
(2.70194 -0.0510537 0)
(2.66496 0.0489016 0)
(2.62291 0.168357 0)
(2.60472 0.185107 0)
(2.60541 0.173409 0)
(2.60689 0.176797 0)
(2.60749 0.181083 0)
(2.60688 0.185124 0)
(2.6055 0.188751 0)
(2.60422 0.193503 0)
(2.60395 0.19843 0)
(2.60292 0.204993 0)
(2.5998 0.213029 0)
(2.59476 0.220937 0)
(2.59247 0.227073 0)
(2.59252 0.229532 0)
(2.59314 0.229521 0)
(2.5944 0.228467 0)
(2.59722 0.228109 0)
(2.59967 0.227706 0)
(2.60064 0.227527 0)
(2.60146 0.229059 0)
(2.60167 0.232344 0)
(2.60129 0.236669 0)
(2.6037 0.242779 0)
(2.60731 0.251389 0)
(2.60753 0.259266 0)
(2.46066 -0.409313 0)
(2.46274 -0.413636 0)
(2.46976 -0.4165 0)
(2.47765 -0.417664 0)
(2.48594 -0.416813 0)
(2.49434 -0.41508 0)
(2.50245 -0.412638 0)
(2.50782 -0.408566 0)
(2.50841 -0.403346 0)
(2.5082 -0.400063 0)
(2.51029 -0.40136 0)
(2.51132 -0.407379 0)
(2.51693 -0.412695 0)
(2.52411 -0.4144 0)
(2.53038 -0.413791 0)
(2.53869 -0.41148 0)
(2.54593 -0.409602 0)
(2.55294 -0.408447 0)
(2.55782 -0.405083 0)
(2.55667 -0.398767 0)
(2.55047 -0.394901 0)
(2.54973 -0.397051 0)
(2.55264 -0.401327 0)
(2.55757 -0.404256 0)
(2.5655 -0.405881 0)
(2.57283 -0.406091 0)
(2.58084 -0.405819 0)
(2.58894 -0.404417 0)
(2.59592 -0.40238 0)
(2.6021 -0.39923 0)
(2.60672 -0.39549 0)
(2.60815 -0.392733 0)
(2.60399 -0.393504 0)
(2.59752 -0.398713 0)
(2.59681 -0.403156 0)
(2.60447 -0.403865 0)
(2.61153 -0.401503 0)
(2.61787 -0.398393 0)
(2.62446 -0.396451 0)
(2.63121 -0.395269 0)
(2.63752 -0.393273 0)
(2.64264 -0.389459 0)
(2.64545 -0.385846 0)
(2.64614 -0.38655 0)
(2.6458 -0.390522 0)
(2.64492 -0.393188 0)
(2.64615 -0.394579 0)
(2.65392 -0.395442 0)
(2.66001 -0.395362 0)
(2.66539 -0.393831 0)
(2.66969 -0.390915 0)
(2.6724 -0.386668 0)
(2.67236 -0.381372 0)
(2.67122 -0.378343 0)
(2.67071 -0.379108 0)
(2.67326 -0.38189 0)
(2.68027 -0.383835 0)
(2.6866 -0.38533 0)
(2.69292 -0.385826 0)
(2.69822 -0.385497 0)
(2.70465 -0.384952 0)
(2.71075 -0.38371 0)
(2.71327 -0.380056 0)
(2.70905 -0.373918 0)
(2.70192 -0.367931 0)
(2.70282 -0.36581 0)
(2.70715 -0.3663 0)
(2.71117 -0.368463 0)
(2.71339 -0.371897 0)
(2.71738 -0.375508 0)
(2.72323 -0.377213 0)
(2.72713 -0.377444 0)
(2.7309 -0.376536 0)
(2.73507 -0.374925 0)
(2.74004 -0.373646 0)
(2.74593 -0.372652 0)
(2.74953 -0.370926 0)
(2.74495 -0.367787 0)
(2.73587 -0.364649 0)
(2.73455 -0.363181 0)
(2.73806 -0.362513 0)
(2.74216 -0.361571 0)
(2.74671 -0.360469 0)
(2.75111 -0.360388 0)
(2.75567 -0.360039 0)
(2.76041 -0.359704 0)
(2.76586 -0.360377 0)
(2.77169 -0.361205 0)
(2.77599 -0.362482 0)
(2.77904 -0.363717 0)
(2.78096 -0.365092 0)
(2.77885 -0.363382 0)
(2.77186 -0.356453 0)
(2.76954 -0.35021 0)
(2.77326 -0.348966 0)
(2.77788 -0.349087 0)
(2.78234 -0.349876 0)
(2.78598 -0.350118 0)
(2.79015 -0.349796 0)
(2.79287 -0.346495 0)
(2.79393 -0.338036 0)
(2.78684 -0.312077 0)
(2.77265 -0.256898 0)
(2.74466 -0.1742 0)
(2.70877 -0.0695345 0)
(2.70346 -0.00727753 0)
(2.63869 0.110977 0)
(2.6168 0.206037 0)
(2.60906 0.205483 0)
(2.61433 0.190776 0)
(2.61493 0.190391 0)
(2.6155 0.193455 0)
(2.61394 0.195433 0)
(2.61242 0.200118 0)
(2.60935 0.209685 0)
(2.60501 0.217298 0)
(2.60003 0.224787 0)
(2.59559 0.230645 0)
(2.59489 0.234058 0)
(2.59646 0.236652 0)
(2.59747 0.238305 0)
(2.59955 0.239597 0)
(2.60257 0.239147 0)
(2.60581 0.237631 0)
(2.60772 0.237168 0)
(2.60832 0.238355 0)
(2.61035 0.243294 0)
(2.61315 0.251958 0)
(2.61461 0.261195 0)
(2.45999 -0.397001 0)
(2.46528 -0.400392 0)
(2.47228 -0.400689 0)
(2.47927 -0.399781 0)
(2.48794 -0.399195 0)
(2.497 -0.398408 0)
(2.5059 -0.397809 0)
(2.51422 -0.396009 0)
(2.51799 -0.39245 0)
(2.51259 -0.389916 0)
(2.50684 -0.39213 0)
(2.51201 -0.395357 0)
(2.51892 -0.396656 0)
(2.52483 -0.396736 0)
(2.53219 -0.396223 0)
(2.54125 -0.394063 0)
(2.54822 -0.392103 0)
(2.55623 -0.391525 0)
(2.56339 -0.391275 0)
(2.56516 -0.39004 0)
(2.55607 -0.387829 0)
(2.54763 -0.388062 0)
(2.55346 -0.390253 0)
(2.56119 -0.391822 0)
(2.56788 -0.392101 0)
(2.57524 -0.391288 0)
(2.58306 -0.389427 0)
(2.59142 -0.387314 0)
(2.59908 -0.385369 0)
(2.60612 -0.384361 0)
(2.61284 -0.383637 0)
(2.61533 -0.382962 0)
(2.60644 -0.383291 0)
(2.59632 -0.385973 0)
(2.60175 -0.387888 0)
(2.60819 -0.387901 0)
(2.6159 -0.38715 0)
(2.62348 -0.386282 0)
(2.6302 -0.384196 0)
(2.63572 -0.380675 0)
(2.641 -0.377584 0)
(2.64597 -0.375294 0)
(2.64957 -0.372971 0)
(2.65107 -0.370442 0)
(2.64946 -0.371978 0)
(2.64513 -0.378562 0)
(2.64682 -0.381099 0)
(2.65272 -0.380771 0)
(2.65953 -0.37979 0)
(2.6665 -0.378123 0)
(2.67243 -0.377244 0)
(2.67743 -0.376235 0)
(2.67934 -0.372896 0)
(2.67594 -0.36847 0)
(2.67287 -0.367573 0)
(2.67656 -0.368432 0)
(2.68105 -0.368989 0)
(2.68537 -0.36987 0)
(2.69062 -0.37115 0)
(2.69646 -0.372218 0)
(2.70262 -0.372803 0)
(2.70878 -0.372615 0)
(2.71418 -0.371799 0)
(2.7156 -0.368108 0)
(2.70964 -0.361104 0)
(2.70105 -0.356675 0)
(2.70129 -0.357434 0)
(2.70706 -0.358761 0)
(2.71407 -0.35986 0)
(2.71946 -0.36057 0)
(2.72399 -0.360405 0)
(2.72951 -0.359931 0)
(2.73546 -0.359452 0)
(2.74004 -0.359509 0)
(2.74499 -0.360163 0)
(2.75035 -0.360743 0)
(2.75261 -0.360681 0)
(2.74657 -0.359447 0)
(2.73663 -0.35627 0)
(2.73675 -0.352972 0)
(2.74074 -0.351183 0)
(2.74517 -0.349681 0)
(2.74971 -0.347852 0)
(2.75438 -0.346722 0)
(2.75958 -0.347128 0)
(2.76541 -0.348426 0)
(2.77141 -0.349628 0)
(2.77561 -0.349062 0)
(2.77847 -0.347824 0)
(2.78021 -0.348273 0)
(2.78028 -0.350041 0)
(2.77827 -0.351191 0)
(2.77441 -0.348083 0)
(2.77132 -0.341297 0)
(2.7724 -0.338088 0)
(2.77627 -0.337349 0)
(2.78159 -0.337041 0)
(2.78667 -0.337006 0)
(2.79183 -0.337597 0)
(2.79641 -0.338114 0)
(2.80047 -0.338498 0)
(2.80488 -0.337195 0)
(2.806 -0.330867 0)
(2.80353 -0.315394 0)
(2.78996 -0.273931 0)
(2.76944 -0.206003 0)
(2.72536 -0.102083 0)
(2.70634 -0.031091 0)
(2.69366 0.0410307 0)
(2.63278 0.174229 0)
(2.61899 0.223199 0)
(2.61809 0.211845 0)
(2.6231 0.202111 0)
(2.6197 0.202583 0)
(2.61899 0.203553 0)
(2.61517 0.208369 0)
(2.61038 0.220328 0)
(2.60632 0.229032 0)
(2.60263 0.233279 0)
(2.60073 0.238074 0)
(2.60083 0.242973 0)
(2.6026 0.246888 0)
(2.60397 0.249439 0)
(2.60589 0.251106 0)
(2.60815 0.249715 0)
(2.61191 0.248278 0)
(2.61525 0.249199 0)
(2.61726 0.253077 0)
(2.6202 0.260738 0)
(2.46008 -0.383142 0)
(2.46718 -0.383467 0)
(2.47419 -0.382778 0)
(2.48225 -0.381843 0)
(2.49075 -0.381384 0)
(2.49956 -0.381986 0)
(2.50878 -0.383236 0)
(2.51802 -0.38449 0)
(2.52468 -0.384341 0)
(2.51963 -0.382606 0)
(2.5092 -0.380531 0)
(2.51142 -0.378884 0)
(2.51747 -0.377993 0)
(2.52406 -0.377707 0)
(2.53157 -0.377183 0)
(2.54297 -0.376981 0)
(2.55217 -0.376782 0)
(2.55954 -0.377311 0)
(2.56759 -0.377724 0)
(2.57013 -0.37766 0)
(2.55946 -0.377981 0)
(2.54884 -0.377334 0)
(2.55113 -0.375689 0)
(2.55723 -0.37476 0)
(2.56492 -0.374796 0)
(2.57348 -0.37496 0)
(2.58382 -0.374508 0)
(2.59515 -0.372602 0)
(2.60286 -0.371136 0)
(2.61069 -0.37111 0)
(2.61757 -0.370821 0)
(2.61857 -0.370631 0)
(2.60729 -0.371754 0)
(2.59633 -0.372488 0)
(2.59888 -0.371606 0)
(2.60603 -0.371197 0)
(2.61382 -0.370812 0)
(2.62215 -0.36956 0)
(2.6318 -0.367949 0)
(2.639 -0.366857 0)
(2.64574 -0.366668 0)
(2.65158 -0.365017 0)
(2.65378 -0.362306 0)
(2.64867 -0.36136 0)
(2.64184 -0.362543 0)
(2.64633 -0.364078 0)
(2.65151 -0.365089 0)
(2.65582 -0.365641 0)
(2.66079 -0.364965 0)
(2.66703 -0.362601 0)
(2.67296 -0.360935 0)
(2.679 -0.360403 0)
(2.68344 -0.360154 0)
(2.68222 -0.358924 0)
(2.67651 -0.356452 0)
(2.67693 -0.355298 0)
(2.68321 -0.355872 0)
(2.6896 -0.356949 0)
(2.69547 -0.358111 0)
(2.70085 -0.359194 0)
(2.70567 -0.359835 0)
(2.7102 -0.359281 0)
(2.71445 -0.35667 0)
(2.7172 -0.353244 0)
(2.71285 -0.348995 0)
(2.70259 -0.345198 0)
(2.70138 -0.344024 0)
(2.70607 -0.343775 0)
(2.71114 -0.343329 0)
(2.71601 -0.342755 0)
(2.72133 -0.342175 0)
(2.72765 -0.341958 0)
(2.73416 -0.342682 0)
(2.74005 -0.344082 0)
(2.74569 -0.346067 0)
(2.75112 -0.348564 0)
(2.75504 -0.350833 0)
(2.75203 -0.350516 0)
(2.74044 -0.344956 0)
(2.73449 -0.340082 0)
(2.73812 -0.338026 0)
(2.74282 -0.336644 0)
(2.74746 -0.335299 0)
(2.75174 -0.334342 0)
(2.75671 -0.33413 0)
(2.76255 -0.33417 0)
(2.76813 -0.334108 0)
(2.77452 -0.334367 0)
(2.77909 -0.335122 0)
(2.78424 -0.336131 0)
(2.7859 -0.337883 0)
(2.78399 -0.340258 0)
(2.77996 -0.339371 0)
(2.7767 -0.334514 0)
(2.77601 -0.32933 0)
(2.77882 -0.326268 0)
(2.78298 -0.325198 0)
(2.78816 -0.325376 0)
(2.79353 -0.326051 0)
(2.79861 -0.327719 0)
(2.80429 -0.328084 0)
(2.80858 -0.328354 0)
(2.80993 -0.328521 0)
(2.81232 -0.324778 0)
(2.81372 -0.322699 0)
(2.8076 -0.306203 0)
(2.79954 -0.279672 0)
(2.78051 -0.223508 0)
(2.75256 -0.148216 0)
(2.70748 -0.0299133 0)
(2.71296 0.0127433 0)
(2.67618 0.104591 0)
(2.63823 0.219968 0)
(2.62152 0.223169 0)
(2.62622 0.214387 0)
(2.62138 0.21412 0)
(2.61956 0.217685 0)
(2.61744 0.224049 0)
(2.61162 0.229506 0)
(2.60766 0.236556 0)
(2.6066 0.243009 0)
(2.60829 0.24894 0)
(2.60961 0.254596 0)
(2.61063 0.256959 0)
(2.61193 0.257514 0)
(2.61427 0.258387 0)
(2.61653 0.260497 0)
(2.61864 0.263245 0)
(2.62175 0.265592 0)
(2.46198 -0.367617 0)
(2.4687 -0.365904 0)
(2.47678 -0.364756 0)
(2.48594 -0.363809 0)
(2.49642 -0.363427 0)
(2.50507 -0.365306 0)
(2.51203 -0.368368 0)
(2.52026 -0.372734 0)
(2.52578 -0.377055 0)
(2.52154 -0.378051 0)
(2.514 -0.372296 0)
(2.51546 -0.365784 0)
(2.52169 -0.362111 0)
(2.52893 -0.360298 0)
(2.53591 -0.358622 0)
(2.54655 -0.357322 0)
(2.55343 -0.358617 0)
(2.56143 -0.361933 0)
(2.56909 -0.365737 0)
(2.57221 -0.369182 0)
(2.56327 -0.37006 0)
(2.55371 -0.367601 0)
(2.55691 -0.365007 0)
(2.56325 -0.363402 0)
(2.56951 -0.362094 0)
(2.57589 -0.36057 0)
(2.58364 -0.35837 0)
(2.59274 -0.356145 0)
(2.60156 -0.356108 0)
(2.61025 -0.357117 0)
(2.61747 -0.358254 0)
(2.6189 -0.3596 0)
(2.60946 -0.360757 0)
(2.60116 -0.360733 0)
(2.60349 -0.360049 0)
(2.60926 -0.359296 0)
(2.61596 -0.358747 0)
(2.62367 -0.356597 0)
(2.63132 -0.352745 0)
(2.63851 -0.351427 0)
(2.64582 -0.351639 0)
(2.65255 -0.352222 0)
(2.65639 -0.352512 0)
(2.65098 -0.351619 0)
(2.64294 -0.349344 0)
(2.64707 -0.347723 0)
(2.65292 -0.3477 0)
(2.6577 -0.348107 0)
(2.66406 -0.34854 0)
(2.67083 -0.348905 0)
(2.67634 -0.34947 0)
(2.68398 -0.350651 0)
(2.68969 -0.351711 0)
(2.68821 -0.350627 0)
(2.68144 -0.347757 0)
(2.67937 -0.34476 0)
(2.68229 -0.343026 0)
(2.6873 -0.342291 0)
(2.69359 -0.342033 0)
(2.69968 -0.342306 0)
(2.70547 -0.342809 0)
(2.71151 -0.344039 0)
(2.71697 -0.345396 0)
(2.7224 -0.346681 0)
(2.72028 -0.345373 0)
(2.70816 -0.339266 0)
(2.7048 -0.33363 0)
(2.70851 -0.331383 0)
(2.71344 -0.330154 0)
(2.7199 -0.329289 0)
(2.72652 -0.329407 0)
(2.73319 -0.330231 0)
(2.7396 -0.331528 0)
(2.7458 -0.333204 0)
(2.75151 -0.334784 0)
(2.75534 -0.33579 0)
(2.7565 -0.336317 0)
(2.75496 -0.337784 0)
(2.7481 -0.336567 0)
(2.74035 -0.331418 0)
(2.74134 -0.327591 0)
(2.7457 -0.325453 0)
(2.75009 -0.323179 0)
(2.75385 -0.320571 0)
(2.75861 -0.319117 0)
(2.76395 -0.318888 0)
(2.76911 -0.319216 0)
(2.77397 -0.320827 0)
(2.7777 -0.323492 0)
(2.78055 -0.325024 0)
(2.78246 -0.325508 0)
(2.78342 -0.32519 0)
(2.78473 -0.324901 0)
(2.78602 -0.322741 0)
(2.78528 -0.318227 0)
(2.78115 -0.314073 0)
(2.78029 -0.313031 0)
(2.7841 -0.313049 0)
(2.78885 -0.313847 0)
(2.7941 -0.315225 0)
(2.79917 -0.316235 0)
(2.80351 -0.317148 0)
(2.80735 -0.317683 0)
(2.81143 -0.316936 0)
(2.81527 -0.315469 0)
(2.81705 -0.310082 0)
(2.81547 -0.30716 0)
(2.81061 -0.293008 0)
(2.80582 -0.279728 0)
(2.79184 -0.244084 0)
(2.77572 -0.178701 0)
(2.74188 -0.084878 0)
(2.70326 0.0273215 0)
(2.71632 0.0534039 0)
(2.66155 0.148223 0)
(2.63154 0.234242 0)
(2.62127 0.23233 0)
(2.62398 0.235329 0)
(2.61835 0.236609 0)
(2.61367 0.24083 0)
(2.61447 0.243632 0)
(2.6135 0.246705 0)
(2.61441 0.254173 0)
(2.61682 0.258136 0)
(2.61891 0.260164 0)
(2.62119 0.263234 0)
(2.62248 0.265689 0)
(2.62323 0.267122 0)
(2.62556 0.269993 0)
(2.46664 -0.35566 0)
(2.47478 -0.352697 0)
(2.48197 -0.349749 0)
(2.48883 -0.346599 0)
(2.49617 -0.345814 0)
(2.50439 -0.347699 0)
(2.51157 -0.351543 0)
(2.51708 -0.356719 0)
(2.52113 -0.361285 0)
(2.52085 -0.365938 0)
(2.52002 -0.364829 0)
(2.52491 -0.358328 0)
(2.53095 -0.350801 0)
(2.5356 -0.343538 0)
(2.53975 -0.340008 0)
(2.54501 -0.340901 0)
(2.55064 -0.343323 0)
(2.55656 -0.347104 0)
(2.56213 -0.351282 0)
(2.56484 -0.356483 0)
(2.56307 -0.360029 0)
(2.5598 -0.356787 0)
(2.56131 -0.350794 0)
(2.56758 -0.347275 0)
(2.57509 -0.346217 0)
(2.58146 -0.345683 0)
(2.58947 -0.344766 0)
(2.59572 -0.344474 0)
(2.60404 -0.345349 0)
(2.61242 -0.346442 0)
(2.61835 -0.348284 0)
(2.61851 -0.350337 0)
(2.60924 -0.349948 0)
(2.60381 -0.347144 0)
(2.60858 -0.34543 0)
(2.61408 -0.344697 0)
(2.61923 -0.344083 0)
(2.62512 -0.342891 0)
(2.63309 -0.341296 0)
(2.64105 -0.339968 0)
(2.64791 -0.339723 0)
(2.65359 -0.340075 0)
(2.65503 -0.341514 0)
(2.64932 -0.342327 0)
(2.64307 -0.33869 0)
(2.64534 -0.334234 0)
(2.65149 -0.33205 0)
(2.65688 -0.331246 0)
(2.66214 -0.331864 0)
(2.66828 -0.333359 0)
(2.67496 -0.335401 0)
(2.68183 -0.336921 0)
(2.68816 -0.33818 0)
(2.68988 -0.338533 0)
(2.68337 -0.33642 0)
(2.6818 -0.334095 0)
(2.68644 -0.332109 0)
(2.69126 -0.330407 0)
(2.69641 -0.32918 0)
(2.70259 -0.328644 0)
(2.70867 -0.328608 0)
(2.71443 -0.32942 0)
(2.7197 -0.331674 0)
(2.72433 -0.334197 0)
(2.72443 -0.333837 0)
(2.71487 -0.328486 0)
(2.7052 -0.322178 0)
(2.70673 -0.320416 0)
(2.71156 -0.319334 0)
(2.71721 -0.318048 0)
(2.7236 -0.317696 0)
(2.73006 -0.318427 0)
(2.73617 -0.319215 0)
(2.74192 -0.319662 0)
(2.74713 -0.319964 0)
(2.75195 -0.320744 0)
(2.75644 -0.322259 0)
(2.75818 -0.323219 0)
(2.75371 -0.324237 0)
(2.74688 -0.323426 0)
(2.74607 -0.32008 0)
(2.75001 -0.317265 0)
(2.75493 -0.314453 0)
(2.75937 -0.310795 0)
(2.76291 -0.307784 0)
(2.76722 -0.3072 0)
(2.77266 -0.307844 0)
(2.77768 -0.308355 0)
(2.78078 -0.308821 0)
(2.78197 -0.310554 0)
(2.78358 -0.312485 0)
(2.7867 -0.312331 0)
(2.79071 -0.311196 0)
(2.79435 -0.310216 0)
(2.79545 -0.308547 0)
(2.79094 -0.30495 0)
(2.78503 -0.300966 0)
(2.78737 -0.299949 0)
(2.79199 -0.300437 0)
(2.79581 -0.302024 0)
(2.79932 -0.304328 0)
(2.80503 -0.305581 0)
(2.8101 -0.306398 0)
(2.81467 -0.306499 0)
(2.81866 -0.305148 0)
(2.82205 -0.303347 0)
(2.82343 -0.29984 0)
(2.8179 -0.293367 0)
(2.8128 -0.287176 0)
(2.81248 -0.282191 0)
(2.81198 -0.276701 0)
(2.80614 -0.257205 0)
(2.78736 -0.203036 0)
(2.77083 -0.128373 0)
(2.72036 -0.00776322 0)
(2.70048 0.0562479 0)
(2.7104 0.103895 0)
(2.6584 0.188632 0)
(2.63319 0.257563 0)
(2.6216 0.260896 0)
(2.62065 0.25833 0)
(2.61517 0.258944 0)
(2.61433 0.25886 0)
(2.62005 0.25933 0)
(2.6254 0.263065 0)
(2.62925 0.265038 0)
(2.63072 0.266618 0)
(2.63096 0.266379 0)
(2.63225 0.268422 0)
(2.47562 -0.347876 0)
(2.48202 -0.340118 0)
(2.48828 -0.335298 0)
(2.49535 -0.333356 0)
(2.50272 -0.332701 0)
(2.50931 -0.332901 0)
(2.51579 -0.333777 0)
(2.51886 -0.337207 0)
(2.51553 -0.345686 0)
(2.51593 -0.348969 0)
(2.52424 -0.348448 0)
(2.53176 -0.346138 0)
(2.53909 -0.341322 0)
(2.54543 -0.335268 0)
(2.54923 -0.329437 0)
(2.55075 -0.326144 0)
(2.55362 -0.326114 0)
(2.55716 -0.328551 0)
(2.55833 -0.334627 0)
(2.55734 -0.342468 0)
(2.55808 -0.347044 0)
(2.56282 -0.34707 0)
(2.56903 -0.343651 0)
(2.57492 -0.337421 0)
(2.57949 -0.330545 0)
(2.58387 -0.326688 0)
(2.58953 -0.32722 0)
(2.59543 -0.32979 0)
(2.60118 -0.332621 0)
(2.60668 -0.334901 0)
(2.61012 -0.336918 0)
(2.60858 -0.339147 0)
(2.60412 -0.338958 0)
(2.60304 -0.334316 0)
(2.60656 -0.328969 0)
(2.61404 -0.326477 0)
(2.62102 -0.326525 0)
(2.62732 -0.326362 0)
(2.63423 -0.325505 0)
(2.64103 -0.325806 0)
(2.64922 -0.327033 0)
(2.65556 -0.329179 0)
(2.65723 -0.331844 0)
(2.65086 -0.332571 0)
(2.64602 -0.329232 0)
(2.6493 -0.324132 0)
(2.65436 -0.319598 0)
(2.65914 -0.316546 0)
(2.66476 -0.315917 0)
(2.67076 -0.31682 0)
(2.67616 -0.31887 0)
(2.68142 -0.3214 0)
(2.68596 -0.324085 0)
(2.68802 -0.326427 0)
(2.68561 -0.324837 0)
(2.68321 -0.319183 0)
(2.6854 -0.315844 0)
(2.68998 -0.315481 0)
(2.69484 -0.316039 0)
(2.69962 -0.316067 0)
(2.70454 -0.316003 0)
(2.70962 -0.316441 0)
(2.71491 -0.317839 0)
(2.71917 -0.320226 0)
(2.72231 -0.322292 0)
(2.7219 -0.32205 0)
(2.7146 -0.31676 0)
(2.71133 -0.310681 0)
(2.71445 -0.307622 0)
(2.71948 -0.305078 0)
(2.72522 -0.303135 0)
(2.73135 -0.302711 0)
(2.73706 -0.30315 0)
(2.74217 -0.303481 0)
(2.74734 -0.303812 0)
(2.75158 -0.305182 0)
(2.75336 -0.307923 0)
(2.75209 -0.309482 0)
(2.74797 -0.311966 0)
(2.74871 -0.312556 0)
(2.75256 -0.310329 0)
(2.75628 -0.305682 0)
(2.75916 -0.29935 0)
(2.76114 -0.29468 0)
(2.76296 -0.294233 0)
(2.76499 -0.295401 0)
(2.76768 -0.29623 0)
(2.77062 -0.296981 0)
(2.77277 -0.298175 0)
(2.77471 -0.299759 0)
(2.77851 -0.300499 0)
(2.78389 -0.299945 0)
(2.78935 -0.298869 0)
(2.79471 -0.297727 0)
(2.79878 -0.29739 0)
(2.79895 -0.296587 0)
(2.79372 -0.292644 0)
(2.78808 -0.289256 0)
(2.78887 -0.290293 0)
(2.79414 -0.291646 0)
(2.79964 -0.292503 0)
(2.80394 -0.292764 0)
(2.80782 -0.292751 0)
(2.81203 -0.292231 0)
(2.81637 -0.291169 0)
(2.82083 -0.290522 0)
(2.82532 -0.290385 0)
(2.82529 -0.287221 0)
(2.81609 -0.28182 0)
(2.80968 -0.278906 0)
(2.81447 -0.278835 0)
(2.81668 -0.278519 0)
(2.81855 -0.274659 0)
(2.81712 -0.262529 0)
(2.80469 -0.227186 0)
(2.78245 -0.153963 0)
(2.76013 -0.055795 0)
(2.70974 0.0666379 0)
(2.72216 0.0979659 0)
(2.69744 0.1652 0)
(2.65056 0.235136 0)
(2.62906 0.279296 0)
(2.61928 0.281728 0)
(2.62118 0.278465 0)
(2.62413 0.278964 0)
(2.63034 0.275853 0)
(2.63632 0.271656 0)
(2.63629 0.268196 0)
(2.63709 0.268551 0)
(2.48424 -0.337725 0)
(2.49137 -0.332103 0)
(2.49735 -0.324768 0)
(2.50075 -0.317922 0)
(2.50198 -0.315057 0)
(2.50381 -0.316752 0)
(2.50668 -0.319848 0)
(2.508 -0.32528 0)
(2.51133 -0.330128 0)
(2.51966 -0.332025 0)
(2.5267 -0.331051 0)
(2.53499 -0.328393 0)
(2.54288 -0.326163 0)
(2.55019 -0.323956 0)
(2.55486 -0.32013 0)
(2.55508 -0.31566 0)
(2.5529 -0.314575 0)
(2.55038 -0.318936 0)
(2.54956 -0.325591 0)
(2.55222 -0.328506 0)
(2.55951 -0.329311 0)
(2.56641 -0.328735 0)
(2.57308 -0.326498 0)
(2.57985 -0.324186 0)
(2.58618 -0.321236 0)
(2.59144 -0.317675 0)
(2.59603 -0.315746 0)
(2.60013 -0.316228 0)
(2.60394 -0.317953 0)
(2.60713 -0.319853 0)
(2.60741 -0.32241 0)
(2.60427 -0.32585 0)
(2.60403 -0.328029 0)
(2.6075 -0.326827 0)
(2.6129 -0.322483 0)
(2.61824 -0.315686 0)
(2.62243 -0.310077 0)
(2.62719 -0.309266 0)
(2.63243 -0.31101 0)
(2.6381 -0.312805 0)
(2.64387 -0.314199 0)
(2.64892 -0.315465 0)
(2.65166 -0.317795 0)
(2.651 -0.320543 0)
(2.65087 -0.319599 0)
(2.65529 -0.315643 0)
(2.66036 -0.310904 0)
(2.66452 -0.305476 0)
(2.66805 -0.301456 0)
(2.67279 -0.301711 0)
(2.67822 -0.303923 0)
(2.68341 -0.306897 0)
(2.68794 -0.310089 0)
(2.69019 -0.312782 0)
(2.68995 -0.314147 0)
(2.69009 -0.312422 0)
(2.69289 -0.309229 0)
(2.6966 -0.305993 0)
(2.69949 -0.303298 0)
(2.7021 -0.301575 0)
(2.7057 -0.300458 0)
(2.71023 -0.3005 0)
(2.71424 -0.302466 0)
(2.71701 -0.306099 0)
(2.72015 -0.309081 0)
(2.72158 -0.311954 0)
(2.72042 -0.313072 0)
(2.71954 -0.308594 0)
(2.72162 -0.302909 0)
(2.72563 -0.297725 0)
(2.73066 -0.293186 0)
(2.73532 -0.289963 0)
(2.73978 -0.289373 0)
(2.74499 -0.29023 0)
(2.75048 -0.290992 0)
(2.75541 -0.291077 0)
(2.75597 -0.292006 0)
(2.7494 -0.295845 0)
(2.74679 -0.296117 0)
(2.75202 -0.295559 0)
(2.75677 -0.294676 0)
(2.76164 -0.293633 0)
(2.76626 -0.291727 0)
(2.76935 -0.288085 0)
(2.76993 -0.28396 0)
(2.76936 -0.281683 0)
(2.76959 -0.281628 0)
(2.77075 -0.283285 0)
(2.77271 -0.285271 0)
(2.77581 -0.286757 0)
(2.78036 -0.287555 0)
(2.78609 -0.287755 0)
(2.79192 -0.287714 0)
(2.79739 -0.286836 0)
(2.80175 -0.284738 0)
(2.80319 -0.282219 0)
(2.79773 -0.279855 0)
(2.78977 -0.278186 0)
(2.79129 -0.278512 0)
(2.79685 -0.279219 0)
(2.8012 -0.279541 0)
(2.80592 -0.279877 0)
(2.81105 -0.280064 0)
(2.81594 -0.279683 0)
(2.82006 -0.278704 0)
(2.8239 -0.277699 0)
(2.82741 -0.276265 0)
(2.82853 -0.273627 0)
(2.82171 -0.270781 0)
(2.8122 -0.268483 0)
(2.81461 -0.268051 0)
(2.81885 -0.268283 0)
(2.82079 -0.268322 0)
(2.82415 -0.268202 0)
(2.82856 -0.266271 0)
(2.83148 -0.257779 0)
(2.82748 -0.234717 0)
(2.80587 -0.17571 0)
(2.78985 -0.0920069 0)
(2.74475 0.042334 0)
(2.71017 0.117498 0)
(2.71832 0.150592 0)
(2.67195 0.204182 0)
(2.63438 0.273312 0)
(2.62924 0.292913 0)
(2.63159 0.299975 0)
(2.63831 0.297977 0)
(2.63687 0.287847 0)
(2.63642 0.277925 0)
(2.48963 -0.320456 0)
(2.49768 -0.318675 0)
(2.50482 -0.315688 0)
(2.50923 -0.30999 0)
(2.50934 -0.303154 0)
(2.5063 -0.300767 0)
(2.50262 -0.306904 0)
(2.50407 -0.312261 0)
(2.51145 -0.314135 0)
(2.51834 -0.313881 0)
(2.52707 -0.312838 0)
(2.53732 -0.310774 0)
(2.5456 -0.30891 0)
(2.55346 -0.307369 0)
(2.55908 -0.305302 0)
(2.5585 -0.303773 0)
(2.5507 -0.305776 0)
(2.54515 -0.310163 0)
(2.54782 -0.312298 0)
(2.55609 -0.313666 0)
(2.56319 -0.313656 0)
(2.571 -0.312214 0)
(2.5784 -0.310011 0)
(2.58504 -0.308164 0)
(2.5905 -0.305468 0)
(2.59299 -0.302107 0)
(2.59364 -0.29976 0)
(2.59608 -0.300376 0)
(2.59911 -0.303445 0)
(2.60148 -0.307427 0)
(2.60201 -0.310925 0)
(2.60085 -0.31281 0)
(2.60399 -0.311651 0)
(2.61071 -0.309651 0)
(2.61733 -0.307536 0)
(2.62383 -0.30478 0)
(2.62994 -0.300968 0)
(2.63476 -0.297149 0)
(2.63823 -0.295182 0)
(2.64126 -0.295605 0)
(2.64362 -0.297131 0)
(2.64434 -0.301401 0)
(2.64455 -0.307034 0)
(2.64891 -0.308471 0)
(2.65589 -0.306622 0)
(2.6618 -0.30209 0)
(2.66604 -0.295797 0)
(2.66731 -0.290005 0)
(2.66696 -0.287858 0)
(2.66807 -0.288188 0)
(2.67159 -0.290607 0)
(2.67627 -0.293891 0)
(2.68061 -0.296952 0)
(2.68385 -0.299031 0)
(2.68821 -0.300036 0)
(2.69335 -0.300742 0)
(2.69797 -0.300537 0)
(2.70205 -0.298646 0)
(2.70543 -0.295346 0)
(2.70787 -0.291858 0)
(2.71011 -0.289226 0)
(2.71353 -0.288274 0)
(2.71777 -0.287998 0)
(2.72057 -0.288498 0)
(2.71884 -0.293356 0)
(2.71746 -0.298147 0)
(2.71997 -0.297646 0)
(2.72425 -0.294718 0)
(2.72841 -0.289864 0)
(2.73129 -0.283976 0)
(2.73243 -0.278433 0)
(2.73414 -0.276168 0)
(2.73705 -0.275783 0)
(2.74031 -0.276798 0)
(2.74375 -0.278817 0)
(2.74663 -0.280609 0)
(2.74618 -0.281925 0)
(2.74656 -0.28287 0)
(2.75157 -0.283254 0)
(2.75607 -0.28212 0)
(2.76154 -0.280954 0)
(2.76718 -0.280318 0)
(2.77177 -0.280192 0)
(2.77433 -0.279407 0)
(2.77506 -0.276874 0)
(2.77485 -0.273131 0)
(2.77413 -0.270754 0)
(2.77341 -0.271833 0)
(2.77457 -0.274593 0)
(2.77837 -0.275872 0)
(2.78312 -0.276015 0)
(2.78835 -0.275911 0)
(2.79397 -0.275491 0)
(2.79972 -0.275163 0)
(2.80531 -0.275067 0)
(2.80829 -0.274998 0)
(2.80397 -0.273606 0)
(2.79563 -0.26996 0)
(2.79481 -0.266602 0)
(2.79926 -0.265284 0)
(2.80419 -0.265311 0)
(2.80877 -0.265557 0)
(2.81341 -0.265269 0)
(2.81853 -0.264712 0)
(2.82401 -0.26507 0)
(2.82933 -0.266024 0)
(2.83392 -0.267192 0)
(2.83576 -0.267299 0)
(2.83036 -0.265127 0)
(2.81851 -0.260228 0)
(2.81737 -0.257402 0)
(2.82081 -0.257437 0)
(2.82421 -0.257215 0)
(2.82828 -0.256411 0)
(2.83428 -0.255566 0)
(2.83755 -0.255364 0)
(2.84087 -0.254883 0)
(2.84304 -0.249772 0)
(2.84087 -0.232588 0)
(2.82935 -0.195067 0)
(2.80042 -0.116473 0)
(2.77875 -0.0182733 0)
(2.7156 0.12775 0)
(2.69592 0.154577 0)
(2.70471 0.180434 0)
(2.66718 0.239881 0)
(2.6497 0.303698 0)
(2.64387 0.303871 0)
(2.64096 0.295673 0)
(2.49262 -0.302304 0)
(2.50074 -0.30063 0)
(2.50859 -0.299259 0)
(2.51429 -0.296971 0)
(2.51239 -0.293512 0)
(2.50189 -0.292593 0)
(2.50015 -0.294645 0)
(2.50744 -0.296386 0)
(2.51323 -0.296506 0)
(2.52007 -0.296257 0)
(2.52849 -0.294965 0)
(2.53722 -0.293287 0)
(2.54624 -0.292586 0)
(2.55518 -0.292241 0)
(2.56167 -0.291941 0)
(2.55986 -0.292752 0)
(2.54864 -0.296074 0)
(2.54514 -0.299526 0)
(2.55031 -0.299846 0)
(2.55545 -0.297817 0)
(2.56208 -0.295577 0)
(2.56968 -0.293595 0)
(2.57732 -0.291964 0)
(2.58534 -0.290579 0)
(2.59292 -0.289358 0)
(2.59836 -0.288046 0)
(2.60006 -0.287037 0)
(2.60076 -0.288025 0)
(2.60288 -0.289823 0)
(2.60247 -0.293735 0)
(2.59951 -0.299682 0)
(2.60375 -0.301146 0)
(2.61039 -0.299297 0)
(2.61637 -0.295368 0)
(2.62223 -0.291269 0)
(2.62757 -0.28775 0)
(2.63117 -0.284461 0)
(2.6324 -0.281445 0)
(2.63306 -0.279496 0)
(2.63502 -0.280037 0)
(2.63681 -0.284446 0)
(2.63802 -0.290128 0)
(2.64479 -0.293258 0)
(2.65204 -0.293983 0)
(2.65945 -0.292407 0)
(2.66637 -0.290607 0)
(2.67294 -0.287927 0)
(2.67658 -0.282864 0)
(2.67422 -0.276402 0)
(2.67044 -0.272728 0)
(2.6723 -0.273286 0)
(2.67578 -0.276908 0)
(2.67739 -0.282205 0)
(2.67876 -0.284809 0)
(2.68515 -0.284369 0)
(2.69186 -0.283986 0)
(2.69791 -0.282994 0)
(2.70372 -0.281557 0)
(2.70839 -0.279174 0)
(2.70975 -0.276551 0)
(2.70872 -0.275687 0)