/*--------------------------------*- C++ -*----------------------------------*\
  =========                 |
  \\      /  F ield         | OpenFOAM: The Open Source CFD Toolbox
   \\    /   O peration     | Website:  https://openfoam.org
    \\  /    A nd           | Version:  7
     \\/     M anipulation  |
\*---------------------------------------------------------------------------*/
FoamFile
{
    version     2.0;
    format      ascii;
    class       volScalarField;
    location    "2.5";
    object      p;
}
// * * * * * * * * * * * * * * * * * * * * * * * * * * * * * * * * * * * * * //

dimensions      [1 -1 -2 0 0 0 0];

internalField   nonuniform List<scalar> 
4080
(
1
1
1
1
1
1
1
1
1
1
1
1
1
1
1
1
1
1.87195
8.6374
10.8012
11.0697
11.4042
11.6603
11.8743
1
1
1
1
1
1
1
1
1
1
1
1
1
1
1
1
1
1.74389
8.32192
10.7136
10.9816
11.2839
11.4986
11.5931
1
1
1
1
1
1
1
1
1
1
1
1
1
1
1
1
1
1.44012
7.71573
10.5766
10.7868
10.9982
11.0871
11.2096
1
1
1
1
1
1
1
1
1
1
1
1
1
1
1
1
1
1.04843
6.71785
10.3198
10.4795
10.6594
10.7018
10.968
1
1
1
1
1
1
1
1
1
1
1
1
1
1
1
1
1
1.00052
5.29221
9.77216
9.99389
10.0315
9.46377
7.87569
1
1
1
1
1
1
1
1
1
1
1
1
1
1
1
1
1
0.999993
3.60048
9.05108
9.62042
9.36616
8.69993
7.11328
1
1
1
1
1
1
1
1
1
1
1
1
1
1
1
1
1
0.999998
1.93561
7.88117
9.34152
8.8793
8.19858
6.60252
1
1
1
1
1
1
1
1
1
1
1
1
1
1
1
1
1
1
1.09438
5.92772
8.79908
8.31962
7.70847
6.36821
1
1
1
1
1
1
1
1
1
1
1
1
1
1
1
1
1
1
1.00045
3.30385
7.86451
8.10739
7.40452
6.34856
1
1
1
1
1
1
1
1
1
1
1
1
1
1
1
1
1
1
0.999995
1.36957
6.15689
8.04548
7.26911
6.35728
1
1
1
1
1
1
1
1
1
1
1
1
1
1
1
1
1
1
0.999999
1.01149
3.48515
7.37409
7.10234
6.31034
1
1
1
1
1
1
1
1
1
1
1
1
1
1
1
1
1
1
1
1.00002
1.42328
5.56013
7.16516
6.35565
1
1
1
1
1
1
1
1
1
1
1
1
1
1
1
1
1
1
1
1
1.01472
2.70945
6.30563
6.36687
1
1
1
1
1
1
1
1
1
1
1
1
1
1
1
1
1
1
1
1
1.00008
1.21659
4.22241
6.31688
1
1
1
1
1
1
1
1
1
1
1
1
1
1
1
1
1
1
1
1
1
1.00491
1.79322
4.96586
1
1
1
1
1
1
1
1
1
1
1
1
1
1
1
1
1
1
1
1
1
1.00003
1.05144
2.50384
1
1
1
1
1
1
1
1
1
1
1
1
1
1
1
1
1
1
1
1
1
1
1.00072
1.17678
1
1
1
1
1
1
1
1
1
1
1
1
1
1
1
1
1
1
1
1
1
1
1
1.00463
1
1
1
1
1
1
1
1
1
1
1
1
1
1
1
1
1
1
1
1
1
1
1
1.00003
1
1
1
1
1
1
1
1
1
1
1
1
1
1
1
1
1
1
1
1
1
1
1
1
1
1
1
1
1
1
1
1
1
1
1
1
1
1
1
1
1
1
1
1
1
1
1
1
1
1
1
1
1
1
1
1
1
1
1
1
1
1
1
1
1
1
1
1
1
1
1
1
1
1
1
1
1
1
1
1
1
1
1
1
1
1
1
1
1
1
1
1
1
1
1
1
1
1
1
1
1
1
1
1
1
1
1
1
1
1
1
1
1
1
1
1
1
1
1
1
1
1
1
1
1
1
1
1
1
1
1
1
1
1
1
1
1
1
1
1
1
1
1
1
1
1
1
1
1
1
1
1
1
1
1
1
1
1
1
1
1
1
1
1
1
1
1
1
1
1
1
1
1
1
1
1
1
1
1
1
1
1
1
1
1
1
1
1
1
1
1
1
1
1
1
1
1
1
1
1
1
1
1
1
1
1
1
1
1
1
1
1
1
1
1
1
1
1
1
1
1
1
1
1
1
1
1
1
1
1
1
1
1
1
1
1
1
1
1
1
1
1
1
1
1
1
1
1
1
1
1
1
1
1
1
1
1
1
1
1
1
1
1
1
1
1
1
1
1
1
1
1
1
1
1
1
1
1
1
1
1
1
1
1
1
1
1
1
1
1
1
1
1
1
1
1
1
1
1
1
1
1
1
1
1
1
1
1
1
1
1
1
1
1
1
1
1
1
1
1
1
1
1
1
1
1
1
1
1
1
1
1
1
1
1
1
1
1
1
1
1
1
1
1
1
1
1
1
1
1
1
1
1
1
1
1
1
1
1
1
1
1
1
1
1
1
1
1
1
1
1
1
1
1
1
1
1
1
1
1
1
1
1
1
1
1
1
1
1
1
1
1
1
1
1
1
1
1
1
1
1
1
1
1
1
1
1
1
1
1
1
1
1
1
1
1
1
1
1
1
1
1
1
1
1
1
1
1
1
1
1
1
1
1
1
1
1
1
1
1
1
1
1
1
1
1
1
1
1
1
1
1
1
1
1
1
1
1
1
1
1
1
1
1
1
1
1
1
1
1
1
1
1
1
1
1
1
1
1
1
1
1
1
1
1
1
1
1
1
1
1
1
1
1
1
1
1
1
1
1
1
1
1
1
2.11384
0.601228
1.52267
3.31803
3.98379
4.33294
4.5143
4.5987
4.62737
4.65735
4.66502
4.68298
3.32587
1.68007
2.41613
4.08716
4.37322
4.4708
4.56017
4.6163
4.63303
4.6595
4.66931
4.68439
4.26446
2.6074
2.46163
3.64063
4.27011
4.32576
4.46594
4.56175
4.60107
4.64704
4.65509
4.6905
4.83643
3.41815
2.72737
3.26713
4.21381
4.46919
4.65416
4.70112
4.68056
4.68213
4.67909
4.82742
5.20035
4.06042
3.06836
3.1292
3.8118
4.46803
4.69882
4.63535
4.60217
4.56985
4.42823
3.7973
5.40802
4.45472
3.48507
3.16157
3.46464
4.20396
4.69533
4.63531
4.63483
4.58005
4.40432
3.9074
5.51855
4.73446
3.89354
3.28582
3.34087
3.87577
4.57836
4.66347
4.64061
4.5836
4.39708
4.00155
5.65203
4.97962
4.24024
3.54902
3.36579
3.56417
4.32498
4.62066
4.62469
4.5944
4.44404
4.14201
5.77849
5.15055
4.52652
3.84878
3.42771
3.47197
3.95037
4.50172
4.61071
4.60099
4.47851
4.25514
5.95628
5.34134
4.78042
4.15434
3.61147
3.48063
3.65959
4.26325
4.55968
4.59979
4.51023
4.34177
5.94361
5.54139
4.97026
4.4198
3.83109
3.52268
3.56665
3.9085
4.39991
4.58585
4.53867
4.40665
5.13681
5.63819
5.21334
4.6712
4.11296
3.6477
3.55539
3.71137
4.18847
4.52643
4.55912
4.46591
3.12658
5.13009
5.35516
4.94841
4.42523
3.86426
3.59757
3.6315
3.88549
4.36
4.53722
4.50389
1.38032
3.50673
5.02263
5.12371
4.73158
4.17966
3.70956
3.61184
3.72184
4.10817
4.45185
4.52369
1.01637
1.58532
3.68281
4.87095
4.91431
4.53629
3.96856
3.65202
3.6657
3.8324
4.26441
4.49189
1.00017
1.03538
1.74063
3.73515
4.70832
4.73502
4.3474
3.82472
3.6673
3.7392
4.014
4.35385
1
1.0005
1.05556
1.83803
3.70414
4.55339
4.5665
4.17998
3.77913
3.7055
3.81602
4.15545
1
1
1.00096
1.07213
1.87605
3.61532
4.40713
4.39443
4.06039
3.77056
3.76603
3.9113
1
1
1
1.00143
1.08116
1.86105
3.49294
4.24571
4.22927
3.9781
3.79448
3.8353
1
1
1
1.00001
1.00174
1.08142
1.80724
3.32942
4.07974
4.08671
3.9333
3.84188
1
1
1
1
1.00001
1.00181
1.07419
1.71958
3.15308
3.89841
3.97102
3.92355
1
1
1
1
1
1.00001
1.00157
1.06302
1.6223
2.88982
3.74304
3.90541
1
1
1
1
1
1
1.00001
1.00136
1.04677
1.51804
2.60189
3.58502
1
1
1
1
1
1
1
1.00001
1.00083
1.03653
1.37738
2.3436
1
1
1
1
1
1
1
1
1
1.00059
1.02347
1.25667
1
1
1
1
1
1
1
1
1
1
1.00036
1.01278
1
1
1
1
1
1
1
1
1
1
1
1.00016
1
1
1
1
1
1
1
1
1
1
1
1
1
1
1
1
1
1
1
1
1
1
1
1
1
1
1
1
1
1
1
1
1
1
1
1
1
1
1
1
1
1
1
1
1
1
1
1
1
1
1
1
1
1
1
1
1
1
1
1
1
1
1
1
1
1
1
1
1
1
1
1
1
1
1
1
1
1
1
1
1
1
1
1
1
1
1
1
1
1
1
1
1
1
1
1
1
1
1
1
1
1
1
1
1
1
1
1
1.57147
1.08659
1.13836
1.19346
1.30768
1.40926
1.43679
1.42197
1.4098
1.40532
1.39605
1.37668
1.35756
1.33837
1.32417
1.31697
1.31222
1.31379
1.31776
1.32022
1.32066
1.31452
1.30583
1.29677
1.28597
1.2778
1.27294
1.26993
1.27147
1.27395
1.27292
1.2696
1.26474
1.25834
1.24885
1.23877
1.23275
1.22947
1.22812
1.23119
1.23153
1.22759
1.22318
1.21729
1.20755
1.19566
1.18804
1.18355
1.17864
2.14686
4.47729
4.90785
4.88291
4.86718
4.85762
4.84117
4.81885
4.8022
4.76752
4.70418
4.63354
4.57496
4.51144
4.42983
4.34611
4.27384
4.21546
4.16549
4.12091
4.07695
4.02665
3.96811
3.90944
3.83675
3.74885
3.65212
3.55133
3.46426
3.40068
3.35128
3.32703
3.33273
3.34065
3.25825
2.47985
1.79857
1.54604
1.40135
1.33278
1.31436
1.33439
1.35081
1.36271
1.37009
1.36521
1.35799
1.35393
1.34429
1.33916
1.33409
1.32858
1.3239
1.31625
1.30774
1.30258
1.29763
1.29566
1.29635
1.29438
1.29024
1.28506
1.27822
1.27085
1.26543
1.26202
1.26067
1.26007
1.25731
1.2534
1.24871
1.24154
1.23319
1.227
1.2231
1.22086
1.22123
1.21966
1.21643
1.21254
1.20616
1.19459
1.17918
1.18853
1.97197
4.42627
4.95927
4.84075
4.78308
4.80126
4.78956
4.80547
4.81129
4.76504
4.65239
4.54869
4.48953
4.46267
4.43104
4.37546
4.29727
4.21036
4.12031
4.0351
3.9625
3.91086
3.87858
3.8509
3.8195
3.77948
3.72026
3.64823
3.55591
3.44688
3.35802
3.30489
3.27028
3.25094
3.19229
3.02433
2.18733
1.7559
1.50629
1.28718
1.24017
1.27435
1.32231
1.37984
1.40254
1.40514
1.39429
1.37428
1.35073
1.33828
1.33438
1.33225
1.3286
1.32439
1.31758
1.30859
1.30062
1.2938
1.28985
1.28838
1.28925
1.28913
1.28699
1.28298
1.27552
1.26348
1.25481
1.25091
1.24826
1.248
1.24781
1.24622
1.24405
1.23995
1.23191
1.22188
1.21348
1.20857
1.20675
1.20591
1.20186
1.19542
1.20524
1.31584
1.97682
4.03537
4.96763
4.95021
4.85271
4.78074
4.69773
4.73497
4.79449
4.79172
4.71727
4.61745
4.53045
4.45675
4.41153
4.37829
4.33207
4.27282
4.19538
4.10504
3.99641
3.88605
3.80304
3.74694
3.71165
3.69817
3.68723
3.66126
3.61656
3.55933
3.47252
3.34756
3.22579
3.15268
3.08234
3.48373
2.69004
2.13622
1.85974
1.54836
1.39503
1.34492
1.31906
1.32062
1.31859
1.32725
1.34593
1.35272
1.35318
1.35209
1.34471
1.33531
1.32474
1.31707
1.31035
1.30321
1.29898
1.29528
1.2925
1.29019
1.28884
1.28598
1.28199
1.27745
1.27148
1.26211
1.25645
1.2548
1.25305
1.2507
1.2484
1.24598
1.24251
1.23674
1.22805
1.21907
1.21315
1.21044
1.20834
1.20331
1.19659
1.2089
1.29841
1.81489
2.45272
3.09842
3.96683
4.60111
4.89277
4.88473
4.79474
4.76619
4.701
4.64591
4.6112
4.57933
4.51812
4.43266
4.37486
4.31829
4.26091
4.20805
4.15035
4.09386
4.02974
3.94382
3.83954
3.75688
3.70934
3.67427
3.64608
3.6174
3.58671
3.54924
3.49812
3.41134
3.28042
3.15927
3.06758
3.7834
3.1645
2.55442
2.17084
1.85852
1.58159
1.45841
1.36783
1.2871
1.26531
1.27654
1.29791
1.32171
1.34025
1.36718
1.37729
1.37198
1.35902
1.33927
1.31365
1.29051
1.28223
1.28079
1.28168
1.28848
1.29926
1.3011
1.29729
1.28726
1.27173
1.25578
1.24989
1.24901
1.2492
1.24949
1.25037
1.25052
1.2484
1.24081
1.22722
1.21577
1.21142
1.20913
1.20544
1.20274
1.2159
1.32857
1.72533
2.59391
2.82039
2.81264
2.9902
3.49726
4.03656
4.45358
4.63386
4.76492
4.78706
4.7288
4.65711
4.5672
4.48297
4.40513
4.31597
4.26343
4.22161
4.17442
4.11919
4.0674
4.01871
3.95964
3.88318
3.7905
3.71551
3.66978
3.62985
3.59101
3.54968
3.50658
3.45609
3.387
3.28687
3.17242
3.06992
3.99833
3.49746
2.9569
2.53099
2.1927
1.85839
1.66872
1.55265
1.40624
1.32503
1.32083
1.29082
1.28006
1.28839
1.31286
1.33517
1.34417
1.35031
1.34794
1.33274
1.30764
1.29571
1.28883
1.2843
1.28475
1.29026
1.29326
1.28995
1.27895
1.26663
1.25773
1.25354
1.2513
1.24986
1.24869
1.24822
1.2481
1.24623
1.23769
1.22602
1.21856
1.213
1.20652
1.2026
1.21389
1.32837
1.81275
2.4975
2.90681
2.95352
2.88101
2.85424
2.87005
3.09029
3.55042
3.99234
4.27089
4.52413
4.60372
4.67314
4.6257
4.52502
4.42108
4.2856
4.18233
4.13005
4.10129
4.07748
4.06036
4.01945
3.97048
3.91535
3.83719
3.72683
3.63074
3.57907
3.53898
3.49913
3.45845
3.41429
3.36508
3.30756
3.2388
3.11429
4.14867
3.76591
3.28972
2.85481
2.50673
2.17439
1.91931
1.75759
1.5733
1.42641
1.37838
1.32702
1.27789
1.27128
1.27923
1.29261
1.30474
1.31164
1.32606
1.33276
1.33415
1.33099
1.32362
1.31371
1.29944
1.2863
1.27748
1.26677
1.25806
1.25599
1.25709
1.26043
1.26465
1.26572
1.26268
1.25773
1.2512
1.24019
1.22616
1.21976
1.21631
1.21158
1.21084
1.22383
1.31491
1.8583
2.56987
2.96366
3.00183
2.94984
2.88779
2.82465
2.79837
2.73915
2.78266
3.0197
3.41051
3.90132
4.20726
4.40413
4.51244
4.52621
4.46258
4.35424
4.22044
4.09317
4.03117
4.00783
3.99766
3.99811
3.96589
3.91735
3.85772
3.76781
3.64557
3.54064
3.47661
3.43528
3.40086
3.36867
3.33577
3.29743
3.26007
3.16218
4.26794
3.95087
3.54993
3.15754
2.80109
2.45131
2.17819
1.97935
1.79586
1.60121
1.51068
1.44065
1.35904
1.30668
1.30617
1.29706
1.28107
1.27827
1.28918
1.30424
1.31567
1.32256
1.33162
1.32961
1.31998
1.30141
1.28029
1.26429
1.25564
1.25424
1.2553
1.26015
1.26579
1.26597
1.26218
1.25464
1.24299
1.22823
1.22018
1.21826
1.21547
1.21641
1.23559
1.36064
1.82615
2.72114
3.00993
3.01914
2.93844
2.89248
2.874
2.81959
2.77811
2.73656
2.69976
2.62915
2.68059
2.91633
3.33208
3.76586
4.14687
4.28636
4.38842
4.39012
4.30147
4.16526
4.01664
3.95281
3.92115
3.91101
3.9071
3.8789
3.8376
3.77546
3.68145
3.56619
3.45511
3.38116
3.34443
3.31587
3.2928
3.26658
3.23998
3.17099
4.35518
4.10531
3.76582
3.39624
3.06255
2.72501
2.42498
2.2155
2.01394
1.79633
1.67295
1.59272
1.48257
1.36255
1.34597
1.31823
1.27582
1.26211
1.26849
1.27918
1.29199
1.30223
1.31256
1.31343
1.30936
1.3037
1.29585
1.28366
1.27335
1.26551
1.26176
1.26275
1.2627
1.26047
1.25391
1.24222
1.23086
1.22469
1.22288
1.22078
1.22287
1.24207
1.42254
1.94601
2.73283
3.10654
3.0612
3.01917
2.95443
2.89906
2.88221
2.84978
2.7991
2.75401
2.6892
2.6133
2.53431
2.50691
2.56684
2.80715
3.25737
3.66658
4.02794
4.17857
4.22287
4.21704
4.10051
3.97276
3.89363
3.85151
3.81913
3.79944
3.77328
3.7359
3.68332
3.6035
3.49903
3.3893
3.30607
3.26725
3.24054
3.21787
3.19751
3.14322
4.42519
4.22848
3.94515
3.60485
3.28739
2.98077
2.668
2.43653
2.23246
2.02008
1.84821
1.75279
1.6327
1.4927
1.43868
1.39483
1.32982
1.28156
1.28059
1.28286
1.27378
1.2752
1.28596
1.29011
1.2885
1.28759
1.29034
1.29229
1.28932
1.2845
1.27758
1.27074
1.26409
1.25747
1.24823
1.23563
1.22693
1.22422
1.22408
1.22776
1.24993
1.42027
2.13185
2.78619
3.17189
3.14538
3.04937
2.96636
2.92733
2.88186
2.83849
2.81456
2.78117
2.73032
2.67798
2.61352
2.54803
2.49685
2.43569
2.40892
2.49372
2.7444
3.13755
3.56335
3.85989
4.0245
4.05355
4.01295
3.92215
3.8353
3.77056
3.72183
3.68476
3.65997
3.63064
3.58889
3.53012
3.4428
3.3268
3.23532
3.19638
3.16837
3.14566
3.09861
4.48062
4.33313
4.0965
3.80139
3.49879
3.19175
2.89773
2.66209
2.44969
2.20931
2.04074
1.92778
1.80234
1.63337
1.5527
1.49619
1.41809
1.3315
1.3071
1.29877
1.26678
1.25908
1.26483
1.27358
1.27598
1.27411
1.27713
1.28357
1.28407
1.28513
1.2837
1.27894
1.26967
1.25925
1.24876
1.23878
1.23076
1.22724
1.22998
1.25838
1.44093
2.13098
2.9815
3.19145
3.13871
3.09871
3.00878
2.93378
2.89461
2.85154
2.80282
2.75166
2.70482
2.66911
2.63715
2.59694
2.56224
2.52087
2.45544
2.36419
2.31366
2.30541
2.38112
2.6199
2.99071
3.4324
3.72387
3.84756
3.85249
3.82327
3.75841
3.66792
3.62365
3.5946
3.56891
3.53888
3.51036
3.46395
3.37782
3.25319
3.16727
3.12676
3.10171
3.0572
4.48182
4.4104
4.23152
3.96799
3.69014
3.41154
3.11542
2.85849
2.65485
2.43242
2.21686
2.09203
1.96621
1.79576
1.68582
1.62131
1.53896
1.41098
1.37229
1.35454
1.31551
1.27535
1.26858
1.27344
1.2658
1.25533
1.25648
1.26559
1.26988
1.26978
1.27028
1.27221
1.27007
1.26254
1.25378
1.24603
1.23931
1.24126
1.2743
1.52835
2.18037
3.0337
3.21107
3.22664
3.17982
3.13537
3.08688
2.99846
2.90876
2.82518
2.74658
2.68817
2.64086
2.60751
2.59346
2.58065
2.55402
2.51634
2.4635
2.37222
2.27054
2.22311
2.20417
2.20434
2.28191
2.51539
2.88712
3.30259
3.55285
3.63802
3.65667
3.61404
3.57273
3.53214
3.51748
3.50022
3.47289
3.43386
3.38105
3.28926
3.17252
3.09474
3.06255
3.01948
4.41641
4.45217
4.33081
4.12013
3.86592
3.58471
3.30517
3.0734
2.84916
2.61268
2.40557
2.26498
2.11979
1.94824
1.81869
1.7563
1.66606
1.54511
1.45947
1.42447
1.37586
1.30726
1.28026
1.28097
1.26377
1.24656
1.2478
1.25356
1.25802
1.25922
1.25835
1.26145
1.26489
1.26332
1.25907
1.25521
1.25633
1.28702
1.60344
2.36063
3.08167
3.28598
3.18433
3.15848
3.14965
3.11194
3.0727
3.0149
2.92071
2.81501
2.72212
2.65892
2.61586
2.58314
2.57287
2.56357
2.52135
2.47921
2.4343
2.37253
2.27974
2.20468
2.16644
2.13499
2.11932
2.12228
2.20021
2.39937
2.72678
3.06812
3.33273
3.44104
3.434
3.43377
3.45482
3.47114
3.44689
3.40331
3.35629
3.28595
3.19277
3.09567
3.03714
2.98412
4.24653
4.44102
4.41589
4.25305
4.02832
3.78086
3.49457
3.2324
3.0389
2.81685
2.58573
2.42628
2.29519
2.10428
1.96594
1.88881
1.8013
1.66336
1.57444
1.53007
1.47106
1.38077
1.31864
1.3129
1.28967
1.25981
1.25555
1.25926
1.26035
1.25401
1.24862
1.24886
1.25236
1.25235
1.25184
1.25808
1.3021
1.60284
2.55788
3.21695
3.27469
3.1902
3.11321
3.11732
3.11165
3.07834
3.03532
2.97373
2.89925
2.80842
2.71605
2.64638
2.60068
2.56544
2.53421
2.50041
2.46087
2.42046
2.38168
2.34553
2.30146
2.24032
2.17148
2.12139
2.07641
2.04252
2.02569
2.02313
2.07671
2.23182
2.52255
2.84039
3.10782
3.23082
3.27897
3.32779
3.36014
3.3631
3.33114
3.26982
3.19467
3.11006
3.03729
2.9558
4.02859
4.30938
4.42183
4.3535
4.17431
3.93937
3.6831
3.42386
3.2068
2.98678
2.7635
2.59743
2.45888
2.27809
2.10511
2.01621
1.92887
1.8013
1.68669
1.63266
1.57223
1.47161
1.39412
1.37607
1.34639
1.29499
1.25773
1.25815
1.25882
1.24282
1.23966
1.24063
1.24239
1.24246
1.24869
1.31932
1.68521
2.57459
3.30546
3.40162
3.36409
3.2715
3.17649
3.11633
3.06719
3.01782
2.96556
2.90553
2.85081
2.79984
2.73414
2.65799
2.58885
2.52662
2.46621
2.41886
2.38288
2.3534
2.32964
2.30869
2.2851
2.25468
2.19865
2.10849
2.03967
1.99831
1.97373
1.95642
1.94663
1.94181
1.98704
2.11815
2.33671
2.62742
2.86567
3.03306
3.1649
3.2099
3.23883
3.23498
3.18871
3.11824
3.05371
2.94719
3.90196
4.13297
4.3606
4.40107
4.28984
4.09691
3.8425
3.58648
3.38428
3.16839
2.92725
2.76605
2.61452
2.4269
2.25788
2.16429
2.05985
1.91369
1.8041
1.75443
1.68475
1.58267
1.48445
1.4574
1.42354
1.36116
1.29854
1.28986
1.28051
1.25333
1.23869
1.23927
1.24158
1.24972
1.33025
1.84434
2.65984
3.37035
3.5365
3.4887
3.38987
3.27619
3.14958
3.05385
2.99283
2.94847
2.89626
2.84701
2.81301
2.79209
2.75058
2.6846
2.59458
2.4943
2.41504
2.36382
2.33011
2.30744
2.29749
2.27661
2.24812
2.22108
2.1823
2.09749
1.99995
1.96308
1.94355
1.92917
1.90967
1.88464
1.87922
1.868
1.88372
1.94128
2.10715
2.35549
2.63843
2.83652
3.02479
3.0917
3.0981
3.08593
3.05445
2.95419
3.88532
3.958
4.19059
4.37535
4.3728
4.24066
4.02968
3.76309
3.53898
3.33388
3.1011
2.91873
2.78651
2.60035
2.40209
2.29318
2.20723
2.05373
1.92353
1.86611
1.80161
1.69496
1.59728
1.56237
1.51577
1.43687
1.34857
1.33784
1.3206
1.28764
1.26063
1.24425
1.24964
1.32405
1.86649
2.84599
3.42074
3.5361
3.45345
3.3453
3.26204
3.19291
3.12158
3.0467
2.96947
2.91426
2.87244
2.82727
2.79038
2.75218
2.70887
2.65778
2.58775
2.48499
2.38994
2.33492
2.30112
2.27922
2.26588
2.23833
2.20585
2.17283
2.13486
2.07227
1.98217
1.92997
1.91868
1.92072
1.90031
1.87337
1.84413
1.81381
1.78953
1.73582
1.71598
1.75675
1.92435
2.17698
2.48435
2.71195
2.87291
2.94475
2.95926
2.93178
3.92768
3.93275
4.02034
4.21937
4.35974
4.33236
4.18802
3.95599
3.73467
3.50576
3.25089
3.06951
2.93249
2.76005
2.57115
2.44993
2.34594
2.19087
2.04561
1.98194
1.91715
1.8077
1.69954
1.65911
1.61328
1.53459
1.4381
1.40579
1.38023
1.33211
1.29256
1.29896
1.41814
1.93758
3.00743
3.44535
3.47835
3.43598
3.36766
3.27487
3.2087
3.15869
3.10601
3.03803
2.952
2.85894
2.80551
2.7739
2.73252
2.68105
2.63826
2.60296
2.55769
2.48752
2.39653
2.31786
2.28134
2.25787
2.2262
2.18542
2.14472
2.10754
2.07562
2.04467
1.99099
1.91841
1.87716
1.85836
1.83882
1.82121
1.80266
1.77837
1.74689
1.70926
1.6637
1.61804
1.62117
1.67411
1.81347
2.04982
2.33431
2.54032
2.70279
2.79089
3.89328
3.9369
3.93569
4.07115
4.26761
4.32475
4.26967
4.11187
3.91932
3.70345
3.41863
3.22963
3.08422
2.90083
2.71148
2.6089
2.4984
2.33804
2.1819
2.10878
2.02934
1.91175
1.80317
1.76655
1.71296
1.63056
1.53293
1.49477
1.46032
1.39853
1.39113
1.55575
2.24215
3.16417
3.67511
3.59903
3.51475
3.42774
3.30969
3.22082
3.17872
3.1425
3.08259
3.01411
2.94085
2.84514
2.75111
2.71438
2.67404
2.61621
2.57445
2.54843
2.51215
2.46662
2.40597
2.30647
2.24135
2.21404
2.17864
2.13994
2.10225
2.06704
2.03936
2.01473
1.98194
1.92837
1.86084
1.81516
1.79059
1.77574
1.7627
1.7454
1.72256
1.69701
1.66631
1.61223
1.56243
1.54495
1.54756
1.58164
1.68372
1.88964
2.13093
2.4182
3.50246
3.81146
3.86421
3.99401
4.17178
4.28555
4.29376
4.21608
4.07015
3.87354
3.62617
3.40107
3.22984
3.05099
2.8627
2.73905
2.63459
2.476
2.32123
2.23964
2.16615
2.03137
1.90766
1.86313
1.81396
1.73204
1.63149
1.587
1.53437
1.5496
1.79446
2.66014
3.58512
3.9294
3.87157
3.69263
3.51272
3.34888
3.23564
3.17566
3.12443
3.07866
3.03681
2.98494
2.92629
2.85346
2.73524
2.63317
2.58334
2.54097
2.51531
2.49961
2.45848
2.4225
2.38449
2.30694
2.21035
2.15693
2.11929
2.0957
2.07321
2.0477
2.02621
2.00096
1.96625
1.91321
1.84
1.77519
1.74355
1.72842
1.72215
1.72097
1.70879
1.6911
1.66508
1.6105
1.53586
1.50487
1.49521
1.48726
1.48188
1.50146
1.57516
1.84813
2.20827
3.20891
3.63071
3.89957
4.14203
4.25911
4.29696
4.29115
4.21277
4.02989
3.787
3.59879
3.41793
3.20761
3.00544
2.88989
2.7655
2.60985
2.4501
2.37184
2.28866
2.16354
2.03523
1.97485
1.92179
1.82062
1.72326
1.67082
1.71922
2.09417
3.08825
4.10122
4.27125
4.14665
3.93448
3.72528
3.53507
3.37331
3.25364
3.1668
3.09745
3.0477
3.00091
2.94695
2.893
2.82926
2.72441
2.58188
2.50582
2.48183
2.46957
2.44052
2.39698
2.36325
2.32797
2.27982
2.19348
2.11729
2.08218
2.06355
2.04125
2.0136
1.9848
1.95198
1.90941
1.85596
1.79746
1.74767
1.71832
1.69921
1.68961
1.67839
1.6581
1.63718
1.61506
1.57963
1.51627
1.47421
1.46479
1.45248
1.43502
1.42752
1.42487
1.47146
1.18929
1.97346
2.85656
3.54319
4.00087
4.14128
4.25982
4.33576
4.31365
4.18903
3.95343
3.72655
3.55441
3.3596
3.17816
3.05478
2.91931
2.72814
2.57837
2.5061
2.40774
2.27267
2.15361
2.10044
2.02548
1.93094
1.84225
1.92698
2.51684
3.60944
4.56249
4.60255
4.42777
4.20195
3.99881
3.82237
3.65
3.4806
3.34365
3.23597
3.14695
3.06899
2.99861
2.93599
2.86878
2.78629
2.68708
2.56228
2.45635
2.41721
2.39971
2.37322
2.35727
2.33563
2.29369
2.23296
2.14432
2.06196
2.04127
2.03418
2.01342
1.98621
1.95717
1.92185
1.8787
1.82296
1.76587
1.73007
1.70999
1.68945
1.66932
1.64954
1.62612
1.59949
1.57333
1.54724
1.50635
1.44937
1.42396
1.41198
1.39934
1.39133
1.38358
1.36467
1.0077
1.1267
1.61933
2.53549
3.66595
3.86541
4.05322
4.24937
4.32221
4.24932
4.08493
3.89622
3.71758
3.4841
3.30738
3.18603
3.05687
2.8918
2.74072
2.63877
2.53199
2.37031
2.26366
2.19588
2.12003
2.09281
2.28513
3.16779
4.37006
4.96178
4.8957
4.67741
4.4539
4.26374
4.1189
3.9841
3.82047
3.63014
3.44813
3.30746
3.19579
3.09371
2.99987
2.91886
2.84437
2.76697
2.68028
2.56636
2.4475
2.39626
2.36478
2.33281
2.30214
2.26889
2.22929
2.17894
2.10993
2.02351
1.97028
1.95541
1.93071
1.9037
1.88928
1.86788
1.84101
1.80436
1.75314
1.70221
1.66198
1.63557
1.62141
1.60912
1.59067
1.56371
1.539
1.51548
1.47558
1.43062
1.39939
1.37574
1.36199
1.3549
1.34726
1.32627
1.00007
1.00364
1.05944
1.36186
2.40462
3.41972
3.82229
4.16748
4.3117
4.30529
4.22821
4.0779
3.88679
3.65123
3.48452
3.3379
3.18391
2.99741
2.88637
2.78972
2.67146
2.49797
2.37676
2.28777
2.34031
2.78051
3.984
5.20858
5.47746
5.34953
5.05663
4.78806
4.5691
4.40427
4.26558
4.12141
3.95215
3.75836
3.56024
3.38519
3.24423
3.13041
3.03314
2.94241
2.85204
2.76416
2.67744
2.58415
2.47798
2.39037
2.33686
2.30148
2.26388
2.22138
2.18457
2.14728
2.08204
1.99011
1.93569
1.90919
1.87989
1.84379
1.83038
1.81656
1.78993
1.75303
1.71589
1.68087
1.63798
1.59527
1.57982
1.56993
1.55482
1.53105
1.51184
1.49416
1.4719
1.43139
1.36978
1.3299
1.32025
1.31584
1.31306
1.29796
1
1.00002
1.00127
1.02439
1.26353
2.23457
3.11193
3.8956
4.27073
4.35321
4.27142
4.14445
4.01695
3.84953
3.66459
3.48898
3.33239
3.14533
3.00838
2.9114
2.77185
2.62072
2.51719
2.64538
3.46384
4.91486
6.0677
6.04489
5.77927
5.4349
5.14573
4.92487
4.72028
4.53665
4.36513
4.19107
4.01114
3.8258
3.63739
3.45924
3.30923
3.18989
3.09173
3.00168
2.90915
2.81032
2.7021
2.58833
2.48656
2.39927
2.33025
2.27983
2.23493
2.18828
2.14837
2.10796
2.05511
1.98639
1.92157
1.87379
1.83311
1.78876
1.76745
1.75833
1.73907
1.70946
1.6901
1.665
1.60315
1.54378
1.53043
1.52231
1.5088
1.50032
1.49225
1.47577
1.44757
1.40001
1.33645
1.30722
1.29993
1.29399
1.29003
1.276
1
1
1.00001
1.00044
1.01449
1.22865
1.83943
2.83876
4.00945
4.23294
4.24067
4.20927
4.14119
3.97293
3.77154
3.60957
3.46556
3.28325
3.1633
3.0334
2.87695
2.80506
3.1098
4.35291
5.96064
6.74899
6.70501
6.37061
5.93086
5.54658
5.24674
5.01008
4.81002
4.62815
4.45072
4.26661
4.07914
3.89352
3.70942
3.531
3.37512
3.25086
3.15032
3.0599
2.96741
2.86786
2.76047
2.64536
2.52092
2.39894
2.31821
2.26351
2.21442
2.18039
2.14682
2.09768
2.03586
1.96585
1.89488
1.83978
1.79515
1.7491
1.72161
1.71326
1.70018
1.68111
1.65964
1.63001
1.56974
1.5021
1.48701
1.482
1.47251
1.45924
1.44529
1.4309
1.41198
1.3757
1.32308
1.30137
1.29579
1.2903
1.28539
1.26625
1
1
1
1
1.00024
1.01014
1.10006
1.47191
2.88292
3.75646
4.08838
4.26029
4.22571
4.07662
3.91557
3.78909
3.60565
3.42761
3.30194
3.12847
3.18415
3.89848
5.56316
7.08563
7.21306
7.04492
6.74271
6.42521
6.08011
5.72839
5.40736
5.13294
4.90296
4.70106
4.51342
4.33135
4.1512
3.97242
3.79437
3.61812
3.45331
3.30995
3.18679
3.07634
2.97075
2.86714
2.7695
2.67517
2.56898
2.45335
2.35669
2.27807
2.20584
2.16444
2.13946
2.10928
2.05934
1.98326
1.88712
1.81444
1.77313
1.72647
1.68812
1.67607
1.66069
1.63897
1.61641
1.58983
1.54162
1.46705
1.43974
1.4329
1.42515
1.4134
1.40126
1.39127
1.37878
1.35132
1.29946
1.27283
1.26749
1.26407
1.25952
1.24174
1
1
1
1
1
1.00008
1.00257
1.03318
1.45802
2.6537
3.52721
4.16599
4.26575
4.23047
4.10134
3.94072
3.75171
3.61263
3.43834
3.63031
4.98257
7.09396
8.01896
8.03951
7.66967
7.16143
6.77868
6.49504
6.20603
5.8723
5.52815
5.23365
4.99562
4.78653
4.59015
4.40468
4.22781
4.0514
3.86365
3.66395
3.48555
3.348
3.22738
3.11109
3.0049
2.91025
2.81438
2.70241
2.58255
2.48314
2.39416
2.30478
2.2341
2.1807
2.12713
2.06676
2.01032
1.96205
1.89897
1.81739
1.74209
1.69188
1.66586
1.65241
1.63276
1.6088
1.58725
1.56349
1.51655
1.43255
1.39775
1.38994
1.3875
1.38066
1.371
1.3639
1.3543
1.32907
1.279
1.25104
1.24634
1.24194
1.23446
1.21682
1
1
1
1
1
1
1.00001
1.00069
1.03213
1.41182
2.16586
3.41544
4.18778
4.19889
4.12667
4.02962
3.89221
3.73863
4.24615
6.34818
8.75386
8.88231
8.59307
8.11311
7.70963
7.29969
6.90371
6.56895
6.26995
5.96521
5.64292
5.3352
5.0713
4.84713
4.6459
4.46084
4.28961
4.12047
3.93774
3.73646
3.53141
3.35664
3.2307
3.13119
3.04227
2.95697
2.86841
2.76907
2.65385
2.515
2.38084
2.29403
2.2388
2.18666
2.12788
2.06507
2.00758
1.95811
1.90407
1.82507
1.72081
1.66524
1.65059
1.6366
1.61783
1.59856
1.57411
1.53657
1.47732
1.39974
1.37093
1.36415
1.36028
1.35126
1.34301
1.33896
1.33153
1.30851
1.25983
1.23037
1.22623
1.22265
1.21752
1.20545
1
1
1
1
1
1
1
1
1.00065
1.02562
1.17165
1.87267
3.43926
4.01086
4.03765
4.07325
4.12304
5.0628
7.85898
10.0509
10.2315
9.6503
8.73948
8.10514
7.7287
7.39093
7.03615
6.67676
6.32223
5.9785
5.65769
5.36923
5.11459
4.89182
4.69372
4.50999
4.33283
4.15118
3.95456
3.74681
3.55651
3.40537
3.28306
3.17483
3.07473
2.9777
2.87887
2.77433
2.65954
2.53529
2.4242
2.33632
2.26189
2.19641
2.13525
2.07668
2.02586
1.97533
1.91019
1.82206
1.72889
1.67696
1.65532
1.63604
1.61424
1.59045
1.56303
1.52371
1.46312
1.39252
1.36028
1.3517
1.34413
1.33352
1.32597
1.3211
1.31163
1.28791
1.23738
1.20234
1.19804
1.19576
1.19583
1.196
1
1
1
1
1
1
1
1
1
1.00029
1.00572
1.09497
1.94129
3.18543
3.7541
4.50655
5.91523
9.27948
10.9054
10.616
9.94736
9.32856
8.75785
8.20618
7.79492
7.44897
7.1128
6.7645
6.39953
6.03742
5.70042
5.39836
5.13538
4.91148
4.72346
4.55707
4.38835
4.19736
3.99279
3.82271
3.6763
3.53009
3.39404
3.27331
3.16565
3.06449
2.96445
2.86144
2.75292
2.6404
2.52505
2.41315
2.31956
2.2484
2.19069
2.13939
2.08848
2.02991
1.95809
1.87183
1.78306
1.72171
1.6881
1.6615
1.63596
1.61041
1.58171
1.54031
1.47869
1.40876
1.3728
1.3604
1.34875
1.33733
1.32877
1.31856
1.30395
1.27852
1.22887
1.19195
1.18681
1.18479
1.18558
1.18956
1
1
1
1
1
1
1
1
1
1
1.00005
1.00311
1.13087
1.86752
3.49923
6.33644
10.9554
15.3068
13.4114
11.2001
9.70211
9.08124
8.69099
8.25358
7.82557
7.45617
7.12971
6.80684
6.46566
6.10382
5.73808
5.40806
5.14387
4.93292
4.74329
4.55049
4.35315
4.16611
3.98997
3.80396
3.61101
3.44013
3.29866
3.18279
3.08205
2.98647
2.88927
2.78864
2.68292
2.56976
2.45041
2.33781
2.24805
2.18115
2.12608
2.07607
2.02656
1.97127
1.90165
1.81367
1.72548
1.67182
1.64047
1.61298
1.58776
1.56456
1.53749
1.4947
1.42773
1.35877
1.33192
1.32201
1.31189
1.30381
1.29824
1.28999
1.27706
1.25069
1.19809
1.16962
1.16628
1.16479
1.16617
1.17501
)
;

boundaryField
{
    inlet
    {
        type            fixedValue;
        value           uniform 1;
    }
    outlet
    {
        type            zeroGradient;
    }
    bottom
    {
        type            zeroGradient;
    }
    top
    {
        type            zeroGradient;
    }
    obstacle
    {
        type            zeroGradient;
    }
    defaultFaces
    {
        type            empty;
    }
}


// ************************************************************************* //
