/*--------------------------------*- C++ -*----------------------------------*\
  =========                 |
  \\      /  F ield         | OpenFOAM: The Open Source CFD Toolbox
   \\    /   O peration     | Website:  https://openfoam.org
    \\  /    A nd           | Version:  7
     \\/     M anipulation  |
\*---------------------------------------------------------------------------*/
FoamFile
{
    version     2.0;
    format      ascii;
    class       volVectorField;
    location    "2.5";
    object      U;
}
// * * * * * * * * * * * * * * * * * * * * * * * * * * * * * * * * * * * * * //

dimensions      [0 1 -1 0 0 0 0];

internalField   nonuniform List<vector> 
4080
(
(3 9.56726e-18 0)
(3 2.13216e-18 0)
(3 -7.24734e-17 0)
(3 1.08073e-16 0)
(3 3.77121e-16 0)
(3 2.98452e-16 0)
(3 -1.41429e-16 0)
(3 -8.85859e-16 0)
(3 -1.39455e-15 0)
(3 -1.52216e-15 0)
(3 -8.4595e-16 0)
(3 -4.57146e-16 0)
(3 -2.44242e-16 0)
(3 5.10614e-17 0)
(3 -1.99214e-16 0)
(3 -9.59438e-17 0)
(3 3.87853e-16 0)
(2.63343 0.0130892 0)
(0.871848 0.0297041 0)
(0.629328 0.0407943 0)
(0.525945 0.0499574 0)
(0.399571 0.0592653 0)
(0.257204 0.0662463 0)
(0.107658 0.0857866 0)
(3 1.57536e-16 0)
(3 -3.15025e-17 0)
(3 -1.58366e-16 0)
(3 -6.95374e-18 0)
(3 2.59442e-16 0)
(3 -5.54678e-17 0)
(3 -7.42819e-16 0)
(3 -1.27783e-15 0)
(3 -1.63736e-15 0)
(3 -1.54672e-15 0)
(3 -1.06686e-15 0)
(3 -6.18426e-16 0)
(3 -4.08204e-16 0)
(3 2.12105e-16 0)
(3 2.71894e-16 0)
(3 8.10612e-16 0)
(3 3.20871e-16 0)
(2.68243 0.0697512 0)
(0.877536 0.14249 0)
(0.604485 0.139585 0)
(0.497234 0.15793 0)
(0.3737 0.189633 0)
(0.236421 0.217851 0)
(0.0915182 0.272491 0)
(3 5.68292e-17 0)
(3 -1.50331e-16 0)
(3 -1.64414e-16 0)
(3 5.73973e-17 0)
(3 -7.18087e-17 0)
(3 -4.64726e-16 0)
(3 -6.49309e-16 0)
(3 -4.83019e-16 0)
(3 8.90534e-17 0)
(3 1.851e-16 0)
(3 -1.403e-16 0)
(3 -2.22296e-16 0)
(3 2.25874e-16 0)
(3 2.39501e-16 0)
(3 5.90259e-16 0)
(3 6.93671e-16 0)
(3 1.81305e-16 0)
(2.85098 0.128485 0)
(0.9698 0.265837 0)
(0.652044 0.245608 0)
(0.545711 0.272755 0)
(0.433726 0.32102 0)
(0.296443 0.358293 0)
(0.149444 0.454404 0)
(3 -1.60518e-16 0)
(3 1.84154e-16 0)
(3 5.28925e-16 0)
(3 8.30271e-16 0)
(3 6.52519e-16 0)
(3 6.33408e-16 0)
(3 3.43534e-16 0)
(3 3.49069e-16 0)
(3 5.7568e-16 0)
(3 5.45776e-16 0)
(3 5.45241e-16 0)
(3 4.39537e-16 0)
(3 2.91314e-16 0)
(3 -2.52183e-17 0)
(3 -1.20343e-16 0)
(3 4.29714e-17 0)
(3 4.59095e-17 0)
(3.03132 0.0174883 0)
(1.15766 0.349216 0)
(0.754065 0.325822 0)
(0.651356 0.360566 0)
(0.545347 0.432434 0)
(0.361136 0.542528 0)
(0.196956 0.757758 0)
(3 2.22945e-17 0)
(3 5.45502e-16 0)
(3 6.27416e-16 0)
(3 3.3286e-16 0)
(3 3.25532e-16 0)
(3 4.15449e-16 0)
(3 4.08322e-16 0)
(3 6.36797e-16 0)
(3 6.96765e-16 0)
(3 5.39347e-16 0)
(3 5.89759e-16 0)
(3 -3.34291e-16 0)
(3 -6.77552e-16 0)
(3 -7.58998e-16 0)
(3 -9.33154e-16 0)
(3 -1.08604e-15 0)
(3 -6.82075e-16 0)
(3.00281 8.54082e-06 0)
(1.43329 0.400562 0)
(0.806999 0.428749 0)
(0.694155 0.471189 0)
(0.614226 0.579186 0)
(0.557245 0.75887 0)
(0.658231 1.03891 0)
(3 2.99869e-17 0)
(3 -5.11762e-17 0)
(3 -4.3065e-16 0)
(3 -9.59885e-16 0)
(3 -1.04038e-15 0)
(3 -8.32169e-16 0)
(3 -1.82369e-16 0)
(3 4.50431e-16 0)
(3 8.96343e-16 0)
(3 8.40908e-16 0)
(3 3.31768e-16 0)
(3 -3.2278e-16 0)
(3 -6.48886e-16 0)
(3 -5.69645e-16 0)
(3 -9.69801e-16 0)
(3 -1.4616e-15 0)
(3 -1.14722e-15 0)
(3.00002 -8.02397e-07 0)
(1.93741 0.453119 0)
(0.88989 0.540576 0)
(0.761357 0.556345 0)
(0.734939 0.655966 0)
(0.775122 0.786311 0)
(0.99083 0.92066 0)
(3 5.98234e-17 0)
(3 -1.51687e-16 0)
(3 -4.59002e-16 0)
(3 -8.23398e-16 0)
(3 -1.16761e-15 0)
(3 -1.21687e-15 0)
(3 -8.64444e-16 0)
(3 -3.74019e-16 0)
(3 1.86988e-16 0)
(3 3.68982e-16 0)
(3 3.8036e-16 0)
(3 5.46726e-16 0)
(3 1.11257e-16 0)
(3 -1.5802e-16 0)
(3 -2.8344e-16 0)
(3 -7.27985e-16 0)
(3 -8.24041e-16 0)
(3 -9.5703e-07 0)
(2.73788 0.304232 0)
(1.0962 0.641242 0)
(0.888211 0.607032 0)
(0.877635 0.697538 0)
(0.956802 0.80605 0)
(1.20347 0.892703 0)
(3 1.72063e-16 0)
(3 1.82784e-16 0)
(3 8.88044e-17 0)
(3 -4.42223e-17 0)
(3 5.75252e-16 0)
(3 3.30918e-16 0)
(3 8.41122e-17 0)
(3 -3.08695e-16 0)
(3 -3.27909e-16 0)
(3 -3.46953e-16 0)
(3 3.8134e-16 0)
(3 4.00303e-17 0)
(3 -6.84542e-16 0)
(3 -9.86944e-16 0)
(3 -7.56891e-16 0)
(3 -8.98301e-16 0)
(3 -1.08785e-15 0)
(3 -2.02275e-07 0)
(3.07254 0.0249264 0)
(1.4959 0.661881 0)
(1.01799 0.707609 0)
(1.01732 0.724082 0)
(1.08434 0.785988 0)
(1.29147 0.837713 0)
(3 -1.41182e-17 0)
(3 5.98015e-16 0)
(3 8.81445e-16 0)
(3 1.14268e-15 0)
(3 1.87902e-15 0)
(3 2.19075e-15 0)
(3 1.65167e-15 0)
(3 4.05515e-16 0)
(3 -4.03625e-16 0)
(3 -8.55275e-16 0)
(3 -1.32846e-15 0)
(3 -1.4283e-15 0)
(3 -1.50345e-15 0)
(3 -1.28275e-15 0)
(3 -1.44373e-15 0)
(3 -1.33215e-15 0)
(3 -1.48173e-15 0)
(3 -2.09508e-08 0)
(3.00391 0.000150086 0)
(2.19609 0.587605 0)
(1.15177 0.806275 0)
(1.10475 0.797995 0)
(1.19114 0.814362 0)
(1.35515 0.826972 0)
(3 -3.76048e-17 0)
(3 1.12048e-17 0)
(3 4.92214e-16 0)
(3 1.11657e-15 0)
(3 4.59667e-16 0)
(3 5.68494e-16 0)
(3 4.72233e-16 0)
(3 1.3508e-16 0)
(3 -1.16044e-15 0)
(3 -1.75461e-15 0)
(3 -1.90302e-15 0)
(3 -1.83343e-15 0)
(3 -1.04132e-15 0)
(3 -9.88761e-16 0)
(3 -9.83497e-16 0)
(3 -1.21795e-15 0)
(3 -9.46989e-16 0)
(3 -6.78692e-10 0)
(3.00001 -3.4079e-08 0)
(3.03813 0.134341 0)
(1.53209 0.819098 0)
(1.20673 0.789072 0)
(1.29759 0.801202 0)
(1.42132 0.807774 0)
(3 -1.88544e-17 0)
(3 -5.62899e-16 0)
(3 -6.27052e-16 0)
(3 -5.53978e-16 0)
(3 -1.06443e-15 0)
(3 -9.76959e-16 0)
(3 -7.15119e-16 0)
(3 -8.9991e-16 0)
(3 -7.32262e-16 0)
(3 -7.96337e-16 0)
(3 -9.93214e-16 0)
(3 -7.91427e-16 0)
(3 -5.06087e-16 0)
(3 -7.81678e-16 0)
(3 -9.16001e-16 0)
(3 -9.37853e-16 0)
(3 -7.69462e-16 0)
(3 -1.6721e-12 0)
(3 -6.34191e-07 0)
(3.01649 0.00328274 0)
(2.21114 0.664941 0)
(1.32298 0.86948 0)
(1.33867 0.860482 0)
(1.45147 0.84874 0)
(3 2.32687e-16 0)
(3 1.98598e-16 0)
(3 -3.64196e-16 0)
(3 -1.13005e-15 0)
(3 -6.38012e-16 0)
(3 -9.41334e-17 0)
(3 -2.97407e-16 0)
(3 -5.22069e-16 0)
(3 -4.27092e-16 0)
(3 -2.27956e-16 0)
(3 -4.04557e-16 0)
(3 -6.27501e-16 0)
(3 -7.37669e-16 0)
(3 -8.3943e-16 0)
(3 -1.2019e-15 0)
(3 -1.81755e-15 0)
(3 -1.55226e-15 0)
(3 -2.76661e-15 0)
(3 -1.34546e-07 0)
(3.0001 4.48813e-05 0)
(3.00295 0.150724 0)
(1.72641 0.864151 0)
(1.3904 0.863999 0)
(1.50465 0.849912 0)
(3 -2.95994e-17 0)
(3 -1.21542e-16 0)
(3 -9.69653e-17 0)
(3 -1.91999e-17 0)
(3 5.14978e-16 0)
(3 6.77373e-16 0)
(3 5.92797e-16 0)
(3 7.40312e-16 0)
(3 6.03038e-16 0)
(3 1.91894e-16 0)
(3 -1.04125e-16 0)
(3 -6.16258e-16 0)
(3 -1.26642e-15 0)
(3 -1.23394e-15 0)
(3 -7.5879e-16 0)
(3 -5.87701e-16 0)
(3 -2.94178e-16 0)
(3 -3.7362e-17 0)
(3 -1.36861e-08 0)
(3 6.29057e-09 0)
(3.01012 0.00668242 0)
(2.54355 0.579607 0)
(1.54953 0.913993 0)
(1.5383 0.905942 0)
(3 -2.83132e-16 0)
(3 -4.65164e-16 0)
(3 4.21968e-17 0)
(3 7.61088e-16 0)
(3 1.1026e-15 0)
(3 9.36055e-16 0)
(3 1.52595e-15 0)
(3 1.50084e-15 0)
(3 1.31302e-15 0)
(3 1.11772e-15 0)
(3 8.17959e-16 0)
(3 2.63551e-17 0)
(3 -5.85207e-16 0)
(3 -6.78068e-16 0)
(3 -8.89776e-18 0)
(3 1.52677e-15 0)
(3 1.52909e-15 0)
(3 4.53644e-16 0)
(3 -1.65023e-10 0)
(3 -1.69368e-09 0)
(3.00005 9.99358e-05 0)
(3.02433 0.0747051 0)
(2.0663 0.779907 0)
(1.61645 0.913989 0)
(3 -7.23476e-17 0)
(3 -1.80634e-17 0)
(3 -1.14497e-16 0)
(3 -3.31564e-16 0)
(3 -4.81926e-16 0)
(3 -4.58543e-16 0)
(3 -8.19634e-17 0)
(3 6.55195e-16 0)
(3 7.09531e-16 0)
(3 6.75038e-16 0)
(3 8.16672e-16 0)
(3 7.66814e-16 0)
(3 9.65341e-16 0)
(3 9.63711e-16 0)
(3 1.07131e-15 0)
(3 1.09989e-15 0)
(3 6.97157e-16 0)
(3 1.00206e-15 0)
(3 -8.59917e-13 0)
(3 -3.65837e-10 0)
(3 9.70908e-08 0)
(3.0019 0.00364989 0)
(2.8237 0.300906 0)
(1.91803 0.869987 0)
(3 6.34861e-17 0)
(3 1.08977e-16 0)
(3 -3.33711e-16 0)
(3 -7.74129e-16 0)
(3 -1.97477e-15 0)
(3 -2.3772e-15 0)
(3 -2.81015e-15 0)
(3 -1.65536e-15 0)
(3 -5.88079e-16 0)
(3 -1.4714e-16 0)
(3 3.53526e-16 0)
(3 9.6911e-16 0)
(3 1.4668e-15 0)
(3 1.55813e-15 0)
(3 1.22395e-15 0)
(3 6.44561e-16 0)
(3 -2.24402e-16 0)
(3 -1.32512e-16 0)
(3 8.13307e-17 0)
(3 -3.60312e-11 0)
(3 -1.26886e-11 0)
(3 2.27374e-05 0)
(3.00072 0.0243728 0)
(2.58258 0.515093 0)
(3 -2.63632e-17 0)
(3 3.38405e-17 0)
(3 4.39597e-16 0)
(3 3.58495e-16 0)
(3 8.97303e-17 0)
(3 -7.11747e-16 0)
(3 -9.00999e-16 0)
(3 -1.25321e-15 0)
(3 -1.74548e-15 0)
(3 -9.69826e-16 0)
(3 3.08213e-16 0)
(3 4.42429e-16 0)
(3 8.54821e-16 0)
(3 1.54749e-16 0)
(3 -1.49115e-16 0)
(3 -9.53195e-16 0)
(3 -1.4617e-15 0)
(3 -1.14417e-15 0)
(3 -2.14973e-16 0)
(3 -9.17708e-13 0)
(3 -2.76236e-12 0)
(3 1.87211e-08 0)
(2.99994 0.000586122 0)
(2.97583 0.0766107 0)
(3 5.06695e-17 0)
(3 9.22235e-17 0)
(3 2.53573e-16 0)
(3 8.03414e-16 0)
(3 7.56851e-16 0)
(3 4.42874e-16 0)
(3 7.68611e-18 0)
(3 -3.20146e-16 0)
(3 -6.13257e-16 0)
(3 -3.33588e-16 0)
(3 -3.94997e-16 0)
(3 -2.3846e-16 0)
(3 -2.47185e-16 0)
(3 -9.90644e-16 0)
(3 -1.52241e-15 0)
(3 -1.41124e-15 0)
(3 -1.37035e-15 0)
(3 -1.74551e-15 0)
(3 -2.04518e-15 0)
(3 -5.40669e-15 0)
(3 -6.83179e-13 0)
(3 5.9518e-12 0)
(3 1.47094e-06 0)
(2.99947 0.00329655 0)
(3 3.90486e-17 0)
(3 1.91961e-16 0)
(3 -4.34523e-17 0)
(3 -1.41883e-16 0)
(3 -1.063e-16 0)
(3 1.1479e-16 0)
(3 7.24317e-17 0)
(3 -3.76282e-16 0)
(3 -6.82801e-16 0)
(3 -6.49677e-16 0)
(3 -1.19084e-15 0)
(3 -1.97209e-15 0)
(3 -1.9842e-15 0)
(3 -1.45298e-15 0)
(3 -1.08264e-15 0)
(3 -5.69062e-16 0)
(3 -5.2752e-16 0)
(3 -1.13123e-15 0)
(3 -1.54661e-15 0)
(3 -1.68711e-15 0)
(3 -7.65871e-14 0)
(3 -7.7464e-14 0)
(3 1.25592e-09 0)
(2.99999 1.93843e-05 0)
(3 2.83864e-17 0)
(3 9.36281e-17 0)
(3 -1.01345e-16 0)
(3 -1.29422e-16 0)
(3 1.90688e-16 0)
(3 3.46183e-16 0)
(3 3.87664e-16 0)
(3 -9.72574e-18 0)
(3 -3.99514e-16 0)
(3 -8.33018e-16 0)
(3 -1.10251e-15 0)
(3 -9.52957e-16 0)
(3 -6.39058e-16 0)
(3 -8.20208e-16 0)
(3 -1.30847e-15 0)
(3 -1.36312e-16 0)
(3 3.89086e-16 0)
(3 2.86234e-16 0)
(3 3.29685e-16 0)
(3 1.23754e-16 0)
(3 -2.51972e-15 0)
(3 -2.89167e-14 0)
(3 1.80302e-13 0)
(3 2.60242e-08 0)
(3 -5.10114e-17 0)
(3 -1.96071e-16 0)
(3 -1.08589e-16 0)
(3 2.81004e-16 0)
(3 5.17687e-16 0)
(3 2.51322e-16 0)
(3 1.63255e-16 0)
(3 3.53469e-16 0)
(3 4.70454e-16 0)
(3 8.17469e-17 0)
(3 -3.77792e-17 0)
(3 5.09709e-16 0)
(3 1.885e-16 0)
(3 -2.78942e-16 0)
(3 -8.79477e-17 0)
(3 5.96255e-16 0)
(3 1.23502e-15 0)
(3 1.25046e-15 0)
(3 9.37858e-16 0)
(3 4.8754e-16 0)
(3 4.97439e-16 0)
(3 -5.49177e-15 0)
(3 -5.318e-15 0)
(3 9.618e-12 0)
(3 2.51992e-17 0)
(3 -1.70272e-16 0)
(3 -1.79685e-16 0)
(3 -2.38552e-16 0)
(3 -5.21535e-16 0)
(3 -3.28726e-16 0)
(3 -2.20813e-16 0)
(3 -2.73394e-16 0)
(3 -2.10459e-16 0)
(3 -2.59556e-16 0)
(3 7.45051e-17 0)
(3 2.9066e-16 0)
(3 2.39964e-17 0)
(3 -4.59363e-16 0)
(3 -1.15314e-15 0)
(3 -1.5611e-15 0)
(3 -1.79185e-15 0)
(3 -4.21103e-16 0)
(3 -8.53593e-17 0)
(3 9.10401e-17 0)
(3 -5.04246e-16 0)
(3 -1.30691e-15 0)
(3 -2.83084e-15 0)
(3 -1.04363e-15 0)
(3 7.45838e-17 0)
(3 4.47924e-16 0)
(3 2.23911e-16 0)
(3 -2.67552e-16 0)
(3 -1.72577e-16 0)
(3 2.7038e-16 0)
(3 3.28318e-16 0)
(3 -7.55501e-17 0)
(3 -6.72746e-16 0)
(3 -7.75576e-16 0)
(3 -8.13005e-17 0)
(3 -6.08084e-17 0)
(3 -7.18554e-17 0)
(3 -4.07287e-16 0)
(3 -1.41959e-15 0)
(3 -1.44196e-15 0)
(3 -1.37716e-15 0)
(3 -1.04868e-15 0)
(3 -1.42159e-16 0)
(3 2.15311e-16 0)
(3 -5.88236e-17 0)
(3 -2.55756e-16 0)
(3 3.66737e-16 0)
(3 3.79334e-16 0)
(3 3.43479e-17 0)
(3 2.6813e-16 0)
(3 2.99097e-16 0)
(3 2.98163e-16 0)
(3 7.70197e-16 0)
(3 1.3605e-15 0)
(3 1.37979e-15 0)
(3 1.4091e-15 0)
(3 1.0993e-15 0)
(3 6.98149e-16 0)
(3 1.11743e-16 0)
(3 -4.09512e-16 0)
(3 -5.66835e-16 0)
(3 -1.08888e-16 0)
(3 1.84961e-17 0)
(3 1.33132e-16 0)
(3 3.01995e-16 0)
(3 2.84828e-16 0)
(3 1.16674e-15 0)
(3 1.45595e-15 0)
(3 1.25289e-15 0)
(3 1.19436e-15 0)
(3 1.31039e-15 0)
(3 1.1674e-15 0)
(3 3.19559e-17 0)
(3 4.94603e-17 0)
(3 4.98823e-16 0)
(3 7.95586e-16 0)
(3 4.25892e-16 0)
(3 1.60382e-16 0)
(3 2.07954e-16 0)
(3 8.3981e-16 0)
(3 1.04157e-15 0)
(3 8.80287e-16 0)
(3 3.19912e-16 0)
(3 1.16601e-16 0)
(3 4.34805e-17 0)
(3 3.38744e-16 0)
(3 1.07939e-15 0)
(3 9.00275e-16 0)
(3 4.44342e-16 0)
(3 6.40956e-16 0)
(3 1.54525e-15 0)
(3 1.55456e-15 0)
(3 8.42219e-16 0)
(3 5.86056e-16 0)
(3 -9.71896e-17 0)
(3 2.62492e-16 0)
(3 4.47324e-18 0)
(3 8.26452e-17 0)
(3 3.67757e-16 0)
(3 3.31619e-16 0)
(3 -2.3925e-16 0)
(3 -1.00447e-15 0)
(3 -9.11189e-16 0)
(3 -4.77676e-16 0)
(3 -1.22513e-16 0)
(3 1.76321e-16 0)
(3 2.83168e-16 0)
(3 3.34317e-16 0)
(3 3.29043e-16 0)
(3 8.1426e-17 0)
(3 3.79135e-16 0)
(3 6.76082e-16 0)
(3 1.26594e-15 0)
(3 1.22899e-15 0)
(3 6.58106e-16 0)
(3 7.49393e-16 0)
(3 1.15866e-15 0)
(3 1.25231e-15 0)
(3 2.66761e-16 0)
(3 -1.0347e-15 0)
(3 -7.72177e-17 0)
(3 -1.84212e-16 0)
(3 -5.40627e-16 0)
(3 -1.17091e-15 0)
(3 -9.57454e-16 0)
(3 -5.43264e-16 0)
(3 -2.53638e-16 0)
(3 3.98371e-17 0)
(3 4.77268e-16 0)
(3 5.4918e-16 0)
(3 9.69479e-17 0)
(3 -2.52201e-16 0)
(3 1.64578e-16 0)
(3 2.90018e-16 0)
(3 2.35752e-16 0)
(3 6.68686e-16 0)
(3 6.81676e-16 0)
(3 2.32044e-16 0)
(3 -4.76057e-16 0)
(3 2.2095e-16 0)
(3 9.4695e-16 0)
(3 7.14699e-16 0)
(3 -2.60889e-16 0)
(3 -1.54703e-15 0)
(3 7.38548e-17 0)
(3 -1.34584e-18 0)
(3 -1.46644e-16 0)
(3 -1.63318e-17 0)
(3 4.65597e-16 0)
(3 5.73341e-16 0)
(3 1.27278e-16 0)
(3 -6.94143e-17 0)
(3 4.33665e-17 0)
(3 3.05227e-16 0)
(3 1.37811e-16 0)
(3 -3.79253e-16 0)
(3 -9.73217e-17 0)
(3 4.4597e-16 0)
(3 5.95176e-16 0)
(3 1.12047e-15 0)
(3 1.16004e-15 0)
(3 1.09892e-15 0)
(3 9.12674e-16 0)
(3 1.22242e-15 0)
(3 3.14273e-16 0)
(3 1.19105e-16 0)
(3 1.32342e-16 0)
(3 1.19441e-16 0)
(3 7.87745e-17 0)
(3 -1.96699e-16 0)
(3 -2.12871e-16 0)
(3 7.7578e-16 0)
(3 1.32534e-15 0)
(3 9.05119e-16 0)
(3 2.29545e-16 0)
(3 8.22288e-17 0)
(3 -1.56587e-16 0)
(3 -2.78219e-16 0)
(3 1.36619e-17 0)
(3 3.80403e-16 0)
(3 2.30109e-16 0)
(3 1.32034e-16 0)
(3 6.02917e-17 0)
(3 7.27171e-16 0)
(3 8.5092e-16 0)
(3 1.43823e-15 0)
(3 1.60516e-15 0)
(3 6.76675e-16 0)
(3 7.27704e-16 0)
(3 9.44865e-16 0)
(3 3.89241e-16 0)
(3 -1.0976e-16 0)
(3 -2.19621e-16 0)
(3 -4.41787e-16 0)
(3 -6.88084e-16 0)
(3 -5.43628e-16 0)
(3 -3.7744e-16 0)
(3 -1.65186e-16 0)
(3 1.33759e-16 0)
(3 2.69102e-16 0)
(3 3.01795e-16 0)
(3 7.80898e-17 0)
(3 2.22199e-16 0)
(3 6.45437e-16 0)
(3 6.06345e-16 0)
(3 2.8196e-16 0)
(3 1.34261e-16 0)
(3 -1.26964e-16 0)
(3 -1.15179e-16 0)
(3 1.96927e-16 0)
(3 5.612e-17 0)
(3 -2.59537e-16 0)
(3 -1.52859e-16 0)
(3 2.59922e-16 0)
(3 2.27921e-17 0)
(3 -4.00689e-16 0)
(3 -1.81401e-16 0)
(3 2.86986e-16 0)
(3 -1.2566e-16 0)
(3 -9.33028e-16 0)
(3 -1.38886e-15 0)
(3 -8.62145e-16 0)
(3 -5.1709e-16 0)
(3 -5.60833e-16 0)
(3 -3.413e-16 0)
(3 1.03421e-17 0)
(3 5.02823e-16 0)
(3 2.96233e-16 0)
(3 3.47006e-16 0)
(3 5.24194e-16 0)
(3 1.84431e-16 0)
(3 -2.5078e-16 0)
(3 -1.61457e-16 0)
(3 -3.64178e-16 0)
(3 2.3771e-16 0)
(3 4.90809e-16 0)
(3 3.4862e-16 0)
(3 5.31099e-16 0)
(3 4.54022e-16 0)
(3 6.71214e-16 0)
(3 1.20551e-16 0)
(3 8.92929e-17 0)
(3 -1.46257e-17 0)
(3 -4.40527e-17 0)
(3 -4.52752e-16 0)
(3 -7.29598e-16 0)
(3 -8.62548e-16 0)
(3 -8.26221e-16 0)
(3 -6.40242e-16 0)
(3 -3.39113e-16 0)
(3 -8.24414e-17 0)
(3 9.91183e-17 0)
(3 4.49994e-16 0)
(3 7.31432e-16 0)
(3 5.20107e-16 0)
(3 4.0328e-16 0)
(3 4.51384e-16 0)
(3 2.23002e-16 0)
(3 8.52423e-16 0)
(3 7.7453e-16 0)
(3 6.18427e-16 0)
(3 4.10952e-17 0)
(3 1.65171e-16 0)
(3 7.47797e-16 0)
(3 -1.885e-16 0)
(3 -3.55672e-16 0)
(3 2.75935e-16 0)
(3 8.44804e-16 0)
(3 2.93729e-16 0)
(3 -2.12587e-16 0)
(3 -2.74655e-16 0)
(3 2.0068e-18 0)
(3 6.54e-16 0)
(3 1.36923e-16 0)
(3 -4.70708e-16 0)
(3 -2.43218e-16 0)
(3 2.9591e-16 0)
(3 6.49504e-16 0)
(3 1.44073e-15 0)
(3 1.44652e-15 0)
(3 8.83424e-16 0)
(3 7.90566e-16 0)
(3 8.0286e-16 0)
(3 1.03813e-15 0)
(3 4.05975e-16 0)
(3 3.29165e-16 0)
(3 1.00465e-15 0)
(3 1.14995e-15 0)
(3 -1.76016e-16 0)
(3 -4.11693e-16 0)
(3 -1.75779e-16 0)
(3 5.17844e-16 0)
(3 8.17336e-16 0)
(3 4.93096e-16 0)
(3 -2.33789e-16 0)
(3 -1.65984e-17 0)
(3 2.72179e-16 0)
(3 -2.23212e-16 0)
(3 -7.04967e-16 0)
(3 -5.17127e-16 0)
(3 1.26628e-16 0)
(3 9.75268e-16 0)
(3 1.25619e-15 0)
(3 1.23417e-15 0)
(3 6.05515e-16 0)
(3 2.7677e-16 0)
(3 4.42741e-16 0)
(3 8.90165e-16 0)
(3 7.78997e-16 0)
(3 8.63547e-16 0)
(3 6.04168e-16 0)
(3 -6.69315e-17 0)
(3 2.43059e-16 0)
(3 1.23498e-16 0)
(3 -9.34513e-17 0)
(3 -1.16362e-16 0)
(3 -2.30085e-16 0)
(3 1.63448e-16 0)
(3 -2.43383e-16 0)
(3 -6.06414e-16 0)
(3 -9.20459e-16 0)
(3 -1.0365e-15 0)
(3 -1.16821e-15 0)
(3 5.75753e-16 0)
(3 1.30012e-15 0)
(3 9.64848e-16 0)
(3 6.32357e-16 0)
(3 3.049e-16 0)
(3 3.10859e-16 0)
(3 3.48137e-16 0)
(3 1.20853e-16 0)
(3 -2.52371e-16 0)
(3 6.11663e-16 0)
(3 4.95735e-16 0)
(3 2.99363e-16 0)
(3 4.41839e-16 0)
(3 1.53296e-16 0)
(3 3.58574e-16 0)
(3 1.47103e-16 0)
(3 -2.24877e-16 0)
(3 -3.05161e-16 0)
(3 -2.16553e-16 0)
(3 -4.42123e-16 0)
(3 -1.08228e-15 0)
(3 -1.38634e-15 0)
(3 -1.27879e-15 0)
(3 -5.67141e-16 0)
(3 4.15453e-16 0)
(3 4.70331e-16 0)
(3 1.64124e-16 0)
(3 3.15566e-16 0)
(3 6.12643e-16 0)
(3 6.6494e-16 0)
(3 3.88066e-16 0)
(3 1.25806e-17 0)
(3 -6.08972e-16 0)
(3 -7.43044e-16 0)
(3 -7.01117e-16 0)
(3 -3.46198e-16 0)
(3 -8.17828e-17 0)
(3 1.45909e-16 0)
(3 2.02953e-16 0)
(3 1.13322e-16 0)
(3 -1.17776e-16 0)
(3 3.15708e-16 0)
(3 1.86397e-16 0)
(3 -5.99819e-16 0)
(3 -1.24419e-15 0)
(3 -1.79352e-15 0)
(3 -1.25525e-15 0)
(3 -7.4832e-16 0)
(3 -6.69471e-16 0)
(3 -9.12584e-16 0)
(3 -2.02312e-16 0)
(3 9.08735e-16 0)
(3 1.26214e-15 0)
(3 1.16739e-15 0)
(3 8.6635e-16 0)
(3 3.79486e-16 0)
(3 -8.12196e-16 0)
(3 -2.12506e-15 0)
(3 -2.00719e-15 0)
(3 -1.25962e-15 0)
(3 -1.02536e-15 0)
(3 -2.289e-17 0)
(3 6.3955e-17 0)
(3 -1.64434e-16 0)
(3 -4.06205e-16 0)
(3 -3.96277e-16 0)
(3 -2.56704e-16 0)
(3 -7.37083e-17 0)
(3 2.99313e-16 0)
(3 5.74938e-16 0)
(3 2.53622e-17 0)
(3 -8.79818e-16 0)
(3 -9.7877e-16 0)
(3 -4.37748e-16 0)
(3 1.24841e-16 0)
(3 1.61907e-16 0)
(3 7.8595e-16 0)
(3 1.33346e-15 0)
(3 1.18072e-15 0)
(3 3.39494e-16 0)
(3 -3.38458e-16 0)
(3 -8.87225e-16 0)
(3 -1.42968e-15 0)
(3 -9.73424e-16 0)
(3 -5.24682e-16 0)
(3 -6.82849e-17 0)
(3 -1.82823e-16 0)
(3 -1.60271e-16 0)
(3 9.71347e-17 0)
(3 2.84071e-16 0)
(3 2.63843e-16 0)
(3 7.35914e-16 0)
(3 8.74113e-16 0)
(3 7.33415e-16 0)
(3 1.48018e-16 0)
(3 -4.73729e-16 0)
(3 -8.10609e-16 0)
(3 -1.66769e-16 0)
(3 9.02462e-17 0)
(3 1.87604e-16 0)
(3 3.11024e-16 0)
(3 4.69249e-16 0)
(3 4.34412e-16 0)
(3 2.25434e-16 0)
(3 5.28515e-16 0)
(3 6.67227e-16 0)
(3 1.0562e-16 0)
(3 -5.99168e-16 0)
(3 -8.61766e-16 0)
(3 1.66302e-17 0)
(3 -7.07066e-17 0)
(3 2.05747e-16 0)
(3 5.42742e-16 0)
(3 8.39084e-16 0)
(3 7.07676e-16 0)
(3 5.04416e-16 0)
(3 3.30302e-17 0)
(3 -6.64171e-16 0)
(3 -5.34473e-16 0)
(3 -4.32078e-16 0)
(3 -2.36399e-16 0)
(3 -4.23095e-17 0)
(3 7.75976e-17 0)
(3 2.95064e-16 0)
(3 -1.2523e-17 0)
(3 4.99082e-17 0)
(3 1.59737e-16 0)
(3 3.69249e-16 0)
(3 6.04982e-16 0)
(3 4.71062e-16 0)
(3 2.55254e-16 0)
(3 -4.91523e-16 0)
(3 -7.74574e-16 0)
(1.58808 1.03773 0)
(2.3885 1.1246 0)
(1.31849 0.782072 0)
(0.416675 0.369536 0)
(0.278671 0.129334 0)
(0.213906 0.0420366 0)
(0.163868 0.046959 0)
(0.106577 0.051027 0)
(0.0490243 0.0413948 0)
(0.0142526 0.0195249 0)
(-0.00235463 0.00477433 0)
(-0.00173735 -0.00238886 0)
(1.70249 0.841054 0)
(2.42831 0.536342 0)
(1.82828 0.346917 0)
(0.972667 0.272273 0)
(0.716199 0.101361 0)
(0.506725 0.0557947 0)
(0.348209 0.0740348 0)
(0.234031 0.0845611 0)
(0.146793 0.0764106 0)
(0.0852162 0.0443725 0)
(0.0424471 0.0226542 0)
(0.0177079 0.00964215 0)
(1.61511 0.867226 0)
(2.16231 0.62497 0)
(2.077 0.545536 0)
(1.54686 0.654887 0)
(1.20624 0.541874 0)
(0.943621 0.432391 0)
(0.668919 0.364933 0)
(0.49029 0.283433 0)
(0.360025 0.223501 0)
(0.265851 0.145629 0)
(0.182859 0.0759065 0)
(0.100198 0.0865775 0)
(1.57982 0.81365 0)
(1.92625 0.681751 0)
(2.11836 0.543051 0)
(1.95461 0.618527 0)
(1.56365 0.679917 0)
(1.42292 0.596339 0)
(1.20619 0.470145 0)
(1.00281 0.345463 0)
(0.811741 0.271844 0)
(0.648248 0.200852 0)
(0.447188 0.189129 0)
(0.249764 0.370777 0)
(1.5597 0.806002 0)
(1.80756 0.719638 0)
(2.04824 0.584612 0)
(2.02882 0.58973 0)
(1.8608 0.675439 0)
(1.61496 0.718214 0)
(1.50072 0.680692 0)
(1.39046 0.608956 0)
(1.2233 0.546277 0)
(1.04473 0.467744 0)
(0.871757 0.437412 0)
(0.853711 0.602123 0)
(1.57686 0.790672 0)
(1.7654 0.738474 0)
(1.98015 0.632997 0)
(2.05897 0.580352 0)
(1.96434 0.619824 0)
(1.79293 0.719036 0)
(1.62355 0.724546 0)
(1.60835 0.693635 0)
(1.53676 0.651951 0)
(1.43121 0.603629 0)
(1.34459 0.533043 0)
(1.33733 0.501469 0)
(1.57391 0.827563 0)
(1.71569 0.784508 0)
(1.89628 0.70003 0)
(2.03143 0.617259 0)
(2.01304 0.622627 0)
(1.89299 0.679347 0)
(1.69774 0.741723 0)
(1.67819 0.73942 0)
(1.66318 0.721189 0)
(1.62626 0.704955 0)
(1.6084 0.664376 0)
(1.6088 0.620973 0)
(1.60011 0.828486 0)
(1.71431 0.788163 0)
(1.85209 0.732224 0)
(2.00689 0.640922 0)
(2.03961 0.611791 0)
(1.98312 0.640244 0)
(1.81074 0.718542 0)
(1.70598 0.746009 0)
(1.70336 0.743042 0)
(1.69472 0.739998 0)
(1.71036 0.721095 0)
(1.73518 0.691595 0)
(1.61729 0.869428 0)
(1.71293 0.827661 0)
(1.81235 0.781154 0)
(1.9572 0.697396 0)
(2.03585 0.643473 0)
(2.01302 0.649825 0)
(1.89912 0.700641 0)
(1.76465 0.758352 0)
(1.73092 0.756465 0)
(1.72481 0.752835 0)
(1.74124 0.741919 0)
(1.77244 0.724133 0)
(1.65591 0.893523 0)
(1.73434 0.855115 0)
(1.82565 0.799874 0)
(1.92198 0.748318 0)
(2.0423 0.662645 0)
(2.04928 0.646092 0)
(1.99824 0.672936 0)
(1.86826 0.740956 0)
(1.76515 0.76712 0)
(1.75204 0.765797 0)
(1.76037 0.755218 0)
(1.78442 0.741242 0)
(1.69313 0.92713 0)
(1.74609 0.898669 0)
(1.82974 0.850181 0)
(1.91022 0.798406 0)
(2.01763 0.727024 0)
(2.08163 0.667738 0)
(2.03745 0.684517 0)
(1.94822 0.727968 0)
(1.83124 0.784681 0)
(1.77875 0.779383 0)
(1.77854 0.770516 0)
(1.79199 0.759223 0)
(1.87991 0.926861 0)
(1.76093 0.925218 0)
(1.81939 0.895696 0)
(1.91235 0.835818 0)
(1.98863 0.784508 0)
(2.09654 0.704752 0)
(2.08381 0.690642 0)
(2.03451 0.708952 0)
(1.94242 0.766804 0)
(1.81996 0.792181 0)
(1.80947 0.787643 0)
(1.81427 0.772943 0)
(2.42864 0.654531 0)
(1.86928 0.930191 0)
(1.83969 0.928732 0)
(1.89396 0.889019 0)
(1.97943 0.823725 0)
(2.06983 0.764709 0)
(2.12633 0.706862 0)
(2.08597 0.718625 0)
(2.02045 0.747111 0)
(1.90637 0.805163 0)
(1.84766 0.806014 0)
(1.84111 0.795203 0)
(2.92149 0.166174 0)
(2.31873 0.720775 0)
(1.92079 0.926815 0)
(1.90596 0.926788 0)
(1.96674 0.877245 0)
(2.03829 0.82167 0)
(2.14444 0.737118 0)
(2.13198 0.729012 0)
(2.09342 0.741866 0)
(2.01919 0.788647 0)
(1.89926 0.823567 0)
(1.883 0.818845 0)
(2.99754 0.00999351 0)
(2.84592 0.25399 0)
(2.28046 0.756636 0)
(1.97442 0.924457 0)
(1.9663 0.923434 0)
(2.02661 0.870537 0)
(2.1031 0.810956 0)
(2.18022 0.7474 0)
(2.13516 0.74927 0)
(2.09445 0.76896 0)
(2.00866 0.822079 0)
(1.92234 0.838237 0)
(2.99996 0.000116041 0)
(2.99337 0.0193915 0)
(2.78632 0.317522 0)
(2.27621 0.772921 0)
(2.02572 0.918822 0)
(2.02133 0.916693 0)
(2.07646 0.867329 0)
(2.17373 0.796778 0)
(2.17708 0.765143 0)
(2.14647 0.769126 0)
(2.08501 0.795088 0)
(1.98979 0.847401 0)
(3 2.26362e-07 0)
(2.99988 0.000357807 0)
(2.98808 0.0285607 0)
(2.748 0.357691 0)
(2.29037 0.775422 0)
(2.07288 0.910387 0)
(2.07052 0.907254 0)
(2.12442 0.865042 0)
(2.21045 0.785108 0)
(2.19022 0.782016 0)
(2.15651 0.795093 0)
(2.09499 0.83634 0)
(3 1.47402e-10 0)
(3 9.30865e-07 0)
(2.99976 0.000694313 0)
(2.98291 0.0361927 0)
(2.73209 0.374726 0)
(2.31612 0.769148 0)
(2.11724 0.898761 0)
(2.118 0.895156 0)
(2.16367 0.858963 0)
(2.23052 0.795412 0)
(2.19569 0.798588 0)
(2.16108 0.816014 0)
(3 1.46479e-14 0)
(3 8.66625e-10 0)
(3 2.23625e-06 0)
(2.99963 0.00102006 0)
(2.9793 0.0409562 0)
(2.73586 0.371962 0)
(2.35073 0.754378 0)
(2.15876 0.885301 0)
(2.16113 0.882034 0)
(2.20122 0.852999 0)
(2.23248 0.808464 0)
(2.20153 0.817223 0)
(3 5.51488e-16 0)
(3 1.13249e-13 0)
(3 2.5484e-09 0)
(3 3.87069e-06 0)
(2.99954 0.00121939 0)
(2.97815 0.0420531 0)
(2.75493 0.353418 0)
(2.38975 0.730795 0)
(2.19812 0.871634 0)
(2.20004 0.870383 0)
(2.22985 0.8456 0)
(2.23147 0.826763 0)
(3 7.26773e-17 0)
(3 -1.7235e-15 0)
(3 4.12067e-13 0)
(3 5.05501e-09 0)
(3 5.02686e-06 0)
(2.9995 0.00127044 0)
(2.98026 0.0384796 0)
(2.77792 0.326055 0)
(2.4346 0.697852 0)
(2.23833 0.857529 0)
(2.23724 0.855729 0)
(2.24516 0.843783 0)
(3 -1.64467e-15 0)
(3 -2.24789e-15 0)
(3 -2.06852e-15 0)
(3 9.83831e-13 0)
(3 6.80796e-09 0)
(3 5.76319e-06 0)
(2.99959 0.00102979 0)
(2.98053 0.0369609 0)
(2.83903 0.263352 0)
(2.43896 0.699013 0)
(2.30034 0.811568 0)
(2.26609 0.845943 0)
(3 -1.84865e-15 0)
(3 -1.76635e-15 0)
(3 -1.87712e-15 0)
(3 -1.37297e-15 0)
(3 1.45187e-12 0)
(3 8.02756e-09 0)
(3 4.40392e-06 0)
(2.99959 0.000926574 0)
(2.98823 0.0269485 0)
(2.85263 0.228083 0)
(2.49674 0.649447 0)
(2.35164 0.773322 0)
(3 -1.4365e-16 0)
(3 -7.35782e-16 0)
(3 -8.53657e-16 0)
(3 -6.17001e-16 0)
(3 8.07558e-18 0)
(3 1.90538e-12 0)
(3 5.58622e-09 0)
(3 3.9545e-06 0)
(2.99976 0.000583712 0)
(2.9904 0.0202321 0)
(2.88076 0.184519 0)
(2.58082 0.558125 0)
(3 -6.19376e-16 0)
(3 -6.292e-16 0)
(3 -3.50767e-16 0)
(3 2.46503e-16 0)
(3 1.41481e-16 0)
(3 -1.04073e-15 0)
(3 1.26468e-12 0)
(3 4.84552e-09 0)
(3 2.2684e-06 0)
(2.99984 0.000365569 0)
(2.99291 0.0143676 0)
(2.91498 0.136038 0)
(3 -6.57394e-16 0)
(3 -1.87959e-16 0)
(3 3.65703e-16 0)
(3 7.51885e-16 0)
(3 7.29229e-16 0)
(3 2.05884e-16 0)
(3 -1.57238e-15 0)
(3 1.2739e-12 0)
(3 1.948e-09 0)
(3 1.5607e-06 0)
(2.9999 0.000203319 0)
(2.99618 0.00828244 0)
(3 1.19507e-15 0)
(3 3.97831e-16 0)
(3 5.94375e-16 0)
(3 5.34124e-16 0)
(3 1.16786e-15 0)
(3 1.41924e-15 0)
(3 -2.26696e-16 0)
(3 1.19432e-16 0)
(3 4.48432e-13 0)
(3 1.25397e-09 0)
(3 7.96663e-07 0)
(2.99996 9.25228e-05 0)
(3 1.27492e-15 0)
(3 1.09538e-15 0)
(3 3.29691e-18 0)
(3 -7.70271e-17 0)
(3 -1.04314e-16 0)
(3 -5.83956e-16 0)
(3 -5.30546e-16 0)
(3 -5.03064e-17 0)
(3 8.20222e-16 0)
(3 2.78679e-13 0)
(3 5.41426e-10 0)
(3 2.83532e-07 0)
(3 1.85011e-16 0)
(3 -7.2564e-17 0)
(3 -6.33706e-16 0)
(3 -8.44629e-16 0)
(3 -8.0592e-16 0)
(3 -1.1552e-15 0)
(3 -8.65524e-16 0)
(3 -1.76422e-16 0)
(3 -2.07879e-16 0)
(3 -2.60251e-16 0)
(3 7.68247e-14 0)
(3 1.98619e-10 0)
(3 -4.67067e-16 0)
(3 -8.68435e-16 0)
(3 -2.32257e-16 0)
(3 -3.62028e-16 0)
(3 -6.9132e-17 0)
(3 5.39799e-16 0)
(3 5.91423e-16 0)
(3 4.09829e-16 0)
(3 4.38944e-16 0)
(3 8.91435e-16 0)
(3 7.52352e-16 0)
(3 3.03885e-14 0)
(3 4.12581e-16 0)
(3 6.54302e-16 0)
(3 1.06598e-15 0)
(3 8.13354e-16 0)
(3 4.72782e-16 0)
(3 1.10654e-15 0)
(3 1.84373e-15 0)
(3 2.3975e-15 0)
(3 2.6287e-15 0)
(3 2.5694e-15 0)
(3 2.09097e-15 0)
(3 8.1917e-16 0)
(3 4.70347e-16 0)
(3 7.99415e-16 0)
(3 6.63297e-16 0)
(3 1.66784e-15 0)
(3 1.62145e-15 0)
(3 2.00239e-15 0)
(3 3.66074e-15 0)
(3 3.94498e-15 0)
(3 2.94645e-15 0)
(3 2.11026e-15 0)
(3 1.78579e-15 0)
(3 1.0357e-15 0)
(3 5.06103e-16 0)
(3 1.12523e-15 0)
(3 1.19581e-15 0)
(3 1.16949e-15 0)
(3 9.96698e-16 0)
(3 1.79585e-15 0)
(3 1.85912e-15 0)
(3 2.35675e-15 0)
(3 1.71181e-15 0)
(3 1.02459e-15 0)
(3 8.57627e-16 0)
(3 9.38472e-16 0)
(3 -1.91865e-16 0)
(3 5.96064e-16 0)
(3 8.92799e-16 0)
(3 4.16045e-17 0)
(3 -3.88521e-16 0)
(3 -5.1133e-16 0)
(3 -1.02366e-15 0)
(3 -1.00854e-15 0)
(3 -5.39223e-16 0)
(3 -1.98117e-16 0)
(3 -1.83514e-16 0)
(3 -3.78272e-16 0)
(3 -5.41683e-16 0)
(3 -2.0659e-16 0)
(3 -8.83328e-16 0)
(3 -2.15637e-15 0)
(3 -1.71802e-15 0)
(3 -1.35172e-15 0)
(3 -1.63735e-15 0)
(3 -1.66025e-15 0)
(3 -1.08667e-15 0)
(3 -1.01086e-15 0)
(3 -1.04593e-15 0)
(3 -8.55641e-16 0)
(3 -1.62284e-16 0)
(3 -4.78521e-17 0)
(3 -2.03751e-16 0)
(3 -9.1153e-16 0)
(3 -8.53725e-16 0)
(3 -7.21174e-16 0)
(3 -8.05604e-16 0)
(3 -7.5369e-16 0)
(3 -7.49624e-16 0)
(3 -5.19419e-16 0)
(3 -9.37216e-16 0)
(3 -9.26789e-16 0)
(1.61363 0.590953 0)
(2.0018 0.391603 0)
(2.05066 0.112335 0)
(2.09355 0.00428959 0)
(2.05904 -0.036036 0)
(2.00882 -0.0663378 0)
(2.01739 -0.0645311 0)
(2.06491 -0.0320973 0)
(2.093 0.00429287 0)
(2.10688 0.00920139 0)
(2.11794 0.00347346 0)
(2.129 -0.00341159 0)
(2.14255 -0.00313978 0)
(2.1475 0.00203577 0)
(2.14602 0.00269663 0)
(2.14761 0.00131662 0)
(2.15165 -0.000304426 0)
(2.16006 0.00036366 0)
(2.16915 0.00168989 0)
(2.17704 0.00121419 0)
(2.18503 -0.000771769 0)
(2.18959 -0.00242664 0)
(2.19491 -0.00349871 0)
(2.20073 -0.00341874 0)
(2.2047 -0.000964098 0)
(2.20823 0.00218662 0)
(2.211 0.00370145 0)
(2.21339 0.00383863 0)
(2.21989 0.00221635 0)
(2.22828 0.000211822 0)
(2.23434 -0.000771459 0)
(2.23914 -0.00144186 0)
(2.24328 -0.00178944 0)
(2.24726 -0.00185687 0)
(2.2498 -0.0010205 0)
(2.25165 0.00152268 0)
(2.25455 0.00376583 0)
(2.25756 0.00432763 0)
(2.26139 0.00391597 0)
(2.26983 0.00188813 0)
(2.27656 -0.00037633 0)
(2.28131 -0.00115158 0)
(2.28636 -0.00118081 0)
(2.29024 -0.000785613 0)
(2.29119 9.98263e-05 0)
(2.29098 0.00215616 0)
(2.29277 0.00453554 0)
(2.29632 0.00551819 0)
(2.3028 0.00436331 0)
(1.67059 0.0221887 0)
(0.83217 -0.000288787 0)
(0.785164 -0.0235424 0)
(0.839545 -0.0480712 0)
(0.909081 -0.0616471 0)
(0.977889 -0.0579384 0)
(1.04218 -0.0534586 0)
(1.09617 -0.0469002 0)
(1.13771 -0.0434335 0)
(1.17851 -0.0411153 0)
(1.22633 -0.0370752 0)
(1.28252 -0.0344615 0)
(1.33877 -0.0299977 0)
(1.38436 -0.0240847 0)
(1.41751 -0.0196356 0)
(1.44306 -0.0161833 0)
(1.4668 -0.0136738 0)
(1.494 -0.0133281 0)
(1.52829 -0.0140322 0)
(1.56692 -0.0138703 0)
(1.60451 -0.0142482 0)
(1.63837 -0.0163603 0)
(1.67018 -0.017393 0)
(1.70137 -0.0163379 0)
(1.72791 -0.0160451 0)
(1.75087 -0.014284 0)
(1.77081 -0.00864417 0)
(1.78701 -0.000575972 0)
(1.80242 0.00727658 0)
(1.82051 0.0108655 0)
(1.84048 0.011383 0)
(1.86739 0.0104225 0)
(1.90273 0.00696878 0)
(1.93412 -0.00332005 0)
(1.96962 -0.00780169 0)
(1.73016 0.300062 0)
(2.01216 0.0485539 0)
(2.12697 -0.188938 0)
(2.19635 -0.200016 0)
(2.19955 -0.145955 0)
(2.16275 -0.0936591 0)
(2.15605 -0.0686526 0)
(2.15848 -0.0108163 0)
(2.1555 0.0505466 0)
(2.15349 0.0554508 0)
(2.15332 0.046852 0)
(2.16361 0.0216088 0)
(2.17358 -0.00529764 0)
(2.1783 -0.0111025 0)
(2.18423 -0.0135855 0)
(2.1904 -0.0160167 0)
(2.19833 -0.0139701 0)
(2.2059 -0.00540774 0)
(2.21173 0.00398877 0)
(2.21569 0.0120055 0)
(2.21954 0.0129353 0)
(2.22153 0.00873936 0)
(2.22561 -0.000776795 0)
(2.2307 -0.00944775 0)
(2.23396 -0.0114473 0)
(2.23924 -0.00906365 0)
(2.24502 -0.00121313 0)
(2.24884 0.00708054 0)
(2.2517 0.0112913 0)
(2.2546 0.011024 0)
(2.25738 0.00764742 0)
(2.26129 0.0025577 0)
(2.2663 -0.00289617 0)
(2.26971 -0.00700143 0)