/*--------------------------------*- C++ -*----------------------------------*\
  =========                 |
  \\      /  F ield         | OpenFOAM: The Open Source CFD Toolbox
   \\    /   O peration     | Website:  https://openfoam.org
    \\  /    A nd           | Version:  7
     \\/     M anipulation  |
\*---------------------------------------------------------------------------*/
FoamFile
{
    version     2.0;
    format      ascii;
    class       volScalarField;
    location    "1.8";
    object      p;
}
// * * * * * * * * * * * * * * * * * * * * * * * * * * * * * * * * * * * * * //

dimensions      [1 -1 -2 0 0 0 0];

internalField   nonuniform List<scalar> 
4040
(
1
1
1
1
1
1
1
1
1
1
1
1
1
1
4.46854
10.4022
10.8041
10.9906
11.2097
11.4031
11.5843
11.7364
11.8594
11.9624
1
1
1
1
1
1
1
1
1
1
1
1
1
1
4.29863
10.284
10.7723
10.9592
11.1735
11.3584
11.5299
11.6687
11.7614
11.8311
1
1
1
1
1
1
1
1
1
1
1
1
1
1
3.9306
10.1105
10.719
10.8968
11.0982
11.2591
11.3963
11.5021
11.5803
11.6798
1
1
1
1
1
1
1
1
1
1
1
1
1
1
3.40025
9.80159
10.6359
10.8009
10.9967
11.1521
11.276
11.3846
11.4288
11.7196
1
1
1
1
1
1
1
1
1
1
1
1
1
1
2.77943
9.33576
10.5722
10.7126
10.8838
11.0118
11.0833
11.1142
10.8704
10.6345
1
1
1
1
1
1
1
1
1
1
1
1
1
1
2.07161
8.60406
10.4635
10.5752
10.7369
10.8498
10.8749
10.844
10.6047
10.4781
1
1
1
1
1
1
1
1
1
1
1
1
1
1
1.37455
7.68856
10.4279
10.454
10.5592
10.6233
10.6006
10.5368
10.3575
10.1637
1
1
1
1
1
1
1
1
1
1
1
1
1
1
1.02187
6.4246
10.0775
10.133
10.2415
10.3137
10.283
10.2127
10.0781
9.95349
1
1
1
1
1
1
1
1
1
1
1
1
1
1
1.00005
4.81136
9.65206
9.98979
10.0721
10.1102
10.0408
9.9408
9.78088
9.52189
1
1
1
1
1
1
1
1
1
1
1
1
1
1
1
3.14794
8.89937
9.79964
9.87839
9.90283
9.80908
9.65393
9.38993
8.92755
1
1
1
1
1
1
1
1
1
1
1
1
1
1
1
1.65875
7.86002
9.82295
9.73637
9.6607
9.53984
9.33414
9.00463
8.46085
1
1
1
1
1
1
1
1
1
1
1
1
1
1
1
1.04932
6.14169
9.33936
9.41547
9.37354
9.25556
9.02467
8.65475
8.11553
1
1
1
1
1
1
1
1
1
1
1
1
1
1
1
1.00008
3.69497
8.70037
9.31097
9.25255
9.08285
8.79884
8.38313
7.82801
1
1
1
1
1
1
1
1
1
1
1
1
1
1
1
0.999997
1.6096
7.73713
9.33715
9.09647
8.84993
8.5303
8.11454
7.55927
1
1
1
1
1
1
1
1
1
1
1
1
1
1
1
0.999999
1.03321
5.75146
8.91009
8.72465
8.54445
8.25324
7.87546
7.36061
1
1
1
1
1
1
1
1
1
1
1
1
1
1
1
1
0.999979
2.98085
8.18232
8.58666
8.41481
8.12855
7.74167
7.25377
1
1
1
1
1
1
1
1
1
1
1
1
1
1
1
1
0.999987
1.26375
6.4314
8.5275
8.2751
7.9851
7.6115
7.15737
1
1
1
1
1
1
1
1
1
1
1
1
1
1
1
1
0.999998
1.00547
3.65642
7.86132
8.10842
7.85312
7.51743
7.09243
1
1
1
1
1
1
1
1
1
1
1
1
1
1
1
1
1
0.999997
1.45251
6.37503
8.09969
7.78993
7.45677
7.04508
1
1
1
1
1
1
1
1
1
1
1
1
1
1
1
1
1
0.999999
1.01617
3.61413
7.49348
7.67899
7.35616
6.97814
1
1
1
1
1
1
1
1
1
1
1
1
1
1
1
1
1
1
1.00005
1.4456
5.86322
7.69141
7.31504
6.97039
1
1
1
1
1
1
1
1
1
1
1
1
1
1
1
1
1
1
1
1.01556
2.88062
6.8745
7.27539
6.94274
1
1
1
1
1
1
1
1
1
1
1
1
1
1
1
1
1
1
1
1.00008
1.24663
4.9186
7.29404
6.97165
1
1
1
1
1
1
1
1
1
1
1
1
1
1
1
1
1
1
1
1
1.00545
2.1116
6.08601
6.97521
1
1
1
1
1
1
1
1
1
1
1
1
1
1
1
1
1
1
1
1
1.00003
1.08849
3.51587
6.50808
1
1
1
1
1
1
1
1
1
1
1
1
1
1
1
1
1
1
1
1
1
1.00124
1.44025
4.74825
1
1
1
1
1
1
1
1
1
1
1
1
1
1
1
1
1
1
1
1
1
1
1.01668
2.11041
1
1
1
1
1
1
1
1
1
1
1
1
1
1
1
1
1
1
1
1
1
1
1.00014
1.09098
1
1
1
1
1
1
1
1
1
1
1
1
1
1
1
1
1
1
1
1
1
1
1
1.00148
1
1
1
1
1
1
1
1
1
1
1
1
1
1
1
1
1
1
1
1
1
1
1
1.00001
1
1
1
1
1
1
1
1
1
1
1
1
1
1
1
1
1
1
1
1
1
1
1
1
1
1
1
1
1
1
1
1
1
1
1
1
1
1
1
1
1
1
1
1
1
1
1
1
1
1
1
1
1
1
1
1
1
1
1
1
1
1
1
1
1
1
1
1
1
1
1
1
1
1
1
1
1
1
1
1
1
1
1
1
1
1
1
1
1
1
1
1
1
1
1
1
1
1
1
1
1
1
1
1
1
1
1
1
1
1
1
1
1
1
1
1
1
1
1
1
1
1
1
1
1
1
1
1
1
1
1
1
1
1
1
1
1
1
1
1
1
1
1
1
1
1
1
1
1
1
1
1
1
1
1
1
1
1
1
1
1
1
1
1
1
1
1
1
1
1
1
1
1
1
1
1
1
1
1
1
1
1
1
1
1
1
1
1
1
1
1
1
1
1
1
1
1
1
1
1
1
1
1
1
1
1
1
1
1
1
1
1
1
1
1
1
1
1
1
1
1
1
1
1
1
1
1
1
1
1
1
1
1
1
1
1
1
1
1
1
9.37351
9.93467
10.2676
10.6988
10.032
10.2319
9.90757
10.2824
8.82404
7.00089
8.0849
6.21102
7.58129
5.91684
7.18689
5.83823
6.93591
5.85717
6.78772
5.91883
6.70166
5.96802
6.66022
6.02632
6.6223
6.06617
6.6051
6.10503
6.59446
6.13334
6.57415
6.1542
6.59512
6.19886
6.59344
6.22105
6.63374
6.26938
6.60279
6.26996
6.63073
6.33693
6.59085
6.41988
5.48202
6.40278
2.95305
5.79639
1.27515
3.78962
1.00837
1.60022
1.00006
1.03135
1
1.00036
1
1
1
1
1
1
1
1
1
1
1
1
1
1
1
1
1.7914
0.560003
0.258336
0.272525
0.347474
0.396101
0.491637
0.655051
0.82392
0.914384
0.965841
1.03618
1.11455
1.16799
1.22787
1.27063
1.27031
1.26444
1.27051
1.26844
1.25696
1.26428
1.28334
1.29158
1.29019
1.28635
1.28315
1.27681
1.26762
1.26483
1.26566
1.26888
1.27697
1.28916
1.29408
1.28971
1.27946
1.26376
1.24565
1.23237
1.22601
1.22274
1.22363
1.24767
1.39605
1.89104
2.95774
4.19984
5.092
5.80004
5.91238
5.71604
5.48617
5.20236
5.04117
4.9204
4.81207
4.69449
4.56435
4.46717
4.39704
4.3458
4.30025
4.23116
4.15383
4.06147
3.9372
3.78933
3.65543
3.56061
3.50168
3.45917
3.42881
3.41875
3.40568
3.36331
3.30829
3.22666
3.09136
2.94582
2.85188
2.80144
2.76565
2.73743
2.72471
2.72117
2.70219
2.67131
2.63251
2.5589
2.44098
2.35458
2.3219
2.28293
2.90302
1.71365
1.04283
0.819172
0.754982
0.659925
0.644967
0.656639
0.65859
0.696064
0.7559
0.831898
0.922881
1.00666
1.0815
1.15207
1.18476
1.1988
1.21718
1.22989
1.23171
1.24363
1.26075
1.26891
1.27714
1.28399
1.28481
1.28405
1.27964
1.27622
1.27567
1.27564
1.27515
1.27759
1.276
1.27163
1.26728
1.26144
1.25344
1.24384
1.23167
1.22675
1.25191
1.43845
1.8995
2.44419
2.7969
3.22172
3.84039
4.35264
4.82863
5.08881
5.19372
5.15907
5.07118
4.97332
4.86302
4.73221
4.60531
4.48213
4.38166
4.30164
4.23033
4.16792
4.11499
4.04857
3.95895
3.85183
3.74034
3.62803
3.52577
3.4551
3.41183
3.37853
3.34739
3.31
3.26399
3.20161
3.11662
3.02197
2.91952
2.8288
2.77695
2.74414
2.71876
2.69607
2.67185
2.64478
2.60882
2.55706
2.48576
2.40207
2.34079
2.2864
3.71121
2.54772
1.85448
1.39172
1.13864
0.929388
0.790696
0.747275
0.681111
0.677776
0.731468
0.802412
0.854835
0.909905
0.965139
1.02962
1.09255
1.14154
1.18507
1.23193
1.24878
1.26091
1.28306
1.29707
1.30151
1.2974
1.29062
1.28217
1.27446
1.27093
1.26978
1.26963
1.27257
1.27458
1.27212
1.26821
1.26162
1.25342
1.24609
1.24288
1.25002
1.29861
1.52279
2.08381
2.59146
2.87367
2.80587
2.75336
2.83919
3.1663
3.78281
4.38222
4.8924
5.05784
5.10859
5.03688
4.90533
4.77447
4.64831
4.51094
4.38694
4.27635
4.17121
4.09594
4.03398
3.97561
3.92007
3.8615
3.80063
3.72589
3.62296
3.50458
3.40567
3.34145
3.29435
3.24344
3.18067
3.12667
3.09132
3.05216
3.00346
2.92813
2.83124
2.75941
2.71583
2.67907
2.64243
2.59992
2.55097
2.51118
2.48241
2.44883
2.40304
2.31181
4.31611
3.2339
2.46905
1.9759
1.607
1.34336
1.13866
1.03932
0.939397
0.840849
0.826884
0.809194
0.792145
0.806095
0.83405
0.882623
0.953122
1.02353
1.0759
1.13018
1.17172
1.20307
1.23536
1.27846
1.30398
1.30717
1.30577
1.299
1.28701
1.27615
1.26925
1.26451
1.26442
1.26324
1.26307
1.2614
1.25373
1.24471
1.24175
1.2539
1.3347
1.61558
2.19422
2.80169
2.88908
2.85465
2.78708
2.74186
2.75208
2.74459
2.86993
3.22246
3.85366
4.39947
4.68474
4.76315
4.74917
4.76669
4.71691
4.60981
4.48877
4.34666
4.19027
4.04468
3.95461
3.90605
3.87469
3.84698
3.80172
3.74674
3.67507
3.56914
3.43276
3.31797
3.24036
3.17723
3.1298
3.09887
3.0807
3.0561
3.018
2.97012
2.8904
2.77621
2.69689
2.65214
2.60785
2.55671
2.51708
2.49451
2.4746
2.4533
2.4282
2.34983
4.71694
3.79402
3.01571
2.4939
2.0868
1.72017
1.49358
1.33305
1.19656
1.0707
0.987174
0.915321
0.841096
0.808495
0.817241
0.825901
0.846789
0.891411
0.946223
1.00829
1.07288
1.1256
1.16069
1.20465
1.24174
1.25638
1.27221
1.29097
1.30153
1.30138
1.29824
1.29296
1.28349
1.27087
1.25987
1.24787
1.23284
1.23252
1.25055
1.37121
1.80438
2.37665
2.87209
2.94514
2.92889
2.89316
2.85518
2.81716
2.7646
2.72056
2.68335
2.66264
2.7705
3.10012
3.59355
4.09432
4.39863
4.55643
4.57947
4.59542
4.54283
4.42752
4.2582
4.04466
3.89487
3.83663
3.80738
3.80235
3.77465
3.73245
3.68444
3.61175
3.48162
3.31538
3.19545
3.13604
3.10129
3.07765
3.06886
3.06123
3.02882
2.98775
2.92724
2.8073
2.66604
2.59487
2.55706
2.52957
2.51046
2.49477
2.47762
2.45612
2.4326
2.35706
5.00667
4.20388
3.51192
2.93206
2.50251
2.13437
1.85073
1.64513
1.45798
1.31065
1.20981
1.1174
1.03209
0.955066
0.921443
0.882373
0.864026
0.866086
0.878834
0.893208
0.924935
0.980358
1.03502
1.08888
1.14664
1.19386
1.22313
1.2473
1.26812
1.27373
1.28354
1.28991
1.28845
1.28208
1.26753
1.25102
1.23889
1.25633
1.39816
1.92615
2.5448
2.92471
3.05047
3.00816
2.93976
2.87137
2.83249
2.79744
2.77066
2.72162
2.66458
2.62497
2.56763
2.51578
2.59452
2.90717
3.40681
3.87598
4.17893
4.40256
4.40423
4.37388
4.28474
4.13269
3.96044
3.8434
3.77877
3.73385
3.72575
3.69895
3.65181
3.59164
3.49696
3.35456
3.21746
3.14449
3.10383
3.07226
3.05997
3.0635
3.0312
2.98511
2.92681
2.83362
2.69368
2.57761
2.53009
2.50785
2.48957
2.47654
2.46769
2.45005
2.42994
2.35614
5.21618
4.48854
3.86945
3.34616
2.87816
2.48651
2.19136
1.94464
1.74627
1.56973
1.4338
1.30586
1.19458
1.11082
1.04535
0.982658
0.924167
0.894499
0.893746
0.888104
0.885605
0.895192
0.919429
0.94931
0.998234
1.06529
1.12605
1.1758
1.22083
1.24269
1.26156
1.26925
1.26994
1.26656
1.25628
1.25674
1.29431
1.50911
2.04467
2.73256
2.96206
3.05816
3.02883
2.96182
2.87785
2.80854
2.77234
2.74849
2.73344
2.71499
2.66899
2.61549
2.55912
2.50289
2.41239
2.37817
2.46877
2.7648
3.19918
3.6752
3.98138
4.16832
4.14874
4.09926
4.02297
3.90821
3.80035
3.73436
3.69051
3.64232
3.57992
3.52167
3.46151
3.37537
3.2621
3.17074
3.11433
3.07735
3.04459
3.00985
2.98119
2.94258
2.89648
2.83206
2.74342
2.63719
2.54561
2.49973
2.4781
2.46249
2.45236
2.43498
2.40199
2.31375
5.36335
4.71835
4.16545
3.66338
3.17798
2.81075
2.51126
2.23721
1.988
1.82063
1.66344
1.5186
1.38992
1.29303
1.21263
1.1319
1.05916
1.01582
0.988449
0.948285
0.91063
0.906824
0.897069
0.888791
0.894973
0.921861
0.97983
1.04955
1.12429
1.17606
1.21428
1.23256
1.24137
1.23398
1.23617
1.2929
1.66479
2.25622
2.84913
3.02269
3.04501
3.04665
3.01153
2.96464
2.89433
2.81399
2.74368
2.69847
2.67032
2.64116
2.61336
2.5736
2.5318
2.49064
2.42908
2.34159
2.28056
2.27732
2.35768
2.5908
2.9673
3.4068
3.72505
3.85929
3.90992
3.87081
3.80539
3.74165
3.67129
3.61339
3.5594
3.50147
3.43526
3.36404
3.27912
3.20412
3.13896
3.07339
3.01334
2.96964
2.93066
2.88697
2.84056
2.7993
2.75391
2.69819
2.62648
2.53682
2.46791
2.43643
2.41379
2.38349
2.34407
2.26919
5.47495
4.90197
4.39052
3.90952
3.45454
3.101
2.78809
2.48974
2.22918
2.05465
1.88177
1.72031
1.57028
1.4777
1.38581
1.29746
1.20346
1.14108
1.08377
1.02361
0.963066
0.933335
0.916323
0.894062
0.892101
0.899275
0.91238
0.940137
0.974806
1.02531
1.08158
1.13573
1.1906
1.20377
1.27377
1.70405
2.48915
2.93394
3.14079
3.09163
3.04137
3.00293
2.96234
2.94213
2.90566
2.82677
2.7322
2.65723
2.60762
2.57464
2.54229
2.51953
2.49604
2.46749
2.432
2.3679
2.26101
2.19906
2.17579
2.17124
2.22588
2.39728
2.74033
3.12125
3.48093
3.6119
3.67951
3.65097
3.59884
3.57307
3.55884
3.51136
3.4435
3.37471
3.29713
3.22392
3.15231
3.07971
3.00311
2.93519
2.88429
2.84143
2.80055
2.76292
2.73445
2.70838
2.66955
2.60269
2.50726
2.42298
2.36965
2.33095
2.29454
2.24272
5.56694
5.04879
4.58383
4.12527
3.69366
3.34485
3.0344
2.72766
2.46959
2.27125
2.08435
1.91239
1.76292
1.65263
1.54323
1.44481
1.35123
1.28521
1.21773
1.1489
1.07595
1.02975
0.998174
0.961082
0.927408
0.924466
0.923272
0.910528
0.906333
0.914873
0.93892
0.98728
1.06261
1.20525
1.67685
2.54573
2.96713
3.12927
3.12842
3.04947
2.97313
2.94187
2.92
2.92398
2.90469
2.83495
2.73003
2.62733
2.55814
2.51788
2.48994
2.47215
2.46776
2.44334
2.40777
2.36009
2.26852
2.16896
2.12272
2.09907
2.08317
2.07695
2.11834
2.25192
2.51487
2.83626
3.13844
3.32707
3.37668
3.42696
3.4188
3.41845
3.43201
3.39339
3.33254
3.26198
3.18021
3.08913
3.00088
2.90961
2.84438
2.80961
2.77544
2.74216
2.71089
2.68381
2.65782
2.61958
2.55042
2.44114
2.34857
2.29282
2.26384
2.23466
5.63904
5.16812
4.73544
4.29374
3.89538
3.56927
3.25309
2.92815
2.69055
2.48523
2.28836
2.08489
1.94029
1.82476
1.70236
1.59201
1.4912
1.41962
1.34032
1.26711
1.19699
1.14455
1.09427
1.04284
0.987223
0.963953
0.946625
0.923389
0.90629
0.907082
0.909846
0.925214
1.04284
1.5291
2.31918
2.8585
2.91882
2.97261
2.93468
2.85547
2.83331
2.843
2.88289
2.89515
2.87165
2.81422
2.72564
2.61874
2.52603
2.47301
2.44522
2.43222
2.43709
2.4113
2.36939
2.32594
2.2647
2.16968
2.0935
2.05687
2.03437
2.01806
2.00818
1.99914
2.00631
2.07643
2.22825
2.47505
2.74453
3.02835
3.13668
3.20653
3.26726
3.29707
3.30538
3.27889
3.21527
3.1238
3.01298
2.89197
2.82039
2.78876
2.7595
2.73291
2.70149
2.66224
2.62686
2.5957
2.54842
2.46594
2.36102
2.28369
2.26225
2.23339
5.7023
5.27243
4.8677
4.45358
4.08157
3.76215
3.44455
3.13154
2.89831
2.67816
2.46545
2.25403
2.12275
1.98808
1.8586
1.72149
1.63337
1.55641
1.47048
1.38461
1.30819
1.25997
1.20203
1.14631
1.09152
1.0565
1.02224
0.98765
0.946438
0.928723
0.94066
1.06379
1.54855
2.17563
2.61759
2.71094
2.69653
2.6644
2.61654
2.61808
2.65225
2.68931
2.7348
2.7748
2.77579
2.73659
2.68056
2.60481
2.516
2.4554
2.4266
2.40861
2.39072
2.35225
2.31079
2.27512
2.23644
2.18124
2.10687
2.04012
2.00538
1.98658
1.96401
1.94169
1.91755
1.89709
1.88031
1.90481
1.99033
2.17338
2.44559
2.71949
2.88836
3.01249
3.12699
3.15095
3.14648
3.11148
3.02942
2.91423
2.81847
2.76564
2.7433
2.72469
2.69651
2.66128
2.61374
2.55436
2.49555
2.441
2.38117
2.31643
2.2676
2.22615
5.7748
5.37504
4.99025
4.59785
4.24963
3.93699
3.61284
3.31408
3.08206
2.86138
2.6323
2.42745
2.28742
2.14254
2.00617
1.86386
1.7754
1.68441
1.59413
1.49899
1.42894
1.37435
1.31062
1.24553
1.18672
1.14584
1.10402
1.05417
1.01297
0.997697
1.1227
1.66703
2.28913
2.58818
2.64225
2.60799
2.54192
2.4701
2.40201
2.36688
2.37685
2.42635
2.47684
2.51628
2.52293
2.54432
2.55264
2.51025
2.47739
2.44836
2.4153
2.38848
2.34654
2.29901
2.25883
2.23164
2.20056
2.16166
2.1161
2.05551
1.99204
1.95135
1.92142
1.8991
1.87378
1.85299
1.82982
1.8058
1.77599
1.76191
1.80613
1.92948
2.15187
2.39639
2.63194
2.79664
2.93379
2.9614
2.94426
2.90667
2.83873
2.77931
2.74409
2.71388
2.68411
2.65185
2.60743
2.5398
2.46372
2.40661
2.36793
2.3344
2.29405
2.22591
5.83172
5.45609
5.08766
4.72215
4.39239
4.08195
3.7625
3.48513
3.25096
3.02459
2.78094
2.59801
2.45327
2.3033
2.1431
2.00157
1.91496
1.81345
1.71765
1.61187
1.54588
1.48344
1.41378
1.34973
1.29084
1.24401
1.18977
1.13395
1.13516
1.28745
1.89496
2.56312
2.73899
2.7155
2.66474
2.57271
2.49438
2.43463
2.39752
2.35342
2.28092
2.2403
2.22746
2.22693
2.22724
2.23812
2.28162
2.31372
2.34374
2.34511
2.32444
2.27433
2.23845
2.21702
2.20721
2.19417
2.1601
2.13378
2.10249
2.05679
1.99557
1.92843
1.88199
1.8556
1.83825
1.82674
1.80649
1.7826
1.74692
1.70096
1.64627
1.62471
1.64832
1.72392
1.87451
2.09112
2.34183
2.53809
2.67115
2.76088
2.76345
2.73772
2.68572
2.6633
2.65478
2.63334
2.59068
2.5426
2.4824
2.41694
2.36337
2.32724
2.29666
2.23109
5.90244
5.5413
5.17993
4.83798
4.52717
4.22055
3.90267
3.64265
3.41236
3.1851
2.9391
2.76494
2.60452
2.4488
2.27827
2.15302
2.05218
1.94048
1.82729
1.72139
1.66283
1.59153
1.52013
1.44432
1.38666
1.3322
1.27553
1.27189
1.46424
2.14526
2.88396
3.00576
2.93677
2.82105
2.71463
2.62045
2.55344
2.50193
2.45221
2.38066
2.2831
2.20401
2.16547
2.12129
2.08864
2.07402
2.07569
2.06797
2.0809
2.10415
2.09303
2.0866
2.08067
2.07042
2.06339
2.0682
2.09818
2.10015
2.08021
2.03984
1.97635
1.90722
1.85169
1.82598
1.81638
1.80447
1.78354
1.75933
1.72965
1.68444
1.61862
1.56422
1.54368
1.53609
1.5398
1.58111
1.67714
1.85257
2.06121
2.25986
2.41079
2.53953
2.56621
2.54796
2.53341
2.52578
2.53892
2.53331
2.50313
2.45358
2.39271
2.33321
2.28473
2.21709
5.93571
5.59756
5.25966
4.93699
4.63571
4.33748
4.04542
3.79297
3.56746
3.32758
3.08935
2.91889
2.75829
2.59301
2.41024
2.29624
2.18082
2.06534
1.93916
1.84139
1.77578
1.6948
1.61821
1.54462
1.47988
1.41325
1.44248
1.70931
2.46908
3.24425
3.34315
3.21818
3.04064
2.89957
2.79802
2.73318
2.66462
2.5944
2.52104
2.43888
2.3401
2.2348
2.15303
2.09484
2.0555
2.03162
2.00612
1.97757
1.95554
1.93033
1.89002
1.85886
1.84556
1.85681
1.87803
1.90113
1.93533
1.96833
1.96755
1.94682
1.92159
1.87967
1.83507
1.81752
1.79829
1.76888
1.74621
1.72714
1.70155
1.66475
1.61484
1.55134
1.50958
1.49121
1.47953
1.4726
1.47655
1.49167
1.5352
1.63119
1.7559
1.92102
2.08506
2.2412
2.31937
2.33656
2.38101
2.4147
2.42987
2.41956
2.39221
2.33846
2.27349
2.18997
6.01425
5.68843
5.36084
5.05366
4.76182
4.46772
4.18783
3.93943
3.7077
3.47261
3.25021
3.06668
2.89753
2.71389
2.54388
2.43005
2.31214
2.18915
2.04098
1.95762
1.88474
1.80033
1.71484
1.63354
1.56291
1.60639
2.01761
2.87141
3.64562
3.66572
3.47986
3.28652
3.1395
3.02506
2.93903
2.86208
2.78176
2.69858
2.61435
2.52656
2.43034
2.32088
2.21183
2.13122
2.07535
2.02733
1.98206
1.9403
1.90291
1.87021
1.84995
1.81657
1.75013
1.70502
1.69229
1.70439
1.72016
1.74334
1.76844
1.77662
1.78712
1.78959
1.76919
1.75071
1.75189
1.72813
1.68877
1.66369
1.64733
1.63235
1.60258
1.55893
1.50493
1.46898
1.4541
1.4399
1.42755
1.42032
1.41116
1.40045
1.3974
1.42053
1.4911
1.61477
1.78464
1.95689
2.07394
2.15502
2.22746
2.28362
2.29582
2.2784
2.23424
2.15847
6.0945
5.77
5.45342
5.15878
4.87012
4.57708
4.31331
4.07417
3.83401
3.59027
3.38533
3.20823
3.02757
2.83971
2.67236
2.55279
2.4295
2.30214
2.16593
2.08029
1.99207
1.89979
1.80688
1.72547
1.79628
2.34724
3.33296
3.99192
3.9989
3.83536
3.61977
3.43851
3.3203
3.20657
3.08654
2.97402
2.86966
2.77054
2.68069
2.60089
2.52357
2.43758
2.33401
2.21832
2.11761
2.04656
1.99116
1.94491
1.90084
1.85825
1.82083
1.78669
1.74602
1.69438
1.65537
1.61824
1.58472
1.56796
1.56545
1.57183
1.59812
1.61528
1.61584
1.62466
1.65498
1.65552
1.6217
1.59368
1.58417
1.57293
1.56195
1.54506
1.50565
1.46791
1.44075
1.41597
1.40178
1.39206
1.38092
1.3625
1.34288
1.31346
1.28482
1.28797
1.32731
1.41747
1.5359
1.67946
1.81401
1.92169
2.01334
2.11354
2.12799
2.09152
6.16034
5.83176
5.52888
5.24107
4.95644
4.67474
4.42718
4.19236
3.94719
3.69755
3.51642
3.33889
3.15596
2.95125
2.80249
2.68153
2.54858
2.4078
2.28359
2.19822
2.09269
2.00299
1.9116
2.01328
2.73048
3.7969
4.33421
4.32942
4.15216
3.94523
3.7813
3.62579
3.45847
3.30976
3.17919
3.06848
2.96471
2.86174
2.76297
2.67425
2.59585
2.51957
2.4341
2.33231
2.22072
2.11937
2.04083
1.9813
1.9312
1.88205
1.83163
1.78315
1.73759
1.69523
1.65424
1.60693
1.56234
1.53078
1.49517
1.47457
1.46847
1.46729
1.46451
1.45421
1.45951
1.47555
1.48606
1.4981
1.49665
1.4869
1.48401
1.47754
1.46418
1.43855
1.41024
1.39553
1.38082
1.37132
1.35795
1.33757
1.31996
1.29685
1.26173
1.22255
1.20805
1.21282
1.23147
1.26321
1.31872
1.41488
1.5247
1.66168
1.77594
1.88693
6.21156
5.92992
5.61
5.33001
5.05927
4.78965
4.53414
4.30153
4.06448
3.83097
3.64134
3.4598
3.27295
3.07602
2.93795
2.80429
2.66664
2.51074
2.40569
2.29801
2.19878
2.12847
2.32131
3.24036
4.39781
4.74174
4.66832
4.47186
4.25813
4.08242
3.92236
3.75748
3.57377
3.40702
3.27229
3.15913
3.05488
2.95432
2.85381
2.75157
2.65436
2.56801
2.4873
2.40358
2.3121
2.21704
2.12504
2.04235
1.97863
1.92932
1.87958
1.82274
1.76101
1.70327
1.65338
1.60734
1.56473
1.51941
1.47652
1.44976
1.43111
1.4124
1.39293
1.3645
1.33248
1.32372
1.325
1.33732
1.35406
1.37162
1.38365
1.37961
1.36658
1.35477
1.34684
1.33921
1.32409
1.30927
1.30525
1.3142
1.30759
1.28989
1.2588
1.21509
1.17408
1.15926
1.15447
1.15435
1.16042
1.16065
1.1772
1.22032
1.28638
1.45353
5.84364
6.00042
5.73722
5.42537
5.14932
4.89063
4.6485
4.42168
4.17525
3.94678
3.76383
3.585
3.39254
3.20248
3.06516
2.91973
2.77742
2.62938
2.50165
2.3924
2.36255
2.68426
3.83087
5.09441
5.20662
4.98152
4.71124
4.50891
4.35095
4.20683
4.05324
3.87682
3.69449
3.53131
3.39441
3.27191
3.15548
3.04367
2.93474
2.82447
2.71188
2.60541
2.51513
2.441
2.37271
2.29997
2.21831
2.12388
2.02447
1.95028
1.90449
1.86519
1.8205
1.76784
1.70565
1.64013
1.58236
1.53416
1.49457
1.45472
1.4157
1.38523
1.35977
1.33343
1.29991
1.26816
1.25358
1.24351
1.23759
1.2396
1.24891
1.25008
1.24386
1.23853
1.2325
1.23308
1.24234
1.24657
1.24431
1.24693
1.24867
1.24394
1.23775
1.21645
1.16826
1.13003
1.11789
1.11169
1.11136
1.11222
1.10412
1.09446
1.07918
1.10137
4.33876
5.8227
5.8416
5.55266
5.25304
5.00242
4.74989
4.51326
4.2922
4.07902
3.88556
3.6971
3.48323
3.3215
3.19222
3.04138
2.88784
2.72582
2.59897
2.61175
3.0999
4.53438
5.6953
5.74256
5.48224
5.14899
4.83292
4.63181
4.47965
4.32292
4.16124
3.99374
3.82652
3.66935
3.51952
3.37296
3.23097
3.10028
2.98664
2.88537
2.78592
2.68352
2.58245
2.4918
2.41476
2.34521
2.2726
2.18333
2.07983
1.98506
1.91753
1.87808
1.84638
1.80993
1.76187
1.69919
1.62125
1.5526
1.51107
1.47605
1.43756
1.3977
1.35974
1.32429
1.28615
1.25266
1.23067
1.20955
1.19264
1.18174
1.17682
1.16763
1.14849
1.12777
1.11789
1.11312
1.11916
1.13833
1.15746
1.16887
1.17637
1.18057
1.17919
1.16843
1.14566
1.11148
1.08989
1.08148
1.07388
1.0716
1.07074
1.06002
1.05022
1.02224
1.97983
4.69787
5.73975
5.668
5.37873
5.09958
4.855
4.6317
4.40728
4.18134
3.99061
3.81344
3.60741
3.44064
3.29007
3.14854
2.99723
2.82677
2.90221
3.71426
5.20877
6.31685
6.21418
5.87474
5.54492
5.26808
5.01437
4.804
4.61595
4.43566
4.2583
4.0844
3.9168
3.75693
3.6021
3.44982
3.30122
3.16263
3.03993
2.93356
2.83891
2.74913
2.65896
2.56705
2.47488
2.38551
2.29982
2.21401
2.13465
2.05706
1.96892
1.89422
1.85136
1.82285
1.79668
1.75415
1.68029
1.59198
1.53295
1.49899
1.46936
1.43391
1.38746
1.33554
1.29427
1.26224
1.22927
1.20009
1.17948
1.1649
1.15064
1.13332
1.10918
1.08207
1.05898
1.03565
1.02521
1.02576
1.03479
1.05012
1.07211
1.09182
1.09025
1.077
1.07285
1.0671
1.0539
1.04752
1.0435
1.04375
1.03672
1.02627
1.01717
0.995678
1.07765
2.36296
4.90374
5.6109
5.50787
5.24135
4.95796
4.72596
4.52123
4.30565
4.11288
3.9142
3.71522
3.55825
3.40037
3.2635
3.09461
3.26524
4.45167
6.16139
6.9121
6.86016
6.47883
6.02716
5.67247
5.37328
5.14607
4.94285
4.74634
4.54977
4.35342
4.165
3.98982
3.82478
3.66619
3.51511
3.3731
3.2409
3.11542
2.99453
2.88266
2.78594
2.70082
2.61638
2.52596
2.42972
2.33157
2.23952
2.16538
2.10283
2.03682
1.96653
1.89563
1.8295
1.78119
1.74789
1.7063
1.6456
1.5843
1.53332
1.49559
1.46412
1.42412
1.36362
1.29165
1.25097
1.23093
1.21122
1.19141
1.16962
1.14779
1.12601
1.09713
1.05847
1.02396
1.00575
0.987976
0.978693
0.974018
0.971186
0.975259
0.982267
0.980268
0.973285
0.968116
0.975561
0.981042
0.985543
0.994861
1.00227
1.00114
0.997897
0.990231
0.97115
1.00133
1.14816
2.70341
4.99595
5.47899
5.37061
5.09504
4.84216
4.62528
4.40608
4.22001
4.03061
3.855
3.65202
3.49964
3.39898
3.74499
5.32505
7.19512
7.42958
7.22458
6.86369
6.50695
6.15736
5.84039
5.54042
5.27635
5.0481
4.83716
4.63316
4.43488
4.24482
4.06374
3.89227
3.7316
3.58199
3.44382
3.31519
3.1892
3.06051
2.93188
2.81261
2.71152
2.62758
2.54961
2.46914
2.38271
2.28875
2.19243
2.11427
2.05861
2.00668
1.94613
1.87543
1.79919
1.73322
1.68289
1.64914
1.62124
1.58486
1.53365
1.48497
1.44621
1.40263
1.33595
1.26279
1.22986
1.21394
1.19699
1.17522
1.15443
1.13538
1.10733
1.06276
1.0127
0.977381
0.962119
0.953671
0.947695
0.942464
0.938011
0.933365
0.924236
0.902557
0.879352
0.877853
0.881228
0.885241
0.896197
0.920984
0.949081
0.952192
0.949078
0.940769
1.00001
1.00351
1.23497
2.98394
4.98985
5.36688
5.24279
4.9878
4.735
4.52547
4.32854
4.1474
3.9368
3.76126
3.71861
4.3868
6.32307
8.07292
8.36713
7.98872
7.42389
6.91587
6.56578
6.27672
5.98306
5.68837
5.41313
5.16204
4.93004
4.71185
4.50693
4.316
4.1364
3.96553
3.80446
3.65417
3.5117
3.37263
3.23638
3.10424
2.97813
2.86051
2.75107
2.65182
2.56539
2.49021
2.42019
2.345
2.26036
2.16944
2.08062
2.00563
1.94716
1.89291
1.81626
1.73638
1.70151
1.67641
1.64634
1.60925
1.56437
1.51802
1.46276
1.40264
1.35014
1.2943
1.25066
1.23321
1.2222
1.21214
1.19623
1.17069
1.13619
1.08824
1.02622
0.971684
0.948918
0.940106
0.932981
0.925156
0.917588
0.911596
0.903304
0.880737
0.836292
0.8202
0.817241
0.813679
0.815797
0.831922
0.859933
0.867651
0.874892
0.878951
1
1.00002
1.0072
1.32944
3.16474
4.94405
5.26941
5.145
4.88745
4.62758
4.44448
4.25025
4.01498
4.08183
5.14508
7.66457
8.85454
8.71682
8.4229
8.03052
7.56366
7.09375
6.71363
6.39581
6.09546
5.80607
5.52871
5.26562
5.01856
4.78842
4.57527
4.37757
4.19301
4.0201
3.85874
3.708
3.56326
3.41827
3.27207
3.13267
3.00795
2.8976
2.79611
2.69896
2.60288
2.50769
2.42109
2.352
2.29179
2.2202
2.13564
2.04831
1.96439
1.88954
1.82855
1.78282
1.73954
1.68467
1.64269
1.61819
1.59374
1.55674
1.50316
1.42526
1.35184
1.30744
1.27999
1.25961
1.24092
1.21732
1.18246
1.14614
1.11441
1.07899
1.0319
0.986108
0.960332
0.947445
0.937032
0.926935
0.916078
0.906048
0.895008
0.872207
0.829356
0.79726
0.791082
0.787705
0.785713
0.785295
0.78734
0.784928
0.783088
0.786857
1
1
1.00005
1.01234
1.41484
3.25404
4.92344
5.15239
5.03452
4.77902
4.54604
4.29772
4.41948
6.14181
8.74029
10.0722
9.88405
9.0991
8.43609
8.00223
7.63345
7.25192
6.88023
6.53217
6.20411
5.89391
5.60189
5.33084
5.08185
4.85317
4.64132
4.44217
4.25308
4.07351
3.90497
3.74749
3.59771
3.45143
3.30754
3.17183
3.04964
2.93847
2.83475
2.74014
2.64967
2.55585
2.45642
2.35643
2.27327
2.21435
2.15642
2.07845
1.99368
1.93617
1.88944
1.832
1.77126
1.7141
1.66924
1.62254
1.56781
1.51663
1.4751
1.42815
1.37995
1.35818
1.33288
1.29943
1.26699
1.23126
1.1895
1.15025
1.11993
1.09623
1.07368
1.03652
0.999936
0.978334
0.963421
0.950168
0.935856
0.921889
0.907649
0.885519
0.843301
0.794411
0.779192
0.774502
0.768766
0.760367
0.753545
0.746535
0.738554
0.730082
1
1
1
1.00011
1.01857
1.47128
3.35851
4.8306
5.03165
4.92313
4.61438
4.77149
7.07829
10.3176
10.5451
10.2827
9.91109
9.31819
8.64028
8.09827
7.7024
7.35066
7.00876
6.66997
6.33228
5.99936
5.67969
5.38536
5.12599
4.89872
4.69192
4.49598
4.30649
4.12345
3.94859
3.78217
3.62444
3.47701
3.33867
3.20786
3.08816
2.9771
2.86517
2.7578
2.66219
2.56915
2.47032
2.37121
2.28426
2.20982
2.14491
2.08802
2.03207
1.96194
1.8776
1.80089
1.74515
1.70967
1.67351
1.62666
1.57398
1.52007
1.47247
1.44106
1.41505
1.37037
1.31591
1.27288
1.23913
1.21391
1.19566
1.17884
1.15918
1.12857
1.07472
1.0149
0.980093
0.962553
0.948603
0.935242
0.920964
0.905229
0.888201
0.864317
0.823537
0.786215
0.773548
0.766549
0.758675
0.750148
0.741566
0.732208
0.721725
0.702921
1
1
1
1
1.00019
1.02405
1.52538
3.32245
4.81951
4.81166
5.14962
7.80789
11.5183
12.1378
11.4561
10.4852
9.88845
9.38143
8.81168
8.242
7.76943
7.39229
7.06122
6.73963
6.41166
6.07808
5.74766
5.43487
5.15574
4.91457
4.70227
4.50911
4.32843
4.15578
3.98805
3.82282
3.65948
3.50063
3.35187
3.21717
3.09766
2.99502
2.89651
2.78699
2.68152
2.57867
2.478
2.38681
2.30678
2.23379
2.16734
2.10472
2.03817
1.96198
1.88313
1.81705
1.7668
1.72137
1.6743
1.62608
1.57884
1.53571
1.49847
1.46261
1.41754
1.36425
1.31284
1.27428
1.24773
1.22747
1.20822
1.18833
1.16536
1.13076
1.07511
1.0141
0.981211
0.965191
0.951504
0.937936
0.924061
0.908646
0.890115
0.863608
0.822088
0.790026
0.777579
0.767596
0.757424
0.748063
0.73808
0.726817
0.71543
0.695393
1
1
1
1
1
1.00029
1.0275
1.55516
3.41347
4.25403
8.80983
12.5118
12.4693
11.9211
11.5657
10.6559
9.93701
9.39348
8.88312
8.36467
7.87557
7.45288
7.08814
6.75658
6.44055
6.12794
5.81132
5.4959
5.20167
4.94637
4.72857
4.536
4.35846
4.18976
4.02383
3.85578
3.68827
3.52885
3.38157
3.24539
3.11967
3.00407
2.91151
2.84104
2.7536
2.65643
2.56235
2.47411
2.39035
2.31072
2.2359
2.16451
2.0936
2.0223
1.95065
1.88005
1.81414
1.75738
1.71097
1.67116
1.63366
1.59566
1.55244
1.49979
1.4397
1.38458
1.34485
1.31647
1.29164
1.26737
1.24358
1.21955
1.19126
1.15177
1.09408
1.03611
1.00806
0.993267
0.979361
0.965069
0.950464
0.933778
0.912558
0.883803
0.847174
0.817346
0.798783
0.784381
0.77196
0.761034
0.7496
0.736019
0.722835
0.699803
1
1
1
1
1
1
1.00032
1.03595
1.62229
4.65194
15.22
16.8815
13.9743
12.3673
11.764
10.8153
10.0133
9.39311
8.88281
8.39765
7.9233
7.48375
7.09119
6.74061
6.42321
6.12628
5.83411
5.53626
5.23858
4.96136
4.7212
4.5156
4.33485
4.17205
4.0185
3.86261
3.69805
3.52777
3.36615
3.22815
3.11419
3.01322
2.91365
2.80233
2.6924
2.59234
2.50156
2.41631
2.33361
2.25287
2.17496
2.10108
2.03316
1.96856
1.90073
1.82865
1.75995
1.7046
1.6637
1.62927
1.59496
1.55646
1.50788
1.4468
1.38371
1.33836
1.30992
1.2857
1.26019
1.23429
1.21002
1.18701
1.15859
1.11387
1.04978
0.999831
0.978676
0.965768
0.953371
0.941208
0.928364
0.911968
0.888482
0.854486
0.817885
0.794342
0.77805
0.763834
0.750426
0.738119
0.726046
0.712535
0.700479
0.679025
)
;

boundaryField
{
    inlet
    {
        type            fixedValue;
        value           uniform 1;
    }
    outlet
    {
        type            zeroGradient;
    }
    bottom
    {
        type            zeroGradient;
    }
    top
    {
        type            zeroGradient;
    }
    obstacle
    {
        type            zeroGradient;
    }
    defaultFaces
    {
        type            empty;
    }
}


// ************************************************************************* //
