/*--------------------------------*- C++ -*----------------------------------*\
  =========                 |
  \\      /  F ield         | OpenFOAM: The Open Source CFD Toolbox
   \\    /   O peration     | Website:  https://openfoam.org
    \\  /    A nd           | Version:  7
     \\/     M anipulation  |
\*---------------------------------------------------------------------------*/
FoamFile
{
    version     2.0;
    format      ascii;
    class       volScalarField;
    location    "0.5";
    object      p;
}
// * * * * * * * * * * * * * * * * * * * * * * * * * * * * * * * * * * * * * //

dimensions      [1 -1 -2 0 0 0 0];

internalField   nonuniform List<scalar> 
264192
(
1
1
1
1
1
1
1
1
1
1
1
1
1
1
1
1
1
1
1
1
1
1
1
1
1
1
1
1
1
1
1
1
1
1
1
1
1
1
1
1
1
1
1
1
1
1
1
1
1
1
1
1
1
1
1
1
1
1
1
1
1
1
1
1
1
1
1
1
1
1
1
1
1
1
1
1
1
1
1
1
1
1
1
1
1
1
1
1
1
1
1
1
1
1
1
1
1
1
1
1
1
1
1
1
1
1
1
1
1
1
1
1
1
1
1
1
1
1
1
1
1
1
1
1
1
1
1
1
1
1
1
1
1
1
1
1
1
1
1
1
1
1
1
1
1
1
1
1
1
1
5.19112
10.5361
10.8538
10.8976
10.9848
11.0303
11.087
11.1498
11.224
11.2912
11.333
11.3509
11.3553
11.3576
11.3845
11.4407
11.5223
11.603
11.6627
11.7021
11.7319
11.7695
11.8211
11.8821
11.9365
11.9702
11.9742
11.9494
11.9167
11.8975
11.9096
11.9635
12.038
12.1102
12.1644
12.1992
12.223
12.2457
12.2617
12.2705
12.2708
12.2725
1
1
1
1
1
1
1
1
1
1
1
1
1
1
1
1
1
1
1
1
1
1
1
1
1
1
1
1
1
1
1
1
1
1
1
1
1
1
1
1
1
1
1
1
1
1
1
1
1
1
1
1
1
1
1
1
1
1
1
1
1
1
1
1
1
1
1
1
1
1
1
1
1
1
1
1
1
1
1
1
1
1
1
1
1
1
1
1
1
1
1
1
1
1
1
1
1
1
1
1
1
1
1
1
1
1
1
1
1
1
1
1
1
1
1
1
1
1
1
1
1
1
1
1
1
1
1
1
1
1
1
1
1
1
1
1
1
1
1
1
1
1
1
1
1
1
1
1
1
1
5.13801
10.5408
10.8458
10.8982
10.9789
11.0276
11.087
11.1506
11.2239
11.2903
11.3311
11.3486
11.3524
11.3557
11.383
11.4396
11.5204
11.6009
11.6606
11.7005
11.7313
11.7695
11.8209
11.8813
11.9344
11.9666
11.9698
11.9459
11.9153
11.8984
11.9115
11.9636
12.0347
12.1043
12.1584
12.1945
12.2179
12.2395
12.2559
12.2668
12.2701
12.2738
1
1
1
1
1
1
1
1
1
1
1
1
1
1
1
1
1
1
1
1
1
1
1
1
1
1
1
1
1
1
1
1
1
1
1
1
1
1
1
1
1
1
1
1
1
1
1
1
1
1
1
1
1
1
1
1
1
1
1
1
1
1
1
1
1
1
1
1
1
1
1
1
1
1
1
1
1
1
1
1
1
1
1
1
1
1
1
1
1
1
1
1
1
1
1
1
1
1
1
1
1
1
1
1
1
1
1
1
1
1
1
1
1
1
1
1
1
1
1
1
1
1
1
1
1
1
1
1
1
1
1
1
1
1
1
1
1
1
1
1
1
1
1
1
1
1
1
1
1
1
5.0311
10.546
10.8285
10.8886
10.9675
11.0216
11.0836
11.1476
11.2203
11.2873
11.3275
11.3441
11.3472
11.352
11.3797
11.4368
11.5168
11.5967
11.6561
11.6963
11.7286
11.7679
11.8201
11.8801
11.9317
11.9615
11.9628
11.9394
11.9114
11.8984
11.9138
11.9643
12.0321
12.0988
12.1521
12.1868
12.2065
12.2263
12.245
12.2607
12.269
12.2765
1
1
1
1
1
1
1
1
1
1
1
1
1
1
1
1
1
1
1
1
1
1
1
1
1
1
1
1
1
1
1
1
1
1
1
1
1
1
1
1
1
1
1
1
1
1
1
1
1
1
1
1
1
1
1
1
1
1
1
1
1
1
1
1
1
1
1
1
1
1
1
1
1
1
1
1
1
1
1
1
1
1
1
1
1
1
1
1
1
1
1
1
1
1
1
1
1
1
1
1
1
1
1
1
1
1
1
1
1
1
1
1
1
1
1
1
1
1
1
1
1
1
1
1
1
1
1
1
1
1
1
1
1
1
1
1
1
1
1
1
1
1
1
1
1
1
1
1
1
1
4.89624
10.5266
10.8102
10.8752
10.9549
11.0133
11.0775
11.142
11.2148
11.2831
11.3223
11.3371
11.3389
11.3454
11.3742
11.432
11.5112
11.5903
11.6491
11.6893
11.7229
11.7639
11.8174
11.8776
11.928
11.9555
11.9544
11.9308
11.905
11.8959
11.9142
11.9636
12.0284
12.0924
12.1443
12.1762
12.1914
12.2092
12.2302
12.2513
12.2654
12.277
1
1
1
1
1
1
1
1
1
1
1
1
1
1
1
1
1
1
1
1
1
1
1
1
1
1
1
1
1
1
1
1
1
1
1
1
1
1
1
1
1
1
1
1
1
1
1
1
1
1
1
1
1
1
1
1
1
1
1
1
1
1
1
1
1
1
1
1
1
1
1
1
1
1
1
1
1
1
1
1
1
1
1
1
1
1
1
1
1
1
1
1
1
1
1
1
1
1
1
1
1
1
1
1
1
1
1
1
1
1
1
1
1
1
1
1
1
1
1
1
1
1
1
1
1
1
1
1
1
1
1
1
1
1
1
1
1
1
1
1
1
1
1
1
1
1
1
1
1
1
4.72731
10.4933
10.7916
10.8575
10.9411
11.0045
11.0701
11.1357
11.2085
11.2771
11.3136
11.3263
11.327
11.3359
11.3663
11.4251
11.5038
11.5823
11.6403
11.6801
11.7142
11.7565
11.8114
11.8726
11.9227
11.949
11.9461
11.9217
11.8965
11.8895
11.911
11.9604
12.024
12.0864
12.1363
12.1641
12.1746
12.1899
12.2127
12.2385
12.2583
12.2736
1
1
1
1
1
1
1
1
1
1
1
1
1
1
1
1
1
1
1
1
1
1
1
1
1
1
1
1
1
1
1
1
1
1
1
1
1
1
1
1
1
1
1
1
1
1
1
1
1
1
1
1
1
1
1
1
1
1
1
1
1
1
1
1
1
1
1
1
1
1
1
1
1
1
1
1
1
1
1
1
1
1
1
1
1
1
1
1
1
1
1
1
1
1
1
1
1
1
1
1
1
1
1
1
1
1
1
1
1
1
1
1
1
1
1
1
1
1
1
1
1
1
1
1
1
1
1
1
1
1
1
1
1
1
1
1
1
1
1
1
1
1
1
1
1
1
1
1
1
1
4.52102
10.4461
10.7703
10.835
10.9258
10.9953
11.0606
11.127
11.1986
11.267
11.2996
11.3114
11.3134
11.3255
11.3579
11.4175
11.4956
11.5733
11.6304
11.6693
11.7031
11.7455
11.8012
11.8635
11.9147
11.9415
11.9384
11.9137
11.8878
11.8808
11.9033
11.9532
12.017
12.0789
12.1271
12.1511
12.1584
12.171
12.1941
12.2223
12.2459
12.2637
1
1
1
1
1
1
1
1
1
1
1
1
1
1
1
1
1
1
1
1
1
1
1
1
1
1
1
1
1
1
1
1
1
1
1
1
1
1
1
1
1
1
1
1
1
1
1
1
1
1
1
1
1
1
1
1
1
1
1
1
1
1
1
1
1
1
1
1
1
1
1
1
1
1
1
1
1
1
1
1
1
1
1
1
1
1
1
1
1
1
1
1
1
1
1
1
1
1
1
1
1
1
1
1
1
1
1
1
1
1
1
1
1
1
1
1
1
1
1
1
1
1
1
1
1
1
1
1
1
1
1
1
1
1
1
1
1
1
1
1
1
1
1
1
1
1
1
1
1
1
4.27795
10.3788
10.748
10.8103
10.9096
10.985
11.0494
11.1172
11.1866
11.2531
11.2819
11.2964
11.3015
11.3155
11.3485
11.4072
11.4844
11.5614
11.6184
11.6574
11.6911
11.7332
11.7883
11.8505
11.9027
11.9312
11.93
11.9065
11.8806
11.8723
11.8929
11.9418
12.0055
12.0675
12.1148
12.137
12.1432
12.1542
12.1757
12.2034
12.2277
12.2461
1
1
1
1
1
1
1
1
1
1
1
1
1
1
1
1
1
1
1
1
1
1
1
1
1
1
1
1
1
1
1
1
1
1
1
1
1
1
1
1
1
1
1
1
1
1
1
1
1
1
1
1
1
1
1
1
1
1
1
1
1
1
1
1
1
1
1
1
1
1
1
1
1
1
1
1
1
1
1
1
1
1
1
1
1
1
1
1
1
1
1
1
1
1
1
1
1
1
1
1
1
1
1
1
1
1
1
1
1
1
1
1
1
1
1
1
1
1
1
1
1
1
1
1
1
1
1
1
1
1
1
1
1
1
1
1
1
1
1
1
1
1
1
1
1
1
1
1
1
1
3.99929
10.2835
10.728
10.787
10.8947
10.9729
11.0376
11.1059
11.1723
11.2339
11.2615
11.2817
11.2908
11.3054
11.3371
11.3942
11.4703
11.5471
11.6049
11.645
11.6797
11.7214
11.7745
11.8342
11.8854
11.9153
11.9178
11.8983
11.8751
11.8662
11.8828
11.9279
11.9888
12.0501
12.0973
12.1206
12.1285
12.1397
12.1584
12.1827
12.204
12.2212
1
1
1
1
1
1
1
1
1
1
1
1
1
1
1
1
1
1
1
1
1
1
1
1
1
1
1
1
1
1
1
1
1
1
1
1
1
1
1
1
1
1
1
1
1
1
1
1
1
1
1
1
1
1
1
1
1
1
1
1
1
1
1
1
1
1
1
1
1
1
1
1
1
1
1
1
1
1
1
1
1
1
1
1
1
1
1
1
1
1
1
1
1
1
1
1
1
1
1
1
1
1
1
1
1
1
1
1
1
1
1
1
1
1
1
1
1
1
1
1
1
1
1
1
1
1
1
1
1
1
1
1
1
1
1
1
1
1
1
1
1
1
1
1
1
1
1
1
1
1
3.68583
10.1542
10.7152
10.7699
10.8825
10.9561
11.0212
11.0882
11.1566
11.2119
11.2415
11.2683
11.2801
11.2951
11.3239
11.3784
11.4526
11.5288
11.5879
11.6302
11.6674
11.7099
11.761
11.8168
11.8642
11.8932
11.8996
11.8868
11.8695
11.8621
11.8752
11.9135
11.9683
12.0261
12.0734
12.1004
12.113
12.1262
12.1425
12.1612
12.1763
12.1909
1
1
1
1
1
1
1
1
1
1
1
1
1
1
1
1
1
1
1
1
1
1
1
1
1
1
1
1
1
1
1
1
1
1
1
1
1
1
1
1
1
1
1
1
1
1
1
1
1
1
1
1
1
1
1
1
1
1
1
1
1
1
1
1
1
1
1
1
1
1
1
1
1
1
1
1
1
1
1
1
1
1
1
1
1
1
1
1
1
1
1
1
1
1
1
1
1
1
1
1
1
1
1
1
1
1
1
1
1
1
1
1
1
1
1
1
1
1
1
1
1
1
1
1
1
1
1
1
1
1
1
1
1
1
1
1
1
1
1
1
1
1
1
1
1
1
1
1
1
1
3.34909
9.99143
10.7055
10.7577
10.8683
10.9359
10.9993
11.0668
11.1379
11.1911
11.2278
11.2582
11.2671
11.2835
11.3082
11.3593
11.4309
11.5058
11.5663
11.6117
11.6527
11.6977
11.748
11.7997
11.8417
11.8667
11.8747
11.8695
11.8606
11.8573
11.869
11.8999
11.9459
11.9974
12.0437
12.0756
12.0944
12.1112
12.1261
12.1394
12.1468
12.158
1
1
1
1
1
1
1
1
1
1
1
1
1
1
1
1
1
1
1
1
1
1
1
1
1
1
1
1
1
1
1
1
1
1
1
1
1
1
1
1
1
1
1
1
1
1
1
1
1
1
1
1
1
1
1
1
1
1
1
1
1
1
1
1
1
1
1
1
1
1
1
1
1
1
1
1
1
1
1
1
1
1
1
1
1
1
1
1
1
1
1
1
1
1
1
1
1
1
1
1
1
1
1
1
1
1
1
1
1
1
1
1
1
1
1
1
1
1
1
1
1
1
1
1
1
1
1
1
1
1
1
1
1
1
1
1
1
1
1
1
1
1
1
1
1
1
1
1
1
1
2.98845
9.77263
10.6917
10.7492
10.846
10.9133
10.9799
11.0478
11.1181
11.1743
11.2184
11.2485
11.2549
11.2705
11.2899
11.3371
11.407
11.4799
11.5416
11.5895
11.6342
11.6824
11.7333
11.7822
11.8192
11.8397
11.8467
11.8466
11.8465
11.8493
11.8608
11.8859
11.9226
11.9668
12.0108
12.0463
12.0707
12.0923
12.1072
12.1165
12.1165
12.1241
1
1
1
1
1
1
1
1
1
1
1
1
1
1
1
1
1
1
1
1
1
1
1
1
1
1
1
1
1
1
1
1
1
1
1
1
1
1
1
1
1
1
1
1
1
1
1
1
1
1
1
1
1
1
1
1
1
1
1
1
1
1
1
1
1
1
1
1
1
1
1
1
1
1
1
1
1
1
1
1
1
1
1
1
1
1
1
1
1
1
1
1
1
1
1
1
1
1
1
1
1
1
1
1
1
1
1
1
1
1
1
1
1
1
1
1
1
1
1
1
1
1
1
1
1
1
1
1
1
1
1
1
1
1
1
1
1
1
1
1
1
1
1
1
1
1
1
1
1
1
2.61585
9.48799
10.6784
10.7415
10.8204
10.8926
10.9656
11.035
11.1003
11.1595
11.2105
11.2369
11.2433
11.2556
11.2695
11.3119
11.382
11.4536
11.5167
11.5661
11.6122
11.6622
11.714
11.762
11.7964
11.8145
11.8205
11.8221
11.8276
11.8352
11.8464
11.8681
11.8979
11.9355
11.9772
12.0142
12.0416
12.0673
12.0839
12.0911
12.0857
12.0902
1
1
1
1
1
1
1
1
1
1
1
1
1
1
1
1
1
1
1
1
1
1
1
1
1
1
1
1
1
1
1
1
1
1
1
1
1
1
1
1
1
1
1
1
1
1
1
1
1
1
1
1
1
1
1
1
1
1
1
1
1
1
1
1
1
1
1
1
1
1
1
1
1
1
1
1
1
1
1
1
1
1
1
1
1
1
1
1
1
1
1
1
1
1
1
1
1
1
1
1
1
1
1
1
1
1
1
1
1
1
1
1
1
1
1
1
1
1
1
1
1
1
1
1
1
1
1
1
1
1
1
1
1
1
1
1
1
1
1
1
1
1
1
1
1
1
1
1
1
1
2.25426
9.12205
10.6613
10.7235
10.8003
10.8763
10.95
11.0231
11.0883
11.1478
11.1995
11.2196
11.2293
11.2382
11.2475
11.2835
11.3555
11.4279
11.4935
11.5441
11.589
11.6373
11.6877
11.7352
11.7704
11.7902
11.7985
11.8018
11.8083
11.8151
11.8238
11.8432
11.8693
11.9031
11.9438
11.9804
12.0081
12.0358
12.0546
12.0621
12.0543
12.0564
1
1
1
1
1
1
1
1
1
1
1
1
1
1
1
1
1
1
1
1
1
1
1
1
1
1
1
1
1
1
1
1
1
1
1
1
1
1
1
1
1
1
1
1
1
1
1
1
1
1
1
1
1
1
1
1
1
1
1
1
1
1
1
1
1
1
1
1
1
1
1
1
1
1
1
1
1
1
1
1
1
1
1
1
1
1
1
1
1
1
1
1
1
1
1
1
1
1
1
1
1
1
1
1
1
1
1
1
1
1
1
1
1
1
1
1
1
1
1
1
1
1
1
1
1
1
1
1
1
1
1
1
1
1
1
1
1
1
1
1
1
1
1
1
1
1
1
1
1
1
1.90852
8.66787
10.6264
10.7022
10.7842
10.8597
10.932
11.0068
11.0743
11.1352
11.1849
11.2014
11.2116
11.2141
11.2213
11.2531
11.3237
11.4008
11.4706
11.524
11.5672
11.6102
11.6545
11.6994
11.7377
11.7644
11.7801
11.7883
11.7926
11.7917
11.7942
11.8094
11.8342
11.8683
11.9102
11.9457
11.9715
11.9987
12.0187
12.0278
12.0205
12.0211
1
1
1
1
1
1
1
1
1
1
1
1
1
1
1
1
1
1
1
1
1
1
1
1
1
1
1
1
1
1
1
1
1
1
1
1
1
1
1
1
1
1
1
1
1
1
1
1
1
1
1
1
1
1
1
1
1
1
1
1
1
1
1
1
1
1
1
1
1
1
1
1
1
1
1
1
1
1
1
1
1
1
1
1
1
1
1
1
1
1
1
1
1
1
1
1
1
1
1
1
1
1
1
1
1
1
1
1
1
1
1
1
1
1
1
1
1
1
1
1
1
1
1
1
1
1
1
1
1
1
1
1
1
1
1
1
1
1
1
1
1
1
1
1
1
1
1
1
1
1
1.58489
8.13342
10.5975
10.6799
10.769
10.8496
10.9214
10.9929
11.0586
11.1196
11.166
11.1814
11.1908
11.1865
11.1901
11.2199
11.2854
11.3691
11.4455
11.5046
11.5473
11.5827
11.6166
11.6551
11.696
11.7339
11.7622
11.7789
11.7807
11.7682
11.7602
11.7684
11.792
11.8292
11.8735
11.9089
11.9325
11.9575
11.9772
11.9878
11.9831
11.9835
1
1
1
1
1
1
1
1
1
1
1
1
1
1
1
1
1
1
1
1
1
1
1
1
1
1
1
1
1
1
1
1
1
1
1
1
1
1
1
1
1
1
1
1
1
1
1
1
1
1
1
1
1
1
1
1
1
1
1
1
1
1
1
1
1
1
1
1
1
1
1
1
1
1
1
1
1
1
1
1
1
1
1
1
1
1
1
1
1
1
1
1
1
1
1
1
1
1
1
1
1
1
1
1
1
1
1
1
1
1
1
1
1
1
1
1
1
1
1
1
1
1
1
1
1
1
1
1
1
1
1
1
1
1
1
1
1
1
1
1
1
1
1
1
1
1
1
1
1
1
1.25606
7.45566
10.5848
10.6725
10.7664
10.8472
10.9155
10.979
11.0363
11.0989
11.1407
11.161
11.168
11.1577
11.1557
11.1845
11.2439
11.3307
11.4154
11.4822
11.5261
11.5542
11.5763
11.6062
11.6477
11.6967
11.7405
11.7678
11.7685
11.7451
11.7246
11.7238
11.7451
11.7853
11.8324
11.8687
11.8908
11.9124
11.93
11.9416
11.941
11.9426
1
1
1
1
1
1
1
1
1
1
1
1
1
1
1
1
1
1
1
1
1
1
1
1
1
1
1
1
1
1
1
1
1
1
1
1
1
1
1
1
1
1
1
1
1
1
1
1
1
1
1
1
1
1
1
1
1
1
1
1
1
1
1
1
1
1
1
1
1
1
1
1
1
1
1
1
1
1
1
1
1
1
1
1
1
1
1
1
1
1
1
1
1
1
1
1
1
1
1
1
1
1
1
1
1
1
1
1
1
1
1
1
1
1
1
1
1
1
1
1
1
1
1
1
1
1
1
1
1
1
1
1
1
1
1
1
1
1
1
1
1
1
1
1
1
1
1
1
1
1
1.01373
6.62863
10.5962
10.6289
10.713
10.8122
10.8948
10.9628
11.0198
11.0795
11.1158
11.1401
11.1426
11.1334
11.128
11.1503
11.2034
11.2873
11.3795
11.4539
11.5002
11.5233
11.5365
11.5591
11.5993
11.6557
11.7117
11.7478
11.7496
11.7196
11.6879
11.6781
11.696
11.7365
11.7852
11.8231
11.8444
11.8624
11.8775
11.89
11.8947
11.8992
1
1
1
1
1
1
1
1
1
1
1
1
1
1
1
1
1
1
1
1
1
1
1
1
1
1
1
1
1
1
1
1
1
1
1
1
1
1
1
1
1
1
1
1
1
1
1
1
1
1
1
1
1
1
1
1
1
1
1
1
1
1
1
1
1
1
1
1
1
1
1
1
1
1
1
1
1
1
1
1
1
1
1
1
1
1
1
1
1
1
1
1
1
1
1
1
1
1
1
1
1
1
1
1
1
1
1
1
1
1
1
1
1
1
1
1
1
1
1
1
1
1
1
1
1
1
1
1
1
1
1
1
1
1
1
1
1
1
1
1
1
1
1
1
1
1
1
1
1
1
1.00011
5.62271
10.5175
10.6293
10.7084
10.8008
10.8755
10.9387
10.9957
11.0529
11.0904
11.1173
11.1228
11.114
11.1079
11.1217
11.1662
11.2453
11.3406
11.4184
11.4662
11.4877
11.4972
11.5165
11.5557
11.6151
11.6761
11.7158
11.7195
11.6875
11.6493
11.6331
11.647
11.6852
11.7334
11.7718
11.7923
11.8067
11.8191
11.8326
11.8428
11.8515
1
1
1
1
1
1
1
1
1
1
1
1
1
1
1
1
1
1
1
1
1
1
1
1
1
1
1
1
1
1
1
1
1
1
1
1
1
1
1
1
1
1
1
1
1
1
1
1
1
1
1
1
1
1
1
1
1
1
1
1
1
1
1
1
1
1
1
1
1
1
1
1
1
1
1
1
1
1
1
1
1
1
1
1
1
1
1
1
1
1
1
1
1
1
1
1
1
1
1
1
1
1
1
1
1
1
1
1
1
1
1
1
1
1
1
1
1
1
1
1
1
1
1
1
1
1
1
1
1
1
1
1
1
1
1
1
1
1
1
1
1
1
1
1
1
1
1
1
1
1
1
4.65372
10.3081
10.6295
10.6979
10.7819
10.8499
10.9073
10.9643
11.0212
11.0653
11.0939
11.1052
11.0975
11.0905
11.0987
11.1369
11.2081
11.3002
11.3742
11.4214
11.4451
11.4576
11.479
11.5194
11.5784
11.637
11.6743
11.6771
11.6452
11.6056
11.5861
11.5963
11.6306
11.6763
11.714
11.7334
11.7444
11.7551
11.7702
11.7858
11.7992
1
1
1
1
1
1
1
1
1
1
1
1
1
1
1
1
1
1
1
1
1
1
1
1
1
1
1
1
1
1
1
1
1
1
1
1
1
1
1
1
1
1
1
1
1
1
1
1
1
1
1
1
1
1
1
1
1
1
1
1
1
1
1
1
1
1
1
1
1
1
1
1
1
1
1
1
1
1
1
1
1
1
1
1
1
1
1
1
1
1
1
1
1
1
1
1
1
1
1
1
1
1
1
1
1
1
1
1
1
1
1
1
1
1
1
1
1
1
1
1
1
1
1
1
1
1
1
1
1
1
1
1
1
1
1
1
1
1
1
1
1
1
1
1
1
1
1
1
1
1
1
3.75557
9.9847
10.6254
10.6749
10.758
10.8213
10.876
10.931
10.9816
11.0288
11.0586
11.0764
11.0762
11.071
11.0784
11.1128
11.1757
11.2596
11.3241
11.3686
11.3953
11.4157
11.4444
11.4879
11.5439
11.5953
11.6257
11.6246
11.5939
11.5558
11.5352
11.5427
11.573
11.6151
11.6513
11.6687
11.6766
11.6859
11.7018
11.7207
11.7379
1
1
1
1
1
1
1
1
1
1
1
1
1
1
1
1
1
1
1
1
1
1
1
1
1
1
1
1
1
1
1
1
1
1
1
1
1
1
1
1
1
1
1
1
1
1
1
1
1
1
1
1
1
1
1
1
1
1
1
1
1
1
1
1
1
1
1
1
1
1
1
1
1
1
1
1
1
1
1
1
1
1
1
1
1
1
1
1
1
1
1
1
1
1
1
1
1
1
1
1
1
1
1
1
1
1
1
1
1
1
1
1
1
1
1
1
1
1
1
1
1
1
1
1
1
1
1
1
1
1
1
1
1
1
1
1
1
1
1
1
1
1
1
1
1
1
1
1
1
1
1
2.92966
9.51175
10.5888
10.6525
10.7337
10.7888
10.8409
10.8952
10.9449
10.9898
11.0112
11.0335
11.0467
11.0462
11.0585
11.0886
11.1422
11.2145
11.268
11.3107
11.3413
11.3711
11.4084
11.4546
11.5064
11.5494
11.5719
11.5668
11.5372
11.5003
11.4781
11.4827
11.5087
11.5464
11.5808
11.5968
11.6033
11.6122
11.6279
11.6474
11.6668
1
1
1
1
1
1
1
1
1
1
1
1
1
1
1
1
1
1
1
1
1
1
1
1
1
1
1
1
1
1
1
1
1
1
1
1
1
1
1
1
1
1
1
1
1
1
1
1
1
1
1
1
1
1
1
1
1
1
1
1
1
1
1
1
1
1
1
1
1
1
1
1
1
1
1
1
1
1
1
1
1
1
1
1
1
1
1
1
1
1
1
1
1
1
1
1
1
1
1
1
1
1
1
1
1
1
1
1
1
1
1
1
1
1
1
1
1
1
1
1
1
1
1
1
1
1
1
1
1
1
1
1
1
1
1
1
1
1
1
1
1
1
1
1
1
1
1
1
1
1
1
2.17622
8.89734
10.5924
10.6114
10.6913
10.7549
10.8166
10.8746
10.9268
10.9698
10.9816
10.9941
11.0038
11.0031
11.0242
11.0554
11.1042
11.169
11.2154
11.2568
11.2895
11.3256
11.3674
11.4131
11.4595
11.4958
11.5128
11.5063
11.4779
11.441
11.4156
11.4151
11.4358
11.4694
11.503
11.5194
11.5261
11.5342
11.5471
11.5631
11.5811
1
1
1
1
1
1
1
1
1
1
1
1
1
1
1
1
1
1
1
1
1
1
1
1
1
1
1
1
1
1
1
1
1
1
1
1
1
1
1
1
1
1
1
1
1
1
1
1
1
1
1
1
1
1
1
1
1
1
1
1
1
1
1
1
1
1
1
1
1
1
1
1
1
1
1
1
1
1
1
1
1
1
1
1
1
1
1
1
1
1
1
1
1
1
1
1
1
1
1
1
1
1
1
1
1
1
1
1
1
1
1
1
1
1
1
1
1
1
1
1
1
1
1
1
1
1
1
1
1
1
1
1
1
1
1
1
1
1
1
1
1
1
1
1
1
1
1
1
1
1
1
1.53539
8.12537
10.626
10.5903
10.6648
10.7226
10.7823
10.8425
10.9017
10.9455
10.9547
10.9537
10.9589
10.9589
10.9851
11.0168
11.0621
11.1235
11.17
11.2111
11.2452
11.2831
11.3228
11.3624
11.4012
11.4323
11.447
11.443
11.4173
11.3801
11.3492
11.3393
11.352
11.3803
11.4132
11.4324
11.4415
11.4497
11.4587
11.4685
11.4827
1
1
1
1
1
1
1
1
1
1
1
1
1
1
1
1
1
1
1
1
1
1
1
1
1
1
1
1
1
1
1
1
1
1
1
1
1
1
1
1
1
1
1
1
1
1
1
1
1
1
1
1
1
1
1
1
1
1
1
1
1
1
1
1
1
1
1
1
1
1
1
1
1
1
1
1
1
1
1
1
1
1
1
1
1
1
1
1
1
1
1
1
1
1
1
1
1
1
1
1
1
1
1
1
1
1
1
1
1
1
1
1
1
1
1
1
1
1
1
1
1
1
1
1
1
1
1
1
1
1
1
1
1
1
1
1
1
1
1
1
1
1
1
1
1
1
1
1
1
1
1
1.10534
7.2231
10.5513
10.5119
10.5872
10.6551
10.7244
10.7949
10.8697
10.923
10.9358
10.9245
10.9189
10.9146
10.9387
10.9691
11.0134
11.0765
11.1282
11.172
11.2087
11.2445
11.2764
11.3057
11.3334
11.3591
11.3735
11.3752
11.3547
11.3178
11.2801
11.2577
11.259
11.2803
11.3128
11.3364
11.3486
11.356
11.359
11.3599
11.3666
1
1
1
1
1
1
1
1
1
1
1
1
1
1
1
1
1
1
1
1
1
1
1
1
1
1
1
1
1
1
1
1
1
1
1
1
1
1
1
1
1
1
1
1
1
1
1
1
1
1
1
1
1
1
1
1
1
1
1
1
1
1
1
1
1
1
1
1
1
1
1
1
1
1
1
1
1
1
1
1
1
1
1
1
1
1
1
1
1
1
1
1
1
1
1
1
1
1
1
1
1
1
1
1
1
1
1
1
1
1
1
1
1
1
1
1
1
1
1
1
1
1
1
1
1
1
1
1
1
1
1
1
1
1
1
1
1
1
1
1
1
1
1
1
1
1
1
1
1
1
1
1.0021
6.0883
10.3552
10.4521
10.5374
10.6114
10.68
10.752
10.8302
10.8869
10.9109
10.899
10.8862
10.8753
10.8912
10.9134
10.9556
11.023
11.083
11.1319
11.172
11.2056
11.2272
11.2445
11.2597
11.2789
11.2938
11.3016
11.2878
11.2522
11.2081
11.1713
11.1575
11.1685
11.1976
11.2244
11.239
11.2458
11.2443
11.2381
11.2377
1
1
1
1
1
1
1
1
1
1
1
1
1
1
1
1
1
1
1
1
1
1
1
1
1
1
1
1
1
1
1
1
1
1
1
1
1
1
1
1
1
1
1
1
1
1
1
1
1
1
1
1
1
1
1
1
1
1
1
1
1
1
1
1
1
1
1
1
1
1
1
1
1
1
1
1
1
1
1
1
1
1
1
1
1
1
1
1
1
1
1
1
1
1
1
1
1
1
1
1
1
1
1
1
1
1
1
1
1
1
1
1
1
1
1
1
1
1
1
1
1
1
1
1
1
1
1
1
1
1
1
1
1
1
1
1
1
1
1
1
1
1
1
1
1
1
1
1
1
1
1
1
4.94754
10.0635
10.4166
10.4894
10.5617
10.625
10.6957
10.777
10.8421
10.8773
10.8771
10.8627
10.8465
10.8461
10.8549
10.8912
10.9603
11.0286
11.0844
11.1278
11.158
11.1719
11.1776
11.1826
11.1953
11.21
11.2216
11.2132
11.1798
11.1305
11.0798
11.0494
11.0481
11.0719
11.0997
11.1141
11.1174
11.109
11.0947
11.0853
1
1
1
1
1
1
1
1
1
1
1
1
1
1
1
1
1
1
1
1
1
1
1
1
1
1
1
1
1
1
1
1
1
1
1
1
1
1
1
1
1
1
1
1
1
1
1
1
1
1
1
1
1
1
1
1
1
1
1
1
1
1
1
1
1
1
1
1
1
1
1
1
1
1
1
1
1
1
1
1
1
1
1
1
1
1
1
1
1
1
1
1
1
1
1
1
1
1
1
1
1
1
1
1
1
1
1
1
1
1
1
1
1
1
1
1
1
1
1
1
1
1
1
1
1
1
1
1
1
1
1
1
1
1
1
1
1
1
1
1
1
1
1
1
1
1
1
1
1
1
1
1
3.81509
9.60782
10.3494
10.4335
10.5284
10.5907
10.6509
10.7209
10.7865
10.8307
10.8457
10.8359
10.8166
10.8044
10.8032
10.8327
10.8981
10.9697
11.0292
11.0722
11.0969
11.1053
11.1047
11.1046
11.1113
11.1235
11.1349
11.1287
11.0975
11.0442
10.9822
10.9361
10.9192
10.9325
10.9534
10.9614
10.9587
10.9461
10.9285
10.9153
1
1
1
1
1
1
1
1
1
1
1
1
1
1
1
1
1
1
1
1
1
1
1
1
1
1
1
1
1
1
1
1
1
1
1
1
1
1
1
1
1
1
1
1
1
1
1
1
1
1
1
1
1
1
1
1
1
1
1
1
1
1
1
1
1
1
1
1
1
1
1
1
1
1
1
1
1
1
1
1
1
1
1
1
1
1
1
1
1
1
1
1
1
1
1
1
1
1
1
1
1
1
1
1
1
1
1
1
1
1
1
1
1
1
1
1
1
1
1
1
1
1
1
1
1
1
1
1
1
1
1
1
1
1
1
1
1
1
1
1
1
1
1
1
1
1
1
1
1
1
1
1
2.64686
8.99292
10.4083
10.4067
10.484
10.5414
10.5974
10.6615
10.727
10.7794
10.8058
10.8086
10.7963
10.78
10.7713
10.79
10.8415
10.9058
10.9626
11.0033
11.0251
11.0305
11.0279
11.0258
11.0278
11.0349
11.042
11.0342
11.0032
10.9463
10.8755
10.8155
10.7829
10.7809
10.7914
10.7913
10.7782
10.7533
10.7231
10.6969
1
1
1
1
1
1
1
1
1
1
1
1
1
1
1
1
1
1
1
1
1
1
1
1
1
1
1
1
1
1
1
1
1
1
1
1
1
1
1
1
1
1
1
1
1
1
1
1
1
1
1
1
1
1
1
1
1
1
1
1
1
1
1
1
1
1
1
1
1
1
1
1
1
1
1
1
1
1
1
1
1
1
1
1
1
1
1
1
1
1
1
1
1
1
1
1
1
1
1
1
1
1
1
1
1
1
1
1
1
1
1
1
1
1
1
1
1
1
1
1
1
1
1
1
1
1
1
1
1
1
1
1
1
1
1
1
1
1
1
1
1
1
1
1
1
1
1
1
1
1
1
1
1.61204
8.23278
10.5616
10.4771
10.5136
10.5602
10.6054
10.653
10.7052
10.7555
10.7866
10.792
10.7728
10.7383
10.719
10.7308
10.7756
10.8391
10.896
10.9341
10.9516
10.9512
10.9471
10.9441
10.9428
10.9446
10.9438
10.9301
10.8956
10.8351
10.7576
10.6861
10.6372
10.6159
10.6071
10.5854
10.5471
10.5049
10.4633
10.4391
1
1
1
1
1
1
1
1
1
1
1
1
1
1
1
1
1
1
1
1
1
1
1
1
1
1
1
1
1
1
1
1
1
1
1
1
1
1
1
1
1
1
1
1
1
1
1
1
1
1
1
1
1
1
1
1
1
1
1
1
1
1
1
1
1
1
1
1
1
1
1
1
1
1
1
1
1
1
1
1
1
1
1
1
1
1
1
1
1
1
1
1
1
1
1
1
1
1
1
1
1
1
1
1
1
1
1
1
1
1
1
1
1
1
1
1
1
1
1
1
1
1
1
1
1
1
1
1
1
1
1
1
1
1
1
1
1
1
1
1
1
1
1
1
1
1
1
1
1
1
1
1
1.04637
7.16921
10.4257
10.3409
10.3888
10.4553
10.5163
10.5731
10.632
10.6901
10.733
10.7514
10.7379
10.6996
10.6736
10.679
10.7139
10.7705
10.8272
10.8642
10.8778
10.8713
10.866
10.8622
10.8568
10.8515
10.8409
10.8178
10.7762
10.7108
10.6269
10.5451
10.4784
10.435
10.4007
10.3558
10.2913
10.2198
10.1367
10.0527
1
1
1
1
1
1
1
1
1
1
1
1
1
1
1
1
1
1
1
1
1
1
1
1
1
1
1
1
1
1
1
1
1
1
1
1
1
1
1
1
1
1
1
1
1
1
1
1
1
1
1
1
1
1
1
1
1
1
1
1
1
1
1
1
1
1
1
1
1
1
1
1
1
1
1
1
1
1
1
1
1
1
1
1
1
1
1
1
1
1
1
1
1
1
1
1
1
1
1
1
1
1
1
1
1
1
1
1
1
1
1
1
1
1
1
1
1
1
1
1
1
1
1
1
1
1
1
1
1
1
1
1
1
1
1
1
1
1
1
1
1
1
1
1
1
1
1
1
1
1
1
1
1.00026
5.69059
10.0544
10.2569
10.3531
10.4401
10.4937
10.5404
10.5919
10.6457
10.6874
10.7069
10.696
10.6567
10.625
10.6244
10.6508
10.6969
10.7514
10.7893
10.8017
10.7936
10.7872
10.7797
10.7683
10.7541
10.7322
10.6976
10.6464
10.5747
10.484
10.3906
10.3053
10.2371
10.1712
10.0874
9.9605
9.80346
9.64357
9.51799
1
1
1
1
1
1
1
1
1
1
1
1
1
1
1
1
1
1
1
1
1
1
1
1
1
1
1
1
1
1
1
1
1
1
1
1
1
1
1
1
1
1
1
1
1
1
1
1
1
1
1
1
1
1
1
1
1
1
1
1
1
1
1
1
1
1
1
1
1
1
1
1
1
1
1
1
1
1
1
1
1
1
1
1
1
1
1
1
1
1
1
1
1
1
1
1
1
1
1
1
1
1
1
1
1
1
1
1
1
1
1
1
1
1
1
1
1
1
1
1
1
1
1
1
1
1
1
1
1
1
1
1
1
1
1
1
1
1
1
1
1
1
1
1
1
1
1
1
1
1
1
1
1
4.30764
9.70123
10.2411
10.3203
10.398
10.4593
10.5103
10.5558
10.6019
10.638
10.6549
10.6474
10.6082
10.5727
10.5655
10.5834
10.6181
10.6681
10.7088
10.7216
10.7161
10.7076
10.6934
10.6757
10.6527
10.6189
10.5714
10.5099
10.431
10.3328
10.2236
10.1172
10.0177
9.91239
9.7755
9.59097
9.34859
9.06996
8.90207
1
1
1
1
1
1
1
1
1
1
1
1
1
1
1
1
1
1
1
1
1
1
1
1
1
1
1
1
1
1
1
1
1
1
1
1
1
1
1
1
1
1
1
1
1
1
1
1
1
1
1
1
1
1
1
1
1
1
1
1
1
1
1
1
1
1
1
1
1
1
1
1
1
1
1
1
1
1
1
1
1
1
1
1
1
1
1
1
1
1
1
1
1
1
1
1
1
1
1
1
1
1
1
1
1
1
1
1
1
1
1
1
1
1
1
1
1
1
1
1
1
1
1
1
1
1
1
1
1
1
1
1
1
1
1
1
1
1
1
1
1
1
1
1
1
1
1
1
1
1
1
1
1
2.87765
9.05457
10.273
10.2831
10.3419
10.4138
10.4712
10.5153
10.5546
10.5853
10.5991
10.5954
10.5576
10.5186
10.5044
10.5141
10.5388
10.5801
10.6214
10.634
10.6308
10.6217
10.602
10.5776
10.5448
10.5
10.4412
10.3717
10.2855
10.1771
10.0484
9.91474
9.77952
9.62963
9.43619
9.15984
8.71917
7.83467
5.85983
1
1
1
1
1
1
1
1
1
1
1
1
1
1
1
1
1
1
1
1
1
1
1
1
1
1
1
1
1
1
1
1
1
1
1
1
1
1
1
1
1
1
1
1
1
1
1
1
1
1
1
1
1
1
1
1
1
1
1
1
1
1
1
1
1
1
1
1
1
1
1
1
1
1
1
1
1
1
1
1
1
1
1
1
1
1
1
1
1
1
1
1
1
1
1
1
1
1
1
1
1
1
1
1
1
1
1
1
1
1
1
1
1
1
1
1
1
1
1
1
1
1
1
1
1
1
1
1
1
1
1
1
1
1
1
1
1
1
1
1
1
1
1
1
1
1
1
1
1
1
1
1
1
1.62838
8.20877
10.4039
10.2864
10.3066
10.3663
10.4184
10.4618
10.4996
10.5301
10.544
10.5448
10.5092
10.4667
10.4438
10.4422
10.4572
10.4856
10.526
10.5424
10.545
10.5338
10.5038
10.4679
10.4249
10.3726
10.3072
10.2326
10.1404
10.0207
9.87165
9.70438
9.5287
9.32753
9.06654
8.66299
8.04343
6.94768
4.80279
1
1
1
1
1
1
1
1
1
1
1
1
1
1
1
1
1
1
1
1
1
1
1
1
1
1
1
1
1
1
1
1
1
1
1
1
1
1
1
1
1
1
1
1
1
1
1
1
1
1
1
1
1
1
1
1
1
1
1
1
1
1
1
1
1
1
1
1
1
1
1
1
1
1
1
1
1
1
1
1
1
1
1
1
1
1
1
1
1
1
1
1
1
1
1
1
1
1
1
1
1
1
1
1
1
1
1
1
1
1
1
1
1
1
1
1
1
1
1
1
1
1
1
1
1
1
1
1
1
1
1
1
1
1
1
1
1
1
1
1
1
1
1
1
1
1
1
1
1
1
1
1
1
1.0412
6.9132
10.1912
10.1537
10.2022
10.2774
10.3405
10.3913
10.4336
10.4692
10.488
10.4946
10.4635
10.4187
10.3858
10.372
10.3794
10.3988
10.4361
10.4553
10.4592
10.4411
10.4003
10.3516
10.2981
10.2387
10.1694
10.0913
9.99472
9.86506
9.69802
9.49563
9.27558
9.02026
8.7026
8.21093
7.53535
6.24321
4.44306
1
1
1
1
1
1
1
1
1
1
1
1
1
1
1
1
1
1
1
1
1
1
1
1
1
1
1
1
1
1
1
1
1
1
1
1
1
1
1
1
1
1
1
1
1
1
1
1
1
1
1
1
1
1
1
1
1
1
1
1
1
1
1
1
1
1
1
1
1
1
1
1
1
1
1
1
1
1
1
1
1
1
1
1
1
1
1
1
1
1
1
1
1
1
1
1
1
1
1
1
1
1
1
1
1
1
1
1
1
1
1
1
1
1
1
1
1
1
1
1
1
1
1
1
1
1
1
1
1
1
1
1
1
1
1
1
1
1
1
1
1
1
1
1
1
1
1
1
1
1
1
1
1
1.00018
5.19864
9.80532
10.1028
10.1733
10.2463
10.2999
10.347
10.3876
10.4224
10.4431
10.4512
10.4218
10.374
10.3318
10.3068
10.307
10.3207
10.3519
10.3742
10.3782
10.3506
10.2962
10.2328
10.1669
10.0996
10.0271
9.94514
9.84506
9.70886
9.52862
9.29681
9.03336
8.72709
8.35593
7.82887
7.08191
5.85171
4.36479
1
1
1
1
1
1
1
1
1
1
1
1
1
1
1
1
1
1
1
1
1
1
1
1
1
1
1
1
1
1
1
1
1
1
1
1
1
1
1
1
1
1
1
1
1
1
1
1
1
1
1
1
1
1
1
1
1
1
1
1
1
1
1
1
1
1
1
1
1
1
1
1
1
1
1
1
1
1
1
1
1
1
1
1
1
1
1
1
1
1
1
1
1
1
1
1
1
1
1
1
1
1
1
1
1
1
1
1
1
1
1
1
1
1
1
1
1
1
1
1
1
1
1
1
1
1
1
1
1
1
1
1
1
1
1
1
1
1
1
1
1
1
1
1
1
1
1
1
1
1
1
1
1
1
3.49823
9.27225
10.0861
10.1353
10.1915
10.2471
10.2941
10.334
10.3694
10.3944
10.405
10.3807
10.3326
10.2829
10.2476
10.2376
10.2458
10.2688
10.291
10.2934
10.2604
10.1949
10.1183
10.039
9.96173
9.88324
9.7946
9.68951
9.54902
9.36079
9.11062
8.81038
8.46256
8.04047
7.503
6.7284
5.67437
4.49787
1
1
1
1
1
1
1
1
1
1
1
1
1
1
1
1
1
1
1
1
1
1
1
1
1
1
1
1
1
1
1
1
1
1
1
1
1
1
1
1
1
1
1
1
1
1
1
1
1
1
1
1
1
1
1
1
1
1
1
1
1
1
1
1
1
1
1
1
1
1
1
1
1
1
1
1
1
1
1
1
1
1
1
1
1
1
1
1
1
1
1
1
1
1
1
1
1
1
1
1
1
1
1
1
1
1
1
1
1
1
1
1
1
1
1
1
1
1
1
1
1
1
1
1
1
1
1
1
1
1
1
1
1
1
1
1
1
1
1
1
1
1
1
1
1
1
1
1
1
1
1
1
1
1
1.95993
8.52096
10.2013
10.1162
10.1362
10.1899
10.2346
10.2717
10.3055
10.3333
10.3469
10.33
10.2843
10.2305
10.1857
10.1643
10.1672
10.1836
10.2035
10.2044
10.1698
10.0983
10.0115
9.91988
9.8311
9.74289
9.6438
9.52992
9.38428
9.19156
8.93445
8.61197
8.23342
7.7789
7.23217
6.49411
5.61082
4.60768
1
1
1
1
1
1
1
1
1
1
1
1
1
1
1
1
1
1
1
1
1
1
1
1
1
1
1
1
1
1
1
1
1
1
1
1
1
1
1
1
1
1
1
1
1
1
1
1
1
1
1
1
1
1
1
1
1
1
1
1
1
1
1
1
1
1
1
1
1
1
1
1
1
1
1
1
1
1
1
1
1
1
1
1
1
1
1
1
1
1
1
1
1
1
1
1
1
1
1
1
1
1
1
1
1
1
1
1
1
1
1
1
1
1
1
1
1
1
1
1
1
1
1
1
1
1
1
1
1
1
1
1
1
1
1
1
1
1
1
1
1
1
1
1
1
1
1
1
1
1
1
1
1
1
1.0873
7.16061
10.156
10.0681
10.0683
10.1267
10.1726
10.2084
10.2371
10.2617
10.2751
10.2675
10.2314
10.1805
10.1279
10.0929
10.0831
10.0903
10.1046
10.1048
10.0732
10.0041
9.91303
9.81245
9.71109
9.60965
9.49706
9.3702
9.21627
9.02009
8.76374
8.43564
8.04169
7.5718
7.02388
6.33875
5.58774
4.72715
1
1
1
1
1
1
1
1
1
1
1
1
1
1
1
1
1
1
1
1
1
1
1
1
1
1
1
1
1
1
1
1
1
1
1
1
1
1
1
1
1
1
1
1
1
1
1
1
1
1
1
1
1
1
1
1
1
1
1
1
1
1
1
1
1
1
1
1
1
1
1
1
1
1
1
1
1
1
1
1
1
1
1
1
1
1
1
1
1
1
1
1
1
1
1
1
1
1
1
1
1
1
1
1
1
1
1
1
1
1
1
1
1
1
1
1
1
1
1
1
1
1
1
1
1
1
1
1
1
1
1
1
1
1
1
1
1
1
1
1
1
1
1
1
1
1
1
1
1
1
1
1
1
1
1.00074
5.25551
9.68155
9.97168
10.0343
10.094
10.1352
10.1658
10.1896
10.2063
10.213
10.2054
10.1756
10.1268
10.0696
10.0216
9.99775
9.99134
9.99544
9.99406
9.96874
9.90773
9.81905
9.71418
9.60128
9.48482
9.35729
9.21486
9.04945
8.84843
8.59609
8.2742
7.88388
7.41672
6.8727
6.2504
5.5887
4.84112
1
1
1
1
1
1
1
1
1
1
1
1
1
1
1
1
1
1
1
1
1
1
1
1
1
1
1
1
1
1
1
1
1
1
1
1
1
1
1
1
1
1
1
1
1
1
1
1
1
1
1
1
1
1
1
1
1
1
1
1
1
1
1
1
1
1
1
1
1
1
1
1
1
1
1
1
1
1
1
1
1
1
1
1
1
1
1
1
1
1
1
1
1
1
1
1
1
1
1
1
1
1
1
1
1
1
1
1
1
1
1
1
1
1
1
1
1
1
1
1
1
1
1
1
1
1
1
1
1
1
1
1
1
1
1
1
1
1
1
1
1
1
1
1
1
1
1
1
1
1
1
1
1
1
0.999998
3.29941
9.13442
9.97754
9.99164
10.0354
10.0816
10.1164
10.1411
10.1523
10.154
10.145
10.1189
10.0723
10.0152
9.95638
9.91638
9.89222
9.88236
9.8766
9.85626
9.80579
9.72474
9.62007
9.49867
9.36759
9.22516
9.06678
8.88819
8.67987
8.43142
8.12164
7.74992
7.29667
6.77292
6.21303
5.60812
4.94635
1
1
1
1
1
1
1
1
1
1
1
1
1
1
1
1
1
1
1
1
1
1
1
1
1
1
1
1
1
1
1
1
1
1
1
1
1
1
1
1
1
1
1
1
1
1
1
1
1
1
1
1
1
1
1
1
1
1
1
1
1
1
1
1
1
1
1
1
1
1
1
1
1
1
1
1
1
1
1
1
1
1
1
1
1
1
1
1
1
1
1
1
1
1
1
1
1
1
1
1
1
1
1
1
1
1
1
1
1
1
1
1
1
1
1
1
1
1
1
1
1
1
1
1
1
1
1
1
1
1
1
1
1
1
1
1
1
1
1
1
1
1
1
1
1
1
1
1
1
1
1
1
1
1
1
1.66493
8.18081
10.0814
9.97548
9.96708
10.0112
10.054
10.0863
10.1015
10.1024
10.0926
10.0648
10.0176
9.95997
9.89354
9.83981
9.80034
9.7759
9.76042
9.73964
9.69835
9.6268
9.52605
9.40057
9.25717
9.10057
8.92781
8.73692
8.5208
8.27408
7.97775
7.63175
7.19964
6.71424
6.20563
5.64204
5.05678
1
1
1
1
1
1
1
1
1
1
1
1
1
1
1
1
1
1
1
1
1
1
1
1
1
1
1
1
1
1
1
1
1
1
1
1
1
1
1
1
1
1
1
1
1
1
1
1
1
1
1
1
1
1
1
1
1
1
1
1
1
1
1
1
1
1
1
1
1
1
1
1
1
1
1
1
1
1
1
1
1
1
1
1
1
1
1
1
1
1
1
1
1
1
1
1
1
1
1
1
1
1
1
1
1
1
1
1
1
1
1
1
1
1
1
1
1
1
1
1
1
1
1
1
1
1
1
1
1
1
1
1
1
1
1
1
1
1
1
1
1
1
1
1
1
1
1
1
1
1
1
1
1
1
1
1.04105
6.53768
9.77176
9.8464
9.89818
9.94501
9.98442
10.0161
10.0391
10.0468
10.0448
10.0198
9.97307
9.9121
9.83599
9.76718
9.71472
9.67571
9.64963
9.62427
9.58835
9.52552
9.43119
9.30462
9.15201
8.98279
8.7986
8.59823
8.37644
8.12959
7.84462
7.52359
7.1158
6.6756
6.20696
5.68206
5.16582
1
1
1
1
1
1
1
1
1
1
1
1
1
1
1
1
1
1
1
1
1
1
1
1
1
1
1
1
1
1
1
1
1
1
1
1
1
1
1
1
1
1
1
1
1
1
1
1
1
1
1
1
1
1
1
1
1
1
1
1
1
1
1
1
1
1
1
1
1
1
1
1
1
1
1
1
1
1
1
1
1
1
1
1
1
1
1
1
1
1
1
1
1
1
1
1
1
1
1
1
1
1
1
1
1
1
1
1
1
1
1
1
1
1
1
1
1
1
1
1
1
1
1
1
1
1
1
1
1
1
1
1
1
1
1
1
1
1
1
1
1
1
1
1
1
1
1
1
1
1
1
1
1
1
1
1.00015
4.35318
9.36353
9.81571
9.84907
9.8886
9.92928
9.95972
9.98029
9.98466
9.98507
9.96695
9.92665
9.8657
9.78368
9.70318
9.63613
9.58238
9.54263
9.51027
9.47612
9.42097
9.33417
9.20901
9.05161
8.87407
8.68266
8.47656
8.2518
8.00505
7.72793
7.42286
7.04261
6.64587
6.21063
5.73358
5.26583
1
1
1
1
1
1
1
1
1
1
1
1
1
1
1
1
1
1
1
1
1
1
1
1
1
1
1
1
1
1
1
1
1
1
1
1
1
1
1
1
1
1
1
1
1
1
1
1
1
1
1
1
1
1
1
1
1
1
1
1
1
1
1
1
1
1
1
1
1
1
1
1
1
1
1
1
1
1
1
1
1
1
1
1
1
1
1
1
1
1
1
1
1
1
1
1
1
1
1
1
1
1
1
1
1
1
1
1
1
1
1
1
1
1
1
1
1
1
1
1
1
1
1
1
1
1
1
1
1
1
1
1
1
1
1
1
1
1
1
1
1
1
1
1
1
1
1
1
1
1
1
1
1
1
1
1
2.32562
8.73252
9.83428
9.79243
9.82135
9.86228
9.89285
9.91258
9.91521
9.91553
9.90405
9.8733
9.81945
9.73797
9.64863
9.56434
9.49625
9.4408
9.39913
9.36236
9.31183
9.23151
9.11022
8.95314
8.77414
8.58059
8.37266
8.14744
7.90157
7.63127
7.33393
6.9819
6.62179
6.21035
5.77779
5.34358
1
1
1
1
1
1
1
1
1
1
1
1
1
1
1
1
1
1
1
1
1
1
1
1
1
1
1
1
1
1
1
1
1
1
1
1
1
1
1
1
1
1
1
1
1
1
1
1
1
1
1
1
1
1
1
1
1
1
1
1
1
1
1
1
1
1
1
1
1
1
1
1
1
1
1
1
1
1
1
1
1
1
1
1
1
1
1
1
1
1
1
1
1
1
1
1
1
1
1
1
1
1
1
1
1
1
1
1
1
1
1
1
1
1
1
1
1
1
1
1
1
1
1
1
1
1
1
1
1
1
1
1
1
1
1
1
1
1
1
1
1
1
1
1
1
1
1
1
1
1
1
1
1
1
1
1
1.13894
7.20335
9.82536
9.75167
9.75631
9.78613
9.81805
9.84402
9.84759
9.84183
9.82911
9.80557
9.76415
9.69206
9.60121
9.50541
9.42132
9.3496
9.295
9.25046
9.19902
9.12165
9.0059
8.85427
8.68097
8.49081
8.2844
8.06088
7.81722
7.55488
7.25964
6.93552
6.5969
6.20659
5.82047
5.41316
1
1
1
1
1
1
1
1
1
1
1
1
1
1
1
1
1
1
1
1
1
1
1
1
1
1
1
1
1
1
1
1
1
1
1
1
1
1
1
1
1
1
1
1
1
1
1
1
1
1
1
1
1
1
1
1
1
1
1
1
1
1
1
1
1
1
1
1
1
1
1
1
1
1
1
1
1
1
1
1
1
1
1
1
1
1
1
1
1
1
1
1
1
1
1
1
1
1
1
1
1
1
1
1
1
1
1
1
1
1
1
1
1
1
1
1
1
1
1
1
1
1
1
1
1
1
1
1
1
1
1
1
1
1
1
1
1
1
1
1
1
1
1
1
1
1
1
1
1
1
1
1
1
1
1
1
1.00169
4.94522
9.40293
9.68756
9.7032
9.73472
9.7658
9.79243
9.79442
9.78001
9.7575
9.73199
9.69797
9.63733
9.55152
9.45196
9.35445
9.27113
9.20267
9.14663
9.08788
9.00813
8.89642
8.75295
8.59007
8.40805
8.20646
7.98606
7.74906
7.48918
7.19761
6.89702
6.56866
6.20797
5.85744
5.47437
1
1
1
1
1
1
1
1
1
1
1
1
1
1
1
1
1
1
1
1
1
1
1
1
1
1
1
1
1
1
1
1
1
1
1
1
1
1
1
1
1
1
1
1
1
1
1
1
1
1
1
1
1
1
1
1
1
1
1
1
1
1
1
1
1
1
1
1
1
1
1