/*--------------------------------*- C++ -*----------------------------------*\
  =========                 |
  \\      /  F ield         | OpenFOAM: The Open Source CFD Toolbox
   \\    /   O peration     | Website:  https://openfoam.org
    \\  /    A nd           | Version:  7
     \\/     M anipulation  |
\*---------------------------------------------------------------------------*/
FoamFile
{
    version     2.0;
    format      ascii;
    class       volScalarField;
    location    "2.7";
    object      rho;
}
// * * * * * * * * * * * * * * * * * * * * * * * * * * * * * * * * * * * * * //

dimensions      [1 -3 0 0 0 0 0];

internalField   nonuniform List<scalar> 
4128
(
0.772032
0.778343
0.78834
0.809574
0.8426
0.861347
0.866595
0.870309
0.873067
0.877204
0.882509
0.891813
0.908438
0.922042
0.927922
0.932634
0.937543
0.943877
0.954694
0.965984
0.96883
0.969285
0.966908
0.966547
0.969199
0.973554
0.982965
0.997633
1.00558
1.00689
1.00716
1.00562
1.00124
0.996414
0.993976
0.993698
0.995176
1.00022
1.00751
1.01246
1.01486
1.01665
1.0187
1.02007
1.01982
1.0183
1.01345
1.00598
1.00185
1.00051
1.00068
1.00416
1.00791
1.00915
1.0094
1.00923
1.00881
1.00747
1.00425
1.00092
0.998064
0.996046
0.9947
0.993498
0.992273
0.991306
0.990922
0.991339
0.993419
0.995654
0.996064
0.995133
0.993381
0.990442
0.987572
0.986129
0.985619
0.985368
0.985422
0.986487
0.988517
0.990163
0.990419
0.989691
0.98858
0.986879
0.983512
0.979525
0.977583
0.97695
0.977554
0.980188
0.981887
0.981773
0.981055
0.980044
0.979018
0.97822
0.977458
0.976632
0.97557
0.974174
0.973035
0.972305
0.972172
0.97336
0.97392
0.973307
0.972602
0.971729
0.970087
0.967755
0.966667
0.9661
0.96558
0.965205
0.964856
0.964253
0.963387
0.961897
0.959169
0.956004
0.954067
0.953249
0.952959
0.953131
0.95477
0.957617
0.957124
0.791723
0.796173
0.801694
0.815525
0.839745
0.863977
0.876214
0.881949
0.886986
0.891395
0.896866
0.904735
0.918673
0.931829
0.937059
0.940682
0.944428
0.949189
0.95796
0.972037
0.980106
0.982284
0.982593
0.980964
0.982155
0.984886
0.990731
1.00101
1.00834
1.01054
1.0115
1.01142
1.01065
1.01099
1.01109
1.01053
1.01069
1.01216
1.0141
1.01533
1.0155
1.01557
1.01619
1.01804
1.02024
1.02024
1.01841
1.01633
1.01479
1.01373
1.01401
1.01467
1.01385
1.01256
1.01096
1.00874
1.00657
1.00525
1.00489
1.00511
1.00539
1.00519
1.0044
1.00314
1.00146
0.999387
0.997263
0.995844
0.995232
0.994933
0.995399
0.996076
0.995643
0.994914
0.994194
0.993094
0.992173
0.991523
0.99099
0.990702
0.990544
0.989978
0.989436
0.989351
0.989062
0.987906
0.986778
0.98622
0.985467
0.984565
0.98385
0.982979
0.982172
0.981397
0.980395
0.979238
0.978264
0.977595
0.977223
0.977047
0.976933
0.976931
0.97708
0.977592
0.978466
0.978329
0.977227
0.975825
0.974077
0.972009
0.970011
0.968612
0.967898
0.967399
0.967079
0.967115
0.967448
0.967568
0.967139
0.966226
0.964908
0.963138
0.961142
0.959055
0.957139
0.956063
0.955789
0.956577
0.957201
0.824045
0.834599
0.84532
0.861667
0.881172
0.897931
0.910764
0.916681
0.922229
0.928601
0.935849
0.945126
0.958228
0.969168
0.974024
0.977695
0.981277
0.984908
0.98938
0.998196
1.00812
1.01169
1.01367
1.01391
1.01553
1.01845
1.0232
1.03049
1.03396
1.03448
1.03339
1.03
1.02991
1.03184
1.03538
1.04008
1.04387
1.04488
1.04416
1.04326
1.04256
1.04149
1.03938
1.03617
1.03247
1.03014
1.03004
1.0313
1.03307
1.03541
1.03835
1.03915
1.0384
1.03696
1.03383
1.0271
1.01821
1.01307
1.01185
1.01209
1.01494
1.01802
1.01875
1.01855
1.01801
1.01749
1.01706
1.01599
1.0136
1.01
1.00638
1.00383
1.00285
1.00303
1.00394
1.00408
1.00403
1.00407
1.00445
1.00529
1.00549
1.0045
1.00243
0.999084
0.994933
0.992581
0.992259
0.993715
0.997047
0.999717
0.999916
0.998802
0.996576
0.994127
0.992321
0.99086
0.989354
0.987436
0.984918
0.982563
0.981575
0.981451
0.982757
0.98598
0.989171
0.9898
0.98927
0.988384
0.986549
0.983206
0.979922
0.978253
0.977118
0.976099
0.975127
0.974377
0.973729
0.972935
0.97241
0.971932
0.971509
0.971452
0.971501
0.971306
0.970804
0.969505
0.967172
0.963714
0.960996
0.851976
0.867859
0.882929
0.900852
0.915264
0.925657
0.936363
0.943857
0.9507
0.96058
0.973077
0.98659
0.998977
1.00572
1.00987
1.01339
1.01579
1.01882
1.02393
1.03426
1.04859
1.05446
1.05615
1.05595
1.05435
1.05591
1.0591
1.0648
1.06912
1.07053
1.07087
1.06816
1.06674
1.0675
1.07015
1.07583
1.07933
1.07946
1.07721
1.0733
1.07178
1.07142
1.0709
1.06945
1.06689
1.06487
1.06447
1.06523
1.06717
1.06858
1.06805
1.06621
1.06405
1.06174
1.05837
1.05335
1.0484
1.04605
1.04503
1.04524
1.04698
1.04728
1.04651
1.04507
1.04261
1.03981
1.03814
1.03694
1.0354
1.03363
1.03228
1.03131
1.03021
1.02917
1.02835
1.02756
1.02638
1.0247
1.02375
1.02351
1.02369
1.02359
1.02259
1.02027
1.01694
1.01505
1.01437
1.01479
1.01704
1.01869
1.01844
1.01723
1.0146
1.01213
1.0109
1.01014
1.00945
1.00857
1.00728
1.00548
1.00386
1.00294
1.00296
1.00432
1.0052
1.00479
1.00393
1.00265
1.00073
0.998517
0.997472
0.99693
0.996665
0.996086
0.994973
0.993544
0.991784
0.989733
0.987714
0.986243
0.985525
0.985346
0.985682
0.986366
0.986547
0.986013
0.984823
0.982398
0.978275
0.881424
0.899788
0.911686
0.919977
0.926657
0.934013
0.945639
0.958067
0.9718
0.989933
1.0099
1.0262
1.03215
1.03434
1.03566
1.03848
1.04255
1.04765
1.05636
1.06874
1.07965
1.08446
1.08652
1.08723
1.08727
1.08912
1.09276
1.09866
1.10319
1.10464
1.10517
1.10365
1.10346
1.10514
1.11
1.11708
1.11905
1.11845
1.11464
1.10719
1.10162
1.09957
1.0987
1.09806
1.09739
1.09727
1.09791
1.10037
1.10448
1.10688
1.10651
1.10377
1.09766
1.08949
1.08229
1.0785
1.07747
1.07734
1.07903
1.08207
1.08281
1.08219
1.08139
1.08011
1.07729
1.07255
1.06725
1.0631
1.06073
1.05966
1.05933
1.06035
1.06137
1.0611
1.06034
1.059
1.05697
1.05488
1.05337
1.05181
1.04964
1.04661
1.04359
1.042
1.04161
1.04181
1.04296
1.04472
1.04565
1.04521
1.04387
1.0409
1.03719
1.03467
1.03313
1.03193
1.03105
1.03053
1.03028
1.03021
1.03026
1.03043
1.03099
1.031
1.03026
1.02905
1.02681
1.02306
1.01969
1.01858
1.01822
1.01826
1.01937
1.02044
1.02025
1.01953
1.01797
1.01516
1.01179
1.0096
1.00875
1.00824
1.00809
1.008
1.00746
1.00655
1.00509
1.00281
0.99999
0.889646
0.906372
0.916772
0.921033
0.925677
0.93303
0.94637
0.96282
0.980332
0.998572
1.01575
1.03107
1.03679
1.03899
1.0421
1.0493
1.05983
1.07074
1.07864
1.08348
1.08711
1.09179
1.09867
1.1059
1.11099
1.11491
1.11843
1.12065
1.12188
1.12236
1.12194
1.12249
1.12395
1.12639
1.13146
1.13672
1.13784
1.13756
1.13522
1.12967
1.12463
1.12311
1.12253
1.12246
1.12333
1.12436
1.12613
1.12942
1.13325
1.13444
1.13309
1.12726
1.11695
1.10732
1.10229
1.10074
1.10071
1.10387
1.10932
1.11173
1.11161
1.11098
1.11023
1.10879
1.10521
1.09949
1.09352
1.08916
1.08677
1.08562
1.08536
1.08713
1.08872
1.0885
1.08738
1.08452
1.08094
1.07917
1.07832
1.0773
1.0753
1.07178
1.06856
1.06738
1.067
1.0674
1.06941
1.07068
1.07026
1.06877
1.06569
1.06253
1.06135
1.06076
1.05985
1.05871
1.0576
1.05657
1.0555
1.05489
1.0546
1.05444
1.05449
1.05413
1.05341
1.05201
1.04915
1.04502
1.04211
1.04101
1.04041
1.04016
1.04106
1.04265
1.04286
1.04234
1.04069
1.03714
1.03325
1.03121
1.03031
1.02977
1.02956
1.02979
1.02973
1.02927
1.02841
1.02721
1.02524
0.884934
0.90267
0.910688
0.914881
0.919807
0.928319
0.943683
0.962947
0.980274
0.995664
1.01054
1.02502
1.03306
1.03702
1.04134
1.04912
1.06119
1.07425
1.08064
1.08373
1.08719
1.09331
1.10576
1.11949
1.12483
1.12661
1.12646
1.12378
1.12334
1.12466
1.12712
1.13239
1.13763
1.14122
1.14398
1.14531
1.14522
1.14481
1.14412
1.14201
1.13837
1.13623
1.13591
1.13657
1.14011
1.1452
1.14801
1.14808
1.14684
1.14318
1.13759
1.1302
1.1228
1.11837
1.11716
1.11792
1.12241
1.12996
1.13517
1.13605
1.13551
1.13348
1.12878
1.1231
1.11776
1.11242
1.10787
1.10498
1.10372
1.10342
1.10531
1.10824
1.1092
1.10891
1.10738
1.10412
1.1008
1.09898
1.09756
1.09564
1.09269
1.08925
1.08732
1.08679
1.08686
1.0885
1.09059
1.09061
1.08895
1.08501
1.08118
1.07977
1.07915
1.07858
1.07782
1.07704
1.07609
1.07489
1.07347
1.07303
1.07306
1.07332
1.0731
1.07231
1.0707
1.06749
1.0627
1.05835
1.05649
1.05605
1.05618
1.05772
1.06062
1.06283
1.06301
1.06195
1.05879
1.0547
1.05188
1.05028
1.04917
1.04837
1.04773
1.04724
1.04681
1.04626
1.04545
1.04478
1.04367
0.861232
0.880922
0.893503
0.900834
0.908395
0.91951
0.937557
0.961124
0.977104
0.986071
0.994227
1.00465
1.01854
1.03173
1.03817
1.0449
1.05613
1.0695
1.07592
1.07947
1.08364
1.09109
1.10559
1.11903
1.12374
1.12603
1.1263
1.12209
1.12123
1.12355
1.12927
1.14024
1.14671
1.14833
1.14862
1.14825
1.1484
1.14923
1.14957
1.1489
1.14687
1.14442
1.14403
1.14533
1.15021
1.15415
1.154
1.1524
1.14848
1.14245
1.13558
1.13115
1.13001
1.13048
1.13349
1.13856
1.14249
1.14331
1.14253
1.14127
1.13935
1.13591
1.12992
1.12266
1.11823
1.11647
1.11574
1.11585
1.11834
1.12217
1.12413
1.12397
1.12274
1.1201
1.1175
1.11503
1.11236
1.10975
1.10728
1.1048
1.10237
1.10093
1.10059
1.10119
1.10314
1.10461
1.10406
1.10164
1.09765
1.09362
1.09155
1.09048
1.08968
1.08932
1.08973
1.09004
1.08974
1.08881
1.08693
1.08493
1.08406
1.08333
1.08213
1.08019
1.0776
1.07441
1.071
1.06877
1.06836
1.06918
1.07146
1.07423
1.0751
1.07425
1.07219
1.06928
1.06549
1.06317
1.06237
1.06181
1.06117
1.06026
1.05903
1.05754
1.05624
1.05532
1.05463
1.05439
1.05446
0.804089
0.827206
0.851165
0.871456
0.887416
0.903227
0.923058
0.949417
0.96794
0.972731
0.975591
0.983079
0.996625
1.01655
1.03541
1.04284
1.04836
1.05708
1.06514
1.07139
1.0778
1.08695
1.10119
1.1128
1.11715
1.12023
1.12208
1.12314
1.12322
1.12498
1.1298
1.13938
1.14668
1.14842
1.14883
1.14807
1.14816
1.14877
1.14949
1.14968
1.1494
1.14835
1.14797
1.14901
1.152
1.15377
1.15343
1.15188
1.14728
1.13954
1.13497
1.13482
1.13689
1.14234
1.14748
1.14813
1.14683
1.14429
1.14208
1.1405
1.13823
1.13406
1.12768
1.12224
1.12029
1.12042
1.12282
1.12893
1.13511
1.13628
1.13481
1.13062
1.1251
1.12078
1.11776
1.1159
1.11438
1.11271
1.11089
1.10968
1.10933
1.10995
1.11183
1.11322
1.11298
1.11097
1.10713
1.10262
1.09923
1.0978
1.09696
1.09636
1.09657
1.09805
1.09871
1.09819
1.09694
1.09404
1.08938
1.08602
1.08451
1.08343
1.08242
1.08133
1.08029
1.07961
1.07951
1.07988
1.08004
1.0799
1.07932
1.07813
1.07653
1.07457
1.07177
1.06873
1.06754
1.0672
1.06759
1.06804
1.06761
1.06693
1.06596
1.06442
1.06252
1.06138
1.06109
1.06121
1.06229
0.752159
0.765314
0.785346
0.812238
0.841133
0.868411
0.893786
0.924314
0.949741
0.957361
0.958626
0.96286
0.974383
0.997335
1.02396
1.03537
1.03865
1.04236
1.05032
1.05896
1.06908
1.08296
1.09538
1.10068
1.10479
1.10975
1.11436
1.1182
1.12265
1.1253
1.12895
1.13636
1.14355
1.14584
1.14672
1.14656
1.14617
1.14677
1.14781
1.14818
1.14809
1.14876
1.14919
1.15012
1.15121
1.15133
1.15103
1.1495
1.14519
1.13953
1.13772
1.13827
1.14102
1.14553
1.14803
1.14775
1.14648
1.14349
1.13873
1.13464
1.132
1.12976
1.12733
1.12618
1.12649
1.12866
1.13408
1.13968
1.14027
1.13904
1.13631
1.13082
1.12276
1.11699
1.11497
1.11444
1.1149
1.11507
1.11488
1.11531
1.1169
1.11918
1.12
1.11921
1.11659
1.11171
1.10542
1.10166
1.10065
1.10013
1.1003
1.10207
1.10448
1.10483
1.10381
1.10173
1.09795
1.09275
1.0879
1.08532
1.08426
1.08348
1.08285
1.08281
1.08435
1.08678
1.08797
1.08761
1.08571
1.08233
1.07977
1.07787
1.07536
1.0724
1.06999
1.06897
1.06918
1.07087
1.07302
1.07367
1.07329
1.07264
1.07179
1.07051
1.06859
1.06632
1.06523
1.0649
1.06485
0.758081
0.756968
0.759243
0.768306
0.783915
0.808107
0.839633
0.870425
0.897455
0.922967
0.939368
0.94608
0.955386
0.974745
1.00235
1.01899
1.02507
1.02785
1.03165
1.03999
1.05335
1.07628
1.09087
1.09251
1.09331
1.09706
1.10208
1.10794
1.11629
1.12512
1.12896
1.13196
1.13592
1.14008
1.14228
1.14317
1.14296
1.14223
1.14264
1.14355
1.14513
1.14682
1.14895
1.14997
1.14895
1.1473
1.14646
1.14578
1.14386
1.14122
1.13959
1.13911
1.13971
1.14219
1.14476
1.14485
1.14378
1.14135
1.13641
1.13068
1.12771
1.1273
1.12857
1.13231
1.13573
1.13794
1.1386
1.13856
1.13872
1.1378
1.13484
1.12809
1.11939
1.11493
1.11371
1.1134
1.11415
1.11729
1.12088
1.12322
1.12444
1.12434
1.12341
1.12091
1.11584
1.10821
1.1029
1.10136
1.10092
1.1016
1.10499
1.10918
1.10986
1.10864
1.10633
1.10215
1.09537
1.08798
1.08448
1.08351
1.08317
1.08338
1.08442
1.08719
1.09093
1.09226
1.09164
1.08977
1.08624
1.08186
1.07791
1.07479
1.07243
1.07072
1.06996
1.07035
1.07274
1.07558
1.07588
1.07538
1.07466
1.07393
1.07313
1.07215
1.07082
1.06872
1.0659
1.06361
1.0631
0.77229
0.766512
0.763902
0.764359
0.766069
0.771806
0.785376
0.803158
0.823206
0.848796
0.878598
0.910614
0.934851
0.953123
0.971275
0.990721
1.00597
1.01267
1.0134
1.01809
1.03266
1.05721
1.07842
1.08667
1.08931
1.08645
1.08888
1.09474
1.10491
1.11967
1.12786
1.12945
1.12877
1.12987
1.13221
1.13539
1.13727
1.13737
1.1367
1.13701
1.13885
1.1425
1.14691
1.14837
1.14786
1.14528
1.14188
1.14044
1.14016
1.13963
1.13909
1.1386
1.13778
1.13752
1.13764
1.1387
1.13914
1.13841
1.13591
1.13135
1.12783
1.12754
1.13059
1.13706
1.14067
1.14073
1.13962
1.13708
1.1344
1.13185
1.12835
1.1237
1.1192
1.11575
1.11437
1.1141
1.11593
1.12262
1.12787
1.12857
1.12784
1.12637
1.12353
1.11876
1.11164
1.10551
1.10274
1.10191
1.10168
1.10414
1.10994
1.11148
1.11049
1.10912
1.10691
1.10173
1.09322
1.08714
1.08443
1.08322
1.08275
1.08336
1.08792
1.09277
1.09366
1.09299
1.09178
1.08943
1.08493
1.07926
1.07498
1.07283
1.07171
1.07128
1.07196
1.07451
1.07559
1.07483
1.07367
1.07288
1.0726
1.07255
1.07228
1.0716
1.0704
1.06866
1.06608
1.06208
1.06173
0.802736
0.78952
0.776009
0.774815
0.775935
0.779547
0.782299
0.783007
0.784491
0.791683
0.810189
0.840785
0.879117
0.91336
0.93335
0.948746
0.962021
0.979073
0.998038
1.00886
1.01914
1.03548
1.05507
1.0703
1.07609
1.07722
1.07611
1.08081
1.09051
1.1082
1.12123
1.12427
1.12494
1.1203
1.11938
1.12209
1.12712
1.13173
1.13234
1.13194
1.13254
1.13491
1.13947
1.14416
1.14494
1.14369
1.13945
1.13464
1.1338
1.1347
1.13644
1.13725
1.13701
1.13519
1.13311
1.13241
1.13283
1.13397
1.13399
1.13272
1.13044
1.12915
1.12968
1.13285
1.13736
1.13906
1.13855
1.13576
1.12938
1.12318
1.12101
1.12082
1.12076
1.12013
1.11934
1.11928
1.1207
1.12269
1.12517
1.1269
1.12676
1.12537
1.12124
1.11362
1.1074
1.10509
1.10407
1.10352
1.10413
1.10687
1.10836
1.10873
1.1083
1.10719
1.10469
1.09947
1.09354
1.08911
1.08623
1.08474
1.08424
1.08541
1.08829
1.08991
1.09009
1.08956
1.08821
1.0852
1.08043
1.07634
1.07439
1.07327
1.07284
1.07375
1.07617
1.07653
1.07566
1.07373
1.07108
1.06954
1.06894
1.06854
1.06843
1.06869
1.06842
1.06752
1.06538
1.06261
1.08436
0.84879
0.832056
0.808558
0.80036
0.798148
0.793237
0.791389
0.789407
0.78612
0.783373
0.785295
0.793129
0.809679
0.832613
0.858974
0.883958
0.903728
0.925493
0.957878
0.992705
1.01103
1.01981
1.02706
1.03577
1.0489
1.06114
1.0646
1.06756
1.07655
1.0905
1.10533
1.11242
1.11424
1.11211
1.10667
1.10748
1.11208
1.12148
1.12835
1.1295
1.12795
1.12745
1.12893
1.13252
1.13677
1.13807
1.13668
1.13172
1.12689
1.12637
1.12798
1.13201
1.13453
1.13419
1.13186
1.12814
1.12664
1.12691
1.12879
1.13078
1.13073
1.12955
1.1286
1.12881
1.12957
1.1311
1.13162
1.1298
1.12457
1.12006
1.1189
1.11897
1.12132
1.12482
1.12556
1.12493
1.12344
1.12224
1.12181
1.12185
1.12143
1.11928
1.11449
1.10908
1.10661
1.10562
1.10532
1.10659
1.10748
1.10662
1.10565
1.10431
1.10245
1.09996
1.09676
1.09408
1.09255
1.09115
1.09018
1.08963
1.08932
1.08866
1.08766
1.08683
1.08543
1.08321
1.08027
1.07745
1.07597
1.07517
1.07451
1.07496
1.07665
1.07695
1.07615
1.07522
1.07351
1.07051
1.0677
1.06628
1.06547
1.06474
1.06418
1.06402
1.06404
1.0636
1.06396
1.07386
1.24672
0.887916
0.873346
0.853437
0.830126
0.82305
0.815438
0.807215
0.804605
0.801469
0.795359
0.788597
0.787222
0.788114
0.793615
0.801678
0.813749
0.834922
0.863582
0.894779
0.9322
0.976678
0.998526
1.00087
1.00327
1.01153
1.02623
1.0474
1.06176
1.06852
1.07547
1.08334
1.09122
1.097
1.09891
1.09747
1.09689
1.10049
1.10804
1.11816
1.12305
1.12372
1.12206
1.12083
1.12134
1.12328
1.12653
1.12825
1.12734
1.12327
1.11931
1.11892
1.12071
1.12517
1.12839
1.12818
1.12565
1.1214
1.11972
1.12024
1.12308
1.12742
1.12908
1.1285
1.12531
1.12153
1.12047
1.12045
1.12017
1.11948
1.11893
1.1184
1.11878
1.12035
1.12293
1.12492
1.12515
1.12414
1.12166
1.11837
1.11535
1.11222
1.10854
1.10612
1.10574
1.10623
1.10732
1.10799
1.10775
1.10706
1.10566
1.10293
1.09872
1.09379
1.08978
1.08792
1.08755
1.08914
1.09252
1.09363
1.09304
1.09165
1.08945
1.08631
1.0824
1.07791
1.0736
1.07109
1.07039
1.07121
1.07435
1.07691
1.07735
1.07662
1.0758
1.07424
1.07129
1.06715
1.06387
1.06267
1.06215
1.06166
1.06122
1.06117
1.06085
1.05964
1.05982
1.0639
1.17834
1.62362
0.922474
0.90885
0.896184
0.875499
0.859062
0.850787
0.840738
0.834103
0.828444
0.819126
0.804522
0.790887
0.787143
0.786583
0.7879
0.790903
0.795971
0.806886
0.826611
0.854456
0.887151
0.919364
0.955385
0.971157
0.977651
0.989676
1.01257
1.04374
1.05911
1.06169
1.06197
1.0659
1.07187
1.08102
1.08802
1.08927
1.09059
1.09448
1.10027
1.108
1.11466
1.11647
1.11554
1.11193
1.11078
1.11162
1.11393
1.117
1.11729
1.11545
1.11245
1.11153
1.11218
1.11493
1.11826
1.1187
1.11697
1.11361
1.1125
1.11343
1.11769
1.12178
1.12202
1.12005
1.11499
1.11055
1.10939
1.10975
1.11251
1.11618
1.11767
1.11808
1.11833
1.11867
1.1192
1.11976
1.11957
1.11779
1.11345
1.10768
1.1028
1.10022
1.09951
1.09972
1.10177
1.10473
1.10602
1.10563
1.1043
1.10158
1.09656
1.09012
1.08508
1.0827
1.08186
1.08198
1.08461
1.08849
1.09031
1.09015
1.08921
1.08686
1.08145
1.07413
1.0683
1.06556
1.06465
1.06462
1.06703
1.07143
1.07402
1.07419
1.07353
1.07196
1.0681
1.06192
1.05742
1.05613
1.05577
1.05569
1.05628
1.05758
1.05857
1.05806
1.05744
1.05859
1.12311
1.52134
1.92803
0.966576
0.937535
0.924577
0.913592
0.900038
0.88566
0.873578
0.862459
0.8528
0.843923
0.832431
0.815347
0.799236
0.791128
0.78939
0.789884
0.793118
0.795059
0.797566
0.804669
0.816762
0.83254
0.858799
0.8943
0.930925
0.951626
0.970333
0.996318
1.02766
1.04266
1.04485
1.04325
1.0484
1.05756
1.07067
1.07845
1.07939
1.07933
1.08233
1.08809
1.09772
1.10502
1.10628
1.10458
1.09886
1.09659
1.09745
1.10097
1.10684
1.10894
1.10803
1.10388
1.10078
1.10083
1.10282
1.10649
1.10817
1.10771
1.10602
1.10573
1.10761
1.11037
1.1111
1.11082
1.10828
1.10349
1.10146
1.10178
1.10445
1.10992
1.11371
1.11442
1.11413
1.11281
1.11139
1.11075
1.11001
1.10798
1.10384
1.099
1.09607
1.09501
1.09463
1.0951
1.09707
1.09888
1.09902
1.09825
1.09625
1.09207
1.08615
1.08134
1.07904
1.07803
1.07779
1.07896
1.08116
1.08299
1.08348
1.08289
1.08147
1.07771
1.07041
1.06358
1.06084
1.06001
1.05978
1.0613
1.06497
1.06793
1.06848
1.06793
1.0668
1.06359
1.05673
1.05044
1.04851
1.04808
1.04785
1.04821
1.05013
1.05291
1.05427
1.05393
1.05667
1.08628
1.39077
1.87125
1.9933
1.01146
0.981914
0.952459
0.941696
0.935145
0.924591
0.911919
0.898087
0.883893
0.872419
0.861964
0.845668
0.822932
0.805091
0.797854
0.79477
0.79375
0.794421
0.795393
0.795489
0.794026
0.793898
0.797024
0.810389
0.836884
0.876032
0.914275
0.94144
0.967017
0.998782
1.02126
1.02578
1.02704
1.03428
1.04579
1.05913
1.064
1.06466
1.066
1.07007
1.07722
1.08593
1.09047
1.09118
1.08833
1.08366
1.08328
1.0856
1.09178
1.0972
1.09798
1.09636
1.09158
1.08832
1.08832
1.09006
1.0939
1.09721
1.09771
1.09772
1.09871
1.0988
1.09893
1.09919
1.09893
1.09708
1.09519
1.0952
1.09705
1.10138
1.10526
1.10603
1.10582
1.10477
1.10276
1.10036
1.0978
1.0947
1.09161
1.0902
1.08981
1.08975
1.09055
1.09156
1.09137
1.09058
1.08928
1.0868
1.08277
1.07825
1.07564
1.07461
1.074
1.07413
1.07516
1.07592
1.07563
1.07477
1.07372
1.07189
1.06849
1.06322
1.05798
1.05574
1.05507
1.05485
1.05571
1.05803
1.06023
1.06048
1.05982
1.05858
1.05569
1.05007
1.04399
1.04151
1.04095
1.04072
1.04082
1.04183
1.04405
1.04648
1.04676
1.04801
1.05728
1.26624
1.77506
1.96797
1.97283
1.03878
1.0192
0.996945
0.974544
0.957494
0.949997
0.942748
0.932243
0.918703
0.900055
0.879203
0.863159
0.847727
0.834733
0.82487
0.814153
0.804439
0.799954
0.79731
0.795441
0.79338
0.788145
0.779223
0.777585
0.782105
0.796726
0.824068
0.865502
0.900366
0.929249
0.963554
0.994454
1.00243
1.00662
1.01509
1.02852
1.04296
1.05029
1.05358
1.05624
1.05942
1.06345
1.0683
1.07275
1.07427
1.07409
1.07303
1.07371
1.07594
1.07972
1.08276
1.08361
1.0827
1.07874
1.07557
1.07551
1.07706
1.0814
1.08698
1.08978
1.09011
1.08879
1.08692
1.08679
1.08736
1.08778
1.08769
1.0878
1.0893
1.09212
1.09461
1.0953
1.09513
1.09435
1.09249
1.08917
1.08511
1.08221
1.08127
1.08121
1.08235
1.08472
1.08621
1.08597
1.0847
1.08197
1.07732
1.07164
1.06737
1.06579
1.06569
1.06747
1.07001
1.07156
1.07161
1.07067
1.06898
1.06621
1.06216
1.05731
1.05275
1.0498
1.04877
1.04858
1.049
1.05002
1.05148
1.05238
1.05199
1.05106
1.04929
1.04601
1.04153
1.03776
1.0363
1.03584
1.03543
1.03515
1.03507
1.03566
1.03685
1.03785
1.03857
1.0419
1.16376
1.65694
1.94331
1.95284
1.9455
1.05681
1.03539
1.02475
1.01058
0.995252
0.978593
0.965845
0.957884
0.948951
0.933268
0.906152
0.878501
0.867114
0.860426
0.852158
0.840629
0.827288
0.815351
0.807663
0.803384
0.799514
0.790535
0.779427
0.773829
0.773202
0.773993
0.778932
0.792434
0.818431
0.849572
0.880076
0.916107
0.955656
0.972928
0.981113
0.991639
1.00981
1.03391
1.0453
1.04742
1.04409
1.04248
1.04459
1.04936
1.05823
1.06352
1.06469
1.0635
1.06163
1.06194
1.06463
1.06852
1.06997
1.06959
1.06635
1.06389
1.06411
1.06705
1.07421
1.07982
1.08105
1.08075
1.07826
1.07581
1.0759
1.07665
1.0777
1.07892
1.0808
1.0827
1.08371
1.08417
1.08413
1.08349
1.08191
1.07905
1.0757
1.07382
1.07342
1.07389
1.07602
1.07863
1.07943
1.07902
1.07732
1.07244
1.06483
1.0594
1.0574
1.05686
1.05843
1.06335
1.06705
1.06753
1.06675
1.0651
1.06145
1.05531
1.04841
1.0433
1.04122
1.04089
1.04168
1.04336
1.04509
1.04624
1.04634
1.04557
1.04399
1.04128
1.03746
1.03348
1.03128
1.03085
1.03079
1.03063
1.03032
1.03002
1.02976
1.03005
1.03028
1.03042
1.03469
1.08713
1.50153
1.91321
1.94871
1.94097
1.93384
1.08621
1.06064
1.04146
1.03116
1.0227
1.01116
0.998827
0.984954
0.967838
0.95139
0.93061
0.906521
0.886929
0.873962
0.866033
0.859514
0.851951
0.842851
0.831958
0.817494
0.800875
0.789797
0.782329
0.777471
0.774314
0.773598
0.773745
0.774134
0.776453
0.784414
0.799703
0.822607
0.856206
0.898833
0.93555
0.954422
0.973784
1.00204
1.02652
1.03312
1.03377
1.02763
1.02621
1.02998
1.03904
1.04967
1.05337
1.05397
1.05182
1.04894
1.04953
1.05322
1.0567
1.05826
1.05839
1.05699
1.05671
1.05892
1.0648
1.06991
1.07134
1.07152
1.06965
1.06589
1.06491
1.06559
1.06744
1.07089
1.07379
1.07435
1.07433
1.07431
1.07396
1.07317
1.07209
1.0708
1.06986
1.06962
1.06979
1.0708
1.07192
1.07217
1.07197
1.07102
1.06744
1.06059
1.05517
1.05363
1.05344
1.0545
1.057
1.06061
1.06234
1.06185
1.06019
1.05614
1.04924
1.04315
1.04052
1.03961
1.03901
1.03906
1.04096
1.04228
1.04221
1.04142
1.03986
1.03722
1.03348
1.02929
1.02628
1.02517
1.02494
1.02511
1.026
1.02692
1.02742
1.0278
1.02796
1.0274
1.02591
1.02524
1.03666
1.31596
1.83064
1.94733
1.94503
1.94123
1.935
1.10494
1.08697
1.07211
1.05902
1.04417
1.03362
1.02407
1.01083
0.989849
0.959422
0.935671
0.922811
0.91048
0.900272
0.890352
0.879957
0.871957
0.86569
0.85677
0.838762
0.812907
0.796143
0.791088
0.787732
0.783609
0.779138
0.775702
0.774379
0.773342
0.77069
0.766035
0.768018
0.778468
0.803839
0.843111
0.895764
0.935708
0.961234
0.984846
1.00782
1.01746
1.01894
1.01443
1.01488
1.02002
1.029
1.03765
1.04079
1.04085
1.04056
1.04168
1.04269
1.04434
1.04648
1.0492
1.05025
1.05048
1.0536
1.05866
1.06116
1.06189
1.06194
1.06064
1.05851
1.05819
1.05926
1.06188
1.06569
1.06744
1.06738
1.06694
1.06648
1.06614
1.06606
1.06611
1.0665
1.06764
1.06901
1.06983
1.06953
1.06844
1.06681
1.06468
1.0612
1.05597
1.05326
1.05298
1.05294
1.05327
1.05547
1.05866
1.05874
1.05752
1.05516
1.05077
1.04525
1.04192
1.04088
1.04026
1.03995
1.04053
1.04093
1.04029
1.03927
1.03739
1.0345
1.0314
1.02883
1.02679
1.02499
1.02375
1.02337
1.02326
1.02343
1.02443
1.02619
1.02704
1.02681
1.02627
1.02436
1.02051
1.02083
1.16713
1.69632
1.9191
1.9442
1.94848
1.9481
1.9405
1.11994
1.1045
1.09478
1.08488
1.07235
1.05994
1.04693
1.0319
1.00928
0.976488
0.948676
0.932662
0.926387
0.922575
0.91611
0.907747
0.897182
0.882679
0.866308
0.851278
0.834314
0.819896
0.807365
0.798126
0.793515
0.789464
0.785053
0.781397
0.777671
0.771951
0.761238
0.754687
0.754916
0.759485
0.775314
0.806526
0.853401
0.901327
0.930981
0.956042
0.983336
1.00269
1.00636
1.00331
1.00397
1.00783
1.01571
1.02844
1.03787
1.04174
1.04166
1.0366
1.03349
1.03452
1.03734
1.04229
1.04842
1.05271
1.05342
1.05333
1.05356
1.05378
1.054
1.05442
1.05596
1.0581
1.06049
1.06295
1.06348
1.06333
1.06291
1.06281
1.06311
1.06332
1.06358
1.06445
1.06653
1.06876
1.06887
1.06797
1.06644
1.06395
1.05946
1.05394
1.05123
1.05101
1.05174
1.05348
1.05648
1.05887
1.0585
1.05672
1.05305
1.04766
1.04356
1.04196
1.04133
1.04102
1.04162
1.04265
1.04213
1.04077
1.03833
1.03535
1.03293
1.03121
1.02974
1.0281
1.0265
1.02517
1.02456
1.0244
1.02437
1.02462
1.02532
1.02589
1.02576
1.02489
1.02306
1.0188
1.01545
1.07194
1.53226
1.89098
1.9324
1.94242
1.95414
1.95345
1.94688
1.13977
1.13179
1.12054
1.10871
1.09803
1.08619
1.07184
1.048
1.00989
0.979594
0.964369
0.957119
0.949513
0.940499
0.933564
0.927504
0.918787
0.903797
0.881849
0.860852
0.849423
0.840256
0.83037
0.821349
0.812831
0.805031
0.799074
0.794408
0.789102
0.779539
0.764073
0.755432
0.754629
0.75553
0.75988
0.768682
0.785327
0.813217
0.85273
0.890478
0.923394
0.954393
0.984443
0.997744
0.995059
0.993355
1.00191
1.01797
1.03275
1.03814
1.03914
1.03718
1.02884
1.02745
1.02992
1.03504
1.04479
1.04924
1.04896
1.04817
1.04842
1.04957
1.05098
1.05305
1.05631
1.05915
1.05966
1.05988
1.06046
1.06105
1.06136
1.06124
1.06139
1.06168
1.06188
1.06249
1.0644
1.06772
1.06922
1.06877
1.06747
1.06407
1.05814
1.05251
1.05046
1.0503
1.05107
1.05486
1.05985
1.06079
1.05914
1.05614
1.0517
1.04642
1.04314
1.04225
1.04194
1.04261
1.04325
1.04265
1.04168
1.03982
1.03708
1.03483
1.03306
1.03147
1.03024
1.02931
1.02849
1.02761
1.02625
1.02503
1.02459
1.02433
1.02427
1.02387
1.02326
1.02198
1.0192
1.01519
1.02987
1.32226
1.86011
1.96054
1.95027
1.94716
1.94583
1.94429
1.94512
1.16523
1.15708
1.14779
1.13729
1.12586
1.11233
1.0924
1.05659
1.01532
0.991022
0.983736
0.979963
0.97368
0.965371
0.956457
0.946712
0.93627
0.923436
0.903662
0.879146
0.861829
0.852556
0.84749
0.843211
0.837648
0.830961
0.823501
0.814464
0.802903
0.787663
0.769867
0.762569
0.7606
0.759811
0.760552
0.765025
0.770381
0.776062
0.788103
0.81023
0.842767
0.879043
0.918581
0.953555
0.980809
0.99179
1.00132
1.0135
1.02357
1.02999
1.03292
1.03314
1.03041
1.02525
1.02574
1.02911
1.03652
1.04383
1.04763
1.04861
1.0486
1.04919
1.05065
1.0528
1.05557
1.0582
1.06022
1.06148
1.06236
1.06284
1.06232
1.0612
1.06101
1.06126
1.06147
1.0617
1.06288
1.06622
1.06942
1.06977
1.06901
1.06643
1.06018
1.05342
1.05121
1.05104
1.05155
1.05368
1.05807
1.06089
1.06022
1.05846
1.05495
1.04956
1.04579
1.04467
1.04426
1.04403
1.04326
1.04191
1.04018
1.03859
1.03722
1.03602
1.0351
1.03429
1.03371
1.03302
1.03195
1.03014
1.02727
1.02519
1.02449
1.02389
1.02314
1.02205
1.0207
1.01897
1.01671
1.01998
1.15984
1.7091
1.98799
1.98963
1.9758
1.95825
1.9424
1.93515
1.93585
1.19601
1.18798
1.17749
1.16599
1.15261
1.13428
1.1024
1.05737
1.02469
1.01583
1.01053
1.00287
0.995326
0.988474
0.980395
0.970291
0.957404
0.938171
0.910795
0.89126
0.882123
0.875598
0.869489
0.864369
0.860178
0.855468
0.84914
0.839037
0.820109
0.79454
0.78088
0.778045
0.777284
0.775548
0.772528
0.771916
0.772409
0.774778
0.775202
0.776899
0.781978
0.798625
0.833067
0.875546
0.922892
0.965072
0.996554
1.01243
1.01614
1.02071
1.02446
1.02628
1.02612
1.02781
1.02991
1.03071
1.03248
1.03844
1.04563
1.04963
1.05167
1.05336
1.05388
1.05414
1.05516
1.05638
1.0585
1.06237
1.06679
1.06866
1.06852
1.06599
1.06275
1.0619
1.06191
1.06203
1.06295
1.06612
1.06991
1.07101
1.0709
1.0696
1.06609
1.06095
1.05684
1.05493
1.05432
1.05464
1.05666
1.05921
1.06073
1.0603
1.05896
1.05675
1.05406
1.05113
1.04841
1.04619
1.04432
1.04244
1.04038
1.0386
1.03763
1.03728
1.03765
1.03798
1.03751
1.03661
1.03534
1.03318
1.03036
1.02786
1.02595
1.02459
1.02347
1.02229
1.0205
1.01786
1.01752
1.07816
1.52184
1.96401
2.01636
2.00912
1.99834
1.982
1.95918
1.9421
1.93401
1.23148
1.22197
1.20971
1.19606
1.17903
1.15272
1.1091
1.06419
1.04759
1.04137
1.03636
1.03016
1.02189
1.01344
1.00492
0.994987
0.981035
0.955706
0.921299
0.906009
0.902004
0.899183
0.89526
0.890398
0.884947
0.878906
0.871502
0.859933
0.837707
0.811366
0.801576
0.797507
0.794934
0.793956
0.79109
0.787581
0.784484
0.781975
0.778856
0.773162
0.766839
0.767466
0.775017
0.798513
0.842566
0.894858
0.950014
0.994399
1.00872
1.01359
1.01495
1.01698
1.01977
1.02426
1.03075
1.03524
1.03883
1.04437
1.05111
1.05313
1.05448
1.0559
1.05589
1.05547
1.05533
1.05543
1.05779
1.06498
1.07208
1.07437
1.07484
1.07284
1.06828
1.06625
1.06614
1.06622
1.06724
1.07046
1.07264
1.0727
1.07257
1.07172
1.07001
1.06781
1.06596
1.06445
1.06273
1.06114
1.06035
1.06055
1.06161
1.06229
1.06245
1.0623
1.06161
1.05954
1.05594
1.05215
1.04895
1.04614
1.04388
1.04264
1.04197
1.04172
1.042
1.04185
1.04107
1.0398
1.03801
1.03602
1.03431
1.03277
1.031
1.02892
1.0266
1.02432
1.02112
1.0198
1.03984
1.34495
1.88673
2.04175
2.02755
2.02063
2.01475
2.00722
1.99501
1.98068
1.97077
1.26937
1.25704
1.24232
1.22578
1.2036
1.16714
1.11627
1.08517
1.07719
1.0697
1.06295
1.05721
1.0505
1.04226
1.03287
1.02071
0.99964
0.964392
0.9369
0.929986
0.926057
0.922215
0.918847
0.915299
0.910245
0.903762
0.894154
0.876363
0.848959
0.832367
0.828177
0.824057
0.81951
0.815722
0.812624
0.808459
0.804086
0.798907
0.789235
0.774081
0.768616
0.76836
0.769922
0.774571
0.787145
0.819178
0.863888
0.915041
0.955797
0.985177
0.995717
1.0025
1.01136
1.01843
1.02794
1.04001
1.04934
1.05648
1.06011
1.05925
1.05588
1.053
1.05207
1.05414
1.05657
1.05861
1.06471
1.075
1.07941
1.08094
1.08116
1.07801
1.07293
1.07103
1.07111
1.07162
1.07385
1.07855
1.08011
1.07954
1.07796
1.07551
1.07323
1.07254
1.07246
1.07248
1.07215
1.07148
1.07062
1.06989
1.06974
1.06926
1.06859
1.06808
1.06702
1.06457
1.06114
1.05786
1.0553
1.05352
1.05225
1.05126
1.05054
1.04992
1.04919
1.04789
1.04607
1.04441
1.04295
1.04169
1.04056
1.03936
1.03784
1.03536
1.03133
1.0265
1.02476
1.03231
1.19688
1.74256
2.05166
2.05418
2.04885
2.03849