/*--------------------------------*- C++ -*----------------------------------*\
  =========                 |
  \\      /  F ield         | OpenFOAM: The Open Source CFD Toolbox
   \\    /   O peration     | Website:  https://openfoam.org
    \\  /    A nd           | Version:  7
     \\/     M anipulation  |
\*---------------------------------------------------------------------------*/
FoamFile
{
    version     2.0;
    format      ascii;
    class       volScalarField;
    location    "0.6";
    object      rho;
}
// * * * * * * * * * * * * * * * * * * * * * * * * * * * * * * * * * * * * * //

dimensions      [1 -3 0 0 0 0 0];

internalField   nonuniform List<scalar> 
16512
(
0.950069
0.944078
0.943024
0.942986
0.943162
0.944417
0.947826
0.954497
0.963421
0.967629
0.968053
0.967855
0.965736
0.961818
0.957648
0.954828
0.953975
0.953509
0.953105
0.952693
0.952496
0.952377
0.952603
0.95423
0.954958
0.954977
0.955331
0.956945
0.958128
0.956562
0.952219
0.948536
0.94696
0.946012
0.945314
0.945478
0.948251
0.956086
0.971833
0.998337
1.01976
1.02307
1.02319
1.02269
1.02025
1.01457
1.00331
0.982817
0.942578
0.904573
0.897822
0.896694
0.900703
0.909993
0.912852
0.912496
0.911283
0.908284
0.906187
0.907265
0.90933
0.911888
0.915549
0.920485
0.927464
0.93878
0.952424
0.958205
0.958362
0.957592
0.954902
0.949428
0.94168
0.934816
0.933729
0.93471
0.936421
0.938822
0.942149
0.946746
0.953867
0.963583
0.97004
0.971135
0.97142
0.97159
0.971277
0.969337
0.966783
0.965554
0.964269
0.962075
0.959622
0.958672
0.958223
0.957891
0.957632
0.957466
0.957948
0.960356
0.965214
0.972067
0.978947
0.984001
0.987601
0.990474
0.992541
0.993614
0.99449
0.996187
0.998723
1.00168
1.00458
1.00701
1.00899
1.01066
1.01346
1.01712
1.02043
1.02334
1.02703
1.03316
1.04294
1.05306
1.05774
1.05895
1.05957
1.05964
1.06083
1.06415
1.06886
1.07489
1.08274
1.08965
1.09343
1.0954
1.09659
1.09751
1.09893
1.10247
1.10988
1.11687
1.11952
1.12097
1.12287
1.12471
1.12584
1.12674
1.12803
1.13039
1.13593
1.1487
1.16958
1.1883
1.19553
1.19688
1.1971
1.19695
1.19455
1.18775
1.18278
1.18228
1.18317
1.18527
1.18871
1.19619
1.21273
1.23454
1.24626
1.24907
1.25069
1.2528
1.25622
1.26113
1.26482
1.2662
1.26712
1.26811
1.26877
1.26864
1.26775
1.26802
1.26976
1.27471
1.28623
1.30237
1.3105
1.31171
1.31187
1.31035
1.30916
1.31008
1.31238
1.31488
1.3182
1.32337
1.32972
1.33481
1.33849
1.34268
1.34876
1.35494
1.35741
1.35823
1.35873
1.35882
1.35774
1.35635
1.35658
1.3572
1.35792
1.35924
1.36332
1.37458
1.39278
1.40296
1.40443
1.40493
1.4053
1.40345
1.39024
1.36338
1.34896
1.34843
1.34919
1.35016
1.35161
1.3542
1.36046
1.37607
1.4054
1.42935
1.43393
1.43434
1.43467
1.43453
1.42971
1.4098
1.37587
1.35993
1.35933
1.36026
1.36317
1.37039
1.38019
1.38392
1.38427
1.38445
1.38452
1.3837
1.38252
1.38261
1.38316
1.38415
1.38556
1.38697
1.38819
1.38877
0.956234
0.95033
0.949317
0.949222
0.949286
0.950271
0.953159
0.958527
0.966137
0.97087
0.971718
0.971926
0.970989
0.967657
0.962836
0.959307
0.958483
0.958011
0.957597
0.957343
0.956931
0.956269
0.955868
0.956443
0.958317
0.959567
0.96034
0.961628
0.963064
0.962311
0.958936
0.954695
0.951962
0.950682
0.949641
0.94949
0.951834
0.959305
0.97457
1.00119
1.02118
1.02379
1.02394
1.02238
1.01899
1.01406
1.00472
0.987121
0.953421
0.913653
0.904093
0.902603
0.906313
0.912543
0.91348
0.912689
0.910534
0.907334
0.906161
0.90762
0.910625
0.914325
0.918936
0.92514
0.935177
0.950454
0.962105
0.96395
0.963416
0.961161
0.956496
0.949609
0.940433
0.935024
0.935219
0.93684
0.939313
0.942522
0.946562
0.951556
0.958325
0.967046
0.973147
0.974273
0.974575
0.97481
0.974789
0.974281
0.97324
0.971373
0.968873
0.966402
0.964058
0.962516
0.961802
0.96124
0.960796
0.960818
0.962972
0.969165
0.978326
0.987242
0.993648
0.997413
0.999052
0.999478
0.999327
0.997731
0.997173
0.99833
1.00062
1.00345
1.0061
1.00761
1.00883
1.01124
1.01484
1.01934
1.02548
1.03369
1.04354
1.05348
1.05988
1.06119
1.06042
1.05814
1.05718
1.05858
1.06247
1.06788
1.07616
1.08705
1.09647
1.10025
1.10102
1.10121
1.10128
1.10149
1.10295
1.10791
1.11608
1.12092
1.12219
1.1226
1.12266
1.12348
1.12497
1.12752
1.1317
1.13978
1.15522
1.17674
1.19272
1.19714
1.19796
1.19829
1.19795
1.19434
1.18826
1.18581
1.18554
1.18635
1.18813
1.19109
1.19722
1.21053
1.2303
1.2445
1.24959
1.25176
1.25392
1.25705
1.26187
1.26643
1.26764
1.26799
1.26783
1.26743
1.26755
1.26802
1.26894
1.27047
1.27425
1.28384
1.29882
1.30835
1.31092
1.31199
1.31232
1.31076
1.30993
1.31089
1.31377
1.31928
1.32681
1.33297
1.33593
1.3376
1.33971
1.34396
1.35114
1.35636
1.35766
1.35827
1.35857
1.35796
1.35637
1.35613
1.3567
1.35742
1.35839
1.36071
1.36773
1.38355
1.40042
1.40538
1.40599
1.4064
1.40627
1.40076
1.3798
1.35401
1.34732
1.34774
1.34861
1.34971
1.35133
1.35507
1.36484
1.38748
1.41926
1.4338
1.43515
1.43543
1.4356
1.43412
1.42383
1.39517
1.36507
1.35871
1.35909
1.36078
1.36533
1.37459
1.38275
1.38444
1.38469
1.38488
1.3848
1.38344
1.38265
1.38294
1.38353
1.38447
1.38578
1.3867
1.38738
1.3883
0.964747
0.957695
0.955409
0.954899
0.954692
0.95497
0.957019
0.961966
0.969394
0.97504
0.976458
0.976726
0.976374
0.97407
0.968786
0.963201
0.961721
0.961234
0.960996
0.961127
0.960886
0.960414
0.960166
0.960672
0.963001
0.965302
0.966846
0.968191
0.969213
0.968759
0.965374
0.959624
0.955899
0.954692
0.953521
0.953202
0.95598
0.964194
0.979094
1.00475
1.02184
1.02389
1.02408
1.02185
1.01686
1.01218
1.00607
0.992511
0.965558
0.926708
0.911096
0.909246
0.911848
0.914319
0.914471
0.912968
0.909936
0.906913
0.906089
0.907626
0.9112
0.915855
0.921501
0.929812
0.943964
0.959863
0.965739
0.965903
0.965053
0.962093
0.956334
0.948027
0.939592
0.936599
0.93749
0.939783
0.942968
0.947195
0.952057
0.956971
0.962547
0.969848
0.976221
0.97784
0.978224
0.978659
0.979052
0.979253
0.97834
0.975287
0.972078
0.969975
0.968248
0.966774
0.965807
0.965098
0.964833
0.966442
0.973296
0.985253
0.99683
1.00349
1.0063
1.00713
1.007
1.0052
1.00173
0.99852
0.998068
0.999075
1.00103
1.00328
1.00519
1.0069
1.00911
1.0127
1.01874
1.02728
1.03822
1.0508
1.06022
1.06321
1.06374
1.06391
1.06217
1.05935
1.05915
1.0608
1.06645
1.07655
1.08769
1.09551
1.10019
1.10271
1.10392
1.10492
1.10612
1.10801
1.1117
1.11751
1.12184
1.12298
1.12315
1.12305
1.12454
1.12562
1.12706
1.1307
1.14
1.15864
1.18222
1.19597
1.19887
1.19939
1.1995
1.19841
1.19372
1.1893
1.18887
1.189
1.18978
1.19105
1.19344
1.19881
1.21053
1.22938
1.24482
1.25041
1.25285
1.25499
1.25722
1.25972
1.26304
1.26699
1.26881
1.26935
1.26944
1.26918
1.26937
1.27016
1.27163
1.27489
1.28261
1.29525
1.30632
1.31004
1.31035
1.31041
1.3104
1.31105
1.31256
1.31542
1.32108
1.32854
1.33315
1.3349
1.33623
1.3378
1.34047
1.3461
1.35376
1.35722
1.35802
1.35855
1.35856
1.35701
1.35581
1.35624
1.35699
1.35785
1.35928
1.36323
1.37413
1.39281
1.4047
1.40655
1.40699
1.40728
1.40596
1.39476
1.36803
1.34877
1.3468
1.34747
1.34835
1.34951
1.35181
1.35764
1.37235
1.40156
1.42855
1.4348
1.43526
1.43553
1.43549
1.43163
1.41418
1.38035
1.35995
1.3583
1.35926
1.36219
1.36902
1.3792
1.38425
1.3849
1.38516
1.38535
1.38492
1.38314
1.38255
1.38284
1.38349
1.38457
1.38585
1.38638
1.38677
1.38775
0.971706
0.963717
0.960187
0.959402
0.959012
0.95891
0.960091
0.96495
0.973005
0.979537
0.982198
0.982857
0.98306
0.982479
0.978498
0.970125
0.965559
0.964886
0.964567
0.964561
0.96452
0.964293
0.964495
0.966229
0.969574
0.972254
0.974122
0.975552
0.975879
0.974662
0.970173
0.962222
0.958178
0.958014
0.957386
0.957235
0.961081
0.970695
0.98623
1.00947
1.02178
1.02349
1.02361
1.02036
1.01496
1.0115
1.00819
0.999609
0.97797
0.943912
0.920543
0.916853
0.917079
0.916431
0.913078
0.909914
0.907681
0.905189
0.904486
0.90696
0.912232
0.917945
0.924791
0.936066
0.953429
0.965103
0.966867
0.966782
0.965704
0.962411
0.956611
0.948593
0.941257
0.939966
0.941168
0.943832
0.947684
0.952586
0.957494
0.961661
0.966092
0.972415
0.979346
0.98202
0.982531
0.982999
0.98334
0.9832
0.981103
0.977436
0.974903
0.973583
0.972565
0.971726
0.970989
0.970599
0.972234
0.980169
0.993774
1.00549
1.01119
1.01315
1.01345
1.0128
1.01035
1.0065
1.00184
0.999092
0.999054
1.00006
1.00197
1.00435
1.0066
1.00873
1.0117
1.01776
1.02967
1.04463
1.05582
1.06184
1.06467
1.06555
1.06541
1.06325
1.06183
1.06204
1.06361
1.06864
1.07845
1.08794
1.09342
1.09726
1.10001
1.10268
1.10588
1.10975
1.11457
1.11994
1.12453
1.12657
1.12655
1.12508
1.12244
1.12244
1.12442
1.12788
1.13314
1.14354
1.16295
1.18499
1.19597
1.19858
1.19951
1.19996
1.19907
1.19441
1.1914
1.19151
1.19221
1.19296
1.19408
1.19615
1.20101
1.21239
1.2311
1.24653
1.25145
1.25291
1.25436
1.2561
1.25807
1.2603
1.26298
1.26666
1.26934
1.27018
1.27082
1.27166
1.27295
1.27509
1.27868
1.28446
1.29202
1.29948
1.30651
1.31005
1.31062
1.31086
1.31144
1.31289
1.31612
1.32278
1.33037
1.3332
1.33409
1.33481
1.33571
1.33755
1.34154
1.34909
1.35596
1.35791
1.35855
1.3589
1.35842
1.35631
1.35597
1.35668
1.35753
1.3586
1.36079
1.36714
1.38209
1.40006
1.40644
1.4072
1.4076
1.40766
1.40366
1.38575
1.35792
1.34673
1.34657
1.34721
1.34813
1.34974
1.35331
1.36213
1.38281
1.41487
1.43256
1.43469
1.43503
1.43528
1.43452
1.42654
1.40102
1.36862
1.3588
1.35892
1.36061
1.36501
1.37396
1.38259
1.3848
1.38511
1.38535
1.38542
1.38442
1.38259
1.38235
1.38269
1.38339
1.38468
1.38593
1.38624
1.38641
1.3872
0.974302
0.96609
0.962851
0.962236
0.96182
0.961615
0.962887
0.968465
0.976785
0.982861
0.986579
0.98895
0.989804
0.989809
0.987778
0.980383
0.97169
0.969102
0.968554
0.968185
0.967813
0.96775
0.969118
0.973256
0.977562
0.97921
0.98035
0.981779
0.981718
0.978933
0.971844
0.962846
0.960142
0.960768
0.961831
0.963147
0.967571
0.977416
0.994977
1.01429
1.0207
1.02209
1.02134
1.01727
1.01495
1.01357
1.01236
1.00814
0.992534
0.962417
0.935908
0.924732
0.919527
0.914031
0.908191
0.904706
0.902489
0.899911
0.899881
0.904552
0.913346
0.921587
0.930533
0.945222
0.962449
0.968445
0.968765
0.968597
0.967236
0.963703
0.957975
0.950865
0.945501
0.944813
0.945775
0.948227
0.952237
0.957141
0.961521
0.965132
0.969347
0.975883
0.983542
0.987025
0.987599
0.987856
0.987817
0.98628
0.982534
0.979502
0.978603
0.978164
0.97773
0.97743
0.97759
0.980303
0.989252
1.00421
1.0144
1.01667
1.01685
1.01667
1.01587
1.01419
1.01104
1.00542
1.0012
1.00048
1.00052
1.0013
1.00336
1.00609
1.00899
1.01264
1.01913
1.03178
1.04924
1.0606
1.06367
1.06446
1.06532
1.06629
1.06625
1.0653
1.06532
1.06705
1.07244
1.08158
1.08826
1.09139
1.09418
1.09736
1.10138
1.10605
1.11227
1.12032
1.12805
1.13252
1.13345
1.13252
1.13001
1.1258
1.12327
1.12339
1.12517
1.13052
1.14258
1.16426
1.18763
1.19741
1.19893
1.19935
1.19904
1.1963
1.19313
1.19233
1.19307
1.1945
1.19575
1.19697
1.19892
1.20331
1.21381
1.23246
1.2489
1.25327
1.2536
1.25409
1.25523
1.2563
1.25715
1.259
1.26304
1.2683
1.27188
1.27374
1.27541
1.27753
1.28009
1.28317
1.28691
1.29097
1.29536
1.29997
1.30424
1.30793
1.31054
1.31289
1.31576
1.31919
1.32412
1.33003
1.33262
1.33344
1.33392
1.33464
1.33588
1.33824
1.3438
1.35256
1.35747
1.35855
1.35908
1.3592
1.35769
1.35609
1.35651
1.35732
1.35826
1.35971
1.36322
1.37284
1.3909
1.40465
1.40728
1.40777
1.40811
1.40737
1.39894
1.3749
1.35112
1.3462
1.3465
1.34723
1.34831
1.35046
1.35564
1.3684
1.3952
1.42443
1.43347
1.43431
1.43469
1.43488
1.4326
1.41874
1.3868
1.36245
1.35934
1.3601
1.36263
1.3688
1.37851
1.38371
1.3845
1.38479
1.38501
1.38493
1.38342
1.38205
1.38212
1.38258
1.38343
1.38492
1.38608
1.38631
1.38633
1.38668
0.973648
0.966298
0.964452
0.964239
0.963995
0.964055
0.966457
0.973191
0.981524
0.987064
0.990425
0.992933
0.994364
0.994639
0.993587
0.988271
0.979022
0.974202
0.973044
0.972339
0.971709
0.971772
0.974347
0.980936
0.985128
0.98493
0.985075
0.985985
0.984845
0.980002
0.971544
0.963777
0.963006
0.964438
0.967478
0.97104
0.975884
0.983503
1.00031
1.01767
1.02096
1.02146
1.01926
1.01707
1.01705
1.01843
1.019
1.01792
1.00879
0.983213
0.951765
0.930718
0.916493
0.904225
0.901737
0.903688
0.904004
0.901571
0.900464
0.904888
0.91591
0.927645
0.940488
0.957581
0.969622
0.972076
0.97235
0.97204
0.970205
0.966232
0.960508
0.953966
0.949587
0.948995
0.949511
0.951386
0.955088
0.959739
0.963991
0.968148
0.973791
0.982086
0.990267
0.993329
0.993671
0.993611
0.992501
0.988923
0.984198
0.983215
0.98387
0.984242
0.984406
0.985069
0.988174
0.997495
1.01203
1.01982
1.02091
1.02085
1.02037
1.01907
1.01654
1.01285
1.00809
1.00421
1.00305
1.00299
1.00305
1.00391
1.00638
1.01006
1.01471
1.02213
1.03528
1.05179
1.06108
1.0632
1.06423
1.06561
1.06744
1.0686
1.06921
1.07003
1.0721
1.07739
1.08418
1.08795
1.08993
1.09161
1.09414
1.09875
1.10577
1.11584
1.12783
1.13564
1.13742
1.13736
1.13626
1.13393
1.12954
1.12722
1.1272
1.12837
1.13249
1.14322
1.16278
1.18394
1.19463
1.19812
1.1991
1.19914
1.19666
1.19423
1.19387
1.19413
1.19546
1.19733
1.1994
1.20216
1.20723
1.21773
1.23449
1.2486
1.25309
1.2542
1.25446
1.25407
1.25472
1.25623
1.25815
1.2611
1.2665
1.27352
1.27812
1.28036
1.28219
1.2837
1.28502
1.28651
1.28868
1.29208
1.29562
1.30034
1.30576
1.30988
1.31375
1.31854
1.323
1.32612
1.32887
1.33168
1.33266
1.33267
1.33309
1.33402
1.33567
1.33946
1.34754
1.35579
1.35838
1.3591
1.35946
1.35888
1.35655
1.35636
1.35706
1.35786
1.35894
1.36105
1.36676
1.38055
1.39925
1.40725
1.40821
1.40866
1.40887
1.40621
1.39195
1.36422
1.3478
1.34643
1.34693
1.34783
1.34926
1.3523
1.35965
1.37735
1.40813
1.42954
1.43311
1.43363
1.43404
1.43397
1.42895
1.40787
1.37456
1.36082
1.36049
1.36166
1.36524
1.3731
1.38132
1.38365
1.38409
1.38442
1.38463
1.38413
1.38219
1.38162
1.3819
1.38251
1.38369
1.38537
1.38614
1.38629
1.38634
1.38633
0.972625
0.967279
0.966865
0.96705
0.967447
0.968631
0.972706
0.980696
0.988606
0.9928
0.994867
0.996165
0.99701
0.997383
0.996303
0.991057
0.983447
0.979847
0.978864
0.978198
0.977677
0.978003
0.981532
0.988428
0.990603
0.989403
0.988543
0.988047
0.985495
0.979366
0.970558
0.966607
0.967331
0.969909
0.974518
0.980002
0.984511
0.988303
1.00049
1.01848
1.02136
1.02087
1.0196
1.02014
1.0217
1.02618
1.02906
1.02826
1.02093
0.996731
0.959586
0.929895
0.908392
0.896037
0.895813
0.900164
0.903573
0.902544
0.902001
0.907499
0.920748
0.936966
0.955169
0.970207
0.974836
0.976229
0.977016
0.976806
0.974779
0.969746
0.962077
0.954522
0.950926
0.950745
0.951254
0.953033
0.956709
0.961342
0.965995
0.971626
0.980218
0.991216
0.998711
1.0004
1.00041
0.999846
0.997554
0.992444
0.988665
0.98907
0.990401
0.991733
0.993173
0.995825
1.00227
1.01339
1.0214
1.02309
1.02265
1.02212
1.02169
1.02117
1.01988
1.0164
1.01052
1.00678
1.00662
1.00707
1.00788
1.00964
1.01333
1.01912
1.02721
1.03884
1.0529
1.06143
1.06283
1.06288
1.06261
1.06433
1.06827
1.07207
1.07521
1.07906
1.08433
1.08828
1.08898
1.08906
1.08966
1.09166
1.09539
1.10243
1.11525
1.13132
1.14079
1.14274
1.14283
1.14079
1.13494
1.13052
1.12949
1.12966
1.1311
1.13588
1.14724
1.16474
1.18088
1.19023
1.19512
1.19638
1.19592
1.19338
1.19308
1.19438
1.19563
1.19683
1.19852
1.20083
1.20399
1.20947
1.22047
1.23738
1.25015
1.25338
1.25408
1.25403
1.25247
1.25222
1.25314
1.25513
1.25876
1.26534
1.2748
1.28208
1.28452
1.28545
1.28522
1.28463
1.28533
1.28663
1.28834
1.29053
1.29552
1.303
1.31068
1.31644
1.3216
1.32607
1.32745
1.32792
1.3293
1.3313
1.33232
1.3332
1.33412
1.33524
1.33731
1.34273
1.35214
1.35779
1.35892
1.35946
1.35951
1.3576
1.35643
1.35693
1.35759
1.35841
1.35978
1.36309
1.37205
1.38982
1.4054
1.40894
1.40951
1.40994
1.4097
1.40379
1.38302
1.35593
1.34699
1.34693
1.34747
1.34833
1.35
1.3542
1.36488
1.3888
1.41931
1.43139
1.43268
1.43317
1.43353
1.43266
1.42302
1.39464
1.3666
1.36115
1.36154
1.36338
1.36842
1.37722
1.38243
1.38322
1.38358
1.38392
1.38401
1.38279
1.38131
1.38136
1.38178
1.38265
1.38432
1.38579
1.38613
1.38627
1.38627
1.38595
0.975864
0.972319
0.972433
0.972906
0.973644
0.975695
0.981662
0.990989
0.997095
0.998968
0.999666
1.00009
1.00009
0.998905
0.995754
0.990276
0.985781
0.984925
0.98455
0.984173
0.984157
0.985546
0.990218
0.995094
0.995166
0.993479
0.991322
0.989254
0.985121
0.977373
0.971556
0.971692
0.973433
0.976589
0.982443
0.988398
0.990702
0.991503
0.99825
1.01634
1.02184
1.02187
1.02356
1.02592
1.03003
1.03539
1.03556
1.03263
1.02276
0.998117
0.958623
0.921728
0.900357
0.8953
0.895782
0.898627
0.904625
0.907347
0.909214
0.915833
0.930537
0.950873
0.969868
0.977908
0.979404
0.980345
0.981013
0.980711
0.977873
0.971675
0.962494
0.953485
0.951119
0.951378
0.952466
0.954929
0.95905
0.963996
0.969505
0.977325
0.989328
1.00125
1.00599
1.00646
1.00626
1.00528
1.00247
0.997372
0.99481
0.995408
0.99675
0.998437
1.00106
1.00547
1.01207
1.01867
1.02256
1.02347
1.02374
1.02358
1.02334
1.02314
1.02236
1.0199
1.0156
1.013
1.01323
1.01427
1.01613
1.01957
1.0251
1.03201
1.04063
1.05162
1.06039
1.06333
1.06388
1.06364
1.06374
1.06573
1.07061
1.07766
1.08505
1.08991
1.09143
1.09161
1.09095
1.09006
1.09049
1.0934
1.10042
1.11366
1.13122
1.14137
1.14326
1.14383
1.14378
1.14159
1.13637
1.13308
1.13305
1.13475
1.14021
1.152
1.16843
1.18041
1.18615
1.1894
1.1904
1.19085
1.19186
1.19372
1.19539
1.1974
1.19944
1.20128
1.20335
1.20643
1.21201
1.22282
1.2384
1.24919
1.25252
1.25389
1.25407
1.25281
1.25277
1.25379
1.25538
1.25835
1.26519
1.27611
1.28464
1.28753
1.28831
1.28811
1.28601
1.28431
1.2839
1.28406
1.28627
1.29189
1.30126
1.3127
1.32093
1.32529
1.32753
1.32813
1.32826
1.32842
1.32906
1.32975
1.33119
1.33306
1.33491
1.33695
1.34032
1.34704
1.35546
1.35883
1.35943
1.35976
1.35884
1.35675
1.35698
1.35763
1.3583
1.35927
1.36122
1.36649
1.37946
1.39887
1.40886
1.41027
1.41082
1.41118
1.40978
1.39892
1.37239
1.35062
1.34722
1.34752
1.34812
1.34903
1.3512
1.35717
1.37255
1.40208
1.42646
1.43152
1.43224
1.43278
1.43303
1.43021
1.41372
1.38109
1.36312
1.36193
1.36268
1.36545
1.37229
1.38034
1.38263
1.38295
1.38325
1.38349
1.38304
1.38127
1.38097
1.38132
1.3819
1.38318
1.38521
1.3861
1.38621
1.38629
1.38606
1.38552
0.980584
0.979171
0.97953
0.980419
0.981864
0.985154
0.992805
1.00169
1.00487
1.00521
1.00526
1.00493
1.00351
0.999535
0.993575
0.989781
0.98909
0.989018
0.989083
0.989187
0.990327
0.994256
0.999925
1.00178
1.00116
0.998744
0.994245
0.989442
0.983442
0.977996
0.977361
0.978688
0.981092
0.985141
0.991203
0.994854
0.994215
0.993829
0.997144
1.01171
1.02389
1.02719
1.02959
1.03229
1.03621
1.03814
1.03673
1.03226
1.02153
0.997182
0.955012
0.910996
0.894376
0.893869
0.894952
0.898379
0.905263
0.912775
0.919709
0.929772
0.946507
0.965814
0.977544
0.980761
0.981747
0.982257
0.982228
0.981228
0.977895
0.971398
0.962391
0.954713
0.953022
0.95347
0.954926
0.95803
0.963224
0.9697
0.976946
0.98607
0.997436
1.00656
1.00952
1.00981
1.00961
1.00854
1.00582
1.00171
0.999915
1.00043
1.00159
1.00329
1.00637
1.01127
1.01612
1.01901
1.02032
1.02196
1.02525
1.02799
1.02843
1.02836
1.02789
1.02688
1.02497
1.02308
1.02337
1.02489
1.02759
1.03147
1.03573
1.03985
1.04584
1.05586
1.06374
1.06509
1.06542
1.06592
1.06717
1.0704
1.07758
1.08751
1.09246
1.09335
1.09345
1.09287
1.09192
1.09205
1.09356
1.09932
1.11278
1.12956
1.1398
1.14319
1.14399
1.14335
1.14065
1.13823
1.13773
1.13819
1.14082
1.14786
1.15927
1.17049
1.17745
1.18245
1.18499
1.18522
1.18649
1.18988
1.19329
1.19674
1.20044
1.2035
1.20556
1.20723
1.20946
1.21393
1.22369
1.239
1.24956
1.252
1.25277
1.25246
1.25087
1.25071
1.25185
1.25415
1.25855
1.26737
1.27938
1.28684
1.28882
1.28951
1.28964
1.28785
1.28341
1.28137
1.28167
1.28417
1.28944
1.30034
1.31504
1.32503
1.32838
1.32915
1.32924
1.3289
1.32774
1.32726
1.32767
1.32971
1.33225
1.33477
1.33733
1.34012
1.34401
1.35031
1.35705
1.3594
1.35981
1.3599
1.35828
1.35692
1.35759
1.35844
1.35934
1.36069
1.36372
1.3717
1.38843
1.40557
1.41048
1.41126
1.41181
1.41195
1.40812
1.39065
1.36158
1.34803
1.34739
1.34787
1.34858
1.34979
1.35296
1.36183
1.38344
1.41497
1.42977
1.43144
1.43199
1.43239
1.43209
1.42523
1.40053
1.37044
1.36254
1.3627
1.36415
1.36839
1.37656
1.3821
1.38282
1.38304
1.38326
1.38311
1.38139
1.38024
1.38059
1.38122
1.38213
1.38404
1.38594
1.38634
1.3864
1.38633
1.38569
1.38522
0.985193
0.98485
0.985256
0.9865
0.989036
0.99419
1.00281
1.00906
1.01005
1.01009
1.0099
1.00871
1.0055
1.00019
0.994559
0.992451
0.992161
0.992102
0.992743
0.994232
0.99757
1.00337
1.00752
1.00801
1.0075
1.00498
0.998941
0.990936
0.984857
0.983533
0.984423
0.986375
0.988991
0.993724
0.999728
1.00016
0.997946
0.997236
0.999493
1.00984
1.02263
1.03204
1.03542
1.03661
1.03779
1.03825
1.03661
1.031
1.01871
0.99338
0.947355
0.902445
0.892861
0.893061
0.895516
0.900733
0.908727
0.918623
0.929462
0.94377
0.96233
0.975268
0.979592
0.981244
0.982286
0.982944
0.982751
0.980674
0.976139
0.968915
0.960763
0.957089
0.957067
0.957927
0.959843
0.963634
0.97016
0.978629
0.986758
0.993709
1.00014
1.00671
1.01031
1.01079
1.01076
1.01008
1.00815
1.00526
1.00426
1.00499
1.00665
1.00908
1.01257
1.01671
1.01989
1.02157
1.02266
1.02477
1.03022
1.03716
1.03968
1.03982
1.03955
1.03822
1.0349
1.03141
1.03145
1.03292
1.03529
1.03791
1.04036
1.04317
1.04855
1.05827
1.06649
1.06872
1.0699
1.07139
1.07353
1.07815
1.08689
1.09238
1.09384
1.09448
1.09425
1.09292
1.09293
1.09454
1.10024
1.11358
1.12965
1.137
1.14025
1.14294
1.14452
1.14444
1.1422
1.14114
1.14204
1.14578
1.15447
1.16622
1.17413
1.17765
1.17915
1.17899
1.17974
1.18297
1.18807
1.19343
1.19937
1.20501
1.20881
1.21074
1.21198
1.21348
1.21673
1.22469
1.23808
1.24798
1.25099
1.25211
1.25209
1.25139
1.25195
1.25313
1.25483
1.25894
1.26883
1.28207
1.28924
1.29065
1.29082
1.29039
1.28715
1.28093
1.27879
1.27975
1.28279
1.28912
1.30187
1.31792
1.32706
1.32929
1.32978
1.33009
1.32954
1.32674
1.3252
1.32584
1.32803
1.33108
1.33467
1.33805
1.34086
1.34344
1.34675
1.35219
1.35799
1.35985
1.36024
1.3603
1.35885
1.35808
1.35872
1.35961
1.36072
1.36264
1.36725
1.37846
1.39714
1.40925
1.41135
1.41199
1.41247
1.41187
1.4038
1.37918
1.35309
1.34711
1.34733
1.34797
1.34883
1.3506
1.3556
1.36919
1.39761
1.42476
1.4311
1.4317
1.43217
1.43248
1.43039
1.41649
1.3853
1.36472
1.36286
1.36362
1.36621
1.37242
1.38036
1.38301
1.38325
1.38341
1.38342
1.3821
1.37976
1.37961
1.38025
1.38109
1.38241
1.38469
1.38616
1.38635
1.38638
1.38621
1.38543
1.38511
0.9903
0.990167
0.990474
0.991906
0.995372
1.00201
1.01018
1.01319
1.01315
1.01296
1.01235
1.01016
1.00564
1.00041
0.997296
0.996513
0.996085
0.995975
0.997429
1.00094
1.00578
1.00981
1.01128
1.01152
1.01131
1.0091
1.0037
0.996073
0.992659
0.992728
0.993538
0.995016
0.997309
1.00152
1.00636
1.00638
1.00372
1.00204
1.00324
1.01006
1.0205
1.03219
1.03677
1.03725
1.03756
1.03748
1.03487
1.02785
1.01404
0.986464
0.93657
0.899134
0.894748
0.895461
0.900022
0.906772
0.914414
0.923407
0.934017
0.949323
0.968691
0.979334
0.980603
0.980678
0.981299
0.981904
0.982056
0.980277
0.97405
0.966679
0.962601
0.961887
0.962601
0.964873
0.967962
0.972456
0.979282
0.987248
0.993037
0.996722
1.0007
1.00583
1.01024
1.01138
1.01156
1.01166
1.01126
1.00989
1.00973
1.01124
1.01439
1.0181
1.02143
1.02382
1.02521
1.02617
1.02748
1.03095
1.03946
1.04871
1.05098
1.05079
1.04974
1.04643
1.03991
1.03551
1.03581
1.03726
1.03901
1.0407
1.04272
1.04651
1.05422
1.06539
1.07275
1.07512
1.07682
1.07891
1.08145
1.08541
1.09086
1.09343
1.09404
1.09303
1.09257
1.09312
1.09459
1.09994
1.11395
1.13178
1.1386
1.13911
1.13955
1.14114
1.14303
1.14482
1.14651
1.1492
1.15426
1.16182
1.16867
1.17244
1.17536
1.17766
1.17901
1.18053
1.18275
1.18689
1.19389
1.20257
1.20959
1.21288
1.21423
1.21524
1.21654
1.21907
1.2254
1.2374
1.24757
1.25038
1.25089
1.25049
1.2491
1.24966
1.25168
1.25495
1.26092
1.27197
1.28425
1.2894
1.29054
1.2913
1.2915
1.28863
1.28104
1.27782
1.27844
1.28082
1.28756
1.30236
1.32017
1.3282
1.32944
1.32992
1.33031
1.32928
1.32592
1.32467
1.32559
1.32798
1.33188
1.33626
1.33952
1.34156
1.34316
1.34501
1.34803
1.35366
1.35917
1.36064
1.36107
1.3612
1.36016
1.35955
1.3601
1.36107
1.3624
1.36504
1.37163
1.38607
1.40387
1.41079
1.41183
1.41243
1.41273
1.41043
1.39609
1.36668
1.3485
1.34692
1.3474
1.34814
1.34924
1.35201
1.35995
1.38004
1.41229
1.43009
1.43205
1.43245
1.43282
1.43246
1.42613
1.4032
1.37257
1.36311
1.36324
1.36484
1.36911
1.377
1.38277
1.38365
1.38381
1.3839
1.38329
1.38065
1.37882
1.3791
1.37988
1.38086
1.38245
1.38478
1.38604
1.3862
1.38623
1.38593
1.38509
1.38522
0.997043
0.99677
0.996905
0.998218
1.00219
1.0097
1.01597
1.01657
1.01613
1.01563
1.01442
1.01088
1.00592
1.00269
1.00165
1.00138
1.00118
1.00154
1.00459
1.00877
1.01146
1.01278
1.01317
1.01331
1.01323
1.01109
1.00762
1.00404
1.00213
1.0018
1.00214
1.00385
1.00673
1.00962
1.01186
1.01222
1.01006
1.00603
1.00571
1.00984
1.01786
1.02989
1.03685
1.03748
1.03778
1.03844
1.03673
1.02815
1.01127
0.980275
0.929107
0.901517
0.899856
0.902116
0.907548
0.911898
0.916418
0.92329
0.934316
0.950671
0.96947
0.978975
0.981562
0.983073
0.983445
0.983231
0.983008
0.98163
0.975032
0.968443
0.968003
0.968623
0.970304
0.972665
0.975323
0.979029
0.984356
0.990424
0.995312
0.998107
0.999848
1.00309
1.00881
1.01263
1.01351
1.01447
1.01574
1.01686
1.01841
1.02155
1.02587
1.02827
1.02918
1.02986
1.03061
1.0317
1.03373
1.03827
1.04742
1.05585
1.05704
1.05636
1.05437
1.04995
1.04282
1.03893
1.03932
1.04041
1.0415
1.04288
1.04571
1.05262
1.06576
1.07918
1.08388
1.08493
1.08567
1.0863
1.08615
1.08685
1.09036
1.09321
1.09418
1.09381
1.09397
1.09495
1.09893
1.11166
1.13072
1.14027
1.14192
1.14218
1.14192
1.14275
1.14477
1.14808
1.15343
1.16085
1.16796
1.17202
1.17363
1.17382
1.17352
1.17414
1.17714
1.18281
1.19023
1.1987
1.20632
1.21107
1.21325
1.21469
1.21602
1.21752
1.21994
1.22544
1.23625
1.24666
1.25006
1.25096
1.2513
1.24997
1.25001
1.25129
1.25396
1.26034
1.27309
1.2862
1.29072
1.29127
1.29133
1.29061
1.28647
1.27983
1.27852
1.2797
1.28269
1.28955
1.30363
1.31985
1.32721
1.32898
1.32984
1.33008
1.32832
1.32416
1.32279
1.32403
1.32768
1.33367
1.3392
1.34157
1.34234
1.34263
1.34341
1.34533
1.34897
1.35548
1.36073
1.36194
1.36242
1.36264
1.36178
1.36107
1.36157
1.36259
1.3642
1.36784
1.37692
1.39398
1.40814
1.41121
1.41178
1.41224
1.41209
1.40624
1.3845
1.35601
1.34716
1.34724
1.34798
1.3489
1.35049
1.35489
1.36723
1.39445
1.42402
1.43235
1.4329
1.43322
1.43336
1.43091
1.41759
1.38747
1.3655
1.36309
1.3639
1.36656
1.37271
1.38082
1.38394
1.38423
1.38437
1.3843
1.38282
1.37954
1.37835
1.37872
1.37951
1.38058
1.38234
1.38471
1.38585
1.386
1.38601
1.38562
1.38499
1.38538
1.00521
1.00478
1.0047
1.00554
1.00965
1.01733
1.02119
1.02082
1.02018
1.01962
1.01774
1.01272
1.00859
1.00743
1.00708
1.0071
1.00746
1.00921
1.01345
1.01516
1.0148
1.01459
1.01423
1.01377
1.01315
1.01153
1.01075
1.01071
1.00946
1.00881
1.00924
1.01181
1.0161
1.01709
1.01696
1.01711
1.01536
1.00967
1.00676
1.00858
1.01595
1.02539
1.03536
1.03969
1.04022
1.04054
1.0392
1.03123
1.01328
0.980366
0.929988
0.908655
0.908078
0.910057
0.910941
0.912066
0.914983
0.921327
0.932788
0.950558
0.969054
0.97725
0.979529
0.982597
0.985829
0.9862
0.985958
0.984475
0.978871
0.975791
0.975492
0.975161
0.975501
0.976708
0.9787
0.981865
0.986269
0.990834
0.994906
0.998466
1.00185
1.00529
1.00987
1.0151
1.01849
1.02094
1.0237
1.02687
1.03004
1.03231
1.03324
1.0323
1.03177
1.03225
1.03288
1.03366
1.03547
1.0406
1.05035
1.05808
1.05898
1.05827
1.056
1.05156
1.04603
1.04384
1.04415
1.04483
1.04582
1.04768
1.05285
1.06523
1.08333
1.09236
1.0929
1.0927
1.09246
1.09128
1.08801
1.0867
1.08864
1.09109
1.09289
1.09468
1.09653
1.10039
1.11109
1.1289
1.13967
1.14153
1.14214
1.14306
1.14477
1.14779
1.15216
1.15763
1.16316
1.16709
1.17008
1.17268
1.17386
1.1743
1.17534
1.17775
1.18331
1.19307
1.20382
1.21038
1.21214
1.21286
1.21414
1.2155
1.21706
1.21965
1.22516
1.2359
1.24704
1.25095
1.25165
1.25161
1.24978
1.24965
1.25114
1.25423
1.26078
1.27291
1.28472
1.28946
1.29112
1.29183
1.2916
1.28752
1.27995
1.27779
1.27847
1.28171
1.29024
1.30608
1.32164
1.32698
1.32779
1.32844
1.3285
1.32586
1.32139
1.32066
1.32261
1.32756
1.33565
1.34211
1.34404
1.34456
1.34407
1.34313
1.34354
1.34531
1.35003
1.35794
1.3625
1.36345
1.36398
1.36417
1.36291
1.36207
1.36258
1.36368
1.36576
1.37098
1.38328
1.40114
1.41017
1.4115
1.41199
1.41229
1.41078
1.39895
1.37066
1.34949
1.34696
1.34757
1.34856
1.3498
1.35237
1.35945
1.37786
1.4099
1.4305
1.43318
1.43347
1.43364
1.43296
1.42653
1.40479
1.37404
1.36328
1.36333
1.36483
1.36878
1.3764
1.383
1.38441
1.38461
1.38474
1.38445
1.38219
1.37882
1.37812
1.37851
1.37927
1.38035
1.38217
1.38456
1.38548
1.38568
1.38574
1.38564
1.38562
1.38636
1.01167
1.01141
1.01115
1.01185
1.01644
1.02336
1.02503
1.02431
1.02365
1.02286
1.02017
1.01529
1.01347
1.01349
1.0136
1.01405
1.01525
1.01867
1.02139
1.02045
1.01886
1.01747
1.01609
1.0146
1.01345
1.01347
1.01423
1.01514
1.01474
1.01427
1.01456
1.01761
1.02232
1.02241
1.02115
1.01966
1.01767
1.01375
1.0093
1.00835
1.01422
1.02272
1.03363
1.04291
1.04459
1.04498
1.04415
1.03742
1.01963
0.98685
0.942937
0.918669
0.913074
0.911135
0.910677
0.911278
0.91337
0.918582
0.930058
0.948878
0.965752
0.973829
0.979809
0.986563
0.99214
0.993147
0.992981
0.991355
0.987363
0.983472
0.979875
0.976943
0.976587
0.977505
0.979466
0.982547
0.986705
0.990865
0.993617
0.996386
1.00111
1.00804
1.01583
1.02333
1.02899
1.03193
1.0337
1.03578
1.03754
1.03832
1.03647
1.03271
1.03218
1.03257
1.03318
1.0341
1.03586
1.04047
1.0518
1.05989
1.0607
1.06049
1.05896
1.05469
1.05087
1.05115
1.05209
1.05334
1.05557
1.05995
1.06776
1.08013
1.09317
1.09725
1.09663
1.09559
1.09455
1.09282
1.08936
1.08846
1.09009
1.09191
1.09395
1.09671
1.10136
1.11112
1.1265
1.13841
1.14223
1.14349
1.14468
1.14676
1.15074
1.1563
1.16147
1.16474
1.16696
1.16869
1.1693
1.16978
1.17098
1.17394
1.17899
1.18706
1.19819
1.20806
1.21228
1.21307
1.21329
1.21307
1.21387
1.21577
1.21862
1.22408
1.23514
1.24776
1.25275
1.25362
1.2537
1.25183
1.25042
1.25105
1.25365
1.26024
1.2731
1.28527
1.28906
1.28987
1.29022
1.28935
1.28488
1.28057
1.28045
1.28159
1.28518
1.29393
1.30817
1.32041
1.32549
1.3273
1.32802
1.32745
1.32302
1.31794
1.31753
1.32005
1.32671
1.33737
1.34511
1.34704
1.34755
1.34722
1.3442
1.34227
1.34268
1.34521
1.35258
1.3612
1.3641
1.36484
1.36534
1.3652
1.36309
1.36244
1.36306
1.36443
1.36746
1.37526
1.39114
1.40667
1.4109
1.41156
1.41205
1.41207
1.4074
1.38781
1.35851
1.34727
1.34715
1.34799
1.34903
1.35062
1.35462
1.36566
1.39108
1.42207
1.43275
1.43353
1.43379
1.43386
1.43156
1.41906
1.38981
1.36612
1.36293