/*--------------------------------*- C++ -*----------------------------------*\
  =========                 |
  \\      /  F ield         | OpenFOAM: The Open Source CFD Toolbox
   \\    /   O peration     | Website:  https://openfoam.org
    \\  /    A nd           | Version:  7
     \\/     M anipulation  |
\*---------------------------------------------------------------------------*/
FoamFile
{
    version     2.0;
    format      ascii;
    class       volScalarField;
    location    "3.9";
    object      rho;
}
// * * * * * * * * * * * * * * * * * * * * * * * * * * * * * * * * * * * * * //

dimensions      [1 -3 0 0 0 0 0];

internalField   nonuniform List<scalar> 
4128
(
0.249364
0.320982
0.393228
0.448225
0.505343
0.567527
0.615142
0.664846
0.72349
0.765611
0.794749
0.820424
0.845484
0.857421
0.874897
0.895899
0.906107
0.909874
0.91685
0.933664
0.952406
0.960687
0.971012
0.985537
0.994648
1.00309
1.01667
1.03764
1.04859
1.05049
1.05041
1.04878
1.04977
1.05341
1.06264
1.08127
1.10108
1.10748
1.10792
1.10598
1.10103
1.09912
1.10177
1.10791
1.11636
1.12369
1.12592
1.12638
1.12774
1.13081
1.13459
1.13863
2.1382
2.86985
2.96236
3.02077
3.0566
3.08472
3.11353
3.14108
3.16311
3.18085
3.19744
3.21074
3.21911
3.22652
3.23965
3.25727
3.26943
3.26977
3.26367
3.2611
3.27003
3.28608
3.29691
3.2978
3.29439
3.29305
3.29695
3.30112
3.29956
3.29191
3.28113
3.27172
3.26561
3.26229
3.25984
3.25773
0.317074
0.318896
0.327207
0.354962
0.389466
0.428208
0.48816
0.545659
0.617095
0.681561
0.721084
0.757374
0.807562
0.859216
0.881808
0.897738
0.921084
0.931695
0.94067
0.952222
0.968456
0.978279
0.98204
0.992864
1.00628
1.02002
1.03353
1.05095
1.06169
1.06347
1.06361
1.06347
1.06572
1.07018
1.0778
1.09215
1.10858
1.11676
1.11879
1.11847
1.11688
1.1132
1.11341
1.1171
1.12275
1.13006
1.13639
1.13971
1.14227
1.14445
1.14503
1.14251
2.05097
2.85735
2.96558
3.02833
3.06837
3.09589
3.11951
3.14261
3.16466
3.18458
3.20204
3.21488
3.22221
3.22806
3.23994
3.25725
3.27064
3.27355
3.26859
3.26496
3.27145
3.28578
3.2969
3.29907
3.29643
3.29464
3.29733
3.30094
3.3001
3.29354
3.28283
3.27206
3.26455
3.26102
3.25993
3.25965
0.427549
0.409326
0.418913
0.425156
0.437714
0.463242
0.492696
0.517864
0.540746
0.589621
0.649128
0.6993
0.754682
0.832234
0.879894
0.911608
0.94768
0.978568
0.997154
1.00772
1.02158
1.02603
1.02745
1.04043
1.06096
1.08133
1.09485
1.09995
1.10142
1.10082
1.09933
1.10031
1.10373
1.109
1.11793
1.13059
1.14235
1.14799
1.14987
1.15035
1.1501
1.14832
1.1485
1.15065
1.1551
1.16108
1.16606
1.1694
1.17258
1.17584
1.17704
1.17508
1.8972
2.87615
3.00128
3.05416
3.09685
3.12547
3.14243
3.15535
3.1718
3.19289
3.21287
3.2262
3.23232
3.23579
3.2424
3.25445
3.26643
3.27196
3.27208
3.27106
3.27426
3.28344
3.29225
3.29622
3.29645
3.2962
3.29767
3.29964
3.29886
3.2937
3.28424
3.273
3.26393
3.25961
3.25923
3.26077
0.61381
0.596165
0.593713
0.571379
0.53917
0.537965
0.536204
0.535808
0.539967
0.546161
0.560399
0.582628
0.622122
0.687963
0.77665
0.850396
0.903138
0.949653
0.974396
0.991586
1.0226
1.04204
1.05388
1.07644
1.10957
1.13032
1.13265
1.13315
1.13623
1.13884
1.13883
1.14101
1.14735
1.15408
1.16343
1.1727
1.17334
1.17384
1.17578
1.17675
1.17814
1.18084
1.18356
1.1869
1.19296
1.1991
1.20091
1.20167
1.2026
1.20379
1.20531
1.20651
1.69822
2.90166
3.11602
3.13488
3.16165
3.18001
3.18876
3.19101
3.19596
3.21027
3.23003
3.2457
3.25308
3.25566
3.25815
3.26383
3.2707
3.27562
3.2786
3.28031
3.28178
3.28536
3.29008
3.29405
3.29671
3.29796
3.29864
3.29909
3.29795
3.29375
3.28596
3.2757
3.26595
3.26012
3.25899
3.26084
0.825651
0.76086
0.735929
0.719682
0.679462
0.638428
0.636269
0.631769
0.611937
0.599606
0.604295
0.615526
0.610514
0.611811
0.629884
0.672953
0.727695
0.791985
0.857087
0.910143
0.972073
1.01906
1.04117
1.06636
1.09718
1.12305
1.12717
1.12867
1.1353
1.14572
1.15566
1.16884
1.18665
1.19958
1.20366
1.20401
1.20045
1.19443
1.19457
1.19791
1.20106
1.20352
1.20635
1.21188
1.2226
1.23103
1.23384
1.23513
1.23462
1.233
1.2309
1.22803
1.44913
2.86657
3.26379
3.23994
3.24902
3.2514
3.249
3.24486
3.24398
3.25018
3.2626
3.27434
3.28001
3.28094
3.28056
3.28126
3.28238
3.28366
3.28539
3.28785
3.28988
3.29063
3.29152
3.29317
3.29578
3.29827
3.29934
3.29898
3.29739
3.29365
3.28723
3.27863
3.2695
3.26212
3.25886
3.25955
1.06431
0.975574
0.888089
0.861122
0.840395
0.791472
0.755596
0.748746
0.730092
0.693106
0.674826
0.669164
0.663529
0.6498
0.649026
0.657716
0.667707
0.677915
0.699675
0.735084
0.79028
0.869023
0.938041
0.990008
1.0386
1.07887
1.10124
1.11184
1.12337
1.13721
1.15028
1.16616
1.18572
1.20048
1.20453
1.20518
1.2025
1.19947
1.20125
1.20673
1.21359
1.21777
1.2211
1.22753
1.23928
1.24775
1.25023
1.25141
1.25018
1.24277
1.23455
1.23176
1.27144
2.68261
3.35255
3.34542
3.33081
3.31946
3.30994
3.30193
3.29998
3.30407
3.31178
3.31896
3.32187
3.31998
3.31511
3.31092
3.30822
3.30655
3.30504
3.30314
3.30105
3.29899
3.29732
3.29697
3.29775
3.29927
3.29997
3.29921
3.29754
3.29438
3.28913
3.2816
3.27272
3.26463
3.25952
3.25847
1.26295
1.18281
1.0862
1.00461
0.978683
0.943132
0.883806
0.84125
0.825329
0.807984
0.772478
0.744829
0.74504
0.740445
0.722067
0.707506
0.706489
0.702334
0.692496
0.692453
0.699851
0.722023
0.76423
0.813729
0.875215
0.937925
1.00135
1.04361
1.07561
1.10501
1.124
1.14417
1.16847
1.1893
1.19713
1.19941
1.19929
1.20187
1.20512
1.20892
1.21501
1.21901
1.22121
1.22695
1.2384
1.24681
1.24981
1.25132
1.25104
1.24465
1.23477
1.23132
1.23151
2.40716
3.33939
3.37651
3.37442
3.35928
3.34323
3.33538
3.33521
3.34154
3.35168
3.36055
3.36456
3.36176
3.35346
3.34415
3.33725
3.33384
3.33097
3.32503
3.3154
3.30607
3.30131
3.30144
3.30269
3.30249
3.30079
3.29894
3.29783
3.29628
3.29226
3.2848
3.27482
3.26563
3.25983
3.25805
1.45535
1.35523
1.25231
1.17292
1.11472
1.0724
1.03322
0.970925
0.915376
0.902461
0.888204
0.855067
0.826206
0.823627
0.814229
0.786678
0.761324
0.74723
0.731814
0.717106
0.716448
0.721423
0.728817
0.737519
0.750859
0.772233
0.80514
0.857935
0.915031
0.987293
1.05052
1.09096
1.12622
1.15258
1.17253
1.18183
1.18776
1.19528
1.20114
1.203
1.20833
1.21338
1.21648
1.22124
1.22917
1.23668
1.24147
1.24395
1.24449
1.24139
1.23789
1.23406
1.23053
2.11159
3.29092
3.39355
3.38936
3.37154
3.35775
3.35162
3.3542
3.36379
3.37808
3.3927
3.40177
3.40067
3.38919
3.37623
3.36798
3.36502
3.36419
3.35906
3.34619
3.32942
3.31646
3.31154
3.31145
3.30974
3.30442
3.29958
3.29771
3.29753
3.29519
3.28801
3.27666
3.266
3.25992
3.25833
1.62837
1.51836
1.40863
1.33141
1.259
1.17963
1.14163
1.1044
1.04341
0.987212
0.974459
0.956206
0.923207
0.894823
0.883693
0.870208
0.839308
0.810348
0.79612
0.783937
0.776519
0.769359
0.761965
0.758923
0.758315
0.751334
0.744409
0.748671
0.764129
0.801285
0.869096
0.948979
1.03135
1.09156
1.13177
1.15043
1.15588
1.16465
1.17928
1.18401
1.19278
1.20613
1.21398
1.21614
1.22036
1.22315
1.22397
1.22545
1.22864
1.23178
1.23368
1.23724
1.23637
1.84657
3.21463
3.40168
3.38812
3.37257
3.36143
3.35503
3.35657
3.3669
3.38292
3.40116
3.4157
3.42083
3.41334
3.40014
3.39014
3.3881
3.39006
3.38864
3.37778
3.35824
3.3386
3.32561
3.31983
3.3164
3.30977
3.30163
3.29738
3.29729
3.29653
3.29034
3.27793
3.2653
3.25862
3.2579
1.78491
1.66185
1.54854
1.47004
1.39756
1.31751
1.24673
1.20566
1.15755
1.10187
1.06161
1.04127
1.02477
0.996693
0.955099
0.932641
0.916141
0.886729
0.855595
0.846653
0.838088
0.825453
0.811714
0.801468
0.793089
0.780268
0.761029
0.753137
0.754
0.757108
0.769713
0.797231
0.842575
0.903921
0.963056
1.03196
1.07371
1.10239
1.12977
1.14744
1.17002
1.20203
1.2215
1.22377
1.22427
1.22035
1.21177
1.20886
1.21077
1.21532
1.2224
1.2347
1.24142
1.61599
3.12002
3.42235
3.38646
3.36448
3.35396
3.34951
3.35231
3.36193
3.37502
3.39002
3.40538
3.41527
3.41696
3.41232
3.4075
3.40673
3.40882
3.41033
3.40526
3.39135
3.37196
3.35363
3.34045
3.33125
3.32101
3.30891
3.30028
3.29782
3.29648
3.29071
3.27829
3.26466
3.25715
3.25736
1.92418
1.78945
1.68864
1.60237
1.51717
1.43502
1.37141
1.31241
1.26093
1.21735
1.16895
1.1134
1.09401
1.08016
1.04874
0.998437
0.976326
0.958807
0.930655
0.910154
0.899844
0.890123
0.878805
0.861624
0.843054
0.824823
0.805975
0.794549
0.787409
0.783155
0.783466
0.784808
0.786348
0.79277
0.806502
0.835319
0.886722
0.950033
1.02581
1.09017
1.13925
1.18052
1.20613
1.21367
1.21632
1.21629
1.21227
1.20202
1.1996
1.20329
1.20875
1.22415
1.23726
1.41165
2.99417
3.43464
3.38148
3.35106
3.33356
3.33117
3.34082
3.35368
3.36423
3.37267
3.38205
3.39347
3.40504
3.41283
3.41605
3.41606
3.41734
3.4196
3.41793
3.41099
3.39905
3.38345
3.36581
3.34823
3.33117
3.31502
3.30298
3.29726
3.29467
3.28847
3.2756
3.26062
3.25084
3.24987
2.04697
1.9133
1.81743
1.72446
1.63605
1.5529
1.48791
1.41943
1.35068
1.31061
1.27224
1.22399
1.1733
1.14373
1.11625
1.07698
1.04087
1.01988
1.00122
0.986192
0.969202
0.948493
0.935401
0.921554
0.898798
0.864797
0.841268
0.833573
0.828379
0.823591
0.818857
0.812856
0.806242
0.802109
0.791605
0.786045
0.790221
0.807432
0.853121
0.924657
0.995455
1.06245
1.11631
1.15066
1.17936
1.20408
1.20911
1.20893
1.20247
1.1985
1.20072
1.21076
1.22718
1.26429
2.81337
3.43127
3.37035
3.32875
3.30755
3.30678
3.32074
3.33718
3.34823
3.3528
3.35429
3.36155
3.37988
3.40114
3.41489
3.41939
3.41894
3.41791
3.41854
3.4196
3.41658
3.40773
3.39318
3.37366
3.35047
3.32785
3.31044
3.30003
3.29384
3.28575
3.27245
3.25659
3.24372
3.2408
2.15189
2.03711
1.93701
1.84075
1.74225
1.66379
1.59319
1.5264
1.4563
1.3986
1.34868
1.30512
1.2665
1.22399
1.18349
1.1505
1.11762
1.08005
1.05328
1.04545
1.03437
1.01443
0.989893
0.971757
0.951491
0.926602
0.902691
0.887604
0.881196
0.87567
0.866202
0.85534
0.843077
0.828233
0.811198
0.79804
0.796996
0.797351
0.802199
0.816065
0.841193
0.884605
0.944819
1.00999
1.06926
1.11801
1.15585
1.1859
1.19726
1.20699
1.20631
1.20737
1.21376
1.22484
2.58853
3.39787
3.35192
3.31127
3.27913
3.27601
3.29449
3.31596
3.32815
3.3303
3.32576
3.33119
3.35344
3.38144
3.40293
3.4123
3.41251
3.40955
3.40985
3.41449
3.42048
3.42142
3.41273
3.39406
3.36835
3.34036
3.31589
3.29918
3.28887
3.27749
3.26103
3.2406
3.22395
3.21939
2.25258
2.14977
2.0442
1.94257
1.8456
1.76978
1.69117
1.61179
1.54861
1.495
1.44063
1.38246
1.33867
1.29704
1.25115
1.21725
1.19234
1.16312
1.12656
1.10223
1.08584
1.06945
1.04732
1.01892
0.99135
0.973281
0.961828
0.948182
0.931854
0.923491
0.915923
0.905954
0.890628
0.862522
0.833268
0.822307
0.819976
0.81919
0.82029
0.823056
0.822517
0.823099
0.827669
0.846499
0.885219
0.939811
1.00623
1.07335
1.13216
1.18598
1.20988
1.21167
1.20685
1.20744
2.36697
3.34748
3.31868
3.28514
3.25633
3.2456
3.26044
3.28164
3.29444
3.29905
3.29667
3.3023
3.32456
3.3547
3.3805
3.39419
3.39488
3.39116
3.39329
3.40235
3.41402
3.42056
3.41893
3.4063
3.38309
3.35331
3.32399
3.30085
3.28376
3.26778
3.24826
3.22467
3.20573
3.18577
2.35111
2.24771
2.14342
2.02917
1.94345
1.86192
1.78302
1.70034
1.63659
1.57773
1.51952
1.46335
1.41764
1.37445
1.32608
1.28349
1.25035
1.22367
1.2
1.17643
1.14891
1.12027
1.09701
1.07073
1.03583
1.01268
1.00651
0.999166
0.988502
0.976101
0.962403
0.946932
0.931935
0.911016
0.882955
0.867045
0.861577
0.856183
0.853382
0.849407
0.84399
0.838917
0.833593
0.821886
0.817401
0.824171
0.852405
0.90903
0.981359
1.05846
1.13233
1.18667
1.20557
1.19608
2.18581
3.28066
3.26733
3.23386
3.21582
3.2097
3.22296
3.24333
3.25643
3.26141
3.26215
3.27357
3.29855
3.33036
3.35624
3.3684
3.36773
3.36519
3.3705
3.38449
3.4006
3.41121
3.41288
3.40466
3.38687
3.36008
3.32895
3.29973
3.27476
3.25043
3.22004
3.17878
3.13483
3.11171
2.43817
2.33223
2.22299
2.11419
2.03376
1.95044
1.86284
1.78139
1.72229
1.66113
1.59633
1.53922
1.49078
1.44494
1.39887
1.36227
1.32664
1.28404
1.25318
1.23285
1.20907
1.17521
1.14663
1.12242
1.09545
1.07067
1.05108
1.03824
1.03312
1.02648
1.01417
0.991456
0.959679
0.938899
0.926599
0.919932
0.91371
0.901649
0.882389
0.872839
0.868362
0.862058
0.853471
0.842727
0.828794
0.823111
0.822963
0.828641
0.850174
0.892484
0.955926
1.02544
1.10154
1.13947
2.02531
3.19628
3.18801
3.15545
3.15105
3.15835
3.1801
3.20184
3.21384
3.21935
3.22599
3.24179
3.2693
3.3005
3.32332
3.33411
3.33529
3.33468
3.34302
3.35963
3.37722
3.39087
3.39693
3.3931
3.37948
3.35607
3.32627
3.29341
3.2607
3.22583
3.18586
3.13233
3.05581
3.01585
2.51709
2.41193
2.29803
2.19853
2.11274
2.02972
1.93884
1.86607
1.80217
1.73766
1.66588
1.61669
1.5691
1.51692
1.46639
1.42841
1.39289
1.35495
1.32163
1.29117
1.25974
1.22497
1.19375
1.16748
1.14421
1.1284
1.11417
1.09503
1.07167
1.06191
1.05081
1.03086
0.998996
0.9722
0.965643
0.962574
0.95913
0.951575
0.937772
0.921624
0.904318
0.885256
0.871226
0.862295
0.853225
0.845984
0.839117
0.837475
0.838602
0.841203
0.851574
0.876763
0.921834
0.970697
1.77853
3.00271
3.06087
3.05417
3.07065
3.09289
3.12398
3.14988
3.16303
3.17108
3.18376
3.20547
3.23589
3.26538
3.28489
3.29486
3.29744
3.30172
3.31344
3.32971
3.34693
3.36164
3.37043
3.37046
3.3609
3.34174
3.31449
3.28062
3.24216
3.19581
3.13874
3.04845
2.83081
2.30484
2.59101
2.48225
2.36883
2.2794
2.19171
2.10456
2.01279
1.94477
1.87753
1.81058
1.7405
1.68906
1.63993
1.58412
1.53761
1.4985
1.45575
1.41091
1.38161
1.34939
1.31455
1.27881
1.2491
1.22159
1.18945
1.17304
1.1626
1.1484
1.12947
1.11007
1.0869
1.05515
1.03099
1.01773
1.00589
0.996529
0.991728
0.987591
0.979822
0.967502
0.952646
0.932919
0.902722
0.879487
0.874477
0.871301
0.866386
0.863351
0.860317
0.853317
0.84919
0.847177
0.850137
0.858144
1.43078
2.73197
2.91952
2.95279
2.99477
3.02242
3.05043
3.0748
3.09358
3.11055
3.13159
3.16027
3.19531
3.226
3.24382
3.25261
3.2572
3.26475
3.27929
3.29738
3.31431
3.32891
3.33768
3.33862
3.33052
3.31497
3.29265
3.26053
3.21663
3.15827
3.07645
2.94285
2.68948
2.18098
2.65815
2.54552
2.44287
2.35428
2.26532
2.17092
2.08994
2.02092
1.95121
1.87544
1.81372
1.76314
1.71074
1.64913
1.60264
1.56183
1.51908
1.47541
1.43973
1.40319
1.3625
1.32982
1.30402
1.27954
1.25105
1.22886
1.20778
1.18459
1.16844
1.15212
1.12896
1.09208
1.06969
1.06201
1.05175
1.03878
1.02771
1.01609
1.0073
0.999279
0.988287
0.971077
0.941948
0.918083
0.912961
0.909479
0.901043
0.892398
0.887395
0.880919
0.872152
0.862831
0.854925
0.847284
1.10275
2.48479
2.84174
2.87912
2.92996
2.96614
2.9864
3.00035
3.01582
3.03657
3.06707
3.10632
3.14662
3.17756
3.19538
3.20512
3.2131
3.22489
3.24328
3.26497
3.28416
3.29726
3.30307
3.30037
3.29095
3.27882
3.26148
3.23211
3.18608
3.11711
3.01327
2.84595
2.59372
2.15051
2.71874
2.60656
2.51387
2.42335
2.33356
2.23781
2.16417
2.09051
2.0198
1.94305
1.88676
1.8316
1.77469
1.7125
1.66918
1.6265
1.57481
1.53273
1.49665
1.45992
1.41782
1.38587
1.35711
1.32708
1.30124
1.28252
1.26168
1.23821
1.21194
1.18452
1.15761
1.12697
1.11243
1.10519
1.09667
1.08661
1.0752
1.05975
1.03761
1.01926
1.0083
0.996477
0.979739
0.961012
0.949483
0.946707
0.943236
0.935405
0.924046
0.909365
0.896288
0.884808
0.874002
0.861864
0.882683
2.12018
2.78079
2.84697
2.8918
2.91531
2.91973
2.92248
2.9397
2.96738
3.00513
3.04782
3.08702
3.11553
3.13317
3.14636
3.16057
3.17822
3.2023
3.22943
3.2493
3.25866
3.25949
3.25378
3.24714
3.23566
3.21983
3.19279
3.14549
3.07133
2.95319
2.78295
2.52954
2.16771
2.77125
2.6697
2.57948
2.4885
2.39282
2.30732
2.23345
2.15889
2.0822
2.01194
1.95568
1.89721
1.83573
1.77647
1.73127
1.68663
1.63318
1.58992
1.55221
1.51147
1.47122
1.44409
1.41583
1.38384
1.35101
1.32687
1.30364
1.28059
1.25714
1.22878
1.19646
1.16686
1.15597
1.14476
1.13047
1.12234
1.11402
1.10098
1.084
1.06066
1.03114
1.01216
1.00397
0.997443
0.990249
0.981085
0.976357
0.970454
0.962211
0.951745
0.936279
0.910182
0.891015
0.882978
0.883629
1.64986
2.7158
2.83739
2.87636
2.90009
2.90014
2.8927
2.90895
2.93906
2.98173
3.01942
3.04387
3.05933
3.07102
3.08348
3.10152
3.12565
3.15525
3.18843
3.21121
3.21741
3.21316
3.2048
3.19759
3.18955
3.17598
3.15305
3.10759
3.02431
2.90463
2.73369
2.50117
2.20462
2.8225
2.73018
2.63881
2.54712
2.45162
2.37491
2.29706
2.22286
2.14211
2.08092
2.01924
1.95937
1.89334
1.84075
1.79287
1.74387
1.68744
1.64623
1.60939
1.56724
1.52791
1.49806
1.46777
1.43207
1.4042
1.37912
1.35289
1.31874
1.288
1.26303
1.23882
1.21834
1.20762
1.19547
1.17558
1.15386
1.13974
1.12532
1.11324
1.09799
1.0738
1.04632
1.02963
1.02564
1.02414
1.01746
1.01036
1.00245
0.989929
0.978743
0.965046
0.947239
0.932237
0.917452
0.900053
1.18849
2.55932
2.86541
2.88192
2.8884
2.88527
2.88007
2.89974
2.93363
2.97341
3.00133
3.00891
3.00972
3.01386
3.02344
3.04198
3.07032
3.10468
3.14028
3.16622
3.1734
3.16663
3.15658
3.14871
3.14038
3.12985
3.11141
3.06422
2.98027
2.85884
2.69757
2.4938
2.24589
2.87719
2.7857
2.69394
2.59842
2.51418
2.43642
2.3588
2.27866
2.20575
2.14445
2.07973
2.01683
1.9526
1.90264
1.85091
1.79876
1.74309
1.70333
1.66601
1.62098
1.58428
1.55386
1.52028
1.47866
1.45038
1.42425
1.39703
1.36383
1.33213
1.3045
1.27698
1.2614
1.25101
1.23795
1.22106
1.20075
1.18121
1.16057
1.13271
1.1125
1.09944
1.08623
1.07569
1.06446
1.05732
1.05033
1.04083
1.03219
1.02069
1.00284
0.984207
0.970443
0.962916
0.956405
0.941671
0.963001
2.10072
2.86567
2.89744
2.89789
2.89116
2.88647
2.89737
2.9315
2.96444
2.97761
2.97448
2.96057
2.95474
2.96194
2.98249
3.01328
3.05083
3.08638
3.11128
3.12093
3.11819
3.11054
3.10219
3.09355
3.08448
3.06639
3.01696
2.93656
2.81742
2.67165
2.49443
2.28529
2.92969
2.83771
2.74391
2.65215
2.57407
2.49375
2.41579
2.33348
2.26916
2.20222
2.13928
2.07051
2.01411
1.96042
1.90752
1.85106
1.80087
1.76097
1.72164
1.67525
1.63726
1.60491
1.56802
1.52766
1.4993
1.47057
1.43449
1.40075
1.3753
1.35302
1.32875
1.31124
1.29425
1.27145
1.24933
1.23558
1.21895
1.19816
1.17257
1.14304
1.11943
1.11295
1.11082
1.10364
1.09389
1.08593
1.07441
1.05885
1.0455
1.0274
1.00643
0.992102
0.984116
0.981873
0.976918
0.972828
1.50557
2.78447
2.9409
2.92906
2.91647
2.90908
2.91752
2.93911
2.95868
2.96765
2.9633
2.94354
2.93314
2.93908
2.95635
2.98168
3.0071
3.0312
3.0499
3.05931
3.06197
3.06133
3.05806
3.04955
3.03979
3.01933
2.96992
2.89282
2.78293
2.65088
2.49479
2.31747
2.97812
2.88592
2.79225
2.70969
2.62847
2.54881
2.46541
2.39339
2.32663
2.25894
2.1924
2.12693
2.07316
2.01519
1.96177
1.90258
1.85948
1.81657
1.775
1.72727
1.68938
1.65418
1.61328
1.57428
1.54543
1.51582
1.47622
1.44405
1.41961
1.39759
1.37501
1.35844
1.33879
1.31539
1.28733
1.2662
1.24639
1.22334
1.20375
1.18469
1.16666
1.15089
1.14349
1.13564
1.1227
1.11333
1.10476
1.0907
1.07256
1.05423
1.03469
1.01729
1.01033
1.00557
1.00225
0.994828
1.08226
2.41879
2.97202
2.96211
2.94851
2.94309
2.9484
2.96031
2.96908
2.97007
2.9584
2.93404
2.92101
2.92952
2.95065
2.97444
2.98835
2.99173
2.9922
2.99492
2.99957
3.00565
3.01037
3.00773
2.99851
2.97314
2.92325
2.84975
2.75114
2.63221
2.49397
2.34373
3.02495
2.93133
2.8441
2.76307
2.68144
2.59853
2.5188
2.45096
2.38018
2.31413
2.24295
2.18597
2.1267
2.07068
2.01142
1.95917
1.91543
1.86993
1.82487
1.77795
1.73955
1.702
1.65977
1.62118
1.59044
1.55794
1.51756
1.49172
1.46956
1.4456
1.41931
1.39837
1.37475
1.35062
1.32746
1.30487
1.28272
1.25468
1.22904
1.21627
1.20622
1.19426
1.184
1.17354
1.15902
1.1399
1.1244
1.11143
1.0957
1.0785
1.06461
1.0538
1.04658
1.03938
1.03049
1.019
1.0198
1.766
2.91257
2.99537
2.9815
2.98007
2.98656
2.9943
2.99679
2.98725
2.96696
2.94003
2.91868
2.92521
2.94435
2.96734
2.97245
2.96117
2.94697
2.93865
2.93829
2.94656
2.95779
2.9627
2.95706
2.92967
2.87909
2.80827
2.71987
2.61426
2.49411
2.36824
3.06783
2.97875
2.89554
2.8119
2.73005
2.64772
2.57541
2.50289
2.4338
2.36216
2.29901
2.24012
2.17927
2.12235
2.06198
2.01619
1.96668
1.92166
1.87089
1.82841
1.78748
1.74859
1.70556
1.66819
1.63552
1.60047
1.5619
1.53881
1.51763
1.49086
1.46384
1.43931
1.41334
1.3829
1.35965
1.3387
1.31783
1.29232
1.27138
1.2559
1.24037
1.22901
1.2174
1.2042
1.19154
1.17621
1.15907
1.13883
1.11409
1.09505
1.08683
1.08213
1.07777
1.07224
1.06483
1.05467
1.03615
1.18957
2.61695
3.01394
3.0053
3.00827
3.01825
3.02669
3.02703
3.01443
2.98765
2.95548
2.93301
2.92612
2.93993
2.95427
2.94851
2.92467
2.90171
2.88935
2.88585
2.89135
2.90476
2.91421
2.9105
2.88398
2.83576
2.7705
2.69165
2.59919
2.49559
2.3879
3.11072
3.02641
2.94283
2.85939
2.77607
2.70057
2.62706
2.55508
2.48289
2.41369
2.35356
2.29034
2.23279
2.16931
2.11813
2.06765
2.01788
1.96866
1.91875
1.87817
1.83491
1.79541
1.75129
1.71484
1.68051
1.64523
1.61062
1.58721
1.56314
1.53117
1.50323
1.4774
1.45114
1.42041
1.39672
1.37404
1.3496
1.32607
1.31171
1.29858
1.28241
1.26663
1.25185
1.23138
1.2106
1.20036
1.18875
1.16942
1.14488
1.12875
1.11734
1.10662
1.1017
1.09743
1.09034
1.08396
1.06809
1.05997
1.95366
2.95298
3.01804
3.03097
3.04765
3.05906
3.06003
3.04652
3.0186
2.98536
2.95843
2.94541
2.94591
2.94829
2.93942
2.9091
2.87343
2.85361
2.84631
2.84994
2.85909
2.86568
2.85912
2.83258
2.78836
2.73176
2.66323
2.58448
2.49586
2.40385
3.15518
3.07091
2.98684
2.90322
2.82543
2.75059
2.67578
2.60351
2.53227
2.46797
2.40276
2.34191
2.27919
2.22184
2.17048
2.11647
2.06756
2.01269
1.96997
1.92494
1.88353
1.8393
1.79843
1.76146
1.72662
1.6904
1.65927
1.63386
1.60636
1.57056
1.54085
1.51446
1.48602
1.45678
1.4342
1.41214
1.38715
1.36506
1.34984
1.33494
1.3187
1.30209
1.28518
1.26651
1.24523
1.22611
1.20846
1.18803
1.17095
1.16202
1.15401
1.14432
1.13484
1.12585
1.11236
1.10259
1.09223
1.07055
1.2823
2.73854
3.04238
3.0548
3.07107
3.08227
3.08364
3.07197
3.04753
3.01772
2.99173
2.97442
2.96337
2.95428
2.93949
2.90742
2.8629
2.84363
2.83344
2.83384
2.83433
2.828
2.80777
2.77683
2.73609
2.68863
2.6315
2.56742
2.49323
2.416
3.19657
3.11339
3.02918
2.94899
2.8732
2.79793
2.72342
2.65059
2.58418
2.51732
2.4529
2.38954
2.32825
2.27399
2.21802
2.16763
2.11146
2.06339
2.01845
1.97269
1.93088
1.88375
1.84678
1.8076
1.77401
1.73684
1.70672
1.67641
1.64529
1.60917
1.57981
1.55348
1.52274
1.49365
1.47096
1.44956
1.42436
1.4071
1.39095
1.37346
1.35219
1.33247
1.31174
1.29365
1.27827
1.26041
1.23992
1.21454
1.19811
1.18933
1.18158
1.17508
1.16717
1.15672
1.14392
1.12938
1.11345
1.08322
1.08662
2.09177
3.00478
3.07353
3.09022
3.1003
3.10149
3.09154
3.07138
3.04707
3.02496
3.00576
2.98879
2.97106
2.94683
2.91333
2.87011
2.83973
2.82793
2.82457
2.82159
2.80187
2.7675
2.72719
2.68366
2.64145
2.59448
2.54454
2.48582
2.42132
3.23444
3.15165
3.07262
2.99542
2.91767
2.84224
2.76861
2.70009
2.63213
2.56517
2.49972
2.43727
2.37967
2.32106
2.2673
2.21288
2.16
2.11319
2.06471
2.0223
1.97291
1.93254
1.89265
1.85525
1.81868
1.78257
1.75087
1.71703
1.68313
1.64721
1.61864
1.59211
1.56077
1.53278
1.51025
1.48767
1.46228
1.44577
1.4286
1.40928
1.3864
1.365
1.34415
1.32199
1.30325
1.2869
1.26959
1.24833
1.23486
1.2251
1.21359
1.20095
1.19137
1.18026
1.16803
1.15423
1.13716
1.10979
1.09098
1.37354
2.83477
3.10364
3.10992
3.11372
3.11127
3.10006
3.08308
3.06403
3.04669
3.03127
3.01516
2.99613
2.97001
2.93304
2.89023
2.84941
2.82887
2.81702
2.8011
2.76933
2.72839
2.68617
2.63972
2.5967
2.55546
2.51642
2.47261
2.41988
3.27365
3.19236
3.11597
3.03925
2.96182
2.88609
2.8157
2.74615
2.67854
2.61166
2.5464
2.48693
2.42695
2.36936
2.31333
2.26
2.20978
2.15888
2.11436
2.06576
2.01981
1.97918
1.93783
1.90261
1.8612
1.8277
1.79108
1.75743
1.72092
1.68842
1.65903
1.63134
1.59879
1.57252
1.55101
1.52751
1.50273
1.48402
1.46421
1.44002
1.41652
1.39511
1.37613
1.35665
1.33646
1.31593
1.29494
1.27771
1.26852
1.25928
1.24832
1.23449
1.21948
1.20449
1.18792
1.17033
1.15325
1.13601
1.11976
1.14027
2.22385
3.07
3.12544
3.12686
3.11783
3.10351
3.08841
3.07423
3.06163
3.05074
3.03873
3.02166
2.99652
2.96024
2.91408
2.87013
2.83756
2.81542
2.79142
2.75356
2.7031
2.65257
2.60492
2.56177
2.52335
2.49006
2.45569
2.41277
3.31281
3.2353
3.15684
3.07929
3.00324
2.93195
2.86105
2.79014
2.72194
2.65714
2.59485
2.53303
2.47415
2.41462
2.35941
2.30867
2.25549
2.20647
2.15873
2.11106
2.06677
2.02251
1.98563
1.94379
1.90569
1.86876
1.8316
1.79754
1.76019
1.72996
1.69898
1.67114
1.6386
1.61355
1.59107
1.56592
1.54183
1.52136
1.49914
1.47037
1.44669
1.42569
1.40602
1.38696
1.36809
1.34848
1.32833
1.31273
1.30183
1.28949
1.27549
1.26237
1.24775
1.23178
1.21455
1.19343
1.17267
1.16034
1.14993
1.1483
1.48081
2.91251
3.1541
3.14279
3.12451
3.10637
3.09209
3.08109
3.07245
3.06509
3.05629
3.04188
3.01893
2.9854
2.94167
2.89691
2.85822
2.824
2.7925
2.75167
2.69702
2.63943
2.59056
2.54507
2.50524
2.47316
2.43969
2.39729
3.35397
3.27601
3.19791
3.12019
3.04758
2.97627
2.90517
2.83376
2.76662
2.70423
2.64042
2.57924
2.51993
2.46063
2.40674
2.35368
2.30256
2.25065
2.20345
2.15776
2.11009
2.06904
2.02791
1.98685
1.9481
1.90812
1.87504
1.83612
1.80319
1.77026
1.74027
1.70938
1.67978
1.6553
1.63138
1.60487
1.57915
1.55584
1.53039
1.5017
1.47943
1.45965
1.43885
1.41804
1.39746
1.37887
1.36145
1.34944
1.3369
1.32252
1.30461
1.28688
1.27094
1.25532
1.2376
1.21736
1.20153
1.1914
1.18256
1.17274
1.20269
2.31021
3.11644
3.14505
3.13208
3.11216
3.09574
3.08569
3.08094
3.07741
3.07141
3.0592
3.03756
3.00477
2.96325
2.91924
2.87769
2.83803
2.79835
2.7547
2.7046
2.64371
2.59227
2.54762
2.50728
2.4728
2.43654
2.38831
3.39304
3.31341
3.23522
3.16249
3.0907
3.0182
2.94648
2.87718
2.81321
2.74872
2.68538
2.62278
2.56542
2.50824
2.45077
2.3992
2.34618
2.29365
2.24896
2.20109
2.15567
2.11121
2.07044
2.03027
1.98744
1.95191
1.91504
1.87878
1.8444
1.81014
1.78136
1.74746
1.72167
1.69446
1.67012
1.64184
1.61538
1.58964
1.56157
1.53332
1.51261
1.49402
1.47167
1.45046
1.42986
1.41154
1.39475
1.38247
1.36765
1.35152
1.33329
1.31575
1.29857
1.28128
1.25871
1.23933
1.22989
1.22123
1.21506
1.20787
1.20597
1.55332
2.93953
3.1628
3.14693
3.12727
3.1103
3.09961
3.09541
3.09257
3.08677
3.0744
3.0512
3.01553
2.97384
2.93375
2.89661
2.85943
2.81995
2.77512
2.72473
2.66705
2.60597
2.55741
2.51114
2.47027
2.4265
2.37316
3.43095
3.35199
3.27704
3.20465
3.13222
3.06007
2.98939
2.92386
2.85777
2.79312
2.7285
2.66822
2.61162
2.55329
2.49599
2.44305
2.39045
2.33847
2.29104
2.24689
2.19838
2.15299
2.11468
2.07074
2.03083
1.99307
1.95698
1.92144
1.88329
1.85301
1.81895
1.78907
1.761
1.73279
1.70695
1.67708
1.64908
1.62211
1.59492
1.5694
1.54884
1.52775
1.50327
1.48232
1.46374
1.44567
1.43018
1.41529
1.39763
1.3771
1.35791
1.34226
1.32636
1.30816
1.28468
1.27002
1.2616
1.25037
1.24217
1.23752
1.22263
1.25431
2.32309
3.12192
3.14455
3.13451
3.12569
3.11847
3.11473
3.11074
3.10303
3.08853
3.06201
3.02207
2.97973
2.94442
2.91437
2.88268
2.84621
2.80301
2.75152
2.69494
2.63255
2.57339
2.52315
2.47712
2.4263
2.36358
3.46548
3.39135
3.31826
3.24449
3.1716
3.10064
3.03448
2.96748
2.90121
2.83471
2.77196
2.71429
2.65481
2.59807
2.53938
2.48713
2.43646
2.3819
2.33391
2.29125
2.23853
2.19619
2.1556
2.11408
2.0718
2.03353
2.00031
1.96034
1.92561
1.89206
1.85927
1.82994
1.79772
1.77123
1.74011
1.71143
1.68184
1.65591
1.62906
1.6059
1.58463
1.56178
1.53681
1.51599
1.49801
1.47846
1.46289
1.44571
1.42684
1.40397
1.38524
1.36913
1.35287
1.33179
1.3116
1.30288
1.2947
1.2842
1.27537
1.26745
1.24677
1.23357
1.56266
2.91447
3.16902
3.15428
3.14541
3.1416
3.13899
3.13352
3.12182
3.10147
3.06898
3.02568
2.98465
2.95504
2.93164
2.90571
2.87378
2.83388
2.7851
2.72889
2.66707
2.60432
2.5453
2.49028
2.4329
2.36877
3.50367
3.43085
3.35741
3.28399
3.21179
3.14436
3.077
3.01001
2.94281
2.87729
2.81801
2.75744
2.69888
2.63979
2.58443
2.53272
2.47976
2.42763
2.37651
2.33409
2.28311
2.23581
2.19793
2.15793
2.10896
2.07618
2.03969
2.00138
1.96577
1.93083
1.90178
1.86709
1.83661
1.80599
1.77451
1.74522
1.71557
1.69148
1.66556
1.64253
1.61938
1.59429
1.57091
1.55169
1.53358
1.51267
1.49409
1.47363
1.45254
1.43029
1.41466
1.39861
1.38173
1.35775
1.34308
1.33471
1.32515
1.31387
1.30463
1.295
1.27566
1.2429
1.26667
2.25594
3.13528
3.18238
3.17087
3.16521
3.16136
3.1538
3.13776
3.11033
3.07066
3.02559
2.98905
2.96631
2.9486
2.92732
2.89942
2.86273
2.81567
2.75975
2.69651
2.63175
2.56961
2.50854
2.44678
2.38372
3.54277
3.46904
3.39557
3.32217
3.25314
3.18531
3.1177
3.05078
2.98465
2.92315
2.861
2.80061
2.74009
2.68199
2.63001
2.57525
2.52368
2.47029
2.42069
2.37633
2.3274
2.27656
2.2407
2.19866
2.1492
2.1152
2.07971
2.04294
2.0013
1.97314
1.94025
1.90527
1.87393
1.83974
1.81102
1.77904
1.75301
1.72665
1.70264
1.6771
1.65331
1.62841
1.60635
1.58648
1.56598
1.54436
1.52427
1.50318
1.47911
1.45768
1.44286
1.42701
1.40964
1.38713
1.37761
1.36792
1.35676
1.34284
1.32962
1.31412
1.296
1.26525
1.26406
1.54602
2.87052
3.20007
3.19388
3.19267
3.18775
3.17497
3.15257
3.11981
3.07725
3.03364
3.00134
2.98217
2.96652
2.9466
2.91937
2.88254
2.83446
2.77719
2.71451
2.65311
2.59482
2.53691
2.47622
2.41379
3.58081
3.50585
3.43281
3.36315
3.29346
3.22405
0.802733
0.358075
0.21415
0.207101
0.218799
0.242508
0.296218
0.367703
0.438844
0.515156
0.548241
0.55565
0.555223
0.552396
0.561295
0.583531
0.619133
0.641953
0.644947
0.643756
0.642071
0.649657
0.66073
0.676246
0.7006
0.726396
0.744873
0.75839
0.768423
0.776165
1.22551
0.773991
0.573238
0.502426
0.457918
0.411137
0.383731
0.387627
0.405154
0.443601
0.47687
0.503481
0.528572
0.541841
0.556246
0.581153
0.616868
0.641542
0.652015
0.655505
0.658836
0.66752
0.680287
0.697839
0.720573
0.738918
0.751437
0.763756
0.777264
0.790753
1.53562
1.13663
0.855377
0.714003
0.641731
0.568655
0.489249
0.434568
0.435022
0.450138
0.477281
0.506815
0.539605
0.564967
0.579835
0.60291
0.634764
0.664167
0.691283
0.705468
0.709046
0.716149
0.729095
0.746142
0.766137
0.777573
0.782767
0.790047
0.799902
0.812326
1.72737
1.40339
1.13779
0.920625
0.803724
0.7423
0.676011
0.589894
0.540077
0.522635
0.514766
0.516924
0.52438
0.54005
0.561746
0.587977
0.62145
0.650975
0.682128
0.712762
0.727451
0.741209
0.759597
0.779414
0.80011
0.819898
0.825861
0.827827
0.832714
0.840424
1.86435
1.57831
1.34968
1.15344
0.982929
0.872127
0.81283
0.755221
0.673263
0.601068
0.57869
0.570163
0.559008
0.557385
0.564198
0.569939
0.584171
0.609098
0.643048
0.683225
0.711063
0.732084
0.752282
0.7769
0.801638
0.823586
0.844987
0.85244
0.858481
0.866658
1.97461
1.7297
1.50288
1.31996
1.17662
1.04173
0.927357
0.876571
0.819991
0.73453
0.670018
0.664367
0.659512
0.633219
0.608986
0.596709
0.594947
0.594345
0.606315
0.63771
0.671898
0.700025
0.72236
0.750414
0.777687
0.804606
0.836226
0.855439
0.863528
0.872194
2.05782
1.84831
1.64767
1.45816
1.31917
1.20109
1.06883
0.982213
0.936986
0.872127
0.785399
0.755186
0.741948
0.71187
0.681055
0.655601
0.626542