/*--------------------------------*- C++ -*----------------------------------*\
  =========                 |
  \\      /  F ield         | OpenFOAM: The Open Source CFD Toolbox
   \\    /   O peration     | Website:  https://openfoam.org
    \\  /    A nd           | Version:  7
     \\/     M anipulation  |
\*---------------------------------------------------------------------------*/
FoamFile
{
    version     2.0;
    format      ascii;
    class       volScalarField;
    location    "11";
    object      rho;
}
// * * * * * * * * * * * * * * * * * * * * * * * * * * * * * * * * * * * * * //

dimensions      [1 -3 0 0 0 0 0];

internalField   nonuniform List<scalar> 
3328
(
121.05
13.8743
7.56522
7.5775
7.58732
7.59789
7.60989
7.62261
7.63594
7.64976
7.66485
7.68133
7.69887
7.71714
7.73663
7.75811
7.78147
7.80529
7.82731
7.84559
7.85885
7.86715
7.87418
7.88149
121.065
13.876
7.56329
7.57519
7.58458
7.5946
7.6062
7.61866
7.63185
7.64569
7.66091
7.67765
7.69559
7.71421
7.73368
7.75466
7.77725
7.80045
7.82206
7.83981
7.85184
7.858
7.86258
7.86895
121.013
13.8669
7.55942
7.5706
7.57954
7.58892
7.59991
7.61181
7.62461
7.63811
7.6532
7.67013
7.68854
7.7075
7.72667
7.74658
7.76788
7.79033
7.81204
7.83006
7.84124
7.8449
7.84625
7.85111
120.953
13.8517
7.55304
7.56337
7.57208
7.58097
7.59138
7.60252
7.61467
7.62743
7.64186
7.65853
7.67725
7.69662
7.71556
7.73431
7.75406
7.77559
7.79752
7.81579
7.82538
7.825
7.8204
7.82174
120.861
13.8216
7.54488
7.55421
7.56278
7.57114
7.58114
7.59166
7.60316
7.61483
7.62787
7.64327
7.66142
7.68084
7.6996
7.7171
7.73438
7.75258
7.77081
7.78506
7.79139
7.78995
7.78432
7.78987
120.765
13.7765
7.5367
7.54458
7.55293
7.56051
7.56996
7.57991
7.591
7.60163
7.61288
7.62597
7.6422
7.66056
7.6786
7.69447
7.70856
7.72242
7.73713
7.75046
7.75859
7.75909
7.74719
7.72879
120.686
13.7126
7.53002
7.53489
7.54283
7.54921
7.55784
7.56691
7.57754
7.58751
7.5973
7.60768
7.62076
7.63655
7.65292
7.66694
7.67799
7.68711
7.69516
7.69985
7.69626
7.67747
7.65267
7.64722
120.637
13.6307
7.52455
7.52475
7.53188
7.53666
7.54406
7.55176
7.56143
7.57101
7.58014
7.58836
7.59786
7.60981
7.62337
7.63519
7.64326
7.64717
7.6467
7.64208
7.63137
7.6156
7.56663
7.64345
120.595
13.5453
7.51991
7.50778
7.51646
7.52146
7.52788
7.53376
7.54154
7.55032
7.55938
7.56669
7.57333
7.58106
7.59059
7.5997
7.60532
7.60564
7.59752
7.58443
7.55786
7.51356
7.32635
7.06976
120.493
13.5154
7.49889
7.48982
7.49616
7.50216
7.50862
7.51306
7.51783
7.52495
7.53379
7.54112
7.54614
7.55024
7.55526
7.56152
7.56507
7.56285
7.55098
7.52915
7.49338
7.42433
7.31854
7.07812
120.306
13.5203
7.46077
7.46996
7.47405
7.48066
7.48717
7.49017
7.49146
7.49566
7.5036
7.51142
7.51575
7.51686
7.51822
7.52085
7.52162
7.51836
7.5066
7.47869
7.43847
7.35553
7.26774
7.07541
120.062
13.5132
7.42766
7.43792
7.44855
7.45656
7.4624
7.46322
7.46203
7.46409
7.4709
7.47838
7.48228
7.48137
7.47984
7.47834
7.47609
7.47117
7.46084
7.43293
7.39063
7.32008
7.24797
7.11185
119.793
13.4823
7.39282
7.40698
7.42277
7.43165
7.43534
7.43293
7.42834
7.42934
7.4362
7.44359
7.44716
7.44498
7.44109
7.43545
7.42944
7.42184
7.41115
7.38647
7.34639
7.29255
7.21896
7.13914
119.532
13.4334
7.35746
7.38085
7.39908
7.40768
7.40722
7.3984
7.38991
7.39066
7.39832
7.40671
7.41095
7.40844
7.40207
7.39356
7.38407
7.37289
7.35923
7.33625
7.30072
7.25556
7.197
7.13309
119.301
13.3531
7.33044
7.36195
7.37726
7.38145
7.37604
7.36112
7.34949
7.3492
7.35684
7.36619
7.3714
7.36999
7.36258
7.35202
7.34012
7.32633
7.3097
7.28607
7.2525
7.21106
7.16223
7.11055
119.087
13.2609
7.31674
7.34392
7.35211
7.35136
7.34172
7.32349
7.3107
7.30861
7.31461
7.32305
7.32762
7.32663
7.31998
7.30962
7.29768
7.28336
7.26509
7.23975
7.20577
7.16462
7.11727
7.07039
118.859
13.1954
7.30367
7.31636
7.31863
7.31546
7.30438
7.28747
7.2747
7.27164
7.27574
7.28102
7.28236
7.27907
7.2719
7.2633
7.25394
7.24193
7.22557
7.20104
7.16611
7.12243
7.07243
7.02142
118.612
13.1743
7.27695
7.27669
7.27697
7.27266
7.26201
7.24925
7.24127
7.2419
7.24547
7.24598
7.24027
7.23
7.21948
7.211
7.20429
7.19681
7.18639
7.16726
7.13435
7.08878
7.03473
6.97594
118.353
13.1842
7.23793
7.23232
7.22952
7.22296
7.21472
7.20883
7.21047
7.219
7.22468
7.21896
7.20154
7.18178
7.16596
7.15524
7.14892
7.14451
7.13984
7.12857
7.10285
7.06058
7.00536
6.94033
118.094
13.2064
7.1997
7.18736
7.17534
7.16906
7.16579
7.17079
7.1845
7.19979
7.20566
7.19288
7.16496
7.13676
7.11507
7.10031
7.09183
7.08768
7.08576
7.08052
7.0626
7.02649
6.97527
6.91109
117.832
13.239
7.16896
7.14432
7.11946
7.11613
7.12479
7.143
7.16465
7.18039
7.18177
7.16242
7.12886
7.0962
7.07038
7.05159
7.03909
7.03195
7.02864
7.02467
7.01076
6.97942
6.9332
6.87503
117.562
13.2808
7.13843
7.09774
7.06882
7.07454
7.09625
7.12522
7.14631
7.15566
7.15
7.12536
7.09083
7.05851
7.03252
7.01233
6.99629
6.98375
6.97472
6.96681
6.95144
6.92079
6.87615
6.82252
117.3
13.3137
7.09319
7.0535
7.03275
7.04898
7.08118
7.10833
7.12
7.12163
7.1096
7.08217
7.04968
7.02077
6.99799
6.98006
6.9642
6.94847
6.93251
6.91594
6.89292
6.85769
6.81031
6.75623
117.069
13.3013
7.04201
7.01854
7.01032
7.03379
7.06401
7.08091
7.0854
7.08195
7.06496
7.03631
7.00599
6.98046
6.96143
6.94798
6.93707
6.92515
6.90752
6.88126
6.84475
6.79863
6.74431
6.68576
116.87
13.2434
7.00418
6.99287
6.99401
7.01875
7.04151
7.05026
7.05082
7.04385
7.02201
6.99046
6.96003
6.93585
6.91929
6.91066
6.9074
6.90498
6.89408
6.86411
6.81448
6.7533
6.6871
6.62009
116.68
13.1824
6.9688
6.96454
6.97201
6.99757
7.01702
7.02379
7.0237
7.01253
6.98362
6.94594
6.91234
6.88727
6.87251
6.86871
6.87315
6.87987
6.87797
6.85272
6.79865
6.72756
6.6492
6.57002
116.501
13.1336
6.92086
6.93519
6.94522
6.97472
6.99573
7.00368
7.00388
6.98779
6.95105
6.90574
6.86669
6.83947
6.82625
6.82706
6.8367
6.8468
6.84877
6.83026
6.78129
6.7117
6.63066
6.54443
116.338
13.0816
6.86791
6.9075
6.92344
6.95758
6.97767
6.98534
6.9845
6.96355
6.92181
6.87346
6.83219
6.80365
6.79036
6.79014
6.79754
6.80554
6.8054
6.78835
6.74749
6.68934
6.61787
6.53679
116.197
13.0245
6.83045
6.88325
6.90927
6.94229
6.95723
6.96207
6.95719
6.93181
6.89171
6.84972
6.81354
6.78645
6.76931
6.76055
6.75765
6.75685
6.75059
6.73165
6.6971
6.65193
6.59704
6.53225
116.072
12.9567
6.8139
6.86711
6.89613
6.92197
6.93078
6.93051
6.91932
6.89346
6.8618
6.83184
6.8057
6.78355
6.76418
6.74512
6.72599
6.70788
6.69048
6.67062
6.64302
6.60735
6.56427
6.51554
115.955
12.8958
6.80989
6.85527
6.88146
6.89788
6.89945
6.89348
6.87865
6.85706
6.83407
6.81352
6.79644
6.78093
6.76288
6.73901
6.70902
6.6767
6.64641
6.62001
6.59343
6.56104
6.52238
6.47944
115.837
12.8463
6.80157
6.84493
6.86855
6.87732
6.87221
6.86093
6.84395
6.82369
6.80323
6.78442
6.769
6.7576
6.74722
6.73327
6.71068
6.67618
6.63508
6.59283
6.5525
6.51214
6.47053
6.42746
115.73
12.7723
6.78992
6.83836
6.86057
6.866
6.85825
6.84106
6.81685
6.79119
6.76718
6.74474
6.72609
6.71548
6.7136
6.71558
6.71308
6.69281
6.64921
6.59211
6.53063
6.46999
6.41412
6.36415
115.636
12.6755
6.78437
6.83599
6.85668
6.86064
6.85343
6.83371
6.80066
6.76153
6.72755
6.6971
6.675
6.66871
6.68162
6.70174
6.71333
6.70654
6.6702
6.60612
6.52993
6.44972
6.37333
6.30697
115.537
12.6073
6.78255
6.83399
6.85161
6.85579
6.8499
6.8273
6.78761
6.73752
6.69193
6.65576
6.63604
6.64386
6.66735
6.69061
6.70267
6.70036
6.67636
6.61938
6.53741
6.44454
6.35275
6.27266
115.426
12.5938
6.78905
6.82803
6.84022
6.84249
6.83501
6.81052
6.77126
6.72082
6.67611
6.64685
6.6382
6.64522
6.66065
6.67419
6.67765
6.67108
6.6478
6.60322
6.53594
6.45051
6.36039
6.28124
115.287
12.6638
6.79558
6.81295
6.81551
6.81238
6.79932
6.77443
6.74272
6.71227
6.68506
6.66886
6.66349
6.66243
6.65994
6.65318
6.64023
6.61834
6.5878
6.55065
6.50466
6.44634
6.38075
6.31676
115.122
12.8112
6.79444
6.78905
6.78103
6.76932
6.74999
6.72758
6.71055
6.70272
6.70352
6.70466
6.70166
6.6914
6.67217
6.64285
6.60431
6.56076
6.51842
6.48177
6.45402
6.43415
6.40871
6.36757
114.976
12.9736
6.78433
6.77318
6.7544
6.73001
6.70333
6.68645
6.68131
6.69339
6.71801
6.73717
6.74
6.72403
6.68695
6.63225
6.56879
6.50754
6.45777
6.42442
6.40828
6.40696
6.40907
6.39743
114.903
13.0621
6.77739
6.76154
6.73128
6.69432
6.67434
6.6664
6.67432
6.70129
6.73957
6.76587
6.77292
6.75024
6.69265
6.61831
6.53793
6.46995
6.41995
6.40188
6.40626
6.41688
6.42865
6.42929
6.06512
6.50331
6.68568
6.73746
6.70117
6.64873
6.59768
6.57081
6.83332
6.89688
6.81436
6.77867
6.7103
6.65586
6.60297
6.5841
6.90951
6.85877
6.78092
6.76159
6.70773
6.67189
6.64078
6.62681
7.00347
6.93487
6.85813
6.81933
6.75304
6.71088
6.68568
6.67846
7.05119
6.99623
6.90805
6.84103
6.762
6.71637
6.69014
6.70493
7.07108
7.02485
6.96977
6.90024
6.81746
6.75636
6.72478
6.71902
7.06543
7.02564
6.98343
6.92231
6.83417
6.74499
6.66312
6.64561
7.02933
7.0016
6.96882
6.91454
6.82661
6.73049
6.58976
6.55987
6.97458
6.93996
6.91205
6.87231
6.78498
6.64047
6.25515
5.15308
6.91721
6.86544
6.82344
6.76943
6.67594
6.47518
6.05254
5.0463
6.86904
6.79574
6.72802
6.64933
6.53603
6.30711
5.91388
5.07807
6.83428
6.74586
6.65099
6.54422
6.40379
6.17628
5.80173
5.15118
6.80293
6.71222
6.602
6.47265
6.30864
6.08143
5.74854
5.2516
6.75886
6.67844
6.57165
6.43569
6.26272
6.04199
5.74625
5.35064
6.69666
6.6277
6.53624
6.41561
6.25352
6.04636
5.78208
5.45419
6.6245
6.56033
6.4824
6.38304
6.24562
6.06513
5.84217
5.56595
6.5532
6.48747
6.41529
6.33085
6.22127
6.07457
5.89634
5.66936
6.49323
6.42066
6.34821
6.27085
6.17947
6.05988
5.91932
5.7392
6.45763
6.37304
6.293
6.21426
6.13139
6.02869
5.91417
5.77033
6.44845
6.35513
6.26269
6.17208
6.08668
5.99098
5.89143
5.77193
6.45393
6.36206
6.26147
6.15758
6.05958
5.95935
5.8617
5.75608
6.4552
6.37717
6.28157
6.16949
6.05719
5.94682
5.84326
5.73837
6.43157
6.37409
6.29956
6.20114
6.08674
5.96524
5.84707
5.73318
6.38447
6.33953
6.28698
6.21856
6.12974
6.01667
5.89069
5.75623
6.32216
6.28513
6.25092
6.20808
6.15135
6.06687
5.95205
5.80816
6.25845
6.2273
6.20718
6.18436
6.14924
6.08658
5.9926
5.86089
6.21761
6.18683
6.17129
6.15573
6.12891
6.07685
5.99655
5.88292
6.22255
6.17979
6.14987
6.12294
6.0881
6.0357
5.96044
5.86372
6.25959
6.20657
6.15387
6.09865
6.04102
5.97552
5.90183
5.82212
6.3123
6.24663
6.17208
6.08957
6.00478
5.92351
5.84547
5.7667
6.35724
6.28731
6.19723
6.09428
5.98652
5.88666
5.79923
5.71724
6.39784
6.32428
6.21958
6.09817
5.9725
5.85424
5.75803
5.69152
2.01951
1.01811
0.73673
0.769772
0.872489
1.13929
1.58598
2.02884
2.35331
2.58684
2.84799
3.07108
3.47922
3.93676
4.02995
4.04684
4.11966
4.1887
4.2122
4.17731
4.1143
4.05372
4.00868
3.98242
3.94456
3.89172
3.84297
3.80382
3.78315
3.77479
3.76534
3.7578
3.7586
3.74642
3.7074
3.6536
3.58619
3.48847
3.35849
3.24017
3.1426
3.06767
3.02066
2.98857
2.96826
2.9716
2.99551
3.00396
2.97447
2.93656
2.9149
2.93213
3.0164
3.18788
3.49236
3.85111
3.79959
3.66902
3.62039
3.6152
3.64269
3.68632
3.73731
3.79594
3.83585
3.8291
3.79985
3.74517
3.63045
3.46951
3.3671
3.32215
3.29832
3.28408
3.28524
3.31113
3.35708
3.40112
3.41806
3.41183
3.3949
3.3683
3.31613
3.21727
3.09945
3.03267
2.99902
2.97629
3.00697
2.09954
1.72778
1.5633
1.46002
1.45781
1.54156
1.75769
2.04776
2.34607
2.68523
2.98573
3.38117
3.87622
4.03965
4.11535
4.18725
4.24628
4.27276
4.26263
4.23484
4.1997
4.16721
4.12535
4.06192
3.9886
3.92119
3.86698
3.82705
3.79756
3.76947
3.74268
3.71968
3.69352
3.65126
3.59792
3.53362
3.45686
3.38971
3.32599
3.25026
3.16158
3.08045
3.03009
3.0029
2.99319
2.99487
2.98187
2.95181
2.92086
2.91396
2.96044
3.06394
3.22045
3.45358
3.81343
3.87201
3.74141
3.68296
3.66221
3.67415
3.70895
3.74543
3.7717
3.79022
3.7834
3.75242
3.69406
3.597
3.50512
3.43955
3.38852
3.34958
3.32459
3.3156
3.33002
3.36681
3.3996
3.40395
3.38961
3.36998
3.34051
3.28618
3.20874
3.14184
3.08532
3.03298
3.00386
3.83661
2.99774
2.48805
2.22877
2.03246
1.84229
1.76452
1.83384
2.03345
2.31562
2.59852
2.9156
3.35812
3.89076
4.14995
4.3078
4.33077
4.34887
4.33994
4.33442
4.33578
4.34666
4.33709
4.2957
4.23254
4.1609
4.10103
4.04424
3.97797
3.89811
3.81902
3.75882
3.71108
3.67234
3.62547
3.56867
3.50428
3.45312
3.41653
3.3803
3.33762
3.2821
3.21598
3.14835
3.08836
3.0445
3.00858
2.9733
2.94716
2.93722
2.94409
3.0435
3.15659
3.27593
3.40885
3.70091
3.92823
3.89221
3.82141
3.78249
3.76908
3.77689
3.77875
3.77457
3.76878
3.7525
3.71
3.64593
3.58378
3.54074
3.50158
3.46134
3.42491
3.397
3.38344
3.3859
3.39934
3.40555
3.3994
3.38661
3.36008
3.31572
3.25626
3.20565
3.17254
3.13488
3.08497
3.058
4.38339
3.75427
3.19671
2.85107
2.66595
2.47739
2.25657
2.15441
2.17395
2.26714
2.3676
2.57662
2.96433
3.53566
4.07241
4.50747
4.53152
4.50812
4.46744
4.45763
4.47316
4.50168
4.48171
4.43439
4.37263
4.3112
4.25211
4.18447
4.10069
3.99837
3.88874
3.78987
3.71568
3.66089
3.61386
3.56975
3.53086
3.49992
3.47196
3.44096
3.40862
3.37498
3.33658
3.28757
3.21818
3.12933
3.04501
2.98803
2.96292
2.95832
3.0214
3.17873
3.27463
3.34023
3.40858
3.57756
3.87325
4.00907
3.98391
3.93674
3.89495
3.85478
3.81612
3.77373
3.73366
3.69967
3.67236
3.64169
3.61844
3.5994
3.57522
3.5505
3.52543
3.49931
3.4778
3.46421
3.44905
3.42961
3.4054
3.37308
3.33305
3.28832
3.2522
3.23053
3.21103
3.18488
3.15075
3.13815
4.7138
4.25228
3.80292
3.39853
3.14441
2.97606
2.77127
2.56158
2.4594
2.42853
2.45497
2.5032
2.59466
2.94348
3.62429
4.34516
4.61418
4.62527
4.57871
4.5435
4.52915
4.51034
4.48224
4.45193
4.41321
4.36346
4.2993
4.21314
4.11198
4.01326
3.91887
3.82356
3.73271
3.65642
3.60065
3.56125
3.54067
3.53915
3.53484
3.52213
3.50105
3.47221
3.43296
3.38148
3.30646
3.20766
3.09055
3.00611
2.97234
3.01885
3.15871
3.29918
3.35478
3.39458
3.43377
3.51613
3.72887
4.00201
4.09574
4.06919
4.00626
3.92436
3.8383
3.76292
3.69244
3.65495
3.64106
3.64548
3.6487
3.64363
3.63589
3.62955
3.62452
3.61273
3.58496
3.54136
3.49076
3.44281
3.399
3.34709
3.29955
3.27168
3.25962
3.25677
3.2434
3.22835
3.21803
3.22972
4.95203
4.55989
4.20857
3.86784
3.55656
3.3581
3.20555
3.01687
2.84109
2.73441
2.68913
2.6369
2.64167
2.67142
2.95987
3.72842
4.47464
4.6522
4.61213
4.53215
4.46722
4.41588
4.3868
4.38278
4.37241
4.32497
4.26075
4.17745
4.09427
4.02388
3.95749
3.88605
3.80293
3.71524
3.6476
3.60547
3.58031
3.5761
3.59501
3.58569
3.55342
3.5119
3.45674
3.38624
3.30553
3.2193
3.11698
3.02884
3.04679
3.1784
3.33811
3.40265
3.42121
3.45003
3.48471
3.51215
3.61464
3.86709
4.06949
4.09657
4.05534
3.96091
3.8412
3.72396
3.66469
3.64211
3.62849
3.63386
3.65864
3.68262
3.70022
3.71457
3.71909
3.70189
3.66343
3.5913
3.50599
3.43957
3.37608
3.32074
3.28679
3.26736
3.25892
3.26617
3.26712
3.27074
3.286
3.32255
5.12401
4.7896
4.49012
4.20443
3.92255
3.6701
3.50566
3.36801
3.20936
3.03969
2.93453
2.85591
2.79906
2.77244
2.76796
2.99243
3.77895
4.52341
4.63777
4.54604
4.43723
4.36035
4.3071
4.27129
4.2625
4.25193
4.21077
4.15674
4.10718
4.06615
4.01585
3.95554
3.88538
3.80752
3.73482
3.67794
3.63522
3.59634
3.55447
3.52065
3.49339
3.45725
3.40752
3.34613
3.27784
3.21016
3.14729
3.14169
3.26103
3.40524
3.48524
3.49668
3.49824
3.52055
3.555
3.54932
3.57254
3.69975
3.92126
4.03861
4.03929
3.95998
3.83228
3.72305
3.66988
3.64594
3.63315
3.64351
3.68415
3.74001
3.78083
3.78053
3.7581
3.72808
3.67828
3.59577
3.49626
3.40689
3.34926
3.31623
3.29306
3.27508
3.26413
3.26844
3.2928
3.32411
3.35682
3.41412
5.27335
4.97767
4.68514
4.43847
4.196
3.95728
3.74407
3.60856
3.49131
3.3405
3.18414
3.09213
3.02576
2.94888
2.85919
2.83294
3.05783
3.85191
4.50556
4.57747
4.47433
4.36004
4.28727
4.22998
4.18393
4.15563
4.15255
4.16092
4.14642
4.1075
4.05676
3.99647
3.9331
3.86524
3.79357
3.71863
3.64253
3.57103
3.50772
3.45444
3.40889
3.36321
3.31249
3.25436
3.21437
3.19803
3.23618
3.36945
3.53237
3.5916
3.60071
3.58311
3.57321
3.57402
3.5568
3.5265
3.51741
3.56256
3.67942
3.85397
3.95127
3.92299
3.84051
3.74403
3.69995
3.68003
3.67383
3.69333
3.73096
3.75819
3.76776
3.76721
3.74973
3.72025
3.6675
3.57066
3.45481
3.38703
3.35226
3.32619
3.30457
3.28926
3.28741
3.31183
3.34944
3.37834
3.42169
3.49507
5.41861
5.15197
4.87798
4.61452
4.3966
4.18698
3.97705
3.78794
3.66866
3.56
3.41899
3.28762
3.19065
3.11959
3.0229
2.92691
2.91758
3.14162
3.88442
4.43291
4.48201
4.39763
4.30203
4.22296
4.16303
4.11675
4.08681
4.08193
4.08354
4.06281
4.02429
3.97854
3.91985
3.85568
3.78928
3.71336
3.62421
3.52459
3.43504
3.36838
3.31339
3.26028
3.21128
3.16825
3.16893
3.23289
3.40629
3.62809
3.73402
3.73234
3.69674
3.66023
3.63264
3.60779
3.57553
3.52779
3.48064
3.45284
3.48235
3.58398
3.75082
3.85568
3.84836
3.78646
3.74663
3.73077
3.73324
3.75329
3.76704
3.75663
3.73922
3.72619
3.7066
3.67202
3.60886
3.51396
3.43288
3.38739
3.35997
3.33641
3.31749
3.31264
3.33494
3.3735
3.39954
3.43292
3.51491
3.57489
5.53371
5.30751
5.06172
4.80536
4.57208
4.37105
4.17165
3.97793
3.81318
3.70338
3.5989
3.47214
3.34471
3.25237
3.19517
3.09176
2.99346
2.98349
3.20767
3.89541
4.36625
4.41195
4.34061
4.24408
4.15267
4.09398
4.05001
4.01727
3.99732
3.97886
3.95511
3.91975
3.87496
3.82436
3.76229
3.68312
3.57797
3.47002
3.38318
3.31078
3.24527
3.19008
3.15586
3.14909
3.19492
3.37491
3.63121
3.81701
3.84932
3.82682
3.7711
3.70736
3.65653
3.61465
3.56907
3.50676
3.43833
3.37286
3.36864
3.39879
3.52945
3.72549
3.82675
3.82248
3.8014
3.79441
3.79042
3.77856
3.75696
3.73081
3.70362
3.67747
3.64355
3.59197
3.52539
3.46521
3.42191
3.39307
3.37077
3.35218
3.34442
3.36069
3.39196
3.40886
3.44039
3.5117
3.6104
3.62346
5.60439
5.41545
5.20771
4.98896
4.76387
4.54246
4.34065
4.14748
3.98075
3.83998
3.72843
3.62156
3.49713
3.37661
3.28354
3.22193
3.11977
3.03117
3.03052
3.274
3.91912
4.32115
4.34495
4.265
4.16791
4.08312
4.02687
3.97467
3.92547
3.88351
3.85007
3.82502
3.79608
3.75427
3.7049
3.63914
3.55511
3.45924
3.36784
3.28762
3.21201
3.16554
3.15787
3.18726
3.34511
3.59948
3.80728
3.89667
3.8955
3.86157
3.79808
3.72881
3.66707
3.60591
3.53056
3.45241
3.39072
3.33619
3.31509
3.32309
3.38967
3.55849
3.74305
3.84604
3.85631
3.83859
3.81052
3.77664
3.74253
3.70353
3.65618
3.60619
3.55439
3.50511
3.46619
3.43513
3.41223
3.39494
3.38131
3.37824
3.39039
3.40449
3.40916
3.43252
3.50687
3.59136
3.65375
3.62408
5.63666
5.47895
5.30414
5.11876
4.92751
4.73006
4.5175
4.31343
4.13285
3.99017
3.86476
3.74079
3.61982
3.49474
3.38713
3.30649
3.2394
3.13351
3.04997
3.06199
3.31462
3.91767
4.254
4.25334
4.17463
4.09035
4.01415
3.93753
3.86456
3.80801
3.764
3.7279
3.70521
3.67592
3.63591
3.58928
3.52919
3.4547
3.37582
3.28947
3.2058
3.1857
3.20822
3.34877
3.5959
3.79072
3.88495
3.90116
3.88427
3.84923
3.79504
3.73062
3.66322
3.57929
3.49027
3.4304
3.38649
3.34024
3.31188
3.30214
3.33225
3.43579
3.61706
3.79741
3.85591
3.8448
3.81234
3.76703
3.71573
3.65755
3.58711
3.52297
3.48685
3.46333
3.44291
3.42323
3.41433
3.41438
3.41819
3.42095
3.4114
3.40573
3.42272
3.48202
3.56733
3.6279
3.62328
3.58279
5.64105
5.50667
5.35948
5.2011
5.03216
4.86266
4.68792
4.49284
4.30194
4.13479
3.9934
3.86406
3.73727
3.60967
3.48635
3.3877
3.30631
3.22212
3.11349
3.04204
3.06218
3.32007
3.8716
4.17015
4.15789
4.08441
3.9978
3.91011
3.82727
3.75807
3.70826
3.6657
3.62936
3.60297
3.57762
3.54179
3.49893
3.44648
3.3831
3.31021
3.24459
3.24513
3.34195
3.60326
3.8017
3.86924
3.88039
3.85984
3.83242
3.80106
3.75984
3.70581
3.63515
3.55238
3.47809
3.4264
3.39017
3.36075
3.3348
3.31985
3.32854
3.37609
3.49035
3.67477
3.79675
3.81514
3.79388
3.73957
3.66649
3.58838
3.52102
3.4906
3.47302
3.45302
3.43541
3.43164
3.44678
3.4599
3.45604
3.44279
3.42719
3.42314
3.45639
3.52867
3.58891
3.58186
3.54882
3.53844
5.62797
5.50764
5.38007
5.24367
5.09696
4.94603
4.79759
4.64247
4.46924
4.29075
4.1261
3.98177
3.84839
3.71959
3.59014
3.46575
3.37324
3.28988
3.19322
3.08306
3.02005
3.04685
3.30247
3.82078
4.08228
4.05877
3.9781
3.88832
3.80241
3.72564
3.66816
3.62371
3.58484
3.55186
3.52396
3.49748
3.47702
3.44476
3.39537
3.34385
3.30542
3.37163
3.58939
3.8278
3.89714
3.88654
3.83796
3.79319
3.76373
3.74084
3.70988
3.66733
3.61486
3.54997
3.4865
3.44667
3.42187
3.40402
3.38996
3.37592
3.35781
3.3511
3.38817
3.49576
3.64059
3.71425
3.72337
3.6835
3.60816
3.53244
3.49323
3.47413
3.46192
3.45209
3.45428
3.47953
3.49812
3.48641
3.46617
3.45014
3.44608
3.46005
3.49498
3.54626
3.55271
3.51842
3.49852
3.49905
5.61577
5.49358
5.37203
5.25183
5.1224
4.9916
4.86711
4.73901
4.59318
4.4337
4.26824
4.10765
3.9608
3.82234
3.68691
3.5529
3.42821
3.33868
3.25589
3.15776
3.05504
3.00144
3.02882
3.28075
3.75342
3.97796
3.95629
3.8735
3.77805
3.69248
3.63035
3.58938
3.55135
3.5157
3.48399
3.45584
3.41904
3.37137
3.34347
3.34299
3.41258
3.62239
3.82944
3.91897
3.91224
3.86151
3.7868
3.73884
3.70955
3.69395
3.67886
3.64645
3.60423
3.55589
3.52333
3.50122
3.48409
3.46591
3.44279
3.41301
3.3675
3.33159
3.31839
3.34467
3.41038
3.51328
3.59171
3.59752
3.56074
3.50859
3.47871
3.46148
3.45214
3.46355
3.50853
3.52271
3.50332
3.48023
3.46754
3.47135
3.48157
3.49531
3.52521
3.52255
3.51859
3.50207
3.484
3.48469
5.61817
5.48283
5.3553
5.23533
5.11947
5.00469
4.89629
4.79709
4.67763
4.53497
4.38727
4.23376
4.07645
3.923
3.77379
3.62957
3.49731
3.38618
3.30349
3.2242
3.12546
3.0268
2.97792
3.00286
3.24658
3.65981
3.87702
3.858
3.76912
3.66676
3.58833
3.54772
3.51473
3.48185
3.44627
3.40072
3.34121
3.30121
3.31324
3.38942
3.62922
3.86522
3.94049
3.92773
3.88925
3.82753
3.76999
3.72911
3.69668
3.67382
3.66207
3.63939
3.6129
3.59411
3.58111
3.56019
3.53295
3.49897
3.457
3.40979
3.35911
3.31024
3.26812
3.23709
3.24031
3.30185
3.42299
3.5159
3.52622
3.49682
3.47584
3.4642
3.47459
3.50924
3.51002
3.49289
3.4741
3.4695
3.48243
3.50845
3.54814
3.57574
3.57656
3.55699
3.52853
3.50664
3.48994
3.49879
5.64549
5.48789
5.34715
5.22101
5.1062
4.99805
4.89878
4.81189
4.72675
4.61136
4.47357
4.32866
4.17744
4.02025
3.86136
3.70845
3.56992
3.44936
3.34567
3.26589
3.18407
3.08801
2.99581
2.94851
2.97746
3.19863
3.56957
3.77147
3.74952
3.65471
3.56492
3.50537
3.4689
3.43532
3.39087
3.33211
3.27358
3.26932
3.31688
3.54078
3.86166
3.97662
3.95877
3.91096
3.86091
3.81477
3.77013
3.73496
3.70471
3.68281
3.66583
3.65349
3.64522
3.63259
3.60893
3.57863
3.54085
3.49831
3.4511
3.39567
3.33752
3.28358
3.23571
3.19431
3.18057
3.19756
3.28051
3.41727
3.49914
3.50365
3.4939
3.49603
3.50703
3.4951
3.46995
3.44541
3.43401
3.4486
3.49055
3.54493
3.61275
3.63359
3.62386
3.60531
3.5775
3.55894
3.54999
3.56214
5.6995
5.52858
5.36439
5.22177
5.10153
4.99293
4.89563
4.80911
4.73305
4.64483
4.52851
4.39537
4.25172
4.10179
3.94562
3.78976
3.64503
3.51314
3.39824
3.3067
3.22262
3.13096
3.03454
2.94487
2.90213
2.9349
3.13368
3.46263
3.65449
3.63821
3.56466
3.48323
3.41776
3.36966
3.31474
3.2651
3.24126
3.27137
3.46157
3.78628
3.97913
3.99203
3.96288
3.91664
3.86961
3.8276
3.79695
3.76775
3.73812
3.70976
3.68422
3.66443
3.64237
3.61704
3.58997
3.55881
3.52035
3.47399
3.42225
3.37042
3.31975
3.27054
3.22467
3.18317
3.16509
3.16772
3.20459
3.32283
3.44631
3.5217
3.53749
3.5309
3.50853
3.47168
3.43596
3.40513
3.39534
3.41545
3.4792
3.56803
3.63778
3.66838
3.66247
3.6486
3.63523
3.63089
3.64054
3.6219
5.74376
5.58513
5.41853
5.25557
5.10995
4.99893
4.90233
4.81055
4.7238
4.64048
4.54544
4.42847
4.29954
4.15853
4.00941
3.85981
3.71637
3.58262
3.45856
3.3479
3.25127
3.1654
3.07952
2.98079
2.88922
2.84202
2.86151
3.03727
3.34117
3.55274
3.54529
3.47013
3.38521
3.30186
3.23895
3.22465
3.24302
3.40195
3.7421
3.95527
3.99866
3.98273
3.95674
3.92489
3.89159
3.86364
3.83705
3.80636
3.76999
3.72772
3.6847
3.65061
3.62057
3.5911
3.55955
3.52268
3.47913
3.43282
3.39009
3.35067
3.30852
3.26329
3.2202
3.18478
3.16251
3.15688
3.17994
3.25604
3.36776
3.47895
3.53467
3.52702
3.49631
3.44604
3.39834
3.36123
3.35471
3.40334
3.49386
3.57802
3.63835
3.67355
3.68338
3.68556
3.69242
3.69592
3.69515
3.65427
5.75278
5.62672
5.48169
5.32988
5.18271
5.04252
4.92483
4.82745
4.72631
4.62541
4.53233
4.43292
4.31422
4.18596
4.05116
3.91127
3.77386
3.64456
3.52103
3.40191
3.29035
3.18975
3.10213
3.01446
2.9122
2.82934
2.77084
2.78432
2.94741
3.25566
3.45402
3.44331
3.3649
3.25929
3.20464
3.21757
3.33964
3.69654
3.95258
4.0031
3.98595
3.97744
3.96049
3.93847
3.91553
3.89076
3.86008
3.82259
3.77858
3.72773
3.67459
3.62755
3.5892
3.55487
3.51985
3.4836
3.44828
3.41288
3.37733
3.34154
3.30251
3.26023
3.22674
3.20452
3.18919
3.18815
3.19266
3.21306
3.27449
3.38478
3.48421
3.49409
3.47208
3.41359
3.35744
3.32135
3.3531
3.43888
3.53329
3.59682
3.63744
3.66886
3.7082
3.73878
3.73497
3.71919
3.70476
3.65599
5.73289
5.63073
5.51489
5.38333
5.24952
5.12017
4.9937
4.86304
4.73785
4.61864
4.51016
4.4118
4.31055
4.19283
4.06772
3.94027
3.81444
3.69352
3.57635
3.45896
3.34012
3.22596
3.1244
3.03225
2.9371
2.83205
2.7517
2.69616
2.71583
2.88307
3.17014
3.34572
3.32435
3.24835
3.21854
3.30167
3.61289
3.9604
3.99788
3.99808
3.97909
3.9783
3.97322
3.95105
3.92459
3.8942
3.86033
3.82176
3.7751
3.71846
3.65572
3.60259
3.5628
3.53076
3.50153
3.47225
3.44058
3.40795
3.37609
3.34482
3.3137
3.28206
3.25724
3.23899
3.21604
3.18855
3.17067
3.16171
3.17303
3.2259
3.32769
3.40002
3.40803
3.37049
3.34006
3.37652
3.4605
3.54759
3.60395
3.62947
3.65596
3.70006
3.72524
3.71085
3.7013
3.69042
3.67713
3.62171
5.68709
5.60697
5.52604
5.43035
5.31317
5.18808
5.04818
4.89968
4.75248
4.62556
4.50334
4.3877
4.28502
4.18417
4.07092
3.95544
3.8421
3.73247
3.62344
3.51058
3.39074
3.26538
3.14522
3.04048
2.94794
2.85025
2.75257
2.6774
2.62884
2.65101
2.80888
3.07119
3.21413
3.23723
3.32258
3.57902
3.91086
4.05685
4.01913
3.99067
3.97433
3.97088
3.97071
3.94995
3.92068
3.88877
3.85527
3.81614
3.76655
3.70355
3.64098
3.59467
3.55849
3.52664
3.49747
3.47062
3.44606
3.42263
3.40041
3.37869
3.35378
3.32081
3.27627
3.23294
3.19988
3.16556
3.13152
3.10117
3.08569
3.09431
3.14259
3.22988
3.31612
3.36895
3.42484
3.50968
3.61034
3.67378
3.69636
3.70063
3.70738
3.72105
3.70955
3.68803
3.66777
3.64073
3.60043
3.52863
5.63896
5.57285
5.50946
5.43475
5.34385
5.22451
5.08536
4.94189
4.79373
4.64493
4.50443
4.37191
4.25372
4.1592
4.06598
3.96225
3.86044
3.75965
3.65634
3.54696
3.42724
3.29696
3.16778
3.05133
2.95178
2.8622
2.76872
2.68093
2.60881
2.5563
2.58318
2.73864
3.00669
3.23871
3.56736
3.91848
4.05335
4.04326
4.00467
3.98042
3.96719
3.96365
3.96292
3.94641
3.91468
3.88113
3.84678
3.80871
3.75888
3.69282
3.63265
3.59212
3.55997
3.53149
3.50542
3.48529
3.47193
3.45848
3.4424
3.42094
3.39216
3.34951
3.2893
3.23243
3.1876
3.14498
3.10065
3.05709
3.02857
3.0194
3.03803
3.09929
3.21687
3.37481
3.52202
3.64372
3.73531
3.77534
3.78
3.77549
3.76452
3.74001
3.7069
3.6771
3.64299
3.59056
3.51507
3.44623
5.64258
5.58941
5.52718
5.46123
5.37906
5.25711
5.11883
4.97614
4.82274
4.65487
4.48736
4.35032
4.23643
4.14167
4.06353
3.97039
3.87322
3.77559
3.67603
3.57209
3.45747
3.32342
3.17724
3.04893
2.94723
2.86301
2.78132
2.69197
2.6056
2.52277
2.49616
2.54184
2.77297
3.2489
3.77272
4.1568
4.18324
4.08776
4.00348
3.97364
3.96323
3.95672
3.95589
3.94153
3.90894
3.87495
3.84
3.80139
3.75178
3.68307
3.62451
3.59341
3.56753
3.54249
3.5255
3.5175
3.50379
3.48338
3.45983
3.43329
3.40036
3.35308
3.28713
3.21685
3.16036
3.11361
3.06997
3.02705
2.99379
2.97533
2.98236
3.03864
3.16577
3.37236
3.59129
3.76943
3.86085
3.88611
3.87503
3.84556
3.81202
3.77207
3.72187
3.65647
3.58384
3.51053
3.44181
3.40766
)
;

boundaryField
{
    inlet
    {
        type            calculated;
        value           uniform 1.40001;
    }
    outlet
    {
        type            calculated;
        value           nonuniform List<scalar> 
24
(
2.97555
3.00373
3.05779
3.13779
3.22898
3.32162
3.41357
3.49604
3.57803
3.62831
3.6292
3.58456
3.53747
3.4959
3.4811
3.49439
3.55879
3.62205
3.6556
3.65719
3.62371
3.53131
3.44719
3.40681
)
;
    }
    bottom
    {
        type            calculated;
        value           nonuniform List<scalar> 
24
(
121.05
13.8743
7.56522
7.5775
7.58732
7.59789
7.60989
7.62261
7.63594
7.64976
7.66485
7.68133
7.69887
7.71714
7.73663
7.75811
7.78147
7.80529
7.82731
7.84559
7.85885
7.86715
7.87418
7.88149
)
;
    }
    top
    {
        type            calculated;
        value           nonuniform List<scalar> 
120
(
114.903
13.0621
6.77739
6.76154
6.73128
6.69432
6.67434
6.6664
6.67432
6.70129
6.73957
6.76587
6.77292
6.75024
6.69265
6.61831
6.53793
6.46995
6.41995
6.40188
6.40626
6.41688
6.42865
6.42929
6.39784
6.32428
6.21958
6.09817
5.9725
5.85424
5.75803
5.69152
5.64258
5.58941
5.52718
5.46123
5.37906
5.25711
5.11883
4.97614
4.82274
4.65487
4.48736
4.35032
4.23643
4.14167
4.06353
3.97039
3.87322
3.77559
3.67603
3.57209
3.45747
3.32342
3.17724
3.04893
2.94723
2.86301
2.78132
2.69197
2.6056
2.52277
2.49616
2.54184
2.77297
3.2489
3.77272
4.1568
4.18324
4.08776
4.00348
3.97364
3.96323
3.95672
3.95589
3.94153
3.90894
3.87495
3.84
3.80139
3.75178
3.68307
3.62451
3.59341
3.56753
3.54249
3.5255
3.5175
3.50379
3.48338
3.45983
3.43329
3.40036
3.35308
3.28713
3.21685
3.16036
3.11361
3.06997
3.02705
2.99379
2.97533
2.98236
3.03864
3.16577
3.37236
3.59129
3.76943
3.86085
3.88611
3.87503
3.84556
3.81202
3.77207
3.72187
3.65647
3.58384
3.51053
3.44181
3.40766
)
;
    }
    obstacle
    {
        type            calculated;
        value           nonuniform List<scalar> 
112
(
7.88149
7.86895
7.85111
7.82174
7.78987
7.72879
7.64722
7.64345
6.06512
6.50331
6.68568
6.73746
6.70117
6.64873
6.59768
6.57081
6.57081
6.5841
6.62681
6.67846
6.70493
6.71902
6.64561
6.55987
2.01951
1.01811
0.73673
0.769772
0.872489
1.13929
1.58598
2.02884
2.35331
2.58684
2.84799
3.07108
3.47922
3.93676
4.02995
4.04684
4.11966
4.1887
4.2122
4.17731
4.1143
4.05372
4.00868
3.98242
3.94456
3.89172
3.84297
3.80382
3.78315
3.77479
3.76534
3.7578
3.7586
3.74642
3.7074
3.6536
3.58619
3.48847
3.35849
3.24017
3.1426
3.06767
3.02066
2.98857
2.96826
2.9716
2.99551
3.00396
2.97447
2.93656
2.9149
2.93213
3.0164
3.18788
3.49236
3.85111
3.79959
3.66902
3.62039
3.6152
3.64269
3.68632
3.73731
3.79594
3.83585
3.8291
3.79985
3.74517
3.63045
3.46951
3.3671
3.32215
3.29832
3.28408
3.28524
3.31113
3.35708
3.40112
3.41806
3.41183
3.3949
3.3683
3.31613
3.21727
3.09945
3.03267
2.99902
2.97629
)
;
    }
    defaultFaces
    {
        type            empty;
    }
}


// ************************************************************************* //
