/*--------------------------------*- C++ -*----------------------------------*\
  =========                 |
  \\      /  F ield         | OpenFOAM: The Open Source CFD Toolbox
   \\    /   O peration     | Website:  https://openfoam.org
    \\  /    A nd           | Version:  7
     \\/     M anipulation  |
\*---------------------------------------------------------------------------*/
FoamFile
{
    version     2.0;
    format      ascii;
    class       volScalarField;
    location    "0.7";
    object      T;
}
// * * * * * * * * * * * * * * * * * * * * * * * * * * * * * * * * * * * * * //

dimensions      [0 0 0 1 0 0 0];

internalField   nonuniform List<scalar> 
16192
(
1.04993
1.05676
1.06304
1.06376
1.06356
1.06188
1.05137
1.03308
1.02662
1.02731
1.02931
1.03199
1.03581
1.0432
1.05839
1.07953
1.08983
1.09004
1.0878
1.08282
1.07503
1.06175
1.049
1.04473
1.0454
1.04882
1.05655
1.06689
1.07309
1.07576
1.07667
1.07401
1.06486
1.06077
1.06214
1.06444
1.06665
1.0706
1.08008
1.08958
1.08944
1.08288
1.07033
1.05283
1.03329
1.015
1.00735
1.00713
1.00948
1.01635
1.02957
1.04725
1.05699
1.05764
1.05626
1.05071
1.0378
1.0167
0.996518
0.987813
0.984941
0.983841
0.984764
0.993648
1.0111
1.02127
1.02451
1.02718
1.02878
1.02845
1.02433
1.01521
1.01037
1.00907
1.00722
1.00272
0.994721
0.981921
0.967325
0.959553
0.957384
0.956971
0.957437
0.962072
0.977419
1.00247
1.02026
1.02751
1.03175
1.03375
1.03385
1.03275
1.02632
1.00977
0.985281
0.968593
0.962393
0.95888
0.955583
0.953
0.952101
0.952118
0.952883
0.955702
0.961863
0.970339
0.980559
0.9956
1.01487
1.02524
1.02614
1.02605
1.02547
1.02331
1.01715
1.0033
0.984897
0.976014
0.974477
0.974085
0.97475
0.9803
0.989092
0.99115
0.990744
0.989242
0.985167
0.975362
0.961416
0.955943
0.955929
0.957045
0.960543
0.968665
0.984215
1.00257
1.01005
1.01055
1.01044
1.00965
1.00647
0.996604
0.982042
0.97693
0.97711
0.977496
0.97979
0.988495
1.00212
1.00845
1.01003
1.01086
1.01096
1.00826
1.00088
0.996314
0.994622
0.992723
0.99188
0.993286
1.00304
1.02087
1.02945
1.03099
1.03173
1.03215
1.03206
1.03069
1.02538
1.01676
1.01167
1.00995
1.00927
1.00926
1.01006
1.01174
1.01345
1.01537
1.01802
1.02141
1.02454
1.02681
1.02811
1.02829
1.02817
1.02768
1.02635
1.02332
1.01896
1.01506
1.01197
1.00916
1.00751
1.00719
1.00721
1.0074
1.00834
1.01135
1.01706
1.02241
1.02498
1.02633
1.02689
1.02671
1.02601
1.02595
1.02632
1.02691
1.02785
1.03011
1.03235
1.03242
1.03162
1.03003
1.02784
1.02317
1.01321
1.00243
0.999292
0.998904
0.998597
0.99849
0.999274
1.0043
1.01888
1.03857
1.04707
1.04849
1.04922
1.04997
1.05025
1.04989
1.0462
1.0346
1.02268
1.01986
1.01958
1.01935
1.01931
1.02015
1.024
1.02927
1.03073
1.03077
1.03082
1.03093
1.03097
1.03093
1.0309
1.03086
1.03055
1.02947
1.02868
1.09253
1.09867
1.0993
1.09813
1.09479
1.08758
1.08114
1.08013
1.08583
1.0959
1.10672
1.11747
1.13025
1.15005
1.17564
1.19155
1.19493
1.19464
1.19141
1.18289
1.16835
1.15141
1.14262
1.14224
1.1444
1.15282
1.16556
1.17473
1.18037
1.18328
1.18182
1.17227
1.16481
1.16525
1.16794
1.17144
1.17835
1.19289
1.20883
1.21444
1.21235
1.20456
1.19264
1.17053
1.13187
1.09952
1.08992
1.08918
1.09148
1.10125
1.12326
1.14803
1.15824
1.15981
1.15945
1.15265
1.12959
1.09638
1.07177
1.05751
1.04755
1.04142
1.04073
1.0475
1.05726
1.06051
1.06248
1.06349
1.06306
1.05904
1.04914
1.0398
1.03507
1.03122
1.02545
1.01567
1.00054
0.983098
0.97155
0.966037
0.96299
0.961663
0.962208
0.969102
0.989451
1.01288
1.02318
1.02791
1.03282
1.03614
1.03662
1.03542
1.02602
1.00276
0.980065
0.970938
0.9662
0.961251
0.956838
0.953759
0.952768
0.952799
0.953374
0.955664
0.961039
0.96973
0.983491
1.00381
1.02231
1.02763
1.02791
1.02792
1.02761
1.02554
1.01683
0.998469
0.982505
0.978078
0.977109
0.976955
0.979083
0.987391
0.9935
0.993767
0.992911
0.99034
0.983628
0.969965
0.958417
0.956472
0.956625
0.957718
0.961954
0.973071
0.992453
1.00768
1.01114
1.0115
1.01157
1.01106
1.00672
0.993747
0.979485
0.976434
0.976428
0.976533
0.979167
0.988413
0.998325
1.00179
1.00357
1.00483
1.00488
1.00113
0.994509
0.992797
0.991952
0.99058
0.990412
0.993876
1.00789
1.02402
1.02885
1.0301
1.03122
1.03197
1.03195
1.03053
1.02475
1.01658
1.01286
1.01118
1.00984
1.00952
1.00981
1.01067
1.01142
1.01249
1.01447
1.01783
1.02186
1.0255
1.02837
1.02965
1.02972
1.02961
1.0289
1.02658
1.02255
1.01818
1.01406
1.01055
1.00851
1.00751
1.00717
1.00715
1.00768
1.01049
1.01629
1.02129
1.02388
1.0256
1.02648
1.02646
1.02615
1.02634
1.02705
1.0278
1.02868
1.0306
1.03248
1.03252
1.03171
1.03012
1.02749
1.02148
1.01038
1.00205
1.00053
1.00026
0.999955
1.00001
1.00187
1.01015
1.0284
1.04382
1.04717
1.04767
1.04827
1.04894
1.04912
1.04819
1.04184
1.0286
1.02145
1.02088
1.02084
1.02079
1.02109
1.02302
1.02739
1.0307
1.03137
1.03139
1.03135
1.03133
1.03134
1.03145
1.0317
1.0318
1.03149
1.03013
1.02901
1.23388
1.23742
1.23783
1.23434
1.21874
1.20007
1.19294
1.19436
1.19847
1.20468
1.214
1.22747
1.24724
1.27346
1.29406
1.29883
1.29843
1.29649
1.29152
1.28083
1.26088
1.24293
1.23762
1.23734
1.23962
1.24703
1.25336
1.25562
1.25544
1.2526
1.24151
1.22879
1.22533
1.22556
1.22711
1.23266
1.24527
1.2645
1.27729
1.27969
1.27837
1.27125
1.26193
1.24958
1.22655
1.20138
1.1902
1.18723
1.18761
1.19394
1.21025
1.22761
1.23597
1.23782
1.23819
1.23437
1.2175
1.195
1.17761
1.16474
1.15449
1.14923
1.151
1.15385
1.15276
1.15218
1.15399
1.15711
1.15762
1.1536
1.14443
1.13875
1.13575
1.13083
1.11887
1.09798
1.07299
1.0498
1.03065
1.01491
1.00396
0.998287
0.99724
1.00362
1.02256
1.03607
1.03951
1.04232
1.0463
1.04725
1.04596
1.03953
1.02233
0.996893
0.981611
0.975405
0.969847
0.96367
0.958538
0.95495
0.953517
0.95345
0.953667
0.955188
0.960237
0.971165
0.989864
1.01262
1.02579
1.02885
1.02971
1.02997
1.02985
1.02647
1.01332
0.992792
0.982993
0.980994
0.980178
0.980478
0.985214
0.993958
0.996419
0.996041
0.994454
0.990204
0.980027
0.964715
0.957915
0.9576
0.957647
0.958823
0.964588
0.979651
1.00012
1.01023
1.01208
1.01279
1.01308
1.01226
1.00598
0.990519
0.978965
0.977095
0.976639
0.976771
0.980538
0.989744
0.994774
0.996637
0.998438
0.999937
0.999433
0.993762
0.988415
0.988335
0.988221
0.987918
0.988804
0.99588
1.01319
1.02549
1.02787
1.02899
1.03039
1.03143
1.03143
1.02972
1.0234
1.01611
1.01358
1.01235
1.01068
1.00965
1.00966
1.00994
1.01006
1.01047
1.01166
1.01456
1.01889
1.02367
1.0284
1.03083
1.03104
1.031
1.03057
1.02906
1.02601
1.02168
1.01629
1.01219
1.00994
1.00832
1.00728
1.007
1.00741
1.01048
1.01645
1.02065
1.02293
1.02477
1.02583
1.02583
1.02552
1.02591
1.02704
1.02804
1.02908
1.03106
1.03296
1.03303
1.03229
1.03063
1.02714
1.01928
1.00788
1.00239
1.00194
1.00174
1.00163
1.00217
1.00595
1.01782
1.03649
1.04581
1.0467
1.04679
1.04708
1.0475
1.04745
1.04513
1.03587
1.02441
1.02153
1.02159
1.02183
1.02222
1.02343
1.02664
1.03048
1.03192
1.03219
1.0323
1.03233
1.03232
1.03235
1.03246
1.03263
1.03265
1.03208
1.03016
1.02913
1.32901
1.32897
1.32715
1.31874
1.29772
1.27579
1.26676
1.26315
1.26243
1.26296
1.26775
1.28187
1.30755
1.33058
1.33589
1.33578
1.33293
1.32742
1.31661
1.30089
1.28464
1.27607
1.27376
1.27353
1.27653
1.28011
1.28032
1.27914
1.274
1.26141
1.247
1.24106
1.24086
1.24187
1.24549
1.25541
1.27368
1.29061
1.29595
1.29559
1.29195
1.28335
1.27105
1.25803
1.24582
1.23847
1.23513
1.2347
1.2362
1.24225
1.24918
1.25373
1.25666
1.25675
1.25405
1.24757
1.23676
1.22914
1.2233
1.21616
1.21275
1.21391
1.21743
1.21645
1.21122
1.2093
1.20983
1.21104
1.21091
1.20915
1.20891
1.21064
1.21216
1.21105
1.20228
1.18356
1.16489
1.14961
1.13372
1.11627
1.10264
1.09521
1.09393
1.10096
1.11119
1.11201
1.11248
1.11469
1.11775
1.1186
1.11484
1.09601
1.06153
1.0316
1.01368
0.999449
0.985378
0.972882
0.963933
0.958684
0.956092
0.955153
0.955074
0.956307
0.962048
0.976267
0.999228
1.01918
1.02694
1.02956
1.03111
1.0318
1.03128
1.02508
1.00703
0.990216
0.985405
0.983965
0.983463
0.985048
0.99258
0.998556
0.998824
0.997791
0.994958
0.988484
0.974741
0.961974
0.959133
0.958842
0.958834
0.960535
0.96894
0.987822
1.00548
1.01115
1.01276
1.01399
1.01436
1.01294
1.00389
0.987907
0.980196
0.978631
0.97799
0.978542
0.984082
0.991686
0.993769
0.994578
0.99592
0.996593
0.994282
0.986483
0.983161
0.983618
0.984362
0.98529
0.988498
0.99951
1.01774
1.02564
1.0268
1.02781
1.02933
1.03028
1.03008
1.02761
1.02067
1.01524
1.01386
1.01293
1.01148
1.00999
1.00931
1.00921
1.00899
1.00898
1.00975
1.01209
1.01629
1.0223
1.02826
1.03118
1.03186
1.03193
1.03181
1.03113
1.02918
1.02478
1.01822
1.01389
1.01158
1.00952
1.00785
1.00734
1.00798
1.01198
1.01775
1.02061
1.02229
1.02391
1.02471
1.02445
1.02402
1.02474
1.02653
1.02799
1.0295
1.03181
1.0336
1.0337
1.03308
1.03117
1.02634
1.01632
1.00619
1.00361
1.00355
1.00341
1.00349
1.00494
1.01108
1.02581
1.04192
1.04667
1.04682
1.04662
1.04644
1.04629
1.04539
1.04074
1.02989
1.02252
1.02186
1.02224
1.02305
1.02421
1.02661
1.03041
1.03267
1.03305
1.03317
1.03337
1.03365
1.03373
1.03365
1.03348
1.03339
1.03311
1.03181
1.02956
1.02882
1.3484
1.34724
1.3397
1.32522
1.30853
1.29624
1.28888
1.2845
1.28269
1.2833
1.28961
1.30766
1.33253
1.3429
1.3435
1.34331
1.33898
1.32903
1.31592
1.29731
1.28629
1.28332
1.28211
1.28264
1.28643
1.28814
1.28749
1.28198
1.27129
1.25529
1.24224
1.24013
1.24123
1.24436
1.2516
1.26729
1.2874
1.29787
1.29901
1.29759
1.29223
1.28343
1.26836
1.2531
1.24631
1.24498
1.24633
1.2516
1.25894
1.26147
1.26146
1.2611
1.2591
1.25627
1.25064
1.24219
1.23805
1.2355
1.23369
1.23371
1.2359
1.24151
1.24271
1.23825
1.23088
1.22636
1.2227
1.21925
1.21771
1.21792
1.22151
1.22703
1.22933
1.22776
1.21956
1.20731
1.19783
1.19004
1.18214
1.17424
1.1674
1.16631
1.1707
1.18085
1.18336
1.18358
1.18514
1.18834
1.1928
1.19686
1.19645
1.18549
1.15921
1.13632
1.11982
1.10093
1.07578
1.04693
1.01957
0.998845
0.986285
0.979248
0.976051
0.975675
0.980049
0.994913
1.0156
1.02633
1.02916
1.03123
1.03295
1.03349
1.03187
1.02051
1.00053
0.991014
0.988948
0.987638
0.987557
0.991246
0.999101
1.0013
1.00074
0.998624
0.994309
0.984566
0.96932
0.96178
0.960756
0.960384
0.960502
0.963515
0.975655
0.996028
1.00811
1.0113
1.0131
1.01471
1.01507
1.01247
1.00051
0.986845
0.982473
0.981176
0.980635
0.981759
0.988343
0.993407
0.993724
0.993928
0.994596
0.994055
0.988349
0.980115
0.978885
0.979775
0.981363
0.983665
0.989772
1.00461
1.02104
1.02511
1.02563
1.02636
1.02762
1.02865
1.02825
1.02415
1.01699
1.01428
1.01388
1.01326
1.01195
1.01028
1.00915
1.00863
1.0084
1.00843
1.0089
1.01073
1.01491
1.0215
1.0277
1.03073
1.03205
1.0328
1.03293
1.0328
1.03162
1.0264
1.01923
1.01552
1.0133
1.01099
1.00925
1.0089
1.01017
1.01544
1.01976
1.02094
1.0218
1.02275
1.02297
1.02232
1.02198
1.0232
1.02576
1.02777
1.0298
1.03248
1.03405
1.03408
1.03349
1.03123
1.0249
1.01361
1.00618
1.00544
1.00529
1.00519
1.00557
1.00825
1.01707
1.03345
1.0452
1.04712
1.04709
1.04673
1.04611
1.04519
1.04272
1.03556
1.02569
1.02234
1.02239
1.02321
1.02468
1.02685
1.03021
1.03309
1.0339
1.03403
1.03414
1.0345
1.03488
1.03487
1.03458
1.03418
1.03382
1.03307
1.03134
1.02905
1.02853
1.34856
1.34272
1.33155
1.31573
1.30456
1.29839
1.29295
1.29051
1.29033
1.29234
1.30357
1.32336
1.34103
1.34584
1.34501
1.34214
1.33715
1.3251
1.30507
1.29017
1.28475
1.28338
1.28359
1.28813
1.29161
1.29052
1.28632
1.27742
1.25912
1.24098
1.23648
1.23669
1.23894
1.24487
1.25675
1.27705
1.29225
1.29436
1.29432
1.29227
1.28342
1.2667
1.24907
1.24258
1.24241
1.24385
1.2501
1.26256
1.27007
1.2711
1.26995
1.26481
1.25523
1.24184
1.23296
1.23208
1.23242
1.23357
1.23685
1.24266
1.25091
1.25614
1.25597
1.24934
1.23891
1.23061
1.22235
1.21494
1.2131
1.21447
1.22083
1.22694
1.22804
1.2258
1.21556
1.20724
1.20334
1.19994
1.19633
1.19322
1.19313
1.19603
1.20533
1.21141
1.21166
1.21214
1.21357
1.21572
1.21778
1.21844
1.21691
1.20995
1.19964
1.1925
1.18761
1.18025
1.16691
1.14695
1.12272
1.0966
1.07443
1.06145
1.05489
1.05316
1.05542
1.0679
1.07254
1.07126
1.067
1.05923
1.04997
1.04156
1.03151
1.01462
1.00043
0.996979
0.995378
0.994277
0.994937
1.00018
1.00433
1.00406
1.00216
0.998903
0.992209
0.978765
0.966354
0.963071
0.96243
0.962125
0.96273
0.968329
0.984632
1.00241
1.00894
1.01112
1.01316
1.01484
1.01487
1.01022
0.996549
0.987416
0.985284
0.98419
0.983874
0.985919
0.992828
0.995356
0.99496
0.994352
0.993903
0.990615
0.981472
0.975794
0.975882
0.977379
0.979742
0.983852
0.993078
1.01059
1.02297
1.02454
1.02458
1.02478
1.02545
1.026
1.02458
1.01808
1.01261
1.01241
1.01271
1.01239
1.01137
1.00997
1.00888
1.00837
1.00825
1.00832
1.00891
1.01072
1.01465
1.02093
1.02687
1.03004
1.0318
1.03307
1.03383
1.03401
1.03235
1.02631
1.01981
1.01714
1.01506
1.01284
1.01146
1.01136
1.01362
1.0191
1.02108
1.02102
1.02094
1.02104
1.02084
1.01987
1.01979
1.02159
1.02482
1.02748
1.03012
1.03296
1.03409
1.03406
1.03348
1.03077
1.02305
1.01219
1.00786
1.0076
1.00738
1.00733
1.00808
1.01209
1.02323
1.0393
1.04657
1.04712
1.04703
1.04664
1.04578
1.044
1.03967
1.03099
1.02404
1.02305
1.02339
1.02462
1.02662
1.02941
1.03238
1.03377
1.03402
1.03418
1.03451
1.0351
1.03539
1.03532
1.035
1.03454
1.03402
1.033
1.03088
1.02863
1.0283
1.33861
1.32456
1.31028
1.30253
1.29835
1.29616
1.2948
1.2945
1.29615
1.303
1.31758
1.33553
1.33849
1.33873
1.33831
1.33339
1.32196
1.30491
1.29056
1.2851
1.28354
1.28328
1.28851
1.29383
1.29284
1.28827
1.27873
1.26185
1.24323
1.23558
1.23459
1.23576
1.24027
1.25101
1.26732
1.27953
1.28042
1.27994
1.27732
1.27002
1.25703
1.24085
1.23209
1.23063
1.23144
1.23961
1.25911
1.27592
1.28013
1.28009
1.27772
1.26633
1.24131
1.21901
1.21527
1.21627
1.21961
1.22518
1.23495
1.25026
1.26439
1.26981
1.26845
1.25882
1.24393
1.2304
1.21774
1.20932
1.20822
1.21111
1.21692
1.21922
1.21856
1.21226
1.20565
1.20498
1.20385
1.20205
1.2013
1.20118
1.20332
1.21199
1.22367
1.22514
1.22193
1.21971
1.21981
1.22064
1.22172
1.21976
1.21387
1.20416
1.20189
1.20201
1.20168
1.20012
1.19671
1.18784
1.17192
1.15355
1.13752
1.13164
1.12997
1.13081
1.14073
1.15004
1.15135
1.15404
1.15632
1.15455
1.14211
1.11171
1.07263
1.04839
1.03982
1.03565
1.03131
1.02775
1.02716
1.02714
1.02498
1.019
1.01065
1.00147
0.988978
0.973552
0.966039
0.964751
0.964225
0.964118
0.965868
0.975555
0.994427
1.00616
1.00904
1.01078
1.01293
1.01429
1.01364
1.00597
0.993341
0.98901
0.988033
0.987453
0.987663
0.991567
0.997879
0.998558
0.997331
0.995464
0.992786
0.985547
0.975513
0.973097
0.973956
0.976388
0.979796
0.985755
0.998878
1.01645
1.02346
1.02368
1.0232
1.02262
1.02267
1.02251
1.01891
1.01104
1.00821
1.00911
1.01067
1.01077
1.0103
1.00935
1.00856
1.00825
1.00822
1.00835
1.00899
1.01074
1.01437
1.02019
1.02579
1.02891
1.03088
1.03253
1.03341
1.03336
1.03156
1.02565
1.0207
1.01889
1.01704
1.01507
1.01404
1.01426
1.01737
1.02151
1.02197
1.02126
1.02021
1.01951
1.01857
1.01773
1.01797
1.02013
1.02372
1.02707
1.03047
1.03325
1.03402
1.03402
1.03341
1.03029
1.02176
1.01231
1.00996
1.00977
1.00957
1.00963
1.01087
1.01594
1.02819
1.0424
1.04671
1.04678
1.04656
1.04607
1.04508
1.04284
1.03749
1.02894
1.02446
1.02436
1.02491
1.02621
1.02829
1.03084
1.03283
1.03365
1.03394
1.03417
1.03456
1.03527
1.03563
1.03561
1.0354
1.03499
1.03433
1.03289
1.03028
1.02823
1.0281
1.30919
1.29608
1.29175
1.29194
1.29402
1.29575
1.2983
1.30141
1.30747
1.32096
1.33465
1.33629
1.3347
1.33004
1.32416
1.31546
1.29998
1.28705
1.28467
1.28463
1.2847
1.29018
1.29712
1.29679
1.2915
1.28218
1.26789
1.24886
1.23822
1.23768
1.23847
1.24125
1.24877
1.26307
1.27578
1.27706
1.27618
1.27322
1.26673
1.25299
1.23391
1.22395
1.22158
1.22092
1.22451
1.2408
1.27079
1.28777
1.28906
1.28734
1.2824
1.26768
1.23444
1.20929
1.20482
1.20592
1.21092
1.22014
1.23491
1.25822
1.27508
1.27751
1.2746
1.26309
1.24632
1.22981
1.21495
1.20636
1.20489
1.20496
1.20508
1.2046
1.20048
1.19383
1.19381
1.19729
1.19983
1.19993
1.20116
1.20548
1.21492
1.23009
1.23584
1.2337
1.2264
1.22235
1.22132
1.22067
1.21905
1.21312
1.20093
1.19453
1.19564
1.19978
1.20212
1.2023
1.2021
1.19888
1.18698
1.17268
1.16371
1.16104
1.16139
1.16577
1.17591
1.18232
1.18631
1.1937
1.20302
1.20922
1.2099
1.19862
1.16275
1.13179
1.12009
1.11354
1.10858
1.10559
1.10397
1.0997
1.09315
1.08439
1.07021
1.04513
1.01394
0.990617
0.977743
0.970496
0.9675
0.967255
0.970817
0.984899
1.00261
1.00811
1.00916
1.0105
1.01235
1.01304
1.01088
1.00027
0.991621
0.990766
0.990649
0.990736
0.992562
0.998834
1.00288
1.00233
0.999577
0.996054
0.990175
0.979615
0.97205
0.971653
0.973021
0.975992
0.980674
0.990025
1.00687
1.02083
1.02346
1.02326
1.02223
1.02092
1.02016
1.01821
1.01171
1.00463
1.00389
1.00536
1.00771
1.00912
1.0092
1.00896
1.00849
1.0083
1.00834
1.00857
1.00911
1.01043
1.01351
1.01887
1.02402
1.02683
1.02869
1.03047
1.03158
1.03166
1.0301
1.02503
1.02164
1.0205
1.01898
1.01737
1.01687
1.01775
1.02159
1.02384
1.02351
1.02169
1.01969
1.01823
1.017
1.01656
1.01698
1.01906
1.02253
1.02639
1.03056
1.03343
1.03404
1.03406
1.03363
1.03034
1.02145
1.01358
1.01234
1.01219
1.01206
1.0122
1.01365
1.01909
1.0315
1.04403
1.04699
1.04697
1.04672
1.04627
1.04538
1.04302
1.03726
1.02896
1.02617
1.02625
1.02674
1.02773
1.02928
1.03104
1.03235
1.03303
1.03341
1.03379
1.03436
1.03523
1.03579
1.03581
1.03571
1.03542
1.03463
1.0327
1.02964
1.02793
1.02791
1.28394
1.28017
1.28042
1.28295
1.28911
1.29566
1.30301
1.31437
1.33177
1.3462
1.34785
1.34472
1.33798
1.32727
1.31171
1.29213
1.28081
1.27949
1.28029
1.28359
1.29288
1.30224
1.30257
1.29766
1.28915
1.27566
1.25569
1.24438
1.24338
1.24354
1.24502
1.25188
1.26692
1.27899
1.27973
1.27873
1.27654
1.27002
1.25363
1.23089
1.21762
1.21405
1.21257
1.21283
1.22037
1.2473
1.28109
1.29312
1.29259
1.28813
1.28119
1.26871
1.23969
1.20948
1.20328
1.20365
1.20744
1.21711
1.2382
1.2662
1.27841
1.27903
1.27603
1.26568
1.24958
1.23248
1.21912
1.21021
1.20473
1.201
1.19697
1.1914
1.18444
1.18166
1.1839
1.19062
1.19717
1.20239
1.20671
1.21566
1.23034
1.24099
1.24288
1.23985
1.23185
1.22497
1.22093
1.21747
1.20914
1.19415
1.18091
1.17904
1.18319
1.19224
1.19747
1.19968
1.19975
1.19863
1.19469
1.18615
1.17716
1.1735
1.17399
1.17927
1.18626
1.19041
1.19439
1.20083
1.20952
1.21594
1.21764
1.21548
1.19997
1.18033
1.17129
1.16626
1.16331
1.16208
1.15949
1.15593
1.15153
1.14607
1.13835
1.12296
1.09991
1.0811
1.06393
1.03993
1.01158
0.995479
0.99198
0.998803
1.00892
1.00992
1.00998
1.01066
1.01174
1.01147
1.00612
0.994819
0.99133
0.991745
0.992826
0.994663
0.999296
1.00608
1.00751
1.00578
1.00142
0.995467
0.985884
0.974026
0.970153
0.970553
0.972597
0.976455
0.983557
0.997311
1.01536
1.02356
1.02404
1.02357
1.02207
1.02029
1.01844
1.01393
1.0053
1.00048
1.00072
1.00236
1.00463
1.00669
1.00813
1.00874
1.00871
1.00867
1.00872
1.00895
1.00935
1.01027
1.01277
1.01759
1.02212
1.02443
1.02603
1.02781
1.02925
1.02953
1.02836
1.0242
1.02206
1.02168
1.02075
1.01969
1.01968
1.0219
1.02562
1.02606
1.02463
1.02176
1.01933
1.01749
1.01644
1.01632
1.01673
1.01833
1.02128
1.02546
1.03028
1.03333
1.03422
1.03441
1.03403
1.03054
1.02149
1.01508
1.01414
1.01394
1.0138
1.01392
1.01538
1.02116
1.03394
1.04528
1.04738
1.04735
1.04715
1.04681
1.04609
1.04374
1.03786
1.03026
1.02781
1.02781
1.028
1.02838
1.02921
1.03039
1.03136
1.03189
1.03233
1.03291
1.0338
1.03511
1.03586
1.03591
1.03589
1.03567
1.03475
1.03232
1.02909
1.02778
1.0278
1.2702
1.26939
1.26971
1.2729
1.28125
1.29413
1.31063
1.3335
1.35555
1.36334
1.36356
1.36087
1.34804
1.32098
1.28788
1.27411
1.2729
1.27336
1.27718
1.2883
1.30387
1.30687
1.30398
1.29552
1.28261
1.26356
1.24815
1.24524
1.24524
1.24614
1.25212
1.26781
1.28579
1.29056
1.29017
1.28865
1.28097
1.26068
1.23025
1.21352
1.21027
1.20903
1.20862
1.2101
1.21996
1.24373
1.26906
1.28206
1.28599
1.28498
1.2776
1.26436
1.24824
1.22955
1.21402
1.20803
1.20871
1.2169
1.23445
1.255
1.27029
1.27497
1.27458
1.26854
1.2552
1.23917
1.22697
1.21886
1.21154
1.20263
1.19133
1.17921
1.17318
1.17318
1.17771
1.1872
1.19586
1.20386
1.21443
1.22978
1.24286
1.24666
1.24679
1.24499
1.23903
1.23048
1.22166
1.21148
1.19524
1.17521
1.16868
1.16874
1.17316
1.18276
1.18993
1.19376
1.19574
1.19679
1.19661
1.19413
1.18867
1.18444
1.18497
1.18941
1.19236
1.19303
1.19483
1.19947
1.20631
1.21208
1.21369
1.21014
1.19772
1.19128
1.18999
1.18866
1.18619
1.18412
1.18182
1.17785
1.17276
1.16673
1.15728
1.14762
1.13952
1.13767
1.13768
1.1355
1.12461
1.10335
1.08657
1.06719
1.0426
1.02194
1.0135
1.01232
1.01219
1.01031
1.00071
0.991808
0.991236
0.992873
0.995639
0.999604
1.00654
1.01168
1.01163
1.0086
1.00283
0.99397
0.980825
0.970945
0.969534
0.970226
0.972531
0.977739
0.988425
1.0063
1.02156
1.02505
1.02507
1.02446
1.0228
1.0206
1.01722
1.01005
1.00103
0.998606
0.999154
1.00046
1.00224
1.00432
1.00631
1.00783
1.0087
1.00909
1.00926
1.00939
1.00962
1.01028
1.01234
1.01665
1.02055
1.02232
1.02354
1.02506
1.02657
1.02706
1.02635
1.0232
1.02216
1.02241
1.0222
1.02182
1.0223
1.02554
1.02806
1.02762
1.02507
1.02185
1.01939
1.01751
1.01669
1.01664
1.01685
1.01783
1.02028
1.02471
1.02999
1.03313
1.03429
1.03461
1.03419
1.02983
1.02023
1.01516
1.01456
1.01436
1.01425
1.01445
1.01627
1.02288
1.03632
1.04643
1.04787
1.04784
1.04769
1.04746
1.04699
1.04482
1.03818
1.03049
1.02837
1.02827
1.02825
1.02833
1.02881
1.02971
1.03016
1.03048
1.03096
1.03174
1.03323
1.03501
1.03583
1.03593
1.03593
1.03573
1.03461
1.03163
1.02857
1.02772
1.02778
1.26158
1.25967
1.25908
1.26148
1.27166
1.2923
1.32227
1.35379
1.37041
1.37393
1.37383
1.36984
1.35158
1.30863
1.2763
1.27054
1.27023
1.2709
1.27811
1.29604
1.30239
1.30181
1.29658
1.28581
1.26873
1.25144
1.24627
1.2454
1.24541
1.24887
1.26206
1.28333
1.29589
1.29813
1.29825
1.29553
1.28041
1.24491
1.2169
1.21
1.20887
1.20815
1.20837
1.21362
1.22912
1.24944
1.25813
1.25767
1.25646
1.2565
1.25577
1.25156
1.2479
1.24743
1.24561
1.24043
1.23441
1.23306
1.23673
1.24493
1.2544
1.26256
1.2667
1.26625
1.26006
1.2497
1.23908
1.22941
1.21941
1.20592
1.18688
1.17259
1.16865
1.169
1.17433
1.18462
1.19453
1.20554
1.22141
1.24029
1.25081
1.25222
1.25226
1.25152
1.24613
1.2356
1.22358
1.20739
1.18309
1.16554
1.16163
1.16182
1.16466
1.17239
1.18202
1.18969
1.19505
1.19916
1.2024
1.20257
1.20072
1.19993
1.20166
1.20285
1.19975
1.1944
1.19253
1.19329
1.19711
1.19991
1.19943
1.19394
1.19055
1.19193
1.19479
1.19606
1.19541
1.19354
1.19108
1.18693
1.17966
1.17058
1.15837
1.14725
1.14584
1.14653
1.14937
1.15779
1.17627
1.19218
1.19276
1.18139
1.15735
1.1189
1.06928
1.03173
1.018
1.01077
1.00274
0.997361
0.996819
0.998415
1.00165
1.00667
1.01351
1.01587
1.01498
1.01125
1.00385
0.991286
0.976341
0.970409
0.970305
0.970928
0.97333
0.980164
0.99506
1.01494
1.02478
1.02583
1.02582
1.02537
1.02389
1.02126
1.01601
1.00647
0.998646
0.997748
0.998257
0.999117
1.00048
1.00237
1.00441
1.00623
1.00786
1.00897
1.00956
1.00975
1.00987
1.01028
1.01201
1.0159
1.01907
1.02026
1.02114
1.02226
1.02354
1.02414
1.02376
1.02162
1.02088
1.02156
1.02251
1.02316
1.02468
1.02785
1.02906
1.02839
1.0258
1.02253
1.0201
1.01821
1.01713
1.0169
1.01693
1.01746
1.01958
1.02435
1.02981
1.03278
1.03418
1.03465
1.0338
1.0277
1.01811
1.01489
1.01451
1.01437
1.01436
1.01474
1.01712
1.02524
1.03958
1.04786
1.04861
1.04855
1.04835
1.04814
1.04769
1.04508
1.03797
1.03034
1.02857
1.02851
1.02843
1.02844
1.02874
1.02896
1.029
1.02913
1.02956
1.03079
1.0329
1.03493
1.03567
1.0358
1.0358
1.03554
1.03399
1.03048
1.02807
1.02766
1.02773
1.25551
1.25361
1.2526
1.25508
1.2673
1.29441
1.33824
1.36985
1.37622
1.37567
1.37379
1.36887
1.35155
1.31279
1.27954
1.27047
1.26956
1.27167
1.2807
1.29047
1.29263
1.29118
1.28485
1.27142
1.25369
1.24459
1.24295
1.24287
1.24469
1.25453
1.27645
1.2958
1.30157
1.30197
1.30172
1.29713
1.27614
1.23736
1.21433
1.21033
1.20963
1.21018
1.21476
1.22827
1.24686
1.2524
1.25186
1.24751
1.23562
1.22721
1.22704
1.22993
1.23806
1.24857
1.25874
1.26471
1.26508
1.25994
1.24779
1.242
1.24145
1.24289
1.24723
1.25378
1.25799
1.25806
1.2532
1.24083
1.22595
1.20952
1.18761
1.17048
1.16775
1.16871
1.17399
1.184
1.19568
1.2099
1.22827
1.24497
1.25495
1.25788
1.2579
1.25627
1.24991
1.2391
1.2246
1.20316
1.17829
1.16406
1.16051
1.16017
1.16102
1.16411
1.17115
1.18114
1.19043
1.19914
1.20742
1.21354
1.21721
1.22039
1.22153
1.21752
1.20614
1.19484
1.18739
1.18313
1.18219
1.18182
1.17997
1.17896
1.18192
1.18926
1.1952
1.19842
1.20051
1.20009
1.19663
1.18997
1.18072
1.16596
1.14966
1.14323
1.14306
1.14377
1.1477
1.15979
1.18424
1.21562
1.23151
1.2328
1.22875
1.21739
1.19206
1.14068
1.07903
1.05283
1.04746
1.04455
1.04144
1.03813
1.03529
1.03259
1.02965
1.02481
1.01962
1.01398
1.0043
0.987683
0.974117
0.971549
0.971546
0.971822
0.97432
0.983544
1.00305
1.02168
1.02652
1.02671
1.0267
1.02639
1.02526
1.02213
1.01448
1.00305
0.997549
0.997464
0.997825
0.998326
0.999311
1.00095
1.00301
1.00514
1.00703
1.00862
1.00946
1.00976
1.00985
1.01005
1.01122
1.01463
1.01741
1.01815
1.01875
1.01963
1.02056
1.02101
1.02076
1.01912
1.01874
1.01997
1.0219
1.02373
1.02655
1.02949
1.02994
1.02939
1.02735
1.02435
1.02171
1.01966
1.01815
1.01753
1.01746
1.01776
1.01979
1.02495
1.02994
1.03231
1.03367
1.03404
1.03222
1.02378
1.01572
1.0145
1.01432
1.01411
1.01408
1.01463
1.01821
1.02914
1.0437
1.04888
1.04908
1.04893
1.04857
1.04825
1.04755
1.04475
1.03736
1.03021
1.02891
1.02888
1.02875
1.0286
1.0284
1.02816
1.0281
1.02815
1.02866
1.03037
1.03303
1.03475
1.03525
1.03544
1.03547
1.03507
1.03288
1.02922
1.02777
1.02764
1.02774
1.25374
1.2526
1.252
1.25495
1.27118
1.30776
1.34172
1.35527
1.36285
1.36702
1.36606
1.35893
1.34216
1.32189
1.30636
1.29416
1.28448
1.28187
1.28304
1.28359
1.28355
1.28055
1.27118
1.25623
1.2452
1.24211
1.24218
1.24221
1.24717
1.26527
1.29074
1.30038
1.30039
1.30016
1.29943
1.29283
1.27162
1.24425
1.22862
1.22212
1.21958
1.22018
1.22738
1.24118
1.24809
1.24855
1.24626
1.23557
1.21677
1.20548
1.20335
1.20537
1.21992
1.24562
1.26667
1.27783
1.28301
1.28381
1.27668
1.24937
1.23066
1.22868
1.22989
1.2356
1.24698
1.25728
1.25801
1.25008
1.23362
1.21472
1.19391
1.17761
1.17366
1.17381
1.17688
1.1853
1.19789
1.21373
1.23291
1.25104
1.2561
1.25627
1.25596
1.25332
1.2455
1.23278
1.21538
1.19649
1.18331
1.1752
1.16809
1.16153
1.1581
1.15752
1.16028
1.17049
1.1826
1.19496
1.20932
1.22593
1.2376
1.24084
1.23976
1.23
1.21279
1.19792
1.18745
1.1798
1.17202
1.16606
1.16408
1.16607
1.17432
1.18548
1.19589
1.20325
1.2053
1.20448
1.20011
1.18876
1.17015
1.14933
1.13699
1.13385
1.13332
1.13351
1.13744
1.15281
1.18349
1.21721
1.23713
1.24649
1.24998
1.2489
1.2404
1.217
1.16548
1.11436
1.10586
1.10556
1.10657
1.11093
1.1117
1.10797
1.09907
1.08316
1.05739
1.02729
1.00204
0.983037
0.974543
0.972917
0.972536
0.972724
0.975912
0.98856
1.01122
1.02537
1.02773
1.02807
1.02813
1.02805
1.02732
1.02333
1.01256
1.00045
0.997285
0.997316
0.997516
0.997976
0.998952
1.00051
1.00244
1.00446
1.00637
1.00795
1.00898
1.00929
1.00932
1.00937
1.01018
1.01328
1.01624
1.01675
1.01697
1.01758
1.01826
1.0184
1.01784
1.01641
1.01635
1.01803
1.02082
1.02371
1.02771
1.03052
1.03067
1.0302
1.02875
1.02631
1.02362
1.02129
1.01954
1.01859
1.01833
1.0186
1.02113
1.02659
1.03007
1.03144
1.03207
1.03186
1.02812
1.01803
1.0128
1.01268
1.01291
1.01294
1.01305
1.01439
1.02058
1.035
1.04732
1.04944
1.0494
1.04908
1.04853
1.04804
1.04705
1.04387
1.03648
1.02995
1.02896
1.02896
1.02875
1.02832
1.0279
1.02763
1.02753
1.02764
1.02858
1.03105
1.03353
1.03434
1.03465
1.03487
1.03489
1.03418
1.03141
1.02842
1.02776
1.02774
1.02788
1.25504
1.2549
1.25809
1.26987
1.29543
1.32397
1.33271
1.33269
1.33248
1.33304
1.3327
1.32768
1.32033
1.3203
1.32219
1.32268
1.31805
1.3042
1.28903
1.28098
1.27517
1.26675
1.25313
1.24404
1.24199
1.24165
1.24155
1.24609
1.26089
1.28092
1.2898
1.29245
1.29305
1.29177
1.28634
1.27366
1.25591
1.24528
1.24065
1.2369
1.23444
1.23545
1.24191
1.2465
1.2463
1.24437
1.23647
1.21749
1.19791
1.18933
1.18691
1.18812
1.20444
1.24457
1.27629
1.28743
1.29009
1.29174
1.29169
1.2749
1.2341
1.22044
1.22106
1.22484
1.23192
1.24234
1.24986
1.24923
1.23869
1.2209
1.2029
1.18833
1.18165
1.18073
1.18152
1.1866
1.19909
1.21763
1.23786
1.24943
1.25089
1.2506
1.24967
1.24607
1.23595
1.21642
1.1971
1.18933
1.18697
1.18447
1.17912
1.17022
1.15949
1.15504
1.15633
1.16427
1.17734
1.19191
1.21236
1.23536
1.24724
1.24964
1.24895
1.24257
1.22708
1.21049
1.19577
1.18125
1.1651
1.1548
1.15414
1.15724
1.16693
1.18154
1.19924
1.21047
1.21144
1.21104
1.20729
1.19202
1.16169
1.1379
1.13152
1.13065
1.13005
1.12995
1.13264
1.14331
1.16503
1.19827
1.23502
1.25343
1.25549
1.25366
1.24598
1.23067
1.2023
1.15912
1.1375
1.13686
1.13919
1.14776
1.15969
1.16669
1.1681
1.16687
1.1539
1.11167
1.04685
1.00475
0.98918
0.981998
0.978478
0.977739
0.98122
0.996806
1.01885
1.02761
1.02885
1.02946
1.0299
1.03001
1.02911
1.02331
1.01009
0.999693
0.997682
0.997515
0.997404
0.997496
0.998498
1.0005
1.00239
1.00398
1.00556
1.00707
1.00815
1.0087
1.00883
1.00894
1.00989
1.01338
1.01636
1.01653
1.01633
1.01638
1.01658
1.01631
1.0149
1.0139
1.01424
1.01632
1.01967
1.02363
1.02842
1.03086
1.0309
1.03058
1.0295
1.02751
1.02512
1.02281
1.02087
1.01961
1.01919
1.01971
1.0234
1.02806
1.02935
1.02973
1.02983
1.02851
1.02119
1.01116
1.00896
1.00941
1.01048
1.01117
1.01215
1.01536
1.02509
1.04127
1.04922
1.04976
1.04961
1.04905
1.04829
1.04754
1.04616
1.0426
1.03527
1.02938
1.0286
1.02859
1.02839
1.02806
1.02776
1.02757
1.02755
1.02784
1.02957
1.03254
1.03374
1.03393
1.0341
1.03421
1.03409
1.03281
1.02972
1.02795
1.02782
1.02784
1.02812
1.26339
1.26439
1.27264
1.2932
1.31654
1.32312
1.32332
1.32227
1.31762
1.30627
1.29502
1.29389
1.30148
1.3192
1.33507
1.34144
1.34195
1.33647
1.31446
1.28399
1.26134
1.24602
1.23848
1.23704
1.23733
1.23989
1.24678
1.26153
1.28031
1.28744
1.28678
1.28464
1.28202
1.27687
1.26475
1.25062
1.24758
1.24762
1.24933
1.25527
1.2616
1.26164
1.25751
1.25197
1.24694
1.23891
1.22111
1.19894
1.18732
1.18166
1.17801
1.17836
1.19125
1.23605
1.28188
1.29155
1.2916
1.29177
1.29334
1.2904
1.25971
1.22212
1.21694
1.21842
1.22213
1.22621
1.23104
1.23529
1.23463
1.2255
1.21153
1.19882
1.19141
1.18971
1.18969
1.19338
1.2056
1.22484
1.23946
1.24519
1.248
1.24881
1.24775
1.23983
1.21765
1.19146
1.18184
1.18107
1.18335
1.18651
1.1855
1.18066
1.17257
1.16431
1.16091
1.16326
1.17465
1.19167
1.20959
1.2258
1.24003
1.24979
1.2523
1.25092
1.24313
1.22699
1.20773
1.186
1.16246
1.14964
1.14892
1.15114
1.15955
1.17657
1.19938
1.21323
1.21608
1.21701