/*--------------------------------*- C++ -*----------------------------------*\
  =========                 |
  \\      /  F ield         | OpenFOAM: The Open Source CFD Toolbox
   \\    /   O peration     | Website:  https://openfoam.org
    \\  /    A nd           | Version:  7
     \\/     M anipulation  |
\*---------------------------------------------------------------------------*/
FoamFile
{
    version     2.0;
    format      ascii;
    class       volVectorField;
    location    "3";
    object      U;
}
// * * * * * * * * * * * * * * * * * * * * * * * * * * * * * * * * * * * * * //

dimensions      [0 1 -1 0 0 0 0];

internalField   nonuniform List<vector> 
4128
(
(3 -8.15837e-16 0)
(3 -1.24551e-15 0)
(3 -7.8983e-16 0)
(3 -8.21251e-16 0)
(3 -6.24302e-16 0)
(3 -8.59011e-16 0)
(3 -1.15988e-15 0)
(3 -6.06572e-16 0)
(3 2.32562e-16 0)
(3 2.09458e-15 0)
(3 2.68212e-15 0)
(3 2.85306e-15 0)
(3 2.49484e-15 0)
(3 2.02571e-15 0)
(3 1.8701e-15 0)
(3 2.35321e-15 0)
(3 2.53632e-15 0)
(3 2.143e-15 0)
(3 1.20323e-15 0)
(3 1.57492e-15 0)
(3 1.25252e-15 0)
(3 6.674e-16 0)
(3 8.67448e-17 0)
(3 -7.14576e-16 0)
(3 -1.06712e-15 0)
(3 -5.9165e-16 0)
(3 -5.21993e-16 0)
(3 -4.31514e-16 0)
(3 -5.71509e-16 0)
(3 -6.06318e-16 0)
(3 -7.53946e-16 0)
(3 -1.18951e-15 0)
(3 -1.0171e-15 0)
(3 -8.01566e-16 0)
(3 -8.5005e-16 0)
(3 -1.15691e-15 0)
(3 -1.20722e-15 0)
(3 -1.22586e-15 0)
(3 -8.63223e-16 0)
(3 -1.22791e-15 0)
(3 -3.13185e-16 0)
(3 2.23893e-16 0)
(3 -1.54062e-17 0)
(3 -7.87957e-16 0)
(3 -1.08165e-15 0)
(3 -1.6838e-15 0)
(3 -2.08739e-15 0)
(3 -1.33584e-15 0)
(3 3.80193e-16 0)
(3 4.7537e-16 0)
(3 1.12307e-16 0)
(3 -3.15234e-16 0)
(3 -8.4594e-16 0)
(3 -1.2693e-15 0)
(3 -1.43328e-15 0)
(3 -9.65181e-16 0)
(3 -1.08696e-15 0)
(3 -1.02965e-15 0)
(3 -6.64942e-16 0)
(3 3.0007e-17 0)
(3 9.3136e-16 0)
(3 4.95288e-16 0)
(3 7.32403e-16 0)
(3 7.13455e-16 0)
(3 3.48173e-17 0)
(3 -1.92861e-17 0)
(3 1.67739e-16 0)
(3 1.56528e-16 0)
(3 1.87262e-16 0)
(3 2.5324e-16 0)
(3 2.58934e-16 0)
(3 3.59111e-16 0)
(3 5.02717e-16 0)
(3 7.87668e-16 0)
(3 4.8479e-16 0)
(3 2.13246e-16 0)
(3 -1.72283e-16 0)
(3 -7.11621e-16 0)
(3 -1.01755e-15 0)
(3 -7.45109e-16 0)
(3 -4.35506e-16 0)
(3 3.22422e-17 0)
(3 8.27471e-16 0)
(3 1.65066e-15 0)
(3 1.25585e-15 0)
(3 1.18303e-15 0)
(3 1.0914e-15 0)
(3 1.08299e-15 0)
(3 1.12775e-15 0)
(3 2.27575e-15 0)
(3 2.61951e-15 0)
(3 2.86899e-15 0)
(3 1.60861e-15 0)
(3 2.73822e-16 0)
(3 -1.87405e-16 0)
(3 -9.39235e-16 0)
(3 -1.23845e-15 0)
(3 -1.57411e-15 0)
(3 -1.64418e-15 0)
(3 -1.7324e-15 0)
(3 -1.77912e-15 0)
(3 -2.48623e-15 0)
(3 -2.43125e-15 0)
(3 -1.44913e-15 0)
(3 -5.06059e-16 0)
(3 1.05106e-15 0)
(3 1.34819e-15 0)
(3 1.15189e-15 0)
(3 1.34383e-15 0)
(3 1.70322e-15 0)
(3 2.27034e-15 0)
(3 2.21336e-15 0)
(3 1.77429e-15 0)
(3 7.7208e-16 0)
(3 -5.5758e-17 0)
(3 -3.68133e-16 0)
(3 -1.34452e-16 0)
(3 8.12443e-16 0)
(3 1.00671e-15 0)
(3 1.02631e-15 0)
(3 2.60681e-16 0)
(3 -2.32184e-16 0)
(3 2.42445e-16 0)
(3 1.20449e-16 0)
(3 -2.34792e-16 0)
(3 -3.54101e-16 0)
(3 -3.80441e-16 0)
(3 -6.72193e-16 0)
(3 -9.69729e-16 0)
(3 3.24146e-16 0)
(3 7.15092e-16 0)
(3 8.3215e-16 0)
(3 2.49861e-16 0)
(3 5.18151e-17 0)
(3 -6.89604e-16 0)
(3 -7.08028e-16 0)
(3 -4.18179e-16 0)
(3 5.54212e-16 0)
(3 9.63872e-16 0)
(3 6.2032e-16 0)
(3 1.62307e-16 0)
(3 2.30235e-16 0)
(3 1.33037e-17 0)
(3 9.06284e-17 0)
(3 6.95555e-17 0)
(3 1.85988e-17 0)
(3 -7.13717e-17 0)
(3 -4.10434e-16 0)
(3 -6.58181e-16 0)
(3 -1.6457e-15 0)
(3 -1.88064e-15 0)
(3 -1.92258e-15 0)
(3 -1.63439e-15 0)
(3 -1.39614e-15 0)
(3 -1.18397e-15 0)
(3 -2.26265e-16 0)
(3 9.61359e-16 0)
(3 1.86503e-15 0)
(3 1.34618e-15 0)
(3 1.57795e-15 0)
(3 1.77787e-16 0)
(3 1.30186e-16 0)
(3 1.36389e-16 0)
(3 -3.71393e-16 0)
(3 -5.80883e-16 0)
(3 -3.8648e-16 0)
(3 -2.03205e-16 0)
(3 1.79391e-16 0)
(3 1.14631e-16 0)
(3 5.18442e-17 0)
(3 -3.20822e-16 0)
(3 -1.08811e-16 0)
(3 -1.04079e-15 0)
(3 -8.57939e-16 0)
(3 -6.49747e-16 0)
(3 -1.15351e-15 0)
(3 -7.7809e-16 0)
(3 3.46679e-16 0)
(3 5.63831e-16 0)
(3 7.77626e-16 0)
(3 7.99386e-16 0)
(3 6.49314e-16 0)
(3 6.18946e-16 0)
(3 2.87124e-16 0)
(3 -3.0419e-16 0)
(3 -7.14938e-17 0)
(3 -7.23645e-17 0)
(3 -1.57758e-16 0)
(3 -1.83699e-17 0)
(3 1.90151e-17 0)
(3 -3.59209e-16 0)
(3 -1.24015e-15 0)
(3 -1.53871e-15 0)
(3 -8.40045e-16 0)
(3 -1.12602e-15 0)
(3 -1.39416e-15 0)
(3 -1.8518e-15 0)
(3 -1.73624e-15 0)
(3 -1.27408e-15 0)
(3 -7.99118e-16 0)
(3 -1.97781e-16 0)
(3 4.90686e-16 0)
(3 2.57073e-16 0)
(3 1.93001e-16 0)
(3 7.96119e-16 0)
(3 1.1573e-15 0)
(3 1.38735e-15 0)
(3 1.39395e-15 0)
(3 1.73985e-16 0)
(3 -6.53087e-16 0)
(3 -6.24495e-16 0)
(3 -1.21162e-15 0)
(3 -1.28913e-15 0)
(3 -5.90119e-16 0)
(3 4.00665e-17 0)
(3 3.93898e-17 0)
(3 3.11282e-16 0)
(3 7.71354e-16 0)
(3 1.75212e-15 0)
(3 4.24624e-16 0)
(3 -3.53375e-16 0)
(3 -3.52869e-16 0)
(3 -1.47089e-16 0)
(3 1.68541e-16 0)
(3 5.19927e-16 0)
(3 5.03205e-16 0)
(3 1.07634e-15 0)
(3 1.02921e-15 0)
(3 1.21607e-15 0)
(3 2.70391e-16 0)
(3 -6.99094e-16 0)
(3 -3.31731e-16 0)
(3 -3.28979e-17 0)
(3 1.80153e-16 0)
(3 5.59642e-16 0)
(3 5.5435e-16 0)
(3 2.30603e-16 0)
(3 -6.23194e-16 0)
(3 -4.3994e-16 0)
(3 -7.47328e-16 0)
(3 -7.51853e-16 0)
(3 -6.16869e-16 0)
(3 -2.28229e-16 0)
(3 1.28502e-16 0)
(3 2.26506e-16 0)
(3 -6.7938e-16 0)
(3 -1.91234e-15 0)
(3 -2.07454e-15 0)
(3 -1.60133e-15 0)
(3 -1.48629e-15 0)
(3 -9.5534e-16 0)
(3 -1.29969e-16 0)
(3 5.42748e-16 0)
(3 -1.70568e-16 0)
(3 -3.62525e-16 0)
(3 -2.80513e-16 0)
(3 -2.43593e-17 0)
(3 2.67875e-16 0)
(3 1.94333e-16 0)
(3 -5.06832e-16 0)
(3 -1.02201e-15 0)
(3 -1.21173e-15 0)
(3 -7.89475e-16 0)
(3 -1.03119e-16 0)
(3 3.74906e-16 0)
(3 5.91574e-16 0)
(3 1.55772e-16 0)
(3 -4.90579e-16 0)
(3 -1.24262e-15 0)
(3 -2.82087e-16 0)
(3 3.33047e-16 0)
(3 -4.62102e-17 0)
(3 -5.70581e-16 0)
(3 -5.80688e-16 0)
(3 -6.90113e-16 0)
(3 -6.69942e-16 0)
(3 6.80958e-17 0)
(3 4.0761e-16 0)
(3 3.20345e-16 0)
(3 3.38771e-16 0)
(3 -5.43009e-16 0)
(3 -1.67062e-15 0)
(3 -1.82448e-15 0)
(3 -2.43496e-15 0)
(3 -1.82243e-15 0)
(3 -1.40827e-15 0)
(3 -1.41767e-15 0)
(3 -8.5647e-16 0)
(3 -8.70316e-16 0)
(3 -4.59291e-16 0)
(3 -8.86718e-17 0)
(3 -1.95565e-16 0)
(3 -9.69972e-16 0)
(3 -8.43375e-16 0)
(3 -9.07457e-16 0)
(3 -6.6053e-16 0)
(3 -1.64569e-16 0)
(3 -1.60872e-16 0)
(3 -3.48176e-16 0)
(3 5.91084e-16 0)
(3 1.07227e-15 0)
(3 1.14001e-15 0)
(3 8.19198e-16 0)
(3 -2.21945e-16 0)
(3 -5.28925e-16 0)
(3 -3.74832e-16 0)
(3 -6.02971e-17 0)
(3 8.06109e-17 0)
(3 1.76193e-16 0)
(3 6.20732e-16 0)
(3 8.88425e-16 0)
(3 3.82965e-16 0)
(3 3.05279e-16 0)
(3 8.41718e-16 0)
(3 9.36096e-16 0)
(3 3.86529e-16 0)
(3 -9.10195e-17 0)
(3 -3.21092e-16 0)
(3 8.70907e-16 0)
(3 1.20408e-15 0)
(3 1.30015e-15 0)
(3 1.16643e-15 0)
(3 1.16866e-15 0)
(3 1.0555e-15 0)
(3 1.33119e-15 0)
(3 9.65961e-16 0)
(3 5.55221e-16 0)
(3 1.10068e-15 0)
(3 1.94235e-15 0)
(3 1.61477e-15 0)
(3 7.9069e-16 0)
(3 -1.16269e-16 0)
(3 -1.50564e-17 0)
(3 -3.2783e-16 0)
(3 -2.947e-16 0)
(3 -5.96684e-16 0)
(3 -6.84121e-16 0)
(3 -7.50369e-16 0)
(3 -6.13473e-16 0)
(3 1.64102e-16 0)
(3 9.80262e-16 0)
(3 5.95396e-16 0)
(3 -5.77981e-16 0)
(3 -2.16113e-15 0)
(3 -2.22552e-15 0)
(3 -1.20631e-15 0)
(3 -3.84517e-16 0)
(3 2.78012e-17 0)
(3 -3.63611e-16 0)
(3 1.6357e-16 0)
(3 3.6237e-16 0)
(3 -4.34427e-16 0)
(3 -1.24441e-16 0)
(3 -1.73885e-16 0)
(3 -2.41752e-16 0)
(3 1.42206e-16 0)
(3 4.68922e-16 0)
(3 -2.34636e-16 0)
(3 -7.0461e-16 0)
(3 -1.2087e-15 0)
(3 -1.93097e-16 0)
(3 1.29356e-15 0)
(3 1.42146e-15 0)
(3 1.19108e-15 0)
(3 9.95087e-16 0)
(3 1.40944e-15 0)
(3 1.57754e-15 0)
(3 2.69916e-16 0)
(3 -1.10938e-16 0)
(3 -1.48401e-15 0)
(3 -1.11947e-15 0)
(3 -8.06944e-16 0)
(3 -3.0914e-16 0)
(3 2.4278e-16 0)
(3 4.89896e-16 0)
(3 7.66381e-17 0)
(3 -9.76192e-16 0)
(3 -2.16788e-15 0)
(3 -2.62635e-15 0)
(3 -2.68908e-15 0)
(3 -2.94312e-15 0)
(3 -2.60543e-15 0)
(3 -1.58192e-15 0)
(3 -8.73531e-16 0)
(3 -5.33815e-16 0)
(3 -5.00346e-16 0)
(3 -4.69241e-16 0)
(3 4.23318e-16 0)
(3 5.22688e-17 0)
(3 7.51666e-17 0)
(3 2.33908e-16 0)
(3 -1.39095e-16 0)
(3 4.25174e-16 0)
(3 1.21072e-17 0)
(3 6.79792e-17 0)
(3 7.79852e-17 0)
(3 4.63623e-16 0)
(3 6.40865e-17 0)
(3 -7.19484e-16 0)
(3 -1.53298e-15 0)
(3 -9.71505e-16 0)
(3 1.76643e-16 0)
(3 9.48276e-16 0)
(3 1.78718e-15 0)
(3 1.73086e-15 0)
(3 1.1897e-15 0)
(3 1.72181e-15 0)
(3 1.67853e-15 0)
(3 9.26664e-16 0)
(3 9.00932e-16 0)
(3 1.13572e-15 0)
(3 1.3689e-15 0)
(3 8.77876e-16 0)
(3 5.83504e-16 0)
(3 8.89888e-16 0)
(3 9.02008e-16 0)
(3 8.05809e-16 0)
(3 3.25332e-16 0)
(3 2.27944e-17 0)
(3 8.48527e-17 0)
(3 4.44404e-16 0)
(3 1.03565e-15 0)
(3 1.12284e-15 0)
(3 2.56751e-15 0)
(3 2.928e-15 0)
(3 2.37634e-15 0)
(3 1.47835e-15 0)
(3 1.20481e-15 0)
(3 1.5084e-15 0)
(3 1.9755e-15 0)
(3 2.11447e-15 0)
(3 7.79518e-16 0)
(3 1.80133e-16 0)
(3 5.03099e-17 0)
(3 -3.40208e-16 0)
(3 1.51652e-16 0)
(3 1.04436e-15 0)
(3 2.16448e-15 0)
(3 3.40367e-16 0)
(3 -9.12346e-16 0)
(3 -1.21259e-15 0)
(3 -7.72148e-16 0)
(3 -5.9488e-16 0)
(3 -7.71463e-16 0)
(3 -1.10491e-15 0)
(3 1.33021e-16 0)
(3 2.40249e-16 0)
(3 -5.7367e-17 0)
(3 -7.93491e-17 0)
(3 -3.2162e-17 0)
(3 1.19466e-16 0)
(3 5.25039e-16 0)
(3 1.11636e-15 0)
(3 8.83117e-16 0)
(3 3.95173e-16 0)
(3 -2.62083e-16 0)
(3 -3.70918e-16 0)
(3 -1.40172e-16 0)
(3 7.15092e-16 0)
(3 1.0649e-15 0)
(3 1.13636e-15 0)
(3 1.40325e-15 0)
(3 9.10413e-16 0)
(3 1.07065e-15 0)
(3 8.75212e-16 0)
(3 7.75178e-16 0)
(3 8.04627e-16 0)
(3 5.42308e-16 0)
(3 3.92523e-16 0)
(3 3.60196e-16 0)
(3 3.72137e-16 0)
(3 -4.22484e-16 0)
(3 -1.53182e-15 0)
(3 -1.41948e-15 0)
(3 -1.67228e-15 0)
(3 -1.93656e-15 0)
(3 -2.61729e-15 0)
(3 -2.77518e-15 0)
(3 -2.27986e-15 0)
(3 -1.51188e-15 0)
(3 -5.8262e-16 0)
(3 -2.87077e-16 0)
(3 -1.55469e-16 0)
(3 2.28663e-16 0)
(3 9.58288e-16 0)
(3 1.5005e-15 0)
(3 1.56968e-15 0)
(3 1.45966e-15 0)
(3 6.38734e-16 0)
(3 -1.51743e-16 0)
(3 -9.65943e-16 0)
(3 -1.19874e-15 0)
(3 -1.23987e-15 0)
(3 -2.29404e-15 0)
(3 -2.32578e-15 0)
(3 -1.56981e-15 0)
(3 -8.57939e-16 0)
(3 -5.65279e-16 0)
(3 2.60095e-16 0)
(3 1.1478e-15 0)
(3 1.15508e-15 0)
(3 1.1094e-15 0)
(3 9.78166e-16 0)
(3 1.61291e-15 0)
(3 7.67775e-16 0)
(3 5.1499e-16 0)
(3 8.49956e-16 0)
(3 1.38374e-15 0)
(3 2.10708e-15 0)
(3 2.46553e-15 0)
(3 1.33245e-15 0)
(3 8.28804e-16 0)
(3 6.49829e-16 0)
(3 4.5973e-16 0)
(3 7.27707e-16 0)
(3 1.8836e-15 0)
(3 2.34106e-15 0)
(3 2.1382e-15 0)
(3 2.25238e-15 0)
(3 2.14554e-15 0)
(3 1.58594e-15 0)
(3 1.72243e-15 0)
(3 2.7243e-15 0)
(3 2.52558e-15 0)
(3 1.69305e-15 0)
(3 1.73798e-15 0)
(3 1.98478e-15 0)
(3 2.52509e-15 0)
(3 2.6213e-15 0)
(3 1.45989e-15 0)
(3 7.47922e-16 0)
(3 5.15247e-16 0)
(3 5.0788e-16 0)
(3 1.40922e-15 0)
(3 9.00431e-16 0)
(3 4.62447e-16 0)
(3 -3.71382e-16 0)
(3 -5.53284e-16 0)
(3 -6.48548e-16 0)
(3 -9.66823e-16 0)
(3 -1.14335e-15 0)
(3 -1.94975e-15 0)
(3 -1.77821e-15 0)
(3 -1.41837e-15 0)
(3 -9.38424e-17 0)
(3 2.28261e-16 0)
(3 8.31526e-16 0)
(3 9.28632e-16 0)
(3 8.5539e-16 0)
(3 9.15534e-16 0)
(3 1.10548e-15 0)
(3 1.02195e-15 0)
(3 -1.3313e-16 0)
(3 -4.35688e-16 0)
(3 -5.03144e-16 0)
(3 -9.09112e-16 0)
(3 -7.50721e-16 0)
(3 -6.16527e-16 0)
(3 -4.7973e-16 0)
(3 1.06437e-15 0)
(3 1.74221e-15 0)
(3 1.87161e-15 0)
(3 1.5733e-15 0)
(3 1.36111e-15 0)
(3 1.29186e-15 0)
(3 1.03927e-15 0)
(3 2.80261e-16 0)
(3 -1.0188e-16 0)
(3 -1.88455e-16 0)
(3 -3.71006e-16 0)
(3 -6.10514e-16 0)
(3 -1.54033e-15 0)
(3 -2.09844e-15 0)
(3 -1.74401e-15 0)
(3 -1.3589e-15 0)
(3 -1.01278e-16 0)
(3 4.80866e-16 0)
(3 5.68452e-16 0)
(3 7.76334e-16 0)
(3 4.51126e-16 0)
(3 1.1069e-15 0)
(3 2.07432e-15 0)
(3 2.12262e-15 0)
(3 2.1815e-15 0)
(3 6.94228e-16 0)
(3 -1.28557e-15 0)
(3 -1.35353e-15 0)
(3 -1.62968e-15 0)
(3 -2.3052e-15 0)
(3 -2.42944e-15 0)
(3 -2.11119e-15 0)
(3 -1.46501e-15 0)
(3 -1.64731e-15 0)
(3 -1.53913e-15 0)
(3 -3.22974e-16 0)
(3 -9.51066e-17 0)
(3 -1.82697e-16 0)
(3 6.46071e-17 0)
(3 5.99443e-17 0)
(3 4.53597e-16 0)
(3 7.32923e-16 0)
(3 5.77955e-16 0)
(3 2.0809e-16 0)
(3 1.09139e-15 0)
(3 3.68184e-15 0)
(3 3.41054e-15 0)
(3 2.25808e-15 0)
(3 1.5284e-15 0)
(3 1.29526e-15 0)
(3 2.78373e-15 0)
(3 3.03967e-15 0)
(3 2.84546e-15 0)
(3 2.88261e-15 0)
(3 2.43869e-15 0)
(3 1.53899e-15 0)
(3 1.91316e-15 0)
(3 1.53772e-15 0)
(3 1.24912e-15 0)
(3 7.3179e-16 0)
(3 7.32389e-16 0)
(3 1.68928e-15 0)
(3 1.73672e-15 0)
(3 2.12615e-15 0)
(3 3.18047e-15 0)
(3 2.74551e-15 0)
(3 2.14759e-15 0)
(3 2.5297e-15 0)
(3 7.08574e-16 0)
(3 -5.66912e-16 0)
(3 -3.32275e-16 0)
(3 -8.93989e-17 0)
(3 -1.73692e-16 0)
(3 5.41771e-17 0)
(3 -2.38955e-16 0)
(3 -7.40014e-16 0)
(3 -1.07442e-15 0)
(3 -1.02792e-15 0)
(3 -1.14663e-15 0)
(3 -1.36014e-15 0)
(3 -1.5488e-15 0)
(3 -1.53298e-16 0)
(3 -1.31689e-16 0)
(3 1.54283e-16 0)
(3 2.50325e-16 0)
(3 4.17562e-16 0)
(3 7.02932e-16 0)
(3 4.63357e-16 0)
(3 2.065e-16 0)
(3 -3.29138e-16 0)
(3 -6.49103e-16 0)
(3 -8.50955e-16 0)
(3 -5.62372e-16 0)
(3 -3.96959e-16 0)
(3 -5.66143e-16 0)
(3 -2.66612e-16 0)
(3 2.38674e-16 0)
(3 8.70027e-16 0)
(3 7.86063e-16 0)
(3 8.9122e-16 0)
(3 1.26669e-15 0)
(3 1.38207e-15 0)
(3 1.18085e-15 0)
(3 8.97353e-16 0)
(3 6.69552e-16 0)
(3 3.51683e-16 0)
(3 -1.032e-15 0)
(3 -9.78334e-16 0)
(3 -1.17187e-15 0)
(3 -6.40957e-16 0)
(3 -4.67015e-16 0)
(3 -6.83692e-17 0)
(3 3.01938e-16 0)
(3 4.43303e-16 0)
(3 2.45826e-16 0)
(3 3.40917e-16 0)
(3 9.31073e-16 0)
(3 9.96821e-16 0)
(3 4.9238e-16 0)
(3 6.33832e-16 0)
(3 5.72428e-16 0)
(3 -4.99985e-16 0)
(3 -6.89251e-16 0)
(3 -9.91982e-16 0)
(3 -1.34785e-15 0)
(3 -1.82843e-15 0)
(3 -1.56044e-15 0)
(3 -1.45559e-15 0)
(3 -1.77211e-15 0)
(3 -2.0799e-15 0)
(3 -2.07231e-15 0)
(3 -1.73047e-15 0)
(3 -1.45418e-15 0)
(3 -1.12925e-15 0)
(3 -1.07831e-15 0)
(3 -6.15367e-16 0)
(3 -1.79837e-16 0)
(3 1.03082e-15 0)
(3 5.6192e-16 0)
(3 2.60016e-16 0)
(3 2.38656e-15 0)
(3 2.50197e-15 0)
(3 2.19283e-15 0)
(3 1.33421e-15 0)
(3 1.19311e-15 0)
(3 1.92245e-15 0)
(3 3.48332e-15 0)
(3 3.46906e-15 0)
(3 2.03309e-15 0)
(3 1.29755e-15 0)
(3 1.63825e-15 0)
(3 1.27645e-15 0)
(3 1.38905e-15 0)
(3 2.02881e-16 0)
(3 -4.04231e-16 0)
(3 -7.39175e-16 0)
(3 7.32527e-17 0)
(3 1.4818e-15 0)
(3 1.93696e-15 0)
(3 1.14193e-15 0)
(3 8.81899e-16 0)
(3 9.93445e-16 0)
(3 1.56522e-15 0)
(3 1.75702e-15 0)
(3 1.1937e-15 0)
(3 -3.6746e-16 0)
(3 -9.40581e-16 0)
(3 -7.48745e-16 0)
(3 2.62791e-16 0)
(3 3.20661e-16 0)
(3 -1.31659e-16 0)
(3 -9.80047e-16 0)
(3 -7.12825e-16 0)
(3 -5.95023e-16 0)
(3 -5.24267e-16 0)
(3 -3.62457e-16 0)
(3 -7.54369e-17 0)
(3 2.04556e-16 0)
(3 -5.55329e-17 0)
(3 -4.97478e-16 0)
(3 -7.56829e-16 0)
(3 -5.21699e-16 0)
(3 -6.03769e-17 0)
(3 -3.49673e-16 0)
(3 -7.67881e-16 0)
(3 -1.23178e-15 0)
(3 -1.70837e-15 0)
(3 -1.58712e-15 0)
(3 -1.20524e-15 0)
(3 -2.37347e-16 0)
(3 -2.15367e-16 0)
(3 -9.15882e-17 0)
(3 3.35554e-16 0)
(3 5.68366e-16 0)
(3 8.93741e-16 0)
(3 1.18217e-15 0)
(3 8.56426e-16 0)
(3 -6.00755e-17 0)
(3 -4.45259e-16 0)
(3 5.92512e-16 0)
(3 6.99126e-16 0)
(3 1.28073e-16 0)
(3 -6.22324e-16 0)
(3 -1.60793e-16 0)
(3 9.15671e-16 0)
(3 8.56495e-16 0)
(3 9.81975e-16 0)
(3 7.08048e-16 0)
(3 6.09097e-16 0)
(3 5.644e-16 0)
(3 2.22637e-16 0)
(3 -2.35576e-16 0)
(3 -3.04811e-16 0)
(3 1.20367e-16 0)
(3 -1.20039e-17 0)
(3 -6.69942e-16 0)
(3 -1.29292e-15 0)
(3 -1.11845e-15 0)
(3 -7.33138e-16 0)
(3 -1.67579e-15 0)
(3 -1.46708e-15 0)
(3 -6.75366e-16 0)
(3 -5.85724e-16 0)
(3 -6.85898e-16 0)
(3 -1.25242e-15 0)
(3 -1.06103e-15 0)
(3 -1.08037e-15 0)
(3 -9.60227e-16 0)
(3 -4.90638e-16 0)
(3 -3.23464e-16 0)
(3 -3.22095e-16 0)
(3 -2.60503e-16 0)
(3 7.56185e-16 0)
(3 1.48188e-15 0)
(3 2.51128e-15 0)
(3 2.50774e-15 0)
(3 1.90893e-15 0)
(3 1.49543e-15 0)
(3 9.64029e-16 0)
(3 9.58964e-16 0)
(3 1.2887e-15 0)
(3 1.82872e-15 0)
(3 1.42336e-15 0)
(3 1.73135e-15 0)
(3 1.3511e-15 0)
(3 5.79289e-16 0)
(3 2.61024e-16 0)
(3 1.01421e-15 0)
(3 9.39089e-16 0)
(3 -7.56055e-16 0)
(3 -1.17665e-15 0)
(3 -4.93519e-16 0)
(3 1.07461e-15 0)
(3 1.50767e-15 0)
(3 1.82232e-15 0)
(3 1.4124e-15 0)
(3 1.76822e-15 0)
(3 1.78229e-15 0)
(3 1.38169e-15 0)
(3 3.18468e-16 0)
(3 5.36402e-17 0)
(3 -3.16786e-16 0)
(3 -4.76656e-16 0)
(3 -7.47739e-16 0)
(3 -7.05093e-16 0)
(3 -6.27018e-16 0)
(3 -1.28494e-15 0)
(3 -7.74988e-16 0)
(3 1.95245e-17 0)
(3 -5.69764e-16 0)
(3 -8.34889e-16 0)
(3 -6.11988e-16 0)
(3 -5.08161e-16 0)
(3 1.86569e-16 0)
(3 -1.5119e-16 0)
(3 -5.19066e-16 0)
(3 -4.08323e-16 0)
(3 -5.83581e-17 0)
(3 -1.07639e-16 0)
(3 -2.46304e-16 0)
(3 -8.03905e-16 0)
(3 -1.33791e-15 0)
(3 -1.28326e-15 0)
(3 -1.05706e-15 0)
(3 -1.01792e-15 0)
(3 -6.41683e-16 0)
(3 -6.34191e-16 0)
(3 -4.29814e-16 0)
(3 -7.08863e-16 0)
(3 1.60518e-16 0)
(3 1.07422e-15 0)
(3 1.42103e-15 0)
(3 5.83058e-16 0)
(3 -1.89978e-16 0)
(3 -6.41677e-16 0)
(3 -6.13832e-16 0)
(3 -6.01898e-16 0)
(3 -2.64216e-16 0)
(3 9.89393e-17 0)
(3 2.12646e-16 0)
(3 2.40472e-16 0)
(3 7.10915e-16 0)
(3 9.89486e-16 0)
(3 1.40595e-15 0)
(3 7.76511e-16 0)
(3 -1.80341e-16 0)
(3 -5.67501e-16 0)
(3 -8.06137e-16 0)
(3 -1.44096e-15 0)
(3 -7.30683e-16 0)
(3 -1.3938e-16 0)
(3 -2.91111e-16 0)
(3 -3.28004e-16 0)
(3 -9.01709e-17 0)
(3 -1.83158e-16 0)
(3 -1.45576e-15 0)
(3 -9.09431e-16 0)
(3 -2.67167e-16 0)
(3 -3.25627e-16 0)
(3 -7.45771e-16 0)
(3 -4.37173e-16 0)
(3 4.96939e-16 0)
(3 4.97214e-16 0)
(3 6.69913e-16 0)
(3 4.42585e-16 0)
(3 2.88487e-16 0)
(3 7.4553e-17 0)
(3 7.20397e-16 0)
(3 1.68322e-15 0)
(3 2.42892e-15 0)
(3 3.50424e-15 0)
(3 3.32272e-15 0)
(3 1.87984e-15 0)
(3 1.45716e-15 0)
(3 1.5267e-15 0)
(3 2.01516e-15 0)
(3 1.4248e-15 0)
(3 6.57847e-16 0)
(3 -5.08101e-17 0)
(3 -6.98531e-17 0)
(3 9.72403e-16 0)
(3 1.39471e-15 0)
(3 4.00947e-16 0)
(3 -2.7283e-16 0)
(3 -3.77632e-16 0)
(3 -1.38209e-16 0)
(3 3.43496e-16 0)
(3 1.03064e-15 0)
(3 1.04898e-15 0)
(3 5.79849e-16 0)
(3 4.89992e-16 0)
(3 9.67556e-16 0)
(3 1.62069e-15 0)
(3 1.34974e-15 0)
(3 9.33739e-16 0)
(3 2.59544e-16 0)
(3 3.59067e-16 0)
(3 8.43307e-16 0)
(3 4.3666e-17 0)
(3 -1.29515e-15 0)
(3 -8.95613e-16 0)
(3 -4.98128e-16 0)
(3 -4.36416e-16 0)
(3 -5.51896e-16 0)
(3 -1.00322e-15 0)
(3 -1.16734e-15 0)
(3 -1.14454e-15 0)
(3 -1.30252e-15 0)
(3 -1.13581e-15 0)
(3 -1.0439e-16 0)
(3 -2.41399e-16 0)
(3 -2.14481e-16 0)
(3 8.52833e-16 0)
(3 1.04497e-15 0)
(3 3.79988e-16 0)
(3 2.33668e-16 0)
(3 -2.46166e-16 0)
(3 -2.31374e-16 0)
(3 -3.47797e-16 0)
(3 -4.61673e-16 0)
(3 -7.85179e-16 0)
(3 -7.06674e-16 0)
(3 -2.184e-17 0)
(3 9.63834e-17 0)
(3 2.9789e-16 0)
(3 7.22946e-16 0)
(3 9.72919e-16 0)
(3 9.44425e-16 0)
(3 9.09654e-16 0)
(3 -2.75935e-17 0)
(3 -4.22304e-16 0)
(3 -8.14758e-16 0)
(3 -3.63215e-16 0)
(3 3.26473e-16 0)
(3 5.34404e-16 0)
(3 -6.37837e-16 0)
(3 -1.07734e-15 0)
(3 -9.84314e-16 0)
(3 1.88256e-16 0)
(3 5.54322e-16 0)
(3 1.69205e-16 0)
(3 -3.60771e-16 0)
(3 -1.55877e-16 0)
(3 1.32914e-16 0)
(3 -3.03258e-16 0)
(3 -3.80477e-16 0)
(3 -1.42903e-16 0)
(3 5.56941e-16 0)
(3 5.68254e-16 0)
(3 -7.03691e-17 0)
(3 -1.11672e-16 0)
(3 -2.50372e-16 0)
(3 -1.46008e-16 0)
(3 -3.3757e-16 0)
(3 -2.97233e-16 0)
(3 -1.74875e-16 0)
(3 2.42516e-16 0)
(3 2.63013e-16 0)
(3 2.29791e-16 0)
(3 -4.65136e-17 0)
(3 1.91927e-16 0)
(3 9.96174e-16 0)
(3 1.11123e-15 0)
(3 1.78645e-15 0)
(3 1.82727e-15 0)
(3 1.74971e-15 0)
(3 1.30003e-15 0)
(3 1.46497e-15 0)
(3 1.20106e-15 0)
(3 1.71448e-15 0)
(3 1.85117e-15 0)
(3 1.44394e-15 0)
(3 4.60632e-16 0)
(3 -6.93257e-16 0)
(3 -1.09694e-15 0)
(3 -7.11222e-16 0)
(3 -8.41248e-16 0)
(3 8.76176e-17 0)
(3 5.10766e-16 0)
(3 1.20017e-15 0)
(3 1.24629e-15 0)
(3 1.74444e-15 0)
(3 1.80155e-15 0)
(3 1.11184e-15 0)
(3 -7.6057e-17 0)
(3 -5.37047e-16 0)
(3 -7.85714e-16 0)
(3 -8.17879e-16 0)
(3 3.94205e-17 0)
(3 1.37158e-15 0)
(3 9.80596e-16 0)
(3 4.56856e-16 0)
(3 2.22852e-16 0)
(3 2.29714e-16 0)
(3 8.89007e-17 0)
(3 -3.21255e-17 0)
(3 1.23096e-16 0)
(3 2.63357e-16 0)
(3 7.70699e-16 0)
(3 6.60716e-16 0)
(3 1.21722e-16 0)
(3 -6.15109e-16 0)
(3 -1.05375e-15 0)
(3 -6.5414e-16 0)
(3 -2.4706e-16 0)
(3 -1.45295e-17 0)
(3 -9.79041e-17 0)
(3 -3.9931e-17 0)
(3 3.89868e-17 0)
(3 -4.97528e-17 0)
(3 -6.81509e-17 0)
(3 -1.66339e-16 0)
(3 6.76025e-16 0)
(3 1.24592e-15 0)
(3 5.39357e-16 0)
(3 -4.96286e-16 0)
(3 -2.5003e-16 0)
(3 1.27734e-16 0)
(3 6.67639e-16 0)
(3 1.7673e-15 0)
(3 2.21276e-15 0)
(3 1.89921e-15 0)
(3 1.13554e-15 0)
(3 7.74097e-16 0)
(3 9.48862e-16 0)
(3 8.79226e-16 0)
(3 2.66134e-16 0)
(3 5.06164e-16 0)
(3 1.42786e-15 0)
(3 1.58657e-15 0)
(3 1.55625e-15 0)
(3 1.1215e-15 0)
(3 4.43059e-16 0)
(3 -1.28297e-16 0)
(3 -3.33628e-16 0)
(3 -1.16464e-16 0)
(3 3.44421e-16 0)
(3 1.8127e-16 0)
(3 9.88674e-17 0)
(3 1.63318e-16 0)
(3 1.30011e-15 0)
(3 1.58072e-15 0)
(3 1.42337e-15 0)
(3 1.18209e-15 0)
(3 5.52371e-16 0)
(3 1.59699e-16 0)
(3 5.96757e-16 0)
(3 1.42785e-15 0)
(3 8.24691e-16 0)
(3 -2.63019e-16 0)
(3 5.95013e-17 0)
(3 1.57303e-16 0)
(3 5.31578e-16 0)
(3 3.49171e-16 0)
(3 -9.92387e-17 0)
(3 -1.8731e-16 0)
(3 -9.14656e-17 0)
(3 1.21052e-15 0)
(3 2.5758e-15 0)
(3 2.64905e-15 0)
(3 2.23922e-15 0)
(3 1.08743e-15 0)
(3 6.02191e-16 0)
(3 9.8827e-16 0)
(3 1.41796e-15 0)
(3 1.49151e-15 0)
(3 1.0083e-15 0)
(3 8.90863e-16 0)
(3 3.74988e-16 0)
(3 -2.61093e-16 0)
(3 -3.90552e-16 0)
(3 -9.2253e-16 0)
(3 -9.55209e-16 0)
(3 -1.17084e-15 0)
(3 -5.81835e-16 0)
(3 -1.97329e-16 0)
(3 6.36083e-17 0)
(3 4.98163e-16 0)
(3 2.41754e-16 0)
(3 -2.04033e-16 0)
(3 -2.60846e-16 0)
(3 -5.41757e-16 0)
(3 -8.17192e-16 0)
(3 -7.33483e-16 0)
(3 -5.13751e-16 0)
(3 1.738e-16 0)
(3 3.54691e-16 0)
(3 3.81329e-16 0)
(3 -3.29815e-16 0)
(3 -4.5793e-16 0)
(3 1.98527e-16 0)
(3 1.35121e-15 0)
(3 1.40264e-15 0)
(3 9.50086e-16 0)
(3 1.6017e-15 0)
(3 1.56131e-15 0)
(3 1.27321e-15 0)
(3 -2.19495e-16 0)
(3 -7.8899e-16 0)
(3 -1.41258e-16 0)
(3 3.17487e-16 0)
(3 6.2962e-17 0)
(3 7.52362e-17 0)
(3 -1.57135e-16 0)
(3 -5.70214e-16 0)
(3 -1.19198e-15 0)
(3 -5.4214e-16 0)
(3 1.45909e-16 0)
(3 1.04106e-15 0)
(3 4.79072e-16 0)
(3 2.31052e-16 0)
(3 9.36528e-17 0)
(3 5.67001e-16 0)
(3 5.27336e-16 0)
(3 6.08266e-16 0)
(3 1.15497e-15 0)
(3 1.32715e-15 0)
(3 7.65856e-16 0)
(3 -7.35689e-17 0)
(3 -1.39702e-16 0)
(3 2.20994e-16 0)
(3 8.97165e-16 0)
(3 1.48285e-15 0)
(3 1.54621e-15 0)
(3 4.39889e-16 0)
(3 2.77463e-16 0)
(3 9.42347e-16 0)
(3 1.39383e-15 0)
(3 8.52514e-16 0)
(3 2.28892e-16 0)
(3 -1.03346e-15 0)
(3 -9.40446e-16 0)
(3 -2.072e-16 0)
(3 -5.38759e-16 0)
(3 -8.95615e-16 0)
(3 -6.61552e-16 0)
(3 -1.56894e-16 0)
(3 -7.92555e-17 0)
(3 3.34821e-16 0)
(3 -2.58155e-16 0)
(3 -9.16387e-17 0)
(3 6.36072e-16 0)
(3 1.50715e-15 0)
(3 2.18494e-15 0)
(3 1.11858e-15 0)
(3 4.04503e-16 0)
(3 2.61806e-16 0)
(3 1.54493e-16 0)
(3 1.489e-17 0)
(3 7.15891e-17 0)
(3 -2.73364e-16 0)
(3 7.45602e-17 0)
(3 -6.36508e-17 0)
(3 2.90379e-16 0)
(3 6.99244e-16 0)
(3 9.99386e-16 0)
(3 8.13196e-16 0)
(3 9.83373e-16 0)
(3 1.33872e-15 0)
(3 8.61824e-16 0)
(3 1.39457e-15 0)
(3 1.23625e-15 0)
(3 7.56709e-16 0)
(3 -1.92544e-16 0)
(3 -1.68285e-16 0)
(3 -3.18979e-16 0)
(3 -6.59975e-16 0)
(3 -1.07737e-15 0)
(3 -1.1697e-15 0)
(3 -1.60421e-15 0)
(3 -1.86771e-15 0)
(3 -2.16078e-15 0)
(3 -1.2733e-15 0)
(3 -1.15141e-15 0)
(3 -6.95818e-16 0)
(3 -8.30686e-17 0)
(3 -4.53918e-17 0)
(3 -5.52784e-16 0)
(3 -9.66096e-16 0)
(3 -8.5063e-16 0)
(3 -1.29826e-16 0)
(3 -4.12456e-16 0)
(3 -3.51558e-16 0)
(3 -5.80773e-16 0)
(3 -9.80054e-16 0)
(3 -1.27621e-15 0)
(3 -6.33234e-16 0)
(3 1.12877e-15 0)
(3 1.86578e-15 0)
(3 1.49032e-15 0)
(3 1.17864e-15 0)
(3 8.06183e-16 0)
(3 -4.52516e-17 0)
(3 -7.84306e-18 0)
(3 -4.70712e-16 0)
(3 -9.95139e-16 0)
(3 -1.9211e-16 0)
(3 1.85315e-16 0)
(3 2.09272e-16 0)
(3 -1.39111e-17 0)
(3 -9.18356e-17 0)
(3 4.77187e-17 0)
(3 5.81785e-16 0)
(3 8.69137e-16 0)
(3 8.49345e-16 0)
(3 7.45574e-16 0)
(3 3.83153e-16 0)
(3 6.52336e-16 0)
(3 5.40435e-16 0)
(3 1.03841e-17 0)
(3 1.74151e-17 0)
(3 2.26777e-16 0)
(3 4.13105e-16 0)
(3 -2.48396e-16 0)
(3 -3.58109e-16 0)
(3 -7.54518e-16 0)
(3 -4.99073e-16 0)
(3 1.76637e-16 0)
(3 4.61309e-16 0)
(3 -9.69721e-17 0)
(3 -1.08879e-15 0)
(3 -8.21926e-16 0)
(3 -5.5887e-16 0)
(3 -7.49446e-16 0)
(3 -7.85789e-16 0)
(3 -3.68067e-16 0)
(3 -1.22811e-15 0)
(3 -1.99568e-15 0)
(3 -1.95718e-15 0)
(3 -1.16452e-15 0)
(3 -5.07687e-16 0)
(3 -3.19978e-16 0)
(3 -7.42497e-16 0)
(3 -1.40863e-15 0)
(3 -2.1689e-15 0)
(3 -2.03995e-15 0)
(3 -9.45369e-16 0)
(3 6.47523e-16 0)
(3 8.21543e-16 0)
(3 6.00688e-16 0)
(3 9.58604e-16 0)
(3 1.58168e-15 0)
(3 1.52903e-15 0)
(3 1.43276e-15 0)
(3 7.43378e-16 0)
(3 4.12775e-16 0)
(3 8.42663e-17 0)
(3 -1.79817e-16 0)
(3 -7.27171e-17 0)
(3 -4.65859e-16 0)
(3 -6.25549e-16 0)
(3 -5.05758e-16 0)
(3 -1.81946e-17 0)
(3 4.10934e-16 0)
(3 4.7166e-16 0)
(3 4.16652e-16 0)
(3 8.25481e-16 0)
(3 1.47743e-15 0)
(3 1.8968e-15 0)
(3 1.77566e-16 0)
(3 -9.63197e-16 0)
(3 -6.70152e-16 0)
(3 -2.58104e-16 0)
(3 -7.01526e-16 0)
(3 -1.03176e-15 0)
(3 -1.32699e-15 0)
(3 -2.28879e-15 0)
(3 -2.34618e-15 0)
(3 -2.65747e-15 0)
(3 -2.64864e-15 0)
(3 -2.13221e-15 0)
(3 -1.32072e-15 0)
(3 -1.08088e-15 0)
(3 -1.73933e-15 0)
(3 -2.47927e-15 0)
(3 -1.64535e-15 0)
(3 -1.03337e-15 0)
(3 1.30512e-16 0)
(3 7.089e-16 0)
(3 1.05158e-16 0)
(3 -1.04078e-15 0)
(3 -2.50349e-15 0)
(3 -1.91625e-15 0)
(3 -6.23449e-16 0)
(3 9.81033e-16 0)
(3 7.32983e-16 0)
(3 8.22421e-17 0)
(3 -2.29122e-17 0)
(3 -1.08831e-16 0)
(3 8.7842e-16 0)
(3 9.19454e-16 0)
(3 2.07729e-16 0)
(3 2.7909e-17 0)
(3 -3.5677e-17 0)
(3 -2.08797e-16 0)
(3 1.85517e-17 0)
(3 6.51702e-16 0)
(3 1.23995e-15 0)
(3 1.07325e-15 0)
(3 7.61111e-16 0)
(3 6.16948e-16 0)
(3 3.61962e-16 0)
(3 6.09469e-16 0)
(3 9.35349e-16 0)
(3 1.06358e-15 0)
(3 7.31723e-16 0)
(3 5.68186e-16 0)
(3 2.15515e-16 0)
(3 -1.22512e-16 0)
(3 -9.54267e-16 0)
(3 -8.39788e-16 0)
(3 -8.31046e-16 0)
(3 -3.55687e-16 0)
(3 -1.96807e-16 0)
(3 -3.75813e-16 0)
(3 -5.23693e-16 0)
(3 -7.57627e-16 0)
(3 -6.36938e-16 0)
(3 -5.66364e-16 0)
(3 -5.62578e-16 0)
(3 -8.22909e-16 0)
(3 -6.03754e-16 0)
(3 -2.10642e-16 0)
(3 -5.90613e-16 0)
(3 -5.51885e-16 0)
(3 -2.05715e-17 0)
(3 5.85101e-16 0)
(3 1.5764e-16 0)
(3 -1.27558e-15 0)
(3 -1.63556e-15 0)
(3 -2.25176e-15 0)
(3 -7.71004e-16 0)
(3 -2.59398e-16 0)
(3 -3.60219e-16 0)
(3 -4.54319e-16 0)
(3 1.69892e-16 0)
(3 1.37064e-15 0)
(3 1.28814e-15 0)
(3 1.17289e-15 0)
(3 1.5766e-15 0)
(3 1.56648e-15 0)
(3 9.41234e-16 0)
(3 2.76125e-16 0)
(3 -3.08943e-16 0)
(3 -5.0042e-16 0)
(3 -2.16914e-16 0)
(3 -4.79672e-18 0)
(3 -1.76777e-16 0)
(3 -2.09848e-16 0)
(3 -3.43398e-16 0)
(3 -3.52602e-16 0)
(3 7.8187e-16 0)
(3 1.04663e-15 0)
(3 1.04876e-15 0)
(3 9.14109e-16 0)
(3 6.04472e-16 0)
(3 1.08962e-16 0)
(3 5.18041e-16 0)
(3 8.85902e-16 0)
(3 7.61033e-16 0)
(3 4.04413e-16 0)
(3 -3.79588e-16 0)
(3 -2.3988e-15 0)
(3 -2.84551e-15 0)
(3 -3.62804e-15 0)
(3 -3.88571e-15 0)
(3 -3.62467e-15 0)
(3 -3.15036e-15 0)
(3 -2.77898e-15 0)
(3 -3.61734e-15 0)
(3 -3.52455e-15 0)
(3 -3.16352e-15 0)
(3 -2.21486e-15 0)
(3 -1.73677e-15 0)
(3 -1.45221e-15 0)
(3 -3.76283e-17 0)
(3 5.35279e-16 0)
(3 7.36578e-16 0)
(3 9.62573e-16 0)
(3 1.2529e-15 0)
(3 1.26042e-15 0)
(3 1.31338e-15 0)
(3 1.08902e-15 0)
(3 1.0714e-16 0)
(3 4.53139e-16 0)
(3 1.19386e-15 0)
(3 1.20967e-15 0)
(3 4.9295e-16 0)
(3 -3.0595e-17 0)
(3 -1.37681e-16 0)
(3 -1.04562e-16 0)
(3 2.1734e-16 0)
(3 7.29155e-16 0)
(3 9.64266e-16 0)
(3 2.4424e-16 0)
(3 -2.54484e-16 0)
(3 -1.56331e-17 0)
(3 -3.97781e-19 0)
(3 5.26268e-16 0)
(3 3.96558e-16 0)
(3 5.12994e-16 0)
(3 1.12052e-15 0)
(3 5.80439e-16 0)
(3 -1.99608e-16 0)
(3 -7.7768e-16 0)
(3 -1.3567e-15 0)
(3 -1.55988e-15 0)
(3 -1.46284e-15 0)
(3 -1.34147e-15 0)
(3 -1.69591e-15 0)
(3 -8.66772e-16 0)
(3 -5.37483e-16 0)
(3 -4.09877e-16 0)
(3 -6.68496e-16 0)
(3 -1.30505e-15 0)
(3 -1.47683e-15 0)
(3 -8.48661e-16 0)
(3 -1.10372e-16 0)
(3 9.36676e-16 0)
(3 1.80953e-15 0)
(3 1.90729e-15 0)
(3 1.6637e-15 0)
(3 1.26838e-15 0)
(3 -3.56684e-16 0)
(3 -5.65532e-16 0)
(3 -4.75514e-16 0)
(3 3.5438e-16 0)
(3 1.81698e-15 0)
(3 1.70286e-15 0)
(3 8.47597e-16 0)
(3 7.83381e-16 0)
(3 1.20044e-15 0)
(3 5.57718e-16 0)
(3 -9.64461e-18 0)
(3 4.87422e-16 0)
(3 4.4923e-16 0)
(3 4.18997e-16 0)
(3 -4.36682e-17 0)
(3 4.29126e-16 0)
(3 5.49791e-16 0)
(3 -4.2762e-16 0)
(3 -5.07574e-16 0)
(3 2.37116e-16 0)
(3 -7.2063e-17 0)
(3 -2.38035e-16 0)
(3 2.4068e-17 0)
(3 6.9138e-16 0)
(3 1.13982e-15 0)
(3 1.08616e-15 0)
(3 8.67243e-16 0)
(3 5.70311e-16 0)
(3 5.319e-16 0)
(3 1.01044e-15 0)
(3 1.30906e-15 0)
(3 6.78743e-16 0)
(3 4.39222e-16 0)
(3 -2.97461e-16 0)
(3 -1.33115e-15 0)
(3 -2.63702e-15 0)
(3 -3.01038e-15 0)
(3 -3.05271e-15 0)
(3 -3.07918e-15 0)
(3 -3.24155e-15 0)
(3 -3.96997e-15 0)
(3 -4.66588e-15 0)
(3 -4.61521e-15 0)
(3 -3.80778e-15 0)
(3 -2.45985e-15 0)
(3 -2.06257e-15 0)
(3 -1.54839e-15 0)
(3 -8.91456e-16 0)
(3 -1.51234e-16 0)
(3 2.48755e-16 0)
(3 1.07634e-15 0)
(3 1.60064e-15 0)
(3 1.3979e-15 0)
(3 8.47347e-16 0)
(3 1.16321e-15 0)
(3 1.17198e-15 0)
(3 8.38476e-16 0)
(3 1.44038e-16 0)
(3 7.6549e-16 0)
(3 5.51624e-16 0)
(3 7.65652e-18 0)
(3 -2.89611e-16 0)
(3 1.37532e-16 0)
(3 1.46158e-16 0)
(3 1.18242e-16 0)
(3 -1.60017e-17 0)
(3 -6.69807e-16 0)
(3 -8.86704e-16 0)
(3 -1.00141e-15 0)
(3 -6.32072e-16 0)
(3 7.54397e-16 0)
(3 7.77451e-16 0)
(3 3.64009e-16 0)
(3 1.17728e-16 0)
(3 2.50196e-16 0)
(3 6.31878e-17 0)
(3 -2.39181e-16 0)
(3 -7.28341e-16 0)
(3 -3.97522e-16 0)
(3 -5.00958e-17 0)
(3 -8.4227e-16 0)
(3 -1.50623e-15 0)
(3 -1.83187e-15 0)
(3 -1.57833e-15 0)
(3 -1.14616e-15 0)
(3 -1.2402e-15 0)
(3 -8.81841e-16 0)
(3 -9.2275e-16 0)
(3 -4.98873e-16 0)
(3 5.39846e-17 0)
(3 -1.04637e-16 0)
(3 2.69505e-16 0)
(3 6.43772e-16 0)
(3 1.09879e-15 0)
(3 1.33135e-15 0)
(3 2.94186e-16 0)
(3 -1.19251e-16 0)
(3 9.31427e-16 0)
(3 1.48295e-15 0)
(3 2.84899e-15 0)
(3 2.78296e-15 0)
(3 2.36182e-15 0)
(3 1.96728e-15 0)
(3 2.16343e-15 0)
(3 1.25328e-15 0)
(3 1.38987e-16 0)
(3 1.2284e-16 0)
(3 1.25286e-16 0)
(3 -4.54198e-16 0)
(3 -1.1587e-15 0)
(3 -8.86263e-16 0)
(3 5.39238e-16 0)
(3 7.19282e-16 0)
(3 2.30926e-16 0)
(3 -1.89787e-16 0)
(3 -1.14859e-16 0)
(3 7.58955e-16 0)
(3 9.60961e-16 0)
(3 1.29592e-15 0)
(3 1.63562e-15 0)
(3 1.95775e-15 0)
(3 1.96832e-15 0)
(3 1.24921e-15 0)
(3 9.08059e-16 0)
(3 1.08441e-15 0)
(3 1.21557e-15 0)
(3 1.04682e-15 0)
(3 -5.83753e-17 0)
(3 -5.81446e-16 0)
(3 -8.56043e-16 0)
(3 -1.08344e-15 0)
(3 -1.88317e-15 0)
(3 -2.12878e-15 0)
(3 -2.2096e-15 0)
(3 -2.44052e-15 0)
(3 -2.74166e-15 0)
(3 -3.25973e-15 0)
(3 -3.82519e-15 0)
(3 -3.27381e-15 0)
(3 -1.8048e-15 0)
(3 -5.27152e-16 0)
(3 -8.69523e-16 0)
(3 -1.19901e-15 0)
(3 -2.67559e-16 0)
(3 1.18331e-16 0)
(3 1.11266e-15 0)
(3 1.50919e-15 0)
(3 1.15938e-15 0)
(3 9.62143e-16 0)
(3 9.64533e-16 0)
(3 8.43317e-16 0)
(3 3.51904e-16 0)
(3 6.63381e-16 0)
(3 8.54486e-16 0)