/*--------------------------------*- C++ -*----------------------------------*\
  =========                 |
  \\      /  F ield         | OpenFOAM: The Open Source CFD Toolbox
   \\    /   O peration     | Website:  https://openfoam.org
    \\  /    A nd           | Version:  7
     \\/     M anipulation  |
\*---------------------------------------------------------------------------*/
FoamFile
{
    version     2.0;
    format      ascii;
    class       volScalarField;
    location    "1.5";
    object      T;
}
// * * * * * * * * * * * * * * * * * * * * * * * * * * * * * * * * * * * * * //

dimensions      [0 0 0 1 0 0 0];

internalField   nonuniform List<scalar> 
16192
(
1.43849
1.43778
1.43718
1.43686
1.4368
1.43615
1.43518
1.43392
1.43149
1.42828
1.42709
1.42662
1.4262
1.42588
1.42541
1.42484
1.42423
1.42335
1.42172
1.41892
1.41637
1.4151
1.41458
1.41459
1.41509
1.41538
1.41523
1.41499
1.41446
1.41275
1.41003
1.40902
1.40891
1.4088
1.4089
1.40995
1.41166
1.41215
1.41188
1.41146
1.41108
1.41008
1.40833
1.40782
1.408
1.40858
1.40998
1.4128
1.41595
1.41694
1.41725
1.41783
1.41853
1.41849
1.41761
1.41719
1.41754
1.41794
1.41824
1.41813
1.41722
1.41601
1.41434
1.41188
1.40889
1.40671
1.40614
1.40609
1.4061
1.40633
1.40725
1.40733
1.40656
1.40593
1.40558
1.40503
1.40435
1.40452
1.40609
1.40834
1.41066
1.41312
1.41357
1.41338
1.41264
1.41088
1.40809
1.40521
1.40276
1.40026
1.39723
1.39641
1.39661
1.39728
1.39826
1.39858
1.39844
1.39737
1.39514
1.39347
1.39259
1.39175
1.39097
1.39076
1.39135
1.39233
1.39209
1.39194
1.39184
1.39164
1.39092
1.38913
1.38707
1.38606
1.38601
1.3862
1.38663
1.38741
1.38925
1.39356
1.40316
1.41702
1.42896
1.43342
1.43322
1.4332
1.43412
1.43486
1.43445
1.4335
1.43326
1.43327
1.4327
1.43019
1.42677
1.42452
1.42297
1.42176
1.42162
1.42238
1.4235
1.42361
1.42379
1.42354
1.4222
1.41957
1.41706
1.41535
1.41422
1.41371
1.41406
1.41623
1.41902
1.41948
1.41948
1.41912
1.41797
1.4156
1.41104
1.4059
1.40397
1.40349
1.40316
1.40287
1.40296
1.40386
1.40567
1.40678
1.40668
1.40549
1.4034
1.40067
1.39783
1.39696
1.397
1.3972
1.3976
1.39875
1.39941
1.39895
1.39775
1.39628
1.39441
1.393
1.3929
1.39353
1.39487
1.39647
1.39752
1.39757
1.39721
1.39593
1.39323
1.38904
1.38465
1.3819
1.38066
1.38022
1.38051
1.38233
1.38547
1.38705
1.38781
1.38796
1.38795
1.38637
1.38687
1.3977
1.43562
1.53375
1.66153
1.72018
1.76686
1.78786
1.79453
1.79982
1.80088
1.79816
1.79402
1.79184
1.79017
1.78812
1.78815
1.7878
1.78619
1.78448
1.78296
1.78194
1.78071
1.77854
1.77511
1.77089
1.76655
1.76262
1.7601
1.75847
1.75812
1.75862
1.75958
1.76063
1.7612
1.7609
1.75895
1.75621
1.7538
1.75078
1.74731
1.74445
1.74173
1.738
1.73477
1.73194
1.7289
1.43716
1.43651
1.43608
1.43605
1.43556
1.43468
1.43372
1.4318
1.42843
1.42673
1.42621
1.42571
1.42527
1.42488
1.42432
1.42374
1.42303
1.42173
1.4193
1.41685
1.41561
1.41477
1.41443
1.41452
1.41444
1.4143
1.41415
1.41358
1.41179
1.40907
1.40806
1.40795
1.40787
1.40794
1.40889
1.41014
1.41033
1.40986
1.40933
1.40885
1.40781
1.40622
1.40578
1.406
1.40653
1.40775
1.41021
1.41278
1.41334
1.41344
1.41379
1.41439
1.41501
1.4151
1.41534
1.41637
1.41756
1.41855
1.41881
1.41825
1.41711
1.41525
1.4126
1.40912
1.40607
1.4054
1.4054
1.40547
1.40582
1.4069
1.40734
1.40676
1.40574
1.40465
1.40354
1.40266
1.4026
1.40356
1.40581
1.40819
1.4108
1.41242
1.41232
1.412
1.41096
1.40862
1.40545
1.40293
1.40103
1.39878
1.39611
1.39571
1.39599
1.39679
1.39742
1.39744
1.39652
1.39434
1.39283
1.39212
1.39144
1.39073
1.39045
1.39082
1.39216
1.39229
1.39208
1.39194
1.39154
1.3905
1.38893
1.38698
1.38588
1.38522
1.38487
1.38501
1.38536
1.38595
1.38707
1.38989
1.39657
1.40847
1.42209
1.43087
1.43293
1.43361
1.43382
1.43379
1.43324
1.43231
1.43168
1.4306
1.42831
1.42588
1.42421
1.42289
1.42195
1.42192
1.42281
1.42366
1.42355
1.42353
1.42313
1.42156
1.41871
1.41656
1.41519
1.41407
1.41332
1.41352
1.41544
1.41781
1.41808
1.41821
1.41816
1.41753
1.41523
1.41046
1.4053
1.40313
1.40243
1.40204
1.40194
1.40264
1.40447
1.40638
1.40696
1.40667
1.40525
1.40286
1.39965
1.39651
1.39558
1.39565
1.396
1.39687
1.39855
1.39936
1.39901
1.39783
1.39598
1.39359
1.39186
1.39173
1.39224
1.39348
1.3951
1.39644
1.39658
1.39648
1.39565
1.39335
1.38951
1.38539
1.38242
1.38083
1.38032
1.38049
1.38186
1.38394
1.38488
1.3855
1.38615
1.38591
1.38532
1.39029
1.42369
1.50489
1.6026
1.71424
1.75299
1.77438
1.79136
1.79525
1.79523
1.79325
1.79088
1.79013
1.78968
1.79149
1.79195
1.78995
1.78619
1.78282
1.78099
1.78042
1.77994
1.77963
1.77818
1.77478
1.77026
1.76597
1.76239
1.75935
1.75756
1.75736
1.75653
1.75663
1.75708
1.75708
1.75672
1.75575
1.75405
1.75218
1.74993
1.74699
1.74361
1.74055
1.73699
1.73377
1.73117
1.72892
1.72694
1.43592
1.43541
1.43522
1.43457
1.43379
1.43304
1.43158
1.42864
1.42641
1.42577
1.42526
1.42472
1.42428
1.42381
1.42321
1.42259
1.42158
1.41958
1.41722
1.41598
1.41515
1.41444
1.41393
1.41354
1.41345
1.41337
1.4129
1.41128
1.40857
1.40744
1.40731
1.40723
1.40728
1.40803
1.40879
1.4087
1.40798
1.40736
1.40679
1.4056
1.40417
1.40384
1.40413
1.40476
1.40591
1.40803
1.40985
1.41008
1.4098
1.40974
1.40987
1.41026
1.41132
1.41251
1.41406
1.41611
1.41826
1.41909
1.41886
1.41805
1.41628
1.41339
1.41006
1.40687
1.40512
1.40497
1.40506
1.40542
1.40641
1.40705
1.4067
1.40574
1.40412
1.40221
1.40096
1.40081
1.40126
1.40296
1.40559
1.40811
1.41058
1.41107
1.41097
1.41055
1.40899
1.40606
1.40308
1.40147
1.39994
1.39762
1.39531
1.39517
1.39549
1.39613
1.39627
1.39548
1.39333
1.39186
1.3914
1.39099
1.39041
1.39015
1.39045
1.39178
1.3922
1.39197
1.39178
1.39127
1.3901
1.38828
1.38623
1.38536
1.38491
1.38448
1.384
1.38402
1.38432
1.38477
1.38551
1.38728
1.39174
1.40071
1.41415
1.42762
1.43244
1.43255
1.43253
1.43255
1.43204
1.43098
1.42933
1.42688
1.42509
1.42392
1.42286
1.42218
1.42232
1.42345
1.42413
1.42378
1.42341
1.42283
1.42114
1.4181
1.41618
1.41505
1.41396
1.41309
1.41316
1.41477
1.41675
1.41684
1.41671
1.41641
1.41569
1.41345
1.40867
1.40455
1.40318
1.40252
1.40197
1.40194
1.40307
1.40542
1.40716
1.40736
1.4068
1.40507
1.40237
1.39869
1.39548
1.3946
1.39463
1.39496
1.39606
1.39814
1.39899
1.39879
1.39792
1.39593
1.393
1.39089
1.39063
1.39086
1.39192
1.39376
1.39499
1.39559
1.39565
1.39512
1.39319
1.38976
1.3861
1.38312
1.38118
1.38051
1.38069
1.38186
1.38266
1.38312
1.38312
1.38369
1.38356
1.38657
1.40259
1.46136
1.58542
1.67756
1.73879
1.78352
1.78777
1.79205
1.79274
1.79022
1.78599
1.78556
1.78726
1.79024
1.79223
1.79167
1.78805
1.7836
1.77982
1.77845
1.77814
1.77856
1.77877
1.77778
1.77475
1.76976
1.76555
1.76218
1.75918
1.75739
1.75712
1.75572
1.75447
1.75406
1.7536
1.75292
1.75176
1.75058
1.74935
1.74784
1.74589
1.74362
1.74065
1.73678
1.73273
1.72946
1.72731
1.72577
1.72461
1.43492
1.43455
1.43357
1.43265
1.43203
1.431
1.42853
1.42599
1.42525
1.42481
1.42425
1.42369
1.42324
1.42265
1.42203
1.42122
1.4196
1.41739
1.41617
1.41539
1.41452
1.4136
1.4128
1.41251
1.41243
1.4121
1.41082
1.40832
1.4071
1.40695
1.40686
1.40691
1.40743
1.40775
1.40736
1.40644
1.40572
1.40501
1.40364
1.40226
1.40202
1.40237
1.40311
1.40435
1.40622
1.40731
1.40726
1.40665
1.40613
1.40566
1.40552
1.40665
1.4085
1.4106
1.41346
1.41692
1.41859
1.41867
1.4183
1.41696
1.41438
1.41091
1.40778
1.40615
1.40522
1.40501
1.40522
1.40594
1.40669
1.40653
1.40577
1.40388
1.40111
1.39937
1.39913
1.39929
1.40034
1.40265
1.4056
1.40795
1.40948
1.40963
1.40958
1.40876
1.40651
1.40355
1.40172
1.4007
1.3991
1.39674
1.39497
1.39474
1.39498
1.39506
1.39431
1.3922
1.39065
1.3904
1.39026
1.38991
1.38975
1.39006
1.39138
1.3919
1.39163
1.3914
1.39086
1.38969
1.38768
1.38528
1.38459
1.3844
1.38417
1.38386
1.38343
1.38339
1.38359
1.38398
1.38434
1.38526
1.38806
1.39429
1.40568
1.42156
1.42989
1.43077
1.43109
1.4311
1.43051
1.42875
1.42628
1.42469
1.42376
1.42284
1.42233
1.42269
1.424
1.4245
1.42386
1.42311
1.42247
1.42094
1.41783
1.41595
1.41507
1.41413
1.41313
1.41306
1.41421
1.41555
1.41537
1.41515
1.41505
1.4145
1.41229
1.40786
1.4041
1.40246
1.40164
1.40116
1.4016
1.40358
1.40642
1.40762
1.40753
1.40669
1.40481
1.40197
1.39801
1.39468
1.3937
1.39369
1.39393
1.39521
1.39768
1.39848
1.39842
1.39785
1.39586
1.39254
1.39002
1.38957
1.38963
1.39032
1.39228
1.39374
1.39452
1.39476
1.39442
1.39281
1.38981
1.38684
1.38434
1.38217
1.38112
1.38123
1.38173
1.38178
1.38132
1.38149
1.38104
1.382
1.39262
1.43972
1.5229
1.64392
1.72937
1.76274
1.78685
1.79426
1.79355
1.78955
1.78334
1.78204
1.78217
1.7847
1.78964
1.79072
1.78996
1.78706
1.78272
1.77879
1.77614
1.77563
1.77575
1.77567
1.77499
1.77326
1.77027
1.7667
1.76306
1.75976
1.75731
1.75614
1.75461
1.75251
1.75156
1.75096
1.75002
1.7483
1.74675
1.74546
1.74395
1.7426
1.74156
1.73992
1.73695
1.73361
1.7298
1.726
1.72393
1.72278
1.72181
1.43411
1.43293
1.4317
1.43093
1.43009
1.42821
1.42562
1.42463
1.42426
1.4238
1.42323
1.42267
1.42209
1.4214
1.42063
1.41928
1.41727
1.41603
1.41537
1.41454
1.41349
1.41236
1.41166
1.4114
1.41111
1.41016
1.408
1.4068
1.40669
1.40665
1.40667
1.40701
1.40706
1.40637
1.40527
1.4044
1.40354
1.40205
1.40068
1.40049
1.40079
1.40157
1.40297
1.4046
1.40518
1.4049
1.4041
1.40318
1.40211
1.40154
1.40212
1.40369
1.40607
1.40945
1.41384
1.41657
1.41718
1.41721
1.41663
1.41488
1.41194
1.40868
1.40702
1.40643
1.40573
1.40553
1.4058
1.40645
1.40651
1.40586
1.4037
1.40032
1.39798
1.39757
1.39757
1.39813
1.39989
1.40278
1.40565
1.4071
1.40799
1.40813
1.40782
1.40632
1.40388
1.40196
1.40099
1.40026
1.39849
1.39623
1.39482
1.39435
1.39402
1.39312
1.39106
1.38943
1.3892
1.38928
1.38921
1.38918
1.38956
1.39088
1.39153
1.3912
1.39086
1.39033
1.3892
1.38706
1.3845
1.38379
1.38369
1.38363
1.38362
1.38343
1.38319
1.38316
1.38326
1.38326
1.38294
1.38321
1.3849
1.38905
1.39753
1.41294
1.42582
1.42865
1.42931
1.42931
1.42852
1.42627
1.42437
1.42363
1.42292
1.42245
1.42299
1.42428
1.42452
1.42363
1.42255
1.42184
1.42053
1.41772
1.41587
1.41519
1.41449
1.41355
1.41335
1.41407
1.41496
1.41448
1.41369
1.41315
1.41232
1.40993
1.40594
1.40369
1.40285
1.40211
1.40155
1.40201
1.40429
1.407
1.40755
1.40717
1.40606
1.40412
1.40119
1.39718
1.39413
1.39316
1.39311
1.39324
1.3945
1.3971
1.39797
1.39805
1.39765
1.39574
1.39221
1.38941
1.3886
1.38849
1.38891
1.39067
1.39234
1.39327
1.39367
1.39351
1.39229
1.38978
1.3874
1.3854
1.3835
1.38217
1.38185
1.38157
1.38092
1.38025
1.37933
1.3796
1.38473
1.40893
1.49451
1.60753
1.6898
1.76471
1.77863
1.78871
1.79176
1.79178
1.78617
1.78135
1.7804
1.78184
1.78387
1.78612
1.78639
1.78511
1.78341
1.78139
1.77854
1.77656
1.77522
1.77398
1.77276
1.77141
1.7696
1.76779
1.76632
1.76447
1.76168
1.75832
1.75556
1.75366
1.75163
1.74987
1.74877
1.74763
1.7458
1.74345
1.74173
1.74007
1.73835
1.73766
1.73729
1.73528
1.73249
1.72999
1.7273
1.72429
1.72165
1.71996
1.71879
1.43267
1.4312
1.43008
1.42911
1.42756
1.42523
1.42412
1.42376
1.42338
1.4229
1.42228
1.42159
1.42083
1.41999
1.4187
1.41675
1.41553
1.41499
1.41429
1.41336
1.41222
1.41115
1.41053
1.41013
1.40935
1.40745
1.4063
1.40629
1.40638
1.40641
1.4065
1.40649
1.40571
1.40449
1.40338
1.40232
1.40081
1.39942
1.39921
1.39944
1.40015
1.40162
1.40309
1.40335
1.40297
1.40213
1.40089
1.39928
1.39823
1.39846
1.39939
1.40117
1.40434
1.40925
1.41281
1.41423
1.41482
1.41485
1.4142
1.41227
1.40944
1.40762
1.40707
1.40698
1.40651
1.40631
1.40649
1.40668
1.40606
1.40365
1.39974
1.39704
1.39626
1.39609
1.39631
1.39758
1.40007
1.40313
1.40489
1.40581
1.40636
1.40631
1.4054
1.40372
1.40209
1.40102
1.40073
1.40003
1.398
1.39594
1.39453
1.39346
1.39218
1.39
1.3883
1.388
1.38813
1.38832
1.3885
1.38899
1.39025
1.39105
1.39074
1.39027
1.38968
1.38862
1.38642
1.38383
1.38312
1.38304
1.38301
1.38317
1.38344
1.38326
1.38316
1.38307
1.38259
1.38156
1.38102
1.38113
1.38207
1.38461
1.39047
1.4027
1.4189
1.42562
1.42733
1.42742
1.42654
1.42449
1.42355
1.42306
1.42287
1.42339
1.4242
1.42414
1.42309
1.42197
1.42113
1.41983
1.41735
1.41566
1.41518
1.41475
1.41408
1.4139
1.41436
1.4148
1.41396
1.41277
1.41208
1.41097
1.40833
1.40476
1.40286
1.40205
1.40149
1.40136
1.40239
1.40509
1.40701
1.40701
1.40618
1.4049
1.40308
1.40011
1.39613
1.3935
1.39262
1.39255
1.39269
1.39402
1.39654
1.39749
1.39772
1.39739
1.39552
1.39186
1.38902
1.38792
1.38755
1.38774
1.38911
1.39077
1.39171
1.39224
1.3922
1.39127
1.38941
1.38772
1.38625
1.3848
1.38365
1.38283
1.38179
1.37999
1.3793
1.37789
1.3799
1.39852
1.45334
1.54967
1.67574
1.73244
1.77038
1.79201
1.79193
1.79004
1.78684
1.78301
1.77915
1.77938
1.78108
1.78221
1.78249
1.78247
1.78199
1.78039
1.77877
1.77762
1.77596
1.77328
1.77105
1.76965
1.76865
1.76761
1.76618
1.76464
1.7634
1.76166
1.75926
1.7565
1.75362
1.75126
1.74916
1.74744
1.74585
1.74387
1.74127
1.7391
1.73721
1.73516
1.73341
1.73254
1.73156
1.72931
1.72729
1.72573
1.72422
1.72249
1.72032
1.71775
1.71554
1.43111
1.42967
1.42838
1.42683
1.42463
1.42356
1.42326
1.42297
1.42265
1.4221
1.42131
1.42045
1.41954
1.41813
1.416
1.41465
1.41422
1.41378
1.41304
1.41208
1.41101
1.41007
1.40942
1.40865
1.40696
1.40556
1.40553
1.40581
1.40593
1.40591
1.40574
1.40509
1.40396
1.40271
1.4014
1.3998
1.39835
1.39808
1.39823
1.39883
1.40025
1.40158
1.40172
1.40143
1.40071
1.39933
1.39726
1.39558
1.39549
1.39592
1.39701
1.39936
1.40351
1.40792
1.40983
1.41132
1.412
1.412
1.41121
1.40934
1.40791
1.40747
1.40746
1.4076
1.40726
1.40708
1.40692
1.4061
1.40374
1.39959
1.39655
1.39535
1.39488
1.39489
1.39574
1.3978
1.40051
1.4026
1.40358
1.40423
1.40439
1.40396
1.403
1.40188
1.40093
1.40073
1.40091
1.39957
1.39748
1.39547
1.39358
1.3917
1.38919
1.38727
1.38689
1.38697
1.38729
1.38771
1.38836
1.38958
1.39049
1.3903
1.38978
1.38904
1.38786
1.38569
1.38328
1.38252
1.38243
1.38243
1.3826
1.38326
1.38327
1.38309
1.38294
1.3823
1.38051
1.37923
1.37914
1.37916
1.37976
1.38124
1.38476
1.39362
1.40912
1.42103
1.42501
1.42551
1.4246
1.42346
1.423
1.42317
1.424
1.42388
1.42325
1.42237
1.4214
1.42039
1.41889
1.41661
1.41531
1.41502
1.4148
1.41454
1.41458
1.41501
1.41517
1.41403
1.41227
1.41098
1.4094
1.40641
1.40335
1.40234
1.40205
1.4017
1.4016
1.4028
1.40549
1.40669
1.40622
1.40493
1.40343
1.40151
1.39841
1.39474
1.39278
1.39212
1.39201
1.39229
1.39387
1.39612
1.39704
1.39743
1.39715
1.39525
1.39151
1.38871
1.38741
1.38677
1.3868
1.38779
1.38919
1.38996
1.39047
1.39048
1.38971
1.3884
1.38741
1.38652
1.38564
1.38495
1.38406
1.38214
1.38007
1.37748
1.3778
1.38458
1.42159
1.52908
1.62255
1.71197
1.76248
1.77876
1.78932
1.79378
1.79092
1.7849
1.78003
1.77948
1.77858
1.77902
1.77855
1.77781
1.77816
1.77843
1.77811
1.77772
1.77686
1.77427
1.77042
1.76746
1.76586
1.76535
1.76529
1.76493
1.76323
1.7609
1.75903
1.75728
1.75563
1.75443
1.7525
1.74958
1.74677
1.74434
1.74201
1.73956
1.73739
1.73533
1.73309
1.73077
1.72851
1.72646
1.72479
1.72353
1.72248
1.72183
1.72101
1.71985
1.71828
1.71565
1.71242
1.42976
1.4282
1.4264
1.42405
1.4228
1.42261
1.42243
1.4223
1.42199
1.42128
1.42033
1.41929
1.4178
1.41549
1.4137
1.41313
1.41281
1.41258
1.41187
1.41091
1.40999
1.40915
1.40825
1.40669
1.40492
1.40465
1.40487
1.40507
1.40505
1.40485
1.40429
1.40335
1.40216
1.4008
1.39908
1.39747
1.39709
1.39714
1.39759
1.39887
1.40001
1.40011
1.39999
1.39954
1.39825
1.39598
1.39388
1.39346
1.39356
1.39409
1.39564
1.39885
1.40236
1.40476
1.40637
1.40824
1.40897
1.40886
1.40806
1.40721
1.40714
1.40764
1.40834
1.40799
1.40781
1.40736
1.40612
1.40371
1.39973
1.3965
1.39478
1.39396
1.39383
1.39433
1.39598
1.39823
1.40012
1.40138
1.40202
1.4021
1.40214
1.40185
1.40128
1.40062
1.40059
1.40125
1.40053
1.39882
1.3967
1.39421
1.39165
1.38863
1.38634
1.38582
1.38584
1.38616
1.38679
1.3877
1.38901
1.38997
1.3899
1.38943
1.38858
1.38712
1.38476
1.3828
1.38203
1.38188
1.38187
1.38211
1.38292
1.38307
1.38276
1.38244
1.38173
1.38001
1.3778
1.37744
1.37742
1.37741
1.37775
1.37913
1.38128
1.38684
1.40008
1.41434
1.42201
1.42347
1.42307
1.42275
1.42318
1.42401
1.42357
1.42259
1.42155
1.42056
1.41949
1.41778
1.41564
1.41475
1.41456
1.41447
1.41461
1.41519
1.41579
1.41581
1.41451
1.4124
1.41059
1.4084
1.40498
1.40218
1.40139
1.40133
1.40122
1.40151
1.40321
1.40564
1.40627
1.40546
1.40379
1.40198
1.39968
1.39625
1.39309
1.39175
1.39128
1.39121
1.39194
1.39391
1.39587
1.39676
1.39716
1.39686
1.39481
1.39111
1.38859
1.38715
1.38623
1.38613
1.38683
1.38785
1.38822
1.38855
1.38857
1.38787
1.38705
1.38664
1.38619
1.38589
1.38563
1.38501
1.38266
1.38032
1.37757
1.38171
1.40702
1.46791
1.58752
1.69369
1.73941
1.77159
1.78343
1.78959
1.78935
1.78889
1.7861
1.78041
1.77671
1.77546
1.77525
1.77544
1.77559
1.77497
1.77499
1.77543
1.77535
1.77423
1.77133
1.7676
1.76431
1.76251
1.76237
1.76253
1.76238
1.76125
1.7589
1.75706
1.75563
1.7539
1.75285
1.75267
1.75099
1.748
1.74442
1.74047
1.73772
1.73569
1.73366
1.73145
1.72911
1.72643
1.72363
1.7211
1.71942
1.71859
1.71875
1.71839
1.71736
1.71632
1.71478
1.71202
1.70876
1.42856
1.4266
1.42394
1.422
1.42181
1.42174
1.42171
1.42165
1.42125
1.42043
1.41929
1.41767
1.41522
1.413
1.41213
1.41169
1.41153
1.41153
1.41087
1.41
1.40923
1.40832
1.40679
1.4046
1.4038
1.40391
1.40401
1.40398
1.40377
1.40332
1.40255
1.40152
1.40025
1.39858
1.39686
1.39624
1.39623
1.3965
1.39752
1.39837
1.3984
1.39839
1.39816
1.39713
1.39505
1.3929
1.39217
1.39206
1.39225
1.39327
1.39565
1.39857
1.39999
1.40092
1.40241
1.40431
1.40566
1.40571
1.40549
1.4057
1.40692
1.4088
1.40866
1.40805
1.40754
1.4063
1.40367
1.39977
1.39669
1.39459
1.39326
1.393
1.39327
1.39451
1.3963
1.3978
1.39901
1.3998
1.39973
1.39984
1.40039
1.40032
1.40013
1.40029
1.40131
1.40094
1.39964
1.39773
1.39505
1.39187
1.38829
1.38551
1.38478
1.38469
1.38493
1.38569
1.38695
1.38854
1.38959
1.38962
1.38924
1.38828
1.38655
1.38388
1.38223
1.38164
1.3814
1.38135
1.38164
1.38252
1.38269
1.38231
1.38175
1.38081
1.37909
1.3769
1.37615
1.37599
1.37598
1.37598
1.37623
1.37735
1.37905
1.38243
1.39221
1.40698
1.41695
1.42082
1.42177
1.42258
1.42343
1.42306
1.42192
1.42074
1.41971
1.41861
1.41678
1.4148
1.4141
1.4139
1.41383
1.41438
1.41553
1.41638
1.41635
1.4151
1.41292
1.41065
1.40774
1.4038
1.40141
1.40096
1.40094
1.40091
1.40156
1.40361
1.40563
1.40581
1.40473
1.4029
1.40078
1.39795
1.3942
1.39156
1.39057
1.39019
1.3903
1.39155
1.39394
1.39553
1.39637
1.39673
1.39645
1.39434
1.39076
1.38857
1.38714
1.38599
1.3857
1.38614
1.38684
1.3868
1.38674
1.38663
1.38594
1.38553
1.38557
1.38552
1.38554
1.38556
1.38507
1.38325
1.37951
1.38
1.39099
1.45134
1.5543
1.64196
1.7381
1.7615
1.77417
1.77812
1.7834
1.79009
1.79117
1.78822
1.78172
1.77757
1.77451
1.77257
1.77184
1.77205
1.77294
1.77372
1.77377
1.77307
1.77088
1.76804
1.76468
1.76156
1.75939
1.75871
1.75867
1.75851
1.75811
1.75679
1.75536
1.75448
1.75342
1.75245
1.75189
1.75008
1.74718
1.74435
1.74097
1.73683
1.73407
1.73208
1.73
1.72776
1.72517
1.72221
1.71929
1.71669
1.71504
1.71427
1.71417
1.71373
1.71291
1.7119
1.71017
1.7074
1.70483
1.42732
1.42459
1.42163
1.42095
1.42096
1.42098
1.42106
1.42092
1.42043
1.41946
1.41773
1.4151
1.41248
1.41125
1.41063
1.41039
1.41061
1.41056
1.40995
1.40932
1.40863
1.40734
1.40491
1.40316
1.40309
1.40307
1.40297
1.40271
1.40226
1.4016
1.40074
1.39965
1.39813
1.39637
1.39553
1.39545
1.39554
1.39624
1.39678
1.3967
1.39664
1.39645
1.39567
1.39381
1.39168
1.39091
1.39073
1.39081
1.39157
1.39344
1.3957
1.39697
1.3975
1.39756
1.39852
1.40038
1.40217
1.4029
1.40343
1.40497
1.40778
1.40874
1.40824
1.4073
1.4061
1.4039
1.39985
1.39663
1.39476
1.39293
1.39225
1.39242
1.39332
1.39468
1.39571
1.39668
1.39746
1.39735
1.39729
1.39836
1.3991
1.39937
1.39985
1.40118
1.40109
1.39998
1.39832
1.39582
1.39233
1.3881
1.3848
1.38382
1.3836
1.38372
1.38448
1.38604
1.38799
1.38925
1.3894
1.38912
1.38816
1.38623
1.38328
1.38176
1.38127
1.381
1.38092
1.38127
1.38206
1.38218
1.38181
1.38111
1.37988
1.37783
1.37573
1.37507
1.37497
1.37497
1.37504
1.37517
1.37547
1.3763
1.37738
1.3792
1.38522
1.3983
1.41011
1.41729
1.42048
1.42181
1.42181
1.4211
1.42001
1.419
1.41794
1.41624
1.41435
1.4135
1.41329
1.41333
1.41407
1.41558
1.4165
1.41639
1.4153
1.41336
1.411
1.40761
1.40321
1.40094
1.40052
1.40044
1.40049
1.4016
1.40398
1.40555
1.40536
1.40416
1.40227
1.39982
1.39638
1.39253
1.39034
1.38945
1.38914
1.38941
1.39111
1.39378
1.39498
1.39563
1.39591
1.39562
1.39352
1.39025
1.38859
1.3874
1.38616
1.38562
1.38578
1.38611
1.38577
1.38521
1.38476
1.38408
1.38393
1.38424
1.38457
1.38477
1.38491
1.38452
1.38327
1.38095
1.38778
1.42013
1.49972
1.63278
1.7052
1.74861
1.77739
1.77867
1.7812
1.78495
1.78527
1.784
1.78342
1.782
1.77848
1.77543
1.77257
1.77076
1.77044
1.77088
1.77119
1.77065
1.76924
1.7675
1.76525
1.76239
1.75952
1.75711
1.75552
1.75451
1.75399
1.75346
1.75275
1.75262
1.75248
1.75224
1.7521
1.75075
1.74813
1.74514
1.74231
1.73962
1.73683
1.73367
1.73058
1.72817
1.72584
1.72344
1.72098
1.71824
1.71565
1.71341
1.71169
1.71059
1.70968
1.70877
1.70783
1.70672
1.70507
1.70289
1.70115
1.42569
1.42222
1.42025
1.42019
1.42019
1.42032
1.42033
1.42013
1.4195
1.41796
1.41513
1.41212
1.41052
1.40961
1.40922
1.40941
1.40977
1.40951
1.40912
1.40871
1.40784
1.40592
1.40313
1.40238
1.40233
1.40219
1.4019
1.4014
1.40073
1.39992
1.399
1.39779
1.39599
1.39482
1.3947
1.39468
1.39495
1.39534
1.39518
1.39493
1.39463
1.39391
1.39224
1.39014
1.38933
1.38916
1.38923
1.38993
1.39149
1.39338
1.3945
1.39488
1.39478
1.39432
1.39496
1.39659
1.39876
1.40046
1.40223
1.40537
1.40761
1.4076
1.40699
1.40564
1.40369
1.40052
1.39663
1.39483
1.39325
1.39167
1.39159
1.39216
1.3932
1.39386
1.39448
1.39507
1.39489
1.39467
1.39586
1.39733
1.39825
1.39922
1.4008
1.4011
1.40011
1.39856
1.39638
1.39309
1.38825
1.38425
1.38303
1.38267
1.38267
1.38331
1.385
1.38724
1.38868
1.38902
1.38881
1.38797
1.38596
1.38297
1.38154
1.38105
1.38074
1.38067
1.3811
1.38163
1.38165
1.38132
1.38055
1.37907
1.37665
1.37451
1.37394
1.37387
1.37392
1.37442
1.37488
1.37493
1.37519
1.37555
1.37547
1.37605
1.37919
1.38903
1.40169
1.41209
1.41807
1.41964
1.41957
1.41908
1.41829
1.41744
1.41606
1.41433
1.41326
1.413
1.4131
1.41385
1.41541
1.41609
1.41575
1.41471
1.41318
1.41106
1.40761
1.40309
1.40085
1.40036
1.40017
1.40028
1.40169
1.40421
1.40532
1.40494
1.40373
1.40178
1.39911
1.39532
1.39148
1.38942
1.38846
1.38813
1.38852
1.3906
1.39332
1.39409
1.39446
1.39466
1.39443
1.39242
1.38949
1.38832
1.38753
1.38646
1.38581
1.3858
1.38582
1.38506
1.38398
1.38311
1.38228
1.3822
1.38274
1.38335
1.38373
1.38393
1.38398
1.38244
1.38507
1.40627
1.47731
1.57842
1.6822
1.73931
1.76007
1.77639
1.785
1.78611
1.78555
1.78142
1.77841
1.77805
1.77777
1.77697
1.77539
1.77351
1.77095
1.76891
1.7683
1.76813
1.76719
1.76528
1.76328
1.76147
1.75969
1.75789
1.75596
1.75369
1.7514
1.74964
1.74854
1.74831
1.74855
1.74921
1.75018
1.75057
1.74961
1.747
1.7437
1.74027
1.73726
1.7347
1.73251
1.73018
1.72726
1.72417
1.72151
1.71901
1.7167
1.71441
1.71228
1.7106
1.70912
1.70754
1.70591
1.70462
1.70326
1.70175
1.70029
1.69872
1.69707
1.42357
1.42049
1.41965
1.41953
1.41956
1.41962
1.41958
1.41926
1.41811
1.41537
1.4119
1.40999
1.40878
1.40805
1.4081
1.40858
1.40856
1.40838
1.40828
1.40788
1.40657
1.40393
1.40205
1.40174
1.40153
1.40127
1.4008
1.40014
1.39939
1.39855
1.39756
1.39598
1.3943
1.39389
1.39381
1.39381
1.39393
1.39376
1.39342
1.39293
1.39215
1.39066
1.38864
1.38762
1.38746
1.38754
1.38822
1.38961
1.39106
1.39204
1.39253
1.3927
1.39244
1.39257
1.39314
1.39406
1.39615
1.39885
1.40195
1.40518
1.40627
1.40616
1.4054
1.40358
1.40066
1.39737
1.395
1.39368
1.39204
1.39075
1.39095
1.39167
1.3921
1.39242
1.39277
1.39244
1.39198
1.39305
1.39493
1.3966
1.39822
1.40015
1.40087
1.40019
1.39872
1.39668
1.39385
1.38907
1.38404
1.38246
1.38198
1.38186
1.3823
1.38392
1.38627
1.38778
1.38825
1.38816
1.38746
1.38545
1.38265
1.3814
1.38096
1.38061
1.38056
1.38118
1.38139
1.38127
1.38095
1.38012
1.37831
1.37555
1.3735
1.37289
1.37276
1.3728
1.37366
1.37478
1.37477
1.37474
1.37475
1.37419
1.37285
1.37269
1.37406
1.38041
1.39226
1.40469
1.41404
1.41723
1.41742
1.4172
1.41669
1.41591
1.4146
1.41364
1.4132
1.41319
1.41383
1.41509
1.41538
1.4146
1.41333
1.41208
1.41039
1.40733
1.40306
1.40092
1.40035
1.40004
1.40021
1.40187
1.40438
1.40508
1.40464
1.40336
1.40124
1.39825
1.39426
1.39082
1.38896
1.38791
1.38747
1.38785
1.38997
1.39248
1.3929
1.39299
1.39304
1.39274
1.39094
1.38859
1.3879
1.38749
1.38675
1.3862
1.38609
1.38587
1.38472
1.38313
1.38181
1.38065
1.38048
1.381
1.38187
1.38249
1.38293
1.38313
1.38439
1.39567
1.43995
1.54655
1.66196
1.71342
1.75288
1.78098
1.78671
1.78612
1.78492
1.78153
1.77855
1.77658
1.77656
1.77709
1.77655
1.77468
1.77249
1.77043
1.76822
1.76658
1.76581
1.76484
1.76286
1.76072
1.75855
1.75646
1.7549
1.75353
1.75148
1.74895
1.74687
1.74519
1.74464
1.74477
1.74549
1.74698
1.74793
1.7477
1.74589
1.743
1.73924
1.73526
1.73231
1.73028
1.72835
1.72628
1.72381
1.72069
1.71745
1.71475
1.71239
1.7104
1.70886
1.70758
1.70628
1.70486
1.70286
1.70058
1.69867
1.6971
1.69571
1.69427
1.69296
1.4217
1.41993
1.41938
1.41909
1.41902
1.41898
1.41882
1.41808
1.41571
1.4119
1.40953
1.40829
1.40706
1.4068
1.40713
1.40728
1.40717
1.40724
1.40722
1.40653
1.40437
1.40204
1.40133
1.40097
1.40062
1.40029
1.39967
1.39901
1.39833
1.39755
1.3964
1.39441
1.39323
1.39299
1.39282
1.39271
1.3925
1.39209
1.39154
1.39067
1.38922
1.3873
1.38606
1.38585
1.38588
1.38639
1.38757
1.38874
1.38947
1.38998
1.39031
1.39021
1.38974
1.39004
1.39102
1.39198
1.39419
1.39822
1.40178
1.40416
1.40495
1.40474
1.40363
1.40101
1.39767
1.39556
1.39425
1.39277
1.39105
1.3899
1.39011
1.39037
1.39048
1.39051
1.38997
1.38927
1.39011
1.39205
1.39426
1.39665
1.39916
1.40033
1.40001
1.3989
1.39696
1.39427
1.3902
1.38474
1.38216
1.38152
1.38131
1.38154
1.3829
1.38515
1.38664
1.38712
1.38709
1.38644
1.38443
1.38198
1.38112
1.38086
1.38055
1.38059
1.38132
1.38138
1.38114
1.38082
1.37981
1.37764
1.37458
1.3726
1.37197
1.37175
1.3718
1.37279
1.37431
1.3745
1.37445
1.37432
1.37347
1.37138
1.36959
1.36951
1.37003
1.37352
1.38294
1.39553
1.40845
1.41434
1.41546
1.41539
1.41508
1.41463
1.41419
1.41406
1.41382
1.41404
1.41482
1.41482
1.41344
1.41167
1.41031
1.40885
1.40626
1.40276
1.40102
1.40046
1.40012
1.4004
1.40226
1.40446
1.40478
1.40426
1.40293
1.40072
1.3974
1.39332
1.39034
1.38867
1.38756
1.38705
1.38742
1.38942
1.39148
1.39165
1.3915
1.3913
1.39066
1.38873
1.38738
1.38734
1.38728
1.38687
1.3866
1.38658
1.38621
1.3847
1.38263
1.38081
1.37921
1.37887
1.37925
1.38018
1.38101
1.3819
1.38293
1.38891
1.41914
1.50571
1.61127
1.70842
1.74641
1.76973
1.78563
1.78631
1.78395
1.77996
1.77671
1.77549
1.77572
1.77664
1.77698
1.77621
1.77395
1.77145
1.76937
1.76721
1.76543
1.76433
1.76309
1.76095
1.75884
1.7568
1.75503
1.75341
1.75138
1.74883
1.7461
1.74353
1.74176
1.74141
1.74147
1.74197
1.74343
1.74476
1.74484
1.74371
1.74168
1.73892
1.73492
1.73074
1.72819
1.72629
1.72445
1.72256
1.72022
1.7173
1.71371
1.71053
1.70824
1.70648
1.70524
1.70411
1.70293
1.70172
1.69978
1.69692
1.69484
1.6933
1.69172
1.69031
1.68977
1.42099
1.41989
1.41926
1.41884
1.4186
1.41838
1.41788
1.41607
1.41232
1.40926
1.40791
1.40667
1.40558
1.40565
1.40579
1.40566
1.40578
1.40597
1.40569
1.40414
1.40187
1.40087
1.40042
1.39988
1.39945
1.3992
1.39859
1.39798
1.39743
1.39663
1.39516
1.39316
1.39235
1.39207
1.39182
1.39151
1.39107
1.39044
1.38964
1.38834
1.38624
1.38464
1.38436
1.38431
1.38454
1.38541
1.38642
1.38697
1.38744
1.3877
1.38764
1.38717
1.38688
1.38708
1.38819
1.38983
1.39248
1.39717
1.40074
1.40308
1.40371
1.4033
1.40157
1.39844
1.39591
1.39468
1.39362
1.39206
1.39019
1.38895
1.38877
1.38867
1.38845
1.38761
1.38662
1.3872
1.38895
1.39135
1.39434
1.39763
1.39943
1.39945
1.39882
1.39724
1.39457
1.3907
1.38634
1.38262
1.38135
1.38101
1.38106
1.38202
1.38404
1.38539
1.3858
1.38574
1.38508
1.38307
1.38106
1.3806
1.38055
1.38041
1.38074
1.3816
1.38152
1.38123
1.38084
1.37961
1.37707
1.37376
1.37186
1.37119
1.3709
1.37096
1.37202
1.37356
1.37378
1.37376
1.37365
1.37271
1.37042
1.36767
1.36666
1.36675
1.36719
1.36888
1.37543
1.38642
1.40084
1.41068
1.41313
1.4136
1.41358
1.4142
1.41489
1.41487
1.41469
1.41478
1.41456
1.41283
1.41041
1.40855
1.4069
1.40462
1.40202
1.40077
1.40041
1.40021
1.40081
1.40295
1.40466
1.40457
1.40377
1.40229
1.39992
1.39625
1.39229
1.39003
1.38874
1.38768
1.38714
1.38742
1.3891
1.39056
1.39051
1.39003
1.38955
1.38857
1.38661
1.38586
1.38628
1.38685
1.38694
1.38709
1.38714
1.3867
1.38494
1.38247
1.38011
1.37796
1.37733
1.37752
1.37833
1.37956
1.38087
1.38429
1.40173
1.46792
1.57317
1.67144
1.73538
1.7735
1.78124
1.78226
1.78194
1.77911
1.77631
1.77599
1.77669
1.77632
1.77498
1.77398
1.77255
1.7708
1.76969
1.76852
1.7675
1.76572
1.76329
1.76073
1.75825
1.7561
1.75457
1.75363
1.75266
1.75058
1.74749
1.74416
1.74107
1.73884
1.73799
1.73786
1.73815
1.73945
1.74092
1.74125
1.74068
1.73911
1.7367
1.73368
1.73027
1.72706
1.72464
1.72269
1.72102
1.71914
1.71675
1.71377
1.71014
1.70667
1.70429
1.70264
1.7013
1.70016
1.69915
1.69802
1.69628
1.69407
1.69215
1.69045
1.68879
1.68745
1.68648
1.42099
1.42001
1.41928
1.41871
1.41824
1.41767
1.41627
1.41303
1.40947
1.40778
1.40655
1.40522
1.40452
1.4043
1.40399
1.40407
1.40438
1.40437
1.40337
1.40124
1.40015
1.3997
1.39912
1.39843
1.39824
1.39799
1.39737
1.39691
1.39642
1.39533
1.39353
1.39208
1.39154
1.39119
1.39083
1.39038
1.3898
1.38896
1.38782
1.3861
1.38365
1.38293
1.38292
1.38294
1.38331
1.3841
1.38459
1.38499
1.38523
1.38517
1.38451
1.38402
1.38406
1.3843
1.38557
1.38797
1.39065
1.39456
1.39859
1.40137
1.40217
1.40167
1.39966
1.39687
1.39524
1.39424
1.39334
1.39135
1.38918
1.38787
1.38729
1.38667
1.38547
1.3842
1.38448
1.38591
1.38823
1.39142
1.39539
1.39808
1.39853
1.39829
1.3972
1.39492
1.39101
1.38731
1.3841
1.38183
1.38099
1.38085
1.38136
1.38298
1.38414
1.3844
1.38431
1.38357
1.3815
1.37997
1.37984
1.38001
1.38017
1.38098
1.38197
1.38179
1.38137
1.38081
1.37937
1.37657
1.37311
1.37126
1.37055
1.37019
1.37023
1.37127
1.37271
1.37285
1.37276
1.37248
1.37158
1.3694
1.36644
1.36515
1.36449
1.3644
1.36485
1.36614
1.37035
1.37938
1.3918
1.40514
1.41
1.41164
1.41274
1.41481
1.41591
1.41549
1.41499
1.41447
1.41287
1.41011
1.40741
1.40497
1.40267
1.40095
1.40023
1.40015
1.40022
1.4014
1.40373
1.40492
1.40446
1.40328
1.40152
1.39891
1.39493
1.39132
1.38966
1.3887
1.38783
1.3875
1.38788
1.3893
1.39005
1.38966
1.3887
1.38773
1.38619
1.38445
1.38426
1.38513
1.38614
1.38691
1.38761
1.38775
1.38723
1.38533
1.38257