/*--------------------------------*- C++ -*----------------------------------*\
  =========                 |
  \\      /  F ield         | OpenFOAM: The Open Source CFD Toolbox
   \\    /   O peration     | Website:  https://openfoam.org
    \\  /    A nd           | Version:  7
     \\/     M anipulation  |
\*---------------------------------------------------------------------------*/
FoamFile
{
    version     2.0;
    format      ascii;
    class       volScalarField;
    location    "1";
    object      p;
}
// * * * * * * * * * * * * * * * * * * * * * * * * * * * * * * * * * * * * * //

dimensions      [1 -1 -2 0 0 0 0];

internalField   nonuniform List<scalar> 
259072
(
1
1
1
1
1
1
1
1
1
1
1
1
1
1
1
1
1
1
1
1
1
1
1
1
1
1
1
1
1
1
1
1
1
1
1
1
1
1
1
1
1
1
1
1
1
1
1
1
1
1
1
1
1
1
1
1
1
1
1
1
1
1
1
1
1
1
1
1
1
1
1
1
1
1
1
1
1
1
1
1
1
1
1
1
1
1
1
1
1
1
1
1
1
1
1
1
1
1
1
1
1
1
1
1
1
1
1
1
1
1
1
1
1
1
1
1
1
1
1
1
1
1
1
1
1
1
1
1
1
1
1
1
1
1
1
1
1
1
1
1
1
1
1
1
1
3.20397
9.66174
10.4917
10.5093
10.5954
10.6548
10.7181
10.7812
10.8439
10.9021
10.956
11.0081
11.0614
11.1173
11.1742
11.2294
11.2809
11.3298
11.3784
11.4277
11.4763
11.5214
11.5598
11.5899
11.6152
11.6399
11.669
11.7064
11.7492
11.7923
11.8299
11.8594
11.8832
11.9066
11.9342
11.9647
11.9939
12.0175
12.0346
12.0486
12.0624
12.0759
12.0839
12.087
12.0833
12.0781
12.0715
1
1
1
1
1
1
1
1
1
1
1
1
1
1
1
1
1
1
1
1
1
1
1
1
1
1
1
1
1
1
1
1
1
1
1
1
1
1
1
1
1
1
1
1
1
1
1
1
1
1
1
1
1
1
1
1
1
1
1
1
1
1
1
1
1
1
1
1
1
1
1
1
1
1
1
1
1
1
1
1
1
1
1
1
1
1
1
1
1
1
1
1
1
1
1
1
1
1
1
1
1
1
1
1
1
1
1
1
1
1
1
1
1
1
1
1
1
1
1
1
1
1
1
1
1
1
1
1
1
1
1
1
1
1
1
1
1
1
1
1
1
1
1
1
1
3.16991
9.64245
10.4788
10.5112
10.5964
10.6548
10.7173
10.7796
10.8422
10.9013
10.9558
11.0079
11.0609
11.1163
11.1731
11.2285
11.2806
11.3302
11.3794
11.4287
11.4759
11.5191
11.5557
11.585
11.6104
11.6362
11.6666
11.7046
11.7474
11.7899
11.8272
11.8569
11.8812
11.905
11.9322
11.962
11.9905
12.014
12.0315
12.0459
12.0597
12.0729
12.0807
12.0835
12.0795
12.0743
12.0671
1
1
1
1
1
1
1
1
1
1
1
1
1
1
1
1
1
1
1
1
1
1
1
1
1
1
1
1
1
1
1
1
1
1
1
1
1
1
1
1
1
1
1
1
1
1
1
1
1
1
1
1
1
1
1
1
1
1
1
1
1
1
1
1
1
1
1
1
1
1
1
1
1
1
1
1
1
1
1
1
1
1
1
1
1
1
1
1
1
1
1
1
1
1
1
1
1
1
1
1
1
1
1
1
1
1
1
1
1
1
1
1
1
1
1
1
1
1
1
1
1
1
1
1
1
1
1
1
1
1
1
1
1
1
1
1
1
1
1
1
1
1
1
1
1
3.09478
9.61558
10.4631
10.5107
10.5923
10.6515
10.714
10.7759
10.8391
10.8992
10.9546
11.0071
11.0598
11.1142
11.1702
11.2256
11.2784
11.3291
11.3791
11.4285
11.4743
11.5154
11.55
11.5782
11.6036
11.6301
11.662
11.7006
11.7434
11.7857
11.823
11.8533
11.8785
11.9027
11.9292
11.9576
11.9851
12.0086
12.0267
12.0418
12.0555
12.0678
12.0746
12.0769
12.0731
12.0686
12.0616
1
1
1
1
1
1
1
1
1
1
1
1
1
1
1
1
1
1
1
1
1
1
1
1
1
1
1
1
1
1
1
1
1
1
1
1
1
1
1
1
1
1
1
1
1
1
1
1
1
1
1
1
1
1
1
1
1
1
1
1
1
1
1
1
1
1
1
1
1
1
1
1
1
1
1
1
1
1
1
1
1
1
1
1
1
1
1
1
1
1
1
1
1
1
1
1
1
1
1
1
1
1
1
1
1
1
1
1
1
1
1
1
1
1
1
1
1
1
1
1
1
1
1
1
1
1
1
1
1
1
1
1
1
1
1
1
1
1
1
1
1
1
1
1
1
2.99141
9.56168
10.4519
10.5065
10.5844
10.6446
10.7076
10.7706
10.8351
10.8963
10.9527
11.0057
11.0581
11.1113
11.1661
11.221
11.2744
11.3264
11.3774
11.4265
11.4705
11.5095
11.5422
11.5695
11.5949
11.6221
11.655
11.694
11.7369
11.7789
11.8166
11.8479
11.8743
11.8989
11.9248
11.9515
11.9776
12.0006
12.0194
12.0351
12.0487
12.0601
12.0656
12.0671
12.0636
12.0599
12.0534
1
1
1
1
1
1
1
1
1
1
1
1
1
1
1
1
1
1
1
1
1
1
1
1
1
1
1
1
1
1
1
1
1
1
1
1
1
1
1
1
1
1
1
1
1
1
1
1
1
1
1
1
1
1
1
1
1
1
1
1
1
1
1
1
1
1
1
1
1
1
1
1
1
1
1
1
1
1
1
1
1
1
1
1
1
1
1
1
1
1
1
1
1
1
1
1
1
1
1
1
1
1
1
1
1
1
1
1
1
1
1
1
1
1
1
1
1
1
1
1
1
1
1
1
1
1
1
1
1
1
1
1
1
1
1
1
1
1
1
1
1
1
1
1
1
2.86068
9.47466
10.4453
10.501
10.5781
10.6399
10.7032
10.7662
10.8302
10.8913
10.948
11.0016
11.0541
11.1064
11.1601
11.2142
11.2683
11.3215
11.3735
11.4221
11.4644
11.5016
11.533
11.56
11.5856
11.6129
11.646
11.6848
11.7274
11.7695
11.8079
11.8405
11.8682
11.8934
11.9186
11.9438
11.9682
11.9906
12.0097
12.0258
12.0396
12.0499
12.054
12.0548
12.0519
12.0492
12.0438
1
1
1
1
1
1
1
1
1
1
1
1
1
1
1
1
1
1
1
1
1
1
1
1
1
1
1
1
1
1
1
1
1
1
1
1
1
1
1
1
1
1
1
1
1
1
1
1
1
1
1
1
1
1
1
1
1
1
1
1
1
1
1
1
1
1
1
1
1
1
1
1
1
1
1
1
1
1
1
1
1
1
1
1
1
1
1
1
1
1
1
1
1
1
1
1
1
1
1
1
1
1
1
1
1
1
1
1
1
1
1
1
1
1
1
1
1
1
1
1
1
1
1
1
1
1
1
1
1
1
1
1
1
1
1
1
1
1
1
1
1
1
1
1
1
2.70708
9.35565
10.4425
10.494
10.5693
10.6313
10.6945
10.7578
10.8226
10.8847
10.9428
10.9979
11.051
11.1027
11.155
11.208
11.262
11.3155
11.3674
11.4148
11.4553
11.4913
11.5223
11.5496
11.5759
11.6034
11.6359
11.6737
11.7155
11.7576
11.797
11.831
11.86
11.8859
11.9106
11.9344
11.9572
11.9785
11.9973
12.0136
12.0276
12.0369
12.0396
12.0399
12.0378
12.0362
12.0326
1
1
1
1
1
1
1
1
1
1
1
1
1
1
1
1
1
1
1
1
1
1
1
1
1
1
1
1
1
1
1
1
1
1
1
1
1
1
1
1
1
1
1
1
1
1
1
1
1
1
1
1
1
1
1
1
1
1
1
1
1
1
1
1
1
1
1
1
1
1
1
1
1
1
1
1
1
1
1
1
1
1
1
1
1
1
1
1
1
1
1
1
1
1
1
1
1
1
1
1
1
1
1
1
1
1
1
1
1
1
1
1
1
1
1
1
1
1
1
1
1
1
1
1
1
1
1
1
1
1
1
1
1
1
1
1
1
1
1
1
1
1
1
1
1
2.52854
9.2028
10.4403
10.4865
10.5604
10.623
10.6861
10.7496
10.815
10.8781
10.9375
10.994
11.0473
11.0981
11.1484
11.2
11.2535
11.3071
11.359
11.4049
11.4438
11.479
11.5102
11.5386
11.566
11.5936
11.6251
11.6611
11.7015
11.7433
11.7836
11.8188
11.849
11.8756
11.9001
11.9227
11.9439
11.9638
11.982
11.9982
12.012
12.0203
12.0223
12.0227
12.0219
12.0219
12.0209
1
1
1
1
1
1
1
1
1
1
1
1
1
1
1
1
1
1
1
1
1
1
1
1
1
1
1
1
1
1
1
1
1
1
1
1
1
1
1
1
1
1
1
1
1
1
1
1
1
1
1
1
1
1
1
1
1
1
1
1
1
1
1
1
1
1
1
1
1
1
1
1
1
1
1
1
1
1
1
1
1
1
1
1
1
1
1
1
1
1
1
1
1
1
1
1
1
1
1
1
1
1
1
1
1
1
1
1
1
1
1
1
1
1
1
1
1
1
1
1
1
1
1
1
1
1
1
1
1
1
1
1
1
1
1
1
1
1
1
1
1
1
1
1
1
2.32641
9.0121
10.4397
10.4793
10.552
10.6143
10.677
10.7406
10.806
10.8699
10.9305
10.9881
11.0415
11.0916
11.1402
11.1909
11.2443
11.2981
11.3495
11.3937
11.4309
11.4651
11.4966
11.5261
11.5546
11.5827
11.6134
11.6476
11.6863
11.7274
11.768
11.8041
11.8354
11.8626
11.8868
11.9084
11.9281
11.9465
11.9639
11.9796
11.9928
12.0001
12.002
12.0031
12.0043
12.0063
12.0083
1
1
1
1
1
1
1
1
1
1
1
1
1
1
1
1
1
1
1
1
1
1
1
1
1
1
1
1
1
1
1
1
1
1
1
1
1
1
1
1
1
1
1
1
1
1
1
1
1
1
1
1
1
1
1
1
1
1
1
1
1
1
1
1
1
1
1
1
1
1
1
1
1
1
1
1
1
1
1
1
1
1
1
1
1
1
1
1
1
1
1
1
1
1
1
1
1
1
1
1
1
1
1
1
1
1
1
1
1
1
1
1
1
1
1
1
1
1
1
1
1
1
1
1
1
1
1
1
1
1
1
1
1
1
1
1
1
1
1
1
1
1
1
1
1
2.10657
8.77933
10.4379
10.4727
10.5435
10.604
10.6671
10.7316
10.7973
10.8616
10.9228
10.9807
11.0335
11.0822
11.1292
11.1792
11.2326
11.2868
11.3382
11.3814
11.4173
11.4505
11.4815
11.5117
11.5412
11.5702
11.6008
11.6336
11.6704
11.71
11.7502
11.7867
11.8187
11.8464
11.8703
11.891
11.9094
11.9265
11.9428
11.9576
11.9698
11.9762
11.9786
11.9813
11.9852
11.9896
11.9947
1
1
1
1
1
1
1
1
1
1
1
1
1
1
1
1
1
1
1
1
1
1
1
1
1
1
1
1
1
1
1
1
1
1
1
1
1
1
1
1
1
1
1
1
1
1
1
1
1
1
1
1
1
1
1
1
1
1
1
1
1
1
1
1
1
1
1
1
1
1
1
1
1
1
1
1
1
1
1
1
1
1
1
1
1
1
1
1
1
1
1
1
1
1
1
1
1
1
1
1
1
1
1
1
1
1
1
1
1
1
1
1
1
1
1
1
1
1
1
1
1
1
1
1
1
1
1
1
1
1
1
1
1
1
1
1
1
1
1
1
1
1
1
1
1
1.88035
8.49517
10.4342
10.4659
10.534
10.5956
10.6593
10.7239
10.789
10.8526
10.9135
10.9708
11.0227
11.0697
11.1161
11.166
11.2194
11.274
11.3257
11.3686
11.4042
11.4364
11.4661
11.4958
11.5257
11.5556
11.5865
11.6182
11.653
11.6906
11.7297
11.7662
11.7989
11.8271
11.8507
11.8706
11.8878
11.9035
11.9187
11.9323
11.9431
11.9491
11.9525
11.9577
11.965
11.9721
11.9799
1
1
1
1
1
1
1
1
1
1
1
1
1
1
1
1
1
1
1
1
1
1
1
1
1
1
1
1
1
1
1
1
1
1
1
1
1
1
1
1
1
1
1
1
1
1
1
1
1
1
1
1
1
1
1
1
1
1
1
1
1
1
1
1
1
1
1
1
1
1
1
1
1
1
1
1
1
1
1
1
1
1
1
1
1
1
1
1
1
1
1
1
1
1
1
1
1
1
1
1
1
1
1
1
1
1
1
1
1
1
1
1
1
1
1
1
1
1
1
1
1
1
1
1
1
1
1
1
1
1
1
1
1
1
1
1
1
1
1
1
1
1
1
1
1
1.6611
8.1533
10.4328
10.463
10.5261
10.5869
10.6508
10.7157
10.7807
10.8436
10.9039
10.9601
11.0107
11.0562
11.1018
11.1508
11.2038
11.2589
11.311
11.3547
11.3909
11.4221
11.4501
11.4781
11.5074
11.538
11.5694
11.6005
11.6337
11.6693
11.707
11.7431
11.7762
11.8046
11.828
11.847
11.8631
11.8776
11.8914
11.9034
11.9129
11.9189
11.9241
11.9323
11.9431
11.9529
11.9627
1
1
1
1
1
1
1
1
1
1
1
1
1
1
1
1
1
1
1
1
1
1
1
1
1
1
1
1
1
1
1
1
1
1
1
1
1
1
1
1
1
1
1
1
1
1
1
1
1
1
1
1
1
1
1
1
1
1
1
1
1
1
1
1
1
1
1
1
1
1
1
1
1
1
1
1
1
1
1
1
1
1
1
1
1
1
1
1
1
1
1
1
1
1
1
1
1
1
1
1
1
1
1
1
1
1
1
1
1
1
1
1
1
1
1
1
1
1
1
1
1
1
1
1
1
1
1
1
1
1
1
1
1
1
1
1
1
1
1
1
1
1
1
1
1
1.44311
7.74179
10.4315
10.4601
10.5177
10.5783
10.6413
10.7059
10.7707
10.8338
10.8942
10.9496
10.9979
11.0415
11.0852
11.1328
11.1848
11.2401
11.2924
11.3376
11.3751
11.4062
11.4329
11.4594
11.4879
11.5185
11.55
11.5806
11.6119
11.6451
11.6812
11.7166
11.7499
11.7788
11.8021
11.8208
11.8362
11.8494
11.8615
11.8714
11.8796
11.886
11.8935
11.9048
11.9188
11.9309
11.9417
1
1
1
1
1
1
1
1
1
1
1
1
1
1
1
1
1
1
1
1
1
1
1
1
1
1
1
1
1
1
1
1
1
1
1
1
1
1
1
1
1
1
1
1
1
1
1
1
1
1
1
1
1
1
1
1
1
1
1
1
1
1
1
1
1
1
1
1
1
1
1
1
1
1
1
1
1
1
1
1
1
1
1
1
1
1
1
1
1
1
1
1
1
1
1
1
1
1
1
1
1
1
1
1
1
1
1
1
1
1
1
1
1
1
1
1
1
1
1
1
1
1
1
1
1
1
1
1
1
1
1
1
1
1
1
1
1
1
1
1
1
1
1
1
1
1.23274
7.29248
10.4327
10.454
10.508
10.5688
10.6301
10.6933
10.7572
10.821
10.882
10.9367
10.9834
11.025
11.0668
11.1128
11.1641
11.219
11.2713
11.3182
11.3566
11.3873
11.4122
11.4364
11.4634
11.4937
11.5251
11.5556
11.5861
11.618
11.6531
11.6881
11.7213
11.7502
11.7734
11.7918
11.8066
11.8184
11.8286
11.8364
11.8435
11.8508
11.8609
11.8753
11.892
11.9058
11.9166
1
1
1
1
1
1
1
1
1
1
1
1
1
1
1
1
1
1
1
1
1
1
1
1
1
1
1
1
1
1
1
1
1
1
1
1
1
1
1
1
1
1
1
1
1
1
1
1
1
1
1
1
1
1
1
1
1
1
1
1
1
1
1
1
1
1
1
1
1
1
1
1
1
1
1
1
1
1
1
1
1
1
1
1
1
1
1
1
1
1
1
1
1
1
1
1
1
1
1
1
1
1
1
1
1
1
1
1
1
1
1
1
1
1
1
1
1
1
1
1
1
1
1
1
1
1
1
1
1
1
1
1
1
1
1
1
1
1
1
1
1
1
1
1
1
1.03569
6.80504
10.4044
10.4436
10.4948
10.5569
10.6185
10.681
10.7437
10.8065
10.8673
10.9219
10.9682
11.0085
11.0483
11.0917
11.1408
11.194
11.2466
11.2954
11.3353
11.3667
11.3908
11.4132
11.4386
11.4678
11.4984
11.5284
11.5579
11.5888
11.6229
11.6571
11.6897
11.7182
11.7412
11.7596
11.7741
11.7849
11.7935
11.7995
11.8058
11.8139
11.8261
11.8429
11.8613
11.8759
11.886
1
1
1
1
1
1
1
1
1
1
1
1
1
1
1
1
1
1
1
1
1
1
1
1
1
1
1
1
1
1
1
1
1
1
1
1
1
1
1
1
1
1
1
1
1
1
1
1
1
1
1
1
1
1
1
1
1
1
1
1
1
1
1
1
1
1
1
1
1
1
1
1
1
1
1
1
1
1
1
1
1
1
1
1
1
1
1
1
1
1
1
1
1
1
1
1
1
1
1
1
1
1
1
1
1
1
1
1
1
1
1
1
1
1
1
1
1
1
1
1
1
1
1
1
1
1
1
1
1
1
1
1
1
1
1
1
1
1
1
1
1
1
1
1
1
1.00062
6.21137
10.3043
10.4048
10.4683
10.537
10.6006
10.6636
10.7258
10.7881
10.8486
10.9029
10.9493
10.9893
11.0284
11.0698
11.1165
11.1674
11.2192
11.2684
11.309
11.3409
11.3646
11.386
11.4101
11.4382
11.4679
11.4977
11.5266
11.557
11.5903
11.6238
11.6556
11.6835
11.7062
11.7245
11.7388
11.7487
11.756
11.7606
11.7662
11.775
11.7888
11.8072
11.8265
11.8413
11.8508
1
1
1
1
1
1
1
1
1
1
1
1
1
1
1
1
1
1
1
1
1
1
1
1
1
1
1
1
1
1
1
1
1
1
1
1
1
1
1
1
1
1
1
1
1
1
1
1
1
1
1
1
1
1
1
1
1
1
1
1
1
1
1
1
1
1
1
1
1
1
1
1
1
1
1
1
1
1
1
1
1
1
1
1
1
1
1
1
1
1
1
1
1
1
1
1
1
1
1
1
1
1
1
1
1
1
1
1
1
1
1
1
1
1
1
1
1
1
1
1
1
1
1
1
1
1
1
1
1
1
1
1
1
1
1
1
1
1
1
1
1
1
1
1
1
1
5.54976
10.2017
10.3777
10.445
10.5148
10.5804
10.6445
10.7068
10.7685
10.8286
10.8825
10.9287
10.9683
11.0068
11.0462
11.0912
11.1401
11.1909
11.2399
11.281
11.3134
11.3368
11.3572
11.3799
11.4062
11.4343
11.4634
11.4922
11.5226
11.5557
11.5888
11.6199
11.6468
11.6684
11.6857
11.6994
11.7086
11.7155
11.7197
11.7253
11.7345
11.7488
11.7676
11.7867
11.8012
11.8101
1
1
1
1
1
1
1
1
1
1
1
1
1
1
1
1
1
1
1
1
1
1
1
1
1
1
1
1
1
1
1
1
1
1
1
1
1
1
1
1
1
1
1
1
1
1
1
1
1
1
1
1
1
1
1
1
1
1
1
1
1
1
1
1
1
1
1
1
1
1
1
1
1
1
1
1
1
1
1
1
1
1
1
1
1
1
1
1
1
1
1
1
1
1
1
1
1
1
1
1
1
1
1
1
1
1
1
1
1
1
1
1
1
1
1
1
1
1
1
1
1
1
1
1
1
1
1
1
1
1
1
1
1
1
1
1
1
1
1
1
1
1
1
1
1
1
4.85616
10.0656
10.3461
10.4221
10.495
10.5607
10.625
10.6873
10.748
10.8067
10.8595
10.9044
10.9434
10.9818
11.0202
11.0641
11.1114
11.1604
11.2082
11.2487
11.2812
11.3045
11.3245
11.3469
11.3724
11.3998
11.4286
11.4572
11.487
11.5186
11.55
11.5795
11.6053
11.6258
11.6421
11.6553
11.6645
11.672
11.6768
11.6828
11.6918
11.7055
11.7234
11.7415
11.755
11.7637
1
1
1
1
1
1
1
1
1
1
1
1
1
1
1
1
1
1
1
1
1
1
1
1
1
1
1
1
1
1
1
1
1
1
1
1
1
1
1
1
1
1
1
1
1
1
1
1
1
1
1
1
1
1
1
1
1
1
1
1
1
1
1
1
1
1
1
1
1
1
1
1
1
1
1
1
1
1
1
1
1
1
1
1
1
1
1
1
1
1
1
1
1
1
1
1
1
1
1
1
1
1
1
1
1
1
1
1
1
1
1
1
1
1
1
1
1
1
1
1
1
1
1
1
1
1
1
1
1
1
1
1
1
1
1
1
1
1
1
1
1
1
1
1
1
1
4.15467
9.86852
10.3209
10.3942
10.4697
10.5359
10.6018
10.6661
10.7267
10.785
10.8368
10.8793
10.917
10.9548
10.9925
11.0363
11.0832
11.1311
11.1778
11.2175
11.2493
11.2717
11.2905
11.3112
11.3351
11.3611
11.3894
11.418
11.4471
11.4774
11.5074
11.5358
11.5607
11.5804
11.5958
11.6083
11.6176
11.6259
11.6316
11.6375
11.6454
11.6574
11.6732
11.6896
11.702
11.7107
1
1
1
1
1
1
1
1
1
1
1
1
1
1
1
1
1
1
1
1
1
1
1
1
1
1
1
1
1
1
1
1
1
1
1
1
1
1
1
1
1
1
1
1
1
1
1
1
1
1
1
1
1
1
1
1
1
1
1
1
1
1
1
1
1
1
1
1
1
1
1
1
1
1
1
1
1
1
1
1
1
1
1
1
1
1
1
1
1
1
1
1
1
1
1
1
1
1
1
1
1
1
1
1
1
1
1
1
1
1
1
1
1
1
1
1
1
1
1
1
1
1
1
1
1
1
1
1
1
1
1
1
1
1
1
1
1
1
1
1
1
1
1
1
1
1
3.45423
9.58298
10.3141
10.3793
10.4558
10.5189
10.5825
10.6452
10.705
10.7625
10.8134
10.8544
10.8911
10.928
10.965
11.0085
11.055
11.1013
11.1461
11.1843
11.2149
11.2362
11.2541
11.2738
11.2964
11.3218
11.3498
11.3782
11.4061
11.434
11.4616
11.4881
11.5122
11.5315
11.5461
11.5578
11.5668
11.5757
11.582
11.5873
11.5938
11.6038
11.6173
11.632
11.6437
11.6529
1
1
1
1
1
1
1
1
1
1
1
1
1
1
1
1
1
1
1
1
1
1
1
1
1
1
1
1
1
1
1
1
1
1
1
1
1
1
1
1
1
1
1
1
1
1
1
1
1
1
1
1
1
1
1
1
1
1
1
1
1
1
1
1
1
1
1
1
1
1
1
1
1
1
1
1
1
1
1
1
1
1
1
1
1
1
1
1
1
1
1
1
1
1
1
1
1
1
1
1
1
1
1
1
1
1
1
1
1
1
1
1
1
1
1
1
1
1
1
1
1
1
1
1
1
1
1
1
1
1
1
1
1
1
1
1
1
1
1
1
1
1
1
1
1
1
2.7882
9.17935
10.328
10.375
10.4458
10.5026
10.5629
10.6223
10.68
10.7372
10.789
10.8296
10.8657
10.9012
10.9367
10.9791
11.0252
11.0706
11.1143
11.1518
11.1814
11.2018
11.218
11.2358
11.2562
11.2803
11.3077
11.3359
11.3624
11.3878
11.4126
11.437
11.4601
11.4791
11.4934
11.5045
11.5132
11.5219
11.5278
11.5318
11.5364
11.5439
11.5548
11.5678
11.5788
11.5885
1
1
1
1
1
1
1
1
1
1
1
1
1
1
1
1
1
1
1
1
1
1
1
1
1
1
1
1
1
1
1
1
1
1
1
1
1
1
1
1
1
1
1
1
1
1
1
1
1
1
1
1
1
1
1
1
1
1
1
1
1
1
1
1
1
1
1
1
1
1
1
1
1
1
1
1
1
1
1
1
1
1
1
1
1
1
1
1
1
1
1
1
1
1
1
1
1
1
1
1
1
1
1
1
1
1
1
1
1
1
1
1
1
1
1
1
1
1
1
1
1
1
1
1
1
1
1
1
1
1
1
1
1
1
1
1
1
1
1
1
1
1
1
1
1
1
2.12449
8.64653
10.3785
10.3748
10.4458
10.4954
10.5498
10.6048
10.6584
10.7127
10.764
10.805
10.8409
10.875
10.9083
10.9482
10.9932
11.0376
11.0807
11.1178
11.1471
11.167
11.1813
11.1967
11.2147
11.2373
11.2638
11.2915
11.3166
11.3393
11.3608
11.3824
11.404
11.4225
11.4369
11.4477
11.4556
11.4629
11.4668
11.4687
11.4709
11.476
11.4851
11.4973
11.5084
11.5188
1
1
1
1
1
1
1
1
1
1
1
1
1
1
1
1
1
1
1
1
1
1
1
1
1
1
1
1
1
1
1
1
1
1
1
1
1
1
1
1
1
1
1
1
1
1
1
1
1
1
1
1
1
1
1
1
1
1
1
1
1
1
1
1
1
1
1
1
1
1
1
1
1
1
1
1
1
1
1
1
1
1
1
1
1
1
1
1
1
1
1
1
1
1
1
1
1
1
1
1
1
1
1
1
1
1
1
1
1
1
1
1
1
1
1
1
1
1
1
1
1
1
1
1
1
1
1
1
1
1
1
1
1
1
1
1
1
1
1
1
1
1
1
1
1
1
1.52742
8.02196
10.4538
10.3725
10.4245
10.4703
10.5232
10.576
10.6296
10.6842
10.7358
10.778
10.8147
10.8482
10.8799
10.9167
10.9593
11.002
11.0441
11.0809
11.1104
11.1306
11.1435
11.1564
11.1721
11.1925
11.2177
11.2443
11.268
11.288
11.3062
11.3246
11.3439
11.3617
11.3761
11.3866
11.3936
11.3987
11.3998
11.3989
11.3981
11.4005
11.4076
11.4189
11.43
11.4406
1
1
1
1
1
1
1
1
1
1
1
1
1
1
1
1
1
1
1
1
1
1
1
1
1
1
1
1
1
1
1
1
1
1
1
1
1
1
1
1
1
1
1
1
1
1
1
1
1
1
1
1
1
1
1
1
1
1
1
1
1
1
1
1
1
1
1
1
1
1
1
1
1
1
1
1
1
1
1
1
1
1
1
1
1
1
1
1
1
1
1
1
1
1
1
1
1
1
1
1
1
1
1
1
1
1
1
1
1
1
1
1
1
1
1
1
1
1
1
1
1
1
1
1
1
1
1
1
1
1
1
1
1
1
1
1
1
1
1
1
1
1
1
1
1
1
1.12871
7.26857
10.3837
10.3332
10.3926
10.4431
10.4984
10.5508
10.5994
10.6495
10.7003
10.7448
10.784
10.8186
10.8493
10.8833
10.9232
10.964
11.0049
11.0412
11.0705
11.0911
11.1035
11.1145
11.1278
11.1457
11.1688
11.194
11.2161
11.2338
11.2488
11.2636
11.2798
11.2961
11.31
11.3199
11.3255
11.327
11.3243
11.3192
11.3148
11.3148
11.3206
11.3317
11.3437
11.3549
1
1
1
1
1
1
1
1
1
1
1
1
1
1
1
1
1
1
1
1
1
1
1
1
1
1
1
1
1
1
1
1
1
1
1
1
1
1
1
1
1
1
1
1
1
1
1
1
1
1
1
1
1
1
1
1
1
1
1
1
1
1
1
1
1
1
1
1
1
1
1
1
1
1
1
1
1
1
1
1
1
1
1
1
1
1
1
1
1
1
1
1
1
1
1
1
1
1
1
1
1
1
1
1
1
1
1
1
1
1
1
1
1
1
1
1
1
1
1
1
1
1
1
1
1
1
1
1
1
1
1
1
1
1
1
1
1
1
1
1
1
1
1
1
1
1
1.00363
6.30666
10.1983
10.2732
10.3471
10.4107
10.4701
10.5221
10.5702
10.6188
10.6667
10.7095
10.748
10.7836
10.8152
10.8483
10.8855
10.9239
10.9629
10.9985
11.027
11.0476
11.06
11.0697
11.081
11.0961
11.1168
11.1403
11.1609
11.1765
11.1884
11.1992
11.2115
11.2252
11.2381
11.2465
11.2497
11.2479
11.2411
11.2319
11.2237
11.2203
11.2234
11.2328
11.2441
11.2545
1
1
1
1
1
1
1
1
1
1
1
1
1
1
1
1
1
1
1
1
1
1
1
1
1
1
1
1
1
1
1
1
1
1
1
1
1
1
1
1
1
1
1
1
1
1
1
1
1
1
1
1
1
1
1
1
1
1
1
1
1
1
1
1
1
1
1
1
1
1
1
1
1
1
1
1
1
1
1
1
1
1
1
1
1
1
1
1
1
1
1
1
1
1
1
1
1
1
1
1
1
1
1
1
1
1
1
1
1
1
1
1
1
1
1
1
1
1
1
1
1
1
1
1
1
1
1
1
1
1
1
1
1
1
1
1
1
1
1
1
1
1
1
1
1
1
1.00001
5.31742
10.0522
10.2182
10.3034
10.384
10.4485
10.4994
10.5446
10.5901
10.6366
10.6784
10.7161
10.7497
10.7781
10.8088
10.844
10.8816
10.9193
10.9537
10.9803
11.0001
11.0123
11.0209
11.0304
11.0429
11.0612
11.083
11.1021
11.1159
11.1249
11.1314
11.1392
11.1492
11.1594
11.1654
11.1654
11.1592
11.147
11.1324
11.1191
11.1116
11.1123
11.1204
11.1315
11.142
1
1
1
1
1
1
1
1
1
1
1
1
1
1
1
1
1
1
1
1
1
1
1
1
1
1
1
1
1
1
1
1
1
1
1
1
1
1
1
1
1
1
1
1
1
1
1
1
1
1
1
1
1
1
1
1
1
1
1
1
1
1
1
1
1
1
1
1
1
1
1
1
1
1
1
1
1
1
1
1
1
1
1
1
1
1
1
1
1
1
1
1
1
1
1
1
1
1
1
1
1
1
1
1
1
1
1
1
1
1
1
1
1
1
1
1
1
1
1
1
1
1
1
1
1
1
1
1
1
1
1
1
1
1
1
1
1
1
1
1
1
1
1
1
1
1
1
4.27249
9.71273
10.1894
10.2885
10.3648
10.4221
10.4697
10.5135
10.5581
10.603
10.6445
10.6811
10.7155
10.7433
10.7712
10.8017
10.8355
10.871
10.9048
10.9312
10.9499
10.9609
10.9679
10.9754
10.9855
11.0013
11.0213
11.0389
11.051
11.0575
11.0601
11.0623
11.0675
11.0737
11.0756
11.0714
11.06
11.0425
11.0228
11.0048
10.9924
10.9878
10.9899
10.9962
11.0031
1
1
1
1
1
1
1
1
1
1
1
1
1
1
1
1
1
1
1
1
1
1
1
1
1
1
1
1
1
1
1
1
1
1
1
1
1
1
1
1
1
1
1
1
1
1
1
1
1
1
1
1
1
1
1
1
1
1
1
1
1
1
1
1
1
1
1
1
1
1
1
1
1
1
1
1
1
1
1
1
1
1
1
1
1
1
1
1
1
1
1
1
1
1
1
1
1
1
1
1
1
1
1
1
1
1
1
1
1
1
1
1
1
1
1
1
1
1
1
1
1
1
1
1
1
1
1
1
1
1
1
1
1
1
1
1
1
1
1
1
1
1
1
1
1
1
1
3.27832
9.2834
10.1673
10.2636
10.3517
10.4101
10.4529
10.4912
10.5294
10.5701
10.6102
10.645
10.6771
10.7037
10.7295
10.7585
10.7905
10.8232
10.8544
10.8781
10.895
10.9047
10.9103
10.9159
10.9237
10.9367
10.9547
10.9707
10.9813
10.9858
10.9844
10.9812
10.9807
10.9808
10.9773
10.9676
10.95
10.9258
10.8982
10.8717
10.8507
10.8386
10.835
10.8376
10.844
1
1
1
1
1
1
1
1
1
1
1
1
1
1
1
1
1
1
1
1
1
1
1
1
1
1
1
1
1
1
1
1
1
1
1
1
1
1
1
1
1
1
1
1
1
1
1
1
1
1
1
1
1
1
1
1
1
1
1
1
1
1
1
1
1
1
1
1
1
1
1
1
1
1
1
1
1
1
1
1
1
1
1
1
1
1
1
1
1
1
1
1
1
1
1
1
1
1
1
1
1
1
1
1
1
1
1
1
1
1
1
1
1
1
1
1
1
1
1
1
1
1
1
1
1
1
1
1
1
1
1
1
1
1
1
1
1
1
1
1
1
1
1
1
1
1
1
2.27824
8.60821
10.2809
10.2994
10.3472
10.3785
10.4132
10.4528
10.4954
10.5396
10.5802
10.6135
10.643
10.6678
10.6912
10.7158
10.744
10.7737
10.8021
10.8256
10.8395
10.846
10.8487
10.8519
10.8578
10.8679
10.883
10.897
10.9063
10.9082
10.9028
10.8947
10.8878
10.8807
10.8701
10.8535
10.8282
10.7957
10.7594
10.7246
10.6946
10.6718
10.6533
10.6399
10.6328
1
1
1
1
1
1
1
1
1
1
1
1
1
1
1
1
1
1
1
1
1
1
1
1
1
1
1
1
1
1
1
1
1
1
1
1
1
1
1
1
1
1
1
1
1
1
1
1
1
1
1
1
1
1
1
1
1
1
1
1
1
1
1
1
1
1
1
1
1
1
1
1
1
1
1
1
1
1
1
1
1
1
1
1
1
1
1
1
1
1
1
1
1
1
1
1
1
1
1
1
1
1
1
1
1
1
1
1
1
1
1
1
1
1
1
1
1
1
1
1
1
1
1
1
1
1
1
1
1
1
1
1
1
1
1
1
1
1
1
1
1
1
1
1
1
1
1
1.42146
7.87266
10.3986
10.2662
10.2882
10.3274
10.3743
10.4173
10.4595
10.503
10.5446
10.5797
10.6098
10.6333
10.6538
10.6758
10.7006
10.726
10.7493
10.7686
10.7805
10.7853
10.7851
10.7852
10.7877
10.7946
10.8065
10.8177
10.825
10.8238
10.815
10.8023
10.7887
10.7735
10.7546
10.7294
10.6951
10.6526
10.6046
10.554
10.5035
10.4565
10.4182
10.3897
10.3833
1
1
1
1
1
1
1
1
1
1
1
1
1
1
1
1
1
1
1
1
1
1
1
1
1
1
1
1
1
1
1
1
1
1
1
1
1
1
1
1
1
1
1
1
1
1
1
1
1
1
1
1
1
1
1
1
1
1
1
1
1
1
1
1
1
1
1
1
1
1
1
1
1
1
1
1
1
1
1
1
1
1
1
1
1
1
1
1
1
1
1
1
1
1
1
1
1
1
1
1
1
1
1
1
1
1
1
1
1
1
1
1
1
1
1
1
1
1
1
1
1
1
1
1
1
1
1
1
1
1
1
1
1
1
1
1
1
1
1
1
1
1
1
1
1
1
1
1.02222
6.8889
10.2637
10.1909
10.2511
10.3002
10.34
10.3799
10.4236
10.4667
10.5088
10.5449
10.5746
10.5969
10.6152
10.6348
10.6564
10.6778
10.6972
10.7135
10.7237
10.7264
10.7223
10.7176
10.7162
10.7193
10.7267
10.7338
10.7371
10.7325
10.7205
10.703
10.6826
10.6589
10.6305
10.5952
10.5499
10.4945
10.4307
10.3609
10.2892
10.2177
10.1511
10.0757
10.0109
1
1
1
1
1
1
1
1
1
1
1
1
1
1
1
1
1
1
1
1
1
1
1
1
1
1
1
1
1
1
1
1
1
1
1
1
1
1
1
1
1
1
1
1
1
1
1
1
1
1
1
1
1
1
1
1
1
1
1
1
1
1
1
1
1
1
1
1
1
1
1
1
1
1
1
1
1
1
1
1
1
1
1
1
1
1
1
1
1
1
1
1
1
1
1
1
1
1
1
1
1
1
1
1
1
1
1
1
1
1
1
1
1
1
1
1
1
1
1
1
1
1
1
1
1
1
1
1
1
1
1
1
1
1
1
1
1
1
1
1
1
1
1
1
1
1
1
1.00004
5.58568
9.94439
10.0995
10.1825
10.2467
10.302
10.3468
10.3854
10.4256
10.4675
10.5052
10.5358
10.5583
10.5752
10.5922
10.6105
10.6282
10.6439
10.6574
10.6662
10.6681
10.6616
10.6527
10.6455
10.6441
10.6459
10.6472
10.6451
10.6361
10.6201
10.5974
10.5702
10.5374
10.4984
10.4513
10.3931
10.3226
10.2402
10.1455
10.0362
9.90545
9.75443
9.60748
9.5068
1
1
1
1
1
1
1
1
1
1
1
1
1
1
1
1
1
1
1
1
1
1
1
1
1
1
1
1
1
1
1
1
1
1
1
1
1
1
1
1
1
1
1
1
1
1
1
1
1
1
1
1
1
1
1
1
1
1
1
1
1
1
1
1
1
1
1
1
1
1
1
1
1
1
1
1
1
1
1
1
1
1
1
1
1
1
1
1
1
1
1
1
1
1
1
1
1
1
1
1
1
1
1
1
1
1
1
1
1
1
1
1
1
1
1
1
1
1
1
1
1
1
1
1
1
1
1
1
1
1
1
1
1
1
1
1
1
1
1
1
1
1
1
1
1
1
1
1
4.35921
9.67129
10.0466
10.1523
10.2262
10.2771
10.3106
10.3428
10.3804
10.4208
10.4595
10.4916
10.515
10.532
10.5471
10.5624
10.5768
10.5894
10.6003
10.6078
10.6083
10.6001
10.5881
10.5773
10.5705
10.5663
10.5605
10.5515
10.5369
10.5154
10.4867
10.4519
10.4094
10.3586
10.2985
10.2259
10.1378
10.0315
9.90256
9.74479
9.55578
9.33083
9.0894
8.95573
1
1
1
1
1
1
1
1
1
1
1
1
1
1
1
1
1
1
1
1
1
1
1
1
1
1
1
1
1
1
1
1
1
1
1
1
1
1
1
1
1
1
1
1
1
1
1
1
1
1
1
1
1
1
1
1
1
1
1
1
1
1
1
1
1
1
1
1
1
1
1
1
1
1
1
1
1
1
1
1
1
1
1
1
1
1
1
1
1
1
1
1
1
1
1
1
1
1
1
1
1
1
1
1
1
1
1
1
1
1
1
1
1
1
1
1
1
1
1
1
1
1
1
1
1
1
1
1
1
1
1
1
1
1
1
1
1
1
1
1
1
1
1
1
1
1
1
1
3.14358
9.07035
10.0259
10.1247
10.2042
10.2542
10.2888
10.316
10.3448
10.3787
10.4147
10.4459
10.4694
10.4866
10.4997
10.5118
10.5233
10.5334
10.5419
10.5475
10.5461
10.5369
10.523
10.5088
10.497
10.4868
10.4742
10.4581
10.4369
10.409
10.3733
10.33
10.2769
10.2134
10.1389
10.0503
9.94232
9.80925
9.64396
9.43622
9.15936
8.75156
7.9604
6.6801
1
1
1
1
1
1
1
1
1
1
1
1
1
1
1
1
1
1
1
1
1
1
1
1
1
1
1
1
1
1
1
1
1
1
1
1
1
1
1
1
1
1
1
1
1
1
1
1
1
1
1
1
1
1
1
1
1
1
1
1
1
1
1
1
1
1
1
1
1
1
1
1
1
1
1
1
1
1
1
1
1
1
1
1
1
1
1
1
1
1
1
1
1
1
1
1
1
1
1
1
1
1
1
1
1
1
1
1
1
1
1
1
1
1
1
1
1
1
1
1
1
1
1
1
1
1
1
1
1
1
1
1
1
1
1
1
1
1
1
1
1
1
1
1
1
1
1
1
1.98562
8.29236
10.1642
10.1317
10.1695
10.2141
10.253
10.2837
10.312
10.3418
10.3725
10.3997
10.4209
10.4372
10.4494
10.4585
10.4675
10.4754
10.4819
10.4852
10.4824
10.4727
10.4575
10.4405
10.4236
10.407
10.3882
10.3655
10.3376
10.3026
10.2588
10.2057
10.1414
10.0647
9.97505
9.86943
9.74048
9.57956
9.37439
9.10719
8.73527
8.19482
7.40985
6.26252
1
1
1
1
1
1
1
1
1
1
1
1
1
1
1
1
1
1
1
1
1
1
1
1
1
1
1
1
1
1
1
1
1
1
1
1
1
1
1
1
1
1
1
1
1
1
1
1
1
1
1
1
1
1
1
1
1
1
1
1
1
1
1
1
1
1
1
1
1
1
1
1
1
1
1
1
1
1
1
1
1
1
1
1
1
1
1
1
1
1
1
1
1
1
1
1
1
1
1
1
1
1
1
1
1
1
1
1
1
1
1
1
1
1
1
1
1
1
1
1
1
1
1
1
1
1
1
1
1
1
1
1
1
1
1
1
1
1
1
1
1
1
1
1
1
1
1
1
1.11846
7.22566
10.237
10.1464
10.1382
10.1698
10.2141
10.2462
10.2744
10.3027
10.3312
10.3561
10.3747
10.3887
10.399
10.4051
10.411
10.416
10.4202
10.4212
10.417
10.4066
10.3905
10.3707
10.3493
10.3264
10.3015
10.2729
10.2386
10.1965
10.1442
10.0808
10.005
9.91532
9.8105
9.68739
9.53735
9.34938
9.10852
8.79345
8.36844
7.7712
7.01037
5.90858
1
1
1
1
1
1
1
1
1
1
1
1
1
1
1
1
1
1
1
1
1
1
1
1
1
1
1
1
1
1
1
1
1
1
1
1
1
1
1
1
1
1
1
1
1
1
1
1
1
1
1
1
1
1
1
1
1
1
1
1
1
1
1
1
1
1
1
1
1
1
1
1
1
1
1
1
1
1
1
1
1
1
1
1
1
1
1
1
1
1
1
1
1
1
1
1
1
1
1
1
1
1
1
1
1
1
1
1
1
1
1
1
1
1
1
1
1
1
1
1
1
1
1
1
1
1
1
1
1
1
1
1
1
1
1
1
1
1
1
1
1
1
1
1
1
1
1
1
1.00133
5.8602
9.87587
9.97745
10.0662
10.1247
10.1709
10.2042
10.2326
10.2596
10.2861
10.31
10.3281
10.3406
10.3491
10.3535
10.3558
10.3574
10.3587
10.357
10.3509
10.3394
10.3223
10.3001
10.2744
10.2458
10.2152
10.181
10.1405
10.091
10.0297
9.95583
9.86875
9.76703
9.64812
9.50833
9.33886
9.12763
8.85946
8.51399
8.06328
7.47005
6.71491
5.83497
1
1
1
1
1
1
1
1
1
1
1
1
1
1
1
1
1
1
1
1
1
1
1
1
1
1
1
1
1
1
1
1
1
1
1
1
1
1
1
1
1
1
1
1
1
1
1
1
1
1
1
1
1
1
1
1
1
1
1
1
1
1
1
1
1
1
1
1
1
1
1
1
1
1
1
1
1
1
1
1
1
1
1
1
1
1
1
1
1
1
1
1
1
1
1
1
1
1
1
1
1
1
1
1
1
1
1
1
1
1
1
1
1
1
1
1
1
1
1
1
1
1
1
1
1
1
1
1
1
1
1
1
1
1
1
1
1
1
1
1
1
1
1
1
1
1
1
1
0.999986
4.34866
9.48408
9.95941
10.0532
10.1138
10.1399
10.1654
10.1909
10.2157
10.2394
10.2619
10.28
10.2916
10.299
10.3023
10.3013
10.2992
10.2966
10.292
10.2837
10.2705
10.2518
10.2275
10.1982
10.165
10.1291
10.0892
10.0425
9.98553
9.91558
9.83182
9.73418
9.62155
9.4903
9.33572
9.14962
8.92044
8.63402
8.27315
7.81718
7.24921
6.5746
5.91657
1
1
1
1
1
1
1
1
1
1
1
1
1
1
1
1
1
1
1
1
1
1
1
1
1
1
1
1
1
1
1
1
1
1
1
1
1
1
1
1
1
1
1
1
1
1
1
1
1
1
1
1
1
1
1
1
1
1
1
1
1
1
1
1
1
1
1
1
1
1
1
1
1
1
1
1
1
1
1
1
1
1
1
1
1
1
1
1
1
1
1
1
1
1
1
1
1
1
1
1
1
1
1
1
1
1
1
1
1
1
1
1
1
1
1
1
1
1
1
1
1
1
1
1
1
1
1
1
1
1
1
1
1
1
1
1
1
1
1
1
1
1
1
1
1
1
1
1
0.999997
2.87919
8.86275
10.0084
10.0435
10.0731
10.1015
10.1304
10.1529
10.1741
10.1946
10.2145
10.2319
10.2429
10.2496
10.2521
10.2487
10.2432
10.2365
10.2285
10.2176
10.202
10.181
10.1542
10.1216
10.0845
10.0434
9.99769
9.94457
9.88046
9.80259
9.71018
9.60316
9.48051
9.33864
9.17208
8.97324
8.73205
8.43649
8.0734
7.63137
7.10941
6.53379
6.01335
1
1
1
1
1
1
1
1
1
1
1
1
1
1
1
1
1
1
1
1
1
1
1
1
1
1
1
1
1
1
1
1
1
1
1
1
1
1
1
1
1
1
1
1
1
1
1
1
1
1
1
1
1
1
1
1
1
1
1
1
1
1
1
1
1
1
1
1
1
1
1
1
1
1
1
1
1
1
1
1
1
1
1
1
1
1
1
1
1
1
1
1
1
1
1
1
1
1
1
1
1
1
1
1
1
1
1
1
1
1
1
1
1
1
1
1
1
1
1
1
1
1
1
1
1
1
1
1
1
1
1
1
1
1
1
1
1
1
1
1
1
1
1
1
1
1
1
1
1
1.62696
8.07056
10.1074
10.0116
10.016
10.058
10.0908
10.1135
10.1328
10.1502
10.1669
10.1823
10.1925
10.1988
10.2007
10.1957
10.1878
10.1773
10.1651
10.1509
10.1324
10.1088
10.0795
10.0446
10.0041
9.95808
9.90638
9.8467
9.77593
9.69134
9.5918
9.47675
9.34516
9.19408
9.01823
8.81086
8.5635
8.26684
7.91168
7.4941
7.02414
6.53723
6.08958
1
1
1
1
1
1
1
1
1
1
1
1
1
1
1
1
1
1
1
1
1
1
1
1
1
1
1
1
1
1
1
1
1
1
1
1
1
1
1
1
1
1
1
1
1
1
1
1
1
1
1
1
1
1
1
1
1
1
1
1
1
1
1
1
1
1
1
1
1
1
1
1
1
1
1
1
1
1
1
1
1
1
1
1
1
1
1
1
1
1
1
1
1
1
1
1
1
1
1
1
1
1
1
1
1
1
1
1
1
1
1
1
1
1
1
1
1
1
1
1
1
1
1
1
1
1
1
1
1
1
1
1
1
1
1
1
1
1
1
1
1
1
1
1
1
1
1
1
1
1.04375
6.73539
9.95494
9.92356
9.96451
10.0098
10.0451
10.0694
10.089
10.1053
10.1198
10.1329
10.1425
10.1479
10.1489
10.1428
10.1327
10.1193
10.1033
10.085
10.0639
10.0376
10.0059
9.96874
9.92467
9.8734
9.81516
9.74867
9.67184
9.58203
9.47735
9.35616
9.2172
9.05845
8.8757
8.66345
8.41477
8.12294
7.78192
7.39302
6.97078
6.54276
6.13747
1
1
1
1
1
1
1
1
1
1
1
1
1
1
1
1
1
1
1
1
1
1
1
1
1
1
1
1
1
1
1
1
1
1
1
1
1
1
1
1
1
1
1
1
1
1
1
1
1
1
1
1
1
1
1
1
1
1
1
1
1
1
1
1
1
1
1
1
1
1
1
1
1
1
1
1
1
1
1
1
1
1
1
1
1
1
1
1
1
1
1
1
1
1
1
1
1
1
1
1
1
1
1
1
1
1
1
1
1
1
1
1
1
1
1
1
1
1
1
1
1
1
1
1
1
1
1
1
1
1
1
1
1
1
1
1
1
1
1
1
1
1
1
1
1
1
1
1
1
1.00011
4.96968
9.50759
9.84656
9.93833
9.98141
10.0034
10.0263
10.0455
10.0607
10.0731
10.0839
10.0916
10.0959
10.0959
10.0889
10.0772
10.0616
10.0424
10.0198
9.99518
9.96617
9.93195
9.89232
9.84525
9.78931
9.72491
9.65197
9.56969
9.47568
9.36716
9.2413
9.0965
8.93174
8.74431
8.53026
8.28409
8.00096
7.67753
7.31655
6.93542
6.54589
6.18166
1
1
1
1
1
1
1
1
1
1
1
1
1
1
1
1
1
1
1
1
1
1
1
1
1
1
1
1
1
1
1
1
1
1
1
1
1
1
1
1
1
1
1
1
1
1
1
1
1
1
1
1
1
1
1
1
1
1
1
1
1
1
1
1
1
1
1
1
1
1
1
1
1
1
1
1
1
1
1
1
1
1
1
1
1
1
1
1
1
1
1
1
1
1
1
1
1
1
1
1
1
1
1
1
1
1
1
1
1
1
1
1
1
1
1
1
1
1
1
1
1
1
1
1
1
1
1
1
1
1
1
1
1
1
1
1
1
1
1
1
1
1
1
1
1
1
1
1
1
0.999999
3.2865
9.02576
9.88639
9.91554
9.93687
9.96379
9.98722
10.0051
10.0188
10.0292
10.0365
10.0416
10.0438
10.0423
10.0345
10.021
10.0038
9.98211
9.95594
9.92747
9.89561
9.85868
9.81618
9.76626
9.70629
9.63631
9.55728
9.46981
9.37208
9.26078
9.13203
8.98363
8.81493
8.62472
8.41092
8.1693
7.89729
7.59219
7.2568
6.91141
6.55501
6.2414
1
1
1
1
1
1
1
1
1
1
1
1
1
1
1
1
1
1
1
1
1
1
1
1
1
1
1
1
1
1
1
1
1
1
1
1
1
1
1
1
1
1
1
1
1
1
1
1
1
1
1
1
1
1
1
1
1
1
1
1
1
1
1
1
1
1
1
1
1
1
1
1
1
1
1
1
1
1
1
1
1
1
1
1
1
1
1
1
1
1
1
1
1
1
1
1
1
1
1
1
1
1
1
1
1
1
1
1
1
1
1
1
1
1
1
1
1
1
1
1
1
1
1
1
1
1
1
1
1
1
1
1
1
1
1
1
1
1
1
1
1
1
1
1
1
1
1
1
1
1
1.81956
8.21733
9.93251
9.85497
9.87685
9.92254
9.94921
9.96546
9.97705
9.98436
9.98817
9.99075
9.99093
9.98799
9.97942
9.96451
9.94569
9.92198
9.89275
9.86055
9.82516
9.78513
9.73931
9.6862
9.6231
9.54932
9.4658
9.37394
9.27265
9.15871
9.02794
8.87778
8.70733
8.51613
8.30411
8.06849
7.80786
7.52357
7.21055
6.89629
6.57659
6.30677
1
1
1
1
1
1
1
1
1
1
1
1
1
1
1
1
1
1
1
1
1
1
1
1
1
1
1
1
1
1
1
1
1
1
1
1
1
1
1
1
1
1
1
1
1
1
1
1
1
1
1
1
1
1
1
1
1
1
1
1
1
1
1
1
1
1
1
1
1
1
1
1
1
1
1
1
1
1
1
1
1
1
1
1
1
1
1
1
1
1
1
1
1
1
1
1
1
1
1
1
1
1
1
1
1
1
1
1
1
1
1
1
1
1
1
1
1
1
1
1
1
1
1
1
1
1
1
1
1
1
1
1
1
1
1
1
1
1
1
1
1
1
1
1
1
1
1
1
1
1
1.06966
6.78714
9.86841
9.8165
9.84186
9.88424
9.91101
9.9256
9.93504
9.93855
9.93937
9.93965
9.93794
9.93362
9.92421
9.90808
9.88719
9.86141
9.82982
9.79475
9.75569
9.71204
9.66229
9.60556
9.53993
9.4641
9.37788
9.28232
9.17732
9.06057
8.92845
8.77836
8.60867
8.41848
8.20896
7.97969
7.73085
7.46606
7.17355
6.8872
6.60406
6.36048
1
1
1
1
1
1
1
1
1
1
1
1
1
1
1
1
1
1
1
1
1
1
1
1
1
1
1
1
1
1
1
1
1
1
1
1
1
1
1
1
1
1
1
1
1
1
1
1
1
1
1
1
1
1
1
1
1
1
1
1
1
1
1
1
1
1
1
1
1
1
1
1
1
1
1
1
1
1
1
1
1
1
1
1
1
1
1
1
1
1
1
1
1
1
1
1
1
1
1
1
1
1
1
1
1
1
1
1
1
1
1
1
1
1
1
1
1
1
1
1
1
1
1
1
1
1
1
1
1
1
1
1
1
1
1
1
1
1
1
1
1
1
1
1
1
1
1
1
1
1
1.00033
4.88906
9.36072
9.70142
9.80819
9.86107
9.87612
9.88513
9.89041
9.89052
9.88892
9.88738
9.88452
9.87943
9.86931
9.8523
9.82924
9.80129
9.76757
9.72969
9.68734
9.63999
9.58617
9.52556
9.45744
9.38036
9.29296
9.19499
9.08676
8.96712
8.83388
8.6849
8.51794
8.33082
8.12501
7.90192
7.6636
7.41715
7.14434
6.88445
6.62988
6.40346
1
1
1
1
1
1
1
1
1
1
1
1