/*--------------------------------*- C++ -*----------------------------------*\
  =========                 |
  \\      /  F ield         | OpenFOAM: The Open Source CFD Toolbox
   \\    /   O peration     | Website:  https://openfoam.org
    \\  /    A nd           | Version:  7
     \\/     M anipulation  |
\*---------------------------------------------------------------------------*/
FoamFile
{
    version     2.0;
    format      ascii;
    class       volVectorField;
    location    "0.6";
    object      U;
}
// * * * * * * * * * * * * * * * * * * * * * * * * * * * * * * * * * * * * * //

dimensions      [0 1 -1 0 0 0 0];

internalField   nonuniform List<vector> 
4128
(
(2.43481 0.852205 0)
(2.4913 0.796498 0)
(2.52759 0.734635 0)
(2.53801 0.714204 0)
(2.53779 0.74475 0)
(2.52865 0.761822 0)
(2.5576 0.732498 0)
(2.61349 0.679015 0)
(2.64442 0.62014 0)
(2.66663 0.604563 0)
(2.66933 0.632661 0)
(2.65839 0.642063 0)
(2.6822 0.604782 0)
(2.71191 0.544684 0)
(2.72242 0.504959 0)
(2.7399 0.505531 0)
(2.75558 0.519578 0)
(2.77123 0.50988 0)
(2.79307 0.482831 0)
(2.80517 0.448814 0)
(2.81512 0.431261 0)
(2.82954 0.416466 0)
(2.8376 0.394941 0)
(2.83676 0.381712 0)
(2.83207 0.364439 0)
(2.83157 0.335133 0)
(2.84415 0.320457 0)
(2.8559 0.305411 0)
(2.86182 0.292707 0)
(2.8817 0.278652 0)
(2.8986 0.273801 0)
(2.91091 0.26225 0)
(2.916 0.250728 0)
(2.92327 0.239064 0)
(2.92628 0.218366 0)
(2.91329 0.182177 0)
(2.91257 0.151393 0)
(2.91491 0.144356 0)
(2.93351 0.138729 0)
(2.94708 0.133672 0)
(2.95595 0.126736 0)
(2.96681 0.124158 0)
(2.9894 0.109292 0)
(3.00322 0.0827915 0)
(3.00865 0.0718982 0)
(3.01073 0.0741283 0)
(3.01697 0.0601074 0)
(3.03493 0.0344322 0)
(3.04384 0.0134941 0)
(3.05034 0.00748194 0)
(3.05656 0.0112472 0)
(3.0564 0.0302496 0)
(3.05327 0.0440332 0)
(3.05556 0.0450587 0)
(3.07031 0.0316928 0)
(3.08845 -0.00767807 0)
(3.10358 -0.0727313 0)
(3.1186 -0.101016 0)
(3.12744 -0.102227 0)
(3.13501 -0.10081 0)
(3.14298 -0.0996633 0)
(3.15205 -0.0885816 0)
(3.14301 -0.0723273 0)
(3.13604 -0.0690456 0)
(3.1293 -0.0529368 0)
(3.12157 -0.023066 0)
(3.10824 -0.00375325 0)
(3.11059 -0.00459945 0)
(3.13492 -0.0474056 0)
(3.15381 -0.113567 0)
(3.17405 -0.132772 0)
(3.18111 -0.131623 0)
(3.18192 -0.130268 0)
(3.17921 -0.129852 0)
(3.17507 -0.12945 0)
(3.16863 -0.13004 0)
(3.15517 -0.131403 0)
(3.14291 -0.128602 0)
(3.14161 -0.114842 0)
(3.14775 -0.101639 0)
(3.14679 -0.101086 0)
(3.14486 -0.103817 0)
(3.14469 -0.102217 0)
(3.14484 -0.0987444 0)
(3.14503 -0.0959166 0)
(3.14395 -0.0932594 0)
(3.14073 -0.0887072 0)
(3.13837 -0.0818236 0)
(3.14267 -0.0713322 0)
(3.1567 -0.0579583 0)
(3.16573 -0.0483661 0)
(3.16379 -0.0451082 0)
(3.16093 -0.0457903 0)
(3.15691 -0.047453 0)
(3.15011 -0.0484311 0)
(3.14218 -0.0484686 0)
(3.13457 -0.0447112 0)
(3.12769 -0.0393424 0)
(3.1216 -0.0325012 0)
(3.1167 -0.0227284 0)
(3.11274 -0.0128022 0)
(3.10789 -0.00686207 0)
(3.1012 -0.00433299 0)
(3.09445 -0.00284279 0)
(3.08991 -0.000710668 0)
(3.08888 0.00398681 0)
(3.09724 0.0114144 0)
(3.11823 0.0180888 0)
(3.12777 0.0190337 0)
(3.12741 0.0182555 0)
(3.12642 0.0173429 0)
(3.12315 0.0149726 0)
(3.11336 0.00710861 0)
(3.08973 -0.0121708 0)
(3.05858 -0.0345749 0)
(3.04796 -0.0403742 0)
(3.04631 -0.0403467 0)
(3.04584 -0.0382761 0)
(3.05263 -0.031927 0)
(3.06302 -0.0247688 0)
(3.0644 -0.0236502 0)
(3.06303 -0.0241971 0)
(3.06142 -0.02498 0)
(3.05985 -0.0257629 0)
(3.05665 -0.0271119 0)
(3.05029 -0.031471 0)
(3.0435 -0.0360773 0)
(3.04163 -0.0370756 0)
(3.03814 -0.0364035 0)
(2.44374 0.868491 0)
(2.49293 0.812626 0)
(2.52118 0.754116 0)
(2.52832 0.757247 0)
(2.52519 0.787843 0)
(2.53115 0.780513 0)
(2.57791 0.747739 0)
(2.61849 0.686062 0)
(2.64059 0.641636 0)
(2.65396 0.656011 0)
(2.64886 0.678488 0)
(2.65386 0.664321 0)
(2.68286 0.621281 0)
(2.70745 0.573306 0)
(2.71977 0.538748 0)
(2.73507 0.537244 0)
(2.75115 0.547468 0)
(2.77035 0.539943 0)
(2.79053 0.515627 0)
(2.80251 0.486375 0)
(2.8133 0.465322 0)
(2.82704 0.445343 0)
(2.83384 0.417543 0)
(2.82931 0.402609 0)
(2.82066 0.38882 0)
(2.82639 0.366104 0)
(2.84442 0.360172 0)
(2.85976 0.343651 0)
(2.86748 0.324197 0)
(2.88454 0.308874 0)
(2.90226 0.305435 0)
(2.91226 0.296043 0)
(2.91631 0.288819 0)
(2.92256 0.275157 0)
(2.91732 0.24191 0)
(2.90311 0.204612 0)
(2.90889 0.185122 0)
(2.91508 0.182121 0)
(2.93415 0.175493 0)
(2.95079 0.169176 0)
(2.96155 0.157784 0)
(2.97402 0.155738 0)
(2.99322 0.140348 0)
(3.00286 0.115643 0)
(3.00535 0.107211 0)
(3.00876 0.108788 0)
(3.01911 0.0961782 0)
(3.03903 0.0645045 0)
(3.04752 0.0437532 0)
(3.05024 0.0424999 0)
(3.05264 0.0481789 0)
(3.04992 0.0685287 0)
(3.04452 0.0776169 0)
(3.05913 0.0673786 0)
(3.07948 0.0445748 0)
(3.09347 0.0146733 0)
(3.10799 -0.0415128 0)
(3.12291 -0.0695241 0)
(3.13035 -0.0710702 0)
(3.13597 -0.0700522 0)
(3.14496 -0.0671268 0)
(3.14798 -0.0524342 0)
(3.14056 -0.0473576 0)
(3.13638 -0.0385504 0)
(3.12657 -0.00500575 0)
(3.1027 0.0245344 0)
(3.09207 0.0309926 0)
(3.11238 0.0106435 0)
(3.14683 -0.0328455 0)
(3.16306 -0.0801798 0)
(3.16836 -0.0916611 0)
(3.17169 -0.0920242 0)
(3.17364 -0.095069 0)
(3.17395 -0.101372 0)
(3.17309 -0.102997 0)
(3.16836 -0.10619 0)
(3.15826 -0.113301 0)
(3.14877 -0.117229 0)
(3.15 -0.113104 0)
(3.15553 -0.108922 0)
(3.15516 -0.10963 0)
(3.15478 -0.111497 0)
(3.15483 -0.112416 0)
(3.15403 -0.110166 0)
(3.15384 -0.106895 0)
(3.15305 -0.103244 0)
(3.15083 -0.0990957 0)
(3.14968 -0.0917917 0)
(3.15674 -0.0795869 0)
(3.17102 -0.0660466 0)
(3.17135 -0.0593838 0)
(3.16742 -0.0590906 0)
(3.16321 -0.0594442 0)
(3.15678 -0.0607613 0)
(3.15303 -0.0611245 0)
(3.14588 -0.0608132 0)
(3.1386 -0.0576123 0)
(3.13337 -0.0509429 0)
(3.12969 -0.0421634 0)
(3.12699 -0.0329034 0)
(3.12448 -0.0230623 0)
(3.12029 -0.0133064 0)
(3.11372 -0.00766596 0)
(3.10549 -0.00617943 0)
(3.09799 -0.00541323 0)
(3.09579 -0.00211395 0)
(3.10629 0.00465536 0)
(3.12622 0.0115511 0)
(3.13107 0.0129488 0)
(3.12855 0.0122177 0)
(3.12668 0.0107445 0)
(3.12154 0.00788914 0)
(3.10379 -0.00310628 0)
(3.07146 -0.0253658 0)
(3.05258 -0.0361616 0)
(3.05026 -0.0366993 0)
(3.04766 -0.0361768 0)
(3.05021 -0.0328489 0)
(3.0611 -0.0262084 0)
(3.06591 -0.0231501 0)
(3.06488 -0.0229216 0)
(3.06383 -0.0228535 0)
(3.06233 -0.0229829 0)
(3.05923 -0.0241539 0)
(3.05336 -0.0283319 0)
(3.04646 -0.0345088 0)
(3.04367 -0.0360336 0)
(3.04276 -0.0366563 0)
(3.03782 -0.0358701 0)
(2.46489 0.861961 0)
(2.49045 0.830042 0)
(2.51435 0.791277 0)
(2.51974 0.80425 0)
(2.51861 0.822725 0)
(2.54532 0.798971 0)
(2.59308 0.754939 0)
(2.61761 0.696169 0)
(2.63365 0.676608 0)
(2.63524 0.705353 0)
(2.63478 0.710531 0)
(2.65921 0.675739 0)
(2.68474 0.637839 0)
(2.7104 0.598135 0)
(2.72167 0.569607 0)
(2.7306 0.57009 0)
(2.7419 0.580717 0)
(2.75935 0.578167 0)
(2.7864 0.552008 0)
(2.80552 0.513767 0)
(2.81948 0.480309 0)
(2.82954 0.461367 0)
(2.82815 0.442924 0)
(2.81868 0.432085 0)
(2.80989 0.423202 0)
(2.82421 0.404269 0)
(2.84519 0.396969 0)
(2.86456 0.376368 0)
(2.87406 0.354949 0)
(2.88444 0.343957 0)
(2.90241 0.341114 0)
(2.912 0.330994 0)
(2.91609 0.32004 0)
(2.91586 0.296575 0)
(2.90205 0.256669 0)
(2.89925 0.235855 0)
(2.9068 0.221715 0)
(2.91513 0.21805 0)
(2.93602 0.211918 0)
(2.95551 0.203122 0)
(2.96669 0.191007 0)
(2.97889 0.188971 0)
(2.99373 0.170349 0)
(3.00025 0.141386 0)
(3.00334 0.134671 0)
(3.01029 0.133029 0)
(3.02764 0.119886 0)
(3.04218 0.0936346 0)
(3.04517 0.078514 0)
(3.0482 0.0786798 0)
(3.04994 0.0862395 0)
(3.04728 0.101137 0)
(3.0433 0.102882 0)
(3.06581 0.0875678 0)
(3.08399 0.0651117 0)
(3.09504 0.0411536 0)
(3.11044 -0.0087381 0)
(3.12525 -0.0354203 0)
(3.13075 -0.0363388 0)
(3.13583 -0.0353981 0)
(3.14433 -0.0287801 0)
(3.14079 -0.0187707 0)
(3.1352 -0.0153307 0)
(3.13018 0.00563866 0)
(3.11502 0.045072 0)
(3.08986 0.0679916 0)
(3.08556 0.0635075 0)
(3.11536 0.0191055 0)
(3.14769 -0.0369111 0)
(3.16411 -0.0727073 0)
(3.16956 -0.0796848 0)
(3.17114 -0.0788809 0)
(3.17087 -0.074374 0)
(3.16924 -0.0682435 0)
(3.16783 -0.0656491 0)
(3.1629 -0.0625825 0)
(3.15346 -0.0653688 0)
(3.14598 -0.0741496 0)
(3.14919 -0.0805867 0)
(3.15164 -0.0812131 0)
(3.15212 -0.0821944 0)
(3.15403 -0.0901963 0)
(3.15616 -0.0977882 0)
(3.15691 -0.0986464 0)
(3.15716 -0.0976528 0)
(3.15755 -0.0950676 0)
(3.15713 -0.0909098 0)
(3.15906 -0.0857818 0)
(3.16993 -0.0785854 0)
(3.17663 -0.073491 0)
(3.17613 -0.0730816 0)
(3.17382 -0.073444 0)
(3.16851 -0.0738109 0)
(3.15788 -0.0746221 0)
(3.15404 -0.0751171 0)
(3.14969 -0.074783 0)
(3.14492 -0.0729911 0)
(3.14265 -0.0684452 0)
(3.14125 -0.0591706 0)
(3.13869 -0.048889 0)
(3.13476 -0.0414841 0)
(3.12942 -0.0352557 0)
(3.12253 -0.0289614 0)
(3.11454 -0.0247011 0)
(3.10722 -0.0211119 0)
(3.10675 -0.014117 0)
(3.12108 5.1846e-05 0)
(3.13428 0.0126079 0)
(3.13075 0.013045 0)
(3.12668 0.0108459 0)
(3.1233 0.00768061 0)
(3.11218 0.000173183 0)
(3.08703 -0.0188414 0)
(3.06147 -0.0343748 0)
(3.05555 -0.0362734 0)
(3.05182 -0.0354289 0)
(3.05 -0.033256 0)
(3.05676 -0.0296503 0)
(3.06631 -0.0258082 0)
(3.06737 -0.0244056 0)
(3.06609 -0.024234 0)
(3.06481 -0.0242213 0)
(3.0625 -0.0245612 0)
(3.05669 -0.0272305 0)
(3.04933 -0.03305 0)
(3.0453 -0.0357387 0)
(3.04429 -0.0357435 0)
(3.04306 -0.0372403 0)
(3.03739 -0.0351046 0)
(2.49638 0.837051 0)
(2.50048 0.847752 0)
(2.50789 0.847398 0)
(2.50579 0.860711 0)
(2.50683 0.859213 0)
(2.55314 0.821173 0)
(2.6009 0.760491 0)
(2.61397 0.713793 0)
(2.62252 0.720413 0)
(2.61756 0.746897 0)
(2.62729 0.734954 0)
(2.66771 0.685473 0)
(2.6902 0.645987 0)
(2.70702 0.63458 0)
(2.71631 0.617158 0)
(2.72147 0.612531 0)
(2.73153 0.614041 0)
(2.75755 0.599558 0)
(2.7878 0.567828 0)
(2.80466 0.538186 0)
(2.81817 0.512128 0)
(2.8239 0.497832 0)
(2.81883 0.474282 0)
(2.81148 0.456094 0)
(2.8092 0.449905 0)
(2.82576 0.436853 0)
(2.84696 0.432017 0)
(2.86524 0.415633 0)
(2.87881 0.389494 0)
(2.88791 0.378611 0)
(2.90353 0.371599 0)
(2.90979 0.362843 0)
(2.90695 0.347428 0)
(2.89488 0.312362 0)
(2.89244 0.280288 0)
(2.89856 0.272726 0)
(2.90686 0.256904 0)
(2.91695 0.25596 0)
(2.93816 0.251337 0)
(2.96241 0.233953 0)
(2.9724 0.215798 0)
(2.97986 0.208108 0)
(2.98645 0.193482 0)
(2.99353 0.179394 0)
(3.0015 0.175156 0)
(3.01089 0.169103 0)
(3.02888 0.152833 0)
(3.04151 0.125842 0)
(3.04349 0.110456 0)
(3.04723 0.111626 0)
(3.0479 0.124132 0)
(3.04343 0.134796 0)
(3.04875 0.125915 0)
(3.07185 0.10984 0)
(3.08541 0.0866908 0)
(3.09627 0.062203 0)
(3.11282 0.017372 0)
(3.12503 -0.00117808 0)
(3.1282 -0.00123614 0)
(3.13424 0.000350299 0)
(3.13722 0.00710449 0)
(3.13264 0.00856592 0)
(3.1267 0.0202051 0)
(3.12005 0.0573686 0)
(3.09795 0.0910767 0)
(3.08389 0.099028 0)
(3.09645 0.0745613 0)
(3.11957 0.0296381 0)
(3.14025 -0.013114 0)
(3.15661 -0.0304175 0)
(3.16291 -0.0323198 0)
(3.16549 -0.0326948 0)
(3.16482 -0.034002 0)
(3.16424 -0.0343196 0)
(3.16134 -0.0331229 0)
(3.15636 -0.0317177 0)
(3.15145 -0.0375829 0)
(3.14982 -0.0526991 0)
(3.15171 -0.0679056 0)
(3.15174 -0.0720888 0)
(3.15139 -0.0737281 0)
(3.15352 -0.0858304 0)
(3.1579 -0.0989595 0)
(3.16011 -0.100973 0)
(3.16131 -0.100049 0)
(3.16359 -0.0976651 0)
(3.16642 -0.0938561 0)
(3.17137 -0.0888361 0)
(3.17987 -0.0813484 0)
(3.18035 -0.0773153 0)
(3.17746 -0.0774139 0)
(3.17456 -0.077658 0)
(3.16826 -0.077928 0)
(3.15825 -0.0796162 0)
(3.15541 -0.080525 0)
(3.15233 -0.080884 0)
(3.15031 -0.0802296 0)
(3.14936 -0.0780197 0)
(3.14794 -0.0740957 0)
(3.1445 -0.0692116 0)
(3.13989 -0.0652652 0)
(3.1346 -0.0622196 0)
(3.12825 -0.0580313 0)
(3.12126 -0.051763 0)
(3.11644 -0.0440858 0)
(3.12412 -0.0343566 0)
(3.1439 -0.0209805 0)
(3.1403 -0.016821 0)
(3.13356 -0.0174648 0)
(3.12808 -0.0191388 0)
(3.11884 -0.0219162 0)
(3.09971 -0.0293253 0)
(3.07506 -0.0388335 0)
(3.06433 -0.0403618 0)
(3.05956 -0.0392233 0)
(3.05387 -0.0376275 0)
(3.05499 -0.0346303 0)
(3.06429 -0.0288234 0)
(3.06906 -0.0254424 0)
(3.06774 -0.0251828 0)
(3.06644 -0.0253026 0)
(3.0647 -0.0257842 0)
(3.05966 -0.0282723 0)
(3.05224 -0.0339346 0)
(3.04742 -0.0368365 0)
(3.04615 -0.0367489 0)
(3.04446 -0.0354085 0)
(3.04372 -0.0345627 0)
(3.03819 -0.0280491 0)
(2.56042 0.794464 0)
(2.51763 0.834491 0)
(2.5019 0.891207 0)
(2.49845 0.903403 0)
(2.51038 0.888788 0)
(2.54952 0.850873 0)
(2.5953 0.786372 0)
(2.60756 0.745587 0)
(2.61075 0.759511 0)
(2.60897 0.771142 0)
(2.63543 0.743758 0)
(2.66851 0.701025 0)
(2.68571 0.673714 0)
(2.70074 0.670974 0)
(2.71282 0.657748 0)
(2.72026 0.641866 0)
(2.729 0.639917 0)
(2.7495 0.629366 0)
(2.78176 0.597498 0)
(2.80286 0.561343 0)
(2.8175 0.533289 0)
(2.82357 0.515717 0)
(2.81228 0.50065 0)
(2.80511 0.490966 0)
(2.80755 0.486491 0)
(2.82742 0.474812 0)
(2.84987 0.462649 0)
(2.87212 0.43952 0)
(2.87858 0.424486 0)
(2.89024 0.415012 0)
(2.89946 0.411563 0)
(2.90271 0.395511 0)
(2.88707 0.362726 0)
(2.87687 0.322733 0)
(2.8903 0.314584 0)
(2.89985 0.307803 0)
(2.90793 0.29263 0)
(2.92067 0.292234 0)
(2.94085 0.289419 0)
(2.96291 0.267179 0)
(2.96919 0.245932 0)
(2.96918 0.233959 0)
(2.97768 0.215728 0)
(2.99377 0.210011 0)
(3.00458 0.204736 0)
(3.01523 0.195305 0)
(3.03033 0.178059 0)
(3.03867 0.154538 0)
(3.03947 0.146217 0)
(3.04277 0.150272 0)
(3.04151 0.164182 0)
(3.04077 0.165633 0)
(3.05779 0.149988 0)
(3.07631 0.1285 0)
(3.08535 0.11038 0)
(3.09876 0.0846488 0)
(3.11311 0.0487123 0)
(3.12101 0.0391153 0)
(3.12377 0.0391423 0)
(3.12953 0.0396345 0)
(3.12528 0.0394277 0)
(3.11861 0.0433432 0)
(3.11471 0.0638466 0)
(3.10246 0.106731 0)
(3.08131 0.133656 0)
(3.08419 0.127828 0)
(3.10669 0.0818094 0)
(3.12275 0.0265453 0)
(3.14395 -0.00610741 0)
(3.15507 -0.00814782 0)
(3.15929 -0.00828817 0)
(3.16116 -0.00636037 0)
(3.16062 -0.000280101 0)
(3.15977 0.002788 0)
(3.15476 0.00504205 0)
(3.14859 0.00190359 0)
(3.14716 -0.0101867 0)
(3.14925 -0.0254563 0)
(3.14816 -0.0341911 0)
(3.14678 -0.03773 0)
(3.14569 -0.0437364 0)
(3.14933 -0.0592849 0)
(3.15388 -0.0688798 0)
(3.15728 -0.0717431 0)
(3.16164 -0.0729923 0)
(3.16578 -0.0723371 0)
(3.17052 -0.0698755 0)
(3.17657 -0.0664937 0)
(3.18051 -0.0667512 0)
(3.17965 -0.0693183 0)
(3.17595 -0.0712515 0)
(3.17211 -0.072855 0)
(3.1646 -0.0748244 0)
(3.1564 -0.0765756 0)
(3.1548 -0.0769102 0)
(3.15305 -0.0773968 0)
(3.15259 -0.0806445 0)
(3.15226 -0.082492 0)
(3.14977 -0.0828979 0)
(3.14593 -0.0830655 0)
(3.14158 -0.083252 0)
(3.13856 -0.0831888 0)
(3.13392 -0.08239 0)
(3.12913 -0.0789529 0)
(3.12761 -0.0725077 0)
(3.13764 -0.0632554 0)
(3.15399 -0.0566006 0)
(3.14563 -0.0559051 0)
(3.13582 -0.0558127 0)
(3.12686 -0.0557683 0)
(3.1162 -0.0561493 0)
(3.09338 -0.0570116 0)
(3.07721 -0.0549951 0)
(3.07074 -0.0518172 0)
(3.06248 -0.0464325 0)
(3.05851 -0.0431574 0)
(3.06381 -0.0388153 0)
(3.07243 -0.033399 0)
(3.07106 -0.0324962 0)
(3.06877 -0.0329119 0)
(3.06674 -0.0333648 0)
(3.062 -0.0344607 0)
(3.05565 -0.0373553 0)
(3.05107 -0.0389 0)
(3.04928 -0.038723 0)
(3.04661 -0.0378611 0)
(3.04545 -0.0368055 0)
(3.04674 -0.035192 0)
(3.04622 -0.021252 0)
(2.67941 0.69499 0)
(2.57898 0.781548 0)
(2.51325 0.893418 0)
(2.51459 0.92245 0)
(2.52216 0.903109 0)
(2.54902 0.864014 0)
(2.58654 0.812612 0)
(2.60121 0.784921 0)
(2.60025 0.795259 0)
(2.60084 0.790984 0)
(2.63972 0.759731 0)
(2.66907 0.71956 0)
(2.68436 0.697936 0)
(2.69645 0.703852 0)
(2.70251 0.701412 0)
(2.71774 0.675173 0)
(2.72848 0.662441 0)
(2.74759 0.647242 0)
(2.77894 0.614997 0)
(2.79681 0.585967 0)
(2.80887 0.567167 0)
(2.81339 0.552481 0)
(2.80046 0.535641 0)
(2.80479 0.521516 0)
(2.81138 0.516097 0)
(2.8287 0.504259 0)
(2.85268 0.493497 0)
(2.87183 0.476225 0)
(2.88159 0.459645 0)
(2.89095 0.448464 0)
(2.8961 0.437174 0)
(2.88809 0.409567 0)
(2.86734 0.37919 0)
(2.86845 0.357516 0)
(2.88597 0.355434 0)
(2.90064 0.341493 0)
(2.90903 0.32876 0)
(2.92178 0.33026 0)
(2.94301 0.324491 0)
(2.95919 0.293366 0)
(2.95906 0.263395 0)
(2.95787 0.252275 0)
(2.97367 0.245673 0)
(2.99048 0.24599 0)
(3.00452 0.240481 0)
(3.01839 0.228423 0)
(3.0325 0.205391 0)
(3.03379 0.180897 0)
(3.03394 0.177837 0)
(3.03788 0.187539 0)
(3.03843 0.196403 0)
(3.04763 0.186727 0)
(3.06361 0.173331 0)
(3.075 0.152977 0)
(3.08603 0.134375 0)
(3.10369 0.101667 0)
(3.11544 0.072855 0)
(3.11894 0.0698972 0)
(3.12263 0.0699453 0)
(3.12035 0.0680456 0)
(3.11355 0.0665127 0)
(3.1041 0.0794114 0)
(3.09865 0.112535 0)
(3.08292 0.144783 0)
(3.07647 0.157323 0)
(3.09664 0.140668 0)
(3.11848 0.0898687 0)
(3.12976 0.0429624 0)
(3.1396 0.0357369 0)
(3.14392 0.034857 0)
(3.14802 0.0339593 0)
(3.15044 0.0342531 0)
(3.1531 0.0358938 0)
(3.15452 0.0384625 0)
(3.15078 0.0364201 0)
(3.14448 0.0267683 0)
(3.14234 0.0129433 0)
(3.14421 -0.00180316 0)
(3.14531 -0.012741 0)
(3.14403 -0.0201157 0)
(3.14595 -0.035294 0)
(3.15052 -0.0471254 0)
(3.15349 -0.0501831 0)
(3.1583 -0.0541028 0)
(3.1634 -0.0549381 0)
(3.16747 -0.0553046 0)
(3.17325 -0.0561903 0)
(3.17966 -0.0610523 0)
(3.182 -0.0687423 0)
(3.18066 -0.0719383 0)
(3.17786 -0.0730348 0)
(3.17252 -0.0742581 0)
(3.16192 -0.0774052 0)
(3.1564 -0.0800515 0)
(3.15573 -0.0804188 0)
(3.15577 -0.0819856 0)
(3.15622 -0.0840769 0)
(3.15401 -0.0846323 0)
(3.15162 -0.0847105 0)
(3.1474 -0.0849678 0)
(3.14035 -0.087363 0)
(3.13787 -0.088416 0)
(3.13471 -0.0886974 0)
(3.13214 -0.088097 0)
(3.13508 -0.0864583 0)
(3.14742 -0.0836066 0)
(3.15621 -0.0816256 0)
(3.14966 -0.081816 0)
(3.14265 -0.0818197 0)
(3.13259 -0.0813621 0)
(3.12011 -0.080193 0)
(3.09547 -0.0755718 0)
(3.08284 -0.0708283 0)
(3.07463 -0.0664787 0)
(3.06615 -0.0588198 0)
(3.06508 -0.0514765 0)
(3.07443 -0.0457663 0)
(3.07892 -0.0440957 0)
(3.07367 -0.0444097 0)
(3.06927 -0.0449735 0)
(3.06558 -0.0458025 0)
(3.05966 -0.0457662 0)
(3.05597 -0.0442118 0)
(3.05323 -0.0423442 0)
(3.05011 -0.0393158 0)
(3.04848 -0.036252 0)
(3.04884 -0.0329414 0)
(3.05288 -0.0259357 0)
(3.06113 -0.00868137 0)
(2.79907 0.556482 0)
(2.70495 0.659156 0)
(2.56903 0.838194 0)
(2.54515 0.913617 0)
(2.55322 0.882188 0)
(2.56675 0.859635 0)
(2.58114 0.84371 0)
(2.58631 0.839591 0)
(2.58256 0.837965 0)
(2.59109 0.814822 0)
(2.64295 0.77689 0)
(2.66964 0.738718 0)
(2.68265 0.731067 0)
(2.68752 0.743212 0)
(2.69404 0.734695 0)
(2.71629 0.696066 0)
(2.72887 0.678166 0)
(2.74292 0.670877 0)
(2.77126 0.644636 0)
(2.78795 0.616091 0)
(2.79812 0.598511 0)
(2.80283 0.583453 0)
(2.79576 0.562662 0)
(2.80504 0.554635 0)
(2.81452 0.547772 0)
(2.82756 0.535075 0)
(2.85382 0.521221 0)
(2.87218 0.506063 0)
(2.88141 0.495128 0)
(2.88726 0.484385 0)
(2.88093 0.463205 0)
(2.86323 0.425463 0)
(2.86535 0.399663 0)
(2.86927 0.391012 0)
(2.88462 0.386853 0)
(2.90011 0.376434 0)
(2.91039 0.366682 0)
(2.92482 0.362024 0)
(2.94151 0.348917 0)
(2.94116 0.31931 0)
(2.94339 0.290021 0)
(2.94865 0.283807 0)
(2.9682 0.279298 0)
(2.98911 0.277131 0)
(3.00805 0.264106 0)
(3.02207 0.248032 0)
(3.03163 0.227792 0)
(3.02417 0.211924 0)
(3.02254 0.225311 0)
(3.02325 0.239403 0)
(3.03404 0.236061 0)
(3.05051 0.223048 0)
(3.06752 0.199495 0)
(3.07476 0.17373 0)
(3.08543 0.153847 0)
(3.10264 0.125144 0)
(3.1108 0.11213 0)
(3.11322 0.111634 0)
(3.11336 0.108122 0)
(3.10872 0.104774 0)
(3.09645 0.107854 0)
(3.08668 0.131894 0)
(3.07077 0.16668 0)
(3.05468 0.187529 0)
(3.07362 0.177953 0)
(3.10859 0.132665 0)
(3.12806 0.0812909 0)
(3.13475 0.0635883 0)
(3.13663 0.0631732 0)
(3.1392 0.0623606 0)
(3.14141 0.0636662 0)
(3.14372 0.0660928 0)
(3.14703 0.06972 0)
(3.14967 0.0733127 0)
(3.14455 0.068903 0)
(3.13851 0.0588036 0)
(3.1372 0.0432141 0)
(3.13568 0.0308899 0)
(3.13448 0.0194596 0)
(3.14027 0.0012073 0)
(3.14416 -0.0124489 0)
(3.14652 -0.016987 0)
(3.15224 -0.0217337 0)
(3.15675 -0.0258394 0)
(3.16024 -0.0276996 0)
(3.16696 -0.0301076 0)
(3.17243 -0.0338913 0)
(3.17753 -0.0393694 0)
(3.17809 -0.0428516 0)
(3.17727 -0.0438051 0)
(3.17486 -0.0448762 0)
(3.16719 -0.0498177 0)
(3.15749 -0.0596936 0)
(3.15476 -0.0633403 0)
(3.1549 -0.0640983 0)
(3.15501 -0.0659992 0)
(3.15383 -0.0679154 0)
(3.15201 -0.0699394 0)
(3.14909 -0.0720457 0)
(3.14251 -0.0768435 0)
(3.13548 -0.082834 0)
(3.13362 -0.0842842 0)
(3.13255 -0.0851707 0)
(3.13291 -0.0877751 0)
(3.13936 -0.0900221 0)
(3.15409 -0.0868213 0)
(3.158 -0.0835734 0)
(3.15221 -0.0834623 0)
(3.14552 -0.083255 0)
(3.13798 -0.0827276 0)
(3.12307 -0.0821264 0)
(3.09731 -0.0829663 0)
(3.08789 -0.0820484 0)
(3.0798 -0.0786102 0)
(3.07317 -0.0717069 0)
(3.07335 -0.0646545 0)
(3.08049 -0.0586252 0)
(3.08255 -0.0558213 0)
(3.07767 -0.054712 0)
(3.07242 -0.0539292 0)
(3.06693 -0.0523968 0)
(3.06154 -0.0491354 0)
(3.0576 -0.0449578 0)
(3.05512 -0.0413142 0)
(3.05338 -0.0380293 0)
(3.05265 -0.0348759 0)
(3.05558 -0.0292665 0)
(3.06465 -0.0170429 0)
(3.07549 -0.00320231 0)
(2.84604 0.494181 0)
(2.81032 0.540997 0)
(2.70726 0.682963 0)
(2.62446 0.842945 0)
(2.60892 0.843769 0)
(2.58845 0.844686 0)
(2.58367 0.857393 0)
(2.56908 0.883334 0)
(2.56978 0.880271 0)
(2.59044 0.854505 0)
(2.63535 0.811278 0)
(2.66736 0.768218 0)
(2.67887 0.766232 0)
(2.67748 0.778054 0)
(2.68958 0.755745 0)
(2.71335 0.708378 0)
(2.72592 0.694277 0)
(2.73926 0.695124 0)
(2.76457 0.676694 0)
(2.78073 0.646815 0)
(2.78718 0.627268 0)
(2.79023 0.61171 0)
(2.78894 0.594816 0)
(2.80248 0.591229 0)
(2.81571 0.58353 0)
(2.83092 0.56427 0)
(2.85242 0.546376 0)
(2.86733 0.537515 0)
(2.8769 0.529401 0)
(2.87811 0.51265 0)
(2.8612 0.47406 0)
(2.8556 0.440931 0)
(2.8595 0.437209 0)
(2.86878 0.432171 0)
(2.88474 0.424679 0)
(2.89817 0.406545 0)
(2.90607 0.401838 0)
(2.91792 0.400173 0)
(2.9269 0.376468 0)
(2.92555 0.335925 0)
(2.93578 0.317108 0)
(2.94367 0.314677 0)
(2.96175 0.312279 0)
(2.98616 0.310402 0)
(3.008 0.296975 0)
(3.02333 0.277002 0)
(3.0274 0.252242 0)
(3.01708 0.246148 0)
(3.01403 0.264129 0)
(3.01987 0.266464 0)
(3.0404 0.254671 0)
(3.05207 0.245154 0)
(3.06791 0.221095 0)
(3.0718 0.206829 0)
(3.08718 0.176441 0)
(3.10558 0.143883 0)
(3.10975 0.139964 0)
(3.11246 0.134093 0)
(3.10915 0.12913 0)
(3.10014 0.125397 0)
(3.0904 0.145619 0)
(3.07476 0.182109 0)
(3.05292 0.20609 0)
(3.05681 0.206082 0)
(3.09035 0.17709 0)
(3.11546 0.136391 0)
(3.12128 0.11011 0)
(3.12487 0.108408 0)
(3.1268 0.107671 0)
(3.12907 0.10476 0)
(3.13269 0.102386 0)
(3.13764 0.100234 0)
(3.14286 0.100545 0)
(3.1426 0.100037 0)
(3.13811 0.0942986 0)
(3.13674 0.0816596 0)
(3.13561 0.0654183 0)
(3.13027 0.0525406 0)
(3.1326 0.0305451 0)
(3.13938 0.0133243 0)
(3.14209 0.00953262 0)
(3.14528 0.00648174 0)
(3.15077 0.00174997 0)
(3.15449 -0.000600371 0)
(3.15661 -0.0021697 0)
(3.16578 -0.00698448 0)
(3.17111 -0.0130899 0)
(3.17601 -0.0212039 0)
(3.17719 -0.0272777 0)
(3.17645 -0.0294455 0)
(3.17383 -0.0315587 0)
(3.16504 -0.0374782 0)
(3.15531 -0.0465111 0)
(3.15367 -0.0501835 0)
(3.15436 -0.052167 0)
(3.15517 -0.0567917 0)
(3.15472 -0.0622911 0)
(3.15244 -0.066603 0)
(3.1483 -0.0717716 0)
(3.14043 -0.0795699 0)
(3.13384 -0.0862036 0)
(3.13294 -0.0876974 0)
(3.13301 -0.0883365 0)
(3.13582 -0.0867386 0)
(3.14452 -0.0820551 0)
(3.15779 -0.0771759 0)
(3.15903 -0.0764672 0)
(3.15391 -0.0769663 0)
(3.14766 -0.0774268 0)
(3.14055 -0.0787477 0)
(3.12245 -0.0820954 0)
(3.09751 -0.0858943 0)
(3.09039 -0.0859832 0)
(3.08252 -0.0831909 0)
(3.07756 -0.0766889 0)
(3.0802 -0.0692986 0)
(3.08598 -0.0632519 0)
(3.08547 -0.0596263 0)
(3.0808 -0.0573245 0)
(3.0754 -0.0551129 0)
(3.06971 -0.0520693 0)
(3.06454 -0.048211 0)
(3.06075 -0.044691 0)
(3.05806 -0.0426736 0)
(3.05681 -0.040407 0)
(3.05868 -0.0345152 0)
(3.06734 -0.0232669 0)
(3.07835 -0.00940981 0)
(3.08141 -0.0042138 0)
(2.85148 0.491299 0)
(2.84948 0.497711 0)
(2.82489 0.545595 0)
(2.75532 0.674247 0)
(2.70834 0.750639 0)
(2.63869 0.797703 0)
(2.58847 0.852803 0)
(2.56722 0.907254 0)
(2.57123 0.908774 0)
(2.60125 0.877482 0)
(2.62735 0.837707 0)
(2.65732 0.805323 0)
(2.66868 0.808021 0)
(2.66709 0.811917 0)
(2.68255 0.774935 0)
(2.70887 0.722932 0)
(2.72264 0.709569 0)
(2.73829 0.716546 0)
(2.75701 0.709377 0)
(2.77246 0.681769 0)
(2.77699 0.658465 0)
(2.7781 0.640192 0)
(2.7846 0.622801 0)
(2.80143 0.620823 0)
(2.8162 0.612054 0)
(2.8305 0.595005 0)
(2.84868 0.578093 0)
(2.86175 0.567827 0)
(2.86792 0.556324 0)
(2.85889 0.529154 0)
(2.84545 0.492742 0)
(2.85204 0.480449 0)
(2.85698 0.472129 0)
(2.86893 0.463779 0)
(2.88483 0.455928 0)
(2.8942 0.442387 0)
(2.90038 0.435899 0)
(2.90782 0.422125 0)
(2.90924 0.385166 0)
(2.91625 0.362663 0)
(2.9274 0.357388 0)
(2.9381 0.352983 0)
(2.96058 0.345413 0)
(2.99002 0.333905 0)
(3.01052 0.316871 0)
(3.02138 0.297342 0)
(3.01601 0.282403 0)
(3.00124 0.296762 0)
(2.99589 0.311181 0)
(3.01213 0.302856 0)
(3.03443 0.291956 0)
(3.05194 0.274166 0)
(3.06983 0.241366 0)
(3.07403 0.227576 0)
(3.09154 0.196483 0)
(3.1025 0.183315 0)
(3.10854 0.178234 0)
(3.10572 0.170776 0)
(3.09673 0.163305 0)
(3.08215 0.174573 0)
(3.06476 0.210898 0)
(3.04557 0.235662 0)
(3.04901 0.237753 0)
(3.07914 0.212453 0)
(3.10905 0.17505 0)
(3.11522 0.140423 0)
(3.11555 0.13063 0)
(3.11934 0.130848 0)
(3.12269 0.130669 0)
(3.12553 0.130829 0)
(3.12918 0.13119 0)
(3.1341 0.13197 0)
(3.1353 0.132862 0)
(3.13235 0.131465 0)
(3.13251 0.123464 0)
(3.13172 0.108936 0)
(3.12555 0.101682 0)
(3.12635 0.0818382 0)
(3.13169 0.0531706 0)
(3.13482 0.0396449 0)
(3.13863 0.035782 0)
(3.14364 0.0300713 0)
(3.14816 0.0265667 0)
(3.15071 0.0250593 0)
(3.15546 0.0213416 0)
(3.16313 0.0151459 0)
(3.16976 0.00820981 0)
(3.17254 0.00274601 0)
(3.17325 -0.000320582 0)
(3.17274 -0.00236034 0)
(3.1686 -0.00582841 0)
(3.15769 -0.0150943 0)
(3.15078 -0.0259253 0)
(3.15121 -0.0302582 0)
(3.15165 -0.0334566 0)
(3.15161 -0.0369549 0)
(3.15091 -0.0404093 0)
(3.14865 -0.0438011 0)
(3.14288 -0.0490391 0)
(3.13427 -0.0574715 0)
(3.13024 -0.0626845 0)
(3.12996 -0.0643342 0)
(3.13124 -0.0678199 0)
(3.13638 -0.0706659 0)
(3.14865 -0.0705837 0)
(3.16118 -0.0703771 0)
(3.16087 -0.0716977 0)
(3.15662 -0.072062 0)
(3.1515 -0.0722301 0)
(3.14315 -0.0728499 0)
(3.11963 -0.076806 0)
(3.09623 -0.0820557 0)
(3.09106 -0.0818906 0)
(3.08502 -0.0787299 0)
(3.08292 -0.0736225 0)
(3.08825 -0.0668648 0)
(3.09183 -0.060484 0)
(3.08905 -0.0574549 0)
(3.0843 -0.0554128 0)
(3.07909 -0.053496 0)
(3.07397 -0.0511755 0)
(3.06891 -0.0475175 0)
(3.06433 -0.0428243 0)
(3.06116 -0.0380665 0)
(3.06032 -0.0330122 0)
(3.06654 -0.0254176 0)
(3.08044 -0.0131145 0)
(3.08596 -0.0059257 0)
(3.08268 -0.00522596 0)
(2.84749 0.499422 0)
(2.85719 0.501873 0)
(2.85913 0.507013 0)
(2.85144 0.531439 0)
(2.81016 0.603946 0)
(2.75024 0.673923 0)
(2.62842 0.790675 0)
(2.58871 0.898175 0)
(2.59274 0.893578 0)
(2.6174 0.875484 0)
(2.63068 0.860345 0)
(2.64367 0.852598 0)
(2.65499 0.852622 0)
(2.66101 0.839711 0)
(2.67132 0.797155 0)
(2.70124 0.745724 0)
(2.7168 0.733033 0)
(2.73301 0.743153 0)
(2.75263 0.738554 0)
(2.76781 0.709198 0)
(2.76996 0.68625 0)
(2.76907 0.671106 0)
(2.78028 0.654633 0)
(2.7973 0.65268 0)
(2.81323 0.641063 0)
(2.82781 0.621635 0)
(2.84445 0.605027 0)
(2.85416 0.594317 0)
(2.85189 0.576594 0)
(2.8386 0.542281 0)
(2.84068 0.524562 0)
(2.84939 0.512457 0)
(2.85435 0.506634 0)
(2.86746 0.500382 0)
(2.88306 0.488969 0)
(2.88961 0.473876 0)
(2.89076 0.466313 0)
(2.88783 0.443345 0)
(2.89576 0.404344 0)
(2.90965 0.396435 0)
(2.92361 0.385048 0)
(2.93759 0.382034 0)
(2.96261 0.377175 0)
(2.9899 0.367068 0)
(3.00836 0.351764 0)
(3.01248 0.332897 0)
(2.99903 0.321924 0)
(2.98718 0.330026 0)
(2.9882 0.329781 0)
(3.01299 0.315125 0)
(3.03523 0.307862 0)
(3.05684 0.289 0)
(3.06693 0.269375 0)
(3.07727 0.248201 0)
(3.09731 0.22158 0)
(3.10546 0.20924 0)
(3.10332 0.205025 0)
(3.09585 0.200416 0)
(3.07991 0.204074 0)
(3.06322 0.230961 0)
(3.04543 0.253999 0)
(3.04116 0.262943 0)
(3.06569 0.248919 0)
(3.09836 0.221545 0)
(3.1092 0.193794 0)
(3.0981 0.174226 0)
(3.09977 0.17084 0)
(3.10488 0.170601 0)
(3.11001 0.169389 0)
(3.11587 0.16772 0)
(3.12495 0.165811 0)
(3.13164 0.161668 0)
(3.13028 0.157829 0)
(3.12745 0.156245 0)
(3.12754 0.14448 0)
(3.12828 0.128214 0)
(3.12329 0.119537 0)
(3.127 0.0985397 0)
(3.12957 0.0722464 0)
(3.13262 0.0630491 0)
(3.13554 0.0607525 0)
(3.13972 0.0556994 0)
(3.14465 0.0503755 0)
(3.14685 0.0491345 0)
(3.15455 0.045367 0)
(3.16157 0.0389501 0)
(3.16689 0.0317245 0)
(3.16973 0.0259292 0)
(3.1707 0.0222046 0)
(3.16973 0.0190721 0)
(3.16322 0.013352 0)
(3.15077 0.00243413 0)
(3.14638 -0.00599796 0)
(3.14746 -0.00924069 0)
(3.14817 -0.0127468 0)
(3.14839 -0.0173328 0)
(3.14789 -0.0226681 0)
(3.14534 -0.0293648 0)
(3.13886 -0.0385826 0)
(3.13235 -0.046759 0)
(3.13097 -0.0494316 0)
(3.13113 -0.0508601 0)
(3.13295 -0.0532427 0)
(3.13919 -0.0540307 0)
(3.15232 -0.0520823 0)
(3.16041 -0.0508421 0)
(3.15899 -0.051591 0)
(3.15611 -0.052412 0)
(3.15238 -0.0535926 0)
(3.13832 -0.0586432 0)
(3.11249 -0.0738874 0)
(3.09674 -0.0849199 0)
(3.09375 -0.0862058 0)
(3.09039 -0.0846961 0)
(3.09258 -0.077424 0)
(3.09797 -0.066037 0)
(3.09729 -0.0585606 0)
(3.09306 -0.0563185 0)
(3.08818 -0.0547523 0)
(3.08309 -0.0527328 0)
(3.07802 -0.0507087 0)
(3.07311 -0.0488733 0)
(3.06888 -0.0464259 0)
(3.06663 -0.042501 0)
(3.06937 -0.0339694 0)
(3.08036 -0.018698 0)
(3.08901 -0.00731706 0)
(3.08805 -0.0044486 0)
(3.08402 -0.00415556 0)
(2.84303 0.516359 0)
(2.85233 0.51136 0)
(2.86257 0.516339 0)
(2.86967 0.506693 0)
(2.86427 0.510465 0)
(2.82958 0.553812 0)
(2.75141 0.645629 0)
(2.65084 0.816344 0)
(2.6393 0.857007 0)
(2.64545 0.847443 0)
(2.64418 0.865781 0)
(2.6417 0.874916 0)
(2.63581 0.886333 0)
(2.64523 0.86765 0)
(2.65964 0.829237 0)
(2.68979 0.78257 0)
(2.71001 0.761039 0)
(2.72495 0.770749 0)
(2.74743 0.765234 0)
(2.76497 0.732167 0)
(2.76621 0.710965 0)
(2.76452 0.698875 0)
(2.77609 0.684082 0)
(2.79217 0.681821 0)
(2.80906 0.66621 0)
(2.824 0.645416 0)
(2.83655 0.631324 0)
(2.84012 0.620845 0)
(2.83059 0.596231 0)
(2.82847 0.570639 0)
(2.83451 0.565115 0)
(2.84698 0.54508 0)
(2.85224 0.537292 0)
(2.8651 0.531509 0)
(2.87952 0.517215 0)
(2.88234 0.502596 0)
(2.87477 0.492656 0)
(2.86826 0.458482 0)
(2.8898 0.434309 0)
(2.90473 0.429592 0)
(2.9208 0.417721 0)
(2.93803 0.412917 0)
(2.96765 0.402019 0)
(2.99252 0.389167 0)
(3.00621 0.381146 0)
(3.00322 0.369744 0)
(2.98426 0.361101 0)
(2.9741 0.362356 0)
(2.97883 0.352094 0)
(3.01103 0.339955 0)
(3.03157 0.334354 0)
(3.05622 0.314052 0)
(3.06412 0.288718 0)
(3.08765 0.26429 0)
(3.09821 0.253637 0)
(3.09635 0.250625 0)
(3.08624 0.247941 0)
(3.06115 0.250359 0)
(3.03799 0.27196 0)
(3.02562 0.289118 0)