/*--------------------------------*- C++ -*----------------------------------*\
  =========                 |
  \\      /  F ield         | OpenFOAM: The Open Source CFD Toolbox
   \\    /   O peration     | Website:  https://openfoam.org
    \\  /    A nd           | Version:  7
     \\/     M anipulation  |
\*---------------------------------------------------------------------------*/
FoamFile
{
    version     2.0;
    format      ascii;
    class       volScalarField;
    location    "2";
    object      p;
}
// * * * * * * * * * * * * * * * * * * * * * * * * * * * * * * * * * * * * * //

dimensions      [1 -1 -2 0 0 0 0];

internalField   nonuniform List<scalar> 
16512
(
2.3238
2.31457
2.30728
2.30253
2.30056
2.29357
2.28534
2.27682
2.26514
2.25156
2.24086
2.23327
2.22722
2.22056
2.21232
2.20334
2.19411
2.18456
2.1754
2.16697
2.15854
2.1498
2.1407
2.13125
2.12214
2.11378
2.10749
2.10184
2.09589
2.08975
2.08315
2.07511
2.06399
2.04924
2.03632
2.02816
2.02104
2.01498
2.00971
2.003
1.99513
1.98682
1.97872
1.9713
1.96565
1.96078
1.95595
1.95169
1.94706
1.94083
1.93347
1.92328
1.90776
1.89101
1.88161
1.87758
1.8752
1.8747
1.87933
1.88953
1.90414
1.92438
1.9554
1.99766
2.04143
2.09096
2.14603
2.19832
2.24906
2.29016
2.32307
2.35716
2.39373
2.423
2.43801
2.44164
2.43684
2.43701
2.4396
2.43586
2.4269
2.42087
2.41353
2.39908
2.38227
2.36677
2.35563
2.3527
2.35141
2.35439
2.37373
2.39725
2.39959
2.39034
2.3794
2.3592
2.3269
2.30142
2.29046
2.28485
2.28073
2.27551
2.26926
2.26026
2.24924
2.24033
2.23506
2.23128
2.22837
2.22531
2.22253
2.22145
2.22321
2.22933
2.23663
2.23631
2.23093
2.22133
2.20259
2.1726
2.14609
2.13558
2.1313
2.13206
2.14043
2.14196
2.13586
2.12684
2.12001
2.11639
2.11372
2.11127
2.1102
2.11057
2.10503
2.09689
2.08922
2.07904
2.06737
2.06065
2.05863
2.05874
2.05969
2.05773
2.05353
2.0441
2.02597
2.00255
1.98685
1.9774
1.9706
1.96679
1.96519
1.96612
1.97391
1.98886
1.99758
1.99682
1.9925
1.98356
1.96605
1.93688
1.91453
1.90606
1.90271
1.90114
1.90033
1.90001
1.90063
1.90125
1.90088
1.89971
1.89708
1.89234
1.88514
1.87229
1.85351
1.84059
1.83593
1.8338
1.83266
1.834
1.8413
1.84907
1.84858
1.84516
1.84127
1.83484
1.82116
1.79661
1.77487
1.76743
1.76466
1.76213
1.75887
1.75556
1.75305
1.75098
1.74938
1.7506
1.75756
1.76178
1.7595
1.75433
1.74644
1.73364
1.71686
1.70225
1.69305
1.68739
1.684
1.68296
1.68179
1.68093
1.68231
1.68791
1.69278
1.69013
1.68273
1.67115
1.6545
1.64139
1.63587
1.63241
1.62916
1.62648
1.62416
1.62167
1.61707
1.61051
1.6019
1.59572
1.5938
1.59275
1.59156
1.59046
1.58901
1.58744
1.58695
1.5895
1.5931
1.59191
1.58975
1.58588
1.57529
1.5534
1.5312
1.52317
1.52
1.51718
1.51451
1.5127
1.51138
1.51065
1.51111
1.51589
1.51826
1.51654
2.33492
2.3272
2.32163
2.31998
2.31522
2.3054
2.29415
2.28159
2.26768
2.25911
2.25255
2.24705
2.24183
2.23431
2.22526
2.21484
2.2037
2.19367
2.18527
2.17739
2.16915
2.15962
2.14867
2.13841
2.1312
2.12526
2.11974
2.11447
2.10867
2.10164
2.09311
2.08224
2.06785
2.0533
2.04442
2.0381
2.03266
2.02836
2.02333
2.01712
2.01026
2.0012
1.98821
1.97676
1.96982
1.96418
1.95982
1.95693
1.95219
1.94643
1.94084
1.93408
1.92419
1.90939
1.89036
1.87772
1.87288
1.87006
1.86782
1.8675
1.87008
1.87482
1.87332
1.86971
1.868
1.86885
1.8822
1.90133
1.93095
1.97931
2.04131
2.10439
2.16909
2.22794
2.27896
2.32685
2.36934
2.39761
2.40972
2.40633
2.40157
2.40422
2.40255
2.39128
2.38716
2.38319
2.37188
2.35618
2.34553
2.3406
2.34027
2.35277
2.37668
2.38584
2.3786
2.36774
2.34952
2.32118
2.29114
2.27419
2.26898
2.26755
2.26541
2.26086
2.25575
2.24977
2.242
2.23324
2.22584
2.22036
2.21539
2.21094
2.20753
2.20616
2.20966
2.21886
2.22337
2.21914
2.21177
2.19916
2.1775
2.15125
2.13598
2.13054
2.12943
2.12565
2.11932
2.1124
2.10317
2.0983
2.09595
2.09349
2.09244
2.09506
2.09792
2.09735
2.09241
2.087
2.07925
2.06711
2.05601
2.04831
2.04472
2.04493
2.0436
2.0404
2.03123
2.01561
1.99793
1.98443
1.97463
1.96772
1.96443
1.96397
1.96692
1.97311
1.98026
1.98351
1.98355
1.98029
1.97119
1.95328
1.92699
1.90805
1.90052
1.89775
1.89742
1.89921
1.89926
1.89868
1.89735
1.89559
1.89245
1.88747
1.88168
1.87466
1.86352
1.84761
1.8362
1.8322
1.83046
1.83011
1.83103
1.83373
1.83924
1.83975
1.83584
1.83203
1.82519
1.81162
1.7897
1.76991
1.76127
1.75733
1.75434
1.75105
1.74779
1.7452
1.74302
1.74153
1.74443
1.75391
1.75865
1.75581
1.7505
1.74317
1.73145
1.71542
1.69965
1.68786
1.68136
1.67892
1.6779
1.67702
1.67645
1.67668
1.67797
1.67999
1.67899
1.67298
1.66173
1.64527
1.63347
1.62812
1.62416
1.62102
1.61862
1.61643
1.61505
1.61296
1.6082
1.59946
1.59341
1.59157
1.59012
1.58872
1.58752
1.58474
1.58169
1.58034
1.58279
1.58447
1.58243
1.58026
1.57689
1.56701
1.54618
1.52645
1.51966
1.51648
1.51267
1.50906
1.50693
1.50565
1.50516
1.50677
1.51379
1.51668
2.34652
2.34037
2.33932
2.33862
2.33004
2.3193
2.30431
2.28432
2.27355
2.26703
2.26225
2.26088
2.25619
2.24798
2.23869
2.22671
2.21308
2.20272
2.19467
2.18678
2.17829
2.16799
2.1559
2.14669
2.1397
2.13361
2.12886
2.12468
2.11913
2.11262
2.10485
2.0935
2.07628
2.06105
2.05207
2.04515
2.03971
2.03596
2.03167
2.02601
2.01956
2.01137
1.9998
1.98858
1.98049
1.97365
1.96789
1.96356
1.95758
1.95052
1.94428
1.93883
1.93263
1.92405
1.91369
1.90158
1.8871
1.87616
1.87078
1.8669
1.86459
1.86576
1.86854
1.866
1.86263
1.85732
1.843
1.82312
1.81101
1.8108
1.81906
1.83919
1.87113
1.91677
1.97257
2.03398
2.10749
2.18573
2.2397
2.27592
2.30183
2.32058
2.3342
2.34777
2.36074
2.36582
2.36222
2.3569
2.34968
2.33418
2.32483
2.32258
2.33204
2.35775
2.37377
2.36852
2.35525
2.34078
2.31642
2.28166
2.26311
2.25651
2.25377
2.25293
2.25174
2.2505
2.24713
2.24021
2.22959
2.21875
2.21094
2.20549
2.20082
2.19671
2.19399
2.19377
2.20014
2.20929
2.20863
2.2047
2.19801
2.18375
2.16002
2.1376
2.1259
2.11767
2.1101
2.10225
2.09298
2.08653
2.08356
2.08068
2.07867
2.08209
2.09326
2.10236
2.10231
2.09807
2.09214
2.08071
2.06267
2.04595
2.03518
2.031
2.03008
2.02854
2.02667
2.02078
2.01016
1.99841
1.9875
1.97778
1.97018
1.96581
1.96376
1.96307
1.96441
1.96595
1.96816
1.96952
1.96627
1.95785
1.94346
1.92266
1.90606
1.89903
1.89456
1.89118
1.89052
1.89166
1.89085
1.88889
1.88603
1.8816
1.87722
1.87334
1.86874
1.86092
1.84879
1.83708
1.83146
1.82881
1.82692
1.82516
1.82505
1.82873
1.82875
1.82507
1.82201
1.81647
1.80285
1.78027
1.76145
1.75439
1.75105
1.74793
1.74487
1.74218
1.73995
1.73828
1.73832
1.74264
1.74997
1.75233
1.74912
1.74424
1.73709
1.72636
1.71208
1.69727
1.68454
1.67747
1.6751
1.6739
1.67244
1.67097
1.66918
1.66826
1.66917
1.66787
1.6621
1.64965
1.63408
1.62594
1.62122
1.61747
1.61558
1.61454
1.61406
1.61338
1.6109
1.60432
1.59508
1.59135
1.58919
1.58647
1.5835
1.58022
1.57675
1.57427
1.57444
1.57848
1.57849
1.57657
1.57472
1.57133
1.56026
1.53664
1.51751
1.51046
1.50678
1.50354
1.50142
1.50021
1.50012
1.50349
1.50961
1.51448
2.35786
2.35451
2.35792
2.35477
2.34443
2.33035
2.30973
2.29011
2.28103
2.27504
2.27137
2.27309
2.27016
2.26154
2.25207
2.23974
2.22514
2.21376
2.20495
2.19642
2.18729
2.17694
2.16448
2.15352
2.14637
2.14012
2.1349
2.13061
2.12594
2.12034
2.11326
2.10327
2.08903
2.07467
2.06469
2.05725
2.05138
2.04547
2.03848
2.03155
2.02466
2.01676
2.0067
1.99832
1.99162
1.98555
1.97999
1.97384
1.96616
1.9575
1.94874
1.94109
1.93502
1.92983
1.92425
1.91724
1.90758
1.89471
1.88441
1.87801
1.87252
1.86765
1.86535
1.86549
1.86148
1.85621
1.85038
1.84093
1.82556
1.80486
1.79029
1.78439
1.78267
1.78514
1.79372
1.80792
1.8295
1.86346
1.90798
1.96241
2.0329
2.09149
2.13454
2.17954
2.21815
2.24931
2.28749
2.31652
2.32414
2.31956
2.30217
2.29598
2.29679
2.30697
2.33157
2.3517
2.35202
2.34484
2.33396
2.31222
2.28051
2.25526
2.24598
2.24239
2.24301
2.24607
2.24291
2.23718
2.23023
2.22271
2.21488
2.20643
2.19818
2.19169
2.18694
2.18353
2.18144
2.18406
2.19632
2.20452
2.20158
2.19486
2.18226
2.16055
2.13308
2.11401
2.1038
2.09545
2.08669
2.08024
2.07633
2.07343
2.07134
2.07225
2.08612
2.1053
2.11026
2.10627
2.10062
2.09246
2.07739
2.05384
2.03195
2.02111
2.01766
2.01583
2.01426
2.01363
2.01036
2.00296
1.99511
1.98728
1.97911
1.97008
1.96197
1.95586
1.9524
1.95036
1.94944
1.95246
1.95654
1.95427
1.94935
1.9419
1.92925
1.91151
1.89516
1.88531
1.87967
1.87756
1.87634
1.87495
1.87371
1.87273
1.87174
1.87007
1.86815
1.86509
1.85999
1.85041
1.83692
1.82799
1.82386
1.82086
1.81831
1.81822
1.82281
1.82193
1.8187
1.81493
1.80762
1.79225
1.76911
1.75362
1.7496
1.74771
1.74545
1.74294
1.74053
1.7382
1.73575
1.73515
1.7401
1.746
1.74486
1.74036
1.73646
1.73107
1.72162
1.70785
1.69321
1.68082
1.67202
1.66794
1.66612
1.66425
1.6622
1.65984
1.65812
1.65906
1.6575
1.6509
1.63983
1.62944
1.62234
1.6181
1.61629
1.61495
1.61372
1.61236
1.61006
1.60512
1.59501
1.58572
1.58332
1.58152
1.57916
1.5763
1.57327
1.57081
1.57074
1.57461
1.57852
1.57747
1.57547
1.57223
1.56438
1.54634
1.52047
1.50719
1.5024
1.49958
1.4974
1.49604
1.49609
1.50177
1.51247
1.51213
2.37038
2.3721
2.37588
2.36827
2.35636
2.33873
2.31402
2.29824
2.29073
2.28489
2.28191
2.28418
2.28102
2.27248
2.26357
2.25271
2.24003
2.22869
2.21867
2.20874
2.19838
2.18777
2.17657
2.16557
2.15629
2.14803
2.14113
2.13428
2.12755
2.12193
2.11565
2.10762
2.09769
2.08814
2.08068
2.07405
2.06722
2.05885
2.04865
2.03831
2.02929
2.02045
2.01163
2.00559
2.00008
1.99462
1.98927
1.98285
1.97526
1.96639
1.95636
1.94631
1.93836
1.9332
1.9292
1.92514
1.9198
1.91055
1.89744
1.88878
1.88301
1.87724
1.87252
1.87071
1.86663
1.86097
1.85552
1.84963
1.84166
1.82816
1.80554
1.78571
1.7784
1.77494
1.7714
1.76873
1.76759
1.77024
1.7762
1.78623
1.80266
1.82533
1.85461
1.89756
1.94804
1.98795
2.03239
2.07984
2.12463
2.18019
2.2317
2.2435
2.23914
2.24113
2.25123
2.27902
2.31591
2.32938
2.32652
2.31874
2.30537
2.27811
2.25051
2.23767
2.232
2.23117
2.23339
2.2308
2.22636
2.221
2.21719
2.21242
2.2049
2.19537
2.18615
2.17931
2.17424
2.17073
2.17072
2.18128
2.19426
2.19294
2.1846
2.17259
2.15326
2.12711
2.10691
2.09487
2.08575
2.07831
2.07327
2.07001
2.06764
2.06682
2.07249
2.09042
2.10758
2.10799
2.10177
2.09458
2.0853
2.06845
2.04042
2.01719
2.00994
2.00706
2.00438
2.00158
1.9988
1.99806
1.99586
1.99076
1.98422
1.97571
1.96434
1.95262
1.94328
1.93853
1.93616
1.93503
1.93915
1.94875
1.95048
1.94751
1.94192
1.93048
1.90953
1.88741
1.87514
1.86871
1.86584
1.86366
1.86165
1.86009
1.86126
1.86552
1.86765
1.86652
1.86338
1.85863
1.84885
1.83305
1.82183
1.81677
1.81365
1.81124
1.81256
1.81843
1.81692
1.81302
1.80791
1.79904
1.78251
1.76029
1.74766
1.7433
1.74047
1.73749
1.73442
1.73171
1.72938
1.72783
1.73153
1.74158
1.74414
1.74047
1.73612
1.73249
1.72705
1.71626
1.69989
1.68327
1.67016
1.66224
1.65972
1.65791
1.65579
1.65343
1.6509
1.64978
1.65053
1.64812
1.64322
1.63611
1.62719
1.62071
1.61792
1.61623
1.61454
1.61254
1.60952
1.60401
1.59317
1.58161
1.57734
1.5759
1.57451
1.57262
1.57032
1.56845
1.56866
1.57195
1.57301
1.57061
1.56825
1.56586
1.56186
1.55135
1.52886
1.50707
1.49941
1.49668
1.49488
1.49356
1.49438
1.50121
1.50762
1.50625
2.38785
2.39332
2.39074
2.37974
2.36579
2.34435
2.32123
2.30903
2.30155
2.2961
2.29423
2.29433
2.28755
2.27935
2.27122
2.26184
2.2521
2.2428
2.23299
2.22188
2.20972
2.19809
2.18809
2.17983
2.17194
2.16344
2.15377
2.143
2.13184
2.12199
2.11426
2.10708
2.10187
2.097
2.09201
2.08707
2.08097
2.07326
2.06292
2.04941
2.03515
2.02442
2.01879
2.01373
2.00883
2.00393
1.99794
1.99092
1.98289
1.97341
1.96312
1.95379
1.94606
1.93975
1.93486
1.93096
1.92711
1.9217
1.91157
1.89802
1.88942
1.88336
1.87756
1.87354
1.87198
1.86629
1.86086
1.85688
1.85301
1.84725
1.83637
1.81731
1.79188
1.77482
1.76842
1.7646
1.76195
1.75992
1.75839
1.75803
1.76092
1.76634
1.77107
1.77214
1.77415
1.78
1.79177
1.81352
1.83922
1.87782
1.93166
1.99433
2.05597
2.09896
2.13061
2.15881
2.1892
2.23156
2.27784
2.29297
2.29377
2.28557
2.26883
2.2477
2.2267
2.21328
2.20708
2.20493
2.20819
2.21667
2.21783
2.21439
2.21013
2.20498
2.19838
2.18732
2.17436
2.16653
2.16164
2.15829
2.16179
2.17278
2.17608
2.16976
2.15919
2.14312
2.12237
2.10511
2.09442
2.08709
2.08017
2.07283
2.06727
2.06427
2.06401
2.06785
2.07749
2.08895
2.09263
2.08981
2.08375
2.07353
2.05677
2.02846
2.00735
2.00177
1.9984
1.99475
1.99232
1.99022
1.98994
1.98853
1.98377
1.97709
1.96719
1.95281
1.93973
1.9315
1.92739
1.92513
1.92394
1.92873
1.94231
1.94723
1.94319
1.93645
1.92511
1.90355
1.87891
1.86522
1.85904
1.8564
1.85441
1.8526
1.85243
1.85754
1.86592
1.86743
1.86419
1.85977
1.85307
1.84261
1.82689
1.81473
1.80845
1.80523
1.80288
1.80446
1.81039
1.80968
1.80594
1.80086
1.79135
1.77246
1.75058
1.74066
1.73698
1.73412
1.73078
1.72725
1.72441
1.72265
1.72435
1.73542
1.74564
1.74383
1.739
1.73456
1.72968
1.72097
1.70472
1.68427
1.66796
1.6583
1.65432
1.65254
1.65065
1.64842
1.64606
1.64416
1.64421
1.64468
1.64354
1.63975
1.63305
1.62472
1.61907
1.61689
1.61505
1.61259
1.60848
1.6015
1.5909
1.57931
1.57311
1.57019
1.56882
1.56757
1.5661
1.56564
1.56705
1.57024
1.56956
1.56644
1.56387
1.56118
1.5576
1.5507
1.53734
1.51658
1.5004
1.49537
1.49372
1.49357
1.49774
1.50353
1.50294
1.50012
2.40797
2.41004
2.40156
2.39006
2.37394
2.35228
2.33459
2.32378
2.31596
2.31035
2.30742
2.30143
2.29349
2.2857
2.27746
2.26927
2.26188
2.25433
2.24595
2.23529
2.22121
2.20719
2.19907
2.19289
2.18608
2.17851
2.16931
2.15845
2.14467
2.12694
2.11556
2.10978
2.10472
2.10064
2.09783
2.09419
2.08882
2.08223
2.07362
2.06065
2.04556
2.03522
2.02928
2.02449
2.01996
2.01479
2.00812
2.00011
1.9905
1.98012
1.97047
1.96195
1.95434
1.9474
1.94108
1.93569
1.93129
1.92708
1.92114
1.91059
1.89798
1.88926
1.88242
1.87608
1.87142
1.87005
1.8652
1.86049
1.85754
1.85424
1.84962
1.84178
1.82741
1.80305
1.77942
1.76856
1.76295
1.75878
1.75581
1.75323
1.75195
1.75291
1.7547
1.75658
1.75749
1.7563
1.7509
1.74078
1.72725
1.71791
1.72187
1.73894
1.77163
1.8143
1.86586
1.92219
1.97489
2.02699
2.08016
2.13989
2.21041
2.23844
2.24012
2.24041
2.22913
2.20181
2.18519
2.18141
2.18117
2.18646
2.19536
2.20376
2.21058
2.21054
2.20709
2.20108
2.1914
2.17711
2.16153
2.14992
2.14177
2.14075
2.14886
2.15691
2.15432
2.14488
2.131
2.11565
2.10073
2.09004
2.08282
2.07612
2.0684
2.06223
2.0589
2.05649
2.0546
2.05544
2.05963
2.06611
2.07129
2.07002
2.06243
2.0474
2.02181
2.0031
1.99586
1.99143
1.9892
1.9878
1.98642
1.98404
1.97949
1.97472
1.96785
1.95602
1.94059
1.92904
1.92274
1.91906
1.91674
1.91555
1.91834
1.92842
1.93665
1.93509
1.92835
1.9169
1.89651
1.8711
1.85696
1.85275
1.85088
1.84945
1.84937
1.85129
1.85313
1.85418
1.85327
1.8513
1.84917
1.84431
1.83428
1.81938
1.80659
1.79958
1.79624
1.79387
1.79487
1.80118
1.80321
1.79982
1.79348
1.78191
1.7608
1.74107
1.7335
1.73033
1.72749
1.72432
1.72163
1.72006
1.72109
1.72502
1.73218
1.73812
1.73734
1.73374
1.72959
1.72309
1.70902
1.68587
1.66541
1.65495
1.65013
1.64813
1.64656
1.64486
1.64282
1.64105
1.64181
1.64491
1.64552
1.64171
1.63648
1.62958
1.62031
1.6136
1.61225
1.61061
1.60702
1.60086
1.59281
1.58346
1.57494
1.56868
1.56454
1.56266
1.56112
1.56075
1.56253
1.56437
1.56326
1.56014
1.5572
1.55408
1.55061
1.54655
1.54049
1.53014
1.51302
1.49865
1.4945
1.49308
1.49365
1.49598
1.49641
1.49337
2.43091
2.42224
2.40973
2.39409
2.37492
2.36021
2.35151
2.34348
2.33793
2.33091
2.32023
2.30877
2.29896
2.28976
2.28208
2.27519
2.26872
2.26222
2.25481
2.24559
2.23256
2.21877
2.21048
2.20376
2.19679
2.18998
2.18281
2.17329
2.1584
2.13869
2.12463
2.11785
2.11252
2.10752
2.10351
2.09958
2.09303
2.08549
2.07633
2.06422
2.05255
2.04458
2.03918
2.03464
2.03026
2.02498
2.0182
2.00987
1.99955
1.98934
1.98098
1.9734
1.96598
1.95859
1.95092
1.94308
1.93625
1.93071
1.92542
1.9184
1.9073
1.89551
1.88651
1.87889
1.87273
1.86827
1.8665
1.86382
1.86015
1.85792
1.85603
1.8524
1.84648
1.83489
1.81306
1.78673
1.77106
1.76368
1.7585
1.75427
1.75125
1.75048
1.75077
1.74996
1.74916
1.749
1.74657
1.74184
1.73605
1.72424
1.70005
1.68601
1.68299
1.68399
1.69054
1.70611
1.73144
1.76515
1.80946
1.86567
1.93043
1.99112
2.04813
2.11914
2.16037
2.16407
2.16082
2.15833
2.15116
2.14882
2.15034
2.15866
2.17748
2.19561
2.20097
2.20135
2.19958
2.19319
2.17867
2.15465
2.1343
2.12328
2.12117
2.12748
2.13752
2.13635
2.12796
2.11591
2.10094
2.0866
2.07863
2.07439
2.06983
2.06305
2.05548
2.0502
2.04641
2.04295
2.04052
2.0411
2.04829
2.05831
2.05927
2.05291
2.03998
2.01995
2.00253
1.99511
1.99156
1.98859
1.9855
1.98183
1.97736
1.97236
1.9663
1.95765
1.9465
1.93371
1.9224
1.9158
1.91198
1.90924
1.9073
1.90751
1.91334
1.9222
1.92366
1.91805
1.90769
1.8916
1.87008
1.85544
1.85142
1.84983
1.84887
1.849
1.84905
1.84839
1.84616
1.84314
1.84015
1.8374
1.83399
1.82557
1.81103
1.79778
1.79097
1.78754
1.78485
1.7841
1.78867
1.79223
1.79022
1.7845
1.77329
1.75227
1.7338
1.72804
1.72579
1.72373
1.72156
1.72029
1.72043
1.72085
1.72197
1.726
1.73108
1.73046
1.72696
1.72156
1.71103
1.69053
1.66684
1.65303
1.64648
1.64429
1.64314
1.64209
1.64083
1.63955
1.64193
1.64716
1.64719
1.64268
1.63789
1.63225
1.62285
1.61065
1.60221
1.60066
1.59992
1.59808
1.5941
1.58974
1.58404
1.57469
1.56486
1.56055
1.55885
1.55752
1.55818
1.55873
1.55572
1.55176
1.54843
1.54612
1.54408
1.54243
1.54054
1.53665
1.52826
1.51303
1.49992
1.49581
1.49402
1.4915
1.48922
1.48501
2.44605
2.43327
2.41748
2.39468
2.37829
2.37073
2.3657
2.36476
2.36115
2.35197
2.33971
2.3225
2.30555
2.29569
2.28811
2.28127
2.27531
2.26864
2.26114
2.25286
2.24253
2.23106
2.2224
2.21552
2.20916
2.20227
2.19406
2.18366
2.16919
2.151
2.13799
2.1312
2.12567
2.12104
2.116
2.10861
2.10041
2.09158
2.08011
2.06637
2.05625
2.04923
2.04361
2.03888
2.03444
2.02945
2.02352
2.01645
2.00824
2.00005
1.99247
1.98547
1.97907
1.973
1.96649
1.95843
1.94818
1.93809
1.93057
1.92387
1.9155
1.90341
1.89087
1.8817
1.87474
1.86927
1.86501
1.86179
1.86106
1.86084
1.85924
1.85641
1.85249
1.84678
1.83693
1.8201
1.79664
1.77737
1.76726
1.7613
1.75646
1.75253
1.7501
1.75025
1.75028
1.74947
1.74659
1.74184
1.73654
1.7294
1.71741
1.69652
1.6806
1.67619
1.673
1.66979
1.66788
1.66801
1.67396
1.68907
1.71134
1.73866
1.77101
1.81482
1.86834
1.92023
1.96474
2.01479
2.05095
2.06164
2.07753
2.09919
2.11546
2.12988
2.15112
2.17767
2.18663
2.18567
2.1787
2.16599
2.14253
2.11796
2.10636
2.1048
2.10874
2.11703
2.11974
2.11359
2.10216
2.08732
2.07691
2.07265
2.06976
2.06617
2.05995
2.05095
2.0421
2.0377
2.0356
2.03456
2.03516
2.04251
2.05157
2.05084
2.04401
2.03304
2.016
2.00429
1.99829
1.99315
1.98835
1.9831
1.97732
1.97081
1.96393
1.95611
1.94791
1.93989
1.92977
1.91762
1.90909
1.90444
1.9011
1.89848
1.89692
1.89923
1.90643
1.90975
1.90695
1.8997
1.88874
1.87223
1.85769
1.85262
1.85023
1.84786
1.84572
1.844
1.84177
1.83886
1.83582
1.83265
1.82926
1.8251
1.81636
1.80127
1.78917
1.7834
1.78008
1.77766
1.77697
1.78138
1.7833
1.78238
1.7782
1.76874
1.74988
1.73185
1.72649
1.7243
1.72304
1.72346
1.7208
1.71685
1.7138
1.71232
1.71412
1.71821
1.71854
1.7155
1.70907
1.69619
1.67522
1.65432
1.64324
1.6401
1.63933
1.63872
1.63829
1.64008
1.6452
1.65027
1.64882
1.64331
1.63784
1.63234
1.62498
1.61325
1.6005
1.59248
1.59054
1.58974
1.59062
1.59034
1.58838
1.58361
1.57336
1.56153
1.55666
1.55475
1.55297
1.55185
1.54828
1.54307
1.53975
1.53875
1.53832
1.53759
1.53746
1.53658
1.53409
1.52758
1.51326
1.49762
1.49044
1.48696
1.48317
1.4771
2.46099
2.44435
2.41792
2.39569
2.38597
2.37948
2.37651
2.38138
2.38128
2.37199
2.35931
2.34018
2.31941
2.30641
2.29795
2.29039
2.28249
2.27436
2.26625
2.25764
2.24841
2.23971
2.23339
2.22778
2.22154
2.2143
2.20585
2.1949
2.18011
2.16359
2.15067
2.14288
2.13711
2.13252
2.12636
2.11876
2.11093
2.10174
2.09027
2.07936
2.07018
2.06134
2.05276
2.04432
2.03615
2.02811
2.02064
2.0144
2.00874
2.00294
1.99681
1.99141
1.98702
1.98297
1.97855
1.97298
1.96517
1.95454
1.94359
1.935
1.92677
1.91572
1.90032
1.88595
1.87685
1.87073
1.86611
1.86241
1.85937
1.85717
1.85532
1.85379
1.8522
1.84942
1.84504
1.8381
1.82574
1.80697
1.7864
1.77172
1.76325
1.75734
1.75299
1.74921
1.74542
1.7425
1.74304
1.74326
1.73956
1.73489
1.72834
1.71704
1.69882
1.67935
1.67073
1.66679
1.66427
1.66283
1.66131
1.66057
1.66296
1.66815
1.67363
1.67924
1.68777
1.70115
1.71973
1.74703
1.78006
1.81693
1.86343
1.923
1.96595
1.9962
2.03028
2.06611
2.10176
2.13352
2.14861
2.14831
2.139
2.11919
2.09788
2.09251
2.09022
2.08944
2.09607
2.10015
2.09733
2.09106
2.08336
2.07794
2.07538
2.07324
2.0686
2.06121
2.05064
2.03952
2.03383
2.03188
2.03087
2.03196
2.03704
2.04144
2.03967
2.03314
2.02168
2.0099
1.99919
1.99189
1.98701
1.98263
1.97725
1.96868
1.95769
1.94949
1.94424
1.93884
1.93219
1.92397
1.91221
1.90204
1.89654
1.8931
1.89026
1.8882
1.88909
1.89433
1.89811
1.89775
1.89304
1.88416
1.86945
1.85482
1.84841
1.84501
1.84258
1.84071
1.83837
1.83563
1.83281
1.83008
1.82724
1.82357
1.81772
1.80673
1.79189
1.78194
1.77669
1.77371
1.77188
1.77286
1.77781
1.77785
1.77706
1.77436
1.76712
1.74962
1.73188
1.72656
1.72464
1.72222
1.71799
1.71336
1.7078
1.70268
1.70034
1.69946
1.70155
1.70456
1.70355
1.69842
1.68789
1.66961
1.64896
1.63875
1.6357
1.63469
1.63411
1.63421
1.63616
1.63953
1.6416
1.63932
1.6352
1.6312
1.62623
1.61784
1.60382
1.59112
1.58565
1.58444
1.58412
1.58666
1.58688
1.58463
1.58005
1.56923
1.55634
1.55083
1.54855
1.54623
1.54253
1.53731
1.53342
1.53185
1.53196
1.53418
1.53526
1.53569
1.53499
1.53255
1.52518
1.50795
1.49034
1.48154
1.47633
1.47126
2.46984
2.4495
2.42291
2.40527
2.39703
2.39116
2.39013
2.39622
2.39441
2.38519
2.37401
2.35682
2.33711
2.32385
2.31317
2.30253
2.29229
2.28275
2.27311
2.26235
2.25344
2.24713
2.24138
2.23611
2.2303
2.22377
2.21631
2.20625
2.19249
2.17839
2.16621
2.15622
2.14847
2.14072
2.13251
2.12441
2.11652
2.10704
2.09751
2.09106
2.08509
2.07841
2.07071
2.06151
2.04949
2.03497
2.02276
2.01492
2.00833
2.00139
1.99411
1.98934
1.98643
1.98471
1.98275
1.97975
1.97523
1.96871
1.96087
1.95292
1.94476
1.93431
1.91901
1.90106
1.88719
1.87728
1.8691
1.86315
1.85933
1.85685
1.85628
1.85575
1.85432
1.85268
1.84941
1.84502
1.83932
1.83072
1.8176
1.79779
1.77555
1.76195
1.7556
1.75111
1.74718
1.74338
1.7399
1.73816
1.73802
1.73448
1.73014
1.72484
1.71567
1.70048
1.68259
1.67202
1.66689
1.66344
1.66074
1.65866
1.65799
1.65789
1.65844
1.65909
1.65968
1.66083
1.65998
1.65676
1.65146
1.64527
1.64999
1.6665
1.69895
1.7435
1.79521
1.84442
1.89241
1.94318
1.98698
2.03141
2.07959
2.09056
2.08458
2.07281
2.06539
2.06376
2.06773
2.08253
2.09405
2.09746
2.09749
2.09387
2.0865
2.08191
2.07648
2.06825
2.05899
2.04942
2.0414
2.03386
2.0271
2.02298
2.02144
2.02214
2.02363
2.02024
2.01586
2.00829
1.99591
1.98413
1.97671
1.97202
1.96552
1.95551
1.94341
1.93537
1.93171
1.92909
1.92744
1.92329
1.91596
1.90557
1.89505
1.89018
1.88733
1.88509
1.8845
1.88756
1.89122
1.89145
1.88888
1.88425
1.87475
1.85835
1.84591
1.84221
1.84037
1.8381
1.83556
1.83313
1.83064
1.82821
1.82597
1.82291
1.81828
1.81067
1.79876
1.78508
1.77559
1.77064
1.76841
1.76752
1.77156
1.77505
1.7748
1.77396
1.77084
1.7631
1.74545
1.729
1.7233
1.72012
1.71619
1.71089
1.70428
1.69622
1.68987
1.68743
1.68605
1.68663
1.69182
1.69456
1.69115
1.68411
1.67169
1.65247
1.63777
1.63374
1.63241
1.63137
1.63061
1.63044
1.63037
1.63108
1.6318
1.62989
1.62628
1.62095
1.6117
1.59674
1.58522
1.58142
1.58054
1.58058
1.5833
1.58308
1.58021
1.57412
1.56187
1.54887
1.54332
1.5409
1.53786
1.53387
1.53016
1.52784
1.52737
1.53112
1.5339
1.53418
1.53395
1.53231
1.5283
1.51628
1.49437
1.47905
1.47221
1.46753
2.47788
2.44827
2.42783
2.41905
2.41173
2.40683
2.40769
2.40954
2.40213
2.39282
2.38217
2.36791
2.35413
2.34256
2.33099
2.31814
2.30496
2.29283
2.28041
2.2693
2.26109
2.2542
2.24842
2.24302
2.23657
2.22953
2.22188
2.21267
2.20163
2.19183
2.18416
2.17652
2.16674
2.15372
2.13993
2.1277
2.11727
2.10761
2.1015
2.09706
2.09282
2.0883
2.0831
2.07622
2.06561
2.04939
2.03226
2.0225
2.01585
2.00848
1.99986
1.99196
1.98619
1.98191
1.97867
1.97671
1.97544
1.97305
1.96891
1.96426
1.95913
1.95195
1.94149
1.92539
1.90532
1.88887
1.87808
1.86954
1.86207
1.85708
1.85344
1.8497
1.84628
1.8442
1.84475
1.84504
1.84313
1.83958
1.83438
1.82502
1.80756
1.78144
1.76191
1.75397
1.74891
1.74457
1.74019
1.73623
1.73416
1.73353
1.7303
1.72688
1.72342
1.71672
1.70362
1.68556
1.67447
1.67006
1.66654
1.66305
1.65939
1.65599
1.65386
1.65324
1.65297
1.65127
1.6505
1.65069
1.64942
1.64389
1.62234
1.60123
1.59636
1.59796
1.60663
1.62448
1.65225
1.68879
1.73098
1.77936
1.83181
1.88386
1.93309
1.96932
2.00238
2.01988
2.0311
2.04944
2.08011
2.09238
2.09292
2.09214
2.08733
2.0784
2.06917
2.06306
2.05785
2.05203
2.0459
2.03819
2.02642
2.01312
2.00644
2.00422
2.0035
2.00395
2.00305
1.99822
1.99013
1.97898
1.96856
1.9604
1.95257
1.94391
1.93447
1.92785
1.92347
1.919
1.91494
1.9134
1.9125
1.9082
1.90133
1.8928
1.88793
1.8851
1.88347
1.88542
1.88916
1.88746
1.88346
1.87855
1.8713
1.85851
1.84441
1.83654
1.8333
1.83251
1.83172
1.83044
1.82921
1.82746
1.82494
1.82175
1.81725
1.81124
1.80391
1.79389
1.78025
1.7693
1.76512
1.76408
1.76498
1.76884
1.76921
1.769
1.7682
1.76462
1.75543
1.73795
1.72116
1.71356
1.71024
1.70677
1.70164
1.69319
1.68381
1.67929
1.67763
1.67615
1.67592
1.68181
1.68865
1.68704
1.68285
1.67349
1.65539
1.63741
1.63116
1.6289
1.62683
1.62446
1.62193
1.61987
1.61947
1.62183
1.62363
1.62135
1.61662
1.60821
1.59392
1.58187
1.57787
1.57691
1.57654
1.57622
1.57482
1.57258
1.56542
1.55172
1.54109
1.53715
1.53475
1.53165
1.52816
1.52587
1.52611
1.53006
1.53329
1.53174
1.53056
1.5295
1.52675
1.51916
1.50148
1.48006
1.4707
1.46605
2.48199
2.45706
2.44128
2.43213
2.42556
2.42206
2.42257
2.4172
2.40802
2.3983
2.38706
2.37652
2.36808
2.35933
2.34953
2.33761
2.32155
2.30349
2.28902
2.27855
2.27041
2.26386
2.25773
2.25083
2.24296
2.23431
2.22525
2.21609
2.20877
2.20322
2.19805
2.19233
2.18475
2.17359
2.15724
2.13741
2.12051
2.11216
2.10627
2.1012
2.09748
2.09431
2.08963
2.08386
2.07579
2.06274
2.04681
2.03637
2.02916
2.02123
2.01229
2.00334
1.99457
1.98599
1.97879
1.97384
1.97044
1.96804
1.96725
1.96744
1.96549
1.96089
1.95464
1.946
1.93344
1.91526
1.8937
1.87587
1.86519
1.85857
1.85345
1.84931
1.84566
1.84293
1.84264
1.84629
1.84684
1.84406
1.84111
1.83697
1.82944
1.8142
1.78782
1.76241
1.75169
1.7464
1.74183
1.73746
1.73403
1.7332
1.7314
1.72676
1.72332
1.72057
1.71569
1.70621
1.69102
1.67845
1.67332
1.67007
1.66643
1.66204
1.65773
1.65447
1.65312
1.65061
1.6477
1.64677
1.64606
1.643
1.63613
1.62108
1.59838
1.5839
1.579
1.57768
1.5775
1.57971
1.58633
1.59989
1.61945
1.6445
1.68029
1.72087
1.76358
1.8098
1.85603
1.89432
1.93391
1.97624
2.01457
2.04477
2.05293
2.05138
2.03939
2.03643
2.03804
2.03576
2.03179
2.02872
2.02078
2.00692
1.99764
1.99488
1.99439
1.99597
2.00021
1.99734
1.9898
1.98084
1.96882
1.95542
1.94425
1.93598
1.92965
1.92484
1.9207
1.91568
1.90954
1.9041
1.90146
1.90237
1.90166
1.89853
1.89307
1.8885
1.88619
1.88548
1.8867
1.88441
1.87993
1.8751
1.86883
1.85942
1.84659
1.83472
1.82477
1.817
1.81458
1.81377
1.81435
1.81555
1.8148
1.81257
1.80955
1.80709
1.8031
1.79603
1.7862
1.77318
1.7634
1.76046
1.76005
1.7599
1.75901
1.75848
1.75807
1.75705
1.7545
1.74558
1.72736
1.71137
1.70399
1.70064
1.69644
1.68989
1.68163
1.67557
1.67298
1.67159
1.67055
1.67085
1.67731
1.68597
1.68513
1.67965
1.67067
1.65451
1.63584
1.62694
1.62298
1.61976
1.61711
1.61472
1.61273
1.61174
1.61426
1.61851
1.61728
1.61296
1.60501
1.59083
1.57799
1.57382
1.57226
1.57003
1.5671
1.5649
1.5627
1.55595
1.5436
1.53503
1.53181
1.52918
1.52592
1.52403
1.52608
1.53015
1.52965
1.52718
1.52493
1.52311
1.52101
1.51742
1.50891
1.49137
1.47446
1.46696
2.47922
2.46558
2.45812
2.45046
2.44618
2.4432
2.43406
2.42323
2.41289
2.39987
2.39033
2.38362
2.37742
2.37146
2.36451
2.3553
2.34084
2.31881
2.30061
2.29067
2.28249
2.27496
2.26767
2.26001
2.25199
2.24163
2.22833
2.22054
2.21534
2.21011
2.20568
2.20229
2.19692
2.1883
2.17388
2.15321
2.13472
2.12209
2.11452
2.10933
2.10417
2.09855
2.09288
2.08695
2.07954
2.06852
2.05741
2.04967
2.04259
2.03456
2.02574
2.01688
2.008
1.99808
1.98648
1.97645
1.97061
1.96698
1.96378
1.96115
1.96133
1.96182
1.95831
1.95271
1.94581
1.93645
1.92331
1.90417
1.88153
1.86506
1.85631
1.85035
1.84577
1.84169
1.83828
1.83715
1.84324
1.84767
1.84438
1.84049
1.83645
1.82987
1.81841
1.7966
1.76767
1.75197
1.74551
1.74039
1.73559
1.73102
1.7284
1.72717
1.72317
1.72019
1.71845
1.7154
1.70802
1.69205
1.67688
1.6711
1.66743
1.66375
1.66033
1.65882
1.65973
1.65706
1.65262
1.6493
1.6467
1.64409
1.64103
1.63548
1.6203
1.59268
1.57753
1.57375
1.57183
1.56983
1.56757
1.56681
1.5691
1.57215
1.5748
1.5783
1.58568
1.59937
1.61983
1.65082
1.6877
1.73233
1.78399
1.83754
1.88725
1.92682
1.95194
1.97019
1.98181
1.98079
1.97635
1.98025
1.99108
1.99393
1.99269
1.99085
1.99219
1.99587
2.00181
2.00514
1.99986
1.99255
1.98282
1.96733
1.94838
1.93469
1.93032
1.92729
1.92305
1.91728
1.90971
1.90178
1.89643
1.89385
1.89452
1.89663
1.89422
1.88948
1.8871
1.88573
1.88455
1.88237
1.87965
1.87663
1.87262
1.86632
1.8562
1.84159
1.82584
1.81358
1.80633
1.80398
1.80254
1.80148
1.80062
1.79996
1.79869
1.7969
1.79446
1.79136
1.78701
1.77921
1.76676
1.75787
1.75484
1.75368
1.75249
1.75196
1.75128
1.75011
1.74825
1.74454
1.73444
1.71547
1.70027
1.69339
1.69068
1.68706
1.68128
1.67505
1.67113
1.66928
1.66816
1.66742
1.66729
1.66984
1.67527
1.67717
1.67325
1.66459
1.65037
1.63244
1.62179
1.61676
1.61326
1.6109
1.60888
1.60716
1.60623
1.60887
1.61379
1.61281
1.60847
1.60048
1.58592
1.57355
1.56842
1.56538
1.56199
1.55871
1.55632
1.55414
1.54813
1.53758
1.52973
1.52631
1.5233
1.5203
1.52099
1.5252
1.52607
1.52376
1.52133
1.51931
1.51734
1.5148
1.51092
1.50214
1.48594
1.46899
2.49223
2.48213
2.47588
2.47352
2.46859
2.45822
2.44569
2.43108
2.41397
2.40189
2.39451
2.38797
2.38304
2.37983
2.37387
2.36619
2.35549
2.33763
2.31878
2.30668
2.29709
2.28745
2.27795
2.26911
2.25958
2.2479
2.23559
2.22776
2.22247
2.21748
2.21322
2.20933
2.20299
2.19503
2.18383
2.16723
2.15005
2.13646
2.1266
2.11885
2.11139
2.10433
2.0974
2.08933
2.07858
2.06893
2.06293
2.05776
2.05195
2.04492
2.03759
2.02952
2.02017
2.00984
1.99897
1.98758
1.97707
1.97012
1.96596
1.96232
1.95888
1.95753
1.95776
1.95415
1.94945
1.94426
1.93762
1.92752
1.91094
1.88693
1.86552
1.85434
1.84775
1.84279
1.83866
1.83519
1.83284
1.83409
1.83777
1.83694
1.83449
1.83238
1.82868
1.82035
1.80248
1.77316
1.75137
1.74292
1.7373
1.73251
1.72946
1.73057
1.72872
1.72467
1.72245
1.72013
1.71631
1.70849
1.69339
1.67865
1.67297
1.66948
1.66558
1.66144