/*--------------------------------*- C++ -*----------------------------------*\
  =========                 |
  \\      /  F ield         | OpenFOAM: The Open Source CFD Toolbox
   \\    /   O peration     | Website:  https://openfoam.org
    \\  /    A nd           | Version:  7
     \\/     M anipulation  |
\*---------------------------------------------------------------------------*/
FoamFile
{
    version     2.0;
    format      ascii;
    class       volScalarField;
    location    "1.2";
    object      rho;
}
// * * * * * * * * * * * * * * * * * * * * * * * * * * * * * * * * * * * * * //

dimensions      [1 -3 0 0 0 0 0];

internalField   nonuniform List<scalar> 
4128
(
2.61606
2.53059
2.459
2.40482
2.34461
2.28104
2.215
2.16715
2.11399
2.05868
1.99263
1.94146
1.90422
1.86209
1.81269
1.76157
1.73446
1.70672
1.6654
1.61726
1.59932
1.58016
1.55117
1.51702
1.48865
1.45549
1.41432
1.36984
1.35494
1.35068
1.34223
1.327
1.30946
1.29702
1.28091
1.24797
1.20169
1.16503
1.15739
1.15628
1.15285
1.14176
1.13162
1.12346
1.11261
1.09489
1.06494
1.02977
1.01829
1.01297
1.00362
0.997994
0.993865
0.988023
0.980533
0.972975
0.965457
0.951002
0.926875
0.919639
0.919116
0.920082
0.927198
0.950962
0.992155
1.07025
1.20036
1.37251
1.55072
1.67996
1.76834
1.82754
1.89981
1.94462
1.95493
1.95802
1.95833
1.97571
2.00391
2.03085
2.08018
2.14225
2.18478
2.18554
2.16408
2.12559
2.07737
2.04593
2.03313
2.02407
2.01999
2.02905
2.04671
2.04328
2.02651
1.99653
1.96137
1.94628
1.94174
1.9371
1.92588
1.91509
1.90579
1.89543
1.88427
1.87727
1.87315
1.86889
1.86664
1.86643
1.87155
1.87563
1.87107
1.858
1.83058
1.78937
1.76142
1.74954
1.74228
1.73423
1.72429
1.71405
1.70361
1.68005
1.64681
1.61785
1.60611
1.6019
1.60078
2.69108
2.60481
2.54552
2.48743
2.4271
2.35821
2.30036
2.24971
2.19065
2.13029
2.05973
2.01606
1.97378
1.92552
1.87424
1.82282
1.79851
1.77046
1.72817
1.68189
1.66193
1.63958
1.6075
1.56991
1.53422
1.49675
1.45936
1.42501
1.41474
1.40922
1.39644
1.3792
1.35883
1.34007
1.31366
1.27226
1.23627
1.21238
1.20524
1.20376
1.19917
1.18711
1.17626
1.16614
1.15165
1.12658
1.08637
1.06156
1.05878
1.05531
1.04512
1.03794
1.03287
1.02567
1.01556
1.00337
0.988993
0.969488
0.946439
0.940913
0.942955
0.954399
0.987648
1.07075
1.19352
1.34024
1.47
1.56669
1.61654
1.65964
1.73193
1.80643
1.87361
1.91595
1.94532
1.9803
2.01362
2.05827
2.09472
2.13765
2.18982
2.23025
2.23658
2.2194
2.1811
2.12853
2.07716
2.05426
2.04568
2.04012
2.04328
2.06661
2.06984
2.05726
2.03305
1.99642
1.97819
1.97192
1.96982
1.96249
1.95206
1.94436
1.93423
1.91946
1.90304
1.89019
1.88287
1.87856
1.87686
1.87638
1.88132
1.88666
1.88303
1.87261
1.85173
1.82232
1.79851
1.78102
1.76479
1.75019
1.73664
1.72118
1.69463
1.66152
1.63406
1.62488
1.62144
1.62514
1.6238
2.76501
2.68487
2.63391
2.57414
2.51083
2.43614
2.38279
2.32414
2.26524
2.20062
2.13325
2.09157
2.04133
1.99202
1.93958
1.88914
1.86613
1.83732
1.79127
1.74572
1.72444
1.69915
1.6644
1.62061
1.57724
1.54258
1.51291
1.48625
1.4782
1.46805
1.44981
1.42993
1.40549
1.37739
1.34025
1.30239
1.28094
1.26279
1.2545
1.25237
1.24626
1.23249
1.21951
1.2063
1.18623
1.15
1.10977
1.10142
1.10115
1.09784
1.08729
1.07909
1.07321
1.06501
1.05224
1.03424
1.01029
0.986791
0.979539
0.986967
1.01745
1.09984
1.23391
1.38461
1.51275
1.61563
1.62952
1.61916
1.62337
1.6508
1.69403
1.75393
1.79598
1.83228
1.89134
1.96756
2.03434
2.09163
2.13756
2.1909
2.24843
2.27406
2.26881
2.24421
2.19795
2.13951
2.09353
2.07835
2.07254
2.07095
2.0811
2.08894
2.07705
2.05839
2.03083
2.00863
2.00068
1.99818
1.99416
1.98402
1.97622
1.96819
1.95553
1.93759
1.91659
1.89956
1.89306
1.89153
1.89053
1.89063
1.89516
1.89391
1.88884
1.88021
1.86784
1.85218
1.8327
1.81078
1.78812
1.76621
1.74191
1.71051
1.67952
1.65205
1.64338
1.63977
1.63961
1.64696
1.6352
2.84206
2.7683
2.72052
2.66301
2.58856
2.51532
2.45797
2.39342
2.33787
2.26635
2.21142
2.16864
2.11123
2.06233
2.00556
1.95904
1.93645
1.90325
1.85548
1.80814
1.78214
1.7565
1.71773
1.67093
1.62597
1.59764
1.56998
1.55013
1.54274
1.52681
1.50267
1.47893
1.44768
1.4067
1.3692
1.34694
1.33236
1.315
1.30641
1.30243
1.29295
1.27615
1.26011
1.24211
1.21486
1.17238
1.14633
1.14379
1.14437
1.14034
1.12904
1.12067
1.11394
1.10379
1.08789
1.06522
1.03917
1.0407
1.06966
1.14964
1.29224
1.44986
1.58237
1.68346
1.73353
1.71982
1.67787
1.66009
1.65275
1.66444
1.68211
1.6951
1.71123
1.74421
1.80649
1.89691
1.98978
2.06117
2.1216
2.16918
2.22601
2.25707
2.2527
2.23485
2.1972
2.16304
2.13918
2.12437
2.11848
2.11746
2.11514
2.10311
2.08497
2.05564
2.02816
2.02017
2.01548
2.01561
2.00867
1.99992
1.99205
1.98229
1.96767
1.94639
1.92857
1.9145
1.90718
1.90554
1.90597
1.90906
1.90847
1.90186
1.89481
1.89065
1.88417
1.87193
1.855
1.83506
1.80997
1.78079
1.74734
1.70357
1.66773
1.66139
1.65911
1.66044
1.66015
1.65571
1.64205
2.94786
2.86168
2.8053
2.74216
2.65702
2.5898
2.52511
2.46414
2.40623
2.33382
2.29315
2.24335
2.18406
2.13566
2.07162
2.03446
2.00772
1.96766
1.91862
1.86894
1.83901
1.81388
1.7715
1.72062
1.68068
1.65853
1.63129
1.61684
1.60695
1.58438
1.5541
1.52362
1.48196
1.43506
1.41204
1.40025
1.38608
1.36775
1.35942
1.35292
1.33981
1.31917
1.29749
1.27131
1.23943
1.20326
1.18902
1.18749
1.18818
1.18286
1.1697
1.16104
1.15209
1.14233
1.12262
1.11498
1.13813
1.21507
1.35915
1.52563
1.65707
1.74112
1.81526
1.8232
1.80358
1.74825
1.71523
1.70343
1.6973
1.68473
1.68528
1.69949
1.74598
1.81562
1.89794
1.96565
2.02235
2.05748
2.08332
2.11026
2.13361
2.14465
2.14144
2.14442
2.16072
2.16087
2.15974
2.16736
2.16492
2.14922
2.13149
2.11046
2.08319
2.05184
2.03639
2.03012
2.02807
2.02764
2.02034
2.01242
2.00557
1.99335
1.96619
1.94649
1.93927
1.93066
1.92175
1.91825
1.91885
1.92052
1.91919
1.91248
1.90642
1.90074
1.89193
1.87942
1.86484
1.84736
1.82283
1.78831
1.74548
1.70106
1.68048
1.67448
1.67099
1.6713
1.67018
1.66299
1.63832
3.06222
2.97286
2.89817
2.81185
2.71787
2.6549
2.5909
2.53807
2.4696
2.41078
2.37477
2.31572
2.26169
2.20779
2.14107
2.11236
2.07779
2.03118
1.98235
1.93334
1.89712
1.8649
1.82566
1.77645
1.74214
1.72072
1.69286
1.68174
1.66891
1.63911
1.60151
1.5616
1.51069
1.47413
1.46592
1.45654
1.44073
1.42234
1.41441
1.40368
1.38518
1.35978
1.3295
1.29616
1.27098
1.24625
1.23366
1.23245
1.23136
1.22531
1.2118
1.20357
1.19742
1.19991
1.23228
1.30433
1.44037
1.61884
1.75912
1.83048
1.88071
1.90555
1.89895
1.87159
1.81682
1.78019
1.76556
1.75824
1.75328
1.75032
1.76314
1.80327
1.86797
1.93044
1.97885
2.0094
2.04364
2.06191
2.05299
2.02895
2.00777
2.00559
2.01235
2.02719
2.06151
2.11084
2.14586
2.17672
2.1814
2.16603
2.14022
2.11392
2.07897
2.05745
2.04829
2.04336
2.04351
2.04368
2.03553
2.02453
2.0079
1.9867
1.96305
1.95475
1.94961
1.94413
1.93807
1.93117
1.92425
1.92071
1.91961
1.91747
1.914
1.9082
1.89869
1.8862
1.86827
1.84795
1.82397
1.791
1.74667
1.71214
1.69941
1.69297
1.68731
1.67831
1.66703
1.65981
1.63463
3.10526
3.06519
2.99261
2.89041
2.78587
2.71883
2.66209
2.60776
2.53365
2.49522
2.45397
2.39098
2.34194
2.27395
2.21554
2.18924
2.14517
2.0927
2.04587
1.9978
1.95324
1.92026
1.88391
1.83608
1.80786
1.78221
1.75565
1.74712
1.72799
1.68986
1.64426
1.59428
1.54589
1.52978
1.52449
1.51386
1.49573
1.47613
1.46661
1.45234
1.42847
1.39578
1.35444
1.32576
1.31286
1.29421
1.27844
1.27732
1.27551
1.27189
1.26741
1.2777
1.31992
1.41364
1.55619
1.71666
1.85149
1.9279
1.96952
1.99605
1.9931
1.97541
1.92967
1.86996
1.84044
1.8297
1.82734
1.82639
1.83661
1.85899
1.90173
1.96202
2.00517
2.03333
2.05824
2.07865
2.08878
2.08125
2.06302
2.02414
1.96091
1.93767
1.93595
1.93998
1.96344
2.01343
2.08622
2.14015
2.14717
2.13658
2.1074
2.08016
2.07185
2.06109
2.04896
2.05003
2.05406
2.04595
2.03277
2.01573
1.99437
1.97649
1.97191
1.96923
1.96428
1.95808
1.94936
1.93812
1.92912
1.92408
1.92403
1.9236
1.91955
1.91224
1.90019
1.88738
1.87725
1.85978
1.83175
1.79566
1.75946
1.73547
1.71827
1.70288
1.69067
1.67857
1.66254
1.64652
1.62559
3.08861
3.09335
3.06144
2.97714
2.86648
2.79332
2.74071
2.67058
2.608
2.58004
2.52928
2.4712
2.41782
2.3354
2.29125
2.26056
2.20678
2.15344
2.11028
2.05893
2.00678
1.98226
1.94751
1.90034
1.87466
1.84367
1.8191
1.80875
1.78157
1.73505
1.68287
1.62931
1.59819
1.59204
1.58495
1.57098
1.55075
1.52973
1.51657
1.49851
1.46863
1.42512
1.38044
1.36708
1.36042
1.3435
1.32502
1.32472
1.3342
1.35788
1.42357
1.54999
1.69025
1.85712
1.96944
2.02403
2.06312
2.0887
2.10047
2.08639
2.05282
1.99348
1.92576
1.89911
1.8926
1.89156
1.90313
1.92976
1.97154
2.0249
2.07853
2.1094
2.1115
2.11707
2.13093
2.15002
2.14494
2.12318
2.08979
2.03074
1.95285
1.92625
1.92378
1.92448
1.93437
1.96003
2.00033
2.03268
2.03883
2.03355
2.0189
2.02325
2.03024
2.03397
2.04451
2.06256
2.06485
2.05561
2.03672
2.00545
1.98353
1.97723
1.97753
1.97979
1.97428
1.96705
1.95868
1.9456
1.93103
1.92349
1.92253
1.92049
1.91737
1.91631
1.90897
1.89267
1.87151
1.84682
1.81578
1.78471
1.76259
1.74439
1.7287
1.71528
1.70241
1.68882
1.67002
1.64469
1.62214
2.91527
3.07747
3.08073
3.04788
2.9656
2.88903
2.8286
2.73719
2.68953
2.65981
2.60481
2.55229
2.48414
2.39778
2.36357
2.3252
2.2656
2.21652
2.1742
2.11376
2.07072
2.05233
2.01163
1.96675
1.94075
1.90333
1.88087
1.86609
1.82965
1.77717
1.72222
1.67485
1.66054
1.65641
1.64589
1.62742
1.60439
1.58108
1.56363
1.54096
1.50349
1.45053
1.41897
1.41464
1.41024
1.39623
1.39598
1.42241
1.5056
1.65361
1.84635
2.02826
2.13285
2.13862
2.14703
2.16312
2.1882
2.18411
2.15752
2.11568
2.05556
1.98511
1.95783
1.95505
1.95871
1.97239
2.00496
2.07217
2.15774
2.21472
2.22532
2.20686
2.1956
2.18947
2.1993
2.20937
2.19465
2.16818
2.13099
2.06941
1.98162
1.94146
1.93338
1.92822
1.92899
1.94374
1.9592
1.96315
1.95941
1.95337
1.94431
1.94488
1.96147
1.99134
2.01983
2.03744
2.03537
2.02637
2.01072
1.99048
1.97803
1.97235
1.97413
1.98672
1.9845
1.97453
1.9601
1.94702
1.93581
1.92706
1.92391
1.92344
1.92268
1.91858
1.90882
1.89174
1.86403
1.83339
1.80937
1.78862
1.76763
1.74596
1.73101
1.72245
1.71484
1.70569
1.6894
1.65622
1.62116
2.50781
2.8607
3.06058
3.07847
3.05399
2.99622
2.92663
2.82787
2.77566
2.73482
2.68071
2.62501
2.53933
2.46358
2.43344
2.38731
2.32638
2.2821
2.23673
2.17179
2.14389
2.12274
2.07332
2.03297
2.00384
1.96107
1.9394
1.91827
1.87369
1.82077
1.77081
1.7334
1.72571
1.72083
1.70457
1.68024
1.65487
1.63057
1.60772
1.57805
1.53392
1.48308
1.47036
1.47199
1.48054
1.51551
1.6062
1.79364
1.9805
2.14649
2.28538
2.29683
2.29745
2.28153
2.27054
2.2704
2.25807
2.23476
2.19415
2.13145
2.05896
2.02872
2.02533
2.03012
2.04576
2.08666
2.15841
2.2672
2.34608
2.3517
2.32776
2.28511
2.26639
2.25493
2.2559
2.24923
2.2278
2.2028
2.17062
2.12377
2.05763
1.99837
1.97257
1.96145
1.95317
1.94883
1.94307
1.93322
1.92581
1.92342
1.92568
1.92934
1.93116
1.9399
1.96327
1.97151
1.9653
1.9568
1.9577
1.95811
1.95581
1.96193
1.97322
1.97231
1.96816
1.959
1.94306
1.93823
1.93662
1.93128
1.92862
1.93148
1.93238
1.92649
1.9088
1.88253
1.8477
1.81978
1.80357
1.7901
1.77327
1.75728
1.74339
1.73349
1.72697
1.72118
1.69571
1.65214
1.62315
2.16247
2.4543
2.82792
3.06672
3.07862
3.06362
3.01495
2.93574
2.86363
2.80612
2.75139
2.68881
2.59156
2.5325
2.50301
2.44918
2.38977
2.34887
2.29843
2.23943
2.21979
2.18977
2.13438
2.09854
2.06275
2.0156
1.99463
1.96732
1.91732
1.87096
1.83109
1.79863
1.79125
1.7828
1.75905
1.7295
1.70152
1.67645
1.646
1.61147
1.56841
1.54545
1.55598
1.60846
1.72554
1.91266
2.15433
2.36442
2.4407
2.43118
2.39597
2.37064
2.36194
2.36573
2.34977
2.3134
2.27259
2.23934
2.20758
2.17129
2.13068
2.10968
2.11175
2.12507
2.17139
2.24975
2.35734
2.45513
2.46333
2.44646
2.39934
2.3509
2.32249
2.30848
2.29597
2.27645
2.2559
2.23404
2.20708
2.17272
2.1344
2.09428
2.05488
2.02033
1.99197
1.96631
1.94718
1.92913
1.91532
1.91342
1.91358
1.91787
1.92853
1.92763
1.91597
1.89793
1.88555
1.88151
1.88399
1.89738
1.91533
1.93644
1.9533
1.9529
1.94786
1.93972
1.92924
1.92491
1.92387
1.93014
1.93673
1.93763
1.93336
1.91742
1.89324
1.86429
1.83595
1.81952
1.80537
1.79129
1.78279
1.77657
1.76277
1.74772
1.73362
1.71404
1.67904
1.64293
1.62678
2.08268
2.16253
2.43831
2.86264
3.05582
3.06152
3.04876
3.01672
2.94394
2.87419
2.81848
2.74804
2.64677
2.60614
2.57383
2.51151
2.45566
2.41533
2.35835
2.31235
2.29281
2.25111
2.19577
2.16122
2.11594
2.0706
2.04929
2.01498
1.96495
1.93096
1.89877
1.865
1.85614
1.84108
1.80776
1.77484
1.74615
1.71913
1.68433
1.65212
1.65978
1.72074
1.85518
2.08031
2.29796
2.49244
2.65253
2.64323
2.5843
2.53742
2.49114
2.4616
2.43805
2.42144
2.3994
2.35757
2.308
2.2671
2.24186
2.22328
2.20288
2.20527
2.22505
2.27347
2.36116
2.45503
2.54157
2.55006
2.53142
2.49427
2.4546
2.41554
2.37822
2.34743
2.32027
2.29747
2.27723
2.25489
2.22917
2.20481
2.18402
2.16266
2.13543
2.09516
2.04722
2.00952
1.97724
1.94384
1.92378
1.91539
1.91228
1.91477
1.92372
1.92099
1.91199
1.88301
1.85189
1.84325
1.84152
1.84583
1.86428
1.8925
1.9137
1.91402
1.90728
1.90115
1.90114
1.90313
1.91266
1.93431
1.94419
1.94394
1.9357
1.91294
1.88222
1.85342
1.82891
1.81719
1.80967
1.8035
1.79502
1.77856
1.75656
1.73426
1.71541
1.69324
1.66074
1.63873
1.63139
2.08698
2.0957
2.18708
2.45869
2.86972
3.00193
3.04231
3.04904
3.00902
2.94932
2.89613
2.81419
2.71044
2.67866
2.63917
2.57283
2.52521
2.48354
2.42083
2.38637
2.36087
2.3077
2.25759
2.22138
2.1656
2.12651
2.10327
2.06283
2.01999
1.99793
1.96751
1.92958
1.91669
1.89392
1.84976
1.81878
1.79818
1.77158
1.78241
1.85616
2.00757
2.23764
2.47075
2.70168
2.7725
2.76173
2.73073
2.67767
2.62253
2.58929
2.55989
2.52008
2.48264
2.45284
2.42761
2.40283
2.37654
2.34832
2.31667
2.28592
2.28376
2.31357
2.37746
2.48895
2.58021
2.62331
2.61942
2.59859
2.57231
2.54766
2.51872
2.48319
2.44178
2.39442
2.34976
2.31966
2.29691
2.2726
2.25366
2.23988
2.22536
2.20875
2.18896
2.15803
2.10201
2.03462
1.99629
1.97771
1.96105
1.94691
1.93875
1.93332
1.92597
1.91802
1.90734
1.87919
1.84501
1.8346
1.83162
1.83198
1.84103
1.84539
1.84992
1.85421
1.85254
1.85114
1.85543
1.86733
1.88871
1.91709
1.92691
1.9276
1.92308
1.90493
1.87366
1.84061
1.82984
1.82432
1.81947
1.81465
1.79959
1.77944
1.75809
1.73346
1.70165
1.66723
1.64539
1.64054
1.63511
2.12833
2.11023
2.11997
2.19202
2.45459
2.78425
2.93648
3.04348
3.0596
3.03182
2.9852
2.89109
2.7913
2.75341
2.70068
2.63752
2.59751
2.54938
2.48965
2.46294
2.425
2.36294
2.32058
2.27703
2.217
2.18866
2.15913
2.11385
2.08499
2.06708
2.02361
1.98972
1.97036
1.9424
1.90399
1.88956
1.9235
2.02655
2.20906
2.4439
2.64795
2.84823
2.95606
2.96315
2.94348
2.89771
2.82992
2.75339
2.68564
2.64227
2.60302
2.55158
2.51307
2.48964
2.47141
2.45606
2.44603
2.43042
2.40181
2.39861
2.43569
2.5112
2.62623
2.72501
2.73204
2.70846
2.67773
2.64539
2.61498
2.58903
2.56483
2.5377
2.50279
2.45585
2.39268
2.33587
2.30965
2.29503
2.28296
2.27465
2.26727
2.25347
2.23598
2.20951
2.15377
2.07476
2.03093
2.01543
2.00133
1.98454
1.96774
1.95446
1.94184
1.92795
1.9073
1.87376
1.84271
1.83395
1.83058
1.832
1.83494
1.8276
1.80828
1.80298
1.80288
1.80209
1.8056
1.82072
1.85064
1.88796
1.9027
1.90493
1.90343
1.8924
1.87007
1.84018
1.82546
1.82195
1.82521
1.82559
1.80944
1.78892
1.76478
1.72499
1.67338
1.64454
1.63852
1.6357
1.63258
2.19425
2.15971
2.13154
2.13146
2.18317
2.40376
2.65126
2.93234
3.05834
3.05765
3.04416
2.98738
2.90081
2.83352
2.76243
2.70836
2.66825
2.60916
2.56738
2.54001
2.4844
2.42393
2.38442
2.32243
2.27674
2.25374
2.21267
2.17176
2.15392
2.13246
2.07157
2.04636
2.03114
2.02915
2.08696
2.21853
2.44867
2.70207
2.91801
2.98078
3.02952
3.05018
3.03648
3.00765
2.97584
2.93746
2.87369
2.79435
2.73303
2.68443
2.64491
2.61049
2.5833
2.56243
2.54331
2.52596
2.5016
2.48302
2.4937
2.55271
2.65107
2.77344
2.85824
2.86512
2.83513
2.76037
2.71086
2.67752
2.64564
2.61888
2.59628
2.57557
2.55125
2.51232
2.44168
2.37197
2.34332
2.32635
2.31118
2.29964
2.29413
2.28187
2.26632
2.24167
2.18926
2.11884
2.07929
2.06038
2.04177
2.01973
1.99791
1.98143
1.96597
1.94349
1.90883
1.86696
1.8523
1.84675
1.84481
1.84333
1.83633
1.82295
1.79906
1.77721
1.77335
1.77143
1.77114
1.77697
1.79721
1.83184
1.85362
1.85843
1.86248
1.86475
1.8576
1.83972
1.82761
1.82105
1.82191
1.81544
1.79722
1.77522
1.7502
1.70772
1.65336
1.63464
1.63327
1.63642
1.63776
2.26509
2.22133
2.16588
2.14733
2.13908
2.17395
2.31734
2.62581
2.96064
3.03872
3.06538
3.05277
2.99518
2.9054
2.82815
2.78436
2.73104
2.67002
2.64677
2.60933
2.54148
2.49253
2.44013
2.37141
2.34641
2.31631
2.26726
2.23509
2.22274
2.18406
2.14403
2.16776
2.2743
2.46987
2.74164
2.97326
3.16062
3.20867
3.23781
3.2506
3.23439
3.19389
3.13112
3.0558
2.97708
2.92322
2.8692
2.80083
2.76952
2.74895
2.72096
2.69031
2.66284
2.64475
2.62729
2.59951
2.58007
2.59813
2.66364
2.77362
2.90238
2.97666
2.97842
2.95762
2.88642
2.79558
2.74314
2.70613
2.67245
2.6452
2.62706
2.61409
2.59611
2.55738
2.48463
2.41149
2.37969
2.36372
2.34731
2.32454
2.3042
2.28893
2.27331
2.25396
2.22223
2.16833
2.12037
2.09505
2.07717
2.05783
2.03255
2.00563
1.98371
1.96169
1.92309
1.88945
1.87549
1.86664
1.86109
1.85605
1.84837
1.8324
1.80062
1.77049
1.76139
1.75601
1.75353
1.75461
1.76446
1.78729
1.80183
1.8057
1.80974
1.82123
1.82674
1.8224
1.81749
1.82106
1.82348
1.81244
1.79054
1.76499
1.73585
1.69709
1.65131
1.62892
1.62448
1.6237
1.62392
2.32121
2.26003
2.20854
2.18324
2.15356
2.14297
2.16678
2.30715
2.67398
2.92921
3.04538
3.06201
3.03996
2.97047
2.9086
2.86258
2.79073
2.74404
2.72092
2.66785
2.60511
2.55657
2.47943
2.43751
2.4143
2.36966
2.33975
2.31804
2.30727
2.34521
2.46922
2.72497
3.02941
3.32109
3.44257
3.5143
3.50462
3.43852
3.36843
3.34064
3.31454
3.27368
3.21739
3.14034
3.04348
2.95498
2.88883
2.84193
2.82235
2.81066
2.79574
2.7745
2.7516
2.71641
2.68722
2.6922
2.74461
2.83231
2.93457
3.04274
3.08916
3.07806
3.04193
2.97815
2.89923
2.83678
2.79305
2.75249
2.71805
2.68815
2.65945
2.63679
2.61841
2.59154
2.54162
2.47991
2.42874
2.39347
2.37081
2.35499
2.3408
2.32513
2.30533
2.27849
2.24878
2.21702
2.18774
2.1578
2.12534
2.09662
2.07122
2.04403
2.01008
1.97122
1.94375
1.92893
1.91738
1.90605
1.89186
1.87567
1.86149
1.8431
1.80717
1.76995
1.75797
1.7512
1.74725
1.747
1.75169
1.76513
1.7716
1.77175
1.76939
1.77493
1.78505
1.79133
1.79486
1.80415
1.80354
1.79121
1.77122
1.74705
1.71664
1.68092
1.64506
1.62603
1.61951
1.61753
1.61755
2.36494
2.29225
2.24798
2.22512
2.19233
2.15735
2.15641
2.18236
2.35015
2.65634
2.88255
3.02881
3.03431
3.01656
2.97002
2.94013
2.88095
2.83296
2.78916
2.72378
2.66779
2.59683
2.52179
2.50668
2.4849
2.45737
2.48731
2.58656
2.76614
3.03161
3.29438
3.50904
3.6524
3.70261
3.67951
3.64479
3.58583
3.49417
3.40851
3.34797
3.31118
3.27097
3.22766
3.17407
3.10483
3.03043
2.96954
2.92954
2.90384
2.88054
2.86098
2.8486
2.82607
2.8037
2.81855
2.88521
2.99082
3.10204
3.19467
3.20903
3.18596
3.12305
3.04934
2.98352
2.92812
2.89126
2.86213
2.82365
2.76781
2.72745
2.70632
2.68208
2.64824
2.60961
2.56911
2.53111
2.49963
2.46658
2.4273
2.38373
2.34074
2.30701
2.28347
2.25759
2.23522
2.22459
2.21676
2.20551
2.18915
2.15911
2.10663
2.0419
1.99684
1.96601
1.94957
1.94207
1.94015
1.93624
1.92626
1.91149
1.89047
1.85851
1.8049
1.76531
1.75657
1.75111
1.74773
1.74548
1.74739
1.75399
1.75649
1.75194
1.74463
1.74572
1.75156
1.76008
1.77089
1.7821
1.78042
1.76941
1.75056
1.7221
1.68563
1.65586
1.64126
1.62888
1.61563
1.60754
1.6014
2.39503
2.32853
2.28807
2.27258
2.24068
2.20083
2.17495
2.18142
2.20981
2.34012
2.54904
2.83234
2.99357
2.97676
2.99176
3.00342
2.97673
2.9216
2.85357
2.78609
2.71721
2.62459
2.59945
2.6133
2.67732
2.86194
3.16436
3.45001
3.71114
3.84658
3.97258
3.98993
3.96431
3.89772
3.78251
3.66883
3.58301
3.52638
3.46714
3.40418
3.34658
3.28334
3.23448
3.19004
3.13797
3.09306
3.05788
3.03111
3.00725
2.98485
2.95854
2.93404
2.92785
2.96643
3.0541
3.16446
3.2744
3.33339
3.32815
3.29027
3.19734
3.10385
3.0499
3.00878
2.97134
2.94285
2.9166
2.88048
2.83131
2.77568
2.71455
2.66598
2.6356
2.6034
2.57478
2.55885
2.54238
2.5189
2.48177
2.42838
2.36449
2.30575
2.27577
2.26204
2.25092
2.24015
2.2309
2.22403
2.21377
2.19454
2.14385
2.05311
1.99697
1.98508
1.97793
1.96814
1.9574
1.94633
1.93756
1.92809
1.91433
1.88529
1.83136
1.78577
1.76711
1.75396
1.74384
1.74141
1.74299
1.74438
1.74553
1.73832
1.72926
1.72952
1.73187
1.73791
1.75106
1.762
1.75868
1.74719
1.72581
1.69033
1.64842
1.62763
1.61976
1.6137
1.60782
1.60045
1.58966
2.42242
2.36505
2.32821
2.31615
2.29422
2.25458
2.22921
2.20646
2.19739
2.21074
2.27994
2.47336
2.77837
2.90821
2.97837
3.04169
3.04134
2.99559
2.92759
2.86717
2.78993
2.78842
2.90332
3.14748
3.4933
3.84384
4.09772
4.10217
4.06975
4.0698
4.08298
4.06162
3.98175
3.88657
3.79724
3.69593
3.62509
3.59762
3.56602
3.50747
3.42925
3.34516
3.27195
3.21501
3.17719
3.15407
3.12928
3.10355
3.08184
3.06982
3.07411
3.08517
3.14422
3.22483
3.31638
3.40997
3.45698
3.44145
3.39342
3.30196
3.19069
3.11445
3.07239
3.03464
3.00309
2.97904
2.95231
2.91471
2.86644
2.80766
2.73389
2.6641
2.63092
2.61497
2.60436
2.59441
2.58131
2.56203
2.52812
2.466
2.37663
2.30961
2.28806
2.27536
2.26306
2.25751
2.25804
2.25081
2.24008
2.22261
2.16662
2.06098
2.01294
2.00284
1.99536
1.98978
1.98305
1.97372
1.96038
1.94367
1.92091
1.87884
1.82957
1.80764
1.79485
1.7805
1.76702
1.75805
1.75174
1.74617
1.73795
1.72404
1.71764
1.71976
1.724
1.7297
1.74199
1.74862
1.74236
1.72766
1.70047
1.65747
1.61809
1.60216
1.59636
1.59425
1.59228
1.58791
1.57632
2.45472
2.4035
2.37633
2.36244
2.34291
2.3144
2.28454
2.25607
2.22102
2.2058
2.20397
2.2497
2.44194
2.71554
2.89041
3.02523
3.06194
3.04409
3.04719
3.12338
3.26827
3.54785
3.93203
4.23724
4.46118
4.53376
4.50898
4.41281
4.27291
4.17004
4.09953
4.04144
3.96868
3.8855
3.82096
3.75524
3.70196
3.67608
3.64711
3.56154
3.46356
3.39847
3.3424
3.29295
3.25904
3.2356
3.21536
3.1948
3.19739
3.22328
3.2667
3.34114
3.42189
3.49358
3.55239
3.5631
3.53823
3.48964
3.40612
3.29362
3.19792
3.14739
3.10804
3.06965
3.03773
3.01123
2.98418
2.95061
2.90628
2.84509
2.7665
2.69515
2.65596
2.63595
2.61965
2.6064
2.60012
2.58676
2.55955
2.49522
2.39566
2.33778
2.31582
2.30176
2.29
2.27897
2.26839
2.25837
2.24679
2.23014
2.19109
2.10848
2.04312
2.01997
2.00604
1.99538
1.98877
1.98669
1.97944
1.96786
1.94484
1.89887
1.84353
1.8195
1.80955
1.8022
1.79797
1.7917
1.77953
1.76291
1.73518
1.71315
1.71015
1.71224
1.71966
1.73165
1.74062
1.73961
1.73214
1.71482
1.67898
1.6295
1.59966
1.58465
1.57636
1.57459
1.57542
1.57222
1.56192
2.49075
2.44572
2.42968
2.41704
2.39221
2.3682
2.33738
2.30352
2.25638
2.22002
2.20725
2.20676
2.24739
2.43353
2.68926
2.96474
3.15244
3.36803
3.7081
4.09035
4.30775
4.53643
4.66043
4.68646
4.67211
4.62225
4.54415
4.46319
4.39198
4.30829
4.20008
4.09131
3.98455
3.90545
3.87849
3.84749
3.80007
3.73636
3.63962
3.54206
3.47386
3.43815
3.40933
3.37855
3.34763
3.32521
3.32603
3.34926
3.39216
3.47107
3.54346
3.61102
3.64967
3.67212
3.65907
3.62155
3.56309
3.48522
3.39385
3.30139
3.23178
3.18414
3.14307
3.10684
3.07646
3.04528
3.00922
2.97036
2.92694
2.86642
2.78989
2.73409
2.69888
2.67024
2.64786
2.6294
2.61093
2.5894
2.56428
2.52509
2.44653
2.36585
2.33604
2.32175
2.31092
2.30224
2.29551
2.28534
2.27168
2.25323
2.21319
2.13175
2.06883
2.04976
2.03829
2.02644
2.01245
1.99617
1.98082
1.96418
1.93752
1.89574
1.8677
1.85517
1.84349
1.82883
1.8118
1.79312
1.77127
1.74684
1.72795
1.71911
1.71886
1.72018
1.72263
1.72737
1.73406
1.73157
1.72358
1.70476
1.66316
1.61473
1.58871
1.57679
1.56625
1.55965
1.5587
1.5599
1.55218
2.53032
2.497
2.48917
2.47439
2.4422
2.40962
2.37818
2.3416
2.30044
2.25768
2.22966
2.21028
2.21692
2.27196
2.46252
2.9779
3.73004
4.28226
4.71984
4.93627
5.05881
5.10033
5.0506
4.90673
4.74406
4.60472
4.50625
4.45309
4.41456
4.35786
4.26487
4.15666
4.04497
3.97299
3.94911
3.92047
3.86926
3.77631
3.64143
3.52576
3.48785
3.47311
3.46176
3.458
3.45417
3.47509
3.52948
3.58757
3.67758
3.74354
3.77892
3.79805
3.78689
3.74758
3.6947
3.63549
3.56749
3.48218
3.38651
3.31082
3.26377
3.22414
3.18301
3.14398
3.11168
3.08375
3.05561
3.01853
2.96508
2.89443
2.81379
2.75125
2.72333
2.7087
2.69497
2.67437
2.64679
2.6186
2.59209
2.56153
2.5079
2.43242
2.37187
2.34116
2.31988
2.30229
2.28751
2.27291
2.25477
2.22902
2.1981
2.15312
2.09871
2.06903
2.0555
2.04525
2.03472
2.02128
2.00335
1.97997
1.9491
1.90839
1.87861
1.86548
1.85419
1.84183
1.82691
1.80741
1.77826
1.74241
1.72894
1.72966
1.73366
1.73549
1.73498
1.73835
1.73962
1.73263
1.71961
1.69743
1.65215
1.6063
1.58241
1.56735
1.55805
1.55252
1.54942
1.54733
1.53539
2.57405
2.55541
2.54906
2.52664
2.48811
2.44869
2.40335
2.37172
2.34066
2.31035
2.27637
2.28981
2.3829
2.66097
3.14367
3.69221
4.21422
4.61701
4.83818
4.98945
5.15193
5.15606
5.09799
5.01817
4.86424
4.67849
4.54227
4.45381
4.40496
4.35598
4.27629
4.18828
4.10613
4.04006
3.99787
3.95445
3.88787
3.78737
3.66832
3.56999
3.53369
3.52725
3.53574
3.57319
3.64198
3.73917
3.82343
3.88791
3.93409
3.9436
3.93621
3.9124
3.86418
3.79648
3.72451
3.65215
3.57571
3.48589
3.39147
3.32874
3.28999
3.25552
3.21945
3.18845
3.15905
3.12397
3.074
3.00658
2.93327
2.87661
2.83973
2.8131
2.78409
2.74536
2.70261
2.66312
2.62712
2.59489
2.5654
2.53847
2.5162
2.4803
2.42422
2.37664
2.34872
2.32724
2.30635
2.28576
2.26326
2.2315
2.19064
2.15921
2.13564
2.11473
2.09342
2.07033
2.04592
2.02095
1.99616
1.97003
1.93963
1.91395
1.90067
1.88948
1.87468
1.856
1.83442
1.81105
1.78684
1.75971
1.74388
1.74202
1.74141
1.74102
1.75227
1.76457
1.75967
1.74643
1.72362
1.6875
1.64691
1.6116
1.58474
1.56166
1.55248
1.54782
1.54081
1.53449
1.5196
2.62478
2.61188
2.59945
2.56811
2.52266
2.47947
2.43685
2.40459
2.38597
2.40375
2.49288
2.79432
3.2316
3.68257
3.9356
3.9913
4.08352
4.33033
4.56783
4.79709
5.01134
5.04567
4.97261
4.90487
4.82968
4.7355
4.62899
4.52497
4.44049
4.36798
4.27705
4.19485
4.13498
4.07777
4.02279
3.96749
3.89769
3.8073
3.72882
3.67437
3.64942
3.66171
3.72211
3.84793
3.97977
4.06458
4.0945
4.08872
4.05714
4.02759
3.99356
3.9479
3.88954
3.82378
3.75764
3.6842
3.59485
3.49479
3.41757
3.36586
3.31362
3.26935
3.24429
3.22685
3.20472
3.16635
3.1064
3.02262
2.93075
2.88783
2.87294
2.85553
2.82783
2.78382
2.72591
2.67205
2.63051
2.59843
2.57201
2.54839
2.52537
2.50205
2.47237
2.4229
2.36334
2.32269
2.29778
2.27691
2.25696
2.23339
2.19749
2.16319
2.14655
2.13364
2.11679
2.09484
2.06967
2.04361
2.01346
1.98187
1.95399
1.93372
1.91681
1.90212
1.88756
1.87165
1.85372
1.82896
1.78903
1.7612
1.75829
1.75802
1.75815
1.7608
1.76356
1.75984
1.75046
1.7348
1.70699
1.66476
1.62963
1.61033
1.59052
1.56678
1.55216
1.54752
1.54181
1.53008
1.50801
2.67961
2.66238
2.63985
2.59914
2.55422
2.50576
2.48138
2.49967
2.63467
2.95352
3.42488
3.88879
4.14663
4.25965
4.24261
4.17542
4.09937
4.12752
4.21346
4.3819
4.59818
4.80768
4.85739
4.82105
4.81782
4.8014
4.75719
4.66659
4.5412
4.41391
4.30056
4.21569
4.16132
4.10963
4.04997
3.98892
3.92445
3.87019
3.81539
3.80331
3.829
3.91745
4.06618
4.21806
4.30764
4.30318
4.27691
4.21048
4.12902
4.06428
4.00866
3.95288
3.89233
3.82762
3.76122
3.69061
3.60837
3.52391
3.46657
3.42215
3.37284
3.323
3.27719
3.23298
3.19136
3.14876
3.10649
3.04895
2.98495
2.94431
2.91103
2.87344
2.83057
2.78929
2.75147
2.71352
2.66969
2.63347
2.60917
2.58862
2.56893
2.54777
2.51642
2.46149
2.391
2.33798
2.3057
2.27943
2.25242
2.22901
2.21233
2.19661
2.17776
2.16016
2.14279
2.11948
2.08775
2.04673
2.0001
1.96005
1.93435
1.91762
1.90649
1.89751
1.88852
1.87738
1.86021
1.83623
1.80471
1.77551
1.76745
1.76599
1.76582
1.77454
1.7785
1.77349
1.76082
1.73803
1.70386
1.66194
1.62748
1.60655
1.59326
1.58234
1.56667
1.54645
1.52733
1.5124
1.49408
2.72257
2.69575
2.66986
2.63225
2.59409
2.60911
2.73352
3.08246
3.6309
4.04725
4.37104
4.38955
4.34023
4.28405
4.23568
4.16215
4.09983
4.05639
4.03289
4.06406
4.16996
4.35044
4.54478
4.66709
4.75571
4.80003
4.79218
4.73887
4.62038
4.46983
4.33928
4.24682
4.18839
4.14398
4.09514
4.04546
4.00289
3.95875
3.95931
4.01385
4.13431
4.27598
4.42329
4.48441
4.47508
4.43337
4.36099
4.26405
4.17422
4.10433
4.04089
3.9741
3.9069
3.84495
3.78018
3.7051
3.62491
3.55963
3.51625
3.47442
3.42618
3.37138
3.3132
3.25818
3.2111
3.16619
3.11176
3.06246
3.02535
2.98899
2.94231
2.89449
2.85546
2.81963
2.77652
2.72029
2.66004
2.61474
2.58779
2.56676
2.54611
2.52387
2.49712
2.46426
2.42151
2.37163
2.32549
2.28912
2.26132
2.23893
2.21852
2.19539
2.1717
2.15723
2.14655
2.13293
2.10653
2.0614
2.00496
1.95985
1.93319
1.91965
1.91172
1.90573
1.89833
1.88943
1.88031
1.85358
1.80363
1.78005
1.77757
1.77825
1.78037
1.77989
1.7736
1.76299
1.74828
1.7209
1.68899
1.66056
1.63913
1.62267
1.60717
1.58815
1.56555
1.54224
1.52231
1.50685
1.48996
2.76685
2.72892
2.70428
2.73746
2.89884
3.30457
3.79772
4.30267
4.55799
4.65146
4.64528
4.59344
4.44529
4.29135
4.19544
4.13098
4.08642
4.03045
3.97548
3.94905
3.95679
4.0138
4.1521
4.3509
4.5282
4.66498
4.70846
4.69417
4.6344
4.53244
4.42633
4.31945
4.23879
4.19904
4.18154
4.16803
4.17543
4.19735
4.26455
4.37306
4.4773
4.58404
4.65776
4.64013
4.59395
4.51761
4.39686
4.2786
4.19434
4.13306
4.0746
4.0083
3.94097
3.87409
3.79404
3.70471
3.62519
3.57671
3.54283
3.50307
3.45248
3.39735
3.34352
3.28037
3.21261
3.17731
3.15457
3.12459
3.08325
3.01915
2.9481
2.89907
2.86513
2.83315
2.79547
2.74188
2.67731
2.62583
2.59525
2.57251
2.55068
2.5265
2.50137
2.47679
2.44439
2.39893
2.35829
2.32686
2.29768
2.2702
2.24118
2.21112
2.18626
2.16969
2.15551
2.14175
2.12387
2.08347
2.01992
1.97603
1.96249
1.95448
1.9484
1.94232
1.93218
1.91638
1.88547
1.83957
1.80077
1.79212
1.79105
1.7903
1.78766
1.78313
1.77981
1.77157
1.75056
1.7164
1.68308
1.672
1.66535
1.65376
1.6346
1.60895
1.57878
1.54982
1.52345
1.51315
1.50254
2.82105
2.85485
3.05079
3.47467
4.0926
4.53331
4.75418
4.77749
4.74959
4.68311
4.61768
4.53399
4.45886
4.38179
4.30054
4.20879
4.11531
4.02058
3.94877
3.91364
3.90483
3.90027
3.93699
4.00995
4.16566
4.3415
4.48707
4.5767
4.59154
4.57634
4.52089
4.44014
4.36982
4.3251
4.34836
4.41735
4.48345
4.58238
4.64583
4.68654
4.72185
4.75415
4.74233
4.70838
4.64238
4.52879
4.40287
4.30316
4.23221
4.17219
4.11494
4.05547
3.99231
3.90647
3.79875
3.71957
3.67096
3.63766
3.60143
3.55364
3.49628
3.43257
3.36088
3.29269
3.24195
3.19513
3.14238
3.09501
3.04616
2.99653
2.96411
2.94028
2.9089
2.87028
2.82033
2.75637
2.68983
2.65329
2.63294
2.61081
2.58732
2.5616
2.52909
2.48833
2.44374
2.40511
2.36702
2.32296
2.27964
2.24179
2.21328
2.1942
2.18288
2.17258