/*--------------------------------*- C++ -*----------------------------------*\
  =========                 |
  \\      /  F ield         | OpenFOAM: The Open Source CFD Toolbox
   \\    /   O peration     | Website:  https://openfoam.org
    \\  /    A nd           | Version:  7
     \\/     M anipulation  |
\*---------------------------------------------------------------------------*/
FoamFile
{
    version     2.0;
    format      ascii;
    class       volScalarField;
    location    "0.9";
    object      T;
}
// * * * * * * * * * * * * * * * * * * * * * * * * * * * * * * * * * * * * * //

dimensions      [0 0 0 1 0 0 0];

internalField   nonuniform List<scalar> 
16192
(
1
1
1
1
1
1
1
1
1
1
1
1
1
1
1
1
1
1
1
1
1
1
1
1
1
1
1
1
1
1
1
1
1
1
1
1
1
1
1
1
1
1
1
1
1
1
1
1
1
1
1
1
1
1
1
1
1
1
1
1
1
1
1
1
1
1
1
1
1
1
1
1
1
1
1
1
1
1
1
1
1
1
1
1
1
1
1
1
1
1
1
1
1
1
1
1
1
1
1
1
1
1
1
1
1
1
1
1
1
1
1
1
1
1
1
1
1
1
1
1
1
1
1
1
1
1
1
1
1
1
1
1
1
1
1
1
1
1
1
1
1
1
1
1
1
1
1
1
1
1
1
1
1
1
1
1
1
1
1
1
1
1
1
1
1
1
1
1
1
1
1
1
1
1
1
1
1
1
1
1
1
1
1
1
1
1
1
1
1
1
1
1
1
1
1
1
1
1
1
1
1
1
1
1
1
1
1
1
1
1
1
1
1
1
1
1
1
1
1
1
1
1
1
1
1
1
1
1
1
1
1
1
1
1
1
1
1
1
1
1
1
1
1
1
1
1
1
1
1
1
1
1
1
1
1
1
1
1
1
1
1
1
1
1
1
1
1
1
1
1
1
1
1
1
1
1
1
1
1
1
1
1
1
1
1
1
1
1
1
1
1
1
1
1
1
1
1
1
1
1
1
1
1
1
1
1
1
1
1
1
1
1
1
1
1
1
1
1
1
1
1
1
1
1
1
1
1
1
1
1
1
1
1
1
1
1
1
1
1
1
1
1
1
1
1
1
1
1
1
1
1
1
1
1
1
1
1
1
1
1
1
1
1
1
1
1
1
1
1
1
1
1
1
1
1
1
1
1
1
1
1
1
1
1
1
1
1
1
1
1
1
1
1
1
1
1
1
1
1
1
1
1
1
1
1
1
1
1
1
1
1
1
1
1
1
1
1
1
1
1
1
1
1
1
1
1
1
1
1
1
1
1
1
1
1
1
1
1
1
1
1
1
1
1
1
1
1
1
1
1
1
1
1
1
1
1
1
1
1
1
1
1
1
1
1
1
1
1
1
1
1
1
1
1
1
1
1
1
1
1
1
1
1
1
1
1
1
1
1
1
1
1
1
1
1
1
1
1
1
1
1
1
1
1
1
1
1
1
1
1
1
1
1
1
1
1
1
1
1
1
1
1
1
1
1
1
1
1
1
1
1
1
1
1
1
1
1
1
1
1
1
1
1
1
1
1
1
1
1
1
1
1
1
1
1
1
1
1
1
1
1
1
1
1
1
1
1
1
1
1
1
1
1
1
1
1
1
1
1
1
1
1
1
1
1
1
1
1
1
1
1
1
1
1
1
1
1
1
1
1
1
1
1
1
1
1
1
1
1
1
1
1
1
1
1
1
1
1
1
1
1
1
1
1
1
1
1
1
1
1
1
1
1
1
1
1
1
1
1
1
1
1
1
1
1
1
1
1
1
1
1
1
1
1
1
1
1
1
1
1
1
1
1
1
1
1
1
1
1
1
1
1
1
1
1
1
1
1
1
1
1
1
1
1
1
1
1
1
1
1
1
1
1
1
1
1
1
1
1
1
1
1
1
1
1
1
1
1
1
1
1
1
1
1
1
1
1
1
1
1
1
1
1
1
1
1
1
1
1
1
1
1
1
1
1
1
1
1
1
1
1
1
1
1
1
1
1
1
1
1
1
1
1
1
1
1
1
1
1
1
1
1
1
1
1
1
1
1
1
1
1
1
1
1
1
1
1
1
1
1
1
1
1
1
1
1
1
1
1
1
1
1
1
1
1
1
1
1
1
1
1
1
1
1
1
1
1
1
1
1
1
1
1
1
1
1
1
1
1
1
1
1
1
1
1
1
1
1
1
1
1
1
1
1
1
1
1
1
1
1
1
1
1
1
1
1
1
1
1
1
1
1
1
1
1
1
1
1
1
1
1
1
1
1
1
1
1
1
1
1
1
1
1
1
1
1
1
1
1
1
1
1
1
1
1
1
1
1
1
1
1
1
1
1
1
1
1
1
1
1
1
1
1
1
1
1
1
1
1
1
1
1
1
1
1
1
1
1
1
1
1
1
1
1
1
1
1
1
1
1
1
1
1
1
1
1
1
1
1
1
1
1
1
1
1
1
1
1
1
1
1
1
1
1
1
1
1
1
1
1
1
1
1
1
1
1
1
1
1
1
1
1
1
1
1
1
1
1
1
1
1
1
1
1
1
1
1
1
1
1
1
1
1
1
1
1
1
1
1
1
1
1
1
1
1
1
1
1
1
1
1
1
1
1
1
1
1
1
1
1
1
1
1
1
1
1
1
1
1
1
1
1
1
1
1
1
1
1
1
1
1
1
1
1
1
1
1
1
1
1
1
1
1
1
1
1
1
1
1
1
1
1
1
1
1
1
1
1
1
1
1
1
1
1
1
1
1
1
1
1
1
1
1
1
1
1
1
1
1
1
1
1
1
1
1
1
1
1
1
1
1
1
1
1
1
1
1
1
1
1
1
1
1
1
1
1
1
1
1
1
1
1
1
1
1
1
1
1
1
1
1
1
1
1
1
1
1
1
1
1
1
1
1
1
1
1
1
1
1
1
1
1
1
1
1
1
1
1
1
1
1
1
1
1
1
1
1
1
1
1
1
1
1
1
1
1
1
1
1
1
1
1
1
1
1
1
1
1
1
1
1
1
1
1
1
1
1
1
1
1
1
1
1
1
1
1
1
1
1
1
1
1
1
1
1
1
1
1
1
1
1
1
1
1
1
1
1
1
1
1
1
1
1
1
1
1
1
1
1
1
1
1
1
1
1
1
1
1
1
1
1
1
1
1
1
1
1
1
1
1
1
1
1
1
1
1
1
1
1
1
1
1
1
1
1
1
1
1
1
1
1
1
1
1
1
1
1
1
1
1
1
1
1
1
1
1
1
1
1
1
1
1
1
1
1
1
1
1
1
1
1
1
1
1
1
1
1
1.00008
1.00478
1.0822
1.2616
1.44336
1.61645
1.66999
1.67911
1.67951
1.67372
1.66613
1.66407
1.66413
1.66578
1.66668
1.66959
1.67405
1.67656
1.67371
1.66718
1.66307
1.66119
1.65965
1.6602
1.66075
1.66034
1.65962
1.65798
1.65558
1.65179
1.64747
1.64484
1.64295
1.64118
1.63935
1.6369
1.6337
1.63009
1.62633
1.62358
1.62303
1.62331
1.62466
1.62626
1.62597
1.62342
1.61955
1.61509
1.60924
1.59952
1.58745
1.58085
1.57713
1.57365
1.57036
1.56785
1.56496
1.56032
1.55455
1.55092
1.54904
1.54881
1.5505
1.55278
1.55338
1.55414
1.5545
1.55439
1.55342
1.5507
1.54455
1.53327
1.52175
1.51697
1.51631
1.51717
1.52047
1.52525
1.52722
1.52623
1.52312
1.51729
1.51105
1.50754
1.50655
1.50643
1.5061
1.505
1.50297
1.49993
1.49553
1.49024
1.48538
1.48352
1.48436
1.48682
1.48943
1.48973
1.48805
1.48393
1.47729
1.46765
1.45735
1.45026
1.44897
1.4494
1.45072
1.45286
1.4552
1.45723
1.45766
1.45751
1.45637
1.45304
1.4465
1.43679
1.42849
1.42625
1.42643
1.42836
1.43327
1.4348
1.43352
1.43094
1.42617
1.41915
1.41154
1.40672
1.40463
1.40474
1.40622
1.4084
1.40786
1.40499
1.39847
1.39137
1.38896
1.38926
1.39174
1.3983
1.4044
1.40671
1.40731
1.40634
1.40084
1.38898
1.37871
1.37379
1.37146
1.37189
1.37822
1.38737
1.39093
1.39235
1.39206
1
1
1
1
1
1
1
1
1
1
1
1
1
1
1
1
1
1
1
1
1
1
1
1
1
1
1
1
1
1
1
1
1
1
1
1
1
1
1
1
1
1
1
1
1
1
1
1
1
1
1
1
1
1
1
1
1
1
1
1
1
1
1
1
1
1
1
1
1
1
1
1
1
1
1
1
1.00005
1.00241
1.02608
1.13408
1.41024
1.61351
1.6685
1.67739
1.67295
1.66315
1.6621
1.66698
1.67129
1.67353
1.67538
1.67894
1.67633
1.66851
1.6639
1.66195
1.65959
1.65986
1.66088
1.66111
1.66071
1.65926
1.65738
1.65549
1.65225
1.65002
1.6489
1.64729
1.64504
1.64186
1.63807
1.63441
1.63133
1.62959
1.62952
1.63026
1.63144
1.63195
1.63014
1.62655
1.62246
1.61808
1.61262
1.60396
1.5926
1.58524
1.58107
1.57814
1.5748
1.57185
1.56922
1.56526
1.55971
1.55545
1.55298
1.5527
1.55413
1.55544
1.55587
1.55636
1.55642
1.55597
1.55462
1.55197
1.54643
1.53642
1.52583
1.52109
1.52055
1.52141
1.52496
1.52957
1.53046
1.52856
1.52545
1.52017
1.51321
1.50836
1.50741
1.50722
1.50674
1.50584
1.50438
1.50208
1.49872
1.49456
1.49063
1.48922
1.48984
1.49164
1.49297
1.4927
1.49013
1.48615
1.48066
1.4732
1.46418
1.45624
1.45401
1.45426
1.45512
1.45693
1.4589
1.46087
1.46174
1.46169
1.46094
1.45834
1.45265
1.4437
1.43502
1.43192
1.43194
1.43319
1.43722
1.43832
1.43665
1.43356
1.42848
1.42139
1.41469
1.41106
1.41004
1.41082
1.41351
1.41624
1.41574
1.41238
1.40475
1.39609
1.39255
1.39232
1.39335
1.39841
1.40363
1.40574
1.4067
1.40609
1.40147
1.39087
1.38194
1.37799
1.37604
1.37658
1.3829
1.3915
1.39437
1.39514
1.39445
1.38955
1
1
1
1
1
1
1
1
1
1
1
1
1
1
1
1
1
1
1
1
1
1
1
1
1
1
1
1
1
1
1
1
1
1
1
1
1
1
1
1
1
1
1
1
1
1
1
1
1
1
1
1
1
1
1
1
1
1
1
1
1
1
1
1
1
1
1
1
1
1
1
1
1
1
1
1
1
1.00001
1.00034
1.00757
1.09634
1.38285
1.57338
1.63826
1.65636
1.66263
1.66545
1.66986
1.67471
1.67546
1.67648
1.67554
1.67072
1.66559
1.66276
1.65998
1.65975
1.65994
1.66049
1.66099
1.65992
1.65769
1.65703
1.65614
1.65474
1.65462
1.65364
1.65123
1.64747
1.64322
1.63953
1.63733
1.63666
1.63689
1.63762
1.63791
1.63685
1.63355
1.62951
1.62532
1.62104
1.61599
1.60826
1.59778
1.59028
1.58562
1.58254
1.57978
1.57681
1.57405
1.57043
1.56531
1.56086
1.55781
1.55684
1.55766
1.55806
1.55854
1.55873
1.55858
1.55777
1.55607
1.55346
1.54848
1.53983
1.53003
1.52541
1.52499
1.52585
1.52911
1.53319
1.53359
1.53132
1.52792
1.5227
1.5161
1.51046
1.50838
1.50781
1.50722
1.50631
1.50513
1.50368
1.50152
1.49845
1.49561
1.49483
1.49532
1.49637
1.49686
1.49533
1.49164
1.48747
1.4832
1.47787
1.47059
1.46258
1.45917
1.45918
1.45958
1.46084
1.46247
1.46405
1.46525
1.46531
1.46486
1.46293
1.45821
1.45012
1.44133
1.43755
1.43743
1.43822
1.44146
1.44223
1.44022
1.43663
1.43109
1.42381
1.41793
1.4153
1.41508
1.4168
1.42083
1.42405
1.42365
1.42009
1.4116
1.40154
1.39679
1.39588
1.39614
1.39978
1.40398
1.40555
1.4066
1.40614
1.40199
1.39244
1.38487
1.38184
1.38072
1.38157
1.38798
1.39606
1.39835
1.39861
1.39752
1.39213
1.38769
1
1
1
1
1
1
1
1
1
1
1
1
1
1
1
1
1
1
1
1
1
1
1
1
1
1
1
1
1
1
1
1
1
1
1
1
1
1
1
1
1
1
1
1
1
1
1
1
1
1
1
1
1
1
1
1
1
1
1
1
1
1
1
1
1
1
1
1
1
1
1
1
1
1
1
1
1
1
1
1.00008
1.00395
1.07626
1.29358
1.45526
1.59377
1.65256
1.6687
1.67353
1.67313
1.66942
1.66909
1.66804
1.66657
1.66486
1.6619
1.66025
1.65946
1.65945
1.66046
1.66024
1.65798
1.65711
1.65794
1.65892
1.65982
1.6595
1.65724
1.65321
1.6486
1.64543
1.64423
1.64415
1.64454
1.64466
1.6438
1.64114
1.63702
1.63263
1.62833
1.62419
1.61954
1.61267
1.60317
1.5957
1.59064
1.58734
1.58477
1.5821
1.57965
1.57633
1.57171
1.56724
1.56418
1.5626
1.56149
1.56086
1.56118
1.56117
1.56079
1.55978
1.55786
1.55516
1.55072
1.54329
1.53417
1.52958
1.52923
1.53018
1.53316
1.53649
1.53654
1.53443
1.53086
1.52539
1.51847
1.51282
1.51029
1.50894
1.50794
1.50701
1.50612
1.50513
1.50382
1.50204
1.50035
1.50009
1.50069
1.50124
1.50107
1.49815
1.4932
1.4883
1.4847
1.4809
1.47563
1.46866
1.46438
1.46394
1.46408
1.46477
1.46585
1.46693
1.46819
1.46847
1.46819
1.4668
1.46297
1.45572
1.44719
1.44293
1.44269
1.44323
1.4458
1.44633
1.44404
1.44013
1.43418
1.42668
1.42135
1.41936
1.41977
1.42247
1.42782
1.43128
1.43096
1.42745
1.41851
1.40735
1.40152
1.39988
1.39968
1.40236
1.40577
1.40651
1.40724
1.40666
1.40264
1.39394
1.38765
1.38545
1.3852
1.38669
1.39343
1.40071
1.40257
1.40255
1.40099
1.3954
1.39077
1.39022
1
1
1
1
1
1
1
1
1
1
1
1
1
1
1
1
1
1
1
1
1
1
1
1
1
1
1
1
1
1
1
1
1
1
1
1
1
1
1
1
1
1
1
1
1
1
1
1
1
1
1
1
1
1
1
1
1
1
1
1
1
1
1
1
1
1
1
1
1
1
1
1
1
1
1
1
1
1
1
1
1.00004
1.00241
1.03353
1.1414
1.37504
1.59402
1.65497
1.67514
1.67197
1.6634
1.66327
1.66537
1.66663
1.66568
1.66375
1.6618
1.65911
1.66001
1.65988
1.65853
1.65682
1.65832
1.66168
1.66418
1.66462
1.66309
1.65896
1.65409
1.65141
1.6512
1.65146
1.65157
1.65133
1.64983
1.64626
1.64115
1.63603
1.63126
1.62716
1.62291
1.61683
1.60858
1.60144
1.59609
1.59252
1.59
1.58754
1.58555
1.58284
1.5791
1.57509
1.57188
1.56998
1.56717
1.56392
1.56357
1.56352
1.563
1.56188
1.55991
1.55731
1.55346
1.54707
1.53849
1.53357
1.53312
1.53399
1.5365
1.53921
1.53923
1.53757
1.53425
1.52878
1.52146
1.51512
1.5122
1.5104
1.509
1.50802
1.50746
1.50688
1.50615
1.50554
1.50521
1.50528
1.5058
1.50605
1.50531
1.50127
1.49501
1.4894
1.48586
1.48276
1.47899
1.47379
1.46956
1.46832
1.46836
1.46872
1.46922
1.46973
1.47072
1.47122
1.47106
1.47006
1.4669
1.4604
1.45221
1.44783
1.44752
1.44792
1.45002
1.45029
1.44791
1.44387
1.43766
1.43012
1.42503
1.42343
1.42426
1.42769
1.4342
1.43773
1.43751
1.43414
1.42488
1.41309
1.40664
1.40426
1.40363
1.40558
1.40886
1.40895
1.40894
1.40778
1.40353
1.39566
1.39047
1.38886
1.38925
1.39186
1.39892
1.4054
1.40694
1.40669
1.40473
1.399
1.39425
1.39353
1.39388
1
1
1
1
1
1
1
1
1
1
1
1
1
1
1
1
1
1
1
1
1
1
1
1
1
1
1
1
1
1
1
1
1
1
1
1
1
1
1
1
1
1
1
1
1
1
1
1
1
1
1
1
1
1
1
1
1
1
1
1
1
1
1
1
1
1
1
1
1
1
1
1
1
1
1
1
1
1
1
1
1
1.00001
1.00046
1.00775
1.08333
1.35473
1.57167
1.64315
1.65861
1.66091
1.66363
1.66612
1.66865
1.66903
1.66724
1.66077
1.65897
1.65879
1.65867
1.65616
1.65818
1.66333
1.66717
1.66845
1.66777
1.66449
1.65984
1.6572
1.65708
1.65781
1.65764
1.65677
1.65482
1.65123
1.6461
1.64078
1.63566
1.63111
1.62681
1.62116
1.6138
1.60687
1.60134
1.59768
1.5954
1.59317
1.59166
1.58981
1.58713
1.58379
1.58099
1.57819
1.57386
1.56875
1.56592
1.56575
1.56532
1.56404
1.56201
1.55959
1.55653
1.55108
1.54306
1.53779
1.53699
1.53761
1.53959
1.54152
1.54126
1.54015
1.53748
1.53235
1.52507
1.51835
1.51468
1.51227
1.51053
1.50952
1.50917
1.50894
1.5088
1.50891
1.50978
1.51018
1.51072
1.5109
1.50951
1.50449
1.49678
1.49058
1.48727
1.48458
1.48172
1.47789
1.4744
1.47271
1.47227
1.47238
1.4725
1.47258
1.47318
1.4737
1.47365
1.47291
1.47012
1.46406
1.45631
1.45216
1.45185
1.45224
1.45378
1.45387
1.45176
1.44779
1.44144
1.43391
1.42894
1.4276
1.42859
1.43265
1.43985
1.44325
1.44313
1.43987
1.43036
1.41831
1.41177
1.40892
1.40795
1.40939
1.41253
1.41249
1.41165
1.40962
1.40492
1.39752
1.39323
1.39207
1.393
1.3967
1.40415
1.41003
1.4113
1.41092
1.40861
1.40281
1.39799
1.39702
1.39728
1.39864
1
1
1
1
1
1
1
1
1
1
1
1
1
1
1
1
1
1
1
1
1
1
1
1
1
1
1
1
1
1
1
1
1
1
1
1
1
1
1
1
1
1
1
1
1
1
1
1
1
1
1
1
1
1
1
1
1
1
1
1
1
1
1
1
1
1
1
1
1
1
1
1
1
1
1
1
1
1
1
1
1
1
1
1.00007
1.00331
1.06435
1.30522
1.48032
1.5927
1.6479
1.66377
1.67208
1.67624
1.67339
1.66402
1.65893
1.65711
1.65748
1.65658
1.65827
1.66475
1.66925
1.671
1.67065
1.6687
1.66522
1.66229
1.66221
1.66309
1.66293
1.66143
1.65893
1.65542
1.65058
1.64556
1.64068
1.63596
1.63144
1.62632
1.62007
1.61316
1.60686
1.60282
1.60088
1.59895
1.59806
1.59721
1.59554
1.59311
1.59063
1.58662
1.58063
1.57451
1.56983
1.56804
1.56756
1.56668
1.5645
1.56202
1.55961
1.55517
1.54759
1.54184
1.54077
1.5412
1.54243
1.544
1.54371
1.54261
1.54003
1.53517
1.52773
1.52141
1.51791
1.51504
1.51288
1.5119
1.51163
1.5115
1.51151
1.512
1.51395
1.51451
1.51476
1.51502
1.51338
1.5082
1.49929
1.49171
1.48861
1.48656
1.48437
1.4817
1.47892
1.47733
1.4764
1.47586
1.4756
1.47556
1.47587
1.47624
1.47617
1.47535
1.47261
1.46687
1.45954
1.45573
1.45545
1.4561
1.45722
1.45714
1.45536
1.45167
1.44543
1.43797
1.43297
1.43177
1.43274
1.43733
1.44474
1.44764
1.4477
1.44448
1.43471
1.42273
1.41655
1.41361
1.41248
1.4137
1.41671
1.41661
1.415
1.41215
1.40681
1.39949
1.39591
1.39513
1.39639
1.40095
1.4088
1.41434
1.41551
1.41509
1.41249
1.40657
1.40176
1.40055
1.40075
1.4021
1.40359
1
1
1
1
1
1
1
1
1
1
1
1
1
1
1
1
1
1
1
1
1
1
1
1
1
1
1
1
1
1
1
1
1
1
1
1
1
1
1
1
1
1
1
1
1
1
1
1
1
1
1
1
1
1
1
1
1
1
1
1
1
1
1
1
1
1
1
1
1
1
1
1
1
1
1
1
1
1
1
1
1
1
1
1
1.00003
1.0021
1.04015
1.16848
1.37532
1.58711
1.65234
1.68138
1.68234
1.67113
1.65979
1.65874
1.65916
1.6605
1.66095
1.66651
1.6709
1.67213
1.67193
1.67089
1.66945
1.66673
1.66632
1.66723
1.66761
1.6656
1.66245
1.65906
1.6544
1.64964
1.64533
1.6408
1.63622
1.63173
1.62681
1.6203
1.61335
1.60869
1.60677
1.60533
1.6051
1.6051
1.60433
1.60266
1.60014
1.59483
1.58762
1.58073
1.5748
1.57154
1.57006
1.56929
1.56799
1.56507
1.56278
1.55919
1.55236
1.54592
1.54431
1.54452
1.54531
1.54607
1.54603
1.54534
1.54263
1.53748
1.53034
1.52395
1.52069
1.5183
1.51609
1.515
1.51489
1.51488
1.51495
1.51543
1.51735
1.5183
1.5182
1.51825
1.51627
1.51092
1.50168
1.49411
1.49047
1.4884
1.48703
1.48535
1.48358
1.48229
1.48121
1.47997
1.47905
1.4789
1.47897
1.47911
1.47879
1.47744
1.47437
1.4689
1.46217
1.45872
1.45846
1.4593
1.4603
1.46027
1.45881
1.45539
1.44947
1.44229
1.43717
1.43592
1.43678
1.44172
1.44882
1.45121
1.45134
1.44806
1.4379
1.42631
1.42076
1.41805
1.41701
1.41826
1.42129
1.42113
1.41887
1.41527
1.40916
1.40173
1.39845
1.39794
1.3994
1.40453
1.41269
1.41809
1.41926
1.4189
1.41622
1.41013
1.40535
1.40401
1.40424
1.40554
1.40724
1.40615
1
1
1
1
1
1
1
1
1
1
1
1
1
1
1
1
1
1
1
1
1
1
1
1
1
1
1
1
1
1
1
1
1
1
1
1
1
1
1
1
1
1
1
1
1
1
1
1
1
1
1
1
1
1
1
1
1
1
1
1
1
1
1
1
1
1
1
1
1
1
1
1
1
1
1
1
1
1
1
1
1
1
1
1
1
1.00001
1.0007
1.01063
1.08827
1.34924
1.57933
1.66008
1.67513
1.67028
1.66393
1.66541
1.66836
1.66755
1.67006
1.67312
1.67299
1.67134
1.67072
1.67076
1.66961
1.66948
1.67044
1.6713
1.66917
1.66516
1.66166
1.65745
1.65312
1.64961
1.64565
1.64144
1.63791
1.63383
1.62752
1.62018
1.61509
1.61359
1.61316
1.61305
1.61376
1.61344
1.61205
1.60869
1.6021
1.5947
1.58761
1.58096
1.57662
1.57415
1.57238
1.57151
1.56918
1.56638
1.56287
1.55672
1.55015
1.54786
1.5478
1.54834
1.54858
1.54834
1.54751
1.54487
1.53963
1.53215
1.52663
1.52352
1.52158
1.52035
1.51889
1.5187
1.51879
1.51901
1.51955
1.52091
1.52145
1.52139
1.52109
1.51865
1.513
1.50348
1.49613
1.49268
1.49074
1.48966
1.48902
1.48782
1.48702
1.48639
1.48527
1.48353
1.48292
1.48272
1.48238
1.48127
1.4791
1.47556
1.47041
1.46441
1.46125
1.46105
1.46211
1.46306
1.46307
1.46199
1.459
1.45349
1.44652
1.4414
1.44007
1.44086
1.44593
1.45227
1.45403
1.45398
1.45046
1.43999
1.42906
1.42428
1.42205
1.4213
1.42287
1.42605
1.42588
1.42314
1.41884
1.41197
1.40416
1.4009
1.40057
1.40199
1.40735
1.41578
1.42113
1.42236
1.42213
1.41955
1.41332
1.40857
1.40723
1.40753
1.40883
1.41066
1.41003
1.4062
1
1
1
1
1
1
1
1
1
1
1
1
1
1
1
1
1
1
1
1
1
1
1
1
1
1
1
1
1
1
1
1
1
1
1
1
1
1
1
1
1
1
1
1
1
1
1
1
1
1
1
1
1
1
1
1
1
1
1
1
1
1
1
1
1
1
1
1
1
1
1
1
1
1
1
1
1
1
1
1
1
1
1
1
1
1
1
1.0001
1.00378
1.06316
1.3231
1.53427
1.61128
1.65292
1.67672
1.67627
1.67485
1.67663
1.67693
1.67443
1.66801
1.66656
1.66818
1.66949
1.67118
1.67282
1.67342
1.67223
1.6674
1.66261
1.65908
1.65504
1.65201
1.64941
1.64661
1.64425
1.64051
1.63433
1.62719
1.62198
1.62048
1.62132
1.622
1.62293
1.62273
1.62062
1.61576
1.60877
1.60179
1.59494
1.58831
1.58344
1.58018
1.5774
1.57591
1.57384
1.57047
1.56646
1.56043
1.55397
1.55125
1.55093
1.55123
1.55125
1.55096
1.54992
1.54709
1.54178
1.53434
1.52892
1.52589
1.52428
1.52386
1.5239
1.52329
1.5234
1.52366
1.52413
1.52465
1.52466
1.5244
1.52359
1.52083
1.51486
1.50534
1.49845
1.49515
1.49323
1.49241
1.4926
1.49164
1.49098
1.49073
1.49026
1.48908
1.48762
1.48671
1.48548
1.48337
1.48041
1.47657
1.47182
1.46657
1.46363
1.4634
1.46454
1.46558
1.46563
1.46484
1.46227
1.45736
1.45079
1.44577
1.44435
1.44516
1.45013
1.45538
1.45643
1.45604
1.45193
1.44102
1.43101
1.42711
1.42549
1.42519
1.42739
1.43084
1.43066
1.42773
1.42286
1.41511
1.40671
1.40339
1.40309
1.40428
1.40962
1.41824
1.4235
1.42474
1.42462
1.42227
1.41599
1.41126
1.41006
1.41048
1.41184
1.41377
1.41357
1.4102
1.404
1
1
1
1
1
1
1
1
1
1
1
1
1
1
1
1
1
1
1
1
1
1
1
1
1
1
1
1
1
1
1
1
1
1
1
1
1
1
1
1
1
1
1
1
1
1
1
1
1
1
1
1
1
1
1
1
1
1
1
1
1
1
1
1
1
1
1
1
1
1
1
1
1
1
1
1
1
1
1
1
1
1
1
1
1
1
1
1
1.00003
1.00212
1.04892
1.22274
1.39483
1.5802
1.67234
1.67774
1.68252
1.68081
1.6761
1.66549
1.66221
1.66577
1.67027
1.67236
1.67336
1.67283
1.67281
1.66833
1.66191
1.65852
1.65641
1.65338
1.65142
1.65077
1.64952
1.64589
1.64029
1.63406
1.62934
1.62804
1.6289
1.63078
1.63178
1.63137
1.62819
1.622
1.6152
1.60881
1.60259
1.59674
1.59197
1.58817
1.58461
1.5823
1.57966
1.57521
1.57034
1.56405
1.55727
1.5543
1.55379
1.55413
1.55378
1.55339
1.55218
1.54925
1.54386
1.53686
1.53173
1.52838
1.5268
1.5265
1.52804
1.52825
1.52814
1.52836
1.52869
1.52857
1.52791
1.52724
1.52607
1.52321
1.51712
1.50764
1.50115
1.49798
1.4961
1.49516
1.4958
1.49529
1.49428
1.49422
1.49412
1.49362
1.49253
1.49101
1.48866
1.4853
1.48153
1.47765
1.47345
1.46895
1.46608
1.46579
1.46681
1.46775
1.46789
1.46737
1.46524
1.46093
1.45494
1.45029
1.44891
1.44979
1.45464
1.45841
1.45871
1.45773
1.45268
1.44125
1.43235
1.42929
1.42827
1.4285
1.43163
1.43548
1.43534
1.43251
1.42727
1.41863
1.40957
1.40596
1.40555
1.40636
1.41142
1.42011
1.42527
1.42652
1.42651
1.4243
1.41791
1.41326
1.41234
1.41299
1.41454
1.41654
1.41663
1.41388
1.40826
1.40031
1
1
1
1
1
1
1
1
1
1
1
1
1
1
1
1
1
1
1
1
1
1
1
1
1
1
1
1
1
1
1
1
1
1
1
1
1
1
1
1
1
1
1
1
1
1
1
1
1
1
1
1
1
1
1
1
1
1
1
1
1
1
1
1
1
1
1
1
1
1
1
1
1
1
1
1
1
1
1
1
1
1
1
1
1
1
1
1
1
1.00002
1.0011
1.01654
1.09683
1.33095
1.59186
1.66494
1.68044
1.67739
1.66981
1.66025
1.66289
1.6725
1.67559
1.67614
1.67471
1.6729
1.66648
1.6588
1.65625
1.65527
1.65451
1.65286
1.65292
1.65205
1.64887
1.64431
1.63976
1.63654
1.63589
1.63677
1.63864
1.63942
1.63859
1.63457
1.62817
1.62127
1.61547
1.61027
1.60583
1.60182
1.59792
1.59381
1.59065
1.58702
1.58112
1.57538
1.56863
1.56103
1.55714
1.55625
1.55665
1.55618
1.55559
1.55417
1.55134
1.54606
1.53948
1.53465
1.5314
1.52996
1.52971
1.53133
1.53308
1.53251
1.53249
1.53253
1.53194
1.53072
1.5297
1.52843
1.52578
1.51997
1.51069
1.50447
1.50143
1.49972
1.4987
1.49881
1.49851
1.49746
1.49725
1.49719
1.49703
1.49647
1.49511
1.49221
1.48755
1.48293
1.47907
1.47538
1.4716
1.46874
1.46837
1.46917
1.46984
1.46994
1.46955
1.46782
1.46418
1.45896
1.45492
1.45372
1.45482
1.45921
1.4615
1.46115
1.45925
1.4531
1.44131
1.43341
1.43098
1.43041
1.43117
1.43537
1.43975
1.43978
1.43734
1.43194
1.42253
1.41276
1.40874
1.40807
1.40853
1.41314
1.42161
1.42653
1.42775
1.42785
1.42575
1.41926
1.41462
1.41397
1.41495
1.41685
1.41901
1.41929
1.41715
1.41213
1.40467
1.39783
1
1
1
1
1
1
1
1
1
1
1
1
1
1
1
1
1
1
1
1
1
1
1
1
1
1
1
1
1
1
1
1
1
1
1
1
1
1
1
1
1
1
1
1
1
1
1
1
1
1
1
1
1
1
1
1
1
1
1
1
1
1
1
1
1
1
1
1
1
1
1
1
1
1
1
1
1
1
1
1
1
1
1
1
1
1
1
1
1
1
1
1.00015
1.00385
1.05542
1.29594
1.55542
1.63352
1.65433
1.65804
1.66398
1.67127
1.67537
1.67611
1.67407
1.66935
1.66452
1.65914
1.65661
1.65577
1.65506
1.65448
1.65445
1.65375
1.65136
1.64734
1.64347
1.6423
1.6428
1.64477
1.64628
1.64653
1.64459
1.63964
1.6337
1.62705
1.6217
1.61766
1.6148
1.612
1.60858
1.60428
1.60035
1.59564
1.58855
1.58206
1.57502
1.56673
1.56098
1.55898
1.55894
1.55814
1.55732
1.55583
1.55309
1.5481
1.54206
1.53745
1.53466
1.5337
1.53383
1.5355
1.53745
1.53704
1.53632
1.53555
1.53453
1.53299
1.53169
1.53042
1.52812
1.52299
1.51405
1.50787
1.5051
1.50364
1.50288
1.50258
1.50136
1.50055
1.5003
1.50017
1.49997
1.49954
1.49845
1.49571
1.49039
1.48468
1.48066
1.47758
1.47449
1.47164
1.47109
1.47163
1.47203
1.47204
1.47164
1.47018
1.46709
1.46284
1.4597
1.45885
1.46011
1.46374
1.46462
1.46371
1.46089
1.45362
1.44153
1.43437
1.43242
1.4321
1.43333
1.4385
1.44344
1.44375
1.44199
1.43673
1.42671
1.41624
1.41182
1.41077
1.41096
1.41506
1.42301
1.4274
1.42863
1.42884
1.42676
1.42012
1.4154
1.41494
1.4163
1.41872
1.4211
1.42154
1.42005
1.41579
1.40878
1.40194
1.39858
1
1
1
1
1
1
1
1
1
1
1
1
1
1
1
1
1
1
1
1
1
1
1
1
1
1
1
1
1
1
1
1
1
1
1
1
1
1
1
1
1
1
1
1
1
1
1
1
1
1
1
1
1
1
1
1
1
1
1
1
1
1
1
1
1
1
1
1
1
1
1
1
1
1
1
1
1
1
1
1
1
1
1
1
1
1
1
1
1
1
1
1
1.00003
1.00151
1.03587
1.23397
1.43117
1.56032
1.63817
1.66377
1.67581
1.67784
1.6739
1.66348
1.65905
1.6578
1.65678
1.65678
1.6571
1.65744
1.65706
1.65503
1.65295
1.65037
1.64726
1.64608
1.64807
1.65142
1.653
1.65291
1.65031
1.6449
1.63851
1.6326
1.62786
1.62471
1.62328
1.62171
1.61919
1.6149
1.61034
1.60449
1.59677
1.58997
1.58296
1.57463
1.56729
1.56316
1.56172
1.56017
1.55897
1.55736
1.55454
1.54981
1.54437
1.54007
1.53788
1.53745
1.53838
1.54034
1.54202
1.54202
1.54061
1.53857
1.53679
1.53502
1.53349
1.53219
1.53015
1.52579
1.51756
1.51121
1.50868
1.50755
1.50685
1.50631
1.50462
1.50377
1.50349
1.50333
1.50312
1.50262
1.50144
1.49874
1.49344
1.4869
1.48227
1.47954
1.4771
1.47473
1.47404
1.47417
1.47431
1.47429
1.47391
1.47266
1.46996
1.4666
1.46455
1.46411
1.46544
1.46798
1.46785
1.46622
1.4627
1.45452
1.44235
1.4357
1.4339
1.43364
1.4352
1.44114
1.44659
1.44713
1.44611
1.44138
1.43102
1.41991
1.41508
1.41371
1.41372
1.41743
1.4247
1.4282
1.42928
1.42952
1.42751
1.42078
1.41584
1.41538
1.41703
1.42007
1.42279
1.42337
1.42248
1.41912
1.41271
1.40592
1.40248
1.40167
1
1
1
1
1
1
1
1
1
1
1
1
1
1
1
1
1
1
1
1
1
1
1
1
1
1
1
1
1
1
1
1
1
1
1
1
1
1
1
1
1
1
1
1
1
1
1
1
1
1
1
1
1
1
1
1
1
1
1
1
1
1
1
1
1
1
1
1
1
1
1
1
1
1
1
1
1
1
1
1
1
1
1
1
1
1
1
1
1
1
1
1
1
1.00001
1.00072
1.01778
1.10915
1.29128
1.53902
1.63936
1.67514
1.67608
1.66783
1.65532
1.65453
1.65668
1.65989
1.66115
1.66145
1.66046
1.65665
1.6538
1.65173
1.65019
1.64936
1.6517
1.65673
1.65888
1.65812
1.65493
1.64972
1.64305
1.63741
1.63373
1.6316
1.63116
1.63055
1.6288
1.62489
1.61989
1.61282
1.60506
1.59876
1.59216
1.58441
1.57642
1.56984
1.56603
1.56326
1.56131
1.55932
1.55625
1.55173
1.54648
1.54234
1.54067
1.54072
1.54264
1.54479
1.54677
1.54714
1.54558
1.54227
1.5395
1.53724
1.53545
1.53405
1.53207
1.52816
1.52077
1.51464
1.51196
1.51096
1.51028
1.50949
1.50795
1.50716
1.50688
1.50672
1.50653
1.506
1.50468
1.50174
1.4962
1.48898
1.48381
1.48115
1.47907
1.47764
1.47732
1.4775
1.47709
1.47682
1.47655
1.47567
1.47312
1.47033
1.46931
1.46918
1.47034
1.47151
1.47077
1.4687
1.46476
1.45603
1.44396
1.43754
1.43567
1.43538
1.43704
1.44352
1.4493
1.45005
1.44958
1.44554
1.43521
1.42372
1.4185
1.41684
1.41675
1.42025
1.42687
1.42927
1.42999
1.43013
1.42803
1.42136
1.4162
1.41556
1.41724
1.42089
1.42414
1.42484
1.42439
1.42202
1.41632
1.40956
1.40609
1.4055
1.40522
1
1
1
1
1
1
1
1
1
1
1
1
1
1
1
1
1
1
1
1
1
1
1
1
1
1
1
1
1
1
1
1
1
1
1
1
1
1
1
1
1
1
1
1
1
1
1
1
1
1
1
1
1
1
1
1
1
1
1
1
1
1
1
1
1
1
1
1
1
1
1
1
1
1
1
1
1
1
1
1
1
1
1
1
1
1
1
1
1
1
1
1
1
1
1
1.00017
1.00384
1.04077
1.23806
1.51812
1.63175
1.66182
1.65708
1.65377
1.65701
1.66271
1.66636
1.66702
1.66571
1.65963
1.65512
1.65178
1.65177
1.65178
1.65445
1.66044
1.66296
1.66206
1.65885
1.65372
1.64763
1.64202
1.6392
1.63836
1.63848
1.63829
1.63686
1.6331
1.62793
1.62077
1.61337
1.60775
1.60222
1.59577
1.58827
1.57981
1.57278
1.56802
1.5649
1.56242
1.55893
1.55412
1.5485
1.54429
1.54288
1.54363
1.54642
1.54844
1.55078
1.55168
1.55029
1.54628
1.54267
1.53987
1.53775
1.53625
1.53438
1.53079
1.52379
1.51768
1.51486
1.51369
1.51296
1.51202
1.51079
1.51023
1.51019
1.51015
1.51007
1.5096
1.50814
1.50495
1.49911
1.491
1.48519
1.48269
1.48093
1.48009
1.48008
1.48156
1.48177
1.48093
1.48038
1.47971
1.47717
1.47421
1.47366
1.47364
1.47415
1.47413
1.47307
1.4709
1.46687
1.45807
1.44634
1.44003
1.43795
1.43756
1.43929
1.44594
1.45182
1.4527
1.45246
1.44894
1.4389
1.42741
1.42204
1.42016
1.41996
1.42328
1.42951
1.43103
1.4311
1.43089
1.42846
1.42188
1.41666
1.41577
1.41716
1.42112
1.42514
1.42607
1.42588
1.42444
1.4196
1.41297
1.40931
1.4089
1.4089
1.40884
1
1
1
1
1
1
1
1
1
1
1
1
1
1
1
1
1
1
1
1
1
1
1
1
1
1
1
1
1
1
1
1
1
1
1
1
1
1
1
1
1
1
1
1
1
1
1
1
1
1
1
1
1
1
1
1
1
1
1
1
1
1
1
1
1
1
1
1
1
1
1
1
1
1
1
1
1
1
1
1
1
1
1
1
1
1
1
1
1
1
1
1
1
1
1
1
1.00002
1.00096
1.02361
1.21051
1.45381
1.56624
1.62631
1.65078
1.66181
1.67179
1.67278
1.67072
1.66356
1.65749
1.65162
1.65126
1.65267
1.65663
1.66376
1.66682
1.66561
1.66189
1.65629
1.65027
1.64616
1.64466
1.64491
1.64536
1.64545
1.64411
1.63989
1.63422
1.62747
1.62127
1.61651
1.6121
1.60732
1.6014
1.59258
1.58286
1.57527
1.57037
1.56722
1.56328
1.55794
1.55131
1.54647
1.54485
1.54589
1.54919
1.55155
1.55384
1.55486
1.55402
1.55019
1.54616
1.54292
1.54041
1.53879
1.5371
1.53392
1.52717
1.52051
1.51736
1.51603
1.51518
1.51396
1.51307
1.51286
1.51307
1.51354
1.51356
1.51312
1.51155
1.50818
1.50204
1.4932
1.48671
1.48431
1.48294
1.48249
1.48276
1.48496
1.48709
1.48661
1.48599
1.48522
1.48168
1.47789
1.47712
1.4768
1.47644
1.47579
1.4746
1.47264
1.46881
1.46046
1.4494
1.4431
1.44078
1.44025
1.44199
1.44876
1.45444
1.45528
1.4551
1.45174
1.44191
1.43069
1.42548
1.42358
1.42338
1.42655
1.43224
1.43337
1.43297
1.43208
1.42913
1.42246
1.41724
1.41617
1.41717
1.42088
1.42562
1.42711
1.42705
1.42634
1.42242
1.41608
1.41212
1.41169
1.41229
1.41233
1.41255
1
1
1
1
1
1
1
1
1
1
1
1
1
1
1
1
1
1
1
1
1
1
1
1
1
1
1
1
1
1
1
1
1
1
1
1
1
1
1
1
1
1
1
1
1
1
1
1
1
1
1
1
1
1
1
1
1
1
1
1
1
1
1
1
1
1
1
1
1
1
1
1
1
1
1
1
1
1
1
1
1
1
1
1
1
1
1
1
1
1
1
1
1
1
1
1
1
1
1.00047
1.01776
1.13188
1.29727
1.51633
1.61906
1.65572
1.67773
1.6792
1.67316
1.65984
1.65052
1.65013
1.65345
1.65867
1.66555
1.66905
1.66826
1.66474
1.65872
1.65192
1.64892
1.64863
1.65042
1.65219
1.65217
1.65075
1.64594
1.63966
1.6332
1.62823
1.62474
1.62151
1.6181
1.61373
1.60585
1.59536
1.58544
1.57835
1.57426
1.57
1.5643
1.55647
1.54983
1.54729
1.54812
1.551
1.55367
1.55643
1.55744
1.55676
1.55342
1.54915
1.54604
1.54326
1.5415
1.54006
1.53739
1.53114
1.52353
1.51936
1.51777
1.51701
1.51578
1.51491
1.51498
1.51571
1.51671
1.517
1.51661
1.51494
1.51134
1.50482
1.49541
1.48849
1.48611
1.48519
1.48505
1.4857
1.48848
1.49176
1.49211
1.49146
1.49039
1.48623
1.481
1.47934
1.47862
1.4777
1.47673
1.47559
1.47383
1.47049
1.46313
1.45304
1.44663
1.44401
1.44339
1.44512
1.45186
1.4573
1.45801
1.45775
1.45426
1.44443
1.43359
1.42863
1.42689
1.42682
1.43003
1.4352
1.43591
1.43527
1.43388
1.43042
1.42349
1.41803
1.41687
1.41751
1.42067
1.42557
1.42796
1.42801
1.42776
1.42469
1.41877
1.41459
1.41396
1.41469
1.41608
1.41592
1.41599
1
1
1
1
1
1
1
1
1
1
1
1
1
1
1
1
1
1
1
1
1
1
1
1
1
1
1
1
1
1
1
1
1
1
1
1
1
1
1
1
1
1
1
1
1
1
1
1
1
1
1
1
1
1
1
1
1
1
1
1
1
1
1
1
1
1
1
1
1
1
1
1
1
1
1
1
1
1
1
1
1
1
1
1
1
1
1
1
1
1
1
1
1
1
1
1
1
1
1
1.00023
1.00556
1.04291
1.22654
1.49751
1.60928
1.67291
1.68218
1.67258
1.65815
1.65027
1.65338
1.66065
1.66734
1.66984
1.66973
1.66645
1.65961
1.65303
1.65043
1.65074
1.65362
1.65816
1.65871
1.65705
1.65168
1.64437
1.63784
1.63418
1.63219
1.63016
1.62763
1.62423
1.61754
1.60758
1.59685
1.58801
1.58304
1.57889
1.57363
1.56562
1.55612
1.55132
1.55167
1.55348
1.55592
1.55882
1.55992
1.55905
1.55575
1.55119
1.54832
1.54589
1.54419
1.54309
1.54106
1.53559
1.52735
1.52177
1.51924
1.5184
1.51776
1.51683
1.51697
1.51822
1.51971
1.52024
1.51987
1.51804
1.51422
1.50738
1.49766
1.49069
1.48831
1.48779
1.4878
1.48891
1.49228
1.49609
1.49688
1.49616
1.49474
1.49047
1.48416
1.48096
1.47983
1.47864
1.47744
1.47621
1.47464
1.47195
1.46592
1.45707
1.45049
1.44762
1.4469
1.44858
1.45523
1.46029
1.46079
1.4604
1.45667
1.44669
1.43627
1.43159
1.43005
1.43013
1.43344
1.43825
1.43866
1.43778
1.43612
1.43239
1.42524
1.41918
1.41783
1.41832
1.42083
1.42541
1.42853
1.42894
1.42893
1.42647
1.42094
1.41677
1.41588
1.4166
1.41919
1.41948
1.41938
1.41832
1
1
1
1
1
1
1
1
1
1
1
1
1
1
1
1
1
1
1
1
1
1
1
1
1
1
1
1
1
1
1
1
1
1
1
1
1
1
1
1
1
1
1
1
1
1
1
1
1
1
1
1
1
1
1
1
1
1
1
1
1
1
1
1
1
1
1
1
1
1
1
1
1
1
1
1
1
1
1
1
1
1
1
1
1
1
1
1
1
1
1
1
1
1
1
1
1
1
1
1
1.00003
1.00101
1.02287
1.20619
1.44006
1.57706
1.66542
1.6689
1.66001
1.65492
1.65757
1.66524
1.66967
1.66953
1.66851
1.66195
1.65289
1.65107
1.65151
1.65532
1.66178
1.66442
1.66315
1.65756
1.64858
1.64072
1.63856
1.63822
1.63761
1.63584
1.63319
1.6276
1.6184
1.60816
1.59865
1.59301
1.58943
1.58506
1.57801
1.56769
1.55806
1.55733
1.55869
1.56021
1.56233
1.56292
1.56177
1.55789
1.5524
1.54922
1.54761
1.54654
1.54606
1.54478
1.54032
1.53194
1.52491
1.52122
1.5194
1.51939
1.51903
1.51923
1.52094
1.52285
1.52353
1.52306
1.52091
1.51669
1.50952
1.49985
1.49318
1.49098
1.49076
1.4909
1.49246
1.49631
1.50026
1.50097
1.50015
1.49847
1.49412
1.48689
1.48256
1.48103
1.47959
1.4781
1.47678
1.47548
1.47341
1.46877
1.46125
1.45473
1.45161
1.45076
1.45237
1.45877
1.46349
1.46375
1.46308
1.45898
1.44874
1.43879
1.43448
1.43307
1.43326
1.43667
1.44115
1.44144
1.44058
1.43876
1.43485
1.42771
1.4209
1.41907
1.41945
1.42142
1.42555
1.42903
1.42988
1.42997
1.42787
1.42264
1.41854
1.41754
1.41829
1.42138
1.42312
1.4228
1.4219
1.41922
1
1
1
1
1
1
1
1
1
1
1
1
1
1
1
1
1
1
1
1
1
1
1
1
1
1
1
1
1
1
1
1
1
1
1
1
1
1
1
1
1
1
1
1
1
1
1
1
1
1
1
1
1
1
1
1
1
1
1
1
1
1
1
1
1
1
1
1
1
1
1
1
1
1
1
1
1
1
1
1
1
1
1
1
1
1
1
1
1
1
1
1
1
1
1
1
1
1
1
1
1
1
1.00045
1.01773
1.1296
1.30613
1.53543
1.64055
1.64512
1.65383
1.66461
1.67129
1.67176
1.67069
1.66604
1.65446
1.65003
1.65087
1.6547
1.66263
1.66744
1.6673
1.66316
1.65267
1.6431
1.64082
1.64143
1.64328
1.64306
1.64101
1.63617
1.62763
1.61808
1.60915
1.60353
1.60106
1.59809
1.59229
1.58318
1.57075
1.56454
1.56528
1.5663
1.56784
1.56767
1.5656
1.56078
1.55357
1.54924
1.54842
1.54813
1.54824
1.54787
1.54482
1.53719
1.5288
1.52396
1.52116
1.52095
1.5212
1.52198
1.5242
1.52634
1.52703
1.5263
1.5236
1.51866
1.51113
1.50189
1.4959
1.49394
1.49395
1.49433
1.49632
1.50044
1.50413
1.50451
1.50342
1.50163
1.49753