/*--------------------------------*- C++ -*----------------------------------*\
  =========                 |
  \\      /  F ield         | OpenFOAM: The Open Source CFD Toolbox
   \\    /   O peration     | Website:  https://openfoam.org
    \\  /    A nd           | Version:  7
     \\/     M anipulation  |
\*---------------------------------------------------------------------------*/
FoamFile
{
    version     2.0;
    format      ascii;
    class       volScalarField;
    location    "3.3";
    object      p;
}
// * * * * * * * * * * * * * * * * * * * * * * * * * * * * * * * * * * * * * //

dimensions      [1 -1 -2 0 0 0 0];

internalField   nonuniform List<scalar> 
4128
(
3.21864
3.17204
3.13606
3.10412
3.04523
2.96395
2.88009
2.80942
2.79188
2.77193
2.74107
2.70107
2.6696
2.65156
2.62119
2.57905
2.51466
2.42267
2.38743
2.36701
2.34152
2.30813
2.28291
2.25831
2.22867
2.20589
2.18506
2.1554
2.10811
2.04144
2.00057
1.98028
1.96665
1.9578
1.94491
1.92741
1.91043
1.89317
1.86641
1.81046
1.74038
1.71571
1.70912
1.70567
1.70149
1.69196
1.68298
1.67456
1.66386
1.64939
1.62652
1.57869
1.51621
1.48758
1.48193
1.4766
1.47351
1.47292
1.47195
1.46537
1.45673
1.44726
1.43412
1.40267
1.34758
1.30889
1.30236
1.29849
1.29692
1.30051
1.30086
1.29553
1.29011
1.28386
1.27212
1.24058
1.19527
1.18277
1.19384
1.3147
1.73967
2.29259
2.75067
2.79986
2.77798
2.69893
2.61468
2.56131
2.53504
2.53039
2.56906
2.6539
2.80415
3.04972
3.20476
3.18338
3.1204
3.09195
3.09614
3.13124
3.14457
3.11252
3.07244
3.01816
2.94667
2.89953
2.87337
2.85396
2.84757
2.84187
2.81758
2.78949
2.75404
2.71894
2.69658
2.67877
2.66802
2.65487
2.63557
2.61421
2.58618
2.54635
2.50968
2.48912
2.4722
2.45726
2.44356
2.42574
2.40718
3.26297
3.21009
3.17319
3.12644
3.05034
2.97144
2.90347
2.86581
2.85052
2.82498
2.78907
2.74355
2.71471
2.69017
2.65182
2.60075
2.51475
2.45223
2.43556
2.41364
2.3839
2.34794
2.31868
2.2902
2.25953
2.23713
2.21433
2.18173
2.12697
2.06726
2.03768
2.01715
2.00253
1.99428
1.98117
1.96329
1.94391
1.91982
1.87571
1.80529
1.76525
1.75635
1.74823
1.74434
1.73879
1.72686
1.71457
1.70354
1.69036
1.67074
1.63127
1.56875
1.52736
1.52038
1.51539
1.51209
1.51038
1.50881
1.5041
1.49609
1.48577
1.47226
1.44581
1.39366
1.34404
1.33204
1.32822
1.32609
1.32753
1.33094
1.32707
1.32139
1.31531
1.30598
1.28221
1.23458
1.21119
1.22672
1.36319
1.87888
2.42575
2.76428
2.83393
2.81347
2.77846
2.70746
2.63231
2.59801
2.58391
2.5968
2.66879
2.79306
3.02057
3.242
3.24789
3.19759
3.15455
3.13408
3.14956
3.18014
3.17256
3.13455
3.0898
3.02779
2.97
2.94019
2.91791
2.90625
2.90095
2.87746
2.84922
2.81418
2.77127
2.74218
2.72213
2.70782
2.70182
2.68649
2.66615
2.64352
2.61046
2.56634
2.53621
2.51803
2.50236
2.491
2.4776
2.45999
2.44103
3.30577
3.24849
3.19944
3.13207
3.05143
2.99149
2.94753
2.92766
2.90801
2.8772
2.83711
2.79015
2.75844
2.72388
2.67609
2.60491
2.52215
2.49908
2.48374
2.45963
2.42533
2.38647
2.35342
2.32227
2.2923
2.2703
2.24541
2.20856
2.14405
2.09254
2.07377
2.05426
2.03797
2.02953
2.01619
1.99793
1.97671
1.94261
1.87713
1.81486
1.80447
1.79673
1.7861
1.77971
1.77242
1.75991
1.7455
1.73172
1.71424
1.68247
1.62316
1.56942
1.55891
1.55498
1.55093
1.54826
1.54591
1.54211
1.53595
1.52653
1.51284
1.48917
1.44055
1.38405
1.36233
1.35841
1.35613
1.35627
1.35931
1.35891
1.35365
1.34726
1.33901
1.32156
1.27867
1.24262
1.26796
1.45057
1.96429
2.57912
2.84429
2.92273
2.8967
2.83945
2.77069
2.69571
2.64606
2.62977
2.63245
2.68517
2.79578
2.99518
3.25381
3.30893
3.272
3.23461
3.2049
3.20311
3.21999
3.21963
3.18807
3.14818
3.09649
3.03826
3.00356
2.97997
2.96552
2.96146
2.94109
2.91231
2.87874
2.83325
2.79208
2.76876
2.74992
2.73896
2.73441
2.71571
2.69378
2.66821
2.62945
2.58566
2.5611
2.5447
2.53259
2.52427
2.50877
2.48983
2.46889
3.34519
3.27731
3.21026
3.13181
3.07085
3.03006
3.00372
2.98742
2.96136
2.92669
2.8857
2.8387
2.79992
2.75308
2.6861
2.60092
2.55981
2.54843
2.52998
2.50443
2.46568
2.42378
2.38885
2.35604
2.32776
2.30494
2.27674
2.23071
2.15798
2.12264
2.11026
2.09147
2.07407
2.06456
2.05036
2.02985
2.00519
1.96039
1.88337
1.84628
1.84134
1.83531
1.82182
1.81207
1.8038
1.7915
1.776
1.75907
1.73343
1.6804
1.61677
1.59554
1.59385
1.5921
1.58687
1.5834
1.57991
1.57478
1.56724
1.55522
1.53388
1.48912
1.42803
1.39462
1.38938
1.38704
1.38676
1.38761
1.38979
1.38686
1.38044
1.37237
1.35862
1.32383
1.28189
1.30745
1.55935
2.10101
2.68605
2.97546
2.98233
2.96325
2.90171
2.81733
2.74951
2.69504
2.67622
2.67685
2.71804
2.82425
2.99772
3.25783
3.39776
3.35085
3.2997
3.26541
3.25532
3.276
3.28036
3.24911
3.21302
3.16635
3.1047
3.06337
3.03732
3.0193
3.016
3.00389
2.97628
2.94606
2.90377
2.85138
2.81831
2.7967
2.77956
2.77324
2.76611
2.74437
2.72093
2.68969
2.64308
2.60509
2.58609
2.57152
2.5627
2.55473
2.53879
2.52008
2.4959
3.37525
3.29277
3.21181
3.14677
3.11229
3.08165
3.0623
3.04378
3.01085
2.97457
2.93516
2.88777
2.83722
2.76667
2.67936
2.62382
2.60971
2.59564
2.57417
2.54662
2.50475
2.46091
2.4256
2.39233
2.36435
2.3384
2.30418
2.24328
2.17458
2.15814
2.1476
2.12868
2.11121
2.0997
2.08416
2.06032
2.02947
1.97749
1.90776
1.88155
1.87579
1.87048
1.85597
1.84322
1.83405
1.82217
1.80593
1.78374
1.74143
1.67224
1.63289
1.62897
1.63045
1.62861
1.62204
1.6182
1.61354
1.60693
1.59703
1.5793
1.54156
1.47753
1.43016
1.42153
1.41873
1.41871
1.418
1.41832
1.41935
1.41455
1.40629
1.39414
1.36852
1.32647
1.36328
1.65214
2.29625
2.72434
2.98438
3.06365
3.05309
3.018
2.93371
2.819
2.74846
2.72315
2.71768
2.74978
2.84351
2.9959
3.25503
3.46068
3.44929
3.3778
3.33207
3.30975
3.32117
3.34098
3.32079
3.28388
3.24196
3.18112
3.12592
3.09575
3.07271
3.06409
3.06362
3.03972
3.01083
2.97568
2.92351
2.87414
2.84737
2.82665
2.8132
2.81169
2.79751
2.77372
2.74692
2.70723
2.65828
2.62952
2.61278
2.60055
2.59413
2.58237
2.56379
2.54358
2.51645
3.3904
3.29499
3.22553
3.19193
3.16383
3.1386
3.12167
3.09559
3.05931
3.02298
2.98322
2.9275
2.85124
2.76012
2.69018
2.67068
2.65758
2.63932
2.61637
2.58546
2.54281
2.49953
2.4652
2.43305
2.40292
2.3697
2.3224
2.24779
2.20389
2.19607
2.18579
2.16657
2.1494
2.13536
2.11847
2.0909
2.05147
1.99705
1.94004
1.91557
1.90924
1.90308
1.88792
1.87407
1.86418
1.85211
1.83413
1.80249
1.73947
1.67621
1.66539
1.66261
1.66673
1.66388
1.65626
1.65179
1.64631
1.63789
1.62358
1.59423
1.53398
1.47145
1.45422
1.45084
1.45092
1.45048
1.44777
1.44866
1.44764
1.44083
1.42929
1.41066
1.38194
1.43523
1.77036
2.4234
2.91898
3.09408
3.12042
3.09645
3.06004
3.01689
2.9363
2.8321
2.78065
2.7611
2.77085
2.84845
2.98923
3.21517
3.47305
3.5361
3.47835
3.42594
3.39395
3.38453
3.39498
3.38371
3.34651
3.306
3.25438
3.19324
3.15602
3.13014
3.11318
3.11427
3.10314
3.07381
3.04167
2.99573
2.93656
2.89862
2.87597
2.85798
2.8521
2.85026
2.82921
2.80394
2.77083
2.72182
2.68056
2.66
2.64482
2.63543
2.62724
2.60954
2.58921
2.56524
2.53042
3.39407
3.30778
3.27185
3.2479
3.21735
3.19699
3.17607
3.14297
3.10742
3.07028
3.02419
2.94307
2.84508
2.76603
2.73198
2.71729
2.70033
2.68053
2.65614
2.6223
2.58067
2.54099
2.50938
2.47889
2.44347
2.39251
2.32209
2.26141
2.2428
2.23579
2.22468
2.2054
2.18876
2.17278
2.15347
2.12213
2.07109
2.01605
1.97195
1.94859
1.94162
1.93504
1.91923
1.90469
1.89415
1.88157
1.85887
1.81315
1.73937
1.70398
1.69885
1.69653
1.70082
1.69722
1.68865
1.68332
1.67653
1.66538
1.64371
1.59552
1.52401
1.48834
1.48393
1.48243
1.48405
1.47953
1.47719
1.47755
1.47371
1.46396
1.45011
1.44412
1.53445
1.92567
2.61147
3.01279
3.12735
3.14528
3.13708
3.09092
3.04562
2.99828
2.92678
2.86866
2.84442
2.83838
2.87847
2.9919
3.1855
3.46959
3.58079
3.55159
3.51021
3.47388
3.45961
3.46194
3.45053
3.41499
3.37547
3.32222
3.25633
3.2167
3.19076
3.17167
3.16943
3.16862
3.14079
3.10701
3.06389
3.00324
2.95131
2.92519
2.90505
2.89276
2.8946
2.88279
2.85816
2.83027
2.78829
2.73805
2.71077
2.69399
2.68111
2.67274
2.65681
2.63589
2.61273
2.58319
2.5445
3.39992
3.35449
3.33408
3.30175
3.2734
3.25391
3.2236
3.18765
3.15128
3.11036
3.04249
2.93872
2.85164
2.80598
2.77948
2.76016
2.74114
2.72013
2.69329
2.65852
2.6205
2.58654
2.5574
2.52466
2.47241
2.38842
2.32217
2.29951
2.2852
2.27515
2.26382
2.24547
2.22918
2.21226
2.18928
2.15136
2.08521
2.03389
2.00403
1.98154
1.97238
1.966
1.95077
1.93468
1.92243
1.90811
1.87908
1.81993
1.76238
1.74077
1.7329
1.72972
1.7321
1.72741
1.71815
1.71168
1.70354
1.68929
1.6572
1.59109
1.52911
1.51829
1.51519
1.51643
1.51322
1.50716
1.50623
1.50367
1.49721
1.48628
1.50362
1.65605
2.18564
2.72834
3.07747
3.19976
3.21532
3.20994
3.1877
3.13248
3.06577
2.99774
2.93505
2.90953
2.90232
2.92669
3.01956
3.18887
3.45527
3.64332
3.62556
3.57558
3.54241
3.52678
3.53442
3.52973
3.49472
3.45428
3.39903
3.32433
3.26903
3.24122
3.22125
3.21913
3.2305
3.21122
3.17723
3.13581
3.07382
3.00719
2.97306
2.95154
2.93514
2.93123
2.93043
2.90887
2.88297
2.84935
2.79945
2.76083
2.74252
2.72855
2.71982
2.70666
2.68638
2.66378
2.6351
2.59465
2.55559
3.44071
3.42235
3.39471
3.35496
3.33093
3.30406
3.26775
3.23067
3.19203
3.13627
3.04368
2.93734
2.88112
2.85263
2.82414
2.80214
2.78282
2.75922
2.72966
2.69673
2.66521
2.63645
2.606
2.55839
2.47178
2.38284
2.35162
2.3438
2.32946
2.31556
2.30388
2.28751
2.27218
2.25467
2.22767
2.17501
2.0918
2.0544
2.03618
2.01478
2.00322
1.99711
1.98353
1.96486
1.94922
1.93163
1.89717
1.83381
1.79812
1.78232
1.7676
1.76137
1.76027
1.75561
1.74556
1.73648
1.72615
1.70801
1.66547
1.59021
1.55369
1.54931
1.54818
1.54789
1.53916
1.53464
1.53229
1.53002
1.52636
1.56769
1.76557
2.39583
2.96567
3.2153
3.3235
3.32819
3.30101
3.26489
3.21721
3.1478
3.06196
2.9949
2.96609
2.95376
2.97048
3.04415
3.19555
3.44468
3.69249
3.71327
3.64725
3.60746
3.58682
3.59097
3.59716
3.57148
3.53259
3.48612
3.41089
3.33435
3.29866
3.27416
3.26412
3.27957
3.27711
3.24564
3.2084
3.15315
3.07816
3.02777
3.00334
2.98431
2.97355
2.97238
2.95457
2.92894
2.90028
2.85945
2.81331
2.7891
2.77342
2.76202
2.75272
2.73589
2.71552
2.69091
2.65431
2.60741
2.57705
3.51378
3.4872
3.44285
3.40465
3.37818
3.34544
3.31021
3.27301
3.22764
3.15075
3.03868
2.95496
2.92171
2.89674
2.86509
2.84402
2.82428
2.79729
2.76778
2.74001
2.71447
2.68706
2.64572
2.56235
2.46285
2.40779
2.39519
2.38884
2.37423
2.3585
2.34687
2.33233
2.31744
2.29835
2.26151
2.17818
2.10026
2.08095
2.06712
2.04795
2.03491
2.02693
2.0161
1.99784
1.97691
1.95563
1.91802
1.85926
1.83006
1.82064
1.80568
1.79147
1.78633
1.78165
1.77081
1.75797
1.74416
1.72212
1.67483
1.60663
1.58356
1.58053
1.58081
1.57528
1.56582
1.55944
1.55815
1.56937
1.65198
1.9589
2.56718
3.21663
3.33924
3.35973
3.33258
3.31736
3.28126
3.25148
3.21823
3.15349
3.06984
3.02553
3.00761
3.00965
3.06154
3.19663
3.42418
3.7131
3.79768
3.73995
3.68407
3.6524
3.64611
3.65785
3.6445
3.60706
3.56655
3.50612
3.42341
3.37173
3.34332
3.32428
3.32925
3.3373
3.30999
3.27444
3.22786
3.15744
3.09113
3.05989
3.03852
3.02363
3.01846
3.00363
2.97889
2.95303
2.91671
2.86569
2.83334
2.81619
2.80197
2.79183
2.7807
2.76326
2.7427
2.71561
2.67392
2.62944
2.60429
3.582
3.54136
3.4889
3.44744
3.41313
3.37926
3.34564
3.30984
3.25295
3.15561
3.04916
2.99381
2.96767
2.93917
2.90311
2.88559
2.86469
2.83495
2.80869
2.78679
2.76411
2.73108
2.65606
2.54812
2.4806
2.45382
2.44236
2.43451
2.41933
2.40434
2.39304
2.3796
2.36261
2.33562
2.27015
2.16727
2.12366
2.11218
2.09714
2.08096
2.06967
2.05815
2.04611
2.03122
2.00971
1.98168
1.94277
1.88941
1.85919
1.85144
1.84148
1.82388
1.81162
1.80501
1.79337
1.77723
1.76019
1.73633
1.69221
1.6342
1.61353
1.61088
1.61024
1.60172
1.59121
1.5864
1.60524
1.74622
2.21142
2.85618
3.38467
3.38794
3.38414
3.36949
3.36723
3.34984
3.31501
3.28426
3.24557
3.17634
3.10196
3.0756
3.06586
3.09066
3.20212
3.42045
3.7097
3.87731
3.84628
3.7714
3.72814
3.70582
3.70877
3.71057
3.67644
3.63545
3.58592
3.51326
3.44536
3.41233
3.38857
3.38043
3.39128
3.37399
3.33954
3.29947
3.23767
3.16136
3.11971
3.09688
3.07903
3.06975
3.05565
3.03122
3.00574
2.97551
2.93289
2.88674
2.86108
2.84413
2.82986
2.81804
2.80232
2.78329
2.76161
2.73213
2.69254
2.65928
2.63858
3.63906
3.58597
3.52864
3.48138
3.44225
3.40628
3.37489
3.33692
3.26807
3.1664
3.08208
3.04319
3.01595
2.97822
2.94507
2.93252
2.9083
2.87641
2.85323
2.83419
2.80849
2.74902
2.63824
2.55319
2.52634
2.50427
2.49094
2.47974
2.46515
2.45233
2.44094
2.42603
2.40161
2.35162
2.25574
2.17168
2.15657
2.14605
2.12913
2.11561
2.10637
2.09453
2.07958
2.06477
2.04633
2.01166
1.96306
1.92043
1.89163
1.88073
1.87117
1.8545
1.83685
1.82682
1.81434
1.79698
1.77822
1.75499
1.7162
1.66453
1.64278
1.63911
1.63708
1.6281
1.62192
1.64971
1.84095
2.44682
3.18431
3.42705
3.50529
3.46427
3.43275
3.43473
3.44539
3.42361
3.38327
3.33841
3.27288
3.1876
3.13486
3.12215
3.13252
3.21488
3.41393
3.71115
3.94403
3.93428
3.864
3.80469
3.77081
3.76053
3.76638
3.74507
3.7053
3.66164
3.59668
3.52107
3.48135
3.45552
3.43956
3.44374
3.43755
3.40463
3.36821
3.31829
3.24338
3.18036
3.15285
3.13261
3.11918
3.10841
3.08559
3.06043
3.03283
2.99499
2.94632
2.91264
2.89224
2.87481
2.85961
2.84216
2.82208
2.8006
2.77508
2.74046
2.70685
2.68835
2.6726
3.68297
3.62078
3.56175
3.51035
3.4647
3.42804
3.39901
3.35682
3.2818
3.19031
3.1319
3.09835
3.0615
3.01353
2.99305
2.9801
2.95116
2.92109
2.8994
2.87819
2.83288
2.73112
2.62908
2.59476
2.57711
2.55654
2.53866
2.52373
2.51128
2.5005
2.48751
2.46635
2.42311
2.34234
2.24464
2.20439
2.19422
2.18059
2.16434
2.15418
2.14606
2.13455
2.12068
2.10482
2.08144
2.03181
1.97444
1.94916
1.93092
1.91354
1.89842
1.87988
1.85991
1.84756
1.83499
1.81952
1.80137
1.77892
1.74333
1.69426
1.66993
1.66499
1.66303
1.66506
1.71691
2.01038
2.67713
3.37976
3.60197
3.62767
3.60523
3.56529
3.52727
3.50042
3.47799
3.4421
3.3958
3.3393
3.26552
3.19628
3.17171
3.17459
3.2318
3.41093
3.69801
3.98323
4.03305
3.96823
3.88861
3.84639
3.82482
3.82459
3.81503
3.77767
3.73627
3.68027
3.6032
3.54631
3.51657
3.49595
3.49276
3.49552
3.46819
3.43458
3.39618
3.33504
3.25676
3.21319
3.19004
3.17039
3.15607
3.13752
3.11303
3.08725
3.05626
3.01391
2.96978
2.94441
2.92575
2.90801
2.88893
2.86777
2.84469
2.81832
2.78499
2.74762
2.72655
2.71175
2.6989
3.71032
3.64515
3.58806
3.53421
3.48537
3.45061
3.42048
3.372
3.29628
3.22773
3.19089
3.1541
3.10066
3.05983
3.04792
3.02432
2.99307
2.96669
2.94338
2.90708
2.82106
2.71013
2.66414
2.64751
2.6278
2.60623
2.58431
2.56833
2.55762
2.54686
2.52933
2.49252
2.41853
2.32709
2.26436
2.24712
2.23372
2.21775
2.20535
2.19802
2.1895
2.17823
2.16563
2.14698
2.10077
2.03152
1.99158
1.97919
1.96629
1.94829
1.9275
1.90293
1.88221
1.86933
1.85687
1.84439
1.82764
1.8048
1.77022
1.72135
1.69605
1.69253
1.70261
1.81414
2.25601
2.93176
3.56025
3.80997
3.79821
3.72138
3.64172
3.58182
3.54967
3.52066
3.49064
3.4535
3.40696
3.33972
3.27096
3.24479
3.24033
3.27733
3.41618
3.68605
4.00885
4.11912
4.06389
3.97598
3.92353
3.89534
3.89086
3.89048
3.85629
3.81493
3.76325
3.68483
3.6159
3.58254
3.55772
3.5461
3.54938
3.53018
3.49845
3.46633
3.42306
3.35491
3.28585
3.25223
3.22952
3.20967
3.19006
3.16633
3.1411
3.11305
3.07635
3.02896
2.99453
2.97462
2.95645
2.93744
2.91719
2.89622
2.87256
2.84023
2.79533
2.76212
2.74503
2.7307
2.71943
3.73324
3.67082
3.61357
3.55754
3.50913
3.47731
3.44436
3.38868
3.31982
3.28189
3.25055
3.20196
3.14298
3.11972
3.09738
3.06502
3.03667
3.01083
2.9767
2.90118
2.79295
2.73537
2.71885
2.69943
2.67776
2.654
2.62858
2.61362
2.60348
2.5892
2.55907
2.49296
2.40055
2.33095
2.30665
2.29189
2.27542
2.26088
2.25237
2.24577
2.23539
2.22294
2.20665
2.16855
2.09348
2.03737
2.02411
2.01261
1.99744
1.97933
1.95651
1.92764
1.9082
1.89498
1.88195
1.87043
1.85416
1.82875
1.79189
1.74578
1.73017
1.75173
1.90863
2.52939
3.28339
3.74952
3.91548
3.89571
3.80605
3.68942
3.63406
3.60036
3.5795
3.56311
3.53084
3.49503
3.4432
3.36495
3.31279
3.30304
3.32478
3.43648
3.67947
4.02083
4.19912
4.16872
4.07003
4.00641
3.97145
3.95936
3.96633
3.9425
3.89945
3.84928
3.77305
3.6918
3.65216
3.62643
3.60992
3.60656
3.58779
3.5563
3.52517
3.4899
3.44326
3.38094
3.32387
3.29204
3.26806
3.24419
3.2193
3.19389
3.16739
3.137
3.09739
3.05352
3.02592
3.00604
2.9862
2.96563
2.94426
2.92104
2.89346
2.85737
2.81476
2.78488
2.76735
2.75301
2.74032
3.75655
3.69765
3.64231
3.58829
3.54312
3.51197
3.47132
3.40898
3.3632
3.33912
3.30018
3.23991
3.20227
3.17731
3.14146
3.1082
3.08023
3.04464
2.97445
2.87211
2.80484
2.7899
2.77075
2.74962
2.72804
2.70174
2.67458
2.66112
2.6482
2.62196
2.56333
2.4724
2.39375
2.36653
2.35326
2.33744
2.32124
2.30997
2.30301
2.29355
2.28068
2.26414
2.22919
2.15755
2.08792
2.06794
2.05901
2.04656
2.03002
2.01049
1.98388
1.95317
1.93738
1.92435
1.9101
1.89555
1.87612
1.84806
1.80553
1.78591
1.82922
2.09466
2.72241
3.62738
3.97776
3.973
3.91735
3.82902
3.74005
3.68009
3.66204
3.65108
3.6516
3.62892
3.59513
3.55196
3.47486
3.39023
3.36407
3.37433
3.45931
3.67751
4.0056
4.26903
4.27516
4.19741
4.10372
4.05884
4.03473
4.03272
4.02013
3.9793
3.93362
3.86919
3.78001
3.72317
3.69647
3.67632
3.66631
3.64745
3.61543
3.58355
3.54919
3.50877
3.46263
3.41444
3.36844
3.33095
3.30165
3.2746
3.24772
3.22035
3.19135
3.15845
3.11986
3.08309
3.05675
3.03561
3.01515
2.99394
2.971
2.94491
2.91215
2.86888
2.82993
2.8095
2.79359
2.77747
2.76
3.78457
3.72315
3.66882
3.62045
3.58543
3.55313
3.50355
3.44931
3.4225
3.38734
3.33224
3.28452
3.25723
3.22067
3.18283
3.15333
3.11818
3.05068
2.94988
2.8734
2.85644
2.84041
2.81788
2.79875
2.77755
2.75027
2.72555
2.71004
2.68561
2.63006
2.54132
2.45733
2.42426
2.41346
2.39934
2.38392
2.37173
2.36213
2.35207
2.33909
2.32262
2.2906
2.22077
2.13951
2.10975
2.10441
2.09438
2.08009
2.06392
2.04322
2.01306
1.98186
1.96816
1.95558
1.94095
1.9204
1.90028
1.85818
1.84869
1.93124
2.38385
3.08552
3.76968
4.07776
4.06946
4.02662
3.94801
3.838
3.77542
3.75338
3.74185
3.73585
3.71324
3.67356
3.62357
3.55447
3.47052
3.42203
3.425
3.48447
3.68951
3.99577
4.30894
4.36372
4.32317
4.22518
4.15085
4.11318
4.09389
4.08684
4.05536
4.01304
3.96399
3.88851
3.81107
3.77608
3.75144
3.73181
3.7108
3.67923
3.64529
3.6096
3.57162
3.53201
3.4921
3.4515
3.40807
3.36612
3.33187
3.30245
3.27406
3.24518
3.21481
3.18208
3.14766
3.11486
3.08772
3.06567
3.04487
3.02309
2.99887
2.96979
2.93102
2.88418
2.85139
2.83273
2.81606
2.79868
2.78017
3.81481
3.74962
3.6937
3.65037
3.62533
3.59461
3.54513
3.51217
3.47993
3.42563
3.36397
3.3315
3.2982
3.25788
3.2243
3.18936
3.12945
3.03171
2.94584
2.92148
2.91055
2.88641
2.8653
2.84759
2.82578
2.80075
2.77902
2.75193
2.69766
2.61046
2.52062
2.48114
2.47237
2.46
2.44437
2.43407
2.42445
2.41209
2.39813
2.38156
2.35217
2.28548
2.19667
2.15136
2.14492
2.14091
2.12966
2.1151
2.09861
2.07593
2.04438
2.01552
2.00337
1.99177
1.97253
1.94776
1.90557
1.91371
2.07778
2.69465
3.51666
3.95268
4.19518
4.20414
4.15079
4.08391
3.99505
3.90712
3.86655
3.84263
3.81762
3.78509
3.74388
3.69256
3.63116
3.55008
3.49103
3.48207
3.52379
3.70435
4.01309
4.32907
4.45872
4.43442
4.35892
4.25796
4.20117
4.16772
4.14817
4.13029
4.09271
4.05012
3.99786
3.92283
3.85714
3.82559
3.79976
3.77324
3.7422
3.70909
3.67401
3.63674
3.59912
3.56294
3.52685
3.48658
3.43985
3.39497
3.36052
3.33143
3.30285
3.27316
3.24166
3.20846
3.17463
3.14199
3.11441
3.09273
3.07261
3.05119
3.02666
2.99523
2.95102
2.90454
2.87652
2.85625
2.83629
2.81632
2.79686
3.84007
3.78091
3.72774
3.6896
3.66999
3.6384
3.5978
3.56952
3.52511
3.45285
3.4018
3.3731
3.3351
3.2962
3.2598
3.20773
3.11886
3.02349
2.9873
2.97978
2.95917
2.93433
2.91627
2.89763
2.87542
2.8528
2.82346
2.76716
2.68072
2.58707
2.53956
2.53104
2.52011
2.50446
2.4933
2.4876
2.47509
2.45888
2.44174
2.41484
2.35105
2.25796
2.19688
2.18636
2.18426
2.17694
2.16457
2.15126
2.13353
2.10907
2.0795
2.05603
2.04492
2.02996
1.99571
1.95943
2.00557
2.29491
2.99803
3.90532
4.21522
4.29059
4.27954
4.21694
4.15832
4.09912
4.00699
3.93901
3.90132
3.86966
3.84043
3.80446
3.76457
3.71686
3.6603
3.5932
3.56179
3.58857
3.73572
4.04064
4.35732
4.5407
4.53502
4.4831
4.38251
4.29254
4.249
4.2194
4.19992
4.17211
4.13295
4.09057
4.03927
3.97244
3.90703
3.86656
3.83523
3.80346
3.77071
3.73709
3.70257
3.66791
3.63386
3.59959
3.5623
3.51782
3.46653
3.42162
3.3892
3.36117
3.33326
3.30423
3.27316
3.23935
3.20333
3.16823
3.13943
3.11734
3.09683
3.07506
3.05015
3.01808
2.9759
2.93605
2.90842
2.8852
2.86207
2.83848
2.81492
3.86503
3.81141
3.76289
3.73352
3.71866
3.68803
3.65571
3.61866
3.55573
3.47776
3.44044
3.41018
3.37135
3.33325
3.28662
3.20891
3.1074
3.0571
3.04813
3.03388
3.00694
2.98595
2.96856
2.94852
2.92649
2.89729
2.83991
2.75208
2.65584
2.60105
2.59075
2.58061
2.56572
2.55273
2.54841
2.54086
2.52316
2.50401
2.47802
2.41823
2.32272
2.24731
2.22994
2.22631
2.22383
2.21255
2.2001
2.18733
2.16866
2.14432
2.12159
2.10163
2.08752
2.04784
2.02897
2.12659
2.64762
3.41748
4.14462
4.37224
4.39163
4.37066
4.31802
4.23187
4.15621
4.08541
4.00542
3.95431
3.92153
3.89463
3.86678
3.83303
3.79578
3.75478
3.70912
3.64662
3.64616
3.75895
4.05384
4.37687
4.6013
4.62826
4.59591
4.51679
4.40708
4.33606
4.29927
4.27205
4.24875
4.21279
4.174
4.13159
4.08113
4.02087
3.95899
3.90839
3.86809
3.83214
3.79799
3.76478
3.73259
3.7012
3.66936
3.63498
3.59405
3.54229
3.4869
3.44573
3.41671
3.39027
3.36351
3.33522
3.30418
3.2693
3.23138
3.19524
3.16581
3.14155
3.11841
3.09433
3.06752
3.03485
2.99653
2.96271
2.9376
2.91543
2.8929
2.86859
2.84143
3.8965
3.85094
3.80517
3.78035
3.76375
3.73293
3.69875
3.65271
3.57626
3.51312
3.48316
3.44866
3.40647
3.35972
3.29495
3.20032
3.1335
3.12058
3.11138
3.08426
3.05795
3.03893
3.01982
2.99842
2.97084
2.91499
2.82537
2.72579
2.66404
2.65095
2.64113
2.62691
2.61368
2.6076
2.60626
2.59082
2.56947
2.54368
2.4886
2.39204
2.30403
2.27608
2.26979
2.26939
2.26096
2.24862
2.237
2.22372
2.20526
2.18467
2.16404
2.14762
2.10148
2.12176
2.31775
3.00717
3.89713
4.3531
4.50202
4.47054
4.42805
4.39786
4.3581
4.28802
4.19518
4.09549
4.03383
4.00139
3.97544
3.96051
3.93348
3.89719
3.85745
3.81164
3.73975
3.6967
3.77339
4.0506
4.37971
4.64162
4.72704
4.70812
4.64737
4.53961
4.43159
4.37949
4.34531
4.32008
4.28989
4.2521
4.21369
4.17054
4.11779
4.05638
3.99702
3.94792
3.90583
3.86713
3.83157
3.79856
3.76676
3.73535
3.70332
3.66769
3.62226
3.56343
3.50738
3.471
3.44388
3.41815
3.39206
3.36442
3.33364
3.29826
3.26007
3.22506
3.19575
3.16937
3.1431
3.11521
3.08422
3.04887
3.01282
2.98456
2.96292
2.94302
2.92243
2.89951
2.87347
3.91807
3.88155
3.85076
3.83547
3.81561
3.77765
3.73681
3.6724
3.59425
3.55512
3.52498
3.48535
3.43708
3.37668
3.29149
3.21055
3.19291
3.18917
3.16643
3.13393
3.11034
3.09004
3.06844
3.04163
2.9897
2.90186
2.79879
2.73057
2.71187
2.70228
2.68813
2.67503
2.66735
2.66833
2.65905
2.6371
2.61124
2.56157
2.466
2.36594
2.327
2.31838
2.31427
2.31064
2.29838
2.28618
2.27546
2.26115
2.24489
2.22457
2.20503
2.17397
2.24917
2.67208
3.38588
4.28095
4.57378
4.6623
4.64692
4.58039
4.50709
4.45521
4.40394
4.3229
4.20371
4.11672
4.07996
4.05208
4.03554
4.02074
3.98713
3.94871
3.90385
3.83694
3.7653
3.80925
4.05189
4.39259
4.68225
4.81492
4.8114
4.76454
4.66537
4.53785
4.46148
4.42238
4.3946
4.37011
4.33276
4.29419
4.25345
4.20506
4.14502
4.0793
4.02391
3.98101
3.94306
3.90707
3.87287
3.83975
3.80663
3.77295
3.73765
3.69634
3.64156
3.57796
3.53069
3.50016
3.4739
3.44821
3.42168
3.39296
3.36035
3.32289
3.28513
3.25308
3.22569
3.19963
3.17226
3.14086
3.1035
3.06234
3.02712
3.00329
2.98384
2.96509
2.94621
2.92646
2.90369
3.9464
3.91333
3.89396
3.88259
3.85797
3.81879
3.772
3.69409
3.63311
3.59925
3.55998
3.50949
3.4497
3.38082
3.29884
3.26729
3.26432
3.25232
3.21552
3.18262
3.15751
3.13408
3.1083
3.06316
2.98189
2.87651
2.80241
2.77571
2.76549
2.75066
2.73663
2.72801
2.72735
2.72558
2.70498
2.67894
2.63502
2.54365
2.43218
2.38018
2.37198
2.36479
2.35999
2.35061
2.33737
2.32559
2.31481
2.29922
2.28756
2.26116
2.28031
2.44103
3.08858
3.94584
4.48823
4.72674
4.70804
4.69458
4.68329
4.63725
4.56865
4.50065
4.41907
4.30508
4.19042
4.14103
4.11193
4.09637
4.09527
4.06924
4.03131
3.99
3.92879
3.85116
3.87059
4.0845
4.42513
4.7417
4.90337
4.90764
4.86637
4.7756
4.6457
4.54761
4.50332
4.47235
4.45344
4.42219
4.3832
4.34211
4.29318
4.2313
4.15752
4.09339
4.05061
4.0157
3.98276
3.95096
3.91875
3.88469
3.84874
3.81044
3.76684
3.71334
3.64795
3.59267
3.55915
3.53197
3.50566
3.47909
3.45087
3.41931
3.3829
3.34329
3.30836
3.2806
3.25573
3.23111
3.20446
3.1714
3.12651
3.07637
3.04283
3.02146
3.00233
2.98461
2.96773
2.94977
2.92896
3.97924
3.95489
3.94065
3.9286
3.89677
3.85797
3.80435
3.73172
3.6824
3.63781
3.58495
3.51884
3.45548
3.39164
3.34294
3.33437
3.33452
3.30331
3.2608
3.22645
3.19528
3.16739
3.13016
3.06246
2.96372
2.88094
2.84511
2.83266
2.81676
2.79867
2.78856
2.78525
2.78888
2.77245
2.74538
2.70736
2.62371
2.50485
2.43455
2.42397
2.42067
2.41242
2.40263
2.39156
2.37718
2.36676
2.35173
2.34623
2.33091
2.40715
2.79461
3.53301
4.41275
4.72562
4.8829
4.91352
4.83915
4.75777
4.70054
4.65555
4.59796
4.51611
4.40164
4.28333
4.22254
4.19161
4.17076
4.16983
4.15524
4.11665
4.07728
4.02248
3.93961
3.93119
4.1128
4.46327
4.7995
4.99574
5.00691
4.96583
4.88268
4.75372
4.63411
4.58495
4.55207
4.53399
4.51377
4.476
4.43668
4.39118
4.32816
4.24018
4.15843
4.11406
4.08186
4.05214
4.02483
3.99674
3.96634
3.93229
3.89327
3.84778
3.79104
3.71641
3.65218
3.61868
3.59246
3.56627
3.53955
3.5112
3.47937
3.44179
3.39821
3.3584
3.32985
3.30626
3.28366
3.26044
3.23394
3.19882
3.14932
3.09804
3.06462
3.04079
3.02054
3.00279
2.985
2.96533
2.94313
4.01325
4.00106
3.99405
3.98123
3.94694
3.90846
3.8471
3.7737
3.72385
3.67124
3.60145
3.52834
3.47871
3.43049
3.40807
3.40507
3.38836
3.34307
3.30059
3.2609
3.22342
3.18778
3.13389
3.05357
2.9674
2.91939
2.90469
2.88984
2.86513
2.84987
2.84322
2.84758
2.83855
2.81097
2.77586
2.70319
2.58628
2.49457
2.47669
2.47281
2.47095
2.4569
2.445
2.43289
2.4169
2.40679
2.40254
2.43628
2.6144
3.24856
4.11512
4.74575
4.89657
4.91725
4.95524
4.96284
4.92339
4.85148
4.78079
4.70762
4.61832
4.4946
4.36743
4.29479
4.26466
4.24481
4.24781
4.24673
4.20857
4.16727
4.11952
4.04
4.01287
4.16225
4.51177
4.86255
5.08055
5.10823
5.0721
4.99571
4.8759
4.73597
4.66604
4.63099
4.60749
4.5978
4.56948
4.53027
4.48827
4.43045
4.34305
4.23998
4.17692
4.14332
4.11361
4.08994
4.06956
4.04315
4.01284
3.97841
3.93453
3.87336
3.79141
3.71619
3.67903
3.65408
3.62935
3.6032
3.57486
3.54253
3.50278
3.45378
3.40571
3.37509
3.35308
3.33213
3.3111
3.28852
3.26129
3.22305
3.16933
3.12013
3.09053
3.06737
3.04505
3.02285
3.00107
2.97952
2.9551
4.05072
4.03641
4.03917
4.04322
4.01239
3.96529
3.89492
3.80268
3.72583
3.66625
3.5987
3.55424
3.52432
3.49031
3.47366
3.46405
3.42712
3.37567
3.32833
3.28257
3.24458
3.2009
3.13805
3.06043
2.99889
2.97714
2.96482
2.94181
2.91392
2.90338
2.90317
2.90222
2.87657
2.84075
2.77642
2.6733
2.56551
2.53134
2.52622
2.52394
2.5176
2.50044
2.48751
2.47021
2.46276
2.46727
2.56632
3.00327
3.75972
4.66148
4.98915
5.14192
5.13697
5.06981
4.9933
4.95853
4.93912
4.89923
4.83627
4.74651
4.61748
4.4689
4.37647
4.34173
4.31838
4.31758
4.33043
4.30121
4.25725
4.20875
4.13079
4.09064
4.21407
4.55435
4.9161
5.16206
5.21096
5.1842
5.11684
5.00827
4.8609
4.75029
4.70826
4.67858
4.66752
4.65905
4.62308
4.58277
4.53574
4.45677
4.33948
4.25294
4.21212
4.18015
4.1522
4.13174
4.11217
4.0843
4.05303
4.01607
3.96318
3.87878
3.78693
3.74161
3.71633
3.69312
3.6688
3.64174
3.61102
3.57283
3.5196
3.45708
3.41797
3.39556
3.37538
3.35553
3.33467
3.31186
3.28326
3.2417
3.18795
3.14668
3.12109
3.09798
3.07404
3.04852
3.02144
2.99411
2.96602
4.10063
4.10126
4.098
4.092
4.04972
3.9935
3.92456
3.8276
3.72841
3.66421
3.62247
3.60612
3.58349
3.55545
3.53581
3.50767
3.45468
3.39697
3.34564
3.30313
3.26319
3.21226
3.15217
3.09086
3.05185
3.03803
3.02006
2.9848
2.96563
2.96038
2.96152
2.941
2.90405
2.84406
2.75663
2.64925
2.59003
2.58271
2.58
2.57325
2.55893
2.54309
2.5276
2.52215
2.56277
2.79084
3.50876
4.42449
5.04186
5.13114
5.14519
5.17236
5.18128
5.16703
5.09748
5.02781
4.97565
4.92452
4.85068
4.7289
4.58304
4.47767
4.4375
4.41013
4.40018
4.40849
4.38554
4.34366
4.29624
4.22175
4.15991
4.25564
4.58589
4.9518
5.22746
5.31028
5.29231
5.2363
5.14025
4.99873
4.85299
4.7888
4.75368
4.73288
4.73566
4.71744
4.67508
4.63073
4.5662
4.45796
4.34718
4.29215
4.25707
4.22721
4.20252
4.17741
4.14866
4.11808
4.08321
4.03963
3.96595
3.86972
3.81085
3.78345
3.75929
3.73522
3.70914
3.68014
3.645
3.59545
3.5278
3.47163
3.44154
3.41854
3.39746
3.37667
3.35442
3.3292
3.2969
3.24971
3.20265
3.17515
3.15375
3.1317
3.10789
3.08184
3.05257
3.01787
2.97451
4.1075
4.14364
4.1456
4.12365
4.06133
4.00203
3.94898
3.8648
3.75341
3.68901
3.67045
3.65452
3.63573
3.60997
3.58137
3.53744
3.47297
3.4126
3.36488
3.32476
3.28035
3.23666
3.18941
3.1378
3.11071
3.09568
3.0646
3.0295
3.0199
3.01706
3.00001
2.96319
2.90545
2.82779
2.73817
2.65934
2.643
2.64061
2.63263
2.61652
2.59772
2.58899
2.59797
2.70339
3.20755
4.07482
5.02527
5.33558
5.47792
5.40985
5.29158
5.20165
5.17957
5.18824
5.1623
5.10199
5.03056
4.95153
4.84022
4.69649
4.57609
4.52864
4.4968
4.48082
4.48641
4.46962
4.42762
4.38426
4.32226
4.24965
4.32288
4.64022
5.00437
5.28487
5.40215
5.39234
5.34394
5.26147
5.13576
4.97674
4.87753
4.83675
4.80814
4.80352
4.80352
4.76621
4.72241
4.66742
4.56974
4.44965
4.3821
4.34505
4.31563
4.2885
4.25748
4.22287
4.18521
4.1475
4.10672
4.03782
3.95003
3.88379
3.85415
3.82848
3.80277
3.77542
3.74547
3.71084
3.66678
3.60671
3.54361
3.50421
3.47626
3.44946
3.42272
3.39654
3.36998
3.33962
3.30127
3.25655
3.22456
3.20358
3.18333
3.16223
3.13896
3.11242
3.08056
3.03819
2.97978
3.95306
4.11356
4.17524
4.14617
4.08611
4.02525
3.95686
3.86311
3.77816
3.74837
3.72248
3.69879
3.67648
3.64947
3.61324
3.55528
3.48639
3.43163
3.38927
3.34427
3.30822
3.28018
3.23759
3.1889
3.1693
3.14786
3.10128
3.07866
3.07132
3.05363
3.01912
2.96378
2.89213
2.81614
2.73781
2.70683
2.70258
2.69633
2.67546
2.6563
2.65559
2.70119
2.96982
3.79379
4.85145
5.41331
5.4498
5.44131
5.4498
5.43561
5.40333
5.32492
5.25791
5.22556
5.19449
5.14745
5.06879
4.94367
4.79507
4.6749
4.62398
4.59337
4.57583
4.57773
4.55995
4.51803
4.47524
4.41676
4.34564
4.39849
4.7025
5.07751
5.35819
5.48645
5.48478
5.43923
5.36703
5.26134
5.10995
4.97977
4.92842
4.89485
4.88144
4.88429
4.85434
4.80972
4.75771
4.66673
4.54449
4.46732
4.43221
4.40631
4.38425
4.35223
4.31484
4.27288
4.22552
4.16837
4.09214
4.01416
3.95085
3.92268