/*--------------------------------*- C++ -*----------------------------------*\
  =========                 |
  \\      /  F ield         | OpenFOAM: The Open Source CFD Toolbox
   \\    /   O peration     | Website:  https://openfoam.org
    \\  /    A nd           | Version:  7
     \\/     M anipulation  |
\*---------------------------------------------------------------------------*/
FoamFile
{
    version     2.0;
    format      ascii;
    class       volScalarField;
    location    "3.3";
    object      T;
}
// * * * * * * * * * * * * * * * * * * * * * * * * * * * * * * * * * * * * * //

dimensions      [0 0 0 1 0 0 0];

internalField   nonuniform List<scalar> 
4128
(
1.77449
1.77039
1.76788
1.76596
1.75972
1.74922
1.73711
1.72738
1.72744
1.72664
1.72392
1.71924
1.7158
1.71457
1.71111
1.70523
1.69479
1.67899
1.67459
1.67231
1.66898
1.66389
1.66023
1.65652
1.6517
1.64844
1.64563
1.64089
1.63198
1.61825
1.61021
1.60657
1.60438
1.60333
1.60138
1.59834
1.59536
1.59226
1.58691
1.57431
1.55771
1.55183
1.55062
1.55031
1.54977
1.54771
1.54576
1.54408
1.54193
1.53894
1.53383
1.52165
1.50491
1.49718
1.49594
1.49493
1.49482
1.49513
1.4953
1.49397
1.49189
1.48938
1.48578
1.47658
1.45948
1.4472
1.44494
1.44379
1.44343
1.44479
1.4451
1.4438
1.4424
1.44058
1.437
1.42681
1.41175
1.40762
1.41156
1.45405
1.58752
1.72752
1.82007
1.8229
1.81729
1.79934
1.78002
1.76662
1.7589
1.75632
1.76095
1.77261
1.79593
1.83786
1.86211
1.85678
1.84014
1.82789
1.82497
1.82693
1.82668
1.81657
1.80459
1.79134
1.7756
1.76346
1.75488
1.74764
1.74305
1.73864
1.73057
1.72192
1.71167
1.70129
1.69325
1.68619
1.68072
1.67531
1.66964
1.66396
1.65696
1.64758
1.6386
1.63256
1.62716
1.62195
1.61695
1.61128
1.60544
1.77088
1.76593
1.76333
1.75905
1.74971
1.73964
1.73068
1.72723
1.72737
1.7258
1.72232
1.71679
1.71396
1.71166
1.70682
1.69941
1.68512
1.67592
1.67484
1.67243
1.66846
1.6629
1.65846
1.65409
1.64929
1.64632
1.64326
1.63796
1.62747
1.61554
1.61022
1.60663
1.60441
1.60366
1.6018
1.59877
1.59534
1.59078
1.58143
1.56549
1.55655
1.55491
1.55354
1.55312
1.55216
1.5495
1.5468
1.54459
1.54196
1.53774
1.52823
1.51207
1.50113
1.49943
1.49856
1.49847
1.49872
1.49895
1.49832
1.49665
1.49414
1.49063
1.48332
1.46764
1.45241
1.44841
1.44725
1.44668
1.44727
1.44861
1.44768
1.44631
1.44469
1.44197
1.43464
1.41948
1.41188
1.41721
1.46431
1.61718
1.75
1.81745
1.8205
1.8161
1.80756
1.78973
1.77195
1.76348
1.75939
1.76061
1.77093
1.78919
1.82521
1.85932
1.8585
1.84621
1.83275
1.82487
1.82473
1.82575
1.82083
1.80869
1.79683
1.78327
1.77007
1.76095
1.75305
1.74713
1.74266
1.73494
1.7269
1.71748
1.70629
1.69732
1.69003
1.68364
1.67895
1.67289
1.66704
1.66127
1.65368
1.64389
1.63632
1.63087
1.62566
1.62107
1.61616
1.61075
1.60506
1.76727
1.76157
1.75695
1.74915
1.73914
1.7325
1.72801
1.72761
1.72708
1.7247
1.72052
1.71479
1.71148
1.70759
1.70129
1.69038
1.67736
1.67571
1.67475
1.67215
1.66736
1.66127
1.65623
1.65156
1.64717
1.64448
1.6411
1.63493
1.62233
1.61262
1.60988
1.60674
1.60434
1.60363
1.60178
1.59875
1.59505
1.58839
1.57411
1.56044
1.55877
1.55768
1.55588
1.55485
1.55342
1.55066
1.54756
1.54478
1.54114
1.53388
1.51924
1.50555
1.50279
1.502
1.5015
1.50173
1.50202
1.50186
1.50095
1.49898
1.49564
1.48944
1.47539
1.45855
1.45179
1.45055
1.44994
1.45006
1.45128
1.45137
1.45015
1.44851
1.44618
1.44107
1.42802
1.41681
1.42527
1.48643
1.63354
1.77191
1.82288
1.83062
1.82509
1.81221
1.79442
1.77558
1.7638
1.75966
1.7593
1.76709
1.78404
1.81548
1.85621
1.85963
1.85108
1.83914
1.82893
1.82627
1.82611
1.82263
1.81171
1.80011
1.78807
1.77549
1.76611
1.75827
1.75187
1.74748
1.74007
1.73189
1.72308
1.712
1.70144
1.694
1.6873
1.68179
1.67746
1.67069
1.66441
1.65803
1.64953
1.64001
1.63367
1.62866
1.62408
1.62009
1.61485
1.60932
1.6034
1.76314
1.75563
1.74806
1.73854
1.73226
1.7287
1.72743
1.72755
1.72624
1.72313
1.7186
1.71276
1.70837
1.70276
1.69337
1.68019
1.67551
1.67543
1.67405
1.67122
1.66557
1.65907
1.65398
1.64929
1.64551
1.64279
1.63883
1.63071
1.61638
1.61067
1.60942
1.60668
1.60419
1.60334
1.60138
1.59794
1.5936
1.58475
1.56795
1.56046
1.5602
1.55962
1.55727
1.55548
1.55388
1.55129
1.54806
1.5446
1.53893
1.52631
1.51092
1.50567
1.50534
1.50506
1.5043
1.50456
1.5047
1.50434
1.5032
1.50062
1.49533
1.48293
1.46519
1.45533
1.45367
1.45309
1.45309
1.45357
1.45459
1.45396
1.45238
1.45016
1.4462
1.43609
1.42372
1.43226
1.51322
1.65913
1.78914
1.83532
1.83307
1.82736
1.8148
1.79605
1.77927
1.76625
1.76051
1.7595
1.76488
1.78112
1.80845
1.85005
1.8677
1.85753
1.84289
1.83155
1.827
1.82786
1.82601
1.81585
1.80487
1.79343
1.78032
1.77017
1.76227
1.75549
1.75138
1.74554
1.73731
1.72909
1.71876
1.70658
1.69767
1.69094
1.68487
1.68062
1.67594
1.66875
1.66212
1.6546
1.64466
1.6362
1.63099
1.62637
1.62247
1.61862
1.61346
1.60802
1.60149
1.7573
1.74755
1.7381
1.73138
1.72922
1.72729
1.72728
1.7272
1.72476
1.72109
1.71657
1.71074
1.70487
1.69568
1.68278
1.67554
1.67516
1.67455
1.67262
1.66938
1.66326
1.65677
1.65198
1.64747
1.64394
1.6407
1.63561
1.62429
1.61123
1.60977
1.60895
1.60641
1.60405
1.60283
1.60065
1.59655
1.59093
1.58075
1.56592
1.56116
1.56083
1.56045
1.55796
1.55554
1.55385
1.55151
1.54824
1.54362
1.53378
1.51727
1.50832
1.50752
1.50811
1.50781
1.50681
1.50705
1.50701
1.5064
1.50478
1.50087
1.49092
1.47276
1.45926
1.45665
1.45601
1.45611
1.4562
1.45665
1.45726
1.45614
1.45396
1.4505
1.44346
1.43168
1.44393
1.5331
1.69904
1.78573
1.83006
1.83805
1.83574
1.82843
1.80987
1.78461
1.76865
1.76202
1.75967
1.76336
1.77661
1.79954
1.84121
1.86903
1.86554
1.84949
1.83596
1.82855
1.82832
1.82862
1.82147
1.81029
1.79964
1.7869
1.77484
1.76627
1.75877
1.75394
1.75042
1.74268
1.73469
1.72579
1.71386
1.70228
1.69465
1.68822
1.683
1.67989
1.6741
1.66693
1.65985
1.65086
1.64046
1.63355
1.62877
1.62455
1.62116
1.6167
1.61118
1.60539
1.59825
1.74893
1.73802
1.73128
1.72941
1.72797
1.72716
1.72734
1.72612
1.72276
1.7189
1.71441
1.70782
1.6983
1.68556
1.67585
1.67467
1.67418
1.67287
1.67059
1.66682
1.66094
1.65503
1.65069
1.64653
1.64263
1.63804
1.63035
1.61619
1.60914
1.60922
1.60861
1.60618
1.60394
1.60222
1.59981
1.59503
1.5877
1.57723
1.56564
1.56141
1.56106
1.56052
1.55788
1.55529
1.55354
1.55131
1.54781
1.54114
1.52614
1.5113
1.5096
1.5092
1.51056
1.51005
1.50881
1.50893
1.50875
1.50781
1.50529
1.49827
1.48169
1.46427
1.45941
1.45861
1.45878
1.45876
1.45865
1.45929
1.45924
1.45758
1.45442
1.44948
1.44234
1.45983
1.55868
1.71563
1.81781
1.8402
1.83917
1.83313
1.82501
1.81517
1.79757
1.77623
1.7649
1.7596
1.76016
1.77092
1.79131
1.82523
1.86479
1.86828
1.8574
1.8443
1.83478
1.83096
1.83032
1.82503
1.81389
1.80331
1.7923
1.78003
1.77079
1.763
1.75646
1.75326
1.74788
1.7396
1.73139
1.72087
1.70796
1.69844
1.69168
1.68569
1.6819
1.67874
1.67195
1.66509
1.65727
1.64688
1.63777
1.63222
1.62763
1.62384
1.62017
1.6148
1.60898
1.60239
1.59389
1.7397
1.73173
1.72989
1.72905
1.72752
1.72731
1.72671
1.72395
1.7204
1.71654
1.71166
1.70184
1.68888
1.67802
1.67415
1.67341
1.6723
1.67065
1.66821
1.66426
1.65907
1.65416
1.65035
1.64646
1.64161
1.63362
1.62128
1.61053
1.60881
1.60897
1.60838
1.60603
1.60386
1.60174
1.59894
1.5936
1.58407
1.57369
1.56527
1.56126
1.56081
1.56019
1.55736
1.55464
1.55288
1.55074
1.54641
1.53673
1.51933
1.51095
1.51085
1.51069
1.51208
1.51144
1.51005
1.50998
1.50955
1.50809
1.50373
1.49124
1.47175
1.46225
1.46117
1.46093
1.46152
1.46051
1.46059
1.46113
1.4604
1.45798
1.45418
1.45429
1.48279
1.59249
1.74581
1.81989
1.83734
1.83535
1.83205
1.82152
1.81057
1.79918
1.78385
1.77159
1.7658
1.76357
1.76897
1.78518
1.8135
1.85555
1.86784
1.86091
1.84975
1.84012
1.83529
1.83329
1.82814
1.81782
1.80735
1.79593
1.78338
1.77448
1.76724
1.76066
1.75689
1.75322
1.7448
1.73623
1.72646
1.71372
1.70225
1.69498
1.68874
1.68375
1.68133
1.67622
1.66921
1.66239
1.65345
1.64309
1.63644
1.6316
1.62725
1.62364
1.61862
1.61274
1.60637
1.5988
1.58971
1.73284
1.73079
1.73042
1.72885
1.72763
1.72703
1.7245
1.72093
1.71751
1.71377
1.70652
1.69339
1.68184
1.67598
1.67302
1.67149
1.67002
1.66832
1.66588
1.66228
1.65801
1.65403
1.65049
1.64625
1.63842
1.62384
1.6127
1.61014
1.60893
1.60873
1.60814
1.60589
1.60372
1.60145
1.59808
1.5917
1.57929
1.56994
1.5648
1.56099
1.55995
1.55924
1.55649
1.55352
1.55161
1.5494
1.54402
1.53137
1.51815
1.51279
1.51177
1.5117
1.51262
1.51181
1.51045
1.51015
1.50947
1.50728
1.49985
1.48228
1.46616
1.46377
1.46318
1.46366
1.46284
1.4618
1.46219
1.46202
1.46081
1.4583
1.46379
1.51069
1.64884
1.76277
1.82175
1.8361
1.83595
1.83547
1.8315
1.81894
1.80296
1.78785
1.77467
1.76784
1.76503
1.76815
1.78143
1.80614
1.84598
1.86957
1.8642
1.85141
1.84225
1.83778
1.83728
1.83392
1.82371
1.81276
1.80072
1.78689
1.776
1.7689
1.76284
1.75961
1.75808
1.75118
1.74184
1.73216
1.71945
1.70603
1.69774
1.69159
1.68605
1.68265
1.67956
1.67267
1.66585
1.65831
1.64836
1.64016
1.6353
1.63106
1.62752
1.62298
1.61717
1.61094
1.60356
1.5942
1.58521
1.7319
1.73231
1.73138
1.72873
1.72738
1.72502
1.72115
1.71779
1.71487
1.70998
1.69937
1.68524
1.67788
1.67453
1.6712
1.66934
1.66817
1.6666
1.66427
1.66122
1.65787
1.65449
1.65065
1.64393
1.6297
1.61421
1.61044
1.61055
1.60968
1.60879
1.6079
1.60582
1.60383
1.60161
1.59772
1.58871
1.57295
1.56674
1.56413
1.56056
1.55883
1.55808
1.55571
1.55235
1.54997
1.54741
1.54115
1.52748
1.51936
1.51582
1.51249
1.51186
1.51224
1.5118
1.51043
1.50949
1.5082
1.50481
1.49436
1.47449
1.46597
1.46552
1.46538
1.4654
1.46327
1.46287
1.46296
1.46304
1.46305
1.47521
1.53181
1.68727
1.79929
1.83969
1.84972
1.84809
1.84148
1.83374
1.82404
1.80976
1.79211
1.77807
1.77058
1.76546
1.76689
1.7766
1.79826
1.83527
1.86975
1.86862
1.85502
1.84393
1.83829
1.83787
1.83715
1.82949
1.81863
1.80749
1.79341
1.77964
1.7715
1.76493
1.76068
1.76023
1.75687
1.74764
1.73827
1.72649
1.71183
1.70109
1.6947
1.68919
1.68473
1.6818
1.6756
1.66847
1.66139
1.6527
1.64355
1.63803
1.63391
1.63025
1.62667
1.62153
1.6157
1.60909
1.60041
1.59006
1.58267
1.73486
1.73416
1.73083
1.7273
1.72457
1.72091
1.71781
1.71549
1.71267
1.70529
1.69104
1.6795
1.67538
1.67236
1.66833
1.66747
1.66706
1.66565
1.66351
1.66098
1.65819
1.65481
1.64918
1.63608
1.61962
1.61101
1.6107
1.61124
1.61051
1.60914
1.60798
1.60608
1.60429
1.60207
1.59675
1.58162
1.56724
1.5648
1.56303
1.55991
1.55775
1.55658
1.55492
1.55196
1.54875
1.54562
1.5387
1.5259
1.51928
1.51746
1.5142
1.51133
1.51121
1.5111
1.50968
1.50774
1.50545
1.50092
1.48915
1.47147
1.46724
1.46709
1.4673
1.466
1.46408
1.46323
1.46376
1.4674
1.4914
1.57466
1.71218
1.83322
1.85
1.84723
1.84074
1.83676
1.82904
1.82073
1.81164
1.79825
1.78288
1.77397
1.76808
1.76672
1.77246
1.7906
1.82313
1.86498
1.87219
1.86213
1.84891
1.84007
1.83776
1.83807
1.83352
1.82346
1.81317
1.80096
1.78637
1.77611
1.76908
1.76339
1.7618
1.76023
1.75218
1.74315
1.73295
1.71909
1.70586
1.69827
1.69251
1.68764
1.68428
1.67897
1.67213
1.66532
1.65707
1.64689
1.63995
1.63574
1.63198
1.62868
1.62491
1.61981
1.614
1.60701
1.59764
1.58789
1.58155
1.73732
1.73413
1.72831
1.72307
1.71904
1.7162
1.71475
1.71379
1.71016
1.69917
1.68438
1.67663
1.67334
1.66954
1.66586
1.66649
1.66631
1.66474
1.66292
1.66086
1.65816
1.65382
1.64241
1.62513
1.61502
1.61157
1.61174
1.61227
1.61132
1.60971
1.60838
1.60669
1.60477
1.60161
1.59097
1.57169
1.56483
1.56374
1.5617
1.55912
1.55736
1.5555
1.55377
1.55179
1.54875
1.54432
1.53695
1.52513
1.51834
1.51696
1.51517
1.51172
1.51001
1.50963
1.50808
1.50531
1.50209
1.49697
1.48606
1.47148
1.46834
1.46829
1.46834
1.46651
1.46459
1.46464
1.46995
1.50858
1.62751
1.7604
1.84696
1.84497
1.84157
1.83625
1.8346
1.83089
1.82308
1.81446
1.80449
1.79033
1.77734
1.77181
1.76796
1.77085
1.78588
1.81615
1.85617
1.87606
1.8701
1.85539
1.84422
1.83856
1.83767
1.83579
1.82671
1.81638
1.80566
1.79254
1.78037
1.773
1.76679
1.76303
1.76195
1.75603
1.74724
1.73831
1.7262
1.71172
1.70243
1.69638
1.69112
1.68716
1.68234
1.67598
1.66945
1.66212
1.65296
1.64364
1.63785
1.63369
1.62995
1.62644
1.62201
1.61676
1.61086
1.60359
1.5947
1.58701
1.58161
1.73803
1.73105
1.72256
1.7166
1.71351
1.71221
1.71228
1.71182
1.70622
1.69284
1.68028
1.67481
1.67124
1.66683
1.66569
1.66698
1.66626
1.66423
1.66249
1.6604
1.65694
1.64816
1.63083
1.61848
1.61555
1.61342
1.61346
1.61325
1.61186
1.61025
1.60885
1.60712
1.60436
1.59733
1.58045
1.56558
1.56419
1.56317
1.5607
1.55859
1.55727
1.55557
1.5535
1.55174
1.54946
1.54388
1.5341
1.52451
1.51785
1.51596
1.5146
1.51185
1.50905
1.50798
1.50619
1.50304
1.49922
1.49417
1.48482
1.47238
1.46907
1.46896
1.46889
1.46713
1.46714
1.47496
1.52607
1.66724
1.81078
1.84708
1.85105
1.84275
1.83565
1.83544
1.83622
1.83149
1.82283
1.81266
1.7986
1.78209
1.77223
1.76859
1.76945
1.7808
1.80902
1.85102
1.87776
1.87476
1.8614
1.84853
1.84075
1.83759
1.83646
1.83002
1.81989
1.80971
1.79741
1.78428
1.77628
1.77021
1.76538
1.76366
1.75979
1.75124
1.74287
1.73277
1.71896
1.70673
1.69995
1.69446
1.68992
1.68575
1.67975
1.67356
1.66692
1.65864
1.64881
1.64148
1.63656
1.63226
1.62832
1.62389
1.61879
1.61321
1.60679
1.59886
1.59117
1.58612
1.5817
1.73514
1.72422
1.71545
1.71105
1.70923
1.70908
1.70984
1.70866
1.7007
1.68711
1.67811
1.67343
1.66903
1.66552
1.66638
1.66736
1.66598
1.66386
1.66164
1.65866
1.6519
1.63631
1.62186
1.61846
1.61746
1.61625
1.615
1.61348
1.61194
1.6106
1.6091
1.60678
1.60116
1.58826
1.57124
1.56515
1.56431
1.56264
1.56016
1.55868
1.55768
1.55629
1.5548
1.55318
1.55031
1.5413
1.52885
1.52321
1.5192
1.5158
1.51352
1.51077
1.50764
1.5061
1.50424
1.50139
1.49757
1.49271
1.4846
1.47327
1.46929
1.46927
1.46961
1.47076
1.48547
1.5613
1.70535
1.82825
1.86521
1.86204
1.85647
1.84796
1.83988
1.83392
1.82878
1.8215
1.81286
1.80243
1.78894
1.77593
1.76839
1.76772
1.77509
1.80042
1.84142
1.87905
1.87964
1.86884
1.85328
1.84397
1.83919
1.83747
1.83346
1.82419
1.81435
1.80303
1.78943
1.77888
1.77226
1.76705
1.76452
1.76249
1.75521
1.74729
1.73895
1.72731
1.71318
1.7041
1.69831
1.693
1.68842
1.68313
1.67705
1.67086
1.6639
1.6552
1.64632
1.64047
1.63585
1.63144
1.62678
1.62168
1.61608
1.60975
1.60217
1.59404
1.58869
1.58454
1.58072
1.72735
1.71574
1.70982
1.70726
1.70615
1.7065
1.70688
1.70387
1.6938
1.68267
1.67696
1.67233
1.6675
1.6664
1.66797
1.66735
1.66542
1.6629
1.65955
1.65399
1.64106
1.62544
1.62103
1.62049
1.61973
1.61829
1.61562
1.61333
1.61189
1.61069
1.60889
1.60451
1.59338
1.57841
1.56838
1.56627
1.5647
1.56238
1.56047
1.5597
1.55896
1.5581
1.55731
1.55568
1.54819
1.53366
1.5248
1.52221
1.5197
1.51649
1.51318
1.50924
1.50606
1.50436
1.50243
1.50011
1.49657
1.49178
1.48453
1.47367
1.4696
1.47027
1.47357
1.50357
1.61006
1.74583
1.84757
1.88082
1.87916
1.86588
1.85081
1.83997
1.83359
1.82726
1.8203
1.81229
1.80329
1.7917
1.78048
1.77416
1.77064
1.77474
1.79339
1.83055
1.87481
1.88406
1.87514
1.85905
1.84722
1.84106
1.839
1.83705
1.82886
1.81939
1.80893
1.79528
1.78302
1.77565
1.76963
1.76558
1.76393
1.75843
1.75113
1.74402
1.73519
1.72268
1.71002
1.70269
1.69715
1.69195
1.68663
1.68066
1.67453
1.6681
1.6605
1.65138
1.64422
1.6394
1.63491
1.63022
1.62525
1.62006
1.61432
1.6071
1.59789
1.59056
1.5861
1.58225
1.57893
1.71837
1.71013
1.70666
1.70477
1.70387
1.70428
1.70368
1.69815
1.6875
1.68071
1.67606
1.67124
1.66795
1.66887
1.6688
1.66701
1.66447
1.66081
1.65539
1.64421
1.62912
1.62335
1.6231
1.62267
1.62177
1.61933
1.61538
1.613
1.6118
1.61045
1.60726
1.59798
1.58325
1.57256
1.5694
1.56768
1.56526
1.56286
1.56191
1.56161
1.56097
1.56039
1.5595
1.55439
1.53955
1.52719
1.52432
1.522
1.51934
1.5166
1.51323
1.50848
1.50548
1.50346
1.50118
1.49899
1.49568
1.49056
1.48338
1.47362
1.47245
1.47856
1.51909
1.66049
1.79927
1.87086
1.88617
1.88151
1.86684
1.84821
1.83777
1.83175
1.82749
1.82346
1.81657
1.80886
1.79897
1.78525
1.7761
1.77224
1.77467
1.78954
1.82228
1.86726
1.88649
1.88139
1.86551
1.85217
1.84406
1.84059
1.83982
1.83363
1.82411
1.81412
1.80119
1.78784
1.77982
1.7737
1.76876
1.76585
1.76038
1.75345
1.74687
1.7396
1.73053
1.71916
1.70847
1.70159
1.69597
1.69023
1.6842
1.67806
1.67182
1.66516
1.65733
1.64904
1.64325
1.63867
1.63399
1.62901
1.62372
1.61801
1.61154
1.60375
1.59506
1.58854
1.58424
1.58059
1.57725
1.71209
1.70735
1.70517
1.70366
1.70282
1.70265
1.70015
1.69212
1.68399
1.67943
1.67457
1.6706
1.6708
1.67105
1.66924
1.6664
1.66264
1.65683
1.64633
1.6323
1.62512
1.62516
1.62491
1.62462
1.62331
1.61964
1.61502
1.61318
1.61196
1.60937
1.60168
1.58761
1.57566
1.5724
1.57113
1.56901
1.56625
1.56451
1.56414
1.56368
1.5631
1.56238
1.55852
1.54546
1.53072
1.52622
1.52428
1.52208
1.5196
1.51702
1.51315
1.50805
1.50561
1.50335
1.50052
1.49763
1.49381
1.48859
1.48056
1.47848
1.4902
1.55542
1.68767
1.84151
1.89043
1.88684
1.87597
1.86129
1.84676
1.83575
1.83109
1.82823
1.82736
1.82286
1.81678
1.80874
1.79495
1.77957
1.77309
1.77386
1.785
1.81453
1.85829
1.88739
1.8867
1.87461
1.85858
1.84919
1.84371
1.84137
1.83685
1.82777
1.81827
1.8069
1.79302
1.78337
1.77767
1.77253
1.76852
1.76298
1.75594
1.74929
1.74239
1.73462
1.72593
1.71684
1.70802
1.70046
1.69408
1.68794
1.68171
1.67535
1.66882
1.66192
1.65446
1.6475
1.64223
1.63769
1.63305
1.62798
1.62233
1.61598
1.60855
1.59965
1.59169
1.58691
1.58308
1.5793
1.57532
1.7092
1.70546
1.70338
1.7023
1.70216
1.70135
1.69669
1.68849
1.68314
1.67758
1.67252
1.67191
1.67258
1.67129
1.66865
1.66511
1.65934
1.64895
1.6353
1.62682
1.62643
1.62639
1.62618
1.62587
1.62378
1.61945
1.61554
1.61398
1.61171
1.60464
1.59123
1.57868
1.57475
1.57404
1.57253
1.57007
1.56798
1.56684
1.56622
1.56566
1.56506
1.56213
1.55048
1.53412
1.5278
1.52651
1.52458
1.52243
1.52053
1.51808
1.51362
1.50823
1.50591
1.50353
1.50047
1.49635
1.49272
1.4855
1.48565
1.50723
1.61256
1.74451
1.85196
1.89016
1.88749
1.88029
1.86826
1.85176
1.84145
1.83632
1.83283
1.83021
1.825
1.81813
1.81033
1.7993
1.78552
1.77483
1.77398
1.781
1.80812
1.84871
1.8874
1.88778
1.88207
1.86731
1.85436
1.84704
1.84237
1.83886
1.83133
1.82223
1.81248
1.80002
1.78802
1.78169
1.7767
1.77199
1.7666
1.75954
1.75235
1.74515
1.73784
1.73039
1.72286
1.71515
1.70694
1.69883
1.69176
1.68535
1.67899
1.67248
1.66582
1.65906
1.65242
1.64634
1.64124
1.6368
1.63227
1.62717
1.62128
1.61436
1.60587
1.59639
1.5895
1.58516
1.58136
1.57757
1.57361
1.70757
1.70352
1.70083
1.70005
1.70038
1.69923
1.69375
1.68798
1.68232
1.67555
1.67231
1.67299
1.67249
1.67042
1.66725
1.66199
1.65246
1.63892
1.62918
1.62766
1.62799
1.62743
1.62723
1.62629
1.62341
1.61955
1.61698
1.6144
1.60778
1.59482
1.58142
1.57677
1.57644
1.57551
1.57331
1.57156
1.57016
1.5689
1.56815
1.56759
1.5654
1.55527
1.53826
1.52927
1.52777
1.52706
1.52529
1.52356
1.52204
1.51942
1.51455
1.50933
1.50713
1.50476
1.50085
1.49619
1.48945
1.49286
1.53352
1.66551
1.80889
1.86774
1.89641
1.89677
1.88932
1.87864
1.86366
1.84966
1.84311
1.83897
1.83416
1.82751
1.81939
1.81052
1.80102
1.78931
1.77945
1.77492
1.77969
1.80312
1.84284
1.88243
1.89246
1.88814
1.87669
1.86101
1.85086
1.84447
1.8398
1.83478
1.82657
1.81754
1.80767
1.7957
1.78553
1.77999
1.77504
1.76956
1.76302
1.75598
1.7487
1.74131
1.73412
1.72729
1.72053
1.71314
1.70469
1.69632
1.68933
1.68305
1.67674
1.67019
1.66344
1.6567
1.65029
1.64446
1.63957
1.63543
1.63119
1.62625
1.62033
1.61305
1.60382
1.59449
1.58833
1.58375
1.57949
1.57539
1.57146
1.70511
1.70144
1.69889
1.69835
1.69871
1.69698
1.69191
1.68698
1.68056
1.67374
1.67272
1.67298
1.6717
1.66897
1.66443
1.65613
1.64326
1.63203
1.62917
1.62974
1.62928
1.62881
1.62831
1.62641
1.62324
1.62052
1.61773
1.61114
1.59861
1.58459
1.57884
1.57865
1.57813
1.57633
1.57451
1.57373
1.57213
1.57078
1.5701
1.56849
1.55973
1.54276
1.53117
1.52901
1.52878
1.52779
1.52632
1.52531
1.52379
1.52075
1.51596
1.51167
1.50957
1.50664
1.50002
1.49497
1.50736
1.57404
1.71099
1.8537
1.89569
1.89675
1.89469
1.88699
1.87942
1.86983
1.85417
1.84261
1.83647
1.83148
1.8265
1.82
1.81271
1.80445
1.79532
1.786
1.77921
1.78196
1.8008
1.8397
1.87809
1.89527
1.89316
1.88484
1.86975
1.85525
1.84717
1.84138
1.83665
1.83032
1.82213
1.81355
1.80433
1.79381
1.78396
1.77735
1.77172
1.76567
1.75911
1.75217
1.74505
1.73807
1.73143
1.72503
1.71834
1.71063
1.70178
1.69358
1.68703
1.681
1.67486
1.66848
1.66186
1.65513
1.64853
1.64252
1.63765
1.63367
1.62956
1.62471
1.61882
1.61146
1.60257
1.59435
1.5884
1.58352
1.57891
1.57434
1.56976
1.70157
1.69858
1.69692
1.69706
1.69765
1.69556
1.69114
1.68531
1.67773
1.67231
1.67237
1.67209
1.67025
1.6668
1.66001
1.64815
1.63535
1.63112
1.63146
1.63154
1.63077
1.63029
1.62906
1.62647
1.62377
1.62104
1.61467
1.60238
1.58804
1.58117
1.58087
1.5806
1.57931
1.57744
1.57691
1.57605
1.57401
1.57275
1.57125
1.56393
1.54753
1.53372
1.53049
1.53001
1.53002
1.52868
1.52773
1.52708
1.52538
1.52207
1.51831
1.51474
1.51218
1.50427
1.50388
1.52745
1.63883
1.77391
1.87644
1.90183
1.8993
1.8953
1.88869
1.87826
1.86824
1.85731
1.84423
1.83515
1.82904
1.82403
1.81913
1.81362
1.80747
1.80064
1.79329
1.78345
1.78268
1.79686
1.83432
1.87372
1.8961
1.89572
1.89091
1.87942
1.8629
1.85097
1.84404
1.83845
1.83305
1.82574
1.81802
1.81008
1.80156
1.79226
1.78292
1.77496
1.76816
1.76164
1.75505
1.74833
1.74165
1.7352
1.72896
1.72269
1.71572
1.70726
1.69806
1.69058
1.68469
1.67901
1.67312
1.66692
1.66039
1.65361
1.64687
1.64085
1.636
1.63182
1.62745
1.62239
1.61634
1.60902
1.60084
1.59364
1.58816
1.58351
1.5791
1.57457
1.56957
1.69868
1.69765
1.69652
1.69667
1.69666
1.694
1.68893
1.68206
1.67439
1.6718
1.67195
1.67108
1.66844
1.66298
1.65295
1.63987
1.63354
1.6336
1.63428
1.63332
1.63252
1.63153
1.62939
1.62668
1.62394
1.61793
1.60599
1.59149
1.58351
1.58293
1.58279
1.58194
1.58048
1.57977
1.57997
1.57805
1.5759
1.57413
1.56804
1.55263
1.5372
1.53223
1.53129
1.53179
1.53098
1.52992
1.52942
1.5287
1.52679
1.52383
1.52038
1.51775
1.51026
1.51597
1.56097
1.69506
1.83364
1.89562
1.90593
1.89999
1.89302
1.88861
1.88316
1.87424
1.8623
1.84838
1.83864
1.83254
1.82695
1.82286
1.81768
1.81218
1.80643
1.7995
1.78866
1.78161
1.79131
1.82645
1.86635
1.89498
1.89893
1.89614
1.88798
1.87251
1.85619
1.84715
1.84071
1.83517
1.82877
1.82143
1.81424
1.80678
1.79847
1.78922
1.78015
1.7723
1.76528
1.75849
1.75185
1.74532
1.73887
1.73258
1.72647
1.72017
1.71278
1.70354
1.69446
1.68788
1.68245
1.677
1.67131
1.6653
1.65892
1.6522
1.64553
1.63974
1.63496
1.63053
1.62578
1.62027
1.61376
1.60623
1.59859
1.59235
1.58747
1.58318
1.57907
1.57478
1.5701
1.69519
1.69629
1.69697
1.69763
1.69682
1.69233
1.68588
1.67711
1.67143
1.67152
1.67142
1.66994
1.66591
1.65752
1.64449
1.63542
1.63533
1.63695
1.63623
1.63495
1.63398
1.63215
1.62947
1.62649
1.62077
1.60955
1.59509
1.58612
1.58481
1.58478
1.58412
1.58318
1.58264
1.58324
1.58219
1.57956
1.57724
1.57202
1.55784
1.54124
1.53476
1.53324
1.53321
1.53341
1.53228
1.53149
1.53115
1.53008
1.52823
1.52524
1.52215
1.51837
1.53632
1.62453
1.74927
1.87646
1.90893
1.91445
1.91169
1.90286
1.89417
1.88741
1.87976
1.86813
1.85205
1.84035
1.83471
1.82978
1.82563
1.82142
1.81527
1.80941
1.80318
1.79397
1.78347
1.7885
1.81897
1.86065
1.8924
1.9016
1.90023
1.89391
1.88032
1.86239
1.85066
1.84375
1.83804
1.83245
1.82522
1.81804
1.81092
1.80318
1.7942
1.78443
1.77585
1.7688
1.76233
1.75597
1.74963
1.74326
1.73684
1.7305
1.72421
1.71736
1.70883
1.69907
1.69139
1.68585
1.68072
1.67542
1.66978
1.66374
1.65725
1.65038
1.64388
1.63854
1.63402
1.62964
1.62479
1.6189
1.61163
1.60344
1.5961
1.59066
1.58615
1.58202
1.57816
1.57438
1.57026
1.69406
1.69614
1.69725
1.69744
1.69527
1.68956
1.68239
1.67352
1.67151
1.6717
1.6707
1.66739
1.66068
1.65017
1.63875
1.63702
1.63881
1.63943
1.63769
1.63613
1.63431
1.63175
1.6288
1.62374
1.61357
1.59902
1.58923
1.58674
1.58673
1.58604
1.58533
1.58526
1.58576
1.58595
1.58338
1.5805
1.57577
1.5629
1.54537
1.53739
1.53612
1.53543
1.53557
1.53504
1.53388
1.53316
1.53261
1.53117
1.53011
1.52649
1.53175
1.5679
1.69043
1.82044
1.89481
1.91584
1.91107
1.90719
1.90453
1.89885
1.89134
1.88306
1.87227
1.85685
1.84115
1.83388
1.82936
1.82604
1.82424
1.81877
1.81221
1.80579
1.79723
1.78733
1.78934
1.81564
1.85713
1.89273
1.90433
1.90326
1.89745
1.88537
1.86782
1.85414
1.84704
1.84133
1.83664
1.83025
1.82304
1.81578
1.80788
1.79866
1.78796
1.77842
1.77149
1.76553
1.75973
1.75395
1.74798
1.74168
1.73516
1.72845
1.7213
1.71307
1.70327
1.69482
1.68918
1.68431
1.67934
1.67406
1.6683
1.662
1.65515
1.64813
1.64212
1.63739
1.63319
1.62897
1.62425
1.61826
1.61015
1.60092
1.594
1.58906
1.58468
1.58075
1.57722
1.57376
1.57
1.69435
1.69703
1.69746
1.69674
1.69199
1.68578
1.67906
1.67333
1.67267
1.67162
1.66864
1.66229
1.65414
1.64424
1.63873
1.63958
1.64216
1.64077
1.63851
1.63629
1.63327
1.63016
1.62622
1.61824
1.60478
1.59311
1.58914
1.58894
1.58821
1.58712
1.58725
1.5878
1.58908
1.58703
1.5837
1.57935
1.56779
1.54977
1.53984
1.5386
1.53862
1.53811
1.53757
1.53682
1.53536
1.53467
1.53322
1.53376
1.53357
1.55006
1.62771
1.75165
1.87364
1.90831
1.92398
1.92536
1.91592
1.90523
1.89749
1.89146
1.8842
1.87411
1.85987
1.84487
1.83602
1.83091
1.82725
1.82599
1.82255
1.81577
1.80923
1.80106
1.79067
1.78927
1.81167
1.85385
1.89246
1.90813
1.90705
1.90083
1.88969
1.87279
1.85708
1.84979
1.84442
1.84026
1.83542
1.82846
1.82154
1.81405
1.80454
1.79206
1.78036
1.77329
1.76781
1.76258
1.75754
1.75228
1.74664
1.74054
1.73392
1.72666
1.71805
1.70714
1.69768
1.69222
1.68777
1.6832
1.67834
1.67296
1.66686
1.65987
1.65216
1.64527
1.64024
1.6361
1.63217
1.6281
1.62341
1.61727
1.60874
1.59964
1.59306
1.58798
1.58349
1.57959
1.57593
1.5721
1.56796
1.69571
1.69774
1.69781
1.69569
1.68924
1.6837
1.67816
1.67414
1.6732
1.67088
1.66516
1.65714
1.65067
1.64313
1.64145
1.6431
1.64329
1.64082
1.63821
1.63485
1.63094
1.62736
1.62152
1.61139
1.59871
1.59208
1.59161
1.59121
1.58929
1.5891
1.58961
1.59132
1.59037
1.58682
1.58243
1.57235
1.55509
1.54246
1.54101
1.54113
1.54169
1.54043
1.5395
1.53835
1.53622
1.53573
1.53676
1.54489
1.58261
1.69765
1.82493
1.90254
1.91999
1.91746
1.91853
1.91907
1.91446
1.90607
1.89759
1.88833
1.87738
1.86215
1.84625
1.83644
1.83172
1.82812
1.82759
1.82646
1.81979
1.81293
1.80569
1.7955
1.7917
1.80971
1.85136
1.89163
1.91096
1.91083
1.9055
1.89506
1.87927
1.86144
1.85214
1.84702
1.84275
1.83952
1.83376
1.82698
1.82008
1.8114
1.799
1.78459
1.7751
1.76945
1.76441
1.76004
1.75592
1.75095
1.74546
1.73952
1.73252
1.72353
1.7118
1.70101
1.69512
1.69096
1.68686
1.68247
1.67754
1.67175
1.66471
1.65632
1.64825
1.64281
1.63877
1.63499
1.63125
1.62724
1.62245
1.61594
1.60704
1.59855
1.59278
1.58797
1.58333
1.57883
1.5746
1.57054
1.56593
1.69747
1.6964
1.69597
1.69492
1.68873
1.68332
1.67891
1.67402
1.66973
1.66545
1.65889
1.65428
1.65047
1.64521
1.6443
1.64499
1.64306
1.63942
1.63577
1.63167
1.62836
1.62421
1.61692
1.60591
1.59606
1.59416
1.59421
1.59288
1.5911
1.59169
1.59311
1.59352
1.59007
1.58492
1.5757
1.56084
1.54633
1.54319
1.54356
1.54443
1.54445
1.54267
1.54112
1.53836
1.53828
1.54064
1.56183
1.64454
1.76526
1.88401
1.91934
1.93355
1.93236
1.92361
1.91399
1.90921
1.90624
1.90135
1.89413
1.88383
1.86858
1.85063
1.83844
1.83297
1.82911
1.82823
1.8288
1.82386
1.8165
1.80877
1.79869
1.79364
1.80814
1.84801
1.88936
1.91299
1.91411
1.91047
1.9015
1.88724
1.86849
1.85463
1.84904
1.84478
1.84186
1.83873
1.83219
1.82562
1.81851
1.80753
1.79161
1.77906
1.77224
1.76688
1.76212
1.75825
1.75438
1.74935
1.74393
1.73788
1.73001
1.71807
1.70527
1.69827
1.69406
1.69026
1.68633
1.68191
1.67681
1.67043
1.66172
1.65175
1.64513
1.64102
1.63734
1.63373
1.62996
1.62587
1.62089
1.61394
1.6051
1.59794
1.59298
1.58834
1.58359
1.57873
1.5738
1.56901
1.56419
1.69995
1.69819
1.69551
1.6929
1.68627
1.68157
1.67858
1.67319
1.6653
1.65973
1.65623
1.65495
1.65231
1.64857
1.64687
1.64501
1.64072
1.63596
1.63203
1.62918
1.62636
1.62111
1.61306
1.6029
1.5967
1.59666
1.59631
1.59387
1.59387
1.59517
1.59645
1.59369
1.5876
1.57812
1.5657
1.55168
1.54572
1.54624
1.54748
1.54765
1.54646
1.54425
1.54152
1.54162
1.5498
1.5937
1.71689
1.8467
1.91589
1.92443
1.9236
1.92509
1.92495
1.92326
1.91552
1.90723
1.9006
1.89467
1.88682
1.87305
1.85562
1.84229
1.83637
1.83212
1.83005
1.83034
1.82644
1.81958
1.81201
1.80201
1.79435
1.80539
1.84368
1.88519
1.91307
1.91693
1.9145
1.9074
1.89498
1.87713
1.85946
1.85131
1.84665
1.84318
1.84211
1.83801
1.83083
1.82392
1.81506
1.80071
1.78556
1.77691
1.77099
1.76588
1.7615
1.75706
1.75229
1.74721
1.7415
1.73492
1.72436
1.71103
1.70229
1.69771
1.6938
1.69002
1.68599
1.68144
1.67584
1.6681
1.65777
1.64891
1.64366
1.63957
1.63586
1.6322
1.62823
1.62369
1.61811
1.61042
1.60257
1.59744
1.59323
1.5889
1.5843
1.57944
1.57424
1.56838
1.56135
1.69619
1.69578
1.69391
1.69017
1.68229
1.67856
1.67779
1.67393
1.66452
1.65813
1.65659
1.65528
1.65337
1.65022
1.64721
1.64312
1.63702
1.63218
1.6294
1.62771
1.62451
1.6193
1.61171
1.60191
1.59857
1.59866
1.59728
1.59592
1.59733
1.59879
1.59702
1.59062
1.5801
1.56852
1.55746
1.54919
1.5492
1.55094
1.55126
1.55014
1.54752
1.54577
1.5474
1.56753
1.65694
1.78753
1.90658
1.93827
1.94959
1.94191
1.92849
1.91897
1.91605
1.916
1.91216
1.90481
1.89712
1.88911
1.87718
1.86068
1.84567
1.83866
1.83396
1.8314
1.83156
1.8288
1.82241
1.81559
1.80684
1.79797
1.80618
1.84211
1.88285
1.91181
1.91924
1.91753
1.91167
1.90126
1.88544
1.86652
1.85467
1.8494
1.84525
1.84364
1.84229
1.83591
1.82903
1.82133
1.80847
1.79269
1.78255
1.77622
1.77118
1.76672
1.76185
1.75639
1.75049
1.74495
1.7389
1.72885
1.71658
1.70684
1.70182
1.69765
1.69368
1.68956
1.68504
1.67979
1.6731
1.66408
1.65464
1.64828
1.64352
1.63901
1.63458
1.63024
1.62573
1.62057
1.6141
1.60674
1.60112
1.59703
1.59302
1.58887
1.58445
1.57964
1.57419
1.56728
1.55795
1.6683
1.68353
1.69033
1.68719
1.68177
1.67832
1.67543
1.66949
1.66204
1.65976
1.6576
1.65553
1.65322
1.65003
1.64596
1.63969
1.63319
1.62953
1.62806
1.62629
1.62331
1.61911
1.61123
1.60166
1.60053
1.60029
1.59797
1.59881
1.60061
1.59954
1.59383
1.58257
1.57062
1.56138
1.55344
1.55221
1.55402
1.55512
1.55379
1.55168
1.55083
1.55851
1.60543
1.73637
1.87652
1.93921
1.93904
1.93467
1.93473
1.93333
1.93028
1.92251
1.9153
1.91013
1.90558
1.90033
1.89279
1.88013
1.86359
1.84913
1.84171
1.83705
1.8343
1.83416
1.83166
1.82586
1.81956
1.81136
1.80252
1.80821
1.84198
1.88294
1.91219
1.92052
1.9194
1.91407
1.90537
1.89224
1.87435
1.85941
1.853
1.8485
1.846
1.84518
1.84008
1.8332
1.82592
1.81396
1.79833
1.78743
1.78138
1.77655
1.77255
1.76778
1.76263
1.75691
1.75023
1.74198
1.73123
1.72034
1.71095