/*--------------------------------*- C++ -*----------------------------------*\
  =========                 |
  \\      /  F ield         | OpenFOAM: The Open Source CFD Toolbox
   \\    /   O peration     | Website:  https://openfoam.org
    \\  /    A nd           | Version:  7
     \\/     M anipulation  |
\*---------------------------------------------------------------------------*/
FoamFile
{
    version     2.0;
    format      ascii;
    class       volScalarField;
    location    "3.5";
    object      rho;
}
// * * * * * * * * * * * * * * * * * * * * * * * * * * * * * * * * * * * * * //

dimensions      [1 -3 0 0 0 0 0];

internalField   nonuniform List<scalar> 
16192
(
1.40001
1.40001
1.40001
1.40001
1.40001
1.40001
1.40001
1.40001
1.40001
1.40001
1.40001
1.40004
1.44746
2.67059
3.88237
4.04612
4.03361
3.99915
3.95659
3.9173
1.40001
1.40001
1.40001
1.40001
1.40001
1.40001
1.40001
1.40001
1.40001
1.40001
1.40001
1.40001
1.40247
1.86801
3.5421
4.06647
4.05805
4.02507
3.97584
3.93205
1.40001
1.40001
1.40001
1.40001
1.40001
1.40001
1.40001
1.40001
1.40001
1.40001
1.40001
1.40001
1.40008
1.47076
2.79867
3.87974
4.02914
4.01619
3.98412
3.94288
1.40001
1.40001
1.40001
1.40001
1.40001
1.40001
1.40001
1.40001
1.40001
1.40001
1.40001
1.40001
1.40001
1.40411
1.97418
3.60545
4.05367
4.04244
4.00897
3.96104
1.40001
1.40001
1.40001
1.40001
1.40001
1.40001
1.40001
1.40001
1.40001
1.40001
1.40001
1.40001
1.40001
1.40014
1.50476
2.91994
3.87976
4.0163
4.00315
3.97008
1.40001
1.40001
1.40001
1.40001
1.40001
1.40001
1.40001
1.40001
1.40001
1.40001
1.40001
1.40001
1.40001
1.40001
1.40705
2.08309
3.65219
4.04099
4.0284
3.99441
1.40001
1.40001
1.40001
1.40001
1.40001
1.40001
1.40001
1.40001
1.40001
1.40001
1.40001
1.40001
1.40001
1.40001
1.40026
1.54586
3.02432
3.90554
4.00452
3.98948
1.40001
1.40001
1.40001
1.40001
1.40001
1.40001
1.40001
1.40001
1.40001
1.40001
1.40001
1.40001
1.40001
1.40001
1.40001
1.41129
2.1865
3.68834
4.02125
4.01104
1.40001
1.40001
1.40001
1.40001
1.40001
1.40001
1.40001
1.40001
1.40001
1.40001
1.40001
1.40001
1.40001
1.40001
1.40001
1.40047
1.58956
3.08434
3.96079
4.0087
1.40001
1.40001
1.40001
1.40001
1.40001
1.40001
1.40001
1.40001
1.40001
1.40001
1.40001
1.40001
1.40001
1.40001
1.40001
1.40002
1.41578
2.25988
3.77293
4.00837
1.40001
1.40001
1.40001
1.40001
1.40001
1.40001
1.40001
1.40001
1.40001
1.40001
1.40001
1.40001
1.40001
1.40001
1.40001
1.40001
1.40063
1.63075
3.20263
3.87309
1.40001
1.40001
1.40001
1.40001
1.40001
1.40001
1.40001
1.40001
1.40001
1.40001
1.40001
1.40001
1.40001
1.40001
1.40001
1.40001
1.40002
1.42288
2.34517
3.72125
1.40001
1.40001
1.40001
1.40001
1.40001
1.40001
1.40001
1.40001
1.40001
1.40001
1.40001
1.40001
1.40001
1.40001
1.40001
1.40001
1.40001
1.40101
1.67363
3.2229
1.40001
1.40001
1.40001
1.40001
1.40001
1.40001
1.40001
1.40001
1.40001
1.40001
1.40001
1.40001
1.40001
1.40001
1.40001
1.40001
1.40001
1.40003
1.43118
2.35002
1.40001
1.40001
1.40001
1.40001
1.40001
1.40001
1.40001
1.40001
1.40001
1.40001
1.40001
1.40001
1.40001
1.40001
1.40001
1.40001
1.40001
1.40001
1.40158
1.67283
1.40001
1.40001
1.40001
1.40001
1.40001
1.40001
1.40001
1.40001
1.40001
1.40001
1.40001
1.40001
1.40001
1.40001
1.40001
1.40001
1.40001
1.40001
1.40005
1.4359
1.40001
1.40001
1.40001
1.40001
1.40001
1.40001
1.40001
1.40001
1.40001
1.40001
1.40001
1.40001
1.40001
1.40001
1.40001
1.40001
1.40001
1.40001
1.40001
1.40241
1.40001
1.40001
1.40001
1.40001
1.40001
1.40001
1.40001
1.40001
1.40001
1.40001
1.40001
1.40001
1.40001
1.40001
1.40001
1.40001
1.40001
1.40001
1.40001
1.40008
1.40001
1.40001
1.40001
1.40001
1.40001
1.40001
1.40001
1.40001
1.40001
1.40001
1.40001
1.40001
1.40001
1.40001
1.40001
1.40001
1.40001
1.40001
1.40001
1.40001
1.40001
1.40001
1.40001
1.40001
1.40001
1.40001
1.40001
1.40001
1.40001
1.40001
1.40001
1.40001
1.40001
1.40001
1.40001
1.40001
1.40001
1.40001
1.40001
1.40001
1.40001
1.40001
1.40001
1.40001
1.40001
1.40001
1.40001
1.40001
1.40001
1.40001
1.40001
1.40001
1.40001
1.40001
1.40001
1.40001
1.40001
1.40001
1.40001
1.40001
1.40001
1.40001
1.40001
1.40001
1.40001
1.40001
1.40001
1.40001
1.40001
1.40001
1.40001
1.40001
1.40001
1.40001
1.40001
1.40001
1.40001
1.40001
1.40001
1.40001
1.40001
1.40001
1.40001
1.40001
1.40001
1.40001
1.40001
1.40001
1.40001
1.40001
1.40001
1.40001
1.40001
1.40001
1.40001
1.40001
1.40001
1.40001
1.40001
1.40001
1.40001
1.40001
1.40001
1.40001
1.40001
1.40001
1.40001
1.40001
1.40001
1.40001
1.40001
1.40001
1.40001
1.40001
1.40001
1.40001
1.40001
1.40001
1.40001
1.40001
1.40001
1.40001
1.40001
1.40001
1.40001
1.40001
1.40001
1.40001
1.40001
1.40001
1.40001
1.40001
1.40001
1.40001
1.40001
1.40001
1.40001
1.40001
1.40001
1.40001
1.40001
1.40001
1.40001
1.40001
1.40001
1.40001
1.40001
1.40001
1.40001
1.40001
1.40001
1.40001
1.40001
1.40001
1.40001
1.40001
1.40001
1.40001
1.40001
1.40001
1.40001
1.40001
1.40001
1.40001
1.40001
1.40001
1.40001
1.40001
1.40001
1.40001
1.40001
1.40001
1.40001
1.40001
1.40001
1.40001
1.40001
1.40001
1.40001
1.40001
1.40001
1.40001
1.40001
1.40001
1.40001
1.40001
1.40001
1.40001
1.40001
1.40001
1.40001
1.40001
1.40001
1.40001
1.40001
1.40001
1.40001
1.40001
1.40001
1.40001
1.40001
1.40001
1.40001
1.40001
1.40001
1.40001
1.40001
1.40001
1.40001
1.40001
1.40001
1.40001
1.40001
1.40001
1.40001
1.40001
1.40001
1.40001
1.40001
1.40001
1.40001
1.40001
1.40001
1.40001
1.40001
1.40001
1.40001
1.40001
1.40001
1.40001
1.40001
1.40001
1.40001
1.40001
1.40001
1.40001
1.40001
1.40001
1.40001
1.40001
1.40001
1.40001
1.40001
1.40001
1.40001
1.40001
1.40001
1.40001
1.40001
1.40001
1.40001
1.40001
1.40001
1.40001
1.40001
1.40001
1.40001
1.40001
1.40001
1.40001
1.40001
1.40001
1.40001
1.40001
1.40001
1.40001
1.40001
1.40001
1.40001
1.40001
1.40001
1.40001
1.40001
1.40001
1.40001
1.40001
1.40001
1.40001
1.40001
1.40001
1.40001
1.40001
1.40001
1.40001
1.40001
1.40001
1.40001
1.40001
1.40001
1.40001
1.40001
1.40001
1.40001
1.40001
1.40001
1.40001
1.40001
1.40001
1.40001
1.40001
1.40001
1.40001
1.40001
1.40001
1.40001
1.40001
1.40001
1.40001
1.40001
1.40001
1.40001
1.40001
1.40001
1.40001
1.40001
1.40001
1.40001
1.40001
1.40001
1.40001
1.40001
1.40001
1.40001
1.40001
1.40001
1.40001
1.40001
1.40001
1.40001
1.40001
1.40001
1.40001
1.40001
1.40001
1.40001
1.40001
1.40001
1.40001
1.40001
1.40001
1.40001
1.40001
1.40001
1.40001
1.40001
1.40001
1.40001
1.40001
1.40001
1.40001
1.40001
1.40001
1.40001
1.40001
1.40001
1.40001
1.40001
1.40001
1.40001
1.40001
1.40001
1.40001
1.40001
1.40001
1.40001
1.40001
1.40001
1.40001
1.40001
1.40001
1.40001
1.40001
1.40001
1.40001
1.40001
1.40001
1.40001
1.40001
1.40001
1.40001
1.40001
1.40001
1.40001
1.40001
1.40001
1.40001
1.40001
1.40001
1.40001
1.40001
1.40001
1.40001
1.40001
1.40001
1.40001
1.40001
1.40001
1.40001
1.40001
1.40001
1.40001
1.40001
1.40001
1.40001
1.40001
1.40001
1.40001
1.40001
1.40001
1.40001
1.40001
1.40001
1.40001
1.40001
1.40001
1.40001
1.40001
1.40001
1.40001
1.40001
1.40001
1.40001
1.40001
1.40001
1.40001
1.40001
1.40001
1.40001
1.40001
1.40001
1.40001
1.40001
1.40001
1.40001
1.40001
1.40001
1.40001
1.40001
1.40001
1.40001
1.40001
1.40001
1.40001
1.40001
1.40001
1.40001
1.40001
1.40001
1.40001
1.40001
1.40001
1.40001
1.40001
1.40001
1.40001
1.40001
1.40001
1.40001
1.40001
1.40001
1.40001
1.40001
1.40001
1.40001
1.40001
1.40001
1.40001
1.40001
1.40001
1.40001
1.40001
1.40001
1.40001
1.40001
1.40001
1.40001
1.40001
1.40001
1.40001
1.40001
1.40001
1.40001
1.40001
1.40001
1.40001
1.40001
1.40001
1.40001
1.40001
1.40001
1.40001
1.40001
1.40001
1.40001
1.40001
1.40001
1.40001
1.40001
1.40001
1.40001
1.40001
1.40001
1.40001
1.40001
1.40001
1.40001
1.40001
1.40001
1.40001
1.40001
1.40001
1.40001
1.40001
1.40001
1.40001
1.40001
1.40001
1.40001
1.40001
1.40001
1.40001
1.40001
1.40001
1.40001
1.40001
1.40001
1.40001
1.40001
1.40001
1.40001
1.40001
1.40001
1.40001
1.40001
1.40001
1.40001
1.40001
1.40001
1.40001
1.40001
1.40001
1.40001
1.40001
1.40001
1.40001
1.40001
1.40001
1.40001
1.40001
1.40001
1.40001
1.40001
1.40001
1.40001
1.40001
1.40001
1.40001
1.40001
1.40001
1.40001
1.40001
1.40001
1.40001
1.40001
1.40001
1.40001
1.40001
1.40001
1.40001
1.40001
1.40001
1.40001
1.40001
1.40001
1.40001
1.40001
1.40001
1.40001
1.40001
1.40001
1.40001
1.40001
1.40001
1.40001
1.40001
1.40001
1.40001
1.40001
1.40001
1.40001
1.40001
1.40001
1.40001
1.40001
1.40001
1.40001
1.40001
1.40001
1.40001
1.40001
1.40001
1.40001
1.40001
1.40001
1.40001
1.40001
1.40001
1.40001
1.40001
1.40001
1.40001
1.40001
1.40001
1.40001
1.40001
1.40001
1.40001
1.40001
1.40001
1.40001
1.40001
1.40001
1.40001
1.40001
1.40001
1.40001
1.40001
1.40001
1.40001
1.40001
1.40001
1.40001
1.40001
1.40001
1.40001
1.40001
1.40001
1.40001
1.40001
1.40001
1.40001
1.40001
1.40001
1.40001
1.40001
1.40001
1.40001
1.40001
1.40001
1.40001
1.40001
1.40001
1.40001
1.40001
1.40001
1.40001
1.40001
1.40001
1.40001
1.40001
1.40001
1.40001
1.40001
1.40001
1.40001
1.40001
1.40001
1.40001
1.40001
1.40001
1.40001
1.40001
1.40001
1.40001
1.40001
1.40001
1.40001
1.40001
1.40001
1.40001
1.40001
1.40001
1.40001
1.40001
1.40001
1.40001
1.40001
1.40001
1.40001
1.40001
1.40001
1.40001
1.40001
1.40001
1.40001
1.40001
1.40001
1.40001
1.40001
1.40001
1.40001
1.40001
1.40001
1.40001
1.40001
1.40001
1.40001
1.40001
1.40001
1.40001
1.40001
1.40001
1.40001
1.40001
1.40001
1.40001
1.40001
1.40001
1.40001
1.40001
1.40001
1.40001
1.40001
1.40001
1.40001
1.40001
1.40001
1.40001
1.40001
1.40001
1.40001
1.40001
1.40001
1.40001
1.40001
1.40001
1.40001
1.40001
1.40001
1.40001
1.40001
1.40001
1.40001
1.40001
1.40001
1.40001
1.40001
1.40001
1.40001
1.40001
1.40001
1.40001
1.40001
1.40001
1.40001
1.40001
1.40001
1.40001
1.40001
1.40001
1.40001
1.40001
1.40001
1.40001
1.40001
1.40001
1.40001
1.40001
1.40001
1.40001
1.40001
1.40001
1.40001
1.40001
1.40001
1.40001
1.40001
1.40001
1.40001
1.40001
1.40001
1.40001
1.40001
1.40001
1.40001
1.40001
1.40001
1.40001
1.40001
1.40001
1.40001
1.40001
1.40001
1.40001
1.40001
1.40001
1.40001
1.40001
1.40001
1.40001
1.40001
1.40001
1.40001
1.40001
1.40001
1.40001
1.40001
1.40001
1.40001
1.40001
1.40001
1.40001
1.40001
1.40001
1.40001
1.40001
1.40001
1.40001
1.40001
1.40001
1.40001
1.40001
1.40001
1.40001
1.40001
1.40001
1.40001
1.40001
1.40001
1.40001
1.40001
1.40001
1.40001
1.40001
1.40001
1.40001
1.40001
1.40001
1.40001
1.40001
1.40001
1.40001
1.40001
1.40001
1.40001
1.40001
1.40001
1.40001
1.40001
1.40001
1.40001
1.40001
1.40001
1.40001
1.40001
1.40001
1.40001
1.40001
1.40001
1.40001
1.40001
1.40001
1.40001
1.40001
1.40001
1.40001
1.40001
1.40001
1.40001
1.40001
1.40001
1.40001
1.40001
1.40001
1.40001
1.40001
1.40001
1.40001
1.40001
1.40001
1.40001
1.40001
1.40001
1.40001
1.40001
1.40001
1.40001
1.40001
1.40001
1.40001
1.40001
1.40001
1.40001
1.40001
1.40001
1.40001
1.40001
1.40001
1.40001
1.40001
1.40001
1.40001
1.40001
1.40001
1.40001
1.40001
1.40001
1.40001
1.40001
1.40001
1.40001
1.40001
1.40001
1.40001
1.40001
1.40001
1.40001
1.40001
1.40001
1.40001
1.40001
1.40001
1.40001
1.40001
1.40001
1.40001
1.40001
1.40001
1.40001
1.40001
1.40001
1.40001
1.40001
1.40001
1.40001
1.40001
1.40001
1.40001
1.40001
1.40001
2.57715
2.55809
2.54789
2.5355
2.51845
2.50068
2.48414
2.46656
2.44631
2.42569
2.41117
2.40516
2.40326
2.40341
2.39874
2.38584
2.36142
2.32508
2.29236
2.27758
2.27424
2.27374
2.27086
2.26398
2.25024
2.22532
2.20623
2.2015
2.2001
2.19554
2.18383
2.15906
2.12621
2.1048
2.09967
2.09959
2.10531
2.10487
2.09937
2.08675
2.06179
2.03853
2.03158
2.02898
2.02477
2.01758
2.00136
1.97601
1.95735
1.95337
1.95197
1.94838
1.94304
1.93531
1.91763
1.89432
1.88203
1.88038
1.87931
1.87568
1.87023
1.86295
1.85683
1.85251
1.8478
1.83939
1.8209
1.79559
1.78049
1.7773
1.77482
1.77271
1.76975
1.7657
1.75698
1.73934
1.72891
1.72575
1.72235
1.71805
1.71088
1.69781
1.68869
1.68664
1.68521
1.68302
1.68004
1.67614
1.66801
1.6505
1.62445
1.60452
1.59635
1.5943
1.59369
1.59604
1.60291
1.60997
1.61106
1.60875
1.60581
1.60003
1.58636
1.56187
1.53228
1.51516
1.50955
1.50875
1.5091
1.51311
1.52056
1.5219
1.5192
1.51728
1.51549
1.51296
1.50702
1.49082
1.46548
1.4523
1.45085
1.45019
1.44845
1.44524
1.44179
1.43853
1.43513
1.43229
1.43003
1.42768
1.4245
1.41875
1.40733
1.39423
3.88829
3.86977
3.85274
3.83561
3.81516
3.79638
3.78127
3.76476
3.74574
3.72452
3.7092
3.69239
3.67457
3.65342
3.63351
3.61971
3.60226
3.58486
3.56306
3.54533
3.53188
3.51461
3.49633
3.47655
3.45901
3.44541
3.42919
3.41028
3.3922
3.37599
3.35991
3.34252
3.32621
3.30786
3.28904
3.27296
3.2517
3.23878
3.22484
3.20691
3.19263
3.17275
3.15919
3.14407
3.12641
3.10811
3.08655
3.07477
3.0596
3.04413
3.02728
3.00052
2.98044
2.96006
2.94204
2.93492
2.94035
2.95511
2.98803
3.05534
3.14128
3.16877
3.17433
3.16728
3.14988
3.12931
3.10851
3.0877
3.0626
3.04688
3.03003
3.00904
2.99063
2.97057
2.94562
2.92636
2.90957
2.89316
2.87876
2.86604
2.8482
2.82505
2.8048
2.78815
2.77531
2.76436
2.75109
2.73545
2.71525
2.69374
2.67897
2.66258
2.64894
2.63742
2.62507
2.61089
2.58928
2.57669
2.56737
2.55024
2.5311
2.51336
2.49648
2.47862
2.45954
2.44601
2.44003
2.4374
2.43549
2.42815
2.41257
2.38814
2.35249
2.32019
2.30578
2.30257
2.30203
2.29895
2.29204
2.27847
2.25403
2.23509
2.23036
2.22886
2.22375
2.2107
2.18472
2.15215
2.13191
2.12716
2.1274
2.13338
2.13277
2.12701
2.11395
2.08834
2.06405
2.05625
2.05387
2.05004
2.04307
2.02711
2.00123
1.98116
1.97686
1.97597
1.97305
1.96769
1.96012
1.94267
1.91823
1.90496
1.90337
1.90326
1.89992
1.89431
1.88603
1.87734
1.87191
1.86708
1.85987
1.84351
1.81884
1.80205
1.79851
1.79595
1.79366
1.79063
1.78662
1.77886
1.76129
1.74752
1.74428
1.74125
1.7373
1.73134
1.71967
1.70852
1.70566
1.7037
1.70103
1.69781
1.6938
1.68632
1.66962
1.64276
1.62141
1.61391
1.61218
1.6117
1.61519
1.62348
1.62884
1.62823
1.62583
1.62293
1.61674
1.60205
1.57551
1.5463
1.53121
1.52692
1.52621
1.52662
1.52945
1.53512
1.53808
1.53597
1.5338
1.53186
1.5293
1.52422
1.50968
1.48464
1.46694
1.464
1.46287
1.4626
1.46097
1.45784
1.4548
1.45229
1.44975
1.44637
1.44222
1.43767
1.43129
1.42103
1.40865
1.40333
3.90185
3.88339
3.86621
3.84852
3.82795
3.81013
3.79419
3.7771
3.75724
3.73799
3.72264
3.70499
3.68673
3.6652
3.64826
3.63349
3.61605
3.59708
3.57514
3.56071
3.54653
3.52887
3.50999
3.48954
3.47371
3.46004
3.44258
3.4241
3.40647
3.38834
3.37147
3.35595
3.33801
3.31893
3.30365
3.28372
3.26812
3.25608
3.23787
3.2235
3.20625
3.18857
3.17588
3.15772
3.14116
3.12002
3.10407
3.09174
3.07479
3.05971
3.03773
3.01698
3.00366
2.98576
2.97078
2.95457
2.95022
2.95501
2.96697
3.00829
3.09746
3.15013
3.18317
3.1822
3.17098
3.15404
3.13607
3.11123
3.08522
3.06912
3.04873
3.02864
3.00929
2.98409
2.96138
2.94179
2.92409
2.90856
2.89543
2.88104
2.86068
2.83798
2.8174
2.80022
2.78852
2.7761
2.76048
2.74455
2.7271
2.70933
2.69202
2.67667
2.66254
2.64846
2.63898
2.62534
2.60629
2.59179
2.57512
2.55722
2.54062
2.52367
2.50907
2.49505
2.48112
2.4742
2.46996
2.46488
2.45405
2.43696
2.41392
2.38045
2.34884
2.33402
2.3307
2.33001
2.32682
2.31962
2.30592
2.28266
2.26456
2.25988
2.2583
2.25266
2.23808
2.21035
2.17796
2.15906
2.15471
2.15546
2.16168
2.16062
2.15445
2.14082
2.11483
2.08971
2.08094
2.07876
2.0752
2.06836
2.05265
2.02679
2.00582
2.00095
2.00016
1.99849
1.99336
1.98589
1.96865
1.94354
1.92892
1.92667
1.92688
1.92461
1.91921
1.90979
1.89837
1.89139
1.88642
1.88006
1.86609
1.84232
1.82352
1.81951
1.81689
1.81448
1.81153
1.80764
1.80071
1.78365
1.76689
1.76301
1.76036
1.7567
1.75185
1.74217
1.72856
1.72411
1.72185
1.71884
1.7154
1.71134
1.70469
1.68915
1.66255
1.63945
1.63191
1.63038
1.62986
1.63382
1.64335
1.64764
1.6459
1.64339
1.64044
1.63402
1.61819
1.5897
1.56145
1.54809
1.54491
1.54431
1.54487
1.54652
1.54933
1.55311
1.55217
1.5502
1.54842
1.54597
1.54146
1.5278
1.50273
1.48269
1.47776
1.47621
1.47582
1.47621
1.47453
1.47152
1.46894
1.46664
1.46356
1.45818
1.45141
1.44359
1.43363
1.42306
1.41803
1.41633
3.9127
3.89446
3.87734
3.85918
3.83958
3.82321
3.80687
3.78879
3.76795
3.75117
3.73581
3.71818
3.69886
3.6776
3.66256
3.64737
3.63008
3.60986
3.58915
3.57547
3.56027
3.54271
3.52335
3.50314
3.48896
3.4735
3.45485
3.43727
3.4183
3.40006
3.38594
3.36878
3.34919
3.33333
3.31484
3.29715
3.28599
3.26899
3.25239
3.23791
3.2175
3.20453
3.18845
3.17033
3.1535
3.133
3.12163
3.1064
3.08996
3.07214
3.04925
3.03949
3.02788
3.01369
2.99763
2.97552
2.96168
2.95717
2.96247
2.97958
3.04574
3.1135
3.17176
3.19949
3.19313
3.18236
3.16554
3.1356
3.11252
3.09279
3.0698
3.0487
3.02348
2.99937
2.97807
2.95888
2.94264
2.92711
2.91311
2.89523
2.87384
2.85343
2.83162
2.81525
2.80202
2.78682
2.77163
2.75635
2.74192
2.72587
2.70771
2.68861
2.67144
2.66068
2.65203
2.63841
2.62119
2.60293
2.58357
2.56633
2.54931
2.53475
2.52608
2.51599
2.50728
2.50045
2.49213
2.47814
2.45976
2.43714
2.4076
2.37881
2.36354
2.35981
2.35813
2.35448
2.34678
2.33218
2.31074
2.29433
2.2899
2.28829
2.28211
2.26586
2.23624
2.20382
2.18603
2.18206
2.18349
2.18995
2.18826
2.1817
2.16768
2.14146
2.11546
2.10577
2.10367
2.10048
2.09371
2.07796
2.05228
2.0308
2.02533
2.02443
2.02367
2.01912
2.01203
1.99481
1.96921
1.95408
1.95159
1.95125
1.94904
1.94408
1.93386
1.91985
1.91121
1.90599
1.90016
1.8888
1.86654
1.84538
1.84035
1.83802
1.83549
1.83239
1.82845
1.82209
1.80625
1.78733
1.78205
1.7799
1.77645
1.77217
1.7648
1.75038
1.74203
1.73949
1.73645
1.73298
1.72886
1.72276
1.70902
1.6837
1.65861
1.65001
1.64855
1.64807
1.65244
1.66223
1.66619
1.66409
1.66145
1.65842
1.65172
1.63502
1.60498
1.57722
1.56559
1.5634
1.56293
1.56366
1.56445
1.56474
1.56697
1.56826
1.56654
1.56487
1.56267
1.55864
1.54652
1.52124
1.49808
1.49183
1.49051
1.49004
1.49143
1.49155
1.48954
1.48709
1.48469
1.48088
1.47341
1.46457
1.45616
1.44632
1.43703
1.43339
1.43169
1.43046
3.92729
3.90839
3.89119
3.87294
3.85426
3.83768
3.82052
3.80181
3.78109
3.76534
3.7489
3.7313
3.71157
3.69165
3.6772
3.66083
3.6435
3.6234
3.60492
3.59079
3.57352
3.55596
3.5365
3.51831
3.50417
3.48606
3.46765
3.44965
3.4288
3.41408
3.39903
3.37956
3.36322
3.34643
3.32657
3.31427
3.29898
3.28051
3.2673
3.24762
3.23155
3.21829
3.19929
3.18391
3.16447
3.1498
3.13805
3.12086
3.10524
3.08374
3.07037
3.06338
3.05048
3.03815
3.01833
2.99377
2.97683
2.96361
2.96494
2.9746
3.01035
3.07099
3.14395
3.1981
3.21118
3.20503
3.18885
3.16344
3.14198
3.11749
3.09292
3.06574
3.0372
3.01644
2.99601
2.97952
2.96244
2.9473
2.93134
2.91108
2.89095
2.86929
2.84631
2.82984
2.81448
2.79945
2.78506
2.77302
2.75953
2.74156
2.72158
2.69779
2.68216
2.6747
2.66427
2.65026
2.63312
2.6133
2.59378
2.57581
2.56005
2.55203
2.54647
2.53815
2.52937
2.51883
2.50369
2.48319
2.45947
2.43317
2.4082
2.3936
2.38967
2.38711
2.3821
2.37282
2.35699
2.33784
2.3243
2.32016
2.31824
2.31133
2.29359
2.26256
2.22978
2.21307
2.2094
2.21132
2.21788
2.21549
2.20855
2.194
2.16797
2.1415
2.13076
2.12856
2.12588
2.11922
2.10319
2.07741
2.0558
2.0499
2.04888
2.04851
2.04435
2.03762
2.02091
1.995
1.97915
1.97685
1.97731
1.97488
1.96899
1.95696
1.94116
1.93139
1.926
1.92053
1.91138
1.89123
1.86826
1.86122
1.85936
1.85689
1.85368
1.84977
1.84383
1.82894
1.80869
1.80143
1.79968
1.79688
1.79282
1.78681
1.77352
1.76051
1.75689
1.75391
1.75053
1.74648
1.74083
1.72902
1.70575
1.67887
1.66816
1.66658
1.66597
1.6705
1.68131
1.68471
1.6824
1.67992
1.67682
1.66974
1.6523
1.62135
1.59402
1.58346
1.58182
1.58159
1.58241
1.58242
1.58154
1.58175
1.5841
1.58333
1.58155
1.57948
1.57594
1.56503
1.54036
1.51391
1.50593
1.50488
1.50515
1.50764
1.50928
1.50819
1.50606
1.50343
1.49783
1.48697
1.47647
1.46822
1.45958
1.45161
1.44882
1.4475
1.44606
1.44528
3.94008
3.92097
3.90203
3.88318
3.86652
3.85025
3.83266
3.81211
3.79258
3.77807
3.76163
3.74427
3.72339
3.70626
3.69173
3.67433
3.65612
3.63551
3.62028
3.60501
3.58673
3.56842
3.54754
3.53252
3.51745
3.49851
3.48076
3.45924
3.44135
3.42838
3.41008
3.39244
3.37661
3.35639
3.34277
3.32901
3.30965
3.29503
3.2778
3.25829
3.24672
3.22973
3.21309
3.19746
3.17882
3.16879
3.15364
3.13752
3.1202
3.10168
3.09491
3.08381
3.07042
3.05601
3.03246
3.01271
2.99454
2.97627
2.97011
2.97559
2.99316
3.03186
3.10214
3.18035
3.20708
3.21259
3.20601
3.18934
3.16748
3.14177
3.11477
3.08043
3.05631
3.03587
3.01754
3.00078
2.98281
2.96809
2.94984
2.92997
2.91025
2.88513
2.86204
2.84346
2.82796
2.81366
2.80277
2.79287
2.77714
2.75818
2.73409
2.70732
2.69718
2.68887
2.6759
2.66168
2.64355
2.62409
2.60563
2.58722
2.57649
2.57152
2.56516
2.55643
2.54466
2.52966
2.50897
2.48369
2.45801
2.4358
2.42301
2.4194
2.4163
2.40929
2.39765
2.38027
2.36343
2.35362
2.35033
2.348
2.33966
2.32062
2.28886
2.25622
2.24031
2.23688
2.23892
2.24518
2.24209
2.23478
2.21992
2.19428
2.16777
2.15622
2.15379
2.1513
2.14461
2.12793
2.10223
2.08083
2.0747
2.07358
2.07339
2.06938
2.06274
2.0463
2.02066
2.00415
2.00144
2.00184
2.00034
1.99419
1.97924
1.96169
1.95192
1.94677
1.94154
1.93368
1.91603
1.89229
1.88215
1.88057
1.87865
1.87546
1.8715
1.86575
1.85141
1.83038
1.82082
1.81911
1.81725
1.81386
1.80882
1.79675
1.78014
1.77433
1.77133
1.768
1.76415
1.75899
1.74905
1.72814
1.7002
1.68674
1.68485
1.68407
1.68821
1.69983
1.70385
1.70117
1.69858
1.69549
1.68825
1.66997
1.63799
1.61147
1.60177
1.60022
1.60003
1.60055
1.60009
1.59875
1.59823
1.60016
1.6006
1.59875
1.5967
1.59341
1.58322
1.55944
1.53069
1.52015
1.51902
1.52027
1.52527
1.52743
1.52672
1.52493
1.52172
1.51353
1.5
1.48825
1.4797
1.47249
1.46669
1.46459
1.46368
1.46225
1.46052
1.45968
3.95881
3.9364
3.9147
3.89503
3.87941
3.86359
3.84706
3.82695
3.80872
3.79227
3.77554
3.75855
3.73838
3.72272
3.70546
3.68743
3.66819
3.64893
3.63519
3.61766
3.59978
3.58022
3.56012
3.54637
3.52876
3.51094
3.4925
3.47073
3.45714
3.44084
3.42162
3.40623
3.38657
3.37029
3.35842
3.34049
3.32397
3.30918
3.28784
3.27511
3.26078
3.24281
3.22944
3.21102
3.19865
3.18686
3.16958
3.15492
3.13556
3.12412
3.1148
3.09988
3.08612
3.06705
3.04595
3.0319
3.01335
2.99496
2.97933
2.97998
2.98654
3.00516
3.05483
3.14083
3.18766
3.21691
3.2166
3.20666
3.18778
3.16555
3.13433
3.10071
3.08037
3.05889
3.04201
3.02113
3.00424
2.98889
2.9697
2.95131
2.92914
2.90195
2.87746
2.85949
2.84433
2.83184
2.8234
2.81114
2.79375
2.77408
2.74397
2.72251
2.7146
2.70229
2.68811
2.6733
2.65518
2.63727
2.61961
2.6021
2.59428
2.58845
2.58035
2.5696
2.55531
2.53641
2.5111
2.48321
2.46055
2.44962
2.44726
2.44466
2.43598
2.42256
2.40364
2.38755
2.38075
2.37899
2.37661
2.36673
2.34665
2.3149
2.28277
2.26747
2.26425
2.26612
2.27152
2.26786
2.2603
2.24557
2.22067
2.19446
2.18226
2.17962
2.17691
2.1692
2.15139
2.12638
2.10588
2.09975
2.09855
2.09852
2.09457
2.08784
2.07129
2.04602
2.02907
2.02588
2.02574
2.02392
2.01767
2.00151
1.98176
1.97245
1.96801
1.96307
1.95619
1.9413
1.91743
1.90393
1.90202
1.90047
1.89757
1.89376
1.88823
1.87436
1.85253
1.84072
1.83866
1.83714
1.83414
1.82981
1.81973
1.80092
1.79178
1.78894
1.78558
1.7818
1.77707
1.76897
1.75057
1.72287
1.70592
1.70343
1.70251
1.7062
1.71818
1.72318
1.72042
1.71763
1.71432
1.70682
1.6882
1.65525
1.62898
1.62025
1.61881
1.61825
1.6181
1.61732
1.61598
1.61537
1.61717
1.61838
1.61648
1.61433
1.61106
1.60143
1.57827
1.54768
1.53495
1.53345
1.53445
1.54248
1.54656
1.54501
1.54307
1.53941
1.52907
1.51312
1.4996
1.49098
1.48532
1.48172
1.48021
1.48008
1.47911
1.47643
1.4748
1.47351
3.96841
3.9495
3.92714
3.90905
3.89424
3.87792
3.85988
3.84098
3.82494
3.80689
3.7886
3.76803
3.75129
3.73708
3.71878
3.69984
3.67727
3.66109
3.64668
3.62844
3.61115
3.5899
3.57376
3.55867
3.53976
3.52267
3.50134
3.48525
3.47227
3.45332
3.43672
3.41794
3.39801
3.38677
3.37115
3.35323
3.33988
3.32022
3.30518
3.29302
3.27509
3.26081
3.24434
3.22828
3.21858
3.20254
3.1871
3.1707
3.15328
3.14374
3.12919
3.11284
3.09641
3.07422
3.06156
3.04921
3.03247
3.0153
2.99342
2.98617
2.98722
2.99151
3.0172
3.088
3.15111
3.20312
3.22587
3.21991
3.20836
3.18901
3.15401
3.12829
3.10668
3.08641
3.06614
3.04218
3.02792
3.01077
2.99192
2.97187
2.94587
2.91802
2.8956
2.87966
2.8641
2.85426
2.84405
2.82786
2.81017
2.78675
2.7544
2.74139
2.73024
2.71582
2.70223
2.68729
2.6711
2.65376
2.63586
2.61785
2.60978
2.60271
2.59229
2.57959
2.56376
2.54139
2.51241
2.48556
2.47358
2.4711
2.47034
2.46276
2.44905
2.42923
2.41211
2.40624
2.40516
2.40269
2.39179
2.37134
2.3403
2.30899
2.2942
2.29118
2.29252
2.29627
2.29246
2.28501
2.27077
2.24706
2.2216
2.20886
2.20602
2.20252
2.193
2.17388
2.14956
2.13069
2.12492
2.12384
2.124
2.11995
2.11304
2.09605
2.07116
2.05395
2.05027
2.04968
2.04752
2.04045
2.02339
2.00285
1.99294
1.98936
1.98507
1.97907
1.96638
1.94304
1.92659
1.92395
1.92258
1.91986
1.91601
1.91067
1.89741
1.87509
1.86115
1.85863
1.85725
1.85436
1.85022
1.84143
1.82248
1.80947
1.80651
1.80331
1.79953
1.79505
1.78835
1.77302
1.74693
1.72626
1.7227
1.72155
1.7247
1.73675
1.74262
1.73995
1.73696
1.73347
1.72554
1.70645
1.67299
1.64661
1.63837
1.63713
1.63643
1.63561
1.63436
1.63306
1.63261
1.63473
1.63643
1.63466
1.63244
1.62924
1.62008
1.59732
1.56529
1.5502
1.54828
1.54899
1.5576
1.56497
1.56385
1.56111
1.55633
1.54476
1.52727
1.51126
1.50236
1.4986
1.49672
1.49581
1.49599
1.49621
1.49345
1.49078
1.48887
1.48683
3.99194
3.9725
3.94776
3.92904
3.91261
3.89502
3.87395
3.85639
3.83905
3.8203
3.80098
3.77873
3.76419
3.74854
3.73143
3.71239
3.68986
3.67454
3.65645
3.63883
3.62095
3.60176
3.58878
3.57115
3.55333
3.5341
3.51339
3.50136
3.48549
3.46813
3.4529
3.43145
3.41723
3.40334
3.38455
3.37019
3.35326
3.33587
3.32525
3.30903
3.29313
3.27888
3.25954
3.24786
3.23407
3.21662
3.203
3.18422
3.17099
3.15814
3.14013
3.1238
3.10302
3.08562
3.07774
3.06423
3.05074
3.03341
3.01026
2.99759
2.98894
2.98938
2.99824
3.04198
3.10293
3.1707
3.22216
3.22849
3.22246
3.20718
3.18044
3.15819
3.1346
3.11429
3.08672
3.06743
3.05355
3.03468
3.01506
2.98863
2.96008
2.9354
2.91818
2.90192
2.88855
2.87876
2.86392
2.84601
2.82677
2.79574
2.77038
2.75875
2.74462
2.73144
2.71791
2.70548
2.6903
2.67296
2.65312
2.63239
2.62378
2.6155
2.60256
2.58837
2.57095
2.54581
2.51546
2.49902
2.49492
2.49287
2.48724
2.47539
2.45686
2.43884
2.43253
2.43021
2.42655
2.41515
2.39411
2.3641
2.33492
2.32018
2.31692
2.31772
2.31957
2.31538
2.3084
2.29537
2.27352
2.24895
2.2358
2.23248
2.22756
2.2155
2.19486
2.17166
2.15508
2.14995
2.14928
2.14989
2.14571
2.13829
2.12057
2.09601
2.07882
2.07473
2.07372
2.07109
2.06322
2.04515
2.0241
2.01399
2.01099
2.0072
2.00158
1.99069
1.96893
1.94978
1.94608
1.94486
1.94257
1.93867
1.93347
1.92073
1.89799
1.88208
1.8791
1.87784
1.87501
1.87069
1.86269
1.84437
1.82782
1.82408
1.8211
1.81728
1.81303
1.80729
1.79505
1.77119
1.74798
1.74249
1.7414
1.74396
1.75569
1.76226
1.75965
1.75649
1.7528
1.74449
1.72507
1.69093
1.66426
1.6562
1.65503
1.65427
1.65316
1.65167
1.65036
1.64997
1.65246
1.65465
1.65293
1.6506
1.64737
1.63853
1.61631
1.5828
1.56582
1.56343
1.56377
1.57235
1.58235
1.58202
1.57915
1.5735
1.55998
1.54087
1.52457
1.51575
1.51318
1.51222
1.51155
1.51169
1.51282
1.51101
1.50787
1.50513
1.5024
1.49738
3.99986
3.98303
3.95881
3.93859
3.9193
3.89938
3.8814
3.86657
3.84906
3.83077
3.80854
3.7891
3.77498
3.75764
3.74117
3.72142
3.70452
3.68798
3.66822
3.65022
3.62826
3.61407
3.60196
3.58502
3.56907
3.54732
3.53121
3.51772
3.4993
3.48412
3.46574
3.44925
3.43771
3.41996
3.40318
3.38657
3.36584
3.35476
3.34186
3.32477
3.31161
3.29302
3.27721
3.26429
3.24594
3.23043
3.21355
3.19587
3.18472
3.16812
3.15093
3.1336
3.11178
3.10276
3.09249
3.07854
3.06649
3.04725
3.0281
3.01108
2.99369
2.98764
2.99022
3.01099
3.05405
3.12191
3.20153
3.22145
3.22643
3.22077
3.20454
3.18323
3.16126
3.13672
3.10698
3.09362
3.07716
3.05791
3.03498
3.00205
2.97672
2.95812
2.94259
2.92603
2.91532
2.90267
2.88516
2.86658
2.84139
2.80678
2.78858
2.77426
2.76103
2.748
2.73693
2.72644
2.71076
2.69289
2.66757
2.64629
2.63761
2.62728
2.61301
2.59741
2.5775
2.55092
2.52907
2.52163
2.51651
2.51069
2.50039
2.48456
2.46712
2.45972
2.45574
2.45035
2.43825
2.41632
2.38701
2.36043
2.34603
2.3421
2.34142
2.34111
2.33647
2.32937
2.31757
2.29901
2.27632
2.26275
2.25903
2.25247
2.23683
2.21455
2.19284
2.17868
2.17419
2.17433
2.17589
2.17173
2.16387
2.14558
2.12094
2.10379
2.09942
2.09799
2.09479
2.08592
2.06693
2.04569
2.03508
2.03244
2.02949
2.02428
2.01474
1.99431
1.97339
1.96836
1.96707
1.96545
1.96148
1.95622
1.94375
1.92096
1.90315
1.89956
1.89857
1.89618
1.89187
1.88452
1.86661
1.84685
1.84152
1.83922
1.83547
1.83112
1.8259
1.8166
1.79607
1.77145
1.76284
1.76186
1.76391
1.77494
1.7821
1.77958
1.77619
1.77222
1.76357
1.74403
1.70945
1.68204
1.67387
1.67275
1.67197
1.67076
1.66922
1.66793
1.66765
1.67043
1.67288
1.67116
1.66878
1.66553
1.65684
1.63503
1.60039
1.58152
1.5785
1.57857
1.58697
1.59921
1.59997
1.59713
1.59124
1.57668
1.55435
1.53777
1.53059
1.52858
1.52821
1.52811
1.52812
1.52921
1.52828
1.52553
1.52239
1.51877
1.51268
1.50007
4.00734
3.99861
3.97924
3.95198
3.92848
3.90542
3.88919
3.87597
3.86048
3.84319
3.82105
3.80366
3.78555
3.76731
3.74973
3.73299
3.72067
3.70239
3.68437
3.66386
3.64162
3.62945
3.61458
3.60045
3.5853
3.56709
3.5536
3.53528
3.51688
3.49918
3.47922
3.46841
3.45519
3.438
3.42335
3.40196
3.38496
3.37242
3.35449
3.34007
3.32477
3.30612
3.29344
3.27645
3.25823
3.24282
3.22178
3.20868
3.1954
3.17723
3.16285
3.14343
3.12956
3.12113
3.10622
3.09325
3.07756
3.05899
3.04428
3.02503
3.00431
2.99055
2.99062
2.99516
3.01826
3.07039
3.15868
3.2017
3.22911
3.23008
3.22129
3.20409
3.18557
3.15513
3.13053
3.11701
3.09752
3.0776
3.04848
3.01763
3.00024
2.98494
2.96699
2.95223
2.94146
2.92611
2.90777
2.88635
2.85207
2.82352
2.80669
2.79288
2.78006
2.76752
2.75926
2.74722
2.73101
2.71028
2.67885
2.6616
2.65144
2.63841
2.62401
2.60728
2.58528
2.56472
2.5531
2.54356
2.53475
2.52483
2.51198
2.49673
2.48798
2.4823
2.47484
2.46181
2.43862
2.40908
2.38494
2.37194
2.36769
2.36598
2.36272
2.35667
2.34843
2.33741
2.32225
2.30268
2.28946
2.28535
2.27719
2.25847
2.23389
2.21336
2.20137
2.19744
2.19847
2.20117
2.19722
2.1891
2.1706
2.14612
2.12909
2.12451
2.12272
2.11868
2.1084
2.08834
2.0667
2.05604
2.05359
2.05149
2.0466
2.0381
2.01922
1.99759
1.99044
1.98906
1.98821
1.98453
1.97923
1.9668
1.94397
1.92455
1.92014
1.91903
1.91735
1.91337
1.90668
1.88964
1.86736
1.85863
1.8567
1.85396
1.84981
1.84478
1.83723
1.82015
1.79597
1.78422
1.78308
1.78455
1.79445
1.80185
1.79957
1.7959
1.79147
1.78235
1.76295
1.72859
1.70029