/*--------------------------------*- C++ -*----------------------------------*\
  =========                 |
  \\      /  F ield         | OpenFOAM: The Open Source CFD Toolbox
   \\    /   O peration     | Website:  https://openfoam.org
    \\  /    A nd           | Version:  7
     \\/     M anipulation  |
\*---------------------------------------------------------------------------*/
FoamFile
{
    version     2.0;
    format      ascii;
    class       volVectorField;
    location    "3.1";
    object      U;
}
// * * * * * * * * * * * * * * * * * * * * * * * * * * * * * * * * * * * * * //

dimensions      [0 1 -1 0 0 0 0];

internalField   nonuniform List<vector> 
16192
(
(2.59971 0.0354489 0)
(2.60015 0.0354654 0)
(2.60068 0.0353198 0)
(2.60076 0.034789 0)
(2.60005 0.0338223 0)
(2.59941 0.032846 0)
(2.5999 0.0327239 0)
(2.60051 0.0328814 0)
(2.60118 0.0331623 0)
(2.60271 0.0340233 0)
(2.60495 0.0356534 0)
(2.60624 0.0365085 0)
(2.60688 0.0366814 0)
(2.60763 0.0368655 0)
(2.60767 0.0366596 0)
(2.60625 0.0356461 0)
(2.60369 0.0339108 0)
(2.60287 0.0333491 0)
(2.60331 0.0334716 0)
(2.6037 0.033825 0)
(2.60456 0.0343679 0)
(2.60613 0.035457 0)
(2.60779 0.0362363 0)
(2.60835 0.0362287 0)
(2.60868 0.0360458 0)
(2.60878 0.0357339 0)
(2.6081 0.0350573 0)
(2.60673 0.0340858 0)
(2.60605 0.0337013 0)
(2.60592 0.0338183 0)
(2.60575 0.034371 0)
(2.60598 0.0355504 0)
(2.60636 0.0370771 0)
(2.60598 0.0378265 0)
(2.60541 0.0381429 0)
(2.60427 0.0383276 0)
(2.60237 0.0379895 0)
(2.60051 0.037347 0)
(2.59976 0.037205 0)
(2.59912 0.0373796 0)
(2.59865 0.0378446 0)
(2.59927 0.0389759 0)
(2.60094 0.0406795 0)
(2.60128 0.0412523 0)
(2.60104 0.0412255 0)
(2.60084 0.0411934 0)
(2.60029 0.0408812 0)
(2.59895 0.0397519 0)
(2.59674 0.0380727 0)
(2.59629 0.0375628 0)
(2.59678 0.0377305 0)
(2.59739 0.038109 0)
(2.59879 0.0389438 0)
(2.60043 0.0399787 0)
(2.60105 0.0402011 0)
(2.60166 0.0401888 0)
(2.60212 0.0400424 0)
(2.60183 0.0393142 0)
(2.6009 0.0380972 0)
(2.60107 0.0375369 0)
(2.6017 0.037591 0)
(2.60252 0.0377688 0)
(2.60355 0.038029 0)
(2.60437 0.0382243 0)
(2.60509 0.0382811 0)
(2.60577 0.0383695 0)
(2.60635 0.0384202 0)
(2.6065 0.0380993 0)
(2.60577 0.0371054 0)
(2.60499 0.0360247 0)
(2.60543 0.0358454 0)
(2.60596 0.0361067 0)
(2.60703 0.0366656 0)
(2.60861 0.0374933 0)
(2.60983 0.0379953 0)
(2.6103 0.0380122 0)
(2.6108 0.0378685 0)
(2.6111 0.0376283 0)
(2.61046 0.0367617 0)
(2.60865 0.0353434 0)
(2.60792 0.0346022 0)
(2.60831 0.0347067 0)
(2.60882 0.0351087 0)
(2.61018 0.036098 0)
(2.61217 0.0374852 0)
(2.6131 0.0379213 0)
(2.61373 0.0379101 0)
(2.61427 0.0377535 0)
(2.61405 0.0370756 0)
(2.61283 0.0357328 0)
(2.61161 0.0343672 0)
(2.61156 0.034018 0)
(2.61181 0.0340742 0)
(2.61254 0.0343554 0)
(2.61393 0.0351297 0)
(2.61503 0.0356394 0)
(2.61543 0.0356568 0)
(2.61595 0.0356036 0)
(2.61637 0.0355427 0)
(2.61639 0.0352641 0)
(2.61574 0.0344783 0)
(2.61423 0.0328072 0)
(2.6126 0.0311599 0)
(2.61208 0.0305294 0)
(2.61207 0.0305662 0)
(2.6124 0.0313319 0)
(2.61369 0.0332222 0)
(2.61602 0.0359799 0)
(2.61771 0.0378095 0)
(2.61799 0.0381282 0)
(2.61801 0.0378291 0)
(2.61745 0.0371924 0)
(2.61606 0.0359757 0)
(2.61372 0.0339324 0)
(2.61207 0.0325236 0)
(2.61176 0.0321189 0)
(2.6117 0.0322629 0)
(2.6122 0.0335673 0)
(2.61428 0.0367574 0)
(2.61744 0.0409424 0)
(2.61897 0.0430616 0)
(2.61903 0.0433395 0)
(2.61885 0.0430117 0)
(2.61799 0.0420598 0)
(2.61607 0.0399002 0)
(2.61307 0.036284 0)
(2.61099 0.0336552 0)
(2.61075 0.0329161 0)
(2.61091 0.0326877 0)
(2.61138 0.0326778 0)
(2.61201 0.0328487 0)
(2.61232 0.0329199 0)
(2.61279 0.0327627 0)
(2.61306 0.0323912 0)
(2.61313 0.0317891 0)
(2.61341 0.0316708 0)
(2.6132 0.0313648 0)
(2.59717 0.00802498 0)
(2.49713 -0.130743 0)
(2.31906 -0.350534 0)
(2.06562 -0.580858 0)
(1.988 -0.641821 0)
(1.97589 -0.616711 0)
(2.00206 -0.601484 0)
(2.0161 -0.605567 0)
(2.01599 -0.613109 0)
(2.0107 -0.618416 0)
(2.00655 -0.618825 0)
(2.00739 -0.61694 0)
(2.00982 -0.613145 0)
(2.01113 -0.611034 0)
(2.0114 -0.610425 0)
(2.01123 -0.611007 0)
(2.01047 -0.613198 0)
(2.0098 -0.615663 0)
(2.01199 -0.616064 0)
(2.01469 -0.614662 0)
(2.01826 -0.612081 0)
(2.02392 -0.607939 0)
(2.03048 -0.602557 0)
(2.03511 -0.599834 0)
(2.03744 -0.600245 0)
(2.03958 -0.601824 0)
(2.04095 -0.603993 0)
(2.04181 -0.60616 0)
(2.04289 -0.606766 0)
(2.04514 -0.605753 0)
(2.04764 -0.603748 0)
(2.05032 -0.601846 0)
(2.05332 -0.60097 0)
(2.0568 -0.600752 0)
(2.06072 -0.600574 0)
(2.06435 -0.599803 0)
(2.06739 -0.598588 0)
(2.07003 -0.596989 0)
(2.07241 -0.59541 0)
(2.07431 -0.594515 0)
(2.07578 -0.594719 0)
(2.07824 -0.596006 0)
(2.08073 -0.597722 0)
(2.08276 -0.599579 0)
(2.08517 -0.601193 0)
(2.08794 -0.601912 0)
(2.09072 -0.600546 0)
(2.09332 -0.596 0)
(2.09604 -0.590441 0)
(2.09789 -0.58654 0)
(2.10009 -0.585805 0)
(2.1025 -0.586776 0)
(2.10452 -0.588433 0)
(2.10683 -0.589565 0)
(2.10899 -0.590338 0)
(2.11198 -0.591256 0)
(2.1162 -0.59116 0)
(2.12071 -0.590057 0)
(2.12403 -0.588871 0)
(2.12567 -0.588419 0)
(2.12712 -0.587758 0)
(2.12673 -0.585371 0)
(2.12415 -0.581436 0)
(2.12356 -0.579343 0)
(2.12521 -0.579075 0)
(2.12719 -0.579402 0)
(2.12918 -0.579679 0)
(2.13268 -0.580409 0)
(2.13838 -0.58269 0)
(2.1446 -0.584164 0)
(2.14791 -0.583436 0)
(2.1494 -0.581271 0)
(2.15102 -0.576226 0)
(2.15154 -0.570306 0)
(2.15229 -0.56665 0)
(2.15484 -0.566783 0)
(2.15764 -0.5678 0)
(2.1605 -0.569251 0)
(2.16334 -0.570486 0)
(2.16606 -0.571481 0)
(2.16743 -0.571492 0)
(2.16713 -0.56974 0)
(2.16765 -0.568551 0)
(2.16942 -0.568574 0)
(2.17131 -0.569009 0)
(2.17339 -0.569326 0)
(2.1777 -0.569567 0)
(2.18425 -0.569933 0)
(2.18987 -0.570071 0)
(2.19296 -0.569739 0)
(2.19514 -0.569529 0)
(2.1975 -0.569079 0)
(2.19843 -0.566826 0)
(2.19552 -0.561354 0)
(2.19268 -0.556822 0)
(2.19414 -0.556383 0)
(2.1966 -0.556959 0)
(2.1989 -0.557608 0)
(2.20139 -0.558309 0)
(2.20503 -0.559632 0)
(2.21145 -0.563006 0)
(2.21772 -0.564978 0)
(2.22013 -0.564768 0)
(2.22196 -0.56376 0)
(2.22276 -0.560754 0)
(2.22092 -0.555016 0)
(2.21784 -0.548813 0)
(2.21793 -0.546411 0)
(2.21913 -0.54588 0)
(2.22127 -0.545462 0)
(2.22374 -0.545324 0)
(2.2267 -0.546571 0)
(2.23071 -0.548616 0)
(2.23409 -0.548963 0)
(2.23605 -0.548045 0)
(2.23667 -0.545607 0)
(2.60115 0.0356379 0)
(2.6016 0.0355461 0)
(2.60152 0.0350209 0)
(2.60063 0.033979 0)
(2.59977 0.032935 0)
(2.60021 0.0328299 0)
(2.60091 0.0330951 0)
(2.60162 0.0335496 0)
(2.60312 0.0344789 0)
(2.60545 0.0361953 0)
(2.60696 0.0371045 0)
(2.60762 0.0371962 0)
(2.60843 0.03724 0)
(2.60874 0.037017 0)
(2.60784 0.0362001 0)
(2.60555 0.0346583 0)
(2.60435 0.0340022 0)
(2.60475 0.0341558 0)
(2.60515 0.0345832 0)
(2.60594 0.0351897 0)
(2.60728 0.0362348 0)
(2.60883 0.0370476 0)
(2.6095 0.0370663 0)
(2.60993 0.0368031 0)
(2.61017 0.0364123 0)
(2.60969 0.0356902 0)
(2.60846 0.0345986 0)
(2.60775 0.0340055 0)
(2.60769 0.0340247 0)
(2.60763 0.0344012 0)
(2.60793 0.0353946 0)
(2.60851 0.0368683 0)
(2.60835 0.0377502 0)
(2.60788 0.038058 0)
(2.60683 0.0382661 0)
(2.60483 0.0380105 0)
(2.60272 0.0373779 0)
(2.60187 0.0372751 0)
(2.6013 0.0374924 0)
(2.60075 0.0379954 0)
(2.60107 0.0390344 0)
(2.60268 0.0408657 0)
(2.60334 0.0418156 0)
(2.60294 0.0418324 0)
(2.60266 0.0418079 0)
(2.60207 0.0416277 0)
(2.60084 0.040794 0)
(2.59869 0.0391675 0)
(2.59765 0.0384111 0)
(2.59801 0.0384952 0)
(2.59848 0.038835 0)
(2.59973 0.0396287 0)
(2.60137 0.0407158 0)
(2.60213 0.0410298 0)
(2.60261 0.0409915 0)
(2.60308 0.0408421 0)
(2.60286 0.0401708 0)
(2.60182 0.0388852 0)
(2.60181 0.038216 0)
(2.60244 0.0382411 0)
(2.60315 0.0383104 0)
(2.604 0.0385197 0)
(2.60496 0.0387018 0)
(2.60573 0.0388346 0)
(2.6064 0.0389372 0)
(2.60698 0.0390147 0)
(2.60717 0.038764 0)
(2.60649 0.0378911 0)
(2.60577 0.0369618 0)
(2.60622 0.0368793 0)
(2.60678 0.0372044 0)
(2.60792 0.0379132 0)
(2.60959 0.0388852 0)
(2.61079 0.039292 0)
(2.61136 0.0391818 0)
(2.61199 0.0390129 0)
(2.61242 0.0387684 0)
(2.61208 0.0379538 0)
(2.61038 0.0364122 0)
(2.60924 0.0353383 0)
(2.60951 0.0353692 0)
(2.60991 0.0356608 0)
(2.61105 0.0364837 0)
(2.6128 0.0377964 0)
(2.6138 0.0383009 0)
(2.61438 0.0383103 0)
(2.61498 0.0382104 0)
(2.61487 0.0376281 0)
(2.61375 0.0363811 0)
(2.61254 0.035017 0)
(2.61256 0.0346359 0)
(2.61282 0.0346449 0)
(2.61343 0.0347077 0)
(2.6147 0.0352024 0)
(2.61597 0.0357375 0)
(2.61635 0.0357869 0)
(2.61683 0.035768 0)
(2.61721 0.0357344 0)
(2.61726 0.0354398 0)
(2.61665 0.0346194 0)
(2.61521 0.0331807 0)
(2.61378 0.0319614 0)
(2.61341 0.0316179 0)
(2.61347 0.0318435 0)
(2.61398 0.0328325 0)
(2.6155 0.0348914 0)
(2.61778 0.0373439 0)
(2.61908 0.0385623 0)
(2.6193 0.038648 0)
(2.61925 0.0383221 0)
(2.61859 0.0375376 0)
(2.61718 0.03589 0)
(2.61502 0.0337744 0)
(2.61373 0.0328931 0)
(2.6135 0.0328833 0)
(2.61349 0.0334565 0)
(2.61416 0.0352811 0)
(2.61654 0.038832 0)
(2.61971 0.0423555 0)
(2.62071 0.0435461 0)
(2.62064 0.0436347 0)
(2.62008 0.0434128 0)
(2.61893 0.0424269 0)
(2.61672 0.039706 0)
(2.61332 0.0355477 0)
(2.61151 0.0331039 0)
(2.61146 0.0325681 0)
(2.61171 0.0323395 0)
(2.6124 0.0323346 0)
(2.61318 0.0325914 0)
(2.6134 0.0326367 0)
(2.61363 0.0326036 0)
(2.61381 0.0323841 0)
(2.6139 0.0318669 0)
(2.61417 0.032195 0)
(2.61401 0.0324443 0)
(2.59895 0.0104958 0)
(2.46223 -0.157824 0)
(2.22447 -0.442289 0)
(2.10886 -0.532993 0)
(2.04222 -0.603921 0)
(2.00193 -0.626791 0)
(1.98785 -0.624042 0)
(1.99388 -0.616602 0)
(2.00538 -0.609078 0)
(2.013 -0.610487 0)
(2.01354 -0.613686 0)
(2.01347 -0.615597 0)
(2.01277 -0.615267 0)
(2.0129 -0.614109 0)
(2.01253 -0.612563 0)
(2.01225 -0.612031 0)
(2.01247 -0.612504 0)
(2.01298 -0.612905 0)
(2.0148 -0.613607 0)
(2.01683 -0.614164 0)
(2.0206 -0.612531 0)
(2.02604 -0.607278 0)
(2.03276 -0.60144 0)
(2.03684 -0.598813 0)
(2.0393 -0.599205 0)
(2.04117 -0.600325 0)
(2.04171 -0.602724 0)
(2.04175 -0.605721 0)
(2.0432 -0.607283 0)
(2.04615 -0.607796 0)
(2.04926 -0.607182 0)
(2.05255 -0.605417 0)
(2.05543 -0.602882 0)
(2.05792 -0.60039 0)
(2.0606 -0.599025 0)
(2.06349 -0.598204 0)
(2.06751 -0.59717 0)
(2.07159 -0.595446 0)
(2.07415 -0.594586 0)
(2.07645 -0.59474 0)
(2.07798 -0.594825 0)
(2.07861 -0.595258 0)
(2.08003 -0.596536 0)
(2.08238 -0.597998 0)
(2.08479 -0.599008 0)
(2.08755 -0.599673 0)
(2.09217 -0.59933 0)
(2.09701 -0.596958 0)
(2.10025 -0.594135 0)
(2.10251 -0.592146 0)
(2.10365 -0.589801 0)
(2.10312 -0.587379 0)
(2.1037 -0.586742 0)
(2.10551 -0.586845 0)
(2.10771 -0.587113 0)
(2.1102 -0.586999 0)
(2.11404 -0.586788 0)
(2.11904 -0.586751 0)
(2.12349 -0.587065 0)
(2.12669 -0.587938 0)
(2.12915 -0.588822 0)
(2.13121 -0.589456 0)
(2.13237 -0.589441 0)
(2.13168 -0.586981 0)
(2.12926 -0.58213 0)
(2.12829 -0.578345 0)
(2.12965 -0.577154 0)
(2.1315 -0.576912 0)
(2.1341 -0.576636 0)
(2.13862 -0.576746 0)
(2.14465 -0.578394 0)
(2.15135 -0.5794 0)
(2.15528 -0.578049 0)
(2.15716 -0.576546 0)
(2.15896 -0.574299 0)
(2.15868 -0.57025 0)
(2.15762 -0.566878 0)
(2.15983 -0.567332 0)
(2.16247 -0.568622 0)
(2.16513 -0.570499 0)
(2.16788 -0.571969 0)
(2.17045 -0.572653 0)
(2.17198 -0.571763 0)
(2.17203 -0.568834 0)
(2.1729 -0.566304 0)
(2.17484 -0.56515 0)
(2.17692 -0.564435 0)
(2.18096 -0.563713 0)
(2.18648 -0.56353 0)
(2.19154 -0.565178 0)
(2.19538 -0.567285 0)
(2.19796 -0.568267 0)
(2.20074 -0.568914 0)
(2.20312 -0.569262 0)
(2.20378 -0.567826 0)
(2.20091 -0.562707 0)
(2.19776 -0.557443 0)
(2.19875 -0.556203 0)
(2.20117 -0.556449 0)
(2.20359 -0.556857 0)
(2.20623 -0.557177 0)
(2.21071 -0.558368 0)
(2.21834 -0.561328 0)
(2.22479 -0.562133 0)
(2.22696 -0.561425 0)
(2.22875 -0.560418 0)
(2.22985 -0.558031 0)
(2.22837 -0.552867 0)
(2.2247 -0.546521 0)
(2.22423 -0.543886 0)
(2.22542 -0.543324 0)
(2.22693 -0.542876 0)
(2.22913 -0.542922 0)
(2.23185 -0.543758 0)
(2.23575 -0.544654 0)
(2.23956 -0.545508 0)
(2.24163 -0.544752 0)
(2.6027 0.0358129 0)
(2.60254 0.0354051 0)
(2.60149 0.0343578 0)
(2.6003 0.0331069 0)
(2.60055 0.032885 0)
(2.60133 0.0331655 0)
(2.60209 0.0337972 0)
(2.60353 0.0348269 0)
(2.60586 0.0366371 0)
(2.60747 0.0375943 0)
(2.60817 0.037654 0)
(2.60908 0.037685 0)
(2.60956 0.0375461 0)
(2.60905 0.0368052 0)
(2.60714 0.0352684 0)
(2.60576 0.0346044 0)
(2.60613 0.0348477 0)
(2.60654 0.0353588 0)
(2.6073 0.03602 0)
(2.6085 0.0369737 0)
(2.60985 0.0377013 0)
(2.61048 0.0377473 0)
(2.61108 0.0375026 0)
(2.61146 0.0371272 0)
(2.61118 0.0364042 0)
(2.61009 0.0352617 0)
(2.60934 0.0344825 0)
(2.6093 0.0344257 0)
(2.60932 0.034644 0)
(2.60968 0.0354193 0)
(2.61043 0.0367535 0)
(2.61056 0.0376754 0)
(2.61022 0.0379636 0)
(2.60937 0.0381549 0)
(2.60742 0.0379363 0)
(2.60501 0.0372289 0)
(2.60388 0.037099 0)
(2.60339 0.0372887 0)
(2.60279 0.0378252 0)
(2.60288 0.0388219 0)
(2.60436 0.0407649 0)
(2.60548 0.0422307 0)
(2.60506 0.0423837 0)
(2.60465 0.0423885 0)
(2.60407 0.0423219 0)
(2.60285 0.0417253 0)
(2.60082 0.0402795 0)
(2.59928 0.0393895 0)
(2.59937 0.0393885 0)
(2.59971 0.0396653 0)
(2.60077 0.0403927 0)
(2.6024 0.0415054 0)
(2.60328 0.0419127 0)
(2.60367 0.0418629 0)
(2.60411 0.0416854 0)
(2.604 0.0410729 0)
(2.60288 0.0397681 0)
(2.60247 0.0388215 0)
(2.60311 0.0387933 0)
(2.60378 0.0388806 0)
(2.60473 0.0390335 0)
(2.60545 0.0392665 0)
(2.60632 0.0394243 0)
(2.60705 0.0395588 0)
(2.60767 0.0396618 0)
(2.60789 0.0394698 0)
(2.60723 0.038631 0)
(2.60652 0.0378077 0)
(2.60698 0.0378149 0)
(2.60755 0.0381604 0)
(2.60872 0.0388665 0)
(2.61038 0.0399052 0)
(2.61142 0.0402796 0)
(2.61219 0.0401786 0)
(2.61294 0.0400007 0)
(2.61352 0.0397976 0)
(2.61349 0.039118 0)
(2.61214 0.0376593 0)
(2.61078 0.0363698 0)
(2.6109 0.0362745 0)
(2.61122 0.0364974 0)
(2.61215 0.0371406 0)
(2.61366 0.0382375 0)
(2.61461 0.0387447 0)
(2.61513 0.0387465 0)
(2.61572 0.038652 0)
(2.61568 0.0381171 0)
(2.61464 0.0369295 0)
(2.61341 0.0355357 0)
(2.61341 0.0351096 0)
(2.61374 0.0351029 0)
(2.61423 0.0350752 0)
(2.61536 0.0353968 0)
(2.61691 0.0361024 0)
(2.61756 0.036324 0)
(2.61788 0.0363471 0)
(2.61823 0.0363536 0)
(2.61824 0.0360707 0)
(2.61756 0.0351516 0)
(2.61617 0.0336939 0)
(2.61504 0.0325682 0)
(2.61487 0.0323658 0)
(2.61502 0.0327511 0)
(2.61573 0.0340613 0)
(2.61742 0.0362283 0)
(2.61937 0.0381579 0)
(2.62014 0.0387767 0)
(2.62031 0.0386321 0)
(2.62025 0.0380064 0)
(2.61977 0.0371233 0)
(2.6185 0.0357071 0)
(2.61633 0.0341655 0)
(2.61522 0.0335711 0)
(2.61514 0.0335367 0)
(2.61538 0.0340725 0)
(2.61654 0.0359959 0)
(2.61933 0.0396597 0)
(2.62182 0.0425992 0)
(2.62203 0.0432593 0)
(2.62182 0.0430956 0)
(2.62132 0.0425327 0)
(2.62022 0.0412877 0)
(2.61762 0.038286 0)
(2.61402 0.0344348 0)
(2.61255 0.0329505 0)
(2.6125 0.032874 0)
(2.61267 0.0328718 0)
(2.61331 0.0332838 0)
(2.61426 0.0342123 0)
(2.61454 0.0345193 0)
(2.61452 0.0345525 0)
(2.61446 0.0345372 0)
(2.61456 0.0343219 0)
(2.61473 0.0347307 0)
(2.61395 0.0338622 0)
(2.5947 0.00271993 0)
(2.49603 -0.136232 0)
(2.18413 -0.462592 0)
(2.04675 -0.59539 0)
(2.02471 -0.594078 0)
(2.02888 -0.601165 0)
(2.022 -0.611311 0)
(2.00816 -0.62128 0)
(2.00197 -0.622531 0)
(2.00401 -0.620278 0)
(2.00846 -0.616338 0)
(2.01464 -0.614209 0)
(2.01781 -0.613113 0)
(2.01758 -0.612724 0)
(2.01653 -0.612527 0)
(2.01529 -0.612068 0)
(2.01346 -0.612916 0)
(2.01401 -0.614429 0)
(2.01632 -0.615101 0)
(2.01945 -0.613833 0)
(2.02385 -0.609907 0)
(2.02867 -0.60477 0)
(2.03438 -0.600595 0)
(2.03741 -0.599028 0)
(2.04009 -0.599437 0)
(2.04238 -0.600356 0)
(2.04353 -0.602329 0)
(2.04316 -0.605043 0)
(2.04352 -0.606916 0)
(2.04604 -0.607444 0)
(2.04896 -0.607264 0)
(2.05246 -0.606691 0)
(2.05639 -0.606057 0)
(2.05993 -0.605102 0)
(2.0629 -0.603155 0)
(2.06564 -0.599857 0)
(2.06868 -0.59673 0)
(2.0719 -0.594275 0)
(2.07433 -0.593781 0)
(2.07676 -0.594312 0)
(2.07905 -0.594855 0)
(2.08029 -0.595614 0)
(2.08022 -0.596347 0)
(2.08111 -0.596743 0)
(2.08342 -0.596832 0)
(2.08598 -0.596568 0)
(2.08969 -0.595703 0)
(2.096 -0.594416 0)
(2.10127 -0.593244 0)
(2.10389 -0.592876 0)
(2.10664 -0.593288 0)
(2.10852 -0.59326 0)
(2.10821 -0.591228 0)
(2.10785 -0.587793 0)
(2.10941 -0.585346 0)
(2.11175 -0.5843 0)
(2.11433 -0.583652 0)
(2.11835 -0.582557 0)
(2.1224 -0.582206 0)
(2.12559 -0.58337 0)
(2.12839 -0.58515 0)
(2.1314 -0.587517 0)
(2.13412 -0.589262 0)
(2.13634 -0.589995 0)
(2.13765 -0.59 0)
(2.13778 -0.587745 0)
(2.1362 -0.582751 0)
(2.13458 -0.57731 0)
(2.13526 -0.57458 0)
(2.13691 -0.573634 0)
(2.13964 -0.572945 0)
(2.14428 -0.572475 0)
(2.15065 -0.573777 0)
(2.15729 -0.575424 0)
(2.16024 -0.575428 0)
(2.16309 -0.575054 0)
(2.16501 -0.574125 0)
(2.16377 -0.570899 0)
(2.16181 -0.568028 0)
(2.16398 -0.568535 0)
(2.16664 -0.569532 0)
(2.1694 -0.570766 0)
(2.17285 -0.57208 0)
(2.17554 -0.572513 0)
(2.17765 -0.57139 0)
(2.17881 -0.567866 0)
(2.1804 -0.564094 0)
(2.18249 -0.561298 0)
(2.18545 -0.559447 0)
(2.18894 -0.559126 0)
(2.19219 -0.560297 0)
(2.19545 -0.562504 0)
(2.19919 -0.565935 0)
(2.20208 -0.568407 0)
(2.20476 -0.569341 0)
(2.20721 -0.569832 0)
(2.20809 -0.568744 0)
(2.20576 -0.564053 0)
(2.20211 -0.558124 0)
(2.20229 -0.555791 0)
(2.20456 -0.555569 0)
(2.20713 -0.555619 0)
(2.2107 -0.555493 0)
(2.2173 -0.556173 0)
(2.22559 -0.558332 0)
(2.23108 -0.558448 0)
(2.23329 -0.557811 0)
(2.23527 -0.557206 0)
(2.23651 -0.555522 0)
(2.23499 -0.550929 0)
(2.23088 -0.544546 0)
(2.23011 -0.541871 0)
(2.23131 -0.541386 0)
(2.23259 -0.54094 0)
(2.23462 -0.540639 0)
(2.23748 -0.540366 0)
(2.24158 -0.540984 0)
(2.24518 -0.542479 0)
(2.60372 0.0357672 0)
(2.60265 0.0349068 0)
(2.6012 0.0336628 0)
(2.60114 0.033246 0)
(2.60186 0.0334216 0)
(2.60262 0.0339912 0)
(2.60394 0.0349851 0)
(2.60621 0.0368278 0)
(2.60788 0.0378611 0)
(2.60859 0.0379072 0)
(2.60955 0.0379319 0)
(2.61025 0.037897 0)
(2.61011 0.0374491 0)
(2.60854 0.0361355 0)
(2.60705 0.0352673 0)
(2.60728 0.0354346 0)
(2.60772 0.0360727 0)
(2.6086 0.0368979 0)
(2.60977 0.0377457 0)
(2.61084 0.0382319 0)
(2.61141 0.0382463 0)
(2.61212 0.0380754 0)
(2.61263 0.0377856 0)
(2.61257 0.0371052 0)
(2.61163 0.0360087 0)
(2.61088 0.035103 0)
(2.61085 0.0349885 0)
(2.61092 0.0351002 0)
(2.61127 0.035686 0)
(2.61208 0.0367832 0)
(2.61248 0.037631 0)
(2.61229 0.0378897 0)
(2.61168 0.0380298 0)
(2.61001 0.037846 0)
(2.6075 0.037074 0)
(2.60588 0.0368253 0)
(2.60543 0.0369579 0)
(2.60481 0.0374986 0)
(2.60471 0.0384711 0)
(2.60596 0.0404287 0)
(2.60753 0.0423871 0)
(2.6073 0.0428025 0)
(2.6068 0.0428372 0)
(2.60623 0.0428466 0)
(2.60497 0.0424468 0)
(2.60301 0.0412335 0)
(2.60117 0.0402638 0)
(2.60092 0.0402168 0)
(2.6011 0.0404942 0)
(2.60191 0.0411718 0)
(2.60348 0.0423035 0)
(2.60453 0.0428479 0)
(2.60485 0.0428173 0)
(2.60523 0.0426203 0)
(2.6052 0.0420697 0)
(2.60414 0.0407577 0)
(2.60327 0.0395048 0)
(2.60378 0.0393468 0)
(2.60438 0.0393929 0)
(2.60515 0.0395472 0)
(2.60633 0.0399489 0)
(2.60694 0.0401099 0)
(2.6077 0.0402513 0)
(2.60834 0.0403531 0)
(2.6086 0.0401989 0)
(2.60793 0.0393534 0)
(2.60722 0.0385476 0)
(2.60769 0.0385404 0)
(2.60826 0.0389266 0)
(2.60938 0.0396536 0)
(2.61102 0.0406155 0)
(2.61188 0.0409287 0)
(2.61282 0.0408907 0)
(2.61368 0.0408097 0)
(2.61438 0.0406573 0)
(2.61461 0.0401067 0)
(2.61367 0.038883 0)
(2.61236 0.0375722 0)
(2.61239 0.0373562 0)
(2.61267 0.0375712 0)
(2.61345 0.0380762 0)
(2.61468 0.0388999 0)
(2.61554 0.0392984 0)
(2.61601 0.0392705 0)
(2.61655 0.0391441 0)
(2.61656 0.0386373 0)
(2.61558 0.0374732 0)
(2.61423 0.0359891 0)
(2.6142 0.0354913 0)
(2.61458 0.0354918 0)
(2.61501 0.0354782 0)
(2.61603 0.0357245 0)
(2.61772 0.0366374 0)
(2.61892 0.0372555 0)
(2.61918 0.0373267 0)
(2.61946 0.0373513 0)
(2.61941 0.0370206 0)
(2.61857 0.0359773 0)
(2.61714 0.0345407 0)
(2.61625 0.0336135 0)
(2.61622 0.033569 0)
(2.61651 0.0341026 0)
(2.61741 0.0355146 0)
(2.61909 0.0374203 0)
(2.62062 0.0386873 0)
(2.6211 0.0388925 0)
(2.62131 0.0386668 0)
(2.62124 0.0381752 0)
(2.62071 0.0373748 0)
(2.61943 0.0356931 0)
(2.61755 0.0338226 0)
(2.61682 0.0331359 0)
(2.61689 0.0332499 0)
(2.61729 0.0342798 0)
(2.61865 0.0369424 0)
(2.6216 0.040886 0)
(2.6238 0.0432383 0)
(2.62387 0.0435437 0)
(2.62347 0.0434864 0)
(2.62251 0.0431873 0)
(2.62105 0.0417491 0)
(2.61806 0.0380962 0)
(2.61433 0.0337272 0)
(2.61325 0.0320896 0)
(2.61336 0.0317698 0)
(2.61377 0.0315545 0)
(2.61475 0.0320284 0)
(2.61612 0.0336927 0)
(2.61661 0.0346719 0)
(2.61657 0.0348224 0)
(2.61635 0.034978 0)
(2.61637 0.0352458 0)
(2.61633 0.0360911 0)
(2.61518 0.0354659 0)
(2.58223 -0.012912 0)
(2.4447 -0.193946 0)
(2.26164 -0.399168 0)
(2.03807 -0.612077 0)
(1.98301 -0.640918 0)
(1.98169 -0.620731 0)
(2.00519 -0.60834 0)
(2.0149 -0.60976 0)
(2.01654 -0.616632 0)
(2.01185 -0.62121 0)
(2.01122 -0.621101 0)
(2.01397 -0.617459 0)
(2.0196 -0.613328 0)
(2.0216 -0.612442 0)
(2.02164 -0.612517 0)
(2.01974 -0.613257 0)
(2.01673 -0.61428 0)
(2.01719 -0.613882 0)
(2.01879 -0.613027 0)
(2.02179 -0.611413 0)
(2.02667 -0.607655 0)
(2.03241 -0.602686 0)
(2.03643 -0.59925 0)
(2.03846 -0.598805 0)
(2.04059 -0.599407 0)
(2.04268 -0.60077 0)
(2.04426 -0.602702 0)
(2.0445 -0.605161 0)
(2.04449 -0.606934 0)
(2.04679 -0.607263 0)
(2.04941 -0.607373 0)
(2.05225 -0.60734 0)
(2.05567 -0.606945 0)
(2.05976 -0.606068 0)
(2.06482 -0.604385 0)
(2.06953 -0.600985 0)
(2.0724 -0.597292 0)
(2.07465 -0.594565 0)
(2.07623 -0.593142 0)
(2.07741 -0.593205 0)
(2.07872 -0.59425 0)
(2.08033 -0.595897 0)
(2.08147 -0.597006 0)
(2.08296 -0.596693 0)
(2.08492 -0.59558 0)
(2.08745 -0.594866 0)
(2.09031 -0.593975 0)
(2.09507 -0.591946 0)
(2.10037 -0.59029 0)
(2.10368 -0.590917 0)
(2.10606 -0.592382 0)
(2.10864 -0.593553 0)
(2.11122 -0.594297 0)
(2.1131 -0.59433 0)
(2.11448 -0.592636 0)
(2.11614 -0.589407 0)
(2.11801 -0.585447 0)
(2.12034 -0.582027 0)
(2.12287 -0.580419 0)
(2.12544 -0.580722 0)
(2.12774 -0.581611 0)
(2.12994 -0.582961 0)
(2.13234 -0.584535 0)
(2.13585 -0.587019 0)
(2.13962 -0.589146 0)
(2.1422 -0.589503 0)
(2.1434 -0.589271 0)
(2.14417 -0.586975 0)
(2.14332 -0.581928 0)
(2.14127 -0.575478 0)
(2.14124 -0.571413 0)
(2.14281 -0.570041 0)
(2.14591 -0.569191 0)
(2.15073 -0.56886 0)
(2.15629 -0.570956 0)
(2.16185 -0.574184 0)
(2.16465 -0.575338 0)
(2.16747 -0.575607 0)
(2.16914 -0.574934 0)
(2.1675 -0.571653 0)
(2.16579 -0.568644 0)
(2.16798 -0.568802 0)
(2.17066 -0.569534 0)
(2.17388 -0.570371 0)
(2.17892 -0.571378 0)
(2.18268 -0.570205 0)
(2.18501 -0.567521 0)
(2.18721 -0.563596 0)
(2.18899 -0.559748 0)
(2.19049 -0.557444 0)
(2.19249 -0.557256 0)
(2.19452 -0.557988 0)
(2.19655 -0.55945 0)
(2.19908 -0.561406 0)
(2.20289 -0.5647 0)
(2.20671 -0.568213 0)
(2.20924 -0.569522 0)
(2.21159 -0.570193 0)
(2.21278 -0.569271 0)
(2.21123 -0.564873 0)
(2.20792 -0.558158 0)
(2.2077 -0.554151 0)
(2.2098 -0.553006 0)
(2.21246 -0.552321 0)
(2.21777 -0.551911 0)
(2.22451 -0.552537 0)
(2.23158 -0.55506 0)
(2.23578 -0.555798 0)
(2.23845 -0.555646 0)
(2.24069 -0.555374 0)
(2.24197 -0.554051 0)
(2.24041 -0.549809 0)
(2.23637 -0.543474 0)
(2.23545 -0.540483 0)
(2.23653 -0.53974 0)
(2.23827 -0.539013 0)
(2.24115 -0.538386 0)
(2.24436 -0.538338 0)
(2.24777 -0.538997 0)
(2.60395 0.0353806 0)
(2.60242 0.0343304 0)
(2.60206 0.0338993 0)
(2.60268 0.0340618 0)
(2.60337 0.0345026 0)
(2.60444 0.0352155 0)
(2.60649 0.0367327 0)
(2.60824 0.0379301 0)
(2.609 0.038036 0)
(2.60997 0.0380406 0)
(2.61077 0.0380366 0)
(2.61095 0.0377902 0)
(2.60982 0.0368589 0)
(2.60822 0.0360848 0)
(2.60828 0.036103 0)
(2.60868 0.0365787 0)
(2.60964 0.0374911 0)
(2.6109 0.0384184 0)
(2.61181 0.0387079 0)
(2.61248 0.0386307 0)
(2.61321 0.0384726 0)
(2.61378 0.0382432 0)
(2.61384 0.0376681 0)
(2.61308 0.0366641 0)
(2.61241 0.0357928 0)
(2.61238 0.0356442 0)
(2.61247 0.0357133 0)
(2.6128 0.0361324 0)
(2.61357 0.0370093 0)
(2.6141 0.0376931 0)
(2.61403 0.0378733 0)
(2.61363 0.0379465 0)
(2.61236 0.0377343 0)
(2.61003 0.0369794 0)
(2.60799 0.0365445 0)
(2.60749 0.0366526 0)
(2.60687 0.0371392 0)
(2.60666 0.0381268 0)
(2.60766 0.0400278 0)
(2.60944 0.0422896 0)
(2.60952 0.0430081 0)
(2.609 0.0430776 0)
(2.60841 0.043148 0)
(2.60721 0.0428991 0)
(2.60528 0.0419099 0)
(2.60321 0.0409 0)
(2.60262 0.0408107 0)
(2.60266 0.041095 0)
(2.6032 0.0417814 0)
(2.60461 0.0429867 0)
(2.60584 0.0437712 0)
(2.60612 0.043804 0)
(2.60644 0.0436412 0)
(2.60647 0.0431586 0)
(2.60558 0.0419095 0)
(2.60431 0.0403759 0)
(2.60452 0.0399659 0)
(2.60507 0.0399895 0)
(2.60572 0.0400952 0)
(2.6069 0.0405362 0)
(2.60785 0.040977 0)
(2.60841 0.0410784 0)
(2.60905 0.0411662 0)
(2.60932 0.0410189 0)
(2.60863 0.0401463 0)
(2.60779 0.0392028 0)
(2.60824 0.0391543 0)
(2.60882 0.0394544 0)
(2.60993 0.0401149 0)
(2.61147 0.0410778 0)
(2.61227 0.041342 0)
(2.61331 0.0413288 0)
(2.61425 0.0413192 0)
(2.61504 0.0412529 0)
(2.61544 0.0408842 0)
(2.61489 0.0399149 0)
(2.61381 0.0387532 0)
(2.61383 0.0385082 0)
(2.61415 0.0387565 0)
(2.61483 0.0391825 0)
(2.61584 0.0397548 0)
(2.61653 0.0399804 0)
(2.61698 0.0399102 0)
(2.6175 0.0397512 0)
(2.61754 0.0392426 0)
(2.61661 0.0380854 0)
(2.61512 0.0364863 0)
(2.61494 0.0358738 0)
(2.61538 0.0358868 0)
(2.61582 0.0359321 0)
(2.61678 0.0362158 0)
(2.61853 0.0373123 0)
(2.62024 0.0384032 0)
(2.62065 0.038612 0)
(2.62087 0.0386088 0)
(2.62074 0.0381928 0)
(2.61971 0.037026 0)
(2.61817 0.0355199 0)
(2.61748 0.0347048 0)
(2.61755 0.0347563 0)
(2.61797 0.0353925 0)
(2.61899 0.0367106 0)
(2.62052 0.0381978 0)
(2.62156 0.038846 0)
(2.62182 0.0388089 0)
(2.62208 0.0384577 0)
(2.62207 0.0378954 0)
(2.62173 0.0371232 0)
(2.62063 0.0358182 0)
(2.61884 0.0345223 0)
(2.61815 0.034176 0)
(2.61824 0.0343281 0)
(2.61885 0.0352449 0)
(2.62065 0.0377389 0)
(2.62375 0.0412653 0)
(2.62544 0.0430127 0)
(2.62532 0.0430631 0)
(2.62499 0.0425845 0)
(2.62422 0.0416052 0)
(2.62272 0.0397911 0)
(2.6194 0.0362956 0)
(2.61562 0.0330527 0)
(2.61432 0.0323773 0)
(2.61426 0.0323353 0)
(2.61448 0.0322352 0)
(2.61543 0.032638 0)
(2.61746 0.0344151 0)
(2.61881 0.0361107 0)
(2.61869 0.0366916 0)
(2.61839 0.0371852 0)
(2.61819 0.037884 0)
(2.61812 0.0389335 0)
(2.61639 0.0368929 0)
(2.58616 -0.00712157 0)
(2.41454 -0.21763 0)
(2.14237 -0.512426 0)
(2.06967 -0.564786 0)
(2.02968 -0.594716 0)
(2.0095 -0.615086 0)
(1.998 -0.619175 0)
(2.0022 -0.619604 0)
(2.00904 -0.619588 0)
(2.01243 -0.619106 0)
(2.01531 -0.617086 0)
(2.01849 -0.614726 0)
(2.02295 -0.612766 0)
(2.0244 -0.612617 0)
(2.02417 -0.613452 0)
(2.02294 -0.615038 0)
(2.02075 -0.615451 0)
(2.02034 -0.614869 0)
(2.0214 -0.614363 0)
(2.02435 -0.611769 0)
(2.02955 -0.606319 0)
(2.03566 -0.601162 0)
(2.03891 -0.599058 0)
(2.04064 -0.599075 0)
(2.04197 -0.599466 0)
(2.04287 -0.600619 0)
(2.04378 -0.602517 0)
(2.04474 -0.605024 0)
(2.04534 -0.606898 0)
(2.04762 -0.607313 0)
(2.05034 -0.607094 0)
(2.05304 -0.606405 0)
(2.05598 -0.605868 0)
(2.05921 -0.605286 0)
(2.06368 -0.604063 0)
(2.06954 -0.60105 0)
(2.0751 -0.597697 0)
(2.07811 -0.595882 0)
(2.08056 -0.594934 0)
(2.08148 -0.593727 0)
(2.08075 -0.593673 0)
(2.08037 -0.595264 0)
(2.08094 -0.597396 0)
(2.08356 -0.598631 0)
(2.08652 -0.599112 0)
(2.08983 -0.597622 0)
(2.09291 -0.593807 0)
(2.09697 -0.590319 0)
(2.10093 -0.587464 0)
(2.10343 -0.587354 0)
(2.1062 -0.588419 0)
(2.10852 -0.590194 0)
(2.11084 -0.59197 0)
(2.11347 -0.593714 0)
(2.1165 -0.594485 0)
(2.1198 -0.593319 0)
(2.1226 -0.590649 0)
(2.1249 -0.587983 0)
(2.12644 -0.5853 0)
(2.12657 -0.58266 0)
(2.12719 -0.581461 0)
(2.12926 -0.581597 0)
(2.13151 -0.582109 0)
(2.13367 -0.582653 0)
(2.13649 -0.583224 0)
(2.14071 -0.584592 0)
(2.14506 -0.586441 0)
(2.14864 -0.586774 0)
(2.15016 -0.586486 0)
(2.15106 -0.584947 0)
(2.15085 -0.580667 0)
(2.14909 -0.574145 0)
(2.14853 -0.569002 0)
(2.15018 -0.567496 0)
(2.153 -0.56718 0)
(2.15675 -0.567782 0)
(2.16068 -0.570045 0)
(2.16545 -0.57382 0)
(2.16862 -0.575911 0)
(2.17136 -0.576465 0)
(2.17288 -0.575668 0)
(2.17143 -0.571847 0)
(2.17042 -0.568161 0)
(2.17264 -0.567573 0)
(2.17521 -0.567385 0)
(2.18047 -0.566992 0)
(2.18721 -0.565934 0)
(2.19132 -0.564291 0)
(2.19354 -0.562844 0)
(2.19582 -0.561101 0)
(2.19647 -0.558418 0)
(2.19586 -0.556259 0)
(2.19722 -0.556451 0)
(2.19934 -0.557472 0)
(2.20133 -0.55895 0)
(2.20363 -0.560697 0)
(2.20721 -0.563486 0)
(2.21181 -0.567408 0)
(2.21497 -0.569018 0)
(2.21714 -0.569685 0)
(2.21866 -0.568942 0)
(2.21821 -0.565092 0)
(2.21596 -0.558317 0)
(2.2155 -0.552621 0)
(2.21757 -0.550314 0)
(2.22053 -0.549237 0)
(2.22553 -0.548996 0)
(2.2307 -0.55012 0)
(2.23653 -0.552895 0)
(2.24073 -0.554335 0)
(2.24336 -0.554434 0)
(2.24563 -0.554327 0)
(2.24695 -0.553074 0)
(2.24558 -0.549093 0)
(2.242 -0.542868 0)
(2.24147 -0.539528 0)
(2.24268 -0.538583 0)
(2.2447 -0.537845 0)
(2.24796 -0.537427 0)
(2.2512 -0.537302 0)
(2.60369 0.0350362 0)
(2.60315 0.0346527 0)
(2.60373 0.034853 0)
(2.60439 0.0352962 0)
(2.60526 0.0358686 0)
(2.60688 0.0368099 0)
(2.60852 0.0377913 0)
(2.60941 0.0380994 0)
(2.61045 0.0381933 0)
(2.61126 0.03821 0)
(2.61163 0.0380469 0)
(2.6109 0.0374016 0)
(2.60931 0.0366662 0)
(2.60916 0.03663 0)
(2.60952 0.0369928 0)
(2.61046 0.0377748 0)
(2.6118 0.0386996 0)
(2.61252 0.0389233 0)
(2.61343 0.0388951 0)
(2.61426 0.0387834 0)
(2.61493 0.0385721 0)
(2.61515 0.038085 0)
(2.6146 0.03725 0)
(2.61392 0.0365203 0)
(2.61389 0.0363799 0)
(2.61398 0.0364357 0)
(2.61429 0.0367308 0)
(2.61496 0.0373825 0)
(2.61553 0.0379301 0)
(2.61554 0.038037 0)
(2.6153 0.0380203 0)
(2.61434 0.0376954 0)
(2.61236 0.0369359 0)
(2.61017 0.036359 0)
(2.60946 0.0364435 0)
(2.609 0.0368591 0)
(2.60871 0.0378461 0)
(2.60953 0.0397141 0)
(2.61132 0.0420694 0)
(2.61167 0.0430137 0)
(2.61116 0.0431197 0)
(2.61056 0.0432186 0)
(2.60947 0.0431448 0)
(2.60762 0.0423961 0)
(2.60541 0.041325 0)
(2.60448 0.0411183 0)
(2.60435 0.0413859 0)
(2.6046 0.0421168 0)
(2.6058 0.0434017 0)
(2.60716 0.0445232 0)
(2.60749 0.0446931 0)
(2.60771 0.0446246 0)
(2.60778 0.0442554 0)
(2.6071 0.0431584 0)
(2.60566 0.0415067 0)
(2.60542 0.0407246 0)
(2.60587 0.0407063 0)
(2.60642 0.0407502 0)
(2.60749 0.0411489 0)
(2.60874 0.0418737 0)
(2.60926 0.042047 0)
(2.60988 0.0421463 0)
(2.61018 0.0420162 0)
(2.60948 0.0411135 0)
(2.6083 0.039909 0)
(2.60861 0.0396804 0)
(2.60922 0.0398584 0)
(2.61012 0.0402298 0)
(2.6118 0.0410501 0)
(2.61266 0.0414342 0)
(2.61366 0.0415401 0)
(2.61462 0.0416019 0)
(2.61546 0.0416183 0)
(2.61605 0.0414508 0)
(2.61588 0.0407803 0)
(2.61503 0.0398443 0)
(2.61509 0.0396105 0)
(2.61546 0.0398732 0)
(2.61612 0.0402683 0)
(2.617 0.0406431 0)
(2.61751 0.0407479 0)