/*--------------------------------*- C++ -*----------------------------------*\
  =========                 |
  \\      /  F ield         | OpenFOAM: The Open Source CFD Toolbox
   \\    /   O peration     | Website:  https://openfoam.org
    \\  /    A nd           | Version:  7
     \\/     M anipulation  |
\*---------------------------------------------------------------------------*/
FoamFile
{
    version     2.0;
    format      ascii;
    class       volScalarField;
    location    "16.5";
    object      T;
}
// * * * * * * * * * * * * * * * * * * * * * * * * * * * * * * * * * * * * * //

dimensions      [0 0 0 1 0 0 0];

internalField   nonuniform List<scalar> 
3328
(
3.65293
2.75312
2.44372
2.41838
2.42194
2.43613
2.45962
2.47578
2.48053
2.47988
2.47611
2.47216
2.47446
2.48148
2.50732
2.54525
2.57262
2.57809
2.56241
2.5364
2.50811
2.47903
2.45338
2.43147
3.6517
2.74879
2.44288
2.42257
2.42578
2.43848
2.46186
2.47879
2.48368
2.48286
2.47824
2.47322
2.47491
2.48039
2.50431
2.54006
2.56647
2.57227
2.5575
2.53306
2.50789
2.48296
2.46174
2.44294
3.65087
2.74137
2.44597
2.42957
2.43151
2.44236
2.46558
2.48423
2.48964
2.48893
2.48367
2.47717
2.47752
2.48028
2.50061
2.53346
2.55948
2.56552
2.55114
2.52748
2.50518
2.48546
2.47081
2.45762
3.65008
2.73347
2.4495
2.43899
2.43918
2.44839
2.47091
2.49055
2.4974
2.4972
2.49087
2.48223
2.47988
2.48062
2.49528
2.5234
2.54827
2.5549
2.54324
2.52273
2.50393
2.48928
2.48009
2.47224
3.64923
2.72775
2.45197
2.44838
2.44737
2.45541
2.47641
2.49676
2.50558
2.50533
2.49828
2.48777
2.48201
2.48112
2.48941
2.51132
2.53434
2.54192
2.53253
2.51588
2.50064
2.49071
2.48637
2.48382
3.64909
2.72037
2.45449
2.45573
2.4549
2.46185
2.48046
2.50154
2.51256
2.51289
2.50536
2.49328
2.48371
2.48056
2.48344
2.4982
2.51747
2.52584
2.51844
2.50869
2.49867
2.49217
2.49013
2.48915
3.64935
2.70952
2.45703
2.4614
2.46113
2.46718
2.48279
2.50375
2.51656
2.51875
2.51175
2.49832
2.48549
2.47872
2.4777
2.48556
2.49923
2.50681
2.50298
2.49891
2.49211
2.48634
2.48619
2.49344
3.64976
2.69346
2.46044
2.46699
2.46698
2.47178
2.48392
2.50372
2.51729
2.52167
2.51582
2.50165
2.48696
2.47677
2.4726
2.47456
2.48195
2.48707
2.48734
2.48648
2.48326
2.48179
2.48745
2.5176
3.651
2.67461
2.46465
2.47276
2.47272
2.47588
2.48428
2.50184
2.51512
2.52099
2.51635
2.50224
2.48672
2.47463
2.46747
2.46531
2.46894
2.47163
2.4726
2.47262
2.46965
2.46494
2.4572
2.47246
3.65309
2.65763
2.4694
2.47856
2.47842
2.47945
2.4836
2.49741
2.51037
2.51653
2.51132
2.49824
2.48368
2.4713
2.46269
2.45916
2.46165
2.46277
2.46147
2.45981
2.45426
2.44516
2.44847
2.46234
3.65667
2.6468
2.47435
2.48337
2.48231
2.48093
2.48186
2.49126
2.50378
2.51013
2.50543
2.49392
2.47909
2.46591
2.45775
2.45684
2.4598
2.46065
2.45746
2.45194
2.44212
2.42847
2.42766
2.44057
3.6618
2.64729
2.47987
2.48712
2.48455
2.48052
2.47957
2.48598
2.49789
2.50434
2.50129
2.49146
2.47625
2.46209
2.45467
2.45724
2.46156
2.46346
2.45973
2.44989
2.43558
2.42052
2.41573
2.42487
3.66841
2.65899
2.4861
2.49098
2.48707
2.48145
2.47912
2.48327
2.49348
2.50029
2.49979
2.49223
2.47649
2.46173
2.45532
2.46034
2.46648
2.46927
2.46551
2.4521
2.43484
2.41792
2.40958
2.41363
3.67503
2.67518
2.49189
2.49491
2.49009
2.48372
2.48054
2.48314
2.49116
2.49836
2.50012
2.4933
2.47953
2.46585
2.46009
2.46565
2.47312
2.47675
2.47301
2.45777
2.437
2.41818
2.40851
2.40739
3.68082
2.69073
2.4956
2.49949
2.49549
2.48876
2.48424
2.48541
2.49151
2.49825
2.50112
2.49533
2.48386
2.4721
2.46664
2.47163
2.47974
2.48376
2.48019
2.46577
2.44164
2.42077
2.40864
2.40353
3.68599
2.70227
2.49935
2.50517
2.50256
2.49589
2.49074
2.49049
2.49421
2.49897
2.501
2.49518
2.48577
2.47561
2.47035
2.47499
2.484
2.48955
2.48647
2.47437
2.44977
2.42515
2.40989
2.40123
3.69089
2.71109
2.50465
2.51151
2.50986
2.50363
2.49863
2.49733
2.49877
2.50039
2.49971
2.49248
2.48367
2.47432
2.46938
2.47379
2.48404
2.49273
2.49233
2.48345
2.46127
2.43293
2.41353
2.40185
3.69614
2.71719
2.51125
2.51667
2.51511
2.51056
2.50555
2.5038
2.50281
2.50166
2.49783
2.48857
2.47899
2.46904
2.46397
2.46831
2.47956
2.49207
2.49701
2.4925
2.47519
2.44575
2.42259
2.40666
3.70101
2.72006
2.51468
2.51934
2.51802
2.51562
2.51013
2.50764
2.50492
2.50168
2.49498
2.48397
2.47435
2.46377
2.45688
2.45982
2.47051
2.48618
2.49735
2.49807
2.48921
2.46417
2.43777
2.41716
3.70461
2.71497
2.51502
2.52115
2.52085
2.51919
2.51313
2.50974
2.5059
2.50159
2.49329
2.48181
2.47176
2.46066
2.45233
2.45139
2.46
2.47507
2.49184
2.49908
2.49628
2.48251
2.45523
2.43196
3.70802
2.70332
2.51433
2.52091
2.52316
2.52224
2.51642
2.51216
2.50809
2.50307
2.49444
2.48364
2.47369
2.46203
2.45123
2.4476
2.45122
2.46204
2.47835
2.49269
2.49569
2.4915
2.47088
2.44724
3.71203
2.68895
2.5121
2.52077
2.52559
2.52515
2.51994
2.51575
2.51193
2.50699
2.49932
2.49001
2.48042
2.46873
2.4546
2.44748
2.4459
2.45072
2.46204
2.47734
2.48723
2.4875
2.47997
2.45685
3.71717
2.68092
2.50631
2.52151
2.5302
2.53073
2.52656
2.52254
2.51884
2.5141
2.50897
2.50163
2.49158
2.4807
2.46481
2.45134
2.44545
2.44394
2.44803
2.45846
2.47054
2.47678
2.47474
2.46052
3.72429
2.67724
2.50268
2.52134
2.53388
2.53791
2.53543
2.53168
2.5286
2.52529
2.52266
2.51653
2.50604
2.49382
2.47792
2.46005
2.44778
2.44141
2.43915
2.44259
2.4512
2.45975
2.46373
2.45896
3.73368
2.67681
2.50011
2.52124
2.53684
2.54493
2.54555
2.5431
2.54062
2.53908
2.53728
2.53317
2.52247
2.50602
2.49103
2.47093
2.45331
2.44191
2.43536
2.43312
2.43657
2.44366
2.45005
2.45169
3.7448
2.67994
2.49924
2.52107
2.53831
2.5515
2.55545
2.55388
2.55023
2.54891
2.54817
2.54671
2.53862
2.52158
2.50202
2.48332
2.46296
2.44641
2.43615
2.43065
2.4295
2.4335
2.43862
2.4422
3.7561
2.68962
2.5027
2.52153
2.53808
2.55504
2.56329
2.56233
2.55701
2.55355
2.55215
2.55165
2.54902
2.53751
2.51678
2.49626
2.47571
2.45641
2.44196
2.43307
2.42917
2.43019
2.43301
2.43563
3.7661
2.70046
2.50879
2.524
2.53704
2.554
2.56504
2.5666
2.56206
2.55534
2.55122
2.54977
2.54968
2.54659
2.53444
2.51327
2.49328
2.47214
2.45379
2.44041
2.43283
2.43112
2.43253
2.43378
3.77397
2.71682
2.51395
2.52701
2.5369
2.55073
2.56005
2.56389
2.56081
2.55462
2.54837
2.54565
2.54584
2.54694
2.54476
2.5324
2.51141
2.49088
2.46978
2.45185
2.43989
2.43484
2.435
2.43552
3.77841
2.74412
2.51426
2.5285
2.53591
2.54636
2.55326
2.5568
2.5555
2.5501
2.54492
2.54164
2.54118
2.54282
2.54424
2.54204
2.52781
2.50653
2.48501
2.4643
2.44845
2.43995
2.43834
2.43851
3.77926
2.77538
2.51264
2.52518
2.52971
2.53949
2.54581
2.5489
2.54881
2.546
2.54266
2.53912
2.5378
2.53852
2.53891
2.53874
2.53299
2.51607
2.49551
2.47519
2.45735
2.44538
2.44094
2.44089
3.77705
2.80194
2.51309
2.51739
2.51841
2.52769
2.53598
2.54201
2.54521
2.545
2.54335
2.54064
2.53771
2.53644
2.53336
2.53082
2.52656
2.51569
2.49943
2.48245
2.46618
2.45376
2.44697
2.44421
3.77387
2.81812
2.51685
2.51141
2.50762
2.51471
2.52518
2.53548
2.54276
2.54627
2.54741
2.54634
2.54179
2.53692
2.53151
2.5242
2.51775
2.5096
2.49838
2.48595
2.4735
2.46318
2.45622
2.45274
3.77179
2.82266
2.53075
2.50895
2.50318
2.50719
2.51875
2.53337
2.5446
2.55086
2.55366
2.5541
2.54862
2.54103
2.53229
2.5216
2.5118
2.50296
2.49472
2.487
2.47949
2.47276
2.46766
2.46423
3.77243
2.81839
2.54065
2.51793
2.50849
2.50872
2.51686
2.53223
2.54579
2.55437
2.55868
2.55986
2.55487
2.54629
2.5347
2.52193
2.51012
2.50062
2.49295
2.48745
2.48377
2.48073
2.47777
2.47487
3.77562
2.81625
2.55376
2.53601
2.52387
2.52001
2.52204
2.53252
2.54348
2.55277
2.55864
2.56131
2.55785
2.54989
2.53853
2.52615
2.51507
2.50614
2.49935
2.49402
2.49025
2.48696
2.48405
2.4805
3.77925
2.81224
2.57165
2.5592
2.547
2.53721
2.53349
2.53448
2.53883
2.54577
2.55277
2.55832
2.55898
2.55326
2.54419
2.53462
2.52616
2.51968
2.51453
2.50879
2.50212
2.49498
2.48823
2.48174
3.78051
2.808
2.58735
2.58114
2.57001
2.55633
2.54417
2.53712
2.53333
2.53414
2.54022
2.54883
2.55521
2.55461
2.55077
2.54657
2.5419
2.53717
2.53217
2.52546
2.51618
2.5056
2.494
2.48293
3.77985
2.80214
2.59543
2.59426
2.58445
2.56975
2.55151
2.53759
2.52795
2.52304
2.52538
2.53522
2.54684
2.55525
2.55889
2.55948
2.55698
2.55238
2.54616
2.53797
2.52693
2.51399
2.49985
2.48485
3.77908
2.79191
2.60304
2.60557
2.59657
2.5808
2.55866
2.53942
2.52486
2.51537
2.5142
2.52265
2.537
2.55256
2.5627
2.56669
2.56647
2.56239
2.55632
2.54764
2.53566
2.52129
2.50526
2.48762
2.41996
2.51448
2.53869
2.52197
2.48525
2.44199
2.40874
2.38554
2.51082
2.57499
2.56067
2.53474
2.49884
2.45811
2.42597
2.40073
2.48336
2.54218
2.54694
2.52997
2.50541
2.47618
2.4481
2.42146
2.45711
2.50888
2.53317
2.53043
2.51421
2.49429
2.47166
2.44722
2.43229
2.47167
2.50475
2.51736
2.51064
2.49981
2.4872
2.47385
2.41536
2.44138
2.46719
2.48696
2.49372
2.49671
2.49807
2.49184
2.40414
2.41629
2.4308
2.4467
2.45834
2.46971
2.48486
2.50218
2.39719
2.39913
2.40254
2.40791
2.41556
2.43112
2.46028
2.51949
2.39472
2.38946
2.38419
2.37821
2.37584
2.37887
2.3634
2.31528
2.39529
2.3856
2.37488
2.36009
2.34354
2.32544
2.29326
2.19439
2.40023
2.38603
2.37069
2.35009
2.32417
2.2909
2.24691
2.13075
2.41117
2.39116
2.37056
2.34534
2.31292
2.27294
2.22134
2.12509
2.42487
2.40087
2.37488
2.34555
2.30915
2.26473
2.2128
2.1341
2.43688
2.41273
2.38372
2.35057
2.31168
2.26533
2.21457
2.15008
2.44339
2.42231
2.39511
2.36169
2.32129
2.27477
2.22645
2.17284
2.44347
2.42817
2.40741
2.37851
2.34029
2.29612
2.24944
2.20113
2.44379
2.43192
2.41791
2.39685
2.36404
2.32355
2.27959
2.23456
2.44088
2.43363
2.42409
2.41143
2.38746
2.3519
2.31136
2.26878
2.43615
2.43278
2.42465
2.41684
2.40229
2.37547
2.33905
2.29891
2.43393
2.43114
2.42419
2.41536
2.40526
2.38733
2.35773
2.32171
2.43529
2.43139
2.42369
2.41368
2.40244
2.38859
2.36691
2.33712
2.43823
2.43362
2.42464
2.41322
2.40125
2.38825
2.37173
2.34765
2.44033
2.43588
2.42733
2.41567
2.40283
2.38978
2.37654
2.35772
2.44284
2.43915
2.43221
2.42188
2.40958
2.39658
2.38414
2.36864
2.45057
2.44691
2.44106
2.43241
2.42173
2.40926
2.39588
2.38029
2.46183
2.45898
2.45436
2.44694
2.43682
2.42428
2.40962
2.39299
2.47243
2.46991
2.46614
2.45981
2.45002
2.43691
2.42099
2.40334
2.47714
2.47418
2.47072
2.46534
2.45644
2.44355
2.42734
2.40893
2.47607
2.47149
2.46736
2.46246
2.45521
2.44432
2.42965
2.41182
2.47295
2.46469
2.45846
2.45348
2.44811
2.44016
2.42813
2.41219
2.47019
2.45711
2.44701
2.44006
2.43492
2.42936
2.42126
2.40949
2.46926
2.45203
2.43802
2.4284
2.42251
2.41833
2.41325
2.40439
1.6873
1.33139
1.2726
1.32707
1.41919
1.54711
1.69959
1.83207
1.95803
2.03066
2.07922
2.08551
2.16016
2.24151
2.24984
2.24918
2.23315
2.23007
2.22346
2.22121
2.21051
2.18551
2.16833
2.16002
2.16084
2.17278
2.17467
2.16866
2.15392
2.13377
2.11282
2.09429
2.08019
2.06933
2.06056
2.05277
2.04523
2.03799
2.02875
2.01555
1.99738
1.97238
1.94068
1.91258
1.89309
1.8801
1.87079
1.86183
1.852
1.84584
1.84724
1.85854
1.90267
1.98821
2.10203
2.11955
2.09067
2.07888
2.07973
2.0837
2.08878
2.09247
2.09326
2.09285
2.09115
2.08449
2.07097
2.06199
2.05065
2.02986
2.0093
1.99683
1.98897
1.98061
1.96951
1.95618
1.94375
1.93474
1.92865
1.92445
1.92139
1.91932
1.91795
1.91607
1.91244
1.91105
1.90709
1.91112
1.86479
1.67939
1.55622
1.50332
1.4989
1.50353
1.53163
1.60151
1.69488
1.81208
1.92279
1.98552
2.08029
2.16898
2.18947
2.21096
2.21902
2.21531
2.20724
2.19779
2.18746
2.16799
2.15189
2.14434
2.14387
2.15225
2.15406
2.14927
2.13579
2.11572
2.09519
2.07816
2.06449
2.05341
2.04427
2.03599
2.02769
2.01885
2.00947
1.99767
1.98187
1.96158
1.93908
1.9163
1.89652
1.88094
1.86866
1.85785
1.84811
1.84494
1.85002
1.87364
1.91902
1.97727
2.06546
2.09761
2.07589
2.0676
2.06905
2.07417
2.07998
2.08295
2.08283
2.08061
2.07674
2.06856
2.05514
2.04419
2.03418
2.02583
2.01615
2.00302
1.98997
1.97873
1.9672
1.95443
1.94237
1.9331
1.92674
1.92287
1.92121
1.92057
1.91997
1.91859
1.91521
1.91207
1.90905
1.91325
1.93483
1.80581
1.69289
1.59845
1.56015
1.52882
1.49045
1.50318
1.53611
1.58921
1.7004
1.81701
1.94297
2.0582
2.09895
2.12715
2.15596
2.16302
2.15771
2.14737
2.13422
2.12172
2.11159
2.10625
2.10578
2.10921
2.1102
2.10782
2.09836
2.08138
2.06371
2.0488
2.0356
2.02448
2.01442
2.00331
1.99149
1.98178
1.97333
1.96382
1.95208
1.93783
1.9215
1.90371
1.88589
1.87059
1.85746
1.84462
1.83787
1.84004
1.85632
1.89659
1.92631
1.94503
2.00094
2.05761
2.05752
2.04997
2.05002
2.05364
2.05975
2.06217
2.06131
2.05715
2.05086
2.04101
2.02814
2.0172
2.01068
2.00831
2.00558
1.999
1.98531
1.96844
1.95476
1.94316
1.93224
1.92279
1.91539
1.9107
1.90857
1.90788
1.90841
1.91067
1.91132
1.91195
1.91305
1.91787
1.99287
1.89191
1.80452
1.71069
1.65067
1.62169
1.5818
1.54204
1.52197
1.53264
1.57981
1.66949
1.77834
1.91773
2.01697
2.07756
2.11279
2.11522
2.11263
2.10046
2.08739
2.07563
2.06588
2.06015
2.05916
2.05777
2.05639
2.05448
2.04766
2.03534
2.02282
2.01056
1.9982
1.9869
1.97483
1.9589
1.94339
1.93473
1.92971
1.92513
1.91896
1.90947
1.89727
1.88311
1.86774
1.85384
1.84003
1.82865
1.82999
1.83914
1.86824
1.91141
1.91714
1.9148
1.93122
1.99432
2.02024
2.02319
2.0224
2.02427
2.02852
2.03108
2.03021
2.02545
2.01661
2.00684
1.99755
1.98892
1.98386
1.98305
1.9834
1.98239
1.9752
1.9582
1.93895
1.92727
1.91835
1.90979
1.90249
1.89703
1.89321
1.89111
1.89065
1.89288
1.89923
1.90596
1.91184
1.9225
2.04312
1.95803
1.88672
1.81354
1.74076
1.69714
1.66973
1.63584
1.59183
1.56847
1.57697
1.60467
1.65438
1.76269
1.92393
2.03882
2.10332
2.10584
2.0972
2.08236
2.06799
2.0579
2.05058
2.04506
2.03918
2.03169
2.02185
2.01215
2.00403
1.99593
1.98719
1.9768
1.96473
1.95169
1.9364
1.91864
1.90453
1.89704
1.89282
1.89012
1.88775
1.88168
1.87252
1.86128
1.84888
1.83658
1.82548
1.82574
1.83232
1.85426
1.88701
1.90574
1.89855
1.88735
1.88846
1.92359
1.97205
1.9928
2.00071
1.99755
1.99613
1.99663
1.99561
1.99134
1.98422
1.97639
1.96982
1.96549
1.9619
1.95889
1.95845
1.95839
1.95625
1.94517
1.92293
1.90768
1.90003
1.89245
1.88556
1.88054
1.87691
1.87544
1.87546
1.87975
1.88931
1.8975
1.90771
1.92869
2.08313
2.01266
1.94969
1.8934
1.8322
1.77315
1.74116
1.72127
1.69299
1.65392
1.6303
1.62999
1.64222
1.67202
1.77861
1.96287
2.08524
2.11384
2.10882
2.09502
2.08121
2.06728
2.05559
2.04526
2.0346
2.02215
2.00653
1.99065
1.97852
1.96907
1.96018
1.95147
1.94159
1.92934
1.91397
1.89882
1.88844
1.88187
1.87812
1.87732
1.87403
1.86695
1.85829
1.8487
1.83748
1.82711
1.82415
1.8338
1.8578
1.88774
1.90253
1.89554
1.88614
1.87703
1.86896
1.8792
1.91918
1.96129
1.97707
1.97513
1.9697
1.96741
1.96657
1.96484
1.96196
1.95741
1.9527
1.94881
1.94701
1.94398
1.94162
1.94148
1.94089
1.93443
1.9149
1.89523
1.88604
1.8791
1.87292
1.86877
1.86652
1.86662
1.8701
1.87598
1.88139
1.88967
1.90681
1.93522
2.11725
2.06006
2.00491
1.9534
1.9066
1.85763
1.81189
1.78472
1.76801
1.74199
1.70752
1.68252
1.67117
1.68135
1.70697
1.81213
2.00528
2.11722
2.12321
2.1157
2.10276
2.08717
2.06923
2.05174
2.03755
2.02326
2.00612
1.98731
1.9716
1.95979
1.94933
1.9391
1.92819
1.91554
1.90156
1.89091
1.88476
1.88083
1.8766
1.87025
1.8634
1.85652
1.84997
1.84182
1.83289
1.82841
1.83659
1.86483
1.90006
1.91646
1.90988
1.89496
1.88606
1.87893
1.87131
1.86756
1.88094
1.92269
1.95501
1.96299
1.957
1.95036
1.94996
1.94953
1.94994
1.94971
1.94724
1.94417
1.94224
1.9393
1.93493
1.93376
1.93253
1.92611
1.91053
1.89176
1.87965
1.87229
1.86674
1.86342
1.86427
1.866
1.86532
1.86643
1.8721
1.88794
1.91179
1.9363
2.15196
2.10216
2.05694
2.01114
1.9665
1.92672
1.8858
1.85149
1.83043
1.81209
1.78241
1.75283
1.73133
1.71928
1.72249
1.73766
1.83631
2.03177
2.12521
2.12703
2.11755
2.10298
2.0863
2.0652
2.04349
2.02544
2.00789
1.99063
1.97502
1.96077
1.94793
1.93522
1.92217
1.90955
1.89936
1.89201
1.88754
1.88232
1.87578
1.86924
1.86215
1.85373
1.84717
1.8409
1.83428
1.8407
1.86795
1.9107
1.93197
1.92933
1.91918
1.90733
1.89917
1.89019
1.87975
1.86853
1.86619
1.88347
1.92355
1.95106
1.95379
1.94654
1.94451
1.9436
1.94461
1.94883
1.95106
1.95134
1.94778
1.94139
1.93477
1.92727
1.92032
1.91438
1.90651
1.89536
1.8827
1.87249
1.86648
1.86193
1.8587
1.85526
1.85552
1.85922
1.87149
1.89392
1.91755
1.932
2.18847
2.14314
2.10088
2.063
2.02195
1.98365
1.94889
1.91535
1.88914
1.86746
1.84259
1.81531
1.79152
1.76785
1.74905
1.74394
1.75575
1.85695
2.04227
2.12136
2.12211
2.10835
2.09137
2.07123
2.04644
2.0233
2.00704
1.99436
1.97984
1.96333
1.94748
1.93379
1.92187
1.91172
1.90378
1.89719
1.88911
1.88092
1.8738
1.8667
1.85893
1.85212
1.84687
1.84177
1.84495
1.8692
1.91738
1.94724
1.94819
1.94101
1.93323
1.9264
1.91887
1.90737
1.89103
1.87338
1.8613
1.86212
1.88377
1.92368
1.94898
1.94999
1.94709
1.9454
1.94697
1.95473
1.96235
1.96152
1.95534
1.94842
1.94034
1.92863
1.91496
1.90743
1.9043
1.90034
1.89273
1.88081
1.86971
1.86305
1.85671
1.85282
1.85405
1.86149
1.87954
1.9029
1.91617
1.92594
2.22511
2.1817
2.14141
2.1039
2.06684
2.03433
2.00026
1.96748
1.94183
1.91648
1.89033
1.86425
1.84156
1.81773
1.79252
1.77143
1.75931
1.77067
1.86995
2.04281
2.10678
2.10362
2.08671
2.06534
2.03947
2.02069
2.00941
1.99785
1.98223
1.96398
1.94707
1.93357
1.92273
1.91481
1.91015
1.90247
1.89297
1.88245
1.87342
1.86494
1.85629
1.85222
1.85
1.8531
1.87483
1.92173
1.9608
1.97118
1.96389
1.95604
1.95056
1.94407
1.93465
1.92184
1.90387
1.88276
1.86402
1.8562
1.86191
1.88831
1.92977
1.95056
1.9529
1.95358
1.95726
1.96761
1.97397
1.96998
1.9637
1.95686
1.9474
1.93311
1.91698
1.90821
1.90695
1.90624
1.90175
1.89109
1.87631
1.86437
1.85867
1.85628
1.85856
1.87002
1.89171
1.90716
1.91449
1.92258
2.25744
2.2155
2.17558
2.1373
2.10198
2.06894
2.0395
2.01164
1.97905
1.95341
1.92946
1.90503
1.88132
1.85954
1.83713
1.81209
1.78433
1.77151
1.78112
1.8748
2.03247
2.08534
2.07692
2.05333
2.03456
2.0225
2.01248
2.00091
1.9855
1.96569
1.94803
1.93471
1.92462
1.91844
1.91298
1.90483
1.89607
1.88487
1.87346
1.86346
1.8562
1.8537
1.85858
1.87807
1.92628
1.97066
1.98786
1.98568
1.97887
1.97075
1.96143
1.95199
1.94218
1.92966
1.91332
1.89383
1.87388
1.86034
1.85946
1.8677
1.89949
1.93895
1.95677
1.96559
1.9733
1.98105
1.98247
1.97797
1.97152
1.96411
1.95438
1.94021
1.9254
1.91574
1.90928
1.90616
1.90252
1.89545
1.88302
1.87101
1.86357
1.86069
1.86796
1.88649
1.90325
1.91014
1.91497
1.92298
2.28317
2.24325
2.20418
2.16601
2.13009
2.09729
2.06693
2.03812
2.01217
1.9825
1.95885
1.93658
1.91241
1.88876
1.86894
1.84877
1.82504
1.79432
1.78133
1.79048
1.88068
2.01878
2.05826
2.04808
2.03547
2.02471
2.01461
2.00323
1.98828
1.96909
1.95111
1.93757
1.92853
1.92225
1.91387
1.90552
1.89719
1.8867
1.87285
1.86272
1.85775
1.86056
1.87594
1.92409
1.97533
2.00015
2.00183
1.99485
1.98511
1.97388
1.96253
1.95231
1.94238
1.93152
1.91887
1.90441
1.88788
1.8724
1.86478
1.86537
1.87803
1.91522
1.95295
1.97508
1.98711
1.99048
1.98852
1.98453
1.9784
1.97094
1.96192
1.95185
1.94129
1.92879
1.91653
1.90795
1.90233
1.89566
1.88692
1.87699
1.86607
1.86955
1.8891
1.90667
1.91229
1.91536
1.919
1.92766
2.30217
2.26529
2.22777
2.19048
2.15403
2.12066
2.08988
2.06078
2.03366
2.00735
1.98105
1.95976
1.94041
1.91998
1.89815
1.87554
1.85514
1.83197
1.80228
1.7915
1.80335
1.89005
2.00107
2.04376
2.04098
2.03028
2.01556
2.00052
1.98679
1.97219
1.95858
1.94779
1.9391
1.9285
1.91717
1.90659
1.89564
1.88374
1.86989
1.86217
1.86221
1.87227
1.91749
1.97385
2.00534
2.0115
2.0055
1.99667
1.98767
1.97702
1.96364
1.95004
1.93964
1.93151
1.92297
1.91248
1.89808
1.88316
1.87421
1.87004
1.87465
1.89691
1.93864
1.97456
1.99287
1.99542
1.99218
1.9877
1.98253
1.97599
1.96932
1.96319
1.95585
1.94461
1.92814
1.9119
1.90056
1.89279
1.88592
1.87602
1.87605
1.89521
1.91707
1.92209
1.92334
1.9234
1.92671
1.93672
2.3169
2.28391
2.24908
2.21273
2.17616
2.14238
2.11109
2.08165
2.05419
2.02851
2.00451
1.98252
1.96269
1.94467
1.92599
1.90534
1.88311
1.86142
1.83664
1.81037
1.80344
1.8175
1.89955
2.00403
2.04217
2.03744
2.02074
2.00129
1.98563
1.97487
1.96651
1.96013
1.9508
1.93777
1.92344
1.90902
1.89368
1.87837
1.86788
1.86557
1.87207
1.91046
1.97149
2.00613
2.0158
2.01227
2.00444
1.99662
1.98827
1.97713
1.96249
1.94808
1.93809
1.931
1.92364
1.91489
1.90435
1.89341
1.88504
1.87953
1.87904
1.89051
1.91909
1.95985
1.98642
1.99371
1.99143
1.98629
1.98394
1.98157
1.9776
1.97345
1.96736
1.95792
1.94212
1.92009
1.90183
1.89089
1.88243
1.88119
1.89787
1.9233
1.93513
1.93616
1.93376
1.93293
1.93873
1.94864
2.33187
2.30266
2.27152
2.23886
2.20463
2.16951
2.13537
2.10398
2.07609
2.05066
2.0281
2.00725
1.98709
1.96806
1.95011
1.93157
1.91159
1.89067
1.86884
1.84192
1.81795
1.81477
1.8305
1.91167
2.0094
2.03519
2.02412
2.00357
1.99011
1.98241
1.9776
1.9713
1.95995
1.94609
1.93022
1.91252
1.89416
1.87763
1.87133
1.87396
1.90429
1.97007
2.00797
2.01697
2.01678
2.01071
2.00352
1.99628
1.9875
1.9766
1.9644
1.95206
1.94224
1.93451
1.9271
1.91877
1.90966
1.90317
1.89803
1.89388
1.88956
1.89071
1.9011
1.92605
1.95948
1.98018
1.98489
1.98339
1.98391
1.98664
1.98509
1.98061
1.9745
1.96512
1.95089
1.9297
1.90582
1.8893
1.8846
1.89918
1.92519
1.94064
1.94767
1.94688
1.94505
1.94638
1.95364
1.95928
2.34743
2.32146
2.29303
2.26305
2.23197
2.20061
2.16896
2.13634
2.10384
2.07636
2.05385
2.032
2.01078
1.99187
1.97366
1.95461
1.93586
1.91704
1.89744
1.87486
1.84696
1.82397
1.81932
1.83581
1.9165
2.00153
2.01733
2.01123
1.99897
1.99073
1.98177
1.97164
1.96142
1.94936
1.93479
1.91535
1.89672
1.88381
1.88079
1.90333
1.96516
2.01571
2.02229
2.02015
2.01587
2.01034
2.00416
1.99686
1.98802
1.97891
1.9698
1.96067
1.95213
1.94382
1.93405
1.92317
1.91591
1.91104
1.90765
1.90332
1.89722
1.89116
1.89184
1.89905
1.92249
1.954
1.97441
1.98207
1.9864
1.98879
1.98529
1.98093
1.97593
1.96781
1.95488
1.93734
1.91259
1.89485
1.90415
1.92886
1.94643
1.95329
1.95608
1.957
1.95818
1.96163
1.96657
1.96633
2.36079
2.33701
2.31028
2.28179
2.25233
2.22265
2.19292
2.16273
2.13315
2.10593
2.08111
2.05746
2.03449
2.01439
1.99677
1.97762
1.95797
1.93839
1.91978
1.90039
1.87678
1.84807
1.82363
1.81767
1.83552
1.91215
1.98471
2.00344
2.00495
1.99408
1.98292
1.97228
1.96115
1.94869
1.93425
1.91663
1.90309
1.89583
1.91108
1.96698
2.02169
2.03078
2.02907
2.02521
2.01895
2.01275
2.00659
1.99938
1.99282
1.98616
1.97932
1.97257
1.96491
1.95507
1.94237
1.93138
1.92479
1.92006
1.9158
1.91017
1.90341
1.89493
1.89012
1.89064
1.90063
1.92634
1.95827
1.97971
1.98982
1.99152
1.98685
1.98125
1.97473
1.9665
1.95689
1.94548
1.93069
1.9225
1.94002
1.9563
1.96295
1.96388
1.96573
1.96935
1.97341
1.97499
1.97367
1.97053
2.3736
2.35034
2.32389
2.29579
2.26737
2.23908
2.21095
2.18305
2.15611
2.13094
2.1073
2.08316
2.05904
2.03722
2.01791
1.9989
1.97952
1.96006
1.94041
1.92044
1.89866
1.87241
1.84253
1.81989
1.81364
1.83074
1.90165
1.97305
1.99486
1.99115
1.97938
1.96668
1.95433
1.94245
1.92839
1.91607
1.91047
1.92334
1.97626
2.03025
2.04964
2.04582
2.0394
2.03235
2.02474
2.01742
2.01195
2.00804
2.00278
1.99761
1.99207
1.9856
1.97753
1.96585
1.95191
1.94258
1.93643
1.93036
1.92331
1.91563
1.90832
1.90083
1.8947
1.89231
1.89529
1.90846
1.93614
1.96865
1.98852
1.99042
1.98596
1.97892
1.97083
1.96362
1.95893
1.95753
1.95994
1.96541
1.9777
1.98073
1.9793
1.97732
1.97938
1.98408
1.98516
1.98182
1.97867
1.97449
2.384
2.36201
2.3369
2.30971
2.28191
2.25452
2.22757
2.20115
2.1756
2.15202
2.12979
2.10627
2.08223
2.06041
2.04038
2.02015
1.99978
1.97918
1.95829
1.93741
1.91653
1.89441
1.86822
1.83831
1.81609
1.8059
1.82172
1.88746
1.95343
1.98071
1.97248
1.9571
1.94331
1.92955
1.918
1.91584
1.92971
1.98116
2.04695
2.06195
2.06102
2.05653
2.04847
2.03908
2.03109
2.02496
2.02082
2.01928
2.01678
2.0121
2.00566
1.99838
1.98919
1.97665
1.96359
1.95519
1.94875
1.94156
1.93181
1.92088
1.91346
1.90753
1.90169
1.89767
1.8959
1.90114
1.91571
1.94429
1.97467
1.98264
1.97932
1.97186
1.96384
1.96043
1.9638
1.97602
1.99294
2.00606
2.00793
2.00335
1.99826
1.9959
1.99741
1.99681
1.99277
1.98796
1.98384
1.97858
2.38914
2.36798
2.34479
2.31985
2.29427
2.26841
2.24203
2.21685
2.19318
2.1708
2.14901
2.12602
2.10324
2.08179
2.06078
2.03994
2.01903
1.99781
1.97599
1.9534
1.93002
1.90568
1.87967
1.85179
1.82291
1.80202
1.78972
1.80346
1.85995
1.92845
1.94987
1.94264
1.92956
1.91424
1.90977
1.92177
1.97156
2.04977
2.08122
2.08243
2.07484
2.06713
2.05814
2.04708
2.03992
2.03529
2.03214
2.03202
2.03182
2.0262
2.01883
2.01053
2.00026
1.98788
1.97662
1.96823
1.96058
1.95146
1.93877
1.92679
1.91962
1.914
1.90773
1.90227
1.89638
1.89439
1.89892
1.91246
1.93935
1.96299
1.96803
1.96336
1.95876
1.96102
1.97305
1.99881
2.02322
2.03319
2.03226
2.02538
2.01858
2.01582
2.01271
2.00632
1.99855
1.99243
1.98855
1.98318
2.39176
2.37005
2.34741
2.32439
2.30112
2.27736
2.25416
2.23149
2.20878
2.18681
2.16487
2.1425
2.12142
2.10088
2.07947
2.05778
2.03556
2.01263
1.98898
1.96444
1.93885
1.91247
1.88632
1.85996
1.83181
1.80412
1.78321
1.76858
1.78029
1.83243
1.89219
1.92034
1.91111
1.90303
1.90861
1.95116
2.03594
2.08303
2.09195
2.08863
2.08144
2.0741
2.06507
2.05524
2.04923
2.04425
2.04138
2.04311
2.04277
2.0365
2.02913
2.02107
2.01166
2.00123
1.99094
1.98105
1.97071
1.95775
1.943
1.93243
1.92502
1.91837
1.91183
1.90468
1.89639
1.88568
1.88396
1.88706
1.90072
1.92798
1.95091
1.95666
1.95993
1.96889
1.9898
2.02116
2.04427
2.04977
2.04834
2.042
2.0352
2.02935
2.02283
2.01532
2.00638
1.99807
1.99317
1.9877
2.39335
2.37269
2.3509
2.32838
2.30578
2.28357
2.26198
2.24062
2.21939
2.19839
2.17712
2.15617
2.13616
2.11594
2.09398
2.07156
2.04835
2.02382
1.99781
1.97074
1.9429
1.91505
1.88802
1.86183
1.83512
1.80774
1.78141
1.76012
1.74784
1.75657
1.80195
1.86727
1.88812
1.90039
1.93836
2.01476
2.07674
2.10039
2.09717
2.09021
2.08375
2.07744
2.06918
2.06016
2.0545
2.04969
2.04795
2.05046
2.04928
2.04397
2.03713
2.02978
2.0222
2.01417
2.00482
1.99289
1.97735
1.95926
1.94456
1.93504
1.927
1.91909
1.91121
1.90237
1.89125
1.87826
1.87307
1.8728
1.87822
1.89535
1.92501
1.94861
1.96658
1.98805
2.01553
2.04316
2.06021
2.06264
2.06036
2.05407
2.04591
2.03632
2.02671
2.01967
2.01362
2.00729
2.00165
1.99523
2.39376
2.37506
2.35448
2.33303
2.31132
2.28962
2.26789
2.24636
2.22554
2.20499
2.18425
2.16382
2.14428
2.12513
2.10308
2.08062
2.05731
2.03241
2.00516
1.97562
1.94508
1.91561
1.88797
1.86188
1.83661
1.81023
1.78379
1.75756
1.73753
1.72333
1.73599
1.7854
1.8496
1.91724
1.99311
2.0651
2.09287
2.09927
2.09583
2.08845
2.08062
2.07339
2.06581
2.06065
2.05625
2.05264
2.05156
2.05196
2.0506
2.04726
2.04215
2.03602
2.02982
2.02334
2.01551
2.00309
1.98205
1.95945
1.94499
1.93564
1.92685
1.91726
1.90653
1.89483
1.88295
1.87289
1.86704
1.8642
1.86584
1.87738
1.90167
1.9366
1.97547
2.01297
2.04272
2.06217
2.06933
2.06808
2.06379
2.05779
2.04949
2.03884
2.02767
2.0206
2.01567
2.01178
2.0093
2.00288
2.39089
2.37365
2.35416
2.33351
2.31222
2.29072
2.26915
2.24792
2.22764
2.20782
2.18808
2.16806
2.14947
2.13079
2.10844
2.08549
2.06137
2.03506
2.00611
1.97526
1.94395
1.91425
1.88658
1.86066
1.83595
1.811
1.78465
1.75849
1.73315
1.70984
1.71037
1.72778
1.80513
1.92617
2.03334
2.10975
2.10497
2.0973
2.09233
2.08609
2.07881
2.07025
2.06337
2.05892
2.0555
2.05396
2.05325
2.05182
2.04948
2.04675
2.04478
2.04285
2.03788
2.03077
2.02237
2.00816
1.98342
1.95784
1.94426
1.93493
1.92478
1.91235
1.89887
1.88731
1.87785
1.86985
1.86386
1.85999
1.86103
1.8688
1.88636
1.92584
1.98027
2.02775
2.064
2.07669
2.07535
2.07019
2.06284
2.05569
2.04848
2.03865
2.02824
2.02299
2.01898
2.01669
2.01506
2.00727
)
;

boundaryField
{
    inlet
    {
        type            fixedValue;
        value           uniform 1;
    }
    outlet
    {
        type            inletOutlet;
        inletValue      uniform 1;
        value           nonuniform List<scalar> 
24
(
1.91278
1.9146
1.91826
1.92208
1.92806
1.93481
1.93628
1.93212
1.92685
1.92448
1.92551
1.93071
1.94023
1.95156
1.96113
1.96765
1.97166
1.9754
1.97918
1.98357
1.98802
1.99512
2.00257
2.00683
)
;
    }
    bottom
    {
        type            zeroGradient;
    }
    top
    {
        type            zeroGradient;
    }
    obstacle
    {
        type            zeroGradient;
    }
    defaultFaces
    {
        type            empty;
    }
}


// ************************************************************************* //
