/*--------------------------------*- C++ -*----------------------------------*\
  =========                 |
  \\      /  F ield         | OpenFOAM: The Open Source CFD Toolbox
   \\    /   O peration     | Website:  https://openfoam.org
    \\  /    A nd           | Version:  7
     \\/     M anipulation  |
\*---------------------------------------------------------------------------*/
FoamFile
{
    version     2.0;
    format      ascii;
    class       volScalarField;
    location    "2.1";
    object      T;
}
// * * * * * * * * * * * * * * * * * * * * * * * * * * * * * * * * * * * * * //

dimensions      [0 0 0 1 0 0 0];

internalField   nonuniform List<scalar> 
16512
(
1.88469
1.87979
1.87434
1.86677
1.85729
1.84937
1.84602
1.84363
1.84048
1.8353
1.82623
1.81492
1.80693
1.80438
1.80343
1.8011
1.79613
1.78654
1.77457
1.7659
1.763
1.76245
1.76126
1.7579
1.7503
1.73892
1.72806
1.72245
1.7212
1.72064
1.71844
1.71348
1.70401
1.69309
1.68609
1.68418
1.68321
1.68107
1.67704
1.66842
1.658
1.65111
1.64848
1.64701
1.645
1.64216
1.63505
1.62538
1.6197
1.61661
1.61301
1.60986
1.60686
1.60219
1.59346
1.58721
1.58575
1.58369
1.5803
1.57694
1.57379
1.56935
1.56328
1.55678
1.55243
1.54747
1.54064
1.53749
1.53708
1.536
1.53365
1.53042
1.52633
1.52189
1.51791
1.51416
1.50915
1.50142
1.49497
1.49331
1.4921
1.49081
1.48961
1.48821
1.48622
1.48377
1.48062
1.47486
1.46482
1.45911
1.4581
1.45659
1.45453
1.45304
1.45158
1.44944
1.44596
1.44167
1.43666
1.43126
1.42944
1.42847
1.42547
1.42854
1.77001
2.27592
2.3442
2.35427
2.36193
2.36687
2.36801
2.36569
2.36394
2.36847
2.37562
2.3821
2.38789
2.39293
2.39648
2.39683
2.3937
2.3921
2.39621
2.40366
2.41039
2.41523
2.41773
2.41659
2.40954
2.40326
2.40322
2.40532
2.40844
2.41117
2.41301
2.41326
2.41112
2.40458
2.39851
2.39786
2.3984
2.39943
2.39967
2.39898
2.39585
2.38877
2.38043
2.3756
2.37263
2.36976
2.36656
2.36296
2.01837
2.01297
2.00809
2.00272
1.99736
1.99172
1.98632
1.98133
1.97577
1.97024
1.96445
1.95901
1.95399
1.94834
1.94261
1.9366
1.93096
1.9261
1.92069
1.91481
1.90824
1.90086
1.8953
1.89051
1.88554
1.88031
1.87334
1.86493
1.85695
1.85235
1.8497
1.84649
1.8415
1.83311
1.82215
1.81405
1.81146
1.81044
1.80807
1.80315
1.79376
1.78188
1.77323
1.77038
1.76984
1.76854
1.76514
1.75753
1.74616
1.73552
1.73019
1.7291
1.72871
1.72656
1.72138
1.71159
1.70054
1.6937
1.69186
1.69119
1.68925
1.68504
1.6763
1.66562
1.65835
1.65634
1.65568
1.65396
1.65084
1.64364
1.6331
1.6259
1.62336
1.62141
1.61852
1.61506
1.61045
1.60325
1.59443
1.5912
1.58985
1.58788
1.58467
1.58104
1.57688
1.57143
1.56502
1.55886
1.55463
1.55006
1.54536
1.54403
1.54339
1.54144
1.53789
1.53317
1.52818
1.52405
1.52061
1.5165
1.50977
1.50231
1.50031
1.49937
1.49806
1.49651
1.49481
1.49304
1.49069
1.48728
1.48248
1.47435
1.46531
1.46305
1.46231
1.46074
1.45879
1.45743
1.45585
1.45352
1.44943
1.44416
1.43909
1.43459
1.43282
1.43222
1.43004
1.42802
1.48414
2.10185
2.32939
2.34592
2.35135
2.35463
2.35455
2.35265
2.35515
2.36231
2.3692
2.37517
2.38056
2.38458
2.38587
2.38323
2.37906
2.3801
2.38651
2.39402
2.40081
2.40615
2.40823
2.40566
2.3973
2.39367
2.39457
2.39661
2.39914
2.40115
2.40243
2.40238
2.39952
2.39277
2.38817
2.38797
2.38867
2.38954
2.38969
2.38872
2.38482
2.37693
2.36938
2.36603
2.36395
2.36187
2.35925
2.35569
2.01573
2.01108
2.00599
2.00073
1.99528
1.9898
1.98498
1.97959
1.97409
1.96837
1.96272
1.95783
1.95236
1.94682
1.94105
1.93533
1.93051
1.92525
1.91961
1.91352
1.90658
1.90101
1.89597
1.89095
1.88595
1.87962
1.87207
1.86446
1.85894
1.85557
1.85233
1.84746
1.83988
1.82928
1.82087
1.81823
1.81711
1.81469
1.80987
1.80075
1.78905
1.7804
1.77757
1.77699
1.77559
1.77214
1.7645
1.75314
1.74268
1.7376
1.73661
1.73632
1.73417
1.72879
1.71896
1.70789
1.70121
1.69952
1.69899
1.6971
1.69272
1.68373
1.67302
1.66585
1.66398
1.66359
1.66222
1.65901
1.65144
1.64101
1.63301
1.63067
1.62925
1.62731
1.62454
1.6188
1.61071
1.603
1.59762
1.59585
1.59418
1.59202
1.58874
1.58402
1.57826
1.57254
1.56665
1.56134
1.55773
1.55468
1.55163
1.54982
1.54843
1.54556
1.54036
1.53459
1.53012
1.52675
1.5232
1.51773
1.51028
1.50712
1.50618
1.50497
1.50346
1.50168
1.49951
1.49721
1.49423
1.48964
1.48271
1.47336
1.46829
1.46726
1.46654
1.46494
1.46309
1.46178
1.4601
1.45736
1.45198
1.44572
1.44177
1.43843
1.43676
1.43616
1.43481
1.43092
1.43268
1.71887
2.25244
2.33956
2.34019
2.34172
2.34094
2.34155
2.34787
2.35547
2.36217
2.36801
2.37302
2.37553
2.37437
2.36906
2.36719
2.37084
2.37751
2.38419
2.39063
2.39572
2.39705
2.39325
2.38605
2.38506
2.38662
2.38879
2.39075
2.39213
2.39274
2.39194
2.38766
2.38134
2.37875
2.37881
2.37942
2.3799
2.37979
2.37832
2.37373
2.3657
2.35948
2.35717
2.35562
2.3539
2.35123
2.34709
2.01335
2.00872
2.0037
1.99857
1.9931
1.98842
1.98332
1.97789
1.97237
1.96652
1.96163
1.95633
1.95083
1.94529
1.93949
1.93467
1.92947
1.92395
1.91821
1.91161
1.90615
1.90101
1.89592
1.89104
1.88531
1.87853
1.87138
1.86543
1.86131
1.85781
1.85323
1.84653
1.8365
1.82755
1.82467
1.82338
1.82082
1.81613
1.80739
1.79602
1.7873
1.78444
1.78381
1.78237
1.77892
1.7714
1.76006
1.7497
1.7448
1.74386
1.74352
1.74132
1.7358
1.7259
1.71499
1.70854
1.70699
1.7066
1.70476
1.70024
1.69106
1.68018
1.67322
1.67145
1.67117
1.66989
1.6667
1.65894
1.64825
1.64013
1.6379
1.63733
1.63582
1.63317
1.62804
1.61807
1.60997
1.60529
1.60281
1.60125
1.59929
1.59651
1.59131
1.58448
1.57861
1.57405
1.56911
1.56496
1.56213
1.55977
1.55707
1.55446
1.55205
1.54815
1.5418
1.53618
1.53286
1.52975
1.52513
1.51821
1.51407
1.51291
1.51151
1.51
1.5082
1.50605
1.50341
1.50049
1.49662
1.49063
1.48194
1.47416
1.47254
1.47182
1.47093
1.46931
1.46753
1.46607
1.46414
1.46041
1.45323
1.44742
1.44529
1.44277
1.44107
1.44034
1.43921
1.43632
1.43274
1.4723
2.05489
2.31357
2.33016
2.33036
2.3304
2.33403
2.34087
2.34815
2.35496
2.36088
2.36515
2.3658
2.36142
2.3566
2.35802
2.3633
2.36902
2.37465
2.38019
2.38417
2.38429
2.3792
2.37493
2.37613
2.3789
2.38144
2.38305
2.38397
2.38386
2.3813
2.37535
2.37088
2.37012
2.37027
2.37055
2.37049
2.36974
2.36746
2.36247
2.35501
2.35007
2.34829
2.347
2.34539
2.34256
2.33791
2.01061
2.00593
2.00124
1.996
1.99144
1.9867
1.98141
1.97617
1.97031
1.96538
1.96029
1.9548
1.94944
1.94358
1.93875
1.93368
1.92817
1.92268
1.91632
1.91095
1.90584
1.90063
1.89572
1.89022
1.88411
1.87746
1.87132
1.86675
1.86288
1.85847
1.85262
1.84399
1.8344
1.83092
1.82941
1.82661
1.82198
1.81382
1.80284
1.79399
1.79098
1.79027
1.78876
1.78535
1.77803
1.76691
1.75663
1.7519
1.75099
1.75054
1.74825
1.74254
1.7325
1.72173
1.71557
1.71416
1.71389
1.71209
1.70749
1.69825
1.68731
1.68054
1.67885
1.6786
1.67727
1.67401
1.6661
1.65526
1.64701
1.64475
1.64461
1.64394
1.64157
1.63633
1.62653
1.6165
1.61263
1.61078
1.60881
1.60693
1.60454
1.59884
1.59046
1.58417
1.58022
1.57704
1.57291
1.56917
1.5663
1.56388
1.56112
1.55801
1.55456
1.54972
1.5432
1.5388
1.53623
1.53271
1.5264
1.52082
1.51924
1.51778
1.51616
1.51434
1.51215
1.5095
1.50644
1.50287
1.49791
1.4904
1.48136
1.47778
1.47702
1.4766
1.47545
1.47389
1.4722
1.47045
1.46783
1.46191
1.45347
1.45046
1.4494
1.44733
1.4456
1.44464
1.44337
1.44101
1.43533
1.43327
1.6667
2.22042
2.31738
2.32002
2.32326
2.32874
2.33482
2.34139
2.34786
2.35347
2.35606
2.35411
2.34814
2.34703
2.35092
2.35645
2.36134
2.36604
2.3703
2.37225
2.37011
2.3648
2.36436
2.36773
2.37156
2.37434
2.37601
2.37643
2.37487
2.36945
2.36378
2.36229
2.36228
2.36237
2.3622
2.36133
2.35954
2.35653
2.35153
2.34497
2.3408
2.33925
2.33809
2.33655
2.33367
2.32877
2.0074
2.00304
1.99814
1.99369
1.98937
1.98438
1.97946
1.97387
1.96892
1.96412
1.9587
1.95352
1.94767
1.94271
1.93786
1.93236
1.92703
1.92089
1.91555
1.91053
1.90523
1.90029
1.89481
1.88915
1.88294
1.87671
1.8717
1.86741
1.86326
1.85794
1.85075
1.8417
1.83694
1.83517
1.83218
1.82772
1.82036
1.80975
1.80069
1.79737
1.79647
1.79481
1.79136
1.78429
1.77347
1.76338
1.75878
1.75797
1.75749
1.75512
1.74931
1.7391
1.72836
1.72237
1.72102
1.7208
1.71902
1.71428
1.70501
1.6942
1.6877
1.68617
1.686
1.68465
1.68125
1.67316
1.66219
1.6539
1.65158
1.65147
1.65115
1.64909
1.64399
1.63429
1.6239
1.61931
1.61827
1.61715
1.61498
1.61207
1.6065
1.59711
1.58933
1.58592
1.58405
1.5815
1.57725
1.57278
1.56935
1.567
1.56442
1.56087
1.55638
1.55094
1.54535
1.54215
1.53966
1.53555
1.52874
1.525
1.52352
1.52189
1.52007
1.51793
1.51534
1.51223
1.50885
1.50451
1.49809
1.48959
1.48362
1.48233
1.48175
1.48138
1.48007
1.47846
1.47673
1.47434
1.46969
1.46109
1.45538
1.45445
1.45363
1.45192
1.45024
1.44891
1.44735
1.44437
1.43849
1.43178
1.45703
1.98209
2.28388
2.31505
2.31879
2.32319
2.32852
2.33458
2.34077
2.34516
2.34537
2.34061
2.33664
2.33908
2.34426
2.34995
2.35435
2.35838
2.36109
2.36031
2.35457
2.35169
2.35444
2.35928
2.36361
2.36669
2.36853
2.36843
2.36435
2.35686
2.35427
2.35454
2.35479
2.35472
2.35396
2.35207
2.34929
2.34572
2.34085
2.3351
2.33142
2.33
2.32896
2.32749
2.32466
2.31961
2.00426
1.99958
1.99515
1.99116
1.9865
1.98188
1.97674
1.97188
1.96751
1.96238
1.95741
1.95181
1.94667
1.94201
1.93655
1.93125
1.92526
1.9198
1.91504
1.90973
1.90482
1.89944
1.89406
1.88828
1.88205
1.87675
1.87185
1.86772
1.8627
1.85641
1.84853
1.84268
1.84033
1.83713
1.83286
1.82654
1.81663
1.8074
1.8038
1.80268
1.80077
1.79724
1.79045
1.77984
1.76986
1.76531
1.76457
1.76413
1.76178
1.75599
1.74588
1.73518
1.72926
1.7279
1.72756
1.72568
1.72075
1.71132
1.70062
1.69442
1.69309
1.69314
1.69188
1.68843
1.68032
1.66921
1.66089
1.65853
1.65836
1.65801
1.65596
1.65085
1.64125
1.63092
1.626
1.6252
1.62475
1.62306
1.62001
1.61365
1.6045
1.59601
1.59228
1.59063
1.58899
1.58591
1.5802
1.57538
1.57204
1.56982
1.5675
1.56354
1.55786
1.5523
1.54819
1.54559
1.54299
1.53878
1.53251
1.52883
1.52713
1.52538
1.5233
1.52085
1.51796
1.51459
1.5108
1.50531
1.49745
1.4906
1.48807
1.48714
1.48669
1.48602
1.48456
1.48275
1.48043
1.47605
1.46839
1.46108
1.45932
1.45868
1.45778
1.45623
1.45465
1.45302
1.45082
1.44658
1.43973
1.43195
1.43223
1.60466
2.17323
2.30463
2.31265
2.31704
2.32146
2.32722
2.33258
2.33491
2.33322
2.32816
2.32817
2.3325
2.33807
2.3436
2.34764
2.35095
2.35143
2.34655
2.34061
2.34137
2.34585
2.3511
2.35544
2.35868
2.36033
2.3591
2.3521
2.34606
2.34615
2.3471
2.34744
2.34719
2.34583
2.34314
2.3397
2.33566
2.3306
2.32525
2.32215
2.32092
2.31996
2.31853
2.31573
2.31055
2.0008
1.99634
1.99249
1.98804
1.98356
1.97878
1.97393
1.96997
1.96533
1.96063
1.95561
1.95045
1.94603
1.94077
1.9355
1.9297
1.9239
1.91929
1.91407
1.90909
1.90383
1.89859
1.89337
1.88736
1.88196
1.87665
1.87229
1.86741
1.8616
1.85467
1.84811
1.84495
1.84156
1.83744
1.83191
1.82296
1.81375
1.80992
1.80865
1.80663
1.80316
1.79676
1.78641
1.77632
1.77161
1.7708
1.7703
1.76797
1.76229
1.75244
1.74198
1.73628
1.73497
1.73455
1.7325
1.72738
1.71763
1.70682
1.70075
1.6995
1.69969
1.69857
1.69517
1.6872
1.67622
1.66794
1.66561
1.66544
1.66501
1.66285
1.65752
1.64775
1.63753
1.63241
1.63167
1.63162
1.63027
1.62729
1.62053
1.61132
1.6034
1.60005
1.59877
1.59709
1.59412
1.58791
1.58149
1.57818
1.57547
1.57288
1.57034
1.56586
1.55867
1.55428
1.55165
1.54915
1.54639
1.54222
1.53625
1.53218
1.53032
1.5285
1.5262
1.5235
1.52043
1.51689
1.51231
1.50468
1.49755
1.49444
1.49294
1.49209
1.49151
1.49039
1.48872
1.48637
1.48227
1.47466
1.46699
1.4644
1.46357
1.46282
1.46172
1.46022
1.45868
1.45683
1.45364
1.44708
1.4394
1.43444
1.43256
1.44708
1.89053
2.26691
2.30602
2.30841
2.31255
2.31845
2.32278
2.32325
2.32032
2.31837
2.32162
2.32676
2.33232
2.33719
2.34085
2.34275
2.3401
2.33274
2.33057
2.33353
2.33821
2.34337
2.34732
2.35034
2.35132
2.34785
2.33894
2.3364
2.33771
2.33931
2.33976
2.33947
2.33788
2.33492
2.33114
2.32637
2.32042
2.31533
2.31306
2.31204
2.31113
2.30967
2.30685
2.30155
1.99733
1.99365
1.98948
1.98509
1.9806
1.97565
1.97176
1.96744
1.96284
1.95829
1.95326
1.94923
1.94455
1.93946
1.93421
1.92832
1.92367
1.91851
1.91335
1.9081
1.90265
1.89789
1.89228
1.88689
1.88153
1.87691
1.8723
1.86674
1.86071
1.85375
1.84966
1.84595
1.84168
1.83671
1.82892
1.81945
1.81518
1.81391
1.81195
1.80874
1.80305
1.79331
1.78301
1.77793
1.7769
1.77613
1.7737
1.76807
1.75836
1.74829
1.74292
1.74185
1.74156
1.73949
1.73434
1.72445
1.71335
1.70708
1.70575
1.70587
1.70475
1.7013
1.69342
1.68272
1.67468
1.6725
1.67247
1.67209
1.66992
1.66446
1.65448
1.64406
1.6388
1.63797
1.63798
1.63675
1.63376
1.62682
1.6175
1.61022
1.60779
1.60715
1.60584
1.60299
1.59569
1.58773
1.58404
1.58224
1.58015
1.57694
1.57276
1.56641
1.55962
1.5573
1.55549
1.55297
1.54983
1.54504
1.53906
1.5352
1.53327
1.53146
1.52909
1.52625
1.52304
1.51892
1.51198
1.50361
1.50054
1.49902
1.49761
1.49685
1.49592
1.49447
1.49229
1.48857
1.48119
1.47282
1.46927
1.46825
1.46756
1.46673
1.46549
1.46395
1.46231
1.45992
1.45476
1.44553
1.43955
1.43828
1.43585
1.43668
1.5536
2.13032
2.29968
2.30033
2.30344
2.30808
2.31149
2.31123
2.30914
2.31101
2.31635
2.32177
2.32663
2.33054
2.33331
2.33294
2.32723
2.32198
2.32345
2.32736
2.33196
2.33642
2.33965
2.3419
2.34141
2.33444
2.32732
2.32735
2.32935
2.33116
2.3318
2.33161
2.33025
2.32751
2.32348
2.31751
2.31033
2.30599
2.30445
2.30354
2.30257
2.30101
2.29814
2.2928
1.99442
1.99065
1.98646
1.98238
1.9776
1.97362
1.96943
1.96477
1.96034
1.95523
1.95126
1.94717
1.94235
1.9377
1.93219
1.92771
1.92298
1.91783
1.9128
1.90703
1.90232
1.89696
1.89143
1.88605
1.88102
1.87686
1.87163
1.86623
1.85963
1.85474
1.8508
1.84629
1.84123
1.83464
1.82621
1.81989
1.81805
1.81616
1.81337
1.80865
1.79994
1.78979
1.78439
1.78315
1.78207
1.77942
1.77372
1.76384
1.75385
1.74873
1.74787
1.74785
1.74601
1.74105
1.73151
1.72038
1.71389
1.71239
1.7122
1.71084
1.70728
1.69921
1.68859
1.68084
1.67881
1.67894
1.67871
1.67669
1.67132
1.66141
1.65088
1.64546
1.64447
1.64431
1.64298
1.63983
1.63256
1.62331
1.61655
1.61474
1.61462
1.61364
1.61073
1.60336
1.59427
1.5902
1.58884
1.58729
1.58509
1.58075
1.57288
1.56636
1.56309
1.56139
1.55963
1.55695
1.55267
1.54625
1.54139
1.53832
1.53624
1.53444
1.53214
1.52924
1.52551
1.5192
1.51039
1.50577
1.50481
1.50328
1.50197
1.50109
1.4999
1.49807
1.49478
1.48799
1.47914
1.47464
1.47313
1.47191
1.47135
1.47047
1.46914
1.46743
1.46522
1.46125
1.45305
1.44437
1.4424
1.4419
1.44044
1.4384
1.44614
1.81047
2.23694
2.29243
2.29423
2.29747
2.29932
2.29858
2.29955
2.30464
2.31047
2.31588
2.32018
2.32344
2.32429
2.32075
2.31429
2.31396
2.31757
2.32199
2.3265
2.32972
2.33205
2.33258
2.32831
2.32009
2.31753
2.31872
2.32086
2.32253
2.32323
2.3232
2.32236
2.32013
2.31588
2.30862
2.301
2.29769
2.29635
2.29536
2.29423
2.29249
2.28953
2.28417
1.99147
1.98731
1.9834
1.97899
1.97512
1.97133
1.96681
1.96256
1.95746
1.95308
1.94913
1.9444
1.93993
1.93474
1.93045
1.92653
1.92171
1.91719
1.91179
1.90699
1.90183
1.89618
1.89076
1.88499
1.8809
1.87611
1.87086
1.86501
1.85959
1.85576
1.85117
1.84627
1.84016
1.83318
1.82633
1.82232
1.81976
1.81701
1.81305
1.80553
1.79607
1.79073
1.78944
1.78813
1.78532
1.77971
1.76976
1.75934
1.75405
1.75311
1.75314
1.75145
1.74679
1.73781
1.72717
1.72087
1.71938
1.71907
1.71751
1.71383
1.70542
1.69445
1.68673
1.68467
1.68479
1.68467
1.68275
1.6775
1.66793
1.65764
1.65228
1.65124
1.65094
1.64946
1.64607
1.63843
1.629
1.6227
1.62115
1.62122
1.62035
1.61741
1.61006
1.60087
1.59634
1.59525
1.59412
1.5922
1.58847
1.58037
1.5721
1.56933
1.56819
1.56645
1.5641
1.5603
1.5532
1.54677
1.5441
1.54187
1.53962
1.53774
1.53552
1.53224
1.52654
1.51765
1.51116
1.5101
1.50902
1.50732
1.50598
1.50484
1.50337
1.5008
1.4953
1.486
1.47986
1.47864
1.47696
1.4757
1.47512
1.47409
1.47257
1.4705
1.46674
1.45969
1.45092
1.4468
1.44619
1.44565
1.44469
1.44244
1.44248
1.5176
2.06878
2.27083
2.28795
2.2886
2.28975
2.28995
2.2932
2.29867
2.30429
2.30936
2.31326
2.31488
2.31318
2.30706
2.30438
2.30752
2.31234
2.31723
2.32079
2.32309
2.32396
2.32134
2.31346
2.30875
2.30936
2.31113
2.31295
2.31418
2.31453
2.31443
2.31385
2.31202
2.30767
2.29997
2.29315
2.29051
2.28906
2.28785
2.28645
2.28443
2.2812
2.27558
1.98832
1.98427
1.97975
1.97571
1.97241
1.96827
1.96424
1.95978
1.95526
1.95137
1.94668
1.94219
1.93706
1.93227
1.92878
1.92439
1.92013
1.91537
1.9108
1.90634
1.90088
1.89578
1.88973
1.88506
1.88045
1.87511
1.86973
1.86375
1.86013
1.85582
1.85129
1.84563
1.83951
1.83328
1.82814
1.82421
1.82074
1.8167
1.81
1.80116
1.79604
1.79484
1.79357
1.79098
1.78596
1.77644
1.76566
1.75988
1.75857
1.75811
1.75625
1.7517
1.7428
1.73274
1.72702
1.72583
1.72586
1.72437
1.72071
1.71239
1.70102
1.69286
1.6906
1.69055
1.69032
1.68827
1.68297
1.67361
1.66385
1.65879
1.6579
1.6577
1.65615
1.65254
1.64457
1.63488
1.62883
1.62745
1.62749
1.62652
1.62344
1.6161
1.60707
1.60236
1.60143
1.6006
1.59883
1.5954
1.58753
1.57846
1.57509
1.57432
1.57324
1.57127
1.56764
1.56021
1.5526
1.54922
1.54765
1.54594
1.54379
1.54174
1.53924
1.53401
1.5251
1.51702
1.51526
1.51446
1.51287
1.51109
1.50961
1.50818
1.50619
1.50225
1.49386
1.48548
1.48369
1.48263
1.48081
1.47961
1.47874
1.47751
1.47568
1.47261
1.4656
1.45725
1.4521
1.4509
1.45026
1.44952
1.44853
1.44715
1.44437
1.44809
1.7185
2.19008
2.27281
2.27541
2.27919
2.28194
2.28612
2.29141
2.29735
2.3026
2.30503
2.30437
2.29909
2.29414
2.29596
2.30106
2.30674
2.31148
2.31453
2.31612
2.31487
2.30774
2.30028
2.29989
2.30179
2.30396
2.30553
2.30626
2.30606
2.30521
2.30422
2.30245
2.29837
2.29154
2.28631
2.28419
2.28273
2.28133
2.27959
2.27714
2.27327
2.26675
1.98564
1.98115
1.9764
1.97292
1.96902
1.96501
1.96102
1.95669
1.95329
1.94903
1.9446
1.94003
1.93473
1.93097
1.92667
1.92226
1.91765
1.91301
1.90939
1.90464
1.89987
1.89458
1.88948
1.88497
1.87956
1.87441
1.868
1.86378
1.86007
1.85556
1.85066
1.84468
1.83961
1.83465
1.82999
1.82567
1.82122
1.81493
1.80601
1.80022
1.79883
1.7975
1.79536
1.79137
1.7831
1.77269
1.76651
1.76487
1.76382
1.76161
1.75688
1.74758
1.73753
1.73212
1.73105
1.73146
1.73031
1.727
1.71925
1.7081
1.69956
1.69703
1.69667
1.69608
1.69382
1.68823
1.67874
1.66941
1.66474
1.66403
1.6641
1.66267
1.65897
1.65091
1.64103
1.6351
1.63384
1.63376
1.63265
1.62936
1.62182
1.61289
1.60816
1.60728
1.60676
1.60512
1.60192
1.59438
1.5851
1.58099
1.58023
1.57934
1.57759
1.57426
1.56683
1.55853
1.55489
1.55356
1.55214
1.55064
1.54869
1.54583
1.54063
1.53273
1.52364
1.52032
1.51961
1.51839
1.51648
1.51457
1.51293
1.51112
1.50824
1.50168
1.49225
1.48867
1.48786
1.4865
1.48483
1.48353
1.48226
1.48069
1.47813
1.472
1.46318
1.45743
1.45606
1.45517
1.45448
1.45344
1.45226
1.45128
1.44885
1.44523
1.48468
1.97324
2.23492
2.26966
2.2728
2.27599
2.27916
2.28382
2.29019
2.29459
2.29512
2.29145
2.28533
2.28492
2.28929
2.29481
2.3005
2.30477
2.30789
2.30842
2.30387
2.29428
2.29115
2.2921
2.29475
2.29716
2.29858
2.29908
2.29823
2.29584
2.29377
2.29177
2.28829
2.28318
2.27982
2.2784
2.27721
2.27578
2.27374
2.27066
2.26549
2.25746
1.98297
1.97855
1.97468
1.97042
1.96602
1.96185
1.95721
1.95405
1.95068
1.94648
1.94256
1.93761
1.9336
1.9293
1.92456
1.92003
1.9146
1.91101
1.90711
1.90257
1.89808
1.89321
1.88928
1.8842
1.87913
1.87319
1.86746
1.86382
1.85926
1.8548
1.84894
1.84421
1.84042
1.836
1.83144
1.82689
1.8211
1.81312
1.80553
1.80232
1.80038
1.79821
1.79499
1.78794
1.77875
1.77296
1.77132
1.77006
1.76767
1.76305
1.75364
1.7428
1.73693
1.73566
1.736
1.73509
1.73211
1.72503
1.71463
1.70626
1.70371
1.70325
1.70237
1.69995
1.694
1.68404
1.67474
1.6703
1.66966
1.66989
1.66862
1.66497
1.65708
1.64732
1.64153
1.64037
1.64018
1.63894
1.6355
1.62762
1.61844
1.61363
1.61283
1.61258
1.61109
1.60808
1.60094
1.59164
1.58689
1.58609
1.58528
1.5836
1.58043
1.57311
1.56436
1.56037
1.55945
1.55867
1.55722
1.55543
1.55247
1.54616
1.53856
1.53132
1.52653
1.52489
1.5235
1.52185
1.5199
1.51796
1.51607
1.51345
1.50854
1.49996
1.49395
1.49287
1.49184
1.49047
1.48899
1.48748
1.48578
1.48337
1.47789
1.46947
1.46271
1.46114
1.46032
1.45965
1.45858
1.45728
1.45592
1.45471
1.45275
1.44726
1.44287
1.61865
2.12535
2.26176
2.26304
2.26681
2.27079
2.27578
2.28149
2.28362
2.28203
2.27705
2.27465
2.27779
2.28307
2.28839
2.29325
2.2973
2.29984
2.29893
2.29114
2.28369
2.28378
2.28519
2.28796
2.29031
2.29168
2.29202
2.29052
2.28663
2.28331
2.281
2.2781
2.27472
2.27313
2.27253
2.27184
2.27061
2.26836
2.26439
2.25719
2.24814
1.97951
1.97612
1.97229
1.96799
1.9639
1.95884
1.955
1.95176
1.94762
1.94383
1.93948
1.93569
1.932
1.92728
1.92296
1.91733
1.9127
1.90892
1.90431
1.90002
1.89525
1.89205
1.88823
1.88344
1.87867
1.87251
1.86807
1.86327
1.85837
1.85292
1.84695
1.84388
1.84033
1.83611
1.83199
1.82722
1.8208
1.81336
1.80791
1.8044
1.80121
1.79762
1.79119
1.78278
1.77778
1.77652
1.7754
1.7733
1.76947
1.7609
1.74946
1.74253
1.74083
1.74058
1.73941
1.73646
1.72957
1.7198
1.71211
1.70979
1.7096
1.70883
1.70638
1.70043
1.6901
1.68031
1.67585
1.67517
1.67535
1.67409
1.67041
1.66267
1.65331
1.64785
1.64682
1.64669
1.64539
1.64187
1.63378
1.6241
1.61906
1.61822
1.61809
1.61678
1.61389
1.60706
1.59794
1.5928
1.59191
1.59119
1.58957
1.58657
1.57952
1.57034
1.56573
1.56492
1.56459
1.56361
1.56182
1.55843
1.55162
1.54363
1.53704
1.53356
1.53175
1.52952
1.527
1.52503
1.52328
1.52138
1.51893
1.51475
1.50714
1.49986
1.498
1.49693
1.49586
1.49468
1.49328
1.49152
1.48889
1.48332
1.47512
1.46811
1.46631
1.46542
1.46469
1.46394
1.46255
1.46097
1.45935
1.45749
1.45473
1.44714
1.43898
1.45475
1.85558
2.21172
2.25604
2.25879
2.26289
2.26848
2.27213
2.27157
2.26762
2.26439
2.26661
2.27183
2.27716
2.28161
2.28561
2.28905
2.29037
2.28731
2.27864
2.27599
2.27722
2.27917
2.28151
2.28325
2.28434
2.28437
2.2823
2.27782
2.27388
2.27122
2.26858
2.26652
2.2662
2.26617
2.26599
2.26505
2.26257
2.25731
2.24815
2.24006
1.97637
1.97351
1.9697
1.96609
1.96166
1.95688
1.95299
1.94865
1.9446
1.94027
1.9364
1.93374
1.92977
1.92573
1.92112
1.91579
1.91142
1.90639
1.90177
1.89652
1.89281
1.89036
1.88635
1.88243
1.8775
1.87284
1.86818
1.8628
1.85773
1.85074
1.8464
1.8435
1.83948
1.83542
1.8312
1.82626
1.82076
1.81512
1.81054
1.80631
1.80185
1.7954
1.78696
1.78154
1.78009
1.779
1.77732
1.77447
1.76765
1.75702
1.74916
1.74697
1.74602
1.74432
1.74104
1.73376
1.72402
1.7169
1.71476
1.71485
1.71445
1.71231
1.70689
1.6968
1.68655
1.68179
1.68099
1.68088
1.67947
1.67562
1.66771
1.65865
1.65362
1.6528
1.65289
1.65167
1.64824
1.6402
1.63018
1.62477
1.62378
1.62358
1.62232
1.61949
1.61279
1.60381
1.59844
1.59751
1.59702
1.59553
1.59274
1.58602
1.57662
1.57136
1.57047
1.57018
1.56938
1.56766
1.56407
1.55707
1.54864
1.54225
1.53976
1.53853
1.53665
1.53327
1.53011
1.52842
1.52683
1.52467
1.52099
1.51385
1.50597
1.50331
1.50216
1.50111
1.50021
1.4991
1.49756
1.49493
1.48906
1.48056
1.47318
1.4713
1.4708
1.46967
1.46884
1.46776
1.46615
1.46428
1.46217
1.45924
1.45365
1.44513
1.43907
1.4402
1.54608
2.06586
2.24737
2.25157
2.25481
2.2597
2.26118
2.25908
2.25479
2.25536
2.26001
2.26581
2.27077
2.27453
2.27769
2.27991
2.27977
2.27459
2.26842
2.2689
2.27126
2.27364
2.27512
2.27607
2.27643
2.27585
2.27324
2.26921
2.26571
2.2629
2.26027
2.25899
2.25907
2.2594
2.25939
2.25855
2.25558
2.24875
2.23908
2.23353
1.97307
1.97012
1.96701
1.96368
1.95961
1.95544
1.95069
1.94609
1.94133
1.93622
1.93371
1.93089
1.92718
1.92371
1.91938
1.91528
1.91013
1.90503
1.89964
1.89369
1.89102
1.8877
1.88382
1.87981
1.87566
1.87232
1.86754
1.86284
1.85713
1.85061
1.84685
1.8426
1.83804
1.83356
1.8286
1.82493
1.82106
1.81661
1.81249
1.808
1.80166
1.79341
1.78662
1.7835
1.78174
1.78004
1.77777
1.77226
1.7632
1.75595
1.75358
1.75224
1.75023
1.74673
1.73913
1.72859
1.72119
1.71894
1.719
1.71888
1.71712
1.71241
1.70318
1.69308
1.6882
1.6873
1.68687
1.68527
1.68117
1.67276
1.66359
1.65885
1.65812
1.65838
1.6573
1.65405
1.64637
1.63643
1.63071
1.62961
1.62929
1.628
1.6252
1.61848
1.6094
1.6038
1.60281
1.60259
1.6013
1.59869
1.59243
1.58303
1.57713
1.57611
1.57582
1.57498
1.57328
1.56959
1.56226
1.5537
1.54769
1.54567
1.54489
1.54347
1.54034
1.53591
1.53351
1.53214
1.53039
1.52731
1.52075
1.51207
1.50851
1.5075
1.50653
1.50569
1.50469
1.50337
1.50096
1.49501
1.48629
1.47858
1.47611
1.47588
1.47521
1.47388
1.47254
1.47105
1.4692
1.46698
1.46405
1.4587
1.45097
1.44468
1.4429
1.44228
1.44997
1.75488
2.17774
2.23904
2.24547
2.25023
2.24991
2.24674
2.24521
2.24816
2.25312
2.25862
2.26331
2.26674
2.26929
2.27033
2.26834
2.26176
2.25937
2.26176
2.26536
2.26776
2.26886
2.26914
2.26865
2.26676
2.26366
2.26055
2.25798
2.25545
2.25296
2.25201
2.25211
2.25239
2.25231
2.25113
2.24718
2.23899
2.23081
2.22774
1.9696
1.96645
1.96322
1.96009
1.95717
1.95323
1.94883
1.94447
1.93841
1.93415
1.93102
1.92717
1.92384
1.92014
1.91734
1.9138
1.90897
1.90449
1.89828
1.89355
1.88968
1.88518
1.88081
1.87596
1.87356
1.87064
1.86636
1.8624
1.85667
1.85156
1.84677
1.84161
1.83683
1.83079
1.82622
1.82416
1.82074
1.81701
1.81345
1.80851
1.80131
1.79354
1.78855
1.78552
1.78282
1.78009
1.77508
1.76739
1.76122
1.75918
1.75793
1.75597
1.75292
1.74598
1.73487
1.72618
1.7234
1.72307
1.72283
1.72106
1.71664
1.70819
1.69889
1.69433
1.69361
1.69323
1.69155
1.68731
1.67846
1.66874
1.66391
1.66315
1.66339
1.66235
1.65916
1.65176
1.64218
1.63648
1.63539
1.63514
1.63389
1.63113
1.62442
1.61502
1.60905
1.60794
1.60785
1.60677
1.60436
1.59854
1.58937
1.58298
1.58176
1.58146
1.58064
1.5789
1.57508
1.56762
1.55908
1.55333
1.55157
1.55093
1.54975
1.54705
1.54219
1.53887
1.53742
1.53592
1.5334
1.52783
1.51879
1.51364
1.51272
1.51209
1.51134
1.51019
1.50878
1.50635
1.50051
1.49205
1.48426
1.48141
1.481
1.48053
1.4794
1.47767
1.47573
1.47387
1.47176
1.46891
1.46402
1.45664
1.44984
1.448
1.44775
1.44675
1.44709
1.50523
1.9888
2.20983
2.23558
2.23948
2.23948
2.23844
2.23967
2.24293
2.24711
2.25153
2.25581
2.25883
2.26083
2.26093
2.25705
2.2513
2.25131
2.25492
2.25888
2.26132
2.26245
2.26246
2.26107
2.25787
2.25447
2.2521
2.25026
2.24819
2.24613
2.24535
2.24535
2.24538
2.24502
2.24309
2.23775
2.22901
2.22357
2.22201
1.96574
1.96202
1.95826
1.95615
1.954
1.95062
1.94732
1.94306
1.93809
1.93345
1.92873
1.92453
1.91976
1.91647
1.91473
1.9113
1.90765
1.9034
1.8982
1.89351
1.88828
1.88346
1.87742
1.87328
1.87149
1.8681
1.86465
1.86068
1.8561
1.8516
1.84618
1.84116
1.83543
1.82861
1.826
1.82356
1.81982
1.81654
1.8128
1.80761
1.80117
1.79517
1.79098
1.78731
1.78356
1.77825
1.7708
1.76473
1.76274
1.76175
1.76024
1.75795
1.75252
1.74249
1.73275
1.72905
1.72814
1.72717
1.72513
1.72042
1.71202
1.70356
1.69946
1.69899
1.69901
1.69752
1.6935
1.68471
1.67445
1.66927
1.66843
1.66847
1.6673
1.66402
1.65659
1.64726
1.64169
1.64072
1.64074
1.63967
1.63705
1.63046
1.62079
1.61443
1.61313
1.61299
1.61204
1.60976
1.60424
1.59535
1.58871
1.5873
1.58703
1.58625
1.58452
1.58064
1.57299
1.56445
1.55927
1.55786
1.5572
1.55582
1.55305
1.54789
1.54421
1.54274
1.54135
1.53918
1.53467
1.52597
1.51907
1.51784
1.51737
1.517
1.51579
1.51412
1.51128
1.50526
1.49716
1.48988
1.48708
1.48658
1.48606
1.48488
1.48311
1.48068
1.47849
1.47649
1.47391
1.46953
1.4623
1.45532
1.45305
1.4524
1.45235
1.45179
1.44957
1.45322
1.65607
2.11358
2.22748
2.22541
2.22611
2.22853
2.23287
2.23692
2.24072
2.24471
2.24819
2.25065
2.2519
2.25088
2.24594
2.24254
2.24406
2.24807
2.25161
2.25405
2.25524
2.2552
2.25335
2.2494
2.24578
2.2437
2.24219
2.24064
2.23931
2.23871
2.23853
2.23835
2.23754
2.23468
2.22791
2.21992
2.21704
2.21616
1.9637
1.95829
1.95491
1.95255
1.94946
1.94665
1.94407
1.94089
1.93701
1.9322
1.92761
1.92241
1.91681
1.91449
1.91183
1.90825
1.90506
1.90127
1.89757
1.89263
1.88751
1.88206
1.87525
1.87238
1.86938
1.8655
1.86179
1.8579
1.85504
1.85085
1.84586
1.84112
1.8343
1.82896
1.82625
1.82233
1.81856
1.81474
1.81022
1.80623
1.80148
1.79692
1.79312
1.78905
1.78343
1.7762
1.76931
1.7656
1.76409
1.76271
1.76101
1.75694
1.74876
1.73957
1.73546
1.73428
1.73285
1.73054
1.7253
1.71625
1.70787
1.70394
1.70344
1.70373
1.70252
1.69892
1.69071
1.68047
1.67502
1.67408
1.67388
1.67258
1.66921
1.66152
1.65207
1.64655
1.64558
1.64581
1.64503
1.64261
1.63632
1.62665
1.61984
1.61837
1.61818
1.61727
1.61509
1.60973
1.60099
1.59421
1.59263
1.59245
1.59178
1.59005
1.58621
1.5785
1.56983
1.56506
1.56409
1.56366
1.56223
1.55904
1.55294
1.54899
1.54781
1.54661
1.54468
1.54097
1.53315
1.52505
1.52309
1.52247
1.52222
1.52124
1.51947
1.51619
1.50976
1.50162
1.49488
1.49259
1.49229
1.49189
1.49061
1.48858
1.48573
1.48317
1.48126
1.47907
1.47536
1.4682
1.46074
1.45824
1.45762
1.45714
1.45682
1.45624
1.4541
1.44981
1.4737
1.8645
2.18292
2.2168
2.21838
2.22246
2.22707
2.23105
2.23472
2.23824
2.24088
2.2425
2.24263
2.23998
2.23558
2.23499
2.23774
2.24155
2.24449
2.24665
2.2477
2.24751
2.24521
2.24072
2.23712
2.23532
2.23417
2.2332
2.23255
2.23218
2.23189
2.23146
2.23012
2.22611
2.21809
2.21209
2.21078
2.21028
1.96231
1.9573
1.9537
1.94999
1.94616
1.94252
1.93992
1.93794
1.93483
1.9309
1.92679
1.92057
1.91592
1.91262
1.90864
1.90495
1.90121
1.8989
1.89599
1.8914
1.88706
1.881
1.87549
1.87168
1.86718
1.86302
1.85811
1.85546
1.85341
1.84936
1.84537
1.84067
1.83427
1.83009
1.82581
1.82134
1.81722
1.81147
1.80771
1.80513
1.80108
1.79758
1.79427
1.78962
1.78293
1.77531
1.77004
1.76734
1.76519
1.76315
1.75939
1.75244
1.74489
1.74114
1.74009
1.73873
1.73655
1.73141
1.72205
1.71286
1.70851
1.70782
1.70801
1.70687
1.70344
1.69579
1.68606
1.68063
1.67974
1.67955
1.67822
1.67486
1.66689
1.65704
1.65135
1.65032
1.65061
1.64999
1.64777
1.64187
1.6324
1.62521
1.62356
1.62335
1.6225
1.6204
1.61511
1.60638
1.59938
1.59771
1.59763
1.59714
1.59545
1.59173
1.58407
1.5753
1.57071
1.56989
1.56953
1.56824
1.56501
1.55832
1.55334
1.55237
1.55153
1.54985
1.54677
1.53991
1.5313
1.52841
1.52772
1.52728
1.52639
1.5247
1.52133
1.51463
1.50623
1.49963
1.49772
1.49769
1.49757
1.49639
1.49419
1.49082
1.48784
1.48591
1.48408
1.48116
1.4746
1.46633
1.46309
1.46272
1.46243
1.46178
1.46093
1.45992
1.4575
1.44955
1.44524
1.55726
2.04536
2.20066
2.21591
2.21909
2.22189
2.22483
2.22817
2.23126
2.23315
2.23364
2.23229
2.22823
2.2261
2.22777
2.23164
2.23506
2.23768
2.23952
2.24016
2.23953
2.23604
2.23077
2.22788
2.2269
2.22646
2.22625
2.22618
2.22601
2.22578
2.22522
2.22309
2.21695
2.20849
2.20526
2.20466
2.20443
1.95998
1.95522
1.95071
1.94666
1.94282
1.93911
1.93747
1.93562
1.93234
1.92913
1.92506
1.91985
1.915
1.91023
1.906
1.901
1.89778
1.89641
1.89349
1.89003
1.88619
1.88102
1.8762
1.87094
1.86617
1.86064
1.85533
1.85375
1.8511
1.8473
1.84397
1.83928
1.83466
1.83011
1.82515
1.82091
1.8152
1.80933
1.80725
1.80412
1.80027
1.7972
1.7937
1.78876
1.78195
1.77569