/*--------------------------------*- C++ -*----------------------------------*\
  =========                 |
  \\      /  F ield         | OpenFOAM: The Open Source CFD Toolbox
   \\    /   O peration     | Website:  https://openfoam.org
    \\  /    A nd           | Version:  7
     \\/     M anipulation  |
\*---------------------------------------------------------------------------*/
FoamFile
{
    version     2.0;
    format      ascii;
    class       volScalarField;
    location    "2.8";
    object      p;
}
// * * * * * * * * * * * * * * * * * * * * * * * * * * * * * * * * * * * * * //

dimensions      [1 -1 -2 0 0 0 0];

internalField   nonuniform List<scalar> 
16192
(
2.00953
2.00736
2.00647
2.00478
2.00189
1.99735
1.99239
1.98884
1.98631
1.98375
1.98095
1.97756
1.97261
1.96301
1.94252
1.91598
1.90308
1.89871
1.89573
1.89417
1.89641
1.90585
1.91393
1.91778
1.92095
1.92354
1.92627
1.92953
1.93105
1.92833
1.92552
1.92236
1.91791
1.91359
1.91002
1.90799
1.90688
1.90819
1.91361
1.91407
1.91231
1.90955
1.90498
1.89584
1.88156
1.86826
1.86081
1.85528
1.8489
1.8407
1.8331
1.82823
1.8241
1.81904
1.81522
1.8138
1.8168
1.81882
1.81649
1.81344
1.80978
1.80166
1.78177
1.76119
1.75356
1.7507
1.7489
1.74807
1.75215
1.76718
1.77633
1.77605
1.77375
1.76862
1.75152
1.71925
1.70226
1.69995
1.69858
1.69751
1.69737
1.70062
1.70807
1.71462
1.71809
1.71915
1.71849
1.71576
1.70926
1.69769
1.69087
1.68985
1.6914
1.69694
1.70271
1.70259
1.7007
1.69823
1.69475
1.68787
1.67571
1.66078
1.64835
1.6395
1.63462
1.63289
1.6315
1.62972
1.62738
1.62408
1.61988
1.61599
1.61327
1.61072
1.60756
1.60418
1.60145
1.59875
1.59515
1.5913
1.58736
1.5803
1.56362
1.54599
1.54115
1.53959
1.53811
1.5369
1.53644
1.53681
1.53625
1.53429
1.53194
1.52934
1.5261
1.52163
1.51743
1.51572
1.51417
1.51235
1.51056
1.50872
1.50618
1.50156
1.49168
1.47326
1.45329
1.44432
1.44139
1.44077
1.44254
1.45314
1.47121
1.48358
1.48892
1.4924
1.49514
1.49711
1.49907
1.49979
1.49124
1.47423
1.46426
1.46304
1.46484
1.4733
1.48742
1.49033
1.48845
1.48522
1.48055
1.47145
1.44983
1.42044
1.40942
1.40746
1.40598
1.40513
1.40803
1.42275
1.44664
1.45947
1.46067
1.45987
1.4578
1.45221
1.43544
1.39575
1.36681
1.36267
1.36188
1.36096
1.35959
1.35921
1.3654
1.38374
1.40167
1.40407
1.4028
1.40172
1.4005
1.39841
1.39344
1.38202
1.37036
1.36598
1.36411
1.3622
1.35906
1.35273
1.34323
1.33642
1.33377
1.33347
1.33412
1.33557
1.3385
1.34446
1.35358
1.35918
1.35922
1.35807
1.35672
1.35478
1.35052
1.34119
1.32424
1.30753
1.30142
1.29969
1.2994
1.30323
1.30548
1.30559
1.30641
1.30736
1.30715
1.30635
1.30487
1.30156
1.29616
1.29135
1.28805
1.28476
1.27885
1.26877
1.26277
1.26205
1.26238
1.26382
1.26613
1.26705
1.26521
2.00629
2.0036
2.00434
2.00735
2.00499
2.00059
1.99358
1.98462
1.9775
1.97377
1.97053
1.96658
1.96117
1.95334
1.94087
1.92285
1.91001
1.90401
1.8998
1.89775
1.90031
1.90386
1.90323
1.90186
1.9005
1.89843
1.89738
1.89894
1.90433
1.91147
1.91306
1.91346
1.91492
1.91271
1.90778
1.9048
1.90416
1.90545
1.91091
1.91874
1.91777
1.91406
1.90878
1.89965
1.88539
1.86783
1.8529
1.84199
1.83242
1.82742
1.82535
1.82515
1.82574
1.82499
1.82528
1.82533
1.82246
1.81718
1.81125
1.80627
1.80033
1.79031
1.77365
1.75888
1.75265
1.74961
1.74774
1.74698
1.75169
1.76259
1.76589
1.76433
1.76197
1.75809
1.74643
1.72013
1.69905
1.6936
1.6922
1.69104
1.69107
1.69426
1.69952
1.70357
1.70659
1.7094
1.71095
1.71084
1.7083
1.70173
1.69019
1.68402
1.68323
1.68494
1.69026
1.69372
1.69294
1.69052
1.68722
1.68217
1.67306
1.65969
1.64752
1.63985
1.63526
1.63233
1.63141
1.6309
1.62923
1.62675
1.62321
1.61686
1.60847
1.60174
1.59711
1.59398
1.59145
1.59053
1.5921
1.59033
1.5871
1.58268
1.57326
1.55339
1.53775
1.5344
1.53278
1.53149
1.53055
1.53006
1.53015
1.53031
1.52874
1.52614
1.52314
1.51969
1.51503
1.50994
1.50737
1.50561
1.50418
1.50254
1.49999
1.49644
1.49149
1.48319
1.46669
1.44762
1.44059
1.43917
1.44
1.44741
1.45945
1.46749
1.47197
1.47595
1.4788
1.48013
1.4816
1.48279
1.48106
1.47472
1.46756
1.46553
1.46814
1.47611
1.48385
1.48502
1.48313
1.47929
1.47347
1.46322
1.44243
1.41642
1.4063
1.40442
1.40332
1.40338
1.40946
1.42811
1.44807
1.45429
1.45537
1.45469
1.4528
1.44891
1.43838
1.40898
1.3709
1.35882
1.35697
1.35575
1.35413
1.35303
1.35773
1.37428
1.39369
1.39875
1.39835
1.398
1.39828
1.39798
1.39365
1.38242
1.36893
1.36305
1.36107
1.35963
1.35788
1.35475
1.34812
1.33783
1.3309
1.32891
1.32916
1.32998
1.33184
1.33544
1.34063
1.34756
1.35292
1.35297
1.35151
1.3496
1.34716
1.34296
1.33458
1.32053
1.30657
1.30198
1.30147
1.30333
1.30325
1.30234
1.30178
1.30101
1.29934
1.29658
1.29368
1.29196
1.29096
1.2898
1.28819
1.28658
1.28388
1.27785
1.26772
1.26311
1.26259
1.2622
1.26155
1.26064
1.25813
2.01094
2.00209
1.99755
1.99544
1.99441
1.99216
1.98872
1.98214
1.97195
1.96438
1.96014
1.95611
1.95057
1.94229
1.93271
1.92286
1.91444
1.91043
1.90746
1.90448
1.90233
1.89959
1.89641
1.89244
1.8862
1.8783
1.87484
1.87479
1.87675
1.88363
1.89197
1.89788
1.90398
1.90827
1.90707
1.90272
1.90244
1.90377
1.9064
1.90882
1.90809
1.90577
1.90243
1.89747
1.88694
1.86815
1.84522
1.83018
1.82428
1.82161
1.81967
1.81908
1.8238
1.8327
1.83447
1.83212
1.8269
1.81837
1.80844
1.79864
1.78765
1.77533
1.76512
1.75855
1.7543
1.75114
1.74954
1.75039
1.75545
1.75665
1.75439
1.75177
1.74877
1.74432
1.7362
1.72043
1.70123
1.69131
1.68806
1.68655
1.68594
1.6897
1.69582
1.69792
1.69834
1.69913
1.70107
1.70279
1.70342
1.70144
1.69493
1.68301
1.67637
1.67568
1.67668
1.67906
1.68053
1.67984
1.6775
1.67399
1.66876
1.66129
1.65366
1.64731
1.64125
1.63577
1.63171
1.62961
1.62949
1.62774
1.62234
1.6109
1.59766
1.59073
1.58769
1.58522
1.58294
1.58288
1.58878
1.59305
1.59205
1.58809
1.58006
1.56049
1.53572
1.52781
1.52594
1.52444
1.52317
1.52231
1.52301
1.52622
1.5268
1.52465
1.5218
1.51834
1.51323
1.50568
1.50051
1.49859
1.49708
1.49533
1.49289
1.49033
1.4886
1.48605
1.47982
1.46648
1.44961
1.44224
1.44117
1.44274
1.44702
1.45118
1.45458
1.45775
1.46083
1.46302
1.46453
1.46711
1.46961
1.47005
1.46872
1.47041
1.47716
1.47943
1.4787
1.47845
1.47674
1.47239
1.46558
1.45471
1.4365
1.41503
1.40541
1.40301
1.40184
1.40265
1.4131
1.43496
1.44452
1.44599
1.44638
1.44598
1.44494
1.44234
1.43507
1.41529
1.37976
1.35835
1.35451
1.35281
1.35114
1.35019
1.35476
1.37069
1.38846
1.39245
1.39172
1.39072
1.38975
1.38815
1.38377
1.375
1.36519
1.35987
1.35801
1.35716
1.35622
1.35465
1.35144
1.34419
1.33282
1.32637
1.32488
1.32539
1.32711
1.32928
1.33118
1.33375
1.33914
1.34553
1.34612
1.34437
1.34222
1.34012
1.33744
1.3319
1.32133
1.30979
1.30387
1.30167
1.30061
1.29927
1.29701
1.29329
1.28898
1.28638
1.28543
1.28498
1.28536
1.28786
1.28986
1.2898
1.28806
1.2846
1.27662
1.26458
1.2586
1.25719
1.25522
1.25278
1.25107
2.02836
2.00737
1.9948
1.98823
1.98571
1.98313
1.9792
1.97425
1.96692
1.95788
1.95064
1.94513
1.94002
1.93408
1.92713
1.92343
1.9219
1.92136
1.91834
1.91216
1.90444
1.89783
1.89192
1.88293
1.86945
1.86006
1.85804
1.85728
1.85748
1.86038
1.86857
1.8778
1.88744
1.89697
1.90151
1.90008
1.89755
1.89934
1.90176
1.90238
1.90132
1.89921
1.89566
1.88961
1.88027
1.86438
1.84133
1.82504
1.82081
1.81839
1.81622
1.81594
1.82546
1.83581
1.83585
1.83375
1.82995
1.82256
1.80832
1.78855
1.77065
1.76205
1.75927
1.75724
1.75432
1.75289
1.75203
1.75065
1.74826
1.74605
1.74331
1.73988
1.73559
1.72979
1.72306
1.71628
1.70619
1.69372
1.68645
1.68461
1.68421
1.68617
1.68994
1.69143
1.69135
1.69127
1.69241
1.69459
1.69608
1.69649
1.69427
1.68785
1.6741
1.66531
1.66458
1.6645
1.66489
1.66605
1.66611
1.66397
1.66172
1.66044
1.65905
1.65573
1.65064
1.64383
1.63568
1.62753
1.62117
1.6174
1.61099
1.59724
1.58537
1.58196
1.58
1.57798
1.5767
1.57933
1.58808
1.59554
1.59479
1.59118
1.58471
1.56681
1.53636
1.52199
1.51964
1.51815
1.51674
1.51569
1.51652
1.52278
1.52494
1.52332
1.52076
1.5175
1.51279
1.5053
1.49532
1.48916
1.48672
1.48547
1.48488
1.48486
1.48418
1.48341
1.48171
1.47808
1.46976
1.45611
1.44417
1.43907
1.43787
1.43858
1.43886
1.43863
1.43948
1.44271
1.44719
1.45311
1.45825
1.46193
1.46661
1.47582
1.48173
1.47976
1.47354
1.47014
1.46769
1.46309
1.45548
1.44462
1.43076
1.41741
1.40968
1.40619
1.40461
1.40569
1.41631
1.43408
1.43831
1.43718
1.4365
1.43554
1.43407
1.43159
1.42644
1.41442
1.39128
1.36448
1.35392
1.3517
1.35
1.34903
1.35343
1.36853
1.38546
1.38872
1.38792
1.38665
1.38472
1.38126
1.3747
1.36447
1.35782
1.35543
1.3544
1.35385
1.35345
1.35274
1.35147
1.34881
1.34198
1.33027
1.32318
1.32168
1.32169
1.32257
1.32282
1.32348
1.32493
1.33014
1.33915
1.34094
1.33986
1.33893
1.33807
1.3363
1.3323
1.32373
1.31034
1.30111
1.29701
1.294
1.28941
1.28311
1.2794
1.27834
1.27835
1.27897
1.28168
1.28641
1.29087
1.29262
1.29139
1.28848
1.28286
1.26931
1.25473
1.25022
1.24863
1.24749
1.24691
2.04057
2.02198
2.0003
1.98551
1.97673
1.97344
1.97052
1.96634
1.96071
1.95169
1.94082
1.93327
1.92924
1.92675
1.9257
1.92701
1.92997
1.92898
1.92492
1.91842
1.9091
1.89819
1.8844
1.86793
1.85327
1.84828
1.84669
1.84571
1.84532
1.84633
1.85078
1.85756
1.86638
1.87933
1.89006
1.89264
1.89122
1.89237
1.89484
1.89432
1.89191
1.88938
1.88626
1.88079
1.8719
1.85861
1.83919
1.82354
1.81929
1.81732
1.81587
1.81643
1.82472
1.83456
1.83638
1.83463
1.83142
1.82336
1.80217
1.77347
1.76076
1.75816
1.757
1.75638
1.75737
1.75684
1.75443
1.75055
1.74503
1.73884
1.73368
1.72837
1.72218
1.71576
1.71064
1.70737
1.7049
1.69976
1.69086
1.68443
1.68306
1.68327
1.68442
1.68512
1.68548
1.68593
1.68664
1.68789
1.6895
1.6902
1.68955
1.68644
1.6777
1.6607
1.65222
1.65185
1.6516
1.65145
1.65211
1.65378
1.65741
1.66115
1.6622
1.66025
1.65661
1.6511
1.64172
1.62942
1.61821
1.60741
1.5947
1.58233
1.57733
1.57575
1.57438
1.57295
1.57277
1.57948
1.59584
1.60149
1.59887
1.59427
1.58743
1.57132
1.54006
1.51943
1.51499
1.51309
1.51153
1.51023
1.5099
1.51425
1.52108
1.52237
1.52036
1.51748
1.51395
1.50639
1.49002
1.47845
1.47688
1.47588
1.47525
1.47647
1.47987
1.4817
1.48334
1.48362
1.48101
1.47386
1.45782
1.43888
1.4303
1.42813
1.42548
1.4221
1.42105
1.42199
1.42724
1.43807
1.44823
1.45559
1.46542
1.47691
1.48026
1.47776
1.46888
1.4603
1.4548
1.44865
1.44083
1.43303
1.42602
1.42086
1.41738
1.41463
1.41297
1.41437
1.42108
1.42784
1.42925
1.42749
1.42594
1.42458
1.42276
1.41947
1.41404
1.4055
1.39324
1.37826
1.36293
1.35575
1.35366
1.35325
1.35852
1.37168
1.38137
1.38274
1.38145
1.37974
1.37766
1.37391
1.36655
1.35476
1.34833
1.34787
1.34792
1.34813
1.3487
1.3497
1.3506
1.35002
1.34763
1.34062
1.32739
1.31788
1.31585
1.31531
1.31453
1.31446
1.31549
1.31781
1.32576
1.33726
1.34156
1.34253
1.34212
1.34016
1.33711
1.3316
1.32054
1.30436
1.29252
1.28535
1.27907
1.27454
1.27271
1.27257
1.27317
1.27455
1.28027
1.28922
1.29534
1.29607
1.29372
1.29025
1.28534
1.27392
1.2553
1.24618
1.24479
1.24419
1.24402
2.0417
2.02971
2.01276
1.99144
1.97513
1.96587
1.96217
1.95892
1.95331
1.94251
1.93081
1.92633
1.92417
1.92262
1.92262
1.92934
1.93407
1.93229
1.92912
1.92383
1.91318
1.89422
1.8694
1.8498
1.84298
1.84004
1.83775
1.83647
1.83594
1.83614
1.83904
1.84471
1.85001
1.85729
1.86903
1.87948
1.88086
1.88114
1.88485
1.8844
1.88074
1.87777
1.8751
1.87062
1.86316
1.85276
1.83861
1.82452
1.81913
1.81723
1.81605
1.81795
1.83022
1.83928
1.83792
1.83438
1.82957
1.81787
1.79026
1.76471
1.75712
1.75563
1.75484
1.75688
1.76056
1.75894
1.75624
1.75206
1.74499
1.73413
1.72275
1.71347
1.70731
1.7044
1.70268
1.70203
1.70069
1.69942
1.69635
1.68896
1.68156
1.68015
1.67974
1.67942
1.67977
1.68025
1.6806
1.68141
1.68296
1.68356
1.68278
1.68091
1.67645
1.66298
1.64377
1.63809
1.63819
1.63849
1.63973
1.64287
1.64881
1.65804
1.66349
1.66249
1.65956
1.65575
1.64922
1.63629
1.61548
1.5933
1.57931
1.57388
1.57173
1.57039
1.56954
1.56929
1.57122
1.58112
1.594
1.59663
1.59364
1.5899
1.58551
1.57341
1.54491
1.51821
1.51036
1.50805
1.50649
1.50523
1.50459
1.50843
1.51943
1.52284
1.52064
1.51734
1.51351
1.50568
1.48901
1.4732
1.46838
1.46697
1.4661
1.46625
1.47273
1.48282
1.48841
1.48932
1.48753
1.48313
1.47296
1.45188
1.42993
1.41811
1.4114
1.40621
1.4045
1.40435
1.40774
1.42063
1.43867
1.4529
1.46532
1.47307
1.47544
1.47409
1.46483
1.44859
1.43689
1.43058
1.42619
1.42376
1.42219
1.42093
1.42078
1.42217
1.42549
1.42754
1.42492
1.42006
1.41855
1.41729
1.41526
1.41332
1.41038
1.40539
1.39871
1.39343
1.39076
1.38691
1.37786
1.36597
1.36114
1.36078
1.36476
1.37061
1.37391
1.37482
1.37388
1.37184
1.36885
1.3643
1.3574
1.34907
1.34252
1.34059
1.34041
1.34047
1.34262
1.34724
1.34904
1.34895
1.34808
1.34557
1.33745
1.32264
1.31269
1.30892
1.30761
1.30752
1.30835
1.30991
1.3152
1.32698
1.33594
1.33813
1.33925
1.34031
1.3382
1.33344
1.3254
1.30967
1.2888
1.27715
1.27373
1.27141
1.26997
1.2699
1.27059
1.27182
1.27661
1.28537
1.29118
1.29225
1.29046
1.28752
1.2843
1.27777
1.26174
1.24603
1.2419
1.24133
1.2412
2.03427
2.02879
2.01938
2.00452
1.98341
1.96572
1.95514
1.94937
1.94283
1.93341
1.92594
1.92266
1.92036
1.91893
1.92221
1.9329
1.93813
1.93769
1.93547
1.9307
1.91799
1.88749
1.85072
1.83707
1.83455
1.83205
1.82934
1.82803
1.82789
1.82932
1.83288
1.83843
1.84248
1.84443
1.84857
1.85705
1.86316
1.8665
1.8707
1.87074
1.86712
1.86411
1.86229
1.85937
1.85398
1.84492
1.83361
1.82541
1.82174
1.81968
1.81844
1.82134
1.82916
1.83076
1.82845
1.82523
1.82024
1.80699
1.78124
1.76332
1.7578
1.75509
1.75412
1.75559
1.75883
1.75831
1.75651
1.75341
1.74523
1.72659
1.70743
1.70078
1.69845
1.69667
1.69555
1.6966
1.70027
1.70068
1.69919
1.69491
1.68428
1.6749
1.67375
1.67332
1.67317
1.67317
1.6737
1.67485
1.67566
1.67589
1.6752
1.67403
1.67135
1.66361
1.64434
1.62781
1.62562
1.62666
1.62844
1.63193
1.63931
1.65349
1.66439
1.66425
1.66162
1.65776
1.65114
1.63764
1.6113
1.58398
1.57323
1.56986
1.5679
1.56637
1.5652
1.56532
1.57266
1.58814
1.59461
1.59304
1.58986
1.58666
1.58245
1.57276
1.54882
1.51927
1.50807
1.50493
1.50322
1.50225
1.50195
1.50469
1.51139
1.51454
1.51306
1.51023
1.50703
1.50162
1.48924
1.47221
1.46304
1.46042
1.45928
1.45866
1.46157
1.47757
1.49049
1.49065
1.48936
1.48689
1.48213
1.46963
1.44111
1.41076
1.39684
1.39289
1.39136
1.39074
1.39229
1.40357
1.42868
1.45223
1.46219
1.46641
1.4686
1.46771
1.4573
1.43316
1.41776
1.41559
1.41532
1.41473
1.41425
1.41663
1.42348
1.43401
1.43924
1.43721
1.43005
1.41957
1.40968
1.40526
1.40204
1.39796
1.39237
1.38764
1.38638
1.38674
1.38868
1.38934
1.38764
1.38223
1.37672
1.37373
1.37169
1.36942
1.36722
1.36628
1.3652
1.36189
1.35712
1.35216
1.34812
1.345
1.34105
1.33568
1.33362
1.33317
1.3332
1.33695
1.34475
1.34779
1.34746
1.34605
1.34264
1.33298
1.31611
1.30507
1.30182
1.3016
1.30228
1.30364
1.30758
1.31778
1.33235
1.33666
1.33603
1.3349
1.33342
1.33009
1.32424
1.31266
1.29098
1.27481
1.27134
1.27109
1.27032
1.26961
1.26947
1.26988
1.27388
1.28365
1.28878
1.28919
1.28797
1.28533
1.28248
1.27865
1.26891
1.25044
1.24071
1.23947
1.2393
2.02455
2.02178
2.01819
2.01079
1.99746
1.97468
1.95336
1.94018
1.93287
1.927
1.92291
1.92042
1.91878
1.91815
1.92174
1.93331
1.94279
1.94183
1.93863
1.93231
1.91664
1.87927
1.84257
1.83048
1.82696
1.82479
1.82257
1.82094
1.8207
1.82348
1.83031
1.8363
1.83725
1.83629
1.83612
1.83792
1.84171
1.84793
1.85356
1.85546
1.85283
1.84764
1.84646
1.84562
1.84266
1.83658
1.82893
1.82492
1.82308
1.82203
1.82425
1.82954
1.82779
1.8241
1.82122
1.818
1.8105
1.79298
1.77422
1.76694
1.7621
1.75745
1.75591
1.75698
1.75955
1.75809
1.75504
1.75079
1.7414
1.72002
1.69993
1.6948
1.69296
1.69127
1.69129
1.69647
1.70151
1.7018
1.70063
1.6981
1.69045
1.67515
1.66675
1.66593
1.66527
1.66483
1.66547
1.66818
1.66844
1.66733
1.66657
1.66579
1.66445
1.66054
1.64901
1.62744
1.61578
1.61568
1.61732
1.62036
1.62782
1.64273
1.65533
1.65666
1.65511
1.65251
1.64774
1.63611
1.61116
1.58283
1.57032
1.56686
1.5652
1.56403
1.56327
1.56409
1.57068
1.58131
1.58718
1.58611
1.58279
1.57938
1.57541
1.56854
1.55311
1.52687
1.50834
1.50354
1.50161
1.50053
1.50045
1.50371
1.50701
1.50778
1.50601
1.50325
1.50003
1.49493
1.48522
1.47178
1.46259
1.45811
1.45608
1.45509
1.45537
1.4631
1.48065
1.49082
1.4911
1.48969
1.4867
1.47919
1.4551
1.41239
1.38997
1.38514
1.38355
1.38264
1.38286
1.39139
1.41594
1.44079
1.45206
1.45675
1.45865
1.4582
1.44812
1.42064
1.40339
1.40263
1.40426
1.40544
1.40751
1.41464
1.43116
1.44615
1.44735
1.44389
1.43642
1.42311
1.40564
1.39271
1.38498
1.37925
1.37656
1.37597
1.37807
1.38328
1.38738
1.39185
1.396
1.39691
1.39389
1.38621
1.37586
1.36718
1.36119
1.35627
1.3526
1.34917
1.34556
1.34261
1.34162
1.34093
1.3389
1.33453
1.3294
1.32792
1.32731
1.32799
1.33336
1.3418
1.3446
1.3439
1.34178
1.3369
1.32526
1.30806
1.29968
1.29764
1.29785
1.29926
1.30217
1.30828
1.32023
1.33068
1.33174
1.33039
1.32844
1.3256
1.32118
1.31395
1.30016
1.28022
1.26907
1.26615
1.2659
1.26618
1.26673
1.26743
1.26949
1.27554
1.28215
1.28507
1.28572
1.28377
1.28077
1.27779
1.27283
1.26031
1.24329
1.23822
1.23762
2.01233
2.01391
2.01257
2.00975
2.00262
1.98736
1.9593
1.93654
1.92632
1.92237
1.91981
1.91765
1.91655
1.91766
1.9275
1.939
1.93907
1.9372
1.93404
1.92832
1.91211
1.87542
1.84143
1.82904
1.82269
1.81942
1.81775
1.81645
1.81641
1.82103
1.82614
1.8291
1.83043
1.82963
1.82782
1.8266
1.82696
1.83038
1.83507
1.83718
1.83627
1.82927
1.82742
1.82828
1.82739
1.82582
1.8243
1.82258
1.82215
1.82645
1.83298
1.83166
1.82618
1.81967
1.81247
1.80471
1.79416
1.77844
1.76982
1.76823
1.76665
1.76367
1.75879
1.75487
1.75107
1.74851
1.74636
1.74255
1.73467
1.71761
1.69971
1.69261
1.68992
1.68798
1.68692
1.69058
1.69963
1.70201
1.7006
1.6984
1.6936
1.67932
1.66151
1.65696
1.65608
1.65528
1.65542
1.65935
1.66099
1.65908
1.65773
1.65727
1.65641
1.65452
1.64886
1.63369
1.61285
1.60569
1.60659
1.6094
1.61634
1.6312
1.64585
1.64882
1.64751
1.64468
1.64039
1.63208
1.61493
1.58885
1.57099
1.56561
1.56363
1.56267
1.56321
1.56964
1.57575
1.57698
1.57761
1.57707
1.57424
1.57067
1.56621
1.56012
1.5512
1.5371
1.5182
1.50563
1.50295
1.50279
1.50354
1.5018
1.4999
1.49893
1.49784
1.49563
1.49215
1.48665
1.47942
1.47142
1.46403
1.45853
1.4556
1.4545
1.45455
1.45874
1.47029
1.48518
1.49099
1.48985
1.48639
1.47953
1.46111
1.4217
1.38964
1.38153
1.37922
1.37811
1.3778
1.38467
1.40786
1.43133
1.43981
1.44203
1.4432
1.44338
1.43668
1.41352
1.39337
1.39172
1.39352
1.39671
1.40211
1.41429
1.43809
1.45076
1.45031
1.44691
1.44072
1.42805
1.40493
1.38084
1.37003
1.36653
1.36505
1.36459
1.36703
1.37746
1.39141
1.40254
1.40778
1.40836
1.40598
1.39824
1.38217
1.36434
1.35253
1.3436
1.33895
1.33772
1.33641
1.33625
1.33735
1.33794
1.33709
1.33423
1.32886
1.32441
1.32318
1.32244
1.32348
1.32862
1.33537
1.33737
1.33711
1.33565
1.33083
1.32015
1.30467
1.29613
1.29407
1.29451
1.29619
1.29931
1.3062
1.31825
1.32592
1.32599
1.32407
1.3212
1.31761
1.31333
1.30618
1.29126
1.2723
1.26482
1.26338
1.26388
1.26526
1.26688
1.26762
1.26866
1.27227
1.27772
1.28147
1.28217
1.27994
1.27677
1.27345
1.26778
1.25417
1.23984
1.23574
1.99409
2.00359
2.00438
2.00186
1.99857
1.99022
1.97016
1.93992
1.92398
1.91923
1.91685
1.91517
1.91437
1.91981
1.932
1.93279
1.92989
1.92666
1.92275
1.91581
1.89995
1.8727
1.84765
1.83207
1.82287
1.81757
1.8148
1.81376
1.81756
1.82386
1.82553
1.82464
1.82377
1.82262
1.82107
1.81864
1.81745
1.818
1.81943
1.81975
1.81769
1.81044
1.80651
1.80847
1.81053
1.81269
1.81472
1.81734
1.82328
1.83388
1.83629
1.83335
1.8278
1.81792
1.80376
1.78717
1.77377
1.76931
1.76801
1.76765
1.76913
1.76845
1.76355
1.75682
1.75002
1.74344
1.73889
1.73456
1.72722
1.71492
1.70127
1.69302
1.68904
1.68678
1.68571
1.69037
1.70236
1.70384
1.7016
1.69908
1.69468
1.68262
1.66224
1.64968
1.64731
1.64624
1.64556
1.64687
1.65221
1.65322
1.65163
1.65048
1.64919
1.64761
1.64502
1.63722
1.61869
1.6019
1.59869
1.60058
1.60568
1.61571
1.62751
1.63472
1.6359
1.63427
1.63045
1.62461
1.61572
1.60148
1.58178
1.56882
1.56496
1.56361
1.5649
1.56949
1.5708
1.56991
1.56823
1.56617
1.56354
1.56012
1.55576
1.55044
1.54562
1.54091
1.53306
1.51807
1.50338
1.49872
1.49793
1.49627
1.49419
1.49225
1.49009
1.4867
1.48165
1.47637
1.47262
1.47028
1.46874
1.46563
1.46008
1.45715
1.45672
1.45951
1.46586
1.47109
1.47497
1.47698
1.47596
1.47124
1.45843
1.43227
1.39907
1.3821
1.37819
1.37658
1.37606
1.3814
1.40046
1.41941
1.42567
1.42682
1.42737
1.42694
1.42227
1.40537
1.38609
1.38321
1.38561
1.38983
1.3974
1.41473
1.43803
1.44611
1.44682
1.4459
1.44143
1.42977
1.40469
1.37298
1.35803
1.35525
1.35412
1.35413
1.35886
1.37393
1.39705
1.41431
1.41911
1.41906
1.41679
1.40921
1.38701
1.35644
1.33904
1.33233
1.32973
1.32867
1.32847
1.33036
1.33412
1.3361
1.33578
1.33418
1.33027
1.3239
1.31964
1.3185
1.31806
1.31978
1.32518
1.33048
1.33105
1.33037
1.32885
1.32469
1.31537
1.30083
1.2918
1.28976
1.2902
1.29192
1.29527
1.30247
1.31357
1.32015
1.32033
1.3185
1.31532
1.3114
1.30705
1.29998
1.28691
1.27069
1.26287
1.26125
1.26178
1.26265
1.26333
1.26355
1.2646
1.2688
1.27473
1.27833
1.27897
1.27715
1.2745
1.27079
1.26307
1.24724
1.23547
1.97918
1.9879
1.99199
1.99041
1.98769
1.98403
1.9755
1.95801
1.93378
1.91983
1.91536
1.91339
1.91647
1.92801
1.92786
1.92534
1.92309
1.92004
1.91348
1.89973
1.88043
1.86432
1.85334
1.84396
1.83226
1.82171
1.8162
1.81433
1.81414
1.81579
1.81768
1.8182
1.81702
1.81559
1.81421
1.81296
1.81103
1.80864
1.8064
1.80358
1.79886
1.79259
1.78897
1.79028
1.79419
1.79874
1.80408
1.8112
1.82418
1.83572
1.83631
1.83361
1.82597
1.81184
1.79039
1.77061
1.76254
1.76003
1.75885
1.76059
1.76905
1.7719
1.76859
1.76377
1.75616
1.74477
1.73242
1.72302
1.71629
1.71054
1.7051
1.69971
1.69387
1.69051
1.6892
1.69045
1.69358
1.69394
1.69215
1.69027
1.68775
1.68172
1.66657
1.64913
1.64025
1.638
1.63712
1.63682
1.64019
1.64646
1.64654
1.64437
1.64247
1.64055
1.6387
1.63541
1.62629
1.60699
1.59487
1.59413
1.59683
1.60164
1.60691
1.61229
1.61807
1.62044
1.61934
1.61613
1.61246
1.60698
1.59702
1.58355
1.57333
1.56949
1.56822
1.5669
1.56542
1.56333
1.55972
1.55406
1.54922
1.5468
1.5459
1.54485
1.54281
1.54127
1.53841
1.53096
1.51438
1.49851
1.49348
1.49201
1.48996
1.48657
1.48104
1.47502
1.47155
1.46972
1.46865
1.4691
1.46951
1.46829
1.4665
1.46403
1.46346
1.46605
1.46577
1.46412
1.46326
1.46245
1.45999
1.45517
1.44687
1.43296
1.41543
1.39703
1.3838
1.37946
1.37865
1.38228
1.39369
1.4052
1.41099
1.4122
1.41189
1.41094
1.40786
1.39951
1.38756
1.38087
1.38117
1.38466
1.39298
1.41025
1.43192
1.43897
1.43962
1.43946
1.43717
1.42735
1.40464
1.37228
1.35249
1.34854
1.34789
1.34871
1.35557
1.379
1.41227
1.42239
1.42224
1.42099
1.41834
1.41065
1.38481
1.34446
1.32722
1.32378
1.3221
1.32122
1.32131
1.32493
1.33063
1.33469
1.33531
1.33447
1.33214
1.32638
1.3184
1.31433
1.31335
1.31325
1.31538
1.32026
1.32448
1.32479
1.32411
1.32263
1.31927
1.31102
1.29719
1.28815
1.28636
1.28681
1.28865
1.29206
1.29858
1.3077
1.3142
1.31549
1.31407
1.31094
1.30716
1.30338
1.29694
1.28343
1.26702
1.2592
1.25761
1.25804
1.2585
1.25859
1.25867
1.2607
1.26659
1.27322
1.27693
1.27696
1.27418
1.27092
1.26684
1.2581
1.24091
1.96734
1.97224
1.97558
1.97552
1.97424
1.9723
1.96985
1.96415
1.95033
1.93108
1.92069
1.91757
1.91784
1.91993
1.92035
1.91817
1.91568
1.91133
1.89983
1.87762
1.86045
1.85588
1.85344
1.84914
1.84369
1.83692
1.82857
1.8199
1.81422
1.81167
1.81107
1.81124
1.81074
1.80981
1.80884
1.80727
1.805
1.80125
1.795
1.78668
1.7806
1.77813
1.77652
1.7769
1.78045
1.78612
1.79377
1.80572
1.82075
1.82739
1.82763
1.82579
1.81765
1.79918
1.77602
1.76083
1.75561
1.75349
1.75206
1.75515
1.76917
1.77473
1.77294
1.76956
1.76304
1.74838
1.72504
1.71072
1.70714
1.70569
1.70518
1.70281
1.6995
1.69742
1.69591
1.69307
1.69051
1.68865
1.6867
1.68388
1.68017
1.67499
1.66582
1.65165
1.63921
1.63197
1.62965
1.62887
1.62867
1.63243
1.63924
1.63966
1.6373
1.63527
1.63347
1.63212
1.62898
1.6191
1.59923
1.58697
1.58627
1.58736
1.58902
1.59073
1.59373
1.6003
1.60845
1.60961
1.60811
1.60669
1.60484
1.60045
1.59086
1.57723
1.5665
1.56202
1.55936
1.55559
1.54917
1.54191
1.53797
1.53579
1.53515
1.53863
1.54158
1.54034
1.53795
1.53443
1.52607
1.50897
1.49339
1.48707
1.48291
1.47729
1.4714
1.46812
1.46616
1.46444
1.46299
1.46245
1.46397
1.46702
1.47082
1.47242
1.47197
1.46996
1.46511
1.45791
1.4533
1.44977
1.44496
1.43793
1.43029
1.42411
1.41841
1.41147
1.40254
1.39326
1.38881
1.388
1.38884
1.39148
1.395
1.39737
1.39707
1.39543
1.39287
1.38918
1.3851
1.38224
1.38158
1.38363
1.39022
1.40496
1.42359
1.42879
1.42917
1.4292
1.42799
1.42137
1.40312
1.37344
1.35184
1.34666
1.34583
1.3467
1.35783
1.38884
1.40911
1.41443
1.41631
1.41712
1.41505
1.40746
1.38419
1.34174
1.32031
1.31698
1.31569
1.31478
1.31498
1.32039
1.32886
1.3339
1.3353
1.33506
1.33372
1.32956
1.32034
1.3115
1.30888
1.30805
1.30805
1.30953
1.31351
1.31809
1.31907
1.31863
1.31736
1.31467
1.30781
1.29516
1.2851
1.28268
1.28305
1.28515
1.28868
1.29386
1.30079
1.30752
1.31148
1.31193
1.30922
1.30558
1.30104
1.29327
1.27864
1.26185
1.25404
1.25286
1.25339
1.25367
1.25356
1.25413
1.25811
1.26604
1.27313
1.2759
1.27439
1.27134
1.26829
1.26352
1.2486
1.95735
1.95799
1.95814
1.95802
1.95887
1.96049
1.96066
1.95878
1.9543
1.94612
1.94011
1.93361
1.92529
1.91718
1.91194
1.91006
1.90689
1.89876
1.8794
1.85822
1.85084
1.84795
1.84547
1.84556
1.84808
1.84702
1.84247
1.83421
1.82101
1.81027
1.80605
1.80501
1.80417
1.80279
1.80123
1.79947
1.79715
1.79333
1.78462
1.77256
1.76885
1.76789
1.767
1.76753
1.77072
1.77627
1.78475
1.79729
1.80987
1.81314
1.81305
1.8103
1.79993
1.78163
1.76532
1.75547
1.7503
1.74833
1.74781
1.75304
1.7681
1.77613
1.77488
1.77238
1.76587
1.74648
1.7177
1.70571
1.70284
1.70061
1.69868
1.69904
1.7032
1.70395
1.70112
1.69612
1.68961
1.68362
1.67961
1.67585
1.67137
1.66613
1.6602
1.65211
1.64169
1.63156
1.62441
1.62191
1.62102
1.62086
1.62578
1.6338
1.63442
1.63257
1.63056
1.62863
1.62667
1.62296
1.61086
1.5879
1.57533
1.57405
1.57384
1.57379
1.5746
1.57839
1.58826
1.60119
1.60694
1.61006
1.61177
1.6107
1.60437
1.58951
1.56997
1.55708
1.55072
1.54449
1.53647
1.53057
1.52774
1.5259
1.52644
1.53438
1.5408
1.5401
1.53827
1.53625
1.53225
1.52013
1.49703
1.48022
1.47267
1.46793
1.46511
1.46299
1.46102
1.45924
1.45816
1.45883
1.46286
1.47093
1.47595
1.47628
1.475
1.47217
1.46585
1.45555
1.44517
1.43735
1.42934
1.42074
1.41572
1.41388
1.41285
1.41245
1.41153
1.40991
1.40448
1.39546
1.38682
1.38241
1.38184
1.38226
1.38145
1.37848
1.37759
1.37833
1.37943
1.37971
1.38167
1.38625
1.39145
1.39929
1.41011
1.41428
1.41481
1.41466
1.41395
1.41004
1.39857
1.37869
1.3588
1.35086
1.34953
1.35058
1.3591
1.38288
1.40221
1.40497
1.40553
1.40661
1.40535
1.39911
1.38244
1.34961
1.32099
1.31345
1.31193
1.31113
1.3113
1.31666
1.32558
1.33228
1.33466
1.33418
1.33311
1.33132
1.3256
1.31356
1.30407
1.30202
1.3011
1.30065
1.30172
1.30617
1.31231
1.31492
1.31489
1.31416
1.3119
1.30551
1.29297
1.28222
1.27994
1.28063
1.28261
1.28513
1.28874
1.29434
1.30188
1.30777
1.30839
1.30525
1.30172
1.29755
1.28917
1.27285
1.25598
1.24933
1.24867
1.24882
1.24839
1.24813
1.24973
1.25609
1.26626
1.27375
1.27516
1.27275
1.26962
1.26613
1.25504
1.94482
1.94413
1.94368
1.94339
1.94361
1.94582
1.94914
1.95073
1.95154
1.9531
1.95207
1.94564
1.93408
1.9194
1.90756
1.89988
1.8916
1.87663
1.85667
1.84753
1.84503
1.84309
1.84224
1.84472
1.85132
1.85225
1.84895
1.84366
1.8327
1.81482
1.80309
1.79853
1.79717
1.796
1.79449
1.79273
1.79048
1.78603
1.77475
1.76288
1.7605
1.75947
1.75838
1.75874
1.76277
1.76883
1.77753
1.78893
1.79435
1.7945
1.79251
1.78591
1.77404
1.76273
1.75549
1.75
1.74597
1.74385
1.74431
1.75453
1.77357
1.77754
1.77505
1.77019
1.76205
1.74284
1.7149
1.70341
1.70079
1.69888
1.69744
1.69844
1.70438
1.70506
1.70197
1.6971
1.68926
1.6801
1.67342
1.66854
1.66304
1.6565
1.65171
1.64861
1.64374
1.63551
1.62457
1.6172
1.61526
1.61464
1.61507
1.61988
1.62898
1.63168
1.62962
1.62728
1.62518
1.6226
1.6172
1.60021
1.57311
1.56158
1.56
1.55948
1.55943
1.56038
1.56555
1.58211
1.60557
1.61673
1.61913
1.61806
1.61327
1.60147
1.57778
1.5529
1.53903
1.53068
1.52396
1.5203
1.51828
1.51712
1.51941
1.53189
1.54392
1.54527
1.54343
1.5408
1.53625
1.52465
1.49794
1.47211
1.46446
1.46193
1.46003
1.45821
1.45639
1.45488
1.45457
1.45868
1.47214
1.48028
1.47983
1.47818
1.47631
1.47338
1.46698
1.45409
1.43707
1.42262
1.41361
1.40956
1.40787
1.40704
1.40846
1.41291
1.41813
1.41853
1.41529
1.40722
1.3934
1.37969
1.3715
1.36711
1.36426
1.36314
1.36438
1.369
1.37354
1.37733
1.38306
1.39045
1.39316
1.39294
1.39416
1.39507
1.39617
1.3972
1.39703
1.39541
1.3903
1.38099
1.37033
1.36254
1.35945
1.35979
1.36464
1.37662
1.38892
1.39283
1.39287
1.39297
1.3915
1.3864
1.3768
1.35913
1.33137
1.31342
1.31033
1.30951
1.3096
1.31414
1.32413
1.33232
1.33617
1.33608
1.33511
1.33357
1.3293
1.31789
1.3025
1.29554
1.29426
1.29343
1.2932
1.29455
1.29948
1.30751
1.31211
1.31226
1.31158
1.30972
1.30459
1.29293
1.28005
1.2765
1.27713
1.27866
1.28063
1.2833
1.28781
1.29577
1.30373
1.30465
1.30204
1.29897
1.29443
1.28436
1.26572
1.24988
1.24443
1.24336
1.24297
1.24247
1.24254
1.24613
1.25662
1.2701
1.27564
1.27477
1.27166
1.26934
1.26056
1.93727
1.93204
1.93088
1.92942
1.92831
1.92871
1.93463
1.94527
1.95566
1.95957
1.95713
1.95198
1.94403
1.92948
1.90895
1.88807
1.86851
1.8507
1.84251
1.84021
1.83847
1.83725
1.83783
1.84587
1.85389
1.85326
1.85036
1.84674
1.84042
1.8262
1.80708
1.7966
1.79183
1.79039
1.78841
1.78599
1.78314
1.77746
1.76503
1.75637
1.75483
1.75418
1.75392
1.75435
1.75722
1.7643
1.77378
1.77841
1.7784
1.77627
1.76957
1.7556
1.74461
1.74275
1.74251
1.74154
1.74053
1.74087
1.7453
1.75789
1.76777
1.76745
1.76445
1.75989
1.75252
1.737
1.7142
1.70316
1.69994
1.69788
1.6971
1.70158
1.70747
1.70593
1.70226
1.69772
1.68972
1.67633
1.6651
1.65916
1.65441
1.64899
1.6453
1.64366
1.64234
1.63891
1.63067
1.61859
1.61153
1.61026
1.60932
1.60885
1.61203
1.62086
1.62453
1.62267
1.62141
1.62006
1.61708
1.6077
1.58136
1.55524
1.54759
1.54603
1.54557
1.54595
1.54895
1.56157
1.59216
1.61775
1.62126
1.62019
1.61622
1.60725
1.58496
1.54993
1.52757
1.51951
1.51541
1.51292
1.51128
1.51084
1.5158
1.52815
1.53704
1.53921
1.53853
1.53633
1.53292
1.52381
1.49895
1.46957
1.45974
1.45749
1.45582
1.45436
1.45332
1.45275
1.45405
1.46191
1.47106
1.47471
1.47394
1.47236
1.47062
1.46824
1.46279
1.44845
1.42552
1.41053
1.40548
1.40306
1.40149
1.40065
1.4037
1.41448
1.42171
1.42129
1.41894
1.41423
1.40302
1.38194
1.362
1.35305
1.35032
1.3497
1.35096
1.35831
1.37055
1.38027
1.38561
1.38916