/*--------------------------------*- C++ -*----------------------------------*\
  =========                 |
  \\      /  F ield         | OpenFOAM: The Open Source CFD Toolbox
   \\    /   O peration     | Website:  https://openfoam.org
    \\  /    A nd           | Version:  7
     \\/     M anipulation  |
\*---------------------------------------------------------------------------*/
FoamFile
{
    version     2.0;
    format      ascii;
    class       volScalarField;
    location    "3.6";
    object      T;
}
// * * * * * * * * * * * * * * * * * * * * * * * * * * * * * * * * * * * * * //

dimensions      [0 0 0 1 0 0 0];

internalField   nonuniform List<scalar> 
16192
(
1.55015
1.54984
1.55001
1.55097
1.55217
1.55221
1.55122
1.54999
1.54807
1.54501
1.54006
1.53459
1.53166
1.5304
1.52989
1.52959
1.53012
1.53248
1.53679
1.53917
1.53876
1.53741
1.53543
1.53229
1.52699
1.5202
1.51621
1.5149
1.51428
1.51412
1.51423
1.51473
1.51573
1.5164
1.51603
1.51449
1.51187
1.50873
1.50503
1.50192
1.50049
1.50047
1.5014
1.50271
1.50418
1.50513
1.50487
1.50364
1.50086
1.4957
1.48811
1.48205
1.4798
1.4788
1.47855
1.47958
1.48413
1.49152
1.49549
1.49538
1.49418
1.49198
1.48717
1.47737
1.46865
1.46605
1.4652
1.46483
1.46478
1.46606
1.47094
1.47944
1.48451
1.48458
1.48327
1.48081
1.47579
1.46556
1.45648
1.45386
1.45304
1.45245
1.45195
1.45193
1.4529
1.45479
1.45746
1.46096
1.46351
1.46348
1.46167
1.45761
1.45031
1.4402
1.43688
1.43776
1.44785
1.47894
1.54339
1.62614
1.69147
1.73774
1.7569
1.75939
1.75723
1.75007
1.74207
1.73713
1.73644
1.73772
1.74452
1.75451
1.75745
1.75671
1.75396
1.74671
1.73749
1.73436
1.73396
1.73599
1.74249
1.74631
1.74558
1.74326
1.7389
1.73567
1.73463
1.73397
1.73321
1.73261
1.73221
1.73193
1.73221
1.73426
1.73807
1.73999
1.73991
1.73913
1.73653
1.72907
1.72032
1.71718
1.71614
1.71551
1.71528
1.71609
1.71958
1.7248
1.72641
1.72632
1.72586
1.72351
1.71855
1.7149
1.71399
1.71392
1.71433
1.7169
1.72113
1.72204
1.72156
1.72
1.7152
1.7089
1.70602
1.70513
1.70487
1.70537
1.70841
1.71099
1.71087
1.71042
1.7081
1.70314
1.69971
1.69907
1.699
1.69898
1.69985
1.70332
1.70781
1.70843
1.70806
1.70697
1.70315
1.6962
1.69154
1.69037
1.69
1.68987
1.68983
1.69014
1.69224
1.69463
1.69464
1.69427
1.69361
1.69192
1.68741
1.68087
1.67746
1.67623
1.67602
1.67622
1.67806
1.68327
1.68996
1.69172
1.69134
1.69025
1.6868
1.67882
1.67155
1.66901
1.66822
1.66807
1.6694
1.67522
1.68002
1.68036
1.67965
1.67821
1.67514
1.67105
1.66744
1.66516
1.66382
1.66302
1.66255
1.6623
1.66274
1.66416
1.66521
1.66495
1.66464
1.66411
1.66304
1.66129
1.65895
1.65641
1.65345
1.65003
1.64856
1.64857
1.65033
1.65335
1.65706
1.65827
1.65777
1.65685
1.65535
1.65223
1.64686
1.54582
1.54512
1.5446
1.54443
1.545
1.54678
1.54781
1.54762
1.54702
1.54619
1.54457
1.54072
1.53359
1.52808
1.526
1.52536
1.52479
1.52471
1.5262
1.53077
1.53483
1.53514
1.53457
1.53371
1.53211
1.52831
1.52114
1.51438
1.51152
1.51033
1.50918
1.508
1.50735
1.50776
1.50972
1.51106
1.51048
1.50971
1.50868
1.50702
1.50477
1.5023
1.50035
1.49919
1.49881
1.49889
1.49885
1.49818
1.49709
1.495
1.49136
1.48591
1.48042
1.47816
1.47761
1.47808
1.48
1.48332
1.48711
1.48994
1.49042
1.48944
1.48678
1.48173
1.47314
1.4657
1.46339
1.46262
1.4625
1.46307
1.46505
1.46912
1.47527
1.47961
1.48001
1.47888
1.47636
1.47134
1.4616
1.45328
1.45116
1.45051
1.45015
1.45022
1.45108
1.45207
1.45273
1.45369
1.45587
1.45824
1.45849
1.457
1.45363
1.44726
1.43864
1.43444
1.43385
1.43539
1.44784
1.48817
1.55582
1.63602
1.69834
1.73766
1.7494
1.75091
1.74991
1.7433
1.7346
1.73225
1.73279
1.73785
1.7485
1.75369
1.75329
1.75141
1.74518
1.73524
1.731
1.73051
1.73217
1.73806
1.74256
1.74204
1.73971
1.73596
1.73289
1.73115
1.72988
1.72943
1.72941
1.7294
1.72921
1.72923
1.73042
1.73377
1.73612
1.73621
1.73536
1.73253
1.72527
1.71706
1.71379
1.71269
1.71211
1.71184
1.71262
1.71635
1.7216
1.72342
1.72348
1.7232
1.72102
1.71609
1.71167
1.70998
1.70983
1.71033
1.7133
1.7178
1.71892
1.7183
1.7166
1.71184
1.70515
1.70221
1.70164
1.70155
1.70227
1.70574
1.70882
1.70869
1.70759
1.7047
1.69931
1.69607
1.69544
1.69545
1.69546
1.69623
1.69982
1.70509
1.70637
1.70549
1.70365
1.69935
1.69209
1.68771
1.68701
1.68682
1.68664
1.68669
1.68756
1.6897
1.69098
1.69076
1.69052
1.68989
1.68795
1.6837
1.67783
1.6747
1.67408
1.67408
1.67515
1.67748
1.68135
1.68572
1.68712
1.68682
1.68498
1.68068
1.67358
1.66781
1.6665
1.66641
1.66751
1.67067
1.6753
1.67721
1.67674
1.67518
1.67196
1.66664
1.66288
1.66144
1.66103
1.66113
1.66239
1.66387
1.66452
1.66414
1.66239
1.66055
1.65928
1.65791
1.65633
1.65511
1.65446
1.65414
1.65358
1.65184
1.64968
1.64908
1.64943
1.65035
1.65152
1.65329
1.65406
1.65362
1.65255
1.65008
1.64433
1.5428
1.54067
1.53983
1.5393
1.53907
1.53997
1.5433
1.5457
1.54635
1.54618
1.5452
1.54343
1.53918
1.53045
1.52359
1.5212
1.52037
1.51966
1.51935
1.52071
1.52633
1.5323
1.5334
1.53361
1.53305
1.53148
1.52794
1.51973
1.51058
1.50633
1.5041
1.50241
1.5013
1.50077
1.50127
1.50417
1.50737
1.50835
1.50919
1.50931
1.50845
1.5061
1.50144
1.49708
1.49501
1.49386
1.49272
1.49181
1.49177
1.49191
1.49094
1.4892
1.48595
1.48162
1.47882
1.478
1.47814
1.47888
1.47979
1.48127
1.48341
1.48429
1.48372
1.48173
1.478
1.47146
1.46429
1.4616
1.461
1.4612
1.46211
1.46359
1.46613
1.47071
1.47476
1.47519
1.47418
1.47196
1.46756
1.45895
1.45129
1.44944
1.44899
1.44914
1.44984
1.44998
1.44961
1.44921
1.44927
1.45046
1.45279
1.45344
1.4524
1.44985
1.44529
1.43806
1.43311
1.4322
1.43226
1.43584
1.45229
1.49846
1.56676
1.64345
1.69582
1.72937
1.74083
1.74203
1.74098
1.73378
1.72992
1.73029
1.7336
1.7433
1.75016
1.75019
1.7492
1.74413
1.73357
1.72704
1.72635
1.72764
1.7329
1.73793
1.73777
1.73587
1.73325
1.73083
1.72897
1.72748
1.72654
1.72614
1.72576
1.72519
1.72519
1.72685
1.73032
1.7319
1.73226
1.7316
1.72873
1.72197
1.71403
1.71015
1.70889
1.7085
1.70848
1.70975
1.71437
1.72043
1.72202
1.72188
1.72106
1.71766
1.71142
1.70727
1.70603
1.70602
1.70669
1.70966
1.71414
1.71551
1.71496
1.71358
1.7093
1.70275
1.69944
1.69896
1.69903
1.69992
1.70239
1.70475
1.70486
1.70389
1.70118
1.69593
1.69279
1.69241
1.6925
1.69276
1.69395
1.69728
1.70147
1.70292
1.70208
1.69972
1.69533
1.68892
1.6847
1.68367
1.68347
1.68326
1.68318
1.68378
1.68585
1.68693
1.68672
1.68655
1.68615
1.68495
1.6817
1.67676
1.67405
1.67361
1.67353
1.67334
1.67372
1.67595
1.67954
1.6807
1.68037
1.67927
1.67681
1.67216
1.66778
1.66648
1.66652
1.66764
1.6689
1.67056
1.67129
1.67056
1.66811
1.66408
1.66101
1.66019
1.6602
1.66165
1.6641
1.66478
1.66441
1.66256
1.65869
1.65478
1.6523
1.65096
1.65046
1.65045
1.65116
1.6524
1.65305
1.65309
1.65252
1.65024
1.64768
1.64707
1.64682
1.64721
1.64823
1.64823
1.64768
1.64646
1.64317
1.54233
1.53773
1.53559
1.53488
1.53456
1.53467
1.53706
1.54324
1.54604
1.54548
1.54427
1.54296
1.54096
1.53609
1.52643
1.51893
1.51629
1.51539
1.51487
1.5147
1.5167
1.52437
1.53206
1.53311
1.53268
1.53157
1.52974
1.52532
1.51489
1.50397
1.49966
1.49781
1.49663
1.49588
1.49549
1.49643
1.5013
1.50707
1.5092
1.50931
1.50873
1.50754
1.50451
1.49792
1.49163
1.48873
1.48728
1.48643
1.48604
1.48669
1.48829
1.48822
1.48735
1.48589
1.48315
1.47942
1.47675
1.47565
1.47501
1.47462
1.47503
1.47708
1.47903
1.47891
1.47785
1.47561
1.47091
1.46413
1.46051
1.45974
1.4598
1.46005
1.4604
1.46182
1.46594
1.47024
1.4707
1.46989
1.46818
1.46464
1.45739
1.4503
1.44846
1.44822
1.44825
1.44754
1.44658
1.44564
1.44488
1.4445
1.44515
1.44761
1.44895
1.44834
1.44673
1.4438
1.4386
1.43308
1.43105
1.43078
1.4317
1.43667
1.45388
1.5013
1.57413
1.64601
1.68923
1.71966
1.73338
1.73575
1.73209
1.72703
1.72718
1.73062
1.74039
1.74802
1.74795
1.74655
1.74101
1.72968
1.72273
1.72215
1.72302
1.72701
1.73229
1.7332
1.73253
1.73198
1.73064
1.7281
1.72486
1.72322
1.72263
1.72213
1.72175
1.72216
1.72443
1.72714
1.72773
1.72802
1.72719
1.72429
1.71827
1.71046
1.70653
1.70567
1.7055
1.70599
1.7082
1.7128
1.71759
1.71875
1.71839
1.71703
1.71365
1.70809
1.70377
1.70251
1.7025
1.70288
1.70547
1.71032
1.71211
1.71161
1.71071
1.70759
1.7017
1.69721
1.69623
1.69613
1.6964
1.6983
1.7007
1.70096
1.70017
1.69802
1.69371
1.69049
1.69019
1.69035
1.69096
1.69227
1.69459
1.69747
1.69846
1.69781
1.69567
1.69168
1.68557
1.68133
1.68016
1.67982
1.67956
1.67939
1.68004
1.6823
1.68384
1.68451
1.68461
1.68448
1.68387
1.68111
1.67579
1.67149
1.66967
1.66864
1.66796
1.66785
1.66923
1.67315
1.67591
1.67636
1.67633
1.67577
1.67265
1.66758
1.66502
1.66426
1.66354
1.66324
1.66393
1.6642
1.66335
1.66222
1.66142
1.66097
1.66155
1.66329
1.66401
1.66368
1.66239
1.65918
1.65397
1.6496
1.64778
1.64714
1.64695
1.64745
1.6503
1.65343
1.65498
1.65529
1.65447
1.65152
1.64613
1.6428
1.64171
1.64118
1.64103
1.64171
1.642
1.6416
1.64075
1.54223
1.5374
1.53308
1.53134
1.53094
1.53091
1.53178
1.53549
1.54119
1.54313
1.54244
1.5413
1.54002
1.5378
1.53222
1.52173
1.51448
1.51227
1.51157
1.51128
1.51167
1.51529
1.52384
1.5311
1.53207
1.53088
1.52887
1.52586
1.51937
1.50733
1.4981
1.4948
1.49321
1.49242
1.49202
1.49228
1.49567
1.50366
1.50839
1.50863
1.5081
1.50709
1.50503
1.49966
1.49046
1.48471
1.48294
1.48213
1.48151
1.48134
1.48291
1.48581
1.48698
1.48705
1.48587
1.48285
1.47712
1.47225
1.47047
1.46961
1.46907
1.46928
1.47185
1.47504
1.47547
1.47499
1.4736
1.47026
1.46387
1.45873
1.45713
1.45665
1.45623
1.45622
1.45743
1.46182
1.46628
1.4668
1.46631
1.46509
1.4623
1.4562
1.44928
1.44672
1.4458
1.44488
1.44362
1.44213
1.44104
1.4403
1.43986
1.44047
1.44321
1.44501
1.44482
1.44407
1.44253
1.4389
1.4329
1.4292
1.4281
1.42785
1.42856
1.4343
1.45521
1.50358
1.57599
1.64199
1.68622
1.71856
1.72949
1.72742
1.72289
1.72354
1.72725
1.73667
1.74487
1.74476
1.7422
1.73679
1.72662
1.71922
1.71842
1.71865
1.72126
1.72705
1.73027
1.73021
1.72993
1.72889
1.72565
1.72139
1.71982
1.71926
1.71878
1.71881
1.71949
1.72132
1.72297
1.72326
1.72345
1.72279
1.72031
1.71495
1.70778
1.70402
1.70333
1.70338
1.70433
1.70661
1.71054
1.71447
1.71524
1.71484
1.71349
1.71008
1.70437
1.69977
1.69809
1.698
1.69827
1.70098
1.70683
1.71004
1.70998
1.70929
1.70594
1.69895
1.69387
1.69261
1.69246
1.69255
1.69408
1.69661
1.6971
1.69681
1.69552
1.69215
1.68887
1.68847
1.68866
1.68886
1.68924
1.69058
1.69284
1.69381
1.69327
1.6914
1.68798
1.68246
1.67832
1.6774
1.67712
1.67705
1.67729
1.67879
1.68225
1.68483
1.68501
1.68485
1.6844
1.68284
1.67808
1.67034
1.66507
1.66314
1.6624
1.66212
1.6624
1.66546
1.67271
1.67653
1.6768
1.67684
1.6755
1.67051
1.66327
1.65892
1.65724
1.65646
1.6563
1.65728
1.65901
1.66102
1.66257
1.66328
1.66331
1.66296
1.66167
1.66012
1.65819
1.65479
1.6505
1.64733
1.6458
1.6454
1.6453
1.64673
1.65133
1.65447
1.65457
1.65403
1.65287
1.65024
1.64444
1.63777
1.63518
1.63442
1.63409
1.63425
1.63608
1.63775
1.63784
1.54068
1.538
1.53334
1.52952
1.52815
1.52788
1.52826
1.5294
1.53206
1.53649
1.53922
1.53904
1.53798
1.53649
1.53394
1.52807
1.51795
1.51135
1.50966
1.50902
1.50904
1.51073
1.51487
1.52034
1.52513
1.52695
1.52634
1.52412
1.51995
1.51254
1.50167
1.49432
1.49192
1.49074
1.49009
1.49017
1.49234
1.4969
1.50214
1.50482
1.50507
1.50439
1.50275
1.49889
1.49178
1.48403
1.48043
1.47891
1.47816
1.47785
1.47885
1.48338
1.48674
1.48694
1.48589
1.48377
1.47911
1.47126
1.4665
1.4651
1.46447
1.4641
1.46477
1.46898
1.47316
1.47367
1.47341
1.47216
1.469
1.46187
1.45515
1.45304
1.45247
1.45195
1.45184
1.45334
1.4589
1.46366
1.46415
1.46398
1.46293
1.46037
1.45435
1.4467
1.44326
1.4419
1.44053
1.43892
1.43762
1.43677
1.4361
1.4358
1.43706
1.44094
1.44301
1.44336
1.44294
1.44157
1.43785
1.43058
1.42541
1.42416
1.42352
1.42348
1.42525
1.4342
1.45814
1.50759
1.57887
1.64092
1.68913
1.71795
1.72062
1.71741
1.71852
1.7218
1.73115
1.73885
1.73927
1.73716
1.73281
1.72368
1.7163
1.71518
1.71534
1.71803
1.72412
1.72723
1.72728
1.72708
1.72572
1.72202
1.71803
1.71645
1.71584
1.71517
1.715
1.71525
1.71694
1.71892
1.71935
1.71949
1.71907
1.71702
1.71219
1.70575
1.70207
1.70147
1.70157
1.70255
1.70425
1.70702
1.71043
1.71168
1.71123
1.70958
1.70593
1.69976
1.69551
1.69438
1.69438
1.69502
1.69844
1.70521
1.70836
1.7078
1.70645
1.70262
1.6953
1.69023
1.68904
1.68893
1.68901
1.69071
1.69395
1.69442
1.69433
1.69351
1.6906
1.68697
1.68609
1.68592
1.68565
1.68549
1.68604
1.68777
1.68877
1.68847
1.68721
1.68479
1.68071
1.677
1.67587
1.67562
1.67569
1.67687
1.6788
1.68101
1.68259
1.68276
1.6825
1.68138
1.67838
1.67161
1.66358
1.65993
1.65881
1.65871
1.65886
1.6604
1.66529
1.67251
1.67581
1.67549
1.67431
1.67148
1.66465
1.6569
1.65387
1.65302
1.65282
1.65362
1.65833
1.66333
1.66432
1.66396
1.66321
1.66125
1.6581
1.65512
1.65259
1.65034
1.64826
1.64657
1.64556
1.64511
1.64536
1.64727
1.64954
1.65055
1.65081
1.65057
1.64985
1.64779
1.64331
1.63661
1.63182
1.63022
1.62999
1.6301
1.63164
1.6362
1.63808
1.53829
1.53714
1.5349
1.53118
1.52747
1.52583
1.52534
1.5253
1.52569
1.52735
1.53115
1.53475
1.53519
1.53432
1.53287
1.53053
1.5258
1.51729
1.51026
1.50825
1.50778
1.50854
1.5105
1.51248
1.51465
1.51762
1.51982
1.51977
1.51792
1.51378
1.50736
1.49925
1.49325
1.49072
1.48969
1.48957
1.49111
1.49392
1.49563
1.49696
1.49826
1.49858
1.49796
1.4961
1.49189
1.4861
1.48063
1.47778
1.4766
1.4761
1.47672
1.48054
1.48514
1.48547
1.48424
1.48239
1.47917
1.47259
1.46478
1.46165
1.46078
1.46047
1.46038
1.46236
1.46877
1.4729
1.47276
1.47179
1.46996
1.46586
1.45741
1.45049
1.44853
1.44799
1.44759
1.44768
1.4505
1.45826
1.46267
1.46278
1.46209
1.46052
1.4572
1.44972
1.44185
1.43884
1.43739
1.43593
1.43451
1.4336
1.43301
1.43261
1.43317
1.43693
1.44216
1.44316
1.44255
1.44123
1.43908
1.43427
1.42583
1.42107
1.41981
1.41942
1.41897
1.42045
1.42708
1.43817
1.46135
1.51213
1.57923
1.64175
1.69038
1.71195
1.7091
1.71137
1.71547
1.72298
1.73158
1.73321
1.73173
1.72729
1.7191
1.71396
1.71321
1.71396
1.71708
1.72175
1.72371
1.72389
1.72382
1.72261
1.71898
1.71449
1.71187
1.71071
1.71034
1.71034
1.71083
1.71304
1.71562
1.71619
1.71619
1.71556
1.71369
1.70964
1.70389
1.70022
1.69969
1.69978
1.7004
1.70167
1.70396
1.7065
1.70686
1.70667
1.7054
1.70212
1.69654
1.69244
1.69145
1.69144
1.69189
1.69502
1.70145
1.70512
1.70467
1.7031
1.69926
1.69206
1.68691
1.6858
1.68573
1.68575
1.68743
1.69128
1.69228
1.6922
1.69151
1.68839
1.68413
1.68245
1.68192
1.68137
1.68094
1.68115
1.68281
1.68405
1.68394
1.68345
1.68223
1.67921
1.67615
1.67511
1.67491
1.67519
1.67601
1.67692
1.67794
1.67865
1.67862
1.67808
1.67606
1.67206
1.66588
1.65904
1.65644
1.65624
1.65631
1.65749
1.65994
1.66398
1.6691
1.67138
1.67109
1.66944
1.66586
1.65939
1.6531
1.65135
1.65118
1.65198
1.65506
1.6599
1.66195
1.66159
1.66049
1.65829
1.65425
1.65018
1.64817
1.64693
1.6463
1.64602
1.64569
1.64566
1.64614
1.64661
1.64616
1.64605
1.64597
1.6456
1.64484
1.64334
1.6407
1.63707
1.63216
1.62869
1.6282
1.62838
1.62979
1.63435
1.63922
1.5356
1.53513
1.53436
1.53291
1.53016
1.52597
1.52284
1.52152
1.5212
1.52125
1.52231
1.52551
1.52987
1.53121
1.5306
1.52977
1.52825
1.525
1.51868
1.51135
1.50811
1.50742
1.50752
1.50784
1.50794
1.50841
1.51001
1.51219
1.51264
1.51144
1.5084
1.5043
1.49965
1.49566
1.49328
1.49212
1.49223
1.49274
1.49214
1.49141
1.49116
1.49106
1.49072
1.49013
1.489
1.48656
1.48343
1.47983
1.47701
1.47592
1.47605
1.47761
1.47954
1.48056
1.48035
1.47923
1.47713
1.47294
1.46629
1.46083
1.4589
1.45816
1.45795
1.4587
1.46242
1.46819
1.47068
1.47019
1.46864
1.46602
1.46089
1.452
1.4461
1.44448
1.44405
1.4438
1.44452
1.44949
1.4584
1.46137
1.46084
1.45941
1.45718
1.45224
1.44281
1.43611
1.43413
1.43299
1.43191
1.43116
1.43065
1.43038
1.43103
1.43387
1.43771
1.43956
1.43962
1.43892
1.43757
1.43483
1.4289
1.4207
1.41683
1.41603
1.41567
1.41558
1.41746
1.42541
1.43141
1.43872
1.46205
1.51235
1.57827
1.64023
1.6852
1.69887
1.70301
1.70805
1.71808
1.72648
1.72722
1.72599
1.72213
1.71619
1.71267
1.71183
1.71248
1.71545
1.72027
1.72223
1.72205
1.72152
1.71976
1.71481
1.70883
1.70712
1.70683
1.70669
1.70685
1.70756
1.70962
1.71233
1.71309
1.71293
1.71233
1.71091
1.70757
1.7021
1.69778
1.69706
1.69711
1.69726
1.69791
1.70007
1.70236
1.7025
1.70249
1.70173
1.69928
1.69463
1.68999
1.68859
1.6885
1.68894
1.69139
1.69716
1.70126
1.70109
1.69978
1.69629
1.68937
1.68402
1.68303
1.683
1.68328
1.68534
1.68939
1.69064
1.69021
1.68864
1.68446
1.67996
1.67821
1.67746
1.67683
1.67642
1.67674
1.67896
1.68085
1.68105
1.68108
1.68082
1.67892
1.67569
1.67415
1.67381
1.67349
1.67322
1.67318
1.67323
1.67318
1.6727
1.67161
1.66986
1.66718
1.66279
1.65752
1.65542
1.6554
1.65583
1.6563
1.65704
1.65938
1.66356
1.66553
1.66519
1.66398
1.66164
1.65705
1.65256
1.65119
1.65117
1.65232
1.6542
1.65643
1.65714
1.65665
1.65501
1.65121
1.64747
1.64573
1.64527
1.64529
1.64611
1.64678
1.64661
1.64582
1.64392
1.64216
1.64128
1.6406
1.63982
1.63893
1.638
1.63703
1.63575
1.63377
1.63072
1.62861
1.62836
1.62917
1.6321
1.63533
1.53249
1.53285
1.53298
1.53247
1.53125
1.52846
1.523
1.51848
1.51681
1.51642
1.51627
1.51688
1.51981
1.52534
1.52817
1.52793
1.52736
1.52657
1.52472
1.52017
1.51236
1.50648
1.50444
1.50382
1.503
1.50215
1.50174
1.50244
1.50477
1.50634
1.5059
1.50422
1.50187
1.49966
1.49855
1.49722
1.49485
1.49221
1.48994
1.48789
1.48596
1.48426
1.48291
1.48254
1.48324
1.48417
1.48353
1.48247
1.48086
1.47908
1.47775
1.47693
1.47601
1.47566
1.47531
1.47435
1.47305
1.4709
1.46757
1.46332
1.45914
1.45729
1.4568
1.45706
1.45875
1.46159
1.4643
1.46562
1.46539
1.46395
1.46112
1.45576
1.44744
1.44263
1.44136
1.44104
1.44119
1.44322
1.44933
1.4562
1.45781
1.45725
1.45562
1.45238
1.44508
1.43533
1.43141
1.43042
1.42974
1.42919
1.42878
1.42868
1.42961
1.43224
1.43476
1.43538
1.43532
1.43469
1.4338
1.43246
1.42952
1.42367
1.41653
1.41371
1.41299
1.41286
1.41311
1.41648
1.42335
1.42801
1.42891
1.43598
1.46081
1.50559
1.57194
1.63026
1.67642
1.69096
1.70407
1.71548
1.72164
1.72335
1.72238
1.71934
1.71428
1.71024
1.70953
1.70965
1.71107
1.71472
1.71801
1.71814
1.71732
1.71433
1.70823
1.70407
1.70343
1.70309
1.70297
1.70311
1.70358
1.70544
1.70854
1.71004
1.71045
1.71015
1.7087
1.7051
1.69876
1.69417
1.69326
1.69325
1.69349
1.69447
1.69686
1.69906
1.69928
1.69935
1.69893
1.69725
1.69351
1.68855
1.68525
1.68431
1.68439
1.68641
1.692
1.69698
1.69719
1.69618
1.69357
1.68778
1.68202
1.68072
1.68066
1.68107
1.68283
1.68578
1.6869
1.68638
1.6845
1.68003
1.67555
1.67409
1.67356
1.67321
1.67314
1.67429
1.67825
1.68072
1.68084
1.68072
1.68005
1.67745
1.67349
1.67097
1.67002
1.66928
1.66845
1.66791
1.66771
1.66782
1.66769
1.66698
1.66613
1.66472
1.6614
1.65619
1.65281
1.65197
1.65168
1.65165
1.65187
1.65373
1.65803
1.66078
1.66089
1.6606
1.65975
1.65689
1.65231
1.65049
1.65018
1.64991
1.65018
1.65121
1.65114
1.65019
1.64883
1.64712
1.64599
1.64562
1.64604
1.64678
1.64668
1.64579
1.64359
1.64025
1.63728
1.63561
1.63459
1.63394
1.63365
1.63373
1.63364
1.63355
1.63335
1.63282
1.63088
1.62895
1.62912
1.62975
1.63043
1.52958
1.53022
1.53118
1.53119
1.53051
1.5292
1.52582
1.51893
1.51346
1.51158
1.51117
1.51099
1.51157
1.51481
1.52161
1.52583
1.52645
1.5267
1.52631
1.52472
1.5205
1.51122
1.50261
1.49924
1.49778
1.49652
1.49555
1.49509
1.49562
1.4982
1.50072
1.50129
1.50138
1.50179
1.50215
1.501
1.49828
1.49418
1.48925
1.485
1.48115
1.47787
1.47642
1.47603
1.47603
1.47756
1.48018
1.48144
1.48217
1.48193
1.48036
1.47749
1.47416
1.47181
1.47043
1.46913
1.46791
1.46706
1.46627
1.46506
1.46283
1.45963
1.45733
1.45665
1.4568
1.45759
1.45843
1.45953
1.46049
1.46031
1.45896
1.45641
1.45174
1.44454
1.44025
1.43928
1.43918
1.43997
1.44277
1.44795
1.45244
1.4533
1.45255
1.4505
1.44629
1.43783
1.43001
1.42803
1.4276
1.42728
1.42708
1.4274
1.42901
1.43161
1.43237
1.432
1.43126
1.43047
1.4296
1.42864
1.42727
1.42467
1.42005
1.41414
1.41149
1.41091
1.41089
1.41187
1.41485
1.42003
1.42307
1.42344
1.42281
1.42875
1.45146
1.49541
1.56356
1.62437
1.66104
1.69207
1.71228
1.71972
1.72305
1.7226
1.72004
1.71619
1.71063
1.70572
1.70454
1.70454
1.70715
1.71122
1.71187
1.7112
1.70802
1.70301
1.7004
1.69972
1.69919
1.69911
1.69936
1.70044
1.70367
1.70836
1.70983
1.70925
1.708
1.70572
1.70081
1.69345
1.68995
1.68972
1.68994
1.69042
1.69141
1.69367
1.6962
1.69661
1.69687
1.6967
1.69538
1.69088
1.68437
1.68083
1.67968
1.67959
1.68114
1.68634
1.69275
1.69413
1.69362
1.69193
1.68687
1.68042
1.6784
1.67828
1.67843
1.67959
1.68198
1.68313
1.68256
1.68013
1.67545
1.67178
1.67098
1.67072
1.67063
1.67127
1.67377
1.67708
1.67842
1.6788
1.67851
1.67708
1.67361
1.66887
1.66628
1.6653
1.66475
1.66441
1.66428
1.66441
1.66571
1.66657
1.66613
1.66496
1.66297
1.65862
1.65207
1.64801
1.64693
1.64685
1.64688
1.64732
1.65018
1.65673
1.6608
1.66069
1.66051
1.65927
1.65528
1.64945
1.64642
1.64523
1.6444
1.64387
1.64406
1.64514
1.64601
1.64672
1.64699
1.64704
1.64686
1.64612
1.64468
1.64274
1.64006
1.63639
1.63321
1.63148
1.63072
1.63036
1.63025
1.63088
1.63254
1.63397
1.63468
1.6345
1.63346
1.63069
1.62677
1.62545
1.62538
1.52707
1.52804
1.52939
1.52957
1.52903
1.52818
1.52664
1.52239
1.51409
1.50832
1.50657
1.50627
1.50618
1.50691
1.51105
1.52015
1.52581
1.52648
1.52632
1.52524
1.52314
1.51813
1.50676
1.49625
1.49257
1.4913
1.49042
1.48964
1.48911
1.48976
1.49336
1.49799
1.50122
1.50308
1.50322
1.50196
1.5001
1.4972
1.4915
1.48328
1.47676
1.47304
1.47142
1.47081
1.47051
1.47104
1.47499
1.48022
1.48229
1.48208
1.48103
1.47873
1.47399
1.46855
1.46538
1.46392
1.46311
1.46274
1.46322
1.46357
1.46316
1.46227
1.46021
1.45717
1.4552
1.45446
1.45391
1.45367
1.45405
1.45525
1.45556
1.45464
1.45284
1.44948
1.44364
1.43916
1.43809
1.4381
1.43902
1.44102
1.44425
1.44744
1.44821
1.44736
1.44502
1.44072
1.43342
1.42716
1.42537
1.42492
1.42487
1.42615
1.42915
1.42991
1.4294
1.42859
1.4276
1.4264
1.42532
1.42445
1.4237
1.42281
1.42107
1.41784
1.41302
1.41007
1.4095
1.40954
1.41026
1.41211
1.4156
1.418
1.41812
1.41749
1.41491
1.41756
1.43982
1.49418
1.55944
1.61737
1.66483
1.69422
1.71256
1.72103
1.7233
1.72281
1.71837
1.70909
1.70074
1.69952
1.69985
1.70215
1.7048
1.705
1.70431
1.70167
1.69824
1.69626
1.69552
1.69532
1.69547
1.69658
1.69909
1.7027
1.70609
1.70709
1.70613
1.70393
1.7009
1.69627
1.69031
1.68688
1.68612
1.68616
1.68644
1.68724
1.68965
1.69257
1.69401
1.69431
1.69415
1.69272
1.68798
1.68057
1.67642
1.67542
1.67524
1.67632
1.68131
1.68904
1.69137
1.69096
1.68993
1.68582
1.67917
1.67584
1.67545
1.67544
1.67599
1.67745
1.67837
1.67792
1.67556
1.67176
1.66917
1.66876
1.6687
1.66893
1.67033
1.67305
1.67493
1.67502
1.67506
1.67463
1.67252
1.66826
1.6639
1.66243
1.66198
1.66177
1.66172
1.66198
1.66288
1.66367
1.66372
1.66291
1.66137
1.65882
1.65381
1.64714
1.64428
1.64383
1.64385
1.64423
1.64601
1.64991
1.65578
1.65948
1.65925
1.65808
1.65566
1.65
1.64305
1.64002
1.63915
1.63881
1.63908
1.64186
1.64534
1.64701
1.64752
1.64747
1.6466
1.64393
1.64097
1.63867
1.63629
1.63366
1.63113
1.62948
1.62879
1.62855
1.62853
1.63016
1.634
1.63575
1.63549
1.63476
1.63354
1.63048
1.62417
1.61997
1.6191
1.52447
1.52628
1.52786
1.52801
1.5274
1.52656
1.52558
1.52365
1.51836
1.50917
1.5038
1.50224
1.50205
1.50216
1.50362
1.50957
1.5207
1.52607
1.52572
1.52422
1.52231
1.51948
1.51282
1.49972
1.49019
1.48717
1.48581
1.48485
1.48428
1.48428
1.48711
1.49544
1.50224
1.50333
1.50281
1.50163
1.50021
1.49793
1.49297
1.48395
1.47466
1.47023
1.46826
1.4672
1.46691
1.46726
1.47124
1.47935
1.48216
1.48183
1.48079
1.47874
1.47393
1.46583
1.46121
1.45999
1.45938
1.45889
1.45916
1.46111
1.46276
1.46285
1.46204
1.45965
1.45481
1.45105
1.4498
1.449
1.44844
1.44875
1.45057
1.45167
1.45125
1.45017
1.44792
1.44334
1.4384
1.4367
1.43632
1.43633
1.43693
1.43869
1.44139
1.44267
1.44214
1.44026
1.43702
1.43136
1.42526
1.42329
1.4229
1.42389
1.42632
1.42678
1.42612
1.42519
1.42402
1.42245
1.42126
1.42053
1.41997
1.41967
1.41905
1.41803
1.41596
1.41191
1.40822
1.40724
1.40708
1.40697
1.40774
1.41034
1.41318
1.41321
1.41283
1.41205
1.40704
1.41045
1.43657
1.49597
1.57187
1.62593
1.66599
1.70019
1.71624
1.7174
1.71735
1.71277
1.70452
1.69816
1.69677
1.69683
1.69794
1.69902
1.69903
1.69851
1.69673
1.69422
1.69242
1.69197
1.69213
1.69324
1.69556
1.69787
1.70005
1.70203
1.70231
1.70098
1.69913
1.69694
1.69302
1.68689
1.68284
1.68188
1.68197
1.68234
1.68365
1.68809
1.69171
1.69193
1.69224
1.69213
1.69021
1.68394
1.67541
1.67081
1.66951
1.6693
1.6704
1.67575
1.68477
1.68877
1.68866
1.68828
1.68531
1.67891
1.67381
1.67248
1.67228
1.67233
1.67291
1.67354
1.67311
1.67107
1.66821
1.66659
1.66653
1.66665
1.66728
1.6688
1.67053
1.67071
1.67081
1.67068
1.66987
1.66753
1.66367
1.66061
1.65997
1.65986
1.65998
1.66046
1.6605
1.66027
1.65982
1.65896
1.6579
1.65642
1.65405
1.65022
1.64514
1.64259
1.64243
1.64268
1.64381
1.64551
1.64837
1.65263
1.65506
1.65486
1.65346
1.65012
1.64349
1.63781
1.63641
1.63623
1.63651
1.63899
1.64446
1.64664
1.64647
1.64597
1.64432
1.64074
1.63669
1.6342
1.63282
1.63151
1.63007
1.62896
1.62831
1.62808
1.62858
1.63061
1.6324
1.6333
1.6334
1.63274
1.6314
1.62831
1.62231
1.61583
1.61345
1.52078
1.52213
1.52498
1.52617
1.52567
1.52473
1.52385
1.52278
1.52044
1.51439
1.50496
1.50007
1.49882
1.49872
1.49936
1.50201
1.50865
1.518
1.52242
1.52213
1.52037
1.5181
1.51459
1.50654
1.49277
1.48428
1.48209
1.4815
1.48124
1.48139
1.48396
1.49035
1.49758
1.50131
1.50193
1.50083
1.49899
1.49653
1.49194
1.48466
1.47643
1.47052
1.46741
1.46599
1.46539
1.46557
1.46793
1.47303
1.47742
1.47838
1.47783
1.47622
1.47207
1.46471
1.45892
1.45715
1.45652
1.45618
1.45666
1.45953
1.46242
1.46261
1.46193
1.46037
1.45629
1.44958
1.44586
1.44474
1.44399
1.44349
1.44423
1.44726
1.44884
1.44898
1.44844
1.44692
1.44324
1.43717
1.4334
1.43233
1.43183
1.43175
1.43242
1.43498
1.43763
1.43777
1.43664
1.43455
1.43023
1.42475
1.42243
1.42201
1.42246
1.42293
1.4224
1.4214
1.42014
1.41875
1.41781
1.41707
1.41658
1.41669
1.41718
1.41721
1.41634
1.41437
1.40985
1.40476
1.40317
1.4028
1.40248
1.40271
1.40511
1.40849
1.40918
1.40835
1.4079
1.40402
1.39979
1.40687
1.43927
1.50771
1.58003
1.64688
1.67812
1.69775
1.70614
1.70532
1.70288
1.69784
1.69287
1.69137
1.69139
1.6921
1.69478
1.69593
1.69584
1.69506
1.69297
1.69088
1.69057
1.69115
1.69243
1.69312
1.69366
1.69465
1.69633
1.69703
1.6963
1.69513
1.69352
1.68961
1.68278
1.67868
1.6783
1.67857
1.67926
1.68178
1.68598
1.68913
1.68997
1.6901
1.68939
1.68597
1.67756
1.66852
1.66514
1.6645
1.66451
1.66572
1.6712
1.68123
1.68641
1.68661
1.68666
1.68482
1.67904
1.67219
1.66929
1.66849
1.66828
1.66852
1.66903
1.66868
1.66689
1.66468
1.66352
1.66353
1.66372
1.66446
1.66573
1.66645
1.66651
1.66646
1.66604
1.66519
1.66341
1.66057
1.65836
1.65807
1.65783
1.65732
1.65675
1.65623
1.65563
1.65486
1.65393
1.65297
1.65225
1.65121
1.64853
1.64392
1.64146
1.64141
1.64159
1.64191
1.64255
1.64423
1.6474
1.64943
1.64922
1.64788
1.64485
1.63996
1.63599
1.63514
1.63516
1.63678
1.63982
1.64224
1.64251
1.64215
1.64095
1.63787
1.63375
1.63096
1.62956
1.62909
1.62899
1.62896
1.62855
1.62848
1.6291
1.6295
1.62931
1.6294
1.62917
1.62853
1.62754
1.62536
1.62161
1.61593
1.61149
1.51771
1.51793
1.51903
1.52102
1.52256
1.5227
1.52191
1.52094
1.51972
1.51719
1.5114
1.5025
1.49749
1.49655
1.49656
1.49788
1.50054
1.505
1.51156
1.51669
1.51749
1.51619
1.51341
1.50888
1.49952
1.48653
1.48109
1.48025
1.47995
1.48014
1.48277
1.48825
1.49258
1.49451
1.4955
1.49576
1.49489
1.49287
1.48919
1.48305
1.47786
1.47451
1.47125
1.46781
1.46594
1.46561
1.4668
1.46897
1.4706
1.47159
1.47179
1.47098
1.46886
1.46444
1.45911
1.45595
1.45472
1.45422
1.45482
1.45864
1.46138
1.46109
1.46018
1.45889
1.45639
1.45069
1.44385
1.44098
1.44009
1.43948
1.4393
1.44136
1.44619
1.4478
1.44783
1.44714
1.44555
1.44124
1.43332
1.42841
1.427
1.42616
1.42564
1.42603
1.42887
1.43338
1.43431
1.4337
1.43242
1.42999
1.42576
1.42141
1.41934
1.41866
1.41817
1.41725
1.41611
1.41528
1.41461
1.41399
1.41376
1.41431
1.41573
1.41608
1.41548
1.41429
1.41165
1.40549
1.39972
1.39823
1.39778
1.39741
1.39758
1.40043
1.4051
1.40583
1.40562
1.4046
1.4027
1.39531
1.39471
1.40858
1.4448
1.51357
1.58631
1.64635
1.68297
1.69378
1.6958
1.69351
1.68931
1.68404
1.68187
1.68277
1.68689
1.69305
1.69469
1.69389
1.69237
1.69125
1.68997
1.68919
1.68921
1.68938
1.68927
1.6888
1.68905
1.69062
1.6921
1.69196
1.6912
1.68952
1.68556
1.67929
1.67591
1.67577
1.67607
1.67771
1.68066
1.6839
1.68527
1.68574
1.68578
1.68411
1.67972
1.67202
1.66398
1.66048
1.65971
1.65965
1.66096
1.66716
1.67843
1.68512
1.68581
1.68594
1.68418
1.67724
1.66889
1.66544
1.66425
1.66397
1.66417
1.66419
1.66364
1.66221
1.66031
1.65962
1.65973
1.66028
1.66128
1.66238
1.66307
1.66313
1.66305
1.66269
1.66185
1.66008
1.65727
1.655
1.65428
1.6537
1.65307
1.65245
1.65185
1.65127
1.65077
1.65066
1.65064
1.65032
1.64966
1.64731
1.64283
1.63948
1.63873
1.63845
1.63823
1.63814
1.63895
1.64195
1.64413
1.64399
1.6433
1.64167
1.63828
1.63545
1.63493
1.63525
1.6359
1.63682
1.63753
1.63737
1.63658
1.63473
1.63164
1.62912
1.62821
1.62803
1.62862
1.6293
1.62931
1.62904
1.62791
1.62601
1.62534
1.62501
1.62445
1.62349
1.62225
1.62079
1.61916
1.61682
1.61308
1.51552
1.51449
1.51428
1.51464
1.51608
1.51803
1.51887
1.51844
1.51757
1.51654
1.51466
1.5106
1.5032
1.49698
1.49539
1.49522
1.49595
1.49732
1.49962
1.50399
1.50935
1.51128
1.51042
1.50771
1.50326
1.49549
1.48545
1.48075
1.48003
1.48017
1.48251
1.48741
1.48994
1.4899
1.4895
1.48915
1.48783
1.48559
1.48264
1.47931
1.47709
1.47574
1.47433
1.47247
1.47032
1.46901
1.46781
1.46646
1.46562
1.46517
1.46462
1.46391
1.46307
1.46195
1.45977
1.45694
1.45456
1.45358
1.45375
1.45543
1.45706
1.45721
1.45666
1.45591
1.45455
1.45121
1.44489
1.43927
1.43714
1.43638
1.43604
1.43671
1.44131
1.4465
1.44686
1.44615
1.44503
1.44286
1.43701
1.42759
1.42258
1.42116
1.42032
1.41975
1.42014
1.4236
1.42976
1.43156
1.43169
1.43126
1.42947
1.42505
1.4185
1.41482
1.41362
1.41296
1.41227
1.41167
1.4112
1.41105
1.41119
1.41237
1.41421
1.41432
1.41358
1.41267
1.41121
1.4072
1.39941
1.39442
1.39339
1.39303
1.39274
1.39325
1.39743
1.40353
1.40446
1.40416
1.40291
1.40034
1.39301
1.3868
1.38884
1.40478
1.4441
1.51066
1.58073
1.6405
1.68021
1.69005
1.69103
1.68381
1.67869
1.67915
1.68123
1.68454
1.68777
1.68919
1.68946
1.68897
1.68826
1.68757
1.6864
1.68511
1.68419
1.68341
1.68311
1.68364
1.68572
1.68729
1.68709
1.68655
1.68532
1.6824
1.67778
1.6744
1.67413
1.67451
1.67543
1.67732
1.67997
1.68108
1.68139
1.68138
1.68004
1.67566
1.66709
1.65857
1.65573
1.65539
1.65563
1.65783
1.66521
1.67721
1.68417