/*--------------------------------*- C++ -*----------------------------------*\
  =========                 |
  \\      /  F ield         | OpenFOAM: The Open Source CFD Toolbox
   \\    /   O peration     | Website:  https://openfoam.org
    \\  /    A nd           | Version:  7
     \\/     M anipulation  |
\*---------------------------------------------------------------------------*/
FoamFile
{
    version     2.0;
    format      ascii;
    class       volScalarField;
    location    "1.1";
    object      p;
}
// * * * * * * * * * * * * * * * * * * * * * * * * * * * * * * * * * * * * * //

dimensions      [1 -1 -2 0 0 0 0];

internalField   nonuniform List<scalar> 
16192
(
1
1
1
1
1
1
1
1
1
1
1
1
1
1
1
1
1
1
1
1
1
1
1
1
1
1
1
1
1
1
1
1
1
1
1
1
1
1
1
1
1
1
1
1
1
1
1
1
1
1
1
1
1
1
1
1
1
1
1
1
1
1
1
1
1
1
1
1
1
1
1
1
1
1
1
1
1
1
1
1
1
1
1
1
1
1
1
1
1
1
1
1
1
1
1
1
1
1
1
1
1
1
1
1
1
1
1
1
1
1
1
1
1
1
1
1
1
1
1
1
1
1
1
1
1
1
1
1
1
1
1
1
1
1
1
1
1
1
1
1
1
1
1
1
1
1
1
1
1
1
1
1
1
1
1
1
1
1
1
1
1
1
1
1
1
1
1
1
1
1
1
1
1
1
1
1
1
1
1
1
1
1
1
1
1
1
1
1
1
1
1
1
1
1
1
1
1
1
1
1
1
1
1
1
1
1
1
1
1
1
1
1
1
1
1
1
1
1
1
1
1
1
1
1
1
1
1
1
1
1
1
1
1
1
1
1
1
1
1
1
1
1
1
1
1
1
1
1
1
1
1
1
1
1
1
1
1
1
1
1
1
1
1
1
1
1
1
1
1
1
1
1
1
1
1
1
1
1
1
1
1
1
1
1
1
1
1
1
1
1
1
1
1
1
1
1
1
1
1
1
1
1
1
1
1
1
1
1
1
1
1
1
1
1
1
1
1
1
1
1
1
1
1
1
1
1
1
1
1
1
1
1
1
1
1
1
1
1
1
1
1
1
1
1
1
1
1
1
1
1
1
1
1
1
1
1
1
1
1
1
1
1
1
1
1
1
1
1
1
1
1
1
1
1
1
1
1
1
1
1
1
1
1
1
1
1
1
1
1
1
1
1
1
1
1
1
1
1
1
1
1
1
1
1
1
1
1
1
1
1
1
1
1
1
1
1
1
1
1
1
1
1
1
1
1
1
1
1
1
1
1
1
1
1
1
1
1
1
1
1
1
1
1
1
1
1
1
1
1
1
1
1
1
1
1
1
1
1
1
1
1
1
1
1
1
1
1
1
1
1
1
1
1
1
1
1
1
1
1
1
1
1
1
1
1
1
1
1
1
1
1
1
1
1
1
1
1
1
1
1
1
1
1
1
1
1
1
1
1
1
1
1
1
1
1
1
1
1
1
1
1
1
1
1
1
1
1
1
1
1
1
1
1
1
1
1
1
1
1
1
1
1
1
1
1
1
1
1
1
1
1
1
1
1
1
1
1
1
1
1
1
1
1
1
1
1
1
1
1
1
1
1
1
1
1
1
1
1
1
1
1
1
1
1
1
1
1
1
1
1
1
1
1
1
1
1
1
1
1
1
1
1
1
1
1
1
1
1
1
1
1
1
1
1
1
1
1
1
1
1
1
1
1
1
1
1
1
1
1
1
1
1
1
1
1
1
1
1
1
1
1
1
1
1
1
1
1
1
1
1
1
1
1
1
1
1
1
1
1
1
1
1
1
1
1
1
1
1
1
1
1
1
1
1
1
1
1
1
1
1
1
1
1
1
1
1
1
1
1
1
1
1
1
1
1
1
1
1
1
1
1
1
1
1
1
1
1
1
1
1
1
1
1
1
1
1
1
1
1
1
1
1
1
1
1
1
1
1
1
1
1
1
1
1
1
1
1
1
1
1
1
1
1
1
1
1
1
1
1
1
1
1
1
1
1
1
1
1
1
1
1
1
1
1
1
1
1
1
1
1
1
1
1
1
1
1
1
1
1
1
1
1
1
1
1
1
1
1
1
1
1
1
1
1
1
1
1
1
1
1
1
1
1
1
1
1
1
1
1
1
1
1
1
1
1
1
1
1
1
1
1
1
1
1
1
1
1
1
1
1
1
1
1
1
1
1
1
1
1
1
1
1
1
1
1
1
1
1
1
1
1
1
1
1
1
1
1
1
1
1
1
1
1
1
1
1
1
1
1
1
1
1
1
1
1
1
1
1
1
1
1
1
1
1
1
1
1
1
1
1
1
1
1
1
1
1
1
1
1
1
1
1
1
1
1
1
1
1
1
1
1
1
1
1
1
1
1
1
1
1
1
1
1
1
1
1
1
1
1
1
1
1
1
1
1
1
1
1
1
1
1
1
1
1
1
1
1
1
1
1
1
1
1
1
1
1
1
1
1
1
1
1
1
1
1
1
1
1
1
1
1
1
1
1
1
1
1
1
1
1
1
1
1
1
1
1
1
1
1
1
1
1
1
1
1
1
1
1
1
1
1
1
1
1
1
1
1
1
1
1
1
1
1
1
1
1
1
1
1
1
1
1
1
1
1
1
1
1
1
1
1
1
1
1
1
1
1
1
1
1
1
1
1
1
1
1
1
1
1
1
1
1
1
1
1
1
1
1
1
1
1
1
1
1
1
1
1
1
1
1
1
1
1
1
1
1
1
1
1
1
1
1
1
1
1
1
1
1
1
1
1
1
1
1
1
1
1
1
1
1
1
1
1
1
1
1
1
1
1
1
1
1
1
1
1
1
1
1
1
1
1
1
1
1
1
1
1
1
1
1
1
1
1
1
1
1
1
1
1
1
1
1
1
1
1
1
1
1
1
1
1
1
1
1
1
1
1
1
1
1
1
1
1
1
1
1
1
1
1
1
1
1
1
1
1
1
1
1
1
1
1
1
1
1
1
1
1
1
1
1
1
1
1
1
1
1
1
1
1
1
1
1
1
1
1
1
1
1
1
1
1
1
1
1
1
1
1
1
1
1
1
1
1
1
1
1
1
1
1
1
1
1
1
1
1
1
1
1
1
1
1
1
1
1
1
1
1
1
1
1
1
1
1
1
1
1
1
1
1
1
1
1
1
1
1
1
1
1
1
1
1
1
1
1
1
1
1
1
1
1
1
1
1
1
1
1
1
1
1
1
1
1
1
1
1
1
1
1
1
1
1
1
1
1
1
1.00012
1.00369
1.06144
1.53755
2.93879
3.83196
4.09617
4.24974
4.26336
4.19469
4.17947
4.19826
4.15516
4.09941
4.07334
4.07788
4.04776
4.0038
3.97831
3.96192
3.94063
3.91692
3.90772
3.89271
3.86521
3.84164
3.81479
3.78821
3.78322
3.77777
3.76453
3.7509
3.73411
3.69963
3.65518
3.62551
3.61704
3.61151
3.60287
3.59063
3.56907
3.53451
3.4985
3.47952
3.47575
3.47794
3.49118
3.50423
3.50043
3.49215
3.47933
3.45507
3.41704
3.36848
3.36663
3.41463
3.54397
3.72633
3.87758
3.94408
3.96962
4.00247
4.02784
4.01636
3.98759
3.94758
3.8956
3.82667
3.73961
3.67104
3.63857
3.61583
3.58778
3.55399
3.52692
3.51361
3.50828
3.5149
3.5247
3.51903
3.50252
3.47562
3.43263
3.36174
3.29615
3.26829
3.25935
3.25665
3.24842
3.23125
3.20578
3.17097
3.14256
3.13438
3.13866
3.15531
3.15607
3.14189
3.12059
3.09372
3.05239
2.98732
2.91862
2.87439
2.85381
2.84975
2.85607
2.89103
2.93295
2.94022
2.92657
2.90394
2.87431
2.8311
2.77576
2.73645
2.71839
2.7081
2.69521
2.67707
2.65135
2.62075
2.59901
2.59379
2.60074
2.6323
2.66766
2.67306
2.6632
2.63641
2.58579
2.50246
2.43369
2.4076
2.39446
2.38755
2.38354
2.38629
2.4101
2.45352
2.48252
2.48404
2.47598
2.46255
2.43837
2.39285
2.31042
2.2351
2.20327
2.19183
2.19009
2.19184
2.20067
2.22516
2.25646
2.26947
2.26504
2.25466
2.23947
2.21991
2.19625
2.16088
2.10733
2.05873
2.03407
2.02811
2.02963
1
1
1
1
1
1
1
1
1
1
1
1
1
1
1
1
1
1
1
1
1
1
1
1
1
1
1
1
1
1
1
1
1
1
1
1
1
1
1
1
1
1
1
1
1
1
1
1
1
1
1
1
1
1
1
1
1
1
1
1
1
1
1
1
1.00002
1.00132
1.03922
1.45909
2.74587
3.62116
4.08869
4.23865
4.24947
4.22736
4.183
4.13411
4.1044
4.114
4.09734
4.04621
4.01202
4.00122
3.98472
3.95906
3.94602
3.9399
3.91721
3.89121
3.86925
3.83767
3.81801
3.81368
3.80046
3.78387
3.76611
3.73499
3.69195
3.6625
3.6548
3.64624
3.63327
3.61827
3.59711
3.56582
3.53326
3.51664
3.51402
3.51965
3.53815
3.55141
3.55003
3.54152
3.52307
3.4886
3.44076
3.37757
3.34547
3.34829
3.36714
3.42455
3.56533
3.74
3.86703
3.94178
4.00422
4.0303
4.0221
3.99541
3.95244
3.89371
3.81397
3.73415
3.68708
3.66122
3.63344
3.60234
3.58018
3.56876
3.56462
3.57074
3.57528
3.56417
3.54491
3.51583
3.47274
3.40298
3.33679
3.30673
3.29778
3.29452
3.28545
3.26823
3.24474
3.21394
3.18895
3.18189
3.18675
3.19607
3.1885
3.17125
3.14874
3.12025
3.0772
3.01645
2.95721
2.91719
2.89821
2.89474
2.90382
2.94098
2.97458
2.97364
2.95563
2.93046
2.89713
2.84964
2.79875
2.76565
2.74598
2.73357
2.72009
2.70303
2.68039
2.65365
2.63632
2.63303
2.64404
2.67764
2.70488
2.70391
2.69065
2.66227
2.60796
2.52015
2.45417
2.43036
2.42143
2.41659
2.41466
2.42318
2.45309
2.49308
2.51089
2.50746
2.49801
2.48273
2.4585
2.41474
2.33417
2.25895
2.22724
2.21744
2.21662
2.22021
2.23489
2.26271
2.28768
2.29225
2.28627
2.27418
2.25648
2.23608
2.21172
2.17537
2.12427
2.07978
2.05665
2.05159
2.05289
2.0622
1
1
1
1
1
1
1
1
1
1
1
1
1
1
1
1
1
1
1
1
1
1
1
1
1
1
1
1
1
1
1
1
1
1
1
1
1
1
1
1
1
1
1
1
1
1
1
1
1
1
1
1
1
1
1
1
1
1
1
1
1
1
1
1
1
1.00001
1.00079
1.03185
1.39152
2.3301
3.29366
4.12637
4.28273
4.20236
4.14339
4.14244
4.15675
4.1529
4.08731
4.04522
4.04271
4.0349
4.008
3.99079
3.98466
3.97243
3.94081
3.92132
3.90075
3.86663
3.84933
3.8371
3.81632
3.79558
3.77033
3.73095
3.69696
3.68998
3.68201
3.6653
3.64648
3.62431
3.59566
3.56669
3.55308
3.55163
3.55966
3.5804
3.59251
3.58921
3.58014
3.56017
3.52632
3.48061
3.41232
3.35723
3.34612
3.34843
3.36302
3.39767
3.46783
3.60085
3.74777
3.87969
3.98488
4.01744
4.01282
3.99083
3.94398
3.86701
3.78218
3.73973
3.71238
3.68338
3.65348
3.63509
3.62713
3.62282
3.62092
3.61676
3.60375
3.58335
3.55454
3.51339
3.44536
3.3781
3.34683
3.33857
3.33442
3.32441
3.30697
3.284
3.25748
3.23742
3.2301
3.23305
3.23245
3.21936
3.19996
3.17584
3.14424
3.10006
3.04695
2.99869
2.96219
2.94578
2.94321
2.95547
2.99188
3.01478
3.00639
2.98395
2.95539
2.91638
2.86432
2.81798
2.79121
2.77274
2.76013
2.74708
2.73139
2.71248
2.69177
2.67942
2.67859
2.69457
2.72535
2.73879
2.73188
2.71479
2.68496
2.62696
2.53802
2.47667
2.45483
2.44829
2.44484
2.44649
2.46395
2.50008
2.5318
2.53651
2.52976
2.51873
2.50162
2.4782
2.4372
2.36037
2.28599
2.25365
2.24512
2.244
2.24942
2.27001
2.29922
2.31503
2.31336
2.30538
2.29081
2.27248
2.25201
2.2266
2.18955
2.14138
2.10155
2.07956
2.07497
2.07644
2.08702
2.10519
1
1
1
1
1
1
1
1
1
1
1
1
1
1
1
1
1
1
1
1
1
1
1
1
1
1
1
1
1
1
1
1
1
1
1
1
1
1
1
1
1
1
1
1
1
1
1
1
1
1
1
1
1
1
1
1
1
1
1
1
1
1
1
1
1
1
1
1.00057
1.02031
1.2048
1.81406
3.1683
4.14864
4.08891
4.13359
4.1802
4.20705
4.13634
4.0812
4.07946
4.0927
4.06332
4.03655
4.02762
4.02704
3.9927
3.96484
3.95311
3.92932
3.88932
3.87052
3.85078
3.82379
3.80146
3.77332
3.73462
3.72059
3.71554
3.69946
3.67746
3.65283
3.62558
3.601
3.59042
3.59052
3.60085
3.62042
3.62725
3.62138
3.60894
3.58798
3.55869
3.51948
3.45939
3.39398
3.36399
3.36064
3.36136
3.37332
3.40089
3.44042
3.5127
3.6316
3.77898
3.92272
3.97365
3.97586
3.95994
3.89722
3.80443
3.76092
3.74765
3.72967
3.70306
3.68425
3.67635
3.67352
3.66358
3.65075
3.63616
3.61699
3.59044
3.55312
3.49021
3.42177
3.38672
3.37717
3.37401
3.36649
3.34972
3.32687
3.30336
3.28761
3.27996
3.27591
3.26539
3.24809
3.22683
3.20041
3.16494
3.12079
3.07713
3.03932
3.00794
2.99504
2.99383
3.01032
3.04324
3.0553
3.04047
3.0135
2.97947
2.9321
2.87791
2.83817
2.81512
2.79698
2.78544
2.77442
2.76135
2.74677
2.73336
2.72656
2.72997
2.74945
2.7695
2.76908
2.75761
2.73781
2.70638
2.64562
2.55822
2.50152
2.48081
2.47542
2.47351
2.48046
2.50638
2.5431
2.56043
2.55641
2.54814
2.53558
2.51851
2.49706
2.45944
2.38842
2.31592
2.28304
2.27521
2.27367
2.28036
2.3045
2.33196
2.33941
2.33435
2.32305
2.30616
2.28729
2.26639
2.24039
2.20362
2.15929
2.1233
2.10258
2.09823
2.09993
2.11271
2.12931
2.14105
1
1
1
1
1
1
1
1
1
1
1
1
1
1
1
1
1
1
1
1
1
1
1
1
1
1
1
1
1
1
1
1
1
1
1
1
1
1
1
1
1
1
1
1
1
1
1
1
1
1
1
1
1
1
1
1
1
1
1
1
1
1
1
1
1
1
1
1
1.0002
1.00604
1.08395
1.61553
3.0442
3.83454
4.05124
4.1835
4.2039
4.13964
4.1245
4.1553
4.12464
4.07807
4.06168
4.06987
4.04481
4.00558
3.98741
3.97251
3.93733
3.90357
3.88729
3.85829
3.82769
3.80794
3.78007
3.75468
3.74808
3.7338
3.71232
3.68556
3.6574
3.63754
3.63053
3.6323
3.64445
3.65971
3.66013
3.6522
3.63565
3.61207
3.58417
3.55036
3.5002
3.44014
3.40021
3.39199
3.38961
3.39191
3.40245
3.42007
3.44531
3.48427
3.558
3.66836
3.79716
3.86358
3.88417
3.87141
3.8104
3.76107
3.75165
3.74998
3.73913
3.72295
3.71132
3.70449
3.69566
3.68054
3.6638
3.64525
3.62218
3.59008
3.53422
3.46675
3.4284
3.41708
3.41151
3.40553
3.3941
3.37569
3.35304
3.33706
3.32656
3.31307
3.29454
3.27441
3.25148
3.22155
3.18231
3.14143
3.10749
3.07712
3.05203
3.04333
3.04494
3.06667
3.09339
3.09567
3.07584
3.04449
3.0024
2.94702
2.89447
2.86075
2.83946
2.82148
2.80989
2.8007
2.7908
2.78125
2.77477
2.7752
2.785
2.8003
2.80475
2.79677
2.78178
2.7606
2.72714
2.66491
2.58248
2.53032
2.50949
2.50415
2.5036
2.5162
2.54761
2.57564
2.57815
2.57155
2.56253
2.54928
2.53325
2.5137
2.47933
2.41494
2.34716
2.31454
2.3071
2.30563
2.31361
2.33958
2.36184
2.3628
2.35604
2.34145
2.32172
2.30074
2.27823
2.25163
2.21735
2.17862
2.14581
2.12532
2.12063
2.12218
2.13741
2.15509
2.16028
2.16398
1
1
1
1
1
1
1
1
1
1
1
1
1
1
1
1
1
1
1
1
1
1
1
1
1
1
1
1
1
1
1
1
1
1
1
1
1
1
1
1
1
1
1
1
1
1
1
1
1
1
1
1
1
1
1
1
1
1
1
1
1
1
1
1
1
1
1
1
1
1.00003
1.00205
1.05014
1.52255
2.84377
3.642
4.04791
4.19136
4.20073
4.18987
4.14893
4.1107
4.09719
4.10755
4.08955
4.04168
4.01543
4.00668
3.98256
3.94195
3.92144
3.90215
3.86262
3.83568
3.81684
3.79521
3.78249
3.76985
3.74991
3.72496
3.69668
3.67771
3.67319
3.67702
3.68936
3.69738
3.69273
3.6807
3.66168
3.63735
3.60953
3.5777
3.53385
3.48212
3.44215
3.43126
3.42888
3.4306
3.43581
3.44019
3.44711
3.4613
3.48985
3.53322
3.59128
3.64691
3.70119
3.74007
3.74877
3.73764
3.73892
3.74718
3.75079
3.74025
3.7295
3.72374
3.71655
3.70329
3.68805
3.67045
3.64974
3.62224
3.5746
3.51009
3.46936
3.45644
3.44954
3.44329
3.43548
3.4236
3.40729
3.38908
3.36893
3.3447
3.32116
3.29953
3.27457
3.2407
3.19929
3.16362
3.13638
3.11105
3.093
3.08765
3.09483
3.12107
3.14008
3.13394
3.11049
3.07481
3.02403
2.96377
2.9168
2.88728
2.86548
2.84757
2.83629
2.82752
2.8198
2.81556
2.81761
2.82499
2.83578
2.8408
2.83549
2.82213
2.80398
2.78094
2.74512
2.68418
2.61
2.56288
2.54201
2.53645
2.53718
2.55368
2.58521
2.60081
2.59565
2.58603
2.57493
2.56173
2.54644
2.52717
2.49454
2.43721
2.37766
2.34688
2.33984
2.33871
2.34825
2.37502
2.3917
2.38802
2.37878
2.36157
2.3388
2.31309
2.28729
2.2611
2.2314
2.19894
2.16949
2.14924
2.14327
2.14379
2.15859
2.18002
2.18218
2.18231
2.18288
1
1
1
1
1
1
1
1
1
1
1
1
1
1
1
1
1
1
1
1
1
1
1
1
1
1
1
1
1
1
1
1
1
1
1
1
1
1
1
1
1
1
1
1
1
1
1
1
1
1
1
1
1
1
1
1
1
1
1
1
1
1
1
1
1
1
1
1
1
1
1.00001
1.00113
1.04015
1.46285
2.44416
3.34917
4.10082
4.24249
4.16409
4.12112
4.13286
4.14547
4.1425
4.07668
4.03411
4.03485
4.0254
3.98457
3.95071
3.9397
3.91019
3.87037
3.84755
3.83129
3.8194
3.80568
3.78997
3.76994
3.74631
3.72565
3.71843
3.72164
3.73175
3.73261
3.72168
3.70563
3.68673
3.66354
3.63614
3.60566
3.56571
3.51906
3.48158
3.46894
3.467
3.46938
3.47835
3.47663
3.47402
3.4779
3.48698
3.50861
3.53506
3.55097
3.55776
3.56729
3.60528
3.64506
3.68143
3.71743
3.74025
3.74169
3.73244
3.72406
3.72379
3.72113
3.70759
3.6924
3.67393
3.65011
3.60935
3.54994
3.50847
3.49286
3.48507
3.47841
3.4725
3.46521
3.45357
3.43626
3.40976
3.37725
3.34904
3.3245
3.29651
3.25916
3.21832
3.18782
3.16393
3.14293
3.13135
3.12898
3.14348
3.17014
3.17981
3.1689
3.14282
3.10286
3.04327
2.98204
2.94275
2.917
2.89408
2.87558
2.86509
2.85691
2.85086
2.85273
2.86275
2.87457
2.87965
2.87533
2.86401
2.84524
2.82322
2.79576
2.75655
2.69988
2.63929
2.59881
2.57785
2.57218
2.57452
2.59406
2.62068
2.62548
2.61735
2.60352
2.58825
2.57389
2.55837
2.53778
2.50473
2.45436
2.40576
2.37867
2.37231
2.37185
2.38291
2.40984
2.42265
2.41594
2.40318
2.38311
2.35626
2.32445
2.29527
2.27146
2.24736
2.22024
2.1933
2.17422
2.16736
2.16616
2.17823
2.20172
2.20604
2.2034
2.20256
2.19757
1
1
1
1
1
1
1
1
1
1
1
1
1
1
1
1
1
1
1
1
1
1
1
1
1
1
1
1
1
1
1
1
1
1
1
1
1
1
1
1
1
1
1
1
1
1
1
1
1
1
1
1
1
1
1
1
1
1
1
1
1
1
1
1
1
1
1
1
1
1
1
1.00001
1.00085
1.02831
1.25662
1.90798
3.25457
4.1204
4.06439
4.1187
4.15974
4.19237
4.1266
4.05791
4.0529
4.06296
4.02692
3.98701
3.96805
3.95667
3.91878
3.88622
3.86678
3.855
3.84383
3.82999
3.81767
3.80268
3.78221
3.76739
3.76275
3.76714
3.76226
3.74697
3.72899
3.70977
3.68902
3.66444
3.63526
3.5984
3.55482
3.51804
3.50417
3.50208
3.50497
3.51423
3.51574
3.50927
3.50662
3.50998
3.51753
3.53124
3.53916
3.53479
3.50647
3.51002
3.53287
3.57362
3.62783
3.68396
3.7189
3.72034
3.71463
3.71229
3.72424
3.72146
3.70919
3.69407
3.67394
3.63836
3.58276
3.5432
3.52698
3.51807
3.51066
3.50474
3.49868
3.48886
3.47175
3.44467
3.4117
3.37965
3.35027
3.31781
3.2778
3.24005
3.21349
3.19166
3.17622
3.16902
3.17127
3.19201
3.21313
3.21382
3.19962
3.17179
3.12692
3.0598
3.00079
2.96897
2.94635
2.92364
2.90544
2.89596
2.8888
2.88609
2.89447
2.91029
2.92083
2.91802
2.90818
2.89084
2.86739
2.83823
2.80235
2.75952
2.71176
2.66874
2.63509
2.61526
2.60977
2.61382
2.63504
2.65539
2.65348
2.64239
2.62472
2.60571
2.58758
2.56891
2.54572
2.51221
2.46895
2.43156
2.40893
2.40358
2.4042
2.41689
2.44326
2.45361
2.44516
2.42943
2.40612
2.37375
2.33502
2.30482
2.28509
2.26577
2.24244
2.21743
2.19981
2.19254
2.18983
2.19871
2.22129
2.22958
2.22624
2.22365
2.2181
2.20725
1
1
1
1
1
1
1
1
1
1
1
1
1
1
1
1
1
1
1
1
1
1
1
1
1
1
1
1
1
1
1
1
1
1
1
1
1
1
1
1
1
1
1
1
1
1
1
1
1
1
1
1
1
1
1
1
1
1
1
1
1
1
1
1
1
1
1
1
1
1
1
1
1
1.00034
1.00901
1.10532
1.69225
3.10712
3.82982
4.03345
4.16503
4.18548
4.11827
4.08853
4.10091
4.06799
4.02672
4.00503
4.00746
3.98062
3.9378
3.91261
3.89733
3.88468
3.8724
3.8635
3.85743
3.83928
3.82298
3.8072
3.79532
3.78449
3.76874
3.75199
3.7332
3.71275
3.69158
3.66555
3.63174
3.59094
3.55436
3.53882
3.53641
3.5395
3.54892
3.55104
3.54537
3.5392
3.53872
3.54106
3.54566
3.54808
3.53815
3.50368
3.48167
3.4942
3.51404
3.53956
3.58445
3.63782
3.67019
3.67952
3.68587
3.70631
3.72146
3.7171
3.70663
3.69143
3.66156
3.60858
3.56981
3.55544
3.54958
3.54254
3.53487
3.52754
3.51732
3.49999
3.47427
3.44355
3.41013
3.37561
3.33797
3.29726
3.26399
3.2402
3.22175
3.21115
3.20705
3.21724
3.24009
3.25085
3.24475
3.22821
3.19815
3.14677
3.07305
3.01834
2.99267
2.97286
2.95176
2.93524
2.92723
2.92248
2.92566
2.94006
2.9576
2.96182
2.953
2.93866
2.91718
2.88799
2.84771
2.80112
2.75858
2.72493
2.69733
2.66963
2.65195
2.64678
2.65246
2.67416
2.68844
2.68338
2.66947
2.64909
2.62608
2.60292
2.57917
2.55233
2.52028
2.48542
2.45656
2.43792
2.43373
2.43561
2.44995
2.47542
2.48392
2.47426
2.45681
2.4302
2.39088
2.34527
2.31664
2.30095
2.28511
2.26445
2.24139
2.22532
2.21825
2.21417
2.22041
2.24089
2.25226
2.24922
2.24628
2.24023
2.22824
2.20919
1
1
1
1
1
1
1
1
1
1
1
1
1
1
1
1
1
1
1
1
1
1
1
1
1
1
1
1
1
1
1
1
1
1
1
1
1
1
1
1
1
1
1
1
1
1
1
1
1
1
1
1
1
1
1
1
1
1
1
1
1
1
1
1
1
1
1
1
1
1
1
1
1
1
1.00006
1.00284
1.06118
1.57529
2.87207
3.6343
4.03543
4.16498
4.1622
4.12777
4.08864
4.06058
4.04936
4.06285
4.03912
3.99042
3.96422
3.95454
3.93656
3.91852
3.90975
3.90696
3.89142
3.87293
3.85604
3.82569
3.80422
3.78907
3.77281
3.75583
3.73713
3.71815
3.69614
3.66563
3.62719
3.59112
3.57421
3.57105
3.57476
3.58478
3.58765
3.58162
3.57466
3.57139
3.56942
3.56754
3.56364
3.54872
3.51528
3.47696
3.4765
3.49082
3.50948
3.53416
3.56442
3.59472
3.61653
3.63722
3.66814
3.70004
3.70983
3.70588
3.69585
3.67281
3.62552
3.58686
3.57558
3.57127
3.57395
3.5662
3.55581
3.54364
3.52499
3.50024
3.47074
3.43554
3.39582
3.35433
3.31655
3.28839
3.26661
3.25231
3.24487
3.24624
3.26457
3.28455
3.28479
3.2751
3.25574
3.22341
3.1656
3.08646
3.03563
3.01373
2.99567
2.97705
2.96382
2.95751
2.9566
2.96653
2.98594
3.00019
2.99709
2.98474
2.96745
2.94377
2.90821
2.85486
2.80055
2.76583
2.74455
2.72418
2.70126
2.68696
2.68215
2.68886
2.70993
2.71947
2.71209
2.69593
2.67327
2.64563
2.61607
2.5879
2.56061
2.53273
2.50545
2.48252
2.46674
2.4635
2.46639
2.48255
2.50736
2.51388
2.50328
2.48404
2.45365
2.40687
2.35691
2.3313
2.31793
2.30398
2.28564
2.26465
2.25004
2.24358
2.23871
2.24266
2.26072
2.27565
2.2728
2.26906
2.26362
2.25117
2.23127
2.19964
1
1
1
1
1
1
1
1
1
1
1
1
1
1
1
1
1
1
1
1
1
1
1
1
1
1
1
1
1
1
1
1
1
1
1
1
1
1
1
1
1
1
1
1
1
1
1
1
1
1
1
1
1
1
1
1
1
1
1
1
1
1
1
1
1
1
1
1
1
1
1
1
1
1
1
1.00002
1.00146
1.04668
1.47902
2.44036
3.35293
4.07423
4.19554
4.10953
4.07569
4.09386
4.1161
4.09617
4.03075
4.00656
4.011
3.99766
3.96945
3.95527
3.95203
3.94072
3.91377
3.89462
3.86583
3.8294
3.81056
3.79562
3.77785
3.75982
3.74299
3.72486
3.69916
3.66477
3.62913
3.61116
3.60699
3.61022
3.62054
3.62487
3.62046
3.61407
3.6074
3.60105
3.59275
3.58113
3.56214
3.53052
3.48803
3.47338
3.48221
3.49694
3.51529
3.53851
3.55993
3.57659
3.59455
3.62131
3.6585
3.68465
3.6868
3.68248
3.66517
3.62638
3.59273
3.58517
3.58302
3.5933
3.5965
3.58507
3.57013
3.54912
3.524
3.49337
3.45406
3.40897
3.36708
3.3352
3.31168
3.29234
3.28065
3.27585
3.28302
3.30724
3.32179
3.31593
3.30356
3.28237
3.24865
3.18579
3.1026
3.05406
3.03357
3.01637
3.00059
2.99083
2.98676
2.9905
3.00587
3.02544
3.03336
3.02495
3.01162
2.99395
2.97008
2.92994
2.86571
2.80807
2.78144
2.76555
2.74849
2.73091
2.72017
2.71592
2.72361
2.74296
2.74796
2.73806
2.71983
2.69391
2.65988
2.62481
2.59625
2.57299
2.55058
2.528
2.50809
2.49557
2.49331
2.49729
2.51554
2.5394
2.54411
2.53323
2.51172
2.47638
2.42135
2.36952
2.34714
2.3349
2.32233
2.3064
2.28739
2.27373
2.26808
2.26314
2.26509
2.28041
2.29884
2.29777
2.2928
2.28743
2.27559
2.2554
2.22224
2.1727
1
1
1
1
1
1
1
1
1
1
1
1
1
1
1
1
1
1
1
1
1
1
1
1
1
1
1
1
1
1
1
1
1
1
1
1
1
1
1
1
1
1
1
1
1
1
1
1
1
1
1
1
1
1
1
1
1
1
1
1
1
1
1
1
1
1
1
1
1
1
1
1
1
1
1
1
1.00001
1.00101
1.02938
1.2575
1.91667
3.23691
4.07379
4.0157
4.07053
4.13107
4.1594
4.0837
4.04375
4.05448
4.0639
4.0254
3.99553
3.9866
3.98299
3.94974
3.92366
3.90286
3.86961
3.83542
3.82003
3.80338
3.78276
3.76656
3.75184
3.73083
3.70173
3.66912
3.65135
3.6458
3.64768
3.65745
3.66243
3.65988
3.65548
3.64648
3.63323
3.61909
3.60209
3.57793
3.5463
3.50507
3.4829
3.48619
3.49997
3.51643
3.53363
3.54852
3.55962
3.57148
3.59038
3.62101
3.64834
3.65594
3.65353
3.63975
3.60893
3.5855
3.58254
3.58514
3.60107
3.61663
3.60944
3.59439
3.57309
3.54694
3.51243
3.46668
3.41896
3.38151
3.35553
3.33427
3.31686
3.30668
3.30341
3.31458
3.34167
3.35111
3.34291
3.32905
3.30782
3.27345
3.20681
3.12098
3.07385
3.05377
3.03764
3.02519
3.01804
3.01613
3.02412
3.04131
3.05631
3.05726
3.04665
3.03352
3.01679
2.99427
2.95373
2.88349
2.82282
2.79922
2.78532
2.77165
2.75945
2.75178
2.74918
2.75878
2.77534
2.77599
2.76351
2.74204
2.71049
2.66908
2.63241
2.60893
2.59074
2.57141
2.55062
2.53246
2.52291
2.52157
2.52786
2.55012
2.57274
2.57466
2.56382
2.54085
2.49985
2.43619
2.38362
2.36351
2.3519
2.34093
2.3272
2.30995
2.29692
2.29203
2.28747
2.28798
2.30066
2.32039
2.32293
2.31749
2.31189
2.30065
2.28064
2.24692
2.19589
2.15499
1
1
1
1
1
1
1
1
1
1
1
1
1
1
1
1
1
1
1
1
1
1
1
1
1
1
1
1
1
1
1
1
1
1
1
1
1
1
1
1
1
1
1
1
1
1
1
1
1
1
1
1
1
1
1
1
1
1
1
1
1
1
1
1
1
1
1
1
1
1
1
1
1
1
1
1
1
1
1.00035
1.00915
1.10781
1.68564
3.05969
3.78023
3.98826
4.1292
4.15516
4.09966
4.0977
4.1141
4.07019
4.03061
4.01607
4.02138
3.98815
3.95218
3.93112
3.9093
3.87343
3.84768
3.83423
3.81035
3.79045
3.77706
3.76143
3.73837
3.71001
3.69462
3.68889
3.68849
3.69577
3.69972
3.69949
3.69579
3.684
3.66626
3.64593
3.62596
3.59908
3.56472
3.52433
3.4989
3.49587
3.50878
3.52624
3.54216
3.55387
3.5615
3.56877
3.58144
3.60464
3.62638
3.63067
3.62506
3.60799
3.58064
3.56849
3.57041
3.57824
3.59769
3.62326
3.62318
3.61207
3.59384
3.56818
3.52859
3.47658
3.4321
3.4025
3.3791
3.35778
3.34221
3.3326
3.32946
3.34184
3.36838
3.3749
3.36601
3.35211
3.33153
3.29657
3.22709
3.13991
3.09486
3.07556
3.06126
3.05193
3.04684
3.04759
3.05835
3.07299
3.08054
3.07594
3.06555
3.05286
3.03687
3.01583
2.9775
2.90656
2.84101
2.81691
2.80416
2.79363
2.78603
2.78127
2.78315
2.79602
2.80945
2.80635
2.79163
2.76558
2.72536
2.67697
2.64374
2.62516
2.60925
2.59168
2.57212
2.55564
2.54817
2.5474
2.55684
2.58434
2.60679
2.60639
2.59544
2.57018
2.52431
2.45358
2.39936
2.37996
2.36913
2.35983
2.34812
2.33257
2.32051
2.31627
2.31229
2.3119
2.32241
2.34142
2.34726
2.34185
2.33634
2.32594
2.3063
2.27217
2.22139
2.18168
2.16341
1
1
1
1
1
1
1
1
1
1
1
1
1
1
1
1
1
1
1
1
1
1
1
1
1
1
1
1
1
1
1
1
1
1
1
1
1
1
1
1
1
1
1
1
1
1
1
1
1
1
1
1
1
1
1
1
1
1
1
1
1
1
1
1
1
1
1
1
1
1
1
1
1
1
1
1
1
1
1
1.00006
1.00291
1.06018
1.55298
2.81871
3.57579
3.9887
4.14244
4.16086
4.13526
4.08778
4.05721
4.04566
4.0591
4.03017
3.98377
3.95614
3.94355
3.91797
3.88443
3.86978
3.84971
3.81979
3.8029
3.78917
3.77383
3.7522
3.74082
3.73564
3.73599
3.7348
3.7344
3.73513
3.73245
3.71762
3.69661
3.67417
3.65127
3.62434
3.58897
3.54557
3.51862
3.51073
3.51856
3.53539
3.55319
3.56582
3.57436
3.58156
3.59243
3.61175
3.6283
3.62727
3.61568
3.58912
3.55783
3.55017
3.55352
3.56367
3.58534
3.61727
3.62604
3.62062
3.60753
3.58301
3.53931
3.48596
3.44997
3.42733
3.40501
3.3843
3.36997
3.3607
3.35756
3.36945
3.39288
3.39621
3.38735
3.37374
3.35313
3.31742
3.24614
3.15879
3.11544
3.09714
3.08593
3.07927
3.07644
3.08022
3.09171
3.10164
3.10188
3.09352
3.08328
3.07103
3.05563
3.03583
3.00089
2.9326
2.86109
2.83379
2.82186
2.81432
2.8094
2.80831
2.81654
2.83471
2.8455
2.83997
2.8232
2.79257
2.74272
2.68826
2.65864
2.64202
2.62711
2.61091
2.59279
2.57813
2.57231
2.57211
2.58504
2.61725
2.63958
2.6382
2.6273
2.60009
2.54816
2.47169
2.41848
2.39749
2.38642
2.37848
2.36894
2.35566
2.3452
2.34153
2.33825
2.33742
2.34593
2.36339
2.37152
2.36611
2.36024
2.35068
2.33157
2.29728
2.24706
2.20902
2.19241
2.18904
1
1
1
1
1
1
1
1
1
1
1
1
1
1
1
1
1
1
1
1
1
1
1
1
1
1
1
1
1
1
1
1
1
1
1
1
1
1
1
1
1
1
1
1
1
1
1
1
1
1
1
1
1
1
1
1
1
1
1
1
1
1
1
1
1
1
1
1
1
1
1
1
1
1
1
1
1
1
1
1
1.00002
1.0014
1.04402
1.45466
2.37718
3.25882
4.03151
4.18201
4.10251
4.06866
4.08153
4.09984
4.08099
4.01483
3.97636
3.97505
3.96229
3.92722
3.90566
3.89493
3.86443
3.8371
3.82003
3.80628
3.79359
3.78593
3.7835
3.78528
3.77801
3.7693
3.76544
3.76091
3.74513
3.7244
3.70184
3.67905
3.65374
3.61848
3.57233
3.54006
3.52957
3.53255
3.5436
3.56174
3.57801
3.59029
3.60111
3.6147
3.63338
3.64559
3.64222
3.62571
3.59139
3.55141
3.54212
3.54209
3.54711
3.56708
3.60294
3.61974
3.61918
3.61179
3.58854
3.54206
3.49351
3.46752
3.45013
3.43115
3.41316
3.40061
3.39176
3.38859
3.40027
3.41982
3.41958
3.40993
3.39623
3.37488
3.33754
3.26459
3.17869
3.13664
3.11866
3.10945
3.10483
3.10504
3.11253
3.1224
3.12701
3.1215
3.11197
3.10155
3.0894
3.07439
3.05537
3.02405
2.96151
2.88473
2.85123
2.83975
2.83392
2.83069
2.83275
2.84829
2.87221
2.88161
2.87478
2.85687
2.82285
2.76491
2.70435
2.67548
2.65913
2.64481
2.62957
2.6129
2.60054
2.59608
2.59739
2.61501
2.65062
2.67169
2.66912
2.65781
2.63019
2.57353
2.49025
2.43846
2.41786
2.40545
2.39754
2.3895
2.3792
2.3713
2.3682
2.36565
2.36487
2.37158
2.38664
2.3964
2.39101
2.3844
2.37493
2.35604
2.32148
2.27218
2.23644
2.22104
2.21815
2.21794
1
1
1
1
1
1
1
1
1
1
1
1
1
1
1
1
1
1
1
1
1
1
1
1
1
1
1
1
1
1
1
1
1
1
1
1
1
1
1
1
1
1
1
1
1
1
1
1
1
1
1
1
1
1
1
1
1
1
1
1
1
1
1
1
1
1
1
1
1
1
1
1
1
1
1
1
1
1
1
1
1
1.00001
1.00092
1.02694
1.23206
1.83595
3.09524
4.01258
3.99549
4.05329
4.113
4.13218
4.06047
3.99906
3.99776
4.00356
3.97098
3.94446
3.93528
3.9181
3.8846
3.86275
3.84507
3.83379
3.83043
3.82827
3.83093
3.8249
3.80937
3.79601
3.78341
3.76893
3.75034
3.72909
3.70709
3.68311
3.65254
3.60765
3.56604
3.55089
3.55167
3.5566
3.56974
3.58801
3.60517
3.6216
3.63979
3.65927
3.66884
3.66376
3.64438
3.60829
3.56018
3.54277
3.54004
3.5407
3.55329
3.58606
3.60862
3.61039
3.60618
3.58421
3.53739
3.49677
3.48016
3.46811
3.45461
3.44127
3.43131
3.42382
3.42164
3.43373
3.44966
3.4465
3.43611
3.42174
3.39899
3.36056
3.28696
3.20192
3.1604
3.1425
3.13397
3.12971
3.13197
3.14321
3.15033
3.14883
3.14061
3.13088
3.12022
3.10811
3.09386
3.07566
3.04774
2.99252
2.91435
2.87203
2.85919
2.85426
2.85171
2.85631
2.87839
2.90789
2.91641
2.90879
2.89013
2.85411
2.7901
2.72388
2.69374
2.67699
2.66268
2.64784
2.63298
2.62324
2.61989
2.62377
2.64697
2.68576
2.70381
2.70005
2.68775
2.65899
2.59922
2.51129
2.45903
2.43863
2.42661
2.41913
2.41173
2.40358
2.39821
2.39593
2.39428
2.39391
2.39942
2.41209
2.42157
2.41676
2.40942
2.39975
2.38062
2.34549
2.29643
2.26272
2.24858
2.24575
2.24488
2.2417
1
1
1
1
1
1
1
1
1
1
1
1
1
1
1
1
1
1
1
1
1
1
1
1
1
1
1
1
1
1
1
1
1
1
1
1
1
1
1
1
1
1
1
1
1
1
1
1
1
1
1
1
1
1
1
1
1
1
1
1
1
1
1
1
1
1
1
1
1
1
1
1
1
1
1
1
1
1
1
1
1
1
1
1.0003
1.00749
1.08975
1.589
2.86669
3.71506
3.95543
4.09214
4.11463
4.05943
4.03383
4.04408
4.01198
3.98544
3.9767
3.97766
3.94389
3.91503
3.89758
3.88063
3.87443
3.87247
3.87216
3.87082
3.85309
3.8324
3.80624
3.78876
3.77299
3.75446
3.73513
3.71382
3.68812
3.65035
3.6009
3.57565
3.5744
3.57639
3.58282
3.59818
3.61806
3.63959
3.6623
3.68249
3.69127
3.68614
3.66557
3.63021
3.58237
3.55486
3.54868
3.54716
3.55457
3.58132
3.60185
3.60287
3.59771
3.57407
3.52701
3.49566
3.48648
3.47995
3.47255
3.4648
3.45776
3.45215
3.45226
3.46695
3.48035
3.47515
3.4651
3.45048
3.42656
3.38781
3.31586
3.23227
3.18915
3.17088
3.16294
3.15893
3.16148
3.173
3.1778
3.17066
3.1602
3.14951
3.1386
3.12692
3.11342
3.09649
3.07191
3.02493
2.94944
2.89798
2.88186
2.87673
2.87437
2.8808
2.90828
2.94273
2.95052
2.94207
2.92255
2.88466
2.81503
2.74329
2.71251
2.69571
2.68123
2.66689
2.65426
2.64673
2.64444
2.6519
2.68092
2.72058
2.73504
2.72983
2.71628
2.68743
2.62569
2.53402
2.48078
2.46026
2.44914
2.44291
2.43692
2.43038
2.42606
2.42444
2.42361
2.42359
2.42849
2.43968
2.44722
2.44245
2.43533
2.42573
2.40618
2.3701
2.32054
2.28791
2.27464
2.272
2.27053
2.26619
2.26028
1
1
1
1
1
1
1
1
1
1
1
1
1
1
1
1
1
1
1
1
1
1
1
1
1
1
1
1
1
1
1
1
1
1
1
1
1
1
1
1
1
1
1
1
1
1
1
1
1
1
1
1
1
1
1
1
1
1
1
1
1
1
1
1
1
1
1
1
1
1
1
1
1
1
1
1
1
1
1
1
1
1
1
1
1.00004
1.00212
1.04609
1.44097
2.61657
3.46894
3.90978
4.08845
4.1163
4.08485
4.03591
4.01735
4.0196
4.03496
4.00683
3.96461
3.94744
3.93824
3.92092
3.91303
3.90968
3.9089
3.89045
3.8656
3.83576
3.80831
3.79231
3.77778
3.76027
3.74228
3.7208
3.69213
3.64948
3.60935
3.60253
3.60353
3.60522
3.61428
3.63179
3.65439
3.679
3.69944
3.70858
3.70486
3.68556
3.65286
3.61054
3.5784
3.56911
3.5667
3.5715
3.5931
3.60872
3.60635
3.59598
3.56776
3.5172
3.49145
3.48785
3.48558
3.48361
3.48049
3.47698
3.47411
3.47625
3.49355
3.50825
3.50258
3.49336
3.48032
3.45662
3.41845
3.34995
3.26853
3.22321
3.20469
3.19787
3.19485
3.19826
3.20619
3.20645
3.19717
3.18328
3.16916
3.15739
3.14587
3.13334
3.11815
3.09612
3.05704
2.98829
2.92938
2.90795
2.90259
2.90016
2.90774
2.93897
2.97647
2.98384
2.9746
2.95431
2.91554
2.84085
2.76154
2.7299
2.71448
2.70123
2.68811
2.6775
2.67159
2.67078
2.68314
2.71695
2.75381
2.76297
2.75698
2.74287
2.71375
2.65223
2.55847
2.50392
2.48372
2.47441
2.46913
2.4644
2.45964
2.45596
2.45408
2.45318
2.45318
2.45813
2.46866
2.47339
2.46793
2.46147
2.4524
2.43263
2.39537
2.34516
2.31318
2.3003
2.29731
2.29549
2.29051
2.28411
2.27151
1
1
1
1
1
1
1
1
1
1
1
1
1
1
1
1
1
1
1
1
1
1
1
1
1
1
1
1
1
1
1
1
1
1
1
1
1
1
1
1
1
1
1
1
1
1
1
1
1
1
1
1
1
1
1
1
1
1
1
1
1
1
1
1
1
1
1
1
1
1
1
1
1
1
1
1
1
1
1
1
1
1
1
1
1
1.00001
1.00091
1.03043
1.34167
2.18734
3.06697
3.9047
4.13891
4.06804
4.03032
4.05794
4.08399
4.07002
4.00781
3.97754
3.98329
3.9715
3.94887
3.93904
3.9378
3.91963
3.89237
3.86733
3.83934
3.81112
3.79716
3.785
3.76797
3.74932
3.72737
3.69679
3.65665
3.63764
3.63798
3.63766
3.64025
3.65135
3.66978
3.69112
3.7097
3.71915
3.71637
3.7011
3.67319
3.63893
3.60927
3.59795
3.59642
3.60363
3.62057
3.62689
3.62058
3.60383
3.56897
3.51383
3.48851
3.48701
3.48726
3.48828
3.48969
3.49029
3.49012
3.49361
3.5112
3.52972
3.52595
3.51823
3.50735
3.48604
3.45014
3.38572
3.30803
3.2614
3.24306
3.23764
3.23658
3.24136
3.24409
3.23942
3.22873
3.2121
3.19244
3.1779
3.16656
3.15466
3.14064
3.12135
3.08871
3.02864
2.96523
2.9374
2.93155
2.9292
2.9382
2.9717
3.0092
3.01512
3.00537
2.98482
2.94607
2.86859
2.78145
2.74672
2.73249
2.72192
2.71161
2.70292
2.69847
2.70098
2.71949
2.75579
2.7853
2.7879
2.78123
2.7664
2.73751
2.67644
2.58321
2.52801
2.50902
2.50181
2.49768
2.49416
2.49046
2.48736
2.48517
2.48371
2.48318
2.48762
2.49792
2.50006
2.49395
2.48777
2.47883
2.45912
2.42163
2.37018
2.33828
2.32632
2.32294
2.32049
2.31518
2.3086
2.29737
2.2756
1
1
1
1
1
1
1
1
1
1
1
1
1
1
1
1
1
1
1
1
1
1
1
1
1
1
1
1
1
1
1
1
1
1
1
1
1
1
1
1
1
1
1
1
1
1
1
1
1
1
1
1
1
1
1
1
1
1
1
1
1
1
1
1
1
1
1
1
1
1
1
1
1
1
1
1
1
1
1
1
1
1
1
1
1
1
1
1.00053
1.01677
1.1638
1.67845
2.79279
3.91912
3.95647
3.99912
4.08165
4.1214
4.06927
4.00693
4.00891
4.01659
3.98413
3.96214
3.95562
3.94689
3.91733
3.89201
3.87175
3.84462
3.81824
3.80702
3.79465
3.77602
3.75751
3.73583
3.70621
3.68554
3.67964
3.67789
3.67613
3.67792
3.68811
3.70292
3.71715
3.72473
3.72138
3.7104
3.68918
3.66337
3.64037
3.63168
3.63194
3.64237
3.65821
3.65675
3.64442
3.61965
3.57732
3.51739
3.48916
3.48633
3.487
3.49045
3.49578