/*--------------------------------*- C++ -*----------------------------------*\
  =========                 |
  \\      /  F ield         | OpenFOAM: The Open Source CFD Toolbox
   \\    /   O peration     | Website:  https://openfoam.org
    \\  /    A nd           | Version:  7
     \\/     M anipulation  |
\*---------------------------------------------------------------------------*/
FoamFile
{
    version     2.0;
    format      ascii;
    class       volScalarField;
    location    "2.6";
    object      T;
}
// * * * * * * * * * * * * * * * * * * * * * * * * * * * * * * * * * * * * * //

dimensions      [0 0 0 1 0 0 0];

internalField   nonuniform List<scalar> 
4048
(
1
1
1
1
1
1
1
1
1
1
1
1
1
1
1
1.02682
2.3102
2.7296
2.74771
2.76802
2.78571
2.80213
2.81641
2.82811
1
1
1
1
1
1
1
1
1
1
1
1
1
1
1
1.00212
2.28222
2.72456
2.74414
2.76339
2.78035
2.79553
2.80727
2.81483
1
1
1
1
1
1
1
1
1
1
1
1
1
1
1
1.00002
2.22053
2.71577
2.73773
2.75418
2.76687
2.7772
2.78872
2.80455
1
1
1
1
1
1
1
1
1
1
1
1
1
1
1
1
2.11944
2.69608
2.72778
2.74213
2.75181
2.76296
2.78228
2.82787
1
1
1
1
1
1
1
1
1
1
1
1
1
1
1
1
1.97058
2.65621
2.70767
2.72311
2.73107
2.73445
2.71981
2.72503
1
1
1
1
1
1
1
1
1
1
1
1
1
1
1
1
1.76085
2.58258
2.67508
2.70016
2.70853
2.70346
2.687
2.69164
1
1
1
1
1
1
1
1
1
1
1
1
1
1
1
1
1.45095
2.45362
2.63782
2.66926
2.68241
2.67597
2.65759
2.65082
1
1
1
1
1
1
1
1
1
1
1
1
1
1
1
1
1.06175
2.30567
2.63033
2.63443
2.64335
2.641
2.63042
2.62087
1
1
1
1
1
1
1
1
1
1
1
1
1
1
1
1
1.00097
2.12741
2.57146
2.59317
2.60653
2.60502
2.6009
2.59454
1
1
1
1
1
1
1
1
1
1
1
1
1
1
1
1
0.99999
1.77
2.48413
2.56316
2.57716
2.57692
2.57464
2.56831
1
1
1
1
1
1
1
1
1
1
1
1
1
1
1
1
0.999998
1.25012
2.32494
2.55196
2.54441
2.54397
2.54218
2.53514
1
1
1
1
1
1
1
1
1
1
1
1
1
1
1
1
1
1.01639
2.14939
2.50074
2.50087
2.50708
2.50708
2.50113
1
1
1
1
1
1
1
1
1
1
1
1
1
1
1
1
1
1.00001
1.70315
2.3938
2.47857
2.4844
2.48058
2.47129
1
1
1
1
1
1
1
1
1
1
1
1
1
1
1
1
1
0.999996
1.13701
2.21874
2.46504
2.45884
2.45278
2.44042
1
1
1
1
1
1
1
1
1
1
1
1
1
1
1
1
1
0.999999
1.0042
1.91305
2.38576
2.43273
2.42353
2.41276
1
1
1
1
1
1
1
1
1
1
1
1
1
1
1
1
1
1
0.999994
1.27205
2.21399
2.41022
2.39561
2.38579
1
1
1
1
1
1
1
1
1
1
1
1
1
1
1
1
1
1
0.999998
1.01715
1.97837
2.359
2.35902
2.35247
1
1
1
1
1
1
1
1
1
1
1
1
1
1
1
1
1
1
1
1.00004
1.3563
2.19265
2.34299
2.32602
1
1
1
1
1
1
1
1
1
1
1
1
1
1
1
1
1
1
1
1
1.03025
1.956
2.30612
2.29877
1
1
1
1
1
1
1
1
1
1
1
1
1
1
1
1
1
1
1
1
1.00019
1.35315
2.13551
2.28292
1
1
1
1
1
1
1
1
1
1
1
1
1
1
1
1
1
1
1
1
1
1.02904
1.83369
2.24164
1
1
1
1
1
1
1
1
1
1
1
1
1
1
1
1
1
1
1
1
1
1.00024
1.25676
2.04495
1
1
1
1
1
1
1
1
1
1
1
1
1
1
1
1
1
1
1
1
1
1
1.01465
1.6107
1
1
1
1
1
1
1
1
1
1
1
1
1
1
1
1
1
1
1
1
1
1
1.00011
1.11906
1
1
1
1
1
1
1
1
1
1
1
1
1
1
1
1
1
1
1
1
1
1
1
1.0033
1
1
1
1
1
1
1
1
1
1
1
1
1
1
1
1
1
1
1
1
1
1
1
1.00002
1
1
1
1
1
1
1
1
1
1
1
1
1
1
1
1
1
1
1
1
1
1
1
1
1
1
1
1
1
1
1
1
1
1
1
1
1
1
1
1
1
1
1
1
1
1
1
1
1
1
1
1
1
1
1
1
1
1
1
1
1
1
1
1
1
1
1
1
1
1
1
1
1
1
1
1
1
1
1
1
1
1
1
1
1
1
1
1
1
1
1
1
1
1
1
1
1
1
1
1
1
1
1
1
1
1
1
1
1
1
1
1
1
1
1
1
1
1
1
1
1
1
1
1
1
1
1
1
1
1
1
1
1
1
1
1
1
1
1
1
1
1
1
1
1
1
1
1
1
1
1
1
1
1
1
1
1
1
1
1
1
1
1
1
1
1
1
1
1
1
1
1
1
1
1
1
1
1
1
1
1
1
1
1
1
1
1
1
1
1
1
1
1
1
1
1
1
1
1
1
1
1
1
1
1
1
1
1
1
1
1
1
1
1
1
1
1
1
1
1
1
1
1
1
1
1
1
1
1
1
1
1
1
1
1
1
1
1
1
1
1
1
1
1
1
1
1
1
1
1
1
1
1
1
1
1
1
1
1
1
1
1
1
1
1
1
1
1
1
1
1
1
1
1
1
1
1
1
1
1
1
1
1
1
1
1
1
1
1
1
1
1
1
1
1
1
1
1
1
1
1
1
1
1
1
1
1
1
1
1
1
1
1
1
1
1
1
1
1
1
1
1
1
1
1
1
1
1
1
1
1
1
1
1
1
1
2.59047
2.72042
2.77278
2.80237
2.71704
2.79658
2.80681
2.81912
2.67483
2.73724
2.76999
2.80274
2.63439
2.68104
2.74062
2.83838
2.5977
2.61491
2.62104
2.57742
2.55908
2.54647
2.5083
2.41182
2.51987
2.49497
2.43627
2.32481
2.48444
2.4536
2.38877
2.28716
2.45291
2.41871
2.35899
2.27408
2.42058
2.38797
2.3359
2.26367
2.39287
2.3619
2.31634
2.25563
2.36662
2.33708
2.29627
2.24488
2.33666
2.31038
2.27532
2.23173
2.30882
2.28567
2.25667
2.21936
2.2807
2.25964
2.23454
2.20273
2.25898
2.23868
2.2147
2.18624
2.23528
2.21608
2.19385
2.16813
2.22063
2.19504
2.17609
2.15288
2.10983
2.18294
2.16167
2.13946
1.85954
2.1577
2.14586
2.12659
1.34194
1.97838
2.12485
2.10802
1.02998
1.58542
2.01676
2.09543
1.00039
1.11826
1.75533
2.04273
1
1.00363
1.26641
1.84276
1
1.00002
1.01839
1.41259
1
1
1.00022
1.05356
1
1
1
1.00108
1
1
1
1.00001
1
1
1
1
1
1
1
1
1
1
1
1
1
1
1
1
1
1
1
1
1
1
1
1
1
1
1
1
1
1
1
1
1.89833
1.46063
1.35362
1.41097
1.45736
1.53831
1.62704
1.68487
1.69193
1.6978
1.72283
1.74855
1.7555
1.7559
1.75336
1.74808
1.74824
1.7478
1.74248
1.72933
1.72007
1.7192
1.7201
1.72203
1.72247
1.72099
1.71628
1.71158
1.70844
1.70669
1.70504
1.70409
1.70463
1.70651
1.70609
1.70265
1.69773
1.68814
1.68775
1.72851
2.23505
2.80726
2.7778
2.73989
2.70348
2.66188
2.62855
2.60381
2.57747
2.55212
2.53081
2.51629
2.50593
2.49302
2.47445
2.45265
2.4281
2.40438
2.38499
2.3691
2.35522
2.34288
2.33166
2.32198
2.31079
2.29647
2.28233
2.26627
2.24554
2.22574
2.21354
2.20369
2.19591
2.19322
2.18856
2.18022
2.17087
2.15483
2.12621
2.10265
2.09138
2.08249
2.07658
2.07657
2.07168
2.06187
2.05142
2.03323
2.00641
1.98966
1.98301
1.97292
2.0702
1.81373
1.64448
1.59904
1.55746
1.54774
1.53836
1.51432
1.52379
1.54809
1.58513
1.62612
1.65094
1.6661
1.67576
1.67856
1.68322
1.68811
1.68741
1.68174
1.68146
1.68438
1.68815
1.69159
1.6944
1.69429
1.69247
1.68934
1.68609
1.68426
1.68227
1.68106
1.6814
1.68137
1.68065
1.67809
1.67334
1.67626
1.71676
1.86333
2.1021
2.55613
2.65616
2.6528
2.62723
2.59632
2.57186
2.5584
2.54837
2.52926
2.50522
2.48651
2.47018
2.45631
2.44384
2.42847
2.41018
2.39208
2.37487
2.35761
2.34032
2.32517
2.31269
2.30077
2.29067
2.28036
2.2685
2.25639
2.24228
2.22444
2.2074
2.19615
2.18725
2.18134
2.17384
2.16538
2.15656
2.14473
2.12674
2.10531
2.08903
2.07925
2.07199
2.06718
2.05988
2.05105
2.04126
2.02768
2.00847
1.9897
1.98022
1.96981
2.0928
1.92477
1.77931
1.67581
1.59269
1.51918
1.48228
1.43649
1.42907
1.45109
1.48318
1.51205
1.53227
1.5471
1.56303
1.57557
1.58994
1.60607
1.61889
1.62025
1.62271
1.62741
1.62829
1.62734
1.62756
1.62947
1.62964
1.62824
1.62675
1.62673
1.62731
1.63024
1.63401
1.63401
1.63166
1.62637
1.62871
1.66519
1.83206
2.00919
2.0307
2.16797
2.3997
2.5093
2.53469
2.51808
2.49373
2.47254
2.46644
2.45807
2.44688
2.43008
2.40922
2.39146
2.3767
2.36297
2.35089
2.34033
2.33041
2.32006
2.3068
2.2879
2.26947
2.25607
2.24443
2.23372
2.22432
2.21691
2.21038
2.20247
2.18998
2.17375
2.16088
2.15074
2.14146
2.13252
2.123
2.11276
2.10453
2.09555
2.08187
2.06527
2.05345
2.0439
2.03483
2.02547
2.01516
2.00419
1.99421
1.98376
1.97277
1.95772
2.12221
1.97866
1.86225
1.75824
1.66776
1.58594
1.54252
1.49653
1.44957
1.43877
1.43411
1.42629
1.43041
1.44176
1.46078
1.48057
1.49819
1.51424
1.53197
1.54367
1.55193
1.56181
1.56782
1.5692
1.5686
1.56801
1.56539
1.56283
1.56162
1.56214
1.56386
1.56719
1.57213
1.57355
1.5718
1.57582
1.60376
1.76238
1.95322
2.02723
2.00579
1.99443
2.08119
2.25368
2.3754
2.40409
2.41181
2.39032
2.38105
2.37085
2.36397
2.35357
2.33798
2.31837
2.30152
2.28901
2.27841
2.27061
2.26343
2.25615
2.24832
2.23453
2.21366
2.19864
2.18838
2.1787
2.17086
2.16555
2.1617
2.15733
2.14975
2.13574
2.11794
2.10467
2.09466
2.08481
2.07568
2.07076
2.06782
2.06421
2.05669
2.04314
2.02507
2.01012
1.99831
1.98672
1.97605
1.96941
1.96458
1.95935
1.95293
1.93838
2.15129
2.02689
1.92227
1.8311
1.73655
1.66132
1.60803
1.55652
1.50354
1.46555
1.43773
1.40702
1.39634
1.40203
1.40944
1.42104
1.43444
1.45027
1.46795
1.48182
1.49252
1.50229
1.51251
1.52006
1.52334
1.52724
1.53014
1.52885
1.52706
1.52573
1.52531
1.52463
1.52476
1.52561
1.53177
1.56531
1.6943
1.9226
1.99376
1.99363
1.97845
1.96555
1.9593
2.01447
2.15857
2.27305
2.33073
2.34198
2.33734
2.32535
2.31077
2.29678
2.2823
2.26305
2.24614
2.23601
2.227
2.21836
2.21003
2.20254
2.19563
2.18567
2.16744
2.14602
2.13374
2.12632
2.1207
2.11723
2.11483
2.11076
2.10433
2.09213
2.07051
2.05052
2.03984
2.03327
2.02985
2.02844
2.02833
2.02582
2.02019
2.01034
1.99098
1.96827
1.95347
1.9437
1.93732
1.93298
1.93025
1.9264
1.92174
1.91041
2.16654
2.06667
1.97099
1.88791
1.80084
1.72721
1.67282
1.62026
1.5659
1.5242
1.48654
1.45108
1.42151
1.41826
1.40783
1.40241
1.4028
1.41033
1.42123
1.43379
1.44845
1.46057
1.47391
1.4836
1.4879
1.49401
1.50136
1.50505
1.50746
1.50898
1.50898
1.50712
1.50283
1.50493
1.54221
1.6911
1.87747
1.98784
1.98379
1.97412
1.9616
1.95126
1.94393
1.93462
1.96344
2.07164
2.21102
2.27756
2.29349
2.29923
2.28596
2.26945
2.25202
2.23416
2.21561
2.20059
2.19086
2.18257
2.17486
2.16797
2.16001
2.15111
2.13818
2.11765
2.09841
2.0895
2.08375
2.07945
2.07615
2.07126
2.06467
2.05389
2.03396
2.00994
1.99828
1.99459
1.99206
1.99099
1.99059
1.98775
1.98294
1.97534
1.95715
1.92982
1.91347
1.90672
1.90181
1.89838
1.89697
1.89369
1.88976
1.88048
2.17592
2.09285
2.01227
1.93424
1.85598
1.78841
1.73154
1.67654
1.62195
1.58124
1.54141
1.50065
1.46371
1.44176
1.4209
1.40047
1.39622
1.39996
1.40176
1.4027
1.41034
1.42042
1.43279
1.44614
1.45757
1.46714
1.4782
1.48522
1.48909
1.49298
1.49287
1.49117
1.49276
1.52355
1.70423
1.88053
1.97515
1.9859
1.97894
1.96628
1.95026
1.93869
1.92936
1.92351
1.91053
1.92253
2.0013
2.13453
2.22525
2.25788
2.26246
2.25545
2.23767
2.22019
2.20266
2.18289
2.16557
2.15717
2.15114
2.14558
2.13707
2.12765
2.11692
2.10222
2.08236
2.06667
2.0591
2.05353
2.04857
2.04262
2.03453
2.02307
2.00752
1.98934
1.97477
1.96876
1.96571
1.96298
1.9604
1.95693
1.95186
1.94254
1.92562
1.90428
1.88892
1.88102
1.87614
1.87238
1.8699
1.86709
1.86381
1.8551
2.17675
2.10757
2.0405
1.96843
1.89762
1.83993
1.78176
1.72467
1.67333
1.63431
1.59262
1.55284
1.51761
1.49019
1.46355
1.43416
1.42048
1.41501
1.40376
1.39765
1.39478
1.39384
1.39496
1.40165
1.41678
1.43353
1.45018
1.4643
1.47162
1.47801
1.47791
1.48075
1.51105
1.68053
1.91098
1.96803
1.97675
1.98126
1.97058
1.9548
1.93657
1.92539
1.91716
1.91144
1.90327
1.88914
1.88507
1.92601
2.03345
2.15001
2.1977
2.21827
2.22241
2.20977
2.19415
2.17407
2.15282
2.13693
2.12859
2.12094
2.11465
2.10723
2.09841
2.089
2.07587
2.05756
2.04103
2.03155
2.02444
2.01651
2.00732
1.99747
1.98793
1.97851
1.96649
1.95257
1.94503
1.94071
1.93574
1.92905
1.91964
1.9088
1.89755
1.88689
1.8758
1.86488
1.85857
1.85434
1.8506
1.84624
1.84142
1.8264
2.17474
2.11767
2.05927
1.99331
1.93342
1.87932
1.82402
1.7645
1.72215
1.68113
1.63934
1.59513
1.56626
1.53867
1.50819
1.47749
1.45445
1.43518
1.41357
1.39697
1.3895
1.3873
1.38518
1.38564
1.3903
1.40038
1.41471
1.42876
1.44113
1.45012
1.46025
1.50122
1.66052
1.89863
1.97263
1.98381
1.98912
1.98086
1.96053
1.937
1.91817
1.90821
1.89958
1.89479
1.88816
1.87333
1.85792
1.83854
1.85243
1.92876
2.04284
2.13088
2.17426
2.18559
2.18006
2.1622
2.14246
2.12225
2.10676
2.09865
2.09128
2.0849
2.07897
2.07214
2.06368
2.05058
2.031
2.01181
1.99992
1.99192
1.98469
1.97794
1.97199
1.9663
1.95847
1.94477
1.92872
1.91982
1.91298
1.90425
1.89417
1.88477
1.87821
1.87247
1.86495
1.85435
1.84586
1.84154
1.8362
1.82868
1.81852
1.80258
2.1704
2.12105
2.06923
2.01015
1.95815
1.90904
1.85531
1.79988
1.76116
1.72009
1.67872
1.63524
1.60869
1.57893
1.54808
1.51574
1.49425
1.47163
1.44725
1.4209
1.40909
1.40186
1.38971
1.38443
1.38556
1.38634
1.38566
1.389
1.39859
1.41035
1.45557
1.64957
1.85881
1.96996
1.98849
1.98636
1.97719
1.96166
1.94004
1.91681
1.90009
1.89012
1.88295
1.87745
1.86836
1.85587
1.83992
1.81973
1.79886
1.79913
1.83698
1.93501
2.0468
2.11342
2.13729
2.13631
2.12671
2.1106
2.08924
2.07404
2.06637
2.06014
2.05584
2.05085
2.0442
2.03494
2.01993
1.99689
1.97777
1.96901
1.96312
1.95852
1.95508
1.95053
1.94508
1.93608
1.91879
1.89937
1.88772
1.87963
1.8725
1.86754
1.86347
1.85908
1.8535
1.84492
1.83227
1.81988
1.81233
1.80566
1.79792
1.78485
2.16142
2.11873
2.07356
2.02263
1.97602
1.93225
1.88015
1.83144
1.79381
1.7553
1.71126
1.67238
1.64597
1.61498
1.58355
1.55112
1.52981
1.50534
1.47977
1.45167
1.43556
1.42134
1.40504
1.38864
1.38342
1.38218
1.37746
1.37697
1.37931
1.41474
1.60856
1.82471
1.92809
1.94519
1.95504
1.95353
1.9464
1.93085
1.91343
1.89553
1.87932
1.86933
1.86375
1.85846
1.8471
1.83449
1.8204
1.80339
1.78135
1.7672
1.75698
1.77125
1.83958
1.94638
2.03774
2.07699
2.09061
2.08824
2.07049
2.05089
2.04168
2.03494
2.03003
2.02497
2.01927
2.01234
2.001
1.9822
1.96074
1.9485
1.9428
1.93838
1.93509
1.93178
1.92742
1.9214
1.9081
1.88394
1.86584
1.85779
1.85279
1.84933
1.84735
1.84416
1.83996
1.83306
1.81882
1.80045
1.78898
1.78281
1.77825
1.77173
2.15085
2.11369
2.07324
2.02926
1.98817
1.94766
1.89981
1.85655
1.82044
1.78331
1.73802
1.70468
1.67685
1.64654
1.61203
1.58262
1.562
1.53652
1.51113
1.48311
1.46721
1.45032
1.43201
1.41149
1.4016
1.39282
1.38098
1.38185
1.40782
1.56401
1.82069
1.87722
1.88751
1.88555
1.89232
1.90048
1.89937
1.89139
1.87953
1.86871
1.85696
1.84678
1.84224
1.83396
1.82251
1.81053
1.7982
1.78472
1.76862
1.7504
1.73484
1.72432
1.72586
1.75517
1.83594
1.93821
2.0064
2.03582
2.0351
2.02992
2.0188
2.01135
2.00558
1.99817
1.99169
1.9848
1.97438
1.96053
1.94586
1.93241
1.92291
1.91778
1.91332
1.90901
1.905
1.90032
1.89106
1.87272
1.85154
1.83969
1.83379
1.82976
1.82716
1.82497
1.82161
1.81678
1.80539
1.78339
1.76727
1.76264
1.76144
1.75821
2.1379
2.1061
2.0701
2.03106
1.99545
1.9579
1.91472
1.87669
1.84216
1.80459
1.7618
1.73192
1.70351
1.67341
1.63685
1.6113
1.58982
1.56547
1.53788
1.51233
1.49769
1.47961
1.45922
1.43742
1.42029
1.40633
1.39318
1.41858
1.57455
1.81214
1.88429
1.8745
1.86132
1.85278
1.84809
1.84887
1.84458
1.83813
1.83318
1.83037
1.82545
1.81703
1.80864
1.80464
1.79554
1.78507
1.7748
1.76451
1.75298
1.73902
1.72188
1.70318
1.69335
1.68556
1.69366
1.73923
1.82874
1.91864
1.96899
1.98865
1.98682
1.98643
1.98113
1.97309
1.96608
1.95692
1.94484
1.93404
1.92542
1.91661
1.90656
1.89773
1.89128
1.88526
1.87946
1.87378
1.86678
1.85582
1.84095
1.82595
1.8148
1.80867
1.80536
1.80396
1.80293
1.79871
1.78883
1.77013
1.75211
1.74693
1.74605
1.74332
2.12579
2.09768
2.06536
2.03034
1.99791
1.96357
1.92449
1.89111
1.85799
1.82114
1.78187
1.75426
1.72505
1.69457
1.6599
1.63765
1.61499
1.59027
1.56134
1.5391
1.52428
1.50541
1.48492
1.46271
1.44342
1.43085
1.45581
1.61522
1.84017
1.91746
1.89497
1.87085
1.84793
1.83424
1.82703
1.81836
1.80947
1.80049
1.78953
1.77965
1.77308
1.76856
1.76673
1.7625
1.75512
1.74996
1.74798
1.74214
1.73275
1.72057
1.70525
1.68769
1.67181
1.6616
1.65607
1.65135
1.66873
1.72591
1.81356
1.89411
1.92924
1.93628
1.94623
1.94575
1.94004
1.93078
1.9196
1.90918
1.90191
1.89544
1.88776
1.87831
1.86974
1.86223
1.85476
1.84755
1.84095
1.8341
1.82501
1.81302
1.80086
1.79169
1.7854
1.7801
1.7738
1.76746
1.76123
1.75336
1.74542
1.7363
1.73072
1.72588
2.11387
2.087
2.05897
2.02835
1.99659
1.96326
1.92943
1.89896
1.86875
1.83187
1.79712
1.77147
1.74391
1.71183
1.67945
1.66004
1.63656
1.61204
1.58176
1.56421
1.54826
1.52844
1.50694
1.48417
1.46767
1.49099
1.64875
1.87727
1.95232
1.93644
1.89845
1.86704
1.84497
1.82785
1.8133
1.79909
1.78523
1.77447
1.7663
1.75781
1.74042
1.72212
1.71341
1.70956
1.70597
1.70595
1.70538
1.70492
1.70377
1.69499
1.68215
1.66855
1.65447
1.64077
1.63218
1.62669
1.62195
1.61976
1.64286
1.70516
1.78985
1.84593
1.89126
1.89969
1.90546
1.90627
1.89897
1.88971
1.8808
1.87231
1.86376
1.85409
1.84534
1.83791
1.8309
1.82468
1.81864
1.81212
1.80449
1.79527
1.78512
1.77544
1.76701
1.75893
1.75072
1.74211
1.73503
1.73255
1.73011
1.72557
1.71968
1.70928
2.10347
2.07737
2.05114
2.02316
1.99336
1.96289
1.93133
1.90089
1.87323
1.84097
1.81104
1.78512
1.75827
1.72535
1.69807
1.67934
1.65653
1.63053
1.60107
1.58581
1.56875
1.54882
1.52683
1.50797
1.53364
1.69268
1.9087
1.9826
1.96925
1.9399
1.9082
1.87798
1.85057
1.8284
1.80905
1.7912
1.77479
1.76047
1.74835
1.73711
1.72501
1.7066
1.68386
1.66969
1.66144
1.65874
1.65633
1.65654
1.65917
1.65808
1.65036
1.63911
1.62982
1.62022
1.61309
1.60767
1.5965
1.58732
1.58197
1.5852
1.61183
1.67068
1.75282
1.80579
1.8423
1.86173
1.87207
1.87035
1.86123
1.85059
1.84093
1.82952
1.81747
1.80952
1.80502
1.80108
1.79694
1.79192
1.78523
1.77626
1.76543
1.75521
1.74702
1.73975
1.73222
1.72401
1.71672
1.7111
1.70728
1.70452
1.70084
1.69153
2.08654
2.0646
2.04038
2.01421
1.98759
1.96079
1.93127
1.90322
1.87752
1.84694
1.81907
1.79537
1.77111
1.73849
1.71449
1.69449
1.67128
1.64516
1.62066
1.60461
1.58469
1.56512
1.54615
1.57454
1.74992
1.95182
2.01264
1.99674
1.97016
1.94485
1.92066
1.89253
1.86002
1.83157
1.80902
1.79003
1.77296
1.75668
1.74138
1.72653
1.7113
1.6934
1.67139
1.64957
1.63624
1.6274
1.62069
1.61589
1.61078
1.60592
1.60413
1.59824
1.59413
1.59019
1.58313
1.57956
1.57176
1.563
1.555
1.54971
1.54271
1.54925
1.57963
1.64406
1.71503
1.77315
1.81452
1.82469
1.8277
1.82648
1.82005
1.80993
1.79632
1.78394
1.77885
1.77528
1.77217
1.76951
1.76613
1.75971
1.74765
1.73204
1.72195
1.71728
1.71257
1.70809
1.70288
1.69527
1.68595
1.68066
1.67955
1.67457
2.07414
2.05178
2.02991
2.0064
1.98261
1.95795
1.93172
1.90529
1.88049
1.85394
1.82673
1.80478
1.78044
1.74824
1.72709
1.70776
1.68665
1.65818
1.63787
1.61831
1.59914
1.58379
1.61646
1.80968
2.00257
2.04941
2.03345
2.00379
1.97537
1.95136
1.92677
1.89983
1.8706
1.84016
1.81364
1.79193
1.77243
1.75428
1.73726
1.71983
1.70165
1.68385
1.66436
1.64221
1.62148
1.60709
1.59783
1.59089
1.58088
1.5725
1.56513
1.5555
1.54885
1.54287
1.53672
1.53931
1.54018
1.53374
1.52599
1.52199
1.51423
1.5105
1.50883
1.51845
1.55078
1.61593
1.69163
1.74451
1.769
1.7829
1.78895
1.78642
1.77648
1.76426
1.75371
1.74814
1.74592
1.7456
1.7448
1.74169
1.73353
1.71636
1.69705
1.68886
1.68774
1.68669
1.68361
1.67861
1.67249
1.66491
1.65693
1.64562
2.06201
2.04251
2.01934
1.99826
1.977
1.95354
1.92862
1.90635
1.88232
1.85566
1.83006
1.80973
1.78662
1.75936
1.73584
1.71697
1.69477
1.66929
1.64999
1.63141
1.61713
1.6565
1.85929
2.06873
2.0821
2.05994
2.02898
2.00012
1.97614
1.95209
1.92684
1.90179
1.87661
1.84906
1.81997
1.79428
1.773
1.75405
1.73556
1.7164
1.69723
1.67855
1.65941
1.63817
1.61493
1.59566
1.5822
1.57081
1.5597
1.55005
1.5397
1.52883
1.51958
1.50641
1.49445
1.49124
1.49394
1.49224
1.49206
1.49254
1.48585
1.47795
1.47464
1.47066
1.4721
1.48468
1.52315
1.59023
1.65372
1.7015
1.73434
1.74568
1.7488
1.74554
1.7367
1.72863
1.72044
1.71662
1.71711
1.71867
1.7151
1.70299
1.6832
1.66978
1.66483
1.66216
1.6615
1.66117
1.65802
1.65204
1.64049
1.62212
2.03294
2.02819
2.00774
1.98801
1.96875
1.94696
1.92489
1.90431
1.88156
1.85483
1.83375
1.81469
1.79045
1.76345
1.74451
1.72517
1.70438
1.67782
1.65714
1.64898
1.70188
1.90875
2.11987
2.11885
2.08845
2.05511
2.02502
2.00088
1.9768
1.95158
1.9263
1.90186
1.87768
1.85205
1.82442
1.79725
1.77326
1.75219
1.73296
1.71461
1.69665
1.67836
1.65873
1.63708
1.61357
1.59127
1.57328
1.55853
1.54587
1.5341
1.52233
1.51151
1.4998
1.48477
1.46887
1.46076
1.45731
1.45329
1.45196
1.45366
1.45116
1.44631
1.44109
1.43331
1.42941
1.42991
1.43768
1.45547
1.49564
1.5571
1.6196
1.66534
1.69681
1.70899
1.71438
1.71324
1.70586
1.69623
1.68645
1.68055
1.68054
1.67897
1.67173
1.66328
1.65379
1.64421
1.63753
1.63537
1.63593
1.63451
1.62635
1.60677
1.88909
2.00744
1.99573
1.97565
1.95735
1.93804
1.91855
1.89956
1.87934
1.85556
1.83462
1.81528
1.79245
1.76862
1.7506
1.73293
1.70862
1.68487
1.67741
1.74256
1.96402
2.15529
2.15348
2.11888
2.08207
2.05153
2.02671
2.00228
1.97664
1.95037
1.92442
1.89925
1.87457
1.84967
1.82388
1.79744
1.77219
1.74954
1.72894
1.70939
1.69028
1.67148
1.65311
1.6345
1.61413
1.59303
1.57384
1.55651
1.54075
1.52578
1.51204
1.49982
1.48738
1.47194
1.45456
1.44264
1.43201
1.42651
1.42419
1.42042
1.4145
1.41171
1.40874
1.40078
1.39287
1.3912
1.39324
1.39896
1.40918
1.42699
1.46838
1.52858
1.58596
1.62637
1.66063
1.6802
1.68442
1.68088
1.6681
1.65675
1.65094
1.64985
1.65016
1.64763
1.64301
1.63388
1.62189
1.61323
1.60736
1.60641
1.60619
1.5955
1.53813
1.9068
1.98281
1.9672
1.94557
1.92589
1.91044
1.89406
1.87391
1.8522
1.83557
1.81611
1.79407
1.77145
1.75477
1.73609
1.71112
1.70765
1.78672
2.01519
2.18486
2.19181
2.16194
2.1211
2.08542
2.05338
2.02477
1.99793
1.97147
1.94499
1.91908
1.89412
1.86989
1.84556
1.82005
1.79317
1.767
1.74395
1.7237
1.70473
1.68599
1.66697
1.64744
1.62749
1.60689
1.58645
1.56791
1.55167
1.53661
1.52219
1.50839
1.49416
1.47904
1.46371
1.44948
1.43501
1.42052
1.41087
1.40403
1.39713
1.39246
1.3891
1.38344
1.37394
1.36417
1.35812
1.3574
1.35893
1.36287
1.36853
1.37693
1.39385
1.43355
1.49552
1.55277
1.59863
1.63546
1.6506
1.65094
1.6439
1.63128
1.62524
1.62463
1.62787
1.62605
1.62032
1.61169
1.59848
1.58708
1.57924
1.57772
1.57533
1.11211
1.63097
1.90561
1.95792
1.94078
1.91674
1.89973
1.88491
1.86635
1.84832
1.83239
1.81498
1.79227
1.77502
1.75679
1.73327
1.73589
1.83689
2.07907
2.21157
2.20547
2.176
2.14708
2.11733
2.0867
2.05352
2.01961
1.98781
1.95926
1.93303
1.90838
1.88506
1.86246
1.83944
1.81462
1.78753
1.76043
1.73654
1.71606
1.69745
1.67957
1.66174
1.64335
1.62402
1.60364
1.58297
1.56362
1.54695
1.5324
1.5192
1.50647
1.49237
1.47589
1.45879
1.44287
1.42766
1.41387
1.40268
1.39315
1.38466
1.37836
1.37269
1.36657
1.35947
1.34722
1.3343
1.32801
1.32678
1.32817
1.32995
1.33298
1.33561
1.34067
1.3559
1.39974
1.46492
1.52726
1.57594
1.61095
1.61945
1.61728
1.60786
1.60071
1.59699
1.59735
1.59964
1.59693
1.58814
1.57417
1.56065
1.55378
1.55021
1.00376
1.1858
1.68757
1.89643
1.9334
1.91438
1.89317
1.87618
1.85837
1.84242
1.82748
1.81074
1.79123
1.77286
1.75452
1.76539
1.89805
2.13973
2.24906
2.24074
2.19926
2.15868
2.13165
2.10708
2.07883
2.0464
2.0115
1.9773
1.94687
1.92063
1.89712
1.87503
1.85334
1.83101
1.80685
1.78041
1.75368
1.72987
1.70964
1.69151
1.67421
1.65699
1.63919
1.62029
1.60006
1.57934
1.56013
1.54429
1.53121
1.51933
1.50734
1.4939
1.47855
1.46142
1.4423
1.42326
1.40829
1.39697
1.38698
1.37855
1.37164
1.36452
1.35668
1.34763
1.33572
1.32315
1.31309
1.30654
1.30361
1.30355
1.30381
1.30326
1.30249
1.29992
1.30237
1.32274
1.37442
1.44569
1.50979
1.55457
1.58582
1.58999
1.58278
1.57494
1.57273
1.5715
1.57266
1.57273
1.5649
1.55127
1.53793
1.52795
1.00003
1.00983
1.2596
1.71702
1.88363
1.907
1.89104
1.87006
1.85056
1.83686
1.82175
1.80442
1.78678
1.76988
1.78928
1.95666
2.20069
2.28622
2.25304
2.21609
2.18392
2.15158
2.12148
2.09238
2.06319
2.0327
1.99989
1.96623
1.93582
1.91009
1.88729
1.86559
1.84381
1.82116
1.79709
1.77175
1.74658
1.72372
1.70399
1.68647
1.66999
1.65371
1.63687
1.61884
1.59931
1.57882
1.55882
1.54118
1.52665
1.51419
1.5025
1.49091
1.47807
1.46305
1.44534
1.4252
1.40802
1.39595
1.38685
1.37913
1.37137
1.36247
1.3509
1.33707
1.32513
1.31421
1.30547
1.29902
1.29206
1.28721
1.28428
1.28142
1.27809
1.27283
1.26475
1.26461
1.27197
1.30009
1.3596
1.42734
1.48468
1.53215
1.55172
1.55436
1.55124
1.55045
1.54756
1.54689
1.54794
1.54331
1.53046
1.51302
1
1.0001
1.02025
1.3203
1.73007
1.8666
1.88422
1.86793
1.84483
1.82976
1.81544
1.79909
1.78437
1.81724
2.01229
2.23588
2.31754
2.28935
2.23913
2.19334
2.16203
2.13584
2.10676
2.07659
2.04743
2.01887
1.989
1.95739
1.92745
1.90171
1.87914
1.85775
1.83624
1.81397
1.7907
1.76666
1.74274
1.72039
1.70056
1.68288
1.66642
1.65042
1.63419
1.6171
1.59866
1.57921
1.56021
1.54313
1.52833
1.51481
1.50168
1.48933
1.47811
1.46614
1.44935
1.42804
1.41029
1.39887
1.39021
1.38216
1.37385
1.36441
1.35179
1.33577
1.32246
1.31456
1.30651
1.29646
1.28624
1.27905
1.27398
1.26901
1.26382
1.25661
1.24602
1.2411
1.24008
1.24254
1.25309
1.28317
1.33265
1.39232
1.44803
1.49206
1.52077
1.52763
1.52938
1.5284
1.52504
1.52443
1.52237
1.50795
1
1
1.00028
1.03399
1.36486
1.733
1.85539
1.85917
1.84236
1.82337
1.80777
1.79856
1.84735
2.08589
2.27353
2.3038
2.29477
2.26382
2.22512
2.18334
2.14723
2.1185
2.09136
2.06421
2.0374
2.01084
1.98335
1.95401
1.92462
1.89828
1.87486
1.85291
1.83144
1.80991
1.78794
1.76513
1.74176
1.71931
1.69922
1.68139
1.66487
1.64884
1.63261
1.61557
1.59728
1.57791
1.55899
1.54237
1.52879
1.51718
1.50536
1.49202
1.477
1.46011
1.44297
1.42781
1.41353
1.4006
1.38984
1.37993
1.36969
1.35967
1.35092
1.34143
1.32663
1.30731
1.29451
1.28727
1.28046
1.27419
1.26919
1.2643
1.25723
1.24516
1.23582
1.23214
1.22935
1.22703
1.22655
1.22602
1.23029
1.24711
1.28819
1.35122
1.4142
1.4678
1.51045
1.51248
1.50907
1.5049
1.50079
1.49498
1
1
1
1.00061
1.049
1.39553
1.73521
1.8361
1.83567
1.82214
1.81083
1.8882
2.13293
2.32258
2.33017
2.29947
2.26801
2.24384
2.214
2.17722
2.14031
2.10979
2.08381
2.05903
2.03381
2.00766
1.98104
1.95361
1.92573
1.89919
1.8747
1.85175
1.82963
1.80783
1.78613
1.76425
1.74197
1.71996
1.69962
1.68149
1.66486
1.64879
1.63266
1.6159
1.59781
1.57868
1.56057
1.54463
1.53002
1.51739
1.5063
1.49359
1.47773
1.46031
1.4433
1.42749
1.41351
1.40097
1.38955
1.37964
1.37114
1.36305
1.3534
1.3405
1.32379
1.3043
1.29077
1.28507
1.2817
1.27893
1.27396
1.26628
1.25367
1.23692
1.23011
1.22669
1.22241
1.21883
1.21568
1.21044
1.20292
1.19626
1.19898
1.21764
1.26501
1.33574
1.40849
1.46409
1.49427
1.49496
1.48685
1.47606
1
1
1
1
1.00111
1.06261
1.41502
1.73467
1.81158
1.81903
1.9244
2.19941
2.33756
2.36445
2.34031
2.31044
2.27844
2.25073
2.22191
2.18693
2.14965
2.11626
2.08811
2.06295
2.03944
2.01642
1.99168
1.96387
1.93465
1.90711
1.88217
1.85866
1.83572
1.81297
1.79023
1.76695
1.74307
1.72032
1.70045
1.68315
1.66709
1.65106
1.63416
1.61621
1.59816
1.58087
1.5643
1.54875
1.53441
1.52095
1.50766
1.49384
1.47952
1.46419
1.44751
1.43048
1.41535
1.40305
1.39306
1.38442
1.37571
1.36542
1.35268
1.33744
1.32129
1.3066
1.29666
1.29043
1.28459
1.27705
1.26835
1.25812
1.24589
1.23476
1.22645
1.21919
1.21432
1.21096
1.20654
1.20014
1.19266
1.18511
1.17758
1.1733
1.17718
1.20205
1.25711
1.33307
1.39859
1.44945
1.47285
1.46884
1
1
1
1
1.00001
1.00157
1.07593
1.4487
1.66622
1.91484
2.27296
2.4084
2.43931
2.39701
2.36789
2.33943
2.30523
2.2711
2.23742
2.20372
2.17074
2.1391
2.10974
2.0827
2.05685
2.03002
2.00179
1.97467
1.94905
1.92386
1.89889
1.87387
1.84826
1.82159
1.79394
1.76665
1.74173
1.72022
1.70186
1.68565
1.67047
1.65506
1.63818
1.61941
1.59963
1.58071
1.564
1.5485
1.53454
1.52187
1.50929
1.497
1.48305
1.46644
1.4488
1.43134
1.41591
1.40385
1.39443
1.38612
1.37761
1.36791
1.35615
1.34132
1.3236
1.30845
1.2994
1.29218
1.2847
1.27668
1.26828
1.25913
1.24865
1.23602
1.2241
1.21617
1.21162
1.20779
1.20288
1.19647
1.18914
1.18135
1.173
1.16467
1.15653
1.15382
1.1586
1.18571
1.23893
1.3137
1.37922
1.43356
1
1
1
1
1
1.00001
1.00265
1.08709
1.42663
2.33104
2.56961
2.5341
2.49819
2.44705
2.41105
2.37889
2.34193
2.3023
2.26316
2.22652
2.19259
2.16125
2.13168
2.10301
2.07435
2.04529
2.0161
1.98712
1.95917
1.93309
1.90805
1.88265
1.85596
1.82778
1.79859
1.7699
1.74388
1.72196
1.70364
1.68728
1.67143
1.65524
1.63833
1.62023
1.60073
1.58097
1.5632
1.55159
1.54231
1.53047
1.51657
1.50038
1.48479
1.4723
1.45786
1.4406
1.42494
1.41341
1.40468
1.39685
1.38877
1.37954
1.36798
1.35265
1.33449
1.31932
1.30888
1.30035
1.29263
1.2856
1.27878
1.27104
1.25975
1.24378
1.23028
1.22268
1.21753
1.2125
1.20668
1.20016
1.19303
1.18462
1.17429
1.16093
1.15027
1.14576
1.14353
1.14489
1.1518
1.17873
1.22396
1.33202
1
1
1
1
1
1
1.00002
1.00264
1.6563
2.70627
2.68937
2.62403
2.56804
2.50481
2.45596
2.41556
2.36846
2.32069
2.27739
2.23872
2.20466
2.17379
2.14423
2.11468
2.08444
2.05349
2.02214
1.99142
1.96295
1.93694
1.91197
1.88642
1.85941
1.8308
1.80092
1.77115
1.74433
1.72242
1.7045
1.68856
1.67293
1.65627
1.63759
1.61746
1.59849
1.58227
1.56798
1.55226
1.53513
1.51986
1.50635
1.49486
1.48392
1.4695
1.44959
1.42894
1.41321
1.4027
1.3949
1.38774
1.38007
1.37084
1.3586
1.34196
1.32297
1.30805
1.29815
1.29027
1.28319
1.27691
1.27083
1.26306
1.25035
1.23279
1.21878
1.21103
1.20586
1.20105
1.19586
1.19034
1.18441
1.17618
1.16466
1.15036
1.1401
1.13688
1.13493
1.13364
1.13276
1.13273
1.1395
1.20309
)
;

boundaryField
{
    inlet
    {
        type            fixedValue;
        value           uniform 1;
    }
    outlet
    {
        type            inletOutlet;
        inletValue      uniform 1;
        value           nonuniform List<scalar> 
32
(
1.97406
1.97079
1.95793
1.93767
1.90983
1.88037
1.85463
1.82501
1.80152
1.78472
1.77295
1.76001
1.74501
1.7269
1.70897
1.69115
1.67464
1.64518
1.62047
1.60456
1.5946
1.57606
1.55151
1.52778
1.51193
1.50601
1.49542
1.47579
1.46617
1.43144
1.32921
1.19958
)
;
    }
    bottom
    {
        type            zeroGradient;
    }
    top
    {
        type            zeroGradient;
    }
    obstacle
    {
        type            zeroGradient;
    }
    defaultFaces
    {
        type            empty;
    }
}


// ************************************************************************* //
