/*--------------------------------*- C++ -*----------------------------------*\
  =========                 |
  \\      /  F ield         | OpenFOAM: The Open Source CFD Toolbox
   \\    /   O peration     | Website:  https://openfoam.org
    \\  /    A nd           | Version:  7
     \\/     M anipulation  |
\*---------------------------------------------------------------------------*/
FoamFile
{
    version     2.0;
    format      ascii;
    class       volVectorField;
    location    "2.6";
    object      U;
}
// * * * * * * * * * * * * * * * * * * * * * * * * * * * * * * * * * * * * * //

dimensions      [0 1 -1 0 0 0 0];

internalField   nonuniform List<vector> 
3328
(
(3 1.14541e-16 0)
(3 1.27846e-16 0)
(3 -1.49507e-16 0)
(3 -8.18746e-17 0)
(3 1.68331e-16 0)
(3 2.3655e-16 0)
(3 -1.51113e-16 0)
(2.27428 0.0133718 0)
(0.594765 0.0219021 0)
(0.403101 0.0160543 0)
(0.418505 0.0104969 0)
(0.429239 0.00412213 0)
(0.432921 0.00394466 0)
(0.413235 0.00663471 0)
(0.376121 0.0107805 0)
(0.351361 0.0172434 0)
(0.331292 0.0200188 0)
(0.319001 0.0210299 0)
(0.289059 0.0207333 0)
(0.237595 0.020982 0)
(0.158056 0.0239613 0)
(0.083842 0.0283571 0)
(0.0291473 0.0303136 0)
(0.0283116 0.03699 0)
(3 -4.35032e-17 0)
(3 -3.06541e-17 0)
(3 -1.74861e-16 0)
(3 1.62106e-16 0)
(3 6.28606e-16 0)
(3 6.29435e-16 0)
(3 1.89524e-16 0)
(2.33897 0.0581059 0)
(0.603273 0.093676 0)
(0.39978 0.0499801 0)
(0.414992 0.0265275 0)
(0.429594 0.00780539 0)
(0.431277 0.00702663 0)
(0.413744 0.0164081 0)
(0.377689 0.0305861 0)
(0.354515 0.0491309 0)
(0.332985 0.0592676 0)
(0.319098 0.0647219 0)
(0.289909 0.065436 0)
(0.239096 0.0648374 0)
(0.16291 0.0702384 0)
(0.0898821 0.0823884 0)
(0.0338039 0.0934524 0)
(0.0273654 0.113496 0)
(3 -2.26974e-16 0)
(3 -2.22091e-16 0)
(3 1.12855e-16 0)
(3 2.11995e-16 0)
(3 3.0701e-17 0)
(3 -1.43681e-16 0)
(3 -6.41327e-17 0)
(2.48147 0.0854395 0)
(0.644028 0.14673 0)
(0.414962 0.0774333 0)
(0.426177 0.0416748 0)
(0.438746 0.0164056 0)
(0.433614 0.0165618 0)
(0.415599 0.0299686 0)
(0.382055 0.0555304 0)
(0.358944 0.0834706 0)
(0.334959 0.0982742 0)
(0.315549 0.104482 0)
(0.282311 0.107916 0)
(0.228749 0.111153 0)
(0.15923 0.122436 0)
(0.0918075 0.139435 0)
(0.0397771 0.156056 0)
(0.0251062 0.181812 0)
(3 -5.27971e-17 0)
(3 -1.54554e-16 0)
(3 3.75324e-17 0)
(3 -5.83324e-17 0)
(3 -3.1576e-16 0)
(3 -4.37851e-16 0)
(3 -1.23522e-16 0)
(2.66094 0.0807558 0)
(0.707331 0.180059 0)
(0.43059 0.110051 0)
(0.441009 0.0662267 0)
(0.447443 0.0308141 0)
(0.433496 0.0290629 0)
(0.414632 0.0456588 0)
(0.387481 0.0816293 0)
(0.364705 0.119778 0)
(0.339412 0.13997 0)
(0.314904 0.145339 0)
(0.279677 0.151501 0)
(0.225801 0.160234 0)
(0.162783 0.177897 0)
(0.100111 0.199233 0)
(0.0500355 0.219872 0)
(0.0232796 0.246613 0)
(3 6.38937e-17 0)
(3 -1.55995e-16 0)
(3 -8.2737e-17 0)
(3 2.18501e-16 0)
(3 3.3881e-16 0)
(3 2.27318e-16 0)
(3 2.85525e-16 0)
(2.82909 0.0530535 0)
(0.799729 0.202582 0)
(0.450591 0.145529 0)
(0.458729 0.0932892 0)
(0.45595 0.045215 0)
(0.431767 0.0412155 0)
(0.410742 0.0616383 0)
(0.391701 0.108957 0)
(0.372782 0.156638 0)
(0.350216 0.182146 0)
(0.322669 0.186718 0)
(0.287749 0.196009 0)
(0.237487 0.210209 0)
(0.180717 0.232895 0)
(0.122493 0.25874 0)
(0.0681869 0.282987 0)
(0.0264042 0.311638 0)
(3 -1.28688e-18 0)
(3 -4.2621e-17 0)
(3 4.26332e-18 0)
(3 7.87774e-17 0)
(3 2.79467e-16 0)
(3 4.08249e-16 0)
(3 3.04059e-16 0)
(2.9597 0.0114847 0)
(0.927751 0.221421 0)
(0.474752 0.177476 0)
(0.473132 0.118204 0)
(0.461241 0.0598906 0)
(0.43013 0.0528008 0)
(0.408282 0.0770204 0)
(0.391943 0.132927 0)
(0.385013 0.190758 0)
(0.365687 0.222754 0)
(0.338507 0.229123 0)
(0.303676 0.241598 0)
(0.256738 0.26229 0)
(0.199802 0.290627 0)
(0.14261 0.326063 0)
(0.0826449 0.354759 0)
(0.0241462 0.381712 0)
(3 -1.03176e-16 0)
(3 5.85805e-17 0)
(3 1.92626e-17 0)
(3 -1.33374e-16 0)
(3 1.27878e-16 0)
(3 6.02978e-16 0)
(3 6.10453e-16 0)
(2.99991 0.00013795 0)
(1.08474 0.235038 0)
(0.503408 0.197264 0)
(0.485088 0.137162 0)
(0.467973 0.0743383 0)
(0.427477 0.0651722 0)
(0.407637 0.090791 0)
(0.392291 0.148896 0)
(0.396509 0.21585 0)
(0.388646 0.257966 0)
(0.363626 0.27192 0)
(0.330615 0.287193 0)
(0.290034 0.313846 0)
(0.242026 0.346913 0)
(0.194786 0.387208 0)
(0.127615 0.421929 0)
(0.0532439 0.458744 0)
(3 1.04289e-17 0)
(3 2.49376e-16 0)
(3 -2.54248e-17 0)
(3 -1.56346e-18 0)
(3 -1.69351e-16 0)
(3 -3.69282e-16 0)
(3 -6.70257e-16 0)
(3 2.26287e-09 0)
(1.28175 0.237305 0)
(0.542435 0.208214 0)
(0.494777 0.144994 0)
(0.471275 0.0884424 0)
(0.425876 0.0787037 0)
(0.406314 0.102455 0)
(0.397258 0.157463 0)
(0.402096 0.229941 0)
(0.414186 0.282984 0)
(0.397629 0.311077 0)
(0.36811 0.32862 0)
(0.336895 0.357455 0)
(0.29429 0.390569 0)
(0.248292 0.452885 0)
(0.152783 0.522298 0)
(0.105702 0.60753 0)
(3 1.54752e-16 0)
(3 2.85639e-16 0)
(3 1.19299e-16 0)
(3 -4.14256e-16 0)
(3 -8.09494e-16 0)
(3 -1.01544e-15 0)
(3 -1.2849e-15 0)
(3 1.4404e-15 0)
(1.52279 0.218478 0)
(0.581601 0.209707 0)
(0.492258 0.152968 0)
(0.469274 0.103721 0)
(0.427843 0.092021 0)
(0.403507 0.112353 0)
(0.404682 0.160642 0)
(0.409599 0.232702 0)
(0.428478 0.299285 0)
(0.434174 0.339502 0)
(0.412253 0.360193 0)
(0.390221 0.391607 0)
(0.351517 0.43271 0)
(0.321035 0.512557 0)
(0.294384 0.585605 0)
(0.355206 0.647637 0)
(3 3.48508e-17 0)
(3 -1.02982e-16 0)
(3 -4.10771e-16 0)
(3 -5.87038e-16 0)
(3 -3.23449e-16 0)
(3 6.5451e-17 0)
(3 -2.93084e-17 0)
(3 -2.73236e-16 0)
(1.76905 0.188105 0)
(0.616303 0.203385 0)
(0.497167 0.159615 0)
(0.474589 0.116053 0)
(0.433448 0.10526 0)
(0.410845 0.122743 0)
(0.410222 0.162832 0)
(0.421296 0.228944 0)
(0.437951 0.301449 0)
(0.462861 0.351151 0)
(0.455061 0.382269 0)
(0.442864 0.415676 0)
(0.418283 0.459823 0)
(0.402698 0.524136 0)
(0.412075 0.564414 0)
(0.469271 0.550785 0)
(3 -1.09428e-16 0)
(3 -5.8386e-16 0)
(3 -3.70535e-16 0)
(3 -1.14734e-16 0)
(3 1.39358e-16 0)
(3 6.02747e-16 0)
(3 7.87864e-16 0)
(3 3.65843e-16 0)
(2.00307 0.156622 0)
(0.650137 0.190291 0)
(0.508842 0.160308 0)
(0.486751 0.126134 0)
(0.446045 0.119666 0)
(0.424089 0.134239 0)
(0.415865 0.167978 0)
(0.428544 0.22245 0)
(0.447784 0.290541 0)
(0.48096 0.347697 0)
(0.49104 0.389859 0)
(0.490437 0.424856 0)
(0.482854 0.468775 0)
(0.477248 0.523359 0)
(0.500198 0.5614 0)
(0.540695 0.548317 0)
(3 -1.29392e-16 0)
(3 -5.56883e-17 0)
(3 2.04791e-16 0)
(3 2.2625e-16 0)
(3 4.80945e-18 0)
(3 -1.04025e-16 0)
(3 1.50398e-16 0)
(3 8.69313e-17 0)
(2.21655 0.129281 0)
(0.690587 0.178683 0)
(0.525362 0.15679 0)
(0.499194 0.139501 0)
(0.461212 0.139091 0)
(0.440629 0.151629 0)
(0.42565 0.176553 0)
(0.434948 0.215487 0)
(0.454449 0.272314 0)
(0.488949 0.332663 0)
(0.51665 0.385254 0)
(0.526048 0.426752 0)
(0.535002 0.46767 0)
(0.536632 0.51079 0)
(0.558714 0.54106 0)
(0.584701 0.536937 0)
(3 5.34977e-17 0)
(3 1.60956e-16 0)
(3 3.12267e-16 0)
(3 4.31488e-16 0)
(3 3.45163e-16 0)
(3 -2.66279e-16 0)
(3 -2.85673e-16 0)
(3 2.38966e-16 0)
(2.40234 0.108709 0)
(0.736493 0.172759 0)
(0.537005 0.146677 0)
(0.512976 0.152808 0)
(0.481243 0.159897 0)
(0.46129 0.173296 0)
(0.44448 0.188122 0)
(0.448179 0.211428 0)
(0.465222 0.252791 0)
(0.49409 0.30997 0)
(0.531428 0.367873 0)
(0.549761 0.419631 0)
(0.571327 0.458897 0)
(0.581738 0.495918 0)
(0.60068 0.524497 0)
(0.615227 0.527713 0)
(3 9.71878e-17 0)
(3 4.78543e-17 0)
(3 6.19982e-17 0)
(3 1.23358e-16 0)
(3 9.3386e-17 0)
(3 -2.35806e-16 0)
(3 -3.28093e-16 0)
(3 -4.3228e-16 0)
(2.56673 0.0950869 0)
(0.783296 0.174045 0)
(0.548541 0.137652 0)
(0.534441 0.158748 0)
(0.504728 0.181195 0)
(0.485896 0.195997 0)
(0.472351 0.198019 0)
(0.468287 0.210329 0)
(0.480579 0.237814 0)
(0.503248 0.28595 0)
(0.537533 0.346107 0)
(0.568529 0.403924 0)
(0.594223 0.449159 0)
(0.613496 0.481514 0)
(0.628818 0.505958 0)
(0.639923 0.515147 0)
(3 -1.5257e-16 0)
(3 5.466e-18 0)
(3 -1.56279e-16 0)
(3 -7.18938e-17 0)
(3 1.12061e-16 0)
(3 3.99515e-16 0)
(3 1.54213e-17 0)
(3 -8.38842e-16 0)
(2.71783 0.0821317 0)
(0.835243 0.178386 0)
(0.56481 0.138933 0)
(0.559445 0.15962 0)
(0.534982 0.19601 0)
(0.515664 0.210819 0)
(0.502859 0.20645 0)
(0.493282 0.212712 0)
(0.496454 0.229906 0)
(0.512494 0.267329 0)
(0.540298 0.323403 0)
(0.58034 0.381866 0)
(0.607853 0.43369 0)
(0.634643 0.469493 0)
(0.652035 0.494035 0)
(0.663756 0.508977 0)
(3 5.37481e-17 0)
(3 1.04068e-16 0)
(3 2.05721e-16 0)
(3 3.24381e-16 0)
(3 5.07993e-16 0)
(3 8.58709e-16 0)
(3 4.10128e-16 0)
(3 -1.25908e-16 0)
(2.84609 0.0629944 0)
(0.897899 0.176242 0)
(0.587789 0.138814 0)
(0.585572 0.16618 0)
(0.566451 0.207211 0)
(0.546925 0.217746 0)
(0.531644 0.212834 0)
(0.518291 0.214962 0)
(0.51171 0.227873 0)
(0.521368 0.255229 0)
(0.544328 0.299694 0)
(0.57996 0.355526 0)
(0.621364 0.410528 0)
(0.648746 0.4559 0)
(0.67077 0.485977 0)
(0.686731 0.503531 0)
(3 1.37624e-16 0)
(3 6.36197e-17 0)
(3 6.44395e-17 0)
(3 -7.66747e-17 0)
(3 -1.54685e-16 0)
(3 1.67041e-16 0)
(3 3.21724e-16 0)
(3 2.67079e-16 0)
(2.93853 0.0251822 0)
(0.974353 0.173478 0)
(0.614479 0.142687 0)
(0.60876 0.180796 0)
(0.592256 0.213896 0)
(0.574361 0.219339 0)
(0.5566 0.215551 0)
(0.539905 0.216163 0)
(0.529833 0.226256 0)
(0.528861 0.245926 0)
(0.546028 0.278637 0)
(0.576403 0.324424 0)
(0.619163 0.378934 0)
(0.660309 0.432613 0)
(0.687137 0.476488 0)
(0.708208 0.502499 0)
(3 -1.36103e-16 0)
(3 3.76653e-16 0)
(3 6.54282e-16 0)
(3 1.0914e-17 0)
(3 -5.10451e-17 0)
(3 1.39115e-16 0)
(3 7.63801e-16 0)
(3 1.14459e-15 0)
(2.9993 0.00163761 0)
(1.06271 0.177374 0)
(0.634509 0.153738 0)
(0.62245 0.195063 0)
(0.608347 0.216782 0)
(0.593611 0.218748 0)
(0.577786 0.215348 0)
(0.560012 0.215241 0)
(0.549585 0.226002 0)
(0.543547 0.240119 0)
(0.554134 0.259419 0)
(0.574307 0.293849 0)
(0.613204 0.340285 0)
(0.657593 0.39811 0)
(0.698508 0.452482 0)
(0.729357 0.492978 0)
(3 -2.84436e-17 0)
(3 4.11476e-17 0)
(3 -2.84181e-17 0)
(3 1.02253e-17 0)
(3 1.10317e-16 0)
(3 -1.86601e-16 0)
(3 -9.32446e-17 0)
(3 1.32847e-16 0)
(3 1.66167e-06 0)
(1.16083 0.18458 0)
(0.647178 0.164808 0)
(0.628249 0.205886 0)
(0.617686 0.219178 0)
(0.605705 0.21846 0)
(0.596304 0.212928 0)
(0.580542 0.212906 0)
(0.56923 0.222084 0)
(0.565258 0.233472 0)
(0.568945 0.24619 0)
(0.581133 0.267534 0)
(0.610682 0.301934 0)
(0.649243 0.355151 0)
(0.696935 0.414658 0)
(0.741681 0.467338 0)
(3 1.69454e-16 0)
(3 -6.34952e-16 0)
(3 -1.11388e-15 0)
(3 -9.47204e-16 0)
(3 -1.00968e-15 0)
(3 -9.69287e-16 0)
(3 -1.302e-15 0)
(3 -1.06302e-15 0)
(3 3.99914e-11 0)
(1.2735 0.191548 0)
(0.655001 0.177551 0)
(0.631037 0.214523 0)
(0.623304 0.22004 0)
(0.614534 0.217075 0)
(0.610797 0.209967 0)
(0.600666 0.210779 0)
(0.592263 0.21635 0)
(0.589677 0.22474 0)
(0.590304 0.234587 0)
(0.596422 0.24845 0)
(0.612277 0.272169 0)
(0.64493 0.311536 0)
(0.688554 0.367234 0)
(0.7401 0.42734 0)
(3 7.55602e-17 0)
(3 -2.19433e-16 0)
(3 -3.6943e-16 0)
(3 -1.08638e-16 0)
(3 1.34034e-16 0)
(3 -5.75754e-18 0)
(3 -2.16478e-16 0)
(3 -3.15606e-16 0)
(3 -2.29393e-15 0)
(1.39954 0.201481 0)
(0.666793 0.194413 0)
(0.629277 0.220238 0)
(0.625784 0.22058 0)
(0.621478 0.216894 0)
(0.621581 0.209505 0)
(0.618255 0.210405 0)
(0.616109 0.213649 0)
(0.615179 0.217686 0)
(0.615301 0.224223 0)
(0.616279 0.234414 0)
(0.623906 0.249721 0)
(0.64357 0.276852 0)
(0.679697 0.320603 0)
(0.729742 0.37767 0)
(3 1.05081e-16 0)
(3 1.50754e-16 0)
(3 3.71321e-17 0)
(3 9.88074e-17 0)
(3 3.31822e-16 0)
(3 -1.58275e-16 0)
(3 -3.52041e-16 0)
(3 -9.70565e-16 0)
(3 -2.14319e-15 0)
(1.54256 0.214306 0)
(0.682406 0.217137 0)
(0.625798 0.220768 0)
(0.627551 0.219539 0)
(0.626832 0.214177 0)
(0.630992 0.209067 0)
(0.6334 0.210471 0)
(0.635429 0.213218 0)
(0.637226 0.215045 0)
(0.638076 0.217265 0)
(0.637474 0.222917 0)
(0.640646 0.232851 0)
(0.652623 0.249944 0)
(0.67531 0.28305 0)
(0.720481 0.327554 0)
(3 -1.47076e-16 0)
(3 -5.00211e-19 0)
(3 2.12428e-16 0)
(3 5.05979e-17 0)
(3 -1.28429e-16 0)
(3 -3.04004e-16 0)
(3 -5.6024e-16 0)
(3 -6.47778e-16 0)
(3 -6.79784e-16 0)
(1.71299 0.222657 0)
(0.695676 0.236184 0)
(0.624137 0.219604 0)
(0.629717 0.216361 0)
(0.632886 0.208903 0)
(0.640152 0.206155 0)
(0.64581 0.20886 0)
(0.649573 0.212693 0)
(0.653173 0.214755 0)
(0.655498 0.214695 0)
(0.655767 0.216274 0)
(0.660202 0.222648 0)
(0.669613 0.234245 0)
(0.688143 0.255568 0)
(0.720232 0.288978 0)
(3 -1.64088e-16 0)
(3 -1.18868e-16 0)
(3 -2.95805e-16 0)
(3 -3.72813e-16 0)
(3 -6.04924e-16 0)
(3 -2.23277e-16 0)
(3 -8.29528e-17 0)
(3 9.03484e-17 0)
(3 1.55526e-16 0)
(1.91357 0.217016 0)
(0.711905 0.244164 0)
(0.622348 0.216533 0)
(0.631511 0.210345 0)
(0.63903 0.201545 0)
(0.64788 0.201772 0)
(0.654953 0.206014 0)
(0.659523 0.20918 0)
(0.663985 0.209994 0)
(0.668503 0.209613 0)
(0.672595 0.212359 0)
(0.680238 0.219871 0)
(0.691015 0.231374 0)
(0.7084 0.243961 0)
(0.733838 0.264257 0)
(3 5.37078e-17 0)
(3 2.68857e-17 0)
(3 -5.19596e-16 0)
(3 -8.59632e-16 0)
(3 -8.38736e-16 0)
(3 -5.75984e-16 0)
(3 -5.56136e-17 0)
(3 3.00036e-16 0)
(3 2.00736e-16 0)
(2.13227 0.19773 0)
(0.735015 0.244232 0)
(0.62035 0.20894 0)
(0.632949 0.200517 0)
(0.64329 0.192185 0)
(0.653136 0.194159 0)
(0.659659 0.199155 0)
(0.664706 0.200437 0)
(0.671533 0.199957 0)
(0.6809 0.20277 0)
(0.69069 0.20926 0)
(0.702146 0.217611 0)
(0.716303 0.228025 0)
(0.732861 0.241729 0)
(0.754473 0.254265 0)
(3 1.00005e-16 0)
(3 1.52309e-17 0)
(3 4.50624e-16 0)
(3 8.05828e-16 0)
(3 7.0731e-16 0)
(3 -6.28409e-17 0)
(3 -4.77027e-16 0)
(3 -3.49513e-16 0)
(3 -8.98355e-17 0)
(2.35499 0.167418 0)
(0.767426 0.23649 0)
(0.618537 0.196642 0)
(0.633795 0.185943 0)
(0.644969 0.179986 0)
(0.653679 0.183039 0)
(0.660323 0.187625 0)
(0.669691 0.189587 0)
(0.681722 0.193183 0)
(0.694817 0.199318 0)
(0.708763 0.207307 0)
(0.723891 0.217195 0)
(0.74078 0.227046 0)
(0.758929 0.236997 0)
(0.778444 0.248607 0)
(3 1.1868e-16 0)
(3 1.91118e-16 0)
(3 8.2699e-16 0)
(3 1.29502e-15 0)
(3 5.97692e-16 0)
(3 -7.68194e-17 0)
(3 -4.87036e-16 0)
(3 -2.46765e-16 0)
(3 -1.65917e-16 0)
(2.56084 0.129145 0)
(0.807839 0.217432 0)
(0.6189 0.176442 0)
(0.633906 0.165592 0)
(0.644795 0.16344 0)
(0.652809 0.170675 0)
(0.663502 0.179058 0)
(0.677848 0.181462 0)
(0.693016 0.186502 0)
(0.708324 0.195649 0)
(0.724558 0.206721 0)
(0.742196 0.217809 0)
(0.761253 0.226922 0)
(0.781105 0.235015 0)
(0.801393 0.242243 0)
(3 6.26617e-18 0)
(3 -3.67315e-18 0)
(3 -2.40908e-16 0)
(3 -2.3642e-16 0)
(3 -3.91669e-16 0)
(3 -2.99906e-16 0)
(3 -7.03455e-17 0)
(3 5.42107e-16 0)
(3 2.55793e-16 0)
(2.72875 0.0882956 0)
(0.854827 0.188204 0)
(0.621768 0.151625 0)
(0.635925 0.144721 0)
(0.647151 0.151134 0)
(0.656872 0.163975 0)
(0.669842 0.173237 0)
(0.686611 0.175176 0)
(0.703262 0.181383 0)
(0.719848 0.191257 0)
(0.737332 0.202365 0)
(0.756001 0.212534 0)
(0.776396 0.220524 0)
(0.797702 0.228014 0)
(0.819656 0.235092 0)
(3 -1.53442e-16 0)
(3 -3.68456e-16 0)
(3 -6.02408e-16 0)
(3 -5.87643e-16 0)
(3 -5.77135e-16 0)
(3 -1.85342e-16 0)
(3 8.69921e-17 0)
(3 3.44615e-16 0)
(3 1.48014e-16 0)
(2.84618 0.0541061 0)
(0.906997 0.158793 0)
(0.629587 0.132408 0)
(0.64287 0.132854 0)
(0.653775 0.145599 0)
(0.662721 0.160972 0)
(0.676616 0.168593 0)
(0.694368 0.169921 0)
(0.711738 0.176391 0)
(0.72912 0.185684 0)
(0.747305 0.195343 0)
(0.766743 0.204618 0)
(0.787787 0.211545 0)
(0.809604 0.218285 0)
(0.832451 0.224125 0)
(3 8.76088e-18 0)
(3 3.12256e-17 0)
(3 3.1467e-17 0)
(3 -2.46115e-16 0)
(3 -2.0243e-16 0)
(3 2.05867e-16 0)
(3 3.55087e-16 0)
(3 2.7995e-16 0)
(3 -2.56881e-16 0)
(2.91968 0.0273273 0)
(0.963192 0.140193 0)
(0.642723 0.123705 0)
(0.651139 0.12821 0)
(0.660802 0.142466 0)
(0.668995 0.156995 0)
(0.683429 0.161843 0)
(0.701104 0.163728 0)
(0.718551 0.170685 0)
(0.736405 0.179456 0)
(0.754968 0.188036 0)
(0.774975 0.195204 0)
(0.796384 0.200714 0)
(0.818639 0.206982 0)
(0.842128 0.212545 0)
(3 4.85244e-17 0)
(3 6.29509e-16 0)
(3 4.2221e-16 0)
(3 7.91868e-17 0)
(3 -2.62714e-16 0)
(3 -2.00077e-16 0)
(3 -1.432e-16 0)
(3 -9.71188e-17 0)
(3 -5.40379e-16 0)
(2.97677 0.00553393 0)
(1.02121 0.131928 0)
(0.655095 0.117505 0)
(0.65763 0.123114 0)
(0.666906 0.137035 0)
(0.6753 0.149997 0)
(0.690288 0.152737 0)
(0.707322 0.156366 0)
(0.724213 0.164365 0)
(0.742095 0.172547 0)
(0.760752 0.179123 0)
(0.780861 0.183933 0)
(0.802312 0.187837 0)
(0.82469 0.193336 0)
(0.848541 0.198273 0)
(3 1.1511e-16 0)
(3 1.17008e-16 0)
(3 2.07851e-16 0)
(3 1.58333e-16 0)
(3 -1.09594e-16 0)
(3 -1.4142e-16 0)
(3 -2.79352e-16 0)
(3 -5.81066e-16 0)
(3 -1.39386e-15 0)
(2.99993 0.0001004 0)
(1.08095 0.126356 0)
(0.661149 0.111427 0)
(0.662694 0.115645 0)
(0.672464 0.128906 0)
(0.682281 0.140561 0)
(0.697702 0.143149 0)
(0.713515 0.148483 0)
(0.728819 0.156886 0)
(0.746299 0.163665 0)
(0.764661 0.168095 0)
(0.784525 0.17069 0)
(0.805926 0.173044 0)
(0.828531 0.177531 0)
(0.852884 0.18153 0)
(3 -6.31851e-18 0)
(3 -2.86694e-16 0)
(3 -4.91811e-16 0)
(3 -3.03266e-16 0)
(3 -2.21407e-16 0)
(3 -4.06643e-16 0)
(3 -1.30943e-16 0)
(3 -3.37712e-16 0)
(3 -1.39999e-15 0)
(3 3.34309e-09 0)
(1.14968 0.118795 0)
(0.664521 0.104326 0)
(0.665752 0.106963 0)
(0.678193 0.11922 0)
(0.690134 0.129692 0)
(0.705332 0.132612 0)
(0.719284 0.138852 0)
(0.732585 0.146773 0)
(0.749142 0.151938 0)
(0.766915 0.154372 0)
(0.786391 0.155144 0)
(0.807607 0.156084 0)
(0.8304 0.159109 0)
(0.854704 0.160924 0)
(3 -9.65713e-17 0)
(3 -1.79256e-16 0)
(3 -8.57286e-17 0)
(3 -1.26892e-16 0)
(3 1.7175e-17 0)
(3 4.36264e-17 0)
(3 7.48194e-17 0)
(3 -1.6435e-16 0)
(3 -1.55223e-16 0)
(3 3.68521e-15 0)
(1.2214 0.10842 0)
(0.668679 0.0950207 0)
(0.66739 0.0974263 0)
(0.683996 0.108831 0)
(0.697949 0.117531 0)
(0.712625 0.120081 0)
(0.724439 0.126044 0)
(0.735768 0.133062 0)
(0.75088 0.136951 0)
(0.767723 0.13774 0)
(0.786336 0.136948 0)
(0.806682 0.136241 0)
(0.8289 0.136664 0)
(0.852564 0.134506 0)
(3 -8.71744e-17 0)
(3 -1.71894e-17 0)
(3 3.85002e-16 0)
(3 5.34944e-16 0)
(3 6.63786e-16 0)
(3 9.5229e-16 0)
(3 3.13989e-16 0)
(3 3.05129e-17 0)
(3 1.82108e-16 0)
(3 -4.76172e-16 0)
(1.29159 0.0938909 0)
(0.673462 0.083039 0)
(0.668075 0.0866273 0)
(0.689181 0.0972551 0)
(0.704671 0.103296 0)
(0.718295 0.104937 0)
(0.728426 0.109645 0)
(0.738304 0.115598 0)
(0.751632 0.118651 0)
(0.766822 0.118098 0)
(0.783681 0.115528 0)
(0.802484 0.112263 0)
(0.823978 0.109077 0)
(0.84909 0.104972 0)
(3 2.05702e-17 0)
(3 2.95154e-17 0)
(3 1.33143e-16 0)
(3 3.78046e-16 0)
(3 7.00698e-16 0)
(3 3.59174e-16 0)
(3 -3.33292e-16 0)
(3 -7.34787e-16 0)
(3 -3.05755e-16 0)
(3 -6.64217e-16 0)
(1.35428 0.0753178 0)
(0.678477 0.0677061 0)
(0.668489 0.0737887 0)
(0.693561 0.0833655 0)
(0.709356 0.0869472 0)
(0.721513 0.0873004 0)
(0.730613 0.0903677 0)
(0.739531 0.0949578 0)
(0.751022 0.0969085 0)
(0.763637 0.0944415 0)
(0.778357 0.08933 0)
(0.796119 0.0838072 0)
(0.818454 0.0801109 0)
(0.847624 0.0785295 0)
(3 4.89008e-17 0)
(3 1.2496e-16 0)
(3 2.11985e-16 0)
(3 5.21534e-16 0)
(3 8.2762e-16 0)
(3 4.55878e-16 0)
(3 -2.55041e-18 0)
(3 -4.46162e-17 0)
(3 -1.33594e-16 0)
(3 -5.15142e-16 0)
(1.40426 0.0551618 0)
(0.684077 0.0501565 0)
(0.670347 0.0591935 0)
(0.69668 0.067415 0)
(0.711824 0.0684061 0)
(0.722969 0.067781 0)
(0.731485 0.0692284 0)
(0.739778 0.0718126 0)
(0.74883 0.0718261 0)
(0.758505 0.0674461 0)
(0.771649 0.0611331 0)
(0.790427 0.0571663 0)
(0.816816 0.05695 0)
(0.849527 0.0576376 0)
(3 3.82483e-17 0)
(3 -1.38129e-16 0)
(3 -1.88784e-16 0)
(3 9.20335e-17 0)
(3 2.20357e-16 0)
(3 5.05843e-16 0)
(3 5.90199e-16 0)
(3 1.67633e-15 0)
(3 1.22223e-15 0)
(3 1.08549e-15 0)
(1.44054 0.0367991 0)
(0.691696 0.0335316 0)
(0.674772 0.0432833 0)
(0.699404 0.0484926 0)
(0.713745 0.0480525 0)
(0.725001 0.0467046 0)
(0.732706 0.0468409 0)
(0.739941 0.0474944 0)
(0.746724 0.0460843 0)
(0.754733 0.0419624 0)
(0.768379 0.038337 0)
(0.7903 0.0375575 0)
(0.819546 0.0386988 0)
(0.853451 0.0416946 0)
(3 -3.65957e-17 0)
(3 -4.36568e-16 0)
(3 -3.76918e-16 0)
(3 -6.43959e-16 0)
(3 -1.1343e-15 0)
(3 -7.41472e-16 0)
(3 2.41813e-16 0)
(3 1.3819e-15 0)
(3 1.53115e-15 0)
(3 1.15785e-15 0)
(1.4626 0.0193593 0)
(0.699038 0.0184357 0)
(0.680017 0.0257121 0)
(0.702477 0.0275165 0)
(0.71555 0.0272448 0)
(0.726117 0.026324 0)
(0.733325 0.0260444 0)
(0.739088 0.0260255 0)
(0.744373 0.024889 0)
(0.751179 0.0227761 0)
(0.765888 0.0212074 0)
(0.789283 0.0211592 0)
(0.820613 0.0233162 0)
(0.8557 0.0258661 0)
(3 -1.02532e-16 0)
(3 -6.23565e-17 0)
(3 8.79501e-17 0)
(3 -1.48134e-16 0)
(3 -8.23425e-16 0)
(3 -8.43854e-16 0)
(3 -4.41095e-16 0)
(3 2.03552e-16 0)
(3 2.70786e-16 0)
(3 4.78578e-17 0)
(1.46698 0.0041195 0)
(0.69958 0.00484802 0)
(0.67835 0.00736227 0)
(0.699271 0.0077449 0)
(0.712019 0.0074631 0)
(0.72244 0.00709284 0)
(0.730182 0.00684683 0)
(0.736479 0.0067018 0)
(0.74188 0.00653967 0)
(0.749993 0.00644372 0)
(0.766209 0.0069944 0)
(0.790654 0.00816894 0)
(0.822784 0.00958302 0)
(0.857568 0.0106546 0)
(0.4543 0.414454 0)
(0.14967 0.211324 0)
(0.0740987 0.0616132 0)
(0.0352324 0.0163419 0)
(0.0174599 0.0103684 0)
(0.00143372 0.00464982 0)
(-0.0140406 0.00155589 0)
(-0.0170077 -0.00269915 0)
(0.479455 0.343342 0)
(0.29981 0.205266 0)
(0.221941 0.0781258 0)
(0.118024 0.0436933 0)
(0.0603239 0.0307933 0)
(0.0269639 0.0109915 0)
(-0.00293446 0.01292 0)
(-0.0146994 0.00281383 0)
(0.524008 0.442199 0)
(0.403087 0.366294 0)
(0.316885 0.242845 0)
(0.188958 0.172141 0)
(0.107604 0.114647 0)
(0.0716351 0.0438693 0)
(0.0203239 0.0121092 0)
(-0.00504139 -0.00288998 0)
(0.583172 0.489161 0)
(0.52902 0.426398 0)
(0.463275 0.325114 0)
(0.337356 0.252054 0)
(0.236463 0.175026 0)
(0.159519 0.0937282 0)
(0.0650482 0.046205 0)
(0.01254 0.0105205 0)
(0.618525 0.51272 0)
(0.595533 0.486891 0)
(0.555913 0.426335 0)
(0.450491 0.379948 0)
(0.349034 0.310395 0)
(0.252928 0.208057 0)
(0.127016 0.121744 0)
(0.0421868 0.0468219 0)
(0.644639 0.517181 0)
(0.636723 0.515976 0)
(0.617854 0.487905 0)
(0.549428 0.468479 0)
(0.47669 0.419544 0)
(0.376159 0.338099 0)
(0.231341 0.244033 0)
(0.0847042 0.139531 0)
(0.66829 0.517213 0)
(0.668793 0.525552 0)
(0.655813 0.526306 0)
(0.617001 0.536541 0)
(0.582016 0.516236 0)
(0.507967 0.470642 0)
(0.379936 0.380036 0)
(0.180057 0.302863 0)
(0.69212 0.518247 0)
(0.698479 0.530512 0)
(0.69434 0.54375 0)
(0.677396 0.563724 0)
(0.661043 0.583772 0)
(0.619938 0.585954 0)
(0.483255 0.56889 0)
(0.240122 0.6473 0)
(0.720441 0.517154 0)
(0.728369 0.533951 0)
(0.734969 0.552865 0)
(0.731875 0.582903 0)
(0.73328 0.619222 0)
(0.729028 0.661871 0)
(0.709442 0.752625 0)
(0.768038 0.936535 0)
(0.749394 0.519632 0)
(0.765082 0.535567 0)
(0.779285 0.555376 0)
(0.789427 0.588454 0)
(0.804538 0.640123 0)
(0.836559 0.710488 0)
(0.919831 0.798933 0)
(1.14487 0.896417 0)
(0.776063 0.508162 0)
(0.802225 0.538121 0)
(0.828201 0.556709 0)
(0.850181 0.586811 0)
(0.87664 0.634648 0)
(0.931003 0.700037 0)
(1.06248 0.768071 0)
(1.31322 0.812137 0)
(0.791113 0.479386 0)
(0.833073 0.522867 0)
(0.872039 0.555074 0)
(0.908886 0.584537 0)
(0.948674 0.622682 0)
(1.01306 0.673864 0)
(1.14728 0.715288 0)
(1.36278 0.726579 0)
(0.790457 0.435936 0)
(0.847455 0.490287 0)
(0.902753 0.533993 0)
(0.955593 0.571553 0)
(1.00979 0.604876 0)
(1.08045 0.64134 0)
(1.19676 0.659105 0)
(1.36725 0.654637 0)
(0.778345 0.383899 0)
(0.845803 0.443227 0)
(0.912554 0.496437 0)
(0.9818 0.538928 0)
(1.05142 0.575895 0)
(1.12973 0.603707 0)
(1.23132 0.612471 0)
(1.36544 0.599401 0)
(0.770395 0.33322 0)
(0.834537 0.387151 0)
(0.905372 0.444159 0)
(0.984167 0.491348 0)
(1.06605 0.528968 0)
(1.1534 0.553481 0)
(1.2515 0.564788 0)
(1.3618 0.552604 0)
(0.770812 0.295488 0)
(0.823047 0.335887 0)
(0.888829 0.384482 0)
(0.966471 0.43253 0)
(1.0535 0.471642 0)
(1.14808 0.492253 0)
(1.24518 0.507993 0)
(1.34721 0.502849 0)
(0.783528 0.271845 0)
(0.822014 0.298121 0)
(0.875052 0.331213 0)
(0.942072 0.370439 0)
(1.02458 0.405544 0)
(1.11727 0.428078 0)
(1.21137 0.448146 0)
(1.31281 0.450841 0)
(0.80235 0.258613 0)
(0.832653 0.272469 0)
(0.871735 0.293298 0)
(0.924101 0.318284 0)
(0.991963 0.343048 0)
(1.0727 0.365784 0)
(1.16243 0.384482 0)
(1.26005 0.390418 0)
(0.823537 0.250263 0)
(0.849443 0.255946 0)
(0.880253 0.265007 0)
(0.918459 0.27905 0)
(0.968735 0.294491 0)
(1.03262 0.31131 0)
(1.11091 0.324053 0)
(1.19831 0.331551 0)
(0.842629 0.240337 0)
(0.868015 0.24527 0)
(0.895789 0.247985 0)
(0.927249 0.251973 0)
(0.965449 0.258655 0)
(1.01304 0.269383 0)
(1.07455 0.275785 0)
(1.14717 0.277829 0)
(0.856878 0.228958 0)
(0.883061 0.233033 0)
(0.911496 0.235791 0)
(0.941748 0.236741 0)
(0.974625 0.236461 0)
(1.01306 0.237792 0)
(1.05993 0.239117 0)
(1.11537 0.238169 0)
(0.867227 0.216872 0)
(0.894251 0.219573 0)
(0.923403 0.222161 0)
(0.954293 0.222506 0)
(0.986355 0.22077 0)
(1.02112 0.217017 0)
(1.06085 0.212043 0)
(1.10656 0.208053 0)
(0.874248 0.202215 0)
(0.901719 0.204631 0)
(0.930691 0.205916 0)
(0.960645 0.204751 0)
(0.99247 0.201785 0)
(1.0273 0.19707 0)
(1.06568 0.190754 0)
(1.10858 0.18503 0)
(0.878927 0.184476 0)
(0.905669 0.186308 0)
(0.932824 0.186044 0)
(0.962145 0.183409 0)
(0.995064 0.18099 0)
(1.03174 0.178159 0)
(1.07137 0.175765 0)
(1.11345 0.173469 0)
(0.87977 0.161012 0)
(0.905538 0.159943 0)
(0.93354 0.161098 0)
(0.964942 0.162097 0)
(0.999777 0.163803 0)
(1.03662 0.165843 0)
(1.07545 0.166637 0)
(1.11648 0.165726 0)
(0.878212 0.132305 0)
(0.906854 0.132602 0)
(0.938444 0.134919 0)
(0.971431 0.139903 0)
(1.00507 0.14675 0)
(1.04034 0.151705 0)
(1.07733 0.154265 0)
(1.11639 0.154293 0)
(0.878848 0.103502 0)
(0.911863 0.104886 0)
(0.945654 0.110921 0)
(0.979159 0.118516 0)
(1.01183 0.126745 0)
(1.04492 0.132805 0)
(1.07895 0.136645 0)
(1.11461 0.137885 0)
(0.881212 0.0797386 0)
(0.916679 0.0837336 0)
(0.952315 0.0890783 0)
(0.98679 0.0947873 0)
(1.01922 0.101647 0)
(1.05093 0.107617 0)
(1.08272 0.11266 0)
(1.11511 0.115925 0)
(0.884523 0.0616433 0)
(0.920402 0.0649189 0)
(0.95637 0.0674989 0)
(0.991877 0.069912 0)
(1.02544 0.0741911 0)
(1.05758 0.0794582 0)
(1.08869 0.0854432 0)
(1.11784 0.0890937 0)
(0.888421 0.0451089 0)
(0.923535 0.0468717 0)
(0.959289 0.0476674 0)
(0.99581 0.0481215 0)
(1.03145 0.0506136 0)
(1.06494 0.0549568 0)
(1.09486 0.0593107 0)
(1.12126 0.0615863 0)
(0.888822 0.0279396 0)
(0.921856 0.028201 0)
(0.955329 0.0270666 0)
(0.990998 0.0253551 0)
(1.02848 0.025785 0)
(1.06413 0.0289444 0)
(1.09364 0.0317255 0)
(1.1197 0.0328564 0)
(0.890212 0.0112065 0)
(0.924102 0.0114676 0)
(0.959882 0.0120696 0)
(0.998433 0.0129987 0)
(1.03822 0.0137745 0)
(1.07416 0.0141114 0)
(1.10189 0.0140977 0)
(1.12708 0.0141761 0)
(1.70424 0.938 0)
(2.35054 1.0583 0)
(2.44803 0.69411 0)
(2.41406 0.342557 0)
(2.3385 -0.0121341 0)
(2.27524 -0.182738 0)
(2.1802 -0.222216 0)
(2.0978 -0.161618 0)
(1.98767 -0.109664 0)
(1.89517 -0.0757387 0)
(1.8439 -0.0421923 0)
(1.88414 -0.0352264 0)
(1.84035 -0.0417305 0)
(1.75317 -0.0398898 0)
(1.67319 -0.0318132 0)
(1.62909 -0.0260561 0)
(1.5792 -0.0170051 0)
(1.53804 -0.00725985 0)
(1.50925 -0.0043547 0)
(1.48153 -0.0029798 0)
(1.46322 -0.00268017 0)
(1.46548 -0.00234758 0)
(1.48895 -0.0021604 0)
(1.52418 -0.00316625 0)
(1.54553 -0.00470127 0)
(1.55949 -0.00564568 0)
(1.57516 -0.00631212 0)
(1.59467 -0.00719272 0)
(1.61435 -0.00768286 0)
(1.6339 -0.00760796 0)
(1.64938 -0.00714173 0)
(1.66142 -0.0060428 0)
(1.67898 -0.00410469 0)
(1.70105 -0.00193369 0)
(1.72608 0.000857369 0)
(1.755 0.00417187 0)
(1.77918 0.00603139 0)
(1.80118 0.00709036 0)
(1.82111 0.00788353 0)
(1.83993 0.00810584 0)
(1.85757 0.00837395 0)
(1.87051 0.00902244 0)
(1.87496 0.0100352 0)
(1.88322 0.0104579 0)
(1.90269 0.0103757 0)
(1.92452 0.0103205 0)
(1.94808 0.010165 0)
(1.97447 0.00990726 0)
(2.00247 0.00948049 0)
(2.0293 0.00878951 0)
(2.05429 0.00810148 0)
(2.07926 0.00788645 0)
(2.10383 0.00792159 0)
(2.12354 0.00791994 0)
(2.12642 0.00794743 0)
(2.10769 0.00969902 0)
(2.1038 0.0113084 0)
(2.12219 0.0117946 0)
(2.14473 0.0121469 0)
(2.16767 0.0123524 0)
(2.19147 0.0124624 0)
(2.21643 0.0125396 0)
(2.23891 0.012678 0)
(2.26145 0.0128603 0)
(2.28383 0.0128531 0)
(2.30635 0.0122419 0)
(2.32886 0.0113955 0)
(2.35048 0.0104744 0)
(2.36571 0.00932946 0)
(2.36423 0.00889709 0)
(2.33974 0.0142155 0)
(2.33068 0.0149907 0)
(2.34932 0.0141075 0)
(2.3635 0.0135944 0)
(2.37616 0.00858243 0)
(2.37782 -0.0062486 0)
(2.36106 -0.0332447 0)
(2.3287 -0.0643843 0)
(2.28448 -0.0993296 0)
(2.24777 -0.126036 0)
(2.23898 -0.133879 0)
(2.23985 -0.143262 0)
(2.20778 -0.107046 0)
(2.1753 -0.100151 0)
(2.14425 -0.0905695 0)
(2.12636 -0.0680201 0)
(2.12405 -0.035306 0)
(2.15078 -0.00209832 0)
(1.80919 0.781607 0)
(2.23065 0.402448 0)
(2.40609 0.0816462 0)
(2.37822 -0.205536 0)
(2.34712 -0.404466 0)
(2.38995 -0.477171 0)
(2.33059 -0.393165 0)
(2.22904 -0.338453 0)
(2.11326 -0.259402 0)
(2.00208 -0.135447 0)
(1.93436 -0.0576353 0)
(1.92819 -0.0240636 0)
(1.90197 -0.0217032 0)
(1.82628 -0.0482465 0)
(1.74891 -0.0437652 0)
(1.69802 -0.0189173 0)
(1.63655 0.00329388 0)
(1.57892 0.0100223 0)
(1.54634 0.000941751 0)
(1.52195 -0.0055374 0)
(1.50567 -0.00558138 0)
(1.50576 -0.00142126 0)
(1.5206 0.00285943 0)
(1.54882 0.00014062 0)
(1.57101 -0.00444117 0)
(1.58524 -0.00620532 0)
(1.59999 -0.00737177 0)
(1.61737 -0.0103973 0)
(1.63554 -0.0151736 0)
(1.65313 -0.0191798 0)
(1.66846 -0.0214954 0)
(1.68076 -0.0210669 0)
(1.69577 -0.0184129 0)
(1.71604 -0.0150697 0)
(1.74082 -0.00987392 0)
(1.76907 -0.00303319 0)
(1.79317 0.00130781 0)
(1.81559 0.00632292 0)
(1.83558 0.0118076 0)
(1.85344 0.0151695 0)
(1.87005 0.016205 0)
(1.88346 0.0173717 0)
(1.88948 0.021909 0)
(1.89427 0.0275915 0)
(1.91132 0.0288337 0)
(1.93284 0.0289047 0)
(1.95564 0.0293413 0)
(1.98094 0.0302124 0)
(2.00751 0.0312803 0)
(2.03265 0.0318235 0)
(2.05765 0.0314036 0)
(2.08183 0.0293721 0)
(2.10458 0.0251113 0)
(2.12333 0.0176982 0)
(2.13192 0.0083239 0)
(2.12552 0.00998011 0)
(2.12087 0.02363 0)
(2.13182 0.0336634 0)
(2.15092 0.0382235 0)
(2.17284 0.040639 0)
(2.19523 0.0420255 0)
(2.2182 0.0429484 0)
(2.24105 0.043478 0)
(2.26391 0.0436356 0)
(2.28675 0.0431861 0)
(2.3097 0.0414384 0)
(2.3325 0.0379778 0)
(2.35485 0.0338743 0)
(2.37391 0.0268988 0)
(2.37907 0.0237011 0)
(2.35216 0.031498 0)
(2.33297 0.0299498 0)
(2.34929 0.0255143 0)
(2.35035 0.00795522 0)
(2.34887 -0.0294014 0)
(2.33785 -0.0908144 0)
(2.31555 -0.17243 0)
(2.29931 -0.235379 0)
(2.30976 -0.250513 0)
(2.30562 -0.285557 0)
(2.2887 -0.271549 0)
(2.25012 -0.223651 0)
(2.22375 -0.170194 0)
(2.20314 -0.115804 0)