/*--------------------------------*- C++ -*----------------------------------*\
  =========                 |
  \\      /  F ield         | OpenFOAM: The Open Source CFD Toolbox
   \\    /   O peration     | Website:  https://openfoam.org
    \\  /    A nd           | Version:  7
     \\/     M anipulation  |
\*---------------------------------------------------------------------------*/
FoamFile
{
    version     2.0;
    format      ascii;
    class       volScalarField;
    location    "0.7";
    object      T;
}
// * * * * * * * * * * * * * * * * * * * * * * * * * * * * * * * * * * * * * //

dimensions      [0 0 0 1 0 0 0];

internalField   nonuniform List<scalar> 
16192
(
1
1
1
1
1
1
1
1
1
1
1
1
1
1
1
1
1
1
1
1
1
1
1
1
1
1
1
1
1
1
1
1
1
1
1
1
1
1
1
1
1
1
1
1
1
1
1
1
1
1
1
1
1
1
1
1
1
1
1
1
1
1
1
1
1
1
1
1
1
1
1
1
1
1
1
1
1
1
1
1
1
1
1
1
1
1
1
1
1
1
1
1
1
1
1
1
1
1
1
1
1
1
1
1
1
1
1
1
1
1
1
1
1
1
1
1
1
1
1
1
1
1
1
1
1
1
1
1
1
1
1
1
1
1
1
1
1
1
1
1
1
1
1
1
1
1
1
1
1
1
1
1
1
1
1
1
1
1
1
1
1
1
1
1
1
1
1
1
1
1
1
1
1
1
1
1
1
1
1
1
1
1
1
1
1
1
1
1
1
1
1
1
1
1
1
1
1
1
1
1
1
1
1
1
1
1
1
1
1
1
1
1
1
1
1
1
1
1
1
1
1
1
1
1
1
1
1
1
1
1
1
1
1
1
1
1
1
1
1
1
1
1
1
1
1
1
1
1
1
1
1
1
1
1
1
1
1
1
1
1
1
1
1
1
1
1
1
1
1
1
1
1
1
1
1
1
1
1
1
1
1
1
1
1
1
1
1
1
1
1
1
1
1
1
1
1
1
1
1
1
1
1
1
1
1
1
1
1
1
1
1
1
1
1
1
1
1
1
1
1
1
1
1
1
1
1
1
1
1
1
1
1
1
1
1
1
1
1
1
1
1
1
1
1
1
1
1
1
1
1
1
1
1
1
1
1
1
1
1
1
1
1
1
1
1
1
1
1
1
1
1
1
1
1
1
1
1
1
1
1
1
1
1
1
1
1
1
1
1
1
1
1
1
1
1
1
1
1
1
1
1
1
1
1
1
1
1
1
1
1
1
1
1
1
1
1
1
1
1
1
1
1
1
1
1
1
1
1
1
1
1
1
1
1
1
1
1
1
1
1
1
1
1
1
1
1
1
1
1
1
1
1
1
1
1
1
1
1
1
1
1
1
1
1
1
1
1
1
1
1
1
1
1
1
1
1
1
1
1
1
1
1
1
1
1
1
1
1
1
1
1
1
1
1
1
1
1
1
1
1
1
1
1
1
1
1
1
1
1
1
1
1
1
1
1
1
1
1
1
1
1
1
1
1
1
1
1
1
1
1
1
1
1
1
1
1
1
1
1
1
1
1
1
1
1
1
1
1
1
1
1
1
1
1
1
1
1
1
1
1
1
1
1
1
1
1
1
1
1
1
1
1
1
1
1
1
1
1
1
1
1
1
1
1
1
1
1
1
1
1
1
1
1
1
1
1
1
1
1
1
1
1
1
1
1
1
1
1
1
1
1
1
1
1
1
1
1
1
1
1
1
1
1
1
1
1
1
1
1
1
1
1
1
1
1
1
1
1
1
1
1
1
1
1
1
1
1
1
1
1
1
1
1
1
1
1
1
1
1
1
1
1
1
1
1
1
1
1
1
1
1
1
1
1
1
1
1
1
1
1
1
1
1
1
1
1
1
1
1
1
1
1
1
1
1
1
1
1
1
1
1
1
1
1
1
1
1
1
1
1
1
1
1
1
1
1
1
1
1
1
1
1
1
1
1
1
1
1
1
1
1
1
1
1
1
1
1
1
1
1
1
1
1
1
1
1
1
1
1
1
1
1
1
1
1
1
1
1
1
1
1
1
1
1
1
1
1
1
1
1
1
1
1
1
1
1
1
1
1
1
1
1
1
1
1
1
1
1
1
1
1
1
1
1
1
1
1
1
1
1
1
1
1
1
1
1
1
1
1
1
1
1
1
1
1
1
1
1
1
1
1
1
1
1
1
1
1
1
1
1
1
1
1
1
1
1
1
1
1
1
1
1
1
1
1
1
1
1
1
1
1
1
1
1
1
1
1
1
1
1
1
1
1
1
1
1
1
1
1
1
1
1
1
1
1
1
1
1
1
1
1
1
1
1
1
1
1
1
1
1
1
1
1
1
1
1
1
1
1
1
1
1
1
1
1
1
1
1
1
1
1
1
1
1
1
1
1
1
1
1
1
1
1
1
1
1
1
1
1
1
1
1
1
1
1
1
1
1
1
1
1
1
1
1
1
1
1
1
1
1
1
1
1
1
1
1
1
1
1
1
1
1
1
1
1
1
1
1
1
1
1
1
1
1
1
1
1
1
1
1
1
1
1
1
1
1
1
1
1
1
1
1
1
1
1
1
1
1
1
1
1
1
1
1
1
1
1
1
1
1
1
1
1
1
1
1
1
1
1
1
1
1
1
1
1
1
1
1
1
1
1
1
1
1
1
1
1
1
1
1
1
1
1
1
1
1
1
1
1
1
1
1
1
1
1
1
1
1
1
1
1
1
1
1
1
1
1
1
1
1
1
1
1
1
1
1
1
1
1
1
1
1
1
1
1
1
1
1
1
1
1
1
1
1
1
1
1
1
1
1
1
1
1
1
1
1
1
1
1
1
1
1
1
1
1
1
1
1
1
1
1
1
1
1
1
1
1
1
1
1
1
1
1
1
1
1
1
1
1
1
1
1
1
1
1
1
1
1
1
1
1
1
1
1
1
1
1
1
1
1
1
1
1
1
1
1
1
1
1
1
1
1
1
1
1
1
1
1
1
1
1
1
1
1
1
1
1
1
1
1
1
1
1
1
1
1
1
1
1
1
1
1
1
1
1
1
1
1
1
1
1
1
1
1
1
1
1
1
1
1
1
1
1
1
1
1
1
1
1
1
1
1
1
1
1
1
1
1
1
1
1
1
1
1
1
1
1
1
1
1
1
1
1
1
1
1
1
1
1
1
1
1
1
1
1
1
1
1
1
1
1
1
1
1
1
1
1
1
1
1
1
1
1
1
1
1
1
1
1
1
1
1
1
1
1
1
1
1
1
1
1.59277
1.59835
1.6005
1.59944
1.5965
1.59012
1.57904
1.56657
1.56159
1.56029
1.55906
1.55671
1.55107
1.54125
1.53251
1.52934
1.52884
1.53125
1.53615
1.53622
1.53525
1.53492
1.53352
1.52868
1.51839
1.50707
1.50303
1.50258
1.50342
1.50588
1.51001
1.51249
1.51376
1.51382
1.51308
1.51139
1.50901
1.50449
1.49553
1.48621
1.48335
1.4831
1.48367
1.48673
1.48717
1.48638
1.48436
1.47787
1.46648
1.45815
1.45632
1.45619
1.45672
1.45627
1.45614
1.45543
1.45005
1.43831
1.43043
1.42911
1.42914
1.43301
1.43856
1.43902
1.4365
1.43395
1.43097
1.42616
1.42112
1.41716
1.41282
1.40661
1.40125
1.40007
1.39978
1.39952
1.39906
1.39832
1.39685
1.39544
1.39388
1.39207
1.39147
1.39085
1.3899
1.38874
1.38733
1.38525
1.3803
1.37036
1.36047
1.35702
1.35636
1.35608
1.35688
1.35926
1.35995
1.35973
1.36026
1.36164
1.36385
1.36563
1.36627
1.3649
1.35758
1.34388
1.3366
1.33446
1.33362
1.33503
1.34146
1.34498
1.34384
1.34262
1.34192
1.34133
1.34065
1.33878
1.3326
1.3221
1.31618
1.31504
1.31437
1.31458
1.31566
1.31517
1.31218
1.30903
1.30644
1.30368
1.29748
1.28825
1.28557
1.28555
1
1
1
1
1.00001
1.00077
1.02799
1.20334
1.44719
1.68832
1.7113
1.70286
1.69816
1.69561
1.69909
1.69505
1.6922
1.69282
1.69313
1.69289
1.6931
1.69284
1.69157
1.69031
1.68881
1.68625
1.68313
1.67984
1.67552
1.67486
1.67396
1.67076
1.66963
1.66906
1.66815
1.6683
1.66859
1.6686
1.66766
1.66527
1.66163
1.65679
1.65127
1.64548
1.63921
1.63613
1.63527
1.63587
1.64213
1.66177
1.68879
1.71188
1.7246
1.73631
1.74434
1.74699
1.74739
1.7469
1.74475
1.74008
1.73398
1.72782
1.72297
1.7187
1.71405
1.70777
1.70171
1.69843
1.69586
1.69293
1.68954
1.68615
1.68246
1.67744
1.67195
1.66909
1.66868
1.67129
1.67169
1.67028
1.66758
1.66076
1.64758
1.6342
1.62776
1.62604
1.62583
1.62631
1.62554
1.62245
1.61626
1.60776
1.60051
1.59697
1.59646
1.5997
1.60529
1.60609
1.60456
1.60063
1.59364
1.5819
1.56941
1.56395
1.56242
1.56157
1.55976
1.55506
1.54605
1.53702
1.53342
1.53283
1.53483
1.54006
1.54075
1.53951
1.53853
1.53586
1.53029
1.51994
1.50788
1.50327
1.50274
1.50372
1.50502
1.50717
1.50997
1.51196
1.51345
1.51353
1.51287
1.51121
1.50792
1.50023
1.49072
1.48684
1.48595
1.48612
1.48766
1.48835
1.48773
1.48595
1.48011
1.46899
1.45983
1.45746
1.45719
1.45815
1.45782
1.45759
1.45688
1.45209
1.44094
1.43247
1.4308
1.43083
1.43468
1.44076
1.44149
1.43916
1.43632
1.43233
1.42614
1.41998
1.41634
1.41338
1.40881
1.40353
1.40198
1.40167
1.40137
1.4008
1.40021
1.39888
1.39728
1.39581
1.39367
1.39208
1.3917
1.3911
1.39021
1.38901
1.38717
1.3828
1.37344
1.3628
1.35859
1.35779
1.35756
1.35839
1.36032
1.36053
1.36024
1.36062
1.36175
1.36363
1.36542
1.36616
1.3651
1.35854
1.34473
1.33682
1.33474
1.33389
1.33486
1.34105
1.34598
1.34516
1.34373
1.34282
1.34211
1.3414
1.33983
1.33437
1.32396
1.31682
1.31544
1.31482
1.31486
1.31626
1.31639
1.3139
1.31034
1.3073
1.30435
1.29928
1.29012
1.28396
1.28377
1.28384
1
1
1
1
1
1
1.00041
1.01364
1.11444
1.439
1.68695
1.70554
1.70326
1.69789
1.69974
1.69688
1.69727
1.69832
1.69561
1.69232
1.69129
1.68955
1.68648
1.68429
1.68329
1.68202
1.67964
1.67586
1.67367
1.6742
1.67322
1.6712
1.67097
1.67074
1.67117
1.67173
1.67138
1.66988
1.66664
1.6634
1.66
1.65576
1.65066
1.64472
1.63802
1.63523
1.63396
1.6336
1.63445
1.64025
1.65558
1.68138
1.70435
1.7211
1.73591
1.7428
1.74433
1.74252
1.74134
1.7394
1.73474
1.72905
1.72397
1.71901
1.71431
1.70925
1.70495
1.70089
1.69735
1.69345
1.68935
1.68501
1.67982
1.67457
1.672
1.67156
1.67286
1.67432
1.67377
1.67192
1.66674
1.65587
1.64196
1.6344
1.63254
1.63197
1.63169
1.63029
1.62662
1.61999
1.61185
1.60526
1.60219
1.60194
1.60599
1.61108
1.61085
1.60857
1.60414
1.59695
1.58511
1.57295
1.5672
1.56541
1.56465
1.5632
1.55945
1.55116
1.54215
1.53813
1.53751
1.53913
1.54422
1.54541
1.54411
1.54245
1.53857
1.53178
1.5214
1.51065
1.50521
1.50408
1.50473
1.50605
1.50644
1.50781
1.50995
1.51199
1.51355
1.51366
1.51294
1.51073
1.50493
1.49592
1.49128
1.48983
1.48926
1.48967
1.49
1.48932
1.48763
1.48251
1.47191
1.46208
1.459
1.45861
1.45971
1.45967
1.45936
1.45864
1.45423
1.44346
1.43447
1.43235
1.43229
1.43593
1.44255
1.44391
1.44185
1.4388
1.4342
1.42667
1.41932
1.41559
1.41352
1.41103
1.40618
1.40386
1.40337
1.4032
1.4027
1.40183
1.40075
1.39899
1.39739
1.39539
1.39262
1.3919
1.39164
1.39116
1.39035
1.38889
1.38525
1.37673
1.36558
1.36024
1.35916
1.35885
1.35971
1.36122
1.36107
1.36062
1.36084
1.36171
1.36333
1.36509
1.36593
1.36521
1.35941
1.3456
1.33674
1.33465
1.33382
1.33439
1.33999
1.34652
1.34629
1.3448
1.34371
1.34296
1.34224
1.34083
1.33585
1.32563
1.31733
1.31558
1.3151
1.31497
1.31659
1.31755
1.31581
1.3121
1.30851
1.30529
1.3004
1.29188
1.28374
1.28213
1.28214
1.2823
1
1
1
1
1
1
1
1.00013
1.00533
1.09546
1.45752
1.63992
1.69337
1.71575
1.71025
1.70584
1.70211
1.6973
1.6937
1.69254
1.69121
1.68543
1.68245
1.68106
1.67976
1.67767
1.67427
1.67074
1.6709
1.67255
1.67171
1.67073
1.6706
1.6709
1.67221
1.67207
1.67138
1.66893
1.66518
1.66173
1.65822
1.65424
1.64961
1.64336
1.63784
1.6361
1.63461
1.6336
1.63239
1.63272
1.63759
1.65075
1.67405
1.69648
1.72015
1.73288
1.73588
1.73892
1.73861
1.73696
1.73416
1.73055
1.72602
1.72075
1.7163
1.71202
1.70658
1.70227
1.69808
1.69302
1.6875
1.6823
1.67788
1.67522
1.67475
1.67509
1.67612
1.67614
1.67503
1.6711
1.66287
1.65054
1.64178
1.63962
1.63862
1.63747
1.63544
1.63101
1.62366
1.61566
1.60992
1.60752
1.60737
1.61124
1.61505
1.61439
1.61174
1.60721
1.60002
1.58871
1.57727
1.5713
1.56929
1.56846
1.56714
1.5641
1.55665
1.54758
1.54326
1.54259
1.54407
1.54897
1.55032
1.54903
1.54677
1.54135
1.53299
1.52255
1.51388
1.50904
1.50731
1.50731
1.50783
1.50762
1.507
1.50807
1.51022
1.51241
1.51395
1.51402
1.51293
1.50898
1.50141
1.49627
1.49476
1.49348
1.4929
1.4924
1.49134
1.4896
1.48505
1.47519
1.46487
1.46103
1.46056
1.46156
1.46184
1.4615
1.4608
1.45668
1.44621
1.43654
1.43391
1.43372
1.4369
1.44392
1.44597
1.4444
1.44165
1.43669
1.42825
1.41951
1.41538
1.41405
1.41323
1.41049
1.40612
1.40508
1.40468
1.40456
1.40378
1.40251
1.40074
1.3989
1.39679
1.39351
1.39187
1.39174
1.39157
1.39122
1.39031
1.38756
1.38012
1.36875
1.36218
1.36073
1.36019
1.36079
1.3621
1.3616
1.361
1.36106
1.36159
1.36301
1.36479
1.36579
1.3653
1.36028
1.34672
1.33665
1.33441
1.3336
1.33382
1.33853
1.34643
1.34736
1.34591
1.34463
1.34387
1.34321
1.34195
1.33733
1.32718
1.31773
1.31549
1.31519
1.31504
1.31653
1.31849
1.31762
1.31426
1.31035
1.30675
1.30203
1.29349
1.2841
1.2809
1.28054
1.28054
1.28087
1
1
1
1
1
1
1
1
1.00006
1.00414
1.10971
1.40566
1.58557
1.70296
1.71984
1.71563
1.70771
1.69896
1.69349
1.69465
1.69033
1.68529
1.68355
1.68147
1.67656
1.67428
1.67277
1.66969
1.66922
1.67012
1.67023
1.66951
1.66891
1.67006
1.67114
1.67071
1.66963
1.66684
1.66347
1.65985
1.65623
1.65238
1.64764
1.64154
1.6399
1.63898
1.63672
1.63484
1.63258
1.63111
1.63165
1.63447
1.64471
1.66237
1.68717
1.71354
1.7229
1.73062
1.73224
1.73205
1.73157
1.72976
1.72748
1.72325
1.71855
1.71439
1.70838
1.70235
1.69744
1.69173
1.68566
1.68122
1.67894
1.67837
1.67834
1.678
1.67738
1.6764
1.67376
1.66804
1.6586
1.64953
1.64682
1.64551
1.6437
1.64092
1.63569
1.62777
1.61973
1.61448
1.6126
1.61303
1.61674
1.61837
1.61739
1.61455
1.60968
1.60215
1.59168
1.5817
1.57591
1.57384
1.57297
1.57173
1.56919
1.56265
1.55338
1.54863
1.54793
1.54938
1.55416
1.55537
1.55407
1.5513
1.54485
1.53467
1.52417
1.51723
1.51318
1.51195
1.51197
1.51129
1.50982
1.50773
1.50731
1.50864
1.51096
1.51324
1.51452
1.51438
1.51221
1.50636
1.50143
1.50011
1.49847
1.49709
1.49577
1.49415
1.49208
1.48789
1.47886
1.46833
1.46365
1.46302
1.46378
1.46429
1.46399
1.46336
1.45963
1.4495
1.43907
1.43582
1.43535
1.4378
1.44501
1.44791
1.44671
1.4444
1.43984
1.43084
1.42095
1.41617
1.41511
1.41502
1.41441
1.41025
1.407
1.40624
1.40595
1.40565
1.40447
1.40265
1.4006
1.39827
1.3945
1.39199
1.39188
1.39178
1.39168
1.39128
1.3895
1.38339
1.37237
1.36449
1.36256
1.36179
1.36198
1.36302
1.36235
1.36137
1.36135
1.36162
1.36271
1.36455
1.36576
1.36554
1.36125
1.34829
1.33677
1.33424
1.33347
1.33341
1.33711
1.34572
1.34842
1.34713
1.34564
1.34485
1.34429
1.34328
1.33898
1.32883
1.3182
1.31528
1.31506
1.31507
1.31658
1.319
1.31912
1.31648
1.31258
1.30875
1.30421
1.29596
1.2849
1.28004
1.27917
1.27891
1.27897
1.28065
1
1
1
1
1
1
1
1
1
1.00005
1.00493
1.08186
1.27782
1.5706
1.70937
1.71174
1.7064
1.69795
1.69551
1.69576
1.69264
1.68984
1.68636
1.68055
1.67671
1.6752
1.67365
1.67107
1.66956
1.66911
1.66907
1.66681
1.6656
1.6669
1.66742
1.66726
1.66645
1.66447
1.66073
1.65697
1.65365
1.65007
1.6447
1.64178
1.64183
1.64009
1.63755
1.63576
1.63335
1.63114
1.63039
1.63002
1.6313
1.63762
1.6518
1.67794
1.69821
1.71511
1.724
1.72535
1.72586
1.72587
1.72635
1.72436
1.72071
1.71628
1.71072
1.70406
1.69663
1.68974
1.68477
1.68291
1.68245
1.68212
1.68165
1.68002
1.67709
1.67442
1.6709
1.66498
1.65704
1.65382
1.65259
1.65046
1.64697
1.64093
1.63235
1.62421
1.61943
1.61795
1.61851
1.62151
1.62206
1.62075
1.61704
1.61133
1.60312
1.59359
1.58576
1.58062
1.57855
1.57772
1.57657
1.57446
1.56897
1.55973
1.55439
1.55368
1.55496
1.55959
1.56062
1.55903
1.55564
1.54867
1.53745
1.5268
1.52108
1.51792
1.51698
1.51725
1.51627
1.5132
1.50959
1.50808
1.5083
1.50979
1.51204
1.51424
1.51519
1.51459
1.51086
1.50617
1.50527
1.50383
1.50174
1.49989
1.49779
1.49526
1.49123
1.48291
1.47238
1.46688
1.46607
1.46644
1.46696
1.46679
1.4663
1.46305
1.45343
1.44218
1.43816
1.43739
1.43902
1.44597
1.44987
1.44906
1.44715
1.44302
1.43418
1.4235
1.41802
1.41724
1.41744
1.41739
1.41459
1.40971
1.40817
1.40757
1.40728
1.40631
1.4046
1.40257
1.40017
1.3962
1.39249
1.39211
1.39217
1.39213
1.39197
1.39094
1.38622
1.37612
1.36726
1.36465
1.36368
1.36355
1.3643
1.36351
1.36192
1.3617
1.36186
1.36262
1.36434
1.36587
1.36593
1.36245
1.35024
1.33741
1.33431
1.33363
1.33341
1.33614
1.34475
1.34945
1.34854
1.34691
1.34594
1.34543
1.34465
1.34082
1.33078
1.31892
1.31516
1.31489
1.31493
1.31675
1.31957
1.32025
1.31847
1.31495
1.31113
1.30676
1.29905
1.287
1.27961
1.27826
1.27764
1.2775
1.27866
1.28365
1
1
1
1
1
1
1
1
1
1
1.00004
1.00227
1.03075
1.22893
1.58612
1.67838
1.70176
1.70576
1.70551
1.70279
1.70036
1.69681
1.68966
1.68235
1.67984
1.67855
1.67578
1.67369
1.67171
1.66999
1.66842
1.66368
1.66168
1.66229
1.66284
1.66292
1.66268
1.66135
1.65707
1.65338
1.65048
1.64684
1.64239
1.64218
1.64166
1.63941
1.63697
1.63533
1.63335
1.63134
1.62978
1.62859
1.62907
1.63038
1.63375
1.64567
1.66636
1.68653
1.7066
1.71632
1.71867
1.72007
1.72156
1.72304
1.72178
1.71831
1.71289
1.70606
1.69774
1.69048
1.68733
1.68661
1.68587
1.68517
1.68371
1.68016
1.67576
1.67234
1.66839
1.66277
1.65999
1.65931
1.65749
1.65373
1.64722
1.63803
1.62924
1.62474
1.62368
1.62433
1.62588
1.62564
1.62374
1.61965
1.61316
1.60382
1.59525
1.58951
1.58528
1.58321
1.58243
1.58126
1.57939
1.57495
1.56641
1.56045
1.55975
1.56077
1.56504
1.56606
1.56409
1.55987
1.5522
1.54071
1.53064
1.52523
1.52293
1.52258
1.52291
1.52177
1.51798
1.51223
1.50979
1.50961
1.51011
1.51165
1.51369
1.51561
1.51619
1.51505
1.51077
1.50934
1.5089
1.50666
1.5043
1.50195
1.49918
1.49521
1.48743
1.47705
1.47066
1.46953
1.46963
1.47001
1.4699
1.46948
1.46677
1.45792
1.44592
1.44093
1.43986
1.44077
1.44709
1.45193
1.45149
1.45001
1.44645
1.43784
1.42666
1.42081
1.42002
1.42041
1.42042
1.41807
1.41293
1.41052
1.40969
1.40916
1.40835
1.40653
1.40447
1.40224
1.39852
1.3938
1.39267
1.39283
1.39295
1.39284
1.39211
1.38851
1.37972
1.37051
1.3671
1.3659
1.3655
1.36607
1.36525
1.36307
1.36232
1.36237
1.36289
1.36432
1.36605
1.36641
1.36376
1.35253
1.33851
1.33466
1.33414
1.33386
1.33594
1.34402
1.35059
1.35021
1.34852
1.3473
1.34672
1.34603
1.34258
1.3329
1.32007
1.31534
1.31492
1.31489
1.31674
1.32029
1.32146
1.32022
1.31723
1.3137
1.30964
1.3025
1.29018
1.28012
1.27776
1.277
1.27659
1.27737
1.28257
1.2874
1
1
1
1
1
1
1
1
1
1
1
1.00001
1.00058
1.02156
1.25276
1.53177
1.65103
1.70615
1.71336
1.7087
1.70329
1.69791
1.68966
1.68559
1.68587
1.683
1.68053
1.67922
1.67642
1.67244
1.66947
1.66414
1.66012
1.65921
1.65906
1.65919
1.65927
1.6572
1.65314
1.64977
1.64662
1.64248
1.64071
1.64128
1.64005
1.63664
1.63391
1.63298
1.63228
1.63121
1.62961
1.62799
1.62835
1.62885
1.629
1.63042
1.63897
1.65508
1.67646
1.69749
1.70506
1.70935
1.7146
1.71948
1.71967
1.71824
1.71413
1.70794
1.70056
1.69489
1.69246
1.69103
1.68929
1.68692
1.68358
1.67925
1.67465
1.6707
1.66661
1.66453
1.66421
1.66274
1.65977
1.65444
1.64559
1.63595
1.6311
1.62995
1.6302
1.63012
1.62869
1.62562
1.62154
1.6153
1.60577
1.59708
1.59247
1.5896
1.58795
1.58738
1.58592
1.58395
1.58039
1.57313
1.56686
1.56607
1.56673
1.57039
1.57142
1.56933
1.56433
1.55577
1.54396
1.53485
1.52997
1.52824
1.52824
1.52843
1.52707
1.52269
1.51627
1.51201
1.5118
1.51197
1.51267
1.51434
1.51655
1.51817
1.5185
1.51669
1.51276
1.51221
1.51126
1.50879
1.50629
1.50356
1.49977
1.49257
1.48218
1.47497
1.47348
1.4734
1.4735
1.47335
1.47292
1.47072
1.46279
1.45028
1.44405
1.4427
1.44303
1.44853
1.45426
1.45416
1.45293
1.44992
1.44183
1.43042
1.42412
1.42321
1.42356
1.42357
1.42158
1.41614
1.41314
1.41228
1.41161
1.41071
1.40893
1.4067
1.40427
1.40088
1.39593
1.39378
1.39385
1.39413
1.39414
1.39358
1.39063
1.38292
1.37367
1.36991
1.36854
1.3678
1.36828
1.36776
1.36506
1.36346
1.36337
1.36363
1.36475
1.36645
1.36709
1.36504
1.35494
1.33999
1.33523
1.33492
1.33475
1.33654
1.34396
1.35191
1.35232
1.35056
1.34902
1.34829
1.34751
1.34418
1.33483
1.32149
1.31589
1.31524
1.31511
1.31676
1.32102
1.32289
1.32204
1.31951
1.31636
1.31272
1.3063
1.29423
1.28169
1.27789
1.27695
1.27634
1.27677
1.2817
1.28854
1.28931
1
1
1
1
1
1
1
1
1
1
1
1
1
1.00045
1.0251
1.20456
1.42341
1.64318
1.71212
1.70967
1.70388
1.69384
1.68917
1.68996
1.68999
1.68903
1.68837
1.68586
1.68099
1.6767
1.67292
1.66522
1.66005
1.6593
1.65908
1.65848
1.6564
1.65281
1.64952
1.64572
1.64233
1.63929
1.6395
1.63966
1.63674
1.63163
1.62961
1.62964
1.63049
1.63049
1.62954
1.62893
1.62907
1.62888
1.62849
1.62652
1.62449
1.62986
1.64237
1.66259
1.6807
1.69097
1.70267
1.71226
1.7146
1.71448
1.71294
1.70954
1.70555
1.70128
1.69762
1.69488
1.69191
1.68799
1.68367
1.67874
1.67361
1.66986
1.66827
1.66818
1.66677
1.66398
1.65998
1.65374
1.64461
1.63904
1.63743
1.63624
1.6344
1.63084
1.62694
1.62276
1.617
1.60826
1.59958
1.59489
1.59285
1.59244
1.59288
1.59122
1.58873
1.58554
1.5796
1.57354
1.57281
1.57308
1.57569
1.57656
1.57463
1.56897
1.5593
1.54752
1.53952
1.53507
1.53361
1.53384
1.5337
1.53165
1.52653
1.52032
1.5157
1.5145
1.51469
1.51499
1.51597
1.51827
1.52094
1.5225
1.52227
1.51729
1.51435
1.514
1.51301
1.51061
1.50803
1.50466
1.49834
1.48801
1.47969
1.47773
1.4776
1.47757
1.47717
1.47664
1.47484
1.46794
1.45527
1.44761
1.44586
1.44578
1.45032
1.4569
1.4572
1.45593
1.45319
1.44575
1.43444
1.42781
1.42673
1.42699
1.42685
1.42525
1.4201
1.41605
1.4151
1.41452
1.4135
1.41178
1.40963
1.40697
1.40314
1.39843
1.39559
1.39548
1.39569
1.39583
1.39548
1.39303
1.38607
1.37676
1.37254
1.37132
1.37046
1.37083
1.37082
1.36821
1.36558
1.36497
1.36506
1.36575
1.3673
1.3681
1.36645
1.35727
1.34171
1.33602
1.33579
1.33593
1.33777
1.34466
1.35348
1.35486
1.35311
1.35122
1.35021
1.34926
1.34588
1.33665
1.32289
1.31672
1.31586
1.31572
1.31716
1.32178
1.32458
1.32409
1.32192
1.31912
1.31589
1.31021
1.29878
1.28438
1.27874
1.27752
1.27675
1.27689
1.28134
1.28959
1.29186
1.2913
1
1
1
1
1
1
1
1
1
1
1
1
1
1
1.00044
1.01382
1.10186
1.38028
1.65929
1.69768
1.69842
1.69411
1.6917
1.69417
1.69743
1.69764
1.6965
1.6918
1.68445
1.68068
1.67548
1.66635
1.66221
1.66187
1.66077
1.65848
1.65506
1.65134
1.64726
1.64363
1.64107
1.63961
1.63972
1.63819
1.63242
1.62674
1.62582
1.62633
1.62821
1.62967
1.63033
1.63097
1.63035
1.6291
1.62789
1.62466
1.61967
1.61579
1.61765
1.62561
1.64374
1.66237
1.68274
1.70124
1.70683
1.70916
1.70988
1.70893
1.70708
1.70461
1.70142
1.69796
1.69409
1.68872
1.68343
1.67841
1.67387
1.67182
1.67142
1.67037
1.66797
1.6645
1.65987
1.6534
1.64775
1.64543
1.64308
1.63893
1.63333
1.62836
1.62397
1.61884
1.6114
1.60309
1.59775
1.59574
1.59576
1.59774
1.59701
1.59446
1.59126
1.58628
1.58049
1.57962
1.57977
1.58096
1.5814
1.57957
1.57342
1.56272
1.55121
1.5444
1.54065
1.53931
1.53939
1.53887
1.53639
1.53049
1.52345
1.51973
1.51817
1.51808
1.51818
1.51862
1.52043
1.52355
1.52585
1.52608
1.52156
1.51637
1.51563
1.51568
1.51465
1.51238
1.50949
1.5042
1.49447
1.48501
1.4822
1.48195
1.48203
1.48144
1.48072
1.47913
1.47323
1.46093
1.45178
1.4495
1.44914
1.45264
1.45973
1.46081
1.45929
1.4563
1.4492
1.43839
1.43172
1.43041
1.4306
1.4304
1.42905
1.42464
1.41979
1.4185
1.41777
1.41666
1.41502
1.41303
1.41048
1.40624
1.40087
1.398
1.3977
1.39776
1.39789
1.3977
1.39583
1.3896
1.37991
1.37488
1.37372
1.37304
1.37346
1.37405
1.37223
1.36916
1.36757
1.36742
1.36767
1.36877
1.36963
1.36816
1.35956
1.34357
1.337
1.33671
1.33726
1.33933
1.34595
1.35539
1.35775
1.35615
1.35389
1.35254
1.35135
1.34775
1.33851
1.32441
1.31776
1.31673
1.31662
1.31803
1.32279
1.32645
1.32642
1.32452
1.322
1.31915
1.31413
1.30347
1.2879
1.28035
1.2787
1.27774
1.27764
1.28154
1.29068
1.29473
1.2942
1.29362
1
1
1
1
1
1
1
1
1
1
1
1
1
1
1
1.00013
1.00421
1.07415
1.40027
1.62142
1.67487
1.6938
1.70146
1.7034
1.70498
1.70526
1.70124
1.69141
1.68687
1.68509
1.67682
1.66968
1.66858
1.66715
1.66394
1.66001
1.65591
1.65188
1.64716
1.64435
1.64254
1.64181
1.64078
1.63653
1.62856
1.62374
1.62347
1.62437
1.62663
1.62907
1.63165
1.63215
1.63114
1.62935
1.62733
1.62217
1.61568
1.61042
1.60993
1.61122
1.61635
1.63132
1.65453
1.68047
1.69328
1.70144
1.70592
1.70677
1.70632
1.70512
1.70261
1.69934
1.69539
1.68908
1.68326
1.68013
1.67707
1.67476
1.67329
1.67149
1.66862
1.66484
1.6603
1.65595
1.65332
1.65031
1.64464
1.63735
1.631
1.62605
1.62122
1.61505
1.60767
1.60187
1.59953
1.59918
1.60135
1.60218
1.60018
1.59733
1.5936
1.58845
1.58663
1.58637
1.5861
1.58575
1.58315
1.57684
1.56568
1.5548
1.54901
1.54612
1.54514
1.5451
1.54406
1.54125
1.53508
1.52739
1.52346
1.52212
1.52177
1.52194
1.52217
1.52345
1.52621
1.52846
1.52868
1.52456
1.51846
1.51695
1.51703
1.51786
1.51654
1.51408
1.50982
1.50113
1.49103
1.48689
1.48645
1.48662
1.48604
1.48508
1.48359
1.47858
1.46718
1.45676
1.45361
1.45317
1.45579
1.46289
1.46487
1.46316
1.45959
1.45228
1.44188
1.43563
1.43422
1.4343
1.43413
1.43305
1.42949
1.42423
1.42242
1.42163
1.42032
1.41864
1.41677
1.41439
1.41024
1.40412
1.40074
1.40034
1.40033
1.40037
1.40023
1.39883
1.3935
1.3834
1.37716
1.37575
1.37518
1.37566
1.37719
1.37652
1.37375
1.37156
1.37065
1.37066
1.37117
1.37183
1.37034
1.36198
1.34555
1.33805
1.33774
1.33864
1.34111
1.34768
1.3576
1.361
1.35956
1.357
1.35527
1.3537
1.34985
1.34052
1.32611
1.31899
1.31786
1.31774
1.31916
1.32427
1.3285
1.32887
1.32734
1.32506
1.32248
1.31805
1.30814
1.29192
1.28247
1.28033
1.27932
1.27907
1.28238
1.29187
1.29777
1.29749
1.29647
1.29595
1
1
1
1
1
1
1
1
1
1
1
1
1
1
1
1
1.00004
1.00275
1.07772
1.37211
1.552
1.65633
1.70825
1.71124
1.71079
1.70586
1.69561
1.69087
1.69134
1.68452
1.67824
1.67756
1.67668
1.67302
1.66872
1.66398
1.65915
1.65338
1.64929
1.64789
1.64682
1.64531
1.64203
1.63463
1.62626
1.62305
1.62307
1.62415
1.62629
1.62968
1.63222
1.63252
1.63148
1.62938
1.62631
1.61838
1.61085
1.60651
1.60483
1.60569
1.6085
1.61313
1.6285
1.65056
1.67041
1.68543
1.69766
1.70408
1.70413
1.70325
1.70121
1.69821
1.69472
1.68981
1.68544
1.6843
1.68178
1.67768
1.67494
1.67236
1.66928
1.66578
1.6626
1.66022
1.65728
1.65118
1.64289
1.63529
1.6295
1.62453
1.61924
1.6128
1.60674
1.60426
1.60382
1.6051
1.60695
1.60582
1.60341
1.60034
1.59672
1.59383
1.59254
1.59126
1.58963
1.58622
1.57955
1.56823
1.55824
1.5533
1.55111
1.55053
1.55056
1.54917
1.54604
1.53996
1.53181
1.52724
1.52602
1.52571
1.52597
1.52643
1.52748
1.52965
1.53145
1.53118
1.52633
1.51986
1.51798
1.51827
1.51996
1.52026
1.51848
1.51497
1.50752
1.49745
1.49189
1.49102
1.49109
1.49074
1.48961
1.4881
1.48381
1.47363
1.46238
1.45838
1.45791
1.45987
1.46657
1.46919
1.46753
1.4634
1.45541
1.44496
1.43928
1.43795
1.43801
1.43786
1.43713
1.4346
1.42934
1.4266
1.42581
1.42453
1.42278
1.4209
1.41863
1.41465
1.40818
1.40409
1.40352
1.40336
1.40327
1.40311
1.40205
1.39748
1.38737
1.37954
1.37761
1.37694
1.37735
1.37962
1.38062
1.37888
1.37641
1.37497
1.37442
1.37454
1.37488
1.37312
1.36469
1.34776
1.33929
1.33881
1.34005
1.34304
1.34975
1.36011
1.36446
1.36328
1.36055
1.35834
1.35631
1.35215
1.34257
1.32792
1.32052
1.31927
1.31914
1.3204
1.32596
1.33103
1.33153
1.33024
1.3283
1.326
1.32203
1.31279
1.29621
1.28505
1.28237
1.28134
1.281
1.28384
1.29334
1.30088
1.30107
1.29967
1.29862
1.29702
1
1
1
1
1
1
1
1
1
1
1
1
1
1
1
1
1
1.00003
1.00291
1.06811
1.24691
1.48746
1.67768
1.71072
1.70749
1.70114
1.69454
1.69279
1.68831
1.6847
1.68495
1.68447
1.68157
1.67835
1.67347
1.66711
1.66156
1.65744
1.65563
1.65462
1.65276
1.64957
1.64316
1.63344
1.6259
1.6241
1.62435
1.62553
1.62794
1.6314
1.63249
1.63259
1.63092
1.62768
1.62252
1.61275
1.60632
1.60433
1.6015
1.60175
1.60425
1.60904
1.61489
1.6269
1.64128
1.66009
1.6777
1.69155
1.69857
1.69915
1.69647
1.69392
1.69233
1.68994
1.68779
1.6872
1.68626
1.68183
1.67744
1.67382
1.67057
1.66771
1.66534
1.66255
1.65708
1.64934
1.64137
1.63456
1.62884
1.62372
1.61799
1.61215
1.6095
1.60898
1.60981
1.61201
1.61168
1.60983
1.60711
1.60387
1.60061
1.59798
1.59573
1.59336
1.5896
1.58265
1.57109
1.56142
1.5572
1.55563
1.55553
1.55545
1.55382
1.55055
1.54465
1.53649
1.53125
1.52979
1.52947
1.53026
1.5313
1.53218
1.53368
1.53482
1.53393
1.52821
1.52044
1.51857
1.51927
1.52146
1.52341
1.52254
1.51969
1.51322
1.50375
1.49728
1.49574
1.4955
1.49537
1.49417
1.49258
1.48886
1.47994
1.46863
1.46372
1.46319
1.46485
1.47104
1.47387
1.47223
1.46759
1.45872
1.44782
1.44254
1.44139
1.44156
1.44143
1.44103
1.43963
1.43512
1.43114
1.43013
1.42893
1.42726
1.42539
1.42315
1.41929
1.41274
1.40794
1.40717
1.40691
1.40667
1.40643
1.40553
1.40156
1.39177
1.38205
1.37932
1.37857
1.37872
1.38122
1.38409
1.38397
1.38179
1.37999
1.37903
1.37867
1.37855
1.37648
1.36783
1.35029
1.34071
1.33998
1.34148
1.34501
1.35205
1.3628
1.36812
1.36724
1.36445
1.36178
1.35919
1.35457
1.3446
1.32974
1.32228
1.32092
1.32079
1.32186
1.32747
1.3338
1.33462
1.33339
1.33178
1.32982
1.32622
1.31745
1.30059
1.28797
1.28473
1.28365
1.28325
1.28577
1.2951
1.30411
1.30486
1.30316
1.30156
1.29946
1.29365
1
1
1
1
1
1
1
1
1
1
1
1
1
1
1
1
1
1
1.00002
1.00179
1.02328
1.16326
1.51901
1.66749
1.69833
1.69955
1.69566
1.69241
1.69159
1.69199
1.69011
1.68724
1.68486
1.68145
1.6734
1.66858
1.66645
1.66547
1.66456
1.66272
1.65896
1.65356
1.64474
1.63441
1.62849
1.62796
1.62861
1.62987
1.63179
1.63283
1.63274
1.63159
1.62757
1.62306
1.61714
1.60913
1.60488
1.60268
1.60111
1.60128
1.60317
1.60636
1.6095
1.61312
1.61993
1.63083
1.64604
1.66398
1.67967
1.68857
1.6882
1.6877
1.68844
1.68845
1.68793
1.68799
1.68856
1.68612
1.68099
1.67612
1.67253
1.66976
1.6668
1.66204
1.65544
1.64788
1.64081
1.63435
1.62861
1.62313
1.6179
1.61524
1.61449
1.61511
1.61763
1.61794
1.61638
1.61397
1.61068
1.60661
1.60249
1.59923
1.59664
1.59329
1.58674
1.57534
1.56511
1.56089
1.55974
1.5603
1.5603
1.55838
1.55481
1.54891
1.54121
1.53562
1.53369
1.53325
1.53455
1.53644
1.53733
1.53803
1.5385
1.53696
1.53064
1.52141
1.51881
1.51984
1.52253
1.52569
1.52596
1.52388
1.51822
1.50936
1.50268
1.50074
1.50005
1.49983
1.49872
1.49708
1.49372
1.48586
1.47498
1.46947
1.46885
1.47039
1.47631
1.47907
1.47735
1.47225
1.46229
1.45063
1.44528
1.44419
1.44472
1.44519
1.44478
1.4441
1.44097
1.43609
1.43448
1.43328
1.4317
1.42989
1.42767
1.42402
1.41761
1.4122
1.41115
1.41085
1.41051
1.41017
1.40938
1.40573
1.39622
1.38488
1.38114
1.38024
1.38002
1.38241
1.38667
1.3885
1.38744
1.38547
1.38415
1.38342
1.38289
1.38042
1.37151
1.3531
1.34236
1.34134
1.34293
1.34698
1.35447
1.36563
1.37189
1.37139
1.36867
1.36557
1.36231
1.35707
1.34654
1.33149
1.32415
1.32272
1.32256
1.32349
1.329
1.33635
1.33796
1.33693
1.33558
1.33399
1.3307
1.32224
1.30505
1.29105
1.28735
1.28619
1.28573
1.288
1.2972
1.3074
1.30882
1.3069
1.30466
1.30212
1.29594
1.28169
1
1
1
1
1
1
1
1
1
1
1
1
1
1
1
1
1
1
1
1.00001
1.00035
1.01179
1.18245
1.50857
1.63112
1.68361
1.70125
1.70153
1.69878
1.69427
1.69203
1.68741
1.68604
1.6793
1.67371
1.67362
1.67384
1.67365
1.67185
1.66828
1.66421
1.65686
1.64758
1.63936
1.63507
1.63503
1.63563
1.63529
1.63453
1.63327
1.63173
1.62907
1.62505
1.62114
1.61534
1.60926
1.60537
1.60365
1.6033
1.60312
1.60368
1.60509
1.60618
1.60767
1.60975
1.61153
1.61631
1.62894
1.64796
1.66521
1.67493
1.67814
1.68171
1.68488
1.68598
1.68675
1.68787
1.68707
1.68337
1.67842
1.67446
1.67138
1.66746
1.66158
1.6546
1.64751
1.6408
1.63436
1.62833
1.62401
1.62153
1.62051
1.62064
1.6235
1.62455
1.62268
1.62023
1.61689
1.61214
1.60685
1.60265
1.59977
1.59681
1.59123
1.58077
1.56968
1.56485
1.56388
1.56473
1.5652
1.56317
1.5592
1.55318
1.5459
1.54037
1.53802
1.53768
1.53949
1.54172
1.54242
1.54246
1.54188
1.53914
1.53324
1.52362
1.51953
1.52038
1.52338
1.52714
1.52845
1.52704
1.52234
1.51425
1.5075
1.50545
1.50482
1.50434
1.50327
1.50167
1.49855
1.49138
1.48118
1.47541
1.47466
1.47618
1.48201
1.48473
1.48302
1.47756
1.46648
1.45363
1.44787
1.44653
1.4469
1.44888
1.44869
1.44813
1.44602
1.44114
1.43861
1.43742
1.43597
1.43426
1.43212
1.42871
1.42275
1.41689
1.41546
1.41512
1.41474
1.41429
1.41351
1.41005
1.40061
1.3878
1.383
1.38195
1.38154
1.38327
1.38862
1.39257
1.39283
1.39122
1.38967
1.38864
1.38775
1.38489
1.37548
1.35625
1.34415
1.34281
1.34438
1.34884
1.35689
1.36854
1.37565
1.37564
1.37317
1.36978
1.36579
1.35973
1.34835
1.33313
1.32601
1.32455
1.32432
1.32512
1.33052
1.33889
1.34142
1.34062
1.3396
1.33838
1.33542
1.32716
1.30959
1.29438
1.29022
1.28896
1.28842
1.29052
1.29956
1.31078
1.31295
1.31088
1.30798
1.3049
1.29835
1.28382
1.26848
1
1
1
1
1
1
1
1
1
1
1
1
1
1
1
1
1
1
1
1
1
1.00021
1.01425
1.18253
1.40611
1.58593
1.68863
1.70129
1.69971
1.69752
1.69143
1.68599
1.68232
1.67813
1.67873
1.67982
1.68009
1.67825
1.6748
1.67153
1.66588
1.65875
1.65249
1.64764
1.64424
1.64378
1.64235
1.63878
1.63569
1.63347
1.63172
1.62886
1.62543
1.62178
1.61668
1.61222
1.60807
1.60552
1.60408
1.60359
1.60401
1.60452
1.60377
1.60449
1.60489
1.60477
1.60524
1.60677
1.61697
1.63395
1.65171
1.66272
1.66968
1.67712
1.68029
1.68165
1.68412
1.68472
1.6831
1.67974
1.6762
1.67289
1.66816
1.66168
1.65482
1.64825
1.64127
1.63417
1.62996
1.62838
1.62723
1.62693
1.62811
1.63021
1.62888
1.62623
1.62272
1.61748
1.6112
1.60619
1.60284
1.59997
1.5955
1.58695
1.57546
1.5694
1.56856
1.56908
1.57002
1.5681
1.56374
1.5576
1.55073
1.54554
1.5431
1.54314
1.54541
1.54692
1.54691
1.54632
1.54383
1.54055
1.5355
1.52709
1.52158
1.52173
1.5245
1.52833
1.53004
1.52908
1.52512
1.51798
1.51163
1.50951
1.50918
1.50894
1.5078
1.50635
1.50353
1.49671
1.48714
1.48133
1.48047
1.48201
1.48789
1.49044
1.48883
1.48334
1.4715
1.45717
1.4507
1.44901
1.44898
1.4513
1.4525
1.452
1.45017
1.44537
1.44233
1.4412
1.43989
1.43833
1.43636
1.4333
1.428
1.42202
1.42014
1.41971
1.41929
1.41873