/*--------------------------------*- C++ -*----------------------------------*\
  =========                 |
  \\      /  F ield         | OpenFOAM: The Open Source CFD Toolbox
   \\    /   O peration     | Website:  https://openfoam.org
    \\  /    A nd           | Version:  7
     \\/     M anipulation  |
\*---------------------------------------------------------------------------*/
FoamFile
{
    version     2.0;
    format      ascii;
    class       volScalarField;
    location    "2.4";
    object      rho;
}
// * * * * * * * * * * * * * * * * * * * * * * * * * * * * * * * * * * * * * //

dimensions      [1 -3 0 0 0 0 0];

internalField   nonuniform List<scalar> 
4128
(
2.54935
2.46805
2.40778
2.35837
2.30255
2.24228
2.17638
2.13577
2.09185
2.04208
1.98448
1.92819
1.8935
1.85408
1.81102
1.76297
1.73112
1.71195
1.68423
1.64765
1.60572
1.57998
1.55605
1.52082
1.47544
1.44536
1.43881
1.42881
1.4108
1.39216
1.37514
1.35567
1.32582
1.2875
1.2535
1.24317
1.23858
1.23148
1.22122
1.23771
1.33784
1.58903
1.92132
2.0361
2.04822
2.0368
2.01645
1.99276
1.97818
1.97699
1.97466
2.00335
2.08202
2.18488
2.28132
2.31129
2.29826
2.27002
2.22639
2.19822
2.18887
2.19238
2.20144
2.19341
2.19695
2.19863
2.19979
2.20223
2.21607
2.24947
2.29755
2.35333
2.38088
2.37912
2.36787
2.34341
2.31767
2.29742
2.2855
2.28199
2.2924
2.29818
2.29214
2.28295
2.27101
2.25633
2.24045
2.22465
2.2069
2.18204
2.14855
2.11292
2.08972
2.08018
2.07399
2.0749
2.09597
2.09699
2.08744
2.07425
2.04448
1.98567
1.95114
1.9418
1.93582
1.93297
1.94378
1.96054
1.95646
1.94828
1.93947
1.92231
1.8855
1.83745
1.81921
1.81379
1.81057
1.81113
1.81505
1.81032
1.8051
1.80052
1.7947
1.78143
1.7416
1.72522
1.74551
1.80662
2.03404
2.61994
2.53814
2.48597
2.43103
2.37221
2.30816
2.2464
2.20635
2.15794
2.106
2.04271
1.98895
1.95515
1.91457
1.87155
1.82184
1.79358
1.77346
1.74074
1.70124
1.65504
1.62729
1.60179
1.56692
1.52471
1.49738
1.49058
1.47862
1.45757
1.43642
1.41688
1.39168
1.35671
1.32234
1.29667
1.28728
1.28173
1.27559
1.29575
1.43737
1.74007
2.07355
2.14436
2.12503
2.10042
2.09071
2.0746
2.05851
2.05426
2.05478
2.07498
2.15214
2.24731
2.34126
2.37215
2.35796
2.32476
2.27687
2.23484
2.21759
2.21078
2.21488
2.21647
2.20399
2.173
2.14582
2.13581
2.13193
2.13308
2.15464
2.19867
2.23983
2.25643
2.26419
2.27042
2.27582
2.27566
2.27135
2.26733
2.27852
2.28427
2.27606
2.2642
2.25665
2.25238
2.25293
2.2594
2.25645
2.24257
2.21526
2.17225
2.12419
2.09073
2.07739
2.07229
2.07137
2.09006
2.10195
2.09254
2.07933
2.05486
2.00592
1.96052
1.94655
1.94018
1.93712
1.94347
1.9509
1.94577
1.93727
1.92829
1.91882
1.90172
1.86879
1.83212
1.81644
1.81037
1.8067
1.80406
1.8012
1.79683
1.79165
1.78541
1.77665
1.75696
1.7174
1.69932
1.69961
1.7379
2.68787
2.61565
2.56313
2.49973
2.44095
2.37235
2.31648
2.275
2.22269
2.16866
2.10197
2.05252
2.0185
1.97812
1.93421
1.88263
1.85472
1.83131
1.79602
1.75562
1.70729
1.67535
1.64903
1.61661
1.57587
1.55036
1.54371
1.52979
1.50596
1.48124
1.45722
1.42554
1.38973
1.36392
1.34282
1.33236
1.33371
1.36603
1.53394
1.91485
2.15678
2.26359
2.24153
2.19311
2.16391
2.15425
2.14869
2.14511
2.1468
2.16364
2.22969
2.31472
2.40806
2.44867
2.43704
2.40969
2.36452
2.31567
2.29117
2.2772
2.27168
2.26465
2.2487
2.22669
2.18634
2.14056
2.12261
2.11716
2.11721
2.12485
2.13293
2.13537
2.13287
2.13423
2.13739
2.14769
2.16796
2.19353
2.21257
2.2301
2.236
2.22907
2.2148
2.20841
2.21159
2.23612
2.26424
2.26478
2.25403
2.22993
2.18501
2.13771
2.10748
2.08849
2.08185
2.0795
2.08331
2.08459
2.07535
2.06488
2.05136
2.02189
1.9785
1.95372
1.946
1.94162
1.94
1.93735
1.93333
1.92814
1.92025
1.91088
1.90104
1.88617
1.85549
1.82352
1.81166
1.80423
1.79803
1.79388
1.78943
1.78481
1.78092
1.77557
1.76461
1.7351
1.69662
1.68535
1.68281
2.75842
2.69852
2.63843
2.57345
2.51104
2.43465
2.38785
2.34254
2.28673
2.23149
2.16485
2.11977
2.08424
2.04222
1.99563
1.94269
1.91512
1.88966
1.85141
1.80816
1.75704
1.72562
1.70145
1.67074
1.63124
1.60422
1.59562
1.57935
1.55315
1.52508
1.49712
1.45985
1.42777
1.40712
1.38954
1.39469
1.46549
1.68173
2.04528
2.34263
2.35826
2.33997
2.30879
2.26687
2.23214
2.21435
2.21456
2.22343
2.24313
2.31475
2.40136
2.4896
2.53854
2.52529
2.49998
2.45847
2.40026
2.36292
2.34424
2.33666
2.33504
2.32058
2.30169
2.27649
2.22961
2.17497
2.15316
2.13991
2.12981
2.12576
2.12325
2.11267
2.09975
2.09343
2.09243
2.0971
2.09438
2.09458
2.09876
2.08959
2.08979
2.0984
2.11179
2.1269
2.14506
2.1733
2.21245
2.23238
2.23109
2.2179
2.18243
2.1453
2.12585
2.1057
2.09501
2.09127
2.08629
2.0789
2.0682
2.05677
2.04547
2.0311
2.00841
1.97653
1.95005
1.93454
1.92499
1.92029
1.91615
1.91443
1.91457
1.90913
1.90246
1.89292
1.87334
1.83424
1.80532
1.79692
1.78971
1.78258
1.77871
1.7797
1.7778
1.77269
1.76477
1.7449
1.70246
1.67517
1.66824
2.82983
2.77447
2.71119
2.65203
2.57838
2.50602
2.46355
2.40819
2.35069
2.29405
2.22843
2.18953
2.15107
2.10618
2.05749
2.00315
1.97399
1.94536
1.90531
1.86082
1.80859
1.78032
1.75753
1.72687
1.68532
1.65827
1.64908
1.62973
1.60008
1.56677
1.5339
1.49782
1.47178
1.45458
1.46676
1.56969
1.88442
2.23073
2.48617
2.4914
2.42402
2.36854
2.34229
2.32078
2.30135
2.29337
2.30246
2.31894
2.3871
2.4862
2.57526
2.63971
2.62987
2.60059
2.55891
2.49962
2.44117
2.41602
2.40065
2.3957
2.39361
2.3779
2.35918
2.33429
2.29175
2.24396
2.21407
2.19165
2.16993
2.14891
2.13122
2.11334
2.09525
2.08465
2.0809
2.0785
2.07886
2.0742
2.05676
2.01911
1.99883
1.99817
2.00397
2.021
2.04462
2.06753
2.09325
2.1229
2.14585
2.15118
2.14566
2.12393
2.1132
2.10384
2.09748
2.09472
2.08693
2.07772
2.06422
2.05235
2.04711
2.04221
2.02908
2.00433
1.97073
1.93953
1.91705
1.9076
1.90474
1.90202
1.90388
1.91161
1.90671
1.89683
1.88051
1.84345
1.80236
1.79043
1.78517
1.7792
1.77592
1.7792
1.77668
1.76948
1.76141
1.74687
1.71171
1.67166
1.65804
2.90146
2.84289
2.78272
2.72261
2.64064
2.58556
2.53569
2.47168
2.41823
2.35444
2.29408
2.26028
2.21644
2.16914
2.11923
2.0649
2.03402
2.00146
1.95974
1.91342
1.86113
1.83666
1.81563
1.78474
1.74135
1.71272
1.70065
1.67883
1.64529
1.60768
1.57055
1.54137
1.52768
1.55188
1.70244
2.08327
2.45272
2.60224
2.59022
2.52357
2.44112
2.40397
2.39274
2.39386
2.39351
2.39727
2.41544
2.468
2.56138
2.64991
2.72443
2.73715
2.71349
2.6717
2.61511
2.54087
2.49157
2.47247
2.46021
2.45857
2.44857
2.42924
2.40779
2.37744
2.33759
2.30653
2.2817
2.25395
2.22449
2.19519
2.16425
2.13653
2.11873
2.10608
2.09704
2.08924
2.07904
2.06692
2.05226
2.02393
1.9926
1.98348
1.97464
1.96811
1.96775
1.97109
1.97406
1.98314
2.00009
2.02185
2.0433
2.05456
2.05709
2.06528
2.07262
2.06979
2.05491
2.04462
2.04089
2.04393
2.0508
2.04426
2.03708
2.02124
1.99274
1.95233
1.91863
1.90206
1.89741
1.8953
1.89697
1.90627
1.90674
1.89842
1.8839
1.85219
1.80424
1.78366
1.78047
1.77758
1.7775
1.78039
1.77484
1.76631
1.75687
1.74352
1.71894
1.67784
1.65157
2.96885
2.90926
2.85446
2.78559
2.71462
2.66383
2.59996
2.53872
2.48504
2.41035
2.36754
2.33234
2.28027
2.2332
2.18172
2.12686
2.09533
2.05816
2.0141
1.96818
1.9175
1.89485
1.87371
1.84116
1.79605
1.76713
1.75219
1.72667
1.68932
1.64644
1.60764
1.60816
1.66772
1.88839
2.27808
2.67191
2.73685
2.69968
2.65191
2.58655
2.51906
2.4871
2.47445
2.47625
2.48818
2.5031
2.55024
2.6381
2.72193
2.79521
2.82856
2.81608
2.78125
2.73252
2.66618
2.5887
2.55109
2.53366
2.5215
2.51376
2.49672
2.47618
2.45149
2.42076
2.3927
2.37038
2.34849
2.32298
2.28866
2.24414
2.20121
2.1726
2.15668
2.1445
2.13238
2.11987
2.1057
2.08813
2.06271
2.02698
1.99972
1.98871
1.97961
1.96942
1.96048
1.94661
1.92647
1.91497
1.91377
1.91595
1.92324
1.94493
1.96461
1.96662
1.96742
1.97194
1.97918
1.98294
1.98508
1.99144
2.00689
2.02791
2.02849
2.02005
1.9977
1.95862
1.92396
1.90324
1.89258
1.88975
1.89221
1.89728
1.89369
1.88626
1.87609
1.85677
1.81819
1.78318
1.77351
1.77153
1.76945
1.76891
1.76761
1.76142
1.75309
1.74215
1.72459
1.69158
1.65175
3.04125
2.97842
2.91904
2.85004
2.79369
2.73254
2.66297
2.60955
2.53958
2.47461
2.4454
2.39926
2.34354
2.3001
2.24142
2.19035
2.15863
2.11476
2.06961
2.02498
1.97582
1.95445
1.93201
1.89805
1.85167
1.82124
1.80163
1.77059
1.73351
1.68673
1.68991
1.79952
2.14891
2.49906
2.80759
2.86677
2.82147
2.73791
2.68702
2.65484
2.61519
2.58404
2.57001
2.57366
2.58553
2.62896
2.72863
2.81017
2.87693
2.91034
2.90607
2.87633
2.83365
2.77949
2.71244
2.65366
2.62036
2.60192
2.5833
2.56244
2.54063
2.51573
2.48455
2.45868
2.44096
2.42399
2.40589
2.383
2.34733
2.28902
2.24057
2.22319
2.20895
2.19324
2.17617
2.15944
2.14213
2.12058
2.0886
2.04587
2.01505
2.0045
1.99666
1.98689
1.9732
1.95326
1.92801
1.90863
1.89605
1.88577
1.88046
1.88095
1.87963
1.87332
1.86742
1.86203
1.86471
1.87738
1.8947
1.91405
1.93732
1.96422
1.98072
1.98341
1.9767
1.9487
1.90708
1.88635
1.8793
1.87599
1.87899
1.88647
1.88555
1.87955
1.87047
1.85755
1.83376
1.7964
1.77053
1.76081
1.75641
1.75343
1.75271
1.75133
1.74576
1.73839
1.7277
1.70882
1.66334
3.1261
3.05735
2.98327
2.92132
2.8646
2.79396
2.73217
2.67094
2.58899
2.55207
2.51772
2.45916
2.41109
2.36578
2.29767
2.25742
2.22131
2.17078
2.12821
2.0845
2.03592
2.01555
1.98903
1.95288
1.90791
1.87585
1.84564
1.81853
1.78376
1.812
1.97013
2.40811
2.78406
2.95036
2.98936
2.94817
2.87609
2.79039
2.73336
2.71088
2.69148
2.67548
2.6743
2.6899
2.72765
2.83391
2.91438
2.97371
3.00148
2.99731
2.96753
2.92653
2.87605
2.81127
2.757
2.73101
2.70426
2.67281
2.64175
2.61292
2.58315
2.54688
2.51768
2.49966
2.48391
2.46979
2.45312
2.43143
2.3957
2.33604
2.28753
2.26804
2.25241
2.23503
2.21684
2.19908
2.18013
2.15621
2.12304
2.08693
2.05942
2.03855
2.02141
2.00755
1.99386
1.97597
1.95029
1.91912
1.89489
1.88041
1.87323
1.86649
1.85557
1.84567
1.83401
1.81406
1.8001
1.79922
1.80363
1.81431
1.83046
1.85204
1.87664
1.89473
1.90034
1.89553
1.87322
1.86085
1.85627
1.85181
1.85276
1.86049
1.86504
1.86371
1.86042
1.85595
1.84268
1.81693
1.78306
1.7561
1.74186
1.73711
1.73409
1.73159
1.73228
1.73158
1.72656
1.71491
1.67427
3.2197
3.14539
3.0566
2.99176
2.9268
2.85783
2.79989
2.71725
2.65844
2.63121
2.57977
2.52105
2.48112
2.42052
2.35923
2.32686
2.28054
2.22808
2.1909
2.14191
2.09706
2.07773
2.04519
2.00574
1.96159
1.92779
1.89309
1.89339
1.97051
2.27158
2.65523
3.04809
3.11586
3.1039
3.05509
2.96738
2.89141
2.8383
2.80391
2.78099
2.76478
2.7676
2.79871
2.84785
2.95188
3.03964
3.08348
3.10037
3.08853
3.05578
3.01558
2.96971
2.90949
2.84658
2.82131
2.8033
2.77971
2.74881
2.70919
2.66206
2.61451
2.57713
2.55569
2.53983
2.5252
2.50771
2.4883
2.46643
2.43422
2.38437
2.33777
2.31002
2.28839
2.26693
2.24596
2.22725
2.20904
2.18599
2.15417
2.12412
2.10289
2.0828
2.06196
2.0413
2.02039
1.99838
1.9744
1.94776
1.92117
1.89931
1.88183
1.8657
1.8505
1.8357
1.8198
1.80387
1.79106
1.77809
1.76822
1.76131
1.75887
1.7589
1.76359
1.77497
1.79178
1.80707
1.8087
1.79253
1.78812
1.79732
1.80706
1.8147
1.82221
1.83052
1.83721
1.83756
1.834
1.82165
1.79743
1.76451
1.73668
1.72606
1.72153
1.71751
1.71638
1.7211
1.71897
1.71098
1.67854
3.27781
3.22588
3.13635
3.06051
2.98943
2.92771
2.85325
2.77271
2.74139
2.70045
2.63672
2.59134
2.54446
2.47088
2.43017
2.39178
2.33423
2.28965
2.25376
2.19389
2.16157
2.13819
2.10064
2.05273
2.02038
1.98682
2.01569
2.17186
2.60204
3.00044
3.22429
3.31757
3.28049
3.20868
3.11085
3.00171
2.93316
2.89992
2.87514
2.85609
2.8583
2.89397
2.96141
3.0745
3.18891
3.21261
3.21463
3.18858
3.14946
3.10497
3.0591
3.00909
2.94875
2.9078
2.88928
2.8706
2.8466
2.81636
2.77416
2.71141
2.64953
2.61894
2.60045
2.58306
2.56376
2.5427
2.52035
2.49449
2.46189
2.42379
2.39066
2.36551
2.34183
2.31561
2.28565
2.25528
2.22753
2.19999
2.1717
2.14908
2.1325
2.11521
2.09654
2.07796
2.0561
2.02764
1.99632
1.97112
1.95135
1.93207
1.91052
1.88628
1.86259
1.84101
1.82202
1.80584
1.78956
1.77307
1.76148
1.75285
1.74189
1.72993
1.72234
1.71982
1.72114
1.72261
1.72064
1.71527
1.70162
1.6993
1.7102
1.72659
1.74512
1.76539
1.78415
1.79721
1.80144
1.80075
1.79005
1.76054
1.73231
1.72361
1.71886
1.71473
1.71164
1.7126
1.70938
1.70034
1.67121
3.30736
3.28258
3.21488
3.13302
3.06224
2.99067
2.89634
2.8494
2.81883
2.76017
2.7026
2.66174
2.59256
2.53497
2.50143
2.44806
2.38955
2.35551
2.30853
2.24709
2.2279
2.19465
2.14976
2.10731
2.10887
2.19425
2.49991
2.9116
3.30352
3.40362
3.41608
3.37858
3.30021
3.22822
3.15195
3.0658
3.00547
2.97439
2.95123
2.94988
2.9839
3.05773
3.18323
3.30774
3.34888
3.33624
3.30713
3.26066
3.2078
3.15564
3.10529
3.05189
3.0019
2.97516
2.954
2.9303
2.90276
2.86951
2.82329
2.7583
2.70449
2.67597
2.65227
2.6276
2.60225
2.57731
2.55171
2.52226
2.48532
2.44957
2.4246
2.40501
2.38521
2.36209
2.33336
2.29981
2.26407
2.2238
2.18488
2.16639
2.15359
2.13871
2.11889
2.0962
2.07381
2.04784
2.02205
2.00372
1.98928
1.97401
1.95593
1.93207
1.89958
1.86163
1.82642
1.79833
1.78176
1.77357
1.7651
1.75273
1.737
1.72345
1.71346
1.70448
1.69717
1.69294
1.68962
1.68146
1.6557
1.62834
1.62152
1.62682
1.642
1.66161
1.68594
1.71301
1.73555
1.74487
1.74584
1.73685
1.71837
1.70716
1.70025
1.69748
1.70392
1.70735
1.70331
1.69712
1.67176
3.25188
3.31059
3.28343
3.21257
3.14162
3.04597
2.9577
2.92973
2.88554
2.82085
2.77621
2.71862
2.64568
2.60955
2.56451
2.49824
2.4537
2.41878
2.35074
2.31402
2.28738
2.24692
2.21096
2.25155
2.44432
2.90151
3.29385
3.53457
3.63419
3.60548
3.53579
3.43607
3.34002
3.27331
3.21777
3.15601
3.09321
3.05575
3.04049
3.06408
3.14352
3.2787
3.41456
3.46805
3.46139
3.43205
3.38274
3.32751
3.26949
3.21048
3.15221
3.10023
3.06577
3.04089
3.0144
2.98373
2.9496
2.91068
2.86129
2.80537
2.76519
2.73668
2.70843
2.67766
2.64496
2.61095
2.57501
2.539
2.50586
2.47881
2.45895
2.44111
2.42235
2.40067
2.37258
2.33634
2.29446
2.25192
2.21872
2.19745
2.18103
2.165
2.1465
2.12267
2.09353
2.05445
2.02342
2.01289
2.00436
1.99376
1.98032
1.96205
1.9346
1.89539
1.85167
1.81847
1.79961
1.78708
1.77478
1.75847
1.73922
1.72412
1.71254
1.70115
1.69059
1.684
1.67778
1.66959
1.6586
1.62892
1.58915
1.57656
1.57704
1.58221
1.59352
1.61143
1.63408
1.65553
1.66828
1.67172
1.66388
1.65256
1.65319
1.65847
1.66929
1.68222
1.68496
1.6838
1.67133
2.9644
3.28488
3.2987
3.27144
3.21416
3.11843
3.04346
3.00265
2.94378
2.88984
2.84244
2.76695
2.71665
2.68039
2.61777
2.55474
2.52075
2.46957
2.39894
2.37967
2.34115
2.33992
2.45842
2.80366
3.32231
3.69051
3.69604
3.69279
3.67457
3.61664
3.56297
3.49843
3.42266
3.35244
3.2962
3.23898
3.18255
3.1574
3.17307
3.2441
3.38147
3.52798
3.57831
3.5789
3.5497
3.50011
3.44262
3.38303
3.32058
3.25644
3.19875
3.1571
3.12941
3.10324
3.07318
3.03669
2.99376
2.94509
2.89321
2.84915
2.81887
2.79261
2.76424
2.73177
2.69521
2.65429
2.60443
2.55122
2.5196
2.50189
2.48725
2.47265
2.45631
2.436
2.40631
2.36253
2.31374
2.27725
2.25457
2.23724
2.21943
2.19785
2.1724
2.14543
2.11537
2.07874
2.04444
2.02747
2.01702
2.00545
1.99218
1.97714
1.9565
1.92046
1.87409
1.84352
1.82755
1.81487
1.80289
1.78914
1.76685
1.73666
1.71414
1.70213
1.69471
1.68784
1.68021
1.67242
1.66231
1.64142
1.60368
1.568
1.55539
1.55379
1.55355
1.55742
1.5668
1.57575
1.58259
1.58908
1.59231
1.58503
1.57913
1.58705
1.60299
1.62423
1.64186
1.65008
1.64541
2.55504
3.06932
3.26261
3.26858
3.25505
3.20061
3.12734
3.06605
3.00514
2.9599
2.89527
2.82379
2.7907
2.74227
2.6684
2.62195
2.58217
2.50637
2.46751
2.45384
2.51143
2.78984
3.2956
3.71201
3.99438
4.00162
3.90766
3.7808
3.6895
3.62604
3.5952
3.55641
3.49879
3.43357
3.37032
3.31509
3.27538
3.28662
3.36254
3.51327
3.64839
3.71914
3.70558
3.67532
3.62468
3.56087
3.49466
3.42904
3.36115
3.29998
3.25439
3.22067
3.1914
3.16207
3.12938
3.08866
3.03753
2.97847
2.92404
2.88757
2.86269
2.83973
2.81418
2.78329
2.74561
2.69577
2.6268
2.57057
2.54688
2.52815
2.51041
2.49623
2.48197
2.46486
2.43843
2.38988
2.32507
2.29037
2.27724
2.26552
2.25222
2.2352
2.21062
2.17473
2.12498
2.07678
2.05342
2.04158
2.03272
2.02489
2.01457
2.00193
1.98214
1.94686
1.90542
1.87752
1.85918
1.84049
1.81904
1.79858
1.78078
1.76131
1.73967
1.71822
1.70118
1.68859
1.67782
1.6671
1.65723
1.64818
1.62884
1.58604
1.55201
1.54294
1.54003
1.53868
1.53947
1.5407
1.5406
1.53948
1.53623
1.5276
1.51303
1.50866
1.51652
1.53265
1.55248
1.57709
1.58668
2.34826
2.67333
3.1091
3.22738
3.2617
3.24743
3.19428
3.13063
3.07955
3.02539
2.9389
2.88672
2.85645
2.79444
2.72694
2.68748
2.63354
2.57091
2.59896
2.79527
3.22624
3.80247
4.0964
4.13164
4.10555
4.04395
3.96419
3.88751
3.7964
3.70294
3.65367
3.60891
3.56154
3.50661
3.45312
3.41291
3.4145
3.48408
3.6426
3.77682
3.85503
3.84793
3.80837
3.75356
3.69101
3.6194
3.53861
3.45621
3.39399
3.35408
3.32023
3.28811
3.25585
3.2206
3.17946
3.13079
3.06948
3.00484
2.95815
2.92745
2.90305
2.88068
2.85705
2.82927
2.79354
2.74037
2.66139
2.60044
2.57433
2.55152
2.52964
2.51445
2.50145
2.4854
2.46106
2.42004
2.36516
2.31915
2.29461
2.27849
2.26462
2.25106
2.23177
2.19432
2.14062
2.10133
2.08086
2.06453
2.05021
2.03534
2.01792
1.99944
1.98206
1.95692
1.92294
1.90094
1.88764
1.87363
1.85555
1.83165
1.80222
1.77067
1.74281
1.72207
1.70767
1.69555
1.68443
1.67463
1.66617
1.65686
1.6423
1.61187
1.56555
1.54027
1.53374
1.53014
1.52666
1.52382
1.52289
1.52047
1.51658
1.51077
1.49234
1.46668
1.45912
1.46117
1.46952
1.484
1.50945
2.3006
2.40187
2.75654
3.05584
3.206
3.27245
3.25042
3.2065
3.16232
3.08804
2.98538
2.9491
2.91372
2.83958
2.79772
2.74905
2.73478
2.83842
3.24467
3.78747
4.21169
4.4659
4.45813
4.33946
4.18474
4.05724
4.00117
3.95532
3.88912
3.80646
3.72632
3.66449
3.6123
3.57044
3.54523
3.55052
3.6203
3.77507
3.91926
3.99225
3.99135
3.94753
3.88522
3.81718
3.74256
3.66165
3.56689
3.48693
3.44991
3.42077
3.38978
3.3566
3.32104
3.27893
3.22334
3.15099
3.07852
3.0287
2.99696
2.9698
2.9442
2.92035
2.8955
2.86563
2.82528
2.76953
2.70237
2.64975
2.61638
2.5877
2.55824
2.53028
2.50905
2.4898
2.46534
2.432
2.39202
2.35628
2.33084
2.31032
2.28914
2.26306
2.2307
2.19535
2.16071
2.13164
2.1074
2.08722
2.07015
2.05388
2.03688
2.01708
1.99038
1.95508
1.92179
1.90691
1.89698
1.88707
1.87578
1.85926
1.83216
1.79514
1.75878
1.72902
1.71189
1.70176
1.69462
1.69084
1.6857
1.67896
1.66781
1.63962
1.58714
1.54749
1.53282
1.52697
1.52274
1.51864
1.51522
1.51218
1.50749
1.50166
1.49166
1.46831
1.44118
1.43236
1.43129
1.43212
1.44053
2.3123
2.31746
2.42368
2.71636
2.98012
3.23268
3.29641
3.28078
3.24244
3.15328
3.04947
3.01113
2.95891
2.90418
2.88893
2.95477
3.25428
3.81655
4.32862
4.48997
4.51472
4.52139
4.48434
4.40671
4.28785
4.15831
4.06507
4.00226
3.93763
3.86863
3.80003
3.73887
3.68523
3.66821
3.68665
3.76443
3.92485
4.05819
4.11757
4.11969
4.08006
4.01757
3.95062
3.87653
3.7935
3.6918
3.59139
3.54412
3.51481
3.48839
3.45799
3.42358
3.3854
3.33642
3.25954
3.15148
3.08592
3.05828
3.03245
3.00656
2.98199
2.9573
2.92962
2.89526
2.84762
2.78228
2.72498
2.69039
2.66286
2.63365
2.60148
2.56732
2.53401
2.50267
2.46982
2.4317
2.39724
2.37166
2.35033
2.33053
2.30941
2.28144
2.24349
2.20603
2.17958
2.15975
2.14124
2.12038
2.09599
2.06987
2.0409
2.00696
1.97195
1.94657
1.93494
1.92742
1.919
1.90953
1.89714
1.87923
1.84548
1.79092
1.7501
1.73954
1.73326
1.72334
1.71014
1.70026
1.69228
1.68355
1.67213
1.65373
1.61815
1.57042
1.54067
1.53009
1.52502
1.52041
1.51594
1.51105
1.5056
1.49943
1.48967
1.46936
1.44203
1.42739
1.42051
1.41824
1.41292
2.34896
2.33301
2.32933
2.40949
2.63667
3.01724
3.27922
3.30047
3.28679
3.22139
3.12776
3.07856
3.02244
3.06796
3.32816
3.86599
4.42724
4.8174
4.88999
4.80401
4.66729
4.53798
4.46299
4.4271
4.37921
4.28451
4.15987
4.04756
3.96426
3.91192
3.87067
3.8294
3.80508
3.83395
3.9172
4.088
4.19738
4.2424
4.23689
4.20232
4.14346
4.08057
4.01472
3.9434
3.84564
3.71313
3.63327
3.60117
3.57331
3.54901
3.51874
3.48315
3.44144
3.38176
3.27853
3.15819
3.11266
3.08958
3.0647
3.03944
3.01478
2.98848
2.95695
2.9134
2.85111
2.78625
2.74492
2.72029
2.69797
2.67298
2.64285
2.60682
2.56633
2.5209
2.47284
2.44094
2.42099
2.40047
2.3773
2.35187
2.32155
2.28368
2.24332
2.21329
2.19339
2.17678
2.16187
2.1455
2.12376
2.09427
2.05644
2.01396
1.97482
1.95042
1.94037
1.93311
1.92968
1.92525
1.91583
1.89959
1.86468
1.80632
1.76222
1.74669
1.73927
1.73376
1.72965
1.72246
1.71227
1.70064
1.68678
1.66937
1.64306
1.60667
1.56813
1.54333
1.53248
1.52601
1.52004
1.51374
1.50689
1.5002
1.49104
1.47531
1.45187
1.43103
1.4194
1.41372
1.40287
2.40152
2.3634
2.32721
2.3255
2.40215
2.67703
3.12192
3.27039
3.28042
3.25954
3.19621
3.19698
3.38952
3.88913
4.5992
4.96329
5.00034
4.99635
4.94904
4.87475
4.77676
4.64243
4.52921
4.47574
4.43375
4.35698
4.23527
4.10629
4.00815
3.95899
3.93376
3.93974
3.99654
4.12011
4.29546
4.39473
4.38142
4.34374
4.30401
4.25211
4.19431
4.13614
4.07504
4.00063
3.88402
3.744
3.67958
3.64845
3.62091
3.59631
3.56595
3.52954
3.48526
3.41943
3.30965
3.19592
3.14651
3.12012
3.09482
3.06936
3.04506
3.01977
2.98738
2.93485
2.85493
2.78899
2.75998
2.73991
2.72153
2.70222
2.6784
2.64512
2.59494
2.52943
2.47348
2.44567
2.42827
2.41096
2.39352
2.37352
2.34521
2.3046
2.26163
2.23205
2.21192
2.19221
2.17239
2.15496
2.13793
2.11215
2.06526
2.01138
1.9846
1.97413
1.96408
1.95285
1.94166
1.92949
1.91502
1.89531
1.86628
1.82159
1.78041
1.76353
1.75459
1.74557
1.7328
1.71631
1.69967
1.68508
1.67115
1.65701
1.64548
1.63061
1.60376
1.57363
1.55687
1.54773
1.54063
1.53292
1.52293
1.50981
1.49739
1.48405
1.4659
1.44279
1.42512
1.41452
1.39953
2.44938
2.39839
2.34494
2.32424
2.33676
2.43708
2.78632
3.10007
3.24298
3.30747
3.47138
3.93223
4.61296
5.14702
5.46383
5.42898
5.25672
5.05069
4.91483
4.86177
4.8159
4.74316
4.64577
4.55529
4.47772
4.39222
4.28083
4.17105
4.07606
4.02556
4.02383
4.09595
4.27572
4.50132
4.61203
4.5869
4.48793
4.40105
4.33623
4.2793
4.22775
4.17621
4.12341
4.05255
3.93466
3.79684
3.7215
3.68406
3.65279
3.62314
3.59333
3.55733
3.51377
3.45171
3.3587
3.25886
3.19513
3.15892
3.12808
3.09634
3.06479
3.03326
2.99663
2.94253
2.86657
2.81021
2.78247
2.76141
2.7424
2.72273
2.69992
2.67157
2.61851
2.53612
2.48909
2.47266
2.45587
2.43532
2.41202
2.386
2.35083
2.29741
2.25733
2.24309
2.2305
2.2154
2.19804
2.17943
2.15869
2.12922
2.07869
2.02868
2.00872
1.99536
1.98078
1.96541
1.95106
1.93837
1.9255
1.90828
1.88126
1.8431
1.80319
1.77763
1.76153
1.7479
1.73463
1.72005
1.70225
1.68603
1.6745
1.66445
1.65461
1.64363
1.629
1.60308
1.569
1.54299
1.52984
1.52239
1.51515
1.50623
1.49569
1.484
1.4683
1.44876
1.43361
1.42253
1.40331
2.48795
2.43601
2.38122
2.34914
2.34881
2.36445
2.50582
2.80155
3.23005
3.86485
4.56299
5.27399
5.50045
5.55068
5.53999
5.46177
5.3226
5.13648
4.96167
4.87736
4.83558
4.79687
4.73719
4.64537
4.53521
4.42291
4.3129
4.20859
4.14995
4.14774
4.21967
4.4068
4.66411
4.79106
4.78169
4.69574
4.55549
4.44288
4.36309
4.30635
4.25647
4.20873
4.16048
4.09631
3.99584
3.86907
3.77481
3.71527
3.67302
3.64004
3.60797
3.57116
3.52644
3.46955
3.39595
3.31431
3.24758
3.20237
3.1664
3.13138
3.09524
3.05612
3.00758
2.94699
2.88672
2.83495
2.8001
2.77767
2.75886
2.74139
2.72308
2.69404
2.64067
2.56666
2.51917
2.49674
2.47971
2.46301
2.44392
2.4155
2.37088
2.31169
2.26906
2.24807
2.23334
2.22243
2.21218
2.19998
2.18148
2.14225
2.07108
2.02356
2.01159
2.00147
1.98916
1.97487
1.95912
1.94332
1.93149
1.92204
1.90726
1.87265
1.82609
1.79465
1.77594
1.75974
1.74319
1.72701
1.71459
1.70594
1.69778
1.69001
1.68136
1.67035
1.65405
1.62604
1.58758
1.55266
1.53228
1.52284
1.51726
1.51346
1.50847
1.5004
1.48867
1.46542
1.43724
1.42662
1.41639
2.52061
2.47064
2.42641
2.39892
2.38108
2.39194
2.48063
2.91546
3.83312
4.84288
5.48282
5.92732
5.9185
5.73243
5.52074
5.40906
5.3275
5.21168
5.06175
4.93362
4.85629
4.80835
4.76766
4.69837
4.59037
4.46846
4.34816
4.26228
4.26259
4.34764
4.5447
4.78634
4.94074
4.93211
4.86947
4.74767
4.60555
4.48064
4.38963
4.33299
4.282
4.23319
4.18396
4.12546
4.04778
3.94867
3.84308
3.7568
3.69604
3.65216
3.61369
3.57347
3.5283
3.47683
3.41844
3.35503
3.29535
3.24671
3.20525
3.16512
3.12318
3.07705
3.02374
2.96583
2.9129
2.86818
2.83193
2.80208
2.77429
2.74495
2.71079
2.67151
2.63145
2.59267
2.55945
2.53453
2.51149
2.48559
2.45341
2.40991
2.35011
2.30754
2.2882
2.27412
2.26149
2.24834
2.23395
2.21853
2.19656
2.15266
2.07575
2.0264
2.01428
2.00612
1.99763
1.98755
1.97555
1.9616
1.9475
1.93187
1.90331
1.85765
1.82055
1.80106
1.78766
1.77588
1.76395
1.74903
1.72708
1.70114
1.68517
1.67676
1.66883
1.65829
1.64296
1.62626
1.60508
1.57706
1.55191
1.53502
1.5212
1.51023
1.50151
1.492
1.47993
1.46841
1.45495
1.44274
1.42051
2.55181
2.50233
2.47651
2.46562
2.48832
2.68552
3.14377
3.8205
4.38572
4.93801
5.47431
5.84367
5.89324
5.80143
5.56743
5.41989
5.32842
5.24504
5.13077
5.00256
4.89401
4.81036
4.77008
4.71778
4.62658
4.52279
4.41586
4.39586
4.48348
4.70056
4.91667
5.07186
5.07436
5.01754
4.91271
4.78383
4.65308
4.52782
4.42482
4.36045
4.30429
4.25044
4.19817
4.14405
4.08422
4.011
3.9168
3.81448
3.73409
3.67762
3.63089
3.58431
3.53468
3.48444
3.43542
3.3841
3.32963
3.27939
3.23617
3.19511
3.1514
3.10177
3.04626
2.992
2.94354
2.89938
2.85951
2.82637
2.79765
2.76601
2.72668
2.67968
2.63489
2.60495
2.5835
2.56287
2.54105
2.51574
2.47919
2.42432
2.35646
2.31785
2.30246
2.29154
2.28256
2.27004
2.25554
2.23967
2.21706
2.17253
2.0983
2.04326
2.023
2.00998
1.99835
1.98901
1.98513
1.98101
1.97056
1.95159
1.91342
1.85473
1.82889
1.82344
1.8177
1.80889
1.79654
1.77899
1.75066
1.71456
1.69023
1.67772
1.66833
1.65918
1.64702
1.62895
1.60902
1.59031
1.56898
1.54497
1.52569
1.51418
1.50562
1.49644
1.48459
1.46886
1.45651
1.44775
1.42746
2.57895
2.54731
2.56345
2.67905
3.0979
3.72311
4.23921
4.38196
4.46264
4.6683
5.04256
5.40926
5.65067
5.6675
5.58321
5.46526
5.3487
5.26623
5.17141
5.06468
4.94597
4.83259
4.77222
4.70741
4.65069
4.5852
4.56354
4.64224
4.86299
5.06887
5.17725
5.17842
5.12057
5.03421
4.93
4.81528
4.70369
4.58452
4.47085
4.39134
4.32643
4.26677
4.21082
4.1577
4.1062
4.04999
3.97666
3.8795
3.78143
3.70922
3.65598
3.60827
3.55926
3.50783
3.45617
3.40499
3.35131
3.29593
3.24869
3.20942
3.16976
3.12504
3.07685
3.03123
2.98851
2.94457
2.89794
2.8506
2.8077
2.77233
2.73304
2.68733
2.65105
2.62698
2.60733
2.58762
2.56183
2.52441
2.47274
2.41109
2.37158
2.34956
2.33139
2.31525
2.29844
2.28035
2.26234
2.24246
2.21523
2.17111
2.10707
2.05651
2.03657
2.02478
2.0152
2.00662
1.99704
1.9844
1.96719
1.94232
1.9071
1.86917
1.8411
1.82556
1.81589
1.80594
1.79369
1.77633
1.75005
1.71402
1.68326
1.6683
1.65926
1.65127
1.64424
1.63684
1.62543
1.60929
1.58432
1.55499
1.53163
1.51368
1.50057
1.49185
1.48454
1.47646
1.46726
1.45812
1.43615
2.63472
2.69527
3.01626
3.64242
4.32764
4.58712
4.68681
4.6586
4.55437
4.52915
4.62752
4.8631
5.22976
5.53906
5.57691
5.49525
5.39184
5.29786
5.20992
5.12067
4.99809
4.86901
4.77868
4.71868
4.70335
4.75131
4.87652
5.09979
5.2748
5.34469
5.30966
5.21559
5.12073
5.02934
4.93561
4.84104
4.75264
4.64948
4.53345
4.43184
4.3496
4.2842
4.22727
4.17499
4.12638
4.07661
4.01699
3.93597
3.83504
3.74716
3.6843
3.63361
3.58546
3.53682
3.48993
3.44375
3.39082
3.32793
3.26843
3.21618
3.16687
3.12508
3.09163
3.06068
3.02678
2.98616
2.93734
2.88389
2.83189
2.78455
2.74559
2.70912
2.67757
2.64958
2.62471
2.60357
2.58237
2.54907
2.49032
2.41705
2.37434
2.36081
2.34995
2.33978
2.32687
2.30874
2.28758
2.2656
2.2361
2.17942
2.09975
2.06656
2.05749
2.04928
2.04046
2.03008
2.01628
1.99819
1.97657
1.94944
1.91119
1.8732
1.84888
1.83319
1.82121
1.81049
1.79883
1.78232
1.75639
1.71923
1.6846
1.66685
1.65896
1.65335
1.6487
1.64705
1.64418
1.6297
1.60324
1.56864
1.53887
1.51667
1.50103
1.49308
1.48882
1.48737
1.48434
1.47515
1.45077
2.95145
3.55988
4.30561
4.78356
4.80804
4.75133
4.7126
4.65863
4.58115
4.49378
4.46929
4.51268
4.70102
5.10347
5.38933
5.45496
5.41218
5.33509
5.2559
5.17044
5.05543
4.92045
4.82731
4.79706
4.86563
5.06885
5.32771
5.52698
5.53872
5.4861
5.37184
5.23908
5.12851
5.03473
4.9497
4.87038
4.79528
4.70851
4.60313
4.48723
4.38525
4.31403
4.25435
4.19735
4.14706
4.10131
4.05129
3.97921
3.87931
3.7841
3.71623
3.66523
3.61949
3.57298
3.52505
3.47806
3.43048
3.37454
3.30676
3.24079
3.1864
3.14703
3.11286
3.07685
3.04075
3.00481
2.96434
2.90946
2.83439
2.77164
2.73964
2.72105
2.70217
2.6797
2.65349
2.62403
2.58748
2.53795
2.47836
2.41948
2.39567
2.38204
2.36754
2.35099
2.32986
2.30413
2.27743
2.25015
2.21957
2.17269
2.11757
2.08515
2.06905
2.0563
2.0432
2.0295
2.01515
1.99788
1.97391
1.94545
1.91808
1.88875
1.85905
1.83833
1.82347
1.80988
1.79715
1.78279
1.7602
1.72454
1.69523
1.68563
1.68029
1.67534
1.66933
1.65937
1.64092
1.61768
1.59609
1.57905
1.55841
1.53523
1.52069
1.5129
1.50529
1.49402
1.47881
1.46301
1.44214
4.23541
4.88369
5.14448
5.12076
4.98243
4.80298
4.67718
4.62161
4.57043
4.49796
4.44187
4.42663
4.43714
4.60029
4.98826
5.28082
5.3924
5.36759
5.30418
5.22351
5.11568
5.0008
4.94814
5.01092
5.21317
5.49143
5.72692
5.77094
5.71194
5.57119
5.40959
5.2689
5.15204
5.05308
4.97224
4.90382
4.83251
4.75416
4.66204
4.54915
4.44254
4.36429
4.29882
4.23725
4.17814
4.11675
4.04835
3.97558
3.89863
3.81631
3.74725
3.69618
3.65407
3.61279
3.56822
3.51696
3.45338
3.37007
3.28451
3.22482
3.19208
3.16838
3.14228
3.11115
3.07509
3.03332
2.97932
2.90619
2.83458
2.78706
2.75737
2.72877
2.70428
2.68658
2.6707
2.64905
2.60906
2.54274
2.47884
2.45428
2.43768
2.41938
2.39822
2.37324
2.34487
2.31549
2.2851
2.25221
2.21801
2.18893
2.15423
2.11661
2.09215
2.07544
2.05989
2.04359
2.02508
2.00552
1.9832
1.95497
1.92385
1.89969
1.87778
1.85383
1.83526
1.81896
1.80031
1.78066
1.76091
1.7406
1.71981
1.69419
1.67159
1.65986
1.65169
1.64348
1.63265
1.61704
1.60077
1.582
1.55611
1.53139
1.51676
1.50794
1.49862
1.48772
1.4745
1.461
1.44071
5.26513
5.25283
5.1877
5.10774
5.01989
4.89277
4.75667
4.65384
4.58851
4.52799
4.4744
4.43858
4.39142
4.38211
4.53185
4.86907
5.1881
5.33053
5.32998
5.28319
5.1957
5.14112
5.20996
5.40881
5.65074
5.83577
5.89091
5.86044
5.76853
5.61458
5.44579
5.30022
5.17572
5.07391
5.00245
4.95173
4.89707
4.82233
4.72098
4.60166
4.49732
4.41862
4.34755
4.27697
4.20482
4.13278
4.06283
3.9874
3.90438
3.8268
3.76894
3.72248
3.67919
3.63976
3.60517
3.56341
3.49345
3.39002
3.28844
3.22888
3.20029
3.1769
3.15788
3.14027
3.11731
3.08138
3.00988
2.89984
2.82373
2.79494
2.77178
2.74911
2.7278
2.70295
2.67185
2.63835
2.60531
2.55624
2.48611
2.44197
2.42159
2.40356
2.38384
2.36244
2.34123
2.31937
2.29352
2.26234
2.22758
2.18481
2.13683
2.09751
2.07523
2.05987
2.04555
2.03103
2.0159
1.99985
1.98542
1.97105
1.95041
1.91269
1.86481
1.83385