/*--------------------------------*- C++ -*----------------------------------*\
  =========                 |
  \\      /  F ield         | OpenFOAM: The Open Source CFD Toolbox
   \\    /   O peration     | Website:  https://openfoam.org
    \\  /    A nd           | Version:  7
     \\/     M anipulation  |
\*---------------------------------------------------------------------------*/
FoamFile
{
    version     2.0;
    format      ascii;
    class       volScalarField;
    location    "2.1";
    object      T;
}
// * * * * * * * * * * * * * * * * * * * * * * * * * * * * * * * * * * * * * //

dimensions      [0 0 0 1 0 0 0];

internalField   nonuniform List<scalar> 
16192
(
1.39901
1.39903
1.39813
1.39735
1.39673
1.39586
1.3934
1.38671
1.37803
1.3753
1.37491
1.37476
1.37471
1.37637
1.3815
1.3844
1.38402
1.38319
1.38217
1.38
1.3748
1.36655
1.36244
1.36177
1.3618
1.36243
1.3651
1.37028
1.37499
1.37741
1.37849
1.37855
1.37751
1.3734
1.37026
1.36916
1.36821
1.36708
1.36673
1.36783
1.36998
1.36964
1.36814
1.36641
1.36466
1.36203
1.35753
1.35126
1.34787
1.3466
1.34553
1.34423
1.34288
1.34226
1.34257
1.34367
1.34315
1.34001
1.33735
1.33577
1.33397
1.33006
1.3209
1.31248
1.31122
1.31163
1.31262
1.31423
1.317
1.32268
1.33243
1.33979
1.34097
1.34074
1.33958
1.33684
1.33182
1.3251
1.31964
1.31668
1.31465
1.31287
1.31116
1.30952
1.30778
1.30584
1.30455
1.30402
1.30371
1.30356
1.30339
1.30343
1.30387
1.30372
1.30313
1.30228
1.30135
1.30053
1.29993
1.29921
1.2972
1.29282
1.28754
1.2855
1.28535
1.28527
1.2853
1.28552
1.28617
1.28638
1.2863
1.28615
1.28599
1.28572
1.28459
1.28175
1.27842
1.27718
1.27665
1.27624
1.27603
1.27639
1.27747
1.27763
1.2771
1.27664
1.2763
1.27595
1.27547
1.27455
1.27261
1.27002
1.26851
1.26812
1.26791
1.26759
1.26744
1.26784
1.26814
1.26743
1.26558
1.26351
1.2604
1.25635
1.25431
1.25408
1.25456
1.25605
1.25741
1.2584
1.25998
1.26114
1.26128
1.2609
1.25934
1.25692
1.25404
1.25288
1.25324
1.25479
1.25719
1.25981
1.26245
1.26503
1.26633
1.26641
1.26614
1.26438
1.2595
1.25426
1.25224
1.25205
1.25307
1.25339
1.25276
1.25298
1.25394
1.25432
1.25314
1.24864
1.24575
1.24498
1.24413
1.24273
1.24149
1.24133
1.24126
1.23952
1.23736
1.23613
1.23444
1.23125
1.22955
1.23008
1.23248
1.23528
1.23665
1.23735
1.23755
1.2375
1.2369
1.23458
1.23079
1.22704
1.22362
1.22052
1.21849
1.21764
1.21749
1.21749
1.21731
1.21514
1.21036
1.20916
1.21041
1.21316
1.21479
1.21554
1.21674
1.21957
1.22358
1.22459
1.22269
1.21842
1.21448
1.21082
1.20514
1.19483
1.18807
1.18731
1.18733
1.18777
1.18884
1.19101
1.19683
1.20538
1.20841
1.20829
1.20808
1.20747
1.20571
1.20079
1.19167
1.18539
1.18322
1.18171
1.18074
1.18066
1.18099
1.18326
1.1894
1.19552
1.1971
1.3969
1.39653
1.39589
1.39515
1.39457
1.39406
1.39321
1.39058
1.38352
1.37567
1.37363
1.3734
1.3733
1.37343
1.37562
1.37989
1.3813
1.38056
1.3794
1.37803
1.3753
1.36979
1.36257
1.35979
1.35942
1.35955
1.36073
1.36408
1.36857
1.37159
1.37317
1.37404
1.37399
1.3722
1.36792
1.36629
1.36558
1.36462
1.36368
1.36357
1.36493
1.36684
1.36633
1.36492
1.36335
1.3617
1.35934
1.35491
1.34921
1.34639
1.34515
1.34399
1.34267
1.34142
1.34068
1.34094
1.34142
1.33962
1.33616
1.33387
1.33209
1.32935
1.323
1.31244
1.3076
1.30745
1.30802
1.3093
1.31164
1.31615
1.32476
1.3349
1.33768
1.33781
1.33765
1.33616
1.33221
1.32515
1.31738
1.31391
1.31266
1.31151
1.31058
1.30983
1.30905
1.30804
1.30669
1.30498
1.30336
1.30242
1.30211
1.30166
1.30125
1.30107
1.3012
1.30081
1.29989
1.29893
1.29813
1.29733
1.2963
1.29431
1.28988
1.2849
1.28352
1.28331
1.28314
1.28315
1.28336
1.28417
1.28439
1.28435
1.28437
1.28439
1.28431
1.28332
1.28052
1.27735
1.27632
1.27604
1.27567
1.27584
1.27594
1.27534
1.27495
1.27483
1.27471
1.27436
1.27331
1.27156
1.27021
1.26929
1.26865
1.26797
1.26745
1.26715
1.26743
1.26876
1.26925
1.26815
1.26607
1.264
1.26075
1.25537
1.25174
1.25123
1.25159
1.25296
1.25429
1.25518
1.25705
1.25948
1.26066
1.26074
1.25997
1.25793
1.25565
1.25335
1.25135
1.2511
1.25166
1.25324
1.25566
1.2587
1.26209
1.2641
1.26413
1.26378
1.26177
1.2576
1.25423
1.25339
1.25335
1.25248
1.25165
1.25176
1.25235
1.2525
1.25142
1.248
1.24549
1.24448
1.2435
1.24208
1.24073
1.23998
1.23909
1.23689
1.23529
1.23447
1.23317
1.23068
1.2294
1.22961
1.23149
1.2342
1.23554
1.23618
1.23644
1.23644
1.23601
1.23372
1.22984
1.22552
1.22152
1.21858
1.21706
1.21675
1.2169
1.21757
1.21794
1.21768
1.21453
1.20978
1.2093
1.2107
1.21249
1.21304
1.21327
1.21418
1.2169
1.2203
1.2206
1.21782
1.21359
1.21035
1.20722
1.20141
1.19179
1.18735
1.18709
1.18724
1.18795
1.18919
1.19203
1.19851
1.20531
1.20658
1.20631
1.20587
1.20471
1.20157
1.19456
1.18581
1.18119
1.17892
1.17728
1.17663
1.17661
1.17729
1.18111
1.18946
1.1956
1.39487
1.39415
1.39359
1.39307
1.39253
1.39205
1.39162
1.39075
1.38805
1.38098
1.37379
1.37196
1.37179
1.37166
1.37181
1.3738
1.37714
1.37785
1.37689
1.37549
1.37403
1.37138
1.36645
1.36006
1.35782
1.35759
1.35775
1.35905
1.36227
1.36558
1.36753
1.36876
1.36946
1.36928
1.36698
1.36303
1.36241
1.36185
1.3606
1.3598
1.36
1.36233
1.36392
1.36335
1.36237
1.36128
1.35985
1.35737
1.35251
1.34752
1.34549
1.34426
1.34276
1.34091
1.33907
1.3383
1.33846
1.33808
1.33492
1.33184
1.32993
1.32798
1.32422
1.3159
1.30711
1.30512
1.30511
1.30555
1.30713
1.31063
1.31724
1.32713
1.33302
1.33317
1.33318
1.333
1.33105
1.32552
1.31691
1.31218
1.31125
1.3107
1.3101
1.30957
1.30912
1.30852
1.30772
1.30641
1.30422
1.30173
1.30054
1.30011
1.2995
1.29889
1.29858
1.29883
1.29883
1.29795
1.29692
1.29616
1.29547
1.29446
1.29172
1.28573
1.28145
1.28082
1.28056
1.2805
1.28057
1.281
1.28262
1.28314
1.28315
1.28329
1.28331
1.28312
1.28223
1.27965
1.27603
1.27413
1.27345
1.27326
1.27347
1.2731
1.2729
1.2729
1.27277
1.27201
1.27016
1.26903
1.26894
1.26908
1.26908
1.26873
1.26795
1.26719
1.26704
1.26708
1.26702
1.26594
1.26435
1.26291
1.26009
1.25423
1.24937
1.2486
1.2491
1.25068
1.25208
1.25316
1.25528
1.25917
1.26203
1.2625
1.26194
1.25959
1.25688
1.25412
1.24982
1.24653
1.24625
1.24712
1.24958
1.25275
1.25659
1.26126
1.26289
1.26273
1.26214
1.26086
1.25823
1.25478
1.25246
1.25067
1.25019
1.25032
1.25059
1.25036
1.24873
1.24679
1.24572
1.2449
1.24388
1.24234
1.24032
1.2386
1.23656
1.23421
1.2332
1.23271
1.23189
1.23055
1.22956
1.22955
1.23078
1.23311
1.23456
1.23538
1.23591
1.23599
1.23547
1.23308
1.22899
1.22372
1.21901
1.21685
1.21588
1.21575
1.21594
1.21664
1.21777
1.21833
1.21785
1.21369
1.20945
1.20928
1.21037
1.21087
1.21076
1.21059
1.21097
1.2132
1.21636
1.21639
1.21343
1.20993
1.20761
1.20492
1.1986
1.18966
1.1871
1.18711
1.18757
1.18853
1.19006
1.19303
1.19882
1.20371
1.20407
1.20357
1.20267
1.20075
1.19631
1.18841
1.18085
1.17642
1.17395
1.17284
1.17261
1.17301
1.17547
1.18231
1.19289
1.39297
1.39219
1.39143
1.39092
1.39058
1.39014
1.38974
1.38941
1.38856
1.38579
1.37846
1.37166
1.36994
1.3698
1.36964
1.36973
1.37119
1.37386
1.37447
1.37339
1.37196
1.37071
1.36861
1.36451
1.35843
1.35596
1.35573
1.35593
1.35727
1.36009
1.36239
1.36381
1.36486
1.36533
1.36476
1.36131
1.35795
1.35783
1.35724
1.35609
1.35585
1.35716
1.36076
1.36173
1.36139
1.36088
1.36002
1.35846
1.35581
1.3508
1.34572
1.34304
1.34126
1.33949
1.33769
1.33599
1.33526
1.33508
1.33366
1.33021
1.32782
1.3262
1.324
1.31933
1.31058
1.30433
1.30335
1.30346
1.30421
1.30645
1.3112
1.31871
1.32636
1.32817
1.32798
1.32783
1.32734
1.32466
1.31841
1.3121
1.30972
1.30921
1.30904
1.30951
1.30923
1.30852
1.30774
1.30684
1.3052
1.30212
1.29933
1.29844
1.29785
1.29708
1.29634
1.29618
1.29732
1.29783
1.2969
1.29604
1.29548
1.29455
1.29229
1.287
1.28066
1.27868
1.2784
1.27824
1.27825
1.27849
1.27953
1.28162
1.28235
1.28254
1.28276
1.28273
1.28239
1.28103
1.27736
1.27346
1.27203
1.2716
1.27125
1.27092
1.2707
1.27037
1.26965
1.26836
1.26784
1.26812
1.26841
1.26838
1.26854
1.26873
1.26854
1.26792
1.26718
1.26587
1.26401
1.26257
1.26162
1.26073
1.25877
1.25416
1.24924
1.24809
1.24832
1.24957
1.25098
1.25231
1.25466
1.25765
1.25999
1.26072
1.2603
1.25821
1.25578
1.25306
1.2483
1.24279
1.24163
1.24231
1.24473
1.24781
1.25139
1.25655
1.26144
1.26274
1.26303
1.26272
1.26086
1.2568
1.25222
1.24935
1.2485
1.24854
1.2485
1.24784
1.2466
1.24609
1.24608
1.24559
1.24396
1.24135
1.23868
1.2363
1.23378
1.23171
1.23103
1.23056
1.22997
1.22996
1.23033
1.23071
1.23111
1.23222
1.23316
1.23349
1.23393
1.23429
1.23382
1.23136
1.22719
1.22183
1.21678
1.21496
1.21458
1.21451
1.21466
1.21539
1.21686
1.21846
1.21902
1.21793
1.21227
1.20895
1.20895
1.20904
1.20885
1.20807
1.20719
1.20725
1.20941
1.21275
1.21268
1.21011
1.20764
1.20597
1.20321
1.19594
1.18841
1.18735
1.18771
1.1884
1.18904
1.18984
1.19237
1.19771
1.20111
1.20096
1.20017
1.19891
1.19636
1.1912
1.18339
1.17669
1.17275
1.17102
1.17074
1.17091
1.17229
1.17675
1.1878
1.39155
1.39023
1.38947
1.38883
1.3884
1.38819
1.38785
1.38756
1.38735
1.38654
1.38348
1.37557
1.36909
1.36761
1.36741
1.36712
1.36698
1.36788
1.37057
1.37155
1.3705
1.36927
1.36819
1.36647
1.36254
1.3565
1.35399
1.35379
1.35383
1.35509
1.35752
1.35912
1.36019
1.36094
1.3611
1.3598
1.35508
1.35271
1.35284
1.35237
1.35194
1.35262
1.35599
1.35937
1.35974
1.35947
1.35914
1.35861
1.35698
1.35361
1.3477
1.34298
1.34042
1.33838
1.33639
1.33446
1.3327
1.33183
1.33128
1.32914
1.32612
1.324
1.32225
1.31951
1.31459
1.30718
1.30286
1.30227
1.30253
1.30386
1.30665
1.31122
1.317
1.32147
1.32221
1.32206
1.32196
1.32145
1.3186
1.31313
1.30914
1.30801
1.30773
1.3081
1.30907
1.30837
1.30745
1.30667
1.30561
1.30316
1.29934
1.29689
1.29617
1.29546
1.2946
1.29407
1.29464
1.29529
1.2945
1.2937
1.29339
1.29291
1.2917
1.28823
1.28168
1.27725
1.27646
1.27621
1.27616
1.27628
1.27686
1.27939
1.28183
1.28206
1.28212
1.28214
1.28197
1.28125
1.27918
1.275
1.27105
1.26954
1.26885
1.26834
1.26788
1.26718
1.26614
1.26576
1.26612
1.26709
1.26784
1.26826
1.26881
1.26911
1.26891
1.26801
1.26595
1.26323
1.2609
1.25935
1.25826
1.25723
1.25591
1.25397
1.25113
1.24859
1.24833
1.24909
1.25035
1.2518
1.25447
1.25738
1.25869
1.25891
1.25802
1.25563
1.2535
1.25121
1.24648
1.24049
1.23862
1.23892
1.24092
1.24393
1.24745
1.25213
1.2582
1.26233
1.26282
1.26226
1.26029
1.25693
1.25215
1.24813
1.24614
1.2456
1.24565
1.24606
1.24626
1.24638
1.2463
1.24591
1.2445
1.24153
1.23778
1.2344
1.23135
1.22923
1.22843
1.22822
1.22825
1.22879
1.23043
1.23176
1.23192
1.23215
1.23255
1.23287
1.23289
1.23279
1.2322
1.22969
1.22527
1.22001
1.21525
1.21306
1.21288
1.21295
1.21326
1.21424
1.216
1.21819
1.21988
1.22013
1.21764
1.21066
1.20798
1.20767
1.20716
1.20612
1.20457
1.20342
1.2036
1.20659
1.21003
1.20973
1.2078
1.20634
1.20522
1.20224
1.1941
1.18765
1.187
1.18731
1.18788
1.18835
1.18885
1.19099
1.1959
1.1983
1.19792
1.19689
1.19519
1.19213
1.18681
1.17957
1.17285
1.16997
1.16982
1.16993
1.17056
1.17311
1.18222
1.39098
1.38852
1.38753
1.38687
1.38635
1.38604
1.3859
1.38565
1.38541
1.38518
1.38439
1.38091
1.37208
1.36608
1.36492
1.36455
1.36404
1.36373
1.36454
1.36775
1.36917
1.36851
1.36734
1.36616
1.36443
1.36007
1.35393
1.35167
1.35156
1.35168
1.35315
1.35502
1.35584
1.35642
1.35675
1.35652
1.35422
1.34893
1.34768
1.34808
1.34809
1.34862
1.35097
1.35487
1.35727
1.35771
1.35758
1.35715
1.35647
1.35461
1.35066
1.34466
1.34024
1.33753
1.33514
1.33287
1.33092
1.32921
1.32812
1.32718
1.32491
1.32212
1.31991
1.31814
1.3157
1.31121
1.305
1.30217
1.30186
1.30236
1.30369
1.30571
1.30873
1.31247
1.31526
1.31638
1.31657
1.31668
1.31617
1.31359
1.30947
1.30729
1.30684
1.30687
1.30799
1.30853
1.30754
1.30658
1.30552
1.30376
1.30038
1.29656
1.29476
1.29405
1.29333
1.29264
1.29255
1.29299
1.29277
1.29197
1.29166
1.29129
1.29053
1.28853
1.28335
1.27698
1.27476
1.27444
1.27436
1.27441
1.27474
1.27623
1.27978
1.28165
1.28165
1.28165
1.28156
1.28109
1.27984
1.27674
1.27141
1.26738
1.26582
1.26487
1.26427
1.26385
1.26376
1.26421
1.26543
1.26673
1.26762
1.26838
1.26903
1.26925
1.26913
1.26801
1.26502
1.26119
1.25808
1.25592
1.25424
1.25307
1.2528
1.25296
1.25292
1.25201
1.25035
1.25007
1.25051
1.25199
1.25419
1.25532
1.25578
1.25577
1.25446
1.25202
1.25011
1.24827
1.24526
1.24082
1.23835
1.23833
1.23937
1.24179
1.24508
1.24924
1.25397
1.25804
1.25987
1.25985
1.25858
1.25582
1.25148
1.24677
1.24381
1.2429
1.2434
1.24556
1.24713
1.24734
1.24698
1.24663
1.24565
1.24259
1.2374
1.23226
1.22863
1.22626
1.2258
1.22601
1.22664
1.22815
1.23051
1.23263
1.2333
1.23327
1.23266
1.23189
1.23174
1.23135
1.23016
1.22756
1.22327
1.21828
1.21413
1.21187
1.21104
1.21107
1.21173
1.21314
1.21533
1.21781
1.21997
1.22118
1.22088
1.21566
1.20815
1.20589
1.20506
1.20385
1.20211
1.20023
1.19934
1.20024
1.20503
1.20803
1.20771
1.20672
1.20616
1.20536
1.2014
1.1919
1.18664
1.18635
1.18645
1.18655
1.18661
1.18679
1.18914
1.19421
1.19576
1.19508
1.1936
1.19144
1.18815
1.18301
1.17616
1.17058
1.16909
1.1691
1.1696
1.17085
1.17665
1.39102
1.38752
1.38577
1.38504
1.38444
1.38391
1.38359
1.38365
1.38379
1.3838
1.38367
1.3825
1.37756
1.36778
1.36264
1.36167
1.36113
1.36051
1.36024
1.36187
1.36635
1.36738
1.36653
1.36548
1.36437
1.3623
1.35709
1.35118
1.34957
1.34949
1.34956
1.35077
1.35197
1.35231
1.35257
1.3526
1.35189
1.34884
1.34395
1.34341
1.34396
1.34457
1.34619
1.34948
1.35292
1.35483
1.35532
1.35522
1.35484
1.35391
1.35155
1.3468
1.34102
1.33726
1.33455
1.33166
1.32894
1.32693
1.32508
1.32383
1.32315
1.32137
1.31899
1.31714
1.31572
1.31384
1.31
1.30451
1.30201
1.3016
1.30165
1.302
1.30277
1.30449
1.30727
1.30983
1.31136
1.31189
1.31224
1.31188
1.30963
1.3073
1.30631
1.306
1.30606
1.30658
1.30609
1.30534
1.30463
1.30358
1.30156
1.29789
1.29413
1.29255
1.29191
1.29126
1.2906
1.29049
1.29067
1.29032
1.28974
1.28958
1.28932
1.28833
1.28467
1.27782
1.274
1.2732
1.27304
1.27305
1.27324
1.274
1.27673
1.28035
1.28155
1.28153
1.28146
1.28121
1.28037
1.27807
1.27246
1.26512
1.26229
1.26185
1.26164
1.26162
1.26186
1.26268
1.26468
1.26758
1.26893
1.26933
1.26962
1.2696
1.26892
1.26656
1.26236
1.25741
1.25341
1.25109
1.25031
1.25028
1.25069
1.25188
1.25334
1.25385
1.25349
1.25249
1.25235
1.25299
1.25322
1.2531
1.25274
1.25186
1.25008
1.24786
1.2461
1.2448
1.24383
1.24261
1.24062
1.23902
1.23916
1.24064
1.24345
1.24728
1.25088
1.25346
1.25497
1.25518
1.25428
1.25251
1.24962
1.24512
1.24184
1.2413
1.24204
1.24453
1.2472
1.24865
1.24842
1.24801
1.24707
1.24388
1.23753
1.23034
1.22545
1.22398
1.22389
1.22406
1.22457
1.22602
1.22884
1.23191
1.23354
1.23381
1.23352
1.23229
1.23058
1.22941
1.22779
1.22502
1.22151
1.21729
1.21347
1.21104
1.20991
1.20946
1.2099
1.21158
1.21447
1.21775
1.2203
1.22177
1.22194
1.21949
1.21117
1.20486
1.20273
1.20139
1.19965
1.19761
1.196
1.19587
1.19879
1.20544
1.20722
1.20697
1.20663
1.20639
1.20508
1.19871
1.18857
1.18506
1.18472
1.18463
1.18457
1.18449
1.1848
1.18787
1.19277
1.19379
1.19307
1.19145
1.18894
1.18509
1.17979
1.17351
1.16948
1.1685
1.1686
1.16883
1.17134
1.38984
1.38677
1.38438
1.38345
1.38287
1.38234
1.38203
1.38204
1.38226
1.38225
1.38232
1.38205
1.37986
1.37271
1.36297
1.3593
1.35858
1.35798
1.35736
1.35737
1.36029
1.36497
1.3652
1.3642
1.36334
1.36237
1.35999
1.35375
1.34831
1.34721
1.34708
1.34709
1.34817
1.34926
1.34943
1.34935
1.34897
1.3476
1.34388
1.33967
1.33953
1.34017
1.34142
1.34392
1.34721
1.35019
1.35217
1.35264
1.35255
1.35216
1.35097
1.34821
1.34349
1.33803
1.33375
1.33046
1.32726
1.32453
1.32254
1.32079
1.32009
1.32019
1.31947
1.31751
1.31608
1.31494
1.31336
1.30937
1.30269
1.2996
1.29907
1.29867
1.29856
1.29889
1.3004
1.3032
1.30567
1.30718
1.30804
1.30856
1.30827
1.30637
1.3049
1.30441
1.30432
1.30471
1.30518
1.3047
1.30406
1.3032
1.30178
1.29919
1.29477
1.29127
1.29012
1.28952
1.28884
1.28827
1.28847
1.28851
1.28767
1.28745
1.28734
1.28687
1.28505
1.28014
1.27439
1.2725
1.27222
1.27219
1.27227
1.27264
1.27383
1.277
1.28089
1.28128
1.28132
1.28123
1.28056
1.27873
1.27367
1.26483
1.26006
1.25959
1.25954
1.25961
1.2601
1.26142
1.26421
1.26744
1.26888
1.26913
1.2693
1.26913
1.26785
1.26443
1.25865
1.25205
1.2483
1.24771
1.24773
1.24817
1.24949
1.25181
1.25455
1.25624
1.25669
1.25627
1.25398
1.25222
1.25147
1.25057
1.24919
1.24701
1.24473
1.24295
1.24186
1.24152
1.24173
1.24261
1.24305
1.24269
1.24173
1.24184
1.24319
1.24552
1.24736
1.24857
1.24928
1.24933
1.24834
1.2468
1.24508
1.24272
1.24091
1.24028
1.24101
1.24371
1.24719
1.24978
1.24989
1.24952
1.24858
1.24536
1.23813
1.22859
1.22325
1.2221
1.22174
1.22173
1.22305
1.22514
1.22809
1.23149
1.23365
1.23447
1.23452
1.23276
1.22894
1.2269
1.2253
1.22277
1.21957
1.21642
1.21325
1.21094
1.20963
1.20897
1.20884
1.20995
1.21253
1.21578
1.21858
1.22035
1.2209
1.22012
1.21525
1.20669
1.20175
1.19951
1.19773
1.19571
1.19381
1.19302
1.19418
1.20062
1.2061
1.20644
1.20626
1.20633
1.20626
1.20351
1.19349
1.18464
1.18282
1.18242
1.18218
1.18209
1.18208
1.18319
1.18779
1.19237
1.193
1.19246
1.1903
1.18678
1.18233
1.17675
1.17074
1.16734
1.16694
1.16689
1.16779
1.38803
1.38629
1.38388
1.38227
1.38151
1.38096
1.38052
1.38042
1.3804
1.38031
1.38025
1.38015
1.37945
1.37589
1.36693
1.359
1.35667
1.35601
1.35529
1.35461
1.35505
1.35949
1.3635
1.36304
1.36219
1.3616
1.36053
1.35703
1.34975
1.34558
1.34501
1.34489
1.3449
1.34584
1.34678
1.34684
1.34643
1.34547
1.34343
1.33923
1.33578
1.33586
1.33663
1.33818
1.34078
1.34392
1.34696
1.34933
1.34984
1.34976
1.34941
1.34816
1.3451
1.33978
1.33392
1.32934
1.32558
1.32218
1.3198
1.31832
1.31768
1.31812
1.31884
1.31874
1.31725
1.31564
1.31435
1.31208
1.30609
1.29896
1.29645
1.29585
1.29534
1.29519
1.29561
1.29742
1.30018
1.30216
1.3035
1.30451
1.30507
1.30463
1.30311
1.30244
1.30238
1.30265
1.30363
1.3039
1.30342
1.30279
1.30174
1.29964
1.2958
1.29125
1.28858
1.28762
1.28705
1.28633
1.28599
1.28639
1.28583
1.2853
1.28537
1.28534
1.28478
1.28215
1.27634
1.27251
1.27173
1.27158
1.27156
1.27166
1.27204
1.27378
1.27782
1.28074
1.28061
1.28038
1.2799
1.27845
1.27461
1.2666
1.25952
1.25781
1.25772
1.25779
1.25838
1.26043
1.26429
1.26769
1.26879
1.2691
1.26913
1.26876
1.26683
1.26145
1.25319
1.24755
1.24569
1.24525
1.24523
1.24556
1.24794
1.25251
1.25646
1.25821
1.25918
1.25934
1.25765
1.25284
1.24938
1.24742
1.24508
1.24211
1.23958
1.23868
1.23887
1.23978
1.24076
1.24255
1.2446
1.24553
1.24543
1.24401
1.24358
1.2437
1.24398
1.24401
1.24369
1.243
1.24189
1.24078
1.24045
1.24041
1.24023
1.23989
1.24046
1.24325
1.24777
1.25095
1.25122
1.25077
1.2495
1.24571
1.23769
1.22728
1.22155
1.22039
1.22012
1.22014
1.22116
1.22477
1.2285
1.232
1.23428
1.23508
1.23495
1.23197
1.22672
1.22446
1.2229
1.22048
1.21747
1.21496
1.21293
1.21091
1.20972
1.2092
1.20887
1.20894
1.21074
1.2138
1.21669
1.2185
1.21921
1.21915
1.21697
1.21044
1.20266
1.19843
1.19599
1.19394
1.192
1.19087
1.19126
1.19604
1.20433
1.20688
1.20687
1.2069
1.20683
1.20525
1.19772
1.1854
1.18072
1.18019
1.18001
1.17998
1.18003
1.18041
1.1834
1.18913
1.19155
1.19136
1.19023
1.18767
1.18339
1.17823
1.17253
1.16746
1.16595
1.16575
1.16602
1.38581
1.38455
1.38308
1.38151
1.38032
1.37963
1.37917
1.37887
1.37873
1.37866
1.37857
1.37837
1.37785
1.37606
1.37095
1.36185
1.35614
1.35432
1.35355
1.35275
1.3522
1.35334
1.35878
1.36187
1.36118
1.36029
1.35953
1.35807
1.35341
1.34601
1.34294
1.34257
1.3424
1.34237
1.34359
1.34481
1.3448
1.34403
1.34232
1.33932
1.33441
1.33194
1.33207
1.33284
1.3345
1.33713
1.34039
1.34395
1.3466
1.34703
1.34695
1.34664
1.34493
1.34089
1.33474
1.32887
1.32426
1.32048
1.31779
1.31635
1.31571
1.31654
1.31967
1.32016
1.31838
1.31635
1.31477
1.31267
1.30868
1.30111
1.29524
1.29344
1.2929
1.29243
1.29239
1.29307
1.29517
1.2975
1.29889
1.2999
1.30078
1.30134
1.30074
1.29975
1.29978
1.30035
1.30128
1.30241
1.30243
1.30186
1.30094
1.29935
1.29645
1.29224
1.28835
1.28611
1.28513
1.28451
1.28395
1.28403
1.28413
1.28331
1.28317
1.2833
1.28333
1.28261
1.27937
1.27401
1.27163
1.27116
1.27101
1.271
1.27111
1.272
1.2747
1.27728
1.27774
1.27762
1.27739
1.2766
1.27445
1.26931
1.26163
1.2573
1.25625
1.25615
1.25653
1.25796
1.26118
1.26504
1.26666
1.26702
1.26708
1.26672
1.26426
1.2569
1.24844
1.24482
1.24348
1.24302
1.243
1.24369
1.24705
1.25327
1.25816
1.26034
1.26151
1.26186
1.26069
1.25435
1.247
1.24351
1.24084
1.23796
1.23599
1.23526
1.23551
1.23764
1.24075
1.2434
1.24544
1.24713
1.24792
1.24758
1.24477
1.24197
1.24098
1.23998
1.23826
1.23641
1.23587
1.23612
1.23678
1.23763
1.23896
1.23969
1.2406
1.24327
1.24709
1.24947
1.24996
1.24974
1.24866
1.24509
1.23725
1.22682
1.22063
1.21921
1.21898
1.21904
1.21987
1.22256
1.22651
1.23058
1.23304
1.23402
1.23397
1.23077
1.22514
1.22251
1.2206
1.21799
1.2152
1.21336
1.21256
1.21147
1.21028
1.21009
1.20969
1.20884
1.20906
1.21112
1.21411
1.21613
1.2169
1.217
1.21621
1.21258
1.20552
1.19865
1.19512
1.19278
1.19083
1.18963
1.18964
1.19259
1.20006
1.20388
1.2044
1.20468
1.2049
1.20435
1.20017
1.18882
1.18031
1.17889
1.17867
1.17862
1.17864
1.17878
1.18018
1.18521
1.19027
1.19103
1.19004
1.18721
1.18322
1.17862
1.17372
1.16879
1.16578
1.16525
1.16541
1.38358
1.38258
1.38168
1.38072
1.37972
1.37875
1.37788
1.37735
1.37708
1.37683
1.3765
1.37602
1.37539
1.37441
1.37194
1.36663
1.35842
1.3537
1.3521
1.35125
1.35044
1.35016
1.3522
1.35844
1.36087
1.36001
1.35894
1.35779
1.35531
1.34929
1.34259
1.34059
1.34043
1.34032
1.34066
1.34252
1.34329
1.34241
1.34057
1.33828
1.33446
1.32933
1.32802
1.32822
1.32909
1.33111
1.33411
1.33764
1.34132
1.34364
1.34382
1.34364
1.34295
1.34041
1.33524
1.32887
1.32372
1.31969
1.3168
1.31516
1.31449
1.31462
1.31632
1.31786
1.31702
1.31511
1.31355
1.31211
1.30948
1.30439
1.29679
1.2923
1.29093
1.29049
1.29015
1.29024
1.29116
1.29308
1.29471
1.29556
1.29625
1.29696
1.29743
1.29673
1.29644
1.2972
1.29845
1.29985
1.30077
1.3006
1.30001
1.2989
1.2969
1.29376
1.28989
1.28624
1.28331
1.28214
1.28153
1.28113
1.28134
1.28141
1.28095
1.28103
1.28129
1.28135
1.28048
1.27715
1.27262
1.27094
1.27061
1.27055
1.27058
1.27099
1.27275
1.27502
1.27543
1.27522
1.27499
1.27431
1.2728
1.26978
1.26435
1.2584
1.25584
1.25535
1.25543
1.25665
1.25948
1.26338
1.26465
1.26487
1.26491
1.26429
1.26059
1.25257
1.24601
1.24319
1.24182
1.2413
1.24132
1.24262
1.24835
1.25609
1.25949
1.26095
1.26206
1.26234
1.26144
1.25492
1.24461
1.23941
1.23712
1.23506
1.23347
1.23281
1.23337
1.23707
1.24208
1.24499
1.24701
1.24879
1.24962
1.24956
1.24683
1.24103
1.23751
1.23576
1.23387
1.23202
1.23135
1.23153
1.23297
1.23497
1.23695
1.23905
1.24091
1.24341
1.2464
1.24776
1.24789
1.24768
1.24656
1.24328
1.23653
1.22725
1.22039
1.21857
1.21828
1.21832
1.21909
1.22161
1.22537
1.22933
1.2319
1.2328
1.23266
1.22967
1.22426
1.2211
1.21866
1.21564
1.21282
1.21186
1.2122
1.21217
1.21118
1.21116
1.21111
1.20961
1.20803
1.20866
1.21098
1.21327
1.21414
1.21424
1.21396
1.21231
1.20835
1.20193
1.19568
1.19232
1.19042
1.18927
1.18918
1.19086
1.19689
1.20165
1.20196
1.20213
1.20242
1.20231
1.20037
1.19335
1.18256
1.1785
1.17806
1.178
1.17801
1.17807
1.17865
1.18163
1.18674
1.18903
1.18882
1.18685
1.18298
1.1782
1.17395
1.17034
1.16691
1.16529
1.16508
1.38158
1.38069
1.38002
1.37951
1.37878
1.37785
1.37676
1.37584
1.37527
1.3749
1.37453
1.37385
1.37279
1.37176
1.37075
1.36852
1.3638
1.35604
1.35145
1.34999
1.34915
1.34852
1.34853
1.3509
1.35609
1.35744
1.35663
1.35583
1.35489
1.35263
1.34623
1.34015
1.33863
1.33844
1.3383
1.33901
1.34097
1.34114
1.33956
1.33716
1.33389
1.32886
1.32509
1.32474
1.32509
1.32637
1.32883
1.33196
1.33524
1.3383
1.33991
1.33991
1.33945
1.33824
1.3348
1.32915
1.32373
1.31962
1.31655
1.31446
1.31348
1.31338
1.3138
1.31502
1.31541
1.31434
1.31259
1.31093
1.30903
1.30592
1.30056
1.29354
1.28985
1.28887
1.28849
1.28819
1.28829
1.28904
1.29054
1.29176
1.29232
1.29274
1.29333
1.29378
1.29325
1.29333
1.29466
1.29642
1.29824
1.29897
1.29884
1.29838
1.2972
1.29495
1.2914
1.28702
1.28287
1.2798
1.27887
1.27838
1.2781
1.27853
1.27895
1.27886
1.27924
1.27988
1.28
1.27905
1.27554
1.27142
1.27034
1.27022
1.27025
1.27048
1.27149
1.27285
1.27309
1.27291
1.2726
1.27187
1.27044
1.26823
1.26498
1.26101
1.25748
1.25552
1.25523
1.2557
1.25772
1.26064
1.26208
1.26226
1.26225
1.26117
1.25657
1.24972
1.24477
1.24203
1.24078
1.24029
1.24029
1.24239
1.24823
1.25439
1.25786
1.25937
1.26056
1.26105
1.26043
1.25559
1.24509
1.23781
1.23485
1.23328
1.23203
1.23162
1.23268
1.23593
1.23949
1.24265
1.24548
1.24734
1.24847
1.2486
1.24651
1.23955
1.23409
1.23212
1.23052
1.22865
1.22758
1.22753
1.22888
1.23203
1.23497
1.23796
1.24108
1.24382
1.24505
1.24519
1.24511
1.24472
1.24337
1.24022
1.23481
1.22803
1.22181
1.21856
1.21819
1.21828
1.21878
1.22056
1.22406
1.22786
1.23024
1.23108
1.23105
1.22901
1.22422
1.22045
1.21746
1.21415
1.2115
1.21081
1.21149
1.21197
1.21149
1.21172
1.21207
1.21088
1.20786
1.20716
1.20811
1.20989
1.21089
1.21115
1.21107
1.21038
1.20839
1.2046
1.19879
1.19339
1.19085
1.18986
1.18979
1.19045
1.19327
1.19802
1.19947
1.19936
1.19953
1.19951
1.19866
1.19533
1.18777
1.17975
1.17812
1.17814
1.17815
1.17817
1.17828
1.17932
1.18247
1.18596
1.18664
1.1858
1.18282
1.17848
1.17458
1.17173
1.1691
1.16627
1.1647
1.37983
1.37926
1.37887
1.37798
1.37717
1.37655
1.37583
1.37474
1.37361
1.37276
1.37204
1.37117
1.37
1.36902
1.36837
1.36766
1.36597
1.3616
1.35387
1.34938
1.34819
1.34742
1.34663
1.3465
1.34927
1.35453
1.35523
1.35475
1.35442
1.35333
1.35033
1.34335
1.33804
1.33676
1.33644
1.33613
1.33652
1.33739
1.33698
1.33493
1.33247
1.32895
1.32408
1.32199
1.322
1.32255
1.324
1.3264
1.32926
1.33208
1.33456
1.33576
1.33572
1.33499
1.33319
1.32905
1.32348
1.31902
1.31574
1.31361
1.31259
1.31225
1.31202
1.31177
1.31184
1.31208
1.31142
1.30977
1.30797
1.30595
1.30288
1.29758
1.29082
1.28769
1.28705
1.28664
1.28626
1.28622
1.28675
1.28803
1.28901
1.28943
1.2898
1.29032
1.29047
1.28999
1.29036
1.29214
1.2945
1.29668
1.29718
1.29713
1.29678
1.29528
1.29232
1.28812
1.28335
1.27881
1.27638
1.27597
1.27567
1.27554
1.27649
1.27757
1.27776
1.27838
1.27881
1.27881
1.27773
1.27429
1.27133
1.27089
1.27091
1.27084
1.27081
1.27089
1.27087
1.2707
1.2704
1.26969
1.26818
1.26583
1.26352
1.26162
1.26006
1.25836
1.25633
1.25537
1.25568
1.25742
1.25905
1.25937
1.25916
1.25718
1.25258
1.24792
1.24418
1.24138
1.24018
1.24
1.24063
1.244
1.24854
1.25212
1.25525
1.25681
1.25778
1.25828
1.25815
1.25556
1.24792
1.23844
1.23364
1.2318
1.23096
1.2311
1.23344
1.23634
1.23811
1.2405
1.24315
1.24489
1.24595
1.24622
1.24479
1.23905
1.23298
1.23004
1.22813
1.22632
1.22497
1.22475
1.22607
1.22965
1.23249
1.23541
1.2393
1.24233
1.24298
1.24265
1.2417
1.24073
1.23933
1.2367
1.23268
1.228
1.22333
1.21993
1.21851
1.21826
1.21838
1.21917
1.22235
1.22649
1.22858
1.22909
1.22907
1.22808
1.22468
1.2206
1.21707
1.21346
1.21072
1.21025
1.21142
1.21229
1.21192
1.21208
1.21265
1.21231
1.20889
1.20556
1.20549
1.20642
1.20728
1.20775
1.20857
1.2087
1.20793
1.20563
1.20174
1.19619
1.19192
1.19054
1.1903
1.19041
1.19087
1.19304
1.19649
1.19691
1.19687
1.19685
1.19643
1.19522
1.19187
1.18484
1.17849
1.17717
1.17715
1.17726
1.1775
1.17776
1.17894
1.18203
1.18438
1.18437
1.18284
1.17952
1.17576
1.17306
1.17099
1.16807
1.165
1.378
1.37783
1.37778
1.37674
1.37593
1.37535
1.37459
1.3732
1.37169
1.37048
1.36924
1.3681
1.36737
1.36693
1.36671
1.36638
1.3657
1.36407
1.35936
1.35115
1.34653
1.34531
1.34464
1.34414
1.34471
1.34874
1.35282
1.35277
1.35239
1.35229
1.35142
1.34804
1.34066
1.33581
1.33447
1.3339
1.33345
1.33388
1.33423
1.333
1.33073
1.32828
1.32446
1.3202
1.31903
1.31919
1.31997
1.32169
1.32432
1.32711
1.32939
1.33106
1.33178
1.33165
1.33037
1.32752
1.32268
1.3177
1.31431
1.31224
1.31131
1.31104
1.3106
1.30929
1.3083
1.30808
1.30855
1.30855
1.30708
1.30534
1.30339
1.30039
1.29485
1.28822
1.28566
1.28516
1.28463
1.28412
1.28394
1.28448
1.28576
1.28662
1.28704
1.2874
1.28781
1.28787
1.28718
1.28763
1.2897
1.29267
1.29475
1.29487
1.29484
1.29434
1.29242
1.28885
1.28406
1.27875
1.27476
1.27381
1.27365
1.27355
1.27388
1.27591
1.2773
1.27764
1.27808
1.27821
1.27815
1.27713
1.27356
1.27011
1.26928
1.26921
1.26906
1.26893
1.2687
1.26834
1.26792
1.26717
1.26569
1.2637
1.26216
1.26119
1.26041
1.2597
1.25845
1.256
1.25465
1.25488
1.25576
1.25592
1.25527
1.253
1.25022
1.2476
1.24459
1.24146
1.24007
1.23991
1.24056
1.24301
1.24568
1.24863
1.2519
1.25405
1.25478
1.25501
1.25495
1.25395
1.25029
1.24305
1.2348
1.23119
1.23041
1.23039
1.232
1.23437
1.23589
1.23825
1.24073
1.24206
1.24242
1.24232
1.24134
1.23851
1.23402
1.22983
1.22704
1.22493
1.22365
1.22349
1.22464
1.22758
1.23004
1.23279
1.23643
1.23904
1.23964
1.23906
1.23707
1.23595
1.23522
1.23364
1.23101
1.2277
1.22425
1.22124
1.21917
1.21826
1.21818
1.21851
1.22059
1.22493
1.22704
1.22719
1.22706
1.22632
1.22464
1.22158
1.21785
1.21389
1.21027
1.20878
1.20902
1.20983
1.21015
1.21116
1.2127
1.21286
1.20986
1.204
1.20305
1.20391
1.20481
1.20498
1.20582
1.20732
1.20746
1.2067
1.20405
1.19977
1.1945
1.19113
1.19022
1.18966
1.1894
1.1896
1.19192
1.19483
1.19494
1.19476
1.19456
1.194
1.19274
1.18924
1.18182
1.17701
1.17643
1.17644
1.17659
1.17679
1.17703
1.17856
1.18169
1.18339
1.18301
1.18065
1.17678
1.17399
1.17232
1.17005
1.16594
1.37644
1.37671
1.37665
1.37565
1.37487
1.37422
1.37349
1.37216
1.3697
1.36768
1.36652
1.36562
1.36531
1.36531
1.36536
1.36546
1.36524
1.36428
1.36179
1.35543
1.3469
1.34364
1.34295
1.34243
1.34212
1.34307
1.34779
1.35103
1.35071
1.35042
1.35024
1.34931
1.34531
1.33737
1.33323
1.33206
1.33131
1.33107
1.33129
1.33052
1.32828
1.32631
1.32396
1.32034
1.31758
1.31702
1.31724
1.31843
1.3204
1.32291
1.32511
1.32651
1.32731
1.32756
1.32706
1.32476
1.32097
1.31611
1.31243
1.31061
1.30965
1.30925
1.30851
1.30694
1.30532
1.30437
1.30419
1.30543
1.30618
1.30524
1.30351
1.30136
1.29795
1.29131
1.28498
1.28342
1.28289
1.2823
1.28181
1.28176
1.28258
1.28375
1.28439
1.28483
1.28529
1.28552
1.28547
1.28451
1.28489
1.28702
1.2902
1.29187
1.29181
1.29175
1.29105
1.28862
1.28451
1.27922
1.27423
1.27213
1.27206
1.27214
1.27285
1.27472
1.27673
1.27843
1.27881
1.27903
1.27898
1.27815
1.27532
1.27109
1.2685
1.26769
1.26732
1.26698
1.26661
1.26592
1.26469
1.26365
1.263
1.26237
1.26176
1.26084
1.25991
1.25949
1.25903
1.25755
1.25472
1.25306
1.25263
1.25203
1.25096
1.25007
1.24893
1.2471
1.24459
1.24176
1.2409
1.24114
1.2417
1.24209
1.24294
1.24494
1.24793
1.25039
1.25175
1.25203
1.252
1.25157
1.25013
1.24633
1.23923
1.23228
1.23049
1.23048
1.23131
1.23225
1.23355
1.23567
1.23787
1.23872
1.23867
1.23824
1.23764
1.23689
1.2352
1.23189
1.22732
1.22406
1.22274
1.22266
1.22376
1.22582