/*--------------------------------*- C++ -*----------------------------------*\
  =========                 |
  \\      /  F ield         | OpenFOAM: The Open Source CFD Toolbox
   \\    /   O peration     | Website:  https://openfoam.org
    \\  /    A nd           | Version:  7
     \\/     M anipulation  |
\*---------------------------------------------------------------------------*/
FoamFile
{
    version     2.0;
    format      ascii;
    class       volScalarField;
    location    "3.2";
    object      T;
}
// * * * * * * * * * * * * * * * * * * * * * * * * * * * * * * * * * * * * * //

dimensions      [0 0 0 1 0 0 0];

internalField   nonuniform List<scalar> 
16192
(
1.99208
1.98659
1.98344
1.98105
1.98296
1.9902
1.99414
1.99233
1.98647
1.9761
1.96114
1.94931
1.94444
1.942
1.94266
1.94848
1.95285
1.95104
1.94654
1.9389
1.92593
1.91326
1.90748
1.90529
1.90588
1.91219
1.91919
1.91855
1.91422
1.90652
1.8923
1.87855
1.87208
1.86997
1.87068
1.87648
1.88167
1.88065
1.87702
1.86978
1.85702
1.84384
1.8367
1.83362
1.83284
1.8374
1.84552
1.84703
1.84469
1.83926
1.8295
1.8159
1.8072
1.80385
1.80191
1.8029
1.80879
1.81384
1.81288
1.80947
1.80283
1.79186
1.77858
1.77166
1.76912
1.76733
1.76562
1.76544
1.76754
1.76949
1.76805
1.76561
1.76264
1.75692
1.74887
1.7419
1.7383
1.73663
1.73562
1.73521
1.73359
1.73127
1.72903
1.72526
1.71995
1.71529
1.71286
1.71107
1.7093
1.70734
1.70508
1.70254
1.70012
1.69853
1.69609
1.69193
1.68741
1.68403
1.68162
1.67911
1.67608
1.6727
1.66972
1.66784
1.66663
1.66572
1.66491
1.66333
1.6615
1.65968
1.65691
1.65165
1.64549
1.64244
1.64107
1.63978
1.63927
1.64019
1.63983
1.63788
1.63625
1.63416
1.6298
1.62328
1.61957
1.61868
1.61819
1.61808
1.6173
1.61562
1.61326
1.61018
1.60571
1.60032
1.5961
1.59447
1.59388
1.59403
1.59527
1.595
1.59342
1.59127
1.58755
1.58094
1.57357
1.5694
1.56765
1.56672
1.56608
1.56684
1.56887
1.56877
1.56761
1.56596
1.56202
1.55269
1.54262
1.53797
1.53631
1.53555
1.53565
1.54002
1.54747
1.54995
1.54924
1.54727
1.54424
1.53795
1.52872
1.52079
1.5163
1.51421
1.51336
1.51351
1.51482
1.51523
1.51478
1.51403
1.5128
1.51097
1.50893
1.50742
1.50586
1.50372
1.50143
1.49932
1.49792
1.49653
1.49433
1.49109
1.48726
1.4841
1.48125
1.4789
1.47765
1.47706
1.47675
1.47635
1.4755
1.47461
1.47369
1.47258
1.4711
1.46914
1.46651
1.46388
1.46256
1.46171
1.4613
1.46091
1.46031
1.45946
1.45889
1.45875
1.45868
1.45824
1.45739
1.4556
1.45215
1.44798
1.44595
1.44533
1.4446
1.44383
1.44348
1.44386
1.44406
1.44304
1.44194
1.44035
1.43723
1.43027
1.42258
1.42
1.41946
1.41915
1.41879
1.41859
1.41922
1.42255
1.42907
1.43271
1.43249
1.43161
1.4309
1.42968
1.42658
1.41867
1.40806
1.40482
1.40466
1.40523
1.40651
1.98819
1.9841
1.98253
1.98622
1.99537
1.99892
1.99591
1.9888
1.97634
1.96047
1.95206
1.94819
1.94558
1.94639
1.95165
1.95549
1.95361
1.94935
1.94243
1.93059
1.91752
1.90978
1.90743
1.90775
1.91354
1.92045
1.91989
1.91583
1.90899
1.89734
1.88334
1.87476
1.87231
1.87273
1.87861
1.88413
1.88266
1.87794
1.86964
1.85676
1.84487
1.83996
1.83755
1.83652
1.83996
1.84773
1.84983
1.8471
1.84113
1.8308
1.8171
1.80849
1.80475
1.80311
1.80443
1.81029
1.81473
1.81353
1.81066
1.8049
1.79423
1.78073
1.77259
1.76908
1.76695
1.76528
1.76573
1.76899
1.77119
1.76967
1.76698
1.76381
1.75802
1.74996
1.74335
1.74027
1.73858
1.73755
1.73669
1.73481
1.73245
1.73006
1.72606
1.72093
1.71625
1.7141
1.71282
1.71169
1.71016
1.70826
1.70587
1.70302
1.6999
1.69614
1.69235
1.6889
1.68549
1.68282
1.68068
1.67911
1.67763
1.67546
1.67225
1.66906
1.66675
1.66483
1.66301
1.66117
1.65894
1.65616
1.65268
1.64846
1.64522
1.64419
1.64359
1.64372
1.64425
1.64327
1.64117
1.63888
1.63557
1.63073
1.62518
1.62114
1.61974
1.61933
1.62052
1.62123
1.61995
1.61812
1.61542
1.61012
1.60229
1.59695
1.59486
1.59385
1.59332
1.59495
1.59717
1.5965
1.59492
1.59299
1.58897
1.58082
1.57264
1.5691
1.56787
1.56703
1.56703
1.56892
1.56977
1.56925
1.56798
1.56611
1.56242
1.55517
1.54672
1.54133
1.53849
1.53745
1.53772
1.53988
1.54178
1.54254
1.54267
1.54141
1.53904
1.53552
1.53115
1.52773
1.52413
1.51965
1.51612
1.51426
1.51275
1.51168
1.51035
1.50938
1.50915
1.50917
1.50901
1.5084
1.50739
1.50545
1.50199
1.49832
1.49522
1.49239
1.48963
1.48732
1.48605
1.48497
1.48355
1.48137
1.47846
1.47553
1.47335
1.47225
1.47104
1.46934
1.46847
1.46803
1.4682
1.46875
1.46845
1.46703
1.46407
1.46044
1.45803
1.45662
1.45517
1.45399
1.45348
1.45364
1.45482
1.45607
1.45644
1.45582
1.45423
1.45042
1.44467
1.44174
1.44073
1.43976
1.4389
1.43855
1.43948
1.44035
1.43966
1.43851
1.43704
1.43411
1.42701
1.4193
1.41673
1.4162
1.41588
1.41551
1.41532
1.41591
1.41887
1.42493
1.4287
1.4285
1.42759
1.42703
1.42601
1.42342
1.41646
1.40623
1.40279
1.40264
1.40275
1.98851
1.98669
1.99017
1.99973
2.00337
1.99995
1.99251
1.97925
1.9634
1.95392
1.94956
1.94796
1.95011
1.95555
1.95795
1.9556
1.95131
1.94463
1.93427
1.92191
1.91439
1.91163
1.91095
1.91468
1.92069
1.92042
1.91653
1.90995
1.89854
1.88571
1.87943
1.87667
1.87635
1.8806
1.88484
1.8835
1.87955
1.87148
1.85723
1.84507
1.83966
1.83711
1.83664
1.84106
1.84899
1.85084
1.8484
1.84332
1.83372
1.81986
1.8102
1.80651
1.80504
1.80639
1.81216
1.81632
1.81507
1.81153
1.80495
1.79475
1.78234
1.77456
1.77153
1.76952
1.76806
1.76834
1.77123
1.77326
1.7716
1.76879
1.76543
1.75947
1.7512
1.74449
1.74134
1.73989
1.73918
1.73836
1.73655
1.73419
1.73139
1.72679
1.72149
1.71739
1.71546
1.71419
1.71351
1.71264
1.71124
1.70961
1.70748
1.70435
1.69934
1.69308
1.68853
1.68611
1.6847
1.6833
1.68186
1.68055
1.67915
1.67724
1.67436
1.67089
1.66754
1.66448
1.66178
1.65949
1.65683
1.65253
1.64857
1.64685
1.64628
1.64631
1.64732
1.64827
1.6475
1.64575
1.64325
1.63922
1.63267
1.62601
1.62229
1.6209
1.62041
1.62151
1.62349
1.62287
1.62121
1.61942
1.61624
1.60931
1.60105
1.59641
1.59498
1.59401
1.5935
1.59501
1.59758
1.59729
1.59598
1.594
1.58948
1.58062
1.57336
1.57071
1.56907
1.56785
1.56697
1.56636
1.5659
1.5651
1.56429
1.56263
1.55969
1.55555
1.55156
1.54841
1.54531
1.54288
1.54196
1.54064
1.5387
1.53731
1.53583
1.53368
1.53095
1.53009
1.53015
1.52965
1.52879
1.52671
1.52244
1.51625
1.51129
1.50827
1.50692
1.50616
1.5061
1.5083
1.50879
1.50794
1.50706
1.50581
1.50286
1.49733
1.49186
1.48881
1.48676
1.48555
1.4848
1.48485
1.48434
1.48277
1.48042
1.47626
1.47102
1.4676
1.46591
1.46509
1.46486
1.46523
1.46676
1.46867
1.46895
1.46827
1.4662
1.46124
1.45509
1.4516
1.45004
1.44929
1.44891
1.44925
1.45183
1.45476
1.45576
1.45538
1.45425
1.45176
1.44566
1.43879
1.43659
1.43586
1.43503
1.43431
1.43443
1.43661
1.43761
1.43684
1.43569
1.43395
1.43056
1.42297
1.4156
1.41327
1.41281
1.41251
1.4122
1.41205
1.41247
1.41478
1.42029
1.42455
1.42488
1.4244
1.42391
1.42304
1.42088
1.4142
1.40349
1.39947
1.39911
1.98839
1.99377
2.00382
2.00646
2.00249
1.99445
1.98064
1.96506
1.95789
1.95474
1.95325
1.95575
1.96041
1.96128
1.95812
1.95316
1.94622
1.93613
1.92492
1.91769
1.91472
1.91366
1.91638
1.92142
1.92131
1.9173
1.91104
1.90117
1.8888
1.8804
1.87772
1.87789
1.88255
1.88689
1.88524
1.88033
1.87192
1.8597
1.84808
1.84157
1.83872
1.83812
1.84204
1.85013
1.85221
1.8496
1.84425
1.83524
1.8227
1.81309
1.80922
1.80732
1.80801
1.81334
1.81799
1.81673
1.81332
1.80739
1.79641
1.78224
1.77489
1.77223
1.77052
1.76932
1.77027
1.77375
1.77555
1.77386
1.77113
1.76759
1.76147
1.75322
1.7462
1.74281
1.74139
1.74071
1.74027
1.73871
1.73653
1.73388
1.72909
1.72324
1.71872
1.71657
1.71537
1.71476
1.71438
1.7135
1.71205
1.71027
1.7083
1.70426
1.698
1.69194
1.68766
1.68546
1.68397
1.68286
1.68209
1.68065
1.67926
1.67777
1.67542
1.67243
1.66941
1.66619
1.66252
1.65809
1.65383
1.65043
1.64805
1.64687
1.64616
1.6469
1.64992
1.65046
1.64917
1.64744
1.6446
1.63811
1.63025
1.62497
1.62291
1.62186
1.62128
1.62189
1.62347
1.62349
1.62227
1.62021
1.61597
1.60846
1.60164
1.59886
1.59731
1.59616
1.59556
1.59582
1.59634
1.596
1.59434
1.59219
1.58849
1.58173
1.57633
1.57341
1.5711
1.56893
1.56687
1.56508
1.56389
1.56244
1.56042
1.55789
1.5547
1.55317
1.55249
1.55213
1.55132
1.54925
1.54588
1.54133
1.53713
1.5332
1.52927
1.52585
1.52454
1.52488
1.52765
1.53068
1.53118
1.53009
1.52767
1.52168
1.51211
1.50667
1.5049
1.5041
1.50353
1.50424
1.50714
1.50692
1.50594
1.5049
1.50257
1.49653
1.48979
1.48694
1.48583
1.48486
1.48454
1.48509
1.48466
1.48315
1.48117
1.47697
1.46965
1.46465
1.46317
1.46247
1.46203
1.46303
1.46685
1.46946
1.46938
1.46865
1.46687
1.46131
1.45208
1.44725
1.44621
1.44574
1.4454
1.44571
1.44915
1.45402
1.45494
1.4542
1.45287
1.45079
1.44641
1.43847
1.43363
1.43255
1.43201
1.43132
1.43097
1.43191
1.43389
1.43383
1.43288
1.43201
1.43048
1.42698
1.41929
1.41219
1.40999
1.40955
1.4092
1.40878
1.4084
1.40844
1.41029
1.4161
1.42197
1.42264
1.42223
1.42161
1.42061
1.4181
1.41026
1.39889
1.39508
1.99911
2.00885
2.01021
2.00519
1.99545
1.97877
1.96531
1.95978
1.95692
1.95719
1.96155
1.96537
1.9643
1.96051
1.95491
1.94767
1.9382
1.92797
1.92026
1.91706
1.91567
1.91751
1.92218
1.92266
1.91875
1.91261
1.90259
1.89075
1.88372
1.88082
1.88031
1.88381
1.88747
1.88587
1.88174
1.87365
1.85928
1.84782
1.84386
1.84146
1.84034
1.84373
1.85117
1.85327
1.85082
1.84597
1.83683
1.82298
1.8142
1.81097
1.80932
1.81004
1.81485
1.81852
1.81713
1.81402
1.80809
1.79862
1.78631
1.77735
1.7732
1.77107
1.76991
1.77125
1.77571
1.77791
1.77632
1.77382
1.77044
1.7641
1.7553
1.74828
1.74476
1.74329
1.74255
1.74204
1.74062
1.73876
1.73679
1.73275
1.72674
1.72111
1.71854
1.71716
1.71638
1.7162
1.71544
1.71401
1.71258
1.71093
1.70733
1.70192
1.6963
1.69226
1.68982
1.68767
1.68549
1.68353
1.6823
1.6816
1.68009
1.6781
1.6757
1.67342
1.67142
1.66878
1.66418
1.65789
1.65213
1.64948
1.64858
1.64789
1.64778
1.64964
1.65139
1.65119
1.6504
1.64872
1.64441
1.63632
1.62877
1.62597
1.62477
1.62387
1.6238
1.62443
1.62333
1.62176
1.62006
1.61735
1.61263
1.60748
1.60426
1.60246
1.60122
1.60018
1.5988
1.59698
1.59463
1.59241
1.59045
1.58762
1.58405
1.58056
1.57822
1.57647
1.57427
1.5712
1.56758
1.56437
1.56157
1.55903
1.55595
1.55324
1.55209
1.55169
1.55251
1.55457
1.55474
1.55329
1.55071
1.54533
1.53668
1.52797
1.52277
1.52082
1.52013
1.52078
1.52567
1.53137
1.53209
1.53092
1.52926
1.52575
1.51656
1.5071
1.50411
1.50288
1.50219
1.50201
1.5037
1.50641
1.50598
1.50454
1.50192
1.49602
1.48919
1.48666
1.48558
1.48483
1.48511
1.48556
1.48437
1.48284
1.48112
1.47721
1.46948
1.46412
1.46251
1.46172
1.46125
1.46227
1.46727
1.46992
1.46946
1.46841
1.46637
1.46072
1.45126
1.44567
1.44411
1.44349
1.44312
1.44341
1.44665
1.45044
1.45097
1.45035
1.44943
1.44841
1.4459
1.44014
1.43301
1.4301
1.42935
1.42883
1.42827
1.42827
1.42968
1.43097
1.43035
1.42932
1.42847
1.42713
1.42385
1.41614
1.40902
1.40674
1.40621
1.40576
1.4052
1.40471
1.40477
1.40709
1.41399
1.4199
1.42036
1.41989
1.41919
1.41776
1.41416
1.40449
1.39342
2.01276
2.01304
2.00776
1.99814
1.98217
1.96729
1.96086
1.95881
1.96079
1.967
1.96981
1.96759
1.96273
1.95576
1.94804
1.93967
1.93101
1.92373
1.92018
1.91816
1.91884
1.92232
1.92295
1.91937
1.91393
1.90577
1.89459
1.88578
1.88254
1.882
1.88507
1.88786
1.88602
1.88141
1.8737
1.86241
1.85103
1.84416
1.84109
1.84005
1.844
1.85212
1.85445
1.85188
1.84709
1.83915
1.82734
1.81676
1.81174
1.81003
1.81053
1.81553
1.81995
1.81867
1.81508
1.80909
1.79914
1.78621
1.77899
1.77634
1.77461
1.77355
1.77462
1.77852
1.78034
1.77875
1.77648
1.77334
1.76726
1.75873
1.7512
1.74709
1.74558
1.74479
1.74428
1.74301
1.7412
1.73924
1.73521
1.72974
1.72465
1.72173
1.72007
1.71894
1.71808
1.7169
1.71555
1.71445
1.71264
1.70896
1.70358
1.69895
1.69597
1.69446
1.69292
1.69087
1.68847
1.68604
1.683
1.67928
1.67659
1.67511
1.67429
1.67404
1.67257
1.67003
1.66558
1.65822
1.65302
1.65123
1.65037
1.64995
1.65107
1.65312
1.65248
1.65122
1.64952
1.64665
1.64117
1.6344
1.63026
1.62844
1.62726
1.62657
1.62573
1.62428
1.62238
1.62024
1.61735
1.6129
1.60825
1.60634
1.6056
1.605
1.60455
1.60338
1.60131
1.59812
1.59427
1.59039
1.58689
1.58344
1.5806
1.57906
1.57813
1.57703
1.57556
1.57348
1.57008
1.56515
1.55975
1.55525
1.55254
1.55123
1.55051
1.55083
1.55371
1.5568
1.55671
1.55524
1.55311
1.54812
1.53674
1.52543
1.52063
1.51906
1.51821
1.51844
1.52429
1.53173
1.53252
1.53127
1.52945
1.52666
1.52194
1.51369
1.50598
1.50256
1.50103
1.50023
1.49995
1.50049
1.50106
1.50035
1.4989
1.4961
1.49217
1.4889
1.48694
1.48572
1.48487
1.48455
1.48451
1.48319
1.48109
1.47726
1.47084
1.46556
1.46311
1.46208
1.46175
1.46283
1.46501
1.46566
1.46539
1.46468
1.4632
1.45931
1.45164
1.44543
1.4433
1.44235
1.44183
1.44216
1.4446
1.4472
1.44737
1.44644
1.44542
1.44445
1.44327
1.44053
1.43527
1.42942
1.4271
1.42643
1.42592
1.42547
1.42558
1.42674
1.42775
1.42724
1.42657
1.42598
1.42463
1.421
1.41285
1.4058
1.40361
1.40313
1.40264
1.40215
1.40189
1.40228
1.40544
1.41275
1.41682
1.41665
1.41614
1.41554
1.41393
1.40889
1.39714
2.01618
2.00993
1.99818
1.98001
1.96877
1.96514
1.96278
1.96483
1.97122
1.97317
1.97042
1.96477
1.95678
1.94828
1.94049
1.93318
1.92649
1.92274
1.92037
1.92037
1.92286
1.92361
1.92025
1.91473
1.90614
1.89566
1.88883
1.88563
1.88445
1.88679
1.88948
1.88749
1.88272
1.87431
1.86062
1.85043
1.84681
1.84455
1.84346
1.8465
1.85347
1.85553
1.85304
1.84856
1.84056
1.82792
1.81873
1.81518
1.81331
1.81327
1.81697
1.82031
1.81896
1.81601
1.81074
1.80143
1.78927
1.78094
1.77683
1.77521
1.77459
1.77669
1.78128
1.78294
1.78132
1.77925
1.7763
1.77027
1.76166
1.75434
1.75042
1.74878
1.748
1.74723
1.74578
1.74405
1.74232
1.73828
1.73209
1.72702
1.72478
1.72367
1.72285
1.72161
1.71979
1.71765
1.71553
1.71297
1.70951
1.70546
1.70115
1.6981
1.69699
1.6964
1.69553
1.69409
1.69139
1.6867
1.68156
1.67767
1.67534
1.67386
1.67274
1.6718
1.67088
1.66945
1.66642
1.66155
1.65792
1.65566
1.65425
1.6539
1.6539
1.65256
1.65074
1.64913
1.6467
1.64216
1.63632
1.63334
1.63228
1.6315
1.63079
1.62916
1.62687
1.62428
1.62175
1.61814
1.61299
1.60856
1.60648
1.60572
1.60558
1.60628
1.60603
1.60471
1.60306
1.60039
1.59556
1.58902
1.58345
1.58077
1.57945
1.57836
1.57766
1.57701
1.57582
1.57407
1.57131
1.56648
1.55951
1.5542
1.55191
1.5507
1.54984
1.55025
1.55487
1.55875
1.55798
1.55617
1.55373
1.54877
1.53815
1.5258
1.52064
1.51905
1.51823
1.51852
1.52138
1.52545
1.52783
1.52835
1.52787
1.52625
1.52303
1.51873
1.51329
1.50634
1.50108
1.4986
1.49748
1.49699
1.49615
1.49511
1.49436
1.49401
1.49321
1.49206
1.49053
1.4884
1.48577
1.48344
1.4813
1.47967
1.47768
1.47446
1.47067
1.46773
1.46575
1.46423
1.46363
1.46389
1.46334
1.46231
1.46137
1.4602
1.45839
1.45541
1.45121
1.4472
1.44413
1.44228
1.44153
1.44171
1.44288
1.44352
1.44361
1.44298
1.44197
1.44091
1.43975
1.43855
1.43619
1.43205
1.4268
1.42442
1.42378
1.42328
1.42277
1.42266
1.42348
1.42461
1.42434
1.42379
1.42326
1.42206
1.4183
1.4095
1.40275
1.40101
1.40068
1.40028
1.39983
1.3996
1.40045
1.4053
1.41234
1.4139
1.41329
1.4126
1.41167
1.40909
1.40219
2.0119
2.00069
1.98333
1.96986
1.96465
1.96348
1.96775
1.9749
1.97575
1.97238
1.96592
1.95724
1.9487
1.94174
1.93528
1.929
1.9251
1.92248
1.92189
1.92345
1.92409
1.92086
1.91598
1.90882
1.8988
1.89007
1.88637
1.88533
1.88753
1.88952
1.88759
1.88341
1.87631
1.86502
1.85348
1.84665
1.84384
1.84319
1.84751
1.85504
1.85665
1.85413
1.84996
1.84305
1.83227
1.8216
1.81599
1.81432
1.81449
1.81837
1.8218
1.82047
1.81728
1.81168
1.80288
1.79205
1.78436
1.78101
1.77935
1.77871
1.78041
1.78452
1.7856
1.78389
1.78196
1.77909
1.77333
1.76489
1.75756
1.75368
1.75217
1.75149
1.75072
1.74918
1.74729
1.74496
1.74061
1.73535
1.73027
1.72725
1.72598
1.72537
1.725
1.72367
1.72191
1.71968
1.71635
1.71065
1.70479
1.70179
1.70032
1.69951
1.69949
1.69921
1.6983
1.69679
1.69356
1.6872
1.68101
1.67773
1.6754
1.67325
1.67161
1.67011
1.66852
1.66684
1.66455
1.66295
1.66203
1.66116
1.65972
1.65735
1.65443
1.65207
1.65026
1.64685
1.64179
1.63665
1.6338
1.63273
1.63241
1.63307
1.63247
1.63064
1.62847
1.62547
1.62073
1.61458
1.60983
1.6072
1.60602
1.60511
1.60524
1.60623
1.60573
1.60454
1.60321
1.6012
1.59672
1.58871
1.58241
1.58009
1.57884
1.57768
1.57639
1.57515
1.57418
1.57302
1.57118
1.5671
1.5602
1.55492
1.55261
1.55118
1.55044
1.55118
1.5543
1.55561
1.55472
1.55316
1.55118
1.54726
1.53985
1.53212
1.52636
1.52269
1.52099
1.52045
1.52114
1.52187
1.52186
1.52173
1.52185
1.52188
1.52066
1.51904
1.51663
1.51292
1.5067
1.49973
1.49549
1.49301
1.4915
1.49054
1.49016
1.49077
1.4922
1.49241
1.4917
1.49024
1.48748
1.4833
1.47956
1.47642
1.47349
1.4707
1.46875
1.46785
1.46723
1.46653
1.4653
1.46362
1.46159
1.45975
1.45802
1.45573
1.45273
1.45013
1.44858
1.44738
1.44588
1.44394
1.44247
1.44164
1.44082
1.44018
1.43983
1.43948
1.4388
1.43777
1.43649
1.43559
1.43488
1.43336
1.42977
1.42439
1.42169
1.42085
1.42012
1.41946
1.41913
1.42028
1.42216
1.42215
1.42174
1.42121
1.41998
1.41556
1.40588
1.39992
1.3985
1.39815
1.39768
1.39726
1.39724
1.39894
1.4043
1.40959
1.41009
1.40936
1.40846
1.40712
1.4039
1.99958
1.98107
1.97163
1.9685
1.96713
1.97144
1.97845
1.97839
1.97419
1.96648
1.95651
1.94787
1.94189
1.93649
1.93143
1.9279
1.92518
1.92401
1.92474
1.92484
1.92146
1.91684
1.90986
1.90065
1.89344
1.88988
1.88814
1.88939
1.8907
1.88841
1.88363
1.87591
1.86421
1.85499
1.85081
1.8483
1.84749
1.8506
1.85682
1.8579
1.85535
1.85158
1.84501
1.83411
1.82454
1.82004
1.81811
1.81771
1.82032
1.82293
1.82154
1.819
1.8145
1.80574
1.79384
1.78676
1.78385
1.78252
1.78219
1.7843
1.78816
1.78864
1.78684
1.78484
1.78164
1.77573
1.76763
1.76071
1.75694
1.75546
1.75486
1.75464
1.75338
1.75156
1.74925
1.74432
1.73719
1.73224
1.73013
1.72894
1.72827
1.7279
1.72682
1.72529
1.72333
1.72042
1.71477
1.70829
1.70354
1.7013
1.70015
1.7
1.70117
1.70078
1.69973
1.69855
1.6947
1.68747
1.68187
1.67889
1.67639
1.67392
1.67135
1.66884
1.66635
1.66484
1.66428
1.66421
1.66482
1.66467
1.66347
1.66129
1.65778
1.65327
1.64757
1.64135
1.63641
1.63397
1.63288
1.63241
1.63338
1.63394
1.63281
1.63118
1.62916
1.62558
1.61848
1.61184
1.60836
1.60699
1.60582
1.60499
1.60493
1.60514
1.60459
1.60356
1.6023
1.60063
1.59714
1.59003
1.58316
1.57995
1.57814
1.57664
1.5754
1.57433
1.57285
1.5713
1.56947
1.56655
1.56182
1.55788
1.55538
1.5535
1.5524
1.55247
1.55248
1.55136
1.54987
1.54783
1.54514
1.54163
1.53771
1.5347
1.53204
1.52889
1.52603
1.52329
1.52103
1.51967
1.51826
1.5165
1.51554
1.51603
1.51741
1.51704
1.51584
1.5146
1.5121
1.50542
1.49556
1.4898
1.488
1.48738
1.48703
1.488
1.49078
1.49178
1.4911
1.49
1.48812
1.484
1.47791
1.47325
1.47041
1.46869
1.46796
1.46802
1.46826
1.46737
1.466
1.46415
1.4615
1.45826
1.45467
1.45108
1.44845
1.44724
1.4468
1.44692
1.44712
1.44641
1.44482
1.44231
1.4398
1.43816
1.43695
1.43591
1.43529
1.43506
1.43458
1.43385
1.43339
1.43281
1.43121
1.42656
1.42085
1.4184
1.41746
1.41671
1.41613
1.41646
1.41936
1.42092
1.42073
1.42031
1.41957
1.4176
1.41136
1.40142
1.397
1.3958
1.39546
1.39508
1.39482
1.39504
1.39692
1.40155
1.40559
1.40577
1.40494
1.4039
1.40252
1.98352
1.97169
1.96742
1.96727
1.97374
1.98115
1.98057
1.97594
1.96749
1.95652
1.94772
1.94191
1.93712
1.93317
1.92973
1.92704
1.92579
1.92619
1.92587
1.92252
1.91807
1.91126
1.9026
1.89511
1.89139
1.89001
1.89126
1.89204
1.88968
1.88519
1.87764
1.86633
1.85683
1.85123
1.84912
1.84926
1.85356
1.859
1.85912
1.85654
1.85312
1.84744
1.83836
1.82841
1.82238
1.82061
1.82027
1.8227
1.82445
1.82282
1.82031
1.81577
1.80841
1.79884
1.79099
1.78688
1.78534
1.78485
1.78703
1.79127
1.79189
1.79015
1.78831
1.78503
1.77872
1.76993
1.76337
1.75997
1.75861
1.75803
1.75778
1.7566
1.75493
1.75307
1.74887
1.74226
1.73587
1.7323
1.73091
1.73008
1.73019
1.72962
1.72818
1.72663
1.72452
1.71957
1.71283
1.70721
1.70448
1.70284
1.7019
1.70198
1.70264
1.70198
1.7005
1.69746
1.69285
1.68787
1.68461
1.68192
1.67854
1.67452
1.67053
1.6672
1.66525
1.66423
1.66398
1.66564
1.66736
1.66727
1.6662
1.6643
1.66033
1.65254
1.64334
1.63779
1.63476
1.6332
1.63213
1.63235
1.6339
1.63371
1.63274
1.63164
1.62952
1.6242
1.61645
1.61082
1.60876
1.60734
1.60635
1.60609
1.60661
1.60634
1.6054
1.60421
1.60271
1.60057
1.59682
1.59095
1.58545
1.58165
1.57872
1.57622
1.57404
1.5721
1.57006
1.5676
1.56511
1.5629
1.56079
1.55918
1.55793
1.55654
1.55463
1.55233
1.54989
1.548
1.546
1.54296
1.53871
1.5358
1.53482
1.53493
1.53518
1.53445
1.53223
1.52814
1.52245
1.51726
1.51383
1.51174
1.51054
1.51019
1.51271
1.5158
1.51535
1.51413
1.51272
1.50929
1.49957
1.48956
1.48674
1.48582
1.48529
1.48593
1.49005
1.49138
1.49045
1.48935
1.48779
1.48381
1.47638
1.47101
1.46928
1.46831
1.46779
1.46843
1.46861
1.46756
1.46645
1.46483
1.46167
1.45604
1.45069
1.44804
1.4469
1.44644
1.44618
1.44692
1.448
1.44753
1.44643
1.44433
1.44023
1.43586
1.43394
1.43306
1.43245
1.4322
1.43306
1.43303
1.4325
1.43192
1.43091
1.42761
1.42116
1.41714
1.41577
1.41494
1.41434
1.41442
1.41684
1.41932
1.41931
1.41891
1.41848
1.41727
1.41376
1.40662
1.39802
1.3943
1.39305
1.39271
1.39235
1.39213
1.39235
1.39383
1.39761
1.40132
1.40154
1.40067
1.39979
1.97418
1.97082
1.97027
1.97619
1.9832
1.98218
1.97725
1.96819
1.95629
1.94759
1.94255
1.93885
1.93558
1.93252
1.92998
1.92821
1.92782
1.92659
1.92354
1.9197
1.91365
1.9055
1.89797
1.89438
1.89282
1.89363
1.89379
1.89118
1.88667
1.87957
1.86944
1.86022
1.85558
1.85354
1.85351
1.85723
1.86149
1.86079
1.85821
1.85504
1.84974
1.84088
1.8317
1.82671
1.82484
1.82418
1.82563
1.82691
1.82524
1.82299
1.81895
1.81131
1.80076
1.79417
1.79156
1.7903
1.78987
1.79171
1.7949
1.79468
1.79283
1.79119
1.788
1.78199
1.77346
1.76663
1.76282
1.76134
1.76078
1.76095
1.7599
1.7582
1.75637
1.75218
1.74608
1.74026
1.73649
1.73471
1.73371
1.7334
1.73242
1.73084
1.72931
1.72736
1.72293
1.71674
1.71119
1.70833
1.70683
1.70583
1.70491
1.70364
1.70189
1.69928
1.69663
1.69371
1.68984
1.68742
1.68594
1.68406
1.68106
1.67605
1.67054
1.66727
1.66571
1.6647
1.66438
1.6662
1.66868
1.66885
1.66806
1.66581
1.66036
1.65056
1.64144
1.63691
1.63492
1.63337
1.6326
1.63355
1.63387
1.63244
1.6311
1.62962
1.62669
1.62081
1.61452
1.61208
1.61075
1.60948
1.60822
1.60682
1.60518
1.60332
1.60155
1.59982
1.59811
1.59615
1.59395
1.59093
1.5866
1.58322
1.58027
1.57685
1.57315
1.56996
1.56746
1.56511
1.5626
1.56085
1.55977
1.5596
1.55953
1.55807
1.55599
1.5531
1.54935
1.54519
1.54085
1.53652
1.5341
1.53335
1.53327
1.53495
1.53771
1.53795
1.53637
1.53309
1.52579
1.51607
1.51042
1.50857
1.50759
1.50685
1.5074
1.51214
1.51513
1.51421
1.51241
1.50991
1.50502
1.49525
1.48757
1.48553
1.48471
1.4843
1.48487
1.48852
1.4906
1.48974
1.48773
1.48337
1.47558
1.47051
1.46913
1.46835
1.46815
1.46889
1.46872
1.46762
1.46648
1.465
1.46077
1.45369
1.449
1.44727
1.44662
1.44613
1.44619
1.44789
1.44875
1.4481
1.44708
1.44513
1.44054
1.43482
1.43213
1.43121
1.4306
1.43019
1.43058
1.43241
1.43249
1.43181
1.43066
1.4277
1.42178
1.41687
1.41519
1.41428
1.41364
1.41372
1.41541
1.41652
1.41619
1.4156
1.41501
1.41425
1.41274
1.4093
1.40334
1.39574
1.39163
1.39023
1.38987
1.3895
1.38924
1.38923
1.39016
1.39344
1.39752
1.39812
1.39755
1.97059
1.97133
1.97887
1.98544
1.98382
1.97848
1.96897
1.95665
1.94825
1.94361
1.94034
1.93757
1.93512
1.9328
1.93092
1.92972
1.92782
1.9249
1.92125
1.91534
1.90793
1.90146
1.89796
1.89628
1.89681
1.89644
1.89372
1.88917
1.88135
1.87089
1.86356
1.85952
1.85764
1.85781
1.86113
1.86412
1.8628
1.86035
1.85743
1.85258
1.84489
1.83615
1.83006
1.82806
1.8273
1.82834
1.82904
1.82725
1.82526
1.82183
1.81558
1.80661
1.79885
1.79466
1.79323
1.79291
1.79535
1.79852
1.79805
1.79618
1.79444
1.79091
1.78475
1.7762
1.76974
1.76638
1.76493
1.76425
1.76391
1.76258
1.76094
1.75942
1.75558
1.74878
1.7427
1.73989
1.73864
1.73795
1.73754
1.73622
1.73439
1.73237
1.72989
1.7253
1.71927
1.7143
1.71184
1.71064
1.70976
1.70831
1.7065
1.70439
1.70169
1.69803
1.69309
1.6902
1.68926
1.6883
1.68659
1.68444
1.68164
1.67795
1.67386
1.67039
1.66833
1.66741
1.66749
1.66933
1.66955
1.66805
1.66612
1.6632
1.65714
1.64824
1.64188
1.63884
1.63662
1.63491
1.63427
1.6349
1.63426
1.6328
1.63096
1.6279
1.62277
1.61697
1.61415
1.61314
1.61222
1.61106
1.60947
1.6073
1.60463
1.602
1.59962
1.59735
1.59497
1.59263
1.58981
1.58712
1.58495
1.58272
1.58056
1.57798
1.57419
1.56943
1.56561
1.56318
1.56161
1.5603
1.55945
1.55988
1.56009
1.55876
1.557
1.55446
1.54967
1.54194
1.53591
1.53335
1.53227
1.53163
1.53236
1.53656
1.53974
1.53923
1.53775
1.53532
1.52887
1.51681
1.50966
1.5075
1.50621
1.50515
1.50448
1.5052
1.50845
1.51086
1.51075
1.50933
1.50634
1.50193
1.49505
1.48779
1.48458
1.48342
1.48292
1.48291
1.48443
1.48516
1.48416
1.48163
1.47726
1.47318
1.47075
1.46967
1.46928
1.46892
1.46811
1.46765
1.46681
1.46449
1.45919
1.45209
1.44863
1.44764
1.44699
1.44664
1.44709
1.44831
1.44814
1.44744
1.44665
1.44508
1.44081
1.43467
1.43155
1.43021
1.42937
1.42895
1.42918
1.42932
1.42889
1.42835
1.42758
1.42598
1.42246
1.41825
1.41575
1.41445
1.41371
1.41376
1.41467
1.41462
1.41395
1.41331
1.41256
1.41142
1.41
1.4084
1.40587
1.40122
1.39374
1.38889
1.38749
1.38708
1.38663
1.38621
1.38594
1.38654
1.39003
1.39488
1.39621
1.9744
1.98178
1.98774
1.98576
1.98009
1.97029
1.95771
1.94969
1.94564
1.94286
1.94072
1.93853
1.93617
1.93397
1.93209
1.92969
1.92684
1.92327
1.91763
1.91073
1.90435
1.90111
1.89968
1.90009
1.89934
1.8968
1.89244
1.88526
1.87582
1.86764
1.86301
1.86133
1.86166
1.86501
1.86702
1.86532
1.86311
1.86029
1.85569
1.84831
1.8399
1.83452
1.83251
1.83156
1.83182
1.83173
1.8299
1.82785
1.82449
1.81869
1.81039
1.80357
1.80023
1.79885
1.79849
1.8004
1.80233
1.80118
1.79926
1.79748
1.79372
1.78741
1.77898
1.77277
1.76925
1.76774
1.76712
1.76722
1.76604
1.7642
1.76222
1.75798
1.75193
1.74607
1.74233
1.74083
1.74023
1.74113
1.74069
1.73888
1.73671
1.73359
1.72789
1.72151
1.71676
1.71421
1.71282
1.71244
1.71151
1.70974
1.70774
1.70506
1.70126
1.69645
1.69131
1.68782
1.68606
1.68446
1.68271
1.68074
1.67905
1.67772
1.67626
1.67484
1.67343
1.67189
1.67008
1.66812
1.66622
1.66408
1.66106
1.65658
1.65108
1.64626
1.64344
1.64145
1.63978
1.63821
1.63637
1.63437
1.6324
1.6303
1.62761
1.62364
1.61856
1.61535
1.61423
1.61344
1.61251
1.61123
1.60963
1.60748
1.60488
1.60203
1.59908
1.59621
1.59329
1.5892
1.58514
1.58275
1.58153
1.58076
1.57957
1.5779
1.57523
1.57007
1.56502
1.56276
1.56134
1.56026
1.56005
1.56021
1.55962
1.55828
1.55694
1.55482
1.54878
1.54022
1.53469
1.53286
1.53186
1.53118
1.53241
1.5375
1.54058
1.54002
1.53847
1.53598
1.53051
1.52071
1.51158
1.50761
1.50575
1.5043
1.5032
1.50262
1.50285
1.50391
1.50533
1.50573
1.50498
1.50355
1.50101
1.49615
1.48849
1.48326
1.48147
1.48085
1.48026
1.47939
1.47849
1.47785
1.47698
1.47586
1.47464
1.47324
1.47148
1.4694
1.46749
1.46581
1.46424
1.46146
1.45613
1.45147
1.44967
1.44854
1.44781
1.44755
1.44828
1.44874
1.4483
1.44754
1.4462
1.44401
1.44045
1.43606
1.43245
1.43013
1.4289
1.42825
1.42781
1.42712
1.42645
1.42553
1.42406
1.42228
1.42058
1.41858
1.41691
1.41597
1.415
1.41396
1.41313
1.41248
1.41182
1.4111
1.41026
1.40896
1.40752
1.40666
1.40573
1.40377
1.39904
1.39106
1.38593
1.38467
1.38413
1.38359
1.38315
1.38299
1.3844
1.38946
1.39464
1.98524
1.99029
1.98796
1.98202
1.97191
1.9596
1.95189
1.94809
1.9457
1.9444
1.94244
1.93995
1.93744
1.93494
1.93219
1.92943
1.92569
1.9201
1.91364
1.90787
1.90499
1.90368
1.90391
1.90282
1.9003
1.89574
1.88826
1.87904
1.87247
1.86895
1.86721
1.86719
1.86938
1.87024
1.86838
1.86612
1.86295
1.85858
1.85222
1.84465
1.83879
1.83648
1.83553
1.83546
1.8348
1.83285
1.83072
1.82764
1.82214
1.81429
1.80776
1.80417
1.80298
1.80296
1.80498
1.80617
1.80478
1.80284
1.80065
1.79633
1.78972
1.78172
1.77585
1.77263
1.77123
1.77064
1.77025
1.7688
1.76703
1.76525
1.76104
1.75373
1.74736
1.74452
1.74329
1.74262
1.7435
1.74418
1.7427
1.74066
1.73811
1.73252
1.72486
1.71907
1.71646
1.715
1.71436
1.71356
1.71177
1.71011
1.70837
1.70576
1.70172
1.69554
1.68945
1.68578
1.68364
1.68185
1.68015
1.67866
1.67743
1.67703
1.67781
1.67778
1.67685
1.67536
1.67233
1.66811
1.6637
1.65938
1.65405
1.64875
1.64568
1.64441
1.64373
1.64338
1.64242
1.64058
1.63804
1.63444
1.63101
1.62824
1.62477
1.62001
1.6163
1.615
1.61403
1.61291
1.61151
1.61008
1.60853
1.60668
1.60446
1.60204
1.59939
1.59609
1.59076
1.58531
1.58195
1.58035
1.57924
1.57882
1.57854
1.57738
1.57518
1.57155
1.56755
1.56476
1.56298
1.56167
1.56092
1.56097
1.56021
1.55888
1.55697
1.55347
1.54692
1.53901
1.53541
1.53386
1.53288
1.53268
1.53503
1.53837
1.53803
1.5367
1.53527
1.53326
1.52945
1.52338
1.51735
1.51176
1.50696
1.50404
1.50235
1.5013
1.5005
1.49993
1.5001
1.50163
1.50278
1.50219
1.50129
1.49987
1.49626
1.48905
1.48198
1.47815
1.47612
1.47441
1.47345
1.47356
1.47544
1.47648
1.47639
1.47551
1.47402
1.47164
1.46827
1.46472
1.46123
1.4572
1.45312
1.45122
1.45049
1.44993
1.44959
1.44913
1.4484
1.44733
1.44592
1.44423
1.44203
1.43966
1.43778
1.43635
1.43471
1.43224
1.42903
1.42678
1.42586
1.42518
1.42406
1.42228
1.42011
1.41912
1.41877
1.41874
1.41878
1.41816
1.41659
1.41421
1.41214
1.41097
1.40985
1.40838
1.40714
1.40659
1.40601
1.40532
1.40472
1.40391
1.40196
1.39615
1.38717
1.38276
1.38183
1.38125
1.38077
1.38054
1.38139
1.38548
1.39178
1.99298
1.99032
1.98435
1.97427
1.96223
1.95485
1.95154
1.94956
1.94872
1.94694
1.94428
1.94144
1.9385
1.93553
1.93263
1.92848
1.9228
1.91684
1.91148
1.9088
1.90764
1.9077
1.90652
1.90419
1.89973
1.89234
1.88368
1.877
1.87343
1.87208
1.87239
1.87419
1.87398
1.87186
1.86904
1.86533
1.86097
1.85536
1.84877
1.84333
1.84088
1.83975
1.83946
1.83874
1.8367
1.83418
1.83091
1.82565
1.81873
1.81233
1.80866
1.80742
1.80743
1.80934
1.80989
1.80816
1.80617
1.80373
1.79907
1.79187
1.7837
1.77839
1.77541
1.77393
1.77339
1.77363
1.77237
1.77036
1.76825
1.76378
1.75702
1.75063
1.74644
1.74466
1.74362
1.74423
1.74626
1.74551
1.74369
1.74194
1.73751
1.73012
1.72302
1.71938
1.71753
1.71613
1.71534
1.71394
1.71207
1.71027
1.70863
1.70644
1.70122
1.69389
1.6881
1.6846
1.68204
1.68009
1.67847
1.67711
1.67694
1.67863
1.68046
1.68017
1.67901
1.67739
1.67361
1.66659
1.65903
1.65298
1.64878
1.64545
1.6436
1.6425
1.64269
1.64369
1.64273
1.64079
1.63876
1.63577
1.6312
1.62639
1.62197
1.61776
1.61605
1.61499
1.6138
1.61239
1.61079
1.60897
1.60719
1.60563
1.60393
1.60183
1.59928
1.59434
1.5881
1.5835
1.58125
1.57948
1.5777
1.57598
1.57459
1.57354
1.57267
1.57167
1.5698
1.56802
1.56649
1.56482
1.56281
1.56068
1.55817
1.55557
1.55311
1.54935
1.54365
1.53902
1.53716
1.5359
1.53506
1.53528
1.53667
1.5363
1.53487
1.53319
1.53111
1.52823
1.52498
1.52207
1.51961
1.51688
1.5128
1.50704